<?xml version="1.0"?> 
<VTKFile type="StructuredGrid" version="0.1"> 
<StructuredGrid WholeExtent="0 15 0 15 0 0"> 
<Piece Extent="0 15 0 15 0 0"> 
<PointData>
<DataArray type="Float32" Name="|E|" format="ascii" NumberOfComponents="3"> 
-1.51713e+06 0 0 -1.51238e+06 95486.1 0 -1.51606e+06 195322 0 -1.52633e+06 301252 0 -1.54096e+06 414192 0 -1.55773e+06 534189 0 -1.57478e+06 660559 0 -1.59078e+06 792120 0 -1.60498e+06 927435 0 -1.61723e+06 1.06499e+06 0 -1.62785e+06 1.20327e+06 0 -1.63771e+06 1.34088e+06 0 -1.64823e+06 1.4765e+06 0 -1.6615e+06 1.60909e+06 0 -1.68047e+06 1.73798e+06 0 -1.70906e+06 1.86321e+06 0 -1.43582e+06 0 0 -1.43042e+06 107041 0 -1.43249e+06 217680 0 -1.44047e+06 333445 0 -1.45252e+06 455157 0 -1.46681e+06 582903 0 -1.48178e+06 716144 0 -1.49636e+06 853900 0 -1.51e+06 994944 0 -1.52269e+06 1.13797e+06 0 -1.53498e+06 1.28169e+06 0 -1.54799e+06 1.42495e+06 0 -1.5635e+06 1.56686e+06 0 -1.584e+06 1.70696e+06 0 -1.61292e+06 1.84558e+06 0 -1.6546e+06 1.98434e+06 0 -1.34904e+06 0 0 -1.34333e+06 117749 0 -1.34428e+06 238503 0 -1.35061e+06 363613 0 -1.36079e+06 493834 0 -1.37329e+06 629293 0 -1.38685e+06 769578 0 -1.4006e+06 913890 0 -1.4142e+06 1.06121e+06 0 -1.42784e+06 1.21047e+06 0 -1.44226e+06 1.36066e+06 0 -1.45883e+06 1.51101e+06 0 -1.47957e+06 1.66118e+06 0 -1.50726e+06 1.81159e+06 0 -1.54542e+06 1.9639e+06 0 -1.59813e+06 2.12178e+06 0 -1.25784e+06 0 0 -1.25207e+06 127793 0 -1.25229e+06 258122 0 -1.25746e+06 392204 0 -1.26629e+06 530745 0 -1.27752e+06 673921 0 -1.29014e+06 821439 0 -1.30349e+06 972677 0 -1.31741e+06 1.12684e+06 0 -1.33226e+06 1.28311e+06 0 -1.34897e+06 1.44085e+06 0 -1.36907e+06 1.59977e+06 0 -1.39469e+06 1.76023e+06 0 -1.42852e+06 1.92371e+06 0 -1.47363e+06 2.0934e+06 0 -1.53279e+06 2.27513e+06 0 -1.16301e+06 0 0 -1.15737e+06 137309 0 -1.15716e+06 276787 0 -1.16152e+06 419549 0 -1.16938e+06 566275 0 -1.17972e+06 717196 0 -1.19172e+06 872142 0 -1.20493e+06 1.03067e+06 0 -1.21934e+06 1.19223e+06 0 -1.23546e+06 1.3563e+06 0 -1.25432e+06 1.52264e+06 0 -1.27747e+06 1.69154e+06 0 -1.30693e+06 1.86415e+06 0 -1.34489e+06 2.04301e+06 0 -1.3932e+06 2.23272e+06 0 -1.4521e+06 2.44073e+06 0 -1.06518e+06 0 0 -1.05981e+06 146395 0 -1.05939e+06 294675 0 -1.0632e+06 445881 0 -1.07036e+06 600691 0 -1.08005e+06 759398 0 -1.09163e+06 921962 0 -1.10481e+06 1.08813e+06 0 -1.1197e+06 1.2576e+06 0 -1.13691e+06 1.43019e+06 0 -1.15747e+06 1.60609e+06 0 -1.1828e+06 1.78616e+06 0 -1.21449e+06 1.97231e+06 0 -1.25379e+06 2.168e+06 0 -1.30061e+06 2.37866e+06 0 -1.35188e+06 2.61197e+06 0 -964831 0 0 -959847 155121 0 -959369 311910 0 -962808 471363 0 -969451 634171 0 -978627 800703 0 -989859 971058 0 -1.00298e+06 1.14518e+06 0 -1.0182e+06 1.32302e+06 0 -1.03612e+06 1.50474e+06 0 -1.0577e+06 1.69095e+06 0 -1.08402e+06 1.88304e+06 0 -1.11598e+06 2.0835e+06 0 -1.15347e+06 2.29628e+06 0 -1.19415e+06 2.52674e+06 0 -1.23162e+06 2.78097e+06 0 -862376 0 0 -857854 163533 0 -857426 328572 0 -860608 496094 0 -866821 666820 0 -875533 841206 0 -886392 1.01949e+06 0 -899322 1.20183e+06 0 -914574 1.38841e+06 0 -932701 1.57973e+06 0 -954435 1.77676e+06 0 -980401 1.98129e+06 0 -1.01057e+06 2.19609e+06 0 -1.04337e+06 2.42499e+06 0 -1.07425e+06 2.67224e+06 0 -1.09459e+06 2.94084e+06 0 -758148 0 0 -754146 171660 0 -753833 344710 0 -756815 520131 0 -762624 698690 0 -770843 880939 0 -781219 1.06726e+06 0 -793736 1.258e+06 0 -808636 1.45361e+06 0 -826355 1.65482e+06 0 -847327 1.86292e+06 0 -871601 2.07986e+06 0 -898187 2.30833e+06 0 -924112 2.5514e+06 0 -943326 2.81132e+06 0 -946493 3.08733e+06 0 -652435 0 0 -648992 179516 0 -648826 360347 0 -651617 543496 0 -656993 729790 0 -664629 919882 0 -674347 1.11431e+06 0 -686159 1.31358e+06 0 -700264 1.51837e+06 0 -716932 1.72962e+06 0 -736256 1.94877e+06 0 -757692 2.17771e+06 0 -779383 2.41865e+06 0 -797353 2.67338e+06 0 -804941 2.94168e+06 0 -793605 3.21923e+06 0 -545495 0 0 -542635 187106 0 -542617 375486 0 -545188 566183 0 -550053 760096 0 -556966 957984 0 -565799 1.16052e+06 0 -576571 1.36839e+06 0 -589412 1.58243e+06 0 -604411 1.80372e+06 0 -621321 2.0337e+06 0 -639087 2.27397e+06 0 -655232 2.52593e+06 0 -665311 2.78973e+06 0 -662970 3.06267e+06 0 -641432 3.33766e+06 0 -437558 0 0 -435291 194425 0 -435401 390114 0 -437689 588165 0 -441928 789560 0 -447935 995165 0 -455619 1.20579e+06 0 -464991 1.42226e+06 0 -476104 1.64553e+06 0 -488876 1.87676e+06 0 -502788 2.11722e+06 0 -516440 2.36805e+06 0 -527074 2.62957e+06 0 -530357 2.90019e+06 0 -520929 3.17501e+06 0 -494137 3.44506e+06 0 -328839 0 0 -327165 201461 0 -327359 404207 0 -329272 609403 0 -332739 818120 0 -337626 1.03133e+06 0 -343870 1.24997e+06 0 -351470 1.47499e+06 0 -360409 1.70744e+06 0 -370485 1.94843e+06 0 -381024 2.19902e+06 0 -390514 2.45968e+06 0 -396305 2.72956e+06 0 -394683 3.00534e+06 0 -381675 3.28029e+06 0 -354611 3.54433e+06 0 -219543 0 0 -218451 208200 0 -218667 417731 0 -220089 629843 0 -222606 845699 0 -226133 1.06638e+06 0 -230627 1.29293e+06 0 -236077 1.52642e+06 0 -242427 1.76794e+06 0 -249431 2.01855e+06 0 -256422 2.27896e+06 0 -262061 2.54893e+06 0 -264202 2.82636e+06 0 -260137 3.10634e+06 0 -247390 3.38059e+06 0 -224827 3.63831e+06 0 -109866 0 0 -109336 214621 0 -109492 430648 0 -110283 649424 0 -111653 872214 0 -113557 1.1002e+06 0 -115974 1.33454e+06 0 -118894 1.57639e+06 0 -122262 1.8269e+06 0 -125893 2.08702e+06 0 -129332 2.35711e+06 0 -131731 2.63617e+06 0 -131830 2.92088e+06 0 -128191 3.20475e+06 0 -119723 3.47813e+06 0 -106222 3.72955e+06 0 0 0 0 0 220700 0 0 442910 0 0 668081 0 0 897578 0 0 1.13269e+06 0 0 1.37467e+06 0 0 1.62476e+06 0 0 1.88418e+06 0 0 2.15381e+06 0 0 2.43368e+06 0 0 2.72205e+06 0 0 3.01432e+06 0 0 3.30238e+06 0 0 3.57509e+06 0 0 3.82022e+06 0 </DataArray> 
</PointData> 
<Points> 
<DataArray type="Float32" NumberOfComponents="3"> 
0 0.0556667 0 0.00452 0.0561222 0 0.00904 0.0565778 0 0.01356 0.0570333 0 0.01808 0.0574889 0 0.0226 0.0579444 0 0.02712 0.0584 0 0.03164 0.0588556 0 0.03616 0.0593111 0 0.04068 0.0597667 0 0.0452 0.0602222 0 0.04972 0.0606778 0 0.05424 0.0611333 0 0.05876 0.0615889 0 0.06328 0.0620444 0 0.0678 0.0625 0 0 0.0594222 0 0.00472089 0.0598474 0 0.00944178 0.0602726 0 0.0141627 0.0606978 0 0.0188836 0.061123 0 0.0236044 0.0615481 0 0.0283253 0.0619733 0 0.0330462 0.0623985 0 0.0377671 0.0628237 0 0.042488 0.0632489 0 0.0472089 0.0636741 0 0.0519298 0.0640993 0 0.0566507 0.0645244 0 0.0613716 0.0649496 0 0.0660924 0.0653748 0 0.0708133 0.0658 0 0 0.0631778 0 0.00492178 0.0635726 0 0.00984356 0.0639674 0 0.0147653 0.0643622 0 0.0196871 0.064757 0 0.0246089 0.0651519 0 0.0295307 0.0655467 0 0.0344524 0.0659415 0 0.0393742 0.0663363 0 0.044296 0.0667311 0 0.0492178 0.0671259 0 0.0541396 0.0675207 0 0.0590613 0.0679156 0 0.0639831 0.0683104 0 0.0689049 0.0687052 0 0.0738267 0.0691 0 0 0.0669333 0 0.00512267 0.0672978 0 0.0102453 0.0676622 0 0.015368 0.0680267 0 0.0204907 0.0683911 0 0.0256133 0.0687556 0 0.030736 0.06912 0 0.0358587 0.0694844 0 0.0409813 0.0698489 0 0.046104 0.0702133 0 0.0512267 0.0705778 0 0.0563493 0.0709422 0 0.061472 0.0713067 0 0.0665947 0.0716711 0 0.0717173 0.0720356 0 0.07684 0.0724 0 0 0.0706889 0 0.00532356 0.071023 0 0.0106471 0.071357 0 0.0159707 0.0716911 0 0.0212942 0.0720252 0 0.0266178 0.0723593 0 0.0319413 0.0726933 0 0.0372649 0.0730274 0 0.0425884 0.0733615 0 0.047912 0.0736956 0 0.0532356 0.0740296 0 0.0585591 0.0743637 0 0.0638827 0.0746978 0 0.0692062 0.0750319 0 0.0745298 0.0753659 0 0.0798533 0.0757 0 0 0.0744444 0 0.00552444 0.0747481 0 0.0110489 0.0750519 0 0.0165733 0.0753556 0 0.0220978 0.0756593 0 0.0276222 0.075963 0 0.0331467 0.0762667 0 0.0386711 0.0765704 0 0.0441956 0.0768741 0 0.04972 0.0771778 0 0.0552444 0.0774815 0 0.0607689 0.0777852 0 0.0662933 0.0780889 0 0.0718178 0.0783926 0 0.0773422 0.0786963 0 0.0828667 0.079 0 0 0.0782 0 0.00572533 0.0784733 0 0.0114507 0.0787467 0 0.017176 0.07902 0 0.0229013 0.0792933 0 0.0286267 0.0795667 0 0.034352 0.07984 0 0.0400773 0.0801133 0 0.0458027 0.0803867 0 0.051528 0.08066 0 0.0572533 0.0809333 0 0.0629787 0.0812067 0 0.068704 0.08148 0 0.0744293 0.0817533 0 0.0801547 0.0820267 0 0.08588 0.0823 0 0 0.0819556 0 0.00592622 0.0821985 0 0.0118524 0.0824415 0 0.0177787 0.0826844 0 0.0237049 0.0829274 0 0.0296311 0.0831704 0 0.0355573 0.0834133 0 0.0414836 0.0836563 0 0.0474098 0.0838993 0 0.053336 0.0841422 0 0.0592622 0.0843852 0 0.0651884 0.0846281 0 0.0711147 0.0848711 0 0.0770409 0.0851141 0 0.0829671 0.085357 0 0.0888933 0.0856 0 0 0.0857111 0 0.00612711 0.0859237 0 0.0122542 0.0861363 0 0.0183813 0.0863489 0 0.0245084 0.0865615 0 0.0306356 0.0867741 0 0.0367627 0.0869867 0 0.0428898 0.0871993 0 0.0490169 0.0874119 0 0.055144 0.0876244 0 0.0612711 0.087837 0 0.0673982 0.0880496 0 0.0735253 0.0882622 0 0.0796524 0.0884748 0 0.0857796 0.0886874 0 0.0919067 0.0889 0 0 0.0894667 0 0.006328 0.0896489 0 0.012656 0.0898311 0 0.018984 0.0900133 0 0.025312 0.0901956 0 0.03164 0.0903778 0 0.037968 0.09056 0 0.044296 0.0907422 0 0.050624 0.0909244 0 0.056952 0.0911067 0 0.06328 0.0912889 0 0.069608 0.0914711 0 0.075936 0.0916533 0 0.082264 0.0918356 0 0.088592 0.0920178 0 0.09492 0.0922 0 0 0.0932222 0 0.00652889 0.0933741 0 0.0130578 0.0935259 0 0.0195867 0.0936778 0 0.0261156 0.0938296 0 0.0326444 0.0939815 0 0.0391733 0.0941333 0 0.0457022 0.0942852 0 0.0522311 0.094437 0 0.05876 0.0945889 0 0.0652889 0.0947407 0 0.0718178 0.0948926 0 0.0783467 0.0950444 0 0.0848756 0.0951963 0 0.0914044 0.0953481 0 0.0979333 0.0955 0 0 0.0969778 0 0.00672978 0.0970993 0 0.0134596 0.0972207 0 0.0201893 0.0973422 0 0.0269191 0.0974637 0 0.0336489 0.0975852 0 0.0403787 0.0977067 0 0.0471084 0.0978281 0 0.0538382 0.0979496 0 0.060568 0.0980711 0 0.0672978 0.0981926 0 0.0740276 0.0983141 0 0.0807573 0.0984356 0 0.0874871 0.098557 0 0.0942169 0.0986785 0 0.100947 0.0988 0 0 0.100733 0 0.00693067 0.100824 0 0.0138613 0.100916 0 0.020792 0.101007 0 0.0277227 0.101098 0 0.0346533 0.101189 0 0.041584 0.10128 0 0.0485147 0.101371 0 0.0554453 0.101462 0 0.062376 0.101553 0 0.0693067 0.101644 0 0.0762373 0.101736 0 0.083168 0.101827 0 0.0900987 0.101918 0 0.0970293 0.102009 0 0.10396 0.1021 0 0 0.104489 0 0.00713156 0.10455 0 0.0142631 0.10461 0 0.0213947 0.104671 0 0.0285262 0.104732 0 0.0356578 0.104793 0 0.0427893 0.104853 0 0.0499209 0.104914 0 0.0570524 0.104975 0 0.064184 0.105036 0 0.0713156 0.105096 0 0.0784471 0.105157 0 0.0855787 0.105218 0 0.0927102 0.105279 0 0.0998418 0.105339 0 0.106973 0.1054 0 0 0.108244 0 0.00733244 0.108275 0 0.0146649 0.108305 0 0.0219973 0.108336 0 0.0293298 0.108366 0 0.0366622 0.108396 0 0.0439947 0.108427 0 0.0513271 0.108457 0 0.0586596 0.108487 0 0.065992 0.108518 0 0.0733244 0.108548 0 0.0806569 0.108579 0 0.0879893 0.108609 0 0.0953218 0.108639 0 0.102654 0.10867 0 0.109987 0.1087 0 0 0.112 0 0.00753333 0.112 0 0.0150667 0.112 0 0.0226 0.112 0 0.0301333 0.112 0 0.0376667 0.112 0 0.0452 0.112 0 0.0527333 0.112 0 0.0602667 0.112 0 0.0678 0.112 0 0.0753333 0.112 0 0.0828667 0.112 0 0.0904 0.112 0 0.0979333 0.112 0 0.105467 0.112 0 0.113 0.112 0 
</DataArray>
</Points> 
</Piece> 
</StructuredGrid> 
</VTKFile> 
