<?xml version="1.0"?> 
<VTKFile type="StructuredGrid" version="0.1"> 
<StructuredGrid WholeExtent="0 15 0 15 0 0"> 
<Piece Extent="0 15 0 15 0 0"> 
<PointData>
<DataArray type="Float32" Name="|E|" format="ascii" NumberOfComponents="3"> 
-353152 0 0 -353836 -0.159843 0 -355892 -0.319257 0 -359327 -0.47778 0 -364152 -0.634884 0 -370381 -0.78994 0 -378037 -0.942181 0 -387143 -1.09066 0 -397728 -1.23422 0 -409824 -1.37144 0 -423470 -1.50057 0 -438705 -1.61954 0 -455574 -1.72583 0 -474125 -1.81651 0 -494407 -1.88811 0 -516473 -1.93672 0 -351252 0 0 -351933 2279.51 0 -353980 4566.58 0 -357399 6868.72 0 -362202 9193.45 0 -368403 11548.2 0 -376025 13940.3 0 -385091 16376.9 0 -395629 18865.1 0 -407675 21411.8 0 -421264 24023.5 0 -436437 26706.3 0 -453240 29465.9 0 -471721 32307.5 0 -491929 35235.5 0 -513920 38253.5 0 -345569 0 0 -346241 4537.96 0 -348260 9091.08 0 -351632 13674.5 0 -356368 18303.2 0 -362486 22992.2 0 -370005 27756.2 0 -378950 32609.8 0 -389350 37567.2 0 -401241 42642.3 0 -414659 47848.3 0 -429646 53197.8 0 -446249 58702.7 0 -464517 64373.5 0 -484504 70219.5 0 -506263 76248.4 0 -336157 0 0 -336813 6754.29 0 -338785 13531.4 0 -342077 20354.2 0 -346704 27245.4 0 -352680 34227.5 0 -360026 41323 0 -368769 48553.9 0 -378938 55941.9 0 -390567 63508.3 0 -403697 71273.5 0 -418371 79257 0 -434636 87477.3 0 -452544 95951.2 0 -472152 104694 0 -493519 113718 0 -323103 0 0 -323737 8907.09 0 -325642 17844.8 0 -328823 26843.8 0 -333294 35934.6 0 -339070 45147.6 0 -346174 54513 0 -354630 64060.8 0 -364471 73820.5 0 -375731 83821.1 0 -388451 94090.9 0 -402678 104657 0 -418460 115545 0 -435853 126780 0 -454917 138384 0 -475716 150375 0 -306532 0 0 -307137 10974.7 0 -308955 21988 0 -311992 33078.3 0 -316261 44284.1 0 -321779 55644 0 -328567 67196.1 0 -336652 78978.6 0 -346064 91029.2 0 -356842 103385 0 -369027 116084 0 -382667 129160 0 -397813 142649 0 -414525 156583 0 -432866 170993 0 -452905 185907 0 -286602 0 0 -287172 12935.3 0 -288883 25917 0 -291744 38991.7 0 -295765 52205.8 0 -300964 65606 0 -307363 79238.9 0 -314988 93150.9 0 -323871 107389 0 -334050 121998 0 -345568 137025 0 -358474 152516 0 -372822 168513 0 -388675 185061 0 -406099 202200 0 -425170 219968 0 -263512 0 0 -264040 14766.7 0 -265625 29587.8 0 -268275 44517.6 0 -272002 59610.7 0 -276822 74921.9 0 -282757 90506.1 0 -289833 106418 0 -298083 122714 0 -307544 139450 0 -318259 156680 0 -330279 174461 0 -343660 192847 0 -358464 211894 0 -374764 231654 0 -392638 252179 0 -237494 0 0 -237973 16447.3 0 -239413 32956.6 0 -241820 49590.1 0 -245207 66410.1 0 -249588 83479.6 0 -254985 100862 0 -261424 118620 0 -268936 136820 0 -277558 155527 0 -287333 174805 0 -298311 194723 0 -310548 215346 0 -324108 236743 0 -339063 258981 0 -355496 282125 0 -208818 0 0 -209242 17955.7 0 -210518 35980.8 0 -212651 54144.6 0 -215652 72517.3 0 -219536 91169.2 0 -224323 110172 0 -230038 129598 0 -236710 149520 0 -244375 170014 0 -253073 191156 0 -262852 213024 0 -273767 235697 0 -285882 259257 0 -299266 283786 0 -314002 309367 0 -177787 0 0 -178151 19271.8 0 -179244 38619.7 0 -181073 58119.8 0 -183648 77849.2 0 -186981 97885.6 0 -191090 118308 0 -195999 139197 0 -201733 160634 0 -208326 182703 0 -215815 205492 0 -224244 229090 0 -233664 253587 0 -244135 279080 0 -255723 305667 0 -268506 333449 0 -144737 0 0 -145035 20377 0 -145931 40836 0 -147430 61459.1 0 -149539 82329.5 0 -152272 103531 0 -155642 125150 0 -159669 147274 0 -164377 169992 0 -169794 193397 0 -175952 217586 0 -182889 242658 0 -190652 268716 0 -199291 295869 0 -208868 324231 0 -219451 353921 0 -110035 0 0 -110262 21255 0 -110947 42596.8 0 -112092 64112.6 0 -113705 85890.6 0 -115794 108020 0 -118372 130593 0 -121453 153702 0 -125058 177444 0 -129207 201919 0 -133927 227231 0 -139250 253489 0 -145211 280807 0 -151853 309305 0 -159225 339110 0 -167384 370359 0 -74068.9 0 0 -74222.8 21892.3 0 -74685.4 43875.1 0 -75459.4 66039.2 0 -76549.3 88476.6 0 -77961.5 111281 0 -79704.6 134547 0 -81789.1 158374 0 -84227.9 182864 0 -87036.8 208120 0 -90234.2 234255 0 -93841.7 261383 0 -97885.1 289626 0 -102394 319116 0 -107404 349989 0 -112954 382394 0 -37249.6 0 0 -37327.1 22278.9 0 -37560.3 44650.4 0 -37950.5 67207.9 0 -38500 90045.6 0 -39212.1 113259 0 -40091.2 136948 0 -41142.6 161211 0 -42373.1 186155 0 -43790.7 211888 0 -45404.9 238524 0 -47226.9 266184 0 -49269.8 294994 0 -51549.3 325091 0 -54083.5 356620 0 -56893.3 389738 0 0 0 0 0 22408.4 0 0 44910.3 0 0 67599.7 0 0 90571.6 0 0 113923 0 0 137753 0 0 162163 0 0 187259 0 0 213152 0 0 239957 0 0 267795 0 0 296797 0 0 327098 0 0 358849 0 0 392208 0 </DataArray> 
</PointData> 
<Points> 
<DataArray type="Float32" NumberOfComponents="3"> 
0 0 0 0.0004 0 0 0.0008 0 0 0.0012 0 0 0.0016 0 0 0.002 0 0 0.0024 0 0 0.0028 0 0 0.0032 0 0 0.0036 0 0 0.004 0 0 0.0044 0 0 0.0048 0 0 0.0052 0 0 0.0056 0 0 0.006 0 0 0 0.000666667 0 0.0004 0.000666667 0 0.0008 0.000666667 0 0.0012 0.000666667 0 0.0016 0.000666667 0 0.002 0.000666667 0 0.0024 0.000666667 0 0.0028 0.000666667 0 0.0032 0.000666667 0 0.0036 0.000666667 0 0.004 0.000666667 0 0.0044 0.000666667 0 0.0048 0.000666667 0 0.0052 0.000666667 0 0.0056 0.000666667 0 0.006 0.000666667 0 0 0.00133333 0 0.0004 0.00133333 0 0.0008 0.00133333 0 0.0012 0.00133333 0 0.0016 0.00133333 0 0.002 0.00133333 0 0.0024 0.00133333 0 0.0028 0.00133333 0 0.0032 0.00133333 0 0.0036 0.00133333 0 0.004 0.00133333 0 0.0044 0.00133333 0 0.0048 0.00133333 0 0.0052 0.00133333 0 0.0056 0.00133333 0 0.006 0.00133333 0 0 0.002 0 0.0004 0.002 0 0.0008 0.002 0 0.0012 0.002 0 0.0016 0.002 0 0.002 0.002 0 0.0024 0.002 0 0.0028 0.002 0 0.0032 0.002 0 0.0036 0.002 0 0.004 0.002 0 0.0044 0.002 0 0.0048 0.002 0 0.0052 0.002 0 0.0056 0.002 0 0.006 0.002 0 0 0.00266667 0 0.0004 0.00266667 0 0.0008 0.00266667 0 0.0012 0.00266667 0 0.0016 0.00266667 0 0.002 0.00266667 0 0.0024 0.00266667 0 0.0028 0.00266667 0 0.0032 0.00266667 0 0.0036 0.00266667 0 0.004 0.00266667 0 0.0044 0.00266667 0 0.0048 0.00266667 0 0.0052 0.00266667 0 0.0056 0.00266667 0 0.006 0.00266667 0 0 0.00333333 0 0.0004 0.00333333 0 0.0008 0.00333333 0 0.0012 0.00333333 0 0.0016 0.00333333 0 0.002 0.00333333 0 0.0024 0.00333333 0 0.0028 0.00333333 0 0.0032 0.00333333 0 0.0036 0.00333333 0 0.004 0.00333333 0 0.0044 0.00333333 0 0.0048 0.00333333 0 0.0052 0.00333333 0 0.0056 0.00333333 0 0.006 0.00333333 0 0 0.004 0 0.0004 0.004 0 0.0008 0.004 0 0.0012 0.004 0 0.0016 0.004 0 0.002 0.004 0 0.0024 0.004 0 0.0028 0.004 0 0.0032 0.004 0 0.0036 0.004 0 0.004 0.004 0 0.0044 0.004 0 0.0048 0.004 0 0.0052 0.004 0 0.0056 0.004 0 0.006 0.004 0 0 0.00466667 0 0.0004 0.00466667 0 0.0008 0.00466667 0 0.0012 0.00466667 0 0.0016 0.00466667 0 0.002 0.00466667 0 0.0024 0.00466667 0 0.0028 0.00466667 0 0.0032 0.00466667 0 0.0036 0.00466667 0 0.004 0.00466667 0 0.0044 0.00466667 0 0.0048 0.00466667 0 0.0052 0.00466667 0 0.0056 0.00466667 0 0.006 0.00466667 0 0 0.00533333 0 0.0004 0.00533333 0 0.0008 0.00533333 0 0.0012 0.00533333 0 0.0016 0.00533333 0 0.002 0.00533333 0 0.0024 0.00533333 0 0.0028 0.00533333 0 0.0032 0.00533333 0 0.0036 0.00533333 0 0.004 0.00533333 0 0.0044 0.00533333 0 0.0048 0.00533333 0 0.0052 0.00533333 0 0.0056 0.00533333 0 0.006 0.00533333 0 0 0.006 0 0.0004 0.006 0 0.0008 0.006 0 0.0012 0.006 0 0.0016 0.006 0 0.002 0.006 0 0.0024 0.006 0 0.0028 0.006 0 0.0032 0.006 0 0.0036 0.006 0 0.004 0.006 0 0.0044 0.006 0 0.0048 0.006 0 0.0052 0.006 0 0.0056 0.006 0 0.006 0.006 0 0 0.00666667 0 0.0004 0.00666667 0 0.0008 0.00666667 0 0.0012 0.00666667 0 0.0016 0.00666667 0 0.002 0.00666667 0 0.0024 0.00666667 0 0.0028 0.00666667 0 0.0032 0.00666667 0 0.0036 0.00666667 0 0.004 0.00666667 0 0.0044 0.00666667 0 0.0048 0.00666667 0 0.0052 0.00666667 0 0.0056 0.00666667 0 0.006 0.00666667 0 0 0.00733333 0 0.0004 0.00733333 0 0.0008 0.00733333 0 0.0012 0.00733333 0 0.0016 0.00733333 0 0.002 0.00733333 0 0.0024 0.00733333 0 0.0028 0.00733333 0 0.0032 0.00733333 0 0.0036 0.00733333 0 0.004 0.00733333 0 0.0044 0.00733333 0 0.0048 0.00733333 0 0.0052 0.00733333 0 0.0056 0.00733333 0 0.006 0.00733333 0 0 0.008 0 0.0004 0.008 0 0.0008 0.008 0 0.0012 0.008 0 0.0016 0.008 0 0.002 0.008 0 0.0024 0.008 0 0.0028 0.008 0 0.0032 0.008 0 0.0036 0.008 0 0.004 0.008 0 0.0044 0.008 0 0.0048 0.008 0 0.0052 0.008 0 0.0056 0.008 0 0.006 0.008 0 0 0.00866667 0 0.0004 0.00866667 0 0.0008 0.00866667 0 0.0012 0.00866667 0 0.0016 0.00866667 0 0.002 0.00866667 0 0.0024 0.00866667 0 0.0028 0.00866667 0 0.0032 0.00866667 0 0.0036 0.00866667 0 0.004 0.00866667 0 0.0044 0.00866667 0 0.0048 0.00866667 0 0.0052 0.00866667 0 0.0056 0.00866667 0 0.006 0.00866667 0 0 0.00933333 0 0.0004 0.00933333 0 0.0008 0.00933333 0 0.0012 0.00933333 0 0.0016 0.00933333 0 0.002 0.00933333 0 0.0024 0.00933333 0 0.0028 0.00933333 0 0.0032 0.00933333 0 0.0036 0.00933333 0 0.004 0.00933333 0 0.0044 0.00933333 0 0.0048 0.00933333 0 0.0052 0.00933333 0 0.0056 0.00933333 0 0.006 0.00933333 0 0 0.01 0 0.0004 0.01 0 0.0008 0.01 0 0.0012 0.01 0 0.0016 0.01 0 0.002 0.01 0 0.0024 0.01 0 0.0028 0.01 0 0.0032 0.01 0 0.0036 0.01 0 0.004 0.01 0 0.0044 0.01 0 0.0048 0.01 0 0.0052 0.01 0 0.0056 0.01 0 0.006 0.01 0 
</DataArray>
</Points> 
</Piece> 
</StructuredGrid> 
</VTKFile> 
