<?xml version="1.0"?> 
<VTKFile type="StructuredGrid" version="0.1"> 
<StructuredGrid WholeExtent="0 15 0 15 0 0"> 
<Piece Extent="0 15 0 15 0 0"> 
<PointData>
<DataArray type="Float32" Name="|E|" format="ascii" NumberOfComponents="3"> 
0 0 0 0 -26773.8 0 0 -53406.6 0 0 -79751.4 0 0 -105649 0 0 -130921 0 0 -155356 0 0 -178702 0 0 -200635 0 0 -220741 0 0 -238399 0 0 -252236 0 0 -260862 0 0 -267971 0 0 -268508 0 0 0 0 -22344.2 0 0 -22272.4 -29796.3 0 -22053.5 -59401.2 0 -21676.1 -88614.1 0 -21120 -117214 0 -20352.2 -144946 0 -19323.5 -171502 0 -17954 -196495 0 -16118.8 -219415 0 -13594.4 -239541 0 -9985.07 -255819 0 -4418.32 -266176 0 6311.67 -266983 0 33186.7 -258605 0 90928.8 -262386 0 143027 -286053 0 -44768.6 0 0 -44597.2 -32946.1 0 -44072.6 -65647.6 0 -43162.8 -97846.2 0 -41808.5 -129254 0 -39913.6 -159534 0 -37323.7 -188272 0 -33789.2 -214938 0 -28882 -238817 0 -21805.6 -258932 0 -10869.4 -273850 0 7880.56 -282622 0 41239.9 -289020 0 91032 -306163 0 139641 -335604 0 187334 -374669 0 -67351.3 0 0 -67052.1 -36250.2 0 -66133.5 -72204.2 0 -64530.6 -107549 0 -62122.4 -141933 0 -58707.9 -174944 0 -53959.9 -206083 0 -47331.3 -234723 0 -37860.6 -260109 0 -23762.9 -281451 0 -1797.93 -298895 0 32024.4 -315883 0 77389.7 -340260 0 125326 -373981 0 173925 -410922 0 224181 -448362 0 -90166.2 0 0 -89712.4 -39730.9 0 -88314.9 -79121.7 0 -85863.3 -117813 0 -82149.1 -155406 0 -76824.2 -191443 0 -69316.9 -225396 0 -58675.5 -256698 0 -43303.9 -284900 0 -20684.5 -310381 0 11931.1 -335683 0 54597.3 -365884 0 102579 -403392 0 153634 -444603 0 208513 -489641 0 267904 -535809 0 -113281 0 0 -112649 -43405 0 -110696 -86439 0 -107256 -128714 0 -102008 -169811 0 -94421.9 -209277 0 -83638.5 -246662 0 -68298.5 -281664 0 -46396.1 -314592 0 -15717 -347195 0 24475.1 -382997 0 71816.3 -424746 0 124143 -471172 0 181450 -522102 0 244424 -574950 0 315160 -630321 0 -136756 0 0 -135925 -47282.9 0 -133356 -94182.9 0 -128810 -140308 0 -121844 -185255 0 -111726 -228646 0 -97321.5 -270228 0 -76989.9 -310176 0 -48809.8 -349643 0 -11541.3 -391141 0 34004.1 -437463 0 86136.3 -489054 0 144420 -545835 0 209637 -606172 0 283810 -670236 0 368432 -736864 0 -160644 0 0 -159600 -51369.1 0 -156366 -102367 0 -150632 -152626 0 -141819 -201807 0 -129007 -249676 0 -110845 -296289 0 -85643 -342370 0 -51897 -389685 0 -9349.12 -440775 0 41021.8 -497215 0 98603.5 -559567 0 164081 -627180 0 239493 -699988 0 327027 -777028 0 428716 -857432 0 -184986 0 0 -183720 -55662.3 0 -179796 -110991 0 -172826 -165678 0 -162106 -219494 0 -146551 -272416 0 -124702 -324871 0 -94990.8 -378062 0 -56467.2 -434073 0 -9341.46 -495011 0 45821.7 -562289 0 109456 -636338 0 183645 -717439 0 271361 -804891 0 375378 -897144 0 496183 -992366 0 -209817 0 0 -208327 -60155.9 0 -203704 -120045 0 -195489 -179452 0 -182864 -238304 0 -164632 -296840 0 -139307 -355861 0 -105560 -416940 0 -62889.9 -482171 0 -11630.4 -553570 0 48273.5 -632687 0 118650 -720798 0 203285 -818081 0 306486 -922701 0 430000 -1.03072e+06 0 569425 -1.13885e+06 0 -235161 0 0 -233450 -64839.2 0 -228140 -129507 0 -218708 -193917 0 -204247 -258191 0 -183489 -322863 0 -154991 -389089 0 -117674 -458639 0 -71400.1 -533607 0 -16530.4 -616244 0 47917.2 -709160 0 125908 -814411 0 223927 -931189 0 346929 -1.05397e+06 0 492111 -1.17407e+06 0 643285 -1.28657e+06 0 -261034 0 0 -259111 -69697.5 0 -253144 -139349 0 -242558 -209026 0 -226384 -279081 0 -203327 -350369 0 -171992 -424351 0 -131534 -502854 0 -82274.2 -588018 0 -24659.2 -683137 0 43929.1 -792769 0 131372 -919457 0 247815 -1.05849e+06 0 396338 -1.19639e+06 0 562214 -1.31694e+06 0 707263 -1.41453e+06 0 -287444 0 0 -285323 -74713.7 0 -278747 -149534 0 -267100 -224721 0 -249387 -300882 0 -224313 -379227 0 -190472 -461465 0 -147268 -549258 0 -95939.7 -645042 0 -37110.9 -754523 0 35343.1 -885449 0 136307 -1.0389e+06 0 279684 -1.20039e+06 0 460121 -1.3423e+06 0 638866 -1.4392e+06 0 744402 -1.4888e+06 0 -314391 0 0 -312091 -79868.2 0 -304970 -160021 0 -292382 -240932 0 -273348 -323488 0 -246594 -409309 0 -210511 -500270 0 -164944 -597454 0 -113151 -704178 0 -55609.2 -831171 0 21476.1 -990422 0 144435 -1.17616e+06 0 327815 -1.35402e+06 0 544841 -1.47559e+06 0 716792 -1.50939e+06 0 732532 -1.46506e+06 0 -341868 0 0 -339413 -85140.6 0 -331824 -170766 0 -318435 -257588 0 -298346 -346778 0 -270309 -440511 0 -232080 -540642 0 -184580 -646811 0 -135268 -764757 0 -82654 -914878 0 2879.29 -1.11279e+06 0 163623 -1.33412e+06 0 404535 -1.51023e+06 0 656197 -1.5693e+06 0 784807 -1.48674e+06 0 648966 -1.29793e+06 0 -369859 0 0 -367281 -90510.5 0 -359315 -181722 0 -345272 -274613 0 -324454 -370614 0 -295620 -472781 0 -254943 -582488 0 -206184 -696262 0 -164771 -825999 0 -121441 -1.00928e+06 0 -16920.8 -1.25985e+06 0 207732 -1.51339e+06 0 525235 -1.65099e+06 0 795117 -1.5859e+06 0 824405 -1.32879e+06 0 478967 -957934 0 </DataArray> 
</PointData> 
<Points> 
<DataArray type="Float32" NumberOfComponents="3"> 
0 0.016 0 0.0004 0.016 0 0.0008 0.016 0 0.0012 0.016 0 0.0016 0.016 0 0.002 0.016 0 0.0024 0.016 0 0.0028 0.016 0 0.0032 0.016 0 0.0036 0.016 0 0.004 0.016 0 0.0044 0.016 0 0.0048 0.016 0 0.0052 0.016 0 0.0056 0.016 0 0.006 0.016 0 0 0.0163333 0 0.000444444 0.0163333 0 0.000888889 0.0163333 0 0.00133333 0.0163333 0 0.00177778 0.0163333 0 0.00222222 0.0163333 0 0.00266667 0.0163333 0 0.00311111 0.0163333 0 0.00355556 0.0163333 0 0.004 0.0163333 0 0.00444444 0.0163333 0 0.00488889 0.0163333 0 0.00533333 0.0163333 0 0.00577778 0.0163333 0 0.00622222 0.0163333 0 0.00666667 0.0163333 0 0 0.0166667 0 0.000488889 0.0166667 0 0.000977778 0.0166667 0 0.00146667 0.0166667 0 0.00195556 0.0166667 0 0.00244444 0.0166667 0 0.00293333 0.0166667 0 0.00342222 0.0166667 0 0.00391111 0.0166667 0 0.0044 0.0166667 0 0.00488889 0.0166667 0 0.00537778 0.0166667 0 0.00586667 0.0166667 0 0.00635556 0.0166667 0 0.00684444 0.0166667 0 0.00733333 0.0166667 0 0 0.017 0 0.000533333 0.017 0 0.00106667 0.017 0 0.0016 0.017 0 0.00213333 0.017 0 0.00266667 0.017 0 0.0032 0.017 0 0.00373333 0.017 0 0.00426667 0.017 0 0.0048 0.017 0 0.00533333 0.017 0 0.00586667 0.017 0 0.0064 0.017 0 0.00693333 0.017 0 0.00746667 0.017 0 0.008 0.017 0 0 0.0173333 0 0.000577778 0.0173333 0 0.00115556 0.0173333 0 0.00173333 0.0173333 0 0.00231111 0.0173333 0 0.00288889 0.0173333 0 0.00346667 0.0173333 0 0.00404444 0.0173333 0 0.00462222 0.0173333 0 0.0052 0.0173333 0 0.00577778 0.0173333 0 0.00635556 0.0173333 0 0.00693333 0.0173333 0 0.00751111 0.0173333 0 0.00808889 0.0173333 0 0.00866667 0.0173333 0 0 0.0176667 0 0.000622222 0.0176667 0 0.00124444 0.0176667 0 0.00186667 0.0176667 0 0.00248889 0.0176667 0 0.00311111 0.0176667 0 0.00373333 0.0176667 0 0.00435556 0.0176667 0 0.00497778 0.0176667 0 0.0056 0.0176667 0 0.00622222 0.0176667 0 0.00684444 0.0176667 0 0.00746667 0.0176667 0 0.00808889 0.0176667 0 0.00871111 0.0176667 0 0.00933333 0.0176667 0 0 0.018 0 0.000666667 0.018 0 0.00133333 0.018 0 0.002 0.018 0 0.00266667 0.018 0 0.00333333 0.018 0 0.004 0.018 0 0.00466667 0.018 0 0.00533333 0.018 0 0.006 0.018 0 0.00666667 0.018 0 0.00733333 0.018 0 0.008 0.018 0 0.00866667 0.018 0 0.00933333 0.018 0 0.01 0.018 0 0 0.0183333 0 0.000711111 0.0183333 0 0.00142222 0.0183333 0 0.00213333 0.0183333 0 0.00284444 0.0183333 0 0.00355556 0.0183333 0 0.00426667 0.0183333 0 0.00497778 0.0183333 0 0.00568889 0.0183333 0 0.0064 0.0183333 0 0.00711111 0.0183333 0 0.00782222 0.0183333 0 0.00853333 0.0183333 0 0.00924444 0.0183333 0 0.00995556 0.0183333 0 0.0106667 0.0183333 0 0 0.0186667 0 0.000755556 0.0186667 0 0.00151111 0.0186667 0 0.00226667 0.0186667 0 0.00302222 0.0186667 0 0.00377778 0.0186667 0 0.00453333 0.0186667 0 0.00528889 0.0186667 0 0.00604444 0.0186667 0 0.0068 0.0186667 0 0.00755556 0.0186667 0 0.00831111 0.0186667 0 0.00906667 0.0186667 0 0.00982222 0.0186667 0 0.0105778 0.0186667 0 0.0113333 0.0186667 0 0 0.019 0 0.0008 0.019 0 0.0016 0.019 0 0.0024 0.019 0 0.0032 0.019 0 0.004 0.019 0 0.0048 0.019 0 0.0056 0.019 0 0.0064 0.019 0 0.0072 0.019 0 0.008 0.019 0 0.0088 0.019 0 0.0096 0.019 0 0.0104 0.019 0 0.0112 0.019 0 0.012 0.019 0 0 0.0193333 0 0.000844444 0.0193333 0 0.00168889 0.0193333 0 0.00253333 0.0193333 0 0.00337778 0.0193333 0 0.00422222 0.0193333 0 0.00506667 0.0193333 0 0.00591111 0.0193333 0 0.00675556 0.0193333 0 0.0076 0.0193333 0 0.00844444 0.0193333 0 0.00928889 0.0193333 0 0.0101333 0.0193333 0 0.0109778 0.0193333 0 0.0118222 0.0193333 0 0.0126667 0.0193333 0 0 0.0196667 0 0.000888889 0.0196667 0 0.00177778 0.0196667 0 0.00266667 0.0196667 0 0.00355556 0.0196667 0 0.00444444 0.0196667 0 0.00533333 0.0196667 0 0.00622222 0.0196667 0 0.00711111 0.0196667 0 0.008 0.0196667 0 0.00888889 0.0196667 0 0.00977778 0.0196667 0 0.0106667 0.0196667 0 0.0115556 0.0196667 0 0.0124444 0.0196667 0 0.0133333 0.0196667 0 0 0.02 0 0.000933333 0.02 0 0.00186667 0.02 0 0.0028 0.02 0 0.00373333 0.02 0 0.00466667 0.02 0 0.0056 0.02 0 0.00653333 0.02 0 0.00746667 0.02 0 0.0084 0.02 0 0.00933333 0.02 0 0.0102667 0.02 0 0.0112 0.02 0 0.0121333 0.02 0 0.0130667 0.02 0 0.014 0.02 0 0 0.0203333 0 0.000977778 0.0203333 0 0.00195556 0.0203333 0 0.00293333 0.0203333 0 0.00391111 0.0203333 0 0.00488889 0.0203333 0 0.00586667 0.0203333 0 0.00684444 0.0203333 0 0.00782222 0.0203333 0 0.0088 0.0203333 0 0.00977778 0.0203333 0 0.0107556 0.0203333 0 0.0117333 0.0203333 0 0.0127111 0.0203333 0 0.0136889 0.0203333 0 0.0146667 0.0203333 0 0 0.0206667 0 0.00102222 0.0206667 0 0.00204444 0.0206667 0 0.00306667 0.0206667 0 0.00408889 0.0206667 0 0.00511111 0.0206667 0 0.00613333 0.0206667 0 0.00715556 0.0206667 0 0.00817778 0.0206667 0 0.0092 0.0206667 0 0.0102222 0.0206667 0 0.0112444 0.0206667 0 0.0122667 0.0206667 0 0.0132889 0.0206667 0 0.0143111 0.0206667 0 0.0153333 0.0206667 0 0 0.021 0 0.00106667 0.021 0 0.00213333 0.021 0 0.0032 0.021 0 0.00426667 0.021 0 0.00533333 0.021 0 0.0064 0.021 0 0.00746667 0.021 0 0.00853333 0.021 0 0.0096 0.021 0 0.0106667 0.021 0 0.0117333 0.021 0 0.0128 0.021 0 0.0138667 0.021 0 0.0149333 0.021 0 0.016 0.021 0 
</DataArray>
</Points> 
</Piece> 
</StructuredGrid> 
</VTKFile> 
