<?xml version="1.0"?> 
<VTKFile type="StructuredGrid" version="0.1"> 
<StructuredGrid WholeExtent="0 15 0 15 0 0"> 
<Piece Extent="0 15 0 15 0 0"> 
<PointData>
<DataArray type="Float32" Name="|E|" format="ascii" NumberOfComponents="3"> 
-1.24851e+06 5.10497e+06 0 -1.03228e+06 5.08169e+06 0 -833860 5.10151e+06 0 -643668 5.14007e+06 0 -456220 5.18181e+06 0 -268019 5.21627e+06 0 -76591.4 5.24008e+06 0 120605 5.25013e+06 0 326198 5.24465e+06 0 542888 5.22161e+06 0 773339 5.17917e+06 0 1.01997e+06 5.11497e+06 0 1.28511e+06 5.02791e+06 0 1.57094e+06 4.9172e+06 0 1.88337e+06 4.79226e+06 0 2.25563e+06 4.71314e+06 0 -1.27916e+06 4.96134e+06 0 -1.01364e+06 4.95181e+06 0 -803535 4.98522e+06 0 -614135 5.02955e+06 0 -432996 5.07162e+06 0 -254225 5.10532e+06 0 -74126.7 5.1267e+06 0 110110 5.1334e+06 0 301010 5.12344e+06 0 500896 5.09511e+06 0 711964 5.04664e+06 0 936224 4.97637e+06 0 1.17576e+06 4.88277e+06 0 1.43357e+06 4.76547e+06 0 1.71638e+06 4.6251e+06 0 2.04759e+06 4.45908e+06 0 -1.2467e+06 4.76007e+06 0 -978279 4.81473e+06 0 -768088 4.86934e+06 0 -583349 4.92169e+06 0 -410087 4.96686e+06 0 -241279 5.0009e+06 0 -72723.1 5.02112e+06 0 98563.7 5.02546e+06 0 274973 5.01223e+06 0 458563 4.97987e+06 0 651143 4.92691e+06 0 854362 4.85192e+06 0 1.06993e+06 4.75358e+06 0 1.30022e+06 4.63072e+06 0 1.54986e+06 4.48144e+06 0 1.82849e+06 4.29904e+06 0 -1.17086e+06 4.58533e+06 0 -925963 4.68215e+06 0 -726043 4.75675e+06 0 -550170 4.81852e+06 0 -386553 4.86786e+06 0 -228485 4.90333e+06 0 -71764.5 4.92327e+06 0 86540.3 4.92616e+06 0 248670 4.91062e+06 0 416435 4.87534e+06 0 591345 4.81909e+06 0 774694 4.74069e+06 0 967737 4.639e+06 0 1.17201e+06 4.51275e+06 0 1.3899e+06 4.35972e+06 0 1.62437e+06 4.17454e+06 0 -1.0749e+06 4.43933e+06 0 -861241 4.56044e+06 0 -677801 4.65079e+06 0 -514128 4.72139e+06 0 -361825 4.77533e+06 0 -215299 4.81283e+06 0 -70756.1 4.83317e+06 0 74516.6 4.83535e+06 0 222553 4.8183e+06 0 374937 4.78098e+06 0 532912 4.72241e+06 0 697463 4.64167e+06 0 869418 4.53789e+06 0 1.04958e+06 4.41003e+06 0 1.23881e+06 4.25641e+06 0 1.43761e+06 4.07377e+06 0 -972373 4.31767e+06 0 -788769 4.45191e+06 0 -624587 4.55344e+06 0 -475287 4.63147e+06 0 -335619 4.68983e+06 0 -201352 4.72966e+06 0 -69313.4 4.75087e+06 0 62866.3 4.75289e+06 0 196978 4.73497e+06 0 334382 4.69633e+06 0 476090 4.63623e+06 0 622824 4.55402e+06 0 775065 4.44912e+06 0 933082 4.32091e+06 0 1.09687e+06 4.16846e+06 0 1.26575e+06 3.99021e+06 0 -868206 4.21603e+06 0 -712098 4.35669e+06 0 -567754 4.46564e+06 0 -433987 4.54952e+06 0 -307858 4.61184e+06 0 -186412 4.65403e+06 0 -67159.4 4.67639e+06 0 51873.3 4.67867e+06 0 172210 4.66038e+06 0 294992 4.62098e+06 0 421032 4.55997e+06 0 550836 4.47695e+06 0 684630 4.37166e+06 0 822337 4.24391e+06 0 963497 4.0935e+06 0 1.10704e+06 3.92008e+06 0 -765171 4.13066e+06 0 -633428 4.27404e+06 0 -508464 4.38769e+06 0 -390651 4.47597e+06 0 -278589 4.54165e+06 0 -170356 4.58609e+06 0 -64104.8 4.60975e+06 0 41740.8 4.61258e+06 0 148433 4.5943e+06 0 256911 4.55458e+06 0 367809 4.49313e+06 0 481471 4.40979e+06 0 597943 4.30461e+06 0 716949 4.17779e+06 0 837824 4.02973e+06 0 959402 3.86099e+06 0 -664119 4.05894e+06 0 -554073 4.20296e+06 0 -447574 4.31946e+06 0 -345678 4.41098e+06 0 -247914 4.47945e+06 0 -153135 4.52595e+06 0 -60030.2 4.55096e+06 0 32605.9 4.55453e+06 0 125771 4.53655e+06 0 220216 4.49683e+06 0 316429 4.43528e+06 0 414627 4.35197e+06 0 514744 4.2472e+06 0 616409 4.12153e+06 0 718898 3.97582e+06 0 821102 3.81127e+06 0 -565322 3.99881e+06 0 -474707 4.14247e+06 0 -385650 4.26064e+06 0 -299380 4.35454e+06 0 -215948 4.42529e+06 0 -134737 4.47365e+06 0 -54866.9 4.5e+06 0 24553.2 4.50444e+06 0 104292 4.48694e+06 0 184933 4.44746e+06 0 266841 4.38606e+06 0 350144 4.303e+06 0 434716 4.1988e+06 0 520155 4.07432e+06 0 605763 3.93077e+06 0 690555 3.76979e+06 0 -468590 3.94881e+06 0 -395610 4.09169e+06 0 -323017 4.21085e+06 0 -251974 4.30651e+06 0 -182785 4.37916e+06 0 -115173 4.42919e+06 0 -48579.5 4.45685e+06 0 17627.8 4.46222e+06 0 84021.6 4.44534e+06 0 151041 4.40626e+06 0 218953 4.34517e+06 0 287823 4.26249e+06 0 357500 4.15891e+06 0 427600 4.03552e+06 0 497499 3.89381e+06 0 566361 3.73572e+06 0 -373556 3.90781e+06 0 -316800 4.04989e+06 0 -259814 4.16969e+06 0 -203582 4.26674e+06 0 -148487 4.34099e+06 0 -94455.4 4.39254e+06 0 -41153.6 4.42146e+06 0 11846.9 4.4278e+06 0 64955.4 4.41162e+06 0 118491 4.37305e+06 0 172641 4.31237e+06 0 227432 4.23011e+06 0 282716 4.12713e+06 0 338156 4.00465e+06 0 393231 3.86439e+06 0 447260 3.70847e+06 0 -279736 3.87499e+06 0 -238128 4.01647e+06 0 -196045 4.1368e+06 0 -154243 4.23503e+06 0 -113082 4.31071e+06 0 -72590.3 4.36364e+06 0 -32584.6 4.39378e+06 0 7208.52 4.40111e+06 0 47065.8 4.38569e+06 0 87206.7 4.3477e+06 0 127756 4.28748e+06 0 168720 4.20564e+06 0 209972 4.10315e+06 0 251242 3.98136e+06 0 292126 3.84209e+06 0 332107 3.68762e+06 0 -186592 3.84974e+06 0 -159335 3.99096e+06 0 -131610 4.11188e+06 0 -103928 4.21122e+06 0 -76562.9 4.28821e+06 0 -49573.1 4.34246e+06 0 -22871.6 4.37377e+06 0 3700.05 4.3821e+06 0 30310.8 4.36747e+06 0 57097.3 4.3301e+06 0 84135.7 4.27035e+06 0 111424 4.1889e+06 0 138869 4.08676e+06 0 166285 3.96537e+06 0 193392 3.82662e+06 0 219840 3.67288e+06 0 -93547.8 3.8316e+06 0 -80087.5 3.97298e+06 0 -66337.2 4.09468e+06 0 -52554.9 4.19515e+06 0 -38890 4.27341e+06 0 -25386.3 4.32893e+06 0 -12012.1 4.3614e+06 0 1303.48 4.37072e+06 0 14639.9 4.35692e+06 0 28062.8 4.32018e+06 0 41608.2 4.2609e+06 0 55273.4 4.17977e+06 0 69010 4.07782e+06 0 82721.2 3.95652e+06 0 96263.8 3.8178e+06 0 109458 3.66405e+06 0 0 3.82022e+06 0 0 3.96229e+06 0 0 4.08502e+06 0 0 4.18671e+06 0 0 4.26626e+06 0 0 4.32302e+06 0 0 4.35664e+06 0 0 4.36697e+06 0 0 4.35401e+06 0 0 4.31792e+06 0 0 4.2591e+06 0 0 4.17821e+06 0 0 4.07627e+06 0 0 3.95474e+06 0 0 3.81552e+06 0 0 3.66101e+06 0 </DataArray> 
</PointData> 
<Points> 
<DataArray type="Float32" NumberOfComponents="3"> 
0.117008 0.0653102 0 0.12202 0.0664317 0 0.126961 0.0673369 0 0.131845 0.0680415 0 0.136685 0.0685574 0 0.14149 0.0688924 0 0.146268 0.0690503 0 0.151023 0.069031 0 0.155757 0.0688303 0 0.160469 0.06844 0 0.165156 0.0678481 0 0.169813 0.0670384 0 0.17443 0.0659908 0 0.178997 0.0646811 0 0.183501 0.0630813 0 0.187924 0.0611593 0 0.116741 0.0684229 0 0.121752 0.0694696 0 0.126697 0.0703144 0 0.131589 0.0709721 0 0.136439 0.0714536 0 0.141258 0.0717662 0 0.14605 0.0719136 0 0.150821 0.0718956 0 0.155573 0.0717082 0 0.160304 0.071344 0 0.165012 0.0707916 0 0.169692 0.0700359 0 0.174335 0.0690581 0 0.178931 0.0678357 0 0.183467 0.0663426 0 0.187929 0.0645486 0 0.116474 0.0715355 0 0.121484 0.0725075 0 0.126433 0.073292 0 0.131332 0.0739026 0 0.136194 0.0743497 0 0.141025 0.0746401 0 0.145832 0.0747769 0 0.15062 0.0747602 0 0.155389 0.0745862 0 0.16014 0.074248 0 0.164869 0.073735 0 0.169571 0.0730333 0 0.174239 0.0721254 0 0.178864 0.0709903 0 0.183434 0.0696038 0 0.187934 0.067938 0 0.116207 0.0746482 0 0.121216 0.0755454 0 0.126169 0.0762695 0 0.131076 0.0768332 0 0.135948 0.0772459 0 0.140792 0.0775139 0 0.145614 0.0776402 0 0.150418 0.0776248 0 0.155205 0.0774642 0 0.159975 0.077152 0 0.164725 0.0766785 0 0.16945 0.0760307 0 0.174144 0.0751926 0 0.178798 0.0741449 0 0.183401 0.0728651 0 0.187939 0.0713274 0 0.115939 0.0777608 0 0.120948 0.0785833 0 0.125905 0.0792471 0 0.13082 0.0797638 0 0.135702 0.0801421 0 0.140559 0.0803877 0 0.145396 0.0805035 0 0.150217 0.0804894 0 0.155022 0.0803422 0 0.15981 0.080056 0 0.164581 0.079622 0 0.169329 0.0790282 0 0.174049 0.0782599 0 0.178731 0.0772995 0 0.183367 0.0761263 0 0.187944 0.0747168 0 0.115672 0.0808735 0 0.12068 0.0816212 0 0.125641 0.0822246 0 0.130563 0.0826943 0 0.135457 0.0830383 0 0.140327 0.0832616 0 0.145179 0.0833669 0 0.150015 0.083354 0 0.154838 0.0832202 0 0.159646 0.08296 0 0.164437 0.0825654 0 0.169209 0.0820256 0 0.173953 0.0813272 0 0.178665 0.0804541 0 0.183334 0.0793875 0 0.187949 0.0781062 0 0.115405 0.0839861 0 0.120412 0.084659 0 0.125377 0.0852021 0 0.130307 0.0856249 0 0.135211 0.0859344 0 0.140094 0.0861354 0 0.144961 0.0862302 0 0.149814 0.0862186 0 0.154654 0.0860982 0 0.159481 0.085864 0 0.164294 0.0855089 0 0.169088 0.0850231 0 0.173858 0.0843945 0 0.178598 0.0836087 0 0.1833 0.0826488 0 0.187954 0.0814956 0 0.115138 0.0870988 0 0.120144 0.0876969 0 0.125113 0.0881797 0 0.130051 0.0885555 0 0.134965 0.0888306 0 0.139861 0.0890093 0 0.144743 0.0890935 0 0.149612 0.0890832 0 0.15447 0.0889761 0 0.159317 0.088768 0 0.16415 0.0884523 0 0.168967 0.0880205 0 0.173763 0.0874618 0 0.178532 0.0867633 0 0.183267 0.08591 0 0.18796 0.0848849 0 0.11487 0.0902114 0 0.119876 0.0907348 0 0.124848 0.0911572 0 0.129794 0.091486 0 0.13472 0.0917268 0 0.139629 0.0918831 0 0.144525 0.0919568 0 0.149411 0.0919478 0 0.154286 0.0918541 0 0.159152 0.091672 0 0.164006 0.0913958 0 0.168846 0.0910179 0 0.173667 0.090529 0 0.178465 0.0899179 0 0.183234 0.0891713 0 0.187965 0.0882743 0 0.114603 0.0933241 0 0.119608 0.0937727 0 0.124584 0.0941348 0 0.129538 0.0944166 0 0.134474 0.094623 0 0.139396 0.0947569 0 0.144307 0.0948201 0 0.149209 0.0948124 0 0.154103 0.0947321 0 0.158988 0.094576 0 0.163862 0.0943393 0 0.168725 0.0940154 0 0.173572 0.0935963 0 0.178399 0.0930725 0 0.1832 0.0924325 0 0.18797 0.0916637 0 0.114336 0.0964367 0 0.11934 0.0968106 0 0.12432 0.0971123 0 0.129282 0.0973472 0 0.134228 0.0975191 0 0.139163 0.0976308 0 0.144089 0.0976834 0 0.149008 0.097677 0 0.153919 0.0976101 0 0.158823 0.09748 0 0.163719 0.0972827 0 0.168604 0.0970128 0 0.173477 0.0966636 0 0.178332 0.096227 0 0.183167 0.0956938 0 0.187975 0.0950531 0 0.114069 0.0995494 0 0.119072 0.0998485 0 0.124056 0.10009 0 0.129025 0.100278 0 0.133983 0.100415 0 0.138931 0.100505 0 0.143871 0.100547 0 0.148806 0.100542 0 0.153735 0.100488 0 0.158658 0.100384 0 0.163575 0.100226 0 0.168483 0.10001 0 0.173381 0.0997309 0 0.178266 0.0993816 0 0.183134 0.098955 0 0.18798 0.0984425 0 0.113802 0.102662 0 0.118804 0.102886 0 0.123792 0.103067 0 0.128769 0.103208 0 0.133737 0.103311 0 0.138698 0.103378 0 0.143654 0.10341 0 0.148605 0.103406 0 0.153551 0.103366 0 0.158494 0.103288 0 0.163431 0.10317 0 0.168363 0.103008 0 0.173286 0.102798 0 0.178199 0.102536 0 0.1831 0.102216 0 0.187985 0.101832 0 0.113534 0.105775 0 0.118536 0.105924 0 0.123528 0.106045 0 0.128513 0.106139 0 0.133491 0.106208 0 0.138465 0.106252 0 0.143436 0.106273 0 0.148403 0.106271 0 0.153368 0.106244 0 0.158329 0.106192 0 0.163287 0.106113 0 0.168242 0.106005 0 0.173191 0.105865 0 0.178133 0.105691 0 0.183067 0.105478 0 0.18799 0.105221 0 0.113267 0.108887 0 0.118268 0.108962 0 0.123264 0.109022 0 0.128256 0.109069 0 0.133246 0.109104 0 0.138233 0.109126 0 0.143218 0.109137 0 0.148202 0.109135 0 0.153184 0.109122 0 0.158165 0.109096 0 0.163144 0.109057 0 0.168121 0.109003 0 0.173095 0.108933 0 0.178066 0.108845 0 0.183033 0.108739 0 0.187995 0.108611 0 0.113 0.112 0 0.118 0.112 0 0.123 0.112 0 0.128 0.112 0 0.133 0.112 0 0.138 0.112 0 0.143 0.112 0 0.148 0.112 0 0.153 0.112 0 0.158 0.112 0 0.163 0.112 0 0.168 0.112 0 0.173 0.112 0 0.178 0.112 0 0.183 0.112 0 0.188 0.112 0 
</DataArray>
</Points> 
</Piece> 
</StructuredGrid> 
</VTKFile> 
