<?xml version="1.0"?> 
<VTKFile type="StructuredGrid" version="0.1"> 
<StructuredGrid WholeExtent="0 15 0 15 0 0"> 
<Piece Extent="0 15 0 15 0 0"> 
<PointData>
<DataArray type="Float32" Name="|E|" format="ascii" NumberOfComponents="3"> 
-1.71194e+06 8.72266 0 -2.31603e+06 2.6295 0 -2.73985e+06 -2.4551 0 -2.9857e+06 -2.44068 0 -3.11928e+06 -1.51978 0 -3.19359e+06 -0.838755 0 -3.24027e+06 -0.447665 0 -3.2766e+06 -0.228748 0 -3.31168e+06 -0.100491 0 -3.34993e+06 -0.0115899 0 -3.39286e+06 0.0704912 0 -3.43969e+06 0.162623 0 -3.4873e+06 0.256277 0 -3.53007e+06 0.299977 0 -3.5605e+06 0.21577 0 -3.57166e+06 3.21865e-06 0 -1.71203e+06 109820 0 -2.31883e+06 89188.9 0 -2.74247e+06 54953.4 0 -2.98729e+06 30251.5 0 -3.1201e+06 16390.8 0 -3.19397e+06 9573.47 0 -3.24041e+06 6668.92 0 -3.27661e+06 5865.35 0 -3.31163e+06 6132.73 0 -3.34986e+06 6871.53 0 -3.3928e+06 7664.97 0 -3.43968e+06 8133.38 0 -3.48737e+06 7859.28 0 -3.53025e+06 6433.45 0 -3.56079e+06 3684.61 0 -3.57199e+06 -3.64031e-07 0 -1.7123e+06 220942 0 -2.32732e+06 178720 0 -2.75035e+06 109570 0 -2.99204e+06 60184.8 0 -3.12256e+06 32580.7 0 -3.1951e+06 19038.1 0 -3.24083e+06 13278.9 0 -3.27665e+06 11701 0 -3.31148e+06 12252.2 0 -3.34964e+06 13741.6 0 -3.39263e+06 15339.2 0 -3.43964e+06 16288.1 0 -3.48757e+06 15752.3 0 -3.53078e+06 12906.5 0 -3.56163e+06 7397.81 0 -3.57297e+06 9.49949e-08 0 -1.71277e+06 334723 0 -2.34179e+06 268912 0 -2.76353e+06 163496 0 -2.99992e+06 89481.4 0 -3.12663e+06 48371.3 0 -3.19697e+06 28287 0 -3.2415e+06 19771.9 0 -3.2767e+06 17477.7 0 -3.31123e+06 18345.5 0 -3.34929e+06 20608.7 0 -3.39233e+06 23031.7 0 -3.43956e+06 24485.4 0 -3.4879e+06 23712.8 0 -3.53167e+06 19459.1 0 -3.56305e+06 11168.6 0 -3.57462e+06 1.76951e-08 0 -1.71344e+06 452709 0 -2.36275e+06 360036 0 -2.78211e+06 216338 0 -3.01089e+06 117818 0 -3.13226e+06 63565.9 0 -3.19955e+06 37215 0 -3.24243e+06 26090.9 0 -3.27676e+06 23167.1 0 -3.31087e+06 24399.7 0 -3.34879e+06 27471.5 0 -3.3919e+06 30751.7 0 -3.43944e+06 32746.5 0 -3.48836e+06 31774.9 0 -3.53291e+06 26132.2 0 -3.56506e+06 15027.1 0 -3.57695e+06 -9.31323e-09 0 -1.71434e+06 576649 0 -2.39095e+06 452267 0 -2.80619e+06 267650 0 -3.02486e+06 144865 0 -3.13939e+06 77973.2 0 -3.2028e+06 45720.3 0 -3.24358e+06 32180.9 0 -3.27682e+06 28741.4 0 -3.31039e+06 30402.6 0 -3.34813e+06 34328.6 0 -3.39134e+06 38508 0 -3.43928e+06 41092.4 0 -3.48893e+06 39973.2 0 -3.53451e+06 32968.5 0 -3.56765e+06 19005.4 0 -3.57998e+06 -7.45058e-09 0 -1.71552e+06 708826 0 -2.42743e+06 545635 0 -2.83586e+06 316918 0 -3.04172e+06 170285 0 -3.14792e+06 91408.5 0 -3.20668e+06 53704.8 0 -3.24493e+06 37989.4 0 -3.27686e+06 34174.4 0 -3.30979e+06 36342.1 0 -3.34731e+06 41178.8 0 -3.39064e+06 46309.3 0 -3.43906e+06 49544.2 0 -3.48962e+06 48343.1 0 -3.53646e+06 40012.6 0 -3.57085e+06 23137.9 0 -3.58374e+06 1.86265e-08 0 -1.71706e+06 851921 0 -2.47358e+06 639899 0 -2.87119e+06 363573 0 -3.06135e+06 193719 0 -3.15774e+06 103705 0 -3.21112e+06 61071.7 0 -3.24644e+06 43469.2 0 -3.27687e+06 39440.5 0 -3.30904e+06 42207.5 0 -3.34632e+06 48020.8 0 -3.38979e+06 54164 0 -3.43878e+06 58122.6 0 -3.4904e+06 56920.5 0 -3.53877e+06 47311.9 0 -3.57469e+06 27462.4 0 -3.58826e+06 7.45058e-09 0 -1.71933e+06 1.0101e+06 0 -2.53122e+06 734427 0 -2.91216e+06 406979 0 -3.08355e+06 214792 0 -3.16875e+06 114713 0 -3.21605e+06 67726.9 0 -3.24807e+06 48578 0 -3.27682e+06 44515.4 0 -3.30815e+06 47989 0 -3.34515e+06 54853.3 0 -3.38877e+06 62080.3 0 -3.43841e+06 66848 0 -3.49127e+06 65742.4 0 -3.54144e+06 54917 0 -3.57918e+06 32020.6 0 -3.59358e+06 8.9407e-08 0 -1.72298e+06 1.18837e+06 0 -2.60268e+06 827890 0 -2.95862e+06 446538 0 -3.1081e+06 233062 0 -3.18079e+06 124338 0 -3.22139e+06 73563.5 0 -3.24979e+06 53287.5 0 -3.27669e+06 49372.7 0 -3.30709e+06 53679.3 0 -3.34378e+06 61674.3 0 -3.38758e+06 70066 0 -3.43794e+06 75740.2 0 -3.49221e+06 74846.4 0 -3.54446e+06 62882.7 0 -3.58436e+06 36859.8 0 -3.59975e+06 -2.45869e-07 0 -1.7307e+06 1.39634e+06 0 -2.69082e+06 918030 0 -3.01021e+06 481658 0 -3.13474e+06 248045 0 -3.19371e+06 132527 0 -3.22704e+06 78468.3 0 -3.25155e+06 57581.3 0 -3.27644e+06 53984.6 0 -3.30584e+06 59273.9 0 -3.3422e+06 68481.5 0 -3.38619e+06 78128.6 0 -3.43735e+06 84818.7 0 -3.49319e+06 84271 0 -3.54782e+06 71268.4 0 -3.59026e+06 42033.7 0 -3.60683e+06 1.78814e-07 0 -1.7481e+06 1.64782e+06 0 -2.79907e+06 1.00108e+06 0 -3.06627e+06 511970 0 -3.16312e+06 259123 0 -3.20738e+06 139336 0 -3.23288e+06 82289.8 0 -3.25332e+06 61472.3 0 -3.27604e+06 58314.9 0 -3.3044e+06 64773.8 0 -3.3404e+06 75270.7 0 -3.3846e+06 86275.5 0 -3.43662e+06 94101.6 0 -3.49419e+06 94055.3 0 -3.55152e+06 80138.8 0 -3.59692e+06 47604.1 0 -3.61491e+06 1.49012e-08 0 -1.79625e+06 1.97498e+06 0 -2.93046e+06 1.07182e+06 0 -3.12584e+06 536869 0 -3.19286e+06 265837 0 -3.22167e+06 144789 0 -3.23875e+06 84906.1 0 -3.25508e+06 64972.3 0 -3.27543e+06 62331.5 0 -3.30277e+06 70181.3 0 -3.33834e+06 82037.7 0 -3.38278e+06 94513 0 -3.43572e+06 103607 0 -3.49519e+06 104239 0 -3.55556e+06 89565.4 0 -3.60439e+06 53643 0 -3.62406e+06 -2.38419e-07 0 -1.9297e+06 2.45572e+06 0 -3.08595e+06 1.1248e+06 0 -3.18775e+06 554008 0 -3.22349e+06 268795 0 -3.23645e+06 148424 0 -3.24447e+06 86446.7 0 -3.25684e+06 67990.5 0 -3.27454e+06 66052 0 -3.30094e+06 75480.6 0 -3.33601e+06 88785.4 0 -3.38073e+06 102844 0 -3.43461e+06 113350 0 -3.49615e+06 114861 0 -3.5599e+06 99625.9 0 -3.61272e+06 60235.3 0 -3.6344e+06 1.93715e-07 0 -2.35484e+06 3.33296e+06 0 -3.25373e+06 1.16282e+06 0 -3.25182e+06 551354 0 -3.25456e+06 274242 0 -3.25138e+06 146918 0 -3.25005e+06 88476 0 -3.25844e+06 69771.2 0 -3.2734e+06 69797.5 0 -3.29886e+06 80532 0 -3.33339e+06 95563.6 0 -3.37841e+06 111257 0 -3.43327e+06 123348 0 -3.49703e+06 125963 0 -3.56453e+06 110403 0 -3.62197e+06 67485.2 0 -3.64605e+06 -3.27826e-07 0 -3.92022e+06 6.04137e+06 0 -3.36642e+06 1.2612e+06 0 -3.32412e+06 448041 0 -3.28616e+06 327672 0 -3.2645e+06 116506 0 -3.25689e+06 102782 0 -3.25879e+06 64690.6 0 -3.27262e+06 76098.4 0 -3.29614e+06 84266.4 0 -3.33068e+06 102772 0 -3.3757e+06 119635 0 -3.43173e+06 133626 0 -3.49776e+06 137607 0 -3.56943e+06 121958 0 -3.6322e+06 75543.2 0 -3.65916e+06 1.90735e-06 0 </DataArray> 
</PointData> 
<Points> 
<DataArray type="Float32" NumberOfComponents="3"> 
0.016 0 0 0.0199333 0 0 0.0238667 0 0 0.0278 0 0 0.0317333 0 0 0.0356667 0 0 0.0396 0 0 0.0435333 0 0 0.0474667 0 0 0.0514 0 0 0.0553333 0 0 0.0592667 0 0 0.0632 0 0 0.0671333 0 0 0.0710667 0 0 0.075 0 0 0.016 0.000666667 0 0.0199333 0.000666667 0 0.0238667 0.000666667 0 0.0278 0.000666667 0 0.0317333 0.000666667 0 0.0356667 0.000666667 0 0.0396 0.000666667 0 0.0435333 0.000666667 0 0.0474667 0.000666667 0 0.0514 0.000666667 0 0.0553333 0.000666667 0 0.0592667 0.000666667 0 0.0632 0.000666667 0 0.0671333 0.000666667 0 0.0710667 0.000666667 0 0.075 0.000666667 0 0.016 0.00133333 0 0.0199333 0.00133333 0 0.0238667 0.00133333 0 0.0278 0.00133333 0 0.0317333 0.00133333 0 0.0356667 0.00133333 0 0.0396 0.00133333 0 0.0435333 0.00133333 0 0.0474667 0.00133333 0 0.0514 0.00133333 0 0.0553333 0.00133333 0 0.0592667 0.00133333 0 0.0632 0.00133333 0 0.0671333 0.00133333 0 0.0710667 0.00133333 0 0.075 0.00133333 0 0.016 0.002 0 0.0199333 0.002 0 0.0238667 0.002 0 0.0278 0.002 0 0.0317333 0.002 0 0.0356667 0.002 0 0.0396 0.002 0 0.0435333 0.002 0 0.0474667 0.002 0 0.0514 0.002 0 0.0553333 0.002 0 0.0592667 0.002 0 0.0632 0.002 0 0.0671333 0.002 0 0.0710667 0.002 0 0.075 0.002 0 0.016 0.00266667 0 0.0199333 0.00266667 0 0.0238667 0.00266667 0 0.0278 0.00266667 0 0.0317333 0.00266667 0 0.0356667 0.00266667 0 0.0396 0.00266667 0 0.0435333 0.00266667 0 0.0474667 0.00266667 0 0.0514 0.00266667 0 0.0553333 0.00266667 0 0.0592667 0.00266667 0 0.0632 0.00266667 0 0.0671333 0.00266667 0 0.0710667 0.00266667 0 0.075 0.00266667 0 0.016 0.00333333 0 0.0199333 0.00333333 0 0.0238667 0.00333333 0 0.0278 0.00333333 0 0.0317333 0.00333333 0 0.0356667 0.00333333 0 0.0396 0.00333333 0 0.0435333 0.00333333 0 0.0474667 0.00333333 0 0.0514 0.00333333 0 0.0553333 0.00333333 0 0.0592667 0.00333333 0 0.0632 0.00333333 0 0.0671333 0.00333333 0 0.0710667 0.00333333 0 0.075 0.00333333 0 0.016 0.004 0 0.0199333 0.004 0 0.0238667 0.004 0 0.0278 0.004 0 0.0317333 0.004 0 0.0356667 0.004 0 0.0396 0.004 0 0.0435333 0.004 0 0.0474667 0.004 0 0.0514 0.004 0 0.0553333 0.004 0 0.0592667 0.004 0 0.0632 0.004 0 0.0671333 0.004 0 0.0710667 0.004 0 0.075 0.004 0 0.016 0.00466667 0 0.0199333 0.00466667 0 0.0238667 0.00466667 0 0.0278 0.00466667 0 0.0317333 0.00466667 0 0.0356667 0.00466667 0 0.0396 0.00466667 0 0.0435333 0.00466667 0 0.0474667 0.00466667 0 0.0514 0.00466667 0 0.0553333 0.00466667 0 0.0592667 0.00466667 0 0.0632 0.00466667 0 0.0671333 0.00466667 0 0.0710667 0.00466667 0 0.075 0.00466667 0 0.016 0.00533333 0 0.0199333 0.00533333 0 0.0238667 0.00533333 0 0.0278 0.00533333 0 0.0317333 0.00533333 0 0.0356667 0.00533333 0 0.0396 0.00533333 0 0.0435333 0.00533333 0 0.0474667 0.00533333 0 0.0514 0.00533333 0 0.0553333 0.00533333 0 0.0592667 0.00533333 0 0.0632 0.00533333 0 0.0671333 0.00533333 0 0.0710667 0.00533333 0 0.075 0.00533333 0 0.016 0.006 0 0.0199333 0.006 0 0.0238667 0.006 0 0.0278 0.006 0 0.0317333 0.006 0 0.0356667 0.006 0 0.0396 0.006 0 0.0435333 0.006 0 0.0474667 0.006 0 0.0514 0.006 0 0.0553333 0.006 0 0.0592667 0.006 0 0.0632 0.006 0 0.0671333 0.006 0 0.0710667 0.006 0 0.075 0.006 0 0.016 0.00666667 0 0.0199333 0.00666667 0 0.0238667 0.00666667 0 0.0278 0.00666667 0 0.0317333 0.00666667 0 0.0356667 0.00666667 0 0.0396 0.00666667 0 0.0435333 0.00666667 0 0.0474667 0.00666667 0 0.0514 0.00666667 0 0.0553333 0.00666667 0 0.0592667 0.00666667 0 0.0632 0.00666667 0 0.0671333 0.00666667 0 0.0710667 0.00666667 0 0.075 0.00666667 0 0.016 0.00733333 0 0.0199333 0.00733333 0 0.0238667 0.00733333 0 0.0278 0.00733333 0 0.0317333 0.00733333 0 0.0356667 0.00733333 0 0.0396 0.00733333 0 0.0435333 0.00733333 0 0.0474667 0.00733333 0 0.0514 0.00733333 0 0.0553333 0.00733333 0 0.0592667 0.00733333 0 0.0632 0.00733333 0 0.0671333 0.00733333 0 0.0710667 0.00733333 0 0.075 0.00733333 0 0.016 0.008 0 0.0199333 0.008 0 0.0238667 0.008 0 0.0278 0.008 0 0.0317333 0.008 0 0.0356667 0.008 0 0.0396 0.008 0 0.0435333 0.008 0 0.0474667 0.008 0 0.0514 0.008 0 0.0553333 0.008 0 0.0592667 0.008 0 0.0632 0.008 0 0.0671333 0.008 0 0.0710667 0.008 0 0.075 0.008 0 0.016 0.00866667 0 0.0199333 0.00866667 0 0.0238667 0.00866667 0 0.0278 0.00866667 0 0.0317333 0.00866667 0 0.0356667 0.00866667 0 0.0396 0.00866667 0 0.0435333 0.00866667 0 0.0474667 0.00866667 0 0.0514 0.00866667 0 0.0553333 0.00866667 0 0.0592667 0.00866667 0 0.0632 0.00866667 0 0.0671333 0.00866667 0 0.0710667 0.00866667 0 0.075 0.00866667 0 0.016 0.00933333 0 0.0199333 0.00933333 0 0.0238667 0.00933333 0 0.0278 0.00933333 0 0.0317333 0.00933333 0 0.0356667 0.00933333 0 0.0396 0.00933333 0 0.0435333 0.00933333 0 0.0474667 0.00933333 0 0.0514 0.00933333 0 0.0553333 0.00933333 0 0.0592667 0.00933333 0 0.0632 0.00933333 0 0.0671333 0.00933333 0 0.0710667 0.00933333 0 0.075 0.00933333 0 0.016 0.01 0 0.0199333 0.01 0 0.0238667 0.01 0 0.0278 0.01 0 0.0317333 0.01 0 0.0356667 0.01 0 0.0396 0.01 0 0.0435333 0.01 0 0.0474667 0.01 0 0.0514 0.01 0 0.0553333 0.01 0 0.0592667 0.01 0 0.0632 0.01 0 0.0671333 0.01 0 0.0710667 0.01 0 0.075 0.01 0 
</DataArray>
</Points> 
</Piece> 
</StructuredGrid> 
</VTKFile> 
