<?xml version="1.0"?> 
<VTKFile type="StructuredGrid" version="0.1"> 
<StructuredGrid WholeExtent="0 31 0 31 0 0"> 
<Piece Extent="0 31 0 31 0 0"> 
<PointData>
<DataArray type="Float32" Name="|E|" format="ascii" NumberOfComponents="3"> 
299859 4.54798e+06 0 300687 4.56054e+06 0 301544 4.57354e+06 0 302431 4.587e+06 0 303351 4.60095e+06 0 304304 4.61541e+06 0 305294 4.63042e+06 0 306321 4.646e+06 0 307389 4.6622e+06 0 308501 4.67906e+06 0 309658 4.69661e+06 0 310864 4.71491e+06 0 312124 4.73401e+06 0 313440 4.75397e+06 0 314818 4.77487e+06 0 316262 4.79678e+06 0 317780 4.81979e+06 0 319376 4.84401e+06 0 321061 4.86956e+06 0 322842 4.89658e+06 0 324732 4.92523e+06 0 326742 4.95573e+06 0 328889 4.9883e+06 0 331193 5.02324e+06 0 333678 5.06092e+06 0 336373 5.10179e+06 0 339316 5.14643e+06 0 342555 5.19557e+06 0 346155 5.25016e+06 0 350195 5.31144e+06 0 354785 5.38106e+06 0 360070 5.46122e+06 0 392072 4.5227e+06 0 395980 4.5342e+06 0 400065 4.54605e+06 0 404340 4.55829e+06 0 408819 4.57093e+06 0 413518 4.58399e+06 0 418452 4.59749e+06 0 423641 4.61144e+06 0 429105 4.62588e+06 0 434867 4.64081e+06 0 440953 4.65628e+06 0 447391 4.6723e+06 0 454214 4.6889e+06 0 461459 4.70611e+06 0 469167 4.72397e+06 0 477384 4.74249e+06 0 486165 4.76172e+06 0 495571 4.78169e+06 0 505674 4.80243e+06 0 516554 4.82397e+06 0 528307 4.84634e+06 0 541045 4.86955e+06 0 554897 4.89363e+06 0 570015 4.91857e+06 0 586582 4.94433e+06 0 604811 4.97086e+06 0 624961 4.99803e+06 0 647339 5.02567e+06 0 672316 5.05346e+06 0 700344 5.08093e+06 0 731962 5.10738e+06 0 767873 5.13176e+06 0 471598 4.4773e+06 0 477794 4.48688e+06 0 484245 4.4967e+06 0 490968 4.50678e+06 0 497977 4.51711e+06 0 505292 4.52771e+06 0 512931 4.53858e+06 0 520914 4.54972e+06 0 529263 4.56113e+06 0 538003 4.57283e+06 0 547159 4.58481e+06 0 556758 4.59707e+06 0 566831 4.60962e+06 0 577409 4.62245e+06 0 588528 4.63556e+06 0 600223 4.64894e+06 0 612535 4.66259e+06 0 625505 4.67649e+06 0 639180 4.69063e+06 0 653605 4.70499e+06 0 668831 4.71953e+06 0 684907 4.73422e+06 0 701886 4.74904e+06 0 719818 4.76392e+06 0 738752 4.77882e+06 0 758733 4.79368e+06 0 779794 4.80844e+06 0 801957 4.82306e+06 0 825225 4.83749e+06 0 849566 4.85174e+06 0 874913 4.86586e+06 0 901125 4.88004e+06 0 534594 4.41898e+06 0 542168 4.42638e+06 0 550010 4.43392e+06 0 558133 4.44159e+06 0 566549 4.4494e+06 0 575273 4.45734e+06 0 584319 4.4654e+06 0 593701 4.47359e+06 0 603436 4.4819e+06 0 613539 4.49032e+06 0 624027 4.49885e+06 0 634919 4.50749e+06 0 646231 4.51622e+06 0 657983 4.52503e+06 0 670194 4.53391e+06 0 682882 4.54285e+06 0 696069 4.55183e+06 0 709774 4.56084e+06 0 724017 4.56987e+06 0 738818 4.57888e+06 0 754195 4.58786e+06 0 770169 4.59678e+06 0 786756 4.60562e+06 0 803975 4.61435e+06 0 821842 4.62293e+06 0 840372 4.63133e+06 0 859581 4.63952e+06 0 879484 4.64745e+06 0 900099 4.65505e+06 0 921446 4.66226e+06 0 943553 4.66897e+06 0 966464 4.67503e+06 0 580799 4.3541e+06 0 589013 4.35943e+06 0 597472 4.36482e+06 0 606185 4.37026e+06 0 615160 4.37575e+06 0 624407 4.38128e+06 0 633934 4.38684e+06 0 643751 4.39243e+06 0 653867 4.39805e+06 0 664292 4.40368e+06 0 675035 4.40931e+06 0 686106 4.41495e+06 0 697515 4.42058e+06 0 709272 4.42619e+06 0 721385 4.43176e+06 0 733864 4.43729e+06 0 746719 4.44276e+06 0 759958 4.44816e+06 0 773589 4.45347e+06 0 787620 4.45868e+06 0 802059 4.46376e+06 0 816912 4.46871e+06 0 832184 4.4735e+06 0 847880 4.47811e+06 0 864003 4.48252e+06 0 880555 4.4867e+06 0 897536 4.49064e+06 0 914942 4.49432e+06 0 932770 4.49771e+06 0 951008 4.5008e+06 0 969642 4.5036e+06 0 988650 4.50612e+06 0 611895 4.28726e+06 0 620245 4.29079e+06 0 628804 4.29433e+06 0 637578 4.29786e+06 0 646572 4.30138e+06 0 655792 4.30489e+06 0 665243 4.30838e+06 0 674930 4.31185e+06 0 684858 4.31528e+06 0 695033 4.31868e+06 0 705459 4.32203e+06 0 716142 4.32533e+06 0 727086 4.32857e+06 0 738295 4.33174e+06 0 749774 4.33482e+06 0 761527 4.33782e+06 0 773557 4.34072e+06 0 785868 4.34351e+06 0 798463 4.34618e+06 0 811344 4.34872e+06 0 824513 4.35112e+06 0 837971 4.35336e+06 0 851720 4.35543e+06 0 865759 4.35732e+06 0 880088 4.35901e+06 0 894706 4.3605e+06 0 909612 4.36177e+06 0 924803 4.3628e+06 0 940277 4.36358e+06 0 956031 4.36409e+06 0 972063 4.3643e+06 0 988371 4.36419e+06 0 630217 4.22138e+06 0 638392 4.2234e+06 0 646739 4.2254e+06 0 655263 4.22736e+06 0 663966 4.22929e+06 0 672851 4.23117e+06 0 681922 4.233e+06 0 691180 4.23478e+06 0 700629 4.2365e+06 0 710270 4.23816e+06 0 720108 4.23974e+06 0 730142 4.24125e+06 0 740377 4.24268e+06 0 750812 4.24401e+06 0 761451 4.24525e+06 0 772294 4.24638e+06 0 783343 4.2474e+06 0 794597 4.24831e+06 0 806059 4.24908e+06 0 817727 4.24972e+06 0 829602 4.25021e+06 0 841683 4.25055e+06 0 853970 4.25073e+06 0 866460 4.25074e+06 0 879152 4.25057e+06 0 892044 4.25022e+06 0 905133 4.24966e+06 0 918415 4.2489e+06 0 931887 4.24792e+06 0 945544 4.24672e+06 0 959381 4.2453e+06 0 973391 4.24364e+06 0 638084 4.15814e+06 0 645905 4.15894e+06 0 653868 4.15969e+06 0 661972 4.16038e+06 0 670221 4.16103e+06 0 678614 4.16162e+06 0 687155 4.16214e+06 0 695843 4.1626e+06 0 704681 4.16298e+06 0 713669 4.16329e+06 0 722808 4.16352e+06 0 732098 4.16367e+06 0 741541 4.16372e+06 0 751137 4.16368e+06 0 760886 4.16353e+06 0 770789 4.16328e+06 0 780844 4.16292e+06 0 791052 4.16244e+06 0 801412 4.16184e+06 0 811923 4.16111e+06 0 822584 4.16024e+06 0 833394 4.15923e+06 0 844352 4.15808e+06 0 855455 4.15677e+06 0 866701 4.1553e+06 0 878088 4.15367e+06 0 889614 4.15187e+06 0 901275 4.14989e+06 0 913068 4.14773e+06 0 924990 4.14538e+06 0 937037 4.14283e+06 0 949204 4.14008e+06 0 637533 4.09843e+06 0 644910 4.09824e+06 0 652400 4.09799e+06 0 660004 4.09768e+06 0 667723 4.09731e+06 0 675557 4.09687e+06 0 683507 4.09637e+06 0 691573 4.0958e+06 0 699756 4.09515e+06 0 708055 4.09442e+06 0 716472 4.0936e+06 0 725005 4.0927e+06 0 733655 4.09172e+06 0 742422 4.09063e+06 0 751304 4.08945e+06 0 760302 4.08817e+06 0 769415 4.08678e+06 0 778642 4.08528e+06 0 787982 4.08366e+06 0 797433 4.08193e+06 0 806995 4.08008e+06 0 816666 4.07809e+06 0 826444 4.07598e+06 0 836327 4.07373e+06 0 846313 4.07134e+06 0 856401 4.06881e+06 0 866587 4.06613e+06 0 876869 4.06329e+06 0 887245 4.0603e+06 0 897710 4.05715e+06 0 908263 4.05384e+06 0 918899 4.05036e+06 0 630259 4.04266e+06 0 637151 4.04167e+06 0 644134 4.04062e+06 0 651209 4.03951e+06 0 658375 4.03833e+06 0 665632 4.03709e+06 0 672980 4.03578e+06 0 680420 4.0344e+06 0 687951 4.03294e+06 0 695573 4.03141e+06 0 703286 4.02979e+06 0 711089 4.0281e+06 0 718981 4.02631e+06 0 726963 4.02444e+06 0 735033 4.02247e+06 0 743191 4.02041e+06 0 751436 4.01825e+06 0 759766 4.01599e+06 0 768181 4.01363e+06 0 776679 4.01116e+06 0 785259 4.00858e+06 0 793920 4.00588e+06 0 802659 4.00307e+06 0 811475 4.00014e+06 0 820367 3.99709e+06 0 829332 3.99391e+06 0 838368 3.9906e+06 0 847473 3.98716e+06 0 856644 3.98359e+06 0 865879 3.97988e+06 0 875176 3.97603e+06 0 884531 3.97204e+06 0 617634 3.99092e+06 0 624034 3.98929e+06 0 630507 3.9876e+06 0 637052 3.98585e+06 0 643670 3.98404e+06 0 650360 3.98216e+06 0 657123 3.98022e+06 0 663957 3.97821e+06 0 670863 3.97612e+06 0 677840 3.97396e+06 0 684887 3.97173e+06 0 692005 3.96941e+06 0 699191 3.96702e+06 0 706446 3.96454e+06 0 713769 3.96198e+06 0 721159 3.95933e+06 0 728615 3.95659e+06 0 736135 3.95376e+06 0 743720 3.95083e+06 0 751366 3.94781e+06 0 759074 3.94469e+06 0 766842 3.94147e+06 0 774669 3.93815e+06 0 782552 3.93472e+06 0 790490 3.93119e+06 0 798482 3.92754e+06 0 806525 3.92378e+06 0 814618 3.91991e+06 0 822759 3.91593e+06 0 830946 3.91182e+06 0 839176 3.9076e+06 0 847448 3.90325e+06 0 600757 3.94314e+06 0 606674 3.941e+06 0 612649 3.9388e+06 0 618682 3.93655e+06 0 624772 3.93423e+06 0 630920 3.93185e+06 0 637126 3.92941e+06 0 643387 3.9269e+06 0 649706 3.92432e+06 0 656079 3.92167e+06 0 662508 3.91896e+06 0 668991 3.91617e+06 0 675527 3.9133e+06 0 682117 3.91036e+06 0 688759 3.90734e+06 0 695452 3.90425e+06 0 702195 3.90107e+06 0 708987 3.89781e+06 0 715828 3.89446e+06 0 722716 3.89103e+06 0 729650 3.88751e+06 0 736629 3.8839e+06 0 743651 3.88019e+06 0 750715 3.8764e+06 0 757820 3.87251e+06 0 764964 3.86852e+06 0 772146 3.86444e+06 0 779363 3.86026e+06 0 786616 3.85598e+06 0 793901 3.8516e+06 0 801217 3.84711e+06 0 808562 3.84252e+06 0 580502 3.89916e+06 0 585954 3.89661e+06 0 591453 3.89401e+06 0 596998 3.89135e+06 0 602589 3.88863e+06 0 608227 3.88586e+06 0 613909 3.88302e+06 0 619636 3.88012e+06 0 625407 3.87716e+06 0 631222 3.87413e+06 0 637079 3.87104e+06 0 642980 3.86788e+06 0 648921 3.86465e+06 0 654904 3.86136e+06 0 660927 3.85799e+06 0 666989 3.85455e+06 0 673090 3.85103e+06 0 679229 3.84744e+06 0 685404 3.84378e+06 0 691614 3.84004e+06 0 697860 3.83622e+06 0 704138 3.83231e+06 0 710450 3.82833e+06 0 716792 3.82427e+06 0 723165 3.82012e+06 0 729566 3.81589e+06 0 735995 3.81157e+06 0 742450 3.80716e+06 0 748929 3.80267e+06 0 755432 3.79809e+06 0 761957 3.79342e+06 0 768502 3.78866e+06 0 557561 3.85879e+06 0 562572 3.85592e+06 0 567621 3.85299e+06 0 572707 3.85001e+06 0 577830 3.84697e+06 0 582989 3.84388e+06 0 588184 3.84073e+06 0 593414 3.83752e+06 0 598679 3.83426e+06 0 603979 3.83093e+06 0 609312 3.82755e+06 0 614678 3.8241e+06 0 620076 3.82059e+06 0 625506 3.81702e+06 0 630968 3.81338e+06 0 636459 3.80968e+06 0 641980 3.80591e+06 0 647530 3.80207e+06 0 653108 3.79817e+06 0 658712 3.79419e+06 0 664343 3.79014e+06 0 669999 3.78603e+06 0 675678 3.78184e+06 0 681382 3.77757e+06 0 687107 3.77323e+06 0 692853 3.76882e+06 0 698619 3.76433e+06 0 704404 3.75977e+06 0 710207 3.75513e+06 0 716026 3.75041e+06 0 721860 3.74561e+06 0 727709 3.74073e+06 0 532487 3.82181e+06 0 537083 3.81867e+06 0 541709 3.81548e+06 0 546364 3.81224e+06 0 551049 3.80895e+06 0 555763 3.80561e+06 0 560505 3.80221e+06 0 565275 3.79876e+06 0 570073 3.79526e+06 0 574898 3.7917e+06 0 579749 3.78809e+06 0 584625 3.78442e+06 0 589527 3.78069e+06 0 594454 3.77691e+06 0 599404 3.77306e+06 0 604378 3.76916e+06 0 609375 3.76519e+06 0 614393 3.76117e+06 0 619433 3.75708e+06 0 624492 3.75293e+06 0 629572 3.74871e+06 0 634670 3.74443e+06 0 639786 3.74009e+06 0 644920 3.73568e+06 0 650069 3.7312e+06 0 655234 3.72666e+06 0 660413 3.72205e+06 0 665605 3.71737e+06 0 670810 3.71262e+06 0 676027 3.70781e+06 0 681253 3.70292e+06 0 686490 3.69797e+06 0 505718 3.78799e+06 0 509923 3.78464e+06 0 514153 3.78124e+06 0 518406 3.7778e+06 0 522683 3.77431e+06 0 526982 3.77077e+06 0 531304 3.76718e+06 0 535649 3.76354e+06 0 540014 3.75985e+06 0 544401 3.75611e+06 0 548809 3.75231e+06 0 553237 3.74847e+06 0 557684 3.74457e+06 0 562151 3.74062e+06 0 566635 3.73662e+06 0 571138 3.73256e+06 0 575658 3.72844e+06 0 580195 3.72427e+06 0 584748 3.72005e+06 0 589316 3.71576e+06 0 593899 3.71142e+06 0 598495 3.70702e+06 0 603105 3.70257e+06 0 607728 3.69805e+06 0 612362 3.69348e+06 0 617007 3.68884e+06 0 621662 3.68414e+06 0 626327 3.67939e+06 0 631000 3.67457e+06 0 635681 3.66969e+06 0 640368 3.66475e+06 0 645062 3.65974e+06 0 477605 3.75714e+06 0 481444 3.75362e+06 0 485302 3.75006e+06 0 489179 3.74645e+06 0 493075 3.74279e+06 0 496989 3.73909e+06 0 500921 3.73535e+06 0 504870 3.73156e+06 0 508836 3.72772e+06 0 512819 3.72384e+06 0 516818 3.71991e+06 0 520832 3.71593e+06 0 524862 3.7119e+06 0 528907 3.70782e+06 0 532965 3.70369e+06 0 537038 3.69952e+06 0 541123 3.69529e+06 0 545222 3.69101e+06 0 549332 3.68668e+06 0 553453 3.6823e+06 0 557586 3.67786e+06 0 561729 3.67338e+06 0 565881 3.66884e+06 0 570043 3.66425e+06 0 574213 3.6596e+06 0 578390 3.6549e+06 0 582575 3.65014e+06 0 586766 3.64533e+06 0 590962 3.64047e+06 0 595164 3.63555e+06 0 599370 3.63057e+06 0 603579 3.62554e+06 0 448428 3.72906e+06 0 451923 3.7254e+06 0 455432 3.7217e+06 0 458957 3.71796e+06 0 462497 3.71418e+06 0 466051 3.71036e+06 0 469620 3.70649e+06 0 473202 3.70258e+06 0 476797 3.69863e+06 0 480405 3.69463e+06 0 484026 3.69059e+06 0 487659 3.68651e+06 0 491304 3.68238e+06 0 494960 3.6782e+06 0 498627 3.67398e+06 0 502305 3.66972e+06 0 505992 3.6654e+06 0 509689 3.66104e+06 0 513395 3.65664e+06 0 517109 3.65218e+06 0 520831 3.64768e+06 0 524561 3.64313e+06 0 528298 3.63853e+06 0 532041 3.63388e+06 0 535790 3.62919e+06 0 539544 3.62444e+06 0 543303 3.61965e+06 0 547066 3.6148e+06 0 550832 3.60991e+06 0 554601 3.60497e+06 0 558373 3.59997e+06 0 562146 3.59493e+06 0 418411 3.70357e+06 0 421581 3.6998e+06 0 424764 3.696e+06 0 427958 3.69215e+06 0 431165 3.68827e+06 0 434382 3.68435e+06 0 437611 3.68039e+06 0 440851 3.67639e+06 0 444101 3.67234e+06 0 447361 3.66826e+06 0 450631 3.66413e+06 0 453910 3.65997e+06 0 457199 3.65576e+06 0 460496 3.65151e+06 0 463801 3.64722e+06 0 467114 3.64288e+06 0 470434 3.6385e+06 0 473762 3.63408e+06 0 477096 3.62962e+06 0 480437 3.62511e+06 0 483783 3.62056e+06 0 487134 3.61597e+06 0 490490 3.61133e+06 0 493851 3.60664e+06 0 497216 3.60191e+06 0 500584 3.59714e+06 0 503955 3.59232e+06 0 507328 3.58746e+06 0 510703 3.58255e+06 0 514080 3.57759e+06 0 517458 3.57259e+06 0 520836 3.56754e+06 0 387733 3.68052e+06 0 390597 3.67666e+06 0 393472 3.67277e+06 0 396355 3.66885e+06 0 399248 3.66489e+06 0 402150 3.66088e+06 0 405061 3.65685e+06 0 407980 3.65277e+06 0 410907 3.64866e+06 0 413842 3.64451e+06 0 416784 3.64032e+06 0 419734 3.63609e+06 0 422691 3.63182e+06 0 425654 3.62751e+06 0 428623 3.62317e+06 0 431598 3.61878e+06 0 434579 3.61436e+06 0 437565 3.60989e+06 0 440556 3.60539e+06 0 443551 3.60084e+06 0 446550 3.59625e+06 0 449553 3.59163e+06 0 452559 3.58696e+06 0 455568 3.58225e+06 0 458580 3.5775e+06 0 461593 3.57271e+06 0 464608 3.56788e+06 0 467625 3.563e+06 0 470642 3.55809e+06 0 473660 3.55313e+06 0 476677 3.54813e+06 0 479694 3.54309e+06 0 356538 3.65976e+06 0 359113 3.65584e+06 0 361695 3.65188e+06 0 364285 3.64789e+06 0 366882 3.64386e+06 0 369486 3.6398e+06 0 372097 3.63571e+06 0 374715 3.63157e+06 0 377339 3.62741e+06 0 379969 3.6232e+06 0 382605 3.61896e+06 0 385246 3.61469e+06 0 387892 3.61037e+06 0 390543 3.60602e+06 0 393199 3.60164e+06 0 395860 3.59721e+06 0 398524 3.59275e+06 0 401192 3.58826e+06 0 403863 3.58372e+06 0 406538 3.57915e+06 0 409215 3.57454e+06 0 411895 3.56989e+06 0 414576 3.56521e+06 0 417260 3.56048e+06 0 419945 3.55572e+06 0 422631 3.55092e+06 0 425317 3.54608e+06 0 428005 3.54121e+06 0 430692 3.53629e+06 0 433378 3.53134e+06 0 436064 3.52634e+06 0 438749 3.52131e+06 0 324940 3.64118e+06 0 327240 3.6372e+06 0 329545 3.63319e+06 0 331857 3.62915e+06 0 334174 3.62507e+06 0 336496 3.62096e+06 0 338824 3.61682e+06 0 341157 3.61264e+06 0 343495 3.60843e+06 0 345837 3.60419e+06 0 348184 3.59991e+06 0 350535 3.5956e+06 0 352889 3.59125e+06 0 355248 3.58687e+06 0 357610 3.58245e+06 0 359974 3.578e+06 0 362342 3.57352e+06 0 364713 3.569e+06 0 367085 3.56444e+06 0 369460 3.55985e+06 0 371837 3.55523e+06 0 374215 3.55057e+06 0 376594 3.54587e+06 0 378974 3.54114e+06 0 381355 3.53637e+06 0 383736 3.53157e+06 0 386118 3.52673e+06 0 388499 3.52186e+06 0 390879 3.51695e+06 0 393259 3.512e+06 0 395637 3.50702e+06 0 398014 3.502e+06 0 293032 3.62466e+06 0 295069 3.62063e+06 0 297110 3.61658e+06 0 299156 3.6125e+06 0 301207 3.60839e+06 0 303261 3.60424e+06 0 305320 3.60006e+06 0 307383 3.59585e+06 0 309449 3.59161e+06 0 311519 3.58733e+06 0 313592 3.58303e+06 0 315668 3.57869e+06 0 317747 3.57432e+06 0 319829 3.56991e+06 0 321913 3.56548e+06 0 324000 3.56101e+06 0 326088 3.5565e+06 0 328178 3.55197e+06 0 330270 3.5474e+06 0 332363 3.5428e+06 0 334457 3.53816e+06 0 336552 3.53349e+06 0 338648 3.52879e+06 0 340743 3.52406e+06 0 342839 3.51929e+06 0 344935 3.51449e+06 0 347031 3.50965e+06 0 349125 3.50479e+06 0 351219 3.49988e+06 0 353312 3.49495e+06 0 355403 3.48998e+06 0 357492 3.48498e+06 0 260885 3.6101e+06 0 262670 3.60605e+06 0 264459 3.60196e+06 0 266251 3.59785e+06 0 268047 3.5937e+06 0 269846 3.58953e+06 0 271648 3.58532e+06 0 273452 3.58109e+06 0 275260 3.57682e+06 0 277070 3.57252e+06 0 278883 3.5682e+06 0 280698 3.56384e+06 0 282515 3.55945e+06 0 284334 3.55503e+06 0 286155 3.55057e+06 0 287977 3.54609e+06 0 289801 3.54158e+06 0 291625 3.53703e+06 0 293451 3.53245e+06 0 295278 3.52785e+06 0 297104 3.52321e+06 0 298932 3.51854e+06 0 300759 3.51383e+06 0 302587 3.5091e+06 0 304414 3.50433e+06 0 306241 3.49954e+06 0 308067 3.49471e+06 0 309892 3.48985e+06 0 311716 3.48496e+06 0 313538 3.48003e+06 0 315360 3.47508e+06 0 317179 3.47009e+06 0 228558 3.59744e+06 0 230101 3.59336e+06 0 231646 3.58925e+06 0 233194 3.58511e+06 0 234745 3.58094e+06 0 236298 3.57674e+06 0 237854 3.57252e+06 0 239412 3.56826e+06 0 240971 3.56398e+06 0 242533 3.55966e+06 0 244097 3.55532e+06 0 245662 3.55095e+06 0 247229 3.54654e+06 0 248797 3.54211e+06 0 250366 3.53765e+06 0 251936 3.53316e+06 0 253507 3.52863e+06 0 255079 3.52408e+06 0 256651 3.5195e+06 0 258224 3.51489e+06 0 259797 3.51025e+06 0 261369 3.50558e+06 0 262942 3.50087e+06 0 264515 3.49614e+06 0 266087 3.49138e+06 0 267658 3.48659e+06 0 269228 3.48177e+06 0 270798 3.47692e+06 0 272366 3.47204e+06 0 273933 3.46713e+06 0 275498 3.46218e+06 0 277062 3.45721e+06 0 196096 3.58659e+06 0 197404 3.58249e+06 0 198714 3.57836e+06 0 200026 3.5742e+06 0 201341 3.57002e+06 0 202657 3.5658e+06 0 203975 3.56156e+06 0 205295 3.55729e+06 0 206616 3.55299e+06 0 207938 3.54867e+06 0 209262 3.54431e+06 0 210587 3.53993e+06 0 211913 3.53552e+06 0 213240 3.53108e+06 0 214568 3.52661e+06 0 215896 3.52211e+06 0 217225 3.51758e+06 0 218554 3.51303e+06 0 219883 3.50844e+06 0 221213 3.50383e+06 0 222542 3.49919e+06 0 223872 3.49452e+06 0 225201 3.48982e+06 0 226529 3.48509e+06 0 227858 3.48034e+06 0 229185 3.47555e+06 0 230511 3.47074e+06 0 231837 3.4659e+06 0 233161 3.46103e+06 0 234484 3.45613e+06 0 235805 3.4512e+06 0 237125 3.44624e+06 0 163533 3.5775e+06 0 164614 3.57338e+06 0 165696 3.56924e+06 0 166779 3.56507e+06 0 167864 3.56087e+06 0 168951 3.55665e+06 0 170038 3.55239e+06 0 171127 3.54811e+06 0 172217 3.5438e+06 0 173308 3.53947e+06 0 174400 3.5351e+06 0 175492 3.53071e+06 0 176586 3.5263e+06 0 177680 3.52185e+06 0 178774 3.51738e+06 0 179869 3.51287e+06 0 180964 3.50835e+06 0 182059 3.50379e+06 0 183154 3.4992e+06 0 184250 3.49459e+06 0 185345 3.48995e+06 0 186440 3.48529e+06 0 187534 3.48059e+06 0 188628 3.47587e+06 0 189722 3.47112e+06 0 190814 3.46634e+06 0 191906 3.46153e+06 0 192997 3.4567e+06 0 194087 3.45184e+06 0 195175 3.44695e+06 0 196262 3.44203e+06 0 197348 3.43709e+06 0 130898 3.57012e+06 0 131756 3.56599e+06 0 132616 3.56184e+06 0 133476 3.55766e+06 0 134337 3.55345e+06 0 135200 3.54922e+06 0 136063 3.54496e+06 0 136927 3.54067e+06 0 137792 3.53635e+06 0 138657 3.53201e+06 0 139524 3.52764e+06 0 140390 3.52325e+06 0 141257 3.51882e+06 0 142125 3.51437e+06 0 142993 3.5099e+06 0 143861 3.5054e+06 0 144729 3.50086e+06 0 145597 3.49631e+06 0 146465 3.49172e+06 0 147334 3.48711e+06 0 148201 3.48248e+06 0 149069 3.47781e+06 0 149936 3.47312e+06 0 150803 3.4684e+06 0 151669 3.46365e+06 0 152535 3.45888e+06 0 153399 3.45408e+06 0 154263 3.44926e+06 0 155126 3.44441e+06 0 155988 3.43953e+06 0 156849 3.43462e+06 0 157709 3.42969e+06 0 98212.6 3.56442e+06 0 98852.4 3.56028e+06 0 99493.1 3.55612e+06 0 100135 3.55193e+06 0 100777 3.54772e+06 0 101420 3.54348e+06 0 102063 3.53921e+06 0 102707 3.53492e+06 0 103352 3.5306e+06 0 103997 3.52625e+06 0 104642 3.52188e+06 0 105288 3.51748e+06 0 105934 3.51305e+06 0 106580 3.5086e+06 0 107227 3.50412e+06 0 107873 3.49962e+06 0 108520 3.49509e+06 0 109167 3.49053e+06 0 109813 3.48595e+06 0 110459 3.48134e+06 0 111106 3.4767e+06 0 111751 3.47204e+06 0 112397 3.46735e+06 0 113042 3.46264e+06 0 113687 3.4579e+06 0 114331 3.45313e+06 0 114975 3.44834e+06 0 115618 3.44352e+06 0 116260 3.43867e+06 0 116901 3.4338e+06 0 117542 3.42891e+06 0 118181 3.42398e+06 0 65492.4 3.56036e+06 0 65917.2 3.55622e+06 0 66342.6 3.55205e+06 0 66768.5 3.54785e+06 0 67194.8 3.54364e+06 0 67621.6 3.53939e+06 0 68048.7 3.53512e+06 0 68476.2 3.53082e+06 0 68904 3.5265e+06 0 69332 3.52215e+06 0 69760.3 3.51778e+06 0 70188.8 3.51338e+06 0 70617.5 3.50895e+06 0 71046.3 3.5045e+06 0 71475.2 3.50002e+06 0 71904.1 3.49551e+06 0 72333 3.49098e+06 0 72761.9 3.48643e+06 0 73190.7 3.48185e+06 0 73619.4 3.47724e+06 0 74047.9 3.4726e+06 0 74476.3 3.46794e+06 0 74904.3 3.46326e+06 0 75332.2 3.45855e+06 0 75759.6 3.45381e+06 0 76186.7 3.44905e+06 0 76613.4 3.44426e+06 0 77039.7 3.43944e+06 0 77465.4 3.4346e+06 0 77890.6 3.42974e+06 0 78315.2 3.42484e+06 0 78739.1 3.41993e+06 0 32751.2 3.55792e+06 0 32963.1 3.55377e+06 0 33175.3 3.5496e+06 0 33387.7 3.54541e+06 0 33600.3 3.54119e+06 0 33813.1 3.53694e+06 0 34026.1 3.53267e+06 0 34239.3 3.52837e+06 0 34452.6 3.52404e+06 0 34666.1 3.51969e+06 0 34879.6 3.51532e+06 0 35093.3 3.51092e+06 0 35307 3.50649e+06 0 35520.8 3.50203e+06 0 35734.6 3.49756e+06 0 35948.4 3.49305e+06 0 36162.2 3.48852e+06 0 36376 3.48397e+06 0 36589.7 3.47938e+06 0 36803.4 3.47478e+06 0 37017 3.47014e+06 0 37230.5 3.46548e+06 0 37443.9 3.4608e+06 0 37657 3.45609e+06 0 37870.1 3.45136e+06 0 38082.9 3.44659e+06 0 38295.5 3.44181e+06 0 38507.9 3.437e+06 0 38719.9 3.43216e+06 0 38931.7 3.4273e+06 0 39143.2 3.42241e+06 0 39354.4 3.4175e+06 0 0 3.55709e+06 0 0 3.55295e+06 0 0 3.54877e+06 0 0 3.54458e+06 0 0 3.54036e+06 0 0 3.53611e+06 0 0 3.53183e+06 0 0 3.52753e+06 0 0 3.52321e+06 0 0 3.51886e+06 0 0 3.51448e+06 0 0 3.51008e+06 0 0 3.50565e+06 0 0 3.5012e+06 0 0 3.49672e+06 0 0 3.49222e+06 0 0 3.48769e+06 0 0 3.48313e+06 0 0 3.47855e+06 0 0 3.47394e+06 0 0 3.46931e+06 0 0 3.46465e+06 0 0 3.45997e+06 0 0 3.45526e+06 0 0 3.45052e+06 0 0 3.44576e+06 0 0 3.44098e+06 0 0 3.43617e+06 0 0 3.43133e+06 0 0 3.42647e+06 0 0 3.42159e+06 0 0 3.41668e+06 0 </DataArray> 
</PointData> 
<Points> 
<DataArray type="Float32" NumberOfComponents="3"> 