<?xml version="1.0"?> 
<VTKFile type="StructuredGrid" version="0.1"> 
<StructuredGrid WholeExtent="0 31 0 31 0 0"> 
<Piece Extent="0 31 0 31 0 0"> 
<PointData>
<DataArray type="Float32" Name="|E|" format="ascii" NumberOfComponents="3"> 
-776472 0 0 -801119 84283.8 0 -826901 168025 0 -853926 251320 0 -882295 334267 0 -912108 416961 0 -943461 499497 0 -976448 581966 0 -1.01116e+06 664453 0 -1.04768e+06 747035 0 -1.08608e+06 829778 0 -1.12646e+06 912729 0 -1.16889e+06 995912 0 -1.21345e+06 1.07932e+06 0 -1.26024e+06 1.16289e+06 0 -1.30939e+06 1.24652e+06 0 -1.36105e+06 1.33e+06 0 -1.41545e+06 1.41305e+06 0 -1.47296e+06 1.49522e+06 0 -1.53408e+06 1.57592e+06 0 -1.59962e+06 1.65432e+06 0 -1.67075e+06 1.72937e+06 0 -1.74922e+06 1.79969e+06 0 -1.83752e+06 1.86353e+06 0 -1.93921e+06 1.91864e+06 0 -2.05922e+06 1.96202e+06 0 -2.20432e+06 1.98928e+06 0 -2.38353e+06 1.99307e+06 0 -2.60925e+06 1.9593e+06 0 -2.89668e+06 1.85673e+06 0 -3.2706e+06 1.60995e+06 0 -3.75194e+06 1.01227e+06 0 -752322 0 0 -777446 84603.1 0 -803670 168672 0 -831104 252304 0 -859851 335592 0 -890013 418633 0 -921690 501518 0 -954976 584338 0 -989964 667177 0 -1.02674e+06 750111 0 -1.0654e+06 833203 0 -1.10602e+06 916503 0 -1.1487e+06 1.00003e+06 0 -1.19351e+06 1.08379e+06 0 -1.24057e+06 1.16772e+06 0 -1.29001e+06 1.25173e+06 0 -1.34201e+06 1.33562e+06 0 -1.39681e+06 1.41912e+06 0 -1.45477e+06 1.50183e+06 0 -1.51644e+06 1.58318e+06 0 -1.58263e+06 1.66241e+06 0 -1.65453e+06 1.73854e+06 0 -1.73389e+06 1.81029e+06 0 -1.82323e+06 1.87605e+06 0 -1.92612e+06 1.93375e+06 0 -2.04755e+06 1.98059e+06 0 -2.19443e+06 2.01249e+06 0 -2.37622e+06 2.02258e+06 0 -2.60639e+06 1.99756e+06 0 -2.9031e+06 1.90759e+06 0 -3.29818e+06 1.68102e+06 0 -3.83641e+06 1.11827e+06 0 -728084 0 0 -753685 84912.4 0 -780351 169301 0 -808195 253259 0 -837321 336882 0 -867833 420262 0 -899833 503491 0 -933420 586657 0 -968688 669843 0 -1.00573e+06 753124 0 -1.04464e+06 836565 0 -1.08551e+06 920212 0 -1.12842e+06 1.00409e+06 0 -1.17349e+06 1.0882e+06 0 -1.22081e+06 1.1725e+06 0 -1.27054e+06 1.25688e+06 0 -1.32287e+06 1.34119e+06 0 -1.37804e+06 1.42515e+06 0 -1.43644e+06 1.5084e+06 0 -1.49863e+06 1.59041e+06 0 -1.56543e+06 1.67049e+06 0 -1.63804e+06 1.7477e+06 0 -1.71822e+06 1.82089e+06 0 -1.8085e+06 1.88857e+06 0 -1.91246e+06 1.94883e+06 0 -2.03513e+06 1.99912e+06 0 -2.18357e+06 2.0357e+06 0 -2.3676e+06 2.05217e+06 0 -2.60165e+06 2.03617e+06 0 -2.90663e+06 1.95964e+06 0 -3.32057e+06 1.75544e+06 0 -3.91055e+06 1.23452e+06 0 -703761 0 0 -729839 85211.7 0 -756947 169910 0 -785201 254187 0 -814706 338136 0 -845569 421848 0 -877894 505415 0 -911782 588922 0 -947332 672451 0 -984640 756076 0 -1.0238e+06 839862 0 -1.06491e+06 923856 0 -1.10807e+06 1.00809e+06 0 -1.15338e+06 1.09255e+06 0 -1.20097e+06 1.17722e+06 0 -1.25098e+06 1.26199e+06 0 -1.30362e+06 1.34671e+06 0 -1.35915e+06 1.43114e+06 0 -1.41798e+06 1.51494e+06 0 -1.48065e+06 1.59762e+06 0 -1.54802e+06 1.67854e+06 0 -1.62128e+06 1.75684e+06 0 -1.70221e+06 1.83146e+06 0 -1.79334e+06 1.90104e+06 0 -1.89824e+06 1.96386e+06 0 -2.02199e+06 2.01759e+06 0 -2.17175e+06 2.05883e+06 0 -2.35767e+06 2.08175e+06 0 -2.59502e+06 2.07497e+06 0 -2.90718e+06 2.01256e+06 0 -3.33751e+06 1.83256e+06 0 -3.9734e+06 1.35919e+06 0 -679356 0 0 -705910 85501.1 0 -733461 170499 0 -762124 255087 0 -792009 339354 0 -823224 423392 0 -855874 507290 0 -890064 591132 0 -925896 675000 0 -963469 758966 0 -1.00288e+06 843095 0 -1.04424e+06 927435 0 -1.08764e+06 1.01201e+06 0 -1.1332e+06 1.09684e+06 0 -1.18104e+06 1.18187e+06 0 -1.23133e+06 1.26703e+06 0 -1.28427e+06 1.35217e+06 0 -1.34015e+06 1.43709e+06 0 -1.39937e+06 1.52144e+06 0 -1.4625e+06 1.60479e+06 0 -1.5304e+06 1.68655e+06 0 -1.60426e+06 1.76594e+06 0 -1.68587e+06 1.84199e+06 0 -1.77774e+06 1.91347e+06 0 -1.88347e+06 1.97882e+06 0 -2.00813e+06 2.03596e+06 0 -2.15897e+06 2.08185e+06 0 -2.34645e+06 2.11123e+06 0 -2.58648e+06 2.11384e+06 0 -2.90468e+06 2.06606e+06 0 -3.34884e+06 1.91172e+06 0 -4.02427e+06 1.49059e+06 0 -654871 0 0 -681901 85780.6 0 -709894 171070 0 -738968 255959 0 -769233 340537 0 -800799 424894 0 -833776 509116 0 -868269 593288 0 -904383 677490 0 -942221 761794 0 -981888 846263 0 -1.02349e+06 930947 0 -1.06713e+06 1.01588e+06 0 -1.11293e+06 1.10106e+06 0 -1.16102e+06 1.18646e+06 0 -1.21158e+06 1.27201e+06 0 -1.26482e+06 1.35758e+06 0 -1.32103e+06 1.44297e+06 0 -1.38063e+06 1.52789e+06 0 -1.44419e+06 1.61192e+06 0 -1.51257e+06 1.69452e+06 0 -1.58699e+06 1.775e+06 0 -1.6692e+06 1.85247e+06 0 -1.76173e+06 1.92582e+06 0 -1.86816e+06 1.99368e+06 0 -1.99357e+06 2.0542e+06 0 -2.14527e+06 2.1047e+06 0 -2.33394e+06 2.14055e+06 0 -2.57606e+06 2.15262e+06 0 -2.8991e+06 2.11986e+06 0 -3.35448e+06 1.99225e+06 0 -4.06272e+06 1.62695e+06 0 -630310 0 0 -657815 86050.1 0 -686250 171622 0 -715734 256804 0 -746379 341685 0 -778298 426353 0 -811600 510894 0 -846396 595391 0 -882793 679922 0 -920898 764559 0 -960817 849366 0 -1.00266e+06 934392 0 -1.04654e+06 1.01967e+06 0 -1.09258e+06 1.10521e+06 0 -1.14092e+06 1.19098e+06 0 -1.19175e+06 1.27693e+06 0 -1.24527e+06 1.36293e+06 0 -1.3018e+06 1.4488e+06 0 -1.36175e+06 1.53428e+06 0 -1.42571e+06 1.61899e+06 0 -1.49454e+06 1.70244e+06 0 -1.56946e+06 1.784e+06 0 -1.65221e+06 1.86287e+06 0 -1.74532e+06 1.93808e+06 0 -1.85233e+06 2.00841e+06 0 -1.97833e+06 2.07227e+06 0 -2.13067e+06 2.12734e+06 0 -2.32017e+06 2.16961e+06 0 -2.56377e+06 2.19119e+06 0 -2.89046e+06 2.17366e+06 0 -3.35442e+06 2.07349e+06 0 -4.08858e+06 1.76651e+06 0 -605676 0 0 -633655 86309.8 0 -662532 172154 0 -692425 257621 0 -723450 342797 0 -755721 427769 0 -789350 512623 0 -824450 597438 0 -861130 682294 0 -899500 767262 0 -939671 852404 0 -981756 937770 0 -1.02587e+06 1.0234e+06 0 -1.07215e+06 1.10929e+06 0 -1.12074e+06 1.19544e+06 0 -1.17182e+06 1.28178e+06 0 -1.22562e+06 1.36821e+06 0 -1.28245e+06 1.45457e+06 0 -1.34273e+06 1.54062e+06 0 -1.40707e+06 1.626e+06 0 -1.47631e+06 1.71029e+06 0 -1.55168e+06 1.79292e+06 0 -1.63491e+06 1.87319e+06 0 -1.7285e+06 1.95023e+06 0 -1.83599e+06 2.023e+06 0 -1.96243e+06 2.09014e+06 0 -2.11518e+06 2.14972e+06 0 -2.30517e+06 2.19836e+06 0 -2.54966e+06 2.22941e+06 0 -2.87881e+06 2.22719e+06 0 -3.34876e+06 2.15481e+06 0 -4.10193e+06 1.90753e+06 0 -580970 0 0 -609424 86559.5 0 -638741 172667 0 -669044 258410 0 -700449 343874 0 -733072 429143 0 -767027 514303 0 -802430 599432 0 -839393 684608 0 -878030 769902 0 -918453 855376 0 -960779 941080 0 -1.00513e+06 1.02705e+06 0 -1.05165e+06 1.1133e+06 0 -1.10047e+06 1.19982e+06 0 -1.1518e+06 1.28656e+06 0 -1.20587e+06 1.37343e+06 0 -1.26299e+06 1.46028e+06 0 -1.32359e+06 1.54688e+06 0 -1.38827e+06 1.63295e+06 0 -1.45789e+06 1.71808e+06 0 -1.53366e+06 1.80177e+06 0 -1.61731e+06 1.8834e+06 0 -1.71131e+06 1.96225e+06 0 -1.81916e+06 2.03742e+06 0 -1.9459e+06 2.10779e+06 0 -2.09883e+06 2.1718e+06 0 -2.28899e+06 2.22673e+06 0 -2.53378e+06 2.26715e+06 0 -2.86422e+06 2.28018e+06 0 -3.33763e+06 2.23561e+06 0 -4.10306e+06 2.04838e+06 0 -556197 0 0 -585124 86799.4 0 -614881 173162 0 -645593 259172 0 -677377 344915 0 -710351 430475 0 -744634 515934 0 -780340 601371 0 -817586 686863 0 -856488 772478 0 -897162 858281 0 -939729 944322 0 -984316 1.03064e+06 0 -1.03106e+06 1.11725e+06 0 -1.08013e+06 1.20414e+06 0 -1.1317e+06 1.29128e+06 0 -1.18602e+06 1.37858e+06 0 -1.24342e+06 1.46591e+06 0 -1.30431e+06 1.55308e+06 0 -1.36932e+06 1.63982e+06 0 -1.43928e+06 1.72578e+06 0 -1.51541e+06 1.81052e+06 0 -1.59942e+06 1.89351e+06 0 -1.69374e+06 1.97413e+06 0 -1.80186e+06 2.05165e+06 0 -1.92874e+06 2.12519e+06 0 -2.08167e+06 2.19354e+06 0 -2.27166e+06 2.25464e+06 0 -2.51618e+06 2.30429e+06 0 -2.84678e+06 2.33241e+06 0 -3.32126e+06 2.31534e+06 0 -4.09249e+06 2.18755e+06 0 -531359 0 0 -560758 87029.3 0 -590954 173637 0 -622074 259906 0 -654237 345921 0 -687563 431764 0 -722171 517516 0 -758181 603255 0 -795709 689058 0 -834876 774992 0 -875801 861120 0 -918608 947494 0 -963428 1.03415e+06 0 -1.0104e+06 1.12112e+06 0 -1.0597e+06 1.20838e+06 0 -1.11151e+06 1.29592e+06 0 -1.16608e+06 1.38365e+06 0 -1.22373e+06 1.47147e+06 0 -1.28491e+06 1.55921e+06 0 -1.35021e+06 1.64662e+06 0 -1.42049e+06 1.7334e+06 0 -1.49693e+06 1.81918e+06 0 -1.58124e+06 1.9035e+06 0 -1.67582e+06 1.98585e+06 0 -1.7841e+06 2.06567e+06 0 -1.91099e+06 2.1423e+06 0 -2.06371e+06 2.2149e+06 0 -2.25322e+06 2.28203e+06 0 -2.49693e+06 2.34073e+06 0 -2.82663e+06 2.38363e+06 0 -3.29991e+06 2.39348e+06 0 -4.07089e+06 2.32366e+06 0 -506460 0 0 -536329 87249.3 0 -566963 174092 0 -598490 260612 0 -631031 346891 0 -664708 433010 0 -699642 519049 0 -735954 605085 0 -773765 691193 0 -813197 777441 0 -854372 863891 0 -897417 950596 0 -942467 1.0376e+06 0 -989668 1.12491e+06 0 -1.03919e+06 1.21255e+06 0 -1.09123e+06 1.30048e+06 0 -1.14604e+06 1.38865e+06 0 -1.20394e+06 1.47696e+06 0 -1.26538e+06 1.56525e+06 0 -1.33096e+06 1.65333e+06 0 -1.40152e+06 1.74093e+06 0 -1.47824e+06 1.82772e+06 0 -1.56279e+06 1.91335e+06 0 -1.65756e+06 1.99741e+06 0 -1.7659e+06 2.07947e+06 0 -1.89268e+06 2.15912e+06 0 -2.045e+06 2.23585e+06 0 -2.23373e+06 2.30886e+06 0 -2.47613e+06 2.37637e+06 0 -2.8039e+06 2.43364e+06 0 -3.27388e+06 2.46959e+06 0 -4.03905e+06 2.45552e+06 0 -481501 0 0 -511840 87459.4 0 -542911 174529 0 -574844 261291 0 -607762 347826 0 -641789 434213 0 -677048 520533 0 -713662 606860 0 -751755 693269 0 -791451 779827 0 -832875 866595 0 -876157 953629 0 -921435 1.04097e+06 0 -968860 1.12864e+06 0 -1.0186e+06 1.21665e+06 0 -1.07087e+06 1.30498e+06 0 -1.12591e+06 1.39358e+06 0 -1.18405e+06 1.48237e+06 0 -1.24574e+06 1.57122e+06 0 -1.31157e+06 1.65995e+06 0 -1.38237e+06 1.74835e+06 0 -1.45933e+06 1.83616e+06 0 -1.54408e+06 1.92306e+06 0 -1.63896e+06 2.00878e+06 0 -1.74728e+06 2.09303e+06 0 -1.87382e+06 2.17561e+06 0 -2.02556e+06 2.25636e+06 0 -2.21324e+06 2.33507e+06 0 -2.45385e+06 2.41111e+06 0 -2.77876e+06 2.48228e+06 0 -3.24351e+06 2.54328e+06 0 -3.9979e+06 2.58213e+06 0 -456487 0 0 -487293 87659.6 0 -518800 174947 0 -551138 261942 0 -584432 348725 0 -618808 435374 0 -654391 521968 0 -691307 608580 0 -729681 695285 0 -769640 782148 0 -811312 869232 0 -854830 956590 0 -900335 1.04427e+06 0 -947980 1.13229e+06 0 -997941 1.22066e+06 0 -1.05042e+06 1.30939e+06 0 -1.10569e+06 1.39842e+06 0 -1.16405e+06 1.48769e+06 0 -1.22597e+06 1.57709e+06 0 -1.29203e+06 1.66648e+06 0 -1.36306e+06 1.75567e+06 0 -1.44022e+06 1.84446e+06 0 -1.52512e+06 1.93262e+06 0 -1.62005e+06 2.01996e+06 0 -1.72827e+06 2.10634e+06 0 -1.85445e+06 2.19176e+06 0 -2.00545e+06 2.2764e+06 0 -2.19181e+06 2.36062e+06 0 -2.43019e+06 2.44488e+06 0 -2.75137e+06 2.52938e+06 0 -3.20918e+06 2.61421e+06 0 -3.9484e+06 2.70267e+06 0 -431419 0 0 -462692 87849.9 0 -494632 175345 0 -527374 262565 0 -561043 349589 0 -595767 436492 0 -631674 523353 0 -668891 610246 0 -707545 697240 0 -747766 784404 0 -789685 871800 0 -833437 959480 0 -879166 1.04749e+06 0 -927029 1.13586e+06 0 -977204 1.2246e+06 0 -1.0299e+06 1.31372e+06 0 -1.08537e+06 1.40318e+06 0 -1.14396e+06 1.49293e+06 0 -1.20609e+06 1.58288e+06 0 -1.27236e+06 1.67291e+06 0 -1.34359e+06 1.76289e+06 0 -1.42091e+06 1.85264e+06 0 -1.50591e+06 1.94202e+06 0 -1.60084e+06 2.03094e+06 0 -1.70887e+06 2.11938e+06 0 -1.83459e+06 2.20755e+06 0 -1.9847e+06 2.29594e+06 0 -2.1695e+06 2.38546e+06 0 -2.40524e+06 2.47761e+06 0 -2.72191e+06 2.57481e+06 0 -3.17126e+06 2.68212e+06 0 -3.89156e+06 2.8165e+06 0 -406301 0 0 -438038 88030.2 0 -470411 175725 0 -503555 263161 0 -537597 350417 0 -572669 437568 0 -608898 524690 0 -646415 611856 0 -685348 699136 0 -725831 786596 0 -767995 874299 0 -811980 962298 0 -857931 1.05064e+06 0 -906009 1.13935e+06 0 -956394 1.22847e+06 0 -1.0093e+06 1.31797e+06 0 -1.06498e+06 1.40786e+06 0 -1.12377e+06 1.49808e+06 0 -1.1861e+06 1.58857e+06 0 -1.25256e+06 1.67924e+06 0 -1.32396e+06 1.76998e+06 0 -1.40141e+06 1.86068e+06 0 -1.48647e+06 1.95126e+06 0 -1.58134e+06 2.0417e+06 0 -1.68912e+06 2.13214e+06 0 -1.81427e+06 2.22296e+06 0 -1.96334e+06 2.31496e+06 0 -2.14636e+06 2.40957e+06 0 -2.37909e+06 2.50925e+06 0 -2.69056e+06 2.61847e+06 0 -3.13013e+06 2.74679e+06 0 -3.8284e+06 2.92318e+06 0 -381136 0 0 -413335 88200.6 0 -446139 176085 0 -479683 263729 0 -514098 351209 0 -549515 438600 0 -586066 525977 0 -623881 613410 0 -663093 700971 0 -703836 788723 0 -746244 876730 0 -790460 965044 0 -836632 1.05371e+06 0 -884922 1.14277e+06 0 -935512 1.23225e+06 0 -988616 1.32214e+06 0 -1.04449e+06 1.41245e+06 0 -1.10348e+06 1.50314e+06 0 -1.166e+06 1.59417e+06 0 -1.23263e+06 1.68546e+06 0 -1.30418e+06 1.77695e+06 0 -1.38173e+06 1.86858e+06 0 -1.46682e+06 1.96032e+06 0 -1.56157e+06 2.05224e+06 0 -1.66902e+06 2.14461e+06 0 -1.79352e+06 2.23799e+06 0 -1.94142e+06 2.33345e+06 0 -2.12245e+06 2.43291e+06 0 -2.35186e+06 2.53974e+06 0 -2.65752e+06 2.66027e+06 0 -3.08618e+06 2.80808e+06 0 -3.75992e+06 3.02242e+06 0 -355927 0 0 -388586 88361 0 -421818 176426 0 -455761 264269 0 -490547 351966 0 -526309 439590 0 -563179 527214 0 -601292 614910 0 -640781 702745 0 -681782 790785 0 -724434 879091 0 -768879 967717 0 -815269 1.05671e+06 0 -863768 1.14611e+06 0 -914560 1.23595e+06 0 -967860 1.32623e+06 0 -1.02393e+06 1.41695e+06 0 -1.0831e+06 1.50811e+06 0 -1.14579e+06 1.59967e+06 0 -1.21259e+06 1.69158e+06 0 -1.28426e+06 1.78381e+06 0 -1.36188e+06 1.87633e+06 0 -1.44695e+06 1.9692e+06 0 -1.54154e+06 2.06256e+06 0 -1.64861e+06 2.15678e+06 0 -1.77237e+06 2.25261e+06 0 -1.91897e+06 2.35139e+06 0 -2.09785e+06 2.45547e+06 0 -2.32363e+06 2.56904e+06 0 -2.62296e+06 2.70015e+06 0 -3.0398e+06 2.86586e+06 0 -3.68707e+06 3.11408e+06 0 -330676 0 0 -363794 88511.5 0 -397452 176747 0 -431792 264781 0 -466947 352687 0 -503051 440537 0 -540240 528402 0 -578649 616354 0 -618414 704459 0 -659673 792781 0 -702566 881383 0 -747239 970317 0 -793845 1.05963e+06 0 -842550 1.14937e+06 0 -893540 1.23956e+06 0 -947031 1.33023e+06 0 -1.00328e+06 1.42137e+06 0 -1.06263e+06 1.51299e+06 0 -1.12549e+06 1.60506e+06 0 -1.19242e+06 1.69758e+06 0 -1.2642e+06 1.79053e+06 0 -1.34187e+06 1.88393e+06 0 -1.42688e+06 1.97789e+06 0 -1.52127e+06 2.07264e+06 0 -1.62789e+06 2.16865e+06 0 -1.75084e+06 2.26683e+06 0 -1.89605e+06 2.36876e+06 0 -2.0726e+06 2.47722e+06 0 -2.29451e+06 2.59714e+06 0 -2.58708e+06 2.73807e+06 0 -2.99135e+06 2.9201e+06 0 -3.61077e+06 3.19815e+06 0 -305387 0 0 -338960 88652.1 0 -373043 177050 0 -407777 265266 0 -443299 353372 0 -479745 441440 0 -517251 529541 0 -555955 617742 0 -595995 706111 0 -637509 794712 0 -680642 883604 0 -725541 972844 0 -772360 1.06248e+06 0 -821268 1.15255e+06 0 -872453 1.2431e+06 0 -926131 1.33414e+06 0 -982562 1.42569e+06 0 -1.04207e+06 1.51776e+06 0 -1.10508e+06 1.61035e+06 0 -1.17214e+06 1.70346e+06 0 -1.24401e+06 1.79712e+06 0 -1.3217e+06 1.89138e+06 0 -1.40663e+06 1.98639e+06 0 -1.50077e+06 2.08248e+06 0 -1.6069e+06 2.18021e+06 0 -1.72895e+06 2.28063e+06 0 -1.87268e+06 2.38556e+06 0 -2.04677e+06 2.49816e+06 0 -2.2646e+06 2.62402e+06 0 -2.55004e+06 2.774e+06 0 -2.94118e+06 2.97077e+06 0 -3.53185e+06 3.27474e+06 0 -280063 0 0 -314088 88782.6 0 -348593 177333 0 -383721 265722 0 -419608 354022 0 -456393 442301 0 -494214 530630 0 -533211 619075 0 -573524 707703 0 -615293 796577 0 -658664 885756 0 -703787 975296 0 -750817 1.06525e+06 0 -799926 1.15565e+06 0 -851302 1.24655e+06 0 -905161 1.33797e+06 0 -961765 1.42993e+06 0 -1.02143e+06 1.52245e+06 0 -1.08458e+06 1.61554e+06 0 -1.15176e+06 1.70923e+06 0 -1.22369e+06 1.80357e+06 0 -1.30138e+06 1.89866e+06 0 -1.3862e+06 1.9947e+06 0 -1.48006e+06 2.09207e+06 0 -1.58564e+06 2.19145e+06 0 -1.70675e+06 2.29401e+06 0 -1.8489e+06 2.40179e+06 0 -2.02042e+06 2.51827e+06 0 -2.23399e+06 2.64965e+06 0 -2.51202e+06 2.80793e+06 0 -2.88963e+06 3.01789e+06 0 -3.45108e+06 3.34403e+06 0 -254706 0 0 -289182 88903.2 0 -324105 177597 0 -359624 266151 0 -395874 354635 0 -432996 443119 0 -471132 531669 0 -510420 620352 0 -551004 709233 0 -593026 798376 0 -636634 887837 0 -681978 977674 0 -729218 1.06794e+06 0 -778525 1.15867e+06 0 -830088 1.24991e+06 0 -884125 1.3417e+06 0 -940894 1.43407e+06 0 -1.00072e+06 1.52703e+06 0 -1.064e+06 1.62062e+06 0 -1.13127e+06 1.71488e+06 0 -1.20326e+06 1.80989e+06 0 -1.28092e+06 1.90579e+06 0 -1.36561e+06 2.00282e+06 0 -1.45915e+06 2.10142e+06 0 -1.56415e+06 2.20237e+06 0 -1.68426e+06 2.30696e+06 0 -1.82476e+06 2.41742e+06 0 -1.9936e+06 2.53755e+06 0 -2.20277e+06 2.67405e+06 0 -2.47318e+06 2.83989e+06 0 -2.83701e+06 3.06153e+06 0 -3.36916e+06 3.40631e+06 0 -229320 0 0 -264242 89013.9 0 -299583 177842 0 -335489 266552 0 -372100 355213 0 -409558 443893 0 -448005 532658 0 -487583 621573 0 -528436 710703 0 -570710 800108 0 -614552 889848 0 -660117 979978 0 -707564 1.07055e+06 0 -757066 1.16161e+06 0 -808813 1.2532e+06 0 -863023 1.34535e+06 0 -919953 1.43811e+06 0 -979919 1.53151e+06 0 -1.04332e+06 1.62559e+06 0 -1.11069e+06 1.72041e+06 0 -1.18271e+06 1.81608e+06 0 -1.26033e+06 1.91275e+06 0 -1.34485e+06 2.01073e+06 0 -1.43806e+06 2.11052e+06 0 -1.54243e+06 2.21297e+06 0 -1.66149e+06 2.31949e+06 0 -1.80029e+06 2.43248e+06 0 -1.96638e+06 2.556e+06 0 -2.17104e+06 2.69722e+06 0 -2.43367e+06 2.86988e+06 0 -2.7836e+06 3.10177e+06 0 -3.2867e+06 3.46188e+06 0 -203906 0 0 -239273 89114.5 0 -275028 178067 0 -311319 266925 0 -348289 355755 0 -386080 444624 0 -424837 533597 0 -464703 622738 0 -505823 712110 0 -548346 801774 0 -592422 891788 0 -638205 982206 0 -685856 1.07308e+06 0 -735551 1.16446e+06 0 -787480 1.25639e+06 0 -841859 1.34891e+06 0 -898944 1.44206e+06 0 -959048 1.53589e+06 0 -1.02257e+06 1.63045e+06 0 -1.09001e+06 1.72582e+06 0 -1.16205e+06 1.82212e+06 0 -1.23962e+06 1.91955e+06 0 -1.32396e+06 2.01845e+06 0 -1.41679e+06 2.11937e+06 0 -1.5205e+06 2.22324e+06 0 -1.63848e+06 2.33158e+06 0 -1.77552e+06 2.44695e+06 0 -1.93879e+06 2.57363e+06 0 -2.13887e+06 2.71916e+06 0 -2.39364e+06 2.89794e+06 0 -2.72967e+06 3.13871e+06 0 -3.20425e+06 3.51112e+06 0 -178470 0 0 -214278 89205.2 0 -250443 178273 0 -287117 267270 0 -324443 356262 0 -362565 445312 0 -401629 534486 0 -441781 623847 0 -483167 713456 0 -525938 803373 0 -570244 893656 0 -616243 984359 0 -664098 1.07554e+06 0 -713983 1.16723e+06 0 -766089 1.2595e+06 0 -820634 1.35238e+06 0 -877870 1.44592e+06 0 -938106 1.54017e+06 0 -1.00173e+06 1.6352e+06 0 -1.06924e+06 1.7311e+06 0 -1.1413e+06 1.82801e+06 0 -1.21879e+06 1.92618e+06 0 -1.30293e+06 2.02596e+06 0 -1.39536e+06 2.12796e+06 0 -1.4984e+06 2.23319e+06 0 -1.61525e+06 2.34325e+06 0 -1.75049e+06 2.46083e+06 0 -1.9109e+06 2.59044e+06 0 -2.10634e+06 2.73991e+06 0 -2.35323e+06 2.92412e+06 0 -2.67545e+06 3.17248e+06 0 -3.12226e+06 3.55441e+06 0 -153012 0 0 -189258 89285.9 0 -225831 178460 0 -262885 267587 0 -300564 356732 0 -339015 445957 0 -378384 535326 0 -418819 624900 0 -460469 714740 0 -503486 804906 0 -548021 895453 0 -594234 986437 0 -642289 1.07791e+06 0 -692362 1.16992e+06 0 -744643 1.26252e+06 0 -799350 1.35575e+06 0 -856732 1.44967e+06 0 -917095 1.54434e+06 0 -980817 1.63983e+06 0 -1.04839e+06 1.73625e+06 0 -1.12044e+06 1.83377e+06 0 -1.19785e+06 1.93264e+06 0 -1.28177e+06 2.03327e+06 0 -1.37379e+06 2.13631e+06 0 -1.47612e+06 2.24281e+06 0 -1.59183e+06 2.35449e+06 0 -1.72524e+06 2.47414e+06 0 -1.88274e+06 2.60645e+06 0 -2.07355e+06 2.75947e+06 0 -2.31255e+06 2.94847e+06 0 -2.62115e+06 3.20321e+06 0 -3.04116e+06 3.59216e+06 0 -127537 0 0 -164217 89356.6 0 -201195 178628 0 -238626 267877 0 -276655 357166 0 -315432 446558 0 -355104 536115 0 -395820 625897 0 -437732 715963 0 -480992 806372 0 -525754 897179 0 -572179 988440 0 -620432 1.08021e+06 0 -670690 1.17253e+06 0 -723144 1.26545e+06 0 -778009 1.35904e+06 0 -835534 1.45333e+06 0 -896018 1.54841e+06 0 -959832 1.64435e+06 0 -1.02745e+06 1.74128e+06 0 -1.0995e+06 1.83938e+06 0 -1.17681e+06 1.93893e+06 0 -1.2605e+06 2.04037e+06 0 -1.35209e+06 2.14439e+06 0 -1.45369e+06 2.25212e+06 0 -1.56823e+06 2.36531e+06 0 -1.6998e+06 2.48688e+06 0 -1.85438e+06 2.62166e+06 0 -2.04054e+06 2.77789e+06 0 -2.27172e+06 2.97104e+06 0 -2.56696e+06 3.23106e+06 0 -2.96127e+06 3.62476e+06 0 -102046 0 0 -139157 89417.3 0 -176537 178776 0 -214342 268138 0 -252719 357564 0 -291818 447116 0 -331790 536854 0 -372786 626837 0 -414957 717123 0 -458458 807770 0 -503446 898833 0 -550081 990366 0 -598530 1.08242e+06 0 -648970 1.17505e+06 0 -701594 1.2683e+06 0 -756614 1.36223e+06 0 -814277 1.4569e+06 0 -874878 1.55237e+06 0 -938780 1.64876e+06 0 -1.00644e+06 1.74618e+06 0 -1.07848e+06 1.84485e+06 0 -1.15567e+06 1.94505e+06 0 -1.23912e+06 2.04727e+06 0 -1.33027e+06 2.15223e+06 0 -1.43112e+06 2.2611e+06 0 -1.54448e+06 2.37571e+06 0 -1.67419e+06 2.49906e+06 0 -1.82584e+06 2.63609e+06 0 -2.0074e+06 2.79518e+06 0 -2.23086e+06 2.9919e+06 0 -2.51302e+06 3.25618e+06 0 -2.88289e+06 3.65262e+06 0 -76544.5 0 0 -114082 89468 0 -151860 178905 0 -190035 268371 0 -228757 357927 0 -268177 447631 0 -308446 537543 0 -349718 627721 0 -392147 718222 0 -435887 809102 0 -481097 900416 0 -527940 992216 0 -576582 1.08456e+06 0 -627203 1.17748e+06 0 -679994 1.27106e+06 0 -735166 1.36533e+06 0 -792964 1.46036e+06 0 -853678 1.55623e+06 0 -917661 1.65305e+06 0 -985365 1.75096e+06 0 -1.05737e+06 1.85017e+06 0 -1.13445e+06 1.95101e+06 0 -1.21764e+06 2.05397e+06 0 -1.30833e+06 2.15982e+06 0 -1.40844e+06 2.26976e+06 0 -1.5206e+06 2.3857e+06 0 -1.64845e+06 2.51068e+06 0 -1.79718e+06 2.64976e+06 0 -1.97417e+06 2.8114e+06 0 -2.19005e+06 3.01111e+06 0 -2.45947e+06 3.27874e+06 0 -2.80627e+06 3.67611e+06 0 -51033.6 0 0 -88993.9 89508.6 0 -127166 179015 0 -165709 268576 0 -204772 358253 0 -244509 448102 0 -285074 538181 0 -326620 628548 0 -369303 719258 0 -413280 810366 0 -458710 901926 0 -505758 993990 0 -554592 1.08661e+06 0 -605391 1.17984e+06 0 -658346 1.27373e+06 0 -713668 1.36833e+06 0 -771598 1.46373e+06 0 -832420 1.55999e+06 0 -896481 1.65723e+06 0 -964218 1.75561e+06 0 -1.03619e+06 1.85535e+06 0 -1.11315e+06 1.95679e+06 0 -1.19607e+06 2.06046e+06 0 -1.2863e+06 2.16715e+06 0 -1.38565e+06 2.27811e+06 0 -1.49661e+06 2.39528e+06 0 -1.6226e+06 2.52177e+06 0 -1.76842e+06 2.66269e+06 0 -1.94092e+06 2.82656e+06 0 -2.14941e+06 3.02874e+06 0 -2.40639e+06 3.2989e+06 0 -2.73167e+06 3.69559e+06 0 -25516.9 0 0 -63895.7 89539.3 0 -102459 179105 0 -141365 268754 0 -180766 358543 0 -220818 448530 0 -261674 538770 0 -303492 629319 0 -346427 720232 0 -390638 811563 0 -436287 903364 0 -483538 995687 0 -532562 1.08858e+06 0 -583536 1.18211e+06 0 -636653 1.27631e+06 0 -692122 1.37125e+06 0 -750181 1.46699e+06 0 -811108 1.56364e+06 0 -875243 1.66129e+06 0 -943007 1.76013e+06 0 -1.01495e+06 1.86038e+06 0 -1.09177e+06 1.96241e+06 0 -1.17442e+06 2.06676e+06 0 -1.26419e+06 2.17424e+06 0 -1.36277e+06 2.28615e+06 0 -1.47253e+06 2.40446e+06 0 -1.59667e+06 2.53232e+06 0 -1.73961e+06 2.67489e+06 0 -1.90767e+06 2.84073e+06 0 -2.10902e+06 3.04485e+06 0 -2.35383e+06 3.31683e+06 0 -2.65933e+06 3.71134e+06 0 2.60159 0 0 -38790.2 89559.8 0 -77740.6 179176 0 -117006 268903 0 -156742 358797 0 -197105 448914 0 -238251 539308 0 -280336 630034 0 -323521 721144 0 -367964 812693 0 -413829 904730 0 -461281 997308 0 -510492 1.09048e+06 0 -561640 1.18429e+06 0 -614916 1.2788e+06 0 -670529 1.37407e+06 0 -728714 1.47016e+06 0 -789744 1.56718e+06 0 -853949 1.66524e+06 0 -921738 1.76452e+06 0 -993635 1.86527e+06 0 -1.07032e+06 1.96786e+06 0 -1.1527e+06 2.07285e+06 0 -1.24199e+06 2.18109e+06 0 -1.33981e+06 2.29388e+06 0 -1.44838e+06 2.41325e+06 0 -1.57069e+06 2.54236e+06 0 -1.71079e+06 2.68638e+06 0 -1.87445e+06 2.85394e+06 0 -2.06903e+06 3.0595e+06 0 -2.30177e+06 3.33273e+06 0 -2.58963e+06 3.72351e+06 0 </DataArray> 
</PointData> 
<Points> 
<DataArray type="Float32" NumberOfComponents="3"> 