<?xml version="1.0"?> 
<VTKFile type="StructuredGrid" version="0.1"> 
<StructuredGrid WholeExtent="0 31 0 31 0 0"> 
<Piece Extent="0 31 0 31 0 0"> 
<PointData>
<DataArray type="Float32" Name="|E|" format="ascii" NumberOfComponents="3"> 
1.32593e+06 4.76837e-07 0 1.41811e+06 0.059745 0 1.55285e+06 0.00506486 0 1.6528e+06 0.00186928 0 1.71097e+06 -0.00232931 0 1.72871e+06 -0.0026224 0 1.71298e+06 -0.00287959 0 1.67155e+06 -0.00253829 0 1.61198e+06 -0.00208202 0 1.54069e+06 -0.00159427 0 1.46281e+06 -0.00116646 0 1.38218e+06 -0.000819638 0 1.30156e+06 -0.00055705 0 1.22287e+06 -0.000363022 0 1.1474e+06 -0.000224411 0 1.07598e+06 -0.000127226 0 1.00909e+06 -5.96792e-05 0 946997 -1.46478e-05 0 889811 1.49757e-05 0 837533 3.34531e-05 0 790096 4.4167e-05 0 747391 4.93675e-05 0 709290 5.05149e-05 0 675652 4.90248e-05 0 646340 4.5374e-05 0 621221 4.05759e-05 0 600175 3.48762e-05 0 583096 2.83867e-05 0 569895 2.16812e-05 0 560501 1.45435e-05 0 554864 7.32578e-06 0 552950 0 0 1.32584e+06 -7.59959e-07 0 1.4181e+06 -3490.79 0 1.55286e+06 -3268.66 0 1.65282e+06 -2180.77 0 1.71098e+06 -1025.52 0 1.72872e+06 -4.80147 0 1.71299e+06 809.067 0 1.67156e+06 1407.9 0 1.61198e+06 1812.69 0 1.5407e+06 2058.28 0 1.46281e+06 2181.42 0 1.38218e+06 2214.75 0 1.30156e+06 2184.74 0 1.22287e+06 2111.64 0 1.1474e+06 2010.35 0 1.07598e+06 1891.6 0 1.00909e+06 1762.92 0 946995 1629.51 0 889810 1494.87 0 837531 1361.3 0 790094 1230.24 0 747389 1102.53 0 709288 978.559 0 675650 858.436 0 646338 742.045 0 621219 629.123 0 600173 519.303 0 583095 412.148 0 569894 307.171 0 560500 203.85 0 554862 101.645 0 552949 0 0 1.32557e+06 3.8743e-07 0 1.41807e+06 -6985.05 0 1.5529e+06 -6537.61 0 1.65287e+06 -4361.66 0 1.71103e+06 -2050.91 0 1.72876e+06 -9.45063 0 1.71302e+06 1618.3 0 1.67158e+06 2815.95 0 1.61199e+06 3625.51 0 1.5407e+06 4116.66 0 1.46282e+06 4362.91 0 1.38218e+06 4429.55 0 1.30156e+06 4369.52 0 1.22287e+06 4223.29 0 1.1474e+06 4020.72 0 1.07597e+06 3783.22 0 1.00908e+06 3525.85 0 946989 3259.02 0 889804 2989.73 0 837526 2722.59 0 790089 2460.48 0 747384 2205.05 0 709283 1957.11 0 675646 1716.87 0 646334 1484.09 0 621215 1258.24 0 600169 1038.6 0 583090 824.295 0 569889 614.34 0 560496 407.7 0 554858 203.289 0 552945 0 0 1.32513e+06 2.98023e-08 0 1.41803e+06 -10486.3 0 1.55297e+06 -9807.14 0 1.65295e+06 -6542.76 0 1.71111e+06 -3076.02 0 1.72882e+06 -13.7955 0 1.71306e+06 2427.87 0 1.67161e+06 4224.29 0 1.61202e+06 5438.56 0 1.54071e+06 6175.21 0 1.46282e+06 6544.54 0 1.38218e+06 6644.44 0 1.30155e+06 6554.36 0 1.22286e+06 6334.99 0 1.14739e+06 6031.11 0 1.07596e+06 5674.84 0 1.00907e+06 5288.79 0 946980 4888.53 0 889795 4484.6 0 837517 4083.89 0 790080 3690.71 0 747376 3307.57 0 709275 2935.66 0 675637 2575.3 0 646326 2226.12 0 621207 1887.36 0 600162 1557.9 0 583083 1236.44 0 569882 921.508 0 560489 611.547 0 554851 304.933 0 552938 0 0 1.32451e+06 5.06639e-07 0 1.41797e+06 -13997.8 0 1.55306e+06 -13077.5 0 1.65306e+06 -8724.18 0 1.71121e+06 -4100.74 0 1.72891e+06 -17.6883 0 1.71313e+06 3237.94 0 1.67166e+06 5633.08 0 1.61205e+06 7251.98 0 1.54073e+06 8234.05 0 1.46283e+06 8726.36 0 1.38218e+06 8859.48 0 1.30155e+06 8739.3 0 1.22285e+06 8446.76 0 1.14738e+06 8041.54 0 1.07595e+06 7566.49 0 1.00906e+06 7051.73 0 946967 6518.05 0 889782 5979.46 0 837504 5445.17 0 790067 4920.94 0 747364 4410.08 0 709263 3914.21 0 675626 3433.72 0 646315 2968.15 0 621197 2516.47 0 600151 2077.19 0 583073 1648.58 0 569872 1228.67 0 560479 815.393 0 554841 406.575 0 552928 0 0 1.3237e+06 -8.9407e-07 0 1.4179e+06 -17523.2 0 1.55318e+06 -16349 0 1.65321e+06 -10906 0 1.71135e+06 -5124.91 0 1.72902e+06 -20.9797 0 1.71322e+06 4048.66 0 1.67172e+06 7042.44 0 1.61209e+06 9065.87 0 1.54075e+06 10293.2 0 1.46284e+06 10908.5 0 1.38218e+06 11074.7 0 1.30154e+06 10924.4 0 1.22284e+06 10558.6 0 1.14737e+06 10052 0 1.07594e+06 9458.17 0 1.00904e+06 8814.69 0 946951 8147.56 0 889766 7474.32 0 837488 6806.45 0 790051 6151.15 0 747348 5512.58 0 709248 4892.74 0 675612 4292.12 0 646301 3710.17 0 621183 3145.57 0 600138 2596.48 0 583060 2060.71 0 569859 1535.83 0 560466 1019.23 0 554829 508.215 0 552916 0 0 1.32272e+06 7.15256e-07 0 1.41781e+06 -21065.8 0 1.55333e+06 -19621.9 0 1.65338e+06 -13088.5 0 1.71152e+06 -6148.4 0 1.72916e+06 -23.521 0 1.71333e+06 4860.22 0 1.6718e+06 8452.53 0 1.61213e+06 10880.4 0 1.54078e+06 12352.9 0 1.46285e+06 13090.9 0 1.38218e+06 13290.2 0 1.30153e+06 13109.6 0 1.22283e+06 12670.6 0 1.14735e+06 12062.6 0 1.07592e+06 11349.9 0 1.00902e+06 10577.7 0 946931 9777.09 0 889745 8969.18 0 837468 8167.72 0 790032 7381.35 0 747329 6615.06 0 709230 5871.25 0 675594 5150.52 0 646283 4452.18 0 621166 3774.65 0 600122 3115.75 0 583044 2472.83 0 569844 1842.98 0 560451 1223.07 0 554814 609.854 0 552901 0 0 1.32154e+06 -6.55651e-07 0 1.41771e+06 -24629.2 0 1.5535e+06 -22896.4 0 1.65359e+06 -15271.6 0 1.71172e+06 -7171.08 0 1.72932e+06 -25.1641 0 1.71345e+06 5672.76 0 1.67188e+06 9863.5 0 1.61219e+06 12695.6 0 1.54081e+06 14413.1 0 1.46286e+06 15273.7 0 1.38218e+06 15505.9 0 1.30152e+06 15295 0 1.22281e+06 14782.6 0 1.14733e+06 14073.2 0 1.07589e+06 13241.6 0 1.009e+06 12340.7 0 946907 11406.6 0 889722 10464 0 837445 9528.98 0 790009 8611.54 0 747307 7717.53 0 709208 6849.75 0 675573 6008.89 0 646263 5194.17 0 621146 4403.73 0 600102 3635.01 0 583025 2884.95 0 569825 2150.13 0 560433 1426.9 0 554795 711.49 0 552883 0 0 1.32018e+06 5.36442e-07 0 1.4176e+06 -28216.9 0 1.5537e+06 -26172.6 0 1.65383e+06 -17455.4 0 1.71195e+06 -8192.81 0 1.72951e+06 -25.7611 0 1.7136e+06 6486.46 0 1.67199e+06 11275.5 0 1.61226e+06 14511.6 0 1.54085e+06 16474 0 1.46288e+06 17457 0 1.38218e+06 17722 0 1.30151e+06 17480.6 0 1.22279e+06 16894.8 0 1.14731e+06 16083.9 0 1.07587e+06 15133.4 0 1.00897e+06 14103.7 0 946879 13036.1 0 889694 11958.9 0 837417 10890.2 0 789982 9841.71 0 747281 8819.98 0 709183 7828.23 0 675549 6867.25 0 646240 5936.14 0 621124 5032.78 0 600080 4154.26 0 583003 3297.05 0 569804 2457.26 0 560412 1630.73 0 554775 813.123 0 552862 0 0 1.31863e+06 -5.36442e-07 0 1.41747e+06 -31832.5 0 1.55393e+06 -29450.9 0 1.65411e+06 -19640.3 0 1.71221e+06 -9213.43 0 1.72973e+06 -25.1647 0 1.71376e+06 7301.49 0 1.6721e+06 12688.6 0 1.61233e+06 16328.6 0 1.54089e+06 18535.5 0 1.4629e+06 19640.8 0 1.38218e+06 19938.4 0 1.3015e+06 19666.5 0 1.22277e+06 19007.2 0 1.14728e+06 18094.7 0 1.07584e+06 17025.3 0 1.00894e+06 15866.7 0 946848 14665.7 0 889663 13453.7 0 837387 12251.5 0 789952 11071.9 0 747252 9922.4 0 709154 8806.68 0 675521 7725.59 0 646213 6678.09 0 621098 5661.82 0 600055 4673.49 0 582979 3709.14 0 569780 2764.39 0 560388 1834.55 0 554751 914.753 0 552838 0 0 1.31689e+06 5.96046e-07 0 1.41734e+06 -35479.7 0 1.55418e+06 -32731.3 0 1.65442e+06 -21826.1 0 1.7125e+06 -10232.8 0 1.72997e+06 -23.2285 0 1.71394e+06 8117.99 0 1.67223e+06 14103.1 0 1.61241e+06 18146.7 0 1.54094e+06 20597.9 0 1.46291e+06 21825.3 0 1.38218e+06 22155.3 0 1.30149e+06 21852.7 0 1.22275e+06 21119.8 0 1.14725e+06 20105.7 0 1.07581e+06 18917.2 0 1.00891e+06 17629.8 0 946813 16295.2 0 889628 14948.5 0 837352 13612.7 0 789919 12302 0 747219 11024.8 0 709123 9785.11 0 675491 8583.9 0 646183 7420.02 0 621069 6290.84 0 600027 5192.7 0 582951 4121.21 0 569753 3071.5 0 560361 2038.36 0 554725 1016.38 0 552812 0 0 1.31494e+06 -4.17233e-07 0 1.4172e+06 -39162.2 0 1.55446e+06 -36013.9 0 1.65476e+06 -24013.2 0 1.71282e+06 -11250.8 0 1.73023e+06 -19.8066 0 1.71415e+06 8936.16 0 1.67237e+06 15519 0 1.6125e+06 19965.9 0 1.54099e+06 22661.2 0 1.46294e+06 24010.4 0 1.38218e+06 24372.6 0 1.30147e+06 24039.2 0 1.22273e+06 23232.6 0 1.14722e+06 22116.7 0 1.07577e+06 20809.2 0 1.00887e+06 19392.9 0 946775 17924.8 0 889589 16443.4 0 837314 14973.9 0 789882 13532.1 0 747183 12127.2 0 709088 10763.5 0 675457 9442.18 0 646150 8161.92 0 621037 6919.84 0 599996 5711.89 0 582921 4533.27 0 569723 3378.61 0 560332 2242.17 0 554695 1118 0 552783 0 0 1.3128e+06 4.17233e-07 0 1.41706e+06 -42883.8 0 1.55476e+06 -39298.8 0 1.65513e+06 -26201.7 0 1.71317e+06 -12267.2 0 1.73052e+06 -14.7541 0 1.71437e+06 9756.14 0 1.67253e+06 16936.5 0 1.6126e+06 21786.5 0 1.54104e+06 24725.5 0 1.46296e+06 26196.2 0 1.38218e+06 26590.5 0 1.30145e+06 26226.1 0 1.2227e+06 25345.6 0 1.14719e+06 24127.9 0 1.07573e+06 22701.3 0 1.00883e+06 21156.1 0 946732 19554.4 0 889547 17938.2 0 837273 16335 0 789841 14762.2 0 747143 13229.5 0 709049 11741.9 0 675419 10300.4 0 646114 8903.79 0 621002 7548.8 0 599962 6231.07 0 582888 4945.31 0 569690 3685.7 0 560299 2445.96 0 554663 1219.62 0 552751 0 0 1.31044e+06 -1.78814e-07 0 1.41692e+06 -46648.2 0 1.55509e+06 -42586 0 1.65554e+06 -28391.6 0 1.71355e+06 -13281.9 0 1.73084e+06 -7.92704 0 1.71461e+06 10578.1 0 1.6727e+06 18355.7 0 1.61271e+06 23608.5 0 1.5411e+06 26790.9 0 1.46298e+06 28382.8 0 1.38218e+06 28808.9 0 1.30143e+06 28413.3 0 1.22267e+06 27458.8 0 1.14715e+06 26139.3 0 1.07569e+06 24593.5 0 1.00878e+06 22919.3 0 946686 21183.9 0 889501 19433 0 837227 17696.2 0 789797 15992.2 0 747100 14331.8 0 709008 12720.2 0 675379 11158.6 0 646075 9645.63 0 620964 8177.75 0 599925 6750.21 0 582851 5357.33 0 569655 3992.77 0 560264 2649.75 0 554629 1321.23 0 552716 0 0 1.30787e+06 0 0 1.41678e+06 -50459.5 0 1.55544e+06 -45875.6 0 1.65598e+06 -30583.3 0 1.71396e+06 -14294.7 0 1.73118e+06 0.817515 0 1.71487e+06 11402.2 0 1.67288e+06 19776.9 0 1.61283e+06 25432 0 1.54117e+06 28857.5 0 1.46301e+06 30570.3 0 1.38218e+06 31027.9 0 1.30141e+06 30600.9 0 1.22263e+06 29572.4 0 1.14711e+06 28150.8 0 1.07564e+06 26485.8 0 1.00874e+06 24682.5 0 946637 22813.5 0 889452 20927.8 0 837179 19057.3 0 789749 17222.2 0 747054 15434.1 0 708963 13698.5 0 675335 12016.8 0 646033 10387.4 0 620923 8806.66 0 599885 7269.34 0 582812 5769.33 0 569616 4299.83 0 560227 2853.52 0 554591 1422.84 0 552679 0 0 1.30507e+06 2.38419e-07 0 1.41664e+06 -54321.6 0 1.55582e+06 -49167.3 0 1.65646e+06 -32776.8 0 1.7144e+06 -15305.4 0 1.73154e+06 11.6212 0 1.71515e+06 12228.7 0 1.67308e+06 21200 0 1.61296e+06 27257.2 0 1.54124e+06 30925.4 0 1.46304e+06 32758.7 0 1.38217e+06 33247.6 0 1.30139e+06 32789 0 1.2226e+06 31686.2 0 1.14706e+06 30162.5 0 1.07559e+06 28378.1 0 1.00868e+06 26445.8 0 946583 24443.1 0 889398 22422.5 0 837126 20418.4 0 789698 18452.2 0 747004 16536.3 0 708914 14676.8 0 675289 12875 0 645988 11129.2 0 620879 9435.54 0 599842 7788.43 0 582770 6181.31 0 569575 4606.87 0 560186 3057.29 0 554551 1524.44 0 552638 0 0 1.30205e+06 -1.19209e-07 0 1.41652e+06 -58238.8 0 1.55622e+06 -52461.1 0 1.65697e+06 -34972.5 0 1.71487e+06 -16313.9 0 1.73193e+06 24.6243 0 1.71545e+06 13057.6 0 1.67329e+06 22625.4 0 1.61309e+06 29084.2 0 1.54132e+06 32994.6 0 1.46307e+06 34948.1 0 1.38217e+06 35467.9 0 1.30137e+06 34977.6 0 1.22256e+06 33800.3 0 1.14701e+06 32174.4 0 1.07554e+06 30270.6 0 1.00863e+06 28209.1 0 946527 26072.7 0 889342 23917.3 0 837070 21779.5 0 789643 19682.1 0 746951 17638.5 0 708863 15655 0 675239 13733.1 0 645939 11870.9 0 620832 10064.4 0 599796 8307.49 0 582725 6593.27 0 569531 4913.89 0 560142 3261.04 0 554508 1626.03 0 552595 0 0 1.29879e+06 1.19209e-07 0 1.4164e+06 -62215.2 0 1.55664e+06 -55756.8 0 1.65752e+06 -37170.4 0 1.71537e+06 -17320 0 1.73235e+06 39.9655 0 1.71576e+06 13889.2 0 1.67351e+06 24053 0 1.61324e+06 30913 0 1.5414e+06 35065.3 0 1.4631e+06 37138.6 0 1.38217e+06 37689.1 0 1.30135e+06 37166.6 0 1.22252e+06 35914.8 0 1.14696e+06 34186.5 0 1.07549e+06 32163.2 0 1.00857e+06 29972.5 0 946466 27702.3 0 889281 25412 0 837010 23140.5 0 789585 20912 0 746894 18740.6 0 708808 16633.1 0 675185 14591.1 0 645887 12612.6 0 620782 10693.2 0 599747 8826.52 0 582678 7005.19 0 569484 5220.89 0 560096 3464.77 0 554462 1727.62 0 552550 0 0 1.29529e+06 0 0 1.41631e+06 -66255.1 0 1.55708e+06 -59054.1 0 1.6581e+06 -39370.9 0 1.7159e+06 -18323.4 0 1.73279e+06 57.7822 0 1.7161e+06 14723.6 0 1.67375e+06 25483.2 0 1.61339e+06 32743.9 0 1.54148e+06 37137.5 0 1.46314e+06 39330.2 0 1.38217e+06 39911 0 1.30132e+06 39356.2 0 1.22248e+06 38029.6 0 1.14691e+06 36198.8 0 1.07543e+06 34055.9 0 1.0085e+06 31735.9 0 946402 29332 0 889217 26906.8 0 836947 24501.5 0 789523 22141.9 0 746834 19842.7 0 708749 17611.3 0 675129 15449.1 0 645833 13354.3 0 620728 11322 0 599695 9345.52 0 582627 7417.09 0 569435 5527.87 0 560047 3668.5 0 554413 1829.2 0 552501 0 0 1.29154e+06 0 0 1.41624e+06 -70363.2 0 1.55755e+06 -62352.6 0 1.65872e+06 -41574.2 0 1.71646e+06 -19324 0 1.73326e+06 78.2095 0 1.71646e+06 15561 0 1.674e+06 26915.9 0 1.61355e+06 34576.9 0 1.54157e+06 39211.4 0 1.46317e+06 41523 0 1.38217e+06 42133.8 0 1.30129e+06 41546.4 0 1.22243e+06 40144.8 0 1.14685e+06 38211.3 0 1.07536e+06 35948.7 0 1.00844e+06 33499.5 0 946334 30961.6 0 889149 28401.5 0 836880 25862.5 0 789457 23371.7 0 746770 20944.8 0 708688 18589.3 0 675069 16307.1 0 645775 14095.9 0 620672 11950.7 0 599640 9864.49 0 582573 7828.96 0 569382 5834.83 0 559995 3872.2 0 554362 1930.77 0 552450 0 0 1.28751e+06 -1.19209e-07 0 1.41619e+06 -74543.9 0 1.55804e+06 -65651.8 0 1.65938e+06 -43780.6 0 1.71705e+06 -20321.6 0 1.73376e+06 101.381 0 1.71683e+06 16401.6 0 1.67426e+06 28351.4 0 1.61372e+06 36412.2 0 1.54167e+06 41287 0 1.46321e+06 43717 0 1.38217e+06 44357.4 0 1.30126e+06 43737.2 0 1.22238e+06 42260.3 0 1.1468e+06 40224.1 0 1.0753e+06 37841.7 0 1.00837e+06 35263 0 946262 32591.3 0 889077 29896.2 0 836809 27223.4 0 789388 24601.4 0 746703 22046.8 0 708623 19567.3 0 675006 17165 0 645714 14837.4 0 620613 12579.4 0 599583 10383.4 0 582517 8240.8 0 569327 6141.77 0 559941 4075.9 0 554307 2032.34 0 552396 0 0 1.28322e+06 0 0 1.41618e+06 -78802 0 1.55854e+06 -68951.3 0 1.66008e+06 -45990.3 0 1.71767e+06 -21315.9 0 1.73428e+06 127.428 0 1.71722e+06 17245.5 0 1.67454e+06 29789.9 0 1.61389e+06 38249.9 0 1.54177e+06 43364.4 0 1.46325e+06 45912.4 0 1.38217e+06 46582 0 1.30123e+06 45928.6 0 1.22233e+06 44376.3 0 1.14673e+06 42237.1 0 1.07523e+06 39734.8 0 1.00829e+06 37026.7 0 946187 34221 0 889002 31390.9 0 836735 28584.3 0 789316 25831.2 0 746633 23148.7 0 708554 20545.3 0 674940 18022.8 0 645649 15578.9 0 620550 13208 0 599522 10902.3 0 582458 8652.61 0 569268 6448.68 0 559883 4279.57 0 554250 2133.89 0 552339 0 0 1.27864e+06 4.76837e-07 0 1.41621e+06 -83142.5 0 1.55906e+06 -72250.3 0 1.66081e+06 -48203.8 0 1.71831e+06 -22306.7 0 1.73483e+06 156.478 0 1.71764e+06 18092.9 0 1.67483e+06 31231.4 0 1.61408e+06 40090 0 1.54187e+06 45443.8 0 1.4633e+06 48109.1 0 1.38216e+06 48807.5 0 1.3012e+06 48120.6 0 1.22228e+06 46492.7 0 1.14667e+06 44250.4 0 1.07515e+06 41628.1 0 1.00822e+06 38790.4 0 946108 35850.7 0 888923 32885.6 0 836657 29945.1 0 789240 27060.8 0 746559 24250.6 0 708483 21523.2 0 674870 18880.6 0 645582 16320.4 0 620485 13836.6 0 599458 11421.1 0 582395 9064.38 0 569207 6755.56 0 559823 4483.23 0 554191 2235.44 0 552279 0 0 1.27376e+06 -1.19209e-07 0 1.41629e+06 -87570.5 0 1.5596e+06 -75548.2 0 1.66159e+06 -50421.3 0 1.71899e+06 -23293.8 0 1.7354e+06 188.659 0 1.71807e+06 18944.1 0 1.67514e+06 32676.1 0 1.61428e+06 41932.7 0 1.54198e+06 47525.2 0 1.46334e+06 50307.3 0 1.38216e+06 51034.1 0 1.30117e+06 50313.4 0 1.22223e+06 48609.6 0 1.1466e+06 46264 0 1.07508e+06 43521.5 0 1.00814e+06 40554.1 0 946025 37480.4 0 888840 34380.2 0 836576 31306 0 789160 28290.4 0 746481 25352.4 0 708408 22501 0 674798 19738.4 0 645512 17061.8 0 620417 14465.1 0 599392 11939.9 0 582330 9476.12 0 569143 7062.42 0 559760 4686.87 0 554128 2336.98 0 552217 0 0 1.26856e+06 -2.38419e-07 0 1.41642e+06 -92091.1 0 1.56015e+06 -78844.1 0 1.6624e+06 -52643.3 0 1.71969e+06 -24276.8 0 1.736e+06 224.094 0 1.71852e+06 19799 0 1.67546e+06 34124.1 0 1.61448e+06 43778.1 0 1.54209e+06 49608.6 0 1.46339e+06 52507 0 1.38216e+06 53261.8 0 1.30113e+06 52506.9 0 1.22217e+06 50726.9 0 1.14653e+06 48277.9 0 1.075e+06 45415.1 0 1.00805e+06 42318 0 945938 39110.1 0 888754 35874.8 0 836491 32666.7 0 789077 29519.9 0 746401 26454.1 0 708329 23478.8 0 674722 20596 0 645438 17803.1 0 620345 15093.6 0 599322 12458.7 0 582262 9887.82 0 569076 7369.25 0 559694 4890.49 0 554063 2438.51 0 552152 0 0 1.26304e+06 1.19209e-07 0 1.41661e+06 -96709.8 0 1.56071e+06 -82136.9 0 1.66326e+06 -54870.2 0 1.72042e+06 -25255.5 0 1.73663e+06 262.904 0 1.71899e+06 20658.1 0 1.67579e+06 35575.7 0 1.61469e+06 45626.4 0 1.54221e+06 51694.3 0 1.46343e+06 54708.3 0 1.38216e+06 55490.6 0 1.30109e+06 54701.1 0 1.22211e+06 52844.8 0 1.14645e+06 50292.1 0 1.07491e+06 47308.9 0 1.00796e+06 44081.9 0 945848 40739.9 0 888664 37369.4 0 836402 34027.4 0 788990 30749.4 0 746316 27555.8 0 708248 24456.5 0 674643 21453.6 0 645361 18544.4 0 620271 15722 0 599250 12977.4 0 582191 10299.5 0 569007 7676.05 0 559625 5094.09 0 553995 2540.03 0 552084 0 0 1.25718e+06 -1.19209e-07 0 1.41688e+06 -101432 0 1.56128e+06 -85425.7 0 1.66416e+06 -57102.5 0 1.72118e+06 -26229.6 0 1.73728e+06 305.205 0 1.71947e+06 21521.3 0 1.67613e+06 37030.9 0 1.61491e+06 47477.6 0 1.54233e+06 53782.2 0 1.46348e+06 56911.2 0 1.38216e+06 57720.6 0 1.30105e+06 56896.1 0 1.22205e+06 54963.1 0 1.14637e+06 52306.5 0 1.07483e+06 49202.8 0 1.00787e+06 45846 0 945755 42369.6 0 888570 38864 0 836310 35388.1 0 788900 31978.8 0 746229 28657.4 0 708163 25434.1 0 674560 22311.1 0 645282 19285.6 0 620193 16350.4 0 599174 13496.1 0 582118 10711.1 0 568934 7982.82 0 559554 5297.67 0 553924 2641.54 0 552013 0 0 1.25095e+06 7.15256e-07 0 1.41723e+06 -106264 0 1.56186e+06 -88709 0 1.66511e+06 -59340.5 0 1.72196e+06 -27198.8 0 1.73796e+06 351.112 0 1.71998e+06 22388.9 0 1.67649e+06 38489.9 0 1.61514e+06 49331.9 0 1.54246e+06 55872.5 0 1.46354e+06 59115.8 0 1.38215e+06 59951.7 0 1.30101e+06 59091.9 0 1.22198e+06 57082 0 1.14629e+06 54321.4 0 1.07473e+06 51097 0 1.00778e+06 47610.1 0 945657 43999.4 0 888473 40358.6 0 836214 36748.7 0 788806 33208.2 0 746137 29759 0 708074 26411.6 0 674475 23168.6 0 645199 20026.7 0 620113 16978.7 0 599096 14014.7 0 582041 11122.7 0 568859 8289.56 0 559479 5501.23 0 553850 2743.04 0 551940 0 0 1.24435e+06 -4.76837e-07 0 1.41768e+06 -111212 0 1.56244e+06 -91985.5 0 1.6661e+06 -61585 0 1.72277e+06 -28162.8 0 1.73867e+06 400.735 0 1.7205e+06 23261 0 1.67687e+06 39952.9 0 1.61537e+06 51189.3 0 1.54259e+06 57965.3 0 1.46359e+06 61322.2 0 1.38215e+06 62184.2 0 1.30097e+06 61288.6 0 1.22191e+06 59201.5 0 1.14621e+06 56336.5 0 1.07464e+06 52991.3 0 1.00768e+06 49374.3 0 945556 45629.2 0 888372 41853.1 0 836114 38109.3 0 788709 34437.5 0 746043 30860.4 0 707982 27389.1 0 674386 24026 0 645113 20767.8 0 620029 17606.9 0 599014 14533.2 0 581961 11534.2 0 568781 8596.26 0 559402 5704.76 0 553774 2844.52 0 551864 0 0 1.23735e+06 4.76837e-07 0 1.41823e+06 -116282 0 1.56302e+06 -95253.6 0 1.66715e+06 -63836.6 0 1.72361e+06 -29121.2 0 1.73941e+06 454.181 0 1.72105e+06 24137.9 0 1.67725e+06 41420 0 1.61562e+06 53050 0 1.54273e+06 60060.7 0 1.46364e+06 63530.5 0 1.38215e+06 64417.9 0 1.30093e+06 63486.1 0 1.22184e+06 61321.5 0 1.14612e+06 58352 0 1.07454e+06 54885.8 0 1.00757e+06 51138.5 0 945451 47259.1 0 888267 43347.6 0 836011 39469.8 0 788608 35666.7 0 745945 31961.8 0 707887 28366.5 0 674294 24883.3 0 645023 21508.7 0 619942 18235.1 0 598930 15051.7 0 581879 11945.7 0 568700 8902.93 0 559322 5908.27 0 553694 2946 0 551785 0 0 1.22992e+06 -4.76837e-07 0 1.4189e+06 -121480 0 1.5636e+06 -98511.6 0 1.66824e+06 -66095.7 0 1.72446e+06 -30073.6 0 1.74018e+06 511.55 0 1.72161e+06 25019.7 0 1.67765e+06 42891.4 0 1.61587e+06 54914.1 0 1.54287e+06 62158.8 0 1.4637e+06 65740.6 0 1.38214e+06 66653 0 1.30088e+06 65684.6 0 1.22177e+06 63442.1 0 1.14603e+06 60367.9 0 1.07444e+06 56780.5 0 1.00747e+06 52902.9 0 945342 48888.9 0 888159 44842.1 0 835904 40830.3 0 788504 36895.8 0 745843 33063.1 0 707789 29343.8 0 674199 25740.5 0 644931 22249.7 0 619853 18863.2 0 598842 15570.1 0 581793 12357.1 0 568616 9209.56 0 559240 6111.76 0 553612 3047.46 0 551703 0 0 1.22206e+06 -4.76837e-07 0 1.4197e+06 -126814 0 1.56416e+06 -101757 0 1.66939e+06 -68363.3 0 1.72535e+06 -31019.7 0 1.74097e+06 572.944 0 1.72218e+06 25906.6 0 1.67807e+06 44367.2 0 1.61613e+06 56781.7 0 1.54302e+06 64259.6 0 1.46376e+06 67952.6 0 1.38214e+06 68889.5 0 1.30084e+06 67883.9 0 1.2217e+06 65563.3 0 1.14594e+06 62384.1 0 1.07434e+06 58675.5 0 1.00736e+06 54667.4 0 945230 50518.8 0 888046 46336.5 0 835794 42190.7 0 788396 38124.9 0 745738 34164.3 0 707687 30321 0 674100 26597.6 0 644836 22990.5 0 619760 19491.3 0 598752 16088.5 0 581705 12768.5 0 568530 9516.15 0 559154 6315.22 0 553528 3148.91 0 551618 0 0 </DataArray> 
</PointData> 
<Points> 
<DataArray type="Float32" NumberOfComponents="3"> 