<?xml version="1.0"?> 
<VTKFile type="StructuredGrid" version="0.1"> 
<StructuredGrid WholeExtent="0 31 0 31 0 0"> 
<Piece Extent="0 31 0 31 0 0"> 
<PointData>
<DataArray type="Float32" Name="|E|" format="ascii" NumberOfComponents="3"> 
-2.60683e+06 3.68377e+06 0 -2.63749e+06 3.74678e+06 0 -2.66734e+06 3.8148e+06 0 -2.69619e+06 3.88797e+06 0 -2.72381e+06 3.96642e+06 0 -2.7499e+06 4.05028e+06 0 -2.77413e+06 4.13966e+06 0 -2.79609e+06 4.23465e+06 0 -2.81531e+06 4.33536e+06 0 -2.83123e+06 4.44189e+06 0 -2.84322e+06 4.55437e+06 0 -2.85051e+06 4.67292e+06 0 -2.85223e+06 4.79766e+06 0 -2.84739e+06 4.92866e+06 0 -2.83485e+06 5.06592e+06 0 -2.81335e+06 5.20934e+06 0 -2.78147e+06 5.35866e+06 0 -2.73766e+06 5.51341e+06 0 -2.68025e+06 5.67286e+06 0 -2.60744e+06 5.83599e+06 0 -2.51738e+06 6.00137e+06 0 -2.40816e+06 6.16717e+06 0 -2.2779e+06 6.33103e+06 0 -2.12485e+06 6.49001e+06 0 -1.94746e+06 6.64053e+06 0 -1.74455e+06 6.77832e+06 0 -1.51544e+06 6.89839e+06 0 -1.26013e+06 6.99503e+06 0 -979496 7.06193e+06 0 -675495 7.09251e+06 0 -351436 7.08091e+06 0 -14346.3 7.02648e+06 0 -2.31821e+06 3.29476e+06 0 -2.34736e+06 3.35619e+06 0 -2.37653e+06 3.41977e+06 0 -2.40548e+06 3.48599e+06 0 -2.43399e+06 3.55526e+06 0 -2.46181e+06 3.62804e+06 0 -2.48864e+06 3.70473e+06 0 -2.51413e+06 3.78575e+06 0 -2.53786e+06 3.87148e+06 0 -2.55935e+06 3.96227e+06 0 -2.57801e+06 4.05845e+06 0 -2.59319e+06 4.16029e+06 0 -2.60408e+06 4.268e+06 0 -2.6098e+06 4.38172e+06 0 -2.60931e+06 4.50151e+06 0 -2.60148e+06 4.62731e+06 0 -2.58502e+06 4.75888e+06 0 -2.55852e+06 4.89583e+06 0 -2.52047e+06 5.03749e+06 0 -2.46928e+06 5.18291e+06 0 -2.40328e+06 5.33076e+06 0 -2.32084e+06 5.47928e+06 0 -2.22041e+06 5.62624e+06 0 -2.10066e+06 5.76884e+06 0 -1.9606e+06 5.90366e+06 0 -1.79978e+06 6.02671e+06 0 -1.61849e+06 6.13334e+06 0 -1.41801e+06 6.21835e+06 0 -1.20087e+06 6.27596e+06 0 -971212 6.29981e+06 0 -735025 6.28252e+06 0 -501261 6.21331e+06 0 -2.07429e+06 3.04735e+06 0 -2.1027e+06 3.09764e+06 0 -2.1313e+06 3.15134e+06 0 -2.15995e+06 3.20847e+06 0 -2.18847e+06 3.26909e+06 0 -2.21664e+06 3.33332e+06 0 -2.24418e+06 3.40132e+06 0 -2.27081e+06 3.47331e+06 0 -2.29618e+06 3.54953e+06 0 -2.31988e+06 3.63026e+06 0 -2.34144e+06 3.71577e+06 0 -2.36031e+06 3.80635e+06 0 -2.37583e+06 3.90224e+06 0 -2.38722e+06 4.00365e+06 0 -2.39361e+06 4.11071e+06 0 -2.39397e+06 4.22344e+06 0 -2.38716e+06 4.34173e+06 0 -2.37189e+06 4.46527e+06 0 -2.3468e+06 4.59353e+06 0 -2.31041e+06 4.72569e+06 0 -2.26124e+06 4.86059e+06 0 -2.19781e+06 4.99668e+06 0 -2.11878e+06 5.13195e+06 0 -2.02303e+06 5.26389e+06 0 -1.90984e+06 5.38949e+06 0 -1.77906e+06 5.50526e+06 0 -1.63136e+06 5.60732e+06 0 -1.4684e+06 5.69154e+06 0 -1.29313e+06 5.75386e+06 0 -1.11003e+06 5.79081e+06 0 -925124 5.80044e+06 0 -746554 5.78481e+06 0 -1.87754e+06 2.84679e+06 0 -1.90394e+06 2.89564e+06 0 -1.93059e+06 2.94634e+06 0 -1.95745e+06 2.99933e+06 0 -1.98443e+06 3.05499e+06 0 -2.01138e+06 3.11366e+06 0 -2.0381e+06 3.17565e+06 0 -2.06436e+06 3.24125e+06 0 -2.08983e+06 3.31073e+06 0 -2.11413e+06 3.38435e+06 0 -2.13684e+06 3.46238e+06 0 -2.15745e+06 3.54504e+06 0 -2.17537e+06 3.63258e+06 0 -2.18992e+06 3.72518e+06 0 -2.20033e+06 3.82299e+06 0 -2.2057e+06 3.92609e+06 0 -2.205e+06 4.03441e+06 0 -2.1971e+06 4.14776e+06 0 -2.18074e+06 4.26573e+06 0 -2.1546e+06 4.38763e+06 0 -2.11729e+06 4.51249e+06 0 -2.06748e+06 4.63894e+06 0 -2.00391e+06 4.76522e+06 0 -1.92558e+06 4.88912e+06 0 -1.83188e+06 5.00798e+06 0 -1.72272e+06 5.11875e+06 0 -1.59875e+06 5.21808e+06 0 -1.46154e+06 5.30253e+06 0 -1.31371e+06 5.36885e+06 0 -1.15897e+06 5.41433e+06 0 -1.00195e+06 5.4372e+06 0 -848111 5.43627e+06 0 -1.7121e+06 2.68336e+06 0 -1.73684e+06 2.72973e+06 0 -1.76197e+06 2.77833e+06 0 -1.78735e+06 2.82922e+06 0 -1.81287e+06 2.88251e+06 0 -1.83842e+06 2.93837e+06 0 -1.86386e+06 2.99704e+06 0 -1.88903e+06 3.05879e+06 0 -1.91369e+06 3.12392e+06 0 -1.93757e+06 3.19271e+06 0 -1.96029e+06 3.26547e+06 0 -1.98142e+06 3.34246e+06 0 -2.00041e+06 3.42393e+06 0 -2.01666e+06 3.51009e+06 0 -2.02945e+06 3.60111e+06 0 -2.03795e+06 3.69705e+06 0 -2.04126e+06 3.79793e+06 0 -2.03833e+06 3.90358e+06 0 -2.02803e+06 4.01368e+06 0 -2.00914e+06 4.12768e+06 0 -1.98038e+06 4.24474e+06 0 -1.94051e+06 4.36367e+06 0 -1.88837e+06 4.48294e+06 0 -1.82301e+06 4.60058e+06 0 -1.74384e+06 4.71424e+06 0 -1.65075e+06 4.82121e+06 0 -1.5443e+06 4.91857e+06 0 -1.42586e+06 5.00333e+06 0 -1.29767e+06 5.07274e+06 0 -1.16289e+06 5.12459e+06 0 -1.02535e+06 5.15766e+06 0 -889459 5.17236e+06 0 -1.57127e+06 2.54101e+06 0 -1.59421e+06 2.58711e+06 0 -1.61756e+06 2.63491e+06 0 -1.6413e+06 2.68465e+06 0 -1.66534e+06 2.73655e+06 0 -1.68954e+06 2.79082e+06 0 -1.71377e+06 2.84764e+06 0 -1.73784e+06 2.90724e+06 0 -1.76155e+06 2.96983e+06 0 -1.78466e+06 3.03569e+06 0 -1.80688e+06 3.10506e+06 0 -1.82785e+06 3.17823e+06 0 -1.8471e+06 3.25547e+06 0 -1.86409e+06 3.337e+06 0 -1.87819e+06 3.42302e+06 0 -1.88865e+06 3.51365e+06 0 -1.89461e+06 3.60891e+06 0 -1.89512e+06 3.7087e+06 0 -1.88912e+06 3.81277e+06 0 -1.8755e+06 3.92065e+06 0 -1.85307e+06 4.03161e+06 0 -1.82067e+06 4.14464e+06 0 -1.77719e+06 4.25835e+06 0 -1.72174e+06 4.37101e+06 0 -1.65372e+06 4.4805e+06 0 -1.57299e+06 4.58442e+06 0 -1.47998e+06 4.68013e+06 0 -1.37585e+06 4.76498e+06 0 -1.26254e+06 4.83652e+06 0 -1.14274e+06 4.89278e+06 0 -1.01966e+06 4.93257e+06 0 -897006 4.95549e+06 0 -1.44854e+06 2.41288e+06 0 -1.46993e+06 2.45927e+06 0 -1.49176e+06 2.50724e+06 0 -1.51397e+06 2.55691e+06 0 -1.53651e+06 2.60847e+06 0 -1.55929e+06 2.6621e+06 0 -1.58222e+06 2.71802e+06 0 -1.60513e+06 2.77644e+06 0 -1.62785e+06 2.8376e+06 0 -1.65013e+06 2.90172e+06 0 -1.67171e+06 2.96903e+06 0 -1.69227e+06 3.03979e+06 0 -1.71139e+06 3.11424e+06 0 -1.72863e+06 3.19262e+06 0 -1.74339e+06 3.27511e+06 0 -1.75501e+06 3.36187e+06 0 -1.76272e+06 3.45297e+06 0 -1.76563e+06 3.54835e+06 0 -1.76277e+06 3.64781e+06 0 -1.75308e+06 3.75097e+06 0 -1.73545e+06 3.85718e+06 0 -1.70879e+06 3.96556e+06 0 -1.67206e+06 4.07488e+06 0 -1.62437e+06 4.18357e+06 0 -1.56514e+06 4.28973e+06 0 -1.49416e+06 4.39117e+06 0 -1.41178e+06 4.4855e+06 0 -1.31898e+06 4.57033e+06 0 -1.21743e+06 4.6434e+06 0 -1.10945e+06 4.70292e+06 0 -997859 4.74777e+06 0 -885856 4.77776e+06 0 -1.33977e+06 2.29397e+06 0 -1.35971e+06 2.34132e+06 0 -1.38011e+06 2.39006e+06 0 -1.40094e+06 2.44032e+06 0 -1.42213e+06 2.49228e+06 0 -1.4436e+06 2.5461e+06 0 -1.46527e+06 2.60196e+06 0 -1.48701e+06 2.66006e+06 0 -1.50866e+06 2.72062e+06 0 -1.53004e+06 2.78387e+06 0 -1.5509e+06 2.85005e+06 0 -1.57092e+06 2.91938e+06 0 -1.58975e+06 2.9921e+06 0 -1.60696e+06 3.06842e+06 0 -1.62203e+06 3.14855e+06 0 -1.63436e+06 3.23262e+06 0 -1.64324e+06 3.32073e+06 0 -1.64786e+06 3.41286e+06 0 -1.64731e+06 3.50887e+06 0 -1.64061e+06 3.60842e+06 0 -1.62671e+06 3.71097e+06 0 -1.60457e+06 3.81573e+06 0 -1.57319e+06 3.92159e+06 0 -1.53173e+06 4.02713e+06 0 -1.47959e+06 4.13063e+06 0 -1.41652e+06 4.23008e+06 0 -1.34278e+06 4.3233e+06 0 -1.2592e+06 4.40807e+06 0 -1.16722e+06 4.48231e+06 0 -1.0689e+06 4.54433e+06 0 -966714 4.59305e+06 0 -863520 4.62805e+06 0 -1.24185e+06 2.18142e+06 0 -1.26048e+06 2.23015e+06 0 -1.27957e+06 2.28012e+06 0 -1.2991e+06 2.33148e+06 0 -1.31902e+06 2.38435e+06 0 -1.33928e+06 2.43891e+06 0 -1.35978e+06 2.49531e+06 0 -1.38041e+06 2.55375e+06 0 -1.40104e+06 2.61442e+06 0 -1.4215e+06 2.67754e+06 0 -1.44157e+06 2.74332e+06 0 -1.46098e+06 2.81199e+06 0 -1.47939e+06 2.88378e+06 0 -1.49643e+06 2.95889e+06 0 -1.5116e+06 3.03753e+06 0 -1.52435e+06 3.11983e+06 0 -1.53403e+06 3.20589e+06 0 -1.53989e+06 3.29573e+06 0 -1.5411e+06 3.38922e+06 0 -1.53672e+06 3.48609e+06 0 -1.52577e+06 3.58588e+06 0 -1.50727e+06 3.68786e+06 0 -1.48025e+06 3.79104e+06 0 -1.44389e+06 3.89414e+06 0 -1.39759e+06 3.99556e+06 0 -1.34107e+06 4.09346e+06 0 -1.27451e+06 4.18581e+06 0 -1.1986e+06 4.27056e+06 0 -1.11463e+06 4.34576e+06 0 -1.0244e+06 4.4098e+06 0 -930148 4.46162e+06 0 -834440 4.50081e+06 0 -1.15251e+06 2.07329e+06 0 -1.16994e+06 2.12372e+06 0 -1.18783e+06 2.17528e+06 0 -1.20617e+06 2.22809e+06 0 -1.22492e+06 2.28229e+06 0 -1.24402e+06 2.33801e+06 0 -1.26341e+06 2.39542e+06 0 -1.283e+06 2.45468e+06 0 -1.30265e+06 2.51599e+06 0 -1.32221e+06 2.57953e+06 0 -1.3415e+06 2.64552e+06 0 -1.36025e+06 2.71416e+06 0 -1.37819e+06 2.78567e+06 0 -1.39494e+06 2.86025e+06 0 -1.41006e+06 2.9381e+06 0 -1.42305e+06 3.01936e+06 0 -1.43329e+06 3.10414e+06 0 -1.44009e+06 3.19245e+06 0 -1.44265e+06 3.28421e+06 0 -1.44013e+06 3.37918e+06 0 -1.43157e+06 3.47694e+06 0 -1.41605e+06 3.57686e+06 0 -1.39265e+06 3.67804e+06 0 -1.36055e+06 3.77927e+06 0 -1.31916e+06 3.87912e+06 0 -1.26817e+06 3.97585e+06 0 -1.20769e+06 4.06759e+06 0 -1.13832e+06 4.1524e+06 0 -1.06116e+06 4.22846e+06 0 -977873 4.29422e+06 0 -890457 4.34863e+06 0 -801259 4.39121e+06 0 -1.07011e+06 1.96835e+06 0 -1.08642e+06 2.02069e+06 0 -1.10319e+06 2.07408e+06 0 -1.12042e+06 2.12863e+06 0 -1.13807e+06 2.18445e+06 0 -1.1561e+06 2.24167e+06 0 -1.17445e+06 2.30044e+06 0 -1.19303e+06 2.36092e+06 0 -1.21174e+06 2.42327e+06 0 -1.23043e+06 2.48768e+06 0 -1.24894e+06 2.55435e+06 0 -1.26704e+06 2.62346e+06 0 -1.28446e+06 2.69523e+06 0 -1.30086e+06 2.76984e+06 0 -1.31585e+06 2.84748e+06 0 -1.32893e+06 2.92831e+06 0 -1.33956e+06 3.01242e+06 0 -1.34706e+06 3.09984e+06 0 -1.35072e+06 3.19051e+06 0 -1.3497e+06 3.28422e+06 0 -1.34313e+06 3.3806e+06 0 -1.33011e+06 3.47907e+06 0 -1.30976e+06 3.5788e+06 0 -1.28129e+06 3.6787e+06 0 -1.2441e+06 3.77741e+06 0 -1.19786e+06 3.87334e+06 0 -1.14263e+06 3.96471e+06 0 -1.07891e+06 4.0497e+06 0 -1.00769e+06 4.12657e+06 0 -930455 4.19386e+06 0 -849040 4.25052e+06 0 -765598 4.29603e+06 0 -993422 1.86576e+06 0 -1.00868e+06 1.92018e+06 0 -1.0244e+06 1.97558e+06 0 -1.04058e+06 2.03206e+06 0 -1.05719e+06 2.08972e+06 0 -1.0742e+06 2.14869e+06 0 -1.09155e+06 2.2091e+06 0 -1.10917e+06 2.27109e+06 0 -1.12697e+06 2.33482e+06 0 -1.14482e+06 2.40045e+06 0 -1.16257e+06 2.46817e+06 0 -1.18001e+06 2.53816e+06 0 -1.19689e+06 2.61062e+06 0 -1.2129e+06 2.68572e+06 0 -1.22768e+06 2.76365e+06 0 -1.24077e+06 2.84454e+06 0 -1.25165e+06 2.9285e+06 0 -1.2597e+06 3.01557e+06 0 -1.26423e+06 3.10569e+06 0 -1.26447e+06 3.1987e+06 0 -1.25958e+06 3.29424e+06 0 -1.24869e+06 3.39178e+06 0 -1.23096e+06 3.49057e+06 0 -1.20563e+06 3.58959e+06 0 -1.1721e+06 3.68756e+06 0 -1.13002e+06 3.783e+06 0 -1.07939e+06 3.87423e+06 0 -1.02065e+06 3.95953e+06 0 -954676 4.03725e+06 0 -882816 4.10595e+06 0 -806756 4.16462e+06 0 -728493 4.2127e+06 0 -921531 1.765e+06 0 -935780 1.82159e+06 0 -950498 1.87911e+06 0 -965673 1.93766e+06 0 -981288 1.99734e+06 0 -997313 2.05824e+06 0 -1.0137e+06 2.12049e+06 0 -1.0304e+06 2.18423e+06 0 -1.04732e+06 2.24958e+06 0 -1.06434e+06 2.31672e+06 0 -1.08134e+06 2.38581e+06 0 -1.09811e+06 2.45701e+06 0 -1.11444e+06 2.53051e+06 0 -1.13004e+06 2.60648e+06 0 -1.14456e+06 2.68509e+06 0 -1.15758e+06 2.76647e+06 0 -1.16862e+06 2.85073e+06 0 -1.17709e+06 2.93791e+06 0 -1.18234e+06 3.02796e+06 0 -1.18363e+06 3.12072e+06 0 -1.18018e+06 3.21589e+06 0 -1.17114e+06 3.31297e+06 0 -1.15571e+06 3.41125e+06 0 -1.13314e+06 3.50979e+06 0 -1.10284e+06 3.60739e+06 0 -1.06445e+06 3.70264e+06 0 -1.01792e+06 3.79397e+06 0 -963631 3.87972e+06 0 -902364 3.95832e+06 0 -835348 4.02838e+06 0 -764142 4.0889e+06 0 -690603 4.1393e+06 0 -853751 1.6657e+06 0 -867028 1.72452e+06 0 -880770 1.78424e+06 0 -894971 1.84496e+06 0 -909619 1.90675e+06 0 -924689 1.96972e+06 0 -940146 2.03397e+06 0 -955935 2.09963e+06 0 -971983 2.16681e+06 0 -988192 2.23568e+06 0 -1.00443e+06 2.30637e+06 0 -1.02054e+06 2.37906e+06 0 -1.03629e+06 2.4539e+06 0 -1.05144e+06 2.53106e+06 0 -1.06566e+06 2.61069e+06 0 -1.07856e+06 2.69292e+06 0 -1.08968e+06 2.77785e+06 0 -1.09847e+06 2.86553e+06 0 -1.10432e+06 2.95591e+06 0 -1.10651e+06 3.04885e+06 0 -1.1043e+06 3.14406e+06 0 -1.0969e+06 3.24108e+06 0 -1.08351e+06 3.33925e+06 0 -1.0634e+06 3.43768e+06 0 -1.036e+06 3.53523e+06 0 -1.00092e+06 3.63057e+06 0 -958105 3.72221e+06 0 -907845 3.80856e+06 0 -850860 3.88811e+06 0 -788273 3.95952e+06 0 -721526 4.02178e+06 0 -652357 4.07431e+06 0 -789558 1.56761e+06 0 -801880 1.62869e+06 0 -814666 1.69066e+06 0 -827912 1.7536e+06 0 -841610 1.81759e+06 0 -855740 1.88271e+06 0 -870273 1.94907e+06 0 -885164 2.01678e+06 0 -900349 2.08595e+06 0 -915740 2.15671e+06 0 -931222 2.22921e+06 0 -946643 2.3036e+06 0 -961811 2.38002e+06 0 -976484 2.45863e+06 0 -990364 2.53957e+06 0 -1.00309e+06 2.62297e+06 0 -1.01421e+06 2.7089e+06 0 -1.02324e+06 2.79742e+06 0 -1.02957e+06 2.88849e+06 0 -1.03254e+06 2.98196e+06 0 -1.03143e+06 3.07758e+06 0 -1.02547e+06 3.17491e+06 0 -1.01391e+06 3.27332e+06 0 -996034 3.37196e+06 0 -971262 3.46976e+06 0 -939212 3.56546e+06 0 -899783 3.65762e+06 0 -853229 3.74472e+06 0 -800193 3.82531e+06 0 -741706 3.89807e+06 0 -679110 3.96202e+06 0 -614034 4.01657e+06 0 -728541 1.47056e+06 0 -739919 1.53391e+06 0 -751758 1.59814e+06 0 -764058 1.66334e+06 0 -776813 1.72957e+06 0 -790009 1.79691e+06 0 -803623 1.86546e+06 0 -817615 1.93531e+06 0 -831933 2.00657e+06 0 -846498 2.07937e+06 0 -861208 2.15384e+06 0 -875927 2.2301e+06 0 -890479 2.3083e+06 0 -904641 2.38859e+06 0 -918137 2.47108e+06 0 -930627 2.55589e+06 0 -941704 2.64311e+06 0 -950885 2.73277e+06 0 -957609 2.82484e+06 0 -961247 2.91918e+06 0 -961104 3.01553e+06 0 -956448 3.11349e+06 0 -946545 3.21246e+06 0 -930703 3.31162e+06 0 -908348 3.40996e+06 0 -879088 3.50626e+06 0 -842799 3.59914e+06 0 -799690 3.68715e+06 0 -750337 3.76887e+06 0 -695693 3.84303e+06 0 -637007 3.90864e+06 0 -575810 3.9651e+06 0 -670371 1.37443e+06 0 -680809 1.44005e+06 0 -691707 1.50655e+06 0 -703064 1.57402e+06 0 -714878 1.64251e+06 0 -727139 1.7121e+06 0 -739829 1.78288e+06 0 -752917 1.85494e+06 0 -766357 1.92838e+06 0 -780081 2.00332e+06 0 -793999 2.07986e+06 0 -807989 2.15815e+06 0 -821892 2.23829e+06 0 -835504 2.32043e+06 0 -848571 2.40467e+06 0 -860775 2.49114e+06 0 -871736 2.57988e+06 0 -880997 2.67095e+06 0 -888032 2.76429e+06 0 -892237 2.85978e+06 0 -892950 2.95717e+06 0 -889469 3.05606e+06 0 -881080 3.15587e+06 0 -867113 3.25584e+06 0 -846998 3.35498e+06 0 -820339 3.45212e+06 0 -786990 3.54593e+06 0 -747117 3.635e+06 0 -701241 3.71796e+06 0 -650239 3.79356e+06 0 -595279 3.86083e+06 0 -537799 3.91914e+06 0 -614772 1.27913e+06 0 -624276 1.347e+06 0 -634234 1.41577e+06 0 -644649 1.48551e+06 0 -655521 1.55626e+06 0 -666844 1.62813e+06 0 -678603 1.70117e+06 0 -690775 1.77548e+06 0 -703320 1.85115e+06 0 -716183 1.92829e+06 0 -729283 2.00701e+06 0 -742513 2.08741e+06 0 -755730 2.16963e+06 0 -768748 2.25377e+06 0 -781334 2.33994e+06 0 -793194 2.42824e+06 0 -803972 2.51873e+06 0 -813241 2.61142e+06 0 -820501 2.70629e+06 0 -825182 2.80319e+06 0 -826649 2.90188e+06 0 -824228 3.00197e+06 0 -817230 3.10292e+06 0 -805002 3.20396e+06 0 -786982 3.30415e+06 0 -762769 3.40236e+06 0 -732196 3.49729e+06 0 -695396 3.58758e+06 0 -652835 3.67189e+06 0 -605322 3.749e+06 0 -553947 3.81794e+06 0 -500067 3.87807e+06 0 -561511 1.18459e+06 0 -570086 1.25471e+06 0 -579108 1.32573e+06 0 -588582 1.39772e+06 0 -598510 1.47075e+06 0 -608888 1.54488e+06 0 -619708 1.62019e+06 0 -630950 1.69677e+06 0 -642584 1.77471e+06 0 -654561 1.8541e+06 0 -666815 1.93505e+06 0 -679249 2.01766e+06 0 -691737 2.10204e+06 0 -704113 2.1883e+06 0 -716161 2.27654e+06 0 -727614 2.36684e+06 0 -738140 2.45924e+06 0 -747340 2.55377e+06 0 -754743 2.65038e+06 0 -759808 2.74892e+06 0 -761931 2.84917e+06 0 -760466 2.95072e+06 0 -754747 3.05305e+06 0 -744139 3.15542e+06 0 -728089 3.2569e+06 0 -706193 3.35639e+06 0 -678267 3.45264e+06 0 -644410 3.54432e+06 0 -605039 3.63011e+06 0 -560901 3.7088e+06 0 -513012 3.77944e+06 0 -462650 3.84138e+06 0 -510379 1.09074e+06 0 -518034 1.16309e+06 0 -526126 1.23636e+06 0 -534663 1.3106e+06 0 -543646 1.38588e+06 0 -553077 1.46227e+06 0 -562949 1.53985e+06 0 -573249 1.61871e+06 0 -583952 1.69893e+06 0 -595020 1.7806e+06 0 -606395 1.86382e+06 0 -617996 1.94869e+06 0 -629710 2.03532e+06 0 -641390 2.12379e+06 0 -652842 2.21421e+06 0 -663821 2.30663e+06 0 -674020 2.40111e+06 0 -683071 2.49765e+06 0 -690529 2.59619e+06 0 -695887 2.69659e+06 0 -698570 2.79861e+06 0 -697959 2.90187e+06 0 -693415 3.00582e+06 0 -684320 3.10975e+06 0 -670131 3.21276e+06 0 -650444 3.31376e+06 0 -625060 3.41153e+06 0 -594044 3.50475e+06 0 -557770 3.59214e+06 0 -516924 3.67251e+06 0 -472454 3.74489e+06 0 -425562 3.80864e+06 0 -461185 997529 0 -467933 1.07212e+06 0 -475107 1.14762e+06 0 -482714 1.22409e+06 0 -490758 1.30161e+06 0 -499241 1.38025e+06 0 -508160 1.46009e+06 0 -517507 1.54122e+06 0 -527263 1.62372e+06 0 -537398 1.70768e+06 0 -547864 1.7932e+06 0 -558592 1.88036e+06 0 -569486 1.96928e+06 0 -580416 2.06004e+06 0 -591208 2.15272e+06 0 -601641 2.24738e+06 0 -611437 2.34407e+06 0 -620252 2.44276e+06 0 -627676 2.54341e+06 0 -633231 2.64586e+06 0 -636375 2.74986e+06 0 -636517 2.85503e+06 0 -633047 2.96084e+06 0 -625365 3.06657e+06 0 -612941 3.17133e+06 0 -595369 3.27405e+06 0 -572438 3.37353e+06 0 -544186 3.46848e+06 0 -510941 3.5576e+06 0 -473334 3.63974e+06 0 -432245 3.71393e+06 0 -388803 3.7795e+06 0 -413750 904914 0 -419612 981736 0 -425885 1.05946e+06 0 -432575 1.13816e+06 0 -439689 1.2179e+06 0 -447229 1.29878e+06 0 -455195 1.38087e+06 0 -463582 1.46425e+06 0 -472378 1.54902e+06 0 -481559 1.63527e+06 0 -491088 1.72308e+06 0 -500907 1.81257e+06 0 -510934 1.90381e+06 0 -521058 1.99689e+06 0 -531125 2.0919e+06 0 -540939 2.18889e+06 0 -550248 2.28788e+06 0 -558739 2.38887e+06 0 -566033 2.49177e+06 0 -571685 2.59644e+06 0 -575187 2.70261e+06 0 -575981 2.80991e+06 0 -573482 2.91778e+06 0 -567116 3.02553e+06 0 -556364 3.13227e+06 0 -540825 3.23693e+06 0 -520274 3.33832e+06 0 -494725 3.43516e+06 0 -464465 3.52617e+06 0 -430067 3.61019e+06 0 -392349 3.68625e+06 0 -352363 3.75366e+06 0 -367901 812839 0 -372905 891903 0 -378302 971851 0 -384096 1.05277e+06 0 -390296 1.13473e+06 0 -396903 1.21782e+06 0 -403922 1.30214e+06 0 -411349 1.38776e+06 0 -419177 1.47478e+06 0 -427389 1.56331e+06 0 -435956 1.65342e+06 0 -444831 1.74522e+06 0 -453948 1.8388e+06 0 -463211 1.93424e+06 0 -472489 2.03162e+06 0 -481608 2.13099e+06 0 -490345 2.23238e+06 0 -498418 2.33575e+06 0 -505481 2.44104e+06 0 -511124 2.54808e+06 0 -514876 2.6566e+06 0 -516213 2.76621e+06 0 -514581 2.87636e+06 0 -509432 2.98635e+06 0 -500264 3.09528e+06 0 -486681 3.2021e+06 0 -468449 3.3056e+06 0 -445558 3.40452e+06 0 -418254 3.49757e+06 0 -387058 3.58359e+06 0 -352722 3.66159e+06 0 -316224 3.73089e+06 0 -323473 721255 0 -327656 802578 0 -332208 884760 0 -337135 967890 0 -342443 1.05206e+06 0 -348137 1.13736e+06 0 -354220 1.22388e+06 0 -360693 1.31172e+06 0 -367551 1.40098e+06 0 -374784 1.49176e+06 0 -382370 1.58415e+06 0 -390273 1.67826e+06 0 -398439 1.77417e+06 0 -406790 1.87198e+06 0 -415215 1.97176e+06 0 -423564 2.07356e+06 0 -431641 2.1774e+06 0 -439198 2.28325e+06 0 -445924 2.39103e+06 0 -451448 2.50057e+06 0 -455334 2.61159e+06 0 -457100 2.72369e+06 0 -456225 2.83632e+06 0 -452192 2.94876e+06 0 -444518 3.0601e+06 0 -432816 3.16929e+06 0 -416848 3.27512e+06 0 -396581 3.3763e+06 0 -372223 3.47156e+06 0 -344240 3.55971e+06 0 -313319 3.63975e+06 0 -280364 3.71097e+06 0 -280303 630111 0 -283709 713719 0 -287457 798151 0 -291552 883504 0 -296000 969877 0 -300806 1.05737e+06 0 -305974 1.14609e+06 0 -311506 1.23612e+06 0 -317401 1.32759e+06 0 -323652 1.4206e+06 0 -330245 1.51525e+06 0 -337153 1.61164e+06 0 -344334 1.70988e+06 0 -351725 1.81005e+06 0 -359235 1.91224e+06 0 -366740 2.01649e+06 0 -374072 2.12282e+06 0 -381013 2.23121e+06 0 -387293 2.34157e+06 0 -392577 2.45372e+06 0 -396477 2.56738e+06 0 -398548 2.68214e+06 0 -398313 2.79744e+06 0 -395286 2.91253e+06 0 -389012 3.0265e+06 0 -379118 3.13829e+06 0 -365363 3.24665e+06 0 -347695 3.3503e+06 0 -326285 3.44794e+06 0 -301545 3.53836e+06 0 -274093 3.62054e+06 0 -244756 3.69375e+06 0 -238230 539356 0 -240913 625286 0 -243906 711992 0 -247214 799582 0 -250841 888163 0 -254792 977844 0 -259073 1.06874e+06 0 -263685 1.16096e+06 0 -268630 1.25461e+06 0 -273905 1.34982e+06 0 -279500 1.4467e+06 0 -285398 1.54535e+06 0 -291566 1.64589e+06 0 -297957 1.74841e+06 0 -304498 1.85299e+06 0 -311087 1.9597e+06 0 -317587 2.06855e+06 0 -323813 2.17953e+06 0 -329532 2.29253e+06 0 -334455 2.40739e+06 0 -338236 2.52381e+06 0 -340482 2.64138e+06 0 -340758 2.75951e+06 0 -338621 2.87745e+06 0 -333648 2.99427e+06 0 -325483 3.10887e+06 0 -313891 3.22e+06 0 -298803 3.32633e+06 0 -280354 3.42654e+06 0 -258901 3.51938e+06 0 -234993 3.60382e+06 0 -209371 3.67907e+06 0 -197095 448937 0 -199119 537235 0 -201415 626250 0 -203988 716097 0 -206841 806896 0 -209981 898767 0 -213410 991831 0 -217132 1.08621e+06 0 -221149 1.18203e+06 0 -225461 1.27941e+06 0 -230063 1.37849e+06 0 -234943 1.47937e+06 0 -240079 1.58217e+06 0 -245435 1.68701e+06 0 -250957 1.79397e+06 0 -256566 1.90313e+06 0 -262150 2.01451e+06 0 -267561 2.12809e+06 0 -272605 2.24379e+06 0 -277037 2.36142e+06 0 -280564 2.48071e+06 0 -282843 2.60121e+06 0 -283492 2.72235e+06 0 -282117 2.84334e+06 0 -278334 2.96322e+06 0 -271815 3.08086e+06 0 -262333 3.19499e+06 0 -249810 3.30422e+06 0 -234345 3.4072e+06 0 -216239 3.50264e+06 0 -195967 3.58945e+06 0 -174179 3.66683e+06 0 -156741 358801 0 -158177 449524 0 -159843 540889 0 -161743 633024 0 -163879 726059 0 -166257 820126 0 -168878 915357 0 -171748 1.01189e+06 0 -174868 1.10985e+06 0 -178239 1.20938e+06 0 -181860 1.31061e+06 0 -185724 1.41368e+06 0 -189817 1.51872e+06 0 -194114 1.62584e+06 0 -198576 1.73516e+06 0 -203145 1.84673e+06 0 -207736 1.96062e+06 0 -212235 2.07682e+06 0 -216488 2.19523e+06 0 -220299 2.3157e+06 0 -223427 2.43794e+06 0 -225587 2.5615e+06 0 -226459 2.68579e+06 0 -225704 2.81001e+06 0 -222988 2.93317e+06 0 -218021 3.05409e+06 0 -210593 3.17145e+06 0 -200619 3.28383e+06 0 -188169 3.38979e+06 0 -173484 3.48801e+06 0 -156962 3.57734e+06 0 -139150 3.65692e+06 0 -117010 268894 0 -117940 362109 0 -119052 455877 0 -120349 550338 0 -121833 645634 0 -123508 741910 0 -125375 839310 0 -127438 937980 0 -129699 1.03807e+06 0 -132161 1.13972e+06 0 -134822 1.24308e+06 0 -137681 1.34831e+06 0 -140729 1.45554e+06 0 -143951 1.5649e+06 0 -147320 1.67652e+06 0 -150799 1.79048e+06 0 -154327 1.90686e+06 0 -157821 2.02565e+06 0 -161169 2.1468e+06 0 -164224 2.27013e+06 0 -166803 2.39538e+06 0 -168685 2.5221e+06 0 -169616 2.64968e+06 0 -169325 2.7773e+06 0 -167540 2.90394e+06 0 -164018 3.02839e+06 0 -158579 3.14924e+06 0 -151138 3.26501e+06 0 -141738 3.3742e+06 0 -130562 3.4754e+06 0 -117920 3.5674e+06 0 -104250 3.64929e+06 0 -77746.9 179161 0 -78262.8 274944 0 -78906.2 371176 0 -79679.6 468010 0 -80584.3 565601 0 -81622.2 664106 0 -82795.3 763684 0 -84105.8 864492 0 -85555.7 966690 0 -87146.7 1.07044e+06 0 -88879.5 1.17591e+06 0 -90753.2 1.28325e+06 0 -92764.2 1.39262e+06 0 -94904.5 1.50418e+06 0 -97159.5 1.61805e+06 0 -99505.7 1.73436e+06 0 -101907 1.85318e+06 0 -104311 1.97455e+06 0 -106645 2.09841e+06 0 -108811 2.22462e+06 0 -110687 2.35292e+06 0 -112120 2.48287e+06 0 -112934 2.61387e+06 0 -112936 2.74506e+06 0 -111927 2.8754e+06 0 -109728 3.0036e+06 0 -106200 3.12821e+06 0 -101272 3.24765e+06 0 -94963 3.36033e+06 0 -87395.7 3.46473e+06 0 -78786.8 3.55956e+06 0 -69447 3.64386e+06 0 -38794.7 89549.4 0 -38998.1 187989 0 -39267.5 286756 0 -39605.5 386017 0 -40012.6 485943 0 -40489.7 586705 0 -41037.8 688473 0 -41658 791421 0 -42351.4 895723 0 -43119.1 1.00155e+06 0 -43961.9 1.10909e+06 0 -44879.8 1.21851e+06 0 -45871.7 1.32999e+06 0 -46934.8 1.44368e+06 0 -48062.9 1.55976e+06 0 -49246 1.67836e+06 0 -50467.7 1.79958e+06 0 -51703.5 1.92347e+06 0 -52918.5 2.05001e+06 0 -54065.2 2.1791e+06 0 -55081.4 2.31047e+06 0 -55889.5 2.44372e+06 0 -56397.2 2.57823e+06 0 -56501.5 2.71314e+06 0 -56095.1 2.84738e+06 0 -55077.6 2.97959e+06 0 -53369 3.10824e+06 0 -50924.9 3.23163e+06 0 -47749.3 3.34807e+06 0 -43903.4 3.45592e+06 0 -39500.8 3.55379e+06 0 -34708.1 3.64061e+06 0 0 -6.0083 0 0 101182 0 0 202565 0 0 304319 0 0 406630 0 0 509684 0 0 613666 0 0 718763 0 0 825165 0 0 933062 0 0 1.04265e+06 0 0 1.15411e+06 0 0 1.26764e+06 0 0 1.38344e+06 0 0 1.50166e+06 0 0 1.62249e+06 0 0 1.74604e+06 0 0 1.8724e+06 0 0 2.00158e+06 0 0 2.1335e+06 0 0 2.26795e+06 0 0 2.40453e+06 0 0 2.54263e+06 0 0 2.68141e+06 0 0 2.81973e+06 0 0 2.9562e+06 0 0 3.08917e+06 0 0 3.21684e+06 0 0 3.33735e+06 0 0 3.44893e+06 0 0 3.55003e+06 0 0 3.63951e+06 0 </DataArray> 
</PointData> 
<Points> 
<DataArray type="Float32" NumberOfComponents="3"> 