<?xml version="1.0"?> 
<VTKFile type="StructuredGrid" version="0.1"> 
<StructuredGrid WholeExtent="0 15 0 15 0 0"> 
<Piece Extent="0 15 0 15 0 0"> 
<PointData>
<DataArray type="Float32" Name="E" format="ascii" NumberOfComponents="3"> 
-1.27428e+06 1.35668e+06 0 -1.33217e+06 1.48504e+06 0 -1.36442e+06 1.65479e+06 0 -1.35022e+06 1.85362e+06 0 -1.27812e+06 2.05656e+06 0 -1.15431e+06 2.23572e+06 0 -999375 2.37395e+06 0 -836177 2.46967e+06 0 -680590 2.53152e+06 0 -540010 2.57073e+06 0 -416144 2.59684e+06 0 -308022 2.61668e+06 0 -213859 2.6348e+06 0 -131939 2.65423e+06 0 -60931.4 2.67708e+06 0 -18.1206 2.70488e+06 0 -1.32182e+06 1.35393e+06 0 -1.38523e+06 1.48652e+06 0 -1.42146e+06 1.66163e+06 0 -1.40934e+06 1.86657e+06 0 -1.33721e+06 2.07564e+06 0 -1.21147e+06 2.26001e+06 0 -1.05344e+06 2.40181e+06 0 -886898 2.49925e+06 0 -728454 2.56121e+06 0 -585872 2.59934e+06 0 -460923 2.6235e+06 0 -352547 2.64063e+06 0 -258813 2.65528e+06 0 -177831 2.67032e+06 0 -108071 2.68756e+06 0 -48463.1 2.70819e+06 0 -1.37511e+06 1.34855e+06 0 -1.44425e+06 1.48619e+06 0 -1.48462e+06 1.66754e+06 0 -1.47463e+06 1.87951e+06 0 -1.40235e+06 2.09563e+06 0 -1.27434e+06 2.28609e+06 0 -1.11267e+06 2.43218e+06 0 -942139 2.53185e+06 0 -780189 2.59424e+06 0 -635006 2.63149e+06 0 -508441 2.65383e+06 0 -399329 2.66845e+06 0 -305568 2.67993e+06 0 -225073 2.69107e+06 0 -156115 2.7035e+06 0 -97385.2 2.7182e+06 0 -1.43522e+06 1.34012e+06 0 -1.5103e+06 1.48373e+06 0 -1.55499e+06 1.67229e+06 0 -1.54722e+06 1.89234e+06 0 -1.47466e+06 2.11662e+06 0 -1.34401e+06 2.31423e+06 0 -1.17807e+06 2.4655e+06 0 -1.00278e+06 2.56803e+06 0 -836537 2.63125e+06 0 -688036 2.66784e+06 0 -559227 2.68853e+06 0 -448832 2.70082e+06 0 -354551 2.70941e+06 0 -274088 2.71708e+06 0 -205494 2.7254e+06 0 -147260 2.73521e+06 0 -1.50345e+06 1.32807e+06 0 -1.58474e+06 1.47869e+06 0 -1.634e+06 1.6756e+06 0 -1.62856e+06 1.90496e+06 0 -1.55562e+06 2.13872e+06 0 -1.42189e+06 2.34477e+06 0 -1.25094e+06 2.50233e+06 0 -1.06997e+06 2.60853e+06 0 -898480 2.67308e+06 0 -745782 2.7093e+06 0 -613969 2.72852e+06 0 -501644 2.73864e+06 0 -406284 2.74457e+06 0 -325358 2.74917e+06 0 -256695 2.75398e+06 0 -198579 2.75977e+06 0 -1.58146e+06 1.31168e+06 0 -1.66931e+06 1.47051e+06 0 -1.72343e+06 1.67707e+06 0 -1.72049e+06 1.91721e+06 0 -1.64709e+06 2.16203e+06 0 -1.50982e+06 2.37812e+06 0 -1.33301e+06 2.54336e+06 0 -1.14523e+06 2.65428e+06 0 -967309 2.72083e+06 0 -809314 2.75704e+06 0 -673551 2.775e+06 0 -558501 2.78312e+06 0 -461399 2.7866e+06 0 -379447 2.78844e+06 0 -310231 2.79022e+06 0 -251812 2.79272e+06 0 -1.67139e+06 1.28999e+06 0 -1.76622e+06 1.45842e+06 0 -1.8256e+06 1.67617e+06 0 -1.82545e+06 1.92881e+06 0 -1.75156e+06 2.18664e+06 0 -1.61026e+06 2.41476e+06 0 -1.42659e+06 2.58951e+06 0 -1.23062e+06 2.70654e+06 0 -1.04477e+06 2.77598e+06 0 -880070 2.81269e+06 0 -739139 2.82963e+06 0 -620353 2.83589e+06 0 -520677 2.83708e+06 0 -437015 2.83641e+06 0 -366670 2.83556e+06 0 -307557 2.83536e+06 0 -1.77604e+06 1.2617e+06 0 -1.87839e+06 1.44134e+06 0 -1.94359e+06 1.67209e+06 0 -1.94665e+06 1.93934e+06 0 -1.87237e+06 2.21256e+06 0 -1.72657e+06 2.45526e+06 0 -1.53486e+06 2.64191e+06 0 -1.32901e+06 2.76696e+06 0 -1.13329e+06 2.84056e+06 0 -960035 2.87845e+06 0 -812319 2.89471e+06 0 -688458 2.89926e+06 0 -585113 2.89828e+06 0 -498851 2.89526e+06 0 -426674 2.89208e+06 0 -366097 2.88954e+06 0 -1.89913e+06 1.22501e+06 0 -2.00971e+06 1.41776e+06 0 -2.08152e+06 1.66366e+06 0 -2.08846e+06 1.94807e+06 0 -2.01409e+06 2.23968e+06 0 -1.86338e+06 2.50029e+06 0 -1.66234e+06 2.70207e+06 0 -1.44448e+06 2.83781e+06 0 -1.23638e+06 2.91741e+06 0 -1.05205e+06 2.95754e+06 0 -895321 2.97358e+06 0 -764523 2.9766e+06 0 -656002 2.97349e+06 0 -565900 2.9682e+06 0 -490869 2.96277e+06 0 -428384 2.9583e+06 0 -2.04563e+06 1.17733e+06 0 -2.16549e+06 1.38536e+06 0 -2.24507e+06 1.64904e+06 0 -2.25696e+06 1.9538e+06 0 -2.18318e+06 2.26761e+06 0 -2.02741e+06 2.55049e+06 0 -1.81564e+06 2.77189e+06 0 -1.58315e+06 2.92224e+06 0 -1.35929e+06 3.01066e+06 0 -1.16037e+06 3.05469e+06 0 -991432 3.0713e+06 0 -850984 3.07301e+06 0 -735067 3.06774e+06 0 -639372 3.06009e+06 0 -559992 3.05245e+06 0 -493722 3.04581e+06 0 -2.22238e+06 1.1146e+06 0 -2.35318e+06 1.34053e+06 0 -2.4423e+06 1.62527e+06 0 -2.46085e+06 1.95437e+06 0 -2.38901e+06 2.29531e+06 0 -2.22857e+06 2.60635e+06 0 -2.00481e+06 2.85378e+06 0 -1.75453e+06 3.02467e+06 0 -1.51032e+06 3.12649e+06 0 -1.29173e+06 3.17728e+06 0 -1.10574e+06 3.19583e+06 0 -951468 3.19665e+06 0 -824665 3.18913e+06 0 -720483 3.17874e+06 0 -634634 3.16841e+06 0 -563694 3.15977e+06 0 -2.43912e+06 1.03007e+06 0 -2.58363e+06 1.27731e+06 0 -2.68505e+06 1.58734e+06 0 -2.713e+06 1.94589e+06 0 -2.64565e+06 2.32035e+06 0 -2.48215e+06 2.66762e+06 0 -2.24582e+06 2.95047e+06 0 -1.97423e+06 3.15133e+06 0 -1.70349e+06 3.27439e+06 0 -1.4576e+06 3.33728e+06 0 -1.24683e+06 3.3606e+06 0 -1.07178e+06 3.36144e+06 0 -928305 3.35149e+06 0 -810820 3.33773e+06 0 -714002 3.32388e+06 0 -633656 3.31156e+06 0 -2.71069e+06 911675 0 -2.87346e+06 1.18526e+06 0 -2.99138e+06 1.52635e+06 0 -3.03316e+06 1.92095e+06 0 -2.97507e+06 2.33726e+06 0 -2.81268e+06 2.73187e+06 0 -2.56539e+06 3.0642e+06 0 -2.26957e+06 3.3106e+06 0 -1.96435e+06 3.46934e+06 0 -1.67947e+06 3.55527e+06 0 -1.43075e+06 3.58993e+06 0 -1.22219e+06 3.59347e+06 0 -1.05087e+06 3.58091e+06 0 -911082 3.5619e+06 0 -796778 3.54203e+06 0 -702445 3.52428e+06 0 -3.06166e+06 736998 0 -3.24963e+06 1.04524e+06 0 -3.3903e+06 1.42558e+06 0 -3.45301e+06 1.86471e+06 0 -3.41302e+06 2.33336e+06 0 -3.26142e+06 2.79032e+06 0 -3.01074e+06 3.19336e+06 0 -2.69194e+06 3.51187e+06 0 -2.34416e+06 3.73445e+06 0 -2.00291e+06 3.86811e+06 0 -1.69256e+06 3.93149e+06 0 -1.42478e+06 3.94668e+06 0 -1.20119e+06 3.93338e+06 0 -1.01744e+06 3.90617e+06 0 -866914 3.87432e+06 0 -743420 3.84289e+06 0 -3.53689e+06 462563 0 -3.75923e+06 820194 0 -3.93118e+06 1.25166e+06 0 -4.02603e+06 1.74551e+06 0 -4.02048e+06 2.27832e+06 0 -3.90128e+06 2.81618e+06 0 -3.67039e+06 3.32054e+06 0 -3.3459e+06 3.7565e+06 0 -2.95796e+06 4.10031e+06 0 -2.54143e+06 4.34294e+06 0 -2.12851e+06 4.48914e+06 0 -1.74385e+06 4.55326e+06 0 -1.40296e+06 4.55429e+06 0 -1.1129e+06 4.51184e+06 0 -874125 4.44376e+06 0 -682488 4.36541e+06 0 -4.22317e+06 5.96046e-07 0 -4.48886e+06 432642 0 -4.70198e+06 931613 0 -4.84599e+06 1.48956e+06 0 -4.90492e+06 2.09408e+06 0 -4.86508e+06 2.72766e+06 0 -4.71686e+06 3.36805e+06 0 -4.45633e+06 3.98952e+06 0 -4.08639e+06 4.56453e+06 0 -3.6174e+06 5.06606e+06 0 -3.06678e+06 5.46994e+06 0 -2.45785e+06 5.75696e+06 0 -1.8178e+06 5.91389e+06 0 -1.17554e+06 5.93313e+06 0 -560044 5.81071e+06 0 -2.38419e-07 5.54258e+06 0 </DataArray> 
</PointData> 
<Points> 
<DataArray type="Float32" NumberOfComponents="3"> 
0.19 0.055 0 0.192667 0.0598667 0 0.195333 0.0647333 0 0.198 0.0696 0 0.200667 0.0744667 0 0.203333 0.0793333 0 0.206 0.0842 0 0.208667 0.0890667 0 0.211333 0.0939333 0 0.214 0.0988 0 0.216667 0.103667 0 0.219333 0.108533 0 0.222 0.1134 0 0.224667 0.118267 0 0.227333 0.123133 0 0.23 0.128 0 0.192 0.055 0 0.19443 0.0596151 0 0.196885 0.064247 0 0.199364 0.068891 0 0.201864 0.0735423 0 0.204383 0.078196 0 0.206917 0.0828473 0 0.209465 0.0874912 0 0.212023 0.0921229 0 0.214589 0.0967375 0 0.217161 0.10133 0 0.219734 0.105896 0 0.222308 0.110431 0 0.224878 0.114929 0 0.227443 0.119387 0 0.23 0.1238 0 0.194 0.055 0 0.196201 0.0593622 0 0.198451 0.0637562 0 0.200746 0.068173 0 0.203081 0.0726035 0 0.205451 0.0770386 0 0.207852 0.0814687 0 0.210279 0.0858845 0 0.212727 0.0902765 0 0.21519 0.0946355 0 0.217663 0.0989523 0 0.220141 0.103218 0 0.222619 0.107423 0 0.225092 0.111561 0 0.227554 0.115622 0 0.23 0.1196 0 0.196 0.055 0 0.197982 0.0591082 0 0.200032 0.0632609 0 0.202145 0.0674458 0 0.204316 0.0716501 0 0.206538 0.0758605 0 0.208805 0.0800636 0 0.21111 0.0842456 0 0.213444 0.0883932 0 0.215802 0.092493 0 0.218175 0.096532 0 0.220555 0.100498 0 0.222935 0.104378 0 0.225307 0.108162 0 0.227665 0.111839 0 0.23 0.1154 0 0.198 0.055 0 0.199771 0.0588528 0 0.201627 0.0627611 0 0.203563 0.0667094 0 0.205571 0.0706817 0 0.207645 0.0746613 0 0.209777 0.078631 0 0.211957 0.0825736 0 0.214177 0.0864718 0 0.216426 0.0903088 0 0.218695 0.0940683 0 0.220975 0.0977348 0 0.223255 0.101294 0 0.225525 0.104732 0 0.227776 0.108038 0 0.23 0.1112 0 0.2 0.055 0 0.201569 0.0585963 0 0.203237 0.0622566 0 0.204998 0.0659634 0 0.206846 0.0696979 0 0.208772 0.0734403 0 0.210767 0.0771703 0 0.212822 0.0808674 0 0.214924 0.0845112 0 0.217062 0.0880817 0 0.219226 0.0915599 0 0.221402 0.094928 0 0.223578 0.0981696 0 0.225744 0.10127 0 0.227888 0.104217 0 0.23 0.107 0 0.202 0.055 0 0.203375 0.0583384 0 0.204861 0.0617475 0 0.206452 0.0652078 0 0.208141 0.0686984 0 0.20992 0.072197 0 0.211778 0.0756806 0 0.213704 0.079126 0 0.215686 0.08251 0 0.217711 0.0858103 0 0.219766 0.0890055 0 0.221835 0.0920762 0 0.223906 0.0950049 0 0.225966 0.0977764 0 0.228001 0.100378 0 0.23 0.1028 0 0.204 0.055 0 0.205191 0.0580793 0 0.206501 0.0612336 0 0.207925 0.0644423 0 0.209457 0.0676827 0 0.211088 0.0709306 0 0.212808 0.074161 0 0.214605 0.0773483 0 0.216465 0.0804672 0 0.218373 0.0834933 0 0.220315 0.086404 0 0.222276 0.0891785 0 0.224239 0.0917988 0 0.22619 0.0942499 0 0.228114 0.0965198 0 0.23 0.0986 0 0.206 0.055 0 0.207016 0.0578189 0 0.208156 0.0607149 0 0.209418 0.0636667 0 0.210795 0.0666505 0 0.212279 0.0696407 0 0.21386 0.0726107 0 0.215525 0.0755331 0 0.217259 0.0783812 0 0.219049 0.0811294 0 0.220876 0.0837539 0 0.222723 0.0862336 0 0.224575 0.0885506 0 0.226415 0.0906904 0 0.228228 0.0926425 0 0.23 0.0944 0 0.208 0.055 0 0.208849 0.0575572 0 0.209827 0.0601914 0 0.21093 0.0628808 0 0.212154 0.0656013 0 0.213492 0.0683265 0 0.214933 0.0710285 0 0.216464 0.0736792 0 0.218071 0.0762509 0 0.219738 0.0787171 0 0.221446 0.0810539 0 0.223178 0.0832404 0 0.224916 0.0852593 0 0.226643 0.0870975 0 0.228342 0.088746 0 0.23 0.0902 0 0.21 0.055 0 0.210692 0.0572942 0 0.211513 0.0596629 0 0.212462 0.0620845 0 0.213536 0.0645348 0 0.214728 0.0669873 0 0.216028 0.0694137 0 0.217424 0.0717855 0 0.218901 0.0740746 0 0.220441 0.0762549 0 0.222028 0.0783026 0 0.223641 0.0801977 0 0.225262 0.0819242 0 0.226873 0.0834706 0 0.228457 0.08483 0 0.23 0.086 0 0.212 0.055 0 0.212544 0.0570299 0 0.213216 0.0591293 0 0.214015 0.0612775 0 0.214941 0.0634506 0 0.215987 0.0656224 0 0.217146 0.0677651 0 0.218404 0.0698504 0 0.219748 0.071851 0 0.22116 0.0737412 0 0.222621 0.0754985 0 0.224111 0.0771042 0 0.225612 0.0785443 0 0.227105 0.0798092 0 0.228573 0.0808945 0 0.23 0.0818 0 0.214 0.055 0 0.214406 0.0567643 0 0.214935 0.0585907 0 0.215589 0.0604596 0 0.21637 0.0623481 0 0.217271 0.064231 0 0.218287 0.0660817 0 0.219406 0.0678729 0 0.220614 0.0695785 0 0.221893 0.0711744 0 0.223225 0.0726401 0 0.224589 0.0739588 0 0.225967 0.0751187 0 0.22734 0.0761129 0 0.228689 0.0769392 0 0.23 0.0776 0 0.216 0.055 0 0.216276 0.0564973 0 0.21667 0.0580469 0 0.217185 0.0596305 0 0.217822 0.0612269 0 0.218581 0.0628125 0 0.219453 0.0643623 0 0.220431 0.0658513 0 0.221499 0.0672553 0 0.222642 0.0685529 0 0.223841 0.0697257 0 0.225076 0.07076 0 0.226327 0.0716466 0 0.227576 0.0723812 0 0.228806 0.0729642 0 0.23 0.0734 0 0.218 0.055 0 0.218157 0.056229 0 0.218422 0.0574979 0 0.218802 0.0587901 0 0.2193 0.0600865 0 0.219916 0.0613659 0 0.220645 0.0626058 0 0.221478 0.0637842 0 0.222404 0.06488 0 0.223407 0.0658748 0 0.224469 0.0667538 0 0.22557 0.0675065 0 0.226692 0.0681269 0 0.227815 0.0686135 0 0.228923 0.0689691 0 0.23 0.0692 0 0.22 0.055 0 0.220046 0.0559594 0 0.220191 0.0569435 0 0.220441 0.0579381 0 0.220803 0.0589265 0 0.221277 0.0598904 0 0.221862 0.0608111 0 0.222549 0.0616701 0 0.22333 0.0624505 0 0.224189 0.0631383 0 0.22511 0.0637226 0 0.226074 0.0641969 0 0.227062 0.0645586 0 0.228056 0.0648093 0 0.229041 0.0649539 0 0.23 0.065 0 
</DataArray>
</Points> 
</Piece> 
</StructuredGrid> 
</VTKFile> 
