<?xml version="1.0"?> 
<VTKFile type="StructuredGrid" version="0.1"> 
<StructuredGrid WholeExtent="0 15 0 15 0 0"> 
<Piece Extent="0 15 0 15 0 0"> 
<PointData>
<DataArray type="Float32" Name="E" format="ascii" NumberOfComponents="3"> 
1.52877e+06 -290.907 0 1.51593e+06 89722.8 0 1.50518e+06 181603 0 1.49672e+06 276565 0 1.49038e+06 375917 0 1.486e+06 481233 0 1.48356e+06 594459 0 1.48312e+06 718098 0 1.48498e+06 855488 0 1.48978e+06 1.01125e+06 0 1.49873e+06 1.19213e+06 0 1.51434e+06 1.40841e+06 0 1.54116e+06 1.67702e+06 0 1.58842e+06 2.02755e+06 0 1.67237e+06 2.51637e+06 0 1.81564e+06 3.25935e+06 0 1.47737e+06 -2.42605 0 1.46494e+06 87997.2 0 1.45435e+06 178055 0 1.44534e+06 271150 0 1.43767e+06 368540 0 1.43112e+06 471743 0 1.42549e+06 582649 0 1.42065e+06 703696 0 1.41648e+06 838142 0 1.41298e+06 990528 0 1.41031e+06 1.16746e+06 0 1.409e+06 1.37913e+06 0 1.41015e+06 1.64215e+06 0 1.41575e+06 1.98553e+06 0 1.42854e+06 2.46379e+06 0 1.44699e+06 3.18159e+06 0 1.42468e+06 10.4975 0 1.41301e+06 86361.3 0 1.40254e+06 174701 0 1.39298e+06 266022 0 1.38404e+06 361529 0 1.37541e+06 462683 0 1.36676e+06 571304 0 1.35772e+06 689741 0 1.3478e+06 821131 0 1.33639e+06 969849 0 1.32265e+06 1.14225e+06 0 1.30532e+06 1.34807e+06 0 1.28227e+06 1.6031e+06 0 1.24921e+06 1.93457e+06 0 1.19645e+06 2.39269e+06 0 1.099e+06 3.07295e+06 0 1.37132e+06 5.11547 0 1.36034e+06 84838.9 0 1.34996e+06 171595 0 1.33986e+06 261257 0 1.32969e+06 354983 0 1.31907e+06 454171 0 1.30754e+06 560559 0 1.29448e+06 676388 0 1.27907e+06 804640 0 1.26014e+06 949450 0 1.2359e+06 1.11679e+06 0 1.20349e+06 1.31571e+06 0 1.15787e+06 1.56068e+06 0 1.08933e+06 1.87613e+06 0 977355 2.30596e+06 0 774896 2.93245e+06 0 1.31753e+06 7.56156 0 1.30718e+06 83463.8 0 1.29685e+06 168787 0 1.2862e+06 256925 0 1.27485e+06 348988 0 1.26232e+06 446308 0 1.24802e+06 550533 0 1.23112e+06 663775 0 1.21047e+06 788828 0 1.18437e+06 929529 0 1.15019e+06 1.09135e+06 0 1.10365e+06 1.28246e+06 0 1.03719e+06 1.51558e+06 0 936542 1.81151e+06 0 772372 2.20608e+06 0 479288 2.76324e+06 0 1.26355e+06 6.10108 0 1.25376e+06 82262.1 0 1.24345e+06 166317 0 1.23226e+06 253081 0 1.21977e+06 343614 0 1.2054e+06 439177 0 1.18843e+06 541319 0 1.16784e+06 652008 0 1.14217e+06 773820 0 1.10924e+06 910241 0 1.06568e+06 1.06615e+06 0 1.00596e+06 1.24864e+06 0 920446 1.46836e+06 0 791238 1.74184e+06 0 582490 2.0954e+06 0 216318 2.5706e+06 0 1.20961e+06 6.4538 0 1.20034e+06 81250 0 1.19004e+06 164212 0 1.17833e+06 249763 0 1.16471e+06 338908 0 1.14856e+06 432834 0 1.12901e+06 532982 0 1.10486e+06 641162 0 1.07437e+06 759702 0 1.03494e+06 891692 0 982540 1.04133e+06 0 910595 1.2145e+06 0 807841 1.41949e+06 0 653765 1.66809e+06 0 408533 1.97622e+06 0 -11109.7 2.36093e+06 0 1.15594e+06 5.9588 0 1.14718e+06 80436.4 0 1.13689e+06 162489 0 1.12466e+06 246992 0 1.10995e+06 334897 0 1.09207e+06 427309 0 1.07002e+06 525555 0 1.04242e+06 631271 0 1.0073e+06 746513 0 961667 873933 0 900939 1.01698e+06 0 817726 1.18018e+06 0 699585 1.36932e+06 0 524443 1.59111e+06 0 251116 1.85073e+06 0 -201625 2.14106e+06 0 1.10277e+06 5.80578 0 1.09453e+06 79822.5 0 1.08426e+06 161148 0 1.07153e+06 244771 0 1.05576e+06 331582 0 1.03618e+06 422603 0 1.01169e+06 519036 0 980759 622330 0 941164 734248 0 889614 856960 0 821073 993109 0 727550 1.14578e+06 0 595906 1.31809e+06 0 403578 1.51162e+06 0 110627 1.72106e+06 0 -355417 1.91765e+06 0 1.05033e+06 5.50465 0 1.04263e+06 79402.6 0 1.0324e+06 160180 0 1.01919e+06 243083 0 1.0024e+06 328941 0 981155 418686 0 954282 513390 0 920096 614296 0 876183 722855 0 818986 840719 0 743136 969670 0 640275 1.11128e+06 0 497044 1.26598e+06 0 291460 1.43026e+06 0 -12778.7 1.58919e+06 0 -474055 1.69672e+06 0 998810 5.24845 0 991703 79164.3 0 981553 159561 0 967901 241895 0 950097 326931 0 927228 415506 0 898013 508551 0 860650 607093 0 812558 712243 0 749980 825108 0 667329 946567 0 556119 1.07665e+06 0 403258 1.21308e+06 0 188364 1.34759e+06 0 -119170 1.45698e+06 0 -560177 1.48326e+06 0 948411 4.96314 0 941961 79090.1 0 931936 159258 0 917870 241161 0 899083 325492 0 874608 412989 0 843088 504430 0 802614 600612 0 750476 702288 0 682780 809990 0 593846 923663 0 475308 1.04178e+06 0 314816 1.15946e+06 0 94540 1.26416e+06 0 -208819 1.32611e+06 0 -617092 1.28109e+06 0 899300 4.64719 0 893586 79158.1 0 883739 159231 0 869292 240822 0 849542 324551 0 823479 411045 0 789682 500920 0 746157 594728 0 690102 692843 0 617556 795202 0 522877 900797 0 398070 1.00657e+06 0 231992 1.1052e+06 0 10204.3 1.18048e+06 0 -282166 1.19813e+06 0 -648324 1.0927e+06 0 851626 4.28795 0 846738 79343.7 0 837124 159435 0 822327 240817 0 801630 324026 0 773991 409572 0 737937 497899 0 691416 589300 0 631575 683749 0 554459 780570 0 454604 877797 0 324631 970902 0 155055 1.05036e+06 0 -64473.5 1.0971e+06 0 -339769 1.07443e+06 0 -657070 919185 0 805516 3.82844 0 801549 79620.8 0 792224 159822 0 777104 241076 0 755471 323831 0 726261 408468 0 687967 495245 0 638504 584182 0 575013 674840 0 493623 765915 0 389199 854502 0 255208 934683 0 84269.4 995080 0 -129393 1.01459e+06 0 -382189 956334 0 -645418 760087 0 761074 3.23464 0 758122 79963 0 749138 160344 0 733717 241535 0 711151 323882 0 680368 407628 0 639846 492835 0 587495 579232 0 520500 665957 0 435158 751072 0 326809 830766 0 189993 897860 0 19869.9 939534 0 -184599 933624 0 -409801 845290 0 -612905 612905 0 </DataArray> 
</PointData> 
<Points> 
<DataArray type="Float32" NumberOfComponents="3"> 
0.391 0 0 0.391116 0.000693704 0 0.391232 0.00138741 0 0.391348 0.00208111 0 0.391463 0.00277482 0 0.391579 0.00346852 0 0.391695 0.00416223 0 0.391811 0.00485593 0 0.391927 0.00554964 0 0.392043 0.00624334 0 0.392159 0.00693704 0 0.392274 0.00763075 0 0.39239 0.00832445 0 0.392506 0.00901816 0 0.392622 0.00971186 0 0.392738 0.0104056 0 0.3914 0 0 0.391504 0.000668877 0 0.391608 0.00134 0 0.391713 0.00201339 0 0.391818 0.00268905 0 0.391923 0.00336699 0 0.392029 0.00404723 0 0.392135 0.00472977 0 0.392242 0.00541464 0 0.392349 0.00610183 0 0.392456 0.00679137 0 0.392563 0.00748326 0 0.392671 0.00817752 0 0.39278 0.00887415 0 0.392888 0.00957318 0 0.392997 0.0102746 0 0.3918 0 0 0.391894 0.000647908 0 0.391988 0.00129987 0 0.392084 0.00195594 0 0.392179 0.00261613 0 0.392276 0.00328051 0 0.392372 0.00394909 0 0.39247 0.00462193 0 0.392568 0.00529907 0 0.392667 0.00598054 0 0.392766 0.00666639 0 0.392866 0.00735666 0 0.392967 0.00805139 0 0.393068 0.00875063 0 0.39317 0.00945442 0 0.393273 0.0101628 0 0.3922 0 0 0.392285 0.00063083 0 0.392371 0.00126714 0 0.392458 0.00190901 0 0.392546 0.00255651 0 0.392634 0.00320971 0 0.392724 0.00386869 0 0.392814 0.00453353 0 0.392904 0.0052043 0 0.392996 0.00588109 0 0.393088 0.00656397 0 0.393182 0.00725303 0 0.393276 0.00794835 0 0.393371 0.00865002 0 0.393467 0.00935813 0 0.393563 0.0100728 0 0.3926 0 0 0.392678 0.000617669 0 0.392757 0.00124191 0 0.392837 0.00187284 0 0.392917 0.00251055 0 0.392999 0.00315517 0 0.393081 0.00380679 0 0.393165 0.00446555 0 0.393249 0.00513154 0 0.393334 0.0058049 0 0.39342 0.00648575 0 0.393507 0.00717421 0 0.393595 0.00787042 0 0.393684 0.00857449 0 0.393774 0.00928658 0 0.393865 0.0100068 0 0.393 0 0 0.393072 0.000608446 0 0.393144 0.00122426 0 0.393218 0.00184759 0 0.393292 0.00247856 0 0.393368 0.00311731 0 0.393444 0.00376399 0 0.393521 0.00441876 0 0.3936 0.00508175 0 0.393679 0.00575314 0 0.393759 0.00643307 0 0.39384 0.00712171 0 0.393923 0.00781924 0 0.394006 0.00852582 0 0.39409 0.00924163 0 0.394176 0.00996685 0 0.3934 0 0 0.393466 0.000603176 0 0.393533 0.00121425 0 0.393601 0.00183339 0 0.39367 0.00246073 0 0.39374 0.00309646 0 0.39381 0.00374074 0 0.393882 0.00439375 0 0.393955 0.00505565 0 0.394028 0.00572665 0 0.394103 0.00640691 0 0.394179 0.00709665 0 0.394255 0.00779604 0 0.394333 0.00850532 0 0.394412 0.00922467 0 0.394492 0.00995432 0 0.3938 0 0 0.393861 0.00060187 0 0.393923 0.00121192 0 0.393985 0.00183031 0 0.394049 0.00245723 0 0.394113 0.00309284 0 0.394179 0.00373733 0 0.394245 0.00439088 0 0.394312 0.00505369 0 0.39438 0.00572596 0 0.394449 0.00640789 0 0.394519 0.00709969 0 0.39459 0.00780158 0 0.394663 0.00851377 0 0.394736 0.0092365 0 0.39481 0.00997001 0 0.3942 0 0 0.394256 0.000604529 0 0.394313 0.00121727 0 0.39437 0.0018384 0 0.394428 0.00246809 0 0.394487 0.0031065 0 0.394547 0.00375384 0 0.394608 0.00441028 0 0.394669 0.00507603 0 0.394732 0.00575127 0 0.394795 0.00643621 0 0.394859 0.00713107 0 0.394925 0.00783605 0 0.394991 0.00855139 0 0.395058 0.00927732 0 0.395126 0.0100141 0 0.3946 0 0 0.394651 0.000611154 0 0.394702 0.00123031 0 0.394754 0.00185763 0 0.394807 0.00249328 0 0.39486 0.00313742 0 0.394914 0.00379022 0 0.394969 0.00445186 0 0.395025 0.00512252 0 0.395081 0.00580238 0 0.395138 0.00649165 0 0.395196 0.0071905 0 0.395255 0.00789915 0 0.395314 0.0086178 0 0.395375 0.00934667 0 0.395436 0.010086 0 0.395 0 0 0.395045 0.000621735 0 0.395091 0.001251 0 0.395137 0.00188794 0 0.395183 0.00253269 0 0.39523 0.00318539 0 0.395278 0.0038462 0 0.395327 0.00451527 0 0.395376 0.00519274 0 0.395425 0.00587879 0 0.395476 0.00657357 0 0.395526 0.00727726 0 0.395578 0.00799002 0 0.39563 0.00871203 0 0.395683 0.00944348 0 0.395737 0.0101845 0 0.3954 0 0 0.395439 0.00063626 0 0.395478 0.00127929 0 0.395517 0.00192921 0 0.395557 0.00258612 0 0.395597 0.00325014 0 0.395638 0.00392138 0 0.395679 0.00459996 0 0.39572 0.005286 0 0.395762 0.00597963 0 0.395805 0.00668097 0 0.395848 0.00739015 0 0.395891 0.00810731 0 0.395935 0.00883258 0 0.39598 0.0095661 0 0.396025 0.010308 0 0.3958 0 0 0.395831 0.00065471 0 0.395863 0.00131511 0 0.395894 0.00198128 0 0.395926 0.00265329 0 0.395958 0.00333122 0 0.395991 0.00401515 0 0.396024 0.00470515 0 0.396057 0.00540131 0 0.39609 0.00610372 0 0.396124 0.00681245 0 0.396158 0.0075276 0 0.396192 0.00824924 0 0.396227 0.00897747 0 0.396262 0.00971239 0 0.396297 0.0104541 0 0.3962 0 0 0.396222 0.00067706 0 0.396245 0.00135836 0 0.396268 0.00204394 0 0.396291 0.00273384 0 0.396314 0.00342811 0 0.396337 0.00412678 0 0.39636 0.00482989 0 0.396383 0.00553749 0 0.396407 0.00624963 0 0.396431 0.00696633 0 0.396455 0.00768766 0 0.396479 0.00841365 0 0.396503 0.00914436 0 0.396527 0.00987981 0 0.396552 0.0106201 0 0.3966 0 0 0.396612 0.000703279 0 0.396624 0.00140892 0 0.396637 0.00211695 0 0.396649 0.00282736 0 0.396661 0.00354017 0 0.396673 0.00425539 0 0.396686 0.00497304 0 0.396698 0.00569313 0 0.396711 0.00641567 0 0.396723 0.00714067 0 0.396736 0.00786815 0 0.396748 0.00859812 0 0.396761 0.00933058 0 0.396774 0.0100656 0 0.396786 0.0108031 0 0.397 0 0 0.397 0.000733333 0 0.397 0.00146667 0 0.397 0.0022 0 0.397 0.00293333 0 0.397 0.00366667 0 0.397 0.0044 0 0.397 0.00513333 0 0.397 0.00586667 0 0.397 0.0066 0 0.397 0.00733333 0 0.397 0.00806667 0 0.397 0.0088 0 0.397 0.00953333 0 0.397 0.0102667 0 0.397 0.011 0 
</DataArray>
</Points> 
</Piece> 
</StructuredGrid> 
</VTKFile> 
