<?xml version="1.0"?> 
<VTKFile type="StructuredGrid" version="0.1"> 
<StructuredGrid WholeExtent="0 15 0 15 0 0"> 
<Piece Extent="0 15 0 15 0 0"> 
<PointData>
<DataArray type="Float32" Name="E" format="ascii" NumberOfComponents="3"> 
-393419 101531 0 -367561 101605 0 -341614 101722 0 -315597 101866 0 -289519 102023 0 -263386 102185 0 -237202 102345 0 -210972 102498 0 -184699 102639 0 -158388 102767 0 -132043 102879 0 -105669 102972 0 -79272.4 103047 0 -52858.2 103100 0 -26432.1 103133 0 0 103144 0 -407834 196579 0 -381171 198502 0 -354411 200415 0 -327555 202323 0 -300609 204223 0 -273578 206112 0 -246467 207985 0 -219283 209834 0 -192033 211656 0 -164722 213443 0 -137358 215193 0 -109947 216901 0 -82498.4 218562 0 -55018.8 220174 0 -27516.6 221734 0 0 223239 0 -423568 291444 0 -396109 295178 0 -368519 298938 0 -340797 302706 0 -312946 306467 0 -284969 310209 0 -256873 313920 0 -228663 317590 0 -200349 321208 0 -171939 324767 0 -143441 328257 0 -114866 331670 0 -86223.3 335000 0 -57523.8 338240 0 -28778.9 341384 0 0 344428 0 -440868 385713 0 -412716 391520 0 -384345 397352 0 -355765 403188 0 -326983 409009 0 -298009 414797 0 -268852 420535 0 -239521 426206 0 -210027 431797 0 -180379 437292 0 -150591 442678 0 -120673 447942 0 -90641.2 453071 0 -60508.1 458055 0 -30289.2 462883 0 0 467546 0 -460715 479513 0 -431825 487696 0 -402630 495890 0 -373138 504074 0 -343359 512227 0 -313300 520326 0 -282972 528350 0 -252385 536277 0 -221550 544084 0 -190480 551751 0 -159188 559257 0 -127692 566582 0 -96005.5 573706 0 -64148.5 580611 0 -32139.7 587279 0 0 593694 0 -483826 573308 0 -454168 584151 0 -424107 595010 0 -393644 605857 0 -362784 616666 0 -331533 627406 0 -299897 638048 0 -267886 648561 0 -235509 658914 0 -202780 669075 0 -169713 679014 0 -136326 688698 0 -102638 698099 0 -68670.6 707185 0 -34449.1 715928 0 0 724301 0 -510862 667424 0 -480456 681268 0 -449524 695153 0 -418058 709049 0 -386056 722920 0 -353512 736726 0 -320426 750424 0 -286802 763969 0 -252645 777317 0 -217966 790418 0 -182779 803227 0 -147103 815695 0 -110958 827774 0 -74372.2 839418 0 -37374.7 850580 0 0 861217 0 -542517 762063 0 -511479 779294 0 -479763 796661 0 -447337 814109 0 -414178 831584 0 -380269 849029 0 -345597 866380 0 -310154 883574 0 -273938 900539 0 -236954 917207 0 -199213 933503 0 -160732 949353 0 -121536 964686 0 -81656.7 979427 0 -41130.2 993505 0 0 1.00685e+06 0 -579741 857047 0 -548340 878268 0 -516036 899744 0 -482781 921428 0 -448526 943251 0 -413227 965131 0 -376845 986975 0 -339355 1.00868e+06 0 -300740 1.03015e+06 0 -260997 1.05126e+06 0 -220134 1.07191e+06 0 -178170 1.09198e+06 0 -135132 1.11137e+06 0 -91058.6 1.12997e+06 0 -45996.8 1.14766e+06 0 0 1.16435e+06 0 -623867 952245 0 -592521 978053 0 -560023 1.00445e+06 0 -526241 1.03132e+06 0 -491066 1.05856e+06 0 -454406 1.08602e+06 0 -416189 1.11355e+06 0 -376363 1.14101e+06 0 -334894 1.16821e+06 0 -291772 1.195e+06 0 -247007 1.22119e+06 0 -200627 1.24663e+06 0 -152677 1.27115e+06 0 -103213 1.2946e+06 0 -52298.4 1.31684e+06 0 0 1.33774e+06 0 -676600 1.04636e+06 0 -646232 1.07797e+06 0 -614249 1.11058e+06 0 -580462 1.14408e+06 0 -544681 1.1783e+06 0 -506738 1.21303e+06 0 -466499 1.24803e+06 0 -423873 1.28301e+06 0 -378818 1.3177e+06 0 -331344 1.35182e+06 0 -281499 1.3851e+06 0 -229365 1.41731e+06 0 -175042 1.44823e+06 0 -118640 1.4777e+06 0 -60263.8 1.50556e+06 0 0 1.5317e+06 0 -741081 1.13856e+06 0 -712893 1.17722e+06 0 -682579 1.21781e+06 0 -649672 1.26011e+06 0 -613766 1.3038e+06 0 -574535 1.34846e+06 0 -531760 1.39359e+06 0 -485337 1.43868e+06 0 -435278 1.48321e+06 0 -381707 1.52671e+06 0 -324833 1.56879e+06 0 -264920 1.60913e+06 0 -202249 1.64753e+06 0 -137080 1.68389e+06 0 -69621.8 1.71817e+06 0 0 1.75043e+06 0 -820970 1.22529e+06 0 -797825 1.27348e+06 0 -771399 1.32531e+06 0 -740824 1.38032e+06 0 -705310 1.43778e+06 0 -664257 1.49678e+06 0 -617346 1.55629e+06 0 -564589 1.61519e+06 0 -506321 1.67248e+06 0 -443132 1.72733e+06 0 -375762 1.77922e+06 0 -304992 1.82789e+06 0 -231542 1.8734e+06 0 -155997 1.91599e+06 0 -78756 1.95611e+06 0 0 1.9943e+06 0 -924808 1.30125e+06 0 -911243 1.36339e+06 0 -892501 1.43246e+06 0 -866396 1.50763e+06 0 -831064 1.58717e+06 0 -785372 1.66866e+06 0 -729166 1.74935e+06 0 -663292 1.82671e+06 0 -589394 1.89883e+06 0 -509553 1.96465e+06 0 -425898 2.02397e+06 0 -340294 2.07728e+06 0 -254169 2.12556e+06 0 -168470 2.17009e+06 0 -83702.3 2.21229e+06 0 0 2.25364e+06 0 -1.06536e+06 1.35579e+06 0 -1.07262e+06 1.43966e+06 0 -1.06995e+06 1.5395e+06 0 -1.0512e+06 1.65229e+06 0 -1.01173e+06 1.7721e+06 0 -949957 1.89119e+06 0 -868062 2.00211e+06 0 -771262 2.09969e+06 0 -665990 2.18187e+06 0 -558094 2.24934e+06 0 -451865 2.30456e+06 0 -349923 2.35066e+06 0 -253560 2.39084e+06 0 -163198 2.42796e+06 0 -78768.9 2.46456e+06 0 0 2.50282e+06 0 -1.27378e+06 1.35641e+06 0 -1.3309e+06 1.48435e+06 0 -1.36271e+06 1.65386e+06 0 -1.34884e+06 1.85286e+06 0 -1.27791e+06 2.05644e+06 0 -1.15545e+06 2.23635e+06 0 -1.00119e+06 2.37494e+06 0 -837816 2.47057e+06 0 -681641 2.53209e+06 0 -540491 2.57099e+06 0 -416249 2.5969e+06 0 -307942 2.61663e+06 0 -213723 2.63472e+06 0 -131813 2.65417e+06 0 -60853.6 2.67704e+06 0 0 2.70487e+06 0 </DataArray> 
</PointData> 
<Points> 
<DataArray type="Float32" NumberOfComponents="3"> 
0.0125 0.08 0 0.0125 0.0832 0 0.0125 0.0864 0 0.0125 0.0896 0 0.0125 0.0928 0 0.0125 0.096 0 0.0125 0.0992 0 0.0125 0.1024 0 0.0125 0.1056 0 0.0125 0.1088 0 0.0125 0.112 0 0.0125 0.1152 0 0.0125 0.1184 0 0.0125 0.1216 0 0.0125 0.1248 0 0.0125 0.128 0 0.0243333 0.0783333 0 0.0245111 0.0816444 0 0.0246889 0.0849556 0 0.0248667 0.0882667 0 0.0250444 0.0915778 0 0.0252222 0.0948889 0 0.0254 0.0982 0 0.0255778 0.101511 0 0.0257556 0.104822 0 0.0259333 0.108133 0 0.0261111 0.111444 0 0.0262889 0.114756 0 0.0264667 0.118067 0 0.0266444 0.121378 0 0.0268222 0.124689 0 0.027 0.128 0 0.0361667 0.0766667 0 0.0365222 0.0800889 0 0.0368778 0.0835111 0 0.0372333 0.0869333 0 0.0375889 0.0903556 0 0.0379444 0.0937778 0 0.0383 0.0972 0 0.0386556 0.100622 0 0.0390111 0.104044 0 0.0393667 0.107467 0 0.0397222 0.110889 0 0.0400778 0.114311 0 0.0404333 0.117733 0 0.0407889 0.121156 0 0.0411444 0.124578 0 0.0415 0.128 0 0.048 0.075 0 0.0485333 0.0785333 0 0.0490667 0.0820667 0 0.0496 0.0856 0 0.0501333 0.0891333 0 0.0506667 0.0926667 0 0.0512 0.0962 0 0.0517333 0.0997333 0 0.0522667 0.103267 0 0.0528 0.1068 0 0.0533333 0.110333 0 0.0538667 0.113867 0 0.0544 0.1174 0 0.0549333 0.120933 0 0.0554667 0.124467 0 0.056 0.128 0 0.0598333 0.0733333 0 0.0605444 0.0769778 0 0.0612556 0.0806222 0 0.0619667 0.0842667 0 0.0626778 0.0879111 0 0.0633889 0.0915556 0 0.0641 0.0952 0 0.0648111 0.0988444 0 0.0655222 0.102489 0 0.0662333 0.106133 0 0.0669444 0.109778 0 0.0676556 0.113422 0 0.0683667 0.117067 0 0.0690778 0.120711 0 0.0697889 0.124356 0 0.0705 0.128 0 0.0716667 0.0716667 0 0.0725556 0.0754222 0 0.0734444 0.0791778 0 0.0743333 0.0829333 0 0.0752222 0.0866889 0 0.0761111 0.0904444 0 0.077 0.0942 0 0.0778889 0.0979556 0 0.0787778 0.101711 0 0.0796667 0.105467 0 0.0805556 0.109222 0 0.0814444 0.112978 0 0.0823333 0.116733 0 0.0832222 0.120489 0 0.0841111 0.124244 0 0.085 0.128 0 0.0835 0.07 0 0.0845667 0.0738667 0 0.0856333 0.0777333 0 0.0867 0.0816 0 0.0877667 0.0854667 0 0.0888333 0.0893333 0 0.0899 0.0932 0 0.0909667 0.0970667 0 0.0920333 0.100933 0 0.0931 0.1048 0 0.0941667 0.108667 0 0.0952333 0.112533 0 0.0963 0.1164 0 0.0973667 0.120267 0 0.0984333 0.124133 0 0.0995 0.128 0 0.0953333 0.0683333 0 0.0965778 0.0723111 0 0.0978222 0.0762889 0 0.0990667 0.0802667 0 0.100311 0.0842444 0 0.101556 0.0882222 0 0.1028 0.0922 0 0.104044 0.0961778 0 0.105289 0.100156 0 0.106533 0.104133 0 0.107778 0.108111 0 0.109022 0.112089 0 0.110267 0.116067 0 0.111511 0.120044 0 0.112756 0.124022 0 0.114 0.128 0 0.107167 0.0666667 0 0.108589 0.0707556 0 0.110011 0.0748444 0 0.111433 0.0789333 0 0.112856 0.0830222 0 0.114278 0.0871111 0 0.1157 0.0912 0 0.117122 0.0952889 0 0.118544 0.0993778 0 0.119967 0.103467 0 0.121389 0.107556 0 0.122811 0.111644 0 0.124233 0.115733 0 0.125656 0.119822 0 0.127078 0.123911 0 0.1285 0.128 0 0.119 0.065 0 0.1206 0.0692 0 0.1222 0.0734 0 0.1238 0.0776 0 0.1254 0.0818 0 0.127 0.086 0 0.1286 0.0902 0 0.1302 0.0944 0 0.1318 0.0986 0 0.1334 0.1028 0 0.135 0.107 0 0.1366 0.1112 0 0.1382 0.1154 0 0.1398 0.1196 0 0.1414 0.1238 0 0.143 0.128 0 0.130833 0.0633333 0 0.132611 0.0676444 0 0.134389 0.0719556 0 0.136167 0.0762667 0 0.137944 0.0805778 0 0.139722 0.0848889 0 0.1415 0.0892 0 0.143278 0.0935111 0 0.145056 0.0978222 0 0.146833 0.102133 0 0.148611 0.106444 0 0.150389 0.110756 0 0.152167 0.115067 0 0.153944 0.119378 0 0.155722 0.123689 0 0.1575 0.128 0 0.142667 0.0616667 0 0.144622 0.0660889 0 0.146578 0.0705111 0 0.148533 0.0749333 0 0.150489 0.0793556 0 0.152444 0.0837778 0 0.1544 0.0882 0 0.156356 0.0926222 0 0.158311 0.0970444 0 0.160267 0.101467 0 0.162222 0.105889 0 0.164178 0.110311 0 0.166133 0.114733 0 0.168089 0.119156 0 0.170044 0.123578 0 0.172 0.128 0 0.1545 0.06 0 0.156633 0.0645333 0 0.158767 0.0690667 0 0.1609 0.0736 0 0.163033 0.0781333 0 0.165167 0.0826667 0 0.1673 0.0872 0 0.169433 0.0917333 0 0.171567 0.0962667 0 0.1737 0.1008 0 0.175833 0.105333 0 0.177967 0.109867 0 0.1801 0.1144 0 0.182233 0.118933 0 0.184367 0.123467 0 0.1865 0.128 0 0.166333 0.0583333 0 0.168644 0.0629778 0 0.170956 0.0676222 0 0.173267 0.0722667 0 0.175578 0.0769111 0 0.177889 0.0815556 0 0.1802 0.0862 0 0.182511 0.0908444 0 0.184822 0.0954889 0 0.187133 0.100133 0 0.189444 0.104778 0 0.191756 0.109422 0 0.194067 0.114067 0 0.196378 0.118711 0 0.198689 0.123356 0 0.201 0.128 0 0.178167 0.0566667 0 0.180656 0.0614222 0 0.183144 0.0661778 0 0.185633 0.0709333 0 0.188122 0.0756889 0 0.190611 0.0804444 0 0.1931 0.0852 0 0.195589 0.0899556 0 0.198078 0.0947111 0 0.200567 0.0994667 0 0.203056 0.104222 0 0.205544 0.108978 0 0.208033 0.113733 0 0.210522 0.118489 0 0.213011 0.123244 0 0.2155 0.128 0 0.19 0.055 0 0.192667 0.0598667 0 0.195333 0.0647333 0 0.198 0.0696 0 0.200667 0.0744667 0 0.203333 0.0793333 0 0.206 0.0842 0 0.208667 0.0890667 0 0.211333 0.0939333 0 0.214 0.0988 0 0.216667 0.103667 0 0.219333 0.108533 0 0.222 0.1134 0 0.224667 0.118267 0 0.227333 0.123133 0 0.23 0.128 0 
</DataArray>
</Points> 
</Piece> 
</StructuredGrid> 
</VTKFile> 
