<?xml version="1.0"?> 
<VTKFile type="StructuredGrid" version="0.1"> 
<StructuredGrid WholeExtent="0 15 0 15 0 0"> 
<Piece Extent="0 15 0 15 0 0"> 
<PointData>
<DataArray type="Float32" Name="E" format="ascii" NumberOfComponents="3"> 
-406317 -1.18741e+06 0 341814 -882022 0 583924 -634781 0 652193 -414991 0 687111 -238263 0 672762 -95882.2 0 645200 21025.6 0 599190 116809 0 543917 195808 0 479412 260157 0 408562 311990 0 332483 352593 0 252551 383124 0 169855 404357 0 85358.7 416877 0 0 421013 0 -222947 -1.0397e+06 0 326692 -854797 0 550608 -619973 0 637727 -409721 0 668408 -237757 0 661113 -97748.6 0 633857 17132.7 0 590670 111776 0 536565 189684 0 473591 253315 0 403881 304515 0 328891 344672 0 249938 374854 0 168146 395857 0 84520.8 408239 0 0 412329 0 -176450 -948912 0 306638 -824105 0 525823 -605333 0 619777 -404090 0 652193 -236792 0 648618 -99464.4 0 623176 13525.3 0 582038 106867 0 529399 183736 0 467805 246587 0 399265 297162 0 325339 336850 0 247353 366681 0 166459 387446 0 83689.3 399688 0 0 403731 0 -148566 -881107 0 287642 -792884 0 503588 -590609 0 601711 -398103 0 636721 -235480 0 636157 -100960 0 612747 10143.3 0 573483 102116 0 522343 177942 0 462084 239981 0 394707 289926 0 321829 329129 0 244798 358604 0 164792 379123 0 82866.9 391221 0 0 395218 0 -129448 -825700 0 270330 -762128 0 483090 -575780 0 583969 -391792 0 621768 -233863 0 623850 -102221 0 602518 6965.6 0 565035 97528.8 0 515388 172293 0 456435 233500 0 390207 282801 0 318361 321509 0 242274 350619 0 163145 370888 0 82054.1 382839 0 0 386788 0 -114929 -778492 0 254824 -732241 0 463956 -560884 0 566732 -385192 0 607241 -231969 0 611750 -103251 0 592470 3982.22 0 556705 93104.5 0 508533 166785 0 450860 227142 0 385766 275787 0 314938 313989 0 239781 342727 0 161519 362739 0 81251.2 374540 0 0 378440 0 -102835 -736647 0 241058 -703454 0 445989 -545972 0 550079 -378340 0 593101 -229818 0 599883 -104055 0 582595 1185.76 0 548502 88841.1 0 501776 161415 0 445361 220907 0 381384 268880 0 311560 306568 0 237321 334925 0 159913 354675 0 80458.6 366324 0 0 370172 0 -92481.1 -698720 0 228867 -675861 0 429094 -531096 0 534026 -371271 0 579337 -227429 0 588258 -104644 0 572895 -1429.44 0 540428 84735.2 0 495120 156180 0 439941 214791 0 377062 262081 0 308228 299243 0 234893 327212 0 158328 346695 0 79676.4 358188 0 0 361985 0 -82989.8 -663682 0 218084 -649506 0 413189 -516305 0 518579 -364017 0 565944 -224819 0 576882 -105027 0 563371 -3868.86 0 532488 80783 0 488566 151078 0 434601 208793 0 372803 255386 0 304942 292014 0 232499 319588 0 156765 338798 0 78904.8 350132 0 0 353877 0 -74055.6 -630923 0 208526 -624399 0 398224 -501645 0 503722 -356608 0 552922 -222004 0 565756 -105212 0 554025 -6137.9 0 524681 76980.8 0 482116 146106 0 429341 202911 0 368606 248795 0 301704 284879 0 230139 312050 0 155225 330984 0 78144.1 342155 0 0 345847 0 -65058.4 -600085 0 200032 -600531 0 384139 -487150 0 489444 -349073 0 540271 -219000 0 554882 -105210 0 544860 -8242.08 0 517012 73324.8 0 475772 141262 0 424165 197142 0 364473 242306 0 298514 277836 0 227814 304598 0 153706 323250 0 77394.4 334256 0 0 337893 0 -55614.7 -570993 0 192439 -577882 0 370889 -472851 0 475725 -341436 0 527992 -215824 0 544259 -105030 0 535879 -10187.2 0 509480 69811.4 0 469535 136543 0 419072 191485 0 360406 235917 0 295373 270885 0 225524 297231 0 152211 315595 0 76655.9 326433 0 0 330015 0 -44688.8 -543957 0 185624 -556406 0 358400 -458774 0 462560 -333722 0 516075 -212490 0 533893 -104680 0 527083 -11978.7 0 502089 66436.9 0 463406 131945 0 414064 185938 0 356404 229626 0 292283 264024 0 223270 289946 0 150739 308019 0 75928.9 318686 0 0 322211 0 -30443.2 -519645 0 179519 -536030 0 346552 -444938 0 449973 -325950 0 504499 -209011 0 523792 -104170 0 518468 -13622.1 0 494842 63197.3 0 457387 127467 0 409143 180498 0 352469 223431 0 289243 257250 0 221053 282743 0 149290 300519 0 75213.5 311013 0 0 314481 0 -8610.01 -501111 0 174212 -516499 0 335084 -431381 0 438065 -318141 0 493196 -205397 0 513988 -103511 0 510022 -15119.8 0 487746 60087.1 0 451476 123107 0 404310 175162 0 348602 217331 0 286254 250563 0 218873 275619 0 147866 293096 0 74510 303412 0 0 306823 0 72414.3 -500976 0 172033 -496824 0 321552 -418225 0 428174 -310322 0 481461 -201632 0 504828 -102739 0 501579 -16460.3 0 480879 57091.7 0 445643 118868 0 399579 169926 0 344800 211326 0 283319 243960 0 216731 268576 0 146464 285746 0 73819.4 295884 0 0 299236 0 </DataArray> 
</PointData> 
<Points> 
<DataArray type="Float32" NumberOfComponents="3"> 
0.406 0.03 0 0.406 0.0365333 0 0.406 0.0430667 0 0.406 0.0496 0 0.406 0.0561333 0 0.406 0.0626667 0 0.406 0.0692 0 0.406 0.0757333 0 0.406 0.0822667 0 0.406 0.0888 0 0.406 0.0953333 0 0.406 0.101867 0 0.406 0.1084 0 0.406 0.114933 0 0.406 0.121467 0 0.406 0.128 0 0.406667 0.03 0 0.406667 0.0365333 0 0.406667 0.0430667 0 0.406667 0.0496 0 0.406667 0.0561333 0 0.406667 0.0626667 0 0.406667 0.0692 0 0.406667 0.0757333 0 0.406667 0.0822667 0 0.406667 0.0888 0 0.406667 0.0953333 0 0.406667 0.101867 0 0.406667 0.1084 0 0.406667 0.114933 0 0.406667 0.121467 0 0.406667 0.128 0 0.407333 0.03 0 0.407333 0.0365333 0 0.407333 0.0430667 0 0.407333 0.0496 0 0.407333 0.0561333 0 0.407333 0.0626667 0 0.407333 0.0692 0 0.407333 0.0757333 0 0.407333 0.0822667 0 0.407333 0.0888 0 0.407333 0.0953333 0 0.407333 0.101867 0 0.407333 0.1084 0 0.407333 0.114933 0 0.407333 0.121467 0 0.407333 0.128 0 0.408 0.03 0 0.408 0.0365333 0 0.408 0.0430667 0 0.408 0.0496 0 0.408 0.0561333 0 0.408 0.0626667 0 0.408 0.0692 0 0.408 0.0757333 0 0.408 0.0822667 0 0.408 0.0888 0 0.408 0.0953333 0 0.408 0.101867 0 0.408 0.1084 0 0.408 0.114933 0 0.408 0.121467 0 0.408 0.128 0 0.408667 0.03 0 0.408667 0.0365333 0 0.408667 0.0430667 0 0.408667 0.0496 0 0.408667 0.0561333 0 0.408667 0.0626667 0 0.408667 0.0692 0 0.408667 0.0757333 0 0.408667 0.0822667 0 0.408667 0.0888 0 0.408667 0.0953333 0 0.408667 0.101867 0 0.408667 0.1084 0 0.408667 0.114933 0 0.408667 0.121467 0 0.408667 0.128 0 0.409333 0.03 0 0.409333 0.0365333 0 0.409333 0.0430667 0 0.409333 0.0496 0 0.409333 0.0561333 0 0.409333 0.0626667 0 0.409333 0.0692 0 0.409333 0.0757333 0 0.409333 0.0822667 0 0.409333 0.0888 0 0.409333 0.0953333 0 0.409333 0.101867 0 0.409333 0.1084 0 0.409333 0.114933 0 0.409333 0.121467 0 0.409333 0.128 0 0.41 0.03 0 0.41 0.0365333 0 0.41 0.0430667 0 0.41 0.0496 0 0.41 0.0561333 0 0.41 0.0626667 0 0.41 0.0692 0 0.41 0.0757333 0 0.41 0.0822667 0 0.41 0.0888 0 0.41 0.0953333 0 0.41 0.101867 0 0.41 0.1084 0 0.41 0.114933 0 0.41 0.121467 0 0.41 0.128 0 0.410667 0.03 0 0.410667 0.0365333 0 0.410667 0.0430667 0 0.410667 0.0496 0 0.410667 0.0561333 0 0.410667 0.0626667 0 0.410667 0.0692 0 0.410667 0.0757333 0 0.410667 0.0822667 0 0.410667 0.0888 0 0.410667 0.0953333 0 0.410667 0.101867 0 0.410667 0.1084 0 0.410667 0.114933 0 0.410667 0.121467 0 0.410667 0.128 0 0.411333 0.03 0 0.411333 0.0365333 0 0.411333 0.0430667 0 0.411333 0.0496 0 0.411333 0.0561333 0 0.411333 0.0626667 0 0.411333 0.0692 0 0.411333 0.0757333 0 0.411333 0.0822667 0 0.411333 0.0888 0 0.411333 0.0953333 0 0.411333 0.101867 0 0.411333 0.1084 0 0.411333 0.114933 0 0.411333 0.121467 0 0.411333 0.128 0 0.412 0.03 0 0.412 0.0365333 0 0.412 0.0430667 0 0.412 0.0496 0 0.412 0.0561333 0 0.412 0.0626667 0 0.412 0.0692 0 0.412 0.0757333 0 0.412 0.0822667 0 0.412 0.0888 0 0.412 0.0953333 0 0.412 0.101867 0 0.412 0.1084 0 0.412 0.114933 0 0.412 0.121467 0 0.412 0.128 0 0.412667 0.03 0 0.412667 0.0365333 0 0.412667 0.0430667 0 0.412667 0.0496 0 0.412667 0.0561333 0 0.412667 0.0626667 0 0.412667 0.0692 0 0.412667 0.0757333 0 0.412667 0.0822667 0 0.412667 0.0888 0 0.412667 0.0953333 0 0.412667 0.101867 0 0.412667 0.1084 0 0.412667 0.114933 0 0.412667 0.121467 0 0.412667 0.128 0 0.413333 0.03 0 0.413333 0.0365333 0 0.413333 0.0430667 0 0.413333 0.0496 0 0.413333 0.0561333 0 0.413333 0.0626667 0 0.413333 0.0692 0 0.413333 0.0757333 0 0.413333 0.0822667 0 0.413333 0.0888 0 0.413333 0.0953333 0 0.413333 0.101867 0 0.413333 0.1084 0 0.413333 0.114933 0 0.413333 0.121467 0 0.413333 0.128 0 0.414 0.03 0 0.414 0.0365333 0 0.414 0.0430667 0 0.414 0.0496 0 0.414 0.0561333 0 0.414 0.0626667 0 0.414 0.0692 0 0.414 0.0757333 0 0.414 0.0822667 0 0.414 0.0888 0 0.414 0.0953333 0 0.414 0.101867 0 0.414 0.1084 0 0.414 0.114933 0 0.414 0.121467 0 0.414 0.128 0 0.414667 0.03 0 0.414667 0.0365333 0 0.414667 0.0430667 0 0.414667 0.0496 0 0.414667 0.0561333 0 0.414667 0.0626667 0 0.414667 0.0692 0 0.414667 0.0757333 0 0.414667 0.0822667 0 0.414667 0.0888 0 0.414667 0.0953333 0 0.414667 0.101867 0 0.414667 0.1084 0 0.414667 0.114933 0 0.414667 0.121467 0 0.414667 0.128 0 0.415333 0.03 0 0.415333 0.0365333 0 0.415333 0.0430667 0 0.415333 0.0496 0 0.415333 0.0561333 0 0.415333 0.0626667 0 0.415333 0.0692 0 0.415333 0.0757333 0 0.415333 0.0822667 0 0.415333 0.0888 0 0.415333 0.0953333 0 0.415333 0.101867 0 0.415333 0.1084 0 0.415333 0.114933 0 0.415333 0.121467 0 0.415333 0.128 0 0.416 0.03 0 0.416 0.0365333 0 0.416 0.0430667 0 0.416 0.0496 0 0.416 0.0561333 0 0.416 0.0626667 0 0.416 0.0692 0 0.416 0.0757333 0 0.416 0.0822667 0 0.416 0.0888 0 0.416 0.0953333 0 0.416 0.101867 0 0.416 0.1084 0 0.416 0.114933 0 0.416 0.121467 0 0.416 0.128 0 
</DataArray>
</Points> 
</Piece> 
</StructuredGrid> 
</VTKFile> 
