<?xml version="1.0"?> 
<VTKFile type="StructuredGrid" version="0.1"> 
<StructuredGrid WholeExtent="0 15 0 15 0 0"> 
<Piece Extent="0 15 0 15 0 0"> 
<PointData>
<DataArray type="Float32" Name="E" format="ascii" NumberOfComponents="3"> 
-567398 -1.81738e+06 0 -551769 -1.89962e+06 0 -524760 -1.9755e+06 0 -494080 -2.05185e+06 0 -461121 -2.12775e+06 0 -426971 -2.20347e+06 0 -392234 -2.27962e+06 0 -357142 -2.35703e+06 0 -321559 -2.43645e+06 0 -285061 -2.51863e+06 0 -246973 -2.60416e+06 0 -206430 -2.69346e+06 0 -162430 -2.78678e+06 0 -113946 -2.88414e+06 0 -60014.3 -2.98536e+06 0 4.76837e-07 -3.09014e+06 0 -555671 -1.7554e+06 0 -531084 -1.81602e+06 0 -506746 -1.88205e+06 0 -478839 -1.95139e+06 0 -447836 -2.02151e+06 0 -414662 -2.09175e+06 0 -380047 -2.16214e+06 0 -344417 -2.23303e+06 0 -307929 -2.30488e+06 0 -270504 -2.37816e+06 0 -231854 -2.45332e+06 0 -191518 -2.53073e+06 0 -148894 -2.61066e+06 0 -103277 -2.69322e+06 0 -53900.2 -2.77845e+06 0 -2.23808e-08 -2.86625e+06 0 -545194 -1.68041e+06 0 -517187 -1.73734e+06 0 -490075 -1.79545e+06 0 -462585 -1.85607e+06 0 -433131 -1.91887e+06 0 -401493 -1.98273e+06 0 -367969 -2.0471e+06 0 -332935 -2.11184e+06 0 -296652 -2.17706e+06 0 -259230 -2.24298e+06 0 -220629 -2.30988e+06 0 -180673 -2.37799e+06 0 -139065 -2.44752e+06 0 -95411.5 -2.51859e+06 0 -49238.5 -2.59125e+06 0 -4.2608e-08 -2.66544e+06 0 -535013 -1.60561e+06 0 -506214 -1.65832e+06 0 -477272 -1.71156e+06 0 -448252 -1.76563e+06 0 -418690 -1.8211e+06 0 -387861 -1.87794e+06 0 -355471 -1.93573e+06 0 -321523 -1.99413e+06 0 -286147 -2.05298e+06 0 -249466 -2.11227e+06 0 -211541 -2.17207e+06 0 -172354 -2.23249e+06 0 -131808 -2.29366e+06 0 -89734.2 -2.35564e+06 0 -45890.9 -2.41848e+06 0 9.17353e-08 -2.48215e+06 0 -525011 -1.53111e+06 0 -495822 -1.57966e+06 0 -466298 -1.62833e+06 0 -436429 -1.67744e+06 0 -406113 -1.72709e+06 0 -375161 -1.77751e+06 0 -343245 -1.82876e+06 0 -310153 -1.8807e+06 0 -275796 -1.93317e+06 0 -240176 -1.98605e+06 0 -203321 -2.0393e+06 0 -165248 -2.0929e+06 0 -125946 -2.14688e+06 0 -85365.9 -2.20128e+06 0 -43429.9 -2.25611e+06 0 -1.13156e-07 -2.31136e+06 0 -515051 -1.45736e+06 0 -485690 -1.50165e+06 0 -455940 -1.54603e+06 0 -425775 -1.59049e+06 0 -395157 -1.63521e+06 0 -363979 -1.68025e+06 0 -332134 -1.7257e+06 0 -299469 -1.77159e+06 0 -265853 -1.81791e+06 0 -231199 -1.86459e+06 0 -195464 -1.91157e+06 0 -158632 -1.9588e+06 0 -120692 -2.00624e+06 0 -81623.5 -2.0539e+06 0 -41396.7 -2.10176e+06 0 6.61239e-08 -2.14979e+06 0 -504963 -1.38421e+06 0 -475531 -1.42451e+06 0 -445749 -1.4647e+06 0 -415567 -1.50486e+06 0 -384935 -1.54501e+06 0 -353810 -1.58524e+06 0 -322111 -1.62559e+06 0 -289763 -1.66611e+06 0 -256685 -1.70682e+06 0 -222799 -1.74773e+06 0 -188041 -1.78881e+06 0 -152362 -1.83004e+06 0 -115739 -1.87139e+06 0 -78157.9 -1.91285e+06 0 -39594 -1.95434e+06 0 -2.79397e-08 -1.99599e+06 0 -494601 -1.3117e+06 0 -465120 -1.34816e+06 0 -435387 -1.38442e+06 0 -405328 -1.42048e+06 0 -374888 -1.4564e+06 0 -344006 -1.4922e+06 0 -312637 -1.52793e+06 0 -280720 -1.56361e+06 0 -248201 -1.59927e+06 0 -215025 -1.63494e+06 0 -181147 -1.67063e+06 0 -146528 -1.70633e+06 0 -111123 -1.74201e+06 0 -74896.6 -1.77768e+06 0 -37854.5 -1.8134e+06 0 8.3819e-08 -1.84881e+06 0 -483672 -1.2398e+06 0 -454227 -1.27259e+06 0 -424579 -1.30512e+06 0 -394703 -1.33737e+06 0 -364544 -1.36934e+06 0 -334046 -1.40106e+06 0 -303150 -1.43254e+06 0 -271807 -1.46381e+06 0 -239966 -1.49489e+06 0 -207579 -1.5258e+06 0 -174604 -1.55656e+06 0 -141006 -1.5872e+06 0 -106776 -1.61774e+06 0 -71901.1 -1.64814e+06 0 -36308.5 -1.67827e+06 0 -1.63913e-07 -1.70893e+06 0 -471986 -1.16803e+06 0 -442474 -1.19769e+06 0 -412956 -1.22677e+06 0 -383306 -1.25546e+06 0 -353479 -1.2838e+06 0 -323427 -1.31176e+06 0 -293102 -1.33937e+06 0 -262449 -1.36663e+06 0 -231414 -1.39355e+06 0 -199949 -1.42015e+06 0 -168008 -1.44644e+06 0 -135549 -1.47244e+06 0 -102514 -1.49814e+06 0 -68882.8 -1.52368e+06 0 -34740.1 -1.54926e+06 0 1.37836e-07 -1.57318e+06 0 -458932 -1.09755e+06 0 -429626 -1.12342e+06 0 -400215 -1.14928e+06 0 -370762 -1.17468e+06 0 -341241 -1.19967e+06 0 -311628 -1.22423e+06 0 -281894 -1.24836e+06 0 -251994 -1.27205e+06 0 -221874 -1.29526e+06 0 -191466 -1.318e+06 0 -160706 -1.34029e+06 0 -129544 -1.36216e+06 0 -97961.3 -1.38364e+06 0 -65904.4 -1.40457e+06 0 -33198.1 -1.42471e+06 0 -4.47035e-08 -1.44756e+06 0 -444106 -1.02577e+06 0 -415036 -1.05032e+06 0 -385993 -1.07294e+06 0 -356804 -1.09508e+06 0 -327513 -1.11685e+06 0 -298187 -1.13827e+06 0 -268882 -1.15931e+06 0 -239625 -1.17994e+06 0 -210403 -1.20006e+06 0 -181166 -1.21959e+06 0 -151826 -1.23846e+06 0 -122263 -1.25661e+06 0 -92332.9 -1.27411e+06 0 -61968.9 -1.29135e+06 0 -31282.5 -1.30863e+06 0 3.72529e-09 -1.31952e+06 0 -426072 -960709 0 -398535 -978904 0 -370462 -998436 0 -341769 -1.01707e+06 0 -312583 -1.0353e+06 0 -283142 -1.05341e+06 0 -253695 -1.0715e+06 0 -224470 -1.08951e+06 0 -195632 -1.10729e+06 0 -167258 -1.12464e+06 0 -139326 -1.14137e+06 0 -111724 -1.15725e+06 0 -84284.1 -1.172e+06 0 -56753.2 -1.18499e+06 0 -28735.6 -1.19617e+06 0 -7.45058e-09 -1.21735e+06 0 -402530 -892794 0 -380035 -915336 0 -355119 -929340 0 -327959 -942206 0 -298866 -955033 0 -268457 -968426 0 -237413 -982694 0 -206358 -997932 0 -175887 -1.01404e+06 0 -146556 -1.03073e+06 0 -118834 -1.04748e+06 0 -92976.9 -1.06361e+06 0 -68827.2 -1.07862e+06 0 -45636.9 -1.0926e+06 0 -22367.6 -1.10475e+06 0 1.49012e-08 -1.09576e+06 0 -368776 -863079 0 -362519 -870702 0 -349209 -872739 0 -325041 -873085 0 -294656 -875247 0 -260971 -879988 0 -225372 -887375 0 -188730 -897472 0 -151714 -910483 0 -115114 -926757 0 -80094.9 -946668 0 -48571.7 -970220 0 -23599.9 -996255 0 -9456.3 -1.02118e+06 0 -8197.93 -1.03949e+06 0 4.47035e-08 -1.06233e+06 0 -261622 -1.1108e+06 0 -422537 -885889 0 -398043 -822016 0 -355777 -795943 0 -313119 -783635 0 -270015 -777857 0 -226363 -775983 0 -181394 -777027 0 -134434 -780685 0 -84348.1 -787261 0 -29360.8 -797780 0 33683.5 -814692 0 109025 -844459 0 197267 -907275 0 255412 -1.07833e+06 0 -5.96046e-07 -1.66374e+06 0 </DataArray> 
</PointData> 
<Points> 
<DataArray type="Float32" NumberOfComponents="3"> 
0.236 0.027 0 0.2351 0.0275333 0 0.2342 0.0280667 0 0.2333 0.0286 0 0.2324 0.0291333 0 0.2315 0.0296667 0 0.2306 0.0302 0 0.2297 0.0307333 0 0.2288 0.0312667 0 0.2279 0.0318 0 0.227 0.0323333 0 0.2261 0.0328667 0 0.2252 0.0334 0 0.2243 0.0339333 0 0.2234 0.0344667 0 0.2225 0.035 0 0.237133 0.027 0 0.236291 0.0275333 0 0.235449 0.0280667 0 0.234607 0.0286 0 0.233764 0.0291333 0 0.232922 0.0296667 0 0.23208 0.0302 0 0.231238 0.0307333 0 0.230396 0.0312667 0 0.229553 0.0318 0 0.228711 0.0323333 0 0.227869 0.0328667 0 0.227027 0.0334 0 0.226184 0.0339333 0 0.225342 0.0344667 0 0.2245 0.035 0 0.238267 0.027 0 0.237482 0.0275333 0 0.236698 0.0280667 0 0.235913 0.0286 0 0.235129 0.0291333 0 0.234344 0.0296667 0 0.23356 0.0302 0 0.232776 0.0307333 0 0.231991 0.0312667 0 0.231207 0.0318 0 0.230422 0.0323333 0 0.229638 0.0328667 0 0.228853 0.0334 0 0.228069 0.0339333 0 0.227284 0.0344667 0 0.2265 0.035 0 0.2394 0.027 0 0.238673 0.0275333 0 0.237947 0.0280667 0 0.23722 0.0286 0 0.236493 0.0291333 0 0.235767 0.0296667 0 0.23504 0.0302 0 0.234313 0.0307333 0 0.233587 0.0312667 0 0.23286 0.0318 0 0.232133 0.0323333 0 0.231407 0.0328667 0 0.23068 0.0334 0 0.229953 0.0339333 0 0.229227 0.0344667 0 0.2285 0.035 0 0.240533 0.027 0 0.239864 0.0275333 0 0.239196 0.0280667 0 0.238527 0.0286 0 0.237858 0.0291333 0 0.237189 0.0296667 0 0.23652 0.0302 0 0.235851 0.0307333 0 0.235182 0.0312667 0 0.234513 0.0318 0 0.233844 0.0323333 0 0.233176 0.0328667 0 0.232507 0.0334 0 0.231838 0.0339333 0 0.231169 0.0344667 0 0.2305 0.035 0 0.241667 0.027 0 0.241056 0.0275333 0 0.240444 0.0280667 0 0.239833 0.0286 0 0.239222 0.0291333 0 0.238611 0.0296667 0 0.238 0.0302 0 0.237389 0.0307333 0 0.236778 0.0312667 0 0.236167 0.0318 0 0.235556 0.0323333 0 0.234944 0.0328667 0 0.234333 0.0334 0 0.233722 0.0339333 0 0.233111 0.0344667 0 0.2325 0.035 0 0.2428 0.027 0 0.242247 0.0275333 0 0.241693 0.0280667 0 0.24114 0.0286 0 0.240587 0.0291333 0 0.240033 0.0296667 0 0.23948 0.0302 0 0.238927 0.0307333 0 0.238373 0.0312667 0 0.23782 0.0318 0 0.237267 0.0323333 0 0.236713 0.0328667 0 0.23616 0.0334 0 0.235607 0.0339333 0 0.235053 0.0344667 0 0.2345 0.035 0 0.243933 0.027 0 0.243438 0.0275333 0 0.242942 0.0280667 0 0.242447 0.0286 0 0.241951 0.0291333 0 0.241456 0.0296667 0 0.24096 0.0302 0 0.240464 0.0307333 0 0.239969 0.0312667 0 0.239473 0.0318 0 0.238978 0.0323333 0 0.238482 0.0328667 0 0.237987 0.0334 0 0.237491 0.0339333 0 0.236996 0.0344667 0 0.2365 0.035 0 0.245067 0.027 0 0.244629 0.0275333 0 0.244191 0.0280667 0 0.243753 0.0286 0 0.243316 0.0291333 0 0.242878 0.0296667 0 0.24244 0.0302 0 0.242002 0.0307333 0 0.241564 0.0312667 0 0.241127 0.0318 0 0.240689 0.0323333 0 0.240251 0.0328667 0 0.239813 0.0334 0 0.239376 0.0339333 0 0.238938 0.0344667 0 0.2385 0.035 0 0.2462 0.027 0 0.24582 0.0275333 0 0.24544 0.0280667 0 0.24506 0.0286 0 0.24468 0.0291333 0 0.2443 0.0296667 0 0.24392 0.0302 0 0.24354 0.0307333 0 0.24316 0.0312667 0 0.24278 0.0318 0 0.2424 0.0323333 0 0.24202 0.0328667 0 0.24164 0.0334 0 0.24126 0.0339333 0 0.24088 0.0344667 0 0.2405 0.035 0 0.247333 0.027 0 0.247011 0.0275333 0 0.246689 0.0280667 0 0.246367 0.0286 0 0.246044 0.0291333 0 0.245722 0.0296667 0 0.2454 0.0302 0 0.245078 0.0307333 0 0.244756 0.0312667 0 0.244433 0.0318 0 0.244111 0.0323333 0 0.243789 0.0328667 0 0.243467 0.0334 0 0.243144 0.0339333 0 0.242822 0.0344667 0 0.2425 0.035 0 0.248467 0.027 0 0.248202 0.0275333 0 0.247938 0.0280667 0 0.247673 0.0286 0 0.247409 0.0291333 0 0.247144 0.0296667 0 0.24688 0.0302 0 0.246616 0.0307333 0 0.246351 0.0312667 0 0.246087 0.0318 0 0.245822 0.0323333 0 0.245558 0.0328667 0 0.245293 0.0334 0 0.245029 0.0339333 0 0.244764 0.0344667 0 0.2445 0.035 0 0.2496 0.027 0 0.249393 0.0275333 0 0.249187 0.0280667 0 0.24898 0.0286 0 0.248773 0.0291333 0 0.248567 0.0296667 0 0.24836 0.0302 0 0.248153 0.0307333 0 0.247947 0.0312667 0 0.24774 0.0318 0 0.247533 0.0323333 0 0.247327 0.0328667 0 0.24712 0.0334 0 0.246913 0.0339333 0 0.246707 0.0344667 0 0.2465 0.035 0 0.250733 0.027 0 0.250584 0.0275333 0 0.250436 0.0280667 0 0.250287 0.0286 0 0.250138 0.0291333 0 0.249989 0.0296667 0 0.24984 0.0302 0 0.249691 0.0307333 0 0.249542 0.0312667 0 0.249393 0.0318 0 0.249244 0.0323333 0 0.249096 0.0328667 0 0.248947 0.0334 0 0.248798 0.0339333 0 0.248649 0.0344667 0 0.2485 0.035 0 0.251867 0.027 0 0.251776 0.0275333 0 0.251684 0.0280667 0 0.251593 0.0286 0 0.251502 0.0291333 0 0.251411 0.0296667 0 0.25132 0.0302 0 0.251229 0.0307333 0 0.251138 0.0312667 0 0.251047 0.0318 0 0.250956 0.0323333 0 0.250864 0.0328667 0 0.250773 0.0334 0 0.250682 0.0339333 0 0.250591 0.0344667 0 0.2505 0.035 0 0.253 0.027 0 0.252967 0.0275333 0 0.252933 0.0280667 0 0.2529 0.0286 0 0.252867 0.0291333 0 0.252833 0.0296667 0 0.2528 0.0302 0 0.252767 0.0307333 0 0.252733 0.0312667 0 0.2527 0.0318 0 0.252667 0.0323333 0 0.252633 0.0328667 0 0.2526 0.0334 0 0.252567 0.0339333 0 0.252533 0.0344667 0 0.2525 0.035 0 
</DataArray>
</Points> 
</Piece> 
</StructuredGrid> 
</VTKFile> 
