<?xml version="1.0"?> 
<VTKFile type="StructuredGrid" version="0.1"> 
<StructuredGrid WholeExtent="0 15 0 15 0 0"> 
<Piece Extent="0 15 0 15 0 0"> 
<PointData>
<DataArray type="Float32" Name="E" format="ascii" NumberOfComponents="3"> 
-679174 0 0 -679147 0 0 -679065 0 0 -678928 0 0 -678737 0 0 -678491 0 0 -678191 0 0 -677837 0 0 -677429 0 0 -676966 0 0 -676450 0 0 -675880 0 0 -675256 0 0 -674579 0 0 -673849 0 0 -673066 0 0 -679253 -0.000256468 0 -679226 93.1222 0 -679144 186.211 0 -679007 279.232 0 -678816 372.151 0 -678570 464.934 0 -678270 557.547 0 -677916 649.954 0 -677507 742.122 0 -677044 834.02 0 -676528 925.619 0 -675957 1016.9 0 -675334 1107.85 0 -674656 1198.49 0 -673926 1288.86 0 -673143 1379.06 0 -679491 -0.000508712 0 -679464 186.342 0 -679382 372.617 0 -679245 558.758 0 -679053 744.696 0 -678807 930.364 0 -678507 1115.69 0 -678152 1300.6 0 -677742 1485.03 0 -677279 1668.91 0 -676761 1852.17 0 -676190 2034.77 0 -675565 2216.65 0 -674888 2397.81 0 -674157 2578.3 0 -673373 2758.21 0 -679888 -0.00075044 0 -679861 279.755 0 -679779 559.411 0 -679641 838.869 0 -679449 1118.03 0 -679203 1396.78 0 -678901 1675.03 0 -678545 1952.66 0 -678135 2229.55 0 -677670 2505.6 0 -677151 2780.69 0 -676578 3054.72 0 -675952 3327.57 0 -675272 3599.17 0 -674540 3869.48 0 -673755 4138.5 0 -680445 -0.000972239 0 -680417 373.454 0 -680335 746.779 0 -680197 1119.85 0 -680004 1492.53 0 -679756 1864.68 0 -679454 2236.16 0 -679097 2606.83 0 -678684 2976.53 0 -678218 3345.08 0 -677697 3712.33 0 -677122 4078.08 0 -676493 4442.15 0 -675811 4804.34 0 -675076 5164.46 0 -674288 5522.33 0 -681161 -0.00116202 0 -681134 467.522 0 -681051 934.891 0 -680912 1401.95 0 -680719 1868.55 0 -680470 2334.51 0 -680166 2799.66 0 -679807 3263.82 0 -679393 3726.79 0 -678924 4188.36 0 -678400 4648.29 0 -677822 5106.33 0 -677190 5562.18 0 -676504 6015.53 0 -675764 6466.02 0 -674971 6913.24 0 -682038 -0.00130684 0 -682010 562.033 0 -681927 1123.89 0 -681788 1685.41 0 -681593 2246.39 0 -681343 2806.66 0 -681038 3366.02 0 -680677 3924.25 0 -680260 4481.12 0 -679788 5036.37 0 -679262 5589.73 0 -678680 6140.87 0 -678043 6689.43 0 -677352 7234.98 0 -676606 7777.04 0 -675806 8315.01 0 -683077 -0.00139545 0 -683049 657.042 0 -682965 1313.9 0 -682825 1970.38 0 -682629 2626.31 0 -682378 3281.46 0 -682070 3935.64 0 -681707 4588.6 0 -681288 5240.1 0 -680813 5889.86 0 -680283 6537.56 0 -679697 7182.85 0 -679055 7825.32 0 -678358 8464.5 0 -677605 9099.83 0 -676797 9730.63 0 -684277 -0.0014205 0 -684249 752.581 0 -684165 1504.97 0 -684024 2256.99 0 -683828 3008.43 0 -683574 3759.09 0 -683265 4508.75 0 -682900 5257.18 0 -682478 6004.11 0 -682000 6749.27 0 -681465 7492.33 0 -680875 8232.94 0 -680228 8970.69 0 -679524 9705.1 0 -678765 10435.6 0 -677948 11161.6 0 -685641 -0.00137974 0 -685613 848.661 0 -685528 1697.14 0 -685387 2545.25 0 -685189 3392.81 0 -684934 4239.6 0 -684623 5085.43 0 -684255 5930.07 0 -683831 6773.25 0 -683349 7614.73 0 -682811 8454.19 0 -682216 9291.29 0 -681564 10125.7 0 -680855 10956.9 0 -680088 11784.5 0 -679264 12607.9 0 -687170 -0.00127607 0 -687141 945.267 0 -687056 1890.36 0 -686914 2835.12 0 -686715 3779.37 0 -686459 4722.91 0 -686146 5665.57 0 -685776 6607.12 0 -685349 7547.34 0 -684864 8486 0 -684322 9422.82 0 -683723 10357.5 0 -683066 11289.8 0 -682352 12219.2 0 -681579 13145.4 0 -680747 14068 0 -688863 -0.00111621 0 -688834 1042.36 0 -688748 2084.57 0 -688606 3126.48 0 -688406 4167.95 0 -688148 5208.8 0 -687834 6248.88 0 -687462 7288 0 -687032 8325.97 0 -686545 9362.58 0 -686000 10397.6 0 -685398 11430.8 0 -684737 12462 0 -684017 13490.7 0 -683239 14516.9 0 -682402 15540 0 -690722 -0.000909159 0 -690693 1139.87 0 -690607 2279.63 0 -690464 3419.14 0 -690263 4558.29 0 -690004 5696.94 0 -689688 6834.96 0 -689315 7972.2 0 -688883 9108.51 0 -688394 10243.7 0 -687847 11377.7 0 -687241 12510.2 0 -686577 13641 0 -685853 14770 0 -685071 15896.9 0 -684229 17021.5 0 -692747 -0.000664377 0 -692718 1237.74 0 -692632 2475.38 0 -692488 3712.86 0 -692287 4950.06 0 -692027 6186.9 0 -691710 7423.28 0 -691336 8659.09 0 -690903 9894.22 0 -690412 11128.5 0 -689862 12361.9 0 -689254 13594.3 0 -688587 14825.4 0 -687861 16055.2 0 -687075 17283.5 0 -686230 18510.2 0 -694939 -0.000390422 0 -694910 1335.85 0 -694824 2671.65 0 -694680 4007.35 0 -694478 5342.88 0 -694218 6678.2 0 -693901 8013.25 0 -693525 9347.95 0 -693091 10682.2 0 -692599 12016 0 -692048 13349.3 0 -691438 14681.9 0 -690770 16013.7 0 -690041 17344.8 0 -689254 18674.9 0 -688406 20004 0 -697299 -9.40263e-05 0 -697270 1434.11 0 -697183 2868.22 0 -697039 4302.29 0 -696837 5736.33 0 -696577 7170.3 0 -696259 8604.2 0 -695883 10038 0 -695449 11471.7 0 -694956 12905.2 0 -694404 14338.5 0 -693794 15771.6 0 -693124 17204.4 0 -692395 18637 0 -691606 20069.2 0 -690757 21500.9 0 </DataArray> 
</PointData> 
<Points> 
<DataArray type="Float32" NumberOfComponents="3"> 
0 0 0 0 0.0018 0 0 0.0036 0 0 0.0054 0 0 0.0072 0 0 0.009 0 0 0.0108 0 0 0.0126 0 0 0.0144 0 0 0.0162 0 0 0.018 0 0 0.0198 0 0 0.0216 0 0 0.0234 0 0 0.0252 0 0 0.027 0 0.00306667 0 0 0.00306667 0.0018 0 0.00306667 0.0036 0 0.00306667 0.0054 0 0.00306667 0.0072 0 0.00306667 0.009 0 0.00306667 0.0108 0 0.00306667 0.0126 0 0.00306667 0.0144 0 0.00306667 0.0162 0 0.00306667 0.018 0 0.00306667 0.0198 0 0.00306667 0.0216 0 0.00306667 0.0234 0 0.00306667 0.0252 0 0.00306667 0.027 0 0.00613333 0 0 0.00613333 0.0018 0 0.00613333 0.0036 0 0.00613333 0.0054 0 0.00613333 0.0072 0 0.00613333 0.009 0 0.00613333 0.0108 0 0.00613333 0.0126 0 0.00613333 0.0144 0 0.00613333 0.0162 0 0.00613333 0.018 0 0.00613333 0.0198 0 0.00613333 0.0216 0 0.00613333 0.0234 0 0.00613333 0.0252 0 0.00613333 0.027 0 0.0092 0 0 0.0092 0.0018 0 0.0092 0.0036 0 0.0092 0.0054 0 0.0092 0.0072 0 0.0092 0.009 0 0.0092 0.0108 0 0.0092 0.0126 0 0.0092 0.0144 0 0.0092 0.0162 0 0.0092 0.018 0 0.0092 0.0198 0 0.0092 0.0216 0 0.0092 0.0234 0 0.0092 0.0252 0 0.0092 0.027 0 0.0122667 0 0 0.0122667 0.0018 0 0.0122667 0.0036 0 0.0122667 0.0054 0 0.0122667 0.0072 0 0.0122667 0.009 0 0.0122667 0.0108 0 0.0122667 0.0126 0 0.0122667 0.0144 0 0.0122667 0.0162 0 0.0122667 0.018 0 0.0122667 0.0198 0 0.0122667 0.0216 0 0.0122667 0.0234 0 0.0122667 0.0252 0 0.0122667 0.027 0 0.0153333 0 0 0.0153333 0.0018 0 0.0153333 0.0036 0 0.0153333 0.0054 0 0.0153333 0.0072 0 0.0153333 0.009 0 0.0153333 0.0108 0 0.0153333 0.0126 0 0.0153333 0.0144 0 0.0153333 0.0162 0 0.0153333 0.018 0 0.0153333 0.0198 0 0.0153333 0.0216 0 0.0153333 0.0234 0 0.0153333 0.0252 0 0.0153333 0.027 0 0.0184 0 0 0.0184 0.0018 0 0.0184 0.0036 0 0.0184 0.0054 0 0.0184 0.0072 0 0.0184 0.009 0 0.0184 0.0108 0 0.0184 0.0126 0 0.0184 0.0144 0 0.0184 0.0162 0 0.0184 0.018 0 0.0184 0.0198 0 0.0184 0.0216 0 0.0184 0.0234 0 0.0184 0.0252 0 0.0184 0.027 0 0.0214667 0 0 0.0214667 0.0018 0 0.0214667 0.0036 0 0.0214667 0.0054 0 0.0214667 0.0072 0 0.0214667 0.009 0 0.0214667 0.0108 0 0.0214667 0.0126 0 0.0214667 0.0144 0 0.0214667 0.0162 0 0.0214667 0.018 0 0.0214667 0.0198 0 0.0214667 0.0216 0 0.0214667 0.0234 0 0.0214667 0.0252 0 0.0214667 0.027 0 0.0245333 0 0 0.0245333 0.0018 0 0.0245333 0.0036 0 0.0245333 0.0054 0 0.0245333 0.0072 0 0.0245333 0.009 0 0.0245333 0.0108 0 0.0245333 0.0126 0 0.0245333 0.0144 0 0.0245333 0.0162 0 0.0245333 0.018 0 0.0245333 0.0198 0 0.0245333 0.0216 0 0.0245333 0.0234 0 0.0245333 0.0252 0 0.0245333 0.027 0 0.0276 0 0 0.0276 0.0018 0 0.0276 0.0036 0 0.0276 0.0054 0 0.0276 0.0072 0 0.0276 0.009 0 0.0276 0.0108 0 0.0276 0.0126 0 0.0276 0.0144 0 0.0276 0.0162 0 0.0276 0.018 0 0.0276 0.0198 0 0.0276 0.0216 0 0.0276 0.0234 0 0.0276 0.0252 0 0.0276 0.027 0 0.0306667 0 0 0.0306667 0.0018 0 0.0306667 0.0036 0 0.0306667 0.0054 0 0.0306667 0.0072 0 0.0306667 0.009 0 0.0306667 0.0108 0 0.0306667 0.0126 0 0.0306667 0.0144 0 0.0306667 0.0162 0 0.0306667 0.018 0 0.0306667 0.0198 0 0.0306667 0.0216 0 0.0306667 0.0234 0 0.0306667 0.0252 0 0.0306667 0.027 0 0.0337333 0 0 0.0337333 0.0018 0 0.0337333 0.0036 0 0.0337333 0.0054 0 0.0337333 0.0072 0 0.0337333 0.009 0 0.0337333 0.0108 0 0.0337333 0.0126 0 0.0337333 0.0144 0 0.0337333 0.0162 0 0.0337333 0.018 0 0.0337333 0.0198 0 0.0337333 0.0216 0 0.0337333 0.0234 0 0.0337333 0.0252 0 0.0337333 0.027 0 0.0368 0 0 0.0368 0.0018 0 0.0368 0.0036 0 0.0368 0.0054 0 0.0368 0.0072 0 0.0368 0.009 0 0.0368 0.0108 0 0.0368 0.0126 0 0.0368 0.0144 0 0.0368 0.0162 0 0.0368 0.018 0 0.0368 0.0198 0 0.0368 0.0216 0 0.0368 0.0234 0 0.0368 0.0252 0 0.0368 0.027 0 0.0398667 0 0 0.0398667 0.0018 0 0.0398667 0.0036 0 0.0398667 0.0054 0 0.0398667 0.0072 0 0.0398667 0.009 0 0.0398667 0.0108 0 0.0398667 0.0126 0 0.0398667 0.0144 0 0.0398667 0.0162 0 0.0398667 0.018 0 0.0398667 0.0198 0 0.0398667 0.0216 0 0.0398667 0.0234 0 0.0398667 0.0252 0 0.0398667 0.027 0 0.0429333 0 0 0.0429333 0.0018 0 0.0429333 0.0036 0 0.0429333 0.0054 0 0.0429333 0.0072 0 0.0429333 0.009 0 0.0429333 0.0108 0 0.0429333 0.0126 0 0.0429333 0.0144 0 0.0429333 0.0162 0 0.0429333 0.018 0 0.0429333 0.0198 0 0.0429333 0.0216 0 0.0429333 0.0234 0 0.0429333 0.0252 0 0.0429333 0.027 0 0.046 0 0 0.046 0.0018 0 0.046 0.0036 0 0.046 0.0054 0 0.046 0.0072 0 0.046 0.009 0 0.046 0.0108 0 0.046 0.0126 0 0.046 0.0144 0 0.046 0.0162 0 0.046 0.018 0 0.046 0.0198 0 0.046 0.0216 0 0.046 0.0234 0 0.046 0.0252 0 0.046 0.027 0 
</DataArray>
</Points> 
</Piece> 
</StructuredGrid> 
</VTKFile> 
