<?xml version="1.0"?> 
<VTKFile type="StructuredGrid" version="0.1"> 
<StructuredGrid WholeExtent="0 15 0 15 0 0"> 
<Piece Extent="0 15 0 15 0 0"> 
<PointData>
<DataArray type="Float32" Name="E" format="ascii" NumberOfComponents="3"> 
-673066 0 0 -665998 0 0 -658885 0 0 -651724 0 0 -644514 0 0 -637250 0 0 -629925 0 0 -622526 0 0 -615036 0 0 -607426 0 0 -599657 0 0 -591680 0 0 -583432 0 0 -574850 0 0 -565879 0 0 -556501 0 0 -673143 12963.1 0 -666068 12413.3 0 -658949 11856 0 -651784 11292.7 0 -644572 10725.5 0 -637308 10157.1 0 -629986 9590.91 0 -622593 9031.28 0 -615110 8482.82 0 -607510 7950.05 0 -599750 7435.78 0 -591779 6938.71 0 -583532 6449.86 0 -574940 5949.49 0 -565951 5407.13 0 -556548 4788.68 0 -673373 25927.2 0 -666276 24825.4 0 -659137 23707.1 0 -651959 22575.4 0 -644739 21434.7 0 -637475 20290.7 0 -630161 19150.8 0 -622784 18023.9 0 -615325 16920.4 0 -607753 15850.8 0 -600024 14822.5 0 -592075 13834.7 0 -583831 12869.5 0 -575214 11884.9 0 -566169 10814.7 0 -556692 9586.11 0 -673755 38901.9 0 -666613 37243.2 0 -659438 35556.1 0 -652232 33846 0 -644996 32119.6 0 -637727 30386 0 -630422 28656.7 0 -623070 26946.2 0 -615651 25272.4 0 -608132 23654.6 0 -600461 22109.3 0 -592561 20640.5 0 -584335 19223.4 0 -575683 17788.3 0 -566546 16221.7 0 -556939 14400.4 0 -674288 51909.9 0 -667074 49685.2 0 -659838 47418 0 -652585 45115.6 0 -645316 42786.9 0 -638033 40443.9 0 -630733 38102 0 -623409 35782.1 0 -616043 33510.8 0 -608603 31320.7 0 -601028 29244.5 0 -593220 27300.7 0 -585046 25464.4 0 -576364 23633 0 -567099 21623.3 0 -557302 19239.4 0 -674971 64984.5 0 -667652 62180.8 0 -660328 59319.7 0 -653002 56409.3 0 -645678 53459.7 0 -638360 50484.4 0 -631051 47502 0 -623748 44538.5 0 -616440 41630.2 0 -609100 38825.4 0 -601664 36182.6 0 -594014 33751.9 0 -585959 31528.8 0 -577280 29376.9 0 -567857 27009.3 0 -557796 24112.7 0 -675806 78161.1 0 -668350 74763.1 0 -660906 71294 0 -653477 67760.8 0 -646069 64173.1 0 -638690 60544.2 0 -631345 56893.4 0 -624041 53249.9 0 -616779 49656.2 0 -609542 46177 0 -602281 42900.6 0 -594867 39933.4 0 -587044 37330.8 0 -578451 34953.8 0 -568862 32356.9 0 -558455 29019.4 0 -676797 91467.9 0 -669176 87460.7 0 -661581 83371.1 0 -654019 79203.3 0 -646495 74964.9 0 -639019 70666.6 0 -631605 66326.3 0 -624265 61971 0 -617013 57647 0 -609857 53425 0 -602772 49423.3 0 -595660 45810.2 0 -588222 42774.2 0 -579890 40255.3 0 -570163 37626.8 0 -559298 33981.9 0 -677948 104919 0 -670139 100291 0 -662369 95571.1 0 -654645 90761.6 0 -646974 85865.2 0 -639368 80890.2 0 -631843 75848.1 0 -624422 70764.2 0 -617131 65675.2 0 -610001 60657.4 0 -603049 55830.8 0 -596240 51421.9 0 -589340 47775.3 0 -581556 45129.8 0 -571848 42734.1 0 -560406 38945.2 0 -679264 118514 0 -671250 113256 0 -663286 107902 0 -655376 102446 0 -647531 96891.5 0 -639764 91237.7 0 -632093 85495.2 0 -624545 79675.2 0 -617157 73814.8 0 -609982 67963.1 0 -603076 62253.1 0 -596485 56891.9 0 -590149 52361 0 -583316 49371.5 0 -573990 47524.5 0 -561800 43996.4 0 -680747 132239 0 -672519 126350 0 -664346 120357 0 -656235 114257 0 -648195 108044 0 -640240 101719 0 -632391 95278.2 0 -624677 88736.7 0 -617142 82102.2 0 -609844 75430.4 0 -602891 68789.3 0 -596369 62423.9 0 -590428 56706.6 0 -584806 52870.6 0 -576687 51676.9 0 -563676 48883.2 0 -682402 146076 0 -673952 139555 0 -665560 132926 0 -657234 126181 0 -648984 119317 0 -640825 112322 0 -632775 105203 0 -624865 97941.3 0 -617141 90566.6 0 -609668 83078.7 0 -602552 75550 0 -596002 68117.4 0 -590112 61183.2 0 -585518 55747.1 0 -579766 54700.7 0 -566091 54230.7 0 -684229 160002 0 -675552 152853 0 -666934 145589 0 -658384 138205 0 -649914 130690 0 -641536 123042 0 -633271 115238 0 -625146 107301 0 -617200 99174.4 0 -609523 90931.2 0 -602168 82544.3 0 -595437 74092.8 0 -589503 65932.9 0 -584985 58675.3 0 -582574 56132.5 0 -569519 59912.5 0 -686230 173996 0 -677319 166223 0 -668468 158329 0 -659688 150307 0 -650989 142150 0 -642386 133845 0 -633893 125391 0 -625543 116746 0 -617366 107966 0 -609427 98912.5 0 -601881 89771.9 0 -594721 80414.4 0 -588821 70957.4 0 -583647 62235 0 -583398 56205.2 0 -574819 68620.1 0 -688406 188038 0 -679254 179649 0 -670163 171129 0 -661145 162474 0 -652213 153676 0 -643376 144726 0 -634655 135608 0 -626064 126320 0 -617655 116802 0 -609460 107131 0 -601595 97109.2 0 -594302 86947.3 0 -587527 76708.7 0 -583135 65716.5 0 -580251 57302.9 0 -583659 74552.6 0 -690757 202110 0 -681356 193112 0 -672018 183974 0 -662755 174690 0 -653581 165255 0 -644507 155661 0 -635549 145893 0 -626722 135946 0 -618078 125758 0 -609580 115427 0 -601594 104532 0 -593485 94112.7 0 -587591 81412.7 0 -579767 72965.4 0 -580238 57048.2 0 -634796 -24655.3 0 </DataArray> 
</PointData> 
<Points> 
<DataArray type="Float32" NumberOfComponents="3"> 
0 0.027 0 0 0.0286667 0 0 0.0303333 0 0 0.032 0 0 0.0336667 0 0 0.0353333 0 0 0.037 0 0 0.0386667 0 0 0.0403333 0 0 0.042 0 0 0.0436667 0 0 0.0453333 0 0 0.047 0 0 0.0486667 0 0 0.0503333 0 0 0.052 0 0.00306667 0.027 0 0.00291778 0.0286667 0 0.00276889 0.0303333 0 0.00262 0.032 0 0.00247111 0.0336667 0 0.00232222 0.0353333 0 0.00217333 0.037 0 0.00202444 0.0386667 0 0.00187556 0.0403333 0 0.00172667 0.042 0 0.00157778 0.0436667 0 0.00142889 0.0453333 0 0.00128 0.047 0 0.00113111 0.0486667 0 0.000982222 0.0503333 0 0.000833333 0.052 0 0.00613333 0.027 0 0.00583556 0.0286667 0 0.00553778 0.0303333 0 0.00524 0.032 0 0.00494222 0.0336667 0 0.00464444 0.0353333 0 0.00434667 0.037 0 0.00404889 0.0386667 0 0.00375111 0.0403333 0 0.00345333 0.042 0 0.00315556 0.0436667 0 0.00285778 0.0453333 0 0.00256 0.047 0 0.00226222 0.0486667 0 0.00196444 0.0503333 0 0.00166667 0.052 0 0.0092 0.027 0 0.00875333 0.0286667 0 0.00830667 0.0303333 0 0.00786 0.032 0 0.00741333 0.0336667 0 0.00696667 0.0353333 0 0.00652 0.037 0 0.00607333 0.0386667 0 0.00562667 0.0403333 0 0.00518 0.042 0 0.00473333 0.0436667 0 0.00428667 0.0453333 0 0.00384 0.047 0 0.00339333 0.0486667 0 0.00294667 0.0503333 0 0.0025 0.052 0 0.0122667 0.027 0 0.0116711 0.0286667 0 0.0110756 0.0303333 0 0.01048 0.032 0 0.00988444 0.0336667 0 0.00928889 0.0353333 0 0.00869333 0.037 0 0.00809778 0.0386667 0 0.00750222 0.0403333 0 0.00690667 0.042 0 0.00631111 0.0436667 0 0.00571556 0.0453333 0 0.00512 0.047 0 0.00452444 0.0486667 0 0.00392889 0.0503333 0 0.00333333 0.052 0 0.0153333 0.027 0 0.0145889 0.0286667 0 0.0138444 0.0303333 0 0.0131 0.032 0 0.0123556 0.0336667 0 0.0116111 0.0353333 0 0.0108667 0.037 0 0.0101222 0.0386667 0 0.00937778 0.0403333 0 0.00863333 0.042 0 0.00788889 0.0436667 0 0.00714444 0.0453333 0 0.0064 0.047 0 0.00565556 0.0486667 0 0.00491111 0.0503333 0 0.00416667 0.052 0 0.0184 0.027 0 0.0175067 0.0286667 0 0.0166133 0.0303333 0 0.01572 0.032 0 0.0148267 0.0336667 0 0.0139333 0.0353333 0 0.01304 0.037 0 0.0121467 0.0386667 0 0.0112533 0.0403333 0 0.01036 0.042 0 0.00946667 0.0436667 0 0.00857333 0.0453333 0 0.00768 0.047 0 0.00678667 0.0486667 0 0.00589333 0.0503333 0 0.005 0.052 0 0.0214667 0.027 0 0.0204244 0.0286667 0 0.0193822 0.0303333 0 0.01834 0.032 0 0.0172978 0.0336667 0 0.0162556 0.0353333 0 0.0152133 0.037 0 0.0141711 0.0386667 0 0.0131289 0.0403333 0 0.0120867 0.042 0 0.0110444 0.0436667 0 0.0100022 0.0453333 0 0.00896 0.047 0 0.00791778 0.0486667 0 0.00687556 0.0503333 0 0.00583333 0.052 0 0.0245333 0.027 0 0.0233422 0.0286667 0 0.0221511 0.0303333 0 0.02096 0.032 0 0.0197689 0.0336667 0 0.0185778 0.0353333 0 0.0173867 0.037 0 0.0161956 0.0386667 0 0.0150044 0.0403333 0 0.0138133 0.042 0 0.0126222 0.0436667 0 0.0114311 0.0453333 0 0.01024 0.047 0 0.00904889 0.0486667 0 0.00785778 0.0503333 0 0.00666667 0.052 0 0.0276 0.027 0 0.02626 0.0286667 0 0.02492 0.0303333 0 0.02358 0.032 0 0.02224 0.0336667 0 0.0209 0.0353333 0 0.01956 0.037 0 0.01822 0.0386667 0 0.01688 0.0403333 0 0.01554 0.042 0 0.0142 0.0436667 0 0.01286 0.0453333 0 0.01152 0.047 0 0.01018 0.0486667 0 0.00884 0.0503333 0 0.0075 0.052 0 0.0306667 0.027 0 0.0291778 0.0286667 0 0.0276889 0.0303333 0 0.0262 0.032 0 0.0247111 0.0336667 0 0.0232222 0.0353333 0 0.0217333 0.037 0 0.0202444 0.0386667 0 0.0187556 0.0403333 0 0.0172667 0.042 0 0.0157778 0.0436667 0 0.0142889 0.0453333 0 0.0128 0.047 0 0.0113111 0.0486667 0 0.00982222 0.0503333 0 0.00833333 0.052 0 0.0337333 0.027 0 0.0320956 0.0286667 0 0.0304578 0.0303333 0 0.02882 0.032 0 0.0271822 0.0336667 0 0.0255444 0.0353333 0 0.0239067 0.037 0 0.0222689 0.0386667 0 0.0206311 0.0403333 0 0.0189933 0.042 0 0.0173556 0.0436667 0 0.0157178 0.0453333 0 0.01408 0.047 0 0.0124422 0.0486667 0 0.0108044 0.0503333 0 0.00916667 0.052 0 0.0368 0.027 0 0.0350133 0.0286667 0 0.0332267 0.0303333 0 0.03144 0.032 0 0.0296533 0.0336667 0 0.0278667 0.0353333 0 0.02608 0.037 0 0.0242933 0.0386667 0 0.0225067 0.0403333 0 0.02072 0.042 0 0.0189333 0.0436667 0 0.0171467 0.0453333 0 0.01536 0.047 0 0.0135733 0.0486667 0 0.0117867 0.0503333 0 0.01 0.052 0 0.0398667 0.027 0 0.0379311 0.0286667 0 0.0359956 0.0303333 0 0.03406 0.032 0 0.0321244 0.0336667 0 0.0301889 0.0353333 0 0.0282533 0.037 0 0.0263178 0.0386667 0 0.0243822 0.0403333 0 0.0224467 0.042 0 0.0205111 0.0436667 0 0.0185756 0.0453333 0 0.01664 0.047 0 0.0147044 0.0486667 0 0.0127689 0.0503333 0 0.0108333 0.052 0 0.0429333 0.027 0 0.0408489 0.0286667 0 0.0387644 0.0303333 0 0.03668 0.032 0 0.0345956 0.0336667 0 0.0325111 0.0353333 0 0.0304267 0.037 0 0.0283422 0.0386667 0 0.0262578 0.0403333 0 0.0241733 0.042 0 0.0220889 0.0436667 0 0.0200044 0.0453333 0 0.01792 0.047 0 0.0158356 0.0486667 0 0.0137511 0.0503333 0 0.0116667 0.052 0 0.046 0.027 0 0.0437667 0.0286667 0 0.0415333 0.0303333 0 0.0393 0.032 0 0.0370667 0.0336667 0 0.0348333 0.0353333 0 0.0326 0.037 0 0.0303667 0.0386667 0 0.0281333 0.0403333 0 0.0259 0.042 0 0.0236667 0.0436667 0 0.0214333 0.0453333 0 0.0192 0.047 0 0.0169667 0.0486667 0 0.0147333 0.0503333 0 0.0125 0.052 0 
</DataArray>
</Points> 
</Piece> 
</StructuredGrid> 
</VTKFile> 
