<?xml version="1.0"?> 
<VTKFile type="StructuredGrid" version="0.1"> 
<StructuredGrid WholeExtent="0 15 0 15 0 0"> 
<Piece Extent="0 15 0 15 0 0"> 
<PointData>
<DataArray type="Float32" Name="E" format="ascii" NumberOfComponents="3"> 
-9.31323e-09 -2.44551e+06 0 902049 -1.23618e+06 0 969208 -734686 0 931189 -430460 0 900764 -214426 0 843329 -48599.5 0 783747 84394.9 0 712809 192517 0 636818 281136 0 554660 353164 0 468330 411001 0 378439 456221 0 285955 490144 0 191622 513699 0 96093.3 527568 0 0 532146 0 4.12001e-10 -2.22215e+06 0 851905 -1.23018e+06 0 932879 -733575 0 914217 -432779 0 883781 -218265 0 832192 -53046.4 0 773607 78979.5 0 705040 186656 0 630238 274673 0 549430 346345 0 464146 403825 0 375233 448810 0 283627 482541 0 190103 505975 0 95348 519770 0 0 524323 0 6.76664e-10 -2.04048e+06 0 801846 -1.21748e+06 0 899430 -731710 0 895988 -434581 0 867635 -221685 0 820749 -57363.8 0 763703 73785.6 0 697234 180886 0 623732 268341 0 544216 339608 0 459991 396739 0 372045 441470 0 281312 475008 0 188594 498313 0 94605.6 512033 0 0 516561 0 -1.5425e-09 -1.89074e+06 0 753116 -1.19997e+06 0 868051 -728968 0 877044 -435856 0 852061 -224735 0 809146 -61512.8 0 753970 68784 0 689425 175225 0 617285 262128 0 539026 332958 0 455862 389738 0 368875 434203 0 279009 467543 0 187093 490715 0 93866.6 504357 0 0 508860 0 2.28465e-09 -1.76575e+06 0 706466 -1.17903e+06 0 838218 -725294 0 857755 -436608 0 836887 -227448 0 797483 -65471.2 0 744366 63957 0 681638 169683 0 610892 256029 0 533864 326398 0 451760 382822 0 365724 427008 0 276720 460147 0 185602 483180 0 93131.5 496742 0 0 501219 0 -1.30967e-09 -1.66017e+06 0 662299 -1.1557e+06 0 809603 -720676 0 838373 -436844 0 822007 -229844 0 785824 -69227.2 0 734865 59293.7 0 673885 164264 0 604549 250037 0 528733 319929 0 447685 375987 0 362593 419887 0 274445 452818 0 184120 475708 0 92400.7 489187 0 0 493637 0 6.69388e-10 -1.57008e+06 0 620787 -1.13074e+06 0 782010 -715140 0 819067 -436580 0 807355 -231937 0 774212 -72775.9 0 725452 54787.6 0 666179 158972 0 598252 244152 0 523635 313552 0 443638 369233 0 359482 412839 0 272184 445556 0 182647 468299 0 91674.4 481693 0 0 486115 0 -5.82077e-11 -1.49258e+06 0 581958 -1.1047e+06 0 755319 -708730 0 799951 -435832 0 792894 -233737 0 762677 -76116.1 0 716121 50434.9 0 658524 153806 0 592001 238371 0 518572 307267 0 439618 362560 0 356391 405863 0 269938 438360 0 181184 460951 0 90952.7 474258 0 0 478651 0 -4.07454e-10 -1.42557e+06 0 545753 -1.07799e+06 0 729459 -701507 0 781108 -434619 0 778602 -235251 0 751240 -79249.8 0 706866 46233.1 0 650928 148765 0 585797 232693 0 513546 301072 0 435627 355965 0 353322 398959 0 267707 431230 0 179730 453666 0 90235.7 466882 0 0 471246 0 4.07454e-10 -1.3676e+06 0 512071 -1.05087e+06 0 704383 -693542 0 762599 -432962 0 764466 -236485 0 739915 -82180.2 0 697685 42180.9 0 643393 143849 0 579640 227117 0 508558 294967 0 431665 349450 0 350275 392127 0 265492 424165 0 178287 446442 0 89523.8 459565 0 0 463899 0 -2.91038e-10 -1.31771e+06 0 480797 -1.02349e+06 0 680049 -684911 0 744477 -430882 0 750478 -237447 0 728716 -84912.3 0 688579 38277.4 0 635923 139055 0 573531 221643 0 503608 288951 0 427733 343012 0 347251 385365 0 263293 417165 0 176853 439278 0 88816.9 452307 0 0 456609 0 -1.16415e-10 -1.27538e+06 0 451836 -995921 0 656406 -675695 0 726794 -428403 0 736627 -238140 0 717658 -87452.2 0 679545 34522.3 0 628522 134381 0 567469 216271 0 498699 283023 0 423831 336653 0 344249 378674 0 261111 410230 0 175431 432175 0 88115.2 445107 0 0 449377 0 0 -1.24056e+06 0 425130 -968146 0 633382 -665980 0 709609 -425547 0 722897 -238568 0 706757 -89807.4 0 670580 30916.5 0 621194 129825 0 561455 211000 0 493831 277182 0 419960 330371 0 341271 372052 0 258945 403358 0 174019 425132 0 87419 437964 0 0 442202 0 2.32831e-10 -1.21359e+06 0 400692 -940058 0 610867 -655857 0 692996 -422341 0 709259 -238733 0 696035 -91987.9 0 661678 27461.8 0 613946 125381 0 555490 205832 0 489007 271425 0 416120 324167 0 338318 365498 0 256797 396550 0 172618 418149 0 86728.3 430878 0 0 435082 0 -4.65661e-10 -1.19538e+06 0 378633 -911454 0 588694 -645421 0 677059 -418812 0 695670 -238634 0 685522 -94006.9 0 652830 24162.4 0 606785 121045 0 549570 200767 0 484227 265751 0 412313 318039 0 335389 359012 0 254667 389806 0 171228 411224 0 86043.5 423850 0 0 428020 0 -3.72529e-09 -1.18741e+06 0 359200 -882022 0 566620 -634781 0 661944 -414991 0 682061 -238263 0 675261 -95882.2 0 644017 21025.6 0 599722 116809 0 543694 195808 0 479495 260157 0 408537 311990 0 332485 352593 0 252555 383124 0 169849 404357 0 85364.8 416877 0 0 421013 0 </DataArray> 
</PointData> 
<Points> 
<DataArray type="Float32" NumberOfComponents="3"> 
0.398 0.03 0 0.398 0.0365333 0 0.398 0.0430667 0 0.398 0.0496 0 0.398 0.0561333 0 0.398 0.0626667 0 0.398 0.0692 0 0.398 0.0757333 0 0.398 0.0822667 0 0.398 0.0888 0 0.398 0.0953333 0 0.398 0.101867 0 0.398 0.1084 0 0.398 0.114933 0 0.398 0.121467 0 0.398 0.128 0 0.398533 0.03 0 0.398533 0.0365333 0 0.398533 0.0430667 0 0.398533 0.0496 0 0.398533 0.0561333 0 0.398533 0.0626667 0 0.398533 0.0692 0 0.398533 0.0757333 0 0.398533 0.0822667 0 0.398533 0.0888 0 0.398533 0.0953333 0 0.398533 0.101867 0 0.398533 0.1084 0 0.398533 0.114933 0 0.398533 0.121467 0 0.398533 0.128 0 0.399067 0.03 0 0.399067 0.0365333 0 0.399067 0.0430667 0 0.399067 0.0496 0 0.399067 0.0561333 0 0.399067 0.0626667 0 0.399067 0.0692 0 0.399067 0.0757333 0 0.399067 0.0822667 0 0.399067 0.0888 0 0.399067 0.0953333 0 0.399067 0.101867 0 0.399067 0.1084 0 0.399067 0.114933 0 0.399067 0.121467 0 0.399067 0.128 0 0.3996 0.03 0 0.3996 0.0365333 0 0.3996 0.0430667 0 0.3996 0.0496 0 0.3996 0.0561333 0 0.3996 0.0626667 0 0.3996 0.0692 0 0.3996 0.0757333 0 0.3996 0.0822667 0 0.3996 0.0888 0 0.3996 0.0953333 0 0.3996 0.101867 0 0.3996 0.1084 0 0.3996 0.114933 0 0.3996 0.121467 0 0.3996 0.128 0 0.400133 0.03 0 0.400133 0.0365333 0 0.400133 0.0430667 0 0.400133 0.0496 0 0.400133 0.0561333 0 0.400133 0.0626667 0 0.400133 0.0692 0 0.400133 0.0757333 0 0.400133 0.0822667 0 0.400133 0.0888 0 0.400133 0.0953333 0 0.400133 0.101867 0 0.400133 0.1084 0 0.400133 0.114933 0 0.400133 0.121467 0 0.400133 0.128 0 0.400667 0.03 0 0.400667 0.0365333 0 0.400667 0.0430667 0 0.400667 0.0496 0 0.400667 0.0561333 0 0.400667 0.0626667 0 0.400667 0.0692 0 0.400667 0.0757333 0 0.400667 0.0822667 0 0.400667 0.0888 0 0.400667 0.0953333 0 0.400667 0.101867 0 0.400667 0.1084 0 0.400667 0.114933 0 0.400667 0.121467 0 0.400667 0.128 0 0.4012 0.03 0 0.4012 0.0365333 0 0.4012 0.0430667 0 0.4012 0.0496 0 0.4012 0.0561333 0 0.4012 0.0626667 0 0.4012 0.0692 0 0.4012 0.0757333 0 0.4012 0.0822667 0 0.4012 0.0888 0 0.4012 0.0953333 0 0.4012 0.101867 0 0.4012 0.1084 0 0.4012 0.114933 0 0.4012 0.121467 0 0.4012 0.128 0 0.401733 0.03 0 0.401733 0.0365333 0 0.401733 0.0430667 0 0.401733 0.0496 0 0.401733 0.0561333 0 0.401733 0.0626667 0 0.401733 0.0692 0 0.401733 0.0757333 0 0.401733 0.0822667 0 0.401733 0.0888 0 0.401733 0.0953333 0 0.401733 0.101867 0 0.401733 0.1084 0 0.401733 0.114933 0 0.401733 0.121467 0 0.401733 0.128 0 0.402267 0.03 0 0.402267 0.0365333 0 0.402267 0.0430667 0 0.402267 0.0496 0 0.402267 0.0561333 0 0.402267 0.0626667 0 0.402267 0.0692 0 0.402267 0.0757333 0 0.402267 0.0822667 0 0.402267 0.0888 0 0.402267 0.0953333 0 0.402267 0.101867 0 0.402267 0.1084 0 0.402267 0.114933 0 0.402267 0.121467 0 0.402267 0.128 0 0.4028 0.03 0 0.4028 0.0365333 0 0.4028 0.0430667 0 0.4028 0.0496 0 0.4028 0.0561333 0 0.4028 0.0626667 0 0.4028 0.0692 0 0.4028 0.0757333 0 0.4028 0.0822667 0 0.4028 0.0888 0 0.4028 0.0953333 0 0.4028 0.101867 0 0.4028 0.1084 0 0.4028 0.114933 0 0.4028 0.121467 0 0.4028 0.128 0 0.403333 0.03 0 0.403333 0.0365333 0 0.403333 0.0430667 0 0.403333 0.0496 0 0.403333 0.0561333 0 0.403333 0.0626667 0 0.403333 0.0692 0 0.403333 0.0757333 0 0.403333 0.0822667 0 0.403333 0.0888 0 0.403333 0.0953333 0 0.403333 0.101867 0 0.403333 0.1084 0 0.403333 0.114933 0 0.403333 0.121467 0 0.403333 0.128 0 0.403867 0.03 0 0.403867 0.0365333 0 0.403867 0.0430667 0 0.403867 0.0496 0 0.403867 0.0561333 0 0.403867 0.0626667 0 0.403867 0.0692 0 0.403867 0.0757333 0 0.403867 0.0822667 0 0.403867 0.0888 0 0.403867 0.0953333 0 0.403867 0.101867 0 0.403867 0.1084 0 0.403867 0.114933 0 0.403867 0.121467 0 0.403867 0.128 0 0.4044 0.03 0 0.4044 0.0365333 0 0.4044 0.0430667 0 0.4044 0.0496 0 0.4044 0.0561333 0 0.4044 0.0626667 0 0.4044 0.0692 0 0.4044 0.0757333 0 0.4044 0.0822667 0 0.4044 0.0888 0 0.4044 0.0953333 0 0.4044 0.101867 0 0.4044 0.1084 0 0.4044 0.114933 0 0.4044 0.121467 0 0.4044 0.128 0 0.404933 0.03 0 0.404933 0.0365333 0 0.404933 0.0430667 0 0.404933 0.0496 0 0.404933 0.0561333 0 0.404933 0.0626667 0 0.404933 0.0692 0 0.404933 0.0757333 0 0.404933 0.0822667 0 0.404933 0.0888 0 0.404933 0.0953333 0 0.404933 0.101867 0 0.404933 0.1084 0 0.404933 0.114933 0 0.404933 0.121467 0 0.404933 0.128 0 0.405467 0.03 0 0.405467 0.0365333 0 0.405467 0.0430667 0 0.405467 0.0496 0 0.405467 0.0561333 0 0.405467 0.0626667 0 0.405467 0.0692 0 0.405467 0.0757333 0 0.405467 0.0822667 0 0.405467 0.0888 0 0.405467 0.0953333 0 0.405467 0.101867 0 0.405467 0.1084 0 0.405467 0.114933 0 0.405467 0.121467 0 0.405467 0.128 0 0.406 0.03 0 0.406 0.0365333 0 0.406 0.0430667 0 0.406 0.0496 0 0.406 0.0561333 0 0.406 0.0626667 0 0.406 0.0692 0 0.406 0.0757333 0 0.406 0.0822667 0 0.406 0.0888 0 0.406 0.0953333 0 0.406 0.101867 0 0.406 0.1084 0 0.406 0.114933 0 0.406 0.121467 0 0.406 0.128 0 
</DataArray>
</Points> 
</Piece> 
</StructuredGrid> 
</VTKFile> 
