<?xml version="1.0"?> 
<VTKFile type="StructuredGrid" version="0.1"> 
<StructuredGrid WholeExtent="0 15 0 15 0 0"> 
<Piece Extent="0 15 0 15 0 0"> 
<PointData>
<DataArray type="Float32" Name="E" format="ascii" NumberOfComponents="3"> 
-697299 -9.40263e-05 0 -697270 1434.11 0 -697184 2868.22 0 -697039 4302.29 0 -696837 5736.33 0 -696577 7170.3 0 -696259 8604.2 0 -695883 10038 0 -695449 11471.7 0 -694956 12905.2 0 -694404 14338.5 0 -693794 15771.6 0 -693124 17204.4 0 -692395 18637 0 -691606 20069.2 0 -690757 21500.9 0 -708818 0.00130561 0 -708789 1839.01 0 -708704 3678.19 0 -708561 5517.72 0 -708360 7357.75 0 -708103 9198.45 0 -707788 11040 0 -707415 12882.5 0 -706984 14726.2 0 -706495 16571.2 0 -705948 18417.6 0 -705342 20265.5 0 -704678 22115.2 0 -703954 23966.6 0 -703171 25820 0 -702329 27675.4 0 -723162 0.00308258 0 -723134 2235.27 0 -723051 4470.94 0 -722913 6707.41 0 -722720 8945.08 0 -722471 11184.4 0 -722166 13425.6 0 -721806 15669.2 0 -721389 17915.5 0 -720916 20164.9 0 -720387 22417.7 0 -719800 24674.2 0 -719156 26934.7 0 -718454 29199.5 0 -717694 31469 0 -716874 33743.2 0 -740230 0.00557095 0 -740205 2611.19 0 -740128 5223.11 0 -739999 7836.48 0 -739819 10452 0 -739588 13070.4 0 -739304 15692.4 0 -738969 18318.7 0 -738580 20949.9 0 -738139 23586.6 0 -737644 26229.5 0 -737095 28879.1 0 -736492 31536.1 0 -735834 34200.9 0 -735120 36874.1 0 -734350 39556.2 0 -759826 0.00936269 0 -759804 2950.36 0 -759737 5901.95 0 -759625 8855.99 0 -759469 11813.7 0 -759267 14776.2 0 -759020 17744.7 0 -758726 20720.4 0 -758386 23704.3 0 -757998 26697.5 0 -757563 29701 0 -757078 32715.7 0 -756544 35742.6 0 -755959 38782.5 0 -755323 41836 0 -754634 44903.8 0 -781608 0.0153277 0 -781592 3227.76 0 -781542 6457.53 0 -781458 9691.3 0 -781340 12931 0 -781188 16178.7 0 -781000 19436.2 0 -780777 22705.5 0 -780517 25988.3 0 -780220 29286.4 0 -779884 32601.6 0 -779508 35935.5 0 -779090 39289.7 0 -778630 42665.9 0 -778125 46065.7 0 -777573 49490.5 0 -805013 0.0247883 0 -805006 3404.11 0 -804983 6811.46 0 -804944 10225.3 0 -804889 13648.8 0 -804817 17085 0 -804727 20537.1 0 -804617 24008.1 0 -804487 27500.8 0 -804335 31018 0 -804159 34562.3 0 -803957 38136.2 0 -803728 41741.8 0 -803469 45381.1 0 -803179 49055.7 0 -802856 52766.9 0 -829125 0.0404257 0 -829133 3416.68 0 -829154 6838.65 0 -829188 10271.2 0 -829235 13719.5 0 -829293 17188.7 0 -829361 20683.8 0 -829436 24209.9 0 -829516 27771.7 0 -829599 31373.9 0 -829682 35021.1 0 -829760 38717.6 0 -829830 42467.7 0 -829887 46275.6 0 -829926 50145.6 0 -829940 54081.6 0 -852457 0.0649993 0 -852488 3162.77 0 -852580 6334.06 0 -852733 9522.3 0 -852946 12735.9 0 -853216 15983 0 -853541 19271.8 0 -853918 22610.2 0 -854343 26005.9 0 -854813 29466.1 0 -855323 32998.1 0 -855868 36608.4 0 -856444 40303.4 0 -857046 44088.7 0 -857670 47969.1 0 -858312 51949.3 0 -872599 0.104972 0 -872668 2479.93 0 -872875 4973.62 0 -873220 7494.7 0 -873698 10056.8 0 -874308 12673.1 0 -875044 15357 0 -875903 18121.3 0 -876877 20978.3 0 -877960 23940 0 -879144 27017.8 0 -880419 30222.4 0 -881775 33563.7 0 -883201 37051 0 -884684 40693.1 0 -886208 44496.4 0 -885681 0.161016 0 -885811 1107.28 0 -886201 2235.71 0 -886849 3406.36 0 -887752 4640.39 0 -888906 5959.02 0 -890307 7383.54 0 -891948 8935.36 0 -893821 10636 0 -895916 12507.2 0 -898224 14570.9 0 -900732 16849 0 -903426 19363.6 0 -906290 22136.3 0 -909309 25187.8 0 -912464 28540.9 0 -885650 0.208652 0 -885866 -1304.77 0 -886516 -2582.04 0 -887597 -3804.32 0 -889109 -4943.63 0 -891049 -5971.54 0 -893415 -6859.08 0 -896202 -7576.76 0 -899405 -8094.67 0 -903014 -8382.71 0 -907020 -8410.93 0 -911411 -8149.74 0 -916170 -7570.23 0 -921281 -6643.82 0 -926723 -5341.72 0 -932474 -3642.01 0 -864101 0.149589 0 -864408 -5026.9 0 -865332 -10033.6 0 -866878 -14999 0 -869056 -19899.4 0 -871880 -24707.5 0 -875364 -29391.3 0 -879527 -33912.2 0 -884389 -38224.3 0 -889968 -42272.6 0 -896280 -45992 0 -903338 -49307.2 0 -911143 -52132.7 0 -919684 -54375.8 0 -928929 -55940.8 0 -938817 -56723.1 0 -812923 -0.29346 0 -813213 -9506.82 0 -814089 -19052 0 -815568 -28673.2 0 -817677 -38407.3 0 -820460 -48289.2 0 -823972 -58351.1 0 -828285 -68621.1 0 -833488 -79120.6 0 -839693 -89860.7 0 -847037 -100838 0 -855688 -112025 0 -865850 -123360 0 -877772 -134728 0 -891758 -145937 0 -908173 -156716 0 -735198 -0.809608 0 -735224 -12027.2 0 -735304 -24161.7 0 -735445 -36512.1 0 -735661 -49191.9 0 -735970 -62321.6 0 -736396 -76031.4 0 -736967 -90466.4 0 -737719 -105791 0 -738692 -122196 0 -739932 -139912 0 -741492 -159220 0 -743428 -180479 0 -745806 -204151 0 -748707 -230850 0 -752247 -261356 0 -655458 -0.720586 0 -655102 -9648.14 0 -654032 -19391.6 0 -652238 -29327.1 0 -649705 -39554.9 0 -646414 -50179.7 0 -642345 -61309.5 0 -637476 -73054.1 0 -631787 -85519.3 0 -625257 -98799.4 0 -617866 -112963 0 -609585 -128035 0 -600362 -143970 0 -590111 -160604 0 -578631 -177546 0 -565351 -193408 0 </DataArray> 
</PointData> 
<Points> 
<DataArray type="Float32" NumberOfComponents="3"> 
0.046 0 0 0.046 0.0018 0 0.046 0.0036 0 0.046 0.0054 0 0.046 0.0072 0 0.046 0.009 0 0.046 0.0108 0 0.046 0.0126 0 0.046 0.0144 0 0.046 0.0162 0 0.046 0.018 0 0.046 0.0198 0 0.046 0.0216 0 0.046 0.0234 0 0.046 0.0252 0 0.046 0.027 0 0.0586667 0 0 0.0586667 0.0018 0 0.0586667 0.0036 0 0.0586667 0.0054 0 0.0586667 0.0072 0 0.0586667 0.009 0 0.0586667 0.0108 0 0.0586667 0.0126 0 0.0586667 0.0144 0 0.0586667 0.0162 0 0.0586667 0.018 0 0.0586667 0.0198 0 0.0586667 0.0216 0 0.0586667 0.0234 0 0.0586667 0.0252 0 0.0586667 0.027 0 0.0713333 0 0 0.0713333 0.0018 0 0.0713333 0.0036 0 0.0713333 0.0054 0 0.0713333 0.0072 0 0.0713333 0.009 0 0.0713333 0.0108 0 0.0713333 0.0126 0 0.0713333 0.0144 0 0.0713333 0.0162 0 0.0713333 0.018 0 0.0713333 0.0198 0 0.0713333 0.0216 0 0.0713333 0.0234 0 0.0713333 0.0252 0 0.0713333 0.027 0 0.084 0 0 0.084 0.0018 0 0.084 0.0036 0 0.084 0.0054 0 0.084 0.0072 0 0.084 0.009 0 0.084 0.0108 0 0.084 0.0126 0 0.084 0.0144 0 0.084 0.0162 0 0.084 0.018 0 0.084 0.0198 0 0.084 0.0216 0 0.084 0.0234 0 0.084 0.0252 0 0.084 0.027 0 0.0966667 0 0 0.0966667 0.0018 0 0.0966667 0.0036 0 0.0966667 0.0054 0 0.0966667 0.0072 0 0.0966667 0.009 0 0.0966667 0.0108 0 0.0966667 0.0126 0 0.0966667 0.0144 0 0.0966667 0.0162 0 0.0966667 0.018 0 0.0966667 0.0198 0 0.0966667 0.0216 0 0.0966667 0.0234 0 0.0966667 0.0252 0 0.0966667 0.027 0 0.109333 0 0 0.109333 0.0018 0 0.109333 0.0036 0 0.109333 0.0054 0 0.109333 0.0072 0 0.109333 0.009 0 0.109333 0.0108 0 0.109333 0.0126 0 0.109333 0.0144 0 0.109333 0.0162 0 0.109333 0.018 0 0.109333 0.0198 0 0.109333 0.0216 0 0.109333 0.0234 0 0.109333 0.0252 0 0.109333 0.027 0 0.122 0 0 0.122 0.0018 0 0.122 0.0036 0 0.122 0.0054 0 0.122 0.0072 0 0.122 0.009 0 0.122 0.0108 0 0.122 0.0126 0 0.122 0.0144 0 0.122 0.0162 0 0.122 0.018 0 0.122 0.0198 0 0.122 0.0216 0 0.122 0.0234 0 0.122 0.0252 0 0.122 0.027 0 0.134667 0 0 0.134667 0.0018 0 0.134667 0.0036 0 0.134667 0.0054 0 0.134667 0.0072 0 0.134667 0.009 0 0.134667 0.0108 0 0.134667 0.0126 0 0.134667 0.0144 0 0.134667 0.0162 0 0.134667 0.018 0 0.134667 0.0198 0 0.134667 0.0216 0 0.134667 0.0234 0 0.134667 0.0252 0 0.134667 0.027 0 0.147333 0 0 0.147333 0.0018 0 0.147333 0.0036 0 0.147333 0.0054 0 0.147333 0.0072 0 0.147333 0.009 0 0.147333 0.0108 0 0.147333 0.0126 0 0.147333 0.0144 0 0.147333 0.0162 0 0.147333 0.018 0 0.147333 0.0198 0 0.147333 0.0216 0 0.147333 0.0234 0 0.147333 0.0252 0 0.147333 0.027 0 0.16 0 0 0.16 0.0018 0 0.16 0.0036 0 0.16 0.0054 0 0.16 0.0072 0 0.16 0.009 0 0.16 0.0108 0 0.16 0.0126 0 0.16 0.0144 0 0.16 0.0162 0 0.16 0.018 0 0.16 0.0198 0 0.16 0.0216 0 0.16 0.0234 0 0.16 0.0252 0 0.16 0.027 0 0.172667 0 0 0.172667 0.0018 0 0.172667 0.0036 0 0.172667 0.0054 0 0.172667 0.0072 0 0.172667 0.009 0 0.172667 0.0108 0 0.172667 0.0126 0 0.172667 0.0144 0 0.172667 0.0162 0 0.172667 0.018 0 0.172667 0.0198 0 0.172667 0.0216 0 0.172667 0.0234 0 0.172667 0.0252 0 0.172667 0.027 0 0.185333 0 0 0.185333 0.0018 0 0.185333 0.0036 0 0.185333 0.0054 0 0.185333 0.0072 0 0.185333 0.009 0 0.185333 0.0108 0 0.185333 0.0126 0 0.185333 0.0144 0 0.185333 0.0162 0 0.185333 0.018 0 0.185333 0.0198 0 0.185333 0.0216 0 0.185333 0.0234 0 0.185333 0.0252 0 0.185333 0.027 0 0.198 0 0 0.198 0.0018 0 0.198 0.0036 0 0.198 0.0054 0 0.198 0.0072 0 0.198 0.009 0 0.198 0.0108 0 0.198 0.0126 0 0.198 0.0144 0 0.198 0.0162 0 0.198 0.018 0 0.198 0.0198 0 0.198 0.0216 0 0.198 0.0234 0 0.198 0.0252 0 0.198 0.027 0 0.210667 0 0 0.210667 0.0018 0 0.210667 0.0036 0 0.210667 0.0054 0 0.210667 0.0072 0 0.210667 0.009 0 0.210667 0.0108 0 0.210667 0.0126 0 0.210667 0.0144 0 0.210667 0.0162 0 0.210667 0.018 0 0.210667 0.0198 0 0.210667 0.0216 0 0.210667 0.0234 0 0.210667 0.0252 0 0.210667 0.027 0 0.223333 0 0 0.223333 0.0018 0 0.223333 0.0036 0 0.223333 0.0054 0 0.223333 0.0072 0 0.223333 0.009 0 0.223333 0.0108 0 0.223333 0.0126 0 0.223333 0.0144 0 0.223333 0.0162 0 0.223333 0.018 0 0.223333 0.0198 0 0.223333 0.0216 0 0.223333 0.0234 0 0.223333 0.0252 0 0.223333 0.027 0 0.236 0 0 0.236 0.0018 0 0.236 0.0036 0 0.236 0.0054 0 0.236 0.0072 0 0.236 0.009 0 0.236 0.0108 0 0.236 0.0126 0 0.236 0.0144 0 0.236 0.0162 0 0.236 0.018 0 0.236 0.0198 0 0.236 0.0216 0 0.236 0.0234 0 0.236 0.0252 0 0.236 0.027 0 
</DataArray>
</Points> 
</Piece> 
</StructuredGrid> 
</VTKFile> 
