<?xml version="1.0"?> 
<VTKFile type="StructuredGrid" version="0.1"> 
<StructuredGrid WholeExtent="0 15 0 15 0 0"> 
<Piece Extent="0 15 0 15 0 0"> 
<PointData>
<DataArray type="Float32" Name="E" format="ascii" NumberOfComponents="3"> 
-655751 -0.720586 0 -655397 -9648.14 0 -654332 -19391.6 0 -652544 -29327.1 0 -650018 -39554.9 0 -646732 -50179.7 0 -642661 -61309.5 0 -637779 -73054.1 0 -632062 -85519.3 0 -625480 -98799.4 0 -618016 -112963 0 -609610 -128035 0 -600260 -143970 0 -589790 -160604 0 -578300 -177546 0 -567398 -193408 0 -649830 -0.681115 0 -649447 -9183.64 0 -648293 -18457.7 0 -646358 -27914.2 0 -643620 -37650.1 0 -640055 -47767.2 0 -635637 -58373 0 -630339 -69577.7 0 -624140 -81489.5 0 -617026 -94204.5 0 -608990 -107793 0 -600037 -122278 0 -590163 -137607 0 -579398 -153620 0 -567799 -170015 0 -555671 -186680 0 -644212 -0.633229 0 -643801 -8683.54 0 -642565 -17451.6 0 -640489 -26391 0 -637549 -35594.3 0 -633716 -45161.3 0 -628961 -55199 0 -623255 -65820.7 0 -616581 -77139.9 0 -608935 -89261.3 0 -600334 -102264 0 -590816 -116181 0 -580445 -130967 0 -569305 -146478 0 -557522 -162480 0 -545194 -178788 0 -638919 -0.578324 0 -638483 -8150.16 0 -637170 -16377.8 0 -634962 -24763.5 0 -631832 -33394.9 0 -627744 -42369 0 -622663 -51793.6 0 -616557 -61786.6 0 -609409 -72471.2 0 -601224 -83966.4 0 -592041 -96369.9 0 -581936 -109734 0 -571030 -124034 0 -559474 -139143 0 -547436 -154835 0 -535013 -170805 0 -633970 -0.511163 0 -633512 -7586.34 0 -632130 -15241.7 0 -629801 -23039.1 0 -626494 -31060.1 0 -622165 -39398.6 0 -616771 -48163.3 0 -610273 -57478.3 0 -602650 -67480.3 0 -593912 -78309.2 0 -584115 -90091.2 0 -573377 -102911 0 -561873 -116775 0 -549833 -131576 0 -537491 -147071 0 -525011 -162894 0 -629385 -0.431475 0 -628907 -6995.43 0 -627463 -14049.7 0 -625028 -21226.6 0 -621561 -28600.2 0 -617010 -36260 0 -611318 -44315.3 0 -604436 -52897.8 0 -596334 -62160.9 0 -587021 -72272.4 0 -576567 -83397.6 0 -565122 -95668.5 0 -552930 -109138 0 -540307 -123727 0 -527593 -139175 0 -515051 -155042 0 -625178 -0.336113 0 -624683 -6381.49 0 -623189 -12809.7 0 -620663 -19336.9 0 -617057 -26027.8 0 -612306 -32965.8 0 -606338 -40259.5 0 -599085 -48048.4 0 -590502 -56505.1 0 -580587 -65832.2 0 -569415 -76246.1 0 -557168 -87944.7 0 -544158 -101050 0 -530816 -115528 0 -517620 -131109 0 -504963 -147261 0 -621362 -0.223298 0 -620855 -5749.38 0 -619323 -11530.9 0 -616727 -17383.1 0 -613007 -23358.7 0 -608085 -29532.1 0 -601868 -36009.1 0 -594264 -42935.6 0 -585200 -50505.2 0 -574655 -58960.3 0 -562695 -68582 0 -549523 -79656.1 0 -535521 -92405.9 0 -521260 -106879 0 -507421 -122809 0 -494601 -139560 0 -617947 -0.0917982 0 -617433 -5104.87 0 -615877 -10224.7 0 -613234 -15381.5 0 -609434 -20612.6 0 -604377 -25980 0 -597948 -31582.8 0 -590023 -37570.4 0 -580491 -44156 0 -569292 -51626.6 0 -556465 -60339.4 0 -542216 -70695.5 0 -526992 -83064.4 0 -511536 -97633.5 0 -496804 -114179 0 -483672 -131881 0 -614938 0.0604011 0 -614422 -4454.75 0 -612860 -8904.55 0 -610200 -13351.7 0 -606357 -17814.2 0 -601213 -22337.1 0 -594623 -27007.1 0 -586421 -31971.6 0 -576447 -37459.8 0 -564582 -43802.5 0 -550810 -51444.5 0 -535308 -60929 0 -518570 -72832 0 -501518 -87576.6 0 -485524 -105059 0 -471986 -124334 0 -612335 0.230282 0 -611825 -3806.92 0 -610277 -7586.15 0 -607633 -11317 0 -603794 -14993.8 0 -598622 -18638.6 0 -591936 -22318.6 0 -583524 -26170.2 0 -573157 -30430.1 0 -560636 -35468.9 0 -545855 -41820.9 0 -528914 -50198.3 0 -510291 -61450.9 0 -491094 -76385 0 -473234 -95229.2 0 -458932 -116659 0 -610135 0.420591 0 -609638 -3170.3 0 -608127 -6287.63 0 -605537 -9304.91 0 -601758 -12188.2 0 -596630 -14929.5 0 -589934 -17566.8 0 -581401 -20213.3 0 -570725 -23099.9 0 -557595 -26622.7 0 -541774 -31402.4 0 -523213 -38327.1 0 -502285 -48588.2 0 -480159 -63579.5 0 -459465 -84233 0 -444106 -109460 0 -608327 0.61969 0 -607852 -2554.86 0 -606402 -5029.35 0 -603910 -7347.11 0 -600255 -9440.98 0 -595255 -11265.3 0 -588657 -12816.7 0 -580129 -14169.7 0 -569269 -15527.2 0 -555631 -17292.4 0 -538794 -20146.2 0 -518491 -25147.1 0 -494813 -33841.1 0 -468756 -48411.3 0 -443502 -71396.7 0 -426072 -101774 0 -606895 0.834342 0 -606449 -1971.3 0 -605088 -3833.6 0 -602742 -5478.94 0 -599282 -6802.57 0 -594511 -7712.69 0 -588142 -8151.55 0 -579780 -8133.12 0 -568914 -7807.06 0 -554941 -7546.85 0 -537201 -8062.96 0 -515147 -10531.3 0 -488367 -16793.6 0 -457263 -29838.5 0 -424423 -54897 0 -402530 -96406.1 0 -605814 0.994975 0 -605406 -1430.84 0 -604162 -2723.91 0 -602011 -3738.95 0 -598825 -4329.22 0 -594396 -4350.73 0 -588411 -3672.91 0 -580416 -2230.92 0 -569793 -73.7989 0 -555736 2480.36 0 -537358 4771.35 0 -513635 5533.13 0 -483844 2849.88 0 -446631 -6607.78 0 -402005 -30995.2 0 -368776 -92018.7 0 -605055 1.53988 0 -604694 -944.493 0 -603593 -1724.63 0 -601688 -2166.18 0 -598856 -2084.17 0 -594891 -1264.19 0 -589473 488.698 0 -582081 3391.56 0 -572038 7457.58 0 -558217 12628.9 0 -539673 18118 0 -514456 22982.3 0 -482326 25019.2 0 -438978 21510.3 0 -381182 9169.29 0 -261622 -68667.2 0 </DataArray> 
</PointData> 
<Points> 
<DataArray type="Float32" NumberOfComponents="3"> 
0.236 0 0 0.236 0.0018 0 0.236 0.0036 0 0.236 0.0054 0 0.236 0.0072 0 0.236 0.009 0 0.236 0.0108 0 0.236 0.0126 0 0.236 0.0144 0 0.236 0.0162 0 0.236 0.018 0 0.236 0.0198 0 0.236 0.0216 0 0.236 0.0234 0 0.236 0.0252 0 0.236 0.027 0 0.237133 0 0 0.237133 0.0018 0 0.237133 0.0036 0 0.237133 0.0054 0 0.237133 0.0072 0 0.237133 0.009 0 0.237133 0.0108 0 0.237133 0.0126 0 0.237133 0.0144 0 0.237133 0.0162 0 0.237133 0.018 0 0.237133 0.0198 0 0.237133 0.0216 0 0.237133 0.0234 0 0.237133 0.0252 0 0.237133 0.027 0 0.238267 0 0 0.238267 0.0018 0 0.238267 0.0036 0 0.238267 0.0054 0 0.238267 0.0072 0 0.238267 0.009 0 0.238267 0.0108 0 0.238267 0.0126 0 0.238267 0.0144 0 0.238267 0.0162 0 0.238267 0.018 0 0.238267 0.0198 0 0.238267 0.0216 0 0.238267 0.0234 0 0.238267 0.0252 0 0.238267 0.027 0 0.2394 0 0 0.2394 0.0018 0 0.2394 0.0036 0 0.2394 0.0054 0 0.2394 0.0072 0 0.2394 0.009 0 0.2394 0.0108 0 0.2394 0.0126 0 0.2394 0.0144 0 0.2394 0.0162 0 0.2394 0.018 0 0.2394 0.0198 0 0.2394 0.0216 0 0.2394 0.0234 0 0.2394 0.0252 0 0.2394 0.027 0 0.240533 0 0 0.240533 0.0018 0 0.240533 0.0036 0 0.240533 0.0054 0 0.240533 0.0072 0 0.240533 0.009 0 0.240533 0.0108 0 0.240533 0.0126 0 0.240533 0.0144 0 0.240533 0.0162 0 0.240533 0.018 0 0.240533 0.0198 0 0.240533 0.0216 0 0.240533 0.0234 0 0.240533 0.0252 0 0.240533 0.027 0 0.241667 0 0 0.241667 0.0018 0 0.241667 0.0036 0 0.241667 0.0054 0 0.241667 0.0072 0 0.241667 0.009 0 0.241667 0.0108 0 0.241667 0.0126 0 0.241667 0.0144 0 0.241667 0.0162 0 0.241667 0.018 0 0.241667 0.0198 0 0.241667 0.0216 0 0.241667 0.0234 0 0.241667 0.0252 0 0.241667 0.027 0 0.2428 0 0 0.2428 0.0018 0 0.2428 0.0036 0 0.2428 0.0054 0 0.2428 0.0072 0 0.2428 0.009 0 0.2428 0.0108 0 0.2428 0.0126 0 0.2428 0.0144 0 0.2428 0.0162 0 0.2428 0.018 0 0.2428 0.0198 0 0.2428 0.0216 0 0.2428 0.0234 0 0.2428 0.0252 0 0.2428 0.027 0 0.243933 0 0 0.243933 0.0018 0 0.243933 0.0036 0 0.243933 0.0054 0 0.243933 0.0072 0 0.243933 0.009 0 0.243933 0.0108 0 0.243933 0.0126 0 0.243933 0.0144 0 0.243933 0.0162 0 0.243933 0.018 0 0.243933 0.0198 0 0.243933 0.0216 0 0.243933 0.0234 0 0.243933 0.0252 0 0.243933 0.027 0 0.245067 0 0 0.245067 0.0018 0 0.245067 0.0036 0 0.245067 0.0054 0 0.245067 0.0072 0 0.245067 0.009 0 0.245067 0.0108 0 0.245067 0.0126 0 0.245067 0.0144 0 0.245067 0.0162 0 0.245067 0.018 0 0.245067 0.0198 0 0.245067 0.0216 0 0.245067 0.0234 0 0.245067 0.0252 0 0.245067 0.027 0 0.2462 0 0 0.2462 0.0018 0 0.2462 0.0036 0 0.2462 0.0054 0 0.2462 0.0072 0 0.2462 0.009 0 0.2462 0.0108 0 0.2462 0.0126 0 0.2462 0.0144 0 0.2462 0.0162 0 0.2462 0.018 0 0.2462 0.0198 0 0.2462 0.0216 0 0.2462 0.0234 0 0.2462 0.0252 0 0.2462 0.027 0 0.247333 0 0 0.247333 0.0018 0 0.247333 0.0036 0 0.247333 0.0054 0 0.247333 0.0072 0 0.247333 0.009 0 0.247333 0.0108 0 0.247333 0.0126 0 0.247333 0.0144 0 0.247333 0.0162 0 0.247333 0.018 0 0.247333 0.0198 0 0.247333 0.0216 0 0.247333 0.0234 0 0.247333 0.0252 0 0.247333 0.027 0 0.248467 0 0 0.248467 0.0018 0 0.248467 0.0036 0 0.248467 0.0054 0 0.248467 0.0072 0 0.248467 0.009 0 0.248467 0.0108 0 0.248467 0.0126 0 0.248467 0.0144 0 0.248467 0.0162 0 0.248467 0.018 0 0.248467 0.0198 0 0.248467 0.0216 0 0.248467 0.0234 0 0.248467 0.0252 0 0.248467 0.027 0 0.2496 0 0 0.2496 0.0018 0 0.2496 0.0036 0 0.2496 0.0054 0 0.2496 0.0072 0 0.2496 0.009 0 0.2496 0.0108 0 0.2496 0.0126 0 0.2496 0.0144 0 0.2496 0.0162 0 0.2496 0.018 0 0.2496 0.0198 0 0.2496 0.0216 0 0.2496 0.0234 0 0.2496 0.0252 0 0.2496 0.027 0 0.250733 0 0 0.250733 0.0018 0 0.250733 0.0036 0 0.250733 0.0054 0 0.250733 0.0072 0 0.250733 0.009 0 0.250733 0.0108 0 0.250733 0.0126 0 0.250733 0.0144 0 0.250733 0.0162 0 0.250733 0.018 0 0.250733 0.0198 0 0.250733 0.0216 0 0.250733 0.0234 0 0.250733 0.0252 0 0.250733 0.027 0 0.251867 0 0 0.251867 0.0018 0 0.251867 0.0036 0 0.251867 0.0054 0 0.251867 0.0072 0 0.251867 0.009 0 0.251867 0.0108 0 0.251867 0.0126 0 0.251867 0.0144 0 0.251867 0.0162 0 0.251867 0.018 0 0.251867 0.0198 0 0.251867 0.0216 0 0.251867 0.0234 0 0.251867 0.0252 0 0.251867 0.027 0 0.253 0 0 0.253 0.0018 0 0.253 0.0036 0 0.253 0.0054 0 0.253 0.0072 0 0.253 0.009 0 0.253 0.0108 0 0.253 0.0126 0 0.253 0.0144 0 0.253 0.0162 0 0.253 0.018 0 0.253 0.0198 0 0.253 0.0216 0 0.253 0.0234 0 0.253 0.0252 0 0.253 0.027 0 
</DataArray>
</Points> 
</Piece> 
</StructuredGrid> 
</VTKFile> 
