<?xml version="1.0"?> 
<VTKFile type="StructuredGrid" version="0.1"> 
<StructuredGrid WholeExtent="0 15 0 15 0 0"> 
<Piece Extent="0 15 0 15 0 0"> 
<PointData>
<DataArray type="Float32" Name="E" format="ascii" NumberOfComponents="3"> 
-580037 42771.2 0 -578384 31650.8 0 -574942 28779.4 0 -571198 27858.4 0 -567488 27658.4 0 -563889 27752.8 0 -560400 27966.8 0 -556983 28230.5 0 -553592 28512 0 -550174 28807 0 -546677 29137.2 0 -543052 29558.1 0 -539265 30219.4 0 -535311 31497.7 0 -531298 34505 0 -527616 45227.7 0 -569528 53798.8 0 -569207 54090 0 -568871 54705.2 0 -568482 55362.3 0 -568036 56014.9 0 -567537 56653.8 0 -566995 57279.9 0 -566420 57897 0 -565822 58508.5 0 -565213 59116.8 0 -564601 59723.3 0 -563999 60328.9 0 -563414 60936.1 0 -562853 61555.3 0 -562307 62225.4 0 -561704 63189.3 0 -587048 63098.6 0 -586496 64283.8 0 -585953 65138.3 0 -585406 65944 0 -584850 66751.8 0 -584284 67575.5 0 -583708 68418.3 0 -583120 69279.7 0 -582519 70158.5 0 -581904 71053.9 0 -581275 71965 0 -580631 72890.5 0 -579971 73826.6 0 -579296 74760.9 0 -578610 75650.7 0 -577940 76248.5 0 -609449 72071 0 -608917 73066.4 0 -608359 74244.1 0 -607787 75444.7 0 -607203 76639.7 0 -606610 77821.3 0 -606005 78988.1 0 -605390 80140.3 0 -604763 81278.8 0 -604126 82404 0 -603477 83516.6 0 -602816 84617.3 0 -602144 85708.1 0 -601460 86796.1 0 -600762 87905.1 0 -600038 89174.1 0 -637342 81637.4 0 -636763 83131.7 0 -636181 84528.1 0 -635587 85909.5 0 -634978 87290.6 0 -634356 88675 0 -633720 90063.5 0 -633071 91455.6 0 -632408 92850.9 0 -631733 94249 0 -631045 95649.4 0 -630345 97051.8 0 -629634 98454.9 0 -628911 99855.2 0 -628177 101240 0 -627438 102538 0 -670963 91106.6 0 -670368 92765 0 -669753 94468 0 -669124 96174.5 0 -668482 97877.3 0 -667827 99574.4 0 -667158 101265 0 -666476 102951 0 -665779 104631 0 -665069 106305 0 -664344 107974 0 -663604 109638 0 -662850 111297 0 -662080 112954 0 -661294 114614 0 -660490 116312 0 -710921 100616 0 -710301 102647 0 -709668 104655 0 -709019 106658 0 -708353 108661 0 -707671 110664 0 -706973 112665 0 -706258 114666 0 -705527 116665 0 -704781 118662 0 -704018 120658 0 -703241 122650 0 -702448 124639 0 -701641 126623 0 -700821 128598 0 -699989 130548 0 -758179 109576 0 -757570 111979 0 -756938 114389 0 -756284 116796 0 -755610 119199 0 -754914 121598 0 -754199 123993 0 -753462 126386 0 -752705 128775 0 -751927 131161 0 -751128 133545 0 -750307 135927 0 -749463 138307 0 -748597 140688 0 -747706 143070 0 -746790 145463 0 -814489 117849 0 -813877 120702 0 -813244 123556 0 -812587 126415 0 -811906 129276 0 -811201 132138 0 -810471 135000 0 -809717 137861 0 -808938 140719 0 -808135 143573 0 -807308 146420 0 -806458 149261 0 -805586 152091 0 -804694 154909 0 -803784 157712 0 -802857 160491 0 -881995 123763 0 -881484 127325 0 -880933 130875 0 -880343 134415 0 -879715 137949 0 -879051 141477 0 -878349 145001 0 -877610 148523 0 -876834 152045 0 -876021 155568 0 -875169 159095 0 -874277 162627 0 -873344 166169 0 -872368 169723 0 -871345 173296 0 -870272 176895 0 -964973 127198 0 -964557 131441 0 -964098 135718 0 -963595 140020 0 -963047 144342 0 -962452 148676 0 -961810 153017 0 -961122 157361 0 -960387 161700 0 -959607 166031 0 -958782 170347 0 -957915 174640 0 -957008 178903 0 -956064 183127 0 -955088 187298 0 -954086 191402 0 -1.06891e+06 122567 0 -1.06883e+06 128397 0 -1.06868e+06 134183 0 -1.06845e+06 139938 0 -1.06814e+06 145672 0 -1.06776e+06 151395 0 -1.0673e+06 157115 0 -1.06676e+06 162838 0 -1.06615e+06 168573 0 -1.06546e+06 174327 0 -1.06469e+06 180108 0 -1.06383e+06 185926 0 -1.06289e+06 191794 0 -1.06186e+06 197727 0 -1.06072e+06 203744 0 -1.05949e+06 209869 0 -1.2035e+06 109456 0 -1.204e+06 116378 0 -1.20439e+06 123437 0 -1.20467e+06 130604 0 -1.20484e+06 137855 0 -1.2049e+06 145167 0 -1.20485e+06 152521 0 -1.2047e+06 159899 0 -1.20444e+06 167283 0 -1.20408e+06 174653 0 -1.20361e+06 181990 0 -1.20303e+06 189271 0 -1.20236e+06 196468 0 -1.20159e+06 203549 0 -1.20074e+06 210476 0 -1.19979e+06 217202 0 -1.38004e+06 69647.5 0 -1.38151e+06 80133.4 0 -1.38292e+06 90502.7 0 -1.38425e+06 100803 0 -1.3855e+06 111076 0 -1.38664e+06 121355 0 -1.38767e+06 131670 0 -1.38858e+06 142048 0 -1.38935e+06 152515 0 -1.38998e+06 163099 0 -1.39046e+06 173830 0 -1.3908e+06 184739 0 -1.39098e+06 195868 0 -1.391e+06 207262 0 -1.39086e+06 218980 0 -1.39056e+06 231093 0 -1.59946e+06 -8252.69 0 -1.60536e+06 3504.29 0 -1.61064e+06 15543.8 0 -1.61543e+06 27804 0 -1.61981e+06 40237.2 0 -1.62384e+06 52807.3 0 -1.62757e+06 65486.1 0 -1.63104e+06 78250.8 0 -1.63426e+06 91080.4 0 -1.63726e+06 103954 0 -1.64002e+06 116847 0 -1.64254e+06 129730 0 -1.64478e+06 142563 0 -1.64671e+06 155295 0 -1.64828e+06 167858 0 -1.6494e+06 180165 0 -1.96099e+06 1.43051e-06 0 -1.93914e+06 -1.55414e-07 0 -1.92173e+06 1.21072e-07 0 -1.90828e+06 -2.19792e-07 0 -1.89839e+06 1.86265e-07 0 -1.89176e+06 -7.45058e-08 0 -1.88817e+06 1.63913e-07 0 -1.88748e+06 -2.16067e-07 0 -1.88959e+06 2.5332e-07 0 -1.89451e+06 -2.45869e-07 0 -1.90227e+06 2.98023e-08 0 -1.913e+06 1.19209e-07 0 -1.92689e+06 -1.63913e-07 0 -1.9442e+06 5.96046e-08 0 -1.96529e+06 2.68221e-07 0 -1.99061e+06 -3.45707e-06 0 </DataArray> 
</PointData> 
<Points> 
<DataArray type="Float32" NumberOfComponents="3"> 
0.0125 0.052 0 0.0125 0.0526667 0 0.0125 0.0533333 0 0.0125 0.054 0 0.0125 0.0546667 0 0.0125 0.0553333 0 0.0125 0.056 0 0.0125 0.0566667 0 0.0125 0.0573333 0 0.0125 0.058 0 0.0125 0.0586667 0 0.0125 0.0593333 0 0.0125 0.06 0 0.0125 0.0606667 0 0.0125 0.0613333 0 0.0125 0.062 0 0.0265 0.0508667 0 0.0265 0.0515333 0 0.0265 0.0522 0 0.0265 0.0528667 0 0.0265 0.0535333 0 0.0265 0.0542 0 0.0265 0.0548667 0 0.0265 0.0555333 0 0.0265 0.0562 0 0.0265 0.0568667 0 0.0265 0.0575333 0 0.0265 0.0582 0 0.0265 0.0588667 0 0.0265 0.0595333 0 0.0265 0.0602 0 0.0265 0.0608667 0 0.0405 0.0497333 0 0.0405 0.0504 0 0.0405 0.0510667 0 0.0405 0.0517333 0 0.0405 0.0524 0 0.0405 0.0530667 0 0.0405 0.0537333 0 0.0405 0.0544 0 0.0405 0.0550667 0 0.0405 0.0557333 0 0.0405 0.0564 0 0.0405 0.0570667 0 0.0405 0.0577333 0 0.0405 0.0584 0 0.0405 0.0590667 0 0.0405 0.0597333 0 0.0545 0.0486 0 0.0545 0.0492667 0 0.0545 0.0499333 0 0.0545 0.0506 0 0.0545 0.0512667 0 0.0545 0.0519333 0 0.0545 0.0526 0 0.0545 0.0532667 0 0.0545 0.0539333 0 0.0545 0.0546 0 0.0545 0.0552667 0 0.0545 0.0559333 0 0.0545 0.0566 0 0.0545 0.0572667 0 0.0545 0.0579333 0 0.0545 0.0586 0 0.0685 0.0474667 0 0.0685 0.0481333 0 0.0685 0.0488 0 0.0685 0.0494667 0 0.0685 0.0501333 0 0.0685 0.0508 0 0.0685 0.0514667 0 0.0685 0.0521333 0 0.0685 0.0528 0 0.0685 0.0534667 0 0.0685 0.0541333 0 0.0685 0.0548 0 0.0685 0.0554667 0 0.0685 0.0561333 0 0.0685 0.0568 0 0.0685 0.0574667 0 0.0825 0.0463333 0 0.0825 0.047 0 0.0825 0.0476667 0 0.0825 0.0483333 0 0.0825 0.049 0 0.0825 0.0496667 0 0.0825 0.0503333 0 0.0825 0.051 0 0.0825 0.0516667 0 0.0825 0.0523333 0 0.0825 0.053 0 0.0825 0.0536667 0 0.0825 0.0543333 0 0.0825 0.055 0 0.0825 0.0556667 0 0.0825 0.0563333 0 0.0965 0.0452 0 0.0965 0.0458667 0 0.0965 0.0465333 0 0.0965 0.0472 0 0.0965 0.0478667 0 0.0965 0.0485333 0 0.0965 0.0492 0 0.0965 0.0498667 0 0.0965 0.0505333 0 0.0965 0.0512 0 0.0965 0.0518667 0 0.0965 0.0525333 0 0.0965 0.0532 0 0.0965 0.0538667 0 0.0965 0.0545333 0 0.0965 0.0552 0 0.1105 0.0440667 0 0.1105 0.0447333 0 0.1105 0.0454 0 0.1105 0.0460667 0 0.1105 0.0467333 0 0.1105 0.0474 0 0.1105 0.0480667 0 0.1105 0.0487333 0 0.1105 0.0494 0 0.1105 0.0500667 0 0.1105 0.0507333 0 0.1105 0.0514 0 0.1105 0.0520667 0 0.1105 0.0527333 0 0.1105 0.0534 0 0.1105 0.0540667 0 0.1245 0.0429333 0 0.1245 0.0436 0 0.1245 0.0442667 0 0.1245 0.0449333 0 0.1245 0.0456 0 0.1245 0.0462667 0 0.1245 0.0469333 0 0.1245 0.0476 0 0.1245 0.0482667 0 0.1245 0.0489333 0 0.1245 0.0496 0 0.1245 0.0502667 0 0.1245 0.0509333 0 0.1245 0.0516 0 0.1245 0.0522667 0 0.1245 0.0529333 0 0.1385 0.0418 0 0.1385 0.0424667 0 0.1385 0.0431333 0 0.1385 0.0438 0 0.1385 0.0444667 0 0.1385 0.0451333 0 0.1385 0.0458 0 0.1385 0.0464667 0 0.1385 0.0471333 0 0.1385 0.0478 0 0.1385 0.0484667 0 0.1385 0.0491333 0 0.1385 0.0498 0 0.1385 0.0504667 0 0.1385 0.0511333 0 0.1385 0.0518 0 0.1525 0.0406667 0 0.1525 0.0413333 0 0.1525 0.042 0 0.1525 0.0426667 0 0.1525 0.0433333 0 0.1525 0.044 0 0.1525 0.0446667 0 0.1525 0.0453333 0 0.1525 0.046 0 0.1525 0.0466667 0 0.1525 0.0473333 0 0.1525 0.048 0 0.1525 0.0486667 0 0.1525 0.0493333 0 0.1525 0.05 0 0.1525 0.0506667 0 0.1665 0.0395333 0 0.1665 0.0402 0 0.1665 0.0408667 0 0.1665 0.0415333 0 0.1665 0.0422 0 0.1665 0.0428667 0 0.1665 0.0435333 0 0.1665 0.0442 0 0.1665 0.0448667 0 0.1665 0.0455333 0 0.1665 0.0462 0 0.1665 0.0468667 0 0.1665 0.0475333 0 0.1665 0.0482 0 0.1665 0.0488667 0 0.1665 0.0495333 0 0.1805 0.0384 0 0.1805 0.0390667 0 0.1805 0.0397333 0 0.1805 0.0404 0 0.1805 0.0410667 0 0.1805 0.0417333 0 0.1805 0.0424 0 0.1805 0.0430667 0 0.1805 0.0437333 0 0.1805 0.0444 0 0.1805 0.0450667 0 0.1805 0.0457333 0 0.1805 0.0464 0 0.1805 0.0470667 0 0.1805 0.0477333 0 0.1805 0.0484 0 0.1945 0.0372667 0 0.1945 0.0379333 0 0.1945 0.0386 0 0.1945 0.0392667 0 0.1945 0.0399333 0 0.1945 0.0406 0 0.1945 0.0412667 0 0.1945 0.0419333 0 0.1945 0.0426 0 0.1945 0.0432667 0 0.1945 0.0439333 0 0.1945 0.0446 0 0.1945 0.0452667 0 0.1945 0.0459333 0 0.1945 0.0466 0 0.1945 0.0472667 0 0.2085 0.0361333 0 0.2085 0.0368 0 0.2085 0.0374667 0 0.2085 0.0381333 0 0.2085 0.0388 0 0.2085 0.0394667 0 0.2085 0.0401333 0 0.2085 0.0408 0 0.2085 0.0414667 0 0.2085 0.0421333 0 0.2085 0.0428 0 0.2085 0.0434667 0 0.2085 0.0441333 0 0.2085 0.0448 0 0.2085 0.0454667 0 0.2085 0.0461333 0 0.2225 0.035 0 0.2225 0.0356667 0 0.2225 0.0363333 0 0.2225 0.037 0 0.2225 0.0376667 0 0.2225 0.0383333 0 0.2225 0.039 0 0.2225 0.0396667 0 0.2225 0.0403333 0 0.2225 0.041 0 0.2225 0.0416667 0 0.2225 0.0423333 0 0.2225 0.043 0 0.2225 0.0436667 0 0.2225 0.0443333 0 0.2225 0.045 0 
</DataArray>
</Points> 
</Piece> 
</StructuredGrid> 
</VTKFile> 
