<?xml version="1.0"?> 
<VTKFile type="StructuredGrid" version="0.1"> 
<StructuredGrid WholeExtent="0 15 0 15 0 0"> 
<Piece Extent="0 15 0 15 0 0"> 
<PointData>
<DataArray type="Float32" Name="E" format="ascii" NumberOfComponents="3"> 
-605054 1.53988 0 -604693 -944.493 0 -603593 -1724.63 0 -601687 -2166.18 0 -598855 -2084.17 0 -594892 -1264.19 0 -589466 488.698 0 -582097 3391.56 0 -571996 7457.58 0 -558321 12628.9 0 -539448 18118 0 -514968 22982.3 0 -481284 25019.2 0 -441049 21510.3 0 -378678 9169.29 0 -208814 -68667.2 0 -604716 1.26346 0 -604400 -654.784 0 -603436 -1137.09 0 -601769 -1263.6 0 -599293 -828.806 0 -595828 403.032 0 -591072 2690.93 0 -584551 6301.79 0 -575527 11425.1 0 -562970 18067.3 0 -545474 25789.6 0 -521578 33586.1 0 -489528 39734.8 0 -447619 42370.8 0 -390278 39576.4 0 -295262 41736.3 0 -604486 1.29633 0 -604215 -402.211 0 -603389 -627.218 0 -601964 -484.737 0 -599855 244.174 0 -596908 1818.6 0 -592860 4543.56 0 -587271 8759.47 0 -579435 14787.5 0 -568280 22804.7 0 -552330 32607.7 0 -529826 43353.9 0 -499050 53497.6 0 -458283 61399.3 0 -404786 66862.7 0 -331739 79319.6 0 -604351 1.30762 0 -604124 -187.559 0 -603436 -196.53 0 -602255 166.764 0 -600517 1129.7 0 -598101 2969.65 0 -594787 6029.2 0 -590193 10719.1 0 -583661 17486.6 0 -574132 26704.1 0 -560043 38427.6 0 -539414 52040.1 0 -510297 66071.2 0 -471239 78768.5 0 -421171 89952.7 0 -359105 105147 0 -604297 1.28697 0 -604115 -11.0123 0 -603563 154.503 0 -602622 689.666 0 -601252 1825.08 0 -599368 3849.63 0 -596803 7134.08 0 -593245 12149.8 0 -588115 19462.1 0 -580410 29650.5 0 -568523 43071.5 0 -550239 59413.1 0 -523248 77272.4 0 -486090 94524.9 0 -438776 110196 0 -382749 127221 0 -604312 1.23871 0 -604172 127.865 0 -603751 426.734 0 -603044 1085.06 0 -602032 2331.26 0 -600670 4457.78 0 -598852 7852.63 0 -596346 13032.8 0 -592685 20667.3 0 -586973 31540.7 0 -577620 46354.5 0 -562207 65213 0 -537878 86887.1 0 -502796 108734 0 -457501 128540 0 -404918 147248 0 -604381 1.18949 0 -604281 230.179 0 -603985 622.434 0 -603498 1356.6 0 -602828 2653.06 0 -601968 4799.92 0 -600874 8188.87 0 -599408 13364.9 0 -597243 21074.9 0 -593639 32293.5 0 -587141 48091.6 0 -575163 69138.4 0 -554216 94611.1 0 -521501 121377 0 -477610 145584 0 -426608 166276 0 -604490 1.04795 0 -604428 297.699 0 -604246 745.45 0 -603964 1510.35 0 -603612 2799.91 0 -603221 4888.17 0 -602808 8159.03 0 -602342 13159.6 0 -601641 20687.2 0 -600207 31858.3 0 -596793 48122 0 -588891 70835.3 0 -572237 99997.9 0 -542581 132257 0 -499575 161710 0 -448652 184996 0 -604626 1.05933 0 -604597 332.935 0 -604519 800.91 0 -604422 1555.46 0 -604356 2784.66 0 -604389 4743.33 0 -604599 7788.43 0 -605050 12454.3 0 -605742 19533.1 0 -606414 30244 0 -606254 46322.8 0 -602950 69940.7 0 -591906 102380 0 -566451 140897 0 -524279 177123 0 -471750 204038 0 -604774 0.677724 0 -604774 338.92 0 -604787 795.888 0 -604852 1502.46 0 -605035 2626.38 0 -605438 4389.21 0 -606189 7120.63 0 -607456 11297.1 0 -609378 17695.8 0 -612042 27503.2 0 -615031 42696.1 0 -616835 66099.6 0 -612717 100894 0 -593863 146292 0 -552822 191782 0 -496969 224273 0 -604923 1.01965 0 -604948 319.578 0 -605037 737.648 0 -605236 1366.55 0 -605628 2343.2 0 -606336 3864.28 0 -607540 6195.11 0 -609468 9779.67 0 -612458 15259.1 0 -616779 23820.2 0 -622755 37315.2 0 -629550 59218.6 0 -633972 94429.5 0 -624964 146676 0 -587534 205180 0 -525681 246257 0 -605061 0.0261544 0 -605106 278.784 0 -605255 636.724 0 -605561 1160.14 0 -606115 1965.39 0 -607062 3195.17 0 -608604 5089.48 0 -611060 7960.97 0 -614815 12418.3 0 -620536 19341.5 0 -628772 30589.1 0 -640404 49358.3 0 -653529 82259.5 0 -659723 138929 0 -631318 215359 0 -560032 273124 0 -605180 1.415 0 -605239 221.849 0 -605432 500.522 0 -605815 905.586 0 -606485 1508.72 0 -607594 2442.76 0 -609376 3833.15 0 -612160 6000.51 0 -616466 9251.78 0 -623038 14481.9 0 -632977 22820 0 -648037 37408.8 0 -669464 64236.4 0 -694282 118921 0 -689395 217438 0 -605658 304807 0 -605270 -1.31338 0 -605338 152.373 0 -605560 344.448 0 -605990 609.926 0 -606727 1021.92 0 -607932 1610.24 0 -609829 2562.42 0 -612795 3886.86 0 -617340 6123.25 0 -624304 9279.91 0 -635200 14975.6 0 -651673 24041.2 0 -679695 42672.1 0 -720115 83403 0 -765596 195590 0 -668051 364200 0 -605326 1.91551 0 -605399 77.6452 0 -605633 170.88 0 -606081 309.485 0 -606843 495.145 0 -608066 812.345 0 -609991 1208.52 0 -612948 1957.43 0 -617487 2814.71 0 -624478 4645.98 0 -635052 6788.6 0 -652744 11712.7 0 -679248 19687.8 0 -735091 38926.2 0 -829363 117739 0 -791697 460281 0 -605347 -5.96046e-07 0 -605420 9.42964e-08 0 -605646 -4.02797e-08 0 -606091 2.14204e-08 0 -606834 -7.45058e-09 0 -608001 7.63685e-08 0 -609910 -1.60187e-07 0 -612547 2.10479e-07 0 -617330 -2.49594e-07 0 -622695 2.57045e-07 0 -635431 -1.49012e-07 0 -645342 5.96046e-08 0 -683778 -7.45058e-09 0 -706821 -2.98023e-08 0 -840883 4.47035e-08 0 -1.92785e+06 -4.17233e-07 0 </DataArray> 
</PointData> 
<Points> 
<DataArray type="Float32" NumberOfComponents="3"> 
0.253 0 0 0.253 0.0018 0 0.253 0.0036 0 0.253 0.0054 0 0.253 0.0072 0 0.253 0.009 0 0.253 0.0108 0 0.253 0.0126 0 0.253 0.0144 0 0.253 0.0162 0 0.253 0.018 0 0.253 0.0198 0 0.253 0.0216 0 0.253 0.0234 0 0.253 0.0252 0 0.253 0.027 0 0.253733 0 0 0.253733 0.00177333 0 0.253733 0.00354667 0 0.253733 0.00532 0 0.253733 0.00709333 0 0.253733 0.00886667 0 0.253733 0.01064 0 0.253733 0.0124133 0 0.253733 0.0141867 0 0.253733 0.01596 0 0.253733 0.0177333 0 0.253733 0.0195067 0 0.253733 0.02128 0 0.253733 0.0230533 0 0.253733 0.0248267 0 0.253733 0.0266 0 0.254467 0 0 0.254467 0.00174667 0 0.254467 0.00349333 0 0.254467 0.00524 0 0.254467 0.00698667 0 0.254467 0.00873333 0 0.254467 0.01048 0 0.254467 0.0122267 0 0.254467 0.0139733 0 0.254467 0.01572 0 0.254467 0.0174667 0 0.254467 0.0192133 0 0.254467 0.02096 0 0.254467 0.0227067 0 0.254467 0.0244533 0 0.254467 0.0262 0 0.2552 0 0 0.2552 0.00172 0 0.2552 0.00344 0 0.2552 0.00516 0 0.2552 0.00688 0 0.2552 0.0086 0 0.2552 0.01032 0 0.2552 0.01204 0 0.2552 0.01376 0 0.2552 0.01548 0 0.2552 0.0172 0 0.2552 0.01892 0 0.2552 0.02064 0 0.2552 0.02236 0 0.2552 0.02408 0 0.2552 0.0258 0 0.255933 0 0 0.255933 0.00169333 0 0.255933 0.00338667 0 0.255933 0.00508 0 0.255933 0.00677333 0 0.255933 0.00846667 0 0.255933 0.01016 0 0.255933 0.0118533 0 0.255933 0.0135467 0 0.255933 0.01524 0 0.255933 0.0169333 0 0.255933 0.0186267 0 0.255933 0.02032 0 0.255933 0.0220133 0 0.255933 0.0237067 0 0.255933 0.0254 0 0.256667 0 0 0.256667 0.00166667 0 0.256667 0.00333333 0 0.256667 0.005 0 0.256667 0.00666667 0 0.256667 0.00833333 0 0.256667 0.01 0 0.256667 0.0116667 0 0.256667 0.0133333 0 0.256667 0.015 0 0.256667 0.0166667 0 0.256667 0.0183333 0 0.256667 0.02 0 0.256667 0.0216667 0 0.256667 0.0233333 0 0.256667 0.025 0 0.2574 0 0 0.2574 0.00164 0 0.2574 0.00328 0 0.2574 0.00492 0 0.2574 0.00656 0 0.2574 0.0082 0 0.2574 0.00984 0 0.2574 0.01148 0 0.2574 0.01312 0 0.2574 0.01476 0 0.2574 0.0164 0 0.2574 0.01804 0 0.2574 0.01968 0 0.2574 0.02132 0 0.2574 0.02296 0 0.2574 0.0246 0 0.258133 0 0 0.258133 0.00161333 0 0.258133 0.00322667 0 0.258133 0.00484 0 0.258133 0.00645333 0 0.258133 0.00806667 0 0.258133 0.00968 0 0.258133 0.0112933 0 0.258133 0.0129067 0 0.258133 0.01452 0 0.258133 0.0161333 0 0.258133 0.0177467 0 0.258133 0.01936 0 0.258133 0.0209733 0 0.258133 0.0225867 0 0.258133 0.0242 0 0.258867 0 0 0.258867 0.00158667 0 0.258867 0.00317333 0 0.258867 0.00476 0 0.258867 0.00634667 0 0.258867 0.00793333 0 0.258867 0.00952 0 0.258867 0.0111067 0 0.258867 0.0126933 0 0.258867 0.01428 0 0.258867 0.0158667 0 0.258867 0.0174533 0 0.258867 0.01904 0 0.258867 0.0206267 0 0.258867 0.0222133 0 0.258867 0.0238 0 0.2596 0 0 0.2596 0.00156 0 0.2596 0.00312 0 0.2596 0.00468 0 0.2596 0.00624 0 0.2596 0.0078 0 0.2596 0.00936 0 0.2596 0.01092 0 0.2596 0.01248 0 0.2596 0.01404 0 0.2596 0.0156 0 0.2596 0.01716 0 0.2596 0.01872 0 0.2596 0.02028 0 0.2596 0.02184 0 0.2596 0.0234 0 0.260333 0 0 0.260333 0.00153333 0 0.260333 0.00306667 0 0.260333 0.0046 0 0.260333 0.00613333 0 0.260333 0.00766667 0 0.260333 0.0092 0 0.260333 0.0107333 0 0.260333 0.0122667 0 0.260333 0.0138 0 0.260333 0.0153333 0 0.260333 0.0168667 0 0.260333 0.0184 0 0.260333 0.0199333 0 0.260333 0.0214667 0 0.260333 0.023 0 0.261067 0 0 0.261067 0.00150667 0 0.261067 0.00301333 0 0.261067 0.00452 0 0.261067 0.00602667 0 0.261067 0.00753333 0 0.261067 0.00904 0 0.261067 0.0105467 0 0.261067 0.0120533 0 0.261067 0.01356 0 0.261067 0.0150667 0 0.261067 0.0165733 0 0.261067 0.01808 0 0.261067 0.0195867 0 0.261067 0.0210933 0 0.261067 0.0226 0 0.2618 0 0 0.2618 0.00148 0 0.2618 0.00296 0 0.2618 0.00444 0 0.2618 0.00592 0 0.2618 0.0074 0 0.2618 0.00888 0 0.2618 0.01036 0 0.2618 0.01184 0 0.2618 0.01332 0 0.2618 0.0148 0 0.2618 0.01628 0 0.2618 0.01776 0 0.2618 0.01924 0 0.2618 0.02072 0 0.2618 0.0222 0 0.262533 0 0 0.262533 0.00145333 0 0.262533 0.00290667 0 0.262533 0.00436 0 0.262533 0.00581333 0 0.262533 0.00726667 0 0.262533 0.00872 0 0.262533 0.0101733 0 0.262533 0.0116267 0 0.262533 0.01308 0 0.262533 0.0145333 0 0.262533 0.0159867 0 0.262533 0.01744 0 0.262533 0.0188933 0 0.262533 0.0203467 0 0.262533 0.0218 0 0.263267 0 0 0.263267 0.00142667 0 0.263267 0.00285333 0 0.263267 0.00428 0 0.263267 0.00570667 0 0.263267 0.00713333 0 0.263267 0.00856 0 0.263267 0.00998667 0 0.263267 0.0114133 0 0.263267 0.01284 0 0.263267 0.0142667 0 0.263267 0.0156933 0 0.263267 0.01712 0 0.263267 0.0185467 0 0.263267 0.0199733 0 0.263267 0.0214 0 0.264 0 0 0.264 0.0014 0 0.264 0.0028 0 0.264 0.0042 0 0.264 0.0056 0 0.264 0.007 0 0.264 0.0084 0 0.264 0.0098 0 0.264 0.0112 0 0.264 0.0126 0 0.264 0.014 0 0.264 0.0154 0 0.264 0.0168 0 0.264 0.0182 0 0.264 0.0196 0 0.264 0.021 0 
</DataArray>
</Points> 
</Piece> 
</StructuredGrid> 
</VTKFile> 
