<?xml version="1.0"?> 
<VTKFile type="StructuredGrid" version="0.1"> 
<StructuredGrid WholeExtent="0 127 0 127 0 0"> 
<Piece Extent="0 127 0 127 0 0"> 
<PointData>
<DataArray type="Float32" Name="E" format="ascii" NumberOfComponents="3"> 
1.96175e+06 -776930 0 2.02595e+06 -802356 0 2.08203e+06 -824565 0 2.13144e+06 -844136 0 2.17537e+06 -861531 0 2.21474e+06 -877123 0 2.25031e+06 -891214 0 2.28272e+06 -904047 0 2.31245e+06 -915821 0 2.33992e+06 -926699 0 2.36546e+06 -936815 0 2.38935e+06 -946276 0 2.41182e+06 -955175 0 2.43306e+06 -963587 0 2.45322e+06 -971574 0 2.47245e+06 -979189 0 2.49086e+06 -986478 0 2.50853e+06 -993477 0 2.52555e+06 -1.00022e+06 0 2.54199e+06 -1.00673e+06 0 2.55791e+06 -1.01304e+06 0 2.57337e+06 -1.01916e+06 0 2.58839e+06 -1.02511e+06 0 2.60304e+06 -1.03091e+06 0 2.61733e+06 -1.03657e+06 0 2.6313e+06 -1.0421e+06 0 2.64498e+06 -1.04752e+06 0 2.65839e+06 -1.05283e+06 0 2.67155e+06 -1.05804e+06 0 2.68449e+06 -1.06316e+06 0 2.69721e+06 -1.0682e+06 0 2.70973e+06 -1.07316e+06 0 2.72207e+06 -1.07805e+06 0 2.73424e+06 -1.08287e+06 0 2.74626e+06 -1.08763e+06 0 2.75812e+06 -1.09233e+06 0 2.76985e+06 -1.09697e+06 0 2.78145e+06 -1.10157e+06 0 2.79293e+06 -1.10611e+06 0 2.8043e+06 -1.11061e+06 0 2.81556e+06 -1.11507e+06 0 2.82673e+06 -1.1195e+06 0 2.8378e+06 -1.12388e+06 0 2.84878e+06 -1.12823e+06 0 2.85968e+06 -1.13255e+06 0 2.8705e+06 -1.13683e+06 0 2.88126e+06 -1.14109e+06 0 2.89194e+06 -1.14532e+06 0 2.90256e+06 -1.14953e+06 0 2.91312e+06 -1.15371e+06 0 2.92363e+06 -1.15787e+06 0 2.93408e+06 -1.16201e+06 0 2.94448e+06 -1.16613e+06 0 2.95484e+06 -1.17023e+06 0 2.96515e+06 -1.17432e+06 0 2.97543e+06 -1.17839e+06 0 2.98566e+06 -1.18244e+06 0 2.99586e+06 -1.18648e+06 0 3.00603e+06 -1.19051e+06 0 3.01617e+06 -1.19452e+06 0 3.02628e+06 -1.19853e+06 0 3.03636e+06 -1.20252e+06 0 3.04642e+06 -1.2065e+06 0 3.05646e+06 -1.21048e+06 0 3.06648e+06 -1.21445e+06 0 3.07648e+06 -1.21841e+06 0 3.08646e+06 -1.22236e+06 0 3.09643e+06 -1.22631e+06 0 3.10639e+06 -1.23025e+06 0 3.11633e+06 -1.23419e+06 0 3.12627e+06 -1.23813e+06 0 3.1362e+06 -1.24206e+06 0 3.14612e+06 -1.24599e+06 0 3.15604e+06 -1.24992e+06 0 3.16595e+06 -1.25384e+06 0 3.17586e+06 -1.25777e+06 0 3.18577e+06 -1.26169e+06 0 3.19568e+06 -1.26562e+06 0 3.20559e+06 -1.26954e+06 0 3.21551e+06 -1.27347e+06 0 3.22543e+06 -1.2774e+06 0 3.23536e+06 -1.28133e+06 0 3.24529e+06 -1.28527e+06 0 3.25524e+06 -1.2892e+06 0 3.26519e+06 -1.29314e+06 0 3.27515e+06 -1.29709e+06 0 3.28513e+06 -1.30104e+06 0 3.29512e+06 -1.305e+06 0 3.30512e+06 -1.30896e+06 0 3.31514e+06 -1.31293e+06 0 3.32518e+06 -1.3169e+06 0 3.33524e+06 -1.32089e+06 0 3.34531e+06 -1.32488e+06 0 3.35541e+06 -1.32887e+06 0 3.36552e+06 -1.33288e+06 0 3.37566e+06 -1.3369e+06 0 3.38583e+06 -1.34092e+06 0 3.39602e+06 -1.34496e+06 0 3.40624e+06 -1.349e+06 0 3.41648e+06 -1.35306e+06 0 3.42676e+06 -1.35713e+06 0 3.43706e+06 -1.36121e+06 0 3.4474e+06 -1.36531e+06 0 3.45777e+06 -1.36942e+06 0 3.46818e+06 -1.37354e+06 0 3.47862e+06 -1.37767e+06 0 3.4891e+06 -1.38182e+06 0 3.49962e+06 -1.38599e+06 0 3.51018e+06 -1.39017e+06 0 3.52078e+06 -1.39437e+06 0 3.53143e+06 -1.39858e+06 0 3.54212e+06 -1.40282e+06 0 3.55285e+06 -1.40707e+06 0 3.56364e+06 -1.41134e+06 0 3.57447e+06 -1.41563e+06 0 3.58536e+06 -1.41994e+06 0 3.59629e+06 -1.42428e+06 0 3.60729e+06 -1.42863e+06 0 3.61834e+06 -1.43301e+06 0 3.62945e+06 -1.43741e+06 0 3.64062e+06 -1.44183e+06 0 3.65185e+06 -1.44628e+06 0 3.66315e+06 -1.45075e+06 0 3.67452e+06 -1.45525e+06 0 3.68595e+06 -1.45978e+06 0 3.69746e+06 -1.46434e+06 0 3.70904e+06 -1.46893e+06 0 3.72069e+06 -1.47354e+06 0 2.52851e+06 -650638 0 2.52901e+06 -678190 0 2.53259e+06 -702973 0 2.53853e+06 -725422 0 2.54627e+06 -745858 0 2.55537e+06 -764560 0 2.56548e+06 -781758 0 2.57635e+06 -797647 0 2.58776e+06 -812392 0 2.59956e+06 -826133 0 2.61162e+06 -838988 0 2.62385e+06 -851059 0 2.63618e+06 -862433 0 2.64855e+06 -873187 0 2.66091e+06 -883385 0 2.67325e+06 -893084 0 2.68553e+06 -902333 0 2.69774e+06 -911176 0 2.70986e+06 -919651 0 2.72189e+06 -927791 0 2.73383e+06 -935627 0 2.74566e+06 -943184 0 2.7574e+06 -950485 0 2.76903e+06 -957553 0 2.78057e+06 -964405 0 2.792e+06 -971059 0 2.80335e+06 -977529 0 2.8146e+06 -983829 0 2.82576e+06 -989973 0 2.83683e+06 -995970 0 2.84783e+06 -1.00183e+06 0 2.85874e+06 -1.00757e+06 0 2.86958e+06 -1.01318e+06 0 2.88035e+06 -1.01869e+06 0 2.89105e+06 -1.02409e+06 0 2.90168e+06 -1.0294e+06 0 2.91225e+06 -1.03462e+06 0 2.92276e+06 -1.03975e+06 0 2.93321e+06 -1.0448e+06 0 2.94362e+06 -1.04978e+06 0 2.95397e+06 -1.05469e+06 0 2.96427e+06 -1.05953e+06 0 2.97453e+06 -1.0643e+06 0 2.98475e+06 -1.06902e+06 0 2.99492e+06 -1.07368e+06 0 3.00506e+06 -1.07829e+06 0 3.01516e+06 -1.08285e+06 0 3.02523e+06 -1.08737e+06 0 3.03527e+06 -1.09183e+06 0 3.04528e+06 -1.09626e+06 0 3.05526e+06 -1.10065e+06 0 3.06522e+06 -1.10499e+06 0 3.07515e+06 -1.10931e+06 0 3.08507e+06 -1.11358e+06 0 3.09496e+06 -1.11783e+06 0 3.10484e+06 -1.12205e+06 0 3.1147e+06 -1.12623e+06 0 3.12454e+06 -1.13039e+06 0 3.13437e+06 -1.13452e+06 0 3.14419e+06 -1.13863e+06 0 3.154e+06 -1.14271e+06 0 3.1638e+06 -1.14677e+06 0 3.1736e+06 -1.15081e+06 0 3.18339e+06 -1.15483e+06 0 3.19317e+06 -1.15884e+06 0 3.20296e+06 -1.16282e+06 0 3.21274e+06 -1.16679e+06 0 3.22252e+06 -1.17074e+06 0 3.2323e+06 -1.17467e+06 0 3.24208e+06 -1.17859e+06 0 3.25187e+06 -1.1825e+06 0 3.26166e+06 -1.18639e+06 0 3.27145e+06 -1.19027e+06 0 3.28126e+06 -1.19414e+06 0 3.29107e+06 -1.198e+06 0 3.30089e+06 -1.20185e+06 0 3.31073e+06 -1.20569e+06 0 3.32057e+06 -1.20953e+06 0 3.33043e+06 -1.21335e+06 0 3.3403e+06 -1.21717e+06 0 3.35019e+06 -1.22098e+06 0 3.36009e+06 -1.22478e+06 0 3.37001e+06 -1.22858e+06 0 3.37995e+06 -1.23237e+06 0 3.38991e+06 -1.23616e+06 0 3.39989e+06 -1.23994e+06 0 3.40989e+06 -1.24372e+06 0 3.41992e+06 -1.24749e+06 0 3.42997e+06 -1.25126e+06 0 3.44005e+06 -1.25503e+06 0 3.45015e+06 -1.2588e+06 0 3.46028e+06 -1.26257e+06 0 3.47044e+06 -1.26633e+06 0 3.48063e+06 -1.27009e+06 0 3.49086e+06 -1.27386e+06 0 3.50111e+06 -1.27762e+06 0 3.5114e+06 -1.28138e+06 0 3.52173e+06 -1.28514e+06 0 3.53209e+06 -1.28891e+06 0 3.54249e+06 -1.29267e+06 0 3.55293e+06 -1.29644e+06 0 3.56342e+06 -1.30021e+06 0 3.57394e+06 -1.30398e+06 0 3.58451e+06 -1.30775e+06 0 3.59512e+06 -1.31153e+06 0 3.60578e+06 -1.31531e+06 0 3.61649e+06 -1.31909e+06 0 3.62725e+06 -1.32287e+06 0 3.63806e+06 -1.32666e+06 0 3.64893e+06 -1.33046e+06 0 3.65985e+06 -1.33426e+06 0 3.67082e+06 -1.33806e+06 0 3.68186e+06 -1.34187e+06 0 3.69295e+06 -1.34568e+06 0 3.70411e+06 -1.3495e+06 0 3.71533e+06 -1.35332e+06 0 3.72662e+06 -1.35715e+06 0 3.73798e+06 -1.36098e+06 0 3.74941e+06 -1.36483e+06 0 3.76091e+06 -1.36867e+06 0 3.77248e+06 -1.37253e+06 0 3.78414e+06 -1.37639e+06 0 3.79587e+06 -1.38025e+06 0 3.80769e+06 -1.38412e+06 0 3.8196e+06 -1.388e+06 0 3.83159e+06 -1.39189e+06 0 3.84367e+06 -1.39578e+06 0 3.85585e+06 -1.39968e+06 0 2.71193e+06 -692176 0 2.72066e+06 -704231 0 2.72928e+06 -716185 0 2.73787e+06 -727958 0 2.74648e+06 -739497 0 2.75517e+06 -750766 0 2.76393e+06 -761744 0 2.7728e+06 -772416 0 2.78177e+06 -782780 0 2.79083e+06 -792833 0 2.79999e+06 -802582 0 2.80924e+06 -812033 0 2.81857e+06 -821196 0 2.82797e+06 -830080 0 2.83743e+06 -838698 0 2.84694e+06 -847060 0 2.85649e+06 -855179 0 2.86609e+06 -863066 0 2.87571e+06 -870733 0 2.88536e+06 -878191 0 2.89503e+06 -885451 0 2.90471e+06 -892522 0 2.9144e+06 -899416 0 2.92409e+06 -906140 0 2.93378e+06 -912705 0 2.94348e+06 -919119 0 2.95317e+06 -925389 0 2.96285e+06 -931523 0 2.97253e+06 -937528 0 2.9822e+06 -943411 0 2.99186e+06 -949178 0 3.00151e+06 -954835 0 3.01115e+06 -960387 0 3.02078e+06 -965841 0 3.0304e+06 -971200 0 3.04e+06 -976469 0 3.0496e+06 -981653 0 3.05918e+06 -986755 0 3.06875e+06 -991781 0 3.07832e+06 -996733 0 3.08787e+06 -1.00161e+06 0 3.09741e+06 -1.00643e+06 0 3.10695e+06 -1.01118e+06 0 3.11647e+06 -1.01587e+06 0 3.12599e+06 -1.0205e+06 0 3.13551e+06 -1.02508e+06 0 3.14501e+06 -1.0296e+06 0 3.15451e+06 -1.03407e+06 0 3.16401e+06 -1.0385e+06 0 3.1735e+06 -1.04287e+06 0 3.18299e+06 -1.04721e+06 0 3.19248e+06 -1.0515e+06 0 3.20197e+06 -1.05574e+06 0 3.21146e+06 -1.05995e+06 0 3.22094e+06 -1.06413e+06 0 3.23043e+06 -1.06826e+06 0 3.23992e+06 -1.07236e+06 0 3.24942e+06 -1.07643e+06 0 3.25892e+06 -1.08047e+06 0 3.26842e+06 -1.08447e+06 0 3.27793e+06 -1.08845e+06 0 3.28745e+06 -1.09239e+06 0 3.29697e+06 -1.09631e+06 0 3.30651e+06 -1.10021e+06 0 3.31605e+06 -1.10408e+06 0 3.3256e+06 -1.10792e+06 0 3.33517e+06 -1.11174e+06 0 3.34474e+06 -1.11554e+06 0 3.35433e+06 -1.11931e+06 0 3.36394e+06 -1.12307e+06 0 3.37356e+06 -1.1268e+06 0 3.38319e+06 -1.13052e+06 0 3.39284e+06 -1.13421e+06 0 3.40251e+06 -1.13789e+06 0 3.4122e+06 -1.14155e+06 0 3.42191e+06 -1.14519e+06 0 3.43164e+06 -1.14882e+06 0 3.44139e+06 -1.15243e+06 0 3.45116e+06 -1.15602e+06 0 3.46096e+06 -1.1596e+06 0 3.47078e+06 -1.16317e+06 0 3.48063e+06 -1.16672e+06 0 3.4905e+06 -1.17025e+06 0 3.5004e+06 -1.17378e+06 0 3.51033e+06 -1.17729e+06 0 3.52029e+06 -1.18079e+06 0 3.53028e+06 -1.18427e+06 0 3.5403e+06 -1.18774e+06 0 3.55035e+06 -1.1912e+06 0 3.56044e+06 -1.19465e+06 0 3.57057e+06 -1.19809e+06 0 3.58072e+06 -1.20152e+06 0 3.59092e+06 -1.20493e+06 0 3.60116e+06 -1.20834e+06 0 3.61143e+06 -1.21173e+06 0 3.62175e+06 -1.21512e+06 0 3.6321e+06 -1.21849e+06 0 3.6425e+06 -1.22186e+06 0 3.65295e+06 -1.22521e+06 0 3.66344e+06 -1.22855e+06 0 3.67398e+06 -1.23189e+06 0 3.68457e+06 -1.23521e+06 0 3.69521e+06 -1.23852e+06 0 3.70589e+06 -1.24182e+06 0 3.71664e+06 -1.24512e+06 0 3.72743e+06 -1.2484e+06 0 3.73828e+06 -1.25167e+06 0 3.74919e+06 -1.25493e+06 0 3.76016e+06 -1.25818e+06 0 3.77119e+06 -1.26142e+06 0 3.78229e+06 -1.26465e+06 0 3.79344e+06 -1.26786e+06 0 3.80466e+06 -1.27107e+06 0 3.81595e+06 -1.27426e+06 0 3.82732e+06 -1.27743e+06 0 3.83875e+06 -1.2806e+06 0 3.85025e+06 -1.28375e+06 0 3.86183e+06 -1.28689e+06 0 3.87349e+06 -1.29001e+06 0 3.88523e+06 -1.29311e+06 0 3.89705e+06 -1.2962e+06 0 3.90896e+06 -1.29927e+06 0 3.92095e+06 -1.30232e+06 0 3.93304e+06 -1.30536e+06 0 3.94521e+06 -1.30837e+06 0 3.95748e+06 -1.31136e+06 0 3.96985e+06 -1.31432e+06 0 3.98232e+06 -1.31727e+06 0 2.88919e+06 -690616 0 2.89479e+06 -700073 0 2.90076e+06 -709325 0 2.90704e+06 -718379 0 2.91359e+06 -727242 0 2.92039e+06 -735920 0 2.9274e+06 -744415 0 2.93461e+06 -752733 0 2.94199e+06 -760876 0 2.94952e+06 -768849 0 2.95718e+06 -776655 0 2.96498e+06 -784298 0 2.97288e+06 -791782 0 2.98088e+06 -799111 0 2.98898e+06 -806289 0 2.99715e+06 -813319 0 3.00541e+06 -820208 0 3.01372e+06 -826958 0 3.0221e+06 -833574 0 3.03054e+06 -840060 0 3.03903e+06 -846420 0 3.04756e+06 -852660 0 3.05613e+06 -858782 0 3.06474e+06 -864791 0 3.07338e+06 -870690 0 3.08206e+06 -876485 0 3.09077e+06 -882177 0 3.0995e+06 -887772 0 3.10826e+06 -893272 0 3.11704e+06 -898681 0 3.12584e+06 -904002 0 3.13466e+06 -909239 0 3.14349e+06 -914395 0 3.15235e+06 -919471 0 3.16122e+06 -924472 0 3.17011e+06 -929400 0 3.17901e+06 -934258 0 3.18792e+06 -939048 0 3.19685e+06 -943773 0 3.20579e+06 -948434 0 3.21474e+06 -953034 0 3.22371e+06 -957576 0 3.23269e+06 -962061 0 3.24168e+06 -966491 0 3.25068e+06 -970868 0 3.2597e+06 -975194 0 3.26873e+06 -979471 0 3.27777e+06 -983699 0 3.28682e+06 -987882 0 3.29589e+06 -992020 0 3.30497e+06 -996114 0 3.31406e+06 -1.00017e+06 0 3.32317e+06 -1.00418e+06 0 3.33229e+06 -1.00815e+06 0 3.34143e+06 -1.01208e+06 0 3.35058e+06 -1.01598e+06 0 3.35975e+06 -1.01984e+06 0 3.36893e+06 -1.02367e+06 0 3.37813e+06 -1.02746e+06 0 3.38734e+06 -1.03122e+06 0 3.39658e+06 -1.03495e+06 0 3.40583e+06 -1.03864e+06 0 3.4151e+06 -1.04231e+06 0 3.42439e+06 -1.04594e+06 0 3.4337e+06 -1.04955e+06 0 3.44303e+06 -1.05312e+06 0 3.45238e+06 -1.05667e+06 0 3.46175e+06 -1.0602e+06 0 3.47115e+06 -1.06369e+06 0 3.48057e+06 -1.06717e+06 0 3.49001e+06 -1.07061e+06 0 3.49948e+06 -1.07403e+06 0 3.50897e+06 -1.07743e+06 0 3.51848e+06 -1.0808e+06 0 3.52803e+06 -1.08415e+06 0 3.5376e+06 -1.08748e+06 0 3.5472e+06 -1.09078e+06 0 3.55683e+06 -1.09406e+06 0 3.56648e+06 -1.09732e+06 0 3.57617e+06 -1.10055e+06 0 3.58589e+06 -1.10377e+06 0 3.59564e+06 -1.10696e+06 0 3.60543e+06 -1.11014e+06 0 3.61524e+06 -1.11329e+06 0 3.6251e+06 -1.11642e+06 0 3.63498e+06 -1.11953e+06 0 3.64491e+06 -1.12262e+06 0 3.65487e+06 -1.12568e+06 0 3.66487e+06 -1.12873e+06 0 3.67491e+06 -1.13176e+06 0 3.68499e+06 -1.13477e+06 0 3.69511e+06 -1.13775e+06 0 3.70527e+06 -1.14072e+06 0 3.71548e+06 -1.14366e+06 0 3.72573e+06 -1.14659e+06 0 3.73602e+06 -1.14949e+06 0 3.74637e+06 -1.15237e+06 0 3.75676e+06 -1.15523e+06 0 3.76719e+06 -1.15807e+06 0 3.77768e+06 -1.16088e+06 0 3.78822e+06 -1.16368e+06 0 3.79881e+06 -1.16645e+06 0 3.80945e+06 -1.1692e+06 0 3.82015e+06 -1.17192e+06 0 3.8309e+06 -1.17462e+06 0 3.84171e+06 -1.17729e+06 0 3.85258e+06 -1.17994e+06 0 3.86351e+06 -1.18257e+06 0 3.8745e+06 -1.18516e+06 0 3.88555e+06 -1.18773e+06 0 3.89666e+06 -1.19028e+06 0 3.90784e+06 -1.19279e+06 0 3.91908e+06 -1.19527e+06 0 3.9304e+06 -1.19772e+06 0 3.94178e+06 -1.20015e+06 0 3.95323e+06 -1.20253e+06 0 3.96475e+06 -1.20489e+06 0 3.97635e+06 -1.2072e+06 0 3.98802e+06 -1.20948e+06 0 3.99977e+06 -1.21173e+06 0 4.0116e+06 -1.21393e+06 0 4.02351e+06 -1.21609e+06 0 4.0355e+06 -1.21821e+06 0 4.04757e+06 -1.22028e+06 0 4.05972e+06 -1.22231e+06 0 4.07196e+06 -1.22429e+06 0 4.08429e+06 -1.22621e+06 0 4.09671e+06 -1.22809e+06 0 3.02545e+06 -683959 0 3.03187e+06 -691160 0 3.03838e+06 -698285 0 3.04497e+06 -705330 0 3.05166e+06 -712291 0 3.05843e+06 -719165 0 3.06529e+06 -725949 0 3.07224e+06 -732642 0 3.07928e+06 -739242 0 3.08639e+06 -745748 0 3.09359e+06 -752161 0 3.10087e+06 -758481 0 3.10822e+06 -764708 0 3.11565e+06 -770842 0 3.12314e+06 -776885 0 3.13069e+06 -782837 0 3.13831e+06 -788700 0 3.14599e+06 -794474 0 3.15372e+06 -800163 0 3.16151e+06 -805766 0 3.16935e+06 -811286 0 3.17723e+06 -816724 0 3.18517e+06 -822081 0 3.19314e+06 -827361 0 3.20116e+06 -832564 0 3.20922e+06 -837692 0 3.21732e+06 -842746 0 3.22545e+06 -847729 0 3.23362e+06 -852643 0 3.24182e+06 -857488 0 3.25005e+06 -862267 0 3.25832e+06 -866981 0 3.26662e+06 -871632 0 3.27494e+06 -876222 0 3.28329e+06 -880751 0 3.29167e+06 -885222 0 3.30008e+06 -889636 0 3.30851e+06 -893994 0 3.31697e+06 -898298 0 3.32545e+06 -902549 0 3.33396e+06 -906748 0 3.34249e+06 -910897 0 3.35105e+06 -914997 0 3.35963e+06 -919049 0 3.36823e+06 -923054 0 3.37685e+06 -927014 0 3.3855e+06 -930929 0 3.39417e+06 -934801 0 3.40286e+06 -938630 0 3.41158e+06 -942417 0 3.42032e+06 -946163 0 3.42908e+06 -949870 0 3.43787e+06 -953538 0 3.44668e+06 -957167 0 3.45551e+06 -960759 0 3.46436e+06 -964314 0 3.47324e+06 -967834 0 3.48215e+06 -971318 0 3.49107e+06 -974767 0 3.50003e+06 -978182 0 3.509e+06 -981564 0 3.51801e+06 -984912 0 3.52704e+06 -988229 0 3.53609e+06 -991513 0 3.54517e+06 -994765 0 3.55428e+06 -997987 0 3.56341e+06 -1.00118e+06 0 3.57258e+06 -1.00434e+06 0 3.58177e+06 -1.00747e+06 0 3.59099e+06 -1.01057e+06 0 3.60024e+06 -1.01364e+06 0 3.60952e+06 -1.01668e+06 0 3.61882e+06 -1.0197e+06 0 3.62816e+06 -1.02268e+06 0 3.63753e+06 -1.02564e+06 0 3.64694e+06 -1.02857e+06 0 3.65637e+06 -1.03147e+06 0 3.66584e+06 -1.03434e+06 0 3.67534e+06 -1.03718e+06 0 3.68488e+06 -1.04e+06 0 3.69445e+06 -1.04278e+06 0 3.70406e+06 -1.04554e+06 0 3.7137e+06 -1.04828e+06 0 3.72338e+06 -1.05098e+06 0 3.7331e+06 -1.05366e+06 0 3.74285e+06 -1.0563e+06 0 3.75265e+06 -1.05892e+06 0 3.76248e+06 -1.06151e+06 0 3.77236e+06 -1.06407e+06 0 3.78227e+06 -1.0666e+06 0 3.79223e+06 -1.06911e+06 0 3.80223e+06 -1.07158e+06 0 3.81227e+06 -1.07402e+06 0 3.82236e+06 -1.07644e+06 0 3.83249e+06 -1.07882e+06 0 3.84267e+06 -1.08117e+06 0 3.85289e+06 -1.08349e+06 0 3.86317e+06 -1.08578e+06 0 3.87349e+06 -1.08803e+06 0 3.88385e+06 -1.09026e+06 0 3.89427e+06 -1.09245e+06 0 3.90474e+06 -1.0946e+06 0 3.91526e+06 -1.09672e+06 0 3.92583e+06 -1.0988e+06 0 3.93646e+06 -1.10085e+06 0 3.94714e+06 -1.10285e+06 0 3.95787e+06 -1.10482e+06 0 3.96866e+06 -1.10675e+06 0 3.97951e+06 -1.10864e+06 0 3.99041e+06 -1.11049e+06 0 4.00137e+06 -1.1123e+06 0 4.01239e+06 -1.11406e+06 0 4.02347e+06 -1.11578e+06 0 4.03461e+06 -1.11745e+06 0 4.04581e+06 -1.11907e+06 0 4.05707e+06 -1.12065e+06 0 4.06839e+06 -1.12217e+06 0 4.07978e+06 -1.12365e+06 0 4.09123e+06 -1.12506e+06 0 4.10275e+06 -1.12643e+06 0 4.11433e+06 -1.12773e+06 0 4.12597e+06 -1.12898e+06 0 4.13768e+06 -1.13017e+06 0 4.14946e+06 -1.13129e+06 0 4.16131e+06 -1.13235e+06 0 4.17322e+06 -1.13334e+06 0 4.1852e+06 -1.13426e+06 0 4.19724e+06 -1.13511e+06 0 3.15167e+06 -669112 0 3.15775e+06 -675111 0 3.16394e+06 -681047 0 3.17023e+06 -686920 0 3.1766e+06 -692730 0 3.18307e+06 -698476 0 3.18962e+06 -704157 0 3.19625e+06 -709774 0 3.20296e+06 -715326 0 3.20975e+06 -720814 0 3.2166e+06 -726236 0 3.22352e+06 -731594 0 3.23051e+06 -736888 0 3.23756e+06 -742117 0 3.24468e+06 -747282 0 3.25185e+06 -752384 0 3.25907e+06 -757423 0 3.26635e+06 -762399 0 3.27369e+06 -767314 0 3.28107e+06 -772167 0 3.2885e+06 -776960 0 3.29598e+06 -781693 0 3.3035e+06 -786367 0 3.31107e+06 -790983 0 3.31868e+06 -795542 0 3.32633e+06 -800043 0 3.33402e+06 -804489 0 3.34175e+06 -808880 0 3.34952e+06 -813217 0 3.35732e+06 -817500 0 3.36516e+06 -821731 0 3.37304e+06 -825910 0 3.38095e+06 -830038 0 3.38889e+06 -834116 0 3.39687e+06 -838145 0 3.40488e+06 -842126 0 3.41292e+06 -846059 0 3.42099e+06 -849945 0 3.42909e+06 -853785 0 3.43722e+06 -857580 0 3.44538e+06 -861330 0 3.45357e+06 -865036 0 3.46179e+06 -868698 0 3.47003e+06 -872319 0 3.47831e+06 -875897 0 3.48662e+06 -879434 0 3.49495e+06 -882930 0 3.50331e+06 -886386 0 3.5117e+06 -889803 0 3.52012e+06 -893180 0 3.52856e+06 -896519 0 3.53703e+06 -899820 0 3.54553e+06 -903084 0 3.55406e+06 -906310 0 3.56262e+06 -909500 0 3.5712e+06 -912653 0 3.57982e+06 -915770 0 3.58846e+06 -918852 0 3.59713e+06 -921899 0 3.60583e+06 -924911 0 3.61456e+06 -927888 0 3.62331e+06 -930831 0 3.6321e+06 -933740 0 3.64091e+06 -936615 0 3.64976e+06 -939457 0 3.65864e+06 -942265 0 3.66754e+06 -945040 0 3.67648e+06 -947781 0 3.68545e+06 -950490 0 3.69445e+06 -953165 0 3.70348e+06 -955808 0 3.71254e+06 -958418 0 3.72163e+06 -960995 0 3.73076e+06 -963539 0 3.73992e+06 -966051 0 3.74912e+06 -968529 0 3.75835e+06 -970975 0 3.76761e+06 -973387 0 3.77691e+06 -975766 0 3.78624e+06 -978112 0 3.79561e+06 -980425 0 3.80501e+06 -982703 0 3.81445e+06 -984948 0 3.82393e+06 -987159 0 3.83345e+06 -989335 0 3.843e+06 -991476 0 3.85259e+06 -993583 0 3.86222e+06 -995654 0 3.87189e+06 -997689 0 3.8816e+06 -999687 0 3.89135e+06 -1.00165e+06 0 3.90114e+06 -1.00357e+06 0 3.91097e+06 -1.00546e+06 0 3.92084e+06 -1.00731e+06 0 3.93076e+06 -1.00912e+06 0 3.94072e+06 -1.01089e+06 0 3.95072e+06 -1.01262e+06 0 3.96076e+06 -1.01431e+06 0 3.97085e+06 -1.01596e+06 0 3.98098e+06 -1.01757e+06 0 3.99116e+06 -1.01913e+06 0 4.00138e+06 -1.02066e+06 0 4.01164e+06 -1.02213e+06 0 4.02196e+06 -1.02356e+06 0 4.03232e+06 -1.02495e+06 0 4.04272e+06 -1.02628e+06 0 4.05318e+06 -1.02757e+06 0 4.06368e+06 -1.02881e+06 0 4.07422e+06 -1.03e+06 0 4.08482e+06 -1.03114e+06 0 4.09546e+06 -1.03223e+06 0 4.10616e+06 -1.03326e+06 0 4.1169e+06 -1.03424e+06 0 4.12769e+06 -1.03516e+06 0 4.13852e+06 -1.03602e+06 0 4.14941e+06 -1.03683e+06 0 4.16035e+06 -1.03757e+06 0 4.17133e+06 -1.03825e+06 0 4.18236e+06 -1.03887e+06 0 4.19345e+06 -1.03943e+06 0 4.20457e+06 -1.03992e+06 0 4.21575e+06 -1.04034e+06 0 4.22698e+06 -1.04069e+06 0 4.23825e+06 -1.04097e+06 0 4.24957e+06 -1.04118e+06 0 4.26094e+06 -1.04132e+06 0 4.27235e+06 -1.04137e+06 0 4.28381e+06 -1.04136e+06 0 3.26488e+06 -649958 0 3.27099e+06 -655016 0 3.27717e+06 -660029 0 3.28341e+06 -664997 0 3.28972e+06 -669920 0 3.29609e+06 -674797 0 3.30251e+06 -679626 0 3.309e+06 -684409 0 3.31555e+06 -689144 0 3.32215e+06 -693831 0 3.32881e+06 -698471 0 3.33552e+06 -703062 0 3.34228e+06 -707604 0 3.3491e+06 -712099 0 3.35597e+06 -716545 0 3.36289e+06 -720943 0 3.36985e+06 -725292 0 3.37686e+06 -729594 0 3.38392e+06 -733848 0 3.39102e+06 -738055 0 3.39817e+06 -742214 0 3.40536e+06 -746326 0 3.41259e+06 -750392 0 3.41986e+06 -754411 0 3.42717e+06 -758384 0 3.43452e+06 -762311 0 3.44191e+06 -766193 0 3.44934e+06 -770030 0 3.45681e+06 -773822 0 3.46431e+06 -777570 0 3.47185e+06 -781274 0 3.47942e+06 -784935 0 3.48703e+06 -788552 0 3.49467e+06 -792127 0 3.50234e+06 -795660 0 3.51005e+06 -799151 0 3.51779e+06 -802600 0 3.52557e+06 -806008 0 3.53337e+06 -809375 0 3.54121e+06 -812702 0 3.54908e+06 -815989 0 3.55698e+06 -819237 0 3.56491e+06 -822444 0 3.57287e+06 -825613 0 3.58087e+06 -828743 0 3.58889e+06 -831835 0 3.59694e+06 -834889 0 3.60502e+06 -837904 0 3.61314e+06 -840882 0 3.62128e+06 -843823 0 3.62945e+06 -846727 0 3.63765e+06 -849593 0 3.64588e+06 -852423 0 3.65415e+06 -855217 0 3.66244e+06 -857974 0 3.67076e+06 -860695 0 3.67911e+06 -863380 0 3.68749e+06 -866029 0 3.6959e+06 -868643 0 3.70434e+06 -871221 0 3.71281e+06 -873763 0 3.72131e+06 -876269 0 3.72984e+06 -878740 0 3.73841e+06 -881176 0 3.747e+06 -883576 0 3.75562e+06 -885940 0 3.76427e+06 -888270 0 3.77296e+06 -890563 0 3.78168e+06 -892821 0 3.79042e+06 -895043 0 3.7992e+06 -897230 0 3.80801e+06 -899380 0 3.81686e+06 -901495 0 3.82573e+06 -903573 0 3.83464e+06 -905615 0 3.84358e+06 -907620 0 3.85256e+06 -909589 0 3.86156e+06 -911520 0 3.8706e+06 -913414 0 3.87968e+06 -915271 0 3.88879e+06 -917089 0 3.89793e+06 -918870 0 3.9071e+06 -920612 0 3.91631e+06 -922314 0 3.92556e+06 -923978 0 3.93484e+06 -925602 0 3.94416e+06 -927186 0 3.95351e+06 -928729 0 3.96289e+06 -930231 0 3.97232e+06 -931691 0 3.98177e+06 -933109 0 3.99127e+06 -934485 0 4.0008e+06 -935818 0 4.01037e+06 -937106 0 4.01997e+06 -938350 0 4.02961e+06 -939549 0 4.03929e+06 -940703 0 4.04901e+06 -941810 0 4.05876e+06 -942869 0 4.06855e+06 -943881 0 4.07838e+06 -944844 0 4.08825e+06 -945758 0 4.09815e+06 -946622 0 4.10809e+06 -947434 0 4.11807e+06 -948195 0 4.12808e+06 -948902 0 4.13813e+06 -949556 0 4.14822e+06 -950155 0 4.15835e+06 -950699 0 4.16852e+06 -951186 0 4.17872e+06 -951616 0 4.18895e+06 -951987 0 4.19923e+06 -952299 0 4.20954e+06 -952550 0 4.21988e+06 -952739 0 4.23027e+06 -952865 0 4.24068e+06 -952928 0 4.25113e+06 -952926 0 4.26162e+06 -952858 0 4.27214e+06 -952723 0 4.28269e+06 -952519 0 4.29327e+06 -952246 0 4.30389e+06 -951903 0 4.31453e+06 -951488 0 4.32521e+06 -951000 0 4.33591e+06 -950439 0 4.34665e+06 -949803 0 4.35741e+06 -949090 0 3.36956e+06 -627142 0 3.37558e+06 -631480 0 3.38166e+06 -635780 0 3.38779e+06 -640044 0 3.39397e+06 -644270 0 3.40021e+06 -648458 0 3.4065e+06 -652607 0 3.41284e+06 -656719 0 3.41922e+06 -660791 0 3.42566e+06 -664825 0 3.43214e+06 -668819 0 3.43867e+06 -672774 0 3.44525e+06 -676689 0 3.45187e+06 -680565 0 3.45854e+06 -684401 0 3.46524e+06 -688197 0 3.47199e+06 -691953 0 3.47879e+06 -695670 0 3.48562e+06 -699347 0 3.4925e+06 -702984 0 3.49941e+06 -706582 0 3.50636e+06 -710140 0 3.51335e+06 -713658 0 3.52038e+06 -717137 0 3.52745e+06 -720577 0 3.53455e+06 -723977 0 3.54169e+06 -727339 0 3.54887e+06 -730661 0 3.55608e+06 -733945 0 3.56332e+06 -737189 0 3.5706e+06 -740396 0 3.57791e+06 -743563 0 3.58526e+06 -746693 0 3.59264e+06 -749784 0 3.60005e+06 -752837 0 3.60749e+06 -755853 0 3.61497e+06 -758831 0 3.62248e+06 -761771 0 3.63002e+06 -764673 0 3.63759e+06 -767539 0 3.64519e+06 -770367 0 3.65282e+06 -773158 0 3.66049e+06 -775912 0 3.66818e+06 -778629 0 3.67591e+06 -781310 0 3.68366e+06 -783953 0 3.69144e+06 -786561 0 3.69926e+06 -789131 0 3.7071e+06 -791665 0 3.71498e+06 -794163 0 3.72288e+06 -796625 0 3.73081e+06 -799050 0 3.73877e+06 -801439 0 3.74677e+06 -803791 0 3.75479e+06 -806107 0 3.76284e+06 -808387 0 3.77092e+06 -810631 0 3.77902e+06 -812838 0 3.78716e+06 -815009 0 3.79533e+06 -817144 0 3.80353e+06 -819241 0 3.81175e+06 -821303 0 3.82001e+06 -823327 0 3.82829e+06 -825315 0 3.83661e+06 -827266 0 3.84495e+06 -829180 0 3.85332e+06 -831056 0 3.86173e+06 -832896 0 3.87016e+06 -834697 0 3.87862e+06 -836461 0 3.88711e+06 -838187 0 3.89563e+06 -839874 0 3.90418e+06 -841524 0 3.91277e+06 -843134 0 3.92138e+06 -844706 0 3.93002e+06 -846238 0 3.93869e+06 -847731 0 3.94739e+06 -849184 0 3.95612e+06 -850596 0 3.96489e+06 -851969 0 3.97368e+06 -853300 0 3.9825e+06 -854590 0 3.99135e+06 -855838 0 4.00024e+06 -857044 0 4.00915e+06 -858208 0 4.0181e+06 -859329 0 4.02707e+06 -860406 0 4.03608e+06 -861440 0 4.04512e+06 -862429 0 4.05418e+06 -863373 0 4.06328e+06 -864272 0 4.07241e+06 -865125 0 4.08157e+06 -865931 0 4.09076e+06 -866691 0 4.09997e+06 -867403 0 4.10922e+06 -868066 0 4.1185e+06 -868681 0 4.12781e+06 -869246 0 4.13715e+06 -869762 0 4.14652e+06 -870226 0 4.15592e+06 -870639 0 4.16534e+06 -871000 0 4.1748e+06 -871309 0 4.18428e+06 -871563 0 4.1938e+06 -871764 0 4.20334e+06 -871910 0 4.21291e+06 -872000 0 4.2225e+06 -872034 0 4.23213e+06 -872011 0 4.24178e+06 -871930 0 4.25146e+06 -871790 0 4.26116e+06 -871592 0 4.27089e+06 -871333 0 4.28064e+06 -871013 0 4.29042e+06 -870631 0 4.30022e+06 -870188 0 4.31004e+06 -869681 0 4.31989e+06 -869110 0 4.32976e+06 -868475 0 4.33965e+06 -867774 0 4.34956e+06 -867007 0 4.35949e+06 -866174 0 4.36943e+06 -865273 0 4.3794e+06 -864304 0 4.38938e+06 -863266 0 4.39938e+06 -862158 0 4.4094e+06 -860980 0 4.41943e+06 -859732 0 3.46618e+06 -601602 0 3.47212e+06 -605337 0 3.4781e+06 -609041 0 3.48413e+06 -612713 0 3.4902e+06 -616352 0 3.49632e+06 -619959 0 3.50248e+06 -623532 0 3.50868e+06 -627072 0 3.51492e+06 -630578 0 3.52121e+06 -634051 0 3.52753e+06 -637490 0 3.5339e+06 -640894 0 3.5403e+06 -644265 0 3.54674e+06 -647600 0 3.55322e+06 -650902 0 3.55974e+06 -654168 0 3.5663e+06 -657399 0 3.57289e+06 -660596 0 3.57953e+06 -663758 0 3.58619e+06 -666884 0 3.59289e+06 -669975 0 3.59963e+06 -673032 0 3.6064e+06 -676053 0 3.61321e+06 -679038 0 3.62005e+06 -681988 0 3.62693e+06 -684903 0 3.63383e+06 -687783 0 3.64077e+06 -690627 0 3.64775e+06 -693436 0 3.65475e+06 -696210 0 3.66179e+06 -698948 0 3.66886e+06 -701651 0 3.67596e+06 -704318 0 3.68309e+06 -706950 0 3.69025e+06 -709546 0 3.69744e+06 -712107 0 3.70466e+06 -714633 0 3.71191e+06 -717123 0 3.7192e+06 -719578 0 3.72651e+06 -721997 0 3.73385e+06 -724381 0 3.74122e+06 -726729 0 3.74862e+06 -729042 0 3.75605e+06 -731319 0 3.7635e+06 -733561 0 3.77099e+06 -735767 0 3.7785e+06 -737937 0 3.78604e+06 -740072 0 3.79361e+06 -742171 0 3.80121e+06 -744234 0 3.80884e+06 -746260 0 3.81649e+06 -748251 0 3.82417e+06 -750206 0 3.83188e+06 -752125 0 3.83962e+06 -754007 0 3.84738e+06 -755853 0 3.85517e+06 -757662 0 3.86299e+06 -759434 0 3.87084e+06 -761170 0 3.87871e+06 -762868 0 3.88661e+06 -764530 0 3.89454e+06 -766154 0 3.90249e+06 -767741 0 3.91048e+06 -769290 0 3.91848e+06 -770801 0 3.92652e+06 -772274 0 3.93458e+06 -773708 0 3.94267e+06 -775104 0 3.95079e+06 -776461 0 3.95893e+06 -777780 0 3.9671e+06 -779059 0 3.97529e+06 -780298 0 3.98351e+06 -781497 0 3.99176e+06 -782656 0 4.00004e+06 -783775 0 4.00834e+06 -784853 0 4.01667e+06 -785890 0 4.02502e+06 -786886 0 4.0334e+06 -787839 0 4.0418e+06 -788751 0 4.05024e+06 -789620 0 4.05869e+06 -790446 0 4.06718e+06 -791229 0 4.07569e+06 -791969 0 4.08422e+06 -792664 0 4.09278e+06 -793315 0 4.10136e+06 -793920 0 4.10997e+06 -794481 0 4.11861e+06 -794996 0 4.12727e+06 -795464 0 4.13595e+06 -795886 0 4.14466e+06 -796260 0 4.15339e+06 -796587 0 4.16214e+06 -796866 0 4.17092e+06 -797096 0 4.17973e+06 -797277 0 4.18855e+06 -797409 0 4.1974e+06 -797490 0 4.20627e+06 -797521 0 4.21516e+06 -797501 0 4.22408e+06 -797428 0 4.23301e+06 -797304 0 4.24197e+06 -797127 0 4.25095e+06 -796897 0 4.25995e+06 -796613 0 4.26897e+06 -796274 0 4.278e+06 -795881 0 4.28706e+06 -795432 0 4.29613e+06 -794927 0 4.30523e+06 -794366 0 4.31434e+06 -793748 0 4.32346e+06 -793072 0 4.33261e+06 -792338 0 4.34176e+06 -791546 0 4.35094e+06 -790695 0 4.36013e+06 -789784 0 4.36933e+06 -788813 0 4.37854e+06 -787782 0 4.38777e+06 -786689 0 4.39701e+06 -785535 0 4.40626e+06 -784320 0 4.41552e+06 -783042 0 4.42479e+06 -781701 0 4.43407e+06 -780297 0 4.44335e+06 -778830 0 4.45265e+06 -777299 0 4.46194e+06 -775703 0 4.47125e+06 -774043 0 3.55567e+06 -573902 0 3.5615e+06 -577120 0 3.56736e+06 -580309 0 3.57327e+06 -583468 0 3.57921e+06 -586599 0 3.58519e+06 -589699 0 3.5912e+06 -592769 0 3.59725e+06 -595810 0 3.60334e+06 -598819 0 3.60946e+06 -601798 0 3.61562e+06 -604746 0 3.62182e+06 -607663 0 3.62805e+06 -610549 0 3.63431e+06 -613403 0 3.64061e+06 -616226 0 3.64694e+06 -619017 0 3.6533e+06 -621776 0 3.6597e+06 -624503 0 3.66613e+06 -627197 0 3.67259e+06 -629860 0 3.67908e+06 -632490 0 3.68561e+06 -635087 0 3.69216e+06 -637652 0 3.69875e+06 -640184 0 3.70537e+06 -642683 0 3.71202e+06 -645149 0 3.71869e+06 -647582 0 3.7254e+06 -649982 0 3.73214e+06 -652349 0 3.73891e+06 -654683 0 3.7457e+06 -656983 0 3.75253e+06 -659249 0 3.75938e+06 -661482 0 3.76626e+06 -663681 0 3.77317e+06 -665846 0 3.78011e+06 -667978 0 3.78707e+06 -670075 0 3.79407e+06 -672139 0 3.80109e+06 -674168 0 3.80813e+06 -676163 0 3.81521e+06 -678123 0 3.82231e+06 -680049 0 3.82944e+06 -681941 0 3.83659e+06 -683797 0 3.84377e+06 -685619 0 3.85098e+06 -687406 0 3.85821e+06 -689158 0 3.86547e+06 -690875 0 3.87275e+06 -692556 0 3.88006e+06 -694202 0 3.8874e+06 -695812 0 3.89476e+06 -697387 0 3.90214e+06 -698925 0 3.90955e+06 -700428 0 3.91699e+06 -701894 0 3.92445e+06 -703324 0 3.93193e+06 -704717 0 3.93944e+06 -706073 0 3.94697e+06 -707392 0 3.95453e+06 -708675 0 3.96211e+06 -709919 0 3.96972e+06 -711127 0 3.97735e+06 -712296 0 3.985e+06 -713427 0 3.99268e+06 -714520 0 4.00038e+06 -715575 0 4.0081e+06 -716591 0 4.01585e+06 -717567 0 4.02362e+06 -718505 0 4.03141e+06 -719403 0 4.03923e+06 -720261 0 4.04707e+06 -721079 0 4.05493e+06 -721857 0 4.06282e+06 -722594 0 4.07072e+06 -723290 0 4.07865e+06 -723945 0 4.0866e+06 -724558 0 4.09457e+06 -725130 0 4.10256e+06 -725659 0 4.11058e+06 -726146 0 4.11861e+06 -726590 0 4.12667e+06 -726991 0 4.13475e+06 -727348 0 4.14285e+06 -727661 0 4.15097e+06 -727930 0 4.1591e+06 -728155 0 4.16726e+06 -728334 0 4.17544e+06 -728468 0 4.18364e+06 -728557 0 4.19185e+06 -728599 0 4.20009e+06 -728595 0 4.20834e+06 -728544 0 4.21661e+06 -728446 0 4.2249e+06 -728300 0 4.2332e+06 -728106 0 4.24153e+06 -727864 0 4.24987e+06 -727573 0 4.25822e+06 -727233 0 4.26659e+06 -726844 0 4.27498e+06 -726404 0 4.28339e+06 -72591