<?xml version="1.0"?> 
<VTKFile type="StructuredGrid" version="0.1"> 
<StructuredGrid WholeExtent="0 127 0 127 0 0"> 
<Piece Extent="0 127 0 127 0 0"> 
<PointData>
<DataArray type="Float32" Name="E" format="ascii" NumberOfComponents="3"> 
7.75141e+06 1.62504e+06 0 7.75562e+06 1.64115e+06 0 7.75978e+06 1.65729e+06 0 7.76388e+06 1.67348e+06 0 7.76793e+06 1.6897e+06 0 7.77193e+06 1.70595e+06 0 7.77586e+06 1.72225e+06 0 7.77974e+06 1.73858e+06 0 7.78356e+06 1.75494e+06 0 7.78733e+06 1.77135e+06 0 7.79104e+06 1.78779e+06 0 7.79468e+06 1.80426e+06 0 7.79828e+06 1.82077e+06 0 7.80181e+06 1.83731e+06 0 7.80528e+06 1.85389e+06 0 7.8087e+06 1.87051e+06 0 7.81205e+06 1.88715e+06 0 7.81535e+06 1.90383e+06 0 7.81859e+06 1.92055e+06 0 7.82176e+06 1.9373e+06 0 7.82488e+06 1.95407e+06 0 7.82793e+06 1.97089e+06 0 7.83093e+06 1.98773e+06 0 7.83386e+06 2.00461e+06 0 7.83673e+06 2.02151e+06 0 7.83954e+06 2.03845e+06 0 7.84229e+06 2.05542e+06 0 7.84498e+06 2.07242e+06 0 7.8476e+06 2.08945e+06 0 7.85016e+06 2.10651e+06 0 7.85266e+06 2.1236e+06 0 7.8551e+06 2.14071e+06 0 7.85747e+06 2.15786e+06 0 7.85978e+06 2.17503e+06 0 7.86202e+06 2.19223e+06 0 7.86421e+06 2.20946e+06 0 7.86632e+06 2.22672e+06 0 7.86838e+06 2.244e+06 0 7.87036e+06 2.26131e+06 0 7.87229e+06 2.27865e+06 0 7.87415e+06 2.29601e+06 0 7.87594e+06 2.3134e+06 0 7.87767e+06 2.33081e+06 0 7.87933e+06 2.34825e+06 0 7.88093e+06 2.36571e+06 0 7.88246e+06 2.3832e+06 0 7.88392e+06 2.4007e+06 0 7.88532e+06 2.41824e+06 0 7.88665e+06 2.43579e+06 0 7.88792e+06 2.45337e+06 0 7.88911e+06 2.47097e+06 0 7.89025e+06 2.48859e+06 0 7.89131e+06 2.50623e+06 0 7.89231e+06 2.52389e+06 0 7.89324e+06 2.54157e+06 0 7.8941e+06 2.55927e+06 0 7.89489e+06 2.577e+06 0 7.89562e+06 2.59474e+06 0 7.89628e+06 2.6125e+06 0 7.89687e+06 2.63027e+06 0 7.89739e+06 2.64807e+06 0 7.89784e+06 2.66588e+06 0 7.89823e+06 2.68372e+06 0 7.89854e+06 2.70156e+06 0 7.89879e+06 2.71943e+06 0 7.89897e+06 2.73731e+06 0 7.89908e+06 2.7552e+06 0 7.89912e+06 2.77311e+06 0 7.89909e+06 2.79104e+06 0 7.89899e+06 2.80897e+06 0 7.89883e+06 2.82693e+06 0 7.89859e+06 2.84489e+06 0 7.89828e+06 2.86287e+06 0 7.89791e+06 2.88086e+06 0 7.89746e+06 2.89887e+06 0 7.89694e+06 2.91688e+06 0 7.89636e+06 2.93491e+06 0 7.8957e+06 2.95295e+06 0 7.89498e+06 2.971e+06 0 7.89418e+06 2.98905e+06 0 7.89332e+06 3.00712e+06 0 7.89238e+06 3.0252e+06 0 7.89137e+06 3.04328e+06 0 7.8903e+06 3.06138e+06 0 7.88915e+06 3.07948e+06 0 7.88793e+06 3.09759e+06 0 7.88664e+06 3.1157e+06 0 7.88528e+06 3.13383e+06 0 7.88385e+06 3.15196e+06 0 7.88235e+06 3.17009e+06 0 7.88078e+06 3.18823e+06 0 7.87914e+06 3.20637e+06 0 7.87743e+06 3.22452e+06 0 7.87565e+06 3.24268e+06 0 7.8738e+06 3.26083e+06 0 7.87188e+06 3.27899e+06 0 7.86988e+06 3.29716e+06 0 7.86782e+06 3.31532e+06 0 7.86568e+06 3.33349e+06 0 7.86348e+06 3.35165e+06 0 7.8612e+06 3.36982e+06 0 7.85886e+06 3.38799e+06 0 7.85644e+06 3.40616e+06 0 7.85395e+06 3.42433e+06 0 7.8514e+06 3.4425e+06 0 7.84877e+06 3.46067e+06 0 7.84607e+06 3.47883e+06 0 7.8433e+06 3.497e+06 0 7.84046e+06 3.51516e+06 0 7.83756e+06 3.53332e+06 0 7.83458e+06 3.55147e+06 0 7.83153e+06 3.56962e+06 0 7.82841e+06 3.58777e+06 0 7.82522e+06 3.60591e+06 0 7.82196e+06 3.62405e+06 0 7.81864e+06 3.64218e+06 0 7.81524e+06 3.66031e+06 0 7.81177e+06 3.67843e+06 0 7.80823e+06 3.69654e+06 0 7.80463e+06 3.71465e+06 0 7.80095e+06 3.73275e+06 0 7.79721e+06 3.75084e+06 0 7.7934e+06 3.76892e+06 0 7.78951e+06 3.787e+06 0 7.78556e+06 3.80506e+06 0 7.78154e+06 3.82312e+06 0 7.77746e+06 3.84116e+06 0 7.7733e+06 3.8592e+06 0 7.53821e+06 1.61079e+06 0 7.54213e+06 1.62726e+06 0 7.54599e+06 1.64376e+06 0 7.54977e+06 1.6603e+06 0 7.55349e+06 1.67688e+06 0 7.55714e+06 1.6935e+06 0 7.56072e+06 1.71015e+06 0 7.56423e+06 1.72683e+06 0 7.56768e+06 1.74355e+06 0 7.57106e+06 1.76031e+06 0 7.57436e+06 1.7771e+06 0 7.5776e+06 1.79392e+06 0 7.58077e+06 1.81077e+06 0 7.58387e+06 1.82766e+06 0 7.58689e+06 1.84458e+06 0 7.58985e+06 1.86153e+06 0 7.59274e+06 1.87852e+06 0 7.59555e+06 1.89553e+06 0 7.59829e+06 1.91257e+06 0 7.60097e+06 1.92965e+06 0 7.60356e+06 1.94675e+06 0 7.60609e+06 1.96388e+06 0 7.60855e+06 1.98104e+06 0 7.61093e+06 1.99823e+06 0 7.61324e+06 2.01544e+06 0 7.61547e+06 2.03269e+06 0 7.61764e+06 2.04995e+06 0 7.61972e+06 2.06725e+06 0 7.62174e+06 2.08457e+06 0 7.62368e+06 2.10192e+06 0 7.62554e+06 2.11929e+06 0 7.62734e+06 2.13668e+06 0 7.62905e+06 2.1541e+06 0 7.63069e+06 2.17154e+06 0 7.63226e+06 2.189e+06 0 7.63375e+06 2.20649e+06 0 7.63517e+06 2.224e+06 0 7.63651e+06 2.24152e+06 0 7.63777e+06 2.25907e+06 0 7.63896e+06 2.27664e+06 0 7.64007e+06 2.29423e+06 0 7.6411e+06 2.31184e+06 0 7.64206e+06 2.32946e+06 0 7.64294e+06 2.3471e+06 0 7.64375e+06 2.36476e+06 0 7.64448e+06 2.38244e+06 0 7.64513e+06 2.40014e+06 0 7.6457e+06 2.41785e+06 0 7.6462e+06 2.43557e+06 0 7.64662e+06 2.45331e+06 0 7.64696e+06 2.47106e+06 0 7.64722e+06 2.48883e+06 0 7.6474e+06 2.50661e+06 0 7.64751e+06 2.52441e+06 0 7.64754e+06 2.54221e+06 0 7.64749e+06 2.56003e+06 0 7.64737e+06 2.57786e+06 0 7.64716e+06 2.59569e+06 0 7.64688e+06 2.61354e+06 0 7.64652e+06 2.6314e+06 0 7.64608e+06 2.64927e+06 0 7.64556e+06 2.66714e+06 0 7.64496e+06 2.68502e+06 0 7.64429e+06 2.70291e+06 0 7.64353e+06 2.72081e+06 0 7.6427e+06 2.73871e+06 0 7.64179e+06 2.75662e+06 0 7.6408e+06 2.77453e+06 0 7.63974e+06 2.79245e+06 0 7.63859e+06 2.81037e+06 0 7.63736e+06 2.8283e+06 0 7.63606e+06 2.84622e+06 0 7.63468e+06 2.86415e+06 0 7.63322e+06 2.88209e+06 0 7.63168e+06 2.90002e+06 0 7.63006e+06 2.91795e+06 0 7.62837e+06 2.93589e+06 0 7.62659e+06 2.95382e+06 0 7.62474e+06 2.97175e+06 0 7.62281e+06 2.98968e+06 0 7.6208e+06 3.00761e+06 0 7.61871e+06 3.02554e+06 0 7.61655e+06 3.04346e+06 0 7.61431e+06 3.06138e+06 0 7.61198e+06 3.0793e+06 0 7.60959e+06 3.09721e+06 0 7.60711e+06 3.11512e+06 0 7.60456e+06 3.13302e+06 0 7.60192e+06 3.15091e+06 0 7.59922e+06 3.1688e+06 0 7.59643e+06 3.18668e+06 0 7.59357e+06 3.20456e+06 0 7.59063e+06 3.22242e+06 0 7.58761e+06 3.24028e+06 0 7.58452e+06 3.25812e+06 0 7.58134e+06 3.27596e+06 0 7.5781e+06 3.29379e+06 0 7.57477e+06 3.3116e+06 0 7.57138e+06 3.32941e+06 0 7.5679e+06 3.3472e+06 0 7.56435e+06 3.36498e+06 0 7.56072e+06 3.38275e+06 0 7.55702e+06 3.4005e+06 0 7.55324e+06 3.41825e+06 0 7.54939e+06 3.43597e+06 0 7.54546e+06 3.45368e+06 0 7.54146e+06 3.47138e+06 0 7.53738e+06 3.48906e+06 0 7.53323e+06 3.50673e+06 0 7.529e+06 3.52437e+06 0 7.5247e+06 3.54201e+06 0 7.52033e+06 3.55962e+06 0 7.51588e+06 3.57721e+06 0 7.51137e+06 3.59479e+06 0 7.50677e+06 3.61235e+06 0 7.50211e+06 3.62989e+06 0 7.49737e+06 3.64741e+06 0 7.49256e+06 3.66491e+06 0 7.48767e+06 3.68238e+06 0 7.48272e+06 3.69984e+06 0 7.47769e+06 3.71728e+06 0 7.4726e+06 3.73469e+06 0 7.46743e+06 3.75208e+06 0 7.46219e+06 3.76945e+06 0 7.45688e+06 3.78679e+06 0 7.4515e+06 3.80411e+06 0 7.44605e+06 3.82141e+06 0 7.44053e+06 3.83868e+06 0 7.33815e+06 1.59714e+06 0 7.34178e+06 1.61388e+06 0 7.34533e+06 1.63066e+06 0 7.3488e+06 1.64748e+06 0 7.3522e+06 1.66433e+06 0 7.35551e+06 1.68121e+06 0 7.35875e+06 1.69813e+06 0 7.36191e+06 1.71508e+06 0 7.365e+06 1.73207e+06 0 7.368e+06 1.74909e+06 0 7.37092e+06 1.76614e+06 0 7.37377e+06 1.78322e+06 0 7.37653e+06 1.80033e+06 0 7.37921e+06 1.81748e+06 0 7.38181e+06 1.83465e+06 0 7.38433e+06 1.85185e+06 0 7.38677e+06 1.86908e+06 0 7.38913e+06 1.88634e+06 0 7.3914e+06 1.90362e+06 0 7.3936e+06 1.92094e+06 0 7.39571e+06 1.93828e+06 0 7.39773e+06 1.95564e+06 0 7.39968e+06 1.97303e+06 0 7.40154e+06 1.99044e+06 0 7.40332e+06 2.00788e+06 0 7.40501e+06 2.02534e+06 0 7.40662e+06 2.04282e+06 0 7.40815e+06 2.06032e+06 0 7.40959e+06 2.07785e+06 0 7.41095e+06 2.09539e+06 0 7.41222e+06 2.11296e+06 0 7.4134e+06 2.13054e+06 0 7.41451e+06 2.14815e+06 0 7.41552e+06 2.16577e+06 0 7.41645e+06 2.18341e+06 0 7.4173e+06 2.20106e+06 0 7.41806e+06 2.21873e+06 0 7.41873e+06 2.23642e+06 0 7.41932e+06 2.25412e+06 0 7.41982e+06 2.27184e+06 0 7.42024e+06 2.28956e+06 0 7.42057e+06 2.3073e+06 0 7.42081e+06 2.32506e+06 0 7.42097e+06 2.34282e+06 0 7.42104e+06 2.3606e+06 0 7.42102e+06 2.37838e+06 0 7.42091e+06 2.39618e+06 0 7.42072e+06 2.41398e+06 0 7.42045e+06 2.43179e+06 0 7.42008e+06 2.44961e+06 0 7.41963e+06 2.46744e+06 0 7.41909e+06 2.48527e+06 0 7.41846e+06 2.5031e+06 0 7.41775e+06 2.52095e+06 0 7.41695e+06 2.53879e+06 0 7.41606e+06 2.55664e+06 0 7.41509e+06 2.57449e+06 0 7.41403e+06 2.59235e+06 0 7.41288e+06 2.6102e+06 0 7.41165e+06 2.62806e+06 0 7.41032e+06 2.64592e+06 0 7.40891e+06 2.66377e+06 0 7.40742e+06 2.68163e+06 0 7.40584e+06 2.69948e+06 0 7.40417e+06 2.71733e+06 0 7.40241e+06 2.73518e+06 0 7.40057e+06 2.75302e+06 0 7.39864e+06 2.77086e+06 0 7.39662e+06 2.7887e+06 0 7.39452e+06 2.80652e+06 0 7.39234e+06 2.82435e+06 0 7.39006e+06 2.84216e+06 0 7.3877e+06 2.85997e+06 0 7.38526e+06 2.87777e+06 0 7.38273e+06 2.89556e+06 0 7.38011e+06 2.91334e+06 0 7.37741e+06 2.93111e+06 0 7.37462e+06 2.94887e+06 0 7.37175e+06 2.96662e+06 0 7.36879e+06 2.98435e+06 0 7.36575e+06 3.00207e+06 0 7.36263e+06 3.01978e+06 0 7.35942e+06 3.03748e+06 0 7.35613e+06 3.05516e+06 0 7.35275e+06 3.07283e+06 0 7.34929e+06 3.09048e+06 0 7.34574e+06 3.10811e+06 0 7.34212e+06 3.12573e+06 0 7.33841e+06 3.14333e+06 0 7.33461e+06 3.16091e+06 0 7.33074e+06 3.17848e+06 0 7.32678e+06 3.19602e+06 0 7.32274e+06 3.21355e+06 0 7.31862e+06 3.23105e+06 0 7.31442e+06 3.24853e+06 0 7.31014e+06 3.266e+06 0 7.30578e+06 3.28344e+06 0 7.30133e+06 3.30085e+06 0 7.29681e+06 3.31825e+06 0 7.2922e+06 3.33562e+06 0 7.28752e+06 3.35296e+06 0 7.28276e+06 3.37029e+06 0 7.27792e+06 3.38758e+06 0 7.273e+06 3.40485e+06 0 7.268e+06 3.4221e+06 0 7.26292e+06 3.43931e+06 0 7.25777e+06 3.4565e+06 0 7.25254e+06 3.47367e+06 0 7.24723e+06 3.4908e+06 0 7.24185e+06 3.5079e+06 0 7.23639e+06 3.52498e+06 0 7.23085e+06 3.54203e+06 0 7.22524e+06 3.55904e+06 0 7.21955e+06 3.57603e+06 0 7.21379e+06 3.59298e+06 0 7.20795e+06 3.6099e+06 0 7.20204e+06 3.62679e+06 0 7.19606e+06 3.64365e+06 0 7.19001e+06 3.66047e+06 0 7.18388e+06 3.67726e+06 0 7.17767e+06 3.69402e+06 0 7.1714e+06 3.71074e+06 0 7.16506e+06 3.72743e+06 0 7.15864e+06 3.74408e+06 0 7.15215e+06 3.7607e+06 0 7.1456e+06 3.77728e+06 0 7.13897e+06 3.79383e+06 0 7.13228e+06 3.81033e+06 0 7.14989e+06 1.58388e+06 0 7.15323e+06 1.60082e+06 0 7.15649e+06 1.6178e+06 0 7.15966e+06 1.63481e+06 0 7.16274e+06 1.65186e+06 0 7.16573e+06 1.66894e+06 0 7.16864e+06 1.68606e+06 0 7.17146e+06 1.7032e+06 0 7.17419e+06 1.72038e+06 0 7.17683e+06 1.73759e+06 0 7.17939e+06 1.75483e+06 0 7.18185e+06 1.7721e+06 0 7.18422e+06 1.7894e+06 0 7.18651e+06 1.80672e+06 0 7.1887e+06 1.82408e+06 0 7.1908e+06 1.84146e+06 0 7.19282e+06 1.85886e+06 0 7.19474e+06 1.87629e+06 0 7.19657e+06 1.89375e+06 0 7.1983e+06 1.91123e+06 0 7.19995e+06 1.92873e+06 0 7.2015e+06 1.94625e+06 0 7.20296e+06 1.9638e+06 0 7.20433e+06 1.98136e+06 0 7.2056e+06 1.99895e+06 0 7.20678e+06 2.01655e+06 0 7.20787e+06 2.03417e+06 0 7.20886e+06 2.05181e+06 0 7.20976e+06 2.06947e+06 0 7.21057e+06 2.08714e+06 0 7.21128e+06 2.10483e+06 0 7.2119e+06 2.12253e+06 0 7.21243e+06 2.14025e+06 0 7.21285e+06 2.15798e+06 0 7.21319e+06 2.17572e+06 0 7.21343e+06 2.19347e+06 0 7.21357e+06 2.21124e+06 0 7.21362e+06 2.22901e+06 0 7.21358e+06 2.24679e+06 0 7.21344e+06 2.26458e+06 0 7.21321e+06 2.28238e+06 0 7.21287e+06 2.30019e+06 0 7.21245e+06 2.318e+06 0 7.21193e+06 2.33581e+06 0 7.21131e+06 2.35363e+06 0 7.2106e+06 2.37146e+06 0 7.2098e+06 2.38928e+06 0 7.20889e+06 2.40711e+06 0 7.2079e+06 2.42494e+06 0 7.2068e+06 2.44277e+06 0 7.20562e+06 2.4606e+06 0 7.20434e+06 2.47843e+06 0 7.20296e+06 2.49625e+06 0 7.20149e+06 2.51408e+06 0 7.19992e+06 2.5319e+06 0 7.19826e+06 2.54971e+06 0 7.1965e+06 2.56752e+06 0 7.19465e+06 2.58533e+06 0 7.1927e+06 2.60313e+06 0 7.19066e+06 2.62092e+06 0 7.18853e+06 2.6387e+06 0 7.1863e+06 2.65647e+06 0 7.18398e+06 2.67424e+06 0 7.18156e+06 2.69199e+06 0 7.17905e+06 2.70974e+06 0 7.17645e+06 2.72747e+06 0 7.17375e+06 2.74518e+06 0 7.17096e+06 2.76289e+06 0 7.16808e+06 2.78058e+06 0 7.1651e+06 2.79826e+06 0 7.16204e+06 2.81592e+06 0 7.15888e+06 2.83356e+06 0 7.15563e+06 2.85119e+06 0 7.15228e+06 2.8688e+06 0 7.14885e+06 2.88639e+06 0 7.14532e+06 2.90396e+06 0 7.14171e+06 2.92152e+06 0 7.138e+06 2.93905e+06 0 7.13421e+06 2.95656e+06 0 7.13032e+06 2.97405e+06 0 7.12634e+06 2.99151e+06 0 7.12228e+06 3.00896e+06 0 7.11812e+06 3.02638e+06 0 7.11388e+06 3.04377e+06 0 7.10955e+06 3.06114e+06 0 7.10513e+06 3.07848e+06 0 7.10062e+06 3.0958e+06 0 7.09603e+06 3.11309e+06 0 7.09135e+06 3.13035e+06 0 7.08658e+06 3.14759e+06 0 7.08173e+06 3.16479e+06 0 7.07679e+06 3.18197e+06 0 7.07176e+06 3.19911e+06 0 7.06666e+06 3.21622e+06 0 7.06146e+06 3.23331e+06 0 7.05618e+06 3.25036e+06 0 7.05082e+06 3.26737e+06 0 7.04538e+06 3.28436e+06 0 7.03985e+06 3.30131e+06 0 7.03424e+06 3.31823e+06 0 7.02855e+06 3.33511e+06 0 7.02278e+06 3.35195e+06 0 7.01692e+06 3.36876e+06 0 7.01099e+06 3.38554e+06 0 7.00497e+06 3.40227e+06 0 6.99888e+06 3.41897e+06 0 6.9927e+06 3.43563e+06 0 6.98645e+06 3.45225e+06 0 6.98012e+06 3.46884e+06 0 6.97371e+06 3.48538e+06 0 6.96723e+06 3.50188e+06 0 6.96067e+06 3.51835e+06 0 6.95403e+06 3.53477e+06 0 6.94731e+06 3.55115e+06 0 6.94052e+06 3.56749e+06 0 6.93366e+06 3.58378e+06 0 6.92672e+06 3.60004e+06 0 6.91971e+06 3.61624e+06 0 6.91263e+06 3.63241e+06 0 6.90547e+06 3.64853e+06 0 6.89824e+06 3.66461e+06 0 6.89094e+06 3.68064e+06 0 6.88357e+06 3.69663e+06 0 6.87612e+06 3.71257e+06 0 6.86861e+06 3.72846e+06 0 6.86103e+06 3.74431e+06 0 6.85338e+06 3.76011e+06 0 6.84566e+06 3.77587e+06 0 6.97233e+06 1.57084e+06 0 6.97539e+06 1.58793e+06 0 6.97836e+06 1.60504e+06 0 6.98123e+06 1.6222e+06 0 6.98401e+06 1.63938e+06 0 6.98669e+06 1.6566e+06 0 6.98927e+06 1.67385e+06 0 6.99176e+06 1.69113e+06 0 6.99415e+06 1.70844e+06 0 6.99644e+06 1.72577e+06 0 6.99864e+06 1.74314e+06 0 7.00073e+06 1.76054e+06 0 7.00273e+06 1.77796e+06 0 7.00463e+06 1.7954e+06 0 7.00643e+06 1.81287e+06 0 7.00813e+06 1.83037e+06 0 7.00974e+06 1.84789e+06 0 7.01124e+06 1.86543e+06 0 7.01264e+06 1.88299e+06 0 7.01394e+06 1.90058e+06 0 7.01514e+06 1.91818e+06 0 7.01624e+06 1.9358e+06 0 7.01724e+06 1.95344e+06 0 7.01814e+06 1.9711e+06 0 7.01893e+06 1.98877e+06 0 7.01963e+06 2.00646e+06 0 7.02022e+06 2.02416e+06 0 7.02071e+06 2.04188e+06 0 7.0211e+06 2.0596e+06 0 7.02138e+06 2.07734e+06 0 7.02156e+06 2.0951e+06 0 7.02164e+06 2.11286e+06 0 7.02162e+06 2.13063e+06 0 7.0215e+06 2.1484e+06 0 7.02127e+06 2.16619e+06 0 7.02094e+06 2.18398e+06 0 7.02051e+06 2.20178e+06 0 7.01997e+06 2.21958e+06 0 7.01933e+06 2.23738e+06 0 7.01859e+06 2.25519e+06 0 7.01774e+06 2.273e+06 0 7.0168e+06 2.29081e+06 0 7.01575e+06 2.30862e+06 0 7.01459e+06 2.32643e+06 0 7.01334e+06 2.34424e+06 0 7.01198e+06 2.36205e+06 0 7.01051e+06 2.37985e+06 0 7.00895e+06 2.39764e+06 0 7.00728e+06 2.41543e+06 0 7.00551e+06 2.43322e+06 0 7.00364e+06 2.451e+06 0 7.00167e+06 2.46877e+06 0 6.99959e+06 2.48653e+06 0 6.99741e+06 2.50428e+06 0 6.99514e+06 2.52202e+06 0 6.99276e+06 2.53975e+06 0 6.99027e+06 2.55747e+06 0 6.98769e+06 2.57517e+06 0 6.98501e+06 2.59286e+06 0 6.98222e+06 2.61053e+06 0 6.97934e+06 2.62819e+06 0 6.97635e+06 2.64583e+06 0 6.97327e+06 2.66346e+06 0 6.97008e+06 2.68106e+06 0 6.9668e+06 2.69865e+06 0 6.96342e+06 2.71621e+06 0 6.95993e+06 2.73376e+06 0 6.95635e+06 2.75128e+06 0 6.95268e+06 2.76878e+06 0 6.9489e+06 2.78626e+06 0 6.94503e+06 2.80372e+06 0 6.94106e+06 2.82115e+06 0 6.93699e+06 2.83855e+06 0 6.93283e+06 2.85593e+06 0 6.92857e+06 2.87328e+06 0 6.92421e+06 2.8906e+06 0 6.91976e+06 2.90789e+06 0 6.91522e+06 2.92515e+06 0 6.91058e+06 2.94239e+06 0 6.90585e+06 2.95959e+06 0 6.90102e+06 2.97676e+06 0 6.8961e+06 2.9939e+06 0 6.89109e+06 3.01101e+06 0 6.88598e+06 3.02808e+06 0 6.88079e+06 3.04512e+06 0 6.8755e+06 3.06212e+06 0 6.87012e+06 3.07908e+06 0 6.86465e+06 3.09601e+06 0 6.85909e+06 3.11291e+06 0 6.85345e+06 3.12976e+06 0 6.84771e+06 3.14658e+06 0 6.84189e+06 3.16336e+06 0 6.83598e+06 3.18009e+06 0 6.82998e+06 3.19679e+06 0 6.82389e+06 3.21345e+06 0 6.81772e+06 3.23006e+06 0 6.81146e+06 3.24663e+06 0 6.80512e+06 3.26316e+06 0 6.79869e+06 3.27965e+06 0 6.79218e+06 3.29609e+06 0 6.78559e+06 3.31249e+06 0 6.77891e+06 3.32884e+06 0 6.77216e+06 3.34515e+06 0 6.76532e+06 3.36141e+06 0 6.75839e+06 3.37763e+06 0 6.75139e+06 3.39379e+06 0 6.74431e+06 3.40991e+06 0 6.73715e+06 3.42598e+06 0 6.72991e+06 3.44201e+06 0 6.7226e+06 3.45798e+06 0 6.7152e+06 3.47391e+06 0 6.70773e+06 3.48978e+06 0 6.70019e+06 3.5056e+06 0 6.69256e+06 3.52138e+06 0 6.68487e+06 3.5371e+06 0 6.6771e+06 3.55277e+06 0 6.66925e+06 3.56838e+06 0 6.66133e+06 3.58395e+06 0 6.65334e+06 3.59946e+06 0 6.64528e+06 3.61492e+06 0 6.63715e+06 3.63032e+06 0 6.62895e+06 3.64567e+06 0 6.62068e+06 3.66097e+06 0 6.61233e+06 3.67621e+06 0 6.60392e+06 3.6914e+06 0 6.59545e+06 3.70653e+06 0 6.5869e+06 3.7216e+06 0 6.57829e+06 3.73662e+06 0 6.80451e+06 1.55793e+06 0 6.80729e+06 1.5751e+06 0 6.80997e+06 1.5923e+06 0 6.81255e+06 1.60954e+06 0 6.81503e+06 1.62681e+06 0 6.8174e+06 1.64411e+06 0 6.81967e+06 1.66144e+06 0 6.82183e+06 1.6788e+06 0 6.82389e+06 1.69619e+06 0 6.82584e+06 1.7136e+06 0 6.82769e+06 1.73104e+06 0 6.82943e+06 1.74851e+06 0 6.83107e+06 1.766e+06 0 6.8326e+06 1.78352e+06 0 6.83402e+06 1.80106e+06 0 6.83533e+06 1.81862e+06 0 6.83654e+06 1.8362e+06 0 6.83764e+06 1.8538e+06 0 6.83863e+06 1.87141e+06 0 6.83951e+06 1.88905e+06 0 6.84029e+06 1.9067e+06 0 6.84095e+06 1.92437e+06 0 6.84151e+06 1.94205e+06 0 6.84196e+06 1.95975e+06 0 6.8423e+06 1.97746e+06 0 6.84253e+06 1.99518e+06 0 6.84265e+06 2.01291e+06 0 6.84266e+06 2.03065e+06 0 6.84256e+06 2.0484e+06 0 6.84235e+06 2.06616e+06 0 6.84203e+06 2.08392e+06 0 6.8416e+06 2.10169e+06 0 6.84106e+06 2.11947e+06 0 6.84041e+06 2.13724e+06 0 6.83965e+06 2.15502e+06 0 6.83878e+06 2.17281e+06 0 6.83781e+06 2.19059e+06 0 6.83672e+06 2.20837e+06 0 6.83552e+06 2.22615e+06 0 6.83421e+06 2.24392e+06 0 6.83279e+06 2.2617e+06 0 6.83126e+06 2.27947e+06 0 6.82962e+06 2.29723e+06 0 6.82788e+06 2.31499e+06 0 6.82602e+06 2.33273e+06 0 6.82405e+06 2.35047e+06 0 6.82198e+06 2.3682e+06 0 6.81979e+06 2.38592e+06 0 6.8175e+06 2.40363e+06 0 6.8151e+06 2.42133e+06 0 6.81259e+06 2.43901e+06 0 6.80997e+06 2.45668e+06 0 6.80724e+06 2.47433e+06 0 6.80441e+06 2.49196e+06 0 6.80147e+06 2.50958e+06 0 6.79842e+06 2.52718e+06 0 6.79526e+06 2.54476e+06 0 6.792e+06 2.56232e+06 0 6.78863e+06 2.57986e+06 0 6.78516e+06 2.59737e+06 0 6.78158e+06 2.61487e+06 0 6.77789e+06 2.63233e+06 0 6.7741e+06 2.64978e+06 0 6.77021e+06 2.6672e+06 0 6.76621e+06 2.68459e+06 0 6.76211e+06 2.70195e+06 0 6.7579e+06 2.71929e+06 0 6.75359e+06 2.73659e+06 0 6.74918e+06 2.75387e+06 0 6.74467e+06 2.77111e+06 0 6.74006e+06 2.78832e+06 0 6.73534e+06 2.8055e+06 0 6.73053e+06 2.82265e+06 0 6.72561e+06 2.83976e+06 0 6.72059e+06 2.85684e+06 0 6.71548e+06 2.87388e+06 0 6.71027e+06 2.89088e+06 0 6.70495e+06 2.90785e+06 0 6.69955e+06 2.92477e+06 0 6.69404e+06 2.94166e+06 0 6.68844e+06 2.95851e+06 0 6.68274e+06 2.97532e+06 0 6.67695e+06 2.99208e+06 0 6.67106e+06 3.00881e+06 0 6.66507e+06 3.02549e+06 0 6.659e+06 3.04212e+06 0 6.65283e+06 3.05872e+06 0 6.64657e+06 3.07526e+06 0 6.64022e+06 3.09176e+06 0 6.63377e+06 3.10822e+06 0 6.62724e+06 3.12463e+06 0 6.62061e+06 3.14099e+06 0 6.6139e+06 3.1573e+06 0 6.6071e+06 3.17356e+06 0 6.60021e+06 3.18978e+06 0 6.59323e+06 3.20594e+06 0 6.58617e+06 3.22206e+06 0 6.57902e+06 3.23812e+06 0 6.57178e+06 3.25413e+06 0 6.56446e+06 3.27008e+06 0 6.55706e+06 3.28599e+06 0 6.54957e+06 3.30184e+06 0 6.54201e+06 3.31764e+06 0 6.53436e+06 3.33338e+06 0 6.52663e+06 3.34906e+06 0 6.51881e+06 3.3647e+06 0 6.51092e+06 3.38027e+06 0 6.50295e+06 3.39579e+06 0 6.4949e+06 3.41125e+06 0 6.48678e+06 3.42665e+06 0 6.47858e+06 3.442e+06 0 6.4703e+06 3.45729e+06 0 6.46195e+06 3.47252e+06 0 6.45352e+06 3.48769e+06 0 6.44502e+06 3.5028e+06 0 6.43644e+06 3.51785e+06 0 6.42779e+06 3.53284e+06 0 6.41908e+06 3.54776e+06 0 6.41029e+06 3.56263e+06 0 6.40143e+06 3.57744e+06 0 6.3925e+06 3.59218e+06 0 6.3835e+06 3.60687e+06 0 6.37444e+06 3.62149e+06 0 6.3653e+06 3.63604e+06 0 6.35611e+06 3.65054e+06 0 6.34684e+06 3.66497e+06 0 6.33751e+06 3.67934e+06 0 6.32812e+06 3.69364e+06 0 6.64557e+06 1.54504e+06 0 6.64808e+06 1.56225e+06 0 6.65048e+06 1.5795e+06 0 6.65277e+06 1.59678e+06 0 6.65495e+06 1.61408e+06 0 6.65702e+06 1.63142e+06 0 6.65898e+06 1.64879e+06 0 6.66082e+06 1.66619e+06 0 6.66256e+06 1.68361e+06 0 6.66418e+06 1.70106e+06 0 6.66569e+06 1.71853e+06 0 6.66708e+06 1.73603e+06 0 6.66837e+06 1.75354e+06 0 6.66954e+06 1.77108e+06 0 6.67059e+06 1.78864e+06 0 6.67153e+06 1.80622e+06 0 6.67236e+06 1.82382e+06 0 6.67307e+06 1.84144e+06 0 6.67366e+06 1.85907e+06 0 6.67414e+06 1.87671e+06 0 6.67451e+06 1.89437e+06 0 6.67476e+06 1.91205e+06 0 6.67489e+06 1.92973e+06 0 6.67491e+06 1.94742e+06 0 6.67481e+06 1.96513e+06 0 6.6746e+06 1.98284e+06 0 6.67427e+06 2.00055e+06 0 6.67382e+06 2.01828e+06 0 6.67326e+06 2.03601e+06 0 6.67258e+06 2.05374e+06 0 6.67178e+06 2.07147e+06 0 6.67087e+06 2.08921e+06 0 6.66984e+06 2.10695e+06 0 6.66869e+06 2.12468e+06 0 6.66743e+06 2.14241e+06 0 6.66605e+06 2.16014e+06 0 6.66456e+06 2.17787e+06 0 6.66295e+06 2.19559e+06 0 6.66122e+06 2.2133e+06 0 6.65937e+06 2.23101e+06 0 6.65741e+06 2.24871e+06 0 6.65534e+06 2.26639e+06 0 6.65315e+06 2.28407e+06 0 6.65084e+06 2.30173e+06 0 6.64842e+06 2.31938e+06 0 6.64588e+06 2.33702e+06 0 6.64323e+06 2.35464e+06 0 6.64047e+06 2.37225e+06 0 6.63758e+06 2.38983e+06 0 6.63459e+06 2.4074e+06 0 6.63148e+06 2.42495e+06 0 6.62826e+06 2.44248e+06 0 6.62493e+06 2.45999e+06 0 6.62148e+06 2.47747e+06 0 6.61792e+06 2.49493e+06 0 6.61425e+06 2.51237e+06 0 6.61047e+06 2.52978e+06 0 6.60657e+06 2.54716e+06 0 6.60257e+06 2.56451e+06 0 6.59845e+06 2.58184e+06 0 6.59423e+06 2.59913e+06 0 6.58989e+06 2.6164e+06 0 6.58545e+06 2.63363e+06 0 6.5809e+06 2.65083e+06 0 6.57624e+06 2.668e+06 0 6.57147e+06 2.68513e+06 0 6.5666e+06 2.70222e+06 0 6.56161e+06 2.71928e+06 0 6.55653e+06 2.7363e+06 0 6.55133e+06 2.75329e+06 0 6.54604e+06 2.77023e+06 0 6.54064e+06 2.78714e+06 0 6.53513e+06 2.804e+06 0 6.52952e+06 2.82082e+06 0 6.52381e+06 2.8376e+06 0 6.518e+06 2.85433e+06 0 6.51209e+06 2.87102e+06 0 6.50607e+06 2.88767e+06 0 6.49996e+06 2.90427e+06 0 6.49374e+06 2.92082e+06 0 6.48743e+06 2.93732e+06 0 6.48102e+06 2.95378e+06 0 6.47452e+06 2.97019e+06 0 6.46791e+06 2.98654e+06 0 6.46121e+06 3.00285e+06 0 6.45442e+06 3.01911e+06 0 6.44753e+06 3.03531e+06 0 6.44055e+06 3.05146e+06 0 6.43347e+06 3.06756e+06 0 6.4263e+06 3.0836e+06 0 6.41904e+06 3.09959e+06 0 6.41169e+06 3.11552e+06 0 6.40426e+06 3.1314e+06 0 6.39673e+06 3.14722e+06 0 6.38911e+06 3.16298e+06 0 6.3814e+06 3.17868e+06 0 6.37361e+06 3.19433e+06 0 6.36573e+06 3.20992e+06 0 6.35777e+06 3.22544e+06 0 6.34972e+06 3.24091e+06 0 6.34159e+06 3.25632e+06 0 6.33338e+06 3.27167e+06 0 6.32508e+06 3.28695e+06 0 6.3167e+06 3.30217e+06 0 6.30825e+06 3.31733e+06 0 6.29971e+06 3.33243e+06 0 6.29109e+06 3.34746e+06 0 6.2824e+06 3.36243e+06 0 6.27363e+06 3.37733e+06 0 6.26478e+06 3.39217e+06 0 6.25585e+06 3.40695e+06 0 6.24686e+06 3.42165e+06 0 6.23778e+06 3.4363e+06 0 6.22864e+06 3.45087e+06 0 6.21942e+06 3.46538e+06 0 6.21013e+06 3.47982e+06 0 6.20077e+06 3.4942e+06 0 6.19134e+06 3.5085e+06 0 6.18185e+06 3.52274e+06 0 6.17228e+06 3.53691e+06 0 6.16265e+06 3.55101e+06 0 6.15295e+06 3.56505e+06 0 6.14318e+06 3.57901e+06 0 6.13335e+06 3.5929e+06 0 6.12346e+06 3.60673e+06 0 6.11351e+06 3.62048e+06 0 6.10349e+06 3.63417e+06 0 6.09341e+06 3.64778e+06 0 6.49476e+06 1.53211e+06 0 6.497e+06 1.54933e+06 0 6.49912e+06 1.56658e+06 0 6.50113e+06 1.58386e+06 0 6.50302e+06 1.60117e+06 0 6.50479e+06 1.61851e+06 0 6.50644e+06 1.63588e+06 0 6.50798e+06 1.65327e+06 0 6.5094e+06 1.67069e+06 0 6.51069e+06 1.68813e+06 0 6.51187e+06 1.7056e+06 0 6.51293e+06 1.72309e+06 0 6.51387e+06 1.7406e+06 0 6.51469e+06 1.75812e+06 0 6.51539e+06 1.77567e+06 0 6.51597e+06 1.79323e+06 0 6.51643e+06 1.81081e+06 0 6.51676e+06 1.8284e+06 0 6.51698e+06 1.84601e+06 0 6.51707e+06 1.86363e+06 0 6.51704e+06 1.88126e+06 0 6.51689e+06 1.8989e+06 0 6.51662e+06 1.91654e+06 0 6.51622e+06 1.9342e+06 0 6.51571e+06 1.95186e+06 0 6.51507e+06 1.96952e+06 0 6.5143e+06 1.98719e+06 0 6.51342e+06 2.00486e+06 0 6.51241e+06 2.02254e+06 0 6.51128e+06 2.04021e+06 0 6.51003e+06 2.05788e+06 0 6.50866e+06 2.07555e+06 0 6.50716e+06 2.09321e+06 0 6.50554e+06 2.11087e+06 0 6.5038e+06 2.12852e+06 0 6.50194e+06 2.14617e+06 0 6.49996e+06 2.1638e+06 0 6.49785e+06 2.18143e+06 0 6.49562e+06 2.19904e+06 0 6.49327e+06 2.21664e+06 0 6.4908e+06 2.23423e+06 0 6.48821e+06 2.25181e+06 0 6.48549e+06 2.26936e+06 0 6.48266e+06 2.2869e+06 0 6.47971e+06 2.30443e+06 0 6.47663e+06 2.32193e+06 0 6.47344e+06 2.33941e+06 0 6.47013e+06 2.35687e+06 0 6.4667e+06 2.37431e+06 0 6.46315e+06 2.39172e+06 0 6.45948e+06 2.40911e+06 0 6.45569e+06 2.42647e+06 0 6.45179e+06 2.4438e+06 0 6.44777e+06 2.4611e+06 0 6.44363e+06 2.47838e+06 0 6.43938e+06 2.49562e+06 0 6.43501e+06 2.51283e+06 0 6.43053e+06 2.53001e+06 0 6.42593e+06 2.54716e+06 0 6.42122e+06 2.56426e+06 0 6.41639e+06 2.58134e+06 0 6.41145e+06 2.59837e+06 0 6.4064e+06 2.61537e+06 0 6.40124e+06 2.63233e+06 0 6.39596e+06 2.64925e+06 0 6.39058e+06 2.66612e+06 0 6.38508e+06 2.68296e+06 0 6.37948e+06 2.69975e+06 0 6.37377e+06 2.7165e+06 0 6.36795e+06 2.7332e+06 0 6.36202e+06 2.74985e+06 0 6.35598e+06 2.76646e+06 0 6.34984e+06 2.78302e+06 0 6.3436e+06 2.79953e+06 0 6.33724e+06 2.816e+06 0 6.33079e+06 2.83241e+06 0 6.32423e+06 2.84877e+06 0 6.31757e+06 2.86508e+06 0 6.31081e+06 2.88133e+06 0 6.30395e+06 2.89754e+06 0 6.29699e+06 2.91368e+06 0 6.28992e+06 2.92978e+06 0 6.28276e+06 2.94581e+06 0 6.27551e+06 2.96179e+06 0 6.26815e+06 2.97771e+06 0 6.2607e+06 2.99357e+06 0 6.25315e+06 3.00938e+06 0 6.24551e+06 3.02512e+06 0 6.23778e+06 3.04081e+06 0 6.22995e+06 3.05643e+06 0 6.22204e+06 3.07199e+06 0 6.21403e+06 3.08749e+06 0 6.20593e+06 3.10292e+06 0 6.19774e+06 3.1183e+06 0 6.18946e+06 3.1336e+06 0 6.1811e+06 3.14885e+06 0 6.17265e+06 3.16403e+06 0 6.16411e+06 3.17914e+06 0 6.15549e+06 3.19418e+06 0 6.14678e+06 3.20916e+06 0 6.13799e+06 3.22407e+06 0 6.12912e+06 3.23892e+06 0 6.12017e+06 3.25369e+06 0 6.11114e+06 3.2684e+06 0 6.10203e+06 3.28303e+06 0 6.09283e+06 3.2976e+06 0 6.08357e+06 3.3121e+06 0 6.07422e+06 3.32652e+06 0 6.0648e+06 3.34088e+06 0 6.05531e+06 3.35516e+06 0 6.04574e+06 3.36937e+06 0 6.0361e+06 3.38351e+06 0 6.02638e+06 3.39758e+06 0 6.0166e+06 3.41158e+06 0 6.00674e+06 3.4255e+06 0 5.99682e+06 3.43935e+06 0 5.98682e+06 3.45312e+06 0 5.97676e+06 3.46682e+06 0 5.96664e+06 3.48045e+06 0 5.95644e+06 3.494e+06 0 5.94618e+06 3.50748e+06 0 5.93586e+06 3.52088e+06 0 5.92548e+06 3.53421e+06 0 5.91503e+06 3.54746e+06 0 5.90453e+06 3.56064e+06 0 5.89396e+06 3.57374e+06 0 5.88333e+06 3.58677e+06 0 5.87265e+06 3.59972e+06 0 6.35143e+06 1.5191e+06 0 6.3534e+06 1.53629e+06 0 6.35524e+06 1.55351e+06 0 6.35697e+06 1.57076e+06 0 6.35857e+06 1.58804e+06 0 6.36005e+06 1.60535e+06 0 6.3614e+06 1.62268e+06 0 6.36263e+06 1.64004e+06 0 6.36374e+06 1.65743e+06 0 6.36472e+06 1.67483e+06 0 6.36558e+06 1.69226e+06 0 6.36631e+06 1.70971e+06 0 6.36691e+06 1.72717e+06 0 6.36739e+06 1.74466e+06 0 6.36775e+06 1.76216e+06 0 6.36797e+06 1.77967e+06 0 6.36807e+06 1.7972e+06 0 6.36805e+06 1.81474e+06 0 6.36789e+06 1.83229e+06 0 6.36761e+06 1.84985e+06 0 6.3672e+06 1.86742e+06 0 6.36666e+06 1.885e+06 0 6.366e+06 1.90258e+06 0 6.36521e+06 1.92016e+06 0 6.36429e+06 1.93775e+06 0 6.36324e+06 1.95534e+06 0 6.36207e+06 1.97293e+06 0 6.36076e+06 1.99052e+06 0 6.35933e+06 2.0081e+06 0 6.35777e+06 2.02569e+06 0 6.35609e+06 2.04326e+06 0 6.35427e+06 2.06083e+06 0 6.35233e+06 2.0784e+06 0 6.35026e+06 2.09595e+06 0 6.34807e+06 2.11349e+06 0 6.34574e+06 2.13102e+06 0 6.34329e+06 2.14854e+06 0 6.34072e+06 2.16604e+06 0 6.33801e+06 2.18353e+06 0 6.33518e+06 2.201e+06 0 6.33223e+06 2.21846e+06 0 6.32915e+06 2.23589e+06 0 6.32594e+06 2.2533e+06 0 6.32261e+06 2.27069e+06 0 6.31915e+06 2.28806e+06 0 6.31557e+06 2.3054e+06 0 6.31187e+06 2.32272e+06 0 6.30804e+06 2.34001e+06 0 6.30409e+06 2.35727e+06 0 6.30002e+06 2.3745e+06 0 6.29582e+06 2.39171e+06 0 6.29151e+06 2.40887e+06 0 6.28707e+06 2.42601e+06 0 6.28251e+06 2.44311e+06 0 6.27783e+06 2.46018e+06 0 6.27304e+06 2.47721e+06 0 6.26812e+06 2.4942e+06 0 6.26308e+06 2.51116e+06 0 6.25793e+06 2.52807e+06 0 6.25266e+06 2.54494e+06 0 6.24728e+06 2.56177e+06 0 6.24177e+06 2.57856e+06 0 6.23616e+06 2.59531e+06 0 6.23043e+06 2.612e+06 0 6.22458e+06 2.62865e+06 0 6.21862e+06 2.64526e+06 0 6.21255e+06 2.66182e+06 0 6.20637e+06 2.67832e+06 0 6.20008e+06 2.69478e+06 0 6.19367e+06 2.71118e+06 0 6.18716e+06 2.72754e+06 0 6.18054e+06 2.74384e+06 0 6.17381e+06 2.76008e+06 0 6.16697e+06 2.77627e+06 0 6.16003e+06 2.79241e+06 0 6.15299e+06 2.80848e+06 0 6.14583e+06 2.8245e+06 0 6.13858e+06 2.84046e+06 0 6.13122e+06 2.85637e+06 0 6.12376e+06 2.87221e+06 0 6.1162e+06 2.88799e+06 0 6.10854e+06 2.90371e+06 0 6.10078e+06 2.91937e+06 0 6.09292e+06 2.93496e+06 0 6.08497e+06 2.95049e+06 0 6.07692e+06 2.96596e+06 0 6.06877e+06 2.98136e+06 0 6.06053e+06 2.99669e+06 0 6.05219e+06 3.01196e+06 0 6.04377e+06 3.02716e+06 0 6.03525e+06 3.04229e+06 0 6.02664e+06 3.05735e+06 0 6.01794e+06 3.07235e+06 0 6.00915e+06 3.08727e+06 0 6.00027e+06 3.10212e+06 0 5.99131e+06 3.11691e+06 0 5.98226e+06 3.13162e+06 0 5.97312e+06 3.14626e+06 0 5.9639e+06 3.16082e+06 0 5.9546e+06 3.17532e+06 0 5.94522e+06 3.18974e+06 0 5.93576e+06 3.20408e+06 0 5.92621e+06 3.21836e+06 0 5.91659e+06 3.23255e+06 0 5.90689e+06 3.24668e+06 0 5.89711e+06 3.26072e+06 0 5.88725e+06 3.27469e+06 0 5.87733e+06 3.28859e+06 0 5.86732e+06 3.30241e+06 0 5.85725e+06 3.31615e+06 0 5.8471e+06 3.32981e+06 0 5.83688e+06 3.34339e+06 0 5.82659e+06 3.3569e+06 0 5.81623e+06 3.37033e+06 0 5.80581e+06 3.38368e+06 0 5.79531e+06 3.39695e+06 0 5.78475e+06 3.41015e+06 0 5.77413e+06 3.42326e+06 0 5.76344e+06 3.4363e+06 0 5.75269e+06 3.44925e+06 0 5.74188e+06 3.46213e+06 0 5.731e+06 3.47492e+06 0 5.72007e+06 3.48764e+06 0 5.70908e+06 3.50027e+06 0 5.69803e+06 3.51283e+06 0 5.68692e+06 3.5253e+06 0 5.67575e+06 3.5377e+06 0 5.66453e+06 3.55001e+06 0 6.21498e+06 1.50596e+06 0 6.21668e+06 1.52309e+06 0 6.21825e+06 1.54026e+06 0 6.2197e+06 1.