<?xml version="1.0"?> 
<VTKFile type="StructuredGrid" version="0.1"> 
<StructuredGrid WholeExtent="0 127 0 127 0 0"> 
<Piece Extent="0 127 0 127 0 0"> 
<PointData>
<DataArray type="Float32" Name="E" format="ascii" NumberOfComponents="3"> 
6.63482e+06 6.11532e+06 0 6.64719e+06 6.10027e+06 0 6.65953e+06 6.08516e+06 0 6.67182e+06 6.07001e+06 0 6.68408e+06 6.05481e+06 0 6.6963e+06 6.03955e+06 0 6.70848e+06 6.02425e+06 0 6.72062e+06 6.0089e+06 0 6.73272e+06 5.9935e+06 0 6.74479e+06 5.97804e+06 0 6.75681e+06 5.96254e+06 0 6.76878e+06 5.94699e+06 0 6.78072e+06 5.93139e+06 0 6.79262e+06 5.91573e+06 0 6.80447e+06 5.90003e+06 0 6.81628e+06 5.88428e+06 0 6.82805e+06 5.86849e+06 0 6.83977e+06 5.85264e+06 0 6.85145e+06 5.83674e+06 0 6.86309e+06 5.82079e+06 0 6.87468e+06 5.8048e+06 0 6.88622e+06 5.78876e+06 0 6.89773e+06 5.77266e+06 0 6.90918e+06 5.75652e+06 0 6.92059e+06 5.74034e+06 0 6.93195e+06 5.7241e+06 0 6.94326e+06 5.70781e+06 0 6.95453e+06 5.69148e+06 0 6.96575e+06 5.6751e+06 0 6.97692e+06 5.65867e+06 0 6.98804e+06 5.6422e+06 0 6.99911e+06 5.62568e+06 0 7.01013e+06 5.60911e+06 0 7.0211e+06 5.59249e+06 0 7.03202e+06 5.57583e+06 0 7.04289e+06 5.55912e+06 0 7.05371e+06 5.54236e+06 0 7.06448e+06 5.52556e+06 0 7.07519e+06 5.50871e+06 0 7.08585e+06 5.49182e+06 0 7.09646e+06 5.47488e+06 0 7.10702e+06 5.45789e+06 0 7.11752e+06 5.44086e+06 0 7.12797e+06 5.42378e+06 0 7.13836e+06 5.40666e+06 0 7.1487e+06 5.3895e+06 0 7.15898e+06 5.37229e+06 0 7.16921e+06 5.35504e+06 0 7.17938e+06 5.33774e+06 0 7.18949e+06 5.3204e+06 0 7.19955e+06 5.30301e+06 0 7.20955e+06 5.28558e+06 0 7.21949e+06 5.26811e+06 0 7.22937e+06 5.2506e+06 0 7.2392e+06 5.23304e+06 0 7.24896e+06 5.21544e+06 0 7.25867e+06 5.1978e+06 0 7.26831e+06 5.18012e+06 0 7.2779e+06 5.1624e+06 0 7.28742e+06 5.14463e+06 0 7.29689e+06 5.12682e+06 0 7.30629e+06 5.10898e+06 0 7.31563e+06 5.09109e+06 0 7.32491e+06 5.07316e+06 0 7.33412e+06 5.0552e+06 0 7.34327e+06 5.03719e+06 0 7.35236e+06 5.01915e+06 0 7.36139e+06 5.00106e+06 0 7.37035e+06 4.98294e+06 0 7.37925e+06 4.96478e+06 0 7.38808e+06 4.94658e+06 0 7.39684e+06 4.92835e+06 0 7.40554e+06 4.91007e+06 0 7.41418e+06 4.89176e+06 0 7.42275e+06 4.87342e+06 0 7.43125e+06 4.85503e+06 0 7.43968e+06 4.83662e+06 0 7.44805e+06 4.81816e+06 0 7.45635e+06 4.79967e+06 0 7.46458e+06 4.78115e+06 0 7.47274e+06 4.76259e+06 0 7.48084e+06 4.744e+06 0 7.48886e+06 4.72537e+06 0 7.49681e+06 4.70671e+06 0 7.5047e+06 4.68802e+06 0 7.51251e+06 4.6693e+06 0 7.52026e+06 4.65054e+06 0 7.52793e+06 4.63175e+06 0 7.53553e+06 4.61293e+06 0 7.54306e+06 4.59408e+06 0 7.55052e+06 4.5752e+06 0 7.5579e+06 4.55629e+06 0 7.56522e+06 4.53735e+06 0 7.57246e+06 4.51838e+06 0 7.57963e+06 4.49938e+06 0 7.58672e+06 4.48036e+06 0 7.59374e+06 4.4613e+06 0 7.60069e+06 4.44222e+06 0 7.60756e+06 4.42311e+06 0 7.61435e+06 4.40397e+06 0 7.62108e+06 4.38481e+06 0 7.62772e+06 4.36562e+06 0 7.63429e+06 4.34641e+06 0 7.64079e+06 4.32717e+06 0 7.64721e+06 4.3079e+06 0 7.65355e+06 4.28862e+06 0 7.65982e+06 4.26931e+06 0 7.66601e+06 4.24997e+06 0 7.67212e+06 4.23062e+06 0 7.67816e+06 4.21124e+06 0 7.68412e+06 4.19184e+06 0 7.68999e+06 4.17242e+06 0 7.6958e+06 4.15298e+06 0 7.70152e+06 4.13351e+06 0 7.70717e+06 4.11403e+06 0 7.71273e+06 4.09453e+06 0 7.71822e+06 4.07501e+06 0 7.72363e+06 4.05547e+06 0 7.72895e+06 4.03592e+06 0 7.7342e+06 4.01634e+06 0 7.73937e+06 3.99675e+06 0 7.74446e+06 3.97715e+06 0 7.74947e+06 3.95753e+06 0 7.7544e+06 3.93789e+06 0 7.75924e+06 3.91824e+06 0 7.76401e+06 3.89857e+06 0 7.7687e+06 3.87889e+06 0 7.7733e+06 3.8592e+06 0 6.45962e+06 6.10184e+06 0 6.47127e+06 6.08616e+06 0 6.48286e+06 6.07044e+06 0 6.49441e+06 6.05467e+06 0 6.50591e+06 6.03885e+06 0 6.51736e+06 6.02298e+06 0 6.52876e+06 6.00707e+06 0 6.54011e+06 5.99112e+06 0 6.55141e+06 5.97511e+06 0 6.56266e+06 5.95906e+06 0 6.57385e+06 5.94297e+06 0 6.585e+06 5.92683e+06 0 6.5961e+06 5.91064e+06 0 6.60714e+06 5.89441e+06 0 6.61813e+06 5.87814e+06 0 6.62907e+06 5.86182e+06 0 6.63995e+06 5.84545e+06 0 6.65078e+06 5.82904e+06 0 6.66156e+06 5.81259e+06 0 6.67228e+06 5.7961e+06 0 6.68295e+06 5.77956e+06 0 6.69356e+06 5.76298e+06 0 6.70412e+06 5.74635e+06 0 6.71462e+06 5.72969e+06 0 6.72506e+06 5.71298e+06 0 6.73545e+06 5.69623e+06 0 6.74578e+06 5.67943e+06 0 6.75605e+06 5.6626e+06 0 6.76626e+06 5.64573e+06 0 6.77641e+06 5.62881e+06 0 6.78651e+06 5.61185e+06 0 6.79655e+06 5.59486e+06 0 6.80653e+06 5.57782e+06 0 6.81644e+06 5.56075e+06 0 6.8263e+06 5.54363e+06 0 6.8361e+06 5.52648e+06 0 6.84583e+06 5.50929e+06 0 6.85551e+06 5.49206e+06 0 6.86512e+06 5.47479e+06 0 6.87467e+06 5.45749e+06 0 6.88416e+06 5.44015e+06 0 6.89359e+06 5.42277e+06 0 6.90295e+06 5.40536e+06 0 6.91225e+06 5.3879e+06 0 6.92148e+06 5.37042e+06 0 6.93065e+06 5.3529e+06 0 6.93976e+06 5.33534e+06 0 6.9488e+06 5.31775e+06 0 6.95778e+06 5.30013e+06 0 6.96669e+06 5.28247e+06 0 6.97554e+06 5.26477e+06 0 6.98432e+06 5.24705e+06 0 6.99303e+06 5.22929e+06 0 7.00168e+06 5.2115e+06 0 7.01026e+06 5.19368e+06 0 7.01877e+06 5.17583e+06 0 7.02722e+06 5.15795e+06 0 7.03559e+06 5.14003e+06 0 7.0439e+06 5.12209e+06 0 7.05214e+06 5.10412e+06 0 7.06032e+06 5.08611e+06 0 7.06842e+06 5.06808e+06 0 7.07645e+06 5.05002e+06 0 7.08442e+06 5.03194e+06 0 7.09231e+06 5.01382e+06 0 7.10013e+06 4.99568e+06 0 7.10789e+06 4.97751e+06 0 7.11557e+06 4.95932e+06 0 7.12318e+06 4.9411e+06 0 7.13073e+06 4.92285e+06 0 7.1382e+06 4.90458e+06 0 7.1456e+06 4.88629e+06 0 7.15292e+06 4.86797e+06 0 7.16018e+06 4.84963e+06 0 7.16736e+06 4.83126e+06 0 7.17447e+06 4.81288e+06 0 7.18151e+06 4.79447e+06 0 7.18847e+06 4.77604e+06 0 7.19536e+06 4.75759e+06 0 7.20218e+06 4.73912e+06 0 7.20893e+06 4.72063e+06 0 7.2156e+06 4.70212e+06 0 7.22219e+06 4.68359e+06 0 7.22872e+06 4.66504e+06 0 7.23517e+06 4.64648e+06 0 7.24154e+06 4.6279e+06 0 7.24784e+06 4.6093e+06 0 7.25407e+06 4.59068e+06 0 7.26022e+06 4.57205e+06 0 7.26629e+06 4.5534e+06 0 7.27229e+06 4.53474e+06 0 7.27822e+06 4.51606e+06 0 7.28407e+06 4.49737e+06 0 7.28984e+06 4.47867e+06 0 7.29554e+06 4.45995e+06 0 7.30116e+06 4.44123e+06 0 7.30671e+06 4.42249e+06 0 7.31218e+06 4.40373e+06 0 7.31757e+06 4.38497e+06 0 7.32289e+06 4.3662e+06 0 7.32813e+06 4.34742e+06 0 7.3333e+06 4.32863e+06 0 7.33839e+06 4.30983e+06 0 7.3434e+06 4.29102e+06 0 7.34833e+06 4.2722e+06 0 7.35319e+06 4.25338e+06 0 7.35797e+06 4.23455e+06 0 7.36268e+06 4.21572e+06 0 7.36731e+06 4.19688e+06 0 7.37186e+06 4.17803e+06 0 7.37633e+06 4.15918e+06 0 7.38073e+06 4.14033e+06 0 7.38505e+06 4.12147e+06 0 7.38929e+06 4.10261e+06 0 7.39346e+06 4.08375e+06 0 7.39755e+06 4.06489e+06 0 7.40156e+06 4.04602e+06 0 7.4055e+06 4.02716e+06 0 7.40935e+06 4.00829e+06 0 7.41313e+06 3.98943e+06 0 7.41684e+06 3.97056e+06 0 7.42046e+06 3.9517e+06 0 7.42401e+06 3.93284e+06 0 7.42749e+06 3.91398e+06 0 7.43088e+06 3.89513e+06 0 7.4342e+06 3.87628e+06 0 7.43744e+06 3.85743e+06 0 7.44061e+06 3.83859e+06 0 6.29027e+06 6.08443e+06 0 6.30126e+06 6.06816e+06 0 6.31219e+06 6.05184e+06 0 6.32307e+06 6.03548e+06 0 6.33388e+06 6.01907e+06 0 6.34464e+06 6.00263e+06 0 6.35534e+06 5.98613e+06 0 6.36598e+06 5.9696e+06 0 6.37656e+06 5.95302e+06 0 6.38708e+06 5.9364e+06 0 6.39754e+06 5.91974e+06 0 6.40794e+06 5.90304e+06 0 6.41828e+06 5.8863e+06 0 6.42855e+06 5.86951e+06 0 6.43877e+06 5.85269e+06 0 6.44892e+06 5.83582e+06 0 6.45901e+06 5.81892e+06 0 6.46904e+06 5.80198e+06 0 6.479e+06 5.78499e+06 0 6.4889e+06 5.76797e+06 0 6.49874e+06 5.75091e+06 0 6.50851e+06 5.73382e+06 0 6.51821e+06 5.71668e+06 0 6.52785e+06 5.69951e+06 0 6.53743e+06 5.68231e+06 0 6.54694e+06 5.66506e+06 0 6.55638e+06 5.64778e+06 0 6.56576e+06 5.63047e+06 0 6.57507e+06 5.61312e+06 0 6.58431e+06 5.59574e+06 0 6.59349e+06 5.57832e+06 0 6.6026e+06 5.56087e+06 0 6.61164e+06 5.54339e+06 0 6.62061e+06 5.52587e+06 0 6.62951e+06 5.50833e+06 0 6.63834e+06 5.49075e+06 0 6.64711e+06 5.47314e+06 0 6.6558e+06 5.4555e+06 0 6.66443e+06 5.43783e+06 0 6.67298e+06 5.42013e+06 0 6.68147e+06 5.4024e+06 0 6.68988e+06 5.38464e+06 0 6.69822e+06 5.36686e+06 0 6.70649e+06 5.34904e+06 0 6.71469e+06 5.3312e+06 0 6.72282e+06 5.31333e+06 0 6.73087e+06 5.29544e+06 0 6.73886e+06 5.27752e+06 0 6.74677e+06 5.25958e+06 0 6.7546e+06 5.24161e+06 0 6.76237e+06 5.22362e+06 0 6.77006e+06 5.2056e+06 0 6.77768e+06 5.18756e+06 0 6.78522e+06 5.1695e+06 0 6.79269e+06 5.15142e+06 0 6.80009e+06 5.13331e+06 0 6.80741e+06 5.11519e+06 0 6.81466e+06 5.09704e+06 0 6.82183e+06 5.07887e+06 0 6.82893e+06 5.06069e+06 0 6.83595e+06 5.04249e+06 0 6.8429e+06 5.02426e+06 0 6.84977e+06 5.00603e+06 0 6.85657e+06 4.98777e+06 0 6.86329e+06 4.9695e+06 0 6.86994e+06 4.95121e+06 0 6.87651e+06 4.93291e+06 0 6.883e+06 4.91459e+06 0 6.88942e+06 4.89625e+06 0 6.89576e+06 4.87791e+06 0 6.90203e+06 4.85955e+06 0 6.90822e+06 4.84118e+06 0 6.91433e+06 4.82279e+06 0 6.92037e+06 4.8044e+06 0 6.92633e+06 4.78599e+06 0 6.93221e+06 4.76758e+06 0 6.93802e+06 4.74915e+06 0 6.94374e+06 4.73072e+06 0 6.9494e+06 4.71228e+06 0 6.95497e+06 4.69383e+06 0 6.96047e+06 4.67537e+06 0 6.96589e+06 4.6569e+06 0 6.97123e+06 4.63843e+06 0 6.9765e+06 4.61996e+06 0 6.98169e+06 4.60147e+06 0 6.9868e+06 4.58299e+06 0 6.99183e+06 4.5645e+06 0 6.99679e+06 4.54601e+06 0 7.00167e+06 4.52751e+06 0 7.00647e+06 4.50901e+06 0 7.0112e+06 4.49052e+06 0 7.01585e+06 4.47202e+06 0 7.02042e+06 4.45352e+06 0 7.02491e+06 4.43502e+06 0 7.02933e+06 4.41652e+06 0 7.03367e+06 4.39802e+06 0 7.03793e+06 4.37952e+06 0 7.04212e+06 4.36103e+06 0 7.04622e+06 4.34254e+06 0 7.05026e+06 4.32405e+06 0 7.05421e+06 4.30557e+06 0 7.05809e+06 4.28709e+06 0 7.06189e+06 4.26862e+06 0 7.06562e+06 4.25016e+06 0 7.06927e+06 4.2317e+06 0 7.07284e+06 4.21324e+06 0 7.07633e+06 4.1948e+06 0 7.07975e+06 4.17636e+06 0 7.0831e+06 4.15793e+06 0 7.08637e+06 4.13952e+06 0 7.08956e+06 4.12111e+06 0 7.09268e+06 4.10271e+06 0 7.09572e+06 4.08432e+06 0 7.09869e+06 4.06595e+06 0 7.10158e+06 4.04758e+06 0 7.10439e+06 4.02923e+06 0 7.10714e+06 4.01089e+06 0 7.1098e+06 3.99257e+06 0 7.1124e+06 3.97426e+06 0 7.11491e+06 3.95596e+06 0 7.11736e+06 3.93768e+06 0 7.11973e+06 3.91942e+06 0 7.12203e+06 3.90117e+06 0 7.12425e+06 3.88294e+06 0 7.1264e+06 3.86472e+06 0 7.12848e+06 3.84653e+06 0 7.13048e+06 3.82835e+06 0 7.13241e+06 3.81019e+06 0 6.12653e+06 6.06356e+06 0 6.13693e+06 6.04672e+06 0 6.14726e+06 6.02984e+06 0 6.15753e+06 6.01291e+06 0 6.16774e+06 5.99595e+06 0 6.17787e+06 5.97895e+06 0 6.18794e+06 5.9619e+06 0 6.19794e+06 5.94482e+06 0 6.20788e+06 5.9277e+06 0 6.21774e+06 5.91053e+06 0 6.22753e+06 5.89333e+06 0 6.23726e+06 5.8761e+06 0 6.24692e+06 5.85882e+06 0 6.2565e+06 5.84151e+06 0 6.26602e+06 5.82416e+06 0 6.27546e+06 5.80678e+06 0 6.28484e+06 5.78936e+06 0 6.29414e+06 5.77191e+06 0 6.30337e+06 5.75442e+06 0 6.31253e+06 5.7369e+06 0 6.32162e+06 5.71934e+06 0 6.33063e+06 5.70175e+06 0 6.33957e+06 5.68413e+06 0 6.34844e+06 5.66648e+06 0 6.35724e+06 5.6488e+06 0 6.36596e+06 5.63109e+06 0 6.3746e+06 5.61335e+06 0 6.38317e+06 5.59557e+06 0 6.39167e+06 5.57777e+06 0 6.40009e+06 5.55994e+06 0 6.40844e+06 5.54209e+06 0 6.41671e+06 5.5242e+06 0 6.42491e+06 5.50629e+06 0 6.43303e+06 5.48836e+06 0 6.44107e+06 5.4704e+06 0 6.44904e+06 5.45241e+06 0 6.45693e+06 5.4344e+06 0 6.46474e+06 5.41636e+06 0 6.47248e+06 5.39831e+06 0 6.48013e+06 5.38023e+06 0 6.48772e+06 5.36213e+06 0 6.49522e+06 5.34401e+06 0 6.50264e+06 5.32586e+06 0 6.50999e+06 5.3077e+06 0 6.51726e+06 5.28952e+06 0 6.52445e+06 5.27132e+06 0 6.53156e+06 5.2531e+06 0 6.5386e+06 5.23486e+06 0 6.54555e+06 5.21661e+06 0 6.55243e+06 5.19834e+06 0 6.55922e+06 5.18006e+06 0 6.56594e+06 5.16176e+06 0 6.57258e+06 5.14344e+06 0 6.57913e+06 5.12512e+06 0 6.58561e+06 5.10678e+06 0 6.59201e+06 5.08842e+06 0 6.59833e+06 5.07006e+06 0 6.60457e+06 5.05168e+06 0 6.61073e+06 5.0333e+06 0 6.61681e+06 5.0149e+06 0 6.6228e+06 4.9965e+06 0 6.62872e+06 4.97808e+06 0 6.63456e+06 4.95966e+06 0 6.64032e+06 4.94124e+06 0 6.646e+06 4.9228e+06 0 6.6516e+06 4.90436e+06 0 6.65711e+06 4.88591e+06 0 6.66255e+06 4.86746e+06 0 6.66791e+06 4.84901e+06 0 6.67318e+06 4.83055e+06 0 6.67838e+06 4.81209e+06 0 6.6835e+06 4.79363e+06 0 6.68853e+06 4.77517e+06 0 6.69349e+06 4.7567e+06 0 6.69836e+06 4.73824e+06 0 6.70316e+06 4.71977e+06 0 6.70787e+06 4.70131e+06 0 6.71251e+06 4.68285e+06 0 6.71707e+06 4.66439e+06 0 6.72154e+06 4.64594e+06 0 6.72594e+06 4.62748e+06 0 6.73026e+06 4.60904e+06 0 6.73449e+06 4.5906e+06 0 6.73865e+06 4.57216e+06 0 6.74273e+06 4.55373e+06 0 6.74673e+06 4.53531e+06 0 6.75065e+06 4.51689e+06 0 6.75449e+06 4.49848e+06 0 6.75825e+06 4.48009e+06 0 6.76194e+06 4.4617e+06 0 6.76554e+06 4.44332e+06 0 6.76907e+06 4.42495e+06 0 6.77252e+06 4.40659e+06 0 6.77589e+06 4.38825e+06 0 6.77919e+06 4.36991e+06 0 6.7824e+06 4.35159e+06 0 6.78554e+06 4.33329e+06 0 6.7886e+06 4.315e+06 0 6.79159e+06 4.29672e+06 0 6.7945e+06 4.27846e+06 0 6.79733e+06 4.26021e+06 0 6.80009e+06 4.24198e+06 0 6.80276e+06 4.22377e+06 0 6.80537e+06 4.20558e+06 0 6.8079e+06 4.1874e+06 0 6.81035e+06 4.16925e+06 0 6.81273e+06 4.15111e+06 0 6.81503e+06 4.13299e+06 0 6.81726e+06 4.1149e+06 0 6.81941e+06 4.09682e+06 0 6.82149e+06 4.07877e+06 0 6.8235e+06 4.06074e+06 0 6.82543e+06 4.04273e+06 0 6.82729e+06 4.02474e+06 0 6.82908e+06 4.00678e+06 0 6.83079e+06 3.98885e+06 0 6.83244e+06 3.97093e+06 0 6.83401e+06 3.95305e+06 0 6.83551e+06 3.93519e+06 0 6.83694e+06 3.91735e+06 0 6.83829e+06 3.89954e+06 0 6.83958e+06 3.88176e+06 0 6.84079e+06 3.86401e+06 0 6.84194e+06 3.84629e+06 0 6.84302e+06 3.82859e+06 0 6.84402e+06 3.81093e+06 0 6.84496e+06 3.79329e+06 0 6.84583e+06 3.77569e+06 0 5.96815e+06 6.03963e+06 0 5.97803e+06 6.02225e+06 0 5.98783e+06 6.00483e+06 0 5.99755e+06 5.98738e+06 0 6.00721e+06 5.96988e+06 0 6.01678e+06 5.95235e+06 0 6.02628e+06 5.93478e+06 0 6.03571e+06 5.91718e+06 0 6.04506e+06 5.89953e+06 0 6.05433e+06 5.88186e+06 0 6.06353e+06 5.86414e+06 0 6.07265e+06 5.8464e+06 0 6.08169e+06 5.82862e+06 0 6.09065e+06 5.81081e+06 0 6.09954e+06 5.79296e+06 0 6.10835e+06 5.77509e+06 0 6.11708e+06 5.75718e+06 0 6.12573e+06 5.73924e+06 0 6.1343e+06 5.72127e+06 0 6.14279e+06 5.70327e+06 0 6.1512e+06 5.68525e+06 0 6.15953e+06 5.66719e+06 0 6.16778e+06 5.64911e+06 0 6.17595e+06 5.63101e+06 0 6.18404e+06 5.61287e+06 0 6.19205e+06 5.59471e+06 0 6.19998e+06 5.57653e+06 0 6.20782e+06 5.55832e+06 0 6.21559e+06 5.54009e+06 0 6.22327e+06 5.52184e+06 0 6.23087e+06 5.50356e+06 0 6.23838e+06 5.48527e+06 0 6.24582e+06 5.46695e+06 0 6.25317e+06 5.44861e+06 0 6.26044e+06 5.43026e+06 0 6.26763e+06 5.41188e+06 0 6.27473e+06 5.39349e+06 0 6.28175e+06 5.37508e+06 0 6.28869e+06 5.35666e+06 0 6.29554e+06 5.33821e+06 0 6.30231e+06 5.31976e+06 0 6.30899e+06 5.30129e+06 0 6.31559e+06 5.28281e+06 0 6.32211e+06 5.26431e+06 0 6.32854e+06 5.2458e+06 0 6.33489e+06 5.22728e+06 0 6.34116e+06 5.20875e+06 0 6.34734e+06 5.19021e+06 0 6.35343e+06 5.17166e+06 0 6.35944e+06 5.1531e+06 0 6.36537e+06 5.13454e+06 0 6.37121e+06 5.11596e+06 0 6.37697e+06 5.09739e+06 0 6.38264e+06 5.0788e+06 0 6.38823e+06 5.06021e+06 0 6.39374e+06 5.04162e+06 0 6.39916e+06 5.02302e+06 0 6.40449e+06 5.00442e+06 0 6.40975e+06 4.98582e+06 0 6.41491e+06 4.96722e+06 0 6.41999e+06 4.94862e+06 0 6.42499e+06 4.93001e+06 0 6.42991e+06 4.91141e+06 0 6.43474e+06 4.89281e+06 0 6.43948e+06 4.87422e+06 0 6.44415e+06 4.85562e+06 0 6.44873e+06 4.83703e+06 0 6.45322e+06 4.81844e+06 0 6.45763e+06 4.79986e+06 0 6.46196e+06 4.78129e+06 0 6.4662e+06 4.76272e+06 0 6.47037e+06 4.74416e+06 0 6.47444e+06 4.72561e+06 0 6.47844e+06 4.70706e+06 0 6.48235e+06 4.68853e+06 0 6.48618e+06 4.67e+06 0 6.48993e+06 4.65149e+06 0 6.4936e+06 4.63299e+06 0 6.49718e+06 4.6145e+06 0 6.50069e+06 4.59602e+06 0 6.50411e+06 4.57755e+06 0 6.50745e+06 4.55911e+06 0 6.51071e+06 4.54067e+06 0 6.51388e+06 4.52225e+06 0 6.51698e+06 4.50385e+06 0 6.52e+06 4.48546e+06 0 6.52294e+06 4.46709e+06 0 6.52579e+06 4.44874e+06 0 6.52857e+06 4.43041e+06 0 6.53127e+06 4.4121e+06 0 6.53389e+06 4.39381e+06 0 6.53643e+06 4.37554e+06 0 6.53889e+06 4.35729e+06 0 6.54128e+06 4.33906e+06 0 6.54358e+06 4.32085e+06 0 6.54581e+06 4.30267e+06 0 6.54797e+06 4.28451e+06 0 6.55004e+06 4.26638e+06 0 6.55204e+06 4.24827e+06 0 6.55396e+06 4.23018e+06 0 6.55581e+06 4.21213e+06 0 6.55758e+06 4.1941e+06 0 6.55928e+06 4.17609e+06 0 6.5609e+06 4.15812e+06 0 6.56245e+06 4.14017e+06 0 6.56393e+06 4.12225e+06 0 6.56533e+06 4.10436e+06 0 6.56666e+06 4.0865e+06 0 6.56791e+06 4.06867e+06 0 6.56909e+06 4.05088e+06 0 6.5702e+06 4.03311e+06 0 6.57124e+06 4.01538e+06 0 6.57221e+06 3.99768e+06 0 6.57311e+06 3.98001e+06 0 6.57393e+06 3.96238e+06 0 6.57469e+06 3.94478e+06 0 6.57538e+06 3.92721e+06 0 6.576e+06 3.90968e+06 0 6.57655e+06 3.89219e+06 0 6.57703e+06 3.87473e+06 0 6.57744e+06 3.85731e+06 0 6.57779e+06 3.83992e+06 0 6.57807e+06 3.82257e+06 0 6.57828e+06 3.80526e+06 0 6.57843e+06 3.78799e+06 0 6.57851e+06 3.77076e+06 0 6.57853e+06 3.75357e+06 0 6.57848e+06 3.73641e+06 0 5.81492e+06 6.01299e+06 0 5.82432e+06 5.99511e+06 0 5.83364e+06 5.97718e+06 0 5.84288e+06 5.95922e+06 0 5.85203e+06 5.94122e+06 0 5.86111e+06 5.92319e+06 0 5.8701e+06 5.90513e+06 0 5.879e+06 5.88703e+06 0 5.88783e+06 5.86889e+06 0 5.89657e+06 5.85073e+06 0 5.90522e+06 5.83253e+06 0 5.9138e+06 5.8143e+06 0 5.92228e+06 5.79605e+06 0 5.93069e+06 5.77776e+06 0 5.93901e+06 5.75945e+06 0 5.94724e+06 5.7411e+06 0 5.95538e+06 5.72273e+06 0 5.96345e+06 5.70433e+06 0 5.97142e+06 5.68591e+06 0 5.97931e+06 5.66746e+06 0 5.98711e+06 5.64899e+06 0 5.99482e+06 5.6305e+06 0 6.00245e+06 5.61198e+06 0 6.00999e+06 5.59344e+06 0 6.01745e+06 5.57488e+06 0 6.02481e+06 5.55629e+06 0 6.03209e+06 5.53769e+06 0 6.03928e+06 5.51907e+06 0 6.04638e+06 5.50044e+06 0 6.05339e+06 5.48178e+06 0 6.06032e+06 5.46311e+06 0 6.06716e+06 5.44442e+06 0 6.0739e+06 5.42572e+06 0 6.08056e+06 5.407e+06 0 6.08713e+06 5.38827e+06 0 6.09362e+06 5.36953e+06 0 6.10001e+06 5.35077e+06 0 6.10631e+06 5.33201e+06 0 6.11253e+06 5.31323e+06 0 6.11865e+06 5.29445e+06 0 6.12469e+06 5.27566e+06 0 6.13064e+06 5.25686e+06 0 6.1365e+06 5.23805e+06 0 6.14227e+06 5.21923e+06 0 6.14795e+06 5.20041e+06 0 6.15354e+06 5.18159e+06 0 6.15904e+06 5.16276e+06 0 6.16445e+06 5.14393e+06 0 6.16977e+06 5.1251e+06 0 6.17501e+06 5.10627e+06 0 6.18015e+06 5.08743e+06 0 6.18521e+06 5.0686e+06 0 6.19018e+06 5.04977e+06 0 6.19506e+06 5.03093e+06 0 6.19985e+06 5.01211e+06 0 6.20455e+06 4.99328e+06 0 6.20917e+06 4.97446e+06 0 6.21369e+06 4.95565e+06 0 6.21813e+06 4.93684e+06 0 6.22248e+06 4.91803e+06 0 6.22674e+06 4.89924e+06 0 6.23092e+06 4.88045e+06 0 6.235e+06 4.86167e+06 0 6.239e+06 4.8429e+06 0 6.24292e+06 4.82414e+06 0 6.24674e+06 4.8054e+06 0 6.25048e+06 4.78666e+06 0 6.25413e+06 4.76794e+06 0 6.2577e+06 4.74923e+06 0 6.26118e+06 4.73053e+06 0 6.26458e+06 4.71186e+06 0 6.26789e+06 4.69319e+06 0 6.27111e+06 4.67454e+06 0 6.27425e+06 4.65591e+06 0 6.27731e+06 4.6373e+06 0 6.28028e+06 4.61871e+06 0 6.28317e+06 4.60013e+06 0 6.28597e+06 4.58158e+06 0 6.28869e+06 4.56305e+06 0 6.29133e+06 4.54454e+06 0 6.29389e+06 4.52605e+06 0 6.29636e+06 4.50758e+06 0 6.29875e+06 4.48914e+06 0 6.30106e+06 4.47072e+06 0 6.30329e+06 4.45232e+06 0 6.30543e+06 4.43396e+06 0 6.3075e+06 4.41561e+06 0 6.30949e+06 4.3973e+06 0 6.31139e+06 4.37901e+06 0 6.31322e+06 4.36075e+06 0 6.31497e+06 4.34252e+06 0 6.31664e+06 4.32432e+06 0 6.31823e+06 4.30615e+06 0 6.31974e+06 4.28801e+06 0 6.32118e+06 4.2699e+06 0 6.32254e+06 4.25182e+06 0 6.32382e+06 4.23378e+06 0 6.32503e+06 4.21577e+06 0 6.32616e+06 4.19779e+06 0 6.32722e+06 4.17985e+06 0 6.3282e+06 4.16194e+06 0 6.32911e+06 4.14406e+06 0 6.32994e+06 4.12623e+06 0 6.33071e+06 4.10843e+06 0 6.3314e+06 4.09066e+06 0 6.33201e+06 4.07294e+06 0 6.33256e+06 4.05525e+06 0 6.33303e+06 4.0376e+06 0 6.33343e+06 4.01999e+06 0 6.33376e+06 4.00242e+06 0 6.33403e+06 3.98489e+06 0 6.33422e+06 3.9674e+06 0 6.33435e+06 3.94995e+06 0 6.3344e+06 3.93254e+06 0 6.33439e+06 3.91517e+06 0 6.33431e+06 3.89785e+06 0 6.33417e+06 3.88057e+06 0 6.33396e+06 3.86333e+06 0 6.33368e+06 3.84614e+06 0 6.33334e+06 3.82899e+06 0 6.33293e+06 3.81188e+06 0 6.33246e+06 3.79482e+06 0 6.33193e+06 3.7778e+06 0 6.33133e+06 3.76083e+06 0 6.33067e+06 3.74391e+06 0 6.32995e+06 3.72703e+06 0 6.32917e+06 3.7102e+06 0 6.32832e+06 3.69342e+06 0 5.66661e+06 5.98398e+06 0 5.67558e+06 5.96561e+06 0 5.68447e+06 5.94721e+06 0 5.69326e+06 5.92877e+06 0 5.70197e+06 5.9103e+06 0 5.71059e+06 5.89179e+06 0 5.71913e+06 5.87326e+06 0 5.72757e+06 5.85469e+06 0 5.73592e+06 5.83609e+06 0 5.74418e+06 5.81747e+06 0 5.75235e+06 5.79881e+06 0 5.76043e+06 5.78013e+06 0 5.76841e+06 5.76142e+06 0 5.77631e+06 5.74269e+06 0 5.78412e+06 5.72393e+06 0 5.79183e+06 5.70514e+06 0 5.79945e+06 5.68633e+06 0 5.80698e+06 5.6675e+06 0 5.81441e+06 5.64865e+06 0 5.82176e+06 5.62978e+06 0 5.82901e+06 5.61088e+06 0 5.83617e+06 5.59197e+06 0 5.84323e+06 5.57304e+06 0 5.8502e+06 5.55409e+06 0 5.85708e+06 5.53513e+06 0 5.86386e+06 5.51614e+06 0 5.87056e+06 5.49715e+06 0 5.87715e+06 5.47814e+06 0 5.88366e+06 5.45912e+06 0 5.89007e+06 5.44008e+06 0 5.89638e+06 5.42103e+06 0 5.9026e+06 5.40198e+06 0 5.90873e+06 5.38291e+06 0 5.91477e+06 5.36383e+06 0 5.9207e+06 5.34475e+06 0 5.92655e+06 5.32566e+06 0 5.9323e+06 5.30656e+06 0 5.93796e+06 5.28746e+06 0 5.94352e+06 5.26835e+06 0 5.94899e+06 5.24924e+06 0 5.95437e+06 5.23013e+06 0 5.95965e+06 5.21102e+06 0 5.96484e+06 5.1919e+06 0 5.96993e+06 5.17279e+06 0 5.97493e+06 5.15368e+06 0 5.97984e+06 5.13456e+06 0 5.98465e+06 5.11545e+06 0 5.98938e+06 5.09635e+06 0 5.994e+06 5.07725e+06 0 5.99854e+06 5.05815e+06 0 6.00298e+06 5.03906e+06 0 6.00733e+06 5.01998e+06 0 6.01159e+06 5.0009e+06 0 6.01575e+06 4.98184e+06 0 6.01982e+06 4.96278e+06 0 6.0238e+06 4.94373e+06 0 6.02769e+06 4.9247e+06 0 6.03149e+06 4.90568e+06 0 6.0352e+06 4.88667e+06 0 6.03881e+06 4.86767e+06 0 6.04234e+06 4.84869e+06 0 6.04578e+06 4.82972e+06 0 6.04912e+06 4.81077e+06 0 6.05238e+06 4.79184e+06 0 6.05554e+06 4.77292e+06 0 6.05862e+06 4.75403e+06 0 6.06161e+06 4.73515e+06 0 6.06451e+06 4.71629e+06 0 6.06732e+06 4.69746e+06 0 6.07004e+06 4.67864e+06 0 6.07268e+06 4.65985e+06 0 6.07523e+06 4.64108e+06 0 6.07769e+06 4.62234e+06 0 6.08007e+06 4.60362e+06 0 6.08236e+06 4.58493e+06 0 6.08456e+06 4.56626e+06 0 6.08668e+06 4.54762e+06 0 6.08872e+06 4.52901e+06 0 6.09067e+06 4.51043e+06 0 6.09254e+06 4.49187e+06 0 6.09432e+06 4.47335e+06 0 6.09602e+06 4.45485e+06 0 6.09764e+06 4.43639e+06 0 6.09918e+06 4.41796e+06 0 6.10063e+06 4.39956e+06 0 6.10201e+06 4.3812e+06 0 6.1033e+06 4.36287e+06 0 6.10451e+06 4.34457e+06 0 6.10565e+06 4.32631e+06 0 6.1067e+06 4.30809e+06 0 6.10768e+06 4.2899e+06 0 6.10858e+06 4.27175e+06 0 6.1094e+06 4.25363e+06 0 6.11014e+06 4.23556e+06 0 6.11081e+06 4.21752e+06 0 6.1114e+06 4.19953e+06 0 6.11191e+06 4.18157e+06 0 6.11236e+06 4.16366e+06 0 6.11272e+06 4.14578e+06 0 6.11301e+06 4.12795e+06 0 6.11323e+06 4.11016e+06 0 6.11338e+06 4.09241e+06 0 6.11346e+06 4.07471e+06 0 6.11346e+06 4.05705e+06 0 6.11339e+06 4.03943e+06 0 6.11325e+06 4.02186e+06 0 6.11305e+06 4.00434e+06 0 6.11277e+06 3.98686e+06 0 6.11242e+06 3.96943e+06 0 6.11201e+06 3.95204e+06 0 6.11153e+06 3.9347e+06 0 6.11098e+06 3.91741e+06 0 6.11037e+06 3.90017e+06 0 6.10969e+06 3.88297e+06 0 6.10894e+06 3.86583e+06 0 6.10813e+06 3.84873e+06 0 6.10726e+06 3.83168e+06 0 6.10632e+06 3.81469e+06 0 6.10533e+06 3.79774e+06 0 6.10426e+06 3.78085e+06 0 6.10314e+06 3.764e+06 0 6.10196e+06 3.74721e+06 0 6.10071e+06 3.73047e+06 0 6.09941e+06 3.71378e+06 0 6.09805e+06 3.69715e+06 0 6.09663e+06 3.68056e+06 0 6.09515e+06 3.66403e+06 0 6.09361e+06 3.64756e+06 0 5.523e+06 5.95287e+06 0 5.53159e+06 5.93404e+06 0 5.54009e+06 5.91519e+06 0 5.54849e+06 5.8963e+06 0 5.5568e+06 5.87738e+06 0 5.56501e+06 5.85843e+06 0 5.57313e+06 5.83945e+06 0 5.58115e+06 5.82044e+06 0 5.58908e+06 5.80141e+06 0 5.5969e+06 5.78235e+06 0 5.60464e+06 5.76326e+06 0 5.61227e+06 5.74415e+06 0 5.61981e+06 5.72501e+06 0 5.62724e+06 5.70586e+06 0 5.63459e+06 5.68668e+06 0 5.64183e+06 5.66748e+06 0 5.64898e+06 5.64826e+06 0 5.65602e+06 5.62902e+06 0 5.66297e+06 5.60976e+06 0 5.66982e+06 5.59049e+06 0 5.67658e+06 5.5712e+06 0 5.68323e+06 5.55189e+06 0 5.68979e+06 5.53257e+06 0 5.69624e+06 5.51324e+06 0 5.7026e+06 5.49389e+06 0 5.70886e+06 5.47453e+06 0 5.71502e+06 5.45516e+06 0 5.72108e+06 5.43579e+06 0 5.72704e+06 5.4164e+06 0 5.73291e+06 5.39701e+06 0 5.73867e+06 5.37761e+06 0 5.74434e+06 5.3582e+06 0 5.7499e+06 5.33879e+06 0 5.75537e+06 5.31938e+06 0 5.76074e+06 5.29996e+06 0 5.76601e+06 5.28054e+06 0 5.77118e+06 5.26112e+06 0 5.77625e+06 5.2417e+06 0 5.78123e+06 5.22228e+06 0 5.78611e+06 5.20287e+06 0 5.79088e+06 5.18345e+06 0 5.79556e+06 5.16405e+06 0 5.80015e+06 5.14464e+06 0 5.80463e+06 5.12524e+06 0 5.80902e+06 5.10585e+06 0 5.81331e+06 5.08647e+06 0 5.8175e+06 5.06709e+06 0 5.8216e+06 5.04772e+06 0 5.8256e+06 5.02837e+06 0 5.8295e+06 5.00902e+06 0 5.83331e+06 4.98969e+06 0 5.83702e+06 4.97037e+06 0 5.84064e+06 4.95107e+06 0 5.84416e+06 4.93178e+06 0 5.84758e+06 4.91251e+06 0 5.85091e+06 4.89325e+06 0 5.85415e+06 4.87401e+06 0 5.85729e+06 4.85479e+06 0 5.86034e+06 4.83559e+06 0 5.8633e+06 4.81641e+06 0 5.86616e+06 4.79725e+06 0 5.86893e+06 4.77811e+06 0 5.87161e+06 4.759e+06 0 5.8742e+06 4.73991e+06 0 5.87669e+06 4.72084e+06 0 5.8791e+06 4.7018e+06 0 5.88141e+06 4.68278e+06 0 5.88363e+06 4.6638e+06 0 5.88577e+06 4.64484e+06 0 5.88781e+06 4.62591e+06 0 5.88977e+06 4.60701e+06 0 5.89164e+06 4.58813e+06 0 5.89342e+06 4.56929e+06 0 5.89511e+06 4.55049e+06 0 5.89672e+06 4.53171e+06 0 5.89824e+06 4.51297e+06 0 5.89967e+06 4.49426e+06 0 5.90102e+06 4.47558e+06 0 5.90228e+06 4.45695e+06 0 5.90346e+06 4.43834e+06 0 5.90456e+06 4.41978e+06 0 5.90557e+06 4.40125e+06 0 5.9065e+06 4.38276e+06 0 5.90735e+06 4.36431e+06 0 5.90812e+06 4.3459e+06 0 5.90881e+06 4.32753e+06 0 5.90941e+06 4.3092e+06 0 5.90994e+06 4.29091e+06 0 5.91038e+06 4.27266e+06 0 5.91075e+06 4.25446e+06 0 5.91104e+06 4.2363e+06 0 5.91126e+06 4.21819e+06 0 5.91139e+06 4.20011e+06 0 5.91146e+06 4.18209e+06 0 5.91144e+06 4.16411e+06 0 5.91135e+06 4.14617e+06 0 5.91119e+06 4.12828e+06 0 5.91095e+06 4.11044e+06 0 5.91064e+06 4.09265e+06 0 5.91026e+06 4.07491e+06 0 5.9098e+06 4.05721e+06 0 5.90928e+06 4.03957e+06 0 5.90868e+06 4.02197e+06 0 5.90802e+06 4.00443e+06 0 5.90728e+06 3.98693e+06 0 5.90648e+06 3.96949e+06 0 5.90561e+06 3.9521e+06 0 5.90467e+06 3.93476e+06 0 5.90367e+06 3.91747e+06 0 5.9026e+06 3.90024e+06 0 5.90146e+06 3.88306e+06 0 5.90026e+06 3.86593e+06 0 5.899e+06 3.84886e+06 0 5.89767e+06 3.83184e+06 0 5.89628e+06 3.81488e+06 0 5.89483e+06 3.79797e+06 0 5.89332e+06 3.78112e+06 0 5.89175e+06 3.76432e+06 0 5.89012e+06 3.74758e+06 0 5.88843e+06 3.7309e+06 0 5.88668e+06 3.71427e+06 0 5.88487e+06 3.6977e+06 0 5.883e+06 3.68119e+06 0 5.88108e+06 3.66473e+06 0 5.87911e+06 3.64834e+06 0 5.87708e+06 3.632e+06 0 5.87499e+06 3.61572e+06 0 5.87285e+06 3.5995e+06 0 5.3839e+06 5.91991e+06 0 5.39215e+06 5.90065e+06 0 5.4003e+06 5.88137e+06 0 5.40835e+06 5.86206e+06 0 5.4163e+06 5.84272e+06 0 5.42414e+06 5.82335e+06 0 5.43189e+06 5.80395e+06 0 5.43953e+06 5.78453e+06 0 5.44707e+06 5.76509e+06 0 5.45451e+06 5.74562e+06 0 5.46184e+06 5.72612e+06 0 5.46908e+06 5.70661e+06 0 5.4762e+06 5.68707e+06 0 5.48323e+06 5.66752e+06 0 5.49015e+06 5.64795e+06 0 5.49697e+06 5.62835e+06 0 5.50369e+06 5.60875e+06 0 5.5103e+06 5.58912e+06 0 5.51681e+06 5.56948e+06 0 5.52322e+06 5.54983e+06 0 5.52952e+06 5.53017e+06 0 5.53572e+06 5.51049e+06 0 5.54181e+06 5.49081e+06 0 5.5478e+06 5.47111e+06 0 5.55369e+06 5.45141e+06 0 5.55947e+06 5.4317e+06 0 5.56515e+06 5.41198e+06 0 5.57073e+06 5.39225e+06 0 5.5762e+06 5.37253e+06 0 5.58157e+06 5.3528e+06 0 5.58683e+06 5.33307e+06 0 5.592e+06 5.31333e+06 0 5.59705e+06 5.2936e+06 0 5.60201e+06 5.27387e+06 0 5.60686e+06 5.25414e+06 0 5.61161e+06 5.23441e+06 0 5.61626e+06 5.21469e+06 0 5.6208e+06 5.19497e+06 0 5.62524e+06 5.17526e+06 0 5.62958e+06 5.15555e+06 0 5.63382e+06 5.13585e+06 0 5.63796e+06 5.11617e+06 0 5.64199e+06 5.09649e+06 0 5.64593e+06 5.07682e+06 0 5.64976e+06 5.05717e+06 0 5.65349e+06 5.03753e+06 0 5.65712e+06 5.0179e+06 0 5.66065e+06 4.99829e+06 0 5.66409e+06 4.9787e+06 0 5.66742e+06 4.95912e+06 0 5.67065e+06 4.93956e+06 0 5.67379e+06 4.92002e+06 0 5.67683e+06 4.9005e+06 0 5.67977e+06 4.881e+06 0 5.68261e+06 4.86152e+06 0 5.68535e+06 4.84206e+06 0 5.688e+06 4.82263e+06 0 5.69055e+06 4.80322e+06 0 5.69301e+06 4.78384e+06 0 5.69537e+06 4.76448e+06 0 5.69764e+06 4.74516e+06 0 5.69981e+06 4.72586e+06 0 5.70189e+06 4.70659e+06 0 5.70387e+06 4.68734e+06 0 5.70577e+06 4.66813e+06 0 5.70757e+06 4.64896e+06 0 5.70927e+06 4.62981e+06 0 5.71089e+06 4.6107e+06 0 5.71242e+06 4.59162e+06 0 5.71385e+06 4.57257e+06 0 5.7152e+06 4.55356e+06 0 5.71645e+06 4.53459e+06 0 5.71762e+06 4.51566e+06 0 5.7187e+06 4.49676e+06 0 5.71969e+06 4.4779e+06 0 5.7206e+06 4.45909e+06 0 5.72142e+06 4.44031e+06 0 5.72216e+06 4.42157e+06 0 5.7228e+06 4.40288e+06 0 5.72337e+06 4.38422e+06 0 5.72385e+06 4.36561e+06 0 5.72425e+06 4.34705e+06 0 5.72457e+06 4.32853e+06 0 5.7248e+06 4.31005e+06 0 5.72495e+06 4.29162e+06 0 5.72503e+06 4.27323e+06 0 5.72502e+06 4.2549e+06 0 5.72493e+06 4.23661e+06 0 5.72477e+06 4.21837e+06 0 5.72453e+06 4.20017e+06 0 5.72421e+06 4.18203e+06 0 5.72381e+06 4.16394e+06 0 5.72334e+06 4.1459e+06 0 5.7228e+06 4.1279e+06 0 5.72218e+06 4.10997e+06 0 5.72148e+06 4.09208e+06 0 5.72071e+06 4.07424e+06 0 5.71988e+06 4.05646e+06 0 5.71897e+06 4.03873e+06 0 5.71798e+06 4.02106e+06 0 5.71693e+06 4.00344e+06 0 5.71581e+06 3.98588e+06 0 5.71462e+06 3.96837e+06 0 5.71337e+06 3.95092e+06 0 5.71204e+06 3.93352e+06 0 5.71065e+06 3.91618e+06 0 5.7092e+06 3.8989e+06 0 5.70767e+06 3.88168e+06 0 5.70609e+06 3.86451e+06 0 5.70444e+06 3.8474e+06 0 5.70273e+06 3.83035e+06 0 5.70096e+06 3.81336e+06 0 5.69912e+06 3.79643e+06 0 5.69723e+06 3.77956e+06 0 5.69527e+06 3.76275e+06 0 5.69326e+06 3.746e+06 0 5.69118e+06 3.72931e+06 0 5.68905e+06 3.71268e+06 0 5.68686e+06 3.69611e+06 0 5.68462e+06 3.67961e+06 0 5.68232e+06 3.66316e+06 0 5.67997e+06 3.64678e+06 0 5.67756e+06 3.63046e+06 0 5.6751e+06 3.6142e+06 0 5.67258e+06 3.59801e+06 0 5.67002e+06 3.58187e+06 0 5.6674e+06 3.5658e+06 0 5.66473e+06 3.5498e+06 0 5.24913e+06 5.88533e+06 0 5.25707e+06 5.86567e+06 0 5.26491e+06 5.84599e+06 0 5.27264