<?xml version="1.0"?> 
<VTKFile type="StructuredGrid" version="0.1"> 
<StructuredGrid WholeExtent="0 127 0 127 0 0"> 
<Piece Extent="0 127 0 127 0 0"> 
<PointData>
<DataArray type="Float32" Name="E" format="ascii" NumberOfComponents="3"> 
-1.696e+06 2.55354e+06 0 -1.69256e+06 2.5579e+06 0 -1.68892e+06 2.56255e+06 0 -1.68509e+06 2.5675e+06 0 -1.68107e+06 2.57273e+06 0 -1.67683e+06 2.57822e+06 0 -1.67238e+06 2.58399e+06 0 -1.6677e+06 2.59e+06 0 -1.66278e+06 2.59625e+06 0 -1.65762e+06 2.60274e+06 0 -1.65221e+06 2.60945e+06 0 -1.64653e+06 2.61636e+06 0 -1.64059e+06 2.62347e+06 0 -1.63437e+06 2.63077e+06 0 -1.62787e+06 2.63824e+06 0 -1.62108e+06 2.64586e+06 0 -1.614e+06 2.65363e+06 0 -1.60662e+06 2.66154e+06 0 -1.59894e+06 2.66957e+06 0 -1.59095e+06 2.6777e+06 0 -1.58265e+06 2.68592e+06 0 -1.57404e+06 2.69422e+06 0 -1.56511e+06 2.70259e+06 0 -1.55586e+06 2.71101e+06 0 -1.54629e+06 2.71946e+06 0 -1.53641e+06 2.72794e+06 0 -1.52621e+06 2.73643e+06 0 -1.51569e+06 2.74491e+06 0 -1.50486e+06 2.75337e+06 0 -1.49371e+06 2.76181e+06 0 -1.48225e+06 2.7702e+06 0 -1.47048e+06 2.77853e+06 0 -1.45841e+06 2.78679e+06 0 -1.44604e+06 2.79498e+06 0 -1.43337e+06 2.80307e+06 0 -1.42041e+06 2.81105e+06 0 -1.40717e+06 2.81892e+06 0 -1.39365e+06 2.82667e+06 0 -1.37986e+06 2.83428e+06 0 -1.36581e+06 2.84174e+06 0 -1.3515e+06 2.84905e+06 0 -1.33694e+06 2.8562e+06 0 -1.32215e+06 2.86317e+06 0 -1.30712e+06 2.86997e+06 0 -1.29186e+06 2.87657e+06 0 -1.27639e+06 2.88299e+06 0 -1.26072e+06 2.8892e+06 0 -1.24485e+06 2.89521e+06 0 -1.22879e+06 2.90101e+06 0 -1.21256e+06 2.9066e+06 0 -1.19615e+06 2.91196e+06 0 -1.17959e+06 2.91711e+06 0 -1.16288e+06 2.92202e+06 0 -1.14603e+06 2.92671e+06 0 -1.12905e+06 2.93117e+06 0 -1.11195e+06 2.9354e+06 0 -1.09474e+06 2.93939e+06 0 -1.07743e+06 2.94314e+06 0 -1.06003e+06 2.94666e+06 0 -1.04254e+06 2.94995e+06 0 -1.02498e+06 2.953e+06 0 -1.00736e+06 2.95581e+06 0 -989685 2.95839e+06 0 -971962 2.96074e+06 0 -954202 2.96286e+06 0 -936412 2.96475e+06 0 -918602 2.96641e+06 0 -900779 2.96785e+06 0 -882951 2.96907e+06 0 -865125 2.97007e+06 0 -847310 2.97086e+06 0 -829513 2.97143e+06 0 -811740 2.9718e+06 0 -793999 2.97196e+06 0 -776296 2.97192e+06 0 -758638 2.97169e+06 0 -741031 2.97127e+06 0 -723480 2.97066e+06 0 -705993 2.96987e+06 0 -688573 2.9689e+06 0 -671228 2.96775e+06 0 -653961 2.96644e+06 0 -636778 2.96497e+06 0 -619685 2.96334e+06 0 -602684 2.96156e+06 0 -585781 2.95963e+06 0 -568981 2.95756e+06 0 -552286 2.95536e+06 0 -535701 2.95302e+06 0 -519230 2.95056e+06 0 -502876 2.94797e+06 0 -486643 2.94528e+06 0 -470533 2.94247e+06 0 -454549 2.93956e+06 0 -438696 2.93655e+06 0 -422974 2.93344e+06 0 -407387 2.93025e+06 0 -391938 2.92698e+06 0 -376628 2.92363e+06 0 -361460 2.92021e+06 0 -346436 2.91672e+06 0 -331557 2.91318e+06 0 -316826 2.90957e+06 0 -302244 2.90592e+06 0 -287813 2.90222e+06 0 -273534 2.89848e+06 0 -259409 2.89471e+06 0 -245439 2.89091e+06 0 -231625 2.88708e+06 0 -217968 2.88324e+06 0 -204470 2.87938e+06 0 -191132 2.87551e+06 0 -177953 2.87164e+06 0 -164936 2.86777e+06 0 -152080 2.8639e+06 0 -139388 2.86005e+06 0 -126859 2.85621e+06 0 -114493 2.85239e+06 0 -102292 2.84859e+06 0 -90256.7 2.84482e+06 0 -78386.7 2.84109e+06 0 -66682.8 2.8374e+06 0 -55145.4 2.83375e+06 0 -43774.9 2.83015e+06 0 -32571.8 2.8266e+06 0 -21536.5 2.8231e+06 0 -10669.3 2.81967e+06 0 30.8648 2.8163e+06 0 -1.70722e+06 2.56287e+06 0 -1.70385e+06 2.56729e+06 0 -1.7003e+06 2.57202e+06 0 -1.69656e+06 2.57703e+06 0 -1.69262e+06 2.58233e+06 0 -1.68846e+06 2.58789e+06 0 -1.68409e+06 2.59373e+06 0 -1.67949e+06 2.59981e+06 0 -1.67465e+06 2.60614e+06 0 -1.66957e+06 2.6127e+06 0 -1.66423e+06 2.61947e+06 0 -1.65862e+06 2.62646e+06 0 -1.65275e+06 2.63365e+06 0 -1.64661e+06 2.64102e+06 0 -1.64017e+06 2.64856e+06 0 -1.63345e+06 2.65626e+06 0 -1.62644e+06 2.66411e+06 0 -1.61912e+06 2.67209e+06 0 -1.6115e+06 2.6802e+06 0 -1.60357e+06 2.6884e+06 0 -1.59533e+06 2.69671e+06 0 -1.58677e+06 2.70509e+06 0 -1.5779e+06 2.71353e+06 0 -1.5687e+06 2.72202e+06 0 -1.55919e+06 2.73056e+06 0 -1.54935e+06 2.73911e+06 0 -1.5392e+06 2.74768e+06 0 -1.52873e+06 2.75624e+06 0 -1.51794e+06 2.76478e+06 0 -1.50683e+06 2.77329e+06 0 -1.49541e+06 2.78176e+06 0 -1.48368e+06 2.79017e+06 0 -1.47165e+06 2.79851e+06 0 -1.45931e+06 2.80677e+06 0 -1.44667e+06 2.81494e+06 0 -1.43375e+06 2.823e+06 0 -1.42054e+06 2.83094e+06 0 -1.40705e+06 2.83876e+06 0 -1.39329e+06 2.84645e+06 0 -1.37926e+06 2.85399e+06 0 -1.36497e+06 2.86137e+06 0 -1.35043e+06 2.86858e+06 0 -1.33566e+06 2.87563e+06 0 -1.32064e+06 2.88249e+06 0 -1.3054e+06 2.88917e+06 0 -1.28995e+06 2.89566e+06 0 -1.27429e+06 2.90194e+06 0 -1.25843e+06 2.90802e+06 0 -1.24238e+06 2.91388e+06 0 -1.22615e+06 2.91953e+06 0 -1.20976e+06 2.92496e+06 0 -1.1932e+06 2.93017e+06 0 -1.17649e+06 2.93515e+06 0 -1.15965e+06 2.93989e+06 0 -1.14267e+06 2.94441e+06 0 -1.12557e+06 2.94869e+06 0 -1.10835e+06 2.95274e+06 0 -1.09104e+06 2.95655e+06 0 -1.07363e+06 2.96013e+06 0 -1.05614e+06 2.96346e+06 0 -1.03858e+06 2.96657e+06 0 -1.02095e+06 2.96943e+06 0 -1.00326e+06 2.97206e+06 0 -985528 2.97445e+06 0 -967756 2.97662e+06 0 -949953 2.97855e+06 0 -932128 2.98026e+06 0 -914290 2.98173e+06 0 -896445 2.98299e+06 0 -878602 2.98403e+06 0 -860769 2.98485e+06 0 -842952 2.98545e+06 0 -825158 2.98585e+06 0 -807396 2.98604e+06 0 -789670 2.98603e+06 0 -771989 2.98583e+06 0 -754357 2.98543e+06 0 -736782 2.98484e+06 0 -719268 2.98406e+06 0 -701822 2.98311e+06 0 -684449 2.98198e+06 0 -667154 2.98069e+06 0 -649943 2.97923e+06 0 -632819 2.97761e+06 0 -615788 2.97583e+06 0 -598855 2.97391e+06 0 -582023 2.97184e+06 0 -565296 2.96963e+06 0 -548679 2.96729e+06 0 -532174 2.96482e+06 0 -515787 2.96223e+06 0 -499519 2.95952e+06 0 -483375 2.9567e+06 0 -467356 2.95377e+06 0 -451467 2.95074e+06 0 -435710 2.94762e+06 0 -420087 2.94441e+06 0 -404602 2.94111e+06 0 -389255 2.93773e+06 0 -374050 2.93428e+06 0 -358989 2.93076e+06 0 -344073 2.92717e+06 0 -329304 2.92353e+06 0 -314684 2.91983e+06 0 -300215 2.91609e+06 0 -285898 2.9123e+06 0 -271735 2.90848e+06 0 -257726 2.90462e+06 0 -243874 2.90074e+06 0 -230179 2.89683e+06 0 -216642 2.89291e+06 0 -203265 2.88897e+06 0 -190047 2.88503e+06 0 -176991 2.88108e+06 0 -164097 2.87714e+06 0 -151366 2.87321e+06 0 -138798 2.86928e+06 0 -126394 2.86537e+06 0 -114154 2.86149e+06 0 -102080 2.85763e+06 0 -90171.1 2.8538e+06 0 -78428.4 2.85e+06 0 -66852.3 2.84625e+06 0 -55443.1 2.84254e+06 0 -44201.4 2.83887e+06 0 -33127.3 2.83526e+06 0 -22221.5 2.83171e+06 0 -11484.1 2.82822e+06 0 -1.71854e+06 2.57221e+06 0 -1.71526e+06 2.57671e+06 0 -1.7118e+06 2.5815e+06 0 -1.70814e+06 2.58658e+06 0 -1.70428e+06 2.59195e+06 0 -1.70021e+06 2.59759e+06 0 -1.69592e+06 2.60349e+06 0 -1.6914e+06 2.60965e+06 0 -1.68664e+06 2.61605e+06 0 -1.68163e+06 2.62268e+06 0 -1.67636e+06 2.62953e+06 0 -1.67084e+06 2.6366e+06 0 -1.66504e+06 2.64386e+06 0 -1.65896e+06 2.6513e+06 0 -1.6526e+06 2.65892e+06 0 -1.64594e+06 2.6667e+06 0 -1.63899e+06 2.67463e+06 0 -1.63174e+06 2.68269e+06 0 -1.62418e+06 2.69087e+06 0 -1.61631e+06 2.69916e+06 0 -1.60813e+06 2.70753e+06 0 -1.59963e+06 2.71599e+06 0 -1.59081e+06 2.72452e+06 0 -1.58167e+06 2.73309e+06 0 -1.57221e+06 2.7417e+06 0 -1.56242e+06 2.75034e+06 0 -1.55232e+06 2.75898e+06 0 -1.54189e+06 2.76762e+06 0 -1.53114e+06 2.77624e+06 0 -1.52008e+06 2.78483e+06 0 -1.5087e+06 2.79338e+06 0 -1.49701e+06 2.80187e+06 0 -1.48501e+06 2.81029e+06 0 -1.47271e+06 2.81862e+06 0 -1.46011e+06 2.82687e+06 0 -1.44722e+06 2.83501e+06 0 -1.43403e+06 2.84303e+06 0 -1.42057e+06 2.85093e+06 0 -1.40684e+06 2.85868e+06 0 -1.39283e+06 2.8663e+06 0 -1.37857e+06 2.87375e+06 0 -1.36405e+06 2.88104e+06 0 -1.34929e+06 2.88816e+06 0 -1.3343e+06 2.8951e+06 0 -1.31908e+06 2.90185e+06 0 -1.30364e+06 2.9084e+06 0 -1.28799e+06 2.91475e+06 0 -1.27214e+06 2.9209e+06 0 -1.2561e+06 2.92683e+06 0 -1.23988e+06 2.93255e+06 0 -1.22349e+06 2.93804e+06 0 -1.20694e+06 2.94331e+06 0 -1.19024e+06 2.94835e+06 0 -1.17339e+06 2.95316e+06 0 -1.15641e+06 2.95774e+06 0 -1.13931e+06 2.96208e+06 0 -1.1221e+06 2.96619e+06 0 -1.10478e+06 2.97005e+06 0 -1.08737e+06 2.97368e+06 0 -1.06987e+06 2.97707e+06 0 -1.0523e+06 2.98023e+06 0 -1.03466e+06 2.98314e+06 0 -1.01697e+06 2.98582e+06 0 -999222 2.98826e+06 0 -981437 2.99047e+06 0 -963621 2.99245e+06 0 -945782 2.9942e+06 0 -927927 2.99572e+06 0 -910066 2.99701e+06 0 -892205 2.99809e+06 0 -874352 2.99894e+06 0 -856515 2.99958e+06 0 -838701 3.00001e+06 0 -820916 3.00024e+06 0 -803168 3.00025e+06 0 -785462 3.00007e+06 0 -767806 2.9997e+06 0 -750204 2.99913e+06 0 -732664 2.99838e+06 0 -715191 2.99744e+06 0 -697790 2.99633e+06 0 -680466 2.99505e+06 0 -663225 2.9936e+06 0 -646071 2.99199e+06 0 -629009 2.99022e+06 0 -612044 2.9883e+06 0 -595179 2.98624e+06 0 -578420 2.98403e+06 0 -561769 2.98169e+06 0 -545231 2.97921e+06 0 -528809 2.97662e+06 0 -512506 2.9739e+06 0 -496326 2.97107e+06 0 -480272 2.96813e+06 0 -464346 2.96508e+06 0 -448552 2.96194e+06 0 -432892 2.9587e+06 0 -417369 2.95538e+06 0 -401985 2.95197e+06 0 -386741 2.94849e+06 0 -371641 2.94494e+06 0 -356687 2.94132e+06 0 -341879 2.93763e+06 0 -327220 2.9339e+06 0 -312711 2.93011e+06 0 -298355 2.92628e+06 0 -284152 2.9224e+06 0 -270103 2.91849e+06 0 -256211 2.91455e+06 0 -242476 2.91059e+06 0 -228899 2.9066e+06 0 -215481 2.9026e+06 0 -202224 2.89859e+06 0 -189127 2.89457e+06 0 -176192 2.89056e+06 0 -163420 2.88654e+06 0 -150812 2.88254e+06 0 -138367 2.87854e+06 0 -126087 2.87457e+06 0 -113972 2.87062e+06 0 -102022 2.86669e+06 0 -90238.8 2.8628e+06 0 -78621.9 2.85894e+06 0 -67172 2.85512e+06 0 -55889.4 2.85135e+06 0 -44774.6 2.84763e+06 0 -33827.8 2.84396e+06 0 -23049.2 2.84034e+06 0 -1.72998e+06 2.58158e+06 0 -1.72678e+06 2.58614e+06 0 -1.7234e+06 2.59101e+06 0 -1.71983e+06 2.59616e+06 0 -1.71606e+06 2.6016e+06 0 -1.71207e+06 2.60731e+06 0 -1.70786e+06 2.61329e+06 0 -1.70342e+06 2.61952e+06 0 -1.69874e+06 2.62599e+06 0 -1.69381e+06 2.6327e+06 0 -1.68862e+06 2.63963e+06 0 -1.68317e+06 2.64677e+06 0 -1.67744e+06 2.6541e+06 0 -1.67143e+06 2.66163e+06 0 -1.66514e+06 2.66932e+06 0 -1.65856e+06 2.67718e+06 0 -1.65167e+06 2.68519e+06 0 -1.64448e+06 2.69332e+06 0 -1.63699e+06 2.70158e+06 0 -1.62918e+06 2.70995e+06 0 -1.62106e+06 2.71841e+06 0 -1.61261e+06 2.72695e+06 0 -1.60385e+06 2.73555e+06 0 -1.59476e+06 2.74421e+06 0 -1.58535e+06 2.7529e+06 0 -1.57562e+06 2.76161e+06 0 -1.56556e+06 2.77034e+06 0 -1.55518e+06 2.77906e+06 0 -1.54448e+06 2.78776e+06 0 -1.53346e+06 2.79643e+06 0 -1.52212e+06 2.80506e+06 0 -1.51047e+06 2.81362e+06 0 -1.49851e+06 2.82212e+06 0 -1.48624e+06 2.83054e+06 0 -1.47367e+06 2.83886e+06 0 -1.46081e+06 2.84708e+06 0 -1.44766e+06 2.85518e+06 0 -1.43423e+06 2.86315e+06 0 -1.42052e+06 2.87099e+06 0 -1.40654e+06 2.87867e+06 0 -1.3923e+06 2.88621e+06 0 -1.3778e+06 2.89357e+06 0 -1.36306e+06 2.90076e+06 0 -1.34809e+06 2.90777e+06 0 -1.33288e+06 2.91459e+06 0 -1.31746e+06 2.92122e+06 0 -1.30182e+06 2.92764e+06 0 -1.28598e+06 2.93386e+06 0 -1.26996e+06 2.93986e+06 0 -1.25374e+06 2.94564e+06 0 -1.23736e+06 2.9512e+06 0 -1.22081e+06 2.95654e+06 0 -1.20411e+06 2.96164e+06 0 -1.18727e+06 2.96651e+06 0 -1.17029e+06 2.97115e+06 0 -1.15319e+06 2.97555e+06 0 -1.13598e+06 2.97972e+06 0 -1.11866e+06 2.98364e+06 0 -1.10124e+06 2.98733e+06 0 -1.08374e+06 2.99078e+06 0 -1.06616e+06 2.99398e+06 0 -1.04851e+06 2.99695e+06 0 -1.0308e+06 2.99968e+06 0 -1.01305e+06 3.00217e+06 0 -995248 3.00443e+06 0 -977418 3.00645e+06 0 -959564 3.00824e+06 0 -941693 3.0098e+06 0 -923815 3.01114e+06 0 -905935 3.01225e+06 0 -888063 3.01315e+06 0 -870206 3.01382e+06 0 -852370 3.01429e+06 0 -834562 3.01454e+06 0 -816791 3.01459e+06 0 -799060 3.01443e+06 0 -781379 3.01408e+06 0 -763751 3.01354e+06 0 -746184 3.01281e+06 0 -728682 3.0119e+06 0 -711252 3.0108e+06 0 -693899 3.00953e+06 0 -676628 3.0081e+06 0 -659443 3.0065e+06 0 -642349 3.00474e+06 0 -625351 3.00283e+06 0 -608454 3.00076e+06 0 -591660 2.99856e+06 0 -574975 2.99622e+06 0 -558402 2.99374e+06 0 -541944 2.99114e+06 0 -525606 2.98841e+06 0 -509389 2.98557e+06 0 -493298 2.98262e+06 0 -477335 2.97956e+06 0 -461503 2.9764e+06 0 -445805 2.97314e+06 0 -430243 2.96979e+06 0 -414819 2.96636e+06 0 -399537 2.96285e+06 0 -384397 2.95927e+06 0 -369402 2.95561e+06 0 -354554 2.95189e+06 0 -339854 2.94812e+06 0 -325305 2.94429e+06 0 -310908 2.94041e+06 0 -296663 2.93649e+06 0 -282574 2.93253e+06 0 -268640 2.92853e+06 0 -254863 2.92451e+06 0 -241244 2.92047e+06 0 -227784 2.9164e+06 0 -214485 2.91233e+06 0 -201346 2.90824e+06 0 -188369 2.90415e+06 0 -175555 2.90006e+06 0 -162903 2.89597e+06 0 -150416 2.8919e+06 0 -138094 2.88784e+06 0 -125936 2.8838e+06 0 -113944 2.87978e+06 0 -102118 2.87579e+06 0 -90457.9 2.87183e+06 0 -78965.2 2.86791e+06 0 -67639.7 2.86403e+06 0 -56481.9 2.86019e+06 0 -45492.2 2.85641e+06 0 -34670.6 2.85267e+06 0 -1.74152e+06 2.59097e+06 0 -1.73842e+06 2.5956e+06 0 -1.73513e+06 2.60054e+06 0 -1.73164e+06 2.60576e+06 0 -1.72795e+06 2.61127e+06 0 -1.72405e+06 2.61706e+06 0 -1.71992e+06 2.62311e+06 0 -1.71556e+06 2.62941e+06 0 -1.71096e+06 2.63596e+06 0 -1.70611e+06 2.64275e+06 0 -1.701e+06 2.64975e+06 0 -1.69562e+06 2.65697e+06 0 -1.68997e+06 2.66438e+06 0 -1.68403e+06 2.67198e+06 0 -1.67781e+06 2.67976e+06 0 -1.67129e+06 2.6877e+06 0 -1.66448e+06 2.69578e+06 0 -1.65735e+06 2.704e+06 0 -1.64992e+06 2.71234e+06 0 -1.64217e+06 2.72079e+06 0 -1.63411e+06 2.72933e+06 0 -1.62572e+06 2.73795e+06 0 -1.61702e+06 2.74663e+06 0 -1.60798e+06 2.75537e+06 0 -1.59863e+06 2.76414e+06 0 -1.58894e+06 2.77294e+06 0 -1.57893e+06 2.78175e+06 0 -1.5686e+06 2.79055e+06 0 -1.55794e+06 2.79933e+06 0 -1.54697e+06 2.80808e+06 0 -1.53567e+06 2.81679e+06 0 -1.52406e+06 2.82544e+06 0 -1.51213e+06 2.83402e+06 0 -1.4999e+06 2.84252e+06 0 -1.48737e+06 2.85092e+06 0 -1.47454e+06 2.85922e+06 0 -1.46142e+06 2.86739e+06 0 -1.44801e+06 2.87545e+06 0 -1.43433e+06 2.88336e+06 0 -1.42038e+06 2.89112e+06 0 -1.40616e+06 2.89873e+06 0 -1.39169e+06 2.90617e+06 0 -1.37697e+06 2.91344e+06 0 -1.36201e+06 2.92052e+06 0 -1.34682e+06 2.92742e+06 0 -1.33141e+06 2.93411e+06 0 -1.31579e+06 2.94061e+06 0 -1.29996e+06 2.94689e+06 0 -1.28394e+06 2.95296e+06 0 -1.26774e+06 2.95882e+06 0 -1.25136e+06 2.96444e+06 0 -1.23482e+06 2.96985e+06 0 -1.21813e+06 2.97502e+06 0 -1.20128e+06 2.97995e+06 0 -1.18431e+06 2.98465e+06 0 -1.1672e+06 2.98912e+06 0 -1.14999e+06 2.99334e+06 0 -1.13266e+06 2.99733e+06 0 -1.11524e+06 3.00107e+06 0 -1.09773e+06 3.00457e+06 0 -1.08014e+06 3.00783e+06 0 -1.06249e+06 3.01085e+06 0 -1.04477e+06 3.01363e+06 0 -1.027e+06 3.01618e+06 0 -1.00919e+06 3.01848e+06 0 -991347 3.02055e+06 0 -973478 3.02239e+06 0 -955590 3.02399e+06 0 -937694 3.02537e+06 0 -919796 3.02653e+06 0 -901904 3.02746e+06 0 -884026 3.02817e+06 0 -866168 3.02867e+06 0 -848337 3.02896e+06 0 -830542 3.02903e+06 0 -812787 3.02891e+06 0 -795079 3.02859e+06 0 -777424 3.02807e+06 0 -759829 3.02736e+06 0 -742299 3.02647e+06 0 -724840 3.02539e+06 0 -707456 3.02414e+06 0 -690154 3.02272e+06 0 -672937 3.02113e+06 0 -655811 3.01938e+06 0 -638780 3.01748e+06 0 -621848 3.01542e+06 0 -605021 3.01322e+06 0 -588300 3.01088e+06 0 -571691 3.0084e+06 0 -555197 3.0058e+06 0 -538821 3.00307e+06 0 -522567 3.00021e+06 0 -506438 2.99725e+06 0 -490436 2.99418e+06 0 -474565 2.991e+06 0 -458828 2.98773e+06 0 -443226 2.98436e+06 0 -427762 2.9809e+06 0 -412439 2.97736e+06 0 -397258 2.97375e+06 0 -382222 2.97006e+06 0 -367332 2.96631e+06 0 -352591 2.9625e+06 0 -337999 2.95863e+06 0 -323559 2.9547e+06 0 -309273 2.95074e+06 0 -295140 2.94673e+06 0 -281163 2.94268e+06 0 -267343 2.9386e+06 0 -253680 2.9345e+06 0 -240177 2.93038e+06 0 -226834 2.92623e+06 0 -213651 2.92208e+06 0 -200630 2.91792e+06 0 -187772 2.91375e+06 0 -175077 2.90959e+06 0 -162545 2.90544e+06 0 -150178 2.90129e+06 0 -137976 2.89716e+06 0 -125939 2.89305e+06 0 -114068 2.88897e+06 0 -102364 2.88491e+06 0 -90826.4 2.88089e+06 0 -79456 2.87691e+06 0 -68253.2 2.87296e+06 0 -57218.3 2.86906e+06 0 -46351.5 2.86522e+06 0 -1.75318e+06 2.60037e+06 0 -1.75017e+06 2.60508e+06 0 -1.74697e+06 2.61009e+06 0 -1.74357e+06 2.61539e+06 0 -1.73997e+06 2.62097e+06 0 -1.73615e+06 2.62683e+06 0 -1.7321e+06 2.63296e+06 0 -1.72783e+06 2.63934e+06 0 -1.7233e+06 2.64596e+06 0 -1.71853e+06 2.65282e+06 0 -1.7135e+06 2.65991e+06 0 -1.7082e+06 2.6672e+06 0 -1.70262e+06 2.6747e+06 0 -1.69676e+06 2.68238e+06 0 -1.6906e+06 2.69023e+06 0 -1.68416e+06 2.69825e+06 0 -1.67741e+06 2.70642e+06 0 -1.67035e+06 2.71472e+06 0 -1.66298e+06 2.72314e+06 0 -1.6553e+06 2.73167e+06 0 -1.64729e+06 2.74029e+06 0 -1.63897e+06 2.749e+06 0 -1.63031e+06 2.75776e+06 0 -1.62134e+06 2.76658e+06 0 -1.61203e+06 2.77544e+06 0 -1.6024e+06 2.78432e+06 0 -1.59244e+06 2.79321e+06 0 -1.58215e+06 2.80209e+06 0 -1.57154e+06 2.81096e+06 0 -1.56061e+06 2.81979e+06 0 -1.54935e+06 2.82858e+06 0 -1.53778e+06 2.83732e+06 0 -1.52589e+06 2.84598e+06 0 -1.5137e+06 2.85456e+06 0 -1.5012e+06 2.86304e+06 0 -1.4884e+06 2.87142e+06 0 -1.47531e+06 2.87968e+06 0 -1.46194e+06 2.88781e+06 0 -1.44828e+06 2.8958e+06 0 -1.43435e+06 2.90364e+06 0 -1.42016e+06 2.91133e+06 0 -1.40571e+06 2.91885e+06 0 -1.39101e+06 2.92619e+06 0 -1.37607e+06 2.93335e+06 0 -1.36089e+06 2.94032e+06 0 -1.3455e+06 2.94709e+06 0 -1.32989e+06 2.95365e+06 0 -1.31407e+06 2.96001e+06 0 -1.29807e+06 2.96615e+06 0 -1.28187e+06 2.97207e+06 0 -1.2655e+06 2.97777e+06 0 -1.24896e+06 2.98324e+06 0 -1.23227e+06 2.98848e+06 0 -1.21543e+06 2.99348e+06 0 -1.19846e+06 2.99825e+06 0 -1.18135e+06 3.00277e+06 0 -1.16413e+06 3.00706e+06 0 -1.1468e+06 3.0111e+06 0 -1.12938e+06 3.0149e+06 0 -1.11186e+06 3.01846e+06 0 -1.09427e+06 3.02178e+06 0 -1.0766e+06 3.02486e+06 0 -1.05887e+06 3.02769e+06 0 -1.04109e+06 3.03028e+06 0 -1.02327e+06 3.03264e+06 0 -1.00541e+06 3.03476e+06 0 -987525 3.03664e+06 0 -969621 3.03829e+06 0 -951707 3.03971e+06 0 -933790 3.04091e+06 0 -915877 3.04188e+06 0 -897978 3.04263e+06 0 -880097 3.04316e+06 0 -862244 3.04348e+06 0 -844423 3.0436e+06 0 -826643 3.0435e+06 0 -808908 3.04321e+06 0 -791227 3.04272e+06 0 -773603 3.04203e+06 0 -756044 3.04116e+06 0 -738555 3.04011e+06 0 -721140 3.03888e+06 0 -703806 3.03747e+06 0 -686557 3.0359e+06 0 -669397 3.03416e+06 0 -652332 3.03226e+06 0 -635366 3.03022e+06 0 -618503 3.02802e+06 0 -601746 3.02568e+06 0 -585100 3.0232e+06 0 -568569 3.02059e+06 0 -552155 3.01786e+06 0 -535863 3.015e+06 0 -519694 3.01203e+06 0 -503653 3.00894e+06 0 -487742 3.00575e+06 0 -471964 3.00246e+06 0 -456321 2.99907e+06 0 -440816 2.99559e+06 0 -425451 2.99203e+06 0 -410228 2.98839e+06 0 -395149 2.98467e+06 0 -380217 2.98089e+06 0 -365432 2.97704e+06 0 -350797 2.97313e+06 0 -336313 2.96916e+06 0 -321982 2.96515e+06 0 -307805 2.96109e+06 0 -293784 2.957e+06 0 -279919 2.95287e+06 0 -266212 2.94871e+06 0 -252663 2.94452e+06 0 -239275 2.94032e+06 0 -226047 2.9361e+06 0 -212980 2.93187e+06 0 -200076 2.92763e+06 0 -187334 2.9234e+06 0 -174757 2.91916e+06 0 -162344 2.91494e+06 0 -150095 2.91072e+06 0 -138012 2.90653e+06 0 -126095 2.90235e+06 0 -114344 2.8982e+06 0 -102759 2.89408e+06 0 -91342.1 2.88999e+06 0 -80092.3 2.88594e+06 0 -69010.3 2.88193e+06 0 -58096.2 2.87797e+06 0 -1.76496e+06 2.6098e+06 0 -1.76204e+06 2.61458e+06 0 -1.75893e+06 2.61966e+06 0 -1.75562e+06 2.62503e+06 0 -1.7521e+06 2.63069e+06 0 -1.74837e+06 2.63663e+06 0 -1.74441e+06 2.64283e+06 0 -1.74021e+06 2.64929e+06 0 -1.73577e+06 2.65599e+06 0 -1.73108e+06 2.66293e+06 0 -1.72612e+06 2.6701e+06 0 -1.7209e+06 2.67747e+06 0 -1.71539e+06 2.68505e+06 0 -1.70961e+06 2.69281e+06 0 -1.70353e+06 2.70075e+06 0 -1.69715e+06 2.70885e+06 0 -1.69047e+06 2.71709e+06 0 -1.68348e+06 2.72548e+06 0 -1.67617e+06 2.73398e+06 0 -1.66855e+06 2.7426e+06 0 -1.66061e+06 2.7513e+06 0 -1.65234e+06 2.76009e+06 0 -1.64375e+06 2.76894e+06 0 -1.63482e+06 2.77785e+06 0 -1.62557e+06 2.78679e+06 0 -1.61599e+06 2.79575e+06 0 -1.60608e+06 2.80472e+06 0 -1.59584e+06 2.81369e+06 0 -1.58527e+06 2.82264e+06 0 -1.57438e+06 2.83156e+06 0 -1.56317e+06 2.84044e+06 0 -1.55164e+06 2.84925e+06 0 -1.53979e+06 2.858e+06 0 -1.52763e+06 2.86666e+06 0 -1.51517e+06 2.87522e+06 0 -1.5024e+06 2.88368e+06 0 -1.48934e+06 2.89202e+06 0 -1.476e+06 2.90024e+06 0 -1.46237e+06 2.90831e+06 0 -1.44846e+06 2.91623e+06 0 -1.43429e+06 2.92399e+06 0 -1.41986e+06 2.93159e+06 0 -1.40518e+06 2.93901e+06 0 -1.39026e+06 2.94625e+06 0 -1.3751e+06 2.95329e+06 0 -1.35972e+06 2.96014e+06 0 -1.34413e+06 2.96678e+06 0 -1.32833e+06 2.97321e+06 0 -1.31233e+06 2.97942e+06 0 -1.29614e+06 2.98542e+06 0 -1.27978e+06 2.99118e+06 0 -1.26325e+06 2.99672e+06 0 -1.24656e+06 3.00203e+06 0 -1.22972e+06 3.0071e+06 0 -1.21274e+06 3.01193e+06 0 -1.19564e+06 3.01652e+06 0 -1.17842e+06 3.02087e+06 0 -1.16108e+06 3.02497e+06 0 -1.14365e+06 3.02883e+06 0 -1.12613e+06 3.03245e+06 0 -1.10853e+06 3.03583e+06 0 -1.09085e+06 3.03896e+06 0 -1.07311e+06 3.04184e+06 0 -1.05532e+06 3.04449e+06 0 -1.03748e+06 3.0469e+06 0 -1.01961e+06 3.04906e+06 0 -1.00171e+06 3.051e+06 0 -983788 3.05269e+06 0 -965855 3.05416e+06 0 -947918 3.0554e+06 0 -929986 3.05641e+06 0 -912064 3.0572e+06 0 -894161 3.05777e+06 0 -876283 3.05813e+06 0 -858438 3.05827e+06 0 -840632 3.05821e+06 0 -822870 3.05795e+06 0 -805161 3.05748e+06 0 -787509 3.05683e+06 0 -769920 3.05598e+06 0 -752399 3.05495e+06 0 -734953 3.05373e+06 0 -717587 3.05235e+06 0 -700304 3.05079e+06 0 -683111 3.04906e+06 0 -666011 3.04718e+06 0 -649009 3.04514e+06 0 -632110 3.04295e+06 0 -615316 3.04061e+06 0 -598633 3.03814e+06 0 -582063 3.03553e+06 0 -565611 3.03279e+06 0 -549279 3.02993e+06 0 -533070 3.02695e+06 0 -516989 3.02385e+06 0 -501036 3.02065e+06 0 -485217 3.01734e+06 0 -469532 3.01393e+06 0 -453984 3.01044e+06 0 -438576 3.00685e+06 0 -423310 3.00318e+06 0 -408187 2.99944e+06 0 -393211 2.99562e+06 0 -378382 2.99174e+06 0 -363702 2.98779e+06 0 -349173 2.98379e+06 0 -334796 2.97973e+06 0 -320574 2.97563e+06 0 -306506 2.97149e+06 0 -292595 2.9673e+06 0 -278841 2.96309e+06 0 -265246 2.95885e+06 0 -251810 2.95458e+06 0 -238535 2.9503e+06 0 -225421 2.946e+06 0 -212470 2.9417e+06 0 -199681 2.93739e+06 0 -187055 2.93308e+06 0 -174594 2.92877e+06 0 -162297 2.92448e+06 0 -150166 2.92019e+06 0 -138200 2.91593e+06 0 -126401 2.91168e+06 0 -114768 2.90747e+06 0 -103302 2.90328e+06 0 -92003 2.89913e+06 0 -80871.9 2.89501e+06 0 -69908.5 2.89094e+06 0 -1.77686e+06 2.61924e+06 0 -1.77403e+06 2.62409e+06 0 -1.77101e+06 2.62925e+06 0 -1.76779e+06 2.6347e+06 0 -1.76436e+06 2.64044e+06 0 -1.76071e+06 2.64645e+06 0 -1.75684e+06 2.65273e+06 0 -1.75272e+06 2.65927e+06 0 -1.74837e+06 2.66605e+06 0 -1.74375e+06 2.67307e+06 0 -1.73888e+06 2.68031e+06 0 -1.73373e+06 2.68777e+06 0 -1.7283e+06 2.69543e+06 0 -1.72259e+06 2.70327e+06 0 -1.71658e+06 2.71129e+06 0 -1.71027e+06 2.71948e+06 0 -1.70366e+06 2.72781e+06 0 -1.69674e+06 2.73628e+06 0 -1.6895e+06 2.74487e+06 0 -1.68194e+06 2.75357e+06 0 -1.67405e+06 2.76236e+06 0 -1.66585e+06 2.77123e+06 0 -1.65731e+06 2.78017e+06 0 -1.64844e+06 2.78916e+06 0 -1.63925e+06 2.79818e+06 0 -1.62972e+06 2.80723e+06 0 -1.61986e+06 2.81629e+06 0 -1.60966e+06 2.82535e+06 0 -1.59914e+06 2.83438e+06 0 -1.5883e+06 2.84339e+06 0 -1.57713e+06 2.85235e+06 0 -1.56564e+06 2.86125e+06 0 -1.55383e+06 2.87008e+06 0 -1.5417e+06 2.87882e+06 0 -1.52927e+06 2.88747e+06 0 -1.51654e+06 2.89601e+06 0 -1.50351e+06 2.90444e+06 0 -1.4902e+06 2.91273e+06 0 -1.47659e+06 2.92089e+06 0 -1.46272e+06 2.92889e+06 0 -1.44857e+06 2.93674e+06 0 -1.43416e+06 2.94441e+06 0 -1.4195e+06 2.95191e+06 0 -1.4046e+06 2.95922e+06 0 -1.38946e+06 2.96635e+06 0 -1.37409e+06 2.97327e+06 0 -1.35851e+06 2.97999e+06 0 -1.34272e+06 2.98649e+06 0 -1.32673e+06 2.99278e+06 0 -1.31055e+06 2.99884e+06 0 -1.29419e+06 3.00468e+06 0 -1.27767e+06 3.01029e+06 0 -1.26098e+06 3.01566e+06 0 -1.24415e+06 3.0208e+06 0 -1.22717e+06 3.0257e+06 0 -1.21007e+06 3.03035e+06 0 -1.19284e+06 3.03477e+06 0 -1.1755e+06 3.03893e+06 0 -1.15807e+06 3.04286e+06 0 -1.14054e+06 3.04654e+06 0 -1.12293e+06 3.04997e+06 0 -1.10524e+06 3.05316e+06 0 -1.08749e+06 3.0561e+06 0 -1.06969e+06 3.0588e+06 0 -1.05184e+06 3.06126e+06 0 -1.03395e+06 3.06348e+06 0 -1.01603e+06 3.06546e+06 0 -998093 3.0672e+06 0 -980142 3.06872e+06 0 -962185 3.07e+06 0 -944231 3.07105e+06 0 -926288 3.07188e+06 0 -908361 3.0725e+06 0 -890459 3.07289e+06 0 -872589 3.07307e+06 0 -854756 3.07304e+06 0 -836967 3.07281e+06 0 -819229 3.07237e+06 0 -801548 3.07174e+06 0 -783928 3.07092e+06 0 -766377 3.06991e+06 0 -748899 3.06872e+06 0 -731499 3.06735e+06 0 -714183 3.06581e+06 0 -696954 3.0641e+06 0 -679819 3.06223e+06 0 -662781 3.0602e+06 0 -645844 3.05802e+06 0 -629013 3.05569e+06 0 -612291 3.05322e+06 0 -595683 3.05061e+06 0 -579190 3.04787e+06 0 -562818 3.045e+06 0 -546569 3.04201e+06 0 -530445 3.03891e+06 0 -514451 3.03569e+06 0 -498589 3.03237e+06 0 -482861 3.02895e+06 0 -467269 3.02543e+06 0 -451817 3.02183e+06 0 -436506 3.01814e+06 0 -421339 3.01436e+06 0 -406317 3.01052e+06 0 -391442 3.0066e+06 0 -376716 3.00262e+06 0 -362141 2.99858e+06 0 -347717 2.99448e+06 0 -333448 2.99034e+06 0 -319333 2.98615e+06 0 -305374 2.98192e+06 0 -291572 2.97765e+06 0 -277929 2.97335e+06 0 -264445 2.96903e+06 0 -251121 2.96469e+06 0 -237958 2.96033e+06 0 -224957 2.95595e+06 0 -212119 2.95157e+06 0 -199444 2.94719e+06 0 -186933 2.94281e+06 0 -174587 2.93843e+06 0 -162405 2.93406e+06 0 -150389 2.92971e+06 0 -138539 2.92537e+06 0 -126856 2.92106e+06 0 -115339 2.91678e+06 0 -103989 2.91252e+06 0 -92807.1 2.90831e+06 0 -81792.5 2.90413e+06 0 -1.78888e+06 2.6287e+06 0 -1.78614e+06 2.63363e+06 0 -1.78321e+06 2.63886e+06 0 -1.78008e+06 2.64439e+06 0 -1.77674e+06 2.6502e+06 0 -1.77318e+06 2.6563e+06 0 -1.76939e+06 2.66266e+06 0 -1.76536e+06 2.66927e+06 0 -1.76109e+06 2.67614e+06 0 -1.75656e+06 2.68324e+06 0 -1.75176e+06 2.69057e+06 0 -1.74669e+06 2.69811e+06 0 -1.74134e+06 2.70585e+06 0 -1.7357e+06 2.71378e+06 0 -1.72977e+06 2.72188e+06 0 -1.72353e+06 2.73015e+06 0 -1.71698e+06 2.73857e+06 0 -1.71013e+06 2.74712e+06 0 -1.70295e+06 2.7558e+06 0 -1.69546e+06 2.76458e+06 0 -1.68764e+06 2.77346e+06 0 -1.67949e+06 2.78242e+06 0 -1.67101e+06 2.79144e+06 0 -1.6622e+06 2.80052e+06 0 -1.65306e+06 2.80963e+06 0 -1.64358e+06 2.81877e+06 0 -1.63377e+06 2.82792e+06 0 -1.62363e+06 2.83706e+06 0 -1.61315e+06 2.84618e+06 0 -1.60235e+06 2.85527e+06 0 -1.59122e+06 2.86432e+06 0 -1.57977e+06 2.8733e+06 0 -1.568e+06 2.88222e+06 0 -1.55592e+06 2.89105e+06 0 -1.54352e+06 2.89979e+06 0 -1.53082e+06 2.90841e+06 0 -1.51783e+06 2.91692e+06 0 -1.50454e+06 2.9253e+06 0 -1.49096e+06 2.93354e+06 0 -1.47711e+06 2.94162e+06 0 -1.46299e+06 2.94955e+06 0 -1.4486e+06 2.95731e+06 0 -1.43396e+06 2.96488e+06 0 -1.41908e+06 2.97228e+06 0 -1.40395e+06 2.97948e+06 0 -1.3886e+06 2.98648e+06 0 -1.37303e+06 2.99327e+06 0 -1.35725e+06 2.99985e+06 0 -1.34128e+06 3.00621e+06 0 -1.32511e+06 3.01235e+06 0 -1.30876e+06 3.01826e+06 0 -1.29223e+06 3.02394e+06 0 -1.27555e+06 3.02939e+06 0 -1.25872e+06 3.03459e+06 0 -1.24174e+06 3.03956e+06 0 -1.22464e+06 3.04428e+06 0 -1.20741e+06 3.04876e+06 0 -1.19007e+06 3.05299e+06 0 -1.17263e+06 3.05698e+06 0 -1.15509e+06 3.06072e+06 0 -1.13747e+06 3.06421e+06 0 -1.11977e+06 3.06746e+06 0 -1.10201e+06 3.07046e+06 0 -1.0842e+06 3.07321e+06 0 -1.06633e+06 3.07573e+06 0 -1.04843e+06 3.078e+06 0 -1.0305e+06 3.08003e+06 0 -1.01254e+06 3.08182e+06 0 -994569 3.08338e+06 0 -976592 3.08471e+06 0 -958617 3.08581e+06 0 -940651 3.08668e+06 0 -922701 3.08733e+06 0 -904775 3.08777e+06 0 -886878 3.08798e+06 0 -869018 3.08799e+06 0 -851202 3.08779e+06 0 -833435 3.08739e+06 0 -815723 3.08678e+06 0 -798073 3.08599e+06 0 -780490 3.08501e+06 0 -762979 3.08384e+06 0 -745545 3.08249e+06 0 -728194 3.08097e+06 0 -710931 3.07927e+06 0 -693759 3.07741e+06 0 -676684 3.0754e+06 0 -659710 3.07322e+06 0 -642840 3.0709e+06 0 -626079 3.06844e+06 0 -609430 3.06583e+06 0 -592897 3.06309e+06 0 -576484 3.06022e+06 0 -560193 3.05723e+06 0 -544027 3.05412e+06 0 -527990 3.05089e+06 0 -512083 3.04756e+06 0 -496311 3.04412e+06 0 -480675 3.04059e+06 0 -465178 3.03696e+06 0 -449821 3.03325e+06 0 -434608 3.02945e+06 0 -419539 3.02558e+06 0 -404617 3.02163e+06 0 -389844 3.01762e+06 0 -375221 3.01354e+06 0 -360749 3.00941e+06 0 -346431 3.00522e+06 0 -332267 3.00098e+06 0 -318259 2.99671e+06 0 -304408 2.99239e+06 0 -290715 2.98804e+06 0 -277181 2.98366e+06 0 -263807 2.97926e+06 0 -250594 2.97483e+06 0 -237542 2.9704e+06 0 -224653 2.96595e+06 0 -211927 2.96149e+06 0 -199364 2.95703e+06 0 -186966 2.95258e+06 0 -174733 2.94813e+06 0 -162665 2.94369e+06 0 -150763 2.93927e+06 0 -139027 2.93487e+06 0 -127458 2.93049e+06 0 -116055 2.92614e+06 0 -104820 2.92182e+06 0 -93752.2 2.91753e+06 0 -1.80103e+06 2.63818e+06 0 -1.79838e+06 2.64318e+06 0 -1.79554e+06 2.64849e+06 0 -1.7925e+06 2.6541e+06 0 -1.78925e+06 2.66e+06 0 -1.78578e+06 2.66617e+06 0 -1.78208e+06 2.67261e+06 0 -1.77813e+06 2.67931e+06 0 -1.77394e+06 2.68626e+06 0 -1.76949e+06 2.69344e+06 0 -1.76478e+06 2.70085e+06 0 -1.75979e+06 2.70847e+06 0 -1.75451e+06 2.7163e+06 0 -1.74895e+06 2.72431e+06 0 -1.74309e+06 2.7325e+06 0 -1.73692e+06 2.74086e+06 0 -1.73045e+06 2.74936e+06 0 -1.72366e+06 2.758e+06 0 -1.71655e+06 2.76677e+06 0 -1.70912e+06 2.77564e+06 0 -1.70136e+06 2.78461e+06 0 -1.69327e+06 2.79365e+06 0 -1.68485e+06 2.80277e+06 0 -1.6761e+06 2.81193e+06 0 -1.66701e+06 2.82113e+06 0 -1.65759e+06 2.83036e+06 0 -1.64783e+06 2.8396e+06 0 -1.63773e+06 2.84883e+06 0 -1.62731e+06 2.85804e+06 0 -1.61655e+06 2.86722e+06 0 -1.60546e+06 2.87635e+06 0 -1.59405e+06 2.88542e+06 0 -1.58232e+06 2.89443e+06 0 -1.57027e+06 2.90334e+06 0 -1.55791e+06 2.91216e+06 0 -1.54525e+06 2.92088e+06 0 -1.53228e+06 2.92947e+06 0 -1.51902e+06 2.93793e+06 0 -1.50548e+06 2.94625e+06 0 -1.49165e+06 2.95443e+06 0 -1.47755e+06 2.96243e+06 0 -1.46319e+06 2.97027e+06 0 -1.44857e+06 2.97794e+06 0 -1.4337e+06 2.98541e+06 0 -1.41859e+06 2.99269e+06 0 -1.40326e+06 2.99977e+06 0 -1.3877e+06 3.00664e+06 0 -1.37194e+06 3.0133e+06 0 -1.35597e+06 3.01974e+06 0 -1.33981e+06 3.02595e+06 0 -1.32346e+06 3.03193e+06 0 -1.30695e+06 3.03769e+06 0 -1.29027e+06 3.0432e+06 0 -1.27344e+06 3.04848e+06 0 -1.25646e+06 3.05351e+06 0 -1.23935e+06 3.05831e+06 0 -1.22212e+06 3.06285e+06 0 -1.20478e+06 3.06715e+06 0 -1.18733e+06 3.0712e+06 0 -1.16979e+06 3.075e+06 0 -1.15216e+06 3.07856e+06 0 -1.13445e+06 3.08186e+06 0 -1.11