<?xml version="1.0"?> 
<VTKFile type="StructuredGrid" version="0.1"> 
<StructuredGrid WholeExtent="0 127 0 127 0 0"> 
<Piece Extent="0 127 0 127 0 0"> 
<PointData>
<DataArray type="Float32" Name="E" format="ascii" NumberOfComponents="3"> 
-648464 0 0 -646848 0 0 -645241 0 0 -643643 0 0 -642054 0 0 -640474 0 0 -638902 0 0 -637339 0 0 -635785 0 0 -634238 0 0 -632700 0 0 -631169 0 0 -629647 0 0 -628132 0 0 -626624 0 0 -625125 0 0 -623632 0 0 -622147 0 0 -620669 0 0 -619198 0 0 -617734 0 0 -616277 0 0 -614826 0 0 -613382 0 0 -611945 0 0 -610514 0 0 -609090 0 0 -607671 0 0 -606259 0 0 -604853 0 0 -603453 0 0 -602058 0 0 -600670 0 0 -599287 0 0 -597910 0 0 -596538 0 0 -595172 0 0 -593811 0 0 -592456 0 0 -591105 0 0 -589760 0 0 -588420 0 0 -587084 0 0 -585754 0 0 -584428 0 0 -583107 0 0 -581791 0 0 -580479 0 0 -579172 0 0 -577869 0 0 -576570 0 0 -575276 0 0 -573985 0 0 -572699 0 0 -571417 0 0 -570138 0 0 -568864 0 0 -567593 0 0 -566326 0 0 -565062 0 0 -563802 0 0 -562545 0 0 -561292 0 0 -560042 0 0 -558795 0 0 -557551 0 0 -556310 0 0 -555072 0 0 -553837 0 0 -552604 0 0 -551374 0 0 -550147 0 0 -548922 0 0 -547700 0 0 -546479 0 0 -545261 0 0 -544045 0 0 -542831 0 0 -541619 0 0 -540408 0 0 -539199 0 0 -537992 0 0 -536786 0 0 -535582 0 0 -534379 0 0 -533177 0 0 -531976 0 0 -530775 0 0 -529576 0 0 -528377 0 0 -527179 0 0 -525982 0 0 -524784 0 0 -523587 0 0 -522390 0 0 -521194 0 0 -519997 0 0 -518799 0 0 -517602 0 0 -516404 0 0 -515205 0 0 -514006 0 0 -512806 0 0 -511606 0 0 -510404 0 0 -509201 0 0 -507997 0 0 -506792 0 0 -505586 0 0 -504378 0 0 -503169 0 0 -501959 0 0 -500747 0 0 -499533 0 0 -498317 0 0 -497100 0 0 -495882 0 0 -494661 0 0 -493439 0 0 -492215 0 0 -490989 0 0 -489762 0 0 -488533 0 0 -487303 0 0 -486071 0 0 -484837 0 0 -483602 0 0 -482366 0 0 -648468 2981.87 0 -646852 2947.86 0 -645245 2914.31 0 -643647 2881.21 0 -642058 2848.56 0 -640478 2816.34 0 -638906 2784.55 0 -637343 2753.17 0 -635789 2722.2 0 -634242 2691.62 0 -632704 2661.44 0 -631173 2631.64 0 -629650 2602.21 0 -628135 2573.14 0 -626628 2544.44 0 -625128 2516.08 0 -623636 2488.07 0 -622150 2460.4 0 -620672 2433.05 0 -619201 2406.04 0 -617737 2379.34 0 -616280 2352.95 0 -614829 2326.87 0 -613385 2301.09 0 -611948 2275.6 0 -610517 2250.4 0 -609093 2225.49 0 -607674 2200.86 0 -606262 2176.5 0 -604856 2152.41 0 -603456 2128.59 0 -602061 2105.02 0 -600673 2081.72 0 -599290 2058.66 0 -597913 2035.85 0 -596541 2013.29 0 -595175 1990.97 0 -593814 1968.88 0 -592458 1947.02 0 -591108 1925.4 0 -589763 1903.99 0 -588422 1882.82 0 -587087 1861.85 0 -585756 1841.11 0 -584431 1820.58 0 -583110 1800.25 0 -581793 1780.14 0 -580482 1760.23 0 -579174 1740.52 0 -577871 1721 0 -576572 1701.69 0 -575278 1682.57 0 -573988 1663.63 0 -572701 1644.89 0 -571419 1626.34 0 -570140 1607.96 0 -568866 1589.78 0 -567595 1571.77 0 -566328 1553.94 0 -565064 1536.28 0 -563804 1518.8 0 -562547 1501.49 0 -561294 1484.35 0 -560044 1467.39 0 -558797 1450.58 0 -557553 1433.95 0 -556312 1417.47 0 -555074 1401.16 0 -553839 1385.01 0 -552606 1369.02 0 -551376 1353.18 0 -550149 1337.5 0 -548924 1321.97 0 -547702 1306.6 0 -546481 1291.37 0 -545263 1276.29 0 -544047 1261.36 0 -542833 1246.57 0 -541621 1231.93 0 -540410 1217.43 0 -539201 1203.06 0 -537994 1188.83 0 -536788 1174.74 0 -535584 1160.78 0 -534381 1146.95 0 -533179 1133.25 0 -531978 1119.67 0 -530777 1106.21 0 -529578 1092.87 0 -528379 1079.65 0 -527181 1066.55 0 -525984 1053.55 0 -524786 1040.66 0 -523589 1027.88 0 -522392 1015.19 0 -521195 1002.6 0 -519998 990.097 0 -518801 977.684 0 -517604 965.353 0 -516406 953.1 0 -515207 940.92 0 -514008 928.808 0 -512808 916.758 0 -511607 904.766 0 -510406 892.825 0 -509203 880.93 0 -507999 869.076 0 -506794 857.255 0 -505588 845.462 0 -504380 833.69 0 -503171 821.934 0 -501960 810.186 0 -500748 798.442 0 -499534 786.693 0 -498319 774.934 0 -497102 763.158 0 -495883 751.359 0 -494662 739.532 0 -493440 727.669 0 -492216 715.766 0 -490991 703.816 0 -489763 691.815 0 -488534 679.757 0 -487304 667.638 0 -486072 655.453 0 -484838 643.198 0 -483603 630.871 0 -482367 618.467 0 -648480 5963.76 0 -646864 5895.74 0 -645257 5828.64 0 -643659 5762.44 0 -642070 5697.14 0 -640490 5632.7 0 -638918 5569.11 0 -637355 5506.35 0 -635800 5444.41 0 -634253 5383.26 0 -632715 5322.89 0 -631184 5263.28 0 -629661 5204.42 0 -628146 5146.29 0 -626639 5088.88 0 -625139 5032.16 0 -623646 4976.14 0 -622161 4920.79 0 -620682 4866.11 0 -619211 4812.07 0 -617747 4758.67 0 -616290 4705.89 0 -614839 4653.73 0 -613395 4602.16 0 -611957 4551.19 0 -610526 4500.8 0 -609102 4450.97 0 -607683 4401.7 0 -606271 4352.99 0 -604865 4304.81 0 -603464 4257.16 0 -602070 4210.03 0 -600681 4163.41 0 -599298 4117.3 0 -597921 4071.69 0 -596549 4026.56 0 -595183 3981.91 0 -593822 3937.73 0 -592466 3894.02 0 -591116 3850.76 0 -589770 3807.96 0 -588430 3765.6 0 -587095 3723.68 0 -585764 3682.18 0 -584438 3641.12 0 -583117 3600.47 0 -581801 3560.24 0 -580489 3520.41 0 -579181 3480.99 0 -577878 3441.96 0 -576579 3403.33 0 -575285 3365.08 0 -573994 3327.22 0 -572708 3289.73 0 -571426 3252.62 0 -570147 3215.88 0 -568873 3179.5 0 -567602 3143.48 0 -566334 3107.81 0 -565071 3072.5 0 -563811 3037.54 0 -562554 3002.92 0 -561300 2968.65 0 -560050 2934.71 0 -558803 2901.1 0 -557559 2867.83 0 -556318 2834.88 0 -555080 2802.26 0 -553845 2769.96 0 -552612 2737.97 0 -551383 2706.3 0 -550155 2674.93 0 -548930 2643.88 0 -547708 2613.12 0 -546487 2582.67 0 -545269 2552.52 0 -544053 2522.65 0 -542839 2493.08 0 -541627 2463.79 0 -540416 2434.78 0 -539207 2406.05 0 -538000 2377.6 0 -536794 2349.41 0 -535590 2321.49 0 -534387 2293.83 0 -533185 2266.42 0 -531983 2239.27 0 -530783 2212.36 0 -529584 2185.69 0 -528385 2159.25 0 -527187 2133.03 0 -525989 2107.04 0 -524792 2081.27 0 -523595 2055.69 0 -522398 2030.32 0 -521201 2005.14 0 -520004 1980.14 0 -518807 1955.32 0 -517609 1930.66 0 -516411 1906.16 0 -515212 1881.8 0 -514013 1857.58 0 -512813 1833.48 0 -511612 1809.5 0 -510411 1785.62 0 -509208 1761.83 0 -508004 1738.13 0 -506799 1714.49 0 -505592 1690.9 0 -504384 1667.36 0 -503175 1643.85 0 -501964 1620.36 0 -500752 1596.87 0 -499538 1573.38 0 -498323 1549.86 0 -497105 1526.31 0 -495887 1502.72 0 -494666 1479.07 0 -493444 1455.34 0 -492220 1431.54 0 -490994 1407.64 0 -489766 1383.64 0 -488537 1359.52 0 -487306 1335.29 0 -486074 1310.92 0 -484840 1286.41 0 -483605 1261.76 0 -482369 1236.95 0 -648502 8945.69 0 -646885 8843.65 0 -645278 8742.99 0 -643680 8643.7 0 -642090 8545.74 0 -640510 8449.08 0 -638938 8353.7 0 -637374 8259.56 0 -635819 8166.64 0 -634272 8074.91 0 -632733 7984.35 0 -631202 7894.94 0 -629679 7806.65 0 -628164 7719.45 0 -626656 7633.33 0 -625156 7548.26 0 -623663 7464.22 0 -622178 7381.2 0 -620699 7299.16 0 -619228 7218.1 0 -617763 7138 0 -616306 7058.83 0 -614855 6980.58 0 -613411 6903.23 0 -611973 6826.77 0 -610542 6751.17 0 -609117 6676.43 0 -607698 6602.53 0 -606286 6529.45 0 -604879 6457.17 0 -603479 6385.7 0 -602084 6315 0 -600695 6245.07 0 -599312 6175.9 0 -597935 6107.47 0 -596563 6039.78 0 -595196 5972.8 0 -593835 5906.53 0 -592479 5840.96 0 -591129 5776.07 0 -589783 5711.86 0 -588443 5648.32 0 -587107 5585.43 0 -585776 5523.19 0 -584451 5461.59 0 -583129 5400.61 0 -581813 5340.26 0 -580501 5280.52 0 -579193 5221.38 0 -577890 5162.84 0 -576591 5104.88 0 -575296 5047.51 0 -574006 4990.71 0 -572719 4934.48 0 -571437 4878.8 0 -570158 4823.68 0 -568884 4769.11 0 -567613 4715.08 0 -566345 4661.58 0 -565082 4608.61 0 -563821 4556.16 0 -562565 4504.24 0 -561311 4452.82 0 -560061 4401.91 0 -558814 4351.5 0 -557570 4301.58 0 -556329 4252.16 0 -555091 4203.22 0 -553855 4154.76 0 -552623 4106.78 0 -551393 4059.27 0 -550165 4012.23 0 -548940 3965.64 0 -547718 3919.51 0 -546498 3873.83 0 -545279 3828.6 0 -544063 3783.8 0 -542849 3739.44 0 -541637 3695.51 0 -540426 3652 0 -539217 3608.9 0 -538010 3566.22 0 -536804 3523.94 0 -535600 3482.06 0 -534396 3440.57 0 -533194 3399.47 0 -531993 3358.73 0 -530793 3318.37 0 -529593 3278.37 0 -528395 3238.71 0 -527197 3199.4 0 -525999 3160.41 0 -524801 3121.75 0 -523604 3083.4 0 -522407 3045.35 0 -521210 3007.58 0 -520013 2970.09 0 -518816 2932.86 0 -517618 2895.87 0 -516420 2859.12 0 -515221 2822.59 0 -514022 2786.27 0 -512822 2750.13 0 -511621 2714.16 0 -510419 2678.35 0 -509216 2642.68 0 -508012 2607.13 0 -506807 2571.67 0 -505600 2536.31 0 -504392 2501 0 -503183 2465.74 0 -501972 2430.51 0 -500759 2395.29 0 -499545 2360.05 0 -498329 2324.78 0 -497112 2289.46 0 -495893 2254.08 0 -494672 2218.6 0 -493449 2183.02 0 -492225 2147.32 0 -490999 2111.48 0 -489771 2075.48 0 -488542 2039.31 0 -487311 2002.96 0 -486079 1966.41 0 -484845 1929.65 0 -483609 1892.67 0 -482372 1855.46 0 -648531 11927.7 0 -646914 11791.6 0 -645307 11657.4 0 -643708 11525 0 -642118 11394.4 0 -640537 11265.5 0 -638965 11138.3 0 -637401 11012.8 0 -635846 10888.9 0 -634298 10766.6 0 -632759 10645.9 0 -631228 10526.6 0 -629705 10408.9 0 -628189 10292.6 0 -626681 10177.8 0 -625180 10064.4 0 -623687 9952.31 0 -622201 9841.6 0 -620723 9732.22 0 -619251 9624.14 0 -617786 9517.32 0 -616328 9411.76 0 -614877 9307.42 0 -613433 9204.28 0 -611995 9102.32 0 -610563 9001.52 0 -609138 8901.86 0 -607719 8803.32 0 -606306 8705.87 0 -604900 8609.5 0 -603499 8514.19 0 -602104 8419.92 0 -600715 8326.68 0 -599332 8234.44 0 -597954 8143.2 0 -596582 8052.93 0 -595215 7963.62 0 -593854 7875.25 0 -592498 7787.81 0 -591147 7701.29 0 -589801 7615.67 0 -588461 7530.94 0 -587125 7447.08 0 -585794 7364.09 0 -584468 7281.94 0 -583146 7200.64 0 -581830 7120.16 0 -580517 7040.5 0 -579210 6961.64 0 -577906 6883.58 0 -576607 6806.3 0 -575313 6729.79 0 -574022 6654.05 0 -572735 6579.07 0 -571453 6504.83 0 -570174 6431.33 0 -568899 6358.56 0 -567628 6286.51 0 -566361 6215.18 0 -565097 6144.54 0 -563837 6074.61 0 -562580 6005.37 0 -561326 5936.8 0 -560076 5868.92 0 -558829 5801.7 0 -557584 5735.14 0 -556343 5669.24 0 -555105 5603.99 0 -553870 5539.37 0 -552637 5475.39 0 -551407 5412.04 0 -550180 5349.31 0 -548955 5287.19 0 -547732 5225.69 0 -546512 5164.78 0 -545293 5104.46 0 -544077 5044.74 0 -542863 4985.59 0 -541651 4927.01 0 -540440 4869 0 -539231 4811.54 0 -538024 4754.63 0 -536818 4698.26 0 -535613 4642.43 0 -534410 4587.11 0 -533208 4532.3 0 -532007 4478 0 -530806 4424.19 0 -529607 4370.85 0 -528408 4317.99 0 -527210 4265.57 0 -526012 4213.6 0 -524815 4162.06 0 -523617 4110.93 0 -522420 4060.2 0 -521223 4009.86 0 -520026 3959.88 0 -518828 3910.25 0 -517631 3860.95 0 -516432 3811.96 0 -515233 3763.27 0 -514034 3714.84 0 -512834 3666.67 0 -511633 3618.73 0 -510431 3570.99 0 -509227 3523.44 0 -508023 3476.05 0 -506818 3428.79 0 -505611 3381.65 0 -504403 3334.59 0 -503193 3287.59 0 -501982 3240.63 0 -500769 3193.67 0 -499555 3146.7 0 -498339 3099.69 0 -497121 3052.61 0 -495901 3005.44 0 -494680 2958.15 0 -493457 2910.72 0 -492233 2863.12 0 -491006 2815.34 0 -489778 2767.35 0 -488549 2719.13 0 -487318 2670.67 0 -486085 2621.94 0 -484850 2572.93 0 -483615 2523.63 0 -482378 2474.02 0 -648569 14909.7 0 -646952 14739.6 0 -645344 14571.9 0 -643745 14406.4 0 -642155 14243.1 0 -640573 14082 0 -639000 13923 0 -637436 13766.1 0 -635880 13611.2 0 -634332 13458.3 0 -632793 13307.4 0 -631261 13158.4 0 -629737 13011.2 0 -628221 12865.8 0 -626713 12722.3 0 -625212 12580.5 0 -623718 12440.4 0 -622232 12302 0 -620753 12165.3 0 -619281 12030.2 0 -617816 11896.6 0 -616357 11764.7 0 -614906 11634.2 0 -613461 11505.3 0 -612023 11377.8 0 -610591 11251.8 0 -609165 11127.3 0 -607746 11004.1 0 -606333 10882.2 0 -604926 10761.8 0 -603525 10642.6 0 -602130 10524.8 0 -600740 10408.2 0 -599357 10292.9 0 -597979 10178.8 0 -596606 10066 0 -595239 9954.34 0 -593878 9843.87 0 -592521 9734.56 0 -591170 9626.4 0 -589824 9519.36 0 -588483 9413.44 0 -587147 9308.6 0 -585816 9204.85 0 -584490 9102.16 0 -583168 9000.51 0 -581851 8899.9 0 -580539 8800.31 0 -579231 8701.73 0 -577928 8604.14 0 -576628 8507.53 0 -575333 8411.89 0 -574043 8317.21 0 -572756 8223.46 0 -571473 8130.66 0 -570194 8038.77 0 -568919 7947.8 0 -567648 7857.73 0 -566380 7768.55 0 -565116 7680.25 0 -563856 7592.82 0 -562599 7506.26 0 -561345 7420.55 0 -560095 7335.68 0 -558848 7251.65 0 -557603 7168.45 0 -556362 7086.06 0 -555124 7004.49 0 -553889 6923.71 0 -552656 6843.73 0 -551426 6764.54 0 -550198 6686.12 0 -548973 6608.47 0 -547750 6531.58 0 -546530 6455.44 0 -545312 6380.05 0 -544095 6305.39 0 -542881 6231.45 0 -541669 6158.23 0 -540458 6085.71 0 -539249 6013.9 0 -538042 5942.76 0 -536836 5872.31 0 -535631 5802.51 0 -534428 5733.37 0 -533225 5664.87 0 -532024 5597 0 -530824 5529.74 0 -529624 5463.08 0 -528425 5397.01 0 -527227 5331.5 0 -526029 5266.55 0 -524832 5202.14 0 -523634 5138.24 0 -522437 5074.84 0 -521240 5011.92 0 -520042 4949.47 0 -518845 4887.44 0 -517647 4825.84 0 -516448 4764.62 0 -515249 4703.77 0 -514050 4643.26 0 -512849 4583.07 0 -511648 4523.16 0 -510445 4463.51 0 -509242 4404.09 0 -508038 4344.87 0 -506832 4285.82 0 -505625 4226.91 0 -504416 4168.11 0 -503206 4109.38 0 -501995 4050.69 0 -500782 3992.02 0 -499567 3933.33 0 -498351 3874.58 0 -497132 3815.75 0 -495913 3756.8 0 -494691 3697.7 0 -493468 3638.43 0 -492243 3578.94 0 -491016 3519.23 0 -489788 3459.25 0 -488558 3398.99 0 -487326 3338.42 0 -486093 3277.52 0 -484858 3216.26 0 -483622 3154.64 0 -482384 3092.63 0 -648616 17891.9 0 -646998 17687.8 0 -645389 17486.4 0 -643789 17287.8 0 -642199 17091.9 0 -640617 16898.6 0 -639043 16707.8 0 -637478 16519.5 0 -635922 16333.6 0 -634374 16150.1 0 -632834 15969 0 -631301 15790.1 0 -629777 15613.5 0 -628260 15439.1 0 -626751 15266.8 0 -625250 15096.6 0 -623756 14928.5 0 -622269 14762.4 0 -620790 14598.3 0 -619317 14436.2 0 -617851 14276 0 -616393 14117.6 0 -614941 13961 0 -613495 13806.3 0 -612057 13653.3 0 -610624 13502.1 0 -609198 13352.6 0 -607779 13204.8 0 -606365 13058.6 0 -604958 12914 0 -603556 12771 0 -602161 12629.5 0 -600771 12489.7 0 -599387 12351.3 0 -598009 12214.4 0 -596636 12078.9 0 -595269 11944.9 0 -593907 11812.4 0 -592550 11681.2 0 -591199 11551.4 0 -589853 11422.9 0 -588511 11295.8 0 -587175 11170 0 -585844 11045.4 0 -584517 10922.2 0 -583195 10800.2 0 -581878 10679.5 0 -580565 10559.9 0 -579257 10441.6 0 -577953 10324.5 0 -576654 10208.5 0 -575359 10093.8 0 -574068 9980.12 0 -572781 9867.62 0 -571498 9756.23 0 -570219 9645.95 0 -568944 9536.77 0 -567672 9428.67 0 -566404 9321.64 0 -565140 9215.67 0 -563880 9110.74 0 -562623 9006.85 0 -561369 8903.99 0 -560118 8802.13 0 -558871 8701.29 0 -557626 8601.43 0 -556385 8502.56 0 -555147 8404.66 0 -553911 8307.72 0 -552678 8211.74 0 -551448 8116.69 0 -550221 8022.59 0 -548995 7929.4 0 -547773 7837.13 0 -546552 7745.76 0 -545334 7655.28 0 -544117 7565.68 0 -542903 7476.96 0 -541691 7389.09 0 -540480 7302.08 0 -539271 7215.9 0 -538063 7130.54 0 -536857 7046 0 -535653 6962.25 0 -534449 6879.29 0 -533247 6797.1 0 -532046 6715.66 0 -530845 6634.96 0 -529645 6554.98 0 -528446 6475.71 0 -527248 6397.12 0 -526050 6319.19 0 -524852 6241.91 0 -523655 6165.26 0 -522457 6089.2 0 -521260 6013.72 0 -520062 5938.8 0 -518865 5864.4 0 -517666 5790.49 0 -516468 5717.06 0 -515269 5644.07 0 -514069 5571.48 0 -512868 5499.28 0 -511666 5427.42 0 -510464 5355.87 0 -509260 5284.6 0 -508055 5213.56 0 -506849 5142.74 0 -505642 5072.07 0 -504433 5001.54 0 -503222 4931.09 0 -502011 4860.7 0 -500797 4790.32 0 -499582 4719.92 0 -498365 4649.45 0 -497147 4578.87 0 -495926 4508.16 0 -494704 4437.26 0 -493481 4366.15 0 -492255 4294.8 0 -491028 4223.16 0 -489799 4151.2 0 -488568 4078.9 0 -487336 4006.23 0 -486102 3933.16 0 -484867 3859.66 0 -483630 3785.72 0 -482392 3711.32 0 -648670 20874.1 0 -647052 20636 0 -645443 20401.1 0 -643842 20169.4 0 -642251 19940.8 0 -640668 19715.2 0 -639094 19492.6 0 -637529 19272.9 0 -635971 19056.1 0 -634423 18842 0 -632882 18630.6 0 -631349 18422 0 -629824 18215.9 0 -628307 18012.4 0 -626797 17811.4 0 -625295 17612.8 0 -623801 17416.7 0 -622313 17222.9 0 -620833 17031.4 0 -619360 16842.2 0 -617894 16655.3 0 -616435 16470.5 0 -614982 16287.8 0 -613536 16107.3 0 -612097 15928.8 0 -610664 15752.3 0 -609238 15577.9 0 -607818 15405.4 0 -606404 15234.8 0 -604996 15066.1 0 -603594 14899.2 0 -602198 14734.2 0 -600808 14571 0 -599423 14409.5 0 -598045 14249.8 0 -596671 14091.8 0 -595304 13935.4 0 -593941 13780.7 0 -592584 13627.6 0 -591232 13476.2 0 -589886 13326.3 0 -588544 13177.9 0 -587208 13031.1 0 -585876 12885.8 0 -584549 12742 0 -583227 12599.7 0 -581909 12458.8 0 -580596 12319.3 0 -579288 12181.3 0 -577984 12044.6 0 -576684 11909.3 0 -575389 11775.3 0 -574097 11642.8 0 -572810 11511.5 0 -571527 11381.5 0 -570248 11252.8 0 -568972 11125.4 0 -567701 10999.3 0 -566433 10874.4 0 -565169 10750.7 0 -563908 10628.3 0 -562650 10507.1 0 -561396 10387.1 0 -560146 10268.2 0 -558898 10150.5 0 -557654 10034 0 -556412 9918.66 0 -555174 9804.43 0 -553938 9691.33 0 -552705 9579.33 0 -551475 9468.44 0 -550247 9358.64 0 -549022 9249.91 0 -547799 9142.25 0 -546578 9035.65 0 -545360 8930.09 0 -544144 8825.55 0 -542929 8722.04 0 -541717 8619.53 0 -540506 8518.01 0 -539297 8417.47 0 -538089 8317.89 0 -536883 8219.27 0 -535678 8121.57 0 -534475 8024.79 0 -533272 7928.91 0 -532071 7833.92 0 -530870 7739.78 0 -529670 7646.49 0 -528471 7554.03 0 -527273 7462.36 0 -526075 7371.47 0 -524877 7281.34 0 -523679 7191.93 0 -522482 7103.23 0 -521284 7015.2 0 -520086 6927.82 0 -518888 6841.05 0 -517690 6754.87 0 -516491 6669.23 0 -515291 6584.11 0 -514091 6499.47 0 -512890 6415.27 0 -511688 6331.48 0 -510485 6248.04 0 -509281 6164.93 0 -508076 6082.1 0 -506870 5999.51 0 -505662 5917.11 0 -504452 5834.86 0 -503242 5752.72 0 -502029 5670.64 0 -500815 5588.57 0 -499600 5506.46 0 -498382 5424.28 0 -497163 5341.98 0 -495943 5259.51 0 -494720 5176.84 0 -493496 5093.91 0 -492270 5010.69 0 -491042 4927.13 0 -489812 4843.21 0 -488581 4758.88 0 -487348 4674.11 0 -486114 4588.88 0 -484878 4503.15 0 -483641 4416.9 0 -482402 4330.1 0 -648734 23856.6 0 -647114 23584.4 0 -645504 23315.9 0 -643903 23051.1 0 -642311 22789.8 0 -640728 22532 0 -639153 22277.6 0 -637586 22026.5 0 -636029 21778.6 0 -634479 21533.9 0 -632937 21292.4 0 -631404 21053.9 0 -629878 20818.3 0 -628360 20585.7 0 -626850 20356 0 -625347 20129 0 -623852 19904.9 0 -622364 19683.4 0 -620883 19464.5 0 -619409 19248.3 0 -617943 19034.6 0 -616483 18823.3 0 -615030 18614.6 0 -613583 18408.2 0 -612143 18204.2 0 -610710 18002.5 0 -609283 17803.1 0 -607862 17605.9 0 -606448 17411 0 -605039 17218.1 0 -603637 17027.4 0 -602240 16838.8 0 -600850 16652.2 0 -599465 16467.6 0 -598086 16285.1 0 -596712 16104.4 0 -595344 15925.7 0 -593981 15748.9 0 -592623 15573.9 0 -591271 15400.8 0 -589924 15229.4 0 -588582 15059.9 0 -587245 14892.1 0 -585913 14726 0 -584586 14561.6 0 -583263 14398.9 0 -581945 14237.8 0 -580632 14078.4 0 -579323 13920.6 0 -578019 13764.4 0 -576719 13609.7 0 -575423 13456.6 0 -574131 13305.1 0 -572844 13155 0 -571561 13006.4 0 -570281 12859.3 0 -569005 12713.7 0 -567734 12569.5 0 -566465 12426.8 0 -565201 12285.4 0 -563940 12145.5 0 -562682 12006.9 0 -561428 11869.7 0 -560177 11733.9 0 -558930 11599.4 0 -557685 11466.2 0 -556443 11334.3 0 -555205 11203.8 0 -553969 11074.5 0 -552736 10946.5 0 -551506 10819.7 0 -550278 10694.2 0 -549052 10569.9 0 -547829 10446.9 0 -546609 10325 0 -545390 10204.4 0 -544174 10084.9 0 -542959 9966.62 0 -541746 9849.47 0 -540536 9733.45 0 -539326 9618.55 0 -538119 9504.75 0 -536913 9392.04 0 -535708 9280.4 0 -534504 9169.81 0 -533301 9060.25 0 -532100 8951.7 0 -530899 8844.14 0 -529699 8737.55 0 -528500 8631.9 0 -527301 8527.16 0 -526103 8423.32 0 -524905 8320.35 0 -523707 8218.2 0 -522509 8116.87 0 -521312 8016.31 0 -520114 7916.48 0 -518915 7817.37 0 -517717 7718.91 0 -516518 7621.09 0 -515318 7523.86 0 -514117 7427.18 0 -512916 7331.01 0 -511714 7235.29 0 -510510 7140 0 -509306 7045.07 0 -508100 6950.46 0 -506893 6856.13 0 -505685 6762.01 0 -504475 6668.07 0 -503264 6574.24 0 -502051 6480.48 0 -500836 6386.74 0 -499620 6292.96 0 -498402 6199.09 0 -497183 6105.08 0 -495961 6010.87 0 -494738 5916.42 0 -493513 5821.69 0 -492286 5726.61 0 -491058 5631.16 0 -489827 5535.27 0 -488596 5438.93 0 -487362 5342.07 0 -486127 5244.68 0 -484890 5146.72 0 -483652 5048.17 0 -482413 4948.99 0 -648806 26839.1 0 -647185 26532.9 0 -645574 26230.9 0 -643972 25932.9 0 -642379 25639 0 -640795 25348.9 0 -639219 25062.7 0 -637652 24780.1 0 -636093 24501.3 0 -634543 24226 0 -633000 23954.2 0 -631466 23685.9 0 -629940 23420.8 0 -628421 23159.1 0 -626910 22900.6 0 -625406 22645.3 0 -623910 22393.1 0 -622421 22143.9 0 -620940 21897.6 0 -619465 21654.3 0 -617998 21413.9 0 -616537 21176.2 0 -615083 20941.3 0 -613636 20709.1 0 -612196 20479.6 0 -610762 20252.7 0 -609334 20028.3 0 -607913 19806.4 0 -606498 19587 0 -605089 19370.1 0 -603686 19155.5 0 -602289 18943.2 0 -600897 18733.3 0 -599512 18525.6 0 -598132 18320.2 0 -596758 18116.9 0 -595389 17915.8 0 -594026 17716.9 0 -592668 17520 0 -591315 17325.2 0 -589968 17132.4 0 -588625 16941.6 0 -587288 16752.7 0 -585955 16565.9 0 -584627 16380.9 0 -583304 16197.8 0 -581986 16016.6 0 -580672 15837.2 0 -579363 15659.6 0 -578058 15483.8 0 -576758 15309.8 0 -575462 15137.5 0 -574170 14967 0 -572882 14798.1 0 -571599 14631 0 -570319 14465.4 0 -569043 14301.6 0 -567771 14139.3 0 -566502 13978.7 0 -565238 13819.7 0 -563976 13662.2 0 -562719 13506.3 0 -561464 13351.9 0 -560213 13199 0 -558965 13047.7 0 -557720 12897.8 0 -556479 12749.5 0 -555240 12602.5 0 -554004 12457.1 0 -552771 12313 0 -551540 12170.4 0 -550312 12029.2 0 -549087 11889.4 0 -547864 11751 0 -546643 11613.9 0 -545424 11478.1 0 -544208 11343.7 0 -542993 11210.6 0 -541780 11078.8 0 -540569 10948.3 0 -539360 10819.1 0 -538152 10691 0 -536946 10564.3 0 -535741 10438.7 0 -534537 10314.3 0 -533334 10191 0 -532133 10068.9 0 -530932 9947.97 0 -529732 9828.08 0 -528533 9709.25 0 -527334 9591.46 0 -526135 9474.68 0 -524937 9358.88 0 -523739 9244.01 0 -522541 9130.06 0 -521343 9016.98 0 -520145 8904.73 0 -518946 8793.28 0 -517747 8682.58 0 -516548 8572.6 0 -515348 8463.28 0 -514147 8354.57 0 -512945 8246.44 0 -511742 8138.84 0 -510539 8031.7 0 -509334 7924.97 0 -508128 7818.61 0 -506920 7712.55 0 -505711 7606.74 0 -504501 7501.13 0 -503289 7395.64 0 -502076 7290.23 0 -500860 7184.84 0 -499644 7079.4 0 -498425 6973.85 0 -497205 6868.15 0 -495982 6762.23 0 -494758 6656.03 0 -493533 6549.5 0 -492305 6442.59 0 -491076 6335.24 0 -489845 6227.41 0 -488612 6119.05 0 -487378 6010.13 0 -486142 5900.59 0 -484905 5790.41 0 -483666 5679.55 0 -482426 5567.99 0 -648886 29821.9 0 -647264 29481.7 0 -645652 29146 0 -644049 28815 0 -642455 28488.3 0 -640870 28166 0 -639293 27847.9 0 -637725 27534 0 -636165 27224.1 0 -634614 26918.2 0 -633071 26616.2 0 -631535 26317.9 0 -630008 26023.5 0 -628488 25732.6 0 -626977 25445.4 0 -625472 25161.6 0 -623975 24881.3 0 -622486 24604.4 0 -621003 24330.8 0 -619528 24060.4 0 -618060 23793.2 0 -616598 23529.1 0 -615144 23268 0 -613696 23010 0 -612254 22754.9 0 -610820 22502.7 0 -609391 22253.4 0 -607969 22006.8 0 -606553 21763 0 -605144 21521.9 0 -603740 21283.4 0 -602342 21047.5 0 -600950 20814.2 0 -599564 20583.4 0 -598184 20355.1 0 -596809 20129.2 0 -595440 19905.8 0 -594076 19684.6 0 -592717 19465.8 0 -591364 19249.3 0 -590016 19035.1 0 -588673 18823 0 -587335 18613.2 0 -586002 18405.5 0 -584674 18199.9 0 -583350 17996.4 0 -582032 17795 0 -580717 17595.6 0 -579408 17398.3 0 -578103 17202.9 0 -576802 17009.5 0 -575505 16818.1 0 -574213 16628.5 0 -572925 16440.8 0 -571641 16255 0 -570361 16071.1 0 -569085 15889 0 -567812 15708.7 0 -566544 15530.1 0 -565278 15353.4 0 -564017 15178.4 0 -562759 15005.1 0 -561504 14833.5 0 -560253 14663.7 0 -559005 14495.5 0 -557760 14328.9 0 -556518 14164 0 -555279 14000.8 0 -554043 13839.1 0 -552810 13679 0 -551579 13520.6 0 -550351 13363.6 0 -549125 13208.3 0 -547902 13054.4 0 -546681 12902.1 0 -545462 12751.3 0 -544245 12601.9 0 -543031 12454 0 -541818 12307.6 0 -540607 12162.5 0 -539397 12018.9 0 -538189 11876.7 0 -536983 11735.8 0 -535778 11596.3 0 -534574 11458.1 0 -533371 11321.2 0 -532169 11185.6 0 -530969 11051.2 0 -529768 10918 0 -528569 10786 0 -527370 10655.2 0 -526171 10525.5 0 -524973 10396.9 0 -523774 10269.3 0 -522576 10142.7 0 -521378 10017.2 0 -520180 9892.51 0 -518981 9768.74 0 -517781 9645.82 0 -516582 9523.69 0 -515381 9402.3 0 -514180 9281.61 0 -512978 9161.54 0 -511775 9042.06 0 -510570 8923.11 0 -509365 8804.61 0 -508158 8686.52 0 -506950 8568.77 0 -505741 8451.29 0 -504530 8334.03 0 -503317 8216.91 0 -502103 8099.87 0 -500887 7982.84 0 -499670 7865.77 0 -498450 7748.58 0 -497229 7631.2 0 -496006 7513.58 0 -494781 7395.64 0 -493555 7277.34 0 -492326 7158.61 0 -491096 7039.39 0 -489864 6919.63 0 -488631 6799.28 0 -487396 6678.29 0 -486159 6556.61 0 -484921 6434.22 0 -483681 6311.07 0 -482440 6187.13 0 -648974 32804.9 0 -647352 32430.6 0 -645739 32061.4 0 -644135 31697.2 0 -642539 31337.8 0 -640953 30983.2 0 -639375 30633.3 0 -637806 30287.9 0 -636245 29947 0 -634693 29610.5 0 -633148 29278.2 0 -631612 28950.2 0 -630084 28626.2 0 -628563 28306.2 0 -627050 27990.2 0 -625545 27678.1 0 -624047 27369.7 0 -622556 27065 0 -621073 26764 0 -619597 26466.5 0 -618128 26172.5 0 -616665 25881.9 0 -615210 25594.8 0 -613761 25310.9 0 -612319 25030.2 0 -610884 24752.8 0 -609454 24478.4 0 -608031 24207.2 0 -606615 23938.9 0 -605204 23673.6 0 -603800 23411.2 0 -602401 23151.7 0 -601009 22895 0 -599622 22641.1 0 -598241 22389.9 0 -596865 22141.4 0 -595496 21895.5 0 -594131 21652.2 0 -592772 21411.4 0 -591418 21173.2 0 -590069 20937.5 0 -588726 20704.2 0 -587387 20473.3 0 -586054 20244.7 0 -584725 20018.5 0 -583401 19794.7 0 -582082 19573.1 0 -580767 19353.7 0 -579457 19136.6 0 -578151 18921.6 0 -576850 18708.8 0 -575553 18498.1 0 -574261 18289.6 0 -572972 18083.1 0 -571688 17878.7 0 -570407 17676.3 0 -569131 17475.9 0 -567858 17277.5 0 -566589 17081.1 0 -565324 16886.6 0 -564062 16694 0 -562803 16503.3 0 -561549 16314.6 0 -560297 16127.7 0 -559049 15942.6 0 -557804 15759.4 0 -556561 15577.9 0 -555322 15398.3 0 -554086 15220.5 0 -552852 15044.4 0 -551621 14870 0 -550393 14697.4 0 -549167 14526.4 0 -547944 14357.2 0 -546723 14189.6 0 -545504 14023.7 0 -544287 13859.4 0 -543072 13696.7 0 -541859 13535.6 0 -540648 13376.1 0 -539439 13218.1 0 -538231 13061.7 0 -537024 12906.7 0 -535819 12753.3 0 -534615 12601.3 0 -533412 12450.7 0 -532210 12301.5 0 -531009 12153.7 0 -529809 12007.3 0 -528609 11862.2 0 -527410 11718.3 0 -526211 11575.7 0 -525012 11434.3 0 -523814 11294 0 -522615 11154.9 0 -521417 11016.8 0 -520218 10879.8 0 -519019 10743.7 0 -517819 10608.6 0 -516619 10474.3 0 -515418 10340.9 0 -514216 10208.2 0 -513014 10076.3 0 -511810 9944.94 0 -510605 9814.19 0 -509399 9683.96 0 -508192 9554.16 0 -506984 9424.74 0 -505773 9295.62 0 -504562 9166.74 0 -503349 9038.01 0 -502134 8909.37 0 -500917 8780.75 0 -499699 8652.06 0 -498478 8523.25 0 -497256 8394.22 0 -496032 8264.92 0 -494807 8135.28 0 -493579 8005.22 0 -492350 7874.69 0 -491119 7743.61 0 -489886 7611.93 0 -488651 7479.6 0 -487415 7346.56 0 -486177 7212.76 0 -484938 7078.16 0 -483697 6942.72 0 -482456 6806.42 0 -649071 35788.1 0 -647448 35379.8 0 -645833 34977 0 -644228 34579.6 0 -642631 34187.6 0 -641044 33800.7 0 -639465 33418.9 0 -637895 33042.1 0 -636333 32670.2 0 -634779 32303 0 -633234 31940.5 0 -631696 31582.5 0 -630167 31229 0 -628645 30880 0 -627131 30535.2 0 -625625 30194.6 0 -624126 29858.1 0 -622634 29525.7 0 -621150 29197.2 0 -619672 28872.6 0 -618202 28551.8 0 -616739 28234.8 0 -615283 27921.5 0 -613833 27611.7 0 -612390 27305.5 0 -610953 27002.7 0 -609523 26703.4 0 -608100 26407.4 0 -606682 26114.7 0 -605271 25825.2 0 -603866 25538.9 0 -602466 25255.8 0 -601073 24975.7 0 -599685 24698.6 0 -598303 24424.5 0 -596927 24153.3 0 -595557 23885 0 -594191 23619.5 0 -592831 23356.8 0 -591477 23096.8 0 -590128 22839.6 0 -588783 22585 0 -587444 22333 0 -586110 22083.7 0 -584781 21836.9 0 -583456 21592.5 0 -582136 21350.7 0 -580821 21111.4 0 -579511 20874.4 0 -578205 20639.8 0 -576903 20407.6 0 -575606 20177.7 0 -574312 19950.1 0 -573024 19724.8 0 -571739 19501.7 0 -570458 19280.9 0 -569181 19062.2 0 -567908 18845.7 0 -566638 18631.4 0 -565373 18419.1 0 -564111 18209 0 -562852 18001 0 -561597 17795 0 -560345 17591 0 -559096 17389.1 0 -557851 17189.1 0 -556609 16991.2 0 -555369 16795.2 0 -554133 16601.1 0 -552899 16409 0 -551668 16218.7 0 -550440 16030.3 0 -549214 15843.8 0 -547990 15659.2 0 -546769 15476.3 0 -545550 15295.3 0 -544333 15116.1 0 -543118 14938.6 0 -541905 14762.8 0 -540693 14588.8 0 -539484 14416.5 0 -538276 14245.8 0 -537069 14076.8 0 -535864 13909.4 0 -534660 13743.6 0 -533456 13579.4 0 -532254 13416.7 0 -531053 13255.6 0 -529853 13095.8 0 -528653 12937.6 0 -527453 12780.7 0 -526254 12625.2 0 -525055 12471 0 -523857 12318 0 -522658 12166.3 0 -521459 12015.8 0 -520260 11866.4 0 -519060 11718.1 0 -517860 11570.8 0 -516660 11424.5 0 -515459 11279 0 -514256 11134.4 0 -513053 10990.6 0 -511849 10847.4 0 -510644 10704.9 0 -509437 10563 0 -508229 10421.5 0 -507020 10280.4 0 -505809 10139.7 0 -504597 9999.25 0 -503383 9858.95 0 -502167 9718.74 0 -500949 9578.54 0 -499730 9438.27 0 -498509 9297.86 0 -497286 9157.21 0 -496061 9016.26 0 -494835 8874.93 0 -493606 8733.14 0 -492376 8590.82 0 -491144 8447.91 0 -489910 8304.33 0 -488674 8160.03 0 -487437 8014.95 0 -486198 7869.04 0 -484957 7722.25 0 -483716 7574.54 0 -482473 7425.87 0 -649177 38771.7 0 -647552 38329.3 0 -645936 37892.9 0 -644329 37462.3 0 -642731 37037.6 0 -641143 36618.4 0 -639562 36204.8 0 -637991 35796.5 0 -636428 35393.5 0 -634873 34995.7 0 -633326 34602.9 0 -631787 34215.1 0 -630257 33832.1 0 -628734 33453.8 0 -627219 33080.2 0 -625711 32711.2 0 -624211 32346.6 0 -622718 31986.4 0 -621233 31630.5 0 -619754 31278.8 0 -618283 30931.2 0 -616819 30587.7 0 -615361 30248.2 0 -613911 29912.5 0 -612467 29580.7 0 -611029 29252.7 0 -609598 28928.3 0 -608174 28607.6 0 -606755 28290.4 0 -605343 27976.7 0 -603937 27666.5 0 -602537 27359.6 0 -601142 27056.1 0 -599754 26755.9 0 -598371 26458.8 0 -596994 26165 0 -595623 25874.2 0 -594257 25586.5 0 -592896 25301.9 0 -591541 25020.2 0 -590191 24741.4 0 -588846 24465.5 0 -587506 24192.5 0 -586171 23922.2 0 -584841 23654.8 0 -583516 23390 0 -582196 23128 0 -58