<?xml version="1.0"?> 
<VTKFile type="StructuredGrid" version="0.1"> 
<StructuredGrid WholeExtent="0 127 0 127 0 0"> 
<Piece Extent="0 127 0 127 0 0"> 
<PointData>
<DataArray type="Float32" Name="E" format="ascii" NumberOfComponents="3"> 
3.00495e+06 1.71661e-05 0 3.00493e+06 -7.97212e-06 0 3.0049e+06 2.22027e-06 0 3.00484e+06 1.78814e-06 0 3.00476e+06 -4.08292e-06 0 3.00465e+06 3.93391e-06 0 3.00452e+06 -4.05312e-06 0 3.00436e+06 5.96046e-07 0 3.00418e+06 1.90735e-06 0 3.00398e+06 -3.8147e-06 0 3.00375e+06 4.05312e-06 0 3.0035e+06 -3.45707e-06 0 3.00323e+06 3.33786e-06 0 3.00293e+06 -3.21865e-06 0 3.0026e+06 3.57628e-06 0 3.00226e+06 -3.8147e-06 0 3.00188e+06 3.8147e-06 0 3.00149e+06 -4.17233e-06 0 3.00106e+06 3.09944e-06 0 3.00062e+06 -3.33786e-06 0 3.00015e+06 3.33786e-06 0 2.99965e+06 -3.57628e-06 0 2.99913e+06 2.6226e-06 0 2.99858e+06 -2.86102e-06 0 2.99801e+06 2.86102e-06 0 2.99741e+06 -2.86102e-06 0 2.99679e+06 2.86102e-06 0 2.99614e+06 -2.14577e-06 0 2.99546e+06 2.38419e-06 0 2.99476e+06 -1.66893e-06 0 2.99404e+06 1.66893e-06 0 2.99328e+06 -3.57628e-06 0 2.9925e+06 4.76837e-07 0 2.99169e+06 0 0 2.99086e+06 0 0 2.98999e+06 7.15256e-07 0 2.9891e+06 -4.76837e-07 0 2.98819e+06 -9.53674e-07 0 2.98724e+06 9.53674e-07 0 2.98626e+06 -4.76837e-07 0 2.98526e+06 4.76837e-07 0 2.98423e+06 0 0 2.98317e+06 9.53674e-07 0 2.98207e+06 -9.53674e-07 0 2.98095e+06 0 0 2.9798e+06 -4.76837e-07 0 2.97862e+06 4.76837e-07 0 2.9774e+06 -4.76837e-07 0 2.97616e+06 4.76837e-07 0 2.97488e+06 0 0 2.97357e+06 9.53674e-07 0 2.97223e+06 4.76837e-07 0 2.97085e+06 9.53674e-07 0 2.96944e+06 -4.76837e-07 0 2.968e+06 4.76837e-07 0 2.96652e+06 0 0 2.965e+06 0 0 2.96345e+06 -4.76837e-07 0 2.96186e+06 4.76837e-07 0 2.96024e+06 0 0 2.95858e+06 -9.53674e-07 0 2.95688e+06 4.76837e-07 0 2.95514e+06 9.53674e-07 0 2.95335e+06 9.53674e-07 0 2.95153e+06 -9.53674e-07 0 2.94967e+06 0 0 2.94776e+06 -4.76837e-07 0 2.94581e+06 0 0 2.94382e+06 -4.76837e-07 0 2.94178e+06 4.76837e-07 0 2.93969e+06 -4.76837e-07 0 2.93755e+06 9.53674e-07 0 2.93537e+06 -9.53674e-07 0 2.93314e+06 9.53674e-07 0 2.93085e+06 -9.53674e-07 0 2.92851e+06 9.53674e-07 0 2.92611e+06 -9.53674e-07 0 2.92366e+06 9.53674e-07 0 2.92115e+06 -1.90735e-06 0 2.91858e+06 9.53674e-07 0 2.91595e+06 -1.90735e-06 0 2.91326e+06 1.90735e-06 0 2.91049e+06 -1.90735e-06 0 2.90766e+06 1.90735e-06 0 2.90476e+06 -1.90735e-06 0 2.90179e+06 1.90735e-06 0 2.89873e+06 -2.86102e-06 0 2.8956e+06 1.90735e-06 0 2.89238e+06 -2.86102e-06 0 2.88908e+06 2.86102e-06 0 2.88569e+06 -2.86102e-06 0 2.8822e+06 1.90735e-06 0 2.8786e+06 -2.86102e-06 0 2.87491e+06 2.86102e-06 0 2.8711e+06 -2.86102e-06 0 2.86718e+06 2.86102e-06 0 2.86313e+06 -2.86102e-06 0 2.85895e+06 2.86102e-06 0 2.85463e+06 -1.90735e-06 0 2.85016e+06 9.53674e-07 0 2.84553e+06 9.53674e-07 0 2.84073e+06 0 0 2.83576e+06 1.90735e-06 0 2.83058e+06 -9.53674e-07 0 2.8252e+06 9.53674e-07 0 2.81959e+06 -1.90735e-06 0 2.81373e+06 3.8147e-06 0 2.80761e+06 -1.90735e-06 0 2.8012e+06 9.53674e-07 0 2.79446e+06 -2.86102e-06 0 2.78738e+06 5.72205e-06 0 2.77992e+06 -4.76837e-06 0 2.77203e+06 1.90735e-06 0 2.76368e+06 9.53674e-07 0 2.75481e+06 -2.86102e-06 0 2.74536e+06 0 0 2.73528e+06 9.53674e-07 0 2.72448e+06 -3.8147e-06 0 2.71288e+06 7.62939e-06 0 2.70038e+06 -8.58307e-06 0 2.68686e+06 4.76837e-06 0 2.67219e+06 9.53674e-07 0 2.65623e+06 -3.8147e-06 0 2.63879e+06 1.90735e-06 0 2.61967e+06 0 0 2.59864e+06 -3.8147e-06 0 2.57543e+06 1.04904e-05 0 2.54971e+06 -1.52588e-05 0 3.01195e+06 0.00130948 0 3.01194e+06 -402.588 0 3.0119e+06 -805.267 0 3.01184e+06 -1208.13 0 3.01176e+06 -1611.26 0 3.01166e+06 -2014.75 0 3.01153e+06 -2418.7 0 3.01138e+06 -2823.19 0 3.01121e+06 -3228.32 0 3.01101e+06 -3634.18 0 3.01079e+06 -4040.86 0 3.01055e+06 -4448.46 0 3.01028e+06 -4857.07 0 3.00999e+06 -5266.79 0 3.00967e+06 -5677.71 0 3.00934e+06 -6089.94 0 3.00897e+06 -6503.57 0 3.00859e+06 -6918.71 0 3.00818e+06 -7335.45 0 3.00775e+06 -7753.9 0 3.00729e+06 -8174.18 0 3.00681e+06 -8596.37 0 3.0063e+06 -9020.61 0 3.00577e+06 -9446.99 0 3.00522e+06 -9875.64 0 3.00464e+06 -10306.7 0 3.00404e+06 -10740.2 0 3.00341e+06 -11176.3 0 3.00276e+06 -11615.2 0 3.00208e+06 -12057 0 3.00137e+06 -12501.8 0 3.00064e+06 -12949.7 0 2.99989e+06 -13400.9 0 2.99911e+06 -13855.5 0 2.9983e+06 -14313.7 0 2.99747e+06 -14775.7 0 2.99661e+06 -15241.5 0 2.99573e+06 -15711.3 0 2.99481e+06 -16185.4 0 2.99388e+06 -16663.8 0 2.99291e+06 -17146.8 0 2.99192e+06 -17634.5 0 2.99089e+06 -18127.1 0 2.98985e+06 -18624.9 0 2.98877e+06 -19128 0 2.98766e+06 -19636.6 0 2.98653e+06 -20151 0 2.98536e+06 -20671.4 0 2.98417e+06 -21198 0 2.98295e+06 -21731.1 0 2.9817e+06 -22270.9 0 2.98041e+06 -22817.7 0 2.9791e+06 -23371.8 0 2.97775e+06 -23933.4 0 2.97638e+06 -24502.9 0 2.97497e+06 -25080.6 0 2.97353e+06 -25666.8 0 2.97206e+06 -26261.8 0 2.97055e+06 -26866.1 0 2.96901e+06 -27480 0 2.96744e+06 -28103.9 0 2.96583e+06 -28738.2 0 2.96419e+06 -29383.4 0 2.96252e+06 -30039.9 0 2.9608e+06 -30708.3 0 2.95905e+06 -31388.9 0 2.95727e+06 -32082.4 0 2.95544e+06 -32789.4 0 2.95358e+06 -33510.4 0 2.95168e+06 -34246 0 2.94974e+06 -34997 0 2.94776e+06 -35764 0 2.94574e+06 -36547.9 0 2.94368e+06 -37349.3 0 2.94157e+06 -38169.1 0 2.93943e+06 -39008.3 0 2.93724e+06 -39867.7 0 2.935e+06 -40748.4 0 2.93273e+06 -41651.4 0 2.9304e+06 -42577.9 0 2.92803e+06 -43529.2 0 2.92561e+06 -44506.4 0 2.92315e+06 -45511 0 2.92063e+06 -46544.5 0 2.91807e+06 -47608.4 0 2.91545e+06 -48704.4 0 2.91279e+06 -49834.4 0 2.91007e+06 -51000.3 0 2.9073e+06 -52204.2 0 2.90447e+06 -53448.3 0 2.90159e+06 -54735 0 2.89866e+06 -56066.9 0 2.89567e+06 -57446.8 0 2.89262e+06 -58877.8 0 2.88952e+06 -60363.1 0 2.88636e+06 -61906.2 0 2.88314e+06 -63510.9 0 2.87987e+06 -65181.3 0 2.87654e+06 -66921.9 0 2.87316e+06 -68737.5 0 2.86972e+06 -70633.4 0 2.86623e+06 -72615.3 0 2.86268e+06 -74689.4 0 2.85909e+06 -76862.4 0 2.85546e+06 -79141.8 0 2.85178e+06 -81535.5 0 2.84807e+06 -84052.3 0 2.84434e+06 -86701.9 0 2.84058e+06 -89494.7 0 2.83681e+06 -92442.1 0 2.83304e+06 -95556.9 0 2.82929e+06 -98852.7 0 2.82557e+06 -102345 0 2.82191e+06 -106050 0 2.81833e+06 -109986 0 2.81486e+06 -114173 0 2.81153e+06 -118634 0 2.80838e+06 -123392 0 2.80548e+06 -128475 0 2.80287e+06 -133913 0 2.80063e+06 -139737 0 2.79885e+06 -145985 0 2.79761e+06 -152696 0 2.79705e+06 -159915 0 2.79729e+06 -167690 0 2.79852e+06 -176075 0 2.80091e+06 -185131 0 2.80471e+06 -194925 0 3.03221e+06 0.00226723 0 3.0322e+06 -777.856 0 3.03217e+06 -1555.87 0 3.03212e+06 -2334.2 0 3.03205e+06 -3112.99 0 3.03196e+06 -3892.41 0 3.03184e+06 -4672.61 0 3.03171e+06 -5453.75 0 3.03155e+06 -6235.99 0 3.03138e+06 -7019.48 0 3.03118e+06 -7804.39 0 3.03097e+06 -8590.88 0 3.03073e+06 -9379.1 0 3.03047e+06 -10169.2 0 3.03019e+06 -10961.4 0 3.02989e+06 -11755.9 0 3.02957e+06 -12552.7 0 3.02923e+06 -13352.1 0 3.02887e+06 -14154.3 0 3.02848e+06 -14959.4 0 3.02808e+06 -15767.5 0 3.02765e+06 -16579 0 3.0272e+06 -17393.9 0 3.02674e+06 -18212.5 0 3.02625e+06 -19034.9 0 3.02574e+06 -19861.4 0 3.0252e+06 -20692 0 3.02465e+06 -21527.1 0 3.02407e+06 -22366.8 0 3.02348e+06 -23211.3 0 3.02286e+06 -24060.9 0 3.02222e+06 -24915.8 0 3.02156e+06 -25776.1 0 3.02087e+06 -26642.1 0 3.02017e+06 -27514 0 3.01944e+06 -28392.1 0 3.01869e+06 -29276.6 0 3.01792e+06 -30167.8 0 3.01712e+06 -31065.8 0 3.01631e+06 -31971 0 3.01547e+06 -32883.7 0 3.01461e+06 -33804 0 3.01372e+06 -34732.3 0 3.01281e+06 -35668.9 0 3.01188e+06 -36614 0 3.01093e+06 -37568 0 3.00996e+06 -38531.2 0 3.00896e+06 -39503.9 0 3.00794e+06 -40486.4 0 3.00689e+06 -41479.1 0 3.00582e+06 -42482.3 0 3.00473e+06 -43496.4 0 3.00361e+06 -44521.7 0 3.00247e+06 -45558.7 0 3.00131e+06 -46607.7 0 3.00012e+06 -47669.1 0 2.99891e+06 -48743.5 0 2.99768e+06 -49831.1 0 2.99642e+06 -50932.5 0 2.99514e+06 -52048.2 0 2.99383e+06 -53178.5 0 2.9925e+06 -54324.1 0 2.99115e+06 -55485.4 0 2.98977e+06 -56662.9 0 2.98836e+06 -57857.3 0 2.98694e+06 -59069 0 2.98548e+06 -60298.7 0 2.98401e+06 -61547 0 2.98251e+06 -62814.5 0 2.98098e+06 -64101.9 0 2.97944e+06 -65409.9 0 2.97786e+06 -66739 0 2.97627e+06 -68090.2 0 2.97465e+06 -69464.1 0 2.97301e+06 -70861.5 0 2.97134e+06 -72283.1 0 2.96965e+06 -73729.9 0 2.96794e+06 -75202.7 0 2.96621e+06 -76702.3 0 2.96445e+06 -78229.7 0 2.96267e+06 -79785.8 0 2.96087e+06 -81371.6 0 2.95905e+06 -82988 0 2.95721e+06 -84636.1 0 2.95535e+06 -86316.9 0 2.95348e+06 -88031.5 0 2.95158e+06 -89781 0 2.94967e+06 -91566.5 0 2.94774e+06 -93389.2 0 2.9458e+06 -95250.1 0 2.94384e+06 -97150.5 0 2.94187e+06 -99091.5 0 2.93989e+06 -101074 0 2.9379e+06 -103100 0 2.93591e+06 -105170 0 2.9339e+06 -107285 0 2.9319e+06 -109447 0 2.92989e+06 -111656 0 2.92788e+06 -113914 0 2.92588e+06 -116220 0 2.92388e+06 -118578 0 2.92189e+06 -120986 0 2.91991e+06 -123445 0 2.91794e+06 -125956 0 2.91599e+06 -128520 0 2.91407e+06 -131135 0 2.91216e+06 -133801 0 2.91028e+06 -136518 0 2.90843e+06 -139284 0 2.90662e+06 -142097 0 2.90484e+06 -144956 0 2.90309e+06 -147856 0 2.90138e+06 -150793 0 2.89971e+06 -153763 0 2.89808e+06 -156760 0 2.89648e+06 -159775 0 2.89492e+06 -162800 0 2.89337e+06 -165824 0 2.89184e+06 -168833 0 2.89031e+06 -171813 0 2.88876e+06 -174744 0 2.88715e+06 -177606 0 2.88547e+06 -180373 0 2.88367e+06 -183016 0 2.88168e+06 -185500 0 2.87945e+06 -187785 0 2.87688e+06 -189825 0 2.87387e+06 -191564 0 3.06412e+06 0.00267863 0 3.06411e+06 -1101.17 0 3.06409e+06 -2202.52 0 3.06404e+06 -3304.24 0 3.06398e+06 -4406.52 0 3.06391e+06 -5509.53 0 3.06381e+06 -6613.47 0 3.0637e+06 -7718.51 0 3.06358e+06 -8824.84 0 3.06343e+06 -9932.66 0 3.06327e+06 -11042.1 0 3.06309e+06 -12153.5 0 3.0629e+06 -13266.9 0 3.06268e+06 -14382.5 0 3.06245e+06 -15500.5 0 3.06221e+06 -16621.2 0 3.06195e+06 -17744.6 0 3.06167e+06 -18871.1 0 3.06137e+06 -20000.8 0 3.06105e+06 -21133.8 0 3.06072e+06 -22270.5 0 3.06037e+06 -23411 0 3.06001e+06 -24555.5 0 3.05963e+06 -25704.2 0 3.05923e+06 -26857.3 0 3.05881e+06 -28015.1 0 3.05838e+06 -29177.7 0 3.05793e+06 -30345.4 0 3.05746e+06 -31518.3 0 3.05697e+06 -32696.7 0 3.05647e+06 -33880.9 0 3.05595e+06 -35071 0 3.05542e+06 -36267.3 0 3.05487e+06 -37470 0 3.0543e+06 -38679.4 0 3.05371e+06 -39895.7 0 3.05311e+06 -41119 0 3.05249e+06 -42349.8 0 3.05185e+06 -43588.2 0 3.0512e+06 -44834.4 0 3.05053e+06 -46088.8 0 3.04984e+06 -47351.6 0 3.04913e+06 -48623.1 0 3.04841e+06 -49903.5 0 3.04767e+06 -51193.1 0 3.04692e+06 -52492.2 0 3.04615e+06 -53801.1 0 3.04536e+06 -55120 0 3.04456e+06 -56449.3 0 3.04374e+06 -57789.2 0 3.0429e+06 -59140 0 3.04205e+06 -60502.2 0 3.04118e+06 -61875.9 0 3.04029e+06 -63261.4 0 3.03939e+06 -64659.2 0 3.03847e+06 -66069.5 0 3.03754e+06 -67492.6 0 3.03659e+06 -68929 0 3.03562e+06 -70378.8 0 3.03464e+06 -71842.6 0 3.03365e+06 -73320.5 0 3.03264e+06 -74813.1 0 3.03161e+06 -76320.5 0 3.03057e+06 -77843.3 0 3.02951e+06 -79381.7 0 3.02845e+06 -80936.2 0 3.02736e+06 -82507 0 3.02626e+06 -84094.6 0 3.02515e+06 -85699.4 0 3.02403e+06 -87321.7 0 3.02289e+06 -88961.9 0 3.02174e+06 -90620.4 0 3.02058e+06 -92297.6 0 3.0194e+06 -93993.8 0 3.01822e+06 -95709.5 0 3.01702e+06 -97444.9 0 3.01581e+06 -99200.6 0 3.01459e+06 -100977 0 3.01336e+06 -102774 0 3.01212e+06 -104592 0 3.01087e+06 -106432 0 3.00962e+06 -108294 0 3.00835e+06 -110179 0 3.00708e+06 -112086 0 3.0058e+06 -114015 0 3.00451e+06 -115968 0 3.00322e+06 -117945 0 3.00192e+06 -119945 0 3.00062e+06 -121969 0 2.99932e+06 -124017 0 2.99801e+06 -126090 0 2.9967e+06 -128187 0 2.99538e+06 -130308 0 2.99407e+06 -132454 0 2.99275e+06 -134625 0 2.99144e+06 -136820 0 2.99013e+06 -139040 0 2.98881e+06 -141285 0 2.9875e+06 -143554 0 2.9862e+06 -145846 0 2.98489e+06 -148163 0 2.98359e+06 -150504 0 2.9823e+06 -152868 0 2.98101e+06 -155254 0 2.97973e+06 -157664 0 2.97845e+06 -160096 0 2.97718e+06 -162549 0 2.97592e+06 -165024 0 2.97467e+06 -167520 0 2.97342e+06 -170037 0 2.97218e+06 -172575 0 2.97095e+06 -175133 0 2.96974e+06 -177712 0 2.96853e+06 -180312 0 2.96734e+06 -182934 0 2.96616e+06 -185578 0 2.965e+06 -188247 0 2.96386e+06 -190943 0 2.96275e+06 -193668 0 2.96167e+06 -196428 0 2.96064e+06 -199226 0 2.95966e+06 -202072 0 2.95874e+06 -204972 0 2.95792e+06 -207937 0 2.95721e+06 -210983 0 2.95665e+06 -214124 0 2.95627e+06 -217382 0 2.95614e+06 -220783 0 3.10549e+06 0.0026342 0 3.10548e+06 -1361.65 0 3.10546e+06 -2723.49 0 3.10543e+06 -4085.68 0 3.10538e+06 -5448.43 0 3.10532e+06 -6811.89 0 3.10525e+06 -8176.27 0 3.10517e+06 -9541.73 0 3.10507e+06 -10908.5 0 3.10496e+06 -12276.7 0 3.10483e+06 -13646.5 0 3.1047e+06 -15018.1 0 3.10455e+06 -16391.8 0 3.10438e+06 -17767.6 0 3.10421e+06 -19145.8 0 3.10402e+06 -20526.6 0 3.10381e+06 -21910.1 0 3.1036e+06 -23296.5 0 3.10337e+06 -24686 0 3.10313e+06 -26078.9 0 3.10288e+06 -27475.2 0 3.10261e+06 -28875.3 0 3.10233e+06 -30279.2 0 3.10204e+06 -31687.1 0 3.10173e+06 -33099.3 0 3.10142e+06 -34516 0 3.10108e+06 -35937.3 0 3.10074e+06 -37363.5 0 3.10039e+06 -38794.6 0 3.10002e+06 -40231.1 0 3.09964e+06 -41672.9 0 3.09924e+06 -43120.4 0 3.09884e+06 -44573.7 0 3.09842e+06 -46033 0 3.09799e+06 -47498.6 0 3.09755e+06 -48970.6 0 3.09709e+06 -50449.2 0 3.09663e+06 -51934.8 0 3.09615e+06 -53427.3 0 3.09566e+06 -54927.1 0 3.09515e+06 -56434.4 0 3.09464e+06 -57949.4 0 3.09411e+06 -59472.3 0 3.09357e+06 -61003.3 0 3.09302e+06 -62542.6 0 3.09246e+06 -64090.4 0 3.09189e+06 -65647 0 3.0913e+06 -67212.6 0 3.09071e+06 -68787.3 0 3.0901e+06 -70371.4 0 3.08949e+06 -71965.2 0 3.08886e+06 -73568.8 0 3.08822e+06 -75182.4 0 3.08757e+06 -76806.3 0 3.08691e+06 -78440.7 0 3.08624e+06 -80085.8 0 3.08556e+06 -81741.8 0 3.08487e+06 -83408.9 0 3.08417e+06 -85087.4 0 3.08346e+06 -86777.5 0 3.08274e+06 -88479.3 0 3.08201e+06 -90193.2 0 3.08127e+06 -91919.2 0 3.08053e+06 -93657.7 0 3.07977e+06 -95408.8 0 3.07901e+06 -97172.7 0 3.07824e+06 -98949.7 0 3.07746e+06 -100740 0 3.07667e+06 -102543 0 3.07587e+06 -104361 0 3.07507e+06 -106192 0 3.07426e+06 -108037 0 3.07344e+06 -109896 0 3.07262e+06 -111769 0 3.07179e+06 -113657 0 3.07095e+06 -115560 0 3.07011e+06 -117478 0 3.06926e+06 -119410 0 3.06841e+06 -121358 0 3.06755e+06 -123320 0 3.06669e+06 -125299 0 3.06583e+06 -127292 0 3.06496e+06 -129301 0 3.06408e+06 -131326 0 3.06321e+06 -133367 0 3.06233e+06 -135424 0 3.06145e+06 -137496 0 3.06056e+06 -139584 0 3.05967e+06 -141689 0 3.05879e+06 -143809 0 3.0579e+06 -145945 0 3.05701e+06 -148098 0 3.05612e+06 -150266 0 3.05523e+06 -152451 0 3.05434e+06 -154651 0 3.05345e+06 -156868 0 3.05256e+06 -159100 0 3.05168e+06 -161348 0 3.05079e+06 -163612 0 3.04991e+06 -165891 0 3.04903e+06 -168186 0 3.04816e+06 -170496 0 3.04728e+06 -172822 0 3.04641e+06 -175162 0 3.04555e+06 -177517 0 3.04469e+06 -179887 0 3.04384e+06 -182272 0 3.04299e+06 -184670 0 3.04215e+06 -187082 0 3.04131e+06 -189507 0 3.04048e+06 -191946 0 3.03966e+06 -194396 0 3.03884e+06 -196859 0 3.03803e+06 -199332 0 3.03723e+06 -201815 0 3.03644e+06 -204307 0 3.03565e+06 -206807 0 3.03487e+06 -209311 0 3.03409e+06 -211820 0 3.03331e+06 -214329 0 3.03252e+06 -216835 0 3.03173e+06 -219335 0 3.03093e+06 -221823 0 3.0301e+06 -224293 0 3.02923e+06 -226737 0 3.02831e+06 -229146 0 3.02732e+06 -231509 0 3.02623e+06 -233810 0 3.15405e+06 0.00235892 0 3.15405e+06 -1559.83 0 3.15403e+06 -3119.83 0 3.15401e+06 -4680.15 0 3.15398e+06 -6240.95 0 3.15393e+06 -7802.4 0 3.15388e+06 -9364.67 0 3.15382e+06 -10927.9 0 3.15375e+06 -12492.3 0 3.15367e+06 -14057.9 0 3.15358e+06 -15625 0 3.15348e+06 -17193.8 0 3.15337e+06 -18764.3 0 3.15325e+06 -20336.8 0 3.15313e+06 -21911.3 0 3.15299e+06 -23488.2 0 3.15284e+06 -25067.4 0 3.15269e+06 -26649.3 0 3.15253e+06 -28233.9 0 3.15235e+06 -29821.4 0 3.15217e+06 -31412.1 0 3.15198e+06 -33005.9 0 3.15178e+06 -34603.2 0 3.15157e+06 -36204 0 3.15135e+06 -37808.6 0 3.15112e+06 -39417 0 3.15088e+06 -41029.6 0 3.15064e+06 -42646.3 0 3.15038e+06 -44267.5 0 3.15012e+06 -45893.1 0 3.14985e+06 -47523.5 0 3.14957e+06 -49158.8 0 3.14928e+06 -50799.1 0 3.14898e+06 -52444.7 0 3.14868e+06 -54095.5 0 3.14836e+06 -55752 0 3.14804e+06 -57414.1 0 3.14771e+06 -59082 0 3.14737e+06 -60756 0 3.14702e+06 -62436.2 0 3.14666e+06 -64122.7 0 3.1463e+06 -65815.7 0 3.14593e+06 -67515.4 0 3.14555e+06 -69221.9 0 3.14516e+06 -70935.3 0 3.14477e+06 -72655.9 0 3.14437e+06 -74383.9 0 3.14396e+06 -76119.2 0 3.14354e+06 -77862.2 0 3.14312e+06 -79613 0 3.14269e+06 -81371.6 0 3.14225e+06 -83138.4 0 3.14181e+06 -84913.4 0 3.14135e+06 -86696.7 0 3.1409e+06 -88488.6 0 3.14043e+06 -90289.2 0 3.13996e+06 -92098.5 0 3.13948e+06 -93916.9 0 3.139e+06 -95744.3 0 3.13851e+06 -97581 0 3.13802e+06 -99427.1 0 3.13752e+06 -101283 0 3.13701e+06 -103148 0 3.1365e+06 -105023 0 3.13599e+06 -106908 0 3.13546e+06 -108803 0 3.13494e+06 -110708 0 3.13441e+06 -112624 0 3.13387e+06 -114549 0 3.13333e+06 -116486 0 3.13279e+06 -118433 0 3.13224e+06 -120390 0 3.13169e+06 -122359 0 3.13113e+06 -124338 0 3.13057e+06 -126329 0 3.13001e+06 -128330 0 3.12944e+06 -130343 0 3.12888e+06 -132367 0 3.12831e+06 -134402 0 3.12773e+06 -136449 0 3.12716e+06 -138507 0 3.12658e+06 -140576 0 3.126e+06 -142658 0 3.12542e+06 -144750 0 3.12483e+06 -146855 0 3.12425e+06 -148971 0 3.12366e+06 -151099 0 3.12307e+06 -153239 0 3.12249e+06 -155390 0 3.1219e+06 -157553 0 3.12131e+06 -159728 0 3.12072e+06 -161915 0 3.12013e+06 -164113 0 3.11954e+06 -166323 0 3.11895e+06 -168545 0 3.11836e+06 -170778 0 3.11777e+06 -173024 0 3.11719e+06 -175280 0 3.1166e+06 -177548 0 3.11602e+06 -179828 0 3.11543e+06 -182119 0 3.11485e+06 -184422 0 3.11427e+06 -186735 0 3.11369e+06 -189060 0 3.11311e+06 -191396 0 3.11253e+06 -193743 0 3.11196e+06 -196100 0 3.11138e+06 -198469 0 3.11081e+06 -200848 0 3.11024e+06 -203238 0 3.10967e+06 -205638 0 3.10911e+06 -208049 0 3.10854e+06 -210470 0 3.10798e+06 -212903 0 3.10741e+06 -215345 0 3.10685e+06 -217799 0 3.1063e+06 -220265 0 3.10574e+06 -222742 0 3.10519e+06 -225232 0 3.10464e+06 -227735 0 3.1041e+06 -230253 0 3.10356e+06 -232787 0 3.10304e+06 -235339 0 3.10253e+06 -237913 0 3.10204e+06 -240512 0 3.10157e+06 -243139 0 3.10115e+06 -245802 0 3.10077e+06 -248506 0 3.20775e+06 0.00199874 0 3.20775e+06 -1702.38 0 3.20774e+06 -3404.9 0 3.20772e+06 -5107.7 0 3.2077e+06 -6810.91 0 3.20767e+06 -8514.67 0 3.20764e+06 -10219.1 0 3.2076e+06 -11924.4 0 3.20755e+06 -13630.6 0 3.2075e+06 -15338 0 3.20744e+06 -17046.5 0 3.20737e+06 -18756.5 0 3.2073e+06 -20467.9 0 3.20722e+06 -22181 0 3.20713e+06 -23895.9 0 3.20704e+06 -25612.7 0 3.20695e+06 -27331.6 0 3.20684e+06 -29052.6 0 3.20673e+06 -30776 0 3.20662e+06 -32501.8 0 3.2065e+06 -34230.3 0 3.20637e+06 -35961.5 0 3.20624e+06 -37695.5 0 3.2061e+06 -39432.6 0 3.20595e+06 -41172.8 0 3.2058e+06 -42916.2 0 3.20564e+06 -44663.1 0 3.20548e+06 -46413.5 0 3.20531e+06 -48167.6 0 3.20514e+06 -49925.5 0 3.20496e+06 -51687.4 0 3.20477e+06 -53453.3 0 3.20458e+06 -55223.4 0 3.20439e+06 -56997.9 0 3.20419e+06 -58776.8 0 3.20398e+06 -60560.3 0 3.20377e+06 -62348.5 0 3.20355e+06 -64141.6 0 3.20333e+06 -65939.6 0 3.2031e+06 -67742.8 0 3.20287e+06 -69551.2 0 3.20263e+06 -71365 0 3.20239e+06 -73184.2 0 3.20214e+06 -75009.1 0 3.20189e+06 -76839.6 0 3.20164e+06 -78676.1 0 3.20138e+06 -80518.5 0 3.20111e+06 -82367 0 3.20084e+06 -84221.7 0 3.20057e+06 -86082.7 0 3.20029e+06 -87950.2 0 3.20001e+06 -89824.2 0 3.19972e+06 -91705 0 3.19943e+06 -93592.5 0 3.19914e+06 -95486.9 0 3.19884e+06 -97388.3 0 3.19854e+06 -99296.8 0 3.19823e+06 -101213 0 3.19793e+06 -103136 0 3.19761e+06 -105066 0 3.1973e+06 -107004 0 3.19698e+06 -108950 0 3.19666e+06 -110903 0 3.19634e+06 -112864 0 3.19601e+06 -114833 0 3.19568e+06 -116811 0 3.19535e+06 -118796 0 3.19502e+06 -120789 0 3.19468e+06 -122791 0 3.19434e+06 -124801 0 3.194e+06 -126819 0 3.19366e+06 -128846 0 3.19332e+06 -130882 0 3.19297e+06 -132926 0 3.19262e+06 -134979 0 3.19227e+06 -137041 0 3.19192e+06 -139111 0 3.19157e+06 -141191 0 3.19122e+06 -143279 0 3.19087e+06 -145377 0 3.19051e+06 -147483 0 3.19016e+06 -149599 0 3.1898e+06 -151724 0 3.18945e+06 -153858 0 3.18909e+06 -156002 0 3.18873e+06 -158155 0 3.18837e+06 -160317 0 3.18802e+06 -162489 0 3.18766e+06 -164670 0 3.1873e+06 -166860 0 3.18695e+06 -169060 0 3.18659e+06 -171270 0 3.18624e+06 -173489 0 3.18588e+06 -175718 0 3.18553e+06 -177956 0 3.18518e+06 -180204 0 3.18482e+06 -182462 0 3.18447e+06 -184729 0 3.18412e+06 -187006 0 3.18378e+06 -189293 0 3.18343e+06 -191589 0 3.18308e+06 -193895 0 3.18274e+06 -196211 0 3.1824e+06 -198537 0 3.18206e+06 -200872 0 3.18172e+06 -203218 0 3.18139e+06 -205573 0 3.18105e+06 -207938 0 3.18072e+06 -210313 0 3.18039e+06 -212697 0 3.18006e+06 -215092 0 3.17974e+06 -217496 0 3.17942e+06 -219910 0 3.1791e+06 -222334 0 3.17878e+06 -224768 0 3.17847e+06 -227211 0 3.17816e+06 -229664 0 3.17786e+06 -232126 0 3.17755e+06 -234597 0 3.17725e+06 -237076 0 3.17695e+06 -239563 0 3.17665e+06 -242058 0 3.17635e+06 -244559 0 3.17605e+06 -247064 0 3.17574e+06 -249573 0 3.17543e+06 -252084 0 3.1751e+06 -254592 0 3.17476e+06 -257096 0 3.26483e+06 0.00166897 0 3.26483e+06 -1797.79 0 3.26482e+06 -3595.69 0 3.26482e+06 -5393.83 0 3.2648e+06 -7192.31 0 3.26479e+06 -8991.24 0 3.26477e+06 -10790.8 0 3.26474e+06 -12591 0 3.26471e+06 -14391.9 0 3.26468e+06 -16193.9 0 3.26465e+06 -17996.8 0 3.26461e+06 -19800.9 0 3.26457e+06 -21606.2 0 3.26452e+06 -23413 0 3.26447e+06 -25221.2 0 3.26442e+06 -27031 0 3.26436e+06 -28842.5 0 3.2643e+06 -30655.8 0 3.26424e+06 -32471 0 3.26417e+06 -34288.4 0 3.2641e+06 -36107.8 0 3.26403e+06 -37929.6 0 3.26395e+06 -39753.7 0 3.26387e+06 -41580.3 0 3.26379e+06 -43409.5 0 3.2637e+06 -45241.5 0 3.26361e+06 -47076.2 0 3.26352e+06 -48913.9 0 3.26342e+06 -50754.6 0 3.26332e+06 -52598.5 0 3.26322e+06 -54445.7 0 3.26311e+06 -56296.2 0 3.26301e+06 -58150.1 0 3.26289e+06 -60007.7 0 3.26278e+06 -61868.9 0 3.26266e+06 -63734 0 3.26254e+06 -65602.9 0 3.26242e+06 -67475.8 0 3.26229e+06 -69352.8 0 3.26217e+06 -71234.1 0 3.26204e+06 -73119.6 0 3.2619e+06 -75009.6 0 3.26177e+06 -76904 0 3.26163e+06 -78803.1 0 3.26149e+06 -80706.8 0 3.26135e+06 -82615.4 0 3.2612e+06 -84528.9 0 3.26105e+06 -86447.4 0 3.26091e+06 -88371 0 3.26075e+06 -90299.7 0 3.2606e+06 -92233.8 0 3.26045e+06 -94173.2 0 3.26029e+06 -96118.1 0 3.26013e+06 -98068.5 0 3.25997e+06 -100025 0 3.25981e+06 -101986 0 3.25965e+06 -103954 0 3.25948e+06 -105928 0 3.25932e+06 -107907 0 3.25915e+06 -109893 0 3.25898e+06 -111885 0 3.25881e+06 -113883 0 3.25864e+06 -115887 0 3.25847e+06 -117898 0 3.2583e+06 -119915 0 3.25813e+06 -121939 0 3.25796e+06 -123969 0 3.25778e+06 -126006 0 3.25761e+06 -128050 0 3.25743e+06 -130101 0 3.25726e+06 -132158 0 3.25708e+06 -134223 0 3.25691e+06 -136295 0 3.25673e+06 -138374 0 3.25656e+06 -140460 0 3.25638e+06 -142553 0 3.25621e+06 -144653 0 3.25603e+06 -146761 0 3.25586e+06 -148877 0 3.25568e+06 -150999 0 3.25551e+06 -153130 0 3.25534e+06 -155268 0 3.25516e+06 -157413 0 3.25499e+06 -159567 0 3.25482e+06 -161728 0 3.25465e+06 -163897 0 3.25449e+06 -166073 0 3.25432e+06 -168258 0 3.25415e+06 -170451 0 3.25399e+06 -172651 0 3.25383e+06 -174860 0 3.25367e+06 -177077 0 3.25351e+06 -179301 0 3.25335e+06 -181534 0 3.25319e+06 -183776 0 3.25304e+06 -186025 0 3.25289e+06 -188283 0 3.25274e+06 -190549 0 3.25259e+06 -192824 0 3.25244e+06 -195107 0 3.2523e+06 -197398 0 3.25216e+06 -199698 0 3.25202e+06 -202006 0 3.25189e+06 -204323 0 3.25175e+06 -206648 0 3.25162e+06 -208982 0 3.25149e+06 -211325 0 3.25137e+06 -213676 0 3.25125e+06 -216036 0 3.25113e+06 -218405 0 3.25101e+06 -220783 0 3.2509e+06 -223169 0 3.25079e+06 -225565 0 3.25068e+06 -227969 0 3.25057e+06 -230382 0 3.25047e+06 -232804 0 3.25038e+06 -235236 0 3.25028e+06 -237676 0 3.25019e+06 -240127 0 3.2501e+06 -242587 0 3.25002e+06 -245057 0 3.24994e+06 -247537 0 3.24987e+06 -250028 0 3.2498e+06 -252531 0 3.24974e+06 -255046 0 3.24968e+06 -257575 0 3.24964e+06 -260118 0 3.24961e+06 -262679 0 3.32386e+06 0.00138495 0 3.32386e+06 -1854.06 0 3.32386e+06 -3708.22 0 3.32385e+06 -5562.57 0 3.32385e+06 -7417.21 0 3.32384e+06 -9272.22 0 3.32383e+06 -11127.7 0 3.32382e+06 -12983.8 0 3.32381e+06 -14840.5 0 3.3238e+06 -16698 0 3.32378e+06 -18556.3 0 3.32377e+06 -20415.6 0 3.32375e+06 -22275.9 0 3.32373e+06 -24137.4 0 3.32371e+06 -26000.1 0 3.32369e+06 -27864.1 0 3.32367e+06 -29729.6 0 3.32365e+06 -31596.5 0 3.32362e+06 -33465.1 0 3.3236e+06 -35335.3 0 3.32357e+06 -37207.3 0 3.32354e+06 -39081.3 0 3.32351e+06 -40957.1 0 3.32348e+06 -42835.1 0 3.32345e+06 -44715.2 0 3.32341e+06 -46597.6 0 3.32338e+06 -48482.3 0 3.32334e+06 -50369.4 0 3.3233e+06 -52259 0 3.32327e+06 -54151.3 0 3.32323e+06 -56046.2 0 3.32319e+06 -57944 0 3.32315e+06 -59844.6 0 3.32311e+06 -61748.2 0 3.32306e+06 -63654.8 0 3.32302e+06 -65564.5 0 3.32298e+06 -67477.5 0 3.32293e+06 -69393.8 0 3.32289e+06 -71313.5 0 3.32284e+06 -73236.7 0 3.32279e+06 -75163.4 0 3.32275e+06 -77093.8 0 3.3227e+06 -79027.9 0 3.32265e+06 -80965.8 0 3.3226e+06 -82907.6 0 3.32256e+06 -84853.4 0 3.32251e+06 -86803.3 0 3.32246e+06 -88757.3 0 3.32241e+06 -90715.5 0 3.32236e+06 -92678 0 3.32231e+06 -94644.8 0 3.32226e+06 -96616.2 0 3.32221e+06 -98592 0 3.32216e+06 -100573 0 3.32211e+06 -102558 0 3.32206e+06 -104548 0 3.32202e+06 -106542 0 3.32197e+06 -108542 0 3.32192e+06 -110547 0 3.32187e+06 -112556 0 3.32183e+06 -114571 0 3.32178e+06 -116591 0 3.32174e+06 -118616 0 3.32169e+06 -120647 0 3.32165e+06 -122683 0 3.3216e+06 -124724 0 3.32156e+06 -126771 0 3.32152e+06 -128823 0 3.32148e+06 -130882 0 3.32144e+06 -132945 0 3.32141e+06 -135015 0 3.32137e+06 -137091 0 3.32133e+06 -139172 0 3.3213e+06 -141259 0 3.32127e+06 -143353 0 3.32124e+06 -145452 0 3.32121e+06 -147558 0 3.32118e+06 -149670 0 3.32116e+06 -151788 0 3.32114e+06 -153912 0 3.32111e+06 -156043 0 3.3211e+06 -158180 0 3.32108e+06 -160324 0 3.32106e+06 -162474 0 3.32105e+06 -164631 0 3.32104e+06 -166794 0 3.32103e+06 -168964 0 3.32103e+06 -171141 0 3.32102e+06 -173325 0 3.32102e+06 -175515 0 3.32103e+06 -177713 0 3.32103e+06 -179917 0 3.32104e+06 -182128 0 3.32105e+06 -184347 0 3.32107e+06 -186572 0 3.32108e+06 -188805 0 3.3211e+06 -191044 0 3.32113e+06 -193291 0 3.32115e+06 -195545 0 3.32118e+06 -197807 0 3.32122e+06 -200076 0 3.32125e+06 -202352 0 3.32129e+06 -204636 0 3.32134e+06 -206927 0 3.32139e+06 -209226 0 3.32144e+06 -211533 0 3.32149e+06 -213847 0 3.32155e+06 -216168 0 3.32162e+06 -218498 0 3.32169e+06 -220835 0 3.32176e+06 -223181 0 3.32184e+06 -225534 0 3.32192e+06 -227895 0 3.322e+06 -230264 0 3.32209e+06 -232641 0 3.32219e+06 -235026 0 3.32229e+06 -237419 0 3.32239e+06 -239820 0 3.3225e+06 -242230 0 3.32262e+06 -244647 0 3.32274e+06 -247072 0 3.32286e+06 -249506 0 3.32299e+06 -251947 0 3.32312e+06 -254396 0 3.32326e+06 -256852 0 3.3234e+06 -259315 0 3.32355e+06 -261784 0 3.32369e+06 -264258 0 3.38366e+06 0.00114568 0 3.38366e+06 -1877.98 0 3.38367e+06 -3756.04 0 3.38367e+06 -5634.26 0 3.38367e+06 -7512.72 0 3.38367e+06 -9391.49 0 3.38367e+06 -11270.7 0 3.38367e+06 -13150.3 0 3.38368e+06 -15030.5 0 3.38368e+06 -16911.3 0 3.38368e+06 -18792.8 0 3.38369e+06 -20675.2 0 3.38369e+06 -22558.3 0 3.38369e+06 -24442.5 0 3.3837e+06 -26327.6 0 3.38371e+06 -28213.8 0 3.38371e+06 -30101.3 0 3.38372e+06 -31989.9 0 3.38372e+06 -33879.9 0 3.38373e+06 -35771.3 0 3.38374e+06 -37664.2 0 3.38375e+06 -39558.7 0 3.38376e+06 -41454.8 0 3.38377e+06 -43352.6 0 3.38378e+06 -45252.1 0 3.38379e+06 -47153.6 0 3.3838e+06 -49057 0 3.38381e+06 -50962.4 0 3.38382e+06 -52869.9 0 3.38384e+06 -54779.6 0 3.38385e+06 -56691.5 0 3.38387e+06 -58605.7 0 3.38388e+06 -60522.3 0 3.3839e+06 -62441.4 0 3.38392e+06 -64363 0 3.38394e+06 -66287.2 0 3.38396e+06 -68214.1 0 3.38398e+06 -70143.7 0 3.384e+06 -72076.1 0 3.38402e+06 -74011.5 0 3.38405e+06 -75949.8 0 3.38407e+06 -77891.1 0 3.3841e+06 -79835.6 0 3.38412e+06 -81783.2 0 3.38415e+06 -83734 0 3.38418e+06 -85688.2 0 3.38421e+06 -87645.7 0 3.38425e+06 -89606.7 0 3.38428e+06 -91571.2 0 3.38432e+06 -93539.2 0 3.38435e+06 -95511 0 3.38439e+06 -97486.4 0 3.38443e+06 -99465.6 0 3.38448e+06 -101449 0 3.38452e+06 -103436 0 3.38457e+06 -105426 0 3.38461e+06 -107421 0 3.38466e+06 -109420 0 3.38471e+06 -111424 0 3.38477e+06 -113431 0 3.38482e+06 -115443 0 3.38488e+06 -117459 0 3.38494e+06 -119479 0 3.385e+06 -121504 0 3.38506e+06 -123533 0 3.38513e+06 -125567 0 3.3852e+06 -127606 0 3.38527e+06 -129649 0 3.38534e+06 -131697 0 3.38542e+06 -133750 0 3.3855e+06 -135808 0 3.38558e+06 -137870 0 3.38567e+06 -139938 0 3.38575e+06 -142011 0 3.38584e+06 -144088 0 3.38594e+06 -146171 0 3.38603e+06 -148259 0 3.38613e+06 -150352 0 3.38623e+06 -152451 0 3.38634e+06 -154555 0 3.38645e+06 -156664 0 3.38656e+06 -158779 0 3.38667e+06 -160899 0 3.38679e+06 -163025 0 3.38691e+06 -165156 0 3.38704e+06 -167293 0 3.38717e+06 -169435 0 3.3873e+06 -171584 0 3.38744e+06 -173738 0 3.38758e+06 -175898 0 3.38772e+06 -178064 0 3.38787e+06 -180235 0 3.38802e+06 -182413 0 3.38818e+06 -184597 0 3.38834e+06 -186787 0 3.3885e+06 -188982 0 3.38867e+06 -191185 0 3.38885e+06 -193393 0 3.38902e+06 -195607 0 3.38921e+06 -197828 0 3.38939e+06 -200055 0 3.38959e+06 -202288 0 3.38978e+06 -204528 0 3.38998e+06 -206774 0 3.39019e+06 -209027 0 3.3904e+06 -211286 0 3.39062e+06 -213552 0 3.39084e+06 -215825 0 3.39107e+06 -218104 0 3.3913e+06 -220390 0 3.39154e+06 -222682 0 3.39178e+06 -224981 0 3.39203e+06 -227288 0 3.39228e+06 -229601 0 3.39254e+06 -231920 0 3.39281e+06 -234247 0 3.39308e+06 -236581 0 3.39335e+06 -238922 0 3.39364e+06 -241270 0 3.39392e+06 -243625 0 3.39422e+06 -245987 0 3.39452e+06 -248357 0 3.39483e+06 -250734 0 3.39514e+06 -253119 0 3.39546e+06 -255512 0 3.39579e+06 -257913 0 3.39613e+06 -260322 0 3.39648e+06 -262740 0 3.44331e+06 0.000951163 0 3.44331e+06 -1875.09 0 3.44331e+06 -3750.25 0 3.44332e+06 -5625.54 0 3.44332e+06 -7501.02 0 3.44333e+06 -9376.77 0 3.44334e+06 -11252.8 0 3.44335e+06 -13129.3 0 3.44337e+06 -15006.2 0 3.44338e+06 -16883.7 0 3.4434e+06 -18761.7 0 3.44342e+06 -20640.4 0 3.44344e+06 -22519.8 0 3.44347e+06 -24400 0 3.44349e+06 -26281 0 3.44352e+06 -28162.9 0 3.44355e+06 -30045.8 0 3.44358e+06 -31929.8 0 3.44361e+06 -33814.8 0 3.44365e+06 -35701.1 0 3.44369e+06 -37588.5 0 3.44373e+06 -39477.2 0 3.44377e+06 -41367.3 0 3.44381e+06 -43258.9 0 3.44386e+06 -45151.9 0 3.44391e+06 -47046.4 0 3.44396e+06 -48942.6 0 3.44401e+06 -50840.4 0 3.44406e+06 -52740 0 3.44412e+06 -54641.3 0 3.44418e+06 -56544.5 0 3.44424e+06 -58449.7 0 3.4443e+06 -60356.8 0 3.44437e+06 -62266 0 3.44444e+06