<?xml version="1.0"?> 
<VTKFile type="StructuredGrid" version="0.1"> 
<StructuredGrid WholeExtent="0 127 0 127 0 0"> 
<Piece Extent="0 127 0 127 0 0"> 
<PointData>
<DataArray type="Float32" Name="E" format="ascii" NumberOfComponents="3"> 
-436737 120488 0 -438058 126361 0 -440091 125966 0 -441494 125408 0 -442356 124569 0 -442732 123839 0 -442736 123151 0 -442446 122534 0 -441928 121964 0 -441232 121436 0 -440395 120941 0 -439445 120471 0 -438406 120023 0 -437292 119592 0 -436119 119177 0 -434895 118774 0 -433629 118383 0 -432327 118002 0 -430996 117630 0 -429639 117266 0 -428260 116909 0 -426862 116560 0 -425448 116216 0 -424019 115879 0 -422578 115548 0 -421126 115221 0 -419664 114900 0 -418194 114583 0 -416717 114271 0 -415234 113964 0 -413744 113660 0 -412251 113360 0 -410753 113064 0 -409251 112772 0 -407746 112483 0 -406239 112198 0 -404729 111916 0 -403217 111637 0 -401704 111361 0 -400190 111088 0 -398675 110817 0 -397159 110550 0 -395643 110285 0 -394126 110023 0 -392610 109764 0 -391094 109507 0 -389577 109252 0 -388062 109000 0 -386547 108750 0 -385033 108502 0 -383519 108256 0 -382007 108013 0 -380495 107772 0 -378985 107532 0 -377476 107295 0 -375968 107060 0 -374462 106826 0 -372957 106595 0 -371454 106365 0 -369952 106137 0 -368452 105911 0 -366953 105687 0 -365456 105464 0 -363961 105243 0 -362468 105024 0 -360977 104806 0 -359488 104590 0 -358000 104375 0 -356515 104162 0 -355031 103951 0 -353549 103741 0 -352070 103532 0 -350592 103325 0 -349117 103119 0 -347644 102914 0 -346172 102711 0 -344703 102509 0 -343236 102309 0 -341771 102110 0 -340308 101912 0 -338848 101715 0 -337389 101520 0 -335933 101325 0 -334479 101132 0 -333027 100940 0 -331578 100750 0 -330130 100560 0 -328685 100372 0 -327242 100184 0 -325801 99997.8 0 -324362 99812.6 0 -322926 99628.4 0 -321492 99445.3 0 -320060 99263.2 0 -318630 99082 0 -317203 98901.9 0 -315777 98722.8 0 -314354 98544.6 0 -312933 98367.4 0 -311515 98191.2 0 -310098 98015.8 0 -308684 97841.4 0 -307272 97667.9 0 -305863 97495.3 0 -304455 97323.6 0 -303050 97152.7 0 -301647 96982.7 0 -300246 96813.5 0 -298847 96645.2 0 -297450 96477.7 0 -296056 96311 0 -294664 96145.1 0 -293274 95980 0 -291886 95815.7 0 -290501 95652.1 0 -289117 95489.4 0 -287736 95327.4 0 -286357 95166.1 0 -284980 95005.5 0 -283605 94845.7 0 -282232 94686.7 0 -280862 94528.3 0 -279494 94370.6 0 -278127 94213.6 0 -276763 94057.3 0 -275401 93901.7 0 -274041 93746.7 0 -272684 93592.5 0 -460543 126233 0 -458051 126723 0 -455727 127836 0 -453733 128730 0 -451978 129463 0 -450397 130016 0 -448929 130427 0 -447534 130718 0 -446183 130912 0 -444855 131025 0 -443537 131071 0 -442218 131063 0 -440895 131008 0 -439561 130916 0 -438217 130791 0 -436859 130640 0 -435489 130466 0 -434106 130273 0 -432710 130064 0 -431303 129841 0 -429884 129607 0 -428456 129363 0 -427017 129111 0 -425570 128852 0 -424115 128588 0 -422652 128319 0 -421183 128045 0 -419708 127769 0 -418228 127490 0 -416742 127209 0 -415253 126926 0 -413759 126642 0 -412262 126357 0 -410762 126071 0 -409260 125785 0 -407755 125499 0 -406248 125213 0 -404740 124927 0 -403230 124642 0 -401719 124357 0 -400208 124073 0 -398695 123790 0 -397183 123508 0 -395670 123226 0 -394157 122946 0 -392644 122666 0 -391131 122388 0 -389619 122111 0 -388107 121835 0 -386596 121561 0 -385085 121288 0 -383575 121016 0 -382067 120745 0 -380559 120476 0 -379053 120208 0 -377547 119941 0 -376043 119676 0 -374540 119412 0 -373039 119149 0 -371539 118888 0 -370041 118628 0 -368544 118370 0 -367049 118113 0 -365556 117857 0 -364064 117603 0 -362574 117350 0 -361086 117099 0 -359599 116848 0 -358114 116600 0 -356632 116352 0 -355151 116106 0 -353672 115861 0 -352195 115617 0 -350720 115375 0 -349247 115134 0 -347776 114894 0 -346307 114656 0 -344840 114419 0 -343376 114183 0 -341913 113948 0 -340452 113715 0 -338993 113482 0 -337537 113251 0 -336083 113021 0 -334630 112793 0 -333180 112565 0 -331732 112339 0 -330287 112113 0 -328843 111889 0 -327401 111666 0 -325962 111444 0 -324525 111223 0 -323090 111004 0 -321657 110785 0 -320226 110567 0 -318798 110351 0 -317372 110135 0 -315947 109921 0 -314525 109708 0 -313106 109495 0 -311688 109284 0 -310273 109073 0 -308859 108864 0 -307448 108656 0 -306039 108448 0 -304633 108241 0 -303228 108036 0 -301826 107831 0 -300425 107627 0 -299027 107425 0 -297631 107223 0 -296238 107022 0 -294846 106821 0 -293457 106622 0 -292069 106424 0 -290684 106226 0 -289301 106029 0 -287920 105834 0 -286542 105638 0 -285165 105444 0 -283790 105251 0 -282418 105058 0 -281048 104866 0 -279680 104675 0 -278314 104485 0 -276950 104296 0 -275588 104107 0 -274228 103919 0 -466032 145212 0 -464341 145213 0 -462641 145018 0 -460880 144890 0 -459092 144797 0 -457300 144736 0 -455521 144688 0 -453763 144645 0 -452030 144598 0 -450324 144541 0 -448644 144471 0 -446987 144386 0 -445351 144285 0 -443733 144168 0 -442131 144034 0 -440543 143884 0 -438965 143720 0 -437397 143541 0 -435837 143349 0 -434283 143145 0 -432734 142929 0 -431189 142704 0 -429647 142468 0 -428108 142225 0 -426571 141973 0 -425035 141715 0 -423501 141450 0 -421967 141180 0 -420435 140905 0 -418903 140626 0 -417371 140342 0 -415840 140055 0 -414310 139765 0 -412780 139472 0 -411250 139177 0 -409720 138880 0 -408192 138582 0 -406663 138282 0 -405135 137981 0 -403608 137679 0 -402082 137376 0 -400556 137073 0 -399031 136769 0 -397506 136465 0 -395983 136161 0 -394461 135857 0 -392940 135554 0 -391419 135250 0 -389900 134947 0 -388382 134645 0 -386866 134343 0 -385351 134042 0 -383837 133741 0 -382324 133441 0 -380813 133142 0 -379304 132844 0 -377796 132547 0 -376289 132251 0 -374784 131955 0 -373281 131661 0 -371780 131368 0 -370280 131075 0 -368782 130784 0 -367286 130494 0 -365792 130205 0 -364299 129917 0 -362808 129631 0 -361320 129345 0 -359833 129061 0 -358348 128778 0 -356865 128496 0 -355384 128215 0 -353905 127936 0 -352428 127657 0 -350953 127380 0 -349480 127104 0 -348009 126829 0 -346540 126556 0 -345074 126283 0 -343609 126012 0 -342146 125742 0 -340686 125473 0 -339228 125206 0 -337771 124939 0 -336317 124674 0 -334865 124410 0 -333415 124147 0 -331968 123885 0 -330522 123625 0 -329079 123365 0 -327637 123107 0 -326198 122850 0 -324761 122594 0 -323326 122339 0 -321894 122085 0 -320463 121832 0 -319035 121581 0 -317609 121330 0 -316185 121081 0 -314763 120832 0 -313343 120585 0 -311926 120339 0 -310510 120094 0 -309097 119849 0 -307686 119606 0 -306277 119364 0 -304870 119123 0 -303466 118883 0 -302063 118644 0 -300663 118406 0 -299265 118169 0 -297869 117933 0 -296475 117698 0 -295083 117463 0 -293694 117230 0 -292306 116998 0 -290921 116767 0 -289538 116536 0 -288157 116307 0 -286778 116078 0 -285401 115850 0 -284026 115624 0 -282653 115398 0 -281283 115173 0 -279915 114949 0 -278548 114725 0 -277184 114503 0 -275822 114281 0 -471151 162220 0 -469151 161951 0 -467192 161765 0 -465291 161552 0 -463432 161328 0 -461603 161091 0 -459797 160847 0 -458008 160600 0 -456235 160351 0 -454476 160099 0 -452730 159847 0 -450996 159593 0 -449275 159337 0 -447567 159079 0 -445869 158818 0 -444183 158553 0 -442508 158285 0 -440843 158014 0 -439187 157738 0 -437540 157459 0 -435902 157175 0 -434272 156887 0 -432648 156595 0 -431032 156299 0 -429422 155999 0 -427818 155696 0 -426219 155389 0 -424625 155079 0 -423036 154766 0 -421451 154450 0 -419870 154131 0 -418292 153810 0 -416719 153487 0 -415148 153161 0 -413581 152834 0 -412017 152506 0 -410456 152175 0 -408897 151844 0 -407341 151511 0 -405787 151178 0 -404236 150843 0 -402688 150508 0 -401141 150173 0 -399597 149837 0 -398055 149501 0 -396515 149165 0 -394977 148828 0 -393442 148492 0 -391908 148156 0 -390377 147820 0 -388848 147485 0 -387320 147150 0 -385795 146815 0 -384272 146481 0 -382751 146148 0 -381232 145815 0 -379715 145483 0 -378200 145152 0 -376687 144822 0 -375176 144492 0 -373667 144163 0 -372161 143835 0 -370656 143508 0 -369154 143183 0 -367653 142858 0 -366155 142534 0 -364659 142211 0 -363165 141889 0 -361673 141569 0 -360183 141249 0 -358695 140931 0 -357209 140613 0 -355726 140297 0 -354244 139982 0 -352765 139668 0 -351288 139356 0 -349813 139044 0 -348340 138734 0 -346870 138425 0 -345401 138117 0 -343935 137810 0 -342471 137505 0 -341009 137200 0 -339549 136897 0 -338092 136595 0 -336636 136295 0 -335183 135995 0 -333732 135697 0 -332283 135399 0 -330836 135103 0 -329392 134809 0 -327949 134515 0 -326509 134223 0 -325071 133931 0 -323636 133641 0 -322202 133352 0 -320771 133064 0 -319341 132778 0 -317914 132492 0 -316489 132208 0 -315067 131925 0 -313646 131643 0 -312228 131362 0 -310812 131082 0 -309398 130803 0 -307986 130525 0 -306576 130249 0 -305169 129973 0 -303763 129699 0 -302360 129426 0 -300959 129153 0 -299560 128882 0 -298163 128612 0 -296769 128343 0 -295376 128075 0 -293986 127808 0 -292597 127542 0 -291211 127277 0 -289827 127013 0 -288446 126750 0 -287066 126488 0 -285688 126227 0 -284313 125967 0 -282939 125708 0 -281568 125450 0 -280199 125193 0 -278831 124937 0 -277466 124681 0 -474343 179928 0 -472513 179488 0 -470681 179028 0 -468842 178590 0 -467004 178166 0 -465173 177755 0 -463350 177352 0 -461539 176956 0 -459739 176565 0 -457951 176178 0 -456174 175794 0 -454408 175413 0 -452653 175034 0 -450909 174657 0 -449174 174281 0 -447449 173906 0 -445733 173532 0 -444026 173159 0 -442328 172786 0 -440638 172414 0 -438955 172042 0 -437281 171669 0 -435614 171297 0 -433953 170924 0 -432300 170551 0 -430653 170177 0 -429012 169803 0 -427378 169429 0 -425749 169054 0 -424125 168679 0 -422507 168303 0 -420894 167926 0 -419285 167550 0 -417681 167172 0 -416082 166795 0 -414487 166417 0 -412896 166039 0 -411309 165661 0 -409726 165282 0 -408147 164904 0 -406571 164525 0 -404999 164147 0 -403430 163769 0 -401864 163391 0 -400302 163013 0 -398743 162635 0 -397187 162258 0 -395633 161881 0 -394083 161505 0 -392535 161129 0 -390991 160754 0 -389449 160379 0 -387910 160005 0 -386373 159632 0 -384839 159259 0 -383308 158888 0 -381779 158517 0 -380253 158147 0 -378729 157777 0 -377208 157409 0 -375690 157042 0 -374173 156676 0 -372660 156310 0 -371148 155946 0 -369639 155583 0 -368133 155221 0 -366629 154860 0 -365127 154500 0 -363628 154141 0 -362131 153784 0 -360636 153428 0 -359144 153072 0 -357654 152718 0 -356166 152365 0 -354681 152014 0 -353198 151663 0 -351717 151314 0 -350239 150966 0 -348762 150620 0 -347289 150274 0 -345817 149930 0 -344348 149587 0 -342881 149245 0 -341416 148905 0 -339954 148566 0 -338494 148228 0 -337036 147891 0 -335580 147556 0 -334127 147221 0 -332676 146888 0 -331227 146557 0 -329780 146226 0 -328336 145897 0 -326894 145569 0 -325454 145242 0 -324016 144917 0 -322580 144593 0 -321147 144270 0 -319716 143948 0 -318287 143627 0 -316861 143308 0 -315436 142990 0 -314014 142673 0 -312594 142357 0 -311176 142043 0 -309761 141729 0 -308347 141417 0 -306936 141106 0 -305527 140796 0 -304120 140488 0 -302716 140180 0 -301313 139874 0 -299913 139568 0 -298514 139264 0 -297118 138961 0 -295724 138660 0 -294333 138359 0 -292943 138059 0 -291555 137761 0 -290170 137463 0 -288787 137167 0 -287406 136871 0 -286027 136577 0 -284650 136284 0 -283275 135992 0 -281902 135701 0 -280532 135411 0 -279163 135122 0 -477301 197106 0 -475439 196565 0 -473592 196042 0 -471759 195518 0 -469939 194997 0 -468127 194480 0 -466324 193967 0 -464528 193459 0 -462739 192956 0 -460957 192458 0 -459183 191965 0 -457416 191477 0 -455657 190993 0 -453904 190513 0 -452160 190037 0 -450422 189565 0 -448692 189095 0 -446969 188629 0 -445253 188166 0 -443544 187705 0 -441842 187247 0 -440146 186791 0 -438457 186337 0 -436775 185885 0 -435098 185434 0 -433428 184986 0 -431764 184539 0 -430105 184094 0 -428452 183650 0 -426805 183207 0 -425162 182766 0 -423526 182326 0 -421894 181887 0 -420267 181449 0 -418645 181012 0 -417027 180577 0 -415414 180142 0 -413806 179708 0 -412202 179276 0 -410602 178844 0 -409006 178414 0 -407414 177984 0 -405826 177555 0 -404242 177128 0 -402662 176701 0 -401085 176275 0 -399512 175850 0 -397942 175427 0 -396376 175004 0 -394813 174583 0 -393253 174162 0 -391697 173743 0 -390143 173325 0 -388593 172907 0 -387046 172491 0 -385502 172076 0 -383961 171663 0 -382423 171250 0 -380888 170839 0 -379355 170428 0 -377826 170020 0 -376299 169612 0 -374775 169205 0 -373254 168800 0 -371735 168396 0 -370220 167993 0 -368706 167592 0 -367196 167192 0 -365688 166793 0 -364182 166395 0 -362680 165999 0 -361179 165604 0 -359682 165211 0 -358187 164819 0 -356694 164428 0 -355204 164038 0 -353716 163650 0 -352231 163263 0 -350748 162878 0 -349268 162494 0 -347790 162111 0 -346314 161730 0 -344841 161350 0 -343370 160971 0 -341902 160594 0 -340436 160218 0 -338972 159843 0 -337511 159470 0 -336052 159098 0 -334596 158728 0 -333141 158358 0 -331690 157991 0 -330240 157624 0 -328793 157259 0 -327348 156895 0 -325905 156533 0 -324465 156172 0 -323027 155812 0 -321591 155453 0 -320157 155096 0 -318726 154740 0 -317297 154386 0 -315870 154033 0 -314445 153681 0 -313023 153330 0 -311603 152981 0 -310185 152633 0 -308769 152286 0 -307356 151940 0 -305945 151596 0 -304536 151253 0 -303129 150911 0 -301724 150570 0 -300322 150231 0 -298922 149893 0 -297524 149556 0 -296128 149220 0 -294734 148886 0 -293342 148553 0 -291953 148220 0 -290565 147889 0 -289180 147560 0 -287797 147231 0 -286416 146904 0 -285038 146577 0 -283661 146252 0 -282286 145928 0 -280914 145605 0 -479889 214253 0 -478077 213615 0 -476267 212981 0 -474459 212357 0 -472656 211741 0 -470857 211132 0 -469064 210529 0 -467278 209933 0 -465497 209342 0 -463723 208757 0 -461954 208177 0 -460192 207602 0 -458436 207032 0 -456685 206467 0 -454941 205906 0 -453203 205349 0 -451470 204797 0 -449743 204249 0 -448022 203705 0 -446307 203164 0 -444597 202627 0 -442893 202094 0 -441195 201563 0 -439502 201037 0 -437815 200513 0 -436133 199992 0 -434456 199474 0 -432785 198959 0 -431118 198446 0 -429457 197936 0 -427801 197428 0 -426150 196923 0 -424503 196420 0 -422861 195920 0 -421224 195421 0 -419592 194925 0 -417964 194431 0 -416340 193938 0 -414721 193448 0 -413106 192960 0 -411495 192473 0 -409889 191989 0 -408286 191506 0 -406687 191025 0 -405093 190545 0 -403502 190068 0 -401914 189592 0 -400331 189117 0 -398751 188645 0 -397175 188174 0 -395602 187705 0 -394033 187237 0 -392467 186771 0 -390905 186307 0 -389345 185844 0 -387789 185383 0 -386237 184923 0 -384687 184465 0 -383141 184008 0 -381598 183554 0 -380057 183100 0 -378520 182648 0 -376986 182198 0 -375455 181750 0 -373926 181303 0 -372401 180857 0 -370878 180413 0 -369358 179971 0 -367841 179530 0 -366327 179091 0 -364816 178653 0 -363307 178217 0 -361801 177782 0 -360298 177349 0 -358797 176917 0 -357299 176487 0 -355804 176059 0 -354311 175632 0 -352821 175206 0 -351333 174782 0 -349848 174360 0 -348365 173939 0 -346885 173520 0 -345408 173102 0 -343933 172686 0 -342460 172271 0 -340990 171857 0 -339522 171446 0 -338057 171035 0 -336595 170627 0 -335134 170219 0 -333676 169813 0 -332221 169409 0 -330768 169006 0 -329317 168605 0 -327868 168205 0 -326422 167806 0 -324979 167409 0 -323537 167013 0 -322098 166619 0 -320662 166226 0 -319227 165835 0 -317795 165445 0 -316365 165056 0 -314938 164669 0 -313512 164283 0 -312090 163899 0 -310669 163516 0 -309250 163134 0 -307834 162754 0 -306420 162375 0 -305008 161998 0 -303599 161621 0 -302192 161247 0 -300787 160873 0 -299384 160501 0 -297983 160130 0 -296585 159760 0 -295188 159392 0 -293794 159025 0 -292402 158659 0 -291013 158295 0 -289625 157932 0 -288240 157570 0 -286856 157209 0 -285475 156850 0 -284096 156491 0 -282719 156134 0 -482442 231194 0 -480636 230486 0 -478836 229787 0 -477042 229092 0 -475253 228402 0 -473469 227718 0 -471690 227040 0 -469915 226367 0 -468145 225700 0 -466380 225039 0 -464619 224383 0 -462864 223733 0 -461113 223087 0 -459367 222447 0 -457626 221812 0 -455889 221181 0 -454158 220556 0 -452432 219934 0 -450710 219317 0 -448994 218705 0 -447282 218097 0 -445575 217493 0 -443873 216892 0 -442176 216296 0 -440484 215704 0 -438796 215115 0 -437113 214530 0 -435435 213948 0 -433761 213370 0 -432092 212795 0 -430427 212223 0 -428767 211654 0 -427112 211089 0 -425461 210526 0 -423814 209967 0 -422171 209410 0 -420533 208856 0 -418899 208305 0 -417270 207757 0 -415644 207211 0 -414022 206668 0 -412405 206127 0 -410791 205589 0 -409181 205053 0 -407575 204519 0 -405973 203988 0 -404375 203459 0 -402781 202933 0 -401190 202409 0 -399602 201886 0 -398019 201367 0 -396439 200849 0 -394862 200333 0 -393289 199820 0 -391719 199308 0 -390153 198799 0 -388590 198291 0 -387030 197786 0 -385473 197282 0 -383920 196781 0 -382370 196281 0 -380823 195784 0 -379279 195288 0 -377738 194794 0 -376200 194303 0 -374665 193813 0 -373133 193325 0 -371605 192838 0 -370079 192354 0 -368556 191871 0 -367035 191391 0 -365518 190912 0 -364004 190434 0 -362492 189959 0 -360983 189486 0 -359477 189014 0 -357974 188544 0 -356473 188075 0 -354975 187609 0 -353480 187144 0 -351987 186681 0 -350497 186220 0 -349010 185760 0 -347525 185302 0 -346043 184846 0 -344563 184391 0 -343086 183938 0 -341611 183487 0 -340139 183038 0 -338670 182590 0 -337203 182143 0 -335738 181699 0 -334276 181256 0 -332817 180814 0 -331360 180375 0 -329905 179936 0 -328453 179500 0 -327003 179065 0 -325555 178631 0 -324110 178200 0 -322667 177769 0 -321227 177341 0 -319789 176913 0 -318353 176488 0 -316920 176064 0 -315489 175641 0 -314061 175220 0 -312634 174800 0 -311210 174382 0 -309788 173966 0 -308369 173550 0 -306952 173137 0 -305537 172725 0 -304124 172314 0 -302714 171905 0 -301306 171497 0 -299900 171090 0 -298496 170685 0 -297095 170282 0 -295695 169879 0 -294298 169479 0 -292904 169079 0 -291511 168681 0 -290120 168285 0 -288732 167889 0 -287346 167495 0 -285962 167103 0 -284580 166711 0 -484992 248059 0 -483203 247283 0 -481416 246513 0 -479633 245750 0 -477854 244992 0 -476078 244241 0 -474307 243495 0 -472540 242756 0 -470777 242021 0 -469018 241293 0 -467263 240570 0 -465513 239852 0 -463766 239139 0 -462024 238431 0 -460287 237729 0 -458553 237031 0 -456824 236339 0 -455099 235651 0 -453378 234968 0 -451662 234289 0 -449950 233616 0 -448242 232946 0 -446538 232281 0 -444839 231620 0 -443144 230964 0 -441453 230311 0 -439766 229663 0 -438084 229018 0 -436406 228378 0 -434732 227741 0 -433062 227108 0 -431396 226478 0 -429735 225852 0 -428077 225230 0 -426424 224611 0 -424774 223996 0 -423129 223384 0 -421488 222775 0 -419850 222169 0 -418216 221567 0 -416587 220967 0 -414961 220371 0 -413339 219777 0 -411720 219187 0 -410106 218599 0 -408495 218014 0 -406888 217433 0 -405284 216853 0 -403684 216277 0 -402088 215703 0 -400495 215132 0 -398906 214563 0 -397320 213997 0 -395738 213433 0 -394159 212872 0 -392583 212314 0 -391011 211758 0 -389442 211204 0 -387876 210652 0 -386313 210103 0 -384754 209557 0 -383198 209012 0 -381645 208470 0 -380095 207930 0 -378549 207392 0 -377005 206857 0 -375464 206324 0 -373927 205792 0 -372392 205263 0 -370861 204737 0 -369332 204212 0 -367806 203689 0 -366284 203168 0 -364764 202650 0 -363247 202133 0 -361732 201619 0 -360221 201106 0 -358712 200596 0 -357206 200087 0 -355703 199581 0 -354203 199076 0 -352705 198573 0 -351210 198072 0 -349718 197573 0 -348228 197076 0 -346741 196581 0 -345257 196088 0 -343775 195597 0 -342296 195107 0 -340819 194620 0 -339345 194134 0 -337873 193650 0 -336404 193167 0 -334938 192687 0 -333474 192208 0 -332013 191731 0 -330554 191256 0 -329097 190783 0 -327643 190311 0 -326192 189841 0 -324742 189373 0 -323296 188906 0 -321851 188441 0 -320409 187978 0 -318970 187516 0 -317533 187056 0 -316098 186598 0 -314665 186142 0 -313235 185687 0 -311808 185233 0 -310382 184782 0 -308959 184331 0 -307538 183883 0 -306120 183436 0 -304703 182990 0 -303290 182547 0 -301878 182104 0 -300468 181664 0 -299061 181224 0 -297656 180787 0 -296254 180350 0 -294853 179916 0 -293455 179483 0 -292059 179051 0 -290666 178621 0 -289274 178192 0 -287885 177765 0 -286497 177339 0 -487626 264853 0 -485841 264016 0 -484059 263186 0 -482282 262361 0 -480509 261541 0 -478739 260728 0 -476972 259920 0 -475210 259117 0 -473451 258320 0 -471696 257529 0 -469945 256743 0 -468197 255963 0 -466453 255188 0 -464714 254418 0 -462978 253653 0 -461245 252893 0 -459517 252138 0 -457793 251389 0 -456072 250644 0 -454356 249904 0 -452643 249168 0 -450934 248438 0 -449229 247711 0 -447528 246990 0 -445831 246273 0 -444137 245560 0 -442448 244852 0 -440762 244147 0 -439081 243447 0 -437403 242752 0 -435729 242060 0 -434059 241372 0 -432392 240688 0 -430730 240008 0 -429071 239332 0 -427416 238659 0 -425765 237991 0 -424117 237326 0 -422474 236664 0 -420834 236006 0 -419197 235352 0 -417565 234701 0 -415935 234053 0 -414310 233408 0 -412688 232767 0 -411070 232129 0 -409455 231495 0 -407844 230863 0 -406236 230235 0 -404632 229609 0 -403031 228987 0 -401434 228367 0 -399840 227751 0 -398249 227137 0 -396662 226526 0 -395078 225918 0 -393497 225313 0 -391920 224710 0 -390346 224111 0 -388775 223513 0 -387208 222919 0 -385643 222327 0 -384082 221738 0 -382524 221151 0 -380968 220567 0 -379417 219985 0 -377868 219406 0 -376322 218830 0 -374779 218255 0 -373239 217683 0 -371702 217114 0 -370168 216547 0 -368637 215982 0 -367109 215419 0 -365584 214859 0 -364062 214301 0 -362542 213745 0 -361026 213192 0 -359512 212641 0 -358001 212092 0 -356492 211545 0 -354987 211000 0 -353484 210457 0 -351984 209917 0 -350487 209379 0 -348992 208842 0 -347500 208308 0 -346011 207776 0 -344524 207246 0 -343040 206718 0 -341559 206192 0 -340080 205668 0 -338604 205146 0 -337130 204625 0 -335659 204107 0 -334191 203591 0 -332725 203077 0 -331261 202564 0 -329800 202054 0 -328342 201545 0 -326886 201038 0 -325432 200533 0 -323981 200030 0 -322532 199529 0 -321086 199030 0 -319642 198532 0 -318201 198036 0 -316762 197542 0 -315325 197050 0 -313891 196560 0 -312459 196071 0 -311030 195584 0 -309603 195099 0 -308178 194615 0 -306756 194133 0 -305335 193653 0 -303918 193174 0 -302502 192698 0 -301089 192222 0 -299678 191749 0 -298269 191277 0 -296863 190807 0 -295459 190338 0 -294057 189871 0 -292657 189405 0 -291260 188942 0 -289864 188479 0 -288471 188018 0 -490368 281625 0 -488586 280728 0 -486807 279837 0 -485031 278953 0 -483260 278074 0 -481491 277201 0 -479726 276333 0 -477965 275471 0 -476207 274615 0 -474453 273764 0 -472703 272919 0 -470955 272079 0 -469212 271244 0 -467472 270415 0 -465736 269591 0 -464003 268772 0 -462274 267958 0 -460549 267149 0 -458827 266346 0 -457109 265547 0 -455395 264753 0 -453684 263964 0 -451976 263179 0 -450273 262400 0 -448573 261624 0 -446877 260854 0 -445184 260088 0 -443495 259327 0 -441810 258570 0 -440128 257817 0 -438450 257068 0 -436775 256324 0 -435104 255584 0 -433437 254848 0 -431773 254117 0 -430113 253389 0 -428456 252665 0 -426803 251945 0 -425154 251229 0 -423508 250517 0 -421865 249809 0 -420227 249104 0 -418591 248403 0 -416959 247706 0 -415331 247012 0 -413705 246322 0 -412084 245635 0 -410466 244952 0 -408851 244272 0 -407239 243595 0 -405631 242922 0 -404026 242252 0 -402425 241585 0 -400827 240921 0 -399232 240261 0 -397640 239604 0 -396052 238949 0 -394466 238298 0 -392885 237650 0 -391306 237005 0 -389730 236362 0 -388158 235723 0 -386588 235086 0 -385022 234453 0 -383459 233822 0 -381899 233194 0 -380342 232568 0 -378788 231946 0 -377237 231326 0 -375689 230709 0 -374144 230094 0 -372602 229482 0 -371063 228873 0 -369527 228266 0 -367994 227661 0 -366464 227060 0 -364936 226460 0 -363411 225863 0 -361890 225269 0 -360371 224677 0 -358855 224087 0 -357341 223500 0 -355831 222915 0 -354323 222333 0 -352818 221753 0 -351315 221175 0 -349816 220599 0 -348319 220026 0 -346825 219454 0 -345333 218885 0 -343844 218319 0 -342358 217754 0 -340874 217192 0 -339393 216631 0 -337914 216073 0 -336438 215517 0 -334965 214963 0 -333494 214412 0 -332026 213862 0 -330560 213314 0 -329097 212768 0 -327636 212225 0 -326178 211683 0 -324722 211143 0 -323269 210606 0 -321818 210070 0 -320370 209536 0 -318924 209004 0 -317481 208474 0 -316040 207946 0 -314601 207420 0 -313165 206896 0 -311731 206374 0 -310299 205853 0 -308870 205334 0 -307444 204817 0 -306019 204302 0 -304597 203789 0 -303177 203278 0 -301760 202768 0 -300345 202260 0 -298932 201754 0 -297521 201249 0 -296113 200747 0 -294707 200246 0 -293303 199746 0 -291902 199249 0 -290503 198753 0 -493243 298397 0 -491460 297442 0 -489680 296494 0 -487903 295551 0 -486130 294614 0 -484360 293683 0 -482594 292758 0 -480831 291838 0 -479071 290924 0 -477315 290015 0 -475563 289112 0 -473814 288214 0 -472068 287322 0 -470326 286435 0 -468587 285554 0 -466852 284678 0 -465121 283807 0 -463392 282941 0 -461668 282080 0 -459947 281224 0 -458229 280374 0 -456515 279528 0 -454804 278687 0 -453097 277851 0 -451393 277020 0 -449693 276194 0 -447996 275372 0 -446302 274555 0 -444613 273742 0 -442926 272934 0 -441243 272131 0 -439564 271332 0 -437888 270537 0 -436215 269747 0 -434546 268961 0 -432881 268179 0 -431218 267402 0 -429559 266628 0 -427904 265859 0 -426252 265094 0 -424603 264333 0 -422958 263575 0 -421316 262822 0 -419678 262072 0 -418043 261327 0 -416411 260585 0 -414782 259847 0 -413157 259112 0 -411535 258382 0 -409917 257654 0 -408301 256931 0 -406689 256211 0 -405080 255494 0 -403475 254781 0 -401872 254071 0 -400273 253365 0 -398677 252662 0 -397084 251962 0 -395495 251266 0 -393908 250572 0 -392325 249882 0 -390745 249195 0 -389167 248512 0 -387593 247831 0 -386022 247153 0 -384454 246479 0 -382889 245807 0 -381327 245139 0 -379768 244473 0 -378212 243810 0 -376659 243150 0 -375109 242493 0 -373562 241839 0 -372018 241187 0 -370477 240539 0 -368938 239893 0 -367403 239249 0 -365870 238609 0 -364340 237971 0 -362813 237336 0 -361289 236703 0 -359768 236073 0 -358249 235445 0 -356734 234820 0 -355221 234198 0 -353710 233578 0 -352203 232961 0 -350698 232346 0 -349196 231733 0 -347696 231123 0 -346200 230515 0 -344706 229909 0 -343214 229306 0 -341725 228706 0 -340239 228107 0 -338756 227511 0 -337275 226917 0 -335796 226325 0 -334320 225736 0 -332847 225149 0 -331376 224564 0 -329908 223981 0 -328443 223401 0 -326979 222822 0 -325519 222246 0 -324061 221671 0 -322605 221099 0 -321152 220529 0 -319701 219961 0 -318253 219395 0 -316807 218832 0 -315364 218270 0 -313923 217710 0 -312484 217152 0 -311048 216596 0 -309614 216042 0 -308183 215490 0 -306754 214940 0 -305327 214392 0 -303903 213846 0 -302481 213302 0 -301061 212759 0 -299644 212219 0 -298229 211680 0 -296816 211143 0 -295406 210608 0 -293998 210075 0 -292592 209544 0 -496265 315196 0 -494477 314184 0 -492693 313178 0 -490912 312177 0 -489135 311183 0 -487361 310195 0 -485590 309212 0 -483823 308235 0 -482060 307264 0 -480300 306298 0 -478543 305339 0 -476789 304384 0 -475040 303436 0 -473293 302492 0 -471550 301554 0 -469810 300622 0 -468074 299695 0 -466341 298773 0 -464612 297857 0 -462886 296945 0 -461163 296039 0 -459444 295138 0 -457728 294242 0 -456016 293351 0 -454307 292465 0 -452602 291583 0 -450899 290707 0 -449201 289835 0 -447505 288969 0 -445813 288106 0 -444125 287249 0 -442439 286396 0 -440757 285548 0 -439079 284704 0 -437404 283865 0 -435732 283030 0 -434063 282200 0 -432398 281374 0 -430736 280552 0 -429077 279735 0 -427422 278921 0 -425770 278112 0 -424122 277307 0 -422476 276506 0 -420834 275710 0 -419195 274917 0 -417559 274128 0 -415927 273343 0 -414298 272562 0 -412672 271784 0 -411049 271011 0 -409430 270241 0 -407813 269475 0 -406200 268713 0 -404590 267954 0 -402983 267199 0 -401379 266448 0 -399779 265700 0 -398181 264955 0 -396587 264214 0 -394996 263476 0 -393407 262742 0 -391822 262011 0 -390240 261284 0 -388661 260559 0 -387085 259838 0 -385512 259120 0 -383942 258406 0 -382375 257694 0 -380811 256986 0 -379249 256280 0 -377691 255578 0 -376136 254879 0 -374584 254183 0 -373034 253490 0 -371487 252799 0 -369944 252112 0 -368403 251427 0 -366865 250746 0 -365330 250067 0 -363797 249391 0 -362268 248718 0 -360741 248048 0 -359217 247380 0 -357696 246715 0 -356178 246053 0 -354662 245393 0 -353149 244736 0 -351639 244082 0 -350131 243430 0 -348627 242781 0 -347125 242134 0 -345625 241490 0 -344128 240849 0 -342634 240210 0 -341143 239573 0 -339654 238939 0 -338167 238307 0 -336684 237678 0 -335203 237051 0 -333724 236426 0 -332248 235804 0 -330775 235184 0 -329304 234566 0 -327836 233951 0 -326370 233338 0 -324906 232727 0 -323446 232119 0 -321987 231512 0 -320532 230908 0 -319078 230306 0 -317627 229707 0 -316179 229109 0 -314733 228513 0 -313289 227920 0 -311848 227329 0 -310409 226740 0 -308973 226153 0 -307539 225568 0 -306108 224985 0 -304678 224404 0 -303252 223825 0 -301827 223248 0 -300405 222673 0 -298985 222100 0 -297568 221529 0 -296153 220960 0 -294740 220393 0 -499441 332042 0 -497647 330972 0 -495856 329908 0 -494069 328850 0 -492285 327799 0 -490505 326753 0 -488728 325713 0 -486954 324680 0 -485184 323652 0 -483418 322630 0 -481655 321613 0 -479895 320603 0 -478139 319598 0 -476386 318599 0 -474636 317605 0 -472890 316617 0 -471148 315634 0 -469409 314657 0 -467673 313685 0 -465940 312719 0 -464211 311757 0 -462486 310802 0 -460763 309851 0 -459044 308905 0 -457329 307965 0 -455617 307030 0 -453908 306099 0 -452202 305174 0 -450500 304253 0 -448801 303338 0 -447106 302427 0 -445413 301521 0 -443724 300620 0 -442039 299724 0 -440357 298832 0 -438678 297945 0 -437002 297062 0 -435329 296184 0 -433660 295310 0 -431994 294441 0 -430332 293576 0 -428672 292716 0 -427016 291860 0 -425363 291008 0 -423713 290161 0 -422067 289317 0 -420423 288478 0 -418783 287643 0 -417146 286812 0 -415512 285985 0 -413882 285162 0 -412254 284343 0 -410630 283528 0 -409009 282717 0 -407391 281909 0 -405776 281106 0 -404164 280306 0 -402555 279510 0 -400949 278717 0 -399347 277929 0 -397747 277144 0 -396151 276362 0 -394557 275584 0 -392967 274810 0 -391379 274039 0 -389795 273271 0 -388214 272507 0 -386635 271746 0 -385060 270989 0 -383487 270235 0 -381917 269484 0 -380351 268737 0 -378787 267993 0 -377226 267252 0 -375668 266514 0 -374113 265779 0 -372561 265048 0 -371012 264319 0 -369465 263594 0 -367922 262871 0 -366381 262152 0 -364843 261436 0 -363308 260722 0 -361776 260012 0 -360246 2593