<?xml version="1.0"?> 
<VTKFile type="StructuredGrid" version="0.1"> 
<StructuredGrid WholeExtent="0 127 0 127 0 0"> 
<Piece Extent="0 127 0 127 0 0"> 
<PointData>
<DataArray type="Float32" Name="E" format="ascii" NumberOfComponents="3"> 
-740169 -1.89518e+06 0 1567.51 -1.52407e+06 0 16254.8 -1.47057e+06 0 131031 -1.38618e+06 0 193495 -1.32823e+06 0 264838 -1.26526e+06 0 322646 -1.20671e+06 0 376997 -1.14793e+06 0 424594 -1.09063e+06 0 467427 -1.03429e+06 0 505324 -979357 0 538961 -925889 0 568645 -874065 0 594803 -823963 0 617772 -775648 0 637886 -729144 0 655437 -684452 0 670692 -641552 0 683890 -600408 0 695240 -560970 0 704933 -523185 0 713135 -486990 0 719994 -452322 0 725641 -419115 0 730192 -387305 0 733750 -356827 0 736406 -327619 0 738241 -299619 0 739327 -272769 0 739729 -247014 0 739503 -222301 0 738700 -198579 0 737367 -175800 0 735545 -153919 0 733270 -132894 0 730575 -112684 0 727492 -93251.3 0 724046 -74560 0 720263 -56576.6 0 716166 -39269.4 0 711773 -22608.4 0 707105 -6565.58 0 702179 8885.52 0 697009 23769.9 0 691610 38111 0 685996 51931.1 0 680179 65251.1 0 674170 78090.7 0 667980 90468.6 0 661618 102402 0 655094 113909 0 648416 125003 0 641593 135701 0 634631 146016 0 627537 155962 0 620319 165551 0 612982 174796 0 605533 183708 0 597977 192297 0 590319 200575 0 582565 208551 0 574719 216234 0 566787 223633 0 558771 230757 0 550677 237614 0 542509 244212 0 534270 250557 0 525964 256658 0 517595 262521 0 509167 268152 0 500682 273558 0 492144 278744 0 483556 283717 0 474921 288481 0 466242 293042 0 457523 297406 0 448764 301576 0 439971 305558 0 431144 309355 0 422287 312973 0 413401 316416 0 404491 319686 0 395557 322790 0 386602 325729 0 377629 328507 0 368640 331129 0 359636 333597 0 350620 335915 0 341594 338085 0 332561 340111 0 323521 341996 0 314477 343742 0 305431 345353 0 296384 346829 0 287339 348176 0 278298 349394 0 269261 350486 0 260232 351454 0 251210 352301 0 242199 353029 0 233200 353640 0 224214 354136 0 215243 354518 0 206289 354789 0 197353 354951 0 188436 355005 0 179540 354954 0 170667 354798 0 161818 354539 0 152994 354179 0 144197 353720 0 135428 353163 0 126688 352509 0 117980 351760 0 109303 350917 0 100660 349981 0 92051.6 348954 0 83479.1 347836 0 74943.8 346630 0 66447 345335 0 57989.8 343954 0 49573.5 342487 0 41199.3 340936 0 32868.3 339301 0 24581.7 337582 0 16340.7 335782 0 8146.45 333902 0 0 331940 0 -506986 -1.76295e+06 0 -48297.3 -1.53266e+06 0 25425.8 -1.45353e+06 0 122281 -1.38126e+06 0 192604 -1.31978e+06 0 260759 -1.25937e+06 0 319783 -1.20073e+06 0 373505 -1.14285e+06 0 421250 -1.08599e+06 0 463948 -1.0302e+06 0 501865 -975709 0 535494 -922669 0 565214 -871221 0 591415 -821461 0 614444 -773453 0 634625 -727224 0 652251 -682780 0 667586 -640101 0 680864 -599155 0 692298 -559896 0 702073 -522270 0 710357 -486220 0 717296 -451682 0 723021 -418593 0 727648 -386889 0 731280 -356508 0 734007 -327387 0 735911 -299467 0 737064 -272691 0 737529 -247003 0 737365 -222351 0 736621 -198686 0 735345 -175959 0 733577 -154126 0 731355 -133146 0 728711 -112977 0 725676 -93582.4 0 722278 -74926.8 0 718540 -56976.7 0 714486 -39700.6 0 710136 -23068.8 0 705509 -7053.31 0 700622 8372.15 0 695490 23232.4 0 690128 37550.8 0 684550 51349.5 0 678768 64649.3 0 672792 77469.9 0 666635 89829.7 0 660305 101746 0 653812 113237 0 647164 124316 0 640370 134999 0 633436 145300 0 626370 155233 0 619179 164810 0 611869 174043 0 604446 182944 0 596915 191522 0 589282 199790 0 581552 207756 0 573730 215430 0 565820 222820 0 557827 229936 0 549756 236785 0 541609 243376 0 533392 249714 0 525107 255809 0 516759 261665 0 508351 267290 0 499886 272690 0 491367 277871 0 482799 282839 0 474183 287599 0 465523 292156 0 456821 296515 0 448081 300681 0 439305 304659 0 430496 308454 0 421656 312069 0 412788 315508 0 403894 318777 0 394977 321878 0 386039 324815 0 377081 327592 0 368108 330212 0 359120 332679 0 350119 334995 0 341109 337165 0 332090 339190 0 323065 341074 0 314036 342820 0 305004 344430 0 295972 345907 0 286942 347254 0 277914 348472 0 268891 349565 0 259875 350534 0 250868 351382 0 241870 352111 0 232884 352723 0 223911 353220 0 214953 353604 0 206012 353877 0 197088 354041 0 188184 354097 0 179301 354048 0 170440 353894 0 161603 353638 0 152792 353281 0 144007 352825 0 135250 352270 0 126522 351619 0 117825 350873 0 109160 350034 0 100528 349101 0 91931.2 348078 0 83370.1 346964 0 74846 345761 0 66360.4 344471 0 57914.3 343094 0 49509 341631 0 41145.7 340084 0 32825.6 338453 0 24549.8 336740 0 16319.5 334944 0 8135.87 333068 0 0 331112 0 -442107 -1.682e+06 0 -69293.2 -1.52814e+06 0 25476.9 -1.44106e+06 0 117395 -1.37433e+06 0 190207 -1.31217e+06 0 257392 -1.25313e+06 0 316699 -1.19491e+06 0 370173 -1.13773e+06 0 417903 -1.08137e+06 0 460528 -1.02611e+06 0 498435 -972066 0 532065 -919445 0 561812 -868373 0 588055 -818954 0 611140 -771251 0 631388 -725297 0 649086 -681099 0 664498 -638642 0 677856 -597894 0 689370 -558813 0 699227 -521348 0 707591 -485442 0 714609 -451034 0 720412 -418063 0 725114 -386466 0 728819 -356181 0 731617 -327149 0 733589 -299309 0 734807 -272606 0 735336 -246986 0 735233 -222395 0 734548 -198786 0 733328 -176112 0 731615 -154328 0 729445 -133392 0 726851 -113264 0 723865 -93908.6 0 720514 -75288.9 0 716821 -57372.3 0 712811 -40127.5 0 708503 -23525 0 703916 -7536.95 0 699068 7862.73 0 693974 22698.7 0 688649 36994.4 0 683107 50771.5 0 677359 64051 0 671417 76852.4 0 665292 89194.1 0 658994 101094 0 652532 112567 0 645914 123631 0 639149 134300 0 632244 144588 0 625206 154507 0 618042 164072 0 610758 173293 0 603361 182182 0 595855 190750 0 588247 199007 0 580541 206964 0 572742 214628 0 564856 222010 0 556886 229118 0 548836 235959 0 540711 242542 0 532515 248873 0 524252 254961 0 515924 260811 0 507536 266430 0 499091 271825 0 490592 277001 0 482043 281963 0 473446 286718 0 464805 291271 0 456121 295626 0 447399 299789 0 438641 303763 0 429849 307554 0 421027 311166 0 412176 314603 0 403298 317869 0 394398 320967 0 385476 323903 0 376535 326678 0 367577 329296 0 358604 331762 0 349619 334077 0 340624 336246 0 331620 338270 0 322610 340154 0 313596 341899 0 304579 343509 0 295561 344986 0 286544 346333 0 277531 347552 0 268522 348645 0 259520 349615 0 250526 350464 0 241541 351194 0 232569 351807 0 223609 352306 0 214664 352692 0 205735 352966 0 196825 353132 0 187933 353190 0 179062 353143 0 170214 352992 0 161389 352738 0 152590 352384 0 143817 351930 0 135071 351379 0 126356 350731 0 117670 349988 0 109017 349152 0 100397 348223 0 91811.1 347203 0 83261.3 346093 0 74748.5 344894 0 66273.9 343608 0 57838.9 342235 0 49444.6 340776 0 41092.3 339233 0 32783 337607 0 24517.9 335898 0 16298.3 334108 0 8125.32 332236 0 0 330285 0 -393747 -1.62185e+06 0 -84322.7 -1.51832e+06 0 24080.6 -1.43019e+06 0 113284 -1.36665e+06 0 187590 -1.30486e+06 0 254203 -1.24677e+06 0 313615 -1.18915e+06 0 366909 -1.13259e+06 0 414591 -1.07677e+06 0 457153 -1.02201e+06 0 495040 -968425 0 528670 -916220 0 558441 -865523 0 584724 -816442 0 607862 -769043 0 628173 -723364 0 645942 -679411 0 661428 -637174 0 674865 -596625 0 686458 -557722 0 696395 -520417 0 704838 -484655 0 711934 -450378 0 717813 -417525 0 722590 -386035 0 726367 -355847 0 729235 -326903 0 731274 -299144 0 732558 -272515 0 733150 -246962 0 733107 -222433 0 732480 -198881 0 731317 -176259 0 729657 -154524 0 727539 -133633 0 724996 -113547 0 722058 -94229.9 0 718753 -75646.4 0 715106 -57763.4 0 711139 -40550 0 706872 -23976.9 0 702326 -8016.52 0 697517 7357.24 0 692462 22168.9 0 687173 36441.6 0 681666 50197.1 0 675953 63456.2 0 670045 76238.3 0 663952 88561.8 0 657686 100444 0 651254 111902 0 644666 122950 0 637930 133604 0 631053 143877 0 624043 153784 0 616906 163336 0 609649 172545 0 602277 181423 0 594797 189980 0 587213 198227 0 579531 206174 0 571756 213829 0 563893 221202 0 555945 228301 0 547918 235135 0 539815 241710 0 531640 248035 0 523398 254115 0 515091 259959 0 506723 265573 0 498298 270961 0 489819 276132 0 481288 281089 0 472710 285840 0 464088 290388 0 455423 294739 0 446719 298898 0 437978 302869 0 429204 306656 0 420398 310265 0 411564 313699 0 402704 316963 0 393819 320059 0 384914 322992 0 375989 325765 0 367047 328382 0 358090 330846 0 349120 333160 0 340140 335328 0 331152 337352 0 322156 339235 0 313156 340980 0 304154 342590 0 295150 344067 0 286148 345414 0 277148 346633 0 268153 347727 0 259165 348697 0 250184 349547 0 241213 350279 0 232254 350893 0 223307 351393 0 214375 351780 0 205459 352057 0 196561 352224 0 187682 352285 0 178824 352240 0 169988 352091 0 161175 351840 0 152388 351488 0 143627 351037 0 134894 350488 0 126189 349844 0 117516 349104 0 108874 348271 0 100265 347345 0 91691.2 346329 0 83152.6 345223 0 74651 344028 0 66187.7 342746 0 57763.7 341377 0 49380.4 339922 0 41038.9 338384 0 32740.4 336762 0 24486.1 335058 0 16277.2 333272 0 8114.78 331405 0 0 329459 0 -363595 -1.57539e+06 0 -94136.5 -1.5055e+06 0 21562.2 -1.42013e+06 0 109815 -1.35858e+06 0 184821 -1.29769e+06 0 251163 -1.24038e+06 0 310545 -1.18342e+06 0 363708 -1.12745e+06 0 411316 -1.07218e+06 0 453819 -1.01792e+06 0 491681 -964786 0 525309 -912992 0 555100 -862669 0 581420 -813925 0 604610 -766830 0 624981 -721423 0 642818 -677716 0 658378 -635699 0 671890 -595347 0 683562 -556623 0 693576 -519478 0 702097 -483861 0 709270 -449714 0 715225 -416979 0 720075 -385597 0 723923 -355506 0 726861 -326651 0 728967 -298972 0 730316 -272417 0 730970 -246931 0 730987 -222465 0 730418 -198971 0 729311 -176401 0 727705 -154714 0 725639 -133868 0 723146 -113825 0 720256 -94546.4 0 716997 -75999.1 0 713394 -58150 0 709470 -40968.2 0 705246 -24424.7 0 700740 -8492.04 0 695970 6855.67 0 690952 21642.8 0 685700 35892.4 0 680229 49626.3 0 674550 62864.8 0 668675 75627.5 0 662615 87932.7 0 656380 99797.6 0 649979 111239 0 643421 122272 0 636714 132911 0 629865 143170 0 622883 153063 0 615773 162603 0 608542 171800 0 601196 180666 0 593740 189213 0 586181 197449 0 578524 205386 0 570772 213032 0 562932 220397 0 555007 227488 0 547002 234313 0 538921 240881 0 530767 247198 0 522545 253272 0 514259 259109 0 505911 264717 0 497506 270100 0 489046 275265 0 480535 280217 0 471976 284963 0 463372 289507 0 454725 293854 0 446039 298008 0 437316 301976 0 428559 305760 0 419771 309366 0 410954 312797 0 402110 316058 0 393242 319152 0 384353 322083 0 375444 324854 0 366518 327470 0 357576 329932 0 348622 332245 0 339657 334412 0 330684 336435 0 321703 338318 0 312718 340062 0 303730 341672 0 294741 343149 0 285752 344496 0 276767 345716 0 267785 346810 0 258810 347781 0 249843 348632 0 240886 349364 0 231939 349980 0 223006 350482 0 214087 350870 0 205184 351149 0 196298 351318 0 187432 351380 0 178586 351337 0 169762 351191 0 160962 350942 0 152187 350593 0 143437 350145 0 134716 349599 0 126024 348958 0 117362 348221 0 108731 347391 0 100134 346469 0 91571.4 345457 0 83044.2 344354 0 74553.8 343163 0 66101.5 341884 0 57688.6 340520 0 49316.2 339070 0 40985.6 337535 0 32697.9 335918 0 24454.4 334218 0 16256.1 332437 0 8104.25 330575 0 0 328634 0 -339245 -1.53785e+06 0 -101159 -1.49114e+06 0 18742.8 -1.41039e+06 0 106662 -1.35033e+06 0 182039 -1.29057e+06 0 248213 -1.23397e+06 0 307514 -1.17771e+06 0 360557 -1.12232e+06 0 408082 -1.0676e+06 0 450526 -1.01383e+06 0 488358 -961149 0 521982 -909764 0 551790 -859812 0 578144 -811404 0 601382 -764611 0 621812 -719476 0 639715 -676013 0 655345 -634216 0 668932 -594062 0 680680 -555516 0 690772 -518532 0 699369 -483059 0 706618 -449043 0 712647 -416426 0 717570 -385151 0 721489 -355158 0 724495 -326391 0 726668 -298794 0 728080 -272313 0 728796 -246895 0 728873 -222491 0 728362 -199054 0 727310 -176538 0 725758 -154900 0 723743 -134099 0 721299 -114097 0 718457 -94858.1 0 715245 -76347.3 0 711686 -58532.1 0 707805 -41382.1 0 703623 -24868.3 0 699157 -8963.52 0 694426 6358.01 0 689445 21120.5 0 684230 35347 0 678794 49059 0 673149 62276.9 0 667308 75020.2 0 661280 87306.9 0 655076 99154.4 0 648706 110579 0 642178 121596 0 635500 132220 0 628679 142466 0 621724 152346 0 614641 161872 0 607436 171057 0 600116 179912 0 592686 188448 0 585151 196674 0 577518 204601 0 569790 212238 0 561972 219593 0 554070 226676 0 546087 233493 0 538027 240053 0 529895 246364 0 521694 252431 0 513428 258262 0 505101 263863 0 496716 269240 0 488275 274400 0 479783 279347 0 471243 284088 0 462657 288627 0 454029 292970 0 445361 297121 0 436655 301085 0 427916 304866 0 419145 308469 0 410344 311897 0 401517 315155 0 392666 318247 0 383793 321176 0 374900 323945 0 365989 326559 0 357064 329020 0 348125 331332 0 339175 333497 0 330216 335520 0 321251 337402 0 312280 339146 0 303306 340755 0 294331 342232 0 285357 343580 0 276385 344800 0 267418 345894 0 258457 346867 0 249503 347718 0 240559 348452 0 231626 349069 0 222705 349571 0 213799 349962 0 204909 350242 0 196036 350413 0 187182 350477 0 178349 350437 0 169537 350292 0 160749 350046 0 151986 349700 0 143248 349254 0 134539 348712 0 125858 348073 0 117208 347340 0 108589 346513 0 100003 345594 0 91451.9 344585 0 82935.9 343486 0 74456.7 342299 0 66015.5 341025 0 57613.6 339664 0 49252.2 338218 0 40932.4 336688 0 32655.5 335075 0 24422.6 333380 0 16235 331603 0 8093.75 329746 0 0 327810 0 -320170 -1.50674e+06 0 -105950 -1.47603e+06 0 15800.5 -1.40077e+06 0 103762 -1.34201e+06 0 179277 -1.28348e+06 0 245342 -1.22757e+06 0 304525 -1.17201e+06 0 357456 -1.1172e+06 0 404889 -1.06303e+06 0 447273 -1.00974e+06 0 485071 -957514 0 518688 -906536 0 548510 -856953 0 574896 -808878 0 598179 -762386 0 618665 -717522 0 636632 -674304 0 652332 -632726 0 665992 -592770 0 677814 -554401 0 687981 -517577 0 696654 -482249 0 703978 -448364 0 710080 -415866 0 715075 -384698 0 719064 -354803 0 722137 -326125 0 724376 -298609 0 725852 -272202 0 726629 -246852 0 726766 -222511 0 726312 -199131 0 725315 -176668 0 723816 -155079 0 721852 -134324 0 719458 -114365 0 716663 -95165.1 0 713496 -76690.8 0 709983 -58909.8 0 706144 -41791.7 0 702003 -25307.8 0 697577 -9430.98 0 692885 5864.24 0 687942 20602 0 682763 34805.2 0 677362 48495.2 0 671752 61692.5 0 665943 74416.1 0 659948 86684.3 0 653775 98514.3 0 647436 109922 0 640937 120924 0 634288 131533 0 627496 141764 0 620568 151631 0 613512 161144 0 606333 170317 0 599039 179161 0 591633 187686 0 584123 195902 0 576514 203819 0 568809 211446 0 561015 218793 0 553135 225866 0 545174 232676 0 537136 239228 0 529025 245531 0 520845 251592 0 512599 257416 0 504292 263011 0 495926 268383 0 487506 273537 0 479033 278479 0 470511 283215 0 461944 287750 0 453334 292089 0 444683 296236 0 435996 300196 0 427274 303973 0 418520 307573 0 409736 310999 0 400926 314254 0 392091 317343 0 383234 320270 0 374357 323038 0 365462 325650 0 356552 328109 0 347628 330420 0 338694 332585 0 329750 334606 0 320799 336487 0 311843 338231 0 302884 339840 0 293923 341317 0 284963 342665 0 276005 343885 0 267051 344980 0 258103 345953 0 249163 346806 0 240232 347540 0 231312 348158 0 222405 348662 0 213512 349054 0 204634 349336 0 195774 349509 0 186933 349575 0 178111 349537 0 169312 349395 0 160536 349151 0 151785 348807 0 143060 348365 0 134362 347825 0 125693 347189 0 117054 346459 0 108447 345636 0 99872.8 344721 0 91332.6 343715 0 82827.8 342620 0 74359.8 341436 0 65929.7 340166 0 57538.8 338809 0 49188.2 337367 0 40879.3 335842 0 32613.1 334233 0 24391 332542 0 16214 330771 0 8083.26 328919 0 0 326987 0 -304084 -1.4803e+06 0 -109185 -1.4607e+06 0 12932 -1.39114e+06 0 101042 -1.33367e+06 0 176565 -1.27639e+06 0 242537 -1.22118e+06 0 301585 -1.16633e+06 0 354402 -1.11209e+06 0 401739 -1.05846e+06 0 444059 -1.00566e+06 0 481821 -953880 0 515426 -903307 0 545260 -854092 0 571675 -806349 0 595001 -760157 0 615541 -715563 0 633569 -672587 0 649337 -631229 0 663067 -591470 0 674963 -553279 0 685204 -516615 0 693952 -481432 0 701349 -447678 0 707523 -415298 0 712589 -384238 0 716647 -354440 0 719788 -325852 0 722092 -298417 0 723631 -272085 0 724469 -246804 0 724664 -222525 0 724267 -199203 0 723325 -176794 0 721878 -155254 0 719966 -134545 0 717620 -114628 0 714873 -95467.2 0 711752 -77029.7 0 708283 -59283 0 704487 -42196.9 0 700387 -25743.1 0 696001 -9894.43 0 691347 5374.36 0 686442 20087.3 0 681299 34267.1 0 675933 47935 0 670357 61111.4 0 664581 73815.4 0 658618 86065 0 652477 97877.4 0 646167 109269 0 639698 120254 0 633078 130849 0 626314 141066 0 619414 150919 0 612385 160419 0 605232 169580 0 597963 178412 0 590583 186926 0 583097 195131 0 575511 203038 0 567830 210656 0 560059 217994 0 552201 225059 0 544262 231861 0 536246 238405 0 528156 244701 0 519997 250755 0 511772 256573 0 503485 262162 0 495139 267527 0 486737 272676 0 478283 277613 0 469781 282344 0 461232 286875 0 452640 291209 0 444007 295352 0 435337 299308 0 426633 303083 0 417896 306679 0 409129 310102 0 400335 313355 0 391517 316442 0 382676 319366 0 373814 322132 0 364935 324742 0 356041 327200 0 347133 329510 0 338213 331673 0 329284 333694 0 320348 335574 0 311406 337318 0 302462 338927 0 293515 340404 0 284569 341751 0 275625 342972 0 266685 344068 0 257751 345041 0 248824 345895 0 239906 346630 0 231000 347249 0 222105 347755 0 213225 348148 0 204360 348432 0 195512 348607 0 186683 348675 0 177875 348638 0 169088 348499 0 160324 348258 0 151585 347916 0 142871 347476 0 134185 346939 0 125528 346307 0 116901 345580 0 108305 344760 0 99742.3 343848 0 91213.5 342846 0 82720 341754 0 74263 340575 0 65844 339308 0 57464 337955 0 49124.4 336518 0 40826.3 334997 0 32570.9 333392 0 24359.4 331706 0 16193 329939 0 8072.79 328092 0 0 326165 0 -290374 -1.45739e+06 0 -111218 -1.44544e+06 0 10217.1 -1.38148e+06 0 98474.2 -1.32534e+06 0 173917 -1.26931e+06 0 239794 -1.21482e+06 0 298695 -1.16065e+06 0 351394 -1.107e+06 0 398631 -1.0539e+06 0 440884 -1.00159e+06 0 478605 -950249 0 512198 -900078 0 542039 -851228 0 568481 -803816 0 591848 -757922 0 612439 -713598 0 630527 -670865 0 646360 -629725 0 660160 -590162 0 672127 -552149 0 682441 -515645 0 691262 -480607 0 698731 -446984 0 704977 -414723 0 710113 -383770 0 714240 -354071 0 717447 -325572 0 719816 -298219 0 721417 -271961 0 722316 -246749 0 722569 -222533 0 722228 -199270 0 721340 -176913 0 719946 -155423 0 718084 -134760 0 715788 -114885 0 713088 -95764.7 0 710012 -77364 0 706586 -59651.8 0 702833 -42598 0 698774 -26174.2 0 694428 -10353.9 0 689813 4888.34 0 684944 19576.3 0 679838 33732.5 0 674507 47378.3 0 668964 60533.8 0 663222 73218 0 657291 85448.9 0 651181 97243.6 0 644902 108618 0 638462 119588 0 631871 130167 0 625135 140370 0 618262 150209 0 611259 159697 0 604133 168846 0 596889 177666 0 589534 186168 0 582073 194364 0 574511 202261 0 566853 209869 0 559104 217198 0 551269 224254 0 543352 231048 0 535358 237585 0 527289 243873 0 519151 249920 0 510946 255731 0 502679 261314 0 494352 266674 0 485970 271817 0 477535 276749 0 469051 281475 0 460521 286001 0 451947 290331 0 443332 294470 0 434680 298423 0 425993 302194 0 417273 305787 0 408523 309207 0 399746 312457 0 390943 315541 0 382118 318464 0 373273 321227 0 364410 323836 0 355531 326293 0 346638 328601 0 337733 330763 0 328819 332783 0 319898 334663 0 310971 336406 0 302040 338015 0 293108 339491 0 284176 340839 0 275246 342060 0 266320 343156 0 257399 344131 0 248486 344985 0 239581 345721 0 230687 346342 0 221806 346849 0 212938 347244 0 204086 347528 0 195251 347705 0 186435 347776 0 177638 347741 0 168864 347604 0 160112 347365 0 151385 347026 0 142683 346589 0 134009 346055 0 125363 345425 0 116748 344702 0 108164 343885 0 99612.1 342977 0 91094.6 341978 0 82612.2 340890 0 74166.5 339714 0 65758.4 338451 0 57389.4 337103 0 49060.7 335670 0 40773.3 334153 0 32528.7 332553 0 24327.8 330871 0 16172 329109 0 8062.34 327266 0 0 325344 0 -278372 -1.43718e+06 0 -112343 -1.43045e+06 0 7711.65 -1.37176e+06 0 96038.5 -1.31703e+06 0 171342 -1.26222e+06 0 237110 -1.20847e+06 0 295856 -1.15499e+06 0 348432 -1.10192e+06 0 395565 -1.04935e+06 0 437747 -997518 0 475425 -946621 0 509001 -896850 0 538848 -848363 0 565314 -801279 0 588719 -755683 0 609359 -711627 0 627505 -669135 0 643402 -628214 0 657270 -588848 0 669307 -551012 0 679692 -514668 0 688584 -479775 0 696125 -446283 0 702442 -414141 0 707647 -383296 0 711841 -353695 0 715114 -325285 0 717547 -298015 0 719210 -271832 0 720169 -246688 0 720480 -222536 0 720195 -199330 0 719361 -177028 0 718019 -155587 0 716208 -134970 0 713960 -115138 0 711307 -96057.4 0 708276 -77693.8 0 704894 -60016.2 0 701183 -42994.7 0 697165 -26601.3 0 692859 -10809.4 0 688282 4406.17 0 683450 19069 0 678380 33201.6 0 673084 46825.1 0 667575 59959.6 0 661866 72623.9 0 655966 84836 0 649887 96612.9 0 643639 107971 0 637229 118924 0 630666 129489 0 623958 139677 0 617112 149503 0 610136 158978 0 603036 168114 0 595817 176922 0 588487 185414 0 581050 193598 0 573512 201485 0 565878 209084 0 558152 216404 0 550339 223452 0 542444 230237 0 534471 236766 0 526423 243047 0 518306 249087 0 510121 254892 0 501874 260468 0 493567 265822 0 485204 270960 0 476789 275887 0 468323 280608 0 459811 285129 0 451255 289455 0 442659 293590 0 434024 297539 0 425354 301306 0 416651 304896 0 407918 308313 0 399157 311561 0 390371 314643 0 381562 317563 0 372733 320325 0 363885 322932 0 355021 325387 0 346144 327693 0 337254 329855 0 328355 331874 0 319449 333753 0 310536 335496 0 301620 337104 0 292702 338581 0 283784 339928 0 274867 341150 0 265955 342247 0 257048 343221 0 248148 344076 0 239256 344814 0 230376 345436 0 221507 345944 0 212652 346340 0 203813 346627 0 194991 346805 0 186187 346878 0 177403 346845 0 168640 346710 0 159900 346474 0 151185 346138 0 142495 345703 0 133833 345172 0 125199 344545 0 116595 343825 0 108022 343011 0 99482.1 342106 0 90975.8 341111 0 82504.7 340027 0 74070 338855 0 65673 337596 0 57315 336252 0 48997 334822 0 40720.5 333310 0 32486.5 331714 0 24296.3 330037 0 16151.1 328279 0 8051.91 326442 0 0 324525 0 -267726 -1.41906e+06 0 -112764 -1.41583e+06 0 5439.15 -1.36201e+06 0 93725.7 -1.30875e+06 0 168844 -1.25513e+06 0 234485 -1.20214e+06 0 293068 -1.14934e+06 0 345514 -1.09685e+06 0 392540 -1.04481e+06 0 434648 -993456 0 472281 -942995 0 505837 -893622 0 535687 -845496 0 562173 -798740 0 585614 -753440 0 606302 -709650 0 624504 -667400 0 640462 -626696 0 654396 -587526 0 666502 -549867 0 676957 -513684 0 685920 -478935 0 693531 -445574 0 699917 -413551 0 705190 -382815 0 709451 -353312 0 712790 -324992 0 715286 -297804 0 717010 -271696 0 718028 -246621 0 718397 -222532 0 718168 -199385 0 717388 -177137 0 716098 -155746 0 714336 -135175 0 712136 -115386 0 709530 -96345.4 0 706545 -78019.1 0 703206 -60376.2 0 699537 -43387.3 0 695560 -27024.3 0 691292 -11260.9 0 686754 3927.85 0 681959 18565.5 0 676924 32674.3 0 671663 46275.5 0 666188 59388.8 0 660512 72033.1 0 654644 84226.4 0 648596 95985.4 0 642378 107326 0 635997 118264 0 629463 128813 0 622783 138987 0 615965 148799 0 609015 158261 0 601941 167384 0 594748 176181 0 587442 184661 0 580029 192835 0 572515 200712 0 564904 208302 0 557201 215612 0 549411 222651 0 541537 229428 0 533586 235950 0 525559 242224 0 517462 248256 0 509298 254054 0 501071 259625 0 492784 264973 0 484440 270105 0 476043 275026 0 467597 279743 0 459103 284259 0 450565 288581 0 441986 292712 0 433369 296657 0 424716 300421 0 416030 304008 0 407314 307422 0 398570 310666 0 389800 313746 0 381007 316664 0 372193 319424 0 363361 322029 0 354513 324482 0 345651 326788 0 336776 328948 0 327892 330966 0 319000 332845 0 310102 334587 0 301200 336195 0 292296 337671 0 283392 339019 0 274489 340241 0 265591 341338 0 256697 342313 0 247810 343169 0 238932 343908 0 230065 344531 0 221209 345040 0 212367 345438 0 203540 345726 0 194730 345907 0 185939 345981 0 177167 345951 0 168417 345818 0 159689 345584 0 150986 345250 0 142308 344819 0 133657 344290 0 125035 343666 0 116442 342949 0 107881 342139 0 99352.4 341237 0 90857.3 340245 0 82397.4 339165 0 73973.8 337997 0 65587.8 336742 0 57240.6 335401 0 48933.5 333976 0 40667.8 332468 0 32444.5 330877 0 24264.9 329204 0 16130.2 327451 0 8041.5 325618 0 0 323706 0 -258154 -1.40261e+06 0 -112641 -1.40165e+06 0 3408.85 -1.35225e+06 0 91529.9 -1.3005e+06 0 166425 -1.24806e+06 0 231917 -1.19583e+06 0 290331 -1.14371e+06 0 342642 -1.09179e+06 0 389557 -1.04028e+06 0 431587 -989400 0 469171 -939373 0 502705 -890395 0 532555 -842629 0 559060 -796198 0 582534 -751192 0 603267 -707669 0 621522 -665659 0 637540 -625172 0 651538 -586198 0 663712 -548716 0 674236 -512693 0 683268 -478089 0 690948 -444859 0 697403 -412955 0 702744 -382326 0 707071 -352923 0 710474 -324693 0 713032 -297586 0 714818 -271554 0 715895 -246548 0 716320 -222523 0 716146 -199435 0 715419 -177240 0 714181 -155900 0 712469 -135375 0 710317 -115630 0 707757 -96628.8 0 704817 -78339.9 0 701522 -60731.9 0 697895 -43775.6 0 693958 -27443.2 0 689730 -11708.4 0 685229 3453.34 0 680471 18065.7 0 675472 32150.6 0 670246 45729.3 0 664805 58821.4 0 659161 71445.7 0 653325 83619.9 0 647308 95361 0 641119 106685 0 634768 117606 0 628262 128140 0 621610 138299 0 614819 148097 0 607896 157546 0 600848 166658 0 593680 175443 0 586399 183912 0 579011 192075 0 571520 199942 0 563932 207521 0 556252 214823 0 548484 221853 0 540632 228622 0 532702 235136 0 524696 241402 0 516620 247428 0 508476 253219 0 500269 258783 0 492001 264125 0 483677 269252 0 475299 274168 0 466871 278879 0 458396 283391 0 449876 287708 0 441315 291835 0 432715 295777 0 424079 299537 0 415410 303121 0 406711 306531 0 397983 309774 0 389230 312851 0 380453 315766 0 371655 318524 0 362839 321127 0 354006 323579 0 345159 325884 0 336299 328043 0 327430 330060 0 318552 331938 0 309669 333679 0 300781 335287 0 291891 336763 0 283001 338111 0 274112 339333 0 265227 340431 0 256347 341407 0 247473 342264 0 238609 343003 0 229754 343627 0 220911 344138 0 212082 344537 0 203268 344827 0 194471 345009 0 185691 345085 0 176932 345057 0 168194 344927 0 159478 344695 0 150787 344364 0 142121 343935 0 133482 343409 0 124871 342789 0 116290 342074 0 107740 341267 0 99222.8 340369 0 90739 339381 0 82290.2 338304 0 73877.7 337140 0 65502.7 335888 0 57166.4 334552 0 48870.1 333131 0 40615.1 331627 0 32402.5 330040 0 24233.5 328372 0 16109.3 326624 0 8031.1 324796 0 0 322888 0 -249462 -1.3875e+06 0 -112094 -1.38793e+06 0 1618.71 -1.34248e+06 0 89448.2 -1.2923e+06 0 164085 -1.24099e+06 0 229407 -1.18955e+06 0 287645 -1.13809e+06 0 339814 -1.08675e+06 0 386615 -1.03576e+06 0 428563 -985351 0 466096 -935755 0 499605 -887169 0 529452 -839760 0 555973 -793653 0 579478 -748940 0 600254 -705682 0 618561 -663912 0 634637 -623641 0 648698 -584863 0 660936 -547558 0 671528 -511694 0 680628 -477235 0 688377 -444136 0 694899 -412351 0 700307 -381831 0 704699 -352527 0 708166 -324387 0 710786 -297363 0 712632 -271406 0 713768 -246470 0 714250 -222508 0 714131 -199479 0 713457 -177339 0 712269 -156049 0 710607 -135570 0 708503 -115868 0 705989 -96907.5 0 703093 -78656.2 0 699841 -61083.2 0 696256 -44159.7 0 692359 -27858 0 688170 -12152.1 0 683707 2982.65 0 678987 17569.5 0 674023 31630.5 0 668831 45186.6 0 663423 58257.3 0 657812 70861.4 0 652008 83016.7 0 646022 94739.7 0 639863 106046 0 633541 116952 0 627064 127470 0 620440 137615 0 613676 147399 0 606779 156835 0 599756 165934 0 592614 174707 0 585358 183164 0 577994 191317 0 570527 199174 0 562962 206744 0 555304 214035 0 547558 221058 0 539729 227818 0 531820 234324 0 523835 240582 0 515780 246601 0 507656 252386 0 499469 257943 0 491221 263280 0 482915 268400 0 474557 273311 0 466147 278018 0 457690 282525 0 449188 286837 0 440645 290960 0 432062 294898 0 423444 298655 0 414792 302235 0 406109 305643 0 397398 308882 0 388660 311957 0 379900 314870 0 371118 317626 0 362317 320228 0 353499 322678 0 344667 324981 0 335823 327139 0 326968 329155 0 318105 331032 0 309236 332773 0 300363 334381 0 291487 335857 0 282611 337205 0 273736 338427 0 264864 339525 0 255997 340502 0 247137 341359 0 238285 342100 0 229444 342725 0 220614 343237 0 211798 343638 0 202996 343929 0 194211 344113 0 185445 344191 0 176697 344165 0 167971 344037 0 159268 343808 0 150588 343479 0 141934 343053 0 133307 342530 0 124708 341912 0 116138 341201 0 107600 340397 0 99093.5 339502 0 90621 338518 0 82183.3 337444 0 73781.8 336284 0 65417.7 335036 0 57092.3 333704 0 48806.9 332287 0 40562.6 330787 0 32360.6 329205 0 24202.2 327542 0 16088.5 325798 0 8020.72 323974 0 0 322072 0 -241500 -1.37347e+06 0 -111216 -1.37467e+06 0 60.4194 -1.33275e+06 0 87478.2 -1.28414e+06 0 161825 -1.23394e+06 0 226955 -1.18328e+06 0 285009 -1.13248e+06 0 337030 -1.08172e+06 0 383714 -1.03125e+06 0 425577 -981308 0 463055 -932141 0 496536 -883945 0 526378 -836890 0 552912 -791105 0 576446 -746685 0 597262 -703691 0 615619 -662160 0 631752 -622105 0 645873 -583522 0 658177 -546393 0 668834 -510689 0 678001 -476374 0 685817 -443407 0 692406 -411741 0 697880 -381330 0 702337 -352124 0 705866 -324074 0 708548 -297133 0 710454 -271252 0 711647 -246385 0 712186 -222488 0 712121 -199517 0 711499 -177432 0 710363 -156192 0 708749 -135761 0 706693 -116102 0 704225 -97181.7 0 701374 -78968 0 698165 -61430.3 0 694621 -44539.6 0 690764 -28268.8 0 686615 -12591.8 0 682189 2515.76 0 677505 17077.1 0 672577 31114 0 667419 44647.3 0 662045 57696.6 0 656466 70280.5 0 650694 82416.6 0 644739 94121.4 0 638610 105411 0 632317 116300 0 625868 126803 0 619271 136933 0 612534 146703 0 605664 156126 0 598667 165212 0 591550 173973 0 584319 182420 0 576978 190561 0 569535 198408 0 561993 205968 0 554358 213251 0 546635 220264 0 538827 227016 0 530939 233514 0 522976 239765 0 514941 245776 0 506837 251555 0 498670 257106 0 490441 262436 0 482155 267551 0 473815 272457 0 465424 277158 0 456985 281661 0 448501 285969 0 439976 290087 0 431411 294021 0 422809 297775 0 414174 301352 0 405508 304757 0 396813 307993 0 388092 311065 0 379347 313976 0 370581 316730 0 361796 319329 0 352994 321778 0 344177 324080 0 335347 326237 0 326507 328252 0 317659 330128 0 308804 331869 0 299945 333476 0 291083 334952 0 282221 336300 0 273360 337522 0 264502 338621 0 255648 339598 0 246801 340456 0 237963 341197 0 229134 341824 0 220318 342337 0 211514 342739