<?xml version="1.0"?> 
<VTKFile type="StructuredGrid" version="0.1"> 
<StructuredGrid WholeExtent="0 127 0 127 0 0"> 
<Piece Extent="0 127 0 127 0 0"> 
<PointData>
<DataArray type="Float32" Name="E" format="ascii" NumberOfComponents="3"> 
-1.78606e+06 -3.15662e+06 0 -1.27715e+06 -2.5233e+06 0 -1.04398e+06 -2.24497e+06 0 -919832 -2.08291e+06 0 -848174 -1.97983e+06 0 -802353 -1.90559e+06 0 -770457 -1.84881e+06 0 -746308 -1.80301e+06 0 -726716 -1.76478e+06 0 -709919 -1.73204e+06 0 -694927 -1.70346e+06 0 -681157 -1.67814e+06 0 -668256 -1.65545e+06 0 -656001 -1.63493e+06 0 -644248 -1.61622e+06 0 -632896 -1.59905e+06 0 -621876 -1.58321e+06 0 -611136 -1.56851e+06 0 -600636 -1.55482e+06 0 -590346 -1.54203e+06 0 -580242 -1.53002e+06 0 -570302 -1.51871e+06 0 -560512 -1.50804e+06 0 -550855 -1.49794e+06 0 -541320 -1.48836e+06 0 -531896 -1.47925e+06 0 -522573 -1.47058e+06 0 -513344 -1.4623e+06 0 -504200 -1.45439e+06 0 -495135 -1.44682e+06 0 -486143 -1.43956e+06 0 -477218 -1.43259e+06 0 -468356 -1.42589e+06 0 -459551 -1.41945e+06 0 -450799 -1.41324e+06 0 -442096 -1.40726e+06 0 -433439 -1.40148e+06 0 -424824 -1.3959e+06 0 -416247 -1.39052e+06 0 -407705 -1.3853e+06 0 -399196 -1.38026e+06 0 -390716 -1.37537e+06 0 -382263 -1.37064e+06 0 -373834 -1.36605e+06 0 -365427 -1.3616e+06 0 -357039 -1.35728e+06 0 -348667 -1.35309e+06 0 -340310 -1.34902e+06 0 -331965 -1.34507e+06 0 -323631 -1.34123e+06 0 -315303 -1.33751e+06 0 -306982 -1.33389e+06 0 -298664 -1.33037e+06 0 -290347 -1.32695e+06 0 -282029 -1.32364e+06 0 -273708 -1.32041e+06 0 -265381 -1.31728e+06 0 -257048 -1.31424e+06 0 -248705 -1.31129e+06 0 -240349 -1.30843e+06 0 -231980 -1.30566e+06 0 -223595 -1.30297e+06 0 -215190 -1.30037e+06 0 -206765 -1.29786e+06 0 -198316 -1.29542e+06 0 -189840 -1.29307e+06 0 -181336 -1.29081e+06 0 -172801 -1.28863e+06 0 -164231 -1.28653e+06 0 -155624 -1.28452e+06 0 -146976 -1.28259e+06 0 -138286 -1.28076e+06 0 -129548 -1.279e+06 0 -120761 -1.27734e+06 0 -111919 -1.27577e+06 0 -103020 -1.27429e+06 0 -94059.8 -1.27291e+06 0 -85033.5 -1.27162e+06 0 -75937.1 -1.27043e+06 0 -66765.7 -1.26935e+06 0 -57514.3 -1.26837e+06 0 -48177.7 -1.26751e+06 0 -38750.1 -1.26675e+06 0 -29225.5 -1.26612e+06 0 -19597.4 -1.26561e+06 0 -9858.91 -1.26523e+06 0 -2.49938 -1.26499e+06 0 9979.85 -1.26489e+06 0 20096.8 -1.26495e+06 0 30357.8 -1.26516e+06 0 40773 -1.26554e+06 0 51353.5 -1.2661e+06 0 62111.4 -1.26685e+06 0 73059.9 -1.2678e+06 0 84213.5 -1.26898e+06 0 95588.3 -1.27038e+06 0 107202 -1.27204e+06 0 119074 -1.27397e+06 0 131226 -1.27619e+06 0 143683 -1.27873e+06 0 156471 -1.28162e+06 0 169623 -1.28489e+06 0 183172 -1.28857e+06 0 197158 -1.29272e+06 0 211628 -1.29737e+06 0 226635 -1.30259e+06 0 242239 -1.30843e+06 0 258513 -1.31499e+06 0 275542 -1.32234e+06 0 293429 -1.33061e+06 0 312298 -1.33991e+06 0 332301 -1.3504e+06 0 353627 -1.36229e+06 0 376517 -1.3758e+06 0 401283 -1.39124e+06 0 428336 -1.40901e+06 0 458236 -1.42961e+06 0 491770 -1.45372e+06 0 530073 -1.48232e+06 0 574849 -1.5168e+06 0 628767 -1.55929e+06 0 696193 -1.61335e+06 0 784631 -1.68513e+06 0 907830 -1.78694e+06 0 1.09209e+06 -1.94286e+06 0 1.39277e+06 -2.21285e+06 0 1.92667e+06 -2.71762e+06 0 2.98037e+06 -3.83659e+06 0 -1.24145e+06 -1.47507e+06 0 -1.26095e+06 -1.61123e+06 0 -1.21647e+06 -1.66141e+06 0 -1.15583e+06 -1.67879e+06 0 -1.09419e+06 -1.67899e+06 0 -1.03726e+06 -1.67075e+06 0 -986468 -1.658e+06 0 -941725 -1.64303e+06 0 -902380 -1.62708e+06 0 -867649 -1.6109e+06 0 -836785 -1.59491e+06 0 -809133 -1.57935e+06 0 -784142 -1.56435e+06 0 -761360 -1.54998e+06 0 -740421 -1.53626e+06 0 -721024 -1.52318e+06 0 -702929 -1.51073e+06 0 -685937 -1.49887e+06 0 -669887 -1.48759e+06 0 -654647 -1.47683e+06 0 -640106 -1.46657e+06 0 -626175 -1.45678e+06 0 -612777 -1.44743e+06 0 -599847 -1.43848e+06 0 -587332 -1.42992e+06 0 -575183 -1.42171e+06 0 -563363 -1.41383e+06 0 -551836 -1.40625e+06 0 -540572 -1.39897e+06 0 -529546 -1.39196e+06 0 -518735 -1.38521e+06 0 -508118 -1.3787e+06 0 -497678 -1.37241e+06 0 -487398 -1.36633e+06 0 -477265 -1.36045e+06 0 -467266 -1.35476e+06 0 -457389 -1.34926e+06 0 -447624 -1.34392e+06 0 -437961 -1.33874e+06 0 -428392 -1.33371e+06 0 -418909 -1.32883e+06 0 -409504 -1.32409e+06 0 -400171 -1.31948e+06 0 -390903 -1.315e+06 0 -381695 -1.31064e+06 0 -372541 -1.30639e+06 0 -363435 -1.30225e+06 0 -354373 -1.29822e+06 0 -345351 -1.2943e+06 0 -336363 -1.29047e+06 0 -327406 -1.28673e+06 0 -318476 -1.28309e+06 0 -309568 -1.27954e+06 0 -300678 -1.27607e+06 0 -291804 -1.27269e+06 0 -282942 -1.26939e+06 0 -274087 -1.26617e+06 0 -265237 -1.26302e+06 0 -256388 -1.25995e+06 0 -247537 -1.25695e+06 0 -238680 -1.25403e+06 0 -229813 -1.25117e+06 0 -220934 -1.24839e+06 0 -212038 -1.24567e+06 0 -203123 -1.24302e+06 0 -194185 -1.24044e+06 0 -185220 -1.23792e+06 0 -176224 -1.23547e+06 0 -167193 -1.23308e+06 0 -158124 -1.23076e+06 0 -149013 -1.2285e+06 0 -139855 -1.22631e+06 0 -130645 -1.22418e+06 0 -121380 -1.22212e+06 0 -112054 -1.22012e+06 0 -102662 -1.21819e+06 0 -93199.7 -1.21632e+06 0 -83660.5 -1.21452e+06 0 -74038.7 -1.21279e+06 0 -64328.3 -1.21113e+06 0 -54522.4 -1.20954e+06 0 -44614 -1.20801e+06 0 -34595.5 -1.20656e+06 0 -24458.8 -1.20519e+06 0 -14195.3 -1.20389e+06 0 -3795.56 -1.20267e+06 0 6750.43 -1.20153e+06 0 17453.6 -1.20048e+06 0 28325.6 -1.1995e+06 0 39379.4 -1.19862e+06 0 50628.8 -1.19783e+06 0 62089.1 -1.19713e+06 0 73777 -1.19653e+06 0 85710.7 -1.19603e+06 0 97910.4 -1.19564e+06 0 110398 -1.19535e+06 0 123199 -1.19518e+06 0 136340 -1.19513e+06 0 149853 -1.1952e+06 0 163770 -1.19539e+06 0 178131 -1.19572e+06 0 192980 -1.19618e+06 0 208364 -1.19678e+06 0 224341 -1.19752e+06 0 240974 -1.19841e+06 0 258336 -1.19944e+06 0 276513 -1.20062e+06 0 295600 -1.20194e+06 0 315713 -1.20339e+06 0 336984 -1.20496e+06 0 359569 -1.20662e+06 0 383652 -1.20834e+06 0 409449 -1.21008e+06 0 437218 -1.21175e+06 0 467263 -1.21325e+06 0 499946 -1.21443e+06 0 535687 -1.21508e+06 0 574976 -1.21487e+06 0 618360 -1.21334e+06 0 666417 -1.2098e+06 0 719678 -1.20323e+06 0 778438 -1.19201e+06 0 842353 -1.17355e+06 0 909495 -1.1434e+06 0 974373 -1.09377e+06 0 1.02283e+06 -1.00832e+06 0 1.022e+06 -856950 0 888097 -555602 0 -1.17351e+06 -1.41581e+06 0 -1.12689e+06 -1.39477e+06 0 -1.1016e+06 -1.39964e+06 0 -1.07935e+06 -1.41009e+06 0 -1.05583e+06 -1.4209e+06 0 -1.03029e+06 -1.42968e+06 0 -1.00329e+06 -1.4359e+06 0 -975599 -1.43957e+06 0 -947882 -1.44097e+06 0 -920641 -1.44046e+06 0 -894207 -1.43839e+06 0 -868776 -1.43508e+06 0 -844445 -1.4308e+06 0 -821243 -1.42579e+06 0 -799151 -1.42023e+06 0 -778125 -1.41427e+06 0 -758104 -1.40804e+06 0 -739018 -1.40162e+06 0 -720796 -1.39511e+06 0 -703367 -1.38856e+06 0 -686665 -1.38201e+06 0 -670625 -1.37549e+06 0 -655189 -1.36905e+06 0 -640303 -1.36269e+06 0 -625919 -1.35643e+06 0 -611992 -1.35028e+06 0 -598482 -1.34424e+06 0 -585353 -1.33833e+06 0 -572571 -1.33255e+06 0 -560107 -1.32689e+06 0 -547934 -1.32135e+06 0 -536028 -1.31594e+06 0 -524367 -1.31065e+06 0 -512931 -1.30548e+06 0 -501701 -1.30043e+06 0 -490662 -1.2955e+06 0 -479797 -1.29067e+06 0 -469094 -1.28595e+06 0 -458539 -1.28134e+06 0 -448121 -1.27683e+06 0 -437830 -1.27241e+06 0 -427654 -1.26809e+06 0 -417585 -1.26386e+06 0 -407614 -1.25972e+06 0 -397733 -1.25567e+06 0 -387935 -1.2517e+06 0 -378213 -1.2478e+06 0 -368559 -1.24399e+06 0 -358969 -1.24025e+06 0 -349435 -1.23658e+06 0 -339952 -1.23298e+06 0 -330515 -1.22945e+06 0 -321118 -1.22598e+06 0 -311757 -1.22258e+06 0 -302427 -1.21923e+06 0 -293124 -1.21595e+06 0 -283841 -1.21273e+06 0 -274576 -1.20956e+06 0 -265324 -1.20644e+06 0 -256081 -1.20338e+06 0 -246842 -1.20036e+06 0 -237603 -1.1974e+06 0 -228361 -1.19449e+06 0 -219111 -1.19162e+06 0 -209848 -1.1888e+06 0 -200569 -1.18602e+06 0 -191270 -1.18329e+06 0 -181945 -1.1806e+06 0 -172592 -1.17795e+06 0 -163204 -1.17534e+06 0 -153779 -1.17276e+06 0 -144310 -1.17023e+06 0 -134794 -1.16774e+06 0 -125225 -1.16527e+06 0 -115598 -1.16285e+06 0 -105907 -1.16046e+06 0 -96147.9 -1.1581e+06 0 -86313.3 -1.15577e+06 0 -76397.6 -1.15348e+06 0 -66394.2 -1.15121e+06 0 -56296.4 -1.14898e+06 0 -46096.9 -1.14677e+06 0 -35788 -1.14458e+06 0 -25361.7 -1.14243e+06 0 -14809.3 -1.14029e+06 0 -4121.82 -1.13817e+06 0 6710.62 -1.13608e+06 0 17698.4 -1.134e+06 0 28852.7 -1.13193e+06 0 40185.4 -1.12987e+06 0 51709.3 -1.12782e+06 0 63438.2 -1.12578e+06 0 75387 -1.12373e+06 0 87571.5 -1.12168e+06 0 100009 -1.11961e+06 0 112718 -1.11753e+06 0 125719 -1.11541e+06 0 139033 -1.11326e+06 0 152684 -1.11106e+06 0 166698 -1.1088e+06 0 181101 -1.10646e+06 0 195924 -1.10403e+06 0 211198 -1.10148e+06 0 226958 -1.09878e+06 0 243240 -1.09591e+06 0 260083 -1.09284e+06 0 277528 -1.08951e+06 0 295619 -1.08588e+06 0 314398 -1.08188e+06 0 333910 -1.07745e+06 0 354196 -1.0725e+06 0 375294 -1.06693e+06 0 397232 -1.06061e+06 0 420027 -1.0534e+06 0 443672 -1.04512e+06 0 468131 -1.03558e+06 0 493322 -1.02453e+06 0 519100 -1.01171e+06 0 545234 -996804 0 571386 -979495 0 597092 -959468 0 621769 -936486 0 644792 -910523 0 665766 -882104 0 685208 -852855 0 706537 -827500 0 740193 -815894 0 817231 -847976 0 -1.09166e+06 -1.22063e+06 0 -1.08192e+06 -1.24612e+06 0 -1.06211e+06 -1.25883e+06 0 -1.04055e+06 -1.26774e+06 0 -1.01909e+06 -1.2749e+06 0 -998076 -1.28119e+06 0 -977389 -1.28673e+06 0 -956885 -1.29152e+06 0 -936483 -1.2955e+06 0 -916173 -1.29865e+06 0 -895989 -1.30094e+06 0 -875991 -1.30242e+06 0 -856246 -1.30314e+06 0 -836815 -1.30314e+06 0 -817751 -1.3025e+06 0 -799095 -1.30129e+06 0 -780874 -1.29958e+06 0 -763107 -1.29744e+06 0 -745800 -1.29492e+06 0 -728954 -1.2921e+06 0 -712562 -1.28901e+06 0 -696612 -1.28569e+06 0 -681091 -1.28221e+06 0 -665980 -1.27857e+06 0 -651262 -1.27482e+06 0 -636916 -1.27098e+06 0 -622924 -1.26708e+06 0 -609265 -1.26313e+06 0 -595921 -1.25915e+06 0 -582872 -1.25514e+06 0 -570101 -1.25114e+06 0 -557590 -1.24713e+06 0 -545323 -1.24314e+06 0 -533284 -1.23916e+06 0 -521459 -1.23521e+06 0 -509834 -1.23129e+06 0 -498395 -1.2274e+06 0 -487130 -1.22354e+06 0 -476028 -1.21972e+06 0 -465078 -1.21593e+06 0 -454269 -1.21219e+06 0 -443592 -1.20849e+06 0 -433038 -1.20482e+06 0 -422597 -1.2012e+06 0 -412262 -1.19762e+06 0 -402025 -1.19408e+06 0 -391879 -1.19058e+06 0 -381817 -1.18712e+06 0 -371832 -1.1837e+06 0 -361918 -1.18032e+06 0 -352069 -1.17698e+06 0 -342278 -1.17367e+06 0 -332541 -1.1704e+06 0 -322853 -1.16716e+06 0 -313207 -1.16396e+06 0 -303599 -1.16079e+06 0 -294025 -1.15765e+06 0 -284479 -1.15454e+06 0 -274956 -1.15146e+06 0 -265453 -1.14841e+06 0 -255965 -1.14539e+06 0 -246487 -1.14239e+06 0 -237015 -1.13941e+06 0 -227545 -1.13646e+06 0 -218072 -1.13353e+06 0 -208593 -1.13062e+06 0 -199102 -1.12773e+06 0 -189597 -1.12486e+06 0 -180071 -1.12201e+06 0 -170521 -1.11916e+06 0 -160942 -1.11633e+06 0 -151331 -1.11352e+06 0 -141681 -1.11071e+06 0 -131989 -1.10791e+06 0 -122250 -1.10511e+06 0 -112458 -1.10232e+06 0 -102609 -1.09953e+06 0 -92696.9 -1.09673e+06 0 -82716.8 -1.09394e+06 0 -72663 -1.09113e+06 0 -62529.5 -1.08832e+06 0 -52310.3 -1.0855e+06 0 -41999.1 -1.08266e+06 0 -31589.3 -1.0798e+06 0 -21074 -1.07691e+06 0 -10446.3 -1.074e+06 0 301.434 -1.07105e+06 0 11176.9 -1.06807e+06 0 22188.1 -1.06504e+06 0 33343.5 -1.06196e+06 0 44651.9 -1.05882e+06 0 56122.4 -1.05562e+06 0 67764.6 -1.05234e+06 0 79588.2 -1.04898e+06 0 91603.4 -1.04552e+06 0 103821 -1.04195e+06 0 116251 -1.03827e+06 0 128905 -1.03444e+06 0 141795 -1.03047e+06 0 154930 -1.02632e+06 0 168322 -1.02198e+06 0 181982 -1.01743e+06 0 195920 -1.01263e+06 0 210145 -1.00756e+06 0 224665 -1.00219e+06 0 239486 -996481 0 254612 -990393 0 270043 -983882 0 285778 -976900 0 301807 -969394 0 318116 -961307 0 334685 -952578 0 351484 -943140 0 368475 -932928 0 385607 -921871 0 402822 -909902 0 420053 -896959 0 437224 -882986 0 454260 -867940 0 471093 -851796 0 487670 -834542 0 503953 -816171 0 519910 -796645 0 535414 -775779 0 549984 -753033 0 561954 -726689 0 566670 -692971 0 550331 -639603 0 -1.04078e+06 -1.1356e+06 0 -1.02298e+06 -1.13761e+06 0 -1.00877e+06 -1.14449e+06 0 -994481 -1.15201e+06 0 -979527 -1.15928e+06 0 -963919 -1.16591e+06 0 -947853 -1.17186e+06 0 -931497 -1.17715e+06 0 -914976 -1.18181e+06 0 -898375 -1.18587e+06 0 -881756 -1.18936e+06 0 -865163 -1.1923e+06 0 -848634 -1.19472e+06 0 -832203 -1.19664e+06 0 -815897 -1.19809e+06 0 -799744 -1.19908e+06 0 -783767 -1.19965e+06 0 -767986 -1.19982e+06 0 -752419 -1.19963e+06 0 -737078 -1.19911e+06 0 -721975 -1.19827e+06 0 -707115 -1.19717e+06 0 -692503 -1.19581e+06 0 -678141 -1.19422e+06 0 -664028 -1.19244e+06 0 -650163 -1.19047e+06 0 -636539 -1.18835e+06 0 -623154 -1.18608e+06 0 -610000 -1.1837e+06 0 -597069 -1.18121e+06 0 -584356 -1.17862e+06 0 -571850 -1.17596e+06 0 -559545 -1.17323e+06 0 -547431 -1.17043e+06 0 -535500 -1.16759e+06 0 -523744 -1.16471e+06 0 -512154 -1.16179e+06 0 -500722 -1.15884e+06 0 -489439 -1.15588e+06 0 -478299 -1.15289e+06 0 -467292 -1.14989e+06 0 -456413 -1.14687e+06 0 -445653 -1.14386e+06 0 -435006 -1.14083e+06 0 -424465 -1.13781e+06 0 -414023 -1.13478e+06 0 -403674 -1.13176e+06 0 -393413 -1.12873e+06 0 -383233 -1.12571e+06 0 -373128 -1.1227e+06 0 -363094 -1.11969e+06 0 -353125 -1.11669e+06 0 -343216 -1.11369e+06 0 -333362 -1.11069e+06 0 -323558 -1.10771e+06 0 -313799 -1.10472e+06 0 -304081 -1.10175e+06 0 -294400 -1.09877e+06 0 -284750 -1.0958e+06 0 -275129 -1.09284e+06 0 -265531 -1.08987e+06 0 -255952 -1.08691e+06 0 -246389 -1.08395e+06 0 -236837 -1.08099e+06 0 -227293 -1.07802e+06 0 -217753 -1.07506e+06 0 -208211 -1.07209e+06 0 -198666 -1.06911e+06 0 -189112 -1.06612e+06 0 -179546 -1.06313e+06 0 -169964 -1.06012e+06 0 -160362 -1.0571e+06 0 -150736 -1.05407e+06 0 -141082 -1.05101e+06 0 -131397 -1.04794e+06 0 -121675 -1.04485e+06 0 -111913 -1.04172e+06 0 -102107 -1.03857e+06 0 -92252 -1.03539e+06 0 -82344.7 -1.03218e+06 0 -72380.3 -1.02892e+06 0 -62354.5 -1.02562e+06 0 -52262.9 -1.02228e+06 0 -42101 -1.01888e+06 0 -31864.2 -1.01542e+06 0 -21548 -1.01191e+06 0 -11147.8 -1.00832e+06 0 -659.013 -1.00466e+06 0 9923.08 -1.00092e+06 0 20603 -997090 0 31385.4 -993163 0 42274.6 -989131 0 53275.1 -984984 0 64390.9 -980713 0 75626.1 -976305 0 86984.1 -971750 0 98468.4 -967034 0 110082 -962144 0 121826 -957065 0 133702 -951780 0 145712 -946273 0 157854 -940524 0 170126 -934515 0 182526 -928223 0 195048 -921628 0 207684 -914704 0 220427 -907427 0 233262 -899771 0 246176 -891710 0 259151 -883216 0 272164 -874261 0 285190 -864818 0 298199 -854860 0 311156 -844360 0 324024 -833293 0 336757 -821638 0 349304 -809373 0 361609 -796482 0 373604 -782949 0 385210 -768765 0 396332 -753925 0 406857 -738435 0 416661 -722330 0 425644 -705722 0 433839 -688887 0 441778 -672629 0 451301 -658665 0 468396 -652519 0 -995467 -1.04004e+06 0 -984158 -1.04936e+06 0 -970946 -1.05609e+06 0 -957478 -1.06212e+06 0 -943989 -1.06777e+06 0 -930473 -1.07318e+06 0 -916870 -1.07831e+06 0 -903146 -1.08313e+06 0 -889296 -1.08761e+06 0 -875332 -1.09175e+06 0 -861277 -1.09551e+06 0 -847155 -1.09891e+06 0 -832996 -1.10194e+06 0 -818823 -1.10462e+06 0 -804663 -1.10694e+06 0 -790535 -1.10891e+06 0 -776461 -1.11056e+06 0 -762458 -1.11189e+06 0 -748542 -1.11292e+06 0 -734726 -1.11366e+06 0 -721023 -1.11412e+06 0 -707442 -1.11433e+06 0 -693993 -1.11429e+06 0 -680682 -1.11403e+06 0 -667514 -1.11355e+06 0 -654494 -1.11288e+06 0 -641624 -1.11203e+06 0 -628906 -1.111e+06 0 -616340 -1.10982e+06 0 -603927 -1.10849e+06 0 -591664 -1.10703e+06 0 -579550 -1.10545e+06 0 -567582 -1.10376e+06 0 -555757 -1.10197e+06 0 -544073 -1.10008e+06 0 -532524 -1.09811e+06 0 -521108 -1.09606e+06 0 -509819 -1.09394e+06 0 -498654 -1.09176e+06 0 -487607 -1.08951e+06 0 -476675 -1.08722e+06 0 -465852 -1.08487e+06 0 -455134 -1.08248e+06 0 -444516 -1.08005e+06 0 -433994 -1.07758e+06 0 -423563 -1.07508e+06 0 -413218 -1.07255e+06 0 -402954 -1.06998e+06 0 -392769 -1.06739e+06 0 -382656 -1.06478e+06 0 -372612 -1.06214e+06 0 -362632 -1.05947e+06 0 -352713 -1.05679e+06 0 -342850 -1.05408e+06 0 -333040 -1.05136e+06 0 -323278 -1.04861e+06 0 -313561 -1.04585e+06 0 -303884 -1.04306e+06 0 -294245 -1.04026e+06 0 -284640 -1.03744e+06 0 -275065 -1.0346e+06 0 -265516 -1.03173e+06 0 -255990 -1.02885e+06 0 -246484 -1.02594e+06 0 -236995 -1.02301e+06 0 -227518 -1.02006e+06 0 -218052 -1.01708e+06 0 -208592 -1.01408e+06 0 -199135 -1.01105e+06 0 -189678 -1.00798e+06 0 -180219 -1.00489e+06 0 -170753 -1.00176e+06 0 -161279 -998602 0 -151792 -995402 0 -142290 -992162 0 -132770 -988879 0 -123229 -985551 0 -113664 -982174 0 -104071 -978745 0 -94449.5 -975261 0 -84795.1 -971717 0 -75105.4 -968111 0 -65377.9 -964437 0 -55609.8 -960691 0 -45798.8 -956869 0 -35942.5 -952965 0 -26038.7 -948974 0 -16085.2 -944889 0 -6080.17 -940705 0 3978.03 -936415 0 14090.9 -932013 0 24259.5 -927489 0 34484.8 -922838 0 44767.2 -918050 0 55106.7 -913116 0 65502.8 -908027 0 75954.6 -902774 0 86460.4 -897345 0 97017.8 -891731 0 107624 -885919 0 118274 -879899 0 128964 -873658 0 139687 -867183 0 150435 -860461 0 161201 -853480 0 171974 -846226 0 182743 -838686 0 193494 -830847 0 204212 -822696 0 214881 -814220 0 225481 -805408 0 235991 -796250 0 246390 -786736 0 256653 -776858 0 266753 -766610 0 276661 -755990 0 286351 -744996 0 295791 -733634 0 304954 -721909 0 313816 -709836 0 322357 -697432 0 330568 -684719 0 338449 -671718 0 345996 -658427 0 353164 -644789 0 359707 -630526 0 364823 -614975 0 365848 -595789 0 -958055 -967531 0 -946375 -972269 0 -935208 -977808 0 -923847 -983279 0 -912233 -988535 0 -900404 -993519 0 -888411 -998235 0 -876291 -1.00269e+06 0 -864065 -1.00688e+06 0 -851752 -1.01082e+06 0 -839364 -1.0145e+06 0 -826914 -1.01792e+06 0 -814413 -1.02108e+06 0 -801875 -1.02397e+06 0 -789312 -1.02661e+06 0 -776738 -1.02899e+06 0 -764164 -1.03112e+06 0 -751605 -1.033e+06 0 -739070 -1.03464e+06 0 -726571 -1.03605e+06 0 -714117 -1.03722e+06 0 -701719 -1.03818e+06 0 -689383 -1.03892e+06 0 -677119 -1.03946e+06 0 -664931 -1.0398e+06 0 -652825 -1.03996e+06 0 -640806 -1.03994e+06 0 -628879 -1.03975e+06 0 -617046 -1.0394e+06 0 -605309 -1.0389e+06 0 -593670 -1.03826e+06 0 -582131 -1.03748e+06 0 -570692 -1.03658e+06 0 -559354 -1.03555e+06 0 -548115 -1.03441e+06 0 -536975 -1.03317e+06 0 -525933 -1.03182e+06 0 -514988 -1.03039e+06 0 -504138 -1.02886e+06 0 -493380 -1.02725e+06 0 -482713 -1.02556e+06 0 -472134 -1.0238e+06 0 -461641 -1.02197e+06 0 -451231 -1.02007e+06 0 -440901 -1.01812e+06 0 -430649 -1.0161e+06 0 -420471 -1.01403e+06 0 -410366 -1.0119e+06 0 -400329 -1.00972e+06 0 -390358 -1.0075e+06 0 -380450 -1.00523e+06 0 -370602 -1.00291e+06 0 -360812 -1.00055e+06 0 -351075 -998148 0 -341389 -995705 0 -331751 -993222 0 -322159 -990700 0 -312609 -988138 0 -303098 -985538 0 -293625 -982900 0 -284186 -980223 0 -274778 -977507 0 -265399 -974753 0 -256045 -971959 0 -246716 -969125 0 -237407 -966251 0 -228117 -963334 0 -218843 -960375 0 -209583 -957372 0 -200334 -954324 0 -191094 -951229 0 -181861 -948085 0 -172633 -944891 0 -163407 -941644 0 -154181 -938343 0 -144954 -934986 0 -135723 -931569 0 -126488 -928090 0 -117245 -924546 0 -107993 -920935 0 -98731.9 -917253 0 -89458.8 -913496 0 -80172.9 -909661 0 -70873 -905744 0 -61558.2 -901742 0 -52227.7 -897649 0 -42880.8 -893462 0 -33517.3 -889175 0 -24136.9 -884784 0 -14739.9 -880283 0 -5326.48 -875668 0 4102.48 -870932 0 13545.9 -866070 0 23002.5 -861075 0 32470.1 -855941 0 41946.6 -850662 0 51429.1 -845231 0 60914.3 -839641 0 70398.1 -833886 0 79876 -827957 0 89342.8 -821848 0 98792.5 -815552 0 108218 -809062 0 117613 -802370 0 126968 -795470 0 136275 -788354 0 145522 -781017 0 154700 -773453 0 163797 -765656 0 172799 -757622 0 181694 -749347 0 190466 -740828 0 199101 -732062 0 207583 -723050 0 215896 -713790 0 224023 -704286 0 231947 -694540 0 239650 -684557 0 247113 -674341 0 254318 -663900 0 261241 -653242 0 267859 -642373 0 274141 -631307 0 280058 -620066 0 285598 -608697 0 290831 -597342 0 296068 -586314 0 302460 -576669 0 -924707 -898830 0 -914702 -904374 0 -904277 -909337 0 -893749 -914093 0 -883142 -918688 0 -872448 -923130 0 -861656 -927406 0 -850764 -931505 0 -839778 -935419 0 -828705 -939140 0 -817556 -942665 0 -806341 -945992 0 -795069 -949120 0 -783751 -952046 0 -772395 -954772 0 -761010 -957298 0 -749606 -959625 0 -738190 -961755 0 -726771 -963690 0 -715356 -965433 0 -703954 -966988 0 -692571 -968358 0 -681214 -969547 0 -669889 -970560 0 -658601 -971402 0 -647356 -972078 0 -636159 -972592 0 -625014 -972951 0 -613924 -973160 0 -602892 -973224 0 -591923 -973149 0 -581017 -972940 0 -570177 -972602 0 -559404 -972141 0 -548700 -971562 0 -538065 -970869 0 -527499 -970068 0 -517004 -969164 0 -506579 -968160 0 -496223 -967060 0 -485936 -965870 0 -475718 -964592 0 -465567 -963231 0 -455482 -961789 0 -445462 -960270 0 -435505 -958678 0 -425611 -957013 0 -415777 -955280 0 -406002 -953481 0 -396284 -951617 0 -386622 -949690 0 -377012 -947704 0 -367455 -945658 0 -357947 -943554 0 -348487 -941394 0 -339072 -939179 0 -329701 -936909 0 -320373 -934586 0 -311084 -932209 0 -301833 -929779 0 -292619 -927297 0 -283438 -924763 0 -274290 -922176 0 -265173 -919537 0 -256084 -916844 0 -247022 -914098 0 -237986 -911298 0 -228973 -908443 0 -219982 -905533 0 -211012 -902566 0 -202060 -899541 0 -193126 -896457 0 -184207 -893312 0 -175304 -890106 0 -166414 -886836 0 -157536 -883500 0 -148670 -880096 0 -139814 -876623 0 -130968 -873078 0 -122130 -869459 0 -113301 -865763 0 -104479 -861987 0 -95664.8 -858129 0 -86857.7 -854186 0 -78057.9 -850155 0 -69265.5 -846033 0 -60480.9 -841815 0 -51704.8 -837500 0 -42937.8 -833082 0 -34181.2 -828560 0 -25436.2 -823927 0 -16704.4 -819182 0 -7987.7 -814320 0 711.63 -809336 0 9391.05 -804227 0 18047.7 -798988 0 26678.2 -793616 0 35278.9 -788105 0 43845.7 -782453 0 52374.2 -776654 0 60859.3 -770705 0 69295.6 -764602 0 77677.2 -758341 0 85997.7 -751919 0 94250.4 -745333 0 102428 -738579 0 110522 -731654 0 118525 -724558 0 126428 -717288 0 134222 -709843 0 141897 -702222 0 149443 -694426 0 156851 -686455 0 164109 -678311 0 171206 -669997 0 178133 -661514 0 184878 -652869 0 191430 -644066 0 197779 -635111 0 203915 -626012 0 209830 -616778 0 215518 -607420 0 220976 -597949 0 226202 -588373 0 231191 -578694 0 235907 -568873 0 240211 -558802 0 243593 -548047 0 -895124 -837985 0 -885593 -842408 0 -876078 -846892 0 -866447 -851263 0 -856703 -855498 0 -846858 -859587 0 -836925 -863531 0 -826913 -867328 0 -816827 -870977 0 -806673 -874476 0 -796457 -877821 0 -786182 -881011 0 -775855 -884043 0 -765483 -886916 0 -755070 -889629 0 -744623 -892181 0 -734149 -894572 0 -723652 -896802 0 -713140 -898873 0 -702617 -900784 0 -692090 -902538 0 -681564 -904136 0 -671044 -905580 0 -660534 -906872 0 -650040 -908016 0 -639566 -909014 0 -629116 -909868 0 -618693 -910583 0 -608302 -911161 0 -597944 -911605 0 -587624 -911920 0 -577344 -912108 0 -567107 -912173 0 -556913 -912119 0 -546765 -911949 0 -536665 -911666 0 -526614 -911275 0 -516612 -910778 0 -506661 -910178 0 -496761 -909480 0 -486913 -908685 0 -477117 -907797 0 -467372 -906819 0 -457679 -905753 0 -448038 -904602 0 -438448 -903369 0 -428908 -902056 0 -419418 -900664 0 -409978 -899197 0 -400586 -897655 0 -391241 -896041 0 -381944 -894357 0 -372691 -892603 0 -363484 -890781 0 -354320 -888893 0 -345199 -886939 0 -336119 -884920 0 -327079 -882838 0 -318078 -880692 0 -309115 -878483 0 -300188 -876212 0 -291297 -873879 0 -282441 -871484 0 -273618 -869028 0 -264826 -866509 0 -256066 -863928 0 -247336 -861285 0 -238635 -858579 0 -229962 -855810 0 -221316 -852976 0 -212697 -850078 0 -204103 -847113 0 -195534 -844082 0 -186989 -840983 0 -178467 -837815 0 -169969 -834577 0 -161493 -831267 0 -153040 -827883 0 -144609 -824425 0 -136199 -820890 0 -127812 -817276 0 -119447 -813583 0 -111105 -809806 0 -102785 -805946 0 -94489.2 -801999 0 -86217.2 -797963 0 -77970.4 -793837 0 -69749.8 -789617 0 -61556.6 -785301 0 -53392.4 -780887 0 -45258.7 -776372 0 -37157.5 -771755 0 -29090.9 -767031 0 -21061.3 -762200 0 -13071.2 -757258 0 -5123.59 -752203 0 2778.5 -747032 0 10631.6 -741744 0 18432.2 -736335 0 26176.2 -730804 0 33859.4 -725149 0 41477.3 -719368 0 49025.1 -713460 0 56497.8 -707422 0 63889.9 -701253 0 71196 -694954 0 78410 -688523 0 85526 -681959 0 92537.6 -675264 0 99438.3 -668437 0 106222 -661479 0 112880 -654393 0 119408 -647178 0 125797 -639839 0 132041 -632377 0 138134 -624797 0 144067 -617101 0 149834 -609295 0 155429 -601383 0 160846 -593371 0 166076 -585264 0 171114 -577068 0 175951 -568790 0 180579 -560437 0 184991 -552020 0 189194 -543569 0 193238 -535140 0 197340 -526937 0 -868174 -781210 0 -859345 -785502 0 -850386 -789615 0 -841356 -793618 0 -832259 -797514 0 -823092 -801302 0 -813857 -804975 0 -804554 -808531 0 -795188 -811965 0 -785762 -815274 0 -776282 -818458 0 -766751 -821512 0 -757174 -824437 0 -747555 -827230 0 -737898 -829891 0 -728208 -832418 0 -718488 -834812 0 -708744 -837070 0 -698979 -839195 0 -689198 -841184 0 -679405 -843040 0 -669603 -844763 0 -659798 -846353 0 -649992 -847812 0 -640189 -849141 0 -630393 -850341 0 -620608 -851415 0 -610836 -852363 0 -601080 -853188 0 -591344 -853891 0 -581629 -854475 0 -571939 -854943 0 -562276 -855296 0 -552641 -855536 0 -543038 -855666 0 -533466 -855688 0 -523929 -855605 0 -514426 -855419 0 -504961 -855132 0 -495533 -854746 0 -486143 -854264 0 -476793 -853688 0 -467483 -853020 0 -458213 -852263 0 -448983 -851417 0 -439795 -850485 0 -430648 -849469 0 -421542 -848371 0 -412477 -847192 0 -403453 -845934 0 -394470 -844598 0 -385527 -843186 0 -376625 -841699 0 -367762 -840138 0 -358939 -838505 0 -350154 -836799 0 -341408 -835023 0 -332700 -833176 0 -324030 -831260 0 -315396 -829275 0 -306799 -827222 0 -298237 -825100 0 -289710 -822911 0 -281218 -820655 0 -272760 -818331 0 -264336 -815939 0 -255944 -813480 0 -247586 -810953 0 -239259 -808358 0 -230965 -805695 0 -222702 -802963 0 -214470 -800162 0 -206269 -797290 0 -198099 -794348 0 -189959 -791335 0 -181851 -788249 0 -173773 -785090 0 -165726 -781857 0 -157710 -778549 0 -149726 -775165 0 -141773 -771703 0 -133853 -768162 0 -125966 -764541 0 -118112 -760839 0 -110293 -757054 0 -102510 -753185 0 -94763.3 -749231 0 -87054.6 -745190 0 -79385.3 -741060 0 -71757 -736840 0 -64171.4 -732529 0 -56630.3 -728125 0 -49135.8 -723627 0 -41690.1 -719034 0 -34295.6 -714344 0 -26954.8 -709555 0 -19670.5 -704667 0 -12445.7 -699678 0 -5283.26 -694588 0 1813.39 -689396 0 8840.85 -684100 0 15795.5 -678701 0 22673.6 -673197 0 29471.2 -667589 0 36184.2 -661876 0 42808.4 -656059 0 49339.5 -650138 0 55772.9 -644113 0 62104.1 -637986 0 68328.5 -631757 0 74441.4 -625429 0 80438 -619002 0 86313.6 -612480 0 92063.3 -605864 0 97682.5 -599157 0 103166 -592363 0 108510 -585484 0 113710 -578524 0 118761 -571489 0 123660 -564381 0 128401 -557206 0 132983 -549970 0 137403 -542678 0 141659 -535336 0 145750 -527948 0 149670 -520513 0 153394 -513017 0 156826 -505383 0 -843456 -728561 0 -835069 -732459 0 -826638 -736301 0 -818139 -740053 0 -809575 -743710 0 -800951 -747269 0 -792271 -750729 0 -783537 -754087 0 -774752 -757343 0 -765919 -760493 0 -757039 -763537 0 -748117 -766471 0 -739154 -769296 0 -730155 -772008 0 -721121 -774608 0 -712057 -777094 0 -702965 -779465 0 -693849 -781720 0 -684712 -783861 0 -675557 -785885 0 -666387 -787793 0 -657205 -789585 0 -648014 -791261 0 -638817 -792822 0 -629618 -794268 0 -620419 -795600 0 -611222 -796819 0 -602031 -797926 0 -592847 -798921 0 -583674 -799806 0 -574514 -800582 0 -565368 -801251 0 -556240 -801814 0 -547130 -802271 0 -538041 -802626 0 -528974 -802879 0 -519931 -803032 0 -510914 -803086 0 -501923 -803043 0 -492961 -802905 0 -484027 -802673 0 -475124 -802349 0 -466252 -801934 0 -457412 -801430 0 -448605 -800839 0 -439830 -800161 0 -431090 -799398 0 -422384 -798552 0 -413712 -797624 0 -405075 -796614 0 -396473 -795525 0 -387907 -794358 0 -379376 -793113 0 -370881 -791791 0 -362422 -790393 0 -353998 -788921 0 -345610 -787375 0 -337257 -785756 0 -328940 -784064 0 -320658 -782299 0 -312412 -780464 0 -304200 -778557 0 -296024 -776579 0 -287883 -774531 0 -279777 -772413 0 -271706 -770224 0 -263669 -767965 0 -255667 -765637 0 -247700 -763238 0 -239768 -760769 0 -231871 -758230 0 -224008 -755620 0 -216180 -752939 0 -208388 -750187 0 -200631 -747364 0 -192910 -744468 0 -185225 -741499 0 -177577 -738458 0 -169965 -735342 0 -162391 -732152 0 -154856 -728887 0 -147359 -725547 0 -139902 -722129 0 -132486 -718635 0 -125112 -715063 0 -117780 -711411 0 -110492 -707681 0 -103250 -703870 0 -96053.8 -699978 0 -88906 -696004 0 -81808.1 -691948 0 -74761.6 -687808 0 -67768.5 -683584 0 -60830.7 -679276 0 -53950.3 -674883 0 -47129.5 -670405 0 -40370.6 -665840 0 -33676 -661189 0 -27048.3 -656452 0 -20490 -651628 0 -14003.9 -646717 0 -7592.98 -641720 0 -1260.03 -636636 0 4991.88 -631467 0 11159.7 -626211 0 17240.1 -620872 0 23230 -615448 0 29126 -609941 0 34924.9 -604353 0 40623.2 -598685 0 46217.7 -592938 0 51704.8 -587115 0 57081.4 -581217 0 62344 -575247 0 67489.5 -569207 0 72514.6 -563100 0 77416.3 -556929 0 82191.5 -550696 0 86837.4 -544407 0 91351.2 -538063 0 95730.3 -531669 0 99972 -525229 0 104074 -518745 0 108033 -512224 0 111846 -505668 0 115514 -499087 0 119044 -492493 0 122476 -485925 0 -820478 -679000 0 -812518 -682719 0 -804497 -686346 0 -796428 -689893 0 -788311 -693359 0 -780146 -696740 0 -771936 -700035 0 -763680 -703242 0 -755383 -706358 0 -747045 -709382 0 -738668 -712313 0 -730256 -715149 0 -721810 -717889 0 -713332 -720531 0 -704824 -723075 0 -696290 -725519 0 -687731 -727862 0 -679150 -730105 0 -670550 -732246 0 -661931 -734285 0 -653298 -736221 0 -644652 -738055 0 -635997 -739786 0 -627333 -741414 0 -618664 -742940 0 -609991 -744363 0 -601317 -745685 0 -592645 -746905 0 -583976 -748024 0 -575312 -749042 0 -566655 -749961 0 -558008 -750781 0 -549371 -751503 0 -540747 -752128 0 -532138 -752656 0 -523545 -753089 0 -514969 -753428 0 -506412 -753673 0 -497875 -753827 0 -489360 -753889 0 -480868 -753862 0 -472399 -753745 0 -463956 -753541 0 -455538 -753250 0 -447147 -752873 0 -438784 -752412 0 -430448 -751867 0 -422142 -751240 0 -413866 -750531 0 -405620 -749742 0 -397404 -748873 0 -389220 -747925 0 -381067 -746900 0 -372947 -745798 0 -364859 -744619 0 -356804 -743365 0 -348781 -742036 0 -340793 -740633 0 -332837 -739156 0 -324916 -737607 0 -317029 -735984 0 -309176 -734290 0 -301358 -7325