<?xml version="1.0"?> 
<VTKFile type="StructuredGrid" version="0.1"> 
<StructuredGrid WholeExtent="0 127 0 127 0 0"> 
<Piece Extent="0 127 0 127 0 0"> 
<PointData>
<DataArray type="Float32" Name="E" format="ascii" NumberOfComponents="3"> 
-10117.4 0.00308026 0 -10121.7 132.894 0 -10134.4 265.575 0 -10155.7 397.832 0 -10185.4 529.454 0 -10223.6 660.23 0 -10270.2 789.952 0 -10325.2 918.41 0 -10388.7 1045.4 0 -10460.4 1170.7 0 -10540.4 1294.12 0 -10628.7 1415.45 0 -10725.1 1534.48 0 -10829.7 1651.01 0 -10942.3 1764.84 0 -11062.9 1875.78 0 -11191.4 1983.62 0 -11327.8 2088.17 0 -11471.9 2189.23 0 -11623.6 2286.61 0 -11783 2380.13 0 -11949.8 2469.6 0 -12124 2554.82 0 -12305.4 2635.62 0 -12494 2711.82 0 -12689.7 2783.23 0 -12892.2 2849.69 0 -13101.6 2911.01 0 -13317.7 2967.04 0 -13540.4 3017.59 0 -13769.5 3062.51 0 -14004.9 3101.62 0 -14246.6 3134.78 0 -14494.2 3161.81 0 -14747.8 3182.57 0 -15007.1 3196.89 0 -15272 3204.64 0 -15542.5 3205.65 0 -15818.3 3199.79 0 -16099.3 3186.9 0 -16385.3 3166.84 0 -16676.2 3139.47 0 -16971.9 3104.65 0 -17272.2 3062.24 0 -17577 3012.11 0 -17886.1 2954.11 0 -18199.3 2888.11 0 -18516.5 2813.98 0 -18837.6 2731.58 0 -19162.4 2640.78 0 -19490.8 2541.44 0 -19822.5 2433.43 0 -20157.5 2316.62 0 -20495.7 2190.86 0 -20836.8 2056.02 0 -21180.7 1911.96 0 -21527.3 1758.54 0 -21876.4 1595.62 0 -22227.9 1423.05 0 -22581.6 1240.67 0 -22937.4 1048.34 0 -23295.2 845.896 0 -23654.9 633.175 0 -24016.2 410.01 0 -24379 176.225 0 -24743.3 -68.3607 0 -25108.8 -323.936 0 -25475.5 -590.699 0 -25843.2 -868.854 0 -26211.8 -1158.62 0 -26581.2 -1460.22 0 -26951.1 -1773.89 0 -27321.6 -2099.89 0 -27692.5 -2438.48 0 -28063.6 -2789.94 0 -28434.8 -3154.56 0 -28806 -3532.66 0 -29177.1 -3924.58 0 -29548 -4330.67 0 -29918.5 -4751.31 0 -30288.5 -5186.89 0 -30657.9 -5637.86 0 -31026.5 -6104.66 0 -31394.3 -6587.79 0 -31761.1 -7087.79 0 -32126.8 -7605.21 0 -32491.3 -8140.67 0 -32854.5 -8694.82 0 -33216.1 -9268.37 0 -33576.1 -9862.09 0 -33934.5 -10476.8 0 -34290.9 -11113.4 0 -34645.4 -11772.9 0 -34997.7 -12456.3 0 -35347.9 -13164.8 0 -35695.6 -13899.7 0 -36040.9 -14662.4 0 -36383.6 -15454.5 0 -36723.5 -16277.5 0 -37060.6 -17133.5 0 -37394.8 -18024.5 0 -37726 -18952.9 0 -38054 -19921.4 0 -38378.8 -20932.8 0 -38700.4 -21990.6 0 -39018.7 -23098.6 0 -39333.8 -24261.3 0 -39645.7 -25483.6 0 -39954.4 -26771.4 0 -40260.2 -28131.7 0 -40563.3 -29572.6 0 -40864.1 -31103.6 0 -41163.1 -32736.5 0 -41461.1 -34485.2 0 -41759 -36367.2 0 -42058.2 -38404.4 0 -42360.7 -40623.7 0 -42668.7 -43062.8 0 -42987.4 -45764.7 0 -43317.7 -48806.8 0 -43679.4 -52249.1 0 -44051.6 -56311.7 0 -44542.1 -60985.8 0 -44932.2 -67216.3 0 -45937 -74106.4 0 -45614.2 -87330 0 -47786.9 -99862.9 0 0 -182134 0 -10509.1 0.00296098 0 -10513.1 120.045 0 -10525.3 239.885 0 -10545.4 359.317 0 -10573.7 478.139 0 -10609.9 596.148 0 -10654.2 713.144 0 -10706.5 828.923 0 -10766.7 943.287 0 -10834.8 1056.04 0 -10910.8 1166.97 0 -10994.6 1275.89 0 -11086.2 1382.61 0 -11185.5 1486.92 0 -11292.4 1588.63 0 -11406.9 1687.56 0 -11529 1783.51 0 -11658.4 1876.28 0 -11795.2 1965.71 0 -11939.3 2051.59 0 -12090.6 2133.75 0 -12249 2212 0 -12414.3 2286.17 0 -12586.6 2356.08 0 -12765.6 2421.55 0 -12951.3 2482.41 0 -13143.6 2538.49 0 -13342.3 2589.62 0 -13547.4 2635.63 0 -13758.7 2676.37 0 -13976.1 2711.67 0 -14199.5 2741.36 0 -14428.7 2765.3 0 -14663.7 2783.32 0 -14904.2 2795.28 0 -15150.1 2801.02 0 -15401.4 2800.4 0 -15657.9 2793.26 0 -15919.3 2779.47 0 -16185.7 2758.87 0 -16456.8 2731.33 0 -16732.6 2696.71 0 -17012.7 2654.86 0 -17297.2 2605.66 0 -17585.9 2548.96 0 -17878.6 2484.62 0 -18175.1 2412.52 0 -18475.4 2332.52 0 -18779.2 2244.48 0 -19086.4 2148.27 0 -19397 2043.76 0 -19710.6 1930.8 0 -20027.2 1809.27 0 -20346.7 1679.03 0 -20668.8 1539.94 0 -20993.4 1391.85 0 -21320.4 1234.64 0 -21649.7 1068.14 0 -21981 892.225 0 -22314.2 706.729 0 -22649.3 511.502 0 -22985.9 306.383 0 -23324.1 91.2096 0 -23663.6 -134.189 0 -24004.2 -369.989 0 -24346 -616.372 0 -24688.6 -873.527 0 -25032 -1141.65 0 -25375.9 -1420.96 0 -25720.4 -1711.66 0 -26065.1 -2013.98 0 -26410.1 -2328.16 0 -26755 -2654.45 0 -27099.8 -2993.11 0 -27444.3 -3344.43 0 -27788.3 -3708.7 0 -28131.8 -4086.24 0 -28474.5 -4477.37 0 -28816.3 -4882.45 0 -29157 -5301.85 0 -29496.5 -5735.98 0 -29834.6 -6185.25 0 -30171 -6650.14 0 -30505.7 -7131.12 0 -30838.5 -7628.71 0 -31169.1 -8143.49 0 -31497.3 -8676.05 0 -31823 -9227.03 0 -32145.9 -9797.15 0 -32465.8 -10387.2 0 -32782.5 -10997.9 0 -33095.7 -11630.2 0 -33405.1 -12285.1 0 -33710.5 -12963.6 0 -34011.6 -13666.8 0 -34307.9 -14396.1 0 -34599.3 -15152.8 0 -34885.4 -15938.5 0 -35165.6 -16754.7 0 -35439.6 -17603.5 0 -35706.9 -18486.8 0 -35966.9 -19406.9 0 -36219.1 -20366.6 0 -36462.8 -21368.7 0 -36697.3 -22416.4 0 -36921.6 -23513.7 0 -37134.8 -24664.8 0 -37335.7 -25874.6 0 -37523 -27149 0 -37695 -28494.6 0 -37849.8 -29919.3 0 -37985 -31432.4 0 -38097.5 -33045.2 0 -38183.5 -34771.2 0 -38238 -36626.9 0 -38254.3 -38632.9 0 -38223.2 -40815.1 0 -38132.2 -43206.2 0 -37962.1 -45850.3 0 -37686.3 -48802.3 0 -37257 -52146.6 0 -36609.3 -55976.9 0 -35587 -60493.1 0 -34000 -65814.7 0 -31120.1 -72592.2 0 -26139.8 -80452 0 -14497.5 -91905.1 0 0 -93262.9 0 -10861.9 0.00284698 0 -10865.8 107.846 0 -10877.2 215.496 0 -10896.4 322.753 0 -10923.2 429.423 0 -10957.6 535.313 0 -10999.6 640.227 0 -11049.2 743.972 0 -11106.4 846.355 0 -11171 947.184 0 -11243.1 1046.27 0 -11322.6 1143.42 0 -11409.6 1238.44 0 -11503.8 1331.16 0 -11605.2 1421.37 0 -11713.9 1508.9 0 -11829.7 1593.56 0 -11952.5 1675.18 0 -12082.3 1753.56 0 -12219 1828.53 0 -12362.5 1899.92 0 -12512.8 1967.55 0 -12669.6 2031.24 0 -12833 2090.82 0 -13002.8 2146.13 0 -13178.9 2196.99 0 -13361.3 2243.24 0 -13549.8 2284.72 0 -13744.2 2321.27 0 -13944.6 2352.72 0 -14150.7 2378.92 0 -14362.4 2399.71 0 -14579.7 2414.94 0 -14802.4 2424.46 0 -15030.3 2428.12 0 -15263.3 2425.77 0 -15501.4 2417.26 0 -15744.3 2402.45 0 -15991.9 2381.2 0 -16244.2 2353.37 0 -16500.9 2318.81 0 -16761.8 2277.39 0 -17027 2228.98 0 -17296.2 2173.43 0 -17569.2 2110.61 0 -17846 2040.39 0 -18126.3 1962.62 0 -18410.1 1877.19 0 -18697.2 1783.95 0 -18987.4 1682.78 0 -19280.6 1573.53 0 -19576.7 1456.08 0 -19875.4 1330.28 0 -20176.7 1196 0 -20480.3 1053.11 0 -20786.2 901.459 0 -21094.1 740.91 0 -21404 571.317 0 -21715.7 392.532 0 -22028.9 204.405 0 -22343.7 6.7804 0 -22659.7 -200.501 0 -22976.9 -417.602 0 -23295.1 -644.693 0 -23614.1 -881.948 0 -23933.8 -1129.55 0 -24254 -1387.69 0 -24574.6 -1656.56 0 -24895.4 -1936.36 0 -25216.2 -2227.32 0 -25536.9 -2529.66 0 -25857.2 -2843.61 0 -26177.1 -3169.42 0 -26496.4 -3507.35 0 -26814.8 -3857.68 0 -27132.3 -4220.7 0 -27448.5 -4596.71 0 -27763.4 -4986.05 0 -28076.7 -5389.05 0 -28388.2 -5806.1 0 -28697.7 -6237.57 0 -29005 -6683.89 0 -29309.9 -7145.49 0 -29612.1 -7622.87 0 -29911.4 -8116.52 0 -30207.5 -8626.99 0 -30500.2 -9154.86 0 -30789.1 -9700.78 0 -31074 -10265.4 0 -31354.5 -10849.5 0 -31630.4 -11453.8 0 -31901.1 -12079.2 0 -32166.3 -12726.7 0 -32425.7 -13397.2 0 -32678.6 -14091.8 0 -32924.7 -14811.8 0 -33163.3 -15558.5 0 -33393.8 -16333.3 0 -33615.6 -17137.8 0 -33827.8 -17973.8 0 -34029.7 -18843.4 0 -34220.3 -19748.5 0 -34398.5 -20691.8 0 -34563.1 -21675.9 0 -34712.6 -22704 0 -34845.5 -23779.4 0 -34959.8 -24906.2 0 -35053.3 -26088.9 0 -35123.2 -27332.8 0 -35166.4 -28643.7 0 -35178.9 -30028.6 0 -35155.8 -31495.8 0 -35091.2 -33054.7 0 -34977.2 -34716.7 0 -34804 -36495.3 0 -34558.6 -38406.7 0 -34223.6 -40470.5 0 -33775.4 -42710.4 0 -33180.9 -45154.9 0 -32392.4 -47839.4 0 -31341.3 -50802.5 0 -29919 -54094.9 0 -27972.1 -57744.3 0 -25222.9 -61803.7 0 -21364.2 -66092.9 0 -15780.1 -70513.4 0 -9009.68 -73309.5 0 0 -75547.1 0 -11177.9 0.00273782 0 -11181.6 96.2735 0 -11192.5 192.357 0 -11210.6 288.064 0 -11236 383.207 0 -11268.7 477.599 0 -11308.5 571.052 0 -11355.6 663.381 0 -11409.7 754.4 0 -11471 843.925 0 -11539.4 931.77 0 -11614.8 1017.75 0 -11697.2 1101.7 0 -11786.6 1183.41 0 -11882.8 1262.72 0 -11985.8 1339.45 0 -12095.6 1413.42 0 -12212.1 1484.45 0 -12335.1 1552.37 0 -12464.7 1617.01 0 -12600.7 1678.19 0 -12743.1 1735.75 0 -12891.8 1789.52 0 -13046.6 1839.33 0 -13207.5 1885.02 0 -13374.5 1926.42 0 -13547.2 1963.38 0 -13725.8 1995.74 0 -13910 2023.34 0 -14099.8 2046.02 0 -14295 2063.63 0 -14495.5 2076.02 0 -14701.2 2083.04 0 -14912 2084.55 0 -15127.8 2080.39 0 -15348.4 2070.42 0 -15573.6 2054.51 0 -15803.5 2032.5 0 -16037.7 2004.26 0 -16276.3 1969.65 0 -16519 1928.54 0 -16765.7 1880.78 0 -17016.3 1826.24 0 -17270.7 1764.79 0 -17528.6 1696.3 0 -17790 1620.63 0 -18054.6 1537.65 0 -18322.5 1447.23 0 -18593.3 1349.23 0 -18867 1243.53 0 -19143.4 1129.98 0 -19422.3 1008.47 0 -19703.7 878.846 0 -19987.3 740.982 0 -20273 594.739 0 -20560.6 439.977 0 -20850 276.557 0 -21141 104.333 0 -21433.5 -76.839 0 -21727.3 -267.11 0 -22022.3 -466.634 0 -22318.2 -675.567 0 -22615 -894.072 0 -22912.4 -1122.32 0 -23210.3 -1360.47 0 -23508.5 -1608.72 0 -23806.9 -1867.24 0 -24105.2 -2136.24 0 -24403.4 -2415.91 0 -24701.1 -2706.46 0 -24998.3 -3008.12 0 -25294.7 -3321.1 0 -25590.2 -3645.67 0 -25884.5 -3982.07 0 -26177.5 -4330.56 0 -26468.9 -4691.44 0 -26758.6 -5065.01 0 -27046.3 -5451.56 0 -27331.7 -5851.46 0 -27614.7 -6265.03 0 -27894.9 -6692.68 0 -28172.2 -7134.79 0 -28446.3 -7591.79 0 -28716.8 -8064.15 0 -28983.4 -8552.34 0 -29245.9 -9056.89 0 -29503.9 -9578.35 0 -29757.1 -10117.3 0 -30004.9 -10674.5 0 -30247.1 -11250.5 0 -30483.2 -11846.1 0 -30712.7 -12462.1 0 -30935 -13099.4 0 -31149.6 -13758.9 0 -31356 -14441.7 0 -31553.2 -15148.8 0 -31740.8 -15881.6 0 -31917.7 -16641.3 0 -32083.1 -17429.5 0 -32236 -18247.7 0 -32375.1 -19097.7 0 -32499.1 -19981.5 0 -32606.6 -20901.2 0 -32695.8 -21859.4 0 -32764.9 -22858.6 0 -32811.3 -23902 0 -32832.6 -24992.9 0 -32825.6 -26135.2 0 -32786.5 -27333.1 0 -32710.8 -28591.6 0 -32593.2 -29916.2 0 -32427.2 -31313.1 0 -32204.4 -32789.6 0 -31915 -34353.7 0 -31546 -36014.6 0 -31081.3 -37782.5 0 -30499.7 -39668.8 0 -29773.7 -41685.4 0 -28867 -43844.4 0 -27731.1 -46155.8 0 -26300.7 -48625.3 0 -24491.1 -51243.4 0 -22187.1 -53983.8 0 -19266.8 -56749.9 0 -15571.7 -59417.3 0 -11100.6 -61601.8 0 -5621.07 -63242.5 0 0 -63000.2 0 -11459 0.00263312 0 -11462.5 85.3023 0 -11472.8 170.422 0 -11490 255.18 0 -11514.1 339.395 0 -11545 422.887 0 -11582.8 505.476 0 -11627.3 586.985 0 -11678.7 667.233 0 -11736.8 746.044 0 -11801.6 823.239 0 -11873 898.643 0 -11951.1 972.081 0 -12035.7 1043.38 0 -12126.9 1112.36 0 -12224.5 1178.86 0 -12328.5 1242.7 0 -12438.8 1303.71 0 -12555.4 1361.72 0 -12678.1 1416.58 0 -12806.9 1468.11 0 -12941.8 1516.15 0 -13082.5 1560.53 0 -13229.1 1601.1 0 -13381.5 1637.7 0 -13539.5 1670.17 0 -13703.1 1698.36 0 -13872.1 1722.1 0 -14046.4 1741.25 0 -14226 1755.67 0 -14410.7 1765.19 0 -14600.4 1769.67 0 -14794.9 1768.97 0 -14994.3 1762.94 0 -15198.3 1751.44 0 -15406.8 1734.33 0 -15619.8 1711.47 0 -15836.9 1682.72 0 -16058.3 1647.95 0 -16283.6 1607.01 0 -16512.8 1559.79 0 -16745.7 1506.13 0 -16982.3 1445.91 0 -17222.2 1379.01 0 -17465.5 1305.28 0 -17712 1224.59 0 -17961.4 1136.83 0 -18213.8 1041.84 0 -18468.9 939.521 0 -18726.5 829.723 0 -18986.6 712.32 0 -19249 587.181 0 -19513.5 454.174 0 -19779.9 313.164 0 -20048.2 164.017 0 -20318.1 6.59587 0 -20589.5 -159.238 0 -20862.2 -333.627 0 -21136.1 -516.715 0 -21411 -708.648 0 -21686.8 -909.578 0 -21963.2 -1119.66 0 -22240.1 -1339.05 0 -22517.3 -1567.92 0 -22794.6 -1806.42 0 -23071.9 -2054.75 0 -23349 -2313.08 0 -23625.7 -2581.59 0 -23901.8 -2860.49 0 -24177.1 -3149.98 0 -24451.4 -3450.27 0 -24724.5 -3761.59 0 -24996.2 -4084.17 0 -25266.2 -4418.25 0 -25534.4 -4764.1 0 -25800.6 -5121.98 0 -26064.3 -5492.18 0 -26325.5 -5875 0 -26583.9 -6270.77 0 -26839.1 -6679.82 0 -27091 -7102.5 0 -27339.1 -7539.21 0 -27583.2 -7990.33 0 -27822.9 -8456.31 0 -28057.9 -8937.6 0 -28287.8 -9434.68 0 -28512.3 -9948.09 0 -28730.7 -10478.4 0 -28942.8 -11026.1 0 -29148 -11592 0 -29345.7 -12176.7 0 -29535.4 -12780.9 0 -29716.5 -13405.5 0 -29888.2 -14051.3 0 -30049.7 -14719.2 0 -30200.4 -15410.3 0 -30339.2 -16125.6 0 -30465 -16866.3 0 -30576.9 -17633.8 0 -30673.5 -18429.4 0 -30753.3 -19254.7 0 -30814.8 -20111.4 0 -30856.1 -21001.3 0 -30875.2 -21926.4 0 -30869.6 -22889 0 -30836.6 -23891.5 0 -30773 -24936.6 0 -30674.9 -26027.3 0 -30538.1 -27166.8 0 -30357.3 -28358.6 0 -30126.2 -29606.7 0 -29837.4 -30915.1 0 -29481.8 -32288.4 0 -29048.4 -33731.1 0 -28523.7 -35247.9 0 -27891 -36843.2 0 -27129.8 -38520.5 0 -26214.2 -40281.9 0 -25112.6 -42126 0 -23785.7 -44046.4 0 -22186.8 -46026.7 0 -20260.3 -48037.4 0 -17949.2 -50022.8 0 -15194.6 -51904.4 0 -11974.5 -53541.1 0 -8269.78 -54811.9 0 -4286.91 -55400.3 0 0 -55512.5 0 -11707 0.00253253 0 -11710.3 74.9098 0 -11720.1 149.644 0 -11736.4 224.03 0 -11759.2 297.894 0 -11788.4 371.062 0 -11824.2 443.363 0 -11866.4 514.624 0 -11915 584.672 0 -11970 653.337 0 -12031.3 720.448 0 -12099 785.836 0 -12172.9 849.332 0 -12253 910.767 0 -12339.3 969.975 0 -12431.7 1026.79 0 -12530.1 1081.05 0 -12634.5 1132.58 0 -12744.8 1181.24 0 -12860.9 1226.84 0 -12982.8 1269.25 0 -13110.4 1308.29 0 -13243.6 1343.81 0 -13382.3 1375.66 0 -13526.4 1403.68 0 -13675.8 1427.72 0 -13830.4 1447.63 0 -13990.2 1463.26 0 -14155 1474.46 0 -14324.8 1481.09 0 -14499.3 1483 0 -14678.6 1480.04 0 -14862.4 1472.09 0 -15050.7 1458.99 0 -15243.4 1440.61 0 -15440.3 1416.82 0 -15641.3 1387.47 0 -15846.2 1352.43 0 -16055.1 1311.57 0 -16267.6 1264.75 0 -16483.8 1211.85 0 -16703.4 1152.73 0 -16926.3 1087.27 0 -17152.3 1015.33 0 -17381.5 936.792 0 -17613.5 851.523 0 -17848.3 759.395 0 -18085.6 660.282 0 -18325.5 554.056 0 -18567.6 440.59 0 -18811.9 319.754 0 -19058.2 191.421 0 -19306.3 55.4591 0 -19556.1 -88.2612 0 -19807.5 -239.873 0 -20060.2 -399.509 0 -20314.1 -567.307 0 -20569.1 -743.405 0 -20825 -927.943 0 -21081.5 -1121.06 0 -21338.6 -1322.92 0 -21596 -1533.65 0 -21853.6 -1753.42 0 -22111.2 -1982.39 0 -22368.6 -2220.71 0 -22625.6 -2468.57 0 -22882.1 -2726.13 0 -23137.7 -2993.57 0 -23392.4 -3271.09 0 -23645.9 -3558.88 0 -23898 -3857.15 0 -24148.4 -4166.1 0 -24397 -4485.97 0 -24643.6 -4816.99 0 -24887.7 -5159.39 0 -25129.3 -5513.45 0 -25368 -5879.42 0 -25603.6 -6257.59 0 -25835.7 -6648.27 0 -26064.1 -7051.77 0 -26288.4 -7468.42 0 -26508.3 -7898.58 0 -26723.5 -8342.63 0 -26933.5 -8800.95 0 -27138 -9273.98 0 -27336.6 -9762.15 0 -27528.6 -10266 0 -27713.8 -10785.9 0 -27891.5 -11322.5 0 -28061.2 -11876.4 0 -28222.3 -12448.1 0 -28374 -13038.4 0 -28515.7 -13647.9 0 -28646.6 -14277.4 0 -28765.8 -14927.8 0 -28872.3 -15599.8 0 -28965.1 -16294.5 0 -29043.1 -17012.8 0 -29104.8 -17755.8 0 -29148.9 -18524.8 0 -29173.8 -19320.9 0 -29177.6 -20145.6 0 -29158.3 -21000.3 0 -29113.4 -21886.5 0 -29040.4 -22806 0 -28936.3 -23760.6 0 -28797.3 -24752.2 0 -28619.7 -25782.8 0 -28398.4 -26854.6 0 -28128.2 -27969.6 0 -27802.5 -29130.2 0 -27413.7 -30338.5 0 -26952.8 -31596.2 0 -26409.2 -32905.1 0 -25770.2 -34265.8 0 -25020.9 -35678 0 -24143.4 -37139.7 0 -23117 -38646 0 -21917.5 -40187.8 0 -20517.8 -41750.4 0 -18888.4 -43310.4 0 -16999.9 -44832.9 0 -14826 -46270 0 -12353.4 -47553.4 0 -9581.72 -48608.8 0 -6558.49 -49328.8 0 -3307.34 -49682.8 0 0 -49480.9 0 -11923.7 0.00243574 0 -11926.8 65.0739 0 -11936 129.979 0 -11951.4 194.549 0 -11973 258.617 0 -12000.7 322.016 0 -12034.5 384.58 0 -12074.5 446.144 0 -12120.4 506.542 0 -12172.5 565.609 0 -12230.5 623.181 0 -12294.5 679.095 0 -12364.4 733.188 0 -12440.1 785.299 0 -12521.7 835.267 0 -12609.1 882.931 0 -12702.1 928.134 0 -12800.8 970.717 0 -12905.1 1010.52 0 -13014.9 1047.4 0 -13130.1 1081.19 0 -13250.7 1111.74 0 -13376.5 1138.91 0 -13507.6 1162.53 0 -13643.7 1182.47 0 -13784.9 1198.57 0 -13931 1210.69 0 -14081.9 1218.68 0 -14237.5 1222.4 0 -14397.8 1221.72 0 -14562.5 1216.48 0 -14731.7 1206.56 0 -14905.2 1191.81 0 -15082.8 1172.1 0 -15264.5 1147.29 0 -15450.2 1117.25 0 -15639.7 1081.85 0 -15832.9 1040.96 0 -16029.6 994.444 0 -16229.8 942.176 0 -16433.3 884.028 0 -16640.1 819.874 0 -16849.8 749.587 0 -17062.5 673.042 0 -17277.9 590.112 0 -17495.9 500.674 0 -17716.5 404.603 0 -17939.4 301.774 0 -18164.4 192.063 0 -18391.5 75.3448 0 -18620.5 -48.5053 0 -18851.3 -179.613 0 -19083.6 -318.106 0 -19317.3 -464.111 0 -19552.3 -617.757 0 -19788.4 -779.175 0 -20025.4 -948.496 0 -20263.1 -1125.86 0 -20501.5 -1311.39 0 -20740.3 -1505.24 0 -20979.3 -1707.54 0 -21218.3 -1918.45 0 -21457.2 -2138.11 0 -21695.8 -2366.67 0 -21933.9 -2604.29 0 -22171.2 -2851.14 0 -22407.6 -3107.38 0 -22642.9 -3373.18 0 -22876.9 -3648.73 0 -23109.3 -3934.21 0 -23339.9 -4229.82 0 -23568.4 -4535.75 0 -23794.7 -4852.22 0 -24018.4 -5179.45 0 -24239.3 -5517.67 0 -24457.2 -5867.11 0 -24671.7 -6228.03 0 -24882.5 -6600.7 0 -25089.4 -6985.38 0 -25291.9 -7382.38 0 -25489.7 -7791.99 0 -25682.5 -8214.55 0 -25869.9 -8650.39 0 -26051.5 -9099.88 0 -26226.7 -9563.39 0 -26395.2 -10041.3 0 -26556.4 -10534.1 0 -26709.8 -11042.2 0 -26854.8 -11566.1 0 -26990.8 -12106.3 0 -27117 -12663.3 0 -27232.9 -13237.6 0 -27337.5 -13830 0 -27429.9 -14441.1 0 -27509.4 -15071.5 0 -27574.6 -15721.9 0 -27624.7 -16393.2 0 -27658.2 -17086.1 0 -27673.7 -17801.6 0 -27669.7 -18540.5 0 -27644.5 -19303.8 0 -27596 -20092.5 0 -27522.1 -20907.8 0 -27420.4 -21750.6 0 -27288 -22622.3 0 -27121.7 -23523.8 0 -26918.1 -24456.4 0 -26672.8 -25421.3 0 -26381.4 -26419.4 0 -26038.2 -27451.8 0 -25637.2 -28519.1 0 -25171.2 -29621.7 0 -24631.9 -30759.5 0 -24010 -31931.5 0 -23294.4 -33135.7 0 -22473 -34368.8 0 -21531.8 -35625 0 -20455.5 -36896.1 0 -19227.5 -38169.7 0 -17830.7 -39428.7 0 -16249 -40650 0 -14468.6 -41803.2 0 -12481.8 -42849.4 0 -10288.9 -43744.4 0 -7906.33 -44434.6 0 -5358.66 -44876.8 0 -2710.77 -45006 0 0 -44842.1 0 -12110.7 0.00234245 0 -12113.6 55.7732 0 -12122.4 111.384 0 -12137 166.673 0 -12157.3 221.478 0 -12183.5 275.641 0 -12215.5 329.001 0 -12253.2 381.398 0 -12296.7 432.674 0 -12345.8 482.67 0 -12400.6 531.227 0 -12461.1 578.19 0 -12527.1 623.401 0 -12598.7 666.705 0 -12675.8 707.946 0 -12758.3 746.971 0 -12846.2 783.627 0 -12939.4 817.762 0 -13037.9 849.226 0 -13141.6 877.867 0 -13250.4 903.538 0 -13364.2 926.091 0 -13483 945.381 0 -13606.7 961.262 0 -13735.2 973.591 0 -13868.4 982.225 0 -14006.2 987.023 0 -14148.6 987.847 0 -14295.3 984.557 0 -14446.5 977.016 0 -14601.8 965.09 0 -14761.2 948.642 0 -14924.7 927.542 0 -15092.1 901.656 0 -15263.2 870.854 0 -15438.1 835.007 0 -15616.4 793.986 0 -15798.2 747.665 0 -15983.4 695.916 0 -16171.6 638.616 0 -16363 575.639 0 -16557.2 506.862 0 -16754.3 432.162 0 -16954 351.418 0 -17156.2 264.506 0 -17360.7 171.307 0 -17567.5 71.6984 0 -17776.4 -34.4404 0 -17987.2 -147.231 0 -18199.8 -266.793 0 -18414 -393.25 0 -18629.7 -526.723 0 -18846.7 -667.335 0 -19064.8 -815.209 0 -19284 -970.472 0 -19504 -1133.25 0 -19724.6 -1303.67 0 -19945.7 -1481.85 0 -20167.2 -1667.95 0 -20388.7 -1862.07 0 -20610.2 -2064.37 0 -20831.5 -2274.99 0 -21052.3 -2494.06 0 -21272.6 -2721.73 0 -21491.9 -2958.15 0 -21710.3 -3203.47 0 -21927.4 -3457.86 0 -22143 -3721.48 0 -22356.9 -3994.5 0 -22568.9 -4277.09 0 -22778.8 -4569.43 0 -22986.2 -4871.72 0 -23190.9 -5184.15 0 -23392.7 -5506.92 0 -23591.3 -5840.24 0 -23786.3 -6184.34 0 -23977.5 -6539.44 0 -24164.5 -6905.79 0 -24347.1 -7283.64 0 -24524.8 -7673.26 0 -24697.3 -8074.91 0 -24864.2 -8488.9 0 -25025 -8915.52 0 -25179.3 -9355.09 0 -25326.7 -9807.95 0 -25466.6 -10274.5 0 -25598.5 -10755 0 -25721.8 -11249.9 0 -25835.9 -11759.6 0 -25940 -12284.6 0 -26033.6 -12825.3 0 -26115.8 -13382.1 0 -26185.7 -13955.6 0 -26242.4 -14546.3 0 -26284.9 -15154.7 0 -26312.1 -15781.5 0 -26322.8 -16427.1 0 -26315.7 -17092.3 0 -26289.2 -17777.7 0 -26241.8 -18483.9 0 -26171.6 -19211.6 0 -26076.7 -19961.5 0 -25954.9 -20734.3 0 -25803.5 -21530.6 0 -25620 -22351.1 0 -25401 -23196.4 0 -25143.3 -24066.9 0 -24842.7 -24962.9 0 -24494.8 -25884.7 0 -24094.7 -26832.2 0 -23636.8 -27804.8 0 -23114.6 -28801.5 0 -22521.1 -29820.8 0 -21848.4 -30860.1 0 -21087.9 -31915.6 0 -20229.9 -32982.2 0 -19264.5 -34052.5 0 -18181.1 -35117 0 -16969.1 -36163.1 0 -15619.1 -37174.6 0 -14123 -38131.4 0 -12476.5 -39009.1 0 -10679.6 -39779.8 0 -8739.96 -40411.9 0 -6672.31 -40874.7 0 -4504.17 -41135.4 0 -2263.3 -41178.1 0 0 -40970.3 0 -12269.7 0.00225242 0 -12272.5 46.9874 0 -12280.7 93.8188 0 -12294.5 140.34 0 -12313.7 186.397 0 -12338.5 231.836 0 -12368.6 276.502 0 -12404.2 320.243 0 -12445.3 362.906 0 -12491.7 404.337 0 -12543.4 444.385 0 -12600.5 482.9 0 -12662.8 519.729 0 -12730.4 554.724 0 -12803.1 587.734 0 -12881 618.613 0 -12963.9 647.212 0 -13051.9 673.385 0 -13144.8 696.987 0 -13242.6 717.874 0 -13345.2 735.902 0 -13452.5 750.929 0 -13564.5 762.814 0 -13681.1 771.417 0 -13802.2 776.6 0 -13927.8 778.226 0 -14057.6 776.157 0 -14191.7 770.26 0 -14330 760.401 0 -14472.3 746.446 0 -14618.5 728.266 0 -14768.6 705.729 0 -14922.5 678.708 0 -15079.9 647.074 0 -15240.9 610.702 0 -15405.3 569.465 0 -15572.9 523.24 0 -15743.8 471.903 0 -15917.6 415.332 0 -16094.4 353.406 0 -16274 286.004 0 -16456.3 213.006 0 -16641 134.294 0 -16828.2 49.7489 0 -17017.6 -40.7474 0 -17209.2 -137.312 0 -17402.7 -240.063 0 -17598 -349.118 0 -17795.1 -464.592 0 -17993.6 -586.605 0 -18193.6 -715.272 0 -18394.7 -850.712 0 -18597 -993.044 0 -18800.1 -1142.39 0 -19003.9 -1298.86 0 -19208.4 -1462.59 0 -19413.2 -1633.69 0 -19618.3 -1812.29 0 -19823.4 -1998.51 0 -20028.3 -2192.49 0 -20232.9 -2394.35 0 -20437 -2604.22 0 -20640.4 -2822.25 0 -20842.9 -3048.56 0 -21044.3 -3283.3 0 -21244.3 -3526.62 0 -21442.7 -3778.66 0 -21639.4 -4039.58 0 -21834 -4309.53 0 -22026.4 -4588.69 0 -22216.3 -4877.2 0 -22403.4 -5175.26 0 -22587.4 -5483.03 0 -22768.1 -5800.71 0 -22945.2 -6128.49 0 -23118.4 -6466.57 0 -23287.3 -6815.15 0 -23451.6 -7174.45 0 -23610.9 -7544.71 0 -23765 -7926.14 0 -23913.3 -8319 0 -24055.4 -8723.54 0 -24191 -9140.02 0 -24319.5 -9568.73 0 -24440.5 -10009.9 0 -24553.4 -10464 0 -24657.6 -10931.1 0 -24752.6 -11411.7 0 -24837.7 -11906.1 0 -24912.1 -12414.6 0 -24975.2 -12937.6 0 -25026 -13475.5 0 -25063.8 -14028.6 0 -25087.6 -14597.4 0 -25096.3 -15182.3 0 -25088.7 -15783.7 0 -25063.7 -16402 0 -25019.9 -17037.7 0 -24955.8 -17691.1 0 -24869.8 -18362.7 0 -24760.1 -19053 0 -24624.6 -19762.1 0 -24461.3 -20490.6 0 -24267.8 -21238.5 0 -24041.3 -22006.2 0 -23778.8 -22793.7 0 -23477.2 -23600.9 0 -23132.9 -24427.4 0 -22741.6 -25272.8 0 -22299.2 -26136.1 0 -21800.6 -27015.9 0 -21240.6 -27910.5 0 -20613.3 -28817.1 0 -19912.5 -29732.2 0 -19131.6 -30651.3 0 -18263.6 -31568.4 0 -17301.6 -32475.9 0 -16238.9 -33364.4 0 -15069.4 -34222.3 0 -13788.3 -35035.6 0 -12392.9 -35788 0 -10883.2 -36460.9 0 -9263.26 -37034 0 -7541.64 -37486.3 0 -5732.75 -37796.8 0 -3855.18 -37948.6 0 -1935.9 -37924.3 0 0 -37722.5 0 -12402.3 0.0021654 0 -12404.9 38.6965 0 -12412.7 77.2431 0 -12425.7 115.492 0 -12443.8 153.294 0 -12467.1 190.501 0 -12495.6 226.966 0 -12529.2 262.542 0 -12567.8 297.08 0 -12611.6 330.435 0 -12660.4 362.46 0 -12714.2 393.009 0 -12772.9 421.939 0 -12836.6 449.104 0 -12905.2 474.361 0 -12978.6 497.567 0 -13056.7 518.581 0 -13139.6 537.261 0 -13227.2 553.468 0 -13319.3 567.062 0 -13415.9 577.906 0 -13517 585.862 0 -13622.5 590.795 0 -13732.3 592.57 0 -13846.3 591.053 0 -13964.5 586.111 0 -14086.7 577.614 0 -14212.9 565.431 0 -14342.9 549.432 0 -14476.7 529.491 0 -14614.2 505.48 0 -14755.3 477.274 0 -14899.8 444.748 0 -15047.7 407.779 0 -15198.9 366.245 0 -15353.2 320.025 0 -15510.6 268.998 0 -15670.8 213.046 0 -15833.8 152.05 0 -15999.6 85.8922 0 -16167.8 14.4571 0 -16338.5 -62.3714 0 -16511.4 -144.708 0 -16686.5 -232.668 0 -16863.6 -326.365 0 -17042.6 -425.913 0 -17223.3 -531.424 0 -17405.6 -643.012 0 -17589.4 -760.789 0 -17774.4 -884.869 0 -17960.6 -1015.36 0 -18147.7 -1152.39 0 -18335.7 -1296.06 0 -18524.3 -1446.48 0 -18713.4 -1603.77 0 -18902.9 -1768.06 0 -19092.5 -1939.44 0 -19282 -2118.05 0 -19471.4 -2304 0 -19660.3 -2497.42 0 -19848.7 -2698.42 0 -20036.3 -2907.13 0 -20222.9 -3123.68 0 -20408.3 -3348.19 0 -20592.3 -3580.81 0 -20774.7 -3821.66 0 -20955.2 -4070.88 0 -21133.7 -4328.62 0 -21309.8 -4595.01 0 -21483.3 -4870.22 0 -21654 -5154.38 0 -21821.6 -5447.67 0 -21985.9 -5750.24 0 -22146.4 -6062.25 0 -22303 -6383.89 0 -22455.2 -6715.33 0 -22602.8 -7056.75 0 -22745.5 -7408.35 0 -22882.7 -7770.31 0 -23014.2 -8142.85 0 -23139.6 -8526.18 0 -23258.4 -8920.51 0 -23370.1 -9326.06 0 -23474.3 -9743.07 0 -23570.4 -10171.8 0 -23657.9 -10612.4 0 -23736.3 -11065.3 0 -23804.8 -11530.6 0 -23862.8 -12008.6 0 -23909.6 -12499.6 0 -23944.5 -13003.8 0 -23966.5 -13521.7 0 -23974.9 -14053.3 0 -23968.5 -14599.1 0 -23946.5 -15159.2 0 -23907.6 -15734.1 0 -23850.5 -16323.8 0 -23774.1 -16928.7 0 -23676.8 -17549 0 -23557 -18184.9 0 -23413 -18836.5 0 -23242.9 -19503.9 0 -23044.6 -20187.1 0 -22815.9 -20886.1 0 -22554.2 -21600.6 0 -22256.9 -22330.3 0 -21921.1 -23074.6 0 -21543.4 -23832.7 0 -21120.4 -24603.6 0 -20648.4 -25385.8 0 -20123.3 -26177.4 0 -19540.6 -26975.8 0 -18896 -27778 0 -18184.5 -28580 0 -17401.4 -29377.1 0 -16542 -30163 0 -15601.7 -30930.8 0 -14576.6 -31671.8 0 -13463.5 -32375.9 0 -12260.8 -33031.7 0 -10968.4 -33626.2 0 -9588.77 -34145.6 0 -8127.06 -34575.2 0 -6591.8 -34900.4 0 -4994.74 -35107.9 0 -3351.55 -35185.6 0 -1679.49 -35126.1 0 0 -34922.5 0 -12509.9 0.00208121 0 -12512.4 30.8816 0 -12519.7 61.619 0 -12531.9 92.07 0 -12549 122.092 0 -12571 151.542 0 -12597.8 180.279 0 -12629.4 208.161 0 -12665.8 235.046 0 -12707 260.793 0 -12753 285.262 0 -12803.7 308.312 0 -12859 329.805 0 -12919 349.602 0 -12983.5 367.564 0 -13052.6 383.554 0 -13126.2 397.437 0 -13204.2 409.075 0 -13286.5 418.335 0 -13373.2 425.083 0 -13464.1 429.185 0 -13559.2 430.51 0 -13658.4 428.927 0 -13761.7 424.306 0 -13868.8 416.518 0 -13979.9 405.436 0 -14094.7 390.932 0 -14213.3 372.882 0 -14335.4 351.161 0 -14461.1 325.645 0 -14590.1 296.212 0 -14722.5 262.742 0 -14858.1 225.113 0 -14996.8 183.208 0 -15138.6 136.908 0 -15283.2 86.0969 0 -15430.6 30.6579 0 -15580.6 -29.5235 0 -15733.3 -94.5613 0 -15888.3 -164.569 0 -16045.6 -239.658 0 -16205.1 -319.941 0 -16366.7 -405.529 0 -16530.2 -496.531 0 -16695.4 -593.057 0 -16862.3 -695.218 0 -17030.7 -803.12 0 -17200.4 -916.873 0 -17371.4 -1036.59 0 -17543.4 -1162.37 0 -17716.3 -1294.32 0 -17889.9 -1432.56 0 -18064.2 -1577.19 0 -18238.8 -1728.33 0 -18413.8 -1886.07 0 -18588.8 -2050.53 0 -18763.7 -2221.83 0 -18938.3 -2400.07 0 -19112.5 -2585.36 0 -19286.1 -2777.82 0 -19458.8 -2977.57 0 -19630.5 -3184.71 0 -19801 -3399.38 0 -19970 -3621.68 0 -20137.3 -3851.75 0 -20302.8 -4089.7 0 -20466.1 -4335.67 0 -20627.1 -4589.77 0 -20785.5 -4852.15 0 -20941 -5122.94 0 -21093.4 -5402.28 0 -21242.4 -5690.3 0 -21387.7 -5987.15 0 -21529 -6292.98 0 -21666 -6607.94 0 -21798.4 -6932.19 0 -21925.8 -7265.89 0 -22047.8 -7609.2 0 -22164.2 -7962.28 0 -22274.4 -8325.31 0 -22378.1 -8698.46 0 -22474.8 -9081.92 0 -22564.1 -9475.86 0 -22645.4 -9880.47 0 -22718.3 -10295.9 0 -22782.1 -10722.5 0 -22836.4 -11160.3 0 -22880.4 -11609.5 0 -22913.4 -12070.4 0 -22934.8 -12543 0 -22943.8 -13027.8 0 -22939.5 -13524.7 0 -22921.1 -14034 0 -22887.6 -14555.9 0 -22837.9 -15090.5 0 -22771 -15638 0 -22685.6 -16198.4 0 -22580.6 -16771.9 0 -22454.3 -17358.4 0 -22305.4 -17958.1 0 -22132.3 -18570.7 0 -21933 -19196.1 0 -21705.8 -19834.2 0 -21448.5 -20484.5 0 -21159 -21146.5 0 -20834.7 -21819.6 0 -20473.1 -22502.8 0 -20071.5 -23195.1 0 -19626.8 -23894.9 0 -19136 -24600.5 0 -18595.8 -25309.6 0 -18002.7 -26019.5 0 -17353.3 -26726.8 0 -16644.2 -27427.6 0 -15872 -28117.2 0 -15033.6 -28789.8 0 -14126.3 -29439 0 -13148 -30057.4 0 -12097.6 -30636.6 0 -10975 -31167.1 0 -9781.95 -31639.2 0 -8521.59 -32042.3 0 -7199.35 -32365.8 0 -5822.81 -32599.6 0 -4401.86 -32734.6 0 -2948.31 -32763.2 0 -1476.19 -32679.6 0 0 -32482.1 0 -12594 0.00199966 0 -12596.3 23.524 0 -12603.2 46.9096 0 -12614.7 70.0198 0 -12630.8 92.7178 0 -12651.5 114.867 0 -12676.7 136.33 0 -12706.4 156.972 0 -12740.7 176.655 0 -12779.5 195.246 0 -12822.7 212.608 0 -12870.3 228.607 0 -12922.4 243.109 0 -12978.8 255.981 0 -13039.5 267.091 0 -13104.4 276.305 0 -13173.6 283.493 0 -13246.9 288.524 0 -13324.3 291.269 0 -13405.7 291.598 0 -13491.1 289.385 0 -13580.5 284.502 0 -13673.6 276.823 0 -13770.5 266.223 0 -13871.1 252.578 0 -13975.4 235.765 0 -14083.1 215.663 0 -14194.3 192.149 0 -14308.8 165.106 0 -14426.6 134.412 0 -14547.6 99.9524 0 -14671.6 61.6087 0 -14798.6 19.2657 0 -14928.5 -27.191 0 -15061.1 -77.8752 0 -15196.4 -132.899 0 -15334.3 -192.375 0 -15474.5 -256.412 0 -15617.1 -325.122 0 -15761.9 -398.612 0 -15908.7 -476.991 0 -16057.5 -560.366 0 -16208.1 -648.843 0 -16360.4 -742.528 0 -16514.2 -841.527 0 -16669.4 -945.944 0 -16825.9 -1055.88 0 -16983.6 -1171.45 0 -17142.2 -1292.74 0 -17301.7 -1419.87 0 -17461.8 -1552.93 0 -17622.5 -1692.04 0 -17783.6 -1837.28 0 -17944.8 -1988.77 0 -18106.1 -2146.6 0 -18267.2 -2310.89 0 -18428 -2481.74 0 -18588.4 -2659.24 0 -18748 -2843.51 0 -18906.8 -3034.65 0 -19064.5 -3232.78 0 -19221 -3437.98 0 -19376 -3650.39 0 -19529.3 -3870.1 0 -19680.7 -4097.22 0 -19829.9 -4331.88 0 -19976.8 -4574.19 0 -20121.1 -4824.25 0 -20262.6 -5082.2 0 -20400.9 -5348.14 0 -20535.8 -5622.21 0 -20667.1 -5904.52 0 -20794.4 -6195.21 0 -20917.4 -6494.4 0 -21035.8 -6802.21 0 -21149.3 -7118.79 0 -21257.6 -7444.27 0 -21360.2 -7778.78 0 -21456.8 -8122.46 0 -21547 -8475.45 0 -21630.3 -8837.89 0 -21706.4 -9209.93 0 -21774.6 -9591.71 0 -21834.7 -9983.36 0 -21885.9 -10385 0 -21927.8 -10796.9 0 -21959.7 -11219 0 -21981.1 -11651.6 0 -21991.2 -12094.7 0 -21989.4 -12548.5 0 -21974.8 -13013.1 0 -21946.7 -13488.6 0 -21904.2 -13975.1 0 -21846.4 -14472.6 0 -21772.2 -14981.2 0 -21680.6 -15500.9 0 -21570.5 -16031.7 0 -21440.6 -16573.5 0 -21289.6 -17126.2 0 -21116.1 -17689.7 0 -20918.5 -18263.5 0 -20695.4 -18847.5 0 -20444.8 -19441.2 0 -20165 -20043.9 0 -19854 -20655 0 -19509.7 -21273.5 0 -19129.9 -21898.4 0 -18712.2 -22528.2 0 -18254.3 -23161.3 0 -17753.5 -23795.7 0 -17207.4 -24429 0 -16613.3 -25058.5 0 -15968.8 -25680.9 0 -15271.3 -26292.2 0 -14518.7 -26888.1 0 -13709.2 -27463.6 0 -12841.2 -28012.9 0 -11914 -28529.8 0 -10927.7 -29007.3 0 -9883.23 -29438.1 0 -8782.83 -29814.4 0 -7630.07 -30128.4 0 -6430.02 -30372.4 0 -5189.29 -30539 0 -3915.93 -30622.2 0 -2619.48 -30616.6 0 -1310.36 -30519 0 0 -30327.3 0 -12656 0.0019206 0 -12658.2 16.6059 0 -12664.7 33.0789 0 -12675.5 49.2874 0 -12690.6 65.1 0 -12710 80.3852 0 -12733.7 95.012 0 -12761.7 108.849 0 -12793.9 121.767 0 -12830.3 133.634 0 