<?xml version="1.0"?> 
<VTKFile type="StructuredGrid" version="0.1"> 
<StructuredGrid WholeExtent="0 127 0 127 0 0"> 
<Piece Extent="0 127 0 127 0 0"> 
<PointData>
<DataArray type="Float32" Name="E" format="ascii" NumberOfComponents="3"> 
-932224 -0.011086 0 -932209 630.602 0 -932166 1261.97 0 -932094 1894.88 0 -931993 2530.07 0 -931863 3168.33 0 -931704 3810.39 0 -931515 4457.03 0 -931296 5109 0 -931047 5767.06 0 -930768 6431.96 0 -930458 7104.44 0 -930117 7785.26 0 -929743 8475.16 0 -929338 9174.87 0 -928899 9885.12 0 -928427 10606.7 0 -927921 11340.2 0 -927380 12086.4 0 -926802 12846 0 -926189 13619.7 0 -925537 14408.2 0 -924847 15212.1 0 -924118 16032 0 -923348 16868.7 0 -922536 17722.7 0 -921681 18594.6 0 -920782 19485 0 -919838 20394.4 0 -918846 21323.3 0 -917806 22272.2 0 -916716 23241.5 0 -915575 24231.7 0 -914380 25243 0 -913130 26275.8 0 -911824 27330.4 0 -910458 28406.9 0 -909032 29505.6 0 -907543 30626.3 0 -905989 31769.2 0 -904368 32934.2 0 -902677 34121 0 -900915 35329.5 0 -899078 36559.3 0 -897164 37809.9 0 -895172 39080.7 0 -893097 40371.1 0 -890938 41680.2 0 -888692 43007.2 0 -886355 44350.8 0 -883926 45709.9 0 -881400 47083.1 0 -878776 48468.8 0 -876051 49865.3 0 -873221 51270.8 0 -870284 52683.2 0 -867237 54100.1 0 -864076 55519.3 0 -860800 56938 0 -857405 58353.5 0 -853889 59762.6 0 -850249 61162.4 0 -846483 62549.3 0 -842587 63919.7 0 -838561 65269.9 0 -834402 66596 0 -830107 67893.8 0 -825676 69159 0 -821106 70387.3 0 -816397 71574.1 0 -811547 72714.6 0 -806554 73804.1 0 -801420 74837.7 0 -796142 75810.5 0 -790722 76717.4 0 -785158 77553.3 0 -779451 78313.3 0 -773603 78992.3 0 -767613 79585.1 0 -761483 80086.9 0 -755214 80492.8 0 -748807 80797.8 0 -742264 80997.3 0 -735587 81086.6 0 -728779 81061.3 0 -721840 80916.8 0 -714773 80649.1 0 -707581 80254 0 -700266 79727.6 0 -692829 79066 0 -685274 78265.5 0 -677601 77322.4 0 -669814 76233.4 0 -661913 74994.8 0 -653901 73603.4 0 -645779 72055.5 0 -637547 70347.8 0 -629206 68476.6 0 -620757 66438.1 0 -612198 64228.4 0 -603529 61843 0 -594748 59277.3 0 -585853 56526 0 -576841 53583.1 0 -567707 50441.9 0 -558446 47094.7 0 -549052 43532.6 0 -539517 39745 0 -529831 35719.8 0 -519984 31442.4 0 -509961 26895.5 0 -499745 22058.5 0 -489318 16906.1 0 -478655 11407.9 0 -467728 5525.76 0 -456500 -787.581 0 -444927 -7592.04 0 -432956 -14965.8 0 -420511 -23009.6 0 -407507 -31867.4 0 -393797 -41714.6 0 -379267 -52902.4 0 -363463 -65621 0 -346493 -81445.8 0 -326305 -98872.7 0 -303945 -129752 0 -271221 -155035 0 -127201 -329887 0 -932742 -0.0112632 0 -932728 640.459 0 -932686 1281.7 0 -932615 1924.49 0 -932516 2569.6 0 -932389 3217.82 0 -932233 3869.9 0 -932048 4526.61 0 -931833 5188.74 0 -931589 5857.03 0 -931316 6532.26 0 -931012 7215.19 0 -930677 7906.58 0 -930311 8607.18 0 -929913 9317.74 0 -929483 10039 0 -929020 10771.7 0 -928524 11516.6 0 -927993 12274.4 0 -927427 13045.8 0 -926825 13831.6 0 -926185 14632.4 0 -925508 15448.9 0 -924793 16281.7 0 -924037 17131.6 0 -923240 17999.2 0 -922400 18885 0 -921518 19789.7 0 -920590 20713.7 0 -919616 21657.8 0 -918594 22622.3 0 -917523 23607.7 0 -916401 24614.5 0 -915226 25643 0 -913997 26693.6 0 -912712 27766.6 0 -911369 28862.1 0 -909965 29980.5 0 -908499 31121.7 0 -906970 32285.8 0 -905373 33472.8 0 -903708 34682.5 0 -901971 35914.7 0 -900161 37169.2 0 -898274 38445.5 0 -896309 39743 0 -894263 41061.1 0 -892132 42399.1 0 -889915 43756.1 0 -887607 45130.9 0 -885208 46522.5 0 -882712 47929.5 0 -880119 49350.3 0 -877424 50783.4 0 -874625 52226.8 0 -871718 53678.5 0 -868702 55136.4 0 -865572 56598 0 -862326 58060.8 0 -858962 59521.9 0 -855476 60978.3 0 -851865 62427 0 -848128 63864.5 0 -844262 65287.2 0 -840264 66691.4 0 -836131 68073.1 0 -831863 69428.2 0 -827458 70752.5 0 -822912 72041.5 0 -818226 73290.6 0 -813398 74495 0 -808426 75650 0 -803311 76750.6 0 -798051 77791.9 0 -792647 78768.7 0 -787097 79675.9 0 -781404 80508.5 0 -775566 81261.2 0 -769585 81929.1 0 -763462 82507.1 0 -757198 82990.1 0 -750794 83373.3 0 -744253 83651.9 0 -737576 83821.2 0 -730764 83876.7 0 -723820 83813.9 0 -716747 83628.5 0 -709546 83316.5 0 -702220 82874 0 -694771 82296.9 0 -687201 81581.8 0 -679513 80725 0 -671708 79723.1 0 -663788 78572.7 0 -655755 77270.5 0 -647610 75813.2 0 -639354 74197.5 0 -630988 72420.1 0 -622511 70477.3 0 -613924 68365.6 0 -605226 66080.9 0 -596415 63619 0 -587488 60975.1 0 -578442 58143.9 0 -569274 55119.3 0 -559977 51894.5 0 -550546 48461.4 0 -540972 44810.9 0 -531247 40931.9 0 -521357 36811.8 0 -511289 32435.2 0 -501026 27783.9 0 -490548 22836 0 -479830 17564.6 0 -468842 11937 0 -457547 5912.42 0 -445899 -560.338 0 -433839 -7547.29 0 -421291 -15131.9 0 -408160 -23434.4 0 -394296 -32589.6 0 -379541 -42886.6 0 -363511 -54451.9 0 -345955 -68386 0 -325556 -84042.6 0 -301331 -106877 0 -266687 -132730 0 -199819 -185695 0 -933270 -0.0114141 0 -933256 650.079 0 -933215 1300.95 0 -933146 1953.39 0 -933049 2608.19 0 -932924 3266.12 0 -932771 3927.98 0 -932590 4594.53 0 -932380 5266.56 0 -932141 5944.85 0 -931873 6630.17 0 -931575 7323.3 0 -931247 8025 0 -930888 8736.05 0 -930499 9457.21 0 -930077 10189.2 0 -929624 10932.9 0 -929137 11688.9 0 -928616 12458 0 -928061 13241 0 -927471 14038.5 0 -926844 14851.3 0 -926180 15680.1 0 -925478 16525.6 0 -924736 17388.4 0 -923954 18269.2 0 -923131 19168.6 0 -922264 20087.3 0 -921353 21025.8 0 -920397 21984.7 0 -919394 22964.5 0 -918341 23965.7 0 -917239 24988.8 0 -916085 26034.1 0 -914877 27102.2 0 -913613 28193.2 0 -912292 29307.4 0 -910912 30445.1 0 -909470 31606.4 0 -907964 32791.4 0 -906393 34000.1 0 -904753 35232.3 0 -903043 36488 0 -901260 37766.8 0 -899401 39068.4 0 -897464 40392.2 0 -895446 41737.8 0 -893344 43104.3 0 -891156 44490.9 0 -888879 45896.7 0 -886509 47320.4 0 -884045 48760.9 0 -881482 50216.5 0 -878818 51685.8 0 -876050 53166.9 0 -873176 54657.8 0 -870191 56156.3 0 -867092 57660.2 0 -863878 59166.8 0 -860545 60673.4 0 -857090 62177 0 -853510 63674.4 0 -849803 65162.4 0 -845966 66637.4 0 -841997 68095.5 0 -837893 69532.9 0 -833653 70945.5 0 -829273 72328.9 0 -824754 73678.6 0 -820092 74990.2 0 -815287 76258.8 0 -810337 77479.5 0 -805242 78647.5 0 -800001 79757.5 0 -794614 80804.6 0 -789080 81783.5 0 -783401 82689.1 0 -777575 83516.2 0 -771604 84259.7 0 -765489 84914.3 0 -759232 85475.1 0 -752832 85937.1 0 -746293 86295.4 0 -739616 86545.3 0 -732803 86682.2 0 -725855 86701.6 0 -718776 86599.3 0 -711568 86371.1 0 -704232 86012.9 0 -696771 85521.1 0 -689188 84891.9 0 -681484 84121.8 0 -673663 83207.5 0 -665724 82145.6 0 -657671 80933 0 -649505 79566.5 0 -641226 78043 0 -632836 76359.4 0 -624334 74512.3 0 -615721 72498.4 0 -606995 70314.1 0 -598155 67955.6 0 -589198 65418.5 0 -580122 62698.1 0 -570922 59789.1 0 -561593 56685.3 0 -552128 53379.8 0 -542520 49864.3 0 -532759 46129.4 0 -522832 42163.7 0 -512726 37953.9 0 -502424 33484.3 0 -491904 28735.7 0 -481143 23685.2 0 -470109 18304.5 0 -458765 12559.2 0 -447063 6406.12 0 -434945 -209.543 0 -422333 -7356.01 0 -409128 -15129.7 0 -395183 -23638 0 -380322 -33090.6 0 -364206 -43619.6 0 -346477 -55842.4 0 -326093 -69743.2 0 -301946 -87316.6 0 -269353 -108400 0 -218823 -134234 0 -933808 -0.0115611 0 -933794 659.461 0 -933753 1319.72 0 -933686 1981.58 0 -933591 2645.82 0 -933469 3313.24 0 -933319 3984.62 0 -933141 4660.77 0 -932936 5342.47 0 -932702 6030.5 0 -932439 6725.66 0 -932148 7428.74 0 -931827 8140.51 0 -931475 8861.75 0 -931094 9593.25 0 -930681 10335.8 0 -930237 11090.1 0 -929760 11856.9 0 -929250 12637.1 0 -928706 13431.4 0 -928127 14240.4 0 -927513 15065 0 -926862 15905.8 0 -926174 16763.6 0 -925446 17639 0 -924680 18532.8 0 -923872 19445.5 0 -923022 20377.9 0 -922128 21330.4 0 -921189 22303.8 0 -920205 23298.6 0 -919172 24315.3 0 -918089 25354.3 0 -916956 26416.2 0 -915769 27501.3 0 -914527 28610.1 0 -913229 29742.7 0 -911872 30899.4 0 -910454 32080.5 0 -908973 33286 0 -907427 34516 0 -905814 35770.4 0 -904130 37049.1 0 -902374 38351.8 0 -900543 39678.4 0 -898634 41028.2 0 -896645 42400.8 0 -894573 43795.5 0 -892415 45211.5 0 -890168 46647.8 0 -887830 48103.4 0 -885397 49577 0 -882866 51067.2 0 -880234 52572.3 0 -877498 54090.8 0 -874656 55620.6 0 -871703 57159.6 0 -868637 58705.4 0 -865455 60255.6 0 -862154 61807.5 0 -858731 63358.1 0 -855183 64904.2 0 -851507 66442.6 0 -847701 67969.7 0 -843762 69481.8 0 -839687 70974.9 0 -835475 72444.9 0 -831124 73887.5 0 -826631 75298.2 0 -821994 76672.4 0 -817214 78005.3 0 -812287 79292 0 -807214 80527.5 0 -801993 81706.8 0 -796624 82824.5 0 -791107 83875.6 0 -785442 84854.7 0 -779630 85756.6 0 -773670 86576.1 0 -767565 87307.9 0 -761315 87947.1 0 -754921 88488.4 0 -748385 88927.1 0 -741709 89258.3 0 -734895 89477.2 0 -727945 89579.6 0 -720861 89560.8 0 -713646 89417 0 -706301 89143.9 0 -698830 88737.8 0 -691235 88195.1 0 -683517 87512.2 0 -675679 86685.9 0 -667724 85713 0 -659652 84590.3 0 -651465 83314.9 0 -643165 81883.7 0 -634752 80293.9 0 -626226 78542.5 0 -617587 76626.3 0 -608835 74542 0 -599968 72286.4 0 -590984 69855.4 0 -581879 67245 0 -572650 64450.4 0 -563291 61466.3 0 -553797 58286.6 0 -544158 54904.2 0 -534365 51310.7 0 -524407 47496.4 0 -514269 43449.9 0 -503935 39157.5 0 -493383 34602.9 0 -482588 29766.5 0 -471521 24624.6 0 -460143 19148.2 0 -448408 13301.8 0 -436257 7040.46 0 -423612 309.319 0 -410376 -6966.38 0 -396408 -14871.8 0 -381529 -23551 0 -365438 -33124.2 0 -347751 -43923.3 0 -327672 -56076.5 0 -304031 -70300.4 0 -274157 -86671.5 0 -232898 -103345 0 -934354 -0.0117017 0 -934341 668.603 0 -934301 1338.02 0 -934235 2009.04 0 -934142 2682.48 0 -934022 3359.14 0 -933876 4039.81 0 -933702 4725.31 0 -933501 5416.43 0 -933272 6113.96 0 -933015 6818.72 0 -932730 7531.49 0 -932416 8253.07 0 -932072 8984.25 0 -931698 9725.82 0 -931294 10478.6 0 -930859 11243.3 0 -930392 12020.7 0 -929893 12811.7 0 -929360 13616.9 0 -928793 14437.2 0 -928192 15273.2 0 -927554 16125.8 0 -926880 16995.6 0 -926167 17883.4 0 -925415 18789.8 0 -924623 19715.5 0 -923790 20661.3 0 -922914 21627.6 0 -921993 22615.2 0 -921027 23624.6 0 -920013 24656.4 0 -918951 25711.1 0 -917838 26789.2 0 -916673 27891 0 -915454 29017.1 0 -914179 30167.7 0 -912845 31343.1 0 -911452 32543.6 0 -909996 33769.3 0 -908476 35020.2 0 -906888 36296.4 0 -905232 37597.8 0 -903503 38924.2 0 -901701 40275.3 0 -899821 41650.8 0 -897862 43050 0 -895820 44472.6 0 -893692 45917.5 0 -891477 47384.1 0 -889170 48871.1 0 -886768 50377.5 0 -884270 51901.9 0 -881670 53442.6 0 -878968 54998.2 0 -876158 56566.5 0 -873238 58145.7 0 -870206 59733.3 0 -867057 61326.9 0 -863789 62923.8 0 -860399 64521.2 0 -856883 66115.9 0 -853240 67704.6 0 -849465 69283.7 0 -845557 70849.7 0 -841513 72398.4 0 -837331 73925.9 0 -833008 75427.7 0 -828543 76899.5 0 -823933 78336.5 0 -819178 79733.9 0 -814276 81086.9 0 -809225 82390.3 0 -804025 83639 0 -798676 84827.8 0 -793177 85951.3 0 -787529 87004.4 0 -781731 87981.6 0 -775784 88877.7 0 -769689 89687.3 0 -763447 90405.4 0 -757060 91026.7 0 -750528 91546.4 0 -743855 91959.4 0 -737041 92261.1 0 -730089 92447 0 -723002 92512.6 0 -715781 92453.6 0 -708429 92266.2 0 -700948 91946.5 0 -693341 91490.8 0 -685610 90895.7 0 -677758 90157.9 0 -669786 89274.3 0 -661696 88241.9 0 -653490 87057.7 0 -645169 85719.1 0 -636734 84223.2 0 -628186 82567.3 0 -619524 80748.5 0 -610747 78764 0 -601855 76610.7 0 -592844 74285.2 0 -583713 71783.8 0 -574458 69102.5 0 -565072 66236.7 0 -555550 63181 0 -545884 59929.4 0 -536064 56474.7 0 -526080 52808.7 0 -515915 48921.6 0 -505555 44801.8 0 -494978 40435.5 0 -484160 35806.4 0 -473071 30894.6 0 -461673 25676.4 0 -449921 20122.8 0 -437757 14198 0 -425107 7858.58 0 -411875 1048.1 0 -397930 -6298.56 0 -383098 -14277.9 0 -367115 -22982.2 0 -349615 -32585.5 0 -329968 -43196.9 0 -307190 -55002.4 0 -279469 -67971.3 0 -243693 -80166.2 0 -934909 -0.0118399 0 -934896 677.502 0 -934858 1355.82 0 -934793 2035.78 0 -934702 2718.17 0 -934585 3403.82 0 -934442 4093.54 0 -934272 4788.14 0 -934075 5488.43 0 -933852 6195.21 0 -933600 6909.3 0 -933321 7631.52 0 -933014 8362.65 0 -932678 9103.51 0 -932312 9854.9 0 -931917 10617.6 0 -931491 11392.5 0 -931034 12180.2 0 -930546 12981.7 0 -930024 13797.6 0 -929470 14628.8 0 -928881 15476.1 0 -928256 16340.1 0 -927596 17221.6 0 -926898 18121.4 0 -926162 19040.2 0 -925386 19978.6 0 -924569 20937.4 0 -923710 21917.2 0 -922808 22918.7 0 -921861 23942.4 0 -920867 24989 0 -919825 26059 0 -918733 27152.9 0 -917590 28271.2 0 -916393 29414.2 0 -915141 30582.5 0 -913831 31776.2 0 -912462 32995.7 0 -911032 34241.1 0 -909538 35512.6 0 -907977 36810.3 0 -906348 38134 0 -904648 39483.6 0 -902874 40858.9 0 -901024 42259.6 0 -899094 43685.2 0 -897083 45135.1 0 -894987 46608.7 0 -892803 48105.1 0 -890528 49623.3 0 -888159 51162.1 0 -885694 52720.3 0 -883128 54296.4 0 -880458 55888.6 0 -877683 57495.3 0 -874797 59114.3 0 -871798 60743.4 0 -868684 62380.1 0 -865450 64021.9 0 -862093 65665.9 0 -858611 67308.9 0 -855001 68947.8 0 -851259 70578.9 0 -847383 72198.6 0 -843371 73803 0 -839220 75387.9 0 -834927 76949.1 0 -830490 78482 0 -825909 79981.9 0 -821180 81444 0 -816303 82863.4 0 -811276 84235 0 -806099 85553.5 0 -800771 86813.7 0 -795291 88010.2 0 -789660 89137.6 0 -783878 90190.6 0 -777945 91163.8 0 -771861 92051.8 0 -765629 92849.4 0 -759250 93551.3 0 -752724 94152.6 0 -746054 94648.1 0 -739241 95033.2 0 -732289 95303.3 0 -725199 95453.8 0 -717973 95480.5 0 -710614 95379.4 0 -703125 95146.6 0 -695507 94778.6 0 -687764 94271.7 0 -679898 93622.9 0 -671911 92829 0 -663804 91887.2 0 -655580 90794.6 0 -647240 89548.6 0 -638784 88146.7 0 -630214 86586.2 0 -621530 84864.8 0 -612730 82979.6 0 -603814 80928.1 0 -594779 78707.2 0 -585624 76314 0 -576344 73744.7 0 -566933 70995.6 0 -557387 68062.1 0 -547697 64939.1 0 -537854 61620.6 0 -527847 58099.6 0 -517661 54367.9 0 -507281 50415.9 0 -496686 46232.1 0 -485852 41803.1 0 -474751 37112.6 0 -463345 32141.6 0 -451590 26866.8 0 -439432 21260.3 0 -426799 15288.8 0 -413599 8910.84 0 -399712 2078.93 0 -384976 -5269.24 0 -369157 -13195.9 0 -351928 -21784.3 0 -332781 -31087.4 0 -310927 -41079.7 0 -285148 -51567.4 0 -253380 -61039.7 0 -935473 -0.011975 0 -935461 686.156 0 -935423 1373.14 0 -935360 2061.78 0 -935271 2752.88 0 -935157 3447.28 0 -935017 4145.79 0 -934851 4849.24 0 -934659 5558.45 0 -934440 6274.23 0 -934194 6997.41 0 -933922 7728.8 0 -933621 8469.23 0 -933293 9219.51 0 -932935 9980.45 0 -932549 10752.9 0 -932133 11537.6 0 -931686 12335.4 0 -931208 13147.1 0 -930698 13973.4 0 -930155 14815.3 0 -929579 15673.4 0 -928968 16548.6 0 -928322 17441.5 0 -927639 18353.1 0 -926918 19283.9 0 -926158 20234.7 0 -925359 21206.2 0 -924517 22199.2 0 -923633 23214.2 0 -922705 24251.9 0 -921731 25312.9 0 -920710 26397.9 0 -919639 27507.2 0 -918518 28641.5 0 -917344 29801.2 0 -916115 30986.8 0 -914830 32198.4 0 -913486 33436.6 0 -912082 34701.4 0 -910614 35993.1 0 -909080 37311.8 0 -907479 38657.4 0 -905808 40029.8 0 -904063 41429 0 -902242 42854.5 0 -900344 44306 0 -898363 45783 0 -896299 47284.8 0 -894147 48810.7 0 -891905 50359.6 0 -889569 51930.5 0 -887137 53522.2 0 -884605 55133.1 0 -881971 56761.8 0 -879229 58406.4 0 -876378 60065 0 -873415 61735.3 0 -870335 63414.9 0 -867136 65101.3 0 -863814 66791.7 0 -860367 68482.9 0 -856790 70171.7 0 -853083 71854.7 0 -849240 73528.1 0 -845260 75188.1 0 -841141 76830.5 0 -836879 78450.9 0 -832473 80045 0 -827921 81608 0 -823220 83135 0 -818369 84621 0 -813368 86061 0 -808215 87449.6 0 -802909 88781.5 0 -797449 90051.3 0 -791837 91253.6 0 -786071 92382.9 0 -780153 93433.7 0 -774083 94400.6 0 -767861 95278.3 0 -761490 96061.5 0 -754971 96744.9 0 -748306 97323.7 0 -741496 97792.9 0 -734544 98147.8 0 -727452 98383.9 0 -720223 98496.9 0 -712858 98482.8 0 -705361 98337.6 0 -697734 98057.7 0 -689980 97639.7 0 -682101 97080.3 0 -674099 96376.6 0 -665977 95525.6 0 -657735 94524.9 0 -649376 93371.8 0 -640901 92063.9 0 -632311 90598.8 0 -623605 88974.4 0 -614784 87188.2 0 -605845 85238 0 -596788 83121.1 0 -587610 80834.9 0 -578307 78376.5 0 -568875 75742.6 0 -559307 72929.5 0 -549596 69932.8 0 -539732 66747.6 0 -529706 63368.2 0 -519504 59787.9 0 -509109 55998.8 0 -498502 51991.6 0 -487660 47755.4 0 -476554 43277.4 0 -465150 38542.3 0 -453405 33532.3 0 -441267 28226.1 0 -428668 22599.1 0 -415523 16621.9 0 -401721 10262.1 0 -387113 3481.96 0 -371496 -3753.93 0 -354585 -11475.8 0 -335969 -19684.3 0 -315027 -28269.3 0 -290891 -36961 0 -262211 -44577.8 0 -936046 -0.0121067 0 -936034 694.562 0 -935997 1389.96 0 -935935 2087.03 0 -935849 2786.6 0 -935737 3489.5 0 -935600 4196.55 0 -935438 4908.6 0 -935251 5626.47 0 -935037 6350.99 0 -934797 7083 0 -934531 7823.32 0 -934237 8572.78 0 -933916 9332.21 0 -933567 10102.4 0 -933190 10884.3 0 -932783 11678.6 0 -932347 12486.1 0 -931880 13307.8 0 -931381 14144.3 0 -930851 14996.5 0 -930287 15865.2 0 -929690 16751.2 0 -929058 17655.3 0 -928390 18578.2 0 -927684 19520.8 0 -926941 20483.7 0 -926158 21467.6 0 -925335 22473.3 0 -924470 23501.6 0 -923561 24552.9 0 -922606 25628.1 0 -921606 26727.6 0 -920557 27852.1 0 -919458 29002.1 0 -918307 30178.1 0 -917102 31380.5 0 -915841 32609.7 0 -914523 33866.1 0 -913144 35150 0 -911703 36461.5 0 -910197 37800.8 0 -908624 39167.9 0 -906981 40562.8 0 -905266 41985.3 0 -903476 43435.3 0 -901608 44912.3 0 -899660 46416 0 -897628 47945.6 0 -895509 49500.5 0 -893300 51079.7 0 -890998 52682.4 0 -888601 54307.1 0 -886103 55952.6 0 -883504 57617.4 0 -880798 59299.6 0 -877982 60997.4 0 -875054 62708.6 0 -872010 64430.8 0 -868847 66161.6 0 -865561 67898 0 -862149 69637.2 0 -858608 71375.9 0 -854935 73110.5 0 -851127 74837.6 0 -847181 76553 0 -843095 78252.8 0 -838866 79932.7 0 -834491 81588 0 -829969 83214.1 0 -825297 84806.1 0 -820474 86359.1 0 -815500 87867.7 0 -810371 89326.7 0 -805089 90730.7 0 -799651 92074.2 0 -794059 93351.7 0 -788311 94557.8 0 -782409 95686.7 0 -776353 96733.1 0 -770143 97691.5 0 -763783 98556.5 0 -757271 99322.8 0 -750612 99985.5 0 -743805 100539 0 -736855 100980 0 -729762 101302 0 -722530 101502 0 -715161 101576 0 -707657 101519 0 -700022 101328 0 -692258 100999 0 -684366 100530 0 -676351 99916.4 0 -668213 99156.8 0 -659956 98248.2 0 -651579 97188.1 0 -643086 95974.2 0 -634476 94604.6 0 -625750 93077 0 -616908 91389.5 0 -607949 89539.9 0 -598871 87526.3 0 -589671 85346.2 0 -580348 82997.4 0 -570895 80477.2 0 -561307 77782.4 0 -551578 74909.7 0 -541697 71855.1 0 -531656 68614 0 -521440 65181 0 -511035 61549.9 0 -500421 57713.3 0 -489577 53662.8 0 -478475 49388.3 0 -467081 44878.2 0 -455356 40119.1 0 -443250 35095.6 0 -430699 29790.3 0 -417626 24183.7 0 -403928 18255.7 0 -389473 11986.2 0 -374081 5361.51 0 -357510 -1616.56 0 -339424 -8912.4 0 -319341 -16382.5 0 -296632 -23737.5 0 -270375 -30054 0 -936628 -0.0122337 0 -936616 702.72 0 -936579 1406.29 0 -936519 2111.54 0 -936435 2819.32 0 -936326 3530.46 0 -936193 4245.81 0 -936034 4966.21 0 -935851 5692.48 0 -935643 6425.49 0 -935409 7166.06 0 -935149 7915.04 0 -934862 8673.27 0 -934549 9441.58 0 -934208 10220.8 0 -933840 11011.8 0 -933443 11815.4 0 -933016 12632.5 0 -932560 13463.8 0 -932073 14310.1 0 -931555 15172.4 0 -931005 16051.4 0 -930421 16948 0 -929803 17862.9 0 -929150 18796.9 0 -928461 19750.9 0 -927734 20725.5 0 -926968 21721.5 0 -926163 22739.7 0 -925316 23780.8 0 -924426 24845.5 0 -923493 25934.4 0 -922513 27048.1 0 -921486 28187.4 0 -920409 29352.7 0 -919281 30544.5 0 -918100 31763.5 0 -916865 33009.9 0 -915572 34284.2 0 -914219 35586.6 0 -912805 36917.5 0 -911327 38277 0 -909783 39665.2 0 -908170 41082.2 0 -906485 42527.7 0 -904725 44001.7 0 -902889 45503.8 0 -900973 47033.7 0 -898973 48590.7 0 -896888 50174.3 0 -894713 51783.5 0 -892446 53417.4 0 -890083 55074.8 0 -887621 56754.5 0 -885057 58455 0 -882388 60174.4 0 -879609 61911.1 0 -876717 63662.9 0 -873710 65427.4 0 -870583 67202.2 0 -867334 68984.6 0 -863959 70771.5 0 -860454 72559.7 0 -856817 74345.9 0 -853045 76126.4 0 -849134 77897.3 0 -845082 79654.5 0 -840886 81393.7 0 -836543 83110.3 0 -832053 84799.6 0 -827412 86456.8 0 -822618 88076.8 0 -817671 89654.2 0 -812569 91183.9 0 -807311 92660.3 0 -801897 94078 0 -796325 95431.2 0 -790597 96714.5 0 -784712 97922.1 0 -778672 99048.5 0 -772476 100088 0 -766126 101036 0 -759624 101886 0 -752971 102633 0 -746170 103272 0 -739222 103799 0 -732130 104208 0 -724896 104496 0 -717523 104658 0 -710014 104689 0 -702371 104588 0 -694597 104349 0 -686695 103970 0 -678666 103448 0 -670515 102780 0 -662242 101964 0 -653849 100997 0 -645338 99877.4 0 -636710 98603.1 0 -627965 97172.1 0 -619103 95582.9 0 -610124 93833.5 0 -601026 91922.3 0 -591807 89847.5 0 -582464 87607 0 -572993 85198.8 0 -563388 82620.6 0 -553642 79869.6 0 -543747 76942.7 0 -533694 73836.5 0 -523468 70546.8 0 -513057 67068.8 0 -502441 63397 0 -491599 59524.8 0 -480506 55445.1 0 -469130 51149.1 0 -457433 46627.6 0 -445369 41869.8 0 -432878 36864.4 0 -419889 31600 0 -406309 26066.1 0 -392021 20256 0 -376867 14171.5 0 -360643 7834.61 0 -343074 1302.88 0 -323783 -5271.33 0 -302305 -11609.2 0 -278004 -16979.6 0 -937217 -0.0123576 0 -937206 710.627 0 -937170 1422.11 0 -937112 2135.3 0 -937029 2851.03 0 -936923 3570.17 0 -936793 4293.55 0 -936639 5022.04 0 -936460 5756.47 0 -936257 6497.7 0 -936029 7246.57 0 -935775 8003.95 0 -935496 8770.68 0 -935190 9547.61 0 -934858 10335.6 0 -934498 11135.5 0 -934111 11948.1 0 -933695 12774.3 0 -933250 13615 0 -932775 14470.9 0 -932269 15343 0 -931731 16232 0 -931161 17138.8 0 -930558 18064.2 0 -929920 19009 0 -929246 19974 0 -928536 20960.1 0 -927788 21967.9 0 -927001 22998.2 0 -926173 24051.8 0 -925303 25129.4 0 -924389 26231.7 0 -923431 27359.3 0 -922425 28512.9 0 -921371 29693.2 0 -920267 30900.5 0 -919111 32135.6 0 -917900 33398.8 0 -916633 34690.5 0 -915307 36011.2 0 -913920 37361.1 0 -912471 38740.4 0 -910955 40149.3 0 -909372 41587.8 0 -907717 43055.9 0 -905989 44553.5 0 -904185 46080.3 0 -902301 47636 0 -900335 49220 0 -898284 50831.7 0 -896143 52470.5 0 -893911 54135.2 0 -891584 55825 0 -889159 57538.4 0 -886631 59274.2 0 -883999 61030.5 0 -881257 62805.7 0 -878403 64597.7 0 -875433 66404.2 0 -872344 68222.8 0 -869133 70050.7 0 -865795 71885.1 0 -862328 73722.8 0 -858728 75560.3 0 -854992 77394.1 0 -851117 79220.3 0 -847100 81034.8 0 -842939 82833.3 0 -838631 84611.2 0 -834173 86363.9 0 -829564 88086.3 0 -824801 89773.5 0 -819883 91420 0 -814808 93020.7 0 -809576 94569.8 0 -804186 96061.9 0 -798638 97491.3 0 -792930 98852.2 0 -787064 100139 0 -781040 101346 0 -774859 102468 0 -768522 103498 0 -762030 104432 0 -755385 105265 0 -748589 105990 0 -741645 106604 0 -734554 107101 0 -727320 107477 0 -719944 107728 0 -712430 107849 0 -704781 107838 0 -696998 107689 0 -689086 107402 0 -681046 106971 0 -672881 106395 0 -664594 105672 0 -656185 104798 0 -647657 103773 0 -639012 102594 0 -630249 101259 0 -621368 99768.1 0 -612371 98118.4 0 -603254 96309 0 -594017 94338.3 0 -584656 92205 0 -575168 89907.3 0 -565547 87443.7 0 -555787 84812 0 -545881 82010.2 0 -535817 79035.5 0 -525585 75885 0 -515171 72555.3 0 -504557 69042.4 0 -493723 65341.7 0 -482644 61448.1 0 -471291 57355.9 0 -459629 53058.8 0 -447613 48550.5 0 -435191 43824.5 0 -422295 38875.8 0 -408843 33701.5 0 -394730 28304.6 0 -379820 22698 0 -363940 16916.1 0 -346864 11028 0 -328297 5183.34 0 -307889 -362.812 0 -285191 -5026.85 0 -937815 -0.0124778 0 -937804 718.28 0 -937769 1437.42 0 -937712 2158.29 0 -937632 2881.73 0 -937529 3608.6 0 -937402 4339.77 0 -937252 5076.08 0 -937078 5818.4 0 -936880 6567.6 0 -936657 7324.51 0 -936410 8090.02 0 -936138 8864.98 0 -935840 9650.25 0 -935516 10446.7 0 -935166 11255.2 0 -934788 12076.5 0 -934382 12911.7 0 -933948 13761.4 0 -933485 14626.6 0 -932991 15508.2 0 -932467 16406.9 0 -931911 17323.6 0 -931322 18259.2 0 -930699 19214.5 0 -930042 20190.2 0 -929348 21187.3 0 -928617 22206.6 0 -927848 23248.7 0 -927039 24314.4 0 -926189 25404.6 0 -925296 26519.9 0 -924359 27661.1 0 -923376 28828.7 0 -922345 30023.5 0 -921264 31246 0 -920132 32496.7 0 -918947 33776.3 0 -917706 35085.1 0 -916407 36423.6 0 -915048 37792 0 -913627 39190.7 0 -912141 40619.9 0 -910588 42079.5 0 -908964 43569.8 0 -907268 45090.5 0 -905496 46641.5 0 -903645 48222.5 0 -901713 49833.1 0 -899696 51472.6 0 -897591 53140.4 0 -895395 54835.6 0 -893104 56557.2 0 -890716 58304 0 -888225 60074.7 0 -885630 61867.5 0 -882927 63680.8 0 -880111 65512.7 0 -877180 67360.8 0 -874130 69222.8 0 -870957 71096 0 -867658 72977.6 0 -864229 74864.4 0 -860667 76753.1 0 -856969 78640.1 0 -853131 80521.4 0 -849151 82393.2 0 -845026 84250.9 0 -840753 86090.1 0 -836329 87906.1 0 -831753 89694 0 -827022 91448.5 0 -822134 93164.3 0 -817089 94836.2 0 -811884 96458.4 0 -806520 98025.3 0 -800995 99531.2 0 -795310 100970 0 -789464 102337 0 -783458 103625 0 -777292 104829 0 -770969 105943 0 -764488 106962 0 -757853 107881 0 -751064 108693 0 -744125 109394 0 -737037 109980 0 -729803 110445 0 -722425 110786 0 -714908 110997 0 -707252 111076 0 -699463 111019 0 -691541 110823 0 -683490 110485 0 -675313 110001 0 -667011 109371 0 -658588 108591 0 -650044 107660 0 -641382 106577 0 -632602 105338 0 -623704 103945 0 -614689 102394 0 -605555 100686 0 -596300 98818.5 0 -586923 96791 0 -577419 94602.4 0 -567785 92251.5 0 -558012 89737 0 -548095 87057.3 0 -538025 84210.9 0 -527789 81195.7 0 -517374 78009.6 0 -506765 74649.8 0 -495942 71113.7 0 -484882 67398 0 -473558 63499.3 0 -461935 59414.3 0 -449975 55140 0 -437626 50674.2 0 -424830 46016.7 0 -411512 41170.6 0 -397578 36145.7 0 -382912 30962.8 0 -367367 25663.3 0 -350757 20321 0 -332848 15077.6 0 -313374 10160.2 0 -292011 6038.68 0 -938421 -0.0125966 0 -938410 725.678 0 -938377 1452.23 0 -938321 2180.52 0 -938243 2911.4 0 -938142 3645.76 0 -938019 4384.44 0 -937873 5128.33 0 -937703 5878.28 0 -937511 6635.17 0 -937294 7399.86 0 -937053 8173.23 0 -936788 8956.15 0 -936498 9749.48 0 -936183 10554.1 0 -935841 11370.9 0 -935473 12200.7 0 -935078 13044.5 0 -934655 13903 0 -934203 14777.2 0 -933722 15667.9 0 -933211 16576 0 -932669 17502.4 0 -932095 18447.8 0 -931487 19413.2 0 -930846 20399.4 0 -930169 21407.3 0 -929456 22437.5 0 -928705 23491.1 0 -927916 24568.6 0 -927085 25671 0 -926213 26799 0 -925297 27953.3 0 -924336 29134.5 0 -923329 30343.5 0 -922272 31580.7 0 -921165 32846.8 0 -920005 34142.3 0 -918790 35467.7 0 -917519 36823.6 0 -916188 38210.1 0 -914796 39627.8 0 -913340 41076.7 0 -911817 42557.1 0 -910225 44069.1 0 -908561 45612.5 0 -906822 47187.3 0 -905005 48793.1 0 -903107 50429.8 0 -901125 52096.6 0 -899056 53793 0 -896896 55518.2 0 -894643 57271.3 0 -892291 59051 0 -889839 60856 0 -887283 62685 0 -884618 64536 0 -881842 66407.3 0 -878950 68296.7 0 -875939 70201.8 0 -872806 72120 0 -869546 74048.5 0 -866157 75984.2 0 -862635 77923.8 0 -858975 79863.7 0 -855176 81800.1 0 -851234 83728.9 0 -847146 85645.9 0 -842909 87546.4 0 -838521 89425.8 0 -833979 91279 0 -829281 93101 0 -824425 94886.4 0 -819410 96629.7 0 -814235 98325.2 0 -808897 99967.3 0 -803398 101550 0 -797736 103068 0 -791911 104515 0 -785925 105885 0 -779777 107172 0 -773468 108370 0 -767000 109475 0 -760376 110480 0 -753595 111380 0 -746662 112170 0 -739577 112844 0 -732345 113400 0 -724967 113830 0 -717446 114133 0 -709786 114304 0 -701990 114338 0 -694059 114234 0 -685999 113989 0 -677810 113598 0 -669495 113061 0 -661058 112375 0 -652499 111539 0 -643821 110551 0 -635025 109409 0 -626110 108113 0 -617078 106661 0 -607927 105053 0 -598657 103288 0 -589264 101365 0 -579746 99283.9 0 -570099 97043.9 0 -560316 94644.2 0 -550390 92084.1 0 -540314 89362.7 0 -530076 86479 0 -519664 83431.7 0 -509063 80219.7 0 -498254 76841.4 0 -487217 73295.6 0 -475924 69580.8 0 -464345 65696.1 0 -452444 61641.4 0 -440174 57417.7 0 -427482 53028.8 0 -414300 48482.3 0 -400547 43792.9 0 -386121 38986.5 0 -370898 34108.1 0 -354724 29232.2 0 -337413 24489.7 0 -318760 20080.5 0 -298525 16386.3 0 -939035 -0.0127096 0 -939024 732.82 0 -938992 1466.52 0 -938937 2201.97 0 -938861 2940.05 0 -938764 3681.62 0 -938644 4427.57 0 -938501 5178.76 0 -938337 5936.08 0 -938149 6700.4 0 -937939 7472.59 0 -937705 8253.55 0 -937447 9044.15 0 -937164 9845.28 0 -936857 10657.8 0 -936525 11482.6 0 -936167 12320.6 0 -935782 13172.7 0 -935370 14039.7 0 -934930 14922.6 0 -934462 15822.2 0 -933964 16739.3 0 -933436 17675 0 -932876 18630 0 -932284 19605.2 0 -931659 20601.5 0 -931000 21619.7 0 -930304 22660.7 0 -929572 23725.3 0 -928801 24814.4 0 -927991 25928.6 0 -927140 27068.9 0 -926246 28235.9 0 -925307 29430.3 0 -924323 30653 0 -923291 31904.5 0 -922208 33185.5 0 -921074 34496.6 0 -919887 35838.3 0 -918643 37211 0 -917340 38615.3 0 -915978 40051.4 0 -914551 41519.7 0 -913060 43020.4 0 -911499 44553.5 0 -909868 46119.2 0 -908162 47717.3 0 -906379 49347.6 0 -904516 51009.8 0 -902570 52703.5 0 -900537 54428.1 0 -898415 56182.8 0 -896199 57966.8 0 -893886 59778.9 0 -891473 61618 0 -888955 63482.5 0 -886330 65370.9 0 -883594 67281.3 0 -880743 69211.5 0 -877773 71159.3 0 -874680 73122.2 0 -871461 75097.3 0 -868112 77081.6 0 -864630 79071.8 0 -861011 81064.5 0 -857252 83055.7 0 -853349 85041.5 0 -849299 87017.5 0 -845100 88979.3 0 -840749 90922 0 -836242 92840.8 0 -831579 94730.4 0 -826756 96585.4 0 -821773 98400.4 0 -816628 100170 0 -811319 101887 0 -805846 103547 0 -800209 105144 0 -794407 106672 0 -788441 108124 0 -782312 109495 0 -776019 110778 0 -769566 111969 0 -762953 113062 0 -756182 114050 0 -749255 114929 0 -742176 115694 0 -734946 116339 0 -727568 116862 0 -720046 117256 0 -712382 117519 0 -704580 117646 0 -696642 117635 0 -688572 117482 0 -680372 117185 0 -672046 116742 0 -663595 116151 0 -655022 115409 0 -646329 114516 0 -637517 113470 0 -628586 112271 0 -619538 110918 0 -610372 109409 0 -601086 107746 0 -591679 105927 0 -582148 103952 0 -572489 101821 0 -562697 99533.8 0 -552764 97090.7 0 -542684 94491.1 0 -532446 91735 0 -522039 88822.2 0 -511447 85752.5 0 -500655 82525.8 0 -489642 79142.1 0 -478385 75602 0 -466853 71906.4 0 -455014 68057.6 0 -442825 64059.4 0 -430239 59918.4 0 -417195 55645.7 0 -403620 51259.4 0 -389428 46788.4 0 -374513 42279.3 0 -358746 37804.6 0 -341979 33483.8 0 -324051 29491.9 0 -304782 26141.9 0 -939656 -0.0128185 0 -939646 739.702 0 -939614 1480.29 0 -939562 2222.65 0 -939488 2967.65 0 -939393 3716.19 0 -939276 4469.13 0 -939138 5227.37 