<?xml version="1.0"?> 
<VTKFile type="StructuredGrid" version="0.1"> 
<StructuredGrid WholeExtent="0 127 0 127 0 0"> 
<Piece Extent="0 127 0 127 0 0"> 
<PointData>
<DataArray type="Float32" Name="E" format="ascii" NumberOfComponents="3"> 
-1.0585e+06 0.00461674 0 -1.05849e+06 -2018.97 0 -1.05846e+06 -4038.25 0 -1.05841e+06 -6058.18 0 -1.05833e+06 -8079.05 0 -1.05824e+06 -10101.2 0 -1.05812e+06 -12124.9 0 -1.05799e+06 -14150.6 0 -1.05783e+06 -16178.4 0 -1.05765e+06 -18208.8 0 -1.05745e+06 -20242 0 -1.05724e+06 -22278.5 0 -1.057e+06 -24318.4 0 -1.05673e+06 -26362.1 0 -1.05645e+06 -28409.9 0 -1.05615e+06 -30462.1 0 -1.05582e+06 -32519.2 0 -1.05548e+06 -34581.2 0 -1.05511e+06 -36648.7 0 -1.05473e+06 -38721.9 0 -1.05432e+06 -40801.1 0 -1.05389e+06 -42886.6 0 -1.05344e+06 -44978.7 0 -1.05297e+06 -47077.9 0 -1.05248e+06 -49184.3 0 -1.05197e+06 -51298.3 0 -1.05143e+06 -53420.2 0 -1.05088e+06 -55550.3 0 -1.05031e+06 -57689 0 -1.04971e+06 -59836.5 0 -1.04909e+06 -61993.1 0 -1.04846e+06 -64159.2 0 -1.0478e+06 -66335.1 0 -1.04712e+06 -68521 0 -1.04642e+06 -70717.3 0 -1.0457e+06 -72924.3 0 -1.04496e+06 -75142.3 0 -1.0442e+06 -77371.6 0 -1.04342e+06 -79612.5 0 -1.04261e+06 -81865.2 0 -1.04179e+06 -84130.1 0 -1.04094e+06 -86407.5 0 -1.04008e+06 -88697.6 0 -1.03919e+06 -91000.7 0 -1.03829e+06 -93317.2 0 -1.03736e+06 -95647.2 0 -1.03641e+06 -97991.1 0 -1.03544e+06 -100349 0 -1.03445e+06 -102722 0 -1.03344e+06 -105109 0 -1.03241e+06 -107511 0 -1.03136e+06 -109928 0 -1.03029e+06 -112361 0 -1.0292e+06 -114809 0 -1.02809e+06 -117273 0 -1.02696e+06 -119753 0 -1.02581e+06 -122250 0 -1.02464e+06 -124763 0 -1.02344e+06 -127293 0 -1.02223e+06 -129839 0 -1.021e+06 -132403 0 -1.01975e+06 -134984 0 -1.01847e+06 -137583 0 -1.01718e+06 -140199 0 -1.01587e+06 -142833 0 -1.01454e+06 -145485 0 -1.01318e+06 -148155 0 -1.01181e+06 -150844 0 -1.01042e+06 -153550 0 -1.00901e+06 -156275 0 -1.00757e+06 -159018 0 -1.00612e+06 -161780 0 -1.00465e+06 -164560 0 -1.00316e+06 -167359 0 -1.00165e+06 -170176 0 -1.00012e+06 -173012 0 -998567 -175867 0 -996997 -178740 0 -995407 -181631 0 -993797 -184542 0 -992168 -187470 0 -990518 -190417 0 -988849 -193381 0 -987160 -196364 0 -985451 -199365 0 -983723 -202383 0 -981974 -205419 0 -980205 -208471 0 -978416 -211541 0 -976607 -214628 0 -974777 -217730 0 -972927 -220849 0 -971057 -223984 0 -969166 -227133 0 -967254 -230298 0 -965322 -233477 0 -963368 -236670 0 -961393 -239877 0 -959397 -243097 0 -957379 -246329 0 -955340 -249573 0 -953278 -252828 0 -951194 -256095 0 -949088 -259371 0 -946960 -262656 0 -944808 -265950 0 -942634 -269252 0 -940436 -272561 0 -938214 -275877 0 -935969 -279197 0 -933699 -282523 0 -931404 -285852 0 -929085 -289183 0 -926741 -292517 0 -924371 -295851 0 -921975 -299185 0 -919554 -302518 0 -917106 -305849 0 -914631 -309176 0 -912128 -312498 0 -909599 -315815 0 -907042 -319124 0 -904457 -322426 0 -901843 -325718 0 -899201 -328999 0 -896530 -332268 0 -893830 -335523 0 -891113 -338759 0 -1.05597e+06 0.00461521 0 -1.05596e+06 -2005.72 0 -1.05592e+06 -4011.76 0 -1.05587e+06 -6018.44 0 -1.0558e+06 -8026.07 0 -1.0557e+06 -10035 0 -1.05559e+06 -12045.4 0 -1.05545e+06 -14057.8 0 -1.05529e+06 -16072.4 0 -1.05511e+06 -18089.6 0 -1.05491e+06 -20109.6 0 -1.05469e+06 -22132.7 0 -1.05444e+06 -24159.4 0 -1.05418e+06 -26189.9 0 -1.05389e+06 -28224.4 0 -1.05358e+06 -30263.4 0 -1.05326e+06 -32307.2 0 -1.05291e+06 -34356 0 -1.05254e+06 -36410.3 0 -1.05214e+06 -38470.2 0 -1.05173e+06 -40536.2 0 -1.0513e+06 -42608.4 0 -1.05084e+06 -44687.4 0 -1.05037e+06 -46773.3 0 -1.04987e+06 -48866.4 0 -1.04935e+06 -50967.2 0 -1.04881e+06 -53075.9 0 -1.04825e+06 -55192.8 0 -1.04767e+06 -57318.3 0 -1.04707e+06 -59452.5 0 -1.04644e+06 -61596 0 -1.0458e+06 -63748.9 0 -1.04513e+06 -65911.6 0 -1.04444e+06 -68084.3 0 -1.04373e+06 -70267.5 0 -1.043e+06 -72461.3 0 -1.04225e+06 -74666.2 0 -1.04148e+06 -76882.3 0 -1.04069e+06 -79110 0 -1.03988e+06 -81349.7 0 -1.03904e+06 -83601.5 0 -1.03819e+06 -85865.7 0 -1.03731e+06 -88142.8 0 -1.03641e+06 -90432.8 0 -1.0355e+06 -92736.2 0 -1.03456e+06 -95053.3 0 -1.0336e+06 -97384.2 0 -1.03262e+06 -99729.2 0 -1.03162e+06 -102089 0 -1.03059e+06 -104463 0 -1.02955e+06 -106852 0 -1.02849e+06 -109256 0 -1.0274e+06 -111676 0 -1.0263e+06 -114111 0 -1.02518e+06 -116563 0 -1.02403e+06 -119030 0 -1.02286e+06 -121514 0 -1.02168e+06 -124014 0 -1.02047e+06 -126531 0 -1.01924e+06 -129065 0 -1.018e+06 -131616 0 -1.01673e+06 -134185 0 -1.01544e+06 -136771 0 -1.01414e+06 -139374 0 -1.01281e+06 -141996 0 -1.01146e+06 -144635 0 -1.01009e+06 -147293 0 -1.0087e+06 -149968 0 -1.00729e+06 -152662 0 -1.00587e+06 -155374 0 -1.00442e+06 -158105 0 -1.00295e+06 -160854 0 -1.00146e+06 -163622 0 -999956 -166409 0 -998429 -169213 0 -996882 -172037 0 -995315 -174879 0 -993729 -177740 0 -992123 -180619 0 -990497 -183517 0 -988851 -186433 0 -987185 -189367 0 -985500 -192319 0 -983795 -195289 0 -982070 -198277 0 -980326 -201283 0 -978561 -204306 0 -976777 -207346 0 -974972 -210404 0 -973148 -213477 0 -971303 -216567 0 -969439 -219673 0 -967554 -222795 0 -965648 -225932 0 -963723 -229083 0 -961776 -232249 0 -959809 -235429 0 -957821 -238623 0 -955812 -241829 0 -953782 -245048 0 -951730 -248278 0 -949657 -251520 0 -947563 -254772 0 -945446 -258034 0 -943307 -261306 0 -941146 -264585 0 -938962 -267873 0 -936755 -271167 0 -934526 -274468 0 -932272 -277774 0 -929996 -281084 0 -927695 -284397 0 -925370 -287714 0 -923021 -291032 0 -920647 -294350 0 -918248 -297668 0 -915823 -300984 0 -913373 -304298 0 -910897 -307609 0 -908395 -310914 0 -905866 -314214 0 -903310 -317506 0 -900727 -320790 0 -898116 -324065 0 -895478 -327328 0 -892812 -330579 0 -890119 -333816 0 -887398 -337042 0 -1.05345e+06 0.00461612 0 -1.05344e+06 -1992.31 0 -1.05341e+06 -3984.93 0 -1.05335e+06 -5978.19 0 -1.05328e+06 -7972.41 0 -1.05318e+06 -9967.89 0 -1.05306e+06 -11965 0 -1.05292e+06 -13963.9 0 -1.05276e+06 -15965.1 0 -1.05258e+06 -17968.9 0 -1.05238e+06 -19975.4 0 -1.05215e+06 -21985.2 0 -1.05191e+06 -23998.4 0 -1.05164e+06 -26015.5 0 -1.05135e+06 -28036.6 0 -1.05104e+06 -30062.2 0 -1.05071e+06 -32092.6 0 -1.05035e+06 -34128 0 -1.04998e+06 -36168.8 0 -1.04958e+06 -38215.4 0 -1.04916e+06 -40267.9 0 -1.04872e+06 -42326.8 0 -1.04826e+06 -44392.3 0 -1.04778e+06 -46464.8 0 -1.04728e+06 -48544.6 0 -1.04675e+06 -50632 0 -1.0462e+06 -52727.3 0 -1.04564e+06 -54830.8 0 -1.04505e+06 -56942.9 0 -1.04444e+06 -59063.8 0 -1.0438e+06 -61193.9 0 -1.04315e+06 -63333.4 0 -1.04248e+06 -65482.7 0 -1.04178e+06 -67642.2 0 -1.04106e+06 -69812 0 -1.04032e+06 -71992.5 0 -1.03956e+06 -74184 0 -1.03878e+06 -76386.9 0 -1.03798e+06 -78601.3 0 -1.03716e+06 -80827.7 0 -1.03631e+06 -83066.2 0 -1.03545e+06 -85317.2 0 -1.03456e+06 -87581 0 -1.03365e+06 -89857.9 0 -1.03272e+06 -92148.1 0 -1.03177e+06 -94451.9 0 -1.0308e+06 -96769.7 0 -1.02981e+06 -99101.6 0 -1.02879e+06 -101448 0 -1.02776e+06 -103809 0 -1.02671e+06 -106185 0 -1.02563e+06 -108576 0 -1.02453e+06 -110983 0 -1.02341e+06 -113405 0 -1.02228e+06 -115844 0 -1.02112e+06 -118298 0 -1.01994e+06 -120769 0 -1.01874e+06 -123256 0 -1.01752e+06 -125760 0 -1.01628e+06 -128282 0 -1.01501e+06 -130820 0 -1.01373e+06 -133376 0 -1.01243e+06 -135949 0 -1.01111e+06 -138540 0 -1.00976e+06 -141149 0 -1.0084e+06 -143775 0 -1.00702e+06 -146420 0 -1.00561e+06 -149083 0 -1.00419e+06 -151764 0 -1.00274e+06 -154464 0 -1.00128e+06 -157182 0 -999796 -159919 0 -998292 -162674 0 -996769 -165448 0 -995225 -168241 0 -993662 -171052 0 -992079 -173881 0 -990476 -176730 0 -988854 -179596 0 -987212 -182482 0 -985550 -185385 0 -983868 -188307 0 -982167 -191247 0 -980446 -194205 0 -978705 -197180 0 -976945 -200173 0 -975165 -203184 0 -973365 -206212 0 -971545 -209256 0 -969705 -212317 0 -967846 -215395 0 -965966 -218488 0 -964067 -221597 0 -962147 -224721 0 -960207 -227860 0 -958247 -231013 0 -956267 -234180 0 -954266 -237360 0 -952244 -240554 0 -950201 -243759 0 -948138 -246976 0 -946053 -250204 0 -943947 -253443 0 -941820 -256691 0 -939671 -259949 0 -937500 -263215 0 -935307 -266488 0 -933092 -269768 0 -930854 -273054 0 -928594 -276345 0 -926310 -279641 0 -924004 -282939 0 -921673 -286241 0 -919319 -289543 0 -916941 -292846 0 -914539 -296148 0 -912111 -299449 0 -909659 -302747 0 -907182 -306041 0 -904680 -309330 0 -902151 -312613 0 -899597 -315889 0 -897016 -319156 0 -894409 -322413 0 -891775 -325660 0 -889114 -328894 0 -886427 -332114 0 -883711 -335321 0 -1.05095e+06 0.00461612 0 -1.05094e+06 -1978.72 0 -1.05091e+06 -3957.77 0 -1.05085e+06 -5937.45 0 -1.05078e+06 -7918.08 0 -1.05068e+06 -9899.98 0 -1.05056e+06 -11883.5 0 -1.05042e+06 -13868.9 0 -1.05025e+06 -15856.5 0 -1.05007e+06 -17846.6 0 -1.04986e+06 -19839.6 0 -1.04964e+06 -21835.8 0 -1.04939e+06 -23835.4 0 -1.04911e+06 -25838.9 0 -1.04882e+06 -27846.5 0 -1.04851e+06 -29858.5 0 -1.04817e+06 -31875.3 0 -1.04781e+06 -33897.1 0 -1.04743e+06 -35924.4 0 -1.04703e+06 -37957.3 0 -1.04661e+06 -39996.3 0 -1.04616e+06 -42041.6 0 -1.0457e+06 -44093.6 0 -1.04521e+06 -46152.5 0 -1.0447e+06 -48218.7 0 -1.04417e+06 -50292.6 0 -1.04361e+06 -52374.3 0 -1.04304e+06 -54464.3 0 -1.04244e+06 -56562.8 0 -1.04182e+06 -58670.2 0 -1.04118e+06 -60786.7 0 -1.04052e+06 -62912.8 0 -1.03984e+06 -65048.6 0 -1.03914e+06 -67194.5 0 -1.03841e+06 -69350.8 0 -1.03766e+06 -71517.9 0 -1.03689e+06 -73695.9 0 -1.0361e+06 -75885.3 0 -1.03529e+06 -78086.3 0 -1.03446e+06 -80299.2 0 -1.0336e+06 -82524.3 0 -1.03272e+06 -84761.9 0 -1.03183e+06 -87012.4 0 -1.03091e+06 -89275.9 0 -1.02997e+06 -91552.7 0 -1.029e+06 -93843.2 0 -1.02802e+06 -96147.7 0 -1.02702e+06 -98466.3 0 -1.02599e+06 -100799 0 -1.02494e+06 -103147 0 -1.02388e+06 -105510 0 -1.02279e+06 -107888 0 -1.02168e+06 -110282 0 -1.02055e+06 -112691 0 -1.01939e+06 -115116 0 -1.01822e+06 -117557 0 -1.01703e+06 -120015 0 -1.01581e+06 -122490 0 -1.01458e+06 -124981 0 -1.01332e+06 -127489 0 -1.01205e+06 -130014 0 -1.01075e+06 -132557 0 -1.00943e+06 -135118 0 -1.00809e+06 -137696 0 -1.00673e+06 -140292 0 -1.00535e+06 -142906 0 -1.00396e+06 -145538 0 -1.00254e+06 -148188 0 -1.0011e+06 -150857 0 -999637 -153544 0 -998157 -156249 0 -996657 -158973 0 -995137 -161716 0 -993598 -164477 0 -992038 -167257 0 -990459 -170056 0 -988859 -172873 0 -987240 -175709 0 -985602 -178563 0 -983943 -181436 0 -982265 -184327 0 -980567 -187237 0 -978850 -190164 0 -977113 -193110 0 -975356 -196073 0 -973580 -199054 0 -971784 -202052 0 -969969 -205067 0 -968134 -208100 0 -966279 -211148 0 -964404 -214213 0 -962510 -217294 0 -960596 -220390 0 -958662 -223502 0 -956709 -226628 0 -954735 -229768 0 -952741 -232923 0 -950727 -236090 0 -948692 -239270 0 -946637 -242463 0 -944562 -245667 0 -942466 -248882 0 -940349 -252107 0 -938211 -255342 0 -936052 -258586 0 -933872 -261838 0 -931670 -265097 0 -929446 -268364 0 -927200 -271636 0 -924933 -274913 0 -922643 -278194 0 -920330 -281478 0 -917994 -284764 0 -915635 -288052 0 -913253 -291340 0 -910847 -294627 0 -908418 -297913 0 -905964 -301195 0 -903486 -304473 0 -900983 -307747 0 -898456 -311014 0 -895903 -314273 0 -893324 -317524 0 -890721 -320765 0 -888091 -323994 0 -885435 -327212 0 -882753 -330415 0 -880045 -333605 0 -1.04847e+06 0.00461474 0 -1.04845e+06 -1964.98 0 -1.04842e+06 -3930.27 0 -1.04837e+06 -5896.2 0 -1.04829e+06 -7863.08 0 -1.04819e+06 -9831.24 0 -1.04807e+06 -11801 0 -1.04793e+06 -13772.6 0 -1.04776e+06 -15746.5 0 -1.04758e+06 -17722.9 0 -1.04737e+06 -19702.1 0 -1.04714e+06 -21684.5 0 -1.04688e+06 -23670.5 0 -1.04661e+06 -25660.2 0 -1.04631e+06 -27654 0 -1.04599e+06 -29652.3 0 -1.04565e+06 -31655.3 0 -1.04529e+06 -33663.4 0 -1.04491e+06 -35676.9 0 -1.0445e+06 -37696.1 0 -1.04407e+06 -39721.3 0 -1.04362e+06 -41752.9 0 -1.04315e+06 -43791.1 0 -1.04266e+06 -45836.4 0 -1.04214e+06 -47888.8 0 -1.0416e+06 -49949 0 -1.04104e+06 -52017 0 -1.04046e+06 -54093.2 0 -1.03986e+06 -56178.1 0 -1.03923e+06 -58271.7 0 -1.03858e+06 -60374.6 0 -1.03791e+06 -62486.9 0 -1.03722e+06 -64609.1 0 -1.03651e+06 -66741.3 0 -1.03577e+06 -68884 0 -1.03502e+06 -71037.4 0 -1.03424e+06 -73201.8 0 -1.03344e+06 -75377.6 0 -1.03261e+06 -77565 0 -1.03177e+06 -79764.3 0 -1.03091e+06 -81975.8 0 -1.03002e+06 -84199.9 0 -1.02911e+06 -86436.8 0 -1.02818e+06 -88686.8 0 -1.02723e+06 -90950.1 0 -1.02625e+06 -93227.2 0 -1.02526e+06 -95518.1 0 -1.02424e+06 -97823.3 0 -1.0232e+06 -100143 0 -1.02214e+06 -102477 0 -1.02106e+06 -104827 0 -1.01996e+06 -107192 0 -1.01884e+06 -109572 0 -1.01769e+06 -111968 0 -1.01653e+06 -114380 0 -1.01534e+06 -116808 0 -1.01413e+06 -119253 0 -1.0129e+06 -121714 0 -1.01166e+06 -124192 0 -1.01038e+06 -126687 0 -1.00909e+06 -129200 0 -1.00778e+06 -131729 0 -1.00645e+06 -134277 0 -1.0051e+06 -136842 0 -1.00372e+06 -139425 0 -1.00233e+06 -142026 0 -1.00091e+06 -144645 0 -999477 -147283 0 -998022 -149939 0 -996546 -152613 0 -995051 -155306 0 -993535 -158018 0 -991999 -160748 0 -990443 -163497 0 -988867 -166264 0 -987271 -169050 0 -985656 -171855 0 -984020 -174678 0 -982365 -177520 0 -980691 -180381 0 -978996 -183260 0 -977282 -186157 0 -975549 -189072 0 -973796 -192005 0 -972023 -194956 0 -970231 -197924 0 -968420 -200910 0 -966589 -203913 0 -964738 -206933 0 -962869 -209969 0 -960979 -213022 0 -959070 -216090 0 -957142 -219174 0 -955194 -222273 0 -953226 -225387 0 -951238 -228515 0 -949231 -231657 0 -947204 -234811 0 -945157 -237979 0 -943090 -241159 0 -941003 -244350 0 -938895 -247552 0 -936767 -250764 0 -934619 -253986 0 -932450 -257217 0 -930260 -260455 0 -928049 -263701 0 -925817 -266954 0 -923564 -270212 0 -921289 -273476 0 -918992 -276743 0 -916673 -280013 0 -914332 -283285 0 -911969 -286558 0 -909583 -289832 0 -907174 -293104 0 -904742 -296375 0 -902287 -299642 0 -899808 -302905 0 -897305 -306163 0 -894778 -309415 0 -892227 -312658 0 -889651 -315893 0 -887051 -319118 0 -884425 -322332 0 -881775 -325533 0 -879099 -328721 0 -876397 -331893 0 -1.046e+06 0.00461531 0 -1.04599e+06 -1951.06 0 -1.04596e+06 -3902.44 0 -1.0459e+06 -5854.45 0 -1.04582e+06 -7807.42 0 -1.04572e+06 -9761.65 0 -1.0456e+06 -11717.5 0 -1.04546e+06 -13675.2 0 -1.04529e+06 -15635.1 0 -1.0451e+06 -17597.6 0 -1.04489e+06 -19563 0 -1.04466e+06 -21531.5 0 -1.0444e+06 -23503.5 0 -1.04412e+06 -25479.3 0 -1.04382e+06 -27459.2 0 -1.0435e+06 -29443.5 0 -1.04315e+06 -31432.7 0 -1.04279e+06 -33426.8 0 -1.0424e+06 -35426.4 0 -1.04199e+06 -37431.7 0 -1.04155e+06 -39443 0 -1.0411e+06 -41460.7 0 -1.04062e+06 -43485 0 -1.04012e+06 -45516.3 0 -1.0396e+06 -47554.9 0 -1.03905e+06 -49601.2 0 -1.03849e+06 -51655.3 0 -1.0379e+06 -53717.7 0 -1.03729e+06 -55788.6 0 -1.03665e+06 -57868.4 0 -1.036e+06 -59957.4 0 -1.03532e+06 -62055.9 0 -1.03462e+06 -64164.2 0 -1.0339e+06 -66282.7 0 -1.03315e+06 -68411.5 0 -1.03239e+06 -70551.1 0 -1.0316e+06 -72701.7 0 -1.03079e+06 -74863.7 0 -1.02996e+06 -77037.3 0 -1.0291e+06 -79222.9 0 -1.02823e+06 -81420.7 0 -1.02733e+06 -83631.1 0 -1.02641e+06 -85854.2 0 -1.02547e+06 -88090.6 0 -1.0245e+06 -90340.3 0 -1.02352e+06 -92603.7 0 -1.02251e+06 -94881.1 0 -1.02148e+06 -97172.7 0 -1.02043e+06 -99478.8 0 -1.01936e+06 -101800 0 -1.01827e+06 -104136 0 -1.01715e+06 -106487 0 -1.01602e+06 -108854 0 -1.01486e+06 -111236 0 -1.01368e+06 -113635 0 -1.01248e+06 -116050 0 -1.01126e+06 -118481 0 -1.01001e+06 -120929 0 -1.00875e+06 -123394 0 -1.00746e+06 -125876 0 -1.00616e+06 -128375 0 -1.00483e+06 -130892 0 -1.00348e+06 -133426 0 -1.00212e+06 -135979 0 -1.00073e+06 -138549 0 -999317 -141137 0 -997886 -143743 0 -996435 -146368 0 -994964 -149011 0 -993472 -151673 0 -991961 -154353 0 -990429 -157052 0 -988876 -159769 0 -987304 -162506 0 -985712 -165260 0 -984100 -168034 0 -982468 -170826 0 -980817 -173637 0 -979145 -176467 0 -977454 -179315 0 -975744 -182181 0 -974014 -185066 0 -972264 -187969 0 -970495 -190890 0 -968707 -193829 0 -966899 -196785 0 -965072 -199759 0 -963225 -202749 0 -961359 -205757 0 -959474 -208781 0 -957570 -211822 0 -955646 -214878 0 -953703 -217949 0 -951741 -221036 0 -949759 -224138 0 -947758 -227253 0 -945738 -230382 0 -943698 -233525 0 -941638 -236680 0 -939559 -239847 0 -937460 -243026 0 -935341 -246215 0 -933202 -249415 0 -931043 -252624 0 -928864 -255841 0 -926665 -259067 0 -924445 -262300 0 -922205 -265539 0 -919944 -268784 0 -917662 -272034 0 -915358 -275288 0 -913034 -278544 0 -910688 -281803 0 -908320 -285062 0 -905930 -288321 0 -903518 -291579 0 -901084 -294835 0 -898627 -298088 0 -896147 -301337 0 -893645 -304580 0 -891119 -307816 0 -888570 -311045 0 -885996 -314265 0 -883399 -317474 0 -880778 -320672 0 -878133 -323858 0 -875463 -327030 0 -872769 -330186 0 -1.04355e+06 0.00461474 0 -1.04354e+06 -1936.97 0 -1.04351e+06 -3874.27 0 -1.04345e+06 -5812.2 0 -1.04337e+06 -7751.08 0 -1.04327e+06 -9691.23 0 -1.04315e+06 -11633 0 -1.043e+06 -13576.6 0 -1.04283e+06 -15522.5 0 -1.04264e+06 -17470.9 0 -1.04243e+06 -19422.1 0 -1.04219e+06 -21376.5 0 -1.04193e+06 -23334.4 0 -1.04165e+06 -25296.2 0 -1.04135e+06 -27262 0 -1.04102e+06 -29232.3 0 -1.04067e+06 -31207.3 0 -1.0403e+06 -33187.4 0 -1.03991e+06 -35172.9 0 -1.03949e+06 -37164.1 0 -1.03905e+06 -39161.4 0 -1.03859e+06 -41165 0 -1.03811e+06 -43175.2 0 -1.0376e+06 -45192.5 0 -1.03707e+06 -47217 0 -1.03652e+06 -49249.2 0 -1.03595e+06 -51289.3 0 -1.03535e+06 -53337.6 0 -1.03473e+06 -55394.5 0 -1.03409e+06 -57460.3 0 -1.03343e+06 -59535.3 0 -1.03274e+06 -61619.7 0 -1.03203e+06 -63714 0 -1.0313e+06 -65818.5 0 -1.03055e+06 -67933.3 0 -1.02978e+06 -70058.9 0 -1.02898e+06 -72195.6 0 -1.02816e+06 -74343.6 0 -1.02732e+06 -76503.3 0 -1.02645e+06 -78675 0 -1.02557e+06 -80858.9 0 -1.02466e+06 -83055.4 0 -1.02373e+06 -85264.8 0 -1.02277e+06 -87487.2 0 -1.0218e+06 -89723.2 0 -1.0208e+06 -91972.8 0 -1.01978e+06 -94236.4 0 -1.01874e+06 -96514.3 0 -1.01768e+06 -98806.8 0 -1.0166e+06 -101114 0 -1.01549e+06 -103436 0 -1.01436e+06 -105774 0 -1.01321e+06 -108127 0 -1.01204e+06 -110496 0 -1.01085e+06 -112881 0 -1.00963e+06 -115283 0 -1.0084e+06 -117701 0 -1.00714e+06 -120135 0 -1.00586e+06 -122587 0 -1.00456e+06 -125056 0 -1.00324e+06 -127542 0 -1.0019e+06 -130045 0 -1.00054e+06 -132566 0 -999153 -135106 0 -997748 -137663 0 -996323 -140238 0 -994877 -142831 0 -993410 -145443 0 -991923 -148073 0 -990415 -150722 0 -988887 -153390 0 -987339 -156076 0 -985771 -158781 0 -984182 -161504 0 -982574 -164247 0 -980945 -167008 0 -979297 -169788 0 -977629 -172586 0 -975942 -175403 0 -974234 -178239 0 -972508 -181093 0 -970761 -183966 0 -968995 -186856 0 -967210 -189765 0 -965406 -192692 0 -963582 -195636 0 -961740 -198597 0 -959878 -201576 0 -957996 -204571 0 -956096 -207583 0 -954177 -210612 0 -952238 -213656 0 -950281 -216715 0 -948304 -219790 0 -946309 -222879 0 -944294 -225983 0 -942260 -229100 0 -940207 -232230 0 -938135 -235373 0 -936044 -238528 0 -933933 -241694 0 -931803 -244871 0 -929653 -248058 0 -927484 -251255 0 -925295 -254460 0 -923086 -257673 0 -920858 -260893 0 -918609 -264120 0 -916340 -267352 0 -914051 -270589 0 -911741 -273829 0 -909411 -277072 0 -907060 -280317 0 -904688 -283563 0 -902294 -286809 0 -899880 -290053 0 -897443 -293295 0 -894985 -296534 0 -892505 -299768 0 -890002 -302997 0 -887477 -306219 0 -884930 -309433 0 -882359 -312638 0 -879766 -315833 0 -877150 -319016 0 -874510 -322187 0 -871846 -325343 0 -869159 -328484 0 -1.04112e+06 0.00461421 0 -1.04111e+06 -1922.72 0 -1.04108e+06 -3845.77 0 -1.04102e+06 -5769.45 0 -1.04094e+06 -7694.08 0 -1.04084e+06 -9619.98 0 -1.04071e+06 -11547.5 0 -1.04056e+06 -13476.9 0 -1.04039e+06 -15408.5 0 -1.0402e+06 -17342.6 0 -1.03998e+06 -19279.6 0 -1.03974e+06 -21219.8 0 -1.03948e+06 -23163.4 0 -1.0392e+06 -25110.9 0 -1.03889e+06 -27062.5 0 -1.03856e+06 -29018.5 0 -1.03821e+06 -30979.3 0 -1.03783e+06 -32945.1 0 -1.03743e+06 -34916.4 0 -1.03701e+06 -36893.4 0 -1.03657e+06 -38876.4 0 -1.0361e+06 -40865.7 0 -1.03561e+06 -42861.8 0 -1.0351e+06 -44864.8 0 -1.03457e+06 -46875.1 0 -1.03401e+06 -48893 0 -1.03343e+06 -50918.9 0 -1.03282e+06 -52953 0 -1.0322e+06 -54995.7 0 -1.03155e+06 -57047.3 0 -1.03088e+06 -59108 0 -1.03018e+06 -61178.3 0 -1.02947e+06 -63258.5 0 -1.02873e+06 -65348.7 0 -1.02797e+06 -67449.5 0 -1.02718e+06 -69560.9 0 -1.02638e+06 -71683.5 0 -1.02555e+06 -73817.4 0 -1.0247e+06 -75963 0 -1.02382e+06 -78120.6 0 -1.02292e+06 -80290.5 0 -1.022e+06 -82473 0 -1.02106e+06 -84668.3 0 -1.0201e+06 -86876.8 0 -1.01911e+06 -89098.8 0 -1.0181e+06 -91334.5 0 -1.01707e+06 -93584.2 0 -1.01602e+06 -95848.2 0 -1.01495e+06 -98126.8 0 -1.01385e+06 -100420 0 -1.01273e+06 -102729 0 -1.01159e+06 -105053 0 -1.01042e+06 -107392 0 -1.00924e+06 -109748 0 -1.00803e+06 -112119 0 -1.00681e+06 -114507 0 -1.00556e+06 -116911 0 -1.00428e+06 -119333 0 -1.00299e+06 -121771 0 -1.00168e+06 -124226 0 -1.00034e+06 -126699 0 -998984 -129189 0 -997606 -131697 0 -996207 -134223 0 -994787 -136767 0 -993346 -139329 0 -991884 -141909 0 -990401 -144508 0 -988898 -147126 0 -987375 -149761 0 -985831 -152416 0 -984266 -155090 0 -982682 -157782 0 -981077 -160493 0 -979452 -163222 0 -977807 -165971 0 -976143 -168738 0 -974458 -171525 0 -972754 -174329 0 -971031 -177153 0 -969288 -179995 0 -967525 -182855 0 -965743 -185733 0 -963942 -188630 0 -962122 -191544 0 -960282 -194476 0 -958424 -197426 0 -956546 -200393 0 -954649 -203376 0 -952734 -206376 0 -950800 -209393 0 -948847 -212425 0 -946875 -215472 0 -944884 -218535 0 -942874 -221613 0 -940846 -224704 0 -938799 -227809 0 -936733 -230928 0 -934648 -234058 0 -932545 -237201 0 -930422 -240355 0 -928281 -243520 0 -926120 -246695 0 -923941 -249880 0 -921742 -253073 0 -919524 -256273 0 -917287 -259481 0 -915030 -262695 0 -912753 -265915 0 -910457 -269139 0 -908141 -272366 0 -905805 -275597 0 -903449 -278829 0 -901073 -282061 0 -898676 -285294 0 -896258 -288525 0 -893819 -291754 0 -891360 -294979 0 -888879 -298200 0 -886377 -301415 0 -883853 -304623 0 -881307 -307823 0 -878740 -311014 0 -876150 -314194 0 -873538 -317363 0 -870904 -320519 0 -868247 -323661 0 -865566 -326787 0 -1.03871e+06 0.00461349 0 -1.0387e+06 -1908.31 0 -1.03866e+06 -3816.93 0 -1.03861e+06 -5726.19 0 -1.03853e+06 -7636.4 0 -1.03842e+06 -9547.88 0 -1.0383e+06 -11460.9 0 -1.03815e+06 -13375.9 0 -1.03797e+06 -15293.1 0 -1.03778e+06 -17212.8 0 -1.03756e+06 -19135.4 0 -1.03732e+06 -21061.2 0 -1.03705e+06 -22990.4 0 -1.03676e+06 -24923.4 0 -1.03645e+06 -26860.6 0 -1.03612e+06 -28802.2 0 -1.03576e+06 -30748.6 0 -1.03538e+06 -32700 0 -1.03498e+06 -34656.9 0 -1.03455e+06 -36619.4 0 -1.0341e+06 -38588 0 -1.03363e+06 -40563 0 -1.03314e+06 -42544.6 0 -1.03262e+06 -44533.2 0 -1.03208e+06 -46529.1 0 -1.03151e+06 -48532.6 0 -1.03093e+06 -50544.1 0 -1.03032e+06 -52563.8 0 -1.02968e+06 -54592.2 0 -1.02903e+06 -56629.4 0 -1.02835e+06 -58675.8 0 -1.02764e+06 -60731.8 0 -1.02692e+06 -62797.5 0 -1.02617e+06 -64873.5 0 -1.0254e+06 -66959.9 0 -1.02461e+06 -69057.1 0 -1.02379e+06 -71165.4 0 -1.02295e+06 -73285 0 -1.02209e+06 -75416.4 0 -1.02121e+06 -77559.8 0 -1.0203e+06 -79715.4 0 -1.01937e+06 -81883.7 0 -1.01842e+06 -84064.9 0 -1.01744e+06 -86259.2 0 -1.01644e+06 -88467.1 0 -1.01542e+06 -90688.7 0 -1.01438e+06 -92924.4 0 -1.01332e+06 -95174.4 0 -1.01223e+06 -97439 0 -1.01112e+06 -99718.5 0 -1.00999e+06 -102013 0 -1.00883e+06 -104323 0 -1.00766e+06 -106649 0 -1.00646e+06 -108991 0 -1.00524e+06 -111348 0 -1.00399e+06 -113722 0 -1.00273e+06 -116113 0 -1.00144e+06 -118521 0 -1.00014e+06 -120945 0 -998808 -123387 0 -997458 -125846 0 -996086 -128323 0 -994692 -130818 0 -993278 -133330 0 -991842 -135861 0 -990386 -138410 0 -988908 -140977 0 -987410 -143563 0 -985891 -146168 0 -984351 -148791 0 -982791 -151432 0 -981210 -154093 0 -979609 -156772 0 -977988 -159471 0 -976347 -162188 0 -974686 -164924 0 -973005 -167679 0 -971304 -170453 0 -969584 -173245 0 -967844 -176056 0 -966084 -178886 0 -964305 -181734 0 -962507 -184600 0 -960690 -187485 0 -958853 -190387 0 -956998 -193307 0 -955124 -196245 0 -953231 -199200 0 -951319 -202171 0 -949388 -205160 0 -947439 -208164 0 -945471 -211185 0 -943484 -214220 0 -941479 -217271 0 -939456 -220337 0 -937414 -223417 0 -935353 -226510 0 -933275 -229617 0 -931177 -232736 0 -929062 -235867 0 -926927 -239009 0 -924775 -242163 0 -922603 -245326 0 -920413 -248498 0 -918205 -251679 0 -915978 -254868 0 -913732 -258064 0 -911467 -261266 0 -909183 -264473 0 -906880 -267685 0 -904557 -270900 0 -902216 -274118 0 -899854 -277337 0 -897474 -280557 0 -895073 -283777 0 -892653 -286995 0 -890212 -290211 0 -887751 -293423 0 -885270 -296631 0 -882768 -299833 0 -880246 -303027 0 -877702 -306214 0 -875138 -309391 0 -872552 -312558 0 -869944 -315713 0 -867315 -318855 0 -864665 -321983 0 -861992 -325095 0 -1.03632e+06 0.00461329 0 -1.0363e+06 -1893.72 0 -1.03627e+06 -3787.76 0 -1.03621e+06 -5682.43 0 -1.03613e+06 -7578.06 0 -1.03603e+06 -9474.95 0 -1.0359e+06 -11373.4 0 -1.03575e+06 -13273.8 0 -1.03557e+06 -15176.4 0 -1.03537e+06 -17081.6 0 -1.03515e+06 -18989.5 0 -1.03491e+06 -20900.7 0 -1.03464e+06 -22815.3 0 -1.03435e+06 -24733.8 0 -1.03403e+06 -26656.4 0 -1.0337e+06 -28583.4 0 -1.03333e+06 -30515.2 0 -1.03295e+06 -32452 0 -1.03254e+06 -34394.3 0 -1.03211e+06 -36342.3 0 -1.03166e+06 -38296.3 0 -1.03118e+06 -40256.7 0 -1.03068e+06 -42223.7 0 -1.03015e+06 -44197.7 0 -1.02961e+06 -46179.1 0 -1.02904e+06 -48168.1 0 -1.02844e+06 -50165 0 -1.02782e+06 -52170.2 0 -1.02718e+06 -54184 0 -1.02652e+06 -56206.6 0 -1.02583e+06 -58238.5 0 -1.02512e+06 -60280 0 -1.02439e+06 -62331.3 0 -1.02363e+06 -64392.7 0 -1.02285e+06 -66464.6 0 -1.02205e+06 -68547.4 0 -1.02123e+06 -70641.2 0 -1.02038e+06 -72746.4 0 -1.0195e+06 -74863.4 0 -1.01861e+06 -76992.4 0 -1.01769e+06 -79133.7 0 -1.01675e+06 -81287.6 0 -1.01579e+06 -83454.5 0 -1.0148e+06 -85634.5 0 -1.01379e+06 -87828.1 0 -1.01276e+06 -90035.5 0 -1.01171e+06 -92257 0 -1.01063e+06 -94492.9 0 -1.00953e+06 -96743.3 0 -1.00841e+06 -99008.8 0 -1.00726e+06 -101289 0 -1.00609e+06 -103585 0 -1.0049e+06 -105897 0 -1.00369e+06 -108225 0 -1.00246e+06 -110569 0 -1.0012e+06 -112929 0 -999923 -115306 0 -998623 -117700 0 -997301 -120111 0 -995957 -122539 0 -994592 -124985 0 -993205 -127448 0 -991796 -129929 0 -990366 -132428 0 -988915 -134946 0 -987443 -137481 0 -985950 -140036 0 -984435 -142608 0 -982900 -145200 0 -981344 -147810 0 -979768 -150439 0 -978171 -153086 0 -976554 -155753 0 -974916 -158439 0 -973259 -161143 0 -971581 -163867 0 -969884 -166609 0 -968166 -169370 0 -966429 -172151 0 -964673 -174949 0 -962897 -177767 0 -961102 -180603 0 -959287 -183457 0 -957454 -186329 0 -955602 -189220 0 -953730 -192128 0 -951840 -195054 0 -949931 -197997 0 -948004 -200957 0 -946058 -203933 0 -944094 -206926 0 -942111 -209935 0 -940110 -212959 0 -938091 -215999 0 -936053 -219053 0 -933998 -222121 0 -931924 -225203 0 -929832 -228298 0 -927722 -231406 0 -925594 -234525 0 -923448 -237656 0 -921284 -240798 0 -919102 -243949 0 -916902 -247110 0 -914684 -250280 0 -912447 -253457 0 -910193 -256641 0 -907919 -259831 0 -905628 -263027 0 -903318 -266226 0 -900989 -269430 0 -898642 -272636 0 -896276 -275843 0 -893891 -279051 0 -891487 -282258 0 -889064 -285464 0 -886621 -288668 0 -884159 -291867 0 -881678 -295062 0 -879176 -298251 0 -876655 -301433 0 -874114 -304607 0 -871552 -307771 0 -868970 -310924 0 -866367 -314066 0 -863744 -317195 0 -861100 -320309 0 -858434 -323408 0 -1.03394e+06 0.00461148 0 -1.03393e+06 -1878.97 0 -1.03389e+06 -3758.25 0 -1.03383e+06 -5638.17 0 -1.03375e+06 -7519.04 0 -1.03365e+06 -9401.18 0 -1.03352e+06 -11284.9 0 -1.03336e+06 -13170.5 0 -1.03319e+06 -15058.4 0 -1.03299e+06 -16948.8 0 -1.03276e+06 -18842 0 -1.03252e+06 -20738.4 0 -1.03224e+06 -22638.3 0 -1.03195e+06 -24542 0 -1.03163e+06 -26449.8 0 -1.03129e+06 -28362.1 0 -1.03092e+06 -30279.1 0 -1.03054e+06 -32201.2 0 -1.03012e+06 -34128.7 0 -1.02969e+06 -36062 0 -1.02923e+06 -38001.2 0 -1.02874e+06 -39946.8 0 -1.02824e+06 -41899.1 0 -1.02771e+06 -43858.4 0 -1.02715e+06 -45825 0 -1.02658e+06 -47799.3 0 -1.02598e+06 -49781.5 0 -1.02535e+06 -51772 0 -1.0247e+06 -53771 0 -1.02403e+06 -55779 0 -1.02334e+06 -57796.2 0 -1.02262e+06 -59823 0 -1.02188e+06 -61859.6 0 -1.02111e+06 -63906.4 0 -1.02032e+06 -65963.7 0 -1.01951e+06 -68031.8 0 -1.01868e+06 -70111 0 -1.01782e+06 -72201.6 0 -1.01694e+06 -74304 0 -1.01603e+06 -76418.5 0 -1.0151e+06 -78545.2 0 -1.01415e+06 -80684.7 0 -1.01318e+06 -82837 0 -1.01218e+06 -85002.7 0 -1.01116e+06 -87181.9 0 -1.01012e+06 -89374.9 0 -1.00905e+06 -91582 0 -1.00796e+06 -93803.5 0 -1.00685e+06 -96039.7 0 -1.00571e+06 -98290.9 0 -1.00455e+06 -100557 0 -1.00337e+06 -102839 0 -1.00217e+06 -105137 0 -1.00094e+06 -107450 0 -999697 -109780 0 -998426 -112127 0 -997134 -114490 0 -995819 -116870 0 -994483 -119267 0 -993124 -121681 0 -991744 -124113 0 -990342 -126563 0 -988918 -129031 0 -987472 -131516 0 -986006 -134020 0 -984518 -136543 0 -983009 -139084 0 -981478 -141643 0 -979927 -144221 0 -978355 -146818 0 -976762 -149434 0 -975149 -152069 0 -973515 -154723 0 -971861 -157396 0 -970187 -160088 0 -968493 -162799 0 -966779 -165529 0 -965045 -168278 0 -963292 -171046 0 -961519 -173832 0 -959726 -176637 0 -957915 -179461 0 -956084 -182304 0 -954234 -185164 0 -952366 -188043 0 -950479 -190939 0 -948573 -193853 0 -946648 -196784 0 -944705 -199733 0 -942744 -202698 0 -940765 -205679 0 -938767 -208676 0 -936751 -211689 0 -934718 -214717 0 -932666 -217760 0 -930597 -220817 0 -928510 -223888 0 -926405 -226971 0 -924283 -230068 0 -922143 -233176 0 -919985 -236296 0 -917810 -239426 0 -915617 -242566 0 -913407 -245716 0 -911178 -248874 0 -908933 -252040 0 -906669 -255213 0 -904388 -258392 0 -902089 -261576 0 -899772 -264764 0 -897437 -267956 0 -895085 -271150 0 -892714 -274346 0 -890325 -277542 0 -887917 -280738 0 -885491 -283932 0 -883047 -287123 0 -880584 -290311 0 -878102 -293494 0 -875601 -296670 0 -873081 -299840 0 -870542 -303001 0 -867983 -306153 0 -865405 -309293 0 -862807 -312422 0 -860189 -315538 0 -857551 -318640 0 -854894 -321725 0 -1.03158e+06 0.00461018 0 -1.03157e+06 -1864.05 0 -1.03154e+06 -3728.41 0 -1.03148e+06 -5593.41 0 -1.03139e+06 -7459.36 0 -1.03129e+06 -9326.58 0 -1.03116e+06 -11195.4 0 -1.031e+06 -13066.1 0 -1.03082e+06 -14939 0 -1.03062e+06 -16814.5 0 -1.03039e+06 -18692.8 0 -1.03014e+06 -20574.3 0 -1.02987e+06 -22459.2 0 -1.02957e+06 -24348 0 -1.02925e+06 -26240.9 0 -1.0289e+06 -28138.3 0 -1.02853e+06 -30040.4 0 -1.02814e+06 -31947.5 0 -1.02772e+06 -33860.1 0 -1.02728e+06 -35778.4 0 -1.02682e+06 -37