<?xml version="1.0"?> 
<VTKFile type="StructuredGrid" version="0.1"> 
<StructuredGrid WholeExtent="0 127 0 127 0 0"> 
<Piece Extent="0 127 0 127 0 0"> 
<PointData>
<DataArray type="Float32" Name="E" format="ascii" NumberOfComponents="3"> 
740540 -0.00597517 0 740497 6600.53 0 740370 13201.2 0 740158 19802.1 0 739860 26403.3 0 739478 33005 0 739010 39607.3 0 738456 46210.2 0 737817 52813.9 0 737091 59418.5 0 736279 66024 0 735380 72630.6 0 734394 79238.3 0 733320 85847.2 0 732158 92457.3 0 730907 99068.7 0 729566 105681 0 728135 112296 0 726614 118911 0 725001 125528 0 723296 132146 0 721498 138765 0 719606 145386 0 717619 152008 0 715536 158631 0 713357 165254 0 711079 171879 0 708703 178504 0 706227 185130 0 703649 191756 0 700969 198382 0 698185 205008 0 695295 211633 0 692299 218257 0 689195 224880 0 685982 231501 0 682657 238120 0 679219 244736 0 675667 251348 0 671999 257957 0 668212 264562 0 664306 271161 0 660278 277753 0 656125 284339 0 651847 290918 0 647441 297487 0 642904 304046 0 638235 310595 0 633431 317131 0 628490 323654 0 623409 330162 0 618185 336653 0 612817 343127 0 607302 349580 0 601636 356012 0 595817 362421 0 589842 368804 0 583709 375160 0 577413 381485 0 570953 387777 0 564325 394035 0 557525 400254 0 550551 406432 0 543399 412565 0 536066 418650 0 528548 424685 0 520843 430663 0 512946 436583 0 504853 442438 0 496562 448225 0 488069 453939 0 479370 459574 0 470461 465126 0 461339 470587 0 452001 475953 0 442442 481216 0 432659 486370 0 422649 491408 0 412409 496321 0 401934 501101 0 391222 505741 0 380270 510230 0 369075 514560 0 357634 518719 0 345945 522699 0 334005 526486 0 321814 530070 0 309369 533438 0 296669 536577 0 283714 539473 0 270504 542112 0 257039 544479 0 243321 546558 0 229351 548332 0 215132 549784 0 200667 550896 0 185963 551650 0 171023 552025 0 155856 552002 0 140469 551559 0 124873 550675 0 109080 549327 0 93101.2 547492 0 76953.4 545147 0 60653.4 542268 0 44221 538830 0 27678.2 534807 0 11049.6 530176 0 -5637.11 524910 0 -22351.5 518985 0 -39059.7 512375 0 -55724.6 505056 0 -72305.3 497005 0 -88757.3 488197 0 -105032 478610 0 -121076 468223 0 -136833 457017 0 -152242 444973 0 -167235 432072 0 -181742 418297 0 -195687 403631 0 -208990 388053 0 -221560 371534 0 -233306 354037 0 -244145 335477 0 -253924 315716 0 -263255 294474 0 -269885 269885 0 729796 -0.00116153 0 729753 6573.12 0 729624 13146.3 0 729409 19719.7 0 729107 26293.3 0 728719 32867.3 0 728244 39441.7 0 727683 46016.5 0 727035 52592 0 726299 59168 0 725475 65744.7 0 724563 72322.2 0 723563 78900.4 0 722474 85479.4 0 721295 92059.3 0 720027 98640 0 718667 105221 0 717216 111804 0 715674 118387 0 714038 124971 0 712309 131555 0 710486 138141 0 708567 144726 0 706553 151312 0 704441 157899 0 702231 164485 0 699922 171071 0 697513 177657 0 695003 184243 0 692390 190828 0 689673 197411 0 686851 203993 0 683922 210574 0 680886 217152 0 677740 223727 0 674483 230299 0 671114 236868 0 667631 243432 0 664031 249991 0 660315 256545 0 656478 263093 0 652521 269633 0 648440 276165 0 644235 282689 0 639902 289202 0 635439 295704 0 630845 302195 0 626118 308672 0 621254 315134 0 616252 321580 0 611109 328009 0 605822 334418 0 600390 340806 0 594809 347172 0 589077 353513 0 583191 359827 0 577148 366112 0 570945 372365 0 564579 378585 0 558048 384768 0 551349 390912 0 544477 397013 0 537431 403068 0 530206 409075 0 522800 415028 0 515209 420926 0 507430 426762 0 499460 432534 0 491295 438236 0 482932 443864 0 474367 449413 0 465597 454877 0 456619 460250 0 447429 465526 0 438024 470700 0 428400 475764 0 418555 480711 0 408486 485533 0 398188 490222 0 387660 494771 0 376899 499170 0 365902 503410 0 354667 507480 0 343192 511372 0 331475 515073 0 319514 518571 0 307309 521856 0 294858 524915 0 282162 527733 0 269220 530298 0 256035 532594 0 242607 534607 0 228938 536320 0 215032 537716 0 200893 538779 0 186526 539491 0 171937 539833 0 157133 539785 0 142123 539327 0 126917 538439 0 111527 537100 0 95966.8 535288 0 80250.9 532980 0 64397.1 530155 0 48424.8 526788 0 32356.1 522856 0 16215.5 518337 0 30.1025 513207 0 -16169.9 507443 0 -32351.3 501021 0 -48477.6 493919 0 -64508.8 486117 0 -80401.2 477592 0 -96107.2 468325 0 -111575 458299 0 -126749 447494 0 -141569 435897 0 -155968 423493 0 -169877 410268 0 -183218 396210 0 -195908 381304 0 -207850 365533 0 -218939 348869 0 -229046 331265 0 -237970 312635 0 -245460 292842 0 -250237 271588 0 -250106 250106 0 719166 -0.000875029 0 719123 6544.73 0 718992 13089.5 0 718773 19634.4 0 718468 26179.5 0 718074 32724.7 0 717593 39270.2 0 717024 45816.1 0 716367 52362.2 0 715621 58908.7 0 714786 65455.6 0 713862 72003 0 712848 78550.7 0 711744 85098.8 0 710549 91647.4 0 709263 98196.3 0 707885 104746 0 706415 111295 0 704851 117845 0 703194 124395 0 701441 130945 0 699593 137494 0 697649 144044 0 695608 150593 0 693468 157142 0 691228 163690 0 688889 170237 0 686448 176782 0 683904 183326 0 681257 189868 0 678504 196408 0 675645 202946 0 672678 209480 0 669603 216010 0 666416 222537 0 663117 229059 0 659705 235576 0 656177 242087 0 652532 248592 0 648769 255089 0 644884 261578 0 640878 268058 0 636746 274528 0 632489 280987 0 628103 287435 0 623587 293869 0 618938 300288 0 614154 306692 0 609232 313078 0 604172 319446 0 598969 325794 0 593622 332119 0 588128 338420 0 582485 344696 0 576689 350944 0 570739 357161 0 564631 363346 0 558363 369496 0 551931 375608 0 545333 381679 0 538566 387707 0 531627 393688 0 524512 399620 0 517220 405497 0 509745 411317 0 502087 417075 0 494240 422767 0 486202 428390 0 477970 433937 0 469541 439404 0 460911 444785 0 452078 450075 0 443037 455268 0 433787 460358 0 424324 465338 0 414644 470200 0 404746 474938 0 394626 479544 0 384282 484009 0 373712 488325 0 362913 492483 0 351882 496472 0 340620 500283 0 329123 503906 0 317391 507329 0 305422 510540 0 293218 513527 0 280777 516277 0 268101 518777 0 255190 521013 0 242047 522970 0 228674 524632 0 215075 525984 0 201254 527010 0 187217 527691 0 172969 528010 0 158518 527949 0 143874 527489 0 129046 526610 0 114047 525291 0 98889.9 523513 0 83590.1 521255 0 68165.1 518494 0 52634.3 515210 0 37019.3 511381 0 21344.5 506985 0 5636.54 502001 0 -10074.9 496407 0 -25757.3 490182 0 -41375 483306 0 -56888.8 475760 0 -72256.2 467524 0 -87430.9 458583 0 -102362 448919 0 -116996 438519 0 -131274 427370 0 -145130 415462 0 -158496 402786 0 -171295 389334 0 -183442 375099 0 -194842 360075 0 -205380 344254 0 -214918 327622 0 -223248 310166 0 -230072 291898 0 -234759 272929 0 -236610 254008 0 -236442 236442 0 708650 -0.000312508 0 708606 6515.4 0 708473 13030.8 0 708252 19546.3 0 707942 26061.8 0 707544 32577.4 0 707057 39093.1 0 706480 45608.9 0 705814 52124.9 0 705058 58640.9 0 704212 65157 0 703276 71673.2 0 702249 78189.5 0 701130 84705.7 0 699920 91222 0 698617 97738.1 0 697221 104254 0 695731 110770 0 694147 117285 0 692468 123800 0 690693 130314 0 688821 136828 0 686852 143340 0 684784 149851 0 682616 156361 0 680349 162869 0 677979 169376 0 675507 175880 0 672931 182381 0 670250 188879 0 667463 195374 0 664568 201866 0 661564 208353 0 658450 214835 0 655224 221311 0 651885 227782 0 648430 234246 0 644860 240702 0 641171 247150 0 637362 253590 0 633431 260019 0 629376 266438 0 625197 272844 0 620889 279238 0 616452 285617 0 611884 291981 0 607182 298328 0 602344 304657 0 597367 310966 0 592251 317254 0 586991 323519 0 581586 329759 0 576034 335971 0 570331 342155 0 564475 348308 0 558464 354427 0 552294 360510 0 545964 366554 0 539470 372557 0 532809 378515 0 525979 384425 0 518976 390285 0 511798 396090 0 504442 401836 0 496905 407520 0 489183 413138 0 481275 418684 0 473175 424155 0 464883 429545 0 456394 434849 0 447706 440062 0 438816 445177 0 429721 450188 0 420418 455090 0 410904 459874 0 401178 464534 0 391235 469062 0 381075 473451 0 370694 477690 0 360092 481773 0 349265 485689 0 338214 489428 0 326935 492980 0 315430 496334 0 303696 499480 0 291735 502404 0 279546 505096 0 267130 507540 0 254490 509725 0 241627 511636 0 228544 513257 0 215245 514575 0 201735 515573 0 188018 516234 0 174103 516542 0 159995 516478 0 145706 516026 0 131245 515166 0 116623 513879 0 101855 512145 0 86956 509946 0 71943 507261 0 56835.3 504070 0 41654.4 500353 0 26424 496089 0 11170.6 491259 0 -4077.09 485843 0 -19287.1 479822 0 -34424.7 473178 0 -49451.8 465893 0 -64327.1 457950 0 -79005.5 449336 0 -93438.4 440036 0 -107573 430039 0 -121352 419336 0 -134712 407919 0 -147588 395784 0 -159903 382928 0 -171576 369353 0 -182512 355062 0 -192602 340063 0 -201710 324371 0 -209660 308017 0 -216211 291082 0 -221028 273750 0 -223824 256486 0 -224851 239949 0 -224449 224449 0 698248 0.000128429 0 698203 6485.15 0 698069 12970.3 0 697845 19455.4 0 697531 25940.5 0 697128 32425.5 0 696634 38910.5 0 696050 45395.4 0 695376 51880.1 0 694610 58364.7 0 693754 64849.1 0 692806 71333.3 0 691765 77817.1 0 690633 84300.5 0 689407 90783.5 0 688088 97265.8 0 686674 103748 0 685166 110228 0 683562 116708 0 681862 123187 0 680064 129665 0 678169 136141 0 676175 142615 0 674082 149087 0 671888 155557 0 669592 162024 0 667193 168489 0 664691 174950 0 662084 181408 0 659370 187861 0 656549 194310 0 653620 200754 0 650580 207193 0 647429 213625 0 644164 220050 0 640786 226468 0 637291 232878 0 633679 239279 0 629947 245669 0 626094 252049 0 622118 258418 0 618018 264773 0 613791 271115 0 609436 277441 0 604950 283751 0 600332 290044 0 595579 296317 0 590689 302570 0 585660 308800 0 580490 315006 0 575176 321187 0 569716 327339 0 564107 333462 0 558348 339552 0 552435 345608 0 546366 351627 0 540139 357607 0 533750 363544 0 527197 369435 0 520477 375279 0 513588 381070 0 506527 386806 0 499290 392483 0 491876 398096 0 484280 403643 0 476501 409118 0 468536 414517 0 460381 419835 0 452034 425067 0 443493 430206 0 434753 435249 0 425814 440187 0 416671 445016 0 407323 449728 0 397768 454316 0 388003 458773 0 378025 463091 0 367834 467261 0 357427 471275 0 346802 475124 0 335960 478798 0 324898 482288 0 313616 485582 0 302114 488669 0 290393 491539 0 278452 494180 0 266293 496577 0 253918 498720 0 241330 500593 0 228531 502183 0 215525 503476 0 202318 504455 0 188915 505106 0 175322 505411 0 161549 505355 0 147603 504920 0 133496 504088 0 119240 502842 0 104847 501163 0 90333.3 499032 0 75715.9 496431 0 61013.7 493342 0 46247.8 489744 0 31441.4 485620 0 16620.4 480951 0 1812.86 475719 0 -12950.1 469907 0 -27634.7 463498 0 -42204.1 456477 0 -56618.3 448829 0 -70833.8 440541 0 -84803.5 431603 0 -98476.5 422005 0 -111798 411741 0 -124707 400807 0 -137140 389202 0 -149026 376928 0 -160284 363993 0 -170828 350408 0 -180556 336194 0 -189346 321383 0 -197054 306031 0 -203504 290236 0 -208496 274178 0 -211889 258168 0 -213765 242603 0 -214324 227776 0 -213878 213878 0 687960 0.000620053 0 687915 6454.01 0 687779 12908 0 687552 19361.9 0 687235 25815.6 0 686826 32269.2 0 686326 38722.5 0 685735 45175.6 0 685052 51628.2 0 684278 58080.5 0 683411 64532.2 0 682451 70983.4 0 681398 77433.9 0 680252 83883.5 0 679011 90332.3 0 677676 96780 0 676245 103226 0 674718 109672 0 673095 116115 0 671374 122557 0 669556 128997 0 667638 135434 0 665620 141869 0 663502 148301 0 661282 154730 0 658959 161156 0 656532 167578 0 654000 173995 0 651362 180408 0 648617 186816 0 645764 193218 0 642800 199613 0 639726 206002 0 636539 212383 0 633238 218756 0 629821 225120 0 626287 231474 0 622635 237818 0 618862 244150 0 614967 250469 0 610948 256775 0 606804 263066 0 602532 269342 0 598130 275600 0 593597 281839 0 588931 288059 0 584129 294257 0 579190 300432 0 574111 306582 0 568890 312705 0 563524 318800 0 558012 324864 0 552350 330895 0 546538 336890 0 540571 342848 0 534448 348766 0 528166 354640 0 521722 360468 0 515114 366247 0 508340 371974 0 501396 377644 0 494280 383255 0 486990 388803 0 479521 394282 0 471873 399690 0 464042 405022 0 456026 410272 0 447821 415435 0 439426 420507 0 430838 425481 0 422054 430352 0 413072 435113 0 403890 439758 0 394505 444280 0 384916 448671 0 375121 452925 0 365118 457032 0 354905 460984 0 344481 464773 0 333846 468389 0 322998 471822 0 311937 475063 0 300664 478100 0 289178 480923 0 277482 483520 0 265575 485879 0 253461 487987 0 241141 489831 0 228620 491398 0 215901 492674 0 202990 493643 0 189891 494291 0 176613 494603 0 163164 494563 0 149552 494153 0 135787 493358 0 121883 492161 0 107852 490544 0 93709.3 488490 0 79471.7 485981 0 65158 482999 0 50788.7 479528 0 36386.6 475549 0 21977 471046 0 7587.13 466003 0 -6752.81 460403 0 -21010.1 454232 0 -35149.1 447475 0 -49131.3 440121 0 -62914.7 432159 0 -76454.2 423579 0 -89701 414374 0 -102602 404541 0 -115101 394078 0 -127136 382988 0 -138639 371276 0 -149537 358956 0 -159749 346044 0 -169183 332570 0 -177735 318574 0 -185286 304122 0 -191709 289313 0 -196873 274302 0 -200695 259315 0 -203200 244622 0 -204508 230463 0 -204822 217015 0 -204338 204338 0 677786 0.00110349 0 677740 6422.01 0 677602 12843.9 0 677373 19265.7 0 677052 25687.3 0 676638 32108.5 0 676133 38529.3 0 675535 44949.7 0 674844 51369.4 0 674060 57788.5 0 673183 64206.7 0 672212 70624 0 671147 77040.2 0 669987 83455.2 0 668732 89868.8 0 667381 96280.9 0 665933 102691 0 664389 109100 0 662747 115506 0 661006 121910 0 659167 128311 0 657227 134709 0 655186 141104 0 653044 147495 0 650798 153882 0 648449 160265 0 645995 166643 0 643435 173016 0 640767 179382 0 637992 185743 0 635107 192097 0 632111 198443 0 629003 204781 0 625781 211110 0 622444 217429 0 618990 223738 0 615419 230036 0 611728 236321 0 607915 242593 0 603980 248851 0 599920 255093 0 595733 261319 0 591418 267526 0 586972 273715 0 582394 279883 0 577683 286028 0 572834 292149 0 567848 298245 0 562721 304314 0 557451 310353 0 552036 316360 0 546475 322334 0 540763 328272 0 534900 334171 0 528883 340030 0 522709 345844 0 516376 351612 0 509881 357330 0 503223 362995 0 496398 368604 0 489403 374152 0 482237 379637 0 474897 385054 0 467381 390398 0 459685 395666 0 451807 400852 0 443745 405952 0 435497 410961 0 427060 415872 0 418432 420680 0 409610 425378 0 400593 429962 0 391379 434422 0 381965 438754 0 372351 442948 0 362534 446997 0 352514 450894 0 342289 454629 0 331858 458193 0 321222 461577 0 310380 464771 0 299332 467765 0 288079 470548 0 276622 473108 0 264963 475435 0 253104 477516 0 241048 479339 0 228799 480890 0 216360 482156 0 203737 483123 0 190935 483777 0 177963 484103 0 164827 484085 0 151538 483709 0 138106 482959 0 124541 481818 0 110859 480270 0 97072.7 478298 0 83199.7 475887 0 69258.1 473020 0 55267.9 469680 0 41251.5 465851 0 27233.2 461518 0 13239.7 456666 0 -699.854 451281 0 -14553.9 445348 0 -28288.2 438856 0 -41865.4 431794 0 -55245.5 424152 0 -68385.3 415924 0 -81238.1 407105 0 -93753.9 397692 0 -105879 387687 0 -117554 377094 0 -128717 365923 0 -139300 354189 0 -149229 341915 0 -158422 329132 0 -166791 315887 0 -174239 302245 0 -180668 288300 0 -185989 274182 0 -190143 260066 0 -193138 246152 0 -195047 232632 0 -196002 219658 0 -196157 207321 0 -195658 195658 0 667726 0.00159874 0 667679 6389.18 0 667540 12778.2 0 667308 19167.1 0 666983 25555.6 0 666565 31943.7 0 666054 38331.2 0 665449 44717.9 0 664750 51103.9 0 663957 57488.9 0 663070 63872.7 0 662088 70255.3 0 661011 76636.4 0 659838 83015.9 0 658569 89393.5 0 657203 95769.1 0 655739 102142 0 654178 108513 0 652518 114881 0 650758 121246 0 648898 127608 0 646937 133965 0 644873 140319 0 642707 146668 0 640437 153013 0 638063 159352 0 635582 165685 0 632995 172012 0 630299 178332 0 627494 184644 0 624578 190949 0 621551 197244 0 618410 203531 0 615155 209806 0 611783 216071 0 608295 222324 0 604687 228564 0 600959 234790 0 597108 241001 0 593134 247196 0 589034 253373 0 584807 259532 0 580450 265671 0 575962 271789 0 571342 277883 0 566586 283953 0 561694 289997 0 556663 296013 0 551490 301998 0 546175 307952 0 540714 313871 0 535106 319753 0 529347 325597 0 523437 331399 0 517372 337156 0 511151 342867 0 504771 348527 0 498229 354134 0 491523 359683 0 484651 365173 0 477611 370598 0 470400 375956 0 463015 381240 0 455455 386449 0 447716 391575 0 439797 396616 0 431696 401565 0 423410 406417 0 414937 411167 0 406276 415808 0 397423 420334 0 388378 424739 0 379139 429015 0 369705 433156 0 360073 437153 0 350243 440999 0 340215 444686 0 329987 448204 0 319560 451545 0 308933 454698 0 298107 457655 0 287083 460404 0 275862 462935 0 264446 465237 0 252838 467298 0 241039 469105 0 229055 470647 0 216889 471911 0 204547 472883 0 192035 473549 0 179359 473895 0 166528 473908 0 153552 473572 0 140440 472872 0 127204 471793 0 113857 470320 0 100414 468437 0 86891 466129 0 73305.7 463380 0 59678 460176 0 46029.4 456501 0 32383.6 452341 0 18766.4 447682 0 5205.85 442511 0 -8267.55 436816 0 -21620.8 430587 0 -34818.3 423813 0 -47821.7 416488 0 -60589.7 408605 0 -73078 400162 0 -85239.2 391157 0 -97022.3 381594 0 -108373 371480 0 -119232 360826 0 -129539 349650 0 -139224 337976 0 -148217 325839 0 -156441 313284 0 -163818 300376 0 -170270 287199 0 -175729 273864 0 -180154 260511 0 -183543 247296 0 -185941 234374 0 -187440 221878 0 -188153 209902 0 -188200 198501 0 -187695 187695 0 657779 0.0020982 0 657732 6355.54 0 657591 12710.9 0 657357 19066 0 657028 25420.7 0 656606 31774.8 0 656089 38128.1 0 655477 44480.5 0 654771 50831.9 0 653970 57182 0 653073 63530.6 0 652080 69877.6 0 650991 76222.8 0 649806 82565.9 0 648523 88906.7 0 647142 95245 0 645663 101580 0 644085 107913 0 642407 114242 0 640628 120567 0 638749 126888 0 636767 133204 0 634682 139516 0 632493 145822 0 630200 152123 0 627800 158417 0 625294 164705 0 622680 170985 0 619957 177257 0 617123 183521 0 614178 189775 0 611120 196019 0 607948 202252 0 604661 208474 0 601257 214683 0 597734 220879 0 594091 227060 0 590328 233225 0 586441 239374 0 582429 245505 0 578291 251617 0 574025 257708 0 569629 263777 0 565101 269823 0 560440 275843 0 555643 281837 0 550709 287801 0 545635 293736 0 540420 299637 0 535061 305504 0 529557 311333 0 523905 317123 0 518103 322872 0 512148 328575 0 506040 334231 0 499774 339836 0 493350 345387 0 486765 350881 0 480016 356315 0 473102 361684 0 466020 366986 0 458768 372214 0 451343 377367 0 443744 382437 0 435968 387422 0 428014 392316 0 419879 397114 0 411561 401809 0 403058 406397 0 394370 410871 0 385493 415224 0 376428 419451 0 367171 423543 0 357723 427493 0 348083 431294 0 338249 434938 0 328222 438416 0 318000 441719 0 307586 444837 0 296979 447763 0 286179 450484 0 275190 452992 0 264012 455274 0 252649 457321 0 241103 459120 0 229378 460659 0 217478 461927 0 205410 462909 0 193179 463594 0 180791 463967 0 168256 464016 0 155583 463725 0 142780 463082 0 129861 462071 0 116838 460677 0 103725 458888 0 90537.7 456687 0 77294 454061 0 64012.9 450995 0 50715.3 447476 0 37424.1 443490 0 24164.2 439025 0 10962.8 434068 0 -2150.98 428610 0 -15145.4 422640 0 -27986.4 416151 0 -40637.4 409136 0 -53059.2 401590 0 -65209.7 393512 0 -77044.1 384903 0 -88514.6 375767 0 -99570.3 366112 0 -110157 355951 0 -120218 345304 0 -129692 334195 0 -138515 322659 0 -146623 310742 0 -153948 298502 0 -160429 286016 0 -166011 273379 0 -170662 260706 0 -174376 248124 0 -177182 235761 0 -179142 223733 0 -180343 212129 0 -180881 201012 0 -180853 190414 0 -180348 180348 0 647946 0.00260387 0 647898 6321.13 0 647756 12642.1 0 647519 18962.7 0 647187 25282.7 0 646760 31602 0 646238 37920.4 0 645620 44237.7 0 644906 50553.6 0 644097 56868 0 643191 63180.7 0 642188 69491.4 0 641087 75799.8 0 639890 82105.7 0 638593 88408.9 0 637198 94708.9 0 635704 101006 0 634110 107299 0 632415 113588 0 630618 119872 0 628719 126152 0 626717 132426 0 624612 138695 0 622401 144958 0 620085 151214 0 617662 157462 0 615131 163703 0 612491 169936 0 609741 176159 0 606880 182373 0 603907 188576 0 600820 194768 0 597618 200947 0 594299 207114 0 590863 213266 0 587308 219404 0 583632 225525 0 579834 231629 0 575913 237715 0 571865 243781 0 567691 249826 0 563388 255848 0 558955 261846 0 554389 267819 0 549689 273764 0 544853 279680 0 539880 285565 0 534766 291417 0 529511 297233 0 524111 303012 0 518566 308751 0 512873 314448 0 507030 320099 0 501035 325703 0 494885 331256 0 488580 336754 0 482115 342196 0 475490 347577 0 468703 352894 0 461750 358142 0 454631 363318 0 447342 368418 0 439882 373436 0 432249 378370 0 424442 383212 0 416457 387959 0 408294 392605 0 399950 397143 0 391424 401569 0 382715 405876 0 373821 410056 0 364742 414105 0 355476 418013 0 346022 421774 0 336381 425380 0 326551 428822 0 316533 432092 0 306328 435182 0 295935 438081 0 285357 440780 0 274595 443270 0 263651 445539 0 252528 447577 0 241228 449373 0 229757 450915 0 218117 452191 0 206315 453190 0 194357 453899 0 182250 454305 0 170002 454394 0 157621 454155 0 145119 453572 0 132505 452633 0 119794 451324 0 106998 449632 0 94133.6 447541 0 81217.3 445040 0 68267.7 442115 0 55305.2 438754 0 42351.8 434943 0 29431.6 430671 0 16570.6 425928 0 3796.9 420704 0 -8859.16 414990 0 -21365.1 408780 0 -33686 402067 0 -45784.7 394850 0 -57621.4 387127 0 -69153.8 378900 0 -80337.3 370174 0 -91124.2 360959 0 -101465 351269 0 -111306 341122 0 -120594 330545 0 -129272 319570 0 -137283 308242 0 -144569 296615 0 -151080 284758 0 -156770 272752 0 -161613 260695 0 -165600 248692 0 -168751 236851 0 -171108 225273 0 -172737 214042 0 -173715 203221 0 -174122 192852 0 -174039 182955 0 -173538 173538 0 638226 0.00311438 0 638178 6285.96 0 638035 12571.7 0 637795 18857 0 637460 25141.7 0 637028 31425.5 0 636501 37708.2 0 635877 43989.5 0 635156 50269.3 0 634338 56547.3 0 633423 62823.2 0 632410 69096.7 0 631299 75367.7 0 630089 81635.6 0 628780 87900.4 0 627372 94161.5 0 625863 100419 0 624253 106672 0 622541 112920 0 620727 119163 0 618810 125401 0 616788 131632 0 614662 137857 0 612431 144075 0 610092 150286 0 607646 156488 0 605092 162682 0 602427 168866 0 599652 175039 0 596764 181202 0 593764 187353 0 590649 193492 0 587418 199617 0 584070 205727 0 580604 211822 0 577018 217900 0 573310 223961 0 569479 230003 0 565524 236024 0 561443 242024 0 557235 248001 0 552897 253954 0 548428 259880 0 543826 265779 0 539090 271648 0 534217 277485 0 529206 283289 0 524055 289058 0 518762 294788 0 513324 300478 0 507741 306126 0 502010 311728 0 496129 317282 0 490097 322785 0 483910 328234 0 477567 333626 0 471066 338957 0 464405 344224 0 457583 349422 0 450596 354549 0 443443 359600 0 436123 364570 0 428633 369454 0 420971 374249 0 413137 378949 0 405127 383549 0 396941 388042 0 388577 392424 0 380035 396688 0 371312 400827 0 362408 404836 0 353321 408707 0 344053 412432 0 334601 416005 0 324966 419416 0 315149 422659 0 305150 425724 0 294969 428602 0 284608 431284 0 274069 433760 0 263354 436021 0 252465 438056 0 241407 439853 0 230182 441403 0 218796 442694 0 207254 443715 0 195562 444452 0 183727 444895 0 171757 445030 0 159660 444846 0 147447 444328 0 135129 443466 0 122718 442244 0 110228 440651 0 97673.2 438675 0 85070.8 436301 0 72438.6 433518 0 59796.1 430315 0 47164.8 426679 0 34567.7 422600 0 22029.8 418068 0 9578.09 413075 0 -2758.51 407613 0 -14949 401675 0 -26960.2 395259 0 -38756.8 388360 0 -50301.3 380980 0 -61553.9 373122 0 -72472.7 364790 0 -83013.6 355996 0 -93130.3 346753 0 -102775 337081 0 -111897 327004 0 -120448 316555 0 -128375 305774 0 -135630 294712 0 -142170 283431 0 -147956 272001 0 -152963 260507 0 -157184 249037 0 -160629 237686 0 -163330 226539 0 -165336 215676 0 -166708 205158 0 -167513 195029 0 -167820 185319 0 -167696 176042 0 -167201 167201 0 628619 0.00362955 0 628571 6250.08 0 628426 12499.9 0 628184 18749.2 0 627846 24997.8 0 627410 31245.3 0 626878 37491.6 0 626248 43736.3 0 625520 49979.3 0 624694 56220.1 0 623770 62458.4 0 622748 68694.1 0 621626 74926.8 0 620405 81156.1 0 619083 87381.6 0 617661 93603.1 0 616138 99820 0 614513 106032 0 612785 112239 0 610954 118440 0 609019 124634 0 606980 130822 0 604834 137003 0 602582 143176 0 600222 149340 0 597754 155495 0 595177 161640 0 592489 167775 0 589689 173898 0 586776 180009 0 583750 186107 0 580608 192192 0 577349 198261 0 573973 204315 0 570478 210351 0 566862 216370 0 563124 222369 0 559262 228347 0 555276 234304 0 551163 240237 0 546921 246145 0 542550 252027 0 538048 257881 0 533412 263705 0 528641 269497 0 523734 275255 0 518688 280977 0 513502 286661 0 508173 292304 0 502701 297905 0 497083 303460 0 491317 308967 0 485401 314423 0 479334 319825 0 473113 325169 0 466737 330453 0 460203 335673 0 453510 340825 0 446657 345905 0 439640 350910 0 432459 355834 0 425111 360674 0 417595 365425 0 409910 370081 0 402053 374638 0 394024 379090 0 385821 383432 0 377444 387657 0 368890 391759 0 360159 395732 0 351251 399569 0 342165 403263 0 332901 406807 0 323459 410193 0 313839 413412 0 304042 416457 0 294070 419318 0 283922 421988 0 273602 424456 0 263111 426712 0 252453 428748 0 241630 430553 0 230647 432115 0 219508 433425 0 208219 434471 0 196785 435242 0 185214 435726 0 173513 435911 0 161692 435785 0 149759 435336 0 137726 434553 0 125605 433422 0 113409 431931 0 101152 430070 0 88850.9 427825 0 76522.6 425185 0 64186.2 422140 0 51862.1 418678 0 39572.7 414790 0 27341.8 410467 0 15195.3 405701 0 3160.71 400486 0 -8732.3 394815 0 -20452.3 388686 0 -31965.9 382098 0 -43237.5 375050 0 -54230 367546 0 -64903.9 359594 0 -75218.2 351201 0 -85130.1 342384 0 -94595.6 333161 0 -103569 323555 0 -112006 313599 0 -119861 303329 0 -127090 292791 0 -133655 282042 0 -139525 271143 0 -144675 260167 0 -149098 249193 0 -152799 238300 0 -155800 227566 0 -158138 217062 0 -159863 206848 0 -161030 196969 0 -161699 187458 0 -161928 178335 0 -161773 169610 0 -161285 161285 0 619125 0.00414872 0 619077 6213.49 0 618930 12426.7 0 618686 18639.3 0 618345 24851.1 0 617905 31061.7 0 617368 37270.9 0 616732 43478.3 0 615997 49683.6 0 615164 55886.5 0 614232 62086.7 0 613200 68283.8 0 612068 74477.5 0 610836 80667.4 0 609502 86853 0 608068 93034 0 606531 99210 0 604891 105381 0 603148 111545 0 601301 117703 0 599349 123854 0 597291 129998 0 595127 136133 0 592855 142259 0 590475 148377 0 587986 154484 0 585386 160580 0 582675 166664 0 579852 172736 0 576915 178795 0 573864 184840 0 570696 190869 0 567412 196882 0 564008 202878 0 560485 208855 0 556841 214813 0 553074 220750 0 549183 226664 0 545167 232555 0 541023 238421 0 536751 244259 0 532349 250070 0 527815 255850 0 523147 261598 0 518344 267312 0 513404 272990 0 508326 278629 0 503107 284228 0 497746 289784 0 492242 295295 0 486591 300757 0 480793 306168 0 474845 311525 0 468747 316825 0 462495 322064 0 456089 327240 0 449526 332348 0 442805 337384 0 435924 342346 0 428882 347228 0 421676 352026 0 414306 356735 0 406769 361351 0 399065 365869 0 391192 370283 0 383149 374588 0 374934 378778 0 366548 382847 0 357990 386788 0 349258 390596 0 340352 394263 0 331273 397781 0 322021 401145 0 312596 404345 0 302998 407374 0 293230 410223 0 283292 412884 0 273186 415347 0 262915 417605 0 252482 419646 0 241890 421461 0 231142 423040 0 220244 424373 0 209201 425449 0 198019 426256 0 186705 426785 0 175266 427023 0 163711 426959 0 152049 426582 0 140292 425880 0 128450 424842 0 116537 423456 0 104567 421711 0 92554.6 419595 0 80517.7 417099 0 68474 414211 0 56443.4 410922 0 44447.2 407223 0 32508.4 403106 0 20651.6 398564 0 8903.07 393590 0 -2708.94 388180 0 -14154.6 382331 0 -25402.3 376042 0 -36418.5 369315 0 -47168.2 362153 0 -57614.5 354563 0 -67719.2 346556 0 -77442.7 338144 0 -86744.3 329346 0 -95582.8 320186 0 -103917 310692 0 -111706 300900 0 -118912 290851 0 -125501 280595 0 -131443 270189 0 -136718 259695 0 -141317 249183 0 -145240 238722 0 -148505 228382 0 -151139 218227 0 -153182 208314 0 -154679 198689 0 -155681 189386 0 -156240 180430 0 -156406 171834 0 -156228 163607 0 -155748 155748 0 609744 0.00467144 0 609695 6176.25 0 609547 12352.2 0 609301 18527.4 0 608956 24701.8 0 608513 30874.8 0 607971 37046.1 0 607329 43215.5 0 606588 49382.6 0 605748 55546.9 0 604807 61708.3 0 603767 67866.1 0 602625 74020.1 0 601382 80169.9 0 600037 86315 0 598590 92454.9 0 597040 98589.2 0 595386 104717 0 593628 110839 0 591765 116953 0 589797 123060 0 587722 129158 0 585540 135248 0 583249 141327 0 580850 147397 0 578340 153455 0 575720 159501 0 572987 165535 0 570141 171555 0 567181 177561 0 564106 183551 0 560914 189525 0 557604 195481 0 554175 201418 0 550626 207335 0 546955 213232 0 543161 219105 0 539242 224955 0 535198 230779 0 531025 236576 0 526724 242345 0 522293 248083 0 517729 253789 0 513031 259461 0 508198 265096 0 503228 270693 0 498120 276249 0 492871 281762 0 487480 287230 0 481946 292649 0 476265 298018 0 470438 303332 0 464462 308590 0 458335 313787 0 452057 318921 0 445624 323988 0 439035 328984 0 432290 333905 0 425386 338747 0 418322 343506 0 411096 348178 0 403707 352757 0 396154 357238 0 388436 361618 0 380551 365889 0 372499 370048 0 364279 374086 0 355891 378000 0 347333 381781 0 338606 385424 0 329710 388922 0 320644 392267 0 311411 395451 0 302010 398468 0 292442 401309 0 282710 403965 0 272814 406428 0 262759 408690 0 252546 410740 0 242179 412570 0 231661 414169 0 220998 415528 0 210195 416637 0 199258 417485 0 188193 418061 0 177008 418355 0 165711 418356 0 154311 418053 0 142820 417436 0 131248 416492 0 119608 415211 0 107914 413583 0 96179.7 411598 0 84422.2 409244 0 72659 406513 0 60909 403396 0 49192.6 399883 0 37532 395968 0 25950.5 391644 0 14473.4 386906 0 3127.34 381750 0 -8059.29 376173 0 -19056.5 370175 0 -29832.9 363757 0 -40355.3 356924 0 -50589.3 349683 0 -60499.1 342043 0 -70048 334017 0 -79198.5 325624 0 -87912.7 316885 0 -96152.8 307827 0 -103882 298483 0 -111067 288891 0 -117675 279096 0 -123681 269149 0 -129065 259106 0 -133817 249026 0 -137937 238974 0 -141435 229010 0 -144333 219194 0 -146662 209578 0 -148460 200207 0 -149769 191118 0 -150635 182337 0 -151104 173883 0 -151219 165765 0 -151023 157988 0 -150552 150552 0 600475 0.00519719 0 600425 6138.36 0 600276 12276.4 0 600028 18413.6 0 599681 24549.8 0 599233 30684.6 0 598687 36817.5 0 598040 42948.3 0 597293 49076.4 0 596445 55201.6 0 595497 61323.4 0 594447 67441.3 0 593296 73555.1 0 592043 79664.1 0 590687 85767.9 0 589228 91866.1 0 587665 97958 0 585998 104043 0 584226 110121 0 582348 116191 0 580364 122253 0 57