<?xml version="1.0"?> 
<VTKFile type="StructuredGrid" version="0.1"> 
<StructuredGrid WholeExtent="0 127 0 127 0 0"> 
<Piece Extent="0 127 0 127 0 0"> 
<PointData>
<DataArray type="Float32" Name="E" format="ascii" NumberOfComponents="3"> 
1.33514e-05 1.29351e+07 0 -4.61417e+06 1.88867e+06 0 -3.66936e+06 2.48796e+06 0 -3.93626e+06 1.55079e+06 0 -3.82499e+06 1.56705e+06 0 -3.89547e+06 1.38768e+06 0 -3.91927e+06 1.37809e+06 0 -3.96621e+06 1.36741e+06 0 -4.00351e+06 1.3966e+06 0 -4.03852e+06 1.43893e+06 0 -4.06646e+06 1.49526e+06 0 -4.08808e+06 1.55939e+06 0 -4.10307e+06 1.629e+06 0 -4.11189e+06 1.70163e+06 0 -4.11502e+06 1.7756e+06 0 -4.11302e+06 1.84962e+06 0 -4.10646e+06 1.9227e+06 0 -4.0959e+06 1.99415e+06 0 -4.08185e+06 2.06344e+06 0 -4.06477e+06 2.13022e+06 0 -4.04508e+06 2.19425e+06 0 -4.02317e+06 2.25538e+06 0 -3.99935e+06 2.31355e+06 0 -3.97392e+06 2.36874e+06 0 -3.94714e+06 2.42098e+06 0 -3.91924e+06 2.47032e+06 0 -3.8904e+06 2.51683e+06 0 -3.8608e+06 2.5606e+06 0 -3.83059e+06 2.60173e+06 0 -3.79991e+06 2.64033e+06 0 -3.76885e+06 2.6765e+06 0 -3.73754e+06 2.71035e+06 0 -3.70604e+06 2.74198e+06 0 -3.67444e+06 2.77151e+06 0 -3.64279e+06 2.79904e+06 0 -3.61116e+06 2.82466e+06 0 -3.57959e+06 2.84847e+06 0 -3.54812e+06 2.87056e+06 0 -3.5168e+06 2.89102e+06 0 -3.48564e+06 2.90992e+06 0 -3.45467e+06 2.92736e+06 0 -3.42392e+06 2.9434e+06 0 -3.3934e+06 2.95812e+06 0 -3.36313e+06 2.97159e+06 0 -3.33313e+06 2.98387e+06 0 -3.3034e+06 2.99501e+06 0 -3.27395e+06 3.00508e+06 0 -3.24478e+06 3.01414e+06 0 -3.21591e+06 3.02223e+06 0 -3.18734e+06 3.0294e+06 0 -3.15907e+06 3.03571e+06 0 -3.13111e+06 3.04119e+06 0 -3.10344e+06 3.04588e+06 0 -3.07608e+06 3.04983e+06 0 -3.04903e+06 3.05307e+06 0 -3.02227e+06 3.05563e+06 0 -2.99582e+06 3.05756e+06 0 -2.96967e+06 3.05888e+06 0 -2.94382e+06 3.05962e+06 0 -2.91826e+06 3.05982e+06 0 -2.893e+06 3.05949e+06 0 -2.86802e+06 3.05866e+06 0 -2.84334e+06 3.05737e+06 0 -2.81893e+06 3.05562e+06 0 -2.79481e+06 3.05344e+06 0 -2.77096e+06 3.05086e+06 0 -2.74739e+06 3.0479e+06 0 -2.72409e+06 3.04456e+06 0 -2.70105e+06 3.04088e+06 0 -2.67827e+06 3.03686e+06 0 -2.65576e+06 3.03252e+06 0 -2.6335e+06 3.02789e+06 0 -2.61149e+06 3.02296e+06 0 -2.58973e+06 3.01777e+06 0 -2.56821e+06 3.01231e+06 0 -2.54693e+06 3.00661e+06 0 -2.52589e+06 3.00067e+06 0 -2.50508e+06 2.99451e+06 0 -2.4845e+06 2.98814e+06 0 -2.46415e+06 2.98157e+06 0 -2.44402e+06 2.9748e+06 0 -2.42411e+06 2.96785e+06 0 -2.40441e+06 2.96073e+06 0 -2.38493e+06 2.95345e+06 0 -2.36566e+06 2.946e+06 0 -2.34659e+06 2.93841e+06 0 -2.32772e+06 2.93068e+06 0 -2.30906e+06 2.92282e+06 0 -2.29059e+06 2.91482e+06 0 -2.27231e+06 2.90671e+06 0 -2.25423e+06 2.89849e+06 0 -2.23633e+06 2.89016e+06 0 -2.21861e+06 2.88172e+06 0 -2.20108e+06 2.87319e+06 0 -2.18373e+06 2.86457e+06 0 -2.16655e+06 2.85586e+06 0 -2.14955e+06 2.84707e+06 0 -2.13272e+06 2.83821e+06 0 -2.11605e+06 2.82927e+06 0 -2.09955e+06 2.82027e+06 0 -2.08322e+06 2.8112e+06 0 -2.06704e+06 2.80208e+06 0 -2.05103e+06 2.79289e+06 0 -2.03517e+06 2.78366e+06 0 -2.01946e+06 2.77438e+06 0 -2.00391e+06 2.76505e+06 0 -1.9885e+06 2.75568e+06 0 -1.97325e+06 2.74627e+06 0 -1.95813e+06 2.73682e+06 0 -1.94316e+06 2.72734e+06 0 -1.92833e+06 2.71783e+06 0 -1.91364e+06 2.70829e+06 0 -1.89909e+06 2.69872e+06 0 -1.88467e+06 2.68914e+06 0 -1.87039e+06 2.67953e+06 0 -1.85624e+06 2.6699e+06 0 -1.84221e+06 2.66025e+06 0 -1.82832e+06 2.65059e+06 0 -1.81454e+06 2.64092e+06 0 -1.8009e+06 2.63124e+06 0 -1.78737e+06 2.62154e+06 0 -1.77397e+06 2.61184e+06 0 -1.76069e+06 2.60214e+06 0 -1.74752e+06 2.59243e+06 0 -1.73447e+06 2.58271e+06 0 -1.72153e+06 2.573e+06 0 -1.70871e+06 2.56329e+06 0 -1.69599e+06 2.55358e+06 0 -3.97861e-06 9.10927e+06 0 -4.03366e+06 3.54673e+06 0 -3.84492e+06 2.05136e+06 0 -3.80233e+06 1.83909e+06 0 -3.86158e+06 1.49197e+06 0 -3.86204e+06 1.43642e+06 0 -3.91868e+06 1.36329e+06 0 -3.95624e+06 1.36714e+06 0 -4.00001e+06 1.3849e+06 0 -4.03548e+06 1.42707e+06 0 -4.0658e+06 1.48065e+06 0 -4.08891e+06 1.54381e+06 0 -4.10545e+06 1.61255e+06 0 -4.11558e+06 1.68476e+06 0 -4.11986e+06 1.75855e+06 0 -4.11887e+06 1.8326e+06 0 -4.11319e+06 1.90586e+06 0 -4.10338e+06 1.97761e+06 0 -4.08998e+06 2.04729e+06 0 -4.07347e+06 2.11451e+06 0 -4.05428e+06 2.17904e+06 0 -4.03278e+06 2.2407e+06 0 -4.00933e+06 2.29942e+06 0 -3.98423e+06 2.35517e+06 0 -3.95773e+06 2.40797e+06 0 -3.93006e+06 2.45787e+06 0 -3.90143e+06 2.50494e+06 0 -3.87202e+06 2.54927e+06 0 -3.84197e+06 2.59094e+06 0 -3.81142e+06 2.63008e+06 0 -3.78049e+06 2.66677e+06 0 -3.74928e+06 2.70113e+06 0 -3.71788e+06 2.73326e+06 0 -3.68636e+06 2.76327e+06 0 -3.65478e+06 2.79127e+06 0 -3.62321e+06 2.81735e+06 0 -3.59169e+06 2.8416e+06 0 -3.56027e+06 2.86412e+06 0 -3.52898e+06 2.885e+06 0 -3.49785e+06 2.90431e+06 0 -3.46692e+06 2.92215e+06 0 -3.43619e+06 2.93857e+06 0 -3.40569e+06 2.95367e+06 0 -3.37544e+06 2.9675e+06 0 -3.34545e+06 2.98012e+06 0 -3.31573e+06 2.99161e+06 0 -3.28629e+06 3.00202e+06 0 -3.25713e+06 3.0114e+06 0 -3.22827e+06 3.01981e+06 0 -3.1997e+06 3.02729e+06 0 -3.17143e+06 3.03389e+06 0 -3.14346e+06 3.03966e+06 0 -3.1158e+06 3.04464e+06 0 -3.08843e+06 3.04886e+06 0 -3.06137e+06 3.05237e+06 0 -3.03462e+06 3.0552e+06 0 -3.00816e+06 3.05738e+06 0 -2.982e+06 3.05895e+06 0 -2.95614e+06 3.05994e+06 0 -2.93058e+06 3.06037e+06 0 -2.9053e+06 3.06027e+06 0 -2.88032e+06 3.05967e+06 0 -2.85562e+06 3.0586e+06 0 -2.83121e+06 3.05707e+06 0 -2.80707e+06 3.0551e+06 0 -2.78322e+06 3.05273e+06 0 -2.75963e+06 3.04996e+06 0 -2.73632e+06 3.04683e+06 0 -2.71327e+06 3.04334e+06 0 -2.69048e+06 3.03951e+06 0 -2.66795e+06 3.03536e+06 0 -2.64568e+06 3.0309e+06 0 -2.62365e+06 3.02616e+06 0 -2.60188e+06 3.02113e+06 0 -2.58034e+06 3.01585e+06 0 -2.55905e+06 3.01031e+06 0 -2.538e+06 3.00454e+06 0 -2.51717e+06 2.99854e+06 0 -2.49658e+06 2.99232e+06 0 -2.47621e+06 2.9859e+06 0 -2.45607e+06 2.97929e+06 0 -2.43614e+06 2.97249e+06 0 -2.41643e+06 2.96551e+06 0 -2.39693e+06 2.95837e+06 0 -2.37764e+06 2.95106e+06 0 -2.35856e+06 2.94361e+06 0 -2.33968e+06 2.93601e+06 0 -2.32099e+06 2.92828e+06 0 -2.30251e+06 2.92042e+06 0 -2.28422e+06 2.91244e+06 0 -2.26611e+06 2.90434e+06 0 -2.2482e+06 2.89613e+06 0 -2.23047e+06 2.88782e+06 0 -2.21292e+06 2.8794e+06 0 -2.19555e+06 2.8709e+06 0 -2.17835e+06 2.86231e+06 0 -2.16133e+06 2.85363e+06 0 -2.14448e+06 2.84488e+06 0 -2.1278e+06 2.83605e+06 0 -2.11128e+06 2.82716e+06 0 -2.09493e+06 2.8182e+06 0 -2.07874e+06 2.80917e+06 0 -2.0627e+06 2.80009e+06 0 -2.04683e+06 2.79096e+06 0 -2.0311e+06 2.78178e+06 0 -2.01553e+06 2.77254e+06 0 -2.00011e+06 2.76327e+06 0 -1.98483e+06 2.75395e+06 0 -1.9697e+06 2.7446e+06 0 -1.95471e+06 2.73521e+06 0 -1.93986e+06 2.72579e+06 0 -1.92516e+06 2.71634e+06 0 -1.91059e+06 2.70687e+06 0 -1.89615e+06 2.69737e+06 0 -1.88185e+06 2.68784e+06 0 -1.86767e+06 2.6783e+06 0 -1.85363e+06 2.66874e+06 0 -1.83972e+06 2.65916e+06 0 -1.82593e+06 2.64957e+06 0 -1.81226e+06 2.63996e+06 0 -1.79872e+06 2.63035e+06 0 -1.7853e+06 2.62073e+06 0 -1.77199e+06 2.6111e+06 0 -1.75881e+06 2.60146e+06 0 -1.74574e+06 2.59182e+06 0 -1.73279e+06 2.58218e+06 0 -1.71994e+06 2.57254e+06 0 -1.70721e+06 2.5629e+06 0 5.31971e-06 6.51484e+06 0 -3.45642e+06 4.38029e+06 0 -3.90823e+06 2.11684e+06 0 -3.74164e+06 1.87016e+06 0 -3.84576e+06 1.55161e+06 0 -3.85415e+06 1.42673e+06 0 -3.90399e+06 1.37572e+06 0 -3.95116e+06 1.35709e+06 0 -3.99346e+06 1.37776e+06 0 -4.03276e+06 1.41399e+06 0 -4.0643e+06 1.46672e+06 0 -4.08944e+06 1.5281e+06 0 -4.10743e+06 1.59613e+06 0 -4.11897e+06 1.66779e+06 0 -4.12445e+06 1.74138e+06 0 -4.12451e+06 1.81542e+06 0 -4.11974e+06 1.88884e+06 0 -4.11073e+06 1.96087e+06 0 -4.09801e+06 2.03092e+06 0 -4.08209e+06 2.09859e+06 0 -4.06341e+06 2.1636e+06 0 -4.04236e+06 2.22579e+06 0 -4.0193e+06 2.28505e+06 0 -3.99452e+06 2.34137e+06 0 -3.96831e+06 2.39474e+06 0 -3.9409e+06 2.44521e+06 0 -3.91249e+06 2.49284e+06 0 -3.88327e+06 2.53772e+06 0 -3.85339e+06 2.57994e+06 0 -3.82298e+06 2.61961e+06 0 -3.79218e+06 2.65683e+06 0 -3.76108e+06 2.6917e+06 0 -3.72977e+06 2.72434e+06 0 -3.69833e+06 2.75484e+06 0 -3.66683e+06 2.78331e+06 0 -3.63532e+06 2.80985e+06 0 -3.60386e+06 2.83455e+06 0 -3.57249e+06 2.85751e+06 0 -3.54124e+06 2.87881e+06 0 -3.51015e+06 2.89853e+06 0 -3.47924e+06 2.91677e+06 0 -3.44854e+06 2.93358e+06 0 -3.41806e+06 2.94906e+06 0 -3.38783e+06 2.96325e+06 0 -3.35786e+06 2.97624e+06 0 -3.32815e+06 2.98807e+06 0 -3.29871e+06 2.99882e+06 0 -3.26957e+06 3.00852e+06 0 -3.24071e+06 3.01725e+06 0 -3.21214e+06 3.02504e+06 0 -3.18387e+06 3.03195e+06 0 -3.15591e+06 3.03801e+06 0 -3.12824e+06 3.04327e+06 0 -3.10088e+06 3.04778e+06 0 -3.07381e+06 3.05156e+06 0 -3.04705e+06 3.05465e+06 0 -3.02059e+06 3.0571e+06 0 -2.99443e+06 3.05892e+06 0 -2.96856e+06 3.06015e+06 0 -2.94299e+06 3.06082e+06 0 -2.91771e+06 3.06096e+06 0 -2.89271e+06 3.06059e+06 0 -2.86801e+06 3.05974e+06 0 -2.84358e+06 3.05843e+06 0 -2.81944e+06 3.05668e+06 0 -2.79557e+06 3.05452e+06 0 -2.77197e+06 3.05195e+06 0 -2.74865e+06 3.04902e+06 0 -2.72558e+06 3.04572e+06 0 -2.70278e+06 3.04208e+06 0 -2.68024e+06 3.03812e+06 0 -2.65795e+06 3.03385e+06 0 -2.63592e+06 3.02928e+06 0 -2.61413e+06 3.02444e+06 0 -2.59258e+06 3.01932e+06 0 -2.57128e+06 3.01396e+06 0 -2.55021e+06 3.00835e+06 0 -2.52937e+06 3.00251e+06 0 -2.50876e+06 2.99645e+06 0 -2.48838e+06 2.99019e+06 0 -2.46822e+06 2.98373e+06 0 -2.44828e+06 2.97708e+06 0 -2.42855e+06 2.97025e+06 0 -2.40904e+06 2.96325e+06 0 -2.38973e+06 2.95609e+06 0 -2.37063e+06 2.94877e+06 0 -2.35173e+06 2.94131e+06 0 -2.33303e+06 2.93371e+06 0 -2.31453e+06 2.92598e+06 0 -2.29622e+06 2.91813e+06 0 -2.2781e+06 2.91016e+06 0 -2.26017e+06 2.90207e+06 0 -2.24242e+06 2.89388e+06 0 -2.22486e+06 2.88559e+06 0 -2.20747e+06 2.87721e+06 0 -2.19026e+06 2.86873e+06 0 -2.17322e+06 2.86017e+06 0 -2.15635e+06 2.85153e+06 0 -2.13965e+06 2.84281e+06 0 -2.12312e+06 2.83403e+06 0 -2.10675e+06 2.82517e+06 0 -2.09054e+06 2.81626e+06 0 -2.07449e+06 2.80728e+06 0 -2.05859e+06 2.79825e+06 0 -2.04285e+06 2.78917e+06 0 -2.02726e+06 2.78004e+06 0 -2.01182e+06 2.77086e+06 0 -1.99652e+06 2.76164e+06 0 -1.98137e+06 2.75238e+06 0 -1.96637e+06 2.74309e+06 0 -1.9515e+06 2.73376e+06 0 -1.93678e+06 2.7244e+06 0 -1.92219e+06 2.71501e+06 0 -1.90773e+06 2.7056e+06 0 -1.89341e+06 2.69616e+06 0 -1.87922e+06 2.68671e+06 0 -1.86516e+06 2.67723e+06 0 -1.85122e+06 2.66773e+06 0 -1.83742e+06 2.65822e+06 0 -1.82373e+06 2.6487e+06 0 -1.81017e+06 2.63917e+06 0 -1.79673e+06 2.62962e+06 0 -1.78341e+06 2.62007e+06 0 -1.77021e+06 2.61051e+06 0 -1.75712e+06 2.60095e+06 0 -1.74414e+06 2.59138e+06 0 -1.73128e+06 2.58181e+06 0 -1.71853e+06 2.57225e+06 0 -5.27501e-06 4.78936e+06 0 -2.91738e+06 4.67869e+06 0 -3.86394e+06 2.4085e+06 0 -3.72337e+06 1.84383e+06 0 -3.80693e+06 1.62241e+06 0 -3.84959e+06 1.42759e+06 0 -3.88861e+06 1.38062e+06 0 -3.9436e+06 1.35369e+06 0 -3.98738e+06 1.36806e+06 0 -4.02872e+06 1.4027e+06 0 -4.06261e+06 1.45232e+06 0 -4.08936e+06 1.51271e+06 0 -4.10909e+06 1.57959e+06 0 -4.12202e+06 1.65078e+06 0 -4.12878e+06 1.72408e+06 0 -4.12993e+06 1.79809e+06 0 -4.12612e+06 1.87164e+06 0 -4.11793e+06 1.94393e+06 0 -4.10593e+06 2.01434e+06 0 -4.09063e+06 2.08244e+06 0 -4.07248e+06 2.14794e+06 0 -4.05189e+06 2.21064e+06 0 -4.02923e+06 2.27046e+06 0 -4.0048e+06 2.32733e+06 0 -3.97889e+06 2.38127e+06 0 -3.95174e+06 2.43231e+06 0 -3.92356e+06 2.48051e+06 0 -3.89454e+06 2.52595e+06 0 -3.86483e+06 2.56872e+06 0 -3.83459e+06 2.60893e+06 0 -3.80392e+06 2.64668e+06 0 -3.77293e+06 2.68207e+06 0 -3.74172e+06 2.71522e+06 0 -3.71037e+06 2.74621e+06 0 -3.67895e+06 2.77516e+06 0 -3.64751e+06 2.80216e+06 0 -3.6161e+06 2.82732e+06 0 -3.58478e+06 2.85072e+06 0 -3.55357e+06 2.87244e+06 0 -3.52252e+06 2.89259e+06 0 -3.49164e+06 2.91123e+06 0 -3.46097e+06 2.92843e+06 0 -3.43052e+06 2.94429e+06 0 -3.40031e+06 2.95885e+06 0 -3.37035e+06 2.9722e+06 0 -3.34065e+06 2.98439e+06 0 -3.31123e+06 2.99547e+06 0 -3.28209e+06 3.00551e+06 0 -3.25324e+06 3.01456e+06 0 -3.22467e+06 3.02267e+06 0 -3.19641e+06 3.02988e+06 0 -3.16844e+06 3.03624e+06 0 -3.14078e+06 3.04179e+06 0 -3.11341e+06 3.04658e+06 0 -3.08635e+06 3.05064e+06 0 -3.05958e+06 3.054e+06 0 -3.03311e+06 3.05671e+06 0 -3.00695e+06 3.05878e+06 0 -2.98107e+06 3.06027e+06 0 -2.95549e+06 3.06118e+06 0 -2.9302e+06 3.06156e+06 0 -2.9052e+06 3.06142e+06 0 -2.88049e+06 3.06079e+06 0 -2.85605e+06 3.0597e+06 0 -2.8319e+06 3.05817e+06 0 -2.80802e+06 3.05622e+06 0 -2.78441e+06 3.05386e+06 0 -2.76107e+06 3.05113e+06 0 -2.738e+06 3.04803e+06 0 -2.71519e+06 3.04459e+06 0 -2.69263e+06 3.04081e+06 0 -2.67033e+06 3.03673e+06 0 -2.64828e+06 3.03234e+06 0 -2.62648e+06 3.02768e+06 0 -2.60492e+06 3.02274e+06 0 -2.5836e+06 3.01754e+06 0 -2.56252e+06 3.0121e+06 0 -2.54167e+06 3.00643e+06 0 -2.52104e+06 3.00053e+06 0 -2.50065e+06 2.99442e+06 0 -2.48047e+06 2.98812e+06 0 -2.46051e+06 2.98162e+06 0 -2.44077e+06 2.97494e+06 0 -2.42124e+06 2.96808e+06 0 -2.40192e+06 2.96107e+06 0 -2.38281e+06 2.95389e+06 0 -2.36389e+06 2.94657e+06 0 -2.34518e+06 2.93911e+06 0 -2.32666e+06 2.93151e+06 0 -2.30833e+06 2.92379e+06 0 -2.2902e+06 2.91595e+06 0 -2.27225e+06 2.90799e+06 0 -2.25448e+06 2.89992e+06 0 -2.2369e+06 2.89175e+06 0 -2.2195e+06 2.88349e+06 0 -2.20227e+06 2.87513e+06 0 -2.18521e+06 2.86669e+06 0 -2.16833e+06 2.85816e+06 0 -2.15161e+06 2.84956e+06 0 -2.13506e+06 2.84088e+06 0 -2.11867e+06 2.83214e+06 0 -2.10245e+06 2.82333e+06 0 -2.08638e+06 2.81446e+06 0 -2.07046e+06 2.80553e+06 0 -2.0547e+06 2.79655e+06 0 -2.0391e+06 2.78752e+06 0 -2.02364e+06 2.77844e+06 0 -2.00832e+06 2.76932e+06 0 -1.99316e+06 2.76016e+06 0 -1.97813e+06 2.75096e+06 0 -1.96325e+06 2.74172e+06 0 -1.94851e+06 2.73246e+06 0 -1.9339e+06 2.72316e+06 0 -1.91942e+06 2.71384e+06 0 -1.90508e+06 2.70449e+06 0 -1.89088e+06 2.69512e+06 0 -1.8768e+06 2.68573e+06 0 -1.86284e+06 2.67632e+06 0 -1.84902e+06 2.66689e+06 0 -1.83532e+06 2.65745e+06 0 -1.82174e+06 2.648e+06 0 -1.80828e+06 2.63853e+06 0 -1.79494e+06 2.62906e+06 0 -1.78171e+06 2.61958e+06 0 -1.76861e+06 2.61009e+06 0 -1.75562e+06 2.6006e+06 0 -1.74274e+06 2.59111e+06 0 -1.72997e+06 2.58161e+06 0 4.97699e-06 3.6644e+06 0 -2.43286e+06 4.65102e+06 0 -3.72999e+06 2.75644e+06 0 -3.7189e+06 1.85097e+06 0 -3.7634e+06 1.6677e+06 0 -3.83862e+06 1.44863e+06 0 -3.87576e+06 1.37923e+06 0 -3.93304e+06 1.35355e+06 0 -3.98125e+06 1.35869e+06 0 -4.02385e+06 1.39147e+06 0 -4.06033e+06 1.43841e+06 0 -4.08886e+06 1.49721e+06 0 -4.11031e+06 1.56314e+06 0 -4.12475e+06 1.63366e+06 0 -4.13282e+06 1.70669e+06 0 -4.13512e+06 1.7806e+06 0 -4.1323e+06 1.85427e+06 0 -4.12498e+06 1.9268e+06 0 -4.11373e+06 1.99755e+06 0 -4.09907e+06 2.06607e+06 0 -4.08148e+06 2.13204e+06 0 -4.06137e+06 2.19527e+06 0 -4.03913e+06 2.25562e+06 0 -4.01506e+06 2.31306e+06 0 -3.98947e+06 2.36756e+06 0 -3.96259e+06 2.41917e+06 0 -3.93465e+06 2.46794e+06 0 -3.90584e+06 2.51395e+06 0 -3.87632e+06 2.55728e+06 0 -3.84622e+06 2.59804e+06 0 -3.81569e+06 2.63632e+06 0 -3.78483e+06 2.67224e+06 0 -3.75373e+06 2.70589e+06 0 -3.72247e+06 2.73738e+06 0 -3.69112e+06 2.76681e+06 0 -3.65975e+06 2.79429e+06 0 -3.62841e+06 2.8199e+06 0 -3.59714e+06 2.84374e+06 0 -3.56598e+06 2.8659e+06 0 -3.53497e+06 2.88647e+06 0 -3.50412e+06 2.90551e+06 0 -3.47348e+06 2.92312e+06 0 -3.44305e+06 2.93936e+06 0 -3.41286e+06 2.9543e+06 0 -3.38292e+06 2.96801e+06 0 -3.35324e+06 2.98055e+06 0 -3.32383e+06 2.99198e+06 0 -3.2947e+06 3.00236e+06 0 -3.26585e+06 3.01173e+06 0 -3.2373e+06 3.02016e+06 0 -3.20904e+06 3.02768e+06 0 -3.18107e+06 3.03434e+06 0 -3.15341e+06 3.04019e+06 0 -3.12604e+06 3.04526e+06 0 -3.09897e+06 3.0496e+06 0 -3.0722e+06 3.05324e+06 0 -3.04573e+06 3.05621e+06 0 -3.01956e+06 3.05854e+06 0 -2.99368e+06 3.06028e+06 0 -2.96809e+06 3.06144e+06 0 -2.9428e+06 3.06205e+06 0 -2.91779e+06 3.06215e+06 0 -2.89307e+06 3.06176e+06 0 -2.86862e+06 3.06089e+06 0 -2.84446e+06 3.05958e+06 0 -2.82057e+06 3.05784e+06 0 -2.79695e+06 3.05569e+06 0 -2.7736e+06 3.05316e+06 0 -2.75052e+06 3.05027e+06 0 -2.72769e+06 3.04702e+06 0 -2.70513e+06 3.04344e+06 0 -2.68282e+06 3.03954e+06 0 -2.66075e+06 3.03534e+06 0 -2.63894e+06 3.03085e+06 0 -2.61736e+06 3.02609e+06 0 -2.59603e+06 3.02107e+06 0 -2.57493e+06 3.01579e+06 0 -2.55407e+06 3.01029e+06 0 -2.53343e+06 3.00455e+06 0 -2.51302e+06 2.99861e+06 0 -2.49283e+06 2.99246e+06 0 -2.47286e+06 2.98611e+06 0 -2.4531e+06 2.97958e+06 0 -2.43356e+06 2.97288e+06 0 -2.41422e+06 2.96601e+06 0 -2.39509e+06 2.95897e+06 0 -2.37616e+06 2.95179e+06 0 -2.35743e+06 2.94447e+06 0 -2.33889e+06 2.93701e+06 0 -2.32055e+06 2.92942e+06 0 -2.3024e+06 2.9217e+06 0 -2.28443e+06 2.91387e+06 0 -2.26665e+06 2.90593e+06 0 -2.24905e+06 2.89789e+06 0 -2.23163e+06 2.88975e+06 0 -2.21439e+06 2.88151e+06 0 -2.19732e+06 2.87318e+06 0 -2.18041e+06 2.86477e+06 0 -2.16368e+06 2.85628e+06 0 -2.14711e+06 2.84772e+06 0 -2.13071e+06 2.83908e+06 0 -2.11446e+06 2.83038e+06 0 -2.09838e+06 2.82162e+06 0 -2.08245e+06 2.8128e+06 0 -2.06667e+06 2.80392e+06 0 -2.05104e+06 2.79499e+06 0 -2.03557e+06 2.78602e+06 0 -2.02024e+06 2.77699e+06 0 -2.00505e+06 2.76793e+06 0 -1.99001e+06 2.75883e+06 0 -1.97511e+06 2.74969e+06 0 -1.96035e+06 2.74051e+06 0 -1.94572e+06 2.73131e+06 0 -1.93123e+06 2.72208e+06 0 -1.91687e+06 2.71282e+06 0 -1.90264e+06 2.70353e+06 0 -1.88855e+06 2.69423e+06 0 -1.87458e+06 2.6849e+06 0 -1.86073e+06 2.67556e+06 0 -1.84701e+06 2.66621e+06 0 -1.83341e+06 2.65683e+06 0 -1.81993e+06 2.64745e+06 0 -1.80658e+06 2.63806e+06 0 -1.79334e+06 2.62866e+06 0 -1.78021e+06 2.61925e+06 0 -1.7672e+06 2.60984e+06 0 -1.7543e+06 2.60042e+06 0 -1.74151e+06 2.591e+06 0 -3.8445e-06 2.94417e+06 0 -2.01083e+06 4.43851e+06 0 -3.52717e+06 3.06726e+06 0 -3.70622e+06 1.91946e+06 0 -3.72421e+06 1.6889e+06 0 -3.81861e+06 1.48156e+06 0 -3.86454e+06 1.37862e+06 0 -3.92064e+06 1.35299e+06 0 -3.97416e+06 1.35119e+06 0 -4.01852e+06 1.37997e+06 0 -4.05729e+06 1.42496e+06 0 -4.08793e+06 1.48175e+06 0 -4.11108e+06 1.5467e+06 0 -4.12712e+06 1.6165e+06 0 -4.13655e+06 1.68917e+06 0 -4.14006e+06 1.76298e+06 0 -4.13829e+06 1.83672e+06 0 -4.13186e+06 1.90946e+06 0 -4.12139e+06 1.98054e+06 0 -4.1074e+06 2.04947e+06 0 -4.0904e+06 2.11592e+06 0 -4.0708e+06 2.17965e+06 0 -4.04899e+06 2.24055e+06 0 -4.0253e+06 2.29854e+06 0 -4.00004e+06 2.35362e+06 0 -3.97345e+06 2.4058e+06 0 -3.94576e+06 2.45514e+06 0 -3.91716e+06 2.50172e+06 0 -3.88783e+06 2.54561e+06 0 -3.8579e+06 2.58692e+06 0 -3.82751e+06 2.62574e+06 0 -3.79678e+06 2.66218e+06 0 -3.76579e+06 2.69635e+06 0 -3.73462e+06 2.72834e+06 0 -3.70336e+06 2.75826e+06 0 -3.67207e+06 2.78622e+06 0 -3.64079e+06 2.81229e+06 0 -3.60957e+06 2.83658e+06 0 -3.57846e+06 2.85918e+06 0 -3.54749e+06 2.88017e+06 0 -3.51668e+06 2.89963e+06 0 -3.48607e+06 2.91764e+06 0 -3.45567e+06 2.93427e+06 0 -3.4255e+06 2.94959e+06 0 -3.39558e+06 2.96367e+06 0 -3.36592e+06 2.97657e+06 0 -3.33652e+06 2.98835e+06 0 -3.3074e+06 2.99906e+06 0 -3.27856e+06 3.00877e+06 0 -3.25001e+06 3.01752e+06 0 -3.22176e+06 3.02535e+06 0 -3.1938e+06 3.03232e+06 0 -3.16613e+06 3.03846e+06 0 -3.13876e+06 3.04382e+06 0 -3.1117e+06 3.04844e+06 0 -3.08492e+06 3.05235e+06 0 -3.05845e+06 3.05559e+06 0 -3.03227e+06 3.05819e+06 0 -3.00639e+06 3.06018e+06 0 -2.9808e+06 3.06159e+06 0 -2.95549e+06 3.06245e+06 0 -2.93048e+06 3.06279e+06 0 -2.90574e+06 3.06262e+06 0 -2.88129e+06 3.06198e+06 0 -2.85712e+06 3.06089e+06 0 -2.83322e+06 3.05937e+06 0 -2.80959e+06 3.05744e+06 0 -2.78623e+06 3.05512e+06 0 -2.76314e+06 3.05242e+06 0 -2.7403e+06 3.04937e+06 0 -2.71773e+06 3.04598e+06 0 -2.6954e+06 3.04228e+06 0 -2.67333e+06 3.03826e+06 0 -2.6515e+06 3.03396e+06 0 -2.62991e+06 3.02937e+06 0 -2.60856e+06 3.02453e+06 0 -2.58745e+06 3.01943e+06 0 -2.56657e+06 3.01409e+06 0 -2.54592e+06 3.00852e+06 0 -2.5255e+06 3.00274e+06 0 -2.50529e+06 2.99674e+06 0 -2.48531e+06 2.99055e+06 0 -2.46554e+06 2.98418e+06 0 -2.44598e+06 2.97762e+06 0 -2.42662e+06 2.9709e+06 0 -2.40748e+06 2.96401e+06 0 -2.38853e+06 2.95697e+06 0 -2.36979e+06 2.94979e+06 0 -2.35124e+06 2.94246e+06 0 -2.33288e+06 2.93501e+06 0 -2.31471e+06 2.92743e+06 0 -2.29673e+06 2.91973e+06 0 -2.27893e+06 2.91192e+06 0 -2.26132e+06 2.904e+06 0 -2.24388e+06 2.89598e+06 0 -2.22662e+06 2.88786e+06 0 -2.20953e+06 2.87965e+06 0 -2.19261e+06 2.87136e+06 0 -2.17586e+06 2.86299e+06 0 -2.15927e+06 2.85454e+06 0 -2.14285e+06 2.84602e+06 0 -2.12659e+06 2.83742e+06 0 -2.11049e+06 2.82877e+06 0 -2.09454e+06 2.82005e+06 0 -2.07874e+06 2.81128e+06 0 -2.0631e+06 2.80246e+06 0 -2.04761e+06 2.79358e+06 0 -2.03226e+06 2.78466e+06 0 -2.01706e+06 2.7757e+06 0 -2.002e+06 2.76669e+06 0 -1.98708e+06 2.75765e+06 0 -1.9723e+06 2.74857e+06 0 -1.95765e+06 2.73946e+06 0 -1.94315e+06 2.73032e+06 0 -1.92877e+06 2.72115e+06 0 -1.91452e+06 2.71195e+06 0 -1.90041e+06 2.70274e+06 0 -1.88642e+06 2.6935e+06 0 -1.87256e+06 2.68424e+06 0 -1.85882e+06 2.67497e+06 0 -1.8452e+06 2.66568e+06 0 -1.83171e+06 2.65638e+06 0 -1.81833e+06 2.64707e+06 0 -1.80507e+06 2.63775e+06 0 -1.79193e+06 2.62842e+06 0 -1.7789e+06 2.61909e+06 0 -1.76598e+06 2.60975e+06 0 -1.75318e+06 2.6004e+06 0 -8.9407e-08 2.48878e+06 0 -1.65226e+06 4.13482e+06 0 -3.27712e+06 3.29667e+06 0 -3.67013e+06 2.04349e+06 0 -3.69135e+06 1.70153e+06 0 -3.79098e+06 1.51554e+06 0 -3.85255e+06 1.38396e+06 0 -3.90766e+06 1.35075e+06 0 -3.96551e+06 1.34548e+06 0 -4.01277e+06 1.36867e+06 0 -4.05352e+06 1.4117e+06 0 -4.08647e+06 1.46649e+06 0 -4.11141e+06 1.53022e+06 0 -4.12911e+06 1.5993e+06 0 -4.13998e+06 1.67154e+06 0 -4.14474e+06 1.74521e+06 0 -4.14405e+06 1.81899e+06 0 -4.13857e+06 1.89194e+06 0 -4.12891e+06 1.96333e+06 0 -4.11563e+06 2.03266e+06 0 -4.09923e+06 2.09956e+06 0 -4.08015e+06 2.1638e+06 0 -4.0588e+06 2.22524e+06 0 -4.03551e+06 2.28379e+06 0 -4.01059e+06 2.33943e+06 0 -3.9843e+06 2.39219e+06 0 -3.95687e+06 2.44211e+06 0 -3.9285e+06 2.48925e+06 0 -3.89937e+06 2.53371e+06 0 -3.86961e+06 2.57557e+06 0 -3.83938e+06 2.61494e+06 0 -3.80877e+06 2.65191e+06 0 -3.7779e+06 2.6866e+06 0 -3.74684e+06 2.7191e+06 0 -3.71566e+06 2.74951e+06 0 -3.68444e+06 2.77794e+06 0 -3.65323e+06 2.80449e+06 0 -3.62208e+06 2.82924e+06 0 -3.59102e+06 2.85228e+06 0 -3.56009e+06 2.87369e+06 0 -3.52932e+06 2.89357e+06 0 -3.49874e+06 2.91199e+06 0 -3.46837e+06 2.92901e+06 0 -3.43823e+06 2.94472e+06 0 -3.40833e+06 2.95917e+06 0 -3.37868e+06 2.97243e+06 0 -3.3493e+06 2.98456e+06 0 -3.32019e+06 2.99562e+06 0 -3.29136e+06 3.00566e+06 0 -3.26282e+06 3.01473e+06 0 -3.23457e+06 3.02288e+06 0 -3.20661e+06 3.03016e+06 0 -3.17895e+06 3.03661e+06 0 -3.15158e+06 3.04226e+06 0 -3.12452e+06 3.04717e+06 0 -3.09774e+06 3.05135e+06 0 -3.07127e+06 3.05486e+06 0 -3.04508e+06 3.05773e+06 0 -3.0192e+06 3.05998e+06 0 -2.9936e+06 3.06164e+06 0 -2.96829e+06 3.06275e+06 0 -2.94327e+06 3.06332e+06 0 -2.91853e+06 3.06339e+06 0 -2.89407e+06 3.06298e+06 0 -2.86988e+06 3.06212e+06 0 -2.84598e+06 3.06081e+06 0 -2.82234e+06 3.0591e+06 0 -2.79897e+06 3.05698e+06 0 -2.77586e+06 3.05449e+06 0 -2.75302e+06 3.05165e+06 0 -2.73043e+06 3.04846e+06 0 -2.70809e+06 3.04494e+06 0 -2.686e+06 3.04112e+06 0 -2.66416e+06 3.037e+06 0 -2.64257e+06 3.03259e+06 0 -2.62121e+06 3.02792e+06 0 -2.60008e+06 3.023e+06 0 -2.57919e+06 3.01783e+06 0 -2.55852e+06 3.01243e+06 0 -2.53808e+06 3.00681e+06 0 -2.51787e+06 3.00098e+06 0 -2.49787e+06 2.99495e+06 0 -2.47808e+06 2.98872e+06 0 -2.45851e+06 2.98232e+06 0 -2.43914e+06 2.97575e+06 0 -2.41998e+06 2.96901e+06 0 -2.40102e+06 2.96211e+06 0 -2.38226e+06 2.95507e+06 0 -2.36369e+06 2.94788e+06 0 -2.34532e+06 2.94056e+06 0 -2.32713e+06 2.93312e+06 0 -2.30914e+06 2.92555e+06 0 -2.29132e+06 2.91787e+06 0 -2.27369e+06 2.91007e+06 0 -2.25624e+06 2.90218e+06 0 -2.23896e+06 2.89419e+06 0 -2.22185e+06 2.8861e+06 0 -2.20492e+06 2.87793e+06 0 -2.18815e+06 2.86967e+06 0 -2.17155e+06 2.86134e+06 0 -2.15511e+06 2.85293e+06 0 -2.13883e+06 2.84445e+06 0 -2.12271e+06 2.8359e+06 0 -2.10675e+06 2.8273e+06 0 -2.09094e+06 2.81863e+06 0 -2.07527e+06 2.80991e+06 0 -2.05976e+06 2.80114e+06 0 -2.0444e+06 2.79232e+06 0 -2.02918e+06 2.78345e+06 0 -2.0141e+06 2.77455e+06 0 -1.99916e+06 2.7656e+06 0 -1.98437e+06 2.75662e+06 0 -1.96971e+06 2.7476e+06 0 -1.95518e+06 2.73856e+06 0 -1.94078e+06 2.72948e+06 0 -1.92652e+06 2.72038e+06 0 -1.91239e+06 2.71125e+06 0 -1.89838e+06 2.7021e+06 0 -1.8845e+06 2.69293e+06 0 -1.87074e+06 2.68375e+06 0 -1.85711e+06 2.67454e+06 0 -1.8436e+06 2.66533e+06 0 -1.8302e+06 2.6561e+06 0 -1.81692e+06 2.64686e+06 0 -1.80376e+06 2.63761e+06 0 -1.79071e+06 2.62835e+06 0 -1.77778e+06 2.61909e+06 0 -1.76496e+06 2.60983e+06 0 2.32458e-06 2.20058e+06 0 -1.35395e+06 3.79897e+06 0 -2.99968e+06 3.43146e+06 0 -3.6022e+06 2.20235e+06 0 -3.66207e+06 1.72159e+06 0 -3.75862e+06 1.54414e+06 0 -3.8376e+06 1.39625e+06 0 -3.89462e+06 1.34797e+06 0 -3.95529e+06 1.34059e+06 0 -4.00635e+06 1.35815e+06 0 -4.04912e+06 1.39848e+06 0 -4.08439e+06 1.45146e+06 0 -4.11129e+06 1.51375e+06 0 -4.13067e+06 1.58207e+06 0 -4.14307e+06 1.65382e+06 0 -4.14913e+06 1.72729e+06 0 -4.14958e+06 1.80109e+06 0 -4.14508e+06 1.87421e+06 0 -4.13627e+06 1.9459e+06 0 -4.12373e+06 2.01561e+06 0 -4.10797e+06 2.08297e+06 0 -4.08944e+06 2.14771e+06 0 -4.06857e+06 2.20968e+06 0 -4.04569e+06 2.26879e+06 0 -4.02113e+06 2.325e+06 0 -3.99515e+06 2.37833e+06 0 -3.96799e+06 2.42883e+06 0 -3.93986e+06 2.47655e+06 0 -3.91093e+06 2.52157e+06 0 -3.88136e+06 2.56399e+06 0 -3.85128e+06 2.6039e+06 0 -3.82082e+06 2.64142e+06 0 -3.79006e+06 2.67663e+06 0 -3.75911e+06 2.70964e+06 0 -3.72803e+06 2.74055e+06 0 -3.69689e+06 2.76947e+06 0 -3.66575e+06 2.79649e+06 0 -3.63465e+06 2.82169e+06 0 -3.60365e+06 2.84518e+06 0 -3.57277e+06 2.86703e+06 0 -3.54204e+06 2.88733e+06 0 -3.5115e+06 2.90616e+06 0 -3.48116e+06 2.92358e+06 0 -3.45104e+06 2.93968e+06 0 -3.42116e+06 2.9545e+06 0 -3.39153e+06 2.96813e+06 0 -3.36217e+06 2.98062e+06 0 -3.33307e+06 2.99203e+06 0 -3.30425e+06 3.00241e+06 0 -3.27572e+06 3.01181e+06 0 -3.24748e+06 3.02028e+06 0 -3.21953e+06 3.02787e+06 0 -3.19187e+06 3.03462e+06 0 -3.1645e+06 3.04057e+06 0 -3.13743e+06 3.04576e+06 0 -3.11066e+06 3.05023e+06 0 -3.08418e+06 3.05402e+06 0 -3.058e+06 3.05715e+06 0 -3.0321e+06 3.05966e+06 0 -3.0065e+06 3.06158e+06 0 -2.98119e+06 3.06294e+06 0 -2.95616e+06 3.06375e+06 0 -2.93141e+06 3.06406e+06 0 -2.90694e+06 3.06389e+06 0 -2.88275e+06 3.06325e+06 0 -2.85884e+06 3.06217e+06 0 -2.83519e+06 3.06067e+06 0 -2.81181e+06 3.05877e+06 0 -2.78869e+06 3.05649e+06 0 -2.76584e+06 3.05384e+06 0 -2.74324e+06 3.05085e+06 0 -2.72089e+06 3.04753e+06 0 -2.69879e+06 3.0439e+06 0 -2.67694e+06 3.03996e+06 0 -2.65533e+06 3.03575e+06 0 -2.63396e+06 3.03125e+06 0 -2.61282e+06 3.02651e+06 0 -2.59191e+06 3.02151e+06 0 -2.57123e+06 3.01628e+06 0 -2.55078e+06 3.01082e+06 0 -2.53055e+06 3.00516e+06 0 -2.51053e+06 2.99928e+06 0 -2.49073e+06 2.99322e+06 0 -2.47115e+06 2.98697e+06 0 -2.45176e+06 2.98055e+06 0 -2.43259e+06 2.97396e+06 0 -2.41361e+06 2.96721e+06 0 -2.39484e+06 2.9603e+06 0 -2.37626e+06 2.95326e+06 0 -2.35787e+06 2.94608e+06 0 -2.33967e+06 2.93877e+06 0 -2.32166e+06 2.93133e+06 0 -2.30383e+06 2.92378e+06 0 -2.28618e+06 2.91612e+06 0 -2.26871e+06 2.90835e+06 0 -2.25141e+06 2.90048e+06 0 -2.23429e+06 2.89252e+06 0 -2.21734e+06 2.88447e+06 0 -2.20056e+06 2.87633e+06 0 -2.18394e+06 2.86811e+06 0 -2.16748e+06 2.85982e+06 0 -2.15119e+06 2.85145e+06 0 -2.13505e+06 2.84302e+06 0 -2.11907e+06 2.83452e+06 0 -2.10324e+06 2.82597e+06 0 -2.08756e+06 2.81735e+06 0 -2.07204e+06 2.80869e+06 0 -2.05665e+06 2.79997e+06 0 -2.04142e+06 2.79121e+06 0 -2.02632e+06 2.7824e+06 0 -2.01137e+06 2.77355e+06 0 -1.99655e+06 2.76467e+06 0 -1.98187e+06 2.75575e+06 0 -1.96733e+06 2.7468e+06 0 -1.95292e+06 2.73781e+06 0 -1.93864e+06 2.7288e+06 0 -1.92448e+06 2.71977e+06 0 -1.91046e+06 2.71071e+06 0 -1.89656e+06 2.70163e+06 0 -1.88279e+06 2.69253e+06 0 -1.86913e+06 2.68341e+06 0 -1.8556e+06 2.67428e+06 0 -1.84219e+06 2.66514e+06 0 -1.82889e+06 2.65598e+06 0 -1.81571e+06 2.64681e+06 0 -1.80265e+06 2.63764e+06 0 -1.7897e+06 2.62845e+06 0 -1.77685e+06 2.61927e+06 0 -4.29153e-06 2.01319e+06 0 -1.11012e+06 3.46605e+06 0 -2.71174e+06 3.47629e+06 0 -3.49963e+06 2.3719e+06 0 -3.63117e+06 1.75975e+06 0 -3.72418e+06 1.56632e+06 0 -3.81842e+06 1.41359e+06 0 -3.8813e+06 1.3466e+06 0 -3.94378e+06 1.33569e+06 0 -3.99895e+06 1.34867e+06 0 -4.04413e+06 1.38538e+06 0 -4.08165e+06 1.43661e+06 0 -4.11068e+06 1.49736e+06 0 -4.13181e+06 1.56478e+06 0 -4.14579e+06 1.63602e+06 0 -4.15322e+06 1.70924e+06 0 -4.15486e+06 1.78303e+06 0 -4.15139e+06 1.85629e+06 0 -4.14348e+06 1.92826e+06 0 -4.1317e+06 1.99834e+06 0 -4.1166e+06 2.06614e+06 0 -4.09865e+06 2.13137e+06 0 -4.07828e+06 2.19387e+06 0 -4.05583e+06 2.25353e+06 0 -4.03165e+06 2.31032e+06 0 -4.00599e+06 2.36423e+06 0 -3.97912e+06 2.4153e+06 0 -3.95123e+06 2.4636e+06 0 -3.92252e+06 2.50919e+06 0 -3.89314e+06 2.55217e+06 0 -3.86323e+06 2.59264e+06 0 -3.83291e+06 2.63069e+06 0 -3.80228e+06 2.66643e+06 0 -3.77143e+06 2.69996e+06 0 -3.74045e+06 2.73138e+06 0 -3.7094e+06 2.76079e+06 0 -3.67833e+06 2.78828e+06 0 -3.6473e+06 2.81395e+06 0 -3.61636e+06 2.83789e+06 0 -3.58552e+06 2.86018e+06 0 -3.55484e+06 2.88091e+06 0 -3.52434e+06 2.90015e+06 0 -3.49403e+06 2.91798e+06 0 -3.46394e+06 2.93446e+06 0 -3.43408e+06 2.94968e+06 0 -3.40447e+06 2.96368e+06 0 -3.37513e+06 2.97653e+06 0 -3.34605e+06 2.98829e+06 0 -3.31724e+06 2.99901e+06 0 -3.28872e+06 3.00874e+06 0 -3.26048e+06 3.01754e+06 0 -3.23253e+06 3.02544e+06 0 -3.20488e+06 3.0325e+06 0 -3.17752e+06 3.03875e+06 0 -3.15045e+06 3.04423e+06 0 -3.12368e+06 3.04899e+06 0 -3.0972e+06 3.05305e+06 0 -3.07101e+06 3.05646e+06 0 -3.04511e+06 3.05923e+06 0 -3.01951e+06 3.06141e+06 0 -2.99419e+06 3.06302e+06 0 -2.96915e+06 3.06408e+06 0 -2.9444e+06 3.06463e+06 0 -2.91993e+06 3.06469e+06 0 -2.89573e+06 3.06428e+06 0 -2.8718e+06 3.06343e+06 0 -2.84815e+06 3.06215e+06 0 -2.82476e+06 3.06046e+06 0 -2.80163e+06 3.05839e+06 0 -2.77877e+06 3.05595e+06 0 -2.75615e+06 3.05317e+06 0 -2.7338e+06 3.05004e+06 0 -2.71169e+06 3.0466e+06 0 -2.68982e+06 3.04286e+06 0 -2.6682e+06 3.03883e+06 0 -2.64682e+06 3.03452e+06 0 -2.62567e+06 3.02995e+06 0 -2.60475e+06 3.02513e+06 0 -2.58406e+06 3.02007e+06 0 -2.56359e+06 3.01478e+06 0 -2.54334e+06 3.00928e+06 0 -2.52332e+06 3.00357e+06 0 -2.5035e+06 2.99766e+06 0 -2.4839e+06 2.99157e+06 0 -2.4645e+06 2.9853e+06 0 -2.44531e+06 2.97886e+06 0 -2.42632e+06 2.97226e+06