<?xml version="1.0"?> 
<VTKFile type="StructuredGrid" version="0.1"> 
<StructuredGrid WholeExtent="0 127 0 127 0 0"> 
<Piece Extent="0 127 0 127 0 0"> 
<PointData>
<DataArray type="Float32" Name="E" format="ascii" NumberOfComponents="3"> 
-5.35903e+06 7.30499e+06 0 -5.23392e+06 7.39278e+06 0 -5.1103e+06 7.47625e+06 0 -4.98816e+06 7.55571e+06 0 -4.86747e+06 7.63143e+06 0 -4.74819e+06 7.70366e+06 0 -4.63028e+06 7.77264e+06 0 -4.5137e+06 7.83858e+06 0 -4.3984e+06 7.90165e+06 0 -4.28433e+06 7.96204e+06 0 -4.17145e+06 8.0199e+06 0 -4.05971e+06 8.07537e+06 0 -3.94906e+06 8.12857e+06 0 -3.83946e+06 8.17963e+06 0 -3.73085e+06 8.22865e+06 0 -3.62318e+06 8.27573e+06 0 -3.51643e+06 8.32095e+06 0 -3.41053e+06 8.36439e+06 0 -3.30546e+06 8.40613e+06 0 -3.20117e+06 8.44623e+06 0 -3.09761e+06 8.48474e+06 0 -2.99477e+06 8.52172e+06 0 -2.89258e+06 8.55723e+06 0 -2.79104e+06 8.59129e+06 0 -2.6901e+06 8.62396e+06 0 -2.58973e+06 8.65527e+06 0 -2.4899e+06 8.68524e+06 0 -2.39059e+06 8.71391e+06 0 -2.29176e+06 8.74131e+06 0 -2.19341e+06 8.76745e+06 0 -2.09549e+06 8.79236e+06 0 -1.998e+06 8.81606e+06 0 -1.9009e+06 8.83856e+06 0 -1.80418e+06 8.85989e+06 0 -1.70783e+06 8.88004e+06 0 -1.61182e+06 8.89905e+06 0 -1.51614e+06 8.91691e+06 0 -1.42078e+06 8.93365e+06 0 -1.32572e+06 8.94926e+06 0 -1.23095e+06 8.96376e+06 0 -1.13645e+06 8.97716e+06 0 -1.04222e+06 8.98947e+06 0 -948246 9.00069e+06 0 -854517 9.01082e+06 0 -761024 9.01989e+06 0 -667759 9.02788e+06 0 -574714 9.03482e+06 0 -481882 9.0407e+06 0 -389256 9.04554e+06 0 -296828 9.04933e+06 0 -204593 9.05209e+06 0 -112545 9.05382e+06 0 -20677 9.05453e+06 0 71016.2 9.05422e+06 0 162540 9.0529e+06 0 253900 9.05058e+06 0 345102 9.04726e+06 0 436152 9.04296e+06 0 527054 9.03766e+06 0 617814 9.0314e+06 0 708438 9.02416e+06 0 798932 9.01595e+06 0 889301 9.00679e+06 0 979552 8.99668e+06 0 1.06969e+06 8.98562e+06 0 1.15972e+06 8.97362e+06 0 1.24966e+06 8.96068e+06 0 1.3395e+06 8.94682e+06 0 1.42925e+06 8.93202e+06 0 1.51892e+06 8.91631e+06 0 1.60853e+06 8.89968e+06 0 1.69807e+06 8.88214e+06 0 1.78755e+06 8.86368e+06 0 1.87698e+06 8.84432e+06 0 1.96637e+06 8.82404e+06 0 2.05573e+06 8.80286e+06 0 2.14506e+06 8.78078e+06 0 2.23438e+06 8.75778e+06 0 2.32368e+06 8.73388e+06 0 2.41299e+06 8.70906e+06 0 2.5023e+06 8.68332e+06 0 2.59162e+06 8.65667e+06 0 2.68096e+06 8.62908e+06 0 2.77033e+06 8.60057e+06 0 2.85973e+06 8.57111e+06 0 2.94918e+06 8.54069e+06 0 3.03867e+06 8.50932e+06 0 3.12821e+06 8.47697e+06 0 3.21781e+06 8.44364e+06 0 3.30746e+06 8.4093e+06 0 3.39718e+06 8.37394e+06 0 3.48697e+06 8.33756e+06 0 3.57682e+06 8.30012e+06 0 3.66673e+06 8.2616e+06 0 3.75671e+06 8.222e+06 0 3.84675e+06 8.18127e+06 0 3.93685e+06 8.13941e+06 0 4.027e+06 8.09639e+06 0 4.1172e+06 8.05217e+06 0 4.20743e+06 8.00674e+06 0 4.29769e+06 7.96007e+06 0 4.38796e+06 7.91212e+06 0 4.47822e+06 7.86287e+06 0 4.56847e+06 7.81228e+06 0 4.65868e+06 7.76032e+06 0 4.74882e+06 7.70696e+06 0 4.83888e+06 7.65217e+06 0 4.92883e+06 7.59592e+06 0 5.01863e+06 7.53816e+06 0 5.10826e+06 7.47888e+06 0 5.19767e+06 7.41802e+06 0 5.28684e+06 7.35556e+06 0 5.37571e+06 7.29147e+06 0 5.46424e+06 7.22571e+06 0 5.55238e+06 7.15825e+06 0 5.64009e+06 7.08906e+06 0 5.7273e+06 7.01811e+06 0 5.81396e+06 6.94538e+06 0 5.9e+06 6.87083e+06 0 5.98536e+06 6.79445e+06 0 6.06997e+06 6.71621e+06 0 6.15375e+06 6.63609e+06 0 6.23665e+06 6.55408e+06 0 6.31856e+06 6.47016e+06 0 6.39942e+06 6.38433e+06 0 6.47914e+06 6.29658e+06 0 6.55764e+06 6.2069e+06 0 6.63482e+06 6.11532e+06 0 -5.18968e+06 7.21762e+06 0 -5.07202e+06 7.30183e+06 0 -4.95545e+06 7.38216e+06 0 -4.83998e+06 7.45885e+06 0 -4.7256e+06 7.53214e+06 0 -4.61231e+06 7.60224e+06 0 -4.50008e+06 7.66933e+06 0 -4.38889e+06 7.73359e+06 0 -4.27872e+06 7.79518e+06 0 -4.16954e+06 7.85425e+06 0 -4.06133e+06 7.91093e+06 0 -3.95404e+06 7.96535e+06 0 -3.84765e+06 8.01762e+06 0 -3.74212e+06 8.06784e+06 0 -3.63742e+06 8.1161e+06 0 -3.53352e+06 8.1625e+06 0 -3.43038e+06 8.2071e+06 0 -3.32798e+06 8.24999e+06 0 -3.22627e+06 8.29122e+06 0 -3.12523e+06 8.33085e+06 0 -3.02483e+06 8.36894e+06 0 -2.92504e+06 8.40554e+06 0 -2.82582e+06 8.44069e+06 0 -2.72717e+06 8.47444e+06 0 -2.62904e+06 8.50681e+06 0 -2.53141e+06 8.53784e+06 0 -2.43426e+06 8.56756e+06 0 -2.33756e+06 8.59601e+06 0 -2.24131e+06 8.62319e+06 0 -2.14546e+06 8.64914e+06 0 -2.05001e+06 8.67388e+06 0 -1.95494e+06 8.69742e+06 0 -1.86022e+06 8.71977e+06 0 -1.76585e+06 8.74097e+06 0 -1.67181e+06 8.76101e+06 0 -1.57808e+06 8.77992e+06 0 -1.48465e+06 8.79769e+06 0 -1.39151e+06 8.81435e+06 0 -1.29864e+06 8.8299e+06 0 -1.20604e+06 8.84436e+06 0 -1.11369e+06 8.85772e+06 0 -1.02159e+06 8.87001e+06 0 -929729 8.88121e+06 0 -838093 8.89135e+06 0 -746676 8.90043e+06 0 -655472 8.90846e+06 0 -564475 8.91543e+06 0 -473677 8.92137e+06 0 -383072 8.92627e+06 0 -292655 8.93014e+06 0 -202420 8.93299e+06 0 -112362 8.93483e+06 0 -22476.1 8.93565e+06 0 67243.4 8.93547e+06 0 156801 8.93429e+06 0 246201 8.93213e+06 0 335450 8.92897e+06 0 424550 8.92484e+06 0 513508 8.91974e+06 0 602327 8.91367e+06 0 691013 8.90664e+06 0 779571 8.89866e+06 0 868006 8.88974e+06 0 956323 8.87987e+06 0 1.04453e+06 8.86907e+06 0 1.13262e+06 8.85734e+06 0 1.22062e+06 8.84468e+06 0 1.30852e+06 8.83111e+06 0 1.39633e+06 8.81663e+06 0 1.48406e+06 8.80123e+06 0 1.57171e+06 8.78493e+06 0 1.65928e+06 8.76773e+06 0 1.7468e+06 8.74963e+06 0 1.83425e+06 8.73063e+06 0 1.92166e+06 8.71074e+06 0 2.00901e+06 8.68996e+06 0 2.09634e+06 8.66829e+06 0 2.18362e+06 8.64572e+06 0 2.27089e+06 8.62226e+06 0 2.35814e+06 8.5979e+06 0 2.44537e+06 8.57265e+06 0 2.5326e+06 8.54649e+06 0 2.61983e+06 8.51943e+06 0 2.70707e+06 8.49145e+06 0 2.79432e+06 8.46256e+06 0 2.88158e+06 8.43274e+06 0 2.96887e+06 8.40199e+06 0 3.05618e+06 8.37029e+06 0 3.14352e+06 8.33763e+06 0 3.23089e+06 8.30401e+06 0 3.3183e+06 8.26941e+06 0 3.40574e+06 8.23382e+06 0 3.49321e+06 8.19721e+06 0 3.58072e+06 8.15957e+06 0 3.66826e+06 8.1209e+06 0 3.75583e+06 8.08115e+06 0 3.84342e+06 8.04033e+06 0 3.93103e+06 7.9984e+06 0 4.01866e+06 7.95535e+06 0 4.10629e+06 7.91114e+06 0 4.19391e+06 7.86577e+06 0 4.28151e+06 7.81919e+06 0 4.36907e+06 7.77139e+06 0 4.45659e+06 7.72235e+06 0 4.54404e+06 7.67203e+06 0 4.63141e+06 7.6204e+06 0 4.71866e+06 7.56745e+06 0 4.80578e+06 7.51313e+06 0 4.89274e+06 7.45743e+06 0 4.97951e+06 7.40032e+06 0 5.06606e+06 7.34176e+06 0 5.15235e+06 7.28173e+06 0 5.23835e+06 7.2202e+06 0 5.32402e+06 7.15714e+06 0 5.40931e+06 7.09253e+06 0 5.49418e+06 7.02635e+06 0 5.57858e+06 6.95856e+06 0 5.66247e+06 6.88914e+06 0 5.74578e+06 6.81808e+06 0 5.82846e+06 6.74535e+06 0 5.91045e+06 6.67093e+06 0 5.9917e+06 6.59482e+06 0 6.07213e+06 6.51699e+06 0 6.15168e+06 6.43743e+06 0 6.23028e+06 6.35614e+06 0 6.30786e+06 6.27312e+06 0 6.38434e+06 6.18835e+06 0 6.45966e+06 6.10184e+06 0 -5.02823e+06 7.13367e+06 0 -4.9173e+06 7.21439e+06 0 -4.80714e+06 7.29163e+06 0 -4.69777e+06 7.36559e+06 0 -4.5892e+06 7.43645e+06 0 -4.48143e+06 7.50438e+06 0 -4.37447e+06 7.56955e+06 0 -4.26832e+06 7.6321e+06 0 -4.16295e+06 7.69216e+06 0 -4.05837e+06 7.74986e+06 0 -3.95454e+06 7.80532e+06 0 -3.85147e+06 7.85863e+06 0 -3.74912e+06 7.90991e+06 0 -3.64747e+06 7.95923e+06 0 -3.5465e+06 8.00669e+06 0 -3.4462e+06 8.05235e+06 0 -3.34653e+06 8.09629e+06 0 -3.24747e+06 8.13857e+06 0 -3.149e+06 8.17925e+06 0 -3.0511e+06 8.21838e+06 0 -2.95374e+06 8.25601e+06 0 -2.85691e+06 8.29219e+06 0 -2.76057e+06 8.32695e+06 0 -2.66471e+06 8.36034e+06 0 -2.56931e+06 8.39238e+06 0 -2.47434e+06 8.42312e+06 0 -2.3798e+06 8.45256e+06 0 -2.28565e+06 8.48075e+06 0 -2.19189e+06 8.5077e+06 0 -2.09849e+06 8.53344e+06 0 -2.00545e+06 8.55798e+06 0 -1.91274e+06 8.58134e+06 0 -1.82035e+06 8.60354e+06 0 -1.72827e+06 8.62459e+06 0 -1.63648e+06 8.6445e+06 0 -1.54498e+06 8.66329e+06 0 -1.45375e+06 8.68097e+06 0 -1.36278e+06 8.69755e+06 0 -1.27206e+06 8.71303e+06 0 -1.18158e+06 8.72742e+06 0 -1.09134e+06 8.74074e+06 0 -1.00132e+06 8.75299e+06 0 -911523 8.76418e+06 0 -821935 8.77432e+06 0 -732551 8.7834e+06 0 -643365 8.79145e+06 0 -554371 8.79846e+06 0 -465564 8.80444e+06 0 -376939 8.8094e+06 0 -288491 8.81335e+06 0 -200214 8.81628e+06 0 -112105 8.81821e+06 0 -24159.5 8.81914e+06 0 63627.4 8.81909e+06 0 151260 8.81804e+06 0 238741 8.81602e+06 0 326076 8.81302e+06 0 413268 8.80906e+06 0 500322 8.80414e+06 0 587241 8.79827e+06 0 674030 8.79145e+06 0 760693 8.78368e+06 0 847234 8.77499e+06 0 933658 8.76536e+06 0 1.01997e+06 8.75481e+06 0 1.10617e+06 8.74335e+06 0 1.19227e+06 8.73097e+06 0 1.27828e+06 8.71768e+06 0 1.36418e+06 8.7035e+06 0 1.45001e+06 8.68841e+06 0 1.53574e+06 8.67244e+06 0 1.6214e+06 8.65557e+06 0 1.70699e+06 8.63782e+06 0 1.79252e+06 8.61919e+06 0 1.87798e+06 8.59968e+06 0 1.96339e+06 8.57929e+06 0 2.04874e+06 8.55802e+06 0 2.13406e+06 8.53587e+06 0 2.21933e+06 8.51285e+06 0 2.30458e+06 8.48895e+06 0 2.38979e+06 8.46417e+06 0 2.47499e+06 8.43851e+06 0 2.56016e+06 8.41196e+06 0 2.64533e+06 8.38452e+06 0 2.73048e+06 8.35619e+06 0 2.81563e+06 8.32695e+06 0 2.90078e+06 8.29681e+06 0 2.98593e+06 8.26575e+06 0 3.07109e+06 8.23377e+06 0 3.15625e+06 8.20085e+06 0 3.24142e+06 8.16699e+06 0 3.3266e+06 8.13217e+06 0 3.41178e+06 8.09637e+06 0 3.49697e+06 8.0596e+06 0 3.58216e+06 8.02182e+06 0 3.66735e+06 7.98303e+06 0 3.75253e+06 7.94321e+06 0 3.83771e+06 7.90234e+06 0 3.92287e+06 7.8604e+06 0 4.008e+06 7.81738e+06 0 4.09309e+06 7.77325e+06 0 4.17814e+06 7.728e+06 0 4.26313e+06 7.68159e+06 0 4.34804e+06 7.63402e+06 0 4.43286e+06 7.58525e+06 0 4.51757e+06 7.53527e+06 0 4.60215e+06 7.48405e+06 0 4.68658e+06 7.43158e+06 0 4.77083e+06 7.37781e+06 0 4.85488e+06 7.32274e+06 0 4.9387e+06 7.26634e+06 0 5.02226e+06 7.20858e+06 0 5.10553e+06 7.14945e+06 0 5.18847e+06 7.08892e+06 0 5.27104e+06 7.02696e+06 0 5.35321e+06 6.96357e+06 0 5.43494e+06 6.89871e+06 0 5.51617e+06 6.83237e+06 0 5.59687e+06 6.76453e+06 0 5.67698e+06 6.69518e+06 0 5.75646e+06 6.62429e+06 0 5.83525e+06 6.55187e+06 0 5.9133e+06 6.47788e+06 0 5.99054e+06 6.40234e+06 0 6.06693e+06 6.32523e+06 0 6.1424e+06 6.24654e+06 0 6.21688e+06 6.16627e+06 0 6.29032e+06 6.08443e+06 0 -4.87411e+06 7.05269e+06 0 -4.7693e+06 7.13004e+06 0 -4.66498e+06 7.20427e+06 0 -4.5612e+06 7.27554e+06 0 -4.45798e+06 7.344e+06 0 -4.35533e+06 7.40978e+06 0 -4.25328e+06 7.47302e+06 0 -4.15181e+06 7.53384e+06 0 -4.05095e+06 7.59234e+06 0 -3.95068e+06 7.64864e+06 0 -3.851e+06 7.70283e+06 0 -3.75191e+06 7.75501e+06 0 -3.65339e+06 7.80525e+06 0 -3.55544e+06 7.85364e+06 0 -3.45803e+06 7.90024e+06 0 -3.36117e+06 7.94513e+06 0 -3.26482e+06 7.98837e+06 0 -3.16898e+06 8.03001e+06 0 -3.07363e+06 8.0701e+06 0 -2.97875e+06 8.10869e+06 0 -2.88433e+06 8.14583e+06 0 -2.79035e+06 8.18156e+06 0 -2.69679e+06 8.21591e+06 0 -2.60365e+06 8.24891e+06 0 -2.51089e+06 8.2806e+06 0 -2.41852e+06 8.31101e+06 0 -2.3265e+06 8.34016e+06 0 -2.23484e+06 8.36807e+06 0 -2.1435e+06 8.39477e+06 0 -2.05249e+06 8.42028e+06 0 -1.96179e+06 8.44461e+06 0 -1.87139e+06 8.46778e+06 0 -1.78127e+06 8.4898e+06 0 -1.69142e+06 8.51069e+06 0 -1.60184e+06 8.53046e+06 0 -1.51251e+06 8.54912e+06 0 -1.42343e+06 8.56669e+06 0 -1.33458e+06 8.58317e+06 0 -1.24596e+06 8.59856e+06 0 -1.15757e+06 8.61289e+06 0 -1.06938e+06 8.62616e+06 0 -981403 8.63837e+06 0 -893624 8.64953e+06 0 -806041 8.65965e+06 0 -718646 8.66874e+06 0 -631435 8.6768e+06 0 -544403 8.68383e+06 0 -457546 8.68986e+06 0 -370859 8.69487e+06 0 -284338 8.69888e+06 0 -197979 8.70189e+06 0 -111778 8.70391e+06 0 -25732.2 8.70495e+06 0 60162.4 8.705e+06 0 145909 8.70409e+06 0 231512 8.7022e+06 0 316973 8.69936e+06 0 402297 8.69556e+06 0 487486 8.69082e+06 0 572545 8.68513e+06 0 657477 8.67851e+06 0 742284 8.67096e+06 0 826972 8.66248e+06 0 911543 8.65309e+06 0 996002 8.64279e+06 0 1.08035e+06 8.63158e+06 0 1.1646e+06 8.61947e+06 0 1.24874e+06 8.60647e+06 0 1.33279e+06 8.59258e+06 0 1.41675e+06 8.5778e+06 0 1.50062e+06 8.56215e+06 0 1.58441e+06 8.54562e+06 0 1.66812e+06 8.52821e+06 0 1.75175e+06 8.50994e+06 0 1.83532e+06 8.4908e+06 0 1.91882e+06 8.47079e+06 0 2.00226e+06 8.44992e+06 0 2.08565e+06 8.42819e+06 0 2.16899e+06 8.40561e+06 0 2.25228e+06 8.38215e+06 0 2.33553e+06 8.35784e+06 0 2.41874e+06 8.33267e+06 0 2.50192e+06 8.30663e+06 0 2.58507e+06 8.27972e+06 0 2.66819e+06 8.25194e+06 0 2.75129e+06 8.22328e+06 0 2.83436e+06 8.19373e+06 0 2.91742e+06 8.1633e+06 0 3.00046e+06 8.13198e+06 0 3.08348e+06 8.09975e+06 0 3.16649e+06 8.06661e+06 0 3.24948e+06 8.03254e+06 0 3.33245e+06 7.99754e+06 0 3.4154e+06 7.9616e+06 0 3.49833e+06 7.9247e+06 0 3.58123e+06 7.88684e+06 0 3.6641e+06 7.84799e+06 0 3.74693e+06 7.80814e+06 0 3.82972e+06 7.76728e+06 0 3.91246e+06 7.7254e+06 0 3.99513e+06 7.68247e+06 0 4.07773e+06 7.63847e+06 0 4.16025e+06 7.5934e+06 0 4.24267e+06 7.54723e+06 0 4.32498e+06 7.49995e+06 0 4.40716e+06 7.45153e+06 0 4.48919e+06 7.40196e+06 0 4.57105e+06 7.35122e+06 0 4.65272e+06 7.29929e+06 0 4.73418e+06 7.24614e+06 0 4.8154e+06 7.19177e+06 0 4.89636e+06 7.13615e+06 0 4.97702e+06 7.07926e+06 0 5.05736e+06 7.02109e+06 0 5.13735e+06 6.96161e+06 0 5.21694e+06 6.90081e+06 0 5.29611e+06 6.83868e+06 0 5.37481e+06 6.7752e+06 0 5.45301e+06 6.71035e+06 0 5.53066e+06 6.64412e+06 0 5.60772e+06 6.5765e+06 0 5.68414e+06 6.50748e+06 0 5.75988e+06 6.43705e+06 0 5.8349e+06 6.36521e+06 0 5.90912e+06 6.29194e+06 0 5.98252e+06 6.21724e+06 0 6.05502e+06 6.14111e+06 0 6.12659e+06 6.06356e+06 0 -4.72685e+06 6.97434e+06 0 -4.6276e+06 7.04845e+06 0 -4.52863e+06 7.11976e+06 0 -4.42999e+06 7.18841e+06 0 -4.3317e+06 7.25451e+06 0 -4.2338e+06 7.31817e+06 0 -4.1363e+06 7.37949e+06 0 -4.03923e+06 7.43857e+06 0 -3.94258e+06 7.49551e+06 0 -3.84638e+06 7.55039e+06 0 -3.75061e+06 7.6033e+06 0 -3.65529e+06 7.65431e+06 0 -3.56041e+06 7.70349e+06 0 -3.46597e+06 7.75091e+06 0 -3.37196e+06 7.79664e+06 0 -3.27838e+06 7.84073e+06 0 -3.18522e+06 7.88323e+06 0 -3.09247e+06 7.92419e+06 0 -3.00011e+06 7.96367e+06 0 -2.90815e+06 8.00169e+06 0 -2.81656e+06 8.03831e+06 0 -2.72534e+06 8.07356e+06 0 -2.63448e+06 8.10747e+06 0 -2.54396e+06 8.14006e+06 0 -2.45377e+06 8.17138e+06 0 -2.36391e+06 8.20144e+06 0 -2.27436e+06 8.23028e+06 0 -2.1851e+06 8.2579e+06 0 -2.09614e+06 8.28433e+06 0 -2.00745e+06 8.30958e+06 0 -1.91903e+06 8.33368e+06 0 -1.83088e+06 8.35665e+06 0 -1.74297e+06 8.37848e+06 0 -1.65531e+06 8.3992e+06 0 -1.56788e+06 8.41882e+06 0 -1.48068e+06 8.43734e+06 0 -1.39369e+06 8.45478e+06 0 -1.30692e+06 8.47115e+06 0 -1.22035e+06 8.48646e+06 0 -1.13399e+06 8.50071e+06 0 -1.04782e+06 8.51391e+06 0 -961831 8.52608e+06 0 -876030 8.5372e+06 0 -790408 8.5473e+06 0 -704960 8.55638e+06 0 -619683 8.56445e+06 0 -534571 8.57151e+06 0 -449622 8.57756e+06 0 -364832 8.58262e+06 0 -280198 8.58669e+06 0 -195716 8.58977e+06 0 -111384 8.59187e+06 0 -27198.7 8.59301e+06 0 56843 8.59317e+06 0 140744 8.59238e+06 0 224506 8.59063e+06 0 308133 8.58793e+06 0 391628 8.58429e+06 0 474992 8.57971e+06 0 558229 8.57421e+06 0 641342 8.56778e+06 0 724334 8.56044e+06 0 807207 8.55218e+06 0 889964 8.54302e+06 0 972610 8.53295e+06 0 1.05515e+06 8.522e+06 0 1.13758e+06 8.51016e+06 0 1.21991e+06 8.49743e+06 0 1.30214e+06 8.48383e+06 0 1.38427e+06 8.46935e+06 0 1.46632e+06 8.45401e+06 0 1.54827e+06 8.4378e+06 0 1.63014e+06 8.42074e+06 0 1.71194e+06 8.40281e+06 0 1.79365e+06 8.38404e+06 0 1.87529e+06 8.36442e+06 0 1.95687e+06 8.34394e+06 0 2.03838e+06 8.32263e+06 0 2.11982e+06 8.30046e+06 0 2.20121e+06 8.27746e+06 0 2.28255e+06 8.25361e+06 0 2.36383e+06 8.22891e+06 0 2.44507e+06 8.20337e+06 0 2.52625e+06 8.17698e+06 0 2.6074e+06 8.14974e+06 0 2.6885e+06 8.12165e+06 0 2.76957e+06 8.0927e+06 0 2.8506e+06 8.06288e+06 0 2.93158e+06 8.0322e+06 0 3.01254e+06 8.00064e+06 0 3.09345e+06 7.96821e+06 0 3.17432e+06 7.93488e+06 0 3.25516e+06 7.90066e+06 0 3.33595e+06 7.86553e+06 0 3.4167e+06 7.82949e+06 0 3.49739e+06 7.79252e+06 0 3.57803e+06 7.75461e+06 0 3.65861e+06 7.71575e+06 0 3.73913e+06 7.67593e+06 0 3.81956e+06 7.63514e+06 0 3.89992e+06 7.59336e+06 0 3.98018e+06 7.55058e+06 0 4.06033e+06 7.50678e+06 0 4.14036e+06 7.46196e+06 0 4.22027e+06 7.41608e+06 0 4.30002e+06 7.36915e+06 0 4.37961e+06 7.32114e+06 0 4.45902e+06 7.27205e+06 0 4.53823e+06 7.22184e+06 0 4.61722e+06 7.17052e+06 0 4.69596e+06 7.11805e+06 0 4.77444e+06 7.06444e+06 0 4.85262e+06 7.00965e+06 0 4.93048e+06 6.95369e+06 0 5.00799e+06 6.89653e+06 0 5.08513e+06 6.83816e+06 0 5.16185e+06 6.77856e+06 0 5.23813e+06 6.71774e+06 0 5.31393e+06 6.65566e+06 0 5.38922e+06 6.59234e+06 0 5.46396e+06 6.52774e+06 0 5.5381e+06 6.46187e+06 0 5.61162e+06 6.39473e+06 0 5.68446e+06 6.32629e+06 0 5.75659e+06 6.25657e+06 0 5.82795e+06 6.18555e+06 0 5.89851e+06 6.11323e+06 0 5.96822e+06 6.03963e+06 0 -4.58599e+06 6.89832e+06 0 -4.49181e+06 6.96932e+06 0 -4.39775e+06 7.03783e+06 0 -4.30384e+06 7.10394e+06 0 -4.21012e+06 7.16774e+06 0 -4.11662e+06 7.22931e+06 0 -4.02338e+06 7.28874e+06 0 -3.9304e+06 7.3461e+06 0 -3.83772e+06 7.40147e+06 0 -3.74533e+06 7.45493e+06 0 -3.65326e+06 7.50655e+06 0 -3.56151e+06 7.55637e+06 0 -3.47009e+06 7.60448e+06 0 -3.379e+06 7.65091e+06 0 -3.28823e+06 7.69574e+06 0 -3.19779e+06 7.739e+06 0 -3.10768e+06 7.78074e+06 0 -3.01789e+06 7.82101e+06 0 -2.92842e+06 7.85985e+06 0 -2.83926e+06 7.89728e+06 0 -2.75041e+06 7.93336e+06 0 -2.66186e+06 7.96811e+06 0 -2.5736e+06 8.00155e+06 0 -2.48563e+06 8.03372e+06 0 -2.39793e+06 8.06465e+06 0 -2.3105e+06 8.09435e+06 0 -2.22334e+06 8.12284e+06 0 -2.13643e+06 8.15015e+06 0 -2.04977e+06 8.1763e+06 0 -1.96335e+06 8.20129e+06 0 -1.87716e+06 8.22515e+06 0 -1.79119e+06 8.24789e+06 0 -1.70544e+06 8.26952e+06 0 -1.61991e+06 8.29006e+06 0 -1.53458e+06 8.30951e+06 0 -1.44946e+06 8.32789e+06 0 -1.36452e+06 8.3452e+06 0 -1.27978e+06 8.36145e+06 0 -1.19522e+06 8.37666e+06 0 -1.11084e+06 8.39083e+06 0 -1.02664e+06 8.40396e+06 0 -942604 8.41606e+06 0 -858738 8.42715e+06 0 -775035 8.43722e+06 0 -691492 8.44629e+06 0 -608106 8.45435e+06 0 -524874 8.46142e+06 0 -441794 8.4675e+06 0 -358861 8.4726e+06 0 -276074 8.47672e+06 0 -193430 8.47987e+06 0 -110928 8.48205e+06 0 -28563.6 8.48327e+06 0 53663.9 8.48354e+06 0 135757 8.48286e+06 0 217718 8.48124e+06 0 299549 8.47868e+06 0 381252 8.47519e+06 0 462829 8.47078e+06 0 544283 8.46545e+06 0 625616 8.45921e+06 0 706829 8.45207e+06 0 787926 8.44402e+06 0 868909 8.43508e+06 0 949780 8.42525e+06 0 1.03054e+06 8.41455e+06 0 1.1112e+06 8.40296e+06 0 1.19175e+06 8.39051e+06 0 1.2722e+06 8.37719e+06 0 1.35255e+06 8.36301e+06 0 1.43281e+06 8.34797e+06 0 1.51298e+06 8.33208e+06 0 1.59305e+06 8.31535e+06 0 1.67304e+06 8.29778e+06 0 1.75295e+06 8.27936e+06 0 1.83278e+06 8.26011e+06 0 1.91253e+06 8.24003e+06 0 1.99221e+06 8.21912e+06 0 2.07181e+06 8.19737e+06 0 2.15135e+06 8.1748e+06 0 2.23081e+06 8.15141e+06 0 2.31022e+06 8.12718e+06 0 2.38956e+06 8.10213e+06 0 2.46885e+06 8.07626e+06 0 2.54807e+06 8.04955e+06 0 2.62724e+06 8.02201e+06 0 2.70635e+06 7.99364e+06 0 2.78541e+06 7.96443e+06 0 2.86441e+06 7.93438e+06 0 2.94336e+06 7.90348e+06 0 3.02224e+06 7.87173e+06 0 3.10107e+06 7.83913e+06 0 3.17984e+06 7.80566e+06 0 3.25855e+06 7.77132e+06 0 3.33719e+06 7.73611e+06 0 3.41576e+06 7.70001e+06 0 3.49426e+06 7.66301e+06 0 3.57267e+06 7.62511e+06 0 3.65099e+06 7.58629e+06 0 3.72922e+06 7.54655e+06 0 3.80735e+06 7.50588e+06 0 3.88536e+06 7.46426e+06 0 3.96324e+06 7.42168e+06 0 4.04099e+06 7.37814e+06 0 4.11859e+06 7.33361e+06 0 4.19603e+06 7.28809e+06 0 4.27329e+06 7.24157e+06 0 4.35036e+06 7.19403e+06 0 4.42721e+06 7.14546e+06 0 4.50384e+06 7.09585e+06 0 4.58021e+06 7.04519e+06 0 4.65632e+06 6.99346e+06 0 4.73213e+06 6.94065e+06 0 4.80762e+06 6.88676e+06 0 4.88277e+06 6.83177e+06 0 4.95756e+06 6.77566e+06 0 5.03194e+06 6.71844e+06 0 5.10591e+06 6.66009e+06 0 5.17941e+06 6.6006e+06 0 5.25244e+06 6.53996e+06 0 5.32494e+06 6.47817e+06 0 5.39689e+06 6.41522e+06 0 5.46825e+06 6.35111e+06 0 5.539e+06 6.28583e+06 0 5.60908e+06 6.21938e+06 0 5.67846e+06 6.15176e+06 0 5.74711e+06 6.08296e+06 0 5.81498e+06 6.01299e+06 0 -4.45111e+06 6.82438e+06 0 -4.36159e+06 6.89243e+06 0 -4.27203e+06 6.95825e+06 0 -4.18249e+06 7.02191e+06 0 -4.093e+06 7.08347e+06 0 -4.0036e+06 7.143e+06 0 -3.91432e+06 7.20057e+06 0 -3.82519e+06 7.25623e+06 0 -3.73623e+06 7.31006e+06 0 -3.64745e+06 7.3621e+06 0 -3.55887e+06 7.41242e+06 0 -3.4705e+06 7.46106e+06 0 -3.38236e+06 7.50807e+06 0 -3.29445e+06 7.55351e+06 0 -3.20678e+06 7.59742e+06 0 -3.11935e+06 7.63984e+06 0 -3.03216e+06 7.68081e+06 0 -2.94522e+06 7.72036e+06 0 -2.85852e+06 7.75854e+06 0 -2.77206e+06 7.79537e+06 0 -2.68585e+06 7.83088e+06 0 -2.59988e+06 7.86511e+06 0 -2.51414e+06 7.89808e+06 0 -2.42863e+06 7.92981e+06 0 -2.34334e+06 7.96032e+06 0 -2.25828e+06 7.98964e+06 0 -2.17344e+06 8.01778e+06 0 -2.08881e+06 8.04477e+06 0 -2.00439e+06 8.07062e+06 0 -1.92017e+06 8.09534e+06 0 -1.83615e+06 8.11894e+06 0 -1.75232e+06 8.14145e+06 0 -1.66868e+06 8.16287e+06 0 -1.58522e+06 8.18321e+06 0 -1.50195e+06 8.20249e+06 0 -1.41885e+06 8.22071e+06 0 -1.33592e+06 8.23788e+06 0 -1.25316e+06 8.25401e+06 0 -1.17056e+06 8.26911e+06 0 -1.08812e+06 8.28318e+06 0 -1.00584e+06 8.29624e+06 0 -923716 8.30828e+06 0 -841743 8.31932e+06 0 -759918 8.32935e+06 0 -678240 8.3384e+06 0 -596705 8.34646e+06 0 -515313 8.35353e+06 0 -434061 8.35963e+06 0 -352946 8.36476e+06 0 -271967 8.36893e+06 0 -191123 8.37214e+06 0 -110412 8.37439e+06 0 -29831.1 8.3757e+06 0 50620.1 8.37606e+06 0 130943 8.37549e+06 0 211140 8.37399e+06 0 291213 8.37157e+06 0 371162 8.36823e+06 0 450990 8.36397e+06 0 530697 8.35881e+06 0 610287 8.35275e+06 0 689760 8.3458e+06 0 769118 8.33796e+06 0 848363 8.32924e+06 0 927498 8.31964e+06 0 1.00652e+06 8.30918e+06 0 1.08544e+06 8.29784e+06 0 1.16425e+06 8.28565e+06 0 1.24297e+06 8.27261e+06 0 1.32158e+06 8.25872e+06 0 1.40009e+06 8.24399e+06 0 1.4785e+06 8.22841e+06 0 1.55683e+06 8.21201e+06 0 1.63506e+06 8.19477e+06 0 1.7132e+06 8.17671e+06 0 1.79125e+06 8.15783e+06 0 1.86922e+06 8.13813e+06 0 1.94711e+06 8.11762e+06 0 2.02492e+06 8.09629e+06 0 2.10265e+06 8.07415e+06 0 2.1803e+06 8.0512e+06 0 2.25788e+06 8.02744e+06 0 2.33538e+06 8.00287e+06 0 2.41281e+06 7.97749e+06 0 2.49017e+06 7.95131e+06 0 2.56746e+06 7.92432e+06 0 2.64467e+06 7.89651e+06 0 2.72182e+06 7.86789e+06 0 2.79889e+06 7.83846e+06 0 2.87589e+06 7.80821e+06 0 2.95282e+06 7.77713e+06 0 3.02967e+06 7.74523e+06 0 3.10645e+06 7.7125e+06 0 3.18314e+06 7.67893e+06 0 3.25975e+06 7.64452e+06 0 3.33627e+06 7.60926e+06 0 3.41269e+06 7.57314e+06 0 3.48902e+06 7.53616e+06 0 3.56524e+06 7.49831e+06 0 3.64134e+06 7.45959e+06 0 3.71732e+06 7.41998e+06 0 3.79317e+06 7.37947e+06 0 3.86888e+06 7.33806e+06 0 3.94444e+06 7.29574e+06 0 4.01984e+06 7.2525e+06 0 4.09506e+06 7.20833e+06 0 4.17008e+06 7.16322e+06 0 4.24491e+06 7.11716e+06 0 4.31951e+06 7.07014e+06 0 4.39388e+06 7.02215e+06 0 4.46799e+06 6.97318e+06 0 4.54183e+06 6.92323e+06 0 4.61537e+06 6.87228e+06 0 4.6886e+06 6.82033e+06 0 4.7615e+06 6.76737e+06 0 4.83403e+06 6.71339e+06 0 4.90618e+06 6.65838e+06 0 4.97792e+06 6.60233e+06 0 5.04923e+06 6.54525e+06 0 5.12008e+06 6.48712e+06 0 5.19043e+06 6.42793e+06 0 5.26027e+06 6.3677e+06 0 5.32956e+06 6.3064e+06 0 5.39827e+06 6.24404e+06 0 5.46636e+06 6.18062e+06 0 5.53382e+06 6.11614e+06 0 5.6006e+06 6.05059e+06 0 5.66666e+06 5.98398e+06 0 -4.32183e+06 6.75232e+06 0 -4.23658e+06 6.81756e+06 0 -4.15118e+06 6.88081e+06 0 -4.06568e+06 6.9421e+06 0 -3.98012e+06 7.0015e+06 0 -3.89455e+06 7.05905e+06 0 -3.80898e+06 7.1148e+06 0 -3.72345e+06 7.1688e+06 0 -3.63798e+06 7.2211e+06 0 -3.5526e+06 7.27174e+06 0 -3.46732e+06 7.32077e+06 0 -3.38216e+06 7.36823e+06 0 -3.29714e+06 7.41415e+06 0 -3.21227e+06 7.45859e+06 0 -3.12755e+06 7.50157e+06 0 -3.04299e+06 7.54314e+06 0 -2.95861e+06 7.58332e+06 0 -2.8744e+06 7.62214e+06 0 -2.79037e+06 7.65965e+06 0 -2.70652e+06 7.69586e+06 0 -2.62285e+06 7.7308e+06 0 -2.53936e+06 7.76449e+06 0 -2.45606e+06 7.79696e+06 0 -2.37293e+06 7.82824e+06 0 -2.28999e+06 7.85833e+06 0 -2.20723e+06 7.88725e+06 0 -2.12464e+06 7.91504e+06 0 -2.04222e+06 7.94169e+06 0 -1.95998e+06 7.96722e+06 0 -1.8779e+06 7.99166e+06 0 -1.79599e+06 8.015e+06 0 -1.71425e+06 8.03726e+06 0 -1.63266e+06 8.05846e+06 0 -1.55123e+06 8.0786e+06 0 -1.46996e+06 8.0977e+06 0 -1.38884e+06 8.11575e+06 0 -1.30787e+06 8.13277e+06 0 -1.22704e+06 8.14877e+06 0 -1.14636e+06 8.16375e+06 0 -1.06582e+06 8.17772e+06 0 -985424 8.19069e+06 0 -905165 8.20267e+06 0 -825043 8.21365e+06 0 -745055 8.22365e+06 0 -665201 8.23266e+06 0 -585479 8.24071e+06 0 -505887 8.24779e+06 0 -426424 8.2539e+06 0 -347089 8.25906e+06 0 -267881 8.26326e+06 0 -188798 8.26652e+06 0 -109840 8.26884e+06 0 -31005.6 8.27023e+06 0 47706.4 8.27069e+06 0 126297 8.27022e+06 0 204767 8.26884e+06 0 283117 8.26654e+06 0 361349 8.26334e+06 0 439464 8.25924e+06 0 517462 8.25424e+06 0 595345 8.24836e+06 0 673114 8.2416e+06 0 750770 8.23395e+06 0 828315 8.22544e+06 0 905750 8.21607e+06 0 983076 8.20584e+06 0 1.06029e+06 8.19475e+06 0 1.13741e+06 8.18282e+06 0 1.21442e+06 8.17005e+06 0 1.29132e+06 8.15644e+06 0 1.36813e+06 8.14201e+06 0 1.44483e+06 8.12674e+06 0 1.52144e+06 8.11066e+06 0 1.59795e+06 8.09376e+06 0 1.67437e+06 8.07605e+06 0 1.75069e+06 8.05753e+06 0 1.82693e+06 8.0382e+06 0 1.90307e+06 8.01808e+06 0 1.97913e+06 7.99715e+06 0 2.05509e+06 7.97543e+06 0 2.13097e+06 7.95292e+06 0 2.20677e+06 7.92962e+06 0 2.28248e+06 7.90553e+06 0 2.35811e+06 7.88064e+06 0 2.43365e+06 7.85497e+06 0 2.50911e+06 7.82851e+06 0 2.58449e+06 7.80126e+06 0 2.65978e+06 7.77322e+06 0 2.73498e+06 7.74439e+06 0 2.8101e+06 7.71477e+06 0 2.88513e+06 7.68435e+06 0 2.96007e+06 7.65313e+06 0 3.03491e+06 7.62112e+06 0 3.10966e+06 7.58829e+06 0 3.1843e+06 7.55466e+06 0 3.25884e+06 7.52021e+06 0 3.33327e+06 7.48495e+06 0 3.40758e+06 7.44886e+06 0 3.48177e+06 7.41195e+06 0 3.55583e+06 7.3742e+06 0 3.62975e+06 7.33561e+06 0 3.70353e+06 7.29617e+06 0 3.77715e+06 7.25588e+06 0 3.8506e+06 7.21473e+06 0 3.92388e+06 7.17272e+06 0 3.99697e+06 7.12983e+06 0 4.06986e+06 7.08606e+06 0 4.14254e+06 7.0414e+06 0 4.21499e+06 6.99585e+06 0 4.28719e+06 6.94939e+06 0 4.35914e+06 6.90203e+06 0 4.43081e+06 6.85375e+06 0 4.50218e+06 6.80456e+06 0 4.57325e+06 6.75443e+06 0 4.64398e+06 6.70337e+06 0 4.71436e+06 6.65138e+06 0 4.78437e+06 6.59844e+06 0 4.85398e+06 6.54455e+06 0 4.92318e+06 6.48971e+06 0 4.99193e+06 6.43391e+06 0 5.06022e+06 6.37716e+06 0 5.12803e+06 6.31944e+06 0 5.19531e+06 6.26076e+06 0 5.26205e+06 6.20111e+06 0 5.32823e+06 6.1405e+06 0 5.39381e+06 6.07892e+06 0 5.45876e+06 6.01637e+06 0 5.52306e+06 5.95287e+06 0 -4.19781e+06 6.68198e+06 0 -4.11649e+06 6.74455e+06 0 -4.03493e+06 6.80533e+06 0 -3.95318e+06 6.86436e+06 0 -3.87128e+06 6.92168e+06 0 -3.78927e+06 6.97731e+06 0 -3.70717e+06 7.03129e+06 0 -3.62503e+06 7.08367e+06 0 -3.54285e+06 7.13446e+06 0 -3.46068e+06 7.18372e+06 0 -3.37853e+06 7.23147e+06 0 -3.29642e+06 7.27775e+06 0 -3.21436e+06 7.32259e+06 0 -3.13238e+06 7.36603e+06 0 -3.05048e+06 7.40808e+06 0 -2.96868e+06 7.44879e+06 0 -2.88698e+06 7.48818e+06 0 -2.80539e+06 7.52627e+06 0 -2.72392e+06 7.56309e+06 0 -2.64258e+06 7.59867e+06 0 -2.56137e+06 7.63302e+06 0 -2.48028e+06 7.66617e+06 0 -2.39934e+06 7.69814e+06 0 -2.31852e+06 7.72894e+06 0 -2.23785e+06 7.7586e+06 0 -2.15731e+06 7.78712e+06 0 -2.07691e+06 7.81453e+06 0 -1.99665e+06 7.84084e+06 0 -1.91652e+06 7.86605e+06 0 -1.83654e+06 7.89019e+06 0 -1.75668e+06 7.91326e+06 0 -1.67697e+06 7.93527e+06 0 -1.59738e+06 7.95624e+06 0 -1.51793e+06 7.97617e+06 0 -1.43861e+06 7.99507e+06 0 -1.35942e+06 8.01295e+06 0 -1.28036e+06 8.02982e+06 0 -1.20143e+06 8.04568e+06 0 -1.12262e+06 8.06054e+06 0 -1.04394e+06 8.0744e+06 0 -965380 8.08728e+06 0 -886946 8.09918e+06 0 -808634 8.1101e+06 0 -730444 8.12005e+06 0 -652374 8.12903e+06 0 -574425 8.13706e+06 0 -496595 8.14413e+06 0 -418884 8.15025e+06 0 -341291 8.15543e+06 0 -263815 8.15968e+06 0 -186457 8.16298e+06 0 -109216 8.16536e+06 0 -32091.1 8.16682e+06 0 44918.1 8.16737e+06 0 121812 8.167e+06 0 198591 8.16572e+06 0 275255 8.16355e+06 0 351806 8.16048e+06 0 428243 8.15653e+06 0 504568 8.15169e+06 0 580780 8.14598e+06 0 656881 8.1394e+06 0 732872 8.13195e+06 0 808752 8.12365e+06 0 884523 8.11449e+06 0 960186 8.10449e+06 0 1.03574e+06 8.09365e+06 0 1.11119e+06 8.08197e+06 0 1.18653e+06 8.06946e+06 0 1.26177e+06 8.05613e+06 0 1.33691e+06 8.04198e+06 0 1.41194e+06 8.02702e+06 0 1.48688e+06 8.01125e+06 0 1.56171e+06 7.99468e+06 0 1.63644e+06 7.97731e+06 0 1.71108e+06 7.95915e+06 0 1.78561e+06 7.94019e+06 0 1.86006e+06 7.92045e+06 0 1.9344e+06 7.89992e+06 0 2.00865e+06 7.87862e+06 0 2.08281e+06 7.85654e+06 0 2.15687e+06 7.83368e+06 0 2.23083e+06 7.81005e+06 0 2.30471e+06 7.78565e+06 0 2.37848e+06 7.76049e+06 0 2.45217e+06 7.73455e+06 0 2.52576e+06 7.70784e+06 0 2.59925e+06 7.68037e+06 0 2.67264e+06 7.65213e+06 0 2.74593e+06 7.62312e+06 0 2.81912e+06 7.59334e+06 0 2.8922e+06 7.56279e+06 0 2.96518e+06 7.53146e+06 0 3.03804e+06 7.49937e+06 0 3.11079e+06 7.46649e+06 0 3.18342e+06 7.43283e+06 0 3.25592e+06 7.3984e+06 0 3.32829e+06 7.36317e+06 0 3.40052e+06 7.32715e+06 0 3.47261e+06 7.29034e+06 0 3.54455e+06 7.25273e+06 0 3.61633e+06 7.21432e+06 0 3.68794e+06 7.1751e+06 0 3.75938e+06 7.13507e+06 0 3.83062e+06 7.09423e+06 0 3.90167e+06 7.05256e+06 0 3.97251e+06 7.01006e+06 0 4.04312e+06 6.96674e+06 0 4.11351e+06 6.92258e+06 0 4.18364e+06 6.87758e+06 0 4.25351e+06 6.83173e+06 0 4.3231e+06 6.78504e+06 0 4.3924e+06 6.73749e+06 0 4.46139e+06 6.68908e+06 0 4.53005e+06 6.63982e+06 0 4.59837e+06 6.58968e+06 0 4.66632e+06 6.53868e+06 0 4.73389e+06 6.48681e+06 0 4.80106e+06 6.43407e+06 0 4.86781e+06 6.38045e+06 0 4.93412e+06 6.32595e+06 0 4.99996e+06 6.27058e+06 0 5.06531e+06 6.21433e+06 0 5.13015e+06 6.1572e+06 0 5.19446e+06 6.09919e+06 0 5.25822e+06 6.0403e+06 0 5.32139e+06 5.98054e+06 0 5.38396e+06 5.91991e+06 0 -4.07871e+06 6.6132e+06 0 -4.00103e+06 6.67323e+06 0 -3.92303e+06 6.73168e+06 0 -3.84477e+06 6.78854e+06 0 -3.76628e+06 6.84385e+06 0 -3.6876e+06 6.89763e+06 0 -3.60876e+06 6.9499e+06 0 -3.5298e+06 7.00068e+06 0 -3.45073e+06 7.05001e+06 0 -3.37159e+06 7.09791e+06 0 -3.2924e+06 7.14441e+06 0 -3.21317e+06 7.18953e+06 0 -3.13394e+06 7.23329e+06 0 -3.05472e+06 7.27572e+06 0 -2.97551e+06 7.31685e+06 0 -2.89634e+06 7.3567e+06 0 -2.81722e+06 7.39529e+06 0 -2.73815e+06 7.43264e+06 0 -2.65915e+06 7.46878e+06 0 -2.58023e+06 7.50371e+06 0 -2.50138e+06 7.53748e+06 0 -2.42262e+06 7.57