<?xml version="1.0"?> 
<VTKFile type="StructuredGrid" version="0.1"> 
<StructuredGrid WholeExtent="0 127 0 127 0 0"> 
<Piece Extent="0 127 0 127 0 0"> 
<PointData>
<DataArray type="Float32" Name="|E|" format="ascii" NumberOfComponents="3"> 
-2.06923e+06 0 0 -2.06923e+06 373.32 0 -2.06923e+06 746.641 0 -2.06923e+06 1119.96 0 -2.06924e+06 1493.29 0 -2.06924e+06 1866.61 0 -2.06925e+06 2239.94 0 -2.06925e+06 2613.27 0 -2.06926e+06 2986.6 0 -2.06927e+06 3359.94 0 -2.06928e+06 3733.29 0 -2.06929e+06 4106.63 0 -2.0693e+06 4479.99 0 -2.06932e+06 4853.34 0 -2.06933e+06 5226.71 0 -2.06935e+06 5600.08 0 -2.06936e+06 5973.46 0 -2.06938e+06 6346.85 0 -2.0694e+06 6720.24 0 -2.06942e+06 7093.65 0 -2.06944e+06 7467.06 0 -2.06946e+06 7840.49 0 -2.06948e+06 8213.92 0 -2.06951e+06 8587.36 0 -2.06953e+06 8960.82 0 -2.06956e+06 9334.29 0 -2.06958e+06 9707.77 0 -2.06961e+06 10081.3 0 -2.06964e+06 10454.8 0 -2.06967e+06 10828.3 0 -2.0697e+06 11201.8 0 -2.06973e+06 11575.4 0 -2.06976e+06 11948.9 0 -2.0698e+06 12322.5 0 -2.06983e+06 12696.1 0 -2.06987e+06 13069.7 0 -2.06991e+06 13443.4 0 -2.06994e+06 13817 0 -2.06998e+06 14190.7 0 -2.07002e+06 14564.4 0 -2.07006e+06 14938.1 0 -2.07011e+06 15311.8 0 -2.07015e+06 15685.5 0 -2.0702e+06 16059.3 0 -2.07024e+06 16433.1 0 -2.07029e+06 16806.9 0 -2.07033e+06 17180.7 0 -2.07038e+06 17554.6 0 -2.07043e+06 17928.4 0 -2.07048e+06 18302.3 0 -2.07054e+06 18676.3 0 -2.07059e+06 19050.2 0 -2.07064e+06 19424.2 0 -2.0707e+06 19798.2 0 -2.07075e+06 20172.2 0 -2.07081e+06 20546.3 0 -2.07087e+06 20920.3 0 -2.07093e+06 21294.4 0 -2.07099e+06 21668.6 0 -2.07105e+06 22042.7 0 -2.07111e+06 22416.9 0 -2.07117e+06 22791.1 0 -2.07124e+06 23165.4 0 -2.0713e+06 23539.7 0 -2.07137e+06 23914 0 -2.07144e+06 24288.3 0 -2.07151e+06 24662.7 0 -2.07157e+06 25037.1 0 -2.07165e+06 25411.6 0 -2.07172e+06 25786 0 -2.07179e+06 26160.5 0 -2.07186e+06 26535.1 0 -2.07194e+06 26909.7 0 -2.07201e+06 27284.3 0 -2.07209e+06 27658.9 0 -2.07217e+06 28033.6 0 -2.07225e+06 28408.3 0 -2.07233e+06 28783.1 0 -2.07241e+06 29157.9 0 -2.07249e+06 29532.7 0 -2.07257e+06 29907.6 0 -2.07266e+06 30282.5 0 -2.07274e+06 30657.5 0 -2.07283e+06 31032.5 0 -2.07292e+06 31407.5 0 -2.07301e+06 31782.6 0 -2.07309e+06 32157.7 0 -2.07319e+06 32532.9 0 -2.07328e+06 32908.1 0 -2.07337e+06 33283.3 0 -2.07346e+06 33658.6 0 -2.07356e+06 34034 0 -2.07365e+06 34409.4 0 -2.07375e+06 34784.8 0 -2.07385e+06 35160.3 0 -2.07395e+06 35535.8 0 -2.07405e+06 35911.4 0 -2.07415e+06 36287 0 -2.07425e+06 36662.6 0 -2.07435e+06 37038.4 0 -2.07446e+06 37414.1 0 -2.07456e+06 37789.9 0 -2.07467e+06 38165.8 0 -2.07478e+06 38541.7 0 -2.07488e+06 38917.7 0 -2.07499e+06 39293.7 0 -2.0751e+06 39669.7 0 -2.07522e+06 40045.9 0 -2.07533e+06 40422 0 -2.07544e+06 40798.3 0 -2.07556e+06 41174.5 0 -2.07567e+06 41550.9 0 -2.07579e+06 41927.3 0 -2.07591e+06 42303.7 0 -2.07603e+06 42680.2 0 -2.07615e+06 43056.8 0 -2.07627e+06 43433.4 0 -2.07639e+06 43810.1 0 -2.07651e+06 44186.8 0 -2.07664e+06 44563.6 0 -2.07676e+06 44940.4 0 -2.07689e+06 45317.3 0 -2.07701e+06 45694.3 0 -2.07714e+06 46071.3 0 -2.07727e+06 46448.4 0 -2.0774e+06 46825.6 0 -2.07753e+06 47202.8 0 -2.07767e+06 47580.1 0 -2.06892e+06 0 0 -2.06892e+06 379.101 0 -2.06892e+06 758.203 0 -2.06892e+06 1137.31 0 -2.06893e+06 1516.41 0 -2.06893e+06 1895.52 0 -2.06894e+06 2274.63 0 -2.06894e+06 2653.74 0 -2.06895e+06 3032.85 0 -2.06896e+06 3411.97 0 -2.06897e+06 3791.1 0 -2.06898e+06 4170.23 0 -2.06899e+06 4549.36 0 -2.06901e+06 4928.51 0 -2.06902e+06 5307.65 0 -2.06904e+06 5686.81 0 -2.06905e+06 6065.97 0 -2.06907e+06 6445.14 0 -2.06909e+06 6824.32 0 -2.06911e+06 7203.51 0 -2.06913e+06 7582.71 0 -2.06915e+06 7961.92 0 -2.06918e+06 8341.14 0 -2.0692e+06 8720.37 0 -2.06923e+06 9099.61 0 -2.06925e+06 9478.87 0 -2.06928e+06 9858.14 0 -2.06931e+06 10237.4 0 -2.06934e+06 10616.7 0 -2.06937e+06 10996 0 -2.0694e+06 11375.3 0 -2.06943e+06 11754.7 0 -2.06947e+06 12134 0 -2.0695e+06 12513.4 0 -2.06954e+06 12892.8 0 -2.06957e+06 13272.2 0 -2.06961e+06 13651.6 0 -2.06965e+06 14031.1 0 -2.06969e+06 14410.5 0 -2.06973e+06 14790 0 -2.06978e+06 15169.5 0 -2.06982e+06 15549 0 -2.06986e+06 15928.6 0 -2.06991e+06 16308.1 0 -2.06996e+06 16687.7 0 -2.07e+06 17067.3 0 -2.07005e+06 17447 0 -2.0701e+06 17826.6 0 -2.07015e+06 18206.3 0 -2.0702e+06 18586 0 -2.07026e+06 18965.7 0 -2.07031e+06 19345.5 0 -2.07037e+06 19725.3 0 -2.07042e+06 20105.1 0 -2.07048e+06 20484.9 0 -2.07054e+06 20864.8 0 -2.0706e+06 21244.7 0 -2.07066e+06 21624.6 0 -2.07072e+06 22004.5 0 -2.07078e+06 22384.5 0 -2.07085e+06 22764.5 0 -2.07091e+06 23144.6 0 -2.07098e+06 23524.6 0 -2.07105e+06 23904.7 0 -2.07111e+06 24284.9 0 -2.07118e+06 24665 0 -2.07125e+06 25045.2 0 -2.07132e+06 25425.5 0 -2.0714e+06 25805.7 0 -2.07147e+06 26186.1 0 -2.07154e+06 26566.4 0 -2.07162e+06 26946.8 0 -2.0717e+06 27327.2 0 -2.07177e+06 27707.6 0 -2.07185e+06 28088.1 0 -2.07193e+06 28468.6 0 -2.07201e+06 28849.2 0 -2.0721e+06 29229.8 0 -2.07218e+06 29610.5 0 -2.07226e+06 29991.1 0 -2.07235e+06 30371.9 0 -2.07244e+06 30752.6 0 -2.07252e+06 31133.4 0 -2.07261e+06 31514.3 0 -2.0727e+06 31895.2 0 -2.07279e+06 32276.1 0 -2.07288e+06 32657.1 0 -2.07298e+06 33038.1 0 -2.07307e+06 33419.2 0 -2.07317e+06 33800.3 0 -2.07326e+06 34181.4 0 -2.07336e+06 34562.6 0 -2.07346e+06 34943.9 0 -2.07356e+06 35325.2 0 -2.07366e+06 35706.5 0 -2.07376e+06 36087.9 0 -2.07386e+06 36469.4 0 -2.07396e+06 36850.9 0 -2.07407e+06 37232.4 0 -2.07418e+06 37614 0 -2.07428e+06 37995.7 0 -2.07439e+06 38377.4 0 -2.0745e+06 38759.1 0 -2.07461e+06 39140.9 0 -2.07472e+06 39522.8 0 -2.07483e+06 39904.7 0 -2.07495e+06 40286.6 0 -2.07506e+06 40668.7 0 -2.07518e+06 41050.7 0 -2.07529e+06 41432.9 0 -2.07541e+06 41815.1 0 -2.07553e+06 42197.3 0 -2.07565e+06 42579.6 0 -2.07577e+06 42962 0 -2.07589e+06 43344.4 0 -2.07601e+06 43726.8 0 -2.07614e+06 44109.4 0 -2.07626e+06 44492 0 -2.07639e+06 44874.6 0 -2.07652e+06 45257.4 0 -2.07665e+06 45640.1 0 -2.07678e+06 46023 0 -2.07691e+06 46405.9 0 -2.07704e+06 46788.8 0 -2.07717e+06 47171.9 0 -2.0773e+06 47555 0 -2.07744e+06 47938.1 0 -2.07757e+06 48321.4 0 -2.06861e+06 0 0 -2.06861e+06 384.905 0 -2.06861e+06 769.811 0 -2.06861e+06 1154.72 0 -2.06861e+06 1539.63 0 -2.06862e+06 1924.54 0 -2.06863e+06 2309.45 0 -2.06863e+06 2694.36 0 -2.06864e+06 3079.28 0 -2.06865e+06 3464.21 0 -2.06866e+06 3849.14 0 -2.06867e+06 4234.07 0 -2.06868e+06 4619.01 0 -2.0687e+06 5003.96 0 -2.06871e+06 5388.91 0 -2.06873e+06 5773.87 0 -2.06875e+06 6158.84 0 -2.06876e+06 6543.82 0 -2.06878e+06 6928.81 0 -2.0688e+06 7313.8 0 -2.06883e+06 7698.81 0 -2.06885e+06 8083.83 0 -2.06887e+06 8468.85 0 -2.0689e+06 8853.89 0 -2.06892e+06 9238.95 0 -2.06895e+06 9624.01 0 -2.06898e+06 10009.1 0 -2.06901e+06 10394.2 0 -2.06904e+06 10779.3 0 -2.06907e+06 11164.4 0 -2.0691e+06 11549.5 0 -2.06913e+06 11934.7 0 -2.06917e+06 12319.9 0 -2.0692e+06 12705.1 0 -2.06924e+06 13090.3 0 -2.06928e+06 13475.5 0 -2.06932e+06 13860.7 0 -2.06936e+06 14246 0 -2.0694e+06 14631.3 0 -2.06944e+06 15016.6 0 -2.06949e+06 15401.9 0 -2.06953e+06 15787.2 0 -2.06958e+06 16172.6 0 -2.06962e+06 16558 0 -2.06967e+06 16943.4 0 -2.06972e+06 17328.8 0 -2.06977e+06 17714.3 0 -2.06982e+06 18099.8 0 -2.06987e+06 18485.3 0 -2.06993e+06 18870.8 0 -2.06998e+06 19256.4 0 -2.07004e+06 19641.9 0 -2.07009e+06 20027.6 0 -2.07015e+06 20413.2 0 -2.07021e+06 20798.9 0 -2.07027e+06 21184.6 0 -2.07033e+06 21570.3 0 -2.07039e+06 21956 0 -2.07046e+06 22341.8 0 -2.07052e+06 22727.7 0 -2.07058e+06 23113.5 0 -2.07065e+06 23499.4 0 -2.07072e+06 23885.3 0 -2.07079e+06 24271.2 0 -2.07086e+06 24657.2 0 -2.07093e+06 25043.2 0 -2.071e+06 25429.3 0 -2.07107e+06 25815.4 0 -2.07115e+06 26201.5 0 -2.07122e+06 26587.7 0 -2.0713e+06 26973.9 0 -2.07138e+06 27360.1 0 -2.07146e+06 27746.4 0 -2.07154e+06 28132.7 0 -2.07162e+06 28519 0 -2.0717e+06 28905.4 0 -2.07178e+06 29291.8 0 -2.07187e+06 29678.3 0 -2.07195e+06 30064.8 0 -2.07204e+06 30451.4 0 -2.07213e+06 30838 0 -2.07221e+06 31224.6 0 -2.0723e+06 31611.3 0 -2.07239e+06 31998 0 -2.07249e+06 32384.8 0 -2.07258e+06 32771.6 0 -2.07267e+06 33158.4 0 -2.07277e+06 33545.3 0 -2.07287e+06 33932.3 0 -2.07296e+06 34319.3 0 -2.07306e+06 34706.3 0 -2.07316e+06 35093.4 0 -2.07326e+06 35480.6 0 -2.07336e+06 35867.8 0 -2.07347e+06 36255 0 -2.07357e+06 36642.3 0 -2.07368e+06 37029.7 0 -2.07378e+06 37417.1 0 -2.07389e+06 37804.5 0 -2.074e+06 38192 0 -2.07411e+06 38579.6 0 -2.07422e+06 38967.2 0 -2.07433e+06 39354.8 0 -2.07444e+06 39742.6 0 -2.07456e+06 40130.3 0 -2.07467e+06 40518.2 0 -2.07479e+06 40906 0 -2.07491e+06 41294 0 -2.07502e+06 41682 0 -2.07514e+06 42070.1 0 -2.07526e+06 42458.2 0 -2.07539e+06 42846.3 0 -2.07551e+06 43234.6 0 -2.07563e+06 43622.9 0 -2.07576e+06 44011.2 0 -2.07588e+06 44399.7 0 -2.07601e+06 44788.1 0 -2.07614e+06 45176.7 0 -2.07627e+06 45565.3 0 -2.0764e+06 45954 0 -2.07653e+06 46342.7 0 -2.07666e+06 46731.5 0 -2.0768e+06 47120.4 0 -2.07693e+06 47509.3 0 -2.07707e+06 47898.3 0 -2.07721e+06 48287.4 0 -2.07735e+06 48676.5 0 -2.07749e+06 49065.7 0 -2.06829e+06 0 0 -2.06829e+06 390.731 0 -2.06829e+06 781.463 0 -2.0683e+06 1172.2 0 -2.0683e+06 1562.93 0 -2.06831e+06 1953.67 0 -2.06831e+06 2344.41 0 -2.06832e+06 2735.15 0 -2.06833e+06 3125.89 0 -2.06834e+06 3516.65 0 -2.06835e+06 3907.4 0 -2.06836e+06 4298.16 0 -2.06837e+06 4688.93 0 -2.06839e+06 5079.71 0 -2.0684e+06 5470.49 0 -2.06842e+06 5861.28 0 -2.06844e+06 6252.07 0 -2.06846e+06 6642.88 0 -2.06848e+06 7033.7 0 -2.0685e+06 7424.52 0 -2.06852e+06 7815.36 0 -2.06854e+06 8206.21 0 -2.06857e+06 8597.07 0 -2.06859e+06 8987.94 0 -2.06862e+06 9378.82 0 -2.06864e+06 9769.72 0 -2.06867e+06 10160.6 0 -2.0687e+06 10551.6 0 -2.06873e+06 10942.5 0 -2.06877e+06 11333.5 0 -2.0688e+06 11724.4 0 -2.06883e+06 12115.4 0 -2.06887e+06 12506.4 0 -2.06891e+06 12897.4 0 -2.06894e+06 13288.5 0 -2.06898e+06 13679.5 0 -2.06902e+06 14070.6 0 -2.06906e+06 14461.7 0 -2.06911e+06 14852.9 0 -2.06915e+06 15244 0 -2.06919e+06 15635.2 0 -2.06924e+06 16026.3 0 -2.06929e+06 16417.6 0 -2.06933e+06 16808.8 0 -2.06938e+06 17200 0 -2.06943e+06 17591.3 0 -2.06949e+06 17982.6 0 -2.06954e+06 18374 0 -2.06959e+06 18765.3 0 -2.06965e+06 19156.7 0 -2.0697e+06 19548.1 0 -2.06976e+06 19939.6 0 -2.06982e+06 20331 0 -2.06988e+06 20722.5 0 -2.06994e+06 21114 0 -2.07e+06 21505.6 0 -2.07006e+06 21897.2 0 -2.07012e+06 22288.8 0 -2.07019e+06 22680.5 0 -2.07026e+06 23072.1 0 -2.07032e+06 23463.8 0 -2.07039e+06 23855.6 0 -2.07046e+06 24247.4 0 -2.07053e+06 24639.2 0 -2.0706e+06 25031 0 -2.07067e+06 25422.9 0 -2.07075e+06 25814.9 0 -2.07082e+06 26206.8 0 -2.0709e+06 26598.8 0 -2.07098e+06 26990.9 0 -2.07106e+06 27382.9 0 -2.07114e+06 27775 0 -2.07122e+06 28167.2 0 -2.0713e+06 28559.4 0 -2.07138e+06 28951.6 0 -2.07146e+06 29343.9 0 -2.07155e+06 29736.2 0 -2.07164e+06 30128.6 0 -2.07172e+06 30521 0 -2.07181e+06 30913.4 0 -2.0719e+06 31305.9 0 -2.07199e+06 31698.4 0 -2.07208e+06 32091 0 -2.07218e+06 32483.6 0 -2.07227e+06 32876.3 0 -2.07237e+06 33269 0 -2.07246e+06 33661.8 0 -2.07256e+06 34054.6 0 -2.07266e+06 34447.5 0 -2.07276e+06 34840.4 0 -2.07286e+06 35233.3 0 -2.07296e+06 35626.4 0 -2.07307e+06 36019.4 0 -2.07317e+06 36412.5 0 -2.07328e+06 36805.7 0 -2.07338e+06 37198.9 0 -2.07349e+06 37592.2 0 -2.0736e+06 37985.5 0 -2.07371e+06 38378.9 0 -2.07382e+06 38772.3 0 -2.07393e+06 39165.8 0 -2.07405e+06 39559.4 0 -2.07416e+06 39953 0 -2.07428e+06 40346.6 0 -2.0744e+06 40740.3 0 -2.07451e+06 41134.1 0 -2.07463e+06 41528 0 -2.07475e+06 41921.8 0 -2.07487e+06 42315.8 0 -2.075e+06 42709.8 0 -2.07512e+06 43103.9 0 -2.07525e+06 43498 0 -2.07537e+06 43892.2 0 -2.0755e+06 44286.5 0 -2.07563e+06 44680.8 0 -2.07576e+06 45075.2 0 -2.07589e+06 45469.7 0 -2.07602e+06 45864.2 0 -2.07615e+06 46258.8 0 -2.07629e+06 46653.4 0 -2.07642e+06 47048.1 0 -2.07656e+06 47442.9 0 -2.07669e+06 47837.8 0 -2.07683e+06 48232.7 0 -2.07697e+06 48627.7 0 -2.07711e+06 49022.8 0 -2.07725e+06 49417.9 0 -2.0774e+06 49813.1 0 -2.06798e+06 0 0 -2.06798e+06 396.58 0 -2.06798e+06 793.16 0 -2.06798e+06 1189.74 0 -2.06799e+06 1586.32 0 -2.06799e+06 1982.91 0 -2.068e+06 2379.5 0 -2.06801e+06 2776.09 0 -2.06802e+06 3172.68 0 -2.06803e+06 3569.28 0 -2.06804e+06 3965.89 0 -2.06805e+06 4362.5 0 -2.06806e+06 4759.12 0 -2.06808e+06 5155.74 0 -2.06809e+06 5552.38 0 -2.06811e+06 5949.02 0 -2.06813e+06 6345.66 0 -2.06815e+06 6742.32 0 -2.06817e+06 7138.99 0 -2.06819e+06 7535.67 0 -2.06821e+06 7932.36 0 -2.06823e+06 8329.06 0 -2.06826e+06 8725.77 0 -2.06828e+06 9122.5 0 -2.06831e+06 9519.24 0 -2.06834e+06 9915.99 0 -2.06837e+06 10312.8 0 -2.0684e+06 10709.5 0 -2.06843e+06 11106.3 0 -2.06846e+06 11503.1 0 -2.0685e+06 11900 0 -2.06853e+06 12296.8 0 -2.06857e+06 12693.7 0 -2.06861e+06 13090.6 0 -2.06865e+06 13487.5 0 -2.06869e+06 13884.4 0 -2.06873e+06 14281.3 0 -2.06877e+06 14678.3 0 -2.06881e+06 15075.3 0 -2.06886e+06 15472.3 0 -2.0689e+06 15869.3 0 -2.06895e+06 16266.4 0 -2.069e+06 16663.5 0 -2.06905e+06 17060.6 0 -2.0691e+06 17457.7 0 -2.06915e+06 17854.8 0 -2.0692e+06 18252 0 -2.06926e+06 18649.2 0 -2.06931e+06 19046.5 0 -2.06937e+06 19443.7 0 -2.06942e+06 19841 0 -2.06948e+06 20238.3 0 -2.06954e+06 20635.7 0 -2.0696e+06 21033 0 -2.06966e+06 21430.4 0 -2.06973e+06 21827.9 0 -2.06979e+06 22225.4 0 -2.06986e+06 22622.9 0 -2.06992e+06 23020.4 0 -2.06999e+06 23418 0 -2.07006e+06 23815.6 0 -2.07013e+06 24213.2 0 -2.0702e+06 24610.9 0 -2.07027e+06 25008.6 0 -2.07035e+06 25406.3 0 -2.07042e+06 25804.1 0 -2.0705e+06 26201.9 0 -2.07057e+06 26599.8 0 -2.07065e+06 26997.7 0 -2.07073e+06 27395.6 0 -2.07081e+06 27793.6 0 -2.07089e+06 28191.6 0 -2.07098e+06 28589.7 0 -2.07106e+06 28987.8 0 -2.07114e+06 29385.9 0 -2.07123e+06 29784.1 0 -2.07132e+06 30182.3 0 -2.07141e+06 30580.6 0 -2.0715e+06 30978.9 0 -2.07159e+06 31377.3 0 -2.07168e+06 31775.7 0 -2.07177e+06 32174.2 0 -2.07187e+06 32572.7 0 -2.07196e+06 32971.2 0 -2.07206e+06 33369.8 0 -2.07216e+06 33768.5 0 -2.07225e+06 34167.1 0 -2.07235e+06 34565.9 0 -2.07246e+06 34964.7 0 -2.07256e+06 35363.5 0 -2.07266e+06 35762.4 0 -2.07277e+06 36161.4 0 -2.07287e+06 36560.4 0 -2.07298e+06 36959.5 0 -2.07309e+06 37358.6 0 -2.0732e+06 37757.7 0 -2.07331e+06 38157 0 -2.07342e+06 38556.2 0 -2.07353e+06 38955.6 0 -2.07365e+06 39355 0 -2.07376e+06 39754.4 0 -2.07388e+06 40153.9 0 -2.074e+06 40553.5 0 -2.07411e+06 40953.1 0 -2.07423e+06 41352.8 0 -2.07436e+06 41752.6 0 -2.07448e+06 42152.4 0 -2.0746e+06 42552.2 0 -2.07473e+06 42952.2 0 -2.07485e+06 43352.2 0 -2.07498e+06 43752.2 0 -2.07511e+06 44152.3 0 -2.07523e+06 44552.5 0 -2.07537e+06 44952.8 0 -2.0755e+06 45353.1 0 -2.07563e+06 45753.5 0 -2.07576e+06 46154 0 -2.0759e+06 46554.5 0 -2.07603e+06 46955.1 0 -2.07617e+06 47355.7 0 -2.07631e+06 47756.5 0 -2.07645e+06 48157.2 0 -2.07659e+06 48558.1 0 -2.07673e+06 48959.1 0 -2.07688e+06 49360.1 0 -2.07702e+06 49761.2 0 -2.07717e+06 50162.3 0 -2.07731e+06 50563.6 0 -2.06766e+06 0 0 -2.06767e+06 402.45 0 -2.06767e+06 804.901 0 -2.06767e+06 1207.35 0 -2.06767e+06 1609.81 0 -2.06768e+06 2012.26 0 -2.06769e+06 2414.72 0 -2.06769e+06 2817.19 0 -2.0677e+06 3219.65 0 -2.06771e+06 3622.13 0 -2.06772e+06 4024.6 0 -2.06774e+06 4427.09 0 -2.06775e+06 4829.58 0 -2.06776e+06 5232.07 0 -2.06778e+06 5634.58 0 -2.0678e+06 6037.09 0 -2.06782e+06 6439.62 0 -2.06784e+06 6842.15 0 -2.06786e+06 7244.69 0 -2.06788e+06 7647.24 0 -2.0679e+06 8049.81 0 -2.06793e+06 8452.38 0 -2.06795e+06 8854.97 0 -2.06798e+06 9257.58 0 -2.06801e+06 9660.19 0 -2.06803e+06 10062.8 0 -2.06806e+06 10465.5 0 -2.0681e+06 10868.1 0 -2.06813e+06 11270.8 0 -2.06816e+06 11673.5 0 -2.0682e+06 12076.2 0 -2.06823e+06 12478.9 0 -2.06827e+06 12881.7 0 -2.06831e+06 13284.5 0 -2.06835e+06 13687.2 0 -2.06839e+06 14090.1 0 -2.06843e+06 14492.9 0 -2.06847e+06 14895.7 0 -2.06852e+06 15298.6 0 -2.06856e+06 15701.5 0 -2.06861e+06 16104.4 0 -2.06866e+06 16507.4 0 -2.06871e+06 16910.3 0 -2.06876e+06 17313.3 0 -2.06881e+06 17716.3 0 -2.06886e+06 18119.4 0 -2.06892e+06 18522.5 0 -2.06897e+06 18925.6 0 -2.06903e+06 19328.7 0 -2.06909e+06 19731.8 0 -2.06914e+06 20135 0 -2.0692e+06 20538.2 0 -2.06927e+06 20941.5 0 -2.06933e+06 21344.8 0 -2.06939e+06 21748.1 0 -2.06946e+06 22151.4 0 -2.06952e+06 22554.8 0 -2.06959e+06 22958.2 0 -2.06966e+06 23361.7 0 -2.06973e+06 23765.1 0 -2.0698e+06 24168.7 0 -2.06987e+06 24572.2 0 -2.06994e+06 24975.8 0 -2.07001e+06 25379.4 0 -2.07009e+06 25783.1 0 -2.07017e+06 26186.8 0 -2.07024e+06 26590.5 0 -2.07032e+06 26994.3 0 -2.0704e+06 27398.1 0 -2.07048e+06 27802 0 -2.07057e+06 28205.9 0 -2.07065e+06 28609.8 0 -2.07073e+06 29013.8 0 -2.07082e+06 29417.9 0 -2.07091e+06 29821.9 0 -2.071e+06 30226.1 0 -2.07109e+06 30630.2 0 -2.07118e+06 31034.4 0 -2.07127e+06 31438.7 0 -2.07136e+06 31843 0 -2.07146e+06 32247.3 0 -2.07155e+06 32651.7 0 -2.07165e+06 33056.2 0 -2.07175e+06 33460.7 0 -2.07184e+06 33865.2 0 -2.07194e+06 34269.8 0 -2.07205e+06 34674.5 0 -2.07215e+06 35079.2 0 -2.07225e+06 35484 0 -2.07236e+06 35888.8 0 -2.07246e+06 36293.6 0 -2.07257e+06 36698.6 0 -2.07268e+06 37103.5 0 -2.07279e+06 37508.6 0 -2.0729e+06 37913.6 0 -2.07301e+06 38318.8 0 -2.07313e+06 38724 0 -2.07324e+06 39129.2 0 -2.07336e+06 39534.6 0 -2.07347e+06 39939.9 0 -2.07359e+06 40345.4 0 -2.07371e+06 40750.9 0 -2.07383e+06 41156.4 0 -2.07395e+06 41562 0 -2.07407e+06 41967.7 0 -2.0742e+06 42373.5 0 -2.07432e+06 42779.3 0 -2.07445e+06 43185.2 0 -2.07458e+06 43591.1 0 -2.07471e+06 43997.1 0 -2.07484e+06 44403.2 0 -2.07497e+06 44809.3 0 -2.0751e+06 45215.5 0 -2.07523e+06 45621.8 0 -2.07537e+06 46028.1 0 -2.0755e+06 46434.5 0 -2.07564e+06 46841 0 -2.07578e+06 47247.6 0 -2.07592e+06 47654.2 0 -2.07606e+06 48060.9 0 -2.0762e+06 48467.6 0 -2.07634e+06 48874.5 0 -2.07649e+06 49281.4 0 -2.07663e+06 49688.4 0 -2.07678e+06 50095.4 0 -2.07693e+06 50502.6 0 -2.07708e+06 50909.8 0 -2.07723e+06 51317.1 0 -2.06735e+06 0 0 -2.06735e+06 408.344 0 -2.06735e+06 816.688 0 -2.06735e+06 1225.03 0 -2.06736e+06 1633.38 0 -2.06736e+06 2041.73 0 -2.06737e+06 2450.08 0 -2.06738e+06 2858.44 0 -2.06739e+06 3266.8 0 -2.0674e+06 3675.17 0 -2.06741e+06 4083.54 0 -2.06742e+06 4491.92 0 -2.06744e+06 4900.3 0 -2.06745e+06 5308.7 0 -2.06747e+06 5717.1 0 -2.06749e+06 6125.51 0 -2.0675e+06 6533.93 0 -2.06752e+06 6942.35 0 -2.06755e+06 7350.79 0 -2.06757e+06 7759.24 0 -2.06759e+06 8167.71 0 -2.06762e+06 8576.18 0 -2.06764e+06 8984.67 0 -2.06767e+06 9393.17 0 -2.0677e+06 9801.69 0 -2.06773e+06 10210.2 0 -2.06776e+06 10618.8 0 -2.06779e+06 11027.3 0 -2.06782e+06 11435.9 0 -2.06786e+06 11844.5 0 -2.0679e+06 12253.1 0 -2.06793e+06 12661.8 0 -2.06797e+06 13070.4 0 -2.06801e+06 13479.1 0 -2.06805e+06 13887.8 0 -2.06809e+06 14296.5 0 -2.06814e+06 14705.2 0 -2.06818e+06 15114 0 -2.06823e+06 15522.8 0 -2.06827e+06 15931.6 0 -2.06832e+06 16340.4 0 -2.06837e+06 16749.3 0 -2.06842e+06 17158.1 0 -2.06847e+06 17567.1 0 -2.06852e+06 17976 0 -2.06858e+06 18384.9 0 -2.06863e+06 18793.9 0 -2.06869e+06 19203 0 -2.06875e+06 19612 0 -2.06881e+06 20021.1 0 -2.06887e+06 20430.2 0 -2.06893e+06 20839.3 0 -2.06899e+06 21248.5 0 -2.06905e+06 21657.7 0 -2.06912e+06 22066.9 0 -2.06918e+06 22476.2 0 -2.06925e+06 22885.5 0 -2.06932e+06 23294.9 0 -2.06939e+06 23704.2 0 -2.06946e+06 24113.7 0 -2.06953e+06 24523.1 0 -2.06961e+06 24932.6 0 -2.06968e+06 25342.1 0 -2.06976e+06 25751.7 0 -2.06983e+06 26161.3 0 -2.06991e+06 26570.9 0 -2.06999e+06 26980.6 0 -2.07007e+06 27390.3 0 -2.07015e+06 27800.1 0 -2.07024e+06 28209.9 0 -2.07032e+06 28619.8 0 -2.07041e+06 29029.7 0 -2.07049e+06 29439.6 0 -2.07058e+06 29849.6 0 -2.07067e+06 30259.6 0 -2.07076e+06 30669.7 0 -2.07085e+06 31079.8 0 -2.07095e+06 31490 0 -2.07104e+06 31900.2 0 -2.07114e+06 32310.5 0 -2.07123e+06 32720.8 0 -2.07133e+06 33131.2 0 -2.07143e+06 33541.6 0 -2.07153e+06 33952.1 0 -2.07163e+06 34362.6 0 -2.07173e+06 34773.2 0 -2.07184e+06 35183.8 0 -2.07194e+06 35594.5 0 -2.07205e+06 36005.3 0 -2.07216e+06 36416.1 0 -2.07227e+06 36826.9 0 -2.07238e+06 37237.8 0 -2.07249e+06 37648.8 0 -2.0726e+06 38059.8 0 -2.07271e+06 38470.9 0 -2.07283e+06 38882 0 -2.07294e+06 39293.2 0 -2.07306e+06 39704.5 0 -2.07318e+06 40115.8 0 -2.0733e+06 40527.2 0 -2.07342e+06 40938.7 0 -2.07354e+06 41350.2 0 -2.07367e+06 41761.8 0 -2.07379e+06 42173.4 0 -2.07392e+06 42585.1 0 -2.07404e+06 42996.9 0 -2.07417e+06 43408.7 0 -2.0743e+06 43820.6 0 -2.07443e+06 44232.6 0 -2.07456e+06 44644.6 0 -2.0747e+06 45056.7 0 -2.07483e+06 45468.9 0 -2.07497e+06 45881.1 0 -2.0751e+06 46293.5 0 -2.07524e+06 46705.8 0 -2.07538e+06 47118.3 0 -2.07552e+06 47530.8 0 -2.07566e+06 47943.4 0 -2.07581e+06 48356.1 0 -2.07595e+06 48768.9 0 -2.0761e+06 49181.7 0 -2.07624e+06 49594.6 0 -2.07639e+06 50007.6 0 -2.07654e+06 50420.7 0 -2.07669e+06 50833.8 0 -2.07684e+06 51247 0 -2.07699e+06 51660.3 0 -2.07715e+06 52073.7 0 -2.06703e+06 0 0 -2.06703e+06 414.26 0 -2.06704e+06 828.52 0 -2.06704e+06 1242.78 0 -2.06704e+06 1657.04 0 -2.06705e+06 2071.31 0 -2.06706e+06 2485.58 0 -2.06706e+06 2899.85 0 -2.06707e+06 3314.13 0 -2.06708e+06 3728.41 0 -2.0671e+06 4142.7 0 -2.06711e+06 4557 0 -2.06712e+06 4971.3 0 -2.06714e+06 5385.61 0 -2.06716e+06 5799.93 0 -2.06717e+06 6214.26 0 -2.06719e+06 6628.59 0 -2.06721e+06 7042.94 0 -2.06723e+06 7457.3 0 -2.06726e+06 7871.67 0 -2.06728e+06 8286.05 0 -2.06731e+06 8700.45 0 -2.06733e+06 9114.86 0 -2.06736e+06 9529.28 0 -2.06739e+06 9943.72 0 -2.06742e+06 10358.2 0 -2.06745e+06 10772.6 0 -2.06749e+06 11187.1 0 -2.06752e+06 11601.6 0 -2.06756e+06 12016.2 0 -2.06759e+06 12430.7 0 -2.06763e+06 12845.3 0 -2.06767e+06 13259.8 0 -2.06771e+06 13674.4 0 -2.06775e+06 14089.1 0 -2.06779e+06 14503.7 0 -2.06784e+06 14918.4 0 -2.06788e+06 15333.1 0 -2.06793e+06 15747.8 0 -2.06798e+06 16162.5 0 -2.06803e+06 16577.3 0 -2.06808e+06 16992.1 0 -2.06813e+06 17406.9 0 -2.06818e+06 17821.8 0 -2.06824e+06 18236.6 0 -2.06829e+06 18651.5 0 -2.06835e+06 19066.5 0 -2.06841e+06 19481.4 0 -2.06846e+06 19896.4 0 -2.06852e+06 20311.4 0 -2.06859e+06 20726.5 0 -2.06865e+06 21141.6 0 -2.06871e+06 21556.7 0 -2.06878e+06 21971.9 0 -2.06884e+06 22387 0 -2.06891e+06 22802.3 0 -2.06898e+06 23217.5 0 -2.06905e+06 23632.8 0 -2.06912e+06 24048.2 0 -2.0692e+06 24463.5 0 -2.06927e+06 24878.9 0 -2.06935e+06 25294.4 0 -2.06942e+06 25709.9 0 -2.0695e+06 26125.4 0 -2.06958e+06 26541 0 -2.06966e+06 26956.6 0 -2.06974e+06 27372.2 0 -2.06982e+06 27787.9 0 -2.06991e+06 28203.7 0 -2.06999e+06 28619.4 0 -2.07008e+06 29035.3 0 -2.07017e+06 29451.2 0 -2.07025e+06 29867.1 0 -2.07034e+06 30283 0 -2.07044e+06 30699.1 0 -2.07053e+06 31115.1 0 -2.07062e+06 31531.2 0 -2.07072e+06 31947.4 0 -2.07081e+06 32363.6 0 -2.07091e+06 32779.9 0 -2.07101e+06 33196.2 0 -2.07111e+06 33612.5 0 -2.07121e+06 34029 0 -2.07131e+06 34445.4 0 -2.07142e+06 34862 0 -2.07152e+06 35278.6 0 -2.07163e+06 35695.2 0 -2.07174e+06 36111.9 0 -2.07185e+06 36528.6 0 -2.07196e+06 36945.4 0 -2.07207e+06 37362.3 0 -2.07218e+06 37779.2 0 -2.07229e+06 38196.2 0 -2.07241e+06 38613.3 0 -2.07253e+06 39030.4 0 -2.07264e+06 39447.5 0 -2.07276e+06 39864.8 0 -2.07288e+06 40282.1 0 -2.073e+06 40699.4 0 -2.07313e+06 41116.8 0 -2.07325e+06 41534.3 0 -2.07338e+06 41951.9 0 -2.0735e+06 42369.5 0 -2.07363e+06 42787.2 0 -2.07376e+06 43204.9 0 -2.07389e+06 43622.7 0 -2.07402e+06 44040.6 0 -2.07415e+06 44458.6 0 -2.07429e+06 44876.6 0 -2.07442e+06 45294.7 0 -2.07456e+06 45712.9 0 -2.0747e+06 46131.1 0 -2.07483e+06 46549.4 0 -2.07497e+06 46967.8 0 -2.07512e+06 47386.3 0 -2.07526e+06 47804.8 0 -2.0754e+06 48223.4 0 -2.07555e+06 48642.1 0 -2.07569e+06 49060.9 0 -2.07584e+06 49479.7 0 -2.07599e+06 49898.6 0 -2.07614e+06 50317.6 0 -2.07629e+06 50736.7 0 -2.07644e+06 51155.9 0 -2.0766e+06 51575.1 0 -2.07675e+06 51994.5 0 -2.07691e+06 52413.9 0 -2.07707e+06 52833.3 0 -2.06672e+06 0 0 -2.06672e+06 420.198 0 -2.06672e+06 840.396 0 -2.06672e+06 1260.6 0 -2.06673e+06 1680.8 0 -2.06673e+06 2101 0 -2.06674e+06 2521.21 0 -2.06675e+06 2941.42 0 -2.06676e+06 3361.64 0 -2.06677e+06 3781.86 0 -2.06678e+06 4202.09 0 -2.06679e+06 4622.32 0 -2.06681e+06 5042.57 0 -2.06682e+06 5462.82 0 -2.06684e+06 5883.08 0 -2.06686e+06 6303.34 0 -2.06688e+06 6723.62 0 -2.0669e+06 7143.91 0 -2.06692e+06 7564.21 0 -2.06695e+06 7984.53 0 -2.06697e+06 8404.85 0 -2.067e+06 8825.19 0 -2.06702e+06 9245.54 0 -2.06705e+06 9665.91 0 -2.06708e+06 10086.3 0 -2.06711e+06 10506.7 0 -2.06715e+06 10927.1 0 -2.06718e+06 11347.5 0 -2.06722e+06 11768 0 -2.06725e+06 12188.5 0 -2.06729e+06 12609 0 -2.06733e+06 13029.5 0 -2.06737e+06 13450 0 -2.06741e+06 13870.6 0 -2.06745e+06 14291.1 0 -2.0675e+06 14711.7 0 -2.06754e+06 15132.4 0 -2.06759e+06 15553 0 -2.06764e+06 15973.7 0 -2.06768e+06 16394.4 0 -2.06773e+06 16815.1 0 -2.06779e+06 17235.8 0 -2.06784e+06 17656.6 0 -2.06789e+06 18077.4 0 -2.06795e+06 18498.3 0 -2.068e+06 18919.1 0 -2.06806e+06 19340 0 -2.06812e+06 19760.9 0 -2.06818e+06 20181.9 0 -2.06824e+06 20602.9 0 -2.06831e+06 21023.9 0 -2.06837e+06 21445 0 -2.06844e+06 21866.1 0 -2.0685e+06 22287.2 0 -2.06857e+06 22708.4 0 -2.06864e+06 23129.6 0 -2.06871e+06 23550.8 0 -2.06878e+06 23972.1 0 -2.06886e+06 24393.4 0 -2.06893e+06 24814.7 0 -2.06901e+06 25236.1 0 -2.06908e+06 25657.6 0 -2.06916e+06 26079 0 -2.06924e+06 26500.5 0 -2.06932e+06 26922.1 0 -2.0694e+06 27343.7 0 -2.06949e+06 27765.3 0 -2.06957e+06 28187 0 -2.06966e+06 28608.8 0 -2.06975e+06 29030.6 0 -2.06983e+06 29452.4 0 -2.06992e+06 29874.3 0 -2.07001e+06 30296.2 0 -2.07011e+06 30718.2 0 -2.0702e+06 31140.2 0 -2.0703e+06 31562.2 0 -2.07039e+06 31984.4 0 -2.07049e+06 32406.5 0 -2.07059e+06 32828.8 0 -2.07069e+06 33251 0 -2.07079e+06 33673.4 0 -2.07089e+06 34095.8 0 -2.071e+06 34518.2 0 -2.0711e+06 34940.7 0 -2.07121e+06 35363.3 0 -2.07131e+06 35785.9 0 -2.07142e+06 36208.5 0 -2.07153e+06 36631.3 0 -2.07164e+06 37054 0 -2.07176e+06 37476.9 0 -2.07187e+06 37899.8 0 -2.07199e+06 38322.8 0 -2.0721e+06 38745.8 0 -2.07222e+06 39168.9 0 -2.07234e+06 39592 0 -2.07246e+06 40015.2 0 -2.07258e+06 40438.5 0 -2.07271e+06 40861.9 0 -2.07283e+06 41285.3 0 -2.07296e+06 41708.8 0 -2.07308e+06 42132.3 0 -2.07321e+06 42555.9 0 -2.07334e+06 42979.6 0 -2.07347e+06 43403.4 0 -2.0736e+06 43827.2 0 -2.07374e+06 44251.1 0 -2.07387e+06 44675 0 -2.07401e+06 45099.1 0 -2.07414e+06 45523.2 0 -2.07428e+06 45947.4 0 -2.07442e+06 46371.6 0 -2.07456e+06 46796 0 -2.0747e+06 47220.4 0 -2.07485e+06 47644.9 0 -2.07499e+06 48069.4 0 -2.07514e+06 48494.1 0 -2.07528e+06 48918.8 0 -2.07543e+06 49343.6 0 -2.07558e+06 49768.5 0 -2.07573e+06 50193.4 0 -2.07589e+06 50618.5 0 -2.07604e+06 51043.6 0 -2.0762e+06 51468.8 0 -2.07635e+06 51894.1 0 -2.07651e+06 52319.5 0 -2.07667e+06 52744.9 0 -2.07683e+06 53170.5 0 -2.07699e+06 53596.1 0 -2.0664e+06 0 0 -2.0664e+06 426.158 0 -2.0664e+06 852.318 0 -2.06641e+06 1278.48 0 -2.06641e+06 1704.64 0 -2.06642e+06 2130.81 0 -2.06642e+06 2556.97 0 -2.06643e+06 2983.15 0 -2.06644e+06 3409.33 0 -2.06645e+06 3835.51 0 -2.06646e+06 4261.7 0 -2.06648e+06 4687.9 0 -2.06649e+06 5114.1 0 -2.06651e+06 5540.31 0 -2.06653e+06 5966.54 0 -2.06655e+06 6392.77 0 -2.06657e+06 6819.01 0 -2.06659e+06 7245.26 0 -2.06661e+06 7671.53 0 -2.06663e+06 8097.81 0 -2.06666e+06 8524.1 0 -2.06669e+06 8950.4 0 -2.06671e+06 9376.72 0 -2.06674e+06 9803.06 0 -2.06677e+06 10229.4 0 -2.06681e+06 10655.8 0 -2.06684e+06 11082.2 0 -2.06687e+06 11508.6 0 -2.06691e+06 11935 0 -2.06695e+06 12361.4 0 -2.06699e+06 12787.9 0 -2.06703e+06 13214.4 0 -2.06707e+06 13640.9 0 -2.06711e+06 14067.4 0 -2.06715e+06 14494 0 -2.0672e+06 14920.5 0 -2.06724e+06 15347.1 0 -2.06729e+06 15773.8 0 -2.06734e+06 16200.4 0 -2.06739e+06 16627.1 0 -2.06744e+06 17053.8 0 -2.06749e+06 17480.5 0 -2.06755e+06 17907.3 0 -2.0676e+06 18334.1 0 -2.06766e+06 18760.9 0 -2.06772e+06 19187.7 0 -2.06778e+06 19614.6 0 -2.06784e+06 20041.5 0 -2.0679e+06 20468.5 0 -2.06796e+06 20895.5 0 -2.06803e+06 21322.5 0 -2.06809e+06 21749.5 0 -2.06816e+06 22176.6 0 -2.06823e+06 22603.7 0 -2.0683e+06 23030.9 0 -2.06837e+06 23458.1 0 -2.06844e+06 23885.3 0 -2.06851e+06 24312.6 0 -2.06859e+06 24739.9 0 -2.06867e+06 25167.3 0 -2.06874e+06 25594.7 0 -2.06882e+06 26022.1 0 -2.0689e+06 26449.6 0 -2.06898e+06 26877.1 0 -2.06907e+06 27304.7 0 -2.06915e+06 27732.3 0 -2.06924e+06 28160 0 -2.06932e+06 28587.7 0 -2.06941e+06 29015.4 0 -2.0695e+06 29443.2 0 -2.06959e+06 29871.1 0 -2.06968e+06 30299 0 -2.06977e+06 30726.9 0 -2.06987e+06 31154.9 0 -2.06997e+06 31583 0 -2.07006e+06 32011.1 0 -2.07016e+06 32439.2 0 -2.07026e+06 32867.5 0 -2.07036e+06 33295.7 0 -2.07046e+06 33724 0 -2.07057e+06 34152.4 0 -2.07067e+06 34580.8 0 -2.07078e+06 35009.3 0 -2.07089e+06 35437.9 0 -2.07099e+06 35866.5 0 -2.0711e+06 36295.1 0 -2.07122e+06 36723.9 0 -2.07133e+06 37152.6 0 -2.07144e+06 37581.5 0 -2.07156e+06 38010.4 0 -2.07168e+06 38439.4 0 -2.07179e+06 38868.4 0 -2.07191e+06 39297.5 0 -2.07203e+06 39726.7 0 -2.07216e+06 40155.9 0 -2.07228e+06 40585.2 0 -2.0724e+06 41014.5 0 -2.07253e+06 41444 0 -2.07266e+06 41873.5 0 -2.07278e+06 42303 0 -2.07291e+06 42732.7 0 -2.07305e+06 43162.4 0 -2.07318e+06 43592.1 0 -2.07331e+06 44022 0 -2.07345e+06 44451.9 0 -2.07358e+06 44881.9 0 -2.07372e+06 45312 0 -2.07386e+06 45742.1 0 -2.074e+06 46172.4 0 -2.07414e+06 46602.6 0 -2.07428e+06 47033 0 -2.07443e+06 47463.5 0 -2.07457e+06 47894 0 -2.07472e+06 48324.6 0 -2.07487e+06 48755.3 0 -2.07502e+06 49186.1 0 -2.07517e+06 49616.9 0 -2.07532e+06 50047.9 0 -2.07547e+06 50478.9 0 -2.07563e+06 50910 0 -2.07579e+06 51341.2 0 -2.07594e+06 51772.4 0 -2.0761e+06 52203.8 0 -2.07626e+06 52635.2 0 -2.07642e+06 53066.8 0 -2.07659e+06 53498.4 0 -2.07675e+06 53930.1 0 -2.07691e+06 54361.9 0 -2.06608e+06 0 0 -2.06608e+06 432.141 0 -2.06608e+06 864.284 0 -2.06609e+06 1296.43 0 -2.06609e+06 1728.57 0 -2.0661e+06 2160.72 0 -2.06611e+06 2592.87 0 -2.06611e+06 3025.03 0 -2.06612e+06 3457.19 0 -2.06614e+06 3889.36 0 -2.06615e+06 4321.53 0 -2.06616e+06 4753.71 0 -2.06618e+06 5185.9 0 -2.06619e+06 5618.1 0 -2.06621e+06 6050.31 0 -2.06623e+06 6482.53 0 -2.06625e+06 6914.76 0 -2.06627e+06 7347 0 -2.0663e+06 7779.25 0 -2.06632e+06 8211.51 0 -2.06635e+06 8643.79 0 -2.06638e+06 9076.09 0 -2.0664e+06 9508.39 0 -2.06643e+06 9940.72 0 -2.06647e+06 10373.1 0 -2.0665e+06 10805.4 0 -2.06653e+06 11237.8 0 -2.06657e+06 11670.2 0 -2.0666e+06 12102.6 0 -2.06664e+06 12535 0 -2.06668e+06 12967.5 0 -2.06672e+06 13400 0 -2.06676e+06 13832.5 0 -2.06681e+0