<?xml version="1.0"?> 
<VTKFile type="StructuredGrid" version="0.1"> 
<StructuredGrid WholeExtent="0 127 0 127 0 0"> 
<Piece Extent="0 127 0 127 0 0"> 
<PointData>
<DataArray type="Float32" Name="|E|" format="ascii" NumberOfComponents="3"> 
-2.59646e+06 3.72504e+06 0 -2.6038e+06 3.74091e+06 0 -2.61111e+06 3.757e+06 0 -2.6184e+06 3.7733e+06 0 -2.62567e+06 3.78983e+06 0 -2.6329e+06 3.80657e+06 0 -2.6401e+06 3.82354e+06 0 -2.64726e+06 3.84075e+06 0 -2.65438e+06 3.85818e+06 0 -2.66146e+06 3.87586e+06 0 -2.66849e+06 3.89378e+06 0 -2.67547e+06 3.91194e+06 0 -2.68239e+06 3.93036e+06 0 -2.68925e+06 3.94903e+06 0 -2.69606e+06 3.96796e+06 0 -2.70279e+06 3.98715e+06 0 -2.70945e+06 4.0066e+06 0 -2.71603e+06 4.02633e+06 0 -2.72253e+06 4.04633e+06 0 -2.72894e+06 4.06662e+06 0 -2.73526e+06 4.08718e+06 0 -2.74148e+06 4.10804e+06 0 -2.7476e+06 4.12918e+06 0 -2.7536e+06 4.15062e+06 0 -2.75948e+06 4.17237e+06 0 -2.76525e+06 4.19441e+06 0 -2.77088e+06 4.21677e+06 0 -2.77637e+06 4.23944e+06 0 -2.78172e+06 4.26243e+06 0 -2.78691e+06 4.28574e+06 0 -2.79195e+06 4.30937e+06 0 -2.79681e+06 4.33334e+06 0 -2.8015e+06 4.35764e+06 0 -2.806e+06 4.38227e+06 0 -2.81031e+06 4.40725e+06 0 -2.81441e+06 4.43258e+06 0 -2.8183e+06 4.45826e+06 0 -2.82196e+06 4.48428e+06 0 -2.82539e+06 4.51067e+06 0 -2.82857e+06 4.53742e+06 0 -2.8315e+06 4.56453e+06 0 -2.83415e+06 4.592e+06 0 -2.83653e+06 4.61985e+06 0 -2.83861e+06 4.64807e+06 0 -2.84039e+06 4.67667e+06 0 -2.84185e+06 4.70564e+06 0 -2.84298e+06 4.73499e+06 0 -2.84376e+06 4.76473e+06 0 -2.84418e+06 4.79485e+06 0 -2.84422e+06 4.82536e+06 0 -2.84388e+06 4.85625e+06 0 -2.84313e+06 4.88753e+06 0 -2.84195e+06 4.9192e+06 0 -2.84034e+06 4.95125e+06 0 -2.83827e+06 4.9837e+06 0 -2.83572e+06 5.01653e+06 0 -2.83268e+06 5.04975e+06 0 -2.82914e+06 5.08335e+06 0 -2.82506e+06 5.11733e+06 0 -2.82043e+06 5.15169e+06 0 -2.81523e+06 5.18643e+06 0 -2.80944e+06 5.22154e+06 0 -2.80304e+06 5.25701e+06 0 -2.79601e+06 5.29285e+06 0 -2.78832e+06 5.32905e+06 0 -2.77995e+06 5.36559e+06 0 -2.77089e+06 5.40248e+06 0 -2.76109e+06 5.43969e+06 0 -2.75055e+06 5.47724e+06 0 -2.73924e+06 5.51509e+06 0 -2.72713e+06 5.55325e+06 0 -2.71419e+06 5.59169e+06 0 -2.70041e+06 5.63041e+06 0 -2.68575e+06 5.6694e+06 0 -2.67018e+06 5.70862e+06 0 -2.65369e+06 5.74808e+06 0 -2.63625e+06 5.78775e+06 0 -2.61782e+06 5.8276e+06 0 -2.59838e+06 5.86762e+06 0 -2.57791e+06 5.90779e+06 0 -2.55637e+06 5.94808e+06 0 -2.53373e+06 5.98847e+06 0 -2.50997e+06 6.02892e+06 0 -2.48507e+06 6.06941e+06 0 -2.45898e+06 6.10991e+06 0 -2.43169e+06 6.15038e+06 0 -2.40317e+06 6.19079e+06 0 -2.37339e+06 6.2311e+06 0 -2.34232e+06 6.27128e+06 0 -2.30994e+06 6.31127e+06 0 -2.27622e+06 6.35105e+06 0 -2.24114e+06 6.39056e+06 0 -2.20467e+06 6.42975e+06 0 -2.16679e+06 6.46858e+06 0 -2.12747e+06 6.50699e+06 0 -2.0867e+06 6.54493e+06 0 -2.04445e+06 6.58234e+06 0 -2.00071e+06 6.61917e+06 0 -1.95545e+06 6.65534e+06 0 -1.90867e+06 6.6908e+06 0 -1.86034e+06 6.72548e+06 0 -1.81046e+06 6.7593e+06 0 -1.75901e+06 6.79221e+06 0 -1.70599e+06 6.82412e+06 0 -1.65139e+06 6.85495e+06 0 -1.59521e+06 6.88463e+06 0 -1.53744e+06 6.91308e+06 0 -1.47809e+06 6.94021e+06 0 -1.41716e+06 6.96594e+06 0 -1.35465e+06 6.99018e+06 0 -1.29058e+06 7.01285e+06 0 -1.22496e+06 7.03386e+06 0 -1.15781e+06 7.05311e+06 0 -1.08913e+06 7.07054e+06 0 -1.01895e+06 7.08604e+06 0 -947292 7.09955e+06 0 -874174 7.111e+06 0 -799618 7.12035e+06 0 -723643 7.12756e+06 0 -646262 7.13265e+06 0 -567475 7.13574e+06 0 -487261 7.13705e+06 0 -405563 7.1371e+06 0 -322218 7.137e+06 0 -237028 7.1393e+06 0 -149688 7.15063e+06 0 -61378.9 7.19023e+06 0 15012.2 7.32372e+06 0 -2.52233e+06 3.61314e+06 0 -2.5297e+06 3.62836e+06 0 -2.53706e+06 3.64379e+06 0 -2.5444e+06 3.65943e+06 0 -2.55172e+06 3.67528e+06 0 -2.55902e+06 3.69134e+06 0 -2.56629e+06 3.70762e+06 0 -2.57353e+06 3.72413e+06 0 -2.58074e+06 3.74086e+06 0 -2.58792e+06 3.75781e+06 0 -2.59505e+06 3.775e+06 0 -2.60215e+06 3.79243e+06 0 -2.6092e+06 3.8101e+06 0 -2.6162e+06 3.82802e+06 0 -2.62315e+06 3.84618e+06 0 -2.63003e+06 3.8646e+06 0 -2.63686e+06 3.88328e+06 0 -2.64362e+06 3.90222e+06 0 -2.6503e+06 3.92142e+06 0 -2.65691e+06 3.9409e+06 0 -2.66344e+06 3.96064e+06 0 -2.66988e+06 3.98067e+06 0 -2.67623e+06 4.00098e+06 0 -2.68248e+06 4.02158e+06 0 -2.68862e+06 4.04247e+06 0 -2.69465e+06 4.06365e+06 0 -2.70057e+06 4.08514e+06 0 -2.70636e+06 4.10693e+06 0 -2.71202e+06 4.12903e+06 0 -2.71754e+06 4.15144e+06 0 -2.72292e+06 4.17417e+06 0 -2.72814e+06 4.19722e+06 0 -2.7332e+06 4.22059e+06 0 -2.73808e+06 4.2443e+06 0 -2.74279e+06 4.26834e+06 0 -2.74731e+06 4.29271e+06 0 -2.75164e+06 4.31743e+06 0 -2.75575e+06 4.34249e+06 0 -2.75965e+06 4.3679e+06 0 -2.76332e+06 4.39367e+06 0 -2.76675e+06 4.41979e+06 0 -2.76993e+06 4.44626e+06 0 -2.77285e+06 4.47311e+06 0 -2.7755e+06 4.50031e+06 0 -2.77786e+06 4.52789e+06 0 -2.77992e+06 4.55583e+06 0 -2.78167e+06 4.58415e+06 0 -2.78309e+06 4.61284e+06 0 -2.78418e+06 4.64191e+06 0 -2.78491e+06 4.67136e+06 0 -2.78528e+06 4.70119e+06 0 -2.78526e+06 4.7314e+06 0 -2.78484e+06 4.762e+06 0 -2.784e+06 4.79297e+06 0 -2.78273e+06 4.82433e+06 0 -2.78102e+06 4.85607e+06 0 -2.77883e+06 4.88818e+06 0 -2.77616e+06 4.92068e+06 0 -2.77299e+06 4.95355e+06 0 -2.76929e+06 4.9868e+06 0 -2.76504e+06 5.02042e+06 0 -2.76024e+06 5.05441e+06 0 -2.75485e+06 5.08876e+06 0 -2.74885e+06 5.12347e+06 0 -2.74223e+06 5.15852e+06 0 -2.73496e+06 5.19393e+06 0 -2.72702e+06 5.22967e+06 0 -2.71839e+06 5.26574e+06 0 -2.70903e+06 5.30214e+06 0 -2.69894e+06 5.33884e+06 0 -2.68808e+06 5.37584e+06 0 -2.67642e+06 5.41313e+06 0 -2.66396e+06 5.45069e+06 0 -2.65065e+06 5.48851e+06 0 -2.63647e+06 5.52657e+06 0 -2.6214e+06 5.56486e+06 0 -2.60542e+06 5.60336e+06 0 -2.58848e+06 5.64204e+06 0 -2.57058e+06 5.6809e+06 0 -2.55168e+06 5.71989e+06 0 -2.53175e+06 5.759e+06 0 -2.51076e+06 5.79821e+06 0 -2.4887e+06 5.83748e+06 0 -2.46553e+06 5.87679e+06 0 -2.44123e+06 5.91611e+06 0 -2.41577e+06 5.9554e+06 0 -2.38913e+06 5.99462e+06 0 -2.36127e+06 6.03375e+06 0 -2.33218e+06 6.07273e+06 0 -2.30182e+06 6.11154e+06 0 -2.27019e+06 6.15012e+06 0 -2.23724e+06 6.18844e+06 0 -2.20297e+06 6.22643e+06 0 -2.16734e+06 6.26407e+06 0 -2.13034e+06 6.30128e+06 0 -2.09195e+06 6.33802e+06 0 -2.05216e+06 6.37423e+06 0 -2.01094e+06 6.40984e+06 0 -1.96829e+06 6.44481e+06 0 -1.92418e+06 6.47905e+06 0 -1.87861e+06 6.51252e+06 0 -1.83158e+06 6.54513e+06 0 -1.78307e+06 6.57681e+06 0 -1.73308e+06 6.60749e+06 0 -1.68162e+06 6.63709e+06 0 -1.62867e+06 6.66554e+06 0 -1.57425e+06 6.69275e+06 0 -1.51836e+06 6.71863e+06 0 -1.46101e+06 6.7431e+06 0 -1.40222e+06 6.76608e+06 0 -1.342e+06 6.78746e+06 0 -1.28036e+06 6.80716e+06 0 -1.21733e+06 6.82508e+06 0 -1.15293e+06 6.84113e+06 0 -1.08719e+06 6.85521e+06 0 -1.02011e+06 6.86721e+06 0 -951722 6.87705e+06 0 -882037 6.88461e+06 0 -811053 6.88979e+06 0 -738749 6.89249e+06 0 -665068 6.8926e+06 0 -589900 6.88998e+06 0 -513043 6.88447e+06 0 -434163 6.87577e+06 0 -352747 6.86332e+06 0 -268147 6.84573e+06 0 -180090 6.81908e+06 0 -91295.7 6.77127e+06 0 -2.45092e+06 3.51259e+06 0 -2.45828e+06 3.52724e+06 0 -2.46565e+06 3.54209e+06 0 -2.47299e+06 3.55713e+06 0 -2.48033e+06 3.57238e+06 0 -2.48765e+06 3.58783e+06 0 -2.49495e+06 3.60349e+06 0 -2.50223e+06 3.61937e+06 0 -2.50949e+06 3.63546e+06 0 -2.51671e+06 3.65178e+06 0 -2.52391e+06 3.66831e+06 0 -2.53107e+06 3.68508e+06 0 -2.5382e+06 3.70208e+06 0 -2.54528e+06 3.71932e+06 0 -2.55232e+06 3.73679e+06 0 -2.55931e+06 3.75452e+06 0 -2.56624e+06 3.77249e+06 0 -2.57312e+06 3.79071e+06 0 -2.57994e+06 3.80919e+06 0 -2.58669e+06 3.82793e+06 0 -2.59337e+06 3.84694e+06 0 -2.59997e+06 3.86622e+06 0 -2.60649e+06 3.88577e+06 0 -2.61292e+06 3.90559e+06 0 -2.61926e+06 3.92571e+06 0 -2.6255e+06 3.94611e+06 0 -2.63163e+06 3.9668e+06 0 -2.63765e+06 3.98778e+06 0 -2.64355e+06 4.00907e+06 0 -2.64933e+06 4.03065e+06 0 -2.65498e+06 4.05255e+06 0 -2.66048e+06 4.07476e+06 0 -2.66584e+06 4.09729e+06 0 -2.67104e+06 4.12014e+06 0 -2.67607e+06 4.14331e+06 0 -2.68093e+06 4.16681e+06 0 -2.68561e+06 4.19065e+06 0 -2.6901e+06 4.21482e+06 0 -2.69439e+06 4.23933e+06 0 -2.69846e+06 4.26418e+06 0 -2.70232e+06 4.28939e+06 0 -2.70594e+06 4.31494e+06 0 -2.70932e+06 4.34085e+06 0 -2.71244e+06 4.36712e+06 0 -2.71529e+06 4.39375e+06 0 -2.71787e+06 4.42074e+06 0 -2.72015e+06 4.4481e+06 0 -2.72213e+06 4.47582e+06 0 -2.72379e+06 4.50392e+06 0 -2.72511e+06 4.53239e+06 0 -2.72609e+06 4.56123e+06 0 -2.72671e+06 4.59044e+06 0 -2.72695e+06 4.62003e+06 0 -2.72679e+06 4.65e+06 0 -2.72622e+06 4.68034e+06 0 -2.72523e+06 4.71106e+06 0 -2.7238e+06 4.74216e+06 0 -2.7219e+06 4.77362e+06 0 -2.71952e+06 4.80546e+06 0 -2.71665e+06 4.83767e+06 0 -2.71325e+06 4.87025e+06 0 -2.70932e+06 4.90319e+06 0 -2.70483e+06 4.93648e+06 0 -2.69977e+06 4.97014e+06 0 -2.6941e+06 5.00414e+06 0 -2.68782e+06 5.03848e+06 0 -2.68089e+06 5.07316e+06 0 -2.67329e+06 5.10816e+06 0 -2.66501e+06 5.14348e+06 0 -2.65602e+06 5.17911e+06 0 -2.64629e+06 5.21504e+06 0 -2.6358e+06 5.25125e+06 0 -2.62453e+06 5.28773e+06 0 -2.61245e+06 5.32448e+06 0 -2.59954e+06 5.36146e+06 0 -2.58576e+06 5.39867e+06 0 -2.57111e+06 5.43608e+06 0 -2.55554e+06 5.47369e+06 0 -2.53904e+06 5.51146e+06 0 -2.52158e+06 5.54937e+06 0 -2.50313e+06 5.58741e+06 0 -2.48367e+06 5.62554e+06 0 -2.46317e+06 5.66373e+06 0 -2.4416e+06 5.70197e+06 0 -2.41894e+06 5.74021e+06 0 -2.39517e+06 5.77843e+06 0 -2.37025e+06 5.81658e+06 0 -2.34418e+06 5.85464e+06 0 -2.31691e+06 5.89256e+06 0 -2.28843e+06 5.93031e+06 0 -2.25872e+06 5.96783e+06 0 -2.22776e+06 6.00509e+06 0 -2.19552e+06 6.04204e+06 0 -2.16198e+06 6.07863e+06 0 -2.12714e+06 6.1148e+06 0 -2.09096e+06 6.15051e+06 0 -2.05344e+06 6.18569e+06 0 -2.01457e+06 6.22028e+06 0 -1.97433e+06 6.25423e+06 0 -1.93271e+06 6.28747e+06 0 -1.88971e+06 6.31993e+06 0 -1.84532e+06 6.35155e+06 0 -1.79954e+06 6.38226e+06 0 -1.75238e+06 6.41197e+06 0 -1.70382e+06 6.44061e+06 0 -1.65389e+06 6.46811e+06 0 -1.60259e+06 6.49439e+06 0 -1.54993e+06 6.51935e+06 0 -1.49593e+06 6.54292e+06 0 -1.44061e+06 6.565e+06 0 -1.38399e+06 6.58551e+06 0 -1.3261e+06 6.60434e+06 0 -1.26698e+06 6.62141e+06 0 -1.20666e+06 6.63662e+06 0 -1.14517e+06 6.64985e+06 0 -1.08255e+06 6.661e+06 0 -1.01886e+06 6.66997e+06 0 -954126 6.67662e+06 0 -888409 6.68083e+06 0 -821753 6.68245e+06 0 -754208 6.68131e+06 0 -685829 6.67722e+06 0 -616678 6.66992e+06 0 -546842 6.65909e+06 0 -476439 6.64434e+06 0 -405605 6.62523e+06 0 -334235 6.60159e+06 0 -260527 6.57484e+06 0 -2.38242e+06 3.42173e+06 0 -2.38976e+06 3.43587e+06 0 -2.39709e+06 3.4502e+06 0 -2.40442e+06 3.46471e+06 0 -2.41173e+06 3.47943e+06 0 -2.41904e+06 3.49433e+06 0 -2.42634e+06 3.50944e+06 0 -2.43362e+06 3.52476e+06 0 -2.44088e+06 3.54028e+06 0 -2.44812e+06 3.55602e+06 0 -2.45534e+06 3.57197e+06 0 -2.46253e+06 3.58815e+06 0 -2.46969e+06 3.60454e+06 0 -2.47682e+06 3.62117e+06 0 -2.48391e+06 3.63802e+06 0 -2.49096e+06 3.65512e+06 0 -2.49796e+06 3.67245e+06 0 -2.50491e+06 3.69003e+06 0 -2.51181e+06 3.70785e+06 0 -2.51865e+06 3.72593e+06 0 -2.52543e+06 3.74427e+06 0 -2.53215e+06 3.76286e+06 0 -2.53879e+06 3.78172e+06 0 -2.54535e+06 3.80085e+06 0 -2.55183e+06 3.82026e+06 0 -2.55822e+06 3.83994e+06 0 -2.56452e+06 3.8599e+06 0 -2.57071e+06 3.88015e+06 0 -2.5768e+06 3.9007e+06 0 -2.58278e+06 3.92153e+06 0 -2.58863e+06 3.94267e+06 0 -2.59436e+06 3.96411e+06 0 -2.59995e+06 3.98586e+06 0 -2.6054e+06 4.00792e+06 0 -2.6107e+06 4.0303e+06 0 -2.61584e+06 4.053e+06 0 -2.62081e+06 4.07602e+06 0 -2.6256e+06 4.09937e+06 0 -2.63021e+06 4.12305e+06 0 -2.63462e+06 4.14707e+06 0 -2.63883e+06 4.17143e+06 0 -2.64281e+06 4.19613e+06 0 -2.64657e+06 4.22118e+06 0 -2.6501e+06 4.24658e+06 0 -2.65337e+06 4.27233e+06 0 -2.65638e+06 4.29844e+06 0 -2.65912e+06 4.32491e+06 0 -2.66157e+06 4.35173e+06 0 -2.66372e+06 4.37892e+06 0 -2.66555e+06 4.40648e+06 0 -2.66706e+06 4.4344e+06 0 -2.66823e+06 4.46269e+06 0 -2.66904e+06 4.49135e+06 0 -2.66948e+06 4.52038e+06 0 -2.66953e+06 4.54978e+06 0 -2.66917e+06 4.57955e+06 0 -2.66839e+06 4.60969e+06 0 -2.66718e+06 4.6402e+06 0 -2.6655e+06 4.67107e+06 0 -2.66336e+06 4.70231e+06 0 -2.66071e+06 4.73391e+06 0 -2.65756e+06 4.76587e+06 0 -2.65388e+06 4.79819e+06 0 -2.64964e+06 4.83085e+06 0 -2.64483e+06 4.86386e+06 0 -2.63942e+06 4.89721e+06 0 -2.6334e+06 4.9309e+06 0 -2.62675e+06 4.9649e+06 0 -2.61943e+06 4.99923e+06 0 -2.61143e+06 5.03386e+06 0 -2.60273e+06 5.06878e+06 0 -2.59329e+06 5.10399e+06 0 -2.58311e+06 5.13947e+06 0 -2.57214e+06 5.17521e+06 0 -2.56038e+06 5.21119e+06 0 -2.54779e+06 5.24739e+06 0 -2.53435e+06 5.28381e+06 0 -2.52003e+06 5.32041e+06 0 -2.50481e+06 5.35718e+06 0 -2.48867e+06 5.39409e+06 0 -2.47158e+06 5.43113e+06 0 -2.45351e+06 5.46827e+06 0 -2.43444e+06 5.50548e+06 0 -2.41434e+06 5.54272e+06 0 -2.39319e+06 5.57998e+06 0 -2.37097e+06 5.61722e+06 0 -2.34766e+06 5.6544e+06 0 -2.32322e+06 5.6915e+06 0 -2.29764e+06 5.72846e+06 0 -2.27089e+06 5.76525e+06 0 -2.24296e+06 5.80183e+06 0 -2.21382e+06 5.83815e+06 0 -2.18346e+06 5.87417e+06 0 -2.15186e+06 5.90983e+06 0 -2.119e+06 5.9451e+06 0 -2.08487e+06 5.9799e+06 0 -2.04946e+06 6.01419e+06 0 -2.01275e+06 6.04791e+06 0 -1.97474e+06 6.081e+06 0 -1.93543e+06 6.1134e+06 0 -1.89479e+06 6.14503e+06 0 -1.85285e+06 6.17584e+06 0 -1.80959e+06 6.20576e+06 0 -1.76502e+06 6.2347e+06 0 -1.71915e+06 6.2626e+06 0 -1.67199e+06 6.28938e+06 0 -1.62355e+06 6.31496e+06 0 -1.57386e+06 6.33926e+06 0 -1.52294e+06 6.3622e+06 0 -1.47081e+06 6.38369e+06 0 -1.4175e+06 6.40365e+06 0 -1.36306e+06 6.42197e+06 0 -1.30751e+06 6.43858e+06 0 -1.25092e+06 6.45337e+06 0 -1.19333e+06 6.46625e+06 0 -1.1348e+06 6.47711e+06 0 -1.07539e+06 6.48586e+06 0 -1.01519e+06 6.49237e+06 0 -954259 6.49653e+06 0 -892705 6.49823e+06 0 -830631 6.49731e+06 0 -768161 6.49365e+06 0 -705446 6.48708e+06 0 -642676 6.47743e+06 0 -580100 6.46453e+06 0 -518091 6.44817e+06 0 -457355 6.42804e+06 0 -399784 6.40334e+06 0 -2.31691e+06 3.33913e+06 0 -2.32419e+06 3.35282e+06 0 -2.33147e+06 3.36668e+06 0 -2.33875e+06 3.38073e+06 0 -2.34603e+06 3.39497e+06 0 -2.3533e+06 3.40939e+06 0 -2.36056e+06 3.42401e+06 0 -2.36782e+06 3.43882e+06 0 -2.37506e+06 3.45384e+06 0 -2.38229e+06 3.46906e+06 0 -2.38949e+06 3.48449e+06 0 -2.39668e+06 3.50013e+06 0 -2.40385e+06 3.51598e+06 0 -2.41098e+06 3.53206e+06 0 -2.41809e+06 3.54836e+06 0 -2.42516e+06 3.56489e+06 0 -2.43219e+06 3.58165e+06 0 -2.43919e+06 3.59864e+06 0 -2.44613e+06 3.61587e+06 0 -2.45303e+06 3.63335e+06 0 -2.45987e+06 3.65108e+06 0 -2.46666e+06 3.66906e+06 0 -2.47338e+06 3.68729e+06 0 -2.48003e+06 3.70579e+06 0 -2.48661e+06 3.72455e+06 0 -2.49311e+06 3.74358e+06 0 -2.49952e+06 3.76289e+06 0 -2.50585e+06 3.78247e+06 0 -2.51207e+06 3.80233e+06 0 -2.5182e+06 3.82248e+06 0 -2.52421e+06 3.84293e+06 0 -2.53011e+06 3.86366e+06 0 -2.53589e+06 3.8847e+06 0 -2.54153e+06 3.90604e+06 0 -2.54704e+06 3.92769e+06 0 -2.5524e+06 3.94965e+06 0 -2.5576e+06 3.97193e+06 0 -2.56265e+06 3.99452e+06 0 -2.56751e+06 4.01744e+06 0 -2.5722e+06 4.04069e+06 0 -2.5767e+06 4.06427e+06 0 -2.58099e+06 4.08819e+06 0 -2.58507e+06 4.11244e+06 0 -2.58893e+06 4.13704e+06 0 -2.59256e+06 4.16198e+06 0 -2.59594e+06 4.18727e+06 0 -2.59906e+06 4.21291e+06 0 -2.60191e+06 4.23891e+06 0 -2.60448e+06 4.26526e+06 0 -2.60676e+06 4.29197e+06 0 -2.60872e+06 4.31903e+06 0 -2.61037e+06 4.34646e+06 0 -2.61167e+06 4.37426e+06 0 -2.61262e+06 4.40241e+06 0 -2.61321e+06 4.43094e+06 0 -2.61341e+06 4.45982e+06 0 -2.61321e+06 4.48907e+06 0 -2.61259e+06 4.51868e+06 0 -2.61154e+06 4.54866e+06 0 -2.61004e+06 4.57899e+06 0 -2.60806e+06 4.60968e+06 0 -2.6056e+06 4.64073e+06 0 -2.60263e+06 4.67213e+06 0 -2.59913e+06 4.70388e+06 0 -2.59509e+06 4.73596e+06 0 -2.59047e+06 4.76839e+06 0 -2.58527e+06 4.80114e+06 0 -2.57945e+06 4.83421e+06 0 -2.57301e+06 4.8676e+06 0 -2.5659e+06 4.9013e+06 0 -2.55812e+06 4.93529e+06 0 -2.54965e+06 4.96956e+06 0 -2.54044e+06 5.0041e+06 0 -2.53049e+06 5.0389e+06 0 -2.51977e+06 5.07395e+06 0 -2.50826e+06 5.10922e+06 0 -2.49592e+06 5.1447e+06 0 -2.48275e+06 5.18037e+06 0 -2.4687e+06 5.21621e+06 0 -2.45377e+06 5.2522e+06 0 -2.43792e+06 5.28831e+06 0 -2.42112e+06 5.32453e+06 0 -2.40337e+06 5.36082e+06 0 -2.38462e+06 5.39716e+06 0 -2.36486e+06 5.43351e+06 0 -2.34407e+06 5.46985e+06 0 -2.32222e+06 5.50615e+06 0 -2.29929e+06 5.54235e+06 0 -2.27526e+06 5.57844e+06 0 -2.25011e+06 5.61436e+06 0 -2.22382e+06 5.65009e+06 0 -2.19637e+06 5.68556e+06 0 -2.16774e+06 5.72075e+06 0 -2.13793e+06 5.75559e+06 0 -2.1069e+06 5.79005e+06 0 -2.07466e+06 5.82406e+06 0 -2.04119e+06 5.85758e+06 0 -2.00648e+06 5.89054e+06 0 -1.97052e+06 5.92289e+06 0 -1.93332e+06 5.95457e+06 0 -1.89487e+06 5.98551e+06 0 -1.85516e+06 6.01564e+06 0 -1.81422e+06 6.04491e+06 0 -1.77203e+06 6.07324e+06 0 -1.72863e+06 6.10055e+06 0 -1.68401e+06 6.12678e+06 0 -1.63819e+06 6.15185e+06 0 -1.59121e+06 6.17568e+06 0 -1.54309e+06 6.19819e+06 0 -1.49385e+06 6.2193e+06 0 -1.44355e+06 6.23894e+06 0 -1.39221e+06 6.257e+06 0 -1.33989e+06 6.27342e+06 0 -1.28664e+06 6.28809e+06 0 -1.23253e+06 6.30094e+06 0 -1.17762e+06 6.31187e+06 0 -1.12199e+06 6.3208e+06 0 -1.06573e+06 6.32762e+06 0 -1.00893e+06 6.33224e+06 0 -951705 6.33457e+06 0 -894176 6.33451e+06 0 -836484 6.33197e+06 0 -778791 6.32685e+06 0 -721279 6.31906e+06 0 -664156 6.30853e+06 0 -607630 6.29523e+06 0 -551812 6.27919e+06 0 -496270 6.26077e+06 0 -2.25437e+06 3.2636e+06 0 -2.26157e+06 3.27689e+06 0 -2.26878e+06 3.29035e+06 0 -2.276e+06 3.30398e+06 0 -2.28321e+06 3.31779e+06 0 -2.29042e+06 3.33179e+06 0 -2.29764e+06 3.34597e+06 0 -2.30484e+06 3.36034e+06 0 -2.31204e+06 3.3749e+06 0 -2.31923e+06 3.38966e+06 0 -2.32641e+06 3.40462e+06 0 -2.33357e+06 3.41978e+06 0 -2.34071e+06 3.43515e+06 0 -2.34783e+06 3.45074e+06 0 -2.35492e+06 3.46654e+06 0 -2.36199e+06 3.48256e+06 0 -2.36903e+06 3.4988e+06 0 -2.37603e+06 3.51527e+06 0 -2.38299e+06 3.53197e+06 0 -2.38991e+06 3.54891e+06 0 -2.39679e+06 3.56608e+06 0 -2.40361e+06 3.58351e+06 0 -2.41038e+06 3.60118e+06 0 -2.41708e+06 3.6191e+06 0 -2.42373e+06 3.63728e+06 0 -2.4303e+06 3.65571e+06 0 -2.43679e+06 3.67442e+06 0 -2.44321e+06 3.69339e+06 0 -2.44953e+06 3.71264e+06 0 -2.45577e+06 3.73217e+06 0 -2.4619e+06 3.75198e+06 0 -2.46793e+06 3.77207e+06 0 -2.47385e+06 3.79246e+06 0 -2.47965e+06 3.81314e+06 0 -2.48531e+06 3.83412e+06 0 -2.49085e+06 3.8554e+06 0 -2.49624e+06 3.877e+06 0 -2.50148e+06 3.8989e+06 0 -2.50656e+06 3.92112e+06 0 -2.51147e+06 3.94366e+06 0 -2.5162e+06 3.96652e+06 0 -2.52075e+06 3.98971e+06 0 -2.5251e+06 4.01324e+06 0 -2.52924e+06 4.03709e+06 0 -2.53316e+06 4.06128e+06 0 -2.53685e+06 4.08582e+06 0 -2.5403e+06 4.1107e+06 0 -2.54349e+06 4.13592e+06 0 -2.54642e+06 4.16149e+06 0 -2.54908e+06 4.18742e+06 0 -2.55144e+06 4.21369e+06 0 -2.55349e+06 4.24032e+06 0 -2.55522e+06 4.26731e+06 0 -2.55663e+06 4.29466e+06 0 -2.55768e+06 4.32236e+06 0 -2.55836e+06 4.35043e+06 0 -2.55867e+06 4.37885e+06 0 -2.55858e+06 4.40762e+06 0 -2.55808e+06 4.43676e+06 0 -2.55714e+06 4.46625e+06 0 -2.55576e+06 4.49609e+06 0 -2.55391e+06 4.52629e+06 0 -2.55158e+06 4.55683e+06 0 -2.54874e+06 4.58772e+06 0 -2.54538e+06 4.61894e+06 0 -2.54147e+06 4.6505e+06 0 -2.537e+06 4.68238e+06 0 -2.53194e+06 4.71459e+06 0 -2.52628e+06 4.7471e+06 0 -2.51998e+06 4.77992e+06 0 -2.51304e+06 4.81304e+06 0 -2.50543e+06 4.84643e+06 0 -2.49711e+06 4.8801e+06 0 -2.48808e+06 4.91402e+06 0 -2.47831e+06 4.94819e+06 0 -2.46778e+06 4.98259e+06 0 -2.45645e+06 5.01719e+06 0 -2.44432e+06 5.052e+06 0 -2.43135e+06 5.08697e+06 0 -2.41751e+06 5.1221e+06 0 -2.4028e+06 5.15735e+06 0 -2.38718e+06 5.19271e+06 0 -2.37062e+06 5.22816e+06 0 -2.35312e+06 5.26365e+06 0 -2.33464e+06 5.29917e+06 0 -2.31516e+06 5.33468e+06 0 -2.29466e+06 5.37015e+06 0 -2.27312e+06 5.40555e+06 0 -2.25052e+06 5.44083e+06 0 -2.22684e+06 5.47596e+06 0 -2.20206e+06 5.51091e+06 0 -2.17616e+06 5.54561e+06 0 -2.14913e+06 5.58004e+06 0 -2.12096e+06 5.61415e+06 0 -2.09162e+06 5.64788e+06 0 -2.06112e+06 5.68119e+06 0 -2.02943e+06 5.71402e+06 0 -1.99656e+06 5.74631e+06 0 -1.9625e+06 5.77802e+06 0 -1.92724e+06 5.80907e+06 0 -1.89079e+06 5.83942e+06 0 -1.85315e+06 5.86899e+06 0 -1.81432e+06 5.89772e+06 0 -1.77433e+06 5.92554e+06 0 -1.73317e+06 5.95239e+06 0 -1.69086e+06 5.97819e+06 0 -1.64744e+06 6.00287e+06 0 -1.60292e+06 6.02637e+06 0 -1.55734e+06 6.04859e+06 0 -1.51072e+06 6.06948e+06 0 -1.46312e+06 6.08894e+06 0 -1.41457e+06 6.10691e+06 0 -1.36513e+06 6.12331e+06 0 -1.31486e+06 6.13805e+06 0 -1.26382e+06 6.15106e+06 0 -1.2121e+06 6.16226e+06 0 -1.15976e+06 6.17157e+06 0 -1.1069e+06 6.17892e+06 0 -1.05361e+06 6.18423e+06 0 -1.00002e+06 6.18743e+06 0 -946243 6.18845e+06 0 -892413 6.18722e+06 0 -838680 6.1837e+06 0 -785212 6.17783e+06 0 -732193 6.1696e+06 0 -679835 6.15897e+06 0 -628429 6.14592e+06 0 -578563 6.13035e+06 0 -2.1947e+06 3.19415e+06 0 -2.20182e+06 3.20708e+06 0 -2.20895e+06 3.22018e+06 0 -2.21608e+06 3.23344e+06 0 -2.22322e+06 3.24688e+06 0 -2.23036e+06 3.2605e+06 0 -2.2375e+06 3.27429e+06 0 -2.24464e+06 3.28826e+06 0 -2.25178e+06 3.30242e+06 0 -2.25892e+06 3.31677e+06 0 -2.26604e+06 3.33132e+06 0 -2.27315e+06 3.34605e+06 0 -2.28025e+06 3.36099e+06 0 -2.28734e+06 3.37614e+06 0 -2.2944e+06 3.39149e+06 0 -2.30145e+06 3.40705e+06 0 -2.30846e+06 3.42283e+06 0 -2.31545e+06 3.43883e+06 0 -2.32241e+06 3.45505e+06 0 -2.32933e+06 3.4715e+06 0 -2.33621e+06 3.48818e+06 0 -2.34304e+06 3.5051e+06 0 -2.34983e+06 3.52226e+06 0 -2.35656e+06 3.53966e+06 0 -2.36324e+06 3.55731e+06 0 -2.36985e+06 3.57522e+06 0 -2.3764e+06 3.59338e+06 0 -2.38287e+06 3.6118e+06 0 -2.38926e+06 3.63048e+06 0 -2.39557e+06 3.64944e+06 0 -2.40179e+06 3.66867e+06 0 -2.40792e+06 3.68818e+06 0 -2.41394e+06 3.70797e+06 0 -2.41985e+06 3.72805e+06 0 -2.42564e+06 3.74842e+06 0 -2.43131e+06 3.76909e+06 0 -2.43685e+06 3.79005e+06 0 -2.44225e+06 3.81132e+06 0 -2.4475e+06 3.8329e+06 0 -2.45259e+06 3.85479e+06 0 -2.45752e+06 3.87699e+06 0 -2.46227e+06 3.89952e+06 0 -2.46684e+06 3.92236e+06 0 -2.47121e+06 3.94553e+06 0 -2.47538e+06 3.96904e+06 0 -2.47933e+06 3.99287e+06 0 -2.48305e+06 4.01704e+06 0 -2.48654e+06 4.04156e+06 0 -2.48978e+06 4.06641e+06 0 -2.49275e+06 4.09161e+06 0 -2.49545e+06 4.11715e+06 0 -2.49786e+06 4.14304e+06 0 -2.49996e+06 4.16928e+06 0 -2.50175e+06 4.19587e+06 0 -2.50321e+06 4.22282e+06 0 -2.50432e+06 4.25011e+06 0 -2.50507e+06 4.27776e+06 0 -2.50545e+06 4.30576e+06 0 -2.50543e+06 4.33412e+06 0 -2.505e+06 4.36282e+06 0 -2.50414e+06 4.39187e+06 0 -2.50284e+06 4.42127e+06 0 -2.50107e+06 4.45101e+06 0 -2.49882e+06 4.4811e+06 0 -2.49606e+06 4.51151e+06 0 -2.49279e+06 4.54226e+06 0 -2.48898e+06 4.57333e+06 0 -2.4846e+06 4.60472e+06 0 -2.47964e+06 4.63642e+06 0 -2.47408e+06 4.66842e+06 0 -2.46789e+06 4.70072e+06 0 -2.46106e+06 4.73329e+06 0 -2.45356e+06 4.76614e+06 0 -2.44536e+06 4.79924e+06 0 -2.43646e+06 4.83259e+06 0 -2.42681e+06 4.86617e+06 0 -2.41641e+06 4.89996e+06 0 -2.40522e+06 4.93395e+06 0 -2.39323e+06 4.96811e+06 0 -2.3804e+06 5.00243e+06 0 -2.36673e+06 5.03689e+06 0 -2.35218e+06 5.07145e+06 0 -2.33674e+06 5.1061e+06 0 -2.32037e+06 5.14081e+06 0 -2.30306e+06 5.17555e+06 0 -2.28479e+06 5.21029e+06 0 -2.26553e+06 5.245e+06 0 -2.24527e+06 5.27965e+06 0 -2.22399e+06 5.31419e+06 0 -2.20166e+06 5.34859e+06 0 -2.17827e+06 5.38282e+06 0 -2.1538e+06 5.41683e+06 0 -2.12825e+06 5.45057e+06 0 -2.10159e+06 5.484e+06 0 -2.07381e+06 5.51708e+06 0 -2.04491e+06 5.54975e+06 0 -2.01487e+06 5.58196e+06 0 -1.98369e+06 5.61366e+06 0 -1.95137e+06 5.6448e+06 0 -1.9179e+06 5.67531e+06 0 -1.88329e+06 5.70513e+06 0 -1.84754e+06 5.73422e+06 0 -1.81066e+06 5.76249e+06 0 -1.77266e+06 5.7899e+06 0 -1.73356e+06 5.81636e+06 0 -1.69338e+06 5.84183e+06 0 -1.65213e+06 5.86622e+06 0 -1.60985e+06 5.88947e+06 0 -1.56656e+06 5.9115e+06 0 -1.52231e+06 5.93226e+06 0 -1.47714e+06 5.95166e+06 0 -1.4311e+06 5.96963e+06 0 -1.38424e+06 5.98611e+06 0 -1.33662e+06 6.00102e+06 0 -1.2883e+06 6.0143e+06 0 -1.23937e+06 6.02587e+06 0 -1.1899e+06 6.03567e+06 0 -1.13998e+06 6.04363e+06 0 -1.08971e+06 6.0497e+06 0 -1.03921e+06 6.05382e+06 0 -988570 6.05594e+06 0 -937933 6.05602e+06 0 -887431 6.05402e+06 0 -837209 6.04992e+06 0 -787419 6.04372e+06 0 -738215 6.03543e+06 0 -689726 6.02508e+06 0 -641931 6.0128e+06 0 -2.1378e+06 3.12993e+06 0 -2.14482e+06 3.14255e+06 0 -2.15185e+06 3.15533e+06 0 -2.1589e+06 3.16828e+06 0 -2.16595e+06 3.18139e+06 0 -2.17301e+06 3.19466e+06 0 -2.18007e+06 3.20811e+06 0 -2.18713e+06 3.22174e+06 0 -2.1942e+06 3.23554e+06 0 -2.20126e+06 3.24953e+06 0 -2.20832e+06 3.2637e+06 0 -2.21538e+06 3.27806e+06 0 -2.22242e+06 3.29261e+06 0 -2.22945e+06 3.30736e+06 0 -2.23647e+06 3.32231e+06 0 -2.24347e+06 3.33747e+06 0 -2.25045e+06 3.35283e+06 0 -2.2574e+06 3.36841e+06 0 -2.26433e+06 3.3842e+06 0 -2.27123e+06 3.40021e+06 0 -2.2781e+06 3.41645e+06 0 -2.28492e+06 3.43291e+06 0 -2.29171e+06 3.44961e+06 0 -2.29844e+06 3.46654e+06 0 -2.30513e+06 3.48371e+06 0 -2.31176e+06 3.50113e+06 0 -2.31833e+06 3.5188e+06 0 -2.32484e+06 3.53672e+06 0 -2.33127e+06 3.5549e+06 0 -2.33763e+06 3.57334e+06 0 -2.3439e+06 3.59204e+06 0 -2.35009e+06 3.61102e+06 0 -2.35619e+06 3.63027e+06 0 -2.36218e+06 3.6498e+06 0 -2.36807e+06 3.66961e+06 0 -2.37384e+06 3.68971e+06 0 -2.37949e+06 3.7101e+06 0 -2.38501e+06 3.73079e+06 0 -2.39039e+06 3.75178e+06 0 -2.39563e+06 3.77307e+06 0 -2.40072e+06 3.79466e+06 0 -2.40564e+06 3.81657e+06 0 -2.41038e+06 3.8388e+06 0 -2.41495e+06 3.86134e+06 0 -2.41932e+06 3.88421e+06 0 -2.42349e+06 3.9074e+06 0 -2.42745e+06 3.93092e+06 0 -2.43118e+06 3.95477e+06 0 -2.43468e+06 3.97896e+06 0 -2.43793e+06 4.00348e+06 0 -2.44091e+06 4.02835e+06 0 -2.44363e+06 4.05355e+06 0 -2.44606e+06 4.0791e+06 0 -2.44818e+06 4.10499e+06 0 -2.45e+06 4.13123e+06 0 -2.45148e+06 4.15781e+06 0 -2.45262e+06 4.18474e+06 0 -2.4534e+06 4.21202e+06 0 -2.45381e+06 4.23965e+06 0 -2.45382e+06 4.26762e+06 0 -2.45343e+06 4.29593e+06 0 -2.45261e+06 4.32459e+06 0 -2.45134e+06 4.35358e+06 0 -2.44962e+06 4.38291e+06 0 -2.44741e+06 4.41257e+06 0 -2.44471e+06 4.44256e+06 0 -2.44148e+06 4.47287e+06 0 -2.43772e+06 4.5035e+06 0 -2.4334e+06 4.53444e+06 0 -2.4285e+06 4.56567e+06 0 -2.42299e+06 4.5972e+06 0 -2.41687e+06 4.62901e+06 0 -2.4101e+06 4.66108e+06 0 -2.40266e+06 4.69342e+06 0 -2.39454e+06 4.726e+06 0 -2.38571e+06 4.75882e+06 0 -2.37614e+06 4.79184e+06 0 -2.36582e+06 4.82507e+06 0 -2.35473e+06 4.85847e+06 0 -2.34283e+06 4.89204e+06 0 -2.33011e+06 4.92574e+06 0 -2.31655e+06 4.95956e+06 0 -2.30211e+06 4.99347e+06 0 -2.28679e+06 5.02745e+06 0 -2.27056e+06 5.06147e+06 0 -2.2534e+06 5.09549e+06 0 -2.23529e+06 5.12949e+06 0 -2.21621e+06 5.16344e+06 0 -2.19613e+06 5.19729e+06 0 -2.17505e+06 5.23102e+06 0 -2.15295e+06 5.26458e+06 0 -2.12981e+06 5.29794e+06 0 -2.10561e+06 5.33105e+06 0 -2.08034e+06 5.36386e+06 0 -2.054e+06 5.39634e+06 0 -2.02658e+06 5.42843e+06 0 -1.99806e+06 5.46009e+06 0 -1.96844e+06 5.49125e+06 0 -1.93772e+06 5.52188e+06 0 -1.9059e+06 5.5519e+06 0 -1.87298e+06 5.58127e+06 0 -1.83897e+06 5.60993e+06 0 -1.80387e+06 5.63781e+06 0 -1.76771e+06 5.66486e+06 0 -1.73049e+06 5.69101e+06 0 -1.69224e+06 5.7162e+06 0 -1.65297e+06 5.74036e+06 0 -1.61273e+06 5.76343e+06 0 -1.57154e+06 5.78534e+06 0 -1.52943e+06 5.80603e+06 0 -1.48646e+06 5.82543e+06 0 -1.44267e+06 5.84347e+06 0 -1.39812e+06 5.86009e+06 0 -1.35286e+06 5.87522e+06 0 -1.30696e+06 5.88881e+06 0 -1.2605e+06 5.90079e+06 0 -1.21355e+06 5.9111e+06 0 -1.1662e+06 5.9197e+06 0 -1.11855e+06 5.92654e+06 0 -1.07069e+06 5.93156e+06 0 -1.02273e+06 5.93474e+06 0 -974794 5.93603e+06 0 -926995 5.93543e+06 0 -879463 5.93293e+06 0 -832334 5.92851e+06 0 -785748 5.92221e+06 0 -739867 5.91403e+06 0 -694924 5.904e+06 0 -2.08352e+06 3.07025e+06 0 -2.09044e+06 3.0826e+06 0 -2.09738e+06 3.0951e+06 0 -2.10432e+06 3.10776e+06 0 -2.11128e+06 3.12058e+06 0 -2.11825e+06 3.13356e+06 0 -2.12522e+06 3.14671e+06 0 -2.1322e+06 3.16003e+06 0 -2.13918e+06 3.17351e+06 0 -2.14616e+06 3.18718e+06 0 -2.15315e+06 3.20102e+06 0 -2.16013e+06 3.21504e+06 0 -2.1671e+06 3.22925e+06 0 -2.17407e+06 3.24365e+06 0 -2.18103e+06 3.25825e+06 0 -2.18797e+06 3.27304e+06 0 -2.1949e+06 3.28803e+06 0 -2.20181e+06 3.30323e+06 0 -2.2087e+06 3.31863e+06 0 -2.21556e+06 3.33425e+06 0 -2.22239e+06 3.35009e+06 0 -2.22919e+06 3.36614e+06 0 -2.23595e+06 3.38242e+06 0 -2.24267e+06 3.39893e+06 0 -2.24935e+06 3.41568e+06 0 -2.25598e+06 3.43265e+06 0 -2.26256e+06 3.44988e+06 0 -2.26907e+06 3.46734e+06 0 -2.27553e+06 3.48506e+06 0 -2.28191e+06 3.50303e+06 0 -2.28822e+06 3.52125e+06 0 -2.29445e+06 3.53975e+06 0 -2.30059e+06 3.5585e+06 0 -2.30664e+06 3.57753e+06 0 -2.3126e+06 3.59683e+06 0 -2.31844e+06 3.61642e+06 0 -2.32418e+06 3.63628e+06 0 -2.32979e+06 3.65644e+06 0 -2.33528e+06 3.67688e+06 0 -2.34063e+06 3.69763e+06 0 -2.34584e+06 3.71867e+06 0 -2.35089e+06 3.74001e+06 0 -2.35579e+06 3.76167e+06 0 -2.36051e+06 3.78363e+06 0 -2.36505e+06 3.80591e+06 0 -2.3694e+06 3.82851e+06 0 -2.37355e+06 3.85143e+06 0 -2.37749e+06 3.87467e+06 0 -2.38121e+06 3.89824e+06 0 -2.38469e+06 3.92214e+06 0 -2.38793e+06 3.94638e+06 0 -2.39091e+06 3.97094e+06 0 -2.39361e+06 3.99585e+06 0 -2.39603e+06 4.02109e+06 0 -2.39815e+06 4.04667e+06 0 -2.39996e+06 4.0726e+06 0 -2.40144e+06 4.09886e+06 0 -2.40258e+06 4.12547e+06 0 -2.40336e+06 4.15241e+06 0 -2.40377e+06 4.1797e+06 0 -2.40379e+06 4.20732e+06 0 -2.4034e+06 4.23529e+06 0 -2.40258e+06 4.26358e+06 0 -2.40133e+06 4.29221e+06 0 -2.39961e+06 4.32117e+06 0 -2.39741e+06 4.35045e+06 0 -2.39472e+06 4.38005e+06 0 -2.39151e+06 4.40996e+06 0 -2.38776e+06 4.44018e+06 0 -2.38345e+06 4.4707e+06 0 -2.37857e+06 4.50151e+06 0 -2.37309e+06 4.53259e+06 0 -2.36698e+06 4.56395e+06 0 -2.36024e+06 4.59557e+06 0 -2.35283e+06 4.62743e+06 0 -2.34474e+06 4.65953e+06 0 -2.33594e+06 4.69184e+06 0 -2.32642e+06 4.72435e+06 0 -2.31614e+06 4.75704e+06 0 -2.30509e+06 4.7899e+06 0 -2.29324e+06 4.8229e+06 0 -2.28058e+06 4.85602e+06 0 -2.26708e+06 4.88924e+06 0 -2.25273e+06 4.92253e+06 0 -2.23749e+06 4.95587e+06 0 -2.22135e+06 4.98922e+06 0 -2.20429e+06 5.02256e+06 0 -2.18629e+06 5.05585e+06 0 -2.16734e+06 5.08907e+06 0 -2.14741e+06 5.12217e+06 0 -2.12649e+06 5.15511e+06 0 -2.10457e+06 5.18787e+06 0 -2.08162e+06 5.22039e+06 0 -2.05765e+06 5.25264e+06 0 -2.03264e+06 5.28456e+06 0 -2.00657e+06 5.31612e+06 0 -1.97945e+06 5.34727e+06 0 -1.95127e+06 5.37795e+06 0 -1.92203e+06 5.40811e+06 0 -1.89173e+06 5.43769e+06 0 -1.86037e+06 5.46666e+06 0 -1.82796e+06 5.494