<?xml version="1.0"?> 
<VTKFile type="StructuredGrid" version="0.1"> 
<StructuredGrid WholeExtent="0 127 0 127 0 0"> 
<Piece Extent="0 127 0 127 0 0"> 
<PointData>
<DataArray type="Float32" Name="|E|" format="ascii" NumberOfComponents="3"> 
-776228 0 0 -782141 20619.3 0 -788117 41201.8 0 -794157 61749 0 -800263 82262.4 0 -806437 102743 0 -812680 123193 0 -818993 143613 0 -825379 164005 0 -831838 184370 0 -838372 204709 0 -844983 225025 0 -851672 245318 0 -858441 265589 0 -865291 285841 0 -872223 306074 0 -879239 326291 0 -886341 346492 0 -893529 366678 0 -900806 386852 0 -908173 407014 0 -915630 427166 0 -923180 447310 0 -930824 467446 0 -938563 487576 0 -946399 507701 0 -954333 527822 0 -962366 547942 0 -970499 568060 0 -978734 588179 0 -987073 608299 0 -995516 628421 0 -1.00406e+06 648548 0 -1.01272e+06 668679 0 -1.02148e+06 688816 0 -1.03036e+06 708960 0 -1.03934e+06 729112 0 -1.04843e+06 749273 0 -1.05764e+06 769443 0 -1.06696e+06 789624 0 -1.0764e+06 809816 0 -1.08596e+06 830020 0 -1.09563e+06 850236 0 -1.10542e+06 870465 0 -1.11533e+06 890707 0 -1.12536e+06 910963 0 -1.13551e+06 931233 0 -1.14579e+06 951516 0 -1.15619e+06 971814 0 -1.16672e+06 992125 0 -1.17737e+06 1.01245e+06 0 -1.18816e+06 1.03279e+06 0 -1.19907e+06 1.05314e+06 0 -1.21012e+06 1.0735e+06 0 -1.22129e+06 1.09387e+06 0 -1.23261e+06 1.11425e+06 0 -1.24405e+06 1.13464e+06 0 -1.25564e+06 1.15503e+06 0 -1.26736e+06 1.17543e+06 0 -1.27923e+06 1.19583e+06 0 -1.29124e+06 1.21623e+06 0 -1.3034e+06 1.23663e+06 0 -1.3157e+06 1.25702e+06 0 -1.32816e+06 1.2774e+06 0 -1.34077e+06 1.29777e+06 0 -1.35354e+06 1.31811e+06 0 -1.36647e+06 1.33844e+06 0 -1.37957e+06 1.35874e+06 0 -1.39283e+06 1.379e+06 0 -1.40628e+06 1.39922e+06 0 -1.4199e+06 1.4194e+06 0 -1.43371e+06 1.43952e+06 0 -1.44771e+06 1.45958e+06 0 -1.46191e+06 1.47957e+06 0 -1.47632e+06 1.49948e+06 0 -1.49095e+06 1.5193e+06 0 -1.5058e+06 1.53902e+06 0 -1.5209e+06 1.55863e+06 0 -1.53624e+06 1.57812e+06 0 -1.55185e+06 1.59746e+06 0 -1.56774e+06 1.61666e+06 0 -1.58392e+06 1.63569e+06 0 -1.60042e+06 1.65453e+06 0 -1.61725e+06 1.67318e+06 0 -1.63443e+06 1.69161e+06 0 -1.652e+06 1.7098e+06 0 -1.66997e+06 1.72773e+06 0 -1.68837e+06 1.74539e+06 0 -1.70723e+06 1.76274e+06 0 -1.7266e+06 1.77977e+06 0 -1.74651e+06 1.79644e+06 0 -1.76699e+06 1.81273e+06 0 -1.78809e+06 1.82862e+06 0 -1.80987e+06 1.84406e+06 0 -1.83237e+06 1.85903e+06 0 -1.85565e+06 1.87349e+06 0 -1.87978e+06 1.88741e+06 0 -1.90482e+06 1.90074e+06 0 -1.93084e+06 1.91344e+06 0 -1.95792e+06 1.92547e+06 0 -1.98616e+06 1.93677e+06 0 -2.01563e+06 1.94728e+06 0 -2.04644e+06 1.95694e+06 0 -2.0787e+06 1.96569e+06 0 -2.11252e+06 1.97344e+06 0 -2.14802e+06 1.9801e+06 0 -2.18534e+06 1.98558e+06 0 -2.22461e+06 1.98976e+06 0 -2.266e+06 1.9925e+06 0 -2.30966e+06 1.99364e+06 0 -2.35577e+06 1.993e+06 0 -2.40451e+06 1.99034e+06 0 -2.45609e+06 1.98541e+06 0 -2.51072e+06 1.97786e+06 0 -2.56862e+06 1.96731e+06 0 -2.63004e+06 1.95327e+06 0 -2.69524e+06 1.93512e+06 0 -2.76449e+06 1.91212e+06 0 -2.83808e+06 1.88332e+06 0 -2.91632e+06 1.84756e+06 0 -2.99956e+06 1.80333e+06 0 -3.08813e+06 1.74875e+06 0 -3.18242e+06 1.68142e+06 0 -3.28281e+06 1.59826e+06 0 -3.38972e+06 1.49537e+06 0 -3.5035e+06 1.36771e+06 0 -3.62441e+06 1.20885e+06 0 -3.75244e+06 1.01047e+06 0 -770344 0 0 -776286 20638.3 0 -782290 41240 0 -788358 61806.6 0 -794492 82339.4 0 -800693 102840 0 -806963 123309 0 -813303 143749 0 -819714 164161 0 -826198 184546 0 -832757 204906 0 -839392 225241 0 -846105 245554 0 -852897 265847 0 -859770 286119 0 -866725 306373 0 -873763 326610 0 -880886 346831 0 -888096 367039 0 -895393 387233 0 -902780 407416 0 -910258 427590 0 -917827 447754 0 -925490 467911 0 -933249 488062 0 -941103 508208 0 -949055 528351 0 -957105 548491 0 -965256 568630 0 -973509 588770 0 -981864 608911 0 -990324 629055 0 -998889 649203 0 -1.00756e+06 669355 0 -1.01634e+06 689513 0 -1.02523e+06 709678 0 -1.03423e+06 729851 0 -1.04334e+06 750033 0 -1.05256e+06 770224 0 -1.0619e+06 790425 0 -1.07135e+06 810638 0 -1.08092e+06 830863 0 -1.0906e+06 851100 0 -1.10041e+06 871350 0 -1.11033e+06 891613 0 -1.12038e+06 911890 0 -1.13055e+06 932180 0 -1.14084e+06 952485 0 -1.15126e+06 972803 0 -1.1618e+06 993135 0 -1.17247e+06 1.01348e+06 0 -1.18327e+06 1.03384e+06 0 -1.1942e+06 1.05421e+06 0 -1.20526e+06 1.07459e+06 0 -1.21645e+06 1.09498e+06 0 -1.22778e+06 1.11539e+06 0 -1.23924e+06 1.1358e+06 0 -1.25084e+06 1.15621e+06 0 -1.26258e+06 1.17663e+06 0 -1.27447e+06 1.19706e+06 0 -1.2865e+06 1.21748e+06 0 -1.29867e+06 1.2379e+06 0 -1.311e+06 1.25831e+06 0 -1.32347e+06 1.27872e+06 0 -1.3361e+06 1.29911e+06 0 -1.34889e+06 1.31948e+06 0 -1.36185e+06 1.33983e+06 0 -1.37496e+06 1.36015e+06 0 -1.38825e+06 1.38044e+06 0 -1.40172e+06 1.40069e+06 0 -1.41537e+06 1.4209e+06 0 -1.4292e+06 1.44105e+06 0 -1.44323e+06 1.46114e+06 0 -1.45746e+06 1.48117e+06 0 -1.4719e+06 1.50111e+06 0 -1.48656e+06 1.52097e+06 0 -1.50145e+06 1.54073e+06 0 -1.51658e+06 1.56037e+06 0 -1.53196e+06 1.5799e+06 0 -1.54761e+06 1.59929e+06 0 -1.56353e+06 1.61854e+06 0 -1.57976e+06 1.63761e+06 0 -1.5963e+06 1.65652e+06 0 -1.61317e+06 1.67522e+06 0 -1.6304e+06 1.69371e+06 0 -1.64801e+06 1.71197e+06 0 -1.66603e+06 1.72997e+06 0 -1.68448e+06 1.7477e+06 0 -1.70341e+06 1.76514e+06 0 -1.72283e+06 1.78225e+06 0 -1.74279e+06 1.79902e+06 0 -1.76333e+06 1.81541e+06 0 -1.7845e+06 1.83141e+06 0 -1.80634e+06 1.84697e+06 0 -1.82891e+06 1.86206e+06 0 -1.85226e+06 1.87666e+06 0 -1.87646e+06 1.89072e+06 0 -1.90157e+06 1.90421e+06 0 -1.92767e+06 1.91708e+06 0 -1.95484e+06 1.92928e+06 0 -1.98316e+06 1.94077e+06 0 -2.01272e+06 1.95149e+06 0 -2.04362e+06 1.96138e+06 0 -2.07598e+06 1.97036e+06 0 -2.1099e+06 1.97837e+06 0 -2.14552e+06 1.98531e+06 0 -2.18296e+06 1.99109e+06 0 -2.22236e+06 1.99559e+06 0 -2.2639e+06 1.99867e+06 0 -2.30772e+06 2.00019e+06 0 -2.35401e+06 1.99994e+06 0 -2.40295e+06 1.99772e+06 0 -2.45477e+06 1.99325e+06 0 -2.50967e+06 1.98621e+06 0 -2.5679e+06 1.9762e+06 0 -2.6297e+06 1.96275e+06 0 -2.69536e+06 1.94525e+06 0 -2.76516e+06 1.92296e+06 0 -2.83943e+06 1.89495e+06 0 -2.9185e+06 1.86005e+06 0 -3.00276e+06 1.81679e+06 0 -3.09261e+06 1.76329e+06 0 -3.18849e+06 1.69717e+06 0 -3.29089e+06 1.6154e+06 0 -3.40032e+06 1.51409e+06 0 -3.5173e+06 1.38825e+06 0 -3.64226e+06 1.23147e+06 0 -3.77547e+06 1.03545e+06 0 -764454 0 0 -770425 20657.2 0 -776458 41278 0 -782555 61863.7 0 -788716 82415.8 0 -794944 102936 0 -801241 123425 0 -807606 143884 0 -814043 164316 0 -820553 184721 0 -827137 205100 0 -833796 225456 0 -840533 245790 0 -847348 266102 0 -854244 286395 0 -861221 306669 0 -868281 326927 0 -875426 347169 0 -882657 367397 0 -889975 387612 0 -897382 407816 0 -904880 428010 0 -912469 448195 0 -920152 468373 0 -927928 488545 0 -935801 508712 0 -943771 528876 0 -951840 549037 0 -960008 569198 0 -968278 589358 0 -976651 609521 0 -985127 629685 0 -993708 649854 0 -1.0024e+06 670027 0 -1.01119e+06 690206 0 -1.0201e+06 710392 0 -1.02911e+06 730586 0 -1.03824e+06 750789 0 -1.04747e+06 771001 0 -1.05683e+06 791223 0 -1.06629e+06 811457 0 -1.07588e+06 831703 0 -1.08558e+06 851960 0 -1.0954e+06 872231 0 -1.10534e+06 892515 0 -1.1154e+06 912813 0 -1.12558e+06 933124 0 -1.13588e+06 953449 0 -1.14632e+06 973788 0 -1.15687e+06 994141 0 -1.16756e+06 1.01451e+06 0 -1.17837e+06 1.03489e+06 0 -1.18931e+06 1.05528e+06 0 -1.20039e+06 1.07568e+06 0 -1.2116e+06 1.0961e+06 0 -1.22294e+06 1.11652e+06 0 -1.23442e+06 1.13695e+06 0 -1.24604e+06 1.15739e+06 0 -1.2578e+06 1.17783e+06 0 -1.2697e+06 1.19828e+06 0 -1.28174e+06 1.21872e+06 0 -1.29394e+06 1.23916e+06 0 -1.30628e+06 1.2596e+06 0 -1.31878e+06 1.28003e+06 0 -1.33143e+06 1.30044e+06 0 -1.34424e+06 1.32084e+06 0 -1.35721e+06 1.34122e+06 0 -1.37035e+06 1.36156e+06 0 -1.38367e+06 1.38188e+06 0 -1.39716e+06 1.40216e+06 0 -1.41083e+06 1.4224e+06 0 -1.42469e+06 1.44258e+06 0 -1.43875e+06 1.4627e+06 0 -1.45301e+06 1.48276e+06 0 -1.46748e+06 1.50274e+06 0 -1.48217e+06 1.52263e+06 0 -1.49709e+06 1.54243e+06 0 -1.51225e+06 1.56211e+06 0 -1.52767e+06 1.58168e+06 0 -1.54335e+06 1.60112e+06 0 -1.55932e+06 1.62041e+06 0 -1.57558e+06 1.63954e+06 0 -1.59216e+06 1.6585e+06 0 -1.60908e+06 1.67726e+06 0 -1.62635e+06 1.69581e+06 0 -1.64401e+06 1.71414e+06 0 -1.66208e+06 1.73221e+06 0 -1.68058e+06 1.75002e+06 0 -1.69956e+06 1.76754e+06 0 -1.71903e+06 1.78474e+06 0 -1.73905e+06 1.8016e+06 0 -1.75965e+06 1.8181e+06 0 -1.78088e+06 1.8342e+06 0 -1.80279e+06 1.84987e+06 0 -1.82542e+06 1.8651e+06 0 -1.84884e+06 1.87983e+06 0 -1.87311e+06 1.89404e+06 0 -1.8983e+06 1.90768e+06 0 -1.92447e+06 1.92072e+06 0 -1.95172e+06 1.9331e+06 0 -1.98012e+06 1.94478e+06 0 -2.00977e+06 1.95571e+06 0 -2.04076e+06 1.96582e+06 0 -2.07321e+06 1.97504e+06 0 -2.10724e+06 1.98331e+06 0 -2.14296e+06 1.99053e+06 0 -2.18052e+06 1.9966e+06 0 -2.22005e+06 2.00142e+06 0 -2.26173e+06 2.00485e+06 0 -2.3057e+06 2.00673e+06 0 -2.35217e+06 2.00689e+06 0 -2.40132e+06 2.0051e+06 0 -2.45336e+06 2.0011e+06 0 -2.50853e+06 1.99457e+06 0 -2.56707e+06 1.98512e+06 0 -2.62924e+06 1.97227e+06 0 -2.69535e+06 1.95543e+06 0 -2.76569e+06 1.93386e+06 0 -2.84062e+06 1.90665e+06 0 -2.9205e+06 1.87263e+06 0 -3.00577e+06 1.83036e+06 0 -3.09686e+06 1.77797e+06 0 -3.1943e+06 1.71311e+06 0 -3.29866e+06 1.63278e+06 0 -3.41056e+06 1.53312e+06 0 -3.53067e+06 1.40918e+06 0 -3.65962e+06 1.25459e+06 0 -3.79794e+06 1.06109e+06 0 -758558 0 0 -764559 20676 0 -770621 41315.6 0 -776745 61920.4 0 -782935 82491.7 0 -789190 103031 0 -795513 123539 0 -801905 144019 0 -808368 164470 0 -814902 184894 0 -821511 205294 0 -828195 225670 0 -834955 246023 0 -841794 266356 0 -848712 286669 0 -855712 306964 0 -862794 327242 0 -869961 347504 0 -877213 367753 0 -884552 387989 0 -891979 408213 0 -899497 428428 0 -907106 448634 0 -914808 468833 0 -922603 489025 0 -930495 509213 0 -938483 529398 0 -946569 549580 0 -954756 569762 0 -963043 589943 0 -971432 610126 0 -979925 630312 0 -988522 650502 0 -997226 670696 0 -1.00604e+06 690896 0 -1.01496e+06 711103 0 -1.02399e+06 731318 0 -1.03313e+06 751541 0 -1.04238e+06 771774 0 -1.05175e+06 792018 0 -1.06123e+06 812272 0 -1.07083e+06 832538 0 -1.08054e+06 852817 0 -1.09038e+06 873108 0 -1.10033e+06 893413 0 -1.11041e+06 913732 0 -1.1206e+06 934064 0 -1.13092e+06 954410 0 -1.14137e+06 974770 0 -1.15194e+06 995144 0 -1.16264e+06 1.01553e+06 0 -1.17347e+06 1.03593e+06 0 -1.18443e+06 1.05634e+06 0 -1.19552e+06 1.07677e+06 0 -1.20674e+06 1.0972e+06 0 -1.2181e+06 1.11765e+06 0 -1.2296e+06 1.1381e+06 0 -1.24123e+06 1.15856e+06 0 -1.25301e+06 1.17903e+06 0 -1.26492e+06 1.19949e+06 0 -1.27699e+06 1.21996e+06 0 -1.2892e+06 1.24043e+06 0 -1.30156e+06 1.26089e+06 0 -1.31408e+06 1.28134e+06 0 -1.32675e+06 1.30178e+06 0 -1.33958e+06 1.3222e+06 0 -1.35258e+06 1.3426e+06 0 -1.36574e+06 1.36297e+06 0 -1.37907e+06 1.38332e+06 0 -1.39259e+06 1.40363e+06 0 -1.40629e+06 1.42389e+06 0 -1.42017e+06 1.4441e+06 0 -1.43426e+06 1.46426e+06 0 -1.44854e+06 1.48435e+06 0 -1.46304e+06 1.50436e+06 0 -1.47776e+06 1.52429e+06 0 -1.49272e+06 1.54412e+06 0 -1.50791e+06 1.56385e+06 0 -1.52336e+06 1.58347e+06 0 -1.53908e+06 1.60295e+06 0 -1.55509e+06 1.62229e+06 0 -1.57139e+06 1.64147e+06 0 -1.58801e+06 1.66048e+06 0 -1.60497e+06 1.6793e+06 0 -1.62229e+06 1.69792e+06 0 -1.64e+06 1.71631e+06 0 -1.65811e+06 1.73445e+06 0 -1.67667e+06 1.75234e+06 0 -1.69569e+06 1.76993e+06 0 -1.71522e+06 1.78722e+06 0 -1.7353e+06 1.80418e+06 0 -1.75596e+06 1.82078e+06 0 -1.77724e+06 1.83699e+06 0 -1.79921e+06 1.85278e+06 0 -1.82191e+06 1.86813e+06 0 -1.84539e+06 1.883e+06 0 -1.86973e+06 1.89735e+06 0 -1.89499e+06 1.91115e+06 0 -1.92124e+06 1.92435e+06 0 -1.94856e+06 1.93691e+06 0 -1.97704e+06 1.94879e+06 0 -2.00677e+06 1.95992e+06 0 -2.03786e+06 1.97026e+06 0 -2.0704e+06 1.97972e+06 0 -2.10453e+06 1.98824e+06 0 -2.14035e+06 1.99574e+06 0 -2.17802e+06 2.00211e+06 0 -2.21768e+06 2.00725e+06 0 -2.25949e+06 2.01103e+06 0 -2.30362e+06 2.01329e+06 0 -2.35025e+06 2.01385e+06 0 -2.3996e+06 2.01249e+06 0 -2.45186e+06 2.00896e+06 0 -2.50729e+06 2.00294e+06 0 -2.56614e+06 1.99405e+06 0 -2.62867e+06 1.98181e+06 0 -2.69521e+06 1.96564e+06 0 -2.76608e+06 1.94481e+06 0 -2.84165e+06 1.91841e+06 0 -2.92233e+06 1.8853e+06 0 -3.00857e+06 1.84403e+06 0 -3.10089e+06 1.79279e+06 0 -3.19985e+06 1.72923e+06 0 -3.30613e+06 1.65038e+06 0 -3.42045e+06 1.55244e+06 0 -3.54363e+06 1.43049e+06 0 -3.67649e+06 1.2782e+06 0 -3.81981e+06 1.08737e+06 0 -752658 0 0 -758687 20694.6 0 -764778 41353 0 -770931 61976.7 0 -777148 82567 0 -783430 103125 0 -789780 123653 0 -796198 144152 0 -802687 164622 0 -809247 185067 0 -815880 205486 0 -822588 225882 0 -829372 246255 0 -836234 266608 0 -843175 286941 0 -850198 307256 0 -857302 327555 0 -864490 347838 0 -871763 368107 0 -879123 388363 0 -886571 408608 0 -894109 428843 0 -901737 449070 0 -909458 469290 0 -917273 489503 0 -925183 509712 0 -933190 529917 0 -941294 550120 0 -949498 570323 0 -957802 590525 0 -966208 610729 0 -974718 630936 0 -983332 651146 0 -992052 671361 0 -1.00088e+06 691582 0 -1.00981e+06 711810 0 -1.01886e+06 732045 0 -1.02802e+06 752290 0 -1.03729e+06 772544 0 -1.04667e+06 792808 0 -1.05616e+06 813083 0 -1.06578e+06 833370 0 -1.07551e+06 853670 0 -1.08536e+06 873982 0 -1.09532e+06 894308 0 -1.10541e+06 914647 0 -1.11562e+06 935000 0 -1.12596e+06 955367 0 -1.13642e+06 975748 0 -1.14701e+06 996142 0 -1.15772e+06 1.01655e+06 0 -1.16856e+06 1.03697e+06 0 -1.17954e+06 1.05741e+06 0 -1.19064e+06 1.07785e+06 0 -1.20188e+06 1.09831e+06 0 -1.21326e+06 1.11877e+06 0 -1.22477e+06 1.13925e+06 0 -1.23642e+06 1.15973e+06 0 -1.24821e+06 1.18022e+06 0 -1.26015e+06 1.20071e+06 0 -1.27223e+06 1.2212e+06 0 -1.28446e+06 1.24168e+06 0 -1.29684e+06 1.26217e+06 0 -1.30937e+06 1.28264e+06 0 -1.32206e+06 1.30311e+06 0 -1.33491e+06 1.32355e+06 0 -1.34793e+06 1.34398e+06 0 -1.36112e+06 1.36438e+06 0 -1.37447e+06 1.38475e+06 0 -1.38801e+06 1.40509e+06 0 -1.40173e+06 1.42538e+06 0 -1.41565e+06 1.44563e+06 0 -1.42976e+06 1.46581e+06 0 -1.44407e+06 1.48593e+06 0 -1.4586e+06 1.50598e+06 0 -1.47335e+06 1.52595e+06 0 -1.48834e+06 1.54582e+06 0 -1.50357e+06 1.56559e+06 0 -1.51905e+06 1.58525e+06 0 -1.53481e+06 1.60477e+06 0 -1.55085e+06 1.62416e+06 0 -1.56719e+06 1.6434e+06 0 -1.58385e+06 1.66246e+06 0 -1.60085e+06 1.68134e+06 0 -1.61822e+06 1.70002e+06 0 -1.63597e+06 1.71847e+06 0 -1.65413e+06 1.73669e+06 0 -1.67273e+06 1.75465e+06 0 -1.69181e+06 1.77233e+06 0 -1.71139e+06 1.78971e+06 0 -1.73152e+06 1.80676e+06 0 -1.75224e+06 1.82346e+06 0 -1.77358e+06 1.83978e+06 0 -1.79561e+06 1.85569e+06 0 -1.81837e+06 1.87116e+06 0 -1.84192e+06 1.88616e+06 0 -1.86632e+06 1.90066e+06 0 -1.89165e+06 1.91461e+06 0 -1.91797e+06 1.92799e+06 0 -1.94537e+06 1.94073e+06 0 -1.97393e+06 1.9528e+06 0 -2.00374e+06 1.96414e+06 0 -2.03491e+06 1.97469e+06 0 -2.06754e+06 1.9844e+06 0 -2.10176e+06 1.99318e+06 0 -2.13769e+06 2.00095e+06 0 -2.17547e+06 2.00763e+06 0 -2.21525e+06 2.01309e+06 0 -2.25719e+06 2.01721e+06 0 -2.30147e+06 2.01984e+06 0 -2.34827e+06 2.0208e+06 0 -2.3978e+06 2.01989e+06 0 -2.45028e+06 2.01683e+06 0 -2.50596e+06 2.01133e+06 0 -2.5651e+06 2.003e+06 0 -2.62799e+06 1.99138e+06 0 -2.69495e+06 1.97588e+06 0 -2.76633e+06 1.95579e+06 0 -2.84253e+06 1.93022e+06 0 -2.92398e+06 1.89804e+06 0 -3.01117e+06 1.85781e+06 0 -3.10468e+06 1.80774e+06 0 -3.20513e+06 1.74551e+06 0 -3.31328e+06 1.66821e+06 0 -3.42997e+06 1.57204e+06 0 -3.55614e+06 1.45216e+06 0 -3.69283e+06 1.30229e+06 0 -3.84106e+06 1.11427e+06 0 -746752 0 0 -752811 20713 0 -758930 41390 0 -765111 62032.5 0 -771356 82641.7 0 -777665 103219 0 -784042 123766 0 -790486 144284 0 -797000 164774 0 -803585 185238 0 -810243 205677 0 -816976 226092 0 -823784 246486 0 -830669 266858 0 -837634 287211 0 -844678 307547 0 -851805 327865 0 -859014 348169 0 -866309 368458 0 -873690 388735 0 -881158 409000 0 -888716 429256 0 -896364 449504 0 -904104 469744 0 -911938 489978 0 -919866 510207 0 -927891 530433 0 -936013 550657 0 -944235 570880 0 -952556 591104 0 -960980 611328 0 -969506 631556 0 -978137 651787 0 -986873 672023 0 -995716 692265 0 -1.00467e+06 712513 0 -1.01373e+06 732770 0 -1.0229e+06 753035 0 -1.03218e+06 773310 0 -1.04158e+06 793595 0 -1.05109e+06 813891 0 -1.06072e+06 834199 0 -1.07047e+06 854519 0 -1.08033e+06 874852 0 -1.09031e+06 895198 0 -1.10041e+06 915558 0 -1.11064e+06 935932 0 -1.12099e+06 956320 0 -1.13146e+06 976721 0 -1.14207e+06 997137 0 -1.15279e+06 1.01757e+06 0 -1.16365e+06 1.03801e+06 0 -1.17464e+06 1.05846e+06 0 -1.18576e+06 1.07893e+06 0 -1.19702e+06 1.09941e+06 0 -1.20841e+06 1.1199e+06 0 -1.21993e+06 1.14039e+06 0 -1.2316e+06 1.1609e+06 0 -1.24341e+06 1.1814e+06 0 -1.25536e+06 1.20192e+06 0 -1.26746e+06 1.22243e+06 0 -1.27971e+06 1.24294e+06 0 -1.29211e+06 1.26345e+06 0 -1.30466e+06 1.28395e+06 0 -1.31737e+06 1.30443e+06 0 -1.33024e+06 1.32491e+06 0 -1.34328e+06 1.34536e+06 0 -1.35649e+06 1.36579e+06 0 -1.36987e+06 1.38619e+06 0 -1.38343e+06 1.40655e+06 0 -1.39718e+06 1.42687e+06 0 -1.41111e+06 1.44715e+06 0 -1.42525e+06 1.46736e+06 0 -1.43959e+06 1.48752e+06 0 -1.45415e+06 1.5076e+06 0 -1.46893e+06 1.52761e+06 0 -1.48395e+06 1.54752e+06 0 -1.49921e+06 1.56733e+06 0 -1.51473e+06 1.58703e+06 0 -1.53052e+06 1.6066e+06 0 -1.54659e+06 1.62604e+06 0 -1.56297e+06 1.64532e+06 0 -1.57968e+06 1.66444e+06 0 -1.59672e+06 1.68338e+06 0 -1.61412e+06 1.70212e+06 0 -1.63192e+06 1.72064e+06 0 -1.65013e+06 1.73893e+06 0 -1.66878e+06 1.75697e+06 0 -1.6879e+06 1.77473e+06 0 -1.70754e+06 1.7922e+06 0 -1.72772e+06 1.80934e+06 0 -1.74849e+06 1.82614e+06 0 -1.7699e+06 1.84257e+06 0 -1.79198e+06 1.85859e+06 0 -1.8148e+06 1.87419e+06 0 -1.83842e+06 1.88933e+06 0 -1.86289e+06 1.90397e+06 0 -1.88828e+06 1.91808e+06 0 -1.91467e+06 1.93162e+06 0 -1.94214e+06 1.94454e+06 0 -1.97077e+06 1.9568e+06 0 -2.00066e+06 1.96835e+06 0 -2.03192e+06 1.97913e+06 0 -2.06464e+06 1.98907e+06 0 -2.09895e+06 1.99811e+06 0 -2.13498e+06 2.00616e+06 0 -2.17287e+06 2.01314e+06 0 -2.21276e+06 2.01892e+06 0 -2.25483e+06 2.02339e+06 0 -2.29924e+06 2.0264e+06 0 -2.3462e+06 2.02777e+06 0 -2.39591e+06 2.02729e+06 0 -2.44861e+06 2.02471e+06 0 -2.50453e+06 2.01973e+06 0 -2.56395e+06 2.01197e+06 0 -2.62719e+06 2.00097e+06 0 -2.69456e+06 1.98615e+06 0 -2.76644e+06 1.96683e+06 0 -2.84325e+06 1.94209e+06 0 -2.92545e+06 1.91085e+06 0 -3.01357e+06 1.87168e+06 0 -3.10823e+06 1.82281e+06 0 -3.21014e+06 1.76196e+06 0 -3.32011e+06 1.68624e+06 0 -3.43911e+06 1.59191e+06 0 -3.56822e+06 1.47418e+06 0 -3.70865e+06 1.32684e+06 0 -3.86169e+06 1.14177e+06 0 -740841 0 0 -746929 20731.3 0 -753077 41426.8 0 -759286 62087.8 0 -765559 82715.8 0 -771895 103312 0 -778298 123878 0 -784769 144415 0 -791309 164925 0 -797919 185408 0 -804602 205866 0 -811359 226301 0 -818191 246714 0 -825099 267107 0 -832087 287480 0 -839154 307835 0 -846302 328174 0 -853534 348497 0 -860849 368807 0 -868251 389104 0 -875740 409390 0 -883318 429666 0 -890985 449934 0 -898745 470195 0 -906598 490449 0 -914545 510700 0 -922588 530946 0 -930728 551191 0 -938967 571435 0 -947306 591679 0 -955746 611924 0 -964289 632172 0 -972936 652424 0 -981689 672681 0 -990548 692944 0 -999515 713213 0 -1.00859e+06 733490 0 -1.01778e+06 753776 0 -1.02708e+06 774072 0 -1.03649e+06 794378 0 -1.04602e+06 814694 0 -1.05566e+06 835023 0 -1.06542e+06 855364 0 -1.0753e+06 875718 0 -1.08529e+06 896085 0 -1.09541e+06 916466 0 -1.10565e+06 936860 0 -1.11602e+06 957269 0 -1.1265e+06 977691 0 -1.13712e+06 998128 0 -1.14786e+06 1.01858e+06 0 -1.15874e+06 1.03904e+06 0 -1.16974e+06 1.05952e+06 0 -1.18087e+06 1.08001e+06 0 -1.19214e+06 1.1005e+06 0 -1.20355e+06 1.12101e+06 0 -1.21509e+06 1.14153e+06 0 -1.22678e+06 1.16206e+06 0 -1.2386e+06 1.18259e+06 0 -1.25057e+06 1.20312e+06 0 -1.26269e+06 1.22366e+06 0 -1.27495e+06 1.24419e+06 0 -1.28737e+06 1.26472e+06 0 -1.29994e+06 1.28525e+06 0 -1.31267e+06 1.30576e+06 0 -1.32556e+06 1.32626e+06 0 -1.33862e+06 1.34673e+06 0 -1.35185e+06 1.36719e+06 0 -1.36526e+06 1.38762e+06 0 -1.37884e+06 1.40801e+06 0 -1.39261e+06 1.42836e+06 0 -1.40657e+06 1.44866e+06 0 -1.42074e+06 1.46891e+06 0 -1.43511e+06 1.4891e+06 0 -1.44969e+06 1.50922e+06 0 -1.4645e+06 1.52926e+06 0 -1.47955e+06 1.54921e+06 0 -1.49484e+06 1.56906e+06 0 -1.51039e+06 1.58881e+06 0 -1.52622e+06 1.60842e+06 0 -1.54233e+06 1.62791e+06 0 -1.55875e+06 1.64725e+06 0 -1.57549e+06 1.66642e+06 0 -1.59257e+06 1.68542e+06 0 -1.61002e+06 1.70422e+06 0 -1.62786e+06 1.72281e+06 0 -1.64611e+06 1.74117e+06 0 -1.66481e+06 1.75928e+06 0 -1.68398e+06 1.77713e+06 0 -1.70367e+06 1.79468e+06 0 -1.7239e+06 1.81192e+06 0 -1.74473e+06 1.82882e+06 0 -1.76619e+06 1.84536e+06 0 -1.78833e+06 1.8615e+06 0 -1.81121e+06 1.87722e+06 0 -1.83489e+06 1.89249e+06 0 -1.85942e+06 1.90728e+06 0 -1.88488e+06 1.92155e+06 0 -1.91134e+06 1.93525e+06 0 -1.93888e+06 1.94835e+06 0 -1.96758e+06 1.96081e+06 0 -1.99755e+06 1.97256e+06 0 -2.02888e+06 1.98356e+06 0 -2.06169e+06 1.99375e+06 0 -2.09609e+06 2.00304e+06 0 -2.13221e+06 2.01137e+06 0 -2.1702e+06 2.01864e+06 0 -2.21021e+06 2.02475e+06 0 -2.2524e+06 2.02957e+06 0 -2.29695e+06 2.03295e+06 0 -2.34406e+06 2.03473e+06 0 -2.39395e+06 2.03469e+06 0 -2.44684e+06 2.0326e+06 0 -2.503e+06 2.02814e+06 0 -2.56271e+06 2.02095e+06 0 -2.62627e+06 2.01058e+06 0 -2.69404e+06 1.99646e+06 0 -2.76641e+06 1.9779e+06 0 -2.8438e+06 1.95402e+06 0 -2.92673e+06 1.92373e+06 0 -3.01576e+06 1.88564e+06 0 -3.11155e+06 1.838e+06 0 -3.21487e+06 1.77856e+06 0 -3.32662e+06 1.70447e+06 0 -3.44787e+06 1.61204e+06 0 -3.57984e+06 1.49654e+06 0 -3.72393e+06 1.35182e+06 0 -3.88167e+06 1.16984e+06 0 -734925 0 0 -741042 20749.5 0 -747219 41463.3 0 -753456 62142.8 0 -759756 82789.4 0 -766120 103404 0 -772550 123989 0 -779047 144545 0 -785612 165074 0 -792248 185576 0 -798955 206054 0 -805736 226509 0 -812592 246942 0 -819524 267354 0 -826534 287747 0 -833624 308122 0 -840795 328480 0 -848048 348824 0 -855385 369154 0 -862807 389471 0 -870316 409777 0 -877914 430074 0 -885602 450362 0 -893381 470643 0 -901252 490918 0 -909218 511189 0 -917279 531456 0 -925437 551722 0 -933694 571986 0 -942050 592251 0 -950508 612517 0 -959067 632786 0 -967731 653058 0 -976500 673336 0 -985375 693619 0 -994358 713909 0 -1.00345e+06 734207 0 -1.01265e+06 754514 0 -1.02197e+06 774830 0 -1.03139e+06 795157 0 -1.04094e+06 815494 0 -1.05059e+06 835844 0 -1.06037e+06 856205 0 -1.07026e+06 876580 0 -1.08027e+06 896968 0 -1.0904e+06 917369 0 -1.10066e+06 937785 0 -1.11104e+06 958214 0 -1.12154e+06 978658 0 -1.13217e+06 999115 0 -1.14293e+06 1.01959e+06 0 -1.15381e+06 1.04007e+06 0 -1.16483e+06 1.06057e+06 0 -1.17598e+06 1.08108e+06 0 -1.18727e+06 1.1016e+06 0 -1.19869e+06 1.12213e+06 0 -1.21025e+06 1.14267e+06 0 -1.22195e+06 1.16322e+06 0 -1.23379e+06 1.18377e+06 0 -1.24578e+06 1.20432e+06 0 -1.25791e+06 1.22488e+06 0 -1.27019e+06 1.24544e+06 0 -1.28263e+06 1.26599e+06 0 -1.29522e+06 1.28654e+06 0 -1.30797e+06 1.30708e+06 0 -1.32088e+06 1.3276e+06 0 -1.33396e+06 1.34811e+06 0 -1.34721e+06 1.36859e+06 0 -1.36064e+06 1.38904e+06 0 -1.37424e+06 1.40946e+06 0 -1.38804e+06 1.42984e+06 0 -1.40202e+06 1.45018e+06 0 -1.41621e+06 1.47046e+06 0 -1.43061e+06 1.49068e+06 0 -1.44522e+06 1.51084e+06 0 -1.46006e+06 1.53092e+06 0 -1.47514e+06 1.5509e+06 0 -1.49046e+06 1.5708e+06 0 -1.50605e+06 1.59058e+06 0 -1.52191e+06 1.61025e+06 0 -1.53805e+06 1.62978e+06 0 -1.55451e+06 1.64917e+06 0 -1.57129e+06 1.6684e+06 0 -1.58841e+06 1.68745e+06 0 -1.6059e+06 1.70632e+06 0 -1.62378e+06 1.72498e+06 0 -1.64208e+06 1.74341e+06 0 -1.66082e+06 1.7616e+06 0 -1.68005e+06 1.77952e+06 0 -1.69978e+06 1.79716e+06 0 -1.72007e+06 1.8145e+06 0 -1.74094e+06 1.8315e+06 0 -1.76246e+06 1.84814e+06 0 -1.78466e+06 1.8644e+06 0 -1.80759e+06 1.88025e+06 0 -1.83133e+06 1.89566e+06 0 -1.85592e+06 1.91059e+06 0 -1.88144e+06 1.92501e+06 0 -1.90797e+06 1.93888e+06 0 -1.93558e+06 1.95216e+06 0 -1.96435e+06 1.96481e+06 0 -1.9944e+06 1.97677e+06 0 -2.02581e+06 1.98799e+06 0 -2.05869e+06 1.99842e+06 0 -2.09318e+06 2.00797e+06 0 -2.1294e+06 2.01658e+06 0 -2.16748e+06 2.02415e+06 0 -2.2076e+06 2.03058e+06 0 -2.24991e+06 2.03575e+06 0 -2.29459e+06 2.03951e+06 0 -2.34185e+06 2.04169e+06 0 -2.39191e+06 2.0421e+06 0 -2.44499e+06 2.04049e+06 0 -2.50138e+06 2.03656e+06 0 -2.56135e+06 2.02995e+06 0 -2.62524e+06 2.02021e+06 0 -2.69339e+06 2.00679e+06 0 -2.76623e+06 1.989e+06 0 -2.8442e+06 1.96599e+06 0 -2.92783e+06 1.93668e+06 0 -3.01774e+06 1.89969e+06 0 -3.11463e+06 1.8533e+06 0 -3.21932e+06 1.79531e+06 0 -3.3328e+06 1.72289e+06 0 -3.45624e+06 1.63242e+06 0 -3.591e+06 1.51922e+06 0 -3.73865e+06 1.37722e+06 0 -3.90099e+06 1.19846e+06 0 -729003 0 0 -735150 20767.5 0 -741355 41499.4 0 -747621 62197.3 0 -753949 82862.3 0 -760340 103496 0 -766796 124100 0 -773319 144674 0 -779910 165222 0 -786571 185744 0 -793304 206241 0 -800109 226715 0 -806988 247167 0 -813944 267599 0 -820977 288011 0 -828089 308406 0 -835282 328785 0 -842557 349148 0 -849915 369498 0 -857358 389836 0 -864888 410162 0 -872506 430479 0 -880213 450788 0 -888011 471089 0 -895902 491385 0 -903886 511676 0 -911966 531963 0 -920142 552249 0 -928416 572534 0 -936790 592819 0 -945264 613106 0 -953841 633396 0 -962521 653689 0 -971306 673987 0 -980197 694291 0 -989196 714602 0 -998303 734921 0 -1.00752e+06 755248 0 -1.01685e+06 775585 0 -1.02629e+06 795932 0 -1.03585e+06 816290 0 -1.04552e+06 836661 0 -1.05531e+06 857043 0 -1.06522e+06 877438 0 -1.07524e+06 897847 0 -1.08539e+06 918269 0 -1.09566e+06 938705 0 -1.10605e+06 959156 0 -1.11657e+06 979620 0 -1.12721e+06 1.0001e+06 0 -1.13799e+06 1.02059e+06 0 -1.14889e+06 1.0411e+06 0 -1.15992e+06 1.06161e+06 0 -1.17109e+06 1.08214e+06 0 -1.18239e+06 1.10269e+06 0 -1.19383e+06 1.12324e+06 0 -1.2054e+06 1.1438e+06 0 -1.21712e+06 1.16437e+06 0 -1.22897e+06 1.18495e+06 0 -1.24098e+06 1.20552e+06 0 -1.25313e+06 1.22611e+06 0 -1.26543e+06 1.24669e+06 0 -1.27788e+06 1.26726e+06 0 -1.29049e+06 1.28784e+06 0 -1.30326e+06 1.3084e+06 0 -1.31619e+06 1.32895e+06 0 -1.32929e+06 1.34948e+06 0 -1.34256e+06 1.36998e+06 0 -1.35601e+06 1.39047e+06 0 -1.36964e+06 1.41092e+06 0 -1.38346e+06 1.43133e+06 0 -1.39747e+06 1.45169e+06 0 -1.41168e+06 1.47201e+06 0 -1.42611e+06 1.49226e+06 0 -1.44075e+06 1.51245e+06 0 -1.45561e+06 1.53257e+06 0 -1.47072e+06 1.5526e+06 0 -1.48608e+06 1.57253e+06 0 -1.50169e+06 1.59236e+06 0 -1.51758e+06 1.61207e+06 0 -1.53377e+06 1.63165e+06 0 -1.55026e+06 1.65109e+06 0 -1.56707e+06 1.67037e+06 0 -1.58424e+06 1.68949e+06 0 -1.60177e+06 1.70842e+06 0 -1.61969e+06 1.72714e+06 0 -1.63803e+06 1.74565e+06 0 -1.65682e+06 1.76391e+06 0 -1.67609e+06 1.78192e+06 0 -1.69587e+06 1.79965e+06 0 -1.71621e+06 1.81707e+06 0 -1.73714e+06 1.83418e+06 0 -1.7587e+06 1.85093e+06 0 -1.78096e+06 1.86731e+06 0 -1.80395e+06 1.88328e+06 0 -1.82774e+06 1.89882e+06 0 -1.8524e+06 1.91389e+06 0 -1.87798e+06 1.92847e+06 0 -1.90457e+06 1.94251e+06 0 -1.93224e+06 1.95597e+06 0 -1.96109e+06 1.96881e+06 0 -1.9912e+06 1.98098e+06 0 -2.02269e+06 1.99242e+06 0 -2.05565e+06 2.00308e+06 0 -2.09022e+06 2.0129e+06 0 -2.12653e+06 2.02178e+06 0 -2.16471e+06 2.02965e+06 0 -2.20493e+06 2.0364e+06 0 -2.24735e+06 2.04192e+06 0 -2.29216e+06 2.04606e+06 0 -2.33956e+06 2.04866e+06 0 -2.38978e+06 2.04951e+06 0 -2.44306e+06 2.04839e+06 0 -2.49966e+06 2.04498e+06 0 -2.55989e+06 2.03895e+06 0 -2.62408e+06 2.02985e+06 0 -2.69261e+06 2.01714e+06 0 -2.7659e+06 2.00014e+06 0 -2.84443e+06 1.97801e+06 0 -2.92875e+06 1.94968e+06 0 -3.01951e+06 1.91382e+06 0 -3.11746e+06 1.86871e+06 0 -3.22348e+06 1.8122e+06 0 -3.33865e+06 1.7415e+06 0 -3.46421e+06 1.65304e+06 0 -3.60168e+06 1.54221e+06 0 -3.75281e+06 1.40302e+06 0 -3.91962e+06 1.22761e+06 0 -723077 0 0 -729252 20785.3 0 -735487 41535.3 0 -741780 62251.3 0 -748136 82934.7 0 -754554 103587 0 -761037 124209 0 -767586 144803 0 -774203 165369 0 -780890 185910 0 -787647 206426 0 -794476 226919 0 -801380 247391 0 -808359 267842 0 -815415 288274 0 -822550 308689 0 -829764 329087 0 -837061 349471 0 -844440 369840 0 -851904 390198 0 -859455 410545 0 -867093 430882 0 -874820 451210 0 -882637 471532 0 -890547 491848 0 -898550 512159 0 -906648 532467 0 -914842 552774 0 -923134 573079 0 -931525 593385 0 -940016 613692 0 -948609 634002 0 -957306 654316 0 -966107 674635 0 -975015 694960 0 -984029 715291 0 -993152 735630 0 -1.00239e+06 755978 0 -1.01173e+06 776336 0 -1.02119e+06 796704 0 -1.03076e+06 817083 0 -1.04045e+06 837474 0 -1.05025e+06 857877 0 -1.06017e+06 878293 0 -1.07021e+06 898722 0 -1.08037e+06 919165 0 -1.09066e+06 939622 0 -1.10106e+06 960093 0 -1.1116e+06 980578 0 -1.12226e+06 1.00108e+06 0 -1.13304e+06 1.02159e+06 0 -1.14396e+06 1.04212e+06 0 -1.15501e+06 1.06266e+06 0 -1.16619e+06 1.08321e+06 0 -1.1775e+06 1.10377e+06 0 -1.18896e+06 1.12435e+06 0 -1.20055e+06 1.14493e+06 0 -1.21228e+06 1.16552e+06 0 -1.22415e+06 1.18612e+06 0 -1.23617e+06 1.20672e+06 0 -1.24834e+06 1.22732e+06 0 -1.26066e+06 1.24793e+06 0 -1.27313e+06 1.26853e+06 0 -1.28575e+06 1.28913e+06 0 -1.29854e+06 1.30971e+06 0 -1.31149e+06 1.33029e+06 0 -1.32461e+06 1.35084e+06 0 -1.33791e+06 1.37138e+06 0 -1.35138e+06 1.39189e+06 0 -1.36503e+06 1.41237e+06 0 -1.37887e+06 1.43281e+06 0 -1.39291e+06 1.4532e+06 0 -1.40714e+06 1.47355e+06 0 -1.42159e+06 1.49384e+06 0 -1.43626e+06 1.51407e+06 0 -1.45116e+06 1.53422e+06 0 -1.46629e+06 1.55428e+06 0 -1.48168e+06 1.57426e+06 0 -1.49733e+06 1.59413e+06 0 -1.51325e+06 1.61389e+06 0 -1.52947e+06 1.63352e+06 0 -1.546e+06 1.65301e+06 0 -1.56285e+06 1.67235e+06 0 -1.58005e+06 1.69152e+06 0 -1.59762e+06 1.71051e+06 0 -1.61558e+06 1.7293e+06 0 -1.63397e+06 1.74788e+06 0 -1.6528e+06 1.76622e+06 0 -1.67212e+06 1.78431e+06 0 -1.69195e+06 1.80213e+06 0 -1.71233e+06 1.81965e+06 0 -1.73331e+06 1.83685e+06 0 -1.75492e+06 1.85371e+06 0 -1.77723e+06 1.87021e+06 0 -1.80028e+06 1.88631e+06 0 -1.82413e+06 1.90198e+06 0 -1.84884e+06 1.9172e+06 0 -1.87449e+06 1.93193e+06 0 -1.90114e+06 1.94613e+06 0 -1.92887e+06 1.95977e+06 0 -1.95779e+06 1.9728e+06 0 -1.98797e+06 1.98518e+06 0 -2.01952e+06 1.99685e+06 0 -2.05256e+06 2.00775e+06 0 -2.08721e+06 2.01782e+06 0 -2.1236e+06 2.02698e+06 0 -2.16188e+06 2.03515e+06 0 -2.2022e+06 2.04223e+06 0 -2.24473e+06 2.04809e+06 0 -2.28966e+06 2.05261e+06 0 -2.3372e+06 2.05562e+06 0 -2.38757e+06 2.05692e+06 0 -2.44103e+06 2.05628e+06 0 -2.49784e+06 2.05341e+06 0 -2.55833e+0