<?xml version="1.0"?> 
<VTKFile type="StructuredGrid" version="0.1"> 
<StructuredGrid WholeExtent="0 127 0 127 0 0"> 
<Piece Extent="0 127 0 127 0 0"> 
<PointData>
<DataArray type="Float32" Name="|E|" format="ascii" NumberOfComponents="3"> 
-3.7524e+06 1.01047e+06 0 -3.75781e+06 1.00535e+06 0 -3.76324e+06 1.00019e+06 0 -3.76871e+06 995002 0 -3.7742e+06 989780 0 -3.77972e+06 984525 0 -3.78526e+06 979236 0 -3.79084e+06 973913 0 -3.79644e+06 968556 0 -3.80207e+06 963165 0 -3.80773e+06 957739 0 -3.81342e+06 952279 0 -3.81913e+06 946783 0 -3.82488e+06 941253 0 -3.83065e+06 935686 0 -3.83645e+06 930084 0 -3.84229e+06 924446 0 -3.84815e+06 918772 0 -3.85405e+06 913062 0 -3.85997e+06 907314 0 -3.86592e+06 901530 0 -3.87191e+06 895708 0 -3.87793e+06 889849 0 -3.88398e+06 883953 0 -3.89006e+06 878018 0 -3.89617e+06 872045 0 -3.90231e+06 866033 0 -3.90849e+06 859983 0 -3.91469e+06 853894 0 -3.92094e+06 847765 0 -3.92721e+06 841597 0 -3.93352e+06 835389 0 -3.93986e+06 829140 0 -3.94624e+06 822851 0 -3.95264e+06 816522 0 -3.95909e+06 810151 0 -3.96557e+06 803739 0 -3.97208e+06 797286 0 -3.97863e+06 790791 0 -3.98521e+06 784253 0 -3.99183e+06 777673 0 -3.99849e+06 771050 0 -4.00518e+06 764384 0 -4.01191e+06 757675 0 -4.01868e+06 750922 0 -4.02548e+06 744125 0 -4.03232e+06 737283 0 -4.0392e+06 730397 0 -4.04611e+06 723466 0 -4.05307e+06 716490 0 -4.06006e+06 709468 0 -4.06709e+06 702400 0 -4.07416e+06 695286 0 -4.08127e+06 688125 0 -4.08842e+06 680917 0 -4.09562e+06 673662 0 -4.10285e+06 666359 0 -4.11012e+06 659008 0 -4.11743e+06 651609 0 -4.12479e+06 644161 0 -4.13218e+06 636664 0 -4.13962e+06 629117 0 -4.14711e+06 621521 0 -4.15463e+06 613874 0 -4.1622e+06 606177 0 -4.16981e+06 598429 0 -4.17746e+06 590629 0 -4.18516e+06 582778 0 -4.19291e+06 574875 0 -4.2007e+06 566919 0 -4.20853e+06 558911 0 -4.21641e+06 550849 0 -4.22434e+06 542733 0 -4.23231e+06 534564 0 -4.24033e+06 526339 0 -4.2484e+06 518060 0 -4.25651e+06 509726 0 -4.26467e+06 501336 0 -4.27288e+06 492889 0 -4.28114e+06 484386 0 -4.28945e+06 475826 0 -4.29781e+06 467209 0 -4.30622e+06 458533 0 -4.31468e+06 449799 0 -4.32319e+06 441006 0 -4.33175e+06 432154 0 -4.34037e+06 423242 0 -4.34903e+06 414270 0 -4.35775e+06 405238 0 -4.36652e+06 396144 0 -4.37534e+06 386988 0 -4.38422e+06 377770 0 -4.39316e+06 368490 0 -4.40214e+06 359146 0 -4.41119e+06 349739 0 -4.42029e+06 340268 0 -4.42944e+06 330732 0 -4.43865e+06 321130 0 -4.44792e+06 311464 0 -4.45725e+06 301730 0 -4.46664e+06 291931 0 -4.47608e+06 282063 0 -4.48559e+06 272128 0 -4.49515e+06 262125 0 -4.50477e+06 252053 0 -4.51446e+06 241911 0 -4.5242e+06 231699 0 -4.53401e+06 221417 0 -4.54388e+06 211063 0 -4.55382e+06 200637 0 -4.56381e+06 190140 0 -4.57387e+06 179569 0 -4.584e+06 168924 0 -4.59419e+06 158206 0 -4.60445e+06 147412 0 -4.61477e+06 136543 0 -4.62516e+06 125599 0 -4.63562e+06 114577 0 -4.64615e+06 103478 0 -4.65674e+06 92301.3 0 -4.66741e+06 81045.8 0 -4.67814e+06 69711.1 0 -4.68895e+06 58296.4 0 -4.69983e+06 46801.1 0 -4.71078e+06 35224.5 0 -4.7218e+06 23565.9 0 -4.73289e+06 11824.7 0 -4.74406e+06 8.58307e-06 0 -3.77544e+06 1.03545e+06 0 -3.78098e+06 1.03048e+06 0 -3.78654e+06 1.02548e+06 0 -3.79214e+06 1.02044e+06 0 -3.79776e+06 1.01538e+06 0 -3.80342e+06 1.01028e+06 0 -3.8091e+06 1.00515e+06 0 -3.81481e+06 999983 0 -3.82055e+06 994785 0 -3.82632e+06 989554 0 -3.83211e+06 984290 0 -3.83794e+06 978991 0 -3.8438e+06 973659 0 -3.84969e+06 968292 0 -3.85561e+06 962890 0 -3.86156e+06 957454 0 -3.86755e+06 951983 0 -3.87356e+06 946477 0 -3.8796e+06 940935 0 -3.88568e+06 935357 0 -3.89179e+06 929744 0 -3.89793e+06 924094 0 -3.90411e+06 918408 0 -3.91031e+06 912685 0 -3.91655e+06 906925 0 -3.92283e+06 901128 0 -3.92913e+06 895293 0 -3.93547e+06 889421 0 -3.94185e+06 883511 0 -3.94826e+06 877562 0 -3.9547e+06 871575 0 -3.96118e+06 865549 0 -3.9677e+06 859483 0 -3.97425e+06 853379 0 -3.98083e+06 847235 0 -3.98746e+06 841050 0 -3.99411e+06 834826 0 -4.00081e+06 828561 0 -4.00754e+06 822256 0 -4.01431e+06 815909 0 -4.02112e+06 809521 0 -4.02796e+06 803091 0 -4.03484e+06 796619 0 -4.04177e+06 790105 0 -4.04873e+06 783548 0 -4.05572e+06 776949 0 -4.06276e+06 770306 0 -4.06984e+06 763620 0 -4.07696e+06 756890 0 -4.08412e+06 750115 0 -4.09132e+06 743297 0 -4.09856e+06 736433 0 -4.10584e+06 729524 0 -4.11316e+06 722570 0 -4.12053e+06 715570 0 -4.12793e+06 708524 0 -4.13539e+06 701432 0 -4.14288e+06 694292 0 -4.15042e+06 687106 0 -4.158e+06 679872 0 -4.16562e+06 672590 0 -4.17329e+06 665260 0 -4.181e+06 657882 0 -4.18876e+06 650454 0 -4.19657e+06 642977 0 -4.20442e+06 635451 0 -4.21231e+06 627874 0 -4.22026e+06 620247 0 -4.22825e+06 612569 0 -4.23629e+06 604840 0 -4.24437e+06 597059 0 -4.25251e+06 589227 0 -4.26069e+06 581342 0 -4.26892e+06 573404 0 -4.2772e+06 565413 0 -4.28553e+06 557369 0 -4.29392e+06 549270 0 -4.30235e+06 541117 0 -4.31083e+06 532909 0 -4.31937e+06 524646 0 -4.32796e+06 516328 0 -4.3366e+06 507953 0 -4.34529e+06 499522 0 -4.35404e+06 491033 0 -4.36284e+06 482488 0 -4.37169e+06 473884 0 -4.3806e+06 465222 0 -4.38957e+06 456501 0 -4.39859e+06 447721 0 -4.40766e+06 438881 0 -4.4168e+06 429981 0 -4.42599e+06 421021 0 -4.43524e+06 411999 0 -4.44454e+06 402915 0 -4.45391e+06 393770 0 -4.46333e+06 384561 0 -4.47282e+06 375290 0 -4.48236e+06 365955 0 -4.49197e+06 356556 0 -4.50163e+06 347092 0 -4.51136e+06 337563 0 -4.52115e+06 327968 0 -4.53101e+06 318307 0 -4.54093e+06 308579 0 -4.55091e+06 298784 0 -4.56095e+06 288921 0 -4.57107e+06 278989 0 -4.58124e+06 268989 0 -4.59149e+06 258919 0 -4.6018e+06 248779 0 -4.61218e+06 238568 0 -4.62262e+06 228285 0 -4.63314e+06 217931 0 -4.64373e+06 207505 0 -4.65438e+06 197005 0 -4.66511e+06 186432 0 -4.67591e+06 175784 0 -4.68678e+06 165061 0 -4.69772e+06 154263 0 -4.70873e+06 143388 0 -4.71982e+06 132437 0 -4.73099e+06 121408 0 -4.74223e+06 110301 0 -4.75355e+06 99115.7 0 -4.76494e+06 87850.5 0 -4.77641e+06 76505.1 0 -4.78796e+06 65078.9 0 -4.79959e+06 53571.2 0 -3.7979e+06 1.06109e+06 0 -3.80357e+06 1.05628e+06 0 -3.80926e+06 1.05143e+06 0 -3.81499e+06 1.04655e+06 0 -3.82074e+06 1.04164e+06 0 -3.82653e+06 1.0367e+06 0 -3.83234e+06 1.03173e+06 0 -3.83819e+06 1.02673e+06 0 -3.84406e+06 1.02169e+06 0 -3.84997e+06 1.01662e+06 0 -3.8559e+06 1.01152e+06 0 -3.86187e+06 1.00639e+06 0 -3.86787e+06 1.00122e+06 0 -3.8739e+06 996019 0 -3.87997e+06 990785 0 -3.88606e+06 985518 0 -3.89219e+06 980216 0 -3.89835e+06 974880 0 -3.90455e+06 969510 0 -3.91077e+06 964105 0 -3.91703e+06 958665 0 -3.92333e+06 953189 0 -3.92966e+06 947679 0 -3.93602e+06 942133 0 -3.94242e+06 936550 0 -3.94885e+06 930932 0 -3.95532e+06 925277 0 -3.96182e+06 919586 0 -3.96836e+06 913858 0 -3.97494e+06 908092 0 -3.98155e+06 902289 0 -3.9882e+06 896449 0 -3.99488e+06 890570 0 -4.0016e+06 884653 0 -4.00836e+06 878697 0 -4.01516e+06 872703 0 -4.022e+06 866670 0 -4.02887e+06 860597 0 -4.03578e+06 854485 0 -4.04274e+06 848332 0 -4.04973e+06 842140 0 -4.05676e+06 835907 0 -4.06383e+06 829633 0 -4.07094e+06 823318 0 -4.07809e+06 816962 0 -4.08529e+06 810564 0 -4.09252e+06 804124 0 -4.0998e+06 797641 0 -4.10711e+06 791116 0 -4.11447e+06 784548 0 -4.12188e+06 777937 0 -4.12932e+06 771283 0 -4.13681e+06 764584 0 -4.14434e+06 757841 0 -4.15192e+06 751054 0 -4.15954e+06 744222 0 -4.16721e+06 737345 0 -4.17492e+06 730422 0 -4.18268e+06 723453 0 -4.19048e+06 716438 0 -4.19833e+06 709377 0 -4.20623e+06 702269 0 -4.21417e+06 695113 0 -4.22216e+06 687910 0 -4.2302e+06 680659 0 -4.23829e+06 673359 0 -4.24642e+06 666011 0 -4.25461e+06 658614 0 -4.26284e+06 651167 0 -4.27113e+06 643671 0 -4.27946e+06 636124 0 -4.28785e+06 628527 0 -4.29629e+06 620879 0 -4.30478e+06 613179 0 -4.31332e+06 605428 0 -4.32191e+06 597625 0 -4.33056e+06 589769 0 -4.33926e+06 581860 0 -4.34801e+06 573897 0 -4.35682e+06 565881 0 -4.36569e+06 557811 0 -4.37461e+06 549686 0 -4.38358e+06 541507 0 -4.39261e+06 533271 0 -4.4017e+06 524980 0 -4.41085e+06 516632 0 -4.42005e+06 508228 0 -4.42931e+06 499766 0 -4.43863e+06 491247 0 -4.44801e+06 482670 0 -4.45745e+06 474034 0 -4.46695e+06 465339 0 -4.47652e+06 456584 0 -4.48614e+06 447769 0 -4.49582e+06 438894 0 -4.50557e+06 429958 0 -4.51538e+06 420960 0 -4.52526e+06 411901 0 -4.5352e+06 402779 0 -4.5452e+06 393594 0 -4.55527e+06 384345 0 -4.56541e+06 375033 0 -4.57561e+06 365656 0 -4.58588e+06 356213 0 -4.59622e+06 346706 0 -4.60663e+06 337132 0 -4.6171e+06 327492 0 -4.62765e+06 317784 0 -4.63826e+06 308009 0 -4.64895e+06 298165 0 -4.65971e+06 288252 0 -4.67054e+06 278270 0 -4.68145e+06 268218 0 -4.69242e+06 258096 0 -4.70348e+06 247902 0 -4.7146e+06 237636 0 -4.72581e+06 227298 0 -4.73709e+06 216887 0 -4.74845e+06 206403 0 -4.75988e+06 195844 0 -4.7714e+06 185210 0 -4.78299e+06 174501 0 -4.79466e+06 163716 0 -4.80642e+06 152853 0 -4.81826e+06 141914 0 -4.83018e+06 130896 0 -4.84218e+06 119800 0 -4.85427e+06 108624 0 -3.81978e+06 1.08737e+06 0 -3.82557e+06 1.08271e+06 0 -3.83139e+06 1.07803e+06 0 -3.83724e+06 1.07331e+06 0 -3.84312e+06 1.06856e+06 0 -3.84903e+06 1.06378e+06 0 -3.85498e+06 1.05897e+06 0 -3.86095e+06 1.05413e+06 0 -3.86696e+06 1.04925e+06 0 -3.873e+06 1.04435e+06 0 -3.87907e+06 1.03941e+06 0 -3.88518e+06 1.03445e+06 0 -3.89132e+06 1.02945e+06 0 -3.89749e+06 1.02442e+06 0 -3.90369e+06 1.01935e+06 0 -3.90993e+06 1.01425e+06 0 -3.9162e+06 1.00912e+06 0 -3.92251e+06 1.00396e+06 0 -3.92885e+06 998765 0 -3.93522e+06 993536 0 -3.94163e+06 988272 0 -3.94808e+06 982974 0 -3.95456e+06 977642 0 -3.96108e+06 972275 0 -3.96763e+06 966874 0 -3.97422e+06 961437 0 -3.98085e+06 955966 0 -3.98751e+06 950458 0 -3.99421e+06 944915 0 -4.00095e+06 939336 0 -4.00773e+06 933720 0 -4.01454e+06 928068 0 -4.02139e+06 922379 0 -4.02829e+06 916653 0 -4.03522e+06 910890 0 -4.04219e+06 905089 0 -4.0492e+06 899250 0 -4.05625e+06 893373 0 -4.06334e+06 887458 0 -4.07047e+06 881503 0 -4.07764e+06 875510 0 -4.08486e+06 869478 0 -4.09212e+06 863406 0 -4.09941e+06 857294 0 -4.10675e+06 851142 0 -4.11414e+06 844949 0 -4.12157e+06 838716 0 -4.12904e+06 832442 0 -4.13655e+06 826127 0 -4.14411e+06 819769 0 -4.15171e+06 813370 0 -4.15936e+06 806929 0 -4.16706e+06 800445 0 -4.1748e+06 793918 0 -4.18258e+06 787348 0 -4.19042e+06 780735 0 -4.1983e+06 774078 0 -4.20622e+06 767376 0 -4.2142e+06 760631 0 -4.22222e+06 753840 0 -4.23029e+06 747004 0 -4.23842e+06 740123 0 -4.24659e+06 733195 0 -4.25481e+06 726222 0 -4.26308e+06 719202 0 -4.2714e+06 712135 0 -4.27977e+06 705021 0 -4.2882e+06 697860 0 -4.29667e+06 690650 0 -4.3052e+06 683392 0 -4.31378e+06 676086 0 -4.32242e+06 668730 0 -4.33111e+06 661325 0 -4.33985e+06 653870 0 -4.34865e+06 646365 0 -4.3575e+06 638809 0 -4.36641e+06 631202 0 -4.37538e+06 623544 0 -4.3844e+06 615835 0 -4.39348e+06 608073 0 -4.40262e+06 600258 0 -4.41181e+06 592390 0 -4.42107e+06 584469 0 -4.43038e+06 576495 0 -4.43976e+06 568466 0 -4.44919e+06 560382 0 -4.45869e+06 552243 0 -4.46824e+06 544049 0 -4.47786e+06 535798 0 -4.48754e+06 527491 0 -4.49729e+06 519128 0 -4.5071e+06 510707 0 -4.51697e+06 502228 0 -4.52691e+06 493691 0 -4.53691e+06 485095 0 -4.54698e+06 476440 0 -4.55711e+06 467726 0 -4.56732e+06 458951 0 -4.57759e+06 450116 0 -4.58793e+06 441219 0 -4.59834e+06 432261 0 -4.60882e+06 423241 0 -4.61937e+06 414158 0 -4.62999e+06 405012 0 -4.64068e+06 395803 0 -4.65144e+06 386529 0 -4.66228e+06 377191 0 -4.67319e+06 367787 0 -4.68418e+06 358318 0 -4.69524e+06 348782 0 -4.70638e+06 339180 0 -4.71759e+06 329510 0 -4.72888e+06 319772 0 -4.74025e+06 309966 0 -4.7517e+06 300090 0 -4.76323e+06 290145 0 -4.77484e+06 280129 0 -4.78653e+06 270043 0 -4.7983e+06 259886 0 -4.81015e+06 249656 0 -4.82209e+06 239353 0 -4.83411e+06 228978 0 -4.84622e+06 218528 0 -4.85841e+06 208004 0 -4.87069e+06 197405 0 -4.88306e+06 186730 0 -4.89551e+06 175979 0 -4.90806e+06 165151 0 -3.84104e+06 1.11427e+06 0 -3.84695e+06 1.10977e+06 0 -3.85289e+06 1.10524e+06 0 -3.85887e+06 1.10068e+06 0 -3.86488e+06 1.0961e+06 0 -3.87092e+06 1.09148e+06 0 -3.87699e+06 1.08683e+06 0 -3.88309e+06 1.08216e+06 0 -3.88923e+06 1.07745e+06 0 -3.8954e+06 1.07271e+06 0 -3.90161e+06 1.06795e+06 0 -3.90785e+06 1.06315e+06 0 -3.91412e+06 1.05832e+06 0 -3.92043e+06 1.05346e+06 0 -3.92677e+06 1.04857e+06 0 -3.93315e+06 1.04364e+06 0 -3.93956e+06 1.03869e+06 0 -3.94601e+06 1.0337e+06 0 -3.9525e+06 1.02868e+06 0 -3.95902e+06 1.02363e+06 0 -3.96557e+06 1.01854e+06 0 -3.97217e+06 1.01343e+06 0 -3.9788e+06 1.00828e+06 0 -3.98547e+06 1.00309e+06 0 -3.99217e+06 997874 0 -3.99892e+06 992622 0 -4.0057e+06 987336 0 -4.01252e+06 982016 0 -4.01938e+06 976661 0 -4.02628e+06 971271 0 -4.03322e+06 965847 0 -4.04019e+06 960386 0 -4.04721e+06 954890 0 -4.05427e+06 949359 0 -4.06137e+06 943791 0 -4.06851e+06 938187 0 -4.07569e+06 932546 0 -4.08292e+06 926868 0 -4.09019e+06 921153 0 -4.09749e+06 915401 0 -4.10485e+06 909611 0 -4.11224e+06 903782 0 -4.11968e+06 897916 0 -4.12716e+06 892011 0 -4.13469e+06 886068 0 -4.14226e+06 880085 0 -4.14988e+06 874063 0 -4.15755e+06 868001 0 -4.16525e+06 861899 0 -4.17301e+06 855757 0 -4.18081e+06 849574 0 -4.18866e+06 843351 0 -4.19656e+06 837086 0 -4.2045e+06 830780 0 -4.21249e+06 824432 0 -4.22054e+06 818042 0 -4.22863e+06 811610 0 -4.23677e+06 805135 0 -4.24496e+06 798617 0 -4.2532e+06 792055 0 -4.26149e+06 785450 0 -4.26983e+06 778801 0 -4.27823e+06 772107 0 -4.28668e+06 765369 0 -4.29518e+06 758586 0 -4.30373e+06 751758 0 -4.31233e+06 744884 0 -4.321e+06 737963 0 -4.32971e+06 730997 0 -4.33848e+06 723984 0 -4.34731e+06 716923 0 -4.35619e+06 709815 0 -4.36513e+06 702660 0 -4.37412e+06 695456 0 -4.38317e+06 688203 0 -4.39228e+06 680902 0 -4.40145e+06 673552 0 -4.41068e+06 666151 0 -4.41997e+06 658701 0 -4.42932e+06 651200 0 -4.43873e+06 643648 0 -4.4482e+06 636045 0 -4.45773e+06 628391 0 -4.46732e+06 620684 0 -4.47698e+06 612925 0 -4.4867e+06 605113 0 -4.49648e+06 597247 0 -4.50633e+06 589328 0 -4.51625e+06 581355 0 -4.52623e+06 573327 0 -4.53627e+06 565245 0 -4.54639e+06 557107 0 -4.55657e+06 548913 0 -4.56682e+06 540662 0 -4.57714e+06 532355 0 -4.58752e+06 523991 0 -4.59798e+06 515569 0 -4.60851e+06 507088 0 -4.61911e+06 498550 0 -4.62979e+06 489952 0 -4.64053e+06 481294 0 -4.65135e+06 472577 0 -4.66224e+06 463799 0 -4.67321e+06 454959 0 -4.68426e+06 446059 0 -4.69538e+06 437096 0 -4.70658e+06 428071 0 -4.71785e+06 418983 0 -4.7292e+06 409831 0 -4.74064e+06 400615 0 -4.75215e+06 391334 0 -4.76375e+06 381989 0 -4.77542e+06 372577 0 -4.78718e+06 363100 0 -4.79902e+06 353555 0 -4.81095e+06 343944 0 -4.82296e+06 334264 0 -4.83506e+06 324516 0 -4.84724e+06 314699 0 -4.85951e+06 304812 0 -4.87187e+06 294855 0 -4.88432e+06 284827 0 -4.89685e+06 274728 0 -4.90948e+06 264557 0 -4.9222e+06 254313 0 -4.93502e+06 243997 0 -4.94792e+06 233606 0 -4.96093e+06 223141 0 -3.86167e+06 1.14177e+06 0 -3.8677e+06 1.13743e+06 0 -3.87376e+06 1.13306e+06 0 -3.87986e+06 1.12867e+06 0 -3.88599e+06 1.12424e+06 0 -3.89216e+06 1.11979e+06 0 -3.89835e+06 1.11531e+06 0 -3.90459e+06 1.1108e+06 0 -3.91085e+06 1.10626e+06 0 -3.91715e+06 1.10169e+06 0 -3.92349e+06 1.0971e+06 0 -3.92986e+06 1.09247e+06 0 -3.93627e+06 1.08781e+06 0 -3.94271e+06 1.08313e+06 0 -3.94919e+06 1.07841e+06 0 -3.9557e+06 1.07366e+06 0 -3.96225e+06 1.06888e+06 0 -3.96884e+06 1.06408e+06 0 -3.97547e+06 1.05924e+06 0 -3.98213e+06 1.05436e+06 0 -3.98883e+06 1.04946e+06 0 -3.99557e+06 1.04453e+06 0 -4.00235e+06 1.03956e+06 0 -4.00917e+06 1.03456e+06 0 -4.01602e+06 1.02953e+06 0 -4.02292e+06 1.02446e+06 0 -4.02985e+06 1.01937e+06 0 -4.03683e+06 1.01424e+06 0 -4.04385e+06 1.00907e+06 0 -4.0509e+06 1.00388e+06 0 -4.058e+06 998646 0 -4.06514e+06 993381 0 -4.07232e+06 988081 0 -4.07954e+06 982747 0 -4.08681e+06 977378 0 -4.09412e+06 971974 0 -4.10147e+06 966535 0 -4.10886e+06 961060 0 -4.1163e+06 955549 0 -4.12379e+06 950002 0 -4.13132e+06 944419 0 -4.13889e+06 938799 0 -4.14651e+06 933142 0 -4.15417e+06 927448 0 -4.16189e+06 921717 0 -4.16964e+06 915948 0 -4.17745e+06 910141 0 -4.1853e+06 904295 0 -4.1932e+06 898411 0 -4.20115e+06 892489 0 -4.20915e+06 886527 0 -4.21719e+06 880526 0 -4.22529e+06 874485 0 -4.23344e+06 868404 0 -4.24163e+06 862283 0 -4.24988e+06 856121 0 -4.25818e+06 849919 0 -4.26653e+06 843675 0 -4.27493e+06 837390 0 -4.28339e+06 831063 0 -4.2919e+06 824694 0 -4.30046e+06 818282 0 -4.30908e+06 811828 0 -4.31775e+06 805330 0 -4.32647e+06 798790 0 -4.33525e+06 792205 0 -4.34409e+06 785577 0 -4.35299e+06 778904 0 -4.36194e+06 772186 0 -4.37095e+06 765424 0 -4.38001e+06 758616 0 -4.38914e+06 751762 0 -4.39832e+06 744862 0 -4.40757e+06 737916 0 -4.41687e+06 730923 0 -4.42623e+06 723883 0 -4.43566e+06 716795 0 -4.44515e+06 709659 0 -4.4547e+06 702475 0 -4.46431e+06 695243 0 -4.47399e+06 687961 0 -4.48373e+06 680630 0 -4.49354e+06 673250 0 -4.50341e+06 665819 0 -4.51335e+06 658337 0 -4.52335e+06 650805 0 -4.53342e+06 643221 0 -4.54356e+06 635586 0 -4.55377e+06 627898 0 -4.56404e+06 620158 0 -4.57439e+06 612365 0 -4.5848e+06 604518 0 -4.59529e+06 596618 0 -4.60585e+06 588663 0 -4.61648e+06 580654 0 -4.62718e+06 572590 0 -4.63796e+06 564470 0 -4.64881e+06 556294 0 -4.65974e+06 548061 0 -4.67075e+06 539772 0 -4.68183e+06 531426 0 -4.69298e+06 523021 0 -4.70422e+06 514558 0 -4.71553e+06 506037 0 -4.72693e+06 497456 0 -4.7384e+06 488816 0 -4.74996e+06 480115 0 -4.76159e+06 471354 0 -4.77331e+06 462531 0 -4.78512e+06 453647 0 -4.797e+06 444700 0 -4.80898e+06 435691 0 -4.82103e+06 426619 0 -4.83318e+06 417483 0 -4.84541e+06 408283 0 -4.85774e+06 399018 0 -4.87015e+06 389687 0 -4.88265e+06 380291 0 -4.89524e+06 370828 0 -4.90793e+06 361299 0 -4.9207e+06 351702 0 -4.93358e+06 342037 0 -4.94654e+06 332303 0 -4.95961e+06 322500 0 -4.97277e+06 312627 0 -4.98603e+06 302683 0 -4.99938e+06 292669 0 -5.01284e+06 282583 0 -3.88165e+06 1.16984e+06 0 -3.8878e+06 1.16566e+06 0 -3.89398e+06 1.16146e+06 0 -3.9002e+06 1.15723e+06 0 -3.90645e+06 1.15297e+06 0 -3.91274e+06 1.14869e+06 0 -3.91906e+06 1.14437e+06 0 -3.92541e+06 1.14003e+06 0 -3.93181e+06 1.13566e+06 0 -3.93823e+06 1.13127e+06 0 -3.9447e+06 1.12684e+06 0 -3.9512e+06 1.12239e+06 0 -3.95774e+06 1.11791e+06 0 -3.96431e+06 1.1134e+06 0 -3.97092e+06 1.10886e+06 0 -3.97757e+06 1.10429e+06 0 -3.98426e+06 1.09969e+06 0 -3.99098e+06 1.09506e+06 0 -3.99775e+06 1.09041e+06 0 -4.00455e+06 1.08572e+06 0 -4.0114e+06 1.081e+06 0 -4.01828e+06 1.07625e+06 0 -4.0252e+06 1.07147e+06 0 -4.03216e+06 1.06666e+06 0 -4.03917e+06 1.06182e+06 0 -4.04621e+06 1.05694e+06 0 -4.0533e+06 1.05204e+06 0 -4.06042e+06 1.0471e+06 0 -4.06759e+06 1.04213e+06 0 -4.0748e+06 1.03713e+06 0 -4.08206e+06 1.0321e+06 0 -4.08936e+06 1.02703e+06 0 -4.0967e+06 1.02193e+06 0 -4.10408e+06 1.0168e+06 0 -4.11151e+06 1.01163e+06 0 -4.11898e+06 1.00643e+06 0 -4.1265e+06 1.00119e+06 0 -4.13407e+06 995925 0 -4.14168e+06 990622 0 -4.14933e+06 985285 0 -4.15703e+06 979912 0 -4.16478e+06 974504 0 -4.17258e+06 969061 0 -4.18042e+06 963582 0 -4.18832e+06 958067 0 -4.19626e+06 952515 0 -4.20425e+06 946927 0 -4.21229e+06 941303 0 -4.22037e+06 935641 0 -4.22851e+06 929942 0 -4.2367e+06 924206 0 -4.24495e+06 918431 0 -4.25324e+06 912619 0 -4.26158e+06 906768 0 -4.26998e+06 900878 0 -4.27843e+06 894950 0 -4.28693e+06 888982 0 -4.29549e+06 882974 0 -4.30411e+06 876927 0 -4.31277e+06 870840 0 -4.32149e+06 864712 0 -4.33027e+06 858543 0 -4.33911e+06 852333 0 -4.348e+06 846082 0 -4.35695e+06 839790 0 -4.36596e+06 833455 0 -4.37502e+06 827078 0 -4.38415e+06 820658 0 -4.39333e+06 814196 0 -4.40257e+06 807690 0 -4.41188e+06 801141 0 -4.42124e+06 794547 0 -4.43067e+06 787910 0 -4.44016e+06 781228 0 -4.44972e+06 774501 0 -4.45933e+06 767728 0 -4.46901e+06 760910 0 -4.47876e+06 754046 0 -4.48857e+06 747136 0 -4.49844e+06 740179 0 -4.50838e+06 733175 0 -4.51839e+06 726124 0 -4.52847e+06 719025 0 -4.53862e+06 711878 0 -4.54883e+06 704682 0 -4.55912e+06 697437 0 -4.56947e+06 690143 0 -4.57989e+06 682800 0 -4.59039e+06 675406 0 -4.60096e+06 667963 0 -4.6116e+06 660468 0 -4.62232e+06 652922 0 -4.63311e+06 645324 0 -4.64397e+06 637675 0 -4.65491e+06 629973 0 -4.66593e+06 622218 0 -4.67703e+06 614410 0 -4.6882e+06 606548 0 -4.69945e+06 598632 0 -4.71078e+06 590662 0 -4.72219e+06 582636 0 -4.73369e+06 574555 0 -4.74526e+06 566419 0 -4.75692e+06 558226 0 -4.76866e+06 549976 0 -4.78048e+06 541669 0 -4.79239e+06 533305 0 -4.80439e+06 524882 0 -4.81647e+06 516401 0 -4.82864e+06 507861 0 -4.8409e+06 499261 0 -4.85325e+06 490601 0 -4.86569e+06 481880 0 -4.87822e+06 473099 0 -4.89084e+06 464256 0 -4.90356e+06 455351 0 -4.91636e+06 446384 0 -4.92927e+06 437354 0 -4.94227e+06 428260 0 -4.95537e+06 419102 0 -4.96856e+06 409879 0 -4.98186e+06 400591 0 -4.99525e+06 391238 0 -5.00875e+06 381818 0 -5.02234e+06 372332 0 -5.03604e+06 362779 0 -5.04985e+06 353157 0 -5.06376e+06 343467 0 -3.90097e+06 1.19846e+06 0 -3.90723e+06 1.19445e+06 0 -3.91353e+06 1.19041e+06 0 -3.91987e+06 1.18635e+06 0 -3.92624e+06 1.18226e+06 0 -3.93264e+06 1.17814e+06 0 -3.93908e+06 1.174e+06 0 -3.94556e+06 1.16983e+06 0 -3.95208e+06 1.16564e+06 0 -3.95863e+06 1.16141e+06 0 -3.96522e+06 1.15716e+06 0 -3.97185e+06 1.15289e+06 0 -3.97851e+06 1.14858e+06 0 -3.98521e+06 1.14425e+06 0 -3.99196e+06 1.13989e+06 0 -3.99874e+06 1.1355e+06 0 -4.00556e+06 1.13109e+06 0 -4.01242e+06 1.12664e+06 0 -4.01932e+06 1.12217e+06 0 -4.02626e+06 1.11767e+06 0 -4.03324e+06 1.11313e+06 0 -4.04027e+06 1.10857e+06 0 -4.04733e+06 1.10398e+06 0 -4.05444e+06 1.09936e+06 0 -4.06159e+06 1.09471e+06 0 -4.06878e+06 1.09003e+06 0 -4.07601e+06 1.08532e+06 0 -4.08329e+06 1.08058e+06 0 -4.09061e+06 1.07581e+06 0 -4.09797e+06 1.07101e+06 0 -4.10538e+06 1.06617e+06 0 -4.11283e+06 1.06131e+06 0 -4.12033e+06 1.05641e+06 0 -4.12787e+06 1.05148e+06 0 -4.13546e+06 1.04652e+06 0 -4.1431e+06 1.04153e+06 0 -4.15078e+06 1.0365e+06 0 -4.15851e+06 1.03144e+06 0 -4.16629e+06 1.02635e+06 0 -4.17411e+06 1.02123e+06 0 -4.18198e+06 1.01607e+06 0 -4.1899e+06 1.01087e+06 0 -4.19788e+06 1.00565e+06 0 -4.2059e+06 1.00039e+06 0 -4.21397e+06 995093 0 -4.22209e+06 989764 0 -4.23026e+06 984400 0 -4.23848e+06 979000 0 -4.24676e+06 973565 0 -4.25508e+06 968094 0 -4.26346e+06 962587 0 -4.2719e+06 957044 0 -4.28038e+06 951465 0 -4.28892e+06 945848 0 -4.29752e+06 940195 0 -4.30617e+06 934504 0 -4.31487e+06 928776 0 -4.32364e+06 923010 0 -4.33245e+06 917206 0 -4.34133e+06 911363 0 -4.35026e+06 905482 0 -4.35926e+06 899561 0 -4.36831e+06 893602 0 -4.37742e+06 887602 0 -4.38658e+06 881563 0 -4.39581e+06 875484 0 -4.4051e+06 869364 0 -4.41446e+06 863204 0 -4.42387e+06 857003 0 -4.43335e+06 850760 0 -4.44289e+06 844475 0 -4.45249e+06 838149 0 -4.46216e+06 831780 0 -4.47189e+06 825369 0 -4.48169e+06 818914 0 -4.49155e+06 812417 0 -4.50148e+06 805875 0 -4.51148e+06 799290 0 -4.52155e+06 792661 0 -4.53168e+06 785987 0 -4.54189e+06 779268 0 -4.55216e+06 772504 0 -4.56251e+06 765694 0 -4.57293e+06 758839 0 -4.58341e+06 751937 0 -4.59398e+06 744988 0 -4.60461e+06 737992 0 -4.61532e+06 730949 0 -4.6261e+06 723858 0 -4.63696e+06 716719 0 -4.6479e+06 709532 0 -4.65891e+06 702295 0 -4.67e+06 695010 0 -4.68117e+06 687675 0 -4.69241e+06 680289 0 -4.70374e+06 672854 0 -4.71515e+06 665368 0 -4.72664e+06 657830 0 -4.73821e+06 650241 0 -4.74987e+06 642600 0 -4.76161e+06 634906 0 -4.77343e+06 627160 0 -4.78534e+06 619360 0 -4.79734e+06 611507 0 -4.80942e+06 603600 0 -4.8216e+06 595638 0 -4.83386e+06 587622 0 -4.84621e+06 579550 0 -4.85865e+06 571422 0 -4.87119e+06 563238 0 -4.88381e+06 554997 0 -4.89654e+06 546699 0 -4.90935e+06 538344 0 -4.92226e+06 529930 0 -4.93527e+06 521458 0 -4.94838e+06 512927 0 -4.96158e+06 504337 0 -4.97489e+06 495687 0 -4.98829e+06 486976 0 -5.0018e+06 478204 0 -5.01541e+06 469371 0 -5.02912e+06 460477 0 -5.04294e+06 451519 0 -5.05687e+06 442499 0 -5.0709e+06 433416 0 -5.08504e+06 424268 0 -5.09929e+06 415057 0 -5.11365e+06 405780 0 -3.91961e+06 1.22761e+06 0 -3.92599e+06 1.22377e+06 0 -3.9324e+06 1.2199e+06 0 -3.93885e+06 1.216e+06 0 -3.94533e+06 1.21208e+06 0 -3.95186e+06 1.20814e+06 0 -3.95842e+06 1.20417e+06 0 -3.96501e+06 1.20017e+06 0 -3.97165e+06 1.19615e+06 0 -3.97832e+06 1.19211e+06 0 -3.98504e+06 1.18804e+06 0 -3.99179e+06 1.18394e+06 0 -3.99858e+06 1.17981e+06 0 -4.00541e+06 1.17566e+06 0 -4.01228e+06 1.17148e+06 0 -4.01919e+06 1.16728e+06 0 -4.02614e+06 1.16305e+06 0 -4.03314e+06 1.15879e+06 0 -4.04017e+06 1.1545e+06 0 -4.04725e+06 1.15019e+06 0 -4.05436e+06 1.14584e+06 0 -4.06152e+06 1.14147e+06 0 -4.06873e+06 1.13708e+06 0 -4.07597e+06 1.13265e+06 0 -4.08326e+06 1.12819e+06 0 -4.0906e+06 1.12371e+06 0 -4.09798e+06 1.1192e+06 0 -4.1054e+06 1.11466e+06 0 -4.11287e+06 1.11008e+06 0 -4.12038e+06 1.10548e+06 0 -4.12794e+06 1.10085e+06 0 -4.13555e+06 1.09619e+06 0 -4.1432e+06 1.0915e+06 0 -4.1509e+06 1.08678e+06 0 -4.15864e+06 1.08203e+06 0 -4.16644e+06 1.07724e+06 0 -4.17428e+06 1.07243e+06 0 -4.18217e+06 1.06758e+06 0 -4.19012e+06 1.06271e+06 0 -4.19811e+06 1.0578e+06 0 -4.20615e+06 1.05286e+06 0 -4.21424e+06 1.04789e+06 0 -4.22238e+06 1.04288e+06 0 -4.23057e+06 1.03784e+06 0 -4.23882e+06 1.03277e+06 0 -4.24712e+06 1.02767e+06 0 -4.25547e+06 1.02253e+06 0 -4.26387e+06 1.01736e+06 0 -4.27233e+06 1.01216e+06 0 -4.28084e+06 1.00692e+06 0 -4.2894e+06 1.00165e+06 0 -4.29803e+06 996340 0 -4.3067e+06 990998 0 -4.31544e+06 985621 0 -4.32423e+06 980208 0 -4.33307e+06 974760 0 -4.34198e+06 969277 0 -4.35094e+06 963757 0 -4.35996e+06 958201 0 -4.36905e+06 952608 0 -4.37819e+06 946979 0 -4.38739e+06 941312 0 -4.39665e+06 935608 0 -4.40597e+06 929866 0 -4.41536e+06 924086 0 -4.42481e+06 918268 0 -4.43432e+06 912412 0 -4.4439e+06 906517 0 -4.45354e+06 900582 0 -4.46324e+06 894609 0 -4.47302e+06 888596 0 -4.48285e+06 882542 0 -4.49276e+06 876449 0 -4.50273e+06 870315 0 -4.51277e+06 864140 0 -4.52288e+06 857924 0 -4.53306e+06 851667 0 -4.54331e+06 845368 0 -4.55363e+06 839026 0 -4.56402e+06 832643 0 -4.57448e+06 826216 0 -4.58502e+06 819747 0 -4.59563e+06 813235 0 -4.60631e+06 806678 0 -4.61707e+06 800078 0 -4.62791e+06 793434 0 -4.63882e+06 786744 0 -4.64981e+06 780010 0 -4.66087e+06 773231 0 -4.67202e+06 766406 0 -4.68324e+06 759534 0 -4.69455e+06 752617 0 -4.70594e+06 745653 0 -4.7174e+06 738641 0 -4.72895e+06 731583 0 -4.74059e+06 724476 0 -4.75231e+06 717322 0 -4.76411e+06 710118 0 -4.776e+06 702866 0 -4.78798e+06 695565 0 -4.80004e+06 688214 0 -4.8122e+06 680813 0 -4.82444e+06 673362 0 -4.83677e+06 665860 0 -4.8492e+06 658307 0 -4.86171e+06 650702 0 -4.87432e+06 643045 0 -4.88703e+06 635336 0 -4.89983e+06 627574 0 -4.91272e+06 619759 0 -4.92572e+06 611890 0 -4.93881e+06 603968 0 -4.952e+06 595990 0 -4.96529e+06 587958 0 -4.97868e+06 579871 0 -4.99217e+06 571728 0 -5.00577e+06 563529 0 -5.01947e+06 555274 0 -5.03328e+06 546961 0 -5.04719e+06 538591 0 -5.06121e+06 530163 0 -5.07534e+06 521676 0 -5.08958e+06 513131 0 -5.10393e+06 504527 0 -5.11839e+06 495862 0 -5.13297e+06 487138 0 -5.14766e+06 478353 0 -5.16247e+06 469506 0 -3.93756e+06 1.25727e+06 0 -3.94405e+06 1.25359e+06 0 -3.95057e+06 1.24989e+06 0 -3.95713e+06 1.24617e+06 0 -3.96373e+06 1.24242e+06 0 -3.97037e+06 1.23865e+06 0 -3.97704e+06 1.23486e+06 0 -3.98376e+06 1.23104e+06 0 -3.99051e+06 1.22719e+06 0 -3.9973e+06 1.22333e+06 0 -4.00414e+06 1.21943e+06 0 -4.01101e+06 1.21551e+06 0 -4.01792e+06 1.21157e+06 0 -4.02488e+06 1.2076e+06 0 -4.03187e+06 1.20361e+06 0 -4.03891e+06 1.19959e+06 0 -4.04599e+06 1.19554e+06 0 -4.05311e+06 1.19147e+06 0 -4.06028e+06 1.18738e+06 0 -4.06749e+06 1.18325e+06 0 -4.07474e+06 1.1791e+06 0 -4.08203e+06 1.17493e+06 0 -4.08937e+06 1.17072e+06 0 -4.09676e+06 1.16649e+06 0 -4.10419e+06 1.16224e+06 0 -4.11166e+06 1.15795e+06 0 -4.11918e+06 1.15364e+06 0 -4.12675e+06 1.1493e+06 0 -4.13436e+06 1.14493e+06 0 -4.14202e+06 1.14053e+06 0 -4.14973e+06 1.13611e+06 0 -4.15749e+06 1.13166e+06 0 -4.16529e+06 1.12718e+06 0 -4.17314e+06 1.12266e+06 0 -4.18104e+06 1.11813e+06 0 -4.18899e+06 1.11356e+06 0 -4.197e+06 1.10896e+06 0 -4.20505e+06 1.10433e+06 0 -4.21315e+06 1.09967e+06 0 -4.2213e+06 1.09498e+06 0 -4.22951e+06 1.09026e+06 0 -4.23777e+06 1.08551e+06 0 -4.24608e+06 1.08073e+06 0 -4.25444e+06 1.07592e+06 0 -4.26286e+06 1.07108e+06 0 -4.27133e+06 1.06621e+06 0 -4.27985e+06 1.0613e+06 0 -4.28844e+06 1.05637e+06 0 -4.29707e+06 1.0514e+06 0 -4.30577e+06 1.04639e+06 0 -4.31452e+06 1.04136e+06 0 -4.32332e+06 1.03629e+06 0 -4.33219e+06 1.03119e+06 0 -4.34111e+06 1.02606e+06 0 -4.35009e+06 1.02089e+06 0 -4.35913e+06 1.01569e+06 0 -4.36823e+06 1.01046e+06 0 -4.37739e+06 1.00519e+06 0 -4.38662e+06 999888 0 -4.3959e+06 994551 0 -4.40524e+06 989178 0 -4.41465e+06 983771 0 -4.42412e+06 978328 0 -4.43366e+06 972849 0 -4.44326e+06 967334 0 -4.45293e+06 961783 0 -4.46266e+06 956196 0 -4.47245e+06 950572 0 -4.48232e+06 944911 0 -4.49225e+06 939213 0 -4.50225e+06 933477 0 -4.51232e+06 927704 0 -4.52245e+06 921892 0 -4.53266e+06 916042 0 -4.54294e+06 910154 0 -4.55329e+06 904226 0 -4.56372e+06 898260 0 -4.57421e+06 892254 0 -4.58478e+06 886208 0 -4.59542e+06 880122 0 -4.60614e+06 873996 0 -4.61694e+06 867829 0 -4.62781e+06 861622 0 -4.63876e+06 855373 0 -4.64978e+06 849083 0 -4.66089e+06 842751 0 -4.67207e+06 836377 0 -4.68334e+06 829960 0 -4.69469e+06 823501 0 -4.70611e+06 816998 0 -4.71763e+06 810452 0 -4.72922e+06 803863 0 -4.7409e+06 797230 0 -4.75266e+06 790552 0 -4.76451e+06 783829 0 -4.77645e+06 777062 0 -4.78848e+06 770249 0 -4.80059e+06 763391 0 -4.8128e+06 756486 0 -4.82509e+06 749536 0 -4.83748e+06 742538 0 -4.84995e+06 735494 0 -4.86253e+06 728402 0 -4.87519e+06 721263 0 -4.88795e+06 714075 0 -4.90081e+06 706839 0 -4.91377e+06 699554 0 -4.92682e+06 692221 0 -4.93997e+06 684837 0 -4.95322e+06 677404 0 -4.96658e+06 669920 0 -4.98004e+06 662386 0 -4.9936e+06 654801 0 -5.00726e+06 647164 0 -5.02103e+06 639475 0 -5.03491e+06 631735 0 -5.04889e+06 623942 0 -5.06299e+06 616095 0 -5.07719e+06 608196 0 -5.09151e+06 600243 0 -5.10594e+06 592235 0 -5.12048e+06 584173 0 -5.13514e+06 576056 0 -5.14991e+06 567884 0 -5.1648e+06 559656 0 -5.17981e+06 551372 0 -5.19494e+06 543031 0 -5.21019e+06 534632 0 -3.95481e+06 1.28741e+06 0 -3.9614e+06 1.2839e+06 0 -3.96803e+06 1.28038e+06 0 -3.9747e+06 1.27683e+06 0 -3.98141e+06 1.27325e+06 0 -3.98816e+06 1.26966e+06 0 -3.99495e+06 1.26604e+06 0 -4.00177e+06 1.2624e+06 0 -4.00864e+06 1.25873e+06 0 -4.01555e+06 1.25504e+06 0 -4.0225e+06 1.25133e+06 0 -4.0295e+06 1.24759e+06 0