<?xml version="1.0"?> 
<VTKFile type="StructuredGrid" version="0.1"> 
<StructuredGrid WholeExtent="0 7 0 7 0 0"> 
<Piece Extent="0 7 0 7 0 0"> 
<PointData>
<DataArray type="Float32" Name="|E|" format="ascii" NumberOfComponents="3"> 
-852539 0 0 -988647 388722 0 -1.17502e+06 758140 0 -1.42324e+06 1.09726e+06 0 -1.7334e+06 1.3608e+06 0 -2.0609e+06 1.43509e+06 0 -2.25876e+06 1.17863e+06 0 -1.8571e+06 762673 0 -737432 0 0 -883590 400356 0 -1.07913e+06 783060 0 -1.34073e+06 1.13711e+06 0 -1.6774e+06 1.41504e+06 0 -2.05966e+06 1.49444e+06 0 -2.32556e+06 1.19907e+06 0 -1.95582e+06 640997 0 -619353 0 0 -775364 411111 0 -979490 807088 0 -1.25359e+06 1.17754e+06 0 -1.61588e+06 1.47369e+06 0 -2.05438e+06 1.56507e+06 0 -2.40134e+06 1.23308e+06 0 -2.07746e+06 539156 0 -498685 0 0 -664213 420817 0 -876130 829855 0 -1.16143e+06 1.21795e+06 0 -1.54778e+06 1.536e+06 0 -2.04303e+06 1.647e+06 0 -2.48536e+06 1.28383e+06 0 -2.22041e+06 452183 0 -375869 0 0 -550433 429310 0 -769184 850980 0 -1.06403e+06 1.25768e+06 0 -1.47219e+06 1.60105e+06 0 -2.0233e+06 1.73979e+06 0 -2.5763e+06 1.35436e+06 0 -2.38577e+06 376715 0 -251398 0 0 -434377 436423 0 -658870 870096 0 -961286 1.29593e+06 0 -1.38839e+06 1.66789e+06 0 -1.99256e+06 1.84245e+06 0 -2.67205e+06 1.4479e+06 0 -2.57738e+06 310051 0 -125807 0 0 -316456 441992 0 -545483 886891 0 -853272 1.33183e+06 0 -1.29591e+06 1.7355e+06 0 -1.94806e+06 1.95337e+06 0 -2.76934e+06 1.56788e+06 0 -2.8032e+06 247980 0 388.734 0 0 -197199 445805 0 -429305 901241 0 -740332 1.36418e+06 0 -1.19449e+06 1.80316e+06 0 -1.88717e+06 2.06989e+06 0 -2.86354e+06 1.7173e+06 0 -3.06982e+06 197110 0 </DataArray> 
</PointData> 
<Points> 
<DataArray type="Float32" NumberOfComponents="3"> 
0 0.0835 0 0.0142857 0.0794286 0 0.0285714 0.0753571 0 0.0428571 0.0712857 0 0.0571429 0.0672143 0 0.0714286 0.0631429 0 0.0857143 0.0590714 0 0.1 0.055 0 0 0.0875714 0 0.0142857 0.083198 0 0.0285714 0.0788245 0 0.0428571 0.074451 0 0.0571429 0.0700776 0 0.0714286 0.0657041 0 0.0857143 0.0613306 0 0.1 0.0569571 0 0 0.0916429 0 0.0142857 0.0869673 0 0.0285714 0.0822918 0 0.0428571 0.0776163 0 0.0571429 0.0729408 0 0.0714286 0.0682653 0 0.0857143 0.0635898 0 0.1 0.0589143 0 0 0.0957143 0 0.0142857 0.0907367 0 0.0285714 0.0857592 0 0.0428571 0.0807816 0 0.0571429 0.0758041 0 0.0714286 0.0708265 0 0.0857143 0.065849 0 0.1 0.0608714 0 0 0.0997857 0 0.0142857 0.0945061 0 0.0285714 0.0892265 0 0.0428571 0.0839469 0 0.0571429 0.0786673 0 0.0714286 0.0733878 0 0.0857143 0.0681082 0 0.1 0.0628286 0 0 0.103857 0 0.0142857 0.0982755 0 0.0285714 0.0926939 0 0.0428571 0.0871122 0 0.0571429 0.0815306 0 0.0714286 0.075949 0 0.0857143 0.0703673 0 0.1 0.0647857 0 0 0.107929 0 0.0142857 0.102045 0 0.0285714 0.0961612 0 0.0428571 0.0902776 0 0.0571429 0.0843939 0 0.0714286 0.0785102 0 0.0857143 0.0726265 0 0.1 0.0667429 0 0 0.112 0 0.0142857 0.105814 0 0.0285714 0.0996286 0 0.0428571 0.0934429 0 0.0571429 0.0872571 0 0.0714286 0.0810714 0 0.0857143 0.0748857 0 0.1 0.0687 0 
</DataArray>
</Points> 
</Piece> 
</StructuredGrid> 
</VTKFile> 
