<?xml version="1.0"?> 
<VTKFile type="StructuredGrid" version="0.1"> 
<StructuredGrid WholeExtent="0 7 0 7 0 0"> 
<Piece Extent="0 7 0 7 0 0"> 
<PointData>
<DataArray type="Float32" Name="|E|" format="ascii" NumberOfComponents="3"> 
-1.91091e+06 0 0 -1.94999e+06 212307 0 -2.05454e+06 443658 0 -2.22324e+06 698358 0 -2.37536e+06 1.1018e+06 0 -2.12829e+06 1.52904e+06 0 -1.58391e+06 1.29659e+06 0 -1.35333e+06 0 0 -1.88951e+06 0 0 -1.92794e+06 219531 0 -2.03019e+06 456193 0 -2.19202e+06 718289 0 -2.32799e+06 1.10595e+06 0 -2.1131e+06 1.48235e+06 0 -1.65014e+06 1.25692e+06 0 -1.54725e+06 1.11759e-08 0 -1.86744e+06 0 0 -1.90518e+06 226555 0 -2.00528e+06 468577 0 -2.16075e+06 737038 0 -2.28456e+06 1.10912e+06 0 -2.10106e+06 1.4424e+06 0 -1.71029e+06 1.22798e+06 0 -1.74263e+06 -2.23517e-08 0 -1.84472e+06 0 0 -1.88174e+06 233420 0 -1.97981e+06 480741 0 -2.12956e+06 754855 0 -2.24443e+06 1.11163e+06 0 -2.09219e+06 1.40865e+06 0 -1.7625e+06 1.20943e+06 0 -1.94473e+06 7.45058e-08 0 -1.82134e+06 0 0 -1.85763e+06 240174 0 -1.95382e+06 492595 0 -2.09859e+06 772044 0 -2.20697e+06 1.11363e+06 0 -2.08679e+06 1.38076e+06 0 -1.80433e+06 1.20097e+06 0 -2.15973e+06 -4.47035e-08 0 -1.79735e+06 0 0 -1.83284e+06 246878 0 -1.92731e+06 504017 0 -2.06793e+06 788994 0 -2.17148e+06 1.11505e+06 0 -2.08551e+06 1.35858e+06 0 -1.83242e+06 1.20229e+06 0 -2.39515e+06 1.49012e-08 0 -1.7728e+06 0 0 -1.80737e+06 253617 0 -1.90034e+06 514823 0 -2.0377e+06 806214 0 -2.13717e+06 1.11555e+06 0 -2.08956e+06 1.34223e+06 0 -1.84215e+06 1.213e+06 0 -2.66051e+06 -2.98023e-08 0 -1.74779e+06 0 0 -1.78116e+06 260529 0 -1.87293e+06 524710 0 -2.00805e+06 824442 0 -2.10304e+06 1.1144e+06 0 -2.10093e+06 1.33226e+06 0 -1.82707e+06 1.2325e+06 0 -2.96814e+06 1.78814e-07 0 </DataArray> 
</PointData> 
<Points> 
<DataArray type="Float32" NumberOfComponents="3"> 
0 0.035 0 0.0142857 0.035 0 0.0285714 0.035 0 0.0428571 0.035 0 0.0571429 0.035 0 0.0714286 0.035 0 0.0857143 0.035 0 0.1 0.035 0 0 0.0364286 0 0.0142857 0.0364286 0 0.0285714 0.0364286 0 0.0428571 0.0364286 0 0.0571429 0.0364286 0 0.0714286 0.0364286 0 0.0857143 0.0364286 0 0.1 0.0364286 0 0 0.0378571 0 0.0142857 0.0378571 0 0.0285714 0.0378571 0 0.0428571 0.0378571 0 0.0571429 0.0378571 0 0.0714286 0.0378571 0 0.0857143 0.0378571 0 0.1 0.0378571 0 0 0.0392857 0 0.0142857 0.0392857 0 0.0285714 0.0392857 0 0.0428571 0.0392857 0 0.0571429 0.0392857 0 0.0714286 0.0392857 0 0.0857143 0.0392857 0 0.1 0.0392857 0 0 0.0407143 0 0.0142857 0.0407143 0 0.0285714 0.0407143 0 0.0428571 0.0407143 0 0.0571429 0.0407143 0 0.0714286 0.0407143 0 0.0857143 0.0407143 0 0.1 0.0407143 0 0 0.0421429 0 0.0142857 0.0421429 0 0.0285714 0.0421429 0 0.0428571 0.0421429 0 0.0571429 0.0421429 0 0.0714286 0.0421429 0 0.0857143 0.0421429 0 0.1 0.0421429 0 0 0.0435714 0 0.0142857 0.0435714 0 0.0285714 0.0435714 0 0.0428571 0.0435714 0 0.0571429 0.0435714 0 0.0714286 0.0435714 0 0.0857143 0.0435714 0 0.1 0.0435714 0 0 0.045 0 0.0142857 0.045 0 0.0285714 0.045 0 0.0428571 0.045 0 0.0571429 0.045 0 0.0714286 0.045 0 0.0857143 0.045 0 0.1 0.045 0 
</DataArray>
</Points> 
</Piece> 
</StructuredGrid> 
</VTKFile> 
