<?xml version="1.0"?> 
<VTKFile type="StructuredGrid" version="0.1"> 
<StructuredGrid WholeExtent="0 7 0 7 0 0"> 
<Piece Extent="0 7 0 7 0 0"> 
<PointData>
<DataArray type="Float32" Name="|E|" format="ascii" NumberOfComponents="3"> 
3.72529e-08 3.41179e+06 0 6.51926e-09 2.22118e+06 0 -9.31323e-09 1.20912e+06 0 -9.31323e-09 530278 0 7.45058e-09 168796 0 -1.86265e-08 39983 0 4.47035e-08 8453.89 0 -8.19564e-08 2228.67 0 -344040 2.62751e+06 0 -275907 1.56375e+06 0 -188512 803754 0 -106797 327136 0 -42790.8 99707.7 0 -11983.2 24947.6 0 -2779.35 5748.26 0 -413.136 1215.96 0 -587618 1.73549e+06 0 -433214 989994 0 -280520 464042 0 -140759 165707 0 -50559.1 46933.1 0 -14391.9 12077.8 0 -3688.11 2987.78 0 -807.63 703.365 0 -683250 1.03942e+06 0 -481803 523562 0 -275176 194873 0 -116885 52777.6 0 -38703.8 12688.9 0 -11749.9 3209.93 0 -3400.35 847.025 0 -930.481 177.163 0 -665888 465842 0 -402867 149048 0 -184921 16977.9 0 -66255.1 -6265.69 0 -22118.5 -3636.26 0 -7551.56 -1379.12 0 -2531.08 -544.025 0 -803.062 -247.766 0 -460658 -6753.44 0 -207489 -69736 0 -71985.9 -48242.2 0 -24782.7 -19995.2 0 -9734.94 -7447.36 0 -3868.33 -2933.43 0 -1507.66 -1220.33 0 -547.935 -526.105 0 -130944 -172166 0 -34523.3 -78445.8 0 -11595.1 -31863.7 0 -6177.8 -13378.7 0 -3012.69 -6088.47 0 -1379.27 -2830.29 0 -616.617 -1332.22 0 -246.262 -648.879 0 2.98023e-08 68737.7 0 1.49012e-08 -6026.09 0 -2.98023e-08 -13971.4 0 0 -7170.08 0 7.45058e-09 -3711.95 0 2.23517e-08 -2013.17 0 -4.47035e-08 -1112.73 0 8.9407e-08 -676.981 0 </DataArray> 
</PointData> 
<Points> 
<DataArray type="Float32" NumberOfComponents="3"> 
0.075 0.021 0 0.0821429 0.021 0 0.0892857 0.021 0 0.0964286 0.021 0 0.103571 0.021 0 0.110714 0.021 0 0.117857 0.021 0 0.125 0.021 0 0.08 0.023 0 0.0865306 0.023 0 0.0930612 0.023 0 0.0995918 0.023 0 0.106122 0.023 0 0.112653 0.023 0 0.119184 0.023 0 0.125714 0.023 0 0.085 0.025 0 0.0909184 0.025 0 0.0968367 0.025 0 0.102755 0.025 0 0.108673 0.025 0 0.114592 0.025 0 0.12051 0.025 0 0.126429 0.025 0 0.09 0.027 0 0.0953061 0.027 0 0.100612 0.027 0 0.105918 0.027 0 0.111224 0.027 0 0.116531 0.027 0 0.121837 0.027 0 0.127143 0.027 0 0.095 0.029 0 0.0996939 0.029 0 0.104388 0.029 0 0.109082 0.029 0 0.113776 0.029 0 0.118469 0.029 0 0.123163 0.029 0 0.127857 0.029 0 0.1 0.031 0 0.104082 0.031 0 0.108163 0.031 0 0.112245 0.031 0 0.116327 0.031 0 0.120408 0.031 0 0.12449 0.031 0 0.128571 0.031 0 0.105 0.033 0 0.108469 0.033 0 0.111939 0.033 0 0.115408 0.033 0 0.118878 0.033 0 0.122347 0.033 0 0.125816 0.033 0 0.129286 0.033 0 0.11 0.035 0 0.112857 0.035 0 0.115714 0.035 0 0.118571 0.035 0 0.121429 0.035 0 0.124286 0.035 0 0.127143 0.035 0 0.13 0.035 0 
</DataArray>
</Points> 
</Piece> 
</StructuredGrid> 
</VTKFile> 
