<?xml version="1.0"?> 
<VTKFile type="StructuredGrid" version="0.1"> 
<StructuredGrid WholeExtent="0 7 0 7 0 0"> 
<Piece Extent="0 7 0 7 0 0"> 
<PointData>
<DataArray type="Float32" Name="|E|" format="ascii" NumberOfComponents="3"> 
-2.18305e+06 0 0 -2.21245e+06 0.114477 0 -2.29673e+06 0.213308 0 -2.44152e+06 0.491441 0 -2.65804e+06 0.0540111 0 -2.95431e+06 -2.87236 0 -3.29175e+06 -9.27967 0 -3.48906e+06 -2.38419e-07 0 -2.18258e+06 0 0 -2.21196e+06 7205.04 0 -2.29619e+06 14894.8 0 -2.44088e+06 23609.8 0 -2.65729e+06 34266.5 0 -2.95388e+06 44153.2 0 -3.29302e+06 40172 0 -3.49324e+06 9.31323e-08 0 -2.18116e+06 0 0 -2.21049e+06 14400.8 0 -2.29457e+06 29772.2 0 -2.43895e+06 47180 0 -2.65504e+06 68526.1 0 -2.95255e+06 88538.6 0 -3.29676e+06 81105 0 -3.50599e+06 -1.04308e-07 0 -2.17879e+06 0 0 -2.20805e+06 21579.1 0 -2.29188e+06 44615.7 0 -2.43573e+06 70675.3 0 -2.65127e+06 102765 0 -2.95028e+06 133368 0 -3.3028e+06 123522 0 -3.52788e+06 8.9407e-08 0 -2.17548e+06 0 0 -2.20462e+06 28732 0 -2.28811e+06 59407.7 0 -2.43124e+06 94063.8 0 -2.64591e+06 136956 0 -2.94698e+06 178848 0 -3.31081e+06 168173 0 -3.55996e+06 -4.47035e-08 0 -2.17123e+06 0 0 -2.20023e+06 35853.1 0 -2.28327e+06 74127.6 0 -2.42548e+06 117321 0 -2.6389e+06 171043 0 -2.94256e+06 225186 0 -3.32023e+06 215860 0 -3.60385e+06 1.49012e-08 0 -2.16604e+06 0 0 -2.19487e+06 42938.5 0 -2.27737e+06 88748.6 0 -2.41848e+06 140437 0 -2.63013e+06 204933 0 -2.93698e+06 272595 0 -3.33015e+06 267443 0 -3.66197e+06 2.98023e-08 0 -2.15993e+06 0 0 -2.18855e+06 49990.2 0 -2.27043e+06 103227 0 -2.41027e+06 163436 0 -2.61945e+06 238449 0 -2.93026e+06 321328 0 -3.33916e+06 323871 0 -3.73782e+06 1.19209e-07 0 </DataArray> 
</PointData> 
<Points> 
<DataArray type="Float32" NumberOfComponents="3"> 
0 0 0 0.0107143 0 0 0.0214286 0 0 0.0321429 0 0 0.0428571 0 0 0.0535714 0 0 0.0642857 0 0 0.075 0 0 0 0.00142857 0 0.0107143 0.00142857 0 0.0214286 0.00142857 0 0.0321429 0.00142857 0 0.0428571 0.00142857 0 0.0535714 0.00142857 0 0.0642857 0.00142857 0 0.075 0.00142857 0 0 0.00285714 0 0.0107143 0.00285714 0 0.0214286 0.00285714 0 0.0321429 0.00285714 0 0.0428571 0.00285714 0 0.0535714 0.00285714 0 0.0642857 0.00285714 0 0.075 0.00285714 0 0 0.00428571 0 0.0107143 0.00428571 0 0.0214286 0.00428571 0 0.0321429 0.00428571 0 0.0428571 0.00428571 0 0.0535714 0.00428571 0 0.0642857 0.00428571 0 0.075 0.00428571 0 0 0.00571429 0 0.0107143 0.00571429 0 0.0214286 0.00571429 0 0.0321429 0.00571429 0 0.0428571 0.00571429 0 0.0535714 0.00571429 0 0.0642857 0.00571429 0 0.075 0.00571429 0 0 0.00714286 0 0.0107143 0.00714286 0 0.0214286 0.00714286 0 0.0321429 0.00714286 0 0.0428571 0.00714286 0 0.0535714 0.00714286 0 0.0642857 0.00714286 0 0.075 0.00714286 0 0 0.00857143 0 0.0107143 0.00857143 0 0.0214286 0.00857143 0 0.0321429 0.00857143 0 0.0428571 0.00857143 0 0.0535714 0.00857143 0 0.0642857 0.00857143 0 0.075 0.00857143 0 0 0.01 0 0.0107143 0.01 0 0.0214286 0.01 0 0.0321429 0.01 0 0.0428571 0.01 0 0.0535714 0.01 0 0.0642857 0.01 0 0.075 0.01 0 
</DataArray>
</Points> 
</Piece> 
</StructuredGrid> 
</VTKFile> 
