<?xml version="1.0"?> 
<VTKFile type="StructuredGrid" version="0.1"> 
<StructuredGrid WholeExtent="0 7 0 7 0 0"> 
<Piece Extent="0 7 0 7 0 0"> 
<PointData>
<DataArray type="Float32" Name="|E|" format="ascii" NumberOfComponents="3"> 
1.29618e+06 -132263 0 1.76962e+06 -20688.8 0 1.567e+06 65629.9 0 1.19777e+06 65660.1 0 898502 47793.7 0 695251 29570.3 0 579296 14104 0 539487 0 0 1.29849e+06 -132499 0 1.77456e+06 -24117.4 0 1.56701e+06 74933.2 0 1.19681e+06 75149.6 0 897660 54311.1 0 694648 33776.1 0 578849 16039.7 0 539099 0 0 1.2992e+06 -132571 0 1.78045e+06 -27461.1 0 1.56699e+06 84302.4 0 1.19583e+06 84664.8 0 896741 60807.7 0 693982 37982.9 0 578350 17970.2 0 538658 0 0 1.29827e+06 -132477 0 1.78734e+06 -30723.1 0 1.56693e+06 93738.3 0 1.19482e+06 94214 0 895743 67278.9 0 693252 42192.5 0 577798 19894.4 0 538162 0 0 1.29568e+06 -132212 0 1.79524e+06 -33905.7 0 1.56682e+06 103241 0 1.19379e+06 103806 0 894666 73719.5 0 692459 46407.2 0 577194 21811 0 537613 0 0 1.29136e+06 -131772 0 1.80419e+06 -37010.7 0 1.56663e+06 112811 0 1.19274e+06 113450 0 893509 80123.9 0 691602 50629.7 0 576538 23719 0 537009 0 0 1.28526e+06 -131149 0 1.81425e+06 -40039.3 0 1.56634e+06 122446 0 1.19167e+06 123156 0 892270 86485.9 0 690682 54862.5 0 575831 25616.8 0 536349 0 0 1.27729e+06 -130336 0 1.82546e+06 -42991.5 0 1.56593e+06 132144 0 1.19059e+06 132936 0 890949 92798.5 0 689698 59109.1 0 575074 27503.1 0 535634 0 0 </DataArray> 
</PointData> 
<Points> 
<DataArray type="Float32" NumberOfComponents="3"> 
0.19 0.005 0 0.216143 0.005 0 0.242286 0.005 0 0.268429 0.005 0 0.294571 0.005 0 0.320714 0.005 0 0.346857 0.005 0 0.373 0.005 0 0.190071 0.0057 0 0.216204 0.0057 0 0.242337 0.0057 0 0.268469 0.0057 0 0.294602 0.0057 0 0.320735 0.0057 0 0.346867 0.0057 0 0.373 0.0057 0 0.190143 0.0064 0 0.216265 0.0064 0 0.242388 0.0064 0 0.26851 0.0064 0 0.294633 0.0064 0 0.320755 0.0064 0 0.346878 0.0064 0 0.373 0.0064 0 0.190214 0.0071 0 0.216327 0.0071 0 0.242439 0.0071 0 0.268551 0.0071 0 0.294663 0.0071 0 0.320776 0.0071 0 0.346888 0.0071 0 0.373 0.0071 0 0.190286 0.0078 0 0.216388 0.0078 0 0.24249 0.0078 0 0.268592 0.0078 0 0.294694 0.0078 0 0.320796 0.0078 0 0.346898 0.0078 0 0.373 0.0078 0 0.190357 0.0085 0 0.216449 0.0085 0 0.242541 0.0085 0 0.268633 0.0085 0 0.294724 0.0085 0 0.320816 0.0085 0 0.346908 0.0085 0 0.373 0.0085 0 0.190429 0.0092 0 0.21651 0.0092 0 0.242592 0.0092 0 0.268673 0.0092 0 0.294755 0.0092 0 0.320837 0.0092 0 0.346918 0.0092 0 0.373 0.0092 0 0.1905 0.0099 0 0.216571 0.0099 0 0.242643 0.0099 0 0.268714 0.0099 0 0.294786 0.0099 0 0.320857 0.0099 0 0.346929 0.0099 0 0.373 0.0099 0 
</DataArray>
</Points> 
</Piece> 
</StructuredGrid> 
</VTKFile> 
