<?xml version="1.0"?> 
<VTKFile type="StructuredGrid" version="0.1"> 
<StructuredGrid WholeExtent="0 7 0 7 0 0"> 
<Piece Extent="0 7 0 7 0 0"> 
<PointData>
<DataArray type="Float32" Name="|E|" format="ascii" NumberOfComponents="3"> 
1.27729e+06 -531152 0 1.82546e+06 -29702.7 0 1.56593e+06 133188 0 1.19059e+06 128954 0 890949 94402.1 0 689698 57987.6 0 575074 27844.5 0 535634 0 0 1.34708e+06 -560172 0 1.84001e+06 -26059.9 0 1.56321e+06 154746 0 1.1839e+06 147969 0 886294 107600 0 686716 66255.5 0 573125 31736.9 0 534076 0 0 1.4154e+06 -588584 0 1.85681e+06 -19797 0 1.56017e+06 176987 0 1.17696e+06 166895 0 881333 120698 0 683474 74433.6 0 570950 35595.6 0 532299 0 0 1.48311e+06 -616739 0 1.87558e+06 -10818.8 0 1.55673e+06 199916 0 1.16973e+06 185738 0 876067 133688 0 679975 82521.6 0 568549 39418.8 0 530305 0 0 1.55104e+06 -644986 0 1.89608e+06 991.207 0 1.55283e+06 223530 0 1.16221e+06 204501 0 870494 146566 0 676221 90518.8 0 565923 43204.9 0 528094 0 0 1.62004e+06 -673681 0 1.91803e+06 15770.1 0 1.54838e+06 247824 0 1.15437e+06 223182 0 864615 159324 0 672213 98423.5 0 563071 46952.3 0 525668 0 0 1.69102e+06 -703196 0 1.94114e+06 33677 0 1.54329e+06 272784 0 1.14621e+06 241776 0 858428 171961 0 667952 106233 0 559995 50660 0 523030 0 0 1.76492e+06 -733928 0 1.96511e+06 54896.9 0 1.53749e+06 298392 0 1.1377e+06 260269 0 851934 184475 0 663440 113945 0 556696 54327.4 0 520179 0 0 </DataArray> 
</PointData> 
<Points> 
<DataArray type="Float32" NumberOfComponents="3"> 
0.1905 0.0099 0 0.216571 0.0099 0 0.242643 0.0099 0 0.268714 0.0099 0 0.294786 0.0099 0 0.320857 0.0099 0 0.346929 0.0099 0 0.373 0.0099 0 0.1911 0.0113429 0 0.217086 0.0113429 0 0.243071 0.0113429 0 0.269057 0.0113429 0 0.295043 0.0113429 0 0.321029 0.0113429 0 0.347014 0.0113429 0 0.373 0.0113429 0 0.1917 0.0127857 0 0.2176 0.0127857 0 0.2435 0.0127857 0 0.2694 0.0127857 0 0.2953 0.0127857 0 0.3212 0.0127857 0 0.3471 0.0127857 0 0.373 0.0127857 0 0.1923 0.0142286 0 0.218114 0.0142286 0 0.243929 0.0142286 0 0.269743 0.0142286 0 0.295557 0.0142286 0 0.321371 0.0142286 0 0.347186 0.0142286 0 0.373 0.0142286 0 0.1929 0.0156714 0 0.218629 0.0156714 0 0.244357 0.0156714 0 0.270086 0.0156714 0 0.295814 0.0156714 0 0.321543 0.0156714 0 0.347271 0.0156714 0 0.373 0.0156714 0 0.1935 0.0171143 0 0.219143 0.0171143 0 0.244786 0.0171143 0 0.270429 0.0171143 0 0.296071 0.0171143 0 0.321714 0.0171143 0 0.347357 0.0171143 0 0.373 0.0171143 0 0.1941 0.0185571 0 0.219657 0.0185571 0 0.245214 0.0185571 0 0.270771 0.0185571 0 0.296329 0.0185571 0 0.321886 0.0185571 0 0.347443 0.0185571 0 0.373 0.0185571 0 0.1947 0.02 0 0.220171 0.02 0 0.245643 0.02 0 0.271114 0.02 0 0.296586 0.02 0 0.322057 0.02 0 0.347529 0.02 0 0.373 0.02 0 
</DataArray>
</Points> 
</Piece> 
</StructuredGrid> 
</VTKFile> 
