<?xml version="1.0"?> 
<VTKFile type="StructuredGrid" version="0.1"> 
<StructuredGrid WholeExtent="0 7 0 7 0 0"> 
<Piece Extent="0 7 0 7 0 0"> 
<PointData>
<DataArray type="Float32" Name="|E|" format="ascii" NumberOfComponents="3"> 
-2.15993e+06 0 0 -2.18855e+06 49941.8 0 -2.27043e+06 98320.3 0 -2.41027e+06 150740 0 -2.61945e+06 210711 0 -2.93026e+06 280160 0 -3.33916e+06 308228 0 -3.73782e+06 66466.7 0 -2.15661e+06 0 0 -2.17811e+06 47087.8 0 -2.23912e+06 92465.6 0 -2.34259e+06 142287 0 -2.49227e+06 200448 0 -2.70368e+06 278902 0 -3.00399e+06 380324 0 -3.37725e+06 463804 0 -2.15289e+06 0 0 -2.16823e+06 43027.3 0 -2.21173e+06 84869.2 0 -2.28482e+06 129750 0 -2.38941e+06 182479 0 -2.52882e+06 248239 0 -2.71771e+06 336827 0 -2.97197e+06 470377 0 -2.14876e+06 0 0 -2.15892e+06 37741 0 -2.18808e+06 75086.4 0 -2.23651e+06 113967 0 -2.30536e+06 158462 0 -2.3955e+06 212757 0 -2.50933e+06 283970 0 -2.65574e+06 377332 0 -2.14421e+06 0 0 -2.1502e+06 31328.2 0 -2.16793e+06 62847.5 0 -2.19728e+06 95199.9 0 -2.23841e+06 130535 0 -2.29204e+06 171003 0 -2.35829e+06 221124 0 -2.43855e+06 282987 0 -2.13922e+06 0 0 -2.14213e+06 23823.2 0 -2.15115e+06 48108.8 0 -2.1664e+06 72875.1 0 -2.18759e+06 98884.9 0 -2.21481e+06 127160 0 -2.2483e+06 158856 0 -2.28829e+06 194596 0 -2.13375e+06 0 0 -2.13479e+06 15353.6 0 -2.13785e+06 30814.2 0 -2.14341e+06 46568 0 -2.15142e+06 62413.3 0 -2.16168e+06 78454.1 0 -2.1741e+06 94906.5 0 -2.18877e+06 111272 0 -2.12777e+06 0 0 -2.12807e+06 6272.49 0 -2.12869e+06 10628.7 0 -2.12935e+06 12748.8 0 -2.13015e+06 13913.6 0 -2.13129e+06 14504.5 0 -2.13287e+06 13853.1 0 -2.13492e+06 10597 0 </DataArray> 
</PointData> 
<Points> 
<DataArray type="Float32" NumberOfComponents="3"> 
0 0.01 0 0.0107143 0.01 0 0.0214286 0.01 0 0.0321429 0.01 0 0.0428571 0.01 0 0.0535714 0.01 0 0.0642857 0.01 0 0.075 0.01 0 0 0.0108571 0 0.00930612 0.0108571 0 0.0186122 0.0108571 0 0.0279184 0.0108571 0 0.0372245 0.0108571 0 0.0465306 0.0108571 0 0.0558367 0.0108571 0 0.0651429 0.0108571 0 0 0.0117143 0 0.00789796 0.0117143 0 0.0157959 0.0117143 0 0.0236939 0.0117143 0 0.0315918 0.0117143 0 0.0394898 0.0117143 0 0.0473878 0.0117143 0 0.0552857 0.0117143 0 0 0.0125714 0 0.0064898 0.0125714 0 0.0129796 0.0125714 0 0.0194694 0.0125714 0 0.0259592 0.0125714 0 0.032449 0.0125714 0 0.0389388 0.0125714 0 0.0454286 0.0125714 0 0 0.0134286 0 0.00508163 0.0134286 0 0.0101633 0.0134286 0 0.0152449 0.0134286 0 0.0203265 0.0134286 0 0.0254082 0.0134286 0 0.0304898 0.0134286 0 0.0355714 0.0134286 0 0 0.0142857 0 0.00367347 0.0142857 0 0.00734694 0.0142857 0 0.0110204 0.0142857 0 0.0146939 0.0142857 0 0.0183673 0.0142857 0 0.0220408 0.0142857 0 0.0257143 0.0142857 0 0 0.0151429 0 0.00226531 0.0151429 0 0.00453061 0.0151429 0 0.00679592 0.0151429 0 0.00906122 0.0151429 0 0.0113265 0.0151429 0 0.0135918 0.0151429 0 0.0158571 0.0151429 0 0 0.016 0 0.000857143 0.016 0 0.00171429 0.016 0 0.00257143 0.016 0 0.00342857 0.016 0 0.00428571 0.016 0 0.00514286 0.016 0 0.006 0.016 0 
</DataArray>
</Points> 
</Piece> 
</StructuredGrid> 
</VTKFile> 
