<?xml version="1.0"?> 
<VTKFile type="StructuredGrid" version="0.1"> 
<StructuredGrid WholeExtent="0 7 0 7 0 0"> 
<Piece Extent="0 7 0 7 0 0"> 
<PointData>
<DataArray type="Float32" Name="|E|" format="ascii" NumberOfComponents="3"> 
-2.13243e+06 39200.4 0 -2.18881e+06 110883 0 -2.28966e+06 178862 0 -2.44147e+06 249438 0 -2.6605e+06 322580 0 -2.97874e+06 392473 0 -3.38609e+06 362094 0 -3.7436e+06 -1.19209e-07 0 -2.13146e+06 51749.1 0 -2.19144e+06 126491 0 -2.29414e+06 198521 0 -2.4457e+06 276888 0 -2.66516e+06 359449 0 -2.97539e+06 446075 0 -3.42731e+06 431386 0 -3.8241e+06 2.6077e-08 0 -2.13091e+06 65251.3 0 -2.19437e+06 142989 0 -2.29834e+06 219401 0 -2.44938e+06 305068 0 -2.66811e+06 397961 0 -2.97047e+06 501570 0 -3.468e+06 512308 0 -3.93668e+06 0 0 -2.1308e+06 79786.8 0 -2.1976e+06 160465 0 -2.30221e+06 241328 0 -2.4524e+06 334274 0 -2.66953e+06 437762 0 -2.96247e+06 559240 0 -3.50736e+06 608395 0 -4.08937e+06 -3.72529e-08 0 -2.13119e+06 95529.2 0 -2.20112e+06 178921 0 -2.30568e+06 264231 0 -2.45468e+06 364703 0 -2.66949e+06 478536 0 -2.95e+06 619117 0 -3.54243e+06 724275 0 -4.29596e+06 2.98023e-08 0 -2.13222e+06 112803 0 -2.20489e+06 198298 0 -2.30866e+06 288095 0 -2.45618e+06 396542 0 -2.66793e+06 519877 0 -2.93184e+06 680990 0 -3.56666e+06 866191 0 -4.57913e+06 0 0 -2.1341e+06 132011 0 -2.20881e+06 218488 0 -2.31106e+06 312921 0 -2.45697e+06 430033 0 -2.66456e+06 561140 0 -2.90746e+06 744421 0 -3.56722e+06 1.04234e+06 0 -4.97622e+06 2.98023e-08 0 -2.13717e+06 153331 0 -2.21271e+06 239368 0 -2.31277e+06 338738 0 -2.45723e+06 465535 0 -2.65862e+06 601216 0 -2.87812e+06 808600 0 -3.51947e+06 1.26469e+06 0 -5.55022e+06 -2.38419e-07 0 </DataArray> 
</PointData> 
<Points> 
<DataArray type="Float32" NumberOfComponents="3"> 
0.006 0.016 0 0.0158571 0.0151429 0 0.0257143 0.0142857 0 0.0355714 0.0134286 0 0.0454286 0.0125714 0 0.0552857 0.0117143 0 0.0651429 0.0108571 0 0.075 0.01 0 0.00742857 0.0167143 0 0.0170816 0.0159796 0 0.0267347 0.0152449 0 0.0363878 0.0145102 0 0.0460408 0.0137755 0 0.0556939 0.0130408 0 0.0653469 0.0123061 0 0.075 0.0115714 0 0.00885714 0.0174286 0 0.0183061 0.0168163 0 0.0277551 0.0162041 0 0.0372041 0.0155918 0 0.0466531 0.0149796 0 0.056102 0.0143673 0 0.065551 0.0137551 0 0.075 0.0131429 0 0.0102857 0.0181429 0 0.0195306 0.0176531 0 0.0287755 0.0171633 0 0.0380204 0.0166735 0 0.0472653 0.0161837 0 0.0565102 0.0156939 0 0.0657551 0.0152041 0 0.075 0.0147143 0 0.0117143 0.0188571 0 0.0207551 0.0184898 0 0.0297959 0.0181224 0 0.0388367 0.0177551 0 0.0478776 0.0173878 0 0.0569184 0.0170204 0 0.0659592 0.0166531 0 0.075 0.0162857 0 0.0131429 0.0195714 0 0.0219796 0.0193265 0 0.0308163 0.0190816 0 0.0396531 0.0188367 0 0.0484898 0.0185918 0 0.0573265 0.0183469 0 0.0661633 0.018102 0 0.075 0.0178571 0 0.0145714 0.0202857 0 0.0232041 0.0201633 0 0.0318367 0.0200408 0 0.0404694 0.0199184 0 0.049102 0.0197959 0 0.0577347 0.0196735 0 0.0663673 0.019551 0 0.075 0.0194286 0 0.016 0.021 0 0.0244286 0.021 0 0.0328571 0.021 0 0.0412857 0.021 0 0.0497143 0.021 0 0.0581429 0.021 0 0.0665714 0.021 0 0.075 0.021 0 
</DataArray>
</Points> 
</Piece> 
</StructuredGrid> 
</VTKFile> 
