<?xml version="1.0"?> 
<VTKFile type="StructuredGrid" version="0.1"> 
<StructuredGrid WholeExtent="0 7 0 7 0 0"> 
<Piece Extent="0 7 0 7 0 0"> 
<PointData>
<DataArray type="Float32" Name="|E|" format="ascii" NumberOfComponents="3"> 
3.33154e+06 -1.37997e+06 0 2.15507e+06 665843 0 1.38958e+06 645676 0 1.00347e+06 475546 0 747642 326319 0 588149 200923 0 498492 95608.6 0 467777 0 0 3.71833e+06 -990845 0 2.10414e+06 822298 0 1.33133e+06 728742 0 941017 536313 0 693940 372841 0 540886 233683 0 454926 113237 0 422539 0 0 4.0403e+06 -507954 0 2.05038e+06 979510 0 1.26985e+06 814973 0 877134 597246 0 636951 418368 0 488087 264542 0 403756 129357 0 367782 0 0 4.28178e+06 52295.7 0 1.99965e+06 1.13881e+06 0 1.20423e+06 903022 0 812723 658707 0 576764 463031 0 430231 293764 0 345779 144167 0 304701 0 0 4.42908e+06 670040 0 1.95808e+06 1.30406e+06 0 1.13338e+06 990744 0 748951 721540 0 513613 506890 0 368048 321595 0 282041 157806 0 234696 0 0 4.47065e+06 1.32156e+06 0 1.93142e+06 1.48215e+06 0 1.05634e+06 1.07498e+06 0 687084 787155 0 447879 549879 0 302452 348311 0 213773 170353 0 159361 0 0 4.39716e+06 1.97833e+06 0 1.92445e+06 1.68318e+06 0 972517 1.1514e+06 0 628259 857504 0 380099 591780 0 234426 374229 0 142312 181799 0 80458.6 0 0 4.20179e+06 2.60546e+06 0 1.94054e+06 1.92086e+06 0 881907 1.21435e+06 0 573294 934927 0 311003 632202 0 164880 399706 0 69056.8 191995 0 -129.643 0 0 </DataArray> 
</PointData> 
<Points> 
<DataArray type="Float32" NumberOfComponents="3"> 
0.2018 0.0378 0 0.226257 0.0378 0 0.250714 0.0378 0 0.275171 0.0378 0 0.299629 0.0378 0 0.324086 0.0378 0 0.348543 0.0378 0 0.373 0.0378 0 0.202484 0.0398184 0 0.22742 0.0410734 0 0.25216 0.0423185 0 0.276707 0.0435538 0 0.301062 0.0447796 0 0.325227 0.0459958 0 0.349206 0.0472025 0 0.373 0.0484 0 0.202901 0.0419587 0 0.228176 0.0444908 0 0.253114 0.0469893 0 0.277724 0.0494548 0 0.302011 0.051888 0 0.325982 0.0542895 0 0.349643 0.05666 0 0.373 0.059 0 0.203026 0.0441667 0 0.228486 0.0479763 0 0.253537 0.0517247 0 0.27819 0.0554136 0 0.302454 0.0590442 0 0.326338 0.0626179 0 0.34985 0.0661361 0 0.373 0.0696 0 0.202846 0.0463814 0 0.228333 0.051447 0 0.253411 0.0564313 0 0.27809 0.0613363 0 0.302379 0.0661639 0 0.326288 0.0709159 0 0.349826 0.075594 0 0.373 0.0802 0 0.202366 0.0485402 0 0.22772 0.0548194 0 0.252737 0.0610152 0 0.277424 0.0671293 0 0.301788 0.0731633 0 0.325834 0.0791187 0 0.34957 0.0849971 0 0.373 0.0908 0 0.201608 0.0505849 0 0.226672 0.0580161 0 0.251539 0.0653888 0 0.276212 0.0727039 0 0.300692 0.0799618 0 0.324982 0.0871634 0 0.349084 0.0943093 0 0.373 0.1014 0 0.200607 0.0524662 0 0.225234 0.0609711 0 0.249862 0.0694759 0 0.27449 0.0779807 0 0.299117 0.0864855 0 0.323745 0.0949904 0 0.348372 0.103495 0 0.373 0.112 0 
</DataArray>
</Points> 
</Piece> 
</StructuredGrid> 
</VTKFile> 
