<?xml version="1.0"?> 
<VTKFile type="StructuredGrid" version="0.1"> 
<StructuredGrid WholeExtent="0 7 0 7 0 0"> 
<Piece Extent="0 7 0 7 0 0"> 
<PointData>
<DataArray type="Float32" Name="|E|" format="ascii" NumberOfComponents="3"> 
-1.76706e+06 762673 0 -1.53971e+06 775153 0 -1.26847e+06 768741 0 -1.02443e+06 778184 0 -459896 892282 0 116943 480214 0 -47890.8 -16346.1 0 7567.88 5.96046e-08 0 -1.87303e+06 640997 0 -1.68604e+06 615610 0 -1.46422e+06 591733 0 -1.2173e+06 555751 0 -916503 530356 0 -519238 427585 0 -218843 169965 0 -71901.1 -9437.22 0 -1.99468e+06 539156 0 -1.85083e+06 481137 0 -1.68407e+06 422661 0 -1.49392e+06 358885 0 -1.28067e+06 284051 0 -1.04331e+06 194074 0 -791000 64638.1 0 -525411 -103295 0 -2.1318e+06 452183 0 -2.03835e+06 368597 0 -1.93175e+06 280208 0 -1.81107e+06 185348 0 -1.67813e+06 82153.8 0 -1.52955e+06 -31132.5 0 -1.37202e+06 -155645 0 -1.24887e+06 -297454 0 -2.28398e+06 376715 0 -2.2526e+06 275283 0 -2.21491e+06 164806 0 -2.17215e+06 46449.7 0 -2.12227e+06 -79407.5 0 -2.07155e+06 -213492 0 -2.00953e+06 -351118 0 -1.88169e+06 -506278 0 -2.45148e+06 310051 0 -2.49644e+06 194226 0 -2.54383e+06 67798.3 0 -2.59177e+06 -76153.2 0 -2.63722e+06 -242015 0 -2.67432e+06 -430991 0 -2.70416e+06 -657000 0 -2.7861e+06 -821247 0 -2.64364e+06 247980 0 -2.78023e+06 139189 0 -2.9613e+06 13699.1 0 -3.16391e+06 -138718 0 -3.42607e+06 -313611 0 -3.67248e+06 -515860 0 -3.9889e+06 -695550 0 -4.65478e+06 -1.48135e+06 0 -2.69206e+06 197110 0 -3.15229e+06 127324 0 -3.48847e+06 16207.1 0 -3.89692e+06 -103168 0 -4.55208e+06 -342850 0 -4.63744e+06 -558565 0 -9.21312e+06 -3.30541e+06 0 2.34367e+06 800151 0 </DataArray> 
</PointData> 
<Points> 
<DataArray type="Float32" NumberOfComponents="3"> 
0.1 0.055 0 0.101857 0.0535715 0 0.103714 0.0521429 0 0.105571 0.0507144 0 0.107429 0.0492858 0 0.109286 0.0478573 0 0.111143 0.0464287 0 0.113 0.0450002 0 0.1 0.0569571 0 0.101712 0.0557208 0 0.10346 0.0544586 0 0.105246 0.0531696 0 0.107069 0.0518532 0 0.108931 0.0505083 0 0.110835 0.049134 0 0.11278 0.0477294 0 0.1 0.0589143 0 0.101545 0.0580194 0 0.103144 0.0570929 0 0.104802 0.056133 0 0.106519 0.0551379 0 0.108301 0.0541056 0 0.110151 0.0530341 0 0.112073 0.051921 0 0.1 0.0608714 0 0.101356 0.0604464 0 0.10277 0.0600031 0 0.104246 0.0595405 0 0.105788 0.0590573 0 0.1074 0.058552 0 0.109087 0.058023 0 0.110856 0.0574688 0 0.1 0.0628286 0 0.101148 0.0629776 0 0.102345 0.0631331 0 0.103594 0.0632953 0 0.104899 0.0634647 0 0.106263 0.0636419 0 0.107691 0.0638274 0 0.109188 0.0640217 0 0.1 0.0647857 0 0.100922 0.0655868 0 0.101877 0.0664162 0 0.102866 0.0672755 0 0.103891 0.0681663 0 0.104954 0.0690904 0 0.106058 0.0700496 0 0.107205 0.071046 0 0.1 0.0667429 0 0.100681 0.0682461 0 0.101377 0.0697808 0 0.102087 0.0713479 0 0.102813 0.0729486 0 0.103554 0.0745838 0 0.104311 0.0762547 0 0.105085 0.0779625 0 0.1 0.0687 0 0.100429 0.0709272 0 0.100857 0.0731544 0 0.101286 0.0753816 0 0.101714 0.0776088 0 0.102143 0.079836 0 0.102571 0.0820632 0 0.103 0.0842904 0 
</DataArray>
</Points> 
</Piece> 
</StructuredGrid> 
</VTKFile> 
