<?xml version="1.0"?> 
<VTKFile type="StructuredGrid" version="0.1"> 
<StructuredGrid WholeExtent="0 7 0 7 0 0"> 
<Piece Extent="0 7 0 7 0 0"> 
<PointData>
<DataArray type="Float32" Name="|E|" format="ascii" NumberOfComponents="3"> 
-3.81398e+06 3.48677e+06 0 -6.40837e+06 1.09861e+07 0 -412981 1.48007e+07 0 6.27442e+06 1.08445e+07 0 6.38789e+06 5.13694e+06 0 4.3087e+06 2.18074e+06 0 2.36529e+06 848938 0 255032 69154 0 -7.05483e+06 8.68009e+06 0 -4.05199e+06 1.10186e+07 0 430332 1.21876e+07 0 4.00094e+06 1.02636e+07 0 5.38784e+06 6.54482e+06 0 4.50585e+06 3.38892e+06 0 2.97611e+06 1.6305e+06 0 1.33891e+06 732667 0 -4.40835e+06 7.97419e+06 0 -2.1566e+06 1.05243e+07 0 559000 1.07221e+07 0 2.65275e+06 9.54098e+06 0 4.07984e+06 7.29169e+06 0 4.21955e+06 4.65526e+06 0 3.35691e+06 2.64546e+06 0 2.11558e+06 1.46647e+06 0 -3.09688e+06 8.78063e+06 0 -1.09849e+06 9.90292e+06 0 534011 9.80044e+06 0 1.81114e+06 8.96584e+06 0 2.87979e+06 7.53899e+06 0 3.44796e+06 5.65885e+06 0 3.2976e+06 3.8153e+06 0 2.60059e+06 2.44036e+06 0 -1.81233e+06 8.76185e+06 0 -499588 9.35194e+06 0 455169 9.19937e+06 0 1.2277e+06 8.54864e+06 0 1.93002e+06 7.54113e+06 0 2.48413e+06 6.26218e+06 0 2.72408e+06 4.86753e+06 0 2.57237e+06 3.5961e+06 0 -930354 8.61854e+06 0 -182912 8.97054e+06 0 342187 8.81157e+06 0 774204 8.2595e+06 0 1.1853e+06 7.46252e+06 0 1.56464e+06 6.53787e+06 0 1.8489e+06 5.56814e+06 0 1.9783e+06 4.62718e+06 0 -349546 8.49137e+06 0 -29082.9 8.74663e+06 0 193184 8.5781e+06 0 380499 8.07267e+06 0 565127 7.37865e+06 0 748694 6.62896e+06 0 912605 5.90507e+06 0 1.03869e+06 5.24499e+06 0 0 8.52186e+06 0 0 8.6675e+06 0 0 8.46215e+06 0 0 7.96642e+06 0 0 7.31506e+06 0 0 6.63251e+06 0 0 5.99636e+06 0 0 5.44059e+06 0 </DataArray> 
</PointData> 
<Points> 
<DataArray type="Float32" NumberOfComponents="3"> 
0.103 0.0842904 0 0.110092 0.0902746 0 0.116891 0.0923931 0 0.123397 0.0906458 0 0.129612 0.0850329 0 0.135534 0.0755543 0 0.141163 0.06221 0 0.1465 0.045 0 0.104429 0.0882489 0 0.111191 0.0933782 0 0.117702 0.095194 0 0.123963 0.0936964 0 0.129973 0.0888854 0 0.135733 0.0807608 0 0.141242 0.0693229 0 0.1465 0.0545714 0 0.105857 0.0922074 0 0.11229 0.0964818 0 0.118514 0.097995 0 0.124529 0.096747 0 0.130335 0.0927378 0 0.135932 0.0859674 0 0.141321 0.0764357 0 0.1465 0.0641429 0 0.107286 0.0961659 0 0.113389 0.0995855 0 0.119325 0.100796 0 0.125094 0.0997976 0 0.130697 0.0965902 0 0.136131 0.0911739 0 0.141399 0.0835486 0 0.1465 0.0737143 0 0.108714 0.100124 0 0.114488 0.102689 0 0.120137 0.103597 0 0.12566 0.102848 0 0.131058 0.100443 0 0.136331 0.0963804 0 0.141478 0.0906614 0 0.1465 0.0832857 0 0.110143 0.104083 0 0.115587 0.105793 0 0.120948 0.106398 0 0.126226 0.105899 0 0.13142 0.104295 0 0.13653 0.101587 0 0.141557 0.0977743 0 0.1465 0.0928571 0 0.111571 0.108041 0 0.116687 0.108896 0 0.12176 0.109199 0 0.126791 0.108949 0 0.131781 0.108148 0 0.136729 0.106793 0 0.141636 0.104887 0 0.1465 0.102429 0 0.113 0.112 0 0.117786 0.112 0 0.122571 0.112 0 0.127357 0.112 0 0.132143 0.112 0 0.136929 0.112 0 0.141714 0.112 0 0.1465 0.112 0 
</DataArray>
</Points> 
</Piece> 
</StructuredGrid> 
</VTKFile> 
