<?xml version="1.0"?> 
<VTKFile type="StructuredGrid" version="0.1"> 
<StructuredGrid WholeExtent="0 127 0 127 0 0"> 
<Piece Extent="0 127 0 127 0 0"> 
<PointData>
<DataArray type="Float32" Name="E" format="ascii" NumberOfComponents="3"> 
-4.69622e+06 -533406 0 -4.93859e+06 -368288 0 -5.12467e+06 -189853 0 -5.27138e+06 -4649.66 0 -5.38789e+06 183351 0 -5.47996e+06 371483 0 -5.55153e+06 557852 0 -5.60558e+06 741078 0 -5.64452e+06 920158 0 -5.67033e+06 1.09437e+06 0 -5.68473e+06 1.26322e+06 0 -5.68922e+06 1.42639e+06 0 -5.68509e+06 1.5837e+06 0 -5.67351e+06 1.73509e+06 0 -5.65548e+06 1.88057e+06 0 -5.6319e+06 2.02023e+06 0 -5.60354e+06 2.15421e+06 0 -5.57109e+06 2.28268e+06 0 -5.53516e+06 2.40584e+06 0 -5.49627e+06 2.52391e+06 0 -5.45489e+06 2.6371e+06 0 -5.4114e+06 2.74566e+06 0 -5.36616e+06 2.84982e+06 0 -5.31947e+06 2.9498e+06 0 -5.27158e+06 3.04582e+06 0 -5.22272e+06 3.13811e+06 0 -5.17308e+06 3.22687e+06 0 -5.12283e+06 3.3123e+06 0 -5.0721e+06 3.39459e+06 0 -5.02101e+06 3.47393e+06 0 -4.96967e+06 3.55047e+06 0 -4.91815e+06 3.62438e+06 0 -4.86653e+06 3.6958e+06 0 -4.81487e+06 3.76489e+06 0 -4.76321e+06 3.83176e+06 0 -4.71158e+06 3.89654e+06 0 -4.66003e+06 3.95935e+06 0 -4.60858e+06 4.02028e+06 0 -4.55723e+06 4.07944e+06 0 -4.50602e+06 4.13691e+06 0 -4.45493e+06 4.19278e+06 0 -4.40399e+06 4.24712e+06 0 -4.35318e+06 4.30001e+06 0 -4.30251e+06 4.35151e+06 0 -4.25198e+06 4.40167e+06 0 -4.20157e+06 4.45055e+06 0 -4.1513e+06 4.4982e+06 0 -4.10114e+06 4.54467e+06 0 -4.05109e+06 4.58998e+06 0 -4.00114e+06 4.63418e+06 0 -3.95128e+06 4.6773e+06 0 -3.9015e+06 4.71937e+06 0 -3.85179e+06 4.7604e+06 0 -3.80215e+06 4.80043e+06 0 -3.75256e+06 4.83946e+06 0 -3.70302e+06 4.87752e+06 0 -3.65352e+06 4.91461e+06 0 -3.60405e+06 4.95075e+06 0 -3.5546e+06 4.98594e+06 0 -3.50518e+06 5.02018e+06 0 -3.45577e+06 5.05349e+06 0 -3.40636e+06 5.08586e+06 0 -3.35697e+06 5.11729e+06 0 -3.30759e+06 5.14778e+06 0 -3.25821e+06 5.17732e+06 0 -3.20884e+06 5.2059e+06 0 -3.15949e+06 5.23353e+06 0 -3.11014e+06 5.26019e+06 0 -3.06082e+06 5.28588e+06 0 -3.01153e+06 5.31058e+06 0 -2.96227e+06 5.33429e+06 0 -2.91306e+06 5.35698e+06 0 -2.8639e+06 5.37866e+06 0 -2.81482e+06 5.3993e+06 0 -2.76582e+06 5.4189e+06 0 -2.71692e+06 5.43744e+06 0 -2.66814e+06 5.45491e+06 0 -2.6195e+06 5.47129e+06 0 -2.57102e+06 5.48658e+06 0 -2.52273e+06 5.50076e+06 0 -2.47465e+06 5.51381e+06 0 -2.4268e+06 5.52574e+06 0 -2.37922e+06 5.53652e+06 0 -2.33193e+06 5.54614e+06 0 -2.28497e+06 5.55461e+06 0 -2.23837e+06 5.5619e+06 0 -2.19217e+06 5.56802e+06 0 -2.14639e+06 5.57295e+06 0 -2.10109e+06 5.57669e+06 0 -2.05629e+06 5.57925e+06 0 -2.01205e+06 5.58061e+06 0 -1.96839e+06 5.58079e+06 0 -1.92538e+06 5.57978e+06 0 -1.88304e+06 5.57758e+06 0 -1.84143e+06 5.57421e+06 0 -1.8006e+06 5.56968e+06 0 -1.76059e+06 5.56399e+06 0 -1.72146e+06 5.55716e+06 0 -1.68324e+06 5.54921e+06 0 -1.64601e+06 5.54016e+06 0 -1.60979e+06 5.53003e+06 0 -1.57466e+06 5.51884e+06 0 -1.54067e+06 5.50663e+06 0 -1.50786e+06 5.49343e+06 0 -1.4763e+06 5.47927e+06 0 -1.44603e+06 5.46419e+06 0 -1.41712e+06 5.44824e+06 0 -1.38963e+06 5.43146e+06 0 -1.3636e+06 5.41391e+06 0 -1.33911e+06 5.39565e+06 0 -1.3162e+06 5.37674e+06 0 -1.29494e+06 5.35724e+06 0 -1.2754e+06 5.33724e+06 0 -1.25762e+06 5.31681e+06 0 -1.24169e+06 5.29605e+06 0 -1.22766e+06 5.27506e+06 0 -1.2156e+06 5.25396e+06 0 -1.20559e+06 5.23288e+06 0 -1.19771e+06 5.21196e+06 0 -1.19205e+06 5.19138e+06 0 -1.18869e+06 5.17135e+06 0 -1.18774e+06 5.15214e+06 0 -1.18935e+06 5.13406e+06 0 -1.19366e+06 5.11759e+06 0 -1.20091e+06 5.10339e+06 0 -1.21142e+06 5.09254e+06 0 -1.22574e+06 5.08688e+06 0 -1.24485e+06 5.09e+06 0 -4.65516e+06 58369.4 0 -4.77065e+06 145375 0 -4.88053e+06 252823 0 -4.97999e+06 373316 0 -5.0675e+06 502629 0 -5.14294e+06 637688 0 -5.2067e+06 776309 0 -5.25941e+06 916823 0 -5.30179e+06 1.05793e+06 0 -5.33458e+06 1.19861e+06 0 -5.35851e+06 1.33804e+06 0 -5.37431e+06 1.47555e+06 0 -5.38268e+06 1.61063e+06 0 -5.38429e+06 1.74288e+06 0 -5.37977e+06 1.87198e+06 0 -5.36973e+06 1.99773e+06 0 -5.35474e+06 2.11995e+06 0 -5.33531e+06 2.23857e+06 0 -5.31193e+06 2.35353e+06 0 -5.28506e+06 2.46482e+06 0 -5.2551e+06 2.57249e+06 0 -5.22241e+06 2.67657e+06 0 -5.18735e+06 2.77716e+06 0 -5.1502e+06 2.87434e+06 0 -5.11125e+06 2.96821e+06 0 -5.07074e+06 3.0589e+06 0 -5.02888e+06 3.14651e+06 0 -4.98586e+06 3.23118e+06 0 -4.94186e+06 3.31302e+06 0 -4.89703e+06 3.39215e+06 0 -4.85149e+06 3.4687e+06 0 -4.80536e+06 3.54278e+06 0 -4.75874e+06 3.61451e+06 0 -4.71172e+06 3.684e+06 0 -4.66437e+06 3.75136e+06 0 -4.61675e+06 3.81668e+06 0 -4.56892e+06 3.88005e+06 0 -4.52093e+06 3.94157e+06 0 -4.47281e+06 4.00133e+06 0 -4.42459e+06 4.0594e+06 0 -4.37631e+06 4.11586e+06 0 -4.32798e+06 4.17077e+06 0 -4.27962e+06 4.2242e+06 0 -4.23124e+06 4.27621e+06 0 -4.18286e+06 4.32686e+06 0 -4.13449e+06 4.37619e+06 0 -4.08612e+06 4.42425e+06 0 -4.03776e+06 4.47109e+06 0 -3.98942e+06 4.51673e+06 0 -3.94109e+06 4.56122e+06 0 -3.89278e+06 4.60459e+06 0 -3.84447e+06 4.64686e+06 0 -3.79618e+06 4.68806e+06 0 -3.7479e+06 4.72821e+06 0 -3.69963e+06 4.76733e+06 0 -3.65136e+06 4.80543e+06 0 -3.60309e+06 4.84252e+06 0 -3.55482e+06 4.87863e+06 0 -3.50656e+06 4.91375e+06 0 -3.45829e+06 4.94789e+06 0 -3.41003e+06 4.98106e+06 0 -3.36176e+06 5.01325e+06 0 -3.3135e+06 5.04448e+06 0 -3.26525e+06 5.07474e+06 0 -3.217e+06 5.10402e+06 0 -3.16877e+06 5.13232e+06 0 -3.12056e+06 5.15965e+06 0 -3.07238e+06 5.18598e+06 0 -3.02423e+06 5.21133e+06 0 -2.97613e+06 5.23567e+06 0 -2.92809e+06 5.259e+06 0 -2.88012e+06 5.28132e+06 0 -2.83224e+06 5.3026e+06 0 -2.78445e+06 5.32285e+06 0 -2.73678e+06 5.34206e+06 0 -2.68925e+06 5.36021e+06 0 -2.64188e+06 5.37729e+06 0 -2.59469e+06 5.3933e+06 0 -2.54769e+06 5.40822e+06 0 -2.50092e+06 5.42206e+06 0 -2.45441e+06 5.43479e+06 0 -2.40817e+06 5.44641e+06 0 -2.36225e+06 5.45692e+06 0 -2.31666e+06 5.46632e+06 0 -2.27145e+06 5.47458e+06 0 -2.22664e+06 5.48172e+06 0 -2.18227e+06 5.48773e+06 0 -2.13838e+06 5.49261e+06 0 -2.095e+06 5.49637e+06 0 -2.05218e+06 5.49899e+06 0 -2.00994e+06 5.5005e+06 0 -1.96834e+06 5.50088e+06 0 -1.92741e+06 5.50017e+06 0 -1.8872e+06 5.49835e+06 0 -1.84775e+06 5.49545e+06 0 -1.8091e+06 5.49148e+06 0 -1.7713e+06 5.48647e+06 0 -1.73439e+06 5.48042e+06 0 -1.69842e+06 5.47336e+06 0 -1.66344e+06 5.46532e+06 0 -1.62949e+06 5.45633e+06 0 -1.59662e+06 5.44642e+06 0 -1.56487e+06 5.43563e+06 0 -1.5343e+06 5.42399e+06 0 -1.50494e+06 5.41154e+06 0 -1.47685e+06 5.39834e+06 0 -1.45007e+06 5.38443e+06 0 -1.42465e+06 5.36988e+06 0 -1.40063e+06 5.35473e+06 0 -1.37805e+06 5.33906e+06 0 -1.35696e+06 5.32293e+06 0 -1.3374e+06 5.30643e+06 0 -1.31941e+06 5.28964e+06 0 -1.30303e+06 5.27265e+06 0 -1.28829e+06 5.25557e+06 0 -1.27523e+06 5.23851e+06 0 -1.26386e+06 5.2216e+06 0 -1.25422e+06 5.20498e+06 0 -1.24631e+06 5.1888e+06 0 -1.24013e+06 5.17326e+06 0 -1.23567e+06 5.15855e+06 0 -1.23286e+06 5.14493e+06 0 -1.23161e+06 5.13265e+06 0 -1.23176e+06 5.12204e+06 0 -1.233e+06 5.11338e+06 0 -1.23481e+06 5.10691e+06 0 -1.23631e+06 5.10254e+06 0 -1.23578e+06 5.09923e+06 0 -4.53609e+06 373393 0 -4.61841e+06 454066 0 -4.69572e+06 542276 0 -4.76774e+06 637492 0 -4.83391e+06 738744 0 -4.89379e+06 844972 0 -4.94708e+06 955140 0 -4.99364e+06 1.06829e+06 0 -5.03348e+06 1.18356e+06 0 -5.06667e+06 1.30017e+06 0 -5.09341e+06 1.41744e+06 0 -5.11391e+06 1.53476e+06 0 -5.12847e+06 1.65159e+06 0 -5.13737e+06 1.76748e+06 0 -5.14096e+06 1.88204e+06 0 -5.13957e+06 1.99493e+06 0 -5.13355e+06 2.10588e+06 0 -5.12324e+06 2.21467e+06 0 -5.109e+06 2.32113e+06 0 -5.09115e+06 2.42511e+06 0 -5.07001e+06 2.52653e+06 0 -5.04588e+06 2.62532e+06 0 -5.01906e+06 2.72146e+06 0 -4.98981e+06 2.81492e+06 0 -4.95839e+06 2.90573e+06 0 -4.92502e+06 2.9939e+06 0 -4.88992e+06 3.07949e+06 0 -4.85328e+06 3.16255e+06 0 -4.81529e+06 3.24314e+06 0 -4.7761e+06 3.32133e+06 0 -4.73586e+06 3.39718e+06 0 -4.6947e+06 3.47079e+06 0 -4.65273e+06 3.54222e+06 0 -4.61006e+06 3.61156e+06 0 -4.56678e+06 3.67888e+06 0 -4.52297e+06 3.74426e+06 0 -4.4787e+06 3.80777e+06 0 -4.43404e+06 3.86948e+06 0 -4.38904e+06 3.92947e+06 0 -4.34375e+06 3.98781e+06 0 -4.2982e+06 4.04455e+06 0 -4.25244e+06 4.09975e+06 0 -4.2065e+06 4.15347e+06 0 -4.1604e+06 4.20577e+06 0 -4.11416e+06 4.25669e+06 0 -4.0678e+06 4.30628e+06 0 -4.02134e+06 4.35458e+06 0 -3.97479e+06 4.40164e+06 0 -3.92816e+06 4.44748e+06 0 -3.88147e+06 4.49213e+06 0 -3.83471e+06 4.53564e+06 0 -3.7879e+06 4.57802e+06 0 -3.74103e+06 4.6193e+06 0 -3.69413e+06 4.65949e+06 0 -3.64718e+06 4.69863e+06 0 -3.6002e+06 4.73672e+06 0 -3.55319e+06 4.77377e+06 0 -3.50614e+06 4.8098e+06 0 -3.45907e+06 4.84482e+06 0 -3.41198e+06 4.87883e+06 0 -3.36488e+06 4.91185e+06 0 -3.31776e+06 4.94387e+06 0 -3.27064e+06 4.97489e+06 0 -3.22352e+06 5.00492e+06 0 -3.17641e+06 5.03395e+06 0 -3.12932e+06 5.062e+06 0 -3.08226e+06 5.08904e+06 0 -3.03523e+06 5.11508e+06 0 -2.98826e+06 5.14011e+06 0 -2.94134e+06 5.16413e+06 0 -2.89451e+06 5.18714e+06 0 -2.84776e+06 5.20912e+06 0 -2.80113e+06 5.23007e+06 0 -2.75462e+06 5.24999e+06 0 -2.70825e+06 5.26886e+06 0 -2.66205e+06 5.28669e+06 0 -2.61604e+06 5.30346e+06 0 -2.57024e+06 5.31916e+06 0 -2.52468e+06 5.3338e+06 0 -2.47937e+06 5.34737e+06 0 -2.43436e+06 5.35986e+06 0 -2.38966e+06 5.37128e+06 0 -2.3453e+06 5.3816e+06 0 -2.30133e+06 5.39085e+06 0 -2.25776e+06 5.39901e+06 0 -2.21463e+06 5.40609e+06 0 -2.17198e+06 5.41209e+06 0 -2.12984e+06 5.41701e+06 0 -2.08825e+06 5.42086e+06 0 -2.04724e+06 5.42365e+06 0 -2.00685e+06 5.42538e+06 0 -1.96713e+06 5.42607e+06 0 -1.9281e+06 5.42572e+06 0 -1.88981e+06 5.42437e+06 0 -1.85229e+06 5.42201e+06 0 -1.8156e+06 5.41868e+06 0 -1.77976e+06 5.41439e+06 0 -1.74482e+06 5.40917e+06 0 -1.71083e+06 5.40306e+06 0 -1.67781e+06 5.39606e+06 0 -1.64581e+06 5.38824e+06 0 -1.61487e+06 5.37961e+06 0 -1.58503e+06 5.37022e+06 0 -1.55632e+06 5.36011e+06 0 -1.52879e+06 5.34933e+06 0 -1.50247e+06 5.33793e+06 0 -1.47739e+06 5.32596e+06 0 -1.45359e+06 5.31349e+06 0 -1.4311e+06 5.30058e+06 0 -1.40995e+06 5.28729e+06 0 -1.39015e+06 5.27371e+06 0 -1.37174e+06 5.2599e+06 0 -1.35473e+06 5.24595e+06 0 -1.33913e+06 5.23195e+06 0 -1.32496e+06 5.21801e+06 0 -1.3122e+06 5.20423e+06 0 -1.30084e+06 5.19071e+06 0 -1.29087e+06 5.17759e+06 0 -1.28223e+06 5.16498e+06 0 -1.27487e+06 5.15302e+06 0 -1.26871e+06 5.14185e+06 0 -1.26361e+06 5.13158e+06 0 -1.25942e+06 5.12232e+06 0 -1.25595e+06 5.11416e+06 0 -1.25294e+06 5.1071e+06 0 -1.25017e+06 5.10109e+06 0 -1.24743e+06 5.09603e+06 0 -1.24495e+06 5.09207e+06 0 -4.41754e+06 606368 0 -4.47716e+06 677139 0 -4.53527e+06 753109 0 -4.59091e+06 833836 0 -4.64342e+06 918881 0 -4.69232e+06 1.00779e+06 0 -4.73723e+06 1.10007e+06 0 -4.77784e+06 1.19524e+06 0 -4.81396e+06 1.2928e+06 0 -4.84544e+06 1.39225e+06 0 -4.87223e+06 1.49312e+06 0 -4.8943e+06 1.59495e+06 0 -4.9117e+06 1.69732e+06 0 -4.92451e+06 1.79981e+06 0 -4.93287e+06 1.90207e+06 0 -4.93692e+06 2.00377e+06 0 -4.93686e+06 2.10459e+06 0 -4.93287e+06 2.20429e+06 0 -4.92517e+06 2.30263e+06 0 -4.914e+06 2.39943e+06 0 -4.89957e+06 2.49452e+06 0 -4.88211e+06 2.58778e+06 0 -4.86186e+06 2.6791e+06 0 -4.83903e+06 2.7684e+06 0 -4.81383e+06 2.85563e+06 0 -4.78647e+06 2.94076e+06 0 -4.75715e+06 3.02377e+06 0 -4.72604e+06 3.10466e+06 0 -4.69332e+06 3.18344e+06 0 -4.65914e+06 3.26014e+06 0 -4.62365e+06 3.33478e+06 0 -4.58699e+06 3.40741e+06 0 -4.54927e+06 3.47807e+06 0 -4.51061e+06 3.54681e+06 0 -4.47111e+06 3.61367e+06 0 -4.43087e+06 3.67872e+06 0 -4.38996e+06 3.742e+06 0 -4.34846e+06 3.80357e+06 0 -4.30643e+06 3.86348e+06 0 -4.26394e+06 3.92179e+06 0 -4.22104e+06 3.97854e+06 0 -4.17777e+06 4.03379e+06 0 -4.13417e+06 4.08758e+06 0 -4.09029e+06 4.13996e+06 0 -4.04614e+06 4.19097e+06 0 -4.00177e+06 4.24065e+06 0 -3.95719e+06 4.28904e+06 0 -3.91243e+06 4.33616e+06 0 -3.86751e+06 4.38207e+06 0 -3.82244e+06 4.42678e+06 0 -3.77723e+06 4.47032e+06 0 -3.73191e+06 4.51271e+06 0 -3.68648e+06 4.55399e+06 0 -3.64095e+06 4.59416e+06 0 -3.59534e+06 4.63325e+06 0 -3.54965e+06 4.67127e+06 0 -3.50389e+06 4.70824e+06 0 -3.45807e+06 4.74416e+06 0 -3.4122e+06 4.77905e+06 0 -3.36629e+06 4.81292e+06 0 -3.32035e+06 4.84576e+06 0 -3.27438e+06 4.87759e+06 0 -3.2284e+06 4.9084e+06 0 -3.18242e+06 4.93821e+06 0 -3.13645e+06 4.96701e+06 0 -3.09049e+06 4.9948e+06 0 -3.04457e+06 5.02158e+06 0 -2.99869e+06 5.04734e+06 0 -2.95287e+06 5.0721e+06 0 -2.90713e+06 5.09583e+06 0 -2.86148e+06 5.11855e+06 0 -2.81593e+06 5.14024e+06 0 -2.77052e+06 5.1609e+06 0 -2.72525e+06 5.18053e+06 0 -2.68015e+06 5.19913e+06 0 -2.63525e+06 5.21668e+06 0 -2.59055e+06 5.2332e+06 0 -2.54609e+06 5.24866e+06 0 -2.5019e+06 5.26308e+06 0 -2.458e+06 5.27645e+06 0 -2.41441e+06 5.28877e+06 0 -2.37117e+06 5.30004e+06 0 -2.3283e+06 5.31026e+06 0 -2.28585e+06 5.31943e+06 0 -2.24382e+06 5.32756e+06 0 -2.20227e+06 5.33465e+06 0 -2.16122e+06 5.34071e+06 0 -2.12071e+06 5.34574e+06 0 -2.08077e+06 5.34976e+06 0 -2.04143e+06 5.35278e+06 0 -2.00274e+06 5.3548e+06 0 -1.96472e+06 5.35585e+06 0 -1.92741e+06 5.35594e+06 0 -1.89086e+06 5.35509e+06 0 -1.85509e+06 5.35332e+06 0 -1.82014e+06 5.35066e+06 0 -1.78604e+06 5.34713e+06 0 -1.75284e+06 5.34277e+06 0 -1.72056e+06 5.33759e+06 0 -1.68925e+06 5.33164e+06 0 -1.65893e+06 5.32496e+06 0 -1.62964e+06 5.31757e+06 0 -1.60141e+06 5.30954e+06 0 -1.57426e+06 5.30089e+06 0 -1.54823e+06 5.29168e+06 0 -1.52334e+06 5.28197e+06 0 -1.49961e+06 5.2718e+06 0 -1.47707e+06 5.26124e+06 0 -1.45574e+06 5.25035e+06 0 -1.43562e+06 5.23919e+06 0 -1.41673e+06 5.22783e+06 0 -1.39907e+06 5.21635e+06 0 -1.38265e+06 5.20483e+06 0 -1.36745e+06 5.19334e+06 0 -1.35345e+06 5.18198e+06 0 -1.34065e+06 5.17081e+06 0 -1.32899e+06 5.15994e+06 0 -1.31844e+06 5.14945e+06 0 -1.30893e+06 5.13942e+06 0 -1.30039e+06 5.12993e+06 0 -1.29273e+06 5.12105e+06 0 -1.28584e+06 5.11285e+06 0 -1.27961e+06 5.10536e+06 0 -1.2739e+06 5.09859e+06 0 -1.2686e+06 5.09255e+06 0 -1.2636e+06 5.08721e+06 0 -1.25876e+06 5.08254e+06 0 -1.25384e+06 5.07835e+06 0 -4.29775e+06 784234 0 -4.34587e+06 848848 0 -4.3927e+06 916726 0 -4.43796e+06 987863 0 -4.48129e+06 1.06216e+06 0 -4.52236e+06 1.13946e+06 0 -4.56084e+06 1.21956e+06 0 -4.59645e+06 1.3022e+06 0 -4.62895e+06 1.38712e+06 0 -4.65812e+06 1.47401e+06 0 -4.68383e+06 1.56256e+06 0 -4.70594e+06 1.65246e+06 0 -4.72439e+06 1.74339e+06 0 -4.73914e+06 1.83503e+06 0 -4.75019e+06 1.92707e+06 0 -4.7576e+06 2.01922e+06 0 -4.76141e+06 2.11122e+06 0 -4.76174e+06 2.2028e+06 0 -4.75869e+06 2.29373e+06 0 -4.7524e+06 2.3838e+06 0 -4.74302e+06 2.47282e+06 0 -4.7307e+06 2.56063e+06 0 -4.71562e+06 2.6471e+06 0 -4.69795e+06 2.7321e+06 0 -4.67784e+06 2.81555e+06 0 -4.65548e+06 2.89735e+06 0 -4.63103e+06 2.97747e+06 0 -4.60464e+06 3.05584e+06 0 -4.57648e+06 3.13246e+06 0 -4.54669e+06 3.2073e+06 0 -4.51541e+06 3.28036e+06 0 -4.48277e+06 3.35165e+06 0 -4.44889e+06 3.42118e+06 0 -4.41388e+06 3.48897e+06 0 -4.37786e+06 3.55505e+06 0 -4.34091e+06 3.61945e+06 0 -4.30313e+06 3.68221e+06 0 -4.26459e+06 3.74335e+06 0 -4.22537e+06 3.80293e+06 0 -4.18554e+06 3.86097e+06 0 -4.14515e+06 3.91751e+06 0 -4.10426e+06 3.97259e+06 0 -4.06293e+06 4.02625e+06 0 -4.02118e+06 4.07853e+06 0 -3.97907e+06 4.12946e+06 0 -3.93663e+06 4.17908e+06 0 -3.89389e+06 4.22741e+06 0 -3.85089e+06 4.27449e+06 0 -3.80763e+06 4.32034e+06 0 -3.76416e+06 4.365e+06 0 -3.72049e+06 4.40848e+06 0 -3.67664e+06 4.45081e+06 0 -3.63262e+06 4.49201e+06 0 -3.58846e+06 4.53209e+06 0 -3.54418e+06 4.57108e+06 0 -3.49977e+06 4.60898e+06 0 -3.45526e+06 4.64582e+06 0 -3.41067e+06 4.6816e+06 0 -3.36599e+06 4.71633e+06 0 -3.32126e+06 4.75002e+06 0 -3.27648e+06 4.78267e+06 0 -3.23165e+06 4.8143e+06 0 -3.18681e+06 4.84491e+06 0 -3.14195e+06 4.87449e+06 0 -3.0971e+06 4.90306e+06 0 -3.05227e+06 4.9306e+06 0 -3.00748e+06 4.95713e+06 0 -2.96273e+06 4.98265e+06 0 -2.91805e+06 5.00714e+06 0 -2.87346e+06 5.03062e+06 0 -2.82897e+06 5.05308e+06 0 -2.7846e+06 5.07451e+06 0 -2.74038e+06 5.09492e+06 0 -2.69632e+06 5.11431e+06 0 -2.65245e+06 5.13267e+06 0 -2.60879e+06 5.15001e+06 0 -2.56536e+06 5.16631e+06 0 -2.5222e+06 5.18159e+06 0 -2.47932e+06 5.19584e+06 0 -2.43675e+06 5.20907e+06 0 -2.39452e+06 5.22128e+06 0 -2.35266e+06 5.23246e+06 0 -2.3112e+06 5.24263e+06 0 -2.27017e+06 5.25178e+06 0 -2.2296e+06 5.25994e+06 0 -2.18952e+06 5.2671e+06 0 -2.14996e+06 5.27327e+06 0 -2.11096e+06 5.27847e+06 0 -2.07254e+06 5.28271e+06 0 -2.03474e+06 5.286e+06 0 -1.9976e+06 5.28836e+06 0 -1.96113e+06 5.28981e+06 0 -1.92539e+06 5.29037e+06 0 -1.8904e+06 5.29006e+06 0 -1.85619e+06 5.2889e+06 0 -1.8228e+06 5.28692e+06 0 -1.79025e+06 5.28416e+06 0 -1.75857e+06 5.28064e+06 0 -1.7278e+06 5.27639e+06 0 -1.69797e+06 5.27146e+06 0 -1.6691e+06 5.26587e+06 0 -1.64121e+06 5.25968e+06 0 -1.61433e+06 5.25292e+06 0 -1.58848e+06 5.24564e+06 0 -1.56368e+06 5.23788e+06 0 -1.53995e+06 5.22971e+06 0 -1.51731e+06 5.22117e+06 0 -1.49575e+06 5.21232e+06 0 -1.47529e+06 5.20322e+06 0 -1.45594e+06 5.19393e+06 0 -1.43768e+06 5.1845e+06 0 -1.42052e+06 5.17502e+06 0 -1.40444e+06 5.16553e+06 0 -1.38941e+06 5.15611e+06 0 -1.37543e+06 5.14683e+06 0 -1.36244e+06 5.13774e+06 0 -1.35041e+06 5.12892e+06 0 -1.33929e+06 5.12043e+06 0 -1.32902e+06 5.11231e+06 0 -1.31952e+06 5.10462e+06 0 -1.31074e+06 5.09739e+06 0 -1.30258e+06 5.09065e+06 0 -1.29496e+06 5.08442e+06 0 -1.2878e+06 5.0787e+06 0 -1.28102e+06 5.07347e+06 0 -1.27453e+06 5.06871e+06 0 -1.26829e+06 5.06438e+06 0 -1.26229e+06 5.06048e+06 0 -4.18504e+06 928926 0 -4.2248e+06 987892 0 -4.26392e+06 1.04936e+06 0 -4.30208e+06 1.11334e+06 0 -4.339e+06 1.17979e+06 0 -4.37441e+06 1.24867e+06 0 -4.40804e+06 1.31989e+06 0 -4.43965e+06 1.39333e+06 0 -4.46902e+06 1.46883e+06 0 -4.49592e+06 1.54622e+06 0 -4.5202e+06 1.6253e+06 0 -4.54168e+06 1.70586e+06 0 -4.56026e+06 1.78767e+06 0 -4.57584e+06 1.87048e+06 0 -4.58835e+06 1.95407e+06 0 -4.59777e+06 2.03817e+06 0 -4.6041e+06 2.12257e+06 0 -4.60735e+06 2.20702e+06 0 -4.60758e+06 2.29132e+06 0 -4.60485e+06 2.37525e+06 0 -4.59924e+06 2.45864e+06 0 -4.59087e+06 2.5413e+06 0 -4.57983e+06 2.62308e+06 0 -4.56627e+06 2.70385e+06 0 -4.55029e+06 2.78348e+06 0 -4.53205e+06 2.86188e+06 0 -4.51167e+06 2.93896e+06 0 -4.48929e+06 3.01464e+06 0 -4.46504e+06 3.08888e+06 0 -4.43906e+06 3.16163e+06 0 -4.41147e+06 3.23286e+06 0 -4.38239e+06 3.30256e+06 0 -4.35194e+06 3.3707e+06 0 -4.32023e+06 3.4373e+06 0 -4.28736e+06 3.50235e+06 0 -4.25343e+06 3.56586e+06 0 -4.21853e+06 3.62786e+06 0 -4.18274e+06 3.68836e+06 0 -4.14614e+06 3.74738e+06 0 -4.10881e+06 3.80495e+06 0 -4.07079e+06 3.86109e+06 0 -4.03217e+06 3.91583e+06 0 -3.99299e+06 3.9692e+06 0 -3.95329e+06 4.02122e+06 0 -3.91314e+06 4.07193e+06 0 -3.87256e+06 4.12135e+06 0 -3.83161e+06 4.16951e+06 0 -3.7903e+06 4.21642e+06 0 -3.74868e+06 4.26212e+06 0 -3.70677e+06 4.30663e+06 0 -3.6646e+06 4.34997e+06 0 -3.62219e+06 4.39216e+06 0 -3.57957e+06 4.43321e+06 0 -3.53676e+06 4.47314e+06 0 -3.49378e+06 4.51197e+06 0 -3.45064e+06 4.54972e+06 0 -3.40737e+06 4.58638e+06 0 -3.36398e+06 4.62198e+06 0 -3.3205e+06 4.65653e+06 0 -3.27692e+06 4.69002e+06 0 -3.23329e+06 4.72247e+06 0 -3.1896e+06 4.75389e+06 0 -3.14587e+06 4.78428e+06 0 -3.10213e+06 4.81364e+06 0 -3.05839e+06 4.84197e+06 0 -3.01467e+06 4.86928e+06 0 -2.97098e+06 4.89558e+06 0 -2.92735e+06 4.92085e+06 0 -2.88378e+06 4.94511e+06 0 -2.84032e+06 4.96835e+06 0 -2.79696e+06 4.99058e+06 0 -2.75374e+06 5.01178e+06 0 -2.71067e+06 5.03198e+06 0 -2.66778e+06 5.05116e+06 0 -2.6251e+06 5.06932e+06 0 -2.58264e+06 5.08647e+06 0 -2.54044e+06 5.10262e+06 0 -2.49851e+06 5.11775e+06 0 -2.45688e+06 5.13188e+06 0 -2.41559e+06 5.14501e+06 0 -2.37465e+06 5.15714e+06 0 -2.3341e+06 5.16829e+06 0 -2.29397e+06 5.17845e+06 0 -2.25428e+06 5.18764e+06 0 -2.21507e+06 5.19586e+06 0 -2.17636e+06 5.20314e+06 0 -2.13819e+06 5.20947e+06 0 -2.10058e+06 5.21487e+06 0 -2.06357e+06 5.21937e+06 0 -2.02718e+06 5.22297e+06 0 -1.99145e+06 5.22569e+06 0 -1.95641e+06 5.22757e+06 0 -1.92208e+06 5.22861e+06 0 -1.8885e+06 5.22885e+06 0 -1.85569e+06 5.22831e+06 0 -1.82369e+06 5.22702e+06 0 -1.79251e+06 5.225e+06 0 -1.76218e+06 5.2223e+06 0 -1.73273e+06 5.21895e+06 0 -1.70418e+06 5.21499e+06 0 -1.67655e+06 5.21044e+06 0 -1.64987e+06 5.20536e+06 0 -1.62413e+06 5.19979e+06 0 -1.59937e+06 5.19377e+06 0 -1.5756e+06 5.18734e+06 0 -1.55282e+06 5.18057e+06 0 -1.53103e+06 5.17349e+06 0 -1.51025e+06 5.16615e+06 0 -1.49047e+06 5.15862e+06 0 -1.47169e+06 5.15095e+06 0 -1.45389e+06 5.14318e+06 0 -1.43706e+06 5.13538e+06 0 -1.42119e+06 5.1276e+06 0 -1.40624e+06 5.11989e+06 0 -1.39219e+06 5.1123e+06 0 -1.379e+06 5.10489e+06 0 -1.36663e+06 5.09769e+06 0 -1.35503e+06 5.09076e+06 0 -1.34415e+06 5.08412e+06 0 -1.33393e+06 5.07781e+06 0 -1.32432e+06 5.07185e+06 0 -1.31525e+06 5.06625e+06 0 -1.30666e+06 5.06102e+06 0 -1.2985e+06 5.05615e+06 0 -1.29072e+06 5.05165e+06 0 -1.28325e+06 5.04749e+06 0 -1.27606e+06 5.04366e+06 0 -1.26908e+06 5.04012e+06 0 -4.07873e+06 1.04923e+06 0 -4.11294e+06 1.10367e+06 0 -4.14667e+06 1.16004e+06 0 -4.17976e+06 1.2184e+06 0 -4.212e+06 1.27879e+06 0 -4.24317e+06 1.3412e+06 0 -4.27306e+06 1.40561e+06 0 -4.30148e+06 1.47196e+06 0 -4.3282e+06 1.54018e+06 0 -4.35305e+06 1.61015e+06 0 -4.37585e+06 1.68177e+06 0 -4.39644e+06 1.75487e+06 0 -4.41469e+06 1.82929e+06 0 -4.43047e+06 1.90487e+06 0 -4.44369e+06 1.9814e+06 0 -4.45428e+06 2.05871e+06 0 -4.4622e+06 2.13658e+06 0 -4.46742e+06 2.21483e+06 0 -4.46995e+06 2.29326e+06 0 -4.4698e+06 2.37169e+06 0 -4.46701e+06 2.44992e+06 0 -4.46165e+06 2.5278e+06 0 -4.45377e+06 2.60517e+06 0 -4.44347e+06 2.68188e+06 0 -4.43083e+06 2.75781e+06 0 -4.41597e+06 2.83284e+06 0 -4.39897e+06 2.90686e+06 0 -4.37997e+06 2.97979e+06 0 -4.35906e+06 3.05155e+06 0 -4.33636e+06 3.12208e+06 0 -4.31198e+06 3.19134e+06 0 -4.28604e+06 3.25928e+06 0 -4.25863e+06 3.32587e+06 0 -4.22987e+06 3.39109e+06 0 -4.19985e+06 3.45493e+06 0 -4.16866e+06 3.51737e+06 0 -4.1364e+06 3.57843e+06 0 -4.10314e+06 3.63811e+06 0 -4.06897e+06 3.69641e+06 0 -4.03396e+06 3.75334e+06 0 -3.99818e+06 3.80893e+06 0 -3.96168e+06 3.86318e+06 0 -3.92454e+06 3.91612e+06 0 -3.88679e+06 3.96776e+06 0 -3.84851e+06 4.01812e+06 0 -3.80972e+06 4.06723e+06 0 -3.77047e+06 4.1151e+06 0 -3.73081e+06 4.16176e+06 0 -3.69076e+06 4.20722e+06 0 -3.65037e+06 4.2515e+06 0 -3.60966e+06 4.29462e+06 0 -3.56866e+06 4.33659e+06 0 -3.5274e+06 4.37744e+06 0 -3.48591e+06 4.41717e+06 0 -3.44421e+06 4.4558e+06 0 -3.40232e+06 4.49334e+06 0 -3.36027e+06 4.5298e+06 0 -3.31807e+06 4.56519e+06 0 -3.27574e+06 4.59952e+06 0 -3.23332e+06 4.6328e+06 0 -3.19081e+06 4.66503e+06 0 -3.14823e+06 4.69623e+06 0 -3.10561e+06 4.72639e+06 0 -3.06297e+06 4.75552e+06 0 -3.02032e+06 4.78363e+06 0 -2.97768e+06 4.81072e+06 0 -2.93508e+06 4.83678e+06 0 -2.89253e+06 4.86183e+06 0 -2.85006e+06 4.88587e+06 0 -2.80769e+06 4.90889e+06 0 -2.76543e+06 4.9309e+06 0 -2.72332e+06 4.95191e+06 0 -2.68138e+06 4.97191e+06 0 -2.63963e+06 4.99091e+06 0 -2.59808e+06 5.00891e+06 0 -2.55678e+06 5.02591e+06 0 -2.51575e+06 5.04192e+06 0 -2.475e+06 5.05695e+06 0 -2.43457e+06 5.07099e+06 0 -2.39449e+06 5.08406e+06 0 -2.35478e+06 5.09616e+06 0 -2.31547e+06 5.1073e+06 0 -2.27658e+06 5.1175e+06 0 -2.23816e+06 5.12675e+06 0 -2.20021e+06 5.13508e+06 0 -2.16279e+06 5.1425e+06 0 -2.1259e+06 5.14902e+06 0 -2.08959e+06 5.15466e+06 0 -2.05387e+06 5.15943e+06 0 -2.01878e+06 5.16336e+06 0 -1.98435e+06 5.16647e+06 0 -1.9506e+06 5.16878e+06 0 -1.91756e+06 5.17032e+06 0 -1.88525e+06 5.1711e+06 0 -1.8537e+06 5.17117e+06 0 -1.82293e+06 5.17054e+06 0 -1.79297e+06 5.16926e+06 0 -1.76383e+06 5.16735e+06 0 -1.73554e+06 5.16485e+06 0 -1.70811e+06 5.1618e+06 0 -1.68156e+06 5.15822e+06 0 -1.65591e+06 5.15418e+06 0 -1.63115e+06 5.1497e+06 0 -1.60731e+06 5.14482e+06 0 -1.58439e+06 5.1396e+06 0 -1.56239e+06 5.13408e+06 0 -1.54131e+06 5.12829e+06 0 -1.52115e+06 5.1223e+06 0 -1.50191e+06 5.11614e+06 0 -1.48357e+06 5.10987e+06 0 -1.46611e+06 5.10352e+06 0 -1.44953e+06 5.09715e+06 0 -1.43379e+06 5.0908e+06 0 -1.41888e+06 5.08451e+06 0 -1.40475e+06 5.07833e+06 0 -1.39138e+06 5.07228e+06 0 -1.37873e+06 5.06641e+06 0 -1.36675e+06 5.06074e+06 0 -1.3554e+06 5.0553e+06 0 -1.34464e+06 5.0501e+06 0 -1.33443e+06 5.04517e+06 0 -1.3247e+06 5.04051e+06 0 -1.31542e+06 5.03613e+06 0 -1.30654e+06 5.03201e+06 0 -1.29803e+06 5.02817e+06 0 -1.28984e+06 5.02458e+06 0 -1.28193e+06 5.02123e+06 0 -1.27429e+06 5.01811e+06 0 -3.97946e+06 1.15182e+06 0 -4.00949e+06 1.20231e+06 0 -4.03923e+06 1.25442e+06 0 -4.06853e+06 1.3082e+06 0 -4.09722e+06 1.3637e+06 0 -4.12513e+06 1.42094e+06 0 -4.15209e+06 1.47992e+06 0 -4.17792e+06 1.54062e+06 0 -4.20244e+06 1.60301e+06 0 -4.22548e+06 1.66703e+06 0 -4.24689e+06 1.7326e+06 0 -4.2665e+06 1.79963e+06 0 -4.28419e+06 1.86798e+06 0 -4.29983e+06 1.93754e+06 0 -4.3133e+06 2.00816e+06 0 -4.32452e+06 2.07969e+06 0 -4.33343e+06 2.15196e+06 0 -4.33996e+06 2.22481e+06 0 -4.3441e+06 2.29807e+06 0 -4.34582e+06 2.37157e+06 0 -4.34513e+06 2.44515e+06 0 -4.34206e+06 2.51865e+06 0 -4.33664e+06 2.59192e+06 0 -4.32893e+06 2.66482e+06 0 -4.31898e+06 2.73721e+06 0 -4.30688e+06 2.80898e+06 0 -4.29269e+06 2.88e+06 0 -4.27652e+06 2.9502e+06 0 -4.25844e+06 3.01947e+06 0 -4.23856e+06 3.08774e+06 0 -4.21697e+06 3.15494e+06 0 -4.19377e+06 3.22103e+06 0 -4.16906e+06 3.28596e+06 0 -4.14292e+06 3.34969e+06 0 -4.11545e+06 3.41219e+06 0 -4.08675e+06 3.47344e+06 0 -4.05688e+06 3.53343e+06 0 -4.02594e+06 3.59215e+06 0 -3.99401e+06 3.6496e+06 0 -3.96115e+06 3.70578e+06 0 -3.92744e+06 3.76068e+06 0 -3.89294e+06 3.81433e+06 0 -3.85771e+06 3.86672e+06 0 -3.82181e+06 3.91787e+06 0 -3.78529e+06 3.96779e+06 0 -3.74821e+06 4.01649e+06 0 -3.7106e+06 4.06399e+06 0 -3.67251e+06 4.1103e+06 0 -3.63398e+06 4.15545e+06 0 -3.59505e+06 4.19943e+06 0 -3.55575e+06 4.24226e+06 0 -3.51612e+06 4.28397e+06 0 -3.47619e+06 4.32455e+06 0 -3.43598e+06 4.36403e+06 0 -3.39553e+06 4.40241e+06 0 -3.35485e+06 4.43971e+06 0 -3.31399e+06 4.47593e+06 0 -3.27295e+06 4.51109e+06 0 -3.23177e+06 4.54518e+06 0 -3.19046e+06 4.57823e+06 0 -3.14906e+06 4.61023e+06 0 -3.10758e+06 4.6412e+06 0 -3.06604e+06 4.67113e+06 0 -3.02446e+06 4.70003e+06 0 -2.98288e+06 4.72791e+06 0 -2.94131e+06 4.75477e+06 0 -2.89976e+06 4.78062e+06 0 -2.85828e+06 4.80545e+06 0 -2.81687e+06 4.82928e+06 0 -2.77556e+06 4.8521e+06 0 -2.73438e+06 4.87392e+06 0 -2.69335e+06 4.89474e+06 0 -2.65249e+06 4.91457e+06 0 -2.61182e+06 4.93342e+06 0 -2.57138e+06 4.95128e+06 0 -2.53119e+06 4.96816e+06 0 -2.49128e+06 4.98407e+06 0 -2.45166e+06 4.99901e+06 0 -2.41237e+06 5.01299e+06 0 -2.37344e+06 5.02603e+06 0 -2.33489e+06 5.03813e+06 0 -2.29674e+06 5.0493e+06 0 -2.25904e+06 5.05955e+06 0 -2.22179e+06 5.0689e+06 0 -2.18504e+06 5.07736e+06 0 -2.14881e+06 5.08494e+06 0 -2.11312e+06 5.09167e+06 0 -2.078e+06 5.09756e+06 0 -2.04348e+06 5.10263e+06 0 -2.00959e+06 5.1069e+06 0 -1.97634e+06 5.1104e+06 0 -1.94377e+06 5.11315e+06 0 -1.91189e+06 5.11517e+06 0 -1.88074e+06 5.1165e+06 0 -1.85032e+06 5.11715e+06 0 -1.82066e+06 5.11717e+06 0 -1.79178e+06 5.11658e+06 0 -1.7637e+06 5.11542e+06 0 -1.73643e+06 5.11372e+06 0 -1.70998e+06 5.11152e+06 0 -1.68437e+06 5.10885e+06 0 -1.65961e+06 5.10575e+06 0 -1.63569e+06 5.10227e+06 0 -1.61263e+06 5.09844e+06 0 -1.59043e+06 5.09429e+06 0 -1.56909e+06 5.08989e+06 0 -1.5486e+06 5.08526e+06 0 -1.52896e+06 5.08044e+06 0 -1.51015e+06 5.07548e+06 0 -1.49216e+06 5.07042e+06 0 -1.47498e+06 5.0653e+06 0 -1.45859e+06 5.06015e+06 0 -1.44295e+06 5.05502e+06 0 -1.42806e+06 5.04993e+06 0 -1.41387e+06 5.04492e+06 0 -1.40036e+06 5.04001e+06 0 -1.38749e+06 5.03524e+06 0 -1.37522e+06 5.03062e+06 0 -1.36353e+06 5.02618e+06 0 -1.35236e+06 5.02192e+06 0 -1.3417e+06 5.01786e+06 0 -1.33148e+06 5.01401e+06 0 -1.32169e+06 5.01036e+06 0 -1.31228e+06 5.00691e+06 0 -1.30323e+06 5.00366e+06 0 -1.29449e+06 5.00061e+06 0 -1.28605e+06 4.99775e+06 0 -1.27788e+06 4.99506e+06 0 -3.8867e+06 1.24061e+06 0 -3.91359e+06 1.28773e+06 0 -3.94028e+06 1.33623e+06 0 -3.96665e+06 1.38617e+06 0 -3.99257e+06 1.43761e+06 0 -4.01791e+06 1.49058e+06 0 -4.0425e+06 1.5451e+06 0 -4.0662e+06 1.60118e+06 0 -4.08886e+06 1.65879e+06 0 -4.11033e+06 1.71791e+06 0 -4.13046e+06 1.7785e+06 0 -4.14911e+06 1.84047e+06 0 -4.16615e+06 1.90376e+06 0 -4.18145e+06 1.96826e+06 0 -4.19491e+06 2.03386e+06 0 -4.20642e+06 2.10044e+06 0 -4.2159e+06 2.16787e+06 0 -4.22329e+06 2.236e+06 0 -4.22853e+06 2.3047e+06 0 -4.2316e+06 2.37382e+06 0 -4.23248e+06 2.44321e+06 0 -4.23116e+06 2.51273e+06 0 -4.22765e+06 2.58223e+06 0 -4.22199e+06 2.65157e+06 0 -4.21421e+06 2.72064e+06 0 -4.20436e+06 2.7893e+06 0 -4.1925e+06 2.85744e+06 0 -4.1787e+06 2.92497e+06 0 -4.16302e+06 2.99178e+06 0 -4.14556e+06 3.05779e+06 0 -4.12638e+06 3.12293e+06 0 -4.10557e+06 3.18713e+06 0 -4.08322e+06 3.25034e+06 0 -4.05941e+06 3.31251e+06 0 -4.03422e+06 3.37359e+06 0 -4.00775e+06 3.43356e+06 0 -3.98006e+06 3.49239e+06 0 -3.95123e+06 3.55007e+06 0 -3.92135e+06 3.60657e+06 0 -3.89048e+06 3.66189e+06 0 -3.85869e+06 3.71602e+06 0 -3.82605e+06 3.76896e+06 0 -3.79261e+06 3.82072e+06 0 -3.75844e+06 3.87129e+06 0 -3.72359e+06 3.92068e+06 0 -3.68812e+06 3.9689e+06 0 -3.65206e+06 4.01595e+06 0 -3.61548e+06 4.06185e+06 0 -3.5784e+06 4.10661e+06 0 -3.54088e+06 4.15023e+06 0 -3.50294e+06 4.19273e+06 0 -3.46463e+06 4.23411e+06 0 -3.42597e+06 4.27439e+06 0 -3.38701e+06 4.31358e+06 0 -3.34777e+06 4.35168e+06 0 -3.30828e+06 4.3887e+06 0 -3.26857e+06 4.42466e+06 0 -3.22867e+06 4.45955e+06 0 -3.1886e+06 4.49339e+06 0 -3.14839e+06 4.52619e+06 0 -3.10806e+06 4.55794e+06 0 -3.06764e+06 4.58866e+06 0 -3.02716e+06 4.61836e+06 0 -2.98663e+06 4.64703e+06 0 -2.94609e+06 4.67468e+06 0 -2.90555e+06 4.70132e+06 0 -2.86504e+06 4.72695e+06 0 -2.82459e+06 4.75158e+06 0 -2.78421e+06 4.77521e+06 0 -2.74394e+06 4.79784e+06 0 -2.70379e+06 4.81949e+06 0 -2.6638e+06 4.84014e+06 0 -2.62398e+06 4.85982e+06 0 -2.58437e+06 4.87853e+06 0 -2.54499e+06 4.89627e+06 0 -2.50586e+06 4.91305e+06 0 -2.46701e+06 4.92888e+06 0 -2.42848e+06 4.94376e+06 0 -2.39027e+06 4.95771e+06 0 -2.35243e+06 4.97074e+06 0 -2.31497e+06 4.98286e+06 0 -2.27793e+06 4.99408e+06 0 -2.24133e+06 5.00441e+06 0 -2.2052e+06 5.01387e+06 0 -2.16956e+06 5.02248e+06 0 -2.13444e+06 5.03025e+06 0 -2.09986e+06 5.0372e+06 0 -2.06586e+06 5.04335e+06 0 -2.03244e+06 5.04872e+06 0 -1.99964e+06 5.05334e+06 0 -1.96749e+06 5.05722e+06 0 -1.93599e+06 5.0604e+06 0 -1.90517e+06 5.0629e+06 0 -1.87506e+06 5.06474e+