<?xml version="1.0"?> 
<VTKFile type="StructuredGrid" version="0.1"> 
<StructuredGrid WholeExtent="0 127 0 127 0 0"> 
<Piece Extent="0 127 0 127 0 0"> 
<PointData>
<DataArray type="Float32" Name="E" format="ascii" NumberOfComponents="3"> 
1.68329e+06 -671424 0 1.70732e+06 -630392 0 1.74544e+06 -582785 0 1.78154e+06 -536825 0 1.81629e+06 -490705 0 1.84802e+06 -444609 0 1.87638e+06 -398485 0 1.90091e+06 -352522 0 1.9214e+06 -306956 0 1.93774e+06 -262080 0 1.94995e+06 -218201 0 1.95812e+06 -175619 0 1.96244e+06 -134605 0 1.96316e+06 -95388.7 0 1.96053e+06 -58153.4 0 1.95485e+06 -23030.5 0 1.94644e+06 9895.78 0 1.93557e+06 40585.1 0 1.92254e+06 69034.8 0 1.90762e+06 95273.5 0 1.89106e+06 119355 0 1.87309e+06 141352 0 1.85391e+06 161351 0 1.83371e+06 179449 0 1.81266e+06 195749 0 1.79091e+06 210356 0 1.76857e+06 223376 0 1.74578e+06 234914 0 1.72263e+06 245072 0 1.69921e+06 253950 0 1.6756e+06 261642 0 1.65187e+06 268239 0 1.62807e+06 273825 0 1.60426e+06 278481 0 1.58048e+06 282282 0 1.55678e+06 285298 0 1.53319e+06 287596 0 1.50974e+06 289237 0 1.48646e+06 290276 0 1.46337e+06 290768 0 1.44049e+06 290759 0 1.41784e+06 290296 0 1.39544e+06 289420 0 1.37329e+06 288169 0 1.35142e+06 286578 0 1.32982e+06 284681 0 1.30851e+06 282506 0 1.2875e+06 280081 0 1.26679e+06 277432 0 1.24639e+06 274582 0 1.2263e+06 271552 0 1.20652e+06 268362 0 1.18706e+06 265030 0 1.16792e+06 261571 0 1.14911e+06 258002 0 1.13062e+06 254335 0 1.11245e+06 250585 0 1.0946e+06 246761 0 1.07708e+06 242875 0 1.05988e+06 238936 0 1.043e+06 234953 0 1.02645e+06 230934 0 1.01021e+06 226886 0 994296 222816 0 978696 218730 0 963411 214634 0 948439 210532 0 933777 206428 0 919424 202327 0 905377 198233 0 891634 194149 0 878193 190077 0 865050 186020 0 852203 181981 0 839650 177962 0 827387 173964 0 815412 169989 0 803723 166039 0 792317 162114 0 781191 158215 0 770342 154344 0 759767 150502 0 749464 146688 0 739431 142903 0 729664 139147 0 720161 135421 0 710919 131725 0 701936 128059 0 693210 124423 0 684737 120816 0 676516 117238 0 668544 113690 0 660818 110171 0 653337 106679 0 646098 103216 0 639099 99780.6 0 632338 96371.8 0 625813 92989.4 0 619521 89632.7 0 613461 86301.2 0 607631 82994.2 0 602030 79710.9 0 596654 76450.7 0 591504 73212.8 0 586576 69996.4 0 581870 66800.8 0 577383 63625.1 0 573115 60468.6 0 569064 57330.3 0 565229 54209.5 0 561608 51105.3 0 558200 48016.9 0 555005 44943.2 0 552020 41883.6 0 549246 38836.9 0 546681 35802.5 0 544324 32779.3 0 542174 29766.4 0 540232 26762.8 0 538496 23767.8 0 536965 20780.3 0 535639 17799.4 0 534518 14824.2 0 533601 11853.7 0 532888 8886.95 0 532378 5923.06 0 532072 2961.06 0 531970 0 0 1.68702e+06 -672911 0 1.71379e+06 -631786 0 1.75142e+06 -584691 0 1.78757e+06 -538577 0 1.82218e+06 -492242 0 1.8538e+06 -445838 0 1.882e+06 -399366 0 1.90635e+06 -353032 0 1.92662e+06 -307089 0 1.94272e+06 -261842 0 1.95465e+06 -217610 0 1.96253e+06 -174699 0 1.96655e+06 -133385 0 1.96695e+06 -93902.7 0 1.964e+06 -56433.5 0 1.95801e+06 -21109.4 0 1.94928e+06 11987.3 0 1.93811e+06 42818.2 0 1.92479e+06 71383.5 0 1.9096e+06 97714.6 0 1.89278e+06 121868 0 1.87456e+06 143919 0 1.85516e+06 163957 0 1.83475e+06 182082 0 1.81351e+06 198396 0 1.79157e+06 213009 0 1.76908e+06 226026 0 1.74614e+06 237556 0 1.72285e+06 247700 0 1.69931e+06 256559 0 1.67559e+06 264229 0 1.65175e+06 270800 0 1.62787e+06 276358 0 1.60397e+06 280985 0 1.58013e+06 284754 0 1.55636e+06 287739 0 1.53272e+06 290003 0 1.50922e+06 291610 0 1.48589e+06 292615 0 1.46276e+06 293071 0 1.43985e+06 293027 0 1.41717e+06 292529 0 1.39474e+06 291617 0 1.37257e+06 290330 0 1.35067e+06 288704 0 1.32906e+06 286770 0 1.30774e+06 284560 0 1.28672e+06 282101 0 1.266e+06 279417 0 1.2456e+06 276532 0 1.2255e+06 273467 0 1.20572e+06 270243 0 1.18627e+06 266876 0 1.16713e+06 263384 0 1.14832e+06 259781 0 1.12983e+06 256081 0 1.11167e+06 252298 0 1.09383e+06 248441 0 1.07631e+06 244523 0 1.05912e+06 240552 0 1.04225e+06 236537 0 1.0257e+06 232486 0 1.00948e+06 228408 0 993571 224307 0 977981 220190 0 962706 216064 0 947744 211932 0 933093 207799 0 918751 203669 0 904715 199545 0 890983 195432 0 877552 191332 0 864420 187247 0 851584 183180 0 839042 179133 0 826790 175108 0 814826 171106 0 803148 167129 0 791752 163178 0 780636 159253 0 769797 155356 0 759233 151488 0 748940 147649 0 738917 143838 0 729159 140058 0 719666 136308 0 710433 132587 0 701460 128897 0 692742 125236 0 684278 121606 0 676065 118005 0 668101 114433 0 660384 110891 0 652910 107377 0 645679 103891 0 638687 100433 0 631933 97001.5 0 625415 93597 0 619130 90218.4 0 613077 86865.2 0 607253 83536.5 0 601657 80231.8 0 596288 76950.3 0 591143 73691.2 0 586220 70453.8 0 581519 67237.3 0 577037 64040.9 0 572774 60863.8 0 568727 57705 0 564896 54563.9 0 561279 51439.4 0 557875 48330.7 0 554683 45237 0 551702 42157.4 0 548930 39090.9 0 546368 36036.6 0 544014 32993.6 0 541867 29961 0 539926 26937.8 0 538192 23923.2 0 536663 20916.2 0 535338 17915.8 0 534218 14921.1 0 533302 11931.2 0 532590 8945.07 0 532081 5961.8 0 531776 2980.42 0 531673 0 0 1.69112e+06 -674548 0 1.7201e+06 -633290 0 1.75743e+06 -586579 0 1.79361e+06 -540317 0 1.8281e+06 -493757 0 1.8596e+06 -447041 0 1.88766e+06 -400218 0 1.91182e+06 -353509 0 1.93188e+06 -307185 0 1.94773e+06 -261565 0 1.95939e+06 -216978 0 1.96697e+06 -173737 0 1.97068e+06 -132124 0 1.97075e+06 -92375.1 0 1.96748e+06 -54673.3 0 1.96117e+06 -19149.5 0 1.95212e+06 14115.6 0 1.94065e+06 45086.1 0 1.92704e+06 73764.8 0 1.91157e+06 100186 0 1.89449e+06 124409 0 1.87604e+06 146512 0 1.8564e+06 166587 0 1.83579e+06 184736 0 1.81435e+06 201063 0 1.79224e+06 215679 0 1.76958e+06 228693 0 1.74649e+06 240212 0 1.72307e+06 250341 0 1.69941e+06 259180 0 1.67557e+06 266826 0 1.65164e+06 273371 0 1.62766e+06 278900 0 1.60369e+06 283496 0 1.57977e+06 287234 0 1.55594e+06 290185 0 1.53223e+06 292416 0 1.50868e+06 293987 0 1.48531e+06 294957 0 1.46214e+06 295377 0 1.43919e+06 295298 0 1.41649e+06 294763 0 1.39403e+06 293815 0 1.37184e+06 292493 0 1.34993e+06 290830 0 1.3283e+06 288861 0 1.30697e+06 286616 0 1.28594e+06 284120 0 1.26521e+06 281401 0 1.2448e+06 278481 0 1.2247e+06 275382 0 1.20493e+06 272123 0 1.18547e+06 268722 0 1.16633e+06 265196 0 1.14753e+06 261560 0 1.12904e+06 257827 0 1.11088e+06 254010 0 1.09305e+06 250121 0 1.07554e+06 246170 0 1.05836e+06 242167 0 1.0415e+06 238120 0 1.02496e+06 234038 0 1.00874e+06 229928 0 992843 225797 0 977263 221650 0 961998 217493 0 947047 213330 0 932406 209168 0 918075 205009 0 904050 200856 0 890329 196714 0 876909 192586 0 863788 188473 0 850963 184378 0 838431 180304 0 826190 176251 0 814237 172222 0 802570 168218 0 791185 164241 0 780079 160290 0 769251 156367 0 758696 152473 0 748414 148608 0 738400 144773 0 728652 140968 0 719168 137193 0 709945 133448 0 700980 129734 0 692272 126049 0 683816 122395 0 675612 118771 0 667656 115176 0 659947 111610 0 652481 108073 0 645257 104565 0 638273 101084 0 631526 97630.6 0 625015 94204 0 618737 90803.5 0 612690 87428.4 0 606872 84078.2 0 601283 80752.1 0 595919 77449.3 0 590779 74169.1 0 585862 70910.7 0 581166 67673.4 0 576689 64456.3 0 572430 61258.5 0 568388 58079.3 0 564561 54917.8 0 560948 51773.1 0 557548 48644.3 0 554359 45530.5 0 551381 42430.9 0 548613 39344.5 0 546053 36270.4 0 543702 33207.7 0 541557 30155.4 0 539619 27112.6 0 537886 24078.5 0 536359 21051.9 0 535036 18032.1 0 533917 15018 0 533002 12008.6 0 532291 9003.12 0 531782 6000.49 0 531477 2999.77 0 531375 0 0 1.69553e+06 -676307 0 1.72631e+06 -634885 0 1.76346e+06 -588457 0 1.79966e+06 -542046 0 1.83404e+06 -495251 0 1.86544e+06 -448218 0 1.89334e+06 -401039 0 1.91732e+06 -353951 0 1.93716e+06 -307244 0 1.95276e+06 -261248 0 1.96414e+06 -216304 0 1.97143e+06 -172733 0 1.97482e+06 -130821 0 1.97457e+06 -90805.8 0 1.97097e+06 -52872.5 0 1.96434e+06 -17150.6 0 1.95497e+06 16280.9 0 1.9432e+06 47388.8 0 1.9293e+06 76178.6 0 1.91355e+06 102688 0 1.89621e+06 126978 0 1.8775e+06 149131 0 1.85765e+06 169241 0 1.83682e+06 187411 0 1.81519e+06 203750 0 1.7929e+06 218368 0 1.77008e+06 231376 0 1.74684e+06 242883 0 1.72328e+06 252994 0 1.69949e+06 261812 0 1.67555e+06 269434 0 1.65151e+06 275951 0 1.62744e+06 281451 0 1.60339e+06 286015 0 1.5794e+06 289720 0 1.55551e+06 292637 0 1.53174e+06 294833 0 1.50814e+06 296369 0 1.48473e+06 297303 0 1.46152e+06 297687 0 1.43854e+06 297571 0 1.4158e+06 297000 0 1.39332e+06 296016 0 1.37111e+06 294657 0 1.34918e+06 292959 0 1.32754e+06 290953 0 1.30619e+06 288672 0 1.28515e+06 286141 0 1.26442e+06 283386 0 1.244e+06 280431 0 1.2239e+06 277297 0 1.20412e+06 274003 0 1.18467e+06 270568 0 1.16553e+06 267008 0 1.14673e+06 263338 0 1.12825e+06 259571 0 1.11009e+06 255721 0 1.09227e+06 251799 0 1.07477e+06 247816 0 1.05759e+06 243781 0 1.04074e+06 239702 0 1.02421e+06 235589 0 1.008e+06 231447 0 992112 227285 0 976542 223107 0 961287 218920 0 946346 214728 0 931716 210536 0 917396 206347 0 903382 202166 0 889671 197995 0 876263 193838 0 863152 189697 0 850339 185575 0 837818 181473 0 825588 177393 0 813646 173337 0 801989 169307 0 790614 165302 0 779519 161326 0 768701 157377 0 758157 153457 0 747884 149567 0 737881 145707 0 728143 141877 0 718668 138077 0 709454 134308 0 700499 130569 0 691799 126861 0 683352 123183 0 675156 119535 0 667209 115917 0 659508 112328 0 652050 108769 0 644834 105238 0 637857 101734 0 631117 98258.9 0 624612 94810.2 0 618341 91387.8 0 612301 87991.1 0 606490 84619.3 0 600906 81271.7 0 595548 77947.7 0 590414 74646.4 0 585502 71367.1 0 580811 68108.9 0 576339 64871.1 0 572085 61652.8 0 568047 58453.2 0 564224 55271.3 0 560615 52106.4 0 557218 48957.4 0 554033 45823.6 0 551059 42704.1 0 548293 39597.8 0 545737 36503.9 0 543387 33421.5 0 541245 30349.6 0 539309 27287.2 0 537578 24233.5 0 536052 21187.5 0 534731 18148.2 0 533614 15114.7 0 532700 12086 0 531989 9061.1 0 531481 6039.13 0 531176 3019.09 0 531074 0 0 1.70019e+06 -678165 0 1.73244e+06 -636558 0 1.76951e+06 -590326 0 1.80573e+06 -543764 0 1.84002e+06 -496725 0 1.87131e+06 -449370 0 1.89906e+06 -401830 0 1.92286e+06 -354359 0 1.94248e+06 -307264 0 1.95783e+06 -260891 0 1.96893e+06 -215589 0 1.97591e+06 -171686 0 1.97898e+06 -129474 0 1.9784e+06 -89194.4 0 1.97448e+06 -51030.8 0 1.96751e+06 -15112.5 0 1.95783e+06 18483.5 0 1.94575e+06 49726.6 0 1.93155e+06 78625.2 0 1.91552e+06 105220 0 1.89792e+06 129575 0 1.87897e+06 151776 0 1.85888e+06 171918 0 1.83784e+06 190108 0 1.81602e+06 206456 0 1.79355e+06 221074 0 1.77057e+06 234075 0 1.74718e+06 245568 0 1.72349e+06 255661 0 1.69958e+06 264457 0 1.67552e+06 272052 0 1.65139e+06 278541 0 1.62723e+06 284010 0 1.60309e+06 288542 0 1.57903e+06 292213 0 1.55507e+06 295095 0 1.53125e+06 297255 0 1.5076e+06 298756 0 1.48414e+06 299653 0 1.46089e+06 300001 0 1.43788e+06 299848 0 1.41511e+06 299240 0 1.3926e+06 298219 0 1.37037e+06 296823 0 1.34842e+06 295088 0 1.32677e+06 293047 0 1.30541e+06 290729 0 1.28436e+06 288162 0 1.26362e+06 285371 0 1.2432e+06 282381 0 1.2231e+06 279212 0 1.20332e+06 275883 0 1.18386e+06 272414 0 1.16473e+06 268819 0 1.14593e+06 265115 0 1.12745e+06 261315 0 1.1093e+06 257432 0 1.09148e+06 253477 0 1.07399e+06 249461 0 1.05682e+06 245394 0 1.03998e+06 241283 0 1.02346e+06 237138 0 1.00726e+06 232966 0 991378 228772 0 975818 224564 0 960573 220347 0 945643 216125 0 931024 211903 0 916714 207685 0 902710 203474 0 889011 199275 0 875613 195090 0 862514 190921 0 849711 186770 0 837202 182641 0 824983 178534 0 813052 174451 0 801405 170394 0 790041 166363 0 778957 162360 0 768149 158386 0 757615 154440 0 747353 150525 0 737359 146640 0 727630 142785 0 718165 138960 0 708961 135167 0 700015 131404 0 691324 127672 0 682886 123970 0 674698 120299 0 666759 116658 0 659066 113046 0 651616 109464 0 644408 105910 0 637438 102384 0 630706 98886.5 0 624208 95415.7 0 617943 91971.5 0 611909 88553.1 0 606104 85159.7 0 600527 81790.8 0 595175 78445.6 0 590046 75123.2 0 585140 71823 0 580454 68544 0 575986 65285.5 0 571737 62046.7 0 567703 58826.6 0 563885 55624.4 0 560280 52439.3 0 556887 49270.2 0 553705 46116.4 0 550734 42976.9 0 547972 39850.8 0 545418 36737.2 0 543071 33635.1 0 540931 30543.5 0 538997 27461.6 0 537268 24388.4 0 535744 21322.9 0 534424 18264.2 0 533308 15211.3 0 532395 12163.2 0 531685 9119.02 0 531178 6077.73 0 530874 3038.38 0 530772 0 0 1.70505e+06 -680103 0 1.73852e+06 -638298 0 1.77559e+06 -592192 0 1.81181e+06 -545470 0 1.84602e+06 -498178 0 1.87721e+06 -450496 0 1.90482e+06 -402590 0 1.92843e+06 -354732 0 1.94783e+06 -307247 0 1.96292e+06 -260493 0 1.97373e+06 -214831 0 1.98041e+06 -170596 0 1.98316e+06 -128085 0 1.98225e+06 -87540.5 0 1.97799e+06 -49147.9 0 1.9707e+06 -13035 0 1.96069e+06 20723.5 0 1.9483e+06 52099.5 0 1.9338e+06 81104.7 0 1.9175e+06 107782 0 1.89963e+06 132201 0 1.88043e+06 154447 0 1.86012e+06 174619 0 1.83887e+06 192827 0 1.81684e+06 209182 0 1.7942e+06 223798 0 1.77105e+06 236790 0 1.74751e+06 248268 0 1.72369e+06 258341 0 1.69965e+06 267113 0 1.67549e+06 274681 0 1.65125e+06 281140 0 1.627e+06 286577 0 1.60279e+06 291076 0 1.57865e+06 294712 0 1.55463e+06 297559 0 1.53075e+06 299683 0 1.50705e+06 301146 0 1.48354e+06 302007 0 1.46026e+06 302317 0 1.43721e+06 302127 0 1.41441e+06 301482 0 1.39188e+06 300424 0 1.36963e+06 298991 0 1.34766e+06 297219 0 1.32599e+06 295141 0 1.30462e+06 292786 0 1.28357e+06 290183 0 1.26282e+06 287357 0 1.24239e+06 284331 0 1.22229e+06 281126 0 1.20251e+06 277763 0 1.18305e+06 274259 0 1.16392e+06 270630 0 1.14512e+06 266892 0 1.12665e+06 263058 0 1.10851e+06 259142 0 1.09069e+06 255154 0 1.07321e+06 251105 0 1.05605e+06 247006 0 1.03921e+06 242863 0 1.0227e+06 238687 0 1.00651e+06 234483 0 990641 230259 0 975090 226020 0 959856 221772 0 944936 217520 0 930328 213268 0 916029 209021 0 902036 204782 0 888348 200554 0 874962 196340 0 861874 192143 0 849082 187964 0 836583 183807 0 824375 179673 0 812455 175563 0 800819 171479 0 789466 167422 0 778392 163393 0 767595 159393 0 757071 155422 0 746819 151482 0 736834 147571 0 727116 143691 0 717660 139843 0 708465 136025 0 699528 132238 0 690846 128482 0 682417 124757 0 674238 121062 0 666307 117398 0 658622 113763 0 651180 110158 0 643979 106581 0 637017 103033 0 630292 99513.3 0 623801 96020.6 0 617543 92554.5 0 611516 89114.4 0 605717 85699.6 0 600146 82309.3 0 594799 78942.8 0 589676 75599.4 0 584775 72278.3 0 580094 68978.5 0 575632 65699.4 0 571387 62440.1 0 567358 59199.6 0 563544 55977.1 0 559942 52771.8 0 556553 49582.7 0 553375 46408.9 0 550407 43249.5 0 547648 40103.6 0 545097 36970.2 0 542753 33848.4 0 540615 30737.3 0 538683 27635.8 0 536957 24543.1 0 535434 21458.2 0 534116 18380.1 0 533001 15307.8 0 532089 12240.4 0 531380 9176.87 0 530873 6116.29 0 530569 3057.66 0 530467 0 0 1.71008e+06 -682109 0 1.74457e+06 -640094 0 1.78168e+06 -594055 0 1.81791e+06 -547165 0 1.85205e+06 -499611 0 1.88314e+06 -451597 0 1.9106e+06 -403319 0 1.93403e+06 -355070 0 1.95321e+06 -307191 0 1.96804e+06 -260054 0 1.97857e+06 -214030 0 1.98493e+06 -169462 0 1.98736e+06 -126652 0 1.98611e+06 -85843.8 0 1.98152e+06 -47223.6 0 1.97389e+06 -10917.7 0 1.96356e+06 23001.1 0 1.95085e+06 54507.9 0 1.93606e+06 83617.2 0 1.91947e+06 110376 0 1.90133e+06 134854 0 1.88189e+06 157143 0 1.86134e+06 177344 0 1.83988e+06 195567 0 1.81766e+06 211927 0 1.79484e+06 226540 0 1.77153e+06 239521 0 1.74784e+06 250983 0 1.72388e+06 261034 0 1.69972e+06 269780 0 1.67545e+06 277320 0 1.65111e+06 283748 0 1.62677e+06 289153 0 1.60248e+06 293617 0 1.57827e+06 297218 0 1.55418e+06 300029 0 1.53025e+06 302116 0 1.50649e+06 303542 0 1.48295e+06 304364 0 1.45962e+06 304637 0 1.43654e+06 304409 0 1.41371e+06 303726 0 1.39116e+06 302630 0 1.36888e+06 301160 0 1.3469e+06 299351 0 1.32521e+06 297236 0 1.30383e+06 294845 0 1.28277e+06 292205 0 1.26202e+06 289343 0 1.24158e+06 286281 0 1.22148e+06 283041 0 1.20169e+06 279643 0 1.18224e+06 276103 0 1.16311e+06 272440 0 1.14432e+06 268668 0 1.12585e+06 264801 0 1.10771e+06 260851 0 1.0899e+06 256830 0 1.07242e+06 252749 0 1.05527e+06 248617 0 1.03844e+06 244442 0 1.02194e+06 240234 0 1.00576e+06 235999 0 989900 231744 0 974360 227474 0 959136 223196 0 944227 218914 0 929629 214633 0 915341 210356 0 901360 206088 0 887682 201831 0 874307 197589 0 861230 193363 0 848449 189157 0 835962 184973 0 823764 180811 0 811855 176675 0 800230 172564 0 788888 168481 0 777824 164426 0 767037 160400 0 756524 156403 0 746282 152437 0 736308 148502 0 726599 144597 0 717153 140724 0 707967 136882 0 699039 133071 0 690366 129291 0 681946 125542 0 673775 121824 0 665853 118137 0 658176 114479 0 650742 110851 0 643548 107252 0 636594 103682 0 629876 100139 0 623392 96624.7 0 617141 93136.8 0 611120 89675.1 0 605328 86238.7 0 599762 82827.2 0 594421 79439.5 0 589304 76075.1 0 584408 72733.1 0 579733 69412.6 0 575275 66112.8 0 571035 62833 0 567010 59572.1 0 563200 56329.4 0 559603 53103.9 0 556218 49894.7 0 553043 46701 0 550078 43521.7 0 547322 40356 0 544774 37202.9 0 542433 34061.5 0 540297 30930.8 0 538368 27809.8 0 536643 24697.6 0 535122 21593.3 0 533805 18495.8 0 532691 15404.2 0 531780 12317.4 0 531072 9234.65 0 530566 6154.8 0 530262 3076.91 0 530160 0 0 1.71524e+06 -684171 0 1.7506e+06 -641939 0 1.78778e+06 -595918 0 1.82404e+06 -548849 0 1.85812e+06 -501025 0 1.8891e+06 -452672 0 1.91642e+06 -404018 0 1.93967e+06 -355373 0 1.95862e+06 -307096 0 1.97319e+06 -259574 0 1.98343e+06 -213186 0 1.98948e+06 -168284 0 1.99157e+06 -125175 0 1.98999e+06 -84103.9 0 1.98505e+06 -45257.4 0 1.97709e+06 -8760.49 0 1.96643e+06 25316.6 0 1.9534e+06 56951.7 0 1.93831e+06 86162.7 0 1.92144e+06 112999 0 1.90304e+06 137536 0 1.88334e+06 159865 0 1.86257e+06 180092 0 1.84089e+06 198329 0 1.81848e+06 214692 0 1.79547e+06 229299 0 1.772e+06 242268 0 1.74816e+06 253711 0 1.72407e+06 263740 0 1.69979e+06 272460 0 1.6754e+06 279970 0 1.65096e+06 286366 0 1.62653e+06 291737 0 1.60216e+06 296166 0 1.57788e+06 299731 0 1.55373e+06 302504 0 1.52974e+06 304553 0 1.50594e+06 305941 0 1.48234e+06 306726 0 1.45898e+06 306960 0 1.43586e+06 306694 0 1.41301e+06 305973 0 1.39043e+06 304839 0 1.36813e+06 303331 0 1.34613e+06 301484 0 1.32443e+06 299332 0 1.30304e+06 296904 0 1.28196e+06 294228 0 1.26121e+06 291329 0 1.24077e+06 288231 0 1.22066e+06 284956 0 1.20088e+06 281522 0 1.18142e+06 277948 0 1.1623e+06 274250 0 1.1435e+06 270444 0 1.12504e+06 266543 0 1.10691e+06 262559 0 1.08911e+06 258505 0 1.07163e+06 254391 0 1.05449e+06 250227 0 1.03767e+06 246020 0 1.02118e+06 241780 0 1.00501e+06 237514 0 989157 233228 0 973626 228928 0 958413 224619 0 943514 220307 0 928927 215996 0 914650 211690 0 900680 207393 0 887014 203107 0 873649 198836 0 860583 194583 0 847814 190349 0 835337 186137 0 823151 181949 0 811253 177785 0 799639 173648 0 788307 169538 0 777254 165457 0 766478 161405 0 755975 157383 0 745742 153392 0 735778 149431 0 726079 145502 0 716643 141604 0 707467 137738 0 698548 133903 0 689884 130099 0 681472 126327 0 673310 122585 0 665396 118875 0 657727 115194 0 650301 111543 0 643115 107922 0 636168 104329 0 629457 100765 0 622981 97228.2 0 616736 93718.5 0 610722 90235.1 0 604936 86777.3 0 599376 83344.4 0 594042 79935.7 0 588930 76550.2 0 584040 73187.3 0 579369 69846.1 0 574917 66525.8 0 570681 63225.4 0 566661 59944.2 0 562855 56681.3 0 559262 53435.6 0 555880 50206.5 0 552709 46992.8 0 549747 43793.6 0 546994 40608.2 0 544449 37435.4 0 542110 34274.3 0 539977 31124 0 538050 27983.6 0 536327 24852 0 534808 21728.2 0 533492 18611.4 0 532380 15500.4 0 531470 12394.4 0 530762 9292.37 0 530257 6193.27 0 529953 3096.14 0 529851 0 0 1.72053e+06 -686280 0 1.75662e+06 -643826 0 1.79391e+06 -597781 0 1.83018e+06 -550523 0 1.86421e+06 -502419 0 1.8951e+06 -453721 0 1.92228e+06 -404685 0 1.94534e+06 -355640 0 1.96406e+06 -306962 0 1.97837e+06 -259051 0 1.98831e+06 -212298 0 1.99404e+06 -167062 0 1.9958e+06 -123653 0 1.99388e+06 -82320.5 0 1.98859e+06 -43249.1 0 1.98029e+06 -6563.01 0 1.9693e+06 27670.2 0 1.95596e+06 59431.3 0 1.94056e+06 88741.5 0 1.9234e+06 115654 0 1.90474e+06 140246 0 1.88479e+06 162614 0 1.86379e+06 182864 0 1.8419e+06 201112 0 1.81929e+06 217476 0 1.7961e+06 232076 0 1.77246e+06 245031 0 1.74848e+06 256455 0 1.72425e+06 266459 0 1.69984e+06 275151 0 1.67535e+06 282630 0 1.65081e+06 288993 0 1.62629e+06 294329 0 1.60184e+06 298722 0 1.57748e+06 302249 0 1.55327e+06 304985 0 1.52922e+06 306996 0 1.50537e+06 308345 0 1.48173e+06 309091 0 1.45833e+06 309287 0 1.43518e+06 308982 0 1.4123e+06 308222 0 1.38969e+06 307050 0 1.36738e+06 305504 0 1.34536e+06 303619 0 1.32364e+06 301429 0 1.30224e+06 298964 0 1.28116e+06 296251 0 1.26039e+06 293315 0 1.23995e+06 290181 0 1.21984e+06 286870 0 1.20005e+06 283401 0 1.1806e+06 279792 0 1.16148e+06 276059 0 1.14269e+06 272219 0 1.12423e+06 268284 0 1.1061e+06 264267 0 1.08831e+06 260180 0 1.07084e+06 256033 0 1.05371e+06 251836 0 1.0369e+06 247597 0 1.02041e+06 243326 0 1.00425e+06 239028 0 988410 234710 0 972890 230380 0 957687 226041 0 942799 221699 0 928223 217358 0 913956 213023 0 899997 208696 0 886342 204382 0 872989 200083 0 859934 195801 0 847176 191540 0 834710 187300 0 822535 183085 0 810648 178894 0 799045 174730 0 787724 170594 0 776681 166487 0 765915 162409 0 755423 158362 0 745201 154345 0 735246 150360 0 725557 146406 0 716130 142483 0 706964 138593 0 698054 134734 0 689399 130907 0 680996 127111 0 672843 123346 0 664937 119612 0 657276 115908 0 649858 112235 0 642680 108591 0 635740 104976 0 629037 101390 0 622567 97830.9 0 616329 94299.4 0 610322 90794.5 0 604542 87315.2 0 598989 83861.1 0 593660 80431.2 0 588554 77024.8 0 583669 73641 0 579003 70279.1 0 574556 66938.2 0 570325 63617.5 0 566309 60315.9 0 562507 57032.7 0 558918 53767 0 555540 50517.8 0 552373 47284.2 0 549414 44065.2 0 546665 40860 0 544122 37667.6 0 541786 34486.9 0 539655 31317.1 0 537730 28157.2 0 536009 25006.1 0 534491 21863 0 533177 18726.8 0 532066 15596.6 0 531157 12471.3 0 530450 9350.02 0 529945 6231.69 0 529642 3115.35 0 529541 0 0 1.72592e+06 -688430 0 1.76264e+06 -645750 0 1.80006e+06 -599644 0 1.83636e+06 -552186 0 1.87034e+06 -503794 0 1.90114e+06 -454745 0 1.92817e+06 -405321 0 1.95105e+06 -355871 0 1.96954e+06 -306788 0 1.98358e+06 -258486 0 1.99322e+06 -211366 0 1.99863e+06 -165795 0 2.00005e+06 -122087 0 1.99778e+06 -80493.2 0 1.99215e+06 -41198.5 0 1.9835e+06 -4325.06 0 1.97218e+06 30062 0 1.95852e+06 61946.6 0 1.94282e+06 91353.6 0 1.92537e+06 118339 0 1.90643e+06 142985 0 1.88624e+06 165388 0 1.865e+06 185660 0 1.84289e+06 203917 0 1.82009e+06 220280 0 1.79672e+06 234871 0 1.77292e+06 247810 0 1.74879e+06 259212 0 1.72442e+06 269191 0 1.6999e+06 277853 0 1.67529e+06 285301 0 1.65065e+06 291630 0 1.62604e+06 296930 0 1.60151e+06 301285 0 1.57708e+06 304775 0 1.55281e+06 307472 0 1.5287e+06 309444 0 1.5048e+06 310754 0 1.48112e+06 311460 0 1.45768e+06 311616 0 1.4345e+06 311272 0 1.41158e+06 310474 0 1.38895e+06 309262 0 1.36662e+06 307678 0 1.34458e+06 305755 0 1.32285e+06 303527 0 1.30144e+06 301024 0 1.28034e+06 298274 0 1.25957e+06 295302 0 1.23913e+06 292132 0 1.21901e+06 288784 0 1.19923e+06 285280 0 1.17978e+06 281635 0 1.16066e+06 277868 0 1.14187e+06 273993 0 1.12342e+06 270024 0 1.1053e+06 265974 0 1.08751e+06 261853 0 1.07005e+06 257673 0 1.05292e+06 253444 0 1.03612e+06 249173 0 1.01964e+06 244870 0 1.00349e+06 240541 0 987660 236192 0 972150 231831 0 956958 227461 0 942080 223089 0 927515 218719 0 913260 214354 0 899311 209999 0 885668 205656 0 872325 201328 0 859282 197019 0 846535 192729 0 834081 188462 0 821917 184219 0 810040 180002 0 798448 175811 0 787138 171649 0 776106 167516 0 765350 163412 0 754868 159340 0 744656 155298 0 734712 151287 0 725033 147309 0 715615 143362 0 706458 139447 0 697558 135564 0 688912 131713 0 680518 127893 0 672373 124105 0 664476 120348 0 656823 116622 0 649413 112926 0 642242 109259 0 635310 105622 0 628614 102014 0 622151 98432.9 0 615920 94879.7 0 609919 91353.2 0 604146 87852.5 0 598599 84377.1 0 593276 80926.1 0 588175 77498.8 0 583295 74094.2 0 578635 70711.7 0 574193 67350.2 0 569966 64009 0 565955 60687.2 0 562158 57383.8 0 558572 54098 0 555198 50828.8 0 552034 47575.3 0 549079 44336.5 0 546333 41111.6 0 543793 37899.5 0 541459 34699.2 0 539331 31509.9 0 537408 28330.5 0 535689 25160.1 0 534173 21997.6 0 532860 18842.1 0 531750 15692.6 0 530842 12548.1 0 530137 9407.6 0 529632 6270.07 0 529329 3134.54 0 529228 0 0 1.7314e+06 -690616 0 1.76868e+06 -647707 0 1.80623e+06 -601510 0 1.84256e+06 -553839 0 1.87649e+06 -505150 0 1.9072e+06 -455744 0 1.9341e+06 -405926 0 1.95679e+06 -356066 0 1.97505e+06 -306574 0 1.98882e+06 -257878 0 1.99816e+06 -210389 0 2.00324e+06 -164482 0 2.00432e+06 -120476 0 2.00169e+06 -78621.6 0 1.99571e+06 -39105.1 0 1.98672e+06 -2046.38 0 1.97506e+06 32492.2 0 1.96107e+06 64498 0 1.94507e+06 93999.1 0 1.92733e+06 121056 0 1.90812e+06 145752 0 1.88768e+06 168188 0 1.86621e+06 188479 0 1.84389e+06 206743 0 1.82089e+06 223104 0 1.79734e+06 237684 0 1.77337e+06 250605 0 1.74909e+06 261984 0 1.72459e+06 271936 0 1.69994e+06 280567 0 1.67522e+06 287982 0 1.65048e+06 294275 0 1.62579e+06 299538 0 1.60117e+06 303856 0 1.57668e+06 307306 0 1.55233e+06 309964 0 1.52818e+06 311896 0 1.50422e+06 313166 0 1.4805e+06 313833 0 1.45702e+06 313949 0 1.4338e+06 313566 0 1.41086e+06 312727 0 1.38821e+06 311477 0 1.36585e+06 309853 0 1.3438e+06 307892 0 1.32206e+06 305626 0 1.30063e+06 303085 0 1.27953e+06 300298 0 1.25875e+06 297289 0 1.2383e+06 294082 0 1.21819e+06 290699 0 1.1984e+06 287158 0 1.17895e+06 283479 0 1.15983e+06 279676 0 1.14105e+06 275767 0 1.1226e+06 271764 0 1.10448e+06 267680 0 1.0867e+06 263526 0 1.06925e+06 259313 0 1.05213e+06 255051 0 1.03534e+06 250748 0 1.01887e+06 246413 0 1.00273e+06 242052 0 986907 237673 0 971407 233280 0 956225 228881 0 941358 224479 0 926804 220078 0 912560 215684 0 898623 211300 0 884990 206928 0 871659 202572 0 858627 198235 0 845891 193917 0 833448 189623 0 821295 185353 0 809430 181109 0 797848 176892 0 786549 172703 0 775528 168544 0 764783 164414 0 754311 160316 0 744109 156249 0 734175 152214 0 724505 148210 0 715098 144239 0 705950 140300 0 697059 136393 0 688422 132518 0 680037 128675 0 671901 124864 0 664012 121084 0 656367 117335 0 648965 113616 0 641803 109927 0 634878 106267 0 628189 102637 0 621733 99034.3 0 615509 95459.3 0 609514 91911.2 0 603747 88389.2 0 598206 84892.6 0 592889 81420.5 0 587794 77972.2 0 582920 74546.9 0 578265 71143.7 0 573827 67761.7 0 569606 64400.1 0 565599 61058 0 561806 57734.4 0 558225 54428.5 0 554854 51139.4 0 551694 47866 0 548742 44607.5 0 545999 41362.8 0 543462 38131.1 0 541131 34911.3 0 539005 31702.5 0 537084 28503.7 0 535367 25313.9 0 533853 22132.1 0 532542 18957.3 0 531433 15788.6 0 530526 12624.8 0 529821 9465.11 0 529317 6308.4 0 529014 3153.7 0 528913 0 0 1.73696e+06 -692833 0 1.77472e+06 -649692 0 1.81242e+06 -603377 0 1.84878e+06 -555482 0 1.88269e+06 -506487 0 1.91331e+06 -456717 0 1.94006e+06 -406499 0 1.96256e+06 -356224 0 1.98059e+06 -306320 0 1.99408e+06 -257226 0 2.00312e+06 -209367 0 2.00787e+06 -163124 0 2.0086e+06 -118819 0 2.00562e+06 -76705.4 0 1.99928e+06 -36968.6 0 1.98994e+06 273.29 0 1.97794e+06 34961.1 0 1.96363e+06 67085.5 0 1.94732e+06 96678.2 0 1.92929e+06 123803 0 1.90981e+06 148547 0 1.88911e+06 171015 0 1.86741e+06 191322 0 1.84487e+06 209591 0 1.82167e+06 225947 0 1.79795e+06 240514 0 1.77382e+06 253416 0 1.74939e+06 264771 0 1.72475e+06 274693 0 1.69998e+06 283293 0 1.67515e+06 290673 0 1.65031e+06 296930 0 1.62552e+06 302155 0 1.60083e+06 306433 0 1.57626e+06 309845 0 1.55186e+06 312462 0 1.52764e+06 314354 0 1.50364e+06 315583 0 1.47987e+06 316209 0 1.45636e+06 316285 0 1.43311e+06 315861 0 1.41014e+06 314983 0 1.38746e+06 313693 0 1.36508e+06 312031 0 1.34301e+06 310030 0 1.32126e+06 307726 0 1.29982e+06 305147 0 1.27871e+06 302322 0 1.25793e+06 299276 0 1.23747e+06 296033 0 1.21735e+06 292613 0 1.19757e+06 289036 0 1.17812e+06 285321 0 1.159e+06 281484 0 1.14022e+06 277540 0 1.12178e+06 273503 0 1.10367e+06 269385 0 1.08589e+06 265197 0 1.06845e+06 260952 0 1.05134e+06 256657 0 1.03455e+06 252322 0 1.01809e+06 247955 0 1.00196e+06 243563 0 986151 239152 0 970661 234729 0 955490 230299 0 940634 225867 0 926091 221437 0 911857 217013 0 897931 212600 0 884310 208199 0 870990 203815 0 857970 199449 0 845245 195104 0 832813 190782 0 820671 186485 0 808816 182214 0 797246 177970 0 785957 173756 0 774947 169570 0 764213 165415 0 753751 161292 0 743560 157199 0 733636 153139 0 723976 149111 0 714578 145115 0 705440 141152 0 696558 137221 0 687930 133323 0 679554 129456 0 671426 125622 0 663546 121818 0 655909 118046 0 648515 114305 0 641360 110594 0 634443 106912 0 627761 103259 0 621313 99634.9 0 615096 96038.2 0 609108 92468.6 0 603347 88925.2 0 597812 85407.4 0 592501 81914.3 0 587411 78445.1 0 582543 74999 0 577893 71575.1 0 573460 68172.7 0 569243 64790.7 0 565241 61428.3 0 561452 58084.6 0 557875 54758.7 0 554508 51449.6 0 551351 48156.4 0 548403 44878.1 0 545662 41613.8 0 543128 38362.5 0 540800 35123.2 0 538677 31894.9 0 536758 28676.7 0 535043 25467.5 0 533530 22266.4 0 532221 19072.4 0 531113 15884.4 0 530207 12701.4 0 529503 9522.55 0 529000 6346.68 0 528698 3172.84 0 528596 0 0 1.74259e+06 -695077 0 1.78078e+06 -651703 0 1.81863e+06 -605246 0 1.85504e+06 -557115 0 1.88891e+06 -507806 0 1.91945e+06 -457663 0 1.94606e+06 -407041 0 1.96838e+06 -356346 0 1.98617e+06 -306024 0 1.99938e+06 -256531 0 2.0081e+06 -208299 0 2.01252e+06 -161719 0 2.01289e+06 -117115 0 2.00956e+06 -74744.1 0 2.00286e+06 -34788.9 0 1.99317e+06 2634.2 0 1.98083e+06 37468.8 0 1.96619e+06 69709.2 0 1.94956e+06 99390.9 0 1.93124e+06 126581 0 1.91149e+06 151371 0 1.89054e+06 173867 0 1.8686e+06 194189 0 1.84585e+06 212461 0 1.82246e+06 228809 0 1.79855e+06 243362 0 1.77425e+06 256242 0 1.74967e+06 267571 0 1.7249e+06 277464 0 1.70001e+06 286030 0 1.67507e+06 293374 0 1.65013e+06 299594 0 1.62526e+06 304780 0 1.60048e+06 309018 0 1.57584e+06 312389 0 1.55138e+06 314965 0 1.52711e+06 316816 0 1.50305e+06 318005 0 1.47924e+06 318589 0 1.45569e+06 318625 0 1.43241e+06 318160 0 1.40941e+06 317242 0 1.38671e+06 315912 0 1.36431e+06 314209 0 1.34222e+06 312170 0 1.32045e+06 309827 0 1.