<?xml version="1.0"?> 
<VTKFile type="StructuredGrid" version="0.1"> 
<StructuredGrid WholeExtent="0 127 0 127 0 0"> 
<Piece Extent="0 127 0 127 0 0"> 
<PointData>
<DataArray type="Float32" Name="E" format="ascii" NumberOfComponents="3"> 
0 0 0 0 -3194.73 0 0 -6389.24 0 0 -9583.28 0 0 -12776.6 0 0 -15969.1 0 0 -19160.3 0 0 -22350.2 0 0 -25538.5 0 0 -28724.9 0 0 -31909.2 0 0 -35091.2 0 0 -38270.6 0 0 -41447.2 0 0 -44620.8 0 0 -47791 0 0 -50957.8 0 0 -54120.7 0 0 -57279.7 0 0 -60434.3 0 0 -63584.4 0 0 -66729.8 0 0 -69870 0 0 -73005 0 0 -76134.4 0 0 -79257.9 0 0 -82375.3 0 0 -85486.3 0 0 -88590.7 0 0 -91688 0 0 -94778.2 0 0 -97860.7 0 0 -100935 0 0 -104002 0 0 -107060 0 0 -110110 0 0 -113150 0 0 -116181 0 0 -119202 0 0 -122213 0 0 -125213 0 0 -128203 0 0 -131182 0 0 -134149 0 0 -137104 0 0 -140047 0 0 -142977 0 0 -145894 0 0 -148798 0 0 -151688 0 0 -154563 0 0 -157423 0 0 -160269 0 0 -163098 0 0 -165911 0 0 -168708 0 0 -171487 0 0 -174248 0 0 -176991 0 0 -179716 0 0 -182420 0 0 -185105 0 0 -187768 0 0 -190411 0 0 -193031 0 0 -195629 0 0 -198203 0 0 -200753 0 0 -203278 0 0 -205777 0 0 -208249 0 0 -210694 0 0 -213111 0 0 -215498 0 0 -217856 0 0 -220181 0 0 -222475 0 0 -224734 0 0 -226960 0 0 -229149 0 0 -231301 0 0 -233414 0 0 -235487 0 0 -237519 0 0 -239508 0 0 -241452 0 0 -243350 0 0 -245199 0 0 -246997 0 0 -248744 0 0 -250435 0 0 -252069 0 0 -253644 0 0 -255156 0 0 -256603 0 0 -257981 0 0 -259287 0 0 -260517 0 0 -261667 0 0 -262734 0 0 -263711 0 0 -264595 0 0 -265379 0 0 -266056 0 0 -266621 0 0 -267064 0 0 -267378 0 0 -267553 0 0 -267577 0 0 -267437 0 0 -267121 0 0 -266609 0 0 -265884 0 0 -264922 0 0 -263695 0 0 -262172 0 0 -260311 0 0 -258061 0 0 -255350 0 0 -252078 0 0 -248123 0 0 -243406 0 0 -238048 0 0 -232502 0 0 -226654 0 0 -215157 0 0 -170882 0 0 0 0 -2662.36 0 0 -2662.26 -3236.74 0 -2661.96 -6473.24 0 -2661.47 -9709.26 0 -2660.78 -12944.6 0 -2659.89 -16178.9 0 -2658.8 -19412 0 -2657.51 -22643.7 0 -2656.02 -25873.7 0 -2654.33 -29101.8 0 -2652.44 -32327.7 0 -2650.35 -35551.2 0 -2648.05 -38772 0 -2645.54 -41989.9 0 -2642.83 -45204.6 0 -2639.91 -48415.9 0 -2636.78 -51623.6 0 -2633.44 -54827.3 0 -2629.88 -58026.8 0 -2626.1 -61221.8 0 -2622.11 -64412.1 0 -2617.9 -67597.5 0 -2613.46 -70777.6 0 -2608.79 -73952.1 0 -2603.9 -77120.9 0 -2598.77 -80283.5 0 -2593.41 -83439.8 0 -2587.8 -86589.4 0 -2581.96 -89732.1 0 -2575.86 -92867.5 0 -2569.52 -95995.3 0 -2562.92 -99115.3 0 -2556.06 -102227 0 -2548.94 -105330 0 -2541.55 -108425 0 -2533.89 -111510 0 -2525.94 -114586 0 -2517.71 -117652 0 -2509.19 -120708 0 -2500.38 -123753 0 -2491.26 -126788 0 -2481.83 -129811 0 -2472.09 -132823 0 -2462.02 -135822 0 -2451.62 -138809 0 -2440.87 -141783 0 -2429.78 -144744 0 -2418.34 -147692 0 -2406.52 -150625 0 -2394.33 -153543 0 -2381.76 -156447 0 -2368.78 -159335 0 -2355.4 -162207 0 -2341.6 -165062 0 -2327.36 -167901 0 -2312.68 -170722 0 -2297.54 -173524 0 -2281.93 -176308 0 -2265.82 -179073 0 -2249.22 -181818 0 -2232.08 -184543 0 -2214.41 -187246 0 -2196.18 -189927 0 -2177.37 -192586 0 -2157.97 -195222 0 -2137.94 -197834 0 -2117.26 -200421 0 -2095.91 -202983 0 -2073.87 -205518 0 -2051.1 -208026 0 -2027.58 -210506 0 -2003.27 -212957 0 -1978.14 -215378 0 -1952.15 -217767 0 -1925.27 -220125 0 -1897.45 -222450 0 -1868.65 -224740 0 -1838.82 -226994 0 -1807.91 -229212 0 -1775.87 -231392 0 -1742.63 -233531 0 -1708.14 -235630 0 -1672.31 -237686 0 -1635.09 -239698 0 -1596.39 -241664 0 -1556.11 -243581 0 -1514.17 -245449 0 -1470.45 -247265 0 -1424.85 -249027 0 -1377.24 -250732 0 -1327.47 -252378 0 -1275.4 -253962 0 -1220.85 -255482 0 -1163.64 -256934 0 -1103.55 -258315 0 -1040.35 -259621 0 -973.774 -260849 0 -903.527 -261993 0 -829.27 -263050 0 -750.619 -264015 0 -667.137 -264881 0 -578.319 -265644 0 -483.583 -266295 0 -382.252 -266827 0 -273.533 -267233 0 -156.492 -267503 0 -30.0172 -267625 0 107.226 -267589 0 256.852 -267380 0 420.839 -266982 0 601.635 -266377 0 802.313 -265543 0 1026.79 -264455 0 1280.16 -263081 0 1569.22 -261384 0 1903.3 -259318 0 2295.41 -256822 0 2763.49 -253823 0 3331.74 -250224 0 4033.81 -245908 0 4927.59 -240713 0 6153.24 -234354 0 8098.94 -226206 0 11774.4 -214882 0 19429.8 -198170 0 34906.8 -175002 0 63454.9 -157780 0 102624 -205247 0 -5324.86 0 0 -5324.65 -3278.91 0 -5324.04 -6557.58 0 -5323.03 -9835.74 0 -5321.61 -13113.2 0 -5319.78 -16389.6 0 -5317.55 -19664.8 0 -5314.9 -22938.4 0 -5311.85 -26210.3 0 -5308.38 -29480.3 0 -5304.5 -32747.9 0 -5300.2 -36013 0 -5295.48 -39275.4 0 -5290.34 -42534.7 0 -5284.78 -45790.8 0 -5278.78 -49043.3 0 -5272.35 -52291.9 0 -5265.49 -55536.5 0 -5258.18 -58776.7 0 -5250.43 -62012.3 0 -5242.23 -65243 0 -5233.57 -68468.5 0 -5224.46 -71688.5 0 -5214.87 -74902.8 0 -5204.81 -78111 0 -5194.28 -81312.9 0 -5183.25 -84508.2 0 -5171.74 -87696.5 0 -5159.72 -90877.6 0 -5147.19 -94051.1 0 -5134.15 -97216.8 0 -5120.57 -100374 0 -5106.47 -103523 0 -5091.81 -106663 0 -5076.6 -109794 0 -5060.83 -112916 0 -5044.48 -116027 0 -5027.53 -119129 0 -5009.99 -122219 0 -4991.83 -125299 0 -4973.04 -128367 0 -4953.61 -131424 0 -4933.52 -134468 0 -4912.76 -137500 0 -4891.3 -140519 0 -4869.14 -143525 0 -4846.26 -146516 0 -4822.63 -149494 0 -4798.24 -152456 0 -4773.06 -155403 0 -4747.08 -158335 0 -4720.26 -161250 0 -4692.59 -164149 0 -4664.05 -167030 0 -4634.59 -169894 0 -4604.21 -172739 0 -4572.85 -175565 0 -4540.51 -178371 0 -4507.14 -181158 0 -4472.7 -183923 0 -4437.17 -186667 0 -4400.5 -189389 0 -4362.65 -192088 0 -4323.58 -194763 0 -4283.24 -197414 0 -4241.59 -200039 0 -4198.57 -202639 0 -4154.13 -205212 0 -4108.22 -207757 0 -4060.76 -210273 0 -4011.69 -212759 0 -3960.95 -215215 0 -3908.46 -217640 0 -3854.14 -220031 0 -3797.9 -222388 0 -3739.66 -224711 0 -3679.31 -226997 0 -3616.74 -229245 0 -3551.86 -231454 0 -3484.52 -233622 0 -3414.61 -235748 0 -3341.97 -237831 0 -3266.45 -239868 0 -3187.88 -241857 0 -3106.09 -243798 0 -3020.86 -245687 0 -2931.97 -247523 0 -2839.2 -249303 0 -2742.26 -251025 0 -2640.88 -252686 0 -2534.73 -254284 0 -2423.44 -255815 0 -2306.63 -257276 0 -2183.85 -258663 0 -2054.59 -259974 0 -1918.31 -261203 0 -1774.36 -262347 0 -1622.04 -263400 0 -1460.52 -264357 0 -1288.86 -265212 0 -1105.99 -265960 0 -910.651 -266592 0 -701.386 -267100 0 -476.479 -267477 0 -233.899 -267712 0 28.7781 -267793 0 314.471 -267708 0 626.734 -267442 0 969.936 -266979 0 1349.52 -266298 0 1772.38 -265376 0 2247.35 -264186 0 2786.01 -262695 0 3403.84 -260863 0 4121.89 -258639 0 4969.28 -255962 0 5987.26 -252754 0 7237.5 -248913 0 8822.19 -244299 0 10931.9 -238700 0 13944.9 -231789 0 18589.1 -223111 0 26099.4 -212324 0 38130.3 -200093 0 55842 -189871 0 77991 -189731 0 97096.3 -206275 0 103372 -206745 0 -7987.62 0 0 -7987.3 -3321.26 0 -7986.37 -6642.26 0 -7984.81 -9962.74 0 -7982.62 -13282.4 0 -7979.81 -16601.1 0 -7976.38 -19918.5 0 -7972.31 -23234.3 0 -7967.61 -26548.3 0 -7962.28 -29860.2 0 -7956.31 -33169.8 0 -7949.69 -36476.8 0 -7942.43 -39780.8 0 -7934.52 -43081.8 0 -7925.96 -46379.3 0 -7916.73 -49673.1 0 -7906.84 -52963 0 -7896.27 -56248.6 0 -7885.03 -59529.6 0 -7873.09 -62805.9 0 -7860.47 -66077.1 0 -7847.14 -69342.9 0 -7833.1 -72603 0 -7818.34 -75857.1 0 -7802.84 -79105 0 -7786.61 -82346.2 0 -7769.63 -85580.6 0 -7751.88 -88807.8 0 -7733.36 -92027.4 0 -7714.05 -95239.2 0 -7693.94 -98442.8 0 -7673.01 -101638 0 -7651.26 -104824 0 -7628.66 -108001 0 -7605.2 -111169 0 -7580.85 -114326 0 -7555.62 -117473 0 -7529.46 -120610 0 -7502.38 -123736 0 -7474.33 -126850 0 -7445.31 -129952 0 -7415.29 -133042 0 -7384.24 -136119 0 -7352.15 -139184 0 -7318.98 -142234 0 -7284.7 -145271 0 -7249.3 -148293 0 -7212.73 -151301 0 -7174.97 -154293 0 -7135.99 -157269 0 -7095.74 -160228 0 -7054.19 -163171 0 -7011.3 -166096 0 -6967.04 -169003 0 -6921.35 -171891 0 -6874.2 -174760 0 -6825.53 -177610 0 -6775.3 -180438 0 -6723.45 -183246 0 -6669.92 -186032 0 -6614.67 -188795 0 -6557.61 -191535 0 -6498.7 -194251 0 -6437.85 -196942 0 -6375 -199607 0 -6310.06 -202246 0 -6242.95 -204857 0 -6173.59 -207441 0 -6101.87 -209995 0 -6027.7 -212519 0 -5950.96 -215011 0 -5871.55 -217471 0 -5789.34 -219898 0 -5704.2 -222290 0 -5615.98 -224646 0 -5524.54 -226965 0 -5429.71 -229246 0 -5331.31 -231486 0 -5229.16 -233685 0 -5123.05 -235841 0 -5012.76 -237952 0 -4898.04 -240017 0 -4778.64 -242033 0 -4654.26 -243999 0 -4524.6 -245913 0 -4389.31 -247771 0 -4248.01 -249573 0 -4100.3 -251315 0 -3945.71 -252994 0 -3783.75 -254609 0 -3613.85 -256154 0 -3435.38 -257629 0 -3247.66 -259027 0 -3049.88 -260347 0 -2841.18 -261583 0 -2620.55 -262730 0 -2386.86 -263785 0 -2138.81 -264740 0 -1874.91 -265591 0 -1593.45 -266330 0 -1292.42 -266951 0 -969.501 -267444 0 -621.934 -267801 0 -246.46 -268011 0 160.823 -268062 0 604.634 -267942 0 1090.73 -267634 0 1626.21 -267122 0 2219.96 -266385 0 2883.24 -265400 0 3630.58 -264137 0 4480.99 -262564 0 5459.88 -260639 0 6601.84 -258314 0 7955.22 -255528 0 9590.35 -252206 0 11615.4 -248250 0 14206.3 -243536 0 17658.2 -237912 0 22451.1 -231243 0 29287.5 -223566 0 38986.8 -215449 0 52071.8 -208519 0 67951.2 -205639 0 84205.1 -209541 0 96910.4 -218619 0 105051 -222398 0 115169 -230338 0 -10650.8 0 0 -10650.4 -3363.78 0 -10649.1 -6727.29 0 -10646.9 -10090.3 0 -10644 -13452.4 0 -10640.1 -16813.5 0 -10635.4 -20173.3 0 -10629.9 -23531.4 0 -10623.4 -26887.7 0 -10616.1 -30241.8 0 -10608 -33593.4 0 -10598.9 -36942.4 0 -10589 -40288.4 0 -10578.2 -43631.1 0 -10566.5 -46970.2 0 -10553.9 -50305.6 0 -10540.4 -53636.8 0 -10525.9 -56963.6 0 -10510.5 -60285.7 0 -10494.2 -63602.8 0 -10476.9 -66914.6 0 -10458.7 -70220.8 0 -10439.5 -73521.2 0 -10419.3 -76815.3 0 -10398.1 -80102.9 0 -10375.9 -83383.7 0 -10352.6 -86657.3 0 -10328.3 -89923.4 0 -10303 -93181.7 0 -10276.5 -96431.9 0 -10249 -99673.6 0 -10220.3 -102906 0 -10190.5 -106130 0 -10159.5 -109344 0 -10127.4 -112548 0 -10094 -115742 0 -10059.4 -118925 0 -10023.5 -122097 0 -9986.35 -125257 0 -9947.87 -128406 0 -9908.04 -131542 0 -9866.83 -134666 0 -9824.2 -137776 0 -9780.12 -140873 0 -9734.55 -143955 0 -9687.45 -147023 0 -9638.79 -150076 0 -9588.51 -153113 0 -9536.57 -156135 0 -9482.93 -159139 0 -9427.54 -162127 0 -9370.33 -165097 0 -9311.27 -168048 0 -9250.28 -170981 0 -9187.32 -173894 0 -9122.3 -176787 0 -9055.17 -179659 0 -8985.85 -182510 0 -8914.27 -185338 0 -8840.35 -188144 0 -8763.99 -190926 0 -8685.12 -193684 0 -8603.63 -196417 0 -8519.43 -199123 0 -8432.4 -201803 0 -8342.44 -204454 0 -8249.41 -207077 0 -8153.2 -209671 0 -8053.66 -212233 0 -7950.65 -214764 0 -7844 -217262 0 -7733.56 -219726 0 -7619.14 -222154 0 -7500.54 -224546 0 -7377.56 -226901 0 -7249.98 -229215 0 -7117.55 -231490 0 -6980.02 -233721 0 -6837.09 -235909 0 -6688.47 -238051 0 -6533.82 -240146 0 -6372.79 -242192 0 -6204.97 -244186 0 -6029.95 -246126 0 -5847.23 -248010 0 -5656.32 -249837 0 -5456.63 -251602 0 -5247.54 -253303 0 -5028.35 -254938 0 -4798.28 -256503 0 -4556.47 -257994 0 -4301.94 -259408 0 -4033.61 -260742 0 -3750.25 -261989 0 -3450.47 -263146 0 -3132.69 -264208 0 -2795.09 -265169 0 -2435.61 -266022 0 -2051.82 -266761 0 -1640.94 -267378 0 -1199.69 -267865 0 -724.197 -268212 0 -209.882 -268409 0 348.764 -268444 0 958.398 -268303 0 1627.16 -267972 0 2365.09 -267431 0 3184.78 -266662 0 4102.18 -265641 0 5137.82 -264339 0 6318.54 -262726 0 7680.11 -260763 0 9271.15 -258406 0 11159.6 -255601 0 13443.4 -252289 0 16268 -248401 0 19852 -243874 0 24513.5 -238688 0 30675.5 -232951 0 38797.9 -227058 0 49174.1 -221879 0 61581.2 -218788 0 74943.8 -219189 0 87478.5 -223297 0 97689.9 -228977 0 106158 -232903 0 114958 -238728 0 121872 -243745 0 -13314.5 0 0 -13313.9 -3406.49 0 -13312.3 -6812.7 0 -13309.6 -10218.4 0 -13305.7 -13623.2 0 -13300.8 -17026.9 0 -13294.8 -20429.2 0 -13287.7 -23829.9 0 -13279.5 -27228.5 0 -13270.1 -30625 0 -13259.7 -34018.9 0 -13248.1 -37410.1 0 -13235.4 -40798.1 0 -13221.5 -44182.7 0 -13206.5 -47563.7 0 -13190.4 -50940.7 0 -13173 -54313.4 0 -13154.5 -57681.6 0 -13134.8 -61044.9 0 -13113.9 -64403 0 -13091.7 -67755.7 0 -13068.4 -71102.5 0 -13043.7 -74443.2 0 -13017.8 -77777.5 0 -12990.6 -81105 0 -12962.1 -84425.5 0 -12932.3 -87738.5 0 -12901.1 -91043.7 0 -12868.6 -94340.8 0 -12834.7 -97629.5 0 -12799.3 -100909 0 -12762.5 -104180 0 -12724.2 -107441 0 -12684.4 -110692 0 -12643.1 -113933 0 -12600.3 -117163 0 -12555.8 -120382 0 -12509.7 -123589 0 -12461.9 -126785 0 -12412.5 -129968 0 -12361.2 -133138 0 -12308.2 -136295 0 -12253.4 -139439 0 -12196.6 -142568 0 -12138 -145682 0 -12077.3 -148781 0 -12014.6 -151865 0 -11949.8 -154932 0 -11882.9 -157983 0 -11813.7 -161016 0 -11742.3 -164031 0 -11668.5 -167028 0 -11592.2 -170006 0 -11513.5 -172964 0 -11432.2 -175902 0 -11348.2 -178819 0 -11261.4 -181714 0 -11171.7 -184586 0 -11079.1 -187436 0 -10983.5 -190261 0 -10884.6 -193062 0 -10782.4 -195838 0 -10676.8 -198587 0 -10567.6 -201308 0 -10454.6 -204002 0 -10337.8 -206666 0 -10217 -209300 0 -10091.9 -211903 0 -9962.42 -214474 0 -9828.34 -217011 0 -9689.43 -219514 0 -9545.47 -221981 0 -9396.2 -224410 0 -9241.37 -226801 0 -9080.69 -229153 0 -8913.84 -231463 0 -8740.5 -233729 0 -8560.3 -235952 0 -8372.85 -238127 0 -8177.73 -240255 0 -7974.47 -242332 0 -7762.56 -244357 0 -7541.46 -246327 0 -7310.55 -248241 0 -7069.17 -250095 0 -6816.59 -251887 0 -6551.99 -253614 0 -6274.47 -255273 0 -5983.03 -256860 0 -5676.55 -258373 0 -5353.79 -259808 0 -5013.33 -261160 0 -4653.59 -262424 0 -4272.76 -263597 0 -3868.8 -264672 0 -3439.36 -265645 0 -2981.74 -266508 0 -2492.82 -267255 0 -1968.96 -267878 0 -1405.91 -268368 0 -798.643 -268717 0 -141.185 -268914 0 573.62 -268946 0 1354.43 -268801 0 2211.82 -268464 0 3158.83 -267917 0 4211.77 -267142 0 5391.21 -266116 0 6723.55 -264814 0 8243.07 -263208 0 9995.06 -261266 0 12040.4 -258952 0 14462.4 -256230 0 17376.8 -253064 0 20944.4 -249435 0 25381.8 -245360 0 30958.9 -240943 0 37958.6 -236453 0 46573.7 -232399 0 56736.3 -229539 0 67947.5 -228701 0 79274.8 -230320 0 89713 -233916 0 98820.2 -238170 0 107104 -242154 0 115083 -247210 0 121857 -251932 0 128305 -256610 0 -15978.8 0 0 -15978.2 -3449.39 0 -15976.2 -6898.49 0 -15972.8 -10347 0 -15968.1 -13794.7 0 -15962.1 -17241.2 0 -15954.7 -20686.3 0 -15945.9 -24129.6 0 -15935.8 -27570.9 0 -15924.3 -31009.9 0 -15911.5 -34446.3 0 -15897.2 -37879.8 0 -15881.6 -41310.1 0 -15864.6 -44736.8 0 -15846.1 -48159.8 0 -15826.3 -51578.7 0 -15805 -54993.1 0 -15782.2 -58402.8 0 -15757.9 -61807.5 0 -15732.2 -65206.8 0 -15705 -68600.4 0 -15676.2 -71988 0 -15645.9 -75369.3 0 -15614 -78743.9 0 -15580.6 -82111.5 0 -15545.5 -85471.7 0 -15508.8 -88824.2 0 -15470.4 -92168.7 0 -15430.3 -95504.8 0 -15388.6 -98832.1 0 -15345 -102150 0 -15299.7 -105459 0 -15252.5 -108757 0 -15203.5 -112046 0 -15152.6 -115324 0 -15099.7 -118590 0 -15044.9 -121845 0 -14988 -125088 0 -14929.1 -128319 0 -14868.1 -131536 0 -14804.8 -134741 0 -14739.4 -137931 0 -14671.7 -141108 0 -14601.6 -144269 0 -14529.1 -147416 0 -14454.2 -150546 0 -14376.7 -153660 0 -14296.6 -156758 0 -14213.8 -159838 0 -14128.2 -162899 0 -14039.8 -165943 0 -13948.4 -168967 0 -13854 -171971 0 -13756.4 -174954 0 -13655.6 -177917 0 -13551.4 -180857 0 -13443.8 -183775 0 -13332.6 -186669 0 -13217.6 -189539 0 -13098.7 -192385 0 -12975.9 -195204 0 -12848.8 -197997 0 -12717.4 -200762 0 -12581.5 -203498 0 -12440.9 -206205 0 -12295.3 -208882 0 -12144.7 -211527 0 -11988.6 -214139 0 -11827 -216717 0 -11659.5 -219260 0 -11485.8 -221767 0 -11305.8 -224237 0 -11118.9 -226667 0 -10924.9 -229057 0 -10723.4 -231405 0 -10514 -233709 0 -10296.2 -235968 0 -10069.6 -238179 0 -9833.62 -240342 0 -9587.73 -242454 0 -9331.29 -244512 0 -9063.63 -246516 0 -8784 -248461 0 -8491.57 -250346 0 -8185.45 -252168 0 -7864.65 -253925 0 -7528.04 -255612 0 -7174.4 -257227 0 -6802.36 -258766 0 -6410.37 -260225 0 -5996.69 -261601 0 -5559.38 -262888 0 -5096.21 -264082 0 -4604.66 -265178 0 -4081.84 -266169 0 -3524.4 -267050 0 -2928.52 -267813 0 -2289.7 -268451 0 -1602.69 -268956 0 -861.322 -269318 0 -58.235 -269528 0 815.362 -269573 0 1770.08 -269441 0 2818.87 -269118 0 3977.6 -268588 0 5266.06 -267834 0 6709.05 -266836 0 8338.07 -265573 0 10193.6 -264023 0 12328.3 -262161 0 14811.2 -259967 0 17733.5 -257424 0 21214.8 -254529 0 25407.6 -251312 0 30493.3 -247858 0 36659.3 -244351 0 44043.8 -241108 0 52647 -238589 0 62234.9 -237320 0 72306.9 -237696 0 82214.8 -239726 0 91447.5 -242924 0 99896 -246622 0 107794 -250563 0 115201 -255106 0 121829 -259510 0 128170 -263927 0 134193 -268387 0 -18644 0 0 -18643.2 -3492.49 0 -18640.8 -6984.67 0 -18636.8 -10476.3 0 -18631.2 -13967 0 -18624 -17456.5 0 -18615.1 -20944.5 0 -18604.7 -24430.7 0 -18592.6 -27914.9 0 -18578.9 -31396.6 0 -18563.6 -34875.6 0 -18546.5 -38351.7 0 -18527.9 -41824.4 0 -18507.5 -45293.5 0 -18485.5 -48758.6 0 -18461.7 -52219.5 0 -18436.3 -55675.8 0 -18409.1 -59127.3 0 -18380.1 -62573.5 0 -18349.3 -66014.1 0 -18316.8 -69448.9 0 -18282.4 -72877.5 0 -18246.2 -76299.5 0 -18208.1 -79714.5 0 -18168 -83122.4 0 -18126.1 -86522.6 0 -18082.2 -89914.8 0 -18036.3 -93298.7 0 -17988.3 -96673.9 0 -17938.3 -100040 0 -17886.2 -103397 0 -17831.9 -106743 0 -17775.4 -110080 0 -17716.7 -113405 0 -17655.7 -116720 0 -17592.4 -120023 0 -17526.7 -123314 0 -17458.6 -126593 0 -17387.9 -129859 0 -17314.7 -133111 0 -17238.9 -136350 0 -17160.4 -139574 0 -17079.1 -142784 0 -16995 -145978 0 -16908 -149156 0 -16818 -152318 0 -16724.9 -155463 0 -16628.6 -158590 0 -16529.1 -161699 0 -16426.2 -164790 0 -16319.8 -167861 0 -16209.9 -170912 0 -16096.3 -173942 0 -15978.8 -176951 0 -15857.4 -179938 0 -15731.8 -182902 0 -15602.1 -185843 0 -15467.9 -188759 0 -15329.2 -191649 0 -15185.7 -194514 0 -15037.3 -197352 0 -14883.8 -200162 0 -14724.9 -202943 0 -14560.5 -205694 0 -14390.3 -208414 0 -14214.1 -211103 0 -14031.5 -213758 0 -13842.3 -216379 0 -13646.2 -218965 0 -13442.9 -221514 0 -13231.9 -224025 0 -13012.9 -226496 0 -12785.5 -228927 0 -12549.3 -231314 0 -12303.7 -233658 0 -12048.2 -235956 0 -11782.3 -238206 0 -11505.3 -240407 0 -11216.6 -242556 0 -10915.4 -244651 0 -10600.9 -246690 0 -10272.2 -248671 0 -9928.45 -250591 0 -9568.45 -252447 0 -9191.05 -254236 0 -8794.94 -255955 0 -8378.64 -257602 0 -7940.53 -259172 0 -7478.76 -260661 0 -6991.29 -262066 0 -6475.78 -263381 0 -5929.6 -264603 0 -5349.75 -265725 0 -4732.78 -266742 0 -4074.75 -267648 0 -3371.09 -268437 0 -2616.5 -269100 0 -1804.75 -269630 0 -928.558 -270017 0 20.7514 -270253 0 1053.51 -270326 0 2182.16 -270224 0 3421.77 -269936 0 4790.77 -269446 0 6311.89 -268740 0 8013.37 -267802 0 9930.66 -266617 0 12108.5 -265168 0 14603.6 -263443 0 17488 -261436 0 20852.4 -259152 0 24807.6 -256620 0 29481.5 -253907 0 35005.5 -251140 0 41484.1 -248530 0 48946.2 -246371 0 57287.7 -245015 0 66237.8 -244780 0 75392.2 -245814 0 84334.7 -247998 0 92800.9 -250990 0 100750 -254456 0 108249 -258279 0 115274 -262462 0 121778 -266625 0 128018 -270844 0 133965 -275093 0 139647 -279294 0 -21310.1 0 0 -21309.2 -3535.78 0 -21306.4 -7071.26 0 -21301.7 -10606.1 0 -21295.1 -14140.1 0 -21286.7 -17672.8 0 -21276.3 -21203.9 0 -21264.1 -24733.3 0 -21250 -28260.4 0 -21234 -31785.1 0 -21216 -35307 0 -21196.1 -38825.8 0 -21174.3 -42341.1 0 -21150.5 -45852.7 0 -21124.7 -49360.2 0 -21096.9 -52863.4 0 -21067.1 -56361.8 0 -21035.3 -59855.1 0 -21001.4 -63343.1 0 -20965.4 -66825.3 0 -20927.3 -70301.4 0 -20887 -73771.1 0 -20844.6 -77234 0 -20800 -80689.7 0 -20753.1 -84137.9 0 -20704 -87578.3 0 -20652.5 -91010.4 0 -20598.8 -94433.9 0 -20542.6 -97848.3 0 -20484 -101253 0 -20422.9 -104649 0 -20359.2 -108034 0 -20293 -111408 0 -20224.2 -114771 0 -20152.7 -118123 0 -20078.4 -121463 0 -20001.3 -124790 0 -19921.3 -128104 0 -19838.4 -131406 0 -19752.4 -134693 0 -19663.4 -137966 0 -19571.1 -141224 0 -19475.7 -144467 0 -19376.8 -147694 0 -19274.5 -150904 0 -19168.7 -154097 0 -19059.2 -157273 0 -18945.9 -160430 0 -18828.7 -163569 0 -18707.6 -166688 0 -18582.3 -169787 0 -18452.8 -172865 0 -18318.8 -175922 0 -18180.3 -178956 0 -18037.1 -181968 0 -17889 -184955 0 -17735.8 -187918 0 -17577.4 -190856 0 -17413.4 -193767 0 -17243.9 -196651 0 -17068.4 -199507 0 -16886.7 -202334 0 -16698.7 -205131 0 -16503.9 -207897 0 -16302.2 -210630 0 -16093.2 -213331 0 -15876.6 -215996 0 -15652 -218626 0 -15419 -221219 0 -15177.2 -223773 0 -14926.2 -226288 0 -14665.5 -228761 0 -14394.5 -231191 0 -14112.8 -233576 0 -13819.6 -235916 0 -13514.4 -238207 0 -13196.4 -240448 0 -12864.8 -242637 0 -12518.8 -244771 0 -12157.5 -246850 0 -11779.8 -248869 0 -11384.6 -250826 0 -10970.7 -252720 0 -10536.6 -254546 0 -10080.9 -256302 0 -9601.85 -257984 0 -9097.57 -259589 0 -8565.95 -261113 0 -8004.59 -262552 0 -7410.81 -263901 0 -6781.57 -265156 0 -6113.39 -266312 0 -5402.32 -267363 0 -4643.8 -268302 0 -3832.58 -269125 0 -2962.58 -269822 0 -2026.67 -270387 0 -1016.53 -270812 0 77.7282 -271087 0 1267.8 -271203 0 2567.72 -271149 0 3994.37 -270914 0 5568.24 -270487 0 7314.31 -269855 0 9263.25 -269008 0 11452.9 -267934 0 13929.9 -266628 0 16751.6 -265087 0 19988.2 -263319 0 23722.7 -261351 0 28048.9 -259233 0 33063.3 -257057 0 38847.9 -254965 0 45441.6 -253158 0 52806.2 -251878 0 60798.1 -251369 0 69170.5 -251808 0 77622.4 -253228 0 85886.8 -255500 0 93809.2 -258402 0 101350 -261748 0 108511 -265437 0 115274 -269375 0 121664 -273369 0 127809 -277440 0 133696 -281551 0 139362 -285648 0 144868 -289736 0 -23977.3 0 0 -23976.2 -3579.29 0 -23972.9 -7158.27 0 -23967.6 -10736.6 0 -23960 -14314 0 -23950.3 -17890.1 0 -23938.4 -21464.6 0 -23924.4 -25037.2 0 -23908.1 -28607.6 0 -23889.7 -32175.4 0 -23869 -35740.4 0 -23846.1 -39302.1 0 -23821 -42860.3 0 -23793.6 -46414.6 0 -23763.9 -49964.7 0 -23731.9 -53510.3 0 -23697.6 -57051 0 -23660.9 -60586.4 0 -23621.9 -64116.3 0 -23580.4 -67640.2 0 -23536.5 -71157.9 0 -23490.2 -74668.9 0 -23441.3 -78172.9 0 -23389.9 -81669.5 0 -23335.9 -85158.3 0 -23279.3 -88639 0 -23220 -92111.2 0 -23158 -95574.4 0 -23093.2 -99028.3 0 -23025.6 -102472 0 -22955.2 -105906 0 -22881.8 -109330 0 -22805.4 -112742 0 -22726 -116143 0 -22643.4 -119532 0 -22557.7 -122909 0 -22468.7 -126273 0 -22376.3 -129623 0 -22280.5 -132960 0 -22181.2 -136282 0 -22078.3 -139589 0 -21971.7 -142881 0 -21861.3 -146157 0 -21747 -149417 0 -21628.6 -152660 0 -21506.2 -155884 0 -21379.4 -159091 0 -21248.3 -162279 0 -21112.6 -165447 0 -20972.3 -168595 0 -20827.1 -171722 0 -20676.9 -174827 0 -20521.6 -177910 0 -20360.9 -180970 0 -20194.6 -184005 0 -20022.7 -187017 0 -19844.7 -190002 0 -19660.6 -192961 0 -19470 -195893 0 -19272.8 -198797 0 -19068.5 -201671 0 -18857.1 -204515 0 -18638 -207328 0 -18411 -210108 0 -18175.8 -212854 0 -17931.9 -215566 0 -17679 -218242 0 -17416.6 -220880 0 -17144.2 -223480 0 -16861.3 -226040 0 -16567.4 -228557 0 -16262 -231032 0 -15944.2 -233462 0 -15613.6 -235845 0 -15269.2 -238179 0 -14910.4 -240463 0 -14536.2 -242695 0 -14145.6 -244872 0 -13737.6 -246992 0 -13311.1 -249053 0 -12864.6 -251052 0 -12397 -252986 0 -11906.5 -254853 0 -11391.4 -256649 0 -10849.9 -258371 0 -10279.8 -260016 0 -9678.66 -261580 0 -9043.82 -263058 0 -8372.24 -264447 0 -7660.48 -265742 0 -6904.64 -266938 0 -6100.26 -268029 0 -5242.22 -269010 0 -4324.65 -269874 0 -3340.74 -270615 0 -2282.55 -271226 0 -1140.83 -271700 0 95.3231 -272027 0 1438.79 -272200 0 2904.87 -272209 0 4511.87 -272046 0 6281.72 -271702 0 8240.89 -271168 0 10421.3 -270437 0 12861.6 -269506 0 15608 -268375 0 18715.7 -267053 0 22248.7 -265561 0 26278.2 -263938 0 30877.8 -262252 0 36113.2 -260602 0 42025.5 -259128 0 48609.6 -258004 0 55793.7 -257414 0 63431.5 -257522 0 71317.7 -258419 0 79232.6 -260093 0 86996.8 -262437 0 94504.4 -265307 0 101713 -268576 0 108604 -272148 0 115175 -275925 0 121460 -279798 0 127521 -283758 0 133359 -287765 0 139012 -291779 0 144519 -295793 0 149898 -299797 0 -26645.6 0 0 -26644.4 -3623.01 0 -26640.7 -7245.7 0 -26634.6 -10867.7 0 -26626 -14488.8 0 -26615 -18108.5 0 -26601.5 -21726.6 0 -26585.5 -25342.7 0 -26567.1 -28956.5 0 -26546.1 -32567.7 0 -26522.6 -36175.9 0 -26496.6 -39780.8 0 -26468 -43382.1 0 -26436.9 -46979.3 0 -26403.2 -50572.2 0 -26366.8 -54160.4 0 -26327.8 -57743.6 0 -26286.1 -61321.3 0 -26241.8 -64893.3 0 -26194.6 -68459.2 0 -26144.7 -72018.6 0 -26092 -75571.1 0 -26036.4 -79116.4 0 -25978 -82654.1 0 -25916.5 -86183.7 0 -25852.1 -89704.9 0 -25784.6 -93217.3 0 -25714.1 -96720.5 0 -25640.4 -100214 0 -25563.4 -103697 0 -25483.2 -107170 0 -25399.6 -110632 0 -25312.6 -114083 0 -25222.1 -117522 0 -25128.1 -120948 0 -25030.4 -124362 0 -24928.9 -127762 0 -24823.6 -131149 0 -24714.4 -134521 0 -24601.1 -137878 0 -24483.7 -141221 0 -24362.1 -144547 0 -24236 -147856 0 -24105.5 -151149 0 -23970.4 -154423 0 -23830.5 -157680 0 -23685.6 -160918 0 -23535.7 -164135 0 -23380.6 -167333 0 -23220.1 -170510 0 -23054 -173665 0 -22882.1 -176797 0 -22704.2 -179907 0 -22520.2 -182992 0 -22329.7 -186053 0 -22132.5 -189087 0 -21928.5 -192096 0 -21717.2 -195076 0 -21498.5 -198029 0 -21272 -200952 0 -21037.4 -203844 0 -20794.3 -206705 0 -20542.3 -209534 0 -20281.2 -212328 0 -20010.3 -215088 0 -19729.4 -217811 0 -19437.8 -220497 0 -19135.1 -223144 0 -18820.7 -225751 0 -18494 -228315 0 -18154.3 -230836 0 -17800.9 -233312 0 -17433.1 -235741 0 -17050 -238122 0 -16650.7 -240452 0 -16234.2 -242729 0 -15799.4 -244951 0 -15345.2 -247116 0 -14870.2 -249222 0 -14373 -251265 0 -13852.1 -253244 0 -13305.7 -255155 0 -12731.9 -256995 0 -12128.5 -258762 0 -11493.2 -260451 0 -10823.3 -262059 0 -10115.9 -263582 0 -9367.49 -265016 0 -8574.34 -266356 0 -7732.13 -267598 0 -6835.96 -268737 0 -5880.19 -269766 0 -4858.38 -270681 0 -3763.09 -271475 0 -2585.7 -272142 0 -1316.15 -272675 0 57.2821 -273066 0 1548.39 -273309 0 3173.43 -273397 0 4951.63 -273322 0 6905.8 -273079 0 9063.03 -272663 0 11455.4 -272071 0 14120.8 -271305 0 17103.4 -270373 0 20453.6 -269293 0 24227.2 -268095 0 28481.8 -266828 0 33271.2 -265565 0 38634.8 -264406 0 44584.1 -263476 0 51088.2 -262918 0 58063.8 -262869 0 65377.2 -263434 0 72863.9 -264660 0 80361.2 -266520 0 87740.3 -268932 0 94920.3 -271795 0 101860 -275011 0 108539 -278496 0 114961 -282166 0 121151 -285952 0 127140 -289829 0 132940 -293758 0 138583 -297710 0 144095 -301674 0 149492 -305636 0 154795 -309590 0 -29315.3 0 0 -29313.9 -3666.95 0 -29309.8 -7333.57 0 -29302.9 -10999.5 0 -29293.3 -14664.4 0 -29280.9 -18328 0 -29265.7 -21989.9 0 -29247.7 -25649.7 0 -29227 -29307.2 0 -29203.4 -32962 0 -29177 -36613.6 0 -29147.8 -40261.9 0 -29115.6 -43906.4 0 -29080.6 -47546.8 0 -29042.7 -51182.7 0 -29001.8 -54813.8 0 -28957.9 -58439.6 0 -28911.1 -62059.9 0 -28861.1 -65674.3 0 -28808.1 -69282.3 0 -28751.9 -72883.7 0 -28692.6 -76477.9 0 -28630.1 -80064.7 0 -28564.2 -83643.6 0 -28495.1 -87214.2 0 -28422.6 -90776.2 0 -28346.6 -94329 0 -28267.1 -97872.3 0 -28184.1 -101406 0 -28097.4 -104929 0 -28007 -108441 0 -27912.8 -111942 0 -27814.8 -115431 0 -27712.8 -118907 0 -27606.7 -122372 0 -27496.5 -125822 0 -27382.1 -129259 0 -27263.3 -132682 0 -27140 -136090 0 -27012.2 -139483 0 -26879.6 -142860 0 -26742.2 -146220 0 -26599.9 -149563 0 -26452.4 -152889 0 -26299.7 -156196 0 -26141.5 -159484 0 -25977.7 -162753 0 -25808.2 -166002 0 -25632.6 -169229 0 -25450.9 -172435 0 -25262.9 -175618 0 -25068.2 -178778 0 -24866.6 -181914 0 -24658 -185024 0 -24442 -188110 0 -24218.4 -191168 0 -23986.8 -194199 0 -23747 -197202 0 -23498.5 -200175 0 -23241.1 -203117 0 -22974.4 -206028 0 -22697.8 -208906 0 -22411.1 -211750 0 -22113.7 -214559 0 -21805.1 -217332 0 -21484.8 -220067 0 -21152.2 -222763 0 -20806.7 -225419 0 -20447.6 -228032 0 -20074.1 -230602 0 -19685.6 -233126 0 -19281.1 -235604 0 -18859.7 -238033 0 -18420.4 -240410 0 -17962.1 -242736 0 -17483.7 -245006 0 -16983.8 -247219 0 -16461.1 -249372 0 -15913.8 -251463 0 -15340.4 -253490 0 -14738.9 -255449 0 -14107.2 -257337 0 -13442.9 -259152 0 -12743.5 -260890 0 -12006.1 -262547 0 -11227.3 -264120 0 -10403.5 -265604 0 -9530.64 -266995 0 -8603.96 -268290 0 -7618.16 -269482 0 -6567.18 -270568 0 -5444.07 -271541 0 -4240.87 -272396 0 -2948.38 -273128 0 -1555.94 -273730 0 -51.1726 -274197 0 1580.33 -274522 0 3355.43 -274701 0 5293.84 -274729 0 7418.63 -274602 0 9756.75 -274320 0 12339.5 -273883 0 15202.8 -273300 0 18387.4 -272583 0 21937.8 -271757 0 25900.3 -270859 0 30319.6 -269941 0 35232 -269078 0 40656.7 -268362 0 46585.8 -267901 0 52975.6 -267809 0 59742.7 -268187 0 66771.6 -269102 0 73930.8 -270578 0 81096.3 -272586 0 88170.1 -275063 0 95087 -277931 0 101809 -281115 0 108320 -284539 0 114620 -288140 0 120727 -291863 0 126659 -295679 0 132430 -299552 0 138064 -303460 0 143583 -307388 0 149000 -311325 0 154332 -315261 0 159596 -319191 0 -31986.5 0 0 -31984.9 -3711.12 0 -31980.3 -7421.89 0 -31972.6 -11132 0 -31961.9 -14841 0 -31948.1 -18548.6 0 -31931.2 -22254.5 0 -31911.1 -25958.3 0 -31888 -29659.7 0 -31861.7 -33358.2 0 -31832.3 -37053.6 0 -31799.7 -40745.5 0 -31763.9 -44433.5 0 -31724.9 -48117.2 0 -31682.6 -51796.3 0 -31637 -55470.5 0 -31588.1 -59139.3 0 -31535.8 -62802.3 0 -31480.1 -66459.2 0 -31421 -70109.6 0 -31358.3 -73753.1 0 -31292.1 -77389.3 0 -31222.3 -81017.8 0 -31148.9 -84638.2 0 -31071.7 -88250.1 0 -30990.8 -91852.9 0 -30906 -95446.4 0 -30817.2 -99030.1 0 -30724.5 -102604 0 -30627.7 -106166 0 -30526.7 -109718 0 -30421.5 -113257 0 -30312 -116785 0 -30198 -120300 0 -30079.4 -123802 0 -29956.2 -127290 0 -29828.2 -130764 0 -29695.4 -134224 0 -29557.5 -137668 0 -29414.4 -141096 0 -29266.1 -144508 0 -29112.3 -147902 0 -28952.9 -151279 0 -28787.7 -154638 0 -28616.5 -157978 0 -28439.3 -161298 0 -28255.7 -164598 0 -28065.5 -167877 0 -27868.7 -171135 0 -27664.8 -174369 0 -27453.7 -177581 0 -27235.1 -180768 0 -27008.7 -183931 0 -26774.3 -187068 0 -26531.5 -190178 0 -26280 -193260 0 -26019.4 -196314 0 -25749.5 -199338 0 -25469.7 -202332 0 -25179.8 -205294 0 -24879.1 -208223 0 -24567.3 -211119 0 -24243.8 -213979 0 -23908 -216803 0 -23559.5 -219589 0 -23197.5 -222335 0 -22821.4 -225042 0 -22430.4 -227706 0 -22023.8 -230326 0 -21600.6 -232902 0 -21160 -235430 0 -20701 -237909 0 -20222.4 -240337 0 -19723.1 -242713 0 -19201.8 -245034 0 -18657.1 -247298 0 -18087.4 -249502 0 -17491 -251644 0 -16866 -253722 0 -16210.5 -255732 0 -15522 -257672 0 -14798.1 -259539 0 -14036 -261330 0 -13232.5 -263040 0 -12384.1 -264667 0 -11486.8 -266207 0 -10536.3 -267655 0 -9527.58 -269008 0 -8454.9 -270261 0 -7311.86 -271408 0 -6091.11 -272447 0 -4784.25 -273371 0 -3381.64 -274176 0 -1872.18 -274857 0 -243.09 -275408 0 1520.43 -275827 0 3435.48 -276108 0 5521.8