<?xml version="1.0"?> 
<VTKFile type="StructuredGrid" version="0.1"> 
<StructuredGrid WholeExtent="0 127 0 127 0 0"> 
<Piece Extent="0 127 0 127 0 0"> 
<PointData>
<DataArray type="Float32" Name="E" format="ascii" NumberOfComponents="3"> 
1412.23 0 0 382.2 -589.357 0 300.905 -372.629 0 170.46 -363.25 0 120.075 -306.986 0 72.1032 -281.175 0 41.9046 -250.922 0 17.4457 -227.882 0 -0.485908 -206.232 0 -14.5041 -187.498 0 -25.1853 -170.531 0 -33.4131 -155.375 0 -39.6562 -141.691 0 -44.3403 -129.35 0 -47.7665 -118.184 0 -50.1814 -108.073 0 -51.7768 -98.9029 0 -52.7084 -90.5794 0 -53.1016 -83.0163 0 -53.0588 -76.1388 0 -52.664 -69.8796 0 -51.9867 -64.1792 0 -51.0839 -58.9842 0 -50.0033 -54.2465 0 -48.7845 -49.9232 0 -47.4604 -45.9757 0 -46.0584 -42.3689 0 -44.6013 -39.0715 0 -43.1082 -36.0551 0 -41.595 -33.294 0 -40.0746 -30.7651 0 -38.5581 -28.4474 0 -37.0541 -26.3219 0 -35.5701 -24.3715 0 -34.1118 -22.5806 0 -32.6841 -20.9351 0 -31.2906 -19.4222 0 -29.9341 -18.0303 0 -28.617 -16.7489 0 -27.3407 -15.5685 0 -26.1062 -14.4803 0 -24.9143 -13.4764 0 -23.7651 -12.5498 0 -22.6586 -11.6938 0 -21.5946 -10.9026 0 -20.5726 -10.1708 0 -19.5918 -9.49342 0 -18.6516 -8.86602 0 -17.7509 -8.28452 0 -16.8887 -7.74521 0 -16.0641 -7.24469 0 -15.2759 -6.77987 0 -14.5229 -6.34793 0 -13.804 -5.94628 0 -13.118 -5.57257 0 -12.4637 -5.22463 0 -11.8399 -4.90048 0 -11.2454 -4.59833 0 -10.6791 -4.31651 0 -10.1399 -4.0535 0 -9.62653 -3.80791 0 -9.13802 -3.57845 0 -8.67328 -3.36396 0 -8.23128 -3.16334 0 -7.81101 -2.97561 0 -7.41151 -2.79985 0 -7.03184 -2.63521 0 -6.67109 -2.48092 0 -6.3284 -2.33625 0 -6.00293 -2.20056 0 -5.69388 -2.07322 0 -5.40046 -1.95367 0 -5.12194 -1.84139 0 -4.85761 -1.73589 0 -4.60678 -1.63672 0 -4.36881 -1.54347 0 -4.14307 -1.45575 0 -3.92897 -1.3732 0 -3.72594 -1.2955 0 -3.53344 -1.22232 0 -3.35094 -1.15339 0 -3.17796 -1.08843 0 -3.01403 -1.0272 0 -2.8587 -0.969454 0 -2.71153 -0.914984 0 -2.57214 -0.86359 0 -2.44013 -0.815077 0 -2.31513 -0.769269 0 -2.19681 -0.725999 0 -2.08481 -0.685115 0 -1.97885 -0.646474 0 -1.87861 -0.60993 0 -1.7838 -0.575364 0 -1.69418 -0.542657 0 -1.60947 -0.511688 0 -1.52944 -0.482361 0 -1.45386 -0.454568 0 -1.38252 -0.428225 0 -1.31522 -0.403234 0 -1.25174 -0.379519 0 -1.19193 -0.356997 0 -1.1356 -0.335598 0 -1.0826 -0.315248 0 -1.03276 -0.295885 0 -0.985953 -0.277438 0 -0.942037 -0.259863 0 -0.900884 -0.24309 0 -0.862375 -0.227066 0 -0.826399 -0.211749 0 -0.792851 -0.197086 0 -0.761637 -0.183028 0 -0.732663 -0.169532 0 -0.705842 -0.15656 0 -0.681104 -0.144065 0 -0.65837 -0.132012 0 -0.637575 -0.120366 0 -0.618663 -0.109086 0 -0.601572 -0.0981383 0 -0.586254 -0.0874915 0 -0.572668 -0.0771108 0 -0.56077 -0.0669684 0 -0.55053 -0.0570283 0 -0.541913 -0.0472603 0 -0.534896 -0.0376372 0 -0.529459 -0.0281272 0 -0.52558 -0.018703 0 -0.523262 -0.00933886 0 -0.522482 -9.53674e-07 0 1143.61 -2.49967e-06 0 453.483 -478.029 0 290.992 -366.147 0 185.651 -341.729 0 123.104 -300.456 0 78.5237 -273.049 0 45.9516 -246.385 0 21.6412 -223.828 0 2.99923 -203.389 0 -11.2841 -185.203 0 -22.3317 -168.808 0 -30.8251 -154.038 0 -37.3249 -140.684 0 -42.2283 -128.598 0 -45.8538 -117.64 0 -48.4458 -107.696 0 -50.2009 -98.6624 0 -51.276 -90.4489 0 -51.7985 -82.9753 0 -51.8726 -76.1701 0 -51.5835 -69.9694 0 -51.0016 -64.3158 0 -50.1854 -59.158 0 -49.1833 -54.4496 0 -48.0356 -50.149 0 -46.776 -46.2185 0 -45.4326 -42.6243 0 -44.0288 -39.3355 0 -42.5841 -36.3245 0 -41.1149 -33.5663 0 -39.6346 -31.0379 0 -38.1545 -28.719 0 -36.6837 -26.5908 0 -35.23 -24.6365 0 -33.7993 -22.8407 0 -32.3967 -21.1895 0 -31.0262 -19.6703 0 -29.6908 -18.2716 0 -28.3928 -16.9831 0 -27.134 -15.7952 0 -25.9155 -14.6995 0 -24.7383 -13.688 0 -23.6025 -12.7537 0 -22.5084 -11.8901 0 -21.4556 -11.0913 0 -20.4439 -10.3519 0 -19.4727 -9.6672 0 -18.5411 -9.03259 0 -17.6484 -8.44404 0 -16.7937 -7.89786 0 -15.9758 -7.39068 0 -15.1939 -6.91939 0 -14.4467 -6.48119 0 -13.7331 -6.07349 0 -13.0519 -5.69394 0 -12.4021 -5.34038 0 -11.7825 -5.01082 0 -11.1919 -4.70347 0 -10.6292 -4.41666 0 -10.0932 -4.14886 0 -9.58296 -3.89868 0 -9.0973 -3.66482 0 -8.63519 -3.44612 0 -8.19564 -3.24147 0 -7.77764 -3.0499 0 -7.38025 -2.87046 0 -7.00255 -2.70231 0 -6.64363 -2.54467 0 -6.30265 -2.39681 0 -5.97876 -2.25807 0 -5.67119 -2.12783 0 -5.37915 -2.00551 0 -5.10192 -1.8906 0 -4.83879 -1.78259 0 -4.58909 -1.68103 0 -4.35217 -1.58551 0 -4.12741 -1.49563 0 -3.91423 -1.41102 0 -3.71206 -1.33136 0 -3.52036 -1.25632 0 -3.33862 -1.18562 0 -3.16635 -1.11898 0 -3.00308 -1.05614 0 -2.84836 -0.996881 0 -2.70179 -0.940969 0 -2.56294 -0.8882 0 -2.43144 -0.83838 0 -2.30693 -0.791331 0 -2.18905 -0.746883 0 -2.07749 -0.704881 0 -1.97192 -0.665171 0 -1.87205 -0.627616 0 -1.77761 -0.592088 0 -1.68831 -0.558464 0 -1.60391 -0.526626 0 -1.52418 -0.496471 0 -1.44888 -0.467891 0 -1.37779 -0.440796 0 -1.31073 -0.415094 0 -1.24748 -0.390697 0 -1.18788 -0.367528 0 -1.13176 -0.345511 0 -1.07894 -0.324573 0 -1.02928 -0.304646 0 -0.982633 -0.285668 0 -0.93887 -0.267576 0 -0.897861 -0.250311 0 -0.859486 -0.233819 0 -0.823635 -0.21805 0 -0.790203 -0.202957 0 -0.759096 -0.188483 0 -0.730222 -0.17459 0 -0.703494 -0.161231 0 -0.678841 -0.148369 0 -0.656185 -0.135959 0 -0.635461 -0.123964 0 -0.616613 -0.112349 0 -0.599581 -0.101075 0 -0.584316 -0.0901105 0 -0.570776 -0.0794201 0 -0.558918 -0.0689718 0 -0.548712 -0.0587348 0 -0.540125 -0.0486759 0 -0.533132 -0.0387647 0 -0.527713 -0.0289692 0 -0.523849 -0.0192651 0 -0.521537 -0.00961783 0 -0.520761 8.23289e-07 0 954.515 2.14577e-06 0 482.194 -393.788 0 291.087 -350.107 0 194.467 -323.923 0 127.739 -291.978 0 83.6185 -265.585 0 50.1275 -241.405 0 25.4826 -219.84 0 6.41218 -200.412 0 -8.20005 -182.875 0 -19.5498 -167.022 0 -28.3078 -152.659 0 -35.0442 -139.635 0 -40.1594 -127.809 0 -43.9749 -117.063 0 -46.738 -107.289 0 -48.6474 -98.3946 0 -49.8618 -90.294 0 -50.5103 -82.9122 0 -50.6984 -76.1815 0 -50.5125 -70.041 0 -50.0243 -64.436 0 -49.2931 -59.317 0 -48.368 -54.6392 0 -47.2904 -50.3625 0 -46.0944 -46.4503 0 -44.8088 -42.8695 0 -43.4576 -39.5904 0 -42.0608 -36.5857 0 -40.6351 -33.8309 0 -39.1945 -31.3039 0 -37.7506 -28.9844 0 -36.3128 -26.854 0 -34.8891 -24.8963 0 -33.4859 -23.096 0 -32.1083 -21.4395 0 -30.7607 -19.9144 0 -29.4461 -18.5093 0 -28.1672 -17.2139 0 -26.9259 -16.0189 0 -25.7235 -14.9159 0 -24.5609 -13.897 0 -23.4385 -12.9552 0 -22.3567 -12.0841 0 -21.3153 -11.2779 0 -20.3139 -10.5313 0 -19.3522 -9.83933 0 -18.4294 -9.19763 0 -17.5447 -8.60217 0 -16.6974 -8.04924 0 -15.8864 -7.53548 0 -15.1107 -7.05782 0 -14.3693 -6.61345 0 -13.661 -6.19978 0 -12.9848 -5.81446 0 -12.3396 -5.45534 0 -11.7242 -5.12044 0 -11.1375 -4.80794 0 -10.5784 -4.51618 0 -10.0458 -4.24364 0 -9.53858 -3.9889 0 -9.05579 -3.75069 0 -8.59636 -3.52782 0 -8.15928 -3.31918 0 -7.74359 -3.12379 0 -7.34835 -2.9407 0 -6.97264 -2.76907 0 -6.61558 -2.6081 0 -6.27633 -2.45707 0 -5.95406 -2.31531 0 -5.64798 -2.18218 0 -5.35735 -2.05711 0 -5.08143 -1.93958 0 -4.81953 -1.82907 0 -4.57097 -1.72514 0 -4.33512 -1.62736 0 -4.11137 -1.53533 0 -3.89912 -1.44867 0 -3.69783 -1.36707 0 -3.50695 -1.29018 0 -3.32598 -1.21771 0 -3.15443 -1.1494 0 -2.99184 -1.08497 0 -2.83777 -1.0242 0 -2.69178 -0.966846 0 -2.5535 -0.912711 0 -2.42253 -0.861594 0 -2.29851 -0.813311 0 -2.1811 -0.767688 0 -2.06997 -0.724568 0 -1.96481 -0.6838 0 -1.86532 -0.645236 0 -1.77124 -0.60875 0 -1.68228 -0.574216 0 -1.5982 -0.54151 0 -1.51877 -0.510529 0 -1.44375 -0.481166 0 -1.37293 -0.453324 0 -1.30611 -0.42691 0 -1.2431 -0.401837 0 -1.18372 -0.378023 0 -1.1278 -0.355391 0 -1.07517 -0.333866 0 -1.02569 -0.31338 0 -0.979217 -0.293867 0 -0.935612 -0.275263 0 -0.89475 -0.25751 0 -0.856513 -0.240552 0 -0.820791 -0.224335 0 -0.787479 -0.208809 0 -0.756482 -0.193924 0 -0.727711 -0.179632 0 -0.701078 -0.165893 0 -0.676512 -0.15266 0 -0.653935 -0.139893 0 -0.633286 -0.127553 0 -0.614503 -0.115602 0 -0.597531 -0.104004 0 -0.58232 -0.0927221 0 -0.568828 -0.0817242 0 -0.557012 -0.0709741 0 -0.546842 -0.0604394 0 -0.538284 -0.0500887 0 -0.531316 -0.0398902 0 -0.525915 -0.0298111 0 -0.522066 -0.0198232 0 -0.519761 -0.00989768 0 -0.518989 -1.66893e-06 0 817.306 1.04308e-07 0 486.955 -328.825 0 294.131 -329.585 0 200.059 -307.905 0 132.56 -282.608 0 88.0113 -258.353 0 54.1533 -236.21 0 29.0883 -215.834 0 9.69904 -197.352 0 -5.23087 -180.499 0 -16.8502 -165.182 0 -25.8581 -151.237 0 -32.8164 -138.545 0 -38.1333 -126.985 0 -42.1306 -116.453 0 -45.0584 -106.854 0 -47.1167 -98.1006 0 -48.4662 -90.1154 0 -49.2373 -82.8275 0 -49.5365 -76.1734 0 -49.4516 -70.095 0 -49.0551 -64.5401 0 -48.4071 -59.4614 0 -47.5578 -54.8156 0 -46.549 -50.564 0 -45.4157 -46.6711 0 -44.1872 -43.1048 0 -42.8879 -39.8361 0 -41.5384 -36.8386 0 -40.1559 -34.0881 0 -38.7546 -31.563 0 -37.3465 -29.2435 0 -35.9414 -27.1115 0 -34.5475 -25.1508 0 -33.1716 -23.3466 0 -31.819 -21.6852 0 -30.494 -20.1545 0 -29.2003 -18.7433 0 -27.9405 -17.4414 0 -26.7166 -16.2396 0 -25.5301 -15.1295 0 -24.3821 -14.1035 0 -23.2732 -13.1544 0 -22.2037 -12.2761 0 -21.1736 -11.4627 0 -20.1826 -10.7088 0 -19.2304 -10.0098 0 -18.3164 -9.36115 0 -17.4398 -8.75888 0 -16.5999 -8.19931 0 -15.7957 -7.67909 0 -15.0264 -7.19515 0 -14.2908 -6.74468 0 -13.5879 -6.32512 0 -12.9167 -5.93411 0 -12.2761 -5.5695 0 -11.6649 -5.22931 0 -11.0821 -4.91172 0 -10.5267 -4.61507 0 -9.99743 -4.33783 0 -9.4934 -4.07859 0 -9.01352 -3.83605 0 -8.55679 -3.60904 0 -8.12222 -3.39645 0 -7.70887 -3.19727 0 -7.3158 -3.01056 0 -6.94211 -2.83547 0 -6.58694 -2.6712 0 -6.24944 -2.51703 0 -5.92881 -2.37225 0 -5.62427 -2.23626 0 -5.33507 -2.10846 0 -5.06048 -1.98833 0 -4.79982 -1.87534 0 -4.55243 -1.76905 0 -4.31767 -1.66902 0 -4.09494 -1.57485 0 -3.88365 -1.48616 0 -3.68326 -1.40262 0 -3.49322 -1.32389 0 -3.31303 -1.24967 0 -3.14222 -1.17969 0 -2.98032 -1.11368 0 -2.8269 -1.0514 0 -2.68153 -0.99262 0 -2.54381 -0.937124 0 -2.41338 -0.884713 0 -2.28987 -0.835198 0 -2.17293 -0.788409 0 -2.06225 -0.74418 0 -1.95751 -0.702354 0 -1.85842 -0.662788 0 -1.7647 -0.625348 0 -1.67609 -0.589903 0 -1.59234 -0.556337 0 -1.51321 -0.524535 0 -1.43848 -0.49439 0 -1.36793 -0.465804 0 -1.30137 -0.438683 0 -1.2386 -0.412935 0 -1.17944 -0.388479 0 -1.12373 -0.365234 0 -1.0713 -0.343125 0 -1.02201 -0.322082 0 -0.975707 -0.302036 0 -0.932264 -0.282922 0 -0.891553 -0.264683 0 -0.853457 -0.247259 0 -0.817867 -0.230596 0 -0.784677 -0.214641 0 -0.753795 -0.199344 0 -0.725129 -0.184657 0 -0.698593 -0.170534 0 -0.674117 -0.156934 0 -0.651623 -0.143812 0 -0.631048 -0.131129 0 -0.612334 -0.118845 0 -0.595423 -0.106923 0 -0.580268 -0.0953253 0 -0.566824 -0.0840176 0 -0.555051 -0.0729666 0 -0.544918 -0.062137 0 -0.536391 -0.0514951 0 -0.529448 -0.0410102 0 -0.524067 -0.0306491 0 -0.520232 -0.0203808 0 -0.517935 -0.0101754 0 -0.517165 1.53482e-06 0 714.83 -9.23872e-07 0 478.49 -278.123 0 296.932 -307.308 0 203.826 -292.858 0 136.992 -272.835 0 91.9386 -251.195 0 57.9309 -230.9 0 32.4961 -211.788 0 12.8429 -194.229 0 -2.3713 -178.077 0 -14.2365 -163.296 0 -23.4759 -149.774 0 -30.6428 -137.417 0 -36.1508 -126.127 0 -40.3215 -115.813 0 -43.4074 -106.391 0 -45.6095 -97.7813 0 -47.0897 -89.9137 0 -47.9798 -82.722 0 -48.3873 -76.1462 0 -48.4009 -70.1317 0 -48.0941 -64.6286 0 -47.5278 -59.5915 0 -46.7528 -54.979 0 -45.8118 -50.7536 0 -44.7402 -46.8811 0 -43.5679 -43.3303 0 -42.3199 -40.073 0 -41.0171 -37.0833 0 -39.6772 -34.3378 0 -38.3149 -31.8153 0 -36.9423 -29.4964 0 -35.5696 -27.3634 0 -34.2054 -25.4002 0 -32.8565 -23.5924 0 -31.5287 -21.9266 0 -30.2264 -20.3907 0 -28.9534 -18.9737 0 -27.7125 -17.6656 0 -26.506 -16.4573 0 -25.3355 -15.3404 0 -24.2021 -14.3074 0 -23.1066 -13.3513 0 -22.0494 -12.4659 0 -21.0306 -11.6454 0 -20.05 -10.8846 0 -19.1074 -10.1786 0 -18.2021 -9.52314 0 -17.3337 -8.91419 0 -16.5012 -8.34809 0 -15.704 -7.82151 0 -14.9409 -7.33137 0 -14.2112 -6.8749 0 -13.5138 -6.44953 0 -12.8476 -6.0529 0 -12.2115 -5.68286 0 -11.6047 -5.33743 0 -11.0259 -5.01481 0 -10.4741 -4.71331 0 -9.94828 -4.43142 0 -9.44741 -4.16772 0 -8.97048 -3.9209 0 -8.51648 -3.68979 0 -8.08446 -3.47327 0 -7.67348 -3.27033 0 -7.28261 -3.08004 0 -6.91098 -2.90152 0 -6.55772 -2.73397 0 -6.222 -2.57667 0 -5.90304 -2.42891 0 -5.60005 -2.29007 0 -5.3123 -2.15956 0 -5.03907 -2.03684 0 -4.77968 -1.92139 0 -4.53348 -1.81276 0 -4.29983 -1.71049 0 -4.07814 -1.61419 0 -3.86782 -1.52348 0 -3.66834 -1.43801 0 -3.47916 -1.35745 0 -3.29978 -1.28149 0 -3.12972 -1.20985 0 -2.96853 -1.14227 0 -2.81577 -1.07849 0 -2.67102 -1.01829 0 -2.53389 -0.961435 0 -2.404 -0.907736 0 -2.28101 -0.857 0 -2.16456 -0.809049 0 -2.05433 -0.763712 0 -1.95002 -0.720835 0 -1.85133 -0.68027 0 -1.75799 -0.641879 0 -1.66974 -0.605532 0 -1.58632 -0.571105 0 -1.50751 -0.538487 0 -1.43308 -0.507564 0 -1.36281 -0.478238 0 -1.2965 -0.450411 0 -1.23398 -0.423993 0 -1.17505 -0.398896 0 -1.11956 -0.37504 0 -1.06733 -0.352349 0 -1.01823 -0.330751 0 -0.972101 -0.310174 0 -0.928825 -0.290555 0 -0.88827 -0.271831 0 -0.850319 -0.253942 0 -0.814864 -0.236833 0 -0.7818 -0.220451 0 -0.751034 -0.204744 0 -0.722476 -0.189662 0 -0.696041 -0.175161 0 -0.671656 -0.161194 0 -0.649247 -0.147718 0 -0.628749 -0.134692 0 -0.610105 -0.122076 0 -0.593257 -0.109829 0 -0.578159 -0.0979188 0 -0.564765 -0.0863048 0 -0.553037 -0.0749529 0 -0.54294 -0.0638288 0 -0.534446 -0.0528978 0 -0.527528 -0.0421269 0 -0.522167 -0.0314833 0 -0.518347 -0.0209371 0 -0.516058 -0.0104528 0 -0.515292 -9.08971e-07 0 636.062 1.2368e-06 0 463.108 -237.998 0 298.182 -284.95 0 206.392 -278.395 0 140.824 -262.941 0 95.4855 -244.051 0 61.4304 -225.529 0 35.7165 -207.698 0 15.8394 -191.057 0 0.379201 -175.609 0 -11.7098 -161.369 0 -21.1617 -148.273 0 -28.5239 -136.255 0 -34.2122 -125.237 0 -38.5483 -115.143 0 -41.7855 -105.9 0 -44.126 -97.4375 0 -45.7327 -89.6897 0 -46.7382 -82.5961 0 -47.2511 -76.1006 0 -47.3608 -70.1515 0 -47.1416 -64.7016 0 -46.6553 -59.7075 0 -45.9533 -55.1296 0 -45.0788 -50.9316 0 -44.068 -47.0805 0 -42.9511 -43.5461 0 -41.7537 -40.301 0 -40.4971 -37.3199 0 -39.1993 -34.5802 0 -37.8755 -32.0609 0 -36.538 -29.7431 0 -35.1976 -27.6096 0 -33.8627 -25.6445 0 -32.5408 -23.8336 0 -31.2375 -22.1637 0 -29.9578 -20.6229 0 -28.7054 -19.2005 0 -27.4834 -17.8865 0 -26.2943 -16.6719 0 -25.1396 -15.5485 0 -24.0208 -14.5087 0 -22.9387 -13.5458 0 -21.8938 -12.6536 0 -20.8863 -11.8262 0 -19.9162 -11.0585 0 -18.9831 -10.3457 0 -18.0867 -9.68359 0 -17.2263 -9.06808 0 -16.4014 -8.49556 0 -15.611 -7.96271 0 -14.8544 -7.46649 0 -14.1306 -7.0041 0 -13.4386 -6.57298 0 -12.7774 -6.1708 0 -12.1461 -5.7954 0 -11.5435 -5.4448 0 -10.9687 -5.1172 0 -10.4207 -4.81091 0 -9.8983 -4.52441 0 -9.40064 -4.25629 0 -8.92668 -4.00524 0 -8.47545 -3.77006 0 -8.04601 -3.54965 0 -7.63742 -3.34299 0 -7.24878 -3.14913 0 -6.87923 -2.9672 0 -6.52791 -2.79641 0 -6.19401 -2.63599 0 -5.87673 -2.48528 0 -5.57533 -2.34361 0 -5.28905 -2.2104 0 -5.0172 -2.08511 0 -4.7591 -1.96722 0 -4.51411 -1.85625 0 -4.28159 -1.75176 0 -4.06096 -1.65335 0 -3.85164 -1.56063 0 -3.65308 -1.47324 0 -3.46478 -1.39086 0 -3.28621 -1.31317 0 -3.11692 -1.23988 0 -2.95645 -1.17073 0 -2.80437 -1.10546 0 -2.66026 -1.04384 0 -2.52372 -0.985641 0 -2.3944 -0.930663 0 -2.27193 -0.878708 0 -2.15598 -0.829599 0 -2.04622 -0.783163 0 -1.94234 -0.739239 0 -1.84407 -0.697679 0 -1.75112 -0.658343 0 -1.66323 -0.621096 0 -1.58016 -0.585815 0 -1.50167 -0.552381 0 -1.42753 -0.520684 0 -1.35755 -0.490621 0 -1.29151 -0.462091 0 -1.22924 -0.435004 0 -1.17055 -0.409269 0 -1.11527 -0.384808 0 -1.06325 -0.361537 0 -1.01435 -0.339384 0 -0.968402 -0.31828 0 -0.925296 -0.298155 0 -0.8849 -0.278948 0 -0.847098 -0.260597 0 -0.811782 -0.243044 0 -0.778847 -0.226238 0 -0.7482 -0.210122 0 -0.719753 -0.194649 0 -0.693421 -0.179767 0 -0.66913 -0.165437 0 -0.646807 -0.151608 0 -0.626389 -0.13824 0 -0.607816 -0.125294 0 -0.591034 -0.112726 0 -0.575994 -0.100502 0 -0.562651 -0.0885823 0 -0.550968 -0.0769322 0 -0.54091 -0.0655137 0 -0.532449 -0.0542939 0 -0.525557 -0.0432393 0 -0.520216 -0.0323153 0 -0.516411 -0.0214891 0 -0.514131 -0.0107293 0 -0.513367 1.68383e-06 0 573.869 -2.563e-06 0 444.454 -205.843 0 297.545 -263.426 0 208.024 -264.389 0 144.008 -253.077 0 98.6756 -236.912 0 64.6494 -220.128 0 38.7501 -203.569 0 18.6886 -187.845 0 3.01991 -173.101 0 -9.27023 -159.403 0 -18.916 -146.736 0 -26.4603 -135.059 0 -32.3182 -124.316 0 -36.8112 -114.446 0 -40.1932 -105.384 0 -42.6668 -97.0701 0 -44.3956 -89.4441 0 -45.5129 -82.4504 0 -46.1281 -76.0368 0 -46.3315 -70.1548 0 -46.198 -64.7596 0 -45.79 -59.8099 0 -45.1595 -55.2676 0 -44.3504 -51.0981 0 -43.3993 -47.2695 0 -42.3369 -43.7524 0 -41.1894 -40.5202 0 -39.9784 -37.5486 0 -38.7223 -34.8153 0 -37.4365 -32.2999 0 -36.1339 -29.9838 0 -34.8253 -27.8503 0 -33.5197 -25.8837 0 -32.2244 -24.07 0 -30.9456 -22.3965 0 -29.6882 -20.8513 0 -28.4564 -19.4237 0 -27.2533 -18.1041 0 -26.0814 -16.8835 0 -24.9426 -15.7538 0 -23.8384 -14.7076 0 -22.7696 -13.7381 0 -21.737 -12.8391 0 -20.7408 -12.005 0 -19.7811 -11.2306 0 -18.8576 -10.5112 0 -17.97 -9.84251 0 -17.1178 -9.22055 0 -16.3004 -8.64172 0 -15.517 -8.10271 0 -14.7668 -7.60048 0 -14.0489 -7.13225 0 -13.3624 -6.69548 0 -12.7063 -6.28782 0 -12.0796 -5.90712 0 -11.4814 -5.55142 0 -10.9107 -5.21888 0 -10.3664 -4.90786 0 -9.84751 -4.6168 0 -9.35308 -4.3443 0 -8.88213 -4.08904 0 -8.4337 -3.84984 0 -8.00686 -3.62557 0 -7.6007 -3.41521 0 -7.21433 -3.21782 0 -6.84688 -3.03252 0 -6.49753 -2.8585 0 -6.16547 -2.695 0 -5.84991 -2.54134 0 -5.5501 -2.39687 0 -5.26532 -2.26098 0 -4.99488 -2.13314 0 -4.73809 -2.01281 0 -4.49432 -1.89952 0 -4.26296 -1.79283 0 -4.0434 -1.69232 0 -3.83509 -1.5976 0 -3.63749 -1.50831 0 -3.45007 -1.42411 0 -3.27234 -1.3447 0 -3.10384 -1.26977 0 -2.9441 -1.19906 0 -2.79271 -1.13231 0 -2.64924 -1.06928 0 -2.51332 -1.00974 0 -2.38457 -0.953487 0 -2.26264 -0.900324 0 -2.14719 -0.850061 0 -2.03791 -0.80253 0 -1.93448 -0.757566 0 -1.83663 -0.715016 0 -1.74408 -0.674737 0 -1.65656 -0.636596 0 -1.57384 -0.600462 0 -1.49568 -0.566219 0 -1.42185 -0.53375 0 -1.35216 -0.502953 0 -1.2864 -0.473724 0 -1.22438 -0.445972 0 -1.16593 -0.419604 0 -1.11088 -0.394536 0 -1.05908 -0.370688 0 -1.01037 -0.347985 0 -0.96461 -0.326355 0 -0.921678 -0.305728 0 -0.881445 -0.286039 0 -0.843795 -0.267228 0 -0.808621 -0.249234 0 -0.775818 -0.232003 0 -0.745294 -0.215481 0 -0.71696 -0.199615 0 -0.690733 -0.184359 0 -0.666539 -0.169664 0 -0.644305 -0.155483 0 -0.623968 -0.141777 0 -0.605469 -0.128499 0 -0.588752 -0.115611 0 -0.573772 -0.103075 0 -0.560482 -0.0908513 0 -0.548845 -0.0789025 0 -0.538828 -0.0671926 0 -0.530399 -0.0556866 0 -0.523535 -0.0443473 0 -0.518215 -0.0331428 0 -0.514425 -0.0220404 0 -0.512153 -0.0110027 0 -0.511394 -3.96371e-06 0 523.542 2.47359e-06 0 424.616 -179.758 0 295.124 -243.216 0 208.841 -250.829 0 146.563 -243.333 0 101.514 -229.795 0 67.5943 -214.717 0 41.5963 -199.411 0 21.3919 -184.602 0 5.55023 -170.559 0 -6.918 -157.404 0 -16.7395 -145.166 0 -24.4522 -133.832 0 -30.4692 -123.367 0 -35.1109 -113.721 0 -38.6309 -104.843 0 -41.2321 -96.6799 0 -43.0786 -89.1777 0 -44.3042 -82.2856 0 -45.0188 -75.9556 0 -45.3134 -70.1421 0 -45.2635 -64.8029 0 -44.932 -59.8987 0 -44.3716 -55.3934 0 -43.6267 -51.2534 0 -42.7342 -47.4481 0 -41.7256 -43.9492 0 -40.6272 -40.7309 0 -39.4612 -37.7694 0 -38.2462 -35.0431 0 -36.9981 -32.5322 0 -35.73 -30.2185 0 -34.453 -28.0854 0 -33.1762 -26.1178 0 -31.9074 -24.3019 0 -30.6529 -22.6251 0 -29.4179 -21.0757 0 -28.2064 -19.6434 0 -27.0221 -18.3185 0 -25.8674 -17.0921 0 -24.7444 -15.9564 0 -23.6547 -14.9039 0 -22.5993 -13.9279 0 -21.579 -13.0224 0 -20.5941 -12.1818 0 -19.6448 -11.4009 0 -18.7309 -10.675 0 -17.8522 -9.99987 0 -17.0082 -9.3716 0 -16.1983 -8.78657 0 -15.4219 -8.24149 0 -14.6781 -7.73335 0 -13.9661 -7.25937 0 -13.2851 -6.81702 0 -12.6342 -6.40395 0 -12.0123 -6.01802 0 -11.4185 -5.65726 0 -10.8518 -5.31986 0 -10.3113 -5.00414 0 -9.7959 -4.70857 0 -9.30474 -4.43174 0 -8.83683 -4.17232 0 -8.39124 -3.92912 0 -7.96703 -3.70103 0 -7.56333 -3.48701 0 -7.17924 -3.28612 0 -6.81394 -3.09746 0 -6.46658 -2.92023 0 -6.13638 -2.75368 0 -5.82256 -2.5971 0 -5.52438 -2.44984 0 -5.24112 -2.3113 0 -4.9721 -2.18092 0 -4.71665 -2.05817 0 -4.47413 -1.94258 0 -4.24394 -1.8337 0 -4.02548 -1.7311 0 -3.8182 -1.63439 0 -3.62156 -1.54321 0 -3.43504 -1.45721 0 -3.25817 -1.37608 0 -3.09046 -1.29953 0 -2.93147 -1.22727 0 -2.78078 -1.15904 0 -2.63798 -1.0946 0 -2.50268 -1.03373 0 -2.37452 -0.976212 0 -2.25314 -0.921841 0 -2.1382 -0.870435 0 -2.02941 -0.821812 0 -1.92644 -0.775812 0 -1.82902 -0.732277 0 -1.73687 -0.691062 0 -1.64973 -0.652028 0 -1.56737 -0.615047 0 -1.48954 -0.579997 0 -1.41604 -0.546762 0 -1.34664 -0.515233 0 -1.28116 -0.485309 0 -1.2194 -0.456893 0 -1.1612 -0.429893 0 -1.10638 -0.404224 0 -1.0548 -0.379801 0 -1.00629 -0.35655 0 -0.960724 -0.334395 0 -0.91797 -0.313267 0 -0.877905 -0.293101 0 -0.84041 -0.27383 0 -0.805381 -0.255398 0 -0.772714 -0.237743 0 -0.742315 -0.220817 0 -0.714098 -0.204562 0 -0.687979 -0.188931 0 -0.663883 -0.173873 0 -0.64174 -0.159343 0 -0.621486 -0.145297 0 -0.603062 -0.131692 0 -0.586414 -0.118485 0 -0.571495 -0.105638 0 -0.558259 -0.0931112 0 -0.546669 -0.0808661 0 -0.536692 -0.0688644 0 -0.528298 -0.0570719 0 -0.521461 -0.0454512 0 -0.516164 -0.0339686 0 -0.512389 -0.022588 0 -0.510126 -0.0112773 0 -0.50937 3.8743e-06 0 481.916 -9.23872e-07 0 404.762 -158.354 0 291.201 -224.526 0 208.916 -237.751 0 148.529 -233.768 0 104.003 -222.721 0 70.2738 -209.314 0 44.2551 -195.235 0 23.9508 -181.333 0 7.96997 -167.987 0 -4.65301 -155.374 0 -14.6324 -143.566 0 -22.5001 -132.577 0 -28.6655 -122.39 0 -33.4475 -112.971 0 -37.0988 -104.279 0 -39.8223 -96.2679 0 -41.782 -88.891 0 -43.1123 -82.1023 0 -43.9233 -75.8572 0 -44.3066 -70.1137 0 -44.3382 -64.8318 0 -44.0815 -59.9744 0 -43.5898 -55.507 0 -42.9078 -51.3976 0 -42.073 -47.6166 0 -41.1172 -44.1368 0 -40.0672 -40.9331 0 -38.9456 -37.9825 0 -37.7713 -35.2639 0 -36.5604 -32.758 0 -35.3264 -30.4472 0 -34.0806 -28.3151 0 -32.8325 -26.3469 0 -31.59 -24.5292 0 -30.3596 -22.8494 0 -29.1467 -21.2963 0 -27.9556 -19.8595 0 -26.7899 -18.5296 0 -25.6523 -17.2978 0 -24.5451 -16.1562 0 -23.4699 -15.0977 0 -22.4279 -14.1155 0 -21.4198 -13.2037 0 -20.4463 -12.3566 0 -19.5074 -11.5693 0 -18.6031 -10.8371 0 -17.7332 -10.1557 0 -16.8974 -9.52122 0 -16.0951 -8.9301 0 -15.3256 -8.37906 0 -14.5883 -7.86509 0 -13.8824 -7.38545 0 -13.2069 -6.93759 0 -12.5611 -6.51918 0 -11.944 -6.12808 0 -11.3546 -5.76234 0 -10.792 -5.42012 0 -10.2553 -5.09976 0 -9.7435 -4.79973 0 -9.25564 -4.5186 0 -8.7908 -4.25506 0 -8.34806 -4.00791 0 -7.92652 -3.77603 0 -7.5253 -3.55838 0 -7.14354 -3.35401 0 -6.7804 -3.16203 0 -6.43506 -2.98162 0 -6.10675 -2.81203 0 -5.79469 -2.65255 0 -5.49817 -2.50252 0 -5.21645 -2.36134 0 -4.94888 -2.22844 0 -4.69478 -2.1033 0 -4.45353 -1.98542 0 -4.22453 -1.87436 0 -4.00718 -1.76968 0 -3.80095 -1.671 0 -3.60529 -1.57793 0 -3.4197 -1.49014 0 -3.24369 -1.40731 0 -3.07679 -1.32914 0 -2.91857 -1.25533 0 -2.7686 -1.18564 0 -2.62647 -1.11981 0 -2.49181 -1.05761 0 -2.36424 -0.998832 0 -2.24342 -0.943264 0 -2.12901 -0.890714 0 -2.02071 -0.841009 0 -1.91821 -0.793978 0 -1.82123 -0.749462 0 -1.72949 -0.707314 0 -1.64275 -0.667394 0 -1.56075 -0.62957 0 -1.48327 -0.593716 0 -1.41008 -0.559717 0 -1.34099 -0.52746 0 -1.2758 -0.496844 0 -1.21431 -0.467769 0 -1.15636 -0.44014 0 -1.10178 -0.413871 0 -1.05041 -0.388877 0 -1.00212 -0.365079 0 -0.956745 -0.342403 0 -0.914174 -0.320777 0 -0.874279 -0.300133 0 -0.836944 -0.280406 0 -0.802063 -0.261535 0 -0.769535 -0.243462 0 -0.739265 -0.226132 0 -0.711166 -0.209489 0 -0.685157 -0.193483 0 -0.661163 -0.178065 0 -0.639113 -0.163187 0 -0.618944 -0.148804 0 -0.600597 -0.134872 0 -0.584018 -0.121347 0 -0.569162 -0.108191 0 -0.555981 -0.0953621 0 -0.54444 -0.0828212 0 -0.534504 -0.0705297 0 -0.526145 -0.058453 0 -0.519337 -0.0465523 0 -0.514062 -0.0347912 0 -0.510302 -0.0231362 0 -0.50805 -0.0115494 0 -0.507296 -1.87755e-06 0 446.824 1.2517e-06 0 385.522 -140.602 0 286.098 -207.406 0 208.311 -225.199 0 149.955 -224.422 0 106.15 -215.717 0 72.697 -203.932 0 46.7278 -191.051 0 26.3672 -178.045 0 10.2794 -165.39 0 -2.4751 -153.318 0 -12.5948 -141.939 0 -20.6041 -131.295 0 -26.9074 -121.388 0 -31.8213 -112.197 0 -35.5974 -103.692 0 -38.4377 -95.835 0 -40.5063 -88.585 0 -41.9375 -81.9009 0 -42.842 -75.7423 0 -43.3115 -70.07 0 -43.4224 -64.8467 0 -43.2388 -60.0372 0 -42.8143 -55.6089 0 -42.1939 -51.531 0 -41.4158 -47.7752 0 -40.512 -44.3152 0 -39.5096 -41.1269 0 -38.4317 -38.1879 0 -37.2975 -35.4777 0 -36.1234 -32.9774 0 -34.9231 -30.67 0 -33.7083 -28.5393 0 -32.4887 -26.5711 0 -31.2722 -24.7519 0 -30.0658 -23.0696 0 -28.8748 -21.5131 0 -27.7039 -20.0721 0 -26.5568 -18.7374 0 -25.4363 -17.5004 0 -24.3448 -16.3533 0 -23.284 -15.2889 0 -22.2553 -14.3007 0 -21.2595 -13.3828 0 -20.2972 -12.5295 0 -19.3688 -11.736 0 -18.4741 -10.9975 0 -17.6132 -10.31 0 -16.7855 -9.6694 0 -15.9908 -9.0723 0 -15.2284 -8.51539 0 -14.4976 -7.9957 0 -13.7976 -7.51047 0 -13.1278 -7.05718 0 -12.4871 -6.63351 0 -11.8748 -6.23731 0 -11.2898 -5.86663 0 -10.7314 -5.51966 0 -10.1985 -5.19471 0 -9.6903 -4.89026 0 -9.20577 -4.60488 0 -8.74404 -4.33726 0 -8.30419 -4.08619 0 -7.88535 -3.85055 0 -7.48664 -3.6293 0 -7.10722 -3.42149 0 -6.74627 -3.22621 0 -6.40298 -3.04266 0 -6.07658 -2.87005 0 -5.76631 -2.70769 0 -5.47146 -2.55492 0 -5.19132 -2.41111 0 -4.92521 -2.27571 0 -4.67249 -2.14819 0 -4.43253 -2.02804 0 -4.20473 -1.91481 0 -3.98852 -1.80807 0 -3.78335 -1.70742 0 -3.58869 -1.61248 0 -3.40404 -1.52292 0 -3.22891 -1.43839 0 -3.06284 -1.3586 0 -2.9054 -1.28327 0 -2.75615 -1.21212 0 -2.61471 -1.1449 0 -2.4807 -1.08138 0 -2.35374 -1.02135 0 -2.23349 -0.964583 0 -2.11962 -0.910902 0 -2.01183 -0.860116 0 -1.9098 -0.81206 0 -1.81327 -0.766569 0 -1.72195 -0.723493 0 -1.6356 -0.682691 0 -1.55398 -0.644026 0 -1.47685 -0.607374 0 -1.404 -0.572614 0 -1.33521 -0.539634 0 -1.27031 -0.508328 0 -1.2091 -0.478595 0 -1.15141 -0.450342 0 -1.09707 -0.423474 0 -1.04593 -0.397912 0 -0.997844 -0.373571 0 -0.952673 -0.350374 0 -0.910289 -0.328252 0 -0.870569 -0.307134 0 -0.833396 -0.286952 0 -0.798667 -0.267646 0 -0.766282 -0.249156 0 -0.736142 -0.231423 0 -0.708166 -0.214395 0 -0.682268 -0.198017 0 -0.658378 -0.182239 0 -0.636423 -0.167015 0 -0.616341 -0.152296 0 -0.598073 -0.138037 0 -0.581566 -0.124198 0 -0.566774 -0.110732 0 -0.55365 -0.0976029 0 -0.542157 -0.0847676 0 -0.532265 -0.0721882 0 -0.523941 -0.0598271 0 -0.517162 -0.0476462 0 -0.511909 -0.0356093 0 -0.508166 -0.0236793 0 -0.505923 -0.0118223 0 -0.505173 1.2219e-06 0 416.748 -6.55651e-07 0 367.209 -125.729 0 280.12 -191.814 0 207.092 -213.214 0 150.888 -215.327 0 107.963 -208.806 0 74.8727 -198.585 0 49.0171 -186.87 0 28.643 -174.746 0 12.4792 -162.773 0 -0.383941 -151.238 0 -10.6268 -140.288 0 -18.7642 -129.989 0 -25.1951 -120.362 0 -30.2327 -111.401 0 -34.1268 -103.084 0 -37.0785 -95.3819 0 -39.2516 -88.2602 0 -40.7801 -81.6823 0 -41.7749 -75.6114 0 -42.3281 -70.0115 0 -42.5164 -64.8479 0 -42.4041 -60.0875 0 -42.0452 -55.6992 0 -41.4853 -51.6537 0 -40.7627 -47.924 0 -39.9099 -44.4847 0 -38.9545 -41.3125 0 -37.9197 -38.3857 0 -36.825 -35.6845 0 -35.6873 -33.1905 0 -34.5204 -30.8869 0 -33.3362 -28.7582 0 -32.1447 -26.7903 0 -30.9541 -24.9701 0 -29.7714 -23.2856 0 -28.6023 -21.726 0 -27.4514 -20.2812 0 -26.3227 -18.942 0 -25.2193 -17.7001 0 -24.1434 -16.5476 0 -23.097 -15.4776 0 -22.0816 -14.4836 0 -21.0981 -13.5597 0 -20.1471 -12.7004 0 -19.229 -11.9008 0 -18.344 -11.1563 0 -17.492 -10.4627 0 -16.6726 -9.81615 0 -15.8854 -9.21317 0 -15.13 -8.6505 0 -14.4058 -8.12517 0 -13.7119 -7.63444 0 -13.0476 -7.1758 0 -12.4121 -6.74693 0 -11.8046 -6.3457 0 -11.2242 -5.97015 0 -10.6699 -5.61846 0 -10.1409 -5.28898 0 -9.63632 -4.98016 0 -9.15516 -4.69058 0 -8.69655 -4.41892 0 -8.25962 -4.16397 0 -7.8435 -3.9246 0 -7.44734 -3.69979 0 -7.07029 -3.48855 0 -6.71156 -3.29001 0 -6.37034 -3.10332 0 -6.04588 -2.92773 0 -5.73743 -2.76251 0 -5.44427 -2.60701 0 -5.16572 -2.46061 0 -4.9011 -2.32272 0 -4.64977 -2.19283 0 -4.41112 -2.07042 0 -4.18455 -1.95504 0 -3.9695 -1.84625 0 -3.76541 -1.74365 0 -3.57176 -1.64686 0 -3.38806 -1.55552 0 -3.21383 -1.46931 0 -3.0486 -1.38792 0 -2.89195 -1.31106 0 -2.74345 -1.23846 0 -2.60271 -1.16986 0 -2.46935 -1.10503 0 -2.34301 -1.04375 0 -2.22335 -0.985803 0 -2.11003 -0.930992 0 -2.00275 -0.879135 0 -1.90121 -0.830057 0 -1.80513 -0.783595 0 -1.71425 -0.739597 0 -1.62831 -0.697915 0 -1.54706 -0.658417 0 -1.47029 -0.620968 0 -1.39777 -0.585452 0 -1.32931 -0.551753 0 -1.2647 -0.519761 0 -1.20377 -0.489374 0 -1.14634 -0.460496 0 -1.09225 -0.433036 0 -1.04134 -0.406906 0 -0.993477 -0.382024 0 -0.94851 -0.358312 0 -0.906316 -0.335696 0 -0.866774 -0.314104 0 -0.829768 -0.29347 0 -0.795195 -0.273731 0 -0.762953 -0.254825 0 -0.732948 -0.236692 0 -0.705096 -0.219278 0 -0.679314 -0.20253 0 -0.65553 -0.186396 0 -0.633672 -0.170825 0 -0.613679 -0.155772 0 -0.595492 -0.14119 0 -0.579057 -0.127034 0 -0.56433 -0.113264 0 -0.551264 -0.0998347 0 -0.539822 -0.0867066 0 -0.529973 -0.0738397 0 -0.521686 -0.0611956 0 -0.514937 -0.0487362 0 -0.509707 -0.0364235 0 -0.50598 -0.0242217 0 -0.503748 -0.0120924 0 -0.503 -1.19209e-06 0 390.608 8.04663e-07 0 349.958 -113.153 0 273.529 -177.661 0 205.328 -201.824 0 151.374 -206.506 0 109.457 -202.009 0 76.8099 -193.286 0 51.1265 -182.7 0 30.7803 -171.441 0 14.5704 -160.141 0 1.62094 -149.139 0 -8.72814 -138.615 0 -16.9807 -128.661 0 -23.5287 -119.314 0 -28.6818 -110.583 0 -32.6873 -102.455 0 -35.7451 -94.9097 0 -38.0181 -87.9175 0 -39.6403 -81.4468 0 -40.7225 -75.4648 0 -41.3568 -69.9386 0 -41.6203 -64.8357 0 -41.5775 -60.1254 0 -41.2828 -55.7781 0 -40.782 -51.766 0 -40.1139 -48.0632 0 -39.3113 -44.6454 0 -38.402 -41.4899 0 -37.4096 -38.5761 0 -36.354 -35.8844 0 -35.2521 -33.3972 0 -34.1182 -31.0981 0 -32.9643 -28.9718 0 -31.8006 -27.0047 0 -30.6357 -25.1838 0 -29.4765 -23.4975 0 -28.3291 -21.9352 0 -27.1982 -20.4868 0 -26.0879 -19.1434 0 -25.0013 -17.8968 0 -23.9411 -16.7392 0 -22.9091 -15.6639 0 -21.9069 -14.6642 0 -20.9356 -13.7345 0 -19.9959 -12.8694 0 -19.0882 -12.0638 0 -18.2128 -11.3133 0 -17.3697 -10.6138 0 -16.5585 -9.96146 0 -15.779 -9.35271 0 -15.0307 -8.78438 0 -14.313 -8.2535 0 -13.6251 -7.75735 0 -12.9665 -7.29343 0 -12.3363 -6.85943 0 -11.7336 -6.45323 0 -11.1577 -6.07287 0 -