<?xml version="1.0"?> 
<VTKFile type="StructuredGrid" version="0.1"> 
<StructuredGrid WholeExtent="0 127 0 127 0 0"> 
<Piece Extent="0 127 0 127 0 0"> 
<PointData>
<DataArray type="Float32" Name="E" format="ascii" NumberOfComponents="3"> 
-372991 0 0 -372955 -10748 0 -372849 -21497.1 0 -372672 -32248.4 0 -372423 -43003.2 0 -372104 -53762.6 0 -371712 -64527.7 0 -371249 -75299.7 0 -370712 -86079.9 0 -370102 -96869.7 0 -369418 -107670 0 -368659 -118483 0 -367823 -129309 0 -366911 -140151 0 -365921 -151009 0 -364852 -161886 0 -363702 -172783 0 -362471 -183702 0 -361156 -194645 0 -359758 -205614 0 -358273 -216611 0 -356702 -227638 0 -355041 -238699 0 -353290 -249794 0 -351446 -260928 0 -349509 -272103 0 -347476 -283321 0 -345346 -294587 0 -343117 -305902 0 -340787 -317271 0 -338355 -328697 0 -335819 -340184 0 -333176 -351735 0 -330426 -363356 0 -327567 -375049 0 -324596 -386819 0 -321514 -398671 0 -318317 -410609 0 -315005 -422639 0 -311576 -434765 0 -308029 -446992 0 -304362 -459325 0 -300575 -471771 0 -296665 -484333 0 -292633 -497019 0 -288476 -509833 0 -284194 -522781 0 -279786 -535870 0 -275251 -549106 0 -270588 -562494 0 -265796 -576041 0 -260874 -589754 0 -255820 -603638 0 -250635 -617701 0 -245316 -631950 0 -239863 -646391 0 -234275 -661032 0 -228549 -675880 0 -222686 -690942 0 -216682 -706227 0 -210537 -721742 0 -204248 -737495 0 -197814 -753496 0 -191231 -769753 0 -184499 -786276 0 -177613 -803074 0 -170572 -820157 0 -163372 -837536 0 -156009 -855223 0 -148480 -873227 0 -140780 -891563 0 -132907 -910242 0 -124854 -929279 0 -116617 -948687 0 -108190 -968483 0 -99567.8 -988683 0 -90744 -1.00931e+06 0 -81711.9 -1.03037e+06 0 -72464.3 -1.0519e+06 0 -62993.2 -1.0739e+06 0 -53290 -1.09641e+06 0 -43345.5 -1.11943e+06 0 -33149.2 -1.14298e+06 0 -22690.2 -1.16709e+06 0 -11956.6 -1.19177e+06 0 -936.335 -1.21706e+06 0 10383.1 -1.243e+06 0 22014.1 -1.26967e+06 0 33969.3 -1.29715e+06 0 46261.4 -1.32557e+06 0 58904.9 -1.35502e+06 0 71917.3 -1.38561e+06 0 85321.2 -1.41739e+06 0 99147 -1.45032e+06 0 113435 -1.48424e+06 0 128236 -1.51886e+06 0 143612 -1.55378e+06 0 159628 -1.58852e+06 0 176352 -1.62268e+06 0 193838 -1.65609e+06 0 212115 -1.68904e+06 0 231178 -1.72251e+06 0 250975 -1.75839e+06 0 271406 -1.79959e+06 0 292336 -1.8499e+06 0 313618 -1.91375e+06 0 335142 -1.99545e+06 0 356900 -2.09819e+06 0 379067 -2.22271e+06 0 402092 -2.36567e+06 0 426781 -2.51807e+06 0 454370 -2.66396e+06 0 486546 -2.77979e+06 0 525419 -2.83509e+06 0 573409 -2.79485e+06 0 633048 -2.62435e+06 0 706677 -2.29693e+06 0 796050 -1.80517e+06 0 901867 -1.17576e+06 0 1.02325e+06 -488128 0 1.15722e+06 103477 0 1.29825e+06 344962 0 1.43785e+06 -144436 0 1.56446e+06 -1.8998e+06 0 1.66353e+06 -5.63766e+06 0 1.71736e+06 -1.22751e+07 0 1.70941e+06 -2.29781e+07 0 1.60886e+06 -3.9051e+07 0 -382423 0 0 -382385 -11256.3 0 -382271 -22514 0 -382082 -33774.4 0 -381817 -45038.9 0 -381475 -56308.9 0 -381057 -67585.9 0 -380561 -78871.2 0 -379987 -90166.3 0 -379335 -101473 0 -378603 -112793 0 -377791 -124127 0 -376897 -135478 0 -375921 -146847 0 -374862 -158236 0 -373717 -169647 0 -372486 -181083 0 -371168 -192545 0 -369761 -204036 0 -368263 -215559 0 -366673 -227115 0 -364989 -238708 0 -363210 -250340 0 -361334 -262015 0 -359359 -273735 0 -357283 -285505 0 -355104 -297327 0 -352821 -309205 0 -350432 -321144 0 -347935 -333146 0 -345328 -345217 0 -342610 -357361 0 -339778 -369582 0 -336832 -381885 0 -333769 -394275 0 -330587 -406757 0 -327286 -419336 0 -323864 -432018 0 -320319 -444809 0 -316649 -457714 0 -312855 -470738 0 -308934 -483890 0 -304885 -497173 0 -300708 -510596 0 -296400 -524164 0 -291962 -537883 0 -287391 -551762 0 -282688 -565807 0 -277851 -580024 0 -272879 -594422 0 -267771 -609007 0 -262527 -623788 0 -257144 -638772 0 -251623 -653966 0 -245961 -669380 0 -240157 -685021 0 -234211 -700899 0 -228120 -717022 0 -221882 -733400 0 -215497 -750042 0 -208960 -766959 0 -202272 -784160 0 -195428 -801658 0 -188426 -819462 0 -181264 -837586 0 -173938 -856041 0 -166444 -874842 0 -158778 -894001 0 -150938 -913534 0 -142917 -933456 0 -134712 -953784 0 -126317 -974535 0 -117726 -995728 0 -108935 -1.01738e+06 0 -99934.8 -1.03952e+06 0 -90719.9 -1.06216e+06 0 -81281.9 -1.08533e+06 0 -71612.3 -1.10906e+06 0 -61701.8 -1.13336e+06 0 -51540.8 -1.15826e+06 0 -41119.5 -1.18381e+06 0 -30428.2 -1.21002e+06 0 -19457.5 -1.23695e+06 0 -8197.92 -1.26464e+06 0 3360.3 -1.29314e+06 0 15229 -1.32252e+06 0 27424.1 -1.35284e+06 0 39967.9 -1.38416e+06 0 52891.6 -1.41653e+06 0 66237 -1.44996e+06 0 80055.5 -1.48446e+06 0 94404.7 -1.52001e+06 0 109340 -1.55658e+06 0 124905 -1.59415e+06 0 141112 -1.63276e+06 0 157935 -1.67256e+06 0 175292 -1.7139e+06 0 193046 -1.75731e+06 0 211021 -1.8036e+06 0 229031 -1.85378e+06 0 246946 -1.909e+06 0 264763 -1.97033e+06 0 282711 -2.03851e+06 0 301340 -2.11363e+06 0 321607 -2.19474e+06 0 344908 -2.2796e+06 0 373037 -2.36443e+06 0 408046 -2.44412e+06 0 451970 -2.51264e+06 0 506423 -2.56407e+06 0 572057 -2.59407e+06 0 647922 -2.60186e+06 0 730779 -2.59262e+06 0 814455 -2.57979e+06 0 889335 -2.58713e+06 0 942129 -2.64956e+06 0 956026 -2.8123e+06 0 911376 -3.12708e+06 0 786973 -3.64469e+06 0 562024 -4.40267e+06 0 218774 -5.40739e+06 0 -254249 -6.60974e+06 0 -858530 -7.87412e+06 0 -1.58161e+06 -8.94109e+06 0 -2.39328e+06 -9.38298e+06 0 -3.24145e+06 -8.56005e+06 0 -4.05237e+06 -5.54934e+06 0 -4.7161e+06 825784 0 -391909 0 0 -391868 -11768.7 0 -391747 -23539.1 0 -391546 -35312.7 0 -391263 -47091.2 0 -390900 -58876.2 0 -390454 -70669.5 0 -389926 -82472.7 0 -389316 -94287.7 0 -388621 -106116 0 -387842 -117960 0 -386977 -129822 0 -386025 -141703 0 -384985 -153606 0 -383857 -165533 0 -382637 -177486 0 -381326 -189468 0 -379921 -201482 0 -378421 -213530 0 -376824 -225615 0 -375129 -237741 0 -373334 -249910 0 -371436 -262126 0 -369436 -274392 0 -367329 -286713 0 -365115 -299092 0 -362792 -311533 0 -360357 -324041 0 -357810 -336620 0 -355147 -349275 0 -352368 -362011 0 -349470 -374833 0 -346452 -387747 0 -343312 -400757 0 -340048 -413870 0 -336659 -427091 0 -333144 -440428 0 -329501 -453885 0 -325728 -467470 0 -321825 -481189 0 -317789 -495049 0 -313621 -509057 0 -309319 -523221 0 -304881 -537548 0 -300308 -552045 0 -295598 -566720 0 -290749 -581582 0 -285762 -596638 0 -280635 -611896 0 -275367 -627365 0 -269957 -643054 0 -264405 -658973 0 -258708 -675129 0 -252866 -691533 0 -246878 -708196 0 -240741 -725126 0 -234455 -742335 0 -228017 -759833 0 -221425 -777633 0 -214677 -795747 0 -207772 -814186 0 -200705 -832965 0 -193475 -852098 0 -186078 -871598 0 -178511 -891482 0 -170770 -911765 0 -162851 -932466 0 -154750 -953602 0 -146461 -975194 0 -137981 -997261 0 -129303 -1.01983e+06 0 -120422 -1.04291e+06 0 -111330 -1.06655e+06 0 -102021 -1.09075e+06 0 -92487.3 -1.11556e+06 0 -82720.4 -1.141e+06 0 -72712.1 -1.1671e+06 0 -62454 -1.19391e+06 0 -51937.8 -1.22146e+06 0 -41155.1 -1.24979e+06 0 -30097.3 -1.27897e+06 0 -18753.8 -1.30903e+06 0 -7111.15 -1.34005e+06 0 4849.43 -1.37207e+06 0 17153.5 -1.40516e+06 0 29834.3 -1.43935e+06 0 42931.9 -1.47471e+06 0 56489.1 -1.51126e+06 0 70543.9 -1.54905e+06 0 85119.7 -1.58816e+06 0 100213 -1.62868e+06 0 115781 -1.67082e+06 0 131739 -1.71484e+06 0 147962 -1.76115e+06 0 164308 -1.81024e+06 0 180657 -1.86268e+06 0 196969 -1.91906e+06 0 213364 -1.97985e+06 0 230194 -2.04525e+06 0 248116 -2.11508e+06 0 268118 -2.18861e+06 0 291486 -2.26453e+06 0 319681 -2.34101e+06 0 354109 -2.41598e+06 0 395766 -2.4876e+06 0 444790 -2.55497e+06 0 499929 -2.61899e+06 0 558004 -2.68334e+06 0 613450 -2.75533e+06 0 658028 -2.84637e+06 0 680828 -2.97191e+06 0 668660 -3.15028e+06 0 606919 -3.40055e+06 0 480940 -3.73889e+06 0 277821 -4.17385e+06 0 -11398.2 -4.70062e+06 0 -389415 -5.29524e+06 0 -850462 -5.90978e+06 0 -1.37859e+06 -6.47028e+06 0 -1.94685e+06 -6.87945e+06 0 -2.51774e+06 -7.0267e+06 0 -3.04536e+06 -6.80836e+06 0 -3.47952e+06 -6.16107e+06 0 -3.77205e+06 -5.11051e+06 0 -3.88492e+06 -3.84012e+06 0 -3.80155e+06 -2.77264e+06 0 -3.5346e+06 -2.69823e+06 0 -3.1533e+06 -4.82742e+06 0 -401447 0 0 -401404 -12285.1 0 -401276 -24572.1 0 -401062 -36862.9 0 -400763 -49159.4 0 -400377 -61463.7 0 -399905 -73777.7 0 -399346 -86103.4 0 -398698 -98442.9 0 -397961 -110798 0 -397135 -123172 0 -396218 -135567 0 -395208 -147984 0 -394105 -160427 0 -392908 -172898 0 -391614 -185401 0 -390222 -197937 0 -388731 -210511 0 -387139 -223125 0 -385445 -235782 0 -383645 -248488 0 -381740 -261244 0 -379726 -274056 0 -377602 -286926 0 -375366 -299861 0 -373016 -312864 0 -370550 -325940 0 -367966 -339095 0 -365262 -352333 0 -362437 -365660 0 -359489 -379082 0 -356415 -392605 0 -353214 -406234 0 -349886 -419977 0 -346427 -433841 0 -342836 -447830 0 -339113 -461954 0 -335256 -476219 0 -331263 -490633 0 -327134 -505204 0 -322867 -519938 0 -318462 -534846 0 -313916 -549934 0 -309231 -565212 0 -304404 -580688 0 -299435 -596371 0 -294323 -612271 0 -289067 -628397 0 -283666 -644759 0 -278119 -661367 0 -272425 -678232 0 -266584 -695364 0 -260593 -712774 0 -254452 -730474 0 -248159 -748476 0 -241712 -766792 0 -235110 -785437 0 -228351 -804423 0 -221433 -823765 0 -214352 -843478 0 -207107 -863579 0 -199695 -884083 0 -192113 -905009 0 -184356 -926376 0 -176423 -948204 0 -168307 -970515 0 -160006 -993330 0 -151515 -1.01667e+06 0 -142828 -1.04057e+06 0 -133940 -1.06506e+06 0 -124844 -1.09015e+06 0 -115536 -1.11589e+06 0 -106007 -1.14231e+06 0 -96251.1 -1.16944e+06 0 -86261.5 -1.19733e+06 0 -76031.2 -1.22602e+06 0 -65553.1 -1.25556e+06 0 -54819.4 -1.286e+06 0 -43820.6 -1.3174e+06 0 -32544 -1.34982e+06 0 -20972.4 -1.38332e+06 0 -9083.36 -1.41797e+06 0 3150.52 -1.45382e+06 0 15758.8 -1.49095e+06 0 28768.3 -1.52943e+06 0 42194.8 -1.56936e+06 0 56033.8 -1.61088e+06 0 70252 -1.65415e+06 0 84781.9 -1.6994e+06 0 99526.8 -1.74691e+06 0 114377 -1.79704e+06 0 129243 -1.85015e+06 0 144105 -1.90658e+06 0 159072 -1.96662e+06 0 174444 -2.0304e+06 0 190757 -2.09781e+06 0 208787 -2.16855e+06 0 229500 -2.24208e+06 0 253908 -2.31777e+06 0 282835 -2.39515e+06 0 316583 -2.47424e+06 0 354518 -2.55598e+06 0 394631 -2.64269e+06 0 433122 -2.7385e+06 0 464112 -2.84953e+06 0 479564 -2.98373e+06 0 469517 -3.1503e+06 0 422689 -3.35842e+06 0 327483 -3.61543e+06 0 173370 -3.92447e+06 0 -47468.9 -4.28183e+06 0 -338397 -4.67448e+06 0 -696726 -5.07829e+06 0 -1.11256e+06 -5.45777e+06 0 -1.56837e+06 -5.76781e+06 0 -2.03955e+06 -5.95831e+06 0 -2.49619e+06 -5.98166e+06 0 -2.906e+06 -5.80309e+06 0 -3.23842e+06 -5.41264e+06 0 -3.46933e+06 -4.83674e+06 0 -3.58599e+06 -4.14629e+06 0 -3.59125e+06 -3.45634e+06 0 -3.50614e+06 -2.91162e+06 0 -3.36968e+06 -2.65103e+06 0 -3.23513e+06 -2.74128e+06 0 -3.16048e+06 -3.07694e+06 0 -3.19714e+06 -3.21992e+06 0 -3.36066e+06 -2.22312e+06 0 -411037 0 0 -410991 -12805.1 0 -410856 -25612.5 0 -410631 -38424.4 0 -410314 -51242.9 0 -409907 -64070.4 0 -409409 -76909.3 0 -408818 -89761.8 0 -408134 -102630 0 -407356 -115518 0 -406483 -128426 0 -405514 -141359 0 -404447 -154319 0 -403282 -167308 0 -402017 -180330 0 -400649 -193389 0 -399179 -206488 0 -397603 -219629 0 -395920 -232818 0 -394129 -246058 0 -392228 -259353 0 -390213 -272708 0 -388085 -286127 0 -385840 -299615 0 -383477 -313178 0 -380993 -326820 0 -378388 -340547 0 -375658 -354366 0 -372803 -368281 0 -369819 -382300 0 -366706 -396430 0 -363462 -410676 0 -360085 -425046 0 -356574 -439548 0 -352927 -454189 0 -349143 -468977 0 -345220 -483920 0 -341158 -499027 0 -336956 -514305 0 -332612 -529765 0 -328125 -545415 0 -323495 -561264 0 -318721 -577323 0 -313802 -593601 0 -308737 -610108 0 -303527 -626854 0 -298169 -643851 0 -292663 -661111 0 -287008 -678643 0 -281204 -696461 0 -275250 -714576 0 -269144 -733003 0 -262885 -751753 0 -256472 -770842 0 -249904 -790283 0 -243178 -810094 0 -236294 -830289 0 -229249 -850885 0 -222041 -871902 0 -214667 -893358 0 -207126 -915273 0 -199413 -937669 0 -191527 -960569 0 -183463 -983997 0 -175218 -1.00798e+06 0 -166789 -1.03254e+06 0 -158171 -1.05772e+06 0 -149359 -1.08354e+06 0 -140348 -1.11004e+06 0 -131135 -1.13725e+06 0 -121712 -1.16523e+06 0 -112077 -1.194e+06 0 -102223 -1.22361e+06 0 -92144.7 -1.25413e+06 0 -81837.5 -1.2856e+06 0 -71293.9 -1.31809e+06 0 -60504.5 -1.35166e+06 0 -49456.8 -1.38638e+06 0 -38135 -1.42232e+06 0 -26521.1 -1.45956e+06 0 -14597.7 -1.49819e+06 0 -2353.22 -1.53832e+06 0 10211.1 -1.58007e+06 0 23073.7 -1.62359e+06 0 36188 -1.66908e+06 0 49481.6 -1.71675e+06 0 62866.4 -1.76687e+06 0 76260 -1.81971e+06 0 89620.3 -1.87553e+06 0 102991 -1.93457e+06 0 116547 -1.99699e+06 0 130632 -2.06288e+06 0 145763 -2.13222e+06 0 162583 -2.20496e+06 0 181748 -2.28113e+06 0 203724 -2.36096e+06 0 228506 -2.44515e+06 0 255274 -2.53508e+06 0 282020 -2.63306e+06 0 305219 -2.74245e+06 0 319615 -2.86764e+06 0 318202 -3.01375e+06 0 292491 -3.18598e+06 0 233098 -3.38866e+06 0 130674 -3.62394e+06 0 -22879.8 -3.89031e+06 0 -233025 -4.18113e+06 0 -501194 -4.48359e+06 0 -823631 -4.77826e+06 0 -1.1907e+06 -5.03979e+06 0 -1.58687e+06 -5.23894e+06 0 -1.9916e+06 -5.34605e+06 0 -2.38109e+06 -5.33583e+06 0 -2.73084e+06 -5.1929e+06 0 -3.01889e+06 -4.9172e+06 0 -3.22907e+06 -4.52806e+06 0 -3.35396e+06 -4.06547e+06 0 -3.39686e+06 -3.58702e+06 0 -3.37217e+06 -3.15972e+06 0 -3.30375e+06 -2.84626e+06 0 -3.22125e+06 -2.68738e+06 0 -3.15433e+06 -2.68368e+06 0 -3.1258e+06 -2.78312e+06 0 -3.14473e+06 -2.88368e+06 0 -3.20123e+06 -2.86521e+06 0 -3.26581e+06 -2.66532e+06 0 -3.29341e+06 -2.42321e+06 0 -3.24188e+06 -2.72192e+06 0 -420677 0 0 -420630 -13328.8 0 -420487 -26660.1 0 -420250 -39996.6 0 -419917 -53340.9 0 -419489 -66695.5 0 -418964 -80063.3 0 -418343 -93446.8 0 -417623 -106849 0 -416804 -120273 0 -415886 -133721 0 -414866 -147198 0 -413743 -160705 0 -412517 -174247 0 -411185 -187827 0 -409745 -201449 0 -408197 -215117 0 -406539 -228835 0 -404767 -242607 0 -402882 -256439 0 -400880 -270334 0 -398760 -284299 0 -396520 -298337 0 -394157 -312456 0 -391671 -326661 0 -389058 -340957 0 -386317 -355352 0 -383446 -369852 0 -380444 -384464 0 -377308 -399195 0 -374037 -414053 0 -370629 -429046 0 -367083 -444182 0 -363398 -459470 0 -359572 -474917 0 -355604 -490533 0 -351493 -506328 0 -347238 -522311 0 -342838 -538492 0 -338293 -554880 0 -333601 -571487 0 -328763 -588323 0 -323777 -605400 0 -318643 -622728 0 -313360 -640320 0 -307929 -658188 0 -302348 -676345 0 -296616 -694803 0 -290734 -713577 0 -284700 -732681 0 -278514 -752129 0 -272174 -771938 0 -265680 -792123 0 -259031 -812701 0 -252226 -833691 0 -245262 -855112 0 -238139 -876984 0 -230854 -899328 0 -223406 -922167 0 -215793 -945525 0 -208013 -969427 0 -200062 -993903 0 -191940 -1.01898e+06 0 -183642 -1.04469e+06 0 -175166 -1.07107e+06 0 -166510 -1.09815e+06 0 -157669 -1.12597e+06 0 -148641 -1.15458e+06 0 -139422 -1.18402e+06 0 -130011 -1.21434e+06 0 -120405 -1.2456e+06 0 -110600 -1.27786e+06 0 -100593 -1.31117e+06 0 -90380.5 -1.34561e+06 0 -79955 -1.38126e+06 0 -69308.9 -1.41819e+06 0 -58434.1 -1.45649e+06 0 -47324.3 -1.49628e+06 0 -35980.3 -1.53765e+06 0 -24414.9 -1.58076e+06 0 -12658.7 -1.62577e+06 0 -763.579 -1.67286e+06 0 11199.9 -1.72224e+06 0 23152.1 -1.77414e+06 0 35025.4 -1.8288e+06 0 46793.5 -1.88645e+06 0 58507 -1.94729e+06 0 70324 -2.0115e+06 0 82523.2 -2.07924e+06 0 95480 -2.1507e+06 0 109590 -2.22614e+06 0 125125 -2.30606e+06 0 142014 -2.39126e+06 0 159571 -2.48303e+06 0 176180 -2.58328e+06 0 189013 -2.69451e+06 0 193823 -2.81979e+06 0 184904 -2.96242e+06 0 155273 -3.12548e+06 0 97145.6 -3.31104e+06 0 2687.01 -3.51933e+06 0 -134973 -3.7477e+06 0 -320574 -3.98983e+06 0 -555560 -4.23509e+06 0 -837103 -4.4686e+06 0 -1.15752e+06 -4.67191e+06 0 -1.50431e+06 -4.8246e+06 0 -1.86082e+06 -4.90681e+06 0 -2.20778e+06 -4.90225e+06 0 -2.52533e+06 -4.80168e+06 0 -2.79555e+06 -4.60589e+06 0 -3.00499e+06 -4.32767e+06 0 -3.14683e+06 -3.99197e+06 0 -3.22219e+06 -3.63376e+06 0 -3.24027e+06 -3.2932e+06 0 -3.21706e+06 -3.00868e+06 0 -3.17276e+06 -2.80861e+06 0 -3.12807e+06 -2.70377e+06 0 -3.10012e+06 -2.6825e+06 0 -3.09887e+06 -2.71125e+06 0 -3.12483e+06 -2.74223e+06 0 -3.16908e+06 -2.72892e+06 0 -3.21606e+06 -2.64654e+06 0 -3.2492e+06 -2.51109e+06 0 -3.25833e+06 -2.38371e+06 0 -3.24682e+06 -2.33918e+06 0 -3.23602e+06 -2.37475e+06 0 -3.26115e+06 -2.18195e+06 0 -430368 0 0 -430318 -13855.8 0 -430168 -27714.5 0 -429920 -41579.1 0 -429571 -55452.6 0 -429122 -69338.1 0 -428572 -83238.5 0 -427920 -97157.1 0 -427165 -111097 0 -426307 -125062 0 -425343 -139055 0 -424274 -153080 0 -423097 -167141 0 -421811 -181241 0 -420414 -195385 0 -418904 -209578 0 -417281 -223823 0 -415541 -238125 0 -413684 -252490 0 -411707 -266923 0 -409608 -281429 0 -407385 -296015 0 -405037 -310685 0 -402561 -325447 0 -399955 -340308 0 -397218 -355274 0 -394347 -370353 0 -391341 -385552 0 -388198 -400879 0 -384917 -416343 0 -381496 -431953 0 -377933 -447716 0 -374228 -463643 0 -370379 -479743 0 -366385 -496026 0 -362245 -512502 0 -357959 -529181 0 -353525 -546076 0 -348944 -563196 0 -344214 -580554 0 -339335 -598162 0 -334308 -616031 0 -329131 -634176 0 -323804 -652608 0 -318328 -671342 0 -312701 -690393 0 -306924 -709774 0 -300997 -729502 0 -294918 -749593 0 -288688 -770064 0 -282306 -790933 0 -275772 -812218 0 -269086 -833939 0 -262245 -856117 0 -255251 -878774 0 -248101 -901934 0 -240795 -925622 0 -233332 -949865 0 -225710 -974690 0 -217930 -1.00013e+06 0 -209989 -1.02621e+06 0 -201886 -1.05298e+06 0 -193621 -1.08046e+06 0 -185191 -1.10871e+06 0 -176597 -1.13775e+06 0 -167837 -1.16765e+06 0 -158912 -1.19845e+06 0 -149821 -1.23021e+06 0 -140565 -1.263e+06 0 -131145 -1.29687e+06 0 -121561 -1.33189e+06 0 -111814 -1.36816e+06 0 -101903 -1.40575e+06 0 -91829.1 -1.44477e+06 0 -81596 -1.48531e+06 0 -71213.8 -1.5275e+06 0 -60703.7 -1.5715e+06 0 -50101.9 -1.61744e+06 0 -39462.8 -1.66553e+06 0 -28856.7 -1.71596e+06 0 -18361.6 -1.76894e+06 0 -8047.85 -1.82469e+06 0 2045.61 -1.88345e+06 0 11935.5 -1.94543e+06 0 21712.6 -2.01086e+06 0 31540 -2.08e+06 0 41616.2 -2.15319e+06 0 52088.1 -2.23091e+06 0 62904.1 -2.3139e+06 0 73609 -2.40319e+06 0 83096.3 -2.50025e+06 0 89352.5 -2.60691e+06 0 89243.8 -2.72535e+06 0 78411.7 -2.85787e+06 0 51339.7 -3.00646e+06 0 1648.81 -3.17238e+06 0 -77353.3 -3.35541e+06 0 -191883 -3.55322e+06 0 -346719 -3.76074e+06 0 -544184 -3.96982e+06 0 -783233 -4.16917e+06 0 -1.05883e+06 -4.34497e+06 0 -1.36178e+06 -4.48199e+06 0 -1.67917e+06 -4.5653e+06 0 -1.99536e+06 -4.58248e+06 0 -2.29368e+06 -4.52588e+06 0 -2.55834e+06 -4.39471e+06 0 -2.77659e+06 -4.19638e+06 0 -2.94052e+06 -3.94667e+06 0 -3.04836e+06 -3.66843e+06 0 -3.10476e+06 -3.38875e+06 0 -3.12012e+06 -3.13477e+06 0 -3.10881e+06 -2.92886e+06 0 -3.08663e+06 -2.7841e+06 0 -3.06796e+06 -2.70108e+06 0 -3.06304e+06 -2.66743e+06 0 -3.07624e+06 -2.66037e+06 0 -3.10555e+06 -2.65272e+06 0 -3.14374e+06 -2.62103e+06 0 -3.18093e+06 -2.55375e+06 0 -3.20803e+06 -2.45647e+06 0 -3.22015e+06 -2.35071e+06 0 -3.21865e+06 -2.26427e+06 0 -3.21078e+06 -2.21396e+06 0 -3.20617e+06 -2.18748e+06 0 -3.21066e+06 -2.1431e+06 0 -3.21926e+06 -2.04774e+06 0 -3.21138e+06 -2.04628e+06 0 -440107 0 0 -440054 -14385.9 0 -439898 -28775.2 0 -439638 -43171.2 0 -439274 -57577.4 0 -438805 -71997.1 0 -438230 -86434 0 -437549 -100891 0 -436760 -115373 0 -435863 -129884 0 -434857 -144426 0 -433739 -159005 0 -432509 -173624 0 -431165 -188289 0 -429705 -203004 0 -428128 -217773 0 -426431 -232603 0 -424614 -247498 0 -422674 -262464 0 -420608 -277508 0 -418416 -292635 0 -416095 -307852 0 -413643 -323167 0 -411058 -338586 0 -408338 -354117 0 -405483 -369768 0 -402489 -385547 0 -399355 -401463 0 -396080 -417525 0 -392662 -433743 0 -389100 -450125 0 -385392 -466683 0 -381539 -483427 0 -377538 -500367 0 -373390 -517515 0 -369093 -534882 0 -364647 -552481 0 -360052 -570324 0 -355307 -588423 0 -350413 -606792 0 -345369 -625445 0 -340175 -644396 0 -334832 -663660 0 -329339 -683252 0 -323698 -703188 0 -317907 -723486 0 -311968 -744161 0 -305880 -765234 0 -299643 -786722 0 -293259 -808647 0 -286727 -831030 0 -280047 -853893 0 -273219 -877260 0 -266244 -901157 0 -259122 -925612 0 -251853 -950652 0 -244437 -976310 0 -236875 -1.00262e+06 0 -229168 -1.02961e+06 0 -221315 -1.05733e+06 0 -213317 -1.08581e+06 0 -205177 -1.11511e+06 0 -196896 -1.14526e+06 0 -188476 -1.17632e+06 0 -179921 -1.20835e+06 0 -171233 -1.24142e+06 0 -162418 -1.27558e+06 0 -153481 -1.31091e+06 0 -144428 -1.3475e+06 0 -135266 -1.38542e+06 0 -126004 -1.42479e+06 0 -116654 -1.4657e+06 0 -107234 -1.50829e+06 0 -97770.8 -1.5527e+06 0 -88306 -1.59907e+06 0 -78895.9 -1.6476e+06 0 -69612.7 -1.69847e+06 0 -60539.4 -1.75189e+06 0 -51758.6 -1.80808e+06 0 -43337.1 -1.86727e+06 0 -35309.3 -1.92971e+06 0 -27667.2 -1.99565e+06 0 -20368 -2.06543e+06 0 -13372.8 -2.13945e+06 0 -6728.68 -2.2183e+06 0 -701.359 -2.30276e+06 0 4044.5 -2.39389e+06 0 6233.56 -2.49305e+06 0 3770.45 -2.60181e+06 0 -6418.88 -2.72186e+06 0 -28437.2 -2.85474e+06 0 -67299.9 -3.00146e+06 0 -128609 -3.16202e+06 0 -218007 -3.3349e+06 0 -340428 -3.51656e+06 0 -499233 -3.7011e+06 0 -695350 -3.88018e+06 0 -926555 -4.04332e+06 0 -1.18708e+06 -4.17864e+06 0 -1.46767e+06 -4.27409e+06 0 -1.75618e+06 -4.31895e+06 0 -2.03869e+06 -4.3056e+06 0 -2.30104e+06 -4.2311e+06 0 -2.5306e+06 -4.09839e+06 0 -2.718e+06 -3.91672e+06 0 -2.85842e+06 -3.70105e+06 0 -2.95229e+06 -3.47041e+06 0 -3.00518e+06 -3.24529e+06 0 -3.02676e+06 -3.04442e+06 0 -3.02908e+06 -2.88158e+06 0 -3.02439e+06 -2.76305e+06 0 -3.023e+06 -2.68647e+06 0 -3.03147e+06 -2.64149e+06 0 -3.05181e+06 -2.61242e+06 0 -3.08161e+06 -2.58232e+06 0 -3.11534e+06 -2.5377e+06 0 -3.14631e+06 -2.47251e+06 0 -3.16899e+06 -2.38986e+06 0 -3.18079e+06 -2.30067e+06 0 -3.18282e+06 -2.21895e+06 0 -3.17933e+06 -2.15512e+06 0 -3.17578e+06 -2.11005e+06 0 -3.17621e+06 -2.07364e+06 0 -3.18113e+06 -2.03091e+06 0 -3.18725e+06 -1.97589e+06 0 -3.19001e+06 -1.9227e+06 0 -3.18874e+06 -1.90029e+06 0 -3.19392e+06 -1.84655e+06 0 -449893 0 0 -449839 -14919.1 0 -449677 -29841.9 0 -449406 -44772.4 0 -449026 -59714.4 0 -448538 -74671.7 0 -447939 -89648.4 0 -447229 -104649 0 -446408 -119676 0 -445474 -134736 0 -444425 -149832 0 -443261 -164970 0 -441980 -180153 0 -440580 -195388 0 -439060 -210679 0 -437418 -226033 0 -435652 -241454 0 -433759 -256950 0 -431739 -272526 0 -429590 -288190 0 -427309 -303949 0 -424894 -319809 0 -422343 -335780 0 -419656 -351868 0 -416829 -368084 0 -413862 -384435 0 -410753 -400931 0 -407499 -417583 0 -404101 -434399 0 -400557 -451391 0 -396865 -468569 0 -393026 -485946 0 -389037 -503532 0 -384900 -521341 0 -380612 -539384 0 -376175 -557675 0 -371588 -576227 0 -366851 -595056 0 -361965 -614174 0 -356929 -633598 0 -351745 -653343 0 -346412 -673426 0 -340932 -693863 0 -335306 -714672 0 -329533 -735873 0 -323615 -757485 0 -317553 -779528 0 -311348 -802023 0 -305001 -824995 0 -298513 -848467 0 -291885 -872464 0 -285119 -897015 0 -278215 -922147 0 -271177 -947893 0 -264005 -974286 0 -256702 -1.00136e+06 0 -249269 -1.02916e+06 0 -241711 -1.05771e+06 0 -234030 -1.08708e+06 0 -226230 -1.11729e+06 0 -218315 -1.14842e+06 0 -210293 -1.18051e+06 0 -202168 -1.21362e+06 0 -193950 -1.24783e+06 0 -185649 -1.2832e+06 0 -177274 -1.31982e+06 0 -168839 -1.35778e+06 0 -160359 -1.39717e+06 0 -151854 -1.4381e+06 0 -143347 -1.48069e+06 0 -134872 -1.52508e+06 0 -126474 -1.57142e+06 0 -118211 -1.61989e+06 0 -110158 -1.67066e+06 0 -102404 -1.72394e+06 0 -95045.9 -1.77995e+06 0 -88180.1 -1.83892e+06 0 -81890.8 -1.90111e+06 0 -76245.2 -1.96679e+06 0 -71301.6 -2.0363e+06 0 -67142.4 -2.11009e+06 0 -63942.6 -2.18871e+06 0 -62080.6 -2.27292e+06 0 -62288.4 -2.36367e+06 0 -65829 -2.46211e+06 0 -74670 -2.56952e+06 0 -91611.5 -2.68716e+06 0 -120317 -2.81603e+06 0 -165194 -2.95651e+06 0 -231094 -3.10795e+06 0 -322810 -3.26828e+06 0 -444408 -3.43365e+06 0 -598469 -3.59821e+06 0 -785339 -3.75422e+06 0 -1.00255e+06 -3.89239e+06 0 -1.24452e+06 -4.00275e+06 0 -1.5027e+06 -4.07563e+06 0 -1.7662e+06 -4.10306e+06 0 -2.02279e+06 -4.08009e+06 0 -2.26035e+06 -4.00595e+06 0 -2.46838e+06 -3.88472e+06 0 -2.63941e+06 -3.72533e+06 0 -2.76999e+06 -3.54078e+06 0 -2.86114e+06 -3.34655e+06 0 -2.91806e+06 -3.15841e+06 0 -2.94905e+06 -2.99003e+06 0 -2.96403e+06 -2.85073e+06 0 -2.9727e+06 -2.74407e+06 0 -2.98289e+06 -2.66741e+06 0 -2.99934e+06 -2.61287e+06 0 -3.02321e+06 -2.56946e+06 0 -3.0525e+06 -2.52594e+06 0 -3.08312e+06 -2.47376e+06 0 -3.11044e+06 -2.40924e+06 0 -3.13082e+06 -2.33432e+06 0 -3.14277e+06 -2.25539e+06 0 -3.14729e+06 -2.18069e+06 0 -3.14729e+06 -2.11678e+06 0 -3.14643e+06 -2.06573e+06 0 -3.14757e+06 -2.02421e+06 0 -3.15174e+06 -1.98538e+06 0 -3.15785e+06 -1.94315e+06 0 -3.16361e+06 -1.89663e+06 0 -3.16723e+06 -1.85139e+06 0 -3.16889e+06 -1.8139e+06 0 -3.17074e+06 -1.78237e+06 0 -3.1745e+06 -1.73882e+06 0 -3.17547e+06 -1.70724e+06 0 -459727 0 0 -459670 -15455 0 -459502 -30914.2 0 -459221 -46382.1 0 -458827 -61862.8 0 -458319 -77360.8 0 -457698 -92880.7 0 -456961 -108427 0 -456108 -124004 0 -455138 -139617 0 -454050 -155272 0 -452841 -170973 0 -451511 -186725 0 -450058 -202536 0 -448481 -218410 0 -446776 -234354 0 -444944 -250374 0 -442981 -266478 0 -440885 -282673 0 -438656 -298967 0 -436291 -315366 0 -433788 -331881 0 -431146 -348520 0 -428362 -365291 0 -425436 -382206 0 -422366 -399273 0 -419150 -416503 0 -415787 -433907 0 -412276 -451497 0 -408617 -469284 0 -404809 -487281 0 -400851 -505501 0 -396743 -523956 0 -392485 -542661 0 -388077 -561631 0 -383519 -580878 0 -378812 -600420 0 -373957 -620272 0 -368954 -640451 0 -363804 -660974 0 -358509 -681859 0 -353069 -703125 0 -347487 -724791 0 -341763 -746879 0 -335900 -769410 0 -329899 -792407 0 -323762 -815894 0 -317491 -839896 0 -311090 -864442 0 -304559 -889559 0 -297903 -915279 0 -291124 -941635 0 -284225 -968661 0 -277212 -996395 0 -270087 -1.02488e+06 0 -262857 -1.05416e+06 0 -255527 -1.08427e+06 0 -248105 -1.11528e+06 0 -240597 -1.14724e+06 0 -233013 -1.1802e+06 0 -225365 -1.21423e+06 0 -217665 -1.24942e+06 0 -209928 -1.28582e+06 0 -202172 -1.32353e+06 0 -194416 -1.36265e+06 0 -186686 -1.40328e+06 0 -179011 -1.44553e+06 0 -171429 -1.48953e+06 0 -163987 -1.53544e+06 0 -156746 -1.58341e+06 0 -149782 -1.63361e+06 0 -143190 -1.68625e+06 0 -137075 -1.74153e+06 0 -131556 -1.79969e+06 0 -126755 -1.86097e+06 0 -122797 -1.92565e+06 0 -119814 -1.99407e+06 0 -117969 -2.06662e+06 0 -117511 -2.14383e+06 0 -118858 -2.22634e+06 0 -122720 -2.31496e+06 0 -130238 -2.41064e+06 0 -143139 -2.5144e+06 0 -163843 -2.62719e+06 0 -195502 -2.74966e+06 0 -241909 -2.8819e+06 0 -307244 -3.02305e+06 0 -395656 -3.171e+06 0 -510685 -3.32209e+06 0 -654596 -3.47099e+06 0 -827717 -3.61081e+06 0 -1.02792e+06 -3.7335e+06 0 -1.25037e+06 -3.83057e+06 0 -1.4876e+06 -3.89399e+06 0 -1.7301e+06 -3.91736e+06 0 -1.96717e+06 -3.89698e+06 0 -2.18821e+06 -3.83272e+06 0 -2.38402e+06 -3.72846e+06 0 -2.54799e+06 -3.59197e+06 0 -2.67702e+06 -3.43415e+06 0 -2.7718e+06 -3.26764e+06 0 -2.83654e+06 -3.10503e+06 0 -2.87807e+06 -2.95702e+06 0 -2.90451e+06 -2.83081e+06 0 -2.92382e+06 -2.7291e+06 0 -2.94237e+06 -2.65e+06 0 -2.96409e+06 -2.58782e+06 0 -2.99006e+06 -2.53478e+06 0 -3.01894e+06 -2.48302e+06 0 -3.0478e+06 -2.42657e+06 0 -3.07337e+06 -2.36282e+06 0 -3.09313e+06 -2.29283e+06 0 -3.10608e+06 -2.22055e+06 0 -3.11303e+06 -2.15121e+06 0 -3.11609e+06 -2.0892e+06 0 -3.1179e+06 -2.03641e+06 0 -3.12064e+06 -1.99161e+06 0 -3.1253e+06 -1.95124e+06 0 -3.13151e+06 -1.91124e+06 0 -3.13798e+06 -1.86931e+06 0 -3.14334e+06 -1.82604e+06 0 -3.14697e+06 -1.78425e+06 0 -3.14936e+06 -1.74634e+06 0 -3.15157e+06 -1.71146e+06 0 -3.15423e+06 -1.67599e+06 0 -3.15674e+06 -1.6378e+06 0 -3.15784e+06 -1.60576e+06 0 -3.15947e+06 -1.57131e+06 0 -469606 0 0 -469548 -15993.5 0 -469373 -31991.7 0 -469082 -47999.6 0 -468674 -64021.9 0 -468149 -80063.6 0 -467505 -96129.6 0 -466743 -112225 0 -465860 -128356 0 -464856 -144526 0 -463730 -160743 0 -462479 -177012 0 -461103 -193338 0 -459600 -209729 0 -457968 -226192 0 -456205 -242733 0 -454310 -259359 0 -452280 -276080 0 -450114 -292902 0 -447811 -309834 0 -445368 -326885 0 -442783 -344065 0 -440056 -361384 0 -437184 -378851 0 -434167 -396478 0 -431003 -414276 0 -427690 -432257 0 -424229 -450432 0 -420619 -468815 0 -416859 -487419 0 -412948 -506257 0 -408888 -525345 0 -404678 -544696 0 -400318 -564326 0 -395810 -584252 0 -391154 -604490 0 -386352 -625058 0 -381405 -645972 0 -376314 -667254 0 -371081 -688921 0 -365709 -710995 0 -360199 -733498 0 -354554 -756452 0 -348777 -779881 0 -342871 -803810 0 -336838 -828266 0 -330683 -853278 0 -324409 -878876 0 -318020 -905092 0 -311521 -931960 0 -304918 -959517 0 -298216 -987802 0 -291421 -1.01686e+06 0 -284542 -1.04673e+06 0 -277587 -1.07747e+06 0 -270566 -1.10913e+06 0 -263489 -1.14177e+06 0 -256371 -1.17545e+06 0 -249226 -1.21024e+06 0 -242071 -1.24622e+06 0 -234929 -1.28346e+06 0 -227822 -1.32206e+06 0 -220779 -1.36212e+06 0 -213834 -1.40374e+06 0 -207027 -1.44705e+06 0 -200409 -1.49219e+06 0 -194039 -1.5393e+06 0 -187996 -1.58855e+06 0 -182373 -1.64013e+06 0 -177281 -1.69423e+06 0 -172849 -1.75107e+06 0 -169223 -1.8109e+06 0 -166562 -1.87397e+06 0 -165044 -1.94059e+06 0 -164883 -2.01112e+06 0 -166362 -2.086e+06 0 -169898 -2.16578e+06 0 -176129 -2.25112e+06 0 -186034 -2.34278e+06 0 -201052 -2.44155e+06 0 -223191 -2.5482e+06 0 -255080 -2.6632e+06 0 -299915 -2.78655e+06 0 -361285 -2.91747e+06 0 -442834 -3.05409e+06 0 -547786 -3.19323e+06 0 -678372 -3.33029e+06 0 -835237 -3.45931e+06 0 -1.01694e+06 -3.57336e+06 0 -1.21967e+06 -3.66507e+06 0 -1.43728e+06 -3.72749e+06 0 -1.66164e+06 -3.75501e+06 0 -1.88346e+06 -3.74428e+06 0 -2.09329e+06 -3.69494e+06 0 -2.28267e+06 -3.61005e+06 0 -2.44529e+06 -3.4959e+06 0 -2.57772e+06 -3.36142e+06 0 -2.67983e+06 -3.21701e+06 0 -2.75457e+06 -3.07316e+06 0 -2.80728e+06 -2.93885e+06 0 -2.84461e+06 -2.82037e+06 0 -2.87324e+06 -2.72046e+06 0 -2.89872e+06 -2.63829e+06 0 -2.92468e+06 -2.57006e+06 0 -2.95249e+06 -2.51023e+06 0 -2.98154e+06 -2.45305e+06 0 -3.00986e+06 -2.39407e+06 0 -3.03511e+06 -2.33105e+06 0 -3.05542e+06 -2.26437e+06 0 -3.07005e+06 -2.19648e+06 0 -3.07954e+06 -2.13079e+06 0 -3.08545e+06 -2.0704e+06 0 -3.08978e+06 -2.01692e+06 0 -3.09425e+06 -1.96999e+06 0 -3.0998e+06 -1.92758e+06 0 -3.10641e+06 -1.88704e+06 0 -3.11332e+06 -1.84628e+06 0 -3.11955e+06 -1.80468e+06 0 -3.12443e+06 -1.76314e+06 0 -3.12796e+06 -1.72323e+06 0 -3.13066e+06 -1.6