<?xml version="1.0"?> 
<VTKFile type="StructuredGrid" version="0.1"> 
<StructuredGrid WholeExtent="0 127 0 127 0 0"> 
<Piece Extent="0 127 0 127 0 0"> 
<PointData>
<DataArray type="Float32" Name="E" format="ascii" NumberOfComponents="3"> 
-1.24485e+06 5.09e+06 0 -1.22362e+06 5.10739e+06 0 -1.19735e+06 5.10348e+06 0 -1.17096e+06 5.09832e+06 0 -1.14475e+06 5.0931e+06 0 -1.11894e+06 5.08888e+06 0 -1.09352e+06 5.08569e+06 0 -1.06848e+06 5.08354e+06 0 -1.04379e+06 5.08236e+06 0 -1.01941e+06 5.08206e+06 0 -995306 5.08254e+06 0 -971456 5.08372e+06 0 -947828 5.0855e+06 0 -924397 5.08783e+06 0 -901143 5.09062e+06 0 -878045 5.09382e+06 0 -855086 5.09737e+06 0 -832250 5.10122e+06 0 -809524 5.10533e+06 0 -786895 5.10965e+06 0 -764352 5.11416e+06 0 -741885 5.11882e+06 0 -719484 5.12359e+06 0 -697140 5.12845e+06 0 -674846 5.13338e+06 0 -652594 5.13836e+06 0 -630379 5.14336e+06 0 -608193 5.14836e+06 0 -586030 5.15335e+06 0 -563885 5.15832e+06 0 -541754 5.16324e+06 0 -519630 5.16811e+06 0 -497508 5.17291e+06 0 -475385 5.17763e+06 0 -453256 5.18227e+06 0 -431115 5.18681e+06 0 -408960 5.19124e+06 0 -386785 5.19555e+06 0 -364587 5.19975e+06 0 -342361 5.20381e+06 0 -320103 5.20774e+06 0 -297810 5.21153e+06 0 -275476 5.21516e+06 0 -253099 5.21865e+06 0 -230674 5.22197e+06 0 -208196 5.22514e+06 0 -185663 5.22813e+06 0 -163069 5.23096e+06 0 -140411 5.2336e+06 0 -117685 5.23607e+06 0 -94885.4 5.23835e+06 0 -72009.2 5.24045e+06 0 -49052 5.24235e+06 0 -26009.4 5.24406e+06 0 -2877.22 5.24557e+06 0 20348.9 5.24688e+06 0 43673.4 5.24799e+06 0 67100.4 5.24889e+06 0 90634.5 5.24958e+06 0 114280 5.25005e+06 0 138041 5.25031e+06 0 161923 5.25034e+06 0 185929 5.25016e+06 0 210065 5.24974e+06 0 234334 5.2491e+06 0 258742 5.24823e+06 0 283292 5.24712e+06 0 307989 5.24577e+06 0 332838 5.24418e+06 0 357843 5.24235e+06 0 383009 5.24027e+06 0 408340 5.23793e+06 0 433840 5.23535e+06 0 459514 5.2325e+06 0 485366 5.2294e+06 0 511401 5.22603e+06 0 537622 5.22239e+06 0 564035 5.21848e+06 0 590644 5.2143e+06 0 617452 5.20983e+06 0 644463 5.20509e+06 0 671683 5.20006e+06 0 699115 5.19474e+06 0 726762 5.18913e+06 0 754630 5.18323e+06 0 782721 5.17702e+06 0 811040 5.17052e+06 0 839591 5.1637e+06 0 868377 5.15658e+06 0 897401 5.14915e+06 0 926668 5.1414e+06 0 956181 5.13333e+06 0 985944 5.12494e+06 0 1.01596e+06 5.11623e+06 0 1.04623e+06 5.1072e+06 0 1.07677e+06 5.09783e+06 0 1.10756e+06 5.08814e+06 0 1.13863e+06 5.07812e+06 0 1.16996e+06 5.06776e+06 0 1.20157e+06 5.05707e+06 0 1.23346e+06 5.04606e+06 0 1.26563e+06 5.03471e+06 0 1.29808e+06 5.02303e+06 0 1.33083e+06 5.01103e+06 0 1.36387e+06 4.99871e+06 0 1.39721e+06 4.98607e+06 0 1.43087e+06 4.97311e+06 0 1.46483e+06 4.95986e+06 0 1.49911e+06 4.94632e+06 0 1.53373e+06 4.9325e+06 0 1.56868e+06 4.91841e+06 0 1.60399e+06 4.90408e+06 0 1.63965e+06 4.88952e+06 0 1.6757e+06 4.87478e+06 0 1.71214e+06 4.85987e+06 0 1.74901e+06 4.84484e+06 0 1.78633e+06 4.82975e+06 0 1.82413e+06 4.81465e+06 0 1.86246e+06 4.79963e+06 0 1.90138e+06 4.78478e+06 0 1.94096e+06 4.77025e+06 0 1.98129e+06 4.75622e+06 0 2.02253e+06 4.74295e+06 0 2.06487e+06 4.73081e+06 0 2.10862e+06 4.72041e+06 0 2.15444e+06 4.71299e+06 0 2.20345e+06 4.7107e+06 0 2.26143e+06 4.72525e+06 0 -1.23859e+06 5.09898e+06 0 -1.22362e+06 5.09275e+06 0 -1.19835e+06 5.08778e+06 0 -1.17206e+06 5.08204e+06 0 -1.14539e+06 5.07713e+06 0 -1.11907e+06 5.07318e+06 0 -1.09312e+06 5.07031e+06 0 -1.06759e+06 5.06846e+06 0 -1.04245e+06 5.06755e+06 0 -1.01768e+06 5.06749e+06 0 -993230 5.06818e+06 0 -969080 5.06953e+06 0 -945195 5.07148e+06 0 -921546 5.07394e+06 0 -898109 5.07685e+06 0 -874859 5.08015e+06 0 -851777 5.08379e+06 0 -828844 5.08772e+06 0 -806044 5.09189e+06 0 -783362 5.09627e+06 0 -760784 5.10082e+06 0 -738299 5.10552e+06 0 -715896 5.11032e+06 0 -693565 5.11521e+06 0 -671297 5.12016e+06 0 -649083 5.12514e+06 0 -626916 5.13015e+06 0 -604788 5.13516e+06 0 -582692 5.14016e+06 0 -560623 5.14512e+06 0 -538575 5.15004e+06 0 -516541 5.1549e+06 0 -494516 5.15969e+06 0 -472496 5.1644e+06 0 -450475 5.16902e+06 0 -428448 5.17354e+06 0 -406411 5.17795e+06 0 -384360 5.18224e+06 0 -362289 5.18641e+06 0 -340194 5.19045e+06 0 -318072 5.19435e+06 0 -295917 5.19811e+06 0 -273726 5.20172e+06 0 -251494 5.20517e+06 0 -229218 5.20846e+06 0 -206892 5.21159e+06 0 -184513 5.21455e+06 0 -162077 5.21733e+06 0 -139579 5.21994e+06 0 -117016 5.22236e+06 0 -94382.5 5.2246e+06 0 -71674.9 5.22665e+06 0 -48888.9 5.2285e+06 0 -26020.2 5.23016e+06 0 -3064.57 5.23162e+06 0 19982.3 5.23288e+06 0 43124.7 5.23393e+06 0 66366.9 5.23477e+06 0 89713.3 5.2354e+06 0 113168 5.23581e+06 0 136736 5.236e+06 0 160421 5.23598e+06 0 184228 5.23572e+06 0 208161 5.23524e+06 0 232224 5.23453e+06 0 256422 5.23359e+06 0 280760 5.2324e+06 0 305241 5.23098e+06 0 329870 5.22932e+06 0 354652 5.2274e+06 0 379590 5.22524e+06 0 404689 5.22283e+06 0 429954 5.22016e+06 0 455389 5.21723e+06 0 480997 5.21404e+06 0 506784 5.21058e+06 0 532753 5.20685e+06 0 558909 5.20285e+06 0 585256 5.19858e+06 0 611797 5.19402e+06 0 638538 5.18919e+06 0 665481 5.18407e+06 0 692631 5.17865e+06 0 719992 5.17295e+06 0 747568 5.16695e+06 0 775362 5.16065e+06 0 803379 5.15404e+06 0 831621 5.14713e+06 0 860093 5.13991e+06 0 888798 5.13238e+06 0 917741 5.12454e+06 0 946923 5.11637e+06 0 976350 5.10789e+06 0 1.00602e+06 5.09908e+06 0 1.03595e+06 5.08995e+06 0 1.06613e+06 5.08049e+06 0 1.09657e+06 5.0707e+06 0 1.12727e+06 5.06058e+06 0 1.15823e+06 5.05013e+06 0 1.18947e+06 5.03935e+06 0 1.22098e+06 5.02823e+06 0 1.25277e+06 5.01679e+06 0 1.28484e+06 5.00502e+06 0 1.31719e+06 4.99292e+06 0 1.34984e+06 4.9805e+06 0 1.38279e+06 4.96776e+06 0 1.41604e+06 4.95471e+06 0 1.44961e+06 4.94136e+06 0 1.48349e+06 4.92771e+06 0 1.51771e+06 4.91377e+06 0 1.55227e+06 4.89957e+06 0 1.58718e+06 4.88511e+06 0 1.62246e+06 4.87042e+06 0 1.65813e+06 4.85551e+06 0 1.69421e+06 4.84043e+06 0 1.73072e+06 4.82521e+06 0 1.7677e+06 4.80988e+06 0 1.80519e+06 4.79452e+06 0 1.84324e+06 4.77917e+06 0 1.88192e+06 4.76394e+06 0 1.92131e+06 4.74892e+06 0 1.96154e+06 4.73426e+06 0 2.00276e+06 4.72017e+06 0 2.04525e+06 4.7069e+06 0 2.08937e+06 4.69489e+06 0 2.136e+06 4.68472e+06 0 2.18631e+06 4.67753e+06 0 2.24593e+06 4.67293e+06 0 -1.24543e+06 5.09203e+06 0 -1.2255e+06 5.07935e+06 0 -1.20001e+06 5.07173e+06 0 -1.17306e+06 5.06564e+06 0 -1.14589e+06 5.06083e+06 0 -1.11899e+06 5.05718e+06 0 -1.09252e+06 5.05464e+06 0 -1.06651e+06 5.05311e+06 0 -1.04095e+06 5.0525e+06 0 -1.0158e+06 5.0527e+06 0 -991030 5.05363e+06 0 -966599 5.05519e+06 0 -942474 5.05732e+06 0 -918622 5.05994e+06 0 -895014 5.06299e+06 0 -871624 5.06641e+06 0 -848428 5.07015e+06 0 -825406 5.07417e+06 0 -802539 5.07842e+06 0 -779809 5.08286e+06 0 -757203 5.08747e+06 0 -734706 5.09221e+06 0 -712306 5.09705e+06 0 -689991 5.10197e+06 0 -667751 5.10695e+06 0 -645578 5.11196e+06 0 -623461 5.11698e+06 0 -601393 5.122e+06 0 -579367 5.127e+06 0 -557375 5.13197e+06 0 -535411 5.13688e+06 0 -513468 5.14174e+06 0 -491542 5.14652e+06 0 -469625 5.15123e+06 0 -447713 5.15583e+06 0 -425801 5.16034e+06 0 -403883 5.16474e+06 0 -381955 5.16901e+06 0 -360012 5.17316e+06 0 -338049 5.17718e+06 0 -316062 5.18105e+06 0 -294047 5.18478e+06 0 -271998 5.18836e+06 0 -249912 5.19179e+06 0 -227785 5.19505e+06 0 -205611 5.19814e+06 0 -183387 5.20106e+06 0 -161108 5.20381e+06 0 -138771 5.20637e+06 0 -116371 5.20876e+06 0 -93902.9 5.21095e+06 0 -71363.9 5.21296e+06 0 -48749 5.21477e+06 0 -26054.2 5.21638e+06 0 -3275.2 5.21779e+06 0 19592.4 5.21899e+06 0 42552.7 5.21999e+06 0 65610.2 5.22077e+06 0 88769 5.22134e+06 0 112034 5.2217e+06 0 135408 5.22183e+06 0 158897 5.22174e+06 0 182504 5.22142e+06 0 206235 5.22088e+06 0 230092 5.2201e+06 0 254082 5.21908e+06 0 278207 5.21783e+06 0 302472 5.21633e+06 0 326882 5.21459e+06 0 351440 5.21261e+06 0 376152 5.21037e+06 0 401021 5.20787e+06 0 426051 5.20512e+06 0 451247 5.20211e+06 0 476613 5.19884e+06 0 502153 5.19529e+06 0 527871 5.19148e+06 0 553771 5.1874e+06 0 579857 5.18303e+06 0 606134 5.17839e+06 0 632604 5.17346e+06 0 659273 5.16825e+06 0 686143 5.16275e+06 0 713220 5.15695e+06 0 740505 5.15085e+06 0 768004 5.14446e+06 0 795720 5.13776e+06 0 823657 5.13076e+06 0 851818 5.12345e+06 0 880207 5.11582e+06 0 908827 5.10788e+06 0 937682 5.09962e+06 0 966775 5.09104e+06 0 996111 5.08214e+06 0 1.02569e+06 5.07291e+06 0 1.05552e+06 5.06336e+06 0 1.08561e+06 5.05348e+06 0 1.11595e+06 5.04326e+06 0 1.14655e+06 5.03272e+06 0 1.17741e+06 5.02185e+06 0 1.20855e+06 5.01064e+06 0 1.23995e+06 4.9991e+06 0 1.27164e+06 4.98724e+06 0 1.30361e+06 4.97505e+06 0 1.33587e+06 4.96253e+06 0 1.36842e+06 4.9497e+06 0 1.40128e+06 4.93655e+06 0 1.43445e+06 4.92309e+06 0 1.46793e+06 4.90933e+06 0 1.50175e+06 4.89528e+06 0 1.53591e+06 4.88096e+06 0 1.57043e+06 4.86637e+06 0 1.60531e+06 4.85154e+06 0 1.64059e+06 4.83648e+06 0 1.67629e+06 4.82122e+06 0 1.71243e+06 4.80579e+06 0 1.74906e+06 4.79024e+06 0 1.7862e+06 4.7746e+06 0 1.82393e+06 4.75893e+06 0 1.86231e+06 4.74329e+06 0 1.90144e+06 4.72778e+06 0 1.94143e+06 4.7125e+06 0 1.98248e+06 4.69759e+06 0 2.02485e+06 4.68323e+06 0 2.06893e+06 4.66965e+06 0 2.11547e+06 4.6571e+06 0 2.16557e+06 4.64581e+06 0 2.22224e+06 4.63497e+06 0 -1.25408e+06 5.07833e+06 0 -1.22905e+06 5.06393e+06 0 -1.20195e+06 5.05511e+06 0 -1.17405e+06 5.04882e+06 0 -1.14619e+06 5.04419e+06 0 -1.1187e+06 5.04087e+06 0 -1.0917e+06 5.0387e+06 0 -1.06524e+06 5.03752e+06 0 -1.03927e+06 5.03723e+06 0 -1.01377e+06 5.03773e+06 0 -988695 5.03892e+06 0 -964003 5.04071e+06 0 -939654 5.04304e+06 0 -915614 5.04583e+06 0 -891849 5.04904e+06 0 -868330 5.05259e+06 0 -845031 5.05645e+06 0 -821929 5.06057e+06 0 -799002 5.06491e+06 0 -776233 5.06943e+06 0 -753604 5.0741e+06 0 -731100 5.0789e+06 0 -708707 5.08379e+06 0 -686412 5.08875e+06 0 -664205 5.09376e+06 0 -642074 5.09879e+06 0 -620011 5.10384e+06 0 -598005 5.10887e+06 0 -576050 5.11389e+06 0 -554137 5.11886e+06 0 -532259 5.12378e+06 0 -510409 5.12864e+06 0 -488582 5.13342e+06 0 -466770 5.13812e+06 0 -444968 5.14272e+06 0 -423171 5.14721e+06 0 -401373 5.1516e+06 0 -379569 5.15586e+06 0 -357755 5.15999e+06 0 -335924 5.16398e+06 0 -314073 5.16784e+06 0 -292197 5.17155e+06 0 -270291 5.1751e+06 0 -248351 5.17849e+06 0 -226372 5.18172e+06 0 -204351 5.18479e+06 0 -182282 5.18767e+06 0 -160161 5.19039e+06 0 -137984 5.19291e+06 0 -115747 5.19526e+06 0 -93445.3 5.19741e+06 0 -71074.8 5.19937e+06 0 -48631.3 5.20114e+06 0 -26110.4 5.2027e+06 0 -3507.96 5.20407e+06 0 19180.3 5.20522e+06 0 41958.7 5.20617e+06 0 64831.5 5.2069e+06 0 87802.8 5.20741e+06 0 110877 5.20771e+06 0 134058 5.20778e+06 0 157351 5.20763e+06 0 180759 5.20725e+06 0 204288 5.20664e+06 0 227940 5.2058e+06 0 251720 5.20472e+06 0 275634 5.20339e+06 0 299684 5.20183e+06 0 323875 5.20002e+06 0 348211 5.19795e+06 0 372696 5.19564e+06 0 397335 5.19307e+06 0 422132 5.19024e+06 0 447090 5.18715e+06 0 472214 5.1838e+06 0 497508 5.18017e+06 0 522976 5.17628e+06 0 548622 5.17211e+06 0 574449 5.16766e+06 0 600462 5.16293e+06 0 626664 5.15791e+06 0 653059 5.15261e+06 0 679652 5.14702e+06 0 706445 5.14113e+06 0 733443 5.13495e+06 0 760649 5.12846e+06 0 788067 5.12168e+06 0 815700 5.11458e+06 0 843552 5.10718e+06 0 871627 5.09946e+06 0 899927 5.09143e+06 0 928457 5.08308e+06 0 957220 5.07441e+06 0 986220 5.06541e+06 0 1.01546e+06 5.05609e+06 0 1.04494e+06 5.04645e+06 0 1.07468e+06 5.03648e+06 0 1.10466e+06 5.02617e+06 0 1.1349e+06 5.01554e+06 0 1.1654e+06 5.00457e+06 0 1.19616e+06 4.99328e+06 0 1.22719e+06 4.98165e+06 0 1.25849e+06 4.96969e+06 0 1.29008e+06 4.95741e+06 0 1.32195e+06 4.9448e+06 0 1.35411e+06 4.93187e+06 0 1.38657e+06 4.91862e+06 0 1.41934e+06 4.90506e+06 0 1.45243e+06 4.89119e+06 0 1.48585e+06 4.87703e+06 0 1.5196e+06 4.86259e+06 0 1.55372e+06 4.84787e+06 0 1.58821e+06 4.83289e+06 0 1.62309e+06 4.81768e+06 0 1.65839e+06 4.80224e+06 0 1.69415e+06 4.78662e+06 0 1.73039e+06 4.77083e+06 0 1.76717e+06 4.75491e+06 0 1.80453e+06 4.73892e+06 0 1.84256e+06 4.72289e+06 0 1.88135e+06 4.7069e+06 0 1.92103e+06 4.69102e+06 0 1.96177e+06 4.67534e+06 0 2.00382e+06 4.65996e+06 0 2.04754e+06 4.64499e+06 0 2.09353e+06 4.63049e+06 0 2.14263e+06 4.61632e+06 0 2.19641e+06 4.60158e+06 0 -1.26216e+06 5.06049e+06 0 -1.233e+06 5.04662e+06 0 -1.20393e+06 5.03765e+06 0 -1.17491e+06 5.03149e+06 0 -1.14626e+06 5.02718e+06 0 -1.11815e+06 5.02426e+06 0 -1.09065e+06 5.02249e+06 0 -1.06374e+06 5.0217e+06 0 -1.0374e+06 5.02176e+06 0 -1.01157e+06 5.02258e+06 0 -986212 5.02405e+06 0 -961279 5.02609e+06 0 -936725 5.02864e+06 0 -912512 5.03163e+06 0 -888604 5.03501e+06 0 -864969 5.03871e+06 0 -841578 5.0427e+06 0 -818405 5.04693e+06 0 -795428 5.05137e+06 0 -772626 5.05598e+06 0 -749981 5.06072e+06 0 -727475 5.06558e+06 0 -705094 5.07053e+06 0 -682824 5.07554e+06 0 -660653 5.08059e+06 0 -638569 5.08566e+06 0 -616562 5.09073e+06 0 -594622 5.09579e+06 0 -572740 5.10082e+06 0 -550907 5.10581e+06 0 -529117 5.11074e+06 0 -507362 5.1156e+06 0 -485634 5.12038e+06 0 -463928 5.12508e+06 0 -442238 5.12967e+06 0 -420557 5.13416e+06 0 -398879 5.13853e+06 0 -377200 5.14278e+06 0 -355515 5.1469e+06 0 -333817 5.15088e+06 0 -312102 5.15471e+06 0 -290366 5.1584e+06 0 -268603 5.16193e+06 0 -246809 5.16529e+06 0 -224980 5.1685e+06 0 -203111 5.17153e+06 0 -181197 5.17439e+06 0 -159234 5.17706e+06 0 -137218 5.17956e+06 0 -115144 5.18186e+06 0 -93008.4 5.18398e+06 0 -70806.7 5.1859e+06 0 -48534.5 5.18762e+06 0 -26187.5 5.18914e+06 0 -3761.68 5.19046e+06 0 18747.4 5.19157e+06 0 41343.8 5.19246e+06 0 64031.9 5.19314e+06 0 86815.9 5.1936e+06 0 109700 5.19385e+06 0 132688 5.19386e+06 0 155785 5.19365e+06 0 178994 5.19321e+06 0 202321 5.19254e+06 0 225768 5.19163e+06 0 249340 5.19049e+06 0 273042 5.1891e+06 0 296877 5.18746e+06 0 320850 5.18558e+06 0 344964 5.18345e+06 0 369224 5.18106e+06 0 393634 5.17842e+06 0 418198 5.17551e+06 0 442920 5.17235e+06 0 467803 5.16891e+06 0 492852 5.16521e+06 0 518070 5.16123e+06 0 543463 5.15698e+06 0 569032 5.15245e+06 0 594782 5.14764e+06 0 620718 5.14254e+06 0 646842 5.13715e+06 0 673158 5.13147e+06 0 699670 5.1255e+06 0 726382 5.11923e+06 0 753297 5.11266e+06 0 780419 5.10578e+06 0 807751 5.0986e+06 0 835296 5.0911e+06 0 863059 5.0833e+06 0 891043 5.07518e+06 0 919250 5.06674e+06 0 947686 5.05798e+06 0 976353 5.0489e+06 0 1.00525e+06 5.03949e+06 0 1.03439e+06 5.02975e+06 0 1.06378e+06 5.01969e+06 0 1.09341e+06 5.0093e+06 0 1.12329e+06 4.99858e+06 0 1.15342e+06 4.98752e+06 0 1.18381e+06 4.97614e+06 0 1.21447e+06 4.96442e+06 0 1.2454e+06 4.95238e+06 0 1.2766e+06 4.94e+06 0 1.30808e+06 4.9273e+06 0 1.33985e+06 4.91427e+06 0 1.37192e+06 4.90092e+06 0 1.40429e+06 4.88726e+06 0 1.43698e+06 4.87329e+06 0 1.47e+06 4.85902e+06 0 1.50335e+06 4.84445e+06 0 1.53706e+06 4.8296e+06 0 1.57114e+06 4.81449e+06 0 1.60562e+06 4.79911e+06 0 1.64052e+06 4.78351e+06 0 1.67587e+06 4.76768e+06 0 1.71171e+06 4.75166e+06 0 1.74809e+06 4.73548e+06 0 1.78506e+06 4.71917e+06 0 1.82269e+06 4.70277e+06 0 1.86109e+06 4.68632e+06 0 1.90037e+06 4.66987e+06 0 1.94068e+06 4.65348e+06 0 1.98227e+06 4.63718e+06 0 2.02543e+06 4.62102e+06 0 2.07063e+06 4.60493e+06 0 2.11846e+06 4.58871e+06 0 2.16981e+06 4.57166e+06 0 -1.26887e+06 5.04014e+06 0 -1.23661e+06 5.02768e+06 0 -1.20567e+06 5.0193e+06 0 -1.1755e+06 5.01361e+06 0 -1.14605e+06 5.00977e+06 0 -1.11734e+06 5.00733e+06 0 -1.08934e+06 5.00602e+06 0 -1.06201e+06 5.00565e+06 0 -1.03531e+06 5.0061e+06 0 -1.00919e+06 5.00726e+06 0 -983570 5.00904e+06 0 -958417 5.01135e+06 0 -933678 5.01414e+06 0 -909309 5.01734e+06 0 -885273 5.0209e+06 0 -861535 5.02477e+06 0 -838063 5.0289e+06 0 -814830 5.03326e+06 0 -791811 5.03781e+06 0 -768984 5.04251e+06 0 -746329 5.04734e+06 0 -723828 5.05228e+06 0 -701464 5.05729e+06 0 -679224 5.06235e+06 0 -657093 5.06744e+06 0 -635059 5.07255e+06 0 -613111 5.07766e+06 0 -591238 5.08274e+06 0 -569432 5.0878e+06 0 -547683 5.0928e+06 0 -525982 5.09775e+06 0 -504323 5.10262e+06 0 -482697 5.10741e+06 0 -461098 5.1121e+06 0 -439520 5.1167e+06 0 -417956 5.12118e+06 0 -396400 5.12554e+06 0 -374847 5.12978e+06 0 -353290 5.13389e+06 0 -331726 5.13785e+06 0 -310148 5.14167e+06 0 -288552 5.14533e+06 0 -266933 5.14884e+06 0 -245286 5.15219e+06 0 -223606 5.15536e+06 0 -201889 5.15837e+06 0 -180131 5.1612e+06 0 -158326 5.16384e+06 0 -136471 5.1663e+06 0 -114561 5.16858e+06 0 -92591.2 5.17065e+06 0 -70558.2 5.17254e+06 0 -48457.4 5.17422e+06 0 -26284.5 5.1757e+06 0 -4035.21 5.17697e+06 0 18294.6 5.17803e+06 0 40709.2 5.17887e+06 0 63212.7 5.17951e+06 0 85809.3 5.17992e+06 0 108503 5.18011e+06 0 131299 5.18007e+06 0 154200 5.1798e+06 0 177210 5.1793e+06 0 200335 5.17857e+06 0 223578 5.1776e+06 0 246942 5.17639e+06 0 270433 5.17494e+06 0 294054 5.17324e+06 0 317809 5.17129e+06 0 341702 5.16909e+06 0 365737 5.16663e+06 0 389919 5.16391e+06 0 414250 5.16094e+06 0 438736 5.15769e+06 0 463379 5.15418e+06 0 488184 5.1504e+06 0 513155 5.14635e+06 0 538295 5.14202e+06 0 563608 5.13741e+06 0 589098 5.13251e+06 0 614768 5.12733e+06 0 640622 5.12187e+06 0 666663 5.1161e+06 0 692896 5.11005e+06 0 719324 5.10369e+06 0 745950 5.09703e+06 0 772777 5.09007e+06 0 799810 5.0828e+06 0 827051 5.07522e+06 0 854505 5.06733e+06 0 882174 5.05913e+06 0 910062 5.0506e+06 0 938173 5.04175e+06 0 966509 5.03259e+06 0 995075 5.02309e+06 0 1.02388e+06 5.01327e+06 0 1.05291e+06 5.00312e+06 0 1.08219e+06 4.99265e+06 0 1.11171e+06 4.98184e+06 0 1.14149e+06 4.9707e+06 0 1.17151e+06 4.95922e+06 0 1.2018e+06 4.94742e+06 0 1.23235e+06 4.93529e+06 0 1.26317e+06 4.92282e+06 0 1.29427e+06 4.91003e+06 0 1.32565e+06 4.89691e+06 0 1.35733e+06 4.88346e+06 0 1.3893e+06 4.8697e+06 0 1.42159e+06 4.85563e+06 0 1.4542e+06 4.84124e+06 0 1.48715e+06 4.82656e+06 0 1.52045e+06 4.81158e+06 0 1.55412e+06 4.79633e+06 0 1.58819e+06 4.7808e+06 0 1.62267e+06 4.76502e+06 0 1.65761e+06 4.749e+06 0 1.69303e+06 4.73276e+06 0 1.72899e+06 4.71632e+06 0 1.76553e+06 4.69971e+06 0 1.80273e+06 4.68295e+06 0 1.84069e+06 4.66606e+06 0 1.8795e+06 4.64909e+06 0 1.91931e+06 4.63205e+06 0 1.96033e+06 4.61495e+06 0 2.00281e+06 4.59777e+06 0 2.04709e+06 4.58042e+06 0 2.09359e+06 4.56267e+06 0 2.14285e+06 4.54396e+06 0 -1.274e+06 5.01814e+06 0 -1.23947e+06 5.00751e+06 0 -1.20695e+06 5.00016e+06 0 -1.17571e+06 4.99521e+06 0 -1.1455e+06 4.99199e+06 0 -1.1162e+06 4.99012e+06 0 -1.08774e+06 4.98931e+06 0 -1.06003e+06 4.98941e+06 0 -1.03301e+06 4.99027e+06 0 -1.00661e+06 4.9918e+06 0 -980759 4.9939e+06 0 -955408 4.99651e+06 0 -930503 4.99955e+06 0 -905997 5.00298e+06 0 -881848 5.00674e+06 0 -858020 5.01078e+06 0 -834480 5.01507e+06 0 -811197 5.01956e+06 0 -788145 5.02423e+06 0 -765301 5.02904e+06 0 -742644 5.03396e+06 0 -720153 5.03897e+06 0 -697813 5.04405e+06 0 -675606 5.04918e+06 0 -653520 5.05433e+06 0 -631540 5.05948e+06 0 -609654 5.06462e+06 0 -587853 5.06974e+06 0 -566125 5.07482e+06 0 -544461 5.07985e+06 0 -522852 5.08481e+06 0 -501290 5.08969e+06 0 -479768 5.09449e+06 0 -458278 5.09919e+06 0 -436813 5.10379e+06 0 -415367 5.10827e+06 0 -393933 5.11263e+06 0 -372506 5.11686e+06 0 -351080 5.12096e+06 0 -329650 5.12491e+06 0 -308209 5.12871e+06 0 -286754 5.13236e+06 0 -265279 5.13585e+06 0 -243779 5.13917e+06 0 -222249 5.14233e+06 0 -200685 5.14531e+06 0 -179082 5.14811e+06 0 -157436 5.15072e+06 0 -135742 5.15315e+06 0 -113995 5.15539e+06 0 -92192.3 5.15743e+06 0 -70328.3 5.15928e+06 0 -48398.9 5.16092e+06 0 -26400.1 5.16236e+06 0 -4327.44 5.16359e+06 0 17823.1 5.1646e+06 0 40055.8 5.16541e+06 0 62374.9 5.16599e+06 0 84784.3 5.16635e+06 0 107288 5.16649e+06 0 129891 5.1664e+06 0 152597 5.16608e+06 0 175409 5.16552e+06 0 198332 5.16473e+06 0 221370 5.16371e+06 0 244527 5.16243e+06 0 267807 5.16092e+06 0 291214 5.15915e+06 0 314752 5.15714e+06 0 338425 5.15487e+06 0 362236 5.15234e+06 0 386190 5.14956e+06 0 410290 5.14651e+06 0 434541 5.1432e+06 0 458945 5.13961e+06 0 483507 5.13576e+06 0 508231 5.13163e+06 0 533120 5.12722e+06 0 558178 5.12253e+06 0 583408 5.11756e+06 0 608814 5.1123e+06 0 634400 5.10675e+06 0 660168 5.10091e+06 0 686124 5.09477e+06 0 712269 5.08833e+06 0 738608 5.0816e+06 0 765143 5.07455e+06 0 791879 5.0672e+06 0 818818 5.05954e+06 0 845965 5.05156e+06 0 873322 5.04327e+06 0 900893 5.03466e+06 0 928681 5.02573e+06 0 956690 5.01648e+06 0 984924 5.0069e+06 0 1.01339e+06 4.997e+06 0 1.04208e+06 4.98677e+06 0 1.07101e+06 4.97621e+06 0 1.10018e+06 4.96531e+06 0 1.12959e+06 4.95409e+06 0 1.15926e+06 4.94253e+06 0 1.18917e+06 4.93064e+06 0 1.21935e+06 4.91842e+06 0 1.24979e+06 4.90587e+06 0 1.28051e+06 4.89299e+06 0 1.3115e+06 4.87978e+06 0 1.34279e+06 4.86624e+06 0 1.37437e+06 4.85238e+06 0 1.40625e+06 4.8382e+06 0 1.43846e+06 4.82371e+06 0 1.471e+06 4.80891e+06 0 1.50389e+06 4.79381e+06 0 1.53715e+06 4.77841e+06 0 1.57079e+06 4.76274e+06 0 1.60486e+06 4.74679e+06 0 1.63936e+06 4.73058e+06 0 1.67435e+06 4.71413e+06 0 1.70987e+06 4.69744e+06 0 1.74596e+06 4.68054e+06 0 1.7827e+06 4.66344e+06 0 1.82017e+06 4.64616e+06 0 1.85847e+06 4.62871e+06 0 1.89772e+06 4.61108e+06 0 1.93811e+06 4.59328e+06 0 1.97982e+06 4.57525e+06 0 2.02313e+06 4.55689e+06 0 2.06834e+06 4.53796e+06 0 2.11578e+06 4.51806e+06 0 -1.27756e+06 4.99509e+06 0 -1.2414e+06 4.98643e+06 0 -1.20761e+06 4.98037e+06 0 -1.17544e+06 4.97634e+06 0 -1.14455e+06 4.97387e+06 0 -1.11473e+06 4.97264e+06 0 -1.08584e+06 4.9724e+06 0 -1.05779e+06 4.97299e+06 0 -1.03047e+06 4.97429e+06 0 -1.00383e+06 4.97621e+06 0 -977770 4.97866e+06 0 -952244 4.98157e+06 0 -927193 4.98488e+06 0 -902567 4.98855e+06 0 -878322 4.99252e+06 0 -854419 4.99675e+06 0 -830822 5.0012e+06 0 -807500 5.00584e+06 0 -784425 5.01063e+06 0 -761573 5.01556e+06 0 -738921 5.02058e+06 0 -716448 5.02568e+06 0 -694136 5.03084e+06 0 -671969 5.03603e+06 0 -649931 5.04124e+06 0 -628009 5.04644e+06 0 -606190 5.05163e+06 0 -584462 5.05679e+06 0 -562815 5.0619e+06 0 -541238 5.06695e+06 0 -519723 5.07193e+06 0 -498261 5.07683e+06 0 -476844 5.08164e+06 0 -455464 5.08635e+06 0 -434114 5.09096e+06 0 -412787 5.09544e+06 0 -391477 5.0998e+06 0 -370177 5.10402e+06 0 -348883 5.10811e+06 0 -327587 5.11205e+06 0 -306285 5.11585e+06 0 -284971 5.11948e+06 0 -263640 5.12295e+06 0 -242287 5.12626e+06 0 -220908 5.12939e+06 0 -199497 5.13234e+06 0 -178050 5.13512e+06 0 -156563 5.13771e+06 0 -135030 5.14011e+06 0 -113447 5.14231e+06 0 -91810.8 5.14432e+06 0 -70115.7 5.14613e+06 0 -48358 5.14774e+06 0 -26533.2 5.14914e+06 0 -4637.26 5.15032e+06 0 17334.1 5.1513e+06 0 39385 5.15206e+06 0 61519.5 5.15259e+06 0 83741.9 5.15291e+06 0 106056 5.15299e+06 0 128466 5.15285e+06 0 150976 5.15248e+06 0 173591 5.15187e+06 0 196313 5.15103e+06 0 219147 5.14994e+06 0 242097 5.14861e+06 0 265167 5.14703e+06 0 288360 5.14521e+06 0 311681 5.14313e+06 0 335134 5.1408e+06 0 358722 5.1382e+06 0 382449 5.13535e+06 0 406319 5.13223e+06 0 430335 5.12885e+06 0 454501 5.1252e+06 0 478822 5.12127e+06 0 503300 5.11707e+06 0 527939 5.11259e+06 0 552742 5.10782e+06 0 577714 5.10277e+06 0 602858 5.09744e+06 0 628177 5.09181e+06 0 653674 5.08589e+06 0 679354 5.07967e+06 0 705218 5.07316e+06 0 731272 5.06634e+06 0 757517 5.05922e+06 0 783958 5.05178e+06 0 810598 5.04404e+06 0 837440 5.03599e+06 0 864487 5.02761e+06 0 891743 5.01892e+06 0 919212 5.00991e+06 0 946896 5.00058e+06 0 974799 4.99092e+06 0 1.00293e+06 4.98094e+06 0 1.03128e+06 4.97062e+06 0 1.05986e+06 4.95998e+06 0 1.08868e+06 4.94901e+06 0 1.11774e+06 4.9377e+06 0 1.14704e+06 4.92606e+06 0 1.17659e+06 4.91409e+06 0 1.2064e+06 4.90178e+06 0 1.23647e+06 4.88915e+06 0 1.2668e+06 4.87618e+06 0 1.29741e+06 4.86287e+06 0 1.3283e+06 4.84925e+06 0 1.35949e+06 4.83529e+06 0 1.39098e+06 4.82101e+06 0 1.42278e+06 4.80641e+06 0 1.45491e+06 4.7915e+06 0 1.48738e+06 4.77628e+06 0 1.52022e+06 4.76075e+06 0 1.55344e+06 4.74493e+06 0 1.58707e+06 4.72882e+06 0 1.62114e+06 4.71243e+06 0 1.65569e+06 4.69577e+06 0 1.69074e+06 4.67885e+06 0 1.72637e+06 4.66168e+06 0 1.76262e+06 4.64427e+06 0 1.79957e+06 4.62662e+06 0 1.83732e+06 4.60873e+06 0 1.87598e+06 4.5906e+06 0 1.91568e+06 4.57218e+06 0 1.95659e+06 4.55344e+06 0 1.99892e+06 4.53424e+06 0 2.04288e+06 4.5144e+06 0 2.0887e+06 4.4936e+06 0 -1.27961e+06 4.97139e+06 0 -1.24232e+06 4.96473e+06 0 -1.20756e+06 4.96008e+06 0 -1.17463e+06 4.95709e+06 0 -1.14316e+06 4.95546e+06 0 -1.11287e+06 4.95492e+06 0 -1.08362e+06 4.95529e+06 0 -1.05526e+06 4.95641e+06 0 -1.02769e+06 4.95818e+06 0 -1.00083e+06 4.96051e+06 0 -974593 4.96332e+06 0 -948917 4.96655e+06 0 -923742 4.97015e+06 0 -899015 4.97406e+06 0 -874690 4.97825e+06 0 -850725 4.98268e+06 0 -827084 4.98731e+06 0 -803735 4.9921e+06 0 -780647 4.99703e+06 0 -757795 5.00208e+06 0 -735155 5.00721e+06 0 -712706 5.01241e+06 0 -690429 5.01765e+06 0 -668307 5.02291e+06 0 -646323 5.02818e+06 0 -624463 5.03344e+06 0 -602714 5.03868e+06 0 -581063 5.04388e+06 0 -559500 5.04902e+06 0 -538014 5.05411e+06 0 -516595 5.05911e+06 0 -495235 5.06403e+06 0 -473924 5.06886e+06 0 -452656 5.07358e+06 0 -431422 5.07819e+06 0 -410215 5.08268e+06 0 -389030 5.08704e+06 0 -367859 5.09126e+06 0 -346696 5.09535e+06 0 -325536 5.09928e+06 0 -304372 5.10306e+06 0 -283200 5.10668e+06 0 -262015 5.11014e+06 0 -240810 5.11343e+06 0 -219582 5.11654e+06 0 -198324 5.11948e+06 0 -177034 5.12223e+06 0 -155705 5.12479e+06 0 -134334 5.12716e+06 0 -112915 5.12934e+06 0 -91445.4 5.13132e+06 0 -69919.5 5.13309e+06 0 -48333.4 5.13466e+06 0 -26682.8 5.13602e+06 0 -4963.57 5.13717e+06 0 16828.5 5.13811e+06 0 38697.6 5.13882e+06 0 60647.8 5.13931e+06 0 82683.2 5.13958e+06 0 104808 5.13962e+06 0 127026 5.13943e+06 0 149341 5.13901e+06 0 171757 5.13835e+06 0 194278 5.13745e+06 0 216909 5.13631e+06 0 239652 5.13492e+06 0 262512 5.13329e+06 0 285493 5.1314e+06 0 308598 5.12926e+06 0 331831 5.12686e+06 0 355196 5.12421e+06 0 378697 5.12129e+06 0 402337 5.11811e+06 0 426120 5.11466e+06 0 450049 5.11093e+06 0 474129 5.10694e+06 0 498362 5.10266e+06 0 522752 5.09811e+06 0 547303 5.09327e+06 0 572018 5.08815e+06 0 596901 5.08274e+06 0 621954 5.07704e+06 0 647182 5.07105e+06 0 672587 5.06475e+06 0 698173 5.05816e+06 0 723943 5.05127e+06 0 749901 5.04406e+06 0 776049 5.03655e+06 0 802391 5.02873e+06 0 828931 5.0206e+06 0 855670 5.01215e+06 0 882614 5.00338e+06 0 909765 4.99429e+06 0 937127 4.98488e+06 0 964703 4.97515e+06 0 992496 4.96508e+06 0 1.02051e+06 4.95469e+06 0 1.04875e+06 4.94397e+06 0 1.07722e+06 4.93291e+06 0 1.10593e+06 4.92153e+06 0 1.13487e+06 4.90981e+06 0 1.16406e+06 4.89776e+06 0 1.1935e+06 4.88537e+06 0 1.22319e+06 4.87265e+06 0 1.25315e+06 4.85959e+06 0 1.28337e+06 4.8462e+06 0 1.31388e+06 4.83249e+06 0 1.34467e+06 4.81844e+06 0 1.37575e+06 4.80406e+06 0 1.40715e+06 4.78936e+06 0 1.43887e+06 4.77434e+06 0 1.47093e+06 4.759e+06 0 1.50334e+06 4.74334e+06 0 1.53614e+06 4.72738e+06 0 1.56933e+06 4.71112e+06 0 1.60295e+06 4.69455e+06 0 1.63704e+06 4.6777e+06 0 1.67163e+06 4.66056e+06 0 1.70677e+06 4.64314e+06 0 1.74251e+06 4.62543e+06 0 1.77893e+06 4.60745e+06 0 1.8161e+06 4.58917e+06 0 1.85412e+06 4.57058e+06 0 1.89312e+06 4.55165e+06 0 1.93321e+06 4.5323e+06 0 1.97457e+06 4.51242e+06 0 2.01734e+06 4.49186e+06 0 2.06169e+06 4.47035e+06 0 -1.28027e+06 4.94734e+06 0 -1.24222e+06 4.94262e+06 0 -1.20676e+06 4.93942e+06 0 -1.17325e+06 4.93755e+06 0 -1.14129e+06 4.93681e+06 0 -1.11062e+06 4.93702e+06 0 -1.08105e+06 4.93803e+06 0 -1.05244e+06 4.9397e+06 0 -1.02465e+06 4.94195e+06 0 -997609 4.94471e+06 0 -971222 4.9479e+06 0 -945421 4.95146e+06 0 -920143 4.95535e+06 0 -895334 4.95953e+06 0 -870945 4.96396e+06 0 -846934 4.96859e+06 0 -823263 4.9734e+06 0 -799897 4.97836e+06 0 -776806 4.98343e+06 0 -753963 4.98861e+06 0 -731344 4.99385e+06 0 -708927 4.99915e+06 0 -686691 5.00448e+06 0 -664618 5.00982e+06 0 -642692 5.01516e+06 0 -620899 5.02048e+06 0 -599223 5.02577e+06 0 -577653 5.03102e+06 0 -556177 5.0362e+06 0 -534784 5.04132e+06 0 -513464 5.04635e+06 0 -492207 5.0513e+06 0 -471006 5.05614e+06 0 -449850 5.06088e+06 0 -428734 5.0655e+06 0 -407650 5.07e+06 0 -386590 5.07436e+06 0 -365548 5.07859e+06 0 -344519 5.08267e+06 0 -323495 5.0866e+06 0 -302471 5.09037e+06 0 -281442 5.09398e+06 0 -260402 5.09742e+06 0 -239345 5.1007e+06 0 -218268 5.10379e+06 0 -197165 5.10671e+06 0 -176031 5.10943e+06 0 -154862 5.11197e+06 0 -133652 5.11432e+06 0 -112398 5.11647e+06 0 -91095 5.11842e+06 0 -69738.4 5.12016e+06 0 -48324.1 5.1217e+06 0 -26847.8 5.12303e+06 0 -5305.3 5.12414e+06 0 16307.6 5.12503e+06 0 37994.9 5.12571e+06 0 59760.7 5.12616e+06 0 81609.2 5.12638e+06 0 103544 5.12638e+06 0 125570 5.12614e+06 0 147690 5.12567e+06 0 169909 5.12495e+06 0 192229 5.124e+06 0 214656 5.12281e+06 0 237193 5.12137e+06 0 259844 5.11967e+06 0 282612 5.11773e+06 0 305502 5.11553e+06 0 328516 5.11308e+06 0 351659 5.11036e+06 0 374935 5.10738e+06 0 398346 5.10413e+06 0 421896 5.10061e+06 0 445589 5.09682e+06 0 469429 5.09276e+06 0 493419 5.08842e+06 0 517562 5.0838e+06 0 541861 5.07889e+06 0 566321 5.0737e+06 0 590944 5.06822e+06 0 615733 5.06244e+06 0 640693 5.05637e+06 0 665825 5.05001e+06 0 691134 5.04334e+06 0 716623 5.03637e+06 0 742294 5.02909e+06 0 768152 5.02151e+06 0 794199 5.01361e+06 0 820438 5.0054e+06 0 846872 4.99688e+06 0 873506 4.98803e+06 0 900342 4.97887e+06 0 927384 4.96938e+06 0 954635 4.95957e+06 0 982098 4.94943e+06 0 1.00978e+06 4.93896e+06 0 1.03768e+06 4.92816e+06 0 1.0658e+06 4.91703e+06 0 1.09416e+06 4.90557e+06 0 1.12275e+06 4.89377e+06 0 1.15157e+06 4.88164e+06 0 1.18065e+06 4.86917e+06 0 1.20997e+06 4.85637e+06 0 1.23955e+06 4.84323e+06 0 1.26939e+06 4.82976e+06 0 1.2995e+06 4.81596e+06 0 1.3299e+06 4.80182e+06 0 1.36059e+06 4.78735e+06 0 1.39158e+06 4.77254e+06 0 1.42289e+06 4.75742e+06 0 1.45453e+06 4.74196e+06 0 1.48652e+06 4.72619e+06 0 1.51888e+06 4.71009e+06 0 1.55163e+06 4.69368e+06 0 1.5848e+06 4.67695e+06 0 1.61842e+06 4.65992e+06 0 1.65253e+06 4.64257e+06 0 1.68717e+06 4.62492e+06 0 1.72239e+06 4.60695e+06 0 1.75826e+06 4.58866e+06 0 1.79484e+06 4.57003e+06 0 1.83221e+06 4.55104e+06 0 1.87048e+06 4.53165e+06 0 1.90975e+06 4.5118e+06 0 1.95015e+06 4.49137e+06 0 1.9918e+06 4.47022e+06 0 2.0348e+06 4.44816e+06 0 -1.27963e+06 4.92314e+06 0 -1.24114e+06 4.92027e+06 0 -1.2052e+06 4.91851e+06 0 -1.17126e+06 4.91779e+06 0 -1.13894e+06 4.91798e+06 0 -1.10796e+06 4.91897e+06 0 -1.07814e+06 4.92064e+06 0 -1.04931e+06 4.92289e+06 0 -1.02135e+06 4.92564e+06 0 -994160 4.92884e+06 0 -967651 4.932