<?xml version="1.0"?> 
<VTKFile type="StructuredGrid" version="0.1"> 
<StructuredGrid WholeExtent="0 127 0 127 0 0"> 
<Piece Extent="0 127 0 127 0 0"> 
<PointData>
<DataArray type="Float32" Name="E" format="ascii" NumberOfComponents="3"> 
-517000 0.007906 0 -521563 0.00793386 0 -526198 0.00795725 0 -530905 0.00797608 0 -535685 0.00799013 0 -540538 0.00799927 0 -545464 0.00800334 0 -550464 0.0080021 0 -555538 0.00799549 0 -560687 0.00798327 0 -565911 0.00796526 0 -571211 0.00794128 0 -576586 0.00791115 0 -582038 0.0078747 0 -587567 0.00783177 0 -593173 0.00778207 0 -598857 0.00772548 0 -604618 0.00766179 0 -610458 0.00759077 0 -616378 0.00751224 0 -622376 0.00742608 0 -628454 0.00733191 0 -634612 0.00722963 0 -640851 0.00711905 0 -647170 0.00699991 0 -653571 0.00687203 0 -660053 0.00673517 0 -666617 0.00658917 0 -673263 0.00643376 0 -679992 0.00626882 0 -686804 0.00609409 0 -693700 0.00590931 0 -700679 0.00571448 0 -707742 0.00550911 0 -714889 0.00529321 0 -722120 0.00506648 0 -729437 0.00482886 0 -736839 0.00458001 0 -744325 0.0043199 0 -751898 0.00404821 0 -759556 0.00376496 0 -767300 0.00346974 0 -775130 0.00316265 0 -783047 0.0028434 0 -791050 0.00251189 0 -799140 0.00216803 0 -807317 0.0018117 0 -815580 0.00144275 0 -823931 0.00106116 0 -832368 0.000666752 0 -840893 0.000259714 0 -849505 -0.000160329 0 -858203 -0.000593219 0 -866989 -0.00103899 0 -875862 -0.00149764 0 -884822 -0.00196917 0 -893869 -0.00245346 0 -903003 -0.00295059 0 -912223 -0.00346034 0 -921529 -0.00398266 0 -930922 -0.00451743 0 -940401 -0.00506448 0 -949966 -0.0056236 0 -959616 -0.00619477 0 -969352 -0.00677743 0 -979172 -0.0073716 0 -989076 -0.0079769 0 -999065 -0.00859312 0 -1.00914e+06 -0.00921972 0 -1.01929e+06 -0.00985669 0 -1.02953e+06 -0.0105032 0 -1.03985e+06 -0.0111592 0 -1.05025e+06 -0.0118239 0 -1.06074e+06 -0.0124971 0 -1.0713e+06 -0.0131782 0 -1.08194e+06 -0.0138665 0 -1.09266e+06 -0.0145618 0 -1.10346e+06 -0.0152631 0 -1.11434e+06 -0.0159699 0 -1.12529e+06 -0.0166817 0 -1.13632e+06 -0.0173976 0 -1.14742e+06 -0.0181171 0 -1.1586e+06 -0.0188392 0 -1.16985e+06 -0.0195633 0 -1.18117e+06 -0.0202885 0 -1.19256e+06 -0.021014 0 -1.20403e+06 -0.021739 0 -1.21556e+06 -0.0224625 0 -1.22715e+06 -0.0231839 0 -1.23882e+06 -0.0239018 0 -1.25055e+06 -0.0246158 0 -1.26234e+06 -0.0253245 0 -1.27419e+06 -0.0260273 0 -1.28611e+06 -0.026723 0 -1.29808e+06 -0.0274107 0 -1.31011e+06 -0.0280894 0 -1.3222e+06 -0.028758 0 -1.33435e+06 -0.0294155 0 -1.34655e+06 -0.0300611 0 -1.35879e+06 -0.0306936 0 -1.37109e+06 -0.0313121 0 -1.38344e+06 -0.0319154 0 -1.39584e+06 -0.0325027 0 -1.40828e+06 -0.0330729 0 -1.42076e+06 -0.0336253 0 -1.43329e+06 -0.0341586 0 -1.44585e+06 -0.0346721 0 -1.45846e+06 -0.0351646 0 -1.4711e+06 -0.0356358 0 -1.48377e+06 -0.0360842 0 -1.49648e+06 -0.0365095 0 -1.50921e+06 -0.0369104 0 -1.52198e+06 -0.0372865 0 -1.53477e+06 -0.0376372 0 -1.54759e+06 -0.0379615 0 -1.56042e+06 -0.0382588 0 -1.57328e+06 -0.0385287 0 -1.58616e+06 -0.0387706 0 -1.59906e+06 -0.038984 0 -1.61197e+06 -0.0391682 0 -1.62489e+06 -0.0393234 0 -1.63782e+06 -0.0394486 0 -1.65076e+06 -0.039544 0 -1.6637e+06 -0.0396093 0 -1.67665e+06 -0.039644 0 -1.6896e+06 -0.0396485 0 -1.70255e+06 -0.0396224 0 -1.7155e+06 -0.0395656 0 -516965 4527.19 0 -521528 4598.71 0 -526162 4670.65 0 -530869 4743.02 0 -535649 4815.81 0 -540501 4889.02 0 -545427 4962.66 0 -550427 5036.73 0 -555501 5111.22 0 -560649 5186.14 0 -565873 5261.48 0 -571173 5337.24 0 -576548 5413.43 0 -582000 5490.04 0 -587528 5567.07 0 -593134 5644.51 0 -598817 5722.37 0 -604579 5800.64 0 -610419 5879.32 0 -616338 5958.4 0 -622336 6037.88 0 -628414 6117.76 0 -634572 6198.02 0 -640810 6278.67 0 -647129 6359.7 0 -653530 6441.1 0 -660012 6522.87 0 -666576 6605 0 -673222 6687.47 0 -679951 6770.29 0 -686763 6853.44 0 -693658 6936.92 0 -700637 7020.71 0 -707699 7104.81 0 -714847 7189.2 0 -722078 7273.87 0 -729394 7358.81 0 -736796 7444 0 -744283 7529.44 0 -751855 7615.11 0 -759513 7701 0 -767257 7787.08 0 -775087 7873.36 0 -783004 7959.79 0 -791007 8046.39 0 -799097 8133.11 0 -807273 8219.95 0 -815537 8306.89 0 -823887 8393.9 0 -832325 8480.97 0 -840849 8568.07 0 -849461 8655.19 0 -858160 8742.3 0 -866946 8829.38 0 -875819 8916.41 0 -884779 9003.35 0 -893826 9090.19 0 -902959 9176.9 0 -912180 9263.45 0 -921486 9349.82 0 -930879 9435.98 0 -940358 9521.89 0 -949923 9607.54 0 -959574 9692.89 0 -969309 9777.91 0 -979130 9862.56 0 -989034 9946.83 0 -999023 10030.7 0 -1.0091e+06 10114.1 0 -1.01925e+06 10197 0 -1.02949e+06 10279.3 0 -1.03981e+06 10361.1 0 -1.05021e+06 10442.3 0 -1.0607e+06 10522.9 0 -1.07126e+06 10602.9 0 -1.0819e+06 10682.1 0 -1.09262e+06 10760.6 0 -1.10342e+06 10838.3 0 -1.1143e+06 10915.2 0 -1.12525e+06 10991.2 0 -1.13628e+06 11066.4 0 -1.14739e+06 11140.6 0 -1.15856e+06 11213.9 0 -1.16981e+06 11286.2 0 -1.18114e+06 11357.4 0 -1.19253e+06 11427.5 0 -1.20399e+06 11496.6 0 -1.21552e+06 11564.5 0 -1.22712e+06 11631.1 0 -1.23879e+06 11696.6 0 -1.25051e+06 11760.8 0 -1.26231e+06 11823.6 0 -1.27416e+06 11885.1 0 -1.28608e+06 11945.3 0 -1.29805e+06 12004 0 -1.31009e+06 12061.2 0 -1.32218e+06 12117 0 -1.33432e+06 12171.2 0 -1.34652e+06 12223.9 0 -1.35877e+06 12275 0 -1.37107e+06 12324.4 0 -1.38342e+06 12372.2 0 -1.39581e+06 12418.2 0 -1.40826e+06 12462.6 0 -1.42074e+06 12505.2 0 -1.43327e+06 12546 0 -1.44583e+06 12584.9 0 -1.45844e+06 12622.1 0 -1.47108e+06 12657.3 0 -1.48375e+06 12690.7 0 -1.49646e+06 12722.1 0 -1.5092e+06 12751.6 0 -1.52196e+06 12779.2 0 -1.53476e+06 12804.7 0 -1.54757e+06 12828.3 0 -1.56041e+06 12849.8 0 -1.57328e+06 12869.3 0 -1.58615e+06 12886.7 0 -1.59905e+06 12902.1 0 -1.61196e+06 12915.4 0 -1.62488e+06 12926.6 0 -1.63781e+06 12935.8 0 -1.65075e+06 12942.8 0 -1.6637e+06 12947.7 0 -1.67665e+06 12950.6 0 -1.6896e+06 12951.3 0 -1.70255e+06 12949.9 0 -1.7155e+06 12946.4 0 -516858 9053.97 0 -521420 9197 0 -526054 9340.89 0 -530760 9485.62 0 -535539 9631.19 0 -540391 9777.62 0 -545316 9924.9 0 -550315 10073 0 -555389 10222 0 -560537 10371.8 0 -565760 10522.5 0 -571059 10674.1 0 -576433 10826.4 0 -581884 10979.7 0 -587412 11133.7 0 -593018 11288.6 0 -598700 11444.3 0 -604461 11600.9 0 -610301 11758.2 0 -616219 11916.4 0 -622217 12075.4 0 -628294 12235.1 0 -634451 12395.7 0 -640689 12557 0 -647007 12719 0 -653407 12881.8 0 -659889 13045.4 0 -666452 13209.6 0 -673098 13374.6 0 -679826 13540.3 0 -686638 13706.6 0 -693532 13873.5 0 -700511 14041.1 0 -707573 14209.3 0 -714720 14378.1 0 -721951 14547.5 0 -729267 14717.4 0 -736668 14887.8 0 -744154 15058.7 0 -751726 15230 0 -759384 15401.8 0 -767128 15574 0 -774958 15746.5 0 -782874 15919.4 0 -790877 16092.6 0 -798967 16266.1 0 -807143 16439.8 0 -815406 16613.7 0 -823757 16787.7 0 -832194 16961.9 0 -840719 17136.1 0 -849330 17310.4 0 -858029 17484.6 0 -866815 17658.8 0 -875688 17832.9 0 -884648 18006.8 0 -893695 18180.5 0 -902829 18354 0 -912050 18527.1 0 -921357 18699.8 0 -930750 18872.2 0 -940230 19044.1 0 -949795 19215.4 0 -959446 19386.1 0 -969182 19556.2 0 -979003 19725.5 0 -988908 19894.1 0 -998898 20061.8 0 -1.00897e+06 20228.6 0 -1.01913e+06 20394.4 0 -1.02937e+06 20559.2 0 -1.03969e+06 20722.9 0 -1.05009e+06 20885.3 0 -1.06057e+06 21046.5 0 -1.07114e+06 21206.4 0 -1.08178e+06 21364.9 0 -1.09251e+06 21521.9 0 -1.10331e+06 21677.4 0 -1.11418e+06 21831.2 0 -1.12514e+06 21983.3 0 -1.13617e+06 22133.7 0 -1.14728e+06 22282.2 0 -1.15845e+06 22428.8 0 -1.16971e+06 22573.4 0 -1.18103e+06 22715.9 0 -1.19242e+06 22856.2 0 -1.20389e+06 22994.3 0 -1.21542e+06 23130.1 0 -1.22702e+06 23263.5 0 -1.23869e+06 23394.4 0 -1.25042e+06 23522.8 0 -1.26221e+06 23648.6 0 -1.27407e+06 23771.7 0 -1.28599e+06 23892 0 -1.29797e+06 24009.4 0 -1.31e+06 24124 0 -1.32209e+06 24235.5 0 -1.33424e+06 24344 0 -1.34644e+06 24449.4 0 -1.35869e+06 24551.6 0 -1.371e+06 24650.5 0 -1.38335e+06 24746 0 -1.39575e+06 24838.2 0 -1.40819e+06 24926.9 0 -1.42068e+06 25012.1 0 -1.43321e+06 25093.7 0 -1.44578e+06 25171.7 0 -1.45838e+06 25246 0 -1.47103e+06 25316.5 0 -1.4837e+06 25383.3 0 -1.49641e+06 25446.2 0 -1.50916e+06 25505.2 0 -1.52192e+06 25560.3 0 -1.53472e+06 25611.4 0 -1.54754e+06 25658.5 0 -1.56038e+06 25701.6 0 -1.57325e+06 25740.6 0 -1.58613e+06 25775.5 0 -1.59903e+06 25806.3 0 -1.61194e+06 25832.9 0 -1.62487e+06 25855.4 0 -1.6378e+06 25873.6 0 -1.65075e+06 25887.7 0 -1.66369e+06 25897.6 0 -1.67665e+06 25903.2 0 -1.6896e+06 25904.6 0 -1.70256e+06 25901.8 0 -1.71551e+06 25894.8 0 -516679 13579.9 0 -521241 13794.4 0 -525874 14010.3 0 -530579 14227.4 0 -535357 14445.7 0 -540207 14665.4 0 -545132 14886.3 0 -550130 15108.5 0 -555202 15332 0 -560349 15556.7 0 -565571 15782.7 0 -570869 16010 0 -576242 16238.6 0 -581692 16468.4 0 -587219 16699.5 0 -592823 16931.9 0 -598505 17165.5 0 -604265 17400.3 0 -610103 17636.3 0 -616021 17873.6 0 -622017 18112.1 0 -628094 18351.7 0 -634250 18592.5 0 -640487 18834.5 0 -646804 19077.6 0 -653203 19321.8 0 -659684 19567.2 0 -666246 19813.6 0 -672891 20061 0 -679619 20309.5 0 -686429 20559 0 -693323 20809.5 0 -700301 21060.9 0 -707362 21313.2 0 -714508 21566.5 0 -721739 21820.5 0 -729054 22075.4 0 -736455 22331 0 -743940 22587.4 0 -751512 22844.5 0 -759169 23102.2 0 -766912 23360.5 0 -774742 23619.4 0 -782658 23878.8 0 -790660 24138.6 0 -798750 24398.9 0 -806926 24659.5 0 -815189 24920.3 0 -823539 25181.5 0 -831976 25442.8 0 -840501 25704.2 0 -849113 25965.6 0 -857811 26227 0 -866598 26488.4 0 -875471 26749.5 0 -884431 27010.5 0 -893478 27271.1 0 -902613 27531.3 0 -911834 27791.1 0 -921141 28050.3 0 -930535 28308.9 0 -940015 28566.8 0 -949581 28823.8 0 -959233 29080 0 -968970 29335.2 0 -978792 29589.3 0 -988698 29842.2 0 -998689 30093.8 0 -1.00876e+06 30344.1 0 -1.01892e+06 30593 0 -1.02916e+06 30840.2 0 -1.03948e+06 31085.8 0 -1.04989e+06 31329.6 0 -1.06037e+06 31571.5 0 -1.07094e+06 31811.4 0 -1.08159e+06 32049.2 0 -1.09231e+06 32284.8 0 -1.10311e+06 32518.1 0 -1.11399e+06 32748.9 0 -1.12495e+06 32977.2 0 -1.13598e+06 33202.9 0 -1.14709e+06 33425.7 0 -1.15827e+06 33645.7 0 -1.16953e+06 33862.7 0 -1.18085e+06 34076.5 0 -1.19225e+06 34287.1 0 -1.20372e+06 34494.4 0 -1.21525e+06 34698.2 0 -1.22686e+06 34898.4 0 -1.23853e+06 35094.9 0 -1.25026e+06 35287.5 0 -1.26206e+06 35476.3 0 -1.27392e+06 35661 0 -1.28584e+06 35841.5 0 -1.29782e+06 36017.8 0 -1.30986e+06 36189.7 0 -1.32196e+06 36357.2 0 -1.33411e+06 36520 0 -1.34631e+06 36678.1 0 -1.35857e+06 36831.5 0 -1.37088e+06 36979.9 0 -1.38323e+06 37123.3 0 -1.39563e+06 37261.7 0 -1.40808e+06 37394.8 0 -1.42057e+06 37522.6 0 -1.43311e+06 37645.1 0 -1.44568e+06 37762.2 0 -1.45829e+06 37873.7 0 -1.47094e+06 37979.5 0 -1.48362e+06 38079.7 0 -1.49634e+06 38174.1 0 -1.50908e+06 38262.7 0 -1.52186e+06 38345.4 0 -1.53466e+06 38422.1 0 -1.54748e+06 38492.9 0 -1.56033e+06 38557.5 0 -1.5732e+06 38616.1 0 -1.58609e+06 38668.5 0 -1.59899e+06 38714.6 0 -1.61191e+06 38754.6 0 -1.62484e+06 38788.3 0 -1.63778e+06 38815.7 0 -1.65073e+06 38836.9 0 -1.66369e+06 38851.7 0 -1.67664e+06 38860.1 0 -1.6896e+06 38862.3 0 -1.70256e+06 38858.1 0 -1.71552e+06 38847.5 0 -516430 18104.6 0 -520990 18390.6 0 -525621 18678.4 0 -530325 18967.8 0 -535101 19259 0 -539950 19551.8 0 -544873 19846.4 0 -549870 20142.6 0 -554940 20440.6 0 -560086 20740.3 0 -565307 21041.7 0 -570603 21344.7 0 -575975 21649.5 0 -581424 21956 0 -586949 22264.1 0 -592552 22573.9 0 -598232 22885.4 0 -603990 23198.5 0 -609827 23513.2 0 -615743 23829.6 0 -621738 24147.6 0 -627813 24467.1 0 -633968 24788.2 0 -640204 25110.9 0 -646520 25435.1 0 -652918 25760.7 0 -659397 26087.9 0 -665958 26416.5 0 -672602 26746.5 0 -679328 27077.8 0 -686138 27410.5 0 -693031 27744.5 0 -700007 28079.8 0 -707068 28416.3 0 -714212 28754 0 -721442 29092.8 0 -728756 29432.6 0 -736156 29773.6 0 -743641 30115.5 0 -751211 30458.3 0 -758868 30802 0 -766611 31146.5 0 -774439 31491.7 0 -782355 31837.7 0 -790357 32184.2 0 -798446 32531.3 0 -806622 32878.8 0 -814884 33226.8 0 -823234 33575 0 -831671 33923.5 0 -840196 34272.1 0 -848807 34620.8 0 -857506 34969.5 0 -866293 35318.1 0 -875166 35666.4 0 -884127 36014.4 0 -893175 36362.1 0 -902309 36709.2 0 -911531 37055.6 0 -920839 37401.4 0 -930234 37746.3 0 -939715 38090.3 0 -949282 38433.2 0 -958934 38774.8 0 -968673 39115.2 0 -978496 39454.2 0 -988404 39791.6 0 -998396 40127.3 0 -1.00847e+06 40461.1 0 -1.01863e+06 40793.1 0 -1.02887e+06 41122.9 0 -1.0392e+06 41450.5 0 -1.04961e+06 41775.7 0 -1.06009e+06 42098.4 0 -1.07066e+06 42418.5 0 -1.08131e+06 42735.7 0 -1.09204e+06 43050 0 -1.10284e+06 43361.3 0 -1.11373e+06 43669.2 0 -1.12469e+06 43973.8 0 -1.13572e+06 44274.8 0 -1.14683e+06 44572.2 0 -1.15802e+06 44865.6 0 -1.16928e+06 45155.1 0 -1.18061e+06 45440.4 0 -1.19201e+06 45721.4 0 -1.20348e+06 45997.9 0 -1.21502e+06 46269.8 0 -1.22663e+06 46536.9 0 -1.2383e+06 46799.1 0 -1.25004e+06 47056.2 0 -1.26184e+06 47308 0 -1.27371e+06 47554.5 0 -1.28563e+06 47795.4 0 -1.29762e+06 48030.6 0 -1.30966e+06 48260 0 -1.32176e+06 48483.4 0 -1.33392e+06 48700.7 0 -1.34613e+06 48911.7 0 -1.35839e+06 49116.3 0 -1.3707e+06 49314.3 0 -1.38307e+06 49505.7 0 -1.39548e+06 49690.3 0 -1.40793e+06 49868 0 -1.42043e+06 50038.6 0 -1.43297e+06 50202 0 -1.44555e+06 50358.2 0 -1.45817e+06 50507 0 -1.47082e+06 50648.3 0 -1.48351e+06 50782 0 -1.49623e+06 50908 0 -1.50898e+06 51026.2 0 -1.52176e+06 51136.5 0 -1.53457e+06 51238.9 0 -1.54741e+06 51333.3 0 -1.56026e+06 51419.6 0 -1.57314e+06 51497.7 0 -1.58603e+06 51567.6 0 -1.59894e+06 51629.2 0 -1.61187e+06 51682.6 0 -1.62481e+06 51727.6 0 -1.63775e+06 51764.1 0 -1.65071e+06 51792.3 0 -1.66367e+06 51812.1 0 -1.67664e+06 51823.4 0 -1.68961e+06 51826.2 0 -1.70257e+06 51820.6 0 -1.71554e+06 51806.6 0 -516109 22627.5 0 -520667 22985.1 0 -525296 23344.8 0 -529998 23706.6 0 -534773 24070.5 0 -539620 24436.6 0 -544541 24804.8 0 -549535 25175.1 0 -554604 25547.6 0 -559748 25922.2 0 -564967 26298.9 0 -570261 26677.7 0 -575631 27058.7 0 -581078 27441.8 0 -586601 27827 0 -592202 28214.3 0 -597881 28603.6 0 -603637 28995 0 -609472 29388.5 0 -615386 29784 0 -621380 30181.5 0 -627453 30580.9 0 -633606 30982.4 0 -639840 31385.8 0 -646155 31791 0 -652551 32198.2 0 -659028 32607.2 0 -665588 33017.9 0 -672230 33430.5 0 -678955 33844.8 0 -685763 34260.7 0 -692654 34678.3 0 -699629 35097.5 0 -706688 35518.1 0 -713832 35940.3 0 -721060 36363.9 0 -728373 36788.9 0 -735772 37215.1 0 -743256 37642.6 0 -750825 38071.2 0 -758481 38501 0 -766222 38931.7 0 -774051 39363.4 0 -781965 39795.9 0 -789967 40229.2 0 -798055 40663.2 0 -806230 41097.8 0 -814493 41532.9 0 -822842 41968.3 0 -831279 42404.1 0 -839803 42840.1 0 -848415 43276.1 0 -857114 43712.1 0 -865901 44148 0 -874774 44583.6 0 -883735 45018.8 0 -892784 45453.5 0 -901919 45887.6 0 -911141 46320.9 0 -920450 46753.3 0 -929846 47184.7 0 -939328 47614.8 0 -948897 48043.7 0 -958551 48471 0 -968290 48896.7 0 -978115 49320.7 0 -988025 49742.6 0 -998019 50162.5 0 -1.0081e+06 50580.1 0 -1.01826e+06 50995.3 0 -1.0285e+06 51407.8 0 -1.03883e+06 51817.5 0 -1.04924e+06 52224.3 0 -1.05973e+06 52628 0 -1.0703e+06 53028.4 0 -1.08095e+06 53425.2 0 -1.09168e+06 53818.4 0 -1.10249e+06 54207.7 0 -1.11338e+06 54592.9 0 -1.12434e+06 54973.9 0 -1.13538e+06 55350.5 0 -1.1465e+06 55722.5 0 -1.15769e+06 56089.6 0 -1.16895e+06 56451.7 0 -1.18029e+06 56808.6 0 -1.19169e+06 57160.2 0 -1.20317e+06 57506.1 0 -1.21471e+06 57846.3 0 -1.22633e+06 58180.4 0 -1.23801e+06 58508.4 0 -1.24975e+06 58830.1 0 -1.26156e+06 59145.2 0 -1.27343e+06 59453.5 0 -1.28536e+06 59754.9 0 -1.29736e+06 60049.2 0 -1.30941e+06 60336.2 0 -1.32152e+06 60615.7 0 -1.33368e+06 60887.6 0 -1.3459e+06 61151.6 0 -1.35817e+06 61407.6 0 -1.37049e+06 61655.4 0 -1.38285e+06 61894.9 0 -1.39527e+06 62125.9 0 -1.40773e+06 62348.2 0 -1.42024e+06 62561.7 0 -1.43279e+06 62766.2 0 -1.44538e+06 62961.6 0 -1.458e+06 63147.8 0 -1.47067e+06 63324.6 0 -1.48336e+06 63491.9 0 -1.49609e+06 63649.6 0 -1.50886e+06 63797.5 0 -1.52165e+06 63935.6 0 -1.53446e+06 64063.7 0 -1.5473e+06 64181.8 0 -1.56017e+06 64289.8 0 -1.57305e+06 64387.5 0 -1.58596e+06 64475 0 -1.59888e+06 64552.2 0 -1.61181e+06 64618.9 0 -1.62476e+06 64675.2 0 -1.63772e+06 64721 0 -1.65068e+06 64756.3 0 -1.66365e+06 64781 0 -1.67663e+06 64795.1 0 -1.68961e+06 64798.7 0 -1.70258e+06 64791.7 0 -1.71556e+06 64774.1 0 -515717 27148.4 0 -520272 27577.5 0 -524900 28009.1 0 -529599 28443.2 0 -534371 28879.9 0 -539216 29319.2 0 -544135 29761 0 -549127 30205.4 0 -554193 30652.4 0 -559335 31101.9 0 -564551 31554 0 -569843 32008.6 0 -575211 32465.8 0 -580655 32925.5 0 -586176 33387.8 0 -591775 33852.5 0 -597451 34319.8 0 -603206 34789.5 0 -609038 35261.7 0 -614950 35736.3 0 -620941 36213.4 0 -627012 36692.8 0 -633163 37174.6 0 -639395 37658.7 0 -645708 38145.1 0 -652102 38633.8 0 -658577 39124.6 0 -665135 39617.6 0 -671775 40112.8 0 -678498 40610 0 -685304 41109.3 0 -692194 41610.5 0 -699167 42113.6 0 -706225 42618.5 0 -713367 43125.3 0 -720593 43633.7 0 -727905 44143.8 0 -735302 44655.4 0 -742785 45168.6 0 -750353 45683.1 0 -758007 46198.9 0 -765748 46716 0 -773575 47234.2 0 -781489 47753.4 0 -789490 48273.6 0 -797577 48794.6 0 -805752 49316.3 0 -814014 49838.6 0 -822363 50361.4 0 -830800 50884.5 0 -839324 51407.9 0 -847935 51931.4 0 -856634 52454.9 0 -865421 52978.2 0 -874295 53501.2 0 -883257 54023.7 0 -892306 54545.7 0 -901442 55066.9 0 -910665 55587.1 0 -919975 56106.3 0 -929372 56624.2 0 -938856 57140.8 0 -948425 57655.7 0 -958081 58168.8 0 -967823 58680 0 -977650 59189.1 0 -987562 59695.8 0 -997558 60200 0 -1.00764e+06 60701.5 0 -1.0178e+06 61200.1 0 -1.02805e+06 61695.5 0 -1.03838e+06 62187.6 0 -1.04879e+06 62676.1 0 -1.05929e+06 63160.9 0 -1.06986e+06 63641.7 0 -1.08052e+06 64118.4 0 -1.09125e+06 64590.6 0 -1.10207e+06 65058.1 0 -1.11296e+06 65520.9 0 -1.12393e+06 65978.5 0 -1.13497e+06 66430.8 0 -1.14609e+06 66877.6 0 -1.15729e+06 67318.5 0 -1.16856e+06 67753.5 0 -1.1799e+06 68182.3 0 -1.19131e+06 68604.5 0 -1.20279e+06 69020.1 0 -1.21434e+06 69428.7 0 -1.22596e+06 69830.1 0 -1.23765e+06 70224.1 0 -1.2494e+06 70610.5 0 -1.26122e+06 70989.1 0 -1.2731e+06 71359.5 0 -1.28504e+06 71721.6 0 -1.29704e+06 72075.2 0 -1.3091e+06 72420 0 -1.32121e+06 72755.8 0 -1.33338e+06 73082.4 0 -1.34561e+06 73399.6 0 -1.35789e+06 73707.2 0 -1.37022e+06 74004.9 0 -1.3826e+06 74292.6 0 -1.39502e+06 74570.2 0 -1.40749e+06 74837.3 0 -1.42001e+06 75093.8 0 -1.43257e+06 75339.5 0 -1.44517e+06 75574.3 0 -1.4578e+06 75798 0 -1.47048e+06 76010.5 0 -1.48318e+06 76211.5 0 -1.49593e+06 76400.9 0 -1.5087e+06 76578.7 0 -1.5215e+06 76744.6 0 -1.53433e+06 76898.6 0 -1.54718e+06 77040.5 0 -1.56005e+06 77170.2 0 -1.57295e+06 77287.7 0 -1.58587e+06 77392.8 0 -1.5988e+06 77485.5 0 -1.61174e+06 77565.7 0 -1.6247e+06 77633.3 0 -1.63767e+06 77688.4 0 -1.65065e+06 77730.7 0 -1.66363e+06 77760.4 0 -1.67662e+06 77777.4 0 -1.68961e+06 77781.7 0 -1.7026e+06 77773.3 0 -1.71558e+06 77752.2 0 -515253 31666.7 0 -519806 32167.3 0 -524431 32670.8 0 -529127 33177.3 0 -533897 33686.8 0 -538739 34199.2 0 -543654 34714.7 0 -548644 35233.2 0 -553708 35754.6 0 -558846 36279.1 0 -564060 36806.5 0 -569349 37336.9 0 -574714 37870.4 0 -580156 38406.7 0 -585674 38946 0 -591270 39488.3 0 -596944 40033.5 0 -602695 40581.6 0 -608526 41132.5 0 -614435 41686.3 0 -620423 42242.9 0 -626492 42802.3 0 -632640 43364.5 0 -638869 43929.4 0 -645179 44496.9 0 -651571 45067.1 0 -658044 45639.9 0 -664600 46215.2 0 -671238 46793 0 -677958 47373.3 0 -684762 47955.8 0 -691650 48540.7 0 -698621 49127.8 0 -705677 49717.1 0 -712817 50308.5 0 -720041 50901.9 0 -727351 51497.1 0 -734747 52094.3 0 -742228 52693.1 0 -749795 53293.6 0 -757448 53895.7 0 -765187 54499.1 0 -773013 55104 0 -780926 55710 0 -788925 56317.1 0 -797012 56925.2 0 -805186 57534.1 0 -813447 58143.8 0 -821796 58754 0 -830233 59364.7 0 -838756 59975.6 0 -847368 60586.7 0 -856067 61197.8 0 -864854 61808.7 0 -873729 62419.2 0 -882691 63029.2 0 -891740 63638.6 0 -900877 64247 0 -910102 64854.4 0 -919413 65460.5 0 -928812 66065.2 0 -938297 66668.3 0 -947868 67269.5 0 -957526 67868.6 0 -967270 68465.5 0 -977099 69059.9 0 -987014 69651.5 0 -997013 70240.3 0 -1.0071e+06 70825.8 0 -1.01727e+06 71408 0 -1.02752e+06 71986.5 0 -1.03785e+06 72561.2 0 -1.04827e+06 73131.7 0 -1.05877e+06 73697.8 0 -1.06935e+06 74259.3 0 -1.08e+06 74815.9 0 -1.09074e+06 75367.4 0 -1.10156e+06 75913.5 0 -1.11246e+06 76453.9 0 -1.12343e+06 76988.4 0 -1.13449e+06 77516.6 0 -1.14561e+06 78038.5 0 -1.15681e+06 78553.5 0 -1.16809e+06 79061.6 0 -1.17944e+06 79562.4 0 -1.19086e+06 80055.6 0 -1.20234e+06 80541 0 -1.2139e+06 81018.3 0 -1.22553e+06 81487.2 0 -1.23723e+06 81947.5 0 -1.24899e+06 82398.9 0 -1.26081e+06 82841 0 -1.2727e+06 83273.8 0 -1.28465e+06 83696.8 0 -1.29666e+06 84109.9 0 -1.30873e+06 84512.7 0 -1.32085e+06 84905 0 -1.33303e+06 85286.6 0 -1.34527e+06 85657.2 0 -1.35756e+06 86016.5 0 -1.3699e+06 86364.4 0 -1.38229e+06 86700.6 0 -1.39473e+06 87024.8 0 -1.40721e+06 87336.9 0 -1.41974e+06 87636.6 0 -1.43231e+06 87923.8 0 -1.44492e+06 88198.1 0 -1.45757e+06 88459.5 0 -1.47025e+06 88707.7 0 -1.48297e+06 88942.6 0 -1.49573e+06 89164 0 -1.50851e+06 89371.7 0 -1.52133e+06 89565.6 0 -1.53417e+06 89745.5 0 -1.54703e+06 89911.3 0 -1.55992e+06 90062.9 0 -1.57283e+06 90200.2 0 -1.58576e+06 90323.1 0 -1.5987e+06 90431.4 0 -1.61166e+06 90525.1 0 -1.62464e+06 90604.1 0 -1.63762e+06 90668.4 0 -1.65061e+06 90717.9 0 -1.66361e+06 90752.6 0 -1.67661e+06 90772.5 0 -1.68961e+06 90777.5 0 -1.70261e+06 90767.6 0 -1.71561e+06 90742.9 0 -514719 36182.1 0 -519268 36754.1 0 -523890 37329.5 0 -528583 37908.4 0 -533349 38490.6 0 -538188 39076.3 0 -543101 39665.4 0 -548087 40257.9 0 -553147 40853.9 0 -558283 41453.3 0 -563493 42056.1 0 -568779 42662.3 0 -574141 43271.9 0 -579580 43885 0 -585095 44501.4 0 -590688 45121.2 0 -596358 45744.3 0 -602106 46370.7 0 -607934 47000.4 0 -613840 47633.4 0 -619825 48269.7 0 -625891 48909.1 0 -632036 49551.7 0 -638263 50197.4 0 -644570 50846.1 0 -650959 51497.9 0 -657429 52152.7 0 -663982 52810.3 0 -670617 53470.8 0 -677335 54134.1 0 -684137 54800.1 0 -691022 55468.8 0 -697991 56140 0 -705044 56813.6 0 -712182 57489.7 0 -719405 58168.1 0 -726713 58848.7 0 -734106 59531.3 0 -741585 60216 0 -749150 60902.6 0 -756802 61591 0 -764540 62281 0 -772364 62972.5 0 -780276 63665.4 0 -788274 64359.6 0 -796360 65055 0 -804533 65751.3 0 -812794 66448.4 0 -821142 67146.2 0 -829578 67844.6 0 -838102 68543.2 0 -846713 69242.1 0 -855412 69940.9 0 -864200 70639.5 0 -873075 71337.8 0 -882037 72035.4 0 -891088 72732.3 0 -900226 73428.2 0 -909451 74122.9 0 -918764 74816.2 0 -928164 75507.8 0 -937651 76197.6 0 -947225 76885.3 0 -956885 77570.7 0 -966631 78253.4 0 -976464 78933.3 0 -986381 79610.2 0 -996384 80283.7 0 -1.00647e+06 80953.6 0 -1.01664e+06 81619.6 0 -1.0269e+06 82281.4 0 -1.03724e+06 82938.9 0 -1.04766e+06 83591.6 0 -1.05816e+06 84239.3 0 -1.06875e+06 84881.8 0 -1.07941e+06 85518.7 0 -1.09016e+06 86149.7 0 -1.10098e+06 86774.5 0 -1.11188e+06 87392.9 0 -1.12287e+06 88004.5 0 -1.13392e+06 88609 0 -1.14506e+06 89206.1 0 -1.15626e+06 89795.5 0 -1.16755e+06 90376.9 0 -1.1789e+06 90950 0 -1.19033e+06 91514.5 0 -1.20183e+06 92070 0 -1.2134e+06 92616.3 0 -1.22503e+06 93153 0 -1.23674e+06 93679.8 0 -1.24851e+06 94196.4 0 -1.26034e+06 94702.5 0 -1.27224e+06 95197.8 0 -1.2842e+06 95682 0 -1.29622e+06 96154.8 0 -1.3083e+06 96615.9 0 -1.32044e+06 97065 0 -1.33263e+06 97501.8 0 -1.34488e+06 97926 0 -1.35718e+06 98337.4 0 -1.36953e+06 98735.6 0 -1.38194e+06 99120.5 0 -1.39439e+06 99491.7 0 -1.40688e+06 99849 0 -1.41942e+06 100192 0 -1.43201e+06 100521 0 -1.44463e+06 100835 0 -1.45729e+06 101134 0 -1.46999e+06 101418 0 -1.48273e+06 101687 0 -1.4955e+06 101941 0 -1.5083e+06 102179 0 -1.52112e+06 102401 0 -1.53398e+06 102607 0 -1.54686e+06 102796 0 -1.55977e+06 102970 0 -1.57269e+06 103127 0 -1.58563e+06 103268 0 -1.5986e+06 103392 0 -1.61157e+06 103499 0 -1.62456e+06 103590 0 -1.63756e+06 103663 0 -1.65057e+06 103720 0 -1.66358e+06 103760 0 -1.6766e+06 103782 0 -1.68961e+06 103788 0 -1.70263e+06 103777 0 -1.71565e+06 103749 0 -514113 40694.1 0 -518659 41337.6 0 -523276 41984.9 0 -527966 42636 0 -532729 43291 0 -537564 43949.9 0 -542473 44612.6 0 -547455 45279.2 0 -552512 45949.7 0 -557644 46624 0 -562851 47302.2 0 -568133 47984.2 0 -573491 48670.1 0 -578926 49359.8 0 -584438 50053.3 0 -590027 50750.7 0 -595694 51451.7 0 -601439 52156.6 0 -607263 52865.1 0 -613165 53577.3 0 -619148 54293.2 0 -625210 55012.7 0 -631352 55735.7 0 -637575 56462.3 0 -643879 57192.3 0 -650264 57925.7 0 -656732 58662.5 0 -663281 59402.6 0 -669914 60145.9 0 -676629 60892.3 0 -683427 61641.8 0 -690310 62394.2 0 -697276 63149.6 0 -704327 63907.8 0 -711462 64668.6 0 -718682 65432.1 0 -725988 66198.1 0 -733379 66966.4 0 -740856 67737 0 -748420 68509.8 0 -756069 69284.6 0 -763806 70061.3 0 -771629 70839.6 0 -779539 71619.6 0 -787536 72401.1 0 -795620 73183.8 0 -803793 73967.6 0 -812052 74752.4 0 -820400 75538 0 -828835 76324.1 0 -837359 77110.6 0 -845970 77897.4 0 -854670 78684.2 0 -863457 79470.7 0 -872333 80256.9 0 -881296 81042.4 0 -890347 81827.1 0 -899487 82610.6 0 -908714 83392.8 0 -918028 84173.5 0 -927430 84952.3 0 -936919 85729.1 0 -946495 86503.5 0 -956158 87275.3 0 -965907 88044.2 0 -975742 88809.9 0 -985663 89572.2 0 -995670 90330.7 0 -1.00576e+06 91085.2 0 -1.01594e+06 91835.3 0 -1.0262e+06 92580.8 0 -1.03654e+06 93321.3 0 -1.04697e+06 94056.5 0 -1.05748e+06 94786.1 0 -1.06807e+06 95509.8 0 -1.07874e+06 96227.3 0 -1.08949e+06 96938.1 0 -1.10032e+06 97642 0 -1.11123e+06 98338.6 0 -1.12222e+06 99027.6 0 -1.13328e+06 99708.7 0 -1.14443e+06 100381 0 -1.15564e+06 101046 0 -1.16693e+06 101701 0 -1.1783e+06 102346 0 -1.18973e+06 102982 0 -1.20124e+06 103608 0 -1.21282e+06 104224 0 -1.22447e+06 104829 0 -1.23618e+06 105422 0 -1.24796e+06 106004 0 -1.25981e+06 106575 0 -1.27172e+06 107133 0 -1.28369e+06 107679 0 -1.29572e+06 108211 0 -1.30782e+06 108731 0 -1.31997e+06 109237 0 -1.33217e+06 109730 0 -1.34444e+06 110208 0 -1.35675e+06 110671 0 -1.36912e+06 111120 0 -1.38153e+06 111554 0 -1.394e+06 111972 0 -1.40651e+06 112375 0 -1.41906e+06 112762 0 -1.43166e+06 113133 0 -1.4443e+06 113487 0 -1.45698e+06 113824 0 -1.4697e+06 114144 0 -1.48245e+06 114447 0 -1.49524e+06 114733 0 -1.50805e+06 115001 0 -1.5209e+06 115252 0 -1.53377e+06 115484 0 -1.54667e+06 115698 0 -1.55959e+06 115893 0 -1.57253e+06 116071 0 -1.58549e+06 116229 0 -1.59847e+06 116369 0 -1.61147e+06 116490 0 -1.62447e+06 116592 0 -1.63749e+06 116675 0 -1.65051e+06 116739 0 -1.66354e+06 116784 0 -1.67658e+06 116809 0 -1.68962e+06 116816 0 -1.70265e+06 116803 0 -1.71569e+06 116771 0 -513435 45202.2 0 -517978 45917.2 0 -522591 46636.4 0 -527277 47359.9 0 -532035 48087.6 0 -536867 48819.7 0 -541771 49556 0 -546750 50296.7 0 -551803 51041.6 0 -556930 51790.9 0 -562133 52544.5 0 -567411 53302.3 0 -572765 54064.5 0 -578196 54830.9 0 -583704 55601.5 0 -589289 56376.4 0 -594952 57155.5 0 -600693 57938.7 0 -606513 58726.1 0 -612412 59517.6 0 -618390 60313.1 0 -624448 61112.7 0 -630587 61916.3 0 -636806 62723.7 0 -643106 63535.1 0 -649488 64350.2 0 -655952 65169.1 0 -662498 65991.6 0 -669127 66817.7 0 -675839 67647.4 0 -682635 68480.4 0 -689514 69316.8 0 -696477 70156.4 0 -703525 70999.2 0 -710657 71844.9 0 -717875 72693.6 0 -725178 73545.1 0 -732567 74399.2 0 -740042 75255.9 0 -747603 76115 0 -755250 76976.4 0 -762985 77839.8 0 -770806 78705.2 0 -778714 79572.4 0 -786710 80441.2 0 -794793 81311.5 0 -802964 82183 0 -811223 83055.6 0 -819570 83929.1 0 -828005 84803.2 0 -836528 85677.9 0 -845139 86552.7 0 -853839 87427.7 0 -862627 88302.4 0 -871503 89176.6 0 -880467 90050.2 0 -889519 90922.9 0 -898660 91794.4 0 -907888 92664.4 0 -917205 93532.6 0 -926608 94398.9 0 -936100 95262.9 0 -945679 96124.3 0 -955344 96982.8 0 -965097 97838.1 0 -974935 98689.9 0 -984860 99537.9 0 -994871 100382 0 -1.00497e+06 101221 0 -1.01515e+06 102056 0 -1.02541e+06 102885 0 -1.03576e+06 103709 0 -1.04619e+06 104527 0 -1.05671e+06 105339 0 -1.0673e+06 106144 0 -1.07798e+06 106942 0 -1.08874e+06 107733 0 -1.09958e+06 108517 0 -1.1105e+06 109292 0 -1.12149e+06 110059 0 -1.13257e+06 110817 0 -1.14372e+06 111565 0 -1.15495e+06 112305 0 -1.16625e+06 113034 0 -1.17762e+06 113752 0 -1.18907e+06 114460 0 -1.20059e+06 115157 0 -1.21218e+06 115842 0 -1.22383e+06 116515 0 -1.23556e+06 117176 0 -1.24735e+06 117824 0 -1.25921e+06 118459 0 -1.27114e+06 119081 0 -1.28312e+06 119688 0 -1.29517e+06 120281 0 -1.30727e+06 120860 0 -1.31944e+06 121423 0 -1.33166e+06 121972 0 -1.34394e+06 122504 0 -1.35627e+06 123020 0 -1.36865e+06 123520 0 -1.38108e+06 124003 0 -1.39356e+06 124469 0 -1.40609e+06 124917 0 -1.41866e+06 125348 0 -1.43128e+06 125761 0 -1.44394e+06 126155 0 -1.45663e+06 126531 0 -1.46937e+06 126887 0 -1.48214e+06 127225 0 -1.49494e+06 127543 0 -1.50778e+06 127842 0 -1.52064e+06 128121 0 -1.53353e+06 128379 0 -1.54645e+06 128618 0 -1.55939e+06 128835 0 -1.57236e+06 129033 0 -1.58534e+06 129209 0 -1.59833e+06 129365 0 -1.61135e+06 129500 0 -1.62437e+06 129613 0 -1.63741e+06 129706 0 -1.65046e+06 129777 0 -1.66351e+06 129827 0 -1.67656e+06 129856 0 -1.68962e+06 129863 0 -1.70268e+06 129848 0 -1.71573e+06 129813 0 -512687 49706.1 0 -517225 50492.5 0 -521834 51283.6 0 -526515 52079.4 0 -531269 52879.9 0 -536096 53685.1 0 -540996 54495.1 0 -545970 55309.8 0 -551018 56129.3 0 -556141 56953.5 0 -561339 57782.5 0 -566613 58616.1 0 -571963 59454.6 0 -577389 60297.7 0 -582893 61145.5 0 -588473 61997.9 0 -594132 62855 0 -599868 63716.7 0 -605684 64583 0 -611578 65453.8 0 -617552 66329.1 0 -623606 67208.8 0 -629741 68092.9 0 -635956 68981.3 0 -642252 69874 0 -648630 70770.9 0 -655090 71672 0 -661633 72577 0 -668258 73486.1 0 -674966 74399 0 -681758 75315.7 0 -688634 76236.1 0 -695594 77160.1 0 -702638 78087.5 0 -709768 79018.3 0 -716982 79952.3 0 -724282 80889.5 0 -731668 81829.5 0 -739141 82772.4 0 -746699 83717.9 0 -754344 84666 0 -762077 85616.4 0 -769896 86569 0 -777802 87523.5 0 -785797 88479.9 0 -793879 89437.9 0 -802048 90397.3 0 -810306 91357.9 0 -818652 92319.5 0 -827087 93281.9 0 -835609 94244.8 0 -844220 95208.1 0 -852920 96171.3 0 -861708 97134.4 0 -870585 98097.1 0 -879550 99059 0 -888603 100020 0 -897745 100980 0 -906975 101938 0 -916293 102894 0 -925700 103848 0 -935193 104799 0 -944775 105748 0 -954444 106694 0 -964200 10763