<?xml version="1.0"?> 
<VTKFile type="StructuredGrid" version="0.1"> 
<StructuredGrid WholeExtent="0 127 0 127 0 0"> 
<Piece Extent="0 127 0 127 0 0"> 
<PointData>
<DataArray type="Float32" Name="E" format="ascii" NumberOfComponents="3"> 
-1.70526e+06 0 0 -1.70556e+06 10625.1 0 -1.70646e+06 21281.6 0 -1.70795e+06 32001.3 0 -1.71003e+06 42815.8 0 -1.71269e+06 53756.6 0 -1.71593e+06 64855.3 0 -1.71974e+06 76143.2 0 -1.72411e+06 87651.5 0 -1.72901e+06 99411.1 0 -1.73444e+06 111452 0 -1.74039e+06 123805 0 -1.74682e+06 136497 0 -1.75371e+06 149556 0 -1.76105e+06 163009 0 -1.7688e+06 176880 0 -1.77694e+06 191192 0 -1.78544e+06 205963 0 -1.79426e+06 221213 0 -1.80336e+06 236955 0 -1.81272e+06 253202 0 -1.8223e+06 269962 0 -1.83206e+06 287241 0 -1.84196e+06 305042 0 -1.85198e+06 323362 0 -1.86206e+06 342199 0 -1.87219e+06 361545 0 -1.88232e+06 381392 0 -1.89243e+06 401726 0 -1.90249e+06 422535 0 -1.91247e+06 443800 0 -1.92234e+06 465506 0 -1.93208e+06 487633 0 -1.94167e+06 510161 0 -1.9511e+06 533069 0 -1.96034e+06 556336 0 -1.96938e+06 579940 0 -1.9782e+06 603861 0 -1.98681e+06 628077 0 -1.99518e+06 652566 0 -2.00332e+06 677309 0 -2.0112e+06 702285 0 -2.01884e+06 727474 0 -2.02622e+06 752857 0 -2.03334e+06 778416 0 -2.0402e+06 804132 0 -2.04679e+06 829989 0 -2.05312e+06 855970 0 -2.05918e+06 882057 0 -2.06497e+06 908236 0 -2.07049e+06 934491 0 -2.07575e+06 960806 0 -2.08073e+06 987167 0 -2.08545e+06 1.01356e+06 0 -2.08989e+06 1.03997e+06 0 -2.09406e+06 1.06638e+06 0 -2.09796e+06 1.09278e+06 0 -2.10159e+06 1.11915e+06 0 -2.10495e+06 1.14548e+06 0 -2.10803e+06 1.17175e+06 0 -2.11084e+06 1.19795e+06 0 -2.11338e+06 1.22407e+06 0 -2.11564e+06 1.25008e+06 0 -2.11762e+06 1.27597e+06 0 -2.11932e+06 1.30172e+06 0 -2.12074e+06 1.32732e+06 0 -2.12188e+06 1.35274e+06 0 -2.12274e+06 1.37797e+06 0 -2.12332e+06 1.40298e+06 0 -2.12361e+06 1.42775e+06 0 -2.12362e+06 1.45226e+06 0 -2.12334e+06 1.47649e+06 0 -2.12277e+06 1.50041e+06 0 -2.12192e+06 1.52399e+06 0 -2.12079e+06 1.54719e+06 0 -2.11937e+06 1.57e+06 0 -2.11768e+06 1.59238e+06 0 -2.11571e+06 1.6143e+06 0 -2.11346e+06 1.63571e+06 0 -2.11096e+06 1.65659e+06 0 -2.1082e+06 1.67688e+06 0 -2.10519e+06 1.69656e+06 0 -2.10195e+06 1.71557e+06 0 -2.09848e+06 1.73387e+06 0 -2.09481e+06 1.75141e+06 0 -2.09095e+06 1.76816e+06 0 -2.08693e+06 1.78404e+06 0 -2.08276e+06 1.79902e+06 0 -2.07848e+06 1.81304e+06 0 -2.0741e+06 1.82605e+06 0 -2.06966e+06 1.83799e+06 0 -2.0652e+06 1.8488e+06 0 -2.06074e+06 1.85843e+06 0 -2.05633e+06 1.86682e+06 0 -2.05199e+06 1.87392e+06 0 -2.04778e+06 1.87966e+06 0 -2.04373e+06 1.88397e+06 0 -2.03988e+06 1.88681e+06 0 -2.03628e+06 1.8881e+06 0 -2.03295e+06 1.88777e+06 0 -2.02995e+06 1.88577e+06 0 -2.02731e+06 1.882e+06 0 -2.02506e+06 1.8764e+06 0 -2.02325e+06 1.86889e+06 0 -2.0219e+06 1.85937e+06 0 -2.02105e+06 1.84777e+06 0 -2.02072e+06 1.83398e+06 0 -2.02094e+06 1.81791e+06 0 -2.02174e+06 1.79945e+06 0 -2.02312e+06 1.77851e+06 0 -2.02512e+06 1.75498e+06 0 -2.02774e+06 1.72878e+06 0 -2.031e+06 1.69984e+06 0 -2.0349e+06 1.66811e+06 0 -2.03945e+06 1.63361e+06 0 -2.04466e+06 1.59644e+06 0 -2.05052e+06 1.55679e+06 0 -2.05706e+06 1.51508e+06 0 -2.06427e+06 1.472e+06 0 -2.07227e+06 1.42862e+06 0 -2.08099e+06 1.38699e+06 0 -2.09107e+06 1.34937e+06 0 -2.10179e+06 1.32312e+06 0 -2.11737e+06 1.30948e+06 0 -2.13026e+06 1.34612e+06 0 -2.17419e+06 1.41893e+06 0 -2.18461e+06 1.74174e+06 0 -2.59249e+06 3.16216e+06 0 -1.70412e+06 0 0 -1.70442e+06 10661.7 0 -1.7053e+06 21355.2 0 -1.70677e+06 32111.6 0 -1.70882e+06 42962.1 0 -1.71145e+06 53937.9 0 -1.71465e+06 65070.2 0 -1.71841e+06 76389.7 0 -1.72272e+06 87927.2 0 -1.72757e+06 99713 0 -1.73293e+06 111777 0 -1.7388e+06 124148 0 -1.74516e+06 136855 0 -1.75197e+06 149925 0 -1.75922e+06 163382 0 -1.76689e+06 177252 0 -1.77493e+06 191557 0 -1.78333e+06 206315 0 -1.79205e+06 221545 0 -1.80105e+06 237260 0 -1.81031e+06 253473 0 -1.81978e+06 270193 0 -1.82943e+06 287425 0 -1.83923e+06 305171 0 -1.84915e+06 323431 0 -1.85913e+06 342201 0 -1.86916e+06 361474 0 -1.8792e+06 381242 0 -1.88922e+06 401492 0 -1.89919e+06 422211 0 -1.90908e+06 443384 0 -1.91887e+06 464993 0 -1.92853e+06 487019 0 -1.93805e+06 509443 0 -1.94741e+06 532245 0 -1.95659e+06 555404 0 -1.96557e+06 578899 0 -1.97434e+06 602708 0 -1.9829e+06 626811 0 -1.99123e+06 651188 0 -1.99932e+06 675817 0 -2.00717e+06 700679 0 -2.01477e+06 725754 0 -2.02213e+06 751024 0 -2.02922e+06 776470 0 -2.03606e+06 802074 0 -2.04263e+06 827819 0 -2.04895e+06 853688 0 -2.055e+06 879666 0 -2.06078e+06 905736 0 -2.0663e+06 931883 0 -2.07155e+06 958091 0 -2.07654e+06 984347 0 -2.08126e+06 1.01064e+06 0 -2.08571e+06 1.03694e+06 0 -2.0899e+06 1.06325e+06 0 -2.09382e+06 1.08955e+06 0 -2.09747e+06 1.11583e+06 0 -2.10085e+06 1.14206e+06 0 -2.10396e+06 1.16824e+06 0 -2.1068e+06 1.19435e+06 0 -2.10937e+06 1.22038e+06 0 -2.11167e+06 1.2463e+06 0 -2.11369e+06 1.27211e+06 0 -2.11544e+06 1.29778e+06 0 -2.11691e+06 1.3233e+06 0 -2.11811e+06 1.34865e+06 0 -2.11903e+06 1.37381e+06 0 -2.11967e+06 1.39875e+06 0 -2.12003e+06 1.42347e+06 0 -2.12011e+06 1.44792e+06 0 -2.11992e+06 1.4721e+06 0 -2.11944e+06 1.49597e+06 0 -2.11868e+06 1.51951e+06 0 -2.11764e+06 1.54269e+06 0 -2.11633e+06 1.56548e+06 0 -2.11475e+06 1.58785e+06 0 -2.11289e+06 1.60976e+06 0 -2.11077e+06 1.63118e+06 0 -2.1084e+06 1.65207e+06 0 -2.10577e+06 1.6724e+06 0 -2.1029e+06 1.69211e+06 0 -2.09981e+06 1.71118e+06 0 -2.09649e+06 1.72955e+06 0 -2.09298e+06 1.74719e+06 0 -2.08929e+06 1.76403e+06 0 -2.08543e+06 1.78004e+06 0 -2.08143e+06 1.79516e+06 0 -2.07732e+06 1.80934e+06 0 -2.07313e+06 1.82254e+06 0 -2.06887e+06 1.83468e+06 0 -2.06459e+06 1.84572e+06 0 -2.06032e+06 1.85561e+06 0 -2.0561e+06 1.86429e+06 0 -2.05195e+06 1.87169e+06 0 -2.04793e+06 1.87776e+06 0 -2.04407e+06 1.88244e+06 0 -2.04042e+06 1.88567e+06 0 -2.037e+06 1.88738e+06 0 -2.03387e+06 1.88751e+06 0 -2.03107e+06 1.88599e+06 0 -2.02862e+06 1.88275e+06 0 -2.02658e+06 1.87771e+06 0 -2.02497e+06 1.87079e+06 0 -2.02383e+06 1.86191e+06 0 -2.0232e+06 1.85098e+06 0 -2.02309e+06 1.83791e+06 0 -2.02355e+06 1.82259e+06 0 -2.02459e+06 1.80494e+06 0 -2.02623e+06 1.78484e+06 0 -2.02849e+06 1.7622e+06 0 -2.03139e+06 1.73693e+06 0 -2.03493e+06 1.70894e+06 0 -2.03912e+06 1.6782e+06 0 -2.04395e+06 1.64469e+06 0 -2.04942e+06 1.60848e+06 0 -2.05551e+06 1.56973e+06 0 -2.06219e+06 1.52877e+06 0 -2.06941e+06 1.48622e+06 0 -2.07717e+06 1.44296e+06 0 -2.08531e+06 1.4008e+06 0 -2.09413e+06 1.3616e+06 0 -2.10249e+06 1.33158e+06 0 -2.11386e+06 1.31256e+06 0 -2.11869e+06 1.33019e+06 0 -2.14139e+06 1.38953e+06 0 -2.12877e+06 1.57936e+06 0 -2.13865e+06 2.29369e+06 0 -1.70298e+06 0 0 -1.70327e+06 10697.7 0 -1.70413e+06 21427.3 0 -1.70558e+06 32219.8 0 -1.7076e+06 43105.7 0 -1.7102e+06 54115.9 0 -1.71336e+06 65280.9 0 -1.71707e+06 76631.4 0 -1.72133e+06 88197.4 0 -1.72611e+06 100009 0 -1.73142e+06 112095 0 -1.73722e+06 124485 0 -1.74349e+06 137206 0 -1.75023e+06 150285 0 -1.75739e+06 163747 0 -1.76497e+06 177616 0 -1.77292e+06 191913 0 -1.78122e+06 206658 0 -1.78984e+06 221868 0 -1.79874e+06 237557 0 -1.80789e+06 253737 0 -1.81726e+06 270416 0 -1.82681e+06 287601 0 -1.83651e+06 305293 0 -1.84632e+06 323493 0 -1.85621e+06 342196 0 -1.86614e+06 361397 0 -1.87608e+06 381087 0 -1.88601e+06 401254 0 -1.89589e+06 421885 0 -1.9057e+06 442966 0 -1.91541e+06 464478 0 -1.925e+06 486405 0 -1.93445e+06 508726 0 -1.94374e+06 531423 0 -1.95285e+06 554474 0 -1.96177e+06 577859 0 -1.97049e+06 601558 0 -1.979e+06 625550 0 -1.98728e+06 649814 0 -1.99533e+06 674330 0 -2.00315e+06 699079 0 -2.01072e+06 724041 0 -2.01804e+06 749197 0 -2.02511e+06 774530 0 -2.03192e+06 800022 0 -2.03848e+06 825656 0 -2.04478e+06 851415 0 -2.05082e+06 877283 0 -2.05659e+06 903244 0 -2.06211e+06 929283 0 -2.06736e+06 955386 0 -2.07235e+06 981536 0 -2.07708e+06 1.00772e+06 0 -2.08154e+06 1.03393e+06 0 -2.08574e+06 1.06013e+06 0 -2.08967e+06 1.08634e+06 0 -2.09334e+06 1.11251e+06 0 -2.09674e+06 1.13865e+06 0 -2.09988e+06 1.16474e+06 0 -2.10275e+06 1.19076e+06 0 -2.10535e+06 1.2167e+06 0 -2.10769e+06 1.24254e+06 0 -2.10975e+06 1.26826e+06 0 -2.11155e+06 1.29385e+06 0 -2.11307e+06 1.31929e+06 0 -2.11433e+06 1.34457e+06 0 -2.1153e+06 1.36966e+06 0 -2.11601e+06 1.39454e+06 0 -2.11644e+06 1.41919e+06 0 -2.1166e+06 1.4436e+06 0 -2.11648e+06 1.46772e+06 0 -2.11608e+06 1.49155e+06 0 -2.11541e+06 1.51505e+06 0 -2.11447e+06 1.5382e+06 0 -2.11326e+06 1.56097e+06 0 -2.11179e+06 1.58332e+06 0 -2.11004e+06 1.60523e+06 0 -2.10805e+06 1.62665e+06 0 -2.10579e+06 1.64756e+06 0 -2.1033e+06 1.66791e+06 0 -2.10057e+06 1.68767e+06 0 -2.09762e+06 1.70679e+06 0 -2.09445e+06 1.72523e+06 0 -2.0911e+06 1.74295e+06 0 -2.08756e+06 1.7599e+06 0 -2.08387e+06 1.77603e+06 0 -2.08004e+06 1.79129e+06 0 -2.0761e+06 1.80563e+06 0 -2.07208e+06 1.819e+06 0 -2.068e+06 1.83135e+06 0 -2.06391e+06 1.84262e+06 0 -2.05982e+06 1.85275e+06 0 -2.05578e+06 1.8617e+06 0 -2.05182e+06 1.86941e+06 0 -2.04798e+06 1.87581e+06 0 -2.04431e+06 1.88084e+06 0 -2.04084e+06 1.88446e+06 0 -2.03761e+06 1.88658e+06 0 -2.03467e+06 1.88716e+06 0 -2.03205e+06 1.88612e+06 0 -2.0298e+06 1.88339e+06 0 -2.02795e+06 1.8789e+06 0 -2.02654e+06 1.87257e+06 0 -2.0256e+06 1.86431e+06 0 -2.02518e+06 1.85404e+06 0 -2.02529e+06 1.84168e+06 0 -2.02597e+06 1.82711e+06 0 -2.02724e+06 1.81025e+06 0 -2.02913e+06 1.79099e+06 0 -2.03165e+06 1.76922e+06 0 -2.03482e+06 1.74487e+06 0 -2.03864e+06 1.71784e+06 0 -2.04311e+06 1.68808e+06 0 -2.04823e+06 1.65555e+06 0 -2.05397e+06 1.62031e+06 0 -2.0603e+06 1.58248e+06 0 -2.06718e+06 1.54232e+06 0 -2.0745e+06 1.50036e+06 0 -2.08219e+06 1.45734e+06 0 -2.08999e+06 1.41479e+06 0 -2.098e+06 1.37436e+06 0 -2.10486e+06 1.34103e+06 0 -2.11282e+06 1.31729e+06 0 -2.11413e+06 1.3209e+06 0 -2.11947e+06 1.36078e+06 0 -2.10326e+06 1.49576e+06 0 -2.00687e+06 1.83704e+06 0 -1.70183e+06 0 0 -1.70211e+06 10733 0 -1.70296e+06 21498.2 0 -1.70438e+06 32325.9 0 -1.70638e+06 43246.5 0 -1.70894e+06 54290.4 0 -1.71206e+06 65487.7 0 -1.71573e+06 76868.4 0 -1.71993e+06 88462.3 0 -1.72466e+06 100299 0 -1.7299e+06 112407 0 -1.73562e+06 124815 0 -1.74183e+06 137550 0 -1.74848e+06 150638 0 -1.75556e+06 164104 0 -1.76305e+06 177971 0 -1.7709e+06 192261 0 -1.77911e+06 206992 0 -1.78763e+06 222182 0 -1.79643e+06 237845 0 -1.80548e+06 253991 0 -1.81475e+06 270631 0 -1.8242e+06 287769 0 -1.8338e+06 305408 0 -1.8435e+06 323548 0 -1.85329e+06 342186 0 -1.86313e+06 361315 0 -1.87298e+06 380927 0 -1.88281e+06 401012 0 -1.8926e+06 421556 0 -1.90233e+06 442545 0 -1.91196e+06 463962 0 -1.92147e+06 485789 0 -1.93085e+06 508009 0 -1.94007e+06 530601 0 -1.94912e+06 553545 0 -1.95798e+06 576822 0 -1.96665e+06 600411 0 -1.97511e+06 624292 0 -1.98334e+06 648444 0 -1.99135e+06 672848 0 -1.99913e+06 697484 0 -2.00666e+06 722333 0 -2.01396e+06 747377 0 -2.021e+06 772598 0 -2.02779e+06 797978 0 -2.03433e+06 823501 0 -2.04062e+06 849150 0 -2.04664e+06 874908 0 -2.05241e+06 900761 0 -2.05792e+06 926693 0 -2.06317e+06 952689 0 -2.06816e+06 978735 0 -2.0729e+06 1.00482e+06 0 -2.07737e+06 1.03092e+06 0 -2.08158e+06 1.05703e+06 0 -2.08552e+06 1.08313e+06 0 -2.08921e+06 1.10921e+06 0 -2.09264e+06 1.13526e+06 0 -2.0958e+06 1.16125e+06 0 -2.0987e+06 1.18718e+06 0 -2.10133e+06 1.21303e+06 0 -2.10371e+06 1.23878e+06 0 -2.10581e+06 1.26442e+06 0 -2.10765e+06 1.28993e+06 0 -2.10922e+06 1.3153e+06 0 -2.11053e+06 1.3405e+06 0 -2.11157e+06 1.36552e+06 0 -2.11233e+06 1.39034e+06 0 -2.11283e+06 1.41493e+06 0 -2.11306e+06 1.43928e+06 0 -2.11302e+06 1.46336e+06 0 -2.11271e+06 1.48714e+06 0 -2.11213e+06 1.5106e+06 0 -2.11128e+06 1.53372e+06 0 -2.11017e+06 1.55647e+06 0 -2.1088e+06 1.5788e+06 0 -2.10717e+06 1.6007e+06 0 -2.10528e+06 1.62213e+06 0 -2.10315e+06 1.64305e+06 0 -2.10079e+06 1.66343e+06 0 -2.09819e+06 1.68323e+06 0 -2.09538e+06 1.7024e+06 0 -2.09236e+06 1.72091e+06 0 -2.08916e+06 1.73871e+06 0 -2.08578e+06 1.75576e+06 0 -2.08225e+06 1.772e+06 0 -2.07858e+06 1.7874e+06 0 -2.07481e+06 1.80189e+06 0 -2.07096e+06 1.81544e+06 0 -2.06706e+06 1.82798e+06 0 -2.06314e+06 1.83947e+06 0 -2.05923e+06 1.84985e+06 0 -2.05537e+06 1.85907e+06 0 -2.05159e+06 1.86707e+06 0 -2.04793e+06 1.87379e+06 0 -2.04444e+06 1.87918e+06 0 -2.04115e+06 1.88317e+06 0 -2.03811e+06 1.88571e+06 0 -2.03535e+06 1.88672e+06 0 -2.03292e+06 1.88616e+06 0 -2.03085e+06 1.88393e+06 0 -2.02919e+06 1.87998e+06 0 -2.02796e+06 1.87422e+06 0 -2.02722e+06 1.86658e+06 0 -2.027e+06 1.85697e+06 0 -2.02732e+06 1.8453e+06 0 -2.02821e+06 1.83147e+06 0 -2.02971e+06 1.81539e+06 0 -2.03183e+06 1.79695e+06 0 -2.0346e+06 1.77606e+06 0 -2.03802e+06 1.75261e+06 0 -2.04211e+06 1.72653e+06 0 -2.04686e+06 1.69774e+06 0 -2.05227e+06 1.66621e+06 0 -2.05829e+06 1.63194e+06 0 -2.0649e+06 1.59504e+06 0 -2.07201e+06 1.55572e+06 0 -2.0795e+06 1.5144e+06 0 -2.08725e+06 1.47171e+06 0 -2.09492e+06 1.42896e+06 0 -2.10244e+06 1.38754e+06 0 -2.10845e+06 1.35151e+06 0 -2.11398e+06 1.32338e+06 0 -2.1134e+06 1.31617e+06 0 -2.10882e+06 1.33899e+06 0 -2.08688e+06 1.42788e+06 0 -1.98524e+06 1.66551e+06 0 -1.70068e+06 0 0 -1.70094e+06 10767.6 0 -1.70178e+06 21567.6 0 -1.70318e+06 32430 0 -1.70515e+06 43384.7 0 -1.70768e+06 54461.5 0 -1.71076e+06 65690.3 0 -1.71438e+06 77100.7 0 -1.71853e+06 88721.9 0 -1.7232e+06 100583 0 -1.72837e+06 112712 0 -1.73403e+06 125138 0 -1.74016e+06 137886 0 -1.74673e+06 150982 0 -1.75373e+06 164452 0 -1.76112e+06 178318 0 -1.76889e+06 192600 0 -1.777e+06 207318 0 -1.78542e+06 222488 0 -1.79413e+06 238124 0 -1.80308e+06 254238 0 -1.81224e+06 270838 0 -1.82159e+06 287930 0 -1.83109e+06 305516 0 -1.84069e+06 323597 0 -1.85038e+06 342169 0 -1.86012e+06 361228 0 -1.86988e+06 380763 0 -1.87962e+06 400766 0 -1.88933e+06 421224 0 -1.89896e+06 442122 0 -1.90851e+06 463444 0 -1.91795e+06 485173 0 -1.92726e+06 507292 0 -1.93641e+06 529780 0 -1.9454e+06 552618 0 -1.9542e+06 575788 0 -1.96281e+06 599267 0 -1.97122e+06 623037 0 -1.97941e+06 647078 0 -1.98738e+06 671370 0 -1.99512e+06 695894 0 -2.00262e+06 720631 0 -2.00988e+06 745563 0 -2.0169e+06 770672 0 -2.02367e+06 795941 0 -2.03019e+06 821353 0 -2.03646e+06 846892 0 -2.04247e+06 872541 0 -2.04823e+06 898286 0 -2.05374e+06 924111 0 -2.05899e+06 950002 0 -2.06398e+06 975943 0 -2.06871e+06 1.00192e+06 0 -2.07319e+06 1.02792e+06 0 -2.07741e+06 1.05393e+06 0 -2.08138e+06 1.07993e+06 0 -2.08508e+06 1.10592e+06 0 -2.08853e+06 1.13187e+06 0 -2.09171e+06 1.15777e+06 0 -2.09464e+06 1.18361e+06 0 -2.09731e+06 1.20937e+06 0 -2.09972e+06 1.23504e+06 0 -2.10186e+06 1.2606e+06 0 -2.10374e+06 1.28603e+06 0 -2.10536e+06 1.31132e+06 0 -2.10672e+06 1.33645e+06 0 -2.10781e+06 1.3614e+06 0 -2.10864e+06 1.38615e+06 0 -2.10921e+06 1.41068e+06 0 -2.1095e+06 1.43497e+06 0 -2.10954e+06 1.459e+06 0 -2.10931e+06 1.48274e+06 0 -2.10881e+06 1.50616e+06 0 -2.10806e+06 1.52925e+06 0 -2.10705e+06 1.55197e+06 0 -2.10578e+06 1.57429e+06 0 -2.10425e+06 1.59619e+06 0 -2.10249e+06 1.61762e+06 0 -2.10048e+06 1.63855e+06 0 -2.09824e+06 1.65896e+06 0 -2.09577e+06 1.67879e+06 0 -2.0931e+06 1.69801e+06 0 -2.09022e+06 1.71659e+06 0 -2.08716e+06 1.73447e+06 0 -2.08394e+06 1.75161e+06 0 -2.08056e+06 1.76797e+06 0 -2.07706e+06 1.78349e+06 0 -2.07345e+06 1.79814e+06 0 -2.06977e+06 1.81186e+06 0 -2.06604e+06 1.82459e+06 0 -2.06229e+06 1.8363e+06 0 -2.05855e+06 1.84692e+06 0 -2.05487e+06 1.8564e+06 0 -2.05126e+06 1.86469e+06 0 -2.04779e+06 1.87172e+06 0 -2.04447e+06 1.87745e+06 0 -2.04136e+06 1.88182e+06 0 -2.03849e+06 1.88475e+06 0 -2.03591e+06 1.8862e+06 0 -2.03366e+06 1.88609e+06 0 -2.03177e+06 1.88437e+06 0 -2.03029e+06 1.88095e+06 0 -2.02925e+06 1.87576e+06 0 -2.02869e+06 1.86872e+06 0 -2.02866e+06 1.85975e+06 0 -2.02918e+06 1.84877e+06 0 -2.03028e+06 1.83567e+06 0 -2.03199e+06 1.82036e+06 0 -2.03434e+06 1.80273e+06 0 -2.03734e+06 1.7827e+06 0 -2.04101e+06 1.76016e+06 0 -2.04536e+06 1.73501e+06 0 -2.05039e+06 1.70719e+06 0 -2.05607e+06 1.67664e+06 0 -2.06238e+06 1.64336e+06 0 -2.06927e+06 1.60741e+06 0 -2.07665e+06 1.56895e+06 0 -2.08438e+06 1.52833e+06 0 -2.09228e+06 1.48608e+06 0 -2.1e+06 1.44327e+06 0 -2.1073e+06 1.40113e+06 0 -2.11292e+06 1.36287e+06 0 -2.11696e+06 1.33108e+06 0 -2.11528e+06 1.31483e+06 0 -2.10573e+06 1.32413e+06 0 -2.08003e+06 1.37876e+06 0 -1.98552e+06 1.53799e+06 0 -1.69952e+06 0 0 -1.69977e+06 10801.6 0 -1.70059e+06 21635.7 0 -1.70197e+06 32532.1 0 -1.70391e+06 43520.1 0 -1.70641e+06 54629.3 0 -1.70945e+06 65889 0 -1.71302e+06 77328.3 0 -1.71712e+06 88976.2 0 -1.72173e+06 100861 0 -1.72684e+06 113011 0 -1.73243e+06 125453 0 -1.73849e+06 138214 0 -1.74498e+06 151320 0 -1.75189e+06 164793 0 -1.7592e+06 178656 0 -1.76688e+06 192931 0 -1.77489e+06 207635 0 -1.78322e+06 222785 0 -1.79182e+06 238395 0 -1.80068e+06 254476 0 -1.80974e+06 271037 0 -1.81899e+06 288083 0 -1.82838e+06 305617 0 -1.83789e+06 323639 0 -1.84748e+06 342147 0 -1.85712e+06 361135 0 -1.86678e+06 380595 0 -1.87644e+06 400517 0 -1.88606e+06 420889 0 -1.89561e+06 441696 0 -1.90508e+06 462925 0 -1.91444e+06 484557 0 -1.92367e+06 506575 0 -1.93276e+06 528960 0 -1.94169e+06 551693 0 -1.95043e+06 574755 0 -1.95899e+06 598126 0 -1.96734e+06 621786 0 -1.97549e+06 645716 0 -1.98341e+06 669897 0 -1.99111e+06 694309 0 -1.99858e+06 718935 0 -2.00581e+06 743755 0 -2.0128e+06 768753 0 -2.01955e+06 793911 0 -2.02605e+06 819213 0 -2.0323e+06 844642 0 -2.03831e+06 870183 0 -2.04406e+06 895820 0 -2.04955e+06 921538 0 -2.0548e+06 947323 0 -2.05979e+06 973160 0 -2.06453e+06 999036 0 -2.06902e+06 1.02494e+06 0 -2.07325e+06 1.05084e+06 0 -2.07723e+06 1.07675e+06 0 -2.08095e+06 1.10264e+06 0 -2.08441e+06 1.12849e+06 0 -2.08762e+06 1.1543e+06 0 -2.09058e+06 1.18005e+06 0 -2.09328e+06 1.20572e+06 0 -2.09572e+06 1.23131e+06 0 -2.0979e+06 1.25678e+06 0 -2.09983e+06 1.28213e+06 0 -2.1015e+06 1.30735e+06 0 -2.1029e+06 1.3324e+06 0 -2.10405e+06 1.35728e+06 0 -2.10494e+06 1.38197e+06 0 -2.10557e+06 1.40644e+06 0 -2.10593e+06 1.43068e+06 0 -2.10604e+06 1.45465e+06 0 -2.10589e+06 1.47835e+06 0 -2.10548e+06 1.50173e+06 0 -2.10482e+06 1.52479e+06 0 -2.1039e+06 1.54748e+06 0 -2.10273e+06 1.56979e+06 0 -2.10131e+06 1.59167e+06 0 -2.09966e+06 1.61311e+06 0 -2.09776e+06 1.63406e+06 0 -2.09565e+06 1.65448e+06 0 -2.09331e+06 1.67435e+06 0 -2.09077e+06 1.69362e+06 0 -2.08803e+06 1.71226e+06 0 -2.08512e+06 1.73022e+06 0 -2.08204e+06 1.74745e+06 0 -2.07882e+06 1.76392e+06 0 -2.07547e+06 1.77957e+06 0 -2.07203e+06 1.79436e+06 0 -2.06851e+06 1.80825e+06 0 -2.06494e+06 1.82117e+06 0 -2.06136e+06 1.83309e+06 0 -2.05779e+06 1.84394e+06 0 -2.05428e+06 1.85368e+06 0 -2.05085e+06 1.86225e+06 0 -2.04754e+06 1.8696e+06 0 -2.0444e+06 1.87566e+06 0 -2.04146e+06 1.88039e+06 0 -2.03877e+06 1.88372e+06 0 -2.03636e+06 1.88559e+06 0 -2.03428e+06 1.88594e+06 0 -2.03256e+06 1.8847e+06 0 -2.03125e+06 1.8818e+06 0 -2.03039e+06 1.87717e+06 0 -2.03002e+06 1.87073e+06 0 -2.03017e+06 1.8624e+06 0 -2.03087e+06 1.85209e+06 0 -2.03217e+06 1.8397e+06 0 -2.03409e+06 1.82515e+06 0 -2.03665e+06 1.80834e+06 0 -2.03988e+06 1.78915e+06 0 -2.04379e+06 1.7675e+06 0 -2.04839e+06 1.74329e+06 0 -2.05368e+06 1.71643e+06 0 -2.05964e+06 1.68687e+06 0 -2.06624e+06 1.65457e+06 0 -2.07342e+06 1.61958e+06 0 -2.08109e+06 1.58202e+06 0 -2.08909e+06 1.54216e+06 0 -2.09723e+06 1.50043e+06 0 -2.10512e+06 1.45771e+06 0 -2.11243e+06 1.41508e+06 0 -2.11799e+06 1.37504e+06 0 -2.12126e+06 1.34014e+06 0 -2.11916e+06 1.31677e+06 0 -2.10744e+06 1.31412e+06 0 -2.08026e+06 1.34481e+06 0 -1.99649e+06 1.44896e+06 0 -1.69835e+06 0 0 -1.69859e+06 10834.9 0 -1.6994e+06 21702.5 0 -1.70076e+06 32632.1 0 -1.70267e+06 43652.8 0 -1.70513e+06 54793.7 0 -1.70813e+06 66083.6 0 -1.71166e+06 77551.3 0 -1.71571e+06 89225.3 0 -1.72026e+06 101134 0 -1.72531e+06 113304 0 -1.73083e+06 125762 0 -1.73681e+06 138536 0 -1.74323e+06 151649 0 -1.75006e+06 165125 0 -1.75728e+06 178986 0 -1.76487e+06 193253 0 -1.77279e+06 207944 0 -1.78102e+06 223074 0 -1.78952e+06 238658 0 -1.79828e+06 254706 0 -1.80724e+06 271228 0 -1.81639e+06 288229 0 -1.82568e+06 305711 0 -1.83509e+06 323675 0 -1.84459e+06 342119 0 -1.85413e+06 361037 0 -1.8637e+06 380422 0 -1.87326e+06 400263 0 -1.8828e+06 420550 0 -1.89227e+06 441269 0 -1.90166e+06 462404 0 -1.91094e+06 483939 0 -1.9201e+06 505857 0 -1.92912e+06 528140 0 -1.93798e+06 550769 0 -1.94667e+06 573724 0 -1.95517e+06 596987 0 -1.96348e+06 620538 0 -1.97157e+06 644359 0 -1.97946e+06 668429 0 -1.98712e+06 692730 0 -1.99455e+06 717244 0 -2.00175e+06 741954 0 -2.00871e+06 766841 0 -2.01544e+06 791888 0 -2.02192e+06 817080 0 -2.02815e+06 842400 0 -2.03414e+06 867832 0 -2.03988e+06 893362 0 -2.04538e+06 918974 0 -2.05062e+06 944654 0 -2.05561e+06 970387 0 -2.06035e+06 996160 0 -2.06484e+06 1.02196e+06 0 -2.06909e+06 1.04777e+06 0 -2.07307e+06 1.07357e+06 0 -2.07681e+06 1.09937e+06 0 -2.0803e+06 1.12513e+06 0 -2.08353e+06 1.15084e+06 0 -2.08651e+06 1.1765e+06 0 -2.08924e+06 1.20209e+06 0 -2.09172e+06 1.22759e+06 0 -2.09394e+06 1.25298e+06 0 -2.09591e+06 1.27825e+06 0 -2.09762e+06 1.30339e+06 0 -2.09907e+06 1.32837e+06 0 -2.10028e+06 1.35318e+06 0 -2.10122e+06 1.3778e+06 0 -2.10191e+06 1.40221e+06 0 -2.10235e+06 1.42639e+06 0 -2.10253e+06 1.45032e+06 0 -2.10245e+06 1.47397e+06 0 -2.10213e+06 1.49732e+06 0 -2.10155e+06 1.52034e+06 0 -2.10072e+06 1.54301e+06 0 -2.09965e+06 1.56529e+06 0 -2.09834e+06 1.58717e+06 0 -2.09679e+06 1.60861e+06 0 -2.09501e+06 1.62956e+06 0 -2.09302e+06 1.65001e+06 0 -2.09081e+06 1.66991e+06 0 -2.0884e+06 1.68923e+06 0 -2.08579e+06 1.70793e+06 0 -2.08302e+06 1.72596e+06 0 -2.08009e+06 1.74328e+06 0 -2.07701e+06 1.75986e+06 0 -2.07382e+06 1.77564e+06 0 -2.07053e+06 1.79057e+06 0 -2.06717e+06 1.80462e+06 0 -2.06377e+06 1.81773e+06 0 -2.06035e+06 1.82985e+06 0 -2.05695e+06 1.84093e+06 0 -2.0536e+06 1.85092e+06 0 -2.05034e+06 1.85977e+06 0 -2.04721e+06 1.86741e+06 0 -2.04423e+06 1.87381e+06 0 -2.04146e+06 1.87889e+06 0 -2.03893e+06 1.88261e+06 0 -2.03669e+06 1.8849e+06 0 -2.03478e+06 1.88569e+06 0 -2.03323e+06 1.88493e+06 0 -2.03209e+06 1.88255e+06 0 -2.0314e+06 1.87847e+06 0 -2.0312e+06 1.87261e+06 0 -2.03152e+06 1.8649e+06 0 -2.03241e+06 1.85526e+06 0 -2.03389e+06 1.84358e+06 0 -2.03601e+06 1.82978e+06 0 -2.03877e+06 1.81376e+06 0 -2.04221e+06 1.79541e+06 0 -2.04635e+06 1.77464e+06 0 -2.05119e+06 1.75135e+06 0 -2.05674e+06 1.72545e+06 0 -2.06297e+06 1.69687e+06 0 -2.06986e+06 1.66557e+06 0 -2.07733e+06 1.63156e+06 0 -2.08531e+06 1.59492e+06 0 -2.09362e+06 1.55585e+06 0 -2.10206e+06 1.51473e+06 0 -2.11022e+06 1.47225e+06 0 -2.11771e+06 1.42933e+06 0 -2.12347e+06 1.38794e+06 0 -2.12653e+06 1.35043e+06 0 -2.12448e+06 1.3214e+06 0 -2.11244e+06 1.30881e+06 0 -2.08522e+06 1.32097e+06 0 -2.01218e+06 1.38743e+06 0 -1.69717e+06 0 0 -1.69741e+06 10867.5 0 -1.6982e+06 21768 0 -1.69954e+06 32730.2 0 -1.70142e+06 43782.9 0 -1.70385e+06 54954.8 0 -1.70681e+06 66274.3 0 -1.71029e+06 77769.8 0 -1.71429e+06 89469.2 0 -1.71879e+06 101400 0 -1.72377e+06 113590 0 -1.72923e+06 126065 0 -1.73513e+06 138850 0 -1.74147e+06 151971 0 -1.74822e+06 165449 0 -1.75536e+06 179308 0 -1.76285e+06 193567 0 -1.77068e+06 208244 0 -1.77882e+06 223354 0 -1.78723e+06 238912 0 -1.79588e+06 254929 0 -1.80475e+06 271412 0 -1.81379e+06 288367 0 -1.82299e+06 305798 0 -1.8323e+06 323705 0 -1.8417e+06 342085 0 -1.85115e+06 360934 0 -1.86063e+06 380244 0 -1.8701e+06 400006 0 -1.87954e+06 420208 0 -1.88893e+06 440838 0 -1.89824e+06 461881 0 -1.90745e+06 483321 0 -1.91654e+06 505140 0 -1.92549e+06 527321 0 -1.93429e+06 549846 0 -1.94292e+06 572696 0 -1.95136e+06 595851 0 -1.95962e+06 619294 0 -1.96767e+06 643005 0 -1.97551e+06 666965 0 -1.98313e+06 691155 0 -1.99053e+06 715559 0 -1.9977e+06 740158 0 -2.00463e+06 764934 0 -2.01133e+06 789872 0 -2.01779e+06 814954 0 -2.02401e+06 840165 0 -2.02998e+06 865490 0 -2.03571e+06 890912 0 -2.0412e+06 916418 0 -2.04644e+06 941993 0 -2.05143e+06 967623 0 -2.05617e+06 993293 0 -2.06067e+06 1.01899e+06 0 -2.06492e+06 1.0447e+06 0 -2.06892e+06 1.07041e+06 0 -2.07268e+06 1.09611e+06 0 -2.07618e+06 1.12177e+06 0 -2.07944e+06 1.1474e+06 0 -2.08244e+06 1.17297e+06 0 -2.0852e+06 1.19846e+06 0 -2.08771e+06 1.22388e+06 0 -2.08997e+06 1.24919e+06 0 -2.09197e+06 1.27438e+06 0 -2.09373e+06 1.29944e+06 0 -2.09524e+06 1.32435e+06 0 -2.09649e+06 1.34909e+06 0 -2.09749e+06 1.37365e+06 0 -2.09824e+06 1.398e+06 0 -2.09874e+06 1.42212e+06 0 -2.099e+06 1.44599e+06 0 -2.099e+06 1.4696e+06 0 -2.09875e+06 1.49291e+06 0 -2.09826e+06 1.51589e+06 0 -2.09752e+06 1.53854e+06 0 -2.09655e+06 1.56081e+06 0 -2.09534e+06 1.58267e+06 0 -2.09389e+06 1.60411e+06 0 -2.09223e+06 1.62508e+06 0 -2.09035e+06 1.64555e+06 0 -2.08826e+06 1.66548e+06 0 -2.08598e+06 1.68484e+06 0 -2.08351e+06 1.70359e+06 0 -2.08087e+06 1.7217e+06 0 -2.07808e+06 1.73911e+06 0 -2.07515e+06 1.75579e+06 0 -2.07211e+06 1.77169e+06 0 -2.06897e+06 1.78676e+06 0 -2.06577e+06 1.80097e+06 0 -2.06253e+06 1.81426e+06 0 -2.05927e+06 1.82658e+06 0 -2.05603e+06 1.83788e+06 0 -2.05285e+06 1.84812e+06 0 -2.04975e+06 1.85723e+06 0 -2.04677e+06 1.86518e+06 0 -2.04397e+06 1.87189e+06 0 -2.04136e+06 1.87733e+06 0 -2.03899e+06 1.88142e+06 0 -2.03691e+06 1.88412e+06 0 -2.03516e+06 1.88536e+06 0 -2.03378e+06 1.88507e+06 0 -2.0328e+06 1.88319e+06 0 -2.03227e+06 1.87965e+06 0 -2.03224e+06 1.87437e+06 0 -2.03273e+06 1.86727e+06 0 -2.03379e+06 1.85828e+06 0 -2.03545e+06 1.8473e+06 0 -2.03775e+06 1.83424e+06 0 -2.04071e+06 1.819e+06 0 -2.04435e+06 1.80148e+06 0 -2.04871e+06 1.78159e+06 0 -2.05378e+06 1.75921e+06 0 -2.05957e+06 1.73426e+06 0 -2.06606e+06 1.70666e+06 0 -2.07323e+06 1.67635e+06 0 -2.08101e+06 1.64332e+06 0 -2.0893e+06 1.60763e+06 0 -2.09794e+06 1.56942e+06 0 -2.10672e+06 1.52897e+06 0 -2.11524e+06 1.48685e+06 0 -2.12304e+06 1.44384e+06 0 -2.12917e+06 1.40147e+06 0 -2.13245e+06 1.36183e+06 0 -2.13082e+06 1.32831e+06 0 -2.11953e+06 1.30752e+06 0 -2.09356e+06 1.30537e+06 0 -2.02984e+06 1.34303e+06 0 -1.69599e+06 0 0 -1.69622e+06 10899.5 0 -1.69699e+06 21832.1 0 -1.69831e+06 32826.3 0 -1.70017e+06 43910.4 0 -1.70256e+06 55112.6 0 -1.70548e+06 66461.1 0 -1.70892e+06 77983.6 0 -1.71287e+06 89707.9 0 -1.71731e+06 101661 0 -1.72223e+06 113870 0 -1.72762e+06 126360 0 -1.73345e+06 139157 0 -1.73971e+06 152285 0 -1.74638e+06 165766 0 -1.75343e+06 179622 0 -1.76084e+06 193873 0 -1.76858e+06 208536 0 -1.77662e+06 223627 0 -1.78493e+06 239159 0 -1.79349e+06 255143 0 -1.80226e+06 271587 0 -1.8112e+06 288498 0 -1.8203e+06 305878 0 -1.82951e+06 323727 0 -1.83882e+06 342045 0 -1.84817e+06 360825 0 -1.85756e+06 380061 0 -1.86694e+06 399744 0 -1.8763e+06 419863 0 -1.8856e+06 440406 0 -1.89483e+06 461357 0 -1.90397e+06 482701 0 -1.91299e+06 504422 0 -1.92187e+06 526502 0 -1.9306e+06 548924 0 -1.93917e+06 571669 0 -1.94756e+06 594718 0 -1.95576e+06 618053 0 -1.96377e+06 641655 0 -1.97156e+06 665505 0 -1.97915e+06 689586 0 -1.98651e+06 713879 0 -1.99365e+06 738368 0 -2.00055e+06 763034 0 -2.00723e+06 787862 0 -2.01367e+06 812836 0 -2.01987e+06 837938 0 -2.02583e+06 863155 0 -2.03155e+06 888471 0 -2.03703e+06 913871 0 -2.04226e+06 939341 0 -2.04725e+06 964867 0 -2.052e+06 990436 0 -2.0565e+06 1.01603e+06 0 -2.06076e+06 1.04164e+06 0 -2.06477e+06 1.06726e+06 0 -2.06854e+06 1.09285e+06 0 -2.07206e+06 1.11843e+06 0 -2.07534e+06 1.14396e+06 0 -2.07837e+06 1.16944e+06 0 -2.08116e+06 1.19485e+06 0 -2.08369e+06 1.22018e+06 0 -2.08599e+06 1.24541e+06 0 -2.08803e+06 1.27052e+06 0 -2.08983e+06 1.2955e+06 0 -2.09139e+06 1.32034e+06 0 -2.09269e+06 1.34501e+06 0 -2.09375e+06 1.3695e+06 0 -2.09456e+06 1.39379e+06 0 -2.09513e+06 1.41786e+06 0 -2.09545e+06 1.44168e+06 0 -2.09552e+06 1.46524e+06 0 -2.09535e+06 1.4885e+06 0 -2.09494e+06 1.51146e+06 0 -2.0943e+06 1.53408e+06 0 -2.09341e+06 1.55633e+06 0 -2.0923e+06 1.57819e+06 0 -2.09097e+06 1.59962e+06 0 -2.08941e+06 1.62059e+06 0 -2.08764e+06 1.64108e+06 0 -2.08568e+06 1.66105e+06 0 -2.08352e+06 1.68045e+06 0 -2.08118e+06 1.69926e+06 0 -2.07867e+06 1.71743e+06 0 -2.07602e+06 1.73493e+06 0 -2.07323e+06 1.7517e+06 0 -2.07034e+06 1.76772e+06 0 -2.06735e+06 1.78293e+06 0 -2.0643e+06 1.79729e+06 0 -2.06121e+06 1.81076e+06 0 -2.05811e+06 1.82327e+06 0 -2.05503e+06 1.83479e+06 0 -2.052e+06 1.84527e+06 0 -2.04907e+06 1.85465e+06 0 -2.04625e+06 1.86289e+06 0 -2.0436e+06 1.86992e+06 0 -2.04115e+06 1.8757e+06 0 -2.03895e+06 1.88016e+06 0 -2.03703e+06 1.88326e+06 0 -2.03543e+06 1.88493e+06 0 -2.0342e+06 1.8851e+06 0 -2.03338e+06 1.88372e+06 0 -2.03301e+06 1.88071e+06 0 -2.03314e+06 1.87599e+06 0 -2.03379e+06 1.8695e+06 0 -2.03502e+06 1.86116e+06 0 -2.03685e+06 1.85086e+06 0 -2.03932e+06 1.83853e+06 0 -2.04246e+06 1.82406e+06 0 -2.0463e+06 1.80736e+06 0 -2.05086e+06 1.78833e+06 0 -2.05615e+06 1.76685e+06 0 -2.06217e+06 1.74285e+06 0 -2.06892e+06 1.71622e+06 0 -2.07636e+06 1.68691e+06 0 -2.08443e+06 1.65488e+06 0 -2.09304e+06 1.62015e+06 0 -2.10203e+06 1.58283e+06 0 -2.11118e+06 1.54312e+06 0 -2.12011e+06 1.50148e+06 0 -2.12833e+06 1.45856e+06 0 -2.13497e+06 1.41554e+06 0 -2.13877e+06 1.37421e+06 0 -2.13787e+06 1.33716e+06 0 -2.12794e+06 1.30967e+06 0 -2.10409e+06 1.29625e+06 0 -2.04865e+06 1.31214e+06 0 -1.6948e+06 0 0 -1.69502e+06 10930.8 0 -1.69578e+06 21895 0 -1.69708e+06 32920.5 0 -1.69891e+06 44035.2 0 -1.70127e+06 55267.2 0 -1.70415e+06 66643.9 0 -1.70754e+06 78193 0 -1.71144e+06 89941.5 0 -1.71582e+06 101916 0 -1.72068e+06 114144 0 -1.726e+06 126649 0 -1.73177e+06 139457 0 -1.73795e+06 152592 0 -1.74454e+06 166075 0 -1.75151e+06 179928 0 -1.75883e+06 194170 0 -1.76647e+06 208819 0 -1.77442e+06 223890 0 -1.78264e+06 239396 0 -1.7911e+06 255349 0 -1.79977e+06 271755 0 -1.80862e+06 288621 0 -1.81762e+06 305950 0 -1.82673e+06 323744 0 -1.83594e+06 341998 0 -1.8452e+06 360711 0 -1.8545e+06 379874 0 -1.86379e+06 399479 0 -1.87306e+06 419515 0 -1.88229e+06 439970 0 -1.89144e+06 460830 0 -1.9005e+06 482080 0 -1.90944e+06 503704 0 -1.91826e+06 525684 0 -1.92693e+06 548004 0 -1.93543e+06 570644 0 -1.94377e+06 593587 0 -1.95192e+06 616815 0 -1.95988e+06 640308 0 -1.96763e+06 664050 0 -1.97517e+06 688021 0 -1.9825e+06 712205 0 -1.9896e+06 736584 0 -1.99648e+06 761141 0 -2.00313e+06 785860 0 -2.00955e+06 810724 0 -2.01573e+06 835719 0 -2.02168e+06 860828 0 -2.02739e+06 886038 0 -2.03285e+06 911332 0 -2.03808e+06 936698 0 -2.04307e+06 962121 0 -2.04782e+06 987587 0 -2.05233e+06 1.01308e+06 0 -2.05659e+06 1.0386e+06 0 -2.06062e+06 1