<?xml version="1.0"?> 
<VTKFile type="StructuredGrid" version="0.1"> 
<StructuredGrid WholeExtent="0 127 0 127 0 0"> 
<Piece Extent="0 127 0 127 0 0"> 
<PointData>
<DataArray type="Float32" Name="E" format="ascii" NumberOfComponents="3"> 
-1.66874e+06 0 0 -1.66911e+06 -7180.55 0 -1.67021e+06 -14350.3 0 -1.67205e+06 -21497.5 0 -1.67463e+06 -28608.9 0 -1.67795e+06 -35668.9 0 -1.68203e+06 -42658.5 0 -1.68687e+06 -49554.9 0 -1.69249e+06 -56330.6 0 -1.69888e+06 -62953 0 -1.70605e+06 -69384 0 -1.714e+06 -75579.5 0 -1.72272e+06 -81490.4 0 -1.7322e+06 -87062.4 0 -1.74243e+06 -92237.5 0 -1.75335e+06 -96955.7 0 -1.76494e+06 -101157 0 -1.77714e+06 -104783 0 -1.78987e+06 -107783 0 -1.80306e+06 -110112 0 -1.81663e+06 -111736 0 -1.83048e+06 -112636 0 -1.84451e+06 -112805 0 -1.85864e+06 -112249 0 -1.87277e+06 -110991 0 -1.88681e+06 -109062 0 -1.90069e+06 -106506 0 -1.91435e+06 -103372 0 -1.92773e+06 -99714 0 -1.94078e+06 -95589.3 0 -1.95348e+06 -91054.2 0 -1.9658e+06 -86163.2 0 -1.97772e+06 -80968 0 -1.98924e+06 -75516 0 -2.00035e+06 -69850.3 0 -2.01106e+06 -64009 0 -2.02136e+06 -58025.8 0 -2.03127e+06 -51929.7 0 -2.0408e+06 -45745.4 0 -2.04994e+06 -39493.8 0 -2.05872e+06 -33192.5 0 -2.06714e+06 -26855.7 0 -2.07522e+06 -20495.1 0 -2.08296e+06 -14120.1 0 -2.09036e+06 -7737.97 0 -2.09745e+06 -1354.25 0 -2.10422e+06 5026.94 0 -2.11069e+06 11402.7 0 -2.11686e+06 17771.3 0 -2.12273e+06 24131.7 0 -2.12831e+06 30483.8 0 -2.13361e+06 36827.9 0 -2.13862e+06 43165 0 -2.14336e+06 49496.2 0 -2.14781e+06 55823.3 0 -2.15199e+06 62148.1 0 -2.1559e+06 68472.7 0 -2.15953e+06 74799.3 0 -2.16289e+06 81130.1 0 -2.16597e+06 87467.4 0 -2.16878e+06 93813.6 0 -2.1713e+06 100171 0 -2.17355e+06 106541 0 -2.17551e+06 112927 0 -2.17718e+06 119330 0 -2.17856e+06 125752 0 -2.17963e+06 132193 0 -2.18041e+06 138654 0 -2.18087e+06 145137 0 -2.18102e+06 151639 0 -2.18084e+06 158161 0 -2.18032e+06 164700 0 -2.17946e+06 171253 0 -2.17825e+06 177815 0 -2.17666e+06 184381 0 -2.1747e+06 190942 0 -2.17235e+06 197489 0 -2.16959e+06 204010 0 -2.16641e+06 210489 0 -2.16279e+06 216907 0 -2.15873e+06 223243 0 -2.15421e+06 229470 0 -2.14921e+06 235557 0 -2.14374e+06 241469 0 -2.13777e+06 247164 0 -2.13131e+06 252595 0 -2.12436e+06 257711 0 -2.11693e+06 262455 0 -2.10903e+06 266766 0 -2.1007e+06 270581 0 -2.09196e+06 273834 0 -2.08287e+06 276463 0 -2.07349e+06 278405 0 -2.06387e+06 279608 0 -2.05412e+06 280024 0 -2.04431e+06 279618 0 -2.03453e+06 278369 0 -2.02489e+06 276268 0 -2.01547e+06 273319 0 -2.00636e+06 269540 0 -1.99765e+06 264961 0 -1.98941e+06 259622 0 -1.9817e+06 253566 0 -1.97456e+06 246843 0 -1.96804e+06 239506 0 -1.96217e+06 231602 0 -1.95695e+06 223181 0 -1.9524e+06 214286 0 -1.9485e+06 204953 0 -1.94526e+06 195213 0 -1.94265e+06 185092 0 -1.94066e+06 174603 0 -1.93926e+06 163753 0 -1.93841e+06 152540 0 -1.93809e+06 140948 0 -1.93827e+06 128950 0 -1.93891e+06 116500 0 -1.93998e+06 103535 0 -1.94147e+06 89956.3 0 -1.94338e+06 75660.8 0 -1.9457e+06 60382.5 0 -1.94863e+06 43892.7 0 -1.95259e+06 25579.6 0 -1.95806e+06 5902.29 0 -1.96436e+06 -20304.2 0 -1.98158e+06 -53625.8 0 -2.03606e+06 -99251 0 -2.19116e+06 0 0 -1.66946e+06 0 0 -1.66982e+06 -7107.41 0 -1.67092e+06 -14203.8 0 -1.67276e+06 -21277.2 0 -1.67533e+06 -28314.3 0 -1.67865e+06 -35299.3 0 -1.68272e+06 -42213.1 0 -1.68756e+06 -49033 0 -1.69315e+06 -55731.5 0 -1.69953e+06 -62276.3 0 -1.70668e+06 -68629.4 0 -1.7146e+06 -74747.4 0 -1.72329e+06 -80581.8 0 -1.73274e+06 -86079 0 -1.74292e+06 -91182.1 0 -1.7538e+06 -95832 0 -1.76533e+06 -99969.8 0 -1.77747e+06 -103539 0 -1.79013e+06 -106489 0 -1.80326e+06 -108776 0 -1.81676e+06 -110368 0 -1.83053e+06 -111244 0 -1.84449e+06 -111399 0 -1.85855e+06 -110839 0 -1.87261e+06 -109585 0 -1.88659e+06 -107668 0 -1.90041e+06 -105131 0 -1.91401e+06 -102022 0 -1.92734e+06 -98394 0 -1.94035e+06 -94303.2 0 -1.95301e+06 -89804.8 0 -1.96529e+06 -84952.4 0 -1.97719e+06 -79797 0 -1.98869e+06 -74385.5 0 -1.99978e+06 -68760.3 0 -2.01047e+06 -62959.3 0 -2.02076e+06 -57015.8 0 -2.03066e+06 -50958.6 0 -2.04018e+06 -44812.3 0 -2.04932e+06 -38597.9 0 -2.05809e+06 -32332.7 0 -2.06651e+06 -26031.1 0 -2.07458e+06 -19704.7 0 -2.08232e+06 -13363.1 0 -2.08973e+06 -7013.38 0 -2.09681e+06 -661.346 0 -2.10359e+06 5688.87 0 -2.11006e+06 12034.3 0 -2.11622e+06 18373.2 0 -2.1221e+06 24704.4 0 -2.12768e+06 31027.7 0 -2.13297e+06 37343.4 0 -2.13799e+06 43652.4 0 -2.14272e+06 49955.8 0 -2.14718e+06 56255.2 0 -2.15136e+06 62552.5 0 -2.15527e+06 68849.6 0 -2.1589e+06 75148.7 0 -2.16226e+06 81452 0 -2.16534e+06 87761.7 0 -2.16814e+06 94080.1 0 -2.17067e+06 100409 0 -2.17291e+06 106752 0 -2.17487e+06 113109 0 -2.17654e+06 119483 0 -2.17791e+06 125874 0 -2.17899e+06 132286 0 -2.17976e+06 138716 0 -2.18023e+06 145167 0 -2.18037e+06 151638 0 -2.18019e+06 158126 0 -2.17967e+06 164631 0 -2.17881e+06 171149 0 -2.17759e+06 177675 0 -2.17601e+06 184204 0 -2.17405e+06 190726 0 -2.17169e+06 197234 0 -2.16894e+06 203713 0 -2.16576e+06 210149 0 -2.16216e+06 216524 0 -2.1581e+06 222815 0 -2.15359e+06 228995 0 -2.14862e+06 235035 0 -2.14316e+06 240898 0 -2.13722e+06 246544 0 -2.13079e+06 251926 0 -2.12387e+06 256993 0 -2.11648e+06 261690 0 -2.10863e+06 265956 0 -2.10035e+06 269729 0 -2.09167e+06 272945 0 -2.08264e+06 275541 0 -2.07333e+06 277458 0 -2.06379e+06 278642 0 -2.05412e+06 279048 0 -2.04439e+06 278642 0 -2.0347e+06 277401 0 -2.02514e+06 275317 0 -2.0158e+06 272395 0 -2.00678e+06 268652 0 -1.99815e+06 264117 0 -1.98998e+06 258827 0 -1.98233e+06 252826 0 -1.97526e+06 246164 0 -1.9688e+06 238889 0 -1.96298e+06 231050 0 -1.95781e+06 222695 0 -1.95331e+06 213866 0 -1.94945e+06 204598 0 -1.94625e+06 194923 0 -1.94368e+06 184864 0 -1.94173e+06 174435 0 -1.94036e+06 163643 0 -1.93955e+06 152484 0 -1.93927e+06 140943 0 -1.93949e+06 128993 0 -1.94017e+06 116589 0 -1.9413e+06 103666 0 -1.94286e+06 90131.7 0 -1.94484e+06 75872.4 0 -1.94728e+06 60658.4 0 -1.95033e+06 44215.5 0 -1.95453e+06 26121.2 0 -1.96006e+06 6357.27 0 -1.96754e+06 -18889.1 0 -1.98494e+06 -51214 0 -2.04088e+06 -87164 0 -2.16747e+06 -1.54227e-06 0 -1.67016e+06 0 0 -1.67053e+06 -7034.37 0 -1.67163e+06 -14057.5 0 -1.67346e+06 -21057.3 0 -1.67603e+06 -28020.3 0 -1.67934e+06 -34930.5 0 -1.68341e+06 -41768.7 0 -1.68823e+06 -48512.3 0 -1.69381e+06 -55134 0 -1.70017e+06 -61601.4 0 -1.7073e+06 -67877.1 0 -1.71519e+06 -73918.2 0 -1.72386e+06 -79676.5 0 -1.73327e+06 -85099.6 0 -1.7434e+06 -90131.2 0 -1.75423e+06 -94713.4 0 -1.76571e+06 -98788.5 0 -1.77779e+06 -102301 0 -1.79039e+06 -105201 0 -1.80345e+06 -107447 0 -1.81688e+06 -109006 0 -1.83058e+06 -109860 0 -1.84447e+06 -110000 0 -1.85846e+06 -109435 0 -1.87245e+06 -108185 0 -1.88636e+06 -106280 0 -1.90013e+06 -103761 0 -1.91367e+06 -100677 0 -1.92695e+06 -97078.8 0 -1.93992e+06 -93021.2 0 -1.95254e+06 -88558.9 0 -1.9648e+06 -83744.7 0 -1.97666e+06 -78628.6 0 -1.98813e+06 -73257.1 0 -1.99921e+06 -67672 0 -2.00988e+06 -61910.9 0 -2.02016e+06 -56006.8 0 -2.03005e+06 -49988.3 0 -2.03956e+06 -43879.9 0 -2.04869e+06 -37702.5 0 -2.05747e+06 -31473.3 0 -2.06588e+06 -25206.7 0 -2.07395e+06 -18914.5 0 -2.08169e+06 -12606.1 0 -2.08909e+06 -6288.81 0 -2.09618e+06 31.5738 0 -2.10295e+06 6350.85 0 -2.10942e+06 12666 0 -2.11559e+06 18975.2 0 -2.12146e+06 25277.1 0 -2.12705e+06 31571.7 0 -2.13234e+06 37859 0 -2.13736e+06 44139.8 0 -2.1421e+06 50415.4 0 -2.14655e+06 56687.2 0 -2.15073e+06 62956.9 0 -2.15464e+06 69226.6 0 -2.15827e+06 75498.2 0 -2.16163e+06 81773.9 0 -2.16471e+06 88056 0 -2.16751e+06 94346.6 0 -2.17004e+06 100648 0 -2.17228e+06 106962 0 -2.17423e+06 113290 0 -2.1759e+06 119635 0 -2.17728e+06 125997 0 -2.17835e+06 132378 0 -2.17912e+06 138778 0 -2.17958e+06 145198 0 -2.17972e+06 151636 0 -2.17954e+06 158092 0 -2.17902e+06 164562 0 -2.17816e+06 171045 0 -2.17694e+06 177535 0 -2.17536e+06 184027 0 -2.1734e+06 190511 0 -2.17105e+06 196979 0 -2.16829e+06 203417 0 -2.16512e+06 209811 0 -2.16152e+06 216142 0 -2.15748e+06 222387 0 -2.15299e+06 228522 0 -2.14802e+06 234514 0 -2.14258e+06 240329 0 -2.13667e+06 245926 0 -2.13026e+06 251260 0 -2.12338e+06 256280 0 -2.11603e+06 260930 0 -2.10823e+06 265151 0 -2.1e+06 268883 0 -2.09138e+06 272062 0 -2.08242e+06 274626 0 -2.07317e+06 276518 0 -2.06371e+06 277684 0 -2.05412e+06 278080 0 -2.04447e+06 277673 0 -2.03487e+06 276441 0 -2.02539e+06 274375 0 -2.01614e+06 271480 0 -2.00719e+06 267772 0 -1.99864e+06 263279 0 -1.99054e+06 258039 0 -1.98297e+06 252093 0 -1.97596e+06 245490 0 -1.96956e+06 238277 0 -1.96379e+06 230503 0 -1.95867e+06 222214 0 -1.95421e+06 213450 0 -1.9504e+06 204248 0 -1.94724e+06 194637 0 -1.9447e+06 184640 0 -1.94278e+06 174271 0 -1.94145e+06 163536 0 -1.94068e+06 152432 0 -1.94044e+06 140943 0 -1.9407e+06 129041 0 -1.94144e+06 116683 0 -1.94262e+06 103803 0 -1.94424e+06 90313.6 0 -1.94631e+06 76095.3 0 -1.94886e+06 60942.1 0 -1.95204e+06 44565.5 0 -1.95642e+06 26654.1 0 -1.96211e+06 6916.21 0 -1.97048e+06 -17509.9 0 -1.98832e+06 -48455.1 0 -2.04391e+06 -76718.6 0 -2.14788e+06 2.6077e-06 0 -1.67086e+06 0 0 -1.67123e+06 -6961.44 0 -1.67233e+06 -13911.4 0 -1.67416e+06 -20837.8 0 -1.67672e+06 -27726.8 0 -1.68003e+06 -34562.3 0 -1.68408e+06 -41325.3 0 -1.68889e+06 -47992.9 0 -1.69447e+06 -54538 0 -1.7008e+06 -60928.5 0 -1.70791e+06 -67127.2 0 -1.71578e+06 -73091.7 0 -1.72441e+06 -78774.6 0 -1.73379e+06 -84124 0 -1.74388e+06 -89084.8 0 -1.75466e+06 -93599.9 0 -1.76609e+06 -97612.8 0 -1.77811e+06 -101069 0 -1.79065e+06 -103921 0 -1.80364e+06 -106125 0 -1.817e+06 -107652 0 -1.83063e+06 -108482 0 -1.84445e+06 -108609 0 -1.85837e+06 -108039 0 -1.87229e+06 -106792 0 -1.88614e+06 -104898 0 -1.89985e+06 -102398 0 -1.91334e+06 -99337.4 0 -1.92657e+06 -95768.1 0 -1.9395e+06 -91743.3 0 -1.95208e+06 -87316.5 0 -1.9643e+06 -82539.9 0 -1.97614e+06 -77462.8 0 -1.98759e+06 -72130.8 0 -1.99864e+06 -66585.5 0 -2.0093e+06 -60864 0 -2.01957e+06 -54999 0 -2.02945e+06 -49019 0 -2.03895e+06 -42948.2 0 -2.04808e+06 -36807.5 0 -2.05684e+06 -30614.2 0 -2.06526e+06 -24382.6 0 -2.07332e+06 -18124.4 0 -2.08106e+06 -11849.2 0 -2.08846e+06 -5564.28 0 -2.09555e+06 724.506 0 -2.10232e+06 7012.88 0 -2.10879e+06 13297.8 0 -2.11496e+06 19577.2 0 -2.12084e+06 25850 0 -2.12642e+06 32115.7 0 -2.13172e+06 38374.6 0 -2.13673e+06 44627.3 0 -2.14147e+06 50875 0 -2.14593e+06 57119.1 0 -2.15011e+06 63361.3 0 -2.15401e+06 69603.4 0 -2.15765e+06 75847.5 0 -2.161e+06 82095.7 0 -2.16408e+06 88350.1 0 -2.16688e+06 94612.9 0 -2.16941e+06 100886 0 -2.17165e+06 107172 0 -2.1736e+06 113471 0 -2.17527e+06 119787 0 -2.17664e+06 126120 0 -2.17771e+06 132470 0 -2.17848e+06 138840 0 -2.17894e+06 145228 0 -2.17908e+06 151634 0 -2.1789e+06 158057 0 -2.17838e+06 164494 0 -2.17751e+06 170941 0 -2.17629e+06 177396 0 -2.17471e+06 183850 0 -2.17275e+06 190296 0 -2.1704e+06 196724 0 -2.16765e+06 203121 0 -2.16449e+06 209473 0 -2.1609e+06 215760 0 -2.15687e+06 221961 0 -2.15238e+06 228050 0 -2.14743e+06 233995 0 -2.14202e+06 239762 0 -2.13612e+06 245312 0 -2.12975e+06 250597 0 -2.1229e+06 255569 0 -2.11559e+06 260174 0 -2.10783e+06 264352 0 -2.09965e+06 268043 0 -2.09109e+06 271185 0 -2.0822e+06 273718 0 -2.07302e+06 275585 0 -2.06364e+06 276733 0 -2.05412e+06 277121 0 -2.04455e+06 276713 0 -2.03503e+06 275489 0 -2.02564e+06 273441 0 -2.01647e+06 270573 0 -2.0076e+06 266900 0 -1.99912e+06 262449 0 -1.9911e+06 257258 0 -1.98359e+06 251367 0 -1.97665e+06 244822 0 -1.9703e+06 237671 0 -1.96459e+06 229962 0 -1.95952e+06 221737 0 -1.9551e+06 213039 0 -1.95134e+06 203902 0 -1.94821e+06 194355 0 -1.94572e+06 184420 0 -1.94384e+06 174111 0 -1.94254e+06 163434 0 -1.94181e+06 152384 0 -1.94161e+06 140947 0 -1.94191e+06 129094 0 -1.9427e+06 116782 0 -1.94393e+06 103946 0 -1.94562e+06 90502.1 0 -1.94777e+06 76328.6 0 -1.95042e+06 61235.3 0 -1.95374e+06 44937.4 0 -1.95829e+06 27188.5 0 -1.96419e+06 7554.21 0 -1.97323e+06 -16135.9 0 -1.9916e+06 -45490 0 -2.04564e+06 -67646.8 0 -2.13159e+06 -1.81049e-06 0 -1.67156e+06 0 0 -1.67192e+06 -6888.63 0 -1.67302e+06 -13765.6 0 -1.67484e+06 -20618.7 0 -1.6774e+06 -27433.8 0 -1.6807e+06 -34194.9 0 -1.68475e+06 -40882.8 0 -1.68955e+06 -47474.7 0 -1.69511e+06 -53943.5 0 -1.70143e+06 -60257.5 0 -1.70852e+06 -66379.6 0 -1.71636e+06 -72268.1 0 -1.72496e+06 -77876.1 0 -1.7343e+06 -83152.4 0 -1.74435e+06 -88042.8 0 -1.75509e+06 -92491.5 0 -1.76646e+06 -96442.8 0 -1.77842e+06 -99843.6 0 -1.7909e+06 -102646 0 -1.80383e+06 -104810 0 -1.81711e+06 -106305 0 -1.83068e+06 -107111 0 -1.84443e+06 -107224 0 -1.85828e+06 -106649 0 -1.87213e+06 -105405 0 -1.88592e+06 -103522 0 -1.89957e+06 -101040 0 -1.91301e+06 -98002.9 0 -1.92619e+06 -94461.9 0 -1.93907e+06 -90469.3 0 -1.95162e+06 -86077.6 0 -1.96381e+06 -81338.1 0 -1.97562e+06 -76299.4 0 -1.98705e+06 -71006.6 0 -1.99808e+06 -65500.7 0 -2.00872e+06 -59818.5 0 -2.01898e+06 -53992.3 0 -2.02885e+06 -48050.5 0 -2.03834e+06 -42017.2 0 -2.04746e+06 -35913.1 0 -2.05622e+06 -29755.5 0 -2.06463e+06 -23558.7 0 -2.0727e+06 -17334.5 0 -2.08043e+06 -11092.4 0 -2.08784e+06 -4839.78 0 -2.09492e+06 1417.44 0 -2.1017e+06 7674.94 0 -2.10817e+06 13929.6 0 -2.11434e+06 20179.3 0 -2.12021e+06 26422.9 0 -2.12579e+06 32659.8 0 -2.13109e+06 38890.3 0 -2.13611e+06 45114.9 0 -2.14085e+06 51334.7 0 -2.1453e+06 57551.1 0 -2.14949e+06 63765.7 0 -2.15339e+06 69980.3 0 -2.15702e+06 76196.9 0 -2.16038e+06 82417.5 0 -2.16346e+06 88644.2 0 -2.16626e+06 94879.1 0 -2.16878e+06 101124 0 -2.17102e+06 107381 0 -2.17297e+06 113652 0 -2.17464e+06 119939 0 -2.17601e+06 126242 0 -2.17708e+06 132563 0 -2.17785e+06 138901 0 -2.1783e+06 145258 0 -2.17844e+06 151632 0 -2.17826e+06 158021 0 -2.17773e+06 164424 0 -2.17687e+06 170837 0 -2.17565e+06 177256 0 -2.17407e+06 183673 0 -2.17211e+06 190081 0 -2.16976e+06 196469 0 -2.16702e+06 202826 0 -2.16386e+06 209136 0 -2.16027e+06 215380 0 -2.15625e+06 221536 0 -2.15178e+06 227579 0 -2.14685e+06 233478 0 -2.14145e+06 239198 0 -2.13558e+06 244699 0 -2.12924e+06 249938 0 -2.12242e+06 254863 0 -2.11515e+06 259422 0 -2.10744e+06 263557 0 -2.09931e+06 267208 0 -2.09081e+06 270314 0 -2.08198e+06 272817 0 -2.07287e+06 274659 0 -2.06356e+06 275791 0 -2.05412e+06 276169 0 -2.04464e+06 275761 0 -2.03519e+06 274546 0 -2.02588e+06 272516 0 -2.01679e+06 269673 0 -2.00801e+06 266035 0 -1.9996e+06 261627 0 -1.99165e+06 256484 0 -1.98421e+06 250647 0 -1.97733e+06 244160 0 -1.97105e+06 237071 0 -1.96538e+06 229425 0 -1.96036e+06 221266 0 -1.95599e+06 212632 0 -1.95227e+06 203560 0 -1.94918e+06 194076 0 -1.94673e+06 184203 0 -1.94488e+06 173954 0 -1.94362e+06 163335 0 -1.94293e+06 152340 0 -1.94277e+06 140955 0 -1.94312e+06 129151 0 -1.94395e+06 116886 0 -1.94524e+06 104096 0 -1.947e+06 90697.6 0 -1.94922e+06 76571.7 0 -1.95198e+06 61538.9 0 -1.95544e+06 45328 0 -1.96013e+06 27730.4 0 -1.96626e+06 8254.68 0 -1.97583e+06 -14751.5 0 -1.99469e+06 -42416 0 -2.04644e+06 -59741 0 -2.11795e+06 4.61936e-07 0 -1.67224e+06 0 0 -1.67261e+06 -6815.93 0 -1.6737e+06 -13620.1 0 -1.67552e+06 -20399.9 0 -1.67808e+06 -27141.4 0 -1.68137e+06 -33828.2 0 -1.68541e+06 -40441.3 0 -1.6902e+06 -46957.7 0 -1.69575e+06 -53350.6 0 -1.70205e+06 -59588.3 0 -1.70911e+06 -65634.4 0 -1.71693e+06 -71447.3 0 -1.7255e+06 -76980.8 0 -1.73481e+06 -82184.6 0 -1.74482e+06 -87005.3 0 -1.75551e+06 -91388 0 -1.76683e+06 -95278.2 0 -1.77873e+06 -98623.9 0 -1.79115e+06 -101378 0 -1.80401e+06 -103502 0 -1.81723e+06 -104964 0 -1.83072e+06 -105748 0 -1.84441e+06 -105846 0 -1.85819e+06 -105266 0 -1.87198e+06 -104025 0 -1.8857e+06 -102152 0 -1.89929e+06 -99687.2 0 -1.91268e+06 -96673.4 0 -1.92582e+06 -93160.3 0 -1.93866e+06 -89199.4 0 -1.95117e+06 -84842.3 0 -1.96332e+06 -80139.4 0 -1.9751e+06 -75138.7 0 -1.98651e+06 -69884.6 0 -1.99752e+06 -64417.7 0 -2.00815e+06 -58774.4 0 -2.01839e+06 -52986.8 0 -2.02825e+06 -47083 0 -2.03773e+06 -41086.9 0 -2.04685e+06 -35019.3 0 -2.05561e+06 -28897.2 0 -2.06401e+06 -22735.2 0 -2.07208e+06 -16544.8 0 -2.07981e+06 -10335.7 0 -2.08721e+06 -4115.33 0 -2.0943e+06 2110.38 0 -2.10107e+06 8337.03 0 -2.10754e+06 14561.4 0 -2.11371e+06 20781.5 0 -2.11959e+06 26995.8 0 -2.12517e+06 33204 0 -2.13047e+06 39406 0 -2.13549e+06 45602.5 0 -2.14023e+06 51794.4 0 -2.14468e+06 57983.1 0 -2.14887e+06 64170.1 0 -2.15277e+06 70357.1 0 -2.1564e+06 76546.2 0 -2.15976e+06 82739.2 0 -2.16284e+06 88938.2 0 -2.16564e+06 95145.2 0 -2.16816e+06 101362 0 -2.17039e+06 107591 0 -2.17235e+06 113833 0 -2.17401e+06 120091 0 -2.17538e+06 126364 0 -2.17645e+06 132655 0 -2.17721e+06 138963 0 -2.17767e+06 145288 0 -2.17781e+06 151629 0 -2.17762e+06 157986 0 -2.17709e+06 164355 0 -2.17623e+06 170734 0 -2.17501e+06 177116 0 -2.17343e+06 183496 0 -2.17147e+06 189866 0 -2.16913e+06 196215 0 -2.16639e+06 202531 0 -2.16323e+06 208799 0 -2.15966e+06 215000 0 -2.15564e+06 221112 0 -2.15119e+06 227110 0 -2.14627e+06 232962 0 -2.14089e+06 238636 0 -2.13505e+06 244090 0 -2.12873e+06 249281 0 -2.12195e+06 254160 0 -2.11472e+06 258674 0 -2.10705e+06 262766 0 -2.09898e+06 266378 0 -2.09053e+06 269449 0 -2.08176e+06 271922 0 -2.07272e+06 273741 0 -2.06348e+06 274855 0 -2.05412e+06 275225 0 -2.04472e+06 274817 0 -2.03535e+06 273611 0 -2.02612e+06 271598 0 -2.01711e+06 268782 0 -2.00841e+06 265178 0 -2.00008e+06 260812 0 -1.9922e+06 255717 0 -1.98482e+06 249933 0 -1.97801e+06 243505 0 -1.97178e+06 236477 0 -1.96617e+06 228894 0 -1.9612e+06 220798 0 -1.95688e+06 212230 0 -1.95319e+06 203222 0 -1.95015e+06 193802 0 -1.94773e+06 183990 0 -1.94592e+06 173801 0 -1.9447e+06 163239 0 -1.94404e+06 152299 0 -1.94392e+06 140967 0 -1.94432e+06 129213 0 -1.9452e+06 116995 0 -1.94655e+06 104252 0 -1.94837e+06 90900.2 0 -1.95067e+06 76824.1 0 -1.95353e+06 61853.3 0 -1.95712e+06 45735 0 -1.96195e+06 28283.6 0 -1.96832e+06 9004.97 0 -1.97832e+06 -13349.1 0 -1.99757e+06 -39307.2 0 -2.0466e+06 -52824.9 0 -2.10647e+06 3.72529e-07 0 -1.67292e+06 0 0 -1.67329e+06 -6743.35 0 -1.67438e+06 -13474.7 0 -1.6762e+06 -20181.5 0 -1.67875e+06 -26849.5 0 -1.68203e+06 -33462.3 0 -1.68606e+06 -40000.7 0 -1.69084e+06 -46442 0 -1.69637e+06 -52759.2 0 -1.70266e+06 -58921.2 0 -1.7097e+06 -64891.5 0 -1.7175e+06 -70629.3 0 -1.72604e+06 -76088.8 0 -1.7353e+06 -81220.6 0 -1.74528e+06 -85972.1 0 -1.75592e+06 -90289.5 0 -1.76719e+06 -94119.1 0 -1.77903e+06 -97410.1 0 -1.79139e+06 -100116 0 -1.80418e+06 -102200 0 -1.81734e+06 -103631 0 -1.83077e+06 -104391 0 -1.84438e+06 -104475 0 -1.85809e+06 -103889 0 -1.87182e+06 -102651 0 -1.88549e+06 -100789 0 -1.89902e+06 -98340.1 0 -1.91236e+06 -95348.9 0 -1.92544e+06 -91863.2 0 -1.93824e+06 -87933.4 0 -1.95071e+06 -83610.3 0 -1.96284e+06 -78943.6 0 -1.97459e+06 -73980.4 0 -1.98597e+06 -68764.7 0 -1.99697e+06 -63336.5 0 -2.00758e+06 -57731.8 0 -2.01781e+06 -51982.5 0 -2.02765e+06 -46116.4 0 -2.03713e+06 -40157.4 0 -2.04624e+06 -34126 0 -2.05499e+06 -28039.4 0 -2.0634e+06 -21911.9 0 -2.07146e+06 -15755.3 0 -2.07919e+06 -9579.09 0 -2.08659e+06 -3390.93 0 -2.09368e+06 2803.31 0 -2.10045e+06 8999.14 0 -2.10692e+06 15193.3 0 -2.11309e+06 21383.7 0 -2.11897e+06 27568.8 0 -2.12455e+06 33748.2 0 -2.12985e+06 39921.8 0 -2.13487e+06 46090.2 0 -2.13961e+06 52254.2 0 -2.14407e+06 58415.1 0 -2.14825e+06 64574.5 0 -2.15215e+06 70734 0 -2.15578e+06 76895.5 0 -2.15914e+06 83060.9 0 -2.16222e+06 89232.1 0 -2.16502e+06 95411.3 0 -2.16753e+06 101600 0 -2.16977e+06 107801 0 -2.17172e+06 114014 0 -2.17338e+06 120242 0 -2.17475e+06 126486 0 -2.17582e+06 132746 0 -2.17658e+06 139024 0 -2.17704e+06 145317 0 -2.17717e+06 151627 0 -2.17698e+06 157951 0 -2.17646e+06 164286 0 -2.17559e+06 170630 0 -2.17437e+06 176976 0 -2.17279e+06 183319 0 -2.17084e+06 189651 0 -2.1685e+06 195961 0 -2.16576e+06 202237 0 -2.16261e+06 208463 0 -2.15904e+06 214621 0 -2.15504e+06 220689 0 -2.1506e+06 226642 0 -2.1457e+06 232449 0 -2.14034e+06 238075 0 -2.13452e+06 243483 0 -2.12823e+06 248628 0 -2.12148e+06 253461 0 -2.11429e+06 257931 0 -2.10667e+06 261981 0 -2.09864e+06 265554 0 -2.09025e+06 268591 0 -2.08155e+06 271034 0 -2.07258e+06 272829 0 -2.06341e+06 273928 0 -2.05412e+06 274289 0 -2.0448e+06 273881 0 -2.03551e+06 272684 0 -2.02636e+06 270689 0 -2.01743e+06 267899 0 -2.0088e+06 264329 0 -2.00055e+06 260004 0 -1.99274e+06 254957 0 -1.98543e+06 249226 0 -1.97868e+06 242855 0 -1.97251e+06 235887 0 -1.96695e+06 228367 0 -1.96203e+06 220336 0 -1.95775e+06 211832 0 -1.95411e+06 202888 0 -1.95111e+06 193531 0 -1.94873e+06 183781 0 -1.94696e+06 173652 0 -1.94577e+06 163148 0 -1.94515e+06 152263 0 -1.94508e+06 140983 0 -1.94551e+06 129279 0 -1.94644e+06 117110 0 -1.94785e+06 104414 0 -1.94974e+06 91110 0 -1.95212e+06 77085.6 0 -1.95507e+06 62178.7 0 -1.9588e+06 46156.8 0 -1.96375e+06 28850.2 0 -1.97035e+06 9795.7 0 -1.9807e+06 -11926.9 0 -2.00022e+06 -36217.1 0 -2.04631e+06 -46752.7 0 -2.09676e+06 2.38419e-07 0 -1.67359e+06 0 0 -1.67396e+06 -6670.89 0 -1.67504e+06 -13329.7 0 -1.67686e+06 -19963.5 0 -1.67941e+06 -26558.1 0 -1.68269e+06 -33097.1 0 -1.68671e+06 -39561.1 0 -1.69148e+06 -45927.4 0 -1.69699e+06 -52169.4 0 -1.70326e+06 -58255.9 0 -1.71029e+06 -64150.9 0 -1.71806e+06 -69814 0 -1.72656e+06 -75200.1 0 -1.7358e+06 -80260.4 0 -1.74573e+06 -84943.3 0 -1.75632e+06 -89195.8 0 -1.76754e+06 -92965.4 0 -1.77933e+06 -96202.1 0 -1.79163e+06 -98861.1 0 -1.80436e+06 -100904 0 -1.81745e+06 -102304 0 -1.83081e+06 -103041 0 -1.84435e+06 -103111 0 -1.858e+06 -102519 0 -1.87167e+06 -101283 0 -1.88527e+06 -99430.6 0 -1.89875e+06 -96998.5 0 -1.91203e+06 -94029.4 0 -1.92507e+06 -90570.5 0 -1.93783e+06 -86671.3 0 -1.95026e+06 -82381.8 0 -1.96236e+06 -77750.8 0 -1.97409e+06 -72824.7 0 -1.98544e+06 -67646.9 0 -1.99642e+06 -62257 0 -2.00701e+06 -56690.6 0 -2.01723e+06 -50979.3 0 -2.02706e+06 -45150.7 0 -2.03653e+06 -39228.5 0 -2.04564e+06 -33233.2 0 -2.05438e+06 -27181.9 0 -2.06278e+06 -21088.9 0 -2.07084e+06 -14965.9 0 -2.07857e+06 -8822.62 0 -2.08597e+06 -2666.59 0 -2.09306e+06 3496.22 0 -2.09983e+06 9661.27 0 -2.1063e+06 15825.3 0 -2.11247e+06 21986 0 -2.11835e+06 28141.9 0 -2.12394e+06 34292.5 0 -2.12924e+06 40437.7 0 -2.13426e+06 46577.9 0 -2.13899e+06 52714 0 -2.14345e+06 58847.1 0 -2.14763e+06 64978.9 0 -2.15154e+06 71110.8 0 -2.15517e+06 77244.7 0 -2.15852e+06 83382.4 0 -2.1616e+06 89526 0 -2.1644e+06 95677.2 0 -2.16692e+06 101838 0 -2.16915e+06 108010 0 -2.1711e+06 114195 0 -2.17276e+06 120394 0 -2.17413e+06 126608 0 -2.17519e+06 132838 0 -2.17596e+06 139085 0 -2.17641e+06 145347 0 -2.17654e+06 151624 0 -2.17635e+06 157915 0 -2.17583e+06 164217 0 -2.17496e+06 170525 0 -2.17374e+06 176836 0 -2.17216e+06 183143 0 -2.17021e+06 189437 0 -2.16787e+06 195708 0 -2.16514e+06 201943 0 -2.16199e+06 208128 0 -2.15843e+06 214243 0 -2.15444e+06 220268 0 -2.15001e+06 226175 0 -2.14513e+06 231937 0 -2.13979e+06 237517 0 -2.13399e+06 242879 0 -2.12773e+06 247978 0 -2.12102e+06 252766 0 -2.11386e+06 257192 0 -2.10629e+06 261201 0 -2.09831e+06 264735 0 -2.08998e+06 267738 0 -2.08133e+06 270152 0 -2.07243e+06 271924 0 -2.06334e+06 273007 0 -2.05413e+06 273361 0 -2.04488e+06 272953 0 -2.03567e+06 271765 0 -2.0266e+06 269787 0 -2.01775e+06 267024 0 -2.0092e+06 263488 0 -2.00102e+06 259204 0 -1.99328e+06 254204 0 -1.98604e+06 248526 0 -1.97934e+06 242211 0 -1.97323e+06 235304 0 -1.96773e+06 227846 0 -1.96286e+06 219878 0 -1.95862e+06 211438 0 -1.95502e+06 202558 0 -1.95206e+06 193264 0 -1.94972e+06 183576 0 -1.94799e+06 173507 0 -1.94684e+06 163060 0 -1.94626e+06 152231 0 -1.94622e+06 141003 0 -1.9467e+06 129350 0 -1.94768e+06 117230 0 -1.94915e+06 104582 0 -1.9511e+06 91326.8 0 -1.95356e+06 77355.9 0 -1.95661e+06 62515 0 -1.96045e+06 46592.2 0 -1.96554e+06 29431.1 0 -1.97236e+06 10619.6 0 -1.98298e+06 -10486.7 0 -2.00263e+06 -33184.3 0 -2.04572e+06 -41402.2 0 -2.0885e+06 -3.57628e-07 0 -1.67425e+06 0 0 -1.67462e+06 -6598.54 0 -1.67571e+06 -13184.8 0 -1.67752e+06 -19745.9 0 -1.68006e+06 -26267.3 0 -1.68334e+06 -32732.6 0 -1.68735e+06 -39122.4 0 -1.6921e+06 -45414.2 0 -1.69761e+06 -51581.2 0 -1.70386e+06 -57592.5 0 -1.71086e+06 -63412.6 0 -1.71861e+06 -69001.5 0 -1.72708e+06 -74314.7 0 -1.73628e+06 -79304 0 -1.74617e+06 -83918.8 0 -1.75672e+06 -88106.9 0 -1.76789e+06 -91817 0 -1.77962e+06 -94999.9 0 -1.79186e+06 -97611.8 0 -1.80453e+06 -99615.6 0 -1.81755e+06 -100983 0 -1.83085e+06 -101698 0 -1.84433e+06 -101753 0 -1.85791e+06 -101155 0 -1.87151e+06 -99921.3 0 -1.88506e+06 -98078.4 0 -1.89848e+06 -95662.3 0 -1.91171e+06 -92714.8 0 -1.92471e+06 -89282.2 0 -1.93742e+06 -85413.2 0 -1.94982e+06 -81156.7 0 -1.96188e+06 -76560.9 0 -1.97358e+06 -71671.5 0 -1.98491e+06 -66531.2 0 -1.99587e+06 -61179.3 0 -2.00645e+06 -55650.9 0 -2.01665e+06 -49977.3 0 -2.02648e+06 -44185.9 0 -2.03594e+06 -38300.4 0 -2.04504e+06 -32341 0 -2.05378e+06 -26324.8 0 -2.06217e+06 -20266.1 0 -2.07023e+06 -14176.8 0 -2.07796e+06 -8066.27 0 -2.08536e+06 -1942.31 0 -2.09244e+06 4189.11 0 -2.09922e+06 10323.4 0 -2.10569e+06 16457.2 0 -2.11186e+06 22588.3 0 -2.11774e+06 28715.1 0 -2.12332e+06 34836.9 0 -2.12863e+06 40953.6 0 -2.13364e+06 47065.6 0 -2.13838e+06 53173.8 0 -2.14284e+06 59279.2 0 -2.14702e+06 65383.2 0 -2.15093e+06 71487.6 0 -2.15456e+06 77593.9 0 -2.15791e+06 83704 0 -2.16099e+06 89819.7 0 -2.16378e+06 95943 0 -2.1663e+06 102076 0 -2.16854e+06 108219 0 -2.17048e+06 114375 0 -2.17214e+06 120545 0 -2.17351e+06 126730 0 -2.17457e+06 132930 0 -2.17533e+06 139145 0 -2.17578e+06 145376 0 -2.17592e+06 151622 0 -2.17572e+06 157880 0 -2.1752e+06 164147 0 -2.17433e+06 170421 0 -2.17311e+06 176697 0 -2.17153e+06 182966 0 -2.16958e+06 189222 0 -2.16725e+06 195454 0 -2.16452e+06 201650 0 -2.16138e+06 207793 0 -2.15783e+06 213866 0 -2.15385e+06 219847 0 -2.14943e+06 225710 0 -2.14456e+06 231427 0 -2.13924e+06 236962 0 -2.13347e+06 242277 0 -2.12724e+06 247330 0 -2.12056e+06 252074 0 -2.11344e+06 256457 0 -2.10591e+06 260425 0 -2.09799e+06 263922 0 -2.08971e+06 266891 0 -2.08113e+06 269277 0 -2.07229e+06 271027 0 -2.06327e+06 272094 0 -2.05413e+06 272440 0 -2.04496e+06 272033 0 -2.03583e+06 270854 0 -2.02684e+06 268894 0 -2.01806e+06 266156 0 -2.00959e+06 262654 0 -2.00148e+06 258411 0 -1.99381e+06 253458 0 -1.98663e+06 247832 0 -1.98e+06 241574 0 -1.97395e+06 234726 0 -1.9685e+06 227330 0 -1.96367e+06 219425 0 -1.95948e+06 211049 0 -1.95593e+06 202232 0 -1.95301e+06 193001 0 -1.95071e+06 183375 0 -1.94901e+06 173365 0 -1.9479e+06 162976 0 -1.94736e+06 152202 0 -1.94736e+06 141028 0 -1.94789e+06 129426 0 -1.94892e+06 117355 0 -1.95044e+06 104755 0 -1.95245e+06 91550.8 0 -1.95499e+06 77635 0 -1.95814e+06 62862.1 0 -1.9621e+06 47040.4 0 -1.96731e+06 30026.7 0 -1.97433e+06 11470.7 0 -1.98517e+06 -9032.49 0 -2.00482e+06 -30235.4 0 -2.04494e+06 -36671.1 0 -2.08145e+06 2.98023e-08 0 -1.67491e+06 0 0 -1.67527e+06 -6526.32 0 -1.67636e+06 -13040.2 0 -1.67817e+06 -19528.7 0 -1.68071e+06 -25977.1 0 -1.68398e+06 -32368.9 0 -1.68798e+06 -38684.8 0 -1.69272e+06 -44902.1 0 -1.69821e+06 -50994.5 0 -1.70445e+06 -56931 0 -1.71143e+06 -62676.7 0 -1.71915e+06 -68191.8 0 -1.7276e+06 -73432.5 0 -1.73676e+06 -78351.4 0 -1.74661e+06 -82898.5 0 -1.75712e+06 -87022.9 0 -1.76823e+06 -90673.8 0 -1.77991e+06 -93803.4 0 -1.79209e+06 -96368.6 0 -1.8047e+06 -98333.1 0 -1.81766e+06 -99669.6 0 -1.83088e+06 -100361 0 -1.8443e+06 -100402 0 -1.85782e+06 -99798 0 -1.87136e+06 -98565.8 0 -1.88484e+06 -96732 0 -1.89821e+06 -94331.3 0 -1.91139e+06 -91405 0 -1.92434e+06 -87998.3 0 -1.93701e+06 -84158.9 0 -1.94938e+06 -79935 0 -1.96141e+06 -75373.9 0 -1.97308e+06 -70520.8 0 -1.98439e+06 -65417.7 0 -1.99533e+06 -60103.3 0 -2.00589e+06 -54612.6 0 -2.01608e+06 -48976.5 0 -2.0259e+06 -43222.1 0 -2.03535e+06 -37373 0 -2.04444e+06 -31449.3 0 -2.05318e+06 -25468.2 0 -2.06157e+06 -19443.7 0 -2.06962e+06 -13387.8 0 -2.07735e+06 -7310.06 0 -2.08475e+06 -1218.11 0 -2.09183e+06 4881.97 0 -2.09861e+06 10985.6 0 -2.10508e+06 17089.2 0 -2.11125e+06 23190.6 0 -2.11713e+06 29288.2 0 -2.12271e+06 35381.3 0 -2.12802e+06 41469.5 0 -2.13303e+06 47553.4 0 -2.13777e+06 53633.6 0 -2.14223e+06 59711.2 0 -2.14641e+06 65787.6 0 -2.15032e+06 71864.3 0 -2.15395e+06 77943 0 -2.1573e+06 84025.4 0 -2.16038e+06 90113.4 0 -2.16317e+06 96208.8 0 -2.16569e+06 102313 0 -2.16792e+06 108428 0 -2.16987e+06 114556 0 -2.17153e+06 120696 0 -2.17289e+06 126851 0 -2.17395e+06 133021 0 -2.17471e+06 139206 0 -2.17516e+06 145406 0 -2.17529e+06 151619 0 -2.1751e+06 157844 0 -2.17457e+06 164078 0 -2.17371e+06 170317 0 -2.17249e+06 176557 0 -2.17091e+06 182790 0 -2.16896e+06 189008 0 -2.16663e+06 195202 0 -2.1639e+06 201357 0 -2.16077e+06 207459 0 -2.15723e+06 213490 0 -2.15326e+06 219428 0 -2.14885e+06 225247 0 -2.144e+06 230918 0 -2.1387e+06 236408 0 -2.13295e+06 241678 0 -2.12675e+06 246686 0 -2.1201e+06 251386 0 -2.11303e+06 255726 0 -2.10554e+06 259654 0 -2.09766e+06 263113 0 -2.08944e+06 266050 0 -2.08092e+06 268408 0 -2.07215e+06 270136 0 -2.0632e+06 271189 0 -2.05413e+06 271527 0 -2.04503e+06 271121 0 -2.03599e+06 269950 0 -2.02707e+06 268008 0 -2.01838e+06 265296 0 -2.00997e+06 261827 0 -2.00194e+06 257624 0 -1.99434e+06 252718 0 -1.98723e+06 247144 0 -1.98065e+06 240942 0 -1.97466e+06 234153 0 -1.96926e+06 226819 0 -1.96449e+06 218977 0 -1.96034e+06 210664 0 -1.95683e+06 201911 0 -1.95395e+06 192742 0 -1.95168e+06 183177 0 -1.95003e+06 173227 0 -1.94896e+06 162896 0 -1.94845e+06 152178 0 -1.9485e+06 141057 0 -1.94907e+06 129506 0 -1.95014e+06 117485 0 -1.95172e+06 104935 0 -1.9538e+06 91781.8 0 -1.95642e+06 77922.5 0 -1.95966e+06 63219.6 0 -1.96374e+06 47500.7 0 -1.96907e+06 30636.5 0 -1.97626e+06 12344.4 0 -1.98728e+06 -7569.47 0 -2.00681e+06 -27388.6 0 -2.04406e+06 -32473.2 0 -2.0754e+06 8.04663e-07 0 -1.67556e+06 0 0 -1.67592e+06 -6454.23 0 -1.67701e+06 -12895.9 0 -1.67881e+06 -19311.8 0 -1.68135e+06 -25687.4 0 -1.68461e+06 -32005.9 0 -1.6886e+06 -38248.1 0 -1.69334e+06 -44391.3 0 -1.69881e+06 -50409.3 0 -1.70503e+06 -56271.5 0 -1.71199e+06 -61943 0 -1.71968e+06 -67384.8 0 -1.7281e+06 -72553.5 0 -1.73723e+06 -77402.4 0 -1.74704e+06 -81882.5 0 -1.7575e+06 -85943.6 0 -1.76857e+06 -89535.9 0 -1.7802e+06 -92612.6 0 -1.79232e+06 -95131.4 0 -1.80486e+06 -97056.9 0 -1.81776e+06 -98362.3 0 -1.83092e+06 -99031 0 -1.84427e+06 -99057.3 0 -1.85773e+06 -98447 0 -1.8712e+06 -97216.3 0 -1.88463e+06 -95391.2 0 -1.89794e+06 -93005.7 0 -1.91108e+06 -90100 0 -1.92398e+06 -86718.7 0 -1.93661e+06 -82908.4 0 -1.94894e+06 -78716.7 0 -1.96094e+06 -74189.9 0 -1.97258e+06 -69372.5 0 -1.