<?xml version="1.0"?> 
<VTKFile type="StructuredGrid" version="0.1"> 
<StructuredGrid WholeExtent="0 15 0 15 0 0"> 
<Piece Extent="0 15 0 15 0 0"> 
<PointData>
<DataArray type="Float32" Name="|E|" format="ascii" NumberOfComponents="3"> 
-1.78814e-07 5.58007e+06 0 2.06637e-09 3.87367e+06 0 5.12227e-08 2.92017e+06 0 -4.56348e-08 2.27994e+06 0 3.49246e-08 1.75669e+06 0 -7.45058e-09 1.29912e+06 0 3.25963e-08 900031 0 -5.58794e-08 573485 0 5.40167e-08 334117 0 -5.40167e-08 179871 0 9.68575e-08 91466.4 0 -1.22935e-07 44917.7 0 1.08033e-07 21676.3 0 -8.56817e-08 10336 0 3.72529e-08 4992.35 0 0 3302.63 0 -415519 4.25423e+06 0 -241128 3.18106e+06 0 -171794 2.49859e+06 0 -144193 1.96425e+06 0 -127499 1.50053e+06 0 -112033 1.08917e+06 0 -92607.7 736450 0 -69019.7 458387 0 -45517.1 263084 0 -26838.1 141411 0 -14568.8 72723.4 0 -7512.46 36455.6 0 -3767.46 18028.2 0 -1857.69 8877.1 0 -896.802 4383.2 0 -139.12 2142.14 0 -536264 3.35073e+06 0 -368220 2.66585e+06 0 -302323 2.13284e+06 0 -266842 1.67078e+06 0 -238347 1.25609e+06 0 -205545 888608 0 -163499 582564 0 -116572 352351 0 -74213.9 198623 0 -43030.6 106447 0 -23401.7 55328.2 0 -12255.7 28288 0 -6286.56 14348.2 0 -3184.11 7257.15 0 -1564.16 3688.71 0 -629.041 1754.49 0 -575610 2.76122e+06 0 -469682 2.2545e+06 0 -414151 1.8036e+06 0 -373401 1.39382e+06 0 -331248 1.02134e+06 0 -276640 697209 0 -210148 439253 0 -143149 256787 0 -88302.9 141974 0 -50600.7 75918.6 0 -27681.2 39919.3 0 -14751.8 20826.4 0 -7747.57 10830.9 0 -4028.27 5630.78 0 -2043.76 2931.31 0 -997.209 1437.26 0 -637861 2.32344e+06 0 -564546 1.89426e+06 0 -512803 1.49705e+06 0 -463773 1.12791e+06 0 -401580 794598 0 -320714 516096 0 -231237 309154 0 -150672 173887 0 -90577.7 94343.7 0 -51628.8 50456.5 0 -28537.8 26884.5 0 -15510.4 14322.7 0 -8349.05 7638 0 -4458.35 4080.38 0 -2342.21 2171.11 0 -1228.2 1102.71 0 -712526 1.94051e+06 0 -652325 1.56227e+06 0 -598679 1.20333e+06 0 -532523 868396 0 -442184 576130 0 -333792 349298 0 -227734 196472 0 -142637 105905 0 -84273.4 56477.4 0 -48140.7 30277.7 0 -27009.2 16366 0 -15005.5 8905.24 0 -8286.76 4869 0 -4548.57 2669.43 0 -2472.2 1450.11 0 -1351.33 759.444 0 -788001 1.58759e+06 0 -732525 1.2444e+06 0 -665145 913611 0 -569033 613336 0 -445150 371179 0 -314933 204189 0 -203787 105821 0 -123890 54211.7 0 -72729.6 28317.6 0 -41959.8 15171.4 0 -23996.5 8294.18 0 -13656.1 4598.17 0 -7744.57 2572.12 0 -4373.05 1442.32 0 -2455.38 795.907 0 -1386.13 424.917 0 -862530 1.24878e+06 0 -796609 926496 0 -696810 622177 0 -559444 368868 0 -406187 191706 0 -268882 89684.5 0 -166708 40223.3 0 -99843.7 18476.2 0 -58935.6 8954.89 0 -34580.3 4576.8 0 -20230.5 2442.34 0 -11813.9 1345.49 0 -6886.43 755.566 0 -4002.42 423.373 0 -2318.54 226.668 0 -1347.61 114.268 0 -925197 903220 0 -822172 597209 0 -670690 336147 0 -494036 153766 0 -330718 53778.1 0 -206937 12062.3 0 -125382 -888.128 0 -75292.2 -3465.75 0 -45163.6 -3142.16 0 -27096.9 -2278.1 0 -16261.4 -1512.41 0 -9758.48 -963.174 0 -5851.18 -603.269 0 -3501.56 -380.427 0 -2090.4 -246.98 0 -1248.82 -161.214 0 -942331 532541 0 -771885 266005 0 -568990 85305.4 0 -379785 -4355.06 0 -236874 -30892.8 0 -143884 -29705.3 0 -87431.2 -21993.7 0 -53456.9 -14927.2 0 -32827 -9746.05 0 -20213.9 -6229.02 0 -12469.3 -3933.6 0 -7697.92 -2469.27 0 -4750.72 -1548.58 0 -2927.52 -975.991 0 -1799.2 -620.751 0 -1102.75 -393.658 0 -853305 152265 0 -617616 -17742.7 0 -403755 -84338.8 0 -247271 -86044 0 -149288 -65185.1 0 -91506.8 -44611.1 0 -56977.2 -29578.3 0 -35781.8 -19335.5 0 -22588.4 -12522.5 0 -14311.1 -8066.02 0 -9087.16 -5181.22 0 -5775.61 -3325.77 0 -3670.07 -2138.02 0 -2328.37 -1380.36 0 -1471.08 -896.004 0 -922.095 -578.755 0 -620728 -153211 0 -387343 -179743 0 -228920 -145295 0 -136665 -100790 0 -84755.5 -67036 0 -53908.1 -44499.2 0 -34652.9 -29505.3 0 -22426.8 -19489.3 0 -14591 -12851 0 -9526.14 -8468.72 0 -6231.63 -5581.76 0 -4079.58 -3682.67 0 -2669.53 -2435.47 0 -1742.62 -1617.36 0 -1129.1 -1079.05 0 -718.216 -715.602 0 -315863 -272722 0 -177220 -192770 0 -105560 -126212 0 -67398.2 -83347.3 0 -44123.6 -56241.2 0 -29085.5 -38081.8 0 -19306.4 -25736.2 0 -12909.2 -17398.4 0 -8668 -11777.5 0 -5836.13 -7978.91 0 -3934.58 -5412.02 0 -2653.68 -3676.96 0 -1787.81 -2505.3 0 -1199.34 -1714.79 0 -792.802 -1180.43 0 -501.496 -807.308 0 -100686 -207474 0 -64313 -130623 0 -43928.2 -88701.1 0 -29697.1 -61927.6 0 -20010.6 -43006.4 0 -13640 -29780.7 0 -9390.56 -20674.5 0 -6492.41 -14393.3 0 -4500.29 -10032.2 0 -3125.08 -7001.39 0 -2171.55 -4893.32 0 -1508.78 -3426.98 0 -1045.82 -2408.1 0 -719.178 -1702.03 0 -479.067 -1214.45 0 -276.351 -865.5 0 -29494.6 -113010 0 -20930.3 -83860.1 0 -13805 -60772.4 0 -9402.91 -43069.3 0 -6656.8 -30585.3 0 -4740.24 -21869.9 0 -3378.27 -15681.4 0 -2410.77 -11255.3 0 -1725.37 -8087.38 0 -1235.18 -5819.3 0 -884.746 -4193.74 0 -632.871 -3029.76 0 -450.77 -2197.79 0 -316.072 -1608.04 0 -205.68 -1199.02 0 -53.2743 -921.466 0 1.01328e-06 -62472.9 0 -9.27248e-08 -48739.2 0 1.72295e-08 -38649.5 0 -6.98492e-09 -28567.8 0 -2.04891e-08 -20832.1 0 -1.30385e-08 -15344.4 0 8.19564e-08 -11349.9 0 -8.9407e-08 -8403.53 0 3.35276e-08 -6225.66 0 -7.07805e-08 -4619.55 0 7.45058e-08 -3434.09 0 -4.47035e-08 -2560.22 0 1.49012e-08 -1919.98 0 -8.19564e-08 -1455.27 0 4.47035e-08 -1148.01 0 -2.38419e-07 -1157.8 0 </DataArray> 
</PointData> 
<Points> 
<DataArray type="Float32" NumberOfComponents="3"> 
0.075 0.021 0 0.0783333 0.021 0 0.0816667 0.021 0 0.085 0.021 0 0.0883333 0.021 0 0.0916667 0.021 0 0.095 0.021 0 0.0983333 0.021 0 0.101667 0.021 0 0.105 0.021 0 0.108333 0.021 0 0.111667 0.021 0 0.115 0.021 0 0.118333 0.021 0 0.121667 0.021 0 0.125 0.021 0 0.0773333 0.0219333 0 0.0805333 0.0219333 0 0.0837333 0.0219333 0 0.0869333 0.0219333 0 0.0901333 0.0219333 0 0.0933333 0.0219333 0 0.0965333 0.0219333 0 0.0997333 0.0219333 0 0.102933 0.0219333 0 0.106133 0.0219333 0 0.109333 0.0219333 0 0.112533 0.0219333 0 0.115733 0.0219333 0 0.118933 0.0219333 0 0.122133 0.0219333 0 0.125333 0.0219333 0 0.0796667 0.0228667 0 0.0827333 0.0228667 0 0.0858 0.0228667 0 0.0888667 0.0228667 0 0.0919333 0.0228667 0 0.095 0.0228667 0 0.0980667 0.0228667 0 0.101133 0.0228667 0 0.1042 0.0228667 0 0.107267 0.0228667 0 0.110333 0.0228667 0 0.1134 0.0228667 0 0.116467 0.0228667 0 0.119533 0.0228667 0 0.1226 0.0228667 0 0.125667 0.0228667 0 0.082 0.0238 0 0.0849333 0.0238 0 0.0878667 0.0238 0 0.0908 0.0238 0 0.0937333 0.0238 0 0.0966667 0.0238 0 0.0996 0.0238 0 0.102533 0.0238 0 0.105467 0.0238 0 0.1084 0.0238 0 0.111333 0.0238 0 0.114267 0.0238 0 0.1172 0.0238 0 0.120133 0.0238 0 0.123067 0.0238 0 0.126 0.0238 0 0.0843333 0.0247333 0 0.0871333 0.0247333 0 0.0899333 0.0247333 0 0.0927333 0.0247333 0 0.0955333 0.0247333 0 0.0983333 0.0247333 0 0.101133 0.0247333 0 0.103933 0.0247333 0 0.106733 0.0247333 0 0.109533 0.0247333 0 0.112333 0.0247333 0 0.115133 0.0247333 0 0.117933 0.0247333 0 0.120733 0.0247333 0 0.123533 0.0247333 0 0.126333 0.0247333 0 0.0866667 0.0256667 0 0.0893333 0.0256667 0 0.092 0.0256667 0 0.0946667 0.0256667 0 0.0973333 0.0256667 0 0.1 0.0256667 0 0.102667 0.0256667 0 0.105333 0.0256667 0 0.108 0.0256667 0 0.110667 0.0256667 0 0.113333 0.0256667 0 0.116 0.0256667 0 0.118667 0.0256667 0 0.121333 0.0256667 0 0.124 0.0256667 0 0.126667 0.0256667 0 0.089 0.0266 0 0.0915333 0.0266 0 0.0940667 0.0266 0 0.0966 0.0266 0 0.0991333 0.0266 0 0.101667 0.0266 0 0.1042 0.0266 0 0.106733 0.0266 0 0.109267 0.0266 0 0.1118 0.0266 0 0.114333 0.0266 0 0.116867 0.0266 0 0.1194 0.0266 0 0.121933 0.0266 0 0.124467 0.0266 0 0.127 0.0266 0 0.0913333 0.0275333 0 0.0937333 0.0275333 0 0.0961333 0.0275333 0 0.0985333 0.0275333 0 0.100933 0.0275333 0 0.103333 0.0275333 0 0.105733 0.0275333 0 0.108133 0.0275333 0 0.110533 0.0275333 0 0.112933 0.0275333 0 0.115333 0.0275333 0 0.117733 0.0275333 0 0.120133 0.0275333 0 0.122533 0.0275333 0 0.124933 0.0275333 0 0.127333 0.0275333 0 0.0936667 0.0284667 0 0.0959333 0.0284667 0 0.0982 0.0284667 0 0.100467 0.0284667 0 0.102733 0.0284667 0 0.105 0.0284667 0 0.107267 0.0284667 0 0.109533 0.0284667 0 0.1118 0.0284667 0 0.114067 0.0284667 0 0.116333 0.0284667 0 0.1186 0.0284667 0 0.120867 0.0284667 0 0.123133 0.0284667 0 0.1254 0.0284667 0 0.127667 0.0284667 0 0.096 0.0294 0 0.0981333 0.0294 0 0.100267 0.0294 0 0.1024 0.0294 0 0.104533 0.0294 0 0.106667 0.0294 0 0.1088 0.0294 0 0.110933 0.0294 0 0.113067 0.0294 0 0.1152 0.0294 0 0.117333 0.0294 0 0.119467 0.0294 0 0.1216 0.0294 0 0.123733 0.0294 0 0.125867 0.0294 0 0.128 0.0294 0 0.0983333 0.0303333 0 0.100333 0.0303333 0 0.102333 0.0303333 0 0.104333 0.0303333 0 0.106333 0.0303333 0 0.108333 0.0303333 0 0.110333 0.0303333 0 0.112333 0.0303333 0 0.114333 0.0303333 0 0.116333 0.0303333 0 0.118333 0.0303333 0 0.120333 0.0303333 0 0.122333 0.0303333 0 0.124333 0.0303333 0 0.126333 0.0303333 0 0.128333 0.0303333 0 0.100667 0.0312667 0 0.102533 0.0312667 0 0.1044 0.0312667 0 0.106267 0.0312667 0 0.108133 0.0312667 0 0.11 0.0312667 0 0.111867 0.0312667 0 0.113733 0.0312667 0 0.1156 0.0312667 0 0.117467 0.0312667 0 0.119333 0.0312667 0 0.1212 0.0312667 0 0.123067 0.0312667 0 0.124933 0.0312667 0 0.1268 0.0312667 0 0.128667 0.0312667 0 0.103 0.0322 0 0.104733 0.0322 0 0.106467 0.0322 0 0.1082 0.0322 0 0.109933 0.0322 0 0.111667 0.0322 0 0.1134 0.0322 0 0.115133 0.0322 0 0.116867 0.0322 0 0.1186 0.0322 0 0.120333 0.0322 0 0.122067 0.0322 0 0.1238 0.0322 0 0.125533 0.0322 0 0.127267 0.0322 0 0.129 0.0322 0 0.105333 0.0331333 0 0.106933 0.0331333 0 0.108533 0.0331333 0 0.110133 0.0331333 0 0.111733 0.0331333 0 0.113333 0.0331333 0 0.114933 0.0331333 0 0.116533 0.0331333 0 0.118133 0.0331333 0 0.119733 0.0331333 0 0.121333 0.0331333 0 0.122933 0.0331333 0 0.124533 0.0331333 0 0.126133 0.0331333 0 0.127733 0.0331333 0 0.129333 0.0331333 0 0.107667 0.0340667 0 0.109133 0.0340667 0 0.1106 0.0340667 0 0.112067 0.0340667 0 0.113533 0.0340667 0 0.115 0.0340667 0 0.116467 0.0340667 0 0.117933 0.0340667 0 0.1194 0.0340667 0 0.120867 0.0340667 0 0.122333 0.0340667 0 0.1238 0.0340667 0 0.125267 0.0340667 0 0.126733 0.0340667 0 0.1282 0.0340667 0 0.129667 0.0340667 0 0.11 0.035 0 0.111333 0.035 0 0.112667 0.035 0 0.114 0.035 0 0.115333 0.035 0 0.116667 0.035 0 0.118 0.035 0 0.119333 0.035 0 0.120667 0.035 0 0.122 0.035 0 0.123333 0.035 0 0.124667 0.035 0 0.126 0.035 0 0.127333 0.035 0 0.128667 0.035 0 0.13 0.035 0 
</DataArray>
</Points> 
</Piece> 
</StructuredGrid> 
</VTKFile> 
