<?xml version="1.0"?> 
<VTKFile type="StructuredGrid" version="0.1"> 
<StructuredGrid WholeExtent="0 15 0 15 0 0"> 
<Piece Extent="0 15 0 15 0 0"> 
<PointData>
<DataArray type="Float32" Name="|E|" format="ascii" NumberOfComponents="3"> 
1.8288e+06 4.7055e+06 0 1.98344e+06 4.6854e+06 0 2.10744e+06 4.61978e+06 0 2.21224e+06 4.53762e+06 0 2.30324e+06 4.44934e+06 0 2.38401e+06 4.3599e+06 0 2.45735e+06 4.27233e+06 0 2.52581e+06 4.18884e+06 0 2.59202e+06 4.11164e+06 0 2.65914e+06 4.04353e+06 0 2.73128e+06 3.98838e+06 0 2.8139e+06 3.95144e+06 0 2.91405e+06 3.93932e+06 0 3.0403e+06 3.95963e+06 0 3.20251e+06 4.02037e+06 0 3.41136e+06 4.1291e+06 0 1.70232e+06 4.43858e+06 0 1.80531e+06 4.35626e+06 0 1.90776e+06 4.25644e+06 0 2.00405e+06 4.14266e+06 0 2.09308e+06 4.02059e+06 0 2.17668e+06 3.89361e+06 0 2.25724e+06 3.76265e+06 0 2.33649e+06 3.62682e+06 0 2.41492e+06 3.48421e+06 0 2.49145e+06 3.33279e+06 0 2.56345e+06 3.17128e+06 0 2.62707e+06 3.00001e+06 0 2.67778e+06 2.82145e+06 0 2.71107e+06 2.64028e+06 0 2.72307e+06 2.46313e+06 0 2.71101e+06 2.29783e+06 0 1.53711e+06 4.26377e+06 0 1.64128e+06 4.13993e+06 0 1.74089e+06 3.9989e+06 0 1.83177e+06 3.84389e+06 0 1.91282e+06 3.67804e+06 0 1.98382e+06 3.50306e+06 0 2.04388e+06 3.31974e+06 0 2.09093e+06 3.12919e+06 0 2.12225e+06 2.93392e+06 0 2.13555e+06 2.73824e+06 0 2.13003e+06 2.54779e+06 0 2.10707e+06 2.36828e+06 0 2.07025e+06 2.20392e+06 0 2.02469e+06 2.05611e+06 0 1.97604e+06 1.92269e+06 0 1.92941e+06 1.79817e+06 0 1.37822e+06 4.12261e+06 0 1.48429e+06 3.96568e+06 0 1.57962e+06 3.79012e+06 0 1.66072e+06 3.59912e+06 0 1.72534e+06 3.39625e+06 0 1.77159e+06 3.18499e+06 0 1.79761e+06 2.96954e+06 0 1.80237e+06 2.75543e+06 0 1.78677e+06 2.54891e+06 0 1.75407e+06 2.35558e+06 0 1.70928e+06 2.17893e+06 0 1.65784e+06 2.01969e+06 0 1.60412e+06 1.87647e+06 0 1.5507e+06 1.7473e+06 0 1.49838e+06 1.63154e+06 0 1.44697e+06 1.53114e+06 0 1.22986e+06 4.00408e+06 0 1.33452e+06 3.82014e+06 0 1.42279e+06 3.61583e+06 0 1.49059e+06 3.39578e+06 0 1.53525e+06 3.16565e+06 0 1.55534e+06 2.93192e+06 0 1.55123e+06 2.70185e+06 0 1.52577e+06 2.48249e+06 0 1.48401e+06 2.27913e+06 0 1.43186e+06 2.09426e+06 0 1.37448e+06 1.92795e+06 0 1.31543e+06 1.7791e+06 0 1.25692e+06 1.64671e+06 0 1.20062e+06 1.53008e+06 0 1.14824e+06 1.42789e+06 0 1.10142e+06 1.33677e+06 0 1.09081e+06 3.90298e+06 0 1.19195e+06 3.69649e+06 0 1.27116e+06 3.46832e+06 0 1.32446e+06 3.2253e+06 0 1.34994e+06 2.97568e+06 0 1.34823e+06 2.72839e+06 0 1.32289e+06 2.49172e+06 0 1.27975e+06 2.2718e+06 0 1.22536e+06 2.07165e+06 0 1.16532e+06 1.89174e+06 0 1.10377e+06 1.73129e+06 0 1.04366e+06 1.58899e+06 0 987229 1.46296e+06 0 935821 1.3506e+06 0 889637 1.24918e+06 0 847871 1.15738e+06 0 960458 3.81624e+06 0 1.05604e+06 3.59047e+06 0 1.12518e+06 3.34209e+06 0 1.16444e+06 3.08043e+06 0 1.17351e+06 2.81614e+06 0 1.15557e+06 2.55951e+06 0 1.11668e+06 2.3186e+06 0 1.0641e+06 2.09805e+06 0 1.00442e+06 1.89938e+06 0 942705 1.72214e+06 0 882598 1.56478e+06 0 826410 1.42501e+06 0 775139 1.30033e+06 0 728798 1.18882e+06 0 687190 1.08958e+06 0 650495 1.00179e+06 0 837583 3.74176e+06 0 926113 3.49891e+06 0 984829 3.23273e+06 0 1.01137e+06 2.95509e+06 0 1.00733e+06 2.6786e+06 0 978164 2.4142e+06 0 931505 2.16926e+06 0 875028 1.94722e+06 0 814984 1.74861e+06 0 755830 1.57213e+06 0 700277 1.41551e+06 0 649539 1.2763e+06 0 603954 1.1525e+06 0 563638 1.04243e+06 0 528540 944143 0 498100 855394 0 721113 3.67792e+06 0 801320 3.41933e+06 0 849719 3.13668e+06 0 865231 2.84441e+06 0 851350 2.55674e+06 0 815209 2.28488e+06 0 765240 2.03551e+06 0 708989 1.81119e+06 0 652066 1.61158e+06 0 597984 1.43474e+06 0 548498 1.27818e+06 0 504284 1.13953e+06 0 465515 1.01657e+06 0 431939 907089 0 402948 809247 0 378069 722064 0 609950 3.62352e+06 0 680787 3.34971e+06 0 719252 3.05107e+06 0 725619 2.74457e+06 0 704985 2.44589e+06 0 665552 2.1664e+06 0 615908 1.91223e+06 0 563037 1.68514e+06 0 511615 1.48411e+06 0 464195 1.30678e+06 0 421881 1.15047e+06 0 384967 1.0125e+06 0 353212 890305 0 326108 781738 0 303238 685069 0 284193 598424 0 503067 3.57757e+06 0 563630 3.28839e+06 0 592765 2.97353e+06 0 591997 2.65259e+06 0 567577 2.34266e+06 0 528134 2.05532e+06 0 481847 1.79618e+06 0 434769 1.56631e+06 0 390527 1.36407e+06 0 350851 1.18667e+06 0 316311 1.03101e+06 0 286797 894042 0 261880 773081 0 241121 665802 0 224037 570061 0 210149 484109 0 399482 3.53929e+06 0 448994 3.23399e+06 0 469611 2.9021e+06 0 463857 2.56609e+06 0 438556 2.24455e+06 0 402090 1.94928e+06 0 361703 1.6854e+06 0 322259 1.4532e+06 0 286348 1.25038e+06 0 254995 1.07354e+06 0 228317 919092 0 205990 783655 0 187584 664245 0 172630 558202 0 160703 463286 0 151513 377585 0 298266 3.50806e+06 0 336061 3.18531e+06 0 349203 2.83513e+06 0 340792 2.48319e+06 0 317502 2.14974e+06 0 286743 1.84677e+06 0 254363 1.57874e+06 0 223899 1.34504e+06 0 196987 1.14249e+06 0 174077 966970 0 155013 814342 0 139427 680817 0 126900 563042 0 117052 458151 0 109597 363693 0 104291 277497 0 198523 3.48335e+06 0 224061 3.14128e+06 0 231042 2.77117e+06 0 222528 2.40239e+06 0 204140 2.05694e+06 0 181563 1.74686e+06 0 158874 1.47564e+06 0 138268 1.24149e+06 0 120577 1.04016e+06 0 105877 866709 0 93926.2 716399 0 84395.9 584987 0 76973.1 468809 0 71414.9 364724 0 67531.7 269996 0 65212 182259 0 99387.1 3.46473e+06 0 112268 3.10096e+06 0 114735 2.70896e+06 0 108930 2.32245e+06 0 98323.8 1.96526e+06 0 86113.8 1.64902e+06 0 74366.4 1.37586e+06 0 64049.3 1.14244e+06 0 55428.7 943276 0 48434.5 772542 0 42884.3 624881 0 38583.5 495629 0 35374.6 380786 0 33138.4 276901 0 31803.1 180971 0 31331.5 90305.3 0 0 3.45184e+06 0 0 3.06343e+06 0 0 2.64735e+06 0 0 2.24243e+06 0 0 1.87412e+06 0 0 1.55309e+06 0 0 1.27943e+06 0 0 1.04794e+06 0 0 851796 0 0 684273 0 0 539439 0 0 412208 0 0 298245 0 0 193773 0 0 95417.4 0 0 66.8428 0 </DataArray> 
</PointData> 
<Points> 
<DataArray type="Float32" NumberOfComponents="3"> 
0.182798 0.0607008 0 0.183647 0.0603559 0 0.184535 0.0599648 0 0.185461 0.0595281 0 0.186417 0.0590471 0 0.187401 0.0585236 0 0.188405 0.0579602 0 0.189424 0.0573598 0 0.190451 0.056726 0 0.191482 0.0560626 0 0.192508 0.055374 0 0.193523 0.0546646 0 0.194522 0.0539393 0 0.1955 0.0532027 0 0.19645 0.0524596 0 0.197368 0.0517145 0 0.183145 0.0641207 0 0.184773 0.0638435 0 0.186456 0.0635183 0 0.188186 0.0631453 0 0.189954 0.0627252 0 0.19175 0.0622595 0 0.193566 0.0617499 0 0.19539 0.061199 0 0.197212 0.0606097 0 0.199022 0.0599854 0 0.200809 0.0593299 0 0.202563 0.0586472 0 0.204275 0.0579417 0 0.205937 0.0572179 0 0.20754 0.0564804 0 0.209077 0.0557336 0 0.183491 0.0675407 0 0.185898 0.0673246 0 0.188371 0.0670594 0 0.190899 0.0667449 0 0.193469 0.0663814 0 0.196071 0.0659699 0 0.198689 0.0655117 0 0.20131 0.0650088 0 0.20392 0.0644637 0 0.206506 0.0638792 0 0.209053 0.0632588 0 0.211549 0.062606 0 0.213981 0.0619248 0 0.216338 0.0612193 0 0.218609 0.0604938 0 0.220786 0.0597526 0 0.183838 0.0709606 0 0.187021 0.0707993 0 0.190279 0.0705883 0 0.193598 0.0703271 0 0.196964 0.0700158 0 0.200362 0.069655 0 0.203774 0.0692457 0 0.207185 0.0687894 0 0.210578 0.0682881 0 0.213935 0.0677444 0 0.217242 0.067161 0 0.220481 0.0665412 0 0.223639 0.0658885 0 0.226702 0.0652067 0 0.229658 0.0644997 0 0.232495 0.0637716 0 0.184185 0.0743806 0 0.188142 0.0742676 0 0.19218 0.0741049 0 0.196284 0.073892 0 0.200438 0.0736287 0 0.204623 0.0733152 0 0.208822 0.0729523 0 0.213015 0.0725412 0 0.217184 0.0720835 0 0.22131 0.0715812 0 0.225375 0.0710368 0 0.229361 0.0704531 0 0.233251 0.0698331 0 0.237031 0.0691804 0 0.240686 0.0684983 0 0.244204 0.0677907 0 0.184532 0.0778005 0 0.18926 0.0777294 0 0.194074 0.0776094 0 0.198958 0.0774398 0 0.203891 0.0772202 0 0.208856 0.0769507 0 0.213833 0.0766319 0 0.218801 0.0762645 0 0.223741 0.07585 0 0.228631 0.0753899 0 0.233453 0.0748864 0 0.238188 0.0743418 0 0.242817 0.0737588 0 0.247324 0.0731403 0 0.251694 0.0724895 0 0.255912 0.0718097 0 0.184879 0.0812205 0 0.190377 0.0811849 0 0.195963 0.0811019 0 0.201618 0.0809705 0 0.207324 0.0807905 0 0.213061 0.0805618 0 0.218808 0.0802846 0 0.224543 0.0799597 0 0.230247 0.079588 0 0.235899 0.0791709 0 0.241477 0.0787101 0 0.246962 0.0782076 0 0.252337 0.0776656 0 0.257582 0.0770866 0 0.262682 0.0764733 0 0.267621 0.0758287 0 0.185225 0.0846404 0 0.191491 0.0846341 0 0.197844 0.0845823 0 0.204266 0.0844843 0 0.210737 0.0843398 0 0.217237 0.0841486 0 0.223746 0.0839108 0 0.230242 0.083627 0 0.236705 0.0832979 0 0.243113 0.0829245 0 0.249447 0.0825082 0 0.255686 0.0820506 0 0.261811 0.0815536 0 0.267804 0.0810193 0 0.273649 0.0804498 0 0.27933 0.0798477 0 0.185572 0.0880604 0 0.192603 0.0880768 0 0.199719 0.0880507 0 0.206901 0.0879813 0 0.21413 0.0878683 0 0.221386 0.0877115 0 0.228649 0.0875108 0 0.235899 0.0872668 0 0.243114 0.0869799 0 0.250276 0.0866509 0 0.257364 0.0862809 0 0.264358 0.0858711 0 0.27124 0.0854231 0 0.277991 0.0849384 0 0.284596 0.084419 0 0.291039 0.0838668 0 0.185919 0.0914803 0 0.193714 0.0915133 0 0.201588 0.0915072 0 0.209524 0.0914617 0 0.217503 0.0913762 0 0.225507 0.0912506 0 0.233516 0.0910849 0 0.241512 0.0908794 0 0.249476 0.0906344 0 0.257387 0.0903505 0 0.265228 0.0900285 0 0.272979 0.0896693 0 0.280623 0.0892741 0 0.288144 0.0888441 0 0.295523 0.0883809 0 0.302747 0.0878858 0 0.186266 0.0949003 0 0.194822 0.0949434 0 0.20345 0.0949519 0 0.212134 0.0949254 0 0.220856 0.0948636 0 0.2296 0.0947662 0 0.238349 0.0946333 0 0.247084 0.094465 0 0.25579 0.0942616 0 0.264447 0.0940235 0 0.273039 0.0937512 0 0.28155 0.0934453 0 0.289963 0.0931068 0 0.298261 0.0927365 0 0.30643 0.0923355 0 0.314456 0.0919048 0 0.186613 0.0983202 0 0.195928 0.0983672 0 0.205306 0.0983849 0 0.214731 0.0983728 0 0.22419 0.0983307 0 0.233667 0.0982586 0 0.243147 0.0981564 0 0.252615 0.0980241 0 0.262057 0.097862 0 0.271456 0.0976702 0 0.2808 0.0974492 0 0.290071 0.0971994 0 0.299258 0.0969213 0 0.308344 0.0966155 0 0.317318 0.0962828 0 0.326165 0.0959239 0 0.18696 0.10174 0 0.197033 0.101785 0 0.207156 0.101806 0 0.217317 0.101804 0 0.227504 0.101778 0 0.237706 0.101728 0 0.24791 0.101654 0 0.258105 0.101557 0 0.268277 0.101436 0 0.278416 0.101291 0 0.288509 0.101123 0 0.298543 0.100932 0 0.308508 0.100718 0 0.318393 0.100481 0 0.328185 0.100223 0 0.337874 0.0999429 0 0.187306 0.10516 0 0.198135 0.105196 0 0.208999 0.105216 0 0.21989 0.105219 0 0.2308 0.105205 0 0.241719 0.105174 0 0.25264 0.105127 0 0.263554 0.105064 0 0.274452 0.104983 0 0.285326 0.104886 0 0.296167 0.104772 0 0.306966 0.104642 0 0.317716 0.104496 0 0.328407 0.104334 0 0.339032 0.104156 0 0.349582 0.103962 0 0.187653 0.10858 0 0.199235 0.108601 0 0.210836 0.108614 0 0.222451 0.108617 0 0.234076 0.108612 0 0.245706 0.108598 0 0.257337 0.108576 0 0.268964 0.108544 0 0.280582 0.108504 0 0.292187 0.108456 0 0.303775 0.108398 0 0.31534 0.108332 0 0.326879 0.108257 0 0.338387 0.108174 0 0.349859 0.108081 0 0.361291 0.107981 0 0.188 0.112 0 0.200333 0.112 0 0.212667 0.112 0 0.225 0.112 0 0.237333 0.112 0 0.249667 0.112 0 0.262 0.112 0 0.274333 0.112 0 0.286667 0.112 0 0.299 0.112 0 0.311333 0.112 0 0.323667 0.112 0 0.336 0.112 0 0.348333 0.112 0 0.360667 0.112 0 0.373 0.112 0 
</DataArray>
</Points> 
</Piece> 
</StructuredGrid> 
</VTKFile> 
