<?xml version="1.0"?> 
<VTKFile type="StructuredGrid" version="0.1"> 
<StructuredGrid WholeExtent="0 15 0 15 0 0"> 
<Piece Extent="0 15 0 15 0 0"> 
<PointData>
<DataArray type="Float32" Name="|E|" format="ascii" NumberOfComponents="3"> 
-516160 -1.93561 0 -557024 -1.95277 0 -603252 -1.86833 0 -655096 -1.65513 0 -712790 -1.28222 0 -776529 -0.720377 0 -846450 0.050251 0 -922602 1.05122 0 -1.00492e+06 2.24194 0 -1.09319e+06 3.6532 0 -1.18703e+06 5.05619 0 -1.28587e+06 6.66181 0 -1.38895e+06 7.70591 0 -1.49531e+06 9.22493 0 -1.60385e+06 9.04764 0 -1.71336e+06 8.71628 0 -513608 38230.2 0 -554342 43463 0 -600443 48955 0 -652168 54696.1 0 -709762 60659.4 0 -773431 66797.2 0 -843325 73036.8 0 -919507 79277.5 0 -1.00193e+06 85388.7 0 -1.09038e+06 91211.3 0 -1.18451e+06 96562.2 0 -1.28373e+06 101245 0 -1.38729e+06 105062 0 -1.49421e+06 107838 0 -1.60337e+06 109431 0 -1.71351e+06 109759 0 -505956 76202 0 -546297 86664 0 -592007 97657.3 0 -643367 109166 0 -700648 121140 0 -764093 133488 0 -833892 146068 0 -910151 158680 0 -992867 171063 0 -1.08188e+06 182893 0 -1.17686e+06 193795 0 -1.27724e+06 203360 0 -1.38224e+06 211177 0 -1.49086e+06 216870 0 -1.60189e+06 220144 0 -1.714e+06 220818 0 -493220 113649 0 -532886 129329 0 -577920 145839 0 -628640 163163 0 -685363 181237 0 -748389 199936 0 -817977 219055 0 -894314 238302 0 -977476 257281 0 -1.06738e+06 275498 0 -1.16376e+06 292364 0 -1.26608e+06 307230 0 -1.37354e+06 319428 0 -1.48508e+06 328344 0 -1.59934e+06 333480 0 -1.71483e+06 334536 0 -475428 150283 0 -514111 171159 0 -558149 193198 0 -607907 216399 0 -663767 240698 0 -726110 265948 0 -795296 291899 0 -871626 318173 0 -955304 344247 0 -1.04638e+06 369442 0 -1.14467e+06 392932 0 -1.24973e+06 413776 0 -1.36074e+06 430987 0 -1.47653e+06 443627 0 -1.59557e+06 450942 0 -1.71607e+06 452454 0 -452631 185794 0 -489988 211817 0 -532661 239384 0 -581072 268523 0 -635683 299189 0 -696980 331238 0 -765453 364394 0 -841564 398217 0 -925700 432065 0 -1.0181e+06 465071 0 -1.11877e+06 496137 0 -1.22736e+06 523966 0 -1.3431e+06 547142 0 -1.46469e+06 564297 0 -1.59031e+06 574265 0 -1.71781e+06 576323 0 -424913 219834 0 -460559 250922 0 -501440 283986 0 -548042 319104 0 -600916 356276 0 -660671 395392 0 -727960 436188 0 -803454 478196 0 -887791 520684 0 -981495 562605 0 -1.08485e+06 602561 0 -1.19776e+06 638807 0 -1.31953e+06 669369 0 -1.44874e+06 692210 0 -1.58321e+06 705610 0 -1.72006e+06 708422 0 -392402 252025 0 -425909 288043 0 -464510 326520 0 -508751 367611 0 -559277 411392 0 -616831 457831 0 -682258 506726 0 -756482 557640 0 -840477 609809 0 -935169 662047 0 -1.0413e+06 712643 0 -1.15917e+06 759334 0 -1.28837e+06 799341 0 -1.42743e+06 829711 0 -1.57361e+06 847674 0 -1.72337e+06 851432 0 -355282 281953 0 -386185 322697 0 -421955 366430 0 -463192 413407 0 -510626 463823 0 -565136 517773 0 -627765 575189 0 -699736 635754 0 -782432 698777 0 -877339 763027 0 -985871 826551 0 -1.10908e+06 886476 0 -1.24715e+06 939034 0 -1.39877e+06 979711 0 -1.56067e+06 1.00423e+06 0 -1.72703e+06 1.00951e+06 0 -313814 309178 0 -341616 354356 0 -373954 403085 0 -411460 455748 0 -454929 512695 0 -505352 574208 0 -563962 640441 0 -632283 711321 0 -712176 786391 0 -805820 864585 0 -915630 943870 0 -1.04388e+06 1.0209e+06 0 -1.19203e+06 1.09054e+06 0 -1.35957e+06 1.14619e+06 0 -1.54239e+06 1.18042e+06 0 -1.73416e+06 1.18768e+06 0 -268345 333245 0 -292537 382463 0 -320811 435803 0 -353799 493794 0 -392321 556979 0 -437433 625886 0 -490503 700984 0 -553321 782593 0 -628202 870729 0 -718141 964806 0 -826809 1.06318e+06 0 -958452 1.16233e+06 0 -1.11698e+06 1.25601e+06 0 -1.30412e+06 1.3342e+06 0 -1.51662e+06 1.38443e+06 0 -1.73994e+06 1.39552e+06 0 -219320 353704 0 -239405 406453 0 -262982 463871 0 -290644 526646 0 -323177 595532 0 -361624 671350 0 -407395 754966 0 -462401 847249 0 -529317 948946 0 -611810 1.06045e+06 0 -715040 1.1812e+06 0 -845782 1.30869e+06 0 -1.0124e+06 1.43626e+06 0 -1.22241e+06 1.55054e+06 0 -1.47503e+06 1.62898e+06 0 -1.76003e+06 1.64683e+06 0 -167285 370132 0 -182808 425786 0 -201098 486593 0 -222661 553397 0 -248179 627165 0 -278584 709019 0 -315162 800269 0 -359769 902431 0 -415059 1.01723e+06 0 -485103 1.14651e+06 0 -575971 1.29188e+06 0 -697308 1.4537e+06 0 -863438 1.62834e+06 0 -1.09384e+06 1.80151e+06 0 -1.40627e+06 1.93694e+06 0 -1.771e+06 1.97378e+06 0 -112887 382160 0 -123467 439982 0 -135969 503341 0 -150763 573210 0 -168358 650742 0 -189452 737330 0 -215062 834698 0 -246634 945001 0 -286464 1.07103e+06 0 -338029 1.21631e+06 0 -407421 1.38559e+06 0 -504912 1.58428e+06 0 -650260 1.81839e+06 0 -880638 2.08467e+06 0 -1.25605e+06 2.34566e+06 0 -1.83628e+06 2.4542e+06 0 -56859.9 389499 0 -62221.7 448662 0 -68568.9 513610 0 -76100.1 585400 0 -85079 665313 0 -95901.3 754937 0 -109087 856278 0 -125522 972018 0 -146390 1.10565e+06 0 -174023 1.2625e+06 0 -211883 1.4495e+06 0 -267750 1.67967e+06 0 -357019 1.96964e+06 0 -520374 2.35825e+06 0 -890389 2.87978e+06 0 -1.81347e+06 3.33085e+06 0 0 391967 0 0 451585 0 0 517071 0 0 589518 0 0 670250 0 0 760908 0 0 863678 0 0 981200 0 0 1.1179e+06 0 0 1.27817e+06 0 0 1.47376e+06 0 0 1.71255e+06 0 0 2.03635e+06 0 0 2.47651e+06 0 0 3.28048e+06 0 0 6.03745e+06 0 </DataArray> 
</PointData> 
<Points> 
<DataArray type="Float32" NumberOfComponents="3"> 
0.006 0 0 0.00666667 0 0 0.00733333 0 0 0.008 0 0 0.00866667 0 0 0.00933333 0 0 0.01 0 0 0.0106667 0 0 0.0113333 0 0 0.012 0 0 0.0126667 0 0 0.0133333 0 0 0.014 0 0 0.0146667 0 0 0.0153333 0 0 0.016 0 0 0.006 0.000666667 0 0.00666667 0.000666667 0 0.00733333 0.000666667 0 0.008 0.000666667 0 0.00866667 0.000666667 0 0.00933333 0.000666667 0 0.01 0.000666667 0 0.0106667 0.000666667 0 0.0113333 0.000666667 0 0.012 0.000666667 0 0.0126667 0.000666667 0 0.0133333 0.000666667 0 0.014 0.000666667 0 0.0146667 0.000666667 0 0.0153333 0.000666667 0 0.016 0.000666667 0 0.006 0.00133333 0 0.00666667 0.00133333 0 0.00733333 0.00133333 0 0.008 0.00133333 0 0.00866667 0.00133333 0 0.00933333 0.00133333 0 0.01 0.00133333 0 0.0106667 0.00133333 0 0.0113333 0.00133333 0 0.012 0.00133333 0 0.0126667 0.00133333 0 0.0133333 0.00133333 0 0.014 0.00133333 0 0.0146667 0.00133333 0 0.0153333 0.00133333 0 0.016 0.00133333 0 0.006 0.002 0 0.00666667 0.002 0 0.00733333 0.002 0 0.008 0.002 0 0.00866667 0.002 0 0.00933333 0.002 0 0.01 0.002 0 0.0106667 0.002 0 0.0113333 0.002 0 0.012 0.002 0 0.0126667 0.002 0 0.0133333 0.002 0 0.014 0.002 0 0.0146667 0.002 0 0.0153333 0.002 0 0.016 0.002 0 0.006 0.00266667 0 0.00666667 0.00266667 0 0.00733333 0.00266667 0 0.008 0.00266667 0 0.00866667 0.00266667 0 0.00933333 0.00266667 0 0.01 0.00266667 0 0.0106667 0.00266667 0 0.0113333 0.00266667 0 0.012 0.00266667 0 0.0126667 0.00266667 0 0.0133333 0.00266667 0 0.014 0.00266667 0 0.0146667 0.00266667 0 0.0153333 0.00266667 0 0.016 0.00266667 0 0.006 0.00333333 0 0.00666667 0.00333333 0 0.00733333 0.00333333 0 0.008 0.00333333 0 0.00866667 0.00333333 0 0.00933333 0.00333333 0 0.01 0.00333333 0 0.0106667 0.00333333 0 0.0113333 0.00333333 0 0.012 0.00333333 0 0.0126667 0.00333333 0 0.0133333 0.00333333 0 0.014 0.00333333 0 0.0146667 0.00333333 0 0.0153333 0.00333333 0 0.016 0.00333333 0 0.006 0.004 0 0.00666667 0.004 0 0.00733333 0.004 0 0.008 0.004 0 0.00866667 0.004 0 0.00933333 0.004 0 0.01 0.004 0 0.0106667 0.004 0 0.0113333 0.004 0 0.012 0.004 0 0.0126667 0.004 0 0.0133333 0.004 0 0.014 0.004 0 0.0146667 0.004 0 0.0153333 0.004 0 0.016 0.004 0 0.006 0.00466667 0 0.00666667 0.00466667 0 0.00733333 0.00466667 0 0.008 0.00466667 0 0.00866667 0.00466667 0 0.00933333 0.00466667 0 0.01 0.00466667 0 0.0106667 0.00466667 0 0.0113333 0.00466667 0 0.012 0.00466667 0 0.0126667 0.00466667 0 0.0133333 0.00466667 0 0.014 0.00466667 0 0.0146667 0.00466667 0 0.0153333 0.00466667 0 0.016 0.00466667 0 0.006 0.00533333 0 0.00666667 0.00533333 0 0.00733333 0.00533333 0 0.008 0.00533333 0 0.00866667 0.00533333 0 0.00933333 0.00533333 0 0.01 0.00533333 0 0.0106667 0.00533333 0 0.0113333 0.00533333 0 0.012 0.00533333 0 0.0126667 0.00533333 0 0.0133333 0.00533333 0 0.014 0.00533333 0 0.0146667 0.00533333 0 0.0153333 0.00533333 0 0.016 0.00533333 0 0.006 0.006 0 0.00666667 0.006 0 0.00733333 0.006 0 0.008 0.006 0 0.00866667 0.006 0 0.00933333 0.006 0 0.01 0.006 0 0.0106667 0.006 0 0.0113333 0.006 0 0.012 0.006 0 0.0126667 0.006 0 0.0133333 0.006 0 0.014 0.006 0 0.0146667 0.006 0 0.0153333 0.006 0 0.016 0.006 0 0.006 0.00666667 0 0.00666667 0.00666667 0 0.00733333 0.00666667 0 0.008 0.00666667 0 0.00866667 0.00666667 0 0.00933333 0.00666667 0 0.01 0.00666667 0 0.0106667 0.00666667 0 0.0113333 0.00666667 0 0.012 0.00666667 0 0.0126667 0.00666667 0 0.0133333 0.00666667 0 0.014 0.00666667 0 0.0146667 0.00666667 0 0.0153333 0.00666667 0 0.016 0.00666667 0 0.006 0.00733333 0 0.00666667 0.00733333 0 0.00733333 0.00733333 0 0.008 0.00733333 0 0.00866667 0.00733333 0 0.00933333 0.00733333 0 0.01 0.00733333 0 0.0106667 0.00733333 0 0.0113333 0.00733333 0 0.012 0.00733333 0 0.0126667 0.00733333 0 0.0133333 0.00733333 0 0.014 0.00733333 0 0.0146667 0.00733333 0 0.0153333 0.00733333 0 0.016 0.00733333 0 0.006 0.008 0 0.00666667 0.008 0 0.00733333 0.008 0 0.008 0.008 0 0.00866667 0.008 0 0.00933333 0.008 0 0.01 0.008 0 0.0106667 0.008 0 0.0113333 0.008 0 0.012 0.008 0 0.0126667 0.008 0 0.0133333 0.008 0 0.014 0.008 0 0.0146667 0.008 0 0.0153333 0.008 0 0.016 0.008 0 0.006 0.00866667 0 0.00666667 0.00866667 0 0.00733333 0.00866667 0 0.008 0.00866667 0 0.00866667 0.00866667 0 0.00933333 0.00866667 0 0.01 0.00866667 0 0.0106667 0.00866667 0 0.0113333 0.00866667 0 0.012 0.00866667 0 0.0126667 0.00866667 0 0.0133333 0.00866667 0 0.014 0.00866667 0 0.0146667 0.00866667 0 0.0153333 0.00866667 0 0.016 0.00866667 0 0.006 0.00933333 0 0.00666667 0.00933333 0 0.00733333 0.00933333 0 0.008 0.00933333 0 0.00866667 0.00933333 0 0.00933333 0.00933333 0 0.01 0.00933333 0 0.0106667 0.00933333 0 0.0113333 0.00933333 0 0.012 0.00933333 0 0.0126667 0.00933333 0 0.0133333 0.00933333 0 0.014 0.00933333 0 0.0146667 0.00933333 0 0.0153333 0.00933333 0 0.016 0.00933333 0 0.006 0.01 0 0.00666667 0.01 0 0.00733333 0.01 0 0.008 0.01 0 0.00866667 0.01 0 0.00933333 0.01 0 0.01 0.01 0 0.0106667 0.01 0 0.0113333 0.01 0 0.012 0.01 0 0.0126667 0.01 0 0.0133333 0.01 0 0.014 0.01 0 0.0146667 0.01 0 0.0153333 0.01 0 0.016 0.01 0 
</DataArray>
</Points> 
</Piece> 
</StructuredGrid> 
</VTKFile> 
