<?xml version="1.0"?> 
<VTKFile type="StructuredGrid" version="0.1"> 
<StructuredGrid WholeExtent="0 15 0 15 0 0"> 
<Piece Extent="0 15 0 15 0 0"> 
<PointData>
<DataArray type="Float32" Name="|E|" format="ascii" NumberOfComponents="3"> 
3.66685e+06 -1.51886e+06 0 2.79213e+06 418999 0 2.13385e+06 684095 0 1.73611e+06 694866 0 1.45138e+06 649530 0 1.23207e+06 579398 0 1.05792e+06 504085 0 915678 430403 0 799829 361102 0 705400 297297 0 629701 238808 0 570353 185099 0 525783 135321 0 494757 88540.8 0 476465 43767 0 470422 0 0 4.05738e+06 -1.27875e+06 0 2.79785e+06 531512 0 2.11875e+06 751291 0 1.71167e+06 742534 0 1.42399e+06 688896 0 1.20373e+06 612514 0 1.02989e+06 533524 0 888746 456553 0 774403 384433 0 681627 317815 0 607521 256467 0 549545 199743 0 505993 146746 0 475515 96487.7 0 457186 47926.2 0 450408 0 0 4.40181e+06 -957891 0 2.80008e+06 645373 0 2.10294e+06 818382 0 1.68744e+06 791137 0 1.39674e+06 728813 0 1.17561e+06 646203 0 1.00183e+06 563284 0 861627 482817 0 748514 407681 0 657137 338093 0 584349 273781 0 527482 213991 0 484693 157780 0 454521 104109 0 435932 51887.8 0 428216 0 0 4.69049e+06 -567374 0 2.7998e+06 760485 0 2.08678e+06 885368 0 1.66359e+06 840859 0 1.36975e+06 769265 0 1.14776e+06 680533 0 973774 593378 0 834320 509234 0 722157 430877 0 631929 358170 0 560195 290788 0 504189 227879 0 461924 168457 0 431838 111432 0 412784 55668.4 0 403944 0 0 4.91515e+06 -121101 0 2.79795e+06 876930 0 2.07057e+06 952397 0 1.64024e+06 891828 0 1.34319e+06 810281 0 1.12018e+06 715572 0 945759 623834 0 806821 535853 0 695338 454061 0 606010 378088 0 535078 307528 0 479702 241446 0 437743 178810 0 407539 118482 0 387834 59283.8 0 377702 0 0 5.06987e+06 364731 0 2.79534e+06 994899 0 2.0546e+06 1.01977e+06 0 1.61749e+06 944094 0 1.31718e+06 851944 0 1.0929e+06 751372 0 917828 654696 0 779133 562720 0 668074 477277 0 579396 397893 0 509033 324042 0 454070 254730 0 412216 188871 0 381712 125285 0 361188 62747.6 0 349611 0 0 5.15168e+06 872545 0 2.79255e+06 1.11465e+06 0 2.03908e+06 1.08791e+06 0 1.59544e+06 997632 0 1.29185e+06 894392 0 1.06595e+06 787966 0 890025 686027 0 751265 589883 0 640389 500572 0 552112 417627 0 482101 340371 0 427352 267764 0 385423 198669 0 354455 131860 0 332962 66071.9 0 319800 0 0 5.16089e+06 1.38454e+06 0 2.78982e+06 1.23644e+06 0 2.02417e+06 1.1573e+06 0 1.5742e+06 1.05237e+06 0 1.26729e+06 937795 0 1.03936e+06 825374 0 862391 717903 0 723234 617388 0 612313 523998 0 524193 437335 0 454335 356551 0 399615 280581 0 357452 208228 0 325876 138226 0 303282 69266.2 0 288410 0 0 5.10091e+06 1.88386e+06 0 2.78707e+06 1.36056e+06 0 2.00996e+06 1.22843e+06 0 1.55388e+06 1.10823e+06 0 1.24357e+06 982334 0 1.01318e+06 863611 0 834961 750406 0 695068 645280 0 583881 547609 0 495679 457055 0 425793 372620 0 370938 293208 0 328403 217569 0 296094 144396 0 272284 72337.2 0 255592 0 0 4.97789e+06 2.35564e+06 0 2.78388e+06 1.48718e+06 0 1.99651e+06 1.30172e+06 0 1.53463e+06 1.16518e+06 0 1.2207e+06 1.02817e+06 0 987480 902704 0 807760 783617 0 666805 673606 0 555127 571455 0 466622 476829 0 396542 388610 0 341405 305669 0 298381 226708 0 265235 150381 0 240114 75289.2 0 221503 0 0 4.79994e+06 2.78773e+06 0 2.77961e+06 1.61644e+06 0 1.98382e+06 1.37744e+06 0 1.51656e+06 1.22322e+06 0 1.1987e+06 1.07542e+06 0 962335 942694 0 780810 817609 0 638493 702414 0 526090 595588 0 437077 496693 0 366649 404548 0 311107 317983 0 267497 235657 0 233432 156183 0 206923 78123.2 0 186310 0 0 4.57639e+06 3.17102e+06 0 2.77339e+06 1.74829e+06 0 1.97188e+06 1.45576e+06 0 1.49977e+06 1.28244e+06 0 1.17759e+06 1.12415e+06 0 937825 983645 0 754133 852442 0 610183 731761 0 496809 620052 0 407105 516681 0 336189 420460 0 280139 330163 0 235869 244421 0 200824 161805 0 172869 80837 0 150185 0 0 4.31692e+06 3.49939e+06 0 2.76432e+06 1.88252e+06 0 1.96068e+06 1.53668e+06 0 1.48432e+06 1.343e+06 0 1.15737e+06 1.17438e+06 0 914020 1.02564e+06 0 727755 888163 0 581927 761701 0 467325 644889 0 376766 536826 0 305234 436365 0 248596 342219 0 203613 253000 0 167553 167241 0 138116 83425.3 0 113309 0 0 4.03087e+06 3.76936e+06 0 2.75153e+06 2.01871e+06 0 1.95016e+06 1.62013e+06 0 1.47021e+06 1.40505e+06 0 1.13808e+06 1.22609e+06 0 890984 1.06876e+06 0 701708 924809 0 553778 792294 0 437683 670137 0 346122 557158 0 273859 452277 0 216577 354154 0 170850 261390 0 133762 172481 0 102829 85879.7 0 75865.1 0 0 3.72665e+06 3.97939e+06 0 2.73432e+06 2.15621e+06 0 1.94026e+06 1.70594e+06 0 1.45742e+06 1.46876e+06 0 1.11975e+06 1.27926e+06 0 868766 1.11309e+06 0 676032 962413 0 525788 823594 0 407925 695830 0 315237 577704 0 242135 468208 0 184176 365968 0 137698 269580 0 99594.1 177511 0 67174.4 88188.5 0 38040 0 0 3.41136e+06 4.1291e+06 0 2.71229e+06 2.29411e+06 0 1.93086e+06 1.79394e+06 0 1.4459e+06 1.53423e+06 0 1.10242e+06 1.33386e+06 0 847415 1.15871e+06 0 650764 1.00101e+06 0 498010 855657 0 378091 721999 0 284170 598491 0 210130 484165 0 151488 377658 0 104271 277555 0 65192.5 182315 0 31320.8 90336.4 0 22.9438 0 0 </DataArray> 
</PointData> 
<Points> 
<DataArray type="Float32" NumberOfComponents="3"> 
0.2018 0.0378 0 0.213213 0.0378 0 0.224627 0.0378 0 0.23604 0.0378 0 0.247453 0.0378 0 0.258867 0.0378 0 0.27028 0.0378 0 0.281693 0.0378 0 0.293107 0.0378 0 0.30452 0.0378 0 0.315933 0.0378 0 0.327347 0.0378 0 0.33876 0.0378 0 0.350173 0.0378 0 0.361587 0.0378 0 0.373 0.0378 0 0.202135 0.0387203 0 0.213674 0.0389923 0 0.225191 0.0392636 0 0.236687 0.0395345 0 0.248162 0.0398049 0 0.259616 0.0400748 0 0.271048 0.0403442 0 0.28246 0.0406131 0 0.29385 0.0408815 0 0.30522 0.0411495 0 0.316568 0.0414169 0 0.327896 0.0416838 0 0.339203 0.0419503 0 0.350489 0.0422162 0 0.361755 0.0424817 0 0.373 0.0427467 0 0.202387 0.0396658 0 0.214038 0.040214 0 0.225649 0.0407603 0 0.237219 0.0413047 0 0.24875 0.0418472 0 0.26024 0.0423879 0 0.271691 0.0429267 0 0.283103 0.0434636 0 0.294475 0.0439987 0 0.305808 0.0445319 0 0.317103 0.0450633 0 0.328359 0.0455929 0 0.339576 0.0461207 0 0.350755 0.0466467 0 0.361897 0.0471709 0 0.373 0.0476933 0 0.20255 0.0406316 0 0.2143 0.0414594 0 0.225993 0.0422832 0 0.23763 0.043103 0 0.24921 0.0439188 0 0.260735 0.0447307 0 0.272204 0.0455388 0 0.283618 0.0463429 0 0.294978 0.0471432 0 0.306283 0.0479397 0 0.317535 0.0487324 0 0.328733 0.0495213 0 0.339879 0.0503065 0 0.350971 0.051088 0 0.362012 0.0518658 0 0.373 0.05264 0 0.202621 0.0416123 0 0.214456 0.0427219 0 0.22622 0.0438248 0 0.237914 0.0449212 0 0.249539 0.0460111 0 0.261094 0.0470946 0 0.272582 0.0481717 0 0.284002 0.0492424 0 0.295355 0.0503068 0 0.306642 0.051365 0 0.317863 0.0524171 0 0.329018 0.053463 0 0.340109 0.0545029 0 0.351136 0.0555368 0 0.3621 0.0565647 0 0.373 0.0575867 0 0.202598 0.0426023 0 0.214502 0.0439947 0 0.226325 0.0453775 0 0.238068 0.046751 0 0.249731 0.0481152 0 0.261316 0.0494702 0 0.272822 0.0508161 0 0.284252 0.0521529 0 0.295605 0.0534808 0 0.306882 0.0547999 0 0.318085 0.0561102 0 0.329213 0.0574118 0 0.340268 0.0587048 0 0.35125 0.0599894 0 0.362161 0.0612655 0 0.373 0.0625333 0 0.202478 0.0435956 0 0.214437 0.0452706 0 0.226307 0.0469332 0 0.23809 0.0485835 0 0.249786 0.0502218 0 0.261396 0.0518481 0 0.272923 0.0534625 0 0.284365 0.0550652 0 0.295725 0.0566563 0 0.307003 0.058236 0 0.3182 0.0598043 0 0.329317 0.0613614 0 0.340354 0.0629074 0 0.351313 0.0644424 0 0.362195 0.0659666 0 0.373 0.06748 0 0.202262 0.0445861 0 0.214258 0.0465422 0 0.226163 0.0484834 0 0.237977 0.0504097 0 0.2497 0.0523214 0 0.261335 0.0542185 0 0.272881 0.0561013 0 0.284341 0.0579699 0 0.295714 0.0598244 0 0.307003 0.0616652 0 0.318207 0.0634921 0 0.329328 0.0653056 0 0.340367 0.0671056 0 0.351325 0.0688924 0 0.362202 0.070666 0 0.373 0.0724267 0 0.201949 0.0455675 0 0.213968 0.0478023 0 0.225894 0.05002 0 0.237729 0.0522206 0 0.249474 0.0544045 0 0.26113 0.0565719 0 0.272698 0.0587228 0 0.284178 0.0608575 0 0.295573 0.0629762 0 0.306882 0.0650791 0 0.318107 0.0671663 0 0.329248 0.069238 0 0.340308 0.0712944 0 0.351285 0.0733356 0 0.362183 0.0753619 0 0.373 0.0773733 0 0.201542 0.0465339 0 0.213567 0.0490435 0 0.225502 0.0515346 0 0.237349 0.0540074 0 0.24911 0.056462 0 0.260784 0.0588986 0 0.272373 0.0613175 0 0.283879 0.0637189 0 0.295301 0.0661029 0 0.306641 0.0684697 0 0.317899 0.0708195 0 0.329077 0.0731525 0 0.340175 0.0754689 0 0.351194 0.0777688 0 0.362136 0.0800525 0 0.373 0.08232 0 0.201045 0.0474793 0 0.213058 0.0502588 0 0.224988 0.0530194 0 0.236838 0.0557613 0 0.248608 0.0584845 0 0.260298 0.0611894 0 0.271909 0.0638761 0 0.283443 0.0665447 0 0.294899 0.0691956 0 0.306279 0.0718287 0 0.317584 0.0744444 0 0.328814 0.0770428 0 0.33997 0.0796241 0 0.351052 0.0821883 0 0.362062 0.0847358 0 0.373 0.0872667 0 0.20046 0.0483982 0 0.212445 0.0514416 0 0.224358 0.0544669 0 0.2362 0.0574741 0 0.247972 0.0604636 0 0.259675 0.0634353 0 0.271308 0.0663895 0 0.282873 0.0693263 0 0.29437 0.0722459 0 0.3058 0.0751484 0 0.317163 0.078034 0 0.32846 0.0809029 0 0.339692 0.0837551 0 0.350859 0.0865908 0 0.361961 0.0894102 0 0.373 0.0922133 0 0.199794 0.0492854 0 0.211734 0.0525857 0 0.223616 0.0558699 0 0.235441 0.0591383 0 0.247208 0.0623909 0 0.258919 0.0656278 0 0.270574 0.0688492 0 0.282173 0.0720551 0 0.293716 0.0752457 0 0.305204 0.0784211 0 0.316638 0.0815814 0 0.328017 0.0847267 0 0.339343 0.0878571 0 0.350615 0.0909727 0 0.361834 0.0940737 0 0.373 0.09716 0 0.199052 0.0501365 0 0.210931 0.0536855 0 0.222769 0.0572222 0 0.234565 0.0607467 0 0.246321 0.0642589 0 0.258036 0.0677591 0 0.269711 0.0712471 0 0.281346 0.0747232 0 0.29294 0.0781873 0 0.304495 0.0816395 0 0.31601 0.0850799 0 0.327486 0.0885085 0 0.338923 0.0919255 0 0.350321 0.0953308 0 0.36168 0.0987245 0 0.373 0.102107 0 0.198241 0.0509473 0 0.210043 0.0547362 0 0.221823 0.0585181 0 0.233581 0.062293 0 0.245317 0.0660609 0 0.257032 0.0698218 0 0.268725 0.0735759 0 0.280396 0.077323 0 0.292046 0.0810632 0 0.303675 0.0847966 0 0.315282 0.0885231 0 0.326868 0.0922427 0 0.338433 0.0959556 0 0.349976 0.0996616 0 0.361499 0.103361 0 0.373 0.107053 0 0.197368 0.0517145 0 0.209077 0.0557336 0 0.220786 0.0597526 0 0.232495 0.0637716 0 0.244204 0.0677907 0 0.255912 0.0718097 0 0.267621 0.0758287 0 0.27933 0.0798477 0 0.291039 0.0838668 0 0.302747 0.0878858 0 0.314456 0.0919048 0 0.326165 0.0959239 0 0.337874 0.0999429 0 0.349582 0.103962 0 0.361291 0.107981 0 0.373 0.112 0 
</DataArray>
</Points> 
</Piece> 
</StructuredGrid> 
</VTKFile> 
