<?xml version="1.0"?> 
<VTKFile type="StructuredGrid" version="0.1"> 
<StructuredGrid WholeExtent="0 15 0 15 0 0"> 
<Piece Extent="0 15 0 15 0 0"> 
<PointData>
<DataArray type="Float32" Name="|E|" format="ascii" NumberOfComponents="3"> 
1.71329e+06 -683390 0 1.98037e+06 -274564 0 1.96639e+06 66784 0 1.7898e+06 239559 0 1.57931e+06 297215 0 1.37782e+06 297406 0 1.19797e+06 272833 0 1.0423e+06 239048 0 910532 203161 0 801071 168279 0 712152 135527 0 641995 105129 0 589080 76854.4 0 552173 50268.5 0 530387 24841.2 0 523186 0 0 1.76423e+06 -703709 0 2.02697e+06 -270206 0 1.98764e+06 89771.4 0 1.79335e+06 263843 0 1.57514e+06 319038 0 1.37099e+06 316131 0 1.19075e+06 288844 0 1.03558e+06 252573 0 904629 214464 0 796014 177567 0 707861 142984 0 638339 110909 0 585916 81081.5 0 549356 53035.1 0 527777 26209 0 520645 0 0 1.81699e+06 -724753 0 2.07581e+06 -262360 0 2.00878e+06 115478 0 1.7963e+06 289278 0 1.5705e+06 341284 0 1.36382e+06 334933 0 1.18324e+06 304818 0 1.02863e+06 266006 0 898514 225671 0 790765 186765 0 703393 150367 0 634518 116631 0 582597 85265.4 0 546392 55773.5 0 525023 27563.1 0 517961 0 0 1.87212e+06 -746745 0 2.12702e+06 -250628 0 2.02958e+06 143959 0 1.79854e+06 315833 0 1.56533e+06 363922 0 1.35629e+06 353796 0 1.17545e+06 320746 0 1.02143e+06 279344 0 892186 236780 0 785325 195872 0 698750 157674 0 630534 122292 0 579125 89405.3 0 543280 58483.2 0 522126 28902.9 0 515134 0 0 1.93033e+06 -769965 0 2.18068e+06 -234509 0 2.04974e+06 175234 0 1.79997e+06 343475 0 1.55959e+06 386914 0 1.34838e+06 372706 0 1.16735e+06 336620 0 1.014e+06 292581 0 885645 247788 0 779696 204885 0 693931 164903 0 626388 127892 0 575499 93500.3 0 540022 61163.6 0 519086 30228.2 0 512167 0 0 1.99253e+06 -794772 0 2.23684e+06 -213388 0 2.06893e+06 209278 0 1.80048e+06 372172 0 1.55323e+06 410209 0 1.34007e+06 391651 0 1.15895e+06 352430 0 1.00632e+06 305712 0 878889 258693 0 773877 213803 0 688938 172052 0 622081 133429 0 571720 97549.3 0 536617 63814 0 515904 31538.7 0 509058 0 0 2.0599e+06 -821647 0 2.29545e+06 -186537 0 2.08682e+06 246003 0 1.79998e+06 401899 0 1.54623e+06 433745 0 1.33136e+06 410622 0 1.15024e+06 368162 0 998401 318736 0 871918 269489 0 767871 222623 0 683771 179121 0 617613 138903 0 567790 101552 0 533068 66433.9 0 512581 32834 0 505810 0 0 2.13411e+06 -851246 0 2.35637e+06 -153119 0 2.10302e+06 285261 0 1.79838e+06 432636 0 1.53853e+06 457446 0 1.32224e+06 429617 0 1.1412e+06 383797 0 990239 331649 0 864732 280173 0 761678 231344 0 678431 186108 0 612987 144312 0 563710 105506 0 529375 69022.6 0 509117 34114 0 502423 0 0 2.21745e+06 -884488 0 2.41926e+06 -112202 0 2.11713e+06 326833 0 1.79558e+06 464371 0 1.53013e+06 481217 0 1.31268e+06 448641 0 1.13185e+06 399313 0 981832 344451 0 857331 290740 0 755299 239964 0 672920 193010 0 608202 149654 0 559480 109412 0 525539 71579.7 0 505514 35378.2 0 498897 0 0 2.31322e+06 -922689 0 2.48354e+06 -62814.6 0 2.12878e+06 370451 0 1.7915e+06 497089 0 1.52101e+06 504955 0 1.30267e+06 467706 0 1.12218e+06 414684 0 973176 357145 0 849718 301181 0 748734 248482 0 667238 199825 0 603261 154930 0 555101 113269 0 521561 74104.4 0 501772 36626.5 0 495233 0 0 2.42624e+06 -967769 0 2.54825e+06 -4040.23 0 2.13758e+06 415847 0 1.78608e+06 530744 0 1.51117e+06 528561 0 1.29218e+06 486822 0 1.1122e+06 429878 0 964264 369735 0 841896 311489 0 741983 256898 0 661387 206551 0 598163 160136 0 550574 117075 0 517442 76596.1 0 497892 37858.8 0 491433 0 0 2.5636e+06 -1.02256e+06 0 2.61191e+06 64796.1 0 2.14324e+06 462859 0 1.77921e+06 565191 0 1.50062e+06 551975 0 1.28119e+06 505985 0 1.10192e+06 444871 0 955087 382223 0 833872 321657 0 735044 265211 0 655371 213186 0 592910 165274 0 545902 120830 0 513182 79054 0 493876 39074.7 0 487497 0 0 2.73589e+06 -1.09128e+06 0 2.67229e+06 143809 0 2.14557e+06 511643 0 1.77083e+06 600065 0 1.48938e+06 575247 0 1.26967e+06 525136 0 1.09137e+06 459663 0 945634 394601 0 825655 331680 0 727913 273419 0 649194 219727 0 587500 170340 0 541085 124533 0 508782 81477.4 0 489724 40274.4 0 483427 0 0 2.95905e+06 -1.1803e+06 0 2.72606e+06 232005 0 2.14456e+06 563059 0 1.76085e+06 634532 0 1.47748e+06 598687 0 1.2576e+06 544085 0 1.08054e+06 474318 0 935896 406832 0 817250 341567 0 720590 281515 0 642858 226176 0 581936 175334 0 536127 128184 0 504244 83865.9 0 485438 41457.3 0 479224 0 0 3.25717e+06 -1.29921e+06 0 2.76836e+06 326355 0 2.14046e+06 619361 0 1.74925e+06 666849 0 1.46487e+06 623124 0 1.24502e+06 562358 0 1.06943e+06 489040 0 925888 418810 0 808654 351356 0 713078 289482 0 636363 232533 0 576217 180254 0 531026 131781 0 499568 86219.8 0 481018 42622.2 0 474889 0 0 3.66685e+06 -1.46262e+06 0 2.79213e+06 420494 0 2.13385e+06 685244 0 1.73611e+06 693662 0 1.45138e+06 650352 0 1.23207e+06 578947 0 1.05792e+06 504320 0 915678 430293 0 799829 361148 0 705400 297276 0 629701 238812 0 570353 185097 0 525783 135320 0 494757 88541.8 0 476465 43765.7 0 470422 0 0 </DataArray> 
</PointData> 
<Points> 
<DataArray type="Float32" NumberOfComponents="3"> 
0.1947 0.02 0 0.206587 0.02 0 0.218473 0.02 0 0.23036 0.02 0 0.242247 0.02 0 0.254133 0.02 0 0.26602 0.02 0 0.277907 0.02 0 0.289793 0.02 0 0.30168 0.02 0 0.313567 0.02 0 0.325453 0.02 0 0.33734 0.02 0 0.349227 0.02 0 0.361113 0.02 0 0.373 0.02 0 0.195173 0.0211867 0 0.207028 0.0211867 0 0.218884 0.0211867 0 0.230739 0.0211867 0 0.242594 0.0211867 0 0.254449 0.0211867 0 0.266304 0.0211867 0 0.278159 0.0211867 0 0.290014 0.0211867 0 0.301869 0.0211867 0 0.313724 0.0211867 0 0.32558 0.0211867 0 0.337435 0.0211867 0 0.34929 0.0211867 0 0.361145 0.0211867 0 0.373 0.0211867 0 0.195647 0.0223733 0 0.20747 0.0223733 0 0.219294 0.0223733 0 0.231117 0.0223733 0 0.242941 0.0223733 0 0.254764 0.0223733 0 0.266588 0.0223733 0 0.278412 0.0223733 0 0.290235 0.0223733 0 0.302059 0.0223733 0 0.313882 0.0223733 0 0.325706 0.0223733 0 0.337529 0.0223733 0 0.349353 0.0223733 0 0.361176 0.0223733 0 0.373 0.0223733 0 0.19612 0.02356 0 0.207912 0.02356 0 0.219704 0.02356 0 0.231496 0.02356 0 0.243288 0.02356 0 0.25508 0.02356 0 0.266872 0.02356 0 0.278664 0.02356 0 0.290456 0.02356 0 0.302248 0.02356 0 0.31404 0.02356 0 0.325832 0.02356 0 0.337624 0.02356 0 0.349416 0.02356 0 0.361208 0.02356 0 0.373 0.02356 0 0.196593 0.0247467 0 0.208354 0.0247467 0 0.220114 0.0247467 0 0.231875 0.0247467 0 0.243635 0.0247467 0 0.255396 0.0247467 0 0.267156 0.0247467 0 0.278916 0.0247467 0 0.290677 0.0247467 0 0.302437 0.0247467 0 0.314198 0.0247467 0 0.325958 0.0247467 0 0.337719 0.0247467 0 0.349479 0.0247467 0 0.36124 0.0247467 0 0.373 0.0247467 0 0.197067 0.0259333 0 0.208796 0.0259333 0 0.220524 0.0259333 0 0.232253 0.0259333 0 0.243982 0.0259333 0 0.255711 0.0259333 0 0.26744 0.0259333 0 0.279169 0.0259333 0 0.290898 0.0259333 0 0.302627 0.0259333 0 0.314356 0.0259333 0 0.326084 0.0259333 0 0.337813 0.0259333 0 0.349542 0.0259333 0 0.361271 0.0259333 0 0.373 0.0259333 0 0.19754 0.02712 0 0.209237 0.02712 0 0.220935 0.02712 0 0.232632 0.02712 0 0.244329 0.02712 0 0.256027 0.02712 0 0.267724 0.02712 0 0.279421 0.02712 0 0.291119 0.02712 0 0.302816 0.02712 0 0.314513 0.02712 0 0.326211 0.02712 0 0.337908 0.02712 0 0.349605 0.02712 0 0.361303 0.02712 0 0.373 0.02712 0 0.198013 0.0283067 0 0.209679 0.0283067 0 0.221345 0.0283067 0 0.233011 0.0283067 0 0.244676 0.0283067 0 0.256342 0.0283067 0 0.268008 0.0283067 0 0.279674 0.0283067 0 0.29134 0.0283067 0 0.303005 0.0283067 0 0.314671 0.0283067 0 0.326337 0.0283067 0 0.338003 0.0283067 0 0.349668 0.0283067 0 0.361334 0.0283067 0 0.373 0.0283067 0 0.198487 0.0294933 0 0.210121 0.0294933 0 0.221755 0.0294933 0 0.233389 0.0294933 0 0.245024 0.0294933 0 0.256658 0.0294933 0 0.268292 0.0294933 0 0.279926 0.0294933 0 0.29156 0.0294933 0 0.303195 0.0294933 0 0.314829 0.0294933 0 0.326463 0.0294933 0 0.338097 0.0294933 0 0.349732 0.0294933 0 0.361366 0.0294933 0 0.373 0.0294933 0 0.19896 0.03068 0 0.210563 0.03068 0 0.222165 0.03068 0 0.233768 0.03068 0 0.245371 0.03068 0 0.256973 0.03068 0 0.268576 0.03068 0 0.280179 0.03068 0 0.291781 0.03068 0 0.303384 0.03068 0 0.314987 0.03068 0 0.326589 0.03068 0 0.338192 0.03068 0 0.349795 0.03068 0 0.361397 0.03068 0 0.373 0.03068 0 0.199433 0.0318667 0 0.211004 0.0318667 0 0.222576 0.0318667 0 0.234147 0.0318667 0 0.245718 0.0318667 0 0.257289 0.0318667 0 0.26886 0.0318667 0 0.280431 0.0318667 0 0.292002 0.0318667 0 0.303573 0.0318667 0 0.315144 0.0318667 0 0.326716 0.0318667 0 0.338287 0.0318667 0 0.349858 0.0318667 0 0.361429 0.0318667 0 0.373 0.0318667 0 0.199907 0.0330533 0 0.211446 0.0330533 0 0.222986 0.0330533 0 0.234525 0.0330533 0 0.246065 0.0330533 0 0.257604 0.0330533 0 0.269144 0.0330533 0 0.280684 0.0330533 0 0.292223 0.0330533 0 0.303763 0.0330533 0 0.315302 0.0330533 0 0.326842 0.0330533 0 0.338381 0.0330533 0 0.349921 0.0330533 0 0.36146 0.0330533 0 0.373 0.0330533 0 0.20038 0.03424 0 0.211888 0.03424 0 0.223396 0.03424 0 0.234904 0.03424 0 0.246412 0.03424 0 0.25792 0.03424 0 0.269428 0.03424 0 0.280936 0.03424 0 0.292444 0.03424 0 0.303952 0.03424 0 0.31546 0.03424 0 0.326968 0.03424 0 0.338476 0.03424 0 0.349984 0.03424 0 0.361492 0.03424 0 0.373 0.03424 0 0.200853 0.0354267 0 0.21233 0.0354267 0 0.223806 0.0354267 0 0.235283 0.0354267 0 0.246759 0.0354267 0 0.258236 0.0354267 0 0.269712 0.0354267 0 0.281188 0.0354267 0 0.292665 0.0354267 0 0.304141 0.0354267 0 0.315618 0.0354267 0 0.327094 0.0354267 0 0.338571 0.0354267 0 0.350047 0.0354267 0 0.361524 0.0354267 0 0.373 0.0354267 0 0.201327 0.0366133 0 0.212772 0.0366133 0 0.224216 0.0366133 0 0.235661 0.0366133 0 0.247106 0.0366133 0 0.258551 0.0366133 0 0.269996 0.0366133 0 0.281441 0.0366133 0 0.292886 0.0366133 0 0.304331 0.0366133 0 0.315776 0.0366133 0 0.32722 0.0366133 0 0.338665 0.0366133 0 0.35011 0.0366133 0 0.361555 0.0366133 0 0.373 0.0366133 0 0.2018 0.0378 0 0.213213 0.0378 0 0.224627 0.0378 0 0.23604 0.0378 0 0.247453 0.0378 0 0.258867 0.0378 0 0.27028 0.0378 0 0.281693 0.0378 0 0.293107 0.0378 0 0.30452 0.0378 0 0.315933 0.0378 0 0.327347 0.0378 0 0.33876 0.0378 0 0.350173 0.0378 0 0.361587 0.0378 0 0.373 0.0378 0 
</DataArray>
</Points> 
</Piece> 
</StructuredGrid> 
</VTKFile> 
