<?xml version="1.0"?> 
<VTKFile type="StructuredGrid" version="0.1"> 
<StructuredGrid WholeExtent="0 15 0 15 0 0"> 
<Piece Extent="0 15 0 15 0 0"> 
<PointData>
<DataArray type="Float32" Name="|E|" format="ascii" NumberOfComponents="3"> 
1.35645e+06 2.38419e-06 0 1.59375e+06 -0.0119481 0 1.74523e+06 -0.0144867 0 1.72295e+06 0.0255174 0 1.59743e+06 0.000590404 0 1.43088e+06 0.00727891 0 1.25969e+06 -3.77651e-05 0 1.10141e+06 0.00125257 0 962756 -0.000269264 0 845613 -4.2649e-05 0 749561 -0.00024878 0 673436 -0.000201942 0 615880 -0.000163017 0 575696 -0.000124444 0 551963 -5.20651e-05 0 544118 0 0 1.35605e+06 -3.10363e-07 0 1.59381e+06 -6545.22 0 1.7453e+06 -1523.83 0 1.72298e+06 2370.69 0 1.59744e+06 4215.89 0 1.43088e+06 4733.22 0 1.25968e+06 4550.56 0 1.1014e+06 4073.51 0 962748 3496.06 0 845605 2908.15 0 749554 2345.9 0 673429 1820.27 0 615874 1330.38 0 575690 869.846 0 551958 429.708 0 544112 0 0 1.35484e+06 7.35745e-08 0 1.594e+06 -13092 0 1.7455e+06 -3049.59 0 1.7231e+06 4744.76 0 1.59749e+06 8431.85 0 1.43089e+06 9467.41 0 1.25967e+06 9101.11 0 1.10138e+06 8147.19 0 962724 6992.08 0 845581 5816.3 0 749531 4691.77 0 673409 3640.52 0 615854 2660.73 0 575671 1739.68 0 551940 859.409 0 544095 0 0 1.35282e+06 1.52737e-07 0 1.59431e+06 -19641.6 0 1.74583e+06 -4579.27 0 1.72329e+06 7125.58 0 1.59756e+06 12647.9 0 1.43089e+06 14203.5 0 1.25964e+06 13651.6 0 1.10134e+06 12221.2 0 962683 10488 0 845542 8724.43 0 749494 7037.57 0 673374 5460.71 0 615822 3991.05 0 575641 2609.47 0 551910 1289.1 0 544066 0 0 1.34997e+06 -1.9744e-07 0 1.59475e+06 -26195.3 0 1.74629e+06 -6115.01 0 1.72356e+06 9516.66 0 1.59766e+06 16864.1 0 1.4309e+06 18942.6 0 1.2596e+06 18202.1 0 1.10129e+06 16295.7 0 962627 13983.9 0 845487 11632.6 0 749442 9383.27 0 673326 7280.83 0 615777 5321.3 0 575598 3479.22 0 551869 1718.76 0 544025 0 0 1.34628e+06 2.01166e-07 0 1.59533e+06 -32753.8 0 1.74688e+06 -7659.14 0 1.7239e+06 11921.6 0 1.59779e+06 21080.3 0 1.43091e+06 23685.5 0 1.25956e+06 22752.5 0 1.10122e+06 20370.9 0 962554 17479.6 0 845416 14540.7 0 749375 11728.8 0 673263 9100.84 0 615719 6651.46 0 575543 4348.9 0 551816 2148.4 0 543972 0 0 1.3417e+06 3.57628e-07 0 1.59604e+06 -39317.4 0 1.7476e+06 -9214.3 0 1.72432e+06 14344.2 0 1.59795e+06 25296.5 0 1.43092e+06 28433.5 0 1.2595e+06 27302.8 0 1.10114e+06 24447 0 962465 20975 0 845329 17448.7 0 749293 14074.2 0 673187 10920.7 0 615647 7981.52 0 575475 5218.5 0 551750 2578.01 0 543908 0 0 1.33621e+06 -6.4075e-07 0 1.5969e+06 -45885.7 0 1.74846e+06 -10783.5 0 1.72482e+06 16788.4 0 1.59814e+06 29512.2 0 1.43093e+06 33187.7 0 1.25944e+06 31852.8 0 1.10104e+06 28524.2 0 962360 24470.3 0 845226 20356.8 0 749197 16419.5 0 673097 12740.4 0 615563 9311.45 0 575396 6088 0 551674 3007.58 0 543832 0 0 1.32978e+06 4.32134e-07 0 1.59792e+06 -52457.6 0 1.74944e+06 -12370.1 0 1.72539e+06 19258.6 0 1.59836e+06 33727.1 0 1.43095e+06 37949.2 0 1.25936e+06 36402.4 0 1.10093e+06 32602.6 0 962239 27965.2 0 845107 23264.9 0 749085 18764.4 0 672993 14560 0 615466 10641.2 0 575304 6957.39 0 551585 3437.1 0 543744 0 0 1.32234e+06 -3.42727e-07 0 1.59909e+06 -59030.9 0 1.75056e+06 -13978.2 0 1.72603e+06 21759.3 0 1.5986e+06 37940.5 0 1.43096e+06 42719.4 0 1.25927e+06 40951.4 0 1.1008e+06 36682.6 0 962102 31459.7 0 844972 26172.9 0 748959 21109.1 0 672875 16379.3 0 615356 11970.9 0 575199 7826.63 0 551484 3866.58 0 543645 0 0 1.31384e+06 1.19209e-07 0 1.60045e+06 -65602.3 0 1.7518e+06 -15612.4 0 1.72676e+06 24295.5 0 1.59888e+06 42151.7 0 1.43098e+06 47499.7 0 1.25918e+06 45499.6 0 1.10066e+06 40764.5 0 961949 34953.7 0 844822 29081 0 748818 23453.5 0 672744 18198.4 0 615233 13300.3 0 575083 8695.73 0 551372 4296 0 543534 0 0 1.30422e+06 -2.38419e-07 0 1.60199e+06 -72167.4 0 1.75317e+06 -17278 0 1.72756e+06 26872.8 0 1.59918e+06 46359.6 0 1.431e+06 52291.6 0 1.25907e+06 50046.7 0 1.1005e+06 44848.4 0 961780 38447.2 0 844655 31989 0 748662 25797.5 0 672598 20017.2 0 615097 14629.5 0 574954 9564.65 0 551248 4725.36 0 543411 0 0 1.2934e+06 2.68221e-07 0 1.60373e+06 -78719.9 0 1.75467e+06 -18981.4 0 1.72843e+06 29497.1 0 1.59952e+06 50562.8 0 1.43101e+06 57096.7 0 1.25896e+06 54592.3 0 1.10032e+06 48934.9 0 961595 41940 0 844473 34897.2 0 748491 28141.2 0 672438 21835.7 0 614949 15958.5 0 574813 10433.4 0 551111 5154.65 0 543277 0 0 1.2813e+06 -8.9407e-08 0 1.6057e+06 -85252 0 1.75629e+06 -20729.9 0 1.72938e+06 32175 0 1.59989e+06 54759.7 0 1.43103e+06 61917.1 0 1.25883e+06 59136 0 1.10013e+06 53024.1 0 961395 45432 0 844274 37805.4 0 748305 30484.4 0 672265 23653.9 0 614787 17287.3 0 574660 11301.9 0 550964 5583.89 0 543131 0 0 1.26782e+06 -3.57628e-07 0 1.6079e+06 -91753.8 0 1.75804e+06 -22532 0 1.7304e+06 34913.9 0 1.60028e+06 58948.1 0 1.43104e+06 66754.6 0 1.2587e+06 63677.1 0 1.09992e+06 57116.6 0 961179 48923 0 844059 40713.6 0 748105 32827.1 0 672078 25471.8 0 614612 18615.8 0 574494 12170.2 0 550804 6013.05 0 542973 0 0 1.25286e+06 1.43051e-06 0 1.61036e+06 -98213.1 0 1.75991e+06 -24397.4 0 1.7315e+06 37721.8 0 1.60071e+06 63125.6 0 1.43106e+06 71611.6 0 1.25856e+06 68215.1 0 1.0997e+06 61212.7 0 960947 52413 0 843828 43622.1 0 747891 35169.4 0 671876 27289.3 0 614425 19944 0 574317 13038.2 0 550632 6442.15 0 542804 0 0 </DataArray> 
</PointData> 
<Points> 
<DataArray type="Float32" NumberOfComponents="3"> 
0.19 0 0 0.2022 0 0 0.2144 0 0 0.2266 0 0 0.2388 0 0 0.251 0 0 0.2632 0 0 0.2754 0 0 0.2876 0 0 0.2998 0 0 0.312 0 0 0.3242 0 0 0.3364 0 0 0.3486 0 0 0.3608 0 0 0.373 0 0 0.19 0.000333333 0 0.2022 0.000333333 0 0.2144 0.000333333 0 0.2266 0.000333333 0 0.2388 0.000333333 0 0.251 0.000333333 0 0.2632 0.000333333 0 0.2754 0.000333333 0 0.2876 0.000333333 0 0.2998 0.000333333 0 0.312 0.000333333 0 0.3242 0.000333333 0 0.3364 0.000333333 0 0.3486 0.000333333 0 0.3608 0.000333333 0 0.373 0.000333333 0 0.19 0.000666667 0 0.2022 0.000666667 0 0.2144 0.000666667 0 0.2266 0.000666667 0 0.2388 0.000666667 0 0.251 0.000666667 0 0.2632 0.000666667 0 0.2754 0.000666667 0 0.2876 0.000666667 0 0.2998 0.000666667 0 0.312 0.000666667 0 0.3242 0.000666667 0 0.3364 0.000666667 0 0.3486 0.000666667 0 0.3608 0.000666667 0 0.373 0.000666667 0 0.19 0.001 0 0.2022 0.001 0 0.2144 0.001 0 0.2266 0.001 0 0.2388 0.001 0 0.251 0.001 0 0.2632 0.001 0 0.2754 0.001 0 0.2876 0.001 0 0.2998 0.001 0 0.312 0.001 0 0.3242 0.001 0 0.3364 0.001 0 0.3486 0.001 0 0.3608 0.001 0 0.373 0.001 0 0.19 0.00133333 0 0.2022 0.00133333 0 0.2144 0.00133333 0 0.2266 0.00133333 0 0.2388 0.00133333 0 0.251 0.00133333 0 0.2632 0.00133333 0 0.2754 0.00133333 0 0.2876 0.00133333 0 0.2998 0.00133333 0 0.312 0.00133333 0 0.3242 0.00133333 0 0.3364 0.00133333 0 0.3486 0.00133333 0 0.3608 0.00133333 0 0.373 0.00133333 0 0.19 0.00166667 0 0.2022 0.00166667 0 0.2144 0.00166667 0 0.2266 0.00166667 0 0.2388 0.00166667 0 0.251 0.00166667 0 0.2632 0.00166667 0 0.2754 0.00166667 0 0.2876 0.00166667 0 0.2998 0.00166667 0 0.312 0.00166667 0 0.3242 0.00166667 0 0.3364 0.00166667 0 0.3486 0.00166667 0 0.3608 0.00166667 0 0.373 0.00166667 0 0.19 0.002 0 0.2022 0.002 0 0.2144 0.002 0 0.2266 0.002 0 0.2388 0.002 0 0.251 0.002 0 0.2632 0.002 0 0.2754 0.002 0 0.2876 0.002 0 0.2998 0.002 0 0.312 0.002 0 0.3242 0.002 0 0.3364 0.002 0 0.3486 0.002 0 0.3608 0.002 0 0.373 0.002 0 0.19 0.00233333 0 0.2022 0.00233333 0 0.2144 0.00233333 0 0.2266 0.00233333 0 0.2388 0.00233333 0 0.251 0.00233333 0 0.2632 0.00233333 0 0.2754 0.00233333 0 0.2876 0.00233333 0 0.2998 0.00233333 0 0.312 0.00233333 0 0.3242 0.00233333 0 0.3364 0.00233333 0 0.3486 0.00233333 0 0.3608 0.00233333 0 0.373 0.00233333 0 0.19 0.00266667 0 0.2022 0.00266667 0 0.2144 0.00266667 0 0.2266 0.00266667 0 0.2388 0.00266667 0 0.251 0.00266667 0 0.2632 0.00266667 0 0.2754 0.00266667 0 0.2876 0.00266667 0 0.2998 0.00266667 0 0.312 0.00266667 0 0.3242 0.00266667 0 0.3364 0.00266667 0 0.3486 0.00266667 0 0.3608 0.00266667 0 0.373 0.00266667 0 0.19 0.003 0 0.2022 0.003 0 0.2144 0.003 0 0.2266 0.003 0 0.2388 0.003 0 0.251 0.003 0 0.2632 0.003 0 0.2754 0.003 0 0.2876 0.003 0 0.2998 0.003 0 0.312 0.003 0 0.3242 0.003 0 0.3364 0.003 0 0.3486 0.003 0 0.3608 0.003 0 0.373 0.003 0 0.19 0.00333333 0 0.2022 0.00333333 0 0.2144 0.00333333 0 0.2266 0.00333333 0 0.2388 0.00333333 0 0.251 0.00333333 0 0.2632 0.00333333 0 0.2754 0.00333333 0 0.2876 0.00333333 0 0.2998 0.00333333 0 0.312 0.00333333 0 0.3242 0.00333333 0 0.3364 0.00333333 0 0.3486 0.00333333 0 0.3608 0.00333333 0 0.373 0.00333333 0 0.19 0.00366667 0 0.2022 0.00366667 0 0.2144 0.00366667 0 0.2266 0.00366667 0 0.2388 0.00366667 0 0.251 0.00366667 0 0.2632 0.00366667 0 0.2754 0.00366667 0 0.2876 0.00366667 0 0.2998 0.00366667 0 0.312 0.00366667 0 0.3242 0.00366667 0 0.3364 0.00366667 0 0.3486 0.00366667 0 0.3608 0.00366667 0 0.373 0.00366667 0 0.19 0.004 0 0.2022 0.004 0 0.2144 0.004 0 0.2266 0.004 0 0.2388 0.004 0 0.251 0.004 0 0.2632 0.004 0 0.2754 0.004 0 0.2876 0.004 0 0.2998 0.004 0 0.312 0.004 0 0.3242 0.004 0 0.3364 0.004 0 0.3486 0.004 0 0.3608 0.004 0 0.373 0.004 0 0.19 0.00433333 0 0.2022 0.00433333 0 0.2144 0.00433333 0 0.2266 0.00433333 0 0.2388 0.00433333 0 0.251 0.00433333 0 0.2632 0.00433333 0 0.2754 0.00433333 0 0.2876 0.00433333 0 0.2998 0.00433333 0 0.312 0.00433333 0 0.3242 0.00433333 0 0.3364 0.00433333 0 0.3486 0.00433333 0 0.3608 0.00433333 0 0.373 0.00433333 0 0.19 0.00466667 0 0.2022 0.00466667 0 0.2144 0.00466667 0 0.2266 0.00466667 0 0.2388 0.00466667 0 0.251 0.00466667 0 0.2632 0.00466667 0 0.2754 0.00466667 0 0.2876 0.00466667 0 0.2998 0.00466667 0 0.312 0.00466667 0 0.3242 0.00466667 0 0.3364 0.00466667 0 0.3486 0.00466667 0 0.3608 0.00466667 0 0.373 0.00466667 0 0.19 0.005 0 0.2022 0.005 0 0.2144 0.005 0 0.2266 0.005 0 0.2388 0.005 0 0.251 0.005 0 0.2632 0.005 0 0.2754 0.005 0 0.2876 0.005 0 0.2998 0.005 0 0.312 0.005 0 0.3242 0.005 0 0.3364 0.005 0 0.3486 0.005 0 0.3608 0.005 0 0.373 0.005 0 
</DataArray>
</Points> 
</Piece> 
</StructuredGrid> 
</VTKFile> 
