<?xml version="1.0"?> 
<VTKFile type="StructuredGrid" version="0.1"> 
<StructuredGrid WholeExtent="0 15 0 15 0 0"> 
<Piece Extent="0 15 0 15 0 0"> 
<PointData>
<DataArray type="Float32" Name="|E|" format="ascii" NumberOfComponents="3"> 
-1.71092e+06 8.71628 0 -2.3147e+06 2.62746 0 -2.73838e+06 -2.45344 0 -2.98427e+06 -2.4389 0 -3.118e+06 -1.51862 0 -3.19256e+06 -0.83807 0 -3.23956e+06 -0.447235 0 -3.27624e+06 -0.228409 0 -3.31172e+06 -0.100115 0 -3.35039e+06 -0.0110589 0 -3.39376e+06 0.0713001 0 -3.44103e+06 0.163818 0 -3.48905e+06 0.257858 0 -3.53216e+06 0.301665 0 -3.56282e+06 0.216927 0 -3.57407e+06 3.21865e-06 0 -1.71101e+06 109759 0 -2.31749e+06 89149.2 0 -2.741e+06 54945.7 0 -2.98585e+06 30269.4 0 -3.11882e+06 16426.4 0 -3.19294e+06 9621.44 0 -3.23969e+06 6726.05 0 -3.27625e+06 5929.64 0 -3.31167e+06 6202.58 0 -3.35032e+06 6945.2 0 -3.39371e+06 7739.99 0 -3.44102e+06 8206.02 0 -3.48912e+06 7924.1 0 -3.53234e+06 6483.32 0 -3.56311e+06 3712.07 0 -3.5744e+06 -3.64031e-07 0 -1.71128e+06 220818 0 -2.32597e+06 178641 0 -2.74886e+06 109555 0 -2.99059e+06 60220.8 0 -3.12128e+06 32652 0 -3.19407e+06 19134.1 0 -3.24011e+06 13393.2 0 -3.27629e+06 11829.6 0 -3.31152e+06 12392 0 -3.35011e+06 13889 0 -3.39353e+06 15489.3 0 -3.44098e+06 16433.6 0 -3.48932e+06 15882.2 0 -3.53288e+06 13006.5 0 -3.56396e+06 7452.89 0 -3.57539e+06 9.49949e-08 0 -1.71174e+06 334536 0 -2.34043e+06 268792 0 -2.76204e+06 163474 0 -2.99847e+06 89536 0 -3.12534e+06 48478.8 0 -3.19594e+06 28431.2 0 -3.24078e+06 19943.5 0 -3.27634e+06 17670.8 0 -3.31126e+06 18555.3 0 -3.34975e+06 20830 0 -3.39323e+06 23257.2 0 -3.4409e+06 24704 0 -3.48966e+06 23908.1 0 -3.53377e+06 19609.6 0 -3.5654e+06 11251.6 0 -3.57705e+06 1.76951e-08 0 -1.71241e+06 452454 0 -2.36137e+06 359875 0 -2.7806e+06 216309 0 -3.00942e+06 117892 0 -3.13096e+06 63709.9 0 -3.19851e+06 37407.8 0 -3.2417e+06 26320 0 -3.2764e+06 23424.7 0 -3.3109e+06 24679.7 0 -3.34924e+06 27766.8 0 -3.3928e+06 31052.8 0 -3.44079e+06 33038.6 0 -3.49012e+06 32036.2 0 -3.53503e+06 26334 0 -3.56741e+06 15138.5 0 -3.5794e+06 -9.31323e-09 0 -1.7133e+06 576323 0 -2.38955e+06 452064 0 -2.80466e+06 267616 0 -3.02338e+06 144959 0 -3.13808e+06 78154.2 0 -3.20175e+06 45961.8 0 -3.24284e+06 32467.7 0 -3.27645e+06 29063.7 0 -3.31042e+06 30752.8 0 -3.34859e+06 34698.3 0 -3.39224e+06 38885.2 0 -3.44063e+06 41458.8 0 -3.4907e+06 40301.5 0 -3.53664e+06 33222.4 0 -3.57003e+06 19145.8 0 -3.58245e+06 -7.45058e-09 0 -1.71447e+06 708422 0 -2.42599e+06 545389 0 -2.8343e+06 316880 0 -3.04022e+06 170400 0 -3.14659e+06 91627.4 0 -3.20562e+06 53995.6 0 -3.24419e+06 38334.2 0 -3.27649e+06 34561.6 0 -3.30981e+06 36762.9 0 -3.34776e+06 41623.2 0 -3.39154e+06 46763 0 -3.44042e+06 49985.6 0 -3.4914e+06 48739.3 0 -3.53861e+06 40319.8 0 -3.57326e+06 23308.2 0 -3.58623e+06 1.86265e-08 0 -1.71601e+06 851432 0 -2.4721e+06 639609 0 -2.86959e+06 363533 0 -3.05982e+06 193857 0 -3.15641e+06 103962 0 -3.21005e+06 61412.4 0 -3.24569e+06 43872.2 0 -3.27649e+06 39892.9 0 -3.30906e+06 42699.2 0 -3.34677e+06 48540.3 0 -3.39069e+06 54695 0 -3.44014e+06 58639.9 0 -3.4922e+06 57386 0 -3.54094e+06 47673.8 0 -3.57712e+06 27663.5 0 -3.59078e+06 7.45058e-09 0 -1.71827e+06 1.00951e+06 0 -2.52969e+06 734093 0 -2.91053e+06 406939 0 -3.082e+06 214955 0 -3.16739e+06 115011 0 -3.21496e+06 68117.8 0 -3.24731e+06 49039.6 0 -3.27643e+06 45033.3 0 -3.30816e+06 48551.8 0 -3.34559e+06 55448.3 0 -3.38968e+06 62689.2 0 -3.43978e+06 67442.2 0 -3.49308e+06 66278.6 0 -3.54363e+06 55335.4 0 -3.58165e+06 32253.8 0 -3.59614e+06 8.9407e-08 0 -1.7219e+06 1.18768e+06 0 -2.60109e+06 827511 0 -2.95694e+06 446502 0 -3.10653e+06 233251 0 -3.17941e+06 124676 0 -3.22029e+06 74005.5 0 -3.24902e+06 53808.2 0 -3.27628e+06 49956.4 0 -3.30709e+06 54313.7 0 -3.34422e+06 62345.4 0 -3.38848e+06 70753.7 0 -3.43931e+06 76412.8 0 -3.49403e+06 75455.1 0 -3.54668e+06 63359.5 0 -3.58687e+06 37126.6 0 -3.60236e+06 -2.45869e-07 0 -1.72961e+06 1.39552e+06 0 -2.68916e+06 917609 0 -3.00848e+06 481627 0 -3.13313e+06 248264 0 -3.19232e+06 132907 0 -3.22593e+06 78962.1 0 -3.25076e+06 58161.5 0 -3.27603e+06 54634.4 0 -3.30584e+06 59980.2 0 -3.34264e+06 69229.3 0 -3.38709e+06 78895.9 0 -3.43873e+06 85570.8 0 -3.49503e+06 84954.2 0 -3.55007e+06 71805.9 0 -3.59281e+06 42335.8 0 -3.60949e+06 1.78814e-07 0 -1.74698e+06 1.64683e+06 0 -2.79732e+06 1.00062e+06 0 -3.06448e+06 511949 0 -3.16148e+06 259373 0 -3.20596e+06 139759 0 -3.23175e+06 82836.2 0 -3.25252e+06 62112.2 0 -3.27562e+06 59031.2 0 -3.30439e+06 65552.4 0 -3.34083e+06 76095.7 0 -3.3855e+06 87123.4 0 -3.438e+06 94934.9 0 -3.49605e+06 94815.2 0 -3.55381e+06 80739.8 0 -3.59952e+06 47943.6 0 -3.61762e+06 1.49012e-08 0 -1.79509e+06 1.97378e+06 0 -2.92861e+06 1.07134e+06 0 -3.12399e+06 536862 0 -3.19118e+06 266123 0 -3.22022e+06 145256 0 -3.2376e+06 85506.1 0 -3.25427e+06 65672.5 0 -3.27499e+06 63114.8 0 -3.30275e+06 71032.6 0 -3.33877e+06 82940.6 0 -3.38368e+06 95442.5 0 -3.43711e+06 104523 0 -3.49707e+06 105078 0 -3.55788e+06 90232.8 0 -3.60705e+06 54022.2 0 -3.62684e+06 -2.38419e-07 0 -1.92844e+06 2.4542e+06 0 -3.08396e+06 1.1243e+06 0 -3.18584e+06 554019 0 -3.22177e+06 269119 0 -3.23498e+06 148937 0 -3.2433e+06 87101.2 0 -3.25601e+06 68751.5 0 -3.27409e+06 66902.7 0 -3.30091e+06 76405.2 0 -3.33643e+06 89766.9 0 -3.38162e+06 103857 0 -3.43601e+06 114351 0 -3.49805e+06 115782 0 -3.56226e+06 100363 0 -3.61544e+06 60657.1 0 -3.63725e+06 1.93715e-07 0 -2.35328e+06 3.33085e+06 0 -3.25161e+06 1.16231e+06 0 -3.24984e+06 551398 0 -3.2528e+06 274603 0 -3.24988e+06 147480 0 -3.24886e+06 89184.8 0 -3.2576e+06 70593.8 0 -3.27294e+06 70715.8 0 -3.29882e+06 81530.3 0 -3.3338e+06 96624.4 0 -3.37931e+06 112354 0 -3.43468e+06 124436 0 -3.49895e+06 126969 0 -3.56694e+06 111214 0 -3.62475e+06 67952.9 0 -3.64898e+06 -3.27826e-07 0 -3.91759e+06 6.03745e+06 0 -3.3642e+06 1.26064e+06 0 -3.32207e+06 448184 0 -3.28435e+06 328038 0 -3.26297e+06 117138 0 -3.25568e+06 103537 0 -3.25792e+06 65579.7 0 -3.27214e+06 77082.9 0 -3.29608e+06 85339.8 0 -3.33108e+06 103913 0 -3.37659e+06 120816 0 -3.43314e+06 134802 0 -3.4997e+06 138701 0 -3.57188e+06 122848 0 -3.63505e+06 76060.7 0 -3.66218e+06 1.90735e-06 0 </DataArray> 
</PointData> 
<Points> 
<DataArray type="Float32" NumberOfComponents="3"> 
0.016 0 0 0.0199333 0 0 0.0238667 0 0 0.0278 0 0 0.0317333 0 0 0.0356667 0 0 0.0396 0 0 0.0435333 0 0 0.0474667 0 0 0.0514 0 0 0.0553333 0 0 0.0592667 0 0 0.0632 0 0 0.0671333 0 0 0.0710667 0 0 0.075 0 0 0.016 0.000666667 0 0.0199333 0.000666667 0 0.0238667 0.000666667 0 0.0278 0.000666667 0 0.0317333 0.000666667 0 0.0356667 0.000666667 0 0.0396 0.000666667 0 0.0435333 0.000666667 0 0.0474667 0.000666667 0 0.0514 0.000666667 0 0.0553333 0.000666667 0 0.0592667 0.000666667 0 0.0632 0.000666667 0 0.0671333 0.000666667 0 0.0710667 0.000666667 0 0.075 0.000666667 0 0.016 0.00133333 0 0.0199333 0.00133333 0 0.0238667 0.00133333 0 0.0278 0.00133333 0 0.0317333 0.00133333 0 0.0356667 0.00133333 0 0.0396 0.00133333 0 0.0435333 0.00133333 0 0.0474667 0.00133333 0 0.0514 0.00133333 0 0.0553333 0.00133333 0 0.0592667 0.00133333 0 0.0632 0.00133333 0 0.0671333 0.00133333 0 0.0710667 0.00133333 0 0.075 0.00133333 0 0.016 0.002 0 0.0199333 0.002 0 0.0238667 0.002 0 0.0278 0.002 0 0.0317333 0.002 0 0.0356667 0.002 0 0.0396 0.002 0 0.0435333 0.002 0 0.0474667 0.002 0 0.0514 0.002 0 0.0553333 0.002 0 0.0592667 0.002 0 0.0632 0.002 0 0.0671333 0.002 0 0.0710667 0.002 0 0.075 0.002 0 0.016 0.00266667 0 0.0199333 0.00266667 0 0.0238667 0.00266667 0 0.0278 0.00266667 0 0.0317333 0.00266667 0 0.0356667 0.00266667 0 0.0396 0.00266667 0 0.0435333 0.00266667 0 0.0474667 0.00266667 0 0.0514 0.00266667 0 0.0553333 0.00266667 0 0.0592667 0.00266667 0 0.0632 0.00266667 0 0.0671333 0.00266667 0 0.0710667 0.00266667 0 0.075 0.00266667 0 0.016 0.00333333 0 0.0199333 0.00333333 0 0.0238667 0.00333333 0 0.0278 0.00333333 0 0.0317333 0.00333333 0 0.0356667 0.00333333 0 0.0396 0.00333333 0 0.0435333 0.00333333 0 0.0474667 0.00333333 0 0.0514 0.00333333 0 0.0553333 0.00333333 0 0.0592667 0.00333333 0 0.0632 0.00333333 0 0.0671333 0.00333333 0 0.0710667 0.00333333 0 0.075 0.00333333 0 0.016 0.004 0 0.0199333 0.004 0 0.0238667 0.004 0 0.0278 0.004 0 0.0317333 0.004 0 0.0356667 0.004 0 0.0396 0.004 0 0.0435333 0.004 0 0.0474667 0.004 0 0.0514 0.004 0 0.0553333 0.004 0 0.0592667 0.004 0 0.0632 0.004 0 0.0671333 0.004 0 0.0710667 0.004 0 0.075 0.004 0 0.016 0.00466667 0 0.0199333 0.00466667 0 0.0238667 0.00466667 0 0.0278 0.00466667 0 0.0317333 0.00466667 0 0.0356667 0.00466667 0 0.0396 0.00466667 0 0.0435333 0.00466667 0 0.0474667 0.00466667 0 0.0514 0.00466667 0 0.0553333 0.00466667 0 0.0592667 0.00466667 0 0.0632 0.00466667 0 0.0671333 0.00466667 0 0.0710667 0.00466667 0 0.075 0.00466667 0 0.016 0.00533333 0 0.0199333 0.00533333 0 0.0238667 0.00533333 0 0.0278 0.00533333 0 0.0317333 0.00533333 0 0.0356667 0.00533333 0 0.0396 0.00533333 0 0.0435333 0.00533333 0 0.0474667 0.00533333 0 0.0514 0.00533333 0 0.0553333 0.00533333 0 0.0592667 0.00533333 0 0.0632 0.00533333 0 0.0671333 0.00533333 0 0.0710667 0.00533333 0 0.075 0.00533333 0 0.016 0.006 0 0.0199333 0.006 0 0.0238667 0.006 0 0.0278 0.006 0 0.0317333 0.006 0 0.0356667 0.006 0 0.0396 0.006 0 0.0435333 0.006 0 0.0474667 0.006 0 0.0514 0.006 0 0.0553333 0.006 0 0.0592667 0.006 0 0.0632 0.006 0 0.0671333 0.006 0 0.0710667 0.006 0 0.075 0.006 0 0.016 0.00666667 0 0.0199333 0.00666667 0 0.0238667 0.00666667 0 0.0278 0.00666667 0 0.0317333 0.00666667 0 0.0356667 0.00666667 0 0.0396 0.00666667 0 0.0435333 0.00666667 0 0.0474667 0.00666667 0 0.0514 0.00666667 0 0.0553333 0.00666667 0 0.0592667 0.00666667 0 0.0632 0.00666667 0 0.0671333 0.00666667 0 0.0710667 0.00666667 0 0.075 0.00666667 0 0.016 0.00733333 0 0.0199333 0.00733333 0 0.0238667 0.00733333 0 0.0278 0.00733333 0 0.0317333 0.00733333 0 0.0356667 0.00733333 0 0.0396 0.00733333 0 0.0435333 0.00733333 0 0.0474667 0.00733333 0 0.0514 0.00733333 0 0.0553333 0.00733333 0 0.0592667 0.00733333 0 0.0632 0.00733333 0 0.0671333 0.00733333 0 0.0710667 0.00733333 0 0.075 0.00733333 0 0.016 0.008 0 0.0199333 0.008 0 0.0238667 0.008 0 0.0278 0.008 0 0.0317333 0.008 0 0.0356667 0.008 0 0.0396 0.008 0 0.0435333 0.008 0 0.0474667 0.008 0 0.0514 0.008 0 0.0553333 0.008 0 0.0592667 0.008 0 0.0632 0.008 0 0.0671333 0.008 0 0.0710667 0.008 0 0.075 0.008 0 0.016 0.00866667 0 0.0199333 0.00866667 0 0.0238667 0.00866667 0 0.0278 0.00866667 0 0.0317333 0.00866667 0 0.0356667 0.00866667 0 0.0396 0.00866667 0 0.0435333 0.00866667 0 0.0474667 0.00866667 0 0.0514 0.00866667 0 0.0553333 0.00866667 0 0.0592667 0.00866667 0 0.0632 0.00866667 0 0.0671333 0.00866667 0 0.0710667 0.00866667 0 0.075 0.00866667 0 0.016 0.00933333 0 0.0199333 0.00933333 0 0.0238667 0.00933333 0 0.0278 0.00933333 0 0.0317333 0.00933333 0 0.0356667 0.00933333 0 0.0396 0.00933333 0 0.0435333 0.00933333 0 0.0474667 0.00933333 0 0.0514 0.00933333 0 0.0553333 0.00933333 0 0.0592667 0.00933333 0 0.0632 0.00933333 0 0.0671333 0.00933333 0 0.0710667 0.00933333 0 0.075 0.00933333 0 0.016 0.01 0 0.0199333 0.01 0 0.0238667 0.01 0 0.0278 0.01 0 0.0317333 0.01 0 0.0356667 0.01 0 0.0396 0.01 0 0.0435333 0.01 0 0.0474667 0.01 0 0.0514 0.01 0 0.0553333 0.01 0 0.0592667 0.01 0 0.0632 0.01 0 0.0671333 0.01 0 0.0710667 0.01 0 0.075 0.01 0 
</DataArray>
</Points> 
</Piece> 
</StructuredGrid> 
</VTKFile> 
