<?xml version="1.0"?> 
<VTKFile type="StructuredGrid" version="0.1"> 
<StructuredGrid WholeExtent="0 15 0 15 0 0"> 
<Piece Extent="0 15 0 15 0 0"> 
<PointData>
<DataArray type="Float32" Name="|E|" format="ascii" NumberOfComponents="3"> 
-1.50995e+06 0 0 -1.50506e+06 96178.8 0 -1.50846e+06 196721 0 -1.51827e+06 303413 0 -1.53225e+06 417214 0 -1.54814e+06 538220 0 -1.56403e+06 665805 0 -1.57852e+06 798852 0 -1.59079e+06 936003 0 -1.60055e+06 1.07584e+06 0 -1.60798e+06 1.21696e+06 0 -1.61377e+06 1.35812e+06 0 -1.61905e+06 1.49818e+06 0 -1.62558e+06 1.63633e+06 0 -1.63579e+06 1.77224e+06 0 -1.65293e+06 1.90645e+06 0 -1.42811e+06 0 0 -1.42256e+06 107631 0 -1.42428e+06 218870 0 -1.4317e+06 335284 0 -1.44294e+06 457740 0 -1.4561e+06 586372 0 -1.46958e+06 720696 0 -1.48222e+06 859796 0 -1.49333e+06 1.00252e+06 0 -1.50277e+06 1.14766e+06 0 -1.51087e+06 1.29403e+06 0 -1.51848e+06 1.44062e+06 0 -1.52698e+06 1.5867e+06 0 -1.53835e+06 1.73204e+06 0 -1.55522e+06 1.87728e+06 0 -1.58073e+06 2.02446e+06 0 -1.34091e+06 0 0 -1.33505e+06 118198 0 -1.3356e+06 239403 0 -1.34125e+06 365005 0 -1.35043e+06 495799 0 -1.36156e+06 631956 0 -1.37328e+06 773113 0 -1.38462e+06 918525 0 -1.39507e+06 1.06724e+06 0 -1.40462e+06 1.21826e+06 0 -1.41375e+06 1.37067e+06 0 -1.42343e+06 1.5238e+06 0 -1.43516e+06 1.67744e+06 0 -1.45096e+06 1.83211e+06 0 -1.47319e+06 1.9896e+06 0 -1.50414e+06 2.15354e+06 0 -1.24943e+06 0 0 -1.2435e+06 128062 0 -1.24326e+06 258654 0 -1.24763e+06 393025 0 -1.25529e+06 531915 0 -1.2649e+06 675533 0 -1.27532e+06 823623 0 -1.28578e+06 975602 0 -1.29592e+06 1.13072e+06 0 -1.30582e+06 1.2882e+06 0 -1.31608e+06 1.44745e+06 0 -1.32772e+06 1.6082e+06 0 -1.3422e+06 1.77083e+06 0 -1.3612e+06 1.93668e+06 0 -1.3863e+06 2.1086e+06 0 -1.41802e+06 2.29145e+06 0 -1.15447e+06 0 0 -1.14866e+06 137362 0 -1.14794e+06 276878 0 -1.1514e+06 419683 0 -1.15792e+06 566480 0 -1.16639e+06 717517 0 -1.17587e+06 872644 0 -1.18572e+06 1.03143e+06 0 -1.19572e+06 1.19333e+06 0 -1.20604e+06 1.35783e+06 0 -1.2173e+06 1.52464e+06 0 -1.23045e+06 1.69396e+06 0 -1.24667e+06 1.86671e+06 0 -1.26701e+06 2.04496e+06 0 -1.29168e+06 2.23221e+06 0 -1.31888e+06 2.43356e+06 0 -1.05667e+06 0 0 -1.05113e+06 146201 0 -1.05014e+06 294260 0 -1.05296e+06 445224 0 -1.05864e+06 599775 0 -1.06625e+06 758205 0 -1.075e+06 920467 0 -1.0844e+06 1.08629e+06 0 -1.09431e+06 1.25531e+06 0 -1.10495e+06 1.42729e+06 0 -1.11686e+06 1.60227e+06 0 -1.1308e+06 1.78082e+06 0 -1.14746e+06 1.96436e+06 0 -1.16694e+06 2.15533e+06 0 -1.18782e+06 2.35724e+06 0 -1.20603e+06 2.57416e+06 0 -956532 0 0 -951367 154656 0 -950289 310936 0 -952665 469827 0 -957706 632002 0 -964626 797802 0 -972784 967282 0 -981785 1.14032e+06 0 -991539 1.31676e+06 0 -1.00225e+06 1.49658e+06 0 -1.01433e+06 1.68013e+06 0 -1.0282e+06 1.86829e+06 0 -1.04389e+06 2.06269e+06 0 -1.06043e+06 2.26576e+06 0 -1.07488e+06 2.48027e+06 0 -1.08162e+06 2.70822e+06 0 -854456 0 0 -849751 162778 0 -848700 327002 0 -850773 493615 0 -855308 663296 0 -861647 836438 0 -869260 1.0132e+06 0 -877829 1.1936e+06 0 -887281 1.37766e+06 0 -897750 1.56558e+06 0 -909440 1.75789e+06 0 -922352 1.95565e+06 0 -935822 2.16046e+06 0 -947872 2.37425e+06 0 -954498 2.59845e+06 0 -949600 2.8326e+06 0 -750776 0 0 -746594 170606 0 -745653 342523 0 -747512 516671 0 -751616 693743 0 -757417 874193 0 -764472 1.05827e+06 0 -772516 1.24613e+06 0 -781464 1.43795e+06 0 -791341 1.63407e+06 0 -802101 1.83515e+06 0 -813307 2.04221e+06 0 -823654 2.25656e+06 0 -830432 2.47924e+06 0 -829196 2.71008e+06 0 -814349 2.94631e+06 0 -645775 0 0 -642158 178164 0 -641379 357541 0 -643072 539044 0 -646774 723394 0 -652029 911102 0 -658466 1.10251e+06 0 -665853 1.29789e+06 0 -674070 1.49751e+06 0 -683017 1.70184e+06 0 -692396 1.91151e+06 0 -701375 2.12737e+06 0 -708174 2.35015e+06 0 -709715 2.57982e+06 0 -701714 2.81461e+06 0 -679689 3.05001e+06 0 -539694 0 0 -536672 185464 0 -536082 372078 0 -537620 560761 0 -540909 752269 0 -545570 947172 0 -551294 1.1459e+06 0 -557867 1.3488e+06 0 -565130 1.55624e+06 0 -572861 1.76869e+06 0 -580544 1.98669e+06 0 -587064 2.21072e+06 0 -590384 2.44081e+06 0 -587439 2.67578e+06 0 -574543 2.91246e+06 0 -548523 3.14524e+06 0 -432748 0 0 -430338 192514 0 -429938 386141 0 -431307 581827 0 -434137 780366 0 -438124 982391 0 -443013 1.1884e+06 0 -448606 1.39881e+06 0 -454712 1.61403e+06 0 -461014 1.83447e+06 0 -466854 2.06048e+06 0 -470978 2.29209e+06 0 -471341 2.5285e+06 0 -465202 2.76745e+06 0 -449708 3.00466e+06 0 -422900 3.23385e+06 0 -325131 0 0 -323340 199310 0 -323113 399728 0 -324266 602234 0 -326564 807670 0 -329771 1.01673e+06 0 -333685 1.22997e+06 0 -338131 1.44785e+06 0 -342905 1.6708e+06 0 -347649 1.89911e+06 0 -351665 2.13286e+06 0 -353730 2.37154e+06 0 -352026 2.61354e+06 0 -344360 2.85559e+06 0 -328766 3.09253e+06 0 -304252 3.3177e+06 0 -217023 0 0 -215845 205848 0 -215755 412824 0 -216625 621960 0 -218290 834152 0 -220587 1.05015e+06 0 -223371 1.27056e+06 0 -226503 1.49589e+06 0 -229803 1.72651e+06 0 -232939 1.96259e+06 0 -235299 2.2039e+06 0 -235873 2.44935e+06 0 -233276 2.69651e+06 0 -226000 2.94121e+06 0 -212900 3.17753e+06 0 -193644 3.39847e+06 0 -108591 0 0 -108014 212114 0 -108006 425407 0 -108500 640973 0 -109407 859774 0 -110643 1.08261e+06 0 -112126 1.31014e+06 0 -113779 1.54287e+06 0 -115484 1.78115e+06 0 -117026 2.025e+06 0 -118018 2.27384e+06 0 -117856 2.52599e+06 0 -115764 2.77822e+06 0 -110983 3.02547e+06 0 -103045 3.26108e+06 0 -91955.6 3.47769e+06 0 0 0 0 0 218092 0 0 437445 0 0 659235 0 0 884489 0 0 1.11406e+06 0 0 1.34865e+06 0 0 1.58878e+06 0 0 1.83476e+06 0 0 2.08646e+06 0 0 2.34298e+06 0 0 2.60205e+06 0 0 2.85961e+06 0 0 3.1096e+06 0 0 3.34457e+06 0 0 3.55668e+06 0 </DataArray> 
</PointData> 
<Points> 
<DataArray type="Float32" NumberOfComponents="3"> 
0 0.0556667 0 0.00452 0.0561222 0 0.00904 0.0565778 0 0.01356 0.0570333 0 0.01808 0.0574889 0 0.0226 0.0579444 0 0.02712 0.0584 0 0.03164 0.0588556 0 0.03616 0.0593111 0 0.04068 0.0597667 0 0.0452 0.0602222 0 0.04972 0.0606778 0 0.05424 0.0611333 0 0.05876 0.0615889 0 0.06328 0.0620444 0 0.0678 0.0625 0 0 0.0594222 0 0.00472089 0.0598474 0 0.00944178 0.0602726 0 0.0141627 0.0606978 0 0.0188836 0.061123 0 0.0236044 0.0615481 0 0.0283253 0.0619733 0 0.0330462 0.0623985 0 0.0377671 0.0628237 0 0.042488 0.0632489 0 0.0472089 0.0636741 0 0.0519298 0.0640993 0 0.0566507 0.0645244 0 0.0613716 0.0649496 0 0.0660924 0.0653748 0 0.0708133 0.0658 0 0 0.0631778 0 0.00492178 0.0635726 0 0.00984356 0.0639674 0 0.0147653 0.0643622 0 0.0196871 0.064757 0 0.0246089 0.0651519 0 0.0295307 0.0655467 0 0.0344524 0.0659415 0 0.0393742 0.0663363 0 0.044296 0.0667311 0 0.0492178 0.0671259 0 0.0541396 0.0675207 0 0.0590613 0.0679156 0 0.0639831 0.0683104 0 0.0689049 0.0687052 0 0.0738267 0.0691 0 0 0.0669333 0 0.00512267 0.0672978 0 0.0102453 0.0676622 0 0.015368 0.0680267 0 0.0204907 0.0683911 0 0.0256133 0.0687556 0 0.030736 0.06912 0 0.0358587 0.0694844 0 0.0409813 0.0698489 0 0.046104 0.0702133 0 0.0512267 0.0705778 0 0.0563493 0.0709422 0 0.061472 0.0713067 0 0.0665947 0.0716711 0 0.0717173 0.0720356 0 0.07684 0.0724 0 0 0.0706889 0 0.00532356 0.071023 0 0.0106471 0.071357 0 0.0159707 0.0716911 0 0.0212942 0.0720252 0 0.0266178 0.0723593 0 0.0319413 0.0726933 0 0.0372649 0.0730274 0 0.0425884 0.0733615 0 0.047912 0.0736956 0 0.0532356 0.0740296 0 0.0585591 0.0743637 0 0.0638827 0.0746978 0 0.0692062 0.0750319 0 0.0745298 0.0753659 0 0.0798533 0.0757 0 0 0.0744444 0 0.00552444 0.0747481 0 0.0110489 0.0750519 0 0.0165733 0.0753556 0 0.0220978 0.0756593 0 0.0276222 0.075963 0 0.0331467 0.0762667 0 0.0386711 0.0765704 0 0.0441956 0.0768741 0 0.04972 0.0771778 0 0.0552444 0.0774815 0 0.0607689 0.0777852 0 0.0662933 0.0780889 0 0.0718178 0.0783926 0 0.0773422 0.0786963 0 0.0828667 0.079 0 0 0.0782 0 0.00572533 0.0784733 0 0.0114507 0.0787467 0 0.017176 0.07902 0 0.0229013 0.0792933 0 0.0286267 0.0795667 0 0.034352 0.07984 0 0.0400773 0.0801133 0 0.0458027 0.0803867 0 0.051528 0.08066 0 0.0572533 0.0809333 0 0.0629787 0.0812067 0 0.068704 0.08148 0 0.0744293 0.0817533 0 0.0801547 0.0820267 0 0.08588 0.0823 0 0 0.0819556 0 0.00592622 0.0821985 0 0.0118524 0.0824415 0 0.0177787 0.0826844 0 0.0237049 0.0829274 0 0.0296311 0.0831704 0 0.0355573 0.0834133 0 0.0414836 0.0836563 0 0.0474098 0.0838993 0 0.053336 0.0841422 0 0.0592622 0.0843852 0 0.0651884 0.0846281 0 0.0711147 0.0848711 0 0.0770409 0.0851141 0 0.0829671 0.085357 0 0.0888933 0.0856 0 0 0.0857111 0 0.00612711 0.0859237 0 0.0122542 0.0861363 0 0.0183813 0.0863489 0 0.0245084 0.0865615 0 0.0306356 0.0867741 0 0.0367627 0.0869867 0 0.0428898 0.0871993 0 0.0490169 0.0874119 0 0.055144 0.0876244 0 0.0612711 0.087837 0 0.0673982 0.0880496 0 0.0735253 0.0882622 0 0.0796524 0.0884748 0 0.0857796 0.0886874 0 0.0919067 0.0889 0 0 0.0894667 0 0.006328 0.0896489 0 0.012656 0.0898311 0 0.018984 0.0900133 0 0.025312 0.0901956 0 0.03164 0.0903778 0 0.037968 0.09056 0 0.044296 0.0907422 0 0.050624 0.0909244 0 0.056952 0.0911067 0 0.06328 0.0912889 0 0.069608 0.0914711 0 0.075936 0.0916533 0 0.082264 0.0918356 0 0.088592 0.0920178 0 0.09492 0.0922 0 0 0.0932222 0 0.00652889 0.0933741 0 0.0130578 0.0935259 0 0.0195867 0.0936778 0 0.0261156 0.0938296 0 0.0326444 0.0939815 0 0.0391733 0.0941333 0 0.0457022 0.0942852 0 0.0522311 0.094437 0 0.05876 0.0945889 0 0.0652889 0.0947407 0 0.0718178 0.0948926 0 0.0783467 0.0950444 0 0.0848756 0.0951963 0 0.0914044 0.0953481 0 0.0979333 0.0955 0 0 0.0969778 0 0.00672978 0.0970993 0 0.0134596 0.0972207 0 0.0201893 0.0973422 0 0.0269191 0.0974637 0 0.0336489 0.0975852 0 0.0403787 0.0977067 0 0.0471084 0.0978281 0 0.0538382 0.0979496 0 0.060568 0.0980711 0 0.0672978 0.0981926 0 0.0740276 0.0983141 0 0.0807573 0.0984356 0 0.0874871 0.098557 0 0.0942169 0.0986785 0 0.100947 0.0988 0 0 0.100733 0 0.00693067 0.100824 0 0.0138613 0.100916 0 0.020792 0.101007 0 0.0277227 0.101098 0 0.0346533 0.101189 0 0.041584 0.10128 0 0.0485147 0.101371 0 0.0554453 0.101462 0 0.062376 0.101553 0 0.0693067 0.101644 0 0.0762373 0.101736 0 0.083168 0.101827 0 0.0900987 0.101918 0 0.0970293 0.102009 0 0.10396 0.1021 0 0 0.104489 0 0.00713156 0.10455 0 0.0142631 0.10461 0 0.0213947 0.104671 0 0.0285262 0.104732 0 0.0356578 0.104793 0 0.0427893 0.104853 0 0.0499209 0.104914 0 0.0570524 0.104975 0 0.064184 0.105036 0 0.0713156 0.105096 0 0.0784471 0.105157 0 0.0855787 0.105218 0 0.0927102 0.105279 0 0.0998418 0.105339 0 0.106973 0.1054 0 0 0.108244 0 0.00733244 0.108275 0 0.0146649 0.108305 0 0.0219973 0.108336 0 0.0293298 0.108366 0 0.0366622 0.108396 0 0.0439947 0.108427 0 0.0513271 0.108457 0 0.0586596 0.108487 0 0.065992 0.108518 0 0.0733244 0.108548 0 0.0806569 0.108579 0 0.0879893 0.108609 0 0.0953218 0.108639 0 0.102654 0.10867 0 0.109987 0.1087 0 0 0.112 0 0.00753333 0.112 0 0.0150667 0.112 0 0.0226 0.112 0 0.0301333 0.112 0 0.0376667 0.112 0 0.0452 0.112 0 0.0527333 0.112 0 0.0602667 0.112 0 0.0678 0.112 0 0.0753333 0.112 0 0.0828667 0.112 0 0.0904 0.112 0 0.0979333 0.112 0 0.105467 0.112 0 0.113 0.112 0 
</DataArray>
</Points> 
</Piece> 
</StructuredGrid> 
</VTKFile> 
