<?xml version="1.0"?> 
<VTKFile type="StructuredGrid" version="0.1"> 
<StructuredGrid WholeExtent="0 15 0 15 0 0"> 
<Piece Extent="0 15 0 15 0 0"> 
<PointData>
<DataArray type="Float32" Name="|E|" format="ascii" NumberOfComponents="3"> 
-352936 0 0 -353620 -0.159747 0 -355675 -0.319065 0 -359107 -0.477494 0 -363929 -0.634504 0 -370155 -0.789468 0 -377806 -0.941618 0 -386906 -1.09001 0 -397484 -1.23349 0 -409574 -1.37062 0 -423211 -1.49969 0 -438437 -1.61858 0 -455296 -1.72482 0 -473835 -1.81545 0 -494105 -1.88702 0 -516158 -1.93561 0 -351037 0 0 -351718 2278.12 0 -353763 4563.79 0 -357180 6864.53 0 -361980 9187.84 0 -368178 11541.1 0 -375795 13931.7 0 -384855 16366.9 0 -395388 18853.6 0 -407426 21398.8 0 -421006 24008.8 0 -436171 26690 0 -452963 29447.9 0 -471432 32287.8 0 -491629 35214.1 0 -513606 38230.2 0 -345358 0 0 -346030 4535.19 0 -348047 9085.53 0 -351417 13666.1 0 -356150 18292 0 -362264 22978.1 0 -369778 27739.2 0 -378718 32589.9 0 -389112 37544.3 0 -400996 42616.2 0 -414405 47819.1 0 -429384 53165.4 0 -445976 58666.9 0 -464234 64334.3 0 -484208 70176.7 0 -505954 76202 0 -335952 0 0 -336607 6750.16 0 -338577 13523.2 0 -341868 20341.8 0 -346492 27228.7 0 -352464 34206.6 0 -359806 41297.7 0 -368543 48524.2 0 -378706 55907.8 0 -390329 63469.6 0 -403450 71230 0 -418115 79208.7 0 -434370 87423.9 0 -452268 95892.7 0 -471864 104630 0 -493217 113649 0 -322906 0 0 -323539 8901.65 0 -325442 17833.9 0 -328622 26827.4 0 -333090 35912.7 0 -338863 45120 0 -345962 54479.8 0 -354413 64021.7 0 -364248 73775.5 0 -375501 83770 0 -388214 94033.4 0 -402431 104593 0 -418204 115475 0 -435587 126703 0 -454639 138299 0 -475425 150283 0 -306344 0 0 -306949 10968 0 -308766 21974.5 0 -311801 33058.1 0 -316068 44257.1 0 -321582 55610 0 -328366 67155 0 -336446 78930.3 0 -345853 90973.6 0 -356624 103322 0 -368802 116013 0 -382432 129081 0 -397570 142562 0 -414271 156487 0 -432601 170889 0 -452628 185794 0 -286427 0 0 -286996 12927.3 0 -288707 25901.1 0 -291565 38967.8 0 -295584 52173.9 0 -300780 65566 0 -307175 79190.5 0 -314795 93094 0 -323673 107323 0 -333846 121924 0 -345357 136942 0 -358255 152422 0 -372594 168410 0 -388437 184948 0 -405851 202076 0 -424910 219834 0 -263351 0 0 -263878 14757.7 0 -265463 29569.7 0 -268111 44490.4 0 -271836 59574.3 0 -276653 74876.1 0 -282584 90450.7 0 -289656 106353 0 -297900 122639 0 -307356 139365 0 -318065 156584 0 -330077 174354 0 -343449 192729 0 -358245 211764 0 -374535 231512 0 -392398 252025 0 -237349 0 0 -237828 16437.2 0 -239267 32936.4 0 -241672 49559.8 0 -245057 66369.5 0 -249435 83428.5 0 -254829 100800 0 -261264 118548 0 -268771 136737 0 -277388 155432 0 -287157 174698 0 -298128 194604 0 -310358 215215 0 -323909 236598 0 -338856 258822 0 -355278 281953 0 -208690 0 0 -209114 17944.7 0 -210389 35958.8 0 -212521 54111.5 0 -215520 72472.9 0 -219402 91113.5 0 -224186 110105 0 -229897 129518 0 -236565 149429 0 -244225 169910 0 -252918 191039 0 -262691 212894 0 -273600 235553 0 -285706 259098 0 -299083 283612 0 -313810 309178 0 -177678 0 0 -178042 19260 0 -179135 38596 0 -180963 58084.3 0 -183535 77801.6 0 -186866 97825.7 0 -190973 118236 0 -195879 139111 0 -201610 160535 0 -208198 182592 0 -215683 205367 0 -224107 228950 0 -233521 253432 0 -243985 278910 0 -255566 305480 0 -268341 333245 0 -144649 0 0 -144947 20364.6 0 -145842 40811 0 -147340 61421.5 0 -149448 82279.1 0 -152178 103468 0 -155547 125074 0 -159571 147184 0 -164277 169888 0 -169690 193279 0 -175844 217453 0 -182777 242509 0 -190535 268551 0 -199169 295688 0 -208740 324032 0 -219316 353704 0 -109967 0 0 -110195 21242 0 -110879 42570.8 0 -112024 64073.4 0 -113635 85838 0 -115723 107954 0 -118299 130513 0 -121379 153608 0 -124981 177335 0 -129128 201796 0 -133845 227092 0 -139165 253334 0 -145122 280635 0 -151760 309115 0 -159128 338902 0 -167282 370132 0 -74023.6 0 0 -74177.4 21878.9 0 -74639.7 43848.2 0 -75413.2 65998.8 0 -76502.4 88422.5 0 -77913.8 111213 0 -79655.8 134465 0 -81739 158277 0 -84176.4 182752 0 -86983.5 207993 0 -90178.9 234111 0 -93784.2 261223 0 -97825.1 289449 0 -102331 318920 0 -107338 349774 0 -112885 382160 0 -37226.8 0 0 -37304.3 22265.2 0 -37537.3 44623.1 0 -37927.3 67166.8 0 -38476.5 89990.4 0 -39188.1 113190 0 -40066.6 136864 0 -41117.4 161113 0 -42347.2 186041 0 -43763.9 211758 0 -45377 238378 0 -47197.9 266021 0 -49239.6 294813 0 -51517.7 324892 0 -54050.3 356401 0 -56858.3 389499 0 0 0 0 0 22394.7 0 0 44882.9 0 0 67558.3 0 0 90516.1 0 0 113853 0 0 137668 0 0 162063 0 0 187145 0 0 213022 0 0 239810 0 0 267631 0 0 296615 0 0 326898 0 0 358629 0 0 391967 0 </DataArray> 
</PointData> 
<Points> 
<DataArray type="Float32" NumberOfComponents="3"> 
0 0 0 0.0004 0 0 0.0008 0 0 0.0012 0 0 0.0016 0 0 0.002 0 0 0.0024 0 0 0.0028 0 0 0.0032 0 0 0.0036 0 0 0.004 0 0 0.0044 0 0 0.0048 0 0 0.0052 0 0 0.0056 0 0 0.006 0 0 0 0.000666667 0 0.0004 0.000666667 0 0.0008 0.000666667 0 0.0012 0.000666667 0 0.0016 0.000666667 0 0.002 0.000666667 0 0.0024 0.000666667 0 0.0028 0.000666667 0 0.0032 0.000666667 0 0.0036 0.000666667 0 0.004 0.000666667 0 0.0044 0.000666667 0 0.0048 0.000666667 0 0.0052 0.000666667 0 0.0056 0.000666667 0 0.006 0.000666667 0 0 0.00133333 0 0.0004 0.00133333 0 0.0008 0.00133333 0 0.0012 0.00133333 0 0.0016 0.00133333 0 0.002 0.00133333 0 0.0024 0.00133333 0 0.0028 0.00133333 0 0.0032 0.00133333 0 0.0036 0.00133333 0 0.004 0.00133333 0 0.0044 0.00133333 0 0.0048 0.00133333 0 0.0052 0.00133333 0 0.0056 0.00133333 0 0.006 0.00133333 0 0 0.002 0 0.0004 0.002 0 0.0008 0.002 0 0.0012 0.002 0 0.0016 0.002 0 0.002 0.002 0 0.0024 0.002 0 0.0028 0.002 0 0.0032 0.002 0 0.0036 0.002 0 0.004 0.002 0 0.0044 0.002 0 0.0048 0.002 0 0.0052 0.002 0 0.0056 0.002 0 0.006 0.002 0 0 0.00266667 0 0.0004 0.00266667 0 0.0008 0.00266667 0 0.0012 0.00266667 0 0.0016 0.00266667 0 0.002 0.00266667 0 0.0024 0.00266667 0 0.0028 0.00266667 0 0.0032 0.00266667 0 0.0036 0.00266667 0 0.004 0.00266667 0 0.0044 0.00266667 0 0.0048 0.00266667 0 0.0052 0.00266667 0 0.0056 0.00266667 0 0.006 0.00266667 0 0 0.00333333 0 0.0004 0.00333333 0 0.0008 0.00333333 0 0.0012 0.00333333 0 0.0016 0.00333333 0 0.002 0.00333333 0 0.0024 0.00333333 0 0.0028 0.00333333 0 0.0032 0.00333333 0 0.0036 0.00333333 0 0.004 0.00333333 0 0.0044 0.00333333 0 0.0048 0.00333333 0 0.0052 0.00333333 0 0.0056 0.00333333 0 0.006 0.00333333 0 0 0.004 0 0.0004 0.004 0 0.0008 0.004 0 0.0012 0.004 0 0.0016 0.004 0 0.002 0.004 0 0.0024 0.004 0 0.0028 0.004 0 0.0032 0.004 0 0.0036 0.004 0 0.004 0.004 0 0.0044 0.004 0 0.0048 0.004 0 0.0052 0.004 0 0.0056 0.004 0 0.006 0.004 0 0 0.00466667 0 0.0004 0.00466667 0 0.0008 0.00466667 0 0.0012 0.00466667 0 0.0016 0.00466667 0 0.002 0.00466667 0 0.0024 0.00466667 0 0.0028 0.00466667 0 0.0032 0.00466667 0 0.0036 0.00466667 0 0.004 0.00466667 0 0.0044 0.00466667 0 0.0048 0.00466667 0 0.0052 0.00466667 0 0.0056 0.00466667 0 0.006 0.00466667 0 0 0.00533333 0 0.0004 0.00533333 0 0.0008 0.00533333 0 0.0012 0.00533333 0 0.0016 0.00533333 0 0.002 0.00533333 0 0.0024 0.00533333 0 0.0028 0.00533333 0 0.0032 0.00533333 0 0.0036 0.00533333 0 0.004 0.00533333 0 0.0044 0.00533333 0 0.0048 0.00533333 0 0.0052 0.00533333 0 0.0056 0.00533333 0 0.006 0.00533333 0 0 0.006 0 0.0004 0.006 0 0.0008 0.006 0 0.0012 0.006 0 0.0016 0.006 0 0.002 0.006 0 0.0024 0.006 0 0.0028 0.006 0 0.0032 0.006 0 0.0036 0.006 0 0.004 0.006 0 0.0044 0.006 0 0.0048 0.006 0 0.0052 0.006 0 0.0056 0.006 0 0.006 0.006 0 0 0.00666667 0 0.0004 0.00666667 0 0.0008 0.00666667 0 0.0012 0.00666667 0 0.0016 0.00666667 0 0.002 0.00666667 0 0.0024 0.00666667 0 0.0028 0.00666667 0 0.0032 0.00666667 0 0.0036 0.00666667 0 0.004 0.00666667 0 0.0044 0.00666667 0 0.0048 0.00666667 0 0.0052 0.00666667 0 0.0056 0.00666667 0 0.006 0.00666667 0 0 0.00733333 0 0.0004 0.00733333 0 0.0008 0.00733333 0 0.0012 0.00733333 0 0.0016 0.00733333 0 0.002 0.00733333 0 0.0024 0.00733333 0 0.0028 0.00733333 0 0.0032 0.00733333 0 0.0036 0.00733333 0 0.004 0.00733333 0 0.0044 0.00733333 0 0.0048 0.00733333 0 0.0052 0.00733333 0 0.0056 0.00733333 0 0.006 0.00733333 0 0 0.008 0 0.0004 0.008 0 0.0008 0.008 0 0.0012 0.008 0 0.0016 0.008 0 0.002 0.008 0 0.0024 0.008 0 0.0028 0.008 0 0.0032 0.008 0 0.0036 0.008 0 0.004 0.008 0 0.0044 0.008 0 0.0048 0.008 0 0.0052 0.008 0 0.0056 0.008 0 0.006 0.008 0 0 0.00866667 0 0.0004 0.00866667 0 0.0008 0.00866667 0 0.0012 0.00866667 0 0.0016 0.00866667 0 0.002 0.00866667 0 0.0024 0.00866667 0 0.0028 0.00866667 0 0.0032 0.00866667 0 0.0036 0.00866667 0 0.004 0.00866667 0 0.0044 0.00866667 0 0.0048 0.00866667 0 0.0052 0.00866667 0 0.0056 0.00866667 0 0.006 0.00866667 0 0 0.00933333 0 0.0004 0.00933333 0 0.0008 0.00933333 0 0.0012 0.00933333 0 0.0016 0.00933333 0 0.002 0.00933333 0 0.0024 0.00933333 0 0.0028 0.00933333 0 0.0032 0.00933333 0 0.0036 0.00933333 0 0.004 0.00933333 0 0.0044 0.00933333 0 0.0048 0.00933333 0 0.0052 0.00933333 0 0.0056 0.00933333 0 0.006 0.00933333 0 0 0.01 0 0.0004 0.01 0 0.0008 0.01 0 0.0012 0.01 0 0.0016 0.01 0 0.002 0.01 0 0.0024 0.01 0 0.0028 0.01 0 0.0032 0.01 0 0.0036 0.01 0 0.004 0.01 0 0.0044 0.01 0 0.0048 0.01 0 0.0052 0.01 0 0.0056 0.01 0 0.006 0.01 0 
</DataArray>
</Points> 
</Piece> 
</StructuredGrid> 
</VTKFile> 
