<?xml version="1.0"?> 
<VTKFile type="StructuredGrid" version="0.1"> 
<StructuredGrid WholeExtent="0 127 0 127 0 0"> 
<Piece Extent="0 127 0 127 0 0"> 
<PointData>
<DataArray type="Float32" Name="u" format="ascii" NumberOfComponents="1"> 
-60000 -58528.8 -57025.6 -55540 -54091.5 -52687.8 -51331.4 -50022 -48758 -47537.1 -46356.8 -45214.8 -44108.6 -43036 -41994.9 -40983.4 -39999.8 -39042.6 -38110.2 -37201.4 -36314.9 -35449.7 -34604.8 -33779.2 -32972.1 -32182.8 -31410.5 -30654.6 -29914.5 -29189.6 -28479.4 -27783.5 -27101.3 -26432.4 -25776.5 -25133.2 -24502.2 -23883.1 -23275.7 -22679.6 -22094.6 -21520.4 -20956.8 -20403.6 -19860.6 -19327.5 -18804.2 -18290.5 -17786.2 -17291.1 -16805.1 -16328.1 -15859.8 -15400.3 -14949.2 -14506.6 -14072.2 -13646 -13227.8 -12817.6 -12415.3 -12020.6 -11633.7 -11254.2 -10882.3 -10517.7 -10160.4 -9810.34 -9467.4 -9131.53 -8802.64 -8480.66 -8165.54 -7857.19 -7555.55 -7260.57 -6972.17 -6690.31 -6414.91 -6145.93 -5883.32 -5627.01 -5376.95 -5133.1 -4895.41 -4663.83 -4438.31 -4218.8 -4005.28 -3797.68 -3595.97 -3400.12 -3210.07 -3025.8 -2847.27 -2674.44 -2507.28 -2345.75 -2189.83 -2039.48 -1894.67 -1755.37 -1621.56 -1493.21 -1370.3 -1252.79 -1140.67 -1033.91 -932.497 -836.405 -745.616 -660.112 -579.875 -504.89 -435.142 -370.616 -311.301 -257.183 -208.251 -164.497 -125.912 -92.4863 -64.2147 -41.0912 -23.1111 -10.2707 -2.56755 0 -60000 -58660.4 -57252.7 -55834.1 -54433 -53063.1 -51730.8 -50438.6 -49186.6 -47974.1 -46799.5 -45661 -44556.8 -43485 -42443.8 -41431.6 -40446.7 -39487.7 -38553.3 -37642.3 -36753.3 -35885.6 -35037.9 -34209.6 -33399.6 -32607.4 -31832.2 -31073.4 -30330.3 -29602.4 -28889.2 -28190.2 -27505 -26833.1 -26174.2 -25527.9 -24893.8 -24271.7 -23661.2 -23062 -22474 -21896.7 -21330.1 -20773.8 -20227.7 -19691.5 -19165 -18648.2 -18140.7 -17642.5 -17153.3 -16673.1 -16201.6 -15738.8 -15284.4 -14838.5 -14400.8 -13971.2 -13549.7 -13136.1 -12730.3 -12332.2 -11941.7 -11558.8 -11183.3 -10815.1 -10454.2 -10100.5 -9753.84 -9414.24 -9081.59 -8755.82 -8436.87 -8124.65 -7819.11 -7520.19 -7227.82 -6941.94 -6662.49 -6389.42 -6122.68 -5862.2 -5607.94 -5359.85 -5117.87 -4881.96 -4652.08 -4428.17 -4210.2 -3998.12 -3791.89 -3591.47 -3396.82 -3207.91 -3024.69 -2847.14 -2675.21 -2508.88 -2348.11 -2192.87 -2043.13 -1898.87 -1760.05 -1626.65 -1498.65 -1376.01 -1258.72 -1146.75 -1040.08 -938.694 -842.57 -751.69 -666.037 -585.594 -510.348 -440.283 -375.387 -315.648 -261.055 -211.598 -167.268 -128.058 -93.9604 -64.9699 -41.0817 -22.2923 -8.59888 0 -60000 -58749.7 -57430 -56080.5 -54731.4 -53400.1 -52096.4 -50825.3 -49588.9 -48387.7 -47221.2 -46088.4 -44988.1 -43918.7 -42878.8 -41867 -40881.9 -39922.1 -38986.5 -38073.8 -37183.1 -36313.2 -35463.4 -34632.7 -33820.3 -33025.6 -32247.8 -31486.2 -30740.4 -30009.8 -29293.8 -28592 -27904 -27229.2 -26567.5 -25918.3 -25281.3 -24656.3 -24042.9 -23440.8 -22849.8 -22269.6 -21700 -21140.7 -20591.5 -20052.3 -19522.9 -19002.9 -18492.4 -17991.1 -17498.8 -17015.4 -16540.8 -16074.7 -15617.2 -15168 -14727 -14294.2 -13869.3 -13452.4 -13043.2 -12641.7 -12247.8 -11861.4 -11482.3 -11110.6 -10746.2 -10388.8 -10038.6 -9695.28 -9358.92 -9029.41 -8706.67 -8390.63 -8081.24 -7778.42 -7482.11 -7192.26 -6908.81 -6631.69 -6360.86 -6096.25 -5837.83 -5585.53 -5339.3 -5099.11 -4864.9 -4636.63 -4414.25 -4197.73 -3987.01 -3782.07 -3582.85 -3389.33 -3201.46 -3019.21 -2842.56 -2671.45 -2505.87 -2345.77 -2191.14 -2041.94 -1898.14 -1759.72 -1626.65 -1498.9 -1376.47 -1259.31 -1147.41 -1040.75 -939.317 -843.082 -752.032 -666.152 -585.425 -509.838 -439.377 -374.032 -313.791 -258.643 -208.581 -163.596 -123.681 -88.8311 -59.0413 -34.3077 -14.6279 0 -60000 -58815.9 -57569.8 -56286.1 -54990.2 -53700.6 -52428.9 -51182.3 -49964.6 -48777.4 -47621.5 -46496.6 -45401.9 -44336.5 -43299.3 -42289.1 -41304.8 -40345.1 -39409.1 -38495.6 -37603.7 -36732.4 -35880.8 -35048.2 -34233.8 -33436.9 -32656.8 -31893 -31144.7 -30411.6 -29693.1 -28988.7 -28298 -27620.6 -26956.2 -26304.3 -25664.6 -25036.8 -24420.6 -23815.7 -23221.9 -22638.8 -22066.3 -21504.2 -20952.1 -20410 -19877.5 -19354.6 -18841.1 -18336.7 -17841.4 -17355 -16877.2 -16408.1 -15947.4 -15495 -15050.9 -14614.8 -14186.7 -13766.4 -13353.9 -12949.1 -12551.8 -12161.9 -11779.4 -11404.2 -11036.2 -10675.4 -10321.5 -9974.6 -9634.57 -9301.36 -8974.88 -8655.07 -8341.86 -8035.19 -7735 -7441.22 -7153.8 -6872.68 -6597.8 -6329.11 -6066.56 -5810.09 -5559.67 -5315.23 -5076.74 -4844.14 -4617.39 -4396.46 -4181.29 -3971.86 -3768.11 -3570.01 -3377.53 -3190.63 -3009.27 -2833.43 -2663.06 -2498.14 -2338.64 -2184.53 -2035.78 -1892.37 -1754.26 -1621.44 -1493.89 -1371.57 -1254.46 -1142.56 -1035.83 -934.265 -837.84 -746.541 -660.353 -579.262 -503.255 -432.319 -366.444 -305.62 -249.838 -199.09 -153.368 -112.668 -76.9848 -46.3138 -20.6528 0 -60000 -58868.4 -57682.9 -56458.4 -55214.3 -53967.3 -52730 -51510.4 -50313.9 -49143.3 -48000.1 -46885 -45797.7 -44737.9 -43704.7 -42697.4 -41714.9 -40756.4 -39820.8 -38907.2 -38014.7 -37142.6 -36289.9 -35455.9 -34639.9 -33841.2 -33059.2 -32293.3 -31542.9 -30807.6 -30086.8 -29380 -28687 -28007.1 -27340.1 -26685.7 -26043.4 -25413 -24794.2 -24186.6 -23590.1 -23004.3 -22429 -21864.1 -21309.2 -20764.3 -20229 -19703.2 -19186.7 -18679.4 -18181.1 -17691.7 -17210.9 -16738.7 -16275 -15819.5 -15372.2 -14932.9 -14501.6 -14078.1 -13662.4 -13254.2 -12853.6 -12460.4 -12074.5 -11695.9 -11324.4 -10960 -10602.6 -10252.1 -9908.48 -9571.61 -9241.44 -8917.91 -8600.93 -8290.46 -7986.42 -7688.76 -7397.42 -7112.33 -6833.45 -6560.72 -6294.09 -6033.5 -5778.91 -5530.27 -5287.53 -5050.65 -4819.57 -4594.27 -4374.69 -4160.8 -3952.56 -3749.93 -3552.87 -3361.34 -3175.32 -2994.77 -2819.65 -2649.94 -2485.61 -2326.62 -2172.95 -2024.58 -1881.47 -1743.6 -1610.95 -1483.49 -1361.21 -1244.09 -1132.09 -1025.22 -923.439 -826.743 -735.115 -648.539 -567.003 -490.495 -419.003 -352.517 -291.029 -234.531 -183.015 -136.475 -94.9074 -58.3072 -26.6721 0 -60000 -58911.9 -57776.8 -56604.4 -55408.7 -54203.8 -53001.6 -51810.8 -50637.5 -49485.4 -48357 -47253.5 -46175.3 -45122.6 -44094.8 -43091.5 -42112 -41155.4 -40221.1 -39308.2 -38415.9 -37543.5 -36690.2 -35855.3 -35038.2 -34238.1 -33454.6 -32687 -31934.8 -31197.5 -30474.7 -29765.8 -29070.5 -28388.5 -27719.2 -27062.4 -26417.7 -25784.8 -25163.5 -24553.4 -23954.2 -23365.9 -22788 -22220.4 -21662.8 -21115.1 -20577 -20048.4 -19529.2 -19019 -18517.8 -18025.5 -17541.8 -17066.6 -16599.8 -16141.3 -15690.9 -15248.5 -14814.1 -14387.4 -13968.5 -13557.1 -13153.2 -12756.6 -12367.4 -11985.4 -11610.5 -11242.7 -10881.8 -10527.8 -10180.6 -9840.11 -9506.3 -9179.08 -8858.39 -8544.16 -8236.33 -7934.83 -7639.61 -7350.61 -7067.77 -6791.04 -6520.37 -6255.7 -5996.99 -5744.19 -5497.24 -5256.11 -5020.75 -4791.12 -4567.17 -4348.86 -4136.16 -3929.03 -3727.43 -3531.32 -3340.67 -3155.44 -2975.61 -2801.15 -2632.01 -2468.18 -2309.62 -2156.31 -2008.23 -1865.34 -1727.63 -1595.07 -1467.63 -1345.31 -1228.08 -1115.92 -1008.81 -906.738 -809.69 -717.65 -630.605 -548.543 -471.452 -399.322 -332.144 -269.91 -212.612 -160.245 -112.804 -70.2847 -32.684 0 -60000 -58949 -57856.7 -56729.7 -55578.2 -54413.6 -53246.5 -52085.3 -50936.5 -49804.5 -48692.5 -47602.2 -46534.7 -45490.3 -44469.2 -43471.1 -42495.6 -41542 -40609.8 -39698.3 -38806.9 -37934.8 -37081.5 -36246.2 -35428.4 -34627.4 -33842.7 -33073.7 -32320 -31581.1 -30856.5 -30145.8 -29448.6 -28764.5 -28093.1 -27434.1 -26787.2 -26152 -25528.3 -24915.8 -24314.3 -23723.4 -23143 -22572.8 -22012.7 -21462.3 -20921.6 -20390.3 -19868.3 -19355.4 -18851.4 -18356.2 -17869.6 -17391.6 -16921.8 -16460.3 -16007 -15561.6 -15124 -14694.3 -14272.1 -13857.6 -13450.4 -13050.7 -12658.2 -12272.8 -11894.6 -11523.3 -11159 -10801.5 -10450.8 -10106.8 -9769.39 -9438.55 -9114.18 -8796.24 -8484.66 -8179.37 -7880.32 -7587.44 -7300.69 -7020.01 -6745.35 -6476.64 -6213.85 -5956.93 -5705.82 -5460.49 -5220.88 -4986.95 -4758.67 -4535.99 -4318.87 -4107.28 -3901.17 -3700.51 -3505.27 -3315.41 -3130.9 -2951.71 -2777.81 -2609.17 -2445.75 -2287.55 -2134.52 -1986.64 -1843.89 -1706.25 -1573.7 -1446.2 -1323.76 -1206.34 -1093.92 -986.503 -884.06 -786.578 -694.046 -606.449 -523.778 -446.022 -373.17 -305.216 -242.152 -183.972 -130.67 -82.243 -38.6869 0 -60000 -58981.2 -57925.9 -56838.7 -55727.2 -54600.3 -53467.2 -52335.6 -51212.1 -50101.4 -49007.1 -47931.3 -46875.7 -45841.1 -44827.9 -43836 -42865.5 -41915.8 -40986.6 -40077.3 -39187.4 -38316.3 -37463.5 -36628.3 -35810.2 -35008.7 -34223.3 -33453.4 -32698.5 -31958.3 -31232.2 -30519.9 -29820.9 -29135 -28461.7 -27800.7 -27151.7 -26514.5 -25888.6 -25273.8 -24670 -24076.8 -23494 -22921.4 -22358.7 -21805.9 -21262.6 -20728.7 -20204.1 -19688.5 -19181.8 -18683.8 -18194.4 -17713.5 -17241 -16776.6 -16320.2 -15871.9 -15431.3 -14998.5 -14573.3 -14155.6 -13745.4 -13342.4 -12946.7 -12558.1 -12176.5 -11801.9 -11434.2 -11073.3 -10719.1 -10371.6 -10030.7 -9696.23 -9368.25 -9046.65 -8731.36 -8422.33 -8119.49 -7822.8 -7532.18 -7247.59 -6968.97 -6696.28 -6429.45 -6168.45 -5913.22 -5663.72 -5419.91 -5181.74 -4949.16 -4722.15 -4500.65 -4284.63 -4074.06 -3868.89 -3669.1 -3474.64 -3285.49 -3101.61 -2922.97 -2749.55 -2581.32 -2418.24 -2260.3 -2107.47 -1959.72 -1817.03 -1679.38 -1546.74 -1419.11 -1296.46 -1178.77 -1066.02 -958.205 -855.305 -757.307 -664.199 -575.968 -492.604 -414.098 -340.442 -271.628 -207.649 -148.501 -94.1788 -44.6792 0 -60000 -59009.7 -57986.7 -56934.6 -55859.1 -54767.1 -53666.4 -52564 -51466 -50377.2 -49301.5 -48241.4 -47198.8 -46175 -45170.7 -44186.2 -43221.5 -42276.6 -41351.2 -40444.8 -39557.1 -38687.7 -37835.9 -37001.4 -36183.6 -35382 -34596.2 -33825.6 -33069.9 -32328.7 -31601.4 -30887.8 -30187.4 -29499.8 -28824.9 -28162.1 -27511.2 -26872 -26244.1 -25627.3 -25021.3 -24425.9 -23840.8 -23265.9 -22700.9 -22145.6 -21599.9 -21063.5 -20536.3 -20018.1 -19508.8 -19008.2 -18516.1 -18032.4 -17557.1 -17089.9 -16630.7 -16179.4 -15735.9 -15300.2 -14871.9 -14451.2 -14037.8 -13631.7 -13232.8 -12841 -12456.2 -12078.3 -11707.3 -11343 -10985.4 -10634.5 -10290 -9952.09 -9620.53 -9295.32 -8976.38 -8663.65 -8357.08 -8056.61 -7762.17 -7473.72 -7191.2 -6914.55 -6643.74 -6378.7 -6119.4 -5865.78 -5617.81 -5375.43 -5138.6 -4907.29 -4681.46 -4461.06 -4246.05 -4036.42 -3832.1 -3633.08 -3439.33 -3250.8 -3067.46 -2889.3 -2716.28 -2548.37 -2385.55 -2227.79 -2075.07 -1927.36 -1784.65 -1646.9 -1514.11 -1386.26 -1263.31 -1145.27 -1032.11 -923.814 -820.374 -721.776 -628.007 -539.057 -454.917 -375.577 -301.03 -231.27 -166.291 -106.089 -50.6591 0 -60000 -59035.1 -58040.8 -57019.9 -55976.7 -54917 -53846.8 -52772.6 -51699.8 -50633.2 -49576.6 -48532.9 -47504.3 -46492.3 -45497.9 -44521.6 -43563.7 -42624.4 -41703.4 -40800.7 -39915.9 -39048.7 -38198.6 -37365.2 -36548.1 -35746.9 -34961.1 -34190.3 -33434.2 -32692.2 -31964 -31249.3 -30547.7 -29858.8 -29182.4 -28518 -27865.5 -27224.5 -26594.8 -25976 -25368 -24770.5 -24183.3 -23606.2 -23039 -22481.4 -21933.3 -21394.6 -20864.9 -20344.2 -19832.4 -19329.2 -18834.5 -18348.2 -17870.1 -17400.2 -16938.2 -16484.1 -16037.8 -15599.1 -15167.9 -14744.2 -14327.8 -13918.6 -13516.6 -13121.6 -12733.7 -12352.5 -11978.2 -11610.6 -11249.7 -10895.3 -10547.5 -10206 -9870.97 -9542.2 -9219.66 -8903.29 -8593.03 -8288.82 -7990.62 -7698.35 -7411.97 -7131.42 -6856.67 -6587.64 -6324.31 -6066.61 -5814.52 -5567.97 -5326.94 -5091.38 -4861.25 -4636.5 -4417.12 -4203.04 -3994.25 -3790.71 -3592.39 -3399.24 -3211.25 -3028.38 -2850.61 -2677.9 -2510.24 -2347.58 -2189.92 -2037.23 -1889.48 -1746.66 -1608.74 -1475.71 -1347.54 -1224.23 -1105.75 -992.086 -883.229 -779.166 -679.882 -585.368 -495.615 -410.612 -330.352 -254.829 -184.036 -117.97 -56.6251 0 -60000 -59057.9 -58089.3 -57096.3 -56082.5 -55052.2 -54010.7 -52963.3 -51915.1 -50870.6 -49833.4 -48806.8 -47792.8 -46793.3 -45809.5 -44842.3 -43892 -42959 -42043.3 -41145 -40263.7 -39399.2 -38551.3 -37719.6 -36903.7 -36103.3 -35317.9 -34547.3 -33791 -33048.6 -32319.9 -31604.4 -30901.8 -30211.8 -29534.1 -28868.4 -28214.4 -27571.8 -26940.4 -26319.9 -25710 -25110.6 -24521.5 -23942.3 -23372.9 -22813.2 -22262.9 -21721.8 -21189.8 -20666.8 -20152.5 -19646.8 -19149.6 -18660.7 -18180 -17707.4 -17242.7 -16785.9 -16336.7 -15895.2 -15461.1 -15034.5 -14615.1 -14203 -13797.9 -13399.9 -13008.7 -12624.5 -12246.9 -11876.1 -11511.9 -11154.2 -10802.9 -10458.1 -10119.5 -9787.23 -9461.14 -9141.18 -8827.28 -8519.4 -8217.47 -7921.43 -7631.24 -7346.84 -7068.18 -6795.22 -6527.9 -6266.17 -6010 -5759.34 -5514.14 -5274.37 -5039.98 -4810.94 -4587.2 -4368.74 -4155.51 -3947.49 -3744.63 -3546.91 -3354.3 -3166.76 -2984.27 -2806.8 -2634.33 -2466.82 -2304.25 -2146.61 -1993.86 -1845.99 -1702.97 -1564.8 -1431.44 -1302.88 -1179.11 -1060.1 -945.857 -836.353 -731.58 -631.526 -536.181 -445.537 -359.585 -278.319 -201.731 -129.818 -62.5755 0 -60000 -59078.7 -58133.3 -57165.5 -56178.1 -55174.9 -54160 -53138.1 -52113.7 -51090.8 -50073.2 -49063.7 -48064.9 -47078.5 -46106.1 -45148.5 -44206.5 -43280.6 -42370.8 -41477.4 -40600.2 -39739.1 -38893.9 -38064.4 -37250.1 -36450.9 -35666.4 -34896.3 -34140.2 -33397.8 -32668.7 -31952.7 -31249.5 -30558.6 -29879.9 -29213.1 -28557.8 -27913.8 -27280.9 -26658.8 -26047.2 -25446.1 -24855 -24274 -23702.6 -23140.8 -22588.4 -22045.1 -21510.9 -20985.6 -20468.9 -19960.9 -19461.2 -18969.8 -18486.6 -18011.4 -17544.1 -17084.6 -16632.7 -16188.4 -15751.6 -15322.1 -14899.8 -14484.7 -14076.7 -13675.6 -13281.4 -12894 -12513.4 -12139.3 -11771.8 -11410.9 -11056.3 -10708.1 -10366.1 -10030.4 -9700.77 -9377.27 -9059.79 -8748.27 -8442.67 -8142.91 -7848.96 -7560.76 -7278.25 -7001.39 -6730.12 -6464.41 -6204.21 -5949.47 -5700.16 -5456.22 -5217.62 -4984.31 -4756.28 -4533.46 -4315.84 -4103.37 -3896.03 -3693.77 -3496.57 -3304.4 -3117.24 -2935.04 -2757.79 -2585.46 -2418.03 -2255.46 -2097.75 -1944.86 -1796.78 -1653.49 -1514.97 -1381.2 -1252.17 -1127.85 -1008.24 -893.323 -783.086 -677.517 -576.606 -480.343 -388.722 -301.733 -219.371 -141.631 -68.5086 0 -60000 -59097.7 -58173.3 -57228.4 -56265.2 -55286.7 -54296.6 -53298.7 -52297 -51295.3 -50296.9 -49304.7 -48321.2 -47348.5 -46387.9 -45440.6 -44507.5 -43589.2 -42686 -41798.1 -40925.6 -40068.4 -39226.4 -38399.5 -37587.4 -36789.8 -36006.5 -35237.3 -34481.7 -33739.6 -33010.5 -32294.3 -31590.6 -30899.1 -30219.6 -29551.8 -28895.5 -28250.3 -27616.1 -26992.5 -26379.5 -25776.7 -25184 -24601.1 -24027.9 -23464.2 -22909.7 -22364.4 -21828.1 -21300.6 -20781.7 -20271.3 -19769.3 -19275.6 -18789.9 -18312.2 -17842.3 -17380.2 -16925.7 -16478.7 -16039.1 -15606.9 -15181.8 -14763.8 -14352.8 -13948.8 -13551.6 -13161.2 -12777.4 -12400.2 -12029.6 -11665.4 -11307.5 -10956 -10610.7 -10271.5 -9938.5 -9611.5 -9290.49 -8975.39 -8666.16 -8362.74 -8065.08 -7773.12 -7486.8 -7206.1 -6930.94 -6661.29 -6397.11 -6138.34 -5884.94 -5636.88 -5394.11 -5156.6 -4924.3 -4697.18 -4475.2 -4258.33 -4046.53 -3839.78 -3638.04 -3441.28 -3249.47 -3062.59 -2880.6 -2703.49 -2531.22 -2363.77 -2201.13 -2043.26 -1890.15 -1741.78 -1598.12 -1459.17 -1324.91 -1195.31 -1070.36 -950.061 -834.387 -723.329 -616.877 -515.021 -417.754 -325.066 -236.952 -153.406 -74.4229 0 -60000 -59115.1 -58210 -57285.9 -56344.8 -55389.2 -54422 -53446.7 -52466.6 -51485.3 -50505.7 -49530.7 -48562.7 -47603.7 -46655.4 -45718.9 -44795.2 -43885 -42988.9 -42107.1 -41239.7 -40386.9 -39548.7 -38724.8 -37915.3 -37119.7 -36338.1 -35570.1 -34815.4 -34073.8 -33345.1 -32628.9 -31925 -31233.2 -30553.2 -29884.6 -29227.4 -28581.2 -27945.8 -27321.1 -26706.7 -26102.4 -25508.1 -24923.6 -24348.7 -23783.2 -23226.9 -22679.6 -22141.3 -21611.7 -21090.7 -20578.1 -20073.9 -19577.8 -19089.7 -18609.6 -18137.3 -17672.7 -17215.6 -16766 -16323.8 -15888.8 -15460.9 -15040.1 -14626.3 -14219.4 -13819.3 -13425.8 -13039 -12658.8 -12285 -11917.6 -11556.6 -11201.8 -10853.2 -10510.7 -10174.3 -9843.83 -9519.34 -9200.71 -8887.91 -8580.88 -8279.55 -7983.88 -7693.81 -7409.3 -7130.3 -6856.76 -6588.64 -6325.88 -6068.46 -5816.32 -5569.43 -5327.74 -5091.23 -4859.84 -4633.55 -4412.32 -4196.12 -3984.91 -3778.66 -3577.35 -3380.94 -3189.41 -3002.73 -2820.86 -2643.8 -2471.51 -2303.97 -2141.15 -1983.05 -1829.63 -1680.88 -1536.77 -1397.31 -1262.46 -1132.21 -1006.55 -885.469 -768.951 -656.985 -549.562 -446.673 -348.311 -254.467 -165.138 -80.3165 0 -60000 -59131.2 -58243.8 -57338.8 -56418 -55483.4 -54537.6 -53583.4 -52623.8 -51662 -50700.7 -49742.7 -48790.1 -47845.1 -46909.2 -45983.7 -45069.9 -44168.3 -43279.7 -42404.4 -41542.7 -40694.8 -39860.7 -39040.4 -38233.7 -37440.7 -36661 -35894.6 -35141.1 -34400.4 -33672.3 -32956.4 -32252.7 -31560.7 -30880.3 -30211.3 -29553.4 -28906.4 -28270.1 -27644.3 -27028.7 -26423.1 -25827.4 -25241.4 -24664.9 -24097.7 -23539.7 -22990.6 -22450.4 -21918.8 -21395.7 -20881.1 -20374.7 -19876.4 -19386.1 -18903.6 -18428.9 -17961.9 -17502.3 -17050.2 -16605.3 -16167.7 -15737.2 -15313.7 -14897.1 -14487.3 -14084.3 -13688 -13298.2 -12914.9 -12538.1 -12167.6 -11803.4 -11445.4 -11093.6 -10747.8 -10408 -10074.2 -9746.27 -9424.18 -9107.86 -8797.25 -8492.32 -8192.99 -7899.22 -7610.96 -7328.16 -7050.78 -6778.76 -6512.07 -6250.66 -5994.5 -5743.52 -5497.71 -5257.02 -5021.42 -4790.86 -4565.31 -4344.74 -4129.12 -3918.41 -3712.59 -3511.62 -3315.48 -3124.14 -2937.57 -2755.74 -2578.64 -2406.24 -2238.52 -2075.45 -1917.02 -1763.2 -1613.99 -1469.35 -1329.28 -1193.76 -1062.78 -936.32 -814.369 -696.918 -583.955 -475.472 -371.461 -271.914 -176.824 -86.188 0 -60000 -59146.1 -58275 -57387.7 -56485.5 -55570.4 -54644.3 -53709.9 -52769.8 -51826.7 -50883.1 -49941.5 -49004.2 -48073.1 -47149.8 -46235.7 -45331.9 -44439.4 -43558.7 -42690.3 -41834.7 -40992.1 -40162.5 -39346.1 -38542.8 -37752.6 -36975.2 -36210.7 -35458.8 -34719.3 -33992 -33276.8 -32573.4 -31881.5 -31201.1 -30531.8 -29873.4 -29225.8 -28588.8 -27962 -27345.4 -26738.7 -26141.8 -25554.4 -24976.4 -24407.7 -23848 -23297.2 -22755.2 -22221.8 -21696.8 -21180.2 -20671.7 -20171.3 -19678.8 -19194.1 -18717.2 -18247.7 -17785.8 -17331.2 -16883.8 -16443.6 -16010.5 -15584.3 -15165 -14752.5 -14346.7 -13947.5 -13554.8 -13168.6 -12788.8 -12415.2 -12047.9 -11686.8 -11331.8 -10982.7 -10639.7 -10302.6 -9971.25 -9645.74 -9325.95 -9011.83 -8703.33 -8400.4 -8102.98 -7811.02 -7524.47 -7243.29 -6967.44 -6696.86 -6431.51 -6171.36 -5916.36 -5666.47 -5421.65 -5181.87 -4947.08 -4717.26 -4492.37 -4272.38 -4057.25 -3846.96 -3641.47 -3440.76 -3244.8 -3053.56 -2867.02 -2685.15 -2507.93 -2335.33 -2167.34 -2003.93 -1845.09 -1690.79 -1541.02 -1395.77 -1255.01 -1118.73 -986.925 -859.573 -736.665 -618.192 -504.143 -394.51 -289.286 -188.463 -92.0356 0 -60000 -59159.9 -58304 -57432.9 -56548.1 -55650.9 -54743.3 -53827.5 -52905.7 -51980.3 -51053.7 -50128.2 -49205.9 -48288.6 -47377.9 -46475.3 -45581.8 -44698.5 -43826 -42965 -42115.8 -41278.8 -40454.2 -39642.1 -38842.5 -38055.4 -37280.7 -36518.4 -35768.4 -35030.4 -34304.3 -33589.9 -32887.1 -32195.6 -31515.3 -30846 -30187.4 -29539.3 -28901.7 -28274.2 -27656.7 -27049 -26451 -25862.4 -25283.2 -24713 -24151.8 -23599.5 -23055.8 -22520.6 -21993.9 -21475.3 -20964.9 -20462.5 -19967.9 -19481.1 -19001.9 -18530.2 -18065.9 -17608.9 -17159.2 -16716.5 -16280.8 -15852.1 -15430.1 -15014.9 -14606.3 -14204.3 -13808.8 -13419.7 -13036.9 -12660.4 -12290.1 -11925.9 -11567.7 -11215.5 -10869.2 -10528.8 -10194.2 -9865.34 -9542.14 -9224.56 -8912.56 -8606.06 -8305.04 -8009.43 -7719.19 -7434.27 -7154.62 -6880.2 -6610.97 -6346.88 -6087.89 -5833.97 -5585.07 -5341.15 -5102.19 -4868.14 -4638.98 -4414.66 -4195.15 -3980.43 -3770.47 -3565.23 -3364.69 -3168.82 -2977.6 -2791 -2609 -2431.56 -2258.69 -2090.34 -1926.51 -1767.17 -1612.3 -1461.89 -1315.93 -1174.39 -1037.27 -904.549 -776.217 -652.264 -532.679 -417.453 -306.579 -200.049 -97.8577 0 -60000 -59172.8 -58330.9 -57475 -56606.2 -55725.8 -54835.4 -53936.9 -53032.3 -52123.9 -51213.6 -50303.6 -49395.9 -48492.2 -47594.1 -46702.9 -45819.9 -44946 -44082 -43228.6 -42386.2 -41555.2 -40735.8 -39928.3 -39132.7 -38349.1 -37577.5 -36817.7 -36069.8 -35333.6 -34608.9 -33895.7 -33193.7 -32502.9 -31822.9 -31153.7 -30495.1 -29846.8 -29208.8 -28580.7 -27962.6 -27354.1 -26755.1 -26165.5 -25585 -25013.6 -24451.1 -23897.2 -23352 -22815.2 -22286.7 -21766.4 -21254.1 -20749.8 -20253.2 -19764.3 -19283 -18809.2 -18342.7 -17883.4 -17431.3 -16986.2 -16548 -16116.8 -15692.2 -15274.4 -14863.2 -14458.5 -14060.2 -13668.2 -13282.6 -12903.2 -12529.8 -12162.6 -11801.4 -11446.1 -11096.6 -10753 -10415.1 -10082.9 -9756.37 -9435.39 -9119.93 -8809.94 -8505.36 -8206.16 -7912.27 -7623.65 -7340.26 -7062.05 -6788.98 -6521 -6258.08 -6000.17 -5747.24 -5499.24 -5256.14 -5017.91 -4784.51 -4555.91 -4332.08 -4112.97 -3898.58 -3688.85 -3483.78 -3283.32 -3087.46 -2896.17 -2709.42 -2527.2 -2349.47 -2176.23 -2007.44 -1843.09 -1683.16 -1527.64 -1376.51 -1229.75 -1087.34 -949.286 -815.562 -686.16 -561.07 -440.282 -323.788 -211.58 -103.653 0 -60000 -59184.9 -58356.1 -57514.3 -56660.4 -55795.5 -54921.2 -54039 -53150.7 -52258.3 -51363.6 -50468.6 -49575.1 -48684.7 -47799 -46919.3 -46046.8 -45182.4 -44327.1 -43481.5 -42646.1 -41821.3 -41007.5 -40205 -39413.7 -38633.9 -37865.5 -37108.6 -36363.1 -35628.9 -34906 -34194.1 -33493.2 -32803.2 -32123.8 -31455 -30796.5 -30148.2 -29509.9 -28881.5 -28262.9 -27653.7 -27053.9 -26463.4 -25881.9 -25309.4 -24745.6 -24190.4 -23643.8 -23105.5 -22575.4 -22053.4 -21539.4 -21033.2 -20534.7 -20043.9 -19560.5 -19084.6 -18615.9 -18154.4 -17700 -17252.6 -16812.1 -16378.4 -15951.4 -15531 -15117.2 -14709.8 -14308.8 -13914.1 -13525.6 -13143.3 -12767.1 -12396.9 -12032.7 -11674.3 -11321.8 -10975 -10633.9 -10298.5 -9968.6 -9644.27 -9325.41 -9011.97 -8703.9 -8401.15 -8103.67 -7811.41 -7524.33 -7242.38 -6965.51 -6693.7 -6426.89 -6165.04 -5908.12 -5656.09 -5408.9 -5166.54 -4928.95 -4696.11 -4467.99 -4244.55 -4025.76 -3811.6 -3602.03 -3397.03 -3196.58 -3000.64 -2809.19 -2622.21 -2439.68 -2261.57 -2087.87 -1918.55 -1753.6 -1593 -1436.73 -1284.78 -1137.13 -993.772 -854.69 -719.873 -589.31 -462.991 -340.908 -223.053 -109.419 0 -60000 -59196.2 -58379.7 -57551 -56711 -55860.7 -55001.3 -54134.4 -53261.5 -52384.2 -51504.4 -50623.8 -49744 -48866.7 -47993.1 -47124.8 -46262.8 -45408.1 -44561.6 -43723.9 -42895.7 -42077.5 -41269.5 -40472.1 -39685.4 -38909.7 -38144.9 -37391.1 -36648.2 -35916.4 -35195.3 -34485.1 -33785.6 -33096.6 -32418 -31749.7 -31091.6 -30443.5 -29805.2 -29176.6 -28557.5 -27947.9 -27347.5 -26756.1 -26173.8 -25600.2 -25035.3 -24479 -23931 -23391.3 -22859.7 -22336.2 -21820.5 -21312.6 -20812.3 -20319.6 -19834.3 -19356.4 -18885.7 -18422 -17965.5 -17515.8 -17073 -16636.9 -16207.4 -15784.6 -15368.2 -14958.3 -14554.6 -14157.2 -13766 -13380.9 -13001.9 -12628.8 -12261.6 -11900.2 -11544.6 -11194.8 -10850.5 -10511.9 -10178.8 -9851.16 -9528.95 -9212.12 -8900.6 -8594.36 -8293.34 -7997.49 -7706.77 -7421.13 -7140.53 -6864.92 -6594.27 -6328.54 -6067.68 -5811.66 -5560.44 -5313.98 -5072.26 -4835.23 -4602.86 -4375.13 -4152 -3933.44 -3719.42 -3509.92 -3304.91 -3104.37 -2908.26 -2716.57 -2529.27 -2346.34 -2167.76 -1993.52 -1823.58 -1657.94 -1496.58 -1339.48 -1186.62 -1037.99 -893.59 -753.393 -617.391 -485.575 -357.936 -234.465 -115.155 0 -60000 -59206.9 -58401.8 -57585.4 -56758.4 -55921.7 -55076.4 -54223.8 -53365.4 -52502.5 -51636.9 -50770.1 -49903.5 -49038.8 -48177.2 -47320.1 -46468.5 -45623.4 -44785.8 -43956.2 -43135.4 -42323.8 -41521.9 -40729.9 -39948 -39176.6 -38415.6 -37665.1 -36925.2 -36195.9 -35477.1 -34768.7 -34070.7 -33383 -32705.4 -32037.9 -31380.3 -30732.5 -30094.4 -29465.7 -28846.5 -28236.5 -27635.6 -27043.6 -26460.5 -25886.1 -25320.2 -24762.8 -24213.6 -23672.6 -23139.7 -22614.7 -22097.5 -21587.9 -21086 -20591.5 -20104.4 -19624.5 -19151.8 -18686.1 -18227.4 -17775.6 -17330.5 -16892.2 -16460.4 -16035.1 -15616.3 -15203.8 -14797.6 -14397.6 -14003.7 -13615.9 -13234.1 -12858.1 -12488 -12123.8 -11765.2 -11412.3 -11064.9 -10723.2 -10386.9 -10056 -9730.5 -9410.33 -9095.43 -8785.75 -8481.24 -8181.85 -7887.54 -7598.26 -7313.98 -7034.63 -6760.2 -6490.62 -6225.88 -5965.92 -5710.71 -5460.21 -5214.39 -4973.22 -4736.66 -4504.68 -4277.25 -4054.34 -3835.92 -3621.97 -3412.45 -3207.34 -3006.62 -2810.26 -2618.23 -2430.53 -2247.11 -2067.98 -1893.1 -1722.46 -1556.04 -1393.82 -1235.79 -1081.94 -932.252 -786.71 -645.305 -508.026 -374.865 -245.812 -120.859 0 -60000 -59216.9 -58422.6 -57617.8 -56802.9 -55979 -55146.9 -54307.8 -53463 -52613.8 -51761.6 -50908 -50054.2 -49201.8 -48351.8 -47505.7 -46664.4 -45828.9 -45000.1 -44178.7 -43365.4 -42560.6 -41764.9 -40978.5 -40201.7 -39434.7 -38677.8 -37930.9 -37194.1 -36467.6 -35751.1 -35044.8 -34348.6 -33662.3 -32986 -32319.4 -31662.6 -31015.3 -30377.5 -29749 -29129.7 -28519.5 -27918.3 -27325.8 -26742.1 -26167 -25600.2 -25041.8 -24491.6 -23949.4 -23415.2 -22888.9 -22370.2 -21859.2 -21355.6 -20859.4 -20370.6 -19888.9 -19414.3 -18946.6 -18485.9 -18032 -17584.8 -17144.2 -16710.1 -16282.6 -15861.3 -15446.4 -15037.7 -14635.1 -14238.7 -13848.2 -13463.6 -13084.9 -12712 -12344.8 -11983.3 -11627.4 -11277.1 -10932.2 -10592.8 -10258.7 -9930.02 -9606.56 -9288.33 -8975.26 -8667.32 -8364.45 -8066.61 -7773.74 -7485.82 -7202.79 -6924.62 -6651.26 -6382.68 -6118.83 -5859.68 -5605.19 -5355.33 -5110.06 -4869.35 -4633.18 -4401.49 -4174.28 -3951.5 -3733.14 -3519.15 -3309.53 -3104.23 -2903.24 -2706.54 -2514.1 -2325.9 -2141.91 -1962.13 -1786.53 -1615.09 -1447.8 -1284.64 -1125.6 -970.664 -819.815 -673.044 -530.34 -391.692 -257.091 -126.53 0 -60000 -59226.3 -58442.2 -57648.2 -56844.8 -56032.8 -55213.1 -54386.7 -53554.8 -52718.5 -51879.2 -51038.2 -50196.7 -49356.1 -48517.5 -47682.1 -46850.9 -46024.9 -45205 -44391.8 -43586 -42788.2 -41998.7 -41218.1 -40446.5 -39684.3 -38931.5 -38188.4 -37455 -36731.4 -36017.6 -35313.6 -34619.3 -33934.7 -33259.7 -32594.3 -31938.3 -31291.8 -30654.4 -30026.3 -29407.1 -28796.9 -28195.4 -27602.7 -27018.5 -26442.7 -25875.3 -25316 -24764.8 -24221.6 -23686.3 -23158.7 -22638.7 -22126.2 -21621.1 -21123.4 -20632.9 -20149.4 -19673 -19203.5 -18740.9 -18284.9 -17835.6 -17392.9 -16956.7 -16526.8 -16103.3 -15686 -15274.8 -14869.8 -14470.8 -14077.7 -13690.5 -13309.1 -12933.4 -12563.4 -12199 -11840.2 -11486.9 -11139 -10796.5 -10459.4 -10127.5 -9800.78 -9479.26 -9162.87 -8851.55 -8545.25 -8243.92 -7947.53 -7656.03 -7369.37 -7087.51 -6810.41 -6538.04 -6270.35 -6007.31 -5748.88 -5495.03 -5245.71 -5000.91 -4760.58 -4524.69 -4293.22 -4066.14 -3843.41 -3625 -3410.91 -3201.08 -2995.51 -2794.17 -2597.04 -2404.09 -2215.3 -2030.66 -1850.14 -1673.73 -1501.41 -1333.16 -1168.97 -1008.82 -852.701 -700.601 -552.508 -408.411 -268.299 -132.165 0 -60000 -59235.2 -58460.7 -57676.9 -56884.2 -56083.5 -55275.5 -54461.1 -53641.3 -52817.3 -51990.2 -51161.2 -50331.5 -49502.3 -48674.7 -47849.8 -47028.6 -46211.9 -45400.8 -44595.7 -43797.5 -43006.7 -42223.7 -41448.9 -40682.7 -39925.3 -39177 -38437.8 -37708 -36987.5 -36276.5 -35574.9 -34882.8 -34200 -33526.6 -32862.5 -32207.7 -31561.9 -30925.3 -30297.5 -29678.7 -29068.5 -28467.1 -27874.1 -27289.6 -26713.3 -26145.3 -25585.3 -25033.3 -24489.1 -23952.7 -23424 -22902.8 -22389 -21882.5 -21383.3 -20891.2 -20406.1 -19928 -19456.7 -18992.2 -18534.3 -18083 -17638.3 -17199.9 -16767.9 -16342.1 -15922.5 -15509 -15101.5 -14700 -14304.4 -13914.6 -13530.5 -13152.2 -12779.4 -12412.3 -12050.6 -11694.4 -11343.5 -10998 -10657.8 -10322.8 -9992.92 -9668.19 -9348.52 -9033.88 -8724.2 -8419.45 -8119.58 -7824.55 -7534.31 -7248.82 -6968.04 -6691.93 -6420.46 -6153.58 -5891.25 -5633.46 -5380.15 -5131.29 -4886.86 -4646.82 -4411.14 -4179.79 -3952.74 -3729.97 -3511.45 -3297.14 -3087.04 -2881.11 -2679.33 -2481.67 -2288.13 -2098.67 -1913.27 -1731.93 -1554.62 -1381.32 -1212.02 -1046.7 -885.357 -727.969 -574.526 -425.018 -279.433 -137.763 0 -60000 -59243.7 -58478.2 -57704 -56921.5 -56131.3 -55334.3 -54531.2 -53723 -52910.6 -52095.1 -51277.6 -50459.2 -49640.9 -48824 -48009.3 -47197.8 -46390.4 -45587.8 -44790.9 -44000.3 -43216.5 -42440 -41671.2 -40910.4 -40158 -39414.2 -38679.2 -37953.1 -37235.9 -36527.9 -35828.9 -35139.1 -34458.3 -33786.7 -33124.1 -32470.5 -31825.8 -31189.9 -30562.8 -29944.3 -29334.5 -28733.1 -28140.1 -27555.3 -26978.7 -26410.2 -25849.6 -25296.9 -24751.9 -24214.6 -23684.8 -23162.5 -22647.5 -22139.7 -21639.1 -21145.5 -20658.9 -20179.1 -19706.1 -19239.8 -18780.1 -18326.9 -17880.2 -17439.8 -17005.6 -16577.7 -16155.8 -15740.1 -15330.2 -14926.3 -14528.2 -14135.9 -13749.3 -13368.3 -12992.9 -12623 -12258.5 -11899.4 -11545.7 -11197.2 -10854 -10515.9 -10183 -9855.06 -9532.18 -9214.27 -8901.27 -8593.15 -8289.86 -7991.35 -7697.58 -7408.51 -7124.1 -6844.31 -6569.1 -6298.44 -6032.27 -5770.58 -5513.33 -5260.47 -5011.99 -4767.84 -4528 -4292.44 -4061.12 -3834.03 -3611.13 -3392.39 -3177.8 -2967.32 -2760.94 -2558.63 -2360.37 -2166.13 -1975.91 -1789.68 -1607.42 -1429.11 -1254.75 -1084.31 -917.775 -755.139 -596.388 -441.508 -290.49 -143.324 0 -60000 -59251.7 -58494.7 -57729.6 -56956.7 -56176.5 -55389.9 -54597.5 -53800.1 -52998.7 -52194.3 -51387.7 -50580.1 -49772.5 -48965.8 -48161 -47359 -46560.6 -45766.6 -44977.8 -44194.7 -43417.9 -42647.9 -41885.1 -41129.9 -40382.6 -39643.5 -38912.7 -38190.4 -37476.7 -36771.8 -36075.6 -35388.3 -34709.7 -34040 -33379 -32726.8 -32083.3 -31448.4 -30822 -30204.1 -29594.7 -28993.5 -28400.5 -27815.7 -27238.9 -26670 -26109 -25555.6 -25010 -24471.8 -23941.1 -23417.7 -22901.6 -22392.6 -21890.7 -21395.7 -20907.6 -20426.3 -19951.7 -19483.7 -19022.3 -18567.3 -18118.6 -17676.2 -17240.1 -16810 -16386 -15968 -15555.9 -15149.7 -14749.2 -14354.4 -13965.3 -13581.7 -13203.7 -12831.1 -12463.9 -12102.1 -11745.5 -11394.1 -11047.9 -10706.8 -10370.8 -10039.8 -9713.8 -9392.67 -9076.42 -8764.98 -8458.32 -8156.39 -7859.15 -7566.56 -7278.57 -6995.15 -6716.26 -6441.86 -6171.91 -5906.38 -5645.23 -5388.42 -5135.94 -4887.74 -4643.79 -4404.06 -4168.52 -3937.15 -3709.92 -3486.8 -3267.77 -3052.79 -2841.86 -2634.93 -2432 -2233.04 -2038.04 -1846.96 -1659.8 -1476.53 -1297.14 -1121.62 -949.945 -782.105 -618.086 -457.877 -301.467 -148.844 0 -60000 -59259.2 -58510.4 -57753.8 -56990 -56219.3 -55442.5 -54660.1 -53873.1 -53082.2 -52288.2 -51492.1 -50694.9 -49897.4 -49100.6 -48305.4 -47512.6 -46723 -45937.5 -45156.5 -44380.9 -43611.1 -42847.6 -42090.9 -41341.4 -40599.3 -39864.9 -39138.5 -38420.1 -37710.1 -37008.4 -36315.1 -35630.4 -34954.2 -34286.5 -33627.3 -32976.6 -32334.4 -31700.6 -31075.2 -30458 -29849.1 -29248.2 -28655.5 -28070.7 -27493.8 -26924.7 -26363.3 -25809.4 -25263.2 -24724.3 -24192.8 -23668.5 -23151.3 -22641.2 -22138.1 -21641.8 -21152.4 -20669.6 -20193.5 -19723.9 -19260.8 -18