<?xml version="1.0"?> 
<VTKFile type="StructuredGrid" version="0.1"> 
<StructuredGrid WholeExtent="0 7 0 7 0 0"> 
<Piece Extent="0 7 0 7 0 0"> 
<PointData>
<DataArray type="Float32" Name="|E|" format="ascii" NumberOfComponents="3"> 
-990537 -337927 0 819842 310042 0 3.75654e+06 1.74984e+06 0 3.50372e+06 3.26698e+06 0 -1.8842e+07 6.35371e+06 0 5.86888e+06 262430 0 176487 22169.6 0 -614635 -98819.4 0 431906 1.82938e+06 0 1.0439e+06 3.21521e+06 0 543079 4.03307e+06 0 68961 4.24349e+06 0 2.79044e+07 2223.61 0 3.05739e+06 3.94938e+06 0 3.12329e+06 2.91505e+06 0 2.0731e+06 1.67917e+06 0 -214983 3.5765e+06 0 -395074 3.77703e+06 0 -539557 3.65665e+06 0 -532565 3.5532e+06 0 1.4332e+06 3.24542e+06 0 1.51416e+06 3.34719e+06 0 1.53863e+06 3.64539e+06 0 1.75349e+06 3.4497e+06 0 -269844 3.68631e+06 0 -384140 3.68369e+06 0 -418334 3.74275e+06 0 -619369 3.82209e+06 0 1.33354e+06 3.55838e+06 0 1.31347e+06 3.48423e+06 0 1.52731e+06 3.33661e+06 0 1.49488e+06 3.38073e+06 0 -727990 3.92981e+06 0 -590255 4.00763e+06 0 -795478 4.08192e+06 0 960059 3.91653e+06 0 1.11098e+06 3.87172e+06 0 1.13316e+06 3.81713e+06 0 1.03738e+06 3.75335e+06 0 1.20283e+06 3.595e+06 0 706625 3.97783e+06 0 558808 3.93698e+06 0 618348 3.89807e+06 0 585636 3.86629e+06 0 508669 3.85145e+06 0 537249 3.82492e+06 0 653546 3.77763e+06 0 656481 3.74189e+06 0 277970 3.80468e+06 0 278336 3.7817e+06 0 239932 3.76175e+06 0 233132 3.74707e+06 0 263335 3.71996e+06 0 275490 3.69156e+06 0 272196 3.66858e+06 0 327631 3.6353e+06 0 0 3.81276e+06 0 0 3.78151e+06 0 0 3.74862e+06 0 0 3.70629e+06 0 0 3.67182e+06 0 0 3.64119e+06 0 0 3.60656e+06 0 0 3.57106e+06 0 </DataArray> 
</PointData> 
<Points> 
<DataArray type="Float32" NumberOfComponents="3"> 
0.1815 0.0504836 0 0.179776 0.0553204 0 0.178459 0.0585245 0 0.177551 0.0600959 0 0.177051 0.0600347 0 0.176959 0.0583408 0 0.177276 0.0550143 0 0.178 0.0500551 0 0.1815 0.0592717 0 0.180155 0.0634175 0 0.179159 0.0661638 0 0.178513 0.0675108 0 0.178217 0.0674583 0 0.178271 0.0660064 0 0.178675 0.0631551 0 0.179429 0.0589044 0 0.1815 0.0680597 0 0.180534 0.0715146 0 0.179859 0.0738032 0 0.179475 0.0749256 0 0.179383 0.0748819 0 0.179583 0.073672 0 0.180074 0.0712959 0 0.180857 0.0677536 0 0.1815 0.0768478 0 0.180913 0.0796116 0 0.180558 0.0814426 0 0.180437 0.0823405 0 0.18055 0.0823055 0 0.180895 0.0813376 0 0.181474 0.0794367 0 0.182286 0.0766029 0 0.1815 0.0856358 0 0.181292 0.0877087 0 0.181258 0.0890819 0 0.181399 0.0897554 0 0.181716 0.0897291 0 0.182207 0.0890032 0 0.182873 0.0875775 0 0.183714 0.0854522 0 0.1815 0.0944239 0 0.181671 0.0958058 0 0.181958 0.0967213 0 0.182362 0.0971703 0 0.182882 0.0971528 0 0.183519 0.0966688 0 0.184273 0.0957184 0 0.185143 0.0943015 0 0.1815 0.103212 0 0.18205 0.103903 0 0.182657 0.104361 0 0.183324 0.104585 0 0.184048 0.104576 0 0.184831 0.104334 0 0.185672 0.103859 0 0.186571 0.103151 0 0.1815 0.112 0 0.182429 0.112 0 0.183357 0.112 0 0.184286 0.112 0 0.185214 0.112 0 0.186143 0.112 0 0.187071 0.112 0 0.188 0.112 0 
</DataArray>
</Points> 
</Piece> 
</StructuredGrid> 
</VTKFile> 
