<?xml version="1.0"?> 
<VTKFile type="StructuredGrid" version="0.1"> 
<StructuredGrid WholeExtent="0 7 0 7 0 0"> 
<Piece Extent="0 7 0 7 0 0"> 
<PointData>
<DataArray type="Float32" Name="|E|" format="ascii" NumberOfComponents="3"> 
3.25824e+06 -1.34961e+06 0 2.13376e+06 629988 0 1.40125e+06 627291 0 1.01644e+06 472253 0 757823 327166 0 596312 202383 0 505434 96513.1 0 474296 0 0 3.63076e+06 -967509 0 2.08661e+06 778917 0 1.34821e+06 710337 0 955637 534431 0 704367 374566 0 548852 235721 0 461468 114436 0 428570 0 0 3.93776e+06 -495063 0 2.0373e+06 927658 0 1.29277e+06 797402 0 893158 597219 0 647472 421127 0 495725 267258 0 409757 130880 0 373165 0 0 4.16415e+06 50859.1 0 1.9915e+06 1.07713e+06 0 1.23423e+06 887505 0 829744 660899 0 587221 466959 0 437385 297250 0 351080 146032 0 309272 0 0 4.29719e+06 650088 0 1.955e+06 1.23045e+06 0 1.17183e+06 979048 0 766377 726151 0 523877 512114 0 374533 325938 0 286485 160008 0 238302 0 0 4.32682e+06 1.27904e+06 0 1.93299e+06 1.39315e+06 0 1.10498e+06 1.06969e+06 0 704111 794112 0 457883 556543 0 308044 353590 0 217222 172850 0 161870 0 0 4.24584e+06 1.91025e+06 0 1.92956e+06 1.57319e+06 0 1.03357e+06 1.15626e+06 0 643877 866355 0 389871 600067 0 238833 380519 0 144707 184497 0 81736.7 0 0 4.05025e+06 2.51149e+06 0 1.94725e+06 1.78093e+06 0 958061 1.23468e+06 0 586295 944774 0 320714 642329 0 167660 407095 0 70557 194744 0 -372.013 0 0 </DataArray> 
</PointData> 
<Points> 
<DataArray type="Float32" NumberOfComponents="3"> 
0.2018 0.0378 0 0.226257 0.0378 0 0.250714 0.0378 0 0.275171 0.0378 0 0.299629 0.0378 0 0.324086 0.0378 0 0.348543 0.0378 0 0.373 0.0378 0 0.202484 0.0398184 0 0.22742 0.0410734 0 0.25216 0.0423185 0 0.276707 0.0435538 0 0.301062 0.0447796 0 0.325227 0.0459958 0 0.349206 0.0472025 0 0.373 0.0484 0 0.202901 0.0419587 0 0.228176 0.0444908 0 0.253114 0.0469893 0 0.277724 0.0494548 0 0.302011 0.051888 0 0.325982 0.0542895 0 0.349643 0.05666 0 0.373 0.059 0 0.203026 0.0441667 0 0.228486 0.0479763 0 0.253537 0.0517247 0 0.27819 0.0554136 0 0.302454 0.0590442 0 0.326338 0.0626179 0 0.34985 0.0661361 0 0.373 0.0696 0 0.202846 0.0463814 0 0.228333 0.051447 0 0.253411 0.0564313 0 0.27809 0.0613363 0 0.302379 0.0661639 0 0.326288 0.0709159 0 0.349826 0.075594 0 0.373 0.0802 0 0.202366 0.0485402 0 0.22772 0.0548194 0 0.252737 0.0610152 0 0.277424 0.0671293 0 0.301788 0.0731633 0 0.325834 0.0791187 0 0.34957 0.0849971 0 0.373 0.0908 0 0.201608 0.0505849 0 0.226672 0.0580161 0 0.251539 0.0653888 0 0.276212 0.0727039 0 0.300692 0.0799618 0 0.324982 0.0871634 0 0.349084 0.0943093 0 0.373 0.1014 0 0.200607 0.0524662 0 0.225234 0.0609711 0 0.249862 0.0694759 0 0.27449 0.0779807 0 0.299117 0.0864855 0 0.323745 0.0949904 0 0.348372 0.103495 0 0.373 0.112 0 
</DataArray>
</Points> 
</Piece> 
</StructuredGrid> 
</VTKFile> 
