<?xml version="1.0"?> 
<VTKFile type="StructuredGrid" version="0.1"> 
<StructuredGrid WholeExtent="0 7 0 7 0 0"> 
<Piece Extent="0 7 0 7 0 0"> 
<PointData>
<DataArray type="Float32" Name="|E|" format="ascii" NumberOfComponents="3"> 
1.26022e+06 -524053 0 1.80568e+06 -32573.3 0 1.56073e+06 127985 0 1.19591e+06 126726 0 899222 94078 0 697855 58224 0 582557 28048.1 0 542797 0 0 1.32892e+06 -552622 0 1.82002e+06 -29576.6 0 1.55835e+06 148767 0 1.18949e+06 145461 0 894640 107253 0 694878 66530.7 0 580597 31971.1 0 541226 0 0 1.39614e+06 -580571 0 1.83657e+06 -24027.5 0 1.55569e+06 170229 0 1.18282e+06 164125 0 889760 120335 0 691644 74749.8 0 578410 35860.9 0 539433 0 0 1.46268e+06 -608242 0 1.85505e+06 -15836.2 0 1.55267e+06 192375 0 1.17589e+06 182725 0 884579 133317 0 688153 82881.1 0 575995 39715.6 0 537420 0 0 1.52937e+06 -635976 0 1.87522e+06 -4891.92 0 1.54924e+06 215203 0 1.16869e+06 201264 0 879097 146194 0 684406 90924 0 573354 43533.5 0 535190 0 0 1.59705e+06 -664119 0 1.89682e+06 8935.39 0 1.54529e+06 238710 0 1.16119e+06 219741 0 873313 158961 0 680405 98876.9 0 570485 47313.3 0 532742 0 0 1.66658e+06 -693035 0 1.91955e+06 25797.5 0 1.54077e+06 262882 0 1.15338e+06 238152 0 867227 171615 0 676151 106738 0 567391 51054 0 530080 0 0 1.73891e+06 -723110 0 1.94312e+06 45870.5 0 1.53558e+06 287704 0 1.14525e+06 256485 0 860835 184156 0 671646 114502 0 564071 54755 0 527203 0 0 </DataArray> 
</PointData> 
<Points> 
<DataArray type="Float32" NumberOfComponents="3"> 
0.1905 0.0099 0 0.216571 0.0099 0 0.242643 0.0099 0 0.268714 0.0099 0 0.294786 0.0099 0 0.320857 0.0099 0 0.346929 0.0099 0 0.373 0.0099 0 0.1911 0.0113429 0 0.217086 0.0113429 0 0.243071 0.0113429 0 0.269057 0.0113429 0 0.295043 0.0113429 0 0.321029 0.0113429 0 0.347014 0.0113429 0 0.373 0.0113429 0 0.1917 0.0127857 0 0.2176 0.0127857 0 0.2435 0.0127857 0 0.2694 0.0127857 0 0.2953 0.0127857 0 0.3212 0.0127857 0 0.3471 0.0127857 0 0.373 0.0127857 0 0.1923 0.0142286 0 0.218114 0.0142286 0 0.243929 0.0142286 0 0.269743 0.0142286 0 0.295557 0.0142286 0 0.321371 0.0142286 0 0.347186 0.0142286 0 0.373 0.0142286 0 0.1929 0.0156714 0 0.218629 0.0156714 0 0.244357 0.0156714 0 0.270086 0.0156714 0 0.295814 0.0156714 0 0.321543 0.0156714 0 0.347271 0.0156714 0 0.373 0.0156714 0 0.1935 0.0171143 0 0.219143 0.0171143 0 0.244786 0.0171143 0 0.270429 0.0171143 0 0.296071 0.0171143 0 0.321714 0.0171143 0 0.347357 0.0171143 0 0.373 0.0171143 0 0.1941 0.0185571 0 0.219657 0.0185571 0 0.245214 0.0185571 0 0.270771 0.0185571 0 0.296329 0.0185571 0 0.321886 0.0185571 0 0.347443 0.0185571 0 0.373 0.0185571 0 0.1947 0.02 0 0.220171 0.02 0 0.245643 0.02 0 0.271114 0.02 0 0.296586 0.02 0 0.322057 0.02 0 0.347529 0.02 0 0.373 0.02 0 
</DataArray>
</Points> 
</Piece> 
</StructuredGrid> 
</VTKFile> 
