<?xml version="1.0"?> 
<VTKFile type="StructuredGrid" version="0.1"> 
<StructuredGrid WholeExtent="0 7 0 7 0 0"> 
<Piece Extent="0 7 0 7 0 0"> 
<PointData>
<DataArray type="Float32" Name="|E|" format="ascii" NumberOfComponents="3"> 
-1.7111e+06 0 0 -1.74354e+06 265882 0 -1.83363e+06 551376 0 -1.96915e+06 848249 0 -2.07229e+06 1.21719e+06 0 -2.10616e+06 1.42163e+06 0 -1.88998e+06 1.18149e+06 0 -3.18783e+06 3.9153e+06 0 -1.60465e+06 0 0 -1.64716e+06 286791 0 -1.7427e+06 581692 0 -1.88072e+06 892505 0 -2.01133e+06 1.22116e+06 0 -2.06226e+06 1.42977e+06 0 -2.0493e+06 1.25647e+06 0 -2.43373e+06 2.57893e+06 0 -1.49042e+06 0 0 -1.5439e+06 305392 0 -1.64783e+06 612655 0 -1.79354e+06 929306 0 -1.94791e+06 1.24085e+06 0 -2.04184e+06 1.43784e+06 0 -2.12721e+06 1.29912e+06 0 -2.09826e+06 1.92563e+06 0 -1.36854e+06 0 0 -1.43463e+06 322647 0 -1.54891e+06 642511 0 -1.70598e+06 964498 0 -1.88425e+06 1.26829e+06 0 -2.02885e+06 1.45462e+06 0 -2.17569e+06 1.3276e+06 0 -1.95841e+06 1.52545e+06 0 -1.23958e+06 0 0 -1.31971e+06 338777 0 -1.44595e+06 671190 0 -1.61686e+06 999645 0 -1.81991e+06 1.30158e+06 0 -2.0169e+06 1.48167e+06 0 -2.21606e+06 1.35056e+06 0 -1.92292e+06 1.25844e+06 0 -1.10411e+06 0 0 -1.19945e+06 353856 0 -1.33887e+06 698743 0 -1.52518e+06 1.03529e+06 0 -1.75372e+06 1.3398e+06 0 -2.00284e+06 1.51915e+06 0 -2.25762e+06 1.3746e+06 0 -1.94909e+06 1.06422e+06 0 -962732 0 0 -1.07413e+06 367862 0 -1.22759e+06 725158 0 -1.43015e+06 1.07142e+06 0 -1.68434e+06 1.38229e+06 0 -1.98464e+06 1.56667e+06 0 -2.30403e+06 1.40477e+06 0 -2.01553e+06 914385 0 -816043 0 0 -944085 380713 0 -1.11206e+06 750275 0 -1.33116e+06 1.10775e+06 0 -1.61056e+06 1.42828e+06 0 -1.96048e+06 1.62357e+06 0 -2.35603e+06 1.44529e+06 0 -2.11178e+06 793362 0 </DataArray> 
</PointData> 
<Points> 
<DataArray type="Float32" NumberOfComponents="3"> 
0 0.045 0 0.0142857 0.045 0 0.0285714 0.045 0 0.0428571 0.045 0 0.0571429 0.045 0 0.0714286 0.045 0 0.0857143 0.045 0 0.1 0.045 0 0 0.0505 0 0.0142857 0.0499184 0 0.0285714 0.0493367 0 0.0428571 0.0487551 0 0.0571429 0.0481735 0 0.0714286 0.0475918 0 0.0857143 0.0470102 0 0.1 0.0464286 0 0 0.056 0 0.0142857 0.0548367 0 0.0285714 0.0536735 0 0.0428571 0.0525102 0 0.0571429 0.0513469 0 0.0714286 0.0501837 0 0.0857143 0.0490204 0 0.1 0.0478571 0 0 0.0615 0 0.0142857 0.0597551 0 0.0285714 0.0580102 0 0.0428571 0.0562653 0 0.0571429 0.0545204 0 0.0714286 0.0527755 0 0.0857143 0.0510306 0 0.1 0.0492857 0 0 0.067 0 0.0142857 0.0646735 0 0.0285714 0.0623469 0 0.0428571 0.0600204 0 0.0571429 0.0576939 0 0.0714286 0.0553673 0 0.0857143 0.0530408 0 0.1 0.0507143 0 0 0.0725 0 0.0142857 0.0695918 0 0.0285714 0.0666837 0 0.0428571 0.0637755 0 0.0571429 0.0608673 0 0.0714286 0.0579592 0 0.0857143 0.055051 0 0.1 0.0521429 0 0 0.078 0 0.0142857 0.0745102 0 0.0285714 0.0710204 0 0.0428571 0.0675306 0 0.0571429 0.0640408 0 0.0714286 0.060551 0 0.0857143 0.0570612 0 0.1 0.0535714 0 0 0.0835 0 0.0142857 0.0794286 0 0.0285714 0.0753571 0 0.0428571 0.0712857 0 0.0571429 0.0672143 0 0.0714286 0.0631429 0 0.0857143 0.0590714 0 0.1 0.055 0 
</DataArray>
</Points> 
</Piece> 
</StructuredGrid> 
</VTKFile> 
