<?xml version="1.0"?> 
<VTKFile type="StructuredGrid" version="0.1"> 
<StructuredGrid WholeExtent="0 7 0 7 0 0"> 
<Piece Extent="0 7 0 7 0 0"> 
<PointData>
<DataArray type="Float32" Name="|E|" format="ascii" NumberOfComponents="3"> 
299693 4.54547e+06 0 303540 4.60381e+06 0 308062 4.67241e+06 0 313490 4.75473e+06 0 320216 4.85674e+06 0 328979 4.98966e+06 0 341285 5.1763e+06 0 360396 5.46616e+06 0 595826 4.3256e+06 0 634460 4.34589e+06 0 678127 4.36636e+06 0 727484 4.38638e+06 0 783153 4.40503e+06 0 845580 4.4212e+06 0 914742 4.43382e+06 0 989574 4.44288e+06 0 631643 4.05029e+06 0 663210 4.04587e+06 0 696668 4.04013e+06 0 732028 4.03281e+06 0 769243 4.02368e+06 0 808124 4.01246e+06 0 848088 3.99885e+06 0 887471 3.9824e+06 0 550623 3.84775e+06 0 572529 3.83424e+06 0 595076 3.81966e+06 0 618205 3.80394e+06 0 641860 3.787e+06 0 666034 3.76877e+06 0 690909 3.74915e+06 0 717257 3.72788e+06 0 427058 3.71052e+06 0 441601 3.69367e+06 0 456387 3.67602e+06 0 471391 3.65754e+06 0 486576 3.63818e+06 0 501886 3.61791e+06 0 517202 3.59675e+06 0 532242 3.57489e+06 0 288451 3.62241e+06 0 297342 3.60434e+06 0 306314 3.58565e+06 0 315355 3.56635e+06 0 324447 3.54643e+06 0 333566 3.52589e+06 0 342653 3.50469e+06 0 351533 3.48272e+06 0 144900 3.57311e+06 0 149127 3.55464e+06 0 153370 3.53565e+06 0 157618 3.51612e+06 0 161862 3.49606e+06 0 166108 3.47547e+06 0 170416 3.45435e+06 0 175015 3.43267e+06 0 0 3.5572e+06 0 0 3.53864e+06 0 0 3.51957e+06 0 0 3.50002e+06 0 0 3.47999e+06 0 0 3.45952e+06 0 0 3.43857e+06 0 0 3.41681e+06 0 </DataArray> 
</PointData> 
<Points> 
<DataArray type="Float32" NumberOfComponents="3"> 
0.1815 0.0604836 0 0.182429 0.0604224 0 0.183357 0.0603612 0 0.184286 0.0603 0 0.185214 0.0602388 0 0.186143 0.0601775 0 0.187071 0.0601163 0 0.188 0.0600551 0 0.1815 0.0678431 0 0.182429 0.0677906 0 0.183357 0.0677382 0 0.184286 0.0676857 0 0.185214 0.0676332 0 0.186143 0.0675807 0 0.187071 0.0675283 0 0.188 0.0674758 0 0.1815 0.0752026 0 0.182429 0.0751589 0 0.183357 0.0751151 0 0.184286 0.0750714 0 0.185214 0.0750277 0 0.186143 0.0749839 0 0.187071 0.0749402 0 0.188 0.0748965 0 0.1815 0.0825621 0 0.182429 0.0825271 0 0.183357 0.0824921 0 0.184286 0.0824571 0 0.185214 0.0824221 0 0.186143 0.0823872 0 0.187071 0.0823522 0 0.188 0.0823172 0 0.1815 0.0899216 0 0.182429 0.0898953 0 0.183357 0.0898691 0 0.184286 0.0898428 0 0.185214 0.0898166 0 0.186143 0.0897904 0 0.187071 0.0897641 0 0.188 0.0897379 0 0.1815 0.097281 0 0.182429 0.0972635 0 0.183357 0.0972461 0 0.184286 0.0972286 0 0.185214 0.0972111 0 0.186143 0.0971936 0 0.187071 0.0971761 0 0.188 0.0971586 0 0.1815 0.104641 0 0.182429 0.104632 0 0.183357 0.104623 0 0.184286 0.104614 0 0.185214 0.104606 0 0.186143 0.104597 0 0.187071 0.104588 0 0.188 0.104579 0 0.1815 0.112 0 0.182429 0.112 0 0.183357 0.112 0 0.184286 0.112 0 0.185214 0.112 0 0.186143 0.112 0 0.187071 0.112 0 0.188 0.112 0 
</DataArray>
</Points> 
</Piece> 
</StructuredGrid> 
</VTKFile> 
