<?xml version="1.0"?> 
<VTKFile type="StructuredGrid" version="0.1"> 
<StructuredGrid WholeExtent="0 7 0 7 0 0"> 
<Piece Extent="0 7 0 7 0 0"> 
<PointData>
<DataArray type="Float32" Name="|E|" format="ascii" NumberOfComponents="3"> 
3.21633e+06 -1.33225e+06 0 2.08942e+06 622743 0 1.40899e+06 618437 0 1.01158e+06 473513 0 755585 327203 0 596302 202415 0 506980 96539.5 0 479272 0 0 3.80832e+06 -1.01483e+06 0 2.06761e+06 762436 0 1.35144e+06 702240 0 952063 535477 0 702106 374325 0 548709 235919 0 462849 114517 0 432513 0 0 4.31112e+06 -542002 0 2.03923e+06 907988 0 1.29276e+06 788906 0 890920 598239 0 645186 420617 0 495458 267546 0 411015 130996 0 376495 0 0 4.70766e+06 57497.3 0 2.00598e+06 1.05869e+06 0 1.23373e+06 878358 0 828417 661840 0 584987 466265 0 436978 297616 0 352213 146167 0 312000 0 0 4.9814e+06 753597 0 1.96939e+06 1.21386e+06 0 1.17521e+06 970656 0 765005 726440 0 521853 511527 0 373948 326375 0 287478 160170 0 240405 0 0 5.11963e+06 1.5134e+06 0 1.93085e+06 1.37282e+06 0 1.11805e+06 1.06592e+06 0 701271 792327 0 456272 556663 0 307244 354021 0 218053 173073 0 163315 0 0 5.11579e+06 2.30166e+06 0 1.89159e+06 1.5349e+06 0 1.06314e+06 1.16425e+06 0 637877 859889 0 388849 601893 0 237845 380691 0 145320 184859 0 82496.3 0 0 4.97074e+06 3.08227e+06 0 1.85265e+06 1.69937e+06 0 1.01133e+06 1.26569e+06 0 575491 929568 0 320257 647389 0 166736 406477 0 70756.4 195423 0 -16.1785 0 0 </DataArray> 
</PointData> 
<Points> 
<DataArray type="Float32" NumberOfComponents="3"> 
0.2018 0.0378 0 0.226257 0.0378 0 0.250714 0.0378 0 0.275171 0.0378 0 0.299629 0.0378 0 0.324086 0.0378 0 0.348543 0.0378 0 0.373 0.0378 0 0.202484 0.0398184 0 0.22742 0.0410734 0 0.25216 0.0423185 0 0.276707 0.0435538 0 0.301062 0.0447796 0 0.325227 0.0459958 0 0.349206 0.0472025 0 0.373 0.0484 0 0.202901 0.0419587 0 0.228176 0.0444908 0 0.253114 0.0469893 0 0.277724 0.0494548 0 0.302011 0.051888 0 0.325982 0.0542895 0 0.349643 0.05666 0 0.373 0.059 0 0.203026 0.0441667 0 0.228486 0.0479763 0 0.253537 0.0517247 0 0.27819 0.0554136 0 0.302454 0.0590442 0 0.326338 0.0626179 0 0.34985 0.0661361 0 0.373 0.0696 0 0.202846 0.0463814 0 0.228333 0.051447 0 0.253411 0.0564313 0 0.27809 0.0613363 0 0.302379 0.0661639 0 0.326288 0.0709159 0 0.349826 0.075594 0 0.373 0.0802 0 0.202366 0.0485402 0 0.22772 0.0548194 0 0.252737 0.0610152 0 0.277424 0.0671293 0 0.301788 0.0731633 0 0.325834 0.0791187 0 0.34957 0.0849971 0 0.373 0.0908 0 0.201608 0.0505849 0 0.226672 0.0580161 0 0.251539 0.0653888 0 0.276212 0.0727039 0 0.300692 0.0799618 0 0.324982 0.0871634 0 0.349084 0.0943093 0 0.373 0.1014 0 0.200607 0.0524662 0 0.225234 0.0609711 0 0.249862 0.0694759 0 0.27449 0.0779807 0 0.299117 0.0864855 0 0.323745 0.0949904 0 0.348372 0.103495 0 0.373 0.112 0 
</DataArray>
</Points> 
</Piece> 
</StructuredGrid> 
</VTKFile> 
