<?xml version="1.0"?> 
<VTKFile type="StructuredGrid" version="0.1"> 
<StructuredGrid WholeExtent="0 7 0 7 0 0"> 
<Piece Extent="0 7 0 7 0 0"> 
<PointData>
<DataArray type="Float32" Name="|E|" format="ascii" NumberOfComponents="3"> 
-1.58267e+06 1.77945e+06 0 -1.72171e+06 1.89534e+06 0 -1.89042e+06 1.99652e+06 0 -2.1078e+06 2.07299e+06 0 -2.40611e+06 2.10625e+06 0 -2.84375e+06 2.04066e+06 0 -3.53848e+06 1.67192e+06 0 -4.73587e+06 -4.41074e-06 0 -1.47883e+06 2.09589e+06 0 -1.63723e+06 2.20012e+06 0 -1.82929e+06 2.30152e+06 0 -2.07436e+06 2.39557e+06 0 -2.40909e+06 2.47089e+06 0 -2.91099e+06 2.49157e+06 0 -3.77378e+06 2.31594e+06 0 -5.58353e+06 1.19054e+06 0 -1.31233e+06 2.45936e+06 0 -1.48076e+06 2.56341e+06 0 -1.68339e+06 2.67553e+06 0 -1.93986e+06 2.7976e+06 0 -2.28897e+06 2.93083e+06 0 -2.81781e+06 3.06927e+06 0 -3.76303e+06 3.15931e+06 0 -5.95454e+06 2.75989e+06 0 -1.05651e+06 2.81688e+06 0 -1.22476e+06 2.92321e+06 0 -1.4235e+06 3.04731e+06 0 -1.67032e+06 3.19761e+06 0 -2.00071e+06 3.38905e+06 0 -2.49726e+06 3.64967e+06 0 -3.40089e+06 4.02932e+06 0 -5.69091e+06 4.48267e+06 0 -743115 3.10863e+06 0 -905651 3.21064e+06 0 -1.0914e+06 3.33742e+06 0 -1.31372e+06 3.50213e+06 0 -1.59946e+06 3.73028e+06 0 -2.01142e+06 4.07822e+06 0 -2.74444e+06 4.69659e+06 0 -4.75947e+06 6.04231e+06 0 -437013 3.32324e+06 0 -595068 3.4101e+06 0 -767884 3.52645e+06 0 -964228 3.68741e+06 0 -1.2005e+06 3.92316e+06 0 -1.51138e+06 4.30381e+06 0 -1.99942e+06 5.04294e+06 0 -3.29896e+06 7.1176e+06 0 -183477 3.49002e+06 0 -340237 3.55015e+06 0 -504258 3.64549e+06 0 -680835 3.79026e+06 0 -877363 4.0144e+06 0 -1.10344e+06 4.38688e+06 0 -1.35999e+06 5.12511e+06 0 -1.59533e+06 7.48199e+06 0 629.959 3.63901e+06 0 -153699 3.66097e+06 0 -311048 3.72763e+06 0 -473345 3.8518e+06 0 -640392 4.05649e+06 0 -807211 4.40527e+06 0 -896816 5.0784e+06 0 1.07288e-06 7.02547e+06 0 </DataArray> 
</PointData> 
<Points> 
<DataArray type="Float32" NumberOfComponents="3"> 
0.0678 0.0673333 0 0.0728286 0.0655714 0 0.0778571 0.0638095 0 0.0828857 0.0620476 0 0.0879143 0.0602857 0 0.0929429 0.0585238 0 0.0979714 0.0567619 0 0.103 0.055 0 0.0742571 0.0737143 0 0.0781377 0.0714863 0 0.0820994 0.0692117 0 0.0861448 0.066889 0 0.0902768 0.0645166 0 0.0944979 0.062093 0 0.0988113 0.0596165 0 0.10322 0.0570854 0 0.0807143 0.0800952 0 0.0836847 0.0774221 0 0.0867602 0.0746543 0 0.0899464 0.071787 0 0.0932494 0.0688145 0 0.0966757 0.065731 0 0.100232 0.0625302 0 0.103927 0.0592052 0 0.0871714 0.0864762 0 0.0894167 0.0833171 0 0.0917579 0.080023 0 0.0942013 0.076585 0 0.0967539 0.0729935 0 0.099423 0.069238 0 0.102217 0.0653069 0 0.105144 0.0611878 0 0.0936286 0.0928571 0 0.0952755 0.0891093 0 0.0969928 0.0852012 0 0.0987852 0.0811224 0 0.100658 0.0768616 0 0.102615 0.0724061 0 0.104665 0.0677425 0 0.106812 0.0628556 0 0.100086 0.0992381 0 0.1012 0.0947382 0 0.102354 0.0900792 0 0.103549 0.0852524 0 0.104789 0.0802487 0 0.106074 0.0750581 0 0.107409 0.06967 0 0.108795 0.0640728 0 0.106543 0.105619 0 0.107129 0.100147 0 0.107727 0.0945611 0 0.108337 0.0888568 0 0.108961 0.0830306 0 0.109598 0.0770785 0 0.110249 0.0709965 0 0.110915 0.0647801 0 0.113 0.112 0 0.113 0.105286 0 0.113 0.0985714 0 0.113 0.0918571 0 0.113 0.0851429 0 0.113 0.0784286 0 0.113 0.0717143 0 0.113 0.065 0 
</DataArray>
</Points> 
</Piece> 
</StructuredGrid> 
</VTKFile> 
