<?xml version="1.0"?> 
<VTKFile type="StructuredGrid" version="0.1"> 
<StructuredGrid WholeExtent="0 7 0 7 0 0"> 
<Piece Extent="0 7 0 7 0 0"> 
<PointData>
<DataArray type="Float32" Name="|E|" format="ascii" NumberOfComponents="3"> 
669.3 4.29153e-06 0 -47.4949 -62.9177 0 -30.1165 -0.0467542 0 -13.4274 -8.1303 0 -3.60021 1.72133 0 -2.14087 1.34206 0 -0.957533 -1.52627 0 -1.86333 3.99351e-06 0 261.019 6.49401e-07 0 -36.7161 -68.555 0 -25.7359 -16.7223 0 -10.8441 -4.20908 0 -4.87489 -0.916816 0 -1.44403 -0.265219 0 -0.689431 0.0204945 0 0.036017 3.49421e-07 0 126.466 4.41214e-07 0 -20.0578 -63.7374 0 -21.0723 -21.1799 0 -9.72996 -5.83023 0 -4.28783 -2.06634 0 -1.4809 -0.647985 0 -0.69609 -0.053036 0 -0.363902 3.83712e-07 0 72.3198 -7.13015e-07 0 -8.87165 -55.9384 0 -16.387 -23.0961 0 -8.2662 -7.8348 0 -3.53575 -2.8546 0 -1.39492 -0.950028 0 -0.62386 -0.251263 0 -0.447807 -5.99452e-07 0 44.3315 7.08271e-07 0 -2.94483 -48.6374 0 -11.8866 -24.2119 0 -6.42926 -9.36919 0 -2.74801 -3.4939 0 -1.15119 -1.23206 0 -0.501915 -0.390536 0 -0.374549 5.86733e-07 0 26.2091 -5.22472e-07 0 -0.428941 -43.1409 0 -7.68288 -24.855 0 -4.37453 -10.4011 0 -1.89128 -3.98093 0 -0.810294 -1.45506 0 -0.350987 -0.47925 0 -0.25988 -3.53437e-07 0 12.2801 -1.19209e-07 0 0.197014 -39.816 0 -3.75914 -25.1723 0 -2.20988 -10.9924 0 -0.965656 -4.28601 0 -0.416809 -1.59562 0 -0.180649 -0.529964 0 -0.132483 -5.32717e-07 0 -2.98023e-08 -1.43051e-06 0 -5.85197e-09 -38.7103 0 1.44546e-08 -25.2649 0 -3.41824e-08 -11.1853 0 4.59258e-08 -4.38973 0 -2.20025e-08 -1.64332 0 -5.58794e-09 -0.546773 0 -2.98023e-08 -3.75509e-06 0 </DataArray> 
</PointData> 
<Points> 
<DataArray type="Float32" NumberOfComponents="3"> 
0.13 0.035 0 0.137857 0.0342857 0 0.145714 0.0335714 0 0.153571 0.0328571 0 0.161429 0.0321429 0 0.169286 0.0314286 0 0.177143 0.0307143 0 0.185 0.03 0 0.13 0.0364286 0 0.137857 0.0358163 0 0.145714 0.0352041 0 0.153571 0.0345918 0 0.161429 0.0339796 0 0.169286 0.0333673 0 0.177143 0.0327551 0 0.185 0.0321429 0 0.13 0.0378571 0 0.137857 0.0373469 0 0.145714 0.0368367 0 0.153571 0.0363265 0 0.161429 0.0358163 0 0.169286 0.0353061 0 0.177143 0.0347959 0 0.185 0.0342857 0 0.13 0.0392857 0 0.137857 0.0388776 0 0.145714 0.0384694 0 0.153571 0.0380612 0 0.161429 0.0376531 0 0.169286 0.0372449 0 0.177143 0.0368367 0 0.185 0.0364286 0 0.13 0.0407143 0 0.137857 0.0404082 0 0.145714 0.040102 0 0.153571 0.0397959 0 0.161429 0.0394898 0 0.169286 0.0391837 0 0.177143 0.0388776 0 0.185 0.0385714 0 0.13 0.0421429 0 0.137857 0.0419388 0 0.145714 0.0417347 0 0.153571 0.0415306 0 0.161429 0.0413265 0 0.169286 0.0411224 0 0.177143 0.0409184 0 0.185 0.0407143 0 0.13 0.0435714 0 0.137857 0.0434694 0 0.145714 0.0433673 0 0.153571 0.0432653 0 0.161429 0.0431633 0 0.169286 0.0430612 0 0.177143 0.0429592 0 0.185 0.0428571 0 0.13 0.045 0 0.137857 0.045 0 0.145714 0.045 0 0.153571 0.045 0 0.161429 0.045 0 0.169286 0.045 0 0.177143 0.045 0 0.185 0.045 0 
</DataArray>
</Points> 
</Piece> 
</StructuredGrid> 
</VTKFile> 
