<?xml version="1.0"?> 
<VTKFile type="StructuredGrid" version="0.1"> 
<StructuredGrid WholeExtent="0 7 0 7 0 0"> 
<Piece Extent="0 7 0 7 0 0"> 
<PointData>
<DataArray type="Float32" Name="|E|" format="ascii" NumberOfComponents="3"> 
1.66137e+06 -662683 0 1.92085e+06 68287.7 0 1.5284e+06 287052 0 1.14215e+06 257583 0 858093 183831 0 670912 114797 0 565835 54822.7 0 532036 0 0 1.76335e+06 -703359 0 1.96218e+06 115072 0 1.51864e+06 331265 0 1.1271e+06 289779 0 846480 205583 0 662353 128246 0 559454 61304 0 526216 0 0 1.87247e+06 -746884 0 2.0024e+06 173312 0 1.50685e+06 377265 0 1.11081e+06 321548 0 833982 226978 0 652997 141413 0 552373 67613 0 519639 0 0 1.99578e+06 -796070 0 2.03891e+06 243580 0 1.49276e+06 425087 0 1.09327e+06 352628 0 820536 248055 0 642893 154309 0 544600 73689.4 0 512363 0 0 2.14626e+06 -856094 0 2.06846e+06 325860 0 1.47617e+06 474721 0 1.07453e+06 382738 0 806027 268853 0 632124 166962 0 536149 79459.1 0 504542 0 0 2.35049e+06 -937555 0 2.08753e+06 418979 0 1.45691e+06 525718 0 1.05473e+06 411836 0 790297 289328 0 620802 179378 0 527053 84897.2 0 496448 0 0 2.66553e+06 -1.06322e+06 0 2.09367e+06 519699 0 1.43473e+06 575919 0 1.03392e+06 440903 0 773293 309125 0 608974 191414 0 517346 90255.6 0 488301 0 0 3.21633e+06 -1.28292e+06 0 2.08942e+06 621391 0 1.40899e+06 617973 0 1.01158e+06 474074 0 755585 326972 0 596302 202343 0 506980 96722.5 0 479272 0 0 </DataArray> 
</PointData> 
<Points> 
<DataArray type="Float32" NumberOfComponents="3"> 
0.1947 0.02 0 0.220171 0.02 0 0.245643 0.02 0 0.271114 0.02 0 0.296586 0.02 0 0.322057 0.02 0 0.347529 0.02 0 0.373 0.02 0 0.195714 0.0225429 0 0.221041 0.0225429 0 0.246367 0.0225429 0 0.271694 0.0225429 0 0.29702 0.0225429 0 0.322347 0.0225429 0 0.347673 0.0225429 0 0.373 0.0225429 0 0.196729 0.0250857 0 0.22191 0.0250857 0 0.247092 0.0250857 0 0.272273 0.0250857 0 0.297455 0.0250857 0 0.322637 0.0250857 0 0.347818 0.0250857 0 0.373 0.0250857 0 0.197743 0.0276286 0 0.22278 0.0276286 0 0.247816 0.0276286 0 0.272853 0.0276286 0 0.29789 0.0276286 0 0.322927 0.0276286 0 0.347963 0.0276286 0 0.373 0.0276286 0 0.198757 0.0301714 0 0.223649 0.0301714 0 0.248541 0.0301714 0 0.273433 0.0301714 0 0.298324 0.0301714 0 0.323216 0.0301714 0 0.348108 0.0301714 0 0.373 0.0301714 0 0.199771 0.0327143 0 0.224518 0.0327143 0 0.249265 0.0327143 0 0.274012 0.0327143 0 0.298759 0.0327143 0 0.323506 0.0327143 0 0.348253 0.0327143 0 0.373 0.0327143 0 0.200786 0.0352571 0 0.225388 0.0352571 0 0.24999 0.0352571 0 0.274592 0.0352571 0 0.299194 0.0352571 0 0.323796 0.0352571 0 0.348398 0.0352571 0 0.373 0.0352571 0 0.2018 0.0378 0 0.226257 0.0378 0 0.250714 0.0378 0 0.275171 0.0378 0 0.299629 0.0378 0 0.324086 0.0378 0 0.348543 0.0378 0 0.373 0.0378 0 
</DataArray>
</Points> 
</Piece> 
</StructuredGrid> 
</VTKFile> 
