<?xml version="1.0"?> 
<VTKFile type="StructuredGrid" version="0.1"> 
<StructuredGrid WholeExtent="0 7 0 7 0 0"> 
<Piece Extent="0 7 0 7 0 0"> 
<PointData>
<DataArray type="Float32" Name="|E|" format="ascii" NumberOfComponents="3"> 
-4.76837e-07 5.99803e+06 0 -2.59232e-08 2.5539e+06 0 8.51469e-09 1.40265e+06 0 -1.23036e-08 643992 0 -1.60944e-08 203234 0 4.2608e-08 47495.3 0 -8.19564e-08 9875.21 0 -9.23872e-07 2810.46 0 -593007 3.00905e+06 0 -290192 1.75629e+06 0 -211420 956945 0 -128660 391342 0 -48816.2 114770 0 -13303.3 28387.3 0 -3154.01 6728.93 0 -589.4 1471.64 0 -623838 1.91043e+06 0 -464443 1.16642e+06 0 -336815 555848 0 -167077 184718 0 -56036.3 49840.9 0 -15946.2 13100.8 0 -4273.1 3403.93 0 -1291.05 931.21 0 -714798 1.23259e+06 0 -575395 636668 0 -336489 209172 0 -131537 47712.4 0 -42476.7 11527.5 0 -12891.1 3093.82 0 -3967.13 860.809 0 -1066.91 208.929 0 -808733 587998 0 -506595 141702 0 -209440 -6129.76 0 -71399.6 -11446 0 -24491.1 -5153.58 0 -8526.95 -1905.33 0 -2921.07 -604.633 0 -952.279 -279.338 0 -597045 -54514 0 -223907 -116364 0 -74885.9 -53071.5 0 -28670.3 -21665.8 0 -11137.7 -8687.7 0 -4446.97 -3485.27 0 -1756.55 -1467.5 0 -748.624 -557.199 0 -105175 -200616 0 -38568 -75756.4 0 -18094.6 -34398 0 -7637.66 -15745.4 0 -3508.92 -7218.47 0 -1569.19 -3327.44 0 -708.321 -1528.2 0 -226.355 -755.165 0 2.14577e-06 -26460.8 0 2.06435e-07 -29835 0 6.76337e-08 -18615.9 0 -1.27824e-07 -8285.82 0 8.184e-08 -4549.82 0 -4.65661e-09 -2408.99 0 3.72529e-09 -1276.37 0 -1.2517e-06 -989.749 0 </DataArray> 
</PointData> 
<Points> 
<DataArray type="Float32" NumberOfComponents="3"> 
0.075 0.021 0 0.0821429 0.021 0 0.0892857 0.021 0 0.0964286 0.021 0 0.103571 0.021 0 0.110714 0.021 0 0.117857 0.021 0 0.125 0.021 0 0.08 0.023 0 0.0865306 0.023 0 0.0930612 0.023 0 0.0995918 0.023 0 0.106122 0.023 0 0.112653 0.023 0 0.119184 0.023 0 0.125714 0.023 0 0.085 0.025 0 0.0909184 0.025 0 0.0968367 0.025 0 0.102755 0.025 0 0.108673 0.025 0 0.114592 0.025 0 0.12051 0.025 0 0.126429 0.025 0 0.09 0.027 0 0.0953061 0.027 0 0.100612 0.027 0 0.105918 0.027 0 0.111224 0.027 0 0.116531 0.027 0 0.121837 0.027 0 0.127143 0.027 0 0.095 0.029 0 0.0996939 0.029 0 0.104388 0.029 0 0.109082 0.029 0 0.113776 0.029 0 0.118469 0.029 0 0.123163 0.029 0 0.127857 0.029 0 0.1 0.031 0 0.104082 0.031 0 0.108163 0.031 0 0.112245 0.031 0 0.116327 0.031 0 0.120408 0.031 0 0.12449 0.031 0 0.128571 0.031 0 0.105 0.033 0 0.108469 0.033 0 0.111939 0.033 0 0.115408 0.033 0 0.118878 0.033 0 0.122347 0.033 0 0.125816 0.033 0 0.129286 0.033 0 0.11 0.035 0 0.112857 0.035 0 0.115714 0.035 0 0.118571 0.035 0 0.121429 0.035 0 0.124286 0.035 0 0.127143 0.035 0 0.13 0.035 0 
</DataArray>
</Points> 
</Piece> 
</StructuredGrid> 
</VTKFile> 
