<?xml version="1.0"?> 
<VTKFile type="StructuredGrid" version="0.1"> 
<StructuredGrid WholeExtent="0 7 0 7 0 0"> 
<Piece Extent="0 7 0 7 0 0"> 
<PointData>
<DataArray type="Float32" Name="|E|" format="ascii" NumberOfComponents="3"> 
3.21865e-06 9.36881e+06 0 4.87969e-07 968493 0 8.25894e-08 680556 0 5.68398e-08 293910 0 -2.79048e-07 -61886.6 0 1.27591e-07 -17506.9 0 1.00955e-06 53122.6 0 8.46386e-06 1.23732e+08 0 -2.49136e+06 1.36915e+06 0 -2.67833e+06 1.26162e+06 0 -2.13036e+06 1.45057e+06 0 -1.20148e+06 1.08092e+06 0 -468215 429387 0 -95486.8 33706 0 -6712.6 -7366.94 0 -4384.64 -20563.6 0 -2.38676e+06 1.74447e+06 0 -2.61329e+06 1.40039e+06 0 -2.65376e+06 1.28214e+06 0 -2.62043e+06 1.12598e+06 0 -2.00431e+06 949913 0 -999066 426620 0 -194914 -16621.2 0 603.586 1302.25 0 -2.44038e+06 1.64209e+06 0 -2.48511e+06 1.67812e+06 0 -2.61657e+06 1.59194e+06 0 -2.70369e+06 1.40181e+06 0 -2.75696e+06 1.13428e+06 0 -2.30563e+06 790061 0 -1.14776e+06 107967 0 -74283.9 -94306.1 0 -2.12081e+06 1.91051e+06 0 -2.26942e+06 1.87687e+06 0 -2.42872e+06 1.79357e+06 0 -2.61789e+06 1.71202e+06 0 -2.78641e+06 1.48471e+06 0 -2.87131e+06 1.09039e+06 0 -2.34244e+06 366974 0 -656704 -517279 0 -1.9221e+06 1.91991e+06 0 -2.06426e+06 1.93084e+06 0 -2.23248e+06 1.94435e+06 0 -2.4334e+06 1.88288e+06 0 -2.69223e+06 1.77647e+06 0 -2.96596e+06 1.47287e+06 0 -3.06659e+06 745014 0 -1.99692e+06 -925558 0 -1.77437e+06 1.82417e+06 0 -1.89111e+06 1.92728e+06 0 -2.04801e+06 1.98167e+06 0 -2.26243e+06 2.01179e+06 0 -2.54275e+06 1.96753e+06 0 -2.92771e+06 1.79232e+06 0 -3.39859e+06 1.21383e+06 0 -3.51122e+06 -748673 0 -1.58347e+06 1.77716e+06 0 -1.71688e+06 1.90912e+06 0 -1.89332e+06 1.98825e+06 0 -2.10853e+06 2.0709e+06 0 -2.40498e+06 2.10948e+06 0 -2.84369e+06 2.04085e+06 0 -3.53884e+06 1.6709e+06 0 -4.73587e+06 7.51019e-06 0 </DataArray> 
</PointData> 
<Points> 
<DataArray type="Float32" NumberOfComponents="3"> 
0.1 0.045 0 0.101857 0.045 0 0.103714 0.045 0 0.105571 0.045 0 0.107429 0.045 0 0.109286 0.045 0 0.111143 0.045 0 0.113 0.045 0 0.0954 0.0481905 0 0.0974787 0.0477925 0 0.0996009 0.0473861 0 0.101768 0.0469712 0 0.103981 0.0465474 0 0.106243 0.0461144 0 0.108553 0.045672 0 0.110915 0.0452199 0 0.0908 0.051381 0 0.0931027 0.0506831 0 0.0954868 0.0499605 0 0.0979568 0.0492119 0 0.100517 0.0484359 0 0.103173 0.0476309 0 0.105931 0.0467952 0 0.108795 0.0459272 0 0.0862 0.0545714 0 0.0887749 0.0536436 0 0.0914599 0.0526761 0 0.0942622 0.0516664 0 0.0971896 0.0506116 0 0.100251 0.0495086 0 0.103455 0.0483541 0 0.106812 0.0471444 0 0.0816 0.0577619 0 0.0845412 0.0566439 0 0.0876082 0.0554781 0 0.0908091 0.0542613 0 0.0941529 0.0529903 0 0.0976494 0.0516612 0 0.101309 0.05027 0 0.105144 0.0488122 0 0.077 0.0609524 0 0.0804457 0.0596526 0 0.0840133 0.0583068 0 0.0877093 0.0569126 0 0.0915408 0.0554672 0 0.0955154 0.0539679 0 0.0996413 0.0524116 0 0.103927 0.0507948 0 0.0724 0.0641429 0 0.0765293 0.0626385 0 0.0807451 0.0611026 0 0.0850499 0.0595343 0 0.0894468 0.0579324 0 0.0939387 0.0562959 0 0.0985286 0.0546238 0 0.10322 0.0529146 0 0.0678 0.0673333 0 0.0728286 0.0655714 0 0.0778571 0.0638095 0 0.0828857 0.0620476 0 0.0879143 0.0602857 0 0.0929429 0.0585238 0 0.0979714 0.0567619 0 0.103 0.055 0 
</DataArray>
</Points> 
</Piece> 
</StructuredGrid> 
</VTKFile> 
