<?xml version="1.0"?> 
<VTKFile type="StructuredGrid" version="0.1"> 
<StructuredGrid WholeExtent="0 7 0 7 0 0"> 
<Piece Extent="0 7 0 7 0 0"> 
<PointData>
<DataArray type="Float32" Name="|E|" format="ascii" NumberOfComponents="3"> 
-1.66174e+06 0 0 -1.69697e+06 271222 0 -1.77862e+06 568803 0 -1.91512e+06 898778 0 -2.03196e+06 1.26433e+06 0 -2.06413e+06 1.61674e+06 0 -2.19173e+06 1.44988e+06 0 -4.47345e+06 2.91903e+06 0 -1.63556e+06 0 0 -1.65963e+06 266776 0 -1.72693e+06 553905 0 -1.83893e+06 868805 0 -1.94793e+06 1.2222e+06 0 -2.02615e+06 1.55079e+06 0 -2.1424e+06 1.5846e+06 0 -2.60154e+06 1.21029e+06 0 -1.6071e+06 0 0 -1.6217e+06 259879 0 -1.67504e+06 538249 0 -1.76552e+06 840409 0 -1.86275e+06 1.17494e+06 0 -1.95447e+06 1.49831e+06 0 -2.08094e+06 1.66599e+06 0 -2.53076e+06 1.53685e+06 0 -1.5776e+06 0 0 -1.58326e+06 252250 0 -1.62324e+06 521124 0 -1.69398e+06 811002 0 -1.77714e+06 1.12835e+06 0 -1.86608e+06 1.44497e+06 0 -1.99042e+06 1.68744e+06 0 -2.35244e+06 1.76889e+06 0 -1.54709e+06 0 0 -1.54434e+06 243859 0 -1.57146e+06 502651 0 -1.62415e+06 780313 0 -1.69152e+06 1.08147e+06 0 -1.76934e+06 1.38934e+06 0 -1.87976e+06 1.66784e+06 0 -2.1406e+06 1.88197e+06 0 -1.51573e+06 0 0 -1.50492e+06 234696 0 -1.51968e+06 482905 0 -1.55572e+06 748166 0 -1.60646e+06 1.03371e+06 0 -1.66899e+06 1.33056e+06 0 -1.75848e+06 1.62173e+06 0 -1.93883e+06 1.8958e+06 0 -1.48364e+06 0 0 -1.46502e+06 224797 0 -1.46792e+06 461927 0 -1.48847e+06 714457 0 -1.52241e+06 984683 0 -1.5677e+06 1.26846e+06 0 -1.6337e+06 1.55847e+06 0 -1.75284e+06 1.85521e+06 0 -1.45093e+06 0 0 -1.42464e+06 214209 0 -1.41618e+06 439746 0 -1.4222e+06 679145 0 -1.43968e+06 934100 0 -1.46709e+06 1.20317e+06 0 -1.50954e+06 1.48386e+06 0 -1.58278e+06 1.77815e+06 0 </DataArray> 
</PointData> 
<Points> 
<DataArray type="Float32" NumberOfComponents="3"> 
0 0.045 0 0.0142857 0.045 0 0.0285714 0.045 0 0.0428571 0.045 0 0.0571429 0.045 0 0.0714286 0.045 0 0.0857143 0.045 0 0.1 0.045 0 0 0.0465238 0 0.0136286 0.0467619 0 0.0272571 0.047 0 0.0408857 0.0472381 0 0.0545143 0.0474762 0 0.0681429 0.0477143 0 0.0817714 0.0479524 0 0.0954 0.0481905 0 0 0.0480476 0 0.0129714 0.0485238 0 0.0259429 0.049 0 0.0389143 0.0494762 0 0.0518857 0.0499524 0 0.0648571 0.0504286 0 0.0778286 0.0509048 0 0.0908 0.051381 0 0 0.0495714 0 0.0123143 0.0502857 0 0.0246286 0.051 0 0.0369429 0.0517143 0 0.0492571 0.0524286 0 0.0615714 0.0531429 0 0.0738857 0.0538571 0 0.0862 0.0545714 0 0 0.0510952 0 0.0116571 0.0520476 0 0.0233143 0.053 0 0.0349714 0.0539524 0 0.0466286 0.0549048 0 0.0582857 0.0558571 0 0.0699429 0.0568095 0 0.0816 0.0577619 0 0 0.052619 0 0.011 0.0538095 0 0.022 0.055 0 0.033 0.0561905 0 0.044 0.057381 0 0.055 0.0585714 0 0.066 0.0597619 0 0.077 0.0609524 0 0 0.0541429 0 0.0103429 0.0555714 0 0.0206857 0.057 0 0.0310286 0.0584286 0 0.0413714 0.0598571 0 0.0517143 0.0612857 0 0.0620571 0.0627143 0 0.0724 0.0641429 0 0 0.0556667 0 0.00968571 0.0573333 0 0.0193714 0.059 0 0.0290571 0.0606667 0 0.0387429 0.0623333 0 0.0484286 0.064 0 0.0581143 0.0656667 0 0.0678 0.0673333 0 
</DataArray>
</Points> 
</Piece> 
</StructuredGrid> 
</VTKFile> 
