<?xml version="1.0"?> 
<VTKFile type="StructuredGrid" version="0.1"> 
<StructuredGrid WholeExtent="0 7 0 7 0 0"> 
<Piece Extent="0 7 0 7 0 0"> 
<PointData>
<DataArray type="Float32" Name="|E|" format="ascii" NumberOfComponents="3"> 
463205 7.02547e+06 0 346348 5.25309e+06 0 317225 4.81138e+06 0 301384 4.57111e+06 0 291580 4.42241e+06 0 284901 4.32111e+06 0 280218 4.2501e+06 0 276968 4.2008e+06 0 -889893 5.0784e+06 0 -349424 4.92678e+06 0 -80822.3 4.69958e+06 0 49612.7 4.52362e+06 0 120757 4.39763e+06 0 164117 4.30639e+06 0 193499 4.23963e+06 0 215936 4.19107e+06 0 -796105 4.40527e+06 0 -502548 4.46257e+06 0 -270985 4.42997e+06 0 -113167 4.36556e+06 0 -7933.73 4.299e+06 0 63997.5 4.24014e+06 0 116071 4.19083e+06 0 156829 4.15057e+06 0 -646991 4.05649e+06 0 -461596 4.15166e+06 0 -301575 4.19044e+06 0 -172695 4.19263e+06 0 -73914 4.17535e+06 0 1122.05 4.14948e+06 0 59288.1 4.12073e+06 0 106779 4.09176e+06 0 -471364 3.8518e+06 0 -362731 3.95262e+06 0 -258113 4.01657e+06 0 -166261 4.05066e+06 0 -89537.1 4.06309e+06 0 -26889.6 4.06075e+06 0 24532.6 4.04861e+06 0 68086.6 4.02982e+06 0 -310045 3.72763e+06 0 -246104 3.82844e+06 0 -182762 3.90171e+06 0 -124610 3.95037e+06 0 -73619.2 3.97847e+06 0 -30026.5 3.99018e+06 0 7159.18 3.98897e+06 0 39530.5 3.97743e+06 0 -155567 3.66097e+06 0 -123907 3.76026e+06 0 -93875.8 3.83662e+06 0 -65769.2 3.8914e+06 0 -40520.5 3.92688e+06 0 -18366.6 3.94571e+06 0 931.584 3.9504e+06 0 18017.1 3.943e+06 0 0 3.63901e+06 0 0 3.7383e+06 0 0 3.81549e+06 0 0 3.87203e+06 0 0 3.90961e+06 0 0 3.9306e+06 0 0 3.93714e+06 0 0 3.93105e+06 0 </DataArray> 
</PointData> 
<Points> 
<DataArray type="Float32" NumberOfComponents="3"> 
0.113 0.065 0 0.117786 0.0646845 0 0.122571 0.0643689 0 0.127357 0.0640534 0 0.132143 0.0637379 0 0.136929 0.0634223 0 0.141714 0.0631068 0 0.1465 0.0627913 0 0.113 0.0717143 0 0.117786 0.0714438 0 0.122571 0.0711734 0 0.127357 0.0709029 0 0.132143 0.0706325 0 0.136929 0.070362 0 0.141714 0.0700915 0 0.1465 0.0698211 0 0.113 0.0784286 0 0.117786 0.0782032 0 0.122571 0.0779778 0 0.127357 0.0777524 0 0.132143 0.077527 0 0.136929 0.0773017 0 0.141714 0.0770763 0 0.1465 0.0768509 0 0.113 0.0851429 0 0.117786 0.0849626 0 0.122571 0.0847822 0 0.127357 0.0846019 0 0.132143 0.0844216 0 0.136929 0.0842413 0 0.141714 0.084061 0 0.1465 0.0838807 0 0.113 0.0918571 0 0.117786 0.0917219 0 0.122571 0.0915867 0 0.127357 0.0914515 0 0.132143 0.0913162 0 0.136929 0.091181 0 0.141714 0.0910458 0 0.1465 0.0909105 0 0.113 0.0985714 0 0.117786 0.0984813 0 0.122571 0.0983911 0 0.127357 0.098301 0 0.132143 0.0982108 0 0.136929 0.0981207 0 0.141714 0.0980305 0 0.1465 0.0979404 0 0.113 0.105286 0 0.117786 0.105241 0 0.122571 0.105196 0 0.127357 0.10515 0 0.132143 0.105105 0 0.136929 0.10506 0 0.141714 0.105015 0 0.1465 0.10497 0 0.113 0.112 0 0.117786 0.112 0 0.122571 0.112 0 0.127357 0.112 0 0.132143 0.112 0 0.136929 0.112 0 0.141714 0.112 0 0.1465 0.112 0 
</DataArray>
</Points> 
</Piece> 
</StructuredGrid> 
</VTKFile> 
