<?xml version="1.0"?> 
<VTKFile type="StructuredGrid" version="0.1"> 
<StructuredGrid WholeExtent="0 7 0 7 0 0"> 
<Piece Extent="0 7 0 7 0 0"> 
<PointData>
<DataArray type="Float32" Name="|E|" format="ascii" NumberOfComponents="3"> 
-1.84435e+06 0 0 -1.8785e+06 229290 0 -1.98578e+06 477979 0 -2.15583e+06 782730 0 -2.34943e+06 1.20133e+06 0 -2.22658e+06 1.75098e+06 0 -1.60512e+06 1.42849e+06 0 -1.72696e+06 3.21865e-06 0 -1.82034e+06 0 0 -1.85445e+06 235949 0 -1.95829e+06 492324 0 -2.12139e+06 801686 0 -2.29821e+06 1.21428e+06 0 -2.1922e+06 1.70748e+06 0 -1.7148e+06 1.39941e+06 0 -1.89904e+06 3.62599e-07 0 -1.79646e+06 0 0 -1.82982e+06 242564 0 -1.9303e+06 505996 0 -2.08647e+06 819640 0 -2.24969e+06 1.22583e+06 0 -2.16393e+06 1.67142e+06 0 -1.81121e+06 1.38295e+06 0 -2.08678e+06 -2.93381e-07 0 -1.77235e+06 0 0 -1.80458e+06 249095 0 -1.90177e+06 519084 0 -2.05124e+06 836626 0 -2.20357e+06 1.2365e+06 0 -2.14023e+06 1.64229e+06 0 -1.89638e+06 1.37763e+06 0 -2.3046e+06 3.48577e-07 0 -1.74781e+06 0 0 -1.77874e+06 255623 0 -1.87266e+06 531591 0 -2.01589e+06 852591 0 -2.1595e+06 1.2471e+06 0 -2.11977e+06 1.61895e+06 0 -1.97216e+06 1.38178e+06 0 -2.57742e+06 -3.23867e-07 0 -1.72246e+06 0 0 -1.75229e+06 262434 0 -1.84283e+06 543371 0 -1.98074e+06 867304 0 -2.11698e+06 1.25904e+06 0 -2.10132e+06 1.59904e+06 0 -2.04133e+06 1.39309e+06 0 -2.95249e+06 1.77417e-07 0 -1.69506e+06 0 0 -1.72515e+06 270257 0 -1.81183e+06 553962 0 -1.94656e+06 880152 0 -2.07508e+06 1.27513e+06 0 -2.08346e+06 1.5777e+06 0 -2.10989e+06 1.40788e+06 0 -3.5227e+06 1.08033e-07 0 -1.66174e+06 0 0 -1.69697e+06 280774 0 -1.77862e+06 562165 0 -1.91512e+06 889722 0 -2.03196e+06 1.30129e+06 0 -2.06413e+06 1.54453e+06 0 -2.19173e+06 1.41994e+06 0 -4.47345e+06 2.38419e-07 0 </DataArray> 
</PointData> 
<Points> 
<DataArray type="Float32" NumberOfComponents="3"> 
0 0.035 0 0.0142857 0.035 0 0.0285714 0.035 0 0.0428571 0.035 0 0.0571429 0.035 0 0.0714286 0.035 0 0.0857143 0.035 0 0.1 0.035 0 0 0.0364286 0 0.0142857 0.0364286 0 0.0285714 0.0364286 0 0.0428571 0.0364286 0 0.0571429 0.0364286 0 0.0714286 0.0364286 0 0.0857143 0.0364286 0 0.1 0.0364286 0 0 0.0378571 0 0.0142857 0.0378571 0 0.0285714 0.0378571 0 0.0428571 0.0378571 0 0.0571429 0.0378571 0 0.0714286 0.0378571 0 0.0857143 0.0378571 0 0.1 0.0378571 0 0 0.0392857 0 0.0142857 0.0392857 0 0.0285714 0.0392857 0 0.0428571 0.0392857 0 0.0571429 0.0392857 0 0.0714286 0.0392857 0 0.0857143 0.0392857 0 0.1 0.0392857 0 0 0.0407143 0 0.0142857 0.0407143 0 0.0285714 0.0407143 0 0.0428571 0.0407143 0 0.0571429 0.0407143 0 0.0714286 0.0407143 0 0.0857143 0.0407143 0 0.1 0.0407143 0 0 0.0421429 0 0.0142857 0.0421429 0 0.0285714 0.0421429 0 0.0428571 0.0421429 0 0.0571429 0.0421429 0 0.0714286 0.0421429 0 0.0857143 0.0421429 0 0.1 0.0421429 0 0 0.0435714 0 0.0142857 0.0435714 0 0.0285714 0.0435714 0 0.0428571 0.0435714 0 0.0571429 0.0435714 0 0.0714286 0.0435714 0 0.0857143 0.0435714 0 0.1 0.0435714 0 0 0.045 0 0.0142857 0.045 0 0.0285714 0.045 0 0.0428571 0.045 0 0.0571429 0.045 0 0.0714286 0.045 0 0.0857143 0.045 0 0.1 0.045 0 
</DataArray>
</Points> 
</Piece> 
</StructuredGrid> 
</VTKFile> 
