<?xml version="1.0"?> 
<VTKFile type="StructuredGrid" version="0.1"> 
<StructuredGrid WholeExtent="0 15 0 15 0 0"> 
<Piece Extent="0 15 0 15 0 0"> 
<PointData>
<DataArray type="Float32" Name="|E|" format="ascii" NumberOfComponents="3"> 
452769 5.2013e+06 0 584104 5.13091e+06 0 711726 5.06099e+06 0 834512 4.9846e+06 0 951713 4.90056e+06 0 1.0627e+06 4.80881e+06 0 1.16689e+06 4.70948e+06 0 1.26373e+06 4.60278e+06 0 1.35265e+06 4.4888e+06 0 1.43299e+06 4.36729e+06 0 1.5038e+06 4.23729e+06 0 1.56356e+06 4.0966e+06 0 1.60934e+06 3.94013e+06 0 1.63506e+06 3.75683e+06 0 1.62448e+06 3.51623e+06 0 1.51865e+06 3.10709e+06 0 362485 5.03004e+06 0 487119 4.97857e+06 0 604188 4.91959e+06 0 715236 4.85386e+06 0 820754 4.78134e+06 0 920633 4.70208e+06 0 1.01454e+06 4.61629e+06 0 1.10199e+06 4.52425e+06 0 1.18238e+06 4.42623e+06 0 1.25485e+06 4.32243e+06 0 1.3181e+06 4.21291e+06 0 1.37001e+06 4.09743e+06 0 1.40678e+06 3.97549e+06 0 1.42109e+06 3.84624e+06 0 1.39802e+06 3.71036e+06 0 1.30749e+06 3.5813e+06 0 297871 4.87927e+06 0 408096 4.83871e+06 0 513024 4.78998e+06 0 612880 4.73409e+06 0 707793 4.67163e+06 0 797731 4.603e+06 0 882494 4.5286e+06 0 961744 4.44884e+06 0 1.035e+06 4.3642e+06 0 1.10159e+06 4.27522e+06 0 1.16053e+06 4.18259e+06 0 1.21037e+06 4.08718e+06 0 1.24889e+06 3.99042e+06 0 1.27265e+06 3.89492e+06 0 1.27649e+06 3.80612e+06 0 1.25342e+06 3.73549e+06 0 246482 4.74692e+06 0 343262 4.71364e+06 0 436301 4.6728e+06 0 525354 4.62508e+06 0 610333 4.57109e+06 0 691135 4.51135e+06 0 767608 4.44636e+06 0 839526 4.37664e+06 0 906586 4.30278e+06 0 968385 4.22548e+06 0 1.0244e+06 4.14561e+06 0 1.07394e+06 4.06434e+06 0 1.11615e+06 3.98332e+06 0 1.15009e+06 3.90508e+06 0 1.17504e+06 3.83358e+06 0 1.19183e+06 3.77504e+06 0 204289 4.63064e+06 0 289244 4.60273e+06 0 371301 4.56791e+06 0 450252 4.52668e+06 0 525938 4.47957e+06 0 598235 4.42707e+06 0 667020 4.36971e+06 0 732159 4.30803e+06 0 793495 4.24263e+06 0 850851 4.17422e+06 0 904040 4.10362e+06 0 952888 4.03188e+06 0 997296 3.96034e+06 0 1.03737e+06 3.89076e+06 0 1.07366e+06 3.82543e+06 0 1.10746e+06 3.76727e+06 0 169283 4.5286e+06 0 243618 4.50481e+06 0 315694 4.47466e+06 0 385315 4.43854e+06 0 452342 4.39691e+06 0 516667 4.35021e+06 0 578207 4.29892e+06 0 636893 4.24356e+06 0 692671 4.1847e+06 0 745511 4.12294e+06 0 795423 4.05902e+06 0 842489 3.99373e+06 0 886915 3.92805e+06 0 929125 3.86307e+06 0 969896 3.80004e+06 0 1.01058e+06 3.74023e+06 0 139912 4.43936e+06 0 204672 4.41879e+06 0 267619 4.3923e+06 0 328618 4.36021e+06 0 387562 4.3229e+06 0 444373 4.28078e+06 0 499005 4.23427e+06 0 551434 4.18384e+06 0 601671 4.12997e+06 0 649764 4.0732e+06 0 695815 4.01411e+06 0 740003 3.9533e+06 0 782615 3.89143e+06 0 824096 3.8292e+06 0 865096 3.76728e+06 0 906499 3.70626e+06 0 115097 4.36178e+06 0 171075 4.34377e+06 0 225603 4.32016e+06 0 278580 4.29124e+06 0 329933 4.25733e+06 0 379613 4.2188e+06 0 427601 4.17602e+06 0 473905 4.12939e+06 0 518568 4.07935e+06 0 561670 4.02632e+06 0 603343 3.97078e+06 0 643781 3.91317e+06 0 683254 3.85398e+06 0 722133 3.79363e+06 0 760904 3.73251e+06 0 800175 3.67089e+06 0 93944.2 4.29499e+06 0 141783 4.27901e+06 0 188460 4.25767e+06 0 233907 4.23123e+06 0 278076 4.19998e+06 0 320941 4.16425e+06 0 362501 4.12436e+06 0 402780 4.08067e+06 0 441833 4.03354e+06 0 479748 3.98334e+06 0 516655 3.93045e+06 0 552724 3.87522e+06 0 588180 3.818e+06 0 623302 3.75908e+06 0 658426 3.69873e+06 0 693931 3.6371e+06 0 75741.3 4.23829e+06 0 115943 4.2239e+06 0 155224 4.20434e+06 0 193537 4.17984e+06 0 230852 4.15067e+06 0 267159 4.1171e+06 0 302467 4.07944e+06 0 336807 4.038e+06 0 370233 3.9931e+06 0 402830 3.94505e+06 0 434705 3.89415e+06 0 466001 3.84072e+06 0 496887 3.78501e+06 0 527565 3.72727e+06 0 558260 3.66767e+06 0 589212 3.60635e+06 0 59885.3 4.19113e+06 0 92846.4 4.17798e+06 0 125089 4.1598e+06 0 156583 4.1368e+06 0 187310 4.10922e+06 0 217268 4.07732e+06 0 246471 4.04136e+06 0 274949 4.00163e+06 0 302753 3.95842e+06 0 329951 3.91198e+06 0 356632 3.86261e+06 0 382904 3.81055e+06 0 408891 3.75602e+06 0 434733 3.69924e+06 0 460577 3.64037e+06 0 486570 3.57953e+06 0 45866.5 4.15308e+06 0 71894.5 4.14088e+06 0 97379 4.12375e+06 0 122300 4.10188e+06 0 146646 4.0755e+06 0 170422 4.04485e+06 0 193639 4.01017e+06 0 216327 3.97172e+06 0 238525 3.92977e+06 0 260288 3.88455e+06 0 281683 3.83631e+06 0 302788 3.78529e+06 0 323691 3.73169e+06 0 344486 3.6757e+06 0 365266 3.61747e+06 0 386120 3.55715e+06 0 33242.2 4.12381e+06 0 52570 4.1123e+06 0 71507.8 4.09594e+06 0 90042.2 4.0749e+06 0 108169 4.04939e+06 0 125890 4.01965e+06 0 143219 3.9859e+06 0 160177 3.94838e+06 0 176794 3.90733e+06 0 193110 3.863e+06 0 209173 3.81559e+06 0 225036 3.76534e+06 0 240759 3.71243e+06 0 256400 3.65705e+06 0 272019 3.59937e+06 0 287666 3.53952e+06 0 21621.7 4.10307e+06 0 34416.9 4.09204e+06 0 46960.1 4.0762e+06 0 59243.6 4.05572e+06 0 71265.1 4.03081e+06 0 83027.6 4.00168e+06 0 94539.9 3.96856e+06 0 105817 3.93167e+06 0 116878 3.89124e+06 0 127750 3.8475e+06 0 138462 3.80066e+06 0 149048 3.75093e+06 0 159544 3.69851e+06 0 169985 3.64358e+06 0 180405 3.58629e+06 0 190831 3.52681e+06 0 10651.1 4.09069e+06 0 17022 4.07994e+06 0 23269.4 4.0644e+06 0 29389.6 4.04425e+06 0 35381.7 4.01968e+06 0 41247.5 3.99091e+06 0 46991.6 3.95815e+06 0 52621.2 3.92163e+06 0 58146.5 3.88156e+06 0 63580 3.83817e+06 0 68936.4 3.79166e+06 0 74231.7 3.74224e+06 0 79482.6 3.69011e+06 0 84705.7 3.63543e+06 0 89916.1 3.5784e+06 0 95126 3.51915e+06 0 0 4.08658e+06 0 0 4.07592e+06 0 0 4.06048e+06 0 0 4.04043e+06 0 0 4.01598e+06 0 0 3.98733e+06 0 0 3.95469e+06 0 0 3.91828e+06 0 0 3.87833e+06 0 0 3.83505e+06 0 0 3.78865e+06 0 0 3.73933e+06 0 0 3.6873e+06 0 0 3.63271e+06 0 0 3.57576e+06 0 0 3.5166e+06 0 </DataArray> 
</PointData> 
<Points> 
<DataArray type="Float32" NumberOfComponents="3"> 
0.146503 0.0668466 0 0.148836 0.0666123 0 0.151169 0.0663155 0 0.153502 0.0659561 0 0.155835 0.0655343 0 0.158169 0.0650499 0 0.160502 0.064503 0 0.162835 0.0638937 0 0.165168 0.0632218 0 0.167502 0.0624874 0 0.169835 0.0616905 0 0.172169 0.0608311 0 0.174502 0.0599092 0 0.176836 0.0589248 0 0.17917 0.0578778 0 0.181504 0.0567684 0 0.146503 0.0698569 0 0.148836 0.0696382 0 0.151169 0.0693611 0 0.153502 0.0690257 0 0.155835 0.068632 0 0.158168 0.0681799 0 0.160502 0.0676695 0 0.162835 0.0671008 0 0.165168 0.0664737 0 0.167502 0.0657882 0 0.169835 0.0650445 0 0.172169 0.0642424 0 0.174502 0.0633819 0 0.176836 0.0624631 0 0.17917 0.061486 0 0.181503 0.0604505 0 0.146503 0.0728671 0 0.148836 0.072664 0 0.151169 0.0724067 0 0.153502 0.0720953 0 0.155835 0.0717297 0 0.158168 0.0713099 0 0.160502 0.070836 0 0.162835 0.0703078 0 0.165168 0.0697255 0 0.167502 0.0690891 0 0.169835 0.0683984 0 0.172169 0.0676536 0 0.174502 0.0668546 0 0.176836 0.0660015 0 0.179169 0.0650941 0 0.181503 0.0641326 0 0.146503 0.0758773 0 0.148836 0.0756898 0 0.151169 0.0754524 0 0.153502 0.0751649 0 0.155835 0.0748274 0 0.158168 0.0744399 0 0.160501 0.0740024 0 0.162835 0.0735149 0 0.165168 0.0729774 0 0.167501 0.0723899 0 0.169835 0.0717524 0 0.172168 0.0710649 0 0.174502 0.0703273 0 0.176836 0.0695398 0 0.179169 0.0687023 0 0.181503 0.0678147 0 0.146502 0.0788875 0 0.148835 0.0787157 0 0.151169 0.078498 0 0.153502 0.0782345 0 0.155835 0.0779251 0 0.158168 0.0775699 0 0.160501 0.0771689 0 0.162835 0.076722 0 0.165168 0.0762293 0 0.167501 0.0756908 0 0.169835 0.0751064 0 0.172168 0.0744761 0 0.174502 0.0738001 0 0.176835 0.0730782 0 0.179169 0.0723104 0 0.181503 0.0714968 0 0.146502 0.0818978 0 0.148835 0.0817415 0 0.151168 0.0815436 0 0.153501 0.0813041 0 0.155835 0.0810229 0 0.158168 0.0806999 0 0.160501 0.0803354 0 0.162834 0.0799291 0 0.165168 0.0794812 0 0.167501 0.0789916 0 0.169835 0.0784603 0 0.172168 0.0778874 0 0.174502 0.0772728 0 0.176835 0.0766165 0 0.179169 0.0759186 0 0.181502 0.0751789 0 0.146502 0.084908 0 0.148835 0.0847674 0 0.151168 0.0845893 0 0.153501 0.0843737 0 0.155835 0.0841206 0 0.158168 0.0838299 0 0.160501 0.0835018 0 0.162834 0.0831362 0 0.165168 0.0827331 0 0.167501 0.0822924 0 0.169834 0.0818143 0 0.172168 0.0812987 0 0.174501 0.0807455 0 0.176835 0.0801549 0 0.179169 0.0795267 0 0.181502 0.078861 0 0.146502 0.0879182 0 0.148835 0.0877932 0 0.151168 0.0876349 0 0.153501 0.0874433 0 0.155834 0.0872183 0 0.158168 0.08696 0 0.160501 0.0866683 0 0.162834 0.0863433 0 0.165168 0.085985 0 0.167501 0.0855933 0 0.169834 0.0851683 0 0.172168 0.0847099 0 0.174501 0.0842182 0 0.176835 0.0836932 0 0.179168 0.0831348 0 0.181502 0.0825431 0 0.146502 0.0909284 0 0.148835 0.0908191 0 0.151168 0.0906806 0 0.153501 0.0905129 0 0.155834 0.090316 0 0.158168 0.09009 0 0.160501 0.0898348 0 0.162834 0.0895504 0 0.165167 0.0892368 0 0.167501 0.0888941 0 0.169834 0.0885222 0 0.172168 0.0881212 0 0.174501 0.087691 0 0.176835 0.0872316 0 0.179168 0.086743 0 0.181502 0.0862253 0 0.146501 0.0939387 0 0.148834 0.0938449 0 0.151168 0.0937262 0 0.153501 0.0935825 0 0.155834 0.0934137 0 0.158167 0.09322 0 0.160501 0.0930012 0 0.162834 0.0927575 0 0.165167 0.0924887 0 0.167501 0.092195 0 0.169834 0.0918762 0 0.172168 0.0915324 0 0.174501 0.0911637 0 0.176834 0.0907699 0 0.179168 0.0903511 0 0.181501 0.0899074 0 0.146501 0.0969489 0 0.148834 0.0968708 0 0.151168 0.0967718 0 0.153501 0.096652 0 0.155834 0.0965114 0 0.158167 0.09635 0 0.160501 0.0961677 0 0.162834 0.0959646 0 0.165167 0.0957406 0 0.167501 0.0954958 0 0.169834 0.0952302 0 0.172167 0.0949437 0 0.174501 0.0946364 0 0.176834 0.0943083 0 0.179168 0.0939593 0 0.181501 0.0935895 0 0.146501 0.0999591 0 0.148834 0.0998966 0 0.151167 0.0998175 0 0.153501 0.0997216 0 0.155834 0.0996091 0 0.158167 0.09948 0 0.1605 0.0993341 0 0.162834 0.0991716 0 0.165167 0.0989925 0 0.1675 0.0987966 0 0.169834 0.0985841 0 0.172167 0.098355 0 0.174501 0.0981091 0 0.176834 0.0978466 0 0.179167 0.0975674 0 0.181501 0.0972716 0 0.146501 0.102969 0 0.148834 0.102922 0 0.151167 0.102863 0 0.1535 0.102791 0 0.155834 0.102707 0 0.158167 0.10261 0 0.1605 0.102501 0 0.162834 0.102379 0 0.165167 0.102244 0 0.1675 0.102097 0 0.169834 0.101938 0 0.172167 0.101766 0 0.1745 0.101582 0 0.176834 0.101385 0 0.179167 0.101176 0 0.181501 0.100954 0 0.1465 0.10598 0 0.148834 0.105948 0 0.151167 0.105909 0 0.1535 0.105861 0 0.155834 0.105805 0 0.158167 0.10574 0 0.1605 0.105667 0 0.162834 0.105586 0 0.165167 0.105496 0 0.1675 0.105398 0 0.169834 0.105292 0 0.172167 0.105177 0 0.1745 0.105055 0 0.176834 0.104923 0 0.179167 0.104784 0 0.1815 0.104636 0 0.1465 0.10899 0 0.148834 0.108974 0 0.151167 0.108954 0 0.1535 0.10893 0 0.155833 0.108902 0 0.158167 0.10887 0 0.1605 0.108834 0 0.162833 0.108793 0 0.165167 0.108748 0 0.1675 0.108699 0 0.169833 0.108646 0 0.172167 0.108589 0 0.1745 0.108527 0 0.176834 0.108462 0 0.179167 0.108392 0 0.1815 0.108318 0 0.1465 0.112 0 0.148833 0.112 0 0.151167 0.112 0 0.1535 0.112 0 0.155833 0.112 0 0.158167 0.112 0 0.1605 0.112 0 0.162833 0.112 0 0.165167 0.112 0 0.1675 0.112 0 0.169833 0.112 0 0.172167 0.112 0 0.1745 0.112 0 0.176833 0.112 0 0.179167 0.112 0 0.1815 0.112 0 
</DataArray>
</Points> 
</Piece> 
</StructuredGrid> 
</VTKFile> 
