<?xml version="1.0"?> 
<VTKFile type="StructuredGrid" version="0.1"> 
<StructuredGrid WholeExtent="0 15 0 15 0 0"> 
<Piece Extent="0 15 0 15 0 0"> 
<PointData>
<DataArray type="Float32" Name="|E|" format="ascii" NumberOfComponents="3"> 
-369434 0 0 -366858 -90382.4 0 -358904 -181525 0 -344882 -274544 0 -324093 -371418 0 -295300 -459900 0 -254675 -539053 0 -205981 -742632 0 -164635 -1.2032e+06 0 -121379 -1.59801e+06 0 -16973.3 -1.17786e+06 0 207492 326743 0 524743 1.69413e+06 0 794383 45042.2 0 823548 -8.32847e+06 0 478181 -2.68156e+07 0 -450319 0 0 -446275 -127968 0 -433706 -258456 0 -411610 -395029 0 -378766 -544154 0 -340233 -707159 0 -289395 -871066 0 -184886 -1.08602e+06 0 -35686.5 -1.52325e+06 0 -12655 -2.27499e+06 0 -367815 -3.08475e+06 0 -1.19549e+06 -3.4299e+06 0 -2.28535e+06 -2.97929e+06 0 -3.20575e+06 -2.03062e+06 0 -3.52975e+06 -1.58601e+06 0 -3.0287e+06 -3.07228e+06 0 -534548 0 0 -529472 -167429 0 -513951 -340899 0 -487498 -528549 0 -452828 -738812 0 -403227 -986492 0 -341854 -1.34943e+06 0 -394470 -1.9269e+06 0 -787545 -2.58349e+06 0 -1.57695e+06 -2.89626e+06 0 -2.48448e+06 -2.57002e+06 0 -3.09942e+06 -1.84652e+06 0 -3.22464e+06 -1.3547e+06 0 -3.02254e+06 -1.45522e+06 0 -2.88112e+06 -1.57768e+06 0 -3.16257e+06 10381.9 0 -621586 0 0 -616266 -207849 0 -600786 -426684 0 -578339 -669989 0 -553763 -960552 0 -555125 -1.35869e+06 0 -732472 -1.90343e+06 0 -1.27265e+06 -2.39063e+06 0 -2.07642e+06 -2.44122e+06 0 -2.7434e+06 -1.9783e+06 0 -2.98701e+06 -1.40171e+06 0 -2.9114e+06 -1.12868e+06 0 -2.83083e+06 -1.08639e+06 0 -2.91516e+06 -826134 0 -3.04394e+06 -289053 0 -2.94138e+06 -689450 0 -710359 0 0 -706074 -248306 0 -695335 -512870 0 -688407 -816105 0 -713982 -1.19969e+06 0 -897461 -1.68928e+06 0 -1.40948e+06 -2.10684e+06 0 -2.13238e+06 -2.11423e+06 0 -2.66334e+06 -1.68715e+06 0 -2.80942e+06 -1.21714e+06 0 -2.77744e+06 -981635 0 -2.81741e+06 -823924 0 -2.92418e+06 -506814 0 -2.95582e+06 -166342 0 -2.9021e+06 -83895 0 -2.94285e+06 341780 0 -800131 0 0 -798220 -287628 0 -797956 -596828 0 -822311 -958489 0 -952824 -1.40078e+06 0 -1.35488e+06 -1.81903e+06 0 -1.99398e+06 -1.91012e+06 0 -2.50618e+06 -1.58185e+06 0 -2.68182e+06 -1.16144e+06 0 -2.70962e+06 -896628 0 -2.78387e+06 -664151 0 -2.85627e+06 -335888 0 -2.84845e+06 -43570.7 0 -2.82421e+06 119781 0 -2.85408e+06 358047 0 -2.85969e+06 505009 0 -890627 0 0 -892100 -324903 0 -907525 -675899 0 -980579 -1.08161e+06 0 -1.24019e+06 -1.51144e+06 0 -1.76651e+06 -1.73991e+06 0 -2.30234e+06 -1.562e+06 0 -2.55945e+06 -1.17831e+06 0 -2.63519e+06 -867996 0 -2.7135e+06 -589748 0 -2.76873e+06 -258486 0 -2.76278e+06 30432.5 0 -2.76445e+06 245122 0 -2.79847e+06 507767 0 -2.81629e+06 785584 0 -2.83634e+06 1.07329e+06 0 -981398 0 0 -986987 -359772 0 -1.02185e+06 -747063 0 -1.15533e+06 -1.17127e+06 0 -1.5197e+06 -1.52231e+06 0 -2.04177e+06 -1.54861e+06 0 -2.40361e+06 -1.24889e+06 0 -2.54101e+06 -904169 0 -2.62465e+06 -592760 0 -2.68187e+06 -253286 0 -2.68898e+06 56298 0 -2.70223e+06 317803 0 -2.7334e+06 611512 0 -2.74944e+06 915298 0 -2.76332e+06 1.19109e+06 0 -2.77677e+06 1.48094e+06 0 -1.07164e+06 0 0 -1.08195e+06 -392201 0 -1.13829e+06 -807654 0 -1.33208e+06 -1.22195e+06 0 -1.74708e+06 -1.45941e+06 0 -2.18568e+06 -1.33518e+06 0 -2.41802e+06 -1.00229e+06 0 -2.52334e+06 -661848 0 -2.59202e+06 -309112 0 -2.6151e+06 30417.1 0 -2.63275e+06 332959 0 -2.6616e+06 652397 0 -2.67889e+06 978005 0 -2.69334e+06 1.28644e+06 0 -2.70658e+06 1.62378e+06 0 -2.70739e+06 1.9776e+06 0 -1.16055e+06 0 0 -1.17599e+06 -422165 0 -1.25397e+06 -856368 0 -1.4953e+06 -1.23736e+06 0 -1.90634e+06 -1.35739e+06 0 -2.24426e+06 -1.13862e+06 0 -2.40613e+06 -789379 0 -2.49292e+06 -421909 0 -2.53568e+06 -52384.4 0 -2.55792e+06 288594 0 -2.58591e+06 632494 0 -2.60604e+06 982880 0 -2.62041e+06 1.32537e+06 0 -2.62961e+06 1.6921e+06 0 -2.61837e+06 2.07102e+06 0 -2.54769e+06 2.46015e+06 0 -1.24774e+06 0 0 -1.26828e+06 -449576 0 -1.36581e+06 -893706 0 -1.63344e+06 -1.22621e+06 0 -2.00362e+06 -1.24158e+06 0 -2.25708e+06 -961400 0 -2.37986e+06 -587088 0 -2.4458e+06 -193980 0 -2.47854e+06 184887 0 -2.5068e+06 554685 0 -2.53046e+06 930588 0 -2.54544e+06 1.30434e+06 0 -2.55179e+06 1.69522e+06 0 -2.53476e+06 2.09768e+06 0 -2.44561e+06 2.48614e+06 0 -2.21205e+06 2.76713e+06 0 -1.33334e+06 0 0 -1.35829e+06 -474474 0 -1.47064e+06 -921612 0 -1.74096e+06 -1.19784e+06 0 -2.05362e+06 -1.12429e+06 0 -2.24453e+06 -795418 0 -2.34052e+06 -391390 0 -2.39205e+06 20935.2 0 -2.42438e+06 420587 0 -2.45164e+06 821157 0 -2.46935e+06 1.22366e+06 0 -2.47544e+06 1.63719e+06 0 -2.45915e+06 2.06112e+06 0 -2.37398e+06 2.46394e+06 0 -2.15434e+06 2.73547e+06 0 -1.83111e+06 2.67152e+06 0 -1.41773e+06 0 0 -1.44574e+06 -497271 0 -1.56558e+06 -942674 0 -1.8176e+06 -1.15963e+06 0 -2.06979e+06 -1.00887e+06 0 -2.21534e+06 -634994 0 -2.29258e+06 -202567 0 -2.33732e+06 229998 0 -2.36903e+06 655941 0 -2.39162e+06 1.08483e+06 0 -2.40043e+06 1.52132e+06 0 -2.38935e+06 1.96712e+06 0 -2.32399e+06 2.39545e+06 0 -2.14446e+06 2.68751e+06 0 -1.88254e+06 2.64176e+06 0 -1.67977e+06 2.20598e+06 0 -1.50116e+06 0 0 -1.53051e+06 -518750 0 -1.64849e+06 -959465 0 -1.86592e+06 -1.1163e+06 0 -2.06155e+06 -894716 0 -2.17489e+06 -477824 0 -2.24046e+06 -18928.5 0 -2.28183e+06 436409 0 -2.31065e+06 889584 0 -2.32541e+06 1.34952e+06 0 -2.32116e+06 1.81775e+06 0 -2.28013e+06 2.27851e+06 0 -2.15435e+06 2.62478e+06 0 -1.95273e+06 2.63352e+06 0 -1.78258e+06 2.20781e+06 0 -1.67626e+06 1.4937e+06 0 -1.58366e+06 0 0 -1.61253e+06 -539805 0 -1.71812e+06 -974336 0 -1.88918e+06 -1.07027e+06 0 -2.03553e+06 -780204 0 -2.12748e+06 -322984 0 -2.18631e+06 161152 0 -2.22484e+06 640729 0 -2.24787e+06 1.12273e+06 0 -2.25196e+06 1.61365e+06 0 -2.23014e+06 2.10634e+06 0 -2.15693e+06 2.52744e+06 0 -2.02106e+06 2.64453e+06 0 -1.89161e+06 2.28512e+06 0 -1.81174e+06 1.54677e+06 0 -1.79574e+06 432872 0 -1.66514e+06 0 0 -1.69182e+06 -561223 0 -1.77385e+06 -989388 0 -1.89044e+06 -1.02206e+06 0 -1.99698e+06 -663757 0 -2.07605e+06 -170281 0 -2.1309e+06 338620 0 -2.16533e+06 843478 0 -2.17977e+06 1.35521e+06 0 -2.17149e+06 1.87547e+06 0 -2.1344e+06 2.37121e+06 0 -2.06502e+06 2.64236e+06 0 -1.99016e+06 2.41035e+06 0 -1.94689e+06 1.74808e+06 0 -1.95624e+06 731945 0 -2.0051e+06 132182 0 </DataArray> 
</PointData> 
<Points> 
<DataArray type="Float32" NumberOfComponents="3"> 
0 0.021 0 0.00106667 0.021 0 0.00213333 0.021 0 0.0032 0.021 0 0.00426667 0.021 0 0.00533333 0.021 0 0.0064 0.021 0 0.00746667 0.021 0 0.00853333 0.021 0 0.0096 0.021 0 0.0106667 0.021 0 0.0117333 0.021 0 0.0128 0.021 0 0.0138667 0.021 0 0.0149333 0.021 0 0.016 0.021 0 0 0.0219333 0 0.00144 0.0219333 0 0.00288 0.0219333 0 0.00432 0.0219333 0 0.00576 0.0219333 0 0.0072 0.0219333 0 0.00864 0.0219333 0 0.01008 0.0219333 0 0.01152 0.0219333 0 0.01296 0.0219333 0 0.0144 0.0219333 0 0.01584 0.0219333 0 0.01728 0.0219333 0 0.01872 0.0219333 0 0.02016 0.0219333 0 0.0216 0.0219333 0 0 0.0228667 0 0.00181333 0.0228667 0 0.00362667 0.0228667 0 0.00544 0.0228667 0 0.00725333 0.0228667 0 0.00906667 0.0228667 0 0.01088 0.0228667 0 0.0126933 0.0228667 0 0.0145067 0.0228667 0 0.01632 0.0228667 0 0.0181333 0.0228667 0 0.0199467 0.0228667 0 0.02176 0.0228667 0 0.0235733 0.0228667 0 0.0253867 0.0228667 0 0.0272 0.0228667 0 0 0.0238 0 0.00218667 0.0238 0 0.00437333 0.0238 0 0.00656 0.0238 0 0.00874667 0.0238 0 0.0109333 0.0238 0 0.01312 0.0238 0 0.0153067 0.0238 0 0.0174933 0.0238 0 0.01968 0.0238 0 0.0218667 0.0238 0 0.0240533 0.0238 0 0.02624 0.0238 0 0.0284267 0.0238 0 0.0306133 0.0238 0 0.0328 0.0238 0 0 0.0247333 0 0.00256 0.0247333 0 0.00512 0.0247333 0 0.00768 0.0247333 0 0.01024 0.0247333 0 0.0128 0.0247333 0 0.01536 0.0247333 0 0.01792 0.0247333 0 0.02048 0.0247333 0 0.02304 0.0247333 0 0.0256 0.0247333 0 0.02816 0.0247333 0 0.03072 0.0247333 0 0.03328 0.0247333 0 0.03584 0.0247333 0 0.0384 0.0247333 0 0 0.0256667 0 0.00293333 0.0256667 0 0.00586667 0.0256667 0 0.0088 0.0256667 0 0.0117333 0.0256667 0 0.0146667 0.0256667 0 0.0176 0.0256667 0 0.0205333 0.0256667 0 0.0234667 0.0256667 0 0.0264 0.0256667 0 0.0293333 0.0256667 0 0.0322667 0.0256667 0 0.0352 0.0256667 0 0.0381333 0.0256667 0 0.0410667 0.0256667 0 0.044 0.0256667 0 0 0.0266 0 0.00330667 0.0266 0 0.00661333 0.0266 0 0.00992 0.0266 0 0.0132267 0.0266 0 0.0165333 0.0266 0 0.01984 0.0266 0 0.0231467 0.0266 0 0.0264533 0.0266 0 0.02976 0.0266 0 0.0330667 0.0266 0 0.0363733 0.0266 0 0.03968 0.0266 0 0.0429867 0.0266 0 0.0462933 0.0266 0 0.0496 0.0266 0 0 0.0275333 0 0.00368 0.0275333 0 0.00736 0.0275333 0 0.01104 0.0275333 0 0.01472 0.0275333 0 0.0184 0.0275333 0 0.02208 0.0275333 0 0.02576 0.0275333 0 0.02944 0.0275333 0 0.03312 0.0275333 0 0.0368 0.0275333 0 0.04048 0.0275333 0 0.04416 0.0275333 0 0.04784 0.0275333 0 0.05152 0.0275333 0 0.0552 0.0275333 0 0 0.0284667 0 0.00405333 0.0284667 0 0.00810667 0.0284667 0 0.01216 0.0284667 0 0.0162133 0.0284667 0 0.0202667 0.0284667 0 0.02432 0.0284667 0 0.0283733 0.0284667 0 0.0324267 0.0284667 0 0.03648 0.0284667 0 0.0405333 0.0284667 0 0.0445867 0.0284667 0 0.04864 0.0284667 0 0.0526933 0.0284667 0 0.0567467 0.0284667 0 0.0608 0.0284667 0 0 0.0294 0 0.00442667 0.0294 0 0.00885333 0.0294 0 0.01328 0.0294 0 0.0177067 0.0294 0 0.0221333 0.0294 0 0.02656 0.0294 0 0.0309867 0.0294 0 0.0354133 0.0294 0 0.03984 0.0294 0 0.0442667 0.0294 0 0.0486933 0.0294 0 0.05312 0.0294 0 0.0575467 0.0294 0 0.0619733 0.0294 0 0.0664 0.0294 0 0 0.0303333 0 0.0048 0.0303333 0 0.0096 0.0303333 0 0.0144 0.0303333 0 0.0192 0.0303333 0 0.024 0.0303333 0 0.0288 0.0303333 0 0.0336 0.0303333 0 0.0384 0.0303333 0 0.0432 0.0303333 0 0.048 0.0303333 0 0.0528 0.0303333 0 0.0576 0.0303333 0 0.0624 0.0303333 0 0.0672 0.0303333 0 0.072 0.0303333 0 0 0.0312667 0 0.00517333 0.0312667 0 0.0103467 0.0312667 0 0.01552 0.0312667 0 0.0206933 0.0312667 0 0.0258667 0.0312667 0 0.03104 0.0312667 0 0.0362133 0.0312667 0 0.0413867 0.0312667 0 0.04656 0.0312667 0 0.0517333 0.0312667 0 0.0569067 0.0312667 0 0.06208 0.0312667 0 0.0672533 0.0312667 0 0.0724267 0.0312667 0 0.0776 0.0312667 0 0 0.0322 0 0.00554667 0.0322 0 0.0110933 0.0322 0 0.01664 0.0322 0 0.0221867 0.0322 0 0.0277333 0.0322 0 0.03328 0.0322 0 0.0388267 0.0322 0 0.0443733 0.0322 0 0.04992 0.0322 0 0.0554667 0.0322 0 0.0610133 0.0322 0 0.06656 0.0322 0 0.0721067 0.0322 0 0.0776533 0.0322 0 0.0832 0.0322 0 0 0.0331333 0 0.00592 0.0331333 0 0.01184 0.0331333 0 0.01776 0.0331333 0 0.02368 0.0331333 0 0.0296 0.0331333 0 0.03552 0.0331333 0 0.04144 0.0331333 0 0.04736 0.0331333 0 0.05328 0.0331333 0 0.0592 0.0331333 0 0.06512 0.0331333 0 0.07104 0.0331333 0 0.07696 0.0331333 0 0.08288 0.0331333 0 0.0888 0.0331333 0 0 0.0340667 0 0.00629333 0.0340667 0 0.0125867 0.0340667 0 0.01888 0.0340667 0 0.0251733 0.0340667 0 0.0314667 0.0340667 0 0.03776 0.0340667 0 0.0440533 0.0340667 0 0.0503467 0.0340667 0 0.05664 0.0340667 0 0.0629333 0.0340667 0 0.0692267 0.0340667 0 0.07552 0.0340667 0 0.0818133 0.0340667 0 0.0881067 0.0340667 0 0.0944 0.0340667 0 0 0.035 0 0.00666667 0.035 0 0.0133333 0.035 0 0.02 0.035 0 0.0266667 0.035 0 0.0333333 0.035 0 0.04 0.035 0 0.0466667 0.035 0 0.0533333 0.035 0 0.06 0.035 0 0.0666667 0.035 0 0.0733333 0.035 0 0.08 0.035 0 0.0866667 0.035 0 0.0933333 0.035 0 0.1 0.035 0 
</DataArray>
</Points> 
</Piece> 
</StructuredGrid> 
</VTKFile> 
