<?xml version="1.0"?> 
<VTKFile type="StructuredGrid" version="0.1"> 
<StructuredGrid WholeExtent="0 15 0 15 0 0"> 
<Piece Extent="0 15 0 15 0 0"> 
<PointData>
<DataArray type="Float32" Name="|E|" format="ascii" NumberOfComponents="3"> 
730.406 1.19209e-06 0 -27.076 -178.394 0 -49.0754 -108.973 0 -46.555 -33.9672 0 -34.2445 -27.8302 0 -22.9269 -9.65574 0 -15.4786 -7.98219 0 -9.8086 -3.43977 0 -6.42388 -2.56752 0 -4.03148 -1.34777 0 -2.61152 -0.897034 0 -1.65926 -0.530936 0 -1.09768 -0.316983 0 -0.751207 -0.18574 0 -0.574375 -0.0761223 0 -0.520332 3.09944e-06 0 459.225 -2.15136e-07 0 16.4492 -167.377 0 -40.0319 -93.4104 0 -41.0825 -43.37 0 -31.1647 -25.9023 0 -21.9066 -13.2291 0 -14.499 -8.20455 0 -9.5476 -4.62597 0 -6.1002 -2.8996 0 -3.93681 -1.73846 0 -2.50046 -1.08471 0 -1.61789 -0.662868 0 -1.05698 -0.399563 0 -0.73038 -0.226001 0 -0.555835 -0.101152 0 -0.501428 -2.45171e-07 0 306.484 1.20606e-07 0 36.7141 -145.905 0 -30.6711 -85.5498 0 -35.7951 -46.9285 0 -28.4315 -26.3659 0 -20.4836 -15.2778 0 -13.6705 -8.9993 0 -9.09142 -5.47086 0 -5.81957 -3.33316 0 -3.77108 -2.0677 0 -2.39671 -1.27813 0 -1.55306 -0.788687 0 -1.01506 -0.476255 0 -0.701715 -0.268552 0 -0.534147 -0.121556 0 -0.482048 6.14673e-08 0 216.056 -1.85333e-07 0 44.6808 -123.331 0 -22.2822 -80.1835 0 -30.8705 -47.9968 0 -25.7951 -27.5109 0 -18.928 -16.6892 0 -12.8277 -9.93409 0 -8.5553 -6.16941 0 -5.51923 -3.78113 0 -3.57255 -2.36562 0 -2.28112 -1.46674 0 -1.47565 -0.90808 0 -0.967078 -0.548908 0 -0.667787 -0.310084 0 -0.508855 -0.140205 0 -0.459556 -2.18861e-07 0 159.422 3.31551e-07 0 46.1531 -103.171 0 -15.3254 -75.4259 0 -26.37 -47.9957 0 -23.2033 -28.6803 0 -17.3316 -17.8111 0 -11.9286 -10.8448 0 -7.97537 -6.79269 0 -5.18399 -4.21028 0 -3.35251 -2.64217 0 -2.14956 -1.64585 0 -1.38876 -1.02066 0 -0.912159 -0.617637 0 -0.629374 -0.349486 0 -0.479985 -0.157788 0 -0.433646 2.47732e-07 0 121.789 -2.90573e-07 0 44.2427 -86.3442 0 -9.85324 -70.7767 0 -22.3104 -47.5075 0 -20.6656 -29.6653 0 -15.7237 -18.7674 0 -10.9721 -11.6777 0 -7.36171 -7.36223 0 -4.81389 -4.60892 0 -3.11388 -2.89939 0 -2.00244 -1.81323 0 -1.29324 -1.1259 0 -0.850623 -0.682069 0 -0.586775 -0.386344 0 -0.447728 -0.174331 0 -0.404552 -1.08033e-07 0 95.3072 7.07805e-08 0 40.627 -72.7544 0 -5.73427 -66.2283 0 -18.6868 -46.7818 0 -18.2035 -30.4279 0 -14.1142 -19.5989 0 -9.9678 -12.4195 0 -6.71737 -7.88217 0 -4.41288 -4.97309 0 -2.85764 -3.13665 0 -1.84131 -1.96761 0 -1.18951 -1.22322 0 -0.78305 -0.741752 0 -0.540222 -0.420424 0 -0.412327 -0.18971 0 -0.372571 8.56817e-08 0 75.6674 8.19564e-08 0 36.2144 -61.9678 0 -2.76992 -61.9073 0 -15.4799 -45.9407 0 -15.8339 -30.9894 0 -12.5078 -20.3191 0 -8.9264 -13.0703 0 -6.04443 -8.35151 0 -3.98524 -5.30135 0 -2.58474 -3.35265 0 -1.66777 -2.10807 0 -1.07804 -1.312 0 -0.710038 -0.796263 0 -0.489985 -0.451527 0 -0.374049 -0.20379 0 -0.337981 -3.72529e-08 0 60.414 -9.68575e-08 0 31.4913 -53.496 0 -0.751658 -57.9438 0 -12.6596 -45.0585 0 -13.5658 -31.3871 0 -10.9082 -20.9339 0 -7.8567 -13.634 0 -5.34544 -8.76831 0 -3.53483 -5.59292 0 -2.29647 -3.54607 0 -1.4833 -2.23386 0 -0.959469 -1.3917 0 -0.632166 -0.845228 0 -0.436384 -0.479467 0 -0.333171 -0.216454 0 -0.301045 1.41561e-07 0 48.0825 8.9407e-08 0 26.7114 -46.9026 0 0.513077 -54.4328 0 -10.1874 -44.1902 0 -11.4004 -31.6583 0 -9.31811 -21.4488 0 -6.76556 -14.1146 0 -4.62351 -9.13101 0 -3.065 -5.84715 0 -1.99444 -3.71576 0 -1.28928 -2.34429 0 -0.834533 -1.46181 0 -0.550001 -0.888322 0 -0.379779 -0.504066 0 -0.289981 -0.22761 0 -0.262024 -2.98023e-07 0 37.7557 1.04308e-07 0 21.9976 -41.831 0 1.19161 -51.432 0 -8.01923 -43.3814 0 -9.33271 -31.8355 0 -7.73946 -21.8698 0 -5.6583 -14.5157 0 -3.88203 -9.4386 0 -2.5788 -6.06345 0 -1.68046 -3.8608 0 -1.08706 -2.43878 0 -0.704056 -1.52188 0 -0.464117 -0.925265 0 -0.320558 -0.525164 0 -0.244783 -0.237179 0 -0.221189 1.93715e-07 0 28.8272 -2.38419e-07 0 17.3988 -38.0053 0 1.42496 -48.9707 0 -6.10685 -42.6697 0 -7.35262 -31.9456 0 -6.17292 -22.2032 0 -4.53907 -14.8402 0 -3.12446 -9.69054 0 -2.0791 -6.24125 0 -1.35646 -3.98042 0 -0.877968 -2.5168 0 -0.56891 -1.57154 0 -0.375103 -0.955818 0 -0.259131 -0.542621 0 -0.19789 -0.245095 0 -0.178821 -1.19209e-07 0 20.8727 1.49012e-07 0 12.922 -35.2196 0 1.33067 -47.0594 0 -4.40007 -42.0854 0 -5.44653 -32.0098 0 -4.6179 -22.4553 0 -3.41115 -15.0902 0 -2.35422 -9.88656 0 -1.56867 -6.38006 0 -1.02441 -4.07405 0 -0.663344 -2.57794 0 -0.43 -1.61048 0 -0.28356 -0.979787 0 -0.195921 -0.55632 0 -0.149628 -0.251308 0 -0.135213 7.45058e-08 0 13.5772 -1.93715e-07 0 8.55086 -33.3267 0 1.00718 -45.6985 0 -2.84766 -41.6519 0 -3.59808 -32.0444 0 -3.07266 -22.6312 0 -2.27722 -15.2676 0 -1.57461 -10.0266 0 -1.05022 -6.4795 0 -0.686301 -4.14124 0 -0.444554 -2.62185 0 -0.288251 -1.63847 0 -0.190107 -0.997017 0 -0.131366 -0.566171 0 -0.100331 -0.255775 0 -0.0906666 -5.96046e-08 0 6.69055 1.78814e-07 0 4.2557 -32.2283 0 0.538685 -44.8844 0 -1.39813 -41.3853 0 -1.78904 -32.0607 0 -1.53448 -22.7351 0 -1.13952 -15.3735 0 -0.788839 -10.1106 0 -0.526444 -6.53927 0 -0.34416 -4.18167 0 -0.222975 -2.64829 0 -0.144602 -1.65533 0 -0.0953748 -1.0074 0 -0.0659093 -0.572108 0 -0.0503396 -0.258467 0 -0.0454913 8.9407e-08 0 3.57628e-07 -1.19209e-06 0 2.6921e-09 -31.8684 0 -4.7381e-08 -44.6135 0 4.51691e-08 -41.2954 0 -2.84053e-08 -32.0653 0 -1.86265e-09 -22.7695 0 4.09782e-08 -15.4088 0 -3.35276e-08 -10.1386 0 9.31323e-09 -6.55922 0 -1.86265e-09 -4.19517 0 -1.11759e-08 -2.65712 0 3.72529e-09 -1.66096 0 7.45058e-09 -1.01087 0 -1.11759e-08 -0.574092 0 -2.23517e-08 -0.259367 0 1.78814e-07 -5.96046e-07 0 </DataArray> 
</PointData> 
<Points> 
<DataArray type="Float32" NumberOfComponents="3"> 
0.13 0.035 0 0.133667 0.035 0 0.137333 0.035 0 0.141 0.035 0 0.144667 0.035 0 0.148333 0.035 0 0.152 0.035 0 0.155667 0.035 0 0.159333 0.035 0 0.163 0.035 0 0.166667 0.035 0 0.170333 0.035 0 0.174 0.035 0 0.177667 0.035 0 0.181333 0.035 0 0.185 0.035 0 0.13 0.0356667 0 0.133667 0.0356667 0 0.137333 0.0356667 0 0.141 0.0356667 0 0.144667 0.0356667 0 0.148333 0.0356667 0 0.152 0.0356667 0 0.155667 0.0356667 0 0.159333 0.0356667 0 0.163 0.0356667 0 0.166667 0.0356667 0 0.170333 0.0356667 0 0.174 0.0356667 0 0.177667 0.0356667 0 0.181333 0.0356667 0 0.185 0.0356667 0 0.13 0.0363333 0 0.133667 0.0363333 0 0.137333 0.0363333 0 0.141 0.0363333 0 0.144667 0.0363333 0 0.148333 0.0363333 0 0.152 0.0363333 0 0.155667 0.0363333 0 0.159333 0.0363333 0 0.163 0.0363333 0 0.166667 0.0363333 0 0.170333 0.0363333 0 0.174 0.0363333 0 0.177667 0.0363333 0 0.181333 0.0363333 0 0.185 0.0363333 0 0.13 0.037 0 0.133667 0.037 0 0.137333 0.037 0 0.141 0.037 0 0.144667 0.037 0 0.148333 0.037 0 0.152 0.037 0 0.155667 0.037 0 0.159333 0.037 0 0.163 0.037 0 0.166667 0.037 0 0.170333 0.037 0 0.174 0.037 0 0.177667 0.037 0 0.181333 0.037 0 0.185 0.037 0 0.13 0.0376667 0 0.133667 0.0376667 0 0.137333 0.0376667 0 0.141 0.0376667 0 0.144667 0.0376667 0 0.148333 0.0376667 0 0.152 0.0376667 0 0.155667 0.0376667 0 0.159333 0.0376667 0 0.163 0.0376667 0 0.166667 0.0376667 0 0.170333 0.0376667 0 0.174 0.0376667 0 0.177667 0.0376667 0 0.181333 0.0376667 0 0.185 0.0376667 0 0.13 0.0383333 0 0.133667 0.0383333 0 0.137333 0.0383333 0 0.141 0.0383333 0 0.144667 0.0383333 0 0.148333 0.0383333 0 0.152 0.0383333 0 0.155667 0.0383333 0 0.159333 0.0383333 0 0.163 0.0383333 0 0.166667 0.0383333 0 0.170333 0.0383333 0 0.174 0.0383333 0 0.177667 0.0383333 0 0.181333 0.0383333 0 0.185 0.0383333 0 0.13 0.039 0 0.133667 0.039 0 0.137333 0.039 0 0.141 0.039 0 0.144667 0.039 0 0.148333 0.039 0 0.152 0.039 0 0.155667 0.039 0 0.159333 0.039 0 0.163 0.039 0 0.166667 0.039 0 0.170333 0.039 0 0.174 0.039 0 0.177667 0.039 0 0.181333 0.039 0 0.185 0.039 0 0.13 0.0396667 0 0.133667 0.0396667 0 0.137333 0.0396667 0 0.141 0.0396667 0 0.144667 0.0396667 0 0.148333 0.0396667 0 0.152 0.0396667 0 0.155667 0.0396667 0 0.159333 0.0396667 0 0.163 0.0396667 0 0.166667 0.0396667 0 0.170333 0.0396667 0 0.174 0.0396667 0 0.177667 0.0396667 0 0.181333 0.0396667 0 0.185 0.0396667 0 0.13 0.0403333 0 0.133667 0.0403333 0 0.137333 0.0403333 0 0.141 0.0403333 0 0.144667 0.0403333 0 0.148333 0.0403333 0 0.152 0.0403333 0 0.155667 0.0403333 0 0.159333 0.0403333 0 0.163 0.0403333 0 0.166667 0.0403333 0 0.170333 0.0403333 0 0.174 0.0403333 0 0.177667 0.0403333 0 0.181333 0.0403333 0 0.185 0.0403333 0 0.13 0.041 0 0.133667 0.041 0 0.137333 0.041 0 0.141 0.041 0 0.144667 0.041 0 0.148333 0.041 0 0.152 0.041 0 0.155667 0.041 0 0.159333 0.041 0 0.163 0.041 0 0.166667 0.041 0 0.170333 0.041 0 0.174 0.041 0 0.177667 0.041 0 0.181333 0.041 0 0.185 0.041 0 0.13 0.0416667 0 0.133667 0.0416667 0 0.137333 0.0416667 0 0.141 0.0416667 0 0.144667 0.0416667 0 0.148333 0.0416667 0 0.152 0.0416667 0 0.155667 0.0416667 0 0.159333 0.0416667 0 0.163 0.0416667 0 0.166667 0.0416667 0 0.170333 0.0416667 0 0.174 0.0416667 0 0.177667 0.0416667 0 0.181333 0.0416667 0 0.185 0.0416667 0 0.13 0.0423333 0 0.133667 0.0423333 0 0.137333 0.0423333 0 0.141 0.0423333 0 0.144667 0.0423333 0 0.148333 0.0423333 0 0.152 0.0423333 0 0.155667 0.0423333 0 0.159333 0.0423333 0 0.163 0.0423333 0 0.166667 0.0423333 0 0.170333 0.0423333 0 0.174 0.0423333 0 0.177667 0.0423333 0 0.181333 0.0423333 0 0.185 0.0423333 0 0.13 0.043 0 0.133667 0.043 0 0.137333 0.043 0 0.141 0.043 0 0.144667 0.043 0 0.148333 0.043 0 0.152 0.043 0 0.155667 0.043 0 0.159333 0.043 0 0.163 0.043 0 0.166667 0.043 0 0.170333 0.043 0 0.174 0.043 0 0.177667 0.043 0 0.181333 0.043 0 0.185 0.043 0 0.13 0.0436667 0 0.133667 0.0436667 0 0.137333 0.0436667 0 0.141 0.0436667 0 0.144667 0.0436667 0 0.148333 0.0436667 0 0.152 0.0436667 0 0.155667 0.0436667 0 0.159333 0.0436667 0 0.163 0.0436667 0 0.166667 0.0436667 0 0.170333 0.0436667 0 0.174 0.0436667 0 0.177667 0.0436667 0 0.181333 0.0436667 0 0.185 0.0436667 0 0.13 0.0443333 0 0.133667 0.0443333 0 0.137333 0.0443333 0 0.141 0.0443333 0 0.144667 0.0443333 0 0.148333 0.0443333 0 0.152 0.0443333 0 0.155667 0.0443333 0 0.159333 0.0443333 0 0.163 0.0443333 0 0.166667 0.0443333 0 0.170333 0.0443333 0 0.174 0.0443333 0 0.177667 0.0443333 0 0.181333 0.0443333 0 0.185 0.0443333 0 0.13 0.045 0 0.133667 0.045 0 0.137333 0.045 0 0.141 0.045 0 0.144667 0.045 0 0.148333 0.045 0 0.152 0.045 0 0.155667 0.045 0 0.159333 0.045 0 0.163 0.045 0 0.166667 0.045 0 0.170333 0.045 0 0.174 0.045 0 0.177667 0.045 0 0.181333 0.045 0 0.185 0.045 0 
</DataArray>
</Points> 
</Piece> 
</StructuredGrid> 
</VTKFile> 
