<?xml version="1.0"?> 
<VTKFile type="StructuredGrid" version="0.1"> 
<StructuredGrid WholeExtent="0 15 0 15 0 0"> 
<Piece Extent="0 15 0 15 0 0"> 
<PointData>
<DataArray type="Float32" Name="|E|" format="ascii" NumberOfComponents="3"> 
1.25239e+06 -127795 0 1.6101e+06 -103993 0 1.76085e+06 -19407.3 0 1.73344e+06 34481.9 0 1.60265e+06 64901.1 0 1.43234e+06 71148.4 0 1.25908e+06 68877.8 0 1.09961e+06 61254.2 0 960454 52610.2 0 843104 43664.3 0 747053 35207.8 0 670996 27297.8 0 613537 19941.8 0 573437 13036.4 0 549762 6437.45 0 541937 0 0 1.25501e+06 -128063 0 1.61218e+06 -110224 0 1.76307e+06 -21041.1 0 1.73441e+06 37316.9 0 1.60275e+06 69071.8 0 1.43207e+06 75927.6 0 1.25863e+06 73342.8 0 1.09917e+06 65266.8 0 960038 56027.9 0 842749 46507.9 0 746747 37496.9 0 670737 29073.2 0 613314 21238.9 0 573239 13884 0 549579 6856.34 0 541759 0 0 1.25611e+06 -128175 0 1.61453e+06 -116499 0 1.76541e+06 -22621.1 0 1.73545e+06 40182.8 0 1.60287e+06 73264.5 0 1.43179e+06 80713.1 0 1.25817e+06 77810.4 0 1.09871e+06 69278.5 0 959607 59444.2 0 842378 49349.8 0 746427 39784.6 0 670466 30847.4 0 613078 22535.1 0 573030 14731.1 0 549386 7274.95 0 541570 0 0 1.25568e+06 -128131 0 1.61717e+06 -122803 0 1.76786e+06 -24157.9 0 1.73655e+06 43088.1 0 1.60302e+06 77476.1 0 1.43151e+06 85507.3 0 1.25771e+06 82279.8 0 1.09824e+06 73289.6 0 959160 62859 0 841992 52190.2 0 746092 42070.8 0 670181 32620.5 0 612830 23830.4 0 572809 15577.6 0 549180 7693.25 0 541371 0 0 1.25369e+06 -127928 0 1.62009e+06 -129121 0 1.77043e+06 -25663 0 1.73772e+06 46041.7 0 1.6032e+06 81703.6 0 1.43122e+06 90312.6 0 1.25723e+06 86750.1 0 1.09774e+06 77300.8 0 958698 66272.2 0 841590 55029 0 745744 44355.5 0 669882 34392.3 0 612569 25124.9 0 572576 16423.5 0 548964 8111.27 0 541160 0 0 1.2501e+06 -127561 0 1.62332e+06 -135434 0 1.7731e+06 -27148.2 0 1.73896e+06 49053.1 0 1.6034e+06 85943.5 0 1.43093e+06 95131.7 0 1.25674e+06 91220.5 0 1.09724e+06 81312.6 0 958222 69683.4 0 841172 57866.3 0 745381 46638.7 0 669570 36163 0 612296 26418.4 0 572332 17268.9 0 548736 8528.99 0 540937 0 0 1.24485e+06 -127026 0 1.62685e+06 -141725 0 1.77589e+06 -28626.3 0 1.74026e+06 52132 0 1.60362e+06 90192.3 0 1.43064e+06 99967.1 0 1.25625e+06 95690 0 1.09672e+06 85325.4 0 957730 73092.5 0 840739 60702.1 0 745004 48920.2 0 669245 37932.4 0 612011 27710.9 0 572076 18113.6 0 548497 8946.42 0 540704 0 0 1.23789e+06 -126315 0 1.6307e+06 -147973 0 1.77878e+06 -30111.1 0 1.74163e+06 55289.2 0 1.60387e+06 94445.7 0 1.43034e+06 104822 0 1.25574e+06 100157 0 1.09618e+06 89340.1 0 957223 76499.1 0 840290 63536.7 0 744614 51200.1 0 668906 39700.6 0 611713 29002.6 0 571808 18957.6 0 548247 9363.56 0 540460 0 0 1.22911e+06 -125420 0 1.6349e+06 -154157 0 1.78179e+06 -31618 0 1.74306e+06 58536 0 1.60415e+06 98699.1 0 1.43004e+06 109700 0 1.25523e+06 104622 0 1.09562e+06 93357.2 0 956701 79903.1 0 839825 66369.9 0 744209 53478.3 0 668554 41467.5 0 611403 30293.3 0 571528 19801 0 547985 9780.42 0 540204 0 0 1.21843e+06 -124330 0 1.63946e+06 -160252 0 1.7849e+06 -33163.6 0 1.74455e+06 61885.2 0 1.60445e+06 102947 0 1.42973e+06 114603 0 1.25471e+06 109081 0 1.09505e+06 97377.6 0 956164 83304 0 839345 69202 0 743790 55754.6 0 668189 43233 0 611081 31583 0 571237 20643.7 0 547713 10197 0 539937 0 0 1.20572e+06 -123033 0 1.6444e+06 -166229 0 1.78812e+06 -34767 0 1.74611e+06 65350.5 0 1.60477e+06 107184 0 1.42942e+06 119537 0 1.25417e+06 113534 0 1.09446e+06 101402 0 955612 86701.6 0 838848 72033 0 743357 58029.1 0 667810 44997.2 0 610747 32871.7 0 570934 21485.6 0 547428 10613.3 0 539659 0 0 1.19085e+06 -121515 0 1.64976e+06 -172058 0 1.79144e+06 -36449.3 0 1.74772e+06 68947.3 0 1.60513e+06 111403 0 1.42909e+06 124506 0 1.25363e+06 117979 0 1.09385e+06 105432 0 955047 90095.3 0 838335 74863.2 0 742911 60301.6 0 667418 46760.1 0 610400 34159.5 0 570619 22326.8 0 547133 11029.3 0 539370 0 0 1.17365e+06 -119760 0 1.65555e+06 -177703 0 1.79486e+06 -38234.6 0 1.74939e+06 72692.5 0 1.60551e+06 115596 0 1.42875e+06 129514 0 1.25309e+06 122413 0 1.09322e+06 109468 0 954467 93484.7 0 837806 77692.5 0 742450 62572.1 0 667012 48521.6 0 610041 35446.2 0 570292 23167.1 0 546826 11445.1 0 539070 0 0 1.15394e+06 -117749 0 1.66182e+06 -183123 0 1.79837e+06 -40149.9 0 1.75112e+06 76605.1 0 1.60591e+06 119753 0 1.42841e+06 134567 0 1.25253e+06 126834 0 1.09257e+06 113511 0 953873 96869.2 0 837260 80521.3 0 741977 64840.5 0 666592 50281.6 0 609670 36732 0 569954 24006.7 0 546508 11860.6 0 538759 0 0 1.13153e+06 -115462 0 1.66861e+06 -188271 0 1.80198e+06 -42226.1 0 1.75291e+06 80706.6 0 1.60635e+06 123866 0 1.42804e+06 139671 0 1.25198e+06 131240 0 1.09191e+06 117564 0 953267 100248 0 836698 83349.8 0 741490 67106.7 0 666159 52040.2 0 609287 38016.8 0 569603 24845.3 0 546179 12275.9 0 538437 0 0 1.10616e+06 -112874 0 1.67596e+06 -193097 0 1.80567e+06 -44497.8 0 1.75474e+06 85020.5 0 1.60682e+06 127922 0 1.42766e+06 144834 0 1.25141e+06 135626 0 1.09122e+06 121627 0 952647 103621 0 836118 86178.1 0 740989 69370.5 0 665712 53797.4 0 608891 39300.6 0 569241 25683.1 0 545838 12691.1 0 538104 0 0 </DataArray> 
</PointData> 
<Points> 
<DataArray type="Float32" NumberOfComponents="3"> 
0.19 0.005 0 0.2022 0.005 0 0.2144 0.005 0 0.2266 0.005 0 0.2388 0.005 0 0.251 0.005 0 0.2632 0.005 0 0.2754 0.005 0 0.2876 0.005 0 0.2998 0.005 0 0.312 0.005 0 0.3242 0.005 0 0.3364 0.005 0 0.3486 0.005 0 0.3608 0.005 0 0.373 0.005 0 0.190033 0.00532667 0 0.202231 0.00532667 0 0.214429 0.00532667 0 0.226627 0.00532667 0 0.238824 0.00532667 0 0.251022 0.00532667 0 0.26322 0.00532667 0 0.275418 0.00532667 0 0.287616 0.00532667 0 0.299813 0.00532667 0 0.312011 0.00532667 0 0.324209 0.00532667 0 0.336407 0.00532667 0 0.348604 0.00532667 0 0.360802 0.00532667 0 0.373 0.00532667 0 0.190067 0.00565333 0 0.202262 0.00565333 0 0.214458 0.00565333 0 0.226653 0.00565333 0 0.238849 0.00565333 0 0.251044 0.00565333 0 0.26324 0.00565333 0 0.275436 0.00565333 0 0.287631 0.00565333 0 0.299827 0.00565333 0 0.312022 0.00565333 0 0.324218 0.00565333 0 0.336413 0.00565333 0 0.348609 0.00565333 0 0.360804 0.00565333 0 0.373 0.00565333 0 0.1901 0.00598 0 0.202293 0.00598 0 0.214487 0.00598 0 0.22668 0.00598 0 0.238873 0.00598 0 0.251067 0.00598 0 0.26326 0.00598 0 0.275453 0.00598 0 0.287647 0.00598 0 0.29984 0.00598 0 0.312033 0.00598 0 0.324227 0.00598 0 0.33642 0.00598 0 0.348613 0.00598 0 0.360807 0.00598 0 0.373 0.00598 0 0.190133 0.00630667 0 0.202324 0.00630667 0 0.214516 0.00630667 0 0.226707 0.00630667 0 0.238898 0.00630667 0 0.251089 0.00630667 0 0.26328 0.00630667 0 0.275471 0.00630667 0 0.287662 0.00630667 0 0.299853 0.00630667 0 0.312044 0.00630667 0 0.324236 0.00630667 0 0.336427 0.00630667 0 0.348618 0.00630667 0 0.360809 0.00630667 0 0.373 0.00630667 0 0.190167 0.00663333 0 0.202356 0.00663333 0 0.214544 0.00663333 0 0.226733 0.00663333 0 0.238922 0.00663333 0 0.251111 0.00663333 0 0.2633 0.00663333 0 0.275489 0.00663333 0 0.287678 0.00663333 0 0.299867 0.00663333 0 0.312056 0.00663333 0 0.324244 0.00663333 0 0.336433 0.00663333 0 0.348622 0.00663333 0 0.360811 0.00663333 0 0.373 0.00663333 0 0.1902 0.00696 0 0.202387 0.00696 0 0.214573 0.00696 0 0.22676 0.00696 0 0.238947 0.00696 0 0.251133 0.00696 0 0.26332 0.00696 0 0.275507 0.00696 0 0.287693 0.00696 0 0.29988 0.00696 0 0.312067 0.00696 0 0.324253 0.00696 0 0.33644 0.00696 0 0.348627 0.00696 0 0.360813 0.00696 0 0.373 0.00696 0 0.190233 0.00728667 0 0.202418 0.00728667 0 0.214602 0.00728667 0 0.226787 0.00728667 0 0.238971 0.00728667 0 0.251156 0.00728667 0 0.26334 0.00728667 0 0.275524 0.00728667 0 0.287709 0.00728667 0 0.299893 0.00728667 0 0.312078 0.00728667 0 0.324262 0.00728667 0 0.336447 0.00728667 0 0.348631 0.00728667 0 0.360816 0.00728667 0 0.373 0.00728667 0 0.190267 0.00761333 0 0.202449 0.00761333 0 0.214631 0.00761333 0 0.226813 0.00761333 0 0.238996 0.00761333 0 0.251178 0.00761333 0 0.26336 0.00761333 0 0.275542 0.00761333 0 0.287724 0.00761333 0 0.299907 0.00761333 0 0.312089 0.00761333 0 0.324271 0.00761333 0 0.336453 0.00761333 0 0.348636 0.00761333 0 0.360818 0.00761333 0 0.373 0.00761333 0 0.1903 0.00794 0 0.20248 0.00794 0 0.21466 0.00794 0 0.22684 0.00794 0 0.23902 0.00794 0 0.2512 0.00794 0 0.26338 0.00794 0 0.27556 0.00794 0 0.28774 0.00794 0 0.29992 0.00794 0 0.3121 0.00794 0 0.32428 0.00794 0 0.33646 0.00794 0 0.34864 0.00794 0 0.36082 0.00794 0 0.373 0.00794 0 0.190333 0.00826667 0 0.202511 0.00826667 0 0.214689 0.00826667 0 0.226867 0.00826667 0 0.239044 0.00826667 0 0.251222 0.00826667 0 0.2634 0.00826667 0 0.275578 0.00826667 0 0.287756 0.00826667 0 0.299933 0.00826667 0 0.312111 0.00826667 0 0.324289 0.00826667 0 0.336467 0.00826667 0 0.348644 0.00826667 0 0.360822 0.00826667 0 0.373 0.00826667 0 0.190367 0.00859333 0 0.202542 0.00859333 0 0.214718 0.00859333 0 0.226893 0.00859333 0 0.239069 0.00859333 0 0.251244 0.00859333 0 0.26342 0.00859333 0 0.275596 0.00859333 0 0.287771 0.00859333 0 0.299947 0.00859333 0 0.312122 0.00859333 0 0.324298 0.00859333 0 0.336473 0.00859333 0 0.348649 0.00859333 0 0.360824 0.00859333 0 0.373 0.00859333 0 0.1904 0.00892 0 0.202573 0.00892 0 0.214747 0.00892 0 0.22692 0.00892 0 0.239093 0.00892 0 0.251267 0.00892 0 0.26344 0.00892 0 0.275613 0.00892 0 0.287787 0.00892 0 0.29996 0.00892 0 0.312133 0.00892 0 0.324307 0.00892 0 0.33648 0.00892 0 0.348653 0.00892 0 0.360827 0.00892 0 0.373 0.00892 0 0.190433 0.00924667 0 0.202604 0.00924667 0 0.214776 0.00924667 0 0.226947 0.00924667 0 0.239118 0.00924667 0 0.251289 0.00924667 0 0.26346 0.00924667 0 0.275631 0.00924667 0 0.287802 0.00924667 0 0.299973 0.00924667 0 0.312144 0.00924667 0 0.324316 0.00924667 0 0.336487 0.00924667 0 0.348658 0.00924667 0 0.360829 0.00924667 0 0.373 0.00924667 0 0.190467 0.00957333 0 0.202636 0.00957333 0 0.214804 0.00957333 0 0.226973 0.00957333 0 0.239142 0.00957333 0 0.251311 0.00957333 0 0.26348 0.00957333 0 0.275649 0.00957333 0 0.287818 0.00957333 0 0.299987 0.00957333 0 0.312156 0.00957333 0 0.324324 0.00957333 0 0.336493 0.00957333 0 0.348662 0.00957333 0 0.360831 0.00957333 0 0.373 0.00957333 0 0.1905 0.0099 0 0.202667 0.0099 0 0.214833 0.0099 0 0.227 0.0099 0 0.239167 0.0099 0 0.251333 0.0099 0 0.2635 0.0099 0 0.275667 0.0099 0 0.287833 0.0099 0 0.3 0.0099 0 0.312167 0.0099 0 0.324333 0.0099 0 0.3365 0.0099 0 0.348667 0.0099 0 0.360833 0.0099 0 0.373 0.0099 0 
</DataArray>
</Points> 
</Piece> 
</StructuredGrid> 
</VTKFile> 
