<?xml version="1.0"?> 
<VTKFile type="StructuredGrid" version="0.1"> 
<StructuredGrid WholeExtent="0 15 0 15 0 0"> 
<Piece Extent="0 15 0 15 0 0"> 
<PointData>
<DataArray type="Float32" Name="|E|" format="ascii" NumberOfComponents="3"> 
3.55218e+06 -1.47136e+06 0 2.81546e+06 401045 0 2.14699e+06 684744 0 1.74101e+06 701988 0 1.45205e+06 653683 0 1.2315e+06 582401 0 1.05664e+06 505765 0 914397 431311 0 798534 361530 0 704233 297440 0 628622 238807 0 569371 185032 0 524872 135239 0 493899 88472.8 0 475637 43729.5 0 469605 0 0 3.91379e+06 -1.30816e+06 0 2.82935e+06 515104 0 2.13148e+06 753620 0 1.7159e+06 750658 0 1.42412e+06 693032 0 1.20271e+06 615610 0 1.02835e+06 535067 0 887274 457384 0 772999 384762 0 680394 317885 0 606410 256405 0 548553 199630 0 505085 146631 0 474669 96398 0 456376 47877.8 0 449609 0 0 4.25169e+06 -1.08116e+06 0 2.83766e+06 631134 0 2.11456e+06 822823 0 1.69052e+06 799649 0 1.39613e+06 732840 0 1.17396e+06 649139 0 999954 564555 0 859897 483444 0 746973 407820 0 655816 338021 0 583200 273607 0 526477 213796 0 483792 157608 0 453692 103983 0 435144 51822.1 0 427440 0 0 4.5591e+06 -792748 0 2.84083e+06 748579 0 2.09661e+06 892146 0 1.66511e+06 849058 0 1.36821e+06 773076 0 1.14534e+06 683011 0 971501 594238 0 832282 509516 0 720461 430731 0 630509 357879 0 559006 290447 0 503174 227563 0 461036 168201 0 431033 111254 0 412025 55577.8 0 403197 0 0 4.82848e+06 -446834 0 2.83955e+06 867065 0 2.07797e+06 961423 0 1.63986e+06 899014 0 1.34049e+06 813714 0 1.11691e+06 717271 0 943023 624131 0 804451 535631 0 693476 453527 0 604490 377497 0 533856 306962 0 478686 240967 0 436877 178441 0 406768 118234 0 387113 59159.7 0 376989 0 0 5.05226e+06 -49249.7 0 2.83466e+06 986395 0 2.05898e+06 1.03056e+06 0 1.61495e+06 949652 0 1.3131e+06 854740 0 1.08874e+06 751975 0 914568 654256 0 776430 561830 0 666042 476245 0 577788 396912 0 507789 323188 0 453067 254042 0 411386 188359 0 380985 124948 0 360512 62581 0 348936 0 0 5.22351e+06 392068 0 2.82703e+06 1.10653e+06 0 2.03994e+06 1.09954e+06 0 1.59054e+06 1.00108e+06 0 1.2862e+06 896164 0 1.06088e+06 787180 0 886191 684643 0 748247 588159 0 638192 498923 0 550438 416166 0 480853 339163 0 426380 266820 0 384644 197981 0 353786 131414 0 332341 65853.1 0 319170 0 0 5.33658e+06 867180 0 2.81747e+06 1.22753e+06 0 2.02112e+06 1.16847e+06 0 1.56674e+06 1.05336e+06 0 1.25991e+06 938032 0 1.0334e+06 822937 0 857953 715334 0 719935 614664 0 609968 521605 0 522484 435299 0 453107 354922 0 398699 279332 0 356743 207331 0 325279 137650 0 302726 68985.2 0 287832 0 0 5.38763e+06 1.3645e+06 0 2.80664e+06 1.34956e+06 0 2.00277e+06 1.23754e+06 0 1.5437e+06 1.10652e+06 0 1.23436e+06 980422 0 1.00633e+06 859286 0 829919 746383 0 691533 641394 0 581417 544336 0 493977 454352 0 424618 370499 0 370106 291606 0 327785 216430 0 295585 143670 0 271804 71984.4 0 255070 0 0 5.37498e+06 1.87133e+06 0 2.79502e+06 1.4728e+06 0 1.98504e+06 1.30703e+06 0 1.52152e+06 1.16052e+06 0 1.20968e+06 1.02345e+06 0 979749 896256 0 802155 777852 0 663082 668393 0 552592 567162 0 464974 473364 0 395457 385927 0 340690 303665 0 297878 225295 0 264832 149483 0 239720 74854.7 0 221043 0 0 5.29928e+06 2.37455e+06 0 2.78284e+06 1.59744e+06 0 1.96806e+06 1.37726e+06 0 1.50035e+06 1.21532e+06 0 1.18595e+06 1.06723e+06 0 953714 933867 0 774719 809811 0 634634 695707 0 523550 590133 0 435537 492370 0 365702 401234 0 310545 315529 0 267136 233937 0 233152 155096 0 206625 77597.8 0 185918 0 0 5.16345e+06 2.86134e+06 0 2.77012e+06 1.7236e+06 0 1.95189e+06 1.44857e+06 0 1.48032e+06 1.27083e+06 0 1.16323e+06 1.11191e+06 0 928311 972139 0 747666 842330 0 606247 723380 0 494346 613295 0 405731 511406 0 335432 416447 0 279769 327215 0 235678 242365 0 200685 160510 0 172678 80212.3 0 149866 0 0 4.97246e+06 3.31981e+06 0 2.75662e+06 1.85138e+06 0 1.93653e+06 1.52124e+06 0 1.46156e+06 1.32703e+06 0 1.14155e+06 1.15757e+06 0 903630 1.0111e+06 0 721041 875475 0 577982 751456 0 465035 636695 0 375625 530504 0 304728 431587 0 248461 338732 0 203623 250580 0 167572 165721 0 138041 82693.9 0 113066 0 0 4.73294e+06 3.73958e+06 0 2.74192e+06 1.98074e+06 0 1.92198e+06 1.5955e+06 0 1.44421e+06 1.38388e+06 0 1.12095e+06 1.20431e+06 0 879767 1.05077e+06 0 694889 909303 0 549909 779982 0 435670 660375 0 345289 549694 0 273669 446674 0 216721 350090 0 171092 258582 0 133959 170723 0 102878 85035.1 0 75700.7 0 0 4.4527e+06 4.11218e+06 0 2.72541e+06 2.11155e+06 0 1.9082e+06 1.67148e+06 0 1.42834e+06 1.44142e+06 0 1.10145e+06 1.25216e+06 0 856814 1.09121e+06 0 669249 943856 0 522097 809007 0 406302 684372 0 314794 569007 0 242332 461723 0 184649 361290 0 138205 266362 0 99986.9 175504 0 67356.8 87225.7 0 37957.1 0 0 4.1402e+06 4.43116e+06 0 2.70643e+06 2.24354e+06 0 1.89512e+06 1.74924e+06 0 1.41404e+06 1.49971e+06 0 1.08306e+06 1.30111e+06 0 834858 1.13248e+06 0 644163 979168 0 494615 838587 0 376979 708721 0 284209 588474 0 210789 476744 0 152341 372336 0 105076 273910 0 65799 180050 0 31642.8 89251.7 0 22.244 0 0 </DataArray> 
</PointData> 
<Points> 
<DataArray type="Float32" NumberOfComponents="3"> 
0.2018 0.0378 0 0.213213 0.0378 0 0.224627 0.0378 0 0.23604 0.0378 0 0.247453 0.0378 0 0.258867 0.0378 0 0.27028 0.0378 0 0.281693 0.0378 0 0.293107 0.0378 0 0.30452 0.0378 0 0.315933 0.0378 0 0.327347 0.0378 0 0.33876 0.0378 0 0.350173 0.0378 0 0.361587 0.0378 0 0.373 0.0378 0 0.202143 0.0387169 0 0.213681 0.038989 0 0.225198 0.0392606 0 0.236693 0.0395318 0 0.248168 0.0398024 0 0.259621 0.0400725 0 0.271053 0.0403422 0 0.282464 0.0406113 0 0.293854 0.0408799 0 0.305223 0.0411481 0 0.316571 0.0414157 0 0.327898 0.0416829 0 0.339205 0.0419496 0 0.35049 0.0422158 0 0.361755 0.0424815 0 0.373 0.0427467 0 0.202418 0.0396517 0 0.214067 0.0402009 0 0.225676 0.0407481 0 0.237244 0.0412935 0 0.248772 0.041837 0 0.260261 0.0423786 0 0.27171 0.0429183 0 0.283119 0.0434562 0 0.294489 0.0439922 0 0.305821 0.0445264 0 0.317113 0.0450587 0 0.328367 0.0455892 0 0.339582 0.0461179 0 0.350759 0.0466449 0 0.361899 0.04717 0 0.373 0.0476933 0 0.202621 0.0405996 0 0.214366 0.0414296 0 0.226054 0.0422556 0 0.237686 0.0430775 0 0.249261 0.0438956 0 0.260781 0.0447097 0 0.272246 0.0455198 0 0.283655 0.0463261 0 0.29501 0.0471286 0 0.306311 0.0479272 0 0.317558 0.048722 0 0.328752 0.049513 0 0.339892 0.0503003 0 0.35098 0.0510839 0 0.362016 0.0518638 0 0.373 0.05264 0 0.202748 0.0415549 0 0.214574 0.0426685 0 0.226329 0.0437754 0 0.238014 0.0448758 0 0.24963 0.0459696 0 0.261178 0.0470569 0 0.272657 0.0481378 0 0.284068 0.0492124 0 0.295413 0.0502807 0 0.306691 0.0513427 0 0.317904 0.0523985 0 0.329051 0.0534482 0 0.340134 0.0544918 0 0.351153 0.0555294 0 0.362108 0.056561 0 0.373 0.0575867 0 0.202797 0.0425121 0 0.214688 0.0439108 0 0.226497 0.0452999 0 0.238226 0.0466796 0 0.249876 0.04805 0 0.261446 0.0494111 0 0.27294 0.050763 0 0.284356 0.0521059 0 0.295695 0.0534398 0 0.306959 0.0547649 0 0.318149 0.0560811 0 0.329264 0.0573886 0 0.340306 0.0586875 0 0.351276 0.0599779 0 0.362174 0.0612598 0 0.373 0.0625333 0 0.202766 0.0434652 0 0.214705 0.0451493 0 0.226555 0.046821 0 0.238317 0.0484803 0 0.249994 0.0501275 0 0.261585 0.0517627 0 0.273092 0.0533859 0 0.284515 0.0549974 0 0.295855 0.0565972 0 0.307114 0.0581855 0 0.318292 0.0597624 0 0.32939 0.061328 0 0.340409 0.0628824 0 0.35135 0.0644258 0 0.362213 0.0659583 0 0.373 0.06748 0 0.202655 0.0444082 0 0.214624 0.0463769 0 0.226501 0.0483304 0 0.238287 0.0502691 0 0.249984 0.0521929 0 0.261592 0.0541022 0 0.273112 0.055997 0 0.284545 0.0578775 0 0.295892 0.0597439 0 0.307155 0.0615964 0 0.318333 0.0634351 0 0.329429 0.0652601 0 0.340443 0.0670716 0 0.351375 0.0688698 0 0.362227 0.0706547 0 0.373 0.0724267 0 0.202462 0.0453352 0 0.214445 0.0475863 0 0.226336 0.0498201 0 0.238135 0.0520369 0 0.249845 0.0542368 0 0.261466 0.0564199 0 0.272999 0.0585866 0 0.284445 0.0607369 0 0.295805 0.0628711 0 0.30708 0.0649893 0 0.318272 0.0670918 0 0.32938 0.0691786 0 0.340406 0.07125 0 0.351351 0.0733062 0 0.362215 0.0753472 0 0.373 0.0773733 0 0.202191 0.0462405 0 0.214169 0.0487707 0 0.226059 0.0512822 0 0.237862 0.0537752 0 0.249578 0.0562499 0 0.261208 0.0587066 0 0.272754 0.0611453 0 0.284216 0.0635663 0 0.295595 0.0659699 0 0.306891 0.0683561 0 0.318107 0.0707252 0 0.329243 0.0730773 0 0.340299 0.0754127 0 0.351277 0.0777315 0 0.362177 0.0800339 0 0.373 0.08232 0 0.201842 0.0471185 0 0.213799 0.0499233 0 0.225675 0.0527089 0 0.237469 0.0554756 0 0.249184 0.0582235 0 0.26082 0.0609529 0 0.272378 0.063664 0 0.283858 0.0663568 0 0.295261 0.0690317 0 0.306589 0.0716887 0 0.317841 0.0743282 0 0.329019 0.0769501 0 0.340123 0.0795548 0 0.351154 0.0821423 0 0.362113 0.0847129 0 0.373 0.0872667 0 0.201419 0.0479643 0 0.213337 0.0510379 0 0.225184 0.0540931 0 0.23696 0.0571302 0 0.248667 0.0601492 0 0.260304 0.0631503 0 0.271873 0.0661338 0 0.283374 0.0690997 0 0.294807 0.0720482 0 0.306173 0.0749795 0 0.317474 0.0778936 0 0.328708 0.0807909 0 0.339877 0.0836713 0 0.350982 0.0865351 0 0.362023 0.0893824 0 0.373 0.0922133 0 0.200925 0.0487733 0 0.212788 0.0521089 0 0.224592 0.0554282 0 0.236339 0.0587316 0 0.24803 0.0620189 0 0.259665 0.0652905 0 0.271243 0.0685463 0 0.282766 0.0717866 0 0.294234 0.0750113 0 0.305647 0.0782207 0 0.317006 0.0814148 0 0.328311 0.0845937 0 0.339563 0.0877576 0 0.350761 0.0909065 0 0.361907 0.0940406 0 0.373 0.09716 0 0.200367 0.0495415 0 0.212156 0.0531311 0 0.223904 0.0567083 0 0.235611 0.0602731 0 0.247278 0.0638256 0 0.258905 0.0673658 0 0.270492 0.0708938 0 0.282038 0.0744097 0 0.293545 0.0779134 0 0.305013 0.0814052 0 0.316441 0.084885 0 0.32783 0.0883529 0 0.33918 0.0918089 0 0.350492 0.0952532 0 0.361765 0.0986858 0 0.373 0.102107 0 0.199748 0.0502654 0 0.211447 0.0541004 0 0.223126 0.0579282 0 0.234782 0.061749 0 0.246418 0.0655627 0 0.258031 0.0693694 0 0.269623 0.073169 0 0.281194 0.0769617 0 0.292744 0.0807474 0 0.304272 0.0845261 0 0.31578 0.0882979 0 0.327266 0.0920627 0 0.338731 0.0958207 0 0.350175 0.0995718 0 0.361598 0.103316 0 0.373 0.107053 0 0.199074 0.0509425 0 0.210669 0.055013 0 0.222264 0.0590835 0 0.233859 0.063154 0 0.245454 0.0672245 0 0.257049 0.071295 0 0.268644 0.0753655 0 0.280239 0.079436 0 0.291835 0.0835065 0 0.30343 0.087577 0 0.315025 0.0916475 0 0.32662 0.095718 0 0.338215 0.0997885 0 0.34981 0.103859 0 0.361405 0.10793 0 0.373 0.112 0 
</DataArray>
</Points> 
</Piece> 
</StructuredGrid> 
</VTKFile> 
