<?xml version="1.0"?> 
<VTKFile type="StructuredGrid" version="0.1"> 
<StructuredGrid WholeExtent="0 15 0 15 0 0"> 
<Piece Extent="0 15 0 15 0 0"> 
<PointData>
<DataArray type="Float32" Name="|E|" format="ascii" NumberOfComponents="3"> 
-3.91909e+06 0 0 -3.36546e+06 106935 0 -3.32324e+06 74845 0 -3.28538e+06 19568.6 0 -3.26385e+06 20348.9 0 -3.25638e+06 7048.76 0 -3.25842e+06 8778.73 0 -3.27242e+06 7306.61 0 -3.29612e+06 9362.99 0 -3.33086e+06 10853.6 0 -3.37609e+06 12819.6 0 -3.43234e+06 14263.9 0 -3.49859e+06 14681 0 -3.57047e+06 13024.3 0 -3.6334e+06 8051.48 0 -3.66044e+06 -3.57628e-07 0 -3.7208e+06 0 0 -3.39816e+06 98787.8 0 -3.32858e+06 54201.1 0 -3.28861e+06 20853.8 0 -3.26577e+06 14004.9 0 -3.25642e+06 8262.71 0 -3.25864e+06 9418.25 0 -3.2719e+06 11176.1 0 -3.29574e+06 14644.9 0 -3.33026e+06 18353.9 0 -3.3756e+06 22272.9 0 -3.43194e+06 25762.1 0 -3.49856e+06 27850.5 0 -3.57119e+06 26366.9 0 -3.63531e+06 17482.3 0 -3.66308e+06 1.48313e-07 0 -3.61358e+06 0 0 -3.41422e+06 80848.2 0 -3.33442e+06 40222.5 0 -3.29141e+06 17248.1 0 -3.26685e+06 9767.05 0 -3.25638e+06 8150.48 0 -3.25824e+06 10571.8 0 -3.27114e+06 14741.5 0 -3.29491e+06 20024 0 -3.32934e+06 25806.9 0 -3.37471e+06 31751.3 0 -3.43119e+06 37305.2 0 -3.49829e+06 41135.6 0 -3.57214e+06 39974.7 0 -3.6385e+06 27251.7 0 -3.6678e+06 -1.76951e-07 0 -3.55378e+06 0 0 -3.42202e+06 60784.2 0 -3.33975e+06 28340.1 0 -3.29362e+06 11528.5 0 -3.26734e+06 6170.06 0 -3.25601e+06 7484.01 0 -3.2574e+06 11867 0 -3.27005e+06 18178.4 0 -3.29368e+06 25424.5 0 -3.32804e+06 33239.4 0 -3.37342e+06 41245.6 0 -3.43006e+06 48901.7 0 -3.49776e+06 54582.4 0 -3.5733e+06 53984.5 0 -3.64301e+06 37599.6 0 -3.67473e+06 2.44938e-07 0 -3.51981e+06 0 0 -3.42593e+06 41426.3 0 -3.34414e+06 16784.1 0 -3.29513e+06 4842.67 0 -3.2673e+06 2645.61 0 -3.25523e+06 6571.28 0 -3.25616e+06 13163.8 0 -3.26859e+06 21554.5 0 -3.29207e+06 30817.8 0 -3.32637e+06 40660 0 -3.37173e+06 50751.1 0 -3.42855e+06 60558.1 0 -3.49693e+06 68231.4 0 -3.5746e+06 68535.4 0 -3.64885e+06 48798.7 0 -3.68408e+06 -3.50177e-07 0 -3.50082e+06 0 0 -3.42826e+06 23450.6 0 -3.34747e+06 4953.27 0 -3.29591e+06 -2359.33 0 -3.26672e+06 -993.428 0 -3.254e+06 5528.12 0 -3.25452e+06 14417.8 0 -3.26675e+06 24893.6 0 -3.29009e+06 36194.4 0 -3.32431e+06 48070 0 -3.36965e+06 60264.3 0 -3.42662e+06 72277.4 0 -3.49576e+06 82116.4 0 -3.57592e+06 83761.6 0 -3.65606e+06 61170.1 0 -3.69618e+06 3.42727e-07 0 -3.49132e+06 0 0 -3.43025e+06 6659.61 0 -3.34975e+06 -7328.92 0 -3.29591e+06 -9898.59 0 -3.26558e+06 -4785.58 0 -3.25231e+06 4398.73 0 -3.25247e+06 15620.1 0 -3.26452e+06 28204.3 0 -3.28773e+06 41551.9 0 -3.32187e+06 55467.4 0 -3.36717e+06 69781.8 0 -3.42427e+06 84057.5 0 -3.49418e+06 96262.7 0 -3.57715e+06 99785.6 0 -3.66464e+06 75103.8 0 -3.71152e+06 -1.3411e-07 0 -3.48857e+06 0 0 -3.43255e+06 -9479.56 0 -3.35099e+06 -20110.6 0 -3.29509e+06 -17693.8 0 -3.26386e+06 -8713.71 0 -3.25015e+06 3202.83 0 -3.25002e+06 16774.3 0 -3.2619e+06 31490.2 0 -3.28499e+06 46889.9 0 -3.31903e+06 62849.1 0 -3.36427e+06 79299.7 0 -3.42147e+06 95891 0 -3.49214e+06 110687 0 -3.5781e+06 116708 0 -3.67456e+06 91082.5 0 -3.73081e+06 -1.19209e-07 0 -3.49137e+06 0 0 -3.43553e+06 -25625.1 0 -3.35119e+06 -33416.5 0 -3.2934e+06 -25692.7 0 -3.26155e+06 -12740.4 0 -3.24752e+06 1952.81 0 -3.24716e+06 17887.6 0 -3.25889e+06 34753.8 0 -3.28188e+06 52209.5 0 -3.31582e+06 70210.8 0 -3.36096e+06 88814.1 0 -3.41821e+06 107763 0 -3.48957e+06 125394 0 -3.57854e+06 134596 0 -3.68575e+06 109707 0 -3.75512e+06 1.3411e-07 0 -3.4994e+06 0 0 -3.43932e+06 -42493.1 0 -3.35029e+06 -47275.8 0 -3.29082e+06 -33844.3 0 -3.25864e+06 -16820.9 0 -3.24443e+06 659.299 0 -3.24388e+06 18968.4 0 -3.25549e+06 37997.4 0 -3.27839e+06 57512 0 -3.31221e+06 77547.1 0 -3.35723e+06 98320.8 0 -3.41446e+06 119652 0 -3.48639e+06 140380 0 -3.57819e+06 153462 0 -3.69797e+06 131717 0 -3.78617e+06 -2.16067e-07 0 -3.51317e+06 0 0 -3.44392e+06 -60850.1 0 -3.34819e+06 -61717.6 0 -3.28728e+06 -42087.2 0 -3.25513e+06 -20906.9 0 -3.24086e+06 -667.761 0 -3.24017e+06 20025.1 0 -3.2517e+06 41224.1 0 -3.27451e+06 62799.3 0 -3.30823e+06 84852.3 0 -3.35308e+06 107815 0 -3.41022e+06 131530 0 -3.48255e+06 155619 0 -3.57674e+06 173261 0 -3.71078e+06 157987 0 -3.82675e+06 3.12924e-07 0 -3.534e+06 0 0 -3.44912e+06 -81517.3 0 -3.34468e+06 -76762.1 0 -3.28276e+06 -50338.5 0 -3.25102e+06 -24950.5 0 -3.23683e+06 -2018.62 0 -3.23604e+06 21065.4 0 -3.24752e+06 44437.7 0 -3.27026e+06 68072.1 0 -3.30386e+06 92122.6 0 -3.34849e+06 117285 0 -3.40546e+06 143378 0 -3.47797e+06 171048 0 -3.57382e+06 193899 0 -3.72325e+06 189463 0 -3.88164e+06 -1.78814e-07 0 -3.56457e+06 0 0 -3.45446e+06 -105347 0 -3.33952e+06 -92423.8 0 -3.27721e+06 -58474.2 0 -3.24633e+06 -28912.9 0 -3.23233e+06 -3380.84 0 -3.23149e+06 22094 0 -3.24295e+06 47645.6 0 -3.26563e+06 73326.5 0 -3.29912e+06 99364.8 0 -3.34347e+06 126695 0 -3.4002e+06 155220 0 -3.47262e+06 186494 0 -3.56909e+06 215333 0 -3.73365e+06 226919 0 -3.95944e+06 1.63913e-07 0 -3.60984e+06 0 0 -3.45898e+06 -133104 0 -3.33242e+06 -108764 0 -3.2706e+06 -66279.8 0 -3.2411e+06 -32788.9 0 -3.22738e+06 -4728.23 0 -3.22651e+06 23105.3 0 -3.23799e+06 50866.2 0 -3.26063e+06 78541.2 0 -3.294e+06 106622 0 -3.33803e+06 135933 0 -3.39439e+06 167228 0 -3.46649e+06 201486 0 -3.56238e+06 237887 0 -3.73868e+06 270330 0 -4.07616e+06 -1.93715e-07 0 -3.67915e+06 0 0 -3.46083e+06 -165128 0 -3.32308e+06 -126071 0 -3.26293e+06 -73327.2 0 -3.23534e+06 -36673.8 0 -3.222e+06 -5988.22 0 -3.2211e+06 24062.4 0 -3.23264e+06 54149.7 0 -3.25528e+06 83642.5 0 -3.28846e+06 114043 0 -3.33225e+06 144675 0 -3.38796e+06 179986 0 -3.45959e+06 214773 0 -3.55387e+06 263100 0 -3.73204e+06 317306 0 -4.26259e+06 1.49012e-07 0 -3.7904e+06 0 0 -3.45644e+06 -200500 0 -3.31137e+06 -145317 0 -3.25423e+06 -78698.5 0 -3.22908e+06 -40918.4 0 -3.21622e+06 -6961.31 0 -3.21525e+06 24846.4 0 -3.22685e+06 57629.6 0 -3.24969e+06 88422 0 -3.28235e+06 122045 0 -3.32637e+06 152059 0 -3.38063e+06 195109 0 -3.45207e+06 223213 0 -3.54464e+06 295679 0 -3.70173e+06 359725 0 -4.57943e+06 -3.57628e-07 0 </DataArray> 
</PointData> 
<Points> 
<DataArray type="Float32" NumberOfComponents="3"> 
0.016 0.01 0 0.0199333 0.01 0 0.0238667 0.01 0 0.0278 0.01 0 0.0317333 0.01 0 0.0356667 0.01 0 0.0396 0.01 0 0.0435333 0.01 0 0.0474667 0.01 0 0.0514 0.01 0 0.0553333 0.01 0 0.0592667 0.01 0 0.0632 0.01 0 0.0671333 0.01 0 0.0710667 0.01 0 0.075 0.01 0 0.016 0.0107333 0 0.0199333 0.0107333 0 0.0238667 0.0107333 0 0.0278 0.0107333 0 0.0317333 0.0107333 0 0.0356667 0.0107333 0 0.0396 0.0107333 0 0.0435333 0.0107333 0 0.0474667 0.0107333 0 0.0514 0.0107333 0 0.0553333 0.0107333 0 0.0592667 0.0107333 0 0.0632 0.0107333 0 0.0671333 0.0107333 0 0.0710667 0.0107333 0 0.075 0.0107333 0 0.016 0.0114667 0 0.0199333 0.0114667 0 0.0238667 0.0114667 0 0.0278 0.0114667 0 0.0317333 0.0114667 0 0.0356667 0.0114667 0 0.0396 0.0114667 0 0.0435333 0.0114667 0 0.0474667 0.0114667 0 0.0514 0.0114667 0 0.0553333 0.0114667 0 0.0592667 0.0114667 0 0.0632 0.0114667 0 0.0671333 0.0114667 0 0.0710667 0.0114667 0 0.075 0.0114667 0 0.016 0.0122 0 0.0199333 0.0122 0 0.0238667 0.0122 0 0.0278 0.0122 0 0.0317333 0.0122 0 0.0356667 0.0122 0 0.0396 0.0122 0 0.0435333 0.0122 0 0.0474667 0.0122 0 0.0514 0.0122 0 0.0553333 0.0122 0 0.0592667 0.0122 0 0.0632 0.0122 0 0.0671333 0.0122 0 0.0710667 0.0122 0 0.075 0.0122 0 0.016 0.0129333 0 0.0199333 0.0129333 0 0.0238667 0.0129333 0 0.0278 0.0129333 0 0.0317333 0.0129333 0 0.0356667 0.0129333 0 0.0396 0.0129333 0 0.0435333 0.0129333 0 0.0474667 0.0129333 0 0.0514 0.0129333 0 0.0553333 0.0129333 0 0.0592667 0.0129333 0 0.0632 0.0129333 0 0.0671333 0.0129333 0 0.0710667 0.0129333 0 0.075 0.0129333 0 0.016 0.0136667 0 0.0199333 0.0136667 0 0.0238667 0.0136667 0 0.0278 0.0136667 0 0.0317333 0.0136667 0 0.0356667 0.0136667 0 0.0396 0.0136667 0 0.0435333 0.0136667 0 0.0474667 0.0136667 0 0.0514 0.0136667 0 0.0553333 0.0136667 0 0.0592667 0.0136667 0 0.0632 0.0136667 0 0.0671333 0.0136667 0 0.0710667 0.0136667 0 0.075 0.0136667 0 0.016 0.0144 0 0.0199333 0.0144 0 0.0238667 0.0144 0 0.0278 0.0144 0 0.0317333 0.0144 0 0.0356667 0.0144 0 0.0396 0.0144 0 0.0435333 0.0144 0 0.0474667 0.0144 0 0.0514 0.0144 0 0.0553333 0.0144 0 0.0592667 0.0144 0 0.0632 0.0144 0 0.0671333 0.0144 0 0.0710667 0.0144 0 0.075 0.0144 0 0.016 0.0151333 0 0.0199333 0.0151333 0 0.0238667 0.0151333 0 0.0278 0.0151333 0 0.0317333 0.0151333 0 0.0356667 0.0151333 0 0.0396 0.0151333 0 0.0435333 0.0151333 0 0.0474667 0.0151333 0 0.0514 0.0151333 0 0.0553333 0.0151333 0 0.0592667 0.0151333 0 0.0632 0.0151333 0 0.0671333 0.0151333 0 0.0710667 0.0151333 0 0.075 0.0151333 0 0.016 0.0158667 0 0.0199333 0.0158667 0 0.0238667 0.0158667 0 0.0278 0.0158667 0 0.0317333 0.0158667 0 0.0356667 0.0158667 0 0.0396 0.0158667 0 0.0435333 0.0158667 0 0.0474667 0.0158667 0 0.0514 0.0158667 0 0.0553333 0.0158667 0 0.0592667 0.0158667 0 0.0632 0.0158667 0 0.0671333 0.0158667 0 0.0710667 0.0158667 0 0.075 0.0158667 0 0.016 0.0166 0 0.0199333 0.0166 0 0.0238667 0.0166 0 0.0278 0.0166 0 0.0317333 0.0166 0 0.0356667 0.0166 0 0.0396 0.0166 0 0.0435333 0.0166 0 0.0474667 0.0166 0 0.0514 0.0166 0 0.0553333 0.0166 0 0.0592667 0.0166 0 0.0632 0.0166 0 0.0671333 0.0166 0 0.0710667 0.0166 0 0.075 0.0166 0 0.016 0.0173333 0 0.0199333 0.0173333 0 0.0238667 0.0173333 0 0.0278 0.0173333 0 0.0317333 0.0173333 0 0.0356667 0.0173333 0 0.0396 0.0173333 0 0.0435333 0.0173333 0 0.0474667 0.0173333 0 0.0514 0.0173333 0 0.0553333 0.0173333 0 0.0592667 0.0173333 0 0.0632 0.0173333 0 0.0671333 0.0173333 0 0.0710667 0.0173333 0 0.075 0.0173333 0 0.016 0.0180667 0 0.0199333 0.0180667 0 0.0238667 0.0180667 0 0.0278 0.0180667 0 0.0317333 0.0180667 0 0.0356667 0.0180667 0 0.0396 0.0180667 0 0.0435333 0.0180667 0 0.0474667 0.0180667 0 0.0514 0.0180667 0 0.0553333 0.0180667 0 0.0592667 0.0180667 0 0.0632 0.0180667 0 0.0671333 0.0180667 0 0.0710667 0.0180667 0 0.075 0.0180667 0 0.016 0.0188 0 0.0199333 0.0188 0 0.0238667 0.0188 0 0.0278 0.0188 0 0.0317333 0.0188 0 0.0356667 0.0188 0 0.0396 0.0188 0 0.0435333 0.0188 0 0.0474667 0.0188 0 0.0514 0.0188 0 0.0553333 0.0188 0 0.0592667 0.0188 0 0.0632 0.0188 0 0.0671333 0.0188 0 0.0710667 0.0188 0 0.075 0.0188 0 0.016 0.0195333 0 0.0199333 0.0195333 0 0.0238667 0.0195333 0 0.0278 0.0195333 0 0.0317333 0.0195333 0 0.0356667 0.0195333 0 0.0396 0.0195333 0 0.0435333 0.0195333 0 0.0474667 0.0195333 0 0.0514 0.0195333 0 0.0553333 0.0195333 0 0.0592667 0.0195333 0 0.0632 0.0195333 0 0.0671333 0.0195333 0 0.0710667 0.0195333 0 0.075 0.0195333 0 0.016 0.0202667 0 0.0199333 0.0202667 0 0.0238667 0.0202667 0 0.0278 0.0202667 0 0.0317333 0.0202667 0 0.0356667 0.0202667 0 0.0396 0.0202667 0 0.0435333 0.0202667 0 0.0474667 0.0202667 0 0.0514 0.0202667 0 0.0553333 0.0202667 0 0.0592667 0.0202667 0 0.0632 0.0202667 0 0.0671333 0.0202667 0 0.0710667 0.0202667 0 0.075 0.0202667 0 0.016 0.021 0 0.0199333 0.021 0 0.0238667 0.021 0 0.0278 0.021 0 0.0317333 0.021 0 0.0356667 0.021 0 0.0396 0.021 0 0.0435333 0.021 0 0.0474667 0.021 0 0.0514 0.021 0 0.0553333 0.021 0 0.0592667 0.021 0 0.0632 0.021 0 0.0671333 0.021 0 0.0710667 0.021 0 0.075 0.021 0 
</DataArray>
</Points> 
</Piece> 
</StructuredGrid> 
</VTKFile> 
