<?xml version="1.0"?> 
<VTKFile type="StructuredGrid" version="0.1"> 
<StructuredGrid WholeExtent="0 15 0 15 0 0"> 
<Piece Extent="0 15 0 15 0 0"> 
<PointData>
<DataArray type="Float32" Name="|E|" format="ascii" NumberOfComponents="3"> 
-3.7904e+06 -1.20413e+06 0 -3.45644e+06 -2.01847e+06 0 -3.31137e+06 -1.3234e+06 0 -3.25423e+06 -738717 0 -3.22908e+06 -373501 0 -3.21622e+06 -70914.2 0 -3.21525e+06 235838 0 -3.22685e+06 539131 0 -3.24969e+06 837434 0 -3.28235e+06 1.13825e+06 0 -3.32637e+06 1.44156e+06 0 -3.38063e+06 1.80707e+06 0 -3.45207e+06 2.19452e+06 0 -3.54464e+06 2.50917e+06 0 -3.70173e+06 3.57142e+06 0 -4.57943e+06 1.70158e+07 0 -3.21613e+06 -1.94766e+06 0 -3.13141e+06 -1.16564e+06 0 -3.14796e+06 -633626 0 -3.15097e+06 -294987 0 -3.14249e+06 -7036.88 0 -3.14333e+06 282485 0 -3.15745e+06 570471 0 -3.17993e+06 853559 0 -3.20882e+06 1.13853e+06 0 -3.24584e+06 1.44001e+06 0 -3.28755e+06 1.75537e+06 0 -3.34674e+06 2.1076e+06 0 -3.37806e+06 2.56407e+06 0 -3.5005e+06 3.17435e+06 0 -2.98429e+06 4.41633e+06 0 5791.8 3.19011e+06 0 -3.02221e+06 -831790 0 -3.07611e+06 -446293 0 -3.07765e+06 -175248 0 -3.06774e+06 88795.9 0 -3.07258e+06 363713 0 -3.09028e+06 636228 0 -3.11275e+06 904256 0 -3.1383e+06 1.17494e+06 0 -3.16959e+06 1.45981e+06 0 -3.2036e+06 1.75911e+06 0 -3.24372e+06 2.09239e+06 0 -3.2622e+06 2.51299e+06 0 -3.27778e+06 2.94175e+06 0 -2.95454e+06 3.92595e+06 0 -1.45126e+06 4.46501e+06 0 -573772 3.4353e+06 0 -3.01128e+06 -270019 0 -2.99523e+06 -35394.1 0 -2.99089e+06 220034 0 -3.00525e+06 481146 0 -3.02675e+06 736168 0 -3.04794e+06 988206 0 -3.07008e+06 1.24518e+06 0 -3.09619e+06 1.51561e+06 0 -3.12289e+06 1.80271e+06 0 -3.14738e+06 2.11689e+06 0 -3.15195e+06 2.49034e+06 0 -3.11008e+06 2.87541e+06 0 -2.83098e+06 3.64232e+06 0 -1.84131e+06 4.09221e+06 0 -851364 3.48369e+06 0 -620027 2.86476e+06 0 -2.91063e+06 148433 0 -2.92448e+06 389825 0 -2.94681e+06 631372 0 -2.96705e+06 868421 0 -2.98425e+06 1.1064e+06 0 -3.00275e+06 1.35189e+06 0 -3.02387e+06 1.61012e+06 0 -3.04275e+06 1.88397e+06 0 -3.05334e+06 2.17813e+06 0 -3.03917e+06 2.51436e+06 0 -2.95504e+06 2.88459e+06 0 -2.66776e+06 3.4692e+06 0 -1.94192e+06 3.7782e+06 0 -1.15144e+06 3.41117e+06 0 -786172 2.81628e+06 0 -625915 2.28813e+06 0 -2.87333e+06 586844 0 -2.8919e+06 814538 0 -2.90596e+06 1.03771e+06 0 -2.91929e+06 1.26386e+06 0 -2.935e+06 1.49825e+06 0 -2.95083e+06 1.74348e+06 0 -2.96031e+06 2.00159e+06 0 -2.95498e+06 2.27695e+06 0 -2.91427e+06 2.58696e+06 0 -2.78688e+06 2.93436e+06 0 -2.48083e+06 3.36033e+06 0 -1.90921e+06 3.52921e+06 0 -1.31156e+06 3.25301e+06 0 -968986 2.80166e+06 0 -807391 2.36007e+06 0 -710246 1.93176e+06 0 -2.83109e+06 1.0418e+06 0 -2.84191e+06 1.24801e+06 0 -2.85373e+06 1.46069e+06 0 -2.86623e+06 1.6827e+06 0 -2.87397e+06 1.91341e+06 0 -2.86932e+06 2.15585e+06 0 -2.84076e+06 2.41514e+06 0 -2.76287e+06 2.69973e+06 0 -2.58984e+06 2.99791e+06 0 -2.27284e+06 3.27302e+06 0 -1.81279e+06 3.31459e+06 0 -1.37582e+06 3.06783e+06 0 -1.10379e+06 2.70915e+06 0 -951464 2.3298e+06 0 -852550 1.94768e+06 0 -786106 1.58248e+06 0 -2.77881e+06 1.49315e+06 0 -2.7866e+06 1.69376e+06 0 -2.7911e+06 1.90515e+06 0 -2.78362e+06 2.12118e+06 0 -2.75554e+06 2.34857e+06 0 -2.6924e+06 2.58678e+06 0 -2.56921e+06 2.8274e+06 0 -2.35787e+06 3.04049e+06 0 -2.0516e+06 3.16897e+06 0 -1.69351e+06 3.10593e+06 0 -1.39026e+06 2.86789e+06 0 -1.19531e+06 2.56514e+06 0 -1.06935e+06 2.23662e+06 0 -979463 1.89876e+06 0 -914668 1.56902e+06 0 -859395 1.24347e+06 0 -2.70544e+06 1.96594e+06 0 -2.69405e+06 2.17077e+06 0 -2.65952e+06 2.36436e+06 0 -2.59639e+06 2.56696e+06 0 -2.49053e+06 2.75952e+06 0 -2.32638e+06 2.92004e+06 0 -2.10118e+06 3.01903e+06 0 -1.83778e+06 3.01803e+06 0 -1.584e+06 2.88239e+06 0 -1.39134e+06 2.64988e+06 0 -1.26208e+06 2.38024e+06 0 -1.16514e+06 2.08884e+06 0 -1.08915e+06 1.79097e+06 0 -1.03209e+06 1.49825e+06 0 -982916 1.20215e+06 0 -921691 899976 0 -2.54956e+06 2.47138e+06 0 -2.47327e+06 2.60422e+06 0 -2.37152e+06 2.75816e+06 0 -2.23042e+06 2.8638e+06 0 -2.05166e+06 2.91332e+06 0 -1.85405e+06 2.89926e+06 0 -1.66648e+06 2.80633e+06 0 -1.51417e+06 2.63057e+06 0 -1.40433e+06 2.40195e+06 0 -1.31948e+06 2.15092e+06 0 -1.24475e+06 1.88909e+06 0 -1.18409e+06 1.62917e+06 0 -1.1396e+06 1.37124e+06 0 -1.09971e+06 1.10079e+06 0 -1.04092e+06 813835 0 -937746 529230 0 -2.20513e+06 2.72562e+06 0 -2.09185e+06 2.83864e+06 0 -1.94811e+06 2.81775e+06 0 -1.80273e+06 2.76411e+06 0 -1.67662e+06 2.67617e+06 0 -1.5777e+06 2.53188e+06 0 -1.5011e+06 2.33159e+06 0 -1.43483e+06 2.10135e+06 0 -1.37004e+06 1.8666e+06 0 -1.31221e+06 1.63903e+06 0 -1.27189e+06 1.41826e+06 0 -1.24582e+06 1.18822e+06 0 -1.21416e+06 931668 0 -1.14837e+06 652239 0 -1.02619e+06 378371 0 -848229 149012 0 -1.85031e+06 2.78676e+06 0 -1.73631e+06 2.56074e+06 0 -1.66777e+06 2.48059e+06 0 -1.61962e+06 2.36503e+06 0 -1.57266e+06 2.17662e+06 0 -1.51849e+06 1.94898e+06 0 -1.46081e+06 1.72649e+06 0 -1.41219e+06 1.52939e+06 0 -1.3848e+06 1.34842e+06 0 -1.37644e+06 1.15762e+06 0 -1.36602e+06 932092 0 -1.32308e+06 667475 0 -1.22173e+06 387758 0 -1.05476e+06 134771 0 -840951 -51760.8 0 -616819 -154617 0 -1.64593e+06 2.00297e+06 0 -1.66627e+06 2.14356e+06 0 -1.63043e+06 1.94358e+06 0 -1.57215e+06 1.66994e+06 0 -1.52134e+06 1.44508e+06 0 -1.49704e+06 1.28722e+06 0 -1.50214e+06 1.15813e+06 0 -1.52103e+06 1.00612e+06 0 -1.52368e+06 798265 0 -1.47793e+06 535854 0 -1.36302e+06 251449 0 -1.17833e+06 -6585.53 0 -945441 -195137 0 -701078 -293576 0 -482689 -309370 0 -314608 -270599 0 -1.74055e+06 1.87944e+06 0 -1.61838e+06 1.15147e+06 0 -1.596e+06 920331 0 -1.63365e+06 885599 0 -1.6868e+06 853740 0 -1.71257e+06 730455 0 -1.67682e+06 501110 0 -1.56166e+06 206083 0 -1.3699e+06 -89632.1 0 -1.12312e+06 -326025 0 -855266 -466364 0 -603120 -504737 0 -395649 -462940 0 -246501 -377454 0 -152879 -283858 0 -100888 -204713 0 -1.71209e+06 -69083.5 0 -1.89045e+06 439369 0 -1.90482e+06 459080 0 -1.78093e+06 204956 0 -1.55365e+06 -148824 0 -1.26408e+06 -475744 0 -955246 -698816 0 -665754 -790369 0 -423916 -763600 0 -244835 -655402 0 -129674 -510980 0 -67731.2 -370603 0 -41791.3 -259219 0 -34344.1 -184031 0 -32369.7 -138996 0 -29338.5 -112488 0 2.6226e-06 -1.18984e+07 0 -2.44472e-07 -5.32875e+06 0 -2.14204e-08 -1.47339e+06 0 1.96509e-07 421252 0 -6.51926e-08 1.02945e+06 0 -7.45058e-09 913717 0 2.23517e-08 500378 0 -1.49012e-07 69606.2 0 2.5332e-07 -232627 0 -2.68221e-07 -366842 0 2.68221e-07 -364311 0 -1.3411e-07 -287044 0 1.78814e-07 -193787 0 -1.93715e-07 -121023 0 2.08616e-07 -79469.7 0 -1.78814e-06 -62171.5 0 </DataArray> 
</PointData> 
<Points> 
<DataArray type="Float32" NumberOfComponents="3"> 
0.016 0.021 0 0.0199333 0.021 0 0.0238667 0.021 0 0.0278 0.021 0 0.0317333 0.021 0 0.0356667 0.021 0 0.0396 0.021 0 0.0435333 0.021 0 0.0474667 0.021 0 0.0514 0.021 0 0.0553333 0.021 0 0.0592667 0.021 0 0.0632 0.021 0 0.0671333 0.021 0 0.0710667 0.021 0 0.075 0.021 0 0.0216 0.0219333 0 0.0253156 0.0219333 0 0.0290311 0.0219333 0 0.0327467 0.0219333 0 0.0364622 0.0219333 0 0.0401778 0.0219333 0 0.0438933 0.0219333 0 0.0476089 0.0219333 0 0.0513244 0.0219333 0 0.05504 0.0219333 0 0.0587556 0.0219333 0 0.0624711 0.0219333 0 0.0661867 0.0219333 0 0.0699022 0.0219333 0 0.0736178 0.0219333 0 0.0773333 0.0219333 0 0.0272 0.0228667 0 0.0306978 0.0228667 0 0.0341956 0.0228667 0 0.0376933 0.0228667 0 0.0411911 0.0228667 0 0.0446889 0.0228667 0 0.0481867 0.0228667 0 0.0516844 0.0228667 0 0.0551822 0.0228667 0 0.05868 0.0228667 0 0.0621778 0.0228667 0 0.0656756 0.0228667 0 0.0691733 0.0228667 0 0.0726711 0.0228667 0 0.0761689 0.0228667 0 0.0796667 0.0228667 0 0.0328 0.0238 0 0.03608 0.0238 0 0.03936 0.0238 0 0.04264 0.0238 0 0.04592 0.0238 0 0.0492 0.0238 0 0.05248 0.0238 0 0.05576 0.0238 0 0.05904 0.0238 0 0.06232 0.0238 0 0.0656 0.0238 0 0.06888 0.0238 0 0.07216 0.0238 0 0.07544 0.0238 0 0.07872 0.0238 0 0.082 0.0238 0 0.0384 0.0247333 0 0.0414622 0.0247333 0 0.0445244 0.0247333 0 0.0475867 0.0247333 0 0.0506489 0.0247333 0 0.0537111 0.0247333 0 0.0567733 0.0247333 0 0.0598356 0.0247333 0 0.0628978 0.0247333 0 0.06596 0.0247333 0 0.0690222 0.0247333 0 0.0720844 0.0247333 0 0.0751467 0.0247333 0 0.0782089 0.0247333 0 0.0812711 0.0247333 0 0.0843333 0.0247333 0 0.044 0.0256667 0 0.0468444 0.0256667 0 0.0496889 0.0256667 0 0.0525333 0.0256667 0 0.0553778 0.0256667 0 0.0582222 0.0256667 0 0.0610667 0.0256667 0 0.0639111 0.0256667 0 0.0667556 0.0256667 0 0.0696 0.0256667 0 0.0724444 0.0256667 0 0.0752889 0.0256667 0 0.0781333 0.0256667 0 0.0809778 0.0256667 0 0.0838222 0.0256667 0 0.0866667 0.0256667 0 0.0496 0.0266 0 0.0522267 0.0266 0 0.0548533 0.0266 0 0.05748 0.0266 0 0.0601067 0.0266 0 0.0627333 0.0266 0 0.06536 0.0266 0 0.0679867 0.0266 0 0.0706133 0.0266 0 0.07324 0.0266 0 0.0758667 0.0266 0 0.0784933 0.0266 0 0.08112 0.0266 0 0.0837467 0.0266 0 0.0863733 0.0266 0 0.089 0.0266 0 0.0552 0.0275333 0 0.0576089 0.0275333 0 0.0600178 0.0275333 0 0.0624267 0.0275333 0 0.0648356 0.0275333 0 0.0672444 0.0275333 0 0.0696533 0.0275333 0 0.0720622 0.0275333 0 0.0744711 0.0275333 0 0.07688 0.0275333 0 0.0792889 0.0275333 0 0.0816978 0.0275333 0 0.0841067 0.0275333 0 0.0865156 0.0275333 0 0.0889244 0.0275333 0 0.0913333 0.0275333 0 0.0608 0.0284667 0 0.0629911 0.0284667 0 0.0651822 0.0284667 0 0.0673733 0.0284667 0 0.0695644 0.0284667 0 0.0717556 0.0284667 0 0.0739467 0.0284667 0 0.0761378 0.0284667 0 0.0783289 0.0284667 0 0.08052 0.0284667 0 0.0827111 0.0284667 0 0.0849022 0.0284667 0 0.0870933 0.0284667 0 0.0892844 0.0284667 0 0.0914756 0.0284667 0 0.0936667 0.0284667 0 0.0664 0.0294 0 0.0683733 0.0294 0 0.0703467 0.0294 0 0.07232 0.0294 0 0.0742933 0.0294 0 0.0762667 0.0294 0 0.07824 0.0294 0 0.0802133 0.0294 0 0.0821867 0.0294 0 0.08416 0.0294 0 0.0861333 0.0294 0 0.0881067 0.0294 0 0.09008 0.0294 0 0.0920533 0.0294 0 0.0940267 0.0294 0 0.096 0.0294 0 0.072 0.0303333 0 0.0737556 0.0303333 0 0.0755111 0.0303333 0 0.0772667 0.0303333 0 0.0790222 0.0303333 0 0.0807778 0.0303333 0 0.0825333 0.0303333 0 0.0842889 0.0303333 0 0.0860444 0.0303333 0 0.0878 0.0303333 0 0.0895556 0.0303333 0 0.0913111 0.0303333 0 0.0930667 0.0303333 0 0.0948222 0.0303333 0 0.0965778 0.0303333 0 0.0983333 0.0303333 0 0.0776 0.0312667 0 0.0791378 0.0312667 0 0.0806756 0.0312667 0 0.0822133 0.0312667 0 0.0837511 0.0312667 0 0.0852889 0.0312667 0 0.0868267 0.0312667 0 0.0883644 0.0312667 0 0.0899022 0.0312667 0 0.09144 0.0312667 0 0.0929778 0.0312667 0 0.0945156 0.0312667 0 0.0960533 0.0312667 0 0.0975911 0.0312667 0 0.0991289 0.0312667 0 0.100667 0.0312667 0 0.0832 0.0322 0 0.08452 0.0322 0 0.08584 0.0322 0 0.08716 0.0322 0 0.08848 0.0322 0 0.0898 0.0322 0 0.09112 0.0322 0 0.09244 0.0322 0 0.09376 0.0322 0 0.09508 0.0322 0 0.0964 0.0322 0 0.09772 0.0322 0 0.09904 0.0322 0 0.10036 0.0322 0 0.10168 0.0322 0 0.103 0.0322 0 0.0888 0.0331333 0 0.0899022 0.0331333 0 0.0910044 0.0331333 0 0.0921067 0.0331333 0 0.0932089 0.0331333 0 0.0943111 0.0331333 0 0.0954133 0.0331333 0 0.0965156 0.0331333 0 0.0976178 0.0331333 0 0.09872 0.0331333 0 0.0998222 0.0331333 0 0.100924 0.0331333 0 0.102027 0.0331333 0 0.103129 0.0331333 0 0.104231 0.0331333 0 0.105333 0.0331333 0 0.0944 0.0340667 0 0.0952844 0.0340667 0 0.0961689 0.0340667 0 0.0970533 0.0340667 0 0.0979378 0.0340667 0 0.0988222 0.0340667 0 0.0997067 0.0340667 0 0.100591 0.0340667 0 0.101476 0.0340667 0 0.10236 0.0340667 0 0.103244 0.0340667 0 0.104129 0.0340667 0 0.105013 0.0340667 0 0.105898 0.0340667 0 0.106782 0.0340667 0 0.107667 0.0340667 0 0.1 0.035 0 0.100667 0.035 0 0.101333 0.035 0 0.102 0.035 0 0.102667 0.035 0 0.103333 0.035 0 0.104 0.035 0 0.104667 0.035 0 0.105333 0.035 0 0.106 0.035 0 0.106667 0.035 0 0.107333 0.035 0 0.108 0.035 0 0.108667 0.035 0 0.109333 0.035 0 0.11 0.035 0 
</DataArray>
</Points> 
</Piece> 
</StructuredGrid> 
</VTKFile> 
