<?xml version="1.0"?> 
<VTKFile type="StructuredGrid" version="0.1"> 
<StructuredGrid WholeExtent="0 15 0 15 0 0"> 
<Piece Extent="0 15 0 15 0 0"> 
<PointData>
<DataArray type="Float32" Name="|E|" format="ascii" NumberOfComponents="3"> 
-1.51387e+06 0 0 -1.50214e+06 96489.3 0 -1.49809e+06 198442 0 -1.49957e+06 307188 0 -1.50426e+06 423183 0 -1.51012e+06 546095 0 -1.51555e+06 675020 0 -1.51953e+06 808735 0 -1.52163e+06 945926 0 -1.5219e+06 1.08533e+06 0 -1.52087e+06 1.22585e+06 0 -1.51946e+06 1.36661e+06 0 -1.51902e+06 1.50708e+06 0 -1.52131e+06 1.64721e+06 0 -1.52847e+06 1.78768e+06 0 -1.54288e+06 1.93021e+06 0 -1.43229e+06 0 0 -1.41993e+06 107852 0 -1.41442e+06 220178 0 -1.41397e+06 338203 0 -1.41667e+06 462409 0 -1.42077e+06 592605 0 -1.42493e+06 728094 0 -1.42828e+06 867887 0 -1.43049e+06 1.01089e+06 0 -1.4317e+06 1.15606e+06 0 -1.43252e+06 1.30253e+06 0 -1.43399e+06 1.4497e+06 0 -1.43753e+06 1.59742e+06 0 -1.44497e+06 1.74623e+06 0 -1.45833e+06 1.89759e+06 0 -1.47952e+06 2.05434e+06 0 -1.34531e+06 0 0 -1.33278e+06 118383 0 -1.32641e+06 240463 0 -1.32472e+06 367371 0 -1.32609e+06 499612 0 -1.32906e+06 637110 0 -1.33249e+06 779347 0 -1.33567e+06 925537 0 -1.33836e+06 1.0748e+06 0 -1.34081e+06 1.22633e+06 0 -1.34369e+06 1.37951e+06 0 -1.3481e+06 1.53411e+06 0 -1.35548e+06 1.69044e+06 0 -1.36749e+06 1.84966e+06 0 -1.38571e+06 2.01412e+06 0 -1.41106e+06 2.18768e+06 0 -1.25396e+06 0 0 -1.24164e+06 128256 0 -1.23487e+06 259598 0 -1.23244e+06 395077 0 -1.233e+06 535220 0 -1.23531e+06 680051 0 -1.23841e+06 829211 0 -1.24173e+06 982103 0 -1.24514e+06 1.13807e+06 0 -1.24896e+06 1.29653e+06 0 -1.2539e+06 1.4572e+06 0 -1.26105e+06 1.6202e+06 0 -1.27169e+06 1.78637e+06 0 -1.28711e+06 1.95751e+06 0 -1.30803e+06 2.13669e+06 0 -1.33387e+06 2.32845e+06 0 -1.15906e+06 0 0 -1.14721e+06 137603 0 -1.14041e+06 277808 0 -1.13763e+06 421608 0 -1.13775e+06 569549 0 -1.13974e+06 721752 0 -1.14278e+06 877999 0 -1.14644e+06 1.03788e+06 0 -1.15068e+06 1.20096e+06 0 -1.15584e+06 1.36691e+06 0 -1.16264e+06 1.53575e+06 0 -1.17203e+06 1.70802e+06 0 -1.18501e+06 1.88503e+06 0 -1.20218e+06 2.06912e+06 0 -1.22311e+06 2.26374e+06 0 -1.24533e+06 2.4734e+06 0 -1.06123e+06 0 0 -1.05007e+06 146519 0 -1.04349e+06 295259 0 -1.04066e+06 447171 0 -1.04062e+06 602827 0 -1.04251e+06 762436 0 -1.04567e+06 925923 0 -1.04976e+06 1.09306e+06 0 -1.0548e+06 1.26361e+06 0 -1.06114e+06 1.43754e+06 0 -1.06941e+06 1.61515e+06 0 -1.08035e+06 1.79735e+06 0 -1.09445e+06 1.98583e+06 0 -1.11147e+06 2.18321e+06 0 -1.1296e+06 2.39286e+06 0 -1.1445e+06 2.61836e+06 0 -960967 0 0 -950649 155072 0 -944497 312068 0 -941815 471910 0 -941810 635205 0 -943753 802250 0 -947109 973106 0 -951619 1.14772e+06 0 -957332 1.32607e+06 0 -964568 1.50836e+06 0 -973801 1.69518e+06 0 -985426 1.88771e+06 0 -999346 2.08784e+06 0 -1.01434e+06 2.29813e+06 0 -1.02725e+06 2.52131e+06 0 -1.03234e+06 2.75921e+06 0 -858680 0 0 -849326 163311 0 -843743 328314 0 -841354 495921 0 -841497 666780 0 -843565 841278 0 -847121 1.01961e+06 0 -851965 1.20188e+06 0 -858148 1.38828e+06 0 -865909 1.57921e+06 0 -875512 1.77549e+06 0 -886944 1.97845e+06 0 -899447 2.18997e+06 0 -910866 2.41214e+06 0 -916974 2.64651e+06 0 -911366 2.89271e+06 0 -754702 0 0 -746402 171266 0 -741488 344048 0 -739480 519263 0 -739828 697606 0 -742029 879555 0 -745725 1.06543e+06 0 -750755 1.2555e+06 0 -757147 1.45011e+06 0 -765023 1.64986e+06 0 -774398 1.85568e+06 0 -784829 2.06892e+06 0 -794926 2.29114e+06 0 -801776 2.52368e+06 0 -800556 2.76652e+06 0 -784978 3.01698e+06 0 -649317 0 0 -642139 178956 0 -637955 359297 0 -636371 541962 0 -636931 727700 0 -639222 917080 0 -642950 1.11054e+06 0 -647975 1.30849e+06 0 -654282 1.51143e+06 0 -661860 1.72006e+06 0 -670466 1.93534e+06 0 -679259 2.15846e+06 0 -686335 2.39047e+06 0 -688313 2.63163e+06 0 -680296 2.88023e+06 0 -656764 3.13149e+06 0 -542775 0 0 -536766 186387 0 -533344 374072 0 -532188 564023 0 -532926 757055 0 -535222 953824 0 -538834 1.15488e+06 0 -543632 1.36076e+06 0 -549552 1.57206e+06 0 -556450 1.78955e+06 0 -563856 2.0141e+06 0 -570612 2.24659e+06 0 -574495 2.48735e+06 0 -571998 2.7354e+06 0 -558625 2.98737e+06 0 -530015 3.23677e+06 0 -435301 0 0 -430489 193561 0 -427833 388367 0 -427076 585435 0 -427922 785644 0 -430103 989741 0 -433423 1.19838e+06 0 -437758 1.41219e+06 0 -442999 1.63185e+06 0 -448893 1.85811e+06 0 -454806 2.09169e+06 0 -459402 2.33299e+06 0 -460375 2.5815e+06 0 -454437 2.83493e+06 0 -437840 3.08838e+06 0 -407518 3.33404e+06 0 -327098 0 0 -323500 200470 0 -321590 402169 0 -321174 606170 0 -322027 813426 0 -323945 1.02477e+06 0 -326774 1.24095e+06 0 -330402 1.46268e+06 0 -334690 1.69067e+06 0 -339327 1.92561e+06 0 -343611 2.16796e+06 0 -346203 2.41758e+06 0 -344977 2.673e+06 0 -337164 2.93064e+06 0 -319968 3.18422e+06 0 -291546 3.42486e+06 0 -218359 0 0 -215976 207103 0 -214771 415453 0 -214611 626192 0 -215342 840351 0 -216823 1.05885e+06 0 -218946 1.28251e+06 0 -221619 1.51212e+06 0 -224706 1.7484e+06 0 -227904 1.99194e+06 0 -230576 2.2429e+06 0 -231584 2.5005e+06 0 -229247 2.76227e+06 0 -221558 3.02335e+06 0 -206744 3.27615e+06 0 -183955 3.51093e+06 0 -109267 0 0 -108087 213445 0 -107526 428188 0 -107514 645455 0 -107968 866358 0 -108817 1.0919e+06 0 -110002 1.32297e+06 0 -111469 1.56043e+06 0 -113124 1.80498e+06 0 -114763 2.05711e+06 0 -115971 2.31663e+06 0 -116049 2.58208e+06 0 -114021 2.84998e+06 0 -108822 3.11413e+06 0 -99650.6 3.36566e+06 0 -86308.5 3.59392e+06 0 0 0 0 0 219474 0 0 440337 0 0 663907 0 0 891384 0 0 1.12384e+06 0 0 1.36226e+06 0 0 1.60753e+06 0 0 1.86037e+06 0 0 2.12116e+06 0 0 2.38937e+06 0 0 2.66288e+06 0 0 2.93705e+06 0 0 3.20427e+06 0 0 3.45425e+06 0 0 3.67539e+06 0 </DataArray> 
</PointData> 
<Points> 
<DataArray type="Float32" NumberOfComponents="3"> 
0 0.0556667 0 0.00452 0.0564444 0 0.00904 0.0572222 0 0.01356 0.058 0 0.01808 0.0587778 0 0.0226 0.0595556 0 0.02712 0.0603333 0 0.03164 0.0611111 0 0.03616 0.0618889 0 0.04068 0.0626667 0 0.0452 0.0634444 0 0.04972 0.0642222 0 0.05424 0.065 0 0.05876 0.0657778 0 0.06328 0.0665556 0 0.0678 0.0673333 0 0 0.0594222 0 0.00472089 0.0601481 0 0.00944178 0.0608741 0 0.0141627 0.0616 0 0.0188836 0.0623259 0 0.0236044 0.0630519 0 0.0283253 0.0637778 0 0.0330462 0.0645037 0 0.0377671 0.0652296 0 0.042488 0.0659556 0 0.0472089 0.0666815 0 0.0519298 0.0674074 0 0.0566507 0.0681333 0 0.0613716 0.0688593 0 0.0660924 0.0695852 0 0.0708133 0.0703111 0 0 0.0631778 0 0.00492178 0.0638519 0 0.00984356 0.0645259 0 0.0147653 0.0652 0 0.0196871 0.0658741 0 0.0246089 0.0665481 0 0.0295307 0.0672222 0 0.0344524 0.0678963 0 0.0393742 0.0685704 0 0.044296 0.0692444 0 0.0492178 0.0699185 0 0.0541396 0.0705926 0 0.0590613 0.0712667 0 0.0639831 0.0719407 0 0.0689049 0.0726148 0 0.0738267 0.0732889 0 0 0.0669333 0 0.00512267 0.0675556 0 0.0102453 0.0681778 0 0.015368 0.0688 0 0.0204907 0.0694222 0 0.0256133 0.0700444 0 0.030736 0.0706667 0 0.0358587 0.0712889 0 0.0409813 0.0719111 0 0.046104 0.0725333 0 0.0512267 0.0731556 0 0.0563493 0.0737778 0 0.061472 0.0744 0 0.0665947 0.0750222 0 0.0717173 0.0756444 0 0.07684 0.0762667 0 0 0.0706889 0 0.00532356 0.0712593 0 0.0106471 0.0718296 0 0.0159707 0.0724 0 0.0212942 0.0729704 0 0.0266178 0.0735407 0 0.0319413 0.0741111 0 0.0372649 0.0746815 0 0.0425884 0.0752519 0 0.047912 0.0758222 0 0.0532356 0.0763926 0 0.0585591 0.076963 0 0.0638827 0.0775333 0 0.0692062 0.0781037 0 0.0745298 0.0786741 0 0.0798533 0.0792444 0 0 0.0744444 0 0.00552444 0.074963 0 0.0110489 0.0754815 0 0.0165733 0.076 0 0.0220978 0.0765185 0 0.0276222 0.077037 0 0.0331467 0.0775556 0 0.0386711 0.0780741 0 0.0441956 0.0785926 0 0.04972 0.0791111 0 0.0552444 0.0796296 0 0.0607689 0.0801481 0 0.0662933 0.0806667 0 0.0718178 0.0811852 0 0.0773422 0.0817037 0 0.0828667 0.0822222 0 0 0.0782 0 0.00572533 0.0786667 0 0.0114507 0.0791333 0 0.017176 0.0796 0 0.0229013 0.0800667 0 0.0286267 0.0805333 0 0.034352 0.081 0 0.0400773 0.0814667 0 0.0458027 0.0819333 0 0.051528 0.0824 0 0.0572533 0.0828667 0 0.0629787 0.0833333 0 0.068704 0.0838 0 0.0744293 0.0842667 0 0.0801547 0.0847333 0 0.08588 0.0852 0 0 0.0819556 0 0.00592622 0.0823704 0 0.0118524 0.0827852 0 0.0177787 0.0832 0 0.0237049 0.0836148 0 0.0296311 0.0840296 0 0.0355573 0.0844444 0 0.0414836 0.0848593 0 0.0474098 0.0852741 0 0.053336 0.0856889 0 0.0592622 0.0861037 0 0.0651884 0.0865185 0 0.0711147 0.0869333 0 0.0770409 0.0873481 0 0.0829671 0.087763 0 0.0888933 0.0881778 0 0 0.0857111 0 0.00612711 0.0860741 0 0.0122542 0.086437 0 0.0183813 0.0868 0 0.0245084 0.087163 0 0.0306356 0.0875259 0 0.0367627 0.0878889 0 0.0428898 0.0882519 0 0.0490169 0.0886148 0 0.055144 0.0889778 0 0.0612711 0.0893407 0 0.0673982 0.0897037 0 0.0735253 0.0900667 0 0.0796524 0.0904296 0 0.0857796 0.0907926 0 0.0919067 0.0911556 0 0 0.0894667 0 0.006328 0.0897778 0 0.012656 0.0900889 0 0.018984 0.0904 0 0.025312 0.0907111 0 0.03164 0.0910222 0 0.037968 0.0913333 0 0.044296 0.0916444 0 0.050624 0.0919556 0 0.056952 0.0922667 0 0.06328 0.0925778 0 0.069608 0.0928889 0 0.075936 0.0932 0 0.082264 0.0935111 0 0.088592 0.0938222 0 0.09492 0.0941333 0 0 0.0932222 0 0.00652889 0.0934815 0 0.0130578 0.0937407 0 0.0195867 0.094 0 0.0261156 0.0942593 0 0.0326444 0.0945185 0 0.0391733 0.0947778 0 0.0457022 0.095037 0 0.0522311 0.0952963 0 0.05876 0.0955556 0 0.0652889 0.0958148 0 0.0718178 0.0960741 0 0.0783467 0.0963333 0 0.0848756 0.0965926 0 0.0914044 0.0968519 0 0.0979333 0.0971111 0 0 0.0969778 0 0.00672978 0.0971852 0 0.0134596 0.0973926 0 0.0201893 0.0976 0 0.0269191 0.0978074 0 0.0336489 0.0980148 0 0.0403787 0.0982222 0 0.0471084 0.0984296 0 0.0538382 0.098637 0 0.060568 0.0988444 0 0.0672978 0.0990519 0 0.0740276 0.0992593 0 0.0807573 0.0994667 0 0.0874871 0.0996741 0 0.0942169 0.0998815 0 0.100947 0.100089 0 0 0.100733 0 0.00693067 0.100889 0 0.0138613 0.101044 0 0.020792 0.1012 0 0.0277227 0.101356 0 0.0346533 0.101511 0 0.041584 0.101667 0 0.0485147 0.101822 0 0.0554453 0.101978 0 0.062376 0.102133 0 0.0693067 0.102289 0 0.0762373 0.102444 0 0.083168 0.1026 0 0.0900987 0.102756 0 0.0970293 0.102911 0 0.10396 0.103067 0 0 0.104489 0 0.00713156 0.104593 0 0.0142631 0.104696 0 0.0213947 0.1048 0 0.0285262 0.104904 0 0.0356578 0.105007 0 0.0427893 0.105111 0 0.0499209 0.105215 0 0.0570524 0.105319 0 0.064184 0.105422 0 0.0713156 0.105526 0 0.0784471 0.10563 0 0.0855787 0.105733 0 0.0927102 0.105837 0 0.0998418 0.105941 0 0.106973 0.106044 0 0 0.108244 0 0.00733244 0.108296 0 0.0146649 0.108348 0 0.0219973 0.1084 0 0.0293298 0.108452 0 0.0366622 0.108504 0 0.0439947 0.108556 0 0.0513271 0.108607 0 0.0586596 0.108659 0 0.065992 0.108711 0 0.0733244 0.108763 0 0.0806569 0.108815 0 0.0879893 0.108867 0 0.0953218 0.108919 0 0.102654 0.10897 0 0.109987 0.109022 0 0 0.112 0 0.00753333 0.112 0 0.0150667 0.112 0 0.0226 0.112 0 0.0301333 0.112 0 0.0376667 0.112 0 0.0452 0.112 0 0.0527333 0.112 0 0.0602667 0.112 0 0.0678 0.112 0 0.0753333 0.112 0 0.0828667 0.112 0 0.0904 0.112 0 0.0979333 0.112 0 0.105467 0.112 0 0.113 0.112 0 
</DataArray>
</Points> 
</Piece> 
</StructuredGrid> 
</VTKFile> 
