<?xml version="1.0"?> 
<VTKFile type="StructuredGrid" version="0.1"> 
<StructuredGrid WholeExtent="0 15 0 15 0 0"> 
<Piece Extent="0 15 0 15 0 0"> 
<PointData>
<DataArray type="Float32" Name="|E|" format="ascii" NumberOfComponents="3"> 
-1.7115e+06 8.71991 0 -2.31546e+06 2.62862 0 -2.73922e+06 -2.45438 0 -2.98509e+06 -2.43991 0 -3.11873e+06 -1.51927 0 -3.19315e+06 -0.838452 0 -3.23997e+06 -0.447472 0 -3.27645e+06 -0.228594 0 -3.3117e+06 -0.100323 0 -3.35013e+06 -0.0113596 0 -3.39325e+06 0.0708325 0 -3.44027e+06 0.163118 0 -3.48805e+06 0.256923 0 -3.53096e+06 0.300661 0 -3.56149e+06 0.216237 0 -3.57268e+06 3.21865e-06 0 -1.71159e+06 109794 0 -2.31826e+06 89171.9 0 -2.74184e+06 54950.2 0 -2.98667e+06 30259.4 0 -3.11955e+06 16406.3 0 -3.19353e+06 9594.27 0 -3.24011e+06 6693.59 0 -3.27646e+06 5892.98 0 -3.31165e+06 6162.6 0 -3.35006e+06 6902.86 0 -3.39319e+06 7696.7 0 -3.44025e+06 8163.93 0 -3.48812e+06 7886.4 0 -3.53114e+06 6454.23 0 -3.56177e+06 3696.02 0 -3.57301e+06 -3.64031e-07 0 -1.71186e+06 220889 0 -2.32674e+06 178686 0 -2.74971e+06 109564 0 -2.99142e+06 60200.7 0 -3.12201e+06 32611.8 0 -3.19466e+06 19079.8 0 -3.24052e+06 13328.2 0 -3.2765e+06 11756.3 0 -3.3115e+06 12312 0 -3.34985e+06 13804.3 0 -3.39302e+06 15402.7 0 -3.44021e+06 16349.3 0 -3.48832e+06 15806.6 0 -3.53167e+06 12948.2 0 -3.56262e+06 7420.69 0 -3.574e+06 9.49949e-08 0 -1.71233e+06 334643 0 -2.34121e+06 268861 0 -2.76289e+06 163487 0 -2.9993e+06 89505.5 0 -3.12608e+06 48418.2 0 -3.19653e+06 28349.5 0 -3.2412e+06 19846 0 -3.27655e+06 17560.7 0 -3.31125e+06 18435.2 0 -3.34949e+06 20702.8 0 -3.39272e+06 23127.1 0 -3.44014e+06 24577.3 0 -3.48865e+06 23794.5 0 -3.53256e+06 19521.8 0 -3.56405e+06 11203 0 -3.57565e+06 1.76951e-08 0 -1.713e+06 452600 0 -2.36216e+06 359967 0 -2.78146e+06 216326 0 -3.01026e+06 117851 0 -3.13171e+06 63628.7 0 -3.19911e+06 37298.6 0 -3.24212e+06 26189.8 0 -3.27661e+06 23277.8 0 -3.31089e+06 24519.5 0 -3.34899e+06 27597.1 0 -3.39229e+06 30879.1 0 -3.44002e+06 32869.3 0 -3.48911e+06 31884.2 0 -3.53381e+06 26216.2 0 -3.56605e+06 15073.4 0 -3.57799e+06 -9.31323e-09 0 -1.7139e+06 576509 0 -2.39035e+06 452181 0 -2.80553e+06 267636 0 -3.02422e+06 144907 0 -3.13883e+06 78052.1 0 -3.20236e+06 45825 0 -3.24327e+06 32304.7 0 -3.27667e+06 28879.9 0 -3.31041e+06 30552.4 0 -3.34833e+06 34485.9 0 -3.39173e+06 38667.5 0 -3.43986e+06 41246.5 0 -3.48969e+06 40110.5 0 -3.53541e+06 33074.2 0 -3.56866e+06 19063.7 0 -3.58103e+06 -7.45058e-09 0 -1.71507e+06 708652 0 -2.42681e+06 545530 0 -2.83519e+06 316903 0 -3.04108e+06 170336 0 -3.14735e+06 91504 0 -3.20623e+06 53831 0 -3.24461e+06 38138.3 0 -3.27671e+06 34340.8 0 -3.3098e+06 36522.1 0 -3.34751e+06 41367.9 0 -3.39103e+06 46501.2 0 -3.43965e+06 49729.8 0 -3.49038e+06 48508.8 0 -3.53738e+06 40140.5 0 -3.57187e+06 23208.6 0 -3.5848e+06 1.86265e-08 0 -1.71661e+06 851711 0 -2.47295e+06 639775 0 -2.87051e+06 363557 0 -3.0607e+06 193780 0 -3.15717e+06 103817 0 -3.21066e+06 61219.5 0 -3.24612e+06 43643.2 0 -3.27671e+06 39635 0 -3.30906e+06 42417.8 0 -3.34652e+06 48241.8 0 -3.39018e+06 54388.6 0 -3.43936e+06 58340.1 0 -3.49117e+06 57115.2 0 -3.5397e+06 47462.5 0 -3.57572e+06 27545.8 0 -3.58933e+06 7.45058e-09 0 -1.71887e+06 1.00984e+06 0 -2.53056e+06 734284 0 -2.91146e+06 406963 0 -3.08289e+06 214864 0 -3.16817e+06 114843 0 -3.21559e+06 67896.5 0 -3.24775e+06 48777.4 0 -3.27666e+06 44738.1 0 -3.30816e+06 48229.8 0 -3.34534e+06 55106.4 0 -3.38916e+06 62337.8 0 -3.439e+06 67097.8 0 -3.49204e+06 65966.6 0 -3.54237e+06 55091.1 0 -3.58023e+06 32117.3 0 -3.59466e+06 8.9407e-08 0 -1.72251e+06 1.18808e+06 0 -2.602e+06 827728 0 -2.9579e+06 446524 0 -3.10743e+06 233145 0 -3.1802e+06 124485 0 -3.22092e+06 73755.2 0 -3.24946e+06 53512.4 0 -3.27652e+06 49623.7 0 -3.3071e+06 53950.8 0 -3.34398e+06 61959.8 0 -3.38797e+06 70356.8 0 -3.43853e+06 76023 0 -3.49298e+06 75100.8 0 -3.5454e+06 63081 0 -3.58542e+06 36970.4 0 -3.60085e+06 -2.45869e-07 0 -1.73023e+06 1.39599e+06 0 -2.69011e+06 917850 0 -3.00947e+06 481646 0 -3.13405e+06 248141 0 -3.19311e+06 132692 0 -3.22657e+06 78682.6 0 -3.25122e+06 57832 0 -3.27627e+06 54264.1 0 -3.30585e+06 59576.1 0 -3.3424e+06 68799.7 0 -3.38658e+06 78453.1 0 -3.43795e+06 85134.8 0 -3.49397e+06 84556.5 0 -3.54878e+06 71491.8 0 -3.59134e+06 42158.9 0 -3.60796e+06 1.78814e-07 0 -1.74762e+06 1.64739e+06 0 -2.79831e+06 1.00088e+06 0 -3.0655e+06 511963 0 -3.16242e+06 259233 0 -3.20677e+06 139520 0 -3.2324e+06 82526.9 0 -3.25298e+06 61748.8 0 -3.27586e+06 58623 0 -3.30441e+06 65107 0 -3.34059e+06 75621.8 0 -3.38499e+06 86634.1 0 -3.43722e+06 94451.9 0 -3.49499e+06 94372.7 0 -3.55249e+06 80388.6 0 -3.59802e+06 47744.7 0 -3.61606e+06 1.49012e-08 0 -1.79575e+06 1.97447e+06 0 -2.92966e+06 1.07161e+06 0 -3.12504e+06 536868 0 -3.19214e+06 265963 0 -3.22105e+06 144993 0 -3.23826e+06 85166.5 0 -3.25474e+06 65274.9 0 -3.27525e+06 62668.5 0 -3.30277e+06 70545.7 0 -3.33853e+06 82422 0 -3.38317e+06 94906.2 0 -3.43632e+06 103992 0 -3.49599e+06 104589 0 -3.55654e+06 89842.6 0 -3.60552e+06 53800 0 -3.62524e+06 -2.38419e-07 0 -1.92916e+06 2.45507e+06 0 -3.08509e+06 1.12459e+06 0 -3.18693e+06 554016 0 -3.22276e+06 268938 0 -3.23582e+06 148648 0 -3.24397e+06 86730.9 0 -3.25649e+06 68319.5 0 -3.27436e+06 66418.1 0 -3.30093e+06 75876.4 0 -3.3362e+06 89203.1 0 -3.38112e+06 103273 0 -3.43521e+06 113770 0 -3.49696e+06 115245 0 -3.5609e+06 99932.1 0 -3.61387e+06 60409.8 0 -3.6356e+06 1.93715e-07 0 -2.35417e+06 3.33205e+06 0 -3.25282e+06 1.1626e+06 0 -3.25097e+06 551376 0 -3.25381e+06 274401 0 -3.25074e+06 147163 0 -3.24954e+06 88783.7 0 -3.25809e+06 70126.8 0 -3.27321e+06 70192.7 0 -3.29885e+06 80959.4 0 -3.33357e+06 96015.1 0 -3.3788e+06 111721 0 -3.43388e+06 123805 0 -3.49785e+06 126383 0 -3.56555e+06 110740 0 -3.62315e+06 67678.5 0 -3.64729e+06 -3.27826e-07 0 -3.91909e+06 6.03968e+06 0 -3.36546e+06 1.26096e+06 0 -3.32324e+06 448106 0 -3.28538e+06 327833 0 -3.26385e+06 116782 0 -3.25638e+06 103110 0 -3.25842e+06 65075.1 0 -3.27242e+06 76522.2 0 -3.29612e+06 84726 0 -3.33086e+06 103258 0 -3.37609e+06 120135 0 -3.43234e+06 134120 0 -3.49859e+06 138064 0 -3.57047e+06 122327 0 -3.6334e+06 75756.9 0 -3.66044e+06 1.90735e-06 0 </DataArray> 
</PointData> 
<Points> 
<DataArray type="Float32" NumberOfComponents="3"> 
0.016 0 0 0.0199333 0 0 0.0238667 0 0 0.0278 0 0 0.0317333 0 0 0.0356667 0 0 0.0396 0 0 0.0435333 0 0 0.0474667 0 0 0.0514 0 0 0.0553333 0 0 0.0592667 0 0 0.0632 0 0 0.0671333 0 0 0.0710667 0 0 0.075 0 0 0.016 0.000666667 0 0.0199333 0.000666667 0 0.0238667 0.000666667 0 0.0278 0.000666667 0 0.0317333 0.000666667 0 0.0356667 0.000666667 0 0.0396 0.000666667 0 0.0435333 0.000666667 0 0.0474667 0.000666667 0 0.0514 0.000666667 0 0.0553333 0.000666667 0 0.0592667 0.000666667 0 0.0632 0.000666667 0 0.0671333 0.000666667 0 0.0710667 0.000666667 0 0.075 0.000666667 0 0.016 0.00133333 0 0.0199333 0.00133333 0 0.0238667 0.00133333 0 0.0278 0.00133333 0 0.0317333 0.00133333 0 0.0356667 0.00133333 0 0.0396 0.00133333 0 0.0435333 0.00133333 0 0.0474667 0.00133333 0 0.0514 0.00133333 0 0.0553333 0.00133333 0 0.0592667 0.00133333 0 0.0632 0.00133333 0 0.0671333 0.00133333 0 0.0710667 0.00133333 0 0.075 0.00133333 0 0.016 0.002 0 0.0199333 0.002 0 0.0238667 0.002 0 0.0278 0.002 0 0.0317333 0.002 0 0.0356667 0.002 0 0.0396 0.002 0 0.0435333 0.002 0 0.0474667 0.002 0 0.0514 0.002 0 0.0553333 0.002 0 0.0592667 0.002 0 0.0632 0.002 0 0.0671333 0.002 0 0.0710667 0.002 0 0.075 0.002 0 0.016 0.00266667 0 0.0199333 0.00266667 0 0.0238667 0.00266667 0 0.0278 0.00266667 0 0.0317333 0.00266667 0 0.0356667 0.00266667 0 0.0396 0.00266667 0 0.0435333 0.00266667 0 0.0474667 0.00266667 0 0.0514 0.00266667 0 0.0553333 0.00266667 0 0.0592667 0.00266667 0 0.0632 0.00266667 0 0.0671333 0.00266667 0 0.0710667 0.00266667 0 0.075 0.00266667 0 0.016 0.00333333 0 0.0199333 0.00333333 0 0.0238667 0.00333333 0 0.0278 0.00333333 0 0.0317333 0.00333333 0 0.0356667 0.00333333 0 0.0396 0.00333333 0 0.0435333 0.00333333 0 0.0474667 0.00333333 0 0.0514 0.00333333 0 0.0553333 0.00333333 0 0.0592667 0.00333333 0 0.0632 0.00333333 0 0.0671333 0.00333333 0 0.0710667 0.00333333 0 0.075 0.00333333 0 0.016 0.004 0 0.0199333 0.004 0 0.0238667 0.004 0 0.0278 0.004 0 0.0317333 0.004 0 0.0356667 0.004 0 0.0396 0.004 0 0.0435333 0.004 0 0.0474667 0.004 0 0.0514 0.004 0 0.0553333 0.004 0 0.0592667 0.004 0 0.0632 0.004 0 0.0671333 0.004 0 0.0710667 0.004 0 0.075 0.004 0 0.016 0.00466667 0 0.0199333 0.00466667 0 0.0238667 0.00466667 0 0.0278 0.00466667 0 0.0317333 0.00466667 0 0.0356667 0.00466667 0 0.0396 0.00466667 0 0.0435333 0.00466667 0 0.0474667 0.00466667 0 0.0514 0.00466667 0 0.0553333 0.00466667 0 0.0592667 0.00466667 0 0.0632 0.00466667 0 0.0671333 0.00466667 0 0.0710667 0.00466667 0 0.075 0.00466667 0 0.016 0.00533333 0 0.0199333 0.00533333 0 0.0238667 0.00533333 0 0.0278 0.00533333 0 0.0317333 0.00533333 0 0.0356667 0.00533333 0 0.0396 0.00533333 0 0.0435333 0.00533333 0 0.0474667 0.00533333 0 0.0514 0.00533333 0 0.0553333 0.00533333 0 0.0592667 0.00533333 0 0.0632 0.00533333 0 0.0671333 0.00533333 0 0.0710667 0.00533333 0 0.075 0.00533333 0 0.016 0.006 0 0.0199333 0.006 0 0.0238667 0.006 0 0.0278 0.006 0 0.0317333 0.006 0 0.0356667 0.006 0 0.0396 0.006 0 0.0435333 0.006 0 0.0474667 0.006 0 0.0514 0.006 0 0.0553333 0.006 0 0.0592667 0.006 0 0.0632 0.006 0 0.0671333 0.006 0 0.0710667 0.006 0 0.075 0.006 0 0.016 0.00666667 0 0.0199333 0.00666667 0 0.0238667 0.00666667 0 0.0278 0.00666667 0 0.0317333 0.00666667 0 0.0356667 0.00666667 0 0.0396 0.00666667 0 0.0435333 0.00666667 0 0.0474667 0.00666667 0 0.0514 0.00666667 0 0.0553333 0.00666667 0 0.0592667 0.00666667 0 0.0632 0.00666667 0 0.0671333 0.00666667 0 0.0710667 0.00666667 0 0.075 0.00666667 0 0.016 0.00733333 0 0.0199333 0.00733333 0 0.0238667 0.00733333 0 0.0278 0.00733333 0 0.0317333 0.00733333 0 0.0356667 0.00733333 0 0.0396 0.00733333 0 0.0435333 0.00733333 0 0.0474667 0.00733333 0 0.0514 0.00733333 0 0.0553333 0.00733333 0 0.0592667 0.00733333 0 0.0632 0.00733333 0 0.0671333 0.00733333 0 0.0710667 0.00733333 0 0.075 0.00733333 0 0.016 0.008 0 0.0199333 0.008 0 0.0238667 0.008 0 0.0278 0.008 0 0.0317333 0.008 0 0.0356667 0.008 0 0.0396 0.008 0 0.0435333 0.008 0 0.0474667 0.008 0 0.0514 0.008 0 0.0553333 0.008 0 0.0592667 0.008 0 0.0632 0.008 0 0.0671333 0.008 0 0.0710667 0.008 0 0.075 0.008 0 0.016 0.00866667 0 0.0199333 0.00866667 0 0.0238667 0.00866667 0 0.0278 0.00866667 0 0.0317333 0.00866667 0 0.0356667 0.00866667 0 0.0396 0.00866667 0 0.0435333 0.00866667 0 0.0474667 0.00866667 0 0.0514 0.00866667 0 0.0553333 0.00866667 0 0.0592667 0.00866667 0 0.0632 0.00866667 0 0.0671333 0.00866667 0 0.0710667 0.00866667 0 0.075 0.00866667 0 0.016 0.00933333 0 0.0199333 0.00933333 0 0.0238667 0.00933333 0 0.0278 0.00933333 0 0.0317333 0.00933333 0 0.0356667 0.00933333 0 0.0396 0.00933333 0 0.0435333 0.00933333 0 0.0474667 0.00933333 0 0.0514 0.00933333 0 0.0553333 0.00933333 0 0.0592667 0.00933333 0 0.0632 0.00933333 0 0.0671333 0.00933333 0 0.0710667 0.00933333 0 0.075 0.00933333 0 0.016 0.01 0 0.0199333 0.01 0 0.0238667 0.01 0 0.0278 0.01 0 0.0317333 0.01 0 0.0356667 0.01 0 0.0396 0.01 0 0.0435333 0.01 0 0.0474667 0.01 0 0.0514 0.01 0 0.0553333 0.01 0 0.0592667 0.01 0 0.0632 0.01 0 0.0671333 0.01 0 0.0710667 0.01 0 0.075 0.01 0 
</DataArray>
</Points> 
</Piece> 
</StructuredGrid> 
</VTKFile> 
