<?xml version="1.0"?> 
<VTKFile type="StructuredGrid" version="0.1"> 
<StructuredGrid WholeExtent="0 15 0 15 0 0"> 
<Piece Extent="0 15 0 15 0 0"> 
<PointData>
<DataArray type="Float32" Name="|E|" format="ascii" NumberOfComponents="3"> 
1.71147e+06 -682663 0 1.97899e+06 -277608 0 1.96908e+06 64007.4 0 1.79337e+06 239655 0 1.58164e+06 298583 0 1.37882e+06 298899 0 1.19805e+06 273961 0 1.04184e+06 239782 0 909781 203580 0 800190 168488 0 711228 135608 0 641074 105142 0 588178 76838.2 0 551294 50246.8 0 529525 24827.3 0 522330 0 0 1.76207e+06 -702849 0 2.02545e+06 -273809 0 1.9907e+06 86810.7 0 1.79712e+06 264104 0 1.57749e+06 320568 0 1.37194e+06 317737 0 1.19077e+06 290031 0 1.03507e+06 253338 0 903848 214896 0 795115 177779 0 706927 143065 0 637413 110920 0 585013 81062.7 0 548478 53011.3 0 526916 26194 0 519790 0 0 1.81441e+06 -723726 0 2.07417e+06 -266629 0 2.0123e+06 112359 0 1.80027e+06 289733 0 1.57284e+06 342986 0 1.3647e+06 336653 0 1.1832e+06 306061 0 1.02807e+06 266801 0 897702 226115 0 789848 186981 0 702450 150447 0 633588 116639 0 581693 85243.8 0 545514 55747.5 0 524163 27546.8 0 517107 0 0 1.86901e+06 -745504 0 2.12527e+06 -255690 0 2.03361e+06 140722 0 1.80272e+06 316511 0 1.56767e+06 365808 0 1.3571e+06 355630 0 1.17534e+06 322043 0 1.02082e+06 280167 0 891343 237233 0 784389 196091 0 697796 157752 0 629599 122297 0 578219 89380.7 0 542403 58454.8 0 521268 28885.4 0 514283 0 0 1.92653e+06 -768446 0 2.17886e+06 -240513 0 2.05435e+06 171937 0 1.80435e+06 344405 0 1.56191e+06 388996 0 1.3491e+06 374653 0 1.16717e+06 337969 0 1.01333e+06 293429 0 884769 248250 0 778740 205105 0 692968 164978 0 625449 127894 0 574592 93472.3 0 539145 61132.7 0 518229 30209.4 0 511317 0 0 1.98779e+06 -792884 0 2.235e+06 -220508 0 2.07422e+06 206000 0 1.80504e+06 373377 0 1.55552e+06 412503 0 1.34071e+06 393707 0 1.1587e+06 353828 0 1.0056e+06 306583 0 877981 259160 0 772901 214023 0 687965 172125 0 621137 133428 0 570813 97517.8 0 535742 63780.4 0 515049 31518.5 0 508211 0 0 2.05392e+06 -819260 0 2.2937e+06 -194972 0 2.09287e+06 242853 0 1.80471e+06 403397 0 1.54847e+06 436270 0 1.3319e+06 412781 0 1.14991e+06 369608 0 997627 319626 0 870976 269961 0 766874 222842 0 682788 179190 0 616664 138897 0 566882 101516 0 532193 66397.5 0 511728 32812.4 0 504965 0 0 2.1264e+06 -848169 0 2.35484e+06 -163085 0 2.10991e+06 282373 0 1.80325e+06 434437 0 1.54072e+06 460223 0 1.32266e+06 431870 0 1.1408e+06 385292 0 989406 332554 0 863756 280648 0 760660 231561 0 677438 186172 0 612033 144301 0 562800 105467 0 528501 68983.3 0 508266 34090.9 0 501580 0 0 2.2073e+06 -880442 0 2.41816e+06 -123927 0 2.12495e+06 324371 0 1.80057e+06 466478 0 1.53223e+06 484273 0 1.31299e+06 450972 0 1.13136e+06 400858 0 980938 345366 0 856321 291216 0 754259 240176 0 671916 193068 0 607244 149638 0 558570 109368 0 524667 71537.3 0 504665 35353.6 0 498056 0 0 2.29961e+06 -917260 0 2.48317e+06 -76513.3 0 2.13758e+06 368598 0 1.79658e+06 499499 0 1.523e+06 508320 0 1.30286e+06 470096 0 1.1216e+06 416282 0 972221 358063 0 848673 301659 0 747673 248688 0 666224 199877 0 602298 154907 0 554190 113220 0 520690 74058.8 0 500926 36600.3 0 494396 0 0 2.4076e+06 -960334 0 2.54905e+06 -19874.9 0 2.1474e+06 414787 0 1.79121e+06 533456 0 1.51302e+06 532262 0 1.29225e+06 489251 0 1.11152e+06 431535 0 963250 370648 0 840814 311968 0 740902 257096 0 660364 206597 0 597196 160108 0 549663 117022 0 516572 76547.1 0 497049 37830.8 0 490599 0 0 2.53759e+06 -1.01218e+06 0 2.61451e+06 46787.7 0 2.15408e+06 462735 0 1.78437e+06 568233 0 1.5023e+06 556024 0 1.28114e+06 508434 0 1.10114e+06 446591 0 954017 383123 0 832751 322138 0 733943 265398 0 654338 213225 0 591939 165238 0 544991 120771 0 512314 79001.6 0 493036 39044.9 0 486666 0 0 2.69897e+06 -1.07656e+06 0 2.67758e+06 123834 0 2.15735e+06 512477 0 1.77598e+06 603535 0 1.49085e+06 579618 0 1.2695e+06 527602 0 1.09046e+06 461442 0 944511 395483 0 824490 332161 0 726795 273594 0 648149 219759 0 586526 170297 0 540174 124469 0 507916 81421.5 0 488887 40242.5 0 482599 0 0 2.90584e+06 -1.15907e+06 0 2.73531e+06 210719 0 2.15713e+06 564610 0 1.76597e+06 638686 0 1.47869e+06 603262 0 1.25732e+06 546609 0 1.07951e+06 476130 0 934727 407699 0 816040 342044 0 719457 281677 0 641800 226198 0 580959 175283 0 535215 128114 0 503380 83806.3 0 484603 41423.3 0 478400 0 0 3.17947e+06 -1.26822e+06 0 2.78338e+06 305195 0 2.15353e+06 620875 0 1.7543e+06 672256 0 1.4658e+06 627601 0 1.24462e+06 565076 0 1.06826e+06 490813 0 924672 419689 0 807397 351815 0 711930 289634 0 635294 232545 0 575239 180195 0 530114 131704 0 498707 86156.2 0 480187 42586.4 0 474068 0 0 3.55218e+06 -1.41688e+06 0 2.81546e+06 402184 0 2.14699e+06 685057 0 1.74101e+06 701468 0 1.45205e+06 654082 0 1.2315e+06 582184 0 1.05664e+06 505882 0 914397 431256 0 798534 361552 0 704233 297429 0 628622 238808 0 569371 185030 0 524872 135238 0 493899 88473.1 0 475637 43728.9 0 469605 0 0 </DataArray> 
</PointData> 
<Points> 
<DataArray type="Float32" NumberOfComponents="3"> 
0.1947 0.02 0 0.206587 0.02 0 0.218473 0.02 0 0.23036 0.02 0 0.242247 0.02 0 0.254133 0.02 0 0.26602 0.02 0 0.277907 0.02 0 0.289793 0.02 0 0.30168 0.02 0 0.313567 0.02 0 0.325453 0.02 0 0.33734 0.02 0 0.349227 0.02 0 0.361113 0.02 0 0.373 0.02 0 0.195173 0.0211867 0 0.207028 0.0211867 0 0.218884 0.0211867 0 0.230739 0.0211867 0 0.242594 0.0211867 0 0.254449 0.0211867 0 0.266304 0.0211867 0 0.278159 0.0211867 0 0.290014 0.0211867 0 0.301869 0.0211867 0 0.313724 0.0211867 0 0.32558 0.0211867 0 0.337435 0.0211867 0 0.34929 0.0211867 0 0.361145 0.0211867 0 0.373 0.0211867 0 0.195647 0.0223733 0 0.20747 0.0223733 0 0.219294 0.0223733 0 0.231117 0.0223733 0 0.242941 0.0223733 0 0.254764 0.0223733 0 0.266588 0.0223733 0 0.278412 0.0223733 0 0.290235 0.0223733 0 0.302059 0.0223733 0 0.313882 0.0223733 0 0.325706 0.0223733 0 0.337529 0.0223733 0 0.349353 0.0223733 0 0.361176 0.0223733 0 0.373 0.0223733 0 0.19612 0.02356 0 0.207912 0.02356 0 0.219704 0.02356 0 0.231496 0.02356 0 0.243288 0.02356 0 0.25508 0.02356 0 0.266872 0.02356 0 0.278664 0.02356 0 0.290456 0.02356 0 0.302248 0.02356 0 0.31404 0.02356 0 0.325832 0.02356 0 0.337624 0.02356 0 0.349416 0.02356 0 0.361208 0.02356 0 0.373 0.02356 0 0.196593 0.0247467 0 0.208354 0.0247467 0 0.220114 0.0247467 0 0.231875 0.0247467 0 0.243635 0.0247467 0 0.255396 0.0247467 0 0.267156 0.0247467 0 0.278916 0.0247467 0 0.290677 0.0247467 0 0.302437 0.0247467 0 0.314198 0.0247467 0 0.325958 0.0247467 0 0.337719 0.0247467 0 0.349479 0.0247467 0 0.36124 0.0247467 0 0.373 0.0247467 0 0.197067 0.0259333 0 0.208796 0.0259333 0 0.220524 0.0259333 0 0.232253 0.0259333 0 0.243982 0.0259333 0 0.255711 0.0259333 0 0.26744 0.0259333 0 0.279169 0.0259333 0 0.290898 0.0259333 0 0.302627 0.0259333 0 0.314356 0.0259333 0 0.326084 0.0259333 0 0.337813 0.0259333 0 0.349542 0.0259333 0 0.361271 0.0259333 0 0.373 0.0259333 0 0.19754 0.02712 0 0.209237 0.02712 0 0.220935 0.02712 0 0.232632 0.02712 0 0.244329 0.02712 0 0.256027 0.02712 0 0.267724 0.02712 0 0.279421 0.02712 0 0.291119 0.02712 0 0.302816 0.02712 0 0.314513 0.02712 0 0.326211 0.02712 0 0.337908 0.02712 0 0.349605 0.02712 0 0.361303 0.02712 0 0.373 0.02712 0 0.198013 0.0283067 0 0.209679 0.0283067 0 0.221345 0.0283067 0 0.233011 0.0283067 0 0.244676 0.0283067 0 0.256342 0.0283067 0 0.268008 0.0283067 0 0.279674 0.0283067 0 0.29134 0.0283067 0 0.303005 0.0283067 0 0.314671 0.0283067 0 0.326337 0.0283067 0 0.338003 0.0283067 0 0.349668 0.0283067 0 0.361334 0.0283067 0 0.373 0.0283067 0 0.198487 0.0294933 0 0.210121 0.0294933 0 0.221755 0.0294933 0 0.233389 0.0294933 0 0.245024 0.0294933 0 0.256658 0.0294933 0 0.268292 0.0294933 0 0.279926 0.0294933 0 0.29156 0.0294933 0 0.303195 0.0294933 0 0.314829 0.0294933 0 0.326463 0.0294933 0 0.338097 0.0294933 0 0.349732 0.0294933 0 0.361366 0.0294933 0 0.373 0.0294933 0 0.19896 0.03068 0 0.210563 0.03068 0 0.222165 0.03068 0 0.233768 0.03068 0 0.245371 0.03068 0 0.256973 0.03068 0 0.268576 0.03068 0 0.280179 0.03068 0 0.291781 0.03068 0 0.303384 0.03068 0 0.314987 0.03068 0 0.326589 0.03068 0 0.338192 0.03068 0 0.349795 0.03068 0 0.361397 0.03068 0 0.373 0.03068 0 0.199433 0.0318667 0 0.211004 0.0318667 0 0.222576 0.0318667 0 0.234147 0.0318667 0 0.245718 0.0318667 0 0.257289 0.0318667 0 0.26886 0.0318667 0 0.280431 0.0318667 0 0.292002 0.0318667 0 0.303573 0.0318667 0 0.315144 0.0318667 0 0.326716 0.0318667 0 0.338287 0.0318667 0 0.349858 0.0318667 0 0.361429 0.0318667 0 0.373 0.0318667 0 0.199907 0.0330533 0 0.211446 0.0330533 0 0.222986 0.0330533 0 0.234525 0.0330533 0 0.246065 0.0330533 0 0.257604 0.0330533 0 0.269144 0.0330533 0 0.280684 0.0330533 0 0.292223 0.0330533 0 0.303763 0.0330533 0 0.315302 0.0330533 0 0.326842 0.0330533 0 0.338381 0.0330533 0 0.349921 0.0330533 0 0.36146 0.0330533 0 0.373 0.0330533 0 0.20038 0.03424 0 0.211888 0.03424 0 0.223396 0.03424 0 0.234904 0.03424 0 0.246412 0.03424 0 0.25792 0.03424 0 0.269428 0.03424 0 0.280936 0.03424 0 0.292444 0.03424 0 0.303952 0.03424 0 0.31546 0.03424 0 0.326968 0.03424 0 0.338476 0.03424 0 0.349984 0.03424 0 0.361492 0.03424 0 0.373 0.03424 0 0.200853 0.0354267 0 0.21233 0.0354267 0 0.223806 0.0354267 0 0.235283 0.0354267 0 0.246759 0.0354267 0 0.258236 0.0354267 0 0.269712 0.0354267 0 0.281188 0.0354267 0 0.292665 0.0354267 0 0.304141 0.0354267 0 0.315618 0.0354267 0 0.327094 0.0354267 0 0.338571 0.0354267 0 0.350047 0.0354267 0 0.361524 0.0354267 0 0.373 0.0354267 0 0.201327 0.0366133 0 0.212772 0.0366133 0 0.224216 0.0366133 0 0.235661 0.0366133 0 0.247106 0.0366133 0 0.258551 0.0366133 0 0.269996 0.0366133 0 0.281441 0.0366133 0 0.292886 0.0366133 0 0.304331 0.0366133 0 0.315776 0.0366133 0 0.32722 0.0366133 0 0.338665 0.0366133 0 0.35011 0.0366133 0 0.361555 0.0366133 0 0.373 0.0366133 0 0.2018 0.0378 0 0.213213 0.0378 0 0.224627 0.0378 0 0.23604 0.0378 0 0.247453 0.0378 0 0.258867 0.0378 0 0.27028 0.0378 0 0.281693 0.0378 0 0.293107 0.0378 0 0.30452 0.0378 0 0.315933 0.0378 0 0.327347 0.0378 0 0.33876 0.0378 0 0.350173 0.0378 0 0.361587 0.0378 0 0.373 0.0378 0 
</DataArray>
</Points> 
</Piece> 
</StructuredGrid> 
</VTKFile> 
