<?xml version="1.0"?> 
<VTKFile type="StructuredGrid" version="0.1"> 
<StructuredGrid WholeExtent="0 15 0 15 0 0"> 
<Piece Extent="0 15 0 15 0 0"> 
<PointData>
<DataArray type="Float32" Name="|E|" format="ascii" NumberOfComponents="3"> 
1.35598e+06 2.38419e-06 0 1.59357e+06 -0.0120123 0 1.74615e+06 -0.0147065 0 1.7248e+06 0.0254961 0 1.59932e+06 0.000690834 0 1.43216e+06 0.00734092 0 1.26022e+06 -1.58399e-05 0 1.10134e+06 0.0012506 0 962278 -0.000277229 0 844899 -5.09843e-05 0 748730 -0.000254991 0 672559 -0.000206068 0 614994 -0.000165606 0 574816 -0.000125948 0 551092 -5.27473e-05 0 543251 0 0 1.35558e+06 -3.10363e-07 0 1.59363e+06 -6565.59 0 1.74622e+06 -1557.88 0 1.72484e+06 2356.58 0 1.59933e+06 4226.46 0 1.43216e+06 4753.64 0 1.26021e+06 4569.69 0 1.10133e+06 4087.32 0 962270 3504.58 0 844891 2912.73 0 748722 2347.95 0 672552 1820.9 0 614988 1330.33 0 574810 869.597 0 551086 429.523 0 543245 0 0 1.35437e+06 7.35745e-08 0 1.59382e+06 -13132.7 0 1.74642e+06 -3117.72 0 1.72496e+06 4716.52 0 1.59938e+06 8453.01 0 1.43217e+06 9508.26 0 1.2602e+06 9139.38 0 1.10131e+06 8174.8 0 962245 7009.13 0 844868 5825.46 0 748700 4695.88 0 672531 3641.78 0 614968 2660.64 0 574792 1739.18 0 551069 859.04 0 543227 0 0 1.35235e+06 1.52737e-07 0 1.59413e+06 -19702.7 0 1.74675e+06 -4681.55 0 1.72515e+06 7083.22 0 1.59945e+06 12679.7 0 1.43217e+06 14264.8 0 1.26017e+06 13709 0 1.10127e+06 12262.6 0 962204 10513.6 0 844828 8738.17 0 748663 7043.73 0 672496 5462.6 0 614936 3990.91 0 574761 2608.72 0 551039 1288.54 0 543198 0 0 1.3495e+06 -1.9744e-07 0 1.59457e+06 -26276.9 0 1.74721e+06 -6251.51 0 1.72542e+06 9460.16 0 1.59955e+06 16906.5 0 1.43218e+06 19024.3 0 1.26014e+06 18278.7 0 1.10122e+06 16350.9 0 962147 14018 0 844772 11650.9 0 748610 9391.48 0 672448 7283.34 0 614890 5321.11 0 574718 3478.22 0 550998 1718.02 0 543157 0 0 1.34581e+06 2.01166e-07 0 1.59514e+06 -32855.8 0 1.7478e+06 -7829.99 0 1.72577e+06 11851 0 1.59968e+06 21133.5 0 1.43219e+06 23787.8 0 1.26009e+06 22848.2 0 1.10115e+06 20439.9 0 962074 17522.2 0 844701 14563.5 0 748543 11739.1 0 672385 9103.97 0 614832 6651.23 0 574663 4347.65 0 550944 2147.48 0 543104 0 0 1.34123e+06 3.57628e-07 0 1.59585e+06 -39439.9 0 1.74852e+06 -9419.63 0 1.72619e+06 14259.4 0 1.59985e+06 25360.3 0 1.4322e+06 28556.3 0 1.26003e+06 27417.7 0 1.10107e+06 24529.8 0 961984 21026.1 0 844613 17476.2 0 748461 14086.5 0 672309 10924.5 0 614761 7981.23 0 574595 5217 0 550879 2576.9 0 543040 0 0 1.33574e+06 -6.4075e-07 0 1.59671e+06 -46028.8 0 1.74938e+06 -11023.5 0 1.72669e+06 16689.4 0 1.60004e+06 29586.9 0 1.43221e+06 33331.1 0 1.25997e+06 31986.8 0 1.10097e+06 28620.8 0 961879 24529.9 0 844510 20388.8 0 748364 16433.8 0 672219 12744.8 0 614677 9311.11 0 574516 6086.25 0 550802 3006.28 0 542964 0 0 1.3293e+06 4.32134e-07 0 1.59772e+06 -52621.3 0 1.75036e+06 -12645 0 1.72727e+06 19145.4 0 1.60026e+06 33812.7 0 1.43223e+06 38113.3 0 1.25989e+06 36555.6 0 1.10085e+06 32713 0 961757 28033.3 0 844391 23301.4 0 748252 18780.8 0 672115 14565 0 614579 10640.8 0 574424 6955.38 0 550714 3435.62 0 542877 0 0 1.32186e+06 -3.42727e-07 0 1.59889e+06 -59215.3 0 1.75148e+06 -14288.1 0 1.72792e+06 21631.9 0 1.60051e+06 38037.3 0 1.43224e+06 42904.2 0 1.2598e+06 41123.9 0 1.10072e+06 36806.9 0 961619 31536.3 0 844255 26214 0 748125 21127.5 0 671997 16384.9 0 614469 11970.4 0 574319 7824.37 0 550613 3864.91 0 542777 0 0 1.31337e+06 1.19209e-07 0 1.60024e+06 -65807.5 0 1.75272e+06 -15957.6 0 1.72865e+06 24153.9 0 1.60079e+06 42259.6 0 1.43226e+06 47705.2 0 1.25971e+06 45691.4 0 1.10058e+06 40902.5 0 961464 35038.8 0 844104 29126.6 0 747984 23473.9 0 671865 18204.6 0 614346 13299.8 0 574203 8693.2 0 550501 4294.14 0 542666 0 0 1.30375e+06 -2.38419e-07 0 1.60177e+06 -72393.4 0 1.7541e+06 -17658.9 0 1.72946e+06 26716.9 0 1.6011e+06 46478.8 0 1.43228e+06 52518 0 1.2596e+06 50257.8 0 1.10042e+06 45000.2 0 961294 38540.7 0 843936 32039.2 0 747827 25820 0 671719 20024 0 614210 14628.9 0 574074 9561.87 0 550376 4723.31 0 542544 0 0 1.29293e+06 2.68221e-07 0 1.60351e+06 -78966.9 0 1.7556e+06 -19398.3 0 1.73034e+06 29326.9 0 1.60144e+06 50693.5 0 1.43229e+06 57344.1 0 1.25948e+06 54822.7 0 1.10024e+06 49100.4 0 961108 42042 0 843753 34951.8 0 747656 28165.6 0 671559 21843.1 0 614061 15957.9 0 573933 10430.3 0 550240 5152.41 0 542409 0 0 1.28083e+06 -8.9407e-08 0 1.60546e+06 -85520.1 0 1.75722e+06 -21183.1 0 1.7313e+06 31990.5 0 1.60181e+06 54902 0 1.43231e+06 62185.5 0 1.25936e+06 59385.7 0 1.10005e+06 53203.4 0 960906 45542.4 0 843553 37864.5 0 747470 30510.8 0 671385 23661.9 0 613900 17286.5 0 573780 11298.6 0 550093 5581.45 0 542263 0 0 1.26735e+06 -3.57628e-07 0 1.60765e+06 -92043.1 0 1.75897e+06 -23021.8 0 1.73233e+06 34715 0 1.60222e+06 59102.2 0 1.43233e+06 67044.2 0 1.25922e+06 63946.3 0 1.09984e+06 57309.7 0 960688 49041.9 0 843337 40777.3 0 747269 32855.5 0 671197 25480.3 0 613725 18615 0 573614 12166.6 0 549933 6010.43 0 542106 0 0 1.25239e+06 1.43051e-06 0 1.6101e+06 -98523.8 0 1.76085e+06 -24924.3 0 1.73344e+06 37508.5 0 1.60265e+06 63291.7 0 1.43234e+06 71922.4 0 1.25908e+06 68503.6 0 1.09961e+06 61419.7 0 960454 52540.2 0 843104 43690.2 0 747053 35199.7 0 670996 27298.4 0 613537 19943.1 0 573437 13034.4 0 549762 6439.33 0 541937 0 0 </DataArray> 
</PointData> 
<Points> 
<DataArray type="Float32" NumberOfComponents="3"> 
0.19 0 0 0.2022 0 0 0.2144 0 0 0.2266 0 0 0.2388 0 0 0.251 0 0 0.2632 0 0 0.2754 0 0 0.2876 0 0 0.2998 0 0 0.312 0 0 0.3242 0 0 0.3364 0 0 0.3486 0 0 0.3608 0 0 0.373 0 0 0.19 0.000333333 0 0.2022 0.000333333 0 0.2144 0.000333333 0 0.2266 0.000333333 0 0.2388 0.000333333 0 0.251 0.000333333 0 0.2632 0.000333333 0 0.2754 0.000333333 0 0.2876 0.000333333 0 0.2998 0.000333333 0 0.312 0.000333333 0 0.3242 0.000333333 0 0.3364 0.000333333 0 0.3486 0.000333333 0 0.3608 0.000333333 0 0.373 0.000333333 0 0.19 0.000666667 0 0.2022 0.000666667 0 0.2144 0.000666667 0 0.2266 0.000666667 0 0.2388 0.000666667 0 0.251 0.000666667 0 0.2632 0.000666667 0 0.2754 0.000666667 0 0.2876 0.000666667 0 0.2998 0.000666667 0 0.312 0.000666667 0 0.3242 0.000666667 0 0.3364 0.000666667 0 0.3486 0.000666667 0 0.3608 0.000666667 0 0.373 0.000666667 0 0.19 0.001 0 0.2022 0.001 0 0.2144 0.001 0 0.2266 0.001 0 0.2388 0.001 0 0.251 0.001 0 0.2632 0.001 0 0.2754 0.001 0 0.2876 0.001 0 0.2998 0.001 0 0.312 0.001 0 0.3242 0.001 0 0.3364 0.001 0 0.3486 0.001 0 0.3608 0.001 0 0.373 0.001 0 0.19 0.00133333 0 0.2022 0.00133333 0 0.2144 0.00133333 0 0.2266 0.00133333 0 0.2388 0.00133333 0 0.251 0.00133333 0 0.2632 0.00133333 0 0.2754 0.00133333 0 0.2876 0.00133333 0 0.2998 0.00133333 0 0.312 0.00133333 0 0.3242 0.00133333 0 0.3364 0.00133333 0 0.3486 0.00133333 0 0.3608 0.00133333 0 0.373 0.00133333 0 0.19 0.00166667 0 0.2022 0.00166667 0 0.2144 0.00166667 0 0.2266 0.00166667 0 0.2388 0.00166667 0 0.251 0.00166667 0 0.2632 0.00166667 0 0.2754 0.00166667 0 0.2876 0.00166667 0 0.2998 0.00166667 0 0.312 0.00166667 0 0.3242 0.00166667 0 0.3364 0.00166667 0 0.3486 0.00166667 0 0.3608 0.00166667 0 0.373 0.00166667 0 0.19 0.002 0 0.2022 0.002 0 0.2144 0.002 0 0.2266 0.002 0 0.2388 0.002 0 0.251 0.002 0 0.2632 0.002 0 0.2754 0.002 0 0.2876 0.002 0 0.2998 0.002 0 0.312 0.002 0 0.3242 0.002 0 0.3364 0.002 0 0.3486 0.002 0 0.3608 0.002 0 0.373 0.002 0 0.19 0.00233333 0 0.2022 0.00233333 0 0.2144 0.00233333 0 0.2266 0.00233333 0 0.2388 0.00233333 0 0.251 0.00233333 0 0.2632 0.00233333 0 0.2754 0.00233333 0 0.2876 0.00233333 0 0.2998 0.00233333 0 0.312 0.00233333 0 0.3242 0.00233333 0 0.3364 0.00233333 0 0.3486 0.00233333 0 0.3608 0.00233333 0 0.373 0.00233333 0 0.19 0.00266667 0 0.2022 0.00266667 0 0.2144 0.00266667 0 0.2266 0.00266667 0 0.2388 0.00266667 0 0.251 0.00266667 0 0.2632 0.00266667 0 0.2754 0.00266667 0 0.2876 0.00266667 0 0.2998 0.00266667 0 0.312 0.00266667 0 0.3242 0.00266667 0 0.3364 0.00266667 0 0.3486 0.00266667 0 0.3608 0.00266667 0 0.373 0.00266667 0 0.19 0.003 0 0.2022 0.003 0 0.2144 0.003 0 0.2266 0.003 0 0.2388 0.003 0 0.251 0.003 0 0.2632 0.003 0 0.2754 0.003 0 0.2876 0.003 0 0.2998 0.003 0 0.312 0.003 0 0.3242 0.003 0 0.3364 0.003 0 0.3486 0.003 0 0.3608 0.003 0 0.373 0.003 0 0.19 0.00333333 0 0.2022 0.00333333 0 0.2144 0.00333333 0 0.2266 0.00333333 0 0.2388 0.00333333 0 0.251 0.00333333 0 0.2632 0.00333333 0 0.2754 0.00333333 0 0.2876 0.00333333 0 0.2998 0.00333333 0 0.312 0.00333333 0 0.3242 0.00333333 0 0.3364 0.00333333 0 0.3486 0.00333333 0 0.3608 0.00333333 0 0.373 0.00333333 0 0.19 0.00366667 0 0.2022 0.00366667 0 0.2144 0.00366667 0 0.2266 0.00366667 0 0.2388 0.00366667 0 0.251 0.00366667 0 0.2632 0.00366667 0 0.2754 0.00366667 0 0.2876 0.00366667 0 0.2998 0.00366667 0 0.312 0.00366667 0 0.3242 0.00366667 0 0.3364 0.00366667 0 0.3486 0.00366667 0 0.3608 0.00366667 0 0.373 0.00366667 0 0.19 0.004 0 0.2022 0.004 0 0.2144 0.004 0 0.2266 0.004 0 0.2388 0.004 0 0.251 0.004 0 0.2632 0.004 0 0.2754 0.004 0 0.2876 0.004 0 0.2998 0.004 0 0.312 0.004 0 0.3242 0.004 0 0.3364 0.004 0 0.3486 0.004 0 0.3608 0.004 0 0.373 0.004 0 0.19 0.00433333 0 0.2022 0.00433333 0 0.2144 0.00433333 0 0.2266 0.00433333 0 0.2388 0.00433333 0 0.251 0.00433333 0 0.2632 0.00433333 0 0.2754 0.00433333 0 0.2876 0.00433333 0 0.2998 0.00433333 0 0.312 0.00433333 0 0.3242 0.00433333 0 0.3364 0.00433333 0 0.3486 0.00433333 0 0.3608 0.00433333 0 0.373 0.00433333 0 0.19 0.00466667 0 0.2022 0.00466667 0 0.2144 0.00466667 0 0.2266 0.00466667 0 0.2388 0.00466667 0 0.251 0.00466667 0 0.2632 0.00466667 0 0.2754 0.00466667 0 0.2876 0.00466667 0 0.2998 0.00466667 0 0.312 0.00466667 0 0.3242 0.00466667 0 0.3364 0.00466667 0 0.3486 0.00466667 0 0.3608 0.00466667 0 0.373 0.00466667 0 0.19 0.005 0 0.2022 0.005 0 0.2144 0.005 0 0.2266 0.005 0 0.2388 0.005 0 0.251 0.005 0 0.2632 0.005 0 0.2754 0.005 0 0.2876 0.005 0 0.2998 0.005 0 0.312 0.005 0 0.3242 0.005 0 0.3364 0.005 0 0.3486 0.005 0 0.3608 0.005 0 0.373 0.005 0 
</DataArray>
</Points> 
</Piece> 
</StructuredGrid> 
</VTKFile> 
