<?xml version="1.0"?> 
<VTKFile type="StructuredGrid" version="0.1"> 
<StructuredGrid WholeExtent="0 15 0 15 0 0"> 
<Piece Extent="0 15 0 15 0 0"> 
<PointData>
<DataArray type="Float32" Name="|E|" format="ascii" NumberOfComponents="3"> 
-353059 0 0 -353743 -0.159802 0 -355799 -0.319174 0 -359233 -0.477657 0 -364056 -0.634721 0 -370284 -0.789737 0 -377938 -0.941939 0 -387041 -1.09038 0 -397623 -1.23391 0 -409717 -1.37109 0 -423359 -1.50019 0 -438590 -1.61913 0 -455455 -1.7254 0 -474000 -1.81605 0 -494277 -1.88764 0 -516338 -1.93624 0 -351159 0 0 -351841 2278.91 0 -353887 4565.38 0 -357305 6866.92 0 -362106 9191.04 0 -368307 11545.1 0 -375926 13936.6 0 -384989 16372.6 0 -395525 18860.2 0 -407568 21406.2 0 -421153 24017.2 0 -436323 26699.3 0 -453121 29458.2 0 -471597 32299.1 0 -491800 35226.3 0 -513785 38243.5 0 -345478 0 0 -346150 4536.77 0 -348168 9088.7 0 -351539 13670.9 0 -356275 18298.4 0 -362390 22986.1 0 -369907 27748.9 0 -378850 32601.2 0 -389248 37557.3 0 -401135 42631.1 0 -414550 47835.7 0 -429533 53183.9 0 -446132 58687.3 0 -464395 64356.6 0 -484376 70201.1 0 -506130 76228.4 0 -336069 0 0 -336725 6752.52 0 -338695 13527.9 0 -341987 20348.9 0 -346612 27238.2 0 -352587 34218.5 0 -359931 41312.1 0 -368672 48541.1 0 -378838 55927.3 0 -390465 63491.7 0 -403591 71254.8 0 -418261 79236.2 0 -434521 87454.4 0 -452425 95926.1 0 -472028 104666 0 -493389 113688 0 -323019 0 0 -323652 8904.75 0 -325556 17840.1 0 -328737 26836.8 0 -333206 35925.2 0 -338981 45135.8 0 -346083 54498.7 0 -354537 64044 0 -364375 73801.2 0 -375632 83799.1 0 -388349 94066.2 0 -402572 104630 0 -418350 115515 0 -435738 126747 0 -454798 138347 0 -475591 150336 0 -306451 0 0 -307056 10971.8 0 -308873 21982.2 0 -311910 33069.6 0 -316178 44272.5 0 -321695 55629.4 0 -328481 67178.4 0 -336563 78957.8 0 -345973 91005.3 0 -356749 103358 0 -368930 116053 0 -382566 129126 0 -397708 142611 0 -414416 156542 0 -432752 170948 0 -452786 185858 0 -286527 0 0 -287096 12931.9 0 -288808 25910.2 0 -291667 38981.4 0 -295687 52192.1 0 -300885 65588.8 0 -307282 79218.1 0 -314905 93126.4 0 -323786 107360 0 -333962 121966 0 -345477 136989 0 -358380 152475 0 -372724 168469 0 -388573 185012 0 -405992 202147 0 -425058 219911 0 -263443 0 0 -263970 14762.8 0 -265555 29580 0 -268205 44505.9 0 -271931 59595.1 0 -276749 74902.2 0 -282682 90482.3 0 -289757 106390 0 -298004 122682 0 -307463 139413 0 -318176 156639 0 -330192 174415 0 -343569 192796 0 -358370 211838 0 -374666 231593 0 -392535 252113 0 -237432 0 0 -237911 16443 0 -239350 32947.9 0 -241757 49577 0 -245142 66392.7 0 -249522 83457.6 0 -254918 100835 0 -261355 118589 0 -268865 136784 0 -277485 155486 0 -287258 174759 0 -298232 194672 0 -310466 215290 0 -324022 236681 0 -338974 258912 0 -355402 282051 0 -208763 0 0 -209187 17951 0 -210462 35971.3 0 -212595 54130.4 0 -215595 72498.2 0 -219478 91145.3 0 -224264 110143 0 -229978 129564 0 -236648 149481 0 -244310 169970 0 -253006 191106 0 -262783 212968 0 -273695 235635 0 -285806 259189 0 -299188 283711 0 -313920 309286 0 -177740 0 0 -178104 19266.8 0 -179197 38609.5 0 -181026 58104.5 0 -183599 77828.8 0 -186931 97859.9 0 -191040 118277 0 -195947 139160 0 -201680 160591 0 -208271 182655 0 -215758 205438 0 -224185 229030 0 -233603 253521 0 -244070 279007 0 -255656 305587 0 -268435 333361 0 -144699 0 0 -144997 20371.7 0 -145893 40825.2 0 -147391 61443 0 -149500 82307.9 0 -152232 103504 0 -155601 125117 0 -159627 147235 0 -164334 169947 0 -169749 193347 0 -175905 217529 0 -182841 242594 0 -190602 268645 0 -199239 295791 0 -208813 324145 0 -219393 353828 0 -110006 0 0 -110233 21249.4 0 -110918 42585.6 0 -112063 64095.8 0 -113675 85868 0 -115763 107992 0 -118341 130558 0 -121421 153661 0 -125025 177397 0 -129173 201866 0 -133892 227172 0 -139213 253423 0 -145173 280733 0 -151813 309223 0 -159183 339021 0 -167340 370261 0 -74049.4 0 0 -74203.3 21886.6 0 -74665.7 43863.5 0 -75439.5 66021.8 0 -76529.1 88453.3 0 -77941 111252 0 -79683.6 134512 0 -81767.5 158333 0 -84205.8 182816 0 -87013.9 208066 0 -90210.4 234193 0 -93817 261314 0 -97859.3 289550 0 -102367 319032 0 -107375 349896 0 -112924 382293 0 -37239.8 0 0 -37317.3 22273 0 -37550.4 44638.7 0 -37940.5 67190.2 0 -38489.9 90021.9 0 -39201.8 113230 0 -40080.6 136912 0 -41131.8 161169 0 -42362 186106 0 -43779.2 211832 0 -45392.9 238461 0 -47214.4 266114 0 -49256.9 294916 0 -51535.7 325005 0 -54069.2 356526 0 -56878.2 389635 0 0 0 0 0 22402.6 0 0 44898.5 0 0 67581.9 0 0 90547.7 0 0 113893 0 0 137716 0 0 162120 0 0 187210 0 0 213096 0 0 239894 0 0 267725 0 0 296718 0 0 327012 0 0 358754 0 0 392104 0 </DataArray> 
</PointData> 
<Points> 
<DataArray type="Float32" NumberOfComponents="3"> 
0 0 0 0.0004 0 0 0.0008 0 0 0.0012 0 0 0.0016 0 0 0.002 0 0 0.0024 0 0 0.0028 0 0 0.0032 0 0 0.0036 0 0 0.004 0 0 0.0044 0 0 0.0048 0 0 0.0052 0 0 0.0056 0 0 0.006 0 0 0 0.000666667 0 0.0004 0.000666667 0 0.0008 0.000666667 0 0.0012 0.000666667 0 0.0016 0.000666667 0 0.002 0.000666667 0 0.0024 0.000666667 0 0.0028 0.000666667 0 0.0032 0.000666667 0 0.0036 0.000666667 0 0.004 0.000666667 0 0.0044 0.000666667 0 0.0048 0.000666667 0 0.0052 0.000666667 0 0.0056 0.000666667 0 0.006 0.000666667 0 0 0.00133333 0 0.0004 0.00133333 0 0.0008 0.00133333 0 0.0012 0.00133333 0 0.0016 0.00133333 0 0.002 0.00133333 0 0.0024 0.00133333 0 0.0028 0.00133333 0 0.0032 0.00133333 0 0.0036 0.00133333 0 0.004 0.00133333 0 0.0044 0.00133333 0 0.0048 0.00133333 0 0.0052 0.00133333 0 0.0056 0.00133333 0 0.006 0.00133333 0 0 0.002 0 0.0004 0.002 0 0.0008 0.002 0 0.0012 0.002 0 0.0016 0.002 0 0.002 0.002 0 0.0024 0.002 0 0.0028 0.002 0 0.0032 0.002 0 0.0036 0.002 0 0.004 0.002 0 0.0044 0.002 0 0.0048 0.002 0 0.0052 0.002 0 0.0056 0.002 0 0.006 0.002 0 0 0.00266667 0 0.0004 0.00266667 0 0.0008 0.00266667 0 0.0012 0.00266667 0 0.0016 0.00266667 0 0.002 0.00266667 0 0.0024 0.00266667 0 0.0028 0.00266667 0 0.0032 0.00266667 0 0.0036 0.00266667 0 0.004 0.00266667 0 0.0044 0.00266667 0 0.0048 0.00266667 0 0.0052 0.00266667 0 0.0056 0.00266667 0 0.006 0.00266667 0 0 0.00333333 0 0.0004 0.00333333 0 0.0008 0.00333333 0 0.0012 0.00333333 0 0.0016 0.00333333 0 0.002 0.00333333 0 0.0024 0.00333333 0 0.0028 0.00333333 0 0.0032 0.00333333 0 0.0036 0.00333333 0 0.004 0.00333333 0 0.0044 0.00333333 0 0.0048 0.00333333 0 0.0052 0.00333333 0 0.0056 0.00333333 0 0.006 0.00333333 0 0 0.004 0 0.0004 0.004 0 0.0008 0.004 0 0.0012 0.004 0 0.0016 0.004 0 0.002 0.004 0 0.0024 0.004 0 0.0028 0.004 0 0.0032 0.004 0 0.0036 0.004 0 0.004 0.004 0 0.0044 0.004 0 0.0048 0.004 0 0.0052 0.004 0 0.0056 0.004 0 0.006 0.004 0 0 0.00466667 0 0.0004 0.00466667 0 0.0008 0.00466667 0 0.0012 0.00466667 0 0.0016 0.00466667 0 0.002 0.00466667 0 0.0024 0.00466667 0 0.0028 0.00466667 0 0.0032 0.00466667 0 0.0036 0.00466667 0 0.004 0.00466667 0 0.0044 0.00466667 0 0.0048 0.00466667 0 0.0052 0.00466667 0 0.0056 0.00466667 0 0.006 0.00466667 0 0 0.00533333 0 0.0004 0.00533333 0 0.0008 0.00533333 0 0.0012 0.00533333 0 0.0016 0.00533333 0 0.002 0.00533333 0 0.0024 0.00533333 0 0.0028 0.00533333 0 0.0032 0.00533333 0 0.0036 0.00533333 0 0.004 0.00533333 0 0.0044 0.00533333 0 0.0048 0.00533333 0 0.0052 0.00533333 0 0.0056 0.00533333 0 0.006 0.00533333 0 0 0.006 0 0.0004 0.006 0 0.0008 0.006 0 0.0012 0.006 0 0.0016 0.006 0 0.002 0.006 0 0.0024 0.006 0 0.0028 0.006 0 0.0032 0.006 0 0.0036 0.006 0 0.004 0.006 0 0.0044 0.006 0 0.0048 0.006 0 0.0052 0.006 0 0.0056 0.006 0 0.006 0.006 0 0 0.00666667 0 0.0004 0.00666667 0 0.0008 0.00666667 0 0.0012 0.00666667 0 0.0016 0.00666667 0 0.002 0.00666667 0 0.0024 0.00666667 0 0.0028 0.00666667 0 0.0032 0.00666667 0 0.0036 0.00666667 0 0.004 0.00666667 0 0.0044 0.00666667 0 0.0048 0.00666667 0 0.0052 0.00666667 0 0.0056 0.00666667 0 0.006 0.00666667 0 0 0.00733333 0 0.0004 0.00733333 0 0.0008 0.00733333 0 0.0012 0.00733333 0 0.0016 0.00733333 0 0.002 0.00733333 0 0.0024 0.00733333 0 0.0028 0.00733333 0 0.0032 0.00733333 0 0.0036 0.00733333 0 0.004 0.00733333 0 0.0044 0.00733333 0 0.0048 0.00733333 0 0.0052 0.00733333 0 0.0056 0.00733333 0 0.006 0.00733333 0 0 0.008 0 0.0004 0.008 0 0.0008 0.008 0 0.0012 0.008 0 0.0016 0.008 0 0.002 0.008 0 0.0024 0.008 0 0.0028 0.008 0 0.0032 0.008 0 0.0036 0.008 0 0.004 0.008 0 0.0044 0.008 0 0.0048 0.008 0 0.0052 0.008 0 0.0056 0.008 0 0.006 0.008 0 0 0.00866667 0 0.0004 0.00866667 0 0.0008 0.00866667 0 0.0012 0.00866667 0 0.0016 0.00866667 0 0.002 0.00866667 0 0.0024 0.00866667 0 0.0028 0.00866667 0 0.0032 0.00866667 0 0.0036 0.00866667 0 0.004 0.00866667 0 0.0044 0.00866667 0 0.0048 0.00866667 0 0.0052 0.00866667 0 0.0056 0.00866667 0 0.006 0.00866667 0 0 0.00933333 0 0.0004 0.00933333 0 0.0008 0.00933333 0 0.0012 0.00933333 0 0.0016 0.00933333 0 0.002 0.00933333 0 0.0024 0.00933333 0 0.0028 0.00933333 0 0.0032 0.00933333 0 0.0036 0.00933333 0 0.004 0.00933333 0 0.0044 0.00933333 0 0.0048 0.00933333 0 0.0052 0.00933333 0 0.0056 0.00933333 0 0.006 0.00933333 0 0 0.01 0 0.0004 0.01 0 0.0008 0.01 0 0.0012 0.01 0 0.0016 0.01 0 0.002 0.01 0 0.0024 0.01 0 0.0028 0.01 0 0.0032 0.01 0 0.0036 0.01 0 0.004 0.01 0 0.0044 0.01 0 0.0048 0.01 0 0.0052 0.01 0 0.0056 0.01 0 0.006 0.01 0 
</DataArray>
</Points> 
</Piece> 
</StructuredGrid> 
</VTKFile> 
