<?xml version="1.0"?> 
<VTKFile type="StructuredGrid" version="0.1"> 
<StructuredGrid WholeExtent="0 15 0 15 0 0"> 
<Piece Extent="0 15 0 15 0 0"> 
<PointData>
<DataArray type="Float32" Name="|E|" format="ascii" NumberOfComponents="3"> 
-1.19209e-07 4.95416e+06 0 -2.21189e-09 1.36171e+06 0 -9.59262e-08 297098 0 2.27243e-07 93848.8 0 -3.5204e-07 95912.5 0 4.41447e-07 96419.6 0 -3.72529e-07 58572.9 0 4.20958e-07 2919.86 0 -2.5332e-07 -30101.5 0 8.9407e-08 -15794 0 1.04308e-07 9877.05 0 -4.47035e-08 10920.4 0 1.49012e-08 1751.93 0 -2.98023e-08 -8988.02 0 5.96046e-08 -1734.08 0 -9.53674e-07 -0.00146484 0 -2.06206e+06 1.13781e+06 0 -2.0267e+06 1.01335e+06 0 -1.53897e+06 959757 0 -1.00954e+06 773904 0 -582209 498459 0 -284522 239581 0 -107637 68349.8 0 -28898.3 -6123.65 0 -10437.6 -17175.5 0 -8427.04 -4451.35 0 -1003.98 8012.44 0 2204.78 2423.63 0 1192.12 -3630.86 0 -436.148 -2325.61 0 -925.764 -1699.39 0 -612.758 -12229.7 0 -2.50922e+06 1.0611e+06 0 -2.34112e+06 1.12454e+06 0 -2.34564e+06 913429 0 -2.18885e+06 751079 0 -1.83674e+06 611051 0 -1.36325e+06 432843 0 -865443 226381 0 -438388 52253.8 0 -155758 -40824.4 0 -32912.9 -54278.6 0 -9283.23 -25981.2 0 -4350.44 7536.44 0 1088.51 13469.2 0 1959.95 -417.72 0 4733.69 20936.7 0 658.017 6384.73 0 -2.43285e+06 1.60419e+06 0 -2.54547e+06 1.38147e+06 0 -2.51994e+06 1.29761e+06 0 -2.53485e+06 1.10717e+06 0 -2.51831e+06 872799 0 -2.36661e+06 643701 0 -2.02538e+06 412930 0 -1.5114e+06 176897 0 -920171 -22193.5 0 -408052 -124482 0 -107845 -118950 0 -15003.3 -60594.8 0 -4508.97 -6018.42 0 7042.8 42702.7 0 -2136.86 -14469.7 0 3003.48 18717.3 0 -2.46962e+06 1.73239e+06 0 -2.48746e+06 1.70192e+06 0 -2.56351e+06 1.58038e+06 0 -2.59397e+06 1.48493e+06 0 -2.62547e+06 1.33424e+06 0 -2.66371e+06 1.10985e+06 0 -2.64504e+06 839591 0 -2.47023e+06 540019 0 -2.05926e+06 219555 0 -1.42463e+06 -70617.9 0 -730305 -228300 0 -226747 -198951 0 -23965.7 -72436 0 -17370.7 -57278.7 0 -5533.53 -3718.31 0 -7380.62 -32957.3 0 -2.34416e+06 1.95656e+06 0 -2.41012e+06 1.89075e+06 0 -2.46223e+06 1.83117e+06 0 -2.5389e+06 1.73354e+06 0 -2.60126e+06 1.63702e+06 0 -2.65275e+06 1.51105e+06 0 -2.71132e+06 1.31928e+06 0 -2.75739e+06 1.0593e+06 0 -2.70694e+06 736918 0 -2.42844e+06 345915 0 -1.83409e+06 -72395.9 0 -1.03144e+06 -347680 0 -343658 -290999 0 25396.2 75379.1 0 8008.95 19104.8 0 -15538.8 -52536 0 -2.26343e+06 2.03396e+06 0 -2.31205e+06 2.00971e+06 0 -2.36817e+06 1.97488e+06 0 -2.42556e+06 1.9267e+06 0 -2.50101e+06 1.84819e+06 0 -2.57967e+06 1.75634e+06 0 -2.65108e+06 1.64023e+06 0 -2.7234e+06 1.46732e+06 0 -2.79608e+06 1.22439e+06 0 -2.8129e+06 909203 0 -2.63188e+06 481773 0 -2.08968e+06 -69043.7 0 -1.22126e+06 -490945 0 -393122 -375060 0 211939 504928 0 25610.7 67527.8 0 -2.15883e+06 2.10455e+06 0 -2.20892e+06 2.08912e+06 0 -2.266e+06 2.06257e+06 0 -2.3269e+06 2.03286e+06 0 -2.39022e+06 1.99195e+06 0 -2.46631e+06 1.92689e+06 0 -2.55299e+06 1.84335e+06 0 -2.64082e+06 1.73403e+06 0 -2.7292e+06 1.56702e+06 0 -2.81851e+06 1.3251e+06 0 -2.86651e+06 1.01101e+06 0 -2.73122e+06 545549 0 -2.18119e+06 -131050 0 -1.21015e+06 -615790 0 -272261 -289174 0 -134809 -281183 0 -2.06934e+06 2.12801e+06 0 -2.11656e+06 2.12587e+06 0 -2.16694e+06 2.11981e+06 0 -2.22578e+06 2.10092e+06 0 -2.29125e+06 2.07551e+06 0 -2.36168e+06 2.03841e+06 0 -2.44252e+06 1.97936e+06 0 -2.53614e+06 1.90006e+06 0 -2.63745e+06 1.79449e+06 0 -2.7437e+06 1.62581e+06 0 -2.85006e+06 1.36992e+06 0 -2.91532e+06 1.03025e+06 0 -2.77203e+06 475658 0 -2.09653e+06 -330724 0 -933755 -672716 0 -129032 -213502 0 -1.98149e+06 2.13418e+06 0 -2.02763e+06 2.1414e+06 0 -2.07888e+06 2.14292e+06 0 -2.13367e+06 2.14058e+06 0 -2.19581e+06 2.1276e+06 0 -2.26617e+06 2.10634e+06 0 -2.34422e+06 2.07243e+06 0 -2.43338e+06 2.01548e+06 0 -2.53702e+06 1.93448e+06 0 -2.65304e+06 1.82494e+06 0 -2.78049e+06 1.64159e+06 0 -2.90667e+06 1.35603e+06 0 -2.9838e+06 946289 0 -2.73803e+06 211960 0 -1.75843e+06 -684625 0 -291888 -380105 0 -1.89982e+06 2.12229e+06 0 -1.94555e+06 2.13805e+06 0 -1.99508e+06 2.15004e+06 0 -2.05019e+06 2.1563e+06 0 -2.11042e+06 2.15709e+06 0 -2.17812e+06 2.14774e+06 0 -2.25531e+06 2.12861e+06 0 -2.34249e+06 2.09616e+06 0 -2.44356e+06 2.0383e+06 0 -2.56137e+06 1.95182e+06 0 -2.69813e+06 1.82807e+06 0 -2.85167e+06 1.61061e+06 0 -3.00961e+06 1.2653e+06 0 -3.06598e+06 697363 0 -2.53314e+06 -373279 0 -776528 -779519 0 -1.8223e+06 2.09832e+06 0 -1.86832e+06 2.12206e+06 0 -1.91817e+06 2.1423e+06 0 -1.97237e+06 2.15832e+06 0 -2.03256e+06 2.16865e+06 0 -2.09925e+06 2.17241e+06 0 -2.17473e+06 2.16532e+06 0 -2.26141e+06 2.14638e+06 0 -2.36116e+06 2.11193e+06 0 -2.47888e+06 2.04843e+06 0 -2.6179e+06 1.95121e+06 0 -2.78493e+06 1.79886e+06 0 -2.97792e+06 1.51696e+06 0 -3.18277e+06 1.05233e+06 0 -3.10358e+06 80636.5 0 -1.66385e+06 -1.23734e+06 0 -1.74841e+06 2.06521e+06 0 -1.79539e+06 2.09659e+06 0 -1.84594e+06 2.12498e+06 0 -1.9008e+06 2.14959e+06 0 -1.96089e+06 2.16922e+06 0 -2.02783e+06 2.18259e+06 0 -2.1028e+06 2.18833e+06 0 -2.18874e+06 2.18199e+06 0 -2.2884e+06 2.16151e+06 0 -2.40609e+06 2.12095e+06 0 -2.54744e+06 2.04563e+06 0 -2.72036e+06 1.92801e+06 0 -2.93341e+06 1.71909e+06 0 -3.20408e+06 1.324e+06 0 -3.44652e+06 527146 0 -2.79293e+06 -1.42716e+06 0 -1.67756e+06 2.02509e+06 0 -1.72613e+06 2.06418e+06 0 -1.778e+06 2.10055e+06 0 -1.83398e+06 2.13348e+06 0 -1.89499e+06 2.16208e+06 0 -1.96245e+06 2.1848e+06 0 -2.03816e+06 2.20024e+06 0 -2.12423e+06 2.20632e+06 0 -2.2243e+06 2.19864e+06 0 -2.34262e+06 2.17359e+06 0 -2.48593e+06 2.12183e+06 0 -2.66425e+06 2.02637e+06 0 -2.89059e+06 1.86933e+06 0 -3.19472e+06 1.55157e+06 0 -3.621e+06 905896 0 -3.88339e+06 -1.1586e+06 0 -1.60919e+06 1.97966e+06 0 -1.65991e+06 2.02674e+06 0 -1.71373e+06 2.07122e+06 0 -1.7714e+06 2.11241e+06 0 -1.83397e+06 2.14946e+06 0 -1.90269e+06 2.18131e+06 0 -1.97949e+06 2.20627e+06 0 -2.06677e+06 2.22244e+06 0 -2.16785e+06 2.22703e+06 0 -2.28784e+06 2.21509e+06 0 -2.43344e+06 2.18116e+06 0 -2.61635e+06 2.11037e+06 0 -2.85502e+06 1.98269e+06 0 -3.18212e+06 1.74185e+06 0 -3.70188e+06 1.22012e+06 0 -4.6848e+06 -469722 0 -1.5429e+06 1.93017e+06 0 -1.59634e+06 1.98562e+06 0 -1.65265e+06 2.03846e+06 0 -1.7126e+06 2.08805e+06 0 -1.7772e+06 2.13361e+06 0 -1.84784e+06 2.17412e+06 0 -1.9264e+06 2.2081e+06 0 -2.01537e+06 2.23396e+06 0 -2.11843e+06 2.24895e+06 0 -2.24046e+06 2.24973e+06 0 -2.38964e+06 2.22988e+06 0 -2.57726e+06 2.18067e+06 0 -2.82612e+06 2.08085e+06 0 -3.17679e+06 1.8934e+06 0 -3.74739e+06 1.49389e+06 0 -5.05301e+06 441597 0 </DataArray> 
</PointData> 
<Points> 
<DataArray type="Float32" NumberOfComponents="3"> 
0.1 0.045 0 0.100867 0.045 0 0.101733 0.045 0 0.1026 0.045 0 0.103467 0.045 0 0.104333 0.045 0 0.1052 0.045 0 0.106067 0.045 0 0.106933 0.045 0 0.1078 0.045 0 0.108667 0.045 0 0.109533 0.045 0 0.1104 0.045 0 0.111267 0.045 0 0.112133 0.045 0 0.113 0.045 0 0.0978533 0.0464889 0 0.0987486 0.046395 0 0.0996482 0.0463007 0 0.100552 0.0462059 0 0.101461 0.0461107 0 0.102374 0.046015 0 0.103291 0.0459188 0 0.104213 0.0458221 0 0.105139 0.045725 0 0.106071 0.0456274 0 0.107006 0.0455292 0 0.107947 0.0454306 0 0.108892 0.0453315 0 0.109842 0.045232 0 0.110796 0.0451319 0 0.111756 0.0450313 0 0.0957067 0.0479778 0 0.0966294 0.0477999 0 0.0975605 0.0476203 0 0.0985001 0.0474392 0 0.0994484 0.0472563 0 0.100405 0.0470718 0 0.101371 0.0468855 0 0.102346 0.0466976 0 0.10333 0.0465078 0 0.104324 0.0463163 0 0.105326 0.046123 0 0.106339 0.0459278 0 0.10736 0.0457308 0 0.108392 0.0455319 0 0.109434 0.045331 0 0.110485 0.0451282 0 0.09356 0.0494667 0 0.0945113 0.0492131 0 0.0954747 0.0489563 0 0.0964504 0.0486963 0 0.0974385 0.0484329 0 0.0984394 0.0481661 0 0.0994533 0.0478959 0 0.10048 0.0476221 0 0.101521 0.0473448 0 0.102576 0.0470637 0 0.103644 0.0467789 0 0.104727 0.0464903 0 0.105824 0.0461978 0 0.106937 0.0459013 0 0.108064 0.0456008 0 0.109207 0.0452961 0 0.0914133 0.0509556 0 0.0923967 0.0506333 0 0.0933952 0.050306 0 0.0944094 0.0499737 0 0.0954396 0.0496361 0 0.0964861 0.0492931 0 0.0975494 0.0489446 0 0.0986298 0.0485905 0 0.0997278 0.0482307 0 0.100844 0.047865 0 0.101978 0.0474932 0 0.103132 0.0471152 0 0.104304 0.0467308 0 0.105497 0.04634 0 0.10671 0.0459424 0 0.107944 0.045538 0 0.0892667 0.0524444 0 0.0902876 0.052059 0 0.0913265 0.0516667 0 0.0923839 0.0512675 0 0.0934604 0.050861 0 0.0945564 0.0504472 0 0.0956724 0.0500259 0 0.0968091 0.0495967 0 0.097967 0.0491595 0 0.0991467 0.0487141 0 0.100349 0.0482602 0 0.101574 0.0477977 0 0.102823 0.0473261 0 0.104096 0.0468453 0 0.105395 0.0463551 0 0.106719 0.045855 0 0.08712 0.0539333 0 0.0881863 0.0534887 0 0.089273 0.0530356 0 0.0903806 0.0525737 0 0.0915098 0.0521028 0 0.0926613 0.0516227 0 0.0938355 0.0511331 0 0.0950334 0.0506336 0 0.0962555 0.050124 0 0.0975027 0.0496039 0 0.0987756 0.0490731 0 0.100075 0.0485313 0 0.101402 0.0479779 0 0.102757 0.0474128 0 0.104142 0.0468354 0 0.105557 0.0462455 0 0.0849733 0.0554222 0 0.0860951 0.0549209 0 0.0872391 0.0544097 0 0.0884061 0.0538882 0 0.0895966 0.0533562 0 0.0908114 0.0528133 0 0.0920514 0.0522592 0 0.0933172 0.0516936 0 0.0946096 0.051116 0 0.0959297 0.0505261 0 0.0972781 0.0499236 0 0.0986559 0.0493079 0 0.100064 0.0486786 0 0.101503 0.0480354 0 0.102975 0.0473776 0 0.104481 0.046705 0 0.0828267 0.0569111 0 0.0840162 0.0563542 0 0.0852293 0.0557862 0 0.0864667 0.0552068 0 0.0877291 0.0546158 0 0.0890173 0.0540126 0 0.0903321 0.053397 0 0.0916743 0.0527686 0 0.0930449 0.0521269 0 0.0944446 0.0514716 0 0.0958744 0.0508021 0 0.0973354 0.0501181 0 0.0988286 0.049419 0 0.100355 0.0487043 0 0.101916 0.0479736 0 0.103512 0.0472263 0 0.08068 0.0584 0 0.0819517 0.0577869 0 0.0832477 0.0571622 0 0.0845687 0.0565253 0 0.0859154 0.0558761 0 0.0872887 0.0552141 0 0.0886891 0.0545389 0 0.0901177 0.0538502 0 0.0915753 0.0531476 0 0.0930626 0.0524306 0 0.0945808 0.0516987 0 0.0961306 0.0509515 0 0.0977132 0.0501886 0 0.0993296 0.0494094 0 0.100981 0.0486133 0 0.102668 0.0477999 0 0.0785333 0.0598889 0 0.0799038 0.0592177 0 0.0812986 0.0585346 0 0.0827181 0.0578394 0 0.0841632 0.0571317 0 0.0856346 0.0564111 0 0.0871328 0.0556774 0 0.0886588 0.0549301 0 0.0902132 0.0541688 0 0.0917968 0.0533932 0 0.0934106 0.0526029 0 0.0950553 0.0517974 0 0.0967319 0.0509763 0 0.0984413 0.0501391 0 0.100185 0.0492854 0 0.101962 0.0484147 0 0.0763867 0.0613778 0 0.0778747 0.060645 0 0.0793858 0.0599008 0 0.0809205 0.059145 0 0.0824795 0.0583773 0 0.0840631 0.0575973 0 0.0856722 0.0568049 0 0.0873071 0.0559998 0 0.0889687 0.0551815 0 0.0906576 0.0543498 0 0.0923743 0.0535043 0 0.0941197 0.0526448 0 0.0958944 0.0517708 0 0.0976993 0.0508819 0 0.099535 0.0499779 0 0.101402 0.0490583 0 0.07424 0.0628667 0 0.0758663 0.0620673 0 0.0775133 0.0612577 0 0.0791812 0.0604379 0 0.0808704 0.0596076 0 0.0825815 0.0587665 0 0.0843148 0.0579145 0 0.0860707 0.0570514 0 0.0878498 0.056177 0 0.0896524 0.0552909 0 0.091479 0.0543931 0 0.0933301 0.0534832 0 0.0952062 0.052561 0 0.0971079 0.0516263 0 0.0990356 0.0506787 0 0.10099 0.0497181 0 0.0720933 0.0643556 0 0.0738808 0.0634831 0 0.0756845 0.0626027 0 0.0775048 0.0617143 0 0.0793417 0.0608177 0 0.0811957 0.0599128 0 0.0830668 0.0589995 0 0.0849554 0.0580777 0 0.0868616 0.0571473 0 0.0887858 0.0562081 0 0.0907282 0.05526 0 0.092689 0.054303 0 0.0946685 0.0533368 0 0.0966671 0.0523613 0 0.0986848 0.0513765 0 0.100722 0.0503821 0 0.0699467 0.0658444 0 0.07192 0.0648911 0 0.073903 0.063933 0 0.0758956 0.0629703 0 0.0778981 0.0620029 0 0.0799104 0.0610307 0 0.0819326 0.0600537 0 0.0839648 0.0590719 0 0.0860071 0.0580852 0 0.0880596 0.0570936 0 0.0901223 0.0560971 0 0.0921952 0.0550955 0 0.0942786 0.054089 0 0.0963724 0.0530775 0 0.0984767 0.0520608 0 0.100592 0.051039 0 0.0678 0.0673333 0 0.0699858 0.0662897 0 0.0721717 0.0652461 0 0.0743575 0.0642025 0 0.0765434 0.0631589 0 0.0787292 0.0621153 0 0.0809151 0.0610717 0 0.0831009 0.0600281 0 0.0852868 0.0589845 0 0.0874726 0.0579409 0 0.0896584 0.0568973 0 0.0918443 0.0558537 0 0.0940301 0.0548101 0 0.096216 0.0537665 0 0.0984018 0.0527229 0 0.100588 0.0516793 0 
</DataArray>
</Points> 
</Piece> 
</StructuredGrid> 
</VTKFile> 
