<?xml version="1.0"?> 
<VTKFile type="StructuredGrid" version="0.1"> 
<StructuredGrid WholeExtent="0 15 0 15 0 0"> 
<Piece Extent="0 15 0 15 0 0"> 
<PointData>
<DataArray type="Float32" Name="E" format="ascii" NumberOfComponents="3"> 
2.05327e+06 -842070 0 2.11868e+06 -868896 0 2.18156e+06 -894684 0 2.24382e+06 -920218 0 2.30679e+06 -946042 0 2.37151e+06 -972587 0 2.43898e+06 -1.00025e+06 0 2.5102e+06 -1.02947e+06 0 2.58639e+06 -1.06071e+06 0 2.66903e+06 -1.0946e+06 0 2.76022e+06 -1.132e+06 0 2.86336e+06 -1.1743e+06 0 2.98476e+06 -1.22409e+06 0 3.13765e+06 -1.28679e+06 0 3.35052e+06 -1.37409e+06 0 3.68428e+06 -1.51097e+06 0 2.26602e+06 -665193 0 2.31358e+06 -691046 0 2.36478e+06 -714960 0 2.41969e+06 -736814 0 2.47861e+06 -756450 0 2.54205e+06 -773610 0 2.61066e+06 -787855 0 2.68525e+06 -798470 0 2.76678e+06 -804324 0 2.85627e+06 -803666 0 2.95465e+06 -793857 0 3.06243e+06 -771097 0 3.17907e+06 -730323 0 3.30165e+06 -665775 0 3.42274e+06 -573274 0 3.52656e+06 -455496 0 2.41934e+06 -489875 0 2.45817e+06 -508839 0 2.501e+06 -524761 0 2.54793e+06 -537097 0 2.59901e+06 -545149 0 2.65421e+06 -548049 0 2.71341e+06 -544729 0 2.77626e+06 -533890 0 2.84204e+06 -514027 0 2.90951e+06 -483529 0 2.97672e+06 -440934 0 3.04087e+06 -385365 0 3.09841e+06 -317096 0 3.14548e+06 -237840 0 3.17889e+06 -149686 0 3.19788e+06 -50431 0 2.50888e+06 -322372 0 2.5394e+06 -333229 0 2.57316e+06 -340642 0 2.60995e+06 -343810 0 2.6494e+06 -341886 0 2.69097e+06 -333994 0 2.73381e+06 -319269 0 2.77682e+06 -296937 0 2.81854e+06 -266435 0 2.85724e+06 -227568 0 2.89098e+06 -180648 0 2.91779e+06 -126537 0 2.93602e+06 -66512.8 0 2.94444e+06 -2075.33 0 2.94237e+06 64597.1 0 2.92935e+06 127595 0 2.5393e+06 -180505 0 2.56225e+06 -184965 0 2.58716e+06 -186068 0 2.61363e+06 -183161 0 2.64108e+06 -175600 0 2.66873e+06 -162813 0 2.69563e+06 -144374 0 2.72062e+06 -120083 0 2.74241e+06 -90033.7 0 2.75967e+06 -54668.9 0 2.77116e+06 -14795.9 0 2.77588e+06 28411.6 0 2.77316e+06 73401 0 2.76278e+06 118240 0 2.74502e+06 161041 0 2.72076e+06 202420 0 2.52874e+06 -76404.6 0 2.54512e+06 -76071.9 0 2.56233e+06 -73059.1 0 2.57992e+06 -66854.8 0 2.5973e+06 -57046.2 0 2.61373e+06 -43349.3 0 2.6283e+06 -25653.1 0 2.64008e+06 -4065.34 0 2.64813e+06 21040.4 0 2.65165e+06 48995.8 0 2.65e+06 78854.3 0 2.64276e+06 109476 0 2.62982e+06 139697 0 2.61137e+06 168559 0 2.58783e+06 195354 0 2.55973e+06 218260 0 2.49578e+06 -10780.8 0 2.50664e+06 -7238.88 0 2.51758e+06 -1806.53 0 2.52813e+06 5826.59 0 2.53773e+06 15896 0 2.54576e+06 28521.1 0 2.55157e+06 43633.3 0 2.55452e+06 60935.7 0 2.55398e+06 79916.3 0 2.54941e+06 99910.2 0 2.54046e+06 120171 0 2.52703e+06 139916 0 2.50932e+06 158319 0 2.48773e+06 174466 0 2.46283e+06 187379 0 2.43533e+06 196872 0 2.45474e+06 20275.8 0 2.46074e+06 25794.9 0 2.46639e+06 32518 0 2.47132e+06 40608.6 0 2.47509e+06 50071.5 0 2.47719e+06 60792.8 0 2.47703e+06 72571.8 0 2.47411e+06 85143.3 0 2.46803e+06 98150.8 0 2.45864e+06 111084 0 2.44593e+06 123247 0 2.43004e+06 133825 0 2.41115e+06 142041 0 2.38955e+06 147358 0 2.36565e+06 149605 0 2.33996e+06 148498 0 2.41527e+06 22391.9 0 2.417e+06 29022.3 0 2.41827e+06 36014 0 2.41865e+06 43430.3 0 2.41773e+06 51326 0 2.41514e+06 59697.9 0 2.41064e+06 68361.4 0 2.40399e+06 76880.9 0 2.39499e+06 84621.6 0 2.38343e+06 90917.4 0 2.3692e+06 95257.6 0 2.35237e+06 97362.9 0 2.3333e+06 97093.3 0 2.31256e+06 94244 0 2.29079e+06 88377.5 0 2.26857e+06 78993.3 0 2.3853e+06 -1397.61 0 2.3825e+06 5154.03 0 2.3793e+06 11976.8 0 2.37551e+06 18899 0 2.37088e+06 25519.5 0 2.36505e+06 31356.4 0 2.35764e+06 36004.6 0 2.3483e+06 39258.8 0 2.33689e+06 41097 0 2.32355e+06 41500.6 0 2.30863e+06 40213.1 0 2.29256e+06 36614.4 0 2.27564e+06 29831 0 2.25801e+06 19066.6 0 2.2397e+06 3984.71 0 2.22079e+06 -15257.8 0 2.37145e+06 -46658.3 0 2.36438e+06 -41101.7 0 2.35718e+06 -36493.1 0 2.34945e+06 -32778.3 0 2.34092e+06 -29790.6 0 2.33145e+06 -27372 0 2.32107e+06 -25610.1 0 2.30988e+06 -25016.4 0 2.29792e+06 -26521.7 0 2.28511e+06 -31232.2 0 2.27127e+06 -40027.4 0 2.25623e+06 -53198.5 0 2.2401e+06 -70344.4 0 2.22335e+06 -90620.1 0 2.20677e+06 -113226 0 2.19122e+06 -137942 0 2.38423e+06 -122837 0 2.37111e+06 -118620 0 2.35836e+06 -114417 0 2.34596e+06 -110917 0 2.33379e+06 -109107 0 2.3216e+06 -110021 0 2.30904e+06 -114449 0 2.29576e+06 -122678 0 2.28166e+06 -134385 0 2.26691e+06 -148796 0 2.25207e+06 -165088 0 2.23784e+06 -182891 0 2.22488e+06 -202653 0 2.21346e+06 -225671 0 2.20336e+06 -253731 0 2.19392e+06 -288610 0 2.43557e+06 -223588 0 2.41629e+06 -225859 0 2.39794e+06 -230292 0 2.38018e+06 -236545 0 2.36284e+06 -244113 0 2.34593e+06 -252472 0 2.32965e+06 -261361 0 2.31425e+06 -271063 0 2.29995e+06 -282578 0 2.2867e+06 -297580 0 2.27422e+06 -318118 0 2.26198e+06 -346101 0 2.24945e+06 -382749 0 2.23636e+06 -428158 0 2.22299e+06 -481137 0 2.21025e+06 -539468 0 2.54901e+06 -401851 0 2.52206e+06 -403039 0 2.49573e+06 -405490 0 2.47028e+06 -410217 0 2.44583e+06 -418569 0 2.42238e+06 -432041 0 2.39987e+06 -452056 0 2.37826e+06 -479696 0 2.35763e+06 -515471 0 2.33831e+06 -559196 0 2.32091e+06 -610015 0 2.30628e+06 -666631 0 2.29531e+06 -727676 0 2.28865e+06 -792183 0 2.28635e+06 -860140 0 2.28746e+06 -933567 0 2.7523e+06 -593856 0 2.72099e+06 -628528 0 2.69302e+06 -665782 0 2.66851e+06 -706514 0 2.64751e+06 -751687 0 2.6298e+06 -802271 0 2.61482e+06 -859222 0 2.60152e+06 -923463 0 2.58828e+06 -995860 0 2.57288e+06 -1.0772e+06 0 2.5525e+06 -1.16816e+06 0 2.52384e+06 -1.26921e+06 0 2.48334e+06 -1.38053e+06 0 2.42744e+06 -1.50161e+06 0 2.35299e+06 -1.63031e+06 0 2.25781e+06 -1.75924e+06 0 3.58602e+06 -7.45058e-09 0 3.79582e+06 -365846 0 3.91511e+06 -775709 0 3.94395e+06 -1.21229e+06 0 3.88399e+06 -1.65821e+06 0 3.73903e+06 -2.09633e+06 0 3.51534e+06 -2.51011e+06 0 3.22175e+06 -2.88427e+06 0 2.86949e+06 -3.20525e+06 0 2.47168e+06 -3.46152e+06 0 2.04268e+06 -3.64334e+06 0 1.5973e+06 -3.74131e+06 0 1.15025e+06 -3.74214e+06 0 716571 -3.61663e+06 0 315971 -3.27834e+06 0 2.84985e-07 -2.35742e+06 0 </DataArray> 
</PointData> 
<Points> 
<DataArray type="Float32" NumberOfComponents="3"> 
0.3115 0.02 0 0.311987 0.0211867 0 0.312473 0.0223733 0 0.31296 0.02356 0 0.313447 0.0247467 0 0.313933 0.0259333 0 0.31442 0.02712 0 0.314907 0.0283067 0 0.315393 0.0294933 0 0.31588 0.03068 0 0.316367 0.0318667 0 0.316853 0.0330533 0 0.31734 0.03424 0 0.317827 0.0354267 0 0.318313 0.0366133 0 0.3188 0.0378 0 0.316933 0.0203333 0 0.317205 0.0214631 0 0.317507 0.022598 0 0.31784 0.0237369 0 0.318203 0.0248785 0 0.318596 0.0260218 0 0.319019 0.0271654 0 0.319471 0.0283083 0 0.319952 0.0294492 0 0.320461 0.0305868 0 0.320999 0.0317201 0 0.321563 0.0328478 0 0.322155 0.0339688 0 0.322772 0.0350819 0 0.323414 0.036186 0 0.32408 0.03728 0 0.322367 0.0206667 0 0.322449 0.0217409 0 0.322587 0.0228247 0 0.322781 0.023916 0 0.323033 0.0250124 0 0.323341 0.0261118 0 0.323705 0.0272117 0 0.324125 0.02831 0 0.324601 0.0294041 0 0.32513 0.0304919 0 0.325713 0.031571 0 0.326347 0.0326391 0 0.32703 0.0336942 0 0.327762 0.034734 0 0.328539 0.0357566 0 0.32936 0.03676 0 0.3278 0.021 0 0.327718 0.0220201 0 0.327713 0.0230535 0 0.327786 0.0240974 0 0.327938 0.0251484 0 0.32817 0.0262034 0 0.328482 0.0272589 0 0.328873 0.0283117 0 0.329343 0.0293582 0 0.329889 0.0303951 0 0.330511 0.0314192 0 0.331205 0.0324272 0 0.331968 0.033416 0 0.332797 0.0343829 0 0.333689 0.035325 0 0.33464 0.03624 0 0.333233 0.0213333 0 0.333013 0.0223006 0 0.332886 0.0232844 0 0.332854 0.0242811 0 0.33292 0.0252865 0 0.333086 0.0262966 0 0.333352 0.027307 0 0.333717 0.0283134 0 0.334181 0.0293113 0 0.334741 0.0302964 0 0.335395 0.0312646 0 0.336139 0.0322119 0 0.336969 0.0331343 0 0.337879 0.0340286 0 0.338865 0.0348914 0 0.33992 0.03572 0 0.338667 0.0216667 0 0.338334 0.0225825 0 0.338107 0.0235174 0 0.337988 0.0244671 0 0.337982 0.0254269 0 0.338092 0.0263916 0 0.338317 0.0273561 0 0.33866 0.0283152 0 0.339118 0.0292635 0 0.339688 0.0301958 0 0.340368 0.0311073 0 0.341152 0.0319931 0 0.342034 0.032849 0 0.343008 0.033671 0 0.344066 0.0344556 0 0.3452 0.0352 0 0.3441 0.022 0 0.343682 0.0228658 0 0.343376 0.0237526 0 0.343189 0.0246556 0 0.343125 0.0255694 0 0.343189 0.0264883 0 0.343382 0.0274061 0 0.343705 0.028317 0 0.344156 0.0292146 0 0.344734 0.0300932 0 0.345432 0.0309471 0 0.346245 0.0317709 0 0.347166 0.03256 0 0.348185 0.0333101 0 0.349293 0.0340177 0 0.35048 0.03468 0 0.349533 0.0223333 0 0.349056 0.0231505 0 0.348694 0.02399 0 0.348457 0.0248466 0 0.348351 0.0257143 0 0.34838 0.0265867 0 0.348548 0.0274572 0 0.348855 0.0283188 0 0.3493 0.0291648 0 0.34988 0.0299886 0 0.35059 0.0307839 0 0.35142 0.0315451 0 0.352364 0.0322672 0 0.35341 0.0329458 0 0.354546 0.0335776 0 0.35576 0.03416 0 0.354967 0.0226667 0 0.354456 0.0234366 0 0.354063 0.0242296 0 0.353795 0.0250401 0 0.353661 0.0258615 0 0.353668 0.026687 0 0.353818 0.0275092 0 0.354113 0.0283207 0 0.354552 0.0291139 0 0.355131 0.0298818 0 0.355843 0.0306177 0 0.35668 0.0313156 0 0.357631 0.0319705 0 0.358683 0.0325781 0 0.359824 0.0331353 0 0.36104 0.03364 0 0.3604 0.023 0 0.359884 0.0237241 0 0.359481 0.0244715 0 0.359203 0.0252361 0 0.359059 0.0260112 0 0.359055 0.0267892 0 0.359197 0.0275624 0 0.359484 0.0283226 0 0.359917 0.0290619 0 0.36049 0.0297728 0 0.361196 0.0304484 0 0.362026 0.0310824 0 0.362967 0.0316699 0 0.364006 0.032207 0 0.365129 0.0326908 0 0.36632 0.03312 0 0.365833 0.0233333 0 0.365338 0.024013 0 0.364951 0.0247156 0 0.364684 0.0254347 0 0.364546 0.0261633 0 0.364545 0.0268934 0 0.364686 0.0276166 0 0.36497 0.0283246 0 0.365396 0.0290088 0 0.365959 0.0296616 0 0.36665 0.0302758 0 0.36746 0.0308453 0 0.368375 0.0313653 0 0.36938 0.0318323 0 0.37046 0.0322442 0 0.3716 0.0326 0 0.371267 0.0236667 0 0.37082 0.0243034 0 0.370473 0.0249621 0 0.370238 0.0256361 0 0.370125 0.0263179 0 0.370141 0.0269995 0 0.370291 0.027672 0 0.370576 0.0283266 0 0.370995 0.0289546 0 0.371542 0.0295481 0 0.372209 0.0300999 0 0.372985 0.0306042 0 0.373855 0.0310566 0 0.374805 0.0314541 0 0.375818 0.0317952 0 0.37688 0.03208 0 0.3767 0.024 0 0.376329 0.0245953 0 0.376048 0.0252109 0 0.375867 0.0258401 0 0.375797 0.0264752 0 0.375845 0.0271077 0 0.376014 0.0277285 0 0.376305 0.0283286 0 0.376717 0.0288992 0 0.377244 0.0294321 0 0.377876 0.0299206 0 0.378602 0.0303591 0 0.379409 0.0307438 0 0.380281 0.0310723 0 0.381203 0.0313441 0 0.38216 0.03156 0 0.382133 0.0243333 0 0.381866 0.0248886 0 0.381676 0.0254621 0 0.381573 0.0260469 0 0.381566 0.0266351 0 0.38166 0.027218 0 0.381858 0.0277863 0 0.382162 0.0283307 0 0.382567 0.0288425 0 0.383067 0.0293137 0 0.383654 0.0297378 0 0.384315 0.0301099 0 0.385039 0.0304267 0 0.38581 0.0306868 0 0.386615 0.0308907 0 0.38744 0.03104 0 0.387567 0.0246667 0 0.38743 0.0251834 0 0.387358 0.0257157 0 0.387357 0.0262565 0 0.387433 0.0267978 0 0.38759 0.0273305 0 0.38783 0.0278453 0 0.38815 0.0283328 0 0.388548 0.0287845 0 0.389016 0.0291927 0 0.389545 0.0295514 0 0.390126 0.0298563 0 0.390745 0.0301052 0 0.391392 0.0302976 0 0.392054 0.0304349 0 0.39272 0.03052 0 0.393 0.025 0 0.393023 0.0254797 0 0.393095 0.0259718 0 0.393221 0.0264691 0 0.393402 0.0269632 0 0.393639 0.0274452 0 0.393931 0.0279055 0 0.394275 0.028335 0 0.394665 0.0287253 0 0.395094 0.0290691 0 0.395555 0.0293613 0 0.396037 0.0295984 0 0.396531 0.0297793 0 0.397028 0.0299047 0 0.39752 0.0299769 0 0.398 0.03 0 
</DataArray>
</Points> 
</Piece> 
</StructuredGrid> 
</VTKFile> 
