<?xml version="1.0"?> 
<VTKFile type="StructuredGrid" version="0.1"> 
<StructuredGrid WholeExtent="0 15 0 15 0 0"> 
<Piece Extent="0 15 0 15 0 0"> 
<PointData>
<DataArray type="Float32" Name="E" format="ascii" NumberOfComponents="3"> 
1.73763e+06 2.38419e-06 0 1.73711e+06 -3.10363e-07 0 1.73556e+06 1.31316e-07 0 1.73296e+06 1.50874e-07 0 1.72925e+06 -1.9744e-07 0 1.72436e+06 1.3411e-07 0 1.71819e+06 4.69387e-07 0 1.7106e+06 -6.25849e-07 0 1.70143e+06 5.06639e-07 0 1.69046e+06 -5.36442e-07 0 1.67741e+06 5.36442e-07 0 1.66195e+06 -5.06639e-07 0 1.64364e+06 3.27826e-07 0 1.62194e+06 -8.9407e-08 0 1.59619e+06 -1.78814e-07 0 1.56553e+06 7.15256e-07 0 1.8375e+06 -8.32282 0 1.8376e+06 -9948.24 0 1.8375e+06 -19933.3 0 1.8372e+06 -29998.7 0 1.83671e+06 -40178.5 0 1.83605e+06 -50504.5 0 1.83524e+06 -61005.3 0 1.83432e+06 -71705.2 0 1.83332e+06 -82622 0 1.83229e+06 -93765.6 0 1.83129e+06 -105134 0 1.83038e+06 -116711 0 1.82965e+06 -128458 0 1.82918e+06 -140311 0 1.82912e+06 -152170 0 1.82959e+06 -163888 0 2.0005e+06 -0.0381692 0 2.001e+06 -10785.5 0 2.0016e+06 -21571.6 0 2.00232e+06 -32367.9 0 2.00316e+06 -43184.6 0 2.00411e+06 -54032.4 0 2.0052e+06 -64923 0 2.00641e+06 -75869.8 0 2.00776e+06 -86888.9 0 2.00925e+06 -98000.3 0 2.0109e+06 -109229 0 2.01269e+06 -120609 0 2.01465e+06 -132185 0 2.01678e+06 -144016 0 2.01908e+06 -156184 0 2.02157e+06 -168796 0 2.1443e+06 -1.33202 0 2.14492e+06 -9179.1 0 2.14573e+06 -18336.1 0 2.14674e+06 -27472.9 0 2.14794e+06 -36589.3 0 2.14933e+06 -45684.8 0 2.15093e+06 -54757.4 0 2.15272e+06 -63803.8 0 2.15471e+06 -72818.5 0 2.15691e+06 -81793 0 2.15931e+06 -90715.1 0 2.16192e+06 -99566.8 0 2.16474e+06 -108323 0 2.16776e+06 -116948 0 2.17098e+06 -125393 0 2.17439e+06 -133591 0 2.25266e+06 3.28508 0 2.25326e+06 -6909.8 0 2.25406e+06 -13790.9 0 2.25506e+06 -20637.7 0 2.25626e+06 -27447.9 0 2.25766e+06 -34219.4 0 2.25926e+06 -40950.7 0 2.26106e+06 -47640.5 0 2.26306e+06 -54288.6 0 2.26526e+06 -60896.3 0 2.26766e+06 -67466.5 0 2.27027e+06 -74004.9 0 2.27308e+06 -80521.4 0 2.27611e+06 -87030.7 0 2.27936e+06 -93555.3 0 2.28285e+06 -100127 0 2.32686e+06 3.04041 0 2.32736e+06 -4767.63 0 2.32804e+06 -9503.32 0 2.3289e+06 -14200.2 0 2.32994e+06 -18854.4 0 2.33116e+06 -23461.6 0 2.33255e+06 -28017.4 0 2.33413e+06 -32517.2 0 2.33588e+06 -36955.4 0 2.3378e+06 -41326.1 0 2.33991e+06 -45622 0 2.34218e+06 -49834.4 0 2.34462e+06 -53952.8 0 2.34723e+06 -57964.1 0 2.35e+06 -61852.3 0 2.35291e+06 -65599.5 0 2.37328e+06 0.592006 0 2.37364e+06 -2972.6 0 2.37414e+06 -5912.95 0 2.37479e+06 -8815.3 0 2.37557e+06 -11674.6 0 2.37649e+06 -14485.9 0 2.37755e+06 -17244.4 0 2.37873e+06 -19945.3 0 2.38006e+06 -22584.2 0 2.38151e+06 -25156.7 0 2.38309e+06 -27659.2 0 2.38479e+06 -30088 0 2.38663e+06 -32439.9 0 2.38859e+06 -34710.9 0 2.3907e+06 -36894.2 0 2.39295e+06 -38974.6 0 2.39974e+06 6.16188 0 2.39997e+06 -1700.05 0 2.4003e+06 -3379.31 0 2.40072e+06 -5027.37 0 2.40123e+06 -6639.64 0 2.40183e+06 -8211.44 0 2.40251e+06 -9737.99 0 2.40328e+06 -11214.4 0 2.40413e+06 -12635.7 0 2.40507e+06 -13996.9 0 2.40608e+06 -15293 0 2.40716e+06 -16519.6 0 2.40831e+06 -17674.3 0 2.40953e+06 -18759.3 0 2.4108e+06 -19789.1 0 2.41209e+06 -20807.4 0 2.41393e+06 -10.9373 0 2.41407e+06 -955.531 0 2.41426e+06 -1885.77 0 2.41449e+06 -2796.35 0 2.41478e+06 -3682.67 0 2.41511e+06 -4540.44 0 2.41548e+06 -5365.61 0 2.4159e+06 -6154.31 0 2.41635e+06 -6902.85 0 2.41683e+06 -7607.41 0 2.41735e+06 -8263.57 0 2.4179e+06 -8864.85 0 2.41847e+06 -9399.44 0 2.41907e+06 -9842.48 0 2.41972e+06 -10138 0 2.42043e+06 -10157.5 0 2.42197e+06 21.0559 0 2.42206e+06 -642.485 0 2.42217e+06 -1295.79 0 2.42229e+06 -1939.77 0 2.42243e+06 -2574.12 0 2.42257e+06 -3198.17 0 2.42272e+06 -3810.91 0 2.42288e+06 -4411.04 0 2.42303e+06 -4997.04 0 2.42319e+06 -5567.54 0 2.42333e+06 -6122.56 0 2.42345e+06 -6666.55 0 2.42356e+06 -7215.94 0 2.42362e+06 -7816.31 0 2.42361e+06 -8583.36 0 2.42349e+06 -9796.82 0 2.42765e+06 -30.7178 0 2.42773e+06 -449.284 0 2.42785e+06 -870.65 0 2.42801e+06 -1297.12 0 2.42821e+06 -1734.17 0 2.42846e+06 -2188.67 0 2.42875e+06 -2668.7 0 2.42907e+06 -3183.49 0 2.42942e+06 -3743.19 0 2.4298e+06 -4358.02 0 2.4302e+06 -5035.66 0 2.43061e+06 -5774.76 0 2.43103e+06 -6548.95 0 2.43147e+06 -7269.88 0 2.43194e+06 -7699.29 0 2.43248e+06 -7246.34 0 2.42888e+06 71.042 0 2.42891e+06 418.117 0 2.42912e+06 799.947 0 2.42951e+06 1184.6 0 2.43009e+06 1543.84 0 2.43084e+06 1850.94 0 2.43178e+06 2080.98 0 2.43289e+06 2211.68 0 2.43415e+06 2223.82 0 2.43555e+06 2100.57 0 2.43706e+06 1823.37 0 2.43866e+06 1359.89 0 2.44029e+06 632.472 0 2.44193e+06 -556.489 0 2.4435e+06 -2705.23 0 2.44494e+06 -7031.37 0 2.41272e+06 -40.5173 0 2.41246e+06 4026.5 0 2.41292e+06 8190.36 0 2.41411e+06 12369.1 0 2.41605e+06 16466 0 2.41875e+06 20376 0 2.4222e+06 23986.5 0 2.4264e+06 27176.6 0 2.43132e+06 29817.6 0 2.43694e+06 31775.4 0 2.44322e+06 32919.7 0 2.45012e+06 33148.5 0 2.4576e+06 32450.9 0 2.4656e+06 31055 0 2.47403e+06 29787.3 0 2.48271e+06 30908.1 0 2.33603e+06 166.369 0 2.33466e+06 15948.4 0 2.33548e+06 32191.2 0 2.33858e+06 48653.9 0 2.34402e+06 65097.2 0 2.35186e+06 81276.7 0 2.3621e+06 96943.1 0 2.37472e+06 111844 0 2.38967e+06 125725 0 2.40681e+06 138331 0 2.42594e+06 149396 0 2.44678e+06 158610 0 2.46893e+06 165523 0 2.49196e+06 169292 0 2.51548e+06 168055 0 2.53954e+06 157438 0 2.0903e+06 183.561 0 2.08525e+06 46960.2 0 2.08509e+06 95043.7 0 2.09006e+06 144235 0 2.10046e+06 194309 0 2.11672e+06 245001 0 2.13939e+06 295976 0 2.16919e+06 346785 0 2.20702e+06 396816 0 2.25398e+06 445225 0 2.31141e+06 490868 0 2.38081e+06 532229 0 2.46371e+06 567392 0 2.56126e+06 594138 0 2.67318e+06 610414 0 2.79527e+06 615784 0 1.52662e+06 68.7652 0 1.51275e+06 90254.3 0 1.50174e+06 182178 0 1.49314e+06 277161 0 1.48671e+06 376530 0 1.48232e+06 481849 0 1.48e+06 595053 0 1.48001e+06 718618 0 1.48297e+06 855825 0 1.49016e+06 1.01119e+06 0 1.50415e+06 1.19122e+06 0 1.53005e+06 1.40578e+06 0 1.57809e+06 1.67085e+06 0 1.66911e+06 2.01407e+06 0 1.84631e+06 2.48732e+06 0 2.20149e+06 3.19491e+06 0 </DataArray> 
</PointData> 
<Points> 
<DataArray type="Float32" NumberOfComponents="3"> 
0.307 0 0 0.307 0.000333333 0 0.307 0.000666667 0 0.307 0.001 0 0.307 0.00133333 0 0.307 0.00166667 0 0.307 0.002 0 0.307 0.00233333 0 0.307 0.00266667 0 0.307 0.003 0 0.307 0.00333333 0 0.307 0.00366667 0 0.307 0.004 0 0.307 0.00433333 0 0.307 0.00466667 0 0.307 0.005 0 0.3126 0 0 0.312608 0.000357358 0 0.312615 0.000714716 0 0.312623 0.00107207 0 0.312631 0.00142943 0 0.312639 0.00178679 0 0.312646 0.00214415 0 0.312654 0.00250151 0 0.312662 0.00285886 0 0.31267 0.00321622 0 0.312677 0.00357358 0 0.312685 0.00393094 0 0.312693 0.0042883 0 0.3127 0.00464565 0 0.312708 0.00500301 0 0.312716 0.00536037 0 0.3182 0 0 0.318215 0.000381383 0 0.318231 0.000762766 0 0.318246 0.00114415 0 0.318262 0.00152553 0 0.318277 0.00190691 0 0.318293 0.0022883 0 0.318308 0.00266968 0 0.318324 0.00305106 0 0.318339 0.00343245 0 0.318354 0.00381383 0 0.31837 0.00419521 0 0.318385 0.00457659 0 0.318401 0.00495798 0 0.318416 0.00533936 0 0.318432 0.00572074 0 0.3238 0 0 0.323823 0.000405408 0 0.323846 0.000810815 0 0.32387 0.00121622 0 0.323893 0.00162163 0 0.323916 0.00202704 0 0.323939 0.00243245 0 0.323962 0.00283785 0 0.323985 0.00324326 0 0.324009 0.00364867 0 0.324032 0.00405408 0 0.324055 0.00445948 0 0.324078 0.00486489 0 0.324101 0.0052703 0 0.324124 0.00567571 0 0.324148 0.00608111 0 0.3294 0 0 0.329431 0.000429432 0 0.329462 0.000858865 0 0.329493 0.0012883 0 0.329524 0.00171773 0 0.329554 0.00214716 0 0.329585 0.00257659 0 0.329616 0.00300603 0 0.329647 0.00343546 0 0.329678 0.00386489 0 0.329709 0.00429432 0 0.32974 0.00472376 0 0.329771 0.00515319 0 0.329802 0.00558262 0 0.329833 0.00601205 0 0.329863 0.00644148 0 0.335 0 0 0.335039 0.000453457 0 0.335077 0.000906914 0 0.335116 0.00136037 0 0.335154 0.00181383 0 0.335193 0.00226729 0 0.335232 0.00272074 0 0.33527 0.0031742 0 0.335309 0.00362766 0 0.335348 0.00408111 0 0.335386 0.00453457 0 0.335425 0.00498803 0 0.335463 0.00544148 0 0.335502 0.00589494 0 0.335541 0.0063484 0 0.335579 0.00680186 0 0.3406 0 0 0.340646 0.000477482 0 0.340693 0.000954964 0 0.340739 0.00143245 0 0.340785 0.00190993 0 0.340832 0.00238741 0 0.340878 0.00286489 0 0.340924 0.00334237 0 0.340971 0.00381985 0 0.341017 0.00429734 0 0.341063 0.00477482 0 0.34111 0.0052523 0 0.341156 0.00572978 0 0.341202 0.00620726 0 0.341249 0.00668474 0 0.341295 0.00716223 0 0.3462 0 0 0.346254 0.000501506 0 0.346308 0.00100301 0 0.346362 0.00150452 0 0.346416 0.00200603 0 0.34647 0.00250753 0 0.346524 0.00300904 0 0.346578 0.00351055 0 0.346633 0.00401205 0 0.346687 0.00451356 0 0.346741 0.00501506 0 0.346795 0.00551657 0 0.346849 0.00601808 0 0.346903 0.00651958 0 0.346957 0.00702109 0 0.347011 0.0075226 0 0.3518 0 0 0.351862 0.000525531 0 0.351924 0.00105106 0 0.351985 0.00157659 0 0.352047 0.00210212 0 0.352109 0.00262766 0 0.352171 0.00315319 0 0.352233 0.00367872 0 0.352294 0.00420425 0 0.352356 0.00472978 0 0.352418 0.00525531 0 0.35248 0.00578084 0 0.352542 0.00630637 0 0.352603 0.00683191 0 0.352665 0.00735744 0 0.352727 0.00788297 0 0.3574 0 0 0.35747 0.000549556 0 0.357539 0.00109911 0 0.357609 0.00164867 0 0.357678 0.00219822 0 0.357748 0.00274778 0 0.357817 0.00329734 0 0.357887 0.00384689 0 0.357956 0.00439645 0 0.358026 0.004946 0 0.358095 0.00549556 0 0.358165 0.00604512 0 0.358234 0.00659467 0 0.358304 0.00714423 0 0.358373 0.00769378 0 0.358443 0.00824334 0 0.363 0 0 0.363077 0.000573581 0 0.363154 0.00114716 0 0.363232 0.00172074 0 0.363309 0.00229432 0 0.363386 0.0028679 0 0.363463 0.00344148 0 0.363541 0.00401506 0 0.363618 0.00458865 0 0.363695 0.00516223 0 0.363772 0.00573581 0 0.36385 0.00630939 0 0.363927 0.00688297 0 0.364004 0.00745655 0 0.364081 0.00803013 0 0.364159 0.00860371 0 0.3686 0 0 0.368685 0.000597605 0 0.36877 0.00119521 0 0.368855 0.00179282 0 0.36894 0.00239042 0 0.369025 0.00298803 0 0.36911 0.00358563 0 0.369195 0.00418324 0 0.36928 0.00478084 0 0.369365 0.00537845 0 0.36945 0.00597605 0 0.369535 0.00657366 0 0.36962 0.00717127 0 0.369705 0.00776887 0 0.36979 0.00836648 0 0.369874 0.00896408 0 0.3742 0 0 0.374293 0.00062163 0 0.374385 0.00124326 0 0.374478 0.00186489 0 0.374571 0.00248652 0 0.374663 0.00310815 0 0.374756 0.00372978 0 0.374849 0.00435141 0 0.374942 0.00497304 0 0.375034 0.00559467 0 0.375127 0.0062163 0 0.37522 0.00683793 0 0.375312 0.00745956 0 0.375405 0.00808119 0 0.375498 0.00870282 0 0.37559 0.00932445 0 0.3798 0 0 0.3799 0.000645655 0 0.380001 0.00129131 0 0.380101 0.00193696 0 0.380202 0.00258262 0 0.380302 0.00322827 0 0.380402 0.00387393 0 0.380503 0.00451958 0 0.380603 0.00516524 0 0.380704 0.00581089 0 0.380804 0.00645655 0 0.380905 0.0071022 0 0.381005 0.00774786 0 0.381105 0.00839351 0 0.381206 0.00903917 0 0.381306 0.00968482 0 0.3854 0 0 0.385508 0.00066968 0 0.385616 0.00133936 0 0.385724 0.00200904 0 0.385833 0.00267872 0 0.385941 0.0033484 0 0.386049 0.00401808 0 0.386157 0.00468776 0 0.386265 0.00535744 0 0.386373 0.00602712 0 0.386481 0.0066968 0 0.38659 0.00736648 0 0.386698 0.00803616 0 0.386806 0.00870584 0 0.386914 0.00937552 0 0.387022 0.0100452 0 0.391 0 0 0.391116 0.000693704 0 0.391232 0.00138741 0 0.391348 0.00208111 0 0.391463 0.00277482 0 0.391579 0.00346852 0 0.391695 0.00416223 0 0.391811 0.00485593 0 0.391927 0.00554964 0 0.392043 0.00624334 0 0.392159 0.00693704 0 0.392274 0.00763075 0 0.39239 0.00832445 0 0.392506 0.00901816 0 0.392622 0.00971186 0 0.392738 0.0104056 0 
</DataArray>
</Points> 
</Piece> 
</StructuredGrid> 
</VTKFile> 
