<?xml version="1.0"?> 
<VTKFile type="StructuredGrid" version="0.1"> 
<StructuredGrid WholeExtent="0 15 0 15 0 0"> 
<Piece Extent="0 15 0 15 0 0"> 
<PointData>
<DataArray type="Float32" Name="E" format="ascii" NumberOfComponents="3"> 
319285 4.6891e+06 0 902480 4.01993e+06 0 983020 3.60862e+06 0 952110 3.32884e+06 0 888880 3.12686e+06 0 809755 2.97473e+06 0 726154 2.85689e+06 0 640956 2.76385e+06 0 556366 2.68966e+06 0 473001 2.63037e+06 0 391183 2.58335e+06 0 310873 2.54677e+06 0 231898 2.51938e+06 0 153985 2.50036e+06 0 76805.1 2.48914e+06 0 0 2.48544e+06 0 643960 4.95403e+06 0 1.06754e+06 4.0636e+06 0 1.11049e+06 3.59924e+06 0 1.05998e+06 3.29343e+06 0 978870 3.07651e+06 0 887465 2.91455e+06 0 793220 2.78943e+06 0 699297 2.69069e+06 0 606890 2.61161e+06 0 516386 2.54793e+06 0 427740 2.49668e+06 0 340694 2.45585e+06 0 254872 2.424e+06 0 169822 2.40012e+06 0 85044.7 2.38349e+06 0 0 2.37366e+06 0 990785 5.11494e+06 0 1.25407e+06 4.0882e+06 0 1.24996e+06 3.57263e+06 0 1.17177e+06 3.2435e+06 0 1.07122e+06 3.01334e+06 0 965325 2.84267e+06 0 859586 2.71119e+06 0 756121 2.6073e+06 0 655446 2.52373e+06 0 557494 2.4558e+06 0 461898 2.40033e+06 0 368165 2.35506e+06 0 275731 2.31837e+06 0 183989 2.28909e+06 0 92304.1 2.26632e+06 0 0 2.24939e+06 0 1.35132e+06 5.20318e+06 0 1.4571e+06 4.08526e+06 0 1.39574e+06 3.52675e+06 0 1.285e+06 3.17819e+06 0 1.16286e+06 2.93712e+06 0 1.04116e+06 2.75934e+06 0 923171 2.62261e+06 0 809698 2.51432e+06 0 700500 2.42674e+06 0 595011 2.35485e+06 0 492539 2.29523e+06 0 392359 2.24546e+06 0 293743 2.20374e+06 0 195965 2.1687e+06 0 98297.9 2.13927e+06 0 0 2.11458e+06 0 1.71917e+06 5.23271e+06 0 1.66874e+06 4.05197e+06 0 1.54287e+06 3.461e+06 0 1.39632e+06 3.09775e+06 0 1.25102e+06 2.84859e+06 0 1.11273e+06 2.66556e+06 0 982107 2.5248e+06 0 858459 2.41296e+06 0 740727 2.32192e+06 0 627827 2.24642e+06 0 518742 2.18285e+06 0 412535 2.12861e+06 0 308344 2.08178e+06 0 205361 2.04082e+06 0 102825 2.00448e+06 0 0 1.97171e+06 0 2.0887e+06 5.21086e+06 0 1.88148e+06 3.98886e+06 0 1.68678e+06 3.37629e+06 0 1.50255e+06 3.00354e+06 0 1.33331e+06 2.74934e+06 0 1.17821e+06 2.56296e+06 0 1.03493e+06 2.41944e+06 0 901227 2.30491e+06 0 775177 2.21098e+06 0 655180 2.13224e+06 0 539910 2.06494e+06 0 428243 2.00637e+06 0 319216 1.95447e+06 0 211985 1.9076e+06 0 105802 1.86437e+06 0 0 1.82357e+06 0 2.45464e+06 5.14243e+06 0 2.08911e+06 3.89845e+06 0 1.82362e+06 3.2748e+06 0 1.60112e+06 2.89779e+06 0 1.40797e+06 2.64153e+06 0 1.2363e+06 2.45365e+06 0 1.0807e+06 2.30854e+06 0 937308 2.19211e+06 0 803344 2.09583e+06 0 676714 2.01421e+06 0 555806 1.94344e+06 0 439347 1.88073e+06 0 326306 1.82395e+06 0 215840 1.77134e+06 0 107257 1.72146e+06 0 0 1.673e+06 0 2.81216e+06 5.03137e+06 0 2.28689e+06 3.78436e+06 0 1.95055e+06 3.15956e+06 0 1.69031e+06 2.78322e+06 0 1.47393e+06 2.52766e+06 0 1.28636e+06 2.33991e+06 0 1.11903e+06 2.19425e+06 0 966502 2.07657e+06 0 825160 1.97841e+06 0 692455 1.89426e+06 0 566531 1.82029e+06 0 445998 1.75369e+06 0 329791 1.69227e+06 0 217100 1.63427e+06 0 107313 1.57818e+06 0 0 1.5227e+06 0 3.15682e+06 4.88138e+06 0 2.47148e+06 3.65071e+06 0 2.06578e+06 3.03395e+06 0 1.76924e+06 2.66275e+06 0 1.53082e+06 2.41025e+06 0 1.32833e+06 2.22399e+06 0 1.15004e+06 2.07859e+06 0 989040 1.96021e+06 0 840925 1.86054e+06 0 702747 1.77415e+06 0 572450 1.69726e+06 0 448561 1.62706e+06 0 330016 1.56137e+06 0 216052 1.49842e+06 0 106150 1.43673e+06 0 0 1.37505e+06 0 3.48472e+06 4.69623e+06 0 2.6408e+06 3.50175e+06 0 2.16852e+06 2.90139e+06 0 1.8378e+06 2.53915e+06 0 1.5789e+06 2.29164e+06 0 1.36261e+06 2.1079e+06 0 1.17424e+06 1.96337e+06 0 1.00547e+06 1.84469e+06 0 851203 1.7438e+06 0 708148 1.65544e+06 0 574099 1.57591e+06 0 447540 1.50245e+06 0 327422 1.4329e+06 0 213045 1.36555e+06 0 103975 1.29898e+06 0 0 1.23203e+06 0 3.79246e+06 4.47979e+06 0 2.79381e+06 3.34157e+06 0 2.25876e+06 2.76503e+06 0 1.89645e+06 2.41489e+06 0 1.61882e+06 2.17383e+06 0 1.38996e+06 1.99335e+06 0 1.1924e+06 1.85009e+06 0 1.01655e+06 1.73137e+06 0 856712 1.62949e+06 0 709331 1.5394e+06 0 572100 1.45752e+06 0 443488 1.38117e+06 0 322482 1.30825e+06 0 208439 1.23712e+06 0 100993 1.16645e+06 0 0 1.09521e+06 0 4.07719e+06 4.23604e+06 0 2.93034e+06 3.17394e+06 0 2.33711e+06 2.62761e+06 0 1.94607e+06 2.29203e+06 0 1.65154e+06 2.05845e+06 0 1.41133e+06 1.88168e+06 0 1.20542e+06 1.73992e+06 0 1.02311e+06 1.62131e+06 0 858224 1.51861e+06 0 707001 1.42702e+06 0 567085 1.3431e+06 0 436960 1.26426e+06 0 315655 1.1885e+06 0 202575 1.11424e+06 0 97396.6 1.04028e+06 0 0 965754 0 4.33666e+06 3.96904e+06 0 3.05085e+06 3.00211e+06 0 2.40459e+06 2.4914e+06 0 1.9878e+06 2.1722e+06 0 1.67816e+06 1.94673e+06 0 1.42773e+06 1.77388e+06 0 1.21424e+06 1.6337e+06 0 1.02601e+06 1.51528e+06 0 856498 1.41189e+06 0 701832 1.31903e+06 0 559647 1.2334e+06 0 428464 1.15252e+06 0 307358 1.07446e+06 0 195761 997741 0 93356 921299 0 0 844424 0 4.56914e+06 3.68284e+06 0 3.15624e+06 2.82885e+06 0 2.46245e+06 2.35814e+06 0 2.02286e+06 2.05657e+06 0 1.69979e+06 1.83954e+06 0 1.44018e+06 1.67062e+06 0 1.21974e+06 1.53199e+06 0 1.02603e+06 1.41378e+06 0 852227 1.30984e+06 0 694429 1.21594e+06 0 550311 1.12897e+06 0 418452 1.0465e+06 0 297960 966702 0 188269 888188 0 89022.9 810021 0 0 731665 0 4.77343e+06 3.38143e+06 0 3.24772e+06 2.65641e+06 0 2.51201e+06 2.22915e+06 0 2.05246e+06 1.94596e+06 0 1.7175e+06 1.73743e+06 0 1.44961e+06 1.57232e+06 0 1.22275e+06 1.43512e+06 0 1.02388e+06 1.31712e+06 0 846019 1.21274e+06 0 685315 1.11808e+06 0 539530 1.03014e+06 0 407310 946574 0 287782 865591 0 180340 785903 0 84534.2 706696 0 0 627615 0 4.94883e+06 3.06868e+06 0 3.3266e+06 2.48653e+06 0 2.5546e+06 2.10531e+06 0 2.07773e+06 1.84087e+06 0 1.73227e+06 1.64073e+06 0 1.45687e+06 1.47919e+06 0 1.22398e+06 1.34327e+06 0 1.02016e+06 1.22543e+06 0 838381 1.12077e+06 0 674924 1.02563e+06 0 527679 937126 0 395366 852941 0 277101 771310 0 172189 691007 0 80017.2 611345 0 0 532146 0 </DataArray> 
</PointData> 
<Points> 
<DataArray type="Float32" NumberOfComponents="3"> 
0.305 0.0600551 0 0.305 0.0645847 0 0.305 0.0691144 0 0.305 0.0736441 0 0.305 0.0781737 0 0.305 0.0827034 0 0.305 0.0872331 0 0.305 0.0917627 0 0.305 0.0962924 0 0.305 0.100822 0 0.305 0.105352 0 0.305 0.109881 0 0.305 0.114411 0 0.305 0.118941 0 0.305 0.12347 0 0.305 0.128 0 0.305983 0.0599578 0 0.306335 0.0645528 0 0.306687 0.0691392 0 0.307038 0.0737172 0 0.307388 0.0782867 0 0.307738 0.0828478 0 0.308087 0.0874005 0 0.308436 0.0919448 0 0.308783 0.0964807 0 0.30913 0.101008 0 0.309477 0.105528 0 0.309823 0.110039 0 0.310168 0.114541 0 0.310513 0.119036 0 0.310857 0.123522 0 0.3112 0.128 0 0.306971 0.0597981 0 0.307683 0.0644556 0 0.308393 0.0690969 0 0.3091 0.0737222 0 0.309805 0.0783314 0 0.310507 0.0829247 0 0.311207 0.0875022 0 0.311905 0.0920639 0 0.3126 0.09661 0 0.313293 0.10114 0 0.313983 0.105655 0 0.314671 0.110155 0 0.315357 0.114639 0 0.31604 0.119108 0 0.316721 0.123561 0 0.3174 0.128 0 0.307957 0.0595746 0 0.309036 0.0642916 0 0.310109 0.0689856 0 0.311177 0.073657 0 0.31224 0.0783058 0 0.313297 0.0829322 0 0.31435 0.0875364 0 0.315397 0.0921185 0 0.31644 0.0966787 0 0.317477 0.101217 0 0.31851 0.105734 0 0.319538 0.11023 0 0.32056 0.114704 0 0.321578 0.119157 0 0.322592 0.123589 0 0.3236 0.128 0 0.308937 0.0592868 0 0.310386 0.0640597 0 0.311827 0.0688041 0 0.313259 0.0735202 0 0.314682 0.0782084 0 0.316097 0.0828688 0 0.317504 0.0875017 0 0.318902 0.0921074 0 0.320292 0.0966861 0 0.321674 0.101238 0 0.323048 0.105763 0 0.324414 0.110262 0 0.325773 0.114735 0 0.327123 0.119182 0 0.328465 0.123604 0 0.3298 0.128 0 0.309903 0.0589349 0 0.311726 0.0637598 0 0.313537 0.0685518 0 0.315335 0.0733112 0 0.317122 0.0780383 0 0.318896 0.0827336 0 0.320658 0.0873973 0 0.322408 0.0920297 0 0.324147 0.0966312 0 0.325874 0.101202 0 0.32759 0.105742 0 0.329294 0.110253 0 0.330987 0.114734 0 0.332669 0.119185 0 0.33434 0.123607 0 0.336 0.128 0 0.31085 0.0585197 0 0.313048 0.0633923 0 0.315231 0.0682289 0 0.317397 0.0730298 0 0.319547 0.0777955 0 0.321682 0.0825264 0 0.323801 0.0872228 0 0.325905 0.0918851 0 0.327993 0.0965137 0 0.330067 0.101109 0 0.332125 0.105671 0 0.334169 0.110201 0 0.336198 0.114698 0 0.338213 0.119164 0 0.340214 0.123597 0 0.3422 0.128 0 0.311771 0.0580433 0 0.314344 0.0629587 0 0.316898 0.0678364 0 0.319433 0.0726767 0 0.321948 0.0774802 0 0.324444 0.0822473 0 0.326921 0.0869782 0 0.32938 0.0916736 0 0.33182 0.0963337 0 0.334241 0.100959 0 0.336645 0.10555 0 0.339031 0.110106 0 0.341399 0.114629 0 0.34375 0.119119 0 0.346084 0.123576 0 0.3484 0.128 0 0.31266 0.057508 0 0.315607 0.062461 0 0.318531 0.067376 0 0.321433 0.0722534 0 0.324313 0.0770937 0 0.327171 0.0818972 0 0.330007 0.0866644 0 0.332822 0.0913956 0 0.335616 0.0960914 0 0.338388 0.100752 0 0.341141 0.105378 0 0.343873 0.109969 0 0.346584 0.114527 0 0.349276 0.119051 0 0.351948 0.123542 0 0.3546 0.128 0 0.313512 0.0569172 0 0.316828 0.0619022 0 0.32012 0.0668503 0 0.323388 0.0717619 0 0.326631 0.0766375 0 0.329851 0.0814775 0 0.333047 0.0862823 0 0.33622 0.0910521 0 0.339371 0.0957875 0 0.342498 0.100489 0 0.345603 0.105156 0 0.348686 0.10979 0 0.351747 0.114391 0 0.354786 0.11896 0 0.357804 0.123496 0 0.3608 0.128 0 0.314322 0.056275 0 0.318002 0.0612857 0 0.321657 0.0662622 0 0.325287 0.071205 0 0.328893 0.0761142 0 0.332474 0.0809903 0 0.336031 0.0858336 0 0.339564 0.0906444 0 0.343074 0.0954231 0 0.34656 0.10017 0 0.350023 0.104885 0 0.353464 0.109569 0 0.356881 0.114223 0 0.360276 0.118845 0 0.363649 0.123438 0 0.367 0.128 0 0.315085 0.0555859 0 0.319122 0.0606158 0 0.323134 0.0656157 0 0.327123 0.0705859 0 0.331088 0.0755265 0 0.33503 0.080438 0 0.338948 0.0853204 0 0.342843 0.0901742 0 0.346716 0.0949994 0 0.350566 0.0997965 0 0.354393 0.104566 0 0.358198 0.109307 0 0.361981 0.114021 0 0.365742 0.118708 0 0.369482 0.123367 0 0.3732 0.128 0 0.315798 0.0548549 0 0.320182 0.0598972 0 0.324546 0.064915 0 0.328888 0.0699086 0 0.333209 0.074878 0 0.337509 0.0798236 0 0.341789 0.0847453 0 0.346048 0.0896435 0 0.350287 0.0945183 0 0.354505 0.0993698 0 0.358704 0.104198 0 0.362882 0.109004 0 0.367041 0.113787 0 0.37118 0.118547 0 0.3753 0.123285 0 0.3794 0.128 0 0.316457 0.0540875 0 0.321179 0.059135 0 0.325884 0.0641649 0 0.330573 0.0691775 0 0.335246 0.0741726 0 0.339903 0.0791505 0 0.344544 0.0841113 0 0.349168 0.089055 0 0.353777 0.0939816 0 0.35837 0.0988914 0 0.362947 0.103784 0 0.367509 0.108661 0 0.372055 0.11352 0 0.376585 0.118363 0 0.3811 0.12319 0 0.3856 0.128 0 0.317061 0.0532894 0 0.322108 0.0583347 0 0.327146 0.0633706 0 0.332174 0.0683972 0 0.337194 0.0734146 0 0.342204 0.0784227 0 0.347204 0.0834215 0 0.352196 0.0884112 0 0.357178 0.0933917 0 0.362152 0.098363 0 0.367116 0.103325 0 0.372071 0.108278 0 0.377017 0.113222 0 0.381953 0.118157 0 0.386881 0.123083 0 0.3918 0.128 0 0.317607 0.0524662 0 0.322966 0.0575018 0 0.328326 0.0625374 0 0.333685 0.067573 0 0.339045 0.0726086 0 0.344405 0.0776442 0 0.349764 0.0826797 0 0.355124 0.0877153 0 0.360483 0.0927509 0 0.365843 0.0977865 0 0.371202 0.102822 0 0.376562 0.107858 0 0.381921 0.112893 0 0.387281 0.117929 0 0.39264 0.122964 0 0.398 0.128 0 
</DataArray>
</Points> 
</Piece> 
</StructuredGrid> 
</VTKFile> 
