<?xml version="1.0"?> 
<VTKFile type="StructuredGrid" version="0.1"> 
<StructuredGrid WholeExtent="0 15 0 15 0 0"> 
<Piece Extent="0 15 0 15 0 0"> 
<PointData>
<DataArray type="Float32" Name="E" format="ascii" NumberOfComponents="3"> 
-690757 202110 0 -681355 193114 0 -672017 183975 0 -662756 174690 0 -653583 165253 0 -644508 155660 0 -635545 145900 0 -626709 135963 0 -618030 125822 0 -609558 115457 0 -601378 104821 0 -593640 93904.8 0 -586642 82683.9 0 -580935 71400.2 0 -577853 60245.1 0 -579497 49445.8 0 -702329 260149 0 -692865 251948 0 -683408 243601 0 -673965 235105 0 -664547 226456 0 -655166 217651 0 -645832 208690 0 -636557 199572 0 -627348 190297 0 -618211 180861 0 -609143 171253 0 -600136 161460 0 -591173 151471 0 -582226 141279 0 -573243 130835 0 -564177 119894 0 -716874 317185 0 -707532 309924 0 -698148 302518 0 -688736 294964 0 -679304 287258 0 -669861 279394 0 -660413 271369 0 -650965 263178 0 -641526 254817 0 -632107 246287 0 -622721 237591 0 -613387 228728 0 -604115 219693 0 -594907 210462 0 -585752 201049 0 -576646 191591 0 -734350 371827 0 -725353 365697 0 -716245 359414 0 -707040 352973 0 -697757 346369 0 -688413 339600 0 -679027 332666 0 -669616 325564 0 -660190 318295 0 -650751 310855 0 -641295 303242 0 -631819 295457 0 -622329 287501 0 -612851 279389 0 -603423 271107 0 -594028 262561 0 -754634 422095 0 -746237 417335 0 -737673 412410 0 -728954 407317 0 -720090 402052 0 -711087 396614 0 -701953 390997 0 -692700 385195 0 -683353 379202 0 -673943 373013 0 -664507 366627 0 -655069 360049 0 -645630 353290 0 -636156 346356 0 -626609 339250 0 -617078 331947 0 -777573 465205 0 -770121 462216 0 -762367 459029 0 -754353 455627 0 -746120 452003 0 -737707 448156 0 -729141 444092 0 -720432 439827 0 -711576 435376 0 -702557 430749 0 -693360 425936 0 -683998 420908 0 -674527 415617 0 -665045 410036 0 -655621 404235 0 -646074 398560 0 -802856 496010 0 -796955 495349 0 -790623 494495 0 -783866 493440 0 -776696 492167 0 -769137 490646 0 -761228 488838 0 -753032 486701 0 -744624 484209 0 -736081 481367 0 -727455 478229 0 -718739 474898 0 -709859 471495 0 -700697 468047 0 -691237 464259 0 -681901 459092 0 -829940 508350 0 -826069 510751 0 -821608 512797 0 -816636 514495 0 -811212 515880 0 -805367 517007 0 -799097 517939 0 -792373 518718 0 -785155 519344 0 -777424 519737 0 -769217 519730 0 -760657 519094 0 -751955 517649 0 -743319 515508 0 -734728 513546 0 -725426 514163 0 -858312 488387 0 -857940 495866 0 -856507 503001 0 -854067 509692 0 -850709 515816 0 -846556 521257 0 -841762 525933 0 -836488 529839 0 -830873 533089 0 -824989 535935 0 -818802 538750 0 -812153 541918 0 -804806 545588 0 -796602 549204 0 -787828 550708 0 -779881 545353 0 -886208 418083 0 -890496 430983 0 -893668 443503 0 -895773 455781 0 -896806 467948 0 -896720 480080 0 -895448 492144 0 -892940 503948 0 -889213 515109 0 -884395 525075 0 -878758 533228 0 -872703 539146 0 -866643 543054 0 -860748 546603 0 -854438 554059 0 -845554 573913 0 -912464 268762 0 -923861 293375 0 -932995 316541 0 -940140 338061 0 -945611 357847 0 -949728 375984 0 -952776 392781 0 -954959 408808 0 -956339 424856 0 -956807 441826 0 -956078 460454 0 -953767 480851 0 -949586 501755 0 -943723 519421 0 -937464 526036 0 -934166 507755 0 -932474 -34843 0 -955706 4502.37 0 -976381 44115.1 0 -994406 83895 0 -1.00967e+06 123523 0 -1.02211e+06 162405 0 -1.03171e+06 199655 0 -1.03864e+06 234148 0 -1.04322e+06 264662 0 -1.04599e+06 290168 0 -1.04759e+06 310310 0 -1.0487e+06 326126 0 -1.04969e+06 341084 0 -1.05017e+06 362491 0 -1.04826e+06 403392 0 -1.0396e+06 484679 0 -938817 -532330 0 -976831 -475658 0 -1.01049e+06 -422113 0 -1.04047e+06 -371164 0 -1.06739e+06 -321935 0 -1.09173e+06 -273229 0 -1.11382e+06 -223606 0 -1.13375e+06 -171570 0 -1.15138e+06 -115891 0 -1.16634e+06 -56099.8 0 -1.17815e+06 6811.49 0 -1.18645e+06 69428.5 0 -1.19132e+06 124667 0 -1.19381e+06 160184 0 -1.19672e+06 156367 0 -1.20554e+06 84350.5 0 -908173 -1.47199e+06 0 -976567 -1.36758e+06 0 -1.04075e+06 -1.26407e+06 0 -1.09954e+06 -1.16286e+06 0 -1.15208e+06 -1.06569e+06 0 -1.1979e+06 -974522 0 -1.23692e+06 -891272 0 -1.26947e+06 -817436 0 -1.29631e+06 -753602 0 -1.31849e+06 -698771 0 -1.33721e+06 -649510 0 -1.35358e+06 -598888 0 -1.36823e+06 -535192 0 -1.38082e+06 -440408 0 -1.3893e+06 -288375 0 -1.38918e+06 -43297.5 0 -752247 -2.45774e+06 0 -790411 -2.43846e+06 0 -842793 -2.4084e+06 0 -908064 -2.36606e+06 0 -984560 -2.30992e+06 0 -1.07023e+06 -2.23863e+06 0 -1.1626e+06 -2.15136e+06 0 -1.25874e+06 -2.04813e+06 0 -1.3553e+06 -1.9304e+06 0 -1.44854e+06 -1.80153e+06 0 -1.5344e+06 -1.66757e+06 0 -1.60867e+06 -1.53801e+06 0 -1.6672e+06 -1.42667e+06 0 -1.70619e+06 -1.35278e+06 0 -1.72256e+06 -1.3421e+06 0 -1.71436e+06 -1.42753e+06 0 -565351 -1.81392e+06 0 -523384 -1.85172e+06 0 -469119 -1.8816e+06 0 -406313 -1.90374e+06 0 -338688 -1.92114e+06 0 -270642 -1.93966e+06 0 -207915 -1.96859e+06 0 -158289 -2.02146e+06 0 -132379 -2.11721e+06 0 -144512 -2.28146e+06 0 -213723 -2.54805e+06 0 -364872 -2.96083e+06 0 -629862 -3.57557e+06 0 -1.04898e+06 -4.462e+06 0 -1.67226e+06 -5.70603e+06 0 -2.56099e+06 -7.41182e+06 0 </DataArray> 
</PointData> 
<Points> 
<DataArray type="Float32" NumberOfComponents="3"> 
0.046 0.027 0 0.0437667 0.0286667 0 0.0415333 0.0303333 0 0.0393 0.032 0 0.0370667 0.0336667 0 0.0348333 0.0353333 0 0.0326 0.037 0 0.0303667 0.0386667 0 0.0281333 0.0403333 0 0.0259 0.042 0 0.0236667 0.0436667 0 0.0214333 0.0453333 0 0.0192 0.047 0 0.0169667 0.0486667 0 0.0147333 0.0503333 0 0.0125 0.052 0 0.0586667 0.027 0 0.0565222 0.0285911 0 0.0543778 0.0301822 0 0.0522333 0.0317733 0 0.0500889 0.0333644 0 0.0479444 0.0349556 0 0.0458 0.0365467 0 0.0436556 0.0381378 0 0.0415111 0.0397289 0 0.0393667 0.04132 0 0.0372222 0.0429111 0 0.0350778 0.0445022 0 0.0329333 0.0460933 0 0.0307889 0.0476844 0 0.0286444 0.0492756 0 0.0265 0.0508667 0 0.0713333 0.027 0 0.0692778 0.0285156 0 0.0672222 0.0300311 0 0.0651667 0.0315467 0 0.0631111 0.0330622 0 0.0610556 0.0345778 0 0.059 0.0360933 0 0.0569444 0.0376089 0 0.0548889 0.0391244 0 0.0528333 0.04064 0 0.0507778 0.0421556 0 0.0487222 0.0436711 0 0.0466667 0.0451867 0 0.0446111 0.0467022 0 0.0425556 0.0482178 0 0.0405 0.0497333 0 0.084 0.027 0 0.0820333 0.02844 0 0.0800667 0.02988 0 0.0781 0.03132 0 0.0761333 0.03276 0 0.0741667 0.0342 0 0.0722 0.03564 0 0.0702333 0.03708 0 0.0682667 0.03852 0 0.0663 0.03996 0 0.0643333 0.0414 0 0.0623667 0.04284 0 0.0604 0.04428 0 0.0584333 0.04572 0 0.0564667 0.04716 0 0.0545 0.0486 0 0.0966667 0.027 0 0.0947889 0.0283644 0 0.0929111 0.0297289 0 0.0910333 0.0310933 0 0.0891556 0.0324578 0 0.0872778 0.0338222 0 0.0854 0.0351867 0 0.0835222 0.0365511 0 0.0816444 0.0379156 0 0.0797667 0.03928 0 0.0778889 0.0406444 0 0.0760111 0.0420089 0 0.0741333 0.0433733 0 0.0722556 0.0447378 0 0.0703778 0.0461022 0 0.0685 0.0474667 0 0.109333 0.027 0 0.107544 0.0282889 0 0.105756 0.0295778 0 0.103967 0.0308667 0 0.102178 0.0321556 0 0.100389 0.0334444 0 0.0986 0.0347333 0 0.0968111 0.0360222 0 0.0950222 0.0373111 0 0.0932333 0.0386 0 0.0914444 0.0398889 0 0.0896556 0.0411778 0 0.0878667 0.0424667 0 0.0860778 0.0437556 0 0.0842889 0.0450444 0 0.0825 0.0463333 0 0.122 0.027 0 0.1203 0.0282133 0 0.1186 0.0294267 0 0.1169 0.03064 0 0.1152 0.0318533 0 0.1135 0.0330667 0 0.1118 0.03428 0 0.1101 0.0354933 0 0.1084 0.0367067 0 0.1067 0.03792 0 0.105 0.0391333 0 0.1033 0.0403467 0 0.1016 0.04156 0 0.0999 0.0427733 0 0.0982 0.0439867 0 0.0965 0.0452 0 0.134667 0.027 0 0.133056 0.0281378 0 0.131444 0.0292756 0 0.129833 0.0304133 0 0.128222 0.0315511 0 0.126611 0.0326889 0 0.125 0.0338267 0 0.123389 0.0349644 0 0.121778 0.0361022 0 0.120167 0.03724 0 0.118556 0.0383778 0 0.116944 0.0395156 0 0.115333 0.0406533 0 0.113722 0.0417911 0 0.112111 0.0429289 0 0.1105 0.0440667 0 0.147333 0.027 0 0.145811 0.0280622 0 0.144289 0.0291244 0 0.142767 0.0301867 0 0.141244 0.0312489 0 0.139722 0.0323111 0 0.1382 0.0333733 0 0.136678 0.0344356 0 0.135156 0.0354978 0 0.133633 0.03656 0 0.132111 0.0376222 0 0.130589 0.0386844 0 0.129067 0.0397467 0 0.127544 0.0408089 0 0.126022 0.0418711 0 0.1245 0.0429333 0 0.16 0.027 0 0.158567 0.0279867 0 0.157133 0.0289733 0 0.1557 0.02996 0 0.154267 0.0309467 0 0.152833 0.0319333 0 0.1514 0.03292 0 0.149967 0.0339067 0 0.148533 0.0348933 0 0.1471 0.03588 0 0.145667 0.0368667 0 0.144233 0.0378533 0 0.1428 0.03884 0 0.141367 0.0398267 0 0.139933 0.0408133 0 0.1385 0.0418 0 0.172667 0.027 0 0.171322 0.0279111 0 0.169978 0.0288222 0 0.168633 0.0297333 0 0.167289 0.0306444 0 0.165944 0.0315556 0 0.1646 0.0324667 0 0.163256 0.0333778 0 0.161911 0.0342889 0 0.160567 0.0352 0 0.159222 0.0361111 0 0.157878 0.0370222 0 0.156533 0.0379333 0 0.155189 0.0388444 0 0.153844 0.0397556 0 0.1525 0.0406667 0 0.185333 0.027 0 0.184078 0.0278356 0 0.182822 0.0286711 0 0.181567 0.0295067 0 0.180311 0.0303422 0 0.179056 0.0311778 0 0.1778 0.0320133 0 0.176544 0.0328489 0 0.175289 0.0336844 0 0.174033 0.03452 0 0.172778 0.0353556 0 0.171522 0.0361911 0 0.170267 0.0370267 0 0.169011 0.0378622 0 0.167756 0.0386978 0 0.1665 0.0395333 0 0.198 0.027 0 0.196833 0.02776 0 0.195667 0.02852 0 0.1945 0.02928 0 0.193333 0.03004 0 0.192167 0.0308 0 0.191 0.03156 0 0.189833 0.03232 0 0.188667 0.03308 0 0.1875 0.03384 0 0.186333 0.0346 0 0.185167 0.03536 0 0.184 0.03612 0 0.182833 0.03688 0 0.181667 0.03764 0 0.1805 0.0384 0 0.210667 0.027 0 0.209589 0.0276844 0 0.208511 0.0283689 0 0.207433 0.0290533 0 0.206356 0.0297378 0 0.205278 0.0304222 0 0.2042 0.0311067 0 0.203122 0.0317911 0 0.202044 0.0324756 0 0.200967 0.03316 0 0.199889 0.0338444 0 0.198811 0.0345289 0 0.197733 0.0352133 0 0.196656 0.0358978 0 0.195578 0.0365822 0 0.1945 0.0372667 0 0.223333 0.027 0 0.222344 0.0276089 0 0.221356 0.0282178 0 0.220367 0.0288267 0 0.219378 0.0294356 0 0.218389 0.0300444 0 0.2174 0.0306533 0 0.216411 0.0312622 0 0.215422 0.0318711 0 0.214433 0.03248 0 0.213444 0.0330889 0 0.212456 0.0336978 0 0.211467 0.0343067 0 0.210478 0.0349156 0 0.209489 0.0355244 0 0.2085 0.0361333 0 0.236 0.027 0 0.2351 0.0275333 0 0.2342 0.0280667 0 0.2333 0.0286 0 0.2324 0.0291333 0 0.2315 0.0296667 0 0.2306 0.0302 0 0.2297 0.0307333 0 0.2288 0.0312667 0 0.2279 0.0318 0 0.227 0.0323333 0 0.2261 0.0328667 0 0.2252 0.0334 0 0.2243 0.0339333 0 0.2234 0.0344667 0 0.2225 0.035 0 
</DataArray>
</Points> 
</Piece> 
</StructuredGrid> 
</VTKFile> 
