<?xml version="1.0"?> 
<VTKFile type="StructuredGrid" version="0.1"> 
<StructuredGrid WholeExtent="0 15 0 15 0 0"> 
<Piece Extent="0 15 0 15 0 0"> 
<PointData>
<DataArray type="Float32" Name="|E|" format="ascii" NumberOfComponents="3"> 
-2.08015e+06 167818 0 -2.1123e+06 211971 0 -2.15193e+06 258020 0 -2.19929e+06 306970 0 -2.25487e+06 359140 0 -2.31925e+06 414978 0 -2.39265e+06 477371 0 -2.4772e+06 542475 0 -2.57349e+06 625471 0 -2.68419e+06 715122 0 -2.81897e+06 779303 0 -2.97214e+06 1.0038e+06 0 -3.20766e+06 1.1152e+06 0 -3.49151e+06 1.03601e+06 0 -4.26837e+06 2.21809e+06 0 -8.38461e+06 2.68089e+07 0 -2.11707e+06 240443 0 -2.15675e+06 286636 0 -2.20334e+06 335506 0 -2.25729e+06 387674 0 -2.31889e+06 444047 0 -2.38846e+06 504676 0 -2.46792e+06 573101 0 -2.55711e+06 649286 0 -2.65937e+06 732515 0 -2.78041e+06 846572 0 -2.91278e+06 959441 0 -3.12162e+06 1.10235e+06 0 -3.31196e+06 1.43409e+06 0 -3.89216e+06 1.82208e+06 0 -4.19764e+06 3.51696e+06 0 195700 2.46354e+06 0 -2.16698e+06 322785 0 -2.21333e+06 371796 0 -2.26615e+06 424100 0 -2.32562e+06 480441 0 -2.39223e+06 541565 0 -2.46731e+06 609905 0 -2.55113e+06 686260 0 -2.64553e+06 770943 0 -2.75519e+06 878793 0 -2.87743e+06 991145 0 -3.04535e+06 1.15011e+06 0 -3.2218e+06 1.47331e+06 0 -3.54784e+06 1.65549e+06 0 -3.78127e+06 2.96951e+06 0 -2.02642e+06 4.38658e+06 0 -634758 3.15598e+06 0 -2.23e+06 416735 0 -2.28205e+06 469466 0 -2.33982e+06 526457 0 -2.40398e+06 588788 0 -2.4755e+06 657637 0 -2.55461e+06 734156 0 -2.64259e+06 819616 0 -2.74274e+06 924130 0 -2.85461e+06 1.04653e+06 0 -2.99282e+06 1.21368e+06 0 -3.14792e+06 1.48839e+06 0 -3.34963e+06 1.69709e+06 0 -3.44797e+06 2.72299e+06 0 -2.41523e+06 3.76441e+06 0 -1.00861e+06 3.2739e+06 0 -691149 2.6686e+06 0 -2.30558e+06 526038 0 -2.36196e+06 584445 0 -2.42416e+06 648052 0 -2.49271e+06 717179 0 -2.5675e+06 794191 0 -2.64953e+06 882376 0 -2.7408e+06 990164 0 -2.84144e+06 1.12232e+06 0 -2.9578e+06 1.29152e+06 0 -3.08594e+06 1.53359e+06 0 -3.20415e+06 1.80845e+06 0 -3.16506e+06 2.61369e+06 0 -2.42883e+06 3.33213e+06 0 -1.36299e+06 3.11304e+06 0 -831139 2.49079e+06 0 -604437 1.97644e+06 0 -2.39298e+06 656385 0 -2.45348e+06 720509 0 -2.51897e+06 790673 0 -2.58897e+06 871212 0 -2.66459e+06 966112 0 -2.74699e+06 1.08073e+06 0 -2.83615e+06 1.21917e+06 0 -2.93288e+06 1.39036e+06 0 -3.02468e+06 1.62752e+06 0 -3.05982e+06 1.95462e+06 0 -2.90244e+06 2.58031e+06 0 -2.30063e+06 3.03569e+06 0 -1.51083e+06 2.88011e+06 0 -1.02174e+06 2.44851e+06 0 -792184 2.03946e+06 0 -651970 1.64862e+06 0 -2.49163e+06 809072 0 -2.55293e+06 884960 0 -2.61706e+06 973335 0 -2.6859e+06 1.07697e+06 0 -2.75914e+06 1.19784e+06 0 -2.83432e+06 1.34225e+06 0 -2.90387e+06 1.52415e+06 0 -2.94075e+06 1.77488e+06 0 -2.88185e+06 2.11513e+06 0 -2.63106e+06 2.56954e+06 0 -2.11183e+06 2.80768e+06 0 -1.53026e+06 2.64779e+06 0 -1.14374e+06 2.32718e+06 0 -924622 1.99003e+06 0 -782250 1.65243e+06 0 -693842 1.34066e+06 0 -2.59242e+06 1.01213e+06 0 -2.64981e+06 1.10726e+06 0 -2.71092e+06 1.21947e+06 0 -2.77023e+06 1.34751e+06 0 -2.81966e+06 1.50496e+06 0 -2.8415e+06 1.70512e+06 0 -2.80019e+06 1.96051e+06 0 -2.64531e+06 2.25683e+06 0 -2.3382e+06 2.5347e+06 0 -1.90053e+06 2.59972e+06 0 -1.48458e+06 2.4223e+06 0 -1.20314e+06 2.16402e+06 0 -1.01889e+06 1.88424e+06 0 -888844 1.5947e+06 0 -801763 1.31809e+06 0 -737687 1.04821e+06 0 -2.68079e+06 1.27474e+06 0 -2.72632e+06 1.40515e+06 0 -2.75389e+06 1.54367e+06 0 -2.75294e+06 1.71744e+06 0 -2.70131e+06 1.91952e+06 0 -2.57123e+06 2.13565e+06 0 -2.34476e+06 2.3298e+06 0 -2.03456e+06 2.43879e+06 0 -1.6964e+06 2.38209e+06 0 -1.41738e+06 2.19605e+06 0 -1.22375e+06 1.97466e+06 0 -1.07944e+06 1.7355e+06 0 -970154 1.48879e+06 0 -894579 1.25033e+06 0 -838663 1.01008e+06 0 -781912 762279 0 -2.68829e+06 1.65641e+06 0 -2.65219e+06 1.77985e+06 0 -2.57777e+06 1.94839e+06 0 -2.44554e+06 2.10069e+06 0 -2.251e+06 2.22158e+06 0 -2.00979e+06 2.28787e+06 0 -1.75577e+06 2.26659e+06 0 -1.52937e+06 2.14243e+06 0 -1.35678e+06 1.95822e+06 0 -1.22534e+06 1.7592e+06 0 -1.11517e+06 1.5511e+06 0 -1.03052e+06 1.34363e+06 0 -973608 1.13989e+06 0 -931015 924134 0 -879824 690051 0 -794844 453304 0 -2.39707e+06 1.95563e+06 0 -2.26627e+06 2.10616e+06 0 -2.09002e+06 2.14585e+06 0 -1.89652e+06 2.15476e+06 0 -1.71092e+06 2.12306e+06 0 -1.55005e+06 2.02758e+06 0 -1.41904e+06 1.87273e+06 0 -1.31132e+06 1.69207e+06 0 -1.21576e+06 1.51159e+06 0 -1.13525e+06 1.33692e+06 0 -1.08122e+06 1.16769e+06 0 -1.05e+06 990193 0 -1.02163e+06 786285 0 -969158 557302 0 -870333 327780 0 -722944 132199 0 -1.90202e+06 2.13887e+06 0 -1.74051e+06 1.97967e+06 0 -1.61908e+06 1.94338e+06 0 -1.52052e+06 1.86981e+06 0 -1.43161e+06 1.72826e+06 0 -1.34617e+06 1.55211e+06 0 -1.26623e+06 1.38293e+06 0 -1.20136e+06 1.23748e+06 0 -1.16333e+06 1.10538e+06 0 -1.15095e+06 963161 0 -1.14381e+06 787636 0 -1.11305e+06 572834 0 -1.03401e+06 339051 0 -897944 123368 0 -719365 -38259.6 0 -529426 -129017 0 -1.4957e+06 1.53908e+06 0 -1.47639e+06 1.69004e+06 0 -1.41458e+06 1.53995e+06 0 -1.33983e+06 1.32499e+06 0 -1.27797e+06 1.15388e+06 0 -1.24546e+06 1.04243e+06 0 -1.24529e+06 955956 0 -1.2641e+06 847076 0 -1.27404e+06 684945 0 -1.2446e+06 469652 0 -1.15581e+06 229385 0 -1.00537e+06 7033.52 0 -810675 -158226 0 -603289 -246621 0 -416198 -263191 0 -271328 -231620 0 -1.446e+06 1.53491e+06 0 -1.33094e+06 918049 0 -1.30871e+06 738971 0 -1.34432e+06 733009 0 -1.39837e+06 728428 0 -1.43239e+06 640222 0 -1.41466e+06 453057 0 -1.32736e+06 201710 0 -1.17161e+06 -55261.8 0 -965538 -263967 0 -738251 -390921 0 -522029 -429153 0 -342856 -396531 0 -213424 -324553 0 -131955 -244391 0 -86738.7 -176123 0 -1.41791e+06 -58567.7 0 -1.58991e+06 405836 0 -1.61852e+06 436301 0 -1.52491e+06 220309 0 -1.33838e+06 -89600.3 0 -1.09414e+06 -381452 0 -829968 -584623 0 -580342 -672085 0 -370451 -655078 0 -214068 -565474 0 -113029 -442165 0 -58490.2 -320818 0 -35604 -223985 0 -29119.5 -158435 0 -27570.2 -119227 0 -25124.6 -96320.8 0 2.6226e-06 -1.05269e+07 0 -2.44472e-07 -4.74095e+06 0 -2.14204e-08 -1.32775e+06 0 1.96509e-07 362430 0 -6.51926e-08 915107 0 -7.45058e-09 823008 0 2.23517e-08 462622 0 -1.49012e-07 81939.8 0 2.5332e-07 -189016 0 -2.68221e-07 -312808 0 2.68221e-07 -315023 0 -1.3411e-07 -249800 0 1.78814e-07 -169006 0 -1.93715e-07 -105249 0 2.08616e-07 -68585.5 0 -1.78814e-06 -53290.9 0 </DataArray> 
</PointData> 
<Points> 
<DataArray type="Float32" NumberOfComponents="3"> 
0.016 0.021 0 0.0199333 0.021 0 0.0238667 0.021 0 0.0278 0.021 0 0.0317333 0.021 0 0.0356667 0.021 0 0.0396 0.021 0 0.0435333 0.021 0 0.0474667 0.021 0 0.0514 0.021 0 0.0553333 0.021 0 0.0592667 0.021 0 0.0632 0.021 0 0.0671333 0.021 0 0.0710667 0.021 0 0.075 0.021 0 0.0216 0.0219333 0 0.0253156 0.0219333 0 0.0290311 0.0219333 0 0.0327467 0.0219333 0 0.0364622 0.0219333 0 0.0401778 0.0219333 0 0.0438933 0.0219333 0 0.0476089 0.0219333 0 0.0513244 0.0219333 0 0.05504 0.0219333 0 0.0587556 0.0219333 0 0.0624711 0.0219333 0 0.0661867 0.0219333 0 0.0699022 0.0219333 0 0.0736178 0.0219333 0 0.0773333 0.0219333 0 0.0272 0.0228667 0 0.0306978 0.0228667 0 0.0341956 0.0228667 0 0.0376933 0.0228667 0 0.0411911 0.0228667 0 0.0446889 0.0228667 0 0.0481867 0.0228667 0 0.0516844 0.0228667 0 0.0551822 0.0228667 0 0.05868 0.0228667 0 0.0621778 0.0228667 0 0.0656756 0.0228667 0 0.0691733 0.0228667 0 0.0726711 0.0228667 0 0.0761689 0.0228667 0 0.0796667 0.0228667 0 0.0328 0.0238 0 0.03608 0.0238 0 0.03936 0.0238 0 0.04264 0.0238 0 0.04592 0.0238 0 0.0492 0.0238 0 0.05248 0.0238 0 0.05576 0.0238 0 0.05904 0.0238 0 0.06232 0.0238 0 0.0656 0.0238 0 0.06888 0.0238 0 0.07216 0.0238 0 0.07544 0.0238 0 0.07872 0.0238 0 0.082 0.0238 0 0.0384 0.0247333 0 0.0414622 0.0247333 0 0.0445244 0.0247333 0 0.0475867 0.0247333 0 0.0506489 0.0247333 0 0.0537111 0.0247333 0 0.0567733 0.0247333 0 0.0598356 0.0247333 0 0.0628978 0.0247333 0 0.06596 0.0247333 0 0.0690222 0.0247333 0 0.0720844 0.0247333 0 0.0751467 0.0247333 0 0.0782089 0.0247333 0 0.0812711 0.0247333 0 0.0843333 0.0247333 0 0.044 0.0256667 0 0.0468444 0.0256667 0 0.0496889 0.0256667 0 0.0525333 0.0256667 0 0.0553778 0.0256667 0 0.0582222 0.0256667 0 0.0610667 0.0256667 0 0.0639111 0.0256667 0 0.0667556 0.0256667 0 0.0696 0.0256667 0 0.0724444 0.0256667 0 0.0752889 0.0256667 0 0.0781333 0.0256667 0 0.0809778 0.0256667 0 0.0838222 0.0256667 0 0.0866667 0.0256667 0 0.0496 0.0266 0 0.0522267 0.0266 0 0.0548533 0.0266 0 0.05748 0.0266 0 0.0601067 0.0266 0 0.0627333 0.0266 0 0.06536 0.0266 0 0.0679867 0.0266 0 0.0706133 0.0266 0 0.07324 0.0266 0 0.0758667 0.0266 0 0.0784933 0.0266 0 0.08112 0.0266 0 0.0837467 0.0266 0 0.0863733 0.0266 0 0.089 0.0266 0 0.0552 0.0275333 0 0.0576089 0.0275333 0 0.0600178 0.0275333 0 0.0624267 0.0275333 0 0.0648356 0.0275333 0 0.0672444 0.0275333 0 0.0696533 0.0275333 0 0.0720622 0.0275333 0 0.0744711 0.0275333 0 0.07688 0.0275333 0 0.0792889 0.0275333 0 0.0816978 0.0275333 0 0.0841067 0.0275333 0 0.0865156 0.0275333 0 0.0889244 0.0275333 0 0.0913333 0.0275333 0 0.0608 0.0284667 0 0.0629911 0.0284667 0 0.0651822 0.0284667 0 0.0673733 0.0284667 0 0.0695644 0.0284667 0 0.0717556 0.0284667 0 0.0739467 0.0284667 0 0.0761378 0.0284667 0 0.0783289 0.0284667 0 0.08052 0.0284667 0 0.0827111 0.0284667 0 0.0849022 0.0284667 0 0.0870933 0.0284667 0 0.0892844 0.0284667 0 0.0914756 0.0284667 0 0.0936667 0.0284667 0 0.0664 0.0294 0 0.0683733 0.0294 0 0.0703467 0.0294 0 0.07232 0.0294 0 0.0742933 0.0294 0 0.0762667 0.0294 0 0.07824 0.0294 0 0.0802133 0.0294 0 0.0821867 0.0294 0 0.08416 0.0294 0 0.0861333 0.0294 0 0.0881067 0.0294 0 0.09008 0.0294 0 0.0920533 0.0294 0 0.0940267 0.0294 0 0.096 0.0294 0 0.072 0.0303333 0 0.0737556 0.0303333 0 0.0755111 0.0303333 0 0.0772667 0.0303333 0 0.0790222 0.0303333 0 0.0807778 0.0303333 0 0.0825333 0.0303333 0 0.0842889 0.0303333 0 0.0860444 0.0303333 0 0.0878 0.0303333 0 0.0895556 0.0303333 0 0.0913111 0.0303333 0 0.0930667 0.0303333 0 0.0948222 0.0303333 0 0.0965778 0.0303333 0 0.0983333 0.0303333 0 0.0776 0.0312667 0 0.0791378 0.0312667 0 0.0806756 0.0312667 0 0.0822133 0.0312667 0 0.0837511 0.0312667 0 0.0852889 0.0312667 0 0.0868267 0.0312667 0 0.0883644 0.0312667 0 0.0899022 0.0312667 0 0.09144 0.0312667 0 0.0929778 0.0312667 0 0.0945156 0.0312667 0 0.0960533 0.0312667 0 0.0975911 0.0312667 0 0.0991289 0.0312667 0 0.100667 0.0312667 0 0.0832 0.0322 0 0.08452 0.0322 0 0.08584 0.0322 0 0.08716 0.0322 0 0.08848 0.0322 0 0.0898 0.0322 0 0.09112 0.0322 0 0.09244 0.0322 0 0.09376 0.0322 0 0.09508 0.0322 0 0.0964 0.0322 0 0.09772 0.0322 0 0.09904 0.0322 0 0.10036 0.0322 0 0.10168 0.0322 0 0.103 0.0322 0 0.0888 0.0331333 0 0.0899022 0.0331333 0 0.0910044 0.0331333 0 0.0921067 0.0331333 0 0.0932089 0.0331333 0 0.0943111 0.0331333 0 0.0954133 0.0331333 0 0.0965156 0.0331333 0 0.0976178 0.0331333 0 0.09872 0.0331333 0 0.0998222 0.0331333 0 0.100924 0.0331333 0 0.102027 0.0331333 0 0.103129 0.0331333 0 0.104231 0.0331333 0 0.105333 0.0331333 0 0.0944 0.0340667 0 0.0952844 0.0340667 0 0.0961689 0.0340667 0 0.0970533 0.0340667 0 0.0979378 0.0340667 0 0.0988222 0.0340667 0 0.0997067 0.0340667 0 0.100591 0.0340667 0 0.101476 0.0340667 0 0.10236 0.0340667 0 0.103244 0.0340667 0 0.104129 0.0340667 0 0.105013 0.0340667 0 0.105898 0.0340667 0 0.106782 0.0340667 0 0.107667 0.0340667 0 0.1 0.035 0 0.100667 0.035 0 0.101333 0.035 0 0.102 0.035 0 0.102667 0.035 0 0.103333 0.035 0 0.104 0.035 0 0.104667 0.035 0 0.105333 0.035 0 0.106 0.035 0 0.106667 0.035 0 0.107333 0.035 0 0.108 0.035 0 0.108667 0.035 0 0.109333 0.035 0 0.11 0.035 0 
</DataArray>
</Points> 
</Piece> 
</StructuredGrid> 
</VTKFile> 
