<?xml version="1.0"?> 
<VTKFile type="StructuredGrid" version="0.1"> 
<StructuredGrid WholeExtent="0 15 0 15 0 0"> 
<Piece Extent="0 15 0 15 0 0"> 
<PointData>
<DataArray type="Float32" Name="|E|" format="ascii" NumberOfComponents="3"> 
346878 5.20908e+06 0 568529 5.50088e+06 0 835172 5.78449e+06 0 1.15522e+06 6.06203e+06 0 1.54018e+06 6.33666e+06 0 2.00468e+06 6.60792e+06 0 2.56416e+06 6.86395e+06 0 3.22781e+06 7.07136e+06 0 3.98926e+06 7.17395e+06 0 4.82079e+06 7.107e+06 0 5.67566e+06 6.81974e+06 0 6.49734e+06 6.29297e+06 0 7.23097e+06 5.544e+06 0 7.83267e+06 4.62002e+06 0 8.27441e+06 3.58521e+06 0 8.54464e+06 2.50762e+06 0 859138 4.77675e+06 0 1.11429e+06 4.98279e+06 0 1.47294e+06 5.131e+06 0 1.91352e+06 5.19375e+06 0 2.40766e+06 5.14156e+06 0 2.9095e+06 4.95588e+06 0 3.36378e+06 4.6436e+06 0 3.72479e+06 4.23869e+06 0 3.97149e+06 3.78874e+06 0 4.10918e+06 3.33738e+06 0 4.16071e+06 2.91367e+06 0 4.15476e+06 2.53094e+06 0 4.11735e+06 2.19114e+06 0 4.06785e+06 1.89044e+06 0 4.01851e+06 1.6232e+06 0 3.97589e+06 1.38413e+06 0 1.05429e+06 4.47666e+06 0 1.33252e+06 4.55183e+06 0 1.69307e+06 4.54845e+06 0 2.09653e+06 4.4275e+06 0 2.48401e+06 4.17676e+06 0 2.79782e+06 3.81923e+06 0 3.00517e+06 3.40424e+06 0 3.10717e+06 2.98354e+06 0 3.12799e+06 2.5918e+06 0 3.09701e+06 2.24304e+06 0 3.03717e+06 1.93786e+06 0 2.96222e+06 1.67213e+06 0 2.87923e+06 1.44174e+06 0 2.79201e+06 1.24373e+06 0 2.70343e+06 1.07542e+06 0 2.61633e+06 933644 0 1.10222e+06 4.22647e+06 0 1.37322e+06 4.20521e+06 0 1.69879e+06 4.09308e+06 0 2.02632e+06 3.86454e+06 0 2.2968e+06 3.53201e+06 0 2.47291e+06 3.13965e+06 0 2.55168e+06 2.73797e+06 0 2.5537e+06 2.36167e+06 0 2.50448e+06 2.0256e+06 0 2.42411e+06 1.73234e+06 0 2.32623e+06 1.47972e+06 0 2.2205e+06 1.26388e+06 0 2.11425e+06 1.07963e+06 0 2.01275e+06 920563 0 1.919e+06 779866 0 1.83379e+06 651409 0 1.07211e+06 4.02422e+06 0 1.32671e+06 3.93223e+06 0 1.6086e+06 3.7474e+06 0 1.86536e+06 3.45947e+06 0 2.04887e+06 3.0957e+06 0 2.14062e+06 2.70338e+06 0 2.15111e+06 2.32344e+06 0 2.10323e+06 1.9785e+06 0 2.01892e+06 1.67631e+06 0 1.91519e+06 1.41656e+06 0 1.80423e+06 1.19483e+06 0 1.69383e+06 1.00471e+06 0 1.58787e+06 839704 0 1.48737e+06 694965 0 1.39197e+06 568012 0 1.3013e+06 458407 0 1.00555e+06 3.8618e+06 0 1.23743e+06 3.71696e+06 0 1.47747e+06 3.48246e+06 0 1.67649e+06 3.15982e+06 0 1.79806e+06 2.78326e+06 0 1.83577e+06 2.39738e+06 0 1.80569e+06 2.03512e+06 0 1.73044e+06 1.7124e+06 0 1.62999e+06 1.43287e+06 0 1.51879e+06 1.19345e+06 0 1.40565e+06 988354 0 1.29499e+06 811978 0 1.18875e+06 660248 0 1.08819e+06 530329 0 994451 419432 0 908346 323813 0 918731 3.73087e+06 0 1.12739e+06 3.54563e+06 0 1.33004e+06 3.2753e+06 0 1.48309e+06 2.93011e+06 0 1.55977e+06 2.5472e+06 0 1.56136e+06 2.16744e+06 0 1.50645e+06 1.81796e+06 0 1.4168e+06 1.51014e+06 0 1.30997e+06 1.24485e+06 0 1.19739e+06 1.01806e+06 0 1.08553e+06 824755 0 977955 660525 0 876821 521438 0 783242 403537 0 697174 303120 0 617785 217696 0 822199 3.62568e+06 0 1.00751e+06 3.40779e+06 0 1.17739e+06 3.10976e+06 0 1.29363e+06 2.74787e+06 0 1.33716e+06 2.36031e+06 0 1.31432e+06 1.98452e+06 0 1.24472e+06 1.64333e+06 0 1.14863e+06 1.34509e+06 0 1.04113e+06 1.08936e+06 0 931573 872265 0 825367 689243 0 725514 535747 0 633291 407443 0 548767 300741 0 471664 213150 0 401984 142691 0 720690 3.54105e+06 0 883376 3.29582e+06 0 1.0244e+06 2.97471e+06 0 1.11087e+06 2.59861e+06 0 1.1298e+06 2.20601e+06 0 1.09085e+06 1.83158e+06 0 1.01372e+06 1.49513e+06 0 916873 1.20319e+06 0 813306 954864 0 710907 746335 0 614041 572910 0 524690 429892 0 443425 313202 0 370332 219452 0 305353 145401 0 248013 87622.4 0 617161 3.47359e+06 0 757711 3.20419e+06 0 873096 2.86236e+06 0 935309 2.47262e+06 0 936243 2.07363e+06 0 887684 1.69811e+06 0 808689 1.36388e+06 0 715838 1.07648e+06 0 620266 834723 0 528416 634566 0 443472 471096 0 366671 339549 0 298368 235587 0 238466 155098 0 186463 94281.4 0 141835 50090.8 0 513053 3.42048e+06 0 631786 3.12886e+06 0 724076 2.76716e+06 0 766543 2.36313e+06 0 754987 1.95597e+06 0 702332 1.57724e+06 0 626423 1.24365e+06 0 541779 960123 0 457629 725047 0 378908 533970 0 307791 381594 0 245021 262638 0 190618 172023 0 144178 105058 0 105241 57619.9 0 73371.4 25828.3 0 409165 3.37981e+06 0 506036 3.06685e+06 0 577240 2.68499e+06 0 603852 2.26523e+06 0 584751 1.8479e+06 0 533057 1.46434e+06 0 464771 1.13068e+06 0 392042 851233 0 322070 623749 0 258351 443055 0 202243 303068 0 154023 197617 0 113427 120843 0 80022.4 67412.1 0 53316.2 32418.4 0 32708.4 11418.9 0 305850 3.35011e+06 0 380421 3.01595e+06 0 432120 2.61271e+06 0 446465 2.17515e+06 0 424583 1.74569e+06 0 378719 1.35622e+06 0 322257 1.02257e+06 0 264604 748215 0 210875 529819 0 163288 361064 0 122524 234702 0 88513.2 143509 0 60903.8 80723.2 0 39235.6 40133.3 0 22965 16159 0 11557.4 3938.51 0 203232 3.33039e+06 0 254599 2.97451e+06 0 288057 2.54785e+06 0 293691 2.08989e+06 0 273873 1.64646e+06 0 238633 1.2507e+06 0 197825 917945 0 157790 650330 0 121638 442869 0 90530 287647 0 64659.5 175992 0 43817.1 99480.8 0 27647.6 50301.8 0 15718 21420 0 7567.53 6689.17 0 2669.54 827.183 0 101304 3.31996e+06 0 128027 2.94127e+06 0 144290 2.48832e+06 0 144987 2.00697e+06 0 132340 1.54805e+06 0 112441 1.14634e+06 0 90650.8 816138 0 70081.2 557391 0 52085.2 362859 0 37056.5 222659 0 24965 126514 0 15624.1 64679.1 0 8781.9 28304.8 0 4159.21 9608.09 0 1432.14 1954.61 0 217.42 7.2436 0 0 3.31844e+06 0 0 2.91532e+06 0 0 2.43233e+06 0 0 1.92423e+06 0 0 1.44881e+06 0 0 1.04235e+06 0 0 717010 0 0 469572 0 0 289969 0 0 166082 0 0 85905.3 0 0 38356.3 0 0 13595.9 0 0 3191.4 0 0 326.034 0 0 -0.187708 0 </DataArray> 
</PointData> 
<Points> 
<DataArray type="Float32" NumberOfComponents="3"> 
0.189517 0.0588737 0 0.191017 0.058747 0 0.192446 0.0585707 0 0.193801 0.0583447 0 0.195078 0.0580689 0 0.196274 0.0577435 0 0.197385 0.0573689 0 0.19841 0.0569455 0 0.199345 0.0564743 0 0.200189 0.0559561 0 0.200941 0.0553921 0 0.201598 0.0547837 0 0.202161 0.0541325 0 0.202629 0.05344 0 0.203002 0.0527082 0 0.20328 0.0519391 0 0.189416 0.0624155 0 0.191641 0.062313 0 0.193805 0.0621622 0 0.195905 0.061963 0 0.197935 0.0617152 0 0.199891 0.0614188 0 0.201768 0.0610743 0 0.203563 0.0606821 0 0.205272 0.0602428 0 0.206891 0.0597573 0 0.208419 0.0592267 0 0.209851 0.058652 0 0.211187 0.0580348 0 0.212423 0.0573764 0 0.213559 0.0566786 0 0.214594 0.0559431 0 0.189314 0.0659572 0 0.192264 0.0658767 0 0.195163 0.0657495 0 0.198006 0.0655753 0 0.200786 0.065354 0 0.203499 0.0650857 0 0.20614 0.0647705 0 0.208702 0.064409 0 0.211183 0.0640016 0 0.213577 0.0635491 0 0.215879 0.0630524 0 0.218087 0.0625126 0 0.220197 0.0619307 0 0.222206 0.0613082 0 0.22411 0.0606465 0 0.225909 0.0599472 0 0.189213 0.069499 0 0.192887 0.0694382 0 0.196519 0.0693325 0 0.200103 0.0691817 0 0.203631 0.0689855 0 0.207099 0.0687441 0 0.210501 0.0684576 0 0.213829 0.0681264 0 0.217079 0.0677508 0 0.220245 0.0673316 0 0.223323 0.0668694 0 0.226307 0.0663653 0 0.229193 0.0658202 0 0.231977 0.0652353 0 0.234655 0.0646118 0 0.237224 0.0639512 0 0.189112 0.0730407 0 0.19351 0.0729974 0 0.197873 0.0729113 0 0.202196 0.0727821 0 0.206471 0.0726097 0 0.210691 0.0723942 0 0.214851 0.0721356 0 0.218942 0.0718342 0 0.22296 0.0714903 0 0.226898 0.0711046 0 0.23075 0.0706777 0 0.23451 0.0702103 0 0.238174 0.0697033 0 0.241736 0.0691577 0 0.245193 0.0685746 0 0.248538 0.0679553 0 0.189011 0.0765825 0 0.194132 0.0765544 0 0.199226 0.0764858 0 0.204286 0.0763766 0 0.209305 0.0762267 0 0.214275 0.0760359 0 0.21919 0.0758044 0 0.224042 0.0755324 0 0.228826 0.0752203 0 0.233533 0.0748684 0 0.238159 0.0744772 0 0.242697 0.0740475 0 0.24714 0.07358 0 0.251484 0.0730755 0 0.255724 0.0725349 0 0.259853 0.0719594 0 0.18891 0.0801242 0 0.194754 0.0801091 0 0.200577 0.0800561 0 0.206373 0.0799653 0 0.212133 0.0798363 0 0.217851 0.0796693 0 0.223518 0.0794642 0 0.229129 0.0792212 0 0.234677 0.0789407 0 0.240153 0.0786228 0 0.245552 0.0782681 0 0.250867 0.0778771 0 0.256092 0.0774504 0 0.261221 0.0769887 0 0.266248 0.0764927 0 0.271168 0.0759634 0 0.188809 0.083666 0 0.195376 0.0836615 0 0.201927 0.0836222 0 0.208456 0.083548 0 0.214956 0.0834388 0 0.221418 0.0832944 0 0.227836 0.083115 0 0.234204 0.0829006 0 0.240512 0.0826515 0 0.246756 0.082368 0 0.252928 0.0820503 0 0.259021 0.0816989 0 0.265029 0.0813144 0 0.270946 0.0808972 0 0.276765 0.080448 0 0.282482 0.0799675 0 0.188708 0.0872077 0 0.195997 0.0872117 0 0.203275 0.0871841 0 0.210536 0.0871249 0 0.217772 0.087034 0 0.224977 0.0869112 0 0.232144 0.0867567 0 0.239265 0.0865706 0 0.246333 0.0863529 0 0.253343 0.0861039 0 0.260287 0.0858239 0 0.267158 0.0855131 0 0.273951 0.0851721 0 0.280659 0.0848011 0 0.287276 0.0844008 0 0.293797 0.0839716 0 0.188607 0.0907495 0 0.196617 0.0907596 0 0.204621 0.0907418 0 0.212612 0.0906959 0 0.220584 0.090622 0 0.228528 0.0905198 0 0.23644 0.0903895 0 0.244313 0.0902312 0 0.252139 0.0900448 0 0.259913 0.0898307 0 0.267629 0.0895889 0 0.275279 0.0893197 0 0.282859 0.0890234 0 0.290361 0.0887004 0 0.297781 0.088351 0 0.305112 0.0879756 0 0.188506 0.0942912 0 0.197238 0.0943053 0 0.205966 0.0942953 0 0.214685 0.0942611 0 0.223389 0.0942028 0 0.232071 0.0941202 0 0.240726 0.0940134 0 0.249348 0.0938824 0 0.257931 0.0937273 0 0.266468 0.0935483 0 0.274954 0.0933453 0 0.283384 0.0931187 0 0.291752 0.0928685 0 0.300052 0.0925951 0 0.308278 0.0922988 0 0.316427 0.0919797 0 0.188404 0.097833 0 0.197858 0.0978487 0 0.207309 0.0978446 0 0.216755 0.0978205 0 0.226189 0.0977765 0 0.235607 0.0977124 0 0.245002 0.0976284 0 0.254371 0.0975244 0 0.263707 0.0974005 0 0.273006 0.0972567 0 0.282263 0.0970932 0 0.291473 0.09691 0 0.30063 0.0967073 0 0.309731 0.0964853 0 0.318769 0.096244 0 0.327741 0.0959837 0 0.188303 0.101375 0 0.198477 0.10139 0 0.208651 0.10139 0 0.218821 0.101374 0 0.228984 0.101343 0 0.239134 0.101296 0 0.249267 0.101235 0 0.25938 0.101157 0 0.269469 0.101064 0 0.279529 0.100956 0 0.289555 0.100833 0 0.299545 0.100694 0 0.309494 0.10054 0 0.319398 0.100371 0 0.329254 0.100187 0 0.339056 0.0999878 0 0.188202 0.104916 0 0.199096 0.104929 0 0.209991 0.104931 0 0.220884 0.104922 0 0.231772 0.104902 0 0.242653 0.104872 0 0.253522 0.104832 0 0.264377 0.104781 0 0.275216 0.104719 0 0.286035 0.104646 0 0.296831 0.104563 0 0.307602 0.10447 0 0.318344 0.104366 0 0.329055 0.104252 0 0.339731 0.104127 0 0.350371 0.103992 0 0.188101 0.108458 0 0.199715 0.108466 0 0.21133 0.108467 0 0.222944 0.108464 0 0.234556 0.108455 0 0.246164 0.10844 0 0.257766 0.10842 0 0.269362 0.108395 0 0.280949 0.108364 0 0.292525 0.108328 0 0.30409 0.108286 0 0.315642 0.108239 0 0.327179 0.108186 0 0.3387 0.108128 0 0.350202 0.108065 0 0.361685 0.107996 0 0.188 0.112 0 0.200333 0.112 0 0.212667 0.112 0 0.225 0.112 0 0.237333 0.112 0 0.249667 0.112 0 0.262 0.112 0 0.274333 0.112 0 0.286667 0.112 0 0.299 0.112 0 0.311333 0.112 0 0.323667 0.112 0 0.336 0.112 0 0.348333 0.112 0 0.360667 0.112 0 0.373 0.112 0 
</DataArray>
</Points> 
</Piece> 
</StructuredGrid> 
</VTKFile> 
