<?xml version="1.0"?> 
<VTKFile type="StructuredGrid" version="0.1"> 
<StructuredGrid WholeExtent="0 15 0 15 0 0"> 
<Piece Extent="0 15 0 15 0 0"> 
<PointData>
<DataArray type="Float32" Name="|E|" format="ascii" NumberOfComponents="3"> 
135365 4.33733e+06 0 177571 4.34666e+06 0 219829 4.35358e+06 0 261998 4.35693e+06 0 304031 4.35751e+06 0 345913 4.35612e+06 0 387638 4.35336e+06 0 429223 4.34979e+06 0 470695 4.34587e+06 0 512095 4.34204e+06 0 553457 4.33855e+06 0 594797 4.33543e+06 0 635985 4.33174e+06 0 676586 4.32479e+06 0 714563 4.30289e+06 0 739130 4.20711e+06 0 155507 4.28161e+06 0 187989 4.29231e+06 0 223796 4.29824e+06 0 261115 4.30091e+06 0 299409 4.30109e+06 0 338421 4.29941e+06 0 378026 4.29638e+06 0 418168 4.29249e+06 0 458820 4.2882e+06 0 499944 4.28395e+06 0 541429 4.28015e+06 0 582941 4.27718e+06 0 623621 4.27538e+06 0 661275 4.27505e+06 0 690439 4.27778e+06 0 701301 4.29439e+06 0 165834 4.24269e+06 0 194493 4.2473e+06 0 225720 4.24997e+06 0 259085 4.25051e+06 0 294074 4.24913e+06 0 330397 4.24615e+06 0 367904 4.24193e+06 0 406530 4.23685e+06 0 446264 4.23133e+06 0 487108 4.22581e+06 0 529044 4.22084e+06 0 571963 4.21708e+06 0 615584 4.21557e+06 0 659392 4.21804e+06 0 702860 4.22785e+06 0 745437 4.25114e+06 0 169839 4.2067e+06 0 195716 4.20745e+06 0 224075 4.20688e+06 0 254489 4.20479e+06 0 286726 4.2012e+06 0 320622 4.19624e+06 0 356093 4.19011e+06 0 393129 4.1831e+06 0 431782 4.17553e+06 0 472158 4.16777e+06 0 514418 4.16033e+06 0 558789 4.15383e+06 0 605612 4.14919e+06 0 655493 4.14771e+06 0 709624 4.15126e+06 0 771117 4.16226e+06 0 168400 4.17327e+06 0 192643 4.17101e+06 0 218758 4.16758e+06 0 246778 4.16287e+06 0 276630 4.15684e+06 0 308270 4.14952e+06 0 341700 4.14104e+06 0 376981 4.13155e+06 0 414233 4.12128e+06 0 453655 4.11048e+06 0 495534 4.09949e+06 0 540285 4.08872e+06 0 588516 4.07868e+06 0 641148 4.06999e+06 0 699609 4.06329e+06 0 765677 4.0591e+06 0 163588 4.14223e+06 0 185922 4.13743e+06 0 210020 4.13148e+06 0 235862 4.12429e+06 0 263470 4.11579e+06 0 292881 4.10598e+06 0 324160 4.09491e+06 0 357421 4.08264e+06 0 392832 4.06928e+06 0 430634 4.05497e+06 0 471157 4.03987e+06 0 514853 4.02415e+06 0 562333 4.00796e+06 0 614423 3.99143e+06 0 672218 3.97454e+06 0 737269 3.95697e+06 0 155496 4.11355e+06 0 176069 4.10658e+06 0 198156 4.09839e+06 0 221843 4.08888e+06 0 247193 4.078e+06 0 274285 4.06572e+06 0 303221 4.052e+06 0 334139 4.03687e+06 0 367223 4.02032e+06 0 402716 4.0024e+06 0 440928 3.9831e+06 0 482259 3.96242e+06 0 527211 3.94031e+06 0 576402 3.91659e+06 0 630582 3.89098e+06 0 690521 3.86292e+06 0 144810 4.08739e+06 0 163443 4.0785e+06 0 183454 4.06829e+06 0 204913 4.05668e+06 0 227903 4.04358e+06 0 252521 4.02893e+06 0 278882 4.01267e+06 0 307126 3.99476e+06 0 337428 3.97514e+06 0 370004 3.95375e+06 0 405117 3.93051e+06 0 443079 3.9053e+06 0 484259 3.87794e+06 0 529076 3.84816e+06 0 577982 3.81556e+06 0 631461 3.77957e+06 0 131755 4.06386e+06 0 148376 4.0533e+06 0 166203 4.04131e+06 0 185319 4.02779e+06 0 205812 4.01267e+06 0 227779 3.99585e+06 0 251331 3.97725e+06 0 276598 3.95678e+06 0 303732 3.93434e+06 0 332910 3.90982e+06 0 364336 3.88308e+06 0 398239 3.85395e+06 0 434868 3.82219e+06 0 474484 3.7875e+06 0 517341 3.74951e+06 0 563645 3.70772e+06 0 116695 4.04314e+06 0 131173 4.03112e+06 0 146699 4.01757e+06 0 163347 4.00239e+06 0 181198 3.98547e+06 0 200342 3.96673e+06 0 220877 3.94605e+06 0 242914 3.92331e+06 0 266577 3.8984e+06 0 292003 3.87117e+06 0 319340 3.84145e+06 0 348747 3.80904e+06 0 380382 3.77372e+06 0 414394 3.7352e+06 0 450908 3.69313e+06 0 490006 3.64713e+06 0 99902.5 4.02535e+06 0 112136 4.01209e+06 0 125249 3.99721e+06 0 139310 3.98061e+06 0 154387 3.96216e+06 0 170558 3.94177e+06 0 187903 3.91931e+06 0 206511 3.89464e+06 0 226478 3.86764e+06 0 247906 3.83814e+06 0 270898 3.80598e+06 0 295557 3.77095e+06 0 321977 3.73283e+06 0 350236 3.69137e+06 0 380381 3.64629e+06 0 412415 3.59728e+06 0 81670 4.01062e+06 0 91563.5 3.99635e+06 0 102169 3.98038e+06 0 113539 3.9626e+06 0 125731 3.94289e+06 0 138804 3.92114e+06 0 152823 3.89722e+06 0 167855 3.87098e+06 0 183971 3.84229e+06 0 201241 3.81098e+06 0 219734 3.77688e+06 0 239515 3.7398e+06 0 260635 3.69955e+06 0 283128 3.65591e+06 0 307001 3.60865e+06 0 332226 3.55752e+06 0 62277.6 3.99907e+06 0 69758.3 3.98401e+06 0 77777.9 3.96718e+06 0 86375.5 3.94848e+06 0 95593.1 3.92779e+06 0 105475 3.90498e+06 0 116068 3.87992e+06 0 127420 3.85247e+06 0 139579 3.82247e+06 0 152592 3.78979e+06 0 166504 3.75423e+06 0 181351 3.71565e+06 0 197159 3.67384e+06 0 213938 3.62863e+06 0 231679 3.57983e+06 0 250344 3.52726e+06 0 42009 3.99077e+06 0 47024 3.97513e+06 0 52400.8 3.95769e+06 0 58165.1 3.93834e+06 0 64344.5 3.91694e+06 0 70968 3.89337e+06 0 78065.6 3.8675e+06 0 85667.7 3.83919e+06 0 93804.4 3.80828e+06 0 102504 3.77463e+06 0 111793 3.73807e+06 0 121689 3.69844e+06 0 132205 3.65558e+06 0 143341 3.60933e+06 0 155083 3.55952e+06 0 167400 3.50601e+06 0 21152.2 3.98577e+06 0 23667.6 3.96979e+06 0 26364.9 3.95198e+06 0 29256.7 3.93223e+06 0 32356.6 3.91041e+06 0 35678.7 3.88639e+06 0 39237.8 3.86004e+06 0 43048.6 3.83121e+06 0 47125.5 3.79976e+06 0 51481.8 3.76553e+06 0 56128.9 3.72838e+06 0 61075.3 3.68815e+06 0 66325.1 3.64468e+06 0 71876.6 3.59782e+06 0 77721 3.54744e+06 0 83841.2 3.49341e+06 0 0 3.98411e+06 0 0 3.96801e+06 0 0 3.95008e+06 0 0 3.93019e+06 0 0 3.90823e+06 0 0 3.88406e+06 0 0 3.85755e+06 0 0 3.82855e+06 0 0 3.79692e+06 0 0 3.76251e+06 0 0 3.72516e+06 0 0 3.68473e+06 0 0 3.64105e+06 0 0 3.594e+06 0 0 3.54344e+06 0 0 3.48924e+06 0 </DataArray> 
</PointData> 
<Points> 
<DataArray type="Float32" NumberOfComponents="3"> 
0.146516 0.0632352 0 0.148847 0.0631512 0 0.151179 0.0630448 0 0.15351 0.0629158 0 0.155842 0.0627643 0 0.158174 0.0625904 0 0.160507 0.0623939 0 0.162839 0.062175 0 0.165172 0.0619336 0 0.167505 0.0616697 0 0.169838 0.0613833 0 0.172171 0.0610744 0 0.174505 0.060743 0 0.176838 0.0603892 0 0.179172 0.0600128 0 0.181506 0.059614 0 0.146515 0.0664862 0 0.148846 0.0664078 0 0.151178 0.0663084 0 0.15351 0.0661881 0 0.155842 0.0660467 0 0.158174 0.0658843 0 0.160506 0.065701 0 0.162839 0.0654967 0 0.165171 0.0652713 0 0.167504 0.065025 0 0.169838 0.0647577 0 0.172171 0.0644694 0 0.174504 0.0641602 0 0.176838 0.0638299 0 0.179172 0.0634786 0 0.181506 0.0631064 0 0.146514 0.0697372 0 0.148845 0.0696644 0 0.151177 0.0695721 0 0.153509 0.0694603 0 0.155841 0.0693291 0 0.158173 0.0691783 0 0.160506 0.0690081 0 0.162838 0.0688183 0 0.165171 0.0686091 0 0.167504 0.0683804 0 0.169837 0.0681322 0 0.17217 0.0678645 0 0.174504 0.0675773 0 0.176838 0.0672706 0 0.179171 0.0669444 0 0.181505 0.0665988 0 0.146513 0.0729882 0 0.148844 0.072921 0 0.151176 0.0728358 0 0.153508 0.0727326 0 0.15584 0.0726114 0 0.158173 0.0724723 0 0.160505 0.0723151 0 0.162838 0.07214 0 0.165171 0.0719469 0 0.167504 0.0717357 0 0.169837 0.0715066 0 0.17217 0.0712595 0 0.174504 0.0709944 0 0.176837 0.0707113 0 0.179171 0.0704103 0 0.181505 0.0700912 0 0.146512 0.0762392 0 0.148843 0.0761776 0 0.151175 0.0760995 0 0.153508 0.0760049 0 0.15584 0.0758938 0 0.158172 0.0757663 0 0.160505 0.0756222 0 0.162838 0.0754617 0 0.16517 0.0752846 0 0.167503 0.0750911 0 0.169837 0.0748811 0 0.17217 0.0746546 0 0.174503 0.0744116 0 0.176837 0.0741521 0 0.179171 0.0738761 0 0.181504 0.0735836 0 0.146511 0.0794902 0 0.148843 0.0794342 0 0.151175 0.0793632 0 0.153507 0.0792772 0 0.155839 0.0791762 0 0.158172 0.0790602 0 0.160504 0.0789293 0 0.162837 0.0787833 0 0.16517 0.0786224 0 0.167503 0.0784464 0 0.169836 0.0782555 0 0.17217 0.0780496 0 0.174503 0.0778287 0 0.176837 0.0775928 0 0.17917 0.0773419 0 0.181504 0.077076 0 0.146509 0.0827411 0 0.148842 0.0826907 0 0.151174 0.0826269 0 0.153506 0.0825495 0 0.155839 0.0824586 0 0.158171 0.0823542 0 0.160504 0.0822364 0 0.162837 0.082105 0 0.16517 0.0819601 0 0.167503 0.0818018 0 0.169836 0.08163 0 0.172169 0.0814446 0 0.174503 0.0812458 0 0.176836 0.0810335 0 0.17917 0.0808077 0 0.181504 0.0805684 0 0.146508 0.0859921 0 0.148841 0.0859473 0 0.151173 0.0858905 0 0.153506 0.0858217 0 0.155838 0.085741 0 0.158171 0.0856482 0 0.160504 0.0855434 0 0.162836 0.0854267 0 0.165169 0.0852979 0 0.167503 0.0851572 0 0.169836 0.0850044 0 0.172169 0.0848397 0 0.174502 0.0846629 0 0.176836 0.0844742 0 0.17917 0.0842735 0 0.181503 0.0840608 0 0.146507 0.0892431 0 0.14884 0.0892039 0 0.151172 0.0891542 0 0.153505 0.089094 0 0.155837 0.0890233 0 0.15817 0.0889422 0 0.160503 0.0888505 0 0.162836 0.0887483 0 0.165169 0.0886357 0 0.167502 0.0885125 0 0.169835 0.0883789 0 0.172169 0.0882347 0 0.174502 0.0880801 0 0.176836 0.0879149 0 0.179169 0.0877393 0 0.181503 0.0875532 0 0.146506 0.0924941 0 0.148839 0.0924605 0 0.151171 0.0924179 0 0.153504 0.0923663 0 0.155837 0.0923057 0 0.15817 0.0922361 0 0.160503 0.0921576 0 0.162836 0.09207 0 0.165169 0.0919734 0 0.167502 0.0918679 0 0.169835 0.0917533 0 0.172168 0.0916298 0 0.174502 0.0914972 0 0.176835 0.0913557 0 0.179169 0.0912051 0 0.181502 0.0910456 0 0.146505 0.0957451 0 0.148838 0.0957171 0 0.151171 0.0956816 0 0.153503 0.0956386 0 0.155836 0.0955881 0 0.158169 0.0955301 0 0.160502 0.0954646 0 0.162835 0.0953917 0 0.165168 0.0953112 0 0.167502 0.0952232 0 0.169835 0.0951278 0 0.172168 0.0950248 0 0.174502 0.0949143 0 0.176835 0.0947964 0 0.179168 0.0946709 0 0.181502 0.094538 0 0.146504 0.0989961 0 0.148837 0.0989737 0 0.15117 0.0989453 0 0.153503 0.0989109 0 0.155836 0.0988705 0 0.158169 0.0988241 0 0.160502 0.0987717 0 0.162835 0.0987133 0 0.165168 0.098649 0 0.167501 0.0985786 0 0.169835 0.0985022 0 0.172168 0.0984198 0 0.174501 0.0983315 0 0.176835 0.0982371 0 0.179168 0.0981368 0 0.181502 0.0980304 0 0.146503 0.102247 0 0.148836 0.10223 0 0.151169 0.102209 0 0.153502 0.102183 0 0.155835 0.102153 0 0.158168 0.102118 0 0.160501 0.102079 0 0.162834 0.102035 0 0.165168 0.101987 0 0.167501 0.101934 0 0.169834 0.101877 0 0.172168 0.101815 0 0.174501 0.101749 0 0.176834 0.101678 0 0.179168 0.101603 0 0.181501 0.101523 0 0.146502 0.105498 0 0.148835 0.105487 0 0.151168 0.105473 0 0.153501 0.105455 0 0.155835 0.105435 0 0.158168 0.105412 0 0.160501 0.105386 0 0.162834 0.105357 0 0.165167 0.105324 0 0.167501 0.105289 0 0.169834 0.105251 0 0.172167 0.10521 0 0.174501 0.105166 0 0.176834 0.105119 0 0.179167 0.105068 0 0.181501 0.105015 0 0.146501 0.108749 0 0.148834 0.108743 0 0.151167 0.108736 0 0.153501 0.108728 0 0.155834 0.108718 0 0.158167 0.108706 0 0.1605 0.108693 0 0.162834 0.108678 0 0.165167 0.108662 0 0.1675 0.108645 0 0.169834 0.108626 0 0.172167 0.108605 0 0.1745 0.108583 0 0.176834 0.108559 0 0.179167 0.108534 0 0.1815 0.108508 0 0.1465 0.112 0 0.148833 0.112 0 0.151167 0.112 0 0.1535 0.112 0 0.155833 0.112 0 0.158167 0.112 0 0.1605 0.112 0 0.162833 0.112 0 0.165167 0.112 0 0.1675 0.112 0 0.169833 0.112 0 0.172167 0.112 0 0.1745 0.112 0 0.176833 0.112 0 0.179167 0.112 0 0.1815 0.112 0 
</DataArray>
</Points> 
</Piece> 
</StructuredGrid> 
</VTKFile> 
