<?xml version="1.0"?> 
<VTKFile type="StructuredGrid" version="0.1"> 
<StructuredGrid WholeExtent="0 15 0 15 0 0"> 
<Piece Extent="0 15 0 15 0 0"> 
<PointData>
<DataArray type="Float32" Name="|E|" format="ascii" NumberOfComponents="3"> 
-2.07674e+06 47842.6 0 -2.09806e+06 83132.4 0 -2.12981e+06 117698 0 -2.17242e+06 151961 0 -2.22653e+06 186363 0 -2.29298e+06 221383 0 -2.37288e+06 257469 0 -2.46773e+06 295096 0 -2.5795e+06 334409 0 -2.71102e+06 375041 0 -2.86615e+06 414854 0 -3.04939e+06 448171 0 -3.26589e+06 457765 0 -3.50974e+06 413138 0 -3.73075e+06 257791 0 -3.81537e+06 -3.57628e-07 0 -2.07602e+06 54251 0 -2.09838e+06 90058.2 0 -2.13095e+06 125346 0 -2.17421e+06 160545 0 -2.22876e+06 196114 0 -2.29543e+06 232553 0 -2.37533e+06 270354 0 -2.46994e+06 310026 0 -2.5813e+06 351817 0 -2.71227e+06 395433 0 -2.86704e+06 438968 0 -3.05093e+06 476719 0 -3.27104e+06 491814 0 -3.52515e+06 450364 0 -3.76536e+06 287218 0 -3.86101e+06 1.77999e-07 0 -2.07545e+06 60880.5 0 -2.09879e+06 97215.8 0 -2.13216e+06 133234 0 -2.17601e+06 169375 0 -2.23095e+06 206113 0 -2.2978e+06 243975 0 -2.37765e+06 283489 0 -2.47196e+06 325211 0 -2.58283e+06 369480 0 -2.71317e+06 416123 0 -2.8675e+06 463446 0 -3.05194e+06 505965 0 -3.27569e+06 527142 0 -3.54093e+06 490379 0 -3.80341e+06 320278 0 -3.91327e+06 -1.47149e-07 0 -2.07502e+06 67732.5 0 -2.0993e+06 104606 0 -2.13342e+06 141363 0 -2.17782e+06 178451 0 -2.23311e+06 216362 0 -2.30008e+06 255648 0 -2.37982e+06 296873 0 -2.47378e+06 340648 0 -2.58408e+06 387400 0 -2.71371e+06 437109 0 -2.86749e+06 488302 0 -3.05236e+06 535912 0 -3.2797e+06 563846 0 -3.55683e+06 533486 0 -3.84516e+06 357791 0 -3.97326e+06 2.15136e-07 0 -2.07473e+06 74808.2 0 -2.09991e+06 112231 0 -2.13473e+06 149734 0 -2.17964e+06 187774 0 -2.23522e+06 226861 0 -2.30227e+06 267572 0 -2.38185e+06 310506 0 -2.47539e+06 356335 0 -2.58505e+06 405577 0 -2.71387e+06 458385 0 -2.86698e+06 513541 0 -3.0521e+06 566561 0 -3.2829e+06 602014 0 -3.57252e+06 580000 0 -3.89089e+06 400797 0 -4.04244e+06 -3.50177e-07 0 -2.07458e+06 82109 0 -2.10061e+06 120091 0 -2.1361e+06 158347 0 -2.18147e+06 197346 0 -2.2373e+06 237610 0 -2.30437e+06 279749 0 -2.38373e+06 324388 0 -2.47679e+06 372272 0 -2.58572e+06 424010 0 -2.71363e+06 479948 0 -2.86595e+06 539167 0 -3.05107e+06 597906 0 -3.2851e+06 641722 0 -3.58759e+06 630234 0 -3.94081e+06 450617 0 -4.12276e+06 3.46452e-07 0 -2.07456e+06 89636.2 0 -2.1014e+06 128188 0 -2.13751e+06 167205 0 -2.1833e+06 207167 0 -2.23933e+06 248611 0 -2.30638e+06 292177 0 -2.38544e+06 338519 0 -2.47796e+06 388458 0 -2.58609e+06 442697 0 -2.71297e+06 501794 0 -2.86433e+06 565179 0 -3.04919e+06 629930 0 -3.28609e+06 683029 0 -3.60146e+06 684468 0 -3.99509e+06 508938 0 -4.21694e+06 -1.3411e-07 0 -2.07468e+06 97391.1 0 -2.10229e+06 136522 0 -2.13897e+06 176308 0 -2.18513e+06 217237 0 -2.2413e+06 259864 0 -2.30828e+06 304858 0 -2.38699e+06 352898 0 -2.4789e+06 404891 0 -2.58613e+06 461636 0 -2.71188e+06 523917 0 -2.86211e+06 591572 0 -3.04636e+06 662602 0 -3.28563e+06 725981 0 -3.61343e+06 742911 0 -4.05373e+06 577932 0 -4.32879e+06 -1.19209e-07 0 -2.07493e+06 105375 0 -2.10326e+06 145096 0 -2.14047e+06 185658 0 -2.18695e+06 227558 0 -2.24323e+06 271370 0 -2.31008e+06 317790 0 -2.38837e+06 367523 0 -2.4796e+06 421569 0 -2.58584e+06 480823 0 -2.71034e+06 546309 0 -2.85923e+06 618337 0 -3.04247e+06 695874 0 -3.28348e+06 770609 0 -3.62255e+06 805648 0 -4.11644e+06 660378 0 -4.46389e+06 1.3411e-07 0 -2.07531e+06 113590 0 -2.10432e+06 153910 0 -2.14201e+06 195254 0 -2.18877e+06 238130 0 -2.24509e+06 283129 0 -2.31176e+06 330973 0 -2.38957e+06 382393 0 -2.48007e+06 438492 0 -2.5852e+06 500253 0 -2.70832e+06 568963 0 -2.85564e+06 645457 0 -3.03741e+06 729685 0 -3.2794e+06 816916 0 -3.62766e+06 872573 0 -4.1824e+06 759811 0 -4.63071e+06 -2.16067e-07 0 -2.07582e+06 122036 0 -2.10546e+06 162967 0 -2.14359e+06 205099 0 -2.19058e+06 248954 0 -2.2469e+06 295142 0 -2.31334e+06 344407 0 -2.39059e+06 397506 0 -2.48028e+06 455657 0 -2.5842e+06 519916 0 -2.70581e+06 591876 0 -2.85131e+06 672899 0 -3.03106e+06 763969 0 -3.27316e+06 864854 0 -3.6273e+06 943329 0 -4.24979e+06 880615 0 -4.84269e+06 3.05474e-07 0 -2.07645e+06 130715 0 -2.10667e+06 172267 0 -2.1452e+06 215192 0 -2.19237e+06 260032 0 -2.24863e+06 307409 0 -2.31479e+06 358091 0 -2.39141e+06 412861 0 -2.48024e+06 473066 0 -2.58281e+06 539796 0 -2.70279e+06 615056 0 -2.84619e+06 700587 0 -3.02326e+06 798705 0 -3.2646e+06 914240 0 -3.61978e+06 1.01732e+06 0 -4.31494e+06 1.02794e+06 0 -5.12217e+06 -2.23517e-07 0 -2.0772e+06 139628 0 -2.10797e+06 181812 0 -2.14685e+06 225535 0 -2.19414e+06 271364 0 -2.2503e+06 319932 0 -2.31612e+06 372025 0 -2.39202e+06 428452 0 -2.47993e+06 490724 0 -2.58102e+06 559859 0 -2.69921e+06 638555 0 -2.84029e+06 728347 0 -3.01384e+06 834034 0 -3.25364e+06 964526 0 -3.60325e+06 1.09396e+06 0 -4.37077e+06 1.20714e+06 0 -5.50792e+06 1.49012e-07 0 -2.07807e+06 148773 0 -2.10934e+06 191604 0 -2.14852e+06 236129 0 -2.19589e+06 282950 0 -2.2519e+06 332710 0 -2.31731e+06 386206 0 -2.39243e+06 444273 0 -2.47935e+06 508648 0 -2.57884e+06 580034 0 -2.69503e+06 662518 0 -2.83363e+06 755762 0 -3.00252e+06 870561 0 -3.24034e+06 1.01422e+06 0 -3.57608e+06 1.17351e+06 0 -4.40358e+06 1.4219e+06 0 -6.07044e+06 -1.93715e-07 0 -2.07906e+06 158149 0 -2.11079e+06 201643 0 -2.15021e+06 246976 0 -2.19761e+06 294793 0 -2.25342e+06 345744 0 -2.31836e+06 400636 0 -2.39263e+06 460311 0 -2.47846e+06 526877 0 -2.5763e+06 600163 0 -2.69011e+06 687318 0 -2.82638e+06 781852 0 -2.98887e+06 910072 0 -3.22491e+06 1.05947e+06 0 -3.53784e+06 1.25961e+06 0 -4.38684e+06 1.66939e+06 0 -6.94269e+06 1.49012e-07 0 -2.08015e+06 167756 0 -2.1123e+06 211929 0 -2.15193e+06 258076 0 -2.19929e+06 306892 0 -2.25487e+06 359034 0 -2.31925e+06 415315 0 -2.39265e+06 476540 0 -2.4772e+06 545505 0 -2.57349e+06 619918 0 -2.68419e+06 713816 0 -2.81897e+06 804401 0 -2.97214e+06 957070 0 -3.20766e+06 1.09086e+06 0 -3.49151e+06 1.36518e+06 0 -4.26837e+06 1.92889e+06 0 -8.38461e+06 -3.57628e-07 0 </DataArray> 
</PointData> 
<Points> 
<DataArray type="Float32" NumberOfComponents="3"> 
0.006 0.016 0 0.0106 0.0156 0 0.0152 0.0152 0 0.0198 0.0148 0 0.0244 0.0144 0 0.029 0.014 0 0.0336 0.0136 0 0.0382 0.0132 0 0.0428 0.0128 0 0.0474 0.0124 0 0.052 0.012 0 0.0566 0.0116 0 0.0612 0.0112 0 0.0658 0.0108 0 0.0704 0.0104 0 0.075 0.01 0 0.00666667 0.0163333 0 0.0112222 0.01596 0 0.0157778 0.0155867 0 0.0203333 0.0152133 0 0.0248889 0.01484 0 0.0294444 0.0144667 0 0.034 0.0140933 0 0.0385556 0.01372 0 0.0431111 0.0133467 0 0.0476667 0.0129733 0 0.0522222 0.0126 0 0.0567778 0.0122267 0 0.0613333 0.0118533 0 0.0658889 0.01148 0 0.0704444 0.0111067 0 0.075 0.0107333 0 0.00733333 0.0166667 0 0.0118444 0.01632 0 0.0163556 0.0159733 0 0.0208667 0.0156267 0 0.0253778 0.01528 0 0.0298889 0.0149333 0 0.0344 0.0145867 0 0.0389111 0.01424 0 0.0434222 0.0138933 0 0.0479333 0.0135467 0 0.0524444 0.0132 0 0.0569556 0.0128533 0 0.0614667 0.0125067 0 0.0659778 0.01216 0 0.0704889 0.0118133 0 0.075 0.0114667 0 0.008 0.017 0 0.0124667 0.01668 0 0.0169333 0.01636 0 0.0214 0.01604 0 0.0258667 0.01572 0 0.0303333 0.0154 0 0.0348 0.01508 0 0.0392667 0.01476 0 0.0437333 0.01444 0 0.0482 0.01412 0 0.0526667 0.0138 0 0.0571333 0.01348 0 0.0616 0.01316 0 0.0660667 0.01284 0 0.0705333 0.01252 0 0.075 0.0122 0 0.00866667 0.0173333 0 0.0130889 0.01704 0 0.0175111 0.0167467 0 0.0219333 0.0164533 0 0.0263556 0.01616 0 0.0307778 0.0158667 0 0.0352 0.0155733 0 0.0396222 0.01528 0 0.0440444 0.0149867 0 0.0484667 0.0146933 0 0.0528889 0.0144 0 0.0573111 0.0141067 0 0.0617333 0.0138133 0 0.0661556 0.01352 0 0.0705778 0.0132267 0 0.075 0.0129333 0 0.00933333 0.0176667 0 0.0137111 0.0174 0 0.0180889 0.0171333 0 0.0224667 0.0168667 0 0.0268444 0.0166 0 0.0312222 0.0163333 0 0.0356 0.0160667 0 0.0399778 0.0158 0 0.0443556 0.0155333 0 0.0487333 0.0152667 0 0.0531111 0.015 0 0.0574889 0.0147333 0 0.0618667 0.0144667 0 0.0662444 0.0142 0 0.0706222 0.0139333 0 0.075 0.0136667 0 0.01 0.018 0 0.0143333 0.01776 0 0.0186667 0.01752 0 0.023 0.01728 0 0.0273333 0.01704 0 0.0316667 0.0168 0 0.036 0.01656 0 0.0403333 0.01632 0 0.0446667 0.01608 0 0.049 0.01584 0 0.0533333 0.0156 0 0.0576667 0.01536 0 0.062 0.01512 0 0.0663333 0.01488 0 0.0706667 0.01464 0 0.075 0.0144 0 0.0106667 0.0183333 0 0.0149556 0.01812 0 0.0192444 0.0179067 0 0.0235333 0.0176933 0 0.0278222 0.01748 0 0.0321111 0.0172667 0 0.0364 0.0170533 0 0.0406889 0.01684 0 0.0449778 0.0166267 0 0.0492667 0.0164133 0 0.0535556 0.0162 0 0.0578444 0.0159867 0 0.0621333 0.0157733 0 0.0664222 0.01556 0 0.0707111 0.0153467 0 0.075 0.0151333 0 0.0113333 0.0186667 0 0.0155778 0.01848 0 0.0198222 0.0182933 0 0.0240667 0.0181067 0 0.0283111 0.01792 0 0.0325556 0.0177333 0 0.0368 0.0175467 0 0.0410444 0.01736 0 0.0452889 0.0171733 0 0.0495333 0.0169867 0 0.0537778 0.0168 0 0.0580222 0.0166133 0 0.0622667 0.0164267 0 0.0665111 0.01624 0 0.0707556 0.0160533 0 0.075 0.0158667 0 0.012 0.019 0 0.0162 0.01884 0 0.0204 0.01868 0 0.0246 0.01852 0 0.0288 0.01836 0 0.033 0.0182 0 0.0372 0.01804 0 0.0414 0.01788 0 0.0456 0.01772 0 0.0498 0.01756 0 0.054 0.0174 0 0.0582 0.01724 0 0.0624 0.01708 0 0.0666 0.01692 0 0.0708 0.01676 0 0.075 0.0166 0 0.0126667 0.0193333 0 0.0168222 0.0192 0 0.0209778 0.0190667 0 0.0251333 0.0189333 0 0.0292889 0.0188 0 0.0334444 0.0186667 0 0.0376 0.0185333 0 0.0417556 0.0184 0 0.0459111 0.0182667 0 0.0500667 0.0181333 0 0.0542222 0.018 0 0.0583778 0.0178667 0 0.0625333 0.0177333 0 0.0666889 0.0176 0 0.0708444 0.0174667 0 0.075 0.0173333 0 0.0133333 0.0196667 0 0.0174444 0.01956 0 0.0215556 0.0194533 0 0.0256667 0.0193467 0 0.0297778 0.01924 0 0.0338889 0.0191333 0 0.038 0.0190267 0 0.0421111 0.01892 0 0.0462222 0.0188133 0 0.0503333 0.0187067 0 0.0544444 0.0186 0 0.0585556 0.0184933 0 0.0626667 0.0183867 0 0.0667778 0.01828 0 0.0708889 0.0181733 0 0.075 0.0180667 0 0.014 0.02 0 0.0180667 0.01992 0 0.0221333 0.01984 0 0.0262 0.01976 0 0.0302667 0.01968 0 0.0343333 0.0196 0 0.0384 0.01952 0 0.0424667 0.01944 0 0.0465333 0.01936 0 0.0506 0.01928 0 0.0546667 0.0192 0 0.0587333 0.01912 0 0.0628 0.01904 0 0.0668667 0.01896 0 0.0709333 0.01888 0 0.075 0.0188 0 0.0146667 0.0203333 0 0.0186889 0.02028 0 0.0227111 0.0202267 0 0.0267333 0.0201733 0 0.0307556 0.02012 0 0.0347778 0.0200667 0 0.0388 0.0200133 0 0.0428222 0.01996 0 0.0468444 0.0199067 0 0.0508667 0.0198533 0 0.0548889 0.0198 0 0.0589111 0.0197467 0 0.0629333 0.0196933 0 0.0669556 0.01964 0 0.0709778 0.0195867 0 0.075 0.0195333 0 0.0153333 0.0206667 0 0.0193111 0.02064 0 0.0232889 0.0206133 0 0.0272667 0.0205867 0 0.0312444 0.02056 0 0.0352222 0.0205333 0 0.0392 0.0205067 0 0.0431778 0.02048 0 0.0471556 0.0204533 0 0.0511333 0.0204267 0 0.0551111 0.0204 0 0.0590889 0.0203733 0 0.0630667 0.0203467 0 0.0670444 0.02032 0 0.0710222 0.0202933 0 0.075 0.0202667 0 0.016 0.021 0 0.0199333 0.021 0 0.0238667 0.021 0 0.0278 0.021 0 0.0317333 0.021 0 0.0356667 0.021 0 0.0396 0.021 0 0.0435333 0.021 0 0.0474667 0.021 0 0.0514 0.021 0 0.0553333 0.021 0 0.0592667 0.021 0 0.0632 0.021 0 0.0671333 0.021 0 0.0710667 0.021 0 0.075 0.021 0 
</DataArray>
</Points> 
</Piece> 
</StructuredGrid> 
</VTKFile> 
