<?xml version="1.0"?> 
<VTKFile type="StructuredGrid" version="0.1"> 
<StructuredGrid WholeExtent="0 15 0 15 0 0"> 
<Piece Extent="0 15 0 15 0 0"> 
<PointData>
<DataArray type="Float32" Name="|E|" format="ascii" NumberOfComponents="3"> 
-1.8387e+06 0 0 -1.84655e+06 105952 0 -1.87009e+06 213991 0 -1.90929e+06 326361 0 -1.96389e+06 445645 0 -2.03355e+06 575129 0 -2.11635e+06 718996 0 -2.20977e+06 883594 0 -2.30301e+06 1.07828e+06 0 -2.37406e+06 1.31214e+06 0 -2.36189e+06 1.5905e+06 0 -2.16642e+06 1.8018e+06 0 -1.84824e+06 1.7351e+06 0 -1.60549e+06 1.33086e+06 0 -1.5982e+06 645834 0 -1.78149e+06 4.05312e-06 0 -1.82806e+06 0 0 -1.83581e+06 107512 0 -1.85903e+06 217107 0 -1.89768e+06 331023 0 -1.95145e+06 451819 0 -2.01988e+06 582718 0 -2.10104e+06 727787 0 -2.19194e+06 893045 0 -2.28186e+06 1.08683e+06 0 -2.34868e+06 1.31664e+06 0 -2.33506e+06 1.58126e+06 0 -2.15664e+06 1.77424e+06 0 -1.87178e+06 1.70624e+06 0 -1.66108e+06 1.31678e+06 0 -1.67082e+06 660247 0 -1.83263e+06 -3.65078e-07 0 -1.81726e+06 0 0 -1.82491e+06 109051 0 -1.84782e+06 220181 0 -1.88591e+06 335616 0 -1.93887e+06 457893 0 -2.00608e+06 590167 0 -2.08562e+06 736381 0 -2.17411e+06 902205 0 -2.26091e+06 1.09502e+06 0 -2.32403e+06 1.32069e+06 0 -2.31002e+06 1.57261e+06 0 -2.14809e+06 1.74945e+06 0 -1.89448e+06 1.68066e+06 0 -1.71439e+06 1.30553e+06 0 -1.74126e+06 674815 0 -1.89112e+06 -5.40167e-08 0 -1.80632e+06 0 0 -1.81386e+06 110570 0 -1.83646e+06 223212 0 -1.874e+06 340142 0 -1.92613e+06 463869 0 -1.99216e+06 597477 0 -2.0701e+06 744782 0 -2.15629e+06 911090 0 -2.24018e+06 1.1029e+06 0 -2.30011e+06 1.32439e+06 0 -2.2866e+06 1.56463e+06 0 -2.14059e+06 1.72727e+06 0 -1.91638e+06 1.65821e+06 0 -1.76553e+06 1.29699e+06 0 -1.80993e+06 689834 0 -1.95592e+06 4.19095e-08 0 -1.79522e+06 0 0 -1.80266e+06 112068 0 -1.82495e+06 226200 0 -1.86193e+06 344600 0 -1.91326e+06 469747 0 -1.97812e+06 604650 0 -2.0545e+06 752996 0 -2.13848e+06 919716 0 -2.21966e+06 1.11047e+06 0 -2.27688e+06 1.32781e+06 0 -2.26461e+06 1.55734e+06 0 -2.13399e+06 1.70752e+06 0 -1.9375e+06 1.63873e+06 0 -1.81461e+06 1.29106e+06 0 -1.87711e+06 705625 0 -2.02659e+06 -7.63685e-08 0 -1.78397e+06 0 0 -1.79131e+06 113545 0 -1.81328e+06 229146 0 -1.84973e+06 348990 0 -1.90024e+06 475527 0 -1.96396e+06 611690 0 -2.03881e+06 761028 0 -2.1207e+06 928097 0 -2.19936e+06 1.11778e+06 0 -2.25432e+06 1.33104e+06 0 -2.24392e+06 1.55078e+06 0 -2.12816e+06 1.69008e+06 0 -1.95782e+06 1.6221e+06 0 -1.86173e+06 1.28764e+06 0 -1.94296e+06 722504 0 -2.10315e+06 5.58794e-08 0 -1.77258e+06 0 0 -1.77982e+06 115002 0 -1.80148e+06 232050 0 -1.83738e+06 353315 0 -1.8871e+06 481213 0 -1.94969e+06 618599 0 -2.02304e+06 768884 0 -2.10294e+06 936249 0 -2.17928e+06 1.12484e+06 0 -2.23241e+06 1.33413e+06 0 -2.22436e+06 1.54496e+06 0 -2.12296e+06 1.67481e+06 0 -1.97737e+06 1.60817e+06 0 -1.90697e+06 1.28665e+06 0 -2.00753e+06 740767 0 -2.18615e+06 -7.45058e-08 0 -1.76104e+06 0 0 -1.76818e+06 116438 0 -1.78953e+06 234912 0 -1.8249e+06 357573 0 -1.87382e+06 486803 0 -1.93532e+06 625379 0 -2.0072e+06 776569 0 -2.08522e+06 944184 0 -2.15941e+06 1.13168e+06 0 -2.21109e+06 1.33715e+06 0 -2.20582e+06 1.5399e+06 0 -2.1183e+06 1.6616e+06 0 -1.99612e+06 1.59679e+06 0 -1.95041e+06 1.28808e+06 0 -2.07075e+06 760658 0 -2.27666e+06 1.63913e-07 0 -1.74936e+06 0 0 -1.75639e+06 117855 0 -1.77744e+06 237732 0 -1.81228e+06 361766 0 -1.86042e+06 492301 0 -1.92084e+06 632034 0 -1.9913e+06 784091 0 -2.06752e+06 951917 0 -2.13974e+06 1.13834e+06 0 -2.19035e+06 1.34015e+06 0 -2.18816e+06 1.5356e+06 0 -2.11406e+06 1.65038e+06 0 -2.01406e+06 1.5878e+06 0 -1.99216e+06 1.29193e+06 0 -2.13241e+06 782345 0 -2.37645e+06 -1.04308e-07 0 -1.73754e+06 0 0 -1.74447e+06 119251 0 -1.76521e+06 240510 0 -1.79953e+06 365894 0 -1.84689e+06 497707 0 -1.90626e+06 638566 0 -1.97533e+06 791454 0 -2.04986e+06 959462 0 -2.12028e+06 1.14481e+06 0 -2.17014e+06 1.34319e+06 0 -2.1713e+06 1.53202e+06 0 -2.11015e+06 1.64107e+06 0 -2.03118e+06 1.58101e+06 0 -2.03229e+06 1.29829e+06 0 -2.19209e+06 805858 0 -2.48821e+06 8.19564e-08 0 -1.72558e+06 0 0 -1.73241e+06 120627 0 -1.75285e+06 243248 0 -1.78665e+06 369958 0 -1.83324e+06 503022 0 -1.89158e+06 644979 0 -1.9593e+06 798662 0 -2.03224e+06 966835 0 -2.10101e+06 1.15113e+06 0 -2.15041e+06 1.3463e+06 0 -2.15512e+06 1.52914e+06 0 -2.10646e+06 1.63367e+06 0 -2.04746e+06 1.57615e+06 0 -2.07093e+06 1.3074e+06 0 -2.24914e+06 831008 0 -2.61589e+06 -1.04308e-07 0 -1.71348e+06 0 0 -1.72022e+06 121983 0 -1.74035e+06 245945 0 -1.77364e+06 373959 0 -1.81947e+06 508249 0 -1.87681e+06 651276 0 -1.94321e+06 805721 0 -2.01465e+06 974054 0 -2.08193e+06 1.1573e+06 0 -2.13113e+06 1.34957e+06 0 -2.13955e+06 1.52687e+06 0 -2.10291e+06 1.62823e+06 0 -2.06288e+06 1.57286e+06 0 -2.10822e+06 1.31968e+06 0 -2.30256e+06 857260 0 -2.76525e+06 1.19209e-07 0 -1.70125e+06 0 0 -1.70789e+06 123320 0 -1.72772e+06 248601 0 -1.7605e+06 377898 0 -1.80559e+06 513387 0 -1.86194e+06 657462 0 -1.92707e+06 812632 0 -1.99709e+06 981140 0 -2.06304e+06 1.16332e+06 0 -2.11223e+06 1.35307e+06 0 -2.12452e+06 1.52509e+06 0 -2.09939e+06 1.62491e+06 0 -2.07742e+06 1.57058e+06 0 -2.14438e+06 1.33589e+06 0 -2.35086e+06 883524 0 -2.94467e+06 -2.98023e-08 0 -1.68888e+06 0 0 -1.69542e+06 124636 0 -1.71496e+06 251219 0 -1.74724e+06 381774 0 -1.79159e+06 518440 0 -1.84698e+06 663541 0 -1.91089e+06 819394 0 -1.97955e+06 988122 0 -2.04434e+06 1.16915e+06 0 -2.09364e+06 1.35691e+06 0 -2.11002e+06 1.52358e+06 0 -2.09576e+06 1.62403e+06 0 -2.09108e+06 1.56849e+06 0 -2.17971e+06 1.3573e+06 0 -2.39184e+06 907849 0 -3.16639e+06 -1.3411e-07 0 -1.67639e+06 0 0 -1.68283e+06 125931 0 -1.70208e+06 253799 0 -1.73385e+06 385588 0 -1.77749e+06 523407 0 -1.83191e+06 669520 0 -1.89468e+06 826001 0 -1.96199e+06 995044 0 -2.02588e+06 1.17474e+06 0 -2.07527e+06 1.36129e+06 0 -2.09606e+06 1.52199e+06 0 -2.09184e+06 1.62617e+06 0 -2.10386e+06 1.56527e+06 0 -2.21466e+06 1.38601e+06 0 -2.4223e+06 926926 0 -3.44827e+06 8.9407e-08 0 -1.66376e+06 0 0 -1.67011e+06 127203 0 -1.68907e+06 256343 0 -1.72034e+06 389338 0 -1.7633e+06 528290 0 -1.81674e+06 675407 0 -1.87848e+06 832437 0 -1.94438e+06 1.00197e+06 0 -2.0077e+06 1.17999e+06 0 -2.05695e+06 1.36648e+06 0 -2.08273e+06 1.51976e+06 0 -2.08737e+06 1.6323e+06 0 -2.11585e+06 1.55891e+06 0 -2.2499e+06 1.42535e+06 0 -2.4376e+06 935456 0 -3.8165e+06 -4.76837e-07 0 </DataArray> 
</PointData> 
<Points> 
<DataArray type="Float32" NumberOfComponents="3"> 
0 0.035 0 0.00666667 0.035 0 0.0133333 0.035 0 0.02 0.035 0 0.0266667 0.035 0 0.0333333 0.035 0 0.04 0.035 0 0.0466667 0.035 0 0.0533333 0.035 0 0.06 0.035 0 0.0666667 0.035 0 0.0733333 0.035 0 0.08 0.035 0 0.0866667 0.035 0 0.0933333 0.035 0 0.1 0.035 0 0 0.0356667 0 0.00666667 0.0356667 0 0.0133333 0.0356667 0 0.02 0.0356667 0 0.0266667 0.0356667 0 0.0333333 0.0356667 0 0.04 0.0356667 0 0.0466667 0.0356667 0 0.0533333 0.0356667 0 0.06 0.0356667 0 0.0666667 0.0356667 0 0.0733333 0.0356667 0 0.08 0.0356667 0 0.0866667 0.0356667 0 0.0933333 0.0356667 0 0.1 0.0356667 0 0 0.0363333 0 0.00666667 0.0363333 0 0.0133333 0.0363333 0 0.02 0.0363333 0 0.0266667 0.0363333 0 0.0333333 0.0363333 0 0.04 0.0363333 0 0.0466667 0.0363333 0 0.0533333 0.0363333 0 0.06 0.0363333 0 0.0666667 0.0363333 0 0.0733333 0.0363333 0 0.08 0.0363333 0 0.0866667 0.0363333 0 0.0933333 0.0363333 0 0.1 0.0363333 0 0 0.037 0 0.00666667 0.037 0 0.0133333 0.037 0 0.02 0.037 0 0.0266667 0.037 0 0.0333333 0.037 0 0.04 0.037 0 0.0466667 0.037 0 0.0533333 0.037 0 0.06 0.037 0 0.0666667 0.037 0 0.0733333 0.037 0 0.08 0.037 0 0.0866667 0.037 0 0.0933333 0.037 0 0.1 0.037 0 0 0.0376667 0 0.00666667 0.0376667 0 0.0133333 0.0376667 0 0.02 0.0376667 0 0.0266667 0.0376667 0 0.0333333 0.0376667 0 0.04 0.0376667 0 0.0466667 0.0376667 0 0.0533333 0.0376667 0 0.06 0.0376667 0 0.0666667 0.0376667 0 0.0733333 0.0376667 0 0.08 0.0376667 0 0.0866667 0.0376667 0 0.0933333 0.0376667 0 0.1 0.0376667 0 0 0.0383333 0 0.00666667 0.0383333 0 0.0133333 0.0383333 0 0.02 0.0383333 0 0.0266667 0.0383333 0 0.0333333 0.0383333 0 0.04 0.0383333 0 0.0466667 0.0383333 0 0.0533333 0.0383333 0 0.06 0.0383333 0 0.0666667 0.0383333 0 0.0733333 0.0383333 0 0.08 0.0383333 0 0.0866667 0.0383333 0 0.0933333 0.0383333 0 0.1 0.0383333 0 0 0.039 0 0.00666667 0.039 0 0.0133333 0.039 0 0.02 0.039 0 0.0266667 0.039 0 0.0333333 0.039 0 0.04 0.039 0 0.0466667 0.039 0 0.0533333 0.039 0 0.06 0.039 0 0.0666667 0.039 0 0.0733333 0.039 0 0.08 0.039 0 0.0866667 0.039 0 0.0933333 0.039 0 0.1 0.039 0 0 0.0396667 0 0.00666667 0.0396667 0 0.0133333 0.0396667 0 0.02 0.0396667 0 0.0266667 0.0396667 0 0.0333333 0.0396667 0 0.04 0.0396667 0 0.0466667 0.0396667 0 0.0533333 0.0396667 0 0.06 0.0396667 0 0.0666667 0.0396667 0 0.0733333 0.0396667 0 0.08 0.0396667 0 0.0866667 0.0396667 0 0.0933333 0.0396667 0 0.1 0.0396667 0 0 0.0403333 0 0.00666667 0.0403333 0 0.0133333 0.0403333 0 0.02 0.0403333 0 0.0266667 0.0403333 0 0.0333333 0.0403333 0 0.04 0.0403333 0 0.0466667 0.0403333 0 0.0533333 0.0403333 0 0.06 0.0403333 0 0.0666667 0.0403333 0 0.0733333 0.0403333 0 0.08 0.0403333 0 0.0866667 0.0403333 0 0.0933333 0.0403333 0 0.1 0.0403333 0 0 0.041 0 0.00666667 0.041 0 0.0133333 0.041 0 0.02 0.041 0 0.0266667 0.041 0 0.0333333 0.041 0 0.04 0.041 0 0.0466667 0.041 0 0.0533333 0.041 0 0.06 0.041 0 0.0666667 0.041 0 0.0733333 0.041 0 0.08 0.041 0 0.0866667 0.041 0 0.0933333 0.041 0 0.1 0.041 0 0 0.0416667 0 0.00666667 0.0416667 0 0.0133333 0.0416667 0 0.02 0.0416667 0 0.0266667 0.0416667 0 0.0333333 0.0416667 0 0.04 0.0416667 0 0.0466667 0.0416667 0 0.0533333 0.0416667 0 0.06 0.0416667 0 0.0666667 0.0416667 0 0.0733333 0.0416667 0 0.08 0.0416667 0 0.0866667 0.0416667 0 0.0933333 0.0416667 0 0.1 0.0416667 0 0 0.0423333 0 0.00666667 0.0423333 0 0.0133333 0.0423333 0 0.02 0.0423333 0 0.0266667 0.0423333 0 0.0333333 0.0423333 0 0.04 0.0423333 0 0.0466667 0.0423333 0 0.0533333 0.0423333 0 0.06 0.0423333 0 0.0666667 0.0423333 0 0.0733333 0.0423333 0 0.08 0.0423333 0 0.0866667 0.0423333 0 0.0933333 0.0423333 0 0.1 0.0423333 0 0 0.043 0 0.00666667 0.043 0 0.0133333 0.043 0 0.02 0.043 0 0.0266667 0.043 0 0.0333333 0.043 0 0.04 0.043 0 0.0466667 0.043 0 0.0533333 0.043 0 0.06 0.043 0 0.0666667 0.043 0 0.0733333 0.043 0 0.08 0.043 0 0.0866667 0.043 0 0.0933333 0.043 0 0.1 0.043 0 0 0.0436667 0 0.00666667 0.0436667 0 0.0133333 0.0436667 0 0.02 0.0436667 0 0.0266667 0.0436667 0 0.0333333 0.0436667 0 0.04 0.0436667 0 0.0466667 0.0436667 0 0.0533333 0.0436667 0 0.06 0.0436667 0 0.0666667 0.0436667 0 0.0733333 0.0436667 0 0.08 0.0436667 0 0.0866667 0.0436667 0 0.0933333 0.0436667 0 0.1 0.0436667 0 0 0.0443333 0 0.00666667 0.0443333 0 0.0133333 0.0443333 0 0.02 0.0443333 0 0.0266667 0.0443333 0 0.0333333 0.0443333 0 0.04 0.0443333 0 0.0466667 0.0443333 0 0.0533333 0.0443333 0 0.06 0.0443333 0 0.0666667 0.0443333 0 0.0733333 0.0443333 0 0.08 0.0443333 0 0.0866667 0.0443333 0 0.0933333 0.0443333 0 0.1 0.0443333 0 0 0.045 0 0.00666667 0.045 0 0.0133333 0.045 0 0.02 0.045 0 0.0266667 0.045 0 0.0333333 0.045 0 0.04 0.045 0 0.0466667 0.045 0 0.0533333 0.045 0 0.06 0.045 0 0.0666667 0.045 0 0.0733333 0.045 0 0.08 0.045 0 0.0866667 0.045 0 0.0933333 0.045 0 0.1 0.045 0 
</DataArray>
</Points> 
</Piece> 
</StructuredGrid> 
</VTKFile> 
