<?xml version="1.0"?> 
<VTKFile type="StructuredGrid" version="0.1"> 
<StructuredGrid WholeExtent="0 15 0 15 0 0"> 
<Piece Extent="0 15 0 15 0 0"> 
<PointData>
<DataArray type="Float32" Name="|E|" format="ascii" NumberOfComponents="3"> 
-1.19209e-07 7.71235e+06 0 -2.21189e-09 2.13217e+06 0 -9.59262e-08 493074 0 2.27243e-07 176969 0 -3.7998e-07 164269 0 4.41447e-07 151267 0 -3.72529e-07 100297 0 3.91155e-07 36229.3 0 -2.5332e-07 -13755.2 0 8.9407e-08 -28387.3 0 1.04308e-07 -6641.29 0 -4.47035e-08 13531.3 0 1.49012e-08 4125.53 0 -1.49012e-08 -6604.76 0 0 2207.91 0 -5.96046e-07 -4.76837e-06 0 -2.57258e+06 1.08664e+06 0 -2.68502e+06 1.0622e+06 0 -2.06918e+06 1.18626e+06 0 -1.3739e+06 1.09374e+06 0 -821530 808890 0 -442755 472920 0 -207715 202892 0 -79626.8 46390.9 0 -25454.4 -11727.3 0 -11087.4 -15464.5 0 -5835.88 -2700.48 0 1234.89 6827.64 0 2273.99 3181.84 0 -870.921 -4071.44 0 -289.046 -840.942 0 -1280.28 -11726 0 -2.9634e+06 670234 0 -2.70537e+06 929367 0 -2.77934e+06 762326 0 -2.65801e+06 699882 0 -2.28344e+06 698836 0 -1.7589e+06 631047 0 -1.20421e+06 459589 0 -711023 241523 0 -339863 62238.7 0 -118449 -29192.6 0 -28812.8 -42325.1 0 -9184.78 -18533.4 0 -1632.18 5516.27 0 2734.38 8992.75 0 -738.925 -4851.34 0 -753.48 -4752.79 0 -2.74276e+06 1.33571e+06 0 -2.91751e+06 1.04327e+06 0 -2.85736e+06 1.0237e+06 0 -2.87092e+06 875902 0 -2.87878e+06 696825 0 -2.7514e+06 569912 0 -2.42812e+06 471571 0 -1.92896e+06 342161 0 -1.33264e+06 168671 0 -754306 3537.37 0 -315028 -85272.7 0 -82271.1 -82329.7 0 -13507 -35727.7 0 -3007.95 -2611.12 0 3488.72 13419.8 0 252.611 1171.34 0 -2.81932e+06 1.39364e+06 0 -2.82006e+06 1.39688e+06 0 -2.92138e+06 1.25425e+06 0 -2.94375e+06 1.18015e+06 0 -2.95585e+06 1.06139e+06 0 -2.98447e+06 873337 0 -2.97182e+06 669959 0 -2.824e+06 486918 0 -2.47005e+06 306433 0 -1.90391e+06 103871 0 -1.21217e+06 -88491.9 0 -571240 -183484 0 -162047 -136381 0 -13613.1 -26698.6 0 -2387.89 -4082.17 0 -16682 -58938.5 0 -2.63448e+06 1.69809e+06 0 -2.72564e+06 1.60925e+06 0 -2.78341e+06 1.54932e+06 0 -2.87977e+06 1.43509e+06 0 -2.95285e+06 1.33786e+06 0 -2.99757e+06 1.22908e+06 0 -3.0391e+06 1.0626e+06 0 -3.07073e+06 844193 0 -3.02788e+06 609003 0 -2.80881e+06 365336 0 -2.32854e+06 93524.7 0 -1.59878e+06 -177655 0 -800307 -311154 0 -223213 -195182 0 8449.13 31958.7 0 -47546.6 -130498 0 -2.52985e+06 1.79349e+06 0 -2.59087e+06 1.76653e+06 0 -2.66465e+06 1.72349e+06 0 -2.73244e+06 1.67242e+06 0 -2.82336e+06 1.58201e+06 0 -2.91902e+06 1.4809e+06 0 -2.99821e+06 1.37093e+06 0 -3.06342e+06 1.21798e+06 0 -3.11929e+06 1.00346e+06 0 -3.13083e+06 744518 0 -3.00036e+06 452919 0 -2.59274e+06 103981 0 -1.83633e+06 -270358 0 -902370 -443721 0 -198003 -207175 0 -71840.5 -154411 0 -2.3783e+06 1.90497e+06 0 -2.44526e+06 1.88159e+06 0 -2.51959e+06 1.84691e+06 0 -2.6e+06 1.80955e+06 0 -2.67892e+06 1.76527e+06 0 -2.77039e+06 1.69267e+06 0 -2.87527e+06 1.59811e+06 0 -2.97913e+06 1.4876e+06 0 -3.07204e+06 1.33864e+06 0 -3.15228e+06 1.12419e+06 0 -3.19655e+06 844819 0 -3.1132e+06 505102 0 -2.72586e+06 64320.1 0 -1.87899e+06 -415398 0 -781002 -538180 0 -105712 -177661 0 -2.25207e+06 1.95011e+06 0 -2.31256e+06 1.94318e+06 0 -2.37756e+06 1.93325e+06 0 -2.45293e+06 1.90877e+06 0 -2.53822e+06 1.87727e+06 0 -2.62818e+06 1.83769e+06 0 -2.72715e+06 1.77577e+06 0 -2.84047e+06 1.68834e+06 0 -2.96289e+06 1.57763e+06 0 -3.08256e+06 1.4264e+06 0 -3.19076e+06 1.20187e+06 0 -3.26138e+06 890369 0 -3.19513e+06 475669 0 -2.73829e+06 -102689 0 -1.66416e+06 -674787 0 -304945 -396121 0 -2.12764e+06 1.97576e+06 0 -2.18467e+06 1.97897e+06 0 -2.24895e+06 1.97628e+06 0 -2.31831e+06 1.97136e+06 0 -2.39665e+06 1.95554e+06 0 -2.48659e+06 1.93067e+06 0 -2.58669e+06 1.89586e+06 0 -2.69753e+06 1.84074e+06 0 -2.82394e+06 1.75766e+06 0 -2.96582e+06 1.64402e+06 0 -3.11382e+06 1.48214e+06 0 -3.25443e+06 1.23132e+06 0 -3.35246e+06 859302 0 -3.26163e+06 305759 0 -2.57395e+06 -519698 0 -897721 -879407 0 -2.01475e+06 1.97647e+06 0 -2.06825e+06 1.98847e+06 0 -2.12724e+06 1.99787e+06 0 -2.19413e+06 2.00205e+06 0 -2.26869e+06 2.00238e+06 0 -2.35272e+06 1.99363e+06 0 -2.44958e+06 1.97484e+06 0 -2.5609e+06 1.94438e+06 0 -2.6873e+06 1.89359e+06 0 -2.83344e+06 1.81143e+06 0 -3.00125e+06 1.69034e+06 0 -3.18556e+06 1.5048e+06 0 -3.36799e+06 1.19946e+06 0 -3.49841e+06 704692 0 -3.28389e+06 -162777 0 -1.91073e+06 -1.34892e+06 0 -1.90974e+06 1.96207e+06 0 -1.96029e+06 1.98155e+06 0 -2.01657e+06 1.99883e+06 0 -2.07912e+06 2.0137e+06 0 -2.15003e+06 2.02439e+06 0 -2.23083e+06 2.03056e+06 0 -2.32307e+06 2.02847e+06 0 -2.4305e+06 2.01536e+06 0 -2.55663e+06 1.98869e+06 0 -2.70443e+06 1.9394e+06 0 -2.87934e+06 1.8537e+06 0 -3.08678e+06 1.7166e+06 0 -3.32393e+06 1.48477e+06 0 -3.57683e+06 1.06866e+06 0 -3.73494e+06 277652 0 -3.12151e+06 -1.45687e+06 0 -1.81244e+06 1.93569e+06 0 -1.86058e+06 1.9616e+06 0 -1.91396e+06 1.98651e+06 0 -1.97381e+06 2.00973e+06 0 -2.04119e+06 2.03055e+06 0 -2.11811e+06 2.04767e+06 0 -2.20714e+06 2.06011e+06 0 -2.31076e+06 2.06458e+06 0 -2.43361e+06 2.0572e+06 0 -2.58114e+06 2.03384e+06 0 -2.76011e+06 1.9831e+06 0 -2.97941e+06 1.88719e+06 0 -3.25129e+06 1.71783e+06 0 -3.5831e+06 1.3914e+06 0 -3.98288e+06 726042 0 -4.23651e+06 -1.07479e+06 0 -1.72166e+06 1.90077e+06 0 -1.76785e+06 1.93248e+06 0 -1.81907e+06 1.96391e+06 0 -1.87625e+06 1.9948e+06 0 -1.94093e+06 2.02449e+06 0 -2.01475e+06 2.05207e+06 0 -2.10017e+06 2.07621e+06 0 -2.20061e+06 2.09563e+06 0 -2.32037e+06 2.10694e+06 0 -2.46571e+06 2.10554e+06 0 -2.64583e+06 2.085e+06 0 -2.87318e+06 2.02913e+06 0 -3.16703e+06 1.91281e+06 0 -3.55648e+06 1.67526e+06 0 -4.1078e+06 1.15173e+06 0 -5.05238e+06 -307634 0 -1.63648e+06 1.8596e+06 0 -1.68114e+06 1.89671e+06 0 -1.73058e+06 1.93427e+06 0 -1.78579e+06 1.97206e+06 0 -1.84806e+06 2.0097e+06 0 -1.91927e+06 2.04664e+06 0 -2.00181e+06 2.08199e+06 0 -2.09906e+06 2.11434e+06 0 -2.21582e+06 2.14205e+06 0 -2.35901e+06 2.16151e+06 0 -2.53857e+06 2.16697e+06 0 -2.77048e+06 2.14931e+06 0 -3.08028e+06 2.08314e+06 0 -3.51341e+06 1.92858e+06 0 -4.16945e+06 1.55266e+06 0 -5.49536e+06 638967 0 -1.55613e+06 1.81384e+06 0 -1.59963e+06 1.85616e+06 0 -1.6477e+06 1.89955e+06 0 -1.7013e+06 1.94388e+06 0 -1.76172e+06 1.98901e+06 0 -1.83071e+06 2.03465e+06 0 -1.91084e+06 2.08003e+06 0 -2.0054e+06 2.12468e+06 0 -2.1194e+06 2.16725e+06 0 -2.26019e+06 2.20546e+06 0 -2.4387e+06 2.23653e+06 0 -2.67346e+06 2.25122e+06 0 -2.99346e+06 2.24023e+06 0 -3.46188e+06 2.15843e+06 0 -4.20297e+06 1.94346e+06 0 -5.57166e+06 1.56761e+06 0 </DataArray> 
</PointData> 
<Points> 
<DataArray type="Float32" NumberOfComponents="3"> 
0.1 0.045 0 0.100867 0.045 0 0.101733 0.045 0 0.1026 0.045 0 0.103467 0.045 0 0.104333 0.045 0 0.1052 0.045 0 0.106067 0.045 0 0.106933 0.045 0 0.1078 0.045 0 0.108667 0.045 0 0.109533 0.045 0 0.1104 0.045 0 0.111267 0.045 0 0.112133 0.045 0 0.113 0.045 0 0.0978533 0.0464889 0 0.0987404 0.0464007 0 0.099632 0.0463121 0 0.100528 0.046223 0 0.101429 0.0461335 0 0.102334 0.0460435 0 0.103244 0.0459531 0 0.104159 0.0458622 0 0.105078 0.0457708 0 0.106002 0.0456789 0 0.106931 0.0455866 0 0.107864 0.0454938 0 0.108803 0.0454005 0 0.109746 0.0453068 0 0.110694 0.0452125 0 0.111647 0.0451178 0 0.0957067 0.0479778 0 0.0966134 0.0478112 0 0.097529 0.0476431 0 0.0984537 0.0474733 0 0.0993875 0.0473018 0 0.100331 0.0471285 0 0.101283 0.0469536 0 0.102245 0.0467769 0 0.103217 0.0465984 0 0.104199 0.0464181 0 0.105191 0.0462359 0 0.106193 0.0460519 0 0.107205 0.045866 0 0.108228 0.0456781 0 0.109261 0.0454883 0 0.110306 0.0452965 0 0.09356 0.0494667 0 0.0944866 0.0492309 0 0.0954265 0.0489919 0 0.0963798 0.0487493 0 0.097347 0.0485033 0 0.0983282 0.0482537 0 0.0993238 0.0480004 0 0.100334 0.0477434 0 0.10136 0.0474826 0 0.1024 0.0472178 0 0.103457 0.046949 0 0.104529 0.0466762 0 0.105619 0.0463991 0 0.106725 0.0461178 0 0.107848 0.0458321 0 0.108989 0.0455418 0 0.0914133 0.0509556 0 0.0923613 0.0506591 0 0.0933266 0.0503572 0 0.0943099 0.0500497 0 0.0953116 0.0497365 0 0.0963322 0.0494173 0 0.0973723 0.049092 0 0.0984325 0.0487605 0 0.0995132 0.0484225 0 0.100615 0.0480779 0 0.101739 0.0477264 0 0.102885 0.0473679 0 0.104055 0.0470021 0 0.105249 0.0466289 0 0.106467 0.0462479 0 0.10771 0.045859 0 0.0892667 0.0524444 0 0.0902384 0.052095 0 0.0912318 0.0517379 0 0.0922474 0.0513728 0 0.093286 0.0509993 0 0.0943484 0.0506173 0 0.0954356 0.0502264 0 0.0965482 0.0498264 0 0.0976873 0.0494169 0 0.0988537 0.0489975 0 0.100049 0.0485679 0 0.101273 0.0481277 0 0.102528 0.0476765 0 0.103814 0.047214 0 0.105134 0.0467396 0 0.106487 0.0462529 0 0.08712 0.0539333 0 0.0881193 0.053538 0 0.0891442 0.0531326 0 0.0901957 0.0527167 0 0.0912748 0.0522898 0 0.0923827 0.0518515 0 0.0935206 0.0514014 0 0.0946896 0.0509389 0 0.0958911 0.0504637 0 0.0971265 0.049975 0 0.0983971 0.0494724 0 0.0997045 0.0489552 0 0.10105 0.0484228 0 0.102436 0.0478745 0 0.103864 0.0473096 0 0.105336 0.0467273 0 0.0849733 0.0554222 0 0.0860049 0.0549874 0 0.0870661 0.05454 0 0.0881583 0.0540796 0 0.0892828 0.0536056 0 0.0904411 0.0531173 0 0.0916347 0.0526141 0 0.0928653 0.0520954 0 0.0941346 0.0515603 0 0.0954445 0.0510082 0 0.0967969 0.0504381 0 0.098194 0.0498491 0 0.0996379 0.0492404 0 0.101131 0.0486109 0 0.102676 0.0479596 0 0.104276 0.0472852 0 0.0828267 0.0569111 0 0.0838965 0.0564423 0 0.085 0.0559587 0 0.0861388 0.0554596 0 0.0873147 0.0549443 0 0.0885295 0.0544119 0 0.0897852 0.0538617 0 0.0910838 0.0532926 0 0.0924276 0.0527037 0 0.0938189 0.0520939 0 0.0952605 0.0514622 0 0.0967549 0.0508073 0 0.0983053 0.0501279 0 0.0999148 0.0494225 0 0.101587 0.0486898 0 0.103325 0.0479281 0 0.08068 0.0584 0 0.0817951 0.057902 0 0.0829481 0.0573872 0 0.0841408 0.0568546 0 0.0853754 0.0563033 0 0.0866541 0.0557323 0 0.0879794 0.0551405 0 0.0893537 0.0545268 0 0.09078 0.0538899 0 0.0922611 0.0532285 0 0.0938004 0.0525412 0 0.0954013 0.0518263 0 0.0970675 0.0510823 0 0.0988032 0.0503072 0 0.100613 0.0494991 0 0.102501 0.0486559 0 0.0785333 0.0598889 0 0.079702 0.0593659 0 0.0809127 0.0588241 0 0.0821677 0.0582625 0 0.0834696 0.0576799 0 0.0848209 0.0570751 0 0.0862246 0.056447 0 0.0876838 0.055794 0 0.0892017 0.0551147 0 0.0907822 0.0544074 0 0.092429 0.0536704 0 0.0941464 0.0529018 0 0.0959392 0.0520996 0 0.0978124 0.0512613 0 0.0997714 0.0503846 0 0.101822 0.0494668 0 0.0763867 0.0613778 0 0.0776182 0.0608331 0 0.0788961 0.0602679 0 0.0802231 0.059681 0 0.0816019 0.0590711 0 0.0830358 0.0584369 0 0.084528 0.0577769 0 0.0860822 0.0570895 0 0.0877023 0.0563729 0 0.0893927 0.0556253 0 0.091158 0.0548445 0 0.0930034 0.0540284 0 0.0949342 0.0531743 0 0.0969567 0.0522798 0 0.0990776 0.0513418 0 0.101304 0.050357 0 0.07424 0.0628667 0 0.0755449 0.0623028 0 0.0769007 0.061717 0 0.0783103 0.0611079 0 0.079777 0.0604741 0 0.0813045 0.0598141 0 0.0828964 0.0591262 0 0.084557 0.0584086 0 0.0862909 0.0576594 0 0.088103 0.0568763 0 0.0899987 0.0560572 0 0.0919839 0.0551994 0 0.0940651 0.0543001 0 0.0962495 0.0533562 0 0.0985449 0.0523643 0 0.10096 0.0513207 0 0.0720933 0.0643556 0 0.0734832 0.0637743 0 0.0749286 0.0631699 0 0.0764327 0.0625408 0 0.0779994 0.0618856 0 0.0796325 0.0612027 0 0.0813364 0.0604901 0 0.0831158 0.0597459 0 0.0849759 0.0589681 0 0.0869221 0.0581541 0 0.0889608 0.0573016 0 0.0910985 0.0564076 0 0.0933428 0.055469 0 0.0957017 0.0544825 0 0.0981843 0.0534443 0 0.100801 0.0523501 0 0.0699467 0.0658444 0 0.0714342 0.0652468 0 0.072982 0.064625 0 0.0745937 0.0639775 0 0.0762733 0.0633027 0 0.0780252 0.0625988 0 0.0798542 0.061864 0 0.0817656 0.0610961 0 0.0837649 0.0602929 0 0.0858585 0.0594518 0 0.0880531 0.0585701 0 0.0903562 0.0576448 0 0.0927761 0.0566725 0 0.0953219 0.0556497 0 0.0980037 0.0545723 0 0.100833 0.0534357 0 0.0678 0.0673333 0 0.0693991 0.0667195 0 0.0710631 0.0660808 0 0.0727962 0.0654155 0 0.0746027 0.064722 0 0.0764874 0.0639986 0 0.0784555 0.0632431 0 0.0805125 0.0624535 0 0.0826648 0.0616273 0 0.0849191 0.060762 0 0.0872827 0.0598547 0 0.0897639 0.0589023 0 0.0923717 0.0579013 0 0.0951159 0.0568479 0 0.0980076 0.0557378 0 0.101059 0.0545665 0 
</DataArray>
</Points> 
</Piece> 
</StructuredGrid> 
</VTKFile> 
