<?xml version="1.0"?> 
<VTKFile type="StructuredGrid" version="0.1"> 
<StructuredGrid WholeExtent="0 15 0 15 0 0"> 
<Piece Extent="0 15 0 15 0 0"> 
<PointData>
<DataArray type="Float32" Name="|E|" format="ascii" NumberOfComponents="3"> 
-92945.7 4.0542e+06 0 -80075.9 4.16423e+06 0 -65111.4 4.19726e+06 0 -49720.1 4.21481e+06 0 -34240.5 4.22683e+06 0 -18825.8 4.23537e+06 0 -3594.33 4.24179e+06 0 11359.2 4.24667e+06 0 25955.4 4.25059e+06 0 40129.1 4.254e+06 0 53830.8 4.25745e+06 0 67026.8 4.26156e+06 0 79707.3 4.26739e+06 0 91889.3 4.27638e+06 0 103681 4.29284e+06 0 115672 4.33732e+06 0 -28019.3 4.1652e+06 0 -36990.4 4.17019e+06 0 -37057.1 4.18464e+06 0 -30014.4 4.19717e+06 0 -19703.5 4.20703e+06 0 -7782.93 4.21481e+06 0 4998.55 4.221e+06 0 18254.9 4.22605e+06 0 31806.5 4.23032e+06 0 45580.8 4.23421e+06 0 59607.4 4.23814e+06 0 74046.6 4.24264e+06 0 89265.7 4.2484e+06 0 106105 4.25644e+06 0 126668 4.2679e+06 0 154952 4.28161e+06 0 -23850.3 4.17017e+06 0 -25761.8 4.17288e+06 0 -22684.2 4.17848e+06 0 -16762.3 4.18523e+06 0 -8439.15 4.19179e+06 0 1592.02 4.19765e+06 0 12808.9 4.20271e+06 0 24900.4 4.20707e+06 0 37700.2 4.21091e+06 0 51173.6 4.21442e+06 0 65408 4.21788e+06 0 80640.1 4.22158e+06 0 97329.4 4.22584e+06 0 116268 4.23095e+06 0 138665 4.23685e+06 0 166446 4.24269e+06 0 -27335.7 4.16657e+06 0 -21196.1 4.16763e+06 0 -15778.3 4.17042e+06 0 -9014.92 4.17417e+06 0 -878.56 4.17826e+06 0 8504.99 4.18224e+06 0 18968.7 4.18591e+06 0 30374.2 4.18919e+06 0 42658.9 4.1921e+06 0 55841.9 4.1947e+06 0 70040.3 4.1971e+06 0 85490.5 4.19939e+06 0 102572 4.20166e+06 0 121833 4.20385e+06 0 143995 4.20573e+06 0 169478 4.2067e+06 0 -25339.1 4.1576e+06 0 -19304.2 4.15858e+06 0 -12203.8 4.16024e+06 0 -4572.23 4.16245e+06 0 3843.21 4.16496e+06 0 13116.9 4.1675e+06 0 23254.9 4.16988e+06 0 34256.7 4.172e+06 0 46141.1 4.17379e+06 0 58975.2 4.17523e+06 0 72887.5 4.17631e+06 0 88081.1 4.17701e+06 0 104845 4.17727e+06 0 123548 4.17694e+06 0 144605 4.17575e+06 0 168569 4.17327e+06 0 -26578.1 4.14727e+06 0 -18120.6 4.14759e+06 0 -10294.9 4.14867e+06 0 -2098.02 4.15004e+06 0 6577.33 4.15151e+06 0 15847.3 4.15298e+06 0 25791.6 4.15428e+06 0 36470.1 4.15531e+06 0 47953.5 4.15598e+06 0 60332.8 4.15621e+06 0 73735.4 4.15594e+06 0 88331.8 4.15508e+06 0 104339 4.1535e+06 0 122015 4.15102e+06 0 141660 4.14737e+06 0 163490 4.14223e+06 0 -24798.6 4.13414e+06 0 -17717.8 4.13559e+06 0 -9313.59 4.13638e+06 0 -858.946 4.13719e+06 0 7914.14 4.138e+06 0 17108.7 4.13865e+06 0 26814.1 4.13908e+06 0 37122.8 4.13915e+06 0 48119.7 4.13879e+06 0 59907.2 4.1379e+06 0 72603 4.13636e+06 0 86350.1 4.13406e+06 0 101316 4.13085e+06 0 117691 4.12654e+06 0 135681 4.12087e+06 0 155531 4.11355e+06 0 -28448.2 4.12406e+06 0 -17139.8 4.12321e+06 0 -8967.15 4.12375e+06 0 -424.33 4.12428e+06 0 8270.15 4.12458e+06 0 17238.5 4.12467e+06 0 26589.1 4.1244e+06 0 36401.3 4.12369e+06 0 46779 4.12243e+06 0 57815.9 4.12052e+06 0 69623.5 4.11785e+06 0 82319.4 4.11429e+06 0 96036.4 4.10967e+06 0 110918 4.10381e+06 0 127120 4.09647e+06 0 144785 4.08739e+06 0 -19489.1 4.10753e+06 0 -17816.3 4.11068e+06 0 -8793.38 4.11124e+06 0 -478.201 4.11147e+06 0 7961.2 4.11157e+06 0 16557.4 4.11124e+06 0 25371.8 4.11047e+06 0 34534.1 4.10913e+06 0 44118.7 4.10713e+06 0 54236.7 4.10436e+06 0 64978.5 4.10072e+06 0 76448.9 4.09606e+06 0 88750.2 4.09025e+06 0 101992 4.08309e+06 0 116288 4.07438e+06 0 131758 4.06386e+06 0 -39806.6 4.10168e+06 0 -15939.6 4.09827e+06 0 -9009.51 4.09872e+06 0 -693.962 4.0992e+06 0 7353.5 4.09911e+06 0 15340.7 4.09866e+06 0 23456.2 4.09755e+06 0 31741 4.09576e+06 0 40353 4.09316e+06 0 49358.6 4.08969e+06 0 58865.4 4.08522e+06 0 68948.4 4.07965e+06 0 79693.5 4.07283e+06 0 91178.4 4.06461e+06 0 103485 4.05479e+06 0 116689 4.04314e+06 0 4850.13 4.07911e+06 0 -19519.3 4.08567e+06 0 -8155.53 4.08672e+06 0 -635.134 4.08727e+06 0 6771.93 4.08766e+06 0 14000.6 4.0872e+06 0 21063.2 4.08601e+06 0 28275.2 4.0839e+06 0 35656 4.08085e+06 0 43371.6 4.07679e+06 0 51464.1 4.07164e+06 0 60019.6 4.0653e+06 0 69086.3 4.05766e+06 0 78722.6 4.04857e+06 0 88977.7 4.03787e+06 0 99900.9 4.02535e+06 0 -88196 4.07778e+06 0 -10145.6 4.0726e+06 0 -7664.24 4.07442e+06 0 433.222 4.07649e+06 0 6947.2 4.07743e+06 0 12744.8 4.07749e+06 0 18533.1 4.07628e+06 0 24231.4 4.07398e+06 0 30201.3 4.07053e+06 0 36394.8 4.06596e+06 0 42940.4 4.06022e+06 0 49837.5 4.05324e+06 0 57137.1 4.04492e+06 0 64857.1 4.03515e+06 0 73027.3 4.02378e+06 0 81668.6 4.01062e+06 0 97722.1 4.05243e+06 0 -23029.7 4.0569e+06 0 -1035.43 4.06254e+06 0 3946.82 4.06716e+06 0 8162.75 4.06977e+06 0 12095.2 4.07025e+06 0 15673.3 4.06905e+06 0 19739.7 4.06641e+06 0 23940.4 4.06252e+06 0 28539.9 4.05744e+06 0 33393.4 4.05117e+06 0 38572.1 4.04365e+06 0 44038.1 4.0348e+06 0 49811.9 4.02451e+06 0 55889.1 4.01265e+06 0 62276.4 3.99907e+06 0 -247063 3.99404e+06 0 21311.7 4.03551e+06 0 8886.14 4.05339e+06 0 11422.5 4.06265e+06 0 10977.2 4.067e+06 0 10875.9 4.06673e+06 0 12430.9 4.0649e+06 0 14270.9 4.0615e+06 0 16908.9 4.05702e+06 0 19750.7 4.05139e+06 0 22961.6 4.04464e+06 0 26363.9 4.03667e+06 0 29997.6 4.02741e+06 0 33815.9 4.01675e+06 0 37823.9 4.00458e+06 0 42009.5 3.99077e+06 0 187390 4.14309e+06 0 55307.6 4.00736e+06 0 42594.6 4.06303e+06 0 18944.3 4.07689e+06 0 10078.9 4.06948e+06 0 7877.75 4.06811e+06 0 7006.74 4.06326e+06 0 7838.01 4.0592e+06 0 8757.91 4.05385e+06 0 10211 4.0478e+06 0 11720.8 4.04063e+06 0 13434.8 4.03236e+06 0 15224.7 4.02283e+06 0 17123.8 4.01197e+06 0 19099.2 3.99965e+06 0 21151 3.98577e+06 0 6.77523e+06 -965704 0 0 4.45835e+06 0 0 4.17496e+06 0 0 4.07353e+06 0 0 4.08393e+06 0 0 4.06528e+06 0 0 4.065e+06 0 0 4.05777e+06 0 0 4.05306e+06 0 0 4.04639e+06 0 0 4.03918e+06 0 0 4.03074e+06 0 0 4.02112e+06 0 0 4.01021e+06 0 0 3.9979e+06 0 0 3.98411e+06 0 </DataArray> 
</PointData> 
<Points> 
<DataArray type="Float32" NumberOfComponents="3"> 
0.113305 0.0633815 0 0.115471 0.0634271 0 0.117594 0.063464 0 0.119685 0.0634926 0 0.121758 0.0635132 0 0.123823 0.0635262 0 0.12589 0.0635316 0 0.127972 0.0635297 0 0.130078 0.0635204 0 0.13222 0.0635038 0 0.134409 0.0634796 0 0.136657 0.0634476 0 0.138977 0.0634077 0 0.141383 0.0633593 0 0.14389 0.063302 0 0.146516 0.0632352 0 0.113284 0.0666227 0 0.115455 0.0666271 0 0.117585 0.0666295 0 0.119686 0.06663 0 0.121769 0.0666286 0 0.123845 0.0666254 0 0.125923 0.0666204 0 0.128014 0.0666136 0 0.130128 0.0666049 0 0.132276 0.0665943 0 0.134468 0.0665818 0 0.136715 0.0665672 0 0.13903 0.0665505 0 0.141425 0.0665316 0 0.143915 0.0665102 0 0.146515 0.0664862 0 0.113264 0.0698639 0 0.11544 0.0698324 0 0.117577 0.0698048 0 0.119687 0.0697807 0 0.12178 0.0697601 0 0.123867 0.0697428 0 0.125955 0.0697287 0 0.128056 0.0697176 0 0.130179 0.0697095 0 0.132332 0.0697044 0 0.134527 0.0697022 0 0.136774 0.069703 0 0.139083 0.0697068 0 0.141468 0.0697137 0 0.14394 0.0697238 0 0.146514 0.0697372 0 0.113244 0.0731052 0 0.115424 0.0730432 0 0.117569 0.0729899 0 0.119688 0.072945 0 0.121792 0.072908 0 0.123889 0.0728786 0 0.125988 0.0728567 0 0.128099 0.072842 0 0.130229 0.0728345 0 0.132389 0.0728342 0 0.134587 0.072841 0 0.136833 0.0728551 0 0.139137 0.0728766 0 0.14151 0.0729057 0 0.143965 0.0729428 0 0.146513 0.0729882 0 0.113223 0.0763464 0 0.115408 0.0762594 0 0.11756 0.076185 0 0.119689 0.0761228 0 0.121803 0.0760722 0 0.123911 0.0760329 0 0.126021 0.0760046 0 0.128142 0.075987 0 0.130281 0.0759801 0 0.132446 0.0759839 0 0.134647 0.0759983 0 0.136892 0.0760236 0 0.139191 0.07606 0 0.141553 0.0761077 0 0.143989 0.0761673 0 0.146512 0.0762392 0 0.113203 0.0795876 0 0.115392 0.079481 0 0.117552 0.0793901 0 0.11969 0.0793143 0 0.121815 0.079253 0 0.123934 0.0792059 0 0.126055 0.0791725 0 0.128185 0.0791528 0 0.130332 0.0791465 0 0.132504 0.0791536 0 0.134708 0.0791743 0 0.136952 0.0792087 0 0.139245 0.079257 0 0.141596 0.0793197 0 0.144014 0.0793972 0 0.146511 0.0794902 0 0.113183 0.0828289 0 0.115377 0.0827081 0 0.117544 0.0826052 0 0.119691 0.0825195 0 0.121826 0.0824505 0 0.123957 0.0823977 0 0.126088 0.0823607 0 0.128229 0.0823395 0 0.130384 0.0823338 0 0.132562 0.0823437 0 0.134769 0.0823692 0 0.137012 0.0824105 0 0.1393 0.0824679 0 0.141639 0.0825418 0 0.144039 0.0826326 0 0.146509 0.0827411 0 0.113162 0.0860701 0 0.115361 0.0859407 0 0.117535 0.0858304 0 0.119692 0.0857386 0 0.121838 0.0856647 0 0.123979 0.0856085 0 0.126122 0.0855694 0 0.128272 0.0855474 0 0.130436 0.0855424 0 0.13262 0.0855542 0 0.13483 0.0855831 0 0.137072 0.0856291 0 0.139354 0.0856926 0 0.141682 0.0857739 0 0.144065 0.0858735 0 0.146508 0.0859921 0 0.113142 0.0893113 0 0.115345 0.0891787 0 0.117527 0.0890656 0 0.119693 0.0889715 0 0.12185 0.0888959 0 0.124002 0.0888384 0 0.126156 0.0887988 0 0.128316 0.0887768 0 0.130489 0.0887723 0 0.132679 0.0887854 0 0.134891 0.0888162 0 0.137133 0.0888647 0 0.139409 0.0889312 0 0.141726 0.0890161 0 0.14409 0.0891199 0 0.146507 0.0892431 0 0.113122 0.0925526 0 0.115329 0.0924223 0 0.117518 0.0923111 0 0.119694 0.0922185 0 0.121861 0.0921442 0 0.124025 0.0920878 0 0.12619 0.092049 0 0.128361 0.0920278 0 0.130542 0.0920239 0 0.132738 0.0920375 0 0.134953 0.0920686 0 0.137194 0.0921173 0 0.139464 0.0921839 0 0.141769 0.0922686 0 0.144115 0.0923718 0 0.146506 0.0924941 0 0.113102 0.0957938 0 0.115313 0.0956714 0 0.11751 0.0955668 0 0.119695 0.0954796 0 0.121873 0.0954097 0 0.124049 0.0953566 0 0.126225 0.0953203 0 0.128405 0.0953006 0 0.130595 0.0952974 0 0.132797 0.0953107 0 0.135016 0.0953406 0 0.137255 0.0953872 0 0.13952 0.0954507 0 0.141813 0.0955313 0 0.14414 0.0956293 0 0.146505 0.0957451 0 0.113081 0.0990351 0 0.115297 0.098926 0 0.117501 0.0988327 0 0.119696 0.0987549 0 0.121885 0.0986925 0 0.124072 0.0986452 0 0.126259 0.0986128 0 0.12845 0.0985954 0 0.130649 0.0985929 0 0.132857 0.0986051 0 0.135079 0.0986323 0 0.137317 0.0986745 0 0.139575 0.0987317 0 0.141857 0.0988043 0 0.144165 0.0988923 0 0.146504 0.0989961 0 0.113061 0.102276 0 0.115281 0.102186 0 0.117493 0.102109 0 0.119697 0.102045 0 0.121897 0.101993 0 0.124095 0.101954 0 0.126294 0.101927 0 0.128496 0.101913 0 0.130703 0.101911 0 0.132917 0.101921 0 0.135142 0.101944 0 0.137379 0.101979 0 0.139631 0.102027 0 0.141901 0.102088 0 0.144191 0.102161 0 0.146503 0.102247 0 0.113041 0.105518 0 0.115265 0.105452 0 0.117484 0.105396 0 0.119698 0.105349 0 0.121909 0.105311 0 0.124119 0.105282 0 0.126329 0.105263 0 0.128541 0.105252 0 0.130757 0.105251 0 0.132978 0.105259 0 0.135205 0.105276 0 0.137441 0.105302 0 0.139687 0.105337 0 0.141945 0.105381 0 0.144216 0.105435 0 0.146502 0.105498 0 0.11302 0.108759 0 0.115249 0.108723 0 0.117475 0.108693 0 0.119699 0.108667 0 0.121921 0.108646 0 0.124143 0.108631 0 0.126364 0.10862 0 0.128587 0.108615 0 0.130812 0.108614 0 0.133039 0.108618 0 0.135269 0.108628 0 0.137504 0.108642 0 0.139743 0.108661 0 0.141989 0.108685 0 0.144241 0.108715 0 0.146501 0.108749 0 0.113 0.112 0 0.115233 0.112 0 0.117467 0.112 0 0.1197 0.112 0 0.121933 0.112 0 0.124167 0.112 0 0.1264 0.112 0 0.128633 0.112 0 0.130867 0.112 0 0.1331 0.112 0 0.135333 0.112 0 0.137567 0.112 0 0.1398 0.112 0 0.142033 0.112 0 0.144267 0.112 0 0.1465 0.112 0 
</DataArray>
</Points> 
</Piece> 
</StructuredGrid> 
</VTKFile> 
