<?xml version="1.0"?> 
<VTKFile type="StructuredGrid" version="0.1"> 
<StructuredGrid WholeExtent="0 15 0 15 0 0"> 
<Piece Extent="0 15 0 15 0 0"> 
<PointData>
<DataArray type="Float32" Name="|E|" format="ascii" NumberOfComponents="3"> 
-1.66376e+06 0 0 -1.67011e+06 127209 0 -1.68907e+06 256335 0 -1.72034e+06 389341 0 -1.7633e+06 528287 0 -1.81674e+06 675376 0 -1.87848e+06 832521 0 -1.94438e+06 1.00173e+06 0 -2.0077e+06 1.18068e+06 0 -2.05695e+06 1.36478e+06 0 -2.08273e+06 1.52419e+06 0 -2.08737e+06 1.6197e+06 0 -2.11585e+06 1.58851e+06 0 -2.2499e+06 1.35328e+06 0 -2.4376e+06 1.05314e+06 0 -3.8165e+06 2.20976e+06 0 -1.65015e+06 0 0 -1.65513e+06 125874 0 -1.67195e+06 253711 0 -1.70028e+06 385315 0 -1.73952e+06 522546 0 -1.78851e+06 667348 0 -1.8454e+06 821353 0 -1.9065e+06 986039 0 -1.96694e+06 1.15969e+06 0 -2.01719e+06 1.33718e+06 0 -2.05255e+06 1.49878e+06 0 -2.07228e+06 1.60738e+06 0 -2.11714e+06 1.62546e+06 0 -2.24066e+06 1.47535e+06 0 -2.4993e+06 1.20694e+06 0 -2.74788e+06 833886 0 -1.6364e+06 0 0 -1.64e+06 124455 0 -1.65471e+06 250910 0 -1.68017e+06 381024 0 -1.71581e+06 516468 0 -1.7605e+06 658965 0 -1.8127e+06 809897 0 -1.86917e+06 970411 0 -1.92631e+06 1.13907e+06 0 -1.97657e+06 1.31135e+06 0 -2.01767e+06 1.47264e+06 0 -2.04877e+06 1.59448e+06 0 -2.10308e+06 1.64536e+06 0 -2.22345e+06 1.5746e+06 0 -2.48614e+06 1.37039e+06 0 -2.80907e+06 892746 0 -1.62251e+06 0 0 -1.62473e+06 122952 0 -1.63736e+06 247938 0 -1.66001e+06 376473 0 -1.69215e+06 510063 0 -1.7327e+06 650230 0 -1.78036e+06 798153 0 -1.83233e+06 954735 0 -1.88589e+06 1.11878e+06 0 -1.93525e+06 1.28647e+06 0 -1.97936e+06 1.44677e+06 0 -2.01822e+06 1.57847e+06 0 -2.07749e+06 1.65594e+06 0 -2.19433e+06 1.64515e+06 0 -2.43985e+06 1.5215e+06 0 -2.8356e+06 1.20186e+06 0 -1.60848e+06 0 0 -1.60932e+06 121369 0 -1.61988e+06 244798 0 -1.6398e+06 371670 0 -1.66853e+06 503338 0 -1.7051e+06 641147 0 -1.74835e+06 786113 0 -1.79593e+06 938947 0 -1.84572e+06 1.09869e+06 0 -1.89342e+06 1.26218e+06 0 -1.93852e+06 1.42107e+06 0 -1.98203e+06 1.55975e+06 0 -2.04318e+06 1.65808e+06 0 -2.15415e+06 1.69323e+06 0 -2.37498e+06 1.64363e+06 0 -2.7712e+06 1.46302e+06 0 -1.59432e+06 0 0 -1.59376e+06 119708 0 -1.60229e+06 241494 0 -1.61953e+06 366620 0 -1.64495e+06 496299 0 -1.67767e+06 631721 0 -1.71664e+06 773764 0 -1.75994e+06 923004 0 -1.80583e+06 1.07867e+06 0 -1.85123e+06 1.23825e+06 0 -1.89587e+06 1.39534e+06 0 -1.94146e+06 1.53871e+06 0 -2.00228e+06 1.65291e+06 0 -2.10541e+06 1.72269e+06 0 -2.29896e+06 1.73356e+06 0 -2.65567e+06 1.66754e+06 0 -1.58002e+06 0 0 -1.57807e+06 117968 0 -1.58459e+06 238030 0 -1.59921e+06 361329 0 -1.62141e+06 488955 0 -1.65039e+06 621956 0 -1.68523e+06 761100 0 -1.72432e+06 906862 0 -1.76626e+06 1.05864e+06 0 -1.80885e+06 1.21447e+06 0 -1.85194e+06 1.36949e+06 0 -1.89761e+06 1.51561e+06 0 -1.9565e+06 1.64156e+06 0 -2.05049e+06 1.73691e+06 0 -2.21749e+06 1.79381e+06 0 -2.51885e+06 1.80935e+06 0 -1.56559e+06 0 0 -1.56224e+06 116154 0 -1.56678e+06 234409 0 -1.57882e+06 355803 0 -1.5979e+06 481311 0 -1.62326e+06 611857 0 -1.65409e+06 748115 0 -1.68906e+06 890487 0 -1.72701e+06 1.03852e+06 0 -1.7664e+06 1.19069e+06 0 -1.80716e+06 1.34338e+06 0 -1.85139e+06 1.49078e+06 0 -1.90713e+06 1.62491e+06 0 -1.99152e+06 1.73882e+06 0 -2.13377e+06 1.82912e+06 0 -2.38151e+06 1.90035e+06 0 -1.55104e+06 0 0 -1.54628e+06 114265 0 -1.54885e+06 230636 0 -1.55839e+06 350048 0 -1.57441e+06 473374 0 -1.59627e+06 601427 0 -1.6232e+06 734804 0 -1.65414e+06 873850 0 -1.68809e+06 1.01824e+06 0 -1.724e+06 1.16682e+06 0 -1.76185e+06 1.31693e+06 0 -1.80355e+06 1.46443e+06 0 -1.85526e+06 1.60385e+06 0 -1.93005e+06 1.73073e+06 0 -2.05e+06 1.8444e+06 0 -2.25024e+06 1.95276e+06 0 -1.53635e+06 0 0 -1.53018e+06 112304 0 -1.53081e+06 226714 0 -1.53789e+06 344068 0 -1.55095e+06 465149 0 -1.5694e+06 590671 0 -1.59256e+06 721163 0 -1.61954e+06 856928 0 -1.64952e+06 997751 0 -1.68175e+06 1.14277e+06 0 -1.71625e+06 1.29007e+06 0 -1.75468e+06 1.43674e+06 0 -1.80175e+06 1.57915e+06 0 -1.86724e+06 1.71459e+06 0 -1.96756e+06 1.84391e+06 0 -2.12774e+06 1.97563e+06 0 -1.52155e+06 0 0 -1.51396e+06 110273 0 -1.51267e+06 222646 0 -1.51733e+06 337870 0 -1.5275e+06 456643 0 -1.54265e+06 579593 0 -1.56214e+06 707189 0 -1.58526e+06 839705 0 -1.6113e+06 977010 0 -1.63972e+06 1.11848e+06 0 -1.67058e+06 1.26277e+06 0 -1.70523e+06 1.40786e+06 0 -1.74727e+06 1.55143e+06 0 -1.80393e+06 1.69203e+06 0 -1.88713e+06 1.83118e+06 0 -2.01446e+06 1.97689e+06 0 -1.50661e+06 0 0 -1.49761e+06 108173 0 -1.49442e+06 218436 0 -1.49671e+06 331459 0 -1.50407e+06 447862 0 -1.516e+06 568197 0 -1.53194e+06 692882 0 -1.55128e+06 822164 0 -1.57343e+06 955983 0 -1.59798e+06 1.09391e+06 0 -1.625e+06 1.235e+06 0 -1.65555e+06 1.37793e+06 0 -1.69236e+06 1.52125e+06 0 -1.7407e+06 1.66435e+06 0 -1.8091e+06 1.80903e+06 0 -1.90964e+06 1.96222e+06 0 -1.49156e+06 0 0 -1.48113e+06 106006 0 -1.47606e+06 214087 0 -1.47603e+06 324839 0 -1.48065e+06 438812 0 -1.48945e+06 556489 0 -1.50194e+06 678241 0 -1.51759e+06 804296 0 -1.53591e+06 934647 0 -1.55657e+06 1.06901e+06 0 -1.57963e+06 1.20676e+06 0 -1.6059e+06 1.34704e+06 0 -1.63743e+06 1.48903e+06 0 -1.67799e+06 1.63263e+06 0 -1.73357e+06 1.77965e+06 0 -1.81235e+06 1.93581e+06 0 -1.47639e+06 0 0 -1.46453e+06 103774 0 -1.4576e+06 209602 0 -1.45529e+06 318016 0 -1.45723e+06 429497 0 -1.46299e+06 544471 0 -1.47213e+06 663267 0 -1.48418e+06 786093 0 -1.49874e+06 912981 0 -1.51552e+06 1.04376e+06 0 -1.53457e+06 1.17804e+06 0 -1.55649e+06 1.31529e+06 0 -1.58276e+06 1.45511e+06 0 -1.61607e+06 1.59771e+06 0 -1.66054e+06 1.74477e+06 0 -1.7216e+06 1.90087e+06 0 -1.4611e+06 0 0 -1.44781e+06 101477 0 -1.43904e+06 204986 0 -1.43449e+06 310994 0 -1.43381e+06 419925 0 -1.43661e+06 532150 0 -1.44249e+06 647960 0 -1.45105e+06 767548 0 -1.46192e+06 890972 0 -1.47487e+06 1.01814e+06 0 -1.4899e+06 1.14884e+06 0 -1.50746e+06 1.28277e+06 0 -1.52858e+06 1.41979e+06 0 -1.55515e+06 1.56026e+06 0 -1.58993e+06 1.70569e+06 0 -1.63644e+06 1.85966e+06 0 -1.4457e+06 0 0 -1.43096e+06 99117.7 0 -1.42037e+06 200240 0 -1.41362e+06 303778 0 -1.41039e+06 410100 0 -1.41031e+06 519530 0 -1.41303e+06 632324 0 -1.41818e+06 748658 0 -1.42545e+06 868610 0 -1.43462e+06 992150 0 -1.44568e+06 1.11917e+06 0 -1.45892e+06 1.24954e+06 0 -1.47505e+06 1.38327e+06 0 -1.49535e+06 1.52081e+06 0 -1.52163e+06 1.66343e+06 0 -1.55609e+06 1.8139e+06 0 </DataArray> 
</PointData> 
<Points> 
<DataArray type="Float32" NumberOfComponents="3"> 
0 0.045 0 0.00666667 0.045 0 0.0133333 0.045 0 0.02 0.045 0 0.0266667 0.045 0 0.0333333 0.045 0 0.04 0.045 0 0.0466667 0.045 0 0.0533333 0.045 0 0.06 0.045 0 0.0666667 0.045 0 0.0733333 0.045 0 0.08 0.045 0 0.0866667 0.045 0 0.0933333 0.045 0 0.1 0.045 0 0 0.0457111 0 0.00652356 0.045763 0 0.0130471 0.0458148 0 0.0195707 0.0458667 0 0.0260942 0.0459185 0 0.0326178 0.0459704 0 0.0391413 0.0460222 0 0.0456649 0.0460741 0 0.0521884 0.0461259 0 0.058712 0.0461778 0 0.0652356 0.0462296 0 0.0717591 0.0462815 0 0.0782827 0.0463333 0 0.0848062 0.0463852 0 0.0913298 0.046437 0 0.0978533 0.0464889 0 0 0.0464222 0 0.00638044 0.0465259 0 0.0127609 0.0466296 0 0.0191413 0.0467333 0 0.0255218 0.046837 0 0.0319022 0.0469407 0 0.0382827 0.0470444 0 0.0446631 0.0471481 0 0.0510436 0.0472519 0 0.057424 0.0473556 0 0.0638044 0.0474593 0 0.0701849 0.047563 0 0.0765653 0.0476667 0 0.0829458 0.0477704 0 0.0893262 0.0478741 0 0.0957067 0.0479778 0 0 0.0471333 0 0.00623733 0.0472889 0 0.0124747 0.0474444 0 0.018712 0.0476 0 0.0249493 0.0477556 0 0.0311867 0.0479111 0 0.037424 0.0480667 0 0.0436613 0.0482222 0 0.0498987 0.0483778 0 0.056136 0.0485333 0 0.0623733 0.0486889 0 0.0686107 0.0488444 0 0.074848 0.049 0 0.0810853 0.0491556 0 0.0873227 0.0493111 0 0.09356 0.0494667 0 0 0.0478444 0 0.00609422 0.0480519 0 0.0121884 0.0482593 0 0.0182827 0.0484667 0 0.0243769 0.0486741 0 0.0304711 0.0488815 0 0.0365653 0.0490889 0 0.0426596 0.0492963 0 0.0487538 0.0495037 0 0.054848 0.0497111 0 0.0609422 0.0499185 0 0.0670364 0.0501259 0 0.0731307 0.0503333 0 0.0792249 0.0505407 0 0.0853191 0.0507481 0 0.0914133 0.0509556 0 0 0.0485556 0 0.00595111 0.0488148 0 0.0119022 0.0490741 0 0.0178533 0.0493333 0 0.0238044 0.0495926 0 0.0297556 0.0498519 0 0.0357067 0.0501111 0 0.0416578 0.0503704 0 0.0476089 0.0506296 0 0.05356 0.0508889 0 0.0595111 0.0511481 0 0.0654622 0.0514074 0 0.0714133 0.0516667 0 0.0773644 0.0519259 0 0.0833156 0.0521852 0 0.0892667 0.0524444 0 0 0.0492667 0 0.005808 0.0495778 0 0.011616 0.0498889 0 0.017424 0.0502 0 0.023232 0.0505111 0 0.02904 0.0508222 0 0.034848 0.0511333 0 0.040656 0.0514444 0 0.046464 0.0517556 0 0.052272 0.0520667 0 0.05808 0.0523778 0 0.063888 0.0526889 0 0.069696 0.053 0 0.075504 0.0533111 0 0.081312 0.0536222 0 0.08712 0.0539333 0 0 0.0499778 0 0.00566489 0.0503407 0 0.0113298 0.0507037 0 0.0169947 0.0510667 0 0.0226596 0.0514296 0 0.0283244 0.0517926 0 0.0339893 0.0521556 0 0.0396542 0.0525185 0 0.0453191 0.0528815 0 0.050984 0.0532444 0 0.0566489 0.0536074 0 0.0623138 0.0539704 0 0.0679787 0.0543333 0 0.0736436 0.0546963 0 0.0793084 0.0550593 0 0.0849733 0.0554222 0 0 0.0506889 0 0.00552178 0.0511037 0 0.0110436 0.0515185 0 0.0165653 0.0519333 0 0.0220871 0.0523481 0 0.0276089 0.052763 0 0.0331307 0.0531778 0 0.0386524 0.0535926 0 0.0441742 0.0540074 0 0.049696 0.0544222 0 0.0552178 0.054837 0 0.0607396 0.0552519 0 0.0662613 0.0556667 0 0.0717831 0.0560815 0 0.0773049 0.0564963 0 0.0828267 0.0569111 0 0 0.0514 0 0.00537867 0.0518667 0 0.0107573 0.0523333 0 0.016136 0.0528 0 0.0215147 0.0532667 0 0.0268933 0.0537333 0 0.032272 0.0542 0 0.0376507 0.0546667 0 0.0430293 0.0551333 0 0.048408 0.0556 0 0.0537867 0.0560667 0 0.0591653 0.0565333 0 0.064544 0.057 0 0.0699227 0.0574667 0 0.0753013 0.0579333 0 0.08068 0.0584 0 0 0.0521111 0 0.00523556 0.0526296 0 0.0104711 0.0531481 0 0.0157067 0.0536667 0 0.0209422 0.0541852 0 0.0261778 0.0547037 0 0.0314133 0.0552222 0 0.0366489 0.0557407 0 0.0418844 0.0562593 0 0.04712 0.0567778 0 0.0523556 0.0572963 0 0.0575911 0.0578148 0 0.0628267 0.0583333 0 0.0680622 0.0588519 0 0.0732978 0.0593704 0 0.0785333 0.0598889 0 0 0.0528222 0 0.00509244 0.0533926 0 0.0101849 0.053963 0 0.0152773 0.0545333 0 0.0203698 0.0551037 0 0.0254622 0.0556741 0 0.0305547 0.0562444 0 0.0356471 0.0568148 0 0.0407396 0.0573852 0 0.045832 0.0579556 0 0.0509244 0.0585259 0 0.0560169 0.0590963 0 0.0611093 0.0596667 0 0.0662018 0.060237 0 0.0712942 0.0608074 0 0.0763867 0.0613778 0 0 0.0535333 0 0.00494933 0.0541556 0 0.00989867 0.0547778 0 0.014848 0.0554 0 0.0197973 0.0560222 0 0.0247467 0.0566444 0 0.029696 0.0572667 0 0.0346453 0.0578889 0 0.0395947 0.0585111 0 0.044544 0.0591333 0 0.0494933 0.0597556 0 0.0544427 0.0603778 0 0.059392 0.061 0 0.0643413 0.0616222 0 0.0692907 0.0622444 0 0.07424 0.0628667 0 0 0.0542444 0 0.00480622 0.0549185 0 0.00961244 0.0555926 0 0.0144187 0.0562667 0 0.0192249 0.0569407 0 0.0240311 0.0576148 0 0.0288373 0.0582889 0 0.0336436 0.058963 0 0.0384498 0.059637 0 0.043256 0.0603111 0 0.0480622 0.0609852 0 0.0528684 0.0616593 0 0.0576747 0.0623333 0 0.0624809 0.0630074 0 0.0672871 0.0636815 0 0.0720933 0.0643556 0 0 0.0549556 0 0.00466311 0.0556815 0 0.00932622 0.0564074 0 0.0139893 0.0571333 0 0.0186524 0.0578593 0 0.0233156 0.0585852 0 0.0279787 0.0593111 0 0.0326418 0.060037 0 0.0373049 0.060763 0 0.041968 0.0614889 0 0.0466311 0.0622148 0 0.0512942 0.0629407 0 0.0559573 0.0636667 0 0.0606204 0.0643926 0 0.0652836 0.0651185 0 0.0699467 0.0658444 0 0 0.0556667 0 0.00452 0.0564444 0 0.00904 0.0572222 0 0.01356 0.058 0 0.01808 0.0587778 0 0.0226 0.0595556 0 0.02712 0.0603333 0 0.03164 0.0611111 0 0.03616 0.0618889 0 0.04068 0.0626667 0 0.0452 0.0634444 0 0.04972 0.0642222 0 0.05424 0.065 0 0.05876 0.0657778 0 0.06328 0.0665556 0 0.0678 0.0673333 0 
</DataArray>
</Points> 
</Piece> 
</StructuredGrid> 
</VTKFile> 
