<?xml version="1.0"?> 
<VTKFile type="StructuredGrid" version="0.1"> 
<StructuredGrid WholeExtent="0 15 0 15 0 0"> 
<Piece Extent="0 15 0 15 0 0"> 
<PointData>
<DataArray type="Float32" Name="|E|" format="ascii" NumberOfComponents="3"> 
-1.4457e+06 0 0 -1.43096e+06 99117.9 0 -1.42037e+06 200241 0 -1.41362e+06 303779 0 -1.41039e+06 410101 0 -1.41031e+06 519531 0 -1.41303e+06 632324 0 -1.41818e+06 748658 0 -1.42545e+06 868610 0 -1.43462e+06 992154 0 -1.44568e+06 1.11918e+06 0 -1.45892e+06 1.24956e+06 0 -1.47506e+06 1.3833e+06 0 -1.49536e+06 1.52085e+06 0 -1.52164e+06 1.66348e+06 0 -1.5561e+06 1.81393e+06 0 -1.36253e+06 0 0 -1.34835e+06 107182 0 -1.33832e+06 216235 0 -1.33216e+06 327606 0 -1.32954e+06 441701 0 -1.33012e+06 558872 0 -1.33357e+06 679407 0 -1.33956e+06 803517 0 -1.34784e+06 931326 0 -1.35831e+06 1.06289e+06 0 -1.3711e+06 1.19826e+06 0 -1.38665e+06 1.33759e+06 0 -1.40584e+06 1.48137e+06 0 -1.42998e+06 1.63083e+06 0 -1.46063e+06 1.78844e+06 0 -1.49917e+06 1.95863e+06 0 -1.2765e+06 0 0 -1.26298e+06 115221 0 -1.2536e+06 232187 0 -1.24808e+06 351384 0 -1.24611e+06 473259 0 -1.24737e+06 598203 0 -1.25155e+06 726549 0 -1.25836e+06 858559 0 -1.26765e+06 994440 0 -1.27937e+06 1.13438e+06 0 -1.29376e+06 1.27867e+06 0 -1.31134e+06 1.42782e+06 0 -1.33295e+06 1.58295e+06 0 -1.35958e+06 1.74619e+06 0 -1.39199e+06 1.92124e+06 0 -1.42977e+06 2.11412e+06 0 -1.18785e+06 0 0 -1.1751e+06 123214 0 -1.16643e+06 248057 0 -1.16159e+06 375060 0 -1.16029e+06 504713 0 -1.16221e+06 637458 0 -1.16708e+06 773683 0 -1.17467e+06 913726 0 -1.18484e+06 1.05791e+06 0 -1.19763e+06 1.2066e+06 0 -1.21329e+06 1.36035e+06 0 -1.23225e+06 1.52015e+06 0 -1.25505e+06 1.68774e+06 0 -1.28198e+06 1.86613e+06 0 -1.31224e+06 2.06005e+06 0 -1.3427e+06 2.27645e+06 0 -1.09684e+06 0 0 -1.08494e+06 131141 0 -1.07704e+06 263807 0 -1.0729e+06 398578 0 -1.07225e+06 535995 0 -1.07479e+06 676558 0 -1.08028e+06 820722 0 -1.0885e+06 968923 0 -1.09937e+06 1.12161e+06 0 -1.1129e+06 1.27937e+06 0 -1.12924e+06 1.44306e+06 0 -1.1486e+06 1.61411e+06 0 -1.1709e+06 1.79484e+06 0 -1.19522e+06 1.98888e+06 0 -1.21863e+06 2.2014e+06 0 -1.23444e+06 2.439e+06 0 -1.00369e+06 0 0 -992715 138982 0 -985628 279399 0 -982192 421882 0 -982148 567032 0 -985235 715412 0 -991215 867560 0 -999897 1.02401e+06 0 -1.01116e+06 1.18538e+06 0 -1.02497e+06 1.35244e+06 0 -1.04126e+06 1.52635e+06 0 -1.05977e+06 1.70889e+06 0 -1.07956e+06 1.90275e+06 0 -1.0981e+06 2.11173e+06 0 -1.1099e+06 2.34047e+06 0 -1.10466e+06 2.59342e+06 0 -908628 0 0 -898642 146716 0 -892384 294789 0 -889632 444910 0 -890143 597742 0 -893670 753920 0 -899984 914067 0 -908885 1.07883e+06 0 -920202 1.24896e+06 0 -933739 1.42542e+06 0 -949125 1.60957e+06 0 -965466 1.8034e+06 0 -980704 2.00959e+06 0 -990550 2.23145e+06 0 -986957 2.4719e+06 0 -956906 2.73138e+06 0 -811862 0 0 -802917 154321 0 -797496 309936 0 -795393 467599 0 -796377 628041 0 -800216 791971 0 -806675 960100 0 -815525 1.13318e+06 0 -826501 1.31206e+06 0 -839199 1.49785e+06 0 -852834 1.692e+06 0 -865774 1.89641e+06 0 -874767 2.11333e+06 0 -873829 2.34478e+06 0 -852998 2.5908e+06 0 -798196 2.84663e+06 0 -713598 0 0 -705734 161774 0 -701144 324795 0 -699637 489883 0 -700997 657840 0 -704997 829451 0 -711393 1.00551e+06 0 -719908 1.18684e+06 0 -730155 1.37439e+06 0 -741481 1.56929e+06 0 -752642 1.77289e+06 0 -761251 1.98674e+06 0 -762957 2.21212e+06 0 -750490 2.44901e+06 0 -713044 2.69382e+06 0 -637535 2.93629e+06 0 -614035 0 0 -607282 169053 0 -603504 339320 0 -602526 511694 0 -604146 687050 0 -608144 866245 0 -614259 1.05014e+06 0 -622159 1.23963e+06 0 -631327 1.43567e+06 0 -640852 1.63931e+06 0 -649052 1.85162e+06 0 -652877 2.07343e+06 0 -647163 2.30459e+06 0 -624019 2.54249e+06 0 -573077 2.77963e+06 0 -484012 3.00105e+06 0 -513366 0 0 -507744 176133 0 -504747 353466 0 -504217 532966 0 -505969 715581 0 -509789 902242 0 -515406 1.09387e+06 0 -522435 1.29137e+06 0 -530242 1.49566e+06 0 -537698 1.70758e+06 0 -542770 1.92772e+06 0 -541959 2.15588e+06 0 -529725 2.39007e+06 0 -498350 2.62483e+06 0 -439058 2.84901e+06 0 -345351 3.0444e+06 0 -411782 0 0 -407302 182991 0 -405041 367185 0 -404865 553630 0 -406608 743350 0 -410068 937339 0 -414973 1.13656e+06 0 -420909 1.34191e+06 0 -427166 1.5542e+06 0 -432481 1.77394e+06 0 -434637 2.00102e+06 0 -429993 2.23396e+06 0 -413163 2.4687e+06 0 -377361 2.6969e+06 0 -316199 2.90441e+06 0 -227157 3.07136e+06 0 -309470 0 0 -306132 189602 0 -304553 380433 0 -304622 573622 0 -306200 770272 0 -309110 971442 0 -313099 1.17812e+06 0 -317759 1.39118e+06 0 -322378 1.61123e+06 0 -325689 1.83837e+06 0 -325532 2.07163e+06 0 -318505 2.30806e+06 0 -299916 2.54138e+06 0 -264505 2.76058e+06 0 -208532 2.94929e+06 0 -132966 3.08739e+06 0 -206614 0 0 -204411 195943 0 -203444 393161 0 -203635 592875 0 -204880 796269 0 -207041 1.00447e+06 0 -209912 1.21848e+06 0 -213147 1.43912e+06 0 -216134 1.66678e+06 0 -217784 1.90105e+06 0 -216290 2.13998e+06 0 -208913 2.37903e+06 0 -192157 2.60965e+06 0 -162608 2.81845e+06 0 -118953 2.98749e+06 0 -64799.4 3.09795e+06 0 -103397 0 0 -102310 201987 0 -101874 405322 0 -102048 611323 0 -102774 821263 0 -103972 1.03633e+06 0 -105519 1.25757e+06 0 -107202 1.48573e+06 0 -108636 1.72097e+06 0 -109141 1.96232e+06 0 -107612 2.2068e+06 0 -102428 2.44816e+06 0 -91695.4 2.67559e+06 0 -73886.8 2.87341e+06 0 -49127.1 3.02276e+06 0 -23251.2 3.10716e+06 0 0 0 0 0 207710 0 0 416868 0 0 628899 0 0 845174 0 0 1.06697e+06 0 0 1.29536e+06 0 0 1.53105e+06 0 0 1.77399e+06 0 0 2.02268e+06 0 0 2.27307e+06 0 0 2.51708e+06 0 0 2.74161e+06 0 0 2.92823e+06 0 0 3.05844e+06 0 0 3.13531e+06 0 </DataArray> 
</PointData> 
<Points> 
<DataArray type="Float32" NumberOfComponents="3"> 
0 0.0556667 0 0.00452 0.0564444 0 0.00904 0.0572222 0 0.01356 0.058 0 0.01808 0.0587778 0 0.0226 0.0595556 0 0.02712 0.0603333 0 0.03164 0.0611111 0 0.03616 0.0618889 0 0.04068 0.0626667 0 0.0452 0.0634444 0 0.04972 0.0642222 0 0.05424 0.065 0 0.05876 0.0657778 0 0.06328 0.0665556 0 0.0678 0.0673333 0 0 0.0594222 0 0.00472089 0.0601481 0 0.00944178 0.0608741 0 0.0141627 0.0616 0 0.0188836 0.0623259 0 0.0236044 0.0630519 0 0.0283253 0.0637778 0 0.0330462 0.0645037 0 0.0377671 0.0652296 0 0.042488 0.0659556 0 0.0472089 0.0666815 0 0.0519298 0.0674074 0 0.0566507 0.0681333 0 0.0613716 0.0688593 0 0.0660924 0.0695852 0 0.0708133 0.0703111 0 0 0.0631778 0 0.00492178 0.0638519 0 0.00984356 0.0645259 0 0.0147653 0.0652 0 0.0196871 0.0658741 0 0.0246089 0.0665481 0 0.0295307 0.0672222 0 0.0344524 0.0678963 0 0.0393742 0.0685704 0 0.044296 0.0692444 0 0.0492178 0.0699185 0 0.0541396 0.0705926 0 0.0590613 0.0712667 0 0.0639831 0.0719407 0 0.0689049 0.0726148 0 0.0738267 0.0732889 0 0 0.0669333 0 0.00512267 0.0675556 0 0.0102453 0.0681778 0 0.015368 0.0688 0 0.0204907 0.0694222 0 0.0256133 0.0700444 0 0.030736 0.0706667 0 0.0358587 0.0712889 0 0.0409813 0.0719111 0 0.046104 0.0725333 0 0.0512267 0.0731556 0 0.0563493 0.0737778 0 0.061472 0.0744 0 0.0665947 0.0750222 0 0.0717173 0.0756444 0 0.07684 0.0762667 0 0 0.0706889 0 0.00532356 0.0712593 0 0.0106471 0.0718296 0 0.0159707 0.0724 0 0.0212942 0.0729704 0 0.0266178 0.0735407 0 0.0319413 0.0741111 0 0.0372649 0.0746815 0 0.0425884 0.0752519 0 0.047912 0.0758222 0 0.0532356 0.0763926 0 0.0585591 0.076963 0 0.0638827 0.0775333 0 0.0692062 0.0781037 0 0.0745298 0.0786741 0 0.0798533 0.0792444 0 0 0.0744444 0 0.00552444 0.074963 0 0.0110489 0.0754815 0 0.0165733 0.076 0 0.0220978 0.0765185 0 0.0276222 0.077037 0 0.0331467 0.0775556 0 0.0386711 0.0780741 0 0.0441956 0.0785926 0 0.04972 0.0791111 0 0.0552444 0.0796296 0 0.0607689 0.0801481 0 0.0662933 0.0806667 0 0.0718178 0.0811852 0 0.0773422 0.0817037 0 0.0828667 0.0822222 0 0 0.0782 0 0.00572533 0.0786667 0 0.0114507 0.0791333 0 0.017176 0.0796 0 0.0229013 0.0800667 0 0.0286267 0.0805333 0 0.034352 0.081 0 0.0400773 0.0814667 0 0.0458027 0.0819333 0 0.051528 0.0824 0 0.0572533 0.0828667 0 0.0629787 0.0833333 0 0.068704 0.0838 0 0.0744293 0.0842667 0 0.0801547 0.0847333 0 0.08588 0.0852 0 0 0.0819556 0 0.00592622 0.0823704 0 0.0118524 0.0827852 0 0.0177787 0.0832 0 0.0237049 0.0836148 0 0.0296311 0.0840296 0 0.0355573 0.0844444 0 0.0414836 0.0848593 0 0.0474098 0.0852741 0 0.053336 0.0856889 0 0.0592622 0.0861037 0 0.0651884 0.0865185 0 0.0711147 0.0869333 0 0.0770409 0.0873481 0 0.0829671 0.087763 0 0.0888933 0.0881778 0 0 0.0857111 0 0.00612711 0.0860741 0 0.0122542 0.086437 0 0.0183813 0.0868 0 0.0245084 0.087163 0 0.0306356 0.0875259 0 0.0367627 0.0878889 0 0.0428898 0.0882519 0 0.0490169 0.0886148 0 0.055144 0.0889778 0 0.0612711 0.0893407 0 0.0673982 0.0897037 0 0.0735253 0.0900667 0 0.0796524 0.0904296 0 0.0857796 0.0907926 0 0.0919067 0.0911556 0 0 0.0894667 0 0.006328 0.0897778 0 0.012656 0.0900889 0 0.018984 0.0904 0 0.025312 0.0907111 0 0.03164 0.0910222 0 0.037968 0.0913333 0 0.044296 0.0916444 0 0.050624 0.0919556 0 0.056952 0.0922667 0 0.06328 0.0925778 0 0.069608 0.0928889 0 0.075936 0.0932 0 0.082264 0.0935111 0 0.088592 0.0938222 0 0.09492 0.0941333 0 0 0.0932222 0 0.00652889 0.0934815 0 0.0130578 0.0937407 0 0.0195867 0.094 0 0.0261156 0.0942593 0 0.0326444 0.0945185 0 0.0391733 0.0947778 0 0.0457022 0.095037 0 0.0522311 0.0952963 0 0.05876 0.0955556 0 0.0652889 0.0958148 0 0.0718178 0.0960741 0 0.0783467 0.0963333 0 0.0848756 0.0965926 0 0.0914044 0.0968519 0 0.0979333 0.0971111 0 0 0.0969778 0 0.00672978 0.0971852 0 0.0134596 0.0973926 0 0.0201893 0.0976 0 0.0269191 0.0978074 0 0.0336489 0.0980148 0 0.0403787 0.0982222 0 0.0471084 0.0984296 0 0.0538382 0.098637 0 0.060568 0.0988444 0 0.0672978 0.0990519 0 0.0740276 0.0992593 0 0.0807573 0.0994667 0 0.0874871 0.0996741 0 0.0942169 0.0998815 0 0.100947 0.100089 0 0 0.100733 0 0.00693067 0.100889 0 0.0138613 0.101044 0 0.020792 0.1012 0 0.0277227 0.101356 0 0.0346533 0.101511 0 0.041584 0.101667 0 0.0485147 0.101822 0 0.0554453 0.101978 0 0.062376 0.102133 0 0.0693067 0.102289 0 0.0762373 0.102444 0 0.083168 0.1026 0 0.0900987 0.102756 0 0.0970293 0.102911 0 0.10396 0.103067 0 0 0.104489 0 0.00713156 0.104593 0 0.0142631 0.104696 0 0.0213947 0.1048 0 0.0285262 0.104904 0 0.0356578 0.105007 0 0.0427893 0.105111 0 0.0499209 0.105215 0 0.0570524 0.105319 0 0.064184 0.105422 0 0.0713156 0.105526 0 0.0784471 0.10563 0 0.0855787 0.105733 0 0.0927102 0.105837 0 0.0998418 0.105941 0 0.106973 0.106044 0 0 0.108244 0 0.00733244 0.108296 0 0.0146649 0.108348 0 0.0219973 0.1084 0 0.0293298 0.108452 0 0.0366622 0.108504 0 0.0439947 0.108556 0 0.0513271 0.108607 0 0.0586596 0.108659 0 0.065992 0.108711 0 0.0733244 0.108763 0 0.0806569 0.108815 0 0.0879893 0.108867 0 0.0953218 0.108919 0 0.102654 0.10897 0 0.109987 0.109022 0 0 0.112 0 0.00753333 0.112 0 0.0150667 0.112 0 0.0226 0.112 0 0.0301333 0.112 0 0.0376667 0.112 0 0.0452 0.112 0 0.0527333 0.112 0 0.0602667 0.112 0 0.0678 0.112 0 0.0753333 0.112 0 0.0828667 0.112 0 0.0904 0.112 0 0.0979333 0.112 0 0.105467 0.112 0 0.113 0.112 0 
</DataArray>
</Points> 
</Piece> 
</StructuredGrid> 
</VTKFile> 
