<?xml version="1.0"?> 
<VTKFile type="StructuredGrid" version="0.1"> 
<StructuredGrid WholeExtent="0 15 0 15 0 0"> 
<Piece Extent="0 15 0 15 0 0"> 
<PointData>
<DataArray type="Float32" Name="|E|" format="ascii" NumberOfComponents="3"> 
-2.10729e+06 0 0 -2.11347e+06 25293.9 0 -2.13211e+06 50979.7 0 -2.16349e+06 77467.7 0 -2.20809e+06 105209 0 -2.26661e+06 134703 0 -2.34005e+06 166515 0 -2.42975e+06 201289 0 -2.53753e+06 239448 0 -2.66573e+06 281308 0 -2.81781e+06 326012 0 -2.99788e+06 368426 0 -3.21089e+06 397523 0 -3.45687e+06 384795 0 -3.69766e+06 270615 0 -3.81674e+06 -15724.2 0 -2.10523e+06 0 0 -2.11067e+06 24663.4 0 -2.12704e+06 49662.8 0 -2.15456e+06 75346.5 0 -2.1936e+06 102096 0 -2.24469e+06 130332 0 -2.30859e+06 160523 0 -2.38629e+06 193214 0 -2.47914e+06 228903 0 -2.58885e+06 267914 0 -2.71783e+06 310328 0 -2.86949e+06 354428 0 -3.04774e+06 394766 0 -3.25807e+06 417983 0 -3.49902e+06 390280 0 -3.73241e+06 238710 0 -2.1031e+06 0 0 -2.10783e+06 23910.4 0 -2.12208e+06 48104.5 0 -2.14602e+06 72874.6 0 -2.17991e+06 98537.9 0 -2.22416e+06 125442 0 -2.27932e+06 153975 0 -2.34612e+06 184571 0 -2.42552e+06 217703 0 -2.51881e+06 253761 0 -2.62756e+06 292960 0 -2.75419e+06 335159 0 -2.90182e+06 378262 0 -3.07423e+06 417113 0 -3.27732e+06 437942 0 -3.51042e+06 405358 0 -2.10088e+06 0 0 -2.10496e+06 23035.3 0 -2.11725e+06 46306.1 0 -2.13787e+06 70054.4 0 -2.16701e+06 94539.3 0 -2.20497e+06 120044 0 -2.25215e+06 146881 0 -2.30908e+06 175401 0 -2.37643e+06 205980 0 -2.45511e+06 239035 0 -2.54623e+06 274836 0 -2.65124e+06 313577 0 -2.77244e+06 354877 0 -2.91249e+06 397064 0 -3.0751e+06 435178 0 -3.26581e+06 458620 0 -2.09859e+06 0 0 -2.10207e+06 22038.5 0 -2.11254e+06 44268.9 0 -2.1301e+06 66888 0 -2.15487e+06 90103.9 0 -2.18709e+06 114143 0 -2.22702e+06 139250 0 -2.27504e+06 165705 0 -2.33162e+06 193803 0 -2.39735e+06 223877 0 -2.47303e+06 256257 0 -2.55959e+06 291185 0 -2.65832e+06 328767 0 -2.77118e+06 368669 0 -2.90045e+06 409675 0 -3.0493e+06 449131 0 -2.09621e+06 0 0 -2.09914e+06 20920.4 0 -2.10796e+06 41994 0 -2.12271e+06 63377.3 0 -2.1435e+06 85234.3 0 -2.17048e+06 107742 0 -2.20385e+06 131090 0 -2.24386e+06 155490 0 -2.29083e+06 181175 0 -2.34515e+06 208393 0 -2.40733e+06 237423 0 -2.47801e+06 268522 0 -2.55795e+06 301953 0 -2.64821e+06 337752 0 -2.75031e+06 375680 0 -2.86611e+06 415362 0 -2.09376e+06 0 0 -2.09619e+06 19681.5 0 -2.10349e+06 39482.3 0 -2.11569e+06 59523.9 0 -2.13287e+06 79932.6 0 -2.15513e+06 100843 0 -2.1826e+06 122399 0 -2.21545e+06 144756 0 -2.25388e+06 168090 0 -2.29816e+06 192587 0 -2.3486e+06 218453 0 -2.40559e+06 245893 0 -2.46964e+06 275137 0 -2.54131e+06 306418 0 -2.6214e+06 339789 0 -2.711e+06 375296 0 -2.09124e+06 0 0 -2.09321e+06 18322.3 0 -2.09914e+06 36734.8 0 -2.10904e+06 55329.1 0 -2.12298e+06 74199.8 0 -2.141e+06 93446.2 0 -2.1632e+06 113174 0 -2.18969e+06 133497 0 -2.22059e+06 154538 0 -2.25607e+06 176432 0 -2.29632e+06 199327 0 -2.34158e+06 223383 0 -2.39214e+06 248754 0 -2.44835e+06 275624 0 -2.51063e+06 304186 0 -2.57948e+06 334630 0 -2.08863e+06 0 0 -2.0902e+06 16843.3 0 -2.0949e+06 33752.4 0 -2.10276e+06 50793.9 0 -2.1138e+06 68036.2 0 -2.12807e+06 85550.4 0 -2.14561e+06 103411 0 -2.16649e+06 121698 0 -2.19079e+06 140497 0 -2.21862e+06 159899 0 -2.25008e+06 180002 0 -2.28531e+06 200917 0 -2.32448e+06 222759 0 -2.36777e+06 245644 0 -2.41543e+06 269703 0 -2.46772e+06 295128 0 -2.08595e+06 0 0 -2.08716e+06 15245 0 -2.09078e+06 30535.8 0 -2.09684e+06 45918.9 0 -2.10534e+06 61441.5 0 -2.1163e+06 77152.4 0 -2.12977e+06 93102.4 0 -2.14578e+06 109344 0 -2.16436e+06 125935 0 -2.18559e+06 142934 0 -2.20952e+06 160406 0 -2.23624e+06 178420 0 -2.26582e+06 197049 0 -2.29837e+06 216376 0 -2.33401e+06 236473 0 -2.37288e+06 257446 0 -2.08319e+06 0 0 -2.08409e+06 13527.8 0 -2.08678e+06 27085.9 0 -2.09127e+06 40704.5 0 -2.09757e+06 54414.7 0 -2.10569e+06 68248 0 -2.11565e+06 82237.2 0 -2.12747e+06 96415.8 0 -2.14118e+06 110819 0 -2.15679e+06 125483 0 -2.17436e+06 140448 0 -2.19391e+06 155755 0 -2.21549e+06 171448 0 -2.23916e+06 187575 0 -2.26497e+06 204185 0 -2.29298e+06 221338 0 -2.08035e+06 0 0 -2.08099e+06 11692.4 0 -2.08288e+06 23403.2 0 -2.08605e+06 35150.9 0 -2.09049e+06 46954.1 0 -2.09621e+06 58831.8 0 -2.10321e+06 70803.7 0 -2.11151e+06 82889.5 0 -2.12112e+06 95109.6 0 -2.13206e+06 107485 0 -2.14433e+06 120038 0 -2.15797e+06 132791 0 -2.17298e+06 145768 0 -2.18939e+06 158995 0 -2.20724e+06 172497 0 -2.22654e+06 186307 0 -2.07744e+06 0 0 -2.07786e+06 9739.13 0 -2.0791e+06 19488.3 0 -2.08118e+06 29257.7 0 -2.08409e+06 39057.2 0 -2.08783e+06 48897.2 0 -2.09242e+06 58788 0 -2.09784e+06 68740.4 0 -2.10412e+06 78764.9 0 -2.11125e+06 88872.4 0 -2.11924e+06 99074 0 -2.12811e+06 109381 0 -2.13784e+06 119806 0 -2.14847e+06 130360 0 -2.15999e+06 141056 0 -2.17243e+06 151909 0 -2.07445e+06 0 0 -2.0747e+06 7668.64 0 -2.07543e+06 15341.9 0 -2.07665e+06 23024.5 0 -2.07835e+06 30721.1 0 -2.08055e+06 38436.1 0 -2.08323e+06 46174.4 0 -2.08641e+06 53940.6 0 -2.09009e+06 61739.6 0 -2.09425e+06 69576.3 0 -2.09892e+06 77455.6 0 -2.10408e+06 85382 0 -2.10975e+06 93360.3 0 -2.11593e+06 101395 0 -2.12261e+06 109492 0 -2.12981e+06 117655 0 -2.07139e+06 0 0 -2.07151e+06 5481.44 0 -2.07186e+06 10964.5 0 -2.07245e+06 16450.7 0 -2.07328e+06 21941.7 0 -2.07434e+06 27439.2 0 -2.07564e+06 32944.6 0 -2.07718e+06 38459.3 0 -2.07895e+06 43985 0 -2.08096e+06 49523.3 0 -2.08321e+06 55075.8 0 -2.0857e+06 60644.2 0 -2.08843e+06 66230 0 -2.0914e+06 71834.7 0 -2.09461e+06 77460 0 -2.09807e+06 83107.5 0 -2.06825e+06 0 0 -2.06828e+06 3178.06 0 -2.0684e+06 6356.44 0 -2.06859e+06 9535.47 0 -2.06885e+06 12715.5 0 -2.06919e+06 15896.8 0 -2.0696e+06 19079.3 0 -2.07009e+06 22263.5 0 -2.07066e+06 25450.1 0 -2.0713e+06 28639.7 0 -2.07202e+06 31833.1 0 -2.07281e+06 35030.8 0 -2.07368e+06 38233 0 -2.07462e+06 41440.1 0 -2.07564e+06 44652.6 0 -2.07673e+06 47871 0 </DataArray> 
</PointData> 
<Points> 
<DataArray type="Float32" NumberOfComponents="3"> 
0 0.01 0 0.005 0.01 0 0.01 0.01 0 0.015 0.01 0 0.02 0.01 0 0.025 0.01 0 0.03 0.01 0 0.035 0.01 0 0.04 0.01 0 0.045 0.01 0 0.05 0.01 0 0.055 0.01 0 0.06 0.01 0 0.065 0.01 0 0.07 0.01 0 0.075 0.01 0 0 0.0104 0 0.00469333 0.0104 0 0.00938667 0.0104 0 0.01408 0.0104 0 0.0187733 0.0104 0 0.0234667 0.0104 0 0.02816 0.0104 0 0.0328533 0.0104 0 0.0375467 0.0104 0 0.04224 0.0104 0 0.0469333 0.0104 0 0.0516267 0.0104 0 0.05632 0.0104 0 0.0610133 0.0104 0 0.0657067 0.0104 0 0.0704 0.0104 0 0 0.0108 0 0.00438667 0.0108 0 0.00877333 0.0108 0 0.01316 0.0108 0 0.0175467 0.0108 0 0.0219333 0.0108 0 0.02632 0.0108 0 0.0307067 0.0108 0 0.0350933 0.0108 0 0.03948 0.0108 0 0.0438667 0.0108 0 0.0482533 0.0108 0 0.05264 0.0108 0 0.0570267 0.0108 0 0.0614133 0.0108 0 0.0658 0.0108 0 0 0.0112 0 0.00408 0.0112 0 0.00816 0.0112 0 0.01224 0.0112 0 0.01632 0.0112 0 0.0204 0.0112 0 0.02448 0.0112 0 0.02856 0.0112 0 0.03264 0.0112 0 0.03672 0.0112 0 0.0408 0.0112 0 0.04488 0.0112 0 0.04896 0.0112 0 0.05304 0.0112 0 0.05712 0.0112 0 0.0612 0.0112 0 0 0.0116 0 0.00377333 0.0116 0 0.00754667 0.0116 0 0.01132 0.0116 0 0.0150933 0.0116 0 0.0188667 0.0116 0 0.02264 0.0116 0 0.0264133 0.0116 0 0.0301867 0.0116 0 0.03396 0.0116 0 0.0377333 0.0116 0 0.0415067 0.0116 0 0.04528 0.0116 0 0.0490533 0.0116 0 0.0528267 0.0116 0 0.0566 0.0116 0 0 0.012 0 0.00346667 0.012 0 0.00693333 0.012 0 0.0104 0.012 0 0.0138667 0.012 0 0.0173333 0.012 0 0.0208 0.012 0 0.0242667 0.012 0 0.0277333 0.012 0 0.0312 0.012 0 0.0346667 0.012 0 0.0381333 0.012 0 0.0416 0.012 0 0.0450667 0.012 0 0.0485333 0.012 0 0.052 0.012 0 0 0.0124 0 0.00316 0.0124 0 0.00632 0.0124 0 0.00948 0.0124 0 0.01264 0.0124 0 0.0158 0.0124 0 0.01896 0.0124 0 0.02212 0.0124 0 0.02528 0.0124 0 0.02844 0.0124 0 0.0316 0.0124 0 0.03476 0.0124 0 0.03792 0.0124 0 0.04108 0.0124 0 0.04424 0.0124 0 0.0474 0.0124 0 0 0.0128 0 0.00285333 0.0128 0 0.00570667 0.0128 0 0.00856 0.0128 0 0.0114133 0.0128 0 0.0142667 0.0128 0 0.01712 0.0128 0 0.0199733 0.0128 0 0.0228267 0.0128 0 0.02568 0.0128 0 0.0285333 0.0128 0 0.0313867 0.0128 0 0.03424 0.0128 0 0.0370933 0.0128 0 0.0399467 0.0128 0 0.0428 0.0128 0 0 0.0132 0 0.00254667 0.0132 0 0.00509333 0.0132 0 0.00764 0.0132 0 0.0101867 0.0132 0 0.0127333 0.0132 0 0.01528 0.0132 0 0.0178267 0.0132 0 0.0203733 0.0132 0 0.02292 0.0132 0 0.0254667 0.0132 0 0.0280133 0.0132 0 0.03056 0.0132 0 0.0331067 0.0132 0 0.0356533 0.0132 0 0.0382 0.0132 0 0 0.0136 0 0.00224 0.0136 0 0.00448 0.0136 0 0.00672 0.0136 0 0.00896 0.0136 0 0.0112 0.0136 0 0.01344 0.0136 0 0.01568 0.0136 0 0.01792 0.0136 0 0.02016 0.0136 0 0.0224 0.0136 0 0.02464 0.0136 0 0.02688 0.0136 0 0.02912 0.0136 0 0.03136 0.0136 0 0.0336 0.0136 0 0 0.014 0 0.00193333 0.014 0 0.00386667 0.014 0 0.0058 0.014 0 0.00773333 0.014 0 0.00966667 0.014 0 0.0116 0.014 0 0.0135333 0.014 0 0.0154667 0.014 0 0.0174 0.014 0 0.0193333 0.014 0 0.0212667 0.014 0 0.0232 0.014 0 0.0251333 0.014 0 0.0270667 0.014 0 0.029 0.014 0 0 0.0144 0 0.00162667 0.0144 0 0.00325333 0.0144 0 0.00488 0.0144 0 0.00650667 0.0144 0 0.00813333 0.0144 0 0.00976 0.0144 0 0.0113867 0.0144 0 0.0130133 0.0144 0 0.01464 0.0144 0 0.0162667 0.0144 0 0.0178933 0.0144 0 0.01952 0.0144 0 0.0211467 0.0144 0 0.0227733 0.0144 0 0.0244 0.0144 0 0 0.0148 0 0.00132 0.0148 0 0.00264 0.0148 0 0.00396 0.0148 0 0.00528 0.0148 0 0.0066 0.0148 0 0.00792 0.0148 0 0.00924 0.0148 0 0.01056 0.0148 0 0.01188 0.0148 0 0.0132 0.0148 0 0.01452 0.0148 0 0.01584 0.0148 0 0.01716 0.0148 0 0.01848 0.0148 0 0.0198 0.0148 0 0 0.0152 0 0.00101333 0.0152 0 0.00202667 0.0152 0 0.00304 0.0152 0 0.00405333 0.0152 0 0.00506667 0.0152 0 0.00608 0.0152 0 0.00709333 0.0152 0 0.00810667 0.0152 0 0.00912 0.0152 0 0.0101333 0.0152 0 0.0111467 0.0152 0 0.01216 0.0152 0 0.0131733 0.0152 0 0.0141867 0.0152 0 0.0152 0.0152 0 0 0.0156 0 0.000706667 0.0156 0 0.00141333 0.0156 0 0.00212 0.0156 0 0.00282667 0.0156 0 0.00353333 0.0156 0 0.00424 0.0156 0 0.00494667 0.0156 0 0.00565333 0.0156 0 0.00636 0.0156 0 0.00706667 0.0156 0 0.00777333 0.0156 0 0.00848 0.0156 0 0.00918667 0.0156 0 0.00989333 0.0156 0 0.0106 0.0156 0 0 0.016 0 0.0004 0.016 0 0.0008 0.016 0 0.0012 0.016 0 0.0016 0.016 0 0.002 0.016 0 0.0024 0.016 0 0.0028 0.016 0 0.0032 0.016 0 0.0036 0.016 0 0.004 0.016 0 0.0044 0.016 0 0.0048 0.016 0 0.0052 0.016 0 0.0056 0.016 0 0.006 0.016 0 
</DataArray>
</Points> 
</Piece> 
</StructuredGrid> 
</VTKFile> 
