<?xml version="1.0"?> 
<VTKFile type="StructuredGrid" version="0.1"> 
<StructuredGrid WholeExtent="0 15 0 15 0 0"> 
<Piece Extent="0 15 0 15 0 0"> 
<PointData>
<DataArray type="Float32" Name="|E|" format="ascii" NumberOfComponents="3"> 
1.84766e+06 -765326 0 1.7587e+06 -79302.4 0 1.54807e+06 118256 0 1.40551e+06 177300 0 1.30298e+06 192315 0 1.22329e+06 188911 0 1.15741e+06 177883 0 1.10077e+06 163263 0 1.05128e+06 146908 0 1.00785e+06 129446 0 970109 110972 0 938101 91332.3 0 912196 70337.8 0 892970 47933.3 0 881078 24319.9 0 877044 0 0 1.95832e+06 -736132 0 1.78115e+06 -38799.9 0 1.55091e+06 145598 0 1.40224e+06 197227 0 1.29725e+06 208029 0 1.2164e+06 202569 0 1.14991e+06 190396 0 1.09298e+06 175089 0 1.04333e+06 158184 0 999735 140129 0 961759 120881 0 929373 100170 0 902927 77703.6 0 883028 53342.9 0 870406 27257.5 0 865678 0 0 2.06532e+06 -696598 0 1.80118e+06 4377.09 0 1.55198e+06 173547 0 1.39802e+06 217304 0 1.29094e+06 223861 0 1.20913e+06 216326 0 1.14213e+06 202995 0 1.08494e+06 186986 0 1.03507e+06 169527 0 991242 150886 0 952895 130883 0 919956 109128 0 892751 85211.1 0 871931 58889.5 0 858334 30284.2 0 852717 0 0 2.16916e+06 -646960 0 1.8183e+06 49946.5 0 1.5513e+06 201881 0 1.39287e+06 237431 0 1.2841e+06 239741 0 1.20152e+06 230139 0 1.1341e+06 215650 0 1.07664e+06 198940 0 1.02653e+06 180934 0 982372 161728 0 943524 141007 0 909847 118253 0 881650 92919.8 0 859638 64635.9 0 844792 33444.5 0 838071 0 0 2.27e+06 -587230 0 1.83207e+06 97531.4 0 1.54892e+06 230388 0 1.38684e+06 257508 0 1.27676e+06 255605 0 1.19358e+06 243965 0 1.12581e+06 228332 0 1.06811e+06 210935 0 1.01772e+06 192405 0 973142 172672 0 933657 151286 0 899053 127596 0 869614 100901 0 846104 70659.2 0 829694 36795.6 0 821621 0 0 2.36767e+06 -517271 0 1.84218e+06 146684 0 1.54491e+06 258867 0 1.38e+06 277440 0 1.26897e+06 271395 0 1.18535e+06 257764 0 1.11731e+06 241015 0 1.05936e+06 222958 0 1.00865e+06 203939 0 963572 183732 0 923314 161756 0 887587 137218 0 856635 109237 0 831283 77055.3 0 812933 40410.7 0 803209 0 0 2.4618e+06 -436861 0 1.84841e+06 196903 0 1.53938e+06 287144 0 1.37241e+06 297137 0 1.26079e+06 287057 0 1.17687e+06 271502 0 1.10863e+06 253674 0 1.05043e+06 234998 0 999349 215538 0 953690 194927 0 912527 172456 0 875475 147185 0 842714 118026 0 815121 83943.7 0 794372 44388.6 0 782628 0 0 2.55177e+06 -345748 0 1.85061e+06 247646 0 1.53245e+06 315070 0 1.36417e+06 316512 0 1.25228e+06 302549 0 1.16817e+06 285147 0 1.09978e+06 266288 0 1.04135e+06 247044 0 989858 227204 0 943534 206275 0 901334 183426 0 862752 157570 0 827865 127386 0 797563 91478.1 0 773839 48861.5 0 759594 0 0 2.63682e+06 -243688 0 1.84875e+06 298343 0 1.52429e+06 342531 0 1.35535e+06 335484 0 1.2435e+06 317841 0 1.15931e+06 298669 0 1.09083e+06 278839 0 1.03214e+06 259088 0 980210 238938 0 933147 217794 0 889788 194708 0 849472 168453 0 812117 137453 0 778556 99854.6 0 751110 54023.1 0 733706 0 0 2.71608e+06 -130490 0 1.84287e+06 348409 0 1.51503e+06 369455 0 1.34606e+06 353972 0 1.23452e+06 332912 0 1.15033e+06 312039 0 1.0818e+06 291311 0 1.02285e+06 271122 0 970449 250742 0 922583 229500 0 877952 206343 0 835705 179923 0 795520 148387 0 758053 109334 0 725893 60142.7 0 704400 0 0 2.7886e+06 -6039.34 0 1.8331e+06 397251 0 1.50482e+06 395813 0 1.3364e+06 371895 0 1.22538e+06 347761 0 1.14127e+06 325226 0 1.07274e+06 303694 0 1.01351e+06 283134 0 960625 262615 0 911900 241408 0 865904 218373 0 821547 192067 0 778163 160375 0 736034 120251 0 697807 67656.1 0 670783 0 0 2.85346e+06 129686 0 1.81964e+06 444267 0 1.49382e+06 421632 0 1.3265e+06 389164 0 1.21614e+06 362402 0 1.13219e+06 338193 0 1.06369e+06 315983 0 1.00418e+06 295115 0 950790 274557 0 901166 253529 0 853732 230827 0 807119 204979 0 760181 173621 0 712536 133062 0 666335 77210.9 0 631532 0 0 2.9098e+06 276616 0 1.80279e+06 488846 0 1.48212e+06 446992 0 1.3165e+06 405681 0 1.2068e+06 376873 0 1.12317e+06 350898 0 1.05468e+06 328184 0 994896 307046 0 940997 286564 0 890454 265869 0 841542 243730 0 792573 218744 0 741780 188338 0 687718 148353 0 630874 89929.4 0 584055 0 0 2.95697e+06 434616 0 1.78288e+06 530357 0 1.46979e+06 472039 0 1.30659e+06 421331 0 1.19736e+06 391236 0 1.11429e+06 363283 0 1.04573e+06 340313 0 985728 318905 0 931293 298633 0 879851 278426 0 829440 257085 0 778104 233442 0 723247 204709 0 661984 166898 0 590635 107699 0 523790 0 0 2.99459e+06 603544 0 1.76031e+06 568127 0 1.45684e+06 496989 0 1.29699e+06 435976 0 1.18773e+06 405579 0 1.10571e+06 375278 0 1.03679e+06 352396 0 976765 330666 0 921709 310743 0 869446 291228 0 817560 270807 0 763897 249266 0 705054 222629 0 636008 189958 0 545923 133379 0 437390 0 0 3.02267e+06 783359 0 1.73555e+06 601407 0 1.44319e+06 522129 0 1.28802e+06 449455 0 1.17775e+06 420008 0 1.09766e+06 386817 0 1.02776e+06 364420 0 968164 342423 0 912236 322566 0 859290 304981 0 806293 283273 0 749309 269581 0 690265 235342 0 603920 230610 0 524181 165251 0 122713 -402019 0 </DataArray> 
</PointData> 
<Points> 
<DataArray type="Float32" NumberOfComponents="3"> 
0.2018 0.0378 0 0.213213 0.0378 0 0.224627 0.0378 0 0.23604 0.0378 0 0.247453 0.0378 0 0.258867 0.0378 0 0.27028 0.0378 0 0.281693 0.0378 0 0.293107 0.0378 0 0.30452 0.0378 0 0.315933 0.0378 0 0.327347 0.0378 0 0.33876 0.0378 0 0.350173 0.0378 0 0.361587 0.0378 0 0.373 0.0378 0 0.202161 0.0387148 0 0.213704 0.0389872 0 0.225224 0.0392591 0 0.236722 0.0395304 0 0.248198 0.0398013 0 0.259652 0.0400716 0 0.271084 0.0403414 0 0.282495 0.0406107 0 0.293883 0.0408795 0 0.30525 0.0411477 0 0.316596 0.0414155 0 0.327919 0.0416827 0 0.339222 0.0419495 0 0.350502 0.0422157 0 0.361762 0.0424814 0 0.373 0.0427467 0 0.202493 0.0396452 0 0.214159 0.0401958 0 0.225781 0.0407444 0 0.237359 0.0412909 0 0.248895 0.0418354 0 0.260387 0.0423779 0 0.271837 0.0429183 0 0.283244 0.0434567 0 0.294609 0.0439932 0 0.305932 0.0445276 0 0.317213 0.0450601 0 0.328453 0.0455906 0 0.339651 0.0461192 0 0.350808 0.0466458 0 0.361924 0.0471706 0 0.373 0.0476933 0 0.202793 0.040589 0 0.214576 0.0414233 0 0.226295 0.042253 0 0.23795 0.0430782 0 0.249542 0.0438989 0 0.26107 0.0447151 0 0.272536 0.0455269 0 0.28394 0.0463344 0 0.295282 0.0471374 0 0.306564 0.0479362 0 0.317785 0.0487307 0 0.328946 0.0495209 0 0.340048 0.0503069 0 0.35109 0.0510887 0 0.362074 0.0518664 0 0.373 0.05264 0 0.203059 0.0415438 0 0.214954 0.0426667 0 0.226764 0.0437817 0 0.238491 0.0448887 0 0.250135 0.0459879 0 0.261697 0.0470794 0 0.273178 0.0481633 0 0.284579 0.0492395 0 0.295901 0.0503083 0 0.307144 0.0513697 0 0.31831 0.0524238 0 0.329398 0.0534706 0 0.340411 0.0545102 0 0.351348 0.0555427 0 0.362211 0.0565682 0 0.373 0.0575867 0 0.203289 0.0425071 0 0.215289 0.0439231 0 0.227185 0.0453269 0 0.238979 0.0467186 0 0.250672 0.0480984 0 0.262266 0.0494665 0 0.273762 0.050823 0 0.28516 0.0521681 0 0.296463 0.0535019 0 0.307672 0.0548245 0 0.318786 0.056136 0 0.329809 0.0574367 0 0.340741 0.0587267 0 0.351582 0.060006 0 0.362335 0.0612748 0 0.373 0.0625333 0 0.203481 0.043476 0 0.215578 0.045189 0 0.227555 0.0468849 0 0.239412 0.0485638 0 0.251151 0.0502261 0 0.262775 0.0518721 0 0.274284 0.0535018 0 0.285681 0.0551156 0 0.296968 0.0567138 0 0.308145 0.0582965 0 0.319214 0.0598639 0 0.330178 0.0614163 0 0.341036 0.0629539 0 0.351792 0.0644769 0 0.362446 0.0659856 0 0.373 0.06748 0 0.203633 0.0444476 0 0.215821 0.046461 0 0.227871 0.0484518 0 0.239787 0.0504201 0 0.251569 0.0523666 0 0.263221 0.0542914 0 0.274744 0.056195 0 0.286141 0.0580777 0 0.297413 0.0599398 0 0.308563 0.0617818 0 0.319592 0.0636038 0 0.330503 0.0654063 0 0.341298 0.0671895 0 0.351977 0.0689538 0 0.362544 0.0706994 0 0.373 0.0724267 0 0.203744 0.0454189 0 0.216015 0.0477355 0 0.228133 0.0500234 0 0.240102 0.0522831 0 0.251924 0.054515 0 0.263602 0.0567198 0 0.275139 0.0588978 0 0.286536 0.0610495 0 0.297797 0.0631755 0 0.308924 0.0652762 0 0.319919 0.067352 0 0.330785 0.0694034 0 0.341524 0.0714309 0 0.352138 0.0734347 0 0.362629 0.0754154 0 0.373 0.0773733 0 0.203812 0.0463867 0 0.216157 0.0490088 0 0.228338 0.0515957 0 0.240355 0.0541481 0 0.252214 0.0566667 0 0.263917 0.0591522 0 0.275467 0.0616052 0 0.286866 0.0640264 0 0.298119 0.0664163 0 0.309228 0.0687756 0 0.320195 0.0711049 0 0.331023 0.0734047 0 0.341715 0.0756756 0 0.352274 0.077918 0 0.362701 0.0801327 0 0.373 0.08232 0 0.203836 0.0473478 0 0.216248 0.0502768 0 0.228483 0.0531641 0 0.240545 0.0560104 0 0.252437 0.0588166 0 0.264163 0.0615837 0 0.275727 0.0643124 0 0.28713 0.0670034 0 0.298378 0.0696577 0 0.309473 0.0722758 0 0.320418 0.0748586 0 0.331217 0.0774068 0 0.341871 0.079921 0 0.352385 0.082402 0 0.36276 0.0848503 0 0.373 0.0872667 0 0.203816 0.0482989 0 0.216286 0.0515358 0 0.228569 0.0547242 0 0.24067 0.0578652 0 0.252593 0.0609598 0 0.264341 0.0640091 0 0.275917 0.0670141 0 0.287327 0.0699757 0 0.298574 0.0728948 0 0.30966 0.0757724 0 0.320589 0.0786094 0 0.331366 0.0814065 0 0.341992 0.0841647 0 0.352471 0.0868847 0 0.362806 0.0895673 0 0.373 0.0922133 0 0.20375 0.0492369 0 0.216269 0.0527817 0 0.228594 0.0562716 0 0.240729 0.0597076 0 0.252679 0.0630911 0 0.264447 0.0664233 0 0.276038 0.0697053 0 0.287456 0.0729382 0 0.298704 0.0761232 0 0.309787 0.0792612 0 0.320707 0.0823534 0 0.33147 0.0854007 0 0.342077 0.088404 0 0.352532 0.0913645 0 0.362839 0.0942828 0 0.373 0.09716 0 0.203639 0.0501583 0 0.216198 0.0540107 0 0.228558 0.0578017 0 0.240722 0.0615329 0 0.252695 0.0652055 0 0.264483 0.0688211 0 0.276088 0.0723808 0 0.287516 0.075886 0 0.29877 0.0793379 0 0.309854 0.0827378 0 0.320772 0.0860868 0 0.331528 0.089386 0 0.342126 0.0926365 0 0.352568 0.0958395 0 0.362858 0.0989958 0 0.373 0.102107 0 0.203482 0.05106 0 0.216072 0.0552187 0 0.228459 0.0593102 0 0.240647 0.0633361 0 0.252642 0.0672979 0 0.264447 0.0711972 0 0.276067 0.0750355 0 0.287507 0.0788141 0 0.29877 0.0825345 0 0.309861 0.0861979 0 0.320783 0.0898058 0 0.331541 0.0933592 0 0.342139 0.0968596 0 0.352578 0.100308 0 0.362864 0.103705 0 0.373 0.107053 0 0.20328 0.0519391 0 0.215891 0.0564021 0 0.228298 0.0607927 0 0.240505 0.0651126 0 0.252517 0.0693634 0 0.264339 0.0735467 0 0.275974 0.0776643 0 0.287428 0.0817176 0 0.298704 0.0857081 0 0.309807 0.0896373 0 0.320741 0.0935065 0 0.331509 0.0973172 0 0.342116 0.101071 0 0.352564 0.104768 0 0.362858 0.108411 0 0.373 0.112 0 
</DataArray>
</Points> 
</Piece> 
</StructuredGrid> 
</VTKFile> 
