<?xml version="1.0"?> 
<VTKFile type="StructuredGrid" version="0.1"> 
<StructuredGrid WholeExtent="0 7 0 7 0 0"> 
<Piece Extent="0 7 0 7 0 0"> 
<PointData>
<DataArray type="Float32" Name="|E|" format="ascii" NumberOfComponents="3"> 
-2.23517e-08 -9.53674e-07 0 4.19095e-09 297.478 0 -9.31323e-10 70.7846 0 0 11.8001 0 0 6.99423 0 -1.11759e-08 1.21567 0 1.49012e-08 0.446496 0 0 0.0198078 0 89.6192 2.98023e-07 0 -41.0758 339.068 0 -7.51231 95.8708 0 -5.25839 28.3222 0 -1.5526 8.89273 0 -0.772194 3.97023 0 -0.360468 1.31462 0 -0.166099 0.45232 0 211.713 -1.19209e-07 0 -87.1268 397.435 0 -30.6266 135.41 0 -14.8888 45.6566 0 -6.86545 17.7285 0 -3.29757 7.0923 0 -1.41591 3.74026 0 -0.975427 0.953594 0 384.427 4.76837e-07 0 -137.626 476.553 0 -77.962 191.395 0 -38.0929 72.7568 0 -19.9136 30.0877 0 -10.0122 14.3087 0 -6.29868 5.40593 0 -2.25297 5.39912 0 645.848 -1.07288e-06 0 -192.452 586.405 0 -160.61 266.268 0 -93.4419 112.1 0 -52.8407 47.8617 0 -30.002 21.6131 0 -15.8453 12.0083 0 -13.0675 2.19065 0 1093.73 1.19209e-06 0 -255.643 747.457 0 -296.802 370.477 0 -214.296 158.617 0 -134.827 60.6915 0 -83.3437 21.7023 0 -53.2603 5.66962 0 -24.6687 -2.57325 0 2084.15 -9.53674e-07 0 -354.69 997.769 0 -529.808 529.683 0 -470.96 202.594 0 -339.673 14.5216 0 -210.757 -61.2203 0 -121.483 -60.0803 0 -94.3213 -6.18564 0 6498.5 0 0 -589.208 1323.19 0 -973.262 779.722 0 -1038.36 209.241 0 -878.67 -242.911 0 -588.894 -541.389 0 -245.768 -679.592 0 112.928 -745.371 0 </DataArray> 
</PointData> 
<Points> 
<DataArray type="Float32" NumberOfComponents="3"> 
0.125 0.02 0 0.133571 0.02 0 0.142143 0.02 0 0.150714 0.02 0 0.159286 0.02 0 0.167857 0.02 0 0.176429 0.02 0 0.185 0.02 0 0.125 0.0201429 0 0.132449 0.0204286 0 0.139898 0.0207143 0 0.147347 0.021 0 0.154796 0.0212857 0 0.162245 0.0215714 0 0.169694 0.0218571 0 0.177143 0.0221429 0 0.125 0.0202857 0 0.131327 0.0208571 0 0.137653 0.0214286 0 0.14398 0.022 0 0.150306 0.0225714 0 0.156633 0.0231429 0 0.162959 0.0237143 0 0.169286 0.0242857 0 0.125 0.0204286 0 0.130204 0.0212857 0 0.135408 0.0221429 0 0.140612 0.023 0 0.145816 0.0238571 0 0.15102 0.0247143 0 0.156224 0.0255714 0 0.161429 0.0264286 0 0.125 0.0205714 0 0.129082 0.0217143 0 0.133163 0.0228571 0 0.137245 0.024 0 0.141327 0.0251429 0 0.145408 0.0262857 0 0.14949 0.0274286 0 0.153571 0.0285714 0 0.125 0.0207143 0 0.127959 0.0221429 0 0.130918 0.0235714 0 0.133878 0.025 0 0.136837 0.0264286 0 0.139796 0.0278571 0 0.142755 0.0292857 0 0.145714 0.0307143 0 0.125 0.0208571 0 0.126837 0.0225714 0 0.128673 0.0242857 0 0.13051 0.026 0 0.132347 0.0277143 0 0.134184 0.0294286 0 0.13602 0.0311429 0 0.137857 0.0328571 0 0.125 0.021 0 0.125714 0.023 0 0.126429 0.025 0 0.127143 0.027 0 0.127857 0.029 0 0.128571 0.031 0 0.129286 0.033 0 0.13 0.035 0 
</DataArray>
</Points> 
</Piece> 
</StructuredGrid> 
</VTKFile> 
