<?xml version="1.0"?> 
<VTKFile type="StructuredGrid" version="0.1"> 
<StructuredGrid WholeExtent="0 7 0 7 0 0"> 
<Piece Extent="0 7 0 7 0 0"> 
<PointData>
<DataArray type="Float32" Name="|E|" format="ascii" NumberOfComponents="3"> 
1.53316e+07 1.21697e+07 0 3.21983e+06 2.81573e+06 0 2.40235e+06 2.37236e+06 0 1.75394e+06 2.0294e+06 0 1.26849e+06 1.82613e+06 0 866250 1.73658e+06 0 469878 1.73856e+06 0 1.19209e-07 1.95842e+06 0 838589 7.99926e+06 0 3.55126e+06 4.55862e+06 0 2.41106e+06 3.11543e+06 0 1.79508e+06 2.59781e+06 0 1.38874e+06 2.36609e+06 0 1.02443e+06 2.25616e+06 0 722568 2.26157e+06 0 492768 2.34865e+06 0 -366840 5.85301e+06 0 1.89539e+06 5.24938e+06 0 2.05857e+06 3.83738e+06 0 1.70069e+06 3.22663e+06 0 1.36613e+06 2.88837e+06 0 1.08517e+06 2.73252e+06 0 844011 2.67398e+06 0 651089 2.68764e+06 0 -106278 5.1075e+06 0 909694 4.99086e+06 0 1.36918e+06 4.30615e+06 0 1.34685e+06 3.70907e+06 0 1.18467e+06 3.35988e+06 0 995854 3.14945e+06 0 819096 3.03897e+06 0 666164 2.99137e+06 0 -16683.8 4.68139e+06 0 459023 4.65967e+06 0 787111 4.34449e+06 0 895527 3.97427e+06 0 867691 3.6725e+06 0 780528 3.46145e+06 0 674819 3.32033e+06 0 570333 3.23135e+06 0 17666.7 4.45568e+06 0 239797 4.41831e+06 0 417337 4.25147e+06 0 511582 4.03121e+06 0 533525 3.81889e+06 0 509665 3.64017e+06 0 461318 3.49926e+06 0 404101 3.39168e+06 0 22709.1 4.33815e+06 0 108586 4.28087e+06 0 181939 4.16254e+06 0 227929 4.01368e+06 0 247131 3.85985e+06 0 245077 3.71535e+06 0 229346 3.58745e+06 0 206079 3.47719e+06 0 0 4.29145e+06 0 0 4.22456e+06 0 0 4.11852e+06 0 0 3.99307e+06 0 0 3.86134e+06 0 0 3.73326e+06 0 0 3.61328e+06 0 0 3.5044e+06 0 </DataArray> 
</PointData> 
<Points> 
<DataArray type="Float32" NumberOfComponents="3"> 
0.103 0.0790337 0 0.110504 0.0700044 0 0.117577 0.0623641 0 0.124222 0.0561131 0 0.130436 0.0512511 0 0.13622 0.0477783 0 0.141575 0.0456946 0 0.1465 0.045 0 0.104429 0.0837432 0 0.111544 0.0760037 0 0.118291 0.069455 0 0.124669 0.0640969 0 0.13068 0.0599295 0 0.136322 0.0569528 0 0.141595 0.0551668 0 0.1465 0.0545714 0 0.105857 0.0884527 0 0.112584 0.0820031 0 0.119004 0.0765458 0 0.125117 0.0720808 0 0.130924 0.0686079 0 0.136423 0.0661273 0 0.141615 0.064639 0 0.1465 0.0641429 0 0.107286 0.0931621 0 0.113625 0.0880025 0 0.119718 0.0836367 0 0.125565 0.0800646 0 0.131167 0.0772863 0 0.136524 0.0753019 0 0.141635 0.0741112 0 0.1465 0.0737143 0 0.108714 0.0978716 0 0.114665 0.0940019 0 0.120431 0.0907275 0 0.126013 0.0880485 0 0.131411 0.0859648 0 0.136625 0.0844764 0 0.141655 0.0835834 0 0.1465 0.0832857 0 0.110143 0.102581 0 0.115705 0.100001 0 0.121145 0.0978183 0 0.126461 0.0960323 0 0.131655 0.0946432 0 0.136726 0.0936509 0 0.141675 0.0930556 0 0.1465 0.0928571 0 0.111571 0.107291 0 0.116745 0.106001 0 0.121858 0.104909 0 0.126909 0.104016 0 0.131899 0.103322 0 0.136827 0.102825 0 0.141694 0.102528 0 0.1465 0.102429 0 0.113 0.112 0 0.117786 0.112 0 0.122571 0.112 0 0.127357 0.112 0 0.132143 0.112 0 0.136929 0.112 0 0.141714 0.112 0 0.1465 0.112 0 
</DataArray>
</Points> 
</Piece> 
</StructuredGrid> 
</VTKFile> 
