<?xml version="1.0"?> 
<VTKFile type="StructuredGrid" version="0.1"> 
<StructuredGrid WholeExtent="0 7 0 7 0 0"> 
<Piece Extent="0 7 0 7 0 0"> 
<PointData>
<DataArray type="Float32" Name="|E|" format="ascii" NumberOfComponents="3"> 
-13361.6 2.44305e+06 0 -14442.8 2.30088e+06 0 -15578.1 2.11818e+06 0 -16846 1.90064e+06 0 -18490.3 1.66162e+06 0 -21209.3 1.42292e+06 0 -27257.1 1.21291e+06 0 -48068 1.06177e+06 0 -215325 2.89553e+06 0 -296899 2.9339e+06 0 -385329 2.98748e+06 0 -476603 3.05727e+06 0 -565084 3.14068e+06 0 -643588 3.23055e+06 0 -703388 3.31554e+06 0 -732846 3.38204e+06 0 59104.3 3.13656e+06 0 53120.9 3.18638e+06 0 51902.5 3.23577e+06 0 54916.4 3.28212e+06 0 61197.7 3.32307e+06 0 69467.3 3.35706e+06 0 78470 3.38383e+06 0 87954.2 3.40422e+06 0 248607 3.10776e+06 0 259362 3.12311e+06 0 272440 3.13745e+06 0 287355 3.1507e+06 0 303499 3.16283e+06 0 320018 3.17374e+06 0 335721 3.18314e+06 0 348705 3.19056e+06 0 287771 3.04464e+06 0 296480 3.0424e+06 0 305796 3.03983e+06 0 315265 3.03689e+06 0 324563 3.03358e+06 0 333536 3.02997e+06 0 342274 3.02623e+06 0 351263 3.02258e+06 0 230956 2.99677e+06 0 235537 2.98622e+06 0 240545 2.97591e+06 0 245916 2.96585e+06 0 251550 2.95608e+06 0 257281 2.94662e+06 0 262865 2.93752e+06 0 267929 2.92883e+06 0 126109 2.97104e+06 0 127910 2.95786e+06 0 129846 2.94488e+06 0 131873 2.93209e+06 0 133965 2.91951e+06 0 136126 2.90716e+06 0 138384 2.89504e+06 0 140811 2.88315e+06 0 0 2.96276e+06 0 0 2.95007e+06 0 0 2.93724e+06 0 0 2.92423e+06 0 0 2.91101e+06 0 0 2.89757e+06 0 0 2.88388e+06 0 0 2.86997e+06 0 </DataArray> 
</PointData> 
<Points> 
<DataArray type="Float32" NumberOfComponents="3"> 
0.1815 0.045 0 0.183239 0.0450102 0 0.184746 0.0450204 0 0.186021 0.0450306 0 0.187063 0.0450409 0 0.187874 0.0450512 0 0.188453 0.0450616 0 0.188799 0.045072 0 0.1815 0.0545714 0 0.183123 0.0545801 0 0.184547 0.0545889 0 0.185773 0.0545977 0 0.186799 0.0546065 0 0.187627 0.0546154 0 0.188255 0.0546243 0 0.188685 0.0546332 0 0.1815 0.0641429 0 0.183007 0.0641501 0 0.184349 0.0641574 0 0.185525 0.0641647 0 0.186535 0.0641721 0 0.18738 0.0641795 0 0.188058 0.0641869 0 0.188571 0.0641943 0 0.1815 0.0737143 0 0.182892 0.0737201 0 0.184151 0.0737259 0 0.185277 0.0737318 0 0.186271 0.0737377 0 0.187132 0.0737436 0 0.187861 0.0737495 0 0.188457 0.0737555 0 0.1815 0.0832857 0 0.182776 0.0832901 0 0.183952 0.0832944 0 0.185029 0.0832988 0 0.186007 0.0833032 0 0.186885 0.0833077 0 0.187663 0.0833121 0 0.188343 0.0833166 0 0.1815 0.0928571 0 0.18266 0.09286 0 0.183754 0.092863 0 0.184781 0.0928659 0 0.185743 0.0928688 0 0.186638 0.0928718 0 0.187466 0.0928748 0 0.188228 0.0928777 0 0.1815 0.102429 0 0.182544 0.10243 0 0.183556 0.102431 0 0.184534 0.102433 0 0.185478 0.102434 0 0.18639 0.102436 0 0.187269 0.102437 0 0.188114 0.102439 0 0.1815 0.112 0 0.182429 0.112 0 0.183357 0.112 0 0.184286 0.112 0 0.185214 0.112 0 0.186143 0.112 0 0.187071 0.112 0 0.188 0.112 0 
</DataArray>
</Points> 
</Piece> 
</StructuredGrid> 
</VTKFile> 
