<?xml version="1.0"?> 
<VTKFile type="StructuredGrid" version="0.1"> 
<StructuredGrid WholeExtent="0 7 0 7 0 0"> 
<Piece Extent="0 7 0 7 0 0"> 
<PointData>
<DataArray type="Float32" Name="|E|" format="ascii" NumberOfComponents="3"> 
3.72529e-08 3.49335e+06 0 6.51926e-09 2.28657e+06 0 -9.31323e-09 1.25133e+06 0 -9.31323e-09 550712 0 7.45058e-09 175627 0 -1.86265e-08 41630.3 0 4.47035e-08 8804 0 -8.19564e-08 2320.89 0 -349276 2.6997e+06 0 -282505 1.61546e+06 0 -194622 833766 0 -110809 340134 0 -44505.6 103786 0 -12475.7 25977.9 0 -2894.45 5986.75 0 -430.163 1266.39 0 -600706 1.79278e+06 0 -446436 1.02684e+06 0 -290732 482494 0 -146304 172497 0 -52624.7 48876.3 0 -14986.1 12579.2 0 -3841.05 3111.52 0 -840.869 732.438 0 -704025 1.07992e+06 0 -499185 545158 0 -285977 203156 0 -121654 55033.9 0 -40305 13225.1 0 -12236.6 3343.85 0 -3541.27 881.983 0 -969.043 184.485 0 -690517 486733 0 -418928 156141 0 -192552 17946.9 0 -69018.3 -6485.64 0 -23037.6 -3783.59 0 -7864.75 -1436.35 0 -2635.93 -566.534 0 -836.42 -258 0 -479648 -5591.29 0 -216287 -72200 0 -75038.2 -50195.6 0 -25818.7 -20823.7 0 -10138.6 -7756.53 0 -4028.73 -3055.04 0 -1570.14 -1270.88 0 -570.653 -547.904 0 -136730 -179289 0 -36033.8 -81725 0 -12072.7 -33199.7 0 -6432.5 -13934 0 -3137.45 -6340.89 0 -1436.46 -2947.61 0 -642.179 -1387.42 0 -256.465 -675.772 0 2.98023e-08 71980.9 0 1.49012e-08 -6156.15 0 -2.98023e-08 -14547.6 0 0 -7469 0 7.45058e-09 -3866.21 0 2.23517e-08 -2096.55 0 -4.47035e-08 -1158.87 0 8.9407e-08 -705.04 0 </DataArray> 
</PointData> 
<Points> 
<DataArray type="Float32" NumberOfComponents="3"> 
0.075 0.021 0 0.0821429 0.021 0 0.0892857 0.021 0 0.0964286 0.021 0 0.103571 0.021 0 0.110714 0.021 0 0.117857 0.021 0 0.125 0.021 0 0.08 0.023 0 0.0865306 0.023 0 0.0930612 0.023 0 0.0995918 0.023 0 0.106122 0.023 0 0.112653 0.023 0 0.119184 0.023 0 0.125714 0.023 0 0.085 0.025 0 0.0909184 0.025 0 0.0968367 0.025 0 0.102755 0.025 0 0.108673 0.025 0 0.114592 0.025 0 0.12051 0.025 0 0.126429 0.025 0 0.09 0.027 0 0.0953061 0.027 0 0.100612 0.027 0 0.105918 0.027 0 0.111224 0.027 0 0.116531 0.027 0 0.121837 0.027 0 0.127143 0.027 0 0.095 0.029 0 0.0996939 0.029 0 0.104388 0.029 0 0.109082 0.029 0 0.113776 0.029 0 0.118469 0.029 0 0.123163 0.029 0 0.127857 0.029 0 0.1 0.031 0 0.104082 0.031 0 0.108163 0.031 0 0.112245 0.031 0 0.116327 0.031 0 0.120408 0.031 0 0.12449 0.031 0 0.128571 0.031 0 0.105 0.033 0 0.108469 0.033 0 0.111939 0.033 0 0.115408 0.033 0 0.118878 0.033 0 0.122347 0.033 0 0.125816 0.033 0 0.129286 0.033 0 0.11 0.035 0 0.112857 0.035 0 0.115714 0.035 0 0.118571 0.035 0 0.121429 0.035 0 0.124286 0.035 0 0.127143 0.035 0 0.13 0.035 0 
</DataArray>
</Points> 
</Piece> 
</StructuredGrid> 
</VTKFile> 
