<?xml version="1.0"?> 
<VTKFile type="StructuredGrid" version="0.1"> 
<StructuredGrid WholeExtent="0 7 0 7 0 0"> 
<Piece Extent="0 7 0 7 0 0"> 
<PointData>
<DataArray type="Float32" Name="|E|" format="ascii" NumberOfComponents="3"> 
-1.88438e+06 0 0 -1.92388e+06 218879 0 -2.03027e+06 459370 0 -2.2047e+06 727572 0 -2.37001e+06 1.15146e+06 0 -2.14303e+06 1.59892e+06 0 -1.62666e+06 1.36174e+06 0 -1.41902e+06 0 0 -1.86237e+06 0 0 -1.90109e+06 226181 0 -2.0048e+06 472163 0 -2.17175e+06 748368 0 -2.32031e+06 1.15732e+06 0 -2.1266e+06 1.55474e+06 0 -1.69545e+06 1.32538e+06 0 -1.62429e+06 1.11759e-08 0 -1.83969e+06 0 0 -1.87757e+06 233256 0 -1.97873e+06 484757 0 -2.13868e+06 767914 0 -2.27445e+06 1.16216e+06 0 -2.11324e+06 1.51755e+06 0 -1.75803e+06 1.30043e+06 0 -1.83202e+06 -2.23517e-08 0 -1.81636e+06 0 0 -1.85337e+06 240147 0 -1.95207e+06 497074 0 -2.10561e+06 786461 0 -2.23178e+06 1.16629e+06 0 -2.10297e+06 1.48682e+06 0 -1.81238e+06 1.2866e+06 0 -2.04788e+06 7.45058e-08 0 -1.79237e+06 0 0 -1.82849e+06 246900 0 -1.92486e+06 509017 0 -2.07269e+06 804320 0 -2.19161e+06 1.16985e+06 0 -2.0961e+06 1.46223e+06 0 -1.85586e+06 1.28366e+06 0 -2.27852e+06 -4.47035e-08 0 -1.76779e+06 0 0 -1.80294e+06 253582 0 -1.89712e+06 520449 0 -2.04002e+06 821891 0 -2.15324e+06 1.17273e+06 0 -2.09332e+06 1.44365e+06 0 -1.88484e+06 1.29132e+06 0 -2.53208e+06 1.49012e-08 0 -1.74265e+06 0 0 -1.7767e+06 260281 0 -1.86888e+06 531170 0 -2.00773e+06 839703 0 -2.1158e+06 1.17454e+06 0 -2.09592e+06 1.43123e+06 0 -1.89433e+06 1.30926e+06 0 -2.81884e+06 -2.98023e-08 0 -1.71708e+06 0 0 -1.7497e+06 267142 0 -1.8402e+06 540850 0 -1.97596e+06 858535 0 -2.07823e+06 1.17448e+06 0 -2.10602e+06 1.42559e+06 0 -1.87737e+06 1.33691e+06 0 -3.15216e+06 1.78814e-07 0 </DataArray> 
</PointData> 
<Points> 
<DataArray type="Float32" NumberOfComponents="3"> 
0 0.035 0 0.0142857 0.035 0 0.0285714 0.035 0 0.0428571 0.035 0 0.0571429 0.035 0 0.0714286 0.035 0 0.0857143 0.035 0 0.1 0.035 0 0 0.0364286 0 0.0142857 0.0364286 0 0.0285714 0.0364286 0 0.0428571 0.0364286 0 0.0571429 0.0364286 0 0.0714286 0.0364286 0 0.0857143 0.0364286 0 0.1 0.0364286 0 0 0.0378571 0 0.0142857 0.0378571 0 0.0285714 0.0378571 0 0.0428571 0.0378571 0 0.0571429 0.0378571 0 0.0714286 0.0378571 0 0.0857143 0.0378571 0 0.1 0.0378571 0 0 0.0392857 0 0.0142857 0.0392857 0 0.0285714 0.0392857 0 0.0428571 0.0392857 0 0.0571429 0.0392857 0 0.0714286 0.0392857 0 0.0857143 0.0392857 0 0.1 0.0392857 0 0 0.0407143 0 0.0142857 0.0407143 0 0.0285714 0.0407143 0 0.0428571 0.0407143 0 0.0571429 0.0407143 0 0.0714286 0.0407143 0 0.0857143 0.0407143 0 0.1 0.0407143 0 0 0.0421429 0 0.0142857 0.0421429 0 0.0285714 0.0421429 0 0.0428571 0.0421429 0 0.0571429 0.0421429 0 0.0714286 0.0421429 0 0.0857143 0.0421429 0 0.1 0.0421429 0 0 0.0435714 0 0.0142857 0.0435714 0 0.0285714 0.0435714 0 0.0428571 0.0435714 0 0.0571429 0.0435714 0 0.0714286 0.0435714 0 0.0857143 0.0435714 0 0.1 0.0435714 0 0 0.045 0 0.0142857 0.045 0 0.0285714 0.045 0 0.0428571 0.045 0 0.0571429 0.045 0 0.0714286 0.045 0 0.0857143 0.045 0 0.1 0.045 0 
</DataArray>
</Points> 
</Piece> 
</StructuredGrid> 
</VTKFile> 
