<?xml version="1.0"?> 
<VTKFile type="StructuredGrid" version="0.1"> 
<StructuredGrid WholeExtent="0 7 0 7 0 0"> 
<Piece Extent="0 7 0 7 0 0"> 
<PointData>
<DataArray type="Float32" Name="|E|" format="ascii" NumberOfComponents="3"> 
-3.95823e+06 465227 0 -4.38269e+06 411376 0 -4.92457e+06 345702 0 -5.66369e+06 251216 0 -6.88083e+06 33911.3 0 -9.42346e+06 -161161 0 -2.65559e+07 1.13747e+06 0 1.35201e+09 -3.93298e+08 0 -2.65547e+06 2.36584e+06 0 -2.91384e+06 2.55899e+06 0 -3.26567e+06 2.83967e+06 0 -3.75655e+06 3.28986e+06 0 -4.41246e+06 4.15037e+06 0 -5.24822e+06 5.9357e+06 0 -3.86448e+06 9.84009e+06 0 1.74449e+06 7.72447e+06 0 -1.56e+06 2.14889e+06 0 -1.71009e+06 2.3908e+06 0 -1.89468e+06 2.69997e+06 0 -2.11036e+06 3.12683e+06 0 -2.31925e+06 3.7671e+06 0 -2.24847e+06 4.77846e+06 0 -1.31013e+06 5.55963e+06 0 3350.42 5.74071e+06 0 -1.03373e+06 1.75721e+06 0 -1.1111e+06 2.05606e+06 0 -1.2248e+06 2.39662e+06 0 -1.36811e+06 2.82239e+06 0 -1.49892e+06 3.39711e+06 0 -1.46716e+06 4.17846e+06 0 -899565 5.01876e+06 0 -7068.17 5.07741e+06 0 -660548 1.3161e+06 0 -715383 1.65077e+06 0 -788833 2.03806e+06 0 -887982 2.49568e+06 0 -991041 3.06842e+06 0 -985928 3.79275e+06 0 -623673 4.49431e+06 0 38867.1 4.66454e+06 0 -399541 861524 0 -421576 1.25025e+06 0 -464115 1.68002e+06 0 -527430 2.18209e+06 0 -603882 2.79208e+06 0 -625114 3.5299e+06 0 -397168 4.2391e+06 0 37801.8 4.44957e+06 0 -186935 427219 0 -193481 857983 0 -208904 1.32982e+06 0 -237933 1.87301e+06 0 -279542 2.53074e+06 0 -305147 3.32596e+06 0 -200069 4.08769e+06 0 35433.7 4.33429e+06 0 0 -635.655 0 0 480608 0 0 992972 0 0 1.57132e+06 0 0 2.27291e+06 0 0 3.14477e+06 0 0 4.01316e+06 0 0 4.29145e+06 0 </DataArray> 
</PointData> 
<Points> 
<DataArray type="Float32" NumberOfComponents="3"> 
0.1 0.0687 0 0.100429 0.0701762 0 0.100857 0.0716525 0 0.101286 0.0731287 0 0.101714 0.074605 0 0.102143 0.0760812 0 0.102571 0.0775575 0 0.103 0.0790337 0 0.0857143 0.0748857 0 0.0883878 0.0761511 0 0.0910612 0.0774164 0 0.0937347 0.0786818 0 0.0964082 0.0799471 0 0.0990816 0.0812125 0 0.101755 0.0824778 0 0.104429 0.0837432 0 0.0714286 0.0810714 0 0.0763469 0.0821259 0 0.0812653 0.0831804 0 0.0861837 0.0842348 0 0.091102 0.0852893 0 0.0960204 0.0863437 0 0.100939 0.0873982 0 0.105857 0.0884527 0 0.0571429 0.0872571 0 0.0643061 0.0881007 0 0.0714694 0.0889443 0 0.0786327 0.0897879 0 0.0857959 0.0906314 0 0.0929592 0.091475 0 0.100122 0.0923186 0 0.107286 0.0931621 0 0.0428571 0.0934429 0 0.0522653 0.0940755 0 0.0616735 0.0947082 0 0.0710816 0.0953409 0 0.0804898 0.0959736 0 0.089898 0.0966062 0 0.0993061 0.0972389 0 0.108714 0.0978716 0 0.0285714 0.0996286 0 0.0402245 0.10005 0 0.0518776 0.100472 0 0.0635306 0.100894 0 0.0751837 0.101316 0 0.0868367 0.101737 0 0.0984898 0.102159 0 0.110143 0.102581 0 0.0142857 0.105814 0 0.0281837 0.106025 0 0.0420816 0.106236 0 0.0559796 0.106447 0 0.0698776 0.106658 0 0.0837755 0.106869 0 0.0976735 0.10708 0 0.111571 0.107291 0 0 0.112 0 0.0161429 0.112 0 0.0322857 0.112 0 0.0484286 0.112 0 0.0645714 0.112 0 0.0807143 0.112 0 0.0968571 0.112 0 0.113 0.112 0 
</DataArray>
</Points> 
</Piece> 
</StructuredGrid> 
</VTKFile> 
