<?xml version="1.0"?> 
<VTKFile type="StructuredGrid" version="0.1"> 
<StructuredGrid WholeExtent="0 7 0 7 0 0"> 
<Piece Extent="0 7 0 7 0 0"> 
<PointData>
<DataArray type="Float32" Name="|E|" format="ascii" NumberOfComponents="3"> 
-2.11295e+06 40577.5 0 -2.17124e+06 114860 0 -2.27571e+06 185541 0 -2.43332e+06 258936 0 -2.66094e+06 334789 0 -2.99106e+06 406519 0 -3.41212e+06 373737 0 -3.78045e+06 -1.19209e-07 0 -2.11193e+06 53565.1 0 -2.17393e+06 131039 0 -2.28033e+06 205956 0 -2.43771e+06 287451 0 -2.66581e+06 373089 0 -2.98785e+06 462007 0 -3.45479e+06 445177 0 -3.86338e+06 2.6077e-08 0 -2.11135e+06 67540.8 0 -2.17693e+06 148143 0 -2.28466e+06 227641 0 -2.44155e+06 316735 0 -2.66894e+06 413101 0 -2.98305e+06 519472 0 -3.49697e+06 528561 0 -3.97932e+06 0 0 -2.11122e+06 82585.3 0 -2.18024e+06 166267 0 -2.28865e+06 250418 0 -2.44469e+06 347094 0 -2.6705e+06 454463 0 -2.97513e+06 579209 0 -3.53784e+06 627518 0 -4.13651e+06 -3.72529e-08 0 -2.1116e+06 98874.3 0 -2.18384e+06 185411 0 -2.29222e+06 274217 0 -2.44706e+06 378730 0 -2.67056e+06 496857 0 -2.96266e+06 641257 0 -3.57436e+06 746800 0 -4.34909e+06 2.98023e-08 0 -2.11262e+06 116739 0 -2.18769e+06 205520 0 -2.29529e+06 299021 0 -2.44863e+06 411836 0 -2.66905e+06 539869 0 -2.94441e+06 705411 0 -3.59982e+06 892812 0 -4.64036e+06 0 0 -2.11453e+06 136588 0 -2.19169e+06 226482 0 -2.29776e+06 324834 0 -2.44946e+06 446662 0 -2.66568e+06 582846 0 -2.91983e+06 771231 0 -3.60106e+06 1.07397e+06 0 -5.04865e+06 2.98023e-08 0 -2.11763e+06 158609 0 -2.19567e+06 248176 0 -2.29951e+06 351685 0 -2.44973e+06 483578 0 -2.65967e+06 624655 0 -2.89024e+06 837904 0 -3.5528e+06 1.30253e+06 0 -5.63862e+06 -2.38419e-07 0 </DataArray> 
</PointData> 
<Points> 
<DataArray type="Float32" NumberOfComponents="3"> 
0.006 0.016 0 0.0158571 0.0151429 0 0.0257143 0.0142857 0 0.0355714 0.0134286 0 0.0454286 0.0125714 0 0.0552857 0.0117143 0 0.0651429 0.0108571 0 0.075 0.01 0 0.00742857 0.0167143 0 0.0170816 0.0159796 0 0.0267347 0.0152449 0 0.0363878 0.0145102 0 0.0460408 0.0137755 0 0.0556939 0.0130408 0 0.0653469 0.0123061 0 0.075 0.0115714 0 0.00885714 0.0174286 0 0.0183061 0.0168163 0 0.0277551 0.0162041 0 0.0372041 0.0155918 0 0.0466531 0.0149796 0 0.056102 0.0143673 0 0.065551 0.0137551 0 0.075 0.0131429 0 0.0102857 0.0181429 0 0.0195306 0.0176531 0 0.0287755 0.0171633 0 0.0380204 0.0166735 0 0.0472653 0.0161837 0 0.0565102 0.0156939 0 0.0657551 0.0152041 0 0.075 0.0147143 0 0.0117143 0.0188571 0 0.0207551 0.0184898 0 0.0297959 0.0181224 0 0.0388367 0.0177551 0 0.0478776 0.0173878 0 0.0569184 0.0170204 0 0.0659592 0.0166531 0 0.075 0.0162857 0 0.0131429 0.0195714 0 0.0219796 0.0193265 0 0.0308163 0.0190816 0 0.0396531 0.0188367 0 0.0484898 0.0185918 0 0.0573265 0.0183469 0 0.0661633 0.018102 0 0.075 0.0178571 0 0.0145714 0.0202857 0 0.0232041 0.0201633 0 0.0318367 0.0200408 0 0.0404694 0.0199184 0 0.049102 0.0197959 0 0.0577347 0.0196735 0 0.0663673 0.019551 0 0.075 0.0194286 0 0.016 0.021 0 0.0244286 0.021 0 0.0328571 0.021 0 0.0412857 0.021 0 0.0497143 0.021 0 0.0581429 0.021 0 0.0665714 0.021 0 0.075 0.021 0 
</DataArray>
</Points> 
</Piece> 
</StructuredGrid> 
</VTKFile> 
