<?xml version="1.0"?> 
<VTKFile type="StructuredGrid" version="0.1"> 
<StructuredGrid WholeExtent="0 7 0 7 0 0"> 
<Piece Extent="0 7 0 7 0 0"> 
<PointData>
<DataArray type="Float32" Name="|E|" format="ascii" NumberOfComponents="3"> 
-1.92344e+06 807850 0 -1.66768e+06 796350 0 -1.35703e+06 771525 0 -1.01524e+06 698171 0 -686702 562251 0 -404114 382474 0 -173632 191269 0 516.143 -41.077 0 -2.06626e+06 683359 0 -1.8555e+06 632338 0 -1.60739e+06 582778 0 -1.32828e+06 517037 0 -1.03607e+06 419908 0 -753142 288112 0 -491320 133823 0 -271081 -23920.2 0 -2.2315e+06 582906 0 -2.06376e+06 498076 0 -1.87063e+06 416926 0 -1.65414e+06 333182 0 -1.41977e+06 239830 0 -1.17715e+06 132144 0 -941617 7551.68 0 -693246 -125771 0 -2.42015e+06 500306 0 -2.3025e+06 388693 0 -2.16602e+06 277280 0 -2.01221e+06 165159 0 -1.84348e+06 50745.4 0 -1.66079e+06 -67295.4 0 -1.4637e+06 -188793 0 -1.30303e+06 -318626 0 -2.63601e+06 432948 0 -2.5827e+06 301397 0 -2.51513e+06 163108 0 -2.43276e+06 19758.3 0 -2.33618e+06 -126417 0 -2.22981e+06 -273729 0 -2.11661e+06 -418526 0 -1.93048e+06 -566532 0 -2.88516e+06 381330 0 -2.92103e+06 240104 0 -2.95064e+06 79899.3 0 -2.97018e+06 -100663 0 -2.97441e+06 -302855 0 -2.95597e+06 -526104 0 -2.90934e+06 -776690 0 -2.89752e+06 -972562 0 -3.17474e+06 349211 0 -3.34072e+06 215774 0 -3.52247e+06 53091.2 0 -3.72348e+06 -145607 0 -3.9505e+06 -387798 0 -4.17882e+06 -681181 0 -4.39633e+06 -989041 0 -4.86849e+06 -1.82748e+06 0 -3.57213e+06 353136 0 -3.87615e+06 264319 0 -4.29604e+06 163235 0 -4.8342e+06 10405.3 0 -5.64524e+06 -324797 0 -6.50973e+06 -1.00705e+06 0 -9.68586e+06 -3.7601e+06 0 -1.12546e+06 -467890 0 </DataArray> 
</PointData> 
<Points> 
<DataArray type="Float32" NumberOfComponents="3"> 
0.1 0.055 0 0.101742 0.0535714 0 0.103485 0.0521429 0 0.105227 0.0507143 0 0.106969 0.0492857 0 0.108711 0.0478571 0 0.110454 0.0464286 0 0.112196 0.045 0 0.1 0.0569571 0 0.101627 0.0557053 0 0.103288 0.0544272 0 0.104984 0.0531222 0 0.106716 0.0517892 0 0.108486 0.0504274 0 0.110294 0.0490359 0 0.112142 0.0476137 0 0.1 0.0589143 0 0.101485 0.057957 0 0.103022 0.0569659 0 0.104615 0.0559391 0 0.106266 0.0548746 0 0.107979 0.0537704 0 0.109757 0.0526242 0 0.111604 0.0514335 0 0.1 0.0608714 0 0.101317 0.0603055 0 0.102691 0.0597155 0 0.104125 0.0590996 0 0.105623 0.0584563 0 0.107189 0.0577835 0 0.108828 0.0570794 0 0.110546 0.0563415 0 0.1 0.0628286 0 0.101126 0.0627273 0 0.1023 0.0626217 0 0.103525 0.0625114 0 0.104805 0.0623963 0 0.106143 0.0622759 0 0.107544 0.0621498 0 0.109012 0.0620178 0 0.1 0.0647857 0 0.100912 0.065197 0 0.101856 0.0656229 0 0.102835 0.066064 0 0.103849 0.0665214 0 0.104901 0.0669958 0 0.105993 0.0674883 0 0.107128 0.0679999 0 0.1 0.0667429 0 0.100679 0.0676887 0 0.101372 0.0686543 0 0.102079 0.0696403 0 0.102802 0.0706473 0 0.10354 0.0716762 0 0.104295 0.0727275 0 0.105066 0.073802 0 0.1 0.0687 0 0.100429 0.0701762 0 0.100857 0.0716525 0 0.101286 0.0731287 0 0.101714 0.074605 0 0.102143 0.0760812 0 0.102571 0.0775575 0 0.103 0.0790337 0 
</DataArray>
</Points> 
</Piece> 
</StructuredGrid> 
</VTKFile> 
