<?xml version="1.0"?> 
<VTKFile type="StructuredGrid" version="0.1"> 
<StructuredGrid WholeExtent="0 7 0 7 0 0"> 
<Piece Extent="0 7 0 7 0 0"> 
<PointData>
<DataArray type="Float32" Name="|E|" format="ascii" NumberOfComponents="3"> 
-2.11763e+06 166082 0 -2.19567e+06 254498 0 -2.29951e+06 364148 0 -2.44973e+06 471765 0 -2.65967e+06 676666 0 -2.89024e+06 1.05688e+06 0 -3.5528e+06 -736701 0 -5.63862e+06 1.75899e+07 0 -2.20823e+06 298388 0 -2.30642e+06 417321 0 -2.44501e+06 559231 0 -2.62568e+06 714960 0 -2.85446e+06 904210 0 -3.32912e+06 1.40651e+06 0 -3.24408e+06 3.21391e+06 0 -388650 2.79814e+06 0 -2.34491e+06 492714 0 -2.48818e+06 653264 0 -2.65823e+06 813087 0 -2.85071e+06 1.07204e+06 0 -3.04654e+06 1.65912e+06 0 -2.76109e+06 2.325e+06 0 -1.40424e+06 2.68649e+06 0 -366859 1.20816e+06 0 -2.5932e+06 879343 0 -2.715e+06 1.08861e+06 0 -2.79899e+06 1.4629e+06 0 -2.74804e+06 1.96255e+06 0 -2.34049e+06 2.27822e+06 0 -1.50078e+06 2.2279e+06 0 -862336 1.73639e+06 0 -714421 1.10591e+06 0 -2.64843e+06 1.66016e+06 0 -2.55693e+06 2.02631e+06 0 -2.30486e+06 2.22924e+06 0 -1.87855e+06 2.15035e+06 0 -1.37003e+06 1.79177e+06 0 -1.04854e+06 1.40884e+06 0 -901074 959113 0 -697063 503099 0 -2.02305e+06 2.22019e+06 0 -1.7376e+06 1.97342e+06 0 -1.47517e+06 1.58356e+06 0 -1.2649e+06 1.14417e+06 0 -1.14084e+06 843390 0 -1.00129e+06 548483 0 -762160 222249 0 -484056 5427.08 0 -1.44112e+06 1.31881e+06 0 -1.35903e+06 572693 0 -1.23375e+06 148036 0 -1.06444e+06 -8375.22 0 -826096 -100403 0 -551285 -183384 0 -311384 -199775 0 -140305 -170352 0 1.78814e-07 -8.3529e+06 0 -1.11759e-07 -4.68294e+06 0 0 -2.14263e+06 0 1.49012e-08 -619605 0 -2.98023e-08 70646.6 0 4.47035e-08 242167 0 -5.96046e-08 183348 0 0 71980.9 0 </DataArray> 
</PointData> 
<Points> 
<DataArray type="Float32" NumberOfComponents="3"> 
0.016 0.021 0 0.0244286 0.021 0 0.0328571 0.021 0 0.0412857 0.021 0 0.0497143 0.021 0 0.0581429 0.021 0 0.0665714 0.021 0 0.075 0.021 0 0.028 0.023 0 0.0354286 0.023 0 0.0428571 0.023 0 0.0502857 0.023 0 0.0577143 0.023 0 0.0651429 0.023 0 0.0725714 0.023 0 0.08 0.023 0 0.04 0.025 0 0.0464286 0.025 0 0.0528571 0.025 0 0.0592857 0.025 0 0.0657143 0.025 0 0.0721429 0.025 0 0.0785714 0.025 0 0.085 0.025 0 0.052 0.027 0 0.0574286 0.027 0 0.0628571 0.027 0 0.0682857 0.027 0 0.0737143 0.027 0 0.0791429 0.027 0 0.0845714 0.027 0 0.09 0.027 0 0.064 0.029 0 0.0684286 0.029 0 0.0728571 0.029 0 0.0772857 0.029 0 0.0817143 0.029 0 0.0861429 0.029 0 0.0905714 0.029 0 0.095 0.029 0 0.076 0.031 0 0.0794286 0.031 0 0.0828571 0.031 0 0.0862857 0.031 0 0.0897143 0.031 0 0.0931429 0.031 0 0.0965714 0.031 0 0.1 0.031 0 0.088 0.033 0 0.0904286 0.033 0 0.0928571 0.033 0 0.0952857 0.033 0 0.0977143 0.033 0 0.100143 0.033 0 0.102571 0.033 0 0.105 0.033 0 0.1 0.035 0 0.101429 0.035 0 0.102857 0.035 0 0.104286 0.035 0 0.105714 0.035 0 0.107143 0.035 0 0.108571 0.035 0 0.11 0.035 0 
</DataArray>
</Points> 
</Piece> 
</StructuredGrid> 
</VTKFile> 
