<?xml version="1.0"?> 
<VTKFile type="StructuredGrid" version="0.1"> 
<StructuredGrid WholeExtent="0 7 0 7 0 0"> 
<Piece Extent="0 7 0 7 0 0"> 
<PointData>
<DataArray type="Float32" Name="|E|" format="ascii" NumberOfComponents="3"> 
1.79291e+06 -715150 0 1.97984e+06 65538.7 0 1.53229e+06 304600 0 1.13134e+06 260886 0 846617 183824 0 658971 113457 0 552849 53997.9 0 516566 0 0 1.92618e+06 -768307 0 2.02526e+06 113673 0 1.51847e+06 351368 0 1.11583e+06 293434 0 834543 205250 0 650510 126833 0 546551 60278.5 0 511052 0 0 2.07658e+06 -828299 0 2.07092e+06 174089 0 1.50126e+06 399450 0 1.09934e+06 325744 0 821477 226129 0 641284 139959 0 539582 66398.4 0 504882 0 0 2.25155e+06 -898089 0 2.11398e+06 248491 0 1.48034e+06 448469 0 1.08185e+06 357708 0 807417 246450 0 631301 152819 0 531955 72349.9 0 498058 0 0 2.46071e+06 -981519 0 2.15032e+06 338886 0 1.45573e+06 498037 0 1.06327e+06 389092 0 792374 266280 0 620568 165364 0 523684 78138 0 490582 0 0 2.71688e+06 -1.0837e+06 0 2.17395e+06 447592 0 1.42812e+06 547842 0 1.0434e+06 419406 0 776397 285849 0 609092 177462 0 514778 83798.1 0 482461 0 0 3.0374e+06 -1.21155e+06 0 2.17609e+06 577279 0 1.3992e+06 597781 0 1.02172e+06 447754 0 759597 305664 0 596887 188841 0 505229 89420.5 0 473730 0 0 3.44611e+06 -1.37457e+06 0 2.14385e+06 730681 0 1.37245e+06 648463 0 997247 472294 0 742204 326885 0 583985 198884 0 494983 95231.5 0 464481 0 0 </DataArray> 
</PointData> 
<Points> 
<DataArray type="Float32" NumberOfComponents="3"> 
0.1947 0.02 0 0.220171 0.02 0 0.245643 0.02 0 0.271114 0.02 0 0.296586 0.02 0 0.322057 0.02 0 0.347529 0.02 0 0.373 0.02 0 0.195714 0.0225429 0 0.221041 0.0225429 0 0.246367 0.0225429 0 0.271694 0.0225429 0 0.29702 0.0225429 0 0.322347 0.0225429 0 0.347673 0.0225429 0 0.373 0.0225429 0 0.196729 0.0250857 0 0.22191 0.0250857 0 0.247092 0.0250857 0 0.272273 0.0250857 0 0.297455 0.0250857 0 0.322637 0.0250857 0 0.347818 0.0250857 0 0.373 0.0250857 0 0.197743 0.0276286 0 0.22278 0.0276286 0 0.247816 0.0276286 0 0.272853 0.0276286 0 0.29789 0.0276286 0 0.322927 0.0276286 0 0.347963 0.0276286 0 0.373 0.0276286 0 0.198757 0.0301714 0 0.223649 0.0301714 0 0.248541 0.0301714 0 0.273433 0.0301714 0 0.298324 0.0301714 0 0.323216 0.0301714 0 0.348108 0.0301714 0 0.373 0.0301714 0 0.199771 0.0327143 0 0.224518 0.0327143 0 0.249265 0.0327143 0 0.274012 0.0327143 0 0.298759 0.0327143 0 0.323506 0.0327143 0 0.348253 0.0327143 0 0.373 0.0327143 0 0.200786 0.0352571 0 0.225388 0.0352571 0 0.24999 0.0352571 0 0.274592 0.0352571 0 0.299194 0.0352571 0 0.323796 0.0352571 0 0.348398 0.0352571 0 0.373 0.0352571 0 0.2018 0.0378 0 0.226257 0.0378 0 0.250714 0.0378 0 0.275171 0.0378 0 0.299629 0.0378 0 0.324086 0.0378 0 0.348543 0.0378 0 0.373 0.0378 0 
</DataArray>
</Points> 
</Piece> 
</StructuredGrid> 
</VTKFile> 
