<?xml version="1.0"?> 
<VTKFile type="StructuredGrid" version="0.1"> 
<StructuredGrid WholeExtent="0 7 0 7 0 0"> 
<Piece Extent="0 7 0 7 0 0"> 
<PointData>
<DataArray type="Float32" Name="|E|" format="ascii" NumberOfComponents="3"> 
-1.48671e+06 1.04458e+06 0 -2.5563e+06 2.15187e+06 0 -5.54766e+06 5.76709e+06 0 -1.73784e+07 2.35237e+07 0 -1.67884e+07 3.27903e+07 0 -5.8141e+06 2.11597e+07 0 -261532 1.37572e+07 0 2.52449e+06 9.50305e+06 0 -771062 3.38159e+06 0 -531055 4.29639e+06 0 487473 4.99031e+06 0 1.62457e+06 4.84176e+06 0 2.21987e+06 4.01827e+06 0 2.27776e+06 3.02208e+06 0 2.05173e+06 2.18367e+06 0 1.73087e+06 1.59755e+06 0 54431.7 3.40382e+06 0 614900 3.68747e+06 0 1.32999e+06 3.33108e+06 0 1.55151e+06 2.51823e+06 0 1.35126e+06 1.85254e+06 0 1.10411e+06 1.48739e+06 0 972733 1.28795e+06 0 950380 1.13943e+06 0 320922 3.19023e+06 0 744457 3.09449e+06 0 1.03986e+06 2.56138e+06 0 978420 1.98897e+06 0 822707 1.62287e+06 0 728676 1.35721e+06 0 653006 1.12721e+06 0 543194 978249 0 342614 3.02247e+06 0 605320 2.76191e+06 0 717010 2.23383e+06 0 634951 1.74715e+06 0 536302 1.37244e+06 0 444748 1.06237e+06 0 352518 833808 0 302898 641206 0 261146 2.92875e+06 0 412811 2.56803e+06 0 448483 2.02884e+06 0 380696 1.53586e+06 0 303551 1.13345e+06 0 232483 824894 0 189910 588538 0 164489 394410 0 138656 2.88313e+06 0 209446 2.4425e+06 0 213545 1.86278e+06 0 170578 1.33694e+06 0 126890 923968 0 96335.6 619331 0 78491.6 382160 0 66771.8 196171 0 0 2.86997e+06 0 0 2.35145e+06 0 0 1.70616e+06 0 0 1.14905e+06 0 0 738619 0 0 437659 0 0 201396 0 0 -1004.38 0 </DataArray> 
</PointData> 
<Points> 
<DataArray type="Float32" NumberOfComponents="3"> 
0.188799 0.045072 0 0.190444 0.0472146 0 0.19218 0.0490789 0 0.193964 0.050596 0 0.195747 0.0517126 0 0.197479 0.0523971 0 0.199111 0.0526426 0 0.200607 0.0524662 0 0.188685 0.0546332 0 0.193951 0.0566888 0 0.199413 0.0584281 0 0.204947 0.0597935 0 0.210422 0.0607428 0 0.215705 0.0612532 0 0.220676 0.0613231 0 0.225234 0.0609711 0 0.188571 0.0641943 0 0.197431 0.0660885 0 0.206549 0.0676531 0 0.215753 0.0688435 0 0.22486 0.0696282 0 0.233689 0.0699918 0 0.242071 0.0699352 0 0.249862 0.0694759 0 0.188457 0.0737555 0 0.200884 0.0754146 0 0.213592 0.0767565 0 0.226388 0.0777494 0 0.239069 0.0783723 0 0.251436 0.078615 0 0.263298 0.0784799 0 0.27449 0.0779807 0 0.188343 0.0833166 0 0.20431 0.084668 0 0.220542 0.0857405 0 0.236854 0.0865148 0 0.253054 0.0869783 0 0.26895 0.0871253 0 0.28436 0.086958 0 0.299117 0.0864855 0 0.188228 0.0928777 0 0.207709 0.0938495 0 0.227402 0.0946076 0 0.247157 0.0951429 0 0.26682 0.0954495 0 0.286237 0.0955248 0 0.305258 0.0953702 0 0.323745 0.0949904 0 0.188114 0.102439 0 0.211082 0.10296 0 0.234173 0.10336 0 0.2573 0.103637 0 0.280371 0.103789 0 0.303299 0.103816 0 0.325995 0.103717 0 0.348372 0.103495 0 0.188 0.112 0 0.214429 0.112 0 0.240857 0.112 0 0.267286 0.112 0 0.293714 0.112 0 0.320143 0.112 0 0.346571 0.112 0 0.373 0.112 0 
</DataArray>
</Points> 
</Piece> 
</StructuredGrid> 
</VTKFile> 
