<?xml version="1.0"?> 
<VTKFile type="StructuredGrid" version="0.1"> 
<StructuredGrid WholeExtent="0 15 0 15 0 0"> 
<Piece Extent="0 15 0 15 0 0"> 
<PointData>
<DataArray type="Float32" Name="|E|" format="ascii" NumberOfComponents="3"> 
-2.1349e+06 0 0 -2.14159e+06 0.00748513 0 -2.16104e+06 0.015383 0 -2.19356e+06 0.0239847 0 -2.23967e+06 0.0334045 0 -2.30015e+06 0.0435335 0 -2.37601e+06 0.0532236 0 -2.46853e+06 0.0581872 0 -2.57917e+06 0.0485327 0 -2.70932e+06 0.00320989 0 -2.85966e+06 -0.131884 0 -3.02857e+06 -0.453963 0 -3.20859e+06 -0.987745 0 -3.38121e+06 -1.50048 0 -3.51405e+06 -1.40004 0 -3.56743e+06 0 0 -2.13478e+06 0 0 -2.14148e+06 1695.73 0 -2.16093e+06 3418.17 0 -2.19344e+06 5195.41 0 -2.23955e+06 7058 0 -2.30002e+06 9039.33 0 -2.37586e+06 11175 0 -2.46837e+06 13498.2 0 -2.57899e+06 16023.7 0 -2.70914e+06 18711.5 0 -2.85949e+06 21386.3 0 -3.02847e+06 23539.6 0 -3.20865e+06 24016.9 0 -3.38158e+06 20990.2 0 -3.51479e+06 12789 0 -3.56838e+06 -1.86265e-07 0 -2.13445e+06 0 0 -2.14114e+06 3390.98 0 -2.16058e+06 6835.34 0 -2.19308e+06 10389.3 0 -2.23916e+06 14113.8 0 -2.2996e+06 18075.8 0 -2.37542e+06 22346.6 0 -2.46788e+06 26992.6 0 -2.57847e+06 32044.2 0 -2.70859e+06 37422.8 0 -2.85899e+06 42781.1 0 -3.02815e+06 47108.8 0 -3.20883e+06 48098.2 0 -3.38266e+06 42078.5 0 -3.51701e+06 25670 0 -3.57126e+06 2.16067e-07 0 -2.13388e+06 0 0 -2.14057e+06 5085.26 0 -2.16e+06 10250.5 0 -2.19247e+06 15580 0 -2.23852e+06 21165.3 0 -2.29892e+06 27106.7 0 -2.37468e+06 33511.2 0 -2.46708e+06 40479.6 0 -2.5776e+06 48058.4 0 -2.70768e+06 56133.6 0 -2.85814e+06 64192.5 0 -3.02762e+06 70735.8 0 -3.20913e+06 72306.5 0 -3.38446e+06 63360.8 0 -3.52072e+06 38734.1 0 -3.57608e+06 -2.23517e-07 0 -2.1331e+06 0 0 -2.13978e+06 6778.12 0 -2.15918e+06 13662.8 0 -2.19162e+06 20766.2 0 -2.23763e+06 28210.5 0 -2.29796e+06 36129.3 0 -2.37364e+06 44665.8 0 -2.46594e+06 53955.3 0 -2.57637e+06 64063.1 0 -2.70641e+06 74843.2 0 -2.85694e+06 85628 0 -3.02686e+06 94447.8 0 -3.20953e+06 96702.9 0 -3.38696e+06 84932.1 0 -3.52593e+06 52073.9 0 -3.58289e+06 2.08616e-07 0 -2.13208e+06 0 0 -2.13875e+06 8469.09 0 -2.15814e+06 17071.2 0 -2.19054e+06 25946.4 0 -2.23648e+06 35247.3 0 -2.29673e+06 45140.9 0 -2.3723e+06 55806.8 0 -2.46449e+06 67416.2 0 -2.5748e+06 80055.2 0 -2.70476e+06 93550.9 0 -2.85539e+06 107094 0 -3.02586e+06 118271 0 -3.21001e+06 121349 0 -3.39016e+06 106890 0 -3.53267e+06 65788.3 0 -3.59177e+06 -4.47035e-08 0 -2.13085e+06 0 0 -2.13751e+06 10157.7 0 -2.15686e+06 20474.7 0 -2.18921e+06 31119 0 -2.23508e+06 42273.5 0 -2.29523e+06 54138.7 0 -2.37067e+06 66930.9 0 -2.46271e+06 80858.3 0 -2.57287e+06 96031.2 0 -2.70275e+06 112255 0 -2.85348e+06 128597 0 -3.0246e+06 142232 0 -3.21056e+06 146307 0 -3.39404e+06 129334 0 -3.54094e+06 79983.6 0 -3.6028e+06 0 0 -2.12938e+06 0 0 -2.13603e+06 11843.5 0 -2.15535e+06 23872.5 0 -2.18764e+06 36282.6 0 -2.23342e+06 49287.1 0 -2.29345e+06 63120.1 0 -2.36875e+06 78034.8 0 -2.46061e+06 94277.9 0 -2.57059e+06 111988 0 -2.70036e+06 130955 0 -2.85121e+06 150142 0 -3.02307e+06 166353 0 -3.21114e+06 171637 0 -3.39858e+06 152366 0 -3.55079e+06 94775.8 0 -3.61611e+06 0 0 -2.1277e+06 0 0 -2.13433e+06 13526.1 0 -2.15361e+06 27263.6 0 -2.18583e+06 41435.7 0 -2.23151e+06 56286.1 0 -2.29141e+06 72082.4 0 -2.36653e+06 89115.1 0 -2.45818e+06 107671 0 -2.56796e+06 127920 0 -2.69759e+06 149649 0 -2.84855e+06 171733 0 -3.02123e+06 190658 0 -3.21171e+06 197402 0 -3.40375e+06 176092 0 -3.56223e+06 110294 0 -3.63185e+06 -8.9407e-08 0 -2.12579e+06 0 0 -2.13241e+06 15204.9 0 -2.15164e+06 30647 0 -2.18378e+06 46576.8 0 -2.22935e+06 63268.4 0 -2.28909e+06 81022.8 0 -2.36401e+06 100168 0 -2.45544e+06 121034 0 -2.56498e+06 143826 0 -2.69444e+06 168332 0 -2.8455e+06 193372 0 -3.01906e+06 215164 0 -3.21224e+06 223661 0 -3.40953e+06 200620 0 -3.57529e+06 126681 0 -3.65023e+06 1.19209e-07 0 -2.12366e+06 0 0 -2.13026e+06 16879.6 0 -2.14944e+06 34021.8 0 -2.18149e+06 51704.5 0 -2.22693e+06 70232 0 -2.2865e+06 89938.6 0 -2.3612e+06 111191 0 -2.45237e+06 134361 0 -2.56164e+06 159700 0 -2.6909e+06 187003 0 -2.84204e+06 215058 0 -3.01652e+06 239891 0 -3.21268e+06 250477 0 -3.41587e+06 226062 0 -3.58997e+06 144101 0 -3.6715e+06 -2.98023e-08 0 -2.12131e+06 0 0 -2.12789e+06 18549.6 0 -2.14701e+06 37387.1 0 -2.17897e+06 56817.3 0 -2.22426e+06 77174.8 0 -2.28364e+06 98827 0 -2.3581e+06 122179 0 -2.44897e+06 147650 0 -2.55794e+06 175538 0 -2.68697e+06 205657 0 -2.83817e+06 236792 0 -3.01359e+06 264851 0 -3.21296e+06 277910 0 -3.42275e+06 252530 0 -3.60627e+06 162742 0 -3.69598e+06 1.49012e-07 0 -2.11873e+06 0 0 -2.12529e+06 20214.6 0 -2.14435e+06 40742 0 -2.1762e+06 61913.8 0 -2.22135e+06 84094.8 0 -2.28051e+06 107686 0 -2.35471e+06 133130 0 -2.44526e+06 160895 0 -2.55388e+06 191335 0 -2.68265e+06 224290 0 -2.83386e+06 258568 0 -3.0102e+06 290055 0 -3.21302e+06 306019 0 -3.43013e+06 280140 0 -3.62415e+06 182819 0 -3.72409e+06 -3.27826e-07 0 -2.11594e+06 0 0 -2.12247e+06 21874.2 0 -2.14147e+06 44085.6 0 -2.1732e+06 66992.5 0 -2.21818e+06 90990 0 -2.27712e+06 116511 0 -2.35103e+06 144040 0 -2.44122e+06 174093 0 -2.54946e+06 207086 0 -2.67793e+06 242897 0 -2.82909e+06 280382 0 -3.00634e+06 315509 0 -3.21277e+06 334864 0 -3.43798e+06 309009 0 -3.64353e+06 204583 0 -3.75639e+06 2.98023e-07 0 -2.11292e+06 0 0 -2.11943e+06 23527.8 0 -2.13836e+06 47416.9 0 -2.16997e+06 72052 0 -2.21476e+06 97858.3 0 -2.27346e+06 125302 0 -2.34705e+06 154905 0 -2.43686e+06 187238 0 -2.54469e+06 222784 0 -2.6728e+06 261474 0 -2.82386e+06 302222 0 -3.00195e+06 341216 0 -3.21211e+06 364500 0 -3.44629e+06 339253 0 -3.66425e+06 228326 0 -3.79361e+06 -1.19209e-07 0 -2.10969e+06 0 0 -2.11617e+06 25175.1 0 -2.13502e+06 50735.1 0 -2.1665e+06 77090.9 0 -2.2111e+06 104698 0 -2.26954e+06 134055 0 -2.34279e+06 165722 0 -2.43218e+06 200327 0 -2.53955e+06 238424 0 -2.66727e+06 280015 0 -2.81814e+06 324074 0 -2.997e+06 367173 0 -3.2109e+06 394985 0 -3.45509e+06 370987 0 -3.686e+06 254404 0 -3.83671e+06 -2.38419e-07 0 </DataArray> 
</PointData> 
<Points> 
<DataArray type="Float32" NumberOfComponents="3"> 
0 0 0 0.005 0 0 0.01 0 0 0.015 0 0 0.02 0 0 0.025 0 0 0.03 0 0 0.035 0 0 0.04 0 0 0.045 0 0 0.05 0 0 0.055 0 0 0.06 0 0 0.065 0 0 0.07 0 0 0.075 0 0 0 0.000666667 0 0.005 0.000666667 0 0.01 0.000666667 0 0.015 0.000666667 0 0.02 0.000666667 0 0.025 0.000666667 0 0.03 0.000666667 0 0.035 0.000666667 0 0.04 0.000666667 0 0.045 0.000666667 0 0.05 0.000666667 0 0.055 0.000666667 0 0.06 0.000666667 0 0.065 0.000666667 0 0.07 0.000666667 0 0.075 0.000666667 0 0 0.00133333 0 0.005 0.00133333 0 0.01 0.00133333 0 0.015 0.00133333 0 0.02 0.00133333 0 0.025 0.00133333 0 0.03 0.00133333 0 0.035 0.00133333 0 0.04 0.00133333 0 0.045 0.00133333 0 0.05 0.00133333 0 0.055 0.00133333 0 0.06 0.00133333 0 0.065 0.00133333 0 0.07 0.00133333 0 0.075 0.00133333 0 0 0.002 0 0.005 0.002 0 0.01 0.002 0 0.015 0.002 0 0.02 0.002 0 0.025 0.002 0 0.03 0.002 0 0.035 0.002 0 0.04 0.002 0 0.045 0.002 0 0.05 0.002 0 0.055 0.002 0 0.06 0.002 0 0.065 0.002 0 0.07 0.002 0 0.075 0.002 0 0 0.00266667 0 0.005 0.00266667 0 0.01 0.00266667 0 0.015 0.00266667 0 0.02 0.00266667 0 0.025 0.00266667 0 0.03 0.00266667 0 0.035 0.00266667 0 0.04 0.00266667 0 0.045 0.00266667 0 0.05 0.00266667 0 0.055 0.00266667 0 0.06 0.00266667 0 0.065 0.00266667 0 0.07 0.00266667 0 0.075 0.00266667 0 0 0.00333333 0 0.005 0.00333333 0 0.01 0.00333333 0 0.015 0.00333333 0 0.02 0.00333333 0 0.025 0.00333333 0 0.03 0.00333333 0 0.035 0.00333333 0 0.04 0.00333333 0 0.045 0.00333333 0 0.05 0.00333333 0 0.055 0.00333333 0 0.06 0.00333333 0 0.065 0.00333333 0 0.07 0.00333333 0 0.075 0.00333333 0 0 0.004 0 0.005 0.004 0 0.01 0.004 0 0.015 0.004 0 0.02 0.004 0 0.025 0.004 0 0.03 0.004 0 0.035 0.004 0 0.04 0.004 0 0.045 0.004 0 0.05 0.004 0 0.055 0.004 0 0.06 0.004 0 0.065 0.004 0 0.07 0.004 0 0.075 0.004 0 0 0.00466667 0 0.005 0.00466667 0 0.01 0.00466667 0 0.015 0.00466667 0 0.02 0.00466667 0 0.025 0.00466667 0 0.03 0.00466667 0 0.035 0.00466667 0 0.04 0.00466667 0 0.045 0.00466667 0 0.05 0.00466667 0 0.055 0.00466667 0 0.06 0.00466667 0 0.065 0.00466667 0 0.07 0.00466667 0 0.075 0.00466667 0 0 0.00533333 0 0.005 0.00533333 0 0.01 0.00533333 0 0.015 0.00533333 0 0.02 0.00533333 0 0.025 0.00533333 0 0.03 0.00533333 0 0.035 0.00533333 0 0.04 0.00533333 0 0.045 0.00533333 0 0.05 0.00533333 0 0.055 0.00533333 0 0.06 0.00533333 0 0.065 0.00533333 0 0.07 0.00533333 0 0.075 0.00533333 0 0 0.006 0 0.005 0.006 0 0.01 0.006 0 0.015 0.006 0 0.02 0.006 0 0.025 0.006 0 0.03 0.006 0 0.035 0.006 0 0.04 0.006 0 0.045 0.006 0 0.05 0.006 0 0.055 0.006 0 0.06 0.006 0 0.065 0.006 0 0.07 0.006 0 0.075 0.006 0 0 0.00666667 0 0.005 0.00666667 0 0.01 0.00666667 0 0.015 0.00666667 0 0.02 0.00666667 0 0.025 0.00666667 0 0.03 0.00666667 0 0.035 0.00666667 0 0.04 0.00666667 0 0.045 0.00666667 0 0.05 0.00666667 0 0.055 0.00666667 0 0.06 0.00666667 0 0.065 0.00666667 0 0.07 0.00666667 0 0.075 0.00666667 0 0 0.00733333 0 0.005 0.00733333 0 0.01 0.00733333 0 0.015 0.00733333 0 0.02 0.00733333 0 0.025 0.00733333 0 0.03 0.00733333 0 0.035 0.00733333 0 0.04 0.00733333 0 0.045 0.00733333 0 0.05 0.00733333 0 0.055 0.00733333 0 0.06 0.00733333 0 0.065 0.00733333 0 0.07 0.00733333 0 0.075 0.00733333 0 0 0.008 0 0.005 0.008 0 0.01 0.008 0 0.015 0.008 0 0.02 0.008 0 0.025 0.008 0 0.03 0.008 0 0.035 0.008 0 0.04 0.008 0 0.045 0.008 0 0.05 0.008 0 0.055 0.008 0 0.06 0.008 0 0.065 0.008 0 0.07 0.008 0 0.075 0.008 0 0 0.00866667 0 0.005 0.00866667 0 0.01 0.00866667 0 0.015 0.00866667 0 0.02 0.00866667 0 0.025 0.00866667 0 0.03 0.00866667 0 0.035 0.00866667 0 0.04 0.00866667 0 0.045 0.00866667 0 0.05 0.00866667 0 0.055 0.00866667 0 0.06 0.00866667 0 0.065 0.00866667 0 0.07 0.00866667 0 0.075 0.00866667 0 0 0.00933333 0 0.005 0.00933333 0 0.01 0.00933333 0 0.015 0.00933333 0 0.02 0.00933333 0 0.025 0.00933333 0 0.03 0.00933333 0 0.035 0.00933333 0 0.04 0.00933333 0 0.045 0.00933333 0 0.05 0.00933333 0 0.055 0.00933333 0 0.06 0.00933333 0 0.065 0.00933333 0 0.07 0.00933333 0 0.075 0.00933333 0 0 0.01 0 0.005 0.01 0 0.01 0.01 0 0.015 0.01 0 0.02 0.01 0 0.025 0.01 0 0.03 0.01 0 0.035 0.01 0 0.04 0.01 0 0.045 0.01 0 0.05 0.01 0 0.055 0.01 0 0.06 0.01 0 0.065 0.01 0 0.07 0.01 0 0.075 0.01 0 
</DataArray>
</Points> 
</Piece> 
</StructuredGrid> 
</VTKFile> 
