<?xml version="1.0"?> 
<VTKFile type="StructuredGrid" version="0.1"> 
<StructuredGrid WholeExtent="0 15 0 15 0 0"> 
<Piece Extent="0 15 0 15 0 0"> 
<PointData>
<DataArray type="Float32" Name="|E|" format="ascii" NumberOfComponents="3"> 
-1.84207e+06 0 0 -1.85033e+06 105481 0 -1.87418e+06 213016 0 -1.91353e+06 324813 0 -1.96816e+06 443473 0 -2.03744e+06 572145 0 -2.11986e+06 715337 0 -2.21131e+06 879261 0 -2.30402e+06 1.0723e+06 0 -2.37303e+06 1.31111e+06 0 -2.34662e+06 1.59017e+06 0 -2.14669e+06 1.80035e+06 0 -1.8225e+06 1.74724e+06 0 -1.59488e+06 1.33849e+06 0 -1.64899e+06 726262 0 -1.7046e+06 -1.19209e-07 0 -1.8315e+06 0 0 -1.83965e+06 107036 0 -1.86318e+06 216122 0 -1.90198e+06 329457 0 -1.95578e+06 449610 0 -2.02385e+06 579688 0 -2.10455e+06 724041 0 -2.19362e+06 888508 0 -2.28274e+06 1.08093e+06 0 -2.34682e+06 1.31486e+06 0 -2.32036e+06 1.58015e+06 0 -2.1368e+06 1.77313e+06 0 -1.84605e+06 1.7173e+06 0 -1.6498e+06 1.33048e+06 0 -1.71191e+06 736821 0 -1.78903e+06 1.00583e-07 0 -1.82076e+06 0 0 -1.82881e+06 108571 0 -1.85202e+06 219186 0 -1.89028e+06 334034 0 -1.94325e+06 455650 0 -2.01014e+06 587090 0 -2.08915e+06 732544 0 -2.17592e+06 897487 0 -2.26168e+06 1.08915e+06 0 -2.32152e+06 1.3182e+06 0 -2.2958e+06 1.57076e+06 0 -2.12806e+06 1.74847e+06 0 -1.86866e+06 1.6909e+06 0 -1.70145e+06 1.32443e+06 0 -1.77517e+06 748864 0 -1.87516e+06 -4.47035e-08 0 -1.80988e+06 0 0 -1.81782e+06 110086 0 -1.84072e+06 222209 0 -1.87843e+06 338544 0 -1.93058e+06 461592 0 -1.9963e+06 594356 0 -2.07367e+06 740852 0 -2.15822e+06 906207 0 -2.24084e+06 1.09698e+06 0 -2.29708e+06 1.32123e+06 0 -2.27278e+06 1.56203e+06 0 -2.12031e+06 1.72622e+06 0 -1.89031e+06 1.66777e+06 0 -1.75015e+06 1.32036e+06 0 -1.83838e+06 762777 0 -1.96388e+06 -1.04308e-07 0 -1.79884e+06 0 0 -1.80668e+06 111581 0 -1.82926e+06 225189 0 -1.86643e+06 342987 0 -1.91777e+06 467439 0 -1.98234e+06 601485 0 -2.05812e+06 748973 0 -2.14054e+06 914680 0 -2.22024e+06 1.10447e+06 0 -2.27344e+06 1.32402e+06 0 -2.25114e+06 1.554e+06 0 -2.11342e+06 1.70625e+06 0 -1.91102e+06 1.6477e+06 0 -1.79616e+06 1.31823e+06 0 -1.90113e+06 778947 0 -2.05611e+06 1.63913e-07 0 -1.78766e+06 0 0 -1.79538e+06 113055 0 -1.81766e+06 228129 0 -1.85429e+06 347365 0 -1.90483e+06 473192 0 -1.96827e+06 608482 0 -2.0425e+06 756913 0 -2.12286e+06 922915 0 -2.19989e+06 1.11164e+06 0 -2.25057e+06 1.32663e+06 0 -2.23075e+06 1.54668e+06 0 -2.10724e+06 1.68844e+06 0 -1.93077e+06 1.63051e+06 0 -1.8397e+06 1.31802e+06 0 -1.96302e+06 797798 0 -2.15291e+06 -1.63913e-07 0 -1.77632e+06 0 0 -1.78395e+06 114510 0 -1.80592e+06 231027 0 -1.84201e+06 351677 0 -1.89175e+06 478850 0 -1.95409e+06 615349 0 -2.02681e+06 764679 0 -2.10521e+06 930927 0 -2.17978e+06 1.11854e+06 0 -2.22841e+06 1.32914e+06 0 -2.21148e+06 1.5401e+06 0 -2.10165e+06 1.67266e+06 0 -1.94958e+06 1.61601e+06 0 -1.88097e+06 1.31965e+06 0 -2.02352e+06 819788 0 -2.25555e+06 2.23517e-07 0 -1.76485e+06 0 0 -1.77237e+06 115945 0 -1.79403e+06 233884 0 -1.8296e+06 355924 0 -1.87855e+06 484417 0 -1.9398e+06 622089 0 -2.01106e+06 772276 0 -2.08759e+06 938725 0 -2.15991e+06 1.1252e+06 0 -2.20693e+06 1.33158e+06 0 -2.19321e+06 1.53426e+06 0 -2.09656e+06 1.65881e+06 0 -1.96742e+06 1.60405e+06 0 -1.92015e+06 1.32303e+06 0 -2.08199e+06 845429 0 -2.36554e+06 -1.78814e-07 0 -1.75323e+06 0 0 -1.76065e+06 117359 0 -1.782e+06 236701 0 -1.81705e+06 360108 0 -1.86523e+06 489893 0 -1.92541e+06 628705 0 -1.99525e+06 779710 0 -2.07001e+06 946325 0 -2.14029e+06 1.13163e+06 0 -2.18606e+06 1.33401e+06 0 -2.17582e+06 1.52915e+06 0 -2.09188e+06 1.64679e+06 0 -1.98426e+06 1.59449e+06 0 -1.95748e+06 1.32805e+06 0 -2.13756e+06 875293 0 -2.48478e+06 8.9407e-08 0 -1.74147e+06 0 0 -1.74878e+06 118755 0 -1.76983e+06 239477 0 -1.80436e+06 364228 0 -1.85178e+06 495279 0 -1.91091e+06 635199 0 -1.97939e+06 786988 0 -2.05246e+06 953737 0 -2.12089e+06 1.13788e+06 0 -2.16578e+06 1.33647e+06 0 -2.15922e+06 1.52478e+06 0 -2.08753e+06 1.63652e+06 0 -2.00002e+06 1.5872e+06 0 -1.99329e+06 1.33452e+06 0 -2.18908e+06 910032 0 -2.61568e+06 -1.19209e-07 0 -1.72957e+06 0 0 -1.73678e+06 120131 0 -1.75753e+06 242213 0 -1.79155e+06 368286 0 -1.83821e+06 500577 0 -1.89633e+06 641577 0 -1.96348e+06 794115 0 -2.03495e+06 960977 0 -2.10172e+06 1.14396e+06 0 -2.14603e+06 1.33901e+06 0 -2.14328e+06 1.52112e+06 0 -2.0835e+06 1.6279e+06 0 -2.01458e+06 1.58208e+06 0 -2.02801e+06 1.34224e+06 0 -2.23497e+06 950386 0 -2.76133e+06 1.49012e-07 0 -1.71753e+06 0 0 -1.72464e+06 121487 0 -1.7451e+06 244910 0 -1.7786e+06 372283 0 -1.82453e+06 505789 0 -1.88165e+06 647840 0 -1.94752e+06 801096 0 -2.01749e+06 968060 0 -2.08276e+06 1.14988e+06 0 -2.1268e+06 1.34166e+06 0 -2.12789e+06 1.51816e+06 0 -2.07978e+06 1.62088e+06 0 -2.0277e+06 1.57902e+06 0 -2.06231e+06 1.35091e+06 0 -2.27306e+06 997201 0 -2.92567e+06 -8.9407e-08 0 -1.70536e+06 0 0 -1.71237e+06 122825 0 -1.73253e+06 247567 0 -1.76554e+06 376218 0 -1.81074e+06 510914 0 -1.86687e+06 653995 0 -1.93152e+06 807933 0 -2.00006e+06 975003 0 -2.064e+06 1.15567e+06 0 -2.10804e+06 1.34447e+06 0 -2.11293e+06 1.51584e+06 0 -2.07645e+06 1.61542e+06 0 -2.03903e+06 1.57791e+06 0 -2.0972e+06 1.36021e+06 0 -2.30041e+06 1.05145e+06 0 -3.11388e+06 1.78814e-07 0 -1.69306e+06 0 0 -1.69997e+06 124143 0 -1.71984e+06 250186 0 -1.75234e+06 380095 0 -1.79683e+06 515953 0 -1.85202e+06 660046 0 -1.91547e+06 814626 0 -1.98269e+06 981829 0 -2.04541e+06 1.16131e+06 0 -2.08976e+06 1.34751e+06 0 -2.09822e+06 1.51409e+06 0 -2.07368e+06 1.6115e+06 0 -2.04799e+06 1.57865e+06 0 -2.13413e+06 1.36972e+06 0 -2.31298e+06 1.11424e+06 0 -3.33266e+06 -3.57628e-07 0 -1.68063e+06 0 0 -1.68743e+06 125443 0 -1.70701e+06 252765 0 -1.73903e+06 383915 0 -1.78282e+06 520907 0 -1.83707e+06 666002 0 -1.89938e+06 821173 0 -1.96537e+06 988568 0 -2.02696e+06 1.1668e+06 0 -2.07197e+06 1.35085e+06 0 -2.08357e+06 1.51281e+06 0 -2.07176e+06 1.60917e+06 0 -2.05371e+06 1.58111e+06 0 -2.17527e+06 1.37896e+06 0 -2.30529e+06 1.18682e+06 0 -3.59084e+06 3.57628e-07 0 -1.66806e+06 0 0 -1.67477e+06 126725 0 -1.69407e+06 255305 0 -1.7256e+06 387679 0 -1.7687e+06 525772 0 -1.82205e+06 671874 0 -1.88324e+06 827561 0 -1.94811e+06 995264 0 -2.00861e+06 1.17207e+06 0 -2.05472e+06 1.35461e+06 0 -2.06868e+06 1.51181e+06 0 -2.0712e+06 1.60855e+06 0 -2.05487e+06 1.5851e+06 0 -2.22379e+06 1.38734e+06 0 -2.26981e+06 1.27069e+06 0 -3.90008e+06 -2.38419e-07 0 </DataArray> 
</PointData> 
<Points> 
<DataArray type="Float32" NumberOfComponents="3"> 
0 0.035 0 0.00666667 0.035 0 0.0133333 0.035 0 0.02 0.035 0 0.0266667 0.035 0 0.0333333 0.035 0 0.04 0.035 0 0.0466667 0.035 0 0.0533333 0.035 0 0.06 0.035 0 0.0666667 0.035 0 0.0733333 0.035 0 0.08 0.035 0 0.0866667 0.035 0 0.0933333 0.035 0 0.1 0.035 0 0 0.0356667 0 0.00666667 0.0356667 0 0.0133333 0.0356667 0 0.02 0.0356667 0 0.0266667 0.0356667 0 0.0333333 0.0356667 0 0.04 0.0356667 0 0.0466667 0.0356667 0 0.0533333 0.0356667 0 0.06 0.0356667 0 0.0666667 0.0356667 0 0.0733333 0.0356667 0 0.08 0.0356667 0 0.0866667 0.0356667 0 0.0933333 0.0356667 0 0.1 0.0356667 0 0 0.0363333 0 0.00666667 0.0363333 0 0.0133333 0.0363333 0 0.02 0.0363333 0 0.0266667 0.0363333 0 0.0333333 0.0363333 0 0.04 0.0363333 0 0.0466667 0.0363333 0 0.0533333 0.0363333 0 0.06 0.0363333 0 0.0666667 0.0363333 0 0.0733333 0.0363333 0 0.08 0.0363333 0 0.0866667 0.0363333 0 0.0933333 0.0363333 0 0.1 0.0363333 0 0 0.037 0 0.00666667 0.037 0 0.0133333 0.037 0 0.02 0.037 0 0.0266667 0.037 0 0.0333333 0.037 0 0.04 0.037 0 0.0466667 0.037 0 0.0533333 0.037 0 0.06 0.037 0 0.0666667 0.037 0 0.0733333 0.037 0 0.08 0.037 0 0.0866667 0.037 0 0.0933333 0.037 0 0.1 0.037 0 0 0.0376667 0 0.00666667 0.0376667 0 0.0133333 0.0376667 0 0.02 0.0376667 0 0.0266667 0.0376667 0 0.0333333 0.0376667 0 0.04 0.0376667 0 0.0466667 0.0376667 0 0.0533333 0.0376667 0 0.06 0.0376667 0 0.0666667 0.0376667 0 0.0733333 0.0376667 0 0.08 0.0376667 0 0.0866667 0.0376667 0 0.0933333 0.0376667 0 0.1 0.0376667 0 0 0.0383333 0 0.00666667 0.0383333 0 0.0133333 0.0383333 0 0.02 0.0383333 0 0.0266667 0.0383333 0 0.0333333 0.0383333 0 0.04 0.0383333 0 0.0466667 0.0383333 0 0.0533333 0.0383333 0 0.06 0.0383333 0 0.0666667 0.0383333 0 0.0733333 0.0383333 0 0.08 0.0383333 0 0.0866667 0.0383333 0 0.0933333 0.0383333 0 0.1 0.0383333 0 0 0.039 0 0.00666667 0.039 0 0.0133333 0.039 0 0.02 0.039 0 0.0266667 0.039 0 0.0333333 0.039 0 0.04 0.039 0 0.0466667 0.039 0 0.0533333 0.039 0 0.06 0.039 0 0.0666667 0.039 0 0.0733333 0.039 0 0.08 0.039 0 0.0866667 0.039 0 0.0933333 0.039 0 0.1 0.039 0 0 0.0396667 0 0.00666667 0.0396667 0 0.0133333 0.0396667 0 0.02 0.0396667 0 0.0266667 0.0396667 0 0.0333333 0.0396667 0 0.04 0.0396667 0 0.0466667 0.0396667 0 0.0533333 0.0396667 0 0.06 0.0396667 0 0.0666667 0.0396667 0 0.0733333 0.0396667 0 0.08 0.0396667 0 0.0866667 0.0396667 0 0.0933333 0.0396667 0 0.1 0.0396667 0 0 0.0403333 0 0.00666667 0.0403333 0 0.0133333 0.0403333 0 0.02 0.0403333 0 0.0266667 0.0403333 0 0.0333333 0.0403333 0 0.04 0.0403333 0 0.0466667 0.0403333 0 0.0533333 0.0403333 0 0.06 0.0403333 0 0.0666667 0.0403333 0 0.0733333 0.0403333 0 0.08 0.0403333 0 0.0866667 0.0403333 0 0.0933333 0.0403333 0 0.1 0.0403333 0 0 0.041 0 0.00666667 0.041 0 0.0133333 0.041 0 0.02 0.041 0 0.0266667 0.041 0 0.0333333 0.041 0 0.04 0.041 0 0.0466667 0.041 0 0.0533333 0.041 0 0.06 0.041 0 0.0666667 0.041 0 0.0733333 0.041 0 0.08 0.041 0 0.0866667 0.041 0 0.0933333 0.041 0 0.1 0.041 0 0 0.0416667 0 0.00666667 0.0416667 0 0.0133333 0.0416667 0 0.02 0.0416667 0 0.0266667 0.0416667 0 0.0333333 0.0416667 0 0.04 0.0416667 0 0.0466667 0.0416667 0 0.0533333 0.0416667 0 0.06 0.0416667 0 0.0666667 0.0416667 0 0.0733333 0.0416667 0 0.08 0.0416667 0 0.0866667 0.0416667 0 0.0933333 0.0416667 0 0.1 0.0416667 0 0 0.0423333 0 0.00666667 0.0423333 0 0.0133333 0.0423333 0 0.02 0.0423333 0 0.0266667 0.0423333 0 0.0333333 0.0423333 0 0.04 0.0423333 0 0.0466667 0.0423333 0 0.0533333 0.0423333 0 0.06 0.0423333 0 0.0666667 0.0423333 0 0.0733333 0.0423333 0 0.08 0.0423333 0 0.0866667 0.0423333 0 0.0933333 0.0423333 0 0.1 0.0423333 0 0 0.043 0 0.00666667 0.043 0 0.0133333 0.043 0 0.02 0.043 0 0.0266667 0.043 0 0.0333333 0.043 0 0.04 0.043 0 0.0466667 0.043 0 0.0533333 0.043 0 0.06 0.043 0 0.0666667 0.043 0 0.0733333 0.043 0 0.08 0.043 0 0.0866667 0.043 0 0.0933333 0.043 0 0.1 0.043 0 0 0.0436667 0 0.00666667 0.0436667 0 0.0133333 0.0436667 0 0.02 0.0436667 0 0.0266667 0.0436667 0 0.0333333 0.0436667 0 0.04 0.0436667 0 0.0466667 0.0436667 0 0.0533333 0.0436667 0 0.06 0.0436667 0 0.0666667 0.0436667 0 0.0733333 0.0436667 0 0.08 0.0436667 0 0.0866667 0.0436667 0 0.0933333 0.0436667 0 0.1 0.0436667 0 0 0.0443333 0 0.00666667 0.0443333 0 0.0133333 0.0443333 0 0.02 0.0443333 0 0.0266667 0.0443333 0 0.0333333 0.0443333 0 0.04 0.0443333 0 0.0466667 0.0443333 0 0.0533333 0.0443333 0 0.06 0.0443333 0 0.0666667 0.0443333 0 0.0733333 0.0443333 0 0.08 0.0443333 0 0.0866667 0.0443333 0 0.0933333 0.0443333 0 0.1 0.0443333 0 0 0.045 0 0.00666667 0.045 0 0.0133333 0.045 0 0.02 0.045 0 0.0266667 0.045 0 0.0333333 0.045 0 0.04 0.045 0 0.0466667 0.045 0 0.0533333 0.045 0 0.06 0.045 0 0.0666667 0.045 0 0.0733333 0.045 0 0.08 0.045 0 0.0866667 0.045 0 0.0933333 0.045 0 0.1 0.045 0 
</DataArray>
</Points> 
</Piece> 
</StructuredGrid> 
</VTKFile> 
