<?xml version="1.0"?> 
<VTKFile type="StructuredGrid" version="0.1"> 
<StructuredGrid WholeExtent="0 15 0 15 0 0"> 
<Piece Extent="0 15 0 15 0 0"> 
<PointData>
<DataArray type="Float32" Name="|E|" format="ascii" NumberOfComponents="3"> 
1.67512e+06 -668166 0 1.93513e+06 -292676 0 1.94184e+06 31226.3 0 1.78448e+06 212807 0 1.58609e+06 280811 0 1.39035e+06 289069 0 1.21243e+06 269324 0 1.05701e+06 238201 0 924549 203666 0 814058 169370 0 723990 136780 0 652738 106304 0 598844 77819.8 0 561116 50950.4 0 538674 25195.7 0 530972 0 0 1.72655e+06 -688679 0 1.9797e+06 -291929 0 1.96404e+06 50739.1 0 1.78944e+06 235816 0 1.58315e+06 302041 0 1.38425e+06 307689 0 1.2056e+06 285341 0 1.05048e+06 251807 0 918717 215066 0 809014 178757 0 719681 144327 0 649052 112160 0 595647 82104.5 0 558268 53755.8 0 536035 26583 0 528405 0 0 1.77977e+06 -709910 0 2.02662e+06 -288550 0 1.98634e+06 72876.1 0 1.79389e+06 260056 0 1.57979e+06 323756 0 1.37782e+06 326443 0 1.19849e+06 301345 0 1.04371e+06 265340 0 912673 226378 0 803776 188060 0 715194 151802 0 645200 117958 0 592293 86346.7 0 555269 56533.2 0 533250 27956.5 0 525694 0 0 1.83546e+06 -732120 0 2.07599e+06 -282267 0 2.0085e+06 97759 0 1.79774e+06 285496 0 1.57598e+06 345932 0 1.37102e+06 345318 0 1.1911e+06 317327 0 1.0367e+06 278796 0 906415 237600 0 798345 197277 0 710529 159203 0 641183 123697 0 588783 90545.3 0 552122 59282.1 0 530319 29315.8 0 522838 0 0 1.89435e+06 -755612 0 2.12794e+06 -272744 0 2.03024e+06 125501 0 1.80087e+06 312100 0 1.57166e+06 368545 0 1.36384e+06 364297 0 1.18342e+06 333280 0 1.02945e+06 292170 0 899943 248728 0 792721 206405 0 705688 166529 0 637001 129375 0 585118 94699.5 0 548825 62001.9 0 527244 30660.8 0 519839 0 0 1.95735e+06 -780743 0 2.18253e+06 -259548 0 2.05125e+06 156202 0 1.8032e+06 339815 0 1.56678e+06 391566 0 1.35625e+06 383364 0 1.17543e+06 349194 0 1.02194e+06 305456 0 893257 259760 0 786905 215443 0 700670 173777 0 632655 134993 0 581299 98808.4 0 545381 64691.8 0 524025 31991 0 516698 0 0 2.02555e+06 -807943 0 2.23977e+06 -242142 0 2.07116e+06 189935 0 1.80464e+06 368581 0 1.5613e+06 414962 0 1.34823e+06 402501 0 1.16714e+06 365061 0 1.01418e+06 318650 0 886355 270692 0 780896 224388 0 695477 180948 0 628147 140548 0 577326 102871 0 541789 67351.5 0 520663 33306.2 0 513414 0 0 2.10027e+06 -837747 0 2.29956e+06 -219857 0 2.08957e+06 226738 0 1.80514e+06 398324 0 1.55516e+06 438697 0 1.33978e+06 421689 0 1.15853e+06 380870 0 1.00617e+06 331747 0 879237 281521 0 774696 233238 0 690109 188038 0 623477 146039 0 573200 106887 0 538051 69980.2 0 517158 34606.2 0 509990 0 0 2.18319e+06 -870824 0 2.36169e+06 -191867 0 2.10606e+06 266592 0 1.80463e+06 428966 0 1.54832e+06 462729 0 1.33088e+06 440909 0 1.1496e+06 396609 0 997902 344741 0 871904 292244 0 768304 241991 0 684567 195046 0 618645 151465 0 568923 110854 0 534168 72577.4 0 513511 35890.5 0 506425 0 0 2.27647e+06 -908028 0 2.42567e+06 -157154 0 2.12017e+06 309402 0 1.80311e+06 460423 0 1.5407e+06 487014 0 1.32153e+06 460143 0 1.14034e+06 412263 0 989376 357628 0 864354 302855 0 761722 250645 0 678853 201970 0 613654 156825 0 564494 114773 0 530141 75142.5 0 509724 37159 0 502721 0 0 2.38285e+06 -950462 0 2.49072e+06 -114464 0 2.13148e+06 354966 0 1.80056e+06 492615 0 1.53227e+06 511499 0 1.31174e+06 479372 0 1.13075e+06 427821 0 980593 370403 0 856588 313350 0 754950 259197 0 672968 208808 0 608504 162117 0 559916 118642 0 525970 77674.9 0 505797 38411.3 0 498879 0 0 2.50594e+06 -999561 0 2.55556e+06 -62255.7 0 2.13969e+06 402944 0 1.79694e+06 525473 0 1.52295e+06 536130 0 1.30149e+06 498577 0 1.1208e+06 443266 0 971554 383063 0 848605 323724 0 747990 267646 0 666911 215559 0 603196 167340 0 555189 122460 0 521656 80174.1 0 501731 39647.1 0 494898 0 0 2.65047e+06 -1.05721e+06 0 2.61822e+06 1365.65 0 2.14463e+06 452811 0 1.79221e+06 558945 0 1.51273e+06 560848 0 1.2908e+06 517733 0 1.1105e+06 458587 0 962259 395601 0 840406 333974 0 740843 275990 0 660686 222220 0 597731 172494 0 550315 126226 0 517201 82639.5 0 497527 40866.2 0 490781 0 0 2.82269e+06 -1.12591e+06 0 2.67572e+06 78730.8 0 2.14653e+06 503807 0 1.7862e+06 593010 0 1.5016e+06 585602 0 1.27966e+06 536803 0 1.09985e+06 473782 0 952710 408005 0 831991 344096 0 733509 284225 0 654292 228790 0 592111 177577 0 545294 129940 0 512606 85070.6 0 493187 42068.2 0 486529 0 0 3.03095e+06 -1.20897e+06 0 2.72368e+06 172710 0 2.14618e+06 554879 0 1.77852e+06 627689 0 1.48967e+06 610352 0 1.26802e+06 555729 0 1.08884e+06 488864 0 942904 420254 0 823361 354095 0 725991 292345 0 647731 235268 0 586337 182587 0 540128 133600 0 507871 87466.7 0 488710 43252.9 0 482142 0 0 3.28645e+06 -1.31089e+06 0 2.75565e+06 286841 0 2.14538e+06 604585 0 1.76838e+06 663018 0 1.47722e+06 635125 0 1.25579e+06 574376 0 1.07753e+06 503900 0 932829 432294 0 814522 363992 0 718288 300336 0 641005 241659 0 580411 187520 0 534818 137208 0 502998 89826.7 0 484098 44420.3 0 477621 0 0 </DataArray> 
</PointData> 
<Points> 
<DataArray type="Float32" NumberOfComponents="3"> 
0.1947 0.02 0 0.206587 0.02 0 0.218473 0.02 0 0.23036 0.02 0 0.242247 0.02 0 0.254133 0.02 0 0.26602 0.02 0 0.277907 0.02 0 0.289793 0.02 0 0.30168 0.02 0 0.313567 0.02 0 0.325453 0.02 0 0.33734 0.02 0 0.349227 0.02 0 0.361113 0.02 0 0.373 0.02 0 0.195173 0.0211867 0 0.207028 0.0211867 0 0.218884 0.0211867 0 0.230739 0.0211867 0 0.242594 0.0211867 0 0.254449 0.0211867 0 0.266304 0.0211867 0 0.278159 0.0211867 0 0.290014 0.0211867 0 0.301869 0.0211867 0 0.313724 0.0211867 0 0.32558 0.0211867 0 0.337435 0.0211867 0 0.34929 0.0211867 0 0.361145 0.0211867 0 0.373 0.0211867 0 0.195647 0.0223733 0 0.20747 0.0223733 0 0.219294 0.0223733 0 0.231117 0.0223733 0 0.242941 0.0223733 0 0.254764 0.0223733 0 0.266588 0.0223733 0 0.278412 0.0223733 0 0.290235 0.0223733 0 0.302059 0.0223733 0 0.313882 0.0223733 0 0.325706 0.0223733 0 0.337529 0.0223733 0 0.349353 0.0223733 0 0.361176 0.0223733 0 0.373 0.0223733 0 0.19612 0.02356 0 0.207912 0.02356 0 0.219704 0.02356 0 0.231496 0.02356 0 0.243288 0.02356 0 0.25508 0.02356 0 0.266872 0.02356 0 0.278664 0.02356 0 0.290456 0.02356 0 0.302248 0.02356 0 0.31404 0.02356 0 0.325832 0.02356 0 0.337624 0.02356 0 0.349416 0.02356 0 0.361208 0.02356 0 0.373 0.02356 0 0.196593 0.0247467 0 0.208354 0.0247467 0 0.220114 0.0247467 0 0.231875 0.0247467 0 0.243635 0.0247467 0 0.255396 0.0247467 0 0.267156 0.0247467 0 0.278916 0.0247467 0 0.290677 0.0247467 0 0.302437 0.0247467 0 0.314198 0.0247467 0 0.325958 0.0247467 0 0.337719 0.0247467 0 0.349479 0.0247467 0 0.36124 0.0247467 0 0.373 0.0247467 0 0.197067 0.0259333 0 0.208796 0.0259333 0 0.220524 0.0259333 0 0.232253 0.0259333 0 0.243982 0.0259333 0 0.255711 0.0259333 0 0.26744 0.0259333 0 0.279169 0.0259333 0 0.290898 0.0259333 0 0.302627 0.0259333 0 0.314356 0.0259333 0 0.326084 0.0259333 0 0.337813 0.0259333 0 0.349542 0.0259333 0 0.361271 0.0259333 0 0.373 0.0259333 0 0.19754 0.02712 0 0.209237 0.02712 0 0.220935 0.02712 0 0.232632 0.02712 0 0.244329 0.02712 0 0.256027 0.02712 0 0.267724 0.02712 0 0.279421 0.02712 0 0.291119 0.02712 0 0.302816 0.02712 0 0.314513 0.02712 0 0.326211 0.02712 0 0.337908 0.02712 0 0.349605 0.02712 0 0.361303 0.02712 0 0.373 0.02712 0 0.198013 0.0283067 0 0.209679 0.0283067 0 0.221345 0.0283067 0 0.233011 0.0283067 0 0.244676 0.0283067 0 0.256342 0.0283067 0 0.268008 0.0283067 0 0.279674 0.0283067 0 0.29134 0.0283067 0 0.303005 0.0283067 0 0.314671 0.0283067 0 0.326337 0.0283067 0 0.338003 0.0283067 0 0.349668 0.0283067 0 0.361334 0.0283067 0 0.373 0.0283067 0 0.198487 0.0294933 0 0.210121 0.0294933 0 0.221755 0.0294933 0 0.233389 0.0294933 0 0.245024 0.0294933 0 0.256658 0.0294933 0 0.268292 0.0294933 0 0.279926 0.0294933 0 0.29156 0.0294933 0 0.303195 0.0294933 0 0.314829 0.0294933 0 0.326463 0.0294933 0 0.338097 0.0294933 0 0.349732 0.0294933 0 0.361366 0.0294933 0 0.373 0.0294933 0 0.19896 0.03068 0 0.210563 0.03068 0 0.222165 0.03068 0 0.233768 0.03068 0 0.245371 0.03068 0 0.256973 0.03068 0 0.268576 0.03068 0 0.280179 0.03068 0 0.291781 0.03068 0 0.303384 0.03068 0 0.314987 0.03068 0 0.326589 0.03068 0 0.338192 0.03068 0 0.349795 0.03068 0 0.361397 0.03068 0 0.373 0.03068 0 0.199433 0.0318667 0 0.211004 0.0318667 0 0.222576 0.0318667 0 0.234147 0.0318667 0 0.245718 0.0318667 0 0.257289 0.0318667 0 0.26886 0.0318667 0 0.280431 0.0318667 0 0.292002 0.0318667 0 0.303573 0.0318667 0 0.315144 0.0318667 0 0.326716 0.0318667 0 0.338287 0.0318667 0 0.349858 0.0318667 0 0.361429 0.0318667 0 0.373 0.0318667 0 0.199907 0.0330533 0 0.211446 0.0330533 0 0.222986 0.0330533 0 0.234525 0.0330533 0 0.246065 0.0330533 0 0.257604 0.0330533 0 0.269144 0.0330533 0 0.280684 0.0330533 0 0.292223 0.0330533 0 0.303763 0.0330533 0 0.315302 0.0330533 0 0.326842 0.0330533 0 0.338381 0.0330533 0 0.349921 0.0330533 0 0.36146 0.0330533 0 0.373 0.0330533 0 0.20038 0.03424 0 0.211888 0.03424 0 0.223396 0.03424 0 0.234904 0.03424 0 0.246412 0.03424 0 0.25792 0.03424 0 0.269428 0.03424 0 0.280936 0.03424 0 0.292444 0.03424 0 0.303952 0.03424 0 0.31546 0.03424 0 0.326968 0.03424 0 0.338476 0.03424 0 0.349984 0.03424 0 0.361492 0.03424 0 0.373 0.03424 0 0.200853 0.0354267 0 0.21233 0.0354267 0 0.223806 0.0354267 0 0.235283 0.0354267 0 0.246759 0.0354267 0 0.258236 0.0354267 0 0.269712 0.0354267 0 0.281188 0.0354267 0 0.292665 0.0354267 0 0.304141 0.0354267 0 0.315618 0.0354267 0 0.327094 0.0354267 0 0.338571 0.0354267 0 0.350047 0.0354267 0 0.361524 0.0354267 0 0.373 0.0354267 0 0.201327 0.0366133 0 0.212772 0.0366133 0 0.224216 0.0366133 0 0.235661 0.0366133 0 0.247106 0.0366133 0 0.258551 0.0366133 0 0.269996 0.0366133 0 0.281441 0.0366133 0 0.292886 0.0366133 0 0.304331 0.0366133 0 0.315776 0.0366133 0 0.32722 0.0366133 0 0.338665 0.0366133 0 0.35011 0.0366133 0 0.361555 0.0366133 0 0.373 0.0366133 0 0.2018 0.0378 0 0.213213 0.0378 0 0.224627 0.0378 0 0.23604 0.0378 0 0.247453 0.0378 0 0.258867 0.0378 0 0.27028 0.0378 0 0.281693 0.0378 0 0.293107 0.0378 0 0.30452 0.0378 0 0.315933 0.0378 0 0.327347 0.0378 0 0.33876 0.0378 0 0.350173 0.0378 0 0.361587 0.0378 0 0.373 0.0378 0 
</DataArray>
</Points> 
</Piece> 
</StructuredGrid> 
</VTKFile> 
