<?xml version="1.0"?> 
<VTKFile type="StructuredGrid" version="0.1"> 
<StructuredGrid WholeExtent="0 15 0 15 0 0"> 
<Piece Extent="0 15 0 15 0 0"> 
<PointData>
<DataArray type="Float32" Name="|E|" format="ascii" NumberOfComponents="3"> 
-1.66806e+06 0 0 -1.67477e+06 126741 0 -1.69407e+06 255347 0 -1.7256e+06 387706 0 -1.7687e+06 525882 0 -1.82205e+06 671809 0 -1.88324e+06 827909 0 -1.94811e+06 994679 0 -2.00861e+06 1.17339e+06 0 -2.05472e+06 1.35217e+06 0 -2.06868e+06 1.51562e+06 0 -2.0712e+06 1.60529e+06 0 -2.05487e+06 1.57693e+06 0 -2.22379e+06 1.45717e+06 0 -2.26981e+06 869973 0 -3.90008e+06 4.47808e+06 0 -1.61851e+06 0 0 -1.62736e+06 131265 0 -1.64819e+06 263860 0 -1.68074e+06 399617 0 -1.72442e+06 540425 0 -1.77803e+06 688198 0 -1.83938e+06 844717 0 -1.90458e+06 1.01092e+06 0 -1.96707e+06 1.18569e+06 0 -2.01694e+06 1.36079e+06 0 -2.04517e+06 1.51545e+06 0 -2.05712e+06 1.60773e+06 0 -2.08704e+06 1.58713e+06 0 -2.20787e+06 1.45711e+06 0 -2.43975e+06 1.07223e+06 0 -3.07413e+06 2.94687e+06 0 -1.56718e+06 0 0 -1.57834e+06 135550 0 -1.6009e+06 271945 0 -1.63469e+06 410933 0 -1.6792e+06 554290 0 -1.73337e+06 703779 0 -1.79523e+06 860899 0 -1.86129e+06 1.02636e+06 0 -1.92598e+06 1.1984e+06 0 -1.98084e+06 1.36943e+06 0 -2.02045e+06 1.5191e+06 0 -2.04722e+06 1.61177e+06 0 -2.10443e+06 1.60055e+06 0 -2.22079e+06 1.47216e+06 0 -2.51921e+06 1.1818e+06 0 -2.66841e+06 2.17507e+06 0 -1.51416e+06 0 0 -1.5278e+06 139608 0 -1.55228e+06 279620 0 -1.58751e+06 421696 0 -1.63309e+06 567507 0 -1.68809e+06 718663 0 -1.75079e+06 876457 0 -1.81812e+06 1.04133e+06 0 -1.88534e+06 1.21123e+06 0 -1.94563e+06 1.37882e+06 0 -1.99548e+06 1.52525e+06 0 -2.03801e+06 1.61856e+06 0 -2.11506e+06 1.61654e+06 0 -2.24322e+06 1.49489e+06 0 -2.56171e+06 1.25134e+06 0 -2.47519e+06 1.68957e+06 0 -1.45954e+06 0 0 -1.47583e+06 143450 0 -1.5024e+06 286904 0 -1.53927e+06 431937 0 -1.58614e+06 580116 0 -1.64223e+06 732915 0 -1.70604e+06 891453 0 -1.77498e+06 1.05594e+06 0 -1.84504e+06 1.22421e+06 0 -1.91091e+06 1.38911e+06 0 -1.97038e+06 1.53349e+06 0 -2.02816e+06 1.62813e+06 0 -2.12189e+06 1.63492e+06 0 -2.26769e+06 1.52276e+06 0 -2.59001e+06 1.29902e+06 0 -2.40497e+06 1.36413e+06 0 -1.40342e+06 0 0 -1.4225e+06 147084 0 -1.45133e+06 293816 0 -1.49002e+06 441684 0 -1.53837e+06 592158 0 -1.59578e+06 746590 0 -1.66098e+06 905951 0 -1.7318e+06 1.07027e+06 0 -1.80494e+06 1.23735e+06 0 -1.87639e+06 1.40032e+06 0 -1.94506e+06 1.54355e+06 0 -2.0171e+06 1.6403e+06 0 -2.12606e+06 1.6556e+06 0 -2.291e+06 1.55429e+06 0 -2.61477e+06 1.33623e+06 0 -2.41176e+06 1.1295e+06 0 -1.34588e+06 0 0 -1.36787e+06 150522 0 -1.39911e+06 300374 0 -1.43979e+06 450963 0 -1.48982e+06 603669 0 -1.54876e+06 759732 0 -1.61558e+06 920002 0 -1.6885e+06 1.08439e+06 0 -1.7649e+06 1.25069e+06 0 -1.84187e+06 1.41239e+06 0 -1.91932e+06 1.55525e+06 0 -2.00457e+06 1.6548e+06 0 -2.12794e+06 1.67852e+06 0 -2.31188e+06 1.58876e+06 0 -2.64058e+06 1.36957e+06 0 -2.47017e+06 955386 0 -1.28701e+06 0 0 -1.31204e+06 153771 0 -1.34582e+06 306594 0 -1.38864e+06 459799 0 -1.44052e+06 614680 0 -1.50117e+06 772381 0 -1.5698e+06 933649 0 -1.645e+06 1.09831e+06 0 -1.72479e+06 1.26422e+06 0 -1.80717e+06 1.42525e+06 0 -1.89299e+06 1.56843e+06 0 -1.99042e+06 1.67137e+06 0 -2.12758e+06 1.70355e+06 0 -2.32984e+06 1.62579e+06 0 -2.66895e+06 1.40343e+06 0 -2.56516e+06 825660 0 -1.22688e+06 0 0 -1.25505e+06 156839 0 -1.2915e+06 312492 0 -1.3366e+06 468213 0 -1.39049e+06 625217 0 -1.45301e+06 784566 0 -1.52362e+06 946923 0 -1.60126e+06 1.11207e+06 0 -1.68449e+06 1.27793e+06 0 -1.77214e+06 1.43882e+06 0 -1.86589e+06 1.58291e+06 0 -1.97458e+06 1.68974e+06 0 -2.12489e+06 1.73055e+06 0 -2.3447e+06 1.66522e+06 0 -2.69973e+06 1.44072e+06 0 -2.68687e+06 732836 0 -1.16557e+06 0 0 -1.19698e+06 159734 0 -1.23621e+06 318079 0 -1.28371e+06 476221 0 -1.33974e+06 635303 0 -1.40428e+06 796310 0 -1.47701e+06 959843 0 -1.55719e+06 1.12566e+06 0 -1.6439e+06 1.2918e+06 0 -1.73667e+06 1.45301e+06 0 -1.8379e+06 1.59852e+06 0 -1.95698e+06 1.70966e+06 0 -2.11975e+06 1.75934e+06 0 -2.35634e+06 1.70691e+06 0 -2.73192e+06 1.48331e+06 0 -2.82796e+06 673832 0 -1.10315e+06 0 0 -1.13788e+06 162462 0 -1.17999e+06 323368 0 -1.23001e+06 483840 0 -1.2883e+06 644954 0 -1.35499e+06 807631 0 -1.42995e+06 972422 0 -1.51276e+06 1.13908e+06 0 -1.60293e+06 1.30578e+06 0 -1.70064e+06 1.46771e+06 0 -1.80891e+06 1.61509e+06 0 -1.93756e+06 1.7309e+06 0 -2.11206e+06 1.78971e+06 0 -2.36464e+06 1.75078e+06 0 -2.76406e+06 1.53232e+06 0 -2.98214e+06 647952 0 -1.03969e+06 0 0 -1.07782e+06 165027 0 -1.1229e+06 328366 0 -1.17554e+06 491081 0 -1.23619e+06 654184 0 -1.30513e+06 818541 0 -1.38241e+06 984663 0 -1.46791e+06 1.15232e+06 0 -1.56153e+06 1.31983e+06 0 -1.66397e+06 1.48283e+06 0 -1.77883e+06 1.63244e+06 0 -1.9163e+06 1.75323e+06 0 -2.10172e+06 1.82142e+06 0 -2.36946e+06 1.79668e+06 0 -2.79458e+06 1.58826e+06 0 -3.1434e+06 655486 0 -975255 0 0 -1.01685e+06 167433 0 -1.06498e+06 333082 0 -1.12032e+06 497953 0 -1.18343e+06 663002 0 -1.25471e+06 829046 0 -1.33439e+06 996567 0 -1.42261e+06 1.16536e+06 0 -1.51962e+06 1.33391e+06 0 -1.62659e+06 1.49825e+06 0 -1.74761e+06 1.65042e+06 0 -1.89317e+06 1.77643e+06 0 -2.08865e+06 1.85424e+06 0 -2.37064e+06 1.84441e+06 0 -2.82192e+06 1.65115e+06 0 -3.30575e+06 696783 0 -909916 0 0 -955034 169684 0 -1.00627e+06 337521 0 -1.06439e+06 504463 0 -1.13004e+06 671416 0 -1.20373e+06 839149 0 -1.28588e+06 1.00812e+06 0 -1.37683e+06 1.17818e+06 0 -1.47717e+06 1.34794e+06 0 -1.58846e+06 1.51389e+06 0 -1.71521e+06 1.66886e+06 0 -1.86816e+06 1.80027e+06 0 -2.07281e+06 1.88789e+06 0 -2.36802e+06 1.89371e+06 0 -2.84463e+06 1.72059e+06 0 -3.46322e+06 771516 0 -843738 0 0 -892423 171782 0 -946826 341688 0 -1.00779e+06 510618 0 -1.07603e+06 679428 0 -1.1522e+06 848849 0 -1.23685e+06 1.01933e+06 0 -1.33055e+06 1.19074e+06 0 -1.43415e+06 1.36189e+06 0 -1.54955e+06 1.52962e+06 0 -1.68161e+06 1.68761e+06 0 -1.84128e+06 1.82455e+06 0 -2.05418e+06 1.92213e+06 0 -2.36144e+06 1.94424e+06 0 -2.86148e+06 1.79588e+06 0 -3.61006e+06 878382 0 -776784 0 0 -829074 173730 0 -886688 345585 0 -950541 516419 0 -1.02144e+06 687040 0 -1.10014e+06 858143 0 -1.18733e+06 1.03016e+06 0 -1.28376e+06 1.20302e+06 0 -1.39053e+06 1.37568e+06 0 -1.50984e+06 1.54536e+06 0 -1.64682e+06 1.70651e+06 0 -1.81257e+06 1.84907e+06 0 -2.03279e+06 1.95669e+06 0 -2.35082e+06 1.99561e+06 0 -2.87146e+06 1.87606e+06 0 -3.74134e+06 1.01412e+06 0 </DataArray> 
</PointData> 
<Points> 
<DataArray type="Float32" NumberOfComponents="3"> 
0 0.045 0 0.00666667 0.045 0 0.0133333 0.045 0 0.02 0.045 0 0.0266667 0.045 0 0.0333333 0.045 0 0.04 0.045 0 0.0466667 0.045 0 0.0533333 0.045 0 0.06 0.045 0 0.0666667 0.045 0 0.0733333 0.045 0 0.08 0.045 0 0.0866667 0.045 0 0.0933333 0.045 0 0.1 0.045 0 0 0.0475667 0 0.00666667 0.04744 0 0.0133333 0.0473133 0 0.02 0.0471867 0 0.0266667 0.04706 0 0.0333333 0.0469333 0 0.04 0.0468067 0 0.0466667 0.04668 0 0.0533333 0.0465533 0 0.06 0.0464267 0 0.0666667 0.0463 0 0.0733333 0.0461733 0 0.08 0.0460467 0 0.0866667 0.04592 0 0.0933333 0.0457933 0 0.1 0.0456667 0 0 0.0501333 0 0.00666667 0.04988 0 0.0133333 0.0496267 0 0.02 0.0493733 0 0.0266667 0.04912 0 0.0333333 0.0488667 0 0.04 0.0486133 0 0.0466667 0.04836 0 0.0533333 0.0481067 0 0.06 0.0478533 0 0.0666667 0.0476 0 0.0733333 0.0473467 0 0.08 0.0470933 0 0.0866667 0.04684 0 0.0933333 0.0465867 0 0.1 0.0463333 0 0 0.0527 0 0.00666667 0.05232 0 0.0133333 0.05194 0 0.02 0.05156 0 0.0266667 0.05118 0 0.0333333 0.0508 0 0.04 0.05042 0 0.0466667 0.05004 0 0.0533333 0.04966 0 0.06 0.04928 0 0.0666667 0.0489 0 0.0733333 0.04852 0 0.08 0.04814 0 0.0866667 0.04776 0 0.0933333 0.04738 0 0.1 0.047 0 0 0.0552667 0 0.00666667 0.05476 0 0.0133333 0.0542533 0 0.02 0.0537467 0 0.0266667 0.05324 0 0.0333333 0.0527333 0 0.04 0.0522267 0 0.0466667 0.05172 0 0.0533333 0.0512133 0 0.06 0.0507067 0 0.0666667 0.0502 0 0.0733333 0.0496933 0 0.08 0.0491867 0 0.0866667 0.04868 0 0.0933333 0.0481733 0 0.1 0.0476667 0 0 0.0578333 0 0.00666667 0.0572 0 0.0133333 0.0565667 0 0.02 0.0559333 0 0.0266667 0.0553 0 0.0333333 0.0546667 0 0.04 0.0540333 0 0.0466667 0.0534 0 0.0533333 0.0527667 0 0.06 0.0521333 0 0.0666667 0.0515 0 0.0733333 0.0508667 0 0.08 0.0502333 0 0.0866667 0.0496 0 0.0933333 0.0489667 0 0.1 0.0483333 0 0 0.0604 0 0.00666667 0.05964 0 0.0133333 0.05888 0 0.02 0.05812 0 0.0266667 0.05736 0 0.0333333 0.0566 0 0.04 0.05584 0 0.0466667 0.05508 0 0.0533333 0.05432 0 0.06 0.05356 0 0.0666667 0.0528 0 0.0733333 0.05204 0 0.08 0.05128 0 0.0866667 0.05052 0 0.0933333 0.04976 0 0.1 0.049 0 0 0.0629667 0 0.00666667 0.06208 0 0.0133333 0.0611933 0 0.02 0.0603067 0 0.0266667 0.05942 0 0.0333333 0.0585333 0 0.04 0.0576467 0 0.0466667 0.05676 0 0.0533333 0.0558733 0 0.06 0.0549867 0 0.0666667 0.0541 0 0.0733333 0.0532133 0 0.08 0.0523267 0 0.0866667 0.05144 0 0.0933333 0.0505533 0 0.1 0.0496667 0 0 0.0655333 0 0.00666667 0.06452 0 0.0133333 0.0635067 0 0.02 0.0624933 0 0.0266667 0.06148 0 0.0333333 0.0604667 0 0.04 0.0594533 0 0.0466667 0.05844 0 0.0533333 0.0574267 0 0.06 0.0564133 0 0.0666667 0.0554 0 0.0733333 0.0543867 0 0.08 0.0533733 0 0.0866667 0.05236 0 0.0933333 0.0513467 0 0.1 0.0503333 0 0 0.0681 0 0.00666667 0.06696 0 0.0133333 0.06582 0 0.02 0.06468 0 0.0266667 0.06354 0 0.0333333 0.0624 0 0.04 0.06126 0 0.0466667 0.06012 0 0.0533333 0.05898 0 0.06 0.05784 0 0.0666667 0.0567 0 0.0733333 0.05556 0 0.08 0.05442 0 0.0866667 0.05328 0 0.0933333 0.05214 0 0.1 0.051 0 0 0.0706667 0 0.00666667 0.0694 0 0.0133333 0.0681333 0 0.02 0.0668667 0 0.0266667 0.0656 0 0.0333333 0.0643333 0 0.04 0.0630667 0 0.0466667 0.0618 0 0.0533333 0.0605333 0 0.06 0.0592667 0 0.0666667 0.058 0 0.0733333 0.0567333 0 0.08 0.0554667 0 0.0866667 0.0542 0 0.0933333 0.0529333 0 0.1 0.0516667 0 0 0.0732333 0 0.00666667 0.07184 0 0.0133333 0.0704467 0 0.02 0.0690533 0 0.0266667 0.06766 0 0.0333333 0.0662667 0 0.04 0.0648733 0 0.0466667 0.06348 0 0.0533333 0.0620867 0 0.06 0.0606933 0 0.0666667 0.0593 0 0.0733333 0.0579067 0 0.08 0.0565133 0 0.0866667 0.05512 0 0.0933333 0.0537267 0 0.1 0.0523333 0 0 0.0758 0 0.00666667 0.07428 0 0.0133333 0.07276 0 0.02 0.07124 0 0.0266667 0.06972 0 0.0333333 0.0682 0 0.04 0.06668 0 0.0466667 0.06516 0 0.0533333 0.06364 0 0.06 0.06212 0 0.0666667 0.0606 0 0.0733333 0.05908 0 0.08 0.05756 0 0.0866667 0.05604 0 0.0933333 0.05452 0 0.1 0.053 0 0 0.0783667 0 0.00666667 0.07672 0 0.0133333 0.0750733 0 0.02 0.0734267 0 0.0266667 0.07178 0 0.0333333 0.0701333 0 0.04 0.0684867 0 0.0466667 0.06684 0 0.0533333 0.0651933 0 0.06 0.0635467 0 0.0666667 0.0619 0 0.0733333 0.0602533 0 0.08 0.0586067 0 0.0866667 0.05696 0 0.0933333 0.0553133 0 0.1 0.0536667 0 0 0.0809333 0 0.00666667 0.07916 0 0.0133333 0.0773867 0 0.02 0.0756133 0 0.0266667 0.07384 0 0.0333333 0.0720667 0 0.04 0.0702933 0 0.0466667 0.06852 0 0.0533333 0.0667467 0 0.06 0.0649733 0 0.0666667 0.0632 0 0.0733333 0.0614267 0 0.08 0.0596533 0 0.0866667 0.05788 0 0.0933333 0.0561067 0 0.1 0.0543333 0 0 0.0835 0 0.00666667 0.0816 0 0.0133333 0.0797 0 0.02 0.0778 0 0.0266667 0.0759 0 0.0333333 0.074 0 0.04 0.0721 0 0.0466667 0.0702 0 0.0533333 0.0683 0 0.06 0.0664 0 0.0666667 0.0645 0 0.0733333 0.0626 0 0.08 0.0607 0 0.0866667 0.0588 0 0.0933333 0.0569 0 0.1 0.055 0 
</DataArray>
</Points> 
</Piece> 
</StructuredGrid> 
</VTKFile> 
