<?xml version="1.0"?> 
<VTKFile type="StructuredGrid" version="0.1"> 
<StructuredGrid WholeExtent="0 15 0 15 0 0"> 
<Piece Extent="0 15 0 15 0 0"> 
<PointData>
<DataArray type="Float32" Name="|E|" format="ascii" NumberOfComponents="3"> 
-2.08288e+06 168803 0 -2.11529e+06 213355 0 -2.15489e+06 259612 0 -2.20217e+06 308509 0 -2.25756e+06 360692 0 -2.32165e+06 416786 0 -2.39516e+06 477786 0 -2.47903e+06 545345 0 -2.57509e+06 621731 0 -2.68657e+06 712855 0 -2.81703e+06 821166 0 -2.98527e+06 902266 0 -3.19931e+06 1.12477e+06 0 -3.44944e+06 1.65723e+06 0 -4.39289e+06 -1.14842e+06 0 -7.14589e+06 2.26085e+07 0 -2.11989e+06 239545 0 -2.15955e+06 286274 0 -2.20605e+06 335453 0 -2.25978e+06 387849 0 -2.32122e+06 444150 0 -2.39092e+06 505278 0 -2.46961e+06 572852 0 -2.55878e+06 649282 0 -2.66099e+06 737013 0 -2.78054e+06 838647 0 -2.92802e+06 959107 0 -3.09848e+06 1.12981e+06 0 -3.30934e+06 1.35459e+06 0 -4.03856e+06 1.62428e+06 0 -4.29401e+06 4.92725e+06 0 -573535 4.57518e+06 0 -2.16963e+06 320184 0 -2.21582e+06 369664 0 -2.26842e+06 422523 0 -2.32786e+06 479345 0 -2.39449e+06 540919 0 -2.46892e+06 608772 0 -2.55249e+06 685177 0 -2.64745e+06 772541 0 -2.75685e+06 874455 0 -2.8853e+06 999493 0 -3.03358e+06 1.16189e+06 0 -3.22875e+06 1.38415e+06 0 -3.66704e+06 1.86724e+06 0 -3.76219e+06 3.22399e+06 0 -2.00203e+06 4.28065e+06 0 -145069 2.07214e+06 0 -2.23217e+06 412665 0 -2.28407e+06 466359 0 -2.34197e+06 524040 0 -2.40609e+06 586348 0 -2.47696e+06 654905 0 -2.55579e+06 732212 0 -2.64432e+06 821041 0 -2.74435e+06 925219 0 -2.85837e+06 1.05218e+06 0 -2.99115e+06 1.2146e+06 0 -3.16369e+06 1.45112e+06 0 -3.423e+06 1.92783e+06 0 -3.39833e+06 2.74586e+06 0 -2.35255e+06 3.56307e+06 0 -966398 3.14256e+06 0 -527568 2.26658e+06 0 -2.30754e+06 521242 0 -2.36418e+06 580096 0 -2.42605e+06 643638 0 -2.49364e+06 713839 0 -2.56808e+06 793517 0 -2.6506e+06 885287 0 -2.74234e+06 992321 0 -2.84543e+06 1.12194e+06 0 -2.96422e+06 1.2915e+06 0 -3.10331e+06 1.54673e+06 0 -3.23513e+06 1.9892e+06 0 -3.10853e+06 2.58281e+06 0 -2.37484e+06 3.12586e+06 0 -1.35779e+06 3.06096e+06 0 -781815 2.48989e+06 0 -632950 2.04683e+06 0 -2.39503e+06 650678 0 -2.45441e+06 716122 0 -2.51865e+06 789105 0 -2.58885e+06 872203 0 -2.66593e+06 967587 0 -2.75047e+06 1.0787e+06 0 -2.84328e+06 1.21632e+06 0 -2.94272e+06 1.40326e+06 0 -3.03385e+06 1.67901e+06 0 -3.05756e+06 2.0832e+06 0 -2.84887e+06 2.53293e+06 0 -2.26454e+06 2.86406e+06 0 -1.51472e+06 2.84264e+06 0 -997536 2.47108e+06 0 -774711 2.03521e+06 0 -651110 1.65866e+06 0 -2.49075e+06 806916 0 -2.55179e+06 883671 0 -2.61824e+06 971323 0 -2.69015e+06 1.07296e+06 0 -2.76618e+06 1.19437e+06 0 -2.84292e+06 1.35117e+06 0 -2.90888e+06 1.5642e+06 0 -2.93453e+06 1.85176e+06 0 -2.85879e+06 2.20168e+06 0 -2.58901e+06 2.51758e+06 0 -2.09556e+06 2.68142e+06 0 -1.53608e+06 2.6155e+06 0 -1.12677e+06 2.34297e+06 0 -905953 1.99114e+06 0 -779453 1.65557e+06 0 -693370 1.33586e+06 0 -2.59368e+06 1.0034e+06 0 -2.65572e+06 1.10108e+06 0 -2.71884e+06 1.21806e+06 0 -2.77755e+06 1.36138e+06 0 -2.82242e+06 1.54647e+06 0 -2.83369e+06 1.77887e+06 0 -2.77931e+06 2.04791e+06 0 -2.6174e+06 2.31023e+06 0 -2.31513e+06 2.48458e+06 0 -1.9004e+06 2.51154e+06 0 -1.48766e+06 2.39297e+06 0 -1.18528e+06 2.16662e+06 0 -1.00089e+06 1.8873e+06 0 -885066 1.60244e+06 0 -807778 1.32592e+06 0 -750181 1.0496e+06 0 -2.69111e+06 1.29079e+06 0 -2.73123e+06 1.43213e+06 0 -2.75264e+06 1.6009e+06 0 -2.74253e+06 1.80195e+06 0 -2.68072e+06 2.01662e+06 0 -2.54711e+06 2.21555e+06 0 -2.32848e+06 2.35475e+06 0 -2.03225e+06 2.39044e+06 0 -1.70306e+06 2.31605e+06 0 -1.41146e+06 2.16534e+06 0 -1.20076e+06 1.96827e+06 0 -1.06195e+06 1.74181e+06 0 -969088 1.50311e+06 0 -906547 1.26072e+06 0 -857022 1.01148e+06 0 -794868 756953 0 -2.67767e+06 1.72453e+06 0 -2.63803e+06 1.88895e+06 0 -2.55811e+06 2.05889e+06 0 -2.42579e+06 2.19398e+06 0 -2.24132e+06 2.27531e+06 0 -2.01358e+06 2.2828e+06 0 -1.76418e+06 2.21153e+06 0 -1.52716e+06 2.08287e+06 0 -1.3349e+06 1.92814e+06 0 -1.19701e+06 1.75773e+06 0 -1.10249e+06 1.56874e+06 0 -1.03908e+06 1.36434e+06 0 -996319 1.1477e+06 0 -955811 917261 0 -893333 677200 0 -793736 447155 0 -2.38945e+06 2.11704e+06 0 -2.25531e+06 2.19252e+06 0 -2.08916e+06 2.20343e+06 0 -1.90706e+06 2.16628e+06 0 -1.7202e+06 2.08103e+06 0 -1.54284e+06 1.96014e+06 0 -1.39094e+06 1.82427e+06 0 -1.27495e+06 1.68571e+06 0 -1.19431e+06 1.53793e+06 0 -1.14227e+06 1.37118e+06 0 -1.11076e+06 1.1846e+06 0 -1.08634e+06 979575 0 -1.04787e+06 757725 0 -974847 529393 0 -858041 314461 0 -705734 138751 0 -1.89208e+06 2.08745e+06 0 -1.74955e+06 2.00686e+06 0 -1.61898e+06 1.91197e+06 0 -1.49612e+06 1.79955e+06 0 -1.38818e+06 1.68117e+06 0 -1.30456e+06 1.56301e+06 0 -1.2499e+06 1.43931e+06 0 -1.22134e+06 1.29675e+06 0 -1.21021e+06 1.12826e+06 0 -1.2026e+06 936154 0 -1.17932e+06 725961 0 -1.1209e+06 506808 0 -1.01635e+06 295227 0 -868702 112130 0 -694059 -25383.2 0 -516644 -107826 0 -1.50383e+06 1.73489e+06 0 -1.43231e+06 1.61006e+06 0 -1.36341e+06 1.50428e+06 0 -1.31776e+06 1.40224e+06 0 -1.30099e+06 1.28411e+06 0 -1.30694e+06 1.13707e+06 0 -1.32105e+06 957520 0 -1.32506e+06 753445 0 -1.30058e+06 538664 0 -1.23304e+06 327202 0 -1.11682e+06 133560 0 -958189 -27128.7 0 -773843 -142966 0 -585873 -209485 0 -415747 -230325 0 -278158 -216973 0 -1.37151e+06 1.097e+06 0 -1.37796e+06 1.13151e+06 0 -1.41475e+06 1.01052e+06 0 -1.45341e+06 799233 0 -1.47033e+06 551549 0 -1.44817e+06 306134 0 -1.37753e+06 89016.3 0 -1.25736e+06 -86304 0 -1.09496e+06 -215666 0 -905081 -299480 0 -706941 -340681 0 -519947 -345085 0 -359656 -321220 0 -235051 -279169 0 -147728 -228720 0 -92283.3 -179838 0 -1.70222e+06 1.20186e+06 0 -1.65055e+06 209908 0 -1.53958e+06 -381687 0 -1.38131e+06 -681714 0 -1.19022e+06 -783241 0 -982010 -762325 0 -772413 -677374 0 -575918 -569065 0 -404354 -461848 0 -265421 -367818 0 -161906 -290999 0 -91922.4 -230693 0 -49958.7 -184006 0 -28443.3 -147704 0 -19538.8 -119130 0 -16636.4 -96681.8 0 0 -9.98657e+06 0 1.15484e-07 -6.21352e+06 0 -1.71363e-07 -3.48337e+06 0 1.19209e-07 -1.62393e+06 0 -1.63913e-07 -460509 0 7.45058e-08 175673 0 -2.98023e-08 440472 0 0 469991 0 2.98023e-08 374624 0 0 235434 0 8.9407e-08 104193 0 -1.49012e-07 6910.16 0 1.19209e-07 -50197.1 0 -4.17233e-07 -73476.3 0 7.15256e-07 -74710.6 0 -8.34465e-07 -65429.9 0 </DataArray> 
</PointData> 
<Points> 
<DataArray type="Float32" NumberOfComponents="3"> 
0.016 0.021 0 0.0199333 0.021 0 0.0238667 0.021 0 0.0278 0.021 0 0.0317333 0.021 0 0.0356667 0.021 0 0.0396 0.021 0 0.0435333 0.021 0 0.0474667 0.021 0 0.0514 0.021 0 0.0553333 0.021 0 0.0592667 0.021 0 0.0632 0.021 0 0.0671333 0.021 0 0.0710667 0.021 0 0.075 0.021 0 0.0216 0.0219333 0 0.0253156 0.0219333 0 0.0290311 0.0219333 0 0.0327467 0.0219333 0 0.0364622 0.0219333 0 0.0401778 0.0219333 0 0.0438933 0.0219333 0 0.0476089 0.0219333 0 0.0513244 0.0219333 0 0.05504 0.0219333 0 0.0587556 0.0219333 0 0.0624711 0.0219333 0 0.0661867 0.0219333 0 0.0699022 0.0219333 0 0.0736178 0.0219333 0 0.0773333 0.0219333 0 0.0272 0.0228667 0 0.0306978 0.0228667 0 0.0341956 0.0228667 0 0.0376933 0.0228667 0 0.0411911 0.0228667 0 0.0446889 0.0228667 0 0.0481867 0.0228667 0 0.0516844 0.0228667 0 0.0551822 0.0228667 0 0.05868 0.0228667 0 0.0621778 0.0228667 0 0.0656756 0.0228667 0 0.0691733 0.0228667 0 0.0726711 0.0228667 0 0.0761689 0.0228667 0 0.0796667 0.0228667 0 0.0328 0.0238 0 0.03608 0.0238 0 0.03936 0.0238 0 0.04264 0.0238 0 0.04592 0.0238 0 0.0492 0.0238 0 0.05248 0.0238 0 0.05576 0.0238 0 0.05904 0.0238 0 0.06232 0.0238 0 0.0656 0.0238 0 0.06888 0.0238 0 0.07216 0.0238 0 0.07544 0.0238 0 0.07872 0.0238 0 0.082 0.0238 0 0.0384 0.0247333 0 0.0414622 0.0247333 0 0.0445244 0.0247333 0 0.0475867 0.0247333 0 0.0506489 0.0247333 0 0.0537111 0.0247333 0 0.0567733 0.0247333 0 0.0598356 0.0247333 0 0.0628978 0.0247333 0 0.06596 0.0247333 0 0.0690222 0.0247333 0 0.0720844 0.0247333 0 0.0751467 0.0247333 0 0.0782089 0.0247333 0 0.0812711 0.0247333 0 0.0843333 0.0247333 0 0.044 0.0256667 0 0.0468444 0.0256667 0 0.0496889 0.0256667 0 0.0525333 0.0256667 0 0.0553778 0.0256667 0 0.0582222 0.0256667 0 0.0610667 0.0256667 0 0.0639111 0.0256667 0 0.0667556 0.0256667 0 0.0696 0.0256667 0 0.0724444 0.0256667 0 0.0752889 0.0256667 0 0.0781333 0.0256667 0 0.0809778 0.0256667 0 0.0838222 0.0256667 0 0.0866667 0.0256667 0 0.0496 0.0266 0 0.0522267 0.0266 0 0.0548533 0.0266 0 0.05748 0.0266 0 0.0601067 0.0266 0 0.0627333 0.0266 0 0.06536 0.0266 0 0.0679867 0.0266 0 0.0706133 0.0266 0 0.07324 0.0266 0 0.0758667 0.0266 0 0.0784933 0.0266 0 0.08112 0.0266 0 0.0837467 0.0266 0 0.0863733 0.0266 0 0.089 0.0266 0 0.0552 0.0275333 0 0.0576089 0.0275333 0 0.0600178 0.0275333 0 0.0624267 0.0275333 0 0.0648356 0.0275333 0 0.0672444 0.0275333 0 0.0696533 0.0275333 0 0.0720622 0.0275333 0 0.0744711 0.0275333 0 0.07688 0.0275333 0 0.0792889 0.0275333 0 0.0816978 0.0275333 0 0.0841067 0.0275333 0 0.0865156 0.0275333 0 0.0889244 0.0275333 0 0.0913333 0.0275333 0 0.0608 0.0284667 0 0.0629911 0.0284667 0 0.0651822 0.0284667 0 0.0673733 0.0284667 0 0.0695644 0.0284667 0 0.0717556 0.0284667 0 0.0739467 0.0284667 0 0.0761378 0.0284667 0 0.0783289 0.0284667 0 0.08052 0.0284667 0 0.0827111 0.0284667 0 0.0849022 0.0284667 0 0.0870933 0.0284667 0 0.0892844 0.0284667 0 0.0914756 0.0284667 0 0.0936667 0.0284667 0 0.0664 0.0294 0 0.0683733 0.0294 0 0.0703467 0.0294 0 0.07232 0.0294 0 0.0742933 0.0294 0 0.0762667 0.0294 0 0.07824 0.0294 0 0.0802133 0.0294 0 0.0821867 0.0294 0 0.08416 0.0294 0 0.0861333 0.0294 0 0.0881067 0.0294 0 0.09008 0.0294 0 0.0920533 0.0294 0 0.0940267 0.0294 0 0.096 0.0294 0 0.072 0.0303333 0 0.0737556 0.0303333 0 0.0755111 0.0303333 0 0.0772667 0.0303333 0 0.0790222 0.0303333 0 0.0807778 0.0303333 0 0.0825333 0.0303333 0 0.0842889 0.0303333 0 0.0860444 0.0303333 0 0.0878 0.0303333 0 0.0895556 0.0303333 0 0.0913111 0.0303333 0 0.0930667 0.0303333 0 0.0948222 0.0303333 0 0.0965778 0.0303333 0 0.0983333 0.0303333 0 0.0776 0.0312667 0 0.0791378 0.0312667 0 0.0806756 0.0312667 0 0.0822133 0.0312667 0 0.0837511 0.0312667 0 0.0852889 0.0312667 0 0.0868267 0.0312667 0 0.0883644 0.0312667 0 0.0899022 0.0312667 0 0.09144 0.0312667 0 0.0929778 0.0312667 0 0.0945156 0.0312667 0 0.0960533 0.0312667 0 0.0975911 0.0312667 0 0.0991289 0.0312667 0 0.100667 0.0312667 0 0.0832 0.0322 0 0.08452 0.0322 0 0.08584 0.0322 0 0.08716 0.0322 0 0.08848 0.0322 0 0.0898 0.0322 0 0.09112 0.0322 0 0.09244 0.0322 0 0.09376 0.0322 0 0.09508 0.0322 0 0.0964 0.0322 0 0.09772 0.0322 0 0.09904 0.0322 0 0.10036 0.0322 0 0.10168 0.0322 0 0.103 0.0322 0 0.0888 0.0331333 0 0.0899022 0.0331333 0 0.0910044 0.0331333 0 0.0921067 0.0331333 0 0.0932089 0.0331333 0 0.0943111 0.0331333 0 0.0954133 0.0331333 0 0.0965156 0.0331333 0 0.0976178 0.0331333 0 0.09872 0.0331333 0 0.0998222 0.0331333 0 0.100924 0.0331333 0 0.102027 0.0331333 0 0.103129 0.0331333 0 0.104231 0.0331333 0 0.105333 0.0331333 0 0.0944 0.0340667 0 0.0952844 0.0340667 0 0.0961689 0.0340667 0 0.0970533 0.0340667 0 0.0979378 0.0340667 0 0.0988222 0.0340667 0 0.0997067 0.0340667 0 0.100591 0.0340667 0 0.101476 0.0340667 0 0.10236 0.0340667 0 0.103244 0.0340667 0 0.104129 0.0340667 0 0.105013 0.0340667 0 0.105898 0.0340667 0 0.106782 0.0340667 0 0.107667 0.0340667 0 0.1 0.035 0 0.100667 0.035 0 0.101333 0.035 0 0.102 0.035 0 0.102667 0.035 0 0.103333 0.035 0 0.104 0.035 0 0.104667 0.035 0 0.105333 0.035 0 0.106 0.035 0 0.106667 0.035 0 0.107333 0.035 0 0.108 0.035 0 0.108667 0.035 0 0.109333 0.035 0 0.11 0.035 0 
</DataArray>
</Points> 
</Piece> 
</StructuredGrid> 
</VTKFile> 
