<?xml version="1.0"?> 
<VTKFile type="StructuredGrid" version="0.1"> 
<StructuredGrid WholeExtent="0 15 0 15 0 0"> 
<Piece Extent="0 15 0 15 0 0"> 
<PointData>
<DataArray type="Float32" Name="|E|" format="ascii" NumberOfComponents="3"> 
-2.38419e-07 4.47808e+06 0 1.56462e-07 2.38177e+06 0 -2.34693e-07 1.59363e+06 0 2.90573e-07 1.06932e+06 0 -1.78814e-07 696127 0 8.9407e-08 419474 0 0 223968 0 -1.49012e-07 98635 0 1.3411e-07 31264.8 0 -5.96046e-08 4655.05 0 8.9407e-08 -646.925 0 -1.78814e-07 77.1079 0 1.78814e-07 254.18 0 -1.49012e-07 -116.877 0 8.9407e-08 -62.4007 0 1.19209e-07 0 0 -1.51632e+06 2.94687e+06 0 -701597 2.31348e+06 0 -435902 1.65122e+06 0 -294345 1.17835e+06 0 -208264 812415 0 -145989 530085 0 -97382.1 317243 0 -59368.5 166856 0 -31313.3 72174.8 0 -13233.2 22684.7 0 -3918.63 3750.35 0 -591.158 -123.924 0 -3.18344 24.8977 0 -16.5486 61.1573 0 -1.79363 -4.36441 0 8.26286 85.7309 0 -1.83548e+06 2.17507e+06 0 -1.26195e+06 1.94573e+06 0 -874877 1.5791e+06 0 -635879 1.20989e+06 0 -470399 888831 0 -346607 620399 0 -247551 404001 0 -166393 238823 0 -101564 122730 0 -53581 51139.1 0 -22693.2 15188.9 0 -6768.36 2412.26 0 -1033.2 137.13 0 -6.21369 92.9613 0 -34.6591 -75.6868 0 7.00985 35.3797 0 -1.96753e+06 1.68957e+06 0 -1.58999e+06 1.59684e+06 0 -1.25529e+06 1.40203e+06 0 -985633 1.1572e+06 0 -772397 906197 0 -599310 672828 0 -454172 469358 0 -330124 301773 0 -224731 173511 0 -138789 84792.4 0 -74274.3 32199.7 0 -32059.4 7926.68 0 -9773.27 925.172 0 -1489.74 422.684 0 18.3973 263.539 0 -95.4045 -310.381 0 -2.05791e+06 1.36413e+06 0 -1.80857e+06 1.30744e+06 0 -1.55228e+06 1.19595e+06 0 -1.30915e+06 1.04075e+06 0 -1.0883e+06 860840 0 -890622 675255 0 -713483 498371 0 -553930 340980 0 -410828 210394 0 -285233 111344 0 -180147 45219 0 -99162.2 9380.44 0 -44360.9 -3309.6 0 -14078 -3245.11 0 -2173.61 -487.615 0 227.703 533.343 0 -2.15357e+06 1.1295e+06 0 -1.98077e+06 1.07937e+06 0 -1.79095e+06 1.00112e+06 0 -1.59293e+06 895509 0 -1.39404e+06 768016 0 -1.19945e+06 627062 0 -1.01176e+06 482606 0 -832328 344076 0 -662179 220045 0 -503272 117528 0 -359002 41607.1 0 -234210 -5561.78 0 -134265 -25820.2 0 -63146.9 -25642.8 0 -21275.8 -15618.4 0 -2704.26 -4823.34 0 -2.26416e+06 955386 0 -2.13963e+06 902107 0 -1.99885e+06 834251 0 -1.84429e+06 750891 0 -1.67926e+06 652845 0 -1.50681e+06 543017 0 -1.32973e+06 425939 0 -1.15024e+06 307541 0 -970471 194387 0 -792752 93282.6 0 -620323 10618.2 0 -457773 -48332.8 0 -311228 -80557.9 0 -187724 -86583.9 0 -94050.7 -72061.2 0 -33138.2 -46409.1 0 -2.39234e+06 825660 0 -2.30063e+06 767305 0 -2.19555e+06 700516 0 -2.07737e+06 624544 0 -1.94665e+06 539322 0 -1.80432e+06 445603 0 -1.65138e+06 345215 0 -1.489e+06 241024 0 -1.31841e+06 136983 0 -1.14117e+06 37939.2 0 -959396 -50559.3 0 -776182 -122644 0 -596106 -172741 0 -425559 -196576 0 -272699 -192585 0 -147065 -164272 0 -2.53788e+06 732836 0 -2.47045e+06 669953 0 -2.39279e+06 601165 0 -2.30424e+06 526052 0 -2.20444e+06 444412 0 -2.09302e+06 356433 0 -1.9698e+06 262771 0 -1.83462e+06 164713 0 -1.68748e+06 64260.1 0 -1.52852e+06 -35758.5 0 -1.35819e+06 -131637 0 -1.17749e+06 -218784 0 -988295 -291807 0 -793895 -344865 0 -599240 -372023 0 -412923 -369668 0 -2.69877e+06 673832 0 -2.6512e+06 607855 0 -2.59601e+06 536896 0 -2.5325e+06 460649 0 -2.45997e+06 378903 0 -2.37771e+06 291602 0 -2.28498e+06 198914 0 -2.181e+06 101303 0 -2.06498e+06 -369.324 0 -1.93611e+06 -104750 0 -1.79359e+06 -209871 0 -1.63674e+06 -313021 0 -1.46511e+06 -410605 0 -1.27876e+06 -498061 0 -1.07844e+06 -569641 0 -867079 -619133 0 -2.87193e+06 647952 0 -2.84185e+06 580645 0 -2.80645e+06 508653 0 -2.7651e+06 431675 0 -2.71717e+06 349440 0 -2.66196e+06 261736 0 -2.59869e+06 168433 0 -2.52647e+06 69529.3 0 -2.44434e+06 -34811.7 0 -2.3512e+06 -144195 0 -2.24582e+06 -257923 0 -2.12683e+06 -374901 0 -1.99273e+06 -493516 0 -1.8419e+06 -611490 0 -1.6727e+06 -725672 0 -1.48363e+06 -831812 0 -3.05303e+06 655486 0 -3.03929e+06 588772 0 -3.02218e+06 517518 0 -3.00127e+06 441406 0 -2.97611e+06 360106 0 -2.94617e+06 273292 0 -2.91085e+06 180652 0 -2.86945e+06 81897.4 0 -2.82119e+06 -23216.4 0 -2.76515e+06 -134872 0 -2.70024e+06 -253162 0 -2.62522e+06 -378052 0 -2.53863e+06 -509334 0 -2.43872e+06 -646554 0 -2.32355e+06 -788954 0 -2.19055e+06 -935222 0 -3.2368e+06 696783 0 -3.23874e+06 632631 0 -3.23902e+06 564197 0 -3.23742e+06 491130 0 -3.23367e+06 413077 0 -3.22747e+06 329664 0 -3.21846e+06 240496 0 -3.20623e+06 145156 0 -3.1903e+06 43209.4 0 -3.17011e+06 -65800.9 0 -3.145e+06 -182346 0 -3.11417e+06 -306912 0 -3.0767e+06 -439990 0 -3.03146e+06 -582070 0 -2.97718e+06 -733641 0 -2.91209e+06 -895115 0 -3.41712e+06 771516 0 -3.43433e+06 712010 0 -3.45134e+06 648565 0 -3.46812e+06 580929 0 -3.48457e+06 508774 0 -3.50059e+06 431744 0 -3.51607e+06 349452 0 -3.53086e+06 261479 0 -3.54478e+06 167369 0 -3.55763e+06 66622.4 0 -3.56917e+06 -41308.7 0 -3.57908e+06 -157026 0 -3.58703e+06 -281194 0 -3.59257e+06 -414545 0 -3.59521e+06 -557894 0 -3.59426e+06 -712138 0 -3.58778e+06 878382 0 -3.61956e+06 825381 0 -3.65264e+06 769229 0 -3.68689e+06 709511 0 -3.72232e+06 645965 0 -3.75896e+06 578329 0 -3.79687e+06 506311 0 -3.83612e+06 429592 0 -3.87676e+06 347814 0 -3.91886e+06 260582 0 -3.96248e+06 167461 0 -4.00768e+06 67967.7 0 -4.05452e+06 -38430.8 0 -4.10305e+06 -152327 0 -4.15334e+06 -274380 0 -4.20542e+06 -405324 0 -3.73882e+06 1.01412e+06 0 -3.78746e+06 971045 0 -3.83664e+06 924230 0 -3.88754e+06 874472 0 -3.94056e+06 821845 0 -3.99596e+06 766245 0 -4.05395e+06 707506 0 -4.11472e+06 645438 0 -4.17848e+06 579831 0 -4.24544e+06 510459 0 -4.31583e+06 437078 0 -4.38991e+06 359423 0 -4.46794e+06 277209 0 -4.55023e+06 190127 0 -4.63709e+06 97843.8 0 -4.72889e+06 4.76837e-07 0 </DataArray> 
</PointData> 
<Points> 
<DataArray type="Float32" NumberOfComponents="3"> 
0.1 0.045 0 0.100867 0.045 0 0.101733 0.045 0 0.1026 0.045 0 0.103467 0.045 0 0.104333 0.045 0 0.1052 0.045 0 0.106067 0.045 0 0.106933 0.045 0 0.1078 0.045 0 0.108667 0.045 0 0.109533 0.045 0 0.1104 0.045 0 0.111267 0.045 0 0.112133 0.045 0 0.113 0.045 0 0.1 0.0456667 0 0.100775 0.0456267 0 0.101554 0.0455866 0 0.102337 0.0455462 0 0.103124 0.0455057 0 0.103915 0.0454649 0 0.104709 0.045424 0 0.105508 0.0453828 0 0.10631 0.0453415 0 0.107117 0.0452999 0 0.107927 0.0452581 0 0.108742 0.0452161 0 0.10956 0.045174 0 0.110383 0.0451316 0 0.11121 0.045089 0 0.112041 0.0450461 0 0.1 0.0463333 0 0.10069 0.046262 0 0.101387 0.04619 0 0.10209 0.0461173 0 0.102799 0.046044 0 0.103515 0.04597 0 0.104238 0.0458954 0 0.104967 0.04582 0 0.105704 0.0457439 0 0.106447 0.0456671 0 0.107197 0.0455896 0 0.107954 0.0455113 0 0.108719 0.0454323 0 0.10949 0.0453525 0 0.11027 0.045272 0 0.111056 0.0451907 0 0.1 0.047 0 0.100612 0.0469052 0 0.101231 0.0468093 0 0.101859 0.0467121 0 0.102494 0.0466137 0 0.103138 0.046514 0 0.10379 0.046413 0 0.10445 0.0463107 0 0.105119 0.046207 0 0.105797 0.046102 0 0.106484 0.0459955 0 0.107181 0.0458877 0 0.107886 0.0457784 0 0.108602 0.0456676 0 0.109327 0.0455552 0 0.110062 0.0454414 0 0.1 0.0476667 0 0.10054 0.0475558 0 0.101088 0.0474432 0 0.101645 0.0473289 0 0.10221 0.0472128 0 0.102784 0.0470948 0 0.103368 0.0469749 0 0.103961 0.0468531 0 0.104564 0.0467294 0 0.105176 0.0466035 0 0.105799 0.0464757 0 0.106432 0.0463456 0 0.107076 0.0462134 0 0.10773 0.046079 0 0.108396 0.0459422 0 0.109074 0.0458031 0 0.1 0.0483333 0 0.100474 0.0482131 0 0.100957 0.0480907 0 0.101448 0.0479661 0 0.101949 0.0478393 0 0.102458 0.0477102 0 0.102977 0.0475787 0 0.103505 0.0474448 0 0.104043 0.0473084 0 0.104591 0.0471694 0 0.10515 0.0470278 0 0.105719 0.0468835 0 0.106299 0.0467364 0 0.106891 0.0465864 0 0.107494 0.0464334 0 0.10811 0.0462774 0 0.1 0.049 0 0.100416 0.0488763 0 0.10084 0.0487503 0 0.101271 0.0486218 0 0.101712 0.0484909 0 0.102161 0.0483573 0 0.102619 0.0482211 0 0.103086 0.0480822 0 0.103562 0.0479405 0 0.104048 0.0477958 0 0.104545 0.0476482 0 0.105052 0.0474975 0 0.105569 0.0473436 0 0.106097 0.0471864 0 0.106637 0.0470258 0 0.107189 0.0468617 0 0.1 0.0496667 0 0.100364 0.0495449 0 0.100735 0.0494208 0 0.101114 0.0492941 0 0.1015 0.0491649 0 0.101894 0.049033 0 0.102297 0.0488985 0 0.102708 0.0487611 0 0.103127 0.0486208 0 0.103555 0.0484775 0 0.103993 0.0483312 0 0.10444 0.0481817 0 0.104897 0.0480288 0 0.105364 0.0478726 0 0.105841 0.0477129 0 0.10633 0.0475495 0 0.1 0.0503333 0 0.100319 0.0502181 0 0.100645 0.0501006 0 0.100977 0.0499808 0 0.101315 0.0498585 0 0.101661 0.0497338 0 0.102014 0.0496064 0 0.102374 0.0494764 0 0.102741 0.0493437 0 0.103117 0.0492081 0 0.1035 0.0490696 0 0.103892 0.0489281 0 0.104293 0.0487835 0 0.104703 0.0486357 0 0.105121 0.0484845 0 0.105549 0.0483299 0 0.1 0.051 0 0.100281 0.0508953 0 0.100568 0.0507885 0 0.10086 0.0506797 0 0.101158 0.0505688 0 0.101461 0.0504557 0 0.101771 0.0503403 0 0.102087 0.0502226 0 0.102409 0.0501026 0 0.102738 0.0499801 0 0.103074 0.049855 0 0.103416 0.0497274 0 0.103766 0.049597 0 0.104124 0.0494639 0 0.104489 0.0493279 0 0.104862 0.0491889 0 0.1 0.0516667 0 0.10025 0.0515756 0 0.100505 0.0514829 0 0.100764 0.0513885 0 0.101028 0.0512925 0 0.101296 0.0511947 0 0.10157 0.0510952 0 0.101849 0.0509937 0 0.102132 0.0508904 0 0.102421 0.0507852 0 0.102716 0.0506779 0 0.103016 0.0505686 0 0.103322 0.0504572 0 0.103635 0.0503436 0 0.103953 0.0502277 0 0.104277 0.0501096 0 0.1 0.0523333 0 0.100226 0.0522584 0 0.100456 0.0521823 0 0.100689 0.052105 0 0.100926 0.0520265 0 0.101167 0.0519467 0 0.101412 0.0518657 0 0.10166 0.0517834 0 0.101913 0.0516997 0 0.10217 0.0516146 0 0.102431 0.0515282 0 0.102696 0.0514403 0 0.102966 0.0513509 0 0.10324 0.05126 0 0.103519 0.0511676 0 0.103803 0.0510735 0 0.1 0.053 0 0.100209 0.052943 0 0.100421 0.0528852 0 0.100636 0.0528267 0 0.100853 0.0527675 0 0.101073 0.0527075 0 0.101296 0.0526467 0 0.101522 0.0525851 0 0.101751 0.0525227 0 0.101983 0.0524595 0 0.102218 0.0523954 0 0.102456 0.0523305 0 0.102697 0.0522647 0 0.102942 0.052198 0 0.10319 0.0521304 0 0.103441 0.0520619 0 0.1 0.0536667 0 0.100199 0.0536286 0 0.1004 0.0535901 0 0.100603 0.0535513 0 0.100808 0.0535122 0 0.101014 0.0534727 0 0.101223 0.0534328 0 0.101433 0.0533925 0 0.101646 0.0533519 0 0.10186 0.0533109 0 0.102077 0.0532695 0 0.102295 0.0532277 0 0.102516 0.0531855 0 0.102739 0.0531429 0 0.102964 0.0530999 0 0.103191 0.0530565 0 0.1 0.0543333 0 0.100196 0.0543145 0 0.100393 0.0542955 0 0.100591 0.0542765 0 0.10079 0.0542574 0 0.10099 0.0542382 0 0.101191 0.0542189 0 0.101393 0.0541994 0 0.101596 0.0541799 0 0.1018 0.0541603 0 0.102005 0.0541406 0 0.102212 0.0541208 0 0.102419 0.0541009 0 0.102627 0.0540809 0 0.102836 0.0540608 0 0.103046 0.0540406 0 0.1 0.055 0 0.1002 0.055 0 0.1004 0.055 0 0.1006 0.055 0 0.1008 0.055 0 0.101 0.055 0 0.1012 0.055 0 0.1014 0.055 0 0.1016 0.055 0 0.1018 0.055 0 0.102 0.055 0 0.1022 0.055 0 0.1024 0.055 0 0.1026 0.055 0 0.1028 0.055 0 0.103 0.055 0 
</DataArray>
</Points> 
</Piece> 
</StructuredGrid> 
</VTKFile> 
