<?xml version="1.0"?> 
<VTKFile type="StructuredGrid" version="0.1"> 
<StructuredGrid WholeExtent="0 15 0 15 0 0"> 
<Piece Extent="0 15 0 15 0 0"> 
<PointData>
<DataArray type="Float32" Name="|E|" format="ascii" NumberOfComponents="3"> 
277002 4.20132e+06 0 275826 4.18348e+06 0 274898 4.16941e+06 0 274212 4.159e+06 0 273769 4.15227e+06 0 273579 4.14939e+06 0 273661 4.15065e+06 0 274047 4.15649e+06 0 274779 4.1676e+06 0 275918 4.18488e+06 0 277551 4.20964e+06 0 279796 4.24369e+06 0 282827 4.28967e+06 0 286907 4.35154e+06 0 292449 4.4356e+06 0 300193 4.55305e+06 0 248860 4.20089e+06 0 252940 4.18258e+06 0 257047 4.16793e+06 0 261355 4.15682e+06 0 266036 4.14924e+06 0 271281 4.14531e+06 0 277311 4.14528e+06 0 284394 4.14952e+06 0 292876 4.1586e+06 0 303211 4.17328e+06 0 316029 4.19461e+06 0 332233 4.22402e+06 0 353163 4.2635e+06 0 380972 4.31578e+06 0 419067 4.38478e+06 0 474268 4.47601e+06 0 220098 4.1929e+06 0 229142 4.17461e+06 0 237972 4.15962e+06 0 246923 4.14781e+06 0 256313 4.13915e+06 0 266482 4.13371e+06 0 277811 4.13166e+06 0 290749 4.13323e+06 0 305852 4.13882e+06 0 323833 4.14891e+06 0 345637 4.16411e+06 0 372562 4.18522e+06 0 406433 4.21313e+06 0 449925 4.24879e+06 0 506896 4.29298e+06 0 583622 4.34543e+06 0 191664 4.178e+06 0 205040 4.1602e+06 0 217980 4.14514e+06 0 230937 4.13272e+06 0 244333 4.1229e+06 0 258613 4.11569e+06 0 274259 4.11116e+06 0 291822 4.10943e+06 0 311958 4.11067e+06 0 335473 4.11508e+06 0 363380 4.12286e+06 0 396985 4.13418e+06 0 437986 4.14906e+06 0 488609 4.16723e+06 0 551677 4.18776e+06 0 630853 4.2085e+06 0 164420 4.15729e+06 0 181241 4.14037e+06 0 197449 4.1255e+06 0 213564 4.11262e+06 0 230068 4.10166e+06 0 247459 4.09261e+06 0 266260 4.08546e+06 0 287052 4.0802e+06 0 310496 4.07684e+06 0 337362 4.07533e+06 0 368566 4.07557e+06 0 405202 4.07732e+06 0 448573 4.08012e+06 0 500200 4.08314e+06 0 561763 4.08497e+06 0 635010 4.08335e+06 0 139047 4.13217e+06 0 158272 4.11641e+06 0 176769 4.10197e+06 0 195075 4.08879e+06 0 213689 4.07683e+06 0 233115 4.06603e+06 0 253872 4.05634e+06 0 276514 4.04767e+06 0 301644 4.0399e+06 0 329930 4.03283e+06 0 362115 4.0262e+06 0 399024 4.01955e+06 0 441547 4.01225e+06 0 490610 4.00335e+06 0 547083 3.9915e+06 0 611649 3.97488e+06 0 115985 4.10421e+06 0 136527 4.08978e+06 0 156288 4.07592e+06 0 175786 4.06261e+06 0 195499 4.04981e+06 0 215903 4.03747e+06 0 237480 4.0255e+06 0 260724 4.01375e+06 0 286151 4.00205e+06 0 314303 3.99013e+06 0 345747 3.97764e+06 0 381061 3.9641e+06 0 420812 3.94884e+06 0 465513 3.93101e+06 0 515555 3.90951e+06 0 571098 3.88299e+06 0 95439.3 4.07497e+06 0 116248 4.06191e+06 0 136281 4.04873e+06 0 156008 4.03543e+06 0 175862 4.02199e+06 0 196270 4.00837e+06 0 217654 3.99444e+06 0 240436 3.98007e+06 0 265039 3.96505e+06 0 291885 3.94911e+06 0 321386 3.93188e+06 0 353931 3.9129e+06 0 389862 3.8916e+06 0 429437 3.86727e+06 0 472787 3.83907e+06 0 519843 3.80605e+06 0 77408.5 4.04592e+06 0 97535.6 4.03419e+06 0 116936 4.02171e+06 0 136015 4.00852e+06 0 155148 3.99463e+06 0 174700 3.97998e+06 0 195029 3.96447e+06 0 216481 3.94796e+06 0 239391 3.93025e+06 0 264078 3.91109e+06 0 290834 3.89015e+06 0 319912 3.86703e+06 0 351509 3.84126e+06 0 385736 3.81228e+06 0 422597 3.77948e+06 0 461937 3.7422e+06 0 61738.7 4.01834e+06 0 80367.4 4.00782e+06 0 98348.6 3.99602e+06 0 116018 3.98302e+06 0 133687 3.96883e+06 0 151658 3.95339e+06 0 170223 3.93664e+06 0 189656 3.91845e+06 0 210216 3.89865e+06 0 232139 3.877e+06 0 255628 3.85323e+06 0 280844 3.82703e+06 0 307895 3.79801e+06 0 336813 3.76576e+06 0 367546 3.72983e+06 0 399924 3.68976e+06 0 48171.8 3.99333e+06 0 64628.8 3.98384e+06 0 80535.8 3.97268e+06 0 96160 3.95989e+06 0 111750 3.94551e+06 0 127548 3.92951e+06 0 143780 3.91183e+06 0 160661 3.89236e+06 0 178386 3.87096e+06 0 197123 3.84744e+06 0 217012 3.82159e+06 0 238156 3.79313e+06 0 260607 3.7618e+06 0 284361 3.72727e+06 0 309347 3.68923e+06 0 335410 3.64737e+06 0 36388.7 3.97174e+06 0 50141 3.96312e+06 0 63450.4 3.95249e+06 0 76520.4 3.93992e+06 0 89541 3.92544e+06 0 102696 3.90904e+06 0 116158 3.89068e+06 0 130085 3.87028e+06 0 144619 3.84771e+06 0 159880 3.82284e+06 0 175963 3.79547e+06 0 192928 3.76542e+06 0 210800 3.73246e+06 0 229559 3.69638e+06 0 249137 3.65694e+06 0 269408 3.61394e+06 0 26039.9 3.95426e+06 0 36684 3.94632e+06 0 46996.1 3.93611e+06 0 57121.8 3.92373e+06 0 67197.7 3.90921e+06 0 77355.5 3.89255e+06 0 87717.9 3.87372e+06 0 98396.9 3.85266e+06 0 109491 3.82927e+06 0 121080 3.80344e+06 0 133226 3.77503e+06 0 145965 3.74388e+06 0 159306 3.70983e+06 0 173228 3.67272e+06 0 187674 3.63238e+06 0 202550 3.58867e+06 0 16765.3 3.94139e+06 0 24013.8 3.93393e+06 0 31041.6 3.92404e+06 0 37942.3 3.9118e+06 0 44803.8 3.89727e+06 0 51710.7 3.88044e+06 0 58741.6 3.86131e+06 0 65967.7 3.83982e+06 0 73450.5 3.81589e+06 0 81240 3.78944e+06 0 89372.4 3.76035e+06 0 97868.1 3.72849e+06 0 106729 3.69374e+06 0 115939 3.65598e+06 0 125457 3.61508e+06 0 135223 3.57096e+06 0 8204.41 3.93348e+06 0 11873.5 3.9263e+06 0 15432.5 3.9166e+06 0 18927.1 3.90446e+06 0 22400.4 3.88992e+06 0 25893.6 3.87301e+06 0 29445 3.85371e+06 0 33089.2 3.83197e+06 0 36855.8 3.80774e+06 0 40768.5 3.78093e+06 0 44844.4 3.75145e+06 0 49092.3 3.7192e+06 0 53512.5 3.68407e+06 0 58095.3 3.64595e+06 0 62821.3 3.60475e+06 0 67658.8 3.56041e+06 0 0 3.93071e+06 0 0 3.92363e+06 0 0 3.914e+06 0 0 3.90189e+06 0 0 3.88736e+06 0 0 3.87042e+06 0 0 3.85106e+06 0 0 3.82924e+06 0 0 3.80491e+06 0 0 3.77798e+06 0 0 3.74837e+06 0 0 3.71599e+06 0 0 3.68073e+06 0 0 3.64249e+06 0 0 3.6012e+06 0 0 3.55679e+06 0 </DataArray> 
</PointData> 
<Points> 
<DataArray type="Float32" NumberOfComponents="3"> 
0.1465 0.0627913 0 0.148833 0.0626374 0 0.151167 0.0624836 0 0.1535 0.0623297 0 0.155833 0.0621759 0 0.158167 0.0620221 0 0.1605 0.0618682 0 0.162833 0.0617144 0 0.165167 0.0615605 0 0.1675 0.0614067 0 0.169833 0.0612529 0 0.172167 0.061099 0 0.1745 0.0609452 0 0.176833 0.0607913 0 0.179167 0.0606375 0 0.1815 0.0604836 0 0.1465 0.0660719 0 0.148833 0.0659283 0 0.151167 0.0657847 0 0.1535 0.0656411 0 0.155833 0.0654975 0 0.158167 0.0653539 0 0.1605 0.0652103 0 0.162833 0.0650668 0 0.165167 0.0649232 0 0.1675 0.0647796 0 0.169833 0.064636 0 0.172167 0.0644924 0 0.1745 0.0643488 0 0.176833 0.0642052 0 0.179167 0.0640617 0 0.1815 0.0639181 0 0.1465 0.0693524 0 0.148833 0.0692191 0 0.151167 0.0690858 0 0.1535 0.0689524 0 0.155833 0.0688191 0 0.158167 0.0686858 0 0.1605 0.0685525 0 0.162833 0.0684191 0 0.165167 0.0682858 0 0.1675 0.0681525 0 0.169833 0.0680191 0 0.172167 0.0678858 0 0.1745 0.0677525 0 0.176833 0.0676192 0 0.179167 0.0674858 0 0.1815 0.0673525 0 0.1465 0.072633 0 0.148833 0.0725099 0 0.151167 0.0723869 0 0.1535 0.0722638 0 0.155833 0.0721407 0 0.158167 0.0720176 0 0.1605 0.0718946 0 0.162833 0.0717715 0 0.165167 0.0716484 0 0.1675 0.0715254 0 0.169833 0.0714023 0 0.172167 0.0712792 0 0.1745 0.0711561 0 0.176833 0.0710331 0 0.179167 0.07091 0 0.1815 0.0707869 0 0.1465 0.0759136 0 0.148833 0.0758008 0 0.151167 0.075688 0 0.1535 0.0755751 0 0.155833 0.0754623 0 0.158167 0.0753495 0 0.1605 0.0752367 0 0.162833 0.0751239 0 0.165167 0.0750111 0 0.1675 0.0748982 0 0.169833 0.0747854 0 0.172167 0.0746726 0 0.1745 0.0745598 0 0.176833 0.074447 0 0.179167 0.0743342 0 0.1815 0.0742213 0 0.1465 0.0791942 0 0.148833 0.0790916 0 0.151167 0.0789891 0 0.1535 0.0788865 0 0.155833 0.0787839 0 0.158167 0.0786814 0 0.1605 0.0785788 0 0.162833 0.0784763 0 0.165167 0.0783737 0 0.1675 0.0782711 0 0.169833 0.0781686 0 0.172167 0.078066 0 0.1745 0.0779634 0 0.176833 0.0778609 0 0.179167 0.0777583 0 0.1815 0.0776558 0 0.1465 0.0824748 0 0.148833 0.0823825 0 0.151167 0.0822902 0 0.1535 0.0821978 0 0.155833 0.0821055 0 0.158167 0.0820132 0 0.1605 0.0819209 0 0.162833 0.0818286 0 0.165167 0.0817363 0 0.1675 0.081644 0 0.169833 0.0815517 0 0.172167 0.0814594 0 0.1745 0.0813671 0 0.176833 0.0812748 0 0.179167 0.0811825 0 0.1815 0.0810902 0 0.1465 0.0857553 0 0.148833 0.0856733 0 0.151167 0.0855912 0 0.1535 0.0855092 0 0.155833 0.0854271 0 0.158167 0.0853451 0 0.1605 0.0852631 0 0.162833 0.085181 0 0.165167 0.085099 0 0.1675 0.0850169 0 0.169833 0.0849349 0 0.172167 0.0848528 0 0.1745 0.0847708 0 0.176833 0.0846887 0 0.179167 0.0846067 0 0.1815 0.0845246 0 0.1465 0.0890359 0 0.148833 0.0889641 0 0.151167 0.0888923 0 0.1535 0.0888205 0 0.155833 0.0887488 0 0.158167 0.088677 0 0.1605 0.0886052 0 0.162833 0.0885334 0 0.165167 0.0884616 0 0.1675 0.0883898 0 0.169833 0.088318 0 0.172167 0.0882462 0 0.1745 0.0881744 0 0.176833 0.0881026 0 0.179167 0.0880308 0 0.1815 0.087959 0 0.1465 0.0923165 0 0.148833 0.092255 0 0.151167 0.0921934 0 0.1535 0.0921319 0 0.155833 0.0920704 0 0.158167 0.0920088 0 0.1605 0.0919473 0 0.162833 0.0918858 0 0.165167 0.0918242 0 0.1675 0.0917627 0 0.169833 0.0917011 0 0.172167 0.0916396 0 0.1745 0.0915781 0 0.176833 0.0915165 0 0.179167 0.091455 0 0.1815 0.0913935 0 0.1465 0.0955971 0 0.148833 0.0955458 0 0.151167 0.0954945 0 0.1535 0.0954432 0 0.155833 0.095392 0 0.158167 0.0953407 0 0.1605 0.0952894 0 0.162833 0.0952381 0 0.165167 0.0951868 0 0.1675 0.0951356 0 0.169833 0.0950843 0 0.172167 0.095033 0 0.1745 0.0949817 0 0.176833 0.0949304 0 0.179167 0.0948792 0 0.1815 0.0948279 0 0.1465 0.0988777 0 0.148833 0.0988366 0 0.151167 0.0987956 0 0.1535 0.0987546 0 0.155833 0.0987136 0 0.158167 0.0986725 0 0.1605 0.0986315 0 0.162833 0.0985905 0 0.165167 0.0985495 0 0.1675 0.0985085 0 0.169833 0.0984674 0 0.172167 0.0984264 0 0.1745 0.0983854 0 0.176833 0.0983444 0 0.179167 0.0983033 0 0.1815 0.0982623 0 0.1465 0.102158 0 0.148833 0.102127 0 0.151167 0.102097 0 0.1535 0.102066 0 0.155833 0.102035 0 0.158167 0.102004 0 0.1605 0.101974 0 0.162833 0.101943 0 0.165167 0.101912 0 0.1675 0.101881 0 0.169833 0.101851 0 0.172167 0.10182 0 0.1745 0.101789 0 0.176833 0.101758 0 0.179167 0.101727 0 0.1815 0.101697 0 0.1465 0.105439 0 0.148833 0.105418 0 0.151167 0.105398 0 0.1535 0.105377 0 0.155833 0.105357 0 0.158167 0.105336 0 0.1605 0.105316 0 0.162833 0.105295 0 0.165167 0.105275 0 0.1675 0.105254 0 0.169833 0.105234 0 0.172167 0.105213 0 0.1745 0.105193 0 0.176833 0.105172 0 0.179167 0.105152 0 0.1815 0.105131 0 0.1465 0.108719 0 0.148833 0.108709 0 0.151167 0.108699 0 0.1535 0.108689 0 0.155833 0.108678 0 0.158167 0.108668 0 0.1605 0.108658 0 0.162833 0.108648 0 0.165167 0.108637 0 0.1675 0.108627 0 0.169833 0.108617 0 0.172167 0.108607 0 0.1745 0.108596 0 0.176833 0.108586 0 0.179167 0.108576 0 0.1815 0.108566 0 0.1465 0.112 0 0.148833 0.112 0 0.151167 0.112 0 0.1535 0.112 0 0.155833 0.112 0 0.158167 0.112 0 0.1605 0.112 0 0.162833 0.112 0 0.165167 0.112 0 0.1675 0.112 0 0.169833 0.112 0 0.172167 0.112 0 0.1745 0.112 0 0.176833 0.112 0 0.179167 0.112 0 0.1815 0.112 0 
</DataArray>
</Points> 
</Piece> 
</StructuredGrid> 
</VTKFile> 
