<?xml version="1.0"?> 
<VTKFile type="StructuredGrid" version="0.1"> 
<StructuredGrid WholeExtent="0 15 0 15 0 0"> 
<Piece Extent="0 15 0 15 0 0"> 
<PointData>
<DataArray type="Float32" Name="E" format="ascii" NumberOfComponents="3"> 
0 0 0 0 0 0 0 0 0 0 0 0 0 0 0 0 0 0 0 0 0 0 0 0 0 0 0 0 0 0 0 0 0 0 0 0 0 0 0 0 0 0 0 0 0 0 0 0 0 0 0 0 0 0 0 0 0 0 0 0 0 0 0 0 0 0 0 0 0 0 0 0 0 0 0 0 0 0 0 0 0 0 0 0 0 0 0 0 0 0 0 0 0 0 0 0 0 0 0 0 0 0 0 0 0 0 0 0 0 0 0 0 0 0 0 0 0 0 0 0 0 0 0 0 0 0 0 0 0 0 0 0 0 0 0 0 0 0 0 0 0 0 0 0 0 0 0 0 0 0 0 0 0 0 0 0 0 0 0 0 0 0 0 0 0 0 0 0 0 0 0 0 0 0 0 0 0 0 0 0 0 0 0 0 0 0 0 0 0 0 0 0 0 0 0 0 0 0 0 0 0 0 0 0 0 0 0 0 0 0 0 0 0 0 0 0 0 0 0 0 0 0 0 0 0 0 0 0 0 0 0 0 0 0 0 0 0 0 0 0 0 0 0 0 0 0 0 0 0 0 0 0 0 0 0 0 0 0 0 0 0 0 0 0 0 0 0 0 0 0 0 0 0 0 0 0 0 0 0 0 0 0 0 0 0 0 0 0 0 0 0 0 0 0 0 0 0 0 0 0 0 0 0 0 0 0 0 0 0 0 0 0 0 0 0 0 0 0 0 0 0 0 0 0 0 0 0 0 0 0 0 0 0 0 0 0 0 0 0 0 0 0 0 0 0 0 0 0 0 0 0 0 0 0 0 0 0 0 0 0 0 0 0 0 0 0 0 0 0 0 0 0 0 0 0 0 0 0 0 0 0 0 0 0 0 0 0 0 0 0 0 0 0 0 0 0 0 0 0 0 0 0 0 0 0 0 0 0 0 0 0 0 0 0 0 0 0 0 0 0 0 0 0 0 0 0 0 0 0 0 0 0 0 0 0 0 0 0 0 0 0 0 0 0 0 0 0 0 0 0 0 0 0 0 0 0 0 0 0 0 0 0 0 0 0 0 0 0 0 0 0 0 0 0 0 0 0 0 0 0 0 0 0 0 0 0 0 0 0 0 0 0 0 0 0 0 0 0 0 0 0 0 0 0 0 0 0 0 0 0 0 0 0 0 0 0 0 0 0 0 0 0 0 0 0 0 0 0 0 0 0 0 0 0 0 0 0 0 0 0 0 0 0 0 0 0 0 0 0 0 0 0 0 0 0 0 0 0 0 0 0 0 0 0 0 0 0 0 0 0 0 0 0 0 0 0 0 0 0 0 0 0 0 0 0 0 0 0 0 0 0 0 0 0 0 0 0 0 0 0 0 0 0 0 0 0 0 0 0 0 0 0 0 0 0 0 0 0 0 0 0 0 0 0 0 0 0 0 0 0 0 0 0 0 0 0 0 0 0 0 0 0 0 0 0 0 0 0 0 0 0 0 0 0 0 0 0 0 0 0 0 0 0 0 0 0 0 0 0 0 0 0 0 0 0 0 0 0 0 0 0 0 0 0 0 0 0 0 0 0 0 0 0 0 0 0 0 0 0 0 0 0 0 0 0 0 0 0 0 0 0 0 0 0 0 0 0 0 0 0 0 0 0 0 0 0 0 0 0 0 0 0 0 0 0 0 0 0 0 0 0 0 0 0 0 0 0 0 0 0 0 0 0 0 0 0 0 0 0 0 0 0 0 0 0 0 0 0 </DataArray> 
</PointData> 
<Points> 
<DataArray type="Float32" NumberOfComponents="3"> 
0 0.01 0 0.0004 0.01 0 0.0008 0.01 0 0.0012 0.01 0 0.0016 0.01 0 0.002 0.01 0 0.0024 0.01 0 0.0028 0.01 0 0.0032 0.01 0 0.0036 0.01 0 0.004 0.01 0 0.0044 0.01 0 0.0048 0.01 0 0.0052 0.01 0 0.0056 0.01 0 0.006 0.01 0 0 0.0104 0 0.0004 0.0104 0 0.0008 0.0104 0 0.0012 0.0104 0 0.0016 0.0104 0 0.002 0.0104 0 0.0024 0.0104 0 0.0028 0.0104 0 0.0032 0.0104 0 0.0036 0.0104 0 0.004 0.0104 0 0.0044 0.0104 0 0.0048 0.0104 0 0.0052 0.0104 0 0.0056 0.0104 0 0.006 0.0104 0 0 0.0108 0 0.0004 0.0108 0 0.0008 0.0108 0 0.0012 0.0108 0 0.0016 0.0108 0 0.002 0.0108 0 0.0024 0.0108 0 0.0028 0.0108 0 0.0032 0.0108 0 0.0036 0.0108 0 0.004 0.0108 0 0.0044 0.0108 0 0.0048 0.0108 0 0.0052 0.0108 0 0.0056 0.0108 0 0.006 0.0108 0 0 0.0112 0 0.0004 0.0112 0 0.0008 0.0112 0 0.0012 0.0112 0 0.0016 0.0112 0 0.002 0.0112 0 0.0024 0.0112 0 0.0028 0.0112 0 0.0032 0.0112 0 0.0036 0.0112 0 0.004 0.0112 0 0.0044 0.0112 0 0.0048 0.0112 0 0.0052 0.0112 0 0.0056 0.0112 0 0.006 0.0112 0 0 0.0116 0 0.0004 0.0116 0 0.0008 0.0116 0 0.0012 0.0116 0 0.0016 0.0116 0 0.002 0.0116 0 0.0024 0.0116 0 0.0028 0.0116 0 0.0032 0.0116 0 0.0036 0.0116 0 0.004 0.0116 0 0.0044 0.0116 0 0.0048 0.0116 0 0.0052 0.0116 0 0.0056 0.0116 0 0.006 0.0116 0 0 0.012 0 0.0004 0.012 0 0.0008 0.012 0 0.0012 0.012 0 0.0016 0.012 0 0.002 0.012 0 0.0024 0.012 0 0.0028 0.012 0 0.0032 0.012 0 0.0036 0.012 0 0.004 0.012 0 0.0044 0.012 0 0.0048 0.012 0 0.0052 0.012 0 0.0056 0.012 0 0.006 0.012 0 0 0.0124 0 0.0004 0.0124 0 0.0008 0.0124 0 0.0012 0.0124 0 0.0016 0.0124 0 0.002 0.0124 0 0.0024 0.0124 0 0.0028 0.0124 0 0.0032 0.0124 0 0.0036 0.0124 0 0.004 0.0124 0 0.0044 0.0124 0 0.0048 0.0124 0 0.0052 0.0124 0 0.0056 0.0124 0 0.006 0.0124 0 0 0.0128 0 0.0004 0.0128 0 0.0008 0.0128 0 0.0012 0.0128 0 0.0016 0.0128 0 0.002 0.0128 0 0.0024 0.0128 0 0.0028 0.0128 0 0.0032 0.0128 0 0.0036 0.0128 0 0.004 0.0128 0 0.0044 0.0128 0 0.0048 0.0128 0 0.0052 0.0128 0 0.0056 0.0128 0 0.006 0.0128 0 0 0.0132 0 0.0004 0.0132 0 0.0008 0.0132 0 0.0012 0.0132 0 0.0016 0.0132 0 0.002 0.0132 0 0.0024 0.0132 0 0.0028 0.0132 0 0.0032 0.0132 0 0.0036 0.0132 0 0.004 0.0132 0 0.0044 0.0132 0 0.0048 0.0132 0 0.0052 0.0132 0 0.0056 0.0132 0 0.006 0.0132 0 0 0.0136 0 0.0004 0.0136 0 0.0008 0.0136 0 0.0012 0.0136 0 0.0016 0.0136 0 0.002 0.0136 0 0.0024 0.0136 0 0.0028 0.0136 0 0.0032 0.0136 0 0.0036 0.0136 0 0.004 0.0136 0 0.0044 0.0136 0 0.0048 0.0136 0 0.0052 0.0136 0 0.0056 0.0136 0 0.006 0.0136 0 0 0.014 0 0.0004 0.014 0 0.0008 0.014 0 0.0012 0.014 0 0.0016 0.014 0 0.002 0.014 0 0.0024 0.014 0 0.0028 0.014 0 0.0032 0.014 0 0.0036 0.014 0 0.004 0.014 0 0.0044 0.014 0 0.0048 0.014 0 0.0052 0.014 0 0.0056 0.014 0 0.006 0.014 0 0 0.0144 0 0.0004 0.0144 0 0.0008 0.0144 0 0.0012 0.0144 0 0.0016 0.0144 0 0.002 0.0144 0 0.0024 0.0144 0 0.0028 0.0144 0 0.0032 0.0144 0 0.0036 0.0144 0 0.004 0.0144 0 0.0044 0.0144 0 0.0048 0.0144 0 0.0052 0.0144 0 0.0056 0.0144 0 0.006 0.0144 0 0 0.0148 0 0.0004 0.0148 0 0.0008 0.0148 0 0.0012 0.0148 0 0.0016 0.0148 0 0.002 0.0148 0 0.0024 0.0148 0 0.0028 0.0148 0 0.0032 0.0148 0 0.0036 0.0148 0 0.004 0.0148 0 0.0044 0.0148 0 0.0048 0.0148 0 0.0052 0.0148 0 0.0056 0.0148 0 0.006 0.0148 0 0 0.0152 0 0.0004 0.0152 0 0.0008 0.0152 0 0.0012 0.0152 0 0.0016 0.0152 0 0.002 0.0152 0 0.0024 0.0152 0 0.0028 0.0152 0 0.0032 0.0152 0 0.0036 0.0152 0 0.004 0.0152 0 0.0044 0.0152 0 0.0048 0.0152 0 0.0052 0.0152 0 0.0056 0.0152 0 0.006 0.0152 0 0 0.0156 0 0.0004 0.0156 0 0.0008 0.0156 0 0.0012 0.0156 0 0.0016 0.0156 0 0.002 0.0156 0 0.0024 0.0156 0 0.0028 0.0156 0 0.0032 0.0156 0 0.0036 0.0156 0 0.004 0.0156 0 0.0044 0.0156 0 0.0048 0.0156 0 0.0052 0.0156 0 0.0056 0.0156 0 0.006 0.0156 0 0 0.016 0 0.0004 0.016 0 0.0008 0.016 0 0.0012 0.016 0 0.0016 0.016 0 0.002 0.016 0 0.0024 0.016 0 0.0028 0.016 0 0.0032 0.016 0 0.0036 0.016 0 0.004 0.016 0 0.0044 0.016 0 0.0048 0.016 0 0.0052 0.016 0 0.0056 0.016 0 0.006 0.016 0 
</DataArray>
</Points> 
</Piece> 
</StructuredGrid> 
</VTKFile> 
