<?xml version="1.0"?> 
<VTKFile type="StructuredGrid" version="0.1"> 
<StructuredGrid WholeExtent="0 15 0 15 0 0"> 
<Piece Extent="0 15 0 15 0 0"> 
<PointData>
<DataArray type="Float32" Name="E" format="ascii" NumberOfComponents="3"> 
2.98023e-07 1.71661e-05 0 -4.07308e-08 811.661 0 2.69501e-08 404.096 0 2.56114e-09 194.334 0 -3.21306e-08 97.7544 0 3.35276e-08 52.3469 0 -3.63216e-08 28.7435 0 3.53903e-08 16.5579 0 -3.07336e-08 9.60938 0 2.04891e-08 5.69753 0 -1.86265e-08 3.38012 0 2.23517e-08 2.00684 0 -3.35276e-08 1.16942 0 2.98023e-08 0.642565 0 7.45058e-09 0.284143 0 -2.68221e-07 4.76837e-07 0 87.3569 -1.82539e-07 0 -15.6791 811.464 0 -10.5008 404.084 0 -6.57432 194.157 0 -3.5814 97.7021 0 -2.16235 52.2905 0 -1.24239 28.7156 0 -0.796988 16.5375 0 -0.487189 9.59621 0 -0.319952 5.68853 0 -0.203494 3.37392 0 -0.134375 2.00262 0 -0.0889186 1.16659 0 -0.0621919 0.640792 0 -0.0481733 0.283253 0 -0.0453231 -9.48785e-08 0 175.143 -1.40443e-06 0 -31.434 810.864 0 -20.9964 404.051 0 -13.1358 193.625 0 -7.1585 97.5465 0 -4.31863 52.1207 0 -2.48183 28.6323 0 -1.59179 16.4761 0 -0.972713 9.55681 0 -0.638931 5.66156 0 -0.406121 3.35537 0 -0.268208 1.98999 0 -0.177379 1.15813 0 -0.124046 0.635482 0 -0.0960411 0.280589 0 -0.0903245 1.81142e-07 0 263.791 1.33365e-06 0 -47.3401 809.839 0 -31.4823 404.009 0 -19.6711 192.732 0 -10.7274 97.292 0 -6.46254 51.836 0 -3.71554 28.4948 0 -2.38215 16.3735 0 -1.45495 9.49149 0 -0.955956 5.61664 0 -0.607025 3.32457 0 -0.400962 1.96899 0 -0.264925 1.14408 0 -0.185225 0.626662 0 -0.143299 0.27617 0 -0.134685 -1.53668e-07 0 353.737 -8.9407e-07 0 -63.4714 808.348 0 -41.9546 403.975 0 -26.1659 191.468 0 -14.2849 96.9458 0 -8.58729 51.4337 0 -4.94107 28.3054 0 -3.16567 16.2294 0 -1.93237 9.40079 0 -1.27002 5.55386 0 -0.805361 3.28168 0 -0.532103 1.93972 0 -0.351104 1.12452 0 -0.245402 0.614381 0 -0.189648 0.270028 0 -0.178087 2.55182e-07 0 445.43 1.3113e-06 0 -79.9005 806.335 0 -52.4112 403.976 0 -32.6044 189.816 0 -17.8291 96.5184 0 -10.6853 50.9096 0 -6.15654 28.0672 0 -3.93967 16.0431 0 -2.4036 9.28552 0 -1.58009 5.47329 0 -1.00032 3.22696 0 -0.661105 1.90227 0 -0.435467 1.09956 0 -0.304252 0.598702 0 -0.234792 0.262206 0 -0.22022 -1.86265e-07 0 539.327 -2.98023e-07 0 -96.6976 803.728 0 -62.8518 404.045 0 -38.9687 187.758 0 -21.3599 96.0236 0 -12.7479 50.2582 0 -7.36086 27.7844 0 -4.70112 15.8137 0 -2.86754 9.14677 0 -1.88503 5.37498 0 -1.19115 3.16072 0 -0.78744 1.85679 0 -0.517578 1.06935 0 -0.361463 0.579706 0 -0.278443 0.252762 0 -0.260774 7.07805e-08 0 635.902 -5.96046e-07 0 -113.93 800.437 0 -73.279 404.227 0 -45.2383 185.269 0 -24.8795 95.4788 0 -14.7649 49.4722 0 -8.55409 27.4627 0 -5.44634 15.5398 0 -3.32345 8.98596 0 -2.18357 5.25896 0 -1.37717 3.08337 0 -0.910569 1.80344 0 -0.597022 1.03407 0 -0.41673 0.557491 0 -0.320323 0.241765 0 -0.299446 -7.45058e-09 0 735.645 -1.19209e-07 0 -131.66 796.355 0 -83.6989 404.574 0 -51.3889 182.318 0 -28.393 94.9059 0 -16.7238 48.5424 0 -9.73786 27.109 0 -6.17082 15.2196 0 -3.77118 8.80492 0 -2.47419 5.1252 0 -1.55789 2.99542 0 -1.02991 1.74241 0 -0.673413 0.993902 0 -0.469755 0.532174 0 -0.36017 0.229293 0 -0.335936 0 0 839.067 2.6226e-06 0 -149.949 791.354 0 -94.1216 405.147 0 -57.392 178.867 0 -31.9095 94.3311 0 -18.6096 47.4568 0 -10.9159 26.7322 0 -6.86877 14.8503 0 -4.2114 8.60594 0 -2.75497 4.97357 0 -1.73305 2.89745 0 -1.14481 1.67393 0 -0.746429 0.949076 0 -0.520238 0.503899 0 -0.397739 0.215429 0 -0.369947 -6.70552e-08 0 946.706 -3.21865e-06 0 -168.848 785.29 0 -104.563 406.019 0 -63.2135 174.875 0 -35.4431 93.786 0 -20.4034 46.201 0 -12.0949 26.343 0 -7.53263 14.4286 0 -4.64603 8.39189 0 -3.02333 4.80382 0 -1.90277 2.79012 0 -1.25444 1.59825 0 -0.81585 0.899795 0 -0.567856 0.472855 0 -0.432812 0.200239 0 -0.401198 1.3411e-07 0 1059.13 1.66893e-06 0 -188.405 777.998 0 -115.044 407.277 0 -68.8126 170.287 0 -39.0138 93.3081 0 -22.0818 44.7567 0 -13.2852 25.9547 0 -8.15233 13.9498 0 -5.07871 8.16624 0 -3.27572 4.61557 0 -2.06783 2.67414 0 -1.35768 1.51576 0 -0.881631 0.84621 0 -0.612239 0.439317 0 -0.46521 0.18374 0 -0.429457 -8.9407e-08 0 1176.92 -7.15256e-07 0 -208.659 769.289 0 -125.596 409.018 0 -74.1405 165.045 0 -42.6494 92.9412 0 -23.6151 43.1019 0 -14.5021 25.5832 0 -8.71434 13.4081 0 -5.51559 7.93319 0 -3.50705 4.40834 0 -2.22996 2.5502 0 -1.45291 1.427 0 -0.94402 0.788321 0 -0.652908 0.403731 0 -0.494796 0.165825 0 -0.454637 4.47035e-08 0 1300.72 4.76837e-07 0 -229.641 758.955 0 -136.257 411.353 0 -79.1383 159.079 0 -46.387 92.7369 0 -24.9658 41.2097 0 -15.7677 25.2478 0 -9.20036 12.7958 0 -5.96636 7.6977 0 -3.71 4.18157 0 -2.39239 2.4188 0 -1.53769 1.33288 0 -1.00375 0.725803 0 -0.689194 0.366876 0 -0.521481 0.146103 0 -0.477038 -2.38419e-07 0 1431.18 -7.15256e-07 0 -251.371 746.762 0 -147.077 414.411 0 -83.7355 152.307 0 -50.2752 92.7551 0 -26.0867 39.048 0 -17.1124 24.9713 0 -9.5856 12.1038 0 -6.4456 7.4655 0 -3.87389 3.9348 0 -2.56059 2.28 0 -1.60825 1.23497 0 -1.06235 0.657692 0 -0.7201 0.330178 0 -0.545185 0.123599 0 -0.497898 2.98023e-08 0 1569.03 1.90735e-06 0 -273.858 732.456 0 -158.119 418.333 0 -87.8474 144.639 0 -54.3769 93.0641 0 -26.9178 36.5787 0 -18.5779 24.7805 0 -9.83652 11.3209 0 -6.97478 7.24292 0 -3.98323 3.668 0 -2.7434 2.13302 0 -1.65875 1.13594 0 -1.12256 0.581869 0 -0.744097 0.29623 0 -0.56572 0.0962154 0 -0.52062 9.53674e-07 0 </DataArray> 
</PointData> 
<Points> 
<DataArray type="Float32" NumberOfComponents="3"> 
0.125 0.02 0 0.129 0.02 0 0.133 0.02 0 0.137 0.02 0 0.141 0.02 0 0.145 0.02 0 0.149 0.02 0 0.153 0.02 0 0.157 0.02 0 0.161 0.02 0 0.165 0.02 0 0.169 0.02 0 0.173 0.02 0 0.177 0.02 0 0.181 0.02 0 0.185 0.02 0 0.125 0.0200667 0 0.129 0.0201067 0 0.133 0.0201467 0 0.137 0.0201867 0 0.141 0.0202267 0 0.145 0.0202667 0 0.149 0.0203067 0 0.153 0.0203467 0 0.157 0.0203867 0 0.161 0.0204267 0 0.165 0.0204667 0 0.169 0.0205067 0 0.173 0.0205467 0 0.177 0.0205867 0 0.181 0.0206267 0 0.185 0.0206667 0 0.125 0.0201333 0 0.129 0.0202133 0 0.133 0.0202933 0 0.137 0.0203733 0 0.141 0.0204533 0 0.145 0.0205333 0 0.149 0.0206133 0 0.153 0.0206933 0 0.157 0.0207733 0 0.161 0.0208533 0 0.165 0.0209333 0 0.169 0.0210133 0 0.173 0.0210933 0 0.177 0.0211733 0 0.181 0.0212533 0 0.185 0.0213333 0 0.125 0.0202 0 0.129 0.02032 0 0.133 0.02044 0 0.137 0.02056 0 0.141 0.02068 0 0.145 0.0208 0 0.149 0.02092 0 0.153 0.02104 0 0.157 0.02116 0 0.161 0.02128 0 0.165 0.0214 0 0.169 0.02152 0 0.173 0.02164 0 0.177 0.02176 0 0.181 0.02188 0 0.185 0.022 0 0.125 0.0202667 0 0.129 0.0204267 0 0.133 0.0205867 0 0.137 0.0207467 0 0.141 0.0209067 0 0.145 0.0210667 0 0.149 0.0212267 0 0.153 0.0213867 0 0.157 0.0215467 0 0.161 0.0217067 0 0.165 0.0218667 0 0.169 0.0220267 0 0.173 0.0221867 0 0.177 0.0223467 0 0.181 0.0225067 0 0.185 0.0226667 0 0.125 0.0203333 0 0.129 0.0205333 0 0.133 0.0207333 0 0.137 0.0209333 0 0.141 0.0211333 0 0.145 0.0213333 0 0.149 0.0215333 0 0.153 0.0217333 0 0.157 0.0219333 0 0.161 0.0221333 0 0.165 0.0223333 0 0.169 0.0225333 0 0.173 0.0227333 0 0.177 0.0229333 0 0.181 0.0231333 0 0.185 0.0233333 0 0.125 0.0204 0 0.129 0.02064 0 0.133 0.02088 0 0.137 0.02112 0 0.141 0.02136 0 0.145 0.0216 0 0.149 0.02184 0 0.153 0.02208 0 0.157 0.02232 0 0.161 0.02256 0 0.165 0.0228 0 0.169 0.02304 0 0.173 0.02328 0 0.177 0.02352 0 0.181 0.02376 0 0.185 0.024 0 0.125 0.0204667 0 0.129 0.0207467 0 0.133 0.0210267 0 0.137 0.0213067 0 0.141 0.0215867 0 0.145 0.0218667 0 0.149 0.0221467 0 0.153 0.0224267 0 0.157 0.0227067 0 0.161 0.0229867 0 0.165 0.0232667 0 0.169 0.0235467 0 0.173 0.0238267 0 0.177 0.0241067 0 0.181 0.0243867 0 0.185 0.0246667 0 0.125 0.0205333 0 0.129 0.0208533 0 0.133 0.0211733 0 0.137 0.0214933 0 0.141 0.0218133 0 0.145 0.0221333 0 0.149 0.0224533 0 0.153 0.0227733 0 0.157 0.0230933 0 0.161 0.0234133 0 0.165 0.0237333 0 0.169 0.0240533 0 0.173 0.0243733 0 0.177 0.0246933 0 0.181 0.0250133 0 0.185 0.0253333 0 0.125 0.0206 0 0.129 0.02096 0 0.133 0.02132 0 0.137 0.02168 0 0.141 0.02204 0 0.145 0.0224 0 0.149 0.02276 0 0.153 0.02312 0 0.157 0.02348 0 0.161 0.02384 0 0.165 0.0242 0 0.169 0.02456 0 0.173 0.02492 0 0.177 0.02528 0 0.181 0.02564 0 0.185 0.026 0 0.125 0.0206667 0 0.129 0.0210667 0 0.133 0.0214667 0 0.137 0.0218667 0 0.141 0.0222667 0 0.145 0.0226667 0 0.149 0.0230667 0 0.153 0.0234667 0 0.157 0.0238667 0 0.161 0.0242667 0 0.165 0.0246667 0 0.169 0.0250667 0 0.173 0.0254667 0 0.177 0.0258667 0 0.181 0.0262667 0 0.185 0.0266667 0 0.125 0.0207333 0 0.129 0.0211733 0 0.133 0.0216133 0 0.137 0.0220533 0 0.141 0.0224933 0 0.145 0.0229333 0 0.149 0.0233733 0 0.153 0.0238133 0 0.157 0.0242533 0 0.161 0.0246933 0 0.165 0.0251333 0 0.169 0.0255733 0 0.173 0.0260133 0 0.177 0.0264533 0 0.181 0.0268933 0 0.185 0.0273333 0 0.125 0.0208 0 0.129 0.02128 0 0.133 0.02176 0 0.137 0.02224 0 0.141 0.02272 0 0.145 0.0232 0 0.149 0.02368 0 0.153 0.02416 0 0.157 0.02464 0 0.161 0.02512 0 0.165 0.0256 0 0.169 0.02608 0 0.173 0.02656 0 0.177 0.02704 0 0.181 0.02752 0 0.185 0.028 0 0.125 0.0208667 0 0.129 0.0213867 0 0.133 0.0219067 0 0.137 0.0224267 0 0.141 0.0229467 0 0.145 0.0234667 0 0.149 0.0239867 0 0.153 0.0245067 0 0.157 0.0250267 0 0.161 0.0255467 0 0.165 0.0260667 0 0.169 0.0265867 0 0.173 0.0271067 0 0.177 0.0276267 0 0.181 0.0281467 0 0.185 0.0286667 0 0.125 0.0209333 0 0.129 0.0214933 0 0.133 0.0220533 0 0.137 0.0226133 0 0.141 0.0231733 0 0.145 0.0237333 0 0.149 0.0242933 0 0.153 0.0248533 0 0.157 0.0254133 0 0.161 0.0259733 0 0.165 0.0265333 0 0.169 0.0270933 0 0.173 0.0276533 0 0.177 0.0282133 0 0.181 0.0287733 0 0.185 0.0293333 0 0.125 0.021 0 0.129 0.0216 0 0.133 0.0222 0 0.137 0.0228 0 0.141 0.0234 0 0.145 0.024 0 0.149 0.0246 0 0.153 0.0252 0 0.157 0.0258 0 0.161 0.0264 0 0.165 0.027 0 0.169 0.0276 0 0.173 0.0282 0 0.177 0.0288 0 0.181 0.0294 0 0.185 0.03 0 
</DataArray>
</Points> 
</Piece> 
</StructuredGrid> 
</VTKFile> 
