<?xml version="1.0"?> 
<VTKFile type="StructuredGrid" version="0.1"> 
<StructuredGrid WholeExtent="0 15 0 15 0 0"> 
<Piece Extent="0 15 0 15 0 0"> 
<PointData>
<DataArray type="Float32" Name="E" format="ascii" NumberOfComponents="3"> 
1142.14 2845.99 0 -293.257 861.779 0 -144.213 325.628 0 -94.7011 190.33 0 -51.2151 71.9852 0 -28.3382 46.0479 0 -17.9651 20.6955 0 -10.0894 13.0067 0 -6.87725 6.59275 0 -4.0166 3.89043 0 -2.73458 2.07424 0 -1.65897 1.13744 0 -1.12467 0.595946 0 -0.741608 0.279637 0 -0.568066 0.111855 0 -0.52062 -7.15256e-07 0 -49.053 2079.1 0 -356.323 755.412 0 -201.614 305.838 0 -108.799 153.464 0 -58.3414 67.5776 0 -31.4847 38.5195 0 -19.1536 19.2978 0 -10.9534 11.3138 0 -7.14524 6.05912 0 -4.25238 3.45626 0 -2.80503 1.879 0 -1.72102 1.01755 0 -1.14514 0.531224 0 -0.759272 0.249903 0 -0.576399 0.0960953 0 -0.524892 2.87313e-07 0 -629.646 1732.13 0 -449.432 642.364 0 -238.817 261.553 0 -120.508 125.176 0 -63.1961 58.8039 0 -33.9033 32.6923 0 -20.1082 17.1519 0 -11.6184 9.89348 0 -7.38491 5.40785 0 -4.43577 3.05657 0 -2.86989 1.66949 0 -1.76975 0.898837 0 -1.16405 0.466802 0 -0.773456 0.218249 0 -0.584001 0.0822338 0 -0.529278 7.54371e-08 0 -983.038 1416.24 0 -527.62 517.49 0 -262.531 209.34 0 -128.24 99.3953 0 -66.2566 48.9668 0 -35.5947 27.3776 0 -20.8126 14.825 0 -12.1207 8.54482 0 -7.577 4.72743 0 -4.57932 2.664 0 -2.92287 1.45611 0 -1.80858 0.78001 0 -1.17965 0.402255 0 -0.785052 0.186124 0 -0.590443 0.0687703 0 -0.533069 -1.67638e-08 0 -1203.92 1084.24 0 -579.029 385.463 0 -274.539 155.121 0 -131.862 75.1652 0 -67.7449 39.0585 0 -36.6074 22.3511 0 -21.2733 12.4726 0 -12.4751 7.23138 0 -7.71841 4.0417 0 -4.68639 2.27441 0 -2.96291 1.24198 0 -1.8382 0.661173 0 -1.19164 0.337667 0 -0.794206 0.153914 0 -0.595639 0.0553982 0 -0.536134 -2.38419e-07 0 -1323.29 745.34 0 -601.29 252.786 0 -275.859 102.177 0 -131.686 52.646 0 -67.8415 29.5016 0 -37.0116 17.5994 0 -21.5012 10.1528 0 -12.6949 5.95334 0 -7.8084 3.35914 0 -4.75937 1.88894 0 -2.98966 1.02846 0 -1.85898 0.542745 0 -1.19996 0.273263 0 -0.800961 0.121727 0 -0.59957 0.0421276 0 -0.538418 1.86265e-07 0 -1357.7 415.794 0 -595.656 125.67 0 -267.633 52.9004 0 -128.209 32.1784 0 -66.736 20.5549 0 -36.8819 13.1409 0 -21.5116 7.90253 0 -12.792 4.71532 0 -7.84747 2.68588 0 -4.8004 1.50922 0 -3.003 0.816665 0 -1.87129 0.425165 0 -1.20455 0.209263 0 -0.805357 0.0896484 0 -0.602223 0.0289898 0 -0.539878 2.01166e-07 0 -1320.4 109.966 0 -565.086 9.47862 0 -251.292 9.14066 0 -122.031 14.0697 0 -64.6295 12.3903 0 -36.2939 8.99532 0 -21.3227 5.74944 0 -12.7779 3.52222 0 -7.83683 2.02711 0 -4.81155 1.13684 0 -3.00288 0.607636 0 -1.87549 0.308859 0 -1.20535 0.145888 0 -0.807446 0.0577583 0 -0.603584 0.016023 0 -0.540465 -4.47035e-08 0 -1224.17 -161.06 0 -513.469 -91.4211 0 -228.551 -27.7356 0 -113.8 -1.48102 0 -61.7301 5.12142 0 -35.3192 5.17109 0 -20.9568 3.71796 0 -12.6625 2.37638 0 -7.77893 1.38842 0 -4.79453 0.772839 0 -2.98956 0.40251 0 -1.87189 0.194215 0 -1.20239 0.0833164 0 -0.807274 0.0261854 0 -0.603645 0.00320792 0 -0.540147 -1.78814e-07 0 -1081.84 -389.505 0 -445.17 -173.582 0 -201.351 -56.8963 0 -104.17 -14.3753 0 -58.244 -1.20497 0 -34.0238 1.67511 0 -20.4383 1.82464 0 -12.4541 1.28031 0 -7.67741 0.774514 0 -4.75055 0.418187 0 -2.96363 0.202356 0 -1.86069 0.0815958 0 -1.19573 0.0217176 0 -0.804864 -0.00494083 0 -0.602406 -0.00948152 0 -0.538919 3.57628e-07 0 -905.679 -571.216 0 -364.806 -234.366 0 -171.798 -78.0758 0 -93.7519 -24.6177 0 -54.3696 -6.59927 0 -32.4644 -1.49021 0 -19.7958 0.0814471 0 -12.1578 0.23472 0 -7.53803 0.190434 0 -4.67963 0.0732423 0 -2.92642 0.00836702 0 -1.84171 -0.0286617 0 -1.18566 -0.0388222 0 -0.80016 -0.0353799 0 -0.599891 -0.0221971 0 -0.536883 -3.27826e-07 0 -706.921 -705.289 0 -277.119 -271.604 0 -142.072 -91.8118 0 -83.0903 -32.1545 0 -50.2721 -11.2177 0 -30.7022 -4.26772 0 -19.0504 -1.53617 0 -11.7814 -0.744489 0 -7.36524 -0.366554 0 -4.58244 -0.258809 0 -2.87913 -0.179325 0 -1.81483 -0.136057 0 -1.17248 -0.0981188 0 -0.793085 -0.0650932 0 -0.596143 -0.0348722 0 -0.534171 2.38419e-07 0 -491.791 -796.215 0 -187.38 -283.579 0 -114.261 -99.3955 0 -72.6418 -36.8713 0 -46.0678 -15.3571 0 -28.8122 -6.53467 0 -18.2092 -3.09713 0 -11.3403 -1.62065 0 -7.1595 -0.909907 0 -4.46157 -0.570555 0 -2.82211 -0.362165 0 -1.78033 -0.239834 0 -1.15637 -0.15581 0 -0.783618 -0.0943795 0 -0.591202 -0.0470619 0 -0.530906 -3.8743e-07 0 -256.062 -858.515 0 -102.328 -269.815 0 -90.0147 -102.338 0 -62.839 -38.8002 0 -41.7478 -19.3636 0 -26.9434 -8.11434 0 -17.2187 -4.72378 0 -10.888 -2.32394 0 -6.89757 -1.47266 0 -4.33344 -0.845497 0 -2.74818 -0.545151 0 -1.74244 -0.338624 0 -1.13556 -0.210945 0 -0.772619 -0.124599 0 -0.584884 -0.0570928 0 -0.526255 1.49012e-07 0 54.7663 -946.171 0 -35.2813 -236.426 0 -69.5714 -97.7434 0 -54.0588 -40.9451 0 -37.3192 -21.9884 0 -25.2 -9.65341 0 -16.0429 -6.14466 0 -10.4712 -2.96563 0 -6.55615 -2.01136 0 -4.21633 -1.09712 0 -2.64822 -0.72346 0 -1.7069 -0.433186 0 -1.10736 -0.263162 0 -0.761479 -0.155758 0 -0.576807 -0.0648378 0 -0.518768 4.17233e-07 0 723.143 -1398.97 0 -26.8068 -231.265 0 -48.5874 -46.0523 0 -46.0921 -69.9014 0 -33.904 -8.14038 0 -22.6989 -19.481 0 -15.3247 -3.04535 0 -9.71107 -5.66847 0 -6.36001 -1.55208 0 -3.99139 -1.72726 0 -2.58555 -0.759058 0 -1.64277 -0.547925 0 -1.08677 -0.33012 0 -0.743738 -0.156081 0 -0.568663 -0.106345 0 -0.515158 -5.96046e-06 0 </DataArray> 
</PointData> 
<Points> 
<DataArray type="Float32" NumberOfComponents="3"> 
0.125 0.021 0 0.129 0.0216 0 0.133 0.0222 0 0.137 0.0228 0 0.141 0.0234 0 0.145 0.024 0 0.149 0.0246 0 0.153 0.0252 0 0.157 0.0258 0 0.161 0.0264 0 0.165 0.027 0 0.169 0.0276 0 0.173 0.0282 0 0.177 0.0288 0 0.181 0.0294 0 0.185 0.03 0 0.125333 0.0219333 0 0.129311 0.0224933 0 0.133289 0.0230533 0 0.137267 0.0236133 0 0.141244 0.0241733 0 0.145222 0.0247333 0 0.1492 0.0252933 0 0.153178 0.0258533 0 0.157156 0.0264133 0 0.161133 0.0269733 0 0.165111 0.0275333 0 0.169089 0.0280933 0 0.173067 0.0286533 0 0.177044 0.0292133 0 0.181022 0.0297733 0 0.185 0.0303333 0 0.125667 0.0228667 0 0.129622 0.0233867 0 0.133578 0.0239067 0 0.137533 0.0244267 0 0.141489 0.0249467 0 0.145444 0.0254667 0 0.1494 0.0259867 0 0.153356 0.0265067 0 0.157311 0.0270267 0 0.161267 0.0275467 0 0.165222 0.0280667 0 0.169178 0.0285867 0 0.173133 0.0291067 0 0.177089 0.0296267 0 0.181044 0.0301467 0 0.185 0.0306667 0 0.126 0.0238 0 0.129933 0.02428 0 0.133867 0.02476 0 0.1378 0.02524 0 0.141733 0.02572 0 0.145667 0.0262 0 0.1496 0.02668 0 0.153533 0.02716 0 0.157467 0.02764 0 0.1614 0.02812 0 0.165333 0.0286 0 0.169267 0.02908 0 0.1732 0.02956 0 0.177133 0.03004 0 0.181067 0.03052 0 0.185 0.031 0 0.126333 0.0247333 0 0.130244 0.0251733 0 0.134156 0.0256133 0 0.138067 0.0260533 0 0.141978 0.0264933 0 0.145889 0.0269333 0 0.1498 0.0273733 0 0.153711 0.0278133 0 0.157622 0.0282533 0 0.161533 0.0286933 0 0.165444 0.0291333 0 0.169356 0.0295733 0 0.173267 0.0300133 0 0.177178 0.0304533 0 0.181089 0.0308933 0 0.185 0.0313333 0 0.126667 0.0256667 0 0.130556 0.0260667 0 0.134444 0.0264667 0 0.138333 0.0268667 0 0.142222 0.0272667 0 0.146111 0.0276667 0 0.15 0.0280667 0 0.153889 0.0284667 0 0.157778 0.0288667 0 0.161667 0.0292667 0 0.165556 0.0296667 0 0.169444 0.0300667 0 0.173333 0.0304667 0 0.177222 0.0308667 0 0.181111 0.0312667 0 0.185 0.0316667 0 0.127 0.0266 0 0.130867 0.02696 0 0.134733 0.02732 0 0.1386 0.02768 0 0.142467 0.02804 0 0.146333 0.0284 0 0.1502 0.02876 0 0.154067 0.02912 0 0.157933 0.02948 0 0.1618 0.02984 0 0.165667 0.0302 0 0.169533 0.03056 0 0.1734 0.03092 0 0.177267 0.03128 0 0.181133 0.03164 0 0.185 0.032 0 0.127333 0.0275333 0 0.131178 0.0278533 0 0.135022 0.0281733 0 0.138867 0.0284933 0 0.142711 0.0288133 0 0.146556 0.0291333 0 0.1504 0.0294533 0 0.154244 0.0297733 0 0.158089 0.0300933 0 0.161933 0.0304133 0 0.165778 0.0307333 0 0.169622 0.0310533 0 0.173467 0.0313733 0 0.177311 0.0316933 0 0.181156 0.0320133 0 0.185 0.0323333 0 0.127667 0.0284667 0 0.131489 0.0287467 0 0.135311 0.0290267 0 0.139133 0.0293067 0 0.142956 0.0295867 0 0.146778 0.0298667 0 0.1506 0.0301467 0 0.154422 0.0304267 0 0.158244 0.0307067 0 0.162067 0.0309867 0 0.165889 0.0312667 0 0.169711 0.0315467 0 0.173533 0.0318267 0 0.177356 0.0321067 0 0.181178 0.0323867 0 0.185 0.0326667 0 0.128 0.0294 0 0.1318 0.02964 0 0.1356 0.02988 0 0.1394 0.03012 0 0.1432 0.03036 0 0.147 0.0306 0 0.1508 0.03084 0 0.1546 0.03108 0 0.1584 0.03132 0 0.1622 0.03156 0 0.166 0.0318 0 0.1698 0.03204 0 0.1736 0.03228 0 0.1774 0.03252 0 0.1812 0.03276 0 0.185 0.033 0 0.128333 0.0303333 0 0.132111 0.0305333 0 0.135889 0.0307333 0 0.139667 0.0309333 0 0.143444 0.0311333 0 0.147222 0.0313333 0 0.151 0.0315333 0 0.154778 0.0317333 0 0.158556 0.0319333 0 0.162333 0.0321333 0 0.166111 0.0323333 0 0.169889 0.0325333 0 0.173667 0.0327333 0 0.177444 0.0329333 0 0.181222 0.0331333 0 0.185 0.0333333 0 0.128667 0.0312667 0 0.132422 0.0314267 0 0.136178 0.0315867 0 0.139933 0.0317467 0 0.143689 0.0319067 0 0.147444 0.0320667 0 0.1512 0.0322267 0 0.154956 0.0323867 0 0.158711 0.0325467 0 0.162467 0.0327067 0 0.166222 0.0328667 0 0.169978 0.0330267 0 0.173733 0.0331867 0 0.177489 0.0333467 0 0.181244 0.0335067 0 0.185 0.0336667 0 0.129 0.0322 0 0.132733 0.03232 0 0.136467 0.03244 0 0.1402 0.03256 0 0.143933 0.03268 0 0.147667 0.0328 0 0.1514 0.03292 0 0.155133 0.03304 0 0.158867 0.03316 0 0.1626 0.03328 0 0.166333 0.0334 0 0.170067 0.03352 0 0.1738 0.03364 0 0.177533 0.03376 0 0.181267 0.03388 0 0.185 0.034 0 0.129333 0.0331333 0 0.133044 0.0332133 0 0.136756 0.0332933 0 0.140467 0.0333733 0 0.144178 0.0334533 0 0.147889 0.0335333 0 0.1516 0.0336133 0 0.155311 0.0336933 0 0.159022 0.0337733 0 0.162733 0.0338533 0 0.166444 0.0339333 0 0.170156 0.0340133 0 0.173867 0.0340933 0 0.177578 0.0341733 0 0.181289 0.0342533 0 0.185 0.0343333 0 0.129667 0.0340667 0 0.133356 0.0341067 0 0.137044 0.0341467 0 0.140733 0.0341867 0 0.144422 0.0342267 0 0.148111 0.0342667 0 0.1518 0.0343067 0 0.155489 0.0343467 0 0.159178 0.0343867 0 0.162867 0.0344267 0 0.166556 0.0344667 0 0.170244 0.0345067 0 0.173933 0.0345467 0 0.177622 0.0345867 0 0.181311 0.0346267 0 0.185 0.0346667 0 0.13 0.035 0 0.133667 0.035 0 0.137333 0.035 0 0.141 0.035 0 0.144667 0.035 0 0.148333 0.035 0 0.152 0.035 0 0.155667 0.035 0 0.159333 0.035 0 0.163 0.035 0 0.166667 0.035 0 0.170333 0.035 0 0.174 0.035 0 0.177667 0.035 0 0.181333 0.035 0 0.185 0.035 0 
</DataArray>
</Points> 
</Piece> 
</StructuredGrid> 
</VTKFile> 
