<?xml version="1.0"?> 
<VTKFile type="StructuredGrid" version="0.1"> 
<StructuredGrid WholeExtent="0 15 0 15 0 0"> 
<Piece Extent="0 15 0 15 0 0"> 
<PointData>
<DataArray type="Float32" Name="E" format="ascii" NumberOfComponents="3"> 
-3.79284e+06 -1.20658e+06 0 -3.45827e+06 -2.02277e+06 0 -3.31295e+06 -1.32798e+06 0 -3.25562e+06 -743701 0 -3.23029e+06 -379096 0 -3.21722e+06 -77213.7 0 -3.21602e+06 228775 0 -3.22738e+06 531237 0 -3.24993e+06 828626 0 -3.28227e+06 1.12847e+06 0 -3.32593e+06 1.43074e+06 0 -3.37979e+06 1.79521e+06 0 -3.45076e+06 2.18137e+06 0 -3.54275e+06 2.49549e+06 0 -3.69905e+06 3.55566e+06 0 -4.57345e+06 1.69822e+07 0 -3.21791e+06 -1.95228e+06 0 -3.13301e+06 -1.17045e+06 0 -3.14943e+06 -638839 0 -3.15229e+06 -300800 0 -3.14362e+06 -13534.6 0 -3.14427e+06 275249 0 -3.15816e+06 562432 0 -3.18039e+06 844650 0 -3.20899e+06 1.12869e+06 0 -3.24568e+06 1.42918e+06 0 -3.28703e+06 1.74351e+06 0 -3.34577e+06 2.0947e+06 0 -3.37662e+06 2.55007e+06 0 -3.49831e+06 3.15919e+06 0 -2.98163e+06 4.39938e+06 0 5678.5 3.1735e+06 0 -3.02386e+06 -836776 0 -3.07768e+06 -451779 0 -3.07907e+06 -181357 0 -3.069e+06 82011.7 0 -3.07365e+06 356211 0 -3.09115e+06 627949 0 -3.1134e+06 895138 0 -3.13869e+06 1.16493e+06 0 -3.16967e+06 1.44886e+06 0 -3.20334e+06 1.74718e+06 0 -3.24307e+06 2.07946e+06 0 -3.2611e+06 2.49898e+06 0 -3.27609e+06 2.92679e+06 0 -2.95237e+06 3.90943e+06 0 -1.44998e+06 4.44714e+06 0 -573155 3.41835e+06 0 -3.01294e+06 -275903 0 -2.99675e+06 -41904.9 0 -2.99225e+06 212867 0 -3.00645e+06 473277 0 -3.02777e+06 727543 0 -3.04875e+06 978770 0 -3.07065e+06 1.23488e+06 0 -3.09648e+06 1.50442e+06 0 -3.12287e+06 1.79058e+06 0 -3.14699e+06 2.1038e+06 0 -3.15113e+06 2.47624e+06 0 -3.10877e+06 2.86039e+06 0 -2.82924e+06 3.62596e+06 0 -1.8399e+06 4.07472e+06 0 -850516 3.46646e+06 0 -618942 2.84838e+06 0 -2.91222e+06 141425 0 -2.92594e+06 382169 0 -2.94813e+06 623022 0 -2.9682e+06 859333 0 -2.9852e+06 1.09653e+06 0 -3.00347e+06 1.34118e+06 0 -3.02433e+06 1.59856e+06 0 -3.04292e+06 1.8715e+06 0 -3.05316e+06 2.16475e+06 0 -3.03859e+06 2.50003e+06 0 -2.95401e+06 2.86935e+06 0 -2.66637e+06 3.45282e+06 0 -1.94063e+06 3.76091e+06 0 -1.1504e+06 3.3939e+06 0 -784936 2.79972e+06 0 -624219 2.2727e+06 0 -2.87489e+06 578562 0 -2.89332e+06 805576 0 -2.90721e+06 1.02803e+06 0 -2.92036e+06 1.25341e+06 0 -2.93586e+06 1.487e+06 0 -2.95143e+06 1.7314e+06 0 -2.96062e+06 1.98866e+06 0 -2.95497e+06 2.26315e+06 0 -2.91387e+06 2.57226e+06 0 -2.78608e+06 2.91878e+06 0 -2.47973e+06 3.34377e+06 0 -1.90807e+06 3.51195e+06 0 -1.31042e+06 3.23571e+06 0 -967534 2.78488e+06 0 -805382 2.34422e+06 0 -707590 1.9173e+06 0 -2.8326e+06 1.03209e+06 0 -2.84325e+06 1.23759e+06 0 -2.85489e+06 1.44952e+06 0 -2.86718e+06 1.67075e+06 0 -2.87467e+06 1.90068e+06 0 -2.86974e+06 2.1423e+06 0 -2.84085e+06 2.40075e+06 0 -2.76259e+06 2.68451e+06 0 -2.58921e+06 2.98187e+06 0 -2.27195e+06 3.25619e+06 0 -1.81175e+06 3.29726e+06 0 -1.37457e+06 3.05048e+06 0 -1.10208e+06 2.69222e+06 0 -949101 2.31369e+06 0 -849452 1.9328e+06 0 -782227 1.56925e+06 0 -2.78021e+06 1.48178e+06 0 -2.78782e+06 1.68171e+06 0 -2.7921e+06 1.89234e+06 0 -2.78437e+06 2.10763e+06 0 -2.756e+06 2.33423e+06 0 -2.69253e+06 2.57165e+06 0 -2.56898e+06 2.81152e+06 0 -2.35734e+06 3.02393e+06 0 -2.05082e+06 3.15181e+06 0 -1.69247e+06 3.08843e+06 0 -1.3888e+06 2.85044e+06 0 -1.19322e+06 2.54811e+06 0 -1.06651e+06 2.22038e+06 0 -975811 1.88366e+06 0 -910146 1.55542e+06 0 -854031 1.23185e+06 0 -2.70668e+06 1.95289e+06 0 -2.69503e+06 2.1569e+06 0 -2.66024e+06 2.34981e+06 0 -2.5968e+06 2.55165e+06 0 -2.4906e+06 2.74351e+06 0 -2.32614e+06 2.90344e+06 0 -2.10066e+06 3.00192e+06 0 -1.83695e+06 3.0005e+06 0 -1.58272e+06 2.86466e+06 0 -1.38943e+06 2.63231e+06 0 -1.25939e+06 2.36318e+06 0 -1.16162e+06 2.07261e+06 0 -1.08475e+06 1.77584e+06 0 -1.02674e+06 1.48454e+06 0 -976608 1.19035e+06 0 -914709 890603 0 -2.55036e+06 2.45604e+06 0 -2.47385e+06 2.58856e+06 0 -2.37176e+06 2.74174e+06 0 -2.23034e+06 2.84689e+06 0 -2.05129e+06 2.89605e+06 0 -1.85333e+06 2.8816e+06 0 -1.66525e+06 2.78836e+06 0 -1.51226e+06 2.61258e+06 0 -1.40159e+06 2.38433e+06 0 -1.31588e+06 2.13398e+06 0 -1.24028e+06 1.87306e+06 0 -1.17867e+06 1.61422e+06 0 -1.1331e+06 1.35769e+06 0 -1.09216e+06 1.08918e+06 0 -1.03265e+06 804753 0 -929502 523014 0 -2.20549e+06 2.70921e+06 0 -2.09173e+06 2.82104e+06 0 -1.94768e+06 2.80008e+06 0 -1.8019e+06 2.7462e+06 0 -1.67517e+06 2.65789e+06 0 -1.57543e+06 2.51348e+06 0 -1.49794e+06 2.31353e+06 0 -1.4308e+06 2.08399e+06 0 -1.36517e+06 1.85011e+06 0 -1.30642e+06 1.62346e+06 0 -1.26498e+06 1.40377e+06 0 -1.23766e+06 1.17523e+06 0 -1.20489e+06 920852 0 -1.13855e+06 644204 0 -1.01669e+06 373347 0 -839967 146683 0 -1.84921e+06 2.76723e+06 0 -1.73491e+06 2.54271e+06 0 -1.66555e+06 2.462e+06 0 -1.61642e+06 2.3461e+06 0 -1.56854e+06 2.15816e+06 0 -1.51356e+06 1.93148e+06 0 -1.4551e+06 1.70999e+06 0 -1.40554e+06 1.51374e+06 0 -1.37694e+06 1.33362e+06 0 -1.36716e+06 1.14405e+06 0 -1.35539e+06 920485 0 -1.3116e+06 658592 0 -1.21028e+06 382048 0 -1.04436e+06 132119 0 -832382 -52029 0 -610430 -153458 0 -1.64254e+06 1.98643e+06 0 -1.66135e+06 2.12378e+06 0 -1.62465e+06 1.92468e+06 0 -1.56573e+06 1.65288e+06 0 -1.51413e+06 1.4294e+06 0 -1.48867e+06 1.27228e+06 0 -1.49223e+06 1.1438e+06 0 -1.50944e+06 992899 0 -1.51069e+06 787095 0 -1.46422e+06 527642 0 -1.34961e+06 246679 0 -1.16626e+06 -8075.17 0 -935505 -194094 0 -693611 -291065 0 -477537 -306414 0 -311279 -267904 0 -1.7312e+06 1.85735e+06 0 -1.60916e+06 1.13714e+06 0 -1.58569e+06 907932 0 -1.62151e+06 872952 0 -1.67268e+06 841021 0 -1.69687e+06 718986 0 -1.6604e+06 492377 0 -1.54564e+06 201059 0 -1.35537e+06 -90795.5 0 -1.11095e+06 -323967 0 -845872 -462231 0 -596466 -499793 0 -391307 -458214 0 -243840 -373544 0 -151272 -280922 0 -99854.2 -202620 0 -1.69633e+06 -72118.4 0 -1.87147e+06 430227 0 -1.88472e+06 449884 0 -1.76152e+06 199149 0 -1.53633e+06 -149938 0 -1.24976e+06 -472440 0 -944315 -692334 0 -658098 -782331 0 -419050 -755514 0 -242061 -648343 0 -128256 -505463 0 -67039.7 -366644 0 -41395.2 -256511 0 -34019.4 -182161 0 -32050.8 -137613 0 -29040.3 -111375 0 2.6226e-06 -1.17558e+07 0 -2.44472e-07 -5.26506e+06 0 -2.14204e-08 -1.45641e+06 0 1.96509e-07 415063 0 -6.51926e-08 1.0157e+06 0 -7.45058e-09 901334 0 2.23517e-08 493126 0 -1.49012e-07 67795.1 0 2.5332e-07 -230531 0 -2.68221e-07 -362902 0 2.68221e-07 -360240 0 -1.3411e-07 -283811 0 1.78814e-07 -191635 0 -1.93715e-07 -119730 0 2.08616e-07 -78667.5 0 -1.78814e-06 -61564.4 0 </DataArray> 
</PointData> 
<Points> 
<DataArray type="Float32" NumberOfComponents="3"> 
0.016 0.021 0 0.0199333 0.021 0 0.0238667 0.021 0 0.0278 0.021 0 0.0317333 0.021 0 0.0356667 0.021 0 0.0396 0.021 0 0.0435333 0.021 0 0.0474667 0.021 0 0.0514 0.021 0 0.0553333 0.021 0 0.0592667 0.021 0 0.0632 0.021 0 0.0671333 0.021 0 0.0710667 0.021 0 0.075 0.021 0 0.0216 0.0219333 0 0.0253156 0.0219333 0 0.0290311 0.0219333 0 0.0327467 0.0219333 0 0.0364622 0.0219333 0 0.0401778 0.0219333 0 0.0438933 0.0219333 0 0.0476089 0.0219333 0 0.0513244 0.0219333 0 0.05504 0.0219333 0 0.0587556 0.0219333 0 0.0624711 0.0219333 0 0.0661867 0.0219333 0 0.0699022 0.0219333 0 0.0736178 0.0219333 0 0.0773333 0.0219333 0 0.0272 0.0228667 0 0.0306978 0.0228667 0 0.0341956 0.0228667 0 0.0376933 0.0228667 0 0.0411911 0.0228667 0 0.0446889 0.0228667 0 0.0481867 0.0228667 0 0.0516844 0.0228667 0 0.0551822 0.0228667 0 0.05868 0.0228667 0 0.0621778 0.0228667 0 0.0656756 0.0228667 0 0.0691733 0.0228667 0 0.0726711 0.0228667 0 0.0761689 0.0228667 0 0.0796667 0.0228667 0 0.0328 0.0238 0 0.03608 0.0238 0 0.03936 0.0238 0 0.04264 0.0238 0 0.04592 0.0238 0 0.0492 0.0238 0 0.05248 0.0238 0 0.05576 0.0238 0 0.05904 0.0238 0 0.06232 0.0238 0 0.0656 0.0238 0 0.06888 0.0238 0 0.07216 0.0238 0 0.07544 0.0238 0 0.07872 0.0238 0 0.082 0.0238 0 0.0384 0.0247333 0 0.0414622 0.0247333 0 0.0445244 0.0247333 0 0.0475867 0.0247333 0 0.0506489 0.0247333 0 0.0537111 0.0247333 0 0.0567733 0.0247333 0 0.0598356 0.0247333 0 0.0628978 0.0247333 0 0.06596 0.0247333 0 0.0690222 0.0247333 0 0.0720844 0.0247333 0 0.0751467 0.0247333 0 0.0782089 0.0247333 0 0.0812711 0.0247333 0 0.0843333 0.0247333 0 0.044 0.0256667 0 0.0468444 0.0256667 0 0.0496889 0.0256667 0 0.0525333 0.0256667 0 0.0553778 0.0256667 0 0.0582222 0.0256667 0 0.0610667 0.0256667 0 0.0639111 0.0256667 0 0.0667556 0.0256667 0 0.0696 0.0256667 0 0.0724444 0.0256667 0 0.0752889 0.0256667 0 0.0781333 0.0256667 0 0.0809778 0.0256667 0 0.0838222 0.0256667 0 0.0866667 0.0256667 0 0.0496 0.0266 0 0.0522267 0.0266 0 0.0548533 0.0266 0 0.05748 0.0266 0 0.0601067 0.0266 0 0.0627333 0.0266 0 0.06536 0.0266 0 0.0679867 0.0266 0 0.0706133 0.0266 0 0.07324 0.0266 0 0.0758667 0.0266 0 0.0784933 0.0266 0 0.08112 0.0266 0 0.0837467 0.0266 0 0.0863733 0.0266 0 0.089 0.0266 0 0.0552 0.0275333 0 0.0576089 0.0275333 0 0.0600178 0.0275333 0 0.0624267 0.0275333 0 0.0648356 0.0275333 0 0.0672444 0.0275333 0 0.0696533 0.0275333 0 0.0720622 0.0275333 0 0.0744711 0.0275333 0 0.07688 0.0275333 0 0.0792889 0.0275333 0 0.0816978 0.0275333 0 0.0841067 0.0275333 0 0.0865156 0.0275333 0 0.0889244 0.0275333 0 0.0913333 0.0275333 0 0.0608 0.0284667 0 0.0629911 0.0284667 0 0.0651822 0.0284667 0 0.0673733 0.0284667 0 0.0695644 0.0284667 0 0.0717556 0.0284667 0 0.0739467 0.0284667 0 0.0761378 0.0284667 0 0.0783289 0.0284667 0 0.08052 0.0284667 0 0.0827111 0.0284667 0 0.0849022 0.0284667 0 0.0870933 0.0284667 0 0.0892844 0.0284667 0 0.0914756 0.0284667 0 0.0936667 0.0284667 0 0.0664 0.0294 0 0.0683733 0.0294 0 0.0703467 0.0294 0 0.07232 0.0294 0 0.0742933 0.0294 0 0.0762667 0.0294 0 0.07824 0.0294 0 0.0802133 0.0294 0 0.0821867 0.0294 0 0.08416 0.0294 0 0.0861333 0.0294 0 0.0881067 0.0294 0 0.09008 0.0294 0 0.0920533 0.0294 0 0.0940267 0.0294 0 0.096 0.0294 0 0.072 0.0303333 0 0.0737556 0.0303333 0 0.0755111 0.0303333 0 0.0772667 0.0303333 0 0.0790222 0.0303333 0 0.0807778 0.0303333 0 0.0825333 0.0303333 0 0.0842889 0.0303333 0 0.0860444 0.0303333 0 0.0878 0.0303333 0 0.0895556 0.0303333 0 0.0913111 0.0303333 0 0.0930667 0.0303333 0 0.0948222 0.0303333 0 0.0965778 0.0303333 0 0.0983333 0.0303333 0 0.0776 0.0312667 0 0.0791378 0.0312667 0 0.0806756 0.0312667 0 0.0822133 0.0312667 0 0.0837511 0.0312667 0 0.0852889 0.0312667 0 0.0868267 0.0312667 0 0.0883644 0.0312667 0 0.0899022 0.0312667 0 0.09144 0.0312667 0 0.0929778 0.0312667 0 0.0945156 0.0312667 0 0.0960533 0.0312667 0 0.0975911 0.0312667 0 0.0991289 0.0312667 0 0.100667 0.0312667 0 0.0832 0.0322 0 0.08452 0.0322 0 0.08584 0.0322 0 0.08716 0.0322 0 0.08848 0.0322 0 0.0898 0.0322 0 0.09112 0.0322 0 0.09244 0.0322 0 0.09376 0.0322 0 0.09508 0.0322 0 0.0964 0.0322 0 0.09772 0.0322 0 0.09904 0.0322 0 0.10036 0.0322 0 0.10168 0.0322 0 0.103 0.0322 0 0.0888 0.0331333 0 0.0899022 0.0331333 0 0.0910044 0.0331333 0 0.0921067 0.0331333 0 0.0932089 0.0331333 0 0.0943111 0.0331333 0 0.0954133 0.0331333 0 0.0965156 0.0331333 0 0.0976178 0.0331333 0 0.09872 0.0331333 0 0.0998222 0.0331333 0 0.100924 0.0331333 0 0.102027 0.0331333 0 0.103129 0.0331333 0 0.104231 0.0331333 0 0.105333 0.0331333 0 0.0944 0.0340667 0 0.0952844 0.0340667 0 0.0961689 0.0340667 0 0.0970533 0.0340667 0 0.0979378 0.0340667 0 0.0988222 0.0340667 0 0.0997067 0.0340667 0 0.100591 0.0340667 0 0.101476 0.0340667 0 0.10236 0.0340667 0 0.103244 0.0340667 0 0.104129 0.0340667 0 0.105013 0.0340667 0 0.105898 0.0340667 0 0.106782 0.0340667 0 0.107667 0.0340667 0 0.1 0.035 0 0.100667 0.035 0 0.101333 0.035 0 0.102 0.035 0 0.102667 0.035 0 0.103333 0.035 0 0.104 0.035 0 0.104667 0.035 0 0.105333 0.035 0 0.106 0.035 0 0.106667 0.035 0 0.107333 0.035 0 0.108 0.035 0 0.108667 0.035 0 0.109333 0.035 0 0.11 0.035 0 
</DataArray>
</Points> 
</Piece> 
</StructuredGrid> 
</VTKFile> 
