<?xml version="1.0"?> 
<VTKFile type="StructuredGrid" version="0.1"> 
<StructuredGrid WholeExtent="0 127 0 127 0 0"> 
<Piece Extent="0 127 0 127 0 0"> 
<PointData>
<DataArray type="Float32" Name="u" format="ascii" NumberOfComponents="3"> 
486286 7.37554e+06 0 -82396.3 6.78382e+06 0 -270653 6.57006e+06 0 -394938 6.40592e+06 0 -498868 6.25941e+06 0 -577206 6.13113e+06 0 -642668 6.01238e+06 0 -694539 5.90425e+06 0 -737728 5.80338e+06 0 -772647 5.70991e+06 0 -801496 5.62233e+06 0 -824882 5.54039e+06 0 -843927 5.46331e+06 0 -859163 5.39077e+06 0 -871238 5.32227e+06 0 -880562 5.25752e+06 0 -887546 5.19619e+06 0 -892493 5.13801e+06 0 -895684 5.08274e+06 0 -897340 5.03016e+06 0 -897661 4.98008e+06 0 -896812 4.93232e+06 0 -894937 4.88672e+06 0 -892161 4.84314e+06 0 -888591 4.80145e+06 0 -884322 4.76152e+06 0 -879434 4.72325e+06 0 -874000 4.68654e+06 0 -868083 4.65129e+06 0 -861738 4.61742e+06 0 -855013 4.58484e+06 0 -847953 4.5535e+06 0 -840595 4.52332e+06 0 -832974 4.49424e+06 0 -825118 4.4662e+06 0 -817056 4.43916e+06 0 -808812 4.41305e+06 0 -800405 4.38783e+06 0 -791857 4.36346e+06 0 -783183 4.33991e+06 0 -774399 4.31713e+06 0 -765518 4.29508e+06 0 -756554 4.27374e+06 0 -747517 4.25307e+06 0 -738417 4.23305e+06 0 -729263 4.21365e+06 0 -720063 4.19484e+06 0 -710824 4.17659e+06 0 -701553 4.15889e+06 0 -692255 4.14172e+06 0 -682936 4.12505e+06 0 -673601 4.10886e+06 0 -664254 4.09315e+06 0 -654898 4.07788e+06 0 -645538 4.06305e+06 0 -636175 4.04863e+06 0 -626814 4.03462e+06 0 -617456 4.021e+06 0 -608104 4.00776e+06 0 -598759 3.99489e+06 0 -589424 3.98237e+06 0 -580100 3.97019e+06 0 -570788 3.95835e+06 0 -561490 3.94682e+06 0 -552207 3.93562e+06 0 -542939 3.92471e+06 0 -533688 3.9141e+06 0 -524454 3.90378e+06 0 -515238 3.89373e+06 0 -506040 3.88396e+06 0 -496861 3.87446e+06 0 -487701 3.86521e+06 0 -478560 3.85621e+06 0 -469439 3.84746e+06 0 -460337 3.83895e+06 0 -451255 3.83067e+06 0 -442194 3.82262e+06 0 -433152 3.81479e+06 0 -424130 3.80718e+06 0 -415127 3.79979e+06 0 -406144 3.7926e+06 0 -397181 3.78562e+06 0 -388237 3.77883e+06 0 -379312 3.77225e+06 0 -370406 3.76586e+06 0 -361519 3.75965e+06 0 -352650 3.75364e+06 0 -343799 3.7478e+06 0 -334966 3.74215e+06 0 -326150 3.73667e+06 0 -317352 3.73136e+06 0 -308570 3.72623e+06 0 -299804 3.72126e+06 0 -291055 3.71646e+06 0 -282321 3.71182e+06 0 -273602 3.70734e+06 0 -264898 3.70302e+06 0 -256209 3.69885e+06 0 -247533 3.69484e+06 0 -238871 3.69099e+06 0 -230223 3.68728e+06 0 -221586 3.68372e+06 0 -212963 3.68031e+06 0 -204351 3.67705e+06 0 -195750 3.67392e+06 0 -187160 3.67095e+06 0 -178581 3.66811e+06 0 -170012 3.66541e+06 0 -161452 3.66285e+06 0 -152901 3.66043e+06 0 -144359 3.65815e+06 0 -135825 3.656e+06 0 -127299 3.65399e+06 0 -118780 3.65211e+06 0 -110267 3.65036e+06 0 -101761 3.64875e+06 0 -93260.8 3.64727e+06 0 -84765.7 3.64591e+06 0 -76275.4 3.64469e+06 0 -67789.4 3.6436e+06 0 -59307.3 3.64264e+06 0 -50828.6 3.64181e+06 0 -42352.7 3.6411e+06 0 -33879.3 3.64053e+06 0 -25407.8 3.64008e+06 0 -16937.7 3.63976e+06 0 -8468.62 3.63957e+06 0 0 3.63951e+06 0 423406 6.42183e+06 0 173843 6.39361e+06 0 -26427.1 6.31396e+06 0 -178877 6.2155e+06 0 -297947 6.11375e+06 0 -393285 6.01489e+06 0 -471033 5.91955e+06 0 -535150 5.82875e+06 0 -588445 5.74222e+06 0 -632939 5.66007e+06 0 -670180 5.582e+06 0 -701360 5.50787e+06 0 -727432 5.4374e+06 0 -749159 5.37041e+06 0 -767169 5.30667e+06 0 -781978 5.24597e+06 0 -794017 5.18812e+06 0 -803648 5.13295e+06 0 -811178 5.08028e+06 0 -816869 5.02997e+06 0 -820944 4.98186e+06 0 -823595 4.93581e+06 0 -824989 4.89172e+06 0 -825271 4.84946e+06 0 -824565 4.80892e+06 0 -822983 4.77001e+06 0 -820619 4.73263e+06 0 -817560 4.6967e+06 0 -813879 4.66214e+06 0 -809644 4.62888e+06 0 -804911 4.59684e+06 0 -799734 4.56597e+06 0 -794158 4.5362e+06 0 -788224 4.50748e+06 0 -781971 4.47976e+06 0 -775429 4.45299e+06 0 -768629 4.42713e+06 0 -761598 4.40212e+06 0 -754358 4.37794e+06 0 -746932 4.35454e+06 0 -739338 4.3319e+06 0 -731595 4.30997e+06 0 -723717 4.28873e+06 0 -715719 4.26814e+06 0 -707614 4.24819e+06 0 -699412 4.22884e+06 0 -691126 4.21007e+06 0 -682764 4.19186e+06 0 -674335 4.17418e+06 0 -665847 4.15703e+06 0 -657306 4.14036e+06 0 -648720 4.12418e+06 0 -640094 4.10846e+06 0 -631434 4.09318e+06 0 -622744 4.07834e+06 0 -614029 4.06391e+06 0 -605292 4.04987e+06 0 -596538 4.03623e+06 0 -587770 4.02296e+06 0 -578990 4.01006e+06 0 -570202 3.99751e+06 0 -561408 3.9853e+06 0 -552610 3.97341e+06 0 -543810 3.96186e+06 0 -535010 3.95061e+06 0 -526212 3.93966e+06 0 -517417 3.92901e+06 0 -508626 3.91865e+06 0 -499841 3.90857e+06 0 -491063 3.89875e+06 0 -482292 3.88921e+06 0 -473530 3.87991e+06 0 -464777 3.87088e+06 0 -456035 3.86208e+06 0 -447303 3.85353e+06 0 -438581 3.84521e+06 0 -429872 3.83711e+06 0 -421174 3.82925e+06 0 -412489 3.8216e+06 0 -403816 3.81416e+06 0 -395155 3.80693e+06 0 -386508 3.79991e+06 0 -377873 3.79309e+06 0 -369251 3.78647e+06 0 -360643 3.78004e+06 0 -352047 3.7738e+06 0 -343465 3.76775e+06 0 -334895 3.76187e+06 0 -326338 3.75618e+06 0 -317794 3.75067e+06 0 -309263 3.74533e+06 0 -300744 3.74016e+06 0 -292237 3.73516e+06 0 -283743 3.73033e+06 0 -275260 3.72566e+06 0 -266789 3.72115e+06 0 -258329 3.71681e+06 0 -249881 3.71261e+06 0 -241443 3.70858e+06 0 -233016 3.70469e+06 0 -224600 3.70096e+06 0 -216193 3.69738e+06 0 -207796 3.69395e+06 0 -199409 3.69066e+06 0 -191030 3.68752e+06 0 -182660 3.68452e+06 0 -174299 3.68166e+06 0 -165946 3.67895e+06 0 -157600 3.67637e+06 0 -149262 3.67393e+06 0 -140931 3.67163e+06 0 -132606 3.66947e+06 0 -124288 3.66744e+06 0 -115975 3.66555e+06 0 -107668 3.66379e+06 0 -99366.1 3.66216e+06 0 -91068.9 3.66067e+06 0 -82776 3.65931e+06 0 -74487.1 3.65808e+06 0 -66201.8 3.65698e+06 0 -57919.6 3.65601e+06 0 -49640.2 3.65517e+06 0 -41363.2 3.65447e+06 0 -33088.2 3.65389e+06 0 -24814.7 3.65344e+06 0 -16542.5 3.65311e+06 0 -8271.04 3.65292e+06 0 0 3.65286e+06 0 401311 6.08672e+06 0 241986 6.09597e+06 0 91765.8 6.06716e+06 0 -41037.8 6.01622e+06 0 -154434 5.95294e+06 0 -250592 5.88319e+06 0 -331956 5.81117e+06 0 -401052 5.73877e+06 0 -459843 5.66737e+06 0 -510010 5.5976e+06 0 -552862 5.52991e+06 0 -589498 5.46448e+06 0 -620801 5.40142e+06 0 -647512 5.34073e+06 0 -670245 5.28241e+06 0 -689518 5.22639e+06 0 -705767 5.17259e+06 0 -719366 5.12095e+06 0 -730634 5.07136e+06 0 -739843 5.02374e+06 0 -747232 4.97799e+06 0 -753005 4.93403e+06 0 -757342 4.89178e+06 0 -760398 4.85114e+06 0 -762312 4.81204e+06 0 -763202 4.7744e+06 0 -763176 4.73815e+06 0 -762328 4.70323e+06 0 -760740 4.66957e+06 0 -758487 4.6371e+06 0 -755635 4.60577e+06 0 -752242 4.57554e+06 0 -748361 4.54633e+06 0 -744038 4.51812e+06 0 -739317 4.49085e+06 0 -734235 4.46448e+06 0 -728826 4.43897e+06 0 -723121 4.41428e+06 0 -717147 4.39038e+06 0 -710930 4.36724e+06 0 -704493 4.34481e+06 0 -697855 4.32308e+06 0 -691036 4.30202e+06 0 -684053 4.28159e+06 0 -676920 4.26177e+06 0 -669652 4.24254e+06 0 -662262 4.22387e+06 0 -654761 4.20575e+06 0 -647160 4.18815e+06 0 -639468 4.17106e+06 0 -631695 4.15446e+06 0 -623848 4.13832e+06 0 -615934 4.12264e+06 0 -607961 4.10739e+06 0 -599934 4.09257e+06 0 -591860 4.07816e+06 0 -583742 4.06414e+06 0 -575587 4.0505e+06 0 -567398 4.03724e+06 0 -559180 4.02434e+06 0 -550935 4.01178e+06 0 -542668 3.99956e+06 0 -534381 3.98767e+06 0 -526077 3.9761e+06 0 -517758 3.96483e+06 0 -509428 3.95387e+06 0 -501087 3.9432e+06 0 -492739 3.93282e+06 0 -484384 3.92271e+06 0 -476025 3.91287e+06 0 -467663 3.9033e+06 0 -459299 3.89398e+06 0 -450934 3.88492e+06 0 -442570 3.8761e+06 0 -434207 3.86752e+06 0 -425847 3.85917e+06 0 -417490 3.85105e+06 0 -409137 3.84315e+06 0 -400789 3.83547e+06 0 -392446 3.828e+06 0 -384108 3.82075e+06 0 -375777 3.8137e+06 0 -367453 3.80685e+06 0 -359135 3.8002e+06 0 -350825 3.79374e+06 0 -342522 3.78747e+06 0 -334227 3.78139e+06 0 -325939 3.77549e+06 0 -317660 3.76977e+06 0 -309389 3.76423e+06 0 -301126 3.75887e+06 0 -292871 3.75367e+06 0 -284624 3.74865e+06 0 -276386 3.74379e+06 0 -268156 3.7391e+06 0 -259933 3.73457e+06 0 -251719 3.73019e+06 0 -243513 3.72598e+06 0 -235315 3.72192e+06 0 -227124 3.71802e+06 0 -218941 3.71427e+06 0 -210765 3.71066e+06 0 -202596 3.70721e+06 0 -194434 3.70391e+06 0 -186279 3.70074e+06 0 -178131 3.69773e+06 0 -169989 3.69486e+06 0 -161853 3.69212e+06 0 -153723 3.68953e+06 0 -145599 3.68708e+06 0 -137479 3.68477e+06 0 -129365 3.68259e+06 0 -121256 3.68055e+06 0 -113152 3.67865e+06 0 -105051 3.67688e+06 0 -96954.9 3.67524e+06 0 -88862.2 3.67374e+06 0 -80772.9 3.67237e+06 0 -72686.7 3.67114e+06 0 -64603.3 3.67003e+06 0 -56522.4 3.66906e+06 0 -48443.7 3.66821e+06 0 -40366.9 3.6675e+06 0 -32291.6 3.66692e+06 0 -24217.6 3.66646e+06 0 -16144.5 3.66614e+06 0 -8072.11 3.66594e+06 0 0 3.66588e+06 0 387442 5.87637e+06 0 268757 5.8797e+06 0 152015 5.86762e+06 0 42740.3 5.83976e+06 0 -56737.6 5.7999e+06 0 -145396 5.75202e+06 0 -223654 5.69891e+06 0 -292274 5.64289e+06 0 -352298 5.58541e+06 0 -404702 5.52759e+06 0 -450422 5.4701e+06 0 -490270 5.41347e+06 0 -524969 5.35799e+06 0 -555141 5.30389e+06 0 -581328 5.2513e+06 0 -603997 5.20028e+06 0 -623555 5.15087e+06 0 -640354 5.10307e+06 0 -654703 5.05688e+06 0 -666867 5.01225e+06 0 -677084 4.96916e+06 0 -685559 4.92756e+06 0 -692473 4.88739e+06 0 -697986 4.84862e+06 0 -702239 4.81118e+06 0 -705359 4.77503e+06 0 -707455 4.74012e+06 0 -708629 4.70638e+06 0 -708967 4.67379e+06 0 -708549 4.64228e+06 0 -707445 4.61182e+06 0 -705720 4.58236e+06 0 -703430 4.55385e+06 0 -700626 4.52627e+06 0 -697355 4.49957e+06 0 -693658 4.47371e+06 0 -689573 4.44866e+06 0 -685135 4.42439e+06 0 -680374 4.40086e+06 0 -675318 4.37805e+06 0 -669994 4.35593e+06 0 -664423 4.33448e+06 0 -658628 4.31366e+06 0 -652628 4.29345e+06 0 -646439 4.27383e+06 0 -640079 4.25478e+06 0 -633562 4.23627e+06 0 -626901 4.2183e+06 0 -620109 4.20083e+06 0 -613196 4.18385e+06 0 -606174 4.16735e+06 0 -599052 4.1513e+06 0 -591838 4.1357e+06 0 -584540 4.12052e+06 0 -577167 4.10576e+06 0 -569723 4.0914e+06 0 -562217 4.07743e+06 0 -554653 4.06383e+06 0 -547037 4.0506e+06 0 -539373 4.03772e+06 0 -531666 4.02519e+06 0 -523921 4.01299e+06 0 -516140 4.00111e+06 0 -508328 3.98955e+06 0 -500487 3.97829e+06 0 -492621 3.96733e+06 0 -484733 3.95667e+06 0 -476824 3.94628e+06 0 -468898 3.93617e+06 0 -460955 3.92633e+06 0 -452999 3.91674e+06 0 -445032 3.90742e+06 0 -437054 3.89834e+06 0 -429067 3.88951e+06 0 -421073 3.88091e+06 0 -413073 3.87255e+06 0 -405068 3.86441e+06 0 -397059 3.8565e+06 0 -389048 3.8488e+06 0 -381034 3.84132e+06 0 -373020 3.83404e+06 0 -365005 3.82698e+06 0 -356991 3.82011e+06 0 -348978 3.81344e+06 0 -340966 3.80696e+06 0 -332956 3.80067e+06 0 -324949 3.79457e+06 0 -316944 3.78865e+06 0 -308943 3.78291e+06 0 -300945 3.77735e+06 0 -292951 3.77197e+06 0 -284961 3.76676e+06 0 -276975 3.76171e+06 0 -268994 3.75684e+06 0 -261017 3.75212e+06 0 -253044 3.74757e+06 0 -245076 3.74318e+06 0 -237113 3.73895e+06 0 -229155 3.73488e+06 0 -221201 3.73096e+06 0 -213252 3.72719e+06 0 -205308 3.72357e+06 0 -197369 3.7201e+06 0 -189434 3.71678e+06 0 -181503 3.71361e+06 0 -173577 3.71058e+06 0 -165656 3.70769e+06 0 -157738 3.70495e+06 0 -149825 3.70234e+06 0 -141915 3.69988e+06 0 -134009 3.69756e+06 0 -126107 3.69537e+06 0 -118208 3.69332e+06 0 -110312 3.69141e+06 0 -102420 3.68963e+06 0 -94530 3.68799e+06 0 -86643 3.68648e+06 0 -78758.4 3.6851e+06 0 -70876 3.68386e+06 0 -62995.7 3.68275e+06 0 -55117.2 3.68177e+06 0 -47240.4 3.68092e+06 0 -39364.8 3.6802e+06 0 -31490.5 3.67962e+06 0 -23617.1 3.67916e+06 0 -15744.3 3.67884e+06 0 -7872.04 3.67864e+06 0 0 3.67857e+06 0 376041 5.70345e+06 0 281189 5.71144e+06 0 187173 5.70588e+06 0 96228.7 5.68926e+06 0 10654.5 5.66328e+06 0 -68455.5 5.62973e+06 0 -140525 5.59063e+06 0 -205599 5.54752e+06 0 -263954 5.50179e+06 0 -316063 5.45444e+06 0 -362435 5.40627e+06 0 -403604 5.35788e+06 0 -440076 5.30969e+06 0 -472322 5.26203e+06 0 -500772 5.21514e+06 0 -525816 5.16917e+06 0 -547801 5.12425e+06 0 -567040 5.08044e+06 0 -583809 5.03779e+06 0 -598355 4.99634e+06 0 -610900 4.95608e+06 0 -621638 4.91701e+06 0 -630745 4.87911e+06 0 -638377 4.84238e+06 0 -644673 4.80677e+06 0 -649759 4.77227e+06 0 -653746 4.73884e+06 0 -656734 4.70645e+06 0 -658815 4.67507e+06 0 -660068 4.64465e+06 0 -660568 4.61518e+06 0 -660380 4.58662e+06 0 -659564 4.55893e+06 0 -658173 4.53208e+06 0 -656258 4.50605e+06 0 -653863 4.4808e+06 0 -651026 4.4563e+06 0 -647787 4.43253e+06 0 -644176 4.40946e+06 0 -640226 4.38707e+06 0 -635964 4.36533e+06 0 -631415 4.34421e+06 0 -626602 4.3237e+06 0 -621546 4.30378e+06 0 -616268 4.28442e+06 0 -610784 4.2656e+06 0 -605112 4.24731e+06 0 -599265 4.22953e+06 0 -593259 4.21224e+06 0 -587104 4.19542e+06 0 -580814 4.17906e+06 0 -574399 4.16314e+06 0 -567869 4.14766e+06 0 -561232 4.13259e+06 0 -554498 4.11792e+06 0 -547674 4.10365e+06 0 -540767 4.08975e+06 0 -533783 4.07623e+06 0 -526730 4.06306e+06 0 -519613 4.05024e+06 0 -512436 4.03775e+06 0 -505206 4.02559e+06 0 -497925 4.01375e+06 0 -490599 4.00222e+06 0 -483231 3.99099e+06 0 -475825 3.98006e+06 0 -468384 3.96941e+06 0 -460911 3.95904e+06 0 -453409 3.94895e+06 0 -445880 3.93911e+06 0 -438328 3.92954e+06 0 -430754 3.92022e+06 0 -423160 3.91115e+06 0 -415549 3.90231e+06 0 -407921 3.89372e+06 0 -400280 3.88535e+06 0 -392625 3.87721e+06 0 -384960 3.8693e+06 0 -377284 3.86159e+06 0 -369599 3.8541e+06 0 -361907 3.84682e+06 0 -354208 3.83974e+06 0 -346503 3.83287e+06 0 -338794 3.82618e+06 0 -331080 3.8197e+06 0 -323363 3.8134e+06 0 -315644 3.80728e+06 0 -307922 3.80135e+06 0 -300198 3.79561e+06 0 -292474 3.79003e+06 0 -284749 3.78464e+06 0 -277024 3.77941e+06 0 -269299 3.77435e+06 0 -261575 3.76946e+06 0 -253852 3.76474e+06 0 -246129 3.76018e+06 0 -238408 3.75577e+06 0 -230689 3.75153e+06 0 -222971 3.74744e+06 0 -215255 3.74351e+06 0 -207541 3.73973e+06 0 -199830 3.7361e+06 0 -192120 3.73262e+06 0 -184413 3.72929e+06 0 -176707 3.7261e+06 0 -169004 3.72306e+06 0 -161304 3.72017e+06 0 -153605 3.71741e+06 0 -145909 3.7148e+06 0 -138215 3.71233e+06 0 -130523 3.70999e+06 0 -122834 3.7078e+06 0 -115146 3.70574e+06 0 -107460 3.70382e+06 0 -99776.4 3.70204e+06 0 -92094.2 3.70039e+06 0 -84413.7 3.69887e+06 0 -76734.7 3.69749e+06 0 -69057.1 3.69624e+06 0 -61380.8 3.69513e+06 0 -53705.6 3.69415e+06 0 -46031.5 3.69329e+06 0 -38358.2 3.69257e+06 0 -30685.7 3.69199e+06 0 -23013.7 3.69153e+06 0 -15342.2 3.6912e+06 0 -7671.04 3.69101e+06 0 0 3.69094e+06 0 367136 5.56839e+06 0 288457 5.57367e+06 0 209648 5.57137e+06 0 132644 5.56096e+06 0 58643.7 5.54316e+06 0 -11266.6 5.51908e+06 0 -76498.4 5.48981e+06 0 -136715 5.45648e+06 0 -191877 5.42007e+06 0 -242093 5.38144e+06 0 -287595 5.34131e+06 0 -328669 5.30025e+06 0 -365630 5.25871e+06 0 -398800 5.21707e+06 0 -428492 5.1756e+06 0 -455005 5.13452e+06 0 -478619 5.09399e+06 0 -499590 5.05415e+06 0 -518156 5.01507e+06 0 -534534 4.97684e+06 0 -548918 4.93948e+06 0 -561488 4.90303e+06 0 -572406 4.86751e+06 0 -581816 4.83292e+06 0 -589853 4.79925e+06 0 -596635 4.76651e+06 0 -602271 4.73468e+06 0 -606860 4.70374e+06 0 -610490 4.67367e+06 0 -613242 4.64446e+06 0 -615190 4.61608e+06 0 -616399 4.58851e+06 0 -616932 4.56173e+06 0 -616842 4.53571e+06 0 -616181 4.51043e+06 0 -614994 4.48587e+06 0 -613322 4.46201e+06 0 -611205 4.43882e+06 0 -608677 4.41628e+06 0 -605770 4.39437e+06 0 -602513 4.37307e+06 0 -598933 4.35236e+06 0 -595056 4.33222e+06 0 -590903 4.31264e+06 0 -586496 4.29359e+06 0 -581853 4.27506e+06 0 -576992 4.25703e+06 0 -571930 4.23949e+06 0 -566682 4.22241e+06 0 -561261 4.2058e+06 0 -555680 4.18962e+06 0 -549951 4.17388e+06 0 -544085 4.15855e+06 0 -538091 4.14362e+06 0 -531980 4.12908e+06 0 -525761 4.11493e+06 0 -519440 4.10114e+06 0 -513025 4.08771e+06 0 -506524 4.07463e+06 0 -499942 4.06189e+06 0 -493286 4.04947e+06 0 -486561 4.03738e+06 0 -479772 4.0256e+06 0 -472925 4.01413e+06 0 -466022 4.00295e+06 0 -459069 3.99206e+06 0 -452070 3.98145e+06 0 -445028 3.97112e+06 0 -437945 3.96105e+06 0 -430826 3.95124e+06 0 -423673 3.9417e+06 0 -416489 3.9324e+06 0 -409276 3.92334e+06 0 -402037 3.91452e+06 0 -394774 3.90594e+06 0 -387488 3.89759e+06 0 -380182 3.88946e+06 0 -372857 3.88154e+06 0 -365515 3.87385e+06 0 -358158 3.86636e+06 0 -350786 3.85908e+06 0 -343401 3.85201e+06 0 -336005 3.84513e+06 0 -328598 3.83845e+06 0 -321182 3.83195e+06 0 -313757 3.82565e+06 0 -306324 3.81954e+06 0 -298884 3.8136e+06 0 -291439 3.80785e+06 0 -283987 3.80227e+06 0 -276531 3.79687e+06 0 -269071 3.79163e+06 0 -261607 3.78657e+06 0 -254140 3.78168e+06 0 -246670 3.77694e+06 0 -239198 3.77237e+06 0 -231724 3.76796e+06 0 -224248 3.76371e+06 0 -216771 3.75962e+06 0 -209293 3.75568e+06 0 -201815 3.75189e+06 0 -194335 3.74825e+06 0 -186856 3.74476e+06 0 -179376 3.74142e+06 0 -171897 3.73823e+06 0 -164417 3.73518e+06 0 -156938 3.73228e+06 0 -149460 3.72952e+06 0 -141981 3.7269e+06 0 -134503 3.72442e+06 0 -127026 3.72208e+06 0 -119550 3.71988e+06 0 -112074 3.71782e+06 0 -104599 3.7159e+06 0 -97124 3.71411e+06 0 -89650 3.71245e+06 0 -82176.6 3.71093e+06 0 -74703.9 3.70955e+06 0 -67231.7 3.70829e+06 0 -59760.1 3.70718e+06 0 -52289 3.70619e+06 0 -44818.3 3.70534e+06 0 -37347.9 3.70461e+06 0 -29878 3.70402e+06 0 -22408.2 3.70357e+06 0 -14938.7 3.70324e+06 0 -7469.32 3.70304e+06 0 0 3.70298e+06 0 359428 5.45148e+06 0 292277 5.45767e+06 0 225066 5.45703e+06 0 158659 5.45022e+06 0 94124.8 5.43764e+06 0 32200.3 5.41984e+06 0 -26505.9 5.39753e+06 0 -81635 5.37144e+06 0 -132976 5.34227e+06 0 -180477 5.31067e+06 0 -224182 5.27724e+06 0 -264213 5.24248e+06 0 -300739 5.20681e+06 0 -333956 5.17059e+06 0 -364075 5.1341e+06 0 -391309 5.09759e+06 0 -415867 5.06124e+06 0 -437953 5.02521e+06 0 -457759 4.98961e+06 0 -475463 4.95454e+06 0 -491235 4.92008e+06 0 -505230 4.88626e+06 0 -517592 4.85314e+06 0 -528453 4.82074e+06 0 -537934 4.78907e+06 0 -546146 4.75816e+06 0 -553192 4.72799e+06 0 -559164 4.69857e+06 0 -564149 4.6699e+06 0 -568224 4.64197e+06 0 -571460 4.61475e+06 0 -573923 4.58826e+06 0 -575674 4.56245e+06 0 -576766 4.53734e+06 0 -577251 4.51288e+06 0 -577175 4.48908e+06 0 -576579 4.46592e+06 0 -575503 4.44337e+06 0 -573983 4.42142e+06 0 -572052 4.40005e+06 0 -569739 4.37925e+06 0 -567073 4.359e+06 0 -564080 4.33929e+06 0 -560782 4.32009e+06 0 -557203 4.3014e+06 0 -553361 4.28321e+06 0 -549276 4.26548e+06 0 -544966 4.24822e+06 0 -540445 4.23141e+06 0 -535729 4.21503e+06 0 -530831 4.19908e+06 0 -525765 4.18354e+06 0 -520541 4.16839e+06 0 -515171 4.15364e+06 0 -509665 4.13926e+06 0 -504032 4.12525e+06 0 -498282 4.1116e+06 0 -492421 4.0983e+06 0 -486458 4.08533e+06 0 -480400 4.07269e+06 0 -474253 4.06038e+06 0 -468023 4.04838e+06 0 -461716 4.03668e+06 0 -455338 4.02528e+06 0 -448893 4.01417e+06 0 -442386 4.00334e+06 0 -435821 3.99279e+06 0 -429203 3.9825e+06 0 -422534 3.97249e+06 0 -415818 3.96272e+06 0 -409060 3.95322e+06 0 -402261 3.94395e+06 0 -395425 3.93493e+06 0 -388554 3.92614e+06 0 -381650 3.91758e+06 0 -374717 3.90925e+06 0 -367756 3.90114e+06 0 -360769 3.89325e+06 0 -353758 3.88557e+06 0 -346726 3.8781e+06 0 -339672 3.87083e+06 0 -332600 3.86376e+06 0 -325510 3.8569e+06 0 -318405 3.85022e+06 0 -311284 3.84374e+06 0 -304149 3.83744e+06 0 -297002 3.83133e+06 0 -289844 3.8254e+06 0 -282674 3.81964e+06 0 -275495 3.81407e+06 0 -268307 3.80867e+06 0 -261111 3.80343e+06 0 -253907 3.79837e+06 0 -246697 3.79347e+06 0 -239480 3.78874e+06 0 -232258 3.78417e+06 0 -225030 3.77975e+06 0 -217798 3.7755e+06 0 -210562 3.7714e+06 0 -203322 3.76746e+06 0 -196078 3.76367e+06 0 -188832 3.76002e+06 0 -181582 3.75653e+06 0 -174331 3.75319e+06 0 -167077 3.74999e+06 0 -159821 3.74694e+06 0 -152564 3.74403e+06 0 -145305 3.74127e+06 0 -138045 3.73865e+06 0 -130784 3.73616e+06 0 -123521 3.73382e+06 0 -116258 3.73162e+06 0 -108995 3.72955e+06 0 -101730 3.72762e+06 0 -94465.3 3.72583e+06 0 -87199.9 3.72417e+06 0 -79934.2 3.72265e+06 0 -72668.2 3.72126e+06 0 -65401.9 3.72001e+06 0 -58135.4 3.71889e+06 0 -50868.8 3.7179e+06 0 -43602 3.71705e+06 0 -36335.2 3.71632e+06 0 -29068.2 3.71573e+06 0 -21801.2 3.71527e+06 0 -14534.2 3.71494e+06 0 -7267.08 3.71475e+06 0 0 3.71468e+06 0 352920 5.35277e+06 0 294638 5.35773e+06 0 236054 5.35806e+06 0 178018 5.35354e+06 0 121136 5.34437e+06 0 66027.7 5.33091e+06 0 13154.4 5.31358e+06 0 -37114.9 5.29287e+06 0 -84546.5 5.26927e+06 0 -129000 5.24327e+06 0 -170428 5.21534e+06 0 -208847 5.18587e+06 0 -244326 5.15526e+06 0 -276970 5.1238e+06 0 -306905 5.09178e+06 0 -334274 5.05943e+06 0 -359226 5.02695e+06 0 -381911 4.9945e+06 0 -402477 4.96221e+06 0 -421069 4.93019e+06 0 -437825 4.89852e+06 0 -452876 4.86729e+06 0 -466346 4.83654e+06 0 -478349 4.80633e+06 0 -488995 4.77667e+06 0 -498383 4.7476e+06 0 -506607 4.71913e+06 0 -513753 4.69128e+06 0 -519900 4.66404e+06 0 -525123 4.63743e+06 0 -529489 4.61144e+06 0 -533061 4.58606e+06 0 -535897 4.5613e+06 0 -538051 4.53713e+06 0 -539572 4.51356e+06 0 -540506 4.49057e+06 0 -540894 4.46816e+06 0 -540776 4.4463e+06 0 -540187 4.42499e+06 0 -539161 4.40422e+06 0 -537727 4.38396e+06 0 -535915 4.36422e+06 0 -533751 4.34498e+06 0 -531259 4.32622e+06 0 -528461 4.30793e+06 0 -525379 4.2901e+06 0 -522031 4.27272e+06 0 -518435 4.25578e+06 0 -514609 4.23927e+06 0 -510567 4.22316e+06 0 -506325 4.20746e+06 0 -501895 4.19216e+06 0 -497289 4.17723e+06 0 -492520 4.16268e+06 0 -487598 4.14849e+06 0 -482533 4.13466e+06 0 -477335 4.12117e+06 0 -472012 4.10801e+06 0 -466572 4.09518e+06 0 -461023 4.08268e+06 0 -455372 4.07048e+06 0 -449626 4.05859e+06 0 -443790 4.04699e+06 0 -437871 4.03568e+06 0 -431874 4.02466e+06 0 -425803 4.01391e+06 0 -419665 4.00344e+06 0 -413462 3.99322e+06 0 -407200 3.98327e+06 0 -400882 3.97357e+06 0 -394511 3.96411e+06 0 -388092 3.9549e+06 0 -381627 3.94592e+06 0 -375119 3.93717e+06 0 -368571 3.92865e+06 0 -361986 3.92036e+06 0 -355366 3.91228e+06 0 -348713 3.90442e+06 0 -342031 3.89676e+06 0 -335319 3.88931e+06 0 -328581 3.88207e+06 0 -321819 3.87502e+06 0 -315033 3.86817e+06 0 -308226 3.86151e+06 0 -301399 3.85504e+06 0 -294553 3.84876e+06 0 -287690 3.84266e+06 0 -280811 3.83674e+06 0 -273917 3.831e+06 0 -267009 3.82543e+06 0 -260087 3.82003e+06 0 -253154 3.81481e+06 0 -246210 3.80975e+06 0 -239255 3.80485e+06 0 -232290 3.80012e+06 0 -225317 3.79556e+06 0 -218335 3.79115e+06 0 -211346 3.78689e+06 0 -204350 3.7828e+06 0 -197347 3.77885e+06 0 -190339 3.77506e+06 0 -183325 3.77142e+06 0 -176305 3.76793e+06 0 -169281 3.76459e+06 0 -162253 3.76139e+06 0 -155221 3.75834e+06 0 -148185 3.75543e+06 0 -141147 3.75266e+06 0 -134105 3.75004e+06 0 -127060 3.74756e+06 0 -120013 3.74521e+06 0 -112963 3.74301e+06 0 -105912 3.74094e+06 0 -98858.2 3.73901e+06 0 -91803.1 3.73721e+06 0 -84746.6 3.73556e+06 0 -77688.7 3.73403e+06 0 -70629.6 3.73264e+06 0 -63569.4 3.73139e+06 0 -56508.4 3.73027e+06 0 -49446.5 3.72928e+06 0 -42384 3.72842e+06 0 -35320.8 3.7277e+06 0 -28257.2 3.72711e+06 0 -21193.2 3.72665e+06 0 -14129 3.72632e+06 0 -7064.53 3.72612e+06 0 0 3.72605e+06 0 347156 5.26535e+06 0 295779 5.27033e+06 0 244193 5.27121e+06 0 192838 5.26818e+06 0 142261 5.26137e+06 0 92896.6 5.25098e+06 0 45142 5.23728e+06 0 -697.295 5.22061e+06 0 -44382.1 5.20132e+06 0 -85753.3 5.17976e+06 0 -124713 5.15629e+06 0 -161223 5.13124e+06 0 -195287 5.10491e+06 0 -226947 5.07758e+06 0 -256269 5.0495e+06 0 -283340 5.02088e+06 0 -308258 4.99192e+06 0 -331129 4.96276e+06 0 -352064 4.93354e+06 0 -371172 4.9044e+06 0 -388565 4.87541e+06 0 -404348 4.84666e+06 0 -418625 4.81821e+06 0 -431494 4.79013e+06 0 -443049 4.76245e+06 0 -453377 4.73522e+06 0 -462561 4.70845e+06 0 -470680 4.68216e+06 0 -477807 4.65639e+06 0 -484009 4.63112e+06 0 -489350 4.60637e+06 0 -493889 4.58215e+06 0 -497681 4.55846e+06 0 -500777 4.53529e+06 0 -503224 4.51263e+06 0 -505067 4.4905e+06 0 -506346 4.46887e+06 0 -507100 4.44775e+06 0 -507363 4.42712e+06 0 -507170 4.40698e+06 0 -506549 4.38731e+06 0 -505530 4.36811e+06 0 -504138 4.34938e+06 0 -502399 4.33109e+06 0 -500334 4.31324e+06 0 -497966 4.29582e+06 0 -495313 4.27882e+06 0 -492395 4.26223e+06 0 -489228 4.24604e+06 0 -485828 4.23024e+06 0 -482210 4.21483e+06 0 -478388 4.19978e+06 0 -474375 4.18511e+06 0 -470183 4.17078e+06 0 -465823 4.15681e+06 0 -461305 4.14317e+06 0 -456640 4.12986e+06 0 -451836 4.11688e+06 0 -446903 4.10422e+06 0 -441848 4.09186e+06 0 -436678 4.0798e+06 0 -431401 4.06804e+06 0 -426024 4.05656e+06 0 -420552 4.04537e+06 0 -414992 4.03445e+06 0 -409348 4.0238e+06 0 -403626 4.01341e+06 0 -397831 4.00328e+06 0 -391967 3.99341e+06 0 -386039 3.98378e+06 0 -380049 3.97439e+06 0 -374003 3.96524e+06 0 -367903 3.95632e+06 0 -361752 3.94763e+06 0 -355555 3.93916e+06 0 -349313 3.93091e+06 0 -343029 3.92287e+06 0 -336707 3.91505e+06 0 -330348 3.90743e+06 0 -323954 3.90002e+06 0 -317528 3.89281e+06 0 -311072 3.88579e+06 0 -304588 3.87896e+06 0 -298077 3.87233e+06 0 -291541 3.86588e+06 0 -284981 3.85962e+06 0 -278400 3.85354e+06 0 -271798 3.84764e+06 0 -265177 3.84191e+06 0 -258537 3.83635e+06 0 -251881 3.83097e+06 0 -245209 3.82576e+06 0 -238523 3.82071e+06 0 -231822 3.81583e+06 0 -225109 3.8111e+06 0 -218384 3.80654e+06 0 -211647 3.80214e+06 0 -204900 3.79789e+06 0 -198143 3.7938e+06 0 -191377 3.78987e+06 0 -184603 3.78608e+06 0 -177820 3.78244e+06 0 -171030 3.77895e+06 0 -164234 3.77561e+06 0 -157431 3.77242e+06 0 -150622 3.76937e+06 0 -143807 3.76646e+06 0 -136988 3.7637e+06 0 -130164 3.76108e+06 0 -123336 3.75859e+06 0 -116503 3.75625e+06 0 -109667 3.75405e+06 0 -102828 3.75198e+06 0 -95985.3 3.75005e+06 0 -89140.1 3.74826e+06 0 -82292.3 3.7466e+06 0 -75442.3 3.74508e+06 0 -68590.1 3.74369e+06 0 -61736.2 3.74243e+06 0 -54880.6 3.74131e+06 0 -48023.5 3.74032e+06 0 -41165.3 3.73946e+06 0 -34306 3.73874e+06 0 -27445.8 3.73815e+06 0 -20584.9 3.73769e+06 0 -13723.6 3.73736e+06 0 -6861.87 3.73716e+06 0 0 3.7371e+06 0 342094 5.18857e+06 0 296350 5.19291e+06 0 250330 5.19413e+06 0 204471 5.19213e+06 0 159120 5.18698e+06 0 114637 5.17882e+06 0 71326.6 5.16783e+06 0 29456.7 5.15424e+06 0 -10762.4 5.1383e+06 0 -49167.5 5.12028e+06 0 -85646.4 5.10043e+06 0 -120129 5.07903e+06 0 -152584 5.05632e+06 0 -183011 5.03253e+06 0 -211435 5.00788e+06 0 -237902 4.98256e+06 0 -262470 4.95674e+06 0 -285211 4.93058e+06 0 -306202 4.90419e+06 0 -325526 4.87771e+06 0 -343265 4.85123e+06 0 -359505 4.82483e+06 0 -374329 4.79859e+06 0 -387818 4.77256e+06 0 -400052 4.7468e+06 0 -411106 4.72136e+06 0 -421052 4.69626e+06 0 -429960 4.67153e+06 0 -437895 4.6472e+06 0 -444918 4.62328e+06 0 -451086 4.59979e+06 0 -456456 4.57674e+06 0 -461077 4.55413e+06 0 -464998 4.53197e+06 0 -468264 4.51027e+06 0 -470916 4.48901e+06 0 -472994 4.4682e+06 0 -474535 4.44784e+06 0 -475572 4.42792e+06 0 -476138 4.40844e+06 0 -476262 4.38939e+06 0 -475973 4.37077e+06 0 -475296 4.35257e+06 0 -474256 4.33478e+06 0 -472875 4.3174e+06 0 -471175 4.30042e+06 0 -469175 4.28383e+06 0 -466894 4.26762e+06 0 -464349 4.25178e+06 0 -461557 4.23632e+06 0 -458532 4.22121e+06 0 -455289 4.20646e+06 0 -451840 4.19205e+06 0 -448199 4.17798e+06 0 -444377 4.16424e+06 0 -440384 4.15083e+06 0 -436231 4.13773e+06 0 -431928 4.12494e+06 0 -427483 4.11245e+06 0 -422905 4.10026e+06 0 -418201 4.08836e+06 0 -413380 4.07675e+06 0 -408447 4.06541e+06 0 -403410 4.05435e+06 0 -398275 4.04355e+06 0 -393047 4.03301e+06 0 -387731 4.02273e+06 0 -382334 4.0127e+06 0 -376859 4.00292e+06 0 -371311 3.99337e+06 0 -365695 3.98406e+06 0 -360014 3.97499e+06 0 -354272 3.96614e+06 0 -348473 3.95751e+06 0 -342619 3.94911e+06 0 -336715 3.94091e+06 0 -330763 3.93293e+06 0 -324765 3.92516e+06 0 -318725 3.91759e+06 0 -312645 3.91022e+06 0 -306527 3.90304e+06 0 -300374 3.89606e+06 0 -294187 3.88928e+06 0 -287968 3.88267e+06 0 -281720 3.87626e+06 0 -275444 3.87002e+06 0 -269142 3.86397e+06 0 -262814 3.85809e+06 0 -256464 3.85238e+06 0 -250092 3.84685e+06 0 -243699 3.84149e+06 0 -237286 3.83629e+06 0 -230856 3.83126e+06 0 -224408 3.82639e+06 0 -217944 3.82168e+06 0 -211465 3.81713e+06 0 -204972 3.81274e+06 0 -198466 3.80851e+06 0 -191947 3.80443e+06 0 -185417 3.8005e+06 0 -178876 3.79672e+06 0 -172324 3.79309e+06 0 -165763 3.78961e+06 0 -159193 3.78627e+06 0 -152614 3.78309e+06 0 -146028 3.78004e+06 0 -139434 3.77714e+06 0 -132834 3.77438e+06 0 -126227 3.77176e+06 0 -119615 3.76928e+06 0 -112997 3.76694e+06 0 -106374 3.76474e+06 0 -99746.3 3.76268e+06 0 -93114.5 3.76075e+06 0 -86478.9 3.75896e+06 0 -79839.6 3.7573e+06 0 -73197.2 3.75578e+06 0 -66551.8 3.75439e+06 0 -59903.8 3.75314e+06 0 -53253.6 3.75202e+06 0 -46601.2 3.75103e+06 0 -39947.1 3.75018e+06 0 -33291.5 3.74945e+06 0 -26634.7 3.74886e+06 0 -19976.9 3.7484e+06 0 -13318.3 3.74807e+06 0 -6659.29 3.74788e+06 0 0 3.74781e+06 0 337543 5.11954e+06 0 296414 5.12368e+06 0 255068 5.12509e+06 0 213767 5.1238e+06 0 172822 5.11986e+06 0 132500 5.11337e+06 0 93055.6 5.10444e+06 0 54707.6 5.09323e+06 0 17643.5 5.07993e+06 0 -17987.2 5.06473e+06 0 -52068.6 5.04784e+06 0 -84519.4 5.02946e+06 0 -115288 5.00979e+06 0 -144349 4.98903e+06 0 -171701 4.96735e+06 0 -197359 4.94492e+06 0 -221355 4.9219e+06 0 -243731 4.89842e+06 0 -264540 4.87461e+06 0 -283838 4.85057e+06 0 -301689 4.82641e+06 0 -318157 4.80221e+06 0 -333308 4.77804e+06 0 -347207 4.75397e+06 0 -359920 4.73005e+06 0 -371511 4.70633e+06 0 -382040 4.68285e+06 0 -391569 4.65964e+06 0 -400154 4.63674e+06 0 -407850 4.61415e+06 0 -414710 4.59191e+06 0 -420781 4.57003e+06 0 -426113 4.54851e+06 0 -430748 4.52737e+06 0 -434728 4.50662e+06 0 -438093 4.48626e+06 0 -440881 4.46629e+06 0 -443124 4.44671e+06 0 -444858 4.42752e+06 0 -446111 4.40872e+06 0 -446913 4.39032e+06 0 -447292 4.37229e+06 0 -447271 4.35465e+06 0 -446876 4.33739e+06 0 -446129 4.3205e+06 0 -445050 4.30398e+06 0 -443659 4.28781e+06 0 -441975 4.27201e+06 0 -440015 4.25655e+06 0 -437795 4.24144e+06 0 -435330 4.22667e+06 0 -432634 4.21223e+06 0 -429722 4.19811e+06 0 -426605 4.18432e+06 0 -423296 4.17083e+06 0 -419805 4.15766e+06 0 -416143 4.14479e+06 0 -412319 4.13221e+06 0 -408344 4.11992e+06 0 -404225 4.10792e+06 0 -399970 4.0962e+06 0 -395588 4.08474e+06 0 -391086 4.07356e+06 0 -386470 4.06264e+06 0 -381747 4.05198e+06 0 -376922 4.04157e+06 0 -372002 4.03141e+06 0 -366992 4.02149e+06 0 -361896 4.01181e+06 0 -356720 4.00237e+06 0 -351468 3.99315e+06 0 -346145 3.98416e+06 0 -340753 3.97539e+06 0 -335298 3.96685e+06 0 -329782 3.95851e+06 0 -324209 3.95038e+06 0 -318582 3.94247e+06 0 -3129