<?xml version="1.0"?> 
<VTKFile type="StructuredGrid" version="0.1"> 
<StructuredGrid WholeExtent="0 127 0 127 0 0"> 
<Piece Extent="0 127 0 127 0 0"> 
<PointData>
<DataArray type="Float32" Name="u" format="ascii" NumberOfComponents="3"> 
-2.0692e+06 0 0 -2.0692e+06 373.317 0 -2.0692e+06 746.635 0 -2.0692e+06 1119.95 0 -2.06921e+06 1493.27 0 -2.06921e+06 1866.6 0 -2.06922e+06 2239.92 0 -2.06922e+06 2613.25 0 -2.06923e+06 2986.58 0 -2.06924e+06 3359.92 0 -2.06925e+06 3733.26 0 -2.06926e+06 4106.6 0 -2.06927e+06 4479.95 0 -2.06929e+06 4853.31 0 -2.0693e+06 5226.67 0 -2.06932e+06 5600.04 0 -2.06933e+06 5973.41 0 -2.06935e+06 6346.8 0 -2.06937e+06 6720.19 0 -2.06939e+06 7093.59 0 -2.06941e+06 7467 0 -2.06943e+06 7840.42 0 -2.06945e+06 8213.85 0 -2.06948e+06 8587.3 0 -2.0695e+06 8960.75 0 -2.06953e+06 9334.21 0 -2.06955e+06 9707.69 0 -2.06958e+06 10081.2 0 -2.06961e+06 10454.7 0 -2.06964e+06 10828.2 0 -2.06967e+06 11201.7 0 -2.0697e+06 11575.3 0 -2.06973e+06 11948.8 0 -2.06977e+06 12322.4 0 -2.0698e+06 12696 0 -2.06984e+06 13069.6 0 -2.06988e+06 13443.2 0 -2.06991e+06 13816.9 0 -2.06995e+06 14190.6 0 -2.06999e+06 14564.2 0 -2.07004e+06 14937.9 0 -2.07008e+06 15311.7 0 -2.07012e+06 15685.4 0 -2.07017e+06 16059.2 0 -2.07021e+06 16432.9 0 -2.07026e+06 16806.7 0 -2.0703e+06 17180.6 0 -2.07035e+06 17554.4 0 -2.0704e+06 17928.3 0 -2.07045e+06 18302.2 0 -2.07051e+06 18676.1 0 -2.07056e+06 19050.1 0 -2.07061e+06 19424 0 -2.07067e+06 19798 0 -2.07072e+06 20172 0 -2.07078e+06 20546.1 0 -2.07084e+06 20920.2 0 -2.0709e+06 21294.3 0 -2.07096e+06 21668.4 0 -2.07102e+06 22042.6 0 -2.07108e+06 22416.7 0 -2.07114e+06 22791 0 -2.07121e+06 23165.2 0 -2.07127e+06 23539.5 0 -2.07134e+06 23913.8 0 -2.07141e+06 24288.1 0 -2.07148e+06 24662.5 0 -2.07155e+06 25036.9 0 -2.07162e+06 25411.4 0 -2.07169e+06 25785.8 0 -2.07176e+06 26160.3 0 -2.07183e+06 26534.9 0 -2.07191e+06 26909.5 0 -2.07198e+06 27284.1 0 -2.07206e+06 27658.7 0 -2.07214e+06 28033.4 0 -2.07222e+06 28408.1 0 -2.0723e+06 28782.9 0 -2.07238e+06 29157.7 0 -2.07246e+06 29532.5 0 -2.07254e+06 29907.4 0 -2.07263e+06 30282.3 0 -2.07271e+06 30657.2 0 -2.0728e+06 31032.2 0 -2.07289e+06 31407.3 0 -2.07298e+06 31782.4 0 -2.07307e+06 32157.5 0 -2.07316e+06 32532.6 0 -2.07325e+06 32907.8 0 -2.07334e+06 33283.1 0 -2.07343e+06 33658.4 0 -2.07353e+06 34033.7 0 -2.07362e+06 34409.1 0 -2.07372e+06 34784.5 0 -2.07382e+06 35160 0 -2.07392e+06 35535.5 0 -2.07402e+06 35911.1 0 -2.07412e+06 36286.7 0 -2.07422e+06 36662.4 0 -2.07432e+06 37038.1 0 -2.07443e+06 37413.8 0 -2.07453e+06 37789.6 0 -2.07464e+06 38165.5 0 -2.07475e+06 38541.4 0 -2.07485e+06 38917.4 0 -2.07496e+06 39293.4 0 -2.07507e+06 39669.4 0 -2.07519e+06 40045.6 0 -2.0753e+06 40421.7 0 -2.07541e+06 40798 0 -2.07553e+06 41174.2 0 -2.07564e+06 41550.6 0 -2.07576e+06 41927 0 -2.07588e+06 42303.4 0 -2.076e+06 42679.9 0 -2.07612e+06 43056.4 0 -2.07624e+06 43433.1 0 -2.07636e+06 43809.7 0 -2.07648e+06 44186.5 0 -2.07661e+06 44563.2 0 -2.07673e+06 44940.1 0 -2.07686e+06 45317 0 -2.07698e+06 45694 0 -2.07711e+06 46071 0 -2.07724e+06 46448.1 0 -2.07737e+06 46825.2 0 -2.0775e+06 47202.4 0 -2.07764e+06 47579.7 0 -2.06889e+06 0 0 -2.06889e+06 379.098 0 -2.06889e+06 758.197 0 -2.06889e+06 1137.3 0 -2.0689e+06 1516.4 0 -2.0689e+06 1895.5 0 -2.06891e+06 2274.61 0 -2.06891e+06 2653.72 0 -2.06892e+06 3032.83 0 -2.06893e+06 3411.95 0 -2.06894e+06 3791.07 0 -2.06895e+06 4170.2 0 -2.06897e+06 4549.33 0 -2.06898e+06 4928.47 0 -2.06899e+06 5307.61 0 -2.06901e+06 5686.76 0 -2.06903e+06 6065.92 0 -2.06904e+06 6445.09 0 -2.06906e+06 6824.27 0 -2.06908e+06 7203.45 0 -2.0691e+06 7582.65 0 -2.06912e+06 7961.86 0 -2.06915e+06 8341.07 0 -2.06917e+06 8720.3 0 -2.0692e+06 9099.54 0 -2.06922e+06 9478.79 0 -2.06925e+06 9858.06 0 -2.06928e+06 10237.3 0 -2.06931e+06 10616.6 0 -2.06934e+06 10995.9 0 -2.06937e+06 11375.3 0 -2.0694e+06 11754.6 0 -2.06944e+06 12133.9 0 -2.06947e+06 12513.3 0 -2.06951e+06 12892.7 0 -2.06954e+06 13272.1 0 -2.06958e+06 13651.5 0 -2.06962e+06 14031 0 -2.06966e+06 14410.4 0 -2.0697e+06 14789.9 0 -2.06975e+06 15169.4 0 -2.06979e+06 15548.9 0 -2.06983e+06 15928.5 0 -2.06988e+06 16308 0 -2.06993e+06 16687.6 0 -2.06997e+06 17067.2 0 -2.07002e+06 17446.8 0 -2.07007e+06 17826.5 0 -2.07012e+06 18206.2 0 -2.07017e+06 18585.9 0 -2.07023e+06 18965.6 0 -2.07028e+06 19345.3 0 -2.07034e+06 19725.1 0 -2.07039e+06 20104.9 0 -2.07045e+06 20484.8 0 -2.07051e+06 20864.6 0 -2.07057e+06 21244.5 0 -2.07063e+06 21624.4 0 -2.07069e+06 22004.4 0 -2.07075e+06 22384.3 0 -2.07082e+06 22764.3 0 -2.07088e+06 23144.4 0 -2.07095e+06 23524.5 0 -2.07102e+06 23904.6 0 -2.07108e+06 24284.7 0 -2.07115e+06 24664.9 0 -2.07122e+06 25045 0 -2.07129e+06 25425.3 0 -2.07137e+06 25805.5 0 -2.07144e+06 26185.8 0 -2.07152e+06 26566.2 0 -2.07159e+06 26946.6 0 -2.07167e+06 27327 0 -2.07175e+06 27707.4 0 -2.07182e+06 28087.9 0 -2.0719e+06 28468.4 0 -2.07199e+06 28849 0 -2.07207e+06 29229.6 0 -2.07215e+06 29610.2 0 -2.07223e+06 29990.9 0 -2.07232e+06 30371.6 0 -2.07241e+06 30752.4 0 -2.07249e+06 31133.2 0 -2.07258e+06 31514 0 -2.07267e+06 31894.9 0 -2.07276e+06 32275.9 0 -2.07285e+06 32656.8 0 -2.07295e+06 33037.8 0 -2.07304e+06 33418.9 0 -2.07314e+06 33800 0 -2.07323e+06 34181.2 0 -2.07333e+06 34562.4 0 -2.07343e+06 34943.6 0 -2.07353e+06 35324.9 0 -2.07363e+06 35706.3 0 -2.07373e+06 36087.7 0 -2.07383e+06 36469.1 0 -2.07393e+06 36850.6 0 -2.07404e+06 37232.1 0 -2.07415e+06 37613.7 0 -2.07425e+06 37995.4 0 -2.07436e+06 38377.1 0 -2.07447e+06 38758.8 0 -2.07458e+06 39140.6 0 -2.07469e+06 39522.5 0 -2.0748e+06 39904.4 0 -2.07492e+06 40286.3 0 -2.07503e+06 40668.4 0 -2.07515e+06 41050.4 0 -2.07526e+06 41432.6 0 -2.07538e+06 41814.7 0 -2.0755e+06 42197 0 -2.07562e+06 42579.3 0 -2.07574e+06 42961.6 0 -2.07586e+06 43344 0 -2.07598e+06 43726.5 0 -2.07611e+06 44109 0 -2.07623e+06 44491.6 0 -2.07636e+06 44874.3 0 -2.07649e+06 45257 0 -2.07662e+06 45639.8 0 -2.07675e+06 46022.6 0 -2.07688e+06 46405.5 0 -2.07701e+06 46788.5 0 -2.07714e+06 47171.5 0 -2.07727e+06 47554.6 0 -2.07741e+06 47937.8 0 -2.07755e+06 48321 0 -2.06858e+06 0 0 -2.06858e+06 384.902 0 -2.06858e+06 769.804 0 -2.06858e+06 1154.71 0 -2.06858e+06 1539.61 0 -2.06859e+06 1924.52 0 -2.0686e+06 2309.43 0 -2.0686e+06 2694.34 0 -2.06861e+06 3079.26 0 -2.06862e+06 3464.18 0 -2.06863e+06 3849.11 0 -2.06864e+06 4234.04 0 -2.06865e+06 4618.98 0 -2.06867e+06 5003.92 0 -2.06868e+06 5388.87 0 -2.0687e+06 5773.83 0 -2.06872e+06 6158.79 0 -2.06873e+06 6543.77 0 -2.06875e+06 6928.75 0 -2.06877e+06 7313.75 0 -2.0688e+06 7698.75 0 -2.06882e+06 8083.76 0 -2.06884e+06 8468.79 0 -2.06887e+06 8853.82 0 -2.06889e+06 9238.87 0 -2.06892e+06 9623.94 0 -2.06895e+06 10009 0 -2.06898e+06 10394.1 0 -2.06901e+06 10779.2 0 -2.06904e+06 11164.3 0 -2.06907e+06 11549.5 0 -2.0691e+06 11934.6 0 -2.06914e+06 12319.8 0 -2.06917e+06 12705 0 -2.06921e+06 13090.2 0 -2.06925e+06 13475.4 0 -2.06929e+06 13860.6 0 -2.06933e+06 14245.9 0 -2.06937e+06 14631.1 0 -2.06941e+06 15016.4 0 -2.06946e+06 15401.8 0 -2.0695e+06 15787.1 0 -2.06955e+06 16172.5 0 -2.06959e+06 16557.8 0 -2.06964e+06 16943.3 0 -2.06969e+06 17328.7 0 -2.06974e+06 17714.1 0 -2.06979e+06 18099.6 0 -2.06984e+06 18485.1 0 -2.0699e+06 18870.7 0 -2.06995e+06 19256.2 0 -2.07001e+06 19641.8 0 -2.07006e+06 20027.4 0 -2.07012e+06 20413 0 -2.07018e+06 20798.7 0 -2.07024e+06 21184.4 0 -2.0703e+06 21570.1 0 -2.07036e+06 21955.9 0 -2.07043e+06 22341.7 0 -2.07049e+06 22727.5 0 -2.07056e+06 23113.3 0 -2.07062e+06 23499.2 0 -2.07069e+06 23885.1 0 -2.07076e+06 24271.1 0 -2.07083e+06 24657 0 -2.0709e+06 25043 0 -2.07097e+06 25429.1 0 -2.07104e+06 25815.2 0 -2.07112e+06 26201.3 0 -2.07119e+06 26587.5 0 -2.07127e+06 26973.6 0 -2.07135e+06 27359.9 0 -2.07143e+06 27746.1 0 -2.07151e+06 28132.4 0 -2.07159e+06 28518.8 0 -2.07167e+06 28905.2 0 -2.07175e+06 29291.6 0 -2.07184e+06 29678.1 0 -2.07192e+06 30064.6 0 -2.07201e+06 30451.1 0 -2.0721e+06 30837.7 0 -2.07218e+06 31224.4 0 -2.07227e+06 31611 0 -2.07236e+06 31997.8 0 -2.07246e+06 32384.5 0 -2.07255e+06 32771.3 0 -2.07264e+06 33158.2 0 -2.07274e+06 33545.1 0 -2.07284e+06 33932 0 -2.07293e+06 34319 0 -2.07303e+06 34706.1 0 -2.07313e+06 35093.2 0 -2.07323e+06 35480.3 0 -2.07333e+06 35867.5 0 -2.07344e+06 36254.7 0 -2.07354e+06 36642 0 -2.07365e+06 37029.4 0 -2.07375e+06 37416.8 0 -2.07386e+06 37804.2 0 -2.07397e+06 38191.7 0 -2.07408e+06 38579.3 0 -2.07419e+06 38966.9 0 -2.0743e+06 39354.5 0 -2.07441e+06 39742.3 0 -2.07453e+06 40130 0 -2.07464e+06 40517.9 0 -2.07476e+06 40905.7 0 -2.07488e+06 41293.7 0 -2.07499e+06 41681.7 0 -2.07511e+06 42069.7 0 -2.07523e+06 42457.8 0 -2.07536e+06 42846 0 -2.07548e+06 43234.3 0 -2.0756e+06 43622.5 0 -2.07573e+06 44010.9 0 -2.07585e+06 44399.3 0 -2.07598e+06 44787.8 0 -2.07611e+06 45176.3 0 -2.07624e+06 45564.9 0 -2.07637e+06 45953.6 0 -2.0765e+06 46342.3 0 -2.07664e+06 46731.1 0 -2.07677e+06 47120 0 -2.0769e+06 47508.9 0 -2.07704e+06 47897.9 0 -2.07718e+06 48287 0 -2.07732e+06 48676.1 0 -2.07746e+06 49065.3 0 -2.06826e+06 0 0 -2.06826e+06 390.728 0 -2.06826e+06 781.456 0 -2.06827e+06 1172.19 0 -2.06827e+06 1562.92 0 -2.06828e+06 1953.65 0 -2.06828e+06 2344.39 0 -2.06829e+06 2735.13 0 -2.0683e+06 3125.87 0 -2.06831e+06 3516.62 0 -2.06832e+06 3907.37 0 -2.06833e+06 4298.13 0 -2.06834e+06 4688.89 0 -2.06836e+06 5079.67 0 -2.06837e+06 5470.44 0 -2.06839e+06 5861.23 0 -2.06841e+06 6252.02 0 -2.06843e+06 6642.83 0 -2.06845e+06 7033.64 0 -2.06847e+06 7424.46 0 -2.06849e+06 7815.3 0 -2.06851e+06 8206.14 0 -2.06854e+06 8597 0 -2.06856e+06 8987.87 0 -2.06859e+06 9378.75 0 -2.06862e+06 9769.64 0 -2.06864e+06 10160.5 0 -2.06867e+06 10551.5 0 -2.0687e+06 10942.4 0 -2.06874e+06 11333.4 0 -2.06877e+06 11724.3 0 -2.0688e+06 12115.3 0 -2.06884e+06 12506.3 0 -2.06888e+06 12897.3 0 -2.06891e+06 13288.4 0 -2.06895e+06 13679.4 0 -2.06899e+06 14070.5 0 -2.06903e+06 14461.6 0 -2.06908e+06 14852.7 0 -2.06912e+06 15243.9 0 -2.06916e+06 15635 0 -2.06921e+06 16026.2 0 -2.06926e+06 16417.4 0 -2.06931e+06 16808.7 0 -2.06935e+06 17199.9 0 -2.0694e+06 17591.2 0 -2.06946e+06 17982.5 0 -2.06951e+06 18373.8 0 -2.06956e+06 18765.2 0 -2.06962e+06 19156.6 0 -2.06967e+06 19548 0 -2.06973e+06 19939.4 0 -2.06979e+06 20330.9 0 -2.06985e+06 20722.4 0 -2.06991e+06 21113.9 0 -2.06997e+06 21505.4 0 -2.07003e+06 21897 0 -2.07009e+06 22288.6 0 -2.07016e+06 22680.3 0 -2.07023e+06 23072 0 -2.07029e+06 23463.7 0 -2.07036e+06 23855.4 0 -2.07043e+06 24247.2 0 -2.0705e+06 24639 0 -2.07057e+06 25030.9 0 -2.07064e+06 25422.7 0 -2.07072e+06 25814.7 0 -2.07079e+06 26206.6 0 -2.07087e+06 26598.6 0 -2.07095e+06 26990.6 0 -2.07103e+06 27382.7 0 -2.07111e+06 27774.8 0 -2.07119e+06 28167 0 -2.07127e+06 28559.2 0 -2.07135e+06 28951.4 0 -2.07143e+06 29343.7 0 -2.07152e+06 29736 0 -2.07161e+06 30128.3 0 -2.07169e+06 30520.7 0 -2.07178e+06 30913.2 0 -2.07187e+06 31305.7 0 -2.07196e+06 31698.2 0 -2.07205e+06 32090.8 0 -2.07215e+06 32483.4 0 -2.07224e+06 32876.1 0 -2.07234e+06 33268.8 0 -2.07243e+06 33661.5 0 -2.07253e+06 34054.3 0 -2.07263e+06 34447.2 0 -2.07273e+06 34840.1 0 -2.07283e+06 35233.1 0 -2.07293e+06 35626.1 0 -2.07304e+06 36019.1 0 -2.07314e+06 36412.3 0 -2.07325e+06 36805.4 0 -2.07335e+06 37198.6 0 -2.07346e+06 37591.9 0 -2.07357e+06 37985.2 0 -2.07368e+06 38378.6 0 -2.07379e+06 38772 0 -2.0739e+06 39165.5 0 -2.07402e+06 39559.1 0 -2.07413e+06 39952.7 0 -2.07425e+06 40346.3 0 -2.07437e+06 40740 0 -2.07448e+06 41133.8 0 -2.0746e+06 41527.6 0 -2.07472e+06 41921.5 0 -2.07484e+06 42315.5 0 -2.07497e+06 42709.5 0 -2.07509e+06 43103.6 0 -2.07522e+06 43497.7 0 -2.07534e+06 43891.9 0 -2.07547e+06 44286.2 0 -2.0756e+06 44680.5 0 -2.07573e+06 45074.9 0 -2.07586e+06 45469.3 0 -2.07599e+06 45863.8 0 -2.07612e+06 46258.4 0 -2.07626e+06 46653.1 0 -2.07639e+06 47047.8 0 -2.07653e+06 47442.6 0 -2.07666e+06 47837.4 0 -2.0768e+06 48232.3 0 -2.07694e+06 48627.3 0 -2.07708e+06 49022.4 0 -2.07722e+06 49417.5 0 -2.07737e+06 49812.7 0 -2.06795e+06 0 0 -2.06795e+06 396.576 0 -2.06795e+06 793.153 0 -2.06795e+06 1189.73 0 -2.06796e+06 1586.31 0 -2.06796e+06 1982.89 0 -2.06797e+06 2379.48 0 -2.06798e+06 2776.07 0 -2.06799e+06 3172.66 0 -2.068e+06 3569.26 0 -2.06801e+06 3965.86 0 -2.06802e+06 4362.47 0 -2.06803e+06 4759.08 0 -2.06805e+06 5155.7 0 -2.06806e+06 5552.33 0 -2.06808e+06 5948.97 0 -2.0681e+06 6345.61 0 -2.06812e+06 6742.27 0 -2.06814e+06 7138.93 0 -2.06816e+06 7535.61 0 -2.06818e+06 7932.3 0 -2.0682e+06 8328.99 0 -2.06823e+06 8725.7 0 -2.06825e+06 9122.42 0 -2.06828e+06 9519.16 0 -2.06831e+06 9915.91 0 -2.06834e+06 10312.7 0 -2.06837e+06 10709.5 0 -2.0684e+06 11106.2 0 -2.06843e+06 11503.1 0 -2.06847e+06 11899.9 0 -2.0685e+06 12296.7 0 -2.06854e+06 12693.6 0 -2.06858e+06 13090.5 0 -2.06862e+06 13487.4 0 -2.06866e+06 13884.3 0 -2.0687e+06 14281.2 0 -2.06874e+06 14678.2 0 -2.06878e+06 15075.2 0 -2.06883e+06 15472.2 0 -2.06887e+06 15869.2 0 -2.06892e+06 16266.3 0 -2.06897e+06 16663.3 0 -2.06902e+06 17060.4 0 -2.06907e+06 17457.6 0 -2.06912e+06 17854.7 0 -2.06917e+06 18251.9 0 -2.06923e+06 18649.1 0 -2.06928e+06 19046.3 0 -2.06934e+06 19443.6 0 -2.06939e+06 19840.8 0 -2.06945e+06 20238.2 0 -2.06951e+06 20635.5 0 -2.06957e+06 21032.9 0 -2.06963e+06 21430.3 0 -2.0697e+06 21827.7 0 -2.06976e+06 22225.2 0 -2.06983e+06 22622.7 0 -2.06989e+06 23020.2 0 -2.06996e+06 23417.8 0 -2.07003e+06 23815.4 0 -2.0701e+06 24213 0 -2.07017e+06 24610.7 0 -2.07024e+06 25008.4 0 -2.07032e+06 25406.1 0 -2.07039e+06 25803.9 0 -2.07047e+06 26201.7 0 -2.07054e+06 26599.6 0 -2.07062e+06 26997.5 0 -2.0707e+06 27395.4 0 -2.07078e+06 27793.4 0 -2.07086e+06 28191.4 0 -2.07095e+06 28589.5 0 -2.07103e+06 28987.6 0 -2.07111e+06 29385.7 0 -2.0712e+06 29783.9 0 -2.07129e+06 30182.1 0 -2.07138e+06 30580.4 0 -2.07147e+06 30978.7 0 -2.07156e+06 31377 0 -2.07165e+06 31775.5 0 -2.07174e+06 32173.9 0 -2.07184e+06 32572.4 0 -2.07193e+06 32971 0 -2.07203e+06 33369.5 0 -2.07213e+06 33768.2 0 -2.07223e+06 34166.9 0 -2.07233e+06 34565.6 0 -2.07243e+06 34964.4 0 -2.07253e+06 35363.3 0 -2.07263e+06 35762.2 0 -2.07274e+06 36161.1 0 -2.07284e+06 36560.1 0 -2.07295e+06 36959.2 0 -2.07306e+06 37358.3 0 -2.07317e+06 37757.4 0 -2.07328e+06 38156.7 0 -2.07339e+06 38555.9 0 -2.0735e+06 38955.3 0 -2.07362e+06 39354.7 0 -2.07373e+06 39754.1 0 -2.07385e+06 40153.6 0 -2.07397e+06 40553.2 0 -2.07408e+06 40952.8 0 -2.0742e+06 41352.5 0 -2.07433e+06 41752.2 0 -2.07445e+06 42152 0 -2.07457e+06 42551.9 0 -2.0747e+06 42951.8 0 -2.07482e+06 43351.8 0 -2.07495e+06 43751.9 0 -2.07508e+06 44152 0 -2.07521e+06 44552.2 0 -2.07534e+06 44952.4 0 -2.07547e+06 45352.8 0 -2.0756e+06 45753.1 0 -2.07573e+06 46153.6 0 -2.07587e+06 46554.1 0 -2.076e+06 46954.7 0 -2.07614e+06 47355.4 0 -2.07628e+06 47756.1 0 -2.07642e+06 48156.9 0 -2.07656e+06 48557.7 0 -2.0767e+06 48958.7 0 -2.07685e+06 49359.7 0 -2.07699e+06 49760.8 0 -2.07714e+06 50161.9 0 -2.07728e+06 50563.2 0 -2.06763e+06 0 0 -2.06764e+06 402.447 0 -2.06764e+06 804.895 0 -2.06764e+06 1207.34 0 -2.06764e+06 1609.79 0 -2.06765e+06 2012.25 0 -2.06766e+06 2414.7 0 -2.06766e+06 2817.16 0 -2.06767e+06 3219.63 0 -2.06768e+06 3622.1 0 -2.06769e+06 4024.57 0 -2.06771e+06 4427.05 0 -2.06772e+06 4829.54 0 -2.06773e+06 5232.03 0 -2.06775e+06 5634.53 0 -2.06777e+06 6037.04 0 -2.06779e+06 6439.56 0 -2.06781e+06 6842.09 0 -2.06783e+06 7244.63 0 -2.06785e+06 7647.18 0 -2.06787e+06 8049.74 0 -2.0679e+06 8452.32 0 -2.06792e+06 8854.9 0 -2.06795e+06 9257.5 0 -2.06798e+06 9660.11 0 -2.068e+06 10062.7 0 -2.06803e+06 10465.4 0 -2.06807e+06 10868 0 -2.0681e+06 11270.7 0 -2.06813e+06 11673.4 0 -2.06817e+06 12076.1 0 -2.0682e+06 12478.8 0 -2.06824e+06 12881.6 0 -2.06828e+06 13284.4 0 -2.06832e+06 13687.1 0 -2.06836e+06 14089.9 0 -2.0684e+06 14492.8 0 -2.06845e+06 14895.6 0 -2.06849e+06 15298.5 0 -2.06854e+06 15701.4 0 -2.06858e+06 16104.3 0 -2.06863e+06 16507.2 0 -2.06868e+06 16910.2 0 -2.06873e+06 17313.2 0 -2.06878e+06 17716.2 0 -2.06883e+06 18119.2 0 -2.06889e+06 18522.3 0 -2.06894e+06 18925.4 0 -2.069e+06 19328.5 0 -2.06906e+06 19731.7 0 -2.06912e+06 20134.9 0 -2.06917e+06 20538.1 0 -2.06924e+06 20941.3 0 -2.0693e+06 21344.6 0 -2.06936e+06 21747.9 0 -2.06943e+06 22151.3 0 -2.06949e+06 22554.6 0 -2.06956e+06 22958 0 -2.06963e+06 23361.5 0 -2.0697e+06 23765 0 -2.06977e+06 24168.5 0 -2.06984e+06 24572 0 -2.06991e+06 24975.6 0 -2.06999e+06 25379.2 0 -2.07006e+06 25782.9 0 -2.07014e+06 26186.6 0 -2.07021e+06 26590.3 0 -2.07029e+06 26994.1 0 -2.07037e+06 27397.9 0 -2.07045e+06 27801.8 0 -2.07054e+06 28205.7 0 -2.07062e+06 28609.6 0 -2.07071e+06 29013.6 0 -2.07079e+06 29417.6 0 -2.07088e+06 29821.7 0 -2.07097e+06 30225.8 0 -2.07106e+06 30630 0 -2.07115e+06 31034.2 0 -2.07124e+06 31438.4 0 -2.07133e+06 31842.7 0 -2.07143e+06 32247.1 0 -2.07152e+06 32651.5 0 -2.07162e+06 33055.9 0 -2.07172e+06 33460.4 0 -2.07181e+06 33865 0 -2.07191e+06 34269.6 0 -2.07202e+06 34674.2 0 -2.07212e+06 35078.9 0 -2.07222e+06 35483.7 0 -2.07233e+06 35888.5 0 -2.07243e+06 36293.4 0 -2.07254e+06 36698.3 0 -2.07265e+06 37103.2 0 -2.07276e+06 37508.3 0 -2.07287e+06 37913.3 0 -2.07298e+06 38318.5 0 -2.0731e+06 38723.7 0 -2.07321e+06 39128.9 0 -2.07333e+06 39534.2 0 -2.07344e+06 39939.6 0 -2.07356e+06 40345.1 0 -2.07368e+06 40750.5 0 -2.0738e+06 41156.1 0 -2.07392e+06 41561.7 0 -2.07404e+06 41967.4 0 -2.07417e+06 42373.1 0 -2.07429e+06 42778.9 0 -2.07442e+06 43184.8 0 -2.07455e+06 43590.8 0 -2.07468e+06 43996.8 0 -2.07481e+06 44402.8 0 -2.07494e+06 44809 0 -2.07507e+06 45215.2 0 -2.0752e+06 45621.4 0 -2.07534e+06 46027.8 0 -2.07547e+06 46434.2 0 -2.07561e+06 46840.6 0 -2.07575e+06 47247.2 0 -2.07589e+06 47653.8 0 -2.07603e+06 48060.5 0 -2.07617e+06 48467.3 0 -2.07632e+06 48874.1 0 -2.07646e+06 49281 0 -2.0766e+06 49688 0 -2.07675e+06 50095.1 0 -2.0769e+06 50502.2 0 -2.07705e+06 50909.4 0 -2.0772e+06 51316.7 0 -2.06732e+06 0 0 -2.06732e+06 408.341 0 -2.06732e+06 816.682 0 -2.06733e+06 1225.02 0 -2.06733e+06 1633.37 0 -2.06733e+06 2041.72 0 -2.06734e+06 2450.07 0 -2.06735e+06 2858.42 0 -2.06736e+06 3266.78 0 -2.06737e+06 3675.14 0 -2.06738e+06 4083.51 0 -2.06739e+06 4491.88 0 -2.06741e+06 4900.27 0 -2.06742e+06 5308.65 0 -2.06744e+06 5717.05 0 -2.06746e+06 6125.46 0 -2.06747e+06 6533.87 0 -2.06749e+06 6942.3 0 -2.06752e+06 7350.73 0 -2.06754e+06 7759.18 0 -2.06756e+06 8167.64 0 -2.06759e+06 8576.11 0 -2.06761e+06 8984.6 0 -2.06764e+06 9393.1 0 -2.06767e+06 9801.61 0 -2.0677e+06 10210.1 0 -2.06773e+06 10618.7 0 -2.06776e+06 11027.2 0 -2.0678e+06 11435.8 0 -2.06783e+06 11844.4 0 -2.06787e+06 12253 0 -2.0679e+06 12661.7 0 -2.06794e+06 13070.3 0 -2.06798e+06 13479 0 -2.06802e+06 13887.7 0 -2.06806e+06 14296.4 0 -2.06811e+06 14705.1 0 -2.06815e+06 15113.9 0 -2.0682e+06 15522.6 0 -2.06824e+06 15931.4 0 -2.06829e+06 16340.3 0 -2.06834e+06 16749.1 0 -2.06839e+06 17158 0 -2.06844e+06 17566.9 0 -2.06849e+06 17975.8 0 -2.06855e+06 18384.8 0 -2.0686e+06 18793.8 0 -2.06866e+06 19202.8 0 -2.06872e+06 19611.9 0 -2.06878e+06 20020.9 0 -2.06884e+06 20430 0 -2.0689e+06 20839.2 0 -2.06896e+06 21248.3 0 -2.06902e+06 21657.5 0 -2.06909e+06 22066.8 0 -2.06915e+06 22476 0 -2.06922e+06 22885.3 0 -2.06929e+06 23294.7 0 -2.06936e+06 23704.1 0 -2.06943e+06 24113.5 0 -2.0695e+06 24522.9 0 -2.06958e+06 24932.4 0 -2.06965e+06 25341.9 0 -2.06973e+06 25751.5 0 -2.0698e+06 26161.1 0 -2.06988e+06 26570.7 0 -2.06996e+06 26980.4 0 -2.07004e+06 27390.1 0 -2.07013e+06 27799.9 0 -2.07021e+06 28209.7 0 -2.07029e+06 28619.6 0 -2.07038e+06 29029.4 0 -2.07046e+06 29439.4 0 -2.07055e+06 29849.4 0 -2.07064e+06 30259.4 0 -2.07073e+06 30669.5 0 -2.07082e+06 31079.6 0 -2.07092e+06 31489.8 0 -2.07101e+06 31900 0 -2.07111e+06 32310.3 0 -2.0712e+06 32720.6 0 -2.0713e+06 33131 0 -2.0714e+06 33541.4 0 -2.0715e+06 33951.8 0 -2.0716e+06 34362.4 0 -2.0717e+06 34772.9 0 -2.07181e+06 35183.6 0 -2.07191e+06 35594.3 0 -2.07202e+06 36005 0 -2.07213e+06 36415.8 0 -2.07224e+06 36826.6 0 -2.07235e+06 37237.5 0 -2.07246e+06 37648.5 0 -2.07257e+06 38059.5 0 -2.07268e+06 38470.6 0 -2.0728e+06 38881.7 0 -2.07291e+06 39292.9 0 -2.07303e+06 39704.2 0 -2.07315e+06 40115.5 0 -2.07327e+06 40526.9 0 -2.07339e+06 40938.3 0 -2.07351e+06 41349.9 0 -2.07364e+06 41761.4 0 -2.07376e+06 42173.1 0 -2.07389e+06 42584.8 0 -2.07401e+06 42996.5 0 -2.07414e+06 43408.4 0 -2.07427e+06 43820.3 0 -2.0744e+06 44232.2 0 -2.07453e+06 44644.3 0 -2.07467e+06 45056.4 0 -2.0748e+06 45468.5 0 -2.07494e+06 45880.8 0 -2.07507e+06 46293.1 0 -2.07521e+06 46705.5 0 -2.07535e+06 47117.9 0 -2.07549e+06 47530.5 0 -2.07563e+06 47943.1 0 -2.07578e+06 48355.7 0 -2.07592e+06 48768.5 0 -2.07607e+06 49181.3 0 -2.07621e+06 49594.2 0 -2.07636e+06 50007.2 0 -2.07651e+06 50420.3 0 -2.07666e+06 50833.4 0 -2.07681e+06 51246.6 0 -2.07696e+06 51659.9 0 -2.07712e+06 52073.3 0 -2.067e+06 0 0 -2.067e+06 414.256 0 -2.06701e+06 828.513 0 -2.06701e+06 1242.77 0 -2.06701e+06 1657.03 0 -2.06702e+06 2071.29 0 -2.06703e+06 2485.56 0 -2.06703e+06 2899.83 0 -2.06704e+06 3314.1 0 -2.06705e+06 3728.38 0 -2.06707e+06 4142.67 0 -2.06708e+06 4556.96 0 -2.06709e+06 4971.26 0 -2.06711e+06 5385.57 0 -2.06713e+06 5799.88 0 -2.06714e+06 6214.21 0 -2.06716e+06 6628.54 0 -2.06718e+06 7042.89 0 -2.06721e+06 7457.24 0 -2.06723e+06 7871.61 0 -2.06725e+06 8285.99 0 -2.06728e+06 8700.38 0 -2.0673e+06 9114.79 0 -2.06733e+06 9529.21 0 -2.06736e+06 9943.64 0 -2.06739e+06 10358.1 0 -2.06742e+06 10772.6 0 -2.06746e+06 11187 0 -2.06749e+06 11601.5 0 -2.06753e+06 12016.1 0 -2.06756e+06 12430.6 0 -2.0676e+06 12845.2 0 -2.06764e+06 13259.7 0 -2.06768e+06 13674.3 0 -2.06772e+06 14089 0 -2.06776e+06 14503.6 0 -2.06781e+06 14918.3 0 -2.06785e+06 15333 0 -2.0679e+06 15747.7 0 -2.06795e+06 16162.4 0 -2.068e+06 16577.2 0 -2.06805e+06 16992 0 -2.0681e+06 17406.8 0 -2.06815e+06 17821.6 0 -2.06821e+06 18236.5 0 -2.06826e+06 18651.4 0 -2.06832e+06 19066.3 0 -2.06838e+06 19481.3 0 -2.06843e+06 19896.3 0 -2.0685e+06 20311.3 0 -2.06856e+06 20726.3 0 -2.06862e+06 21141.4 0 -2.06868e+06 21556.5 0 -2.06875e+06 21971.7 0 -2.06882e+06 22386.9 0 -2.06888e+06 22802.1 0 -2.06895e+06 23217.3 0 -2.06902e+06 23632.6 0 -2.06909e+06 24048 0 -2.06917e+06 24463.3 0 -2.06924e+06 24878.7 0 -2.06932e+06 25294.2 0 -2.06939e+06 25709.7 0 -2.06947e+06 26125.2 0 -2.06955e+06 26540.8 0 -2.06963e+06 26956.4 0 -2.06971e+06 27372 0 -2.06979e+06 27787.7 0 -2.06988e+06 28203.4 0 -2.06996e+06 28619.2 0 -2.07005e+06 29035 0 -2.07014e+06 29450.9 0 -2.07022e+06 29866.8 0 -2.07032e+06 30282.8 0 -2.07041e+06 30698.8 0 -2.0705e+06 31114.9 0 -2.07059e+06 31531 0 -2.07069e+06 31947.1 0 -2.07078e+06 32363.4 0 -2.07088e+06 32779.6 0 -2.07098e+06 33195.9 0 -2.07108e+06 33612.3 0 -2.07118e+06 34028.7 0 -2.07129e+06 34445.2 0 -2.07139e+06 34861.7 0 -2.07149e+06 35278.3 0 -2.0716e+06 35694.9 0 -2.07171e+06 36111.6 0 -2.07182e+06 36528.3 0 -2.07193e+06 36945.2 0 -2.07204e+06 37362 0 -2.07215e+06 37778.9 0 -2.07226e+06 38195.9 0 -2.07238e+06 38613 0 -2.0725e+06 39030.1 0 -2.07261e+06 39447.2 0 -2.07273e+06 39864.5 0 -2.07285e+06 40281.7 0 -2.07297e+06 40699.1 0 -2.0731e+06 41116.5 0 -2.07322e+06 41534 0 -2.07335e+06 41951.5 0 -2.07347e+06 42369.2 0 -2.0736e+06 42786.8 0 -2.07373e+06 43204.6 0 -2.07386e+06 43622.4 0 -2.07399e+06 44040.3 0 -2.07412e+06 44458.2 0 -2.07426e+06 44876.3 0 -2.07439e+06 45294.4 0 -2.07453e+06 45712.5 0 -2.07467e+06 46130.8 0 -2.0748e+06 46549.1 0 -2.07494e+06 46967.5 0 -2.07509e+06 47385.9 0 -2.07523e+06 47804.4 0 -2.07537e+06 48223.1 0 -2.07552e+06 48641.7 0 -2.07566e+06 49060.5 0 -2.07581e+06 49479.3 0 -2.07596e+06 49898.3 0 -2.07611e+06 50317.3 0 -2.07626e+06 50736.3 0 -2.07641e+06 51155.5 0 -2.07657e+06 51574.7 0 -2.07672e+06 51994.1 0 -2.07688e+06 52413.5 0 -2.07704e+06 52832.9 0 -2.06669e+06 0 0 -2.06669e+06 420.194 0 -2.06669e+06 840.39 0 -2.06669e+06 1260.59 0 -2.0667e+06 1680.78 0 -2.0667e+06 2100.99 0 -2.06671e+06 2521.19 0 -2.06672e+06 2941.4 0 -2.06673e+06 3361.61 0 -2.06674e+06 3781.83 0 -2.06675e+06 4202.06 0 -2.06676e+06 4622.29 0 -2.06678e+06 5042.53 0 -2.06679e+06 5462.77 0 -2.06681e+06 5883.03 0 -2.06683e+06 6303.29 0 -2.06685e+06 6723.57 0 -2.06687e+06 7143.86 0 -2.06689e+06 7564.15 0 -2.06692e+06 7984.46 0 -2.06694e+06 8404.78 0 -2.06697e+06 8825.12 0 -2.067e+06 9245.47 0 -2.06702e+06 9665.84 0 -2.06705e+06 10086.2 0 -2.06708e+06 10506.6 0 -2.06712e+06 10927 0 -2.06715e+06 11347.5 0 -2.06719e+06 11767.9 0 -2.06722e+06 12188.4 0 -2.06726e+06 12608.9 0 -2.0673e+06 13029.4 0 -2.06734e+06 13449.9 0 -2.06738e+06 13870.4 0 -2.06742e+06 14291 0 -2.06747e+06 14711.6 0 -2.06751e+06 15132.2 0 -2.06756e+06 15552.9 0 -2.06761e+06 15973.5 0 -2.06765e+06 16394.2 0 -2.0677e+06 16815 0 -2.06776e+06 17235.7 0 -2.06781e+06 17656.5 0 -2.06786e+06 18077.3 0 -2.06792e+06 18498.1 0 -2.06798e+06 18919 0 -2.06803e+06 19339.9 0 -2.06809e+06 19760.8 0 -2.06815e+06 20181.7 0 -2.06821e+06 20602.7 0 -2.06828e+06 21023.8 0 -2.06834e+06 21444.8 0 -2.06841e+06 21865.9 0 -2.06847e+06 22287 0 -2.06854e+06 22708.2 0 -2.06861e+06 23129.4 0 -2.06868e+06 23550.6 0 -2.06875e+06 23971.9 0 -2.06883e+06 24393.2 0 -2.0689e+06 24814.5 0 -2.06898e+06 25235.9 0 -2.06905e+06 25657.4 0 -2.06913e+06 26078.8 0 -2.06921e+06 26500.3 0 -2.06929e+06 26921.9 0 -2.06937e+06 27343.5 0 -2.06946e+06 27765.1 0 -2.06954e+06 28186.8 0 -2.06963e+06 28608.5 0 -2.06972e+06 29030.3 0 -2.0698e+06 29452.1 0 -2.06989e+06 29874 0 -2.06998e+06 30295.9 0 -2.07008e+06 30717.9 0 -2.07017e+06 31139.9 0 -2.07027e+06 31562 0 -2.07036e+06 31984.1 0 -2.07046e+06 32406.3 0 -2.07056e+06 32828.5 0 -2.07066e+06 33250.8 0 -2.07076e+06 33673.1 0 -2.07086e+06 34095.5 0 -2.07097e+06 34517.9 0 -2.07107e+06 34940.4 0 -2.07118e+06 35363 0 -2.07128e+06 35785.6 0 -2.07139e+06 36208.2 0 -2.0715e+06 36631 0 -2.07161e+06 37053.7 0 -2.07173e+06 37476.6 0 -2.07184e+06 37899.5 0 -2.07196e+06 38322.5 0 -2.07207e+06 38745.5 0 -2.07219e+06 39168.6 0 -2.07231e+06 39591.7 0 -2.07243e+06 40014.9 0 -2.07255e+06 40438.2 0 -2.07268e+06 40861.6 0 -2.0728e+06 41285 0 -2.07293e+06 41708.4 0 -2.07305e+06 42132 0 -2.07318e+06 42555.6 0 -2.07331e+06 42979.3 0 -2.07344e+06 43403 0 -2.07357e+06 43826.9 0 -2.07371e+06 44250.7 0 -2.07384e+06 44674.7 0 -2.07398e+06 45098.7 0 -2.07411e+06 45522.8 0 -2.07425e+06 45947 0 -2.07439e+06 46371.3 0 -2.07453e+06 46795.6 0 -2.07467e+06 47220 0 -2.07482e+06 47644.5 0 -2.07496e+06 48069.1 0 -2.07511e+06 48493.7 0 -2.07525e+06 48918.4 0 -2.0754e+06 49343.2 0 -2.07555e+06 49768.1 0 -2.0757e+06 50193 0 -2.07586e+06 50618.1 0 -2.07601e+06 51043.2 0 -2.07617e+06 51468.4 0 -2.07632e+06 51893.7 0 -2.07648e+06 52319.1 0 -2.07664e+06 52744.5 0 -2.0768e+06 53170 0 -2.07696e+06 53595.7 0 -2.06637e+06 0 0 -2.06637e+06 426.155 0 -2.06637e+06 852.311 0 -2.06638e+06 1278.47 0 -2.06638e+06 1704.63 0 -2.06639e+06 2130.79 0 -2.06639e+06 2556.95 0 -2.0664e+06 2983.12 0 -2.06641e+06 3409.3 0 -2.06642e+06 3835.48 0 -2.06644e+06 4261.67 0 -2.06645e+06 4687.86 0 -2.06646e+06 5114.06 0 -2.06648e+06 5540.27 0 -2.0665e+06 5966.49 0 -2.06652e+06 6392.72 0 -2.06654e+06 6818.96 0 -2.06656e+06 7245.21 0 -2.06658e+06 7671.47 0 -2.0666e+06 8097.74 0 -2.06663e+06 8524.03 0 -2.06666e+06 8950.33 0 -2.06669e+06 9376.65 0 -2.06671e+06 9802.98 0 -2.06674e+06 10229.3 0 -2.06678e+06 10655.7 0 -2.06681e+06 11082.1 0 -2.06684e+06 11508.5 0 -2.06688e+06 11934.9 0 -2.06692e+06 12361.3 0 -2.06696e+06 12787.8 0 -2.067e+06 13214.3 0 -2.06704e+06 13640.8 0 -2.06708e+06 14067.3 0 -2.06712e+06 14493.8 0 -2.06717e+06 14920.4 0 -2.06721e+06 15347 0 -2.06726e+06 15773.6 0 -2.06731e+06 16200.3 0 -2.06736e+06 16627 0 -2.06741e+06 17053.7 0 -2.06746e+06 17480.4 0 -2.06752e+06 17907.1 0 -2.06757e+06 18333.9 0 -2.06763e+06 18760.7 0 -2.06769e+06 19187.6 0 -2.06775e+06 19614.5 0 -2.06781e+06 20041.4 0 -2.06787e+06 20468.3 0 -2.06793e+06 20895.3 0 -2.068e+06 21322.3 0 -2.06806e+06 21749.4 0 -2.06813e+06 22176.4 0 -2.0682e+06 22603.6 0 -2.06827e+06 23030.7 0 -2.06834e+06 23457.9 0 -2.06841e+06 23885.1 0 -2.06848e+06 24312.4 0 -2.06856e+06 24739.7 0 -2.06864e+06 25167.1 0 -2.06871e+06 25594.5 0 -2.06879e+06 26021.9 0 -2.06887e+06 26449.4 0 -2.06895e+06 26876.9 0 -2.06904e+06 27304.5 0 -2.06912e+06 27732.1 0 -2.06921e+06 28159.8 0 -2.06929e+06 28587.5 0 -2.06938e+06 29015.2 0 -2.06947e+06 29443 0 -2.06956e+06 29870.9 0 -2.06965e+06 30298.8 0 -2.06975e+06 30726.7 0 -2.06984e+06 31154.7 0 -2.06994e+06 31582.7 0 -2.07003e+06 32010.8 0 -2.07013e+06 32439 0 -2.07023e+06 32867.2 0 -2.07033e+06 33295.5 0 -2.07043e+06 33723.8 0 -2.07054e+06 34152.1 0 -2.07064e+06 34580.6 0 -2.07075e+06 35009.1 0 -2.07086e+06 35437.6 0 -2.07097e+06 35866.2 0 -2.07108e+06 36294.9 0 -2.07119e+06 36723.6 0 -2.0713e+06 37152.4 0 -2.07141e+06 37581.2 0 -2.07153e+06 38010.1 0 -2.07165e+06 38439.1 0 -2.07176e+06 38868.1 0 -2.07188e+06 39297.2 0 -2.072e+06 39726.3 0 -2.07213e+06 40155.6 0 -2.07225e+06 40584.9 0 -2.07237e+06 41014.2 0 -2.0725e+06 41443.6 0 -2.07263e+06 41873.1 0 -2.07275e+06 42302.7 0 -2.07288e+06 42732.3 0 -2.07302e+06 43162 0 -2.07315e+06 43591.8 0 -2.07328e+06 44021.7 0 -2.07342e+06 44451.6 0 -2.07355e+06 44881.6 0 -2.07369e+06 45311.6 0 -2.07383e+06 45741.8 0 -2.07397e+06 46172 0 -2.07411e+06 46602.3 0 -2.07425e+06 47032.7 0 -2.0744e+06 47463.1 0 -2.07454e+06 47893.6 0 -2.07469e+06 48324.2 0 -2.07484e+06 48754.9 0 -2.07499e+06 49185.7 0 -2.07514e+06 49616.5 0 -2.07529e+06 50047.5 0 -2.07544e+06 50478.5 0 -2.0756e+06 50909.6 0 -2.07576e+06 51340.8 0 -2.07591e+06 51772 0 -2.07607e+06 52203.4 0 -2.07623e+06 52634.8 0 -2.07639e+06 53066.4 0 -2.07656e+06 53498 0 -2.07672e+06 53929.7 0 -2.07688e+06 54361.5 0 -2.06605e+06 0 0 -2.06605e+06 432.138 0 -2.06605e+06 864.277 0 -2.06606e+06 1296.42 0 -2.06606e+06 1728.56 0 -2.06607e+06 2160.7 0 -2.06608e+06 2592.85 0 -2.06608e+06 3025.01 0 -2.06609e+06 3457.16 0 -2.06611e+06 3889.33 0 -2.06612e+06 4321.5 0 -2.06613e+06 4753.68 0 -2.06615e+06 5185.86 0 -2.06616e+06 5618.06 0 -2.06618e+06 6050.26 0 -2.0662e+06 6482.48 0 -2.06622e+06 6914.7 0 -2.06624e+06 7346.94 0 -2.06627e+06 7779.19 0 -2.06629e+06 8211.45 0 -2.06632e+06 8643.72 0 -2.06635e+06 9076.01 0 -2.06637e+06 9508.32 0 -2.0664e+06 9940.64 0 -2.06644e+06 10373 0 -2.06647e+06 10805.3 0 -2.0665e+06 11237.7 0 -2.06654e+06 11670.1 0 -2.06657e+06 12102.5 0 -2.06661e+06 12534.9 0 -2.06665e+06 12967.4 0 -2.06669e+06 13399.9 0 -2.06673e+06 13832.4 0 -2.06678e+06 1