<?xml version="1.0"?> 
<VTKFile type="StructuredGrid" version="0.1"> 
<StructuredGrid WholeExtent="0 127 0 127 0 0"> 
<Piece Extent="0 127 0 127 0 0"> 
<PointData>
<DataArray type="Float32" Name="u" format="ascii" NumberOfComponents="3"> 
373176 5.48056e+06 0 528156 5.37813e+06 0 625804 5.29401e+06 0 698993 5.21653e+06 0 756737 5.14398e+06 0 803346 5.07585e+06 0 841466 5.01153e+06 0 872842 4.95073e+06 0 898733 4.89311e+06 0 920074 4.83843e+06 0 937591 4.78645e+06 0 951855 4.73698e+06 0 963330 4.68984e+06 0 972393 4.64488e+06 0 979358 4.60193e+06 0 984488 4.56089e+06 0 988007 4.52161e+06 0 990103 4.484e+06 0 990940 4.44795e+06 0 990658 4.41337e+06 0 989380 4.38017e+06 0 987212 4.34829e+06 0 984248 4.31763e+06 0 980570 4.28815e+06 0 976251 4.25976e+06 0 971354 4.23243e+06 0 965937 4.20608e+06 0 960051 4.18068e+06 0 953742 4.15618e+06 0 947049 4.13252e+06 0 940009 4.10968e+06 0 932656 4.08761e+06 0 925019 4.06628e+06 0 917124 4.04565e+06 0 908995 4.0257e+06 0 900655 4.00639e+06 0 892123 3.98769e+06 0 883417 3.96958e+06 0 874553 3.95203e+06 0 865547 3.93503e+06 0 856411 3.91855e+06 0 847158 3.90256e+06 0 837800 3.88705e+06 0 828347 3.87201e+06 0 818807 3.8574e+06 0 809191 3.84322e+06 0 799505 3.82945e+06 0 789756 3.81608e+06 0 779952 3.80309e+06 0 770099 3.79046e+06 0 760202 3.7782e+06 0 750265 3.76627e+06 0 740295 3.75467e+06 0 730295 3.7434e+06 0 720269 3.73244e+06 0 710221 3.72177e+06 0 700154 3.7114e+06 0 690071 3.70131e+06 0 679975 3.69149e+06 0 669868 3.68193e+06 0 659754 3.67264e+06 0 649634 3.66359e+06 0 639509 3.65478e+06 0 629383 3.64621e+06 0 619256 3.63787e+06 0 609130 3.62975e+06 0 599007 3.62185e+06 0 588888 3.61416e+06 0 578773 3.60668e+06 0 568664 3.59939e+06 0 558562 3.5923e+06 0 548468 3.5854e+06 0 538382 3.57869e+06 0 528305 3.57216e+06 0 518238 3.56581e+06 0 508182 3.55963e+06 0 498136 3.55362e+06 0 488101 3.54777e+06 0 478078 3.54209e+06 0 468067 3.53656e+06 0 458067 3.53119e+06 0 448080 3.52598e+06 0 438106 3.52091e+06 0 428144 3.51599e+06 0 418195 3.51121e+06 0 408258 3.50658e+06 0 398334 3.50208e+06 0 388423 3.49772e+06 0 378525 3.49349e+06 0 368639 3.4894e+06 0 358766 3.48543e+06 0 348905 3.48159e+06 0 339057 3.47788e+06 0 329221 3.47429e+06 0 319396 3.47082e+06 0 309584 3.46748e+06 0 299783 3.46425e+06 0 289993 3.46114e+06 0 280215 3.45814e+06 0 270447 3.45526e+06 0 260690 3.45249e+06 0 250943 3.44983e+06 0 241207 3.44728e+06 0 231479 3.44484e+06 0 221762 3.44251e+06 0 212053 3.44028e+06 0 202353 3.43816e+06 0 192661 3.43615e+06 0 182977 3.43423e+06 0 173301 3.43243e+06 0 163633 3.43072e+06 0 153971 3.42911e+06 0 144316 3.42761e+06 0 134666 3.42621e+06 0 125023 3.4249e+06 0 115385 3.4237e+06 0 105752 3.42259e+06 0 96123.6 3.42158e+06 0 86499.3 3.42067e+06 0 76878.8 3.41985e+06 0 67261.6 3.41913e+06 0 57647.3 3.41851e+06 0 48035.6 3.41798e+06 0 38425.9 3.41755e+06 0 28818 3.41722e+06 0 19211.3 3.41698e+06 0 9605.43 3.41684e+06 0 0 3.41679e+06 0 416985 5.53615e+06 0 555721 5.415e+06 0 652606 5.32291e+06 0 726056 5.24057e+06 0 784018 5.16455e+06 0 830877 5.09358e+06 0 869161 5.02691e+06 0 900659 4.96404e+06 0 926612 4.90459e+06 0 947971 4.84826e+06 0 965463 4.79477e+06 0 979666 4.74391e+06 0 991048 4.69549e+06 0 999991 4.64932e+06 0 1.00681e+06 4.60526e+06 0 1.01178e+06 4.56315e+06 0 1.01512e+06 4.52288e+06 0 1.01702e+06 4.48433e+06 0 1.01765e+06 4.44739e+06 0 1.01715e+06 4.41196e+06 0 1.01564e+06 4.37796e+06 0 1.01324e+06 4.3453e+06 0 1.01003e+06 4.31392e+06 0 1.00611e+06 4.28373e+06 0 1.00154e+06 4.25467e+06 0 996388 4.22669e+06 0 990714 4.19973e+06 0 984569 4.17373e+06 0 977999 4.14865e+06 0 971044 4.12445e+06 0 963743 4.10107e+06 0 956127 4.07849e+06 0 948227 4.05666e+06 0 940070 4.03555e+06 0 931680 4.01513e+06 0 923079 3.99537e+06 0 914287 3.97623e+06 0 905322 3.9577e+06 0 896201 3.93974e+06 0 886938 3.92233e+06 0 877548 3.90546e+06 0 868042 3.88909e+06 0 858432 3.87321e+06 0 848728 3.8578e+06 0 838940 3.84284e+06 0 829076 3.82831e+06 0 819144 3.81421e+06 0 809151 3.8005e+06 0 799105 3.78719e+06 0 789011 3.77424e+06 0 778874 3.76166e+06 0 768699 3.74943e+06 0 758492 3.73754e+06 0 748257 3.72597e+06 0 737997 3.71471e+06 0 727717 3.70376e+06 0 717418 3.69311e+06 0 707105 3.68274e+06 0 696780 3.67265e+06 0 686446 3.66283e+06 0 676105 3.65327e+06 0 665759 3.64396e+06 0 655410 3.63489e+06 0 645059 3.62607e+06 0 634710 3.61748e+06 0 624361 3.60911e+06 0 614017 3.60096e+06 0 603676 3.59303e+06 0 593341 3.5853e+06 0 583012 3.57778e+06 0 572691 3.57045e+06 0 562377 3.56332e+06 0 552072 3.55637e+06 0 541777 3.54961e+06 0 531492 3.54303e+06 0 521217 3.53662e+06 0 510953 3.53038e+06 0 500699 3.52431e+06 0 490458 3.5184e+06 0 480228 3.51266e+06 0 470010 3.50707e+06 0 459803 3.50163e+06 0 449609 3.49634e+06 0 439427 3.4912e+06 0 429257 3.48621e+06 0 419100 3.48135e+06 0 408954 3.47664e+06 0 398821 3.47206e+06 0 388699 3.46762e+06 0 378589 3.4633e+06 0 368491 3.45912e+06 0 358404 3.45507e+06 0 348328 3.45114e+06 0 338263 3.44733e+06 0 328210 3.44365e+06 0 318166 3.44008e+06 0 308133 3.43664e+06 0 298109 3.43331e+06 0 288096 3.43009e+06 0 278091 3.42699e+06 0 268095 3.424e+06 0 258108 3.42112e+06 0 248129 3.41835e+06 0 238157 3.41569e+06 0 228193 3.41314e+06 0 218236 3.41069e+06 0 208286 3.40835e+06 0 198341 3.40611e+06 0 188402 3.40397e+06 0 178469 3.40194e+06 0 168540 3.4e+06 0 158615 3.39817e+06 0 148695 3.39644e+06 0 138777 3.3948e+06 0 128863 3.39326e+06 0 118950 3.39182e+06 0 109040 3.39048e+06 0 99131 3.38923e+06 0 89222.8 3.38808e+06 0 79315 3.38703e+06 0 69406.9 3.38607e+06 0 59498.1 3.3852e+06 0 49588.1 3.38443e+06 0 39676.2 3.38375e+06 0 29762.1 3.38317e+06 0 19845 3.38268e+06 0 9924.49 3.38228e+06 0 0 3.38198e+06 0 460756 5.58016e+06 0 586977 5.45041e+06 0 681963 5.35116e+06 0 754979 5.2641e+06 0 812921 5.18459e+06 0 859806 5.11078e+06 0 898135 5.04172e+06 0 929645 4.97676e+06 0 955580 4.91545e+06 0 976886 4.85744e+06 0 994292 4.80242e+06 0 1.00838e+06 4.75015e+06 0 1.01962e+06 4.70041e+06 0 1.0284e+06 4.65303e+06 0 1.03504e+06 4.60782e+06 0 1.0398e+06 4.56464e+06 0 1.04292e+06 4.52336e+06 0 1.0446e+06 4.48385e+06 0 1.04498e+06 4.44601e+06 0 1.04423e+06 4.40972e+06 0 1.04247e+06 4.37491e+06 0 1.03981e+06 4.34148e+06 0 1.03633e+06 4.30935e+06 0 1.03214e+06 4.27845e+06 0 1.02729e+06 4.24872e+06 0 1.02186e+06 4.22009e+06 0 1.01591e+06 4.1925e+06 0 1.00948e+06 4.16591e+06 0 1.00263e+06 4.14025e+06 0 995393 4.11549e+06 0 987810 4.09158e+06 0 979913 4.06848e+06 0 971732 4.04616e+06 0 963296 4.02456e+06 0 954627 4.00368e+06 0 945749 3.98346e+06 0 936682 3.96389e+06 0 927443 3.94493e+06 0 918050 3.92655e+06 0 908517 3.90875e+06 0 898858 3.89148e+06 0 889086 3.87473e+06 0 879211 3.85848e+06 0 869245 3.84271e+06 0 859196 3.82739e+06 0 849073 3.81252e+06 0 838885 3.79808e+06 0 828637 3.78404e+06 0 818338 3.7704e+06 0 807992 3.75714e+06 0 797606 3.74425e+06 0 787185 3.73172e+06 0 776732 3.71952e+06 0 766253 3.70766e+06 0 755751 3.69612e+06 0 745229 3.68489e+06 0 734692 3.67395e+06 0 724141 3.66331e+06 0 713580 3.65295e+06 0 703011 3.64286e+06 0 692436 3.63303e+06 0 681858 3.62347e+06 0 671277 3.61415e+06 0 660697 3.60507e+06 0 650118 3.59623e+06 0 639542 3.58761e+06 0 628970 3.57922e+06 0 618404 3.57104e+06 0 607843 3.56307e+06 0 597290 3.55531e+06 0 586744 3.54775e+06 0 576207 3.54038e+06 0 565679 3.5332e+06 0 555162 3.52621e+06 0 544654 3.5194e+06 0 534157 3.51276e+06 0 523671 3.50629e+06 0 513197 3.5e+06 0 502734 3.49387e+06 0 492282 3.48789e+06 0 481843 3.48208e+06 0 471415 3.47642e+06 0 460999 3.47091e+06 0 450595 3.46555e+06 0 440203 3.46034e+06 0 429822 3.45526e+06 0 419454 3.45033e+06 0 409096 3.44553e+06 0 398750 3.44087e+06 0 388415 3.43633e+06 0 378091 3.43193e+06 0 367778 3.42766e+06 0 357475 3.42351e+06 0 347182 3.41948e+06 0 336898 3.41558e+06 0 326624 3.41179e+06 0 316359 3.40812e+06 0 306102 3.40457e+06 0 295854 3.40114e+06 0 285614 3.39781e+06 0 275381 3.3946e+06 0 265154 3.3915e+06 0 254935 3.3885e+06 0 244721 3.38561e+06 0 234513 3.38283e+06 0 224310 3.38015e+06 0 214111 3.37758e+06 0 203917 3.37511e+06 0 193726 3.37274e+06 0 183538 3.37047e+06 0 173352 3.3683e+06 0 163169 3.36623e+06 0 152986 3.36426e+06 0 142805 3.36238e+06 0 132623 3.3606e+06 0 122441 3.35892e+06 0 112259 3.35733e+06 0 102074 3.35583e+06 0 91887.2 3.35443e+06 0 81697.6 3.35313e+06 0 71504.5 3.35191e+06 0 61307.2 3.35079e+06 0 51105.1 3.34976e+06 0 40897.7 3.34882e+06 0 30684.1 3.34798e+06 0 20463.7 3.34722e+06 0 10235.9 3.34655e+06 0 0 3.34598e+06 0 504747 5.61821e+06 0 621371 5.4837e+06 0 713603 5.37839e+06 0 785744 5.28689e+06 0 843379 5.20395e+06 0 890116 5.12732e+06 0 928356 5.05586e+06 0 959776 4.98879e+06 0 985610 4.92561e+06 0 1.00679e+06 4.86589e+06 0 1.02405e+06 4.80931e+06 0 1.03797e+06 4.75561e+06 0 1.04902e+06 4.70455e+06 0 1.05759e+06 4.65593e+06 0 1.064e+06 4.60956e+06 0 1.06852e+06 4.5653e+06 0 1.07139e+06 4.523e+06 0 1.07279e+06 4.48252e+06 0 1.07291e+06 4.44376e+06 0 1.07188e+06 4.40662e+06 0 1.06983e+06 4.37098e+06 0 1.06687e+06 4.33676e+06 0 1.0631e+06 4.30388e+06 0 1.05861e+06 4.27227e+06 0 1.05346e+06 4.24186e+06 0 1.04773e+06 4.21258e+06 0 1.04147e+06 4.18436e+06 0 1.03474e+06 4.15717e+06 0 1.02759e+06 4.13094e+06 0 1.02005e+06 4.10562e+06 0 1.01217e+06 4.08117e+06 0 1.00397e+06 4.05756e+06 0 995489 4.03473e+06 0 986755 4.01266e+06 0 977791 3.9913e+06 0 968620 3.97064e+06 0 959261 3.95062e+06 0 949733 3.93124e+06 0 940053 3.91246e+06 0 930236 3.89425e+06 0 920295 3.87659e+06 0 910243 3.85946e+06 0 900091 3.84284e+06 0 889849 3.82671e+06 0 879528 3.81104e+06 0 869135 3.79583e+06 0 858678 3.78105e+06 0 848166 3.76669e+06 0 837603 3.75273e+06 0 826996 3.73915e+06 0 816351 3.72596e+06 0 805673 3.71312e+06 0 794966 3.70063e+06 0 784234 3.68847e+06 0 773481 3.67664e+06 0 762711 3.66513e+06 0 751927 3.65392e+06 0 741131 3.643e+06 0 730327 3.63237e+06 0 719516 3.62202e+06 0 708701 3.61193e+06 0 697884 3.60211e+06 0 687067 3.59253e+06 0 676250 3.5832e+06 0 665437 3.57411e+06 0 654628 3.56525e+06 0 643824 3.55661e+06 0 633026 3.54819e+06 0 622235 3.53999e+06 0 611452 3.53199e+06 0 600679 3.52419e+06 0 589914 3.51659e+06 0 579160 3.50918e+06 0 568416 3.50195e+06 0 557683 3.49491e+06 0 546961 3.48805e+06 0 536250 3.48135e+06 0 525552 3.47483e+06 0 514865 3.46847e+06 0 504189 3.46228e+06 0 493526 3.45624e+06 0 482875 3.45036e+06 0 472236 3.44463e+06 0 461608 3.43904e+06 0 450992 3.43361e+06 0 440388 3.42831e+06 0 429795 3.42315e+06 0 419213 3.41814e+06 0 408643 3.41325e+06 0 398082 3.4085e+06 0 387532 3.40387e+06 0 376992 3.39938e+06 0 366462 3.395e+06 0 355941 3.39076e+06 0 345429 3.38663e+06 0 334925 3.38262e+06 0 324429 3.37872e+06 0 313941 3.37495e+06 0 303460 3.37128e+06 0 292985 3.36773e+06 0 282517 3.36429e+06 0 272054 3.36096e+06 0 261596 3.35773e+06 0 251143 3.35461e+06 0 240693 3.35159e+06 0 230248 3.34868e+06 0 219804 3.34587e+06 0 209364 3.34316e+06 0 198924 3.34055e+06 0 188486 3.33804e+06 0 178048 3.33563e+06 0 167610 3.33331e+06 0 157171 3.33109e+06 0 146730 3.32897e+06 0 136287 3.32694e+06 0 125841 3.325e+06 0 115392 3.32316e+06 0 104938 3.3214e+06 0 94479.2 3.31974e+06 0 84014.6 3.31817e+06 0 73543.5 3.31669e+06 0 63065.2 3.3153e+06 0 52578.8 3.314e+06 0 42083.7 3.31279e+06 0 31579.1 3.31167e+06 0 21064.1 3.31063e+06 0 10538 3.30968e+06 0 0 3.30882e+06 0 549025 5.65227e+06 0 658158 5.51468e+06 0 747302 5.40437e+06 0 818243 5.30875e+06 0 875329 5.22249e+06 0 921757 5.14309e+06 0 959781 5.06922e+06 0 991015 5.00005e+06 0 1.01666e+06 4.93497e+06 0 1.03765e+06 4.87354e+06 0 1.0547e+06 4.81539e+06 0 1.06839e+06 4.76024e+06 0 1.0792e+06 4.70784e+06 0 1.08751e+06 4.65796e+06 0 1.09365e+06 4.61043e+06 0 1.09789e+06 4.56507e+06 0 1.10047e+06 4.52174e+06 0 1.10158e+06 4.48029e+06 0 1.10138e+06 4.44061e+06 0 1.10004e+06 4.40259e+06 0 1.09767e+06 4.36612e+06 0 1.09439e+06 4.33111e+06 0 1.0903e+06 4.29749e+06 0 1.08548e+06 4.26516e+06 0 1.08e+06 4.23406e+06 0 1.07395e+06 4.20412e+06 0 1.06736e+06 4.17528e+06 0 1.06031e+06 4.14748e+06 0 1.05283e+06 4.12067e+06 0 1.04497e+06 4.0948e+06 0 1.03676e+06 4.06982e+06 0 1.02824e+06 4.04569e+06 0 1.01945e+06 4.02236e+06 0 1.0104e+06 3.99981e+06 0 1.00112e+06 3.97799e+06 0 991640 3.95687e+06 0 981974 3.93642e+06 0 972142 3.91662e+06 0 962160 3.89742e+06 0 952044 3.87882e+06 0 941807 3.86077e+06 0 931462 3.84327e+06 0 921019 3.82628e+06 0 910491 3.80979e+06 0 899885 3.79378e+06 0 889210 3.77823e+06 0 878475 3.76311e+06 0 867686 3.74843e+06 0 856850 3.73415e+06 0 845973 3.72026e+06 0 835059 3.70676e+06 0 824115 3.69362e+06 0 813145 3.68084e+06 0 802152 3.6684e+06 0 791140 3.65628e+06 0 780114 3.64449e+06 0 769075 3.63301e+06 0 758027 3.62182e+06 0 746972 3.61092e+06 0 735913 3.60031e+06 0 724852 3.58996e+06 0 713790 3.57988e+06 0 702730 3.57005e+06 0 691672 3.56047e+06 0 680619 3.55113e+06 0 669571 3.54203e+06 0 658530 3.53315e+06 0 647497 3.52449e+06 0 636472 3.51605e+06 0 625456 3.50781e+06 0 614450 3.49978e+06 0 603454 3.49195e+06 0 592470 3.4843e+06 0 581497 3.47685e+06 0 570535 3.46958e+06 0 559585 3.46249e+06 0 548648 3.45557e+06 0 537722 3.44882e+06 0 526809 3.44224e+06 0 515908 3.43582e+06 0 505020 3.42956e+06 0 494144 3.42345e+06 0 483280 3.4175e+06 0 472428 3.41169e+06 0 461587 3.40603e+06 0 450759 3.40051e+06 0 439941 3.39513e+06 0 429135 3.38989e+06 0 418339 3.38478e+06 0 407554 3.3798e+06 0 396778 3.37496e+06 0 386012 3.37024e+06 0 375256 3.36564e+06 0 364507 3.36116e+06 0 353768 3.35681e+06 0 343036 3.35257e+06 0 332311 3.34845e+06 0 321593 3.34444e+06 0 310881 3.34055e+06 0 300175 3.33677e+06 0 289474 3.33309e+06 0 278777 3.32952e+06 0 268084 3.32606e+06 0 257395 3.3227e+06 0 246708 3.31945e+06 0 236023 3.3163e+06 0 225340 3.31325e+06 0 214657 3.31029e+06 0 203974 3.30744e+06 0 193291 3.30468e+06 0 182606 3.30201e+06 0 171918 3.29945e+06 0 161228 3.29697e+06 0 150535 3.29459e+06 0 139837 3.2923e+06 0 129134 3.2901e+06 0 118425 3.28799e+06 0 107709 3.28597e+06 0 96985.8 3.28404e+06 0 86254.2 3.2822e+06 0 75513.5 3.28044e+06 0 64762.8 3.27877e+06 0 54001.2 3.27719e+06 0 43228 3.27569e+06 0 32442.1 3.27428e+06 0 21642.8 3.27295e+06 0 10829 3.2717e+06 0 0 3.27054e+06 0 593603 5.68324e+06 0 696764 5.5434e+06 0 782814 5.42892e+06 0 852340 5.32953e+06 0 908689 5.24008e+06 0 954666 5.15796e+06 0 992360 5.08172e+06 0 1.02331e+06 5.01044e+06 0 1.0487e+06 4.94346e+06 0 1.06942e+06 4.88031e+06 0 1.0862e+06 4.82058e+06 0 1.09961e+06 4.76398e+06 0 1.11013e+06 4.71022e+06 0 1.11814e+06 4.65909e+06 0 1.12396e+06 4.61037e+06 0 1.12788e+06 4.56391e+06 0 1.13012e+06 4.51953e+06 0 1.13089e+06 4.4771e+06 0 1.13036e+06 4.4365e+06 0 1.12867e+06 4.3976e+06 0 1.12595e+06 4.3603e+06 0 1.12232e+06 4.3245e+06 0 1.11787e+06 4.29012e+06 0 1.1127e+06 4.25707e+06 0 1.10687e+06 4.22529e+06 0 1.10046e+06 4.19469e+06 0 1.09353e+06 4.16523e+06 0 1.08612e+06 4.13682e+06 0 1.0783e+06 4.10944e+06 0 1.07009e+06 4.08301e+06 0 1.06154e+06 4.05749e+06 0 1.05269e+06 4.03285e+06 0 1.04355e+06 4.00903e+06 0 1.03417e+06 3.986e+06 0 1.02456e+06 3.96371e+06 0 1.01476e+06 3.94215e+06 0 1.00477e+06 3.92127e+06 0 994615 3.90104e+06 0 984317 3.88144e+06 0 973888 3.86244e+06 0 963341 3.84402e+06 0 952690 3.82614e+06 0 941945 3.80879e+06 0 931117 3.79194e+06 0 920215 3.77559e+06 0 909247 3.7597e+06 0 898223 3.74426e+06 0 887147 3.72925e+06 0 876027 3.71466e+06 0 864870 3.70046e+06 0 853679 3.68666e+06 0 842460 3.67323e+06 0 831218 3.66015e+06 0 819956 3.64743e+06 0 808678 3.63503e+06 0 797387 3.62297e+06 0 786087 3.61121e+06 0 774780 3.59976e+06 0 763468 3.5886e+06 0 752154 3.57772e+06 0 740841 3.56712e+06 0 729528 3.55679e+06 0 718220 3.54671e+06 0 706915 3.53688e+06 0 695617 3.5273e+06 0 684327 3.51795e+06 0 673044 3.50883e+06 0 661771 3.49994e+06 0 650507 3.49126e+06 0 639255 3.48279e+06 0 628013 3.47452e+06 0 616783 3.46646e+06 0 605565 3.45859e+06 0 594360 3.4509e+06 0 583167 3.44341e+06 0 571987 3.43609e+06 0 560821 3.42894e+06 0 549667 3.42197e+06 0 538526 3.41516e+06 0 527398 3.40852e+06 0 516283 3.40204e+06 0 505181 3.39571e+06 0 494092 3.38953e+06 0 483014 3.3835e+06 0 471949 3.37762e+06 0 460896 3.37188e+06 0 449854 3.36627e+06 0 438823 3.36081e+06 0 427803 3.35548e+06 0 416793 3.35027e+06 0 405793 3.3452e+06 0 394803 3.34025e+06 0 383821 3.33543e+06 0 372848 3.33073e+06 0 361882 3.32614e+06 0 350924 3.32168e+06 0 339973 3.31732e+06 0 329028 3.31308e+06 0 318088 3.30896e+06 0 307153 3.30494e+06 0 296223 3.30103e+06 0 285296 3.29722e+06 0 274372 3.29352e+06 0 263451 3.28992e+06 0 252531 3.28642e+06 0 241612 3.28302e+06 0 230693 3.27972e+06 0 219773 3.27652e+06 0 208853 3.27341e+06 0 197930 3.2704e+06 0 187004 3.26748e+06 0 176074 3.26465e+06 0 165140 3.26192e+06 0 154200 3.25927e+06 0 143255 3.25671e+06 0 132302 3.25424e+06 0 121342 3.25186e+06 0 110373 3.24956e+06 0 99394.1 3.24735e+06 0 88404.8 3.24523e+06 0 77404.1 3.24318e+06 0 66391.1 3.24123e+06 0 55364.8 3.23935e+06 0 44324.2 3.23755e+06 0 33268.5 3.23584e+06 0 22196.5 3.23421e+06 0 11107.4 3.23266e+06 0 0 3.23118e+06 0 638478 5.71163e+06 0 736780 5.56996e+06 0 819897 5.45195e+06 0 887889 5.34911e+06 0 943362 5.25662e+06 0 988766 5.17185e+06 0 1.02603e+06 5.09327e+06 0 1.05662e+06 5.01989e+06 0 1.08166e+06 4.95102e+06 0 1.10206e+06 4.88614e+06 0 1.11851e+06 4.82483e+06 0 1.13158e+06 4.76676e+06 0 1.14175e+06 4.71164e+06 0 1.14941e+06 4.65924e+06 0 1.15487e+06 4.60934e+06 0 1.15843e+06 4.56176e+06 0 1.1603e+06 4.51634e+06 0 1.16069e+06 4.47293e+06 0 1.15978e+06 4.43139e+06 0 1.15771e+06 4.39161e+06 0 1.15461e+06 4.35347e+06 0 1.1506e+06 4.31688e+06 0 1.14577e+06 4.28175e+06 0 1.14022e+06 4.24798e+06 0 1.13401e+06 4.21551e+06 0 1.12722e+06 4.18426e+06 0 1.11991e+06 4.15417e+06 0 1.11214e+06 4.12517e+06 0 1.10394e+06 4.0972e+06 0 1.09537e+06 4.07022e+06 0 1.08646e+06 4.04418e+06 0 1.07724e+06 4.01902e+06 0 1.06775e+06 3.99471e+06 0 1.05802e+06 3.9712e+06 0 1.04807e+06 3.94846e+06 0 1.03792e+06 3.92646e+06 0 1.02759e+06 3.90515e+06 0 1.0171e+06 3.88451e+06 0 1.00647e+06 3.8645e+06 0 995714 3.84511e+06 0 984844 3.82631e+06 0 973873 3.80806e+06 0 962813 3.79035e+06 0 951674 3.77316e+06 0 940464 3.75646e+06 0 929193 3.74024e+06 0 917868 3.72448e+06 0 906495 3.70915e+06 0 895083 3.69425e+06 0 883635 3.67976e+06 0 872158 3.66565e+06 0 860656 3.65193e+06 0 849133 3.63857e+06 0 837594 3.62556e+06 0 826042 3.6129e+06 0 814480 3.60056e+06 0 802912 3.58854e+06 0 791339 3.57682e+06 0 779764 3.5654e+06 0 768190 3.55427e+06 0 756618 3.54342e+06 0 745050 3.53283e+06 0 733488 3.52251e+06 0 721932 3.51244e+06 0 710385 3.50262e+06 0 698847 3.49303e+06 0 687319 3.48367e+06 0 675802 3.47454e+06 0 664296 3.46563e+06 0 652803 3.45693e+06 0 641323 3.44843e+06 0 629856 3.44014e+06 0 618403 3.43204e+06 0 606963 3.42413e+06 0 595537 3.41641e+06 0 584125 3.40887e+06 0 572727 3.4015e+06 0 561344 3.3943e+06 0 549974 3.38727e+06 0 538618 3.38041e+06 0 527276 3.3737e+06 0 515947 3.36715e+06 0 504632 3.36075e+06 0 493329 3.35449e+06 0 482039 3.34839e+06 0 470762 3.34242e+06 0 459496 3.3366e+06 0 448242 3.33091e+06 0 436998 3.32535e+06 0 425765 3.31992e+06 0 414543 3.31462e+06 0 403329 3.30945e+06 0 392125 3.3044e+06 0 380928 3.29947e+06 0 369740 3.29465e+06 0 358559 3.28995e+06 0 347384 3.28537e+06 0 336215 3.28089e+06 0 325051 3.27653e+06 0 313891 3.27227e+06 0 302736 3.26812e+06 0 291583 3.26407e+06 0 280433 3.26013e+06 0 269284 3.25628e+06 0 258136 3.25254e+06 0 246988 3.24889e+06 0 235840 3.24534e+06 0 224690 3.24188e+06 0 213537 3.23852e+06 0 202382 3.23524e+06 0 191222 3.23206e+06 0 180057 3.22897e+06 0 168887 3.22596e+06 0 157709 3.22305e+06 0 146525 3.22021e+06 0 135332 3.21747e+06 0 124129 3.2148e+06 0 112916 3.21222e+06 0 101692 3.20973e+06 0 90455.3 3.20731e+06 0 79205.5 3.20497e+06 0 67941.5 3.20271e+06 0 56662.2 3.20053e+06 0 45366.6 3.19843e+06 0 34053.6 3.19641e+06 0 22722.3 3.19446e+06 0 11371.4 3.19259e+06 0 0 3.19079e+06 0 683638 5.73778e+06 0 777922 5.5945e+06 0 858330 5.47341e+06 0 924744 5.36741e+06 0 979242 5.27203e+06 0 1.02397e+06 5.18468e+06 0 1.06072e+06 5.10379e+06 0 1.09086e+06 5.02834e+06 0 1.1155e+06 4.95758e+06 0 1.1355e+06 4.89097e+06 0 1.15155e+06 4.82807e+06 0 1.16424e+06 4.76853e+06 0 1.17401e+06 4.71205e+06 0 1.18127e+06 4.65837e+06 0 1.18633e+06 4.60728e+06 0 1.18948e+06 4.55859e+06 0 1.19094e+06 4.51212e+06 0 1.19092e+06 4.46772e+06 0 1.1896e+06 4.42525e+06 0 1.18711e+06 4.38459e+06 0 1.1836e+06 4.34562e+06 0 1.17917e+06 4.30823e+06 0 1.17394e+06 4.27235e+06 0 1.16797e+06 4.23786e+06 0 1.16136e+06 4.20471e+06 0 1.15417e+06 4.17281e+06 0 1.14646e+06 4.14209e+06 0 1.13829e+06 4.11249e+06 0 1.1297e+06 4.08396e+06 0 1.12074e+06 4.05643e+06 0 1.11145e+06 4.02985e+06 0 1.10185e+06 4.00419e+06 0 1.09199e+06 3.97939e+06 0 1.08189e+06 3.95542e+06 0 1.07157e+06 3.93222e+06 0 1.06106e+06 3.90978e+06 0 1.05038e+06 3.88805e+06 0 1.03954e+06 3.867e+06 0 1.02856e+06 3.8466e+06 0 1.01747e+06 3.82682e+06 0 1.00626e+06 3.80764e+06 0 994957 3.78904e+06 0 983569 3.77098e+06 0 972106 3.75344e+06 0 960578 3.73641e+06 0 948992 3.71986e+06 0 937356 3.70378e+06 0 925678 3.68814e+06 0 913962 3.67294e+06 0 902216 3.65814e+06 0 890444 3.64375e+06 0 878650 3.62974e+06 0 866840 3.6161e+06 0 855016 3.60282e+06 0 843183 3.58988e+06 0 831343 3.57728e+06 0 819500 3.56499e+06 0 807655 3.55302e+06 0 795812 3.54135e+06 0 783971 3.52996e+06 0 772136 3.51886e+06 0 760307 3.50803e+06 0 748486 3.49747e+06 0 736675 3.48716e+06 0 724874 3.47709e+06 0 713085 3.46727e+06 0 701308 3.45768e+06 0 689544 3.44832e+06 0 677794 3.43918e+06 0 666058 3.43025e+06 0 654336 3.42153e+06 0 642630 3.41301e+06 0 630938 3.40468e+06 0 619262 3.39655e+06 0 607601 3.3886e+06 0 595956 3.38084e+06 0 584326 3.37325e+06 0 572712 3.36583e+06 0 561113 3.35858e+06 0 549528 3.35149e+06 0 537959 3.34456e+06 0 526404 3.33779e+06 0 514863 3.33117e+06 0 503335 3.32469e+06 0 491821 3.31837e+06 0 480320 3.31218e+06 0 468832 3.30613e+06 0 457356 3.30021e+06 0 445891 3.29443e+06 0 434436 3.28878e+06 0 422993 3.28325e+06 0 411559 3.27785e+06 0 400134 3.27257e+06 0 388718 3.26741e+06 0 377309 3.26236e+06 0 365908 3.25743e+06 0 354513 3.25261e+06 0 343124 3.2479e+06 0 331740 3.24329e+06 0 320361 3.2388e+06 0 308985 3.2344e+06 0 297611 3.23011e+06 0 286240 3.22592e+06 0 274870 3.22183e+06 0 263500 3.21783e+06 0 252129 3.21393e+06 0 240758 3.21012e+06 0 229384 3.2064e+06 0 218007 3.20278e+06 0 206626 3.19924e+06 0 195240 3.19579e+06 0 183849 3.19243e+06 0 172451 3.18915e+06 0 161045 3.18596e+06 0 149631 3.18284e+06 0 138207 3.17981e+06 0 126772 3.17686e+06 0 115326 3.17399e+06 0 103867 3.1712e+06 0 92395.2 3.16848e+06 0 80908.4 3.16584e+06 0 69405.8 3.16328e+06 0 57886.6 3.16079e+06 0 46349.4 3.15837e+06 0 34793.3 3.15602e+06 0 23217.2 3.15375e+06 0 11619.8 3.15155e+06 0 0 3.14941e+06 0 729071 5.76195e+06 0 819982 5.61713e+06 0 897920 5.4933e+06 0 962762 5.38437e+06 0 1.01622e+06 5.28623e+06 0 1.0602e+06 5.19638e+06 0 1.09635e+06 5.11323e+06 0 1.12597e+06 5.03571e+06 0 1.15013e+06 4.96308e+06 0 1.16968e+06 4.89475e+06 0 1.18529e+06 4.83026e+06 0 1.19752e+06 4.76924e+06 0 1.20686e+06 4.7114e+06 0 1.21367e+06 4.65645e+06 0 1.21828e+06 4.60417e+06 0 1.22098e+06 4.55436e+06 0 1.22199e+06 4.50684e+06 0 1.22153e+06 4.46145e+06 0 1.21975e+06 4.41805e+06 0 1.21682e+06 4.3765e+06 0 1.21286e+06 4.3367e+06 0 1.20799e+06 4.29853e+06 0 1.20231e+06 4.26189e+06 0 1.19591e+06 4.22669e+06 0 1.18886e+06 4.19286e+06 0 1.18125e+06 4.16031e+06 0 1.17311e+06 4.12897e+06 0 1.16452e+06 4.09878e+06 0 1.15552e+06 4.06968e+06 0 1.14615e+06 4.04161e+06 0 1.13645e+06 4.01451e+06 0 1.12646e+06 3.98835e+06 0 1.11621e+06 3.96307e+06 0 1.10572e+06 3.93863e+06 0 1.09502e+06 3.91499e+06 0 1.08413e+06 3.89211e+06 0 1.07308e+06 3.86997e+06 0 1.06187e+06 3.84851e+06 0 1.05054e+06 3.82773e+06 0 1.03909e+06 3.80757e+06 0 1.02753e+06 3.78803e+06 0 1.01588e+06 3.76906e+06 0 1.00416e+06 3.75066e+06 0 992360 3.73278e+06 0 980502 3.71542e+06 0 968591 3.69856e+06 0 956635 3.68216e+06 0 944640 3.66622e+06 0 932613 3.65072e+06 0 920560 3.63563e+06 0 908484 3.62096e+06 0 896391 3.60667e+06 0 884286 3.59275e+06 0 872171 3.5792e+06 0 860049 3.566e+06 0 847925 3.55313e+06 0 835801 3.54059e+06 0 823679 3.52836e+06 0 811561 3.51644e+06 0 799449 3.50481e+06 0 787346 3.49347e+06 0 775252 3.4824e+06 0 763169 3.4716e+06 0 751098 3.46105e+06 0 739040 3.45075e+06 0 726996 3.4407e+06 0 714967 3.43088e+06 0 702953 3.42129e+06 0 690955 3.41192e+06 0 678974 3.40277e+06 0 667009 3.39382e+06 0 655061 3.38508e+06 0 643130 3.37654e+06 0 631217 3.36818e+06 0 619320 3.36001e+06 0 607440 3.35203e+06 0 595578 3.34422e+06 0 583732 3.33658e+06 0 571903 3.32911e+06 0 560090 3.3218e+06 0 548294 3.31465e+06 0 536513 3.30766e+06 0 524747 3.30082e+06 0 512996 3.29413e+06 0 501259 3.28758e+06 0 489536 3.28117e+06 0 477827 3.27489e+06 0 466131 3.26876e+06 0 454446 3.26275e+06 0 442773 3.25687e+06 0 431112 3.25112e+06 0 419460 3.24549e+06 0 407818 3.23997e+06 0 396185 3.23458e+06 0 384561 3.2293e+06 0 372944 3.22414e+06 0 361333 3.21908e+06 0 349729 3.21413e+06 0 338130 3.20929e+06 0 326535 3.20455e+06 0 314944 3.19991e+06 0 303355 3.19537e+06 0 291769 3.19093e+06 0 280184 3.18659e+06 0 268598 3.18234e+06 0 257013 3.17818e+06 0 245425 3.17411e+06 0 233835 3.17013e+06 0 222242 3.16624e+06 0 210645 3.16244e+06 0 199042 3.15871e+06 0 187433 3.15508e+06 0 175816 3.15152e+06 0 164192 3.14804e+06 0 152558 3.14465e+06 0 140914 3.14133e+06 0 129259 3.13808e+06 0 117591 3.13492e+06 0 105910 3.13182e+06 0 94215.1 3.1288e+06 0 82504.3 3.12585e+06 0 70776.8 3.12297e+06 0 59031.7 3.12016e+06 0 47267.7 3.11742e+06 0 35483.7 3.11475e+06 0 23678.6 3.11214e+06 0 11851.1 3.1096e+06 0 0 3.10712e+06 0 774763 5.7843e+06 0 862806 5.63797e+06 0 938505 5.51163e+06 0 1.00181e+06 5.39995e+06 0 1.05419e+06 5.29918e+06 0 1.09736e+06 5.20689e+06 0 1.13284e+06 5.12151e+06 0 1.16188e+06 5.04197e+06 0 1.1855e+06 4.96747e+06 0 1.20453e+06 4.89742e+06 0 1.21964e+06 4.83135e+06 0 1.23138e+06 4.76886e+06 0 1.24022e+06 4.70965e+06 0 1.24654e+06 4.65343e+06 0 1.25066e+06 4.59996e+06 0 1.25287e+06 4.54903e+06 0 1.25339e+06 4.50046e+06 0 1.25244e+06 4.45409e+06 0 1.25018e+06 4.40976e+06 0 1.24676e+06 4.36733e+06 0 1.24232e+06 4.3267e+06 0 1.23698e+06 4.28774e+06 0 1.23083e+06 4.25036e+06 0 1.22397e+06 4.21445e+06 0 1.21646e+06 4.17994e+06 0 1.20839e+06 4.14675e+06 0 1.19981e+06 4.1148e+06 0 1.19078e+06 4.08403e+06 0 1.18134e+06 4.05436e+06 0 1.17154e+06 4.02576e+06 0 1.16142e+06 3.99815e+06 0 1.15101e+06 3.97149e+06 0 1.14034e+06 3.94574e+06 0 1.12945e+06 3.92084e+06 0 1.11835e+06 3.89676e+06 0 1.10707e+06 3.87346e+06 0 1.09563e+06 3.85091e+06 0 1.08405e+06 3.82906e+06 0 1.07234e+06 3.80789e+06 0 1.06052e+06 3.78737e+06 0 1.0486e+06 3.76746e+06 0 1.0366e+06 3.74815e+06 0 1.02452e+06 3.7294e+06 0 1.01238e+06 3.7112e+06 0 1.00018e+06 3.69352e+06 0 987936 3.67634e+06 0 975650 3.65964e+06 0 963330 3.6434e+06 0 950983 3.62761e+06 0 938614 3.61224e+06 0 926227 3.59728e+06 0 913828 3.58272e+06 0 901420 3.56854e+06 0 889007 3.55472e+06 0 876592 3.54126e+06 0 864177 3.52814e+06 0 851767 3.51535e+06 0 839362 3.50288e+06 0 826965 3.49071e+06 0 814577 3.47884e+06 0 802201 3.46726e+06 0 789838 3.45595e+06 0 777489 3.44492e+06 0 765155 3.43414e+06 0 752837 3.42362e+06 0 740536 3.41334e+06 0 728252 3.40329e+06 0 715986 3.39348e+06 0 703739 3.38389e+06 0 691510 3.37451e+06 0 679300 3.36535e+06 0 667110 3.35639e+06 0 654938 3.34762e+06 0 642786 3.33905e+06 0 630653 3.33066e+06 0 618539 3.32246e+06 0 606444 3.31443e+06 0 594367 3.30658e+06 0 582308 3.29889e+06 0 570268 3.29137e+06 0 558245 3.284e+06 0 546239 3.27679e+06 0 534250 3.26973e+06 0 522277 3.26282e+06 0 510319 3.25605e+06 0 498377 3.24942e+06 0 486449 3.24292e+06 0 474534 3.23656e+06 0 462633 3.23033e+06 0 450745 3.22423e+06 0 438869 3.21825e+06 0 427003 3.21239e+06 0 415148 3.20665e+06 0 403303 3.20102e+06 0 391466 3.19551e+06 0 379638 3.19011e+06 0 367817 3.18482e+06 0 356002 3.17963e+06 0 344194 3.17455e+06 0 332389 3.16956e+06 0 320589 3.16468e+06 0 308792 3.15989e+06 0 296998 3.1552e+06 0 285204 3.1506e+06 0 273411 3.1461e+06 0 261618 3.14168e+06 0 249823 3.13735e+06 0 238025 3.13311e+06 0 226224 3.12895e+06 0 214419 3.12487e+06 0 202609 3.12087e+06 0 190792 3.11696e+06 0 178968 3.11312e+06 0 167135 3.10936e+06 0 155294 3.10567e+06 0 143441 3.10206e+06 0 131577 3.09852e+06 0 119701 3.09505e+06 0 107811 3.09164e+06 0 95906.2 3.08831e+06 0 83985.5 3.08505e+06 0 72047.8 3.08185e+06 0 60092 3.07871e+06 0 48117 3.07564e+06 0 36121.4 3.07263e+06 0 24104.2 3.06969e+06 0 12064.1 3.0668e+06 0 0 3.06397e+06 0 820700 5.80498e+06 0 906276 5.65713e+06 0 979944 5.52842e+06 0 1.04176e+06 5.41415e+06 0 1.09305e+06 5.31084e+06 0 1.13536e+06 5.21618e+06 0 1.17012e+06 5.12862e+06 0 1.19852e+06 5.04706e+06 0 1.22154e+06 4.97071e+06 0 1.24e+06 4.89895e+06 0 1.25455e+06 4.8313e+06 0 1.26575e+06 4.76735e+06 0 1.27404e+06 4.70677e+06 0 1.27982e+06 4.64928e+06 0 1.28341e+06 4.59462e+06 0 1.28509e+06 4.54258e+06 0 1.28508e+06 4.49297e+06 0 1.2836e+06 4.44561e+06 0 1.28082e+06 4.40036e+06 0 1.27689e+06 4.35706e+06 0 1.27194e+06 4.3156e+06 0 1.26609e+06 4.27586e+06 0 1.25944e+06 4.23774e+06 0 1.25208e+06 4.20113e+06 0 1.24409e+06 4.16596e+06 0 1.23554e+06 4.13213e+06 0 1.22649e+06 4.09957e+06 0 1.21699e+06 4.06822e+06 0 1.20709e+06 4.03801e+06 0 1.19684e+06 4.00887e+06 0 1.18628e+06 3.98076e+06 0 1.17543e+06 3.95362e+06 0 1.16434e+06 3.9274e+06 0 1.15302e+06 3.90206e+06 0 1.14151e+06 3.87755e+06 0 1.12982e+06 3.85383e+06 0 1.11798e+06 3.83088e+06 0 1.10601e+06 3.80864e+06 0 1.09391e+06 3.7871e+06 0 1.08171e+06 3.76621e+06 0 1.06942e+06 3.74596e+06 0 1.05705e+06 3.7263e+06 0 1.04461e+06 3.70723e+06 0 1.03211e+06 3.68871e+06 0 1.01956e+06 3.67071e+06 0 1.00697e+06 3.65323e+06 0 994347 3.63623e+06 0 981694 3.6197e+06 0 969019 3.60363e+06 0 956327 3.58798e+06 0 943622 3.57275e+06 0 930910 3.55792e+06 0 918193 3.54348e+06 0 905476 3.52941e+06 0 892761 3.51569e+06 0 880051 3.50233e+06 0 867349 3.48929e+06 0 854657 3.47658e+06 0 841976 3.46417e+06 0 829309 3.45207e+06 0 816657 3.44025e+06 0 804022 3.42872e+06 0 791403 3.41746e+06 0 778803 3.40645e+06 0 766222 3.39571e+06 0 753661 3.38521e+06 0 741121 3.37494e+06 0 728601 3.36491e+06 0 716103 3.3551e+06 0 703626 3.34551e+06 0 691170 3.33613e+06 0 678736 3.32695e+06 0 666324 3.31797