<?xml version="1.0"?> 
<VTKFile type="StructuredGrid" version="0.1"> 
<StructuredGrid WholeExtent="0 127 0 127 0 0"> 
<Piece Extent="0 127 0 127 0 0"> 
<PointData>
<DataArray type="Float32" Name="u" format="ascii" NumberOfComponents="3"> 
-2.85664e+06 3.66579e+06 0 -2.75562e+06 3.55212e+06 0 -2.66121e+06 3.45139e+06 0 -2.57299e+06 3.36139e+06 0 -2.49048e+06 3.28033e+06 0 -2.41323e+06 3.20678e+06 0 -2.34079e+06 3.13956e+06 0 -2.27275e+06 3.07771e+06 0 -2.20871e+06 3.02044e+06 0 -2.14833e+06 2.9671e+06 0 -2.09129e+06 2.91715e+06 0 -2.03729e+06 2.87014e+06 0 -1.98608e+06 2.82567e+06 0 -1.93742e+06 2.78343e+06 0 -1.89109e+06 2.74314e+06 0 -1.84692e+06 2.70456e+06 0 -1.80471e+06 2.6675e+06 0 -1.76432e+06 2.63177e+06 0 -1.72561e+06 2.59722e+06 0 -1.68845e+06 2.56373e+06 0 -1.65272e+06 2.53117e+06 0 -1.61832e+06 2.49945e+06 0 -1.58515e+06 2.46848e+06 0 -1.55313e+06 2.43819e+06 0 -1.52217e+06 2.40849e+06 0 -1.49221e+06 2.37934e+06 0 -1.46317e+06 2.35068e+06 0 -1.43499e+06 2.32246e+06 0 -1.40763e+06 2.29464e+06 0 -1.38102e+06 2.26719e+06 0 -1.35512e+06 2.24006e+06 0 -1.32989e+06 2.21323e+06 0 -1.30529e+06 2.18667e+06 0 -1.28128e+06 2.16037e+06 0 -1.25782e+06 2.13429e+06 0 -1.2349e+06 2.10842e+06 0 -1.21246e+06 2.08274e+06 0 -1.1905e+06 2.05723e+06 0 -1.16898e+06 2.03189e+06 0 -1.14789e+06 2.0067e+06 0 -1.1272e+06 1.98165e+06 0 -1.10689e+06 1.95673e+06 0 -1.08694e+06 1.93193e+06 0 -1.06734e+06 1.90724e+06 0 -1.04808e+06 1.88266e+06 0 -1.02913e+06 1.85817e+06 0 -1.01048e+06 1.83378e+06 0 -992128 1.80948e+06 0 -974054 1.78526e+06 0 -956250 1.76112e+06 0 -938705 1.73705e+06 0 -921409 1.71305e+06 0 -904355 1.68912e+06 0 -887534 1.66526e+06 0 -870937 1.64146e+06 0 -854559 1.61772e+06 0 -838392 1.59404e+06 0 -822429 1.57041e+06 0 -806666 1.54684e+06 0 -791095 1.52332e+06 0 -775713 1.49985e+06 0 -760513 1.47643e+06 0 -745490 1.45306e+06 0 -730641 1.42973e+06 0 -715961 1.40645e+06 0 -701446 1.38322e+06 0 -687091 1.36003e+06 0 -672893 1.33688e+06 0 -658847 1.31378e+06 0 -644952 1.29072e+06 0 -631202 1.26769e+06 0 -617595 1.24471e+06 0 -604127 1.22176e+06 0 -590795 1.19886e+06 0 -577596 1.17599e+06 0 -564528 1.15315e+06 0 -551586 1.13036e+06 0 -538769 1.1076e+06 0 -526073 1.08487e+06 0 -513496 1.06218e+06 0 -501035 1.03952e+06 0 -488686 1.01689e+06 0 -476448 994296 0 -464318 971733 0 -452294 949201 0 -440372 926700 0 -428550 904227 0 -416825 881784 0 -405196 859369 0 -393659 836982 0 -382212 814622 0 -370853 792288 0 -359578 769980 0 -348387 747697 0 -337276 725438 0 -326242 703203 0 -315284 680991 0 -304399 658801 0 -293584 636633 0 -282838 614486 0 -272157 592360 0 -261539 570252 0 -250983 548164 0 -240485 526094 0 -230044 504042 0 -219656 482006 0 -209320 459986 0 -199033 437982 0 -188793 415992 0 -178597 394016 0 -168444 372053 0 -158330 350103 0 -148253 328165 0 -138212 306237 0 -128203 284320 0 -118225 262413 0 -108274 240514 0 -98349.6 218623 0 -88448.1 196740 0 -78567.7 174863 0 -68705.9 152992 0 -58860.5 131127 0 -49029 109265 0 -39209.2 87408 0 -29398.8 65553.4 0 -19595.3 43701 0 -9796.48 21850.1 0 0 3.19294e-07 0 -2.86509e+06 3.68318e+06 0 -2.76402e+06 3.56863e+06 0 -2.66952e+06 3.46713e+06 0 -2.58118e+06 3.37646e+06 0 -2.49854e+06 3.29482e+06 0 -2.42114e+06 3.22076e+06 0 -2.34854e+06 3.15309e+06 0 -2.28034e+06 3.09084e+06 0 -2.21614e+06 3.03324e+06 0 -2.15559e+06 2.97961e+06 0 -2.09839e+06 2.92941e+06 0 -2.04423e+06 2.88217e+06 0 -1.99286e+06 2.83752e+06 0 -1.94405e+06 2.79512e+06 0 -1.89758e+06 2.7547e+06 0 -1.85326e+06 2.71601e+06 0 -1.81091e+06 2.67886e+06 0 -1.77039e+06 2.64306e+06 0 -1.73155e+06 2.60846e+06 0 -1.69426e+06 2.57494e+06 0 -1.65841e+06 2.54236e+06 0 -1.62389e+06 2.51063e+06 0 -1.59061e+06 2.47967e+06 0 -1.55847e+06 2.44939e+06 0 -1.5274e+06 2.41972e+06 0 -1.49733e+06 2.39061e+06 0 -1.46819e+06 2.36199e+06 0 -1.43992e+06 2.33383e+06 0 -1.41246e+06 2.30607e+06 0 -1.38576e+06 2.27868e+06 0 -1.35977e+06 2.25163e+06 0 -1.33446e+06 2.22488e+06 0 -1.30977e+06 2.19841e+06 0 -1.28568e+06 2.1722e+06 0 -1.26214e+06 2.14621e+06 0 -1.23914e+06 2.12044e+06 0 -1.21663e+06 2.09487e+06 0 -1.19459e+06 2.06947e+06 0 -1.173e+06 2.04424e+06 0 -1.15184e+06 2.01916e+06 0 -1.13108e+06 1.99423e+06 0 -1.1107e+06 1.96943e+06 0 -1.09069e+06 1.94475e+06 0 -1.07103e+06 1.92018e+06 0 -1.0517e+06 1.89572e+06 0 -1.03269e+06 1.87136e+06 0 -1.01398e+06 1.8471e+06 0 -995565 1.82292e+06 0 -977432 1.79883e+06 0 -959568 1.77482e+06 0 -941965 1.75089e+06 0 -924612 1.72702e+06 0 -907500 1.70323e+06 0 -890622 1.6795e+06 0 -873969 1.65583e+06 0 -857535 1.63222e+06 0 -841312 1.60868e+06 0 -825294 1.58518e+06 0 -809475 1.56175e+06 0 -793850 1.53836e+06 0 -778412 1.51503e+06 0 -763158 1.49174e+06 0 -748081 1.46851e+06 0 -733178 1.44532e+06 0 -718443 1.42217e+06 0 -703873 1.39907e+06 0 -689464 1.37602e+06 0 -675212 1.35301e+06 0 -661113 1.33003e+06 0 -647163 1.30711e+06 0 -633359 1.28422e+06 0 -619698 1.26137e+06 0 -606177 1.23855e+06 0 -592792 1.21578e+06 0 -579540 1.19304e+06 0 -566418 1.17035e+06 0 -553423 1.14768e+06 0 -540553 1.12505e+06 0 -527805 1.10246e+06 0 -515175 1.0799e+06 0 -502661 1.05737e+06 0 -490261 1.03488e+06 0 -477971 1.01242e+06 0 -465790 989989 0 -453714 967590 0 -441741 945222 0 -429869 922883 0 -418094 900573 0 -406416 878292 0 -394830 856039 0 -383334 833814 0 -371927 811615 0 -360605 789442 0 -349367 767294 0 -338210 745171 0 -327131 723072 0 -316128 700997 0 -305199 678945 0 -294341 656915 0 -283552 634907 0 -272830 612919 0 -262172 590952 0 -251576 569004 0 -241039 547075 0 -230560 525165 0 -220135 503272 0 -209763 481396 0 -199442 459536 0 -189168 437692 0 -178940 415863 0 -168755 394048 0 -158611 372246 0 -148506 350457 0 -138437 328681 0 -128403 306916 0 -118399 285161 0 -108426 263417 0 -98479.2 241682 0 -88557.5 219955 0 -78658.3 198237 0 -68779.3 176525 0 -58918.3 154821 0 -49072.9 133122 0 -39240.8 111428 0 -29419.8 89739 0 -19607.5 68053.5 0 -9801.67 46371.1 0 0 24691 0 -2.87351e+06 3.70082e+06 0 -2.7724e+06 3.58538e+06 0 -2.67783e+06 3.48311e+06 0 -2.58937e+06 3.39175e+06 0 -2.5066e+06 3.30952e+06 0 -2.42906e+06 3.23493e+06 0 -2.35631e+06 3.1668e+06 0 -2.28794e+06 3.10416e+06 0 -2.22358e+06 3.04621e+06 0 -2.16288e+06 2.99228e+06 0 -2.10551e+06 2.94181e+06 0 -2.0512e+06 2.89436e+06 0 -1.99967e+06 2.84951e+06 0 -1.95071e+06 2.80695e+06 0 -1.90409e+06 2.76639e+06 0 -1.85962e+06 2.72759e+06 0 -1.81714e+06 2.69035e+06 0 -1.77648e+06 2.65447e+06 0 -1.73751e+06 2.61982e+06 0 -1.7001e+06 2.58625e+06 0 -1.66412e+06 2.55365e+06 0 -1.62949e+06 2.52192e+06 0 -1.59609e+06 2.49096e+06 0 -1.56384e+06 2.46069e+06 0 -1.53267e+06 2.43105e+06 0 -1.50249e+06 2.40197e+06 0 -1.47325e+06 2.37339e+06 0 -1.44488e+06 2.34528e+06 0 -1.41732e+06 2.31758e+06 0 -1.39053e+06 2.29026e+06 0 -1.36446e+06 2.26328e+06 0 -1.33905e+06 2.23661e+06 0 -1.31428e+06 2.21022e+06 0 -1.29011e+06 2.1841e+06 0 -1.26649e+06 2.15821e+06 0 -1.24341e+06 2.13253e+06 0 -1.22083e+06 2.10706e+06 0 -1.19872e+06 2.08177e+06 0 -1.17706e+06 2.05665e+06 0 -1.15582e+06 2.03169e+06 0 -1.13499e+06 2.00687e+06 0 -1.11455e+06 1.98218e+06 0 -1.09447e+06 1.95762e+06 0 -1.07474e+06 1.93318e+06 0 -1.05535e+06 1.90884e+06 0 -1.03627e+06 1.88461e+06 0 -1.01751e+06 1.86047e+06 0 -999031 1.83643e+06 0 -980838 1.81246e+06 0 -962915 1.78858e+06 0 -945253 1.76478e+06 0 -927842 1.74105e+06 0 -910673 1.71738e+06 0 -893738 1.69379e+06 0 -877029 1.67025e+06 0 -860539 1.64678e+06 0 -844260 1.62337e+06 0 -828187 1.60001e+06 0 -812313 1.57671e+06 0 -796632 1.55346e+06 0 -781140 1.53026e+06 0 -765830 1.50711e+06 0 -750699 1.484e+06 0 -735741 1.46095e+06 0 -720952 1.43794e+06 0 -706328 1.41498e+06 0 -691865 1.39206e+06 0 -677558 1.36918e+06 0 -663405 1.34634e+06 0 -649401 1.32355e+06 0 -635544 1.30079e+06 0 -621829 1.27807e+06 0 -608254 1.2554e+06 0 -594815 1.23276e+06 0 -581510 1.21015e+06 0 -568334 1.18759e+06 0 -555287 1.16506e+06 0 -542363 1.14256e+06 0 -529562 1.1201e+06 0 -516879 1.09767e+06 0 -504313 1.07528e+06 0 -491861 1.05292e+06 0 -479519 1.03059e+06 0 -467286 1.0083e+06 0 -455159 986030 0 -443135 963794 0 -431212 941589 0 -419388 919413 0 -407659 897266 0 -396024 875146 0 -384480 853055 0 -373024 830990 0 -361655 808952 0 -350370 786939 0 -339166 764952 0 -328041 742989 0 -316993 721050 0 -306020 699135 0 -295118 677242 0 -284287 655371 0 -273522 633522 0 -262823 611694 0 -252187 589886 0 -241611 568098 0 -231093 546328 0 -220632 524577 0 -210223 502844 0 -199867 481128 0 -189559 459428 0 -179298 437744 0 -169081 416076 0 -158907 394421 0 -148772 372781 0 -138675 351153 0 -128613 329539 0 -118585 307936 0 -108587 286344 0 -98618.2 264763 0 -88675.4 243191 0 -78756.6 221629 0 -68859.5 200076 0 -58982 178530 0 -49121.7 156992 0 -39276.4 135460 0 -29443.9 113934 0 -19621.8 92413.2 0 -9807.91 70896.9 0 0 49384.6 0 -2.8819e+06 3.71872e+06 0 -2.78076e+06 3.60237e+06 0 -2.68612e+06 3.49931e+06 0 -2.59756e+06 3.40727e+06 0 -2.51466e+06 3.32442e+06 0 -2.43698e+06 3.2493e+06 0 -2.36408e+06 3.18071e+06 0 -2.29556e+06 3.11766e+06 0 -2.23104e+06 3.05935e+06 0 -2.17017e+06 3.00511e+06 0 -2.11265e+06 2.95438e+06 0 -2.05818e+06 2.90669e+06 0 -2.00651e+06 2.86165e+06 0 -1.95739e+06 2.81892e+06 0 -1.91063e+06 2.77822e+06 0 -1.86602e+06 2.7393e+06 0 -1.8234e+06 2.70196e+06 0 -1.78261e+06 2.66601e+06 0 -1.74351e+06 2.6313e+06 0 -1.70596e+06 2.59769e+06 0 -1.66987e+06 2.56506e+06 0 -1.63511e+06 2.53331e+06 0 -1.6016e+06 2.50234e+06 0 -1.56924e+06 2.47209e+06 0 -1.53796e+06 2.44247e+06 0 -1.50768e+06 2.41342e+06 0 -1.47834e+06 2.38488e+06 0 -1.44987e+06 2.35682e+06 0 -1.42222e+06 2.32918e+06 0 -1.39533e+06 2.30192e+06 0 -1.36917e+06 2.27501e+06 0 -1.34368e+06 2.24841e+06 0 -1.31882e+06 2.22211e+06 0 -1.29457e+06 2.19607e+06 0 -1.27087e+06 2.17027e+06 0 -1.24771e+06 2.1447e+06 0 -1.22505e+06 2.11932e+06 0 -1.20287e+06 2.09414e+06 0 -1.18114e+06 2.06913e+06 0 -1.15983e+06 2.04427e+06 0 -1.13893e+06 2.01957e+06 0 -1.11842e+06 1.995e+06 0 -1.09828e+06 1.97056e+06 0 -1.07848e+06 1.94623e+06 0 -1.05903e+06 1.92202e+06 0 -1.03989e+06 1.89791e+06 0 -1.02106e+06 1.8739e+06 0 -1.00253e+06 1.84998e+06 0 -984272 1.82615e+06 0 -966291 1.8024e+06 0 -948570 1.77872e+06 0 -931101 1.75512e+06 0 -913875 1.73159e+06 0 -896883 1.70813e+06 0 -880117 1.68473e+06 0 -863570 1.66139e+06 0 -847236 1.63811e+06 0 -831107 1.61489e+06 0 -815178 1.59172e+06 0 -799442 1.5686e+06 0 -783895 1.54554e+06 0 -768530 1.52252e+06 0 -753344 1.49956e+06 0 -738332 1.47664e+06 0 -723489 1.45376e+06 0 -708810 1.43093e+06 0 -694293 1.40815e+06 0 -679932 1.3854e+06 0 -665725 1.3627e+06 0 -651667 1.34004e+06 0 -637755 1.31742e+06 0 -623987 1.29484e+06 0 -610358 1.27229e+06 0 -596865 1.24978e+06 0 -583506 1.22732e+06 0 -570277 1.20488e+06 0 -557176 1.18249e+06 0 -544200 1.16012e+06 0 -531345 1.1378e+06 0 -518610 1.1155e+06 0 -505991 1.09324e+06 0 -493486 1.07101e+06 0 -481093 1.04882e+06 0 -468808 1.02665e+06 0 -456629 1.00452e+06 0 -444554 982419 0 -432580 960347 0 -420706 938304 0 -408927 916290 0 -397242 894304 0 -385649 872346 0 -374145 850416 0 -362728 828512 0 -351395 806634 0 -340145 784781 0 -328974 762954 0 -317880 741151 0 -306862 719371 0 -295916 697615 0 -285041 675882 0 -274235 654170 0 -263494 632480 0 -252817 610811 0 -242201 589162 0 -231645 567533 0 -221145 545923 0 -210700 524332 0 -200307 502758 0 -189965 481202 0 -179670 459662 0 -169421 438138 0 -159215 416630 0 -149051 395136 0 -138925 373657 0 -128836 352191 0 -118781 330738 0 -108759 309298 0 -98766.5 287869 0 -88801.7 266451 0 -78862.5 245044 0 -68946.5 223646 0 -59051.6 202257 0 -49175.5 180878 0 -39316.1 159505 0 -29471 138141 0 -19638.1 116783 0 -9815.2 95430.4 0 0 74083.6 0 -2.89026e+06 3.73687e+06 0 -2.7891e+06 3.61962e+06 0 -2.69439e+06 3.51575e+06 0 -2.60574e+06 3.423e+06 0 -2.52272e+06 3.33954e+06 0 -2.4449e+06 3.26387e+06 0 -2.37186e+06 3.19481e+06 0 -2.30318e+06 3.13135e+06 0 -2.23851e+06 3.07268e+06 0 -2.17749e+06 3.01812e+06 0 -2.11981e+06 2.96711e+06 0 -2.06519e+06 2.91919e+06 0 -2.01336e+06 2.87394e+06 0 -1.9641e+06 2.83103e+06 0 -1.91719e+06 2.79018e+06 0 -1.87244e+06 2.75114e+06 0 -1.82968e+06 2.7137e+06 0 -1.78876e+06 2.67767e+06 0 -1.74953e+06 2.64289e+06 0 -1.71186e+06 2.60923e+06 0 -1.67564e+06 2.57657e+06 0 -1.64077e+06 2.5448e+06 0 -1.60714e+06 2.51384e+06 0 -1.57467e+06 2.48359e+06 0 -1.54328e+06 2.45398e+06 0 -1.5129e+06 2.42496e+06 0 -1.48346e+06 2.39647e+06 0 -1.45489e+06 2.36845e+06 0 -1.42714e+06 2.34086e+06 0 -1.40017e+06 2.31366e+06 0 -1.37391e+06 2.28682e+06 0 -1.34834e+06 2.2603e+06 0 -1.3234e+06 2.23407e+06 0 -1.29906e+06 2.20812e+06 0 -1.27528e+06 2.18241e+06 0 -1.25204e+06 2.15693e+06 0 -1.22931e+06 2.13166e+06 0 -1.20705e+06 2.10657e+06 0 -1.18525e+06 2.08167e+06 0 -1.16387e+06 2.05692e+06 0 -1.1429e+06 2.03233e+06 0 -1.12232e+06 2.00788e+06 0 -1.10211e+06 1.98355e+06 0 -1.08226e+06 1.95935e+06 0 -1.06274e+06 1.93526e+06 0 -1.04354e+06 1.91127e+06 0 -1.02465e+06 1.88739e+06 0 -1.00605e+06 1.86359e+06 0 -987736 1.83989e+06 0 -969695 1.81627e+06 0 -951915 1.79272e+06 0 -934388 1.76925e+06 0 -917105 1.74585e+06 0 -900055 1.72252e+06 0 -883233 1.69926e+06 0 -866630 1.67605e+06 0 -850240 1.65291e+06 0 -834055 1.62982e+06 0 -818070 1.60678e+06 0 -802280 1.5838e+06 0 -786677 1.56087e+06 0 -771258 1.53799e+06 0 -756017 1.51516e+06 0 -740950 1.49237e+06 0 -726052 1.46964e+06 0 -711320 1.44694e+06 0 -696748 1.42429e+06 0 -682333 1.40168e+06 0 -668071 1.37911e+06 0 -653959 1.35658e+06 0 -639994 1.3341e+06 0 -626171 1.31165e+06 0 -612488 1.28924e+06 0 -598942 1.26687e+06 0 -585529 1.24453e+06 0 -572246 1.22223e+06 0 -559092 1.19997e+06 0 -546062 1.17774e+06 0 -533154 1.15554e+06 0 -520366 1.13338e+06 0 -507695 1.11125e+06 0 -495137 1.08916e+06 0 -482691 1.0671e+06 0 -470355 1.04507e+06 0 -458124 1.02307e+06 0 -445998 1.0011e+06 0 -433973 979157 0 -422048 957247 0 -410219 935367 0 -398484 913514 0 -386842 891690 0 -375289 869893 0 -363824 848122 0 -352443 826379 0 -341145 804661 0 -329928 782968 0 -318789 761300 0 -307725 739656 0 -296735 718036 0 -285817 696439 0 -274967 674865 0 -264184 653312 0 -253466 631781 0 -242810 610271 0 -232214 588781 0 -221676 567311 0 -211194 545861 0 -200765 524428 0 -190387 503014 0 -180058 481617 0 -169776 460238 0 -159538 438874 0 -149343 417526 0 -139188 396193 0 -129070 374875 0 -118989 353571 0 -108941 332280 0 -98924.1 311002 0 -88936.6 289736 0 -78976.1 268481 0 -69040.3 247238 0 -59127.1 226005 0 -49234.4 204782 0 -39359.8 183567 0 -29501.3 162362 0 -19656.6 141164 0 -9823.54 119974 0 0 98790.7 0 -2.89858e+06 3.75529e+06 0 -2.79742e+06 3.63711e+06 0 -2.70265e+06 3.53243e+06 0 -2.61391e+06 3.43896e+06 0 -2.53078e+06 3.35487e+06 0 -2.45283e+06 3.27866e+06 0 -2.37964e+06 3.2091e+06 0 -2.31082e+06 3.14522e+06 0 -2.246e+06 3.08618e+06 0 -2.18482e+06 3.0313e+06 0 -2.12699e+06 2.98001e+06 0 -2.07222e+06 2.93184e+06 0 -2.02024e+06 2.88638e+06 0 -1.97083e+06 2.8433e+06 0 -1.92378e+06 2.80229e+06 0 -1.87889e+06 2.76312e+06 0 -1.83599e+06 2.72557e+06 0 -1.79494e+06 2.68945e+06 0 -1.75558e+06 2.65461e+06 0 -1.71778e+06 2.6209e+06 0 -1.68145e+06 2.5882e+06 0 -1.64645e+06 2.55641e+06 0 -1.61271e+06 2.52543e+06 0 -1.58013e+06 2.49519e+06 0 -1.54864e+06 2.4656e+06 0 -1.51815e+06 2.4366e+06 0 -1.4886e+06 2.40814e+06 0 -1.45994e+06 2.38016e+06 0 -1.4321e+06 2.35262e+06 0 -1.40503e+06 2.32548e+06 0 -1.37869e+06 2.29871e+06 0 -1.35302e+06 2.27226e+06 0 -1.328e+06 2.24611e+06 0 -1.30358e+06 2.22024e+06 0 -1.27972e+06 2.19462e+06 0 -1.25641e+06 2.16924e+06 0 -1.23359e+06 2.14406e+06 0 -1.21126e+06 2.11908e+06 0 -1.18939e+06 2.09428e+06 0 -1.16794e+06 2.06964e+06 0 -1.1469e+06 2.04516e+06 0 -1.12626e+06 2.02082e+06 0 -1.10598e+06 1.99661e+06 0 -1.08606e+06 1.97253e+06 0 -1.06647e+06 1.94856e+06 0 -1.04721e+06 1.92469e+06 0 -1.02826e+06 1.90093e+06 0 -1.0096e+06 1.87727e+06 0 -991228 1.85369e+06 0 -973127 1.83019e+06 0 -955289 1.80678e+06 0 -937704 1.78344e+06 0 -920363 1.76017e+06 0 -903256 1.73697e+06 0 -886377 1.71384e+06 0 -869718 1.69077e+06 0 -853272 1.66776e+06 0 -837031 1.6448e+06 0 -820991 1.6219e+06 0 -805145 1.59905e+06 0 -789487 1.57626e+06 0 -774013 1.55351e+06 0 -758718 1.53082e+06 0 -743596 1.50817e+06 0 -728644 1.48556e+06 0 -713856 1.463e+06 0 -699230 1.44049e+06 0 -684761 1.41801e+06 0 -670445 1.39558e+06 0 -656279 1.37318e+06 0 -642259 1.35083e+06 0 -628382 1.32852e+06 0 -614645 1.30624e+06 0 -601045 1.284e+06 0 -587578 1.2618e+06 0 -574242 1.23963e+06 0 -561034 1.2175e+06 0 -547951 1.19541e+06 0 -534990 1.17335e+06 0 -522149 1.15132e+06 0 -509424 1.12932e+06 0 -496814 1.10736e+06 0 -484316 1.08543e+06 0 -471927 1.06353e+06 0 -459644 1.04166e+06 0 -447467 1.01983e+06 0 -435391 998022 0 -423414 976244 0 -411535 954496 0 -399750 932777 0 -388058 911086 0 -376456 889422 0 -364942 867785 0 -353514 846175 0 -342169 824591 0 -330904 803033 0 -319719 781500 0 -308610 759991 0 -297575 738506 0 -286612 717045 0 -275719 695607 0 -264894 674192 0 -254134 652798 0 -243437 631426 0 -232802 610074 0 -222225 588744 0 -211704 567433 0 -201238 546141 0 -190824 524868 0 -180461 503613 0 -170145 482376 0 -159874 461156 0 -149648 439952 0 -139462 418765 0 -129316 397593 0 -119207 376436 0 -109133 355293 0 -99091.1 334164 0 -89080.1 313048 0 -79097.4 291945 0 -69140.9 270854 0 -59208.6 249775 0 -49298.2 228706 0 -39407.6 207648 0 -29534.6 186600 0 -19677.1 165561 0 -9832.94 144531 0 0 123508 0 -2.90685e+06 3.77398e+06 0 -2.8057e+06 3.65486e+06 0 -2.71088e+06 3.54935e+06 0 -2.62206e+06 3.45516e+06 0 -2.53882e+06 3.37043e+06 0 -2.46075e+06 3.29365e+06 0 -2.38743e+06 3.22361e+06 0 -2.31846e+06 3.15929e+06 0 -2.25349e+06 3.09987e+06 0 -2.19217e+06 3.04465e+06 0 -2.13418e+06 2.99308e+06 0 -2.07926e+06 2.94466e+06 0 -2.02714e+06 2.89898e+06 0 -1.97758e+06 2.85571e+06 0 -1.93039e+06 2.81454e+06 0 -1.88536e+06 2.77524e+06 0 -1.84233e+06 2.73757e+06 0 -1.80114e+06 2.70136e+06 0 -1.76165e+06 2.66645e+06 0 -1.72373e+06 2.63268e+06 0 -1.68728e+06 2.59995e+06 0 -1.65217e+06 2.56813e+06 0 -1.61831e+06 2.53714e+06 0 -1.58562e+06 2.50689e+06 0 -1.55402e+06 2.47732e+06 0 -1.52343e+06 2.44834e+06 0 -1.49378e+06 2.41991e+06 0 -1.46502e+06 2.39197e+06 0 -1.43708e+06 2.36448e+06 0 -1.40992e+06 2.3374e+06 0 -1.38349e+06 2.31069e+06 0 -1.35774e+06 2.28431e+06 0 -1.33263e+06 2.25824e+06 0 -1.30813e+06 2.23245e+06 0 -1.28419e+06 2.20691e+06 0 -1.2608e+06 2.18162e+06 0 -1.23791e+06 2.15654e+06 0 -1.21551e+06 2.13165e+06 0 -1.19356e+06 2.10695e+06 0 -1.17204e+06 2.08243e+06 0 -1.15093e+06 2.05805e+06 0 -1.13022e+06 2.03383e+06 0 -1.10988e+06 2.00973e+06 0 -1.08989e+06 1.98577e+06 0 -1.07024e+06 1.96192e+06 0 -1.05092e+06 1.93818e+06 0 -1.0319e+06 1.91454e+06 0 -1.01318e+06 1.891e+06 0 -994748 1.86755e+06 0 -976588 1.84418e+06 0 -958692 1.8209e+06 0 -941048 1.79769e+06 0 -923649 1.77455e+06 0 -906485 1.75148e+06 0 -889550 1.72848e+06 0 -872834 1.70554e+06 0 -856331 1.68266e+06 0 -840035 1.65984e+06 0 -823940 1.63708e+06 0 -808038 1.61436e+06 0 -792325 1.5917e+06 0 -776796 1.56909e+06 0 -761446 1.54653e+06 0 -746270 1.52401e+06 0 -731262 1.50154e+06 0 -716421 1.47912e+06 0 -701740 1.45674e+06 0 -687216 1.4344e+06 0 -672846 1.4121e+06 0 -658625 1.38984e+06 0 -644551 1.36762e+06 0 -630621 1.34544e+06 0 -616829 1.3233e+06 0 -603175 1.30119e+06 0 -589655 1.27912e+06 0 -576265 1.25709e+06 0 -563003 1.23509e+06 0 -549866 1.21313e+06 0 -536852 1.1912e+06 0 -523957 1.16931e+06 0 -511180 1.14745e+06 0 -498517 1.12562e+06 0 -485966 1.10382e+06 0 -473524 1.08205e+06 0 -461190 1.06032e+06 0 -448960 1.03861e+06 0 -436833 1.01694e+06 0 -424805 995296 0 -412875 973681 0 -401040 952094 0 -389298 930536 0 -377647 909005 0 -366084 887502 0 -354607 866025 0 -343214 844575 0 -331903 823150 0 -320671 801751 0 -309516 780377 0 -298436 759027 0 -287428 737702 0 -276492 716399 0 -265623 695120 0 -254821 673863 0 -244083 652628 0 -233407 631414 0 -222791 610221 0 -212232 589049 0 -201728 567897 0 -191278 546764 0 -180879 525650 0 -170528 504554 0 -160225 483477 0 -149966 462417 0 -139750 441373 0 -129574 420346 0 -119436 399335 0 -109335 378339 0 -99267.5 357358 0 -89232 336391 0 -79226.4 315437 0 -69248.4 294497 0 -59296 273570 0 -49367 252654 0 -39459.4 231750 0 -29571 210857 0 -19699.7 189975 0 -9843.39 169103 0 0 148240 0 -2.91509e+06 3.79294e+06 0 -2.81394e+06 3.67287e+06 0 -2.71909e+06 3.56652e+06 0 -2.6302e+06 3.47159e+06 0 -2.54686e+06 3.38621e+06 0 -2.46867e+06 3.30886e+06 0 -2.39522e+06 3.23831e+06 0 -2.32611e+06 3.17355e+06 0 -2.26099e+06 3.11374e+06 0 -2.19952e+06 3.05819e+06 0 -2.14139e+06 3.00632e+06 0 -2.08632e+06 2.95764e+06 0 -2.03405e+06 2.91174e+06 0 -1.98435e+06 2.86827e+06 0 -1.93702e+06 2.82694e+06 0 -1.89185e+06 2.7875e+06 0 -1.84869e+06 2.74972e+06 0 -1.80737e+06 2.71341e+06 0 -1.76775e+06 2.67842e+06 0 -1.72971e+06 2.64459e+06 0 -1.69313e+06 2.61181e+06 0 -1.65791e+06 2.57997e+06 0 -1.62394e+06 2.54896e+06 0 -1.59114e+06 2.51871e+06 0 -1.55943e+06 2.48914e+06 0 -1.52873e+06 2.46018e+06 0 -1.49899e+06 2.43178e+06 0 -1.47013e+06 2.40388e+06 0 -1.4421e+06 2.37643e+06 0 -1.41484e+06 2.3494e+06 0 -1.38832e+06 2.32275e+06 0 -1.36248e+06 2.29644e+06 0 -1.33729e+06 2.27044e+06 0 -1.31271e+06 2.24473e+06 0 -1.28869e+06 2.21928e+06 0 -1.26522e+06 2.19407e+06 0 -1.24226e+06 2.16909e+06 0 -1.21978e+06 2.1443e+06 0 -1.19776e+06 2.11971e+06 0 -1.17617e+06 2.09528e+06 0 -1.15499e+06 2.07102e+06 0 -1.13421e+06 2.0469e+06 0 -1.1138e+06 2.02292e+06 0 -1.09375e+06 1.99907e+06 0 -1.07404e+06 1.97534e+06 0 -1.05465e+06 1.95172e+06 0 -1.03557e+06 1.92821e+06 0 -1.01679e+06 1.90479e+06 0 -998297 1.88146e+06 0 -980078 1.85823e+06 0 -962122 1.83507e+06 0 -944420 1.81199e+06 0 -926963 1.78898e+06 0 -909743 1.76605e+06 0 -892750 1.74318e+06 0 -875978 1.72037e+06 0 -859419 1.69762e+06 0 -843067 1.67494e+06 0 -826916 1.65231e+06 0 -810959 1.62973e+06 0 -795191 1.6072e+06 0 -779607 1.58472e+06 0 -764202 1.5623e+06 0 -748971 1.53992e+06 0 -733909 1.51758e+06 0 -719012 1.49529e+06 0 -704277 1.47304e+06 0 -689699 1.45084e+06 0 -675274 1.42867e+06 0 -660999 1.40655e+06 0 -646871 1.38446e+06 0 -632886 1.36242e+06 0 -619041 1.34041e+06 0 -605332 1.31844e+06 0 -591758 1.2965e+06 0 -578314 1.2746e+06 0 -564998 1.25274e+06 0 -551808 1.23091e+06 0 -538740 1.20912e+06 0 -525792 1.18735e+06 0 -512961 1.16563e+06 0 -500245 1.14393e+06 0 -487641 1.12226e+06 0 -475147 1.10063e+06 0 -462761 1.07903e+06 0 -450479 1.05746e+06 0 -438300 1.03592e+06 0 -426221 1.0144e+06 0 -414240 992921 0 -402354 971467 0 -390562 950041 0 -378861 928643 0 -367249 907273 0 -355723 885929 0 -344282 864612 0 -332923 843321 0 -321644 822056 0 -310443 800816 0 -299317 779600 0 -288265 758409 0 -277284 737242 0 -266372 716098 0 -255528 694977 0 -244748 673878 0 -234031 652801 0 -223374 631746 0 -212776 610712 0 -202234 589698 0 -191747 568705 0 -181312 547731 0 -170926 526776 0 -160589 505839 0 -150297 484921 0 -140049 464020 0 -129843 443137 0 -119676 422270 0 -109547 401420 0 -99453.3 380585 0 -89392.6 359765 0 -79363.1 338960 0 -69362.7 318169 0 -59389.3 297392 0 -49440.9 276627 0 -39515.3 255876 0 -29610.5 235137 0 -19724.4 214409 0 -9854.91 193693 0 0 172987 0 -2.92327e+06 3.81218e+06 0 -2.82215e+06 3.69114e+06 0 -2.72727e+06 3.58395e+06 0 -2.63832e+06 3.48827e+06 0 -2.55489e+06 3.40222e+06 0 -2.47658e+06 3.32429e+06 0 -2.403e+06 3.25323e+06 0 -2.33376e+06 3.18802e+06 0 -2.2685e+06 3.12781e+06 0 -2.20689e+06 3.07191e+06 0 -2.14861e+06 3.01974e+06 0 -2.09339e+06 2.97079e+06 0 -2.04098e+06 2.92466e+06 0 -1.99114e+06 2.88099e+06 0 -1.94366e+06 2.83949e+06 0 -1.89836e+06 2.7999e+06 0 -1.85507e+06 2.762e+06 0 -1.81362e+06 2.72559e+06 0 -1.77387e+06 2.69051e+06 0 -1.73571e+06 2.65662e+06 0 -1.69901e+06 2.6238e+06 0 -1.66367e+06 2.59192e+06 0 -1.62959e+06 2.56089e+06 0 -1.59668e+06 2.53063e+06 0 -1.56486e+06 2.50107e+06 0 -1.53407e+06 2.47213e+06 0 -1.50422e+06 2.44375e+06 0 -1.47526e+06 2.41588e+06 0 -1.44714e+06 2.38848e+06 0 -1.41979e+06 2.3615e+06 0 -1.39318e+06 2.33491e+06 0 -1.36726e+06 2.30866e+06 0 -1.34198e+06 2.28273e+06 0 -1.31731e+06 2.2571e+06 0 -1.29322e+06 2.23173e+06 0 -1.26967e+06 2.20661e+06 0 -1.24663e+06 2.18171e+06 0 -1.22408e+06 2.15703e+06 0 -1.20198e+06 2.13253e+06 0 -1.18033e+06 2.10821e+06 0 -1.15908e+06 2.08405e+06 0 -1.13823e+06 2.06005e+06 0 -1.11776e+06 2.03618e+06 0 -1.09764e+06 2.01245e+06 0 -1.07786e+06 1.98883e+06 0 -1.05841e+06 1.96533e+06 0 -1.03927e+06 1.94194e+06 0 -1.02043e+06 1.91865e+06 0 -1.00187e+06 1.89544e+06 0 -983595 1.87233e+06 0 -965581 1.8493e+06 0 -947821 1.82635e+06 0 -930306 1.80348e+06 0 -913028 1.78067e+06 0 -895978 1.75793e+06 0 -879150 1.73526e+06 0 -862535 1.71264e+06 0 -846127 1.69009e+06 0 -829920 1.66759e+06 0 -813908 1.64515e+06 0 -798085 1.62276e+06 0 -782446 1.60041e+06 0 -766985 1.57812e+06 0 -751699 1.55587e+06 0 -736583 1.53367e+06 0 -721632 1.51152e+06 0 -706842 1.48941e+06 0 -692209 1.46734e+06 0 -677730 1.44531e+06 0 -663401 1.42332e+06 0 -649218 1.40137e+06 0 -635179 1.37945e+06 0 -621279 1.35758e+06 0 -607516 1.33574e+06 0 -593888 1.31394e+06 0 -580390 1.29218e+06 0 -567020 1.27045e+06 0 -553776 1.24875e+06 0 -540654 1.22709e+06 0 -527653 1.20546e+06 0 -514769 1.18386e+06 0 -502000 1.1623e+06 0 -489343 1.14077e+06 0 -476796 1.11927e+06 0 -464357 1.0978e+06 0 -452023 1.07636e+06 0 -439792 1.05495e+06 0 -427661 1.03357e+06 0 -415629 1.01222e+06 0 -403693 990896 0 -391850 969603 0 -380099 948337 0 -368437 927100 0 -356863 905889 0 -345373 884705 0 -333966 863547 0 -322640 842415 0 -311392 821308 0 -300220 800227 0 -289122 779170 0 -278097 758137 0 -267141 737128 0 -256253 716142 0 -245431 695179 0 -234672 674238 0 -223975 653320 0 -213338 632423 0 -202757 611547 0 -192232 590691 0 -181760 569856 0 -171339 549041 0 -160967 528245 0 -150642 507467 0 -140362 486709 0 -130124 465968 0 -119928 445244 0 -109770 424537 0 -99648.4 403847 0 -89561.7 383173 0 -79507.6 362515 0 -69483.9 341872 0 -59488.6 321243 0 -49519.8 300629 0 -39575.3 280028 0 -29653.1 259441 0 -19751.2 238866 0 -9867.48 218304 0 0 197753 0 -2.93139e+06 3.8317e+06 0 -2.83031e+06 3.70969e+06 0 -2.73542e+06 3.60163e+06 0 -2.64641e+06 3.50519e+06 0 -2.56289e+06 3.41847e+06 0 -2.48448e+06 3.33994e+06 0 -2.41078e+06 3.26836e+06 0 -2.34141e+06 3.20269e+06 0 -2.27602e+06 3.14208e+06 0 -2.21426e+06 3.08582e+06 0 -2.15584e+06 3.03333e+06 0 -2.10048e+06 2.98411e+06 0 -2.04793e+06 2.93775e+06 0 -1.99795e+06 2.89388e+06 0 -1.95033e+06 2.8522e+06 0 -1.9049e+06 2.81246e+06 0 -1.86147e+06 2.77442e+06 0 -1.81989e+06 2.73791e+06 0 -1.78002e+06 2.70275e+06 0 -1.74174e+06 2.66879e+06 0 -1.70492e+06 2.63591e+06 0 -1.66946e+06 2.60399e+06 0 -1.63527e+06 2.57294e+06 0 -1.60225e+06 2.54267e+06 0 -1.57033e+06 2.51311e+06 0 -1.53943e+06 2.48418e+06 0 -1.50948e+06 2.45582e+06 0 -1.48043e+06 2.42799e+06 0 -1.45221e+06 2.40062e+06 0 -1.42477e+06 2.37369e+06 0 -1.39807e+06 2.34715e+06 0 -1.37206e+06 2.32097e+06 0 -1.3467e+06 2.29511e+06 0 -1.32195e+06 2.26955e+06 0 -1.29778e+06 2.24426e+06 0 -1.27415e+06 2.21923e+06 0 -1.25103e+06 2.19442e+06 0 -1.22841e+06 2.16983e+06 0 -1.20624e+06 2.14543e+06 0 -1.18451e+06 2.12121e+06 0 -1.1632e+06 2.09716e+06 0 -1.14228e+06 2.07326e+06 0 -1.12174e+06 2.04951e+06 0 -1.10155e+06 2.02589e+06 0 -1.08171e+06 2.00239e+06 0 -1.0622e+06 1.97901e+06 0 -1.043e+06 1.95574e+06 0 -1.02409e+06 1.93256e+06 0 -1.00548e+06 1.90949e+06 0 -987141 1.8865e+06 0 -969067 1.8636e+06 0 -951249 1.84078e+06 0 -933676 1.81803e+06 0 -916341 1.79535e+06 0 -899234 1.77275e+06 0 -882349 1.7502e+06 0 -865678 1.72772e+06 0 -849214 1.7053e+06 0 -832952 1.68294e+06 0 -816884 1.66063e+06 0 -801006 1.63837e+06 0 -785312 1.61616e+06 0 -769796 1.594e+06 0 -754455 1.57189e+06 0 -739284 1.54983e+06 0 -724278 1.5278e+06 0 -709434 1.50583e+06 0 -694746 1.48389e+06 0 -680213 1.462e+06 0 -665829 1.44014e+06 0 -651592 1.41832e+06 0 -637498 1.39655e+06 0 -623545 1.37481e+06 0 -609728 1.3531e+06 0 -596045 1.33144e+06 0 -582493 1.3098e+06 0 -569069 1.28821e+06 0 -555771 1.26664e+06 0 -542595 1.24512e+06 0 -529540 1.22362e+06 0 -516603 1.20216e+06 0 -503780 1.18073e+06 0 -491070 1.15933e+06 0 -478470 1.13796e+06 0 -465978 1.11662e+06 0 -453592 1.09531e+06 0 -441309 1.07404e+06 0 -429126 1.05279e+06 0 -417043 1.03157e+06 0 -405055 1.01038e+06 0 -393162 989222 0 -381361 968089 0 -369649 946983 0 -358025 925905 0 -346486 904854 0 -335031 883829 0 -323657 862830 0 -312362 841856 0 -301143 820908 0 -290000 799985 0 -278929 779086 0 -267929 758211 0 -256998 737360 0 -246133 716532 0 -235332 695727 0 -224594 674944 0 -213916 654183 0 -203296 633444 0 -192733 612726 0 -182223 592029 0 -171766 571352 0 -161359 550695 0 -151000 530058 0 -140686 509440 0 -130417 488840 0 -120190 468258 0 -110003 447694 0 -99853.1 427148 0 -89739.5 406618 0 -79659.8 386105 0 -69611.9 365608 0 -59593.9 345127 0 -49603.7 324660 0 -39639.3 304209 0 -29698.8 283771 0 -19780 263348 0 -9881.12 242938 0 0 222540 0 -2.93945e+06 3.8515e+06 0 -2.83843e+06 3.72851e+06 0 -2.74353e+06 3.61957e+06 0 -2.65447e+06 3.52236e+06 0 -2.57088e+06 3.43495e+06 0 -2.49237e+06 3.35583e+06 0 -2.41856e+06 3.28371e+06 0 -2.34906e+06 3.21757e+06 0 -2.28353e+06 3.15654e+06 0 -2.22164e+06 3.09992e+06 0 -2.16308e+06 3.04712e+06 0 -2.10758e+06 2.99762e+06 0 -2.05488e+06 2.951e+06 0 -2.00477e+06 2.90692e+06 0 -1.95702e+06 2.86506e+06 0 -1.91145e+06 2.82516e+06 0 -1.86789e+06 2.787e+06 0 -1.82618e+06 2.75037e+06 0 -1.78619e+06 2.71512e+06 0 -1.74778e+06 2.68108e+06 0 -1.71085e+06 2.64815e+06 0 -1.67528e+06 2.61619e+06 0 -1.64097e+06 2.58511e+06 0 -1.60784e+06 2.55483e+06 0 -1.57582e+06 2.52526e+06 0 -1.54481e+06 2.49634e+06 0 -1.51477e+06 2.468e+06 0 -1.48562e+06 2.44019e+06 0 -1.45731e+06 2.41287e+06 0 -1.42978e+06 2.38598e+06 0 -1.40299e+06 2.35949e+06 0 -1.37689e+06 2.33337e+06 0 -1.35145e+06 2.30758e+06 0 -1.32661e+06 2.28209e+06 0 -1.30236e+06 2.25688e+06 0 -1.27865e+06 2.23193e+06 0 -1.25546e+06 2.20721e+06 0 -1.23276e+06 2.18271e+06 0 -1.21052e+06 2.1584e+06 0 -1.18872e+06 2.13429e+06 0 -1.16734e+06 2.11034e+06 0 -1.14636e+06 2.08655e+06 0 -1.12575e+06 2.0629e+06 0 -1.1055e+06 2.0394e+06 0 -1.08559e+06 2.01601e+06 0 -1.06601e+06 1.99275e+06 0 -1.04675e+06 1.9696e+06 0 -1.02779e+06 1.94655e+06 0 -1.00911e+06 1.9236e+06 0 -990714 1.90073e+06 0 -972582 1.87796e+06 0 -954705 1.85526e+06 0 -937075 1.83264e+06 0 -919682 1.8