<?xml version="1.0"?> 
<VTKFile type="StructuredGrid" version="0.1"> 
<StructuredGrid WholeExtent="0 127 0 127 0 0"> 
<Piece Extent="0 127 0 127 0 0"> 
<PointData>
<DataArray type="Float32" Name="u" format="ascii" NumberOfComponents="3"> 
-1.84093e+06 0 0 -1.84104e+06 12404.7 0 -1.84136e+06 24812.7 0 -1.84191e+06 37227.3 0 -1.84267e+06 49651.8 0 -1.84365e+06 62089.7 0 -1.84485e+06 74544.2 0 -1.84627e+06 87018.7 0 -1.8479e+06 99516.6 0 -1.84976e+06 112041 0 -1.85183e+06 124596 0 -1.85412e+06 137185 0 -1.85662e+06 149811 0 -1.85934e+06 162477 0 -1.86229e+06 175188 0 -1.86544e+06 187947 0 -1.86882e+06 200758 0 -1.87241e+06 213624 0 -1.87622e+06 226550 0 -1.88025e+06 239538 0 -1.88449e+06 252594 0 -1.88895e+06 265721 0 -1.89362e+06 278923 0 -1.89851e+06 292204 0 -1.90361e+06 305569 0 -1.90893e+06 319023 0 -1.91446e+06 332569 0 -1.92021e+06 346212 0 -1.92617e+06 359957 0 -1.93234e+06 373810 0 -1.93872e+06 387774 0 -1.94531e+06 401855 0 -1.95211e+06 416059 0 -1.95912e+06 430391 0 -1.96633e+06 444856 0 -1.97375e+06 459461 0 -1.98138e+06 474212 0 -1.9892e+06 489114 0 -1.99723e+06 504175 0 -2.00545e+06 519401 0 -2.01387e+06 534800 0 -2.02248e+06 550378 0 -2.03128e+06 566143 0 -2.04027e+06 582104 0 -2.04944e+06 598268 0 -2.05878e+06 614645 0 -2.0683e+06 631243 0 -2.078e+06 648072 0 -2.08785e+06 665141 0 -2.09786e+06 682462 0 -2.10802e+06 700045 0 -2.11833e+06 717901 0 -2.12877e+06 736043 0 -2.13934e+06 754483 0 -2.15002e+06 773234 0 -2.16081e+06 792310 0 -2.17168e+06 811727 0 -2.18264e+06 831498 0 -2.19365e+06 851640 0 -2.20471e+06 872170 0 -2.21579e+06 893106 0 -2.22687e+06 914464 0 -2.23792e+06 936266 0 -2.24893e+06 958530 0 -2.25985e+06 981276 0 -2.27065e+06 1.00453e+06 0 -2.2813e+06 1.0283e+06 0 -2.29174e+06 1.05262e+06 0 -2.30193e+06 1.07751e+06 0 -2.31181e+06 1.10298e+06 0 -2.32132e+06 1.12906e+06 0 -2.33039e+06 1.15577e+06 0 -2.33894e+06 1.18312e+06 0 -2.34688e+06 1.21113e+06 0 -2.35412e+06 1.23979e+06 0 -2.36054e+06 1.26912e+06 0 -2.36602e+06 1.2991e+06 0 -2.37044e+06 1.32973e+06 0 -2.37364e+06 1.36096e+06 0 -2.37546e+06 1.39275e+06 0 -2.37573e+06 1.42504e+06 0 -2.37427e+06 1.45773e+06 0 -2.37089e+06 1.49071e+06 0 -2.36539e+06 1.52381e+06 0 -2.35756e+06 1.55685e+06 0 -2.34721e+06 1.58959e+06 0 -2.33417e+06 1.62175e+06 0 -2.31827e+06 1.65299e+06 0 -2.2994e+06 1.68293e+06 0 -2.27748e+06 1.71116e+06 0 -2.25251e+06 1.73721e+06 0 -2.22454e+06 1.7606e+06 0 -2.19372e+06 1.78082e+06 0 -2.16029e+06 1.7974e+06 0 -2.12456e+06 1.80987e+06 0 -2.08693e+06 1.81783e+06 0 -2.04787e+06 1.82094e+06 0 -2.0079e+06 1.81896e+06 0 -1.96755e+06 1.81173e+06 0 -1.92738e+06 1.79918e+06 0 -1.8879e+06 1.78135e+06 0 -1.8496e+06 1.75834e+06 0 -1.8129e+06 1.73033e+06 0 -1.77817e+06 1.69753e+06 0 -1.74571e+06 1.66018e+06 0 -1.71575e+06 1.61855e+06 0 -1.68843e+06 1.57288e+06 0 -1.66386e+06 1.5234e+06 0 -1.6421e+06 1.47031e+06 0 -1.62314e+06 1.41377e+06 0 -1.60696e+06 1.3539e+06 0 -1.5935e+06 1.29075e+06 0 -1.58266e+06 1.22434e+06 0 -1.57435e+06 1.15458e+06 0 -1.56847e+06 1.08142e+06 0 -1.56486e+06 1.00449e+06 0 -1.56351e+06 923741 0 -1.56416e+06 838445 0 -1.56683e+06 748405 0 -1.57187e+06 652282 0 -1.57841e+06 550516 0 -1.58885e+06 437785 0 -1.60299e+06 320447 0 -1.62217e+06 177842 0 -1.66352e+06 29786.2 0 -1.72202e+06 -179654 0 -1.95577e+06 -489740 0 -3.36636e+06 -4.00543e-05 0 -1.83969e+06 0 0 -1.8398e+06 12426.5 0 -1.84012e+06 24856.2 0 -1.84067e+06 37292.6 0 -1.84143e+06 49739 0 -1.84241e+06 62198.6 0 -1.8436e+06 74674.9 0 -1.84502e+06 87171.2 0 -1.84665e+06 99690.9 0 -1.8485e+06 112237 0 -1.85057e+06 124814 0 -1.85285e+06 137424 0 -1.85536e+06 150072 0 -1.85807e+06 162760 0 -1.86101e+06 175493 0 -1.86416e+06 188274 0 -1.86753e+06 201106 0 -1.87112e+06 213994 0 -1.87492e+06 226941 0 -1.87894e+06 239951 0 -1.88318e+06 253029 0 -1.88763e+06 266177 0 -1.8923e+06 279400 0 -1.89718e+06 292703 0 -1.90227e+06 306090 0 -1.90758e+06 319565 0 -1.9131e+06 333132 0 -1.91884e+06 346797 0 -1.92479e+06 360563 0 -1.93095e+06 374437 0 -1.93732e+06 388422 0 -1.9439e+06 402524 0 -1.95068e+06 416749 0 -1.95768e+06 431101 0 -1.96488e+06 445587 0 -1.97229e+06 460213 0 -1.97989e+06 474983 0 -1.9877e+06 489906 0 -1.99571e+06 504987 0 -2.00392e+06 520232 0 -2.01232e+06 535650 0 -2.02091e+06 551247 0 -2.02969e+06 567032 0 -2.03866e+06 583011 0 -2.04781e+06 599193 0 -2.05713e+06 615587 0 -2.06663e+06 632202 0 -2.0763e+06 649048 0 -2.08613e+06 666133 0 -2.09612e+06 683469 0 -2.10625e+06 701067 0 -2.11653e+06 718937 0 -2.12694e+06 737092 0 -2.13748e+06 755544 0 -2.14813e+06 774306 0 -2.15888e+06 793392 0 -2.16972e+06 812817 0 -2.18064e+06 832595 0 -2.19162e+06 852742 0 -2.20263e+06 873275 0 -2.21367e+06 894212 0 -2.22471e+06 915570 0 -2.23572e+06 937367 0 -2.24668e+06 959624 0 -2.25755e+06 982360 0 -2.2683e+06 1.0056e+06 0 -2.27889e+06 1.02935e+06 0 -2.28928e+06 1.05365e+06 0 -2.29941e+06 1.07851e+06 0 -2.30923e+06 1.10395e+06 0 -2.31868e+06 1.12999e+06 0 -2.32769e+06 1.15665e+06 0 -2.33617e+06 1.18394e+06 0 -2.34405e+06 1.21188e+06 0 -2.35122e+06 1.24047e+06 0 -2.35758e+06 1.26971e+06 0 -2.363e+06 1.2996e+06 0 -2.36735e+06 1.33011e+06 0 -2.37049e+06 1.36121e+06 0 -2.37226e+06 1.39286e+06 0 -2.37249e+06 1.42498e+06 0 -2.371e+06 1.45749e+06 0 -2.3676e+06 1.49027e+06 0 -2.36209e+06 1.52315e+06 0 -2.35428e+06 1.55595e+06 0 -2.34398e+06 1.58843e+06 0 -2.33101e+06 1.62031e+06 0 -2.31522e+06 1.65126e+06 0 -2.2965e+06 1.6809e+06 0 -2.27478e+06 1.70883e+06 0 -2.25004e+06 1.73458e+06 0 -2.22237e+06 1.75767e+06 0 -2.19189e+06 1.77762e+06 0 -2.15884e+06 1.79395e+06 0 -2.12354e+06 1.80621e+06 0 -2.08638e+06 1.81401e+06 0 -2.04781e+06 1.81701e+06 0 -2.00836e+06 1.81496e+06 0 -1.96854e+06 1.80772e+06 0 -1.9289e+06 1.79521e+06 0 -1.88994e+06 1.77748e+06 0 -1.85214e+06 1.75461e+06 0 -1.81593e+06 1.72677e+06 0 -1.78168e+06 1.69418e+06 0 -1.74966e+06 1.65708e+06 0 -1.7201e+06 1.6157e+06 0 -1.69318e+06 1.5703e+06 0 -1.66898e+06 1.5211e+06 0 -1.64757e+06 1.46829e+06 0 -1.62895e+06 1.41203e+06 0 -1.6131e+06 1.35243e+06 0 -1.59996e+06 1.28955e+06 0 -1.58945e+06 1.2234e+06 0 -1.58149e+06 1.1539e+06 0 -1.57595e+06 1.08095e+06 0 -1.57274e+06 1.00429e+06 0 -1.57177e+06 923689 0 -1.57294e+06 838703 0 -1.57607e+06 748696 0 -1.5818e+06 653115 0 -1.58895e+06 550971 0 -1.6006e+06 439786 0 -1.6152e+06 320826 0 -1.63769e+06 182892 0 -1.67877e+06 31090.8 0 -1.74779e+06 -162906 0 -1.99221e+06 -454035 0 -3.03767e+06 -2.27797e-06 0 -1.83844e+06 0 0 -1.83855e+06 12448.2 0 -1.83888e+06 24899.7 0 -1.83942e+06 37357.9 0 -1.84018e+06 49826 0 -1.84116e+06 62307.4 0 -1.84236e+06 74805.4 0 -1.84377e+06 87323.4 0 -1.8454e+06 99864.8 0 -1.84724e+06 112433 0 -1.84931e+06 125031 0 -1.85159e+06 137664 0 -1.85409e+06 150333 0 -1.8568e+06 163043 0 -1.85973e+06 175797 0 -1.86288e+06 188600 0 -1.86625e+06 201454 0 -1.86983e+06 214363 0 -1.87363e+06 227332 0 -1.87764e+06 240364 0 -1.88187e+06 253463 0 -1.88631e+06 266632 0 -1.89097e+06 279877 0 -1.89584e+06 293202 0 -1.90093e+06 306610 0 -1.90623e+06 320106 0 -1.91174e+06 333695 0 -1.91747e+06 347381 0 -1.9234e+06 361168 0 -1.92955e+06 375063 0 -1.93591e+06 389069 0 -1.94248e+06 403192 0 -1.94925e+06 417437 0 -1.95624e+06 431810 0 -1.96342e+06 446317 0 -1.97082e+06 460963 0 -1.97841e+06 475754 0 -1.9862e+06 490696 0 -1.9942e+06 505797 0 -2.00239e+06 521062 0 -2.01077e+06 536499 0 -2.01934e+06 552115 0 -2.0281e+06 567918 0 -2.03705e+06 583916 0 -2.04618e+06 600116 0 -2.05548e+06 616527 0 -2.06496e+06 633160 0 -2.0746e+06 650021 0 -2.08441e+06 667123 0 -2.09437e+06 684474 0 -2.10448e+06 702086 0 -2.11473e+06 719970 0 -2.12511e+06 738138 0 -2.13562e+06 756602 0 -2.14624e+06 775375 0 -2.15696e+06 794470 0 -2.16776e+06 813903 0 -2.17864e+06 833688 0 -2.18958e+06 853840 0 -2.20056e+06 874377 0 -2.21156e+06 895314 0 -2.22255e+06 916670 0 -2.23352e+06 938464 0 -2.24443e+06 960714 0 -2.25525e+06 983439 0 -2.26595e+06 1.00666e+06 0 -2.27649e+06 1.0304e+06 0 -2.28682e+06 1.05467e+06 0 -2.2969e+06 1.0795e+06 0 -2.30666e+06 1.10491e+06 0 -2.31605e+06 1.13091e+06 0 -2.32499e+06 1.15752e+06 0 -2.33341e+06 1.18476e+06 0 -2.34123e+06 1.21263e+06 0 -2.34833e+06 1.24115e+06 0 -2.35462e+06 1.2703e+06 0 -2.35998e+06 1.30009e+06 0 -2.36427e+06 1.33048e+06 0 -2.36736e+06 1.36146e+06 0 -2.36908e+06 1.39296e+06 0 -2.36927e+06 1.42492e+06 0 -2.36774e+06 1.45725e+06 0 -2.36432e+06 1.48982e+06 0 -2.35881e+06 1.52249e+06 0 -2.35102e+06 1.55505e+06 0 -2.34077e+06 1.58727e+06 0 -2.32788e+06 1.61888e+06 0 -2.3122e+06 1.64954e+06 0 -2.29363e+06 1.67889e+06 0 -2.2721e+06 1.70652e+06 0 -2.24761e+06 1.73197e+06 0 -2.22022e+06 1.75477e+06 0 -2.19008e+06 1.77446e+06 0 -2.15741e+06 1.79055e+06 0 -2.12254e+06 1.80261e+06 0 -2.08584e+06 1.81024e+06 0 -2.04777e+06 1.81312e+06 0 -2.00882e+06 1.81101e+06 0 -1.96953e+06 1.80376e+06 0 -1.9304e+06 1.7913e+06 0 -1.89196e+06 1.77366e+06 0 -1.85467e+06 1.75093e+06 0 -1.81895e+06 1.72327e+06 0 -1.78515e+06 1.69089e+06 0 -1.75357e+06 1.65402e+06 0 -1.72443e+06 1.6129e+06 0 -1.6979e+06 1.56777e+06 0 -1.67407e+06 1.51884e+06 0 -1.65301e+06 1.46631e+06 0 -1.63473e+06 1.41033e+06 0 -1.61921e+06 1.351e+06 0 -1.6064e+06 1.28839e+06 0 -1.59622e+06 1.22249e+06 0 -1.5886e+06 1.15324e+06 0 -1.58341e+06 1.08053e+06 0 -1.58059e+06 1.00411e+06 0 -1.58003e+06 923707 0 -1.58167e+06 838968 0 -1.58533e+06 749117 0 -1.59164e+06 653884 0 -1.59958e+06 551742 0 -1.61208e+06 441477 0 -1.62774e+06 322049 0 -1.65238e+06 186953 0 -1.69477e+06 34804.8 0 -1.77102e+06 -149281 0 -2.0194e+06 -410981 0 -2.8113e+06 9.68951e-07 0 -1.8372e+06 0 0 -1.83731e+06 12469.9 0 -1.83763e+06 24943.2 0 -1.83817e+06 37423.1 0 -1.83893e+06 49912.9 0 -1.83991e+06 62416 0 -1.8411e+06 74935.7 0 -1.84251e+06 87475.4 0 -1.84414e+06 100039 0 -1.84599e+06 112628 0 -1.84805e+06 125249 0 -1.85032e+06 137902 0 -1.85282e+06 150593 0 -1.85553e+06 163325 0 -1.85846e+06 176101 0 -1.8616e+06 188925 0 -1.86496e+06 201801 0 -1.86853e+06 214732 0 -1.87232e+06 227722 0 -1.87633e+06 240775 0 -1.88055e+06 253896 0 -1.88499e+06 267087 0 -1.88964e+06 280354 0 -1.8945e+06 293699 0 -1.89958e+06 307129 0 -1.90487e+06 320646 0 -1.91038e+06 334256 0 -1.91609e+06 347963 0 -1.92202e+06 361772 0 -1.92816e+06 375687 0 -1.9345e+06 389715 0 -1.94106e+06 403859 0 -1.94782e+06 418125 0 -1.95479e+06 432518 0 -1.96197e+06 447045 0 -1.96934e+06 461711 0 -1.97692e+06 476522 0 -1.9847e+06 491485 0 -1.99268e+06 506605 0 -2.00085e+06 521890 0 -2.00921e+06 537346 0 -2.01777e+06 552981 0 -2.02651e+06 568803 0 -2.03544e+06 584818 0 -2.04455e+06 601036 0 -2.05383e+06 617466 0 -2.06328e+06 634115 0 -2.0729e+06 650993 0 -2.08268e+06 668110 0 -2.09262e+06 685477 0 -2.1027e+06 703103 0 -2.11293e+06 721001 0 -2.12328e+06 739181 0 -2.13375e+06 757657 0 -2.14434e+06 776440 0 -2.15503e+06 795545 0 -2.1658e+06 814986 0 -2.17665e+06 834777 0 -2.18755e+06 854934 0 -2.19849e+06 875474 0 -2.20944e+06 896412 0 -2.2204e+06 917767 0 -2.23132e+06 939556 0 -2.24218e+06 961798 0 -2.25296e+06 984514 0 -2.26361e+06 1.00772e+06 0 -2.27409e+06 1.03144e+06 0 -2.28437e+06 1.05569e+06 0 -2.29439e+06 1.08049e+06 0 -2.30409e+06 1.10587e+06 0 -2.31342e+06 1.13183e+06 0 -2.3223e+06 1.15839e+06 0 -2.33066e+06 1.18557e+06 0 -2.33841e+06 1.21338e+06 0 -2.34545e+06 1.24182e+06 0 -2.35168e+06 1.27088e+06 0 -2.35698e+06 1.30057e+06 0 -2.36121e+06 1.33085e+06 0 -2.36424e+06 1.3617e+06 0 -2.36591e+06 1.39305e+06 0 -2.36606e+06 1.42486e+06 0 -2.3645e+06 1.45701e+06 0 -2.36107e+06 1.48938e+06 0 -2.35556e+06 1.52183e+06 0 -2.34779e+06 1.55415e+06 0 -2.33758e+06 1.58612e+06 0 -2.32477e+06 1.61745e+06 0 -2.30921e+06 1.64783e+06 0 -2.29079e+06 1.67689e+06 0 -2.26945e+06 1.70422e+06 0 -2.2452e+06 1.72938e+06 0 -2.2181e+06 1.75191e+06 0 -2.18829e+06 1.77133e+06 0 -2.15601e+06 1.78719e+06 0 -2.12156e+06 1.79904e+06 0 -2.08531e+06 1.80651e+06 0 -2.04773e+06 1.80929e+06 0 -2.00929e+06 1.80712e+06 0 -1.97051e+06 1.79986e+06 0 -1.93191e+06 1.78744e+06 0 -1.89398e+06 1.76989e+06 0 -1.85719e+06 1.74729e+06 0 -1.82195e+06 1.71981e+06 0 -1.78861e+06 1.68764e+06 0 -1.75746e+06 1.651e+06 0 -1.72874e+06 1.61013e+06 0 -1.70259e+06 1.56527e+06 0 -1.67913e+06 1.51661e+06 0 -1.65843e+06 1.46436e+06 0 -1.64049e+06 1.40865e+06 0 -1.62529e+06 1.3496e+06 0 -1.61281e+06 1.28726e+06 0 -1.60296e+06 1.22162e+06 0 -1.59568e+06 1.15262e+06 0 -1.59086e+06 1.08015e+06 0 -1.58841e+06 1.00397e+06 0 -1.58827e+06 923780 0 -1.59036e+06 839263 0 -1.59459e+06 749628 0 -1.60143e+06 654655 0 -1.61022e+06 552710 0 -1.62345e+06 443055 0 -1.64035e+06 323773 0 -1.66662e+06 190592 0 -1.71092e+06 39853.2 0 -1.79239e+06 -136843 0 -2.03923e+06 -366374 0 -2.65147e+06 3.64486e-07 0 -1.83595e+06 0 0 -1.83606e+06 12491.6 0 -1.83638e+06 24986.6 0 -1.83692e+06 37488.1 0 -1.83768e+06 49999.6 0 -1.83866e+06 62524.4 0 -1.83985e+06 75065.8 0 -1.84126e+06 87627.2 0 -1.84288e+06 100212 0 -1.84472e+06 112824 0 -1.84678e+06 125465 0 -1.84906e+06 138141 0 -1.85155e+06 150853 0 -1.85425e+06 163607 0 -1.85717e+06 176404 0 -1.86031e+06 189250 0 -1.86367e+06 202147 0 -1.86724e+06 215100 0 -1.87102e+06 228112 0 -1.87502e+06 241186 0 -1.87923e+06 254328 0 -1.88366e+06 267541 0 -1.88831e+06 280829 0 -1.89316e+06 294196 0 -1.89823e+06 307647 0 -1.90352e+06 321186 0 -1.90901e+06 334817 0 -1.91472e+06 348545 0 -1.92063e+06 362375 0 -1.92676e+06 376311 0 -1.93309e+06 390359 0 -1.93964e+06 404524 0 -1.94639e+06 418811 0 -1.95334e+06 433225 0 -1.9605e+06 447772 0 -1.96787e+06 462458 0 -1.97543e+06 477289 0 -1.9832e+06 492272 0 -1.99116e+06 507411 0 -1.99931e+06 522716 0 -2.00766e+06 538191 0 -2.0162e+06 553845 0 -2.02492e+06 569685 0 -2.03383e+06 585719 0 -2.04291e+06 601955 0 -2.05217e+06 618401 0 -2.06161e+06 635067 0 -2.0712e+06 651962 0 -2.08096e+06 669095 0 -2.09087e+06 686476 0 -2.10093e+06 704117 0 -2.11112e+06 722028 0 -2.12145e+06 740221 0 -2.13189e+06 758708 0 -2.14245e+06 777502 0 -2.1531e+06 796617 0 -2.16384e+06 816065 0 -2.17465e+06 835863 0 -2.18551e+06 856025 0 -2.19641e+06 876567 0 -2.20733e+06 897506 0 -2.21824e+06 918859 0 -2.22912e+06 940643 0 -2.23993e+06 962879 0 -2.25066e+06 985583 0 -2.26126e+06 1.00878e+06 0 -2.27169e+06 1.03248e+06 0 -2.28192e+06 1.0567e+06 0 -2.29188e+06 1.08148e+06 0 -2.30153e+06 1.10682e+06 0 -2.3108e+06 1.13274e+06 0 -2.31962e+06 1.15925e+06 0 -2.32792e+06 1.18638e+06 0 -2.3356e+06 1.21412e+06 0 -2.34258e+06 1.24248e+06 0 -2.34875e+06 1.27146e+06 0 -2.35398e+06 1.30104e+06 0 -2.35816e+06 1.33121e+06 0 -2.36114e+06 1.36193e+06 0 -2.36276e+06 1.39315e+06 0 -2.36287e+06 1.42479e+06 0 -2.36128e+06 1.45676e+06 0 -2.35783e+06 1.48894e+06 0 -2.35233e+06 1.52117e+06 0 -2.34458e+06 1.55326e+06 0 -2.33443e+06 1.58497e+06 0 -2.32169e+06 1.61604e+06 0 -2.30624e+06 1.64614e+06 0 -2.28798e+06 1.67492e+06 0 -2.26684e+06 1.70196e+06 0 -2.24282e+06 1.72683e+06 0 -2.21601e+06 1.74908e+06 0 -2.18653e+06 1.76824e+06 0 -2.15463e+06 1.78386e+06 0 -2.12059e+06 1.79552e+06 0 -2.0848e+06 1.80284e+06 0 -2.0477e+06 1.8055e+06 0 -2.00976e+06 1.80327e+06 0 -1.97149e+06 1.79601e+06 0 -1.9334e+06 1.78363e+06 0 -1.89598e+06 1.76617e+06 0 -1.85969e+06 1.74371e+06 0 -1.82492e+06 1.7164e+06 0 -1.79204e+06 1.68443e+06 0 -1.76133e+06 1.64802e+06 0 -1.73301e+06 1.60741e+06 0 -1.70726e+06 1.5628e+06 0 -1.68417e+06 1.51442e+06 0 -1.66381e+06 1.46244e+06 0 -1.64621e+06 1.40701e+06 0 -1.63135e+06 1.34823e+06 0 -1.6192e+06 1.28616e+06 0 -1.60968e+06 1.22078e+06 0 -1.60273e+06 1.15204e+06 0 -1.59827e+06 1.0798e+06 0 -1.59621e+06 1.00386e+06 0 -1.59649e+06 923902 0 -1.59904e+06 839600 0 -1.60382e+06 750210 0 -1.61119e+06 655464 0 -1.62083e+06 553812 0 -1.63475e+06 444629 0 -1.65294e+06 325806 0 -1.68058e+06 194114 0 -1.7269e+06 45644.9 0 -1.81226e+06 -124666 0 -2.05336e+06 -323276 0 -2.53567e+06 -1.60631e-06 0 -1.8347e+06 0 0 -1.83481e+06 12513.3 0 -1.83513e+06 25029.9 0 -1.83567e+06 37553.1 0 -1.83643e+06 50086.2 0 -1.8374e+06 62632.7 0 -1.83859e+06 75195.7 0 -1.84e+06 87778.7 0 -1.84162e+06 100385 0 -1.84346e+06 113018 0 -1.84551e+06 125682 0 -1.84779e+06 138379 0 -1.85027e+06 151113 0 -1.85297e+06 163888 0 -1.85589e+06 176707 0 -1.85902e+06 189574 0 -1.86237e+06 202493 0 -1.86594e+06 215467 0 -1.86972e+06 228501 0 -1.87371e+06 241597 0 -1.87792e+06 254760 0 -1.88234e+06 267994 0 -1.88697e+06 281304 0 -1.89182e+06 294692 0 -1.89688e+06 308164 0 -1.90216e+06 321724 0 -1.90764e+06 335376 0 -1.91334e+06 349125 0 -1.91924e+06 362976 0 -1.92536e+06 376934 0 -1.93168e+06 391003 0 -1.93821e+06 405188 0 -1.94495e+06 419495 0 -1.9519e+06 433930 0 -1.95904e+06 448498 0 -1.96639e+06 463204 0 -1.97394e+06 478055 0 -1.98169e+06 493057 0 -1.98963e+06 508217 0 -1.99777e+06 523540 0 -2.0061e+06 539035 0 -2.01462e+06 554707 0 -2.02333e+06 570566 0 -2.03221e+06 586618 0 -2.04128e+06 602871 0 -2.05052e+06 619335 0 -2.05993e+06 636018 0 -2.0695e+06 652928 0 -2.07923e+06 670077 0 -2.08912e+06 687474 0 -2.09915e+06 705128 0 -2.10932e+06 723053 0 -2.11961e+06 741258 0 -2.13003e+06 759757 0 -2.14055e+06 778562 0 -2.15117e+06 797685 0 -2.16188e+06 817141 0 -2.17265e+06 836945 0 -2.18348e+06 857111 0 -2.19434e+06 877656 0 -2.20522e+06 898595 0 -2.21608e+06 919946 0 -2.22692e+06 941726 0 -2.23769e+06 963954 0 -2.24837e+06 986647 0 -2.25892e+06 1.00983e+06 0 -2.2693e+06 1.03351e+06 0 -2.27947e+06 1.05771e+06 0 -2.28938e+06 1.08246e+06 0 -2.29897e+06 1.10776e+06 0 -2.30818e+06 1.13364e+06 0 -2.31694e+06 1.16011e+06 0 -2.32518e+06 1.18717e+06 0 -2.3328e+06 1.21485e+06 0 -2.33972e+06 1.24313e+06 0 -2.34582e+06 1.27203e+06 0 -2.351e+06 1.30151e+06 0 -2.35512e+06 1.33157e+06 0 -2.35805e+06 1.36216e+06 0 -2.35962e+06 1.39323e+06 0 -2.35969e+06 1.42471e+06 0 -2.35808e+06 1.45651e+06 0 -2.35462e+06 1.48849e+06 0 -2.34912e+06 1.52051e+06 0 -2.3414e+06 1.55237e+06 0 -2.33129e+06 1.58383e+06 0 -2.31864e+06 1.61464e+06 0 -2.30331e+06 1.64447e+06 0 -2.28519e+06 1.67295e+06 0 -2.26425e+06 1.69971e+06 0 -2.24047e+06 1.7243e+06 0 -2.21394e+06 1.74628e+06 0 -2.1848e+06 1.76518e+06 0 -2.15327e+06 1.78058e+06 0 -2.11965e+06 1.79205e+06 0 -2.08431e+06 1.79921e+06 0 -2.04768e+06 1.80177e+06 0 -2.01024e+06 1.79948e+06 0 -1.97247e+06 1.7922e+06 0 -1.93489e+06 1.77987e+06 0 -1.89798e+06 1.7625e+06 0 -1.86217e+06 1.74017e+06 0 -1.82788e+06 1.71304e+06 0 -1.79545e+06 1.68127e+06 0 -1.76517e+06 1.64509e+06 0 -1.73726e+06 1.60472e+06 0 -1.71189e+06 1.56038e+06 0 -1.68917e+06 1.51227e+06 0 -1.66917e+06 1.46056e+06 0 -1.65191e+06 1.40541e+06 0 -1.63738e+06 1.3469e+06 0 -1.62555e+06 1.28509e+06 0 -1.61637e+06 1.21997e+06 0 -1.60977e+06 1.15149e+06 0 -1.60567e+06 1.0795e+06 0 -1.60399e+06 1.00379e+06 0 -1.60469e+06 924068 0 -1.60769e+06 839985 0 -1.61302e+06 750852 0 -1.62094e+06 656329 0 -1.63139e+06 555014 0 -1.64601e+06 446251 0 -1.66543e+06 328047 0 -1.69435e+06 197671 0 -1.74257e+06 51858.1 0 -1.83079e+06 -112369 0 -2.06317e+06 -283171 0 -2.4496e+06 1.05824e-06 0 -1.83345e+06 0 0 -1.83355e+06 12534.9 0 -1.83388e+06 25073.1 0 -1.83442e+06 37617.9 0 -1.83517e+06 50172.7 0 -1.83615e+06 62740.7 0 -1.83733e+06 75325.4 0 -1.83874e+06 87930.1 0 -1.84036e+06 100558 0 -1.84219e+06 113213 0 -1.84425e+06 125898 0 -1.84651e+06 138616 0 -1.84899e+06 151372 0 -1.85169e+06 164169 0 -1.85461e+06 177009 0 -1.85773e+06 189898 0 -1.86108e+06 202838 0 -1.86464e+06 215834 0 -1.86841e+06 228889 0 -1.87239e+06 242007 0 -1.8766e+06 255191 0 -1.88101e+06 268447 0 -1.88564e+06 281777 0 -1.89048e+06 295187 0 -1.89553e+06 308680 0 -1.90079e+06 322261 0 -1.90627e+06 335935 0 -1.91196e+06 349705 0 -1.91785e+06 363577 0 -1.92396e+06 377555 0 -1.93027e+06 391645 0 -1.93679e+06 405851 0 -1.94351e+06 420179 0 -1.95044e+06 434634 0 -1.95758e+06 449222 0 -1.96491e+06 463948 0 -1.97245e+06 478819 0 -1.98018e+06 493841 0 -1.98811e+06 509020 0 -1.99623e+06 524363 0 -2.00454e+06 539876 0 -2.01304e+06 555568 0 -2.02173e+06 571444 0 -2.0306e+06 587514 0 -2.03964e+06 603786 0 -2.04886e+06 620266 0 -2.05825e+06 636966 0 -2.0678e+06 653893 0 -2.07751e+06 671057 0 -2.08736e+06 688468 0 -2.09737e+06 706137 0 -2.10751e+06 724075 0 -2.11778e+06 742293 0 -2.12816e+06 760803 0 -2.13865e+06 779617 0 -2.14924e+06 798750 0 -2.15991e+06 818214 0 -2.17065e+06 838024 0 -2.18144e+06 858194 0 -2.19227e+06 878741 0 -2.2031e+06 899681 0 -2.21393e+06 921030 0 -2.22472e+06 942805 0 -2.23544e+06 965025 0 -2.24607e+06 987707 0 -2.25658e+06 1.01087e+06 0 -2.26691e+06 1.03453e+06 0 -2.27702e+06 1.05871e+06 0 -2.28688e+06 1.08343e+06 0 -2.29641e+06 1.1087e+06 0 -2.30556e+06 1.13454e+06 0 -2.31427e+06 1.16095e+06 0 -2.32244e+06 1.18796e+06 0 -2.33001e+06 1.21557e+06 0 -2.33686e+06 1.24378e+06 0 -2.34291e+06 1.27259e+06 0 -2.34803e+06 1.30198e+06 0 -2.35209e+06 1.33192e+06 0 -2.35497e+06 1.36239e+06 0 -2.3565e+06 1.39332e+06 0 -2.35654e+06 1.42464e+06 0 -2.3549e+06 1.45626e+06 0 -2.35143e+06 1.48805e+06 0 -2.34593e+06 1.51985e+06 0 -2.33824e+06 1.55148e+06 0 -2.32819e+06 1.5827e+06 0 -2.31562e+06 1.61325e+06 0 -2.3004e+06 1.6428e+06 0 -2.28244e+06 1.67101e+06 0 -2.26169e+06 1.69748e+06 0 -2.23815e+06 1.72179e+06 0 -2.2119e+06 1.7435e+06 0 -2.18309e+06 1.76216e+06 0 -2.15193e+06 1.77734e+06 0 -2.11872e+06 1.78861e+06 0 -2.08382e+06 1.79563e+06 0 -2.04767e+06 1.79808e+06 0 -2.01071e+06 1.79574e+06 0 -1.97345e+06 1.78845e+06 0 -1.93638e+06 1.77617e+06 0 -1.89996e+06 1.75888e+06 0 -1.86464e+06 1.73669e+06 0 -1.83082e+06 1.70972e+06 0 -1.79884e+06 1.67815e+06 0 -1.76899e+06 1.6422e+06 0 -1.74149e+06 1.60207e+06 0 -1.71651e+06 1.55799e+06 0 -1.69415e+06 1.51015e+06 0 -1.6745e+06 1.45872e+06 0 -1.65758e+06 1.40383e+06 0 -1.64338e+06 1.3456e+06 0 -1.63189e+06 1.28406e+06 0 -1.62304e+06 1.2192e+06 0 -1.61678e+06 1.15097e+06 0 -1.61304e+06 1.07923e+06 0 -1.61174e+06 1.00376e+06 0 -1.61286e+06 924279 0 -1.61632e+06 840418 0 -1.6222e+06 751549 0 -1.63067e+06 657258 0 -1.6419e+06 556299 0 -1.65724e+06 447949 0 -1.67783e+06 330440 0 -1.70796e+06 201333 0 -1.75786e+06 58320.2 0 -1.8481e+06 -99865.7 0 -2.06977e+06 -246643 0 -2.38407e+06 2.93345e-07 0 -1.83219e+06 0 0 -1.8323e+06 12556.5 0 -1.83262e+06 25116.3 0 -1.83316e+06 37682.7 0 -1.83392e+06 50259 0 -1.83489e+06 62848.7 0 -1.83607e+06 75454.9 0 -1.83748e+06 88081.1 0 -1.83909e+06 100731 0 -1.84093e+06 113407 0 -1.84297e+06 126114 0 -1.84524e+06 138854 0 -1.84772e+06 151631 0 -1.85041e+06 164449 0 -1.85332e+06 177311 0 -1.85644e+06 190222 0 -1.85978e+06 203183 0 -1.86333e+06 216200 0 -1.8671e+06 229276 0 -1.87108e+06 242416 0 -1.87527e+06 255622 0 -1.87968e+06 268898 0 -1.8843e+06 282250 0 -1.88913e+06 295681 0 -1.89418e+06 309196 0 -1.89943e+06 322798 0 -1.9049e+06 336492 0 -1.91057e+06 350284 0 -1.91646e+06 364176 0 -1.92255e+06 378175 0 -1.92885e+06 392286 0 -1.93536e+06 406513 0 -1.94207e+06 420861 0 -1.94899e+06 435336 0 -1.95611e+06 449944 0 -1.96343e+06 464691 0 -1.97095e+06 479582 0 -1.97867e+06 494623 0 -1.98658e+06 509822 0 -1.99469e+06 525184 0 -2.00298e+06 540716 0 -2.01146e+06 556426 0 -2.02013e+06 572321 0 -2.02898e+06 588409 0 -2.038e+06 604698 0 -2.0472e+06 621196 0 -2.05657e+06 637911 0 -2.06609e+06 654854 0 -2.07578e+06 672034 0 -2.08561e+06 689460 0 -2.09559e+06 707143 0 -2.1057e+06 725094 0 -2.11594e+06 743324 0 -2.1263e+06 761845 0 -2.13676e+06 780670 0 -2.14731e+06 799811 0 -2.15795e+06 819283 0 -2.16865e+06 839099 0 -2.17941e+06 859273 0 -2.19019e+06 879823 0 -2.20099e+06 900762 0 -2.21177e+06 922109 0 -2.22252e+06 943879 0 -2.2332e+06 966091 0 -2.24378e+06 988762 0 -2.25424e+06 1.01191e+06 0 -2.26452e+06 1.03555e+06 0 -2.27458e+06 1.05971e+06 0 -2.28438e+06 1.0844e+06 0 -2.29386e+06 1.10963e+06 0 -2.30295e+06 1.13543e+06 0 -2.3116e+06 1.1618e+06 0 -2.31971e+06 1.18875e+06 0 -2.32722e+06 1.21629e+06 0 -2.33402e+06 1.24443e+06 0 -2.34e+06 1.27315e+06 0 -2.34507e+06 1.30244e+06 0 -2.34908e+06 1.33227e+06 0 -2.3519e+06 1.36261e+06 0 -2.35339e+06 1.3934e+06 0 -2.35339e+06 1.42456e+06 0 -2.35174e+06 1.456e+06 0 -2.34825e+06 1.4876e+06 0 -2.34277e+06 1.51919e+06 0 -2.33511e+06 1.5506e+06 0 -2.32511e+06 1.58158e+06 0 -2.31262e+06 1.61186e+06 0 -2.29752e+06 1.64115e+06 0 -2.27971e+06 1.66908e+06 0 -2.25915e+06 1.69528e+06 0 -2.23586e+06 1.71932e+06 0 -2.20989e+06 1.74076e+06 0 -2.1814e+06 1.75918e+06 0 -2.15061e+06 1.77413e+06 0 -2.11781e+06 1.78522e+06 0 -2.08335e+06 1.79209e+06 0 -2.04766e+06 1.79444e+06 0 -2.0112e+06 1.79204e+06 0 -1.97443e+06 1.78475e+06 0 -1.93785e+06 1.77251e+06 0 -1.90193e+06 1.75531e+06 0 -1.86709e+06 1.73325e+06 0 -1.83374e+06 1.70645e+06 0 -1.80221e+06 1.67508e+06 0 -1.77279e+06 1.63935e+06 0 -1.74569e+06 1.59947e+06 0 -1.72109e+06 1.55564e+06 0 -1.69911e+06 1.50806e+06 0 -1.67981e+06 1.4569e+06 0 -1.66322e+06 1.4023e+06 0 -1.64936e+06 1.34433e+06 0 -1.63819e+06 1.28306e+06 0 -1.62968e+06 1.21847e+06 0 -1.62376e+06 1.15049e+06 0 -1.62038e+06 1.079e+06 0 -1.61947e+06 1.00377e+06 0 -1.62101e+06 924533 0 -1.62493e+06 840903 0 -1.63134e+06 752300 0 -1.64038e+06 658253 0 -1.65236e+06 557659 0 -1.66844e+06 449734 0 -1.6901e+06 332955 0 -1.7214e+06 205127 0 -1.77274e+06 64936.6 0 -1.86426e+06 -87204.3 0 -2.07406e+06 -213784 0 -2.33309e+06 -1.41629e-06 0 -1.83094e+06 0 0 -1.83104e+06 12578 0 -1.83137e+06 25159.4 0 -1.8319e+06 37747.4 0 -1.83266e+06 50345.3 0 -1.83363e+06 62956.4 0 -1.83481e+06 75584.2 0 -1.83621e+06 88232 0 -1.83783e+06 100903 0 -1.83966e+06 113601 0 -1.8417e+06 126329 0 -1.84396e+06 139091 0 -1.84644e+06 151889 0 -1.84912e+06 164729 0 -1.85203e+06 177613 0 -1.85515e+06 190544 0 -1.85848e+06 203527 0 -1.86203e+06 216566 0 -1.86579e+06 229663 0 -1.86976e+06 242824 0 -1.87395e+06 256051 0 -1.87835e+06 269349 0 -1.88296e+06 282723 0 -1.88778e+06 296175 0 -1.89282e+06 309710 0 -1.89806e+06 323334 0 -1.90352e+06 337049 0 -1.90919e+06 350861 0 -1.91506e+06 364775 0 -1.92115e+06 378795 0 -1.92744e+06 392926 0 -1.93393e+06 407173 0 -1.94063e+06 421542 0 -1.94754e+06 436038 0 -1.95464e+06 450666 0 -1.96195e+06 465432 0 -1.96945e+06 480343 0 -1.97716e+06 495404 0 -1.98505e+06 510622 0 -1.99314e+06 526003 0 -2.00142e+06 541554 0 -2.00988e+06 557283 0 -2.01853e+06 573196 0 -2.02736e+06 589302 0 -2.03636e+06 605608 0 -2.04554e+06 622123 0 -2.05488e+06 638855 0 -2.06439e+06 655814 0 -2.07405e+06 673009 0 -2.08385e+06 690449 0 -2.09381e+06 708146 0 -2.10389e+06 726110 0 -2.1141e+06 744353 0 -2.12443e+06 762885 0 -2.13486e+06 781720 0 -2.14538e+06 800870 0 -2.15599e+06 820348 0 -2.16665e+06 840170 0 -2.17737e+06 860349 0 -2.18812e+06 880900 0 -2.19887e+06 901840 0 -2.20962e+06 923184 0 -2.22032e+06 944949 0 -2.23096e+06 967152 0 -2.24149e+06 989812 0 -2.2519e+06 1.01294e+06 0 -2.26213e+06 1.03657e+06 0 -2.27214e+06 1.0607e+06 0 -2.28188e+06 1.08536e+06 0 -2.29131e+06 1.11056e+06 0 -2.30035e+06 1.13631e+06 0 -2.30893e+06 1.16263e+06 0 -2.31699e+06 1.18953e+06 0 -2.32444e+06 1.21701e+06 0 -2.33118e+06 1.24507e+06 0 -2.33711e+06 1.2737e+06 0 -2.34212e+06 1.30289e+06 0 -2.34608e+06 1.33261e+06 0 -2.34885e+06 1.36282e+06 0 -2.3503e+06 1.39347e+06 0 -2.35027e+06 1.42448e+06 0 -2.34859e+06 1.45575e+06 0 -2.3451e+06 1.48715e+06 0 -2.33963e+06 1.51854e+06 0 -2.332e+06 1.54972e+06 0 -2.32205e+06 1.58046e+06 0 -2.30965e+06 1.61049e+06 0 -2.29466e+06 1.63951e+06 0 -2.27701e+06 1.66718e+06 0 -2.25665e+06 1.6931e+06 0 -2.23359e+06 1.71686e+06 0 -2.2079e+06 1.73805e+06 0 -2.17974e+06 1.75623e+06 0 -2.14931e+06 1.77097e+06 0 -2.11691e+06 1.78187e+06 0 -2.08289e+06 1.7886e+06 0 -2.04767e+06 1.79085e+06 0 -2.01168e+06 1.7884e+06 0 -1.97541e+06 1.7811e+06 0 -1.93932e+06 1.7689e+06 0 -1.90389e+06 1.75179e+06 0 -1.86953e+06 1.72986e+06 0 -1.83664e+06 1.70322e+06 0 -1.80556e+06 1.67205e+06 0 -1.77656e+06 1.63654e+06 0 -1.74987e+06 1.5969e+06 0 -1.72565e+06 1.55333e+06 0 -1.70403e+06 1.50602e+06 0 -1.68508e+06 1.45513e+06 0 -1.66884e+06 1.40079e+06 0 -1.65531e+06 1.3431e+06 0 -1.64447e+06 1.28209e+06 0 -1.63629e+06 1.21776e+06 0 -1.63072e+06 1.15004e+06 0 -1.6277e+06 1.0788e+06 0 -1.62718e+06 1.00383e+06 0 -1.62914e+06 924830 0 -1.63352e+06 841438 0 -1.64045e+06 753103 0 -1.65007e+06 659316 0 -1.66276e+06 559091 0 -1.67959e+06 451609 0 -1.70227e+06 335578 0 -1.73468e+06 209054 0 -1.78722e+06 71653.5 0 -1.87936e+06 -74491.3 0 -2.07672e+06 -184433 0 -2.29272e+06 2.40833e-06 0 -1.82968e+06 0 0 -1.82978e+06 12599.6 0 -1.83011e+06 25202.4 0 -1.83064e+06 37811.9 0 -1.8314e+06 50431.3 0 -1.83236e+06 63064 0 -1.83355e+06 75713.3 0 -1.83494e+06 88382.6 0 -1.83656e+06 101075 0 -1.83838e+06 113795 0 -1.84043e+06 126544 0 -1.84268e+06 139327 0 -1.84515e+06 152147 0 -1.84784e+06 165008 0 -1.85074e+06 177914 0 -1.85385e+06 190867 0 -1.85718e+06 203871 0 -1.86072e+06 216931 0 -1.86447e+06 230050 0 -1.86844e+06 243232 0 -1.87262e+06 256480 0 -1.87701e+06 269800 0 -1.88162e+06 283194 0 -1.88643e+06 296667 0 -1.89146e+06 310224 0 -1.8967e+06 323868 0 -1.90214e+06 337605 0 -1.9078e+06 351438 0 -1.91366e+06 365372 0 -1.91974e+06 379413 0 -1.92602e+06 393564 0 -1.9325e+06 407832 0 -1.93919e+06 422221 0 -1.94608e+06 436737 0 -1.95317e+06 451386 0 -1.96046e+06 466172 0 -1.96795e+06 481103 0 -1.97564e+06 496183 0 -1.98352e+06 511420 0 -1.99159e+06 526820 0 -1.99985e+06 542390 0 -2.0083e+06 558138 0 -2.01693e+06 574069 0 -2.02574e+06 590192 0 -2.03472e+06 606516 0 -2.04388e+06 623048 0 -2.0532e+06 639796 0 -2.06268e+06 656771 0 -2.07231e+06 673981 0 -2.0821e+06 691436 0 -2.09202e+06 709147 0 -2.10208e+06 727124 0 -2.11226e+06 745378 0 -2.12256e+06 763921 0 -2.13296e+06 782766 0 -2.14345e+06 801925 0 -2.15402e+06 821411 0 -2.16465e+06 841238 0 -2.17533e+06 861420 0 -2.18604e+06 881974 0 -2.19676e+06 902913 0 -2.20746e+06 924254 0 -2.21812e+06 946014 0 -2.22871e+06 968209 0 -2.2392e+06 990857 0 -2.24956e+06 1.01397e+06 0 -2.25974e+06 1.03758e+06 0 -2.2697e+06 1.06169e+06 0 -2.27939e+06 1.08632e+06 0 -2.28876e+06 1.11148e+06 0 -2.29774e+06 1.13719e+06 0 -2.30627e+06 1.16346e+06 0 -2.31428e+06 1.1903e+06 0 -2.32166e+06 1.21772e+06 0 -2.32835e+06 1.2457e+06 0 -2.33422e+06 1.27424e+06 0 -2.33917e+06 1.30334e+06 0 -2.34308e+06 1.33295e+06 0 -2.34582e+06 1.36303e+06 0 -2.34723e+06 1.39354e+06 0 -2.34716e+06 1.42439e+06 0 -2.34547e+06 1.45549e+06 0 -2.34197e+06 1.48671e+06 0 -2.33651e+06 1.51789e+06 0 -2.32891e+06 1.54884e+06 0 -2.31902e+06 1.57935e+06 0 -2.3067e+06 1.60913e+06 0 -2.29184e+06 1.63789e+06 0 -2.27434e+06 1.66528e+06 0 -2.25417e+06 1.69093e+06 0 -2.23135e+06 1.71444e+06 0 -2.20594e+06 1.73537e+06 0 -2.1781e+06 1.75331e+06 0 -2.14803e+06 1.76784e+06 0 -2.11603e+06 1.77857e+06 0 -2