<?xml version="1.0"?> 
<VTKFile type="StructuredGrid" version="0.1"> 
<StructuredGrid WholeExtent="0 127 0 127 0 0"> 
<Piece Extent="0 127 0 127 0 0"> 
<PointData>
<DataArray type="Float32" Name="u" format="ascii" NumberOfComponents="3"> 
-3.75254e+06 1.01041e+06 0 -3.75795e+06 1.00528e+06 0 -3.76339e+06 1.00013e+06 0 -3.76885e+06 994940 0 -3.77435e+06 989718 0 -3.77986e+06 984463 0 -3.78541e+06 979174 0 -3.79099e+06 973852 0 -3.79659e+06 968495 0 -3.80222e+06 963105 0 -3.80788e+06 957679 0 -3.81357e+06 952219 0 -3.81928e+06 946724 0 -3.82503e+06 941194 0 -3.8308e+06 935628 0 -3.83661e+06 930026 0 -3.84244e+06 924388 0 -3.8483e+06 918715 0 -3.8542e+06 913004 0 -3.86012e+06 907257 0 -3.86608e+06 901473 0 -3.87206e+06 895652 0 -3.87808e+06 889794 0 -3.88413e+06 883897 0 -3.89021e+06 877963 0 -3.89632e+06 871990 0 -3.90247e+06 865979 0 -3.90864e+06 859929 0 -3.91485e+06 853840 0 -3.92109e+06 847712 0 -3.92737e+06 841544 0 -3.93368e+06 835336 0 -3.94002e+06 829088 0 -3.9464e+06 822800 0 -3.95281e+06 816470 0 -3.95925e+06 810100 0 -3.96573e+06 803689 0 -3.97224e+06 797236 0 -3.97879e+06 790741 0 -3.98538e+06 784204 0 -3.992e+06 777624 0 -3.99865e+06 771002 0 -4.00535e+06 764336 0 -4.01207e+06 757627 0 -4.01884e+06 750875 0 -4.02564e+06 744078 0 -4.03248e+06 737237 0 -4.03936e+06 730351 0 -4.04628e+06 723421 0 -4.05323e+06 716445 0 -4.06023e+06 709423 0 -4.06726e+06 702356 0 -4.07433e+06 695242 0 -4.08144e+06 688081 0 -4.08859e+06 680874 0 -4.09579e+06 673619 0 -4.10302e+06 666317 0 -4.11029e+06 658966 0 -4.1176e+06 651568 0 -4.12496e+06 644120 0 -4.13236e+06 636623 0 -4.1398e+06 629077 0 -4.14728e+06 621481 0 -4.1548e+06 613835 0 -4.16237e+06 606139 0 -4.16998e+06 598391 0 -4.17764e+06 590592 0 -4.18534e+06 582741 0 -4.19308e+06 574839 0 -4.20087e+06 566884 0 -4.20871e+06 558875 0 -4.21659e+06 550814 0 -4.22452e+06 542699 0 -4.23249e+06 534530 0 -4.24051e+06 526306 0 -4.24858e+06 518028 0 -4.25669e+06 509694 0 -4.26486e+06 501304 0 -4.27307e+06 492858 0 -4.28133e+06 484356 0 -4.28964e+06 475796 0 -4.298e+06 467179 0 -4.30641e+06 458504 0 -4.31486e+06 449771 0 -4.32338e+06 440979 0 -4.33194e+06 432127 0 -4.34055e+06 423216 0 -4.34922e+06 414244 0 -4.35794e+06 405212 0 -4.36671e+06 396119 0 -4.37553e+06 386964 0 -4.38441e+06 377746 0 -4.39335e+06 368467 0 -4.40233e+06 359124 0 -4.41138e+06 349717 0 -4.42048e+06 340246 0 -4.42963e+06 330711 0 -4.43885e+06 321110 0 -4.44812e+06 311444 0 -4.45744e+06 301711 0 -4.46683e+06 291912 0 -4.47628e+06 282046 0 -4.48578e+06 272111 0 -4.49534e+06 262109 0 -4.50497e+06 252037 0 -4.51465e+06 241896 0 -4.5244e+06 231685 0 -4.53421e+06 221403 0 -4.54408e+06 211050 0 -4.55401e+06 200625 0 -4.56401e+06 190128 0 -4.57407e+06 179557 0 -4.5842e+06 168914 0 -4.59439e+06 158196 0 -4.60465e+06 147403 0 -4.61497e+06 136535 0 -4.62536e+06 125591 0 -4.63582e+06 114570 0 -4.64635e+06 103472 0 -4.65695e+06 92295.5 0 -4.66761e+06 81040.7 0 -4.67835e+06 69706.7 0 -4.68915e+06 58292.8 0 -4.70003e+06 46798.2 0 -4.71098e+06 35222.3 0 -4.722e+06 23564.4 0 -4.7331e+06 11823.9 0 -4.74427e+06 1.23978e-05 0 -3.77303e+06 1.03256e+06 0 -3.77857e+06 1.0276e+06 0 -3.78415e+06 1.02261e+06 0 -3.78975e+06 1.01758e+06 0 -3.79537e+06 1.01252e+06 0 -3.80103e+06 1.00743e+06 0 -3.80672e+06 1.00231e+06 0 -3.81243e+06 997155 0 -3.81818e+06 991966 0 -3.82395e+06 986745 0 -3.82976e+06 981490 0 -3.83559e+06 976201 0 -3.84146e+06 970878 0 -3.84735e+06 965521 0 -3.85328e+06 960130 0 -3.85924e+06 954704 0 -3.86523e+06 949244 0 -3.87125e+06 943748 0 -3.8773e+06 938217 0 -3.88339e+06 932650 0 -3.8895e+06 927048 0 -3.89565e+06 921410 0 -3.90183e+06 915735 0 -3.90805e+06 910023 0 -3.9143e+06 904275 0 -3.92058e+06 898490 0 -3.9269e+06 892667 0 -3.93325e+06 886807 0 -3.93963e+06 880909 0 -3.94605e+06 874973 0 -3.9525e+06 868998 0 -3.95899e+06 862985 0 -3.96552e+06 856933 0 -3.97208e+06 850842 0 -3.97867e+06 844711 0 -3.9853e+06 838541 0 -3.99197e+06 832330 0 -3.99868e+06 826079 0 -4.00542e+06 819788 0 -4.0122e+06 813455 0 -4.01902e+06 807082 0 -4.02588e+06 800667 0 -4.03277e+06 794210 0 -4.03971e+06 787711 0 -4.04668e+06 781170 0 -4.05369e+06 774586 0 -4.06074e+06 767959 0 -4.06784e+06 761289 0 -4.07497e+06 754575 0 -4.08214e+06 747817 0 -4.08935e+06 741015 0 -4.09661e+06 734169 0 -4.1039e+06 727277 0 -4.11124e+06 720341 0 -4.11862e+06 713359 0 -4.12605e+06 706330 0 -4.13351e+06 699256 0 -4.14102e+06 692135 0 -4.14857e+06 684967 0 -4.15617e+06 677752 0 -4.16381e+06 670490 0 -4.1715e+06 663179 0 -4.17923e+06 655820 0 -4.18701e+06 648413 0 -4.19483e+06 640956 0 -4.2027e+06 633450 0 -4.21061e+06 625894 0 -4.21858e+06 618288 0 -4.22659e+06 610632 0 -4.23464e+06 602924 0 -4.24275e+06 595166 0 -4.2509e+06 587355 0 -4.25911e+06 579493 0 -4.26736e+06 571578 0 -4.27566e+06 563610 0 -4.28402e+06 555589 0 -4.29242e+06 547515 0 -4.30088e+06 539386 0 -4.30938e+06 531203 0 -4.31794e+06 522964 0 -4.32655e+06 514671 0 -4.33522e+06 506322 0 -4.34393e+06 497916 0 -4.35271e+06 489454 0 -4.36153e+06 480935 0 -4.37041e+06 472358 0 -4.37935e+06 463723 0 -4.38834e+06 455030 0 -4.39738e+06 446278 0 -4.40649e+06 437467 0 -4.41565e+06 428595 0 -4.42487e+06 419664 0 -4.43414e+06 410672 0 -4.44348e+06 401618 0 -4.45287e+06 392503 0 -4.46233e+06 383325 0 -4.47184e+06 374085 0 -4.48142e+06 364782 0 -4.49105e+06 355414 0 -4.50075e+06 345983 0 -4.51051e+06 336487 0 -4.52033e+06 326925 0 -4.53022e+06 317298 0 -4.54017e+06 307605 0 -4.55019e+06 297844 0 -4.56027e+06 288016 0 -4.57041e+06 278120 0 -4.58063e+06 268156 0 -4.59091e+06 258123 0 -4.60125e+06 248020 0 -4.61167e+06 237846 0 -4.62215e+06 227602 0 -4.63271e+06 217287 0 -4.64333e+06 206899 0 -4.65403e+06 196439 0 -4.66479e+06 185906 0 -4.67563e+06 175299 0 -4.68654e+06 164618 0 -4.69752e+06 153861 0 -4.70858e+06 143029 0 -4.71971e+06 132121 0 -4.73092e+06 121136 0 -4.74221e+06 110073 0 -4.75357e+06 98932.4 0 -4.765e+06 87712.7 0 -4.77652e+06 76413.4 0 -4.78812e+06 65033.9 0 -4.79979e+06 53573.5 0 -3.79307e+06 1.05524e+06 0 -3.79874e+06 1.05044e+06 0 -3.80445e+06 1.04561e+06 0 -3.81018e+06 1.04075e+06 0 -3.81594e+06 1.03586e+06 0 -3.82174e+06 1.03093e+06 0 -3.82756e+06 1.02598e+06 0 -3.83341e+06 1.02099e+06 0 -3.8393e+06 1.01598e+06 0 -3.84522e+06 1.01093e+06 0 -3.85116e+06 1.00584e+06 0 -3.85714e+06 1.00073e+06 0 -3.86316e+06 995581 0 -3.8692e+06 990401 0 -3.87528e+06 985187 0 -3.88138e+06 979940 0 -3.88753e+06 974659 0 -3.8937e+06 969344 0 -3.89991e+06 963995 0 -3.90615e+06 958611 0 -3.91243e+06 953193 0 -3.91873e+06 947740 0 -3.92508e+06 942252 0 -3.93146e+06 936729 0 -3.93787e+06 931170 0 -3.94432e+06 925575 0 -3.95081e+06 919945 0 -3.95733e+06 914278 0 -3.96388e+06 908574 0 -3.97048e+06 902833 0 -3.97711e+06 897056 0 -3.98377e+06 891240 0 -3.99048e+06 885388 0 -3.99722e+06 879497 0 -4.004e+06 873569 0 -4.01082e+06 867601 0 -4.01767e+06 861596 0 -4.02457e+06 855551 0 -4.0315e+06 849467 0 -4.03848e+06 843343 0 -4.04549e+06 837180 0 -4.05254e+06 830976 0 -4.05964e+06 824733 0 -4.06677e+06 818448 0 -4.07395e+06 812123 0 -4.08117e+06 805756 0 -4.08843e+06 799347 0 -4.09573e+06 792897 0 -4.10307e+06 786405 0 -4.11046e+06 779870 0 -4.11789e+06 773293 0 -4.12536e+06 766672 0 -4.13288e+06 760008 0 -4.14044e+06 753300 0 -4.14805e+06 746549 0 -4.1557e+06 739752 0 -4.1634e+06 732912 0 -4.17114e+06 726026 0 -4.17893e+06 719095 0 -4.18676e+06 712118 0 -4.19465e+06 705095 0 -4.20258e+06 698026 0 -4.21055e+06 690910 0 -4.21858e+06 683747 0 -4.22665e+06 676537 0 -4.23477e+06 669279 0 -4.24295e+06 661972 0 -4.25117e+06 654618 0 -4.25944e+06 647214 0 -4.26776e+06 639761 0 -4.27614e+06 632259 0 -4.28456e+06 624707 0 -4.29304e+06 617104 0 -4.30157e+06 609451 0 -4.31015e+06 601747 0 -4.31879e+06 593991 0 -4.32748e+06 586183 0 -4.33622e+06 578323 0 -4.34502e+06 570410 0 -4.35387e+06 562444 0 -4.36278e+06 554425 0 -4.37175e+06 546352 0 -4.38077e+06 538224 0 -4.38985e+06 530042 0 -4.39898e+06 521805 0 -4.40818e+06 513512 0 -4.41743e+06 505163 0 -4.42674e+06 496757 0 -4.43611e+06 488295 0 -4.44555e+06 479775 0 -4.45504e+06 471197 0 -4.46459e+06 462561 0 -4.47421e+06 453867 0 -4.48389e+06 445113 0 -4.49363e+06 436300 0 -4.50344e+06 427426 0 -4.5133e+06 418492 0 -4.52324e+06 409497 0 -4.53324e+06 400440 0 -4.5433e+06 391321 0 -4.55343e+06 382140 0 -4.56363e+06 372895 0 -4.5739e+06 363587 0 -4.58423e+06 354215 0 -4.59463e+06 344778 0 -4.60511e+06 335276 0 -4.61565e+06 325709 0 -4.62626e+06 316075 0 -4.63695e+06 306375 0 -4.6477e+06 296607 0 -4.65853e+06 286771 0 -4.66944e+06 276867 0 -4.68042e+06 266894 0 -4.69147e+06 256852 0 -4.7026e+06 246740 0 -4.7138e+06 236556 0 -4.72508e+06 226302 0 -4.73644e+06 215976 0 -4.74788e+06 205577 0 -4.75939e+06 195106 0 -4.77099e+06 184560 0 -4.78267e+06 173941 0 -4.79442e+06 163246 0 -4.80626e+06 152476 0 -4.81819e+06 141630 0 -4.83019e+06 130707 0 -4.84229e+06 119707 0 -4.85446e+06 108629 0 -3.81264e+06 1.07842e+06 0 -3.81844e+06 1.07379e+06 0 -3.82428e+06 1.06912e+06 0 -3.83014e+06 1.06443e+06 0 -3.83604e+06 1.05971e+06 0 -3.84196e+06 1.05495e+06 0 -3.84792e+06 1.05017e+06 0 -3.85391e+06 1.04536e+06 0 -3.85994e+06 1.04051e+06 0 -3.86599e+06 1.03563e+06 0 -3.87208e+06 1.03073e+06 0 -3.8782e+06 1.02579e+06 0 -3.88436e+06 1.02082e+06 0 -3.89055e+06 1.01582e+06 0 -3.89677e+06 1.01078e+06 0 -3.90303e+06 1.00572e+06 0 -3.90932e+06 1.00062e+06 0 -3.91564e+06 995487 0 -3.922e+06 990323 0 -3.9284e+06 985125 0 -3.93483e+06 979894 0 -3.9413e+06 974630 0 -3.9478e+06 969332 0 -3.95434e+06 964000 0 -3.96092e+06 958633 0 -3.96753e+06 953232 0 -3.97418e+06 947796 0 -3.98087e+06 942325 0 -3.9876e+06 936819 0 -3.99436e+06 931277 0 -4.00117e+06 925700 0 -4.00801e+06 920086 0 -4.01489e+06 914437 0 -4.02181e+06 908750 0 -4.02877e+06 903027 0 -4.03577e+06 897267 0 -4.04281e+06 891470 0 -4.04989e+06 885635 0 -4.05702e+06 879763 0 -4.06418e+06 873852 0 -4.07139e+06 867903 0 -4.07863e+06 861915 0 -4.08592e+06 855888 0 -4.09326e+06 849822 0 -4.10063e+06 843717 0 -4.10805e+06 837572 0 -4.11552e+06 831387 0 -4.12303e+06 825161 0 -4.13058e+06 818895 0 -4.13818e+06 812588 0 -4.14582e+06 806240 0 -4.15351e+06 799850 0 -4.16125e+06 793418 0 -4.16903e+06 786945 0 -4.17686e+06 780429 0 -4.18473e+06 773870 0 -4.19266e+06 767268 0 -4.20063e+06 760623 0 -4.20865e+06 753934 0 -4.21672e+06 747201 0 -4.22484e+06 740424 0 -4.23301e+06 733602 0 -4.24123e+06 726735 0 -4.2495e+06 719823 0 -4.25782e+06 712865 0 -4.26619e+06 705861 0 -4.27462e+06 698811 0 -4.2831e+06 691714 0 -4.29163e+06 684570 0 -4.30021e+06 677379 0 -4.30885e+06 670140 0 -4.31754e+06 662853 0 -4.32629e+06 655517 0 -4.33509e+06 648133 0 -4.34395e+06 640699 0 -4.35286e+06 633216 0 -4.36184e+06 625683 0 -4.37086e+06 618099 0 -4.37995e+06 610465 0 -4.38909e+06 602780 0 -4.3983e+06 595043 0 -4.40756e+06 587254 0 -4.41688e+06 579414 0 -4.42627e+06 571520 0 -4.43571e+06 563573 0 -4.44522e+06 555573 0 -4.45478e+06 547519 0 -4.46441e+06 539410 0 -4.47411e+06 531247 0 -4.48386e+06 523029 0 -4.49369e+06 514755 0 -4.50357e+06 506424 0 -4.51352e+06 498038 0 -4.52354e+06 489594 0 -4.53363e+06 481093 0 -4.54378e+06 472534 0 -4.554e+06 463917 0 -4.56429e+06 455242 0 -4.57465e+06 446506 0 -4.58507e+06 437712 0 -4.59557e+06 428857 0 -4.60614e+06 419941 0 -4.61678e+06 410964 0 -4.62749e+06 401926 0 -4.63828e+06 392826 0 -4.64914e+06 383663 0 -4.66008e+06 374436 0 -4.67109e+06 365147 0 -4.68217e+06 355793 0 -4.69334e+06 346374 0 -4.70458e+06 336890 0 -4.7159e+06 327341 0 -4.72729e+06 317725 0 -4.73877e+06 308042 0 -4.75033e+06 298292 0 -4.76197e+06 288475 0 -4.77369e+06 278588 0 -4.78549e+06 268633 0 -4.79738e+06 258608 0 -4.80935e+06 248513 0 -4.8214e+06 238348 0 -4.83355e+06 228110 0 -4.84577e+06 217802 0 -4.85809e+06 207420 0 -4.8705e+06 196966 0 -4.88299e+06 186437 0 -4.89558e+06 175835 0 -4.90825e+06 165157 0 -3.83173e+06 1.1021e+06 0 -3.83766e+06 1.09763e+06 0 -3.84362e+06 1.09314e+06 0 -3.84962e+06 1.08861e+06 0 -3.85564e+06 1.08406e+06 0 -3.8617e+06 1.07948e+06 0 -3.86779e+06 1.07487e+06 0 -3.87392e+06 1.07023e+06 0 -3.88008e+06 1.06556e+06 0 -3.88627e+06 1.06086e+06 0 -3.8925e+06 1.05613e+06 0 -3.89876e+06 1.05137e+06 0 -3.90505e+06 1.04658e+06 0 -3.91139e+06 1.04176e+06 0 -3.91775e+06 1.0369e+06 0 -3.92415e+06 1.03202e+06 0 -3.93059e+06 1.02711e+06 0 -3.93707e+06 1.02216e+06 0 -3.94358e+06 1.01719e+06 0 -3.95013e+06 1.01218e+06 0 -3.95671e+06 1.00714e+06 0 -3.96333e+06 1.00206e+06 0 -3.96999e+06 996958 0 -3.97669e+06 991819 0 -3.98343e+06 986648 0 -3.9902e+06 981444 0 -3.99702e+06 976206 0 -4.00387e+06 970935 0 -4.01076e+06 965629 0 -4.0177e+06 960290 0 -4.02467e+06 954916 0 -4.03168e+06 949507 0 -4.03874e+06 944064 0 -4.04583e+06 938586 0 -4.05297e+06 933072 0 -4.06015e+06 927523 0 -4.06737e+06 921938 0 -4.07464e+06 916317 0 -4.08195e+06 910659 0 -4.0893e+06 904965 0 -4.09669e+06 899234 0 -4.10413e+06 893466 0 -4.11161e+06 887661 0 -4.11914e+06 881818 0 -4.12672e+06 875937 0 -4.13434e+06 870018 0 -4.142e+06 864060 0 -4.14971e+06 858064 0 -4.15747e+06 852029 0 -4.16528e+06 845954 0 -4.17313e+06 839840 0 -4.18103e+06 833686 0 -4.18898e+06 827492 0 -4.19698e+06 821258 0 -4.20503e+06 814982 0 -4.21313e+06 808666 0 -4.22128e+06 802309 0 -4.22948e+06 795910 0 -4.23773e+06 789468 0 -4.24603e+06 782985 0 -4.25438e+06 776459 0 -4.26279e+06 769891 0 -4.27125e+06 763279 0 -4.27976e+06 756623 0 -4.28832e+06 749924 0 -4.29694e+06 743181 0 -4.30562e+06 736393 0 -4.31435e+06 729561 0 -4.32313e+06 722684 0 -4.33197e+06 715761 0 -4.34087e+06 708792 0 -4.34983e+06 701777 0 -4.35884e+06 694715 0 -4.36791e+06 687607 0 -4.37704e+06 680452 0 -4.38623e+06 673249 0 -4.39548e+06 665998 0 -4.40479e+06 658699 0 -4.41416e+06 651352 0 -4.42359e+06 643955 0 -4.43309e+06 636509 0 -4.44264e+06 629014 0 -4.45226e+06 621468 0 -4.46195e+06 613872 0 -4.4717e+06 606224 0 -4.48151e+06 598526 0 -4.49139e+06 590776 0 -4.50133e+06 582974 0 -4.51134e+06 575119 0 -4.52142e+06 567212 0 -4.53156e+06 559251 0 -4.54178e+06 551237 0 -4.55206e+06 543169 0 -4.56242e+06 535046 0 -4.57284e+06 526868 0 -4.58333e+06 518635 0 -4.5939e+06 510346 0 -4.60454e+06 502001 0 -4.61525e+06 493599 0 -4.62604e+06 485140 0 -4.6369e+06 476623 0 -4.64784e+06 468049 0 -4.65885e+06 459416 0 -4.66994e+06 450724 0 -4.6811e+06 441972 0 -4.69235e+06 433161 0 -4.70367e+06 424289 0 -4.71507e+06 415357 0 -4.72656e+06 406363 0 -4.73812e+06 397307 0 -4.74977e+06 388189 0 -4.7615e+06 379009 0 -4.77331e+06 369765 0 -4.78521e+06 360457 0 -4.79719e+06 351085 0 -4.80926e+06 341648 0 -4.82142e+06 332145 0 -4.83366e+06 322577 0 -4.84599e+06 312942 0 -4.85841e+06 303241 0 -4.87093e+06 293471 0 -4.88353e+06 283634 0 -4.89623e+06 273728 0 -4.90901e+06 263753 0 -4.9219e+06 253708 0 -4.93487e+06 243593 0 -4.94795e+06 233407 0 -4.96112e+06 223149 0 -3.85034e+06 1.12625e+06 0 -3.85639e+06 1.12196e+06 0 -3.86248e+06 1.11763e+06 0 -3.8686e+06 1.11328e+06 0 -3.87475e+06 1.1089e+06 0 -3.88094e+06 1.10449e+06 0 -3.88716e+06 1.10005e+06 0 -3.89341e+06 1.09559e+06 0 -3.89971e+06 1.0911e+06 0 -3.90603e+06 1.08657e+06 0 -3.91239e+06 1.08202e+06 0 -3.91879e+06 1.07745e+06 0 -3.92523e+06 1.07284e+06 0 -3.9317e+06 1.0682e+06 0 -3.93821e+06 1.06353e+06 0 -3.94475e+06 1.05884e+06 0 -3.95134e+06 1.05411e+06 0 -3.95796e+06 1.04935e+06 0 -3.96461e+06 1.04457e+06 0 -3.97131e+06 1.03975e+06 0 -3.97805e+06 1.0349e+06 0 -3.98482e+06 1.03002e+06 0 -3.99163e+06 1.02511e+06 0 -3.99849e+06 1.02017e+06 0 -4.00538e+06 1.0152e+06 0 -4.01231e+06 1.0102e+06 0 -4.01929e+06 1.00516e+06 0 -4.0263e+06 1.00009e+06 0 -4.03336e+06 994989 0 -4.04046e+06 989854 0 -4.0476e+06 984688 0 -4.05478e+06 979488 0 -4.06201e+06 974254 0 -4.06928e+06 968987 0 -4.07659e+06 963687 0 -4.08395e+06 958352 0 -4.09135e+06 952983 0 -4.09879e+06 947579 0 -4.10628e+06 942141 0 -4.11382e+06 936667 0 -4.1214e+06 931159 0 -4.12902e+06 925614 0 -4.1367e+06 920035 0 -4.14442e+06 914419 0 -4.15218e+06 908766 0 -4.16e+06 903078 0 -4.16786e+06 897352 0 -4.17578e+06 891590 0 -4.18374e+06 885790 0 -4.19175e+06 879953 0 -4.19981e+06 874078 0 -4.20792e+06 868164 0 -4.21608e+06 862213 0 -4.22429e+06 856223 0 -4.23256e+06 850193 0 -4.24087e+06 844125 0 -4.24924e+06 838017 0 -4.25766e+06 831870 0 -4.26614e+06 825682 0 -4.27467e+06 819454 0 -4.28325e+06 813185 0 -4.29189e+06 806876 0 -4.30058e+06 800525 0 -4.30933e+06 794133 0 -4.31814e+06 787698 0 -4.327e+06 781222 0 -4.33592e+06 774703 0 -4.3449e+06 768142 0 -4.35394e+06 761537 0 -4.36303e+06 754890 0 -4.37219e+06 748198 0 -4.3814e+06 741462 0 -4.39068e+06 734682 0 -4.40002e+06 727858 0 -4.40941e+06 720988 0 -4.41887e+06 714073 0 -4.4284e+06 707113 0 -4.43798e+06 700106 0 -4.44764e+06 693053 0 -4.45735e+06 685953 0 -4.46713e+06 678806 0 -4.47698e+06 671612 0 -4.48689e+06 664370 0 -4.49687e+06 657080 0 -4.50692e+06 649742 0 -4.51703e+06 642354 0 -4.52722e+06 634918 0 -4.53747e+06 627432 0 -4.54779e+06 619895 0 -4.55819e+06 612309 0 -4.56865e+06 604672 0 -4.57919e+06 596983 0 -4.5898e+06 589244 0 -4.60049e+06 581452 0 -4.61125e+06 573608 0 -4.62208e+06 565711 0 -4.63299e+06 557762 0 -4.64398e+06 549758 0 -4.65504e+06 541701 0 -4.66618e+06 533590 0 -4.6774e+06 525423 0 -4.6887e+06 517202 0 -4.70008e+06 508925 0 -4.71154e+06 500592 0 -4.72308e+06 492202 0 -4.7347e+06 483756 0 -4.74641e+06 475252 0 -4.7582e+06 466691 0 -4.77007e+06 458071 0 -4.78204e+06 449392 0 -4.79408e+06 440654 0 -4.80622e+06 431857 0 -4.81844e+06 423000 0 -4.83076e+06 414082 0 -4.84316e+06 405103 0 -4.85566e+06 396062 0 -4.86824e+06 386960 0 -4.88092e+06 377794 0 -4.89369e+06 368566 0 -4.90656e+06 359275 0 -4.91953e+06 349919 0 -4.93258e+06 340499 0 -4.94574e+06 331014 0 -4.959e+06 321463 0 -4.97235e+06 311846 0 -4.98581e+06 302163 0 -4.99937e+06 292412 0 -5.01303e+06 282594 0 -3.86844e+06 1.15087e+06 0 -3.87461e+06 1.14674e+06 0 -3.88082e+06 1.14259e+06 0 -3.88706e+06 1.13841e+06 0 -3.89334e+06 1.13421e+06 0 -3.89965e+06 1.12997e+06 0 -3.906e+06 1.12571e+06 0 -3.91239e+06 1.12143e+06 0 -3.91881e+06 1.11711e+06 0 -3.92527e+06 1.11277e+06 0 -3.93177e+06 1.10841e+06 0 -3.9383e+06 1.10401e+06 0 -3.94487e+06 1.09959e+06 0 -3.95148e+06 1.09514e+06 0 -3.95812e+06 1.09066e+06 0 -3.96481e+06 1.08615e+06 0 -3.97153e+06 1.08161e+06 0 -3.9783e+06 1.07705e+06 0 -3.9851e+06 1.07245e+06 0 -3.99194e+06 1.06783e+06 0 -3.99883e+06 1.06318e+06 0 -4.00575e+06 1.0585e+06 0 -4.01272e+06 1.05379e+06 0 -4.01972e+06 1.04904e+06 0 -4.02677e+06 1.04427e+06 0 -4.03386e+06 1.03947e+06 0 -4.04099e+06 1.03464e+06 0 -4.04816e+06 1.02977e+06 0 -4.05538e+06 1.02488e+06 0 -4.06264e+06 1.01996e+06 0 -4.06995e+06 1.015e+06 0 -4.0773e+06 1.01001e+06 0 -4.08469e+06 1.00499e+06 0 -4.09213e+06 999938 0 -4.09961e+06 994854 0 -4.10714e+06 989737 0 -4.11472e+06 984588 0 -4.12234e+06 979405 0 -4.13001e+06 974190 0 -4.13772e+06 968941 0 -4.14548e+06 963659 0 -4.1533e+06 958342 0 -4.16116e+06 952992 0 -4.16907e+06 947607 0 -4.17702e+06 942188 0 -4.18503e+06 936734 0 -4.19309e+06 931246 0 -4.2012e+06 925721 0 -4.20936e+06 920162 0 -4.21757e+06 914566 0 -4.22583e+06 908935 0 -4.23415e+06 903267 0 -4.24252e+06 897563 0 -4.25094e+06 891822 0 -4.25942e+06 886044 0 -4.26795e+06 880229 0 -4.27654e+06 874376 0 -4.28518e+06 868486 0 -4.29387e+06 862557 0 -4.30263e+06 856590 0 -4.31144e+06 850584 0 -4.3203e+06 844539 0 -4.32923e+06 838456 0 -4.33821e+06 832332 0 -4.34726e+06 826170 0 -4.35636e+06 819967 0 -4.36552e+06 813723 0 -4.37474e+06 807439 0 -4.38403e+06 801115 0 -4.39337e+06 794749 0 -4.40278e+06 788341 0 -4.41225e+06 781892 0 -4.42178e+06 775400 0 -4.43138e+06 768867 0 -4.44104e+06 762290 0 -4.45077e+06 755671 0 -4.46057e+06 749008 0 -4.47042e+06 742302 0 -4.48035e+06 735551 0 -4.49035e+06 728757 0 -4.50041e+06 721917 0 -4.51054e+06 715033 0 -4.52074e+06 708104 0 -4.53101e+06 701129 0 -4.54135e+06 694108 0 -4.55177e+06 687041 0 -4.56225e+06 679927 0 -4.57281e+06 672766 0 -4.58345e+06 665558 0 -4.59415e+06 658302 0 -4.60493e+06 650998 0 -4.61579e+06 643646 0 -4.62673e+06 636245 0 -4.63774e+06 628796 0 -4.64883e+06 621296 0 -4.65999e+06 613747 0 -4.67124e+06 606148 0 -4.68257e+06 598498 0 -4.69398e+06 590797 0 -4.70547e+06 583045 0 -4.71704e+06 575241 0 -4.7287e+06 567385 0 -4.74044e+06 559476 0 -4.75226e+06 551515 0 -4.76417e+06 543500 0 -4.77617e+06 535432 0 -4.78826e+06 527309 0 -4.80043e+06 519132 0 -4.8127e+06 510901 0 -4.82505e+06 502613 0 -4.8375e+06 494270 0 -4.85003e+06 485871 0 -4.86266e+06 477415 0 -4.87539e+06 468902 0 -4.88821e+06 460332 0 -4.90112e+06 451704 0 -4.91413e+06 443017 0 -4.92724e+06 434271 0 -4.94045e+06 425467 0 -4.95376e+06 416602 0 -4.96717e+06 407678 0 -4.98068e+06 398692 0 -4.99429e+06 389646 0 -5.00801e+06 380538 0 -5.02183e+06 371368 0 -5.03576e+06 362135 0 -5.0498e+06 352839 0 -5.06394e+06 343480 0 -3.88603e+06 1.17594e+06 0 -3.89232e+06 1.17198e+06 0 -3.89865e+06 1.168e+06 0 -3.90501e+06 1.164e+06 0 -3.91141e+06 1.15997e+06 0 -3.91785e+06 1.15592e+06 0 -3.92432e+06 1.15184e+06 0 -3.93083e+06 1.14773e+06 0 -3.93738e+06 1.1436e+06 0 -3.94397e+06 1.13944e+06 0 -3.9506e+06 1.13526e+06 0 -3.95726e+06 1.13105e+06 0 -3.96397e+06 1.12681e+06 0 -3.97071e+06 1.12255e+06 0 -3.97749e+06 1.11826e+06 0 -3.98431e+06 1.11394e+06 0 -3.99118e+06 1.1096e+06 0 -3.99808e+06 1.10523e+06 0 -4.00503e+06 1.10083e+06 0 -4.01201e+06 1.0964e+06 0 -4.01904e+06 1.09195e+06 0 -4.02611e+06 1.08747e+06 0 -4.03322e+06 1.08295e+06 0 -4.04038e+06 1.07842e+06 0 -4.04758e+06 1.07385e+06 0 -4.05482e+06 1.06925e+06 0 -4.06211e+06 1.06463e+06 0 -4.06944e+06 1.05997e+06 0 -4.07681e+06 1.05529e+06 0 -4.08423e+06 1.05058e+06 0 -4.0917e+06 1.04583e+06 0 -4.09921e+06 1.04106e+06 0 -4.10677e+06 1.03626e+06 0 -4.11437e+06 1.03142e+06 0 -4.12202e+06 1.02656e+06 0 -4.12972e+06 1.02166e+06 0 -4.13747e+06 1.01674e+06 0 -4.14527e+06 1.01178e+06 0 -4.15311e+06 1.00679e+06 0 -4.161e+06 1.00177e+06 0 -4.16895e+06 996717 0 -4.17694e+06 991633 0 -4.18498e+06 986516 0 -4.19308e+06 981367 0 -4.20122e+06 976185 0 -4.20942e+06 970970 0 -4.21767e+06 965722 0 -4.22597e+06 960441 0 -4.23433e+06 955126 0 -4.24274e+06 949777 0 -4.2512e+06 944394 0 -4.25972e+06 938977 0 -4.26829e+06 933525 0 -4.27692e+06 928039 0 -4.2856e+06 922517 0 -4.29435e+06 916960 0 -4.30314e+06 911368 0 -4.312e+06 905740 0 -4.32092e+06 900075 0 -4.32989e+06 894375 0 -4.33892e+06 888638 0 -4.34801e+06 882864 0 -4.35717e+06 877053 0 -4.36638e+06 871205 0 -4.37566e+06 865320 0 -4.38499e+06 859396 0 -4.39439e+06 853435 0 -4.40386e+06 847435 0 -4.41338e+06 841397 0 -4.42297e+06 835319 0 -4.43263e+06 829203 0 -4.44235e+06 823047 0 -4.45214e+06 816852 0 -4.462e+06 810616 0 -4.47192e+06 804340 0 -4.48191e+06 798024 0 -4.49197e+06 791667 0 -4.5021e+06 785269 0 -4.51229e+06 778829 0 -4.52256e+06 772347 0 -4.5329e+06 765824 0 -4.54332e+06 759258 0 -4.5538e+06 752650 0 -4.56436e+06 745999 0 -4.57499e+06 739305 0 -4.5857e+06 732567 0 -4.59648e+06 725785 0 -4.60734e+06 718959 0 -4.61828e+06 712089 0 -4.62929e+06 705174 0 -4.64039e+06 698213 0 -4.65156e+06 691208 0 -4.66281e+06 684156 0 -4.67414e+06 677059 0 -4.68556e+06 669915 0 -4.69705e+06 662725 0 -4.70863e+06 655487 0 -4.7203e+06 648202 0 -4.73205e+06 640869 0 -4.74388e+06 633488 0 -4.7558e+06 626058 0 -4.76781e+06 618580 0 -4.77991e+06 611053 0 -4.7921e+06 603476 0 -4.80437e+06 595849 0 -4.81674e+06 588172 0 -4.8292e+06 580444 0 -4.84175e+06 572666 0 -4.8544e+06 564836 0 -4.86714e+06 556954 0 -4.87997e+06 549020 0 -4.89291e+06 541034 0 -4.90594e+06 532995 0 -4.91907e+06 524903 0 -4.9323e+06 516757 0 -4.94563e+06 508557 0 -4.95906e+06 500302 0 -4.97259e+06 491993 0 -4.98623e+06 483628 0 -4.99997e+06 475208 0 -5.01382e+06 466732 0 -5.02778e+06 458199 0 -5.04184e+06 449610 0 -5.05602e+06 440963 0 -5.0703e+06 432258 0 -5.0847e+06 423496 0 -5.0992e+06 414674 0 -5.11383e+06 405794 0 -3.90309e+06 1.20144e+06 0 -3.9095e+06 1.19766e+06 0 -3.91594e+06 1.19385e+06 0 -3.92242e+06 1.19002e+06 0 -3.92894e+06 1.18617e+06 0 -3.9355e+06 1.1823e+06 0 -3.9421e+06 1.1784e+06 0 -3.94873e+06 1.17448e+06 0 -3.95541e+06 1.17053e+06 0 -3.96212e+06 1.16656e+06 0 -3.96888e+06 1.16256e+06 0 -3.97567e+06 1.15854e+06 0 -3.98251e+06 1.15449e+06 0 -3.98938e+06 1.15042e+06 0 -3.9963e+06 1.14632e+06 0 -4.00325e+06 1.1422e+06 0 -4.01025e+06 1.13805e+06 0 -4.0173e+06 1.13387e+06 0 -4.02438e+06 1.12967e+06 0 -4.03151e+06 1.12545e+06 0 -4.03868e+06 1.12119e+06 0 -4.04589e+06 1.11691e+06 0 -4.05315e+06 1.11261e+06 0 -4.06045e+06 1.10827e+06 0 -4.0678e+06 1.10391e+06 0 -4.07519e+06 1.09952e+06 0 -4.08263e+06 1.09511e+06 0 -4.09011e+06 1.09067e+06 0 -4.09764e+06 1.0862e+06 0 -4.10522e+06 1.0817e+06 0 -4.11284e+06 1.07717e+06 0 -4.12051e+06 1.07262e+06 0 -4.12823e+06 1.06803e+06 0 -4.136e+06 1.06342e+06 0 -4.14382e+06 1.05878e+06 0 -4.15168e+06 1.05411e+06 0 -4.1596e+06 1.04941e+06 0 -4.16756e+06 1.04468e+06 0 -4.17558e+06 1.03992e+06 0 -4.18365e+06 1.03513e+06 0 -4.19177e+06 1.03032e+06 0 -4.19994e+06 1.02547e+06 0 -4.20816e+06 1.02059e+06 0 -4.21643e+06 1.01568e+06 0 -4.22476e+06 1.01074e+06 0 -4.23315e+06 1.00577e+06 0 -4.24158e+06 1.00077e+06 0 -4.25008e+06 995731 0 -4.25862e+06 990665 0 -4.26723e+06 985568 0 -4.27589e+06 980438 0 -4.2846e+06 975276 0 -4.29338e+06 970081 0 -4.30221e+06 964854 0 -4.3111e+06 959594 0 -4.32005e+06 954301 0 -4.32905e+06 948974 0 -4.33812e+06 943613 0 -4.34725e+06 938219 0 -4.35644e+06 932791 0 -4.36569e+06 927328 0 -4.37501e+06 921831 0 -4.38438e+06 916299 0 -4.39382e+06 910733 0 -4.40333e+06 905131 0 -4.41289e+06 899493 0 -4.42253e+06 893820 0 -4.43223e+06 888111 0 -4.44199e+06 882365 0 -4.45183e+06 876584 0 -4.46173e+06 870765 0 -4.4717e+06 864910 0 -4.48173e+06 859017 0 -4.49184e+06 853087 0 -4.50202e+06 847120 0 -4.51227e+06 841114 0 -4.52259e+06 835070 0 -4.53298e+06 828988 0 -4.54344e+06 822867 0 -4.55398e+06 816707 0 -4.5646e+06 810508 0 -4.57529e+06 804269 0 -4.58605e+06 797991 0 -4.59689e+06 791672 0 -4.60781e+06 785314 0 -4.61881e+06 778914 0 -4.62988e+06 772474 0 -4.64104e+06 765993 0 -4.65227e+06 759470 0 -4.66359e+06 752905 0 -4.67499e+06 746299 0 -4.68647e+06 739650 0 -4.69803e+06 732958 0 -4.70968e+06 726224 0 -4.72142e+06 719446 0 -4.73324e+06 712625 0 -4.74515e+06 705761 0 -4.75714e+06 698852 0 -4.76923e+06 691899 0 -4.7814e+06 684901 0 -4.79366e+06 677858 0 -4.80602e+06 670770 0 -4.81847e+06 663637 0 -4.83101e+06 656457 0 -4.84365e+06 649231 0 -4.85638e+06 641959 0 -4.8692e+06 634640 0 -4.88213e+06 627273 0 -4.89515e+06 619860 0 -4.90827e+06 612398 0 -4.92149e+06 604888 0 -4.93482e+06 597330 0 -4.94824e+06 589723 0 -4.96177e+06 582066 0 -4.9754e+06 574360 0 -4.98914e+06 566605 0 -5.00299e+06 558799 0 -5.01694e+06 550943 0 -5.031e+06 543035 0 -5.04517e+06 535077 0 -5.05946e+06 527067 0 -5.07385e+06 519005 0 -5.08836e+06 510891 0 -5.10298e+06 502724 0 -5.11772e+06 494504 0 -5.13258e+06 486231 0 -5.14755e+06 477904 0 -5.16265e+06 469523 0 -3.91961e+06 1.22735e+06 0 -3.92613e+06 1.22375e+06 0 -3.93269e+06 1.22012e+06 0 -3.93929e+06 1.21647e+06 0 -3.94593e+06 1.2128e+06 0 -3.95261e+06 1.20911e+06 0 -3.95933e+06 1.20539e+06 0 -3.96608e+06 1.20165e+06 0 -3.97288e+06 1.19789e+06 0 -3.97972e+06 1.1941e+06 0 -3.9866e+06 1.1903e+06 0 -3.99352e+06 1.18646e+06 0 -4.00048e+06 1.18261e+06 0 -4.00748e+06 1.17873e+06 0 -4.01453e+06 1.17482e+06 0 -4.02162e+06 1.1709e+06 0 -4.02875e+06 1.16695e+06 0 -4.03593e+06 1.16297e+06 0 -4.04315e+06 1.15897e+06 0 -4.05041e+06 1.15494e+06 0 -4.05772e+06 1.15089e+06 0 -4.06508e+06 1.14682e+06 0 -4.07248e+06 1.14272e+06 0 -4.07992e+06 1.13859e+06 0 -4.08742e+06 1.13444e+06 0 -4.09495e+06 1.13027e+06 0 -4.10254e+06 1.12607e+06 0 -4.11017e+06 1.12184e+06 0 -4.11786e+06 1.11758e+06 0 -4.12559e+06 1.1133e+06 0 -4.13336e+06 1.109e+06 0 -4.14119e+06 1.10466e+06 0 -4.14907e+06 1.1003e+06 0 -4.157e+06 1.09592e+06 0 -4.16498e+06 1.0915e+06 0 -4.17301e+06 1.08706e+06 0 -4.18109e+06 1.08259e+06 0 -4.18922e+06 1.0781e+06 0 -4.1974e+06 1.07357e+06 0 -4.20564e+06 1.06902e+06 0 -4.21393e+06 1.06444e+06 0 -4.22228e+06 1.05983e+06 0 -4.23068e+06 1.05519e+06 0 -4.23913e+06 1.05053e+06 0 -4.24764e+06 1.04583e+06 0 -4.25621e+06 1.04111e+06 0 -4.26483e+06 1.03636e+06 0 -4.27351e+06 1.03157e+06 0 -4.28224e+06 1.02676e+06 0 -4.29103e+06 1.02192e+06 0 -4.29989e+06 1.01705e+06 0 -4.3088e+06 1.01215e+06 0 -4.31777e+06 1.00721e+06 0 -4.3268e+06 1.00225e+06 0 -4.33589e+06 997256 0 -4.34504e+06 992231 0 -4.35425e+06 987176 0 -4.36353e+06 982088 0 -4.37287e+06 976970 0 -4.38227e+06 971819 0 -4.39174e+06 966637 0 -4.40127e+06 961422 0 -4.41086e+06 956175 0 -4.42052e+06 950895 0 -4.43025e+06 945583 0 -4.44005e+06 940238 0 -4.44991e+06 934859 0 -4.45984e+06 929447 0 -4.46984e+06 924001 0 -4.47991e+06 918522 0 -4.49005e+06 913008 0 -4.50026e+06 907460 0 -4.51055e+06 901878 0 -4.5209e+06 896261 0 -4.53133e+06 890609 0 -4.54183e+06 884922 0 -4.55241e+06 879199 0 -4.56306e+06 873441 0 -4.57379e+06 867647 0 -4.58459e+06 861816 0 -4.59547e+06 855950 0 -4.60643e+06 850047 0 -4.61747e+06 844107 0 -4.62859e+06 838130 0 -4.63979e+06 832116 0 -4.65107e+06 826064 0 -4.66243e+06 819975 0 -4.67388e+06 813847 0 -4.68541e+06 807681 0 -4.69702e+06 801477 0 -4.70872e+06 795235 0 -4.72051e+06 788953 0 -4.73238e+06 782632 0 -4.74434e+06 776271 0 -4.75639e+06 769871 0 -4.76853e+06 763431 0 -4.78076e+06 756950 0 -4.79308e+06 750430 0 -4.80549e+06 743868 0 -4.818e+06 737265 0 -4.8306e+06 730621 0 -4.8433e+06 723936 0 -4.85609e+06 717209 0 -4.86898e+06 710440 0 -4.88197e+06 703628 0 -4.89506e+06 696774 0 -4.90825e+06 689877 0 -4.92154e+06 682937 0 -4.93493e+06 675953 0 -4.94843e+06 668926 0 -4.96203e+06 661855 0 -4.97574e+06 654740 0 -4.98955e+06 647580 0 -5.00347e+06 640375 0 -5.0175e+06 633126 0 -5.03164e+06 625831 0 -5.0459e+06 618490 0 -5.06026e+06 611104 0 -5.07474e+06 603671 0 -5.08933e+06 596192 0 -5.10404e+06 588666 0 -5.11887e+06 581093 0 -5.13381e+06 573472 0 -5.14888e+06 565804 0 -5.16406e+06 558089 0 -5.17937e+06 550324 0 -5.19481e+06 542512 0 -5.21037e+06 534650 0 -3.93559e+06 1.25366e+06 0 -3.94222e+06 1.25024e+06 0 -3.9489e+06 1.24679e+06 0 -3.95561e+06 1.24332e+06 0 -3.96236e+06 1.23983e+06 0 -3.96916e+06 1.23632e+06 0 -3.97599e+06 1.23279e+06 0 -3.98287e+06 1.22924e+06 0 -3.98978e+06 1.22566e+06 0 -3.99674e+06 1.22207e+06 0 -4.00374e+06 1.21845e+06 0 -4.01079e+06 1.21481e+06 0 -4.01787e+06 1.21115e+06 0 -4.02501e+06 1.20746e+06 0 -4.03218e+06 1.20376e+06 0 -4.0394e+06 1.20003e+06 0 -4.04666e+06 1.19628e+06 0 -4.0