<?xml version="1.0"?> 
<VTKFile type="StructuredGrid" version="0.1"> 
<StructuredGrid WholeExtent="0 127 0 127 0 0"> 
<Piece Extent="0 127 0 127 0 0"> 
<PointData>
<DataArray type="Float32" Name="u" format="ascii" NumberOfComponents="3"> 
-2.13326e+06 0 0 -2.13334e+06 -4.85663e-08 0 -2.13361e+06 6.04265e-08 0 -2.13405e+06 -1.84383e-08 0 -2.13467e+06 -6.68236e-08 0 -2.13547e+06 -1.3333e-08 0 -2.13644e+06 -5.77895e-08 0 -2.13759e+06 2.05204e-07 0 -2.13892e+06 -9.74155e-08 0 -2.14043e+06 1.81563e-07 0 -2.14212e+06 1.71601e-07 0 -2.14398e+06 -6.7877e-08 0 -2.14602e+06 3.97577e-08 0 -2.14825e+06 -6.29069e-07 0 -2.15065e+06 3.7855e-07 0 -2.15324e+06 9.92259e-08 0 -2.156e+06 -7.15863e-08 0 -2.15895e+06 -4.58764e-07 0 -2.16208e+06 3.18105e-07 0 -2.16539e+06 -6.92071e-07 0 -2.16889e+06 -2.11687e-07 0 -2.17257e+06 -3.37604e-07 0 -2.17644e+06 -1.20781e-07 0 -2.1805e+06 2.8158e-07 0 -2.18474e+06 -1.2129e-07 0 -2.18917e+06 4.23519e-07 0 -2.19379e+06 -2.08674e-08 0 -2.1986e+06 2.17202e-07 0 -2.2036e+06 -1.52504e-08 0 -2.2088e+06 -1.02475e-07 0 -2.21419e+06 -4.51808e-07 0 -2.21977e+06 -1.27638e-06 0 -2.22555e+06 7.17584e-07 0 -2.23153e+06 -6.79807e-07 0 -2.23771e+06 -4.51168e-07 0 -2.24409e+06 4.8615e-07 0 -2.25067e+06 -9.23174e-07 0 -2.25746e+06 5.81844e-07 0 -2.26445e+06 1.38534e-08 0 -2.27165e+06 -5.79865e-07 0 -2.27906e+06 -1.69501e-06 0 -2.28667e+06 -5.4948e-08 0 -2.29451e+06 2.65427e-07 0 -2.30255e+06 8.95932e-07 0 -2.31081e+06 -1.50548e-06 0 -2.31929e+06 1.7453e-06 0 -2.328e+06 -1.73459e-06 0 -2.33692e+06 -3.63216e-08 0 -2.34607e+06 6.70552e-07 0 -2.35544e+06 -1.72295e-08 0 -2.36505e+06 3.6275e-07 0 -2.37489e+06 -5.68107e-07 0 -2.38496e+06 1.6205e-07 0 -2.39526e+06 -6.36093e-07 0 -2.40581e+06 -1.99303e-07 0 -2.4166e+06 1.74157e-07 0 -2.42763e+06 -1.18278e-07 0 -2.43891e+06 9.74163e-07 0 -2.45044e+06 9.27597e-07 0 -2.46222e+06 -1.24518e-06 0 -2.47425e+06 1.94274e-06 0 -2.48654e+06 -1.26474e-06 0 -2.4991e+06 3.15346e-06 0 -2.51191e+06 -5.22099e-06 0 -2.52499e+06 3.39001e-06 0 -2.53834e+06 -3.26522e-06 0 -2.55196e+06 2.12342e-06 0 -2.56585e+06 2.04891e-08 0 -2.58001e+06 1.16788e-06 0 -2.59446e+06 -1.74716e-06 0 -2.60918e+06 5.99772e-07 0 -2.62419e+06 -1.52364e-06 0 -2.63948e+06 2.01911e-06 0 -2.65506e+06 -1.11386e-06 0 -2.67092e+06 -1.06543e-06 0 -2.68707e+06 1.32248e-06 0 -2.70352e+06 -1.31875e-06 0 -2.72025e+06 2.93925e-06 0 -2.73727e+06 -2.64496e-07 0 -2.75459e+06 2.35438e-06 0 -2.77219e+06 -2.01911e-06 0 -2.79009e+06 1.39326e-06 0 -2.80827e+06 -2.35438e-06 0 -2.82673e+06 2.11596e-06 0 -2.84548e+06 -9.16421e-07 0 -2.8645e+06 -2.90573e-07 0 -2.8838e+06 5.1409e-07 0 -2.90336e+06 -6.33299e-07 0 -2.92317e+06 4.34369e-06 0 -2.94324e+06 -4.18723e-06 0 -2.96354e+06 1.96695e-06 0 -2.98408e+06 -2.41399e-06 0 -3.00482e+06 1.86265e-06 0 -3.02576e+06 -2.6226e-06 0 -3.04689e+06 3.53158e-06 0 -3.06817e+06 -9.08971e-07 0 -3.08959e+06 1.2517e-06 0 -3.11113e+06 4.47035e-08 0 -3.13275e+06 2.02656e-06 0 -3.15443e+06 -7.30157e-07 0 -3.17613e+06 9.08971e-07 0 -3.19782e+06 1.16229e-06 0 -3.21945e+06 2.08616e-07 0 -3.24099e+06 -2.11596e-06 0 -3.26239e+06 1.78814e-06 0 -3.28359e+06 -2.38419e-07 0 -3.30455e+06 8.64267e-07 0 -3.3252e+06 7.45058e-07 0 -3.34549e+06 3.8743e-07 0 -3.36536e+06 -2.08616e-07 0 -3.38473e+06 2.26498e-06 0 -3.40354e+06 -4.17233e-07 0 -3.42171e+06 4.47035e-07 0 -3.43918e+06 -1.04308e-06 0 -3.45587e+06 -3.21865e-06 0 -3.4717e+06 7.7486e-07 0 -3.4866e+06 4.17233e-07 0 -3.5005e+06 -9.53674e-07 0 -3.51332e+06 -1.72853e-06 0 -3.52501e+06 1.90735e-06 0 -3.53548e+06 -1.84774e-06 0 -3.54469e+06 -1.3113e-06 0 -3.55258e+06 2.02656e-06 0 -3.5591e+06 -7.15256e-07 0 -3.56422e+06 1.3113e-06 0 -3.5679e+06 -1.66893e-06 0 -3.57011e+06 6.4373e-06 0 -3.57086e+06 4.76837e-05 0 -2.13325e+06 0 0 -2.13334e+06 23.5833 0 -2.13361e+06 47.1718 0 -2.13405e+06 70.7707 0 -2.13467e+06 94.3851 0 -2.13547e+06 118.02 0 -2.13644e+06 141.682 0 -2.13759e+06 165.374 0 -2.13892e+06 189.103 0 -2.14043e+06 212.874 0 -2.14211e+06 236.692 0 -2.14398e+06 260.562 0 -2.14602e+06 284.491 0 -2.14825e+06 308.482 0 -2.15065e+06 332.543 0 -2.15324e+06 356.678 0 -2.156e+06 380.892 0 -2.15895e+06 405.193 0 -2.16208e+06 429.584 0 -2.16539e+06 454.073 0 -2.16889e+06 478.664 0 -2.17257e+06 503.364 0 -2.17644e+06 528.178 0 -2.1805e+06 553.113 0 -2.18474e+06 578.175 0 -2.18917e+06 603.37 0 -2.19379e+06 628.704 0 -2.1986e+06 654.184 0 -2.2036e+06 679.815 0 -2.2088e+06 705.605 0 -2.21419e+06 731.56 0 -2.21977e+06 757.687 0 -2.22555e+06 783.992 0 -2.23153e+06 810.482 0 -2.23771e+06 837.164 0 -2.24409e+06 864.046 0 -2.25067e+06 891.134 0 -2.25746e+06 918.435 0 -2.26445e+06 945.957 0 -2.27165e+06 973.707 0 -2.27905e+06 1001.69 0 -2.28667e+06 1029.92 0 -2.2945e+06 1058.4 0 -2.30255e+06 1087.13 0 -2.31081e+06 1116.13 0 -2.31929e+06 1145.4 0 -2.32799e+06 1174.95 0 -2.33692e+06 1204.79 0 -2.34607e+06 1234.92 0 -2.35544e+06 1265.35 0 -2.36505e+06 1296.09 0 -2.37488e+06 1327.14 0 -2.38495e+06 1358.51 0 -2.39526e+06 1390.21 0 -2.40581e+06 1422.25 0 -2.4166e+06 1454.62 0 -2.42763e+06 1487.33 0 -2.43891e+06 1520.4 0 -2.45044e+06 1553.81 0 -2.46222e+06 1587.57 0 -2.47425e+06 1621.7 0 -2.48654e+06 1656.18 0 -2.49909e+06 1691.01 0 -2.51191e+06 1726.2 0 -2.52499e+06 1761.75 0 -2.53833e+06 1797.64 0 -2.55195e+06 1833.87 0 -2.56584e+06 1870.44 0 -2.58001e+06 1907.33 0 -2.59445e+06 1944.53 0 -2.60918e+06 1982.03 0 -2.62419e+06 2019.79 0 -2.63948e+06 2057.81 0 -2.65505e+06 2096.05 0 -2.67092e+06 2134.48 0 -2.68707e+06 2173.07 0 -2.70351e+06 2211.77 0 -2.72025e+06 2250.53 0 -2.73727e+06 2289.3 0 -2.75459e+06 2328.02 0 -2.77219e+06 2366.62 0 -2.79009e+06 2405.01 0 -2.80827e+06 2443.11 0 -2.82673e+06 2480.81 0 -2.84548e+06 2518.01 0 -2.8645e+06 2554.59 0 -2.88379e+06 2590.4 0 -2.90335e+06 2625.29 0 -2.92317e+06 2659.1 0 -2.94324e+06 2691.63 0 -2.96354e+06 2722.7 0 -2.98407e+06 2752.08 0 -3.00482e+06 2779.52 0 -3.02576e+06 2804.76 0 -3.04688e+06 2827.53 0 -3.06817e+06 2847.52 0 -3.08959e+06 2864.4 0 -3.11112e+06 2877.82 0 -3.13275e+06 2887.4 0 -3.15443e+06 2892.77 0 -3.17613e+06 2893.5 0 -3.19782e+06 2889.16 0 -3.21945e+06 2879.31 0 -3.24099e+06 2863.49 0 -3.26239e+06 2841.22 0 -3.28359e+06 2812.06 0 -3.30455e+06 2775.51 0 -3.32521e+06 2731.14 0 -3.3455e+06 2678.51 0 -3.36536e+06 2617.2 0 -3.38473e+06 2546.85 0 -3.40354e+06 2467.13 0 -3.42172e+06 2377.78 0 -3.43919e+06 2278.62 0 -3.45587e+06 2169.53 0 -3.47171e+06 2050.51 0 -3.48661e+06 1921.65 0 -3.50051e+06 1783.14 0 -3.51333e+06 1635.33 0 -3.52502e+06 1478.66 0 -3.53549e+06 1313.71 0 -3.5447e+06 1141.17 0 -3.55259e+06 961.889 0 -3.55912e+06 776.783 0 -3.56423e+06 586.892 0 -3.56791e+06 393.334 0 -3.57013e+06 197.293 0 -3.57087e+06 6.96075e-06 0 -2.13325e+06 0 0 -2.13334e+06 47.1665 0 -2.1336e+06 94.3434 0 -2.13405e+06 141.541 0 -2.13467e+06 188.77 0 -2.13546e+06 236.04 0 -2.13644e+06 283.363 0 -2.13759e+06 330.748 0 -2.13892e+06 378.205 0 -2.14042e+06 425.747 0 -2.14211e+06 473.383 0 -2.14397e+06 521.124 0 -2.14602e+06 568.98 0 -2.14824e+06 616.964 0 -2.15065e+06 665.085 0 -2.15323e+06 713.354 0 -2.156e+06 761.783 0 -2.15894e+06 810.384 0 -2.16207e+06 859.167 0 -2.16539e+06 908.143 0 -2.16889e+06 957.326 0 -2.17257e+06 1006.73 0 -2.17644e+06 1056.35 0 -2.18049e+06 1106.22 0 -2.18473e+06 1156.35 0 -2.18916e+06 1206.74 0 -2.19378e+06 1257.41 0 -2.19859e+06 1308.36 0 -2.2036e+06 1359.63 0 -2.20879e+06 1411.21 0 -2.21418e+06 1463.12 0 -2.21977e+06 1515.37 0 -2.22555e+06 1567.98 0 -2.23153e+06 1620.96 0 -2.2377e+06 1674.33 0 -2.24408e+06 1728.09 0 -2.25067e+06 1782.26 0 -2.25745e+06 1836.87 0 -2.26444e+06 1891.91 0 -2.27164e+06 1947.41 0 -2.27905e+06 2003.38 0 -2.28667e+06 2059.83 0 -2.2945e+06 2116.79 0 -2.30254e+06 2174.26 0 -2.31081e+06 2232.25 0 -2.31929e+06 2290.79 0 -2.32799e+06 2349.9 0 -2.33691e+06 2409.57 0 -2.34606e+06 2469.83 0 -2.35544e+06 2530.69 0 -2.36504e+06 2592.17 0 -2.37488e+06 2654.27 0 -2.38495e+06 2717.02 0 -2.39526e+06 2780.42 0 -2.4058e+06 2844.49 0 -2.41659e+06 2909.23 0 -2.42762e+06 2974.66 0 -2.4389e+06 3040.78 0 -2.45043e+06 3107.61 0 -2.46221e+06 3175.14 0 -2.47424e+06 3243.39 0 -2.48653e+06 3312.34 0 -2.49909e+06 3382.02 0 -2.5119e+06 3452.4 0 -2.52498e+06 3523.49 0 -2.53833e+06 3595.27 0 -2.55195e+06 3667.74 0 -2.56584e+06 3740.88 0 -2.58e+06 3814.66 0 -2.59445e+06 3889.06 0 -2.60917e+06 3964.05 0 -2.62418e+06 4039.58 0 -2.63947e+06 4115.62 0 -2.65505e+06 4192.1 0 -2.67091e+06 4268.96 0 -2.68706e+06 4346.14 0 -2.70351e+06 4423.53 0 -2.72024e+06 4501.06 0 -2.73726e+06 4578.61 0 -2.75458e+06 4656.05 0 -2.77218e+06 4733.24 0 -2.79008e+06 4810.02 0 -2.80826e+06 4886.22 0 -2.82672e+06 4961.63 0 -2.84547e+06 5036.04 0 -2.86449e+06 5109.19 0 -2.88379e+06 5180.81 0 -2.90335e+06 5250.6 0 -2.92316e+06 5318.22 0 -2.94323e+06 5383.3 0 -2.96354e+06 5445.43 0 -2.98407e+06 5504.19 0 -3.00481e+06 5559.07 0 -3.02576e+06 5609.57 0 -3.04688e+06 5655.12 0 -3.06816e+06 5695.1 0 -3.08959e+06 5728.86 0 -3.11112e+06 5755.7 0 -3.13275e+06 5774.88 0 -3.15443e+06 5785.62 0 -3.17613e+06 5787.09 0 -3.19782e+06 5778.42 0 -3.21945e+06 5758.72 0 -3.241e+06 5727.09 0 -3.26239e+06 5682.57 0 -3.2836e+06 5624.24 0 -3.30456e+06 5551.17 0 -3.32522e+06 5462.43 0 -3.34551e+06 5357.17 0 -3.36538e+06 5234.56 0 -3.38475e+06 5093.86 0 -3.40356e+06 4934.43 0 -3.42174e+06 4755.74 0 -3.43921e+06 4557.42 0 -3.4559e+06 4339.25 0 -3.47173e+06 4101.2 0 -3.48663e+06 3843.46 0 -3.50054e+06 3566.45 0 -3.51336e+06 3270.82 0 -3.52505e+06 2957.46 0 -3.53553e+06 2627.55 0 -3.54474e+06 2282.47 0 -3.55263e+06 1923.88 0 -3.55915e+06 1553.65 0 -3.56427e+06 1173.85 0 -3.56795e+06 786.712 0 -3.57017e+06 394.609 0 -3.57091e+06 -7.55452e-06 0 -2.13324e+06 0 0 -2.13333e+06 70.7495 0 -2.1336e+06 141.515 0 -2.13404e+06 212.311 0 -2.13466e+06 283.154 0 -2.13545e+06 354.059 0 -2.13643e+06 425.043 0 -2.13758e+06 496.12 0 -2.13891e+06 567.306 0 -2.14042e+06 638.619 0 -2.1421e+06 710.072 0 -2.14397e+06 781.683 0 -2.14601e+06 853.468 0 -2.14823e+06 925.443 0 -2.15064e+06 997.624 0 -2.15322e+06 1070.03 0 -2.15599e+06 1142.67 0 -2.15894e+06 1215.57 0 -2.16207e+06 1288.75 0 -2.16538e+06 1362.21 0 -2.16888e+06 1435.98 0 -2.17256e+06 1510.08 0 -2.17643e+06 1584.53 0 -2.18048e+06 1659.33 0 -2.18472e+06 1734.52 0 -2.18916e+06 1810.1 0 -2.19378e+06 1886.1 0 -2.19859e+06 1962.54 0 -2.20359e+06 2039.43 0 -2.20878e+06 2116.8 0 -2.21417e+06 2194.67 0 -2.21976e+06 2273.05 0 -2.22554e+06 2351.96 0 -2.23152e+06 2431.43 0 -2.2377e+06 2511.48 0 -2.24408e+06 2592.12 0 -2.25066e+06 2673.39 0 -2.25744e+06 2755.29 0 -2.26443e+06 2837.85 0 -2.27163e+06 2921.1 0 -2.27904e+06 3005.06 0 -2.28666e+06 3089.74 0 -2.29449e+06 3175.17 0 -2.30253e+06 3261.37 0 -2.3108e+06 3348.37 0 -2.31928e+06 3436.18 0 -2.32798e+06 3524.83 0 -2.3369e+06 3614.34 0 -2.34605e+06 3704.73 0 -2.35543e+06 3796.02 0 -2.36503e+06 3888.24 0 -2.37487e+06 3981.4 0 -2.38494e+06 4075.52 0 -2.39524e+06 4170.62 0 -2.40579e+06 4266.72 0 -2.41658e+06 4363.83 0 -2.42761e+06 4461.98 0 -2.43889e+06 4561.16 0 -2.45042e+06 4661.4 0 -2.4622e+06 4762.7 0 -2.47423e+06 4865.06 0 -2.48652e+06 4968.5 0 -2.49907e+06 5073.01 0 -2.51189e+06 5178.58 0 -2.52497e+06 5285.22 0 -2.53832e+06 5392.9 0 -2.55193e+06 5501.6 0 -2.56582e+06 5611.3 0 -2.57999e+06 5721.98 0 -2.59443e+06 5833.58 0 -2.60916e+06 5946.06 0 -2.62417e+06 6059.36 0 -2.63946e+06 6173.42 0 -2.65503e+06 6288.14 0 -2.6709e+06 6403.44 0 -2.68705e+06 6519.2 0 -2.70349e+06 6635.3 0 -2.72023e+06 6751.59 0 -2.73725e+06 6867.91 0 -2.75457e+06 6984.07 0 -2.77217e+06 7099.86 0 -2.79007e+06 7215.04 0 -2.80825e+06 7329.34 0 -2.82671e+06 7442.47 0 -2.84546e+06 7554.09 0 -2.86448e+06 7663.82 0 -2.88378e+06 7771.26 0 -2.90334e+06 7875.94 0 -2.92315e+06 7977.38 0 -2.94322e+06 8075.01 0 -2.96353e+06 8168.22 0 -2.98406e+06 8256.36 0 -3.0048e+06 8338.71 0 -3.02575e+06 8414.47 0 -3.04687e+06 8482.8 0 -3.06816e+06 8542.78 0 -3.08958e+06 8593.44 0 -3.11112e+06 8633.72 0 -3.13274e+06 8662.51 0 -3.15442e+06 8678.64 0 -3.17613e+06 8680.86 0 -3.19782e+06 8667.87 0 -3.21946e+06 8638.35 0 -3.241e+06 8590.91 0 -3.2624e+06 8524.16 0 -3.28361e+06 8436.69 0 -3.30457e+06 8327.1 0 -3.32523e+06 8194.02 0 -3.34553e+06 8036.14 0 -3.3654e+06 7852.25 0 -3.38477e+06 7641.21 0 -3.40359e+06 7402.08 0 -3.42177e+06 7134.05 0 -3.43924e+06 6836.57 0 -3.45593e+06 6509.31 0 -3.47177e+06 6152.24 0 -3.48668e+06 5765.63 0 -3.50058e+06 5350.09 0 -3.51341e+06 4906.62 0 -3.5251e+06 4436.57 0 -3.53558e+06 3941.66 0 -3.5448e+06 3424 0 -3.55269e+06 2886.08 0 -3.55922e+06 2330.69 0 -3.56434e+06 1760.94 0 -3.56802e+06 1180.18 0 -3.57023e+06 591.97 0 -3.57097e+06 5.37129e-06 0 -2.13323e+06 0 0 -2.13332e+06 94.3323 0 -2.13359e+06 188.685 0 -2.13403e+06 283.08 0 -2.13465e+06 377.537 0 -2.13544e+06 472.077 0 -2.13642e+06 566.721 0 -2.13757e+06 661.49 0 -2.1389e+06 756.405 0 -2.1404e+06 851.487 0 -2.14209e+06 946.758 0 -2.14396e+06 1042.24 0 -2.146e+06 1137.95 0 -2.14822e+06 1233.92 0 -2.15063e+06 1330.16 0 -2.15321e+06 1426.7 0 -2.15598e+06 1523.55 0 -2.15892e+06 1620.75 0 -2.16205e+06 1718.32 0 -2.16537e+06 1816.27 0 -2.16887e+06 1914.64 0 -2.17255e+06 2013.43 0 -2.17642e+06 2112.69 0 -2.18047e+06 2212.43 0 -2.18471e+06 2312.68 0 -2.18914e+06 2413.46 0 -2.19376e+06 2514.79 0 -2.19857e+06 2616.71 0 -2.20358e+06 2719.23 0 -2.20877e+06 2822.39 0 -2.21416e+06 2926.21 0 -2.21974e+06 3030.71 0 -2.22553e+06 3135.93 0 -2.2315e+06 3241.89 0 -2.23768e+06 3348.62 0 -2.24406e+06 3456.15 0 -2.25064e+06 3564.5 0 -2.25743e+06 3673.7 0 -2.26442e+06 3783.79 0 -2.27162e+06 3894.78 0 -2.27903e+06 4006.72 0 -2.28664e+06 4119.63 0 -2.29448e+06 4233.54 0 -2.30252e+06 4348.47 0 -2.31078e+06 4464.47 0 -2.31926e+06 4581.55 0 -2.32796e+06 4699.75 0 -2.33689e+06 4819.09 0 -2.34604e+06 4939.62 0 -2.35541e+06 5061.34 0 -2.36502e+06 5184.29 0 -2.37485e+06 5308.5 0 -2.38492e+06 5434 0 -2.39523e+06 5560.8 0 -2.40578e+06 5688.93 0 -2.41656e+06 5818.42 0 -2.4276e+06 5949.27 0 -2.43887e+06 6081.52 0 -2.4504e+06 6215.17 0 -2.46218e+06 6350.23 0 -2.47422e+06 6486.72 0 -2.48651e+06 6624.64 0 -2.49906e+06 6763.98 0 -2.51187e+06 6904.75 0 -2.52495e+06 7046.93 0 -2.5383e+06 7190.5 0 -2.55192e+06 7335.44 0 -2.56581e+06 7481.71 0 -2.57997e+06 7629.28 0 -2.59442e+06 7778.08 0 -2.60914e+06 7928.06 0 -2.62415e+06 8079.13 0 -2.63944e+06 8231.2 0 -2.65501e+06 8384.17 0 -2.67088e+06 8537.9 0 -2.68703e+06 8692.26 0 -2.70348e+06 8847.06 0 -2.72021e+06 9002.12 0 -2.73723e+06 9157.22 0 -2.75455e+06 9312.11 0 -2.77215e+06 9466.5 0 -2.79005e+06 9620.08 0 -2.80823e+06 9772.49 0 -2.82669e+06 9923.34 0 -2.84544e+06 10072.2 0 -2.86446e+06 10218.5 0 -2.88376e+06 10361.8 0 -2.90332e+06 10501.3 0 -2.92314e+06 10636.6 0 -2.94321e+06 10766.8 0 -2.96351e+06 10891.1 0 -2.98405e+06 11008.6 0 -3.00479e+06 11118.5 0 -3.02574e+06 11219.5 0 -3.04686e+06 11310.6 0 -3.06815e+06 11390.6 0 -3.08957e+06 11458.2 0 -3.11111e+06 11511.9 0 -3.13274e+06 11550.4 0 -3.15442e+06 11571.9 0 -3.17613e+06 11574.9 0 -3.19782e+06 11557.6 0 -3.21946e+06 11518.3 0 -3.24101e+06 11455.1 0 -3.26241e+06 11366.1 0 -3.28363e+06 11249.5 0 -3.30459e+06 11103.4 0 -3.32526e+06 10926 0 -3.34556e+06 10715.6 0 -3.36543e+06 10470.4 0 -3.38481e+06 10189.1 0 -3.40363e+06 9870.23 0 -3.42181e+06 9512.89 0 -3.43929e+06 9116.25 0 -3.45599e+06 8679.91 0 -3.47183e+06 8203.8 0 -3.48674e+06 7688.3 0 -3.50065e+06 7134.23 0 -3.51348e+06 6542.9 0 -3.52518e+06 5916.11 0 -3.53566e+06 5256.17 0 -3.54488e+06 4565.9 0 -3.55278e+06 3848.59 0 -3.55931e+06 3107.98 0 -3.56443e+06 2348.22 0 -3.56811e+06 1573.78 0 -3.57032e+06 789.397 0 -3.57107e+06 -4.40774e-06 0 -2.13322e+06 0 0 -2.13331e+06 117.915 0 -2.13357e+06 235.855 0 -2.13401e+06 353.848 0 -2.13463e+06 471.918 0 -2.13543e+06 590.092 0 -2.1364e+06 708.397 0 -2.13755e+06 826.857 0 -2.13888e+06 945.501 0 -2.14039e+06 1064.35 0 -2.14208e+06 1183.44 0 -2.14394e+06 1302.79 0 -2.14598e+06 1422.43 0 -2.14821e+06 1542.39 0 -2.15061e+06 1662.69 0 -2.1532e+06 1783.36 0 -2.15596e+06 1904.43 0 -2.15891e+06 2025.93 0 -2.16204e+06 2147.89 0 -2.16535e+06 2270.33 0 -2.16885e+06 2393.28 0 -2.17253e+06 2516.78 0 -2.1764e+06 2640.85 0 -2.18046e+06 2765.52 0 -2.1847e+06 2890.83 0 -2.18913e+06 3016.8 0 -2.19375e+06 3143.47 0 -2.19856e+06 3270.86 0 -2.20356e+06 3399.02 0 -2.20876e+06 3527.97 0 -2.21414e+06 3657.74 0 -2.21973e+06 3788.37 0 -2.22551e+06 3919.89 0 -2.23149e+06 4052.34 0 -2.23767e+06 4185.75 0 -2.24405e+06 4320.16 0 -2.25063e+06 4455.59 0 -2.25741e+06 4592.1 0 -2.2644e+06 4729.7 0 -2.2716e+06 4868.45 0 -2.27901e+06 5008.37 0 -2.28663e+06 5149.5 0 -2.29446e+06 5291.89 0 -2.3025e+06 5435.56 0 -2.31076e+06 5580.55 0 -2.31924e+06 5726.9 0 -2.32795e+06 5874.65 0 -2.33687e+06 6023.83 0 -2.34602e+06 6174.48 0 -2.35539e+06 6326.63 0 -2.365e+06 6480.32 0 -2.37483e+06 6635.59 0 -2.3849e+06 6792.45 0 -2.39521e+06 6950.95 0 -2.40576e+06 7111.12 0 -2.41654e+06 7272.97 0 -2.42758e+06 7436.54 0 -2.43885e+06 7601.85 0 -2.45038e+06 7768.91 0 -2.46216e+06 7937.74 0 -2.47419e+06 8108.35 0 -2.48649e+06 8280.75 0 -2.49904e+06 8454.93 0 -2.51185e+06 8630.89 0 -2.52493e+06 8808.61 0 -2.53828e+06 8988.08 0 -2.55189e+06 9169.25 0 -2.56578e+06 9352.1 0 -2.57995e+06 9536.55 0 -2.59439e+06 9722.56 0 -2.60912e+06 9910.03 0 -2.62412e+06 10098.9 0 -2.63942e+06 10289 0 -2.65499e+06 10480.2 0 -2.67086e+06 10672.4 0 -2.68701e+06 10865.3 0 -2.70345e+06 11058.8 0 -2.72019e+06 11252.7 0 -2.73721e+06 11446.5 0 -2.75452e+06 11640.2 0 -2.77213e+06 11833.2 0 -2.79002e+06 12025.1 0 -2.80821e+06 12215.7 0 -2.82667e+06 12404.2 0 -2.84542e+06 12590.3 0 -2.86444e+06 12773.2 0 -2.88374e+06 12952.3 0 -2.9033e+06 13126.8 0 -2.92312e+06 13295.9 0 -2.94319e+06 13458.7 0 -2.96349e+06 13614.1 0 -2.98403e+06 13761.1 0 -3.00478e+06 13898.4 0 -3.02572e+06 14024.7 0 -3.04685e+06 14138.7 0 -3.06814e+06 14238.7 0 -3.08956e+06 14323.2 0 -3.11111e+06 14390.4 0 -3.13274e+06 14438.5 0 -3.15442e+06 14465.5 0 -3.17613e+06 14469.3 0 -3.19783e+06 14447.8 0 -3.21947e+06 14398.7 0 -3.24102e+06 14319.7 0 -3.26243e+06 14208.6 0 -3.28365e+06 14062.9 0 -3.30462e+06 13880.4 0 -3.32528e+06 13658.7 0 -3.34559e+06 13395.6 0 -3.36547e+06 13089.2 0 -3.38485e+06 12737.6 0 -3.40368e+06 12339.1 0 -3.42187e+06 11892.4 0 -3.43935e+06 11396.6 0 -3.45606e+06 10851.2 0 -3.4719e+06 10256.1 0 -3.48682e+06 9611.66 0 -3.50074e+06 8919.03 0 -3.51358e+06 8179.81 0 -3.52527e+06 7396.24 0 -3.53576e+06 6571.23 0 -3.54498e+06 5708.28 0 -3.55289e+06 4811.52 0 -3.55942e+06 3885.62 0 -3.56454e+06 2935.77 0 -3.56822e+06 1967.55 0 -3.57044e+06 986.913 0 -3.57118e+06 3.08486e-06 0 -2.1332e+06 0 0 -2.13329e+06 141.497 0 -2.13355e+06 283.024 0 -2.134e+06 424.614 0 -2.13462e+06 566.298 0 -2.13541e+06 708.106 0 -2.13639e+06 850.07 0 -2.13754e+06 992.222 0 -2.13887e+06 1134.59 0 -2.14037e+06 1277.21 0 -2.14206e+06 1420.12 0 -2.14392e+06 1563.34 0 -2.14597e+06 1706.91 0 -2.14819e+06 1850.85 0 -2.15059e+06 1995.21 0 -2.15318e+06 2140.02 0 -2.15594e+06 2285.3 0 -2.15889e+06 2431.1 0 -2.16202e+06 2577.44 0 -2.16534e+06 2724.37 0 -2.16883e+06 2871.92 0 -2.17252e+06 3020.11 0 -2.17638e+06 3168.99 0 -2.18044e+06 3318.6 0 -2.18468e+06 3468.97 0 -2.18911e+06 3620.13 0 -2.19373e+06 3772.13 0 -2.19854e+06 3925.01 0 -2.20354e+06 4078.79 0 -2.20874e+06 4233.53 0 -2.21413e+06 4389.25 0 -2.21971e+06 4546.01 0 -2.22549e+06 4703.83 0 -2.23147e+06 4862.77 0 -2.23765e+06 5022.86 0 -2.24403e+06 5184.15 0 -2.25061e+06 5346.67 0 -2.25739e+06 5510.47 0 -2.26438e+06 5675.6 0 -2.27158e+06 5842.09 0 -2.27899e+06 6010 0 -2.28661e+06 6179.36 0 -2.29444e+06 6350.21 0 -2.30248e+06 6522.62 0 -2.31074e+06 6696.61 0 -2.31922e+06 6872.23 0 -2.32792e+06 7049.52 0 -2.33685e+06 7228.54 0 -2.34599e+06 7409.32 0 -2.35537e+06 7591.9 0 -2.36497e+06 7776.33 0 -2.37481e+06 7962.64 0 -2.38488e+06 8150.88 0 -2.39519e+06 8341.08 0 -2.40573e+06 8533.28 0 -2.41652e+06 8727.5 0 -2.42755e+06 8923.79 0 -2.43883e+06 9122.15 0 -2.45036e+06 9322.63 0 -2.46214e+06 9525.22 0 -2.47417e+06 9729.96 0 -2.48646e+06 9936.83 0 -2.49901e+06 10145.8 0 -2.51183e+06 10357 0 -2.5249e+06 10570.3 0 -2.53825e+06 10785.6 0 -2.55187e+06 11003 0 -2.56576e+06 11222.5 0 -2.57992e+06 11443.8 0 -2.59437e+06 11667 0 -2.60909e+06 11892 0 -2.6241e+06 12118.6 0 -2.63939e+06 12346.7 0 -2.65496e+06 12576.2 0 -2.67083e+06 12806.8 0 -2.68698e+06 13038.3 0 -2.70342e+06 13270.6 0 -2.72016e+06 13503.2 0 -2.73718e+06 13735.9 0 -2.7545e+06 13968.2 0 -2.7721e+06 14199.8 0 -2.79e+06 14430.2 0 -2.80818e+06 14658.9 0 -2.82664e+06 14885.2 0 -2.84539e+06 15108.5 0 -2.86442e+06 15328 0 -2.88371e+06 15543 0 -2.90327e+06 15752.4 0 -2.92309e+06 15955.4 0 -2.94316e+06 16150.7 0 -2.96347e+06 16337.3 0 -2.98401e+06 16513.7 0 -3.00476e+06 16678.5 0 -3.0257e+06 16830.1 0 -3.04683e+06 16966.9 0 -3.06812e+06 17087.1 0 -3.08955e+06 17188.5 0 -3.1111e+06 17269.3 0 -3.13273e+06 17327.1 0 -3.15442e+06 17359.5 0 -3.17613e+06 17364.1 0 -3.19783e+06 17338.4 0 -3.21948e+06 17279.6 0 -3.24104e+06 17184.9 0 -3.26245e+06 17051.6 0 -3.28367e+06 16876.9 0 -3.30465e+06 16658 0 -3.32532e+06 16392 0 -3.34563e+06 16076.5 0 -3.36552e+06 15708.8 0 -3.38491e+06 15286.9 0 -3.40374e+06 14808.8 0 -3.42194e+06 14272.8 0 -3.43943e+06 13677.9 0 -3.45614e+06 13023.4 0 -3.472e+06 12309.2 0 -3.48692e+06 11535.9 0 -3.50084e+06 10704.7 0 -3.51369e+06 9817.51 0 -3.52539e+06 8877.11 0 -3.53589e+06 7886.96 0 -3.54511e+06 6851.26 0 -3.55302e+06 5774.96 0 -3.55956e+06 4663.68 0 -3.56468e+06 3523.64 0 -3.56837e+06 2361.55 0 -3.57059e+06 1184.54 0 -3.57133e+06 -2.09094e-06 0 -2.13318e+06 0 0 -2.13327e+06 165.078 0 -2.13353e+06 330.192 0 -2.13398e+06 495.379 0 -2.13459e+06 660.675 0 -2.13539e+06 826.116 0 -2.13636e+06 991.74 0 -2.13752e+06 1157.58 0 -2.13885e+06 1323.68 0 -2.14035e+06 1490.07 0 -2.14204e+06 1656.79 0 -2.1439e+06 1823.88 0 -2.14595e+06 1991.37 0 -2.14817e+06 2159.31 0 -2.15057e+06 2327.73 0 -2.15316e+06 2496.66 0 -2.15592e+06 2666.16 0 -2.15887e+06 2836.26 0 -2.162e+06 3006.99 0 -2.16531e+06 3178.41 0 -2.16881e+06 3350.54 0 -2.17249e+06 3523.43 0 -2.17636e+06 3697.13 0 -2.18042e+06 3871.67 0 -2.18466e+06 4047.1 0 -2.18909e+06 4223.45 0 -2.19371e+06 4400.78 0 -2.19852e+06 4579.14 0 -2.20352e+06 4758.55 0 -2.20871e+06 4939.07 0 -2.2141e+06 5120.75 0 -2.21969e+06 5303.63 0 -2.22547e+06 5487.76 0 -2.23145e+06 5673.18 0 -2.23762e+06 5859.95 0 -2.244e+06 6048.12 0 -2.25058e+06 6237.73 0 -2.25737e+06 6428.83 0 -2.26436e+06 6621.47 0 -2.27156e+06 6815.71 0 -2.27896e+06 7011.6 0 -2.28658e+06 7209.18 0 -2.29441e+06 7408.51 0 -2.30246e+06 7609.65 0 -2.31072e+06 7812.63 0 -2.3192e+06 8017.52 0 -2.3279e+06 8224.37 0 -2.33682e+06 8433.22 0 -2.34597e+06 8644.12 0 -2.35534e+06 8857.13 0 -2.36495e+06 9072.3 0 -2.37478e+06 9289.66 0 -2.38485e+06 9509.27 0 -2.39516e+06 9731.17 0 -2.40571e+06 9955.4 0 -2.41649e+06 10182 0 -2.42752e+06 10411 0 -2.4388e+06 10642.4 0 -2.45033e+06 10876.3 0 -2.46211e+06 11112.7 0 -2.47414e+06 11351.5 0 -2.48643e+06 11592.9 0 -2.49898e+06 11836.7 0 -2.51179e+06 12083.1 0 -2.52487e+06 12331.9 0 -2.53822e+06 12583.1 0 -2.55184e+06 12836.8 0 -2.56573e+06 13092.8 0 -2.57989e+06 13351 0 -2.59433e+06 13611.4 0 -2.60906e+06 13873.9 0 -2.62406e+06 14138.3 0 -2.63935e+06 14404.4 0 -2.65493e+06 14672.2 0 -2.67079e+06 14941.2 0 -2.68695e+06 15211.4 0 -2.70339e+06 15482.3 0 -2.72012e+06 15753.7 0 -2.73715e+06 16025.2 0 -2.75446e+06 16296.3 0 -2.77207e+06 16566.5 0 -2.78996e+06 16835.3 0 -2.80814e+06 17102.1 0 -2.82661e+06 17366.2 0 -2.84536e+06 17626.7 0 -2.86438e+06 17882.9 0 -2.88368e+06 18133.7 0 -2.90324e+06 18378.1 0 -2.92306e+06 18614.9 0 -2.94314e+06 18842.9 0 -2.96344e+06 19060.6 0 -2.98398e+06 19266.5 0 -3.00473e+06 19458.8 0 -3.02568e+06 19635.8 0 -3.04682e+06 19795.5 0 -3.06811e+06 19935.7 0 -3.08954e+06 20054.2 0 -3.11109e+06 20148.5 0 -3.13272e+06 20216 0 -3.15442e+06 20254 0 -3.17613e+06 20259.5 0 -3.19784e+06 20229.6 0 -3.21949e+06 20161.1 0 -3.24105e+06 20050.8 0 -3.26247e+06 19895.4 0 -3.2837e+06 19691.7 0 -3.30468e+06 19436.4 0 -3.32536e+06 19126.2 0 -3.34568e+06 18758.2 0 -3.36557e+06 18329.4 0 -3.38497e+06 17837.3 0 -3.40381e+06 17279.5 0 -3.42202e+06 16654.3 0 -3.43952e+06 15960.2 0 -3.45624e+06 15196.6 0 -3.4721e+06 14363.4 0 -3.48704e+06 13461.1 0 -3.50097e+06 12491.3 0 -3.51382e+06 11456.2 0 -3.52553e+06 10358.9 0 -3.53603e+06 9203.5 0 -3.54527e+06 7994.96 0 -3.55318e+06 6739.03 0 -3.55972e+06 5442.26 0 -3.56485e+06 4111.9 0 -3.56854e+06 2755.82 0 -3.57076e+06 1382.3 0 -3.5715e+06 1.38528e-06 0 -2.13316e+06 0 0 -2.13324e+06 188.659 0 -2.13351e+06 377.359 0 -2.13395e+06 566.142 0 -2.13457e+06 755.05 0 -2.13537e+06 944.124 0 -2.13634e+06 1133.41 0 -2.13749e+06 1322.94 0 -2.13882e+06 1512.76 0 -2.14033e+06 1702.92 0 -2.14201e+06 1893.46 0 -2.14388e+06 2084.41 0 -2.14592e+06 2275.83 0 -2.14815e+06 2467.76 0 -2.15055e+06 2660.23 0 -2.15313e+06 2853.3 0 -2.1559e+06 3047.01 0 -2.15885e+06 3241.41 0 -2.16198e+06 3436.53 0 -2.16529e+06 3632.43 0 -2.16879e+06 3829.15 0 -2.17247e+06 4026.74 0 -2.17634e+06 4225.25 0 -2.18039e+06 4424.72 0 -2.18463e+06 4625.2 0 -2.18906e+06 4826.75 0 -2.19368e+06 5029.42 0 -2.19849e+06 5233.24 0 -2.20349e+06 5438.29 0 -2.20869e+06 5644.59 0 -2.21408e+06 5852.22 0 -2.21966e+06 6061.23 0 -2.22544e+06 6271.66 0 -2.23142e+06 6483.57 0 -2.2376e+06 6697.02 0 -2.24398e+06 6912.06 0 -2.25056e+06 7128.75 0 -2.25734e+06 7347.15 0 -2.26433e+06 7567.32 0 -2.27153e+06 7789.3 0 -2.27894e+06 8013.17 0 -2.28655e+06 8238.98 0 -2.29438e+06 8466.78 0 -2.30243e+06 8696.65 0 -2.31069e+06 8928.63 0 -2.31917e+06 9162.78 0 -2.32787e+06 9399.17 0 -2.33679e+06 9637.86 0 -2.34594e+06 9878.89 0 -2.35531e+06 10122.3 0 -2.36492e+06 10368.2 0 -2.37475e+06 10616.6 0 -2.38482e+06 10867.6 0 -2.39513e+06 11121.2 0 -2.40567e+06 11377.5 0 -2.41646e+06 11636.4 0 -2.42749e+06 11898.2 0 -2.43877e+06 12162.6 0 -2.45029e+06 12429.9 0 -2.46207e+06 12700.1 0 -2.47411e+06 12973 0 -2.4864e+06 13248.9 0 -2.49895e+06 13527.6 0 -2.51176e+06 13809.1 0 -2.52484e+06 14093.5 0 -2.53818e+06 14380.6 0 -2.5518e+06 14670.5 0 -2.56569e+06 14963.1 0 -2.57985e+06 15258.2 0 -2.5943e+06 15555.8 0 -2.60902e+06 15855.8 0 -2.62403e+06 16158 0 -2.63932e+06 16462.1 0 -2.65489e+06 16768.1 0 -2.67076e+06 17075.6 0 -2.68691e+06 17384.4 0 -2.70335e+06 17694 0 -2.72008e+06 18004.2 0 -2.73711e+06 18314.5 0 -2.75442e+06 18624.4 0 -2.77203e+06 18933.2 0 -2.78992e+06 19240.5 0 -2.80811e+06 19545.4 0 -2.82657e+06 19847.2 0 -2.84532e+06 20145 0 -2.86435e+06 20437.8 0 -2.88365e+06 20724.5 0 -2.90321e+06 21003.9 0 -2.92303e+06 21274.7 0 -2.9431e+06 21535.3 0 -2.96341e+06 21784.1 0 -2.98395e+06 22019.5 0 -3.00471e+06 22239.4 0 -3.02566e+06 22441.8 0 -3.04679e+06 22624.4 0 -3.06809e+06 22784.8 0 -3.08953e+06 22920.3 0 -3.11108e+06 23028.2 0 -3.13272e+06 23105.5 0 -3.15441e+06 23149.1 0 -3.17613e+06 23155.5 0 -3.19785e+06 23121.5 0 -3.21951e+06 23043.4 0 -3.24107e+06 22917.5 0 -3.2625e+06 22740.1 0 -3.28373e+06 22507.5 0 -3.30472e+06 22215.8 0 -3.32541e+06 21861.5 0 -3.34574e+06 21441 0 -3.36564e+06 20951.1 0 -3.38505e+06 20388.8 0 -3.4039e+06 19751.4 0 -3.42211e+06 19037 0 -3.43962e+06 18243.8 0 -3.45635e+06 17371.1 0 -3.47223e+06 16418.8 0 -3.48717e+06 15387.6 0 -3.50111e+06 14279.1 0 -3.51397e+06 13095.9 0 -3.52569e+06 11841.7 0 -3.5362e+06 10521 0 -3.54544e+06 9139.5 0 -3.55336e+06 7703.82 0 -3.55991e+06 6221.43 0 -3.56504e+06 4700.63 0 -3.56873e+06 3150.39 0 -3.57096e+06 1580.22 0 -3.5717e+06 -1.64498e-06 0 -2.13313e+06 0 0 -2.13322e+06 212.239 0 -2.13348e+06 424.524 0 -2.13393e+06 636.903 0 -2.13454e+06 849.422 0 -2.13534e+06 1062.13 0 -2.13631e+06 1275.07 0 -2.13747e+06 1488.29 0 -2.13879e+06 1701.84 0 -2.1403e+06 1915.77 0 -2.14199e+06 2130.12 0 -2.14385e+06 2344.94 0 -2.1459e+06 2560.28 0 -2.14812e+06 2776.2 0 -2.15052e+06 2992.73 0 -2.15311e+06 3209.93 0 -2.15587e+06 3427.85 0 -2.15882e+06 3646.54 0 -2.16195e+06 3866.05 0 -2.16526e+06 4086.43 0 -2.16876e+06 4307.74 0 -2.17244e+06 4530.03 0 -2.17631e+06 4753.35 0 -2.18036e+06 4977.75 0 -2.1846e+06 5203.29 0 -2.18903e+06 5430.04 0 -2.19365e+06 5658.03 0 -2.19846e+06 5887.33 0 -2.20347e+06 6118 0 -2.20866e+06 6350.09 0 -2.21405e+06 6583.67 0 -2.21963e+06 6818.8 0 -2.22541e+06 7055.53 0 -2.23139e+06 7293.93 0 -2.23757e+06 7534.05 0 -2.24395e+06 7775.97 0 -2.25053e+06 8019.75 0 -2.25731e+06 8265.45 0 -2.2643e+06 8513.13 0 -2.2715e+06 8762.86 0 -2.2789e+06 9014.71 0 -2.28652e+06 9268.74 0 -2.29435e+06 9525.01 0 -2.3024e+06 9783.61 0 -2.31066e+06 10044.6 0 -2.31914e+06 10308 0 -2.32783e+06 10573.9 0 -2.33676e+06 10842.5 0 -2.3459e+06 11113.6 0 -2.35528e+06 11387.5 0 -2.36488e+06 11664.1 0 -2.37472e+06 11943.6 0 -2.38479e+06 12225.9 0 -2.39509e+06 12511.2 0 -2.40564e+06 12799.5 0 -2.41642e+06 13090.8 0 -2.42745e+06 13385.3 0 -2.43873e+06 13682.8 0 -2.45026e+06 13983.5 0 -2.46203e+06 14287.4 0 -2.47407e+06 14594.5 0 -2.48636e+06 14904.8 0 -2.49891e+06 15218.3 0 -2.51172e+06 15535.1 0 -2.5248e+06 15855 0 -2.53814e+06 16178 0 -2.55176e+06 16504.2 0 -2.56565e+06 16833.3 0 -2.57981e+06 17165.3 0 -2.59426e+06 17500.2 0 -2.60898e+06 17837.7 0 -2.62398e+06 18177.6 0 -2.63927e+06 18519.8 0 -2.65485e+06 18864 0 -2.67071e+06 19210 0 -2.68686e+06 19557.4 0 -2.70331e+06 19905.8 0 -2.72004e+06 20254.8 0 -2.73707e+06 20603.8 0 -2.75438e+06 20952.5 0 -2.77199e+06 21300 0 -2.78988e+06 21645.7 0 -2.80806e+06 21988.8 0 -2.82653e+06 22328.4 0 -2.84528e+06 22663.5 0 -2.86431e+06 22992.9 0 -2.88361e+06 23315.5 0 -2.90317e+06 23629.9 0 -2.92299e+06 23934.6 0 -2.94307e+06 24227.8 0 -2.96338e+06 24507.9 0 -2.98392e+06 24772.8 0 -3.00468e+06 25020.3 0 -3.02563e+06 25248.2 0 -3.04677e+06 25453.7 0 -3.06807e+06 25634.3 0 -3.08951e+06 25787 0 -3.11106e+06 25908.5 0 -3.13271e+06 25995.6 0 -3.15441e+06 26044.8 0 -3.17614e+06 26052.3 0 -3.19785e+06 26014.2 0 -3.21952e+06 25926.5 0 -3.24109e+06 25785.1 0 -3.26252e+06 25585.8 0 -3.28377e+06 25324.2 0 -3.30477e+06 24996.3 0 -3.32546e+06 24597.9 0 -3.3458e+06 24125.1 0 -3.36571e+06 23574.1 0 -3.38513e+06 22941.6 0 -3.40399e+06 22224.7 0 -3.42222e+06 21421 0 -3.43974e+06 20528.8 0 -3.45648e+06 19547 0 -3.47237e+06 18475.6 0 -3.48732e+06 17315.4 0 -3.50127e+06 16068.2 0 -3.51415e+06 14736.9 0 -3.52587e+06 13325.6 0 -3.53639e+06 11839.6 0 -3.54564e+06 10285 0 -3.55357e+06 8669.45 0 -3.56012e+06 7001.28 0 -3.56526e+06 5289.87 0 -3.56895e+06 3545.32 0 -3.57118e+06 1778.32 0 -3.57192e+06 1.43718e-06 0 -2.1331e+06 0 0 -2.13319e+06 235.818 0 -2.13345e+06 471.687 0 -2.1339e+06