<?xml version="1.0"?> 
<VTKFile type="StructuredGrid" version="0.1"> 
<StructuredGrid WholeExtent="0 15 0 15 0 0"> 
<Piece Extent="0 15 0 15 0 0"> 
<PointData>
<DataArray type="Float32" Name="|E|" format="ascii" NumberOfComponents="3"> 
1.14973e+06 -478104 0 1.65519e+06 -199999 0 1.77306e+06 -46847.1 0 1.74012e+06 66082.6 0 1.6026e+06 121286 0 1.43374e+06 137191 0 1.26227e+06 133206 0 1.10469e+06 119928 0 966607 103456 0 849768 86357.3 0 753781 69860 0 677538 54321.6 0 619752 39771.3 0 579260 26039.3 0 555163 12878.6 0 546892 0 0 1.19242e+06 -495859 0 1.66728e+06 -212222 0 1.78281e+06 -45917.5 0 1.74255e+06 73197.4 0 1.60177e+06 130702 0 1.43123e+06 146931 0 1.25942e+06 142258 0 1.10198e+06 127948 0 964261 110311 0 847821 92062.6 0 752203 74467.3 0 676268 57903.2 0 618720 42392.9 0 578396 27755.5 0 554400 13727.1 0 546164 0 0 1.23293e+06 -512702 0 1.68067e+06 -223471 0 1.79274e+06 -44460.8 0 1.74515e+06 80669.2 0 1.60094e+06 140292 0 1.42869e+06 156726 0 1.25651e+06 151314 0 1.09921e+06 135950 0 961851 117142 0 845812 97744.2 0 750566 79054.8 0 674942 61469.1 0 617636 45003.1 0 577483 29464.3 0 553589 14571.9 0 545388 0 0 1.27156e+06 -528769 0 1.69523e+06 -233787 0 1.80289e+06 -42457 0 1.74791e+06 88505.1 0 1.6001e+06 150056 0 1.42611e+06 166575 0 1.25353e+06 160375 0 1.09637e+06 143933 0 959376 123949 0 843741 103402 0 748871 83622.2 0 673562 65018.9 0 616500 47601.6 0 576520 31165.5 0 552729 15412.9 0 544564 0 0 1.30862e+06 -544179 0 1.71086e+06 -243197 0 1.81325e+06 -39887.4 0 1.7508e+06 96711.8 0 1.59923e+06 159995 0 1.4235e+06 176480 0 1.2505e+06 169440 0 1.09347e+06 151896 0 956836 130732 0 841609 109036 0 747117 88169.2 0 672126 68552.7 0 615312 50188.3 0 575508 32859 0 551822 16250.3 0 543692 0 0 1.34436e+06 -559041 0 1.72747e+06 -251726 0 1.82385e+06 -36733.9 0 1.75379e+06 105296 0 1.59834e+06 170110 0 1.42083e+06 186441 0 1.2474e+06 178509 0 1.0905e+06 159841 0 954232 137491 0 839414 114646 0 745305 92695.6 0 670636 72070 0 614072 52763.1 0 574445 34544.8 0 550866 17083.7 0 542772 0 0 1.37902e+06 -573455 0 1.74497e+06 -259394 0 1.83468e+06 -32978.8 0 1.75687e+06 114263 0 1.59741e+06 180401 0 1.41811e+06 196459 0 1.24424e+06 187582 0 1.08747e+06 167767 0 951562 144224 0 837158 120232 0 743434 97201.2 0 669091 75570.8 0 612781 55325.7 0 573334 36222.6 0 549862 17913.3 0 541805 0 0 1.41282e+06 -587510 0 1.76332e+06 -266213 0 1.84573e+06 -28604.5 0 1.76001e+06 123618 0 1.59643e+06 190867 0 1.41533e+06 206533 0 1.241e+06 196658 0 1.08437e+06 175674 0 948826 150932 0 834839 125792 0 741506 101686 0 667491 79054.9 0 611437 57876.1 0 572173 37892.4 0 548810 18739 0 540791 0 0 1.44596e+06 -601292 0 1.78246e+06 -272190 0 1.85702e+06 -23593.9 0 1.76319e+06 133368 0 1.59541e+06 201509 0 1.41249e+06 216663 0 1.2377e+06 205736 0 1.0812e+06 183561 0 946025 157615 0 832459 131328 0 739519 106149 0 665836 82522 0 610042 60414 0 570962 39554.1 0 547710 19560.6 0 539729 0 0 1.47864e+06 -614881 0 1.80233e+06 -277328 0 1.86853e+06 -17929.8 0 1.76638e+06 143515 0 1.59432e+06 212326 0 1.40958e+06 226848 0 1.23432e+06 214817 0 1.07796e+06 191428 0 943157 164272 0 830017 136839 0 737474 110590 0 664128 85971.9 0 608596 62939.2 0 569703 41207.6 0 546562 20378.2 0 538619 0 0 1.51104e+06 -628352 0 1.82291e+06 -281621 0 1.88025e+06 -11595.6 0 1.76957e+06 154064 0 1.59316e+06 223317 0 1.40659e+06 237088 0 1.23087e+06 223900 0 1.07465e+06 199275 0 940223 170902 0 827512 142325 0 735371 115010 0 662364 89404.4 0 607099 65451.7 0 568394 42852.7 0 545366 21191.7 0 537463 0 0 1.54333e+06 -641782 0 1.84416e+06 -285061 0 1.89218e+06 -4574.63 0 1.77273e+06 165019 0 1.59192e+06 234481 0 1.40353e+06 247380 0 1.22734e+06 232984 0 1.07126e+06 207101 0 937222 177507 0 824945 147784 0 733210 119408 0 660547 92819.3 0 605550 67951.3 0 567036 44489.3 0 544123 22001 0 536259 0 0 1.5757e+06 -655244 0 1.86604e+06 -287631 0 1.90431e+06 3149.39 0 1.77582e+06 176382 0 1.5906e+06 245817 0 1.40038e+06 257724 0 1.22373e+06 242070 0 1.06781e+06 214905 0 934155 184085 0 822317 153218 0 730992 123783 0 658676 96216.4 0 603950 70437.7 0 565629 46117.4 0 542832 22806.1 0 535008 0 0 1.60833e+06 -668812 0 1.88852e+06 -289307 0 1.91663e+06 11592.5 0 1.77884e+06 188154 0 1.58919e+06 257324 0 1.39713e+06 268117 0 1.22005e+06 251156 0 1.06429e+06 222686 0 931020 190636 0 819626 158625 0 728716 128136 0 656750 99595.4 0 602299 72910.9 0 564174 47736.8 0 541493 23606.9 0 533709 0 0 1.64141e+06 -682566 0 1.91157e+06 -290060 0 1.92914e+06 20770.1 0 1.78173e+06 200336 0 1.58769e+06 269000 0 1.39379e+06 278556 0 1.21628e+06 260244 0 1.06068e+06 230444 0 927818 197161 0 816873 164005 0 726382 132466 0 654771 102956 0 600597 75370.7 0 562669 49347.3 0 540107 24403.4 0 532364 0 0 1.67512e+06 -696585 0 1.93513e+06 -289851 0 1.94184e+06 30697.4 0 1.78448e+06 212927 0 1.58609e+06 280844 0 1.39035e+06 289036 0 1.21243e+06 269332 0 1.05701e+06 238176 0 924549 203659 0 814058 169357 0 723990 136773 0 652738 106298 0 598844 77817 0 561116 50949 0 538674 25195.4 0 530972 0 0 </DataArray> 
</PointData> 
<Points> 
<DataArray type="Float32" NumberOfComponents="3"> 
0.1905 0.0099 0 0.202667 0.0099 0 0.214833 0.0099 0 0.227 0.0099 0 0.239167 0.0099 0 0.251333 0.0099 0 0.2635 0.0099 0 0.275667 0.0099 0 0.287833 0.0099 0 0.3 0.0099 0 0.312167 0.0099 0 0.324333 0.0099 0 0.3365 0.0099 0 0.348667 0.0099 0 0.360833 0.0099 0 0.373 0.0099 0 0.19078 0.0105733 0 0.202928 0.0105733 0 0.215076 0.0105733 0 0.227224 0.0105733 0 0.239372 0.0105733 0 0.25152 0.0105733 0 0.263668 0.0105733 0 0.275816 0.0105733 0 0.287964 0.0105733 0 0.300112 0.0105733 0 0.31226 0.0105733 0 0.324408 0.0105733 0 0.336556 0.0105733 0 0.348704 0.0105733 0 0.360852 0.0105733 0 0.373 0.0105733 0 0.19106 0.0112467 0 0.203189 0.0112467 0 0.215319 0.0112467 0 0.227448 0.0112467 0 0.239577 0.0112467 0 0.251707 0.0112467 0 0.263836 0.0112467 0 0.275965 0.0112467 0 0.288095 0.0112467 0 0.300224 0.0112467 0 0.312353 0.0112467 0 0.324483 0.0112467 0 0.336612 0.0112467 0 0.348741 0.0112467 0 0.360871 0.0112467 0 0.373 0.0112467 0 0.19134 0.01192 0 0.203451 0.01192 0 0.215561 0.01192 0 0.227672 0.01192 0 0.239783 0.01192 0 0.251893 0.01192 0 0.264004 0.01192 0 0.276115 0.01192 0 0.288225 0.01192 0 0.300336 0.01192 0 0.312447 0.01192 0 0.324557 0.01192 0 0.336668 0.01192 0 0.348779 0.01192 0 0.360889 0.01192 0 0.373 0.01192 0 0.19162 0.0125933 0 0.203712 0.0125933 0 0.215804 0.0125933 0 0.227896 0.0125933 0 0.239988 0.0125933 0 0.25208 0.0125933 0 0.264172 0.0125933 0 0.276264 0.0125933 0 0.288356 0.0125933 0 0.300448 0.0125933 0 0.31254 0.0125933 0 0.324632 0.0125933 0 0.336724 0.0125933 0 0.348816 0.0125933 0 0.360908 0.0125933 0 0.373 0.0125933 0 0.1919 0.0132667 0 0.203973 0.0132667 0 0.216047 0.0132667 0 0.22812 0.0132667 0 0.240193 0.0132667 0 0.252267 0.0132667 0 0.26434 0.0132667 0 0.276413 0.0132667 0 0.288487 0.0132667 0 0.30056 0.0132667 0 0.312633 0.0132667 0 0.324707 0.0132667 0 0.33678 0.0132667 0 0.348853 0.0132667 0 0.360927 0.0132667 0 0.373 0.0132667 0 0.19218 0.01394 0 0.204235 0.01394 0 0.216289 0.01394 0 0.228344 0.01394 0 0.240399 0.01394 0 0.252453 0.01394 0 0.264508 0.01394 0 0.276563 0.01394 0 0.288617 0.01394 0 0.300672 0.01394 0 0.312727 0.01394 0 0.324781 0.01394 0 0.336836 0.01394 0 0.348891 0.01394 0 0.360945 0.01394 0 0.373 0.01394 0 0.19246 0.0146133 0 0.204496 0.0146133 0 0.216532 0.0146133 0 0.228568 0.0146133 0 0.240604 0.0146133 0 0.25264 0.0146133 0 0.264676 0.0146133 0 0.276712 0.0146133 0 0.288748 0.0146133 0 0.300784 0.0146133 0 0.31282 0.0146133 0 0.324856 0.0146133 0 0.336892 0.0146133 0 0.348928 0.0146133 0 0.360964 0.0146133 0 0.373 0.0146133 0 0.19274 0.0152867 0 0.204757 0.0152867 0 0.216775 0.0152867 0 0.228792 0.0152867 0 0.240809 0.0152867 0 0.252827 0.0152867 0 0.264844 0.0152867 0 0.276861 0.0152867 0 0.288879 0.0152867 0 0.300896 0.0152867 0 0.312913 0.0152867 0 0.324931 0.0152867 0 0.336948 0.0152867 0 0.348965 0.0152867 0 0.360983 0.0152867 0 0.373 0.0152867 0 0.19302 0.01596 0 0.205019 0.01596 0 0.217017 0.01596 0 0.229016 0.01596 0 0.241015 0.01596 0 0.253013 0.01596 0 0.265012 0.01596 0 0.277011 0.01596 0 0.289009 0.01596 0 0.301008 0.01596 0 0.313007 0.01596 0 0.325005 0.01596 0 0.337004 0.01596 0 0.349003 0.01596 0 0.361001 0.01596 0 0.373 0.01596 0 0.1933 0.0166333 0 0.20528 0.0166333 0 0.21726 0.0166333 0 0.22924 0.0166333 0 0.24122 0.0166333 0 0.2532 0.0166333 0 0.26518 0.0166333 0 0.27716 0.0166333 0 0.28914 0.0166333 0 0.30112 0.0166333 0 0.3131 0.0166333 0 0.32508 0.0166333 0 0.33706 0.0166333 0 0.34904 0.0166333 0 0.36102 0.0166333 0 0.373 0.0166333 0 0.19358 0.0173067 0 0.205541 0.0173067 0 0.217503 0.0173067 0 0.229464 0.0173067 0 0.241425 0.0173067 0 0.253387 0.0173067 0 0.265348 0.0173067 0 0.277309 0.0173067 0 0.289271 0.0173067 0 0.301232 0.0173067 0 0.313193 0.0173067 0 0.325155 0.0173067 0 0.337116 0.0173067 0 0.349077 0.0173067 0 0.361039 0.0173067 0 0.373 0.0173067 0 0.19386 0.01798 0 0.205803 0.01798 0 0.217745 0.01798 0 0.229688 0.01798 0 0.241631 0.01798 0 0.253573 0.01798 0 0.265516 0.01798 0 0.277459 0.01798 0 0.289401 0.01798 0 0.301344 0.01798 0 0.313287 0.01798 0 0.325229 0.01798 0 0.337172 0.01798 0 0.349115 0.01798 0 0.361057 0.01798 0 0.373 0.01798 0 0.19414 0.0186533 0 0.206064 0.0186533 0 0.217988 0.0186533 0 0.229912 0.0186533 0 0.241836 0.0186533 0 0.25376 0.0186533 0 0.265684 0.0186533 0 0.277608 0.0186533 0 0.289532 0.0186533 0 0.301456 0.0186533 0 0.31338 0.0186533 0 0.325304 0.0186533 0 0.337228 0.0186533 0 0.349152 0.0186533 0 0.361076 0.0186533 0 0.373 0.0186533 0 0.19442 0.0193267 0 0.206325 0.0193267 0 0.218231 0.0193267 0 0.230136 0.0193267 0 0.242041 0.0193267 0 0.253947 0.0193267 0 0.265852 0.0193267 0 0.277757 0.0193267 0 0.289663 0.0193267 0 0.301568 0.0193267 0 0.313473 0.0193267 0 0.325379 0.0193267 0 0.337284 0.0193267 0 0.349189 0.0193267 0 0.361095 0.0193267 0 0.373 0.0193267 0 0.1947 0.02 0 0.206587 0.02 0 0.218473 0.02 0 0.23036 0.02 0 0.242247 0.02 0 0.254133 0.02 0 0.26602 0.02 0 0.277907 0.02 0 0.289793 0.02 0 0.30168 0.02 0 0.313567 0.02 0 0.325453 0.02 0 0.33734 0.02 0 0.349227 0.02 0 0.361113 0.02 0 0.373 0.02 0 
</DataArray>
</Points> 
</Piece> 
</StructuredGrid> 
</VTKFile> 
