<?xml version="1.0"?> 
<VTKFile type="StructuredGrid" version="0.1"> 
<StructuredGrid WholeExtent="0 15 0 15 0 0"> 
<Piece Extent="0 15 0 15 0 0"> 
<PointData>
<DataArray type="Float32" Name="|E|" format="ascii" NumberOfComponents="3"> 
-776784 0 0 -829075 173725 0 -886690 345577 0 -950544 516408 0 -1.02144e+06 687029 0 -1.10014e+06 858133 0 -1.18733e+06 1.03016e+06 0 -1.28376e+06 1.20302e+06 0 -1.39054e+06 1.37567e+06 0 -1.50984e+06 1.54536e+06 0 -1.64683e+06 1.7065e+06 0 -1.81258e+06 1.84905e+06 0 -2.0328e+06 1.95666e+06 0 -2.35088e+06 1.99538e+06 0 -2.8712e+06 1.87698e+06 0 -3.74031e+06 1.01773e+06 0 -726758 0 0 -781000 175084 0 -840280 348365 0 -905550 520668 0 -977665 692776 0 -1.05745e+06 865366 0 -1.14568e+06 1.03887e+06 0 -1.24326e+06 1.21328e+06 0 -1.35146e+06 1.38769e+06 0 -1.47272e+06 1.55972e+06 0 -1.61247e+06 1.72457e+06 0 -1.78203e+06 1.8737e+06 0 -2.00698e+06 1.99335e+06 0 -2.33399e+06 2.05434e+06 0 -2.87151e+06 1.98093e+06 0 -3.87871e+06 1.24589e+06 0 -676368 0 0 -732563 176359 0 -793512 350997 0 -860205 524715 0 -933546 698270 0 -1.01441e+06 872323 0 -1.10369e+06 1.04732e+06 0 -1.20238e+06 1.22328e+06 0 -1.31192e+06 1.3995e+06 0 -1.43495e+06 1.57394e+06 0 -1.57705e+06 1.74255e+06 0 -1.74977e+06 1.89821e+06 0 -1.97818e+06 2.02973e+06 0 -2.31186e+06 2.11331e+06 0 -2.86023e+06 2.08753e+06 0 -3.97273e+06 1.51055e+06 0 -625640 0 0 -683785 177550 0 -746404 353474 0 -814526 528549 0 -889097 703510 0 -971057 879002 0 -1.06136e+06 1.05548e+06 0 -1.16112e+06 1.23302e+06 0 -1.27191e+06 1.41107e+06 0 -1.39652e+06 1.58796e+06 0 -1.54061e+06 1.76033e+06 0 -1.71585e+06 1.92243e+06 0 -1.94658e+06 2.06554e+06 0 -2.28453e+06 2.17158e+06 0 -2.83762e+06 2.19456e+06 0 -4.01896e+06 1.79519e+06 0 -574601 0 0 -634691 178657 0 -698979 355796 0 -768529 532170 0 -844332 708493 0 -927382 885399 0 -1.01871e+06 1.06335e+06 0 -1.1195e+06 1.24248e+06 0 -1.23145e+06 1.42238e+06 0 -1.35745e+06 1.60171e+06 0 -1.5032e+06 1.77781e+06 0 -1.68036e+06 1.9462e+06 0 -1.91238e+06 2.10052e+06 0 -2.25216e+06 2.22853e+06 0 -2.80428e+06 2.29994e+06 0 -4.01776e+06 2.08486e+06 0 -523276 0 0 -585302 179680 0 -651255 357963 0 -722233 535578 0 -799267 713220 0 -883402 891509 0 -975729 1.07091e+06 0 -1.07752e+06 1.25163e+06 0 -1.19054e+06 1.43338e+06 0 -1.31777e+06 1.61516e+06 0 -1.46487e+06 1.79492e+06 0 -1.64339e+06 1.96939e+06 0 -1.87578e+06 2.13444e+06 0 -2.21505e+06 2.28357e+06 0 -2.76108e+06 2.40184e+06 0 -3.97289e+06 2.36609e+06 0 -471690 0 0 -535643 180619 0 -603253 359974 0 -675654 538772 0 -753915 717688 0 -839129 897328 0 -932441 1.07817e+06 0 -1.03519e+06 1.26047e+06 0 -1.1492e+06 1.44407e+06 0 -1.27751e+06 1.62826e+06 0 -1.42567e+06 1.81158e+06 0 -1.60504e+06 1.99189e+06 0 -1.83699e+06 2.16714e+06 0 -2.17359e+06 2.33621e+06 0 -2.70909e+06 2.4987e+06 0 -3.89048e+06 2.62827e+06 0 -419870 0 0 -485737 181474 0 -554995 361830 0 -628811 541752 0 -708293 721895 0 -794576 902854 0 -888857 1.08512e+06 0 -992524 1.26897e+06 0 -1.10746e+06 1.4544e+06 0 -1.23669e+06 1.64097e+06 0 -1.38568e+06 1.82773e+06 0 -1.56544e+06 2.01361e+06 0 -1.79623e+06 2.19843e+06 0 -2.12826e+06 2.38606e+06 0 -2.6495e+06 2.58932e+06 0 -3.77794e+06 2.86398e+06 0 -367841 0 0 -435606 182245 0 -506499 363530 0 -581721 544517 0 -662415 725840 0 -749758 908082 0 -844988 1.09173e+06 0 -949541 1.27713e+06 0 -1.06533e+06 1.46437e+06 0 -1.19536e+06 1.65325e+06 0 -1.34494e+06 1.84333e+06 0 -1.52469e+06 2.03447e+06 0 -1.75372e+06 2.22822e+06 0 -2.07957e+06 2.43282e+06 0 -2.58356e+06 2.67285e+06 0 -3.64307e+06 3.06905e+06 0 -315630 0 0 -385274 182931 0 -457787 365074 0 -534403 547066 0 -616298 729521 0 -704687 913010 0 -800849 1.09803e+06 0 -906254 1.28494e+06 0 -1.02283e+06 1.47395e+06 0 -1.15355e+06 1.66509e+06 0 -1.30354e+06 1.85833e+06 0 -1.48293e+06 2.05441e+06 0 -1.70969e+06 2.25639e+06 0 -2.02807e+06 2.4763e+06 0 -2.5125e+06 2.74874e+06 0 -3.49326e+06 3.24205e+06 0 -263261 0 0 -334764 183534 0 -408880 366462 0 -486875 549398 0 -569959 732937 0 -659380 917634 0 -756454 1.10398e+06 0 -862679 1.29239e+06 0 -979983 1.48313e+06 0 -1.1113e+06 1.67645e+06 0 -1.26153e+06 1.87271e+06 0 -1.44025e+06 2.07338e+06 0 -1.66434e+06 2.28291e+06 0 -1.97427e+06 2.51638e+06 0 -2.43751e+06 2.81677e+06 0 -3.33506e+06 3.38375e+06 0 -210762 0 0 -284099 184052 0 -359799 367693 0 -439156 551513 0 -523413 736086 0 -613851 921953 0 -711818 1.1096e+06 0 -818834 1.29947e+06 0 -936820 1.4919e+06 0 -1.06864e+06 1.68732e+06 0 -1.21897e+06 1.88643e+06 0 -1.39679e+06 2.09135e+06 0 -1.61789e+06 2.30773e+06 0 -1.91868e+06 2.55304e+06 0 -2.35968e+06 2.87698e+06 0 -3.17393e+06 3.49634e+06 0 -158157 0 0 -233302 184485 0 -310563 368767 0 -391263 553411 0 -476677 738968 0 -568116 925963 0 -666956 1.11488e+06 0 -774735 1.30617e+06 0 -893361 1.50025e+06 0 -1.02562e+06 1.69769e+06 0 -1.17594e+06 1.89948e+06 0 -1.35265e+06 2.1083e+06 0 -1.57053e+06 2.33087e+06 0 -1.86181e+06 2.58629e+06 0 -2.27995e+06 2.92963e+06 0 -3.01422e+06 3.58285e+06 0 -105474 0 0 -182397 184834 0 -261196 369683 0 -343217 555090 0 -429768 741581 0 -522190 929664 0 -621884 1.11982e+06 0 -730401 1.31249e+06 0 -849630 1.50818e+06 0 -982254 1.70754e+06 0 -1.13249e+06 1.91187e+06 0 -1.30795e+06 2.12422e+06 0 -1.52243e+06 2.35233e+06 0 -1.8041e+06 2.61624e+06 0 -2.19909e+06 2.97511e+06 0 -2.85931e+06 3.64663e+06 0 -52739 0 0 -131407 185098 0 -211716 370443 0 -295035 556550 0 -382704 743925 0 -476089 933053 0 -576617 1.1244e+06 0 -685849 1.31843e+06 0 -805649 1.51567e+06 0 -938592 1.71688e+06 0 -1.08868e+06 1.92358e+06 0 -1.26278e+06 2.13912e+06 0 -1.47373e+06 2.37215e+06 0 -1.74603e+06 2.643e+06 0 -2.11764e+06 3.01396e+06 0 -2.7119e+06 3.69087e+06 0 21.3509 0 0 -80353.4 185276 0 -162147 371045 0 -246737 557791 0 -335500 745998 0 -429829 936130 0 -531171 1.12864e+06 0 -641095 1.32399e+06 0 -761443 1.52273e+06 0 -894663 1.7257e+06 0 -1.04456e+06 1.93462e+06 0 -1.21726e+06 2.15304e+06 0 -1.4245e+06 2.39036e+06 0 -1.68812e+06 2.66677e+06 0 -2.03579e+06 3.04684e+06 0 -2.57447e+06 3.71817e+06 0 </DataArray> 
</PointData> 
<Points> 
<DataArray type="Float32" NumberOfComponents="3"> 
0 0.0835 0 0.00666667 0.0816 0 0.0133333 0.0797 0 0.02 0.0778 0 0.0266667 0.0759 0 0.0333333 0.074 0 0.04 0.0721 0 0.0466667 0.0702 0 0.0533333 0.0683 0 0.06 0.0664 0 0.0666667 0.0645 0 0.0733333 0.0626 0 0.08 0.0607 0 0.0866667 0.0588 0 0.0933333 0.0569 0 0.1 0.055 0 0 0.0854 0 0.00666667 0.0834342 0 0.0133333 0.0814684 0 0.02 0.0795027 0 0.0266667 0.0775369 0 0.0333333 0.0755711 0 0.04 0.0736053 0 0.0466667 0.0716396 0 0.0533333 0.0696738 0 0.06 0.067708 0 0.0666667 0.0657422 0 0.0733333 0.0637764 0 0.08 0.0618107 0 0.0866667 0.0598449 0 0.0933333 0.0578791 0 0.1 0.0559133 0 0 0.0873 0 0.00666667 0.0852684 0 0.0133333 0.0832369 0 0.02 0.0812053 0 0.0266667 0.0791738 0 0.0333333 0.0771422 0 0.04 0.0751107 0 0.0466667 0.0730791 0 0.0533333 0.0710476 0 0.06 0.069016 0 0.0666667 0.0669844 0 0.0733333 0.0649529 0 0.08 0.0629213 0 0.0866667 0.0608898 0 0.0933333 0.0588582 0 0.1 0.0568267 0 0 0.0892 0 0.00666667 0.0871027 0 0.0133333 0.0850053 0 0.02 0.082908 0 0.0266667 0.0808107 0 0.0333333 0.0787133 0 0.04 0.076616 0 0.0466667 0.0745187 0 0.0533333 0.0724213 0 0.06 0.070324 0 0.0666667 0.0682267 0 0.0733333 0.0661293 0 0.08 0.064032 0 0.0866667 0.0619347 0 0.0933333 0.0598373 0 0.1 0.05774 0 0 0.0911 0 0.00666667 0.0889369 0 0.0133333 0.0867738 0 0.02 0.0846107 0 0.0266667 0.0824476 0 0.0333333 0.0802844 0 0.04 0.0781213 0 0.0466667 0.0759582 0 0.0533333 0.0737951 0 0.06 0.071632 0 0.0666667 0.0694689 0 0.0733333 0.0673058 0 0.08 0.0651427 0 0.0866667 0.0629796 0 0.0933333 0.0608164 0 0.1 0.0586533 0 0 0.093 0 0.00666667 0.0907711 0 0.0133333 0.0885422 0 0.02 0.0863133 0 0.0266667 0.0840844 0 0.0333333 0.0818556 0 0.04 0.0796267 0 0.0466667 0.0773978 0 0.0533333 0.0751689 0 0.06 0.07294 0 0.0666667 0.0707111 0 0.0733333 0.0684822 0 0.08 0.0662533 0 0.0866667 0.0640244 0 0.0933333 0.0617956 0 0.1 0.0595667 0 0 0.0949 0 0.00666667 0.0926053 0 0.0133333 0.0903107 0 0.02 0.088016 0 0.0266667 0.0857213 0 0.0333333 0.0834267 0 0.04 0.081132 0 0.0466667 0.0788373 0 0.0533333 0.0765427 0 0.06 0.074248 0 0.0666667 0.0719533 0 0.0733333 0.0696587 0 0.08 0.067364 0 0.0866667 0.0650693 0 0.0933333 0.0627747 0 0.1 0.06048 0 0 0.0968 0 0.00666667 0.0944396 0 0.0133333 0.0920791 0 0.02 0.0897187 0 0.0266667 0.0873582 0 0.0333333 0.0849978 0 0.04 0.0826373 0 0.0466667 0.0802769 0 0.0533333 0.0779164 0 0.06 0.075556 0 0.0666667 0.0731956 0 0.0733333 0.0708351 0 0.08 0.0684747 0 0.0866667 0.0661142 0 0.0933333 0.0637538 0 0.1 0.0613933 0 0 0.0987 0 0.00666667 0.0962738 0 0.0133333 0.0938476 0 0.02 0.0914213 0 0.0266667 0.0889951 0 0.0333333 0.0865689 0 0.04 0.0841427 0 0.0466667 0.0817164 0 0.0533333 0.0792902 0 0.06 0.076864 0 0.0666667 0.0744378 0 0.0733333 0.0720116 0 0.08 0.0695853 0 0.0866667 0.0671591 0 0.0933333 0.0647329 0 0.1 0.0623067 0 0 0.1006 0 0.00666667 0.098108 0 0.0133333 0.095616 0 0.02 0.093124 0 0.0266667 0.090632 0 0.0333333 0.08814 0 0.04 0.085648 0 0.0466667 0.083156 0 0.0533333 0.080664 0 0.06 0.078172 0 0.0666667 0.07568 0 0.0733333 0.073188 0 0.08 0.070696 0 0.0866667 0.068204 0 0.0933333 0.065712 0 0.1 0.06322 0 0 0.1025 0 0.00666667 0.0999422 0 0.0133333 0.0973844 0 0.02 0.0948267 0 0.0266667 0.0922689 0 0.0333333 0.0897111 0 0.04 0.0871533 0 0.0466667 0.0845956 0 0.0533333 0.0820378 0 0.06 0.07948 0 0.0666667 0.0769222 0 0.0733333 0.0743644 0 0.08 0.0718067 0 0.0866667 0.0692489 0 0.0933333 0.0666911 0 0.1 0.0641333 0 0 0.1044 0 0.00666667 0.101776 0 0.0133333 0.0991529 0 0.02 0.0965293 0 0.0266667 0.0939058 0 0.0333333 0.0912822 0 0.04 0.0886587 0 0.0466667 0.0860351 0 0.0533333 0.0834116 0 0.06 0.080788 0 0.0666667 0.0781644 0 0.0733333 0.0755409 0 0.08 0.0729173 0 0.0866667 0.0702938 0 0.0933333 0.0676702 0 0.1 0.0650467 0 0 0.1063 0 0.00666667 0.103611 0 0.0133333 0.100921 0 0.02 0.098232 0 0.0266667 0.0955427 0 0.0333333 0.0928533 0 0.04 0.090164 0 0.0466667 0.0874747 0 0.0533333 0.0847853 0 0.06 0.082096 0 0.0666667 0.0794067 0 0.0733333 0.0767173 0 0.08 0.074028 0 0.0866667 0.0713387 0 0.0933333 0.0686493 0 0.1 0.06596 0 0 0.1082 0 0.00666667 0.105445 0 0.0133333 0.10269 0 0.02 0.0999347 0 0.0266667 0.0971796 0 0.0333333 0.0944244 0 0.04 0.0916693 0 0.0466667 0.0889142 0 0.0533333 0.0861591 0 0.06 0.083404 0 0.0666667 0.0806489 0 0.0733333 0.0778938 0 0.08 0.0751387 0 0.0866667 0.0723836 0 0.0933333 0.0696284 0 0.1 0.0668733 0 0 0.1101 0 0.00666667 0.107279 0 0.0133333 0.104458 0 0.02 0.101637 0 0.0266667 0.0988164 0 0.0333333 0.0959956 0 0.04 0.0931747 0 0.0466667 0.0903538 0 0.0533333 0.0875329 0 0.06 0.084712 0 0.0666667 0.0818911 0 0.0733333 0.0790702 0 0.08 0.0762493 0 0.0866667 0.0734284 0 0.0933333 0.0706076 0 0.1 0.0677867 0 0 0.112 0 0.00666667 0.109113 0 0.0133333 0.106227 0 0.02 0.10334 0 0.0266667 0.100453 0 0.0333333 0.0975667 0 0.04 0.09468 0 0.0466667 0.0917933 0 0.0533333 0.0889067 0 0.06 0.08602 0 0.0666667 0.0831333 0 0.0733333 0.0802467 0 0.08 0.07736 0 0.0866667 0.0744733 0 0.0933333 0.0715867 0 0.1 0.0687 0 
</DataArray>
</Points> 
</Piece> 
</StructuredGrid> 
</VTKFile> 
