<?xml version="1.0"?> 
<VTKFile type="StructuredGrid" version="0.1"> 
<StructuredGrid WholeExtent="0 15 0 15 0 0"> 
<Piece Extent="0 15 0 15 0 0"> 
<PointData>
<DataArray type="Float32" Name="|E|" format="ascii" NumberOfComponents="3"> 
-2.07951e+06 46372.6 0 -2.10106e+06 82044.2 0 -2.13277e+06 116808 0 -2.1754e+06 151195 0 -2.22944e+06 185630 0 -2.29573e+06 220609 0 -2.37539e+06 256622 0 -2.46992e+06 294045 0 -2.58138e+06 333169 0 -2.71226e+06 373613 0 -2.86619e+06 412676 0 -3.04924e+06 443642 0 -3.26675e+06 453846 0 -3.50716e+06 411220 0 -3.71967e+06 245854 0 -3.83639e+06 3.57628e-07 0 -2.07885e+06 52755.8 0 -2.10135e+06 88939.5 0 -2.13391e+06 124427 0 -2.17718e+06 159747 0 -2.23165e+06 195338 0 -2.29816e+06 231733 0 -2.37782e+06 269447 0 -2.47214e+06 308922 0 -2.58315e+06 350515 0 -2.71351e+06 393913 0 -2.86725e+06 436614 0 -3.05102e+06 472337 0 -3.27139e+06 487731 0 -3.52198e+06 446780 0 -3.75844e+06 275483 0 -3.87669e+06 -7.07805e-08 0 -2.07831e+06 59368.5 0 -2.10175e+06 96065.1 0 -2.13512e+06 132286 0 -2.17897e+06 168541 0 -2.23383e+06 205293 0 -2.30051e+06 243105 0 -2.38012e+06 282522 0 -2.47416e+06 324048 0 -2.58466e+06 368117 0 -2.71442e+06 414501 0 -2.86786e+06 460968 0 -3.05226e+06 501673 0 -3.27556e+06 522828 0 -3.5375e+06 485432 0 -3.7995e+06 308000 0 -3.92563e+06 2.98023e-08 0 -2.07789e+06 66203.2 0 -2.10225e+06 103423 0 -2.13637e+06 140385 0 -2.18078e+06 177579 0 -2.23598e+06 215496 0 -2.30278e+06 254725 0 -2.38228e+06 295845 0 -2.47597e+06 339423 0 -2.58589e+06 385973 0 -2.71498e+06 435381 0 -2.86799e+06 485735 0 -3.05289e+06 531670 0 -3.27914e+06 559258 0 -3.55327e+06 527445 0 -3.84361e+06 344249 0 -3.98365e+06 -4.47035e-08 0 -2.07762e+06 73260.4 0 -2.10285e+06 111015 0 -2.13769e+06 148725 0 -2.18259e+06 186862 0 -2.23808e+06 225947 0 -2.30495e+06 266594 0 -2.38429e+06 309417 0 -2.47757e+06 355046 0 -2.58685e+06 404084 0 -2.71517e+06 456555 0 -2.86762e+06 510912 0 -3.05283e+06 562340 0 -3.28197e+06 597112 0 -3.56882e+06 573131 0 -3.89136e+06 385196 0 -4.0517e+06 1.49012e-08 0 -2.07747e+06 80540 0 -2.10354e+06 118843 0 -2.13905e+06 157308 0 -2.18441e+06 196391 0 -2.24014e+06 236646 0 -2.30704e+06 278712 0 -2.38615e+06 323237 0 -2.47896e+06 370916 0 -2.5875e+06 422447 0 -2.71497e+06 478020 0 -2.8667e+06 536497 0 -3.05201e+06 593691 0 -3.28387e+06 636456 0 -3.5836e+06 622853 0 -3.94325e+06 432023 0 -4.13135e+06 -4.47035e-08 0 -2.07746e+06 88042.7 0 -2.10433e+06 126907 0 -2.14046e+06 166133 0 -2.18624e+06 206166 0 -2.24216e+06 247594 0 -2.30902e+06 291079 0 -2.38786e+06 337305 0 -2.48012e+06 387031 0 -2.58786e+06 441061 0 -2.71436e+06 499775 0 -2.8652e+06 562483 0 -3.05036e+06 625723 0 -3.28461e+06 677327 0 -3.59695e+06 676999 0 -3.99962e+06 486197 0 -4.22483e+06 7.45058e-08 0 -2.07758e+06 95769 0 -2.1052e+06 135209 0 -2.14192e+06 175202 0 -2.18806e+06 216188 0 -2.24413e+06 258791 0 -2.3109e+06 303695 0 -2.3894e+06 351619 0 -2.48104e+06 403388 0 -2.58789e+06 459925 0 -2.71331e+06 521813 0 -2.86307e+06 588862 0 -3.04778e+06 658426 0 -3.28396e+06 719722 0 -3.60801e+06 735966 0 -4.06065e+06 549586 0 -4.33531e+06 -5.96046e-08 0 -2.07782e+06 103720 0 -2.10617e+06 143751 0 -2.14342e+06 184515 0 -2.18988e+06 226458 0 -2.24604e+06 270239 0 -2.31267e+06 316560 0 -2.39078e+06 366180 0 -2.48173e+06 419986 0 -2.5876e+06 479035 0 -2.7118e+06 544127 0 -2.86028e+06 615621 0 -3.04418e+06 691778 0 -3.2817e+06 763590 0 -3.61571e+06 800120 0 -4.12623e+06 624593 0 -4.46721e+06 -1.19209e-07 0 -2.0782e+06 111896 0 -2.10722e+06 152535 0 -2.14496e+06 194074 0 -2.19169e+06 236975 0 -2.24789e+06 281937 0 -2.31433e+06 329674 0 -2.39198e+06 380984 0 -2.48217e+06 436822 0 -2.58696e+06 498389 0 -2.7098e+06 566708 0 -2.85678e+06 642743 0 -3.03946e+06 725748 0 -3.27761e+06 808826 0 -3.61871e+06 869742 0 -4.19573e+06 714362 0 -4.62678e+06 1.19209e-07 0 -2.07869e+06 120298 0 -2.10836e+06 161563 0 -2.14655e+06 203878 0 -2.19348e+06 247742 0 -2.24968e+06 293886 0 -2.31588e+06 343037 0 -2.393e+06 396031 0 -2.48235e+06 453894 0 -2.58597e+06 517980 0 -2.7073e+06 589544 0 -2.85252e+06 670206 0 -3.03351e+06 760292 0 -3.27146e+06 855251 0 -3.61536e+06 944937 0 -4.26762e+06 823042 0 -4.82297e+06 8.9407e-08 0 -2.07931e+06 128926 0 -2.10957e+06 170838 0 -2.14817e+06 213927 0 -2.19527e+06 258760 0 -2.25141e+06 306086 0 -2.3173e+06 356649 0 -2.39384e+06 411319 0 -2.48226e+06 471197 0 -2.58461e+06 537804 0 -2.70426e+06 612621 0 -2.84745e+06 697979 0 -3.02625e+06 795359 0 -3.26309e+06 902608 0 -3.60378e+06 1.02548e+06 0 -4.33874e+06 956189 0 -5.06892e+06 -1.19209e-07 0 -2.08004e+06 137781 0 -2.11088e+06 180361 0 -2.14982e+06 224222 0 -2.19703e+06 270028 0 -2.25307e+06 318537 0 -2.31859e+06 370508 0 -2.39448e+06 426845 0 -2.48189e+06 488729 0 -2.58287e+06 557850 0 -2.70067e+06 635929 0 -2.84151e+06 726018 0 -3.01762e+06 830896 0 -3.25227e+06 950548 0 -3.58199e+06 1.11063e+06 0 -4.40309e+06 1.12129e+06 0 -5.38431e+06 2.08616e-07 0 -2.08088e+06 146864 0 -2.11226e+06 190136 0 -2.15149e+06 234760 0 -2.19877e+06 281549 0 -2.25465e+06 331240 0 -2.31975e+06 384615 0 -2.39492e+06 442606 0 -2.48124e+06 506487 0 -2.58071e+06 578105 0 -2.69651e+06 659458 0 -2.8346e+06 754257 0 -3.00766e+06 866866 0 -3.2387e+06 998625 0 -3.54844e+06 1.19871e+06 0 -4.44961e+06 1.32867e+06 0 -5.79929e+06 -3.57628e-07 0 -2.08183e+06 156175 0 -2.11373e+06 200166 0 -2.15318e+06 245543 0 -2.20048e+06 293324 0 -2.25615e+06 344195 0 -2.32078e+06 398969 0 -2.39515e+06 458597 0 -2.48029e+06 524471 0 -2.57814e+06 598548 0 -2.69179e+06 683215 0 -2.82655e+06 782587 0 -2.99662e+06 903291 0 -3.22165e+06 1.04629e+06 0 -3.50301e+06 1.28674e+06 0 -4.45833e+06 1.59221e+06 0 -6.36104e+06 3.57628e-07 0 -2.08288e+06 165713 0 -2.11529e+06 210453 0 -2.15489e+06 256568 0 -2.20217e+06 305354 0 -2.25756e+06 357403 0 -2.32165e+06 413568 0 -2.39516e+06 474813 0 -2.47903e+06 542678 0 -2.57509e+06 619148 0 -2.68657e+06 707228 0 -2.81703e+06 810820 0 -2.98527e+06 940292 0 -3.19931e+06 1.09295e+06 0 -3.44944e+06 1.369e+06 0 -4.39289e+06 1.93293e+06 0 -7.14589e+06 -3.57628e-07 0 </DataArray> 
</PointData> 
<Points> 
<DataArray type="Float32" NumberOfComponents="3"> 
0.006 0.016 0 0.0106 0.0156 0 0.0152 0.0152 0 0.0198 0.0148 0 0.0244 0.0144 0 0.029 0.014 0 0.0336 0.0136 0 0.0382 0.0132 0 0.0428 0.0128 0 0.0474 0.0124 0 0.052 0.012 0 0.0566 0.0116 0 0.0612 0.0112 0 0.0658 0.0108 0 0.0704 0.0104 0 0.075 0.01 0 0.00666667 0.0163333 0 0.0112222 0.01596 0 0.0157778 0.0155867 0 0.0203333 0.0152133 0 0.0248889 0.01484 0 0.0294444 0.0144667 0 0.034 0.0140933 0 0.0385556 0.01372 0 0.0431111 0.0133467 0 0.0476667 0.0129733 0 0.0522222 0.0126 0 0.0567778 0.0122267 0 0.0613333 0.0118533 0 0.0658889 0.01148 0 0.0704444 0.0111067 0 0.075 0.0107333 0 0.00733333 0.0166667 0 0.0118444 0.01632 0 0.0163556 0.0159733 0 0.0208667 0.0156267 0 0.0253778 0.01528 0 0.0298889 0.0149333 0 0.0344 0.0145867 0 0.0389111 0.01424 0 0.0434222 0.0138933 0 0.0479333 0.0135467 0 0.0524444 0.0132 0 0.0569556 0.0128533 0 0.0614667 0.0125067 0 0.0659778 0.01216 0 0.0704889 0.0118133 0 0.075 0.0114667 0 0.008 0.017 0 0.0124667 0.01668 0 0.0169333 0.01636 0 0.0214 0.01604 0 0.0258667 0.01572 0 0.0303333 0.0154 0 0.0348 0.01508 0 0.0392667 0.01476 0 0.0437333 0.01444 0 0.0482 0.01412 0 0.0526667 0.0138 0 0.0571333 0.01348 0 0.0616 0.01316 0 0.0660667 0.01284 0 0.0705333 0.01252 0 0.075 0.0122 0 0.00866667 0.0173333 0 0.0130889 0.01704 0 0.0175111 0.0167467 0 0.0219333 0.0164533 0 0.0263556 0.01616 0 0.0307778 0.0158667 0 0.0352 0.0155733 0 0.0396222 0.01528 0 0.0440444 0.0149867 0 0.0484667 0.0146933 0 0.0528889 0.0144 0 0.0573111 0.0141067 0 0.0617333 0.0138133 0 0.0661556 0.01352 0 0.0705778 0.0132267 0 0.075 0.0129333 0 0.00933333 0.0176667 0 0.0137111 0.0174 0 0.0180889 0.0171333 0 0.0224667 0.0168667 0 0.0268444 0.0166 0 0.0312222 0.0163333 0 0.0356 0.0160667 0 0.0399778 0.0158 0 0.0443556 0.0155333 0 0.0487333 0.0152667 0 0.0531111 0.015 0 0.0574889 0.0147333 0 0.0618667 0.0144667 0 0.0662444 0.0142 0 0.0706222 0.0139333 0 0.075 0.0136667 0 0.01 0.018 0 0.0143333 0.01776 0 0.0186667 0.01752 0 0.023 0.01728 0 0.0273333 0.01704 0 0.0316667 0.0168 0 0.036 0.01656 0 0.0403333 0.01632 0 0.0446667 0.01608 0 0.049 0.01584 0 0.0533333 0.0156 0 0.0576667 0.01536 0 0.062 0.01512 0 0.0663333 0.01488 0 0.0706667 0.01464 0 0.075 0.0144 0 0.0106667 0.0183333 0 0.0149556 0.01812 0 0.0192444 0.0179067 0 0.0235333 0.0176933 0 0.0278222 0.01748 0 0.0321111 0.0172667 0 0.0364 0.0170533 0 0.0406889 0.01684 0 0.0449778 0.0166267 0 0.0492667 0.0164133 0 0.0535556 0.0162 0 0.0578444 0.0159867 0 0.0621333 0.0157733 0 0.0664222 0.01556 0 0.0707111 0.0153467 0 0.075 0.0151333 0 0.0113333 0.0186667 0 0.0155778 0.01848 0 0.0198222 0.0182933 0 0.0240667 0.0181067 0 0.0283111 0.01792 0 0.0325556 0.0177333 0 0.0368 0.0175467 0 0.0410444 0.01736 0 0.0452889 0.0171733 0 0.0495333 0.0169867 0 0.0537778 0.0168 0 0.0580222 0.0166133 0 0.0622667 0.0164267 0 0.0665111 0.01624 0 0.0707556 0.0160533 0 0.075 0.0158667 0 0.012 0.019 0 0.0162 0.01884 0 0.0204 0.01868 0 0.0246 0.01852 0 0.0288 0.01836 0 0.033 0.0182 0 0.0372 0.01804 0 0.0414 0.01788 0 0.0456 0.01772 0 0.0498 0.01756 0 0.054 0.0174 0 0.0582 0.01724 0 0.0624 0.01708 0 0.0666 0.01692 0 0.0708 0.01676 0 0.075 0.0166 0 0.0126667 0.0193333 0 0.0168222 0.0192 0 0.0209778 0.0190667 0 0.0251333 0.0189333 0 0.0292889 0.0188 0 0.0334444 0.0186667 0 0.0376 0.0185333 0 0.0417556 0.0184 0 0.0459111 0.0182667 0 0.0500667 0.0181333 0 0.0542222 0.018 0 0.0583778 0.0178667 0 0.0625333 0.0177333 0 0.0666889 0.0176 0 0.0708444 0.0174667 0 0.075 0.0173333 0 0.0133333 0.0196667 0 0.0174444 0.01956 0 0.0215556 0.0194533 0 0.0256667 0.0193467 0 0.0297778 0.01924 0 0.0338889 0.0191333 0 0.038 0.0190267 0 0.0421111 0.01892 0 0.0462222 0.0188133 0 0.0503333 0.0187067 0 0.0544444 0.0186 0 0.0585556 0.0184933 0 0.0626667 0.0183867 0 0.0667778 0.01828 0 0.0708889 0.0181733 0 0.075 0.0180667 0 0.014 0.02 0 0.0180667 0.01992 0 0.0221333 0.01984 0 0.0262 0.01976 0 0.0302667 0.01968 0 0.0343333 0.0196 0 0.0384 0.01952 0 0.0424667 0.01944 0 0.0465333 0.01936 0 0.0506 0.01928 0 0.0546667 0.0192 0 0.0587333 0.01912 0 0.0628 0.01904 0 0.0668667 0.01896 0 0.0709333 0.01888 0 0.075 0.0188 0 0.0146667 0.0203333 0 0.0186889 0.02028 0 0.0227111 0.0202267 0 0.0267333 0.0201733 0 0.0307556 0.02012 0 0.0347778 0.0200667 0 0.0388 0.0200133 0 0.0428222 0.01996 0 0.0468444 0.0199067 0 0.0508667 0.0198533 0 0.0548889 0.0198 0 0.0589111 0.0197467 0 0.0629333 0.0196933 0 0.0669556 0.01964 0 0.0709778 0.0195867 0 0.075 0.0195333 0 0.0153333 0.0206667 0 0.0193111 0.02064 0 0.0232889 0.0206133 0 0.0272667 0.0205867 0 0.0312444 0.02056 0 0.0352222 0.0205333 0 0.0392 0.0205067 0 0.0431778 0.02048 0 0.0471556 0.0204533 0 0.0511333 0.0204267 0 0.0551111 0.0204 0 0.0590889 0.0203733 0 0.0630667 0.0203467 0 0.0670444 0.02032 0 0.0710222 0.0202933 0 0.075 0.0202667 0 0.016 0.021 0 0.0199333 0.021 0 0.0238667 0.021 0 0.0278 0.021 0 0.0317333 0.021 0 0.0356667 0.021 0 0.0396 0.021 0 0.0435333 0.021 0 0.0474667 0.021 0 0.0514 0.021 0 0.0553333 0.021 0 0.0592667 0.021 0 0.0632 0.021 0 0.0671333 0.021 0 0.0710667 0.021 0 0.075 0.021 0 
</DataArray>
</Points> 
</Piece> 
</StructuredGrid> 
</VTKFile> 
