<?xml version="1.0"?> 
<VTKFile type="StructuredGrid" version="0.1"> 
<StructuredGrid WholeExtent="0 15 0 15 0 0"> 
<Piece Extent="0 15 0 15 0 0"> 
<PointData>
<DataArray type="Float32" Name="|E|" format="ascii" NumberOfComponents="3"> 
-2.62904e+06 3.59215e+06 0 -2.69143e+06 3.72329e+06 0 -2.75032e+06 3.87557e+06 0 -2.8025e+06 4.05307e+06 0 -2.84408e+06 4.25836e+06 0 -2.86996e+06 4.49276e+06 0 -2.87364e+06 4.75631e+06 0 -2.84671e+06 5.04775e+06 0 -2.77851e+06 5.36423e+06 0 -2.65589e+06 5.70016e+06 0 -2.46358e+06 6.04541e+06 0 -2.18538e+06 6.38269e+06 0 -1.80675e+06 6.68461e+06 0 -1.3191e+06 6.91098e+06 0 -725058 7.00652e+06 0 -49507.4 6.89709e+06 0 -2.06982e+06 2.96824e+06 0 -2.12818e+06 3.09041e+06 0 -2.18634e+06 3.22142e+06 0 -2.24242e+06 3.36431e+06 0 -2.2941e+06 3.52215e+06 0 -2.33815e+06 3.6981e+06 0 -2.36999e+06 3.8951e+06 0 -2.38315e+06 4.11521e+06 0 -2.36891e+06 4.35878e+06 0 -2.31627e+06 4.62303e+06 0 -2.21259e+06 4.9004e+06 0 -2.04542e+06 5.17648e+06 0 -1.80601e+06 5.42849e+06 0 -1.49524e+06 5.62526e+06 0 -1.13009e+06 5.73161e+06 0 -755102 5.71932e+06 0 -1.69173e+06 2.65844e+06 0 -1.74159e+06 2.75309e+06 0 -1.79379e+06 2.85907e+06 0 -1.84695e+06 2.97772e+06 0 -1.8989e+06 3.1107e+06 0 -1.94669e+06 3.25987e+06 0 -1.98642e+06 3.42711e+06 0 -2.01298e+06 3.61401e+06 0 -2.01963e+06 3.82126e+06 0 -1.99768e+06 4.04751e+06 0 -1.93681e+06 4.28773e+06 0 -1.82657e+06 4.53135e+06 0 -1.65953e+06 4.761e+06 0 -1.43637e+06 4.95332e+06 0 -1.17055e+06 5.0843e+06 0 -891166 5.14e+06 0 -1.42548e+06 2.38811e+06 0 -1.47006e+06 2.48657e+06 0 -1.51527e+06 2.59158e+06 0 -1.56124e+06 2.70496e+06 0 -1.6074e+06 2.82886e+06 0 -1.65204e+06 2.96569e+06 0 -1.69215e+06 3.11779e+06 0 -1.72327e+06 3.28706e+06 0 -1.73946e+06 3.47441e+06 0 -1.7332e+06 3.67905e+06 0 -1.69565e+06 3.89724e+06 0 -1.61771e+06 4.12078e+06 0 -1.49254e+06 4.3358e+06 0 -1.31969e+06 4.5234e+06 0 -1.10877e+06 4.66377e+06 0 -881781 4.74295e+06 0 -1.21682e+06 2.15408e+06 0 -1.25492e+06 2.25697e+06 0 -1.29548e+06 2.3656e+06 0 -1.33715e+06 2.48148e+06 0 -1.37891e+06 2.60595e+06 0 -1.41961e+06 2.74068e+06 0 -1.45732e+06 2.88768e+06 0 -1.48875e+06 3.049e+06 0 -1.50897e+06 3.22602e+06 0 -1.51136e+06 3.41863e+06 0 -1.48798e+06 3.62406e+06 0 -1.43054e+06 3.83568e+06 0 -1.33253e+06 4.04196e+06 0 -1.19268e+06 4.22697e+06 0 -1.01805e+06 4.37378e+06 0 -825528 4.47083e+06 0 -1.04379e+06 1.9364e+06 0 -1.07728e+06 2.04676e+06 0 -1.11244e+06 2.16227e+06 0 -1.14944e+06 2.28366e+06 0 -1.18747e+06 2.41241e+06 0 -1.22513e+06 2.55002e+06 0 -1.2606e+06 2.69806e+06 0 -1.29122e+06 2.85815e+06 0 -1.31303e+06 3.03163e+06 0 -1.3204e+06 3.21877e+06 0 -1.30624e+06 3.4176e+06 0 -1.26291e+06 3.6227e+06 0 -1.18412e+06 3.82421e+06 0 -1.06798e+06 4.00829e+06 0 -919713 4.15987e+06 0 -753289 4.2676e+06 0 -893864 1.72755e+06 0 -923019 1.84724e+06 0 -954159 1.97115e+06 0 -986863 2.10043e+06 0 -1.02087e+06 2.23603e+06 0 -1.0553e+06 2.37929e+06 0 -1.08854e+06 2.5317e+06 0 -1.11815e+06 2.69464e+06 0 -1.14065e+06 2.86921e+06 0 -1.1512e+06 3.0557e+06 0 -1.14352e+06 3.25257e+06 0 -1.1106e+06 3.45527e+06 0 -1.0464e+06 3.65524e+06 0 -948567 3.84015e+06 0 -821011 3.99634e+06 0 -675326 4.11327e+06 0 -760742 1.52435e+06 0 -785781 1.65361e+06 0 -812781 1.78707e+06 0 -841651 1.92535e+06 0 -871937 2.06946e+06 0 -903015 2.22043e+06 0 -933690 2.37951e+06 0 -961900 2.54798e+06 0 -984537 2.72677e+06 0 -997274 2.91609e+06 0 -994490 3.11455e+06 0 -969759 3.31815e+06 0 -917308 3.51925e+06 0 -834494 3.70668e+06 0 -724194 3.86785e+06 0 -596304 3.99261e+06 0 -640492 1.32538e+06 0 -661545 1.46435e+06 0 -684530 1.60745e+06 0 -709400 1.75534e+06 0 -735961 1.90876e+06 0 -763647 2.06866e+06 0 -791498 2.23606e+06 0 -817852 2.412e+06 0 -840042 2.5973e+06 0 -854204 2.79205e+06 0 -855249 2.9949e+06 0 -837268 3.20212e+06 0 -794770 3.4067e+06 0 -724920 3.5983e+06 0 -629785 3.76511e+06 0 -517817 3.8974e+06 0 -530692 1.12974e+06 0 -547766 1.27836e+06 0 -566744 1.43116e+06 0 -587611 1.58875e+06 0 -610244 1.75187e+06 0 -634303 1.92133e+06 0 -659023 2.09802e+06 0 -683056 2.28281e+06 0 -704176 2.47633e+06 0 -719018 2.67854e+06 0 -723011 2.88805e+06 0 -710730 3.10122e+06 0 -676976 3.3114e+06 0 -618795 3.50879e+06 0 -537585 3.68214e+06 0 -440585 3.8219e+06 0 -429482 936930 0 -442677 1.09512e+06 0 -457669 1.2575e+06 0 -474489 1.42475e+06 0 -493083 1.59761e+06 0 -513236 1.77688e+06 0 -534426 1.96338e+06 0 -555613 2.15788e+06 0 -574991 2.36087e+06 0 -589721 2.57214e+06 0 -595798 2.79019e+06 0 -588316 3.01138e+06 0 -562409 3.22915e+06 0 -515072 3.43399e+06 0 -447135 3.61489e+06 0 -364721 3.76242e+06 0 -335281 746503 0 -344806 914273 0 -355953 1.08615e+06 0 -368768 1.26292e+06 0 -383251 1.44541e+06 0 -399294 1.63446e+06 0 -416567 1.83095e+06 0 -434342 2.0356e+06 0 -451243 2.24886e+06 0 -464989 2.4704e+06 0 -472215 2.6986e+06 0 -468630 2.92967e+06 0 -449802 3.15697e+06 0 -412769 3.37095e+06 0 -357866 3.56062e+06 0 -290148 3.7164e+06 0 -246631 558035 0 -252838 735543 0 -260411 916905 0 -269395 1.10306e+06 0 -279815 1.29497e+06 0 -291640 1.49364e+06 0 -304694 1.70002e+06 0 -318524 1.91495e+06 0 -332185 2.1389e+06 0 -343990 2.37156e+06 0 -351309 2.61119e+06 0 -350618 2.85384e+06 0 -338093 3.09258e+06 0 -310970 3.31755e+06 0 -269171 3.51737e+06 0 -216657 3.68206e+06 0 -162124 371098 0 -165524 558652 0 -169942 749603 0 -175414 945076 0 -181966 1.14623e+06 0 -189605 1.35424e+06 0 -198266 1.57027e+06 0 -207715 1.79532e+06 0 -217403 2.03006e+06 0 -226257 2.2743e+06 0 -232476 2.52636e+06 0 -233501 2.78209e+06 0 -226381 3.03419e+06 0 -208804 3.27215e+06 0 -180413 3.48375e+06 0 -143994 3.65823e+06 0 -80366.4 185246 0 -81647.9 383352 0 -83487 584134 0 -85913.4 788950 0 -88942.5 999194 0 -92588 1.21627e+06 0 -96839.3 1.44158e+06 0 -101618 1.67642e+06 0 -106701 1.92174e+06 0 -111594 2.17769e+06 0 -115398 2.4428e+06 0 -116735 2.71293e+06 0 -113899 2.98032e+06 0 -105430 3.23346e+06 0 -90929.3 3.45877e+06 0 -71873.9 3.64412e+06 0 0 -49.3091 0 0 209235 0 0 420254 0 0 634584 0 0 853871 0 0 1.07978e+06 0 0 1.31401e+06 0 0 1.55817e+06 0 0 1.81366e+06 0 0 2.08109e+06 0 0 2.3595e+06 0 0 2.64503e+06 0 0 2.92958e+06 0 0 3.20038e+06 0 0 3.44171e+06 0 0 3.6393e+06 0 </DataArray> 
</PointData> 
<Points> 
<DataArray type="Float32" NumberOfComponents="3"> 
0.1 0.0687 0 0.100867 0.0684533 0 0.101733 0.0682067 0 0.1026 0.06796 0 0.103467 0.0677133 0 0.104333 0.0674667 0 0.1052 0.06722 0 0.106067 0.0669733 0 0.106933 0.0667267 0 0.1078 0.06648 0 0.108667 0.0662333 0 0.109533 0.0659867 0 0.1104 0.06574 0 0.111267 0.0654933 0 0.112133 0.0652467 0 0.113 0.065 0 0.0933333 0.0715867 0 0.0946444 0.0713564 0 0.0959556 0.0711262 0 0.0972667 0.070896 0 0.0985778 0.0706658 0 0.0998889 0.0704356 0 0.1012 0.0702053 0 0.102511 0.0699751 0 0.103822 0.0697449 0 0.105133 0.0695147 0 0.106444 0.0692844 0 0.107756 0.0690542 0 0.109067 0.068824 0 0.110378 0.0685938 0 0.111689 0.0683636 0 0.113 0.0681333 0 0.0866667 0.0744733 0 0.0884222 0.0742596 0 0.0901778 0.0740458 0 0.0919333 0.073832 0 0.0936889 0.0736182 0 0.0954444 0.0734044 0 0.0972 0.0731907 0 0.0989556 0.0729769 0 0.100711 0.0727631 0 0.102467 0.0725493 0 0.104222 0.0723356 0 0.105978 0.0721218 0 0.107733 0.071908 0 0.109489 0.0716942 0 0.111244 0.0714804 0 0.113 0.0712667 0 0.08 0.07736 0 0.0822 0.0771627 0 0.0844 0.0769653 0 0.0866 0.076768 0 0.0888 0.0765707 0 0.091 0.0763733 0 0.0932 0.076176 0 0.0954 0.0759787 0 0.0976 0.0757813 0 0.0998 0.075584 0 0.102 0.0753867 0 0.1042 0.0751893 0 0.1064 0.074992 0 0.1086 0.0747947 0 0.1108 0.0745973 0 0.113 0.0744 0 0.0733333 0.0802467 0 0.0759778 0.0800658 0 0.0786222 0.0798849 0 0.0812667 0.079704 0 0.0839111 0.0795231 0 0.0865556 0.0793422 0 0.0892 0.0791613 0 0.0918444 0.0789804 0 0.0944889 0.0787996 0 0.0971333 0.0786187 0 0.0997778 0.0784378 0 0.102422 0.0782569 0 0.105067 0.078076 0 0.107711 0.0778951 0 0.110356 0.0777142 0 0.113 0.0775333 0 0.0666667 0.0831333 0 0.0697556 0.0829689 0 0.0728444 0.0828044 0 0.0759333 0.08264 0 0.0790222 0.0824756 0 0.0821111 0.0823111 0 0.0852 0.0821467 0 0.0882889 0.0819822 0 0.0913778 0.0818178 0 0.0944667 0.0816533 0 0.0975556 0.0814889 0 0.100644 0.0813244 0 0.103733 0.08116 0 0.106822 0.0809956 0 0.109911 0.0808311 0 0.113 0.0806667 0 0.06 0.08602 0 0.0635333 0.085872 0 0.0670667 0.085724 0 0.0706 0.085576 0 0.0741333 0.085428 0 0.0776667 0.08528 0 0.0812 0.085132 0 0.0847333 0.084984 0 0.0882667 0.084836 0 0.0918 0.084688 0 0.0953333 0.08454 0 0.0988667 0.084392 0 0.1024 0.084244 0 0.105933 0.084096 0 0.109467 0.083948 0 0.113 0.0838 0 0.0533333 0.0889067 0 0.0573111 0.0887751 0 0.0612889 0.0886436 0 0.0652667 0.088512 0 0.0692444 0.0883804 0 0.0732222 0.0882489 0 0.0772 0.0881173 0 0.0811778 0.0879858 0 0.0851556 0.0878542 0 0.0891333 0.0877227 0 0.0931111 0.0875911 0 0.0970889 0.0874596 0 0.101067 0.087328 0 0.105044 0.0871964 0 0.109022 0.0870649 0 0.113 0.0869333 0 0.0466667 0.0917933 0 0.0510889 0.0916782 0 0.0555111 0.0915631 0 0.0599333 0.091448 0 0.0643556 0.0913329 0 0.0687778 0.0912178 0 0.0732 0.0911027 0 0.0776222 0.0909876 0 0.0820444 0.0908724 0 0.0864667 0.0907573 0 0.0908889 0.0906422 0 0.0953111 0.0905271 0 0.0997333 0.090412 0 0.104156 0.0902969 0 0.108578 0.0901818 0 0.113 0.0900667 0 0.04 0.09468 0 0.0448667 0.0945813 0 0.0497333 0.0944827 0 0.0546 0.094384 0 0.0594667 0.0942853 0 0.0643333 0.0941867 0 0.0692 0.094088 0 0.0740667 0.0939893 0 0.0789333 0.0938907 0 0.0838 0.093792 0 0.0886667 0.0936933 0 0.0935333 0.0935947 0 0.0984 0.093496 0 0.103267 0.0933973 0 0.108133 0.0932987 0 0.113 0.0932 0 0.0333333 0.0975667 0 0.0386444 0.0974844 0 0.0439556 0.0974022 0 0.0492667 0.09732 0 0.0545778 0.0972378 0 0.0598889 0.0971556 0 0.0652 0.0970733 0 0.0705111 0.0969911 0 0.0758222 0.0969089 0 0.0811333 0.0968267 0 0.0864444 0.0967444 0 0.0917556 0.0966622 0 0.0970667 0.09658 0 0.102378 0.0964978 0 0.107689 0.0964156 0 0.113 0.0963333 0 0.0266667 0.100453 0 0.0324222 0.100388 0 0.0381778 0.100322 0 0.0439333 0.100256 0 0.0496889 0.10019 0 0.0554444 0.100124 0 0.0612 0.100059 0 0.0669556 0.0999929 0 0.0727111 0.0999271 0 0.0784667 0.0998613 0 0.0842222 0.0997956 0 0.0899778 0.0997298 0 0.0957333 0.099664 0 0.101489 0.0995982 0 0.107244 0.0995324 0 0.113 0.0994667 0 0.02 0.10334 0 0.0262 0.103291 0 0.0324 0.103241 0 0.0386 0.103192 0 0.0448 0.103143 0 0.051 0.103093 0 0.0572 0.103044 0 0.0634 0.102995 0 0.0696 0.102945 0 0.0758 0.102896 0 0.082 0.102847 0 0.0882 0.102797 0 0.0944 0.102748 0 0.1006 0.102699 0 0.1068 0.102649 0 0.113 0.1026 0 0.0133333 0.106227 0 0.0199778 0.106194 0 0.0266222 0.106161 0 0.0332667 0.106128 0 0.0399111 0.106095 0 0.0465556 0.106062 0 0.0532 0.106029 0 0.0598444 0.105996 0 0.0664889 0.105964 0 0.0731333 0.105931 0 0.0797778 0.105898 0 0.0864222 0.105865 0 0.0930667 0.105832 0 0.0997111 0.105799 0 0.106356 0.105766 0 0.113 0.105733 0 0.00666667 0.109113 0 0.0137556 0.109097 0 0.0208444 0.10908 0 0.0279333 0.109064 0 0.0350222 0.109048 0 0.0421111 0.109031 0 0.0492 0.109015 0 0.0562889 0.108998 0 0.0633778 0.108982 0 0.0704667 0.108965 0 0.0775556 0.108949 0 0.0846444 0.108932 0 0.0917333 0.108916 0 0.0988222 0.1089 0 0.105911 0.108883 0 0.113 0.108867 0 0 0.112 0 0.00753333 0.112 0 0.0150667 0.112 0 0.0226 0.112 0 0.0301333 0.112 0 0.0376667 0.112 0 0.0452 0.112 0 0.0527333 0.112 0 0.0602667 0.112 0 0.0678 0.112 0 0.0753333 0.112 0 0.0828667 0.112 0 0.0904 0.112 0 0.0979333 0.112 0 0.105467 0.112 0 0.113 0.112 0 
</DataArray>
</Points> 
</Piece> 
</StructuredGrid> 
</VTKFile> 
