<?xml version="1.0"?> 
<VTKFile type="StructuredGrid" version="0.1"> 
<StructuredGrid WholeExtent="0 15 0 15 0 0"> 
<Piece Extent="0 15 0 15 0 0"> 
<PointData>
<DataArray type="Float32" Name="|E|" format="ascii" NumberOfComponents="3"> 
300193 4.55305e+06 0 301971 4.58002e+06 0 303885 4.60905e+06 0 305952 4.6404e+06 0 308191 4.67436e+06 0 310626 4.7113e+06 0 313288 4.75166e+06 0 316211 4.79601e+06 0 319442 4.84501e+06 0 323037 4.89954e+06 0 327071 4.96071e+06 0 331637 5.02997e+06 0 336860 5.10919e+06 0 342906 5.20089e+06 0 349994 5.3084e+06 0 358425 5.43627e+06 0 475974 4.47601e+06 0 489256 4.49595e+06 0 503695 4.51695e+06 0 519441 4.53905e+06 0 536664 4.56227e+06 0 555564 4.58666e+06 0 576378 4.6122e+06 0 599380 4.63887e+06 0 624900 4.66659e+06 0 653324 4.69522e+06 0 685114 4.7245e+06 0 720820 4.75402e+06 0 761099 4.78317e+06 0 806738 4.81095e+06 0 858664 4.83594e+06 0 918055 4.85596e+06 0 585456 4.34543e+06 0 602785 4.35591e+06 0 621177 4.36654e+06 0 640708 4.37728e+06 0 661453 4.38806e+06 0 683489 4.39881e+06 0 706893 4.40945e+06 0 731738 4.41988e+06 0 758094 4.42999e+06 0 786020 4.43966e+06 0 815559 4.44876e+06 0 846731 4.45717e+06 0 879526 4.46482e+06 0 913889 4.47167e+06 0 949712 4.47783e+06 0 986796 4.48361e+06 0 632224 4.2085e+06 0 649171 4.21209e+06 0 666837 4.21551e+06 0 685245 4.21873e+06 0 704418 4.2217e+06 0 724374 4.22438e+06 0 745130 4.22673e+06 0 766700 4.22867e+06 0 789095 4.23017e+06 0 812321 4.23115e+06 0 836382 4.23155e+06 0 861275 4.23129e+06 0 886993 4.23027e+06 0 913526 4.22837e+06 0 940853 4.22542e+06 0 968947 4.22116e+06 0 635942 4.08335e+06 0 651044 4.08242e+06 0 666604 4.08124e+06 0 682626 4.07977e+06 0 699113 4.07799e+06 0 716065 4.07587e+06 0 733481 4.07337e+06 0 751359 4.07046e+06 0 769691 4.06712e+06 0 788469 4.0633e+06 0 807683 4.05896e+06 0 827319 4.05409e+06 0 847361 4.04865e+06 0 867793 4.04263e+06 0 888600 4.03602e+06 0 909774 4.02887e+06 0 612263 3.97488e+06 0 625230 3.97109e+06 0 638484 3.96704e+06 0 652024 3.96272e+06 0 665847 3.9581e+06 0 679947 3.95317e+06 0 694321 3.94792e+06 0 708962 3.94231e+06 0 723863 3.93634e+06 0 739014 3.92999e+06 0 754405 3.92325e+06 0 770025 3.91608e+06 0 785858 3.90847e+06 0 801886 3.90041e+06 0 818086 3.89185e+06 0 834425 3.88277e+06 0 571500 3.88299e+06 0 582447 3.87739e+06 0 593576 3.87156e+06 0 604881 3.86548e+06 0 616359 3.85914e+06 0 628005 3.85253e+06 0 639813 3.84565e+06 0 651778 3.83847e+06 0 663892 3.83099e+06 0 676147 3.82321e+06 0 688536 3.8151e+06 0 701049 3.80666e+06 0 713678 3.79789e+06 0 726416 3.78876e+06 0 739255 3.77929e+06 0 752196 3.76947e+06 0 520105 3.80605e+06 0 529253 3.79931e+06 0 538514 3.79235e+06 0 547885 3.78519e+06 0 557363 3.7778e+06 0 566942 3.77018e+06 0 576619 3.76233e+06 0 586388 3.75424e+06 0 596244 3.7459e+06 0 606180 3.73731e+06 0 616191 3.72846e+06 0 626270 3.71935e+06 0 636408 3.70998e+06 0 646598 3.70032e+06 0 656829 3.69039e+06 0 667087 3.68017e+06 0 462107 3.7422e+06 0 469676 3.73473e+06 0 477317 3.72707e+06 0 485025 3.71923e+06 0 492799 3.7112e+06 0 500634 3.70298e+06 0 508527 3.69455e+06 0 516473 3.68593e+06 0 524469 3.6771e+06 0 532510 3.66806e+06 0 540591 3.65881e+06 0 548708 3.64934e+06 0 556855 3.63966e+06 0 565028 3.62975e+06 0 573222 3.61962e+06 0 581436 3.60927e+06 0 400034 3.68976e+06 0 406215 3.68183e+06 0 412440 3.67374e+06 0 418708 3.66549e+06 0 425014 3.65707e+06 0 431357 3.64848e+06 0 437734 3.63972e+06 0 444142 3.63079e+06 0 450577 3.62168e+06 0 457036 3.6124e+06 0 463515 3.60294e+06 0 470012 3.5933e+06 0 476522 3.58348e+06 0 483041 3.57348e+06 0 489565 3.56329e+06 0 496088 3.55291e+06 0 335481 3.64737e+06 0 340427 3.63915e+06 0 345401 3.63079e+06 0 350399 3.62229e+06 0 355421 3.61363e+06 0 360464 3.60483e+06 0 365527 3.59588e+06 0 370605 3.58678e+06 0 375699 3.57753e+06 0 380804 3.56813e+06 0 385918 3.55857e+06 0 391039 3.54886e+06 0 396165 3.53899e+06 0 401292 3.52897e+06 0 406418 3.51879e+06 0 411540 3.50845e+06 0 269453 3.61394e+06 0 273283 3.60555e+06 0 277129 3.59703e+06 0 280990 3.58837e+06 0 284864 3.57959e+06 0 288750 3.57067e+06 0 292646 3.56161e+06 0 296551 3.55242e+06 0 300463 3.5431e+06 0 304380 3.53364e+06 0 308300 3.52405e+06 0 312221 3.51432e+06 0 316142 3.50445e+06 0 320060 3.49445e+06 0 323974 3.48431e+06 0 327881 3.47403e+06 0 202577 3.58867e+06 0 205378 3.58017e+06 0 208189 3.57155e+06 0 211008 3.56281e+06 0 213835 3.55395e+06 0 216667 3.54497e+06 0 219505 3.53586e+06 0 222347 3.52663e+06 0 225191 3.51728e+06 0 228037 3.5078e+06 0 230883 3.4982e+06 0 233728 3.48848e+06 0 236571 3.47863e+06 0 239411 3.46866e+06 0 242246 3.45857e+06 0 245074 3.44835e+06 0 135238 3.57096e+06 0 137073 3.5624e+06 0 138913 3.55373e+06 0 140757 3.54494e+06 0 142605 3.53604e+06 0 144455 3.52703e+06 0 146309 3.5179e+06 0 148163 3.50865e+06 0 150019 3.49929e+06 0 151874 3.48981e+06 0 153729 3.48022e+06 0 155582 3.47051e+06 0 157433 3.46069e+06 0 159281 3.45075e+06 0 161125 3.4407e+06 0 162964 3.43054e+06 0 67665.5 3.56041e+06 0 68573.3 3.55182e+06 0 69483.2 3.54313e+06 0 70394.9 3.53432e+06 0 71308 3.5254e+06 0 72222.3 3.51637e+06 0 73137.2 3.50723e+06 0 74052.6 3.49798e+06 0 74968 3.48862e+06 0 75883.1 3.47914e+06 0 76797.4 3.46956e+06 0 77710.5 3.45987e+06 0 78622 3.45006e+06 0 79531.5 3.44015e+06 0 80438.6 3.43013e+06 0 81342.7 3.41999e+06 0 0 3.55679e+06 0 0 3.54819e+06 0 0 3.53949e+06 0 0 3.53067e+06 0 0 3.52175e+06 0 0 3.51272e+06 0 0 3.50357e+06 0 0 3.49432e+06 0 0 3.48496e+06 0 0 3.47549e+06 0 0 3.46592e+06 0 0 3.45623e+06 0 0 3.44643e+06 0 0 3.43653e+06 0 0 3.42652e+06 0 0 3.41641e+06 0 </DataArray> 
</PointData> 
<Points> 
<DataArray type="Float32" NumberOfComponents="3"> 
0.1815 0.0604836 0 0.181933 0.0604551 0 0.182367 0.0604265 0 0.1828 0.0603979 0 0.183233 0.0603694 0 0.183667 0.0603408 0 0.1841 0.0603122 0 0.184533 0.0602836 0 0.184967 0.0602551 0 0.1854 0.0602265 0 0.185833 0.0601979 0 0.186267 0.0601694 0 0.1867 0.0601408 0 0.187133 0.0601122 0 0.187567 0.0600837 0 0.188 0.0600551 0 0.1815 0.0639181 0 0.181933 0.0638914 0 0.182367 0.0638647 0 0.1828 0.0638381 0 0.183233 0.0638114 0 0.183667 0.0637847 0 0.1841 0.0637581 0 0.184533 0.0637314 0 0.184967 0.0637047 0 0.1854 0.0636781 0 0.185833 0.0636514 0 0.186267 0.0636247 0 0.1867 0.0635981 0 0.187133 0.0635714 0 0.187567 0.0635447 0 0.188 0.0635181 0 0.1815 0.0673525 0 0.181933 0.0673277 0 0.182367 0.067303 0 0.1828 0.0672782 0 0.183233 0.0672534 0 0.183667 0.0672287 0 0.1841 0.0672039 0 0.184533 0.0671792 0 0.184967 0.0671544 0 0.1854 0.0671296 0 0.185833 0.0671049 0 0.186267 0.0670801 0 0.1867 0.0670554 0 0.187133 0.0670306 0 0.187567 0.0670058 0 0.188 0.0669811 0 0.1815 0.0707869 0 0.181933 0.0707641 0 0.182367 0.0707412 0 0.1828 0.0707183 0 0.183233 0.0706955 0 0.183667 0.0706726 0 0.1841 0.0706498 0 0.184533 0.0706269 0 0.184967 0.0706041 0 0.1854 0.0705812 0 0.185833 0.0705583 0 0.186267 0.0705355 0 0.1867 0.0705126 0 0.187133 0.0704898 0 0.187567 0.0704669 0 0.188 0.0704441 0 0.1815 0.0742213 0 0.181933 0.0742004 0 0.182367 0.0741794 0 0.1828 0.0741585 0 0.183233 0.0741375 0 0.183667 0.0741166 0 0.1841 0.0740956 0 0.184533 0.0740747 0 0.184967 0.0740537 0 0.1854 0.0740328 0 0.185833 0.0740118 0 0.186267 0.0739909 0 0.1867 0.0739699 0 0.187133 0.073949 0 0.187567 0.073928 0 0.188 0.0739071 0 0.1815 0.0776558 0 0.181933 0.0776367 0 0.182367 0.0776177 0 0.1828 0.0775986 0 0.183233 0.0775796 0 0.183667 0.0775605 0 0.1841 0.0775415 0 0.184533 0.0775224 0 0.184967 0.0775034 0 0.1854 0.0774843 0 0.185833 0.0774653 0 0.186267 0.0774462 0 0.1867 0.0774272 0 0.187133 0.0774082 0 0.187567 0.0773891 0 0.188 0.0773701 0 0.1815 0.0810902 0 0.181933 0.081073 0 0.182367 0.0810559 0 0.1828 0.0810388 0 0.183233 0.0810216 0 0.183667 0.0810045 0 0.1841 0.0809873 0 0.184533 0.0809702 0 0.184967 0.080953 0 0.1854 0.0809359 0 0.185833 0.0809188 0 0.186267 0.0809016 0 0.1867 0.0808845 0 0.187133 0.0808673 0 0.187567 0.0808502 0 0.188 0.0808331 0 0.1815 0.0845246 0 0.181933 0.0845094 0 0.182367 0.0844941 0 0.1828 0.0844789 0 0.183233 0.0844637 0 0.183667 0.0844484 0 0.1841 0.0844332 0 0.184533 0.0844179 0 0.184967 0.0844027 0 0.1854 0.0843875 0 0.185833 0.0843722 0 0.186267 0.084357 0 0.1867 0.0843418 0 0.187133 0.0843265 0 0.187567 0.0843113 0 0.188 0.084296 0 0.1815 0.087959 0 0.181933 0.0879457 0 0.182367 0.0879324 0 0.1828 0.087919 0 0.183233 0.0879057 0 0.183667 0.0878924 0 0.1841 0.087879 0 0.184533 0.0878657 0 0.184967 0.0878524 0 0.1854 0.087839 0 0.185833 0.0878257 0 0.186267 0.0878124 0 0.1867 0.087799 0 0.187133 0.0877857 0 0.187567 0.0877724 0 0.188 0.087759 0 0.1815 0.0913935 0 0.181933 0.091382 0 0.182367 0.0913706 0 0.1828 0.0913592 0 0.183233 0.0913477 0 0.183667 0.0913363 0 0.1841 0.0913249 0 0.184533 0.0913135 0 0.184967 0.091302 0 0.1854 0.0912906 0 0.185833 0.0912792 0 0.186267 0.0912677 0 0.1867 0.0912563 0 0.187133 0.0912449 0 0.187567 0.0912335 0 0.188 0.091222 0 0.1815 0.0948279 0 0.181933 0.0948184 0 0.182367 0.0948088 0 0.1828 0.0947993 0 0.183233 0.0947898 0 0.183667 0.0947803 0 0.1841 0.0947707 0 0.184533 0.0947612 0 0.184967 0.0947517 0 0.1854 0.0947422 0 0.185833 0.0947326 0 0.186267 0.0947231 0 0.1867 0.0947136 0 0.187133 0.0947041 0 0.187567 0.0946946 0 0.188 0.094685 0 0.1815 0.0982623 0 0.181933 0.0982547 0 0.182367 0.0982471 0 0.1828 0.0982394 0 0.183233 0.0982318 0 0.183667 0.0982242 0 0.1841 0.0982166 0 0.184533 0.098209 0 0.184967 0.0982014 0 0.1854 0.0981937 0 0.185833 0.0981861 0 0.186267 0.0981785 0 0.1867 0.0981709 0 0.187133 0.0981633 0 0.187567 0.0981556 0 0.188 0.098148 0 0.1815 0.101697 0 0.181933 0.101691 0 0.182367 0.101685 0 0.1828 0.10168 0 0.183233 0.101674 0 0.183667 0.101668 0 0.1841 0.101662 0 0.184533 0.101657 0 0.184967 0.101651 0 0.1854 0.101645 0 0.185833 0.10164 0 0.186267 0.101634 0 0.1867 0.101628 0 0.187133 0.101622 0 0.187567 0.101617 0 0.188 0.101611 0 0.1815 0.105131 0 0.181933 0.105127 0 0.182367 0.105124 0 0.1828 0.10512 0 0.183233 0.105116 0 0.183667 0.105112 0 0.1841 0.105108 0 0.184533 0.105104 0 0.184967 0.105101 0 0.1854 0.105097 0 0.185833 0.105093 0 0.186267 0.105089 0 0.1867 0.105085 0 0.187133 0.105082 0 0.187567 0.105078 0 0.188 0.105074 0 0.1815 0.108566 0 0.181933 0.108564 0 0.182367 0.108562 0 0.1828 0.10856 0 0.183233 0.108558 0 0.183667 0.108556 0 0.1841 0.108554 0 0.184533 0.108552 0 0.184967 0.10855 0 0.1854 0.108548 0 0.185833 0.108547 0 0.186267 0.108545 0 0.1867 0.108543 0 0.187133 0.108541 0 0.187567 0.108539 0 0.188 0.108537 0 0.1815 0.112 0 0.181933 0.112 0 0.182367 0.112 0 0.1828 0.112 0 0.183233 0.112 0 0.183667 0.112 0 0.1841 0.112 0 0.184533 0.112 0 0.184967 0.112 0 0.1854 0.112 0 0.185833 0.112 0 0.186267 0.112 0 0.1867 0.112 0 0.187133 0.112 0 0.187567 0.112 0 0.188 0.112 0 
</DataArray>
</Points> 
</Piece> 
</StructuredGrid> 
</VTKFile> 
