<?xml version="1.0"?> 
<VTKFile type="StructuredGrid" version="0.1"> 
<StructuredGrid WholeExtent="0 15 0 15 0 0"> 
<Piece Extent="0 15 0 15 0 0"> 
<PointData>
<DataArray type="Float32" Name="|E|" format="ascii" NumberOfComponents="3"> 
-3.73882e+06 1.01773e+06 0 -3.78746e+06 971232 0 -3.83664e+06 923412 0 -3.88754e+06 873370 0 -3.94056e+06 820714 0 -3.99596e+06 765188 0 -4.05395e+06 706574 0 -4.11472e+06 644658 0 -4.17848e+06 579218 0 -4.24544e+06 510018 0 -4.31583e+06 436802 0 -4.38991e+06 359297 0 -4.46794e+06 277204 0 -4.55023e+06 190198 0 -4.63709e+06 97927.1 0 -4.72889e+06 -1.78814e-07 0 -3.9214e+06 1.24589e+06 0 -3.97618e+06 1.21302e+06 0 -4.03406e+06 1.17814e+06 0 -4.09506e+06 1.14132e+06 0 -4.15936e+06 1.10249e+06 0 -4.22718e+06 1.06152e+06 0 -4.29876e+06 1.01829e+06 0 -4.37442e+06 972626 0 -4.45445e+06 924383 0 -4.53922e+06 873389 0 -4.62911e+06 819463 0 -4.72457e+06 762409 0 -4.82606e+06 702019 0 -4.93411e+06 638070 0 -5.04932e+06 570322 0 -5.17236e+06 498519 0 -4.04841e+06 1.51055e+06 0 -4.11108e+06 1.49057e+06 0 -4.17724e+06 1.46967e+06 0 -4.2472e+06 1.44774e+06 0 -4.32128e+06 1.42476e+06 0 -4.39981e+06 1.40069e+06 0 -4.48316e+06 1.3755e+06 0 -4.57173e+06 1.34918e+06 0 -4.66599e+06 1.32168e+06 0 -4.76643e+06 1.29301e+06 0 -4.8736e+06 1.26315e+06 0 -4.98814e+06 1.23211e+06 0 -5.11071e+06 1.19989e+06 0 -5.24211e+06 1.16653e+06 0 -5.38319e+06 1.13209e+06 0 -5.53496e+06 1.09665e+06 0 -4.11976e+06 1.79519e+06 0 -4.18832e+06 1.78924e+06 0 -4.26097e+06 1.78333e+06 0 -4.33806e+06 1.77754e+06 0 -4.41997e+06 1.77198e+06 0 -4.5071e+06 1.76675e+06 0 -4.59991e+06 1.76199e+06 0 -4.69891e+06 1.75785e+06 0 -4.80464e+06 1.75453e+06 0 -4.91774e+06 1.75226e+06 0 -5.03888e+06 1.75132e+06 0 -5.16884e+06 1.75206e+06 0 -5.30847e+06 1.75488e+06 0 -5.45871e+06 1.76029e+06 0 -5.62061e+06 1.76887e+06 0 -5.79543e+06 1.78139e+06 0 -4.1347e+06 2.08486e+06 0 -4.20754e+06 2.09345e+06 0 -4.28487e+06 2.10333e+06 0 -4.36709e+06 2.11472e+06 0 -4.4546e+06 2.12788e+06 0 -4.54787e+06 2.1431e+06 0 -4.64739e+06 2.16076e+06 0 -4.7537e+06 2.18128e+06 0 -4.86742e+06 2.20516e+06 0 -4.9892e+06 2.23299e+06 0 -5.11976e+06 2.26548e+06 0 -5.25991e+06 2.30347e+06 0 -5.41049e+06 2.34797e+06 0 -5.57247e+06 2.40017e+06 0 -5.74682e+06 2.46151e+06 0 -5.93473e+06 2.53375e+06 0 -4.09733e+06 2.36609e+06 0 -4.17283e+06 2.38949e+06 0 -4.25302e+06 2.41556e+06 0 -4.33831e+06 2.4447e+06 0 -4.4291e+06 2.47739e+06 0 -4.52584e+06 2.51418e+06 0 -4.62899e+06 2.55571e+06 0 -4.73908e+06 2.60276e+06 0 -4.85664e+06 2.65621e+06 0 -4.98225e+06 2.71713e+06 0 -5.11649e+06 2.78677e+06 0 -5.25996e+06 2.86662e+06 0 -5.41328e+06 2.95845e+06 0 -5.57701e+06 3.06436e+06 0 -5.75166e+06 3.18688e+06 0 -5.93767e+06 3.32901e+06 0 -4.01496e+06 2.62827e+06 0 -4.09162e+06 2.66635e+06 0 -4.17296e+06 2.7086e+06 0 -4.25934e+06 2.75564e+06 0 -4.3511e+06 2.80818e+06 0 -4.44859e+06 2.86707e+06 0 -4.55219e+06 2.93329e+06 0 -4.66225e+06 3.008e+06 0 -4.77908e+06 3.09255e+06 0 -4.90299e+06 3.18854e+06 0 -5.03418e+06 3.29786e+06 0 -5.17274e+06 3.42272e+06 0 -5.3186e+06 3.56576e+06 0 -5.47141e+06 3.73005e+06 0 -5.63052e+06 3.91926e+06 0 -5.7946e+06 4.13761e+06 0 -3.89672e+06 2.86398e+06 0 -3.97326e+06 2.91631e+06 0 -4.05424e+06 2.97439e+06 0 -4.1399e+06 3.03907e+06 0 -4.23048e+06 3.11133e+06 0 -4.32615e+06 3.19232e+06 0 -4.42705e+06 3.2834e+06 0 -4.53322e+06 3.38613e+06 0 -4.64459e+06 3.50236e+06 0 -4.76092e+06 3.63424e+06 0 -4.88171e+06 3.78429e+06 0 -5.00612e+06 3.95543e+06 0 -5.13287e+06 4.15107e+06 0 -5.25998e+06 4.37507e+06 0 -5.38478e+06 4.63198e+06 0 -5.50296e+06 4.92651e+06 0 -3.7522e+06 3.06905e+06 0 -3.8276e+06 3.13499e+06 0 -3.90696e+06 3.20829e+06 0 -3.9904e+06 3.29003e+06 0 -4.07792e+06 3.38148e+06 0 -4.16944e+06 3.48411e+06 0 -4.26472e+06 3.59963e+06 0 -4.36335e+06 3.73003e+06 0 -4.46461e+06 3.8776e+06 0 -4.56745e+06 4.045e+06 0 -4.67028e+06 4.23524e+06 0 -4.77086e+06 4.45175e+06 0 -4.86608e+06 4.69839e+06 0 -4.95158e+06 4.97928e+06 0 -5.02181e+06 5.29904e+06 0 -5.06832e+06 5.66135e+06 0 -3.59046e+06 3.24205e+06 0 -3.66396e+06 3.32084e+06 0 -3.74078e+06 3.40858e+06 0 -3.82079e+06 3.50662e+06 0 -3.90372e+06 3.61648e+06 0 -3.98911e+06 3.73995e+06 0 -4.07622e+06 3.87906e+06 0 -4.16397e+06 4.03616e+06 0 -4.25079e+06 4.21391e+06 0 -4.33447e+06 4.4153e+06 0 -4.41196e+06 4.6436e+06 0 -4.47913e+06 4.90233e+06 0 -4.53046e+06 5.19517e+06 0 -4.55858e+06 5.52549e+06 0 -4.55437e+06 5.89659e+06 0 -4.50472e+06 6.30873e+06 0 -3.41931e+06 3.38375e+06 0 -3.49045e+06 3.47457e+06 0 -3.56408e+06 3.57593e+06 0 -3.63981e+06 3.68939e+06 0 -3.71699e+06 3.81674e+06 0 -3.79467e+06 3.96003e+06 0 -3.87148e+06 4.12156e+06 0 -3.94546e+06 4.30395e+06 0 -4.01394e+06 4.51004e+06 0 -4.07327e+06 4.74289e+06 0 -4.11855e+06 5.00563e+06 0 -4.14332e+06 5.30125e+06 0 -4.13926e+06 5.63225e+06 0 -4.09561e+06 5.99987e+06 0 -3.9996e+06 6.404e+06 0 -3.83411e+06 6.83857e+06 0 -3.24511e+06 3.49634e+06 0 -3.31364e+06 3.59843e+06 0 -3.38374e+06 3.7126e+06 0 -3.45464e+06 3.84063e+06 0 -3.52527e+06 3.9845e+06 0 -3.59407e+06 4.14649e+06 0 -3.65886e+06 4.32909e+06 0 -3.71666e+06 4.53501e+06 0 -3.76342e+06 4.76706e+06 0 -3.79377e+06 5.028e+06 0 -3.80067e+06 5.32024e+06 0 -3.77506e+06 5.64537e+06 0 -3.70563e+06 6.00347e+06 0 -3.57848e+06 6.39185e+06 0 -3.37791e+06 6.80452e+06 0 -3.08507e+06 7.22607e+06 0 -3.07265e+06 3.58285e+06 0 -3.13853e+06 3.69554e+06 0 -3.20496e+06 3.82182e+06 0 -3.27078e+06 3.96363e+06 0 -3.33438e+06 4.12312e+06 0 -3.39349e+06 4.3027e+06 0 -3.44498e+06 4.50491e+06 0 -3.48462e+06 4.73238e+06 0 -3.50679e+06 4.98758e+06 0 -3.50416e+06 5.27252e+06 0 -3.46734e+06 5.58815e+06 0 -3.38464e+06 5.93361e+06 0 -3.24202e+06 6.30505e+06 0 -3.02336e+06 6.69384e+06 0 -2.71188e+06 7.08546e+06 0 -2.29089e+06 7.45298e+06 0 -2.90533e+06 3.64663e+06 0 -2.96863e+06 3.76942e+06 0 -3.03144e+06 3.90728e+06 0 -3.09218e+06 4.06223e+06 0 -3.14858e+06 4.23653e+06 0 -3.19752e+06 4.43261e+06 0 -3.23477e+06 4.65294e+06 0 -3.25466e+06 4.89982e+06 0 -3.24982e+06 5.17505e+06 0 -3.21078e+06 5.47928e+06 0 -3.1258e+06 5.81118e+06 0 -2.98081e+06 6.16621e+06 0 -2.75985e+06 6.53485e+06 0 -2.4463e+06 6.90063e+06 0 -2.02533e+06 7.23793e+06 0 -1.48747e+06 7.50747e+06 0 -2.74531e+06 3.69087e+06 0 -2.80611e+06 3.82355e+06 0 -2.86559e+06 3.97269e+06 0 -2.92147e+06 4.14032e+06 0 -2.97076e+06 4.32874e+06 0 -3.00935e+06 4.54028e+06 0 -3.03171e+06 4.77719e+06 0 -3.03056e+06 5.04119e+06 0 -2.99662e+06 5.33299e+06 0 -2.91829e+06 5.65127e+06 0 -2.78166e+06 5.99143e+06 0 -2.57093e+06 6.34386e+06 0 -2.26958e+06 6.69168e+06 0 -1.86309e+06 7.00865e+06 0 -1.34261e+06 7.25599e+06 0 -711531 7.38246e+06 0 -2.59317e+06 3.71817e+06 0 -2.65213e+06 3.86137e+06 0 -2.70872e+06 4.02172e+06 0 -2.76018e+06 4.20176e+06 0 -2.8027e+06 4.40374e+06 0 -2.83096e+06 4.62978e+06 0 -2.83795e+06 4.88172e+06 0 -2.81462e+06 5.16052e+06 0 -2.74973e+06 5.46532e+06 0 -2.62972e+06 5.7921e+06 0 -2.43898e+06 6.13183e+06 0 -2.16102e+06 6.46827e+06 0 -1.7809e+06 6.77546e+06 0 -1.28938e+06 7.01541e+06 0 -688551 7.13479e+06 0 1.19209e-06 7.07103e+06 0 </DataArray> 
</PointData> 
<Points> 
<DataArray type="Float32" NumberOfComponents="3"> 
0.1 0.055 0 0.1002 0.055 0 0.1004 0.055 0 0.1006 0.055 0 0.1008 0.055 0 0.101 0.055 0 0.1012 0.055 0 0.1014 0.055 0 0.1016 0.055 0 0.1018 0.055 0 0.102 0.055 0 0.1022 0.055 0 0.1024 0.055 0 0.1026 0.055 0 0.1028 0.055 0 0.103 0.055 0 0.1 0.0559133 0 0.100196 0.0559163 0 0.100393 0.0559193 0 0.100591 0.0559223 0 0.10079 0.0559253 0 0.10099 0.0559283 0 0.101191 0.0559313 0 0.101393 0.0559344 0 0.101596 0.0559375 0 0.1018 0.0559405 0 0.102005 0.0559436 0 0.102212 0.0559468 0 0.102419 0.0559499 0 0.102627 0.055953 0 0.102836 0.0559562 0 0.103046 0.0559594 0 0.1 0.0568267 0 0.100199 0.056834 0 0.1004 0.0568413 0 0.100603 0.0568488 0 0.100808 0.0568563 0 0.101014 0.0568638 0 0.101223 0.0568715 0 0.101433 0.0568792 0 0.101646 0.056887 0 0.10186 0.0568948 0 0.102077 0.0569027 0 0.102295 0.0569107 0 0.102516 0.0569188 0 0.102739 0.056927 0 0.102964 0.0569352 0 0.103191 0.0569435 0 0.1 0.05774 0 0.100209 0.057752 0 0.100421 0.0577642 0 0.100636 0.0577766 0 0.100853 0.0577891 0 0.101073 0.0578018 0 0.101296 0.0578146 0 0.101522 0.0578276 0 0.101751 0.0578408 0 0.101983 0.0578541 0 0.102218 0.0578677 0 0.102456 0.0578814 0 0.102697 0.0578953 0 0.102942 0.0579094 0 0.10319 0.0579236 0 0.103441 0.0579381 0 0.1 0.0586533 0 0.100226 0.0586696 0 0.100456 0.0586861 0 0.100689 0.0587028 0 0.100926 0.0587199 0 0.101167 0.0587372 0 0.101412 0.0587547 0 0.10166 0.0587726 0 0.101913 0.0587907 0 0.10217 0.0588092 0 0.102431 0.0588279 0 0.102696 0.058847 0 0.102966 0.0588663 0 0.10324 0.058886 0 0.103519 0.0589061 0 0.103803 0.0589265 0 0.1 0.0595667 0 0.10025 0.0595856 0 0.100505 0.0596049 0 0.100764 0.0596245 0 0.101028 0.0596445 0 0.101296 0.0596648 0 0.10157 0.0596855 0 0.101849 0.0597066 0 0.102132 0.0597281 0 0.102421 0.0597499 0 0.102716 0.0597722 0 0.103016 0.059795 0 0.103322 0.0598181 0 0.103635 0.0598418 0 0.103953 0.0598658 0 0.104277 0.0598904 0 0.1 0.06048 0 0.100281 0.0604991 0 0.100568 0.0605187 0 0.10086 0.0605386 0 0.101158 0.0605588 0 0.101461 0.0605795 0 0.101771 0.0606006 0 0.102087 0.0606221 0 0.102409 0.0606441 0 0.102738 0.0606665 0 0.103074 0.0606893 0 0.103416 0.0607126 0 0.103766 0.0607365 0 0.104124 0.0607608 0 0.104489 0.0607857 0 0.104862 0.0608111 0 0.1 0.0613933 0 0.100319 0.0614092 0 0.100645 0.0614255 0 0.100977 0.061442 0 0.101315 0.0614589 0 0.101661 0.0614762 0 0.102014 0.0614937 0 0.102374 0.0615117 0 0.102741 0.06153 0 0.103117 0.0615488 0 0.1035 0.0615679 0 0.103892 0.0615874 0 0.104293 0.0616074 0 0.104703 0.0616278 0 0.105121 0.0616487 0 0.105549 0.0616701 0 0.1 0.0623067 0 0.100364 0.0623149 0 0.100735 0.0623234 0 0.101114 0.062332 0 0.1015 0.0623408 0 0.101894 0.0623497 0 0.102297 0.0623589 0 0.102708 0.0623682 0 0.103127 0.0623777 0 0.103555 0.0623875 0 0.103993 0.0623974 0 0.10444 0.0624076 0 0.104897 0.0624179 0 0.105364 0.0624286 0 0.105841 0.0624394 0 0.10633 0.0624505 0 0.1 0.06322 0 0.100416 0.0632153 0 0.10084 0.0632105 0 0.101271 0.0632055 0 0.101712 0.0632005 0 0.102161 0.0631954 0 0.102619 0.0631902 0 0.103086 0.0631849 0 0.103562 0.0631795 0 0.104048 0.063174 0 0.104545 0.0631683 0 0.105052 0.0631626 0 0.105569 0.0631567 0 0.106097 0.0631507 0 0.106637 0.0631445 0 0.107189 0.0631383 0 0.1 0.0641333 0 0.100474 0.0641093 0 0.100957 0.0640849 0 0.101448 0.06406 0 0.101949 0.0640346 0 0.102458 0.0640088 0 0.102977 0.0639826 0 0.103505 0.0639558 0 0.104043 0.0639286 0 0.104591 0.0639008 0 0.10515 0.0638725 0 0.105719 0.0638437 0 0.106299 0.0638143 0 0.106891 0.0637843 0 0.107494 0.0637538 0 0.10811 0.0637226 0 0.1 0.0650467 0 0.10054 0.0649961 0 0.101088 0.0649448 0 0.101645 0.0648927 0 0.10221 0.0648397 0 0.102784 0.0647859 0 0.103368 0.0647312 0 0.103961 0.0646757 0 0.104564 0.0646193 0 0.105176 0.0645619 0 0.105799 0.0645036 0 0.106432 0.0644443 0 0.107076 0.064384 0 0.10773 0.0643227 0 0.108396 0.0642603 0 0.109074 0.0641969 0 0.1 0.06596 0 0.100612 0.0658748 0 0.101231 0.0657885 0 0.101859 0.0657011 0 0.102494 0.0656126 0 0.103138 0.065523 0 0.10379 0.0654322 0 0.10445 0.0653402 0 0.105119 0.065247 0 0.105797 0.0651526 0 0.106484 0.0650569 0 0.107181 0.0649599 0 0.107886 0.0648616 0 0.108602 0.064762 0 0.109327 0.064661 0 0.110062 0.0645586 0 0.1 0.0668733 0 0.10069 0.0667445 0 0.101387 0.0666144 0 0.10209 0.0664832 0 0.102799 0.0663508 0 0.103515 0.0662171 0 0.104238 0.0660822 0 0.104967 0.065946 0 0.105704 0.0658086 0 0.106447 0.0656699 0 0.107197 0.0655298 0 0.107954 0.0653885 0 0.108719 0.0652458 0 0.10949 0.0651017 0 0.11027 0.0649562 0 0.111056 0.0648093 0 0.1 0.0677867 0 0.100775 0.0676043 0 0.101554 0.067421 0 0.102337 0.0672367 0 0.103124 0.0670516 0 0.103915 0.0668656 0 0.104709 0.0666787 0 0.105508 0.0664908 0 0.10631 0.0663021 0 0.107117 0.0661123 0 0.107927 0.0659217 0 0.108742 0.06573 0 0.10956 0.0655374 0 0.110383 0.0653439 0 0.11121 0.0651494 0 0.112041 0.0649539 0 0.1 0.0687 0 0.100867 0.0684533 0 0.101733 0.0682067 0 0.1026 0.06796 0 0.103467 0.0677133 0 0.104333 0.0674667 0 0.1052 0.06722 0 0.106067 0.0669733 0 0.106933 0.0667267 0 0.1078 0.06648 0 0.108667 0.0662333 0 0.109533 0.0659867 0 0.1104 0.06574 0 0.111267 0.0654933 0 0.112133 0.0652467 0 0.113 0.065 0 
</DataArray>
</Points> 
</Piece> 
</StructuredGrid> 
</VTKFile> 
