<?xml version="1.0"?> 
<VTKFile type="StructuredGrid" version="0.1"> 
<StructuredGrid WholeExtent="0 15 0 15 0 0"> 
<Piece Extent="0 15 0 15 0 0"> 
<PointData>
<DataArray type="Float32" Name="|E|" format="ascii" NumberOfComponents="3"> 
-1.78814e-07 5.56624e+06 0 2.06637e-09 3.86209e+06 0 5.12227e-08 2.91056e+06 0 -4.56348e-08 2.27225e+06 0 3.49246e-08 1.75088e+06 0 -7.45058e-09 1.29503e+06 0 3.25963e-08 897380 0 -5.58794e-08 571903 0 5.40167e-08 333244 0 -5.40167e-08 179417 0 9.68575e-08 91240.5 0 -1.22935e-07 44808 0 1.08033e-07 21623.7 0 -8.56817e-08 10311 0 3.72529e-08 4980.27 0 0 3294.64 0 -414914 4.24203e+06 0 -240584 3.1708e+06 0 -171257 2.49017e+06 0 -143666 1.95767e+06 0 -127017 1.49569e+06 0 -111630 1.08586e+06 0 -92304.2 734353 0 -68815.1 457157 0 -45392.8 262409 0 -26768.8 141058 0 -14532.4 72544.7 0 -7493.99 36366.8 0 -3758.28 17984.4 0 -1853.19 8855.6 0 -894.63 4372.6 0 -138.783 2136.96 0 -535168 3.33999e+06 0 -367148 2.65686e+06 0 -301254 2.12561e+06 0 -265830 1.66529e+06 0 -237462 1.25217e+06 0 -204840 886017 0 -162990 580970 0 -116241 351434 0 -74017 198124 0 -42921.3 106184 0 -23343.7 55193.1 0 -12225.7 28219.3 0 -6271.27 14313.5 0 -3176.39 7239.59 0 -1560.37 3679.79 0 -627.52 1750.25 0 -574010 2.75181e+06 0 -468067 2.24677e+06 0 -412586 1.79758e+06 0 -371985 1.3894e+06 0 -330067 1.01831e+06 0 -275743 695277 0 -209529 438102 0 -142759 256140 0 -88074.8 141623 0 -50474 75733.3 0 -27613.1 39822.3 0 -14715.9 20775.9 0 -7728.75 10804.7 0 -4018.51 5617.17 0 -2038.82 2924.22 0 -994.797 1433.79 0 -635699 2.31537e+06 0 -562415 1.88785e+06 0 -510826 1.49224e+06 0 -462071 1.12453e+06 0 -400232 792388 0 -319740 514750 0 -230592 308383 0 -150277 173463 0 -90348.9 94115.5 0 -51501 50334.7 0 -28468 26819.6 0 -15472.6 14288.1 0 -8328.8 7619.55 0 -4447.55 4070.52 0 -2336.55 2165.87 0 -1225.23 1100.05 0 -709821 1.93385e+06 0 -649773 1.5572e+06 0 -596429 1.19971e+06 0 -530687 865997 0 -440808 574653 0 -332844 348448 0 -227130 196006 0 -142275 105655 0 -84064.4 56343.3 0 -48022.7 30205.3 0 -26943.4 16326.7 0 -14969.1 8883.81 0 -8266.69 4857.26 0 -4537.56 2662.99 0 -2466.22 1446.6 0 -1348.06 757.609 0 -784866 1.58241e+06 0 -729718 1.24068e+06 0 -662806 911134 0 -567232 611816 0 -443873 370319 0 -314095 203731 0 -203270 105584 0 -123583 54088 0 -72551.6 28251.7 0 -41857.7 15135.6 0 -23938.3 8274.43 0 -13623.1 4587.15 0 -7725.83 2565.94 0 -4362.47 1438.85 0 -2449.44 793.987 0 -1382.78 423.892 0 -859171 1.24511e+06 0 -793774 924076 0 -694590 620727 0 -557839 368085 0 -405111 191321 0 -268204 89506.8 0 -166298 40141.4 0 -99600.6 18437 0 -58792.7 8935.15 0 -34496.6 4566.4 0 -20181.5 2436.66 0 -11785.4 1342.31 0 -6869.79 753.767 0 -3992.75 422.359 0 -2312.94 226.123 0 -1344.35 113.993 0 -921899 901014 0 -819571 595960 0 -668791 335543 0 -492750 153531 0 -329900 53712.9 0 -206436 12058 0 -125080 -877.199 0 -75110.6 -3454.25 0 -45054.7 -3133.43 0 -27031.5 -2272.19 0 -16222.1 -1508.6 0 -9734.91 -960.794 0 -5837.05 -601.792 0 -3493.1 -379.501 0 -2085.35 -246.38 0 -1245.81 -160.824 0 -939424 531634 0 -769766 265689 0 -567557 85295.5 0 -378873 -4256.62 0 -236313 -30786.4 0 -143542 -29622.8 0 -87222.2 -21936.7 0 -53328.7 -14889.6 0 -32748 -9721.95 0 -20165.2 -6213.76 0 -12439.2 -3924.02 0 -7679.34 -2463.27 0 -4739.25 -1544.83 0 -2920.45 -973.628 0 -1794.85 -619.249 0 -1100.09 -392.706 0 -851088 152341 0 -616139 -17461.8 0 -402826 -84040.1 0 -246703 -85806.9 0 -148939 -65019 0 -91290.2 -44500.1 0 -56841.3 -29505.5 0 -35696.1 -19288.3 0 -22534.1 -12492 0 -14276.6 -8046.45 0 -9065.25 -5168.67 0 -5761.68 -3317.72 0 -3661.21 -2132.85 0 -2322.75 -1377.02 0 -1467.52 -893.838 0 -919.867 -577.356 0 -619350 -152607 0 -386501 -179239 0 -228411 -144932 0 -136351 -100545 0 -84556.6 -66873 0 -53780.4 -44391.1 0 -34570.3 -29433.8 0 -22373.1 -19442.1 0 -14556 -12819.9 0 -9503.22 -8448.25 0 -6216.62 -5568.27 0 -4069.74 -3673.76 0 -2663.08 -2429.58 0 -1738.41 -1613.45 0 -1126.37 -1076.44 0 -716.481 -713.873 0 -315217 -272058 0 -176835 -192320 0 -105318 -125913 0 -67240.4 -83147 0 -44019.6 -56105.6 0 -29016.5 -37990.1 0 -19260.3 -25674.2 0 -12878.3 -17356.4 0 -8647.17 -11749 0 -5822.08 -7959.65 0 -3925.1 -5398.95 0 -2647.28 -3668.08 0 -1783.49 -2499.25 0 -1196.44 -1710.64 0 -790.887 -1177.58 0 -500.285 -805.357 0 -100459 -207012 0 -64161.7 -130314 0 -43825.5 -88487.7 0 -29627.7 -61779 0 -19963.4 -42903.4 0 -13607.4 -29709.2 0 -9368.08 -20624.8 0 -6476.82 -14358.6 0 -4489.47 -10008 0 -3117.55 -6984.49 0 -2166.32 -4881.5 0 -1505.14 -3418.7 0 -1043.29 -2402.28 0 -717.442 -1697.92 0 -477.91 -1211.52 0 -275.683 -863.409 0 -29425.4 -112732 0 -20883.4 -83657.7 0 -13773.2 -60627.8 0 -9380.6 -42966.5 0 -6640.91 -30511.9 0 -4728.9 -21817.3 0 -3370.17 -15643.6 0 -2404.97 -11228.2 0 -1721.22 -8067.87 0 -1232.2 -5805.25 0 -882.613 -4183.62 0 -631.344 -3022.44 0 -449.682 -2192.48 0 -315.309 -1604.15 0 -205.183 -1196.12 0 -53.1457 -919.24 0 1.01328e-06 -62317 0 -9.27248e-08 -48616.5 0 1.72295e-08 -38556.7 0 -6.98492e-09 -28499.7 0 -2.04891e-08 -20782.1 0 -1.30385e-08 -15307.5 0 8.19564e-08 -11322.5 0 -8.9407e-08 -8383.27 0 3.35276e-08 -6210.64 0 -7.07805e-08 -4608.4 0 7.45058e-08 -3425.8 0 -4.47035e-08 -2554.03 0 1.49012e-08 -1915.34 0 -8.19564e-08 -1451.76 0 4.47035e-08 -1145.24 0 -2.38419e-07 -1155 0 </DataArray> 
</PointData> 
<Points> 
<DataArray type="Float32" NumberOfComponents="3"> 
0.075 0.021 0 0.0783333 0.021 0 0.0816667 0.021 0 0.085 0.021 0 0.0883333 0.021 0 0.0916667 0.021 0 0.095 0.021 0 0.0983333 0.021 0 0.101667 0.021 0 0.105 0.021 0 0.108333 0.021 0 0.111667 0.021 0 0.115 0.021 0 0.118333 0.021 0 0.121667 0.021 0 0.125 0.021 0 0.0773333 0.0219333 0 0.0805333 0.0219333 0 0.0837333 0.0219333 0 0.0869333 0.0219333 0 0.0901333 0.0219333 0 0.0933333 0.0219333 0 0.0965333 0.0219333 0 0.0997333 0.0219333 0 0.102933 0.0219333 0 0.106133 0.0219333 0 0.109333 0.0219333 0 0.112533 0.0219333 0 0.115733 0.0219333 0 0.118933 0.0219333 0 0.122133 0.0219333 0 0.125333 0.0219333 0 0.0796667 0.0228667 0 0.0827333 0.0228667 0 0.0858 0.0228667 0 0.0888667 0.0228667 0 0.0919333 0.0228667 0 0.095 0.0228667 0 0.0980667 0.0228667 0 0.101133 0.0228667 0 0.1042 0.0228667 0 0.107267 0.0228667 0 0.110333 0.0228667 0 0.1134 0.0228667 0 0.116467 0.0228667 0 0.119533 0.0228667 0 0.1226 0.0228667 0 0.125667 0.0228667 0 0.082 0.0238 0 0.0849333 0.0238 0 0.0878667 0.0238 0 0.0908 0.0238 0 0.0937333 0.0238 0 0.0966667 0.0238 0 0.0996 0.0238 0 0.102533 0.0238 0 0.105467 0.0238 0 0.1084 0.0238 0 0.111333 0.0238 0 0.114267 0.0238 0 0.1172 0.0238 0 0.120133 0.0238 0 0.123067 0.0238 0 0.126 0.0238 0 0.0843333 0.0247333 0 0.0871333 0.0247333 0 0.0899333 0.0247333 0 0.0927333 0.0247333 0 0.0955333 0.0247333 0 0.0983333 0.0247333 0 0.101133 0.0247333 0 0.103933 0.0247333 0 0.106733 0.0247333 0 0.109533 0.0247333 0 0.112333 0.0247333 0 0.115133 0.0247333 0 0.117933 0.0247333 0 0.120733 0.0247333 0 0.123533 0.0247333 0 0.126333 0.0247333 0 0.0866667 0.0256667 0 0.0893333 0.0256667 0 0.092 0.0256667 0 0.0946667 0.0256667 0 0.0973333 0.0256667 0 0.1 0.0256667 0 0.102667 0.0256667 0 0.105333 0.0256667 0 0.108 0.0256667 0 0.110667 0.0256667 0 0.113333 0.0256667 0 0.116 0.0256667 0 0.118667 0.0256667 0 0.121333 0.0256667 0 0.124 0.0256667 0 0.126667 0.0256667 0 0.089 0.0266 0 0.0915333 0.0266 0 0.0940667 0.0266 0 0.0966 0.0266 0 0.0991333 0.0266 0 0.101667 0.0266 0 0.1042 0.0266 0 0.106733 0.0266 0 0.109267 0.0266 0 0.1118 0.0266 0 0.114333 0.0266 0 0.116867 0.0266 0 0.1194 0.0266 0 0.121933 0.0266 0 0.124467 0.0266 0 0.127 0.0266 0 0.0913333 0.0275333 0 0.0937333 0.0275333 0 0.0961333 0.0275333 0 0.0985333 0.0275333 0 0.100933 0.0275333 0 0.103333 0.0275333 0 0.105733 0.0275333 0 0.108133 0.0275333 0 0.110533 0.0275333 0 0.112933 0.0275333 0 0.115333 0.0275333 0 0.117733 0.0275333 0 0.120133 0.0275333 0 0.122533 0.0275333 0 0.124933 0.0275333 0 0.127333 0.0275333 0 0.0936667 0.0284667 0 0.0959333 0.0284667 0 0.0982 0.0284667 0 0.100467 0.0284667 0 0.102733 0.0284667 0 0.105 0.0284667 0 0.107267 0.0284667 0 0.109533 0.0284667 0 0.1118 0.0284667 0 0.114067 0.0284667 0 0.116333 0.0284667 0 0.1186 0.0284667 0 0.120867 0.0284667 0 0.123133 0.0284667 0 0.1254 0.0284667 0 0.127667 0.0284667 0 0.096 0.0294 0 0.0981333 0.0294 0 0.100267 0.0294 0 0.1024 0.0294 0 0.104533 0.0294 0 0.106667 0.0294 0 0.1088 0.0294 0 0.110933 0.0294 0 0.113067 0.0294 0 0.1152 0.0294 0 0.117333 0.0294 0 0.119467 0.0294 0 0.1216 0.0294 0 0.123733 0.0294 0 0.125867 0.0294 0 0.128 0.0294 0 0.0983333 0.0303333 0 0.100333 0.0303333 0 0.102333 0.0303333 0 0.104333 0.0303333 0 0.106333 0.0303333 0 0.108333 0.0303333 0 0.110333 0.0303333 0 0.112333 0.0303333 0 0.114333 0.0303333 0 0.116333 0.0303333 0 0.118333 0.0303333 0 0.120333 0.0303333 0 0.122333 0.0303333 0 0.124333 0.0303333 0 0.126333 0.0303333 0 0.128333 0.0303333 0 0.100667 0.0312667 0 0.102533 0.0312667 0 0.1044 0.0312667 0 0.106267 0.0312667 0 0.108133 0.0312667 0 0.11 0.0312667 0 0.111867 0.0312667 0 0.113733 0.0312667 0 0.1156 0.0312667 0 0.117467 0.0312667 0 0.119333 0.0312667 0 0.1212 0.0312667 0 0.123067 0.0312667 0 0.124933 0.0312667 0 0.1268 0.0312667 0 0.128667 0.0312667 0 0.103 0.0322 0 0.104733 0.0322 0 0.106467 0.0322 0 0.1082 0.0322 0 0.109933 0.0322 0 0.111667 0.0322 0 0.1134 0.0322 0 0.115133 0.0322 0 0.116867 0.0322 0 0.1186 0.0322 0 0.120333 0.0322 0 0.122067 0.0322 0 0.1238 0.0322 0 0.125533 0.0322 0 0.127267 0.0322 0 0.129 0.0322 0 0.105333 0.0331333 0 0.106933 0.0331333 0 0.108533 0.0331333 0 0.110133 0.0331333 0 0.111733 0.0331333 0 0.113333 0.0331333 0 0.114933 0.0331333 0 0.116533 0.0331333 0 0.118133 0.0331333 0 0.119733 0.0331333 0 0.121333 0.0331333 0 0.122933 0.0331333 0 0.124533 0.0331333 0 0.126133 0.0331333 0 0.127733 0.0331333 0 0.129333 0.0331333 0 0.107667 0.0340667 0 0.109133 0.0340667 0 0.1106 0.0340667 0 0.112067 0.0340667 0 0.113533 0.0340667 0 0.115 0.0340667 0 0.116467 0.0340667 0 0.117933 0.0340667 0 0.1194 0.0340667 0 0.120867 0.0340667 0 0.122333 0.0340667 0 0.1238 0.0340667 0 0.125267 0.0340667 0 0.126733 0.0340667 0 0.1282 0.0340667 0 0.129667 0.0340667 0 0.11 0.035 0 0.111333 0.035 0 0.112667 0.035 0 0.114 0.035 0 0.115333 0.035 0 0.116667 0.035 0 0.118 0.035 0 0.119333 0.035 0 0.120667 0.035 0 0.122 0.035 0 0.123333 0.035 0 0.124667 0.035 0 0.126 0.035 0 0.127333 0.035 0 0.128667 0.035 0 0.13 0.035 0 
</DataArray>
</Points> 
</Piece> 
</StructuredGrid> 
</VTKFile> 
