<?xml version="1.0"?> 
<VTKFile type="StructuredGrid" version="0.1"> 
<StructuredGrid WholeExtent="0 15 0 15 0 0"> 
<Piece Extent="0 15 0 15 0 0"> 
<PointData>
<DataArray type="Float32" Name="|E|" format="ascii" NumberOfComponents="3"> 
-1.71167e+06 8.721 0 -2.31568e+06 2.62897 0 -2.73946e+06 -2.45468 0 -2.98532e+06 -2.44023 0 -3.11893e+06 -1.5195 0 -3.19331e+06 -0.838597 0 -3.24007e+06 -0.447575 0 -3.27649e+06 -0.228681 0 -3.31167e+06 -0.10041 0 -3.35004e+06 -0.0114581 0 -3.39309e+06 0.070718 0 -3.44005e+06 0.162985 0 -3.48778e+06 0.25678 0 -3.53064e+06 0.300529 0 -3.56115e+06 0.216154 0 -3.57233e+06 3.21865e-06 0 -1.71176e+06 109804 0 -2.31848e+06 89178.2 0 -2.74208e+06 54950.9 0 -2.98691e+06 30255.7 0 -3.11975e+06 16399.5 0 -3.19368e+06 9585.56 0 -3.24021e+06 6683.59 0 -3.2765e+06 5882.18 0 -3.31162e+06 6151.4 0 -3.34997e+06 6891.66 0 -3.39303e+06 7685.95 0 -3.44004e+06 8154.16 0 -3.48784e+06 7878.2 0 -3.53082e+06 6448.24 0 -3.56143e+06 3692.85 0 -3.57266e+06 -3.64031e-07 0 -1.71204e+06 220909 0 -2.32696e+06 178699 0 -2.74995e+06 109565 0 -2.99165e+06 60193.1 0 -3.12221e+06 32598.2 0 -3.19482e+06 19062.3 0 -3.24062e+06 13308.2 0 -3.27654e+06 11734.7 0 -3.31147e+06 12289.6 0 -3.34975e+06 13781.9 0 -3.39286e+06 15381.2 0 -3.43999e+06 16329.7 0 -3.48804e+06 15790.2 0 -3.53135e+06 12936.2 0 -3.56228e+06 7414.33 0 -3.57364e+06 9.49949e-08 0 -1.7125e+06 334674 0 -2.34143e+06 268880 0 -2.76314e+06 163489 0 -2.99954e+06 89494.1 0 -3.12628e+06 48397.8 0 -3.19669e+06 28323.3 0 -3.2413e+06 19816 0 -3.27659e+06 17528.3 0 -3.31122e+06 18401.6 0 -3.3494e+06 20669.2 0 -3.39256e+06 23094.8 0 -3.43991e+06 24547.9 0 -3.48838e+06 23769.8 0 -3.53224e+06 19503.8 0 -3.5637e+06 11193.5 0 -3.5753e+06 1.76951e-08 0 -1.71317e+06 452642 0 -2.36239e+06 359993 0 -2.78171e+06 216329 0 -3.0105e+06 117835 0 -3.13191e+06 63601.4 0 -3.19927e+06 37263.6 0 -3.24222e+06 26149.7 0 -3.27665e+06 23234.5 0 -3.31086e+06 24474.5 0 -3.34889e+06 27552.2 0 -3.39213e+06 30835.9 0 -3.4398e+06 32830 0 -3.48883e+06 31851.2 0 -3.53349e+06 26192.1 0 -3.56571e+06 15060.6 0 -3.57763e+06 -9.31323e-09 0 -1.71407e+06 576563 0 -2.39058e+06 452213 0 -2.80579e+06 267639 0 -3.02446e+06 144887 0 -3.13903e+06 78017.8 0 -3.20252e+06 45781.1 0 -3.24337e+06 32254.5 0 -3.27671e+06 28825.7 0 -3.31038e+06 30496.1 0 -3.34824e+06 34429.6 0 -3.39157e+06 38613.4 0 -3.43964e+06 41197.2 0 -3.48941e+06 40069.1 0 -3.53509e+06 33044 0 -3.56831e+06 19047.6 0 -3.58067e+06 -7.45058e-09 0 -1.71524e+06 708719 0 -2.42705e+06 545569 0 -2.83545e+06 316905 0 -3.04132e+06 170312 0 -3.14756e+06 91462.4 0 -3.20639e+06 53778 0 -3.24472e+06 38077.9 0 -3.27675e+06 34275.6 0 -3.30978e+06 36454.5 0 -3.34742e+06 41300.2 0 -3.39087e+06 46436.2 0 -3.43942e+06 49670.5 0 -3.4901e+06 48458.9 0 -3.53705e+06 40104 0 -3.57152e+06 23189.2 0 -3.58443e+06 1.86265e-08 0 -1.71678e+06 851792 0 -2.47319e+06 639821 0 -2.87077e+06 363559 0 -3.06094e+06 193751 0 -3.15738e+06 103768 0 -3.21082e+06 61157.5 0 -3.24622e+06 43572.5 0 -3.27675e+06 39558.8 0 -3.30903e+06 42338.8 0 -3.34642e+06 48162.7 0 -3.39002e+06 54312.5 0 -3.43914e+06 58270.7 0 -3.49089e+06 57056.7 0 -3.53937e+06 47419.6 0 -3.57537e+06 27523 0 -3.58896e+06 7.45058e-09 0 -1.71905e+06 1.00994e+06 0 -2.53082e+06 734337 0 -2.91173e+06 406965 0 -3.08314e+06 214831 0 -3.16838e+06 114786 0 -3.21575e+06 67825.2 0 -3.24786e+06 48696.3 0 -3.2767e+06 44650.7 0 -3.30813e+06 48139.2 0 -3.34525e+06 55015.7 0 -3.389e+06 62250.5 0 -3.43877e+06 67018.1 0 -3.49176e+06 65899.4 0 -3.54204e+06 55041.7 0 -3.57987e+06 32091 0 -3.59429e+06 8.9407e-08 0 -1.7227e+06 1.18819e+06 0 -2.60226e+06 827788 0 -2.95818e+06 446525 0 -3.10768e+06 233106 0 -3.18042e+06 124421 0 -3.22109e+06 73674.6 0 -3.24957e+06 53420.8 0 -3.27656e+06 49525.1 0 -3.30707e+06 53848.5 0 -3.34388e+06 61857.5 0 -3.38781e+06 70258.3 0 -3.4383e+06 75932.9 0 -3.4927e+06 75024.7 0 -3.54507e+06 63025 0 -3.58506e+06 36940.4 0 -3.60048e+06 -2.45869e-07 0 -1.73041e+06 1.39613e+06 0 -2.69039e+06 917917 0 -3.00976e+06 481645 0 -3.13431e+06 248097 0 -3.19333e+06 132620 0 -3.22674e+06 78592.4 0 -3.25132e+06 57729.8 0 -3.27631e+06 54154.2 0 -3.30582e+06 59462.2 0 -3.3423e+06 68685.6 0 -3.38642e+06 78343.2 0 -3.43772e+06 85034.2 0 -3.49368e+06 84471.3 0 -3.54844e+06 71429 0 -3.59097e+06 42125.2 0 -3.60758e+06 1.78814e-07 0 -1.74781e+06 1.64756e+06 0 -2.79861e+06 1.00096e+06 0 -3.0658e+06 511959 0 -3.16269e+06 259182 0 -3.207e+06 139440 0 -3.23257e+06 82427.1 0 -3.25309e+06 61636 0 -3.27591e+06 58501.7 0 -3.30438e+06 64981.3 0 -3.3405e+06 75495.7 0 -3.38482e+06 86512.5 0 -3.43698e+06 94340.5 0 -3.49469e+06 94278.3 0 -3.55215e+06 80318.8 0 -3.59765e+06 47707.2 0 -3.61567e+06 1.49012e-08 0 -1.79595e+06 1.97467e+06 0 -2.92998e+06 1.07169e+06 0 -3.12535e+06 536862 0 -3.19242e+06 265905 0 -3.22128e+06 144904 0 -3.23844e+06 85056.7 0 -3.25485e+06 65151.3 0 -3.27529e+06 62535.7 0 -3.30274e+06 70408 0 -3.33844e+06 82283.9 0 -3.383e+06 94772.9 0 -3.43608e+06 103869 0 -3.4957e+06 104485 0 -3.55619e+06 89765.6 0 -3.60514e+06 53758.4 0 -3.62484e+06 -2.38419e-07 0 -1.92937e+06 2.45532e+06 0 -3.08543e+06 1.12467e+06 0 -3.18724e+06 554005 0 -3.22304e+06 268872 0 -3.23606e+06 148550 0 -3.24415e+06 86611 0 -3.2566e+06 68184.9 0 -3.2744e+06 66273.6 0 -3.30091e+06 75726.7 0 -3.3361e+06 89052.8 0 -3.38095e+06 103127 0 -3.43497e+06 113637 0 -3.49666e+06 115132 0 -3.56055e+06 99847.5 0 -3.61348e+06 60364 0 -3.6352e+06 1.93715e-07 0 -2.35444e+06 3.33241e+06 0 -3.25318e+06 1.16268e+06 0 -3.2513e+06 551358 0 -3.25409e+06 274328 0 -3.25098e+06 147056 0 -3.24972e+06 88653.7 0 -3.2582e+06 69981.1 0 -3.27326e+06 70036.5 0 -3.29883e+06 80797.5 0 -3.33348e+06 95852.5 0 -3.37863e+06 111564 0 -3.43364e+06 123661 0 -3.49755e+06 126259 0 -3.56519e+06 110647 0 -3.62275e+06 67628.3 0 -3.64688e+06 -3.27826e-07 0 -3.91953e+06 6.04035e+06 0 -3.36584e+06 1.26105e+06 0 -3.32358e+06 448070 0 -3.28568e+06 327759 0 -3.26409e+06 116662 0 -3.25656e+06 102971 0 -3.25854e+06 64917.4 0 -3.27247e+06 76354.4 0 -3.2961e+06 84551.6 0 -3.33077e+06 103083 0 -3.37592e+06 119965 0 -3.4321e+06 133963 0 -3.49828e+06 137930 0 -3.57011e+06 122227 0 -3.633e+06 75702.1 0 -3.66002e+06 1.90735e-06 0 </DataArray> 
</PointData> 
<Points> 
<DataArray type="Float32" NumberOfComponents="3"> 
0.016 0 0 0.0199333 0 0 0.0238667 0 0 0.0278 0 0 0.0317333 0 0 0.0356667 0 0 0.0396 0 0 0.0435333 0 0 0.0474667 0 0 0.0514 0 0 0.0553333 0 0 0.0592667 0 0 0.0632 0 0 0.0671333 0 0 0.0710667 0 0 0.075 0 0 0.016 0.000666667 0 0.0199333 0.000666667 0 0.0238667 0.000666667 0 0.0278 0.000666667 0 0.0317333 0.000666667 0 0.0356667 0.000666667 0 0.0396 0.000666667 0 0.0435333 0.000666667 0 0.0474667 0.000666667 0 0.0514 0.000666667 0 0.0553333 0.000666667 0 0.0592667 0.000666667 0 0.0632 0.000666667 0 0.0671333 0.000666667 0 0.0710667 0.000666667 0 0.075 0.000666667 0 0.016 0.00133333 0 0.0199333 0.00133333 0 0.0238667 0.00133333 0 0.0278 0.00133333 0 0.0317333 0.00133333 0 0.0356667 0.00133333 0 0.0396 0.00133333 0 0.0435333 0.00133333 0 0.0474667 0.00133333 0 0.0514 0.00133333 0 0.0553333 0.00133333 0 0.0592667 0.00133333 0 0.0632 0.00133333 0 0.0671333 0.00133333 0 0.0710667 0.00133333 0 0.075 0.00133333 0 0.016 0.002 0 0.0199333 0.002 0 0.0238667 0.002 0 0.0278 0.002 0 0.0317333 0.002 0 0.0356667 0.002 0 0.0396 0.002 0 0.0435333 0.002 0 0.0474667 0.002 0 0.0514 0.002 0 0.0553333 0.002 0 0.0592667 0.002 0 0.0632 0.002 0 0.0671333 0.002 0 0.0710667 0.002 0 0.075 0.002 0 0.016 0.00266667 0 0.0199333 0.00266667 0 0.0238667 0.00266667 0 0.0278 0.00266667 0 0.0317333 0.00266667 0 0.0356667 0.00266667 0 0.0396 0.00266667 0 0.0435333 0.00266667 0 0.0474667 0.00266667 0 0.0514 0.00266667 0 0.0553333 0.00266667 0 0.0592667 0.00266667 0 0.0632 0.00266667 0 0.0671333 0.00266667 0 0.0710667 0.00266667 0 0.075 0.00266667 0 0.016 0.00333333 0 0.0199333 0.00333333 0 0.0238667 0.00333333 0 0.0278 0.00333333 0 0.0317333 0.00333333 0 0.0356667 0.00333333 0 0.0396 0.00333333 0 0.0435333 0.00333333 0 0.0474667 0.00333333 0 0.0514 0.00333333 0 0.0553333 0.00333333 0 0.0592667 0.00333333 0 0.0632 0.00333333 0 0.0671333 0.00333333 0 0.0710667 0.00333333 0 0.075 0.00333333 0 0.016 0.004 0 0.0199333 0.004 0 0.0238667 0.004 0 0.0278 0.004 0 0.0317333 0.004 0 0.0356667 0.004 0 0.0396 0.004 0 0.0435333 0.004 0 0.0474667 0.004 0 0.0514 0.004 0 0.0553333 0.004 0 0.0592667 0.004 0 0.0632 0.004 0 0.0671333 0.004 0 0.0710667 0.004 0 0.075 0.004 0 0.016 0.00466667 0 0.0199333 0.00466667 0 0.0238667 0.00466667 0 0.0278 0.00466667 0 0.0317333 0.00466667 0 0.0356667 0.00466667 0 0.0396 0.00466667 0 0.0435333 0.00466667 0 0.0474667 0.00466667 0 0.0514 0.00466667 0 0.0553333 0.00466667 0 0.0592667 0.00466667 0 0.0632 0.00466667 0 0.0671333 0.00466667 0 0.0710667 0.00466667 0 0.075 0.00466667 0 0.016 0.00533333 0 0.0199333 0.00533333 0 0.0238667 0.00533333 0 0.0278 0.00533333 0 0.0317333 0.00533333 0 0.0356667 0.00533333 0 0.0396 0.00533333 0 0.0435333 0.00533333 0 0.0474667 0.00533333 0 0.0514 0.00533333 0 0.0553333 0.00533333 0 0.0592667 0.00533333 0 0.0632 0.00533333 0 0.0671333 0.00533333 0 0.0710667 0.00533333 0 0.075 0.00533333 0 0.016 0.006 0 0.0199333 0.006 0 0.0238667 0.006 0 0.0278 0.006 0 0.0317333 0.006 0 0.0356667 0.006 0 0.0396 0.006 0 0.0435333 0.006 0 0.0474667 0.006 0 0.0514 0.006 0 0.0553333 0.006 0 0.0592667 0.006 0 0.0632 0.006 0 0.0671333 0.006 0 0.0710667 0.006 0 0.075 0.006 0 0.016 0.00666667 0 0.0199333 0.00666667 0 0.0238667 0.00666667 0 0.0278 0.00666667 0 0.0317333 0.00666667 0 0.0356667 0.00666667 0 0.0396 0.00666667 0 0.0435333 0.00666667 0 0.0474667 0.00666667 0 0.0514 0.00666667 0 0.0553333 0.00666667 0 0.0592667 0.00666667 0 0.0632 0.00666667 0 0.0671333 0.00666667 0 0.0710667 0.00666667 0 0.075 0.00666667 0 0.016 0.00733333 0 0.0199333 0.00733333 0 0.0238667 0.00733333 0 0.0278 0.00733333 0 0.0317333 0.00733333 0 0.0356667 0.00733333 0 0.0396 0.00733333 0 0.0435333 0.00733333 0 0.0474667 0.00733333 0 0.0514 0.00733333 0 0.0553333 0.00733333 0 0.0592667 0.00733333 0 0.0632 0.00733333 0 0.0671333 0.00733333 0 0.0710667 0.00733333 0 0.075 0.00733333 0 0.016 0.008 0 0.0199333 0.008 0 0.0238667 0.008 0 0.0278 0.008 0 0.0317333 0.008 0 0.0356667 0.008 0 0.0396 0.008 0 0.0435333 0.008 0 0.0474667 0.008 0 0.0514 0.008 0 0.0553333 0.008 0 0.0592667 0.008 0 0.0632 0.008 0 0.0671333 0.008 0 0.0710667 0.008 0 0.075 0.008 0 0.016 0.00866667 0 0.0199333 0.00866667 0 0.0238667 0.00866667 0 0.0278 0.00866667 0 0.0317333 0.00866667 0 0.0356667 0.00866667 0 0.0396 0.00866667 0 0.0435333 0.00866667 0 0.0474667 0.00866667 0 0.0514 0.00866667 0 0.0553333 0.00866667 0 0.0592667 0.00866667 0 0.0632 0.00866667 0 0.0671333 0.00866667 0 0.0710667 0.00866667 0 0.075 0.00866667 0 0.016 0.00933333 0 0.0199333 0.00933333 0 0.0238667 0.00933333 0 0.0278 0.00933333 0 0.0317333 0.00933333 0 0.0356667 0.00933333 0 0.0396 0.00933333 0 0.0435333 0.00933333 0 0.0474667 0.00933333 0 0.0514 0.00933333 0 0.0553333 0.00933333 0 0.0592667 0.00933333 0 0.0632 0.00933333 0 0.0671333 0.00933333 0 0.0710667 0.00933333 0 0.075 0.00933333 0 0.016 0.01 0 0.0199333 0.01 0 0.0238667 0.01 0 0.0278 0.01 0 0.0317333 0.01 0 0.0356667 0.01 0 0.0396 0.01 0 0.0435333 0.01 0 0.0474667 0.01 0 0.0514 0.01 0 0.0553333 0.01 0 0.0592667 0.01 0 0.0632 0.01 0 0.0671333 0.01 0 0.0710667 0.01 0 0.075 0.01 0 
</DataArray>
</Points> 
</Piece> 
</StructuredGrid> 
</VTKFile> 
