<?xml version="1.0"?> 
<VTKFile type="StructuredGrid" version="0.1"> 
<StructuredGrid WholeExtent="0 15 0 15 0 0"> 
<Piece Extent="0 15 0 15 0 0"> 
<PointData>
<DataArray type="Float32" Name="|E|" format="ascii" NumberOfComponents="3"> 
1.32235e+06 2.38419e-06 0 1.55645e+06 -0.0115699 0 1.71423e+06 -0.0153879 0 1.70584e+06 0.0241097 0 1.59359e+06 0.0006438 0 1.43597e+06 0.00739278 0 1.26959e+06 0.000224884 0 1.11335e+06 0.00138621 0 975160 -0.000168528 0 857684 6.99051e-06 0 760972 -0.000218954 0 684121 -0.000186626 0 625914 -0.000155231 0 585230 -0.000120446 0 561187 -5.07459e-05 0 553237 0 0 1.32196e+06 -3.10363e-07 0 1.55651e+06 -6554.38 0 1.71429e+06 -1840.28 0 1.70588e+06 1967.65 0 1.59361e+06 3907.36 0 1.43598e+06 4550.92 0 1.26958e+06 4463.37 0 1.11335e+06 4043.88 0 975153 3497.08 0 857677 2923.3 0 760964 2365.71 0 684114 1839.54 0 625908 1346.32 0 585224 881.026 0 561181 435.437 0 553231 0 0 1.32078e+06 7.35745e-08 0 1.55668e+06 -13110.2 0 1.71448e+06 -3682.6 0 1.70599e+06 3938.48 0 1.59366e+06 7814.79 0 1.43598e+06 9102.83 0 1.26957e+06 8926.77 0 1.11333e+06 8087.94 0 975129 6994.14 0 857653 5846.6 0 760942 4731.39 0 684093 3679.05 0 625888 2692.61 0 585206 1762.04 0 561163 870.867 0 553213 0 0 1.3188e+06 1.52737e-07 0 1.55697e+06 -19668.9 0 1.71479e+06 -5529.08 0 1.70619e+06 5915.7 0 1.59374e+06 11722.4 0 1.436e+06 13656.7 0 1.26955e+06 13390.2 0 1.11329e+06 12132.4 0 975090 10491.2 0 857614 8769.9 0 760905 7097.01 0 684058 5518.51 0 625856 4038.86 0 585175 2643.01 0 561133 1306.28 0 553183 0 0 1.31602e+06 -1.9744e-07 0 1.55738e+06 -26231.5 0 1.71523e+06 -7381.97 0 1.70646e+06 7902.61 0 1.59385e+06 15630.1 0 1.43602e+06 18213.5 0 1.26952e+06 17853.7 0 1.11324e+06 16177.4 0 975036 13988.1 0 857560 11693.2 0 760853 9462.54 0 684009 7357.9 0 625810 5385.06 0 585131 3523.94 0 561091 1741.68 0 553142 0 0 1.3124e+06 2.01166e-07 0 1.55791e+06 -32798.7 0 1.7158e+06 -9243.7 0 1.7068e+06 9902.64 0 1.594e+06 19537.8 0 1.43604e+06 22774.3 0 1.26949e+06 22317.3 0 1.11318e+06 20223.1 0 974965 17484.9 0 857490 14616.5 0 760786 11828 0 683947 9197.19 0 625751 6731.17 0 585075 4404.81 0 561037 2177.05 0 553089 0 0 1.30793e+06 3.57628e-07 0 1.55858e+06 -39370.8 0 1.71649e+06 -11117 0 1.70723e+06 11919.4 0 1.59418e+06 23445.6 0 1.43607e+06 27340.2 0 1.26944e+06 26780.8 0 1.11311e+06 24269.8 0 974880 20981.6 0 857404 17539.8 0 760705 14193.2 0 683870 11036.4 0 625679 8077.18 0 585007 5285.6 0 560971 2612.39 0 553023 0 0 1.30256e+06 -6.4075e-07 0 1.55938e+06 -45947.5 0 1.71731e+06 -13005 0 1.70773e+06 13956.6 0 1.59439e+06 27352.9 0 1.4361e+06 31912.4 0 1.26939e+06 31244.4 0 1.11301e+06 28317.7 0 974778 24478.2 0 857303 20463.2 0 760608 16558.3 0 683780 12875.4 0 625594 9423.07 0 584927 6166.29 0 560893 3047.69 0 552946 0 0 1.29626e+06 4.32134e-07 0 1.56032e+06 -52527.6 0 1.71825e+06 -14911.1 0 1.70831e+06 16018.4 0 1.59463e+06 31259.6 0 1.43614e+06 36492 0 1.26933e+06 35707.8 0 1.11291e+06 32367 0 974662 27974.5 0 857186 23386.6 0 760497 18923.2 0 683675 14714.2 0 625496 10768.8 0 584834 7046.87 0 560804 3482.95 0 552857 0 0 1.28899e+06 -3.42727e-07 0 1.56142e+06 -59109 0 1.71931e+06 -16839.6 0 1.70896e+06 18109.2 0 1.59491e+06 35164.9 0 1.43618e+06 41080.4 0 1.26926e+06 40170.9 0 1.11279e+06 36418 0 974529 31470.5 0 857053 26310 0 760371 21287.9 0 683557 16552.9 0 625385 12114.4 0 584728 7927.31 0 560702 3918.16 0 552757 0 0 1.28068e+06 1.19209e-07 0 1.56268e+06 -65688.5 0 1.7205e+06 -18794.9 0 1.70969e+06 20233.7 0 1.59522e+06 39068.1 0 1.43623e+06 45678.9 0 1.26918e+06 44633.5 0 1.11266e+06 40471 0 974382 34966.1 0 856905 29233.5 0 760230 23652.2 0 683425 18391.3 0 625261 13459.8 0 584610 8807.61 0 560588 4353.31 0 552644 0 0 1.27128e+06 -2.38419e-07 0 1.56412e+06 -72261.7 0 1.72181e+06 -20782.6 0 1.7105e+06 22397.2 0 1.59556e+06 42968.2 0 1.43628e+06 50289.1 0 1.2691e+06 49095.4 0 1.11251e+06 44526.2 0 974219 38461.4 0 856740 32157.1 0 760075 26016.3 0 683279 20229.5 0 625124 14805 0 584480 9687.74 0 560462 4788.41 0 552520 0 0 1.26071e+06 2.68221e-07 0 1.56575e+06 -78822.6 0 1.72324e+06 -22809 0 1.71139e+06 24605.4 0 1.59594e+06 46863.9 0 1.43633e+06 54912.8 0 1.26901e+06 53556.2 0 1.11235e+06 48584.1 0 974041 41956.1 0 856561 35080.8 0 759905 28380 0 683118 22067.4 0 624974 16150 0 584338 10567.7 0 560324 5223.45 0 552384 0 0 1.24888e+06 -8.9407e-08 0 1.56758e+06 -85363.5 0 1.72479e+06 -24881.3 0 1.71235e+06 26864.6 0 1.59635e+06 50753.5 0 1.43638e+06 59551.7 0 1.26891e+06 58015.6 0 1.11217e+06 52645 0 973847 45450.2 0 856365 38004.6 0 759720 30743.3 0 682944 23905.1 0 624811 17494.8 0 584182 11447.4 0 560174 5658.42 0 552236 0 0 1.23571e+06 -3.57628e-07 0 1.56964e+06 -91874.7 0 1.72646e+06 -27008.1 0 1.71338e+06 29182 0 1.59679e+06 54635 0 1.43644e+06 64207.8 0 1.2688e+06 62472.9 0 1.11198e+06 56709.3 0 973639 48943.5 0 856153 40928.6 0 759520 33106.2 0 682756 25742.4 0 624635 18839.3 0 584015 12326.9 0 560013 6093.33 0 552076 0 0 1.2211e+06 1.43051e-06 0 1.57195e+06 -98344.4 0 1.72825e+06 -29199 0 1.71449e+06 31565.2 0 1.59727e+06 58506.1 0 1.4365e+06 68883.5 0 1.26869e+06 66927.6 0 1.11177e+06 60777.5 0 973415 52435.8 0 855925 43852.9 0 759306 35468.7 0 682554 27579.3 0 624446 20183.6 0 583835 13206.2 0 559839 6528.17 0 551904 0 0 </DataArray> 
</PointData> 
<Points> 
<DataArray type="Float32" NumberOfComponents="3"> 
0.19 0 0 0.2022 0 0 0.2144 0 0 0.2266 0 0 0.2388 0 0 0.251 0 0 0.2632 0 0 0.2754 0 0 0.2876 0 0 0.2998 0 0 0.312 0 0 0.3242 0 0 0.3364 0 0 0.3486 0 0 0.3608 0 0 0.373 0 0 0.19 0.000333333 0 0.2022 0.000333333 0 0.2144 0.000333333 0 0.2266 0.000333333 0 0.2388 0.000333333 0 0.251 0.000333333 0 0.2632 0.000333333 0 0.2754 0.000333333 0 0.2876 0.000333333 0 0.2998 0.000333333 0 0.312 0.000333333 0 0.3242 0.000333333 0 0.3364 0.000333333 0 0.3486 0.000333333 0 0.3608 0.000333333 0 0.373 0.000333333 0 0.19 0.000666667 0 0.2022 0.000666667 0 0.2144 0.000666667 0 0.2266 0.000666667 0 0.2388 0.000666667 0 0.251 0.000666667 0 0.2632 0.000666667 0 0.2754 0.000666667 0 0.2876 0.000666667 0 0.2998 0.000666667 0 0.312 0.000666667 0 0.3242 0.000666667 0 0.3364 0.000666667 0 0.3486 0.000666667 0 0.3608 0.000666667 0 0.373 0.000666667 0 0.19 0.001 0 0.2022 0.001 0 0.2144 0.001 0 0.2266 0.001 0 0.2388 0.001 0 0.251 0.001 0 0.2632 0.001 0 0.2754 0.001 0 0.2876 0.001 0 0.2998 0.001 0 0.312 0.001 0 0.3242 0.001 0 0.3364 0.001 0 0.3486 0.001 0 0.3608 0.001 0 0.373 0.001 0 0.19 0.00133333 0 0.2022 0.00133333 0 0.2144 0.00133333 0 0.2266 0.00133333 0 0.2388 0.00133333 0 0.251 0.00133333 0 0.2632 0.00133333 0 0.2754 0.00133333 0 0.2876 0.00133333 0 0.2998 0.00133333 0 0.312 0.00133333 0 0.3242 0.00133333 0 0.3364 0.00133333 0 0.3486 0.00133333 0 0.3608 0.00133333 0 0.373 0.00133333 0 0.19 0.00166667 0 0.2022 0.00166667 0 0.2144 0.00166667 0 0.2266 0.00166667 0 0.2388 0.00166667 0 0.251 0.00166667 0 0.2632 0.00166667 0 0.2754 0.00166667 0 0.2876 0.00166667 0 0.2998 0.00166667 0 0.312 0.00166667 0 0.3242 0.00166667 0 0.3364 0.00166667 0 0.3486 0.00166667 0 0.3608 0.00166667 0 0.373 0.00166667 0 0.19 0.002 0 0.2022 0.002 0 0.2144 0.002 0 0.2266 0.002 0 0.2388 0.002 0 0.251 0.002 0 0.2632 0.002 0 0.2754 0.002 0 0.2876 0.002 0 0.2998 0.002 0 0.312 0.002 0 0.3242 0.002 0 0.3364 0.002 0 0.3486 0.002 0 0.3608 0.002 0 0.373 0.002 0 0.19 0.00233333 0 0.2022 0.00233333 0 0.2144 0.00233333 0 0.2266 0.00233333 0 0.2388 0.00233333 0 0.251 0.00233333 0 0.2632 0.00233333 0 0.2754 0.00233333 0 0.2876 0.00233333 0 0.2998 0.00233333 0 0.312 0.00233333 0 0.3242 0.00233333 0 0.3364 0.00233333 0 0.3486 0.00233333 0 0.3608 0.00233333 0 0.373 0.00233333 0 0.19 0.00266667 0 0.2022 0.00266667 0 0.2144 0.00266667 0 0.2266 0.00266667 0 0.2388 0.00266667 0 0.251 0.00266667 0 0.2632 0.00266667 0 0.2754 0.00266667 0 0.2876 0.00266667 0 0.2998 0.00266667 0 0.312 0.00266667 0 0.3242 0.00266667 0 0.3364 0.00266667 0 0.3486 0.00266667 0 0.3608 0.00266667 0 0.373 0.00266667 0 0.19 0.003 0 0.2022 0.003 0 0.2144 0.003 0 0.2266 0.003 0 0.2388 0.003 0 0.251 0.003 0 0.2632 0.003 0 0.2754 0.003 0 0.2876 0.003 0 0.2998 0.003 0 0.312 0.003 0 0.3242 0.003 0 0.3364 0.003 0 0.3486 0.003 0 0.3608 0.003 0 0.373 0.003 0 0.19 0.00333333 0 0.2022 0.00333333 0 0.2144 0.00333333 0 0.2266 0.00333333 0 0.2388 0.00333333 0 0.251 0.00333333 0 0.2632 0.00333333 0 0.2754 0.00333333 0 0.2876 0.00333333 0 0.2998 0.00333333 0 0.312 0.00333333 0 0.3242 0.00333333 0 0.3364 0.00333333 0 0.3486 0.00333333 0 0.3608 0.00333333 0 0.373 0.00333333 0 0.19 0.00366667 0 0.2022 0.00366667 0 0.2144 0.00366667 0 0.2266 0.00366667 0 0.2388 0.00366667 0 0.251 0.00366667 0 0.2632 0.00366667 0 0.2754 0.00366667 0 0.2876 0.00366667 0 0.2998 0.00366667 0 0.312 0.00366667 0 0.3242 0.00366667 0 0.3364 0.00366667 0 0.3486 0.00366667 0 0.3608 0.00366667 0 0.373 0.00366667 0 0.19 0.004 0 0.2022 0.004 0 0.2144 0.004 0 0.2266 0.004 0 0.2388 0.004 0 0.251 0.004 0 0.2632 0.004 0 0.2754 0.004 0 0.2876 0.004 0 0.2998 0.004 0 0.312 0.004 0 0.3242 0.004 0 0.3364 0.004 0 0.3486 0.004 0 0.3608 0.004 0 0.373 0.004 0 0.19 0.00433333 0 0.2022 0.00433333 0 0.2144 0.00433333 0 0.2266 0.00433333 0 0.2388 0.00433333 0 0.251 0.00433333 0 0.2632 0.00433333 0 0.2754 0.00433333 0 0.2876 0.00433333 0 0.2998 0.00433333 0 0.312 0.00433333 0 0.3242 0.00433333 0 0.3364 0.00433333 0 0.3486 0.00433333 0 0.3608 0.00433333 0 0.373 0.00433333 0 0.19 0.00466667 0 0.2022 0.00466667 0 0.2144 0.00466667 0 0.2266 0.00466667 0 0.2388 0.00466667 0 0.251 0.00466667 0 0.2632 0.00466667 0 0.2754 0.00466667 0 0.2876 0.00466667 0 0.2998 0.00466667 0 0.312 0.00466667 0 0.3242 0.00466667 0 0.3364 0.00466667 0 0.3486 0.00466667 0 0.3608 0.00466667 0 0.373 0.00466667 0 0.19 0.005 0 0.2022 0.005 0 0.2144 0.005 0 0.2266 0.005 0 0.2388 0.005 0 0.251 0.005 0 0.2632 0.005 0 0.2754 0.005 0 0.2876 0.005 0 0.2998 0.005 0 0.312 0.005 0 0.3242 0.005 0 0.3364 0.005 0 0.3486 0.005 0 0.3608 0.005 0 0.373 0.005 0 
</DataArray>
</Points> 
</Piece> 
</StructuredGrid> 
</VTKFile> 
