<?xml version="1.0"?> 
<VTKFile type="StructuredGrid" version="0.1"> 
<StructuredGrid WholeExtent="0 15 0 15 0 0"> 
<Piece Extent="0 15 0 15 0 0"> 
<PointData>
<DataArray type="Float32" Name="|E|" format="ascii" NumberOfComponents="3"> 
0 0 0 0 -26757.2 0 0 -53373.4 0 0 -79701.9 0 0 -105584 0 0 -130839 0 0 -155260 0 0 -178592 0 0 -200511 0 0 -220604 0 0 -238252 0 0 -252080 0 0 -260701 0 0 -267806 0 0 -268343 0 0 0 0 -22330.3 0 0 -22258.6 -29777.8 0 -22039.8 -59364.3 0 -21662.6 -88559.1 0 -21106.9 -117141 0 -20339.7 -144856 0 -19311.6 -171396 0 -17943 -196374 0 -16108.9 -219279 0 -13586.2 -239393 0 -9979.1 -255661 0 -4415.8 -266013 0 6307.59 -266819 0 33166.2 -258446 0 90873 -262226 0 142939 -285879 0 -44740.8 0 0 -44569.5 -32925.6 0 -44045.3 -65606.8 0 -43136.1 -97785.4 0 -41782.7 -129174 0 -39889 -159435 0 -37300.7 -188155 0 -33768.6 -214805 0 -28864.4 -238670 0 -21792.5 -258773 0 -10863.1 -273682 0 7875.29 -282449 0 41214.2 -288843 0 90976 -305976 0 139555 -335399 0 187220 -374440 0 -67309.5 0 0 -67010.5 -36227.6 0 -66092.5 -72159.3 0 -64490.6 -107482 0 -62084.1 -141844 0 -58671.8 -174836 0 -53926.8 -205956 0 -47302.5 -234577 0 -37837.8 -259949 0 -23748.9 -281277 0 -1797.54 -298711 0 32004 -315690 0 77341.7 -340052 0 125249 -373754 0 173819 -410672 0 224045 -448090 0 -90110.2 0 0 -89656.6 -39706.2 0 -88260.1 -79072.5 0 -85810.1 -117740 0 -82098.4 -155309 0 -76777 -191325 0 -69274.5 -225257 0 -58640 -256539 0 -43278 -284724 0 -20672.7 -310190 0 11922.7 -335477 0 54562.8 -365660 0 102515 -403147 0 153540 -444333 0 208386 -489345 0 267743 -535487 0 -113211 0 0 -112579 -43378 0 -110628 -86385.2 0 -107189 -128634 0 -101945 -169706 0 -94363.9 -209147 0 -83587.6 -246509 0 -68257.4 -281490 0 -46368.9 -314399 0 -15708.8 -346982 0 24458.5 -382763 0 71770.8 -424487 0 124066 -470887 0 181339 -521787 0 244277 -574605 0 314972 -629945 0 -136671 0 0 -135841 -47253.4 0 -133273 -94124.2 0 -128730 -140220 0 -121769 -185140 0 -111657 -228504 0 -97262.4 -270060 0 -76943.9 -309984 0 -48781.6 -349428 0 -11536.4 -390902 0 33980.9 -437197 0 86081.4 -488758 0 144330 -545506 0 209509 -605809 0 283639 -669837 0 368214 -736429 0 -160543 0 0 -159500 -51337 0 -156269 -102303 0 -150539 -152530 0 -141732 -201682 0 -128929 -249521 0 -110778 -296106 0 -85592.2 -342158 0 -51867.6 -389445 0 -9346.37 -440505 0 40993.4 -496913 0 98540.1 -559230 0 163979 -626804 0 239347 -699573 0 326832 -776570 0 428465 -856931 0 -184870 0 0 -183606 -55627.4 0 -179684 -110921 0 -172719 -165574 0 -162006 -219358 0 -146461 -272247 0 -124627 -324670 0 -94935.1 -377829 0 -56435.9 -433807 0 -9339.86 -494709 0 45789.1 -561948 0 109385 -635957 0 183530 -717012 0 271196 -804417 0 375156 -896622 0 495896 -991793 0 -209686 0 0 -208197 -60118.1 0 -203577 -119970 0 -195368 -179340 0 -182752 -238156 0 -164532 -296655 0 -139224 -355640 0 -105499 -416683 0 -62856 -481876 0 -11628.9 -553233 0 48237.6 -632306 0 118571 -720369 0 203157 -817599 0 306301 -922164 0 429749 -1.03013e+06 0 569099 -1.1382e+06 0 -235014 0 0 -233304 -64798.4 0 -227998 -129426 0 -218572 -193796 0 -204122 -258030 0 -183378 -322661 0 -154899 -388848 0 -117606 -458356 0 -71362.4 -533281 0 -16527.9 -615870 0 47879.2 -708735 0 125823 -813929 0 223786 -930646 0 346721 -1.05337e+06 0 491827 -1.1734e+06 0 642918 -1.28584e+06 0 -260871 0 0 -258949 -69653.5 0 -252987 -139261 0 -242408 -208895 0 -226246 -278906 0 -203205 -350150 0 -171891 -424088 0 -131459 -502544 0 -82231.9 -587658 0 -24654.6 -682724 0 43890 -792296 0 131281 -918918 0 247659 -1.05788e+06 0 396105 -1.19571e+06 0 561894 -1.31619e+06 0 706857 -1.41371e+06 0 -287264 0 0 -285144 -74666.3 0 -278574 -149439 0 -266935 -224579 0 -249235 -300693 0 -224178 -378990 0 -190360 -461178 0 -147185 -548920 0 -95891.5 -644648 0 -37102.5 -754068 0 35304.7 -884926 0 136210 -1.0383e+06 0 279511 -1.1997e+06 0 459857 -1.34154e+06 0 638506 -1.43837e+06 0 743964 -1.48793e+06 0 -314194 0 0 -311896 -79817.4 0 -304780 -159920 0 -292202 -240780 0 -273181 -323284 0 -246446 -409053 0 -210388 -499959 0 -164852 -597086 0 -113095 -703748 0 -55594.9 -830672 0 21440.2 -989842 0 144331 -1.17549e+06 0 327621 -1.35325e+06 0 544540 -1.47476e+06 0 716392 -1.5085e+06 0 732075 -1.46415e+06 0 -341653 0 0 -339201 -85086.2 0 -331617 -170658 0 -318238 -257425 0 -298164 -346559 0 -270147 -440235 0 -231946 -540306 0 -184479 -646412 0 -135204 -764290 0 -82630.9 -914332 0 2847.69 -1.11214e+06 0 163509 -1.33337e+06 0 404309 -1.50939e+06 0 655849 -1.56839e+06 0 784367 -1.48581e+06 0 648511 -1.29702e+06 0 -369627 0 0 -367050 -90452.5 0 -359091 -181606 0 -345059 -274439 0 -324257 -370379 0 -295445 -472484 0 -254796 -582125 0 -206072 -695831 0 -164695 -825494 0 -121405 -1.00868e+06 0 -16947.2 -1.25914e+06 0 207601 -1.51255e+06 0 524964 -1.65006e+06 0 794712 -1.58495e+06 0 823934 -1.32787e+06 0 478540 -957080 0 </DataArray> 
</PointData> 
<Points> 
<DataArray type="Float32" NumberOfComponents="3"> 
0 0.016 0 0.0004 0.016 0 0.0008 0.016 0 0.0012 0.016 0 0.0016 0.016 0 0.002 0.016 0 0.0024 0.016 0 0.0028 0.016 0 0.0032 0.016 0 0.0036 0.016 0 0.004 0.016 0 0.0044 0.016 0 0.0048 0.016 0 0.0052 0.016 0 0.0056 0.016 0 0.006 0.016 0 0 0.0163333 0 0.000444444 0.0163333 0 0.000888889 0.0163333 0 0.00133333 0.0163333 0 0.00177778 0.0163333 0 0.00222222 0.0163333 0 0.00266667 0.0163333 0 0.00311111 0.0163333 0 0.00355556 0.0163333 0 0.004 0.0163333 0 0.00444444 0.0163333 0 0.00488889 0.0163333 0 0.00533333 0.0163333 0 0.00577778 0.0163333 0 0.00622222 0.0163333 0 0.00666667 0.0163333 0 0 0.0166667 0 0.000488889 0.0166667 0 0.000977778 0.0166667 0 0.00146667 0.0166667 0 0.00195556 0.0166667 0 0.00244444 0.0166667 0 0.00293333 0.0166667 0 0.00342222 0.0166667 0 0.00391111 0.0166667 0 0.0044 0.0166667 0 0.00488889 0.0166667 0 0.00537778 0.0166667 0 0.00586667 0.0166667 0 0.00635556 0.0166667 0 0.00684444 0.0166667 0 0.00733333 0.0166667 0 0 0.017 0 0.000533333 0.017 0 0.00106667 0.017 0 0.0016 0.017 0 0.00213333 0.017 0 0.00266667 0.017 0 0.0032 0.017 0 0.00373333 0.017 0 0.00426667 0.017 0 0.0048 0.017 0 0.00533333 0.017 0 0.00586667 0.017 0 0.0064 0.017 0 0.00693333 0.017 0 0.00746667 0.017 0 0.008 0.017 0 0 0.0173333 0 0.000577778 0.0173333 0 0.00115556 0.0173333 0 0.00173333 0.0173333 0 0.00231111 0.0173333 0 0.00288889 0.0173333 0 0.00346667 0.0173333 0 0.00404444 0.0173333 0 0.00462222 0.0173333 0 0.0052 0.0173333 0 0.00577778 0.0173333 0 0.00635556 0.0173333 0 0.00693333 0.0173333 0 0.00751111 0.0173333 0 0.00808889 0.0173333 0 0.00866667 0.0173333 0 0 0.0176667 0 0.000622222 0.0176667 0 0.00124444 0.0176667 0 0.00186667 0.0176667 0 0.00248889 0.0176667 0 0.00311111 0.0176667 0 0.00373333 0.0176667 0 0.00435556 0.0176667 0 0.00497778 0.0176667 0 0.0056 0.0176667 0 0.00622222 0.0176667 0 0.00684444 0.0176667 0 0.00746667 0.0176667 0 0.00808889 0.0176667 0 0.00871111 0.0176667 0 0.00933333 0.0176667 0 0 0.018 0 0.000666667 0.018 0 0.00133333 0.018 0 0.002 0.018 0 0.00266667 0.018 0 0.00333333 0.018 0 0.004 0.018 0 0.00466667 0.018 0 0.00533333 0.018 0 0.006 0.018 0 0.00666667 0.018 0 0.00733333 0.018 0 0.008 0.018 0 0.00866667 0.018 0 0.00933333 0.018 0 0.01 0.018 0 0 0.0183333 0 0.000711111 0.0183333 0 0.00142222 0.0183333 0 0.00213333 0.0183333 0 0.00284444 0.0183333 0 0.00355556 0.0183333 0 0.00426667 0.0183333 0 0.00497778 0.0183333 0 0.00568889 0.0183333 0 0.0064 0.0183333 0 0.00711111 0.0183333 0 0.00782222 0.0183333 0 0.00853333 0.0183333 0 0.00924444 0.0183333 0 0.00995556 0.0183333 0 0.0106667 0.0183333 0 0 0.0186667 0 0.000755556 0.0186667 0 0.00151111 0.0186667 0 0.00226667 0.0186667 0 0.00302222 0.0186667 0 0.00377778 0.0186667 0 0.00453333 0.0186667 0 0.00528889 0.0186667 0 0.00604444 0.0186667 0 0.0068 0.0186667 0 0.00755556 0.0186667 0 0.00831111 0.0186667 0 0.00906667 0.0186667 0 0.00982222 0.0186667 0 0.0105778 0.0186667 0 0.0113333 0.0186667 0 0 0.019 0 0.0008 0.019 0 0.0016 0.019 0 0.0024 0.019 0 0.0032 0.019 0 0.004 0.019 0 0.0048 0.019 0 0.0056 0.019 0 0.0064 0.019 0 0.0072 0.019 0 0.008 0.019 0 0.0088 0.019 0 0.0096 0.019 0 0.0104 0.019 0 0.0112 0.019 0 0.012 0.019 0 0 0.0193333 0 0.000844444 0.0193333 0 0.00168889 0.0193333 0 0.00253333 0.0193333 0 0.00337778 0.0193333 0 0.00422222 0.0193333 0 0.00506667 0.0193333 0 0.00591111 0.0193333 0 0.00675556 0.0193333 0 0.0076 0.0193333 0 0.00844444 0.0193333 0 0.00928889 0.0193333 0 0.0101333 0.0193333 0 0.0109778 0.0193333 0 0.0118222 0.0193333 0 0.0126667 0.0193333 0 0 0.0196667 0 0.000888889 0.0196667 0 0.00177778 0.0196667 0 0.00266667 0.0196667 0 0.00355556 0.0196667 0 0.00444444 0.0196667 0 0.00533333 0.0196667 0 0.00622222 0.0196667 0 0.00711111 0.0196667 0 0.008 0.0196667 0 0.00888889 0.0196667 0 0.00977778 0.0196667 0 0.0106667 0.0196667 0 0.0115556 0.0196667 0 0.0124444 0.0196667 0 0.0133333 0.0196667 0 0 0.02 0 0.000933333 0.02 0 0.00186667 0.02 0 0.0028 0.02 0 0.00373333 0.02 0 0.00466667 0.02 0 0.0056 0.02 0 0.00653333 0.02 0 0.00746667 0.02 0 0.0084 0.02 0 0.00933333 0.02 0 0.0102667 0.02 0 0.0112 0.02 0 0.0121333 0.02 0 0.0130667 0.02 0 0.014 0.02 0 0 0.0203333 0 0.000977778 0.0203333 0 0.00195556 0.0203333 0 0.00293333 0.0203333 0 0.00391111 0.0203333 0 0.00488889 0.0203333 0 0.00586667 0.0203333 0 0.00684444 0.0203333 0 0.00782222 0.0203333 0 0.0088 0.0203333 0 0.00977778 0.0203333 0 0.0107556 0.0203333 0 0.0117333 0.0203333 0 0.0127111 0.0203333 0 0.0136889 0.0203333 0 0.0146667 0.0203333 0 0 0.0206667 0 0.00102222 0.0206667 0 0.00204444 0.0206667 0 0.00306667 0.0206667 0 0.00408889 0.0206667 0 0.00511111 0.0206667 0 0.00613333 0.0206667 0 0.00715556 0.0206667 0 0.00817778 0.0206667 0 0.0092 0.0206667 0 0.0102222 0.0206667 0 0.0112444 0.0206667 0 0.0122667 0.0206667 0 0.0132889 0.0206667 0 0.0143111 0.0206667 0 0.0153333 0.0206667 0 0 0.021 0 0.00106667 0.021 0 0.00213333 0.021 0 0.0032 0.021 0 0.00426667 0.021 0 0.00533333 0.021 0 0.0064 0.021 0 0.00746667 0.021 0 0.00853333 0.021 0 0.0096 0.021 0 0.0106667 0.021 0 0.0117333 0.021 0 0.0128 0.021 0 0.0138667 0.021 0 0.0149333 0.021 0 0.016 0.021 0 
</DataArray>
</Points> 
</Piece> 
</StructuredGrid> 
</VTKFile> 
