<?xml version="1.0"?> 
<VTKFile type="StructuredGrid" version="0.1"> 
<StructuredGrid WholeExtent="0 15 0 15 0 0"> 
<Piece Extent="0 15 0 15 0 0"> 
<PointData>
<DataArray type="Float32" Name="|E|" format="ascii" NumberOfComponents="3"> 
732.202 1.19209e-06 0 -27.1426 -178.833 0 -49.1961 -109.241 0 -46.6695 -34.0507 0 -34.3287 -27.8986 0 -22.9833 -9.67948 0 -15.5166 -8.00182 0 -9.83272 -3.44823 0 -6.43968 -2.57383 0 -4.04139 -1.35108 0 -2.61794 -0.89924 0 -1.66334 -0.532242 0 -1.10038 -0.317763 0 -0.753054 -0.186196 0 -0.575787 -0.0763096 0 -0.521611 3.09944e-06 0 460.354 -2.15136e-07 0 16.4896 -167.789 0 -40.1303 -93.64 0 -41.1835 -43.4766 0 -31.2413 -25.966 0 -21.9605 -13.2617 0 -14.5346 -8.22472 0 -9.57108 -4.63735 0 -6.1152 -2.90672 0 -3.94649 -1.74273 0 -2.50661 -1.08738 0 -1.62187 -0.664498 0 -1.05958 -0.400546 0 -0.732176 -0.226557 0 -0.557201 -0.101401 0 -0.502661 -2.45171e-07 0 307.238 1.20606e-07 0 36.8044 -146.264 0 -30.7465 -85.7602 0 -35.8832 -47.0439 0 -28.5014 -26.4308 0 -20.534 -15.3153 0 -13.7041 -9.02143 0 -9.11377 -5.48431 0 -5.83388 -3.34135 0 -3.78035 -2.07278 0 -2.4026 -1.28128 0 -1.55688 -0.790626 0 -1.01756 -0.477426 0 -0.703441 -0.269213 0 -0.53546 -0.121855 0 -0.483233 6.14673e-08 0 216.587 -1.85333e-07 0 44.7906 -123.634 0 -22.337 -80.3806 0 -30.9464 -48.1149 0 -25.8585 -27.5785 0 -18.9746 -16.7302 0 -12.8593 -9.95852 0 -8.57634 -6.18458 0 -5.5328 -3.79043 0 -3.58134 -2.37144 0 -2.28673 -1.47035 0 -1.47928 -0.910313 0 -0.969456 -0.550257 0 -0.669429 -0.310846 0 -0.510106 -0.14055 0 -0.460686 -2.18861e-07 0 159.814 3.31551e-07 0 46.2666 -103.424 0 -15.3631 -75.6114 0 -26.4348 -48.1137 0 -23.2603 -28.7509 0 -17.3742 -17.8549 0 -11.958 -10.8715 0 -7.99498 -6.80939 0 -5.19674 -4.22063 0 -3.36076 -2.64867 0 -2.15484 -1.6499 0 -1.39217 -1.02317 0 -0.914402 -0.619155 0 -0.630922 -0.350346 0 -0.481165 -0.158176 0 -0.434712 2.47732e-07 0 122.088 -2.90573e-07 0 44.3515 -86.5565 0 -9.87747 -70.9508 0 -22.3653 -47.6243 0 -20.7164 -29.7382 0 -15.7624 -18.8136 0 -10.999 -11.7064 0 -7.37981 -7.38033 0 -4.82573 -4.62025 0 -3.12154 -2.90652 0 -2.00737 -1.81769 0 -1.29642 -1.12867 0 -0.852715 -0.683746 0 -0.588218 -0.387294 0 -0.448828 -0.17476 0 -0.405546 -1.08033e-07 0 95.5416 7.07805e-08 0 40.7269 -72.9333 0 -5.74838 -66.3912 0 -18.7328 -46.8968 0 -18.2482 -30.5027 0 -14.1489 -19.6471 0 -9.99231 -12.45 0 -6.73389 -7.90155 0 -4.42373 -4.98532 0 -2.86467 -3.14436 0 -1.84584 -1.97245 0 -1.19243 -1.22622 0 -0.784976 -0.743576 0 -0.541551 -0.421458 0 -0.413341 -0.190177 0 -0.373487 8.56817e-08 0 75.8534 8.19564e-08 0 36.3034 -62.1202 0 -2.77674 -62.0596 0 -15.518 -46.0537 0 -15.8728 -31.0656 0 -12.5386 -20.369 0 -8.94835 -13.1024 0 -6.05929 -8.37204 0 -3.99504 -5.31439 0 -2.5911 -3.36089 0 -1.67187 -2.11326 0 -1.08069 -1.31523 0 -0.711784 -0.798221 0 -0.49119 -0.452637 0 -0.374969 -0.204291 0 -0.338813 -3.72529e-08 0 60.5625 -9.68575e-08 0 31.5687 -53.6276 0 -0.753508 -58.0863 0 -12.6907 -45.1692 0 -13.5992 -31.4643 0 -10.935 -20.9854 0 -7.87601 -13.6675 0 -5.35858 -8.78987 0 -3.54352 -5.60667 0 -2.30211 -3.55478 0 -1.48695 -2.23935 0 -0.961828 -1.39512 0 -0.63372 -0.847306 0 -0.437457 -0.480646 0 -0.33399 -0.216987 0 -0.301786 1.41561e-07 0 48.2007 8.9407e-08 0 26.7771 -47.0179 0 0.514337 -54.5666 0 -10.2125 -44.2989 0 -11.4285 -31.7361 0 -9.34102 -21.5015 0 -6.78219 -14.1493 0 -4.63488 -9.15346 0 -3.07253 -5.86153 0 -1.99934 -3.7249 0 -1.29245 -2.35006 0 -0.836585 -1.4654 0 -0.551353 -0.890506 0 -0.380713 -0.505306 0 -0.290694 -0.22817 0 -0.262669 -2.98023e-07 0 37.8485 1.04308e-07 0 22.0517 -41.9339 0 1.19454 -51.5585 0 -8.03895 -43.4881 0 -9.35566 -31.9138 0 -7.75849 -21.9235 0 -5.67222 -14.5514 0 -3.89157 -9.46181 0 -2.58514 -6.07836 0 -1.68459 -3.87029 0 -1.08974 -2.44477 0 -0.705787 -1.52562 0 -0.465258 -0.92754 0 -0.321346 -0.526455 0 -0.245385 -0.237762 0 -0.221733 1.93715e-07 0 28.8981 -2.38419e-07 0 17.4415 -38.0988 0 1.42846 -49.0911 0 -6.12187 -42.7746 0 -7.3707 -32.0241 0 -6.1881 -22.2578 0 -4.55023 -14.8767 0 -3.13214 -9.71436 0 -2.08421 -6.2566 0 -1.35979 -3.99021 0 -0.880126 -2.52299 0 -0.570309 -1.5754 0 -0.376025 -0.958168 0 -0.259768 -0.543955 0 -0.198377 -0.245698 0 -0.179261 -1.19209e-07 0 20.9241 1.49012e-07 0 12.9538 -35.3062 0 1.33394 -47.1751 0 -4.41089 -42.1889 0 -5.45992 -32.0885 0 -4.62926 -22.5105 0 -3.41954 -15.1274 0 -2.36001 -9.91087 0 -1.57253 -6.39575 0 -1.02692 -4.08407 0 -0.664975 -2.58428 0 -0.431058 -1.61444 0 -0.284257 -0.982196 0 -0.196403 -0.557688 0 -0.149996 -0.251926 0 -0.135545 7.45058e-08 0 13.6106 -1.93715e-07 0 8.57188 -33.4087 0 1.00966 -45.8108 0 -2.85466 -41.7543 0 -3.60693 -32.1232 0 -3.08021 -22.6869 0 -2.28282 -15.3052 0 -1.57849 -10.0512 0 -1.05281 -6.49543 0 -0.687989 -4.15142 0 -0.445647 -2.6283 0 -0.28896 -1.6425 0 -0.190575 -0.999469 0 -0.131689 -0.567563 0 -0.100578 -0.256404 0 -0.0908895 -5.96046e-08 0 6.707 1.78814e-07 0 4.26616 -32.3076 0 0.540009 -44.9948 0 -1.40157 -41.4871 0 -1.79344 -32.1395 0 -1.53825 -22.791 0 -1.14232 -15.4114 0 -0.790778 -10.1354 0 -0.527738 -6.55535 0 -0.345006 -4.19195 0 -0.223524 -2.6548 0 -0.144957 -1.6594 0 -0.0956093 -1.00988 0 -0.0660713 -0.573515 0 -0.0504634 -0.259103 0 -0.0456032 8.9407e-08 0 3.57628e-07 -1.19209e-06 0 2.6921e-09 -31.9468 0 -4.7381e-08 -44.7232 0 4.51691e-08 -41.3969 0 -2.84053e-08 -32.1442 0 -1.86265e-09 -22.8254 0 4.09782e-08 -15.4467 0 -3.35276e-08 -10.1635 0 9.31323e-09 -6.57534 0 -1.86265e-09 -4.20548 0 -1.11759e-08 -2.66366 0 3.72529e-09 -1.66504 0 7.45058e-09 -1.01335 0 -1.11759e-08 -0.575504 0 -2.23517e-08 -0.260004 0 1.78814e-07 -5.96046e-07 0 </DataArray> 
</PointData> 
<Points> 
<DataArray type="Float32" NumberOfComponents="3"> 
0.13 0.035 0 0.133667 0.035 0 0.137333 0.035 0 0.141 0.035 0 0.144667 0.035 0 0.148333 0.035 0 0.152 0.035 0 0.155667 0.035 0 0.159333 0.035 0 0.163 0.035 0 0.166667 0.035 0 0.170333 0.035 0 0.174 0.035 0 0.177667 0.035 0 0.181333 0.035 0 0.185 0.035 0 0.13 0.0356667 0 0.133667 0.0356667 0 0.137333 0.0356667 0 0.141 0.0356667 0 0.144667 0.0356667 0 0.148333 0.0356667 0 0.152 0.0356667 0 0.155667 0.0356667 0 0.159333 0.0356667 0 0.163 0.0356667 0 0.166667 0.0356667 0 0.170333 0.0356667 0 0.174 0.0356667 0 0.177667 0.0356667 0 0.181333 0.0356667 0 0.185 0.0356667 0 0.13 0.0363333 0 0.133667 0.0363333 0 0.137333 0.0363333 0 0.141 0.0363333 0 0.144667 0.0363333 0 0.148333 0.0363333 0 0.152 0.0363333 0 0.155667 0.0363333 0 0.159333 0.0363333 0 0.163 0.0363333 0 0.166667 0.0363333 0 0.170333 0.0363333 0 0.174 0.0363333 0 0.177667 0.0363333 0 0.181333 0.0363333 0 0.185 0.0363333 0 0.13 0.037 0 0.133667 0.037 0 0.137333 0.037 0 0.141 0.037 0 0.144667 0.037 0 0.148333 0.037 0 0.152 0.037 0 0.155667 0.037 0 0.159333 0.037 0 0.163 0.037 0 0.166667 0.037 0 0.170333 0.037 0 0.174 0.037 0 0.177667 0.037 0 0.181333 0.037 0 0.185 0.037 0 0.13 0.0376667 0 0.133667 0.0376667 0 0.137333 0.0376667 0 0.141 0.0376667 0 0.144667 0.0376667 0 0.148333 0.0376667 0 0.152 0.0376667 0 0.155667 0.0376667 0 0.159333 0.0376667 0 0.163 0.0376667 0 0.166667 0.0376667 0 0.170333 0.0376667 0 0.174 0.0376667 0 0.177667 0.0376667 0 0.181333 0.0376667 0 0.185 0.0376667 0 0.13 0.0383333 0 0.133667 0.0383333 0 0.137333 0.0383333 0 0.141 0.0383333 0 0.144667 0.0383333 0 0.148333 0.0383333 0 0.152 0.0383333 0 0.155667 0.0383333 0 0.159333 0.0383333 0 0.163 0.0383333 0 0.166667 0.0383333 0 0.170333 0.0383333 0 0.174 0.0383333 0 0.177667 0.0383333 0 0.181333 0.0383333 0 0.185 0.0383333 0 0.13 0.039 0 0.133667 0.039 0 0.137333 0.039 0 0.141 0.039 0 0.144667 0.039 0 0.148333 0.039 0 0.152 0.039 0 0.155667 0.039 0 0.159333 0.039 0 0.163 0.039 0 0.166667 0.039 0 0.170333 0.039 0 0.174 0.039 0 0.177667 0.039 0 0.181333 0.039 0 0.185 0.039 0 0.13 0.0396667 0 0.133667 0.0396667 0 0.137333 0.0396667 0 0.141 0.0396667 0 0.144667 0.0396667 0 0.148333 0.0396667 0 0.152 0.0396667 0 0.155667 0.0396667 0 0.159333 0.0396667 0 0.163 0.0396667 0 0.166667 0.0396667 0 0.170333 0.0396667 0 0.174 0.0396667 0 0.177667 0.0396667 0 0.181333 0.0396667 0 0.185 0.0396667 0 0.13 0.0403333 0 0.133667 0.0403333 0 0.137333 0.0403333 0 0.141 0.0403333 0 0.144667 0.0403333 0 0.148333 0.0403333 0 0.152 0.0403333 0 0.155667 0.0403333 0 0.159333 0.0403333 0 0.163 0.0403333 0 0.166667 0.0403333 0 0.170333 0.0403333 0 0.174 0.0403333 0 0.177667 0.0403333 0 0.181333 0.0403333 0 0.185 0.0403333 0 0.13 0.041 0 0.133667 0.041 0 0.137333 0.041 0 0.141 0.041 0 0.144667 0.041 0 0.148333 0.041 0 0.152 0.041 0 0.155667 0.041 0 0.159333 0.041 0 0.163 0.041 0 0.166667 0.041 0 0.170333 0.041 0 0.174 0.041 0 0.177667 0.041 0 0.181333 0.041 0 0.185 0.041 0 0.13 0.0416667 0 0.133667 0.0416667 0 0.137333 0.0416667 0 0.141 0.0416667 0 0.144667 0.0416667 0 0.148333 0.0416667 0 0.152 0.0416667 0 0.155667 0.0416667 0 0.159333 0.0416667 0 0.163 0.0416667 0 0.166667 0.0416667 0 0.170333 0.0416667 0 0.174 0.0416667 0 0.177667 0.0416667 0 0.181333 0.0416667 0 0.185 0.0416667 0 0.13 0.0423333 0 0.133667 0.0423333 0 0.137333 0.0423333 0 0.141 0.0423333 0 0.144667 0.0423333 0 0.148333 0.0423333 0 0.152 0.0423333 0 0.155667 0.0423333 0 0.159333 0.0423333 0 0.163 0.0423333 0 0.166667 0.0423333 0 0.170333 0.0423333 0 0.174 0.0423333 0 0.177667 0.0423333 0 0.181333 0.0423333 0 0.185 0.0423333 0 0.13 0.043 0 0.133667 0.043 0 0.137333 0.043 0 0.141 0.043 0 0.144667 0.043 0 0.148333 0.043 0 0.152 0.043 0 0.155667 0.043 0 0.159333 0.043 0 0.163 0.043 0 0.166667 0.043 0 0.170333 0.043 0 0.174 0.043 0 0.177667 0.043 0 0.181333 0.043 0 0.185 0.043 0 0.13 0.0436667 0 0.133667 0.0436667 0 0.137333 0.0436667 0 0.141 0.0436667 0 0.144667 0.0436667 0 0.148333 0.0436667 0 0.152 0.0436667 0 0.155667 0.0436667 0 0.159333 0.0436667 0 0.163 0.0436667 0 0.166667 0.0436667 0 0.170333 0.0436667 0 0.174 0.0436667 0 0.177667 0.0436667 0 0.181333 0.0436667 0 0.185 0.0436667 0 0.13 0.0443333 0 0.133667 0.0443333 0 0.137333 0.0443333 0 0.141 0.0443333 0 0.144667 0.0443333 0 0.148333 0.0443333 0 0.152 0.0443333 0 0.155667 0.0443333 0 0.159333 0.0443333 0 0.163 0.0443333 0 0.166667 0.0443333 0 0.170333 0.0443333 0 0.174 0.0443333 0 0.177667 0.0443333 0 0.181333 0.0443333 0 0.185 0.0443333 0 0.13 0.045 0 0.133667 0.045 0 0.137333 0.045 0 0.141 0.045 0 0.144667 0.045 0 0.148333 0.045 0 0.152 0.045 0 0.155667 0.045 0 0.159333 0.045 0 0.163 0.045 0 0.166667 0.045 0 0.170333 0.045 0 0.174 0.045 0 0.177667 0.045 0 0.181333 0.045 0 0.185 0.045 0 
</DataArray>
</Points> 
</Piece> 
</StructuredGrid> 
</VTKFile> 
