<?xml version="1.0"?> 
<VTKFile type="StructuredGrid" version="0.1"> 
<StructuredGrid WholeExtent="0 15 0 15 0 0"> 
<Piece Extent="0 15 0 15 0 0"> 
<PointData>
<DataArray type="Float32" Name="|E|" format="ascii" NumberOfComponents="3"> 
1.2211e+06 -124602 0 1.57195e+06 -103680 0 1.72825e+06 -23827 0 1.71449e+06 28612.9 0 1.59727e+06 60075.6 0 1.4365e+06 68129.6 0 1.26869e+06 67292.8 0 1.11177e+06 60616.4 0 973415 52504.1 0 855925 43827.6 0 759306 35476.5 0 682554 27578.8 0 624446 20182.4 0 583835 13208.2 0 559839 6526.33 0 551904 0 0 1.22362e+06 -124860 0 1.57391e+06 -109911 0 1.7304e+06 -25755.7 0 1.7155e+06 31044.9 0 1.59744e+06 63937 0 1.43628e+06 72714.1 0 1.26828e+06 71659.5 0 1.11135e+06 64589.6 0 973010 55916.6 0 855574 46682.6 0 759001 37783.6 0 682294 29372.7 0 624221 21495.2 0 583635 14067 0 559654 6951.04 0 551724 0 0 1.22467e+06 -124966 0 1.57613e+06 -116186 0 1.73267e+06 -27634.6 0 1.71657e+06 33505.9 0 1.59763e+06 67820.4 0 1.43607e+06 77305.7 0 1.26786e+06 76029.4 0 1.11092e+06 68562.3 0 972590 59328 0 855208 49536.1 0 758681 40089.4 0 682021 31165.5 0 623983 22807.2 0 583424 14925.4 0 559458 7375.45 0 551533 0 0 1.22421e+06 -124919 0 1.57862e+06 -122491 0 1.73504e+06 -29474.3 0 1.71771e+06 36004.1 0 1.59786e+06 71722.8 0 1.43585e+06 81906.7 0 1.26744e+06 80401.8 0 1.11047e+06 72535 0 972155 62738.2 0 854826 52388.2 0 758348 42393.8 0 681735 32957.2 0 623732 24118.4 0 583200 15783.2 0 559250 7799.57 0 551330 0 0 1.22223e+06 -124717 0 1.58138e+06 -128809 0 1.73752e+06 -31286 0 1.71892e+06 38548.2 0 1.59812e+06 75641.3 0 1.43564e+06 86519.5 0 1.26701e+06 84775.9 0 1.11e+06 76508.1 0 971707 66147 0 854429 55238.9 0 758000 44696.7 0 681436 34747.7 0 623469 25428.6 0 582965 16640.4 0 559031 8223.41 0 551116 0 0 1.21869e+06 -124356 0 1.58443e+06 -135123 0 1.74011e+06 -33081.6 0 1.7202e+06 41147.1 0 1.5984e+06 79572.6 0 1.43542e+06 91146.7 0 1.26657e+06 89150.8 0 1.10952e+06 80482.3 0 971243 69554.2 0 854017 58088.3 0 757638 46998.2 0 681123 36537.1 0 623194 26738 0 582718 17497 0 558800 8646.95 0 550891 0 0 1.21354e+06 -123831 0 1.58777e+06 -141417 0 1.7428e+06 -34873.6 0 1.72154e+06 43810.5 0 1.59871e+06 83513 0 1.4352e+06 95790.9 0 1.26612e+06 93525.7 0 1.10903e+06 84458.1 0 970765 72959.6 0 853590 60936.3 0 757263 49298.2 0 680796 38325.2 0 622906 28046.5 0 582459 18353 0 558558 9070.2 0 550655 0 0 1.20671e+06 -123134 0 1.59143e+06 -147671 0 1.7456e+06 -36675.6 0 1.72295e+06 46548.5 0 1.59905e+06 87458.6 0 1.43498e+06 100455 0 1.26567e+06 97899.5 0 1.10852e+06 88436.2 0 970272 76362.9 0 853147 63783.3 0 756873 51596.6 0 680456 40112.2 0 622606 29354 0 582187 19208.4 0 558304 9493.17 0 550407 0 0 1.19812e+06 -122257 0 1.59541e+06 -153863 0 1.7485e+06 -38502.7 0 1.72442e+06 49372.4 0 1.59942e+06 91404.8 0 1.43476e+06 105142 0 1.26521e+06 102271 0 1.10799e+06 92417.2 0 969765 79763.9 0 852688 66629.1 0 756470 53893.3 0 680103 41897.9 0 622294 30660.6 0 581905 20063 0 558039 9915.85 0 550147 0 0 1.18766e+06 -121190 0 1.59973e+06 -159968 0 1.7515e+06 -40371.5 0 1.72596e+06 52294.3 0 1.59982e+06 95346.6 0 1.43454e+06 109856 0 1.26474e+06 106639 0 1.10745e+06 96401.9 0 969244 83162.3 0 852214 69473.9 0 756052 56188.4 0 679736 43682.4 0 621969 31966.3 0 581610 20917 0 557762 10338.2 0 549877 0 0 1.17523e+06 -119922 0 1.60442e+06 -165960 0 1.75461e+06 -42300.5 0 1.72756e+06 55327.5 0 1.60025e+06 99278.2 0 1.43431e+06 114601 0 1.26427e+06 111001 0 1.10689e+06 100391 0 968709 86557.6 0 851724 72317.9 0 755621 58481.7 0 679356 45465.5 0 621631 33271 0 581303 21770.3 0 557474 10760.4 0 549595 0 0 1.16069e+06 -118438 0 1.60951e+06 -171809 0 1.75781e+06 -44310.5 0 1.72922e+06 58487 0 1.6007e+06 103193 0 1.43407e+06 119381 0 1.26378e+06 115356 0 1.10632e+06 104386 0 968160 89949.5 0 851218 75161.1 0 755176 60773.2 0 678962 47247.4 0 621282 34574.8 0 580984 22622.8 0 557175 11182.2 0 549302 0 0 1.14389e+06 -116723 0 1.61502e+06 -177479 0 1.7611e+06 -46425.2 0 1.73094e+06 61789.2 0 1.60119e+06 107083 0 1.43383e+06 124200 0 1.2633e+06 119703 0 1.10572e+06 108388 0 967598 93337.6 0 850697 78003.8 0 754717 63062.8 0 678555 49027.9 0 620920 35877.6 0 580654 23474.6 0 556864 11603.8 0 548998 0 0 1.12464e+06 -114759 0 1.62098e+06 -182931 0 1.76449e+06 -48671.1 0 1.73272e+06 65252.5 0 1.60171e+06 110940 0 1.43358e+06 129064 0 1.26281e+06 124037 0 1.10511e+06 112398 0 967022 96721.3 0 850158 80846 0 754245 65350.4 0 678134 50807.1 0 620545 37179.4 0 580311 24325.5 0 556542 12025.2 0 548682 0 0 1.10275e+06 -112525 0 1.62744e+06 -188121 0 1.76796e+06 -51078.5 0 1.73456e+06 68897.7 0 1.60226e+06 114753 0 1.43331e+06 133980 0 1.26231e+06 128358 0 1.10448e+06 116417 0 966434 100100 0 849604 83688.2 0 753759 67635.9 0 677699 52584.9 0 620159 38480.3 0 579957 25175.6 0 556208 12446.4 0 548356 0 0 1.07799e+06 -109999 0 1.63444e+06 -192997 0 1.77152e+06 -53681.3 0 1.73645e+06 72747.7 0 1.60285e+06 118512 0 1.43304e+06 138954 0 1.26182e+06 132660 0 1.10383e+06 120447 0 965833 103473 0 849032 86530.4 0 753260 69919.3 0 677250 54361.4 0 619760 39780.2 0 579591 26024.8 0 555863 12867.4 0 548018 0 0 </DataArray> 
</PointData> 
<Points> 
<DataArray type="Float32" NumberOfComponents="3"> 
0.19 0.005 0 0.2022 0.005 0 0.2144 0.005 0 0.2266 0.005 0 0.2388 0.005 0 0.251 0.005 0 0.2632 0.005 0 0.2754 0.005 0 0.2876 0.005 0 0.2998 0.005 0 0.312 0.005 0 0.3242 0.005 0 0.3364 0.005 0 0.3486 0.005 0 0.3608 0.005 0 0.373 0.005 0 0.190033 0.00532667 0 0.202231 0.00532667 0 0.214429 0.00532667 0 0.226627 0.00532667 0 0.238824 0.00532667 0 0.251022 0.00532667 0 0.26322 0.00532667 0 0.275418 0.00532667 0 0.287616 0.00532667 0 0.299813 0.00532667 0 0.312011 0.00532667 0 0.324209 0.00532667 0 0.336407 0.00532667 0 0.348604 0.00532667 0 0.360802 0.00532667 0 0.373 0.00532667 0 0.190067 0.00565333 0 0.202262 0.00565333 0 0.214458 0.00565333 0 0.226653 0.00565333 0 0.238849 0.00565333 0 0.251044 0.00565333 0 0.26324 0.00565333 0 0.275436 0.00565333 0 0.287631 0.00565333 0 0.299827 0.00565333 0 0.312022 0.00565333 0 0.324218 0.00565333 0 0.336413 0.00565333 0 0.348609 0.00565333 0 0.360804 0.00565333 0 0.373 0.00565333 0 0.1901 0.00598 0 0.202293 0.00598 0 0.214487 0.00598 0 0.22668 0.00598 0 0.238873 0.00598 0 0.251067 0.00598 0 0.26326 0.00598 0 0.275453 0.00598 0 0.287647 0.00598 0 0.29984 0.00598 0 0.312033 0.00598 0 0.324227 0.00598 0 0.33642 0.00598 0 0.348613 0.00598 0 0.360807 0.00598 0 0.373 0.00598 0 0.190133 0.00630667 0 0.202324 0.00630667 0 0.214516 0.00630667 0 0.226707 0.00630667 0 0.238898 0.00630667 0 0.251089 0.00630667 0 0.26328 0.00630667 0 0.275471 0.00630667 0 0.287662 0.00630667 0 0.299853 0.00630667 0 0.312044 0.00630667 0 0.324236 0.00630667 0 0.336427 0.00630667 0 0.348618 0.00630667 0 0.360809 0.00630667 0 0.373 0.00630667 0 0.190167 0.00663333 0 0.202356 0.00663333 0 0.214544 0.00663333 0 0.226733 0.00663333 0 0.238922 0.00663333 0 0.251111 0.00663333 0 0.2633 0.00663333 0 0.275489 0.00663333 0 0.287678 0.00663333 0 0.299867 0.00663333 0 0.312056 0.00663333 0 0.324244 0.00663333 0 0.336433 0.00663333 0 0.348622 0.00663333 0 0.360811 0.00663333 0 0.373 0.00663333 0 0.1902 0.00696 0 0.202387 0.00696 0 0.214573 0.00696 0 0.22676 0.00696 0 0.238947 0.00696 0 0.251133 0.00696 0 0.26332 0.00696 0 0.275507 0.00696 0 0.287693 0.00696 0 0.29988 0.00696 0 0.312067 0.00696 0 0.324253 0.00696 0 0.33644 0.00696 0 0.348627 0.00696 0 0.360813 0.00696 0 0.373 0.00696 0 0.190233 0.00728667 0 0.202418 0.00728667 0 0.214602 0.00728667 0 0.226787 0.00728667 0 0.238971 0.00728667 0 0.251156 0.00728667 0 0.26334 0.00728667 0 0.275524 0.00728667 0 0.287709 0.00728667 0 0.299893 0.00728667 0 0.312078 0.00728667 0 0.324262 0.00728667 0 0.336447 0.00728667 0 0.348631 0.00728667 0 0.360816 0.00728667 0 0.373 0.00728667 0 0.190267 0.00761333 0 0.202449 0.00761333 0 0.214631 0.00761333 0 0.226813 0.00761333 0 0.238996 0.00761333 0 0.251178 0.00761333 0 0.26336 0.00761333 0 0.275542 0.00761333 0 0.287724 0.00761333 0 0.299907 0.00761333 0 0.312089 0.00761333 0 0.324271 0.00761333 0 0.336453 0.00761333 0 0.348636 0.00761333 0 0.360818 0.00761333 0 0.373 0.00761333 0 0.1903 0.00794 0 0.20248 0.00794 0 0.21466 0.00794 0 0.22684 0.00794 0 0.23902 0.00794 0 0.2512 0.00794 0 0.26338 0.00794 0 0.27556 0.00794 0 0.28774 0.00794 0 0.29992 0.00794 0 0.3121 0.00794 0 0.32428 0.00794 0 0.33646 0.00794 0 0.34864 0.00794 0 0.36082 0.00794 0 0.373 0.00794 0 0.190333 0.00826667 0 0.202511 0.00826667 0 0.214689 0.00826667 0 0.226867 0.00826667 0 0.239044 0.00826667 0 0.251222 0.00826667 0 0.2634 0.00826667 0 0.275578 0.00826667 0 0.287756 0.00826667 0 0.299933 0.00826667 0 0.312111 0.00826667 0 0.324289 0.00826667 0 0.336467 0.00826667 0 0.348644 0.00826667 0 0.360822 0.00826667 0 0.373 0.00826667 0 0.190367 0.00859333 0 0.202542 0.00859333 0 0.214718 0.00859333 0 0.226893 0.00859333 0 0.239069 0.00859333 0 0.251244 0.00859333 0 0.26342 0.00859333 0 0.275596 0.00859333 0 0.287771 0.00859333 0 0.299947 0.00859333 0 0.312122 0.00859333 0 0.324298 0.00859333 0 0.336473 0.00859333 0 0.348649 0.00859333 0 0.360824 0.00859333 0 0.373 0.00859333 0 0.1904 0.00892 0 0.202573 0.00892 0 0.214747 0.00892 0 0.22692 0.00892 0 0.239093 0.00892 0 0.251267 0.00892 0 0.26344 0.00892 0 0.275613 0.00892 0 0.287787 0.00892 0 0.29996 0.00892 0 0.312133 0.00892 0 0.324307 0.00892 0 0.33648 0.00892 0 0.348653 0.00892 0 0.360827 0.00892 0 0.373 0.00892 0 0.190433 0.00924667 0 0.202604 0.00924667 0 0.214776 0.00924667 0 0.226947 0.00924667 0 0.239118 0.00924667 0 0.251289 0.00924667 0 0.26346 0.00924667 0 0.275631 0.00924667 0 0.287802 0.00924667 0 0.299973 0.00924667 0 0.312144 0.00924667 0 0.324316 0.00924667 0 0.336487 0.00924667 0 0.348658 0.00924667 0 0.360829 0.00924667 0 0.373 0.00924667 0 0.190467 0.00957333 0 0.202636 0.00957333 0 0.214804 0.00957333 0 0.226973 0.00957333 0 0.239142 0.00957333 0 0.251311 0.00957333 0 0.26348 0.00957333 0 0.275649 0.00957333 0 0.287818 0.00957333 0 0.299987 0.00957333 0 0.312156 0.00957333 0 0.324324 0.00957333 0 0.336493 0.00957333 0 0.348662 0.00957333 0 0.360831 0.00957333 0 0.373 0.00957333 0 0.1905 0.0099 0 0.202667 0.0099 0 0.214833 0.0099 0 0.227 0.0099 0 0.239167 0.0099 0 0.251333 0.0099 0 0.2635 0.0099 0 0.275667 0.0099 0 0.287833 0.0099 0 0.3 0.0099 0 0.312167 0.0099 0 0.324333 0.0099 0 0.3365 0.0099 0 0.348667 0.0099 0 0.360833 0.0099 0 0.373 0.0099 0 
</DataArray>
</Points> 
</Piece> 
</StructuredGrid> 
</VTKFile> 
