<?xml version="1.0"?> 
<VTKFile type="StructuredGrid" version="0.1"> 
<StructuredGrid WholeExtent="0 15 0 15 0 0"> 
<Piece Extent="0 15 0 15 0 0"> 
<PointData>
<DataArray type="Float32" Name="|E|" format="ascii" NumberOfComponents="3"> 
-1.66616e+06 0 0 -1.69283e+06 -59748.3 0 -1.77485e+06 -105390 0 -1.89143e+06 -108920 0 -1.99793e+06 -70762.4 0 -2.07691e+06 -18328.3 0 -2.1316e+06 35783.6 0 -2.16577e+06 89460.4 0 -2.17978e+06 143838 0 -2.17084e+06 199247 0 -2.1328e+06 251706 0 -2.06215e+06 280479 0 -1.98612e+06 256419 0 -1.94339e+06 187327 0 -1.95838e+06 77253.5 0 -2.01364e+06 4.05312e-06 0 -1.67204e+06 0 0 -1.69824e+06 -54425.8 0 -1.77746e+06 -94998.8 0 -1.88933e+06 -97274.5 0 -1.9932e+06 -61555.9 0 -2.07162e+06 -11730.4 0 -2.12633e+06 40188.9 0 -2.16049e+06 91887.8 0 -2.17439e+06 144159 0 -2.16546e+06 197048 0 -2.12839e+06 246267 0 -2.0616e+06 272539 0 -1.99091e+06 250543 0 -1.95236e+06 185301 0 -1.96913e+06 82458.4 0 -2.01772e+06 -3.65078e-07 0 -1.67739e+06 0 0 -1.70311e+06 -49217.3 0 -1.77971e+06 -85020.3 0 -1.88733e+06 -86035.6 0 -1.98875e+06 -52470.9 0 -2.06656e+06 -5147.59 0 -2.12125e+06 44599.5 0 -2.1554e+06 94308.6 0 -2.16923e+06 144471 0 -2.16035e+06 194875 0 -2.1243e+06 241039 0 -2.06111e+06 265133 0 -1.99534e+06 245068 0 -1.96077e+06 183719 0 -1.97939e+06 87449.1 0 -2.02377e+06 -5.40167e-08 0 -1.68222e+06 0 0 -1.70745e+06 -44124 0 -1.78163e+06 -75415 0 -1.88543e+06 -75166 0 -1.98454e+06 -43507.8 0 -2.06173e+06 1416.9 0 -2.11638e+06 49013.4 0 -2.15052e+06 96723.9 0 -2.16429e+06 144778 0 -2.15552e+06 192733 0 -2.1205e+06 236017 0 -2.06067e+06 258211 0 -1.99943e+06 239982 0 -1.96864e+06 182545 0 -1.98926e+06 92327 0 -2.03152e+06 4.19095e-08 0 -1.68655e+06 0 0 -1.71129e+06 -39144.7 0 -1.78323e+06 -66146.6 0 -1.8836e+06 -64631 0 -1.98056e+06 -34664.8 0 -2.05713e+06 7960.5 0 -2.11172e+06 53428.8 0 -2.14584e+06 99135.1 0 -2.15958e+06 145083 0 -2.15096e+06 190628 0 -2.11698e+06 231196 0 -2.06026e+06 251729 0 -2.0032e+06 235271 0 -1.97598e+06 181744 0 -1.99878e+06 97194.8 0 -2.04085e+06 -7.63685e-08 0 -1.69037e+06 0 0 -1.71464e+06 -34275.8 0 -1.78454e+06 -57181.9 0 -1.88182e+06 -54398.1 0 -1.97681e+06 -25938.4 0 -2.05276e+06 14481.2 0 -2.10725e+06 57844 0 -2.14136e+06 101543 0 -2.15508e+06 145389 0 -2.14665e+06 188563 0 -2.1137e+06 226568 0 -2.05987e+06 245644 0 -2.00665e+06 230918 0 -1.9828e+06 181288 0 -2.00799e+06 102152 0 -2.05173e+06 5.58794e-08 0 -1.69371e+06 0 0 -1.71752e+06 -29512.3 0 -1.78556e+06 -48489.9 0 -1.88008e+06 -44437.2 0 -1.97325e+06 -17323.6 0 -2.0486e+06 20977.7 0 -2.10299e+06 62258 0 -2.13709e+06 103949 0 -2.15081e+06 145699 0 -2.14259e+06 186542 0 -2.11065e+06 222122 0 -2.05948e+06 239922 0 -2.0098e+06 226901 0 -1.9891e+06 181157 0 -2.01689e+06 107290 0 -2.06427e+06 -7.45058e-08 0 -1.69656e+06 0 0 -1.71994e+06 -24847.7 0 -1.7863e+06 -40041.8 0 -1.87837e+06 -34720 0 -1.96988e+06 -8814.38 0 -2.04465e+06 27449.2 0 -2.09893e+06 66669.6 0 -2.13302e+06 106354 0 -2.14676e+06 146015 0 -2.13877e+06 184567 0 -2.1078e+06 217848 0 -2.05908e+06 234531 0 -2.01264e+06 223198 0 -1.99489e+06 181337 0 -2.02546e+06 112690 0 -2.07872e+06 1.63913e-07 0 -1.69895e+06 0 0 -1.72193e+06 -20275 0 -1.78678e+06 -31810.4 0 -1.87667e+06 -25219.9 0 -1.96669e+06 -403.788 0 -2.04091e+06 33895.4 0 -2.09507e+06 71078.2 0 -2.12915e+06 108759 0 -2.14292e+06 146339 0 -2.13519e+06 182639 0 -2.10515e+06 213733 0 -2.05867e+06 229444 0 -2.01519e+06 219778 0 -2.0002e+06 181825 0 -2.03362e+06 118414 0 -2.09547e+06 -1.04308e-07 0 -1.70087e+06 0 0 -1.72348e+06 -15786.3 0 -1.78699e+06 -23770.1 0 -1.87499e+06 -15911.6 0 -1.96367e+06 7915.8 0 -2.03737e+06 40316.5 0 -2.09141e+06 75483.1 0 -2.12548e+06 111165 0 -2.1393e+06 146671 0 -2.13183e+06 180762 0 -2.10268e+06 209760 0 -2.05824e+06 224642 0 -2.01744e+06 216600 0 -2.00501e+06 182637 0 -2.04127e+06 124492 0 -2.11515e+06 8.19564e-08 0 -1.70234e+06 0 0 -1.72461e+06 -11373.1 0 -1.78696e+06 -15896.5 0 -1.87331e+06 -6771.09 0 -1.96081e+06 16152.6 0 -2.03403e+06 46713.5 0 -2.08795e+06 79883.5 0 -2.12202e+06 113574 0 -2.13589e+06 147013 0 -2.1287e+06 178939 0 -2.10037e+06 205909 0 -2.05777e+06 220116 0 -2.0194e+06 213609 0 -2.00936e+06 183814 0 -2.04823e+06 130908 0 -2.13868e+06 -1.04308e-07 0 -1.70335e+06 0 0 -1.72533e+06 -7026.7 0 -1.78667e+06 -8166.32 0 -1.87162e+06 2224.65 0 -1.95811e+06 24315.1 0 -2.03089e+06 53087.4 0 -2.08469e+06 84278.7 0 -2.11875e+06 115988 0 -2.13269e+06 147361 0 -2.12578e+06 177176 0 -2.09823e+06 202152 0 -2.05727e+06 215870 0 -2.02107e+06 210725 0 -2.01327e+06 185440 0 -2.05426e+06 137567 0 -2.16741e+06 1.19209e-07 0 -1.70392e+06 0 0 -1.72565e+06 -2738.17 0 -1.78615e+06 -556.945 0 -1.86993e+06 11097.8 0 -1.95555e+06 32412.4 0 -2.02795e+06 59439.8 0 -2.08162e+06 88667.7 0 -2.11569e+06 118410 0 -2.12971e+06 147711 0 -2.12306e+06 175485 0 -2.09624e+06 198451 0 -2.0567e+06 211931 0 -2.02245e+06 207825 0 -2.01677e+06 187673 0 -2.05897e+06 144249 0 -2.2033e+06 -2.98023e-08 0 -1.70405e+06 0 0 -1.72557e+06 1501.59 0 -1.78538e+06 6953.48 0 -1.86822e+06 19869.8 0 -1.95313e+06 40453.4 0 -2.02519e+06 65773 0 -2.07876e+06 93048.9 0 -2.11281e+06 120845 0 -2.12694e+06 148054 0 -2.12053e+06 173886 0 -2.09442e+06 194746 0 -2.05607e+06 208365 0 -2.02355e+06 204723 0 -2.01992e+06 190783 0 -2.06183e+06 150542 0 -2.24922e+06 -1.3411e-07 0 -1.70375e+06 0 0 -1.72509e+06 5701.61 0 -1.78439e+06 14386.5 0 -1.8665e+06 28561.5 0 -1.95085e+06 48447.7 0 -2.02261e+06 72089.6 0 -2.0761e+06 97419.5 0 -2.11012e+06 123302 0 -2.1244e+06 148373 0 -2.11817e+06 172413 0 -2.09277e+06 190950 0 -2.05532e+06 205295 0 -2.02437e+06 201124 0 -2.02281e+06 195222 0 -2.06206e+06 155724 0 -2.30936e+06 8.9407e-08 0 -1.70301e+06 0 0 -1.72423e+06 9870.68 0 -1.78315e+06 21763 0 -1.86477e+06 37192.9 0 -1.94871e+06 56404.4 0 -2.02022e+06 78392.8 0 -2.07364e+06 101775 0 -2.10761e+06 125792 0 -2.12211e+06 148641 0 -2.11595e+06 171126 0 -2.09134e+06 186928 0 -2.05442e+06 202932 0 -2.02495e+06 196577 0 -2.0256e+06 201718 0 -2.05853e+06 158623 0 -2.38984e+06 -4.76837e-07 0 </DataArray> 
</PointData> 
<Points> 
<DataArray type="Float32" NumberOfComponents="3"> 
0 0.035 0 0.00666667 0.035 0 0.0133333 0.035 0 0.02 0.035 0 0.0266667 0.035 0 0.0333333 0.035 0 0.04 0.035 0 0.0466667 0.035 0 0.0533333 0.035 0 0.06 0.035 0 0.0666667 0.035 0 0.0733333 0.035 0 0.08 0.035 0 0.0866667 0.035 0 0.0933333 0.035 0 0.1 0.035 0 0 0.0356667 0 0.00666667 0.0356667 0 0.0133333 0.0356667 0 0.02 0.0356667 0 0.0266667 0.0356667 0 0.0333333 0.0356667 0 0.04 0.0356667 0 0.0466667 0.0356667 0 0.0533333 0.0356667 0 0.06 0.0356667 0 0.0666667 0.0356667 0 0.0733333 0.0356667 0 0.08 0.0356667 0 0.0866667 0.0356667 0 0.0933333 0.0356667 0 0.1 0.0356667 0 0 0.0363333 0 0.00666667 0.0363333 0 0.0133333 0.0363333 0 0.02 0.0363333 0 0.0266667 0.0363333 0 0.0333333 0.0363333 0 0.04 0.0363333 0 0.0466667 0.0363333 0 0.0533333 0.0363333 0 0.06 0.0363333 0 0.0666667 0.0363333 0 0.0733333 0.0363333 0 0.08 0.0363333 0 0.0866667 0.0363333 0 0.0933333 0.0363333 0 0.1 0.0363333 0 0 0.037 0 0.00666667 0.037 0 0.0133333 0.037 0 0.02 0.037 0 0.0266667 0.037 0 0.0333333 0.037 0 0.04 0.037 0 0.0466667 0.037 0 0.0533333 0.037 0 0.06 0.037 0 0.0666667 0.037 0 0.0733333 0.037 0 0.08 0.037 0 0.0866667 0.037 0 0.0933333 0.037 0 0.1 0.037 0 0 0.0376667 0 0.00666667 0.0376667 0 0.0133333 0.0376667 0 0.02 0.0376667 0 0.0266667 0.0376667 0 0.0333333 0.0376667 0 0.04 0.0376667 0 0.0466667 0.0376667 0 0.0533333 0.0376667 0 0.06 0.0376667 0 0.0666667 0.0376667 0 0.0733333 0.0376667 0 0.08 0.0376667 0 0.0866667 0.0376667 0 0.0933333 0.0376667 0 0.1 0.0376667 0 0 0.0383333 0 0.00666667 0.0383333 0 0.0133333 0.0383333 0 0.02 0.0383333 0 0.0266667 0.0383333 0 0.0333333 0.0383333 0 0.04 0.0383333 0 0.0466667 0.0383333 0 0.0533333 0.0383333 0 0.06 0.0383333 0 0.0666667 0.0383333 0 0.0733333 0.0383333 0 0.08 0.0383333 0 0.0866667 0.0383333 0 0.0933333 0.0383333 0 0.1 0.0383333 0 0 0.039 0 0.00666667 0.039 0 0.0133333 0.039 0 0.02 0.039 0 0.0266667 0.039 0 0.0333333 0.039 0 0.04 0.039 0 0.0466667 0.039 0 0.0533333 0.039 0 0.06 0.039 0 0.0666667 0.039 0 0.0733333 0.039 0 0.08 0.039 0 0.0866667 0.039 0 0.0933333 0.039 0 0.1 0.039 0 0 0.0396667 0 0.00666667 0.0396667 0 0.0133333 0.0396667 0 0.02 0.0396667 0 0.0266667 0.0396667 0 0.0333333 0.0396667 0 0.04 0.0396667 0 0.0466667 0.0396667 0 0.0533333 0.0396667 0 0.06 0.0396667 0 0.0666667 0.0396667 0 0.0733333 0.0396667 0 0.08 0.0396667 0 0.0866667 0.0396667 0 0.0933333 0.0396667 0 0.1 0.0396667 0 0 0.0403333 0 0.00666667 0.0403333 0 0.0133333 0.0403333 0 0.02 0.0403333 0 0.0266667 0.0403333 0 0.0333333 0.0403333 0 0.04 0.0403333 0 0.0466667 0.0403333 0 0.0533333 0.0403333 0 0.06 0.0403333 0 0.0666667 0.0403333 0 0.0733333 0.0403333 0 0.08 0.0403333 0 0.0866667 0.0403333 0 0.0933333 0.0403333 0 0.1 0.0403333 0 0 0.041 0 0.00666667 0.041 0 0.0133333 0.041 0 0.02 0.041 0 0.0266667 0.041 0 0.0333333 0.041 0 0.04 0.041 0 0.0466667 0.041 0 0.0533333 0.041 0 0.06 0.041 0 0.0666667 0.041 0 0.0733333 0.041 0 0.08 0.041 0 0.0866667 0.041 0 0.0933333 0.041 0 0.1 0.041 0 0 0.0416667 0 0.00666667 0.0416667 0 0.0133333 0.0416667 0 0.02 0.0416667 0 0.0266667 0.0416667 0 0.0333333 0.0416667 0 0.04 0.0416667 0 0.0466667 0.0416667 0 0.0533333 0.0416667 0 0.06 0.0416667 0 0.0666667 0.0416667 0 0.0733333 0.0416667 0 0.08 0.0416667 0 0.0866667 0.0416667 0 0.0933333 0.0416667 0 0.1 0.0416667 0 0 0.0423333 0 0.00666667 0.0423333 0 0.0133333 0.0423333 0 0.02 0.0423333 0 0.0266667 0.0423333 0 0.0333333 0.0423333 0 0.04 0.0423333 0 0.0466667 0.0423333 0 0.0533333 0.0423333 0 0.06 0.0423333 0 0.0666667 0.0423333 0 0.0733333 0.0423333 0 0.08 0.0423333 0 0.0866667 0.0423333 0 0.0933333 0.0423333 0 0.1 0.0423333 0 0 0.043 0 0.00666667 0.043 0 0.0133333 0.043 0 0.02 0.043 0 0.0266667 0.043 0 0.0333333 0.043 0 0.04 0.043 0 0.0466667 0.043 0 0.0533333 0.043 0 0.06 0.043 0 0.0666667 0.043 0 0.0733333 0.043 0 0.08 0.043 0 0.0866667 0.043 0 0.0933333 0.043 0 0.1 0.043 0 0 0.0436667 0 0.00666667 0.0436667 0 0.0133333 0.0436667 0 0.02 0.0436667 0 0.0266667 0.0436667 0 0.0333333 0.0436667 0 0.04 0.0436667 0 0.0466667 0.0436667 0 0.0533333 0.0436667 0 0.06 0.0436667 0 0.0666667 0.0436667 0 0.0733333 0.0436667 0 0.08 0.0436667 0 0.0866667 0.0436667 0 0.0933333 0.0436667 0 0.1 0.0436667 0 0 0.0443333 0 0.00666667 0.0443333 0 0.0133333 0.0443333 0 0.02 0.0443333 0 0.0266667 0.0443333 0 0.0333333 0.0443333 0 0.04 0.0443333 0 0.0466667 0.0443333 0 0.0533333 0.0443333 0 0.06 0.0443333 0 0.0666667 0.0443333 0 0.0733333 0.0443333 0 0.08 0.0443333 0 0.0866667 0.0443333 0 0.0933333 0.0443333 0 0.1 0.0443333 0 0 0.045 0 0.00666667 0.045 0 0.0133333 0.045 0 0.02 0.045 0 0.0266667 0.045 0 0.0333333 0.045 0 0.04 0.045 0 0.0466667 0.045 0 0.0533333 0.045 0 0.06 0.045 0 0.0666667 0.045 0 0.0733333 0.045 0 0.08 0.045 0 0.0866667 0.045 0 0.0933333 0.045 0 0.1 0.045 0 
</DataArray>
</Points> 
</Piece> 
</StructuredGrid> 
</VTKFile> 
