<?xml version="1.0"?> 
<VTKFile type="StructuredGrid" version="0.1"> 
<StructuredGrid WholeExtent="0 15 0 15 0 0"> 
<Piece Extent="0 15 0 15 0 0"> 
<PointData>
<DataArray type="Float32" Name="|E|" format="ascii" NumberOfComponents="3"> 
1.07799e+06 -448274 0 1.63444e+06 -207855 0 1.77152e+06 -39899.3 0 1.73645e+06 65449 0 1.60285e+06 122325 0 1.43304e+06 137165 0 1.26182e+06 133516 0 1.10383e+06 120076 0 965833 103629 0 849032 86473.6 0 753260 69936.8 0 677250 54360.4 0 619760 39777.5 0 579591 26029.2 0 555863 12863.2 0 548018 0 0 1.13423e+06 -471662 0 1.64759e+06 -217583 0 1.78054e+06 -39869.2 0 1.73916e+06 72918.8 0 1.6019e+06 131602 0 1.43057e+06 146968 0 1.25892e+06 142550 0 1.10113e+06 128107 0 963479 110483 0 847090 92180.2 0 751682 74544.8 0 675982 57942.2 0 618728 42399.8 0 578726 27745.6 0 555097 13712.1 0 547284 0 0 1.18533e+06 -492911 0 1.66202e+06 -226852 0 1.78984e+06 -39115.2 0 1.74201e+06 80676 0 1.60096e+06 141079 0 1.42806e+06 156815 0 1.25598e+06 151593 0 1.09836e+06 136117 0 961061 117313 0 845085 97863.1 0 750045 79132.8 0 674658 61508.2 0 617643 45010.5 0 577812 29454.6 0 554283 14557.3 0 546503 0 0 1.23221e+06 -512405 0 1.67755e+06 -235591 0 1.79943e+06 -37654.6 0 1.74497e+06 88741 0 1.60004e+06 150753 0 1.42551e+06 166709 0 1.25297e+06 160644 0 1.09553e+06 144108 0 958580 124119 0 843018 103522 0 748349 83700.5 0 673279 65058.3 0 616507 47609.5 0 576847 31156 0 553420 15398.7 0 545674 0 0 1.27563e+06 -530462 0 1.69407e+06 -243747 0 1.80931e+06 -35497.8 0 1.74803e+06 97131 0 1.5991e+06 160619 0 1.42291e+06 176653 0 1.24991e+06 169700 0 1.09263e+06 152079 0 956035 130901 0 840888 109157 0 746596 88247.7 0 671845 68592.1 0 615318 50196.7 0 575833 32849.7 0 552509 16236.3 0 544797 0 0 1.31625e+06 -547350 0 1.71147e+06 -251278 0 1.81948e+06 -32649.2 0 1.75117e+06 105860 0 1.59816e+06 170675 0 1.42025e+06 186648 0 1.24679e+06 178762 0 1.08966e+06 160030 0 953426 137659 0 838696 114767 0 744784 92774.2 0 670355 72109.6 0 614078 52771.7 0 574770 34535.6 0 551550 17070.1 0 543873 0 0 1.3546e+06 -563297 0 1.72968e+06 -258154 0 1.82993e+06 -29107.4 0 1.75437e+06 114940 0 1.59719e+06 180920 0 1.41753e+06 196694 0 1.2436e+06 187830 0 1.08663e+06 167962 0 950752 144392 0 836441 120353 0 742915 97279.7 0 668811 75610.4 0 612786 55334.6 0 573657 36213.5 0 550543 17899.9 0 542900 0 0 1.39115e+06 -578497 0 1.74861e+06 -264349 0 1.84065e+06 -24866.7 0 1.75763e+06 124380 0 1.59619e+06 191351 0 1.41475e+06 206793 0 1.24035e+06 196901 0 1.08352e+06 175874 0 948013 151099 0 834124 125915 0 740987 101764 0 667213 79094.4 0 611443 57885.1 0 572494 37883.4 0 549487 18725.7 0 541881 0 0 1.42631e+06 -593120 0 1.76824e+06 -269845 0 1.85163e+06 -19916.6 0 1.76091e+06 134185 0 1.59514e+06 201968 0 1.4119e+06 216945 0 1.23703e+06 205976 0 1.08035e+06 183765 0 945209 157781 0 831745 131451 0 739001 106227 0 665559 82561.3 0 610048 60423.1 0 571282 39545.2 0 548384 19547.5 0 540813 0 0 1.46045e+06 -607318 0 1.78851e+06 -274628 0 1.86286e+06 -14242.1 0 1.7642e+06 144360 0 1.59404e+06 212771 0 1.40898e+06 227147 0 1.23364e+06 215056 0 1.0771e+06 191636 0 942340 164437 0 829304 136962 0 736958 110668 0 663852 86011 0 608601 62948.4 0 570021 41198.6 0 547233 20365.3 0 539699 0 0 1.4939e+06 -621227 0 1.80939e+06 -278688 0 1.87432e+06 -7823.38 0 1.76749e+06 154905 0 1.59287e+06 223762 0 1.40598e+06 237399 0 1.23018e+06 224138 0 1.07379e+06 199486 0 939404 171067 0 826800 142447 0 734856 115087 0 662089 89443.1 0 607103 65460.8 0 568710 42843.7 0 546034 21178.8 0 538537 0 0 1.52698e+06 -634980 0 1.83086e+06 -282020 0 1.886e+06 -635.251 0 1.77075e+06 165817 0 1.59163e+06 234942 0 1.4029e+06 247697 0 1.22664e+06 233225 0 1.0704e+06 207313 0 936402 177671 0 824234 147906 0 732697 119484 0 660273 92857.6 0 605554 67960.2 0 567351 44480.3 0 544787 21988.2 0 537327 0 0 1.55998e+06 -648703 0 1.8529e+06 -284622 0 1.89787e+06 7353.94 0 1.77396e+06 177086 0 1.5903e+06 246316 0 1.39973e+06 258035 0 1.22302e+06 242317 0 1.06694e+06 215117 0 933333 184249 0 821606 153339 0 730480 123859 0 658402 96254.2 0 603954 70446.4 0 565942 46108.3 0 543493 22793.3 0 536071 0 0 1.59322e+06 -662526 0 1.87547e+06 -286501 0 1.90992e+06 16183.7 0 1.77712e+06 188700 0 1.58887e+06 257891 0 1.39648e+06 268409 0 1.21932e+06 251416 0 1.06341e+06 222895 0 930197 190801 0 818916 158744 0 728205 128211 0 656477 99632.7 0 602303 72919.2 0 564485 47727.6 0 542151 23594.1 0 534767 0 0 1.62702e+06 -676584 0 1.89856e+06 -287670 0 1.92213e+06 25903.3 0 1.7802e+06 200636 0 1.58733e+06 269678 0 1.39313e+06 278807 0 1.21553e+06 260525 0 1.0598e+06 230645 0 926993 197328 0 816164 164122 0 725872 132540 0 654499 102993 0 600600 75378.5 0 562979 49338.2 0 540761 24390.4 0 533416 0 0 1.66176e+06 -691029 0 1.92214e+06 -288152 0 1.93447e+06 36574.2 0 1.78318e+06 212866 0 1.58567e+06 281693 0 1.38969e+06 289218 0 1.21166e+06 269648 0 1.05613e+06 238363 0 923719 203831 0 813351 169471 0 723482 136847 0 652467 106334 0 598847 77823.9 0 561424 50939.9 0 539324 25182.2 0 532019 0 0 </DataArray> 
</PointData> 
<Points> 
<DataArray type="Float32" NumberOfComponents="3"> 
0.1905 0.0099 0 0.202667 0.0099 0 0.214833 0.0099 0 0.227 0.0099 0 0.239167 0.0099 0 0.251333 0.0099 0 0.2635 0.0099 0 0.275667 0.0099 0 0.287833 0.0099 0 0.3 0.0099 0 0.312167 0.0099 0 0.324333 0.0099 0 0.3365 0.0099 0 0.348667 0.0099 0 0.360833 0.0099 0 0.373 0.0099 0 0.19078 0.0105733 0 0.202928 0.0105733 0 0.215076 0.0105733 0 0.227224 0.0105733 0 0.239372 0.0105733 0 0.25152 0.0105733 0 0.263668 0.0105733 0 0.275816 0.0105733 0 0.287964 0.0105733 0 0.300112 0.0105733 0 0.31226 0.0105733 0 0.324408 0.0105733 0 0.336556 0.0105733 0 0.348704 0.0105733 0 0.360852 0.0105733 0 0.373 0.0105733 0 0.19106 0.0112467 0 0.203189 0.0112467 0 0.215319 0.0112467 0 0.227448 0.0112467 0 0.239577 0.0112467 0 0.251707 0.0112467 0 0.263836 0.0112467 0 0.275965 0.0112467 0 0.288095 0.0112467 0 0.300224 0.0112467 0 0.312353 0.0112467 0 0.324483 0.0112467 0 0.336612 0.0112467 0 0.348741 0.0112467 0 0.360871 0.0112467 0 0.373 0.0112467 0 0.19134 0.01192 0 0.203451 0.01192 0 0.215561 0.01192 0 0.227672 0.01192 0 0.239783 0.01192 0 0.251893 0.01192 0 0.264004 0.01192 0 0.276115 0.01192 0 0.288225 0.01192 0 0.300336 0.01192 0 0.312447 0.01192 0 0.324557 0.01192 0 0.336668 0.01192 0 0.348779 0.01192 0 0.360889 0.01192 0 0.373 0.01192 0 0.19162 0.0125933 0 0.203712 0.0125933 0 0.215804 0.0125933 0 0.227896 0.0125933 0 0.239988 0.0125933 0 0.25208 0.0125933 0 0.264172 0.0125933 0 0.276264 0.0125933 0 0.288356 0.0125933 0 0.300448 0.0125933 0 0.31254 0.0125933 0 0.324632 0.0125933 0 0.336724 0.0125933 0 0.348816 0.0125933 0 0.360908 0.0125933 0 0.373 0.0125933 0 0.1919 0.0132667 0 0.203973 0.0132667 0 0.216047 0.0132667 0 0.22812 0.0132667 0 0.240193 0.0132667 0 0.252267 0.0132667 0 0.26434 0.0132667 0 0.276413 0.0132667 0 0.288487 0.0132667 0 0.30056 0.0132667 0 0.312633 0.0132667 0 0.324707 0.0132667 0 0.33678 0.0132667 0 0.348853 0.0132667 0 0.360927 0.0132667 0 0.373 0.0132667 0 0.19218 0.01394 0 0.204235 0.01394 0 0.216289 0.01394 0 0.228344 0.01394 0 0.240399 0.01394 0 0.252453 0.01394 0 0.264508 0.01394 0 0.276563 0.01394 0 0.288617 0.01394 0 0.300672 0.01394 0 0.312727 0.01394 0 0.324781 0.01394 0 0.336836 0.01394 0 0.348891 0.01394 0 0.360945 0.01394 0 0.373 0.01394 0 0.19246 0.0146133 0 0.204496 0.0146133 0 0.216532 0.0146133 0 0.228568 0.0146133 0 0.240604 0.0146133 0 0.25264 0.0146133 0 0.264676 0.0146133 0 0.276712 0.0146133 0 0.288748 0.0146133 0 0.300784 0.0146133 0 0.31282 0.0146133 0 0.324856 0.0146133 0 0.336892 0.0146133 0 0.348928 0.0146133 0 0.360964 0.0146133 0 0.373 0.0146133 0 0.19274 0.0152867 0 0.204757 0.0152867 0 0.216775 0.0152867 0 0.228792 0.0152867 0 0.240809 0.0152867 0 0.252827 0.0152867 0 0.264844 0.0152867 0 0.276861 0.0152867 0 0.288879 0.0152867 0 0.300896 0.0152867 0 0.312913 0.0152867 0 0.324931 0.0152867 0 0.336948 0.0152867 0 0.348965 0.0152867 0 0.360983 0.0152867 0 0.373 0.0152867 0 0.19302 0.01596 0 0.205019 0.01596 0 0.217017 0.01596 0 0.229016 0.01596 0 0.241015 0.01596 0 0.253013 0.01596 0 0.265012 0.01596 0 0.277011 0.01596 0 0.289009 0.01596 0 0.301008 0.01596 0 0.313007 0.01596 0 0.325005 0.01596 0 0.337004 0.01596 0 0.349003 0.01596 0 0.361001 0.01596 0 0.373 0.01596 0 0.1933 0.0166333 0 0.20528 0.0166333 0 0.21726 0.0166333 0 0.22924 0.0166333 0 0.24122 0.0166333 0 0.2532 0.0166333 0 0.26518 0.0166333 0 0.27716 0.0166333 0 0.28914 0.0166333 0 0.30112 0.0166333 0 0.3131 0.0166333 0 0.32508 0.0166333 0 0.33706 0.0166333 0 0.34904 0.0166333 0 0.36102 0.0166333 0 0.373 0.0166333 0 0.19358 0.0173067 0 0.205541 0.0173067 0 0.217503 0.0173067 0 0.229464 0.0173067 0 0.241425 0.0173067 0 0.253387 0.0173067 0 0.265348 0.0173067 0 0.277309 0.0173067 0 0.289271 0.0173067 0 0.301232 0.0173067 0 0.313193 0.0173067 0 0.325155 0.0173067 0 0.337116 0.0173067 0 0.349077 0.0173067 0 0.361039 0.0173067 0 0.373 0.0173067 0 0.19386 0.01798 0 0.205803 0.01798 0 0.217745 0.01798 0 0.229688 0.01798 0 0.241631 0.01798 0 0.253573 0.01798 0 0.265516 0.01798 0 0.277459 0.01798 0 0.289401 0.01798 0 0.301344 0.01798 0 0.313287 0.01798 0 0.325229 0.01798 0 0.337172 0.01798 0 0.349115 0.01798 0 0.361057 0.01798 0 0.373 0.01798 0 0.19414 0.0186533 0 0.206064 0.0186533 0 0.217988 0.0186533 0 0.229912 0.0186533 0 0.241836 0.0186533 0 0.25376 0.0186533 0 0.265684 0.0186533 0 0.277608 0.0186533 0 0.289532 0.0186533 0 0.301456 0.0186533 0 0.31338 0.0186533 0 0.325304 0.0186533 0 0.337228 0.0186533 0 0.349152 0.0186533 0 0.361076 0.0186533 0 0.373 0.0186533 0 0.19442 0.0193267 0 0.206325 0.0193267 0 0.218231 0.0193267 0 0.230136 0.0193267 0 0.242041 0.0193267 0 0.253947 0.0193267 0 0.265852 0.0193267 0 0.277757 0.0193267 0 0.289663 0.0193267 0 0.301568 0.0193267 0 0.313473 0.0193267 0 0.325379 0.0193267 0 0.337284 0.0193267 0 0.349189 0.0193267 0 0.361095 0.0193267 0 0.373 0.0193267 0 0.1947 0.02 0 0.206587 0.02 0 0.218473 0.02 0 0.23036 0.02 0 0.242247 0.02 0 0.254133 0.02 0 0.26602 0.02 0 0.277907 0.02 0 0.289793 0.02 0 0.30168 0.02 0 0.313567 0.02 0 0.325453 0.02 0 0.33734 0.02 0 0.349227 0.02 0 0.361113 0.02 0 0.373 0.02 0 
</DataArray>
</Points> 
</Piece> 
</StructuredGrid> 
</VTKFile> 
