<?xml version="1.0"?> 
<VTKFile type="StructuredGrid" version="0.1"> 
<StructuredGrid WholeExtent="0 15 0 15 0 0"> 
<Piece Extent="0 15 0 15 0 0"> 
<PointData>
<DataArray type="Float32" Name="|E|" format="ascii" NumberOfComponents="3"> 
2.98023e-07 1.71661e-05 0 -4.07308e-08 821.827 0 2.69501e-08 409.158 0 2.56114e-09 196.768 0 -3.21306e-08 98.9789 0 3.35276e-08 53.0026 0 -3.63216e-08 29.1036 0 3.53903e-08 16.7653 0 -3.07336e-08 9.72976 0 2.04891e-08 5.7689 0 -1.86265e-08 3.42246 0 2.23517e-08 2.03198 0 -3.35276e-08 1.18407 0 2.98023e-08 0.650615 0 7.45058e-09 0.287703 0 -2.68221e-07 4.76837e-07 0 88.451 -1.82539e-07 0 -15.8754 821.627 0 -10.6323 409.146 0 -6.65666 196.589 0 -3.62627 98.926 0 -2.18944 52.9455 0 -1.25795 29.0753 0 -0.806972 16.7446 0 -0.493292 9.71642 0 -0.32396 5.75979 0 -0.206043 3.41619 0 -0.136058 2.02771 0 -0.0900325 1.1812 0 -0.062971 0.648819 0 -0.0487767 0.286801 0 -0.045891 -9.48785e-08 0 177.337 -1.40443e-06 0 -31.8276 821.02 0 -21.2594 409.112 0 -13.3003 196.051 0 -7.24817 98.7684 0 -4.37273 52.7736 0 -2.51292 28.9909 0 -1.61173 16.6825 0 -0.984898 9.67652 0 -0.646935 5.73248 0 -0.411209 3.39741 0 -0.271568 2.01492 0 -0.179601 1.17264 0 -0.125599 0.643442 0 -0.0972442 0.284104 0 -0.0914561 1.81142e-07 0 267.094 1.33365e-06 0 -47.9329 819.982 0 -31.8766 409.069 0 -19.9175 195.147 0 -10.8617 98.5108 0 -6.54349 52.4854 0 -3.76208 28.8518 0 -2.41199 16.5787 0 -1.47317 9.61038 0 -0.967931 5.687 0 -0.614629 3.36622 0 -0.405985 1.99366 0 -0.268244 1.15841 0 -0.187546 0.634513 0 -0.145095 0.27963 0 -0.136372 -1.53668e-07 0 358.168 -8.9407e-07 0 -64.2662 818.472 0 -42.4801 409.035 0 -26.4936 193.866 0 -14.4638 98.1603 0 -8.69486 52.078 0 -5.00297 28.66 0 -3.20532 16.4327 0 -1.95657 9.51855 0 -1.28593 5.62344 0 -0.81545 3.32279 0 -0.538769 1.96401 0 -0.355502 1.13861 0 -0.248476 0.622077 0 -0.192024 0.27341 0 -0.180318 2.55182e-07 0 451.009 1.3113e-06 0 -80.9011 816.435 0 -53.0676 409.036 0 -33.0128 192.194 0 -18.0524 97.7275 0 -10.8192 51.5473 0 -6.23366 28.4188 0 -3.98903 16.2441 0 -2.43371 9.40184 0 -1.59989 5.54185 0 -1.01285 3.26738 0 -0.669387 1.9261 0 -0.440922 1.11334 0 -0.308063 0.606202 0 -0.237733 0.265491 0 -0.222978 -1.86265e-07 0 546.082 -2.98023e-07 0 -97.9085 813.795 0 -63.639 409.107 0 -39.4569 190.11 0 -21.6275 97.2264 0 -12.9076 50.8877 0 -7.45306 28.1325 0 -4.76001 16.0118 0 -2.90346 9.26135 0 -1.90865 5.44231 0 -1.20607 3.20031 0 -0.797304 1.88005 0 -0.524062 1.08275 0 -0.365991 0.586968 0 -0.281931 0.255928 0 -0.264041 7.07805e-08 0 643.866 -5.96046e-07 0 -115.356 810.463 0 -74.1969 409.291 0 -45.805 187.59 0 -25.1911 96.6748 0 -14.9498 50.0919 0 -8.66124 27.8067 0 -5.51457 15.7345 0 -3.36509 9.09852 0 -2.21092 5.32484 0 -1.39442 3.122 0 -0.921976 1.82603 0 -0.6045 1.04702 0 -0.42195 0.564475 0 -0.324336 0.244793 0 -0.303197 -7.45058e-09 0 744.857 -1.19209e-07 0 -133.309 806.329 0 -84.7472 409.641 0 -52.0326 184.601 0 -28.7487 96.0947 0 -16.9333 49.1504 0 -9.85985 27.4486 0 -6.24812 15.4102 0 -3.81842 8.91521 0 -2.50518 5.1894 0 -1.57741 3.03294 0 -1.04282 1.76424 0 -0.681849 1.00635 0 -0.47564 0.538841 0 -0.364682 0.232165 0 -0.340144 0 0 849.575 2.6226e-06 0 -151.826 801.266 0 -95.3005 410.222 0 -58.1109 181.108 0 -32.3093 95.5128 0 -18.8427 48.0513 0 -11.0527 27.0671 0 -6.95481 15.0363 0 -4.26416 8.71375 0 -2.78948 5.03587 0 -1.75475 2.93374 0 -1.15915 1.6949 0 -0.75578 0.960965 0 -0.526755 0.510211 0 -0.402721 0.218127 0 -0.374581 -6.70552e-08 0 958.563 -3.21865e-06 0 -170.962 795.126 0 -105.872 411.105 0 -64.0053 177.065 0 -35.8871 94.9609 0 -20.659 46.7797 0 -12.2464 26.673 0 -7.62699 14.6093 0 -4.70423 8.49701 0 -3.0612 4.86399 0 -1.9266 2.82507 0 -1.27016 1.61828 0 -0.82607 0.911067 0 -0.57497 0.478778 0 -0.438234 0.202747 0 -0.406223 1.3411e-07 0 1072.39 1.66893e-06 0 -190.764 787.742 0 -116.485 412.379 0 -69.6746 172.42 0 -39.5025 94.4769 0 -22.3584 45.3174 0 -13.4516 26.2798 0 -8.25445 14.1246 0 -5.14233 8.26854 0 -3.31675 4.67339 0 -2.09373 2.70764 0 -1.37469 1.53475 0 -0.892675 0.856811 0 -0.619908 0.44482 0 -0.471038 0.186042 0 -0.434836 -8.9407e-08 0 1191.66 -7.15256e-07 0 -211.272 778.925 0 -127.169 414.141 0 -75.0692 167.113 0 -43.1836 94.1054 0 -23.9109 43.6418 0 -14.6838 25.9037 0 -8.8235 13.576 0 -5.58469 8.03257 0 -3.55099 4.46356 0 -2.25789 2.58215 0 -1.47111 1.44488 0 -0.955846 0.798196 0 -0.661087 0.408789 0 -0.500995 0.167902 0 -0.460332 4.47035e-08 0 1317.01 4.76837e-07 0 -232.517 768.461 0 -137.964 416.505 0 -80.1296 161.072 0 -46.968 93.8986 0 -25.2786 41.726 0 -15.9652 25.5641 0 -9.31561 12.9561 0 -6.04109 7.79413 0 -3.75647 4.23395 0 -2.42236 2.4491 0 -1.55695 1.34958 0 -1.01633 0.734895 0 -0.697827 0.371472 0 -0.528014 0.147934 0 -0.483014 -2.38419e-07 0 1449.11 -7.15256e-07 0 -254.519 756.116 0 -148.919 419.602 0 -84.7843 154.215 0 -50.905 93.917 0 -26.4135 39.5372 0 -17.3268 25.2841 0 -9.70568 12.2555 0 -6.52634 7.55902 0 -3.92242 3.9841 0 -2.59267 2.30856 0 -1.6284 1.25044 0 -1.07565 0.665931 0 -0.729121 0.334314 0 -0.552014 0.125148 0 -0.504135 2.98023e-08 0 1588.68 1.90735e-06 0 -277.288 741.63 0 -160.099 423.573 0 -88.9478 146.451 0 -55.0581 94.2298 0 -27.255 37.037 0 -18.8106 25.0909 0 -9.95974 11.4627 0 -7.06215 7.33364 0 -4.03313 3.71395 0 -2.77777 2.15974 0 -1.67953 1.15017 0 -1.13662 0.589158 0 -0.753418 0.299941 0 -0.572807 0.0974208 0 -0.527142 9.53674e-07 0 </DataArray> 
</PointData> 
<Points> 
<DataArray type="Float32" NumberOfComponents="3"> 
0.125 0.02 0 0.129 0.02 0 0.133 0.02 0 0.137 0.02 0 0.141 0.02 0 0.145 0.02 0 0.149 0.02 0 0.153 0.02 0 0.157 0.02 0 0.161 0.02 0 0.165 0.02 0 0.169 0.02 0 0.173 0.02 0 0.177 0.02 0 0.181 0.02 0 0.185 0.02 0 0.125 0.0200667 0 0.129 0.0201067 0 0.133 0.0201467 0 0.137 0.0201867 0 0.141 0.0202267 0 0.145 0.0202667 0 0.149 0.0203067 0 0.153 0.0203467 0 0.157 0.0203867 0 0.161 0.0204267 0 0.165 0.0204667 0 0.169 0.0205067 0 0.173 0.0205467 0 0.177 0.0205867 0 0.181 0.0206267 0 0.185 0.0206667 0 0.125 0.0201333 0 0.129 0.0202133 0 0.133 0.0202933 0 0.137 0.0203733 0 0.141 0.0204533 0 0.145 0.0205333 0 0.149 0.0206133 0 0.153 0.0206933 0 0.157 0.0207733 0 0.161 0.0208533 0 0.165 0.0209333 0 0.169 0.0210133 0 0.173 0.0210933 0 0.177 0.0211733 0 0.181 0.0212533 0 0.185 0.0213333 0 0.125 0.0202 0 0.129 0.02032 0 0.133 0.02044 0 0.137 0.02056 0 0.141 0.02068 0 0.145 0.0208 0 0.149 0.02092 0 0.153 0.02104 0 0.157 0.02116 0 0.161 0.02128 0 0.165 0.0214 0 0.169 0.02152 0 0.173 0.02164 0 0.177 0.02176 0 0.181 0.02188 0 0.185 0.022 0 0.125 0.0202667 0 0.129 0.0204267 0 0.133 0.0205867 0 0.137 0.0207467 0 0.141 0.0209067 0 0.145 0.0210667 0 0.149 0.0212267 0 0.153 0.0213867 0 0.157 0.0215467 0 0.161 0.0217067 0 0.165 0.0218667 0 0.169 0.0220267 0 0.173 0.0221867 0 0.177 0.0223467 0 0.181 0.0225067 0 0.185 0.0226667 0 0.125 0.0203333 0 0.129 0.0205333 0 0.133 0.0207333 0 0.137 0.0209333 0 0.141 0.0211333 0 0.145 0.0213333 0 0.149 0.0215333 0 0.153 0.0217333 0 0.157 0.0219333 0 0.161 0.0221333 0 0.165 0.0223333 0 0.169 0.0225333 0 0.173 0.0227333 0 0.177 0.0229333 0 0.181 0.0231333 0 0.185 0.0233333 0 0.125 0.0204 0 0.129 0.02064 0 0.133 0.02088 0 0.137 0.02112 0 0.141 0.02136 0 0.145 0.0216 0 0.149 0.02184 0 0.153 0.02208 0 0.157 0.02232 0 0.161 0.02256 0 0.165 0.0228 0 0.169 0.02304 0 0.173 0.02328 0 0.177 0.02352 0 0.181 0.02376 0 0.185 0.024 0 0.125 0.0204667 0 0.129 0.0207467 0 0.133 0.0210267 0 0.137 0.0213067 0 0.141 0.0215867 0 0.145 0.0218667 0 0.149 0.0221467 0 0.153 0.0224267 0 0.157 0.0227067 0 0.161 0.0229867 0 0.165 0.0232667 0 0.169 0.0235467 0 0.173 0.0238267 0 0.177 0.0241067 0 0.181 0.0243867 0 0.185 0.0246667 0 0.125 0.0205333 0 0.129 0.0208533 0 0.133 0.0211733 0 0.137 0.0214933 0 0.141 0.0218133 0 0.145 0.0221333 0 0.149 0.0224533 0 0.153 0.0227733 0 0.157 0.0230933 0 0.161 0.0234133 0 0.165 0.0237333 0 0.169 0.0240533 0 0.173 0.0243733 0 0.177 0.0246933 0 0.181 0.0250133 0 0.185 0.0253333 0 0.125 0.0206 0 0.129 0.02096 0 0.133 0.02132 0 0.137 0.02168 0 0.141 0.02204 0 0.145 0.0224 0 0.149 0.02276 0 0.153 0.02312 0 0.157 0.02348 0 0.161 0.02384 0 0.165 0.0242 0 0.169 0.02456 0 0.173 0.02492 0 0.177 0.02528 0 0.181 0.02564 0 0.185 0.026 0 0.125 0.0206667 0 0.129 0.0210667 0 0.133 0.0214667 0 0.137 0.0218667 0 0.141 0.0222667 0 0.145 0.0226667 0 0.149 0.0230667 0 0.153 0.0234667 0 0.157 0.0238667 0 0.161 0.0242667 0 0.165 0.0246667 0 0.169 0.0250667 0 0.173 0.0254667 0 0.177 0.0258667 0 0.181 0.0262667 0 0.185 0.0266667 0 0.125 0.0207333 0 0.129 0.0211733 0 0.133 0.0216133 0 0.137 0.0220533 0 0.141 0.0224933 0 0.145 0.0229333 0 0.149 0.0233733 0 0.153 0.0238133 0 0.157 0.0242533 0 0.161 0.0246933 0 0.165 0.0251333 0 0.169 0.0255733 0 0.173 0.0260133 0 0.177 0.0264533 0 0.181 0.0268933 0 0.185 0.0273333 0 0.125 0.0208 0 0.129 0.02128 0 0.133 0.02176 0 0.137 0.02224 0 0.141 0.02272 0 0.145 0.0232 0 0.149 0.02368 0 0.153 0.02416 0 0.157 0.02464 0 0.161 0.02512 0 0.165 0.0256 0 0.169 0.02608 0 0.173 0.02656 0 0.177 0.02704 0 0.181 0.02752 0 0.185 0.028 0 0.125 0.0208667 0 0.129 0.0213867 0 0.133 0.0219067 0 0.137 0.0224267 0 0.141 0.0229467 0 0.145 0.0234667 0 0.149 0.0239867 0 0.153 0.0245067 0 0.157 0.0250267 0 0.161 0.0255467 0 0.165 0.0260667 0 0.169 0.0265867 0 0.173 0.0271067 0 0.177 0.0276267 0 0.181 0.0281467 0 0.185 0.0286667 0 0.125 0.0209333 0 0.129 0.0214933 0 0.133 0.0220533 0 0.137 0.0226133 0 0.141 0.0231733 0 0.145 0.0237333 0 0.149 0.0242933 0 0.153 0.0248533 0 0.157 0.0254133 0 0.161 0.0259733 0 0.165 0.0265333 0 0.169 0.0270933 0 0.173 0.0276533 0 0.177 0.0282133 0 0.181 0.0287733 0 0.185 0.0293333 0 0.125 0.021 0 0.129 0.0216 0 0.133 0.0222 0 0.137 0.0228 0 0.141 0.0234 0 0.145 0.024 0 0.149 0.0246 0 0.153 0.0252 0 0.157 0.0258 0 0.161 0.0264 0 0.165 0.027 0 0.169 0.0276 0 0.173 0.0282 0 0.177 0.0288 0 0.181 0.0294 0 0.185 0.03 0 
</DataArray>
</Points> 
</Piece> 
</StructuredGrid> 
</VTKFile> 
