<?xml version="1.0"?> 
<VTKFile type="StructuredGrid" version="0.1"> 
<StructuredGrid WholeExtent="0 15 0 15 0 0"> 
<Piece Extent="0 15 0 15 0 0"> 
<PointData>
<DataArray type="Float32" Name="|E|" format="ascii" NumberOfComponents="3"> 
368172 5.45595e+06 0 744410 5.75111e+06 0 1.13992e+06 5.89978e+06 0 1.54506e+06 5.9591e+06 0 1.95196e+06 5.94805e+06 0 2.35324e+06 5.87553e+06 0 2.74196e+06 5.74757e+06 0 3.11174e+06 5.56948e+06 0 3.45696e+06 5.34681e+06 0 3.77303e+06 5.08554e+06 0 4.05653e+06 4.7921e+06 0 4.30526e+06 4.47313e+06 0 4.51819e+06 4.13517e+06 0 4.69529e+06 3.78445e+06 0 4.8374e+06 3.42668e+06 0 4.946e+06 3.06693e+06 0 908182 4.8669e+06 0 1.17649e+06 4.9306e+06 0 1.49025e+06 4.91906e+06 0 1.8111e+06 4.82025e+06 0 2.10691e+06 4.64596e+06 0 2.35882e+06 4.41634e+06 0 2.55882e+06 4.15251e+06 0 2.70676e+06 3.87309e+06 0 2.8074e+06 3.59264e+06 0 2.868e+06 3.32144e+06 0 2.89663e+06 3.06602e+06 0 2.90106e+06 2.82988e+06 0 2.88815e+06 2.61432e+06 0 2.86361e+06 2.41915e+06 0 2.832e+06 2.24327e+06 0 2.79678e+06 2.08515e+06 0 991358 4.4868e+06 0 1.23626e+06 4.46153e+06 0 1.50172e+06 4.35932e+06 0 1.74969e+06 4.17975e+06 0 1.95236e+06 3.94181e+06 0 2.09772e+06 3.67162e+06 0 2.18679e+06 3.39295e+06 0 2.2281e+06 3.12303e+06 0 2.23298e+06 2.87213e+06 0 2.2125e+06 2.64496e+06 0 2.17597e+06 2.44243e+06 0 2.13048e+06 2.2633e+06 0 2.08109e+06 2.10531e+06 0 2.03117e+06 1.9659e+06 0 1.98288e+06 1.84263e+06 0 1.9375e+06 1.73335e+06 0 968786 4.22214e+06 0 1.19093e+06 4.14147e+06 0 1.41394e+06 3.98722e+06 0 1.60463e+06 3.7667e+06 0 1.74159e+06 3.50421e+06 0 1.82056e+06 3.22723e+06 0 1.84919e+06 2.95717e+06 0 1.84006e+06 2.70677e+06 0 1.80577e+06 2.48153e+06 0 1.75663e+06 2.28222e+06 0 1.70017e+06 2.10722e+06 0 1.64148e+06 1.95392e+06 0 1.58383e+06 1.81962e+06 0 1.52926e+06 1.70177e+06 0 1.47898e+06 1.59812e+06 0 1.43361e+06 1.50671e+06 0 910023 4.02861e+06 0 1.1075e+06 3.90986e+06 0 1.29473e+06 3.72202e+06 0 1.44149e+06 3.47821e+06 0 1.53249e+06 3.20525e+06 0 1.56934e+06 2.92952e+06 0 1.56338e+06 2.669e+06 0 1.52832e+06 2.43261e+06 0 1.47611e+06 2.22278e+06 0 1.41562e+06 2.03844e+06 0 1.35286e+06 1.87702e+06 0 1.29164e+06 1.73551e+06 0 1.23417e+06 1.61098e+06 0 1.1816e+06 1.50075e+06 0 1.1343e+06 1.4025e+06 0 1.09217e+06 1.31432e+06 0 834215 3.88215e+06 0 1.00975e+06 3.73482e+06 0 1.16695e+06 3.52314e+06 0 1.27968e+06 3.26413e+06 0 1.33779e+06 2.98546e+06 0 1.34692e+06 2.71158e+06 0 1.32021e+06 2.45743e+06 0 1.27129e+06 2.22919e+06 0 1.21104e+06 2.02753e+06 0 1.14702e+06 1.85042e+06 0 1.08396e+06 1.69485e+06 0 1.02454e+06 1.55774e+06 0 970026 1.43635e+06 0 920852 1.3285e+06 0 877031 1.23254e+06 0 838419 1.14725e+06 0 751797 3.76869e+06 0 906974 3.5984e+06 0 1.03882e+06 3.36812e+06 0 1.12473e+06 3.09747e+06 0 1.15872e+06 2.81411e+06 0 1.14915e+06 2.54052e+06 0 1.1099e+06 2.28925e+06 0 1.05404e+06 2.06464e+06 0 991278 1.8663e+06 0 927904 1.69174e+06 0 867523 1.53789e+06 0 811935 1.40189e+06 0 761878 1.28129e+06 0 717514 1.17404e+06 0 678665 1.07827e+06 0 644902 992188 0 666626 3.67938e+06 0 803206 3.48959e+06 0 913288 3.24346e+06 0 977676 2.96245e+06 0 993715 2.67387e+06 0 971559 2.39851e+06 0 925249 2.14714e+06 0 866969 1.92293e+06 0 805230 1.72487e+06 0 745149 1.55034e+06 0 689421 1.39636e+06 0 639236 1.26018e+06 0 594909 1.13936e+06 0 556237 1.03179e+06 0 522739 935754 0 493912 850032 0 580911 3.6085e+06 0 700085 3.40126e+06 0 791162 3.14055e+06 0 838039 2.84922e+06 0 840743 2.55423e+06 0 810554 2.27509e+06 0 761211 2.02134e+06 0 703838 1.7954e+06 0 645712 1.59597e+06 0 590897 1.42036e+06 0 541310 1.26558e+06 0 497585 1.12884e+06 0 459629 1.00765e+06 0 427022 899954 0 399265 803990 0 375843 718089 0 495575 3.55218e+06 0 598184 3.32862e+06 0 672374 3.05362e+06 0 704925 2.75129e+06 0 698003 2.44846e+06 0 663462 2.16378e+06 0 614352 1.90604e+06 0 560548 1.67719e+06 0 508077 1.47571e+06 0 460008 1.29877e+06 0 417545 1.14323e+06 0 380844 1.00618e+06 0 349569 885031 0 323213 777539 0 301201 681746 0 282984 596031 0 411053 3.50778e+06 0 497532 3.26833e+06 0 556488 2.97864e+06 0 577394 2.66418e+06 0 564067 2.35201e+06 0 528389 2.06041e+06 0 482324 1.79771e+06 0 434305 1.56552e+06 0 389078 1.36201e+06 0 348767 1.18405e+06 0 313963 1.02825e+06 0 284496 891432 0 259892 770749 0 239580 663735 0 223023 568302 0 209777 482648 0 327453 3.47342e+06 0 397884 3.218e+06 0 442926 2.91266e+06 0 454611 2.58463e+06 0 437878 2.26169e+06 0 404029 1.9622e+06 0 363498 1.69419e+06 0 323086 1.45883e+06 0 286251 1.25381e+06 0 254273 1.07551e+06 0 227285 920121 0 204920 784074 0 186649 664227 0 171950 557882 0 160378 462737 0 151563 376799 0 244724 3.44783e+06 0 298838 3.17586e+06 0 331078 2.85344e+06 0 335898 2.51016e+06 0 318712 2.17521e+06 0 289504 1.86733e+06 0 256700 1.59421e+06 0 225314 1.35634e+06 0 197586 1.15064e+06 0 174122 972823 0 154765 818508 0 139079 683698 0 126590 564920 0 116880 459196 0 109614 363982 0 104551 277104 0 162713 3.43012e+06 0 199897 3.1406e+06 0 220343 2.7992e+06 0 220747 2.43884e+06 0 206125 2.0909e+06 0 184235 1.77463e+06 0 161021 1.4971e+06 0 139660 1.2577e+06 0 121343 1.05232e+06 0 106225 875810 0 94036.2 723151 0 84400.8 589892 0 76969.7 472202 0 71461.1 366811 0 67674.7 270923 0 65481 182103 0 81214.6 3.41971e+06 0 100496 3.11118e+06 0 110155 2.74842e+06 0 108830 2.36909e+06 0 99901 2.00756e+06 0 87830.2 1.68343e+06 0 75691.6 1.40258e+06 0 64927.6 1.16286e+06 0 55958.3 958812 0 48732.9 784336 0 43045.2 633765 0 38676.5 502179 0 35444.3 385390 0 33218.2 279820 0 31915.4 182361 0 31496.9 90252.9 0 0 3.41627e+06 0 0 3.08683e+06 0 0 2.6998e+06 0 0 2.29962e+06 0 0 1.92436e+06 0 0 1.5934e+06 0 0 1.31066e+06 0 0 1.07188e+06 0 0 870124 0 0 698285 0 0 550064 0 0 420097 0 0 303836 0 0 197354 0 0 97168.7 0 0 63.3651 0 </DataArray> 
</PointData> 
<Points> 
<DataArray type="Float32" NumberOfComponents="3"> 
0.188003 0.0600498 0 0.188986 0.0599532 0 0.189973 0.059794 0 0.19096 0.0595711 0 0.191939 0.0592838 0 0.192905 0.0589322 0 0.193851 0.0585175 0 0.194772 0.0580413 0 0.195661 0.0575063 0 0.196513 0.0569157 0 0.197323 0.0562736 0 0.198086 0.0555845 0 0.198799 0.0548536 0 0.199458 0.0540861 0 0.200062 0.0532879 0 0.200608 0.0524645 0 0.188003 0.0635132 0 0.189752 0.063468 0 0.191523 0.0633592 0 0.193306 0.0631853 0 0.195092 0.0629455 0 0.19687 0.0626395 0 0.19863 0.0622681 0 0.200362 0.0618326 0 0.202055 0.0613352 0 0.2037 0.0607787 0 0.205288 0.0601666 0 0.206809 0.0595032 0 0.208257 0.058793 0 0.209625 0.0580411 0 0.210908 0.0572527 0 0.212101 0.0564336 0 0.188003 0.0669765 0 0.190517 0.0669762 0 0.193067 0.0669119 0 0.195641 0.066782 0 0.198226 0.0665853 0 0.200809 0.0663216 0 0.203374 0.0659911 0 0.20591 0.0655949 0 0.208401 0.0651347 0 0.210834 0.0646131 0 0.213198 0.0640331 0 0.21548 0.0633985 0 0.217669 0.0627133 0 0.219756 0.0619823 0 0.221733 0.0612103 0 0.223593 0.0604026 0 0.188002 0.0704399 0 0.19128 0.070478 0 0.194606 0.0704524 0 0.197965 0.0703613 0 0.201342 0.0702035 0 0.20472 0.0699786 0 0.208083 0.0696866 0 0.211414 0.0693283 0 0.214697 0.0689052 0 0.217916 0.0684193 0 0.221055 0.0678734 0 0.224099 0.0672705 0 0.227036 0.0666146 0 0.229852 0.0659098 0 0.232539 0.0651605 0 0.235086 0.0643716 0 0.188002 0.0739032 0 0.192042 0.0739733 0 0.19614 0.0739806 0 0.200278 0.0739233 0 0.204439 0.0738002 0 0.208605 0.0736108 0 0.212758 0.073355 0 0.216877 0.0730333 0 0.220946 0.072647 0 0.224946 0.0721976 0 0.228858 0.0716876 0 0.232667 0.0711197 0 0.236357 0.0704971 0 0.239914 0.0698237 0 0.243325 0.0691035 0 0.246579 0.0683407 0 0.188002 0.0773666 0 0.192803 0.0774622 0 0.197668 0.0774966 0 0.20258 0.0774681 0 0.207518 0.0773757 0 0.212464 0.0772185 0 0.217398 0.0769966 0 0.222299 0.0767102 0 0.227148 0.0763603 0 0.231924 0.0759483 0 0.236609 0.075476 0 0.241185 0.074946 0 0.245634 0.074361 0 0.24994 0.0737242 0 0.254091 0.0730391 0 0.258072 0.0723097 0 0.188002 0.0808299 0 0.193562 0.0809446 0 0.199191 0.0810005 0 0.20487 0.080996 0 0.210579 0.08093 0 0.216297 0.080802 0 0.222004 0.0806117 0 0.22768 0.0803593 0 0.233302 0.0800456 0 0.238851 0.0796716 0 0.244308 0.079239 0 0.249652 0.0787497 0 0.254866 0.0782062 0 0.259932 0.0776111 0 0.264837 0.0769675 0 0.269565 0.0762787 0 0.188002 0.0842933 0 0.19432 0.0844206 0 0.200709 0.0844923 0 0.20715 0.0845069 0 0.213621 0.0844635 0 0.220104 0.0843614 0 0.226577 0.0842005 0 0.233019 0.0839809 0 0.23941 0.083703 0 0.245729 0.0833679 0 0.251955 0.0829767 0 0.258069 0.0825311 0 0.264053 0.0820331 0 0.26989 0.0814847 0 0.275563 0.0808887 0 0.281058 0.0802478 0 0.188001 0.0877566 0 0.195077 0.0878903 0 0.202222 0.0879721 0 0.209418 0.088001 0 0.216646 0.0879762 0 0.223886 0.087897 0 0.231117 0.0877634 0 0.238319 0.0875753 0 0.245472 0.0873331 0 0.252556 0.0870375 0 0.259551 0.0866895 0 0.266437 0.0862904 0 0.273197 0.0858416 0 0.279813 0.085345 0 0.286269 0.0848027 0 0.29255 0.0842168 0 0.188001 0.0912199 0 0.195832 0.0913535 0 0.203729 0.09144 0 0.211676 0.0914785 0 0.219653 0.0914683 0 0.227642 0.0914091 0 0.235624 0.0913006 0 0.24358 0.0911428 0 0.251489 0.090936 0 0.259334 0.0906807 0 0.267096 0.0903775 0 0.274756 0.0900276 0 0.282297 0.089632 0 0.289703 0.0891921 0 0.296956 0.0887094 0 0.304043 0.0881858 0 0.188001 0.0946833 0 0.196586 0.0948104 0 0.205232 0.094896 0 0.213923 0.0949394 0 0.222643 0.0949402 0 0.231374 0.0948979 0 0.240099 0.0948124 0 0.248801 0.0946837 0 0.257461 0.094512 0 0.266064 0.0942976 0 0.274591 0.0940411 0 0.283027 0.093743 0 0.291354 0.0934043 0 0.299558 0.0930259 0 0.307623 0.092609 0 0.315536 0.0921548 0 0.188001 0.0981466 0 0.197338 0.0982609 0 0.206729 0.0983402 0 0.21616 0.0983839 0 0.225615 0.0983918 0 0.235081 0.0983636 0 0.244542 0.0982991 0 0.253983 0.0981984 0 0.263389 0.0980615 0 0.272745 0.0978888 0 0.282037 0.0976804 0 0.291249 0.0974369 0 0.300368 0.0971588 0 0.30938 0.0968467 0 0.318271 0.0965015 0 0.327029 0.0961239 0 0.188001 0.10161 0 0.198089 0.101705 0 0.208221 0.101773 0 0.218385 0.101812 0 0.22857 0.101823 0 0.238763 0.101806 0 0.248953 0.101761 0 0.259127 0.101687 0 0.269273 0.101585 0 0.279379 0.101454 0 0.289433 0.101296 0 0.299424 0.101109 0 0.309339 0.100895 0 0.319168 0.100654 0 0.328899 0.100387 0 0.338522 0.100093 0 0.188 0.105073 0 0.198838 0.105143 0 0.209708 0.105193 0 0.220601 0.105224 0 0.231508 0.105235 0 0.242422 0.105227 0 0.253333 0.105198 0 0.264233 0.10515 0 0.275114 0.105082 0 0.285966 0.104994 0 0.296781 0.104887 0 0.307552 0.104761 0 0.318268 0.104614 0 0.328923 0.104449 0 0.339508 0.104265 0 0.350014 0.104062 0 0.188 0.108537 0 0.199587 0.108575 0 0.21119 0.108602 0 0.222805 0.10862 0 0.234429 0.108627 0 0.246056 0.108624 0 0.257682 0.108611 0 0.269302 0.108588 0 0.280911 0.108554 0 0.292506 0.10851 0 0.304081 0.108455 0 0.315632 0.108391 0 0.327155 0.108316 0 0.338645 0.108231 0 0.350097 0.108136 0 0.361507 0.108031 0 0.188 0.112 0 0.200333 0.112 0 0.212667 0.112 0 0.225 0.112 0 0.237333 0.112 0 0.249667 0.112 0 0.262 0.112 0 0.274333 0.112 0 0.286667 0.112 0 0.299 0.112 0 0.311333 0.112 0 0.323667 0.112 0 0.336 0.112 0 0.348333 0.112 0 0.360667 0.112 0 0.373 0.112 0 
</DataArray>
</Points> 
</Piece> 
</StructuredGrid> 
</VTKFile> 
