<?xml version="1.0"?> 
<VTKFile type="StructuredGrid" version="0.1"> 
<StructuredGrid WholeExtent="0 15 0 15 0 0"> 
<Piece Extent="0 15 0 15 0 0"> 
<PointData>
<DataArray type="Float32" Name="|E|" format="ascii" NumberOfComponents="3"> 
1.66176e+06 -662837 0 1.92214e+06 -286959 0 1.93447e+06 35344.5 0 1.78318e+06 213549 0 1.58567e+06 281335 0 1.38969e+06 289393 0 1.21166e+06 269565 0 1.05613e+06 238400 0 923719 203815 0 813351 169477 0 723482 136845 0 652467 106334 0 598847 77824.2 0 561424 50939.5 0 539324 25182.6 0 532019 0 0 1.70953e+06 -681891 0 1.9659e+06 -285620 0 1.95648e+06 55019.9 0 1.78838e+06 236367 0 1.58272e+06 302611 0 1.38357e+06 307999 0 1.20481e+06 285595 0 1.04958e+06 252010 0 917886 215219 0 808307 178867 0 719176 144394 0 648783 112192 0 595650 82110.5 0 558573 53746 0 536679 26570.6 0 529442 0 0 1.75869e+06 -701500 0 2.0117e+06 -281360 0 1.97867e+06 77248.8 0 1.79314e+06 260404 0 1.57933e+06 324380 0 1.37712e+06 326733 0 1.19768e+06 301612 0 1.0428e+06 265544 0 911840 226536 0 803071 188172 0 714691 151871 0 644932 117991 0 592296 86354 0 555571 56524.5 0 533888 27944.7 0 526720 0 0 1.80968e+06 -721839 0 2.0597e+06 -273886 0 2.00082e+06 102115 0 1.79733e+06 285642 0 1.57547e+06 346621 0 1.37032e+06 345581 0 1.19027e+06 317611 0 1.03578e+06 278999 0 905581 237762 0 797641 197390 0 710029 159274 0 640917 123732 0 588786 90553.8 0 552420 59274.3 0 530951 29304.6 0 523854 0 0 1.86305e+06 -743125 0 2.11001e+06 -262816 0 2.02272e+06 129680 0 1.80085e+06 312058 0 1.57108e+06 369302 0 1.36313e+06 364527 0 1.18256e+06 333584 0 1.02852e+06 292370 0 899106 248894 0 792019 206519 0 705190 166601 0 636737 129411 0 585121 94708.9 0 549120 61994.8 0 527869 30650.1 0 520845 0 0 1.91947e+06 -765631 0 2.16272e+06 -247677 0 2.0441e+06 159977 0 1.80359e+06 339628 0 1.56611e+06 392387 0 1.35556e+06 383557 0 1.17454e+06 349520 0 1.02101e+06 305651 0 892416 259931 0 786205 215556 0 700175 173851 0 632393 135030 0 581301 98818.5 0 545673 64685.5 0 524643 31980.7 0 517692 0 0 1.97983e+06 -789706 0 2.21787e+06 -227899 0 2.06468e+06 193000 0 1.80545e+06 368327 0 1.56052e+06 415827 0 1.34758e+06 402659 0 1.1662e+06 365408 0 1.01326e+06 318838 0 885508 270868 0 780201 224501 0 694984 181022 0 627887 140585 0 577327 102882 0 542078 67345.7 0 521274 33296.2 0 514398 0 0 2.0453e+06 -815822 0 2.27544e+06 -202808 0 2.08412e+06 228695 0 1.80632e+06 398131 0 1.55427e+06 439563 0 1.33917e+06 421822 0 1.15755e+06 381233 0 1.00525e+06 331928 0 878383 281700 0 774006 233349 0 689618 188112 0 623219 146076 0 573201 106897 0 538337 69974.9 0 517762 34596.4 0 510963 0 0 2.1175e+06 -844622 0 2.33528e+06 -171640 0 2.10209e+06 266957 0 1.8061e+06 429020 0 1.54732e+06 463524 0 1.33032e+06 441042 0 1.14857e+06 396979 0 996995 344917 0 871040 292425 0 767621 242100 0 684077 195120 0 618390 151502 0 568923 110865 0 534451 72572.4 0 514109 35880.8 0 507386 0 0 2.19871e+06 -877012 0 2.39707e+06 -133559 0 2.11823e+06 307633 0 1.80471e+06 460972 0 1.53965e+06 487627 0 1.32102e+06 460316 0 1.13926e+06 412622 0 988484 357805 0 863480 303035 0 761048 250752 0 678364 202043 0 613402 156861 0 564493 114783 0 530420 75137.7 0 510315 37149.4 0 503671 0 0 2.29217e+06 -914294 0 2.46027e+06 -87713.3 0 2.13218e+06 350548 0 1.80204e+06 493945 0 1.53123e+06 511786 0 1.31123e+06 479647 0 1.12962e+06 428140 0 979714 370591 0 855705 313524 0 754285 259304 0 672479 208880 0 608256 162152 0 559914 118651 0 526246 77670 0 506380 38401.7 0 499816 0 0 2.40268e+06 -958373 0 2.52397e+06 -33341.5 0 2.1436e+06 395561 0 1.79802e+06 527848 0 1.52207e+06 535935 0 1.30095e+06 499028 0 1.11966e+06 443509 0 970678 383275 0 847718 323885 0 747332 267754 0 666424 215628 0 602951 167375 0 555186 122469 0 521929 80168.8 0 502307 39637.6 0 495823 0 0 2.53729e+06 -1.01206e+06 0 2.58676e+06 30034.4 0 2.15221e+06 442686 0 1.79254e+06 562459 0 1.51216e+06 560061 0 1.29014e+06 518423 0 1.10939e+06 458718 0 961369 395852 0 839525 334114 0 740187 276100 0 660202 222285 0 597489 172527 0 550312 126235 0 517470 82633.3 0 498096 40857.1 0 491694 0 0 2.70655e+06 -1.07958e+06 0 2.64649e+06 102276 0 2.15784e+06 492324 0 1.78553e+06 597286 0 1.5015e+06 584299 0 1.2788e+06 537723 0 1.09881e+06 473793 0 951781 408300 0 831129 344212 0 732850 284339 0 653816 228850 0 591869 177608 0 545291 129948 0 512871 85062.9 0 493748 42059.6 0 487430 0 0 2.92636e+06 -1.16726e+06 0 2.69997e+06 182052 0 2.16045e+06 545675 0 1.77694e+06 631297 0 1.49008e+06 609084 0 1.26692e+06 556657 0 1.08791e+06 488839 0 941917 420559 0 822531 354197 0 725322 292458 0 647267 235324 0 586094 182615 0 540127 133607 0 508131 87457.7 0 489264 43244.6 0 483030 0 0 3.22081e+06 -1.2847e+06 0 2.74253e+06 266016 0 2.16024e+06 605394 0 1.76676e+06 662492 0 1.47778e+06 635427 0 1.25458e+06 574636 0 1.07664e+06 504126 0 931814 432489 0 813712 364124 0 717616 300433 0 640549 241713 0 580168 187547 0 534817 137210 0 503254 89818.7 0 484645 44409.9 0 478497 0 0 </DataArray> 
</PointData> 
<Points> 
<DataArray type="Float32" NumberOfComponents="3"> 
0.1947 0.02 0 0.206587 0.02 0 0.218473 0.02 0 0.23036 0.02 0 0.242247 0.02 0 0.254133 0.02 0 0.26602 0.02 0 0.277907 0.02 0 0.289793 0.02 0 0.30168 0.02 0 0.313567 0.02 0 0.325453 0.02 0 0.33734 0.02 0 0.349227 0.02 0 0.361113 0.02 0 0.373 0.02 0 0.195173 0.0211867 0 0.207028 0.0211867 0 0.218884 0.0211867 0 0.230739 0.0211867 0 0.242594 0.0211867 0 0.254449 0.0211867 0 0.266304 0.0211867 0 0.278159 0.0211867 0 0.290014 0.0211867 0 0.301869 0.0211867 0 0.313724 0.0211867 0 0.32558 0.0211867 0 0.337435 0.0211867 0 0.34929 0.0211867 0 0.361145 0.0211867 0 0.373 0.0211867 0 0.195647 0.0223733 0 0.20747 0.0223733 0 0.219294 0.0223733 0 0.231117 0.0223733 0 0.242941 0.0223733 0 0.254764 0.0223733 0 0.266588 0.0223733 0 0.278412 0.0223733 0 0.290235 0.0223733 0 0.302059 0.0223733 0 0.313882 0.0223733 0 0.325706 0.0223733 0 0.337529 0.0223733 0 0.349353 0.0223733 0 0.361176 0.0223733 0 0.373 0.0223733 0 0.19612 0.02356 0 0.207912 0.02356 0 0.219704 0.02356 0 0.231496 0.02356 0 0.243288 0.02356 0 0.25508 0.02356 0 0.266872 0.02356 0 0.278664 0.02356 0 0.290456 0.02356 0 0.302248 0.02356 0 0.31404 0.02356 0 0.325832 0.02356 0 0.337624 0.02356 0 0.349416 0.02356 0 0.361208 0.02356 0 0.373 0.02356 0 0.196593 0.0247467 0 0.208354 0.0247467 0 0.220114 0.0247467 0 0.231875 0.0247467 0 0.243635 0.0247467 0 0.255396 0.0247467 0 0.267156 0.0247467 0 0.278916 0.0247467 0 0.290677 0.0247467 0 0.302437 0.0247467 0 0.314198 0.0247467 0 0.325958 0.0247467 0 0.337719 0.0247467 0 0.349479 0.0247467 0 0.36124 0.0247467 0 0.373 0.0247467 0 0.197067 0.0259333 0 0.208796 0.0259333 0 0.220524 0.0259333 0 0.232253 0.0259333 0 0.243982 0.0259333 0 0.255711 0.0259333 0 0.26744 0.0259333 0 0.279169 0.0259333 0 0.290898 0.0259333 0 0.302627 0.0259333 0 0.314356 0.0259333 0 0.326084 0.0259333 0 0.337813 0.0259333 0 0.349542 0.0259333 0 0.361271 0.0259333 0 0.373 0.0259333 0 0.19754 0.02712 0 0.209237 0.02712 0 0.220935 0.02712 0 0.232632 0.02712 0 0.244329 0.02712 0 0.256027 0.02712 0 0.267724 0.02712 0 0.279421 0.02712 0 0.291119 0.02712 0 0.302816 0.02712 0 0.314513 0.02712 0 0.326211 0.02712 0 0.337908 0.02712 0 0.349605 0.02712 0 0.361303 0.02712 0 0.373 0.02712 0 0.198013 0.0283067 0 0.209679 0.0283067 0 0.221345 0.0283067 0 0.233011 0.0283067 0 0.244676 0.0283067 0 0.256342 0.0283067 0 0.268008 0.0283067 0 0.279674 0.0283067 0 0.29134 0.0283067 0 0.303005 0.0283067 0 0.314671 0.0283067 0 0.326337 0.0283067 0 0.338003 0.0283067 0 0.349668 0.0283067 0 0.361334 0.0283067 0 0.373 0.0283067 0 0.198487 0.0294933 0 0.210121 0.0294933 0 0.221755 0.0294933 0 0.233389 0.0294933 0 0.245024 0.0294933 0 0.256658 0.0294933 0 0.268292 0.0294933 0 0.279926 0.0294933 0 0.29156 0.0294933 0 0.303195 0.0294933 0 0.314829 0.0294933 0 0.326463 0.0294933 0 0.338097 0.0294933 0 0.349732 0.0294933 0 0.361366 0.0294933 0 0.373 0.0294933 0 0.19896 0.03068 0 0.210563 0.03068 0 0.222165 0.03068 0 0.233768 0.03068 0 0.245371 0.03068 0 0.256973 0.03068 0 0.268576 0.03068 0 0.280179 0.03068 0 0.291781 0.03068 0 0.303384 0.03068 0 0.314987 0.03068 0 0.326589 0.03068 0 0.338192 0.03068 0 0.349795 0.03068 0 0.361397 0.03068 0 0.373 0.03068 0 0.199433 0.0318667 0 0.211004 0.0318667 0 0.222576 0.0318667 0 0.234147 0.0318667 0 0.245718 0.0318667 0 0.257289 0.0318667 0 0.26886 0.0318667 0 0.280431 0.0318667 0 0.292002 0.0318667 0 0.303573 0.0318667 0 0.315144 0.0318667 0 0.326716 0.0318667 0 0.338287 0.0318667 0 0.349858 0.0318667 0 0.361429 0.0318667 0 0.373 0.0318667 0 0.199907 0.0330533 0 0.211446 0.0330533 0 0.222986 0.0330533 0 0.234525 0.0330533 0 0.246065 0.0330533 0 0.257604 0.0330533 0 0.269144 0.0330533 0 0.280684 0.0330533 0 0.292223 0.0330533 0 0.303763 0.0330533 0 0.315302 0.0330533 0 0.326842 0.0330533 0 0.338381 0.0330533 0 0.349921 0.0330533 0 0.36146 0.0330533 0 0.373 0.0330533 0 0.20038 0.03424 0 0.211888 0.03424 0 0.223396 0.03424 0 0.234904 0.03424 0 0.246412 0.03424 0 0.25792 0.03424 0 0.269428 0.03424 0 0.280936 0.03424 0 0.292444 0.03424 0 0.303952 0.03424 0 0.31546 0.03424 0 0.326968 0.03424 0 0.338476 0.03424 0 0.349984 0.03424 0 0.361492 0.03424 0 0.373 0.03424 0 0.200853 0.0354267 0 0.21233 0.0354267 0 0.223806 0.0354267 0 0.235283 0.0354267 0 0.246759 0.0354267 0 0.258236 0.0354267 0 0.269712 0.0354267 0 0.281188 0.0354267 0 0.292665 0.0354267 0 0.304141 0.0354267 0 0.315618 0.0354267 0 0.327094 0.0354267 0 0.338571 0.0354267 0 0.350047 0.0354267 0 0.361524 0.0354267 0 0.373 0.0354267 0 0.201327 0.0366133 0 0.212772 0.0366133 0 0.224216 0.0366133 0 0.235661 0.0366133 0 0.247106 0.0366133 0 0.258551 0.0366133 0 0.269996 0.0366133 0 0.281441 0.0366133 0 0.292886 0.0366133 0 0.304331 0.0366133 0 0.315776 0.0366133 0 0.32722 0.0366133 0 0.338665 0.0366133 0 0.35011 0.0366133 0 0.361555 0.0366133 0 0.373 0.0366133 0 0.2018 0.0378 0 0.213213 0.0378 0 0.224627 0.0378 0 0.23604 0.0378 0 0.247453 0.0378 0 0.258867 0.0378 0 0.27028 0.0378 0 0.281693 0.0378 0 0.293107 0.0378 0 0.30452 0.0378 0 0.315933 0.0378 0 0.327347 0.0378 0 0.33876 0.0378 0 0.350173 0.0378 0 0.361587 0.0378 0 0.373 0.0378 0 
</DataArray>
</Points> 
</Piece> 
</StructuredGrid> 
</VTKFile> 
