<?xml version="1.0"?> 
<VTKFile type="StructuredGrid" version="0.1"> 
<StructuredGrid WholeExtent="0 15 0 15 0 0"> 
<Piece Extent="0 15 0 15 0 0"> 
<PointData>
<DataArray type="Float32" Name="|E|" format="ascii" NumberOfComponents="3"> 
-516393 -1.93643 0 -557275 -1.95357 0 -603524 -1.86907 0 -655391 -1.65574 0 -713111 -1.28263 0 -776879 -0.720478 0 -846831 0.0505573 0 -923016 1.05205 0 -1.00537e+06 2.24338 0 -1.09368e+06 3.65536 0 -1.18756e+06 5.05908 0 -1.28644e+06 6.66551 0 -1.38956e+06 7.71014 0 -1.49597e+06 9.22992 0 -1.60456e+06 9.05254 0 -1.71411e+06 8.721 0 -513840 38247.4 0 -554592 43482.6 0 -600714 48977 0 -652462 54720.6 0 -710081 60686.5 0 -773779 66827 0 -843704 73069.3 0 -919921 79312.6 0 -1.00238e+06 85426.4 0 -1.09087e+06 91251.4 0 -1.18504e+06 96604.4 0 -1.28431e+06 101289 0 -1.38791e+06 105108 0 -1.49487e+06 107884 0 -1.60408e+06 109477 0 -1.71427e+06 109804 0 -506185 76236.2 0 -546544 86702.9 0 -592274 97701.2 0 -643657 109215 0 -700964 121194 0 -764437 133547 0 -834267 146133 0 -910561 158750 0 -993313 171139 0 -1.08237e+06 182974 0 -1.17738e+06 193880 0 -1.27781e+06 203448 0 -1.38286e+06 211268 0 -1.49152e+06 216962 0 -1.6026e+06 220237 0 -1.71476e+06 220909 0 -493443 113700 0 -533126 129387 0 -578181 145904 0 -628923 163236 0 -685672 181319 0 -748726 200025 0 -818346 219153 0 -894717 238408 0 -977916 257395 0 -1.06786e+06 275619 0 -1.16428e+06 292492 0 -1.26665e+06 307364 0 -1.37416e+06 319566 0 -1.48574e+06 328484 0 -1.60005e+06 333620 0 -1.71559e+06 334674 0 -475643 150351 0 -514343 171236 0 -558401 193285 0 -608181 216496 0 -664066 240806 0 -726438 266067 0 -795654 292029 0 -872019 318314 0 -955734 344399 0 -1.04685e+06 369605 0 -1.14519e+06 393105 0 -1.25029e+06 413956 0 -1.36135e+06 431174 0 -1.47719e+06 443817 0 -1.59628e+06 451132 0 -1.71683e+06 452642 0 -452836 185877 0 -490209 211912 0 -532901 239492 0 -581334 268644 0 -635971 299323 0 -697295 331386 0 -765799 364557 0 -841944 398394 0 -926117 432257 0 -1.01856e+06 465277 0 -1.11927e+06 496355 0 -1.22791e+06 524195 0 -1.3437e+06 547379 0 -1.46535e+06 564540 0 -1.59102e+06 574508 0 -1.71858e+06 576563 0 -425105 219933 0 -460767 251035 0 -501667 284114 0 -548290 319247 0 -601188 356436 0 -660970 395569 0 -728289 436383 0 -803817 478409 0 -888192 520916 0 -981939 562855 0 -1.08534e+06 602827 0 -1.1983e+06 639087 0 -1.32012e+06 669661 0 -1.44939e+06 692509 0 -1.58393e+06 705911 0 -1.72083e+06 708719 0 -392579 252139 0 -426102 288173 0 -464720 326668 0 -508981 367776 0 -559530 411577 0 -617111 458036 0 -682567 506953 0 -756825 557889 0 -840858 610082 0 -935593 662342 0 -1.04177e+06 712959 0 -1.1597e+06 759669 0 -1.28896e+06 799691 0 -1.42808e+06 830072 0 -1.57432e+06 848039 0 -1.72415e+06 851792 0 -355443 282080 0 -386360 322842 0 -422146 366595 0 -463401 413593 0 -510857 464032 0 -565392 518006 0 -628050 575448 0 -700054 636039 0 -782788 699091 0 -877738 763368 0 -986320 826919 0 -1.10959e+06 886870 0 -1.24772e+06 939449 0 -1.39941e+06 980140 0 -1.56139e+06 1.00467e+06 0 -1.72782e+06 1.00994e+06 0 -313956 309317 0 -341771 354516 0 -374123 403267 0 -411647 455954 0 -455136 512926 0 -505582 574466 0 -564218 640729 0 -632571 711641 0 -712501 786745 0 -806188 864973 0 -916049 944293 0 -1.04436e+06 1.02135e+06 0 -1.19258e+06 1.09103e+06 0 -1.3602e+06 1.1467e+06 0 -1.5431e+06 1.18094e+06 0 -1.73496e+06 1.18819e+06 0 -268467 333396 0 -292670 382636 0 -320956 436000 0 -353959 494017 0 -392499 557230 0 -437632 626168 0 -490727 701300 0 -553574 782946 0 -628490 871122 0 -718471 965241 0 -827189 1.06366e+06 0 -958894 1.16286e+06 0 -1.11749e+06 1.25658e+06 0 -1.30473e+06 1.33479e+06 0 -1.51733e+06 1.38504e+06 0 -1.74075e+06 1.39613e+06 0 -219419 353864 0 -239513 406637 0 -263101 464081 0 -290776 526884 0 -323324 595802 0 -361789 671654 0 -407581 755308 0 -462613 847632 0 -529559 949376 0 -612091 1.06093e+06 0 -715371 1.18173e+06 0 -846175 1.30928e+06 0 -1.01287e+06 1.43691e+06 0 -1.22298e+06 1.55123e+06 0 -1.47572e+06 1.62971e+06 0 -1.76086e+06 1.64756e+06 0 -167361 370300 0 -182891 425978 0 -201189 486814 0 -222762 553647 0 -248292 627449 0 -278711 709341 0 -315306 800632 0 -359933 902841 0 -415250 1.01769e+06 0 -485327 1.14703e+06 0 -576238 1.29247e+06 0 -697634 1.45436e+06 0 -863843 1.62908e+06 0 -1.09435e+06 1.80233e+06 0 -1.40694e+06 1.93782e+06 0 -1.77185e+06 1.97467e+06 0 -112938 382333 0 -123523 440181 0 -136031 503569 0 -150831 573470 0 -168435 651036 0 -189539 737664 0 -215161 835077 0 -246747 945430 0 -286596 1.07151e+06 0 -338185 1.21686e+06 0 -407610 1.38622e+06 0 -505148 1.585e+06 0 -650567 1.81922e+06 0 -881058 2.08563e+06 0 -1.25665e+06 2.34673e+06 0 -1.83717e+06 2.45532e+06 0 -56885.7 389676 0 -62249.9 448865 0 -68600.1 513842 0 -76134.7 585665 0 -85117.8 665615 0 -95945.1 755279 0 -109137 856667 0 -125580 972459 0 -146457 1.10616e+06 0 -174103 1.26307e+06 0 -211982 1.45016e+06 0 -267876 1.68044e+06 0 -357189 1.97055e+06 0 -520624 2.35934e+06 0 -890822 2.88112e+06 0 -1.81436e+06 3.33241e+06 0 0 392145 0 0 451789 0 0 517305 0 0 589785 0 0 670553 0 0 761253 0 0 864070 0 0 981647 0 0 1.11841e+06 0 0 1.27875e+06 0 0 1.47444e+06 0 0 1.71334e+06 0 0 2.03729e+06 0 0 2.47766e+06 0 0 3.28202e+06 0 0 6.04035e+06 0 </DataArray> 
</PointData> 
<Points> 
<DataArray type="Float32" NumberOfComponents="3"> 
0.006 0 0 0.00666667 0 0 0.00733333 0 0 0.008 0 0 0.00866667 0 0 0.00933333 0 0 0.01 0 0 0.0106667 0 0 0.0113333 0 0 0.012 0 0 0.0126667 0 0 0.0133333 0 0 0.014 0 0 0.0146667 0 0 0.0153333 0 0 0.016 0 0 0.006 0.000666667 0 0.00666667 0.000666667 0 0.00733333 0.000666667 0 0.008 0.000666667 0 0.00866667 0.000666667 0 0.00933333 0.000666667 0 0.01 0.000666667 0 0.0106667 0.000666667 0 0.0113333 0.000666667 0 0.012 0.000666667 0 0.0126667 0.000666667 0 0.0133333 0.000666667 0 0.014 0.000666667 0 0.0146667 0.000666667 0 0.0153333 0.000666667 0 0.016 0.000666667 0 0.006 0.00133333 0 0.00666667 0.00133333 0 0.00733333 0.00133333 0 0.008 0.00133333 0 0.00866667 0.00133333 0 0.00933333 0.00133333 0 0.01 0.00133333 0 0.0106667 0.00133333 0 0.0113333 0.00133333 0 0.012 0.00133333 0 0.0126667 0.00133333 0 0.0133333 0.00133333 0 0.014 0.00133333 0 0.0146667 0.00133333 0 0.0153333 0.00133333 0 0.016 0.00133333 0 0.006 0.002 0 0.00666667 0.002 0 0.00733333 0.002 0 0.008 0.002 0 0.00866667 0.002 0 0.00933333 0.002 0 0.01 0.002 0 0.0106667 0.002 0 0.0113333 0.002 0 0.012 0.002 0 0.0126667 0.002 0 0.0133333 0.002 0 0.014 0.002 0 0.0146667 0.002 0 0.0153333 0.002 0 0.016 0.002 0 0.006 0.00266667 0 0.00666667 0.00266667 0 0.00733333 0.00266667 0 0.008 0.00266667 0 0.00866667 0.00266667 0 0.00933333 0.00266667 0 0.01 0.00266667 0 0.0106667 0.00266667 0 0.0113333 0.00266667 0 0.012 0.00266667 0 0.0126667 0.00266667 0 0.0133333 0.00266667 0 0.014 0.00266667 0 0.0146667 0.00266667 0 0.0153333 0.00266667 0 0.016 0.00266667 0 0.006 0.00333333 0 0.00666667 0.00333333 0 0.00733333 0.00333333 0 0.008 0.00333333 0 0.00866667 0.00333333 0 0.00933333 0.00333333 0 0.01 0.00333333 0 0.0106667 0.00333333 0 0.0113333 0.00333333 0 0.012 0.00333333 0 0.0126667 0.00333333 0 0.0133333 0.00333333 0 0.014 0.00333333 0 0.0146667 0.00333333 0 0.0153333 0.00333333 0 0.016 0.00333333 0 0.006 0.004 0 0.00666667 0.004 0 0.00733333 0.004 0 0.008 0.004 0 0.00866667 0.004 0 0.00933333 0.004 0 0.01 0.004 0 0.0106667 0.004 0 0.0113333 0.004 0 0.012 0.004 0 0.0126667 0.004 0 0.0133333 0.004 0 0.014 0.004 0 0.0146667 0.004 0 0.0153333 0.004 0 0.016 0.004 0 0.006 0.00466667 0 0.00666667 0.00466667 0 0.00733333 0.00466667 0 0.008 0.00466667 0 0.00866667 0.00466667 0 0.00933333 0.00466667 0 0.01 0.00466667 0 0.0106667 0.00466667 0 0.0113333 0.00466667 0 0.012 0.00466667 0 0.0126667 0.00466667 0 0.0133333 0.00466667 0 0.014 0.00466667 0 0.0146667 0.00466667 0 0.0153333 0.00466667 0 0.016 0.00466667 0 0.006 0.00533333 0 0.00666667 0.00533333 0 0.00733333 0.00533333 0 0.008 0.00533333 0 0.00866667 0.00533333 0 0.00933333 0.00533333 0 0.01 0.00533333 0 0.0106667 0.00533333 0 0.0113333 0.00533333 0 0.012 0.00533333 0 0.0126667 0.00533333 0 0.0133333 0.00533333 0 0.014 0.00533333 0 0.0146667 0.00533333 0 0.0153333 0.00533333 0 0.016 0.00533333 0 0.006 0.006 0 0.00666667 0.006 0 0.00733333 0.006 0 0.008 0.006 0 0.00866667 0.006 0 0.00933333 0.006 0 0.01 0.006 0 0.0106667 0.006 0 0.0113333 0.006 0 0.012 0.006 0 0.0126667 0.006 0 0.0133333 0.006 0 0.014 0.006 0 0.0146667 0.006 0 0.0153333 0.006 0 0.016 0.006 0 0.006 0.00666667 0 0.00666667 0.00666667 0 0.00733333 0.00666667 0 0.008 0.00666667 0 0.00866667 0.00666667 0 0.00933333 0.00666667 0 0.01 0.00666667 0 0.0106667 0.00666667 0 0.0113333 0.00666667 0 0.012 0.00666667 0 0.0126667 0.00666667 0 0.0133333 0.00666667 0 0.014 0.00666667 0 0.0146667 0.00666667 0 0.0153333 0.00666667 0 0.016 0.00666667 0 0.006 0.00733333 0 0.00666667 0.00733333 0 0.00733333 0.00733333 0 0.008 0.00733333 0 0.00866667 0.00733333 0 0.00933333 0.00733333 0 0.01 0.00733333 0 0.0106667 0.00733333 0 0.0113333 0.00733333 0 0.012 0.00733333 0 0.0126667 0.00733333 0 0.0133333 0.00733333 0 0.014 0.00733333 0 0.0146667 0.00733333 0 0.0153333 0.00733333 0 0.016 0.00733333 0 0.006 0.008 0 0.00666667 0.008 0 0.00733333 0.008 0 0.008 0.008 0 0.00866667 0.008 0 0.00933333 0.008 0 0.01 0.008 0 0.0106667 0.008 0 0.0113333 0.008 0 0.012 0.008 0 0.0126667 0.008 0 0.0133333 0.008 0 0.014 0.008 0 0.0146667 0.008 0 0.0153333 0.008 0 0.016 0.008 0 0.006 0.00866667 0 0.00666667 0.00866667 0 0.00733333 0.00866667 0 0.008 0.00866667 0 0.00866667 0.00866667 0 0.00933333 0.00866667 0 0.01 0.00866667 0 0.0106667 0.00866667 0 0.0113333 0.00866667 0 0.012 0.00866667 0 0.0126667 0.00866667 0 0.0133333 0.00866667 0 0.014 0.00866667 0 0.0146667 0.00866667 0 0.0153333 0.00866667 0 0.016 0.00866667 0 0.006 0.00933333 0 0.00666667 0.00933333 0 0.00733333 0.00933333 0 0.008 0.00933333 0 0.00866667 0.00933333 0 0.00933333 0.00933333 0 0.01 0.00933333 0 0.0106667 0.00933333 0 0.0113333 0.00933333 0 0.012 0.00933333 0 0.0126667 0.00933333 0 0.0133333 0.00933333 0 0.014 0.00933333 0 0.0146667 0.00933333 0 0.0153333 0.00933333 0 0.016 0.00933333 0 0.006 0.01 0 0.00666667 0.01 0 0.00733333 0.01 0 0.008 0.01 0 0.00866667 0.01 0 0.00933333 0.01 0 0.01 0.01 0 0.0106667 0.01 0 0.0113333 0.01 0 0.012 0.01 0 0.0126667 0.01 0 0.0133333 0.01 0 0.014 0.01 0 0.0146667 0.01 0 0.0153333 0.01 0 0.016 0.01 0 
</DataArray>
</Points> 
</Piece> 
</StructuredGrid> 
</VTKFile> 
