<?xml version="1.0"?> 
<VTKFile type="StructuredGrid" version="0.1"> 
<StructuredGrid WholeExtent="0 15 0 15 0 0"> 
<Piece Extent="0 15 0 15 0 0"> 
<PointData>
<DataArray type="Float32" Name="|E|" format="ascii" NumberOfComponents="3"> 
-1.51563e+06 0 0 -1.50396e+06 96237.2 0 -1.50002e+06 197937 0 -1.50167e+06 306418 0 -1.5066e+06 422122 0 -1.51277e+06 544704 0 -1.51863e+06 673244 0 -1.52318e+06 806505 0 -1.52603e+06 943153 0 -1.52728e+06 1.08191e+06 0 -1.52753e+06 1.22165e+06 0 -1.52779e+06 1.36148e+06 0 -1.52956e+06 1.50082e+06 0 -1.5348e+06 1.63959e+06 0 -1.54597e+06 1.77841e+06 0 -1.56596e+06 1.91895e+06 0 -1.43425e+06 0 0 -1.42195e+06 107628 0 -1.41656e+06 219734 0 -1.41631e+06 337530 0 -1.4193e+06 461484 0 -1.4238e+06 591394 0 -1.42848e+06 726550 0 -1.43254e+06 865951 0 -1.43568e+06 1.00849e+06 0 -1.43812e+06 1.15311e+06 0 -1.44054e+06 1.29891e+06 0 -1.44413e+06 1.44531e+06 0 -1.45051e+06 1.59215e+06 0 -1.46177e+06 1.73994e+06 0 -1.48044e+06 1.89022e+06 0 -1.5092e+06 2.04603e+06 0 -1.34743e+06 0 0 -1.33497e+06 118201 0 -1.32874e+06 240106 0 -1.32727e+06 366834 0 -1.32898e+06 498879 0 -1.33243e+06 636157 0 -1.33649e+06 778138 0 -1.34052e+06 924030 0 -1.34433e+06 1.07295e+06 0 -1.34826e+06 1.22408e+06 0 -1.3531e+06 1.37682e+06 0 -1.3601e+06 1.53094e+06 0 -1.37098e+06 1.68682e+06 0 -1.38778e+06 1.84573e+06 0 -1.4127e+06 2.01032e+06 0 -1.44761e+06 2.18518e+06 0 -1.2562e+06 0 0 -1.24395e+06 128129 0 -1.23733e+06 259353 0 -1.23517e+06 394716 0 -1.23612e+06 534736 0 -1.23897e+06 679433 0 -1.24281e+06 828442 0 -1.24711e+06 981169 0 -1.25184e+06 1.13696e+06 0 -1.25739e+06 1.29525e+06 0 -1.26464e+06 1.45579e+06 0 -1.27485e+06 1.61878e+06 0 -1.28965e+06 1.7852e+06 0 -1.31074e+06 1.95719e+06 0 -1.33951e+06 2.13851e+06 0 -1.37615e+06 2.33522e+06 0 -1.16138e+06 0 0 -1.14959e+06 137541 0 -1.14296e+06 277699 0 -1.14047e+06 421460 0 -1.14103e+06 569368 0 -1.14363e+06 721543 0 -1.14751e+06 877773 0 -1.15229e+06 1.03766e+06 0 -1.15801e+06 1.20078e+06 0 -1.16514e+06 1.36688e+06 0 -1.17455e+06 1.53603e+06 0 -1.18743e+06 1.70893e+06 0 -1.20507e+06 1.8872e+06 0 -1.22849e+06 2.07376e+06 0 -1.25768e+06 2.2733e+06 0 -1.29021e+06 2.49262e+06 0 -1.06357e+06 0 0 -1.05247e+06 146533 0 -1.04607e+06 295306 0 -1.04356e+06 447268 0 -1.044e+06 602995 0 -1.04656e+06 762704 0 -1.05064e+06 926334 0 -1.05596e+06 1.09368e+06 0 -1.06262e+06 1.26457e+06 0 -1.07112e+06 1.43901e+06 0 -1.08225e+06 1.61748e+06 0 -1.09693e+06 1.80114e+06 0 -1.11593e+06 1.99214e+06 0 -1.13919e+06 2.19401e+06 0 -1.16475e+06 2.41175e+06 0 -1.18698e+06 2.65159e+06 0 -963282 0 0 -953021 155171 0 -947058 312288 0 -944711 472280 0 -945214 635762 0 -947874 803052 0 -952208 974236 0 -958027 1.14931e+06 0 -965473 1.32831e+06 0 -974985 1.51158e+06 0 -987181 1.6999e+06 0 -1.0026e+06 1.89483e+06 0 -1.02123e+06 2.0989e+06 0 -1.04165e+06 2.31578e+06 0 -1.05966e+06 2.5499e+06 0 -1.06668e+06 2.80525e+06 0 -860910 0 0 -851610 163499 0 -846221 328718 0 -844179 496582 0 -844846 667757 0 -847656 842658 0 -852223 1.02152e+06 0 -858417 1.20452e+06 0 -866377 1.39194e+06 0 -876440 1.58435e+06 0 -888964 1.78284e+06 0 -903965 1.9892e+06 0 -920500 2.20602e+06 0 -935666 2.43653e+06 0 -943238 2.68358e+06 0 -932763 2.94742e+06 0 -756792 0 0 -748545 171547 0 -743824 344642 0 -742163 520225 0 -743037 699018 0 -745982 881541 0 -750691 1.06817e+06 0 -757067 1.25926e+06 0 -765210 1.45528e+06 0 -775308 1.65704e+06 0 -787389 1.86577e+06 0 -800874 2.08332e+06 0 -813855 2.31195e+06 0 -822105 2.55381e+06 0 -818062 2.80928e+06 0 -791095 3.07424e+06 0 -651217 0 0 -644088 179328 0 -640090 360082 0 -638842 543226 0 -639913 729553 0 -642926 919682 0 -647632 1.11413e+06 0 -653948 1.3134e+06 0 -661908 1.51814e+06 0 -671518 1.72929e+06 0 -682452 1.94813e+06 0 -693539 2.17628e+06 0 -702030 2.41531e+06 0 -702789 2.6657e+06 0 -687925 2.92491e+06 0 -648296 3.18477e+06 0 -544438 0 0 -538473 186849 0 -535224 375040 0 -534380 565583 0 -535595 759340 0 -538562 957034 0 -543081 1.1593e+06 0 -549064 1.3668e+06 0 -556468 1.5803e+06 0 -565114 1.80077e+06 0 -574342 2.0294e+06 0 -582490 2.26735e+06 0 -586240 2.51511e+06 0 -580142 2.77116e+06 0 -557004 3.03003e+06 0 -510269 3.28052e+06 0 -436684 0 0 -431911 194105 0 -429408 389507 0 -428928 587271 0 -430195 788338 0 -432970 993532 0 -437087 1.20361e+06 0 -442450 1.41933e+06 0 -448945 1.64154e+06 0 -456231 1.87119e+06 0 -463401 2.10921e+06 0 -468489 2.35607e+06 0 -467990 2.61091e+06 0 -456782 2.87009e+06 0 -429149 3.12559e+06 0 -381423 3.36448e+06 0 -328167 0 0 -324601 201087 0 -322816 403462 0 -322628 608256 0 -323827 816493 0 -326232 1.0291e+06 0 -329711 1.24693e+06 0 -334166 1.47083e+06 0 -339430 1.7017e+06 0 -345070 1.94036e+06 0 -350065 2.18736e+06 0 -352414 2.4423e+06 0 -348863 2.70284e+06 0 -335175 2.96326e+06 0 -307486 3.21353e+06 0 -264619 3.44005e+06 0 -219087 0 0 -216727 207782 0 -215613 416875 0 -215618 628491 0 -216600 843742 0 -218433 1.06365e+06 0 -221024 1.28916e+06 0 -224283 1.5212e+06 0 -228035 1.76065e+06 0 -231852 2.00817e+06 0 -234793 2.26383e+06 0 -235146 2.52627e+06 0 -230342 2.79156e+06 0 -217427 3.05206e+06 0 -194345 3.29619e+06 0 -161533 3.51033e+06 0 -109636 0 0 -108469 214170 0 -107956 429710 0 -108032 647922 0 -108622 870012 0 -109661 1.09709e+06 0 -111097 1.3302e+06 0 -112873 1.57031e+06 0 -114866 1.8183e+06 0 -116780 2.07463e+06 0 -118002 2.33884e+06 0 -117468 2.60853e+06 0 -113707 2.87817e+06 0 -105243 3.13826e+06 0 -91416 3.37593e+06 0 -73122 3.5778e+06 0 0 0 0 0 220229 0 0 441925 0 0 666492 0 0 895231 0 0 1.12934e+06 0 0 1.36995e+06 0 0 1.61809e+06 0 0 1.87463e+06 0 0 2.13985e+06 0 0 2.41277e+06 0 0 2.68993e+06 0 0 2.9641e+06 0 0 3.22381e+06 0 0 3.45486e+06 0 0 3.64415e+06 0 </DataArray> 
</PointData> 
<Points> 
<DataArray type="Float32" NumberOfComponents="3"> 
0 0.0556667 0 0.00452 0.0564444 0 0.00904 0.0572222 0 0.01356 0.058 0 0.01808 0.0587778 0 0.0226 0.0595556 0 0.02712 0.0603333 0 0.03164 0.0611111 0 0.03616 0.0618889 0 0.04068 0.0626667 0 0.0452 0.0634444 0 0.04972 0.0642222 0 0.05424 0.065 0 0.05876 0.0657778 0 0.06328 0.0665556 0 0.0678 0.0673333 0 0 0.0594222 0 0.00472089 0.0601481 0 0.00944178 0.0608741 0 0.0141627 0.0616 0 0.0188836 0.0623259 0 0.0236044 0.0630519 0 0.0283253 0.0637778 0 0.0330462 0.0645037 0 0.0377671 0.0652296 0 0.042488 0.0659556 0 0.0472089 0.0666815 0 0.0519298 0.0674074 0 0.0566507 0.0681333 0 0.0613716 0.0688593 0 0.0660924 0.0695852 0 0.0708133 0.0703111 0 0 0.0631778 0 0.00492178 0.0638519 0 0.00984356 0.0645259 0 0.0147653 0.0652 0 0.0196871 0.0658741 0 0.0246089 0.0665481 0 0.0295307 0.0672222 0 0.0344524 0.0678963 0 0.0393742 0.0685704 0 0.044296 0.0692444 0 0.0492178 0.0699185 0 0.0541396 0.0705926 0 0.0590613 0.0712667 0 0.0639831 0.0719407 0 0.0689049 0.0726148 0 0.0738267 0.0732889 0 0 0.0669333 0 0.00512267 0.0675556 0 0.0102453 0.0681778 0 0.015368 0.0688 0 0.0204907 0.0694222 0 0.0256133 0.0700444 0 0.030736 0.0706667 0 0.0358587 0.0712889 0 0.0409813 0.0719111 0 0.046104 0.0725333 0 0.0512267 0.0731556 0 0.0563493 0.0737778 0 0.061472 0.0744 0 0.0665947 0.0750222 0 0.0717173 0.0756444 0 0.07684 0.0762667 0 0 0.0706889 0 0.00532356 0.0712593 0 0.0106471 0.0718296 0 0.0159707 0.0724 0 0.0212942 0.0729704 0 0.0266178 0.0735407 0 0.0319413 0.0741111 0 0.0372649 0.0746815 0 0.0425884 0.0752519 0 0.047912 0.0758222 0 0.0532356 0.0763926 0 0.0585591 0.076963 0 0.0638827 0.0775333 0 0.0692062 0.0781037 0 0.0745298 0.0786741 0 0.0798533 0.0792444 0 0 0.0744444 0 0.00552444 0.074963 0 0.0110489 0.0754815 0 0.0165733 0.076 0 0.0220978 0.0765185 0 0.0276222 0.077037 0 0.0331467 0.0775556 0 0.0386711 0.0780741 0 0.0441956 0.0785926 0 0.04972 0.0791111 0 0.0552444 0.0796296 0 0.0607689 0.0801481 0 0.0662933 0.0806667 0 0.0718178 0.0811852 0 0.0773422 0.0817037 0 0.0828667 0.0822222 0 0 0.0782 0 0.00572533 0.0786667 0 0.0114507 0.0791333 0 0.017176 0.0796 0 0.0229013 0.0800667 0 0.0286267 0.0805333 0 0.034352 0.081 0 0.0400773 0.0814667 0 0.0458027 0.0819333 0 0.051528 0.0824 0 0.0572533 0.0828667 0 0.0629787 0.0833333 0 0.068704 0.0838 0 0.0744293 0.0842667 0 0.0801547 0.0847333 0 0.08588 0.0852 0 0 0.0819556 0 0.00592622 0.0823704 0 0.0118524 0.0827852 0 0.0177787 0.0832 0 0.0237049 0.0836148 0 0.0296311 0.0840296 0 0.0355573 0.0844444 0 0.0414836 0.0848593 0 0.0474098 0.0852741 0 0.053336 0.0856889 0 0.0592622 0.0861037 0 0.0651884 0.0865185 0 0.0711147 0.0869333 0 0.0770409 0.0873481 0 0.0829671 0.087763 0 0.0888933 0.0881778 0 0 0.0857111 0 0.00612711 0.0860741 0 0.0122542 0.086437 0 0.0183813 0.0868 0 0.0245084 0.087163 0 0.0306356 0.0875259 0 0.0367627 0.0878889 0 0.0428898 0.0882519 0 0.0490169 0.0886148 0 0.055144 0.0889778 0 0.0612711 0.0893407 0 0.0673982 0.0897037 0 0.0735253 0.0900667 0 0.0796524 0.0904296 0 0.0857796 0.0907926 0 0.0919067 0.0911556 0 0 0.0894667 0 0.006328 0.0897778 0 0.012656 0.0900889 0 0.018984 0.0904 0 0.025312 0.0907111 0 0.03164 0.0910222 0 0.037968 0.0913333 0 0.044296 0.0916444 0 0.050624 0.0919556 0 0.056952 0.0922667 0 0.06328 0.0925778 0 0.069608 0.0928889 0 0.075936 0.0932 0 0.082264 0.0935111 0 0.088592 0.0938222 0 0.09492 0.0941333 0 0 0.0932222 0 0.00652889 0.0934815 0 0.0130578 0.0937407 0 0.0195867 0.094 0 0.0261156 0.0942593 0 0.0326444 0.0945185 0 0.0391733 0.0947778 0 0.0457022 0.095037 0 0.0522311 0.0952963 0 0.05876 0.0955556 0 0.0652889 0.0958148 0 0.0718178 0.0960741 0 0.0783467 0.0963333 0 0.0848756 0.0965926 0 0.0914044 0.0968519 0 0.0979333 0.0971111 0 0 0.0969778 0 0.00672978 0.0971852 0 0.0134596 0.0973926 0 0.0201893 0.0976 0 0.0269191 0.0978074 0 0.0336489 0.0980148 0 0.0403787 0.0982222 0 0.0471084 0.0984296 0 0.0538382 0.098637 0 0.060568 0.0988444 0 0.0672978 0.0990519 0 0.0740276 0.0992593 0 0.0807573 0.0994667 0 0.0874871 0.0996741 0 0.0942169 0.0998815 0 0.100947 0.100089 0 0 0.100733 0 0.00693067 0.100889 0 0.0138613 0.101044 0 0.020792 0.1012 0 0.0277227 0.101356 0 0.0346533 0.101511 0 0.041584 0.101667 0 0.0485147 0.101822 0 0.0554453 0.101978 0 0.062376 0.102133 0 0.0693067 0.102289 0 0.0762373 0.102444 0 0.083168 0.1026 0 0.0900987 0.102756 0 0.0970293 0.102911 0 0.10396 0.103067 0 0 0.104489 0 0.00713156 0.104593 0 0.0142631 0.104696 0 0.0213947 0.1048 0 0.0285262 0.104904 0 0.0356578 0.105007 0 0.0427893 0.105111 0 0.0499209 0.105215 0 0.0570524 0.105319 0 0.064184 0.105422 0 0.0713156 0.105526 0 0.0784471 0.10563 0 0.0855787 0.105733 0 0.0927102 0.105837 0 0.0998418 0.105941 0 0.106973 0.106044 0 0 0.108244 0 0.00733244 0.108296 0 0.0146649 0.108348 0 0.0219973 0.1084 0 0.0293298 0.108452 0 0.0366622 0.108504 0 0.0439947 0.108556 0 0.0513271 0.108607 0 0.0586596 0.108659 0 0.065992 0.108711 0 0.0733244 0.108763 0 0.0806569 0.108815 0 0.0879893 0.108867 0 0.0953218 0.108919 0 0.102654 0.10897 0 0.109987 0.109022 0 0 0.112 0 0.00753333 0.112 0 0.0150667 0.112 0 0.0226 0.112 0 0.0301333 0.112 0 0.0376667 0.112 0 0.0452 0.112 0 0.0527333 0.112 0 0.0602667 0.112 0 0.0678 0.112 0 0.0753333 0.112 0 0.0828667 0.112 0 0.0904 0.112 0 0.0979333 0.112 0 0.105467 0.112 0 0.113 0.112 0 
</DataArray>
</Points> 
</Piece> 
</StructuredGrid> 
</VTKFile> 
