<?xml version="1.0"?> 
<VTKFile type="StructuredGrid" version="0.1"> 
<StructuredGrid WholeExtent="0 127 0 127 0 0"> 
<Piece Extent="0 127 0 127 0 0"> 
<PointData>
<DataArray type="Float32" Name="u" format="ascii" NumberOfComponents="3"> 
-1.66693e+06 0 0 -1.66702e+06 14911.5 0 -1.66728e+06 29825.9 0 -1.66773e+06 44746.5 0 -1.66835e+06 59676.1 0 -1.66915e+06 74617.8 0 -1.67012e+06 89574.7 0 -1.67127e+06 104550 0 -1.6726e+06 119546 0 -1.6741e+06 134567 0 -1.67578e+06 149615 0 -1.67764e+06 164694 0 -1.67967e+06 179806 0 -1.68187e+06 194955 0 -1.68425e+06 210143 0 -1.68681e+06 225375 0 -1.68953e+06 240653 0 -1.69243e+06 255979 0 -1.6955e+06 271359 0 -1.69874e+06 286794 0 -1.70215e+06 302288 0 -1.70573e+06 317844 0 -1.70948e+06 333465 0 -1.71339e+06 349155 0 -1.71747e+06 364917 0 -1.72172e+06 380754 0 -1.72612e+06 396670 0 -1.73069e+06 412668 0 -1.73542e+06 428752 0 -1.74031e+06 444924 0 -1.74535e+06 461188 0 -1.75055e+06 477548 0 -1.7559e+06 494007 0 -1.7614e+06 510568 0 -1.76705e+06 527235 0 -1.77284e+06 544012 0 -1.77877e+06 560901 0 -1.78485e+06 577907 0 -1.79106e+06 595033 0 -1.7974e+06 612281 0 -1.80386e+06 629656 0 -1.81046e+06 647161 0 -1.81717e+06 664799 0 -1.824e+06 682573 0 -1.83093e+06 700486 0 -1.83797e+06 718542 0 -1.84511e+06 736742 0 -1.85234e+06 755091 0 -1.85966e+06 773590 0 -1.86705e+06 792242 0 -1.87452e+06 811049 0 -1.88205e+06 830013 0 -1.88963e+06 849135 0 -1.89725e+06 868416 0 -1.90491e+06 887857 0 -1.91259e+06 907459 0 -1.92028e+06 927220 0 -1.92797e+06 947139 0 -1.93565e+06 967216 0 -1.9433e+06 987447 0 -1.95091e+06 1.00783e+06 0 -1.95846e+06 1.02836e+06 0 -1.96593e+06 1.04902e+06 0 -1.97331e+06 1.06982e+06 0 -1.98058e+06 1.09075e+06 0 -1.98773e+06 1.11178e+06 0 -1.99472e+06 1.13292e+06 0 -2.00154e+06 1.15414e+06 0 -2.00817e+06 1.17543e+06 0 -2.01458e+06 1.19677e+06 0 -2.02076e+06 1.21813e+06 0 -2.02668e+06 1.2395e+06 0 -2.03231e+06 1.26083e+06 0 -2.03764e+06 1.2821e+06 0 -2.04264e+06 1.30327e+06 0 -2.04729e+06 1.3243e+06 0 -2.05156e+06 1.34513e+06 0 -2.05544e+06 1.36573e+06 0 -2.05892e+06 1.38603e+06 0 -2.06198e+06 1.40597e+06 0 -2.0646e+06 1.42549e+06 0 -2.06678e+06 1.44451e+06 0 -2.06853e+06 1.46296e+06 0 -2.06983e+06 1.48075e+06 0 -2.07072e+06 1.4978e+06 0 -2.07119e+06 1.51402e+06 0 -2.07129e+06 1.52931e+06 0 -2.07104e+06 1.54358e+06 0 -2.07049e+06 1.55673e+06 0 -2.06969e+06 1.56865e+06 0 -2.0687e+06 1.57925e+06 0 -2.0676e+06 1.58844e+06 0 -2.06647e+06 1.59612e+06 0 -2.06541e+06 1.60219e+06 0 -2.06451e+06 1.60657e+06 0 -2.06388e+06 1.60919e+06 0 -2.06364e+06 1.60996e+06 0 -2.06391e+06 1.60884e+06 0 -2.06481e+06 1.60575e+06 0 -2.06649e+06 1.60066e+06 0 -2.06906e+06 1.59352e+06 0 -2.07266e+06 1.58432e+06 0 -2.07742e+06 1.57302e+06 0 -2.08347e+06 1.55963e+06 0 -2.09095e+06 1.54415e+06 0 -2.09997e+06 1.52657e+06 0 -2.11067e+06 1.50695e+06 0 -2.12313e+06 1.48528e+06 0 -2.13753e+06 1.46167e+06 0 -2.1539e+06 1.43608e+06 0 -2.17248e+06 1.40879e+06 0 -2.19319e+06 1.37956e+06 0 -2.21646e+06 1.34918e+06 0 -2.24193e+06 1.31669e+06 0 -2.27059e+06 1.28439e+06 0 -2.30129e+06 1.24907e+06 0 -2.33652e+06 1.21743e+06 0 -2.37302e+06 1.17925e+06 0 -2.41736e+06 1.15439e+06 0 -2.46059e+06 1.1112e+06 0 -2.52032e+06 1.10878e+06 0 -2.57257e+06 1.05078e+06 0 -2.6652e+06 1.11439e+06 0 -2.73615e+06 1.00556e+06 0 -2.91885e+06 1.28272e+06 0 -3.08509e+06 948837 0 -3.61923e+06 2.25331e+06 0 -9.46971e+06 1.22687e+07 0 -1.66192e+06 0 0 -1.66204e+06 14970.4 0 -1.66233e+06 29943.1 0 -1.6628e+06 44921.2 0 -1.66345e+06 59907.7 0 -1.66427e+06 74905.7 0 -1.66526e+06 89918.1 0 -1.66644e+06 104948 0 -1.66778e+06 119998 0 -1.66931e+06 135072 0 -1.67101e+06 150173 0 -1.67288e+06 165303 0 -1.67493e+06 180466 0 -1.67715e+06 195665 0 -1.67954e+06 210903 0 -1.68211e+06 226184 0 -1.68485e+06 241509 0 -1.68776e+06 256883 0 -1.69084e+06 272308 0 -1.6941e+06 287788 0 -1.69752e+06 303326 0 -1.70111e+06 318926 0 -1.70486e+06 334590 0 -1.70879e+06 350321 0 -1.71287e+06 366124 0 -1.71712e+06 382000 0 -1.72154e+06 397955 0 -1.72611e+06 413990 0 -1.73085e+06 430110 0 -1.73574e+06 446317 0 -1.74079e+06 462616 0 -1.74599e+06 479008 0 -1.75134e+06 495499 0 -1.75684e+06 512091 0 -1.76249e+06 528788 0 -1.76829e+06 545592 0 -1.77422e+06 562509 0 -1.78029e+06 579540 0 -1.7865e+06 596689 0 -1.79284e+06 613960 0 -1.79931e+06 631356 0 -1.8059e+06 648880 0 -1.81261e+06 666536 0 -1.81943e+06 684326 0 -1.82637e+06 702254 0 -1.83341e+06 720322 0 -1.84054e+06 738533 0 -1.84777e+06 756891 0 -1.85508e+06 775397 0 -1.86247e+06 794053 0 -1.86994e+06 812863 0 -1.87746e+06 831826 0 -1.88504e+06 850946 0 -1.89266e+06 870222 0 -1.90032e+06 889656 0 -1.908e+06 909247 0 -1.91569e+06 928996 0 -1.92338e+06 948900 0 -1.93106e+06 968958 0 -1.93872e+06 989167 0 -1.94633e+06 1.00952e+06 0 -1.95388e+06 1.03002e+06 0 -1.96137e+06 1.05066e+06 0 -1.96876e+06 1.07142e+06 0 -1.97604e+06 1.0923e+06 0 -1.9832e+06 1.1133e+06 0 -1.99021e+06 1.13439e+06 0 -1.99706e+06 1.15556e+06 0 -2.00371e+06 1.17679e+06 0 -2.01016e+06 1.19807e+06 0 -2.01638e+06 1.21938e+06 0 -2.02234e+06 1.24067e+06 0 -2.02802e+06 1.26194e+06 0 -2.0334e+06 1.28313e+06 0 -2.03846e+06 1.30423e+06 0 -2.04318e+06 1.32517e+06 0 -2.04754e+06 1.34593e+06 0 -2.05151e+06 1.36644e+06 0 -2.05509e+06 1.38666e+06 0 -2.05826e+06 1.40652e+06 0 -2.061e+06 1.42595e+06 0 -2.06332e+06 1.44489e+06 0 -2.06521e+06 1.46325e+06 0 -2.06668e+06 1.48096e+06 0 -2.06773e+06 1.49794e+06 0 -2.0684e+06 1.51409e+06 0 -2.06869e+06 1.52931e+06 0 -2.06866e+06 1.54353e+06 0 -2.06833e+06 1.55663e+06 0 -2.06777e+06 1.56852e+06 0 -2.06703e+06 1.5791e+06 0 -2.0662e+06 1.58827e+06 0 -2.06534e+06 1.59595e+06 0 -2.06455e+06 1.60205e+06 0 -2.06394e+06 1.60647e+06 0 -2.0636e+06 1.60914e+06 0 -2.06366e+06 1.60999e+06 0 -2.06423e+06 1.60895e+06 0 -2.06543e+06 1.60597e+06 0 -2.0674e+06 1.601e+06 0 -2.07027e+06 1.594e+06 0 -2.07416e+06 1.58495e+06 0 -2.07921e+06 1.57383e+06 0 -2.08554e+06 1.56063e+06 0 -2.09329e+06 1.54534e+06 0 -2.10257e+06 1.52798e+06 0 -2.11351e+06 1.50857e+06 0 -2.12623e+06 1.48714e+06 0 -2.14082e+06 1.46376e+06 0 -2.15743e+06 1.43845e+06 0 -2.17614e+06 1.41135e+06 0 -2.19709e+06 1.3825e+06 0 -2.22036e+06 1.35216e+06 0 -2.24615e+06 1.32034e+06 0 -2.27451e+06 1.28766e+06 0 -2.3058e+06 1.25381e+06 0 -2.34e+06 1.22048e+06 0 -2.37793e+06 1.1862e+06 0 -2.41938e+06 1.15567e+06 0 -2.4664e+06 1.1236e+06 0 -2.51849e+06 1.10365e+06 0 -2.58094e+06 1.0783e+06 0 -2.65343e+06 1.08873e+06 0 -2.75124e+06 1.07949e+06 0 -2.88118e+06 1.18423e+06 0 -3.10462e+06 1.2246e+06 0 -3.57611e+06 1.81658e+06 0 -5.49073e+06 6.99441e+06 0 -1.6569e+06 0 0 -1.65704e+06 15029 0 -1.65736e+06 30059.6 0 -1.65786e+06 45095 0 -1.65852e+06 60138.1 0 -1.65937e+06 75191.9 0 -1.66039e+06 90259.5 0 -1.66158e+06 105344 0 -1.66295e+06 120448 0 -1.6645e+06 135575 0 -1.66621e+06 150728 0 -1.6681e+06 165910 0 -1.67017e+06 181124 0 -1.67241e+06 196372 0 -1.67482e+06 211660 0 -1.6774e+06 226988 0 -1.68015e+06 242361 0 -1.68308e+06 257781 0 -1.68617e+06 273253 0 -1.68944e+06 288778 0 -1.69287e+06 304360 0 -1.69647e+06 320002 0 -1.70023e+06 335708 0 -1.70417e+06 351481 0 -1.70826e+06 367324 0 -1.71252e+06 383240 0 -1.71694e+06 399232 0 -1.72152e+06 415305 0 -1.72626e+06 431461 0 -1.73116e+06 447703 0 -1.73621e+06 464036 0 -1.74142e+06 480461 0 -1.74677e+06 496984 0 -1.75228e+06 513606 0 -1.75793e+06 530332 0 -1.76372e+06 547165 0 -1.76966e+06 564108 0 -1.77573e+06 581164 0 -1.78194e+06 598337 0 -1.78828e+06 615631 0 -1.79475e+06 633048 0 -1.80133e+06 650591 0 -1.80804e+06 668264 0 -1.81487e+06 686071 0 -1.8218e+06 704013 0 -1.82883e+06 722093 0 -1.83597e+06 740315 0 -1.84319e+06 758682 0 -1.8505e+06 777194 0 -1.85789e+06 795855 0 -1.86535e+06 814667 0 -1.87287e+06 833631 0 -1.88045e+06 852748 0 -1.88807e+06 872020 0 -1.89573e+06 891446 0 -1.90341e+06 911028 0 -1.9111e+06 930763 0 -1.91879e+06 950652 0 -1.92648e+06 970691 0 -1.93413e+06 990878 0 -1.94175e+06 1.01121e+06 0 -1.94931e+06 1.03168e+06 0 -1.9568e+06 1.05228e+06 0 -1.96421e+06 1.07301e+06 0 -1.97151e+06 1.09386e+06 0 -1.97868e+06 1.11481e+06 0 -1.98572e+06 1.13585e+06 0 -1.99258e+06 1.15697e+06 0 -1.99927e+06 1.17816e+06 0 -2.00575e+06 1.19938e+06 0 -2.012e+06 1.22062e+06 0 -2.01801e+06 1.24185e+06 0 -2.02374e+06 1.26305e+06 0 -2.02918e+06 1.28417e+06 0 -2.0343e+06 1.30519e+06 0 -2.0391e+06 1.32606e+06 0 -2.04353e+06 1.34674e+06 0 -2.0476e+06 1.36717e+06 0 -2.05127e+06 1.3873e+06 0 -2.05455e+06 1.40708e+06 0 -2.05742e+06 1.42643e+06 0 -2.05987e+06 1.44528e+06 0 -2.06191e+06 1.46356e+06 0 -2.06353e+06 1.4812e+06 0 -2.06476e+06 1.4981e+06 0 -2.06561e+06 1.51418e+06 0 -2.06611e+06 1.52935e+06 0 -2.06628e+06 1.54351e+06 0 -2.06618e+06 1.55656e+06 0 -2.06585e+06 1.56842e+06 0 -2.06537e+06 1.57898e+06 0 -2.06479e+06 1.58815e+06 0 -2.0642e+06 1.59584e+06 0 -2.06369e+06 1.60195e+06 0 -2.06336e+06 1.60641e+06 0 -2.06331e+06 1.60913e+06 0 -2.06366e+06 1.61006e+06 0 -2.06453e+06 1.60911e+06 0 -2.06603e+06 1.60623e+06 0 -2.0683e+06 1.60139e+06 0 -2.07146e+06 1.59453e+06 0 -2.07564e+06 1.58564e+06 0 -2.08097e+06 1.57469e+06 0 -2.08758e+06 1.56167e+06 0 -2.0956e+06 1.54658e+06 0 -2.10514e+06 1.52943e+06 0 -2.11633e+06 1.51024e+06 0 -2.12928e+06 1.48904e+06 0 -2.14409e+06 1.46588e+06 0 -2.16091e+06 1.44083e+06 0 -2.17979e+06 1.41396e+06 0 -2.20091e+06 1.3854e+06 0 -2.2243e+06 1.35528e+06 0 -2.25021e+06 1.32382e+06 0 -2.27858e+06 1.29127e+06 0 -2.30995e+06 1.258e+06 0 -2.34395e+06 1.2245e+06 0 -2.38193e+06 1.19144e+06 0 -2.42272e+06 1.15983e+06 0 -2.46989e+06 1.13091e+06 0 -2.52019e+06 1.10708e+06 0 -2.58327e+06 1.09073e+06 0 -2.65095e+06 1.08874e+06 0 -2.75061e+06 1.107e+06 0 -2.86667e+06 1.1712e+06 0 -3.08863e+06 1.3165e+06 0 -3.50425e+06 1.75884e+06 0 -3.9043e+06 5.22641e+06 0 -1.65185e+06 0 0 -1.65203e+06 15087.2 0 -1.65237e+06 30175.5 0 -1.65289e+06 45267.8 0 -1.65358e+06 60367.1 0 -1.65445e+06 75476.5 0 -1.6555e+06 90599 0 -1.65671e+06 105738 0 -1.6581e+06 120895 0 -1.65967e+06 136075 0 -1.6614e+06 151280 0 -1.66331e+06 166513 0 -1.66539e+06 181777 0 -1.66765e+06 197076 0 -1.67007e+06 212412 0 -1.67267e+06 227788 0 -1.67544e+06 243208 0 -1.67838e+06 258675 0 -1.68149e+06 274192 0 -1.68476e+06 289762 0 -1.6882e+06 305388 0 -1.69181e+06 321073 0 -1.69559e+06 336821 0 -1.69953e+06 352635 0 -1.70364e+06 368517 0 -1.7079e+06 384473 0 -1.71233e+06 400503 0 -1.71692e+06 416613 0 -1.72166e+06 432805 0 -1.72657e+06 449082 0 -1.73162e+06 465448 0 -1.73683e+06 481907 0 -1.74219e+06 498461 0 -1.7477e+06 515113 0 -1.75335e+06 531868 0 -1.75915e+06 548729 0 -1.76509e+06 565698 0 -1.77116e+06 582780 0 -1.77737e+06 599977 0 -1.78371e+06 617293 0 -1.79017e+06 634730 0 -1.79676e+06 652293 0 -1.80347e+06 669984 0 -1.81029e+06 687806 0 -1.81722e+06 705762 0 -1.82425e+06 723855 0 -1.83139e+06 742088 0 -1.83861e+06 760463 0 -1.84592e+06 778982 0 -1.85331e+06 797648 0 -1.86076e+06 816462 0 -1.86828e+06 835426 0 -1.87586e+06 854542 0 -1.88348e+06 873809 0 -1.89114e+06 893228 0 -1.89882e+06 912800 0 -1.90651e+06 932523 0 -1.91421e+06 952396 0 -1.92189e+06 972417 0 -1.92955e+06 992583 0 -1.93718e+06 1.01289e+06 0 -1.94475e+06 1.03333e+06 0 -1.95225e+06 1.05391e+06 0 -1.95966e+06 1.0746e+06 0 -1.96698e+06 1.09541e+06 0 -1.97417e+06 1.11632e+06 0 -1.98122e+06 1.13732e+06 0 -1.98812e+06 1.15839e+06 0 -1.99483e+06 1.17952e+06 0 -2.00135e+06 1.20068e+06 0 -2.00764e+06 1.22186e+06 0 -2.01369e+06 1.24303e+06 0 -2.01947e+06 1.26416e+06 0 -2.02497e+06 1.28522e+06 0 -2.03016e+06 1.30616e+06 0 -2.03502e+06 1.32696e+06 0 -2.03954e+06 1.34755e+06 0 -2.04369e+06 1.36791e+06 0 -2.04747e+06 1.38796e+06 0 -2.05086e+06 1.40765e+06 0 -2.05385e+06 1.42692e+06 0 -2.05644e+06 1.44569e+06 0 -2.05862e+06 1.4639e+06 0 -2.0604e+06 1.48146e+06 0 -2.0618e+06 1.49829e+06 0 -2.06284e+06 1.5143e+06 0 -2.06353e+06 1.52941e+06 0 -2.06391e+06 1.54352e+06 0 -2.06404e+06 1.55653e+06 0 -2.06395e+06 1.56836e+06 0 -2.0637e+06 1.5789e+06 0 -2.06338e+06 1.58806e+06 0 -2.06306e+06 1.59576e+06 0 -2.06283e+06 1.6019e+06 0 -2.06278e+06 1.6064e+06 0 -2.06302e+06 1.60918e+06 0 -2.06366e+06 1.61017e+06 0 -2.06482e+06 1.60931e+06 0 -2.06661e+06 1.60654e+06 0 -2.06917e+06 1.60182e+06 0 -2.07263e+06 1.59511e+06 0 -2.07709e+06 1.58637e+06 0 -2.08271e+06 1.57559e+06 0 -2.0896e+06 1.56275e+06 0 -2.09788e+06 1.54785e+06 0 -2.10768e+06 1.53091e+06 0 -2.11911e+06 1.51194e+06 0 -2.13229e+06 1.49097e+06 0 -2.14733e+06 1.46805e+06 0 -2.16434e+06 1.44324e+06 0 -2.18341e+06 1.41661e+06 0 -2.20468e+06 1.38831e+06 0 -2.22821e+06 1.35845e+06 0 -2.25421e+06 1.32727e+06 0 -2.28265e+06 1.29497e+06 0 -2.31398e+06 1.26205e+06 0 -2.34796e+06 1.22876e+06 0 -2.38568e+06 1.19624e+06 0 -2.42633e+06 1.1647e+06 0 -2.47277e+06 1.13687e+06 0 -2.52267e+06 1.11265e+06 0 -2.584e+06 1.09911e+06 0 -2.65062e+06 1.09527e+06 0 -2.74573e+06 1.12201e+06 0 -2.85751e+06 1.1799e+06 0 -3.06218e+06 1.3583e+06 0 -3.41887e+06 1.78784e+06 0 -3.16564e+06 4.37021e+06 0 -1.64679e+06 0 0 -1.64699e+06 15145.1 0 -1.64736e+06 30290.7 0 -1.64791e+06 45439.6 0 -1.64863e+06 60594.9 0 -1.64952e+06 75759.6 0 -1.65058e+06 90936.6 0 -1.65182e+06 106129 0 -1.65323e+06 121340 0 -1.65482e+06 136572 0 -1.65657e+06 151828 0 -1.6585e+06 167113 0 -1.6606e+06 182427 0 -1.66287e+06 197775 0 -1.66532e+06 213160 0 -1.66793e+06 228584 0 -1.67071e+06 244051 0 -1.67366e+06 259564 0 -1.67678e+06 275126 0 -1.68007e+06 290740 0 -1.68353e+06 306410 0 -1.68715e+06 322138 0 -1.69093e+06 337928 0 -1.69488e+06 353782 0 -1.699e+06 369705 0 -1.70327e+06 385699 0 -1.70771e+06 401768 0 -1.7123e+06 417914 0 -1.71705e+06 434142 0 -1.72196e+06 450454 0 -1.72702e+06 466854 0 -1.73223e+06 483345 0 -1.7376e+06 499930 0 -1.74311e+06 516613 0 -1.74876e+06 533397 0 -1.75456e+06 550285 0 -1.7605e+06 567281 0 -1.76658e+06 584387 0 -1.77279e+06 601608 0 -1.77913e+06 618946 0 -1.78559e+06 636404 0 -1.79218e+06 653986 0 -1.79889e+06 671695 0 -1.80571e+06 689533 0 -1.81264e+06 707503 0 -1.81967e+06 725609 0 -1.8268e+06 743852 0 -1.83402e+06 762236 0 -1.84133e+06 780762 0 -1.84872e+06 799432 0 -1.85617e+06 818249 0 -1.86369e+06 837213 0 -1.87127e+06 856326 0 -1.87889e+06 875589 0 -1.88654e+06 895001 0 -1.89422e+06 914563 0 -1.90192e+06 934274 0 -1.90962e+06 954132 0 -1.91731e+06 974135 0 -1.92497e+06 994281 0 -1.9326e+06 1.01456e+06 0 -1.94018e+06 1.03498e+06 0 -1.9477e+06 1.05552e+06 0 -1.95513e+06 1.07618e+06 0 -1.96246e+06 1.09695e+06 0 -1.96967e+06 1.11782e+06 0 -1.97674e+06 1.13877e+06 0 -1.98366e+06 1.1598e+06 0 -1.99041e+06 1.18088e+06 0 -1.99695e+06 1.20199e+06 0 -2.00328e+06 1.22311e+06 0 -2.00938e+06 1.24422e+06 0 -2.01521e+06 1.26528e+06 0 -2.02077e+06 1.28627e+06 0 -2.02602e+06 1.30714e+06 0 -2.03096e+06 1.32786e+06 0 -2.03556e+06 1.34838e+06 0 -2.03981e+06 1.36866e+06 0 -2.04368e+06 1.38863e+06 0 -2.04718e+06 1.40824e+06 0 -2.05029e+06 1.42743e+06 0 -2.05301e+06 1.44612e+06 0 -2.05534e+06 1.46426e+06 0 -2.05729e+06 1.48174e+06 0 -2.05886e+06 1.4985e+06 0 -2.06007e+06 1.51445e+06 0 -2.06096e+06 1.52951e+06 0 -2.06156e+06 1.54356e+06 0 -2.0619e+06 1.55654e+06 0 -2.06204e+06 1.56834e+06 0 -2.06204e+06 1.57886e+06 0 -2.06198e+06 1.58802e+06 0 -2.06192e+06 1.59573e+06 0 -2.06195e+06 1.60189e+06 0 -2.06218e+06 1.60643e+06 0 -2.06271e+06 1.60927e+06 0 -2.06364e+06 1.61033e+06 0 -2.06509e+06 1.60956e+06 0 -2.06718e+06 1.6069e+06 0 -2.07003e+06 1.6023e+06 0 -2.07377e+06 1.59573e+06 0 -2.07852e+06 1.58714e+06 0 -2.08442e+06 1.57653e+06 0 -2.09158e+06 1.56387e+06 0 -2.10012e+06 1.54917e+06 0 -2.11018e+06 1.53244e+06 0 -2.12186e+06 1.51368e+06 0 -2.13527e+06 1.49293e+06 0 -2.15053e+06 1.47024e+06 0 -2.16774e+06 1.44567e+06 0 -2.18699e+06 1.4193e+06 0 -2.20842e+06 1.39124e+06 0 -2.23208e+06 1.36164e+06 0 -2.25816e+06 1.33072e+06 0 -2.28668e+06 1.2987e+06 0 -2.31796e+06 1.26606e+06 0 -2.35195e+06 1.23308e+06 0 -2.38936e+06 1.20089e+06 0 -2.42991e+06 1.16975e+06 0 -2.47551e+06 1.14239e+06 0 -2.52518e+06 1.11878e+06 0 -2.58436e+06 1.10618e+06 0 -2.65047e+06 1.10354e+06 0 -2.73982e+06 1.13291e+06 0 -2.84875e+06 1.19441e+06 0 -3.03255e+06 1.38323e+06 0 -3.32808e+06 1.83141e+06 0 -2.78418e+06 3.85583e+06 0 -1.64171e+06 0 0 -1.64193e+06 15202.7 0 -1.64233e+06 30405.2 0 -1.6429e+06 45610.4 0 -1.64365e+06 60821.4 0 -1.64457e+06 76041 0 -1.64565e+06 91272.4 0 -1.64691e+06 106518 0 -1.64835e+06 121782 0 -1.64995e+06 137066 0 -1.65173e+06 152374 0 -1.65368e+06 167709 0 -1.65579e+06 183073 0 -1.65808e+06 198471 0 -1.66054e+06 213904 0 -1.66317e+06 229376 0 -1.66597e+06 244889 0 -1.66893e+06 260448 0 -1.67207e+06 276056 0 -1.67537e+06 291714 0 -1.67883e+06 307427 0 -1.68247e+06 323197 0 -1.68626e+06 339029 0 -1.69022e+06 354924 0 -1.69434e+06 370886 0 -1.69863e+06 386919 0 -1.70307e+06 403025 0 -1.70767e+06 419209 0 -1.71243e+06 435472 0 -1.71734e+06 451819 0 -1.72241e+06 468252 0 -1.72763e+06 484775 0 -1.73299e+06 501392 0 -1.73851e+06 518105 0 -1.74417e+06 534917 0 -1.74997e+06 551833 0 -1.75591e+06 568855 0 -1.76199e+06 585987 0 -1.7682e+06 603231 0 -1.77454e+06 620591 0 -1.781e+06 638070 0 -1.78759e+06 655671 0 -1.7943e+06 673397 0 -1.80112e+06 691251 0 -1.80805e+06 709235 0 -1.81508e+06 727353 0 -1.82221e+06 745607 0 -1.82943e+06 764000 0 -1.83674e+06 782532 0 -1.84412e+06 801207 0 -1.85158e+06 820027 0 -1.8591e+06 838991 0 -1.86667e+06 858102 0 -1.87429e+06 877361 0 -1.88195e+06 896766 0 -1.88963e+06 916319 0 -1.89733e+06 936018 0 -1.90503e+06 955861 0 -1.91272e+06 975847 0 -1.9204e+06 995971 0 -1.92804e+06 1.01623e+06 0 -1.93562e+06 1.03662e+06 0 -1.94315e+06 1.05713e+06 0 -1.95059e+06 1.07776e+06 0 -1.95794e+06 1.09849e+06 0 -1.96517e+06 1.11932e+06 0 -1.97227e+06 1.14023e+06 0 -1.97921e+06 1.16121e+06 0 -1.98599e+06 1.18223e+06 0 -1.99257e+06 1.20329e+06 0 -1.99894e+06 1.22435e+06 0 -2.00508e+06 1.2454e+06 0 -2.01097e+06 1.2664e+06 0 -2.01658e+06 1.28732e+06 0 -2.0219e+06 1.30812e+06 0 -2.02691e+06 1.32877e+06 0 -2.03159e+06 1.34922e+06 0 -2.03593e+06 1.36941e+06 0 -2.03991e+06 1.38931e+06 0 -2.04352e+06 1.40885e+06 0 -2.04675e+06 1.42796e+06 0 -2.04961e+06 1.44658e+06 0 -2.05208e+06 1.46463e+06 0 -2.05418e+06 1.48205e+06 0 -2.05592e+06 1.49874e+06 0 -2.05732e+06 1.51463e+06 0 -2.0584e+06 1.52963e+06 0 -2.0592e+06 1.54364e+06 0 -2.05976e+06 1.55658e+06 0 -2.06014e+06 1.56835e+06 0 -2.06038e+06 1.57886e+06 0 -2.06057e+06 1.58802e+06 0 -2.06077e+06 1.59573e+06 0 -2.06108e+06 1.60192e+06 0 -2.06158e+06 1.6065e+06 0 -2.06239e+06 1.6094e+06 0 -2.06361e+06 1.61054e+06 0 -2.06534e+06 1.60986e+06 0 -2.06772e+06 1.60731e+06 0 -2.07086e+06 1.60283e+06 0 -2.07489e+06 1.59639e+06 0 -2.07993e+06 1.58796e+06 0 -2.0861e+06 1.57751e+06 0 -2.09353e+06 1.56504e+06 0 -2.10234e+06 1.55053e+06 0 -2.11265e+06 1.534e+06 0 -2.12457e+06 1.51546e+06 0 -2.13821e+06 1.49494e+06 0 -2.15369e+06 1.47248e+06 0 -2.1711e+06 1.44814e+06 0 -2.19054e+06 1.42201e+06 0 -2.21211e+06 1.3942e+06 0 -2.23592e+06 1.36485e+06 0 -2.26207e+06 1.33419e+06 0 -2.29067e+06 1.30244e+06 0 -2.32191e+06 1.27006e+06 0 -2.35587e+06 1.23741e+06 0 -2.39301e+06 1.20549e+06 0 -2.4334e+06 1.1748e+06 0 -2.47822e+06 1.14775e+06 0 -2.52753e+06 1.12496e+06 0 -2.58471e+06 1.11277e+06 0 -2.64997e+06 1.11207e+06 0 -2.73381e+06 1.14233e+06 0 -2.83906e+06 1.20974e+06 0 -3.00203e+06 1.40152e+06 0 -3.23688e+06 1.86855e+06 0 -2.56938e+06 3.50518e+06 0 -1.6366e+06 0 0 -1.63686e+06 15260 0 -1.63729e+06 30519.1 0 -1.63788e+06 45780.3 0 -1.63865e+06 61046.6 0 -1.63959e+06 76320.9 0 -1.64071e+06 91606.2 0 -1.64199e+06 106906 0 -1.64344e+06 122222 0 -1.64507e+06 137558 0 -1.64687e+06 152917 0 -1.64883e+06 168302 0 -1.65097e+06 183716 0 -1.65327e+06 199162 0 -1.65575e+06 214644 0 -1.65839e+06 230163 0 -1.66121e+06 245723 0 -1.66419e+06 261328 0 -1.66733e+06 276980 0 -1.67065e+06 292682 0 -1.67413e+06 308438 0 -1.67777e+06 324251 0 -1.68158e+06 340124 0 -1.68555e+06 356060 0 -1.68968e+06 372061 0 -1.69397e+06 388133 0 -1.69842e+06 404277 0 -1.70303e+06 420496 0 -1.70779e+06 436795 0 -1.71271e+06 453176 0 -1.71778e+06 469643 0 -1.72301e+06 486199 0 -1.72838e+06 502846 0 -1.7339e+06 519589 0 -1.73956e+06 536430 0 -1.74536e+06 553373 0 -1.75131e+06 570421 0 -1.75739e+06 587578 0 -1.7636e+06 604845 0 -1.76994e+06 622227 0 -1.77641e+06 639727 0 -1.783e+06 657347 0 -1.7897e+06 675090 0 -1.79652e+06 692960 0 -1.80345e+06 710959 0 -1.81048e+06 729089 0 -1.81761e+06 747354 0 -1.82483e+06 765755 0 -1.83214e+06 784294 0 -1.83952e+06 802974 0 -1.84698e+06 821796 0 -1.8545e+06 840761 0 -1.86207e+06 859870 0 -1.86969e+06 879124 0 -1.87735e+06 898523 0 -1.88504e+06 918067 0 -1.89274e+06 937754 0 -1.90044e+06 957582 0 -1.90814e+06 977550 0 -1.91582e+06 997655 0 -1.92347e+06 1.01789e+06 0 -1.93107e+06 1.03825e+06 0 -1.9386e+06 1.05874e+06 0 -1.94606e+06 1.07933e+06 0 -1.95342e+06 1.10003e+06 0 -1.96068e+06 1.12082e+06 0 -1.9678e+06 1.14168e+06 0 -1.97477e+06 1.16261e+06 0 -1.98158e+06 1.18359e+06 0 -1.98819e+06 1.20459e+06 0 -1.99461e+06 1.2256e+06 0 -2.00079e+06 1.24659e+06 0 -2.00673e+06 1.26752e+06 0 -2.0124e+06 1.28838e+06 0 -2.01779e+06 1.30911e+06 0 -2.02288e+06 1.32969e+06 0 -2.02764e+06 1.35006e+06 0 -2.03207e+06 1.37019e+06 0 -2.03615e+06 1.39001e+06 0 -2.03987e+06 1.40947e+06 0 -2.04323e+06 1.4285e+06 0 -2.04621e+06 1.44705e+06 0 -2.04883e+06 1.46503e+06 0 -2.05109e+06 1.48238e+06 0 -2.053e+06 1.49901e+06 0 -2.05458e+06 1.51484e+06 0 -2.05585e+06 1.52979e+06 0 -2.05686e+06 1.54376e+06 0 -2.05764e+06 1.55666e+06 0 -2.05824e+06 1.5684e+06 0 -2.05872e+06 1.5789e+06 0 -2.05916e+06 1.58805e+06 0 -2.05962e+06 1.59578e+06 0 -2.0602e+06 1.602e+06 0 -2.06097e+06 1.60662e+06 0 -2.06206e+06 1.60958e+06 0 -2.06356e+06 1.61079e+06 0 -2.06558e+06 1.6102e+06 0 -2.06825e+06 1.60775e+06 0 -2.07167e+06 1.6034e+06 0 -2.07598e+06 1.5971e+06 0 -2.0813e+06 1.58882e+06 0 -2.08775e+06 1.57854e+06 0 -2.09545e+06 1.56625e+06 0 -2.10452e+06 1.55193e+06 0 -2.11509e+06 1.5356e+06 0 -2.12725e+06 1.51727e+06 0 -2.14112e+06 1.49697e+06 0 -2.15681e+06 1.47474e+06 0 -2.17442e+06 1.45064e+06 0 -2.19404e+06 1.42475e+06 0 -2.21577e+06 1.39719e+06 0 -2.23971e+06 1.36809e+06 0 -2.26595e+06 1.33768e+06 0 -2.29461e+06 1.3062e+06 0 -2.32582e+06 1.27407e+06 0 -2.35974e+06 1.24173e+06 0 -2.39663e+06 1.21007e+06 0 -2.43681e+06 1.17981e+06 0 -2.48093e+06 1.15304e+06 0 -2.5297e+06 1.13104e+06 0 -2.58509e+06 1.11918e+06 0 -2.64904e+06 1.12033e+06 0 -2.72792e+06 1.15115e+06 0 -2.82826e+06 1.22414e+06 0 -2.97139e+06 1.41674e+06 0 -3.14837e+06 1.89342e+06 0 -2.43718e+06 3.24053e+06 0 -1.63148e+06 0 0 -1.63177e+06 15316.9 0 -1.63222e+06 30632.3 0 -1.63284e+06 45949.2 0 -1.63364e+06 61270.5 0 -1.6346e+06 76599.2 0 -1.63574e+06 91938.2 0 -1.63705e+06 107291 0 -1.63852e+06 122659 0 -1.64017e+06 138047 0 -1.64199e+06 153457 0 -1.64397e+06 168892 0 -1.64613e+06 184356 0 -1.64845e+06 199851 0 -1.65094e+06 215380 0 -1.6536e+06 230946 0 -1.65643e+06 246553 0 -1.65943e+06 262203 0 -1.66259e+06 277899 0 -1.66591e+06 293646 0 -1.6694e+06 309445 0 -1.67306e+06 325300 0 -1.67688e+06 341213 0 -1.68086e+06 357189 0 -1.685e+06 373230 0 -1.6893e+06 389340 0 -1.69376e+06 405521 0 -1.69837e+06 421777 0 -1.70315e+06 438112 0 -1.70807e+06 454527 0 -1.71315e+06 471027 0 -1.71838e+06 487614 0 -1.72375e+06 504293 0 -1.72928e+06 521065 0 -1.73494e+06 537935 0 -1.74075e+06 554906 0 -1.7467e+06 571980 0 -1.75278e+06 589161 0 -1.75899e+06 606451 0 -1.76533e+06 623855 0 -1.7718e+06 641375 0 -1.77839e+06 659014 0 -1.7851e+06 676775 0 -1.79192e+06 694661 0 -1.79885e+06 712674 0 -1.80588e+06 730816 0 -1.81301e+06 749091 0 -1.82023e+06 767501 0 -1.82753e+06 786047 0 -1.83492e+06 804732 0 -1.84237e+06 823556 0 -1.8499e+06 842522 0 -1.85747e+06 861630 0 -1.86509e+06 880880 0 -1.87275e+06 900272 0 -1.88044e+06 919807 0 -1.88815e+06 939482 0 -1.89586e+06 959296 0 -1.90356e+06 979247 0 -1.91125e+06 999331 0 -1.91891e+06 1.01954e+06 0 -1.92651e+06 1.03988e+06 0 -1.93406e+06 1.06033e+06 0 -1.94154e+06 1.0809e+06 0 -1.94892e+06 1.10156e+06 0 -1.95619e+06 1.12231e+06 0 -1.96334e+06 1.14313e+06 0 -1.97034e+06 1.16402e+06 0 -1.97717e+06 1.18495e+06 0 -1.98383e+06 1.2059e+06 0 -1.99028e+06 1.22685e+06 0 -1.99652e+06 1.24778e+06 0 -2.00251e+06 1.26865e+06 0 -2.00824e+06 1.28944e+06 0 -2.01369e+06 1.31011e+06 0 -2.01885e+06 1.33061e+06 0 -2.0237e+06 1.35092e+06 0 -2.02822e+06 1.37097e+06 0 -2.0324e+06 1.39071e+06 0 -2.03623e+06 1.4101e+06 0 -2.03971e+06 1.42906e+06 0 -2.04283e+06 1.44754e+06 0 -2.04559e+06 1.46545e+06 0 -2.048e+06 1.48274e+06 0 -2.05008e+06 1.4993e+06 0 -2.05184e+06 1.51508e+06 0 -2.05331e+06 1.52997e+06 0 -2.05452e+06 1.5439e+06 0 -2.05551e+06 1.55677e+06 0 -2.05634e+06 1.56849e+06 0 -2.05707e+06 1.57897e+06 0 -2.05775e+06 1.58813e+06 0 -2.05847e+06 1.59587e+06 0 -2.05931e+06 1.60212e+06 0 -2.06036e+06 1.60678e+06 0 -2.06172e+06 1.6098e+06 0 -2.0635e+06 1.61108e+06 0 -2.0658e+06 1.61059e+06 0 -2.06875e+06 1.60825e+06 0 -2.07246e+06 1.60402e+06 0 -2.07706e+06 1.59785e+06 0 -2.08265e+06 1.58973e+06 0 -2.08938e+06 1.57961e+06 0 -2.09734e+06 1.5675e+06 0 -2.10668e+06 1.55337e+06 0 -2.11749e+06 1.53725e+06 0 -2.1299e+06 1.51913e+06 0 -2.144e+06 1.49905e+06 0 -2.1599e+06 1.47704e+06 0 -2.17771e+06 1.45317e+06 0 -2.19751e+06 1.42752e+06 0 -2.2194e+06 1.4002e+06 0 -2.24346e+06 1.37135e+06 0 -2.2698e+06 1.34118e+06 0 -2.29851e+06 1.30996e+06 0 -2.3297e+06 1.27808e+06 0 -2.36355e+06 1.24604e+06 0 -2.40023e+06 1.21463e+06 0 -2.44013e+06 1.18477e+06 0 -2.48362e+06 1.15827e+06 0 -2.53171e+06 1.13696e+06 0 -2.58551e+06 1.12545e+06 0 -2.64775e+06 1.1282e+06 0 -2.72211e+06 1.1596e+06 0 -2.8165e+06 1.23712e+06 0 -2.94089e+06 1.42977e+06 0 -3.0644e+06 1.90613e+06 0 -2.34912e+06 3.03012e+06 0 -1.62634e+06 0 0 -1.62665e+06 15373.5 0 -1.62713e+06 30744.9 0 -1.62779e+06 46117.2 0 -1.62861e+06 61493.2 0 -1.6296e+06 76876 0 -1.63076e+06 92268.4 0 -1.63209e+06 107673 0 -1.63359e+06 123094 0 -1.63525e+06 138533 0 -1.63709e+06 153994 0 -1.6391e+06 169479 0 -1.64127e+06 184992 0 -1.64361e+06 200535 0 -1.64612e+06 216112 0 -1.6488e+06 231725 0 -1.65164e+06 247378 0 -1.65465e+06 263073 0 -1.65782e+06 278814 0 -1.66116e+06 294604 0 -1.66467e+06 310446 0 -1.66833e+06 326342 0 -1.67216e+06 342297 0 -1.67615e+06 358313 0 -1.68031e+06 374393 0 -1.68462e+06 390541 0 -1.68908e+06 406759 0 -1.69371e+06 423052 0 -1.69849e+06 439421 0 -1.70342e+06 455870 0 -1.7085e+06 472403 0 -1.71374e+06 489023 0 -1.71912e+06 505732 0 -1.72464e+06 522534 0 -1.73031e+06 539432 0 -1.73612e+06 556430 0 -1.74207e+06 573530 0 -1.74816e+06 590736 0 -1.75437e+06 608050 0 -1.76072e+06 625475 0 -1.76719e+06 643016 0 -1.77378e+06 660674 0 -1.78049e+06 678452 0 -1.78731e+06 696353 0 -1.79424e+06 714380 0 -1.80127e+06 732535 0 -1.8084e+06 750821 0 -1.81562e+06 769239 0 -1.82293e+06 787792 0 -1.83031e+06 806481 0 -1.83777e+06 825309 0 -1.84529e+06 844275 0 -1.85287e+06 863381 0 -1.86049e+06 882627 0 -1.86815e+06 902013 0 -1.87585e+06 921539 0 -1.88356e+06 941203 0 -1.89127e+06 961003 0 -1.89898e+06 980937 0 -1.90668e+06 1.001e+06 0 -1.91434e+06 1.02119e+06 0 -1.92196e+06 1.0415e+06 0 -1.92953e+06 1.06193e+06 0 -1.93702e+06 1.08246e+06 0 -1.94442e+06 1.10308e+06 0 -1.95171e+06 1.1238e+06 0 -1.95888e+06 1.14458e+06 0 -1.96591e+06 1.16542e+06 0 -1.97278e+06 1.1863e+06 0 -1.97947e+06 1.2072e+06 0 -1.98597e+06 1.2281e+06 0 -1.99225e+06 1.24897e+06 0 -1.99829e+06 1.26978e+06 0 -2.00409e+06 1.29051e+06 0 -2.00961e+06 1.31111e+06 0 -2.01484e+06 1.33155e+06 0 -2.01977e+06 1.35178e+06 0 -2.02438e+06 1.37176e+06 0 -2.02867e+06 1.39144e+06 0 -2.03261e+06 1.41075e+06 0 -2.03621e+06 1.42964e+06 0 -2.03946e+06 1.44805e+06 0 -2.04236e+06 1.4659e+06 0 -2.04493e+06 1.48311e+06 0 -2.04718e+06 1.49962e+06 0 -2.04911e+06 1.51534e+06 0 -2.05077e+06 1.53019e+06 0 -2.05219e+06 1.54408e+06 0 -2.05339e+06 1.55691e+06 0 -2.05445e+06 1.56861e+06 0 -2.05541e+06 1.57909e+06 0 -2.05634e+06 1.58825e+06 0 -2.05731e+06 1.59601e+06 0 -2.05841e+06 1.60228e+06 0 -2.05973e+06 1.60699e+06 0 -2.06137e+06 1.61006e+06 0 -2.06342e+06 1.61142e+06 0 -2.06601e+06 1.61102e+06 0 -2.06924e+06 1.60878e+06 0 -2.07323e+06 1.60467e+06 0 -2.07811e+06 1.59865e+06 0 -2.08398e+06 1.59068e+06 0 -2.09097e+06 1.58073e+06 0 -2.09921e+06 1.56879e+06 0 -2.1088e+06 1.55485e+06 0 -2.11986e+06 1.53893e+06 0 -2.13251e+06 1.52102e+06 0 -2.14684e+06 1.50115e+06 0 -2.16296e+06 1.47937e+06 0 -2.18096e+06 1.45574e+06 0 -2.20094e+06 1.43032e+06 0 -2.22298e+06 1.40323e+06 0 -2.24718e+06 1.37462e+06 0 -2.2736e+06 1.3447e+06 0 -2.30237e+06 1.31373e+06 0 -2.33354e+06 1.2821e+06 0 -2.36732e+06 1.25033e+06 0 -2.40379e+06 1.21918e+06 0 -2.44338e+06 1.18967e+06 0 -2.48629e+06 1.16346e+06 0 -2.5336e+06 1.14273e+06 0 -2.58592e+06 1.13161e+06 0 -2.64617e+06 1.13563e+06 0 -2.71634e+06 1.16769e+06 0 -2.80406e+06 1.24859e+06 0 -2.91067e+06 1.44084e+06 0 -2.98597e+06 1.90826e+06 0 -2.28604e+06 2.85499e+06 0 -1.62118e+06 0 0 -1.62152e+06 15429.8 0 -1.62203e+06 30856.9 0 -1.62271e+06 46284.2 0 -1.62356e+06 61714.6 0 -1.62457e+06 77151.2 0 -1.62576e+06 92596.7 0 -1.62711e+06 108054 0 -1.62863e+06 123527 0 -1.63032e+06 139017 0 -1.63218e+06 154528 0 -1.6342e+06 170063 0 -1.63639e+06 185624 0 -1.63875e+06 201215 0 -1.64128e+06 216840 0 -1.64397e+06 232499 0 -1.64683e+06 248198 0 -1.64986e+06 263938 0 -1.65305e+06 279724 0 -1.6564e+06 295557 0 -1.65992e+06 311441 0 -1.6636e+06 327379 0 -1.66744e+06 343375 0 -1.67144e+06 359431 0 -1.6756e+06 375550 0 -1.67992e+06 391736 0 -1.68439e+06 407991 0 -1.68903e+06 424319 0 -1.69381e+06 440724 0 -1.69875e+06 457207 0 -1.70384e+06 473773 0 -1.70908e+06 490424 0 -1.71447e+06 507164 0 -1.72e+06 523996 0 -1.72568e+06 540922 0 -1.73149e+06 557947 0 -1.73744e+06 575072 0 -1.74353e+06 592302 0 -1.74975e+06 609640 0 -1.7561e+06 627087 0 -1.76257e+06 644648 0 -1.76916e+06 662324 0 -1.77587e+06 680120 0 -1.78269e+06 698037 0 -1.78962e+06 716078 0 -1.79665e+06 734245 0 -1.80378e+06 752541 0 -1.81101e+06 770968 0 -1.81831e+06 789528 0 -1.8257e+06 808222 0 -1.83316e+06 827052 0 -1.84068e+06 846019 0 -1.84826e+06 865124 0 -1.85589e+06 884366 0 -1.86355e+06 903746 0 -1.87125e+06 923263 0 -1.87896e+06 942916 0 -1.88669e+06 962703 0 -1.89441e+06 982621 0 -1.90211e+06 1.00267e+06 0 -1.90978e+06 1.02283e+06 0 -1.91742e+06 1.04312e+06 0 -1.92499e+06 1.06352e+06 0 -1.9325e+06 1.08402e+06 0 -1.93992e+06 1.10461e+06 0 -1.94723e+06 1.12528e+06 0 -1.95443e+06 1.14602e+06 0 -1.96149e+06 1.16682e+06 0 -1.96839e+06 1.18765e+06 0 -1.97512e+06 1.208