<?xml version="1.0"?> 
<VTKFile type="StructuredGrid" version="0.1"> 
<StructuredGrid WholeExtent="0 127 0 127 0 0"> 
<Piece Extent="0 127 0 127 0 0"> 
<PointData>
<DataArray type="Float32" Name="u" format="ascii" NumberOfComponents="3"> 
507135 1.43051e-06 0 507131 1.13794e-06 0 507118 -8.8027e-07 0 507096 6.09095e-07 0 507066 -4.55841e-07 0 507027 1.00143e-07 0 506980 -1.48211e-08 0 506923 -5.2798e-08 0 506858 1.97775e-07 0 506785 -1.54345e-07 0 506702 1.75336e-07 0 506611 -9.18226e-08 0 506511 2.98474e-07 0 506403 9.1095e-09 0 506285 -2.73954e-07 0 506158 8.27044e-07 0 506023 -1.6671e-06 0 505878 1.71218e-06 0 505724 -1.53383e-06 0 505561 1.29372e-06 0 505389 -1.36992e-06 0 505208 1.60385e-06 0 505017 -1.39058e-06 0 504817 5.91972e-07 0 504607 9.40636e-08 0 504388 -2.39699e-07 0 504159 -1.95578e-08 0 503920 2.70549e-07 0 503672 -2.78233e-07 0 503413 -8.84756e-08 0 503145 5.00586e-07 0 502866 -4.3516e-07 0 502577 5.02914e-08 0 502277 1.87196e-07 0 501968 -4.6473e-07 0 501647 1.73226e-07 0 501316 1.94181e-07 0 500973 -4.43775e-07 0 500620 2.06288e-07 0 500255 1.69035e-07 0 499879 -4.59142e-07 0 499492 2.78465e-07 0 499092 1.90921e-07 0 498681 -4.3679e-07 0 498257 2.57045e-07 0 497822 1.3411e-07 0 497373 -3.26894e-07 0 496912 2.87779e-07 0 496438 2.16998e-07 0 495951 -4.14439e-07 0 495451 2.82191e-07 0 494936 1.52737e-07 0 494408 -3.91155e-07 0 493865 2.23517e-07 0 493308 2.03028e-07 0 492736 -4.04194e-07 0 492149 3.25963e-07 0 491547 4.84288e-08 0 490928 -4.58211e-07 0 490294 2.5332e-07 0 489643 9.31323e-09 0 488975 -4.04194e-07 0 488289 -2.03028e-07 0 487586 2.5332e-07 0 486865 -1.11759e-08 0 486125 -2.19792e-07 0 485365 1.86265e-07 0 484586 -1.37836e-07 0 483787 8.19564e-08 0 482967 1.19209e-07 0 482125 -1.60187e-07 0 481261 1.08033e-07 0 480375 6.70552e-08 0 479465 -1.00583e-07 0 478531 1.19209e-07 0 477572 2.98023e-08 0 476588 -1.30385e-07 0 475576 7.07805e-08 0 474537 3.72529e-08 0 473470 -2.19792e-07 0 472373 1.67638e-07 0 471246 8.19564e-08 0 470086 -1.49012e-07 0 468894 2.01166e-07 0 467667 3.72529e-08 0 466405 -1.19209e-07 0 465105 1.11759e-07 0 463766 2.23517e-08 0 462387 -1.93715e-07 0 460965 2.30968e-07 0 459499 1.49012e-08 0 457987 5.43892e-07 0 456425 -5.88596e-07 0 454812 2.98023e-07 0 453145 2.23517e-07 0 451422 -5.66244e-07 0 449637 8.71718e-07 0 447790 -1.16974e-06 0 445874 1.52737e-06 0 443887 -1.63913e-06 0 441824 1.75089e-06 0 439679 -1.36346e-06 0 437447 1.16229e-06 0 435122 -6.70552e-07 0 432696 -7.45058e-08 0 430161 -1.93715e-07 0 427509 9.53674e-07 0 424729 -1.46031e-06 0 421809 8.19564e-07 0 418735 -2.83122e-07 0 415492 1.49012e-08 0 412060 3.8743e-07 0 408415 -1.04308e-07 0 404530 -2.98023e-07 0 400369 3.8743e-07 0 395887 -7.15256e-07 0 391025 8.9407e-07 0 385704 -4.32134e-07 0 379821 3.57628e-07 0 373227 -5.96046e-07 0 365717 8.64267e-07 0 356995 -1.08778e-06 0 346628 1.49012e-06 0 333981 -1.78814e-06 0 318105 1.57952e-06 0 297572 -1.81794e-06 0 270218 1.54972e-06 0 232746 4.76837e-06 0 507674 5.81145e-07 0 507670 -95.8817 0 507657 -191.798 0 507636 -287.783 0 507607 -383.872 0 507569 -480.099 0 507522 -576.498 0 507467 -673.106 0 507404 -769.958 0 507332 -867.088 0 507251 -964.532 0 507162 -1062.33 0 507065 -1160.51 0 506958 -1259.12 0 506843 -1358.19 0 506720 -1457.76 0 506587 -1557.86 0 506446 -1658.55 0 506296 -1759.85 0 506137 -1861.81 0 505969 -1964.47 0 505791 -2067.87 0 505605 -2172.05 0 505410 -2277.06 0 505205 -2382.95 0 504991 -2489.76 0 504768 -2597.53 0 504535 -2706.31 0 504293 -2816.16 0 504041 -2927.13 0 503779 -3039.26 0 503508 -3152.61 0 503226 -3267.24 0 502934 -3383.21 0 502632 -3500.56 0 502320 -3619.37 0 501998 -3739.7 0 501665 -3861.61 0 501321 -3985.17 0 500966 -4110.44 0 500600 -4237.51 0 500224 -4366.44 0 499836 -4497.31 0 499436 -4630.21 0 499025 -4765.22 0 498602 -4902.42 0 498167 -5041.9 0 497720 -5183.77 0 497260 -5328.11 0 496788 -5475.04 0 496303 -5624.65 0 495805 -5777.07 0 495294 -5932.4 0 494769 -6090.78 0 494230 -6252.32 0 493678 -6417.17 0 493111 -6585.46 0 492529 -6757.35 0 491933 -6932.99 0 491321 -7112.54 0 490694 -7296.18 0 490051 -7484.08 0 489392 -7676.44 0 488716 -7873.47 0 488024 -8075.37 0 487313 -8282.37 0 486586 -8494.7 0 485840 -8712.63 0 485075 -8936.42 0 484291 -9166.34 0 483488 -9402.71 0 482664 -9645.84 0 481820 -9896.08 0 480955 -10153.8 0 480068 -10419.3 0 479158 -10693.2 0 478225 -10975.7 0 477269 -11267.4 0 476289 -11568.8 0 475283 -11880.4 0 474251 -12202.8 0 473193 -12536.7 0 472107 -12882.7 0 470993 -13241.5 0 469849 -13613.9 0 468675 -14000.8 0 467470 -14403.1 0 466232 -14821.8 0 464961 -15257.9 0 463656 -15712.7 0 462314 -16187.4 0 460935 -16683.4 0 459517 -17202.2 0 458060 -17745.6 0 456561 -18315.3 0 455019 -18913.4 0 453433 -19542 0 451800 -20203.8 0 450119 -20901.2 0 448389 -21637.4 0 446607 -22415.8 0 444771 -23239.9 0 442880 -24113.9 0 440932 -25042.5 0 438925 -26030.8 0 436857 -27084.6 0 434726 -28210.4 0 432531 -29415.6 0 430272 -30708.3 0 427946 -32097.8 0 425554 -33594.6 0 423096 -35210.4 0 420574 -36958.5 0 417990 -38853.4 0 415349 -40911.6 0 412657 -43150.9 0 409923 -45590.4 0 407160 -48250.2 0 404384 -51149.8 0 401617 -54306.8 0 398888 -57733.1 0 396233 -61429.5 0 393696 -65376.8 0 391332 -69520.7 0 389206 -73748.8 0 387391 -77851.9 0 385969 -81465.7 0 385019 -83975.9 0 509267 -1.54972e-06 0 509263 -187.488 0 509251 -375.04 0 509232 -562.721 0 509204 -750.595 0 509169 -938.727 0 509125 -1127.18 0 509074 -1316.03 0 509015 -1505.32 0 508948 -1695.14 0 508873 -1885.54 0 508790 -2076.6 0 508698 -2268.38 0 508599 -2460.95 0 508492 -2654.38 0 508377 -2848.74 0 508253 -3044.11 0 508122 -3240.54 0 507982 -3438.13 0 507834 -3636.93 0 507677 -3837.04 0 507513 -4038.52 0 507340 -4241.46 0 507158 -4445.93 0 506968 -4652.01 0 506769 -4859.8 0 506562 -5069.38 0 506346 -5280.83 0 506121 -5494.24 0 505888 -5709.71 0 505645 -5927.33 0 505394 -6147.2 0 505133 -6369.41 0 504863 -6594.08 0 504584 -6821.3 0 504296 -7051.18 0 503998 -7283.84 0 503691 -7519.39 0 503374 -7757.94 0 503048 -7999.63 0 502711 -8244.58 0 502365 -8492.91 0 502009 -8744.77 0 501642 -9000.29 0 501265 -9259.62 0 500878 -9522.91 0 500480 -9790.31 0 500072 -10062 0 499653 -10338.1 0 499222 -10618.9 0 498781 -10904.4 0 498328 -11194.9 0 497864 -11490.6 0 497388 -11791.7 0 496901 -12098.4 0 496401 -12411 0 495890 -12729.5 0 495366 -13054.4 0 494830 -13385.8 0 494281 -13724.1 0 493719 -14069.4 0 493144 -14422 0 492556 -14782.4 0 491954 -15150.8 0 491339 -15527.4 0 490709 -15912.7 0 490066 -16307.1 0 489408 -16710.9 0 488735 -17124.5 0 488048 -17548.3 0 487345 -17982.8 0 486627 -18428.4 0 485894 -18885.7 0 485144 -19355.1 0 484379 -19837.3 0 483597 -20332.7 0 482798 -20841.9 0 481982 -21365.7 0 481149 -21904.6 0 480299 -22459.5 0 479431 -23031 0 478545 -23620 0 477641 -24227.2 0 476718 -24853.6 0 475776 -25500.1 0 474816 -26167.8 0 473836 -26857.6 0 472837 -27570.7 0 471819 -28308.2 0 470781 -29071.5 0 469723 -29861.8 0 468645 -30680.6 0 467548 -31529.3 0 466431 -32409.5 0 465294 -33322.9 0 464138 -34271.2 0 462962 -35256.3 0 461768 -36280.1 0 460555 -37344.7 0 459324 -38452.2 0 458076 -39605 0 456812 -40805.3 0 455533 -42055.6 0 454241 -43358.5 0 452935 -44716.5 0 451620 -46132.4 0 450296 -47608.8 0 448965 -49148.5 0 447631 -50754.2 0 446297 -52428.4 0 444966 -54173.7 0 443642 -55992.2 0 442328 -57886 0 441031 -59856.7 0 439753 -61905.4 0 438502 -64032.8 0 437282 -66238.9 0 436100 -68523.5 0 434961 -70885.7 0 433873 -73325.4 0 432841 -75843.6 0 431875 -78444.3 0 430984 -81138.4 0 430183 -83948.6 0 429492 -86918.8 0 428946 -90129.1 0 428603 -93719.7 0 428564 -97929.8 0 511845 7.15256e-07 0 511841 -271.104 0 511831 -542.295 0 511813 -813.659 0 511789 -1085.28 0 511757 -1357.25 0 511718 -1629.65 0 511673 -1902.57 0 511620 -2176.1 0 511560 -2450.33 0 511493 -2725.35 0 511419 -3001.24 0 511338 -3278.09 0 511250 -3556 0 511155 -3835.07 0 511052 -4115.37 0 510942 -4397.01 0 510825 -4680.09 0 510701 -4964.7 0 510570 -5250.93 0 510431 -5538.89 0 510285 -5828.68 0 510131 -6120.41 0 509971 -6414.17 0 509802 -6710.07 0 509627 -7008.23 0 509443 -7308.75 0 509253 -7611.74 0 509054 -7917.33 0 508848 -8225.62 0 508634 -8536.75 0 508413 -8850.82 0 508184 -9167.98 0 507947 -9488.34 0 507702 -9812.04 0 507449 -10139.2 0 507189 -10470 0 506920 -10804.6 0 506643 -11143 0 506358 -11485.5 0 506065 -11832.2 0 505763 -12183.3 0 505453 -12538.9 0 505135 -12899.2 0 504809 -13264.4 0 504473 -13634.6 0 504130 -14010.1 0 503777 -14391 0 503416 -14777.5 0 503046 -15169.8 0 502668 -15568.2 0 502280 -15972.8 0 501883 -16383.8 0 501477 -16801.6 0 501063 -17226.3 0 500639 -17658.2 0 500205 -18097.6 0 499762 -18544.6 0 499310 -18999.7 0 498849 -19462.9 0 498378 -19934.8 0 497897 -20415.5 0 497406 -20905.3 0 496906 -21404.7 0 496396 -21913.9 0 495876 -22433.3 0 495346 -22963.2 0 494807 -23504.1 0 494257 -24056.3 0 493697 -24620.2 0 493127 -25196.2 0 492548 -25784.9 0 491958 -26386.5 0 491357 -27001.7 0 490747 -27630.9 0 490127 -28274.6 0 489497 -28933.3 0 488856 -29607.5 0 488206 -30298 0 487546 -31005.1 0 486876 -31729.5 0 486196 -32471.9 0 485507 -33232.9 0 484808 -34013.1 0 484100 -34813.3 0 483383 -35634.1 0 482658 -36476.4 0 481923 -37340.8 0 481181 -38228.1 0 480431 -39139.1 0 479673 -40074.7 0 478909 -41035.6 0 478137 -42022.8 0 477360 -43037 0 476578 -44079.2 0 475791 -45150.2 0 475000 -46251 0 474205 -47382.3 0 473409 -48545.2 0 472611 -49740.5 0 471813 -50969.1 0 471015 -52231.8 0 470220 -53529.4 0 469428 -54862.8 0 468641 -56232.6 0 467860 -57639.7 0 467086 -59084.6 0 466322 -60567.9 0 465570 -62090.2 0 464830 -63651.8 0 464106 -65253.1 0 463399 -66894.4 0 462712 -68575.8 0 462046 -70297.4 0 461405 -72059.1 0 460791 -73860.9 0 460207 -75702.3 0 459655 -77582.7 0 459139 -79501.2 0 458661 -81455.9 0 458224 -83443.9 0 457829 -85459.9 0 457476 -87495 0 457162 -89533.6 0 456878 -91549.8 0 456603 -93499.3 0 456301 -95309.1 0 455902 -96858 0 515301 -8.64267e-07 0 515298 -343.986 0 515289 -688.07 0 515274 -1032.35 0 515253 -1376.93 0 515226 -1721.91 0 515193 -2067.39 0 515155 -2413.46 0 515110 -2760.23 0 515059 -3107.79 0 515002 -3456.26 0 514939 -3805.73 0 514871 -4156.3 0 514796 -4508.09 0 514715 -4861.19 0 514628 -5215.7 0 514535 -5571.75 0 514436 -5929.42 0 514331 -6288.84 0 514219 -6650.12 0 514102 -7013.35 0 513979 -7378.66 0 513849 -7746.17 0 513714 -8115.98 0 513572 -8488.22 0 513424 -8863 0 513270 -9240.44 0 513109 -9620.68 0 512943 -10003.8 0 512770 -10390 0 512591 -10779.4 0 512406 -11172.1 0 512214 -11568.2 0 512016 -11967.8 0 511812 -12371.2 0 511601 -12778.5 0 511385 -13189.7 0 511161 -13605.2 0 510932 -14024.9 0 510696 -14449 0 510453 -14877.8 0 510204 -15311.4 0 509949 -15749.9 0 509688 -16193.5 0 509419 -16642.5 0 509145 -17096.8 0 508864 -17556.9 0 508576 -18022.7 0 508282 -18494.6 0 507981 -18972.7 0 507674 -19457.2 0 507360 -19948.4 0 507040 -20446.3 0 506714 -20951.4 0 506380 -21463.7 0 506041 -21983.4 0 505695 -22510.9 0 505342 -23046.4 0 504983 -23590.1 0 504618 -24142.2 0 504246 -24703.1 0 503867 -25272.9 0 503483 -25852 0 503092 -26440.6 0 502695 -27039 0 502292 -27647.4 0 501882 -28266.3 0 501467 -28895.9 0 501045 -29536.5 0 500618 -30188.3 0 500185 -30851.9 0 499746 -31527.4 0 499302 -32215.2 0 498852 -32915.7 0 498397 -33629.2 0 497937 -34356.1 0 497472 -35096.8 0 497002 -35851.5 0 496527 -36620.8 0 496048 -37404.9 0 495565 -38204.3 0 495077 -39019.4 0 494587 -39850.5 0 494092 -40698.1 0 493595 -41562.7 0 493095 -42444.5 0 492592 -43344 0 492088 -44261.6 0 491582 -45197.7 0 491074 -46152.8 0 490566 -47127.3 0 490058 -48121.4 0 489549 -49135.7 0 489042 -50170.6 0 488536 -51226.3 0 488032 -52303.3 0 487530 -53401.9 0 487032 -54522.4 0 486537 -55665.2 0 486048 -56830.5 0 485563 -58018.7 0 485085 -59229.8 0 484614 -60464.2 0 484151 -61722 0 483697 -63003.4 0 483253 -64308.3 0 482819 -65636.9 0 482397 -66989.2 0 481987 -68364.9 0 481591 -69764.1 0 481210 -71186.5 0 480844 -72631.7 0 480495 -74099.5 0 480163 -75589.3 0 479850 -77100.5 0 479556 -78632.6 0 479281 -80184.7 0 479027 -81756.2 0 478794 -83346.3 0 478583 -84954.5 0 478393 -86580.8 0 478227 -88226.3 0 478086 -89893.9 0 477974 -91589.9 0 477900 -93325.9 0 477876 -95123.5 0 477928 -97019.6 0 478101 -99077.1 0 519506 7.15256e-07 0 519503 -404.525 0 519496 -809.153 0 519484 -1213.99 0 519467 -1619.13 0 519445 -2024.69 0 519419 -2430.76 0 519387 -2837.46 0 519351 -3244.87 0 519310 -3653.12 0 519264 -4062.31 0 519213 -4472.53 0 519158 -4883.9 0 519097 -5296.53 0 519032 -5710.51 0 518962 -6125.97 0 518887 -6543 0 518808 -6961.72 0 518723 -7382.24 0 518634 -7804.67 0 518540 -8229.13 0 518441 -8655.72 0 518337 -9084.56 0 518228 -9515.78 0 518115 -9949.47 0 517996 -10385.8 0 517873 -10824.8 0 517745 -11266.7 0 517613 -11711.5 0 517475 -12159.5 0 517333 -12610.6 0 517186 -13065.1 0 517034 -13523.1 0 516878 -13984.7 0 516716 -14450.1 0 516550 -14919.3 0 516379 -15392.5 0 516204 -15869.9 0 516023 -16351.6 0 515838 -16837.7 0 515649 -17328.4 0 515455 -17823.9 0 515256 -18324.3 0 515052 -18829.6 0 514844 -19340.2 0 514631 -19856.2 0 514414 -20377.6 0 514192 -20904.7 0 513966 -21437.7 0 513736 -21976.7 0 513501 -22521.9 0 513261 -23073.4 0 513017 -23631.5 0 512770 -24196.3 0 512517 -24768 0 512261 -25346.7 0 512001 -25932.8 0 511736 -26526.3 0 511468 -27127.5 0 511196 -27736.5 0 510919 -28353.6 0 510640 -28979 0 510356 -29612.8 0 510069 -30255.3 0 509779 -30906.7 0 509485 -31567.2 0 509188 -32237 0 508888 -32916.4 0 508585 -33605.5 0 508279 -34304.6 0 507970 -35013.9 0 507659 -35733.6 0 507345 -36464 0 507029 -37205.3 0 506712 -37957.7 0 506392 -38721.5 0 506070 -39496.9 0 505748 -40284 0 505424 -41083.2 0 505098 -41894.7 0 504773 -42718.7 0 504446 -43555.4 0 504120 -44405.1 0 503793 -45267.9 0 503467 -46144.1 0 503141 -47034 0 502816 -47937.6 0 502493 -48855.3 0 502171 -49787.2 0 501851 -50733.5 0 501534 -51694.3 0 501219 -52669.9 0 500907 -53660.4 0 500599 -54666 0 500295 -55686.8 0 499995 -56722.9 0 499700 -57774.4 0 499410 -58841.5 0 499126 -59924.1 0 498848 -61022.4 0 498577 -62136.4 0 498313 -63266.2 0 498057 -64411.6 0 497810 -65572.8 0 497571 -66749.6 0 497341 -67942 0 497121 -69149.9 0 496912 -70373.1 0 496714 -71611.7 0 496527 -72865.3 0 496352 -74133.9 0 496190 -75417.2 0 496042 -76715.1 0 495906 -78027.2 0 495786 -79353.5 0 495680 -80693.6 0 495591 -82047.3 0 495517 -83414.3 0 495461 -84794.1 0 495423 -86186.2 0 495403 -87589.7 0 495402 -89002.9 0 495419 -90423.2 0 495453 -91845.9 0 495500 -93263.2 0 495552 -94661.7 0 495594 -96018.9 0 495598 -97297.4 0 524316 -6.55651e-07 0 524314 -452.193 0 524309 -904.487 0 524300 -1356.98 0 524287 -1809.78 0 524270 -2262.97 0 524250 -2716.67 0 524226 -3170.97 0 524198 -3625.98 0 524167 -4081.79 0 524132 -4538.5 0 524094 -4996.23 0 524051 -5455.07 0 524005 -5915.11 0 523956 -6376.48 0 523903 -6839.27 0 523846 -7303.58 0 523786 -7769.52 0 523721 -8237.19 0 523654 -8706.71 0 523583 -9178.17 0 523508 -9651.69 0 523430 -10127.4 0 523348 -10605.3 0 523262 -11085.7 0 523173 -11568.5 0 523081 -12053.9 0 522985 -12542 0 522886 -13033 0 522783 -13526.9 0 522676 -14023.9 0 522567 -14524 0 522454 -15027.5 0 522337 -15534.3 0 522218 -16044.7 0 522095 -16558.7 0 521968 -17076.4 0 521839 -17598.1 0 521706 -18123.8 0 521570 -18653.6 0 521431 -19187.7 0 521289 -19726.2 0 521144 -20269.3 0 520995 -20816.9 0 520844 -21369.4 0 520690 -21926.7 0 520533 -22489.2 0 520373 -23056.8 0 520211 -23629.7 0 520046 -24208.1 0 519878 -24792.1 0 519707 -25381.8 0 519534 -25977.4 0 519359 -26579 0 519181 -27186.7 0 519001 -27800.8 0 518818 -28421.3 0 518634 -29048.5 0 518447 -29682.3 0 518259 -30323.1 0 518068 -30970.9 0 517876 -31625.8 0 517682 -32288.1 0 517487 -32957.9 0 517290 -33635.3 0 517092 -34320.5 0 516893 -35013.7 0 516692 -35714.9 0 516491 -36424.3 0 516289 -37142.1 0 516086 -37868.5 0 515883 -38603.5 0 515680 -39347.3 0 515476 -40100.1 0 515273 -40862 0 515069 -41633.2 0 514866 -42413.7 0 514663 -43203.8 0 514462 -44003.5 0 514261 -44813 0 514061 -45632.4 0 513863 -46461.9 0 513666 -47301.5 0 513471 -48151.4 0 513278 -49011.6 0 513088 -49882.4 0 512900 -50763.7 0 512715 -51655.7 0 512533 -52558.5 0 512354 -53472.1 0 512179 -54396.7 0 512007 -55332.2 0 511840 -56278.8 0 511678 -57236.5 0 511520 -58205.3 0 511368 -59185.2 0 511220 -60176.4 0 511079 -61178.7 0 510943 -62192.2 0 510814 -63216.9 0 510692 -64252.7 0 510576 -65299.6 0 510468 -66357.6 0 510368 -67426.6 0 510276 -68506.5 0 510192 -69597.3 0 510117 -70698.7 0 510050 -71810.8 0 509994 -72933.3 0 509946 -74066.2 0 509909 -75209.2 0 509882 -76362.1 0 509866 -77524.8 0 509861 -78696.9 0 509867 -79878.3 0 509884 -81068.6 0 509912 -82267.6 0 509953 -83474.9 0 510005 -84690.2 0 510069 -85913.4 0 510145 -87144.4 0 510233 -88383.5 0 510334 -89631.7 0 510449 -90891 0 510582 -92165.3 0 510737 -93461.9 0 510923 -94793.1 0 511159 -96180.4 0 529590 6.5565e-07 0 529589 -487.331 0 529585 -974.755 0 529579 -1462.36 0 529569 -1950.25 0 529558 -2438.51 0 529543 -2927.23 0 529527 -3416.51 0 529507 -3906.44 0 529485 -4397.11 0 529460 -4888.61 0 529433 -5381.05 0 529404 -5874.51 0 529371 -6369.08 0 529337 -6864.87 0 529299 -7361.96 0 529259 -7860.46 0 529217 -8360.45 0 529172 -8862.03 0 529125 -9365.29 0 529075 -9870.34 0 529023 -10377.3 0 528969 -10886.2 0 528912 -11397.2 0 528853 -11910.3 0 528791 -12425.7 0 528727 -12943.5 0 528661 -13463.8 0 528592 -13986.6 0 528522 -14512 0 528449 -15040.3 0 528373 -15571.4 0 528296 -16105.5 0 528217 -16642.6 0 528135 -17182.9 0 528052 -17726.5 0 527966 -18273.5 0 527879 -18823.9 0 527789 -19377.9 0 527698 -19935.6 0 527605 -20497.1 0 527510 -21062.5 0 527413 -21631.9 0 527315 -22205.4 0 527215 -22783.1 0 527113 -23365.2 0 527010 -23951.6 0 526905 -24542.6 0 526799 -25138.2 0 526692 -25738.6 0 526583 -26343.9 0 526473 -26954.1 0 526362 -27569.3 0 526250 -28189.8 0 526137 -28815.5 0 526024 -29446.7 0 525909 -30083.3 0 525793 -30725.5 0 525677 -31373.5 0 525561 -32027.3 0 525444 -32687 0 525326 -33352.8 0 525209 -34024.7 0 525091 -34702.8 0 524973 -35387.3 0 524855 -36078.2 0 524738 -36775.7 0 524620 -37479.9 0 524504 -38190.7 0 524387 -38908.5 0 524272 -39633.1 0 524157 -40364.9 0 524043 -41103.7 0 523931 -41849.7 0 523819 -42603.1 0 523709 -43363.8 0 523601 -44132.1 0 523494 -44907.8 0 523390 -45691.2 0 523287 -46482.3 0 523186 -47281.2 0 523088 -48087.8 0 522992 -48902.4 0 522900 -49725 0 522810 -50555.5 0 522723 -51394.2 0 522639 -52240.9 0 522559 -53095.7 0 522483 -53958.8 0 522410 -54830 0 522342 -55709.5 0 522278 -56597.3 0 522218 -57493.3 0 522163 -58397.6 0 522113 -59310.1 0 522069 -60230.9 0 522029 -61160 0 521995 -62097.3 0 521967 -63042.8 0 521945 -63996.4 0 521929 -64958.2 0 521920 -65928.1 0 521917 -66906 0 521921 -67891.8 0 521933 -68885.6 0 521951 -69887.1 0 521977 -70896.4 0 522011 -71913.3 0 522053 -72937.7 0 522103 -73969.5 0 522161 -75008.6 0 522228 -76054.9 0 522303 -77108.3 0 522388 -78168.7 0 522482 -79235.9 0 522585 -80309.8 0 522698 -81390.3 0 522821 -82477.3 0 522954 -83570.6 0 523097 -84669.9 0 523252 -85775 0 523417 -86885.3 0 523592 -87999.8 0 523778 -89117.1 0 523973 -90234.4 0 524174 -91347 0 524374 -92447.2 0 524564 -93521.9 0 535192 -3.27824e-07 0 535191 -510.873 0 535189 -1021.83 0 535185 -1532.95 0 535179 -2044.32 0 535172 -2556.01 0 535163 -3068.12 0 535152 -3580.72 0 535140 -4093.9 0 535126 -4607.74 0 535111 -5122.32 0 535094 -5637.73 0 535076 -6154.04 0 535056 -6671.34 0 535035 -7189.72 0 535012 -7709.25 0 534987 -8230.03 0 534961 -8752.12 0 534934 -9275.62 0 534905 -9800.61 0 534874 -10327.2 0 534843 -10855.4 0 534809 -11385.3 0 534775 -11917.1 0 534739 -12450.8 0 534702 -12986.5 0 534663 -13524.3 0 534623 -14064.2 0 534582 -14606.3 0 534540 -15150.8 0 534497 -15697.7 0 534452 -16247.1 0 534407 -16799.1 0 534360 -17353.7 0 534312 -17911.1 0 534263 -18471.4 0 534214 -19034.5 0 534163 -19600.7 0 534111 -20170 0 534059 -20742.4 0 534006 -21318.1 0 533952 -21897.1 0 533897 -22479.6 0 533842 -23065.5 0 533786 -23655.1 0 533730 -24248.4 0 533673 -24845.4 0 533616 -25446.3 0 533559 -26051 0 533501 -26659.9 0 533443 -27272.8 0 533385 -27889.8 0 533327 -28511.2 0 533269 -29136.9 0 533210 -29767 0 533152 -30401.6 0 533095 -31040.8 0 533037 -31684.6 0 532980 -32333.2 0 532924 -32986.6 0 532867 -33644.9 0 532812 -34308.1 0 532757 -34976.4 0 532704 -35649.8 0 532651 -36328.3 0 532599 -37012.2 0 532548 -37701.3 0 532498 -38395.8 0 532450 -39095.8 0 532403 -39801.2 0 532358 -40512.3 0 532315 -41229 0 532273 -41951.3 0 532233 -42679.5 0 532195 -43413.4 0 532159 -44153.2 0 532126 -44898.9 0 532095 -45650.5 0 532066 -46408.1 0 532040 -47171.8 0 532017 -47941.5 0 531997 -48717.3 0 531980 -49499.3 0 531966 -50287.4 0 531955 -51081.7 0 531948 -51882.3 0 531944 -52689 0 531944 -53502.1 0 531949 -54321.3 0 531957 -55146.9 0 531969 -55978.7 0 531986 -56816.8 0 532007 -57661.2 0 532033 -58511.8 0 532064 -59368.6 0 532099 -60231.7 0 532140 -61101 0 532186 -61976.5 0 532237 -62858.1 0 532295 -63745.8 0 532357 -64639.7 0 532426 -65539.5 0 532501 -66445.3 0 532582 -67357.1 0 532669 -68274.7 0 532763 -69198.1 0 532863 -70127.3 0 532970 -71062.1 0 533084 -72002.5 0 533206 -72948.4 0 533334 -73899.8 0 533470 -74856.4 0 533613 -75818.2 0 533764 -76785.2 0 533922 -77757.1 0 534089 -78733.9 0 534263 -79715.3 0 534445 -80701.4 0 534635 -81691.9 0 534833 -82686.7 0 535039 -83685.8 0 535254 -84689.3 0 535477 -85697.5 0 535709 -86710.9 0 535950 -87731.1 0 536204 -88760.3 0 536473 -89802.9 0 536765 -90866.5 0 540998 -1.04308e-06 0 540998 -524.09 0 540997 -1048.25 0 540995 -1572.55 0 540992 -2097.07 0 540989 -2621.87 0 540984 -3147.03 0 540979 -3672.61 0 540974 -4198.69 0 540967 -4725.34 0 540960 -5252.63 0 540953 -5780.62 0 540944 -6309.4 0 540935 -6839.04 0 540925 -7369.59 0 540915 -7901.14 0 540903 -8433.76 0 540892 -8967.51 0 540879 -9502.46 0 540866 -10038.7 0 540853 -10576.3 0 540839 -11115.3 0 540824 -11655.8 0 540809 -12197.8 0 540793 -12741.5 0 540777 -13286.9 0 540760 -13834 0 540744 -14383 0 540726 -14933.9 0 540709 -15486.8 0 540691 -16041.8 0 540672 -16598.8 0 540654 -17158.1 0 540635 -17719.6 0 540616 -18283.4 0 540597 -18849.7 0 540578 -19418.3 0 540559 -19989.6 0 540539 -20563.4 0 540520 -21139.9 0 540501 -21719.2 0 540482 -22301.2 0 540463 -22886.1 0 540445 -23474 0 540426 -24064.8 0 540408 -24658.8 0 540390 -25255.8 0 540373 -25856.1 0 540356 -26459.6 0 540340 -27066.4 0 540324 -27676.6 0 540309 -28290.3 0 540295 -28907.5 0 540281 -29528.3 0 540268 -30152.7 0 540257 -30780.7 0 540246 -31412.6 0 540236 -32048.2 0 540227 -32687.7 0 540220 -33331.1 0 540214 -33978.5 0 540209 -34629.9 0 540205 -35285.4 0 540203 -35945 0 540203 -36608.7 0 540204 -37276.7 0 540207 -37949 0 540212 -38625.6 0 540219 -39306.5 0 540228 -39991.9 0 540239 -40681.7 0 540252 -41375.9 0 540267 -42074.7 0 540285 -42778.1 0 540305 -43486 0 540328 -44198.5 0 540354 -44915.7 0 540382 -45637.6 0 540413 -46364.1 0 540448 -47095.4 0 540485 -47831.4 0 540525 -48572.2 0 540569 -49317.8 0 540616 -50068.1 0 540667 -50823.3 0 540721 -51583.3 0 540779 -52348.1 0 540841 -53117.7 0 540907 -53892.1 0 540977 -54671.4 0 541051 -55455.4 0 541129 -56244.3 0 541212 -57038 0 541299 -57836.5 0 541391 -58639.7 0 541488 -59447.7 0 541589 -60260.5 0 541696 -61077.9 0 541807 -61900 0 541924 -62726.7 0 542046 -63558.1 0 542173 -64394 0 542306 -65234.5 0 542444 -66079.5 0 542589 -66928.9 0 542739 -67782.7 0 542895 -68640.8 0 543057 -69503.3 0 543225 -70370 0 543400 -71240.8 0 543580 -72115.8 0 543768 -72994.8 0 543961 -73877.8 0 544162 -74764.7 0 544369 -75655.5 0 544583 -76550.1 0 544804 -77448.4 0 545032 -78350.4 0 545267 -79256 0 545510 -80165 0 545760 -81077.5 0 546018 -81993.1 0 546283 -82911.5 0 546555 -83832.2 0 546834 -84754.2 0 547119 -85675.9 0 547408 -86594.6 0 547696 -87505.6 0 546901 3.27829e-07 0 546901 -528.387 0 546901 -1056.83 0 546901 -1585.4 0 546901 -2114.15 0 546901 -2643.13 0 546901 -3172.42 0 546900 -3702.06 0 546900 -4232.12 0 546900 -4762.67 0 546900 -5293.75 0 546900 -5825.42 0 546900 -6357.76 0 546900 -6890.81 0 546900 -7424.64 0 546900 -7959.31 0 546900 -8494.86 0 546900 -9031.38 0 546901 -9568.9 0 546901 -10107.5 0 546902 -10647.2 0 546903 -11188.1 0 546904 -11730.3 0 546905 -12273.8 0 546907 -12818.6 0 546908 -13364.9 0 546910 -13912.6 0 546913 -14461.9 0 546915 -15012.7 0 546918 -15565.2 0 546922 -16119.5 0 546925 -16675.4 0 546930 -17233.2 0 546934 -17792.9 0 546940 -18354.5 0 546946 -18918.1 0 546952 -19483.8 0 546959 -20051.5 0 546967 -20621.4 0 546975 -21193.5 0 546984 -21767.8 0 546994 -22344.5 0 547005 -22923.5 0 547016 -23504.9 0 547029 -24088.8 0 547042 -24675.2 0 547057 -25264.2 0 547072 -25855.8 0 547089 -26450 0 547106 -27047 0 547125 -27646.7 0 547146 -28249.2 0 547167 -28854.6 0 547190 -29462.9 0 547214 -30074.1 0 547240 -30688.3 0 547267 -31305.6 0 547296 -31925.9 0 547327 -32549.3 0 547359 -33175.9 0 547393 -33805.6 0 547429 -34438.6 0 547466 -35074.9 0 547506 -35714.4 0 547548 -36357.3 0 547592 -37003.6 0 547638 -37653.2 0 547686 -38306.3 0 547737 -38962.9 0 547790 -39622.9 0 547846 -40286.5 0 547904 -40953.6 0 547964 -41624.3 0 548028 -42298.5 0 548094 -42976.4 0 548163 -43657.9 0 548235 -44343.1 0 548310 -45031.9 0 548388 -45724.4 0 548469 -46420.6 0 548553 -47120.5 0 548641 -47824.2 0 548732 -48531.5 0 548827 -49242.6 0 548925 -49957.4 0 549027 -50675.9 0 549133 -51398.2 0 549243 -52124.3 0 549356 -52854 0 549473 -53587.5 0 549595 -54324.7 0 549721 -55065.6 0 549851 -55810.2 0 549985 -56558.5 0 550124 -57310.5 0 550267 -58066.1 0 550415 -58825.4 0 550568 -59588.2 0 550725 -60354.7 0 550887 -61124.7 0 551054 -61898.3 0 551227 -62675.4 0 551404 -63455.9 0 551586 -64239.9 0 551774 -65027.3 0 551967 -65818.1 0 552166 -66612.2 0 552370 -67409.6 0 552579 -68210.3 0 552795 -69014.1 0 553016 -69821.1 0 553243 -70631.2 0 553475 -71444.4 0 553714 -72260.5 0 553959 -73079.6 0 554209 -73901.6 0 554466 -74726.3 0 554729 -75553.8 0 554998 -76384 0 555274 -77216.8 0 555555 -78052.2 0 555843 -78890.1 0 556138 -79730.7 0 556439 -80574.2 0 556747 -81421 0 557062 -82271.8 0 557387 -83128.3 0 557724 -83993 0 552809 -3.27824e-07 0 552809 -525.158 0 552810 -1050.36 0 552811 -1575.67 0 552813 -2101.13 0 552816 -2626.78 0 552819 -3152.68 0 552823 -3678.88 0 552828 -4205.42 0 552833 -4732.36 0 552838 -5259.74 0 552845 -5787.61 0 552852 -6316.03 0 552859 -6845.04 0 552867 -7374.69 0 552876 -7905.03 0 552886 -8436.11 0 552896 -8967.97 0 552907 -9500.67 0 552919 -10034.3 0 552932 -10568.8 0 552945 -11104.2 0 552959 -11640.8 0 552974 -12178.3 0 552989 -12717.1 0 553006 -13256.9 0 553023 -13798 0 553041 -14340.4 0 553061 -14884 0 553081 -15429 0 553102 -15975.4 0 553124 -16523.2 0 553147 -17072.6 0 553171 -17623.4 0 553196 -18175.9 0 553222 -18729.9 0 553249 -19285.7 0 553278 -19843.1 0 553308 -20402.3 0 553339 -20963.2 0 553371 -21526 0 553404 -22090.7 0 553439 -22657.3 0 553476 -23225.8 0 553513 -23796.3 0 553552 -24368.9 0 553593 -24943.6 0 553635 -25520.3 0 553679 -26099.2 0 553724 -26680.3 0 553771 -27263.6 0 553820 -27849.1 0 553870 -28437 0 553922 -29027.2 0 553976 -29619.7 0 554032 -30214.6 0 554090 -30811.9 0 554150 -31411.7 0 554212 -32014 0 554276 -32618.8 0 554342 -33226.1 0 554411 -33836 0 554481 -34448.5 0 554554 -35063.6 0 554630 -35681.4 0 554707 -36301.8 0 554788 -36924.9 0 554870 -37550.7 0 554956 -38179.3 0 555044 -38810.6 0 555134 -39444.6 0 555228 -40081.5 0 555324 -40721.2 0 555423 -41363.7 0 555526 -42009 0 555631 -42657.1 0 555739 -43308.2 0 555851 -43962 0 555965 -44618.8 0 556083 -45278.4 0 556204 -45941 0 556329 -46606.4 0 556457 -47274.7 0 556589 -47945.9 0 556724 -48620.1 0 556863 -49297.1 0 557006 -49977 0 557152 -50659.8 0 557302 -51345.5 0 557457 -52034.1 0 557615 -52725.5 0 557777 -53419.8 0 557944 -54117 0 558114 -54817 0 558289 -55519.9 0 558469 -56225.5 0 558652 -56934 0 558840 -57645.3 0 559033 -58359.3 0 559230 -59076 0 559432 -59795.5 0 559639 -60517.6 0 559850 -61242.5 0 560066 -61970 0 560287 -62700.1 0 560513 -63432.7 0 560745 -64168 0 560981 -64905.8 0 561222 -65646 0 561469 -66388.8 0 561720 -67133.9 0 561978 -67881.5 0 562240 -68631.4 0 562508 -69383.6 0 562782 -70138.1 0 563061 -70894.9 0 563345 -71653.8 0 563636 -72415 0 563932 -73178.2 0 564233 -73943.6 0 564541 -74711 0 564855 -75480.3 0 565174 -76251.5 0 565500 -77024.2 0 565831 -77798.3 0 566168 -78573 0 566509 -79347.5 0 566853 -80120.1 0 558644 5.95992e-08 0 558645 -515.703 0 558647 -1031.45 0 558649 -1547.27 0 558653 -2063.21 0 558658 -2579.32 0 558664 -3095.63 0 558671 -3612.17 0 558679 -4129 0 558689 -4646.15 0 558699 -5163.66 0 558711 -5681.57 0 558723 -6199.92 0 558737 -6718.75 0 558752 -7238.1 0 558768 -7758.01 0 558785 -8278.52 0 558804 -8799.66 0 558824 -9321.48 0 558845 -9844.01 0 558867 -10367.3 0 558890 -10891.4 0 558915 -11416.3 0 558941 -11942.1 0 558968 -12468.7 0 558996 -12996.4 0 559026 -13525 0 559057 -14054.6 0 559090 -14585.3 0 559124 -15117 0 559159 -15649.9 0 559196 -16184 0 559234 -16719.2 0 559274 -17255.7 0 559315 -17793.4 0 559358 -18332.5 0 559402 -18872.9 0 559448 -19414.6 0 559496 -19957.8 0 559545 -20502.3 0 559596 -21048.4 0 559648 -21596 0 559703 -22145 0 559759 -22695.7 0 559817 -23247.9 0 559876 -23801.8 0 559938 -24357.3 0 560001 -24914.5 0 560067 -25473.4 0 560134 -26034.1 0 560203 -26596.5 0 560275 -27160.7 0 560348 -27726.7 0 560424 -28294.5 0 560502 -28864.3 0 560582 -29435.9 0 560664 -30009.4 0 560749 -30584.9 0 560836 -31162.3 0 560925 -31741.7 0 561017 -32323.2 0 561111 -32906.6 0 561207 -33492.1 0 561307 -34079.6 0 561408 -34669.2 0 561513 -35260.9 0 561620 -35854.8 0 561730 -36450.7 0 561842 -37048.8 0 561958 -37649 0 562076 -38251.4 0 562197 -38856 0 562322 -39462.7 0 562449 -40071.7 0 562579 -40682.9 0 562713 -41296.2 0 562849 -41911.8 0 562989 -42529.7 0 563132 -43149.7 0 563279 -43772 0 563429 -44396.5 0 563582 -45023.3 0 563739 -45652.3 0 563899 -46283.5 0 564063 -46917 0 564230 -47552.7 0 564402 -48190.7 0 564577 -48830.9 0 564755 -49473.3 0 564938 -50117.9 0 565125 -50764.8 0 565315 -51413.8 0 565510 -52065 0 565708 -52718.5 0 565911 -53374 0 566118 -54031.8 0 566329 -54691.7 0 566544 -55353.7 0 566764 -56017.8 0 566988 -56684.1 0 567217 -57352.4 0 567450 -58022.8 0 567687 -58695.2 0 567929 -59369.6 0 568176 -60