<?xml version="1.0"?> 
<VTKFile type="StructuredGrid" version="0.1"> 
<StructuredGrid WholeExtent="0 127 0 127 0 0"> 
<Piece Extent="0 127 0 127 0 0"> 
<PointData>
<DataArray type="Float32" Name="u" format="ascii" NumberOfComponents="3"> 
-2.10803e+06 0 0 -2.10812e+06 2963.93 0 -2.10837e+06 5928.49 0 -2.1088e+06 8894.32 0 -2.1094e+06 11862.1 0 -2.11017e+06 14832.4 0 -2.11112e+06 17805.8 0 -2.11223e+06 20783.2 0 -2.11352e+06 23764.9 0 -2.11498e+06 26751.9 0 -2.11662e+06 29744.6 0 -2.11842e+06 32743.7 0 -2.1204e+06 35749.9 0 -2.12256e+06 38764 0 -2.12488e+06 41786.4 0 -2.12739e+06 44818 0 -2.13006e+06 47859.4 0 -2.13292e+06 50911.3 0 -2.13595e+06 53974.4 0 -2.13916e+06 57049.4 0 -2.14254e+06 60137 0 -2.14611e+06 63238 0 -2.14985e+06 66353.1 0 -2.15378e+06 69483.1 0 -2.15788e+06 72628.7 0 -2.16217e+06 75790.6 0 -2.16664e+06 78969.7 0 -2.17129e+06 82166.8 0 -2.17613e+06 85382.6 0 -2.18115e+06 88618 0 -2.18636e+06 91873.8 0 -2.19176e+06 95150.9 0 -2.19735e+06 98450 0 -2.20313e+06 101772 0 -2.2091e+06 105118 0 -2.21526e+06 108489 0 -2.22162e+06 111885 0 -2.22817e+06 115308 0 -2.23492e+06 118759 0 -2.24188e+06 122238 0 -2.24903e+06 125747 0 -2.25638e+06 129286 0 -2.26394e+06 132856 0 -2.27171e+06 136459 0 -2.27968e+06 140096 0 -2.28786e+06 143767 0 -2.29626e+06 147474 0 -2.30487e+06 151217 0 -2.3137e+06 154998 0 -2.32274e+06 158818 0 -2.33201e+06 162678 0 -2.3415e+06 166578 0 -2.35121e+06 170521 0 -2.36116e+06 174507 0 -2.37134e+06 178536 0 -2.38175e+06 182611 0 -2.39239e+06 186733 0 -2.40328e+06 190901 0 -2.41441e+06 195118 0 -2.42579e+06 199383 0 -2.43742e+06 203699 0 -2.4493e+06 208066 0 -2.46144e+06 212485 0 -2.47383e+06 216956 0 -2.4865e+06 221480 0 -2.49943e+06 226057 0 -2.51263e+06 230689 0 -2.52611e+06 235375 0 -2.53987e+06 240116 0 -2.55392e+06 244911 0 -2.56826e+06 249760 0 -2.5829e+06 254663 0 -2.59783e+06 259619 0 -2.61307e+06 264627 0 -2.62863e+06 269686 0 -2.6445e+06 274794 0 -2.66069e+06 279949 0 -2.67722e+06 285148 0 -2.69408e+06 290389 0 -2.71128e+06 295667 0 -2.72884e+06 300978 0 -2.74675e+06 306317 0 -2.76503e+06 311679 0 -2.78368e+06 317055 0 -2.80271e+06 322439 0 -2.82212e+06 327821 0 -2.84194e+06 333191 0 -2.86216e+06 338536 0 -2.8828e+06 343843 0 -2.90386e+06 349097 0 -2.92535e+06 354280 0 -2.94729e+06 359373 0 -2.96968e+06 364353 0 -2.99253e+06 369195 0 -3.01586e+06 373872 0 -3.03966e+06 378351 0 -3.06395e+06 382597 0 -3.08873e+06 386570 0 -3.11402e+06 390227 0 -3.13981e+06 393518 0 -3.16611e+06 396389 0 -3.19291e+06 398779 0 -3.22023e+06 400620 0 -3.24804e+06 401840 0 -3.27633e+06 402357 0 -3.30509e+06 402082 0 -3.33429e+06 400919 0 -3.36389e+06 398763 0 -3.39385e+06 395504 0 -3.4241e+06 391020 0 -3.45456e+06 385189 0 -3.48515e+06 377878 0 -3.51575e+06 368957 0 -3.54621e+06 358292 0 -3.57638e+06 345755 0 -3.60604e+06 331228 0 -3.635e+06 314605 0 -3.66298e+06 295804 0 -3.68972e+06 274772 0 -3.7149e+06 251494 0 -3.7382e+06 225999 0 -3.75929e+06 198372 0 -3.77785e+06 168755 0 -3.79354e+06 137353 0 -3.80608e+06 104431 0 -3.81522e+06 70312.5 0 -3.82079e+06 35367 0 -3.82266e+06 0.276859 0 -2.10779e+06 0 0 -2.10788e+06 2956.06 0 -2.10813e+06 5912.75 0 -2.10855e+06 8870.69 0 -2.10915e+06 11830.5 0 -2.10991e+06 14792.8 0 -2.11084e+06 17758.3 0 -2.11193e+06 20727.5 0 -2.1132e+06 23701.1 0 -2.11464e+06 26679.8 0 -2.11625e+06 29664.1 0 -2.11803e+06 32654.8 0 -2.11998e+06 35652.4 0 -2.1221e+06 38657.7 0 -2.1244e+06 41671.3 0 -2.12686e+06 44693.8 0 -2.1295e+06 47726 0 -2.13231e+06 50768.4 0 -2.1353e+06 53821.9 0 -2.13846e+06 56887.1 0 -2.14179e+06 59964.7 0 -2.14531e+06 63055.5 0 -2.14899e+06 66160.1 0 -2.15286e+06 69279.2 0 -2.1569e+06 72413.7 0 -2.16112e+06 75564.3 0 -2.16553e+06 78731.7 0 -2.17011e+06 81916.7 0 -2.17487e+06 85120.1 0 -2.17982e+06 88342.8 0 -2.18495e+06 91585.5 0 -2.19027e+06 94849 0 -2.19577e+06 98134.3 0 -2.20146e+06 101442 0 -2.20734e+06 104773 0 -2.21341e+06 108129 0 -2.21967e+06 111509 0 -2.22612e+06 114916 0 -2.23277e+06 118350 0 -2.23961e+06 121812 0 -2.24665e+06 125303 0 -2.25389e+06 128823 0 -2.26133e+06 132375 0 -2.26898e+06 135958 0 -2.27682e+06 139574 0 -2.28488e+06 143224 0 -2.29314e+06 146909 0 -2.30161e+06 150630 0 -2.3103e+06 154388 0 -2.3192e+06 158184 0 -2.32832e+06 162019 0 -2.33765e+06 165894 0 -2.34721e+06 169810 0 -2.35699e+06 173769 0 -2.367e+06 177771 0 -2.37724e+06 181817 0 -2.38771e+06 185908 0 -2.39842e+06 190046 0 -2.40937e+06 194232 0 -2.42055e+06 198466 0 -2.43199e+06 202749 0 -2.44367e+06 207082 0 -2.4556e+06 211466 0 -2.46778e+06 215901 0 -2.48023e+06 220389 0 -2.49294e+06 224930 0 -2.50591e+06 229524 0 -2.51916e+06 234172 0 -2.53268e+06 238875 0 -2.54648e+06 243631 0 -2.56056e+06 248441 0 -2.57494e+06 253305 0 -2.58961e+06 258221 0 -2.60457e+06 263191 0 -2.61984e+06 268211 0 -2.63543e+06 273281 0 -2.65132e+06 278399 0 -2.66754e+06 283563 0 -2.68409e+06 288770 0 -2.70097e+06 294016 0 -2.7182e+06 299298 0 -2.73577e+06 304612 0 -2.7537e+06 309951 0 -2.77199e+06 315310 0 -2.79065e+06 320682 0 -2.80969e+06 326058 0 -2.82912e+06 331429 0 -2.84894e+06 336784 0 -2.86917e+06 342111 0 -2.88981e+06 347397 0 -2.91087e+06 352624 0 -2.93237e+06 357777 0 -2.95431e+06 362833 0 -2.9767e+06 367772 0 -2.99954e+06 372566 0 -3.02286e+06 377189 0 -3.04666e+06 381607 0 -3.07094e+06 385784 0 -3.09571e+06 389681 0 -3.12099e+06 393253 0 -3.14676e+06 396450 0 -3.17305e+06 399217 0 -3.19984e+06 401493 0 -3.22713e+06 403209 0 -3.25491e+06 404292 0 -3.28318e+06 404661 0 -3.3119e+06 404225 0 -3.34106e+06 402887 0 -3.37061e+06 400545 0 -3.40052e+06 397084 0 -3.4307e+06 392387 0 -3.4611e+06 386327 0 -3.4916e+06 378777 0 -3.5221e+06 369603 0 -3.55245e+06 358675 0 -3.58248e+06 345867 0 -3.612e+06 331062 0 -3.64078e+06 314157 0 -3.66857e+06 295075 0 -3.69509e+06 273765 0 -3.72004e+06 250217 0 -3.74309e+06 224467 0 -3.76391e+06 196602 0 -3.78217e+06 166771 0 -3.79756e+06 135181 0 -3.8098e+06 102103 0 -3.81864e+06 67860.2 0 -3.82391e+06 32825.8 0 -2.10756e+06 0 0 -2.10764e+06 2948 0 -2.10789e+06 5896.61 0 -2.1083e+06 8846.45 0 -2.10889e+06 11798.1 0 -2.10964e+06 14752.3 0 -2.11055e+06 17709.5 0 -2.11163e+06 20670.4 0 -2.11288e+06 23635.7 0 -2.1143e+06 26605.9 0 -2.11589e+06 29581.6 0 -2.11764e+06 32563.6 0 -2.11956e+06 35552.5 0 -2.12165e+06 38548.8 0 -2.12391e+06 41553.3 0 -2.12634e+06 44566.6 0 -2.12894e+06 47589.4 0 -2.13171e+06 50622.3 0 -2.13465e+06 53666 0 -2.13776e+06 56721.2 0 -2.14105e+06 59788.5 0 -2.14451e+06 62868.8 0 -2.14814e+06 65962.7 0 -2.15194e+06 69070.8 0 -2.15593e+06 72194.1 0 -2.16008e+06 75333.1 0 -2.16442e+06 78488.6 0 -2.16893e+06 81661.4 0 -2.17363e+06 84852.3 0 -2.1785e+06 88062.1 0 -2.18355e+06 91291.5 0 -2.18878e+06 94541.4 0 -2.1942e+06 97812.5 0 -2.19981e+06 101106 0 -2.20559e+06 104422 0 -2.21157e+06 107762 0 -2.21773e+06 111127 0 -2.22408e+06 114517 0 -2.23063e+06 117934 0 -2.23736e+06 121379 0 -2.2443e+06 124851 0 -2.25142e+06 128353 0 -2.25874e+06 131885 0 -2.26627e+06 135449 0 -2.27399e+06 139045 0 -2.28192e+06 142673 0 -2.29005e+06 146337 0 -2.29838e+06 150035 0 -2.30693e+06 153770 0 -2.31569e+06 157542 0 -2.32465e+06 161352 0 -2.33384e+06 165201 0 -2.34324e+06 169091 0 -2.35286e+06 173023 0 -2.36271e+06 176997 0 -2.37278e+06 181014 0 -2.38308e+06 185076 0 -2.3936e+06 189184 0 -2.40437e+06 193338 0 -2.41537e+06 197540 0 -2.4266e+06 201790 0 -2.43809e+06 206089 0 -2.44981e+06 210438 0 -2.46179e+06 214838 0 -2.47402e+06 219290 0 -2.48651e+06 223794 0 -2.49926e+06 228351 0 -2.51227e+06 232961 0 -2.52556e+06 237624 0 -2.53911e+06 242341 0 -2.55295e+06 247112 0 -2.56706e+06 251936 0 -2.58147e+06 256813 0 -2.59616e+06 261742 0 -2.61115e+06 266723 0 -2.62645e+06 271755 0 -2.64205e+06 276835 0 -2.65797e+06 281961 0 -2.67421e+06 287132 0 -2.69078e+06 292345 0 -2.70767e+06 297596 0 -2.72491e+06 302881 0 -2.74249e+06 308195 0 -2.76043e+06 313533 0 -2.77873e+06 318888 0 -2.7974e+06 324254 0 -2.81645e+06 329621 0 -2.83588e+06 334980 0 -2.8557e+06 340320 0 -2.87593e+06 345628 0 -2.89657e+06 350891 0 -2.91763e+06 356092 0 -2.93912e+06 361212 0 -2.96105e+06 366233 0 -2.98343e+06 371129 0 -3.00627e+06 375876 0 -3.02958e+06 380445 0 -3.05336e+06 384803 0 -3.07763e+06 388914 0 -3.10238e+06 392736 0 -3.12764e+06 396226 0 -3.15339e+06 399332 0 -3.17965e+06 401999 0 -3.20642e+06 404165 0 -3.23368e+06 405762 0 -3.26143e+06 406716 0 -3.28966e+06 406943 0 -3.31834e+06 406355 0 -3.34745e+06 404855 0 -3.37696e+06 402337 0 -3.4068e+06 398690 0 -3.43692e+06 393794 0 -3.46724e+06 387524 0 -3.49765e+06 379753 0 -3.52805e+06 370349 0 -3.55828e+06 359182 0 -3.58819e+06 346128 0 -3.61756e+06 331073 0 -3.64618e+06 313916 0 -3.6738e+06 294583 0 -3.70012e+06 273027 0 -3.72485e+06 249243 0 -3.74767e+06 223268 0 -3.76825e+06 195197 0 -3.78626e+06 165180 0 -3.8014e+06 133429 0 -3.81337e+06 100216 0 -3.82196e+06 65868.1 0 -2.10732e+06 0 0 -2.1074e+06 2939.73 0 -2.10764e+06 5880.07 0 -2.10805e+06 8821.61 0 -2.10863e+06 11765 0 -2.10936e+06 14710.7 0 -2.11027e+06 17659.5 0 -2.11133e+06 20611.9 0 -2.11256e+06 23568.6 0 -2.11396e+06 26530.2 0 -2.11552e+06 29497.2 0 -2.11725e+06 32470.3 0 -2.11914e+06 35450.1 0 -2.1212e+06 38437.4 0 -2.12343e+06 41432.6 0 -2.12582e+06 44436.4 0 -2.12838e+06 47449.6 0 -2.13111e+06 50472.7 0 -2.134e+06 53506.4 0 -2.13707e+06 56551.4 0 -2.1403e+06 59608.4 0 -2.14371e+06 62678 0 -2.14729e+06 65761 0 -2.15104e+06 68858 0 -2.15496e+06 71969.8 0 -2.15905e+06 75097 0 -2.16332e+06 78240.5 0 -2.16776e+06 81401 0 -2.17238e+06 84579.2 0 -2.17718e+06 87775.9 0 -2.18216e+06 90991.9 0 -2.18731e+06 94227.9 0 -2.19265e+06 97484.8 0 -2.19816e+06 100763 0 -2.20386e+06 104065 0 -2.20974e+06 107389 0 -2.21581e+06 110738 0 -2.22206e+06 114112 0 -2.2285e+06 117512 0 -2.23513e+06 120938 0 -2.24195e+06 124393 0 -2.24897e+06 127876 0 -2.25617e+06 131389 0 -2.26358e+06 134933 0 -2.27118e+06 138508 0 -2.27898e+06 142115 0 -2.28698e+06 145757 0 -2.29518e+06 149432 0 -2.30359e+06 153144 0 -2.3122e+06 156892 0 -2.32102e+06 160677 0 -2.33006e+06 164501 0 -2.3393e+06 168365 0 -2.34877e+06 172269 0 -2.35845e+06 176215 0 -2.36835e+06 180204 0 -2.37848e+06 184236 0 -2.38883e+06 188313 0 -2.39941e+06 192436 0 -2.41022e+06 196606 0 -2.42127e+06 200822 0 -2.43256e+06 205088 0 -2.44408e+06 209402 0 -2.45586e+06 213767 0 -2.46787e+06 218183 0 -2.48014e+06 222650 0 -2.49267e+06 227169 0 -2.50546e+06 231740 0 -2.5185e+06 236365 0 -2.53182e+06 241042 0 -2.5454e+06 245773 0 -2.55927e+06 250557 0 -2.57341e+06 255393 0 -2.58784e+06 260283 0 -2.60256e+06 265223 0 -2.61757e+06 270215 0 -2.63289e+06 275256 0 -2.64851e+06 280344 0 -2.66444e+06 285478 0 -2.68069e+06 290656 0 -2.69727e+06 295873 0 -2.71418e+06 301127 0 -2.73142e+06 306413 0 -2.74901e+06 311727 0 -2.76695e+06 317062 0 -2.78526e+06 322412 0 -2.80392e+06 327770 0 -2.82297e+06 333127 0 -2.8424e+06 338473 0 -2.86222e+06 343797 0 -2.88244e+06 349085 0 -2.90307e+06 354325 0 -2.92412e+06 359498 0 -2.9456e+06 364587 0 -2.96752e+06 369570 0 -2.98988e+06 374425 0 -3.01271e+06 379126 0 -3.03599e+06 383642 0 -3.05976e+06 387941 0 -3.084e+06 391986 0 -3.10873e+06 395737 0 -3.13396e+06 399147 0 -3.15969e+06 402166 0 -3.18592e+06 404737 0 -3.21265e+06 406799 0 -3.23987e+06 408284 0 -3.26759e+06 409115 0 -3.29577e+06 409210 0 -3.32441e+06 408481 0 -3.35347e+06 406828 0 -3.38291e+06 404148 0 -3.41269e+06 400329 0 -3.44274e+06 395251 0 -3.47297e+06 388790 0 -3.5033e+06 380819 0 -3.5336e+06 371207 0 -3.56372e+06 359826 0 -3.5935e+06 346553 0 -3.62274e+06 331276 0 -3.65121e+06 313897 0 -3.67866e+06 294345 0 -3.70481e+06 272576 0 -3.72935e+06 248587 0 -3.75197e+06 222421 0 -3.77234e+06 194174 0 -3.79013e+06 163999 0 -3.80505e+06 132113 0 -3.81682e+06 98787.9 0 -2.10707e+06 0 0 -2.10715e+06 2931.26 0 -2.1074e+06 5863.11 0 -2.1078e+06 8796.15 0 -2.10837e+06 11731 0 -2.10909e+06 14668.2 0 -2.10998e+06 17608.3 0 -2.11103e+06 20552.1 0 -2.11224e+06 23500 0 -2.11362e+06 26452.6 0 -2.11516e+06 29410.7 0 -2.11686e+06 32374.7 0 -2.11872e+06 35345.4 0 -2.12075e+06 38323.3 0 -2.12294e+06 41309 0 -2.1253e+06 44303.3 0 -2.12782e+06 47306.6 0 -2.13051e+06 50319.8 0 -2.13336e+06 53343.3 0 -2.13638e+06 56377.9 0 -2.13956e+06 59424.3 0 -2.14292e+06 62483.1 0 -2.14644e+06 65555 0 -2.15013e+06 68640.6 0 -2.15399e+06 71740.8 0 -2.15802e+06 74856.2 0 -2.16223e+06 77987.4 0 -2.1666e+06 81135.4 0 -2.17115e+06 84300.7 0 -2.17587e+06 87484.2 0 -2.18077e+06 90686.6 0 -2.18585e+06 93908.6 0 -2.1911e+06 97151.2 0 -2.19653e+06 100415 0 -2.20214e+06 103701 0 -2.20793e+06 107010 0 -2.2139e+06 110342 0 -2.22005e+06 113700 0 -2.22639e+06 117082 0 -2.23292e+06 120491 0 -2.23963e+06 123928 0 -2.24653e+06 127392 0 -2.25362e+06 130886 0 -2.26091e+06 134409 0 -2.26839e+06 137964 0 -2.27606e+06 141550 0 -2.28393e+06 145169 0 -2.292e+06 148822 0 -2.30027e+06 152510 0 -2.30874e+06 156234 0 -2.31742e+06 159995 0 -2.32631e+06 163793 0 -2.3354e+06 167630 0 -2.34471e+06 171508 0 -2.35423e+06 175426 0 -2.36397e+06 179386 0 -2.37392e+06 183388 0 -2.3841e+06 187435 0 -2.3945e+06 191526 0 -2.40513e+06 195663 0 -2.41599e+06 199847 0 -2.42708e+06 204079 0 -2.43841e+06 208359 0 -2.44998e+06 212688 0 -2.46179e+06 217067 0 -2.47384e+06 221497 0 -2.48615e+06 225978 0 -2.4987e+06 230511 0 -2.51152e+06 235096 0 -2.5246e+06 239734 0 -2.53794e+06 244424 0 -2.55155e+06 249168 0 -2.56544e+06 253964 0 -2.5796e+06 258812 0 -2.59405e+06 263712 0 -2.60879e+06 268663 0 -2.62382e+06 273664 0 -2.63915e+06 278713 0 -2.65478e+06 283808 0 -2.67072e+06 288949 0 -2.68698e+06 294131 0 -2.70357e+06 299351 0 -2.72048e+06 304607 0 -2.73772e+06 309893 0 -2.75531e+06 315205 0 -2.77325e+06 320536 0 -2.79155e+06 325880 0 -2.81022e+06 331230 0 -2.82925e+06 336575 0 -2.84867e+06 341907 0 -2.86848e+06 347214 0 -2.88869e+06 352482 0 -2.90931e+06 357697 0 -2.93034e+06 362842 0 -2.9518e+06 367899 0 -2.9737e+06 372846 0 -2.99605e+06 377660 0 -3.01884e+06 382315 0 -3.04211e+06 386779 0 -3.06584e+06 391021 0 -3.09006e+06 395004 0 -3.11476e+06 398685 0 -3.13996e+06 402018 0 -3.16565e+06 404954 0 -3.19184e+06 407435 0 -3.21853e+06 409399 0 -3.24571e+06 410777 0 -3.27337e+06 411494 0 -3.30151e+06 411467 0 -3.33009e+06 410606 0 -3.35909e+06 408814 0 -3.38847e+06 405986 0 -3.41818e+06 402010 0 -3.44815e+06 396767 0 -3.4783e+06 390135 0 -3.50854e+06 381985 0 -3.53874e+06 372189 0 -3.56875e+06 360619 0 -3.59841e+06 347155 0 -3.62752e+06 331685 0 -3.65585e+06 314116 0 -3.68316e+06 294377 0 -3.70915e+06 272427 0 -3.73352e+06 248267 0 -3.75597e+06 221942 0 -3.77617e+06 193549 0 -3.79379e+06 163247 0 -3.80853e+06 131250 0 -2.10683e+06 0 0 -2.10691e+06 2922.59 0 -2.10715e+06 5845.76 0 -2.10755e+06 8770.09 0 -2.1081e+06 11696.2 0 -2.10882e+06 14624.6 0 -2.1097e+06 17555.9 0 -2.11073e+06 20490.7 0 -2.11192e+06 23429.7 0 -2.11328e+06 26373.3 0 -2.11479e+06 29322.2 0 -2.11647e+06 32277 0 -2.1183e+06 35238.3 0 -2.1203e+06 38206.6 0 -2.12246e+06 41182.7 0 -2.12478e+06 44167.1 0 -2.12726e+06 47160.5 0 -2.12991e+06 50163.5 0 -2.13272e+06 53176.7 0 -2.13569e+06 56200.7 0 -2.13883e+06 59236.3 0 -2.14213e+06 62284.1 0 -2.1456e+06 65344.7 0 -2.14923e+06 68418.8 0 -2.15303e+06 71507.2 0 -2.157e+06 74610.5 0 -2.16114e+06 77729.4 0 -2.16545e+06 80864.6 0 -2.16992e+06 84016.9 0 -2.17457e+06 87187 0 -2.1794e+06 90375.6 0 -2.18439e+06 93583.6 0 -2.18956e+06 96811.6 0 -2.1949e+06 100060 0 -2.20042e+06 103331 0 -2.20612e+06 106624 0 -2.212e+06 109940 0 -2.21806e+06 113281 0 -2.2243e+06 116646 0 -2.23072e+06 120037 0 -2.23732e+06 123455 0 -2.24411e+06 126901 0 -2.25109e+06 130375 0 -2.25826e+06 133878 0 -2.26562e+06 137412 0 -2.27316e+06 140977 0 -2.28091e+06 144574 0 -2.28884e+06 148205 0 -2.29698e+06 151869 0 -2.30531e+06 155569 0 -2.31385e+06 159305 0 -2.32259e+06 163077 0 -2.33153e+06 166888 0 -2.34068e+06 170738 0 -2.35004e+06 174628 0 -2.35962e+06 178559 0 -2.3694e+06 182532 0 -2.37941e+06 186548 0 -2.38963e+06 190608 0 -2.40008e+06 194713 0 -2.41075e+06 198864 0 -2.42165e+06 203062 0 -2.43279e+06 207307 0 -2.44415e+06 211600 0 -2.45575e+06 215943 0 -2.4676e+06 220336 0 -2.47969e+06 224779 0 -2.49202e+06 229273 0 -2.50461e+06 233819 0 -2.51745e+06 238417 0 -2.53055e+06 243067 0 -2.54392e+06 247769 0 -2.55755e+06 252524 0 -2.57145e+06 257331 0 -2.58563e+06 262189 0 -2.6001e+06 267099 0 -2.61485e+06 272059 0 -2.62989e+06 277067 0 -2.64522e+06 282123 0 -2.66086e+06 287225 0 -2.67681e+06 292370 0 -2.69307e+06 297555 0 -2.70966e+06 302778 0 -2.72657e+06 308034 0 -2.74381e+06 313319 0 -2.7614e+06 318627 0 -2.77933e+06 323954 0 -2.79762e+06 329291 0 -2.81627e+06 334630 0 -2.8353e+06 339964 0 -2.8547e+06 345281 0 -2.87449e+06 350569 0 -2.89468e+06 355816 0 -2.91528e+06 361007 0 -2.93629e+06 366124 0 -2.95773e+06 371149 0 -2.9796e+06 376061 0 -3.00191e+06 380834 0 -3.02468e+06 385443 0 -3.04791e+06 389858 0 -3.07161e+06 394045 0 -3.09579e+06 397967 0 -3.12045e+06 401581 0 -3.14561e+06 404843 0 -3.17126e+06 407700 0 -3.1974e+06 410096 0 -3.22404e+06 411968 0 -3.25117e+06 413248 0 -3.27878e+06 413859 0 -3.30686e+06 413719 0 -3.33538e+06 412738 0 -3.36432e+06 410819 0 -3.39363e+06 407857 0 -3.42326e+06 403741 0 -3.45315e+06 398352 0 -3.48322e+06 391568 0 -3.51336e+06 383261 0 -3.54346e+06 373305 0 -3.57337e+06 361573 0 -3.60292e+06 347946 0 -3.63191e+06 332315 0 -3.66012e+06 314586 0 -3.68729e+06 294692 0 -3.71314e+06 272596 0 -3.73738e+06 248297 0 -3.75968e+06 221845 0 -3.77974e+06 193339 0 -3.79722e+06 162936 0 -2.10659e+06 0 0 -2.10667e+06 2913.71 0 -2.1069e+06 5828 0 -2.10729e+06 8743.43 0 -2.10784e+06 11660.6 0 -2.10855e+06 14580 0 -2.10941e+06 17502.3 0 -2.11043e+06 20428 0 -2.1116e+06 23357.8 0 -2.11294e+06 26292.1 0 -2.11443e+06 29231.7 0 -2.11608e+06 32177 0 -2.11788e+06 35128.7 0 -2.11985e+06 38087.4 0 -2.12198e+06 41053.6 0 -2.12426e+06 44028 0 -2.1267e+06 47011.2 0 -2.12931e+06 50003.8 0 -2.13207e+06 53006.4 0 -2.135e+06 56019.7 0 -2.13809e+06 59044.4 0 -2.14134e+06 62080.9 0 -2.14476e+06 65130.1 0 -2.14833e+06 68192.6 0 -2.15208e+06 71268.9 0 -2.15598e+06 74360 0 -2.16006e+06 77466.3 0 -2.1643e+06 80588.7 0 -2.16871e+06 83727.8 0 -2.17328e+06 86884.3 0 -2.17803e+06 90059.1 0 -2.18294e+06 93252.7 0 -2.18803e+06 96466.1 0 -2.19329e+06 99699.9 0 -2.19872e+06 102955 0 -2.20433e+06 106232 0 -2.21012e+06 109532 0 -2.21608e+06 112855 0 -2.22222e+06 116203 0 -2.22853e+06 119577 0 -2.23503e+06 122976 0 -2.24171e+06 126403 0 -2.24858e+06 129857 0 -2.25563e+06 133340 0 -2.26287e+06 136853 0 -2.27029e+06 140397 0 -2.27791e+06 143972 0 -2.28572e+06 147580 0 -2.29372e+06 151221 0 -2.30191e+06 154896 0 -2.31031e+06 158607 0 -2.3189e+06 162354 0 -2.32769e+06 166138 0 -2.33669e+06 169961 0 -2.34589e+06 173823 0 -2.35531e+06 177725 0 -2.36493e+06 181669 0 -2.37476e+06 185654 0 -2.38481e+06 189683 0 -2.39508e+06 193755 0 -2.40557e+06 197873 0 -2.41628e+06 202037 0 -2.42722e+06 206247 0 -2.43838e+06 210505 0 -2.44978e+06 214811 0 -2.46142e+06 219166 0 -2.47329e+06 223572 0 -2.4854e+06 228027 0 -2.49777e+06 232533 0 -2.51038e+06 237091 0 -2.52324e+06 241700 0 -2.53636e+06 246362 0 -2.54974e+06 251075 0 -2.56339e+06 255840 0 -2.57731e+06 260656 0 -2.5915e+06 265524 0 -2.60597e+06 270442 0 -2.62073e+06 275409 0 -2.63578e+06 280424 0 -2.65112e+06 285486 0 -2.66676e+06 290592 0 -2.6827e+06 295740 0 -2.69896e+06 300928 0 -2.71554e+06 306151 0 -2.73245e+06 311407 0 -2.74968e+06 316689 0 -2.76725e+06 321993 0 -2.78517e+06 327313 0 -2.80345e+06 332642 0 -2.82208e+06 337971 0 -2.84109e+06 343291 0 -2.86047e+06 348593 0 -2.88024e+06 353863 0 -2.9004e+06 359088 0 -2.92097e+06 364254 0 -2.94196e+06 369344 0 -2.96336e+06 374337 0 -2.9852e+06 379213 0 -3.00748e+06 383947 0 -3.03021e+06 388512 0 -3.0534e+06 392879 0 -3.07706e+06 397013 0 -3.10119e+06 400877 0 -3.12581e+06 404428 0 -3.15092e+06 407622 0 -3.17651e+06 410405 0 -3.20261e+06 412722 0 -3.22919e+06 414509 0 -3.25626e+06 415698 0 -3.28381e+06 416213 0 -3.31182e+06 415971 0 -3.34028e+06 414882 0 -3.36914e+06 412849 0 -3.39838e+06 409769 0 -3.42793e+06 405529 0 -3.45774e+06 400013 0 -3.48772e+06 393098 0 -3.51777e+06 384658 0 -3.54777e+06 374567 0 -3.57758e+06 362700 0 -3.60702e+06 348939 0 -3.6359e+06 333176 0 -3.664e+06 315320 0 -3.69105e+06 295305 0 -3.71679e+06 273095 0 -3.74091e+06 248693 0 -3.7631e+06 222146 0 -3.78305e+06 193557 0 -2.10634e+06 0 0 -2.10642e+06 2904.64 0 -2.10665e+06 5809.83 0 -2.10704e+06 8716.15 0 -2.10758e+06 11624.2 0 -2.10827e+06 14534.4 0 -2.10912e+06 17447.5 0 -2.11012e+06 20363.9 0 -2.11128e+06 23284.3 0 -2.11259e+06 26209.2 0 -2.11406e+06 29139.2 0 -2.11569e+06 32074.8 0 -2.11747e+06 35016.7 0 -2.1194e+06 37965.5 0 -2.12149e+06 40921.7 0 -2.12374e+06 43885.9 0 -2.12615e+06 46858.7 0 -2.12871e+06 49840.7 0 -2.13144e+06 52832.7 0 -2.13432e+06 55835 0 -2.13736e+06 58848.5 0 -2.14056e+06 61873.7 0 -2.14392e+06 64911.2 0 -2.14744e+06 67961.8 0 -2.15113e+06 71026.1 0 -2.15497e+06 74104.7 0 -2.15898e+06 77198.3 0 -2.16315e+06 80307.6 0 -2.16749e+06 83433.3 0 -2.172e+06 86576.2 0 -2.17667e+06 89736.8 0 -2.18151e+06 92916.1 0 -2.18651e+06 96114.6 0 -2.19169e+06 99333.2 0 -2.19704e+06 102573 0 -2.20255e+06 105833 0 -2.20824e+06 109117 0 -2.21411e+06 112423 0 -2.22015e+06 115754 0 -2.22637e+06 119109 0 -2.23276e+06 122490 0 -2.23933e+06 125897 0 -2.24609e+06 129332 0 -2.25302e+06 132795 0 -2.26014e+06 136287 0 -2.26744e+06 139809 0 -2.27493e+06 143362 0 -2.28261e+06 146947 0 -2.29048e+06 150564 0 -2.29854e+06 154216 0 -2.30679e+06 157901 0 -2.31524e+06 161623 0 -2.32389e+06 165381 0 -2.33273e+06 169176 0 -2.34178e+06 173010 0 -2.35103e+06 176883 0 -2.36049e+06 180797 0 -2.37016e+06 184752 0 -2.38003e+06 188749 0 -2.39012e+06 192790 0 -2.40043e+06 196874 0 -2.41095e+06 201004 0 -2.4217e+06 205179 0 -2.43267e+06 209402 0 -2.44387e+06 213671 0 -2.45529e+06 217989 0 -2.46695e+06 222356 0 -2.47885e+06 226773 0 -2.49099e+06 231240 0 -2.50337e+06 235757 0 -2.516e+06 240326 0 -2.52888e+06 244945 0 -2.54202e+06 249617 0 -2.55541e+06 254339 0 -2.56907e+06 259113 0 -2.583e+06 263938 0 -2.5972e+06 268813 0 -2.61167e+06 273738 0 -2.62643e+06 278712 0 -2.64148e+06 283733 0 -2.65682e+06 288799 0 -2.67245e+06 293908 0 -2.6884e+06 299059 0 -2.70465e+06 304247 0 -2.72121e+06 309470 0 -2.73811e+06 314723 0 -2.75533e+06 320002 0 -2.77288e+06 325301 0 -2.79078e+06 330613 0 -2.80904e+06 335933 0 -2.82765e+06 341250 0 -2.84663e+06 346557 0 -2.86598e+06 351842 0 -2.88572e+06 357093 0 -2.90585e+06 362297 0 -2.92639e+06 367438 0 -2.94733e+06 372499 0 -2.9687e+06 377462 0 -2.9905e+06 382303 0 -3.01274e+06 386999 0 -3.03542e+06 391522 0 -3.05857e+06 395842 0 -3.08217e+06 399926 0 -3.10626e+06 403735 0 -3.13082e+06 407227 0 -3.15587e+06 410357 0 -3.18141e+06 413072 0 -3.20744e+06 415316 0 -3.23397e+06 417026 0 -3.26097e+06 418132 0 -3.28845e+06 418560 0 -3.31639e+06 418227 0 -3.34477e+06 417042 0 -3.37356e+06 414911 0 -3.40272e+06 411727 0 -3.43219e+06 407382 0 -3.46191e+06 401758 0 -3.4918e+06 394733 0 -3.52176e+06 386184 0 -3.55166e+06 375984 0 -3.58137e+06 364009 0 -3.61071e+06 350143 0 -3.63949e+06 334280 0 -3.66748e+06 316330 0 -3.69444e+06 296228 0 -3.72008e+06 273938 0 -3.74412e+06 249465 0 -3.76623e+06 222858 0 -2.1061e+06 0 0 -2.10618e+06 2895.36 0 -2.1064e+06 5791.27 0 -2.10678e+06 8688.27 0 -2.10731e+06 11586.9 0 -2.108e+06 14487.8 0 -2.10883e+06 17391.4 0 -2.10982e+06 20298.4 0 -2.11096e+06 23209.2 0 -2.11225e+06 26124.4 0 -2.1137e+06 29044.6 0 -2.1153e+06 31970.4 0 -2.11705e+06 34902.4 0 -2.11895e+06 37841 0 -2.12101e+06 40787 0 -2.12323e+06 43740.8 0 -2.1256e+06 46703 0 -2.12812e+06 49674.3 0 -2.1308e+06 52655.3 0 -2.13364e+06 55646.6 0 -2.13663e+06 58648.7 0 -2.13978e+06 61662.3 0 -2.14309e+06 64688.1 0 -2.14655e+06 67726.6 0 -2.15018e+06 70778.5 0 -2.15396e+06 73844.5 0 -2.15791e+06 76925.3 0 -2.16202e+06 80021.4 0 -2.16629e+06 83133.6 0 -2.17072e+06 86262.6 0 -2.17532e+06 89409 0 -2.18008e+06 92573.7 0 -2.185e+06 95757.2 0 -2.1901e+06 98960.4 0 -2.19536e+06 102184 0 -2.20079e+06 105429 0 -2.20639e+06 108695 0 -2.21216e+06 111985 0 -2.2181e+06 115298 0 -2.22421e+06 118635 0 -2.2305e+06 121997 0 -2.23697e+06 125385 0 -2.24361e+06 128800 0 -2.25043e+06 132243 0 -2.25743e+06 135714 0 -2.26462e+06 139214 0 -2.27198e+06 142745 0 -2.27953e+06 146307 0 -2.28727e+06 149900 0 -2.29519e+06 153527 0 -2.30331e+06 157188 0 -2.31162e+06 160884 0 -2.32012e+06 164615 0 -2.32881e+06 168383 0 -2.3377e+06 172189 0 -2.3468e+06 176034 0 -2.35609e+06 179918 0 -2.36559e+06 183842 0 -2.3753e+06 187808 0 -2.38521e+06 191816 0 -2.39534e+06 195868 0 -2.40568e+06 199963 0 -2.41623e+06 204104 0 -2.42701e+06 208290 0 -2.43801e+06 212524 0 -2.44923e+06 216804 0 -2.46068e+06 221133 0 -2.47237e+06 225511 0 -2.48428e+06 229938 0 -2.49644e+06 234415 0 -2.50884e+06 238942 0 -2.52148e+06 243520 0 -2.53437e+06 248149 0 -2.54752e+06 252829 0 -2.56092e+06 257560 0 -2.57459e+06 262342 0 -2.58852e+06 267174 0 -2.60272e+06 272056 0 -2.61719e+06 276987 0 -2.63195e+06 281966 0 -2.64699e+06 286990 0 -2.66232e+06 292060 0 -2.67795e+06 297171 0 -2.69388e+06 302322 0 -2.71012e+06 307510 0 -2.72667e+06 312732 0 -2.74354e+06 317982 0 -2.76074e+06 323256 0 -2.77828e+06 328548 0 -2.79615e+06 333852 0 -2.81438e+06 339161 0 -2.83296e+06 344467 0 -2.85191e+06 349759 0 -2.87123e+06 355027 0 -2.89093e+06 360259 0 -2.91102e+06 365441 0 -2.93152e+06 370558 0 -2.95242e+06 375591 0 -2.97374e+06 380523 0 -2.99549e+06 385330 0 -3.01768e+06 389989 0 -3.04032e+06 394472 0 -3.06341e+06 398748 0 -3.08696e+06 402784 0 -3.11098e+06 406542 0 -3.13549e+06 409980 0 -3.16047e+06 413051 0 -3.18595e+06 415703 0 -3.21191e+06 417881 0 -3.23836e+06 419521 0 -3.26529e+06 420554 0 -3.2927e+06 420905 0 -3.32056e+06 420492 0 -3.34886e+06 419225 0 -3.37757e+06 417008 0 -3.40663e+06 413739 0 -3.43602e+06 409306 0 -3.46565e+06 403594 0 -3.49545e+06 396482 0 -3.52531e+06 387847 0 -3.55512e+06 377564 0 -3.58473e+06 365510 0 -3.61398e+06 351570 0 -3.64267e+06 335638 0 -3.67058e+06 317627 0 -3.69745e+06 297471 0 -3.72302e+06 275137 0 -3.74699e+06 250627 0 -2.10585e+06 0 0 -2.10593e+06 2885.88 0 -2.10615e+06 5772.29 0 -2.10653e+06 8659.79 0 -2.10705e+06 11548.9 0 -2.10772e+06 14440.2 0 -2.10854e+06 17334.2 0 -2.10952e+06 20231.4 0 -2.11064e+06 23132.4 0 -2.11191e+06 26037.8 0 -2.11333e+06 28948.1 0 -2.11491e+06 31863.9 0 -2.11663e+06 34785.6 0 -2.11851e+06 37714 0 -2.12053e+06 40649.5 0 -2.12271e+06 43592.7 0 -2.12504e+06 46544.2 0 -2.12753e+06 49504.6 0 -2.13017e+06 52474.4 0 -2.13296e+06 55454.4 0 -2.1359e+06 58445 0 -2.139e+06 61446.9 0 -2.14226e+06 64460.6 0 -2.14567e+06 67486.9 0 -2.14924e+06 70526.4 0 -2.15296e+06 73579.6 0 -2.15685e+06 76647.3 0 -2.16089e+06 79730 0 -2.16509e+06 82828.5 0 -2.16945e+06 85943.5 0 -2.17397e+06 89075.6 0 -2.17866e+06 92225.5 0 -2.18351e+06 95393.9 0 -2.18852e+06 98581.6 0 -2.19369e+06 101789 0 -2.19903e+06 105018 0 -2.20454e+06 108267 0 -2.21022e+06 111539 0 -2.21606e+06 114835 0 -2.22208e+06 118153 0 -2.22826e+06 121497 0 -2.23462e+06 124866 0 -2.24116e+06 128261 0 -2.24786e+06 131683 0 -2.25475e+06 135133 0 -2.26181e+06 138612 0 -2.26905e+06 142120 0 -2.27648e+06 145659 0 -2.28409e+06 149229 0 -2.29188e+06 152832 0 -2.29985e+06 156467 0 -2.30802e+06 160137 0 -2.31638e+06 163842 0 -2.32492e+06 167583 0 -2.33366e+06 171361 0 -2.3426e+06 175176 0 -2.35173e+06 179031 0 -2.36107e+06 182924 0 -2.37061e+06 186859 0 -2.38035e+06 190835 0 -2.39029e+06 194853 0 -2.40045e+06 198915 0 -2.41082e+06 203021 0 -2.42141e+06 207172 0 -2.43221e+06 211368 0 -2.44323e+06 215612 0 -2.45447e+06 219902 0 -2.46595e+06 224241 0 -2.47765e+06 228628 0 -2.48958e+06 233065 0 -2.50175e+06 237551 0 -2.51416e+06 242087 0 -2.52681e+06 246674 0 -2.53971e+06 251311 0 -2.55286e+06 255999 0 -2.56627e+06 260737 0 -2.57993e+06 265525 0 -2.59386e+06 270363 0 -2.60806e+06 275251 0 -2.62253e+06 280186 0 -2.63728e+06 285168 0 -2.65231e+06 290196 0 -2.66763e+06 295267 0 -2.68324e+06 300379 0 -2.69915e+06 305530 0 -2.71537e+06 310717 0 -2.7319e+06 315935 0 -2.74875e+06 321181 0 -2.76592e+06 326449 0 -2.78343e+06 331734 0 -2.80127e+06 337029 0 -2.81947e+06 342327 0 -2.83801e+06 347619 0 -2.85692e+06 352896 0 -2.8762e+06 358147 0 -2.89586e+06 363360 0 -2.91591e+06 368520 0 -2.93636e+06 373612 0 -2.95721e+06 378619 0 -2.97848e+06 383521 0 -3.00018e+06 388295 0 -3.02231e+06 392919 0 -3.04489e+06 397363 0 -3.06791e+06 401598 0 -3.0914e+06 405590 0 -3.11536e+06 409300 0 -3.1398e+06 412687 0 -3.16471e+06 415704 0 -3.19011e+06 418301 0 -3.216e+06 420419 0 -3.24237e+06 421997 0 -3.26923e+06 422965 0 -3.29655e+06 423250 0 -3.32433e+06 422769 0 -3.35254e+06 421433 0 -3.38115e+06 419147 0 -3.41013e+06 415808 0 -3.43942e+06 411306 0 -3.46895e+06 405527 0 -3.49866e+06 398351 0 -3.52843e+06 389655 0 -3.55815e+06 379315 0 -3.58767e+06 367211 0 -3.61683e+06 353226 0 -3.64544e+06 337259 0 -3.67327e+06 319220 0 -3.70008e+06 299045 0 -3.7256e+06 276700 0 -2.10561e+06 0 0 -2.10568e+06 2876.19 0 -2.1059e+06 5752.92 0 -2.10627e+06 8630.7 0 -2.10678e+06 11510.1 0 -2.10744e+06 14391.6 0 -2.10825e+06 17275.7 0 -2.10921e+06 20163 0 -2.11031e+06 23054.1 0 -2.11157e+06 25949.4 0 -2.11297e+06 28849.6 0 -2.11452e+06 31755.1 0 -2.11621e+06 34666.5 0 -2.11806e+06 37584.3 0 -2.12005e+06 40509.2 0 -2.1222e+06 43441.6 0 -2.12449e+06 46382.2 0 -2.12694e+06 49331.5 0 -2.12953e+06 52290 0 -2.13228e+06 55258.5 0 -2.13518e+06 58237.4 0 -2.13823e+06 61227.3 0 -2.14143e+06 64228.9 0 -2.14479e+06 67242.8 0 -2.1483e+06 70269.6 0 -2.15197e+06 73309.9 0 -2.15579e+06 76364.3 0 -2.15976e+06 79433.5 0 -2.1639e+06 82518.2 0 -2.16819e+06 85619 0 -2.17264e+06 88736.5 0 -2.17725e+06 91871.6 0 -2.18202e+06 95024.7 0 -2.18695e+06 98196.7 0 -2.19204e+06 101388 0 -2.19729e+06 104600 0 -2.20271e+06 107833 0 -2.20829e+06 111088 0 -2.21404e+06 114365 0 -2.21996e+06 117665 0 -2.22604e+06 120990 0 -2.23229e+06 124339 0 -2.23872e+06 127714 0 -2.24531e+06 131116 0 -2.25208e+06 134545 0 -2.25903e+06 138002 0 -2.26615e+06 141488 0 -2.27345e+06 145004 0 -2.28093e+06 148550 0 -2.28859e+06 152128 0 -2.29643e+06 155739 0 -2.30446e+06 159383 0 -2.31267e+06 163062 0 -2.32107e+06 166775 0 -2.32966e+06 170525 0 -2.33844e+06 174311 0 -2.34742e+06 178136 0 -2.35659e+06 181999 0 -2.36596e+06 185902 0 -2.37553e+06 189846 0 -2.3853e+06 193831 0 -2.39528e+06 197859 0 -2.40546e+06 201930 0 -2.41586e+06 206045 0 -2.42646e+06 210206 0 -2.43729e+06 214411 0 -2.44833e+06 218664 0 -2.45959e+06 222963 0 -2.47108e+06 227311 0 -2.48279e+06 231707 0 -