<?xml version="1.0"?> 
<VTKFile type="StructuredGrid" version="0.1"> 
<StructuredGrid WholeExtent="0 127 0 127 0 0"> 
<Piece Extent="0 127 0 127 0 0"> 
<PointData>
<DataArray type="Float32" Name="u" format="ascii" NumberOfComponents="3"> 
-2.07764e+06 47579.7 0 -2.07961e+06 51777.8 0 -2.08173e+06 55960.7 0 -2.08399e+06 60129 0 -2.08639e+06 64283.4 0 -2.08893e+06 68424.7 0 -2.09162e+06 72553.6 0 -2.09444e+06 76670.7 0 -2.09741e+06 80776.7 0 -2.10053e+06 84872.4 0 -2.10378e+06 88958.4 0 -2.10719e+06 93035.5 0 -2.11074e+06 97104.2 0 -2.11443e+06 101165 0 -2.11828e+06 105220 0 -2.12227e+06 109268 0 -2.12641e+06 113311 0 -2.1307e+06 117349 0 -2.13514e+06 121383 0 -2.13973e+06 125414 0 -2.14448e+06 129442 0 -2.14938e+06 133469 0 -2.15443e+06 137494 0 -2.15964e+06 141519 0 -2.16501e+06 145545 0 -2.17053e+06 149572 0 -2.17621e+06 153600 0 -2.18205e+06 157632 0 -2.18805e+06 161667 0 -2.19422e+06 165706 0 -2.20055e+06 169750 0 -2.20704e+06 173800 0 -2.2137e+06 177857 0 -2.22053e+06 181921 0 -2.22753e+06 185993 0 -2.2347e+06 190075 0 -2.24204e+06 194166 0 -2.24956e+06 198268 0 -2.25725e+06 202381 0 -2.26512e+06 206507 0 -2.27318e+06 210646 0 -2.28141e+06 214799 0 -2.28982e+06 218967 0 -2.29842e+06 223150 0 -2.30721e+06 227350 0 -2.31619e+06 231567 0 -2.32536e+06 235802 0 -2.33473e+06 240056 0 -2.34429e+06 244329 0 -2.35406e+06 248623 0 -2.36402e+06 252938 0 -2.37419e+06 257275 0 -2.38457e+06 261635 0 -2.39516e+06 266017 0 -2.40596e+06 270424 0 -2.41698e+06 274855 0 -2.42822e+06 279311 0 -2.43968e+06 283792 0 -2.45137e+06 288299 0 -2.46329e+06 292832 0 -2.47544e+06 297392 0 -2.48783e+06 301978 0 -2.50047e+06 306590 0 -2.51335e+06 311229 0 -2.52648e+06 315894 0 -2.53987e+06 320585 0 -2.55351e+06 325301 0 -2.56742e+06 330042 0 -2.58161e+06 334806 0 -2.59606e+06 339592 0 -2.6108e+06 344399 0 -2.62583e+06 349225 0 -2.64115e+06 354067 0 -2.65677e+06 358923 0 -2.67269e+06 363791 0 -2.68893e+06 368665 0 -2.70548e+06 373543 0 -2.72236e+06 378420 0 -2.73958e+06 383290 0 -2.75714e+06 388148 0 -2.77504e+06 392986 0 -2.79331e+06 397796 0 -2.81194e+06 402570 0 -2.83095e+06 407298 0 -2.85034e+06 411968 0 -2.87013e+06 416568 0 -2.89032e+06 421083 0 -2.91092e+06 425498 0 -2.93194e+06 429795 0 -2.9534e+06 433954 0 -2.9753e+06 437953 0 -2.99765e+06 441766 0 -3.02046e+06 445366 0 -3.04373e+06 448724 0 -3.06749e+06 451804 0 -3.09172e+06 454569 0 -3.11644e+06 456977 0 -3.14166e+06 458983 0 -3.16736e+06 460536 0 -3.19355e+06 461581 0 -3.22023e+06 462055 0 -3.24738e+06 461894 0 -3.275e+06 461025 0 -3.30305e+06 459370 0 -3.33151e+06 456845 0 -3.36034e+06 453360 0 -3.3895e+06 448821 0 -3.41892e+06 443127 0 -3.44854e+06 436176 0 -3.47825e+06 427862 0 -3.50796e+06 418078 0 -3.53753e+06 406721 0 -3.56683e+06 393693 0 -3.59566e+06 378904 0 -3.62386e+06 362280 0 -3.65119e+06 343764 0 -3.67743e+06 323323 0 -3.70232e+06 300957 0 -3.7256e+06 276700 0 -3.74699e+06 250627 0 -3.76623e+06 222857 0 -3.78305e+06 193556 0 -3.79722e+06 162935 0 -3.80853e+06 131249 0 -3.81682e+06 98786.6 0 -3.82196e+06 65866.8 0 -3.82391e+06 32824.8 0 -3.82266e+06 -3.62396e-05 0 -2.07755e+06 48321 0 -2.07954e+06 52525 0 -2.08167e+06 56714 0 -2.08395e+06 60888.9 0 -2.08636e+06 65050.2 0 -2.08892e+06 69198.8 0 -2.09161e+06 73335.2 0 -2.09445e+06 77460.1 0 -2.09744e+06 81574.4 0 -2.10056e+06 85678.6 0 -2.10384e+06 89773.5 0 -2.10725e+06 93859.8 0 -2.11081e+06 97938.1 0 -2.11452e+06 102009 0 -2.11838e+06 106074 0 -2.12238e+06 110133 0 -2.12653e+06 114186 0 -2.13083e+06 118236 0 -2.13528e+06 122282 0 -2.13989e+06 126324 0 -2.14464e+06 130365 0 -2.14955e+06 134404 0 -2.15461e+06 138443 0 -2.15983e+06 142481 0 -2.1652e+06 146521 0 -2.17073e+06 150562 0 -2.17642e+06 154605 0 -2.18227e+06 158651 0 -2.18828e+06 162702 0 -2.19445e+06 166757 0 -2.20079e+06 170817 0 -2.20729e+06 174884 0 -2.21396e+06 178957 0 -2.22079e+06 183039 0 -2.2278e+06 187129 0 -2.23497e+06 191228 0 -2.24232e+06 195338 0 -2.24984e+06 199459 0 -2.25753e+06 203592 0 -2.26541e+06 207738 0 -2.27346e+06 211897 0 -2.28169e+06 216071 0 -2.29011e+06 220260 0 -2.29872e+06 224465 0 -2.30751e+06 228687 0 -2.31649e+06 232927 0 -2.32566e+06 237185 0 -2.33503e+06 241463 0 -2.34459e+06 245761 0 -2.35435e+06 250080 0 -2.36432e+06 254420 0 -2.37448e+06 258783 0 -2.38486e+06 263169 0 -2.39545e+06 267579 0 -2.40625e+06 272013 0 -2.41726e+06 276472 0 -2.4285e+06 280957 0 -2.43996e+06 285467 0 -2.45164e+06 290004 0 -2.46356e+06 294568 0 -2.4757e+06 299159 0 -2.48809e+06 303778 0 -2.50072e+06 308423 0 -2.5136e+06 313096 0 -2.52672e+06 317795 0 -2.5401e+06 322521 0 -2.55374e+06 327274 0 -2.56765e+06 332051 0 -2.58182e+06 336853 0 -2.59627e+06 341677 0 -2.61101e+06 346524 0 -2.62602e+06 351390 0 -2.64134e+06 356273 0 -2.65695e+06 361172 0 -2.67286e+06 366082 0 -2.68909e+06 371001 0 -2.70564e+06 375924 0 -2.72251e+06 380848 0 -2.73972e+06 385765 0 -2.75727e+06 390671 0 -2.77517e+06 395559 0 -2.79343e+06 400421 0 -2.81206e+06 405247 0 -2.83106e+06 410029 0 -2.85045e+06 414754 0 -2.87024e+06 419411 0 -2.89043e+06 423984 0 -2.91103e+06 428458 0 -2.93206e+06 432816 0 -2.95352e+06 437037 0 -2.97543e+06 441099 0 -2.99779e+06 444978 0 -3.02062e+06 448645 0 -3.04391e+06 452070 0 -3.06769e+06 455219 0 -3.09195e+06 458055 0 -3.11671e+06 460535 0 -3.14196e+06 462613 0 -3.16771e+06 464238 0 -3.19396e+06 465355 0 -3.2207e+06 465903 0 -3.24792e+06 465813 0 -3.27562e+06 465014 0 -3.30376e+06 463426 0 -3.33233e+06 460966 0 -3.36128e+06 457541 0 -3.39057e+06 453055 0 -3.42015e+06 447407 0 -3.44992e+06 440492 0 -3.47982e+06 432202 0 -3.50972e+06 422427 0 -3.53951e+06 411062 0 -3.56903e+06 398005 0 -3.59811e+06 383164 0 -3.62656e+06 366460 0 -3.65417e+06 347833 0 -3.68068e+06 327248 0 -3.70585e+06 304701 0 -3.72941e+06 280223 0 -3.75107e+06 253889 0 -3.77056e+06 225818 0 -3.78762e+06 196177 0 -3.802e+06 165179 0 -3.81349e+06 133083 0 -3.82191e+06 100184 0 -3.82715e+06 66807.8 0 -3.82915e+06 33297.2 0 -3.8279e+06 -2.80781e-06 0 -2.07746e+06 49065.3 0 -2.07946e+06 53275.2 0 -2.08161e+06 57470.5 0 -2.0839e+06 61651.9 0 -2.08633e+06 65820.2 0 -2.0889e+06 69975.9 0 -2.09161e+06 74119.9 0 -2.09447e+06 78252.8 0 -2.09746e+06 82375.2 0 -2.1006e+06 86488 0 -2.10389e+06 90591.8 0 -2.10732e+06 94687.4 0 -2.11089e+06 98775.3 0 -2.11461e+06 102856 0 -2.11848e+06 106931 0 -2.12249e+06 111001 0 -2.12665e+06 115065 0 -2.13097e+06 119126 0 -2.13543e+06 123184 0 -2.14004e+06 127238 0 -2.1448e+06 131291 0 -2.14972e+06 135343 0 -2.15479e+06 139395 0 -2.16002e+06 143447 0 -2.1654e+06 147500 0 -2.17094e+06 151555 0 -2.17664e+06 155613 0 -2.18249e+06 159675 0 -2.18851e+06 163740 0 -2.19469e+06 167811 0 -2.20103e+06 171887 0 -2.20754e+06 175970 0 -2.21421e+06 180061 0 -2.22105e+06 184160 0 -2.22806e+06 188268 0 -2.23524e+06 192385 0 -2.24259e+06 196514 0 -2.25011e+06 200654 0 -2.25781e+06 204806 0 -2.26569e+06 208972 0 -2.27374e+06 213152 0 -2.28198e+06 217346 0 -2.2904e+06 221557 0 -2.29901e+06 225784 0 -2.3078e+06 230028 0 -2.31678e+06 234290 0 -2.32595e+06 238572 0 -2.33532e+06 242873 0 -2.34488e+06 247196 0 -2.35464e+06 251539 0 -2.36461e+06 255905 0 -2.37477e+06 260294 0 -2.38515e+06 264706 0 -2.39573e+06 269143 0 -2.40653e+06 273605 0 -2.41754e+06 278092 0 -2.42877e+06 282606 0 -2.44023e+06 287146 0 -2.45191e+06 291714 0 -2.46382e+06 296308 0 -2.47597e+06 300931 0 -2.48835e+06 305581 0 -2.50097e+06 310260 0 -2.51384e+06 314966 0 -2.52696e+06 319700 0 -2.54033e+06 324461 0 -2.55397e+06 329249 0 -2.56787e+06 334063 0 -2.58204e+06 338903 0 -2.59648e+06 343766 0 -2.6112e+06 348652 0 -2.62621e+06 353558 0 -2.64152e+06 358483 0 -2.65712e+06 363423 0 -2.67303e+06 368377 0 -2.68925e+06 373340 0 -2.70579e+06 378309 0 -2.72266e+06 383279 0 -2.73986e+06 388244 0 -2.7574e+06 393199 0 -2.7753e+06 398137 0 -2.79355e+06 403050 0 -2.81217e+06 407929 0 -2.83117e+06 412765 0 -2.85056e+06 417546 0 -2.87034e+06 422259 0 -2.89053e+06 426890 0 -2.91114e+06 431424 0 -2.93217e+06 435843 0 -2.95364e+06 440127 0 -2.97556e+06 444253 0 -2.99793e+06 448197 0 -3.02077e+06 451932 0 -3.04409e+06 455425 0 -3.06789e+06 458645 0 -3.09218e+06 461551 0 -3.11697e+06 464103 0 -3.14226e+06 466254 0 -3.16806e+06 467953 0 -3.19436e+06 469144 0 -3.22116e+06 469765 0 -3.24846e+06 469749 0 -3.27624e+06 469021 0 -3.30447e+06 467503 0 -3.33315e+06 465108 0 -3.36222e+06 461745 0 -3.39165e+06 457315 0 -3.42137e+06 451715 0 -3.45131e+06 444838 0 -3.48139e+06 436574 0 -3.51149e+06 426811 0 -3.54149e+06 415440 0 -3.57124e+06 402357 0 -3.60058e+06 387466 0 -3.62929e+06 370683 0 -3.65716e+06 351947 0 -3.68396e+06 331218 0 -3.70942e+06 308490 0 -3.73326e+06 283791 0 -3.7552e+06 257195 0 -3.77495e+06 228820 0 -3.79225e+06 198835 0 -3.80685e+06 167456 0 -3.81851e+06 134944 0 -3.82708e+06 101603 0 -3.83242e+06 67763.7 0 -3.83446e+06 33777.2 0 -3.83322e+06 2.39266e-06 0 -2.07737e+06 49812.7 0 -2.07939e+06 54028.5 0 -2.08156e+06 58230.1 0 -2.08386e+06 62418.1 0 -2.0863e+06 66593.2 0 -2.08889e+06 70756.2 0 -2.09161e+06 74907.8 0 -2.09448e+06 79048.6 0 -2.09749e+06 83179.3 0 -2.10064e+06 87300.7 0 -2.10394e+06 91413.4 0 -2.10738e+06 95518.2 0 -2.11097e+06 99615.7 0 -2.1147e+06 103707 0 -2.11858e+06 107792 0 -2.1226e+06 111872 0 -2.12678e+06 115948 0 -2.1311e+06 120020 0 -2.13557e+06 124089 0 -2.14019e+06 128156 0 -2.14497e+06 132221 0 -2.14989e+06 136286 0 -2.15497e+06 140350 0 -2.16021e+06 144416 0 -2.1656e+06 148483 0 -2.17115e+06 152552 0 -2.17685e+06 156625 0 -2.18271e+06 160701 0 -2.18874e+06 164782 0 -2.19492e+06 168868 0 -2.20127e+06 172961 0 -2.20778e+06 177061 0 -2.21446e+06 181168 0 -2.22131e+06 185284 0 -2.22832e+06 189410 0 -2.2355e+06 193546 0 -2.24286e+06 197693 0 -2.25039e+06 201852 0 -2.25809e+06 206024 0 -2.26597e+06 210210 0 -2.27403e+06 214410 0 -2.28227e+06 218625 0 -2.29069e+06 222857 0 -2.2993e+06 227105 0 -2.30809e+06 231372 0 -2.31707e+06 235657 0 -2.32624e+06 239962 0 -2.33561e+06 244287 0 -2.34517e+06 248634 0 -2.35493e+06 253002 0 -2.3649e+06 257394 0 -2.37506e+06 261808 0 -2.38543e+06 266247 0 -2.39602e+06 270711 0 -2.40681e+06 275201 0 -2.41782e+06 279716 0 -2.42905e+06 284259 0 -2.4405e+06 288829 0 -2.45218e+06 293426 0 -2.46408e+06 298052 0 -2.47622e+06 302706 0 -2.4886e+06 307388 0 -2.50122e+06 312100 0 -2.51408e+06 316840 0 -2.5272e+06 321608 0 -2.54056e+06 326404 0 -2.55419e+06 331229 0 -2.56808e+06 336080 0 -2.58224e+06 340957 0 -2.59668e+06 345858 0 -2.6114e+06 350783 0 -2.6264e+06 355730 0 -2.6417e+06 360696 0 -2.65729e+06 365679 0 -2.67319e+06 370676 0 -2.6894e+06 375684 0 -2.70594e+06 380698 0 -2.7228e+06 385714 0 -2.73999e+06 390728 0 -2.75753e+06 395732 0 -2.77542e+06 400720 0 -2.79366e+06 405684 0 -2.81228e+06 410616 0 -2.83128e+06 415506 0 -2.85066e+06 420342 0 -2.87045e+06 425112 0 -2.89063e+06 429802 0 -2.91124e+06 434396 0 -2.93228e+06 438876 0 -2.95375e+06 443223 0 -2.97568e+06 447414 0 -2.99806e+06 451424 0 -3.02092e+06 455226 0 -3.04425e+06 458789 0 -3.06807e+06 462079 0 -3.09239e+06 465057 0 -3.11722e+06 467682 0 -3.14255e+06 469908 0 -3.16839e+06 471681 0 -3.19475e+06 472947 0 -3.22162e+06 473643 0 -3.24899e+06 473701 0 -3.27685e+06 473047 0 -3.30518e+06 471599 0 -3.33396e+06 469272 0 -3.36315e+06 465972 0 -3.39272e+06 461600 0 -3.42259e+06 456050 0 -3.4527e+06 449214 0 -3.48296e+06 440979 0 -3.51326e+06 431230 0 -3.54348e+06 419856 0 -3.57347e+06 406749 0 -3.60305e+06 391809 0 -3.63203e+06 374951 0 -3.66019e+06 356106 0 -3.68727e+06 335235 0 -3.71302e+06 312326 0 -3.73715e+06 287406 0 -3.75937e+06 260546 0 -3.7794e+06 231865 0 -3.79695e+06 201532 0 -3.81176e+06 169767 0 -3.82362e+06 136835 0 -3.83233e+06 103045 0 -3.83777e+06 68734.9 0 -3.83986e+06 34264.9 0 -3.83862e+06 -1.30507e-06 0 -2.07728e+06 50563.2 0 -2.07932e+06 54784.9 0 -2.0815e+06 58992.7 0 -2.08382e+06 63187.3 0 -2.08628e+06 67369.4 0 -2.08888e+06 71539.7 0 -2.09162e+06 75698.8 0 -2.0945e+06 79847.5 0 -2.09752e+06 83986.5 0 -2.10069e+06 88116.5 0 -2.104e+06 92238.2 0 -2.10745e+06 96352.2 0 -2.11105e+06 100459 0 -2.11479e+06 104560 0 -2.11868e+06 108656 0 -2.12272e+06 112746 0 -2.1269e+06 116833 0 -2.13123e+06 120916 0 -2.13572e+06 124997 0 -2.14035e+06 129076 0 -2.14513e+06 133154 0 -2.15007e+06 137231 0 -2.15516e+06 141309 0 -2.1604e+06 145388 0 -2.1658e+06 149469 0 -2.17135e+06 153553 0 -2.17706e+06 157640 0 -2.18293e+06 161731 0 -2.18897e+06 165827 0 -2.19516e+06 169930 0 -2.20151e+06 174038 0 -2.20803e+06 178154 0 -2.21471e+06 182279 0 -2.22156e+06 186412 0 -2.22858e+06 190556 0 -2.23577e+06 194710 0 -2.24313e+06 198876 0 -2.25066e+06 203054 0 -2.25837e+06 207245 0 -2.26625e+06 211451 0 -2.27431e+06 215671 0 -2.28255e+06 219907 0 -2.29098e+06 224160 0 -2.29958e+06 228431 0 -2.30838e+06 232720 0 -2.31736e+06 237028 0 -2.32653e+06 241356 0 -2.3359e+06 245705 0 -2.34546e+06 250076 0 -2.35522e+06 254469 0 -2.36518e+06 258886 0 -2.37535e+06 263326 0 -2.38572e+06 267792 0 -2.3963e+06 272283 0 -2.40709e+06 276800 0 -2.4181e+06 281344 0 -2.42932e+06 285915 0 -2.44077e+06 290514 0 -2.45244e+06 295142 0 -2.46435e+06 299799 0 -2.47648e+06 304484 0 -2.48885e+06 309199 0 -2.50146e+06 313943 0 -2.51432e+06 318717 0 -2.52743e+06 323520 0 -2.54079e+06 328351 0 -2.55441e+06 333211 0 -2.5683e+06 338099 0 -2.58245e+06 343014 0 -2.59688e+06 347954 0 -2.61159e+06 352919 0 -2.62658e+06 357906 0 -2.64187e+06 362913 0 -2.65746e+06 367939 0 -2.67335e+06 372979 0 -2.68955e+06 378031 0 -2.70608e+06 383091 0 -2.72293e+06 388154 0 -2.74012e+06 393215 0 -2.75765e+06 398268 0 -2.77553e+06 403307 0 -2.79377e+06 408323 0 -2.81239e+06 413307 0 -2.83138e+06 418251 0 -2.85076e+06 423143 0 -2.87054e+06 427971 0 -2.89073e+06 432720 0 -2.91134e+06 437374 0 -2.93238e+06 441916 0 -2.95386e+06 446326 0 -2.97579e+06 450582 0 -2.99819e+06 454659 0 -3.02106e+06 458529 0 -3.04441e+06 462162 0 -3.06826e+06 465523 0 -3.0926e+06 468574 0 -3.11746e+06 471273 0 -3.14283e+06 473573 0 -3.16872e+06 475423 0 -3.19514e+06 476765 0 -3.22207e+06 477537 0 -3.24951e+06 477670 0 -3.27745e+06 477091 0 -3.30588e+06 475716 0 -3.33477e+06 473459 0 -3.36409e+06 470224 0 -3.39378e+06 465912 0 -3.42381e+06 460414 0 -3.45408e+06 453621 0 -3.48453e+06 445417 0 -3.51504e+06 435685 0 -3.54548e+06 424311 0 -3.57571e+06 411182 0 -3.60555e+06 396196 0 -3.6348e+06 379263 0 -3.66324e+06 360313 0 -3.69061e+06 339299 0 -3.71666e+06 316210 0 -3.74108e+06 291068 0 -3.7636e+06 263943 0 -3.7839e+06 234954 0 -3.80171e+06 204270 0 -3.81675e+06 172113 0 -3.82879e+06 138755 0 -3.83765e+06 104509 0 -3.8432e+06 69721.7 0 -3.84535e+06 34760.6 0 -3.84411e+06 -5.14283e-08 0 -2.0772e+06 51316.7 0 -2.07925e+06 55544.4 0 -2.08145e+06 59758.5 0 -2.08378e+06 63959.7 0 -2.08625e+06 68148.8 0 -2.08887e+06 72326.3 0 -2.09162e+06 76493.1 0 -2.09451e+06 80649.7 0 -2.09755e+06 84797 0 -2.10073e+06 88935.6 0 -2.10405e+06 93066.2 0 -2.10752e+06 97189.5 0 -2.11113e+06 101306 0 -2.11488e+06 105417 0 -2.11878e+06 109523 0 -2.12283e+06 113624 0 -2.12703e+06 117722 0 -2.13137e+06 121817 0 -2.13586e+06 125909 0 -2.1405e+06 130000 0 -2.1453e+06 134090 0 -2.15024e+06 138181 0 -2.15534e+06 142272 0 -2.16059e+06 146364 0 -2.166e+06 150459 0 -2.17156e+06 154557 0 -2.17728e+06 158658 0 -2.18316e+06 162764 0 -2.18919e+06 166876 0 -2.19539e+06 170994 0 -2.20175e+06 175119 0 -2.20828e+06 179252 0 -2.21496e+06 183393 0 -2.22182e+06 187544 0 -2.22884e+06 191705 0 -2.23603e+06 195877 0 -2.2434e+06 200062 0 -2.25093e+06 204259 0 -2.25864e+06 208470 0 -2.26653e+06 212695 0 -2.27459e+06 216936 0 -2.28284e+06 221193 0 -2.29126e+06 225467 0 -2.29987e+06 229760 0 -2.30867e+06 234071 0 -2.31765e+06 238402 0 -2.32682e+06 242753 0 -2.33619e+06 247126 0 -2.34575e+06 251521 0 -2.35551e+06 255939 0 -2.36547e+06 260381 0 -2.37563e+06 264848 0 -2.386e+06 269340 0 -2.39658e+06 273858 0 -2.40737e+06 278402 0 -2.41837e+06 282975 0 -2.42959e+06 287575 0 -2.44104e+06 292204 0 -2.45271e+06 296862 0 -2.4646e+06 301549 0 -2.47673e+06 306266 0 -2.4891e+06 311013 0 -2.50171e+06 315790 0 -2.51456e+06 320597 0 -2.52766e+06 325435 0 -2.54101e+06 330302 0 -2.55463e+06 335198 0 -2.5685e+06 340123 0 -2.58265e+06 345075 0 -2.59707e+06 350054 0 -2.61177e+06 355058 0 -2.62676e+06 360085 0 -2.64204e+06 365134 0 -2.65762e+06 370202 0 -2.6735e+06 375286 0 -2.6897e+06 380382 0 -2.70622e+06 385488 0 -2.72306e+06 390598 0 -2.74024e+06 395707 0 -2.75776e+06 400809 0 -2.77564e+06 405898 0 -2.79388e+06 410965 0 -2.81248e+06 416004 0 -2.83147e+06 421002 0 -2.85085e+06 425950 0 -2.87063e+06 430835 0 -2.89082e+06 435643 0 -2.91143e+06 440358 0 -2.93247e+06 444962 0 -2.95396e+06 449436 0 -2.9759e+06 453757 0 -2.99831e+06 457901 0 -3.02119e+06 461840 0 -3.04456e+06 465543 0 -3.06843e+06 468976 0 -3.09281e+06 472101 0 -3.1177e+06 474874 0 -3.14311e+06 477250 0 -3.16905e+06 479177 0 -3.19551e+06 480596 0 -3.22251e+06 481446 0 -3.25002e+06 481657 0 -3.27805e+06 481153 0 -3.30658e+06 479853 0 -3.33557e+06 477667 0 -3.36501e+06 474500 0 -3.39485e+06 470250 0 -3.42502e+06 464807 0 -3.45547e+06 458059 0 -3.48611e+06 449889 0 -3.51682e+06 440176 0 -3.54749e+06 428804 0 -3.57796e+06 415656 0 -3.60806e+06 400626 0 -3.63758e+06 383621 0 -3.66631e+06 364566 0 -3.69398e+06 343412 0 -3.72033e+06 320142 0 -3.74506e+06 294778 0 -3.76787e+06 267387 0 -3.78846e+06 238087 0 -3.80653e+06 207048 0 -3.8218e+06 174496 0 -3.83404e+06 140706 0 -3.84306e+06 105997 0 -3.84871e+06 70724.8 0 -3.85092e+06 35264.5 0 -3.84968e+06 -1.43333e-07 0 -2.07712e+06 52073.3 0 -2.07919e+06 56307 0 -2.0814e+06 60527.4 0 -2.08374e+06 64735.2 0 -2.08623e+06 68931.2 0 -2.08886e+06 73116.1 0 -2.09163e+06 77290.5 0 -2.09453e+06 81455.1 0 -2.09758e+06 85610.7 0 -2.10078e+06 89757.9 0 -2.10411e+06 93897.4 0 -2.10759e+06 98030.1 0 -2.11121e+06 102156 0 -2.11498e+06 106277 0 -2.11889e+06 110393 0 -2.12295e+06 114505 0 -2.12715e+06 118614 0 -2.1315e+06 122720 0 -2.13601e+06 126824 0 -2.14066e+06 130927 0 -2.14546e+06 135030 0 -2.15041e+06 139133 0 -2.15552e+06 143237 0 -2.16078e+06 147343 0 -2.16619e+06 151452 0 -2.17176e+06 155564 0 -2.17749e+06 159680 0 -2.18338e+06 163801 0 -2.18942e+06 167928 0 -2.19563e+06 172062 0 -2.20199e+06 176203 0 -2.20852e+06 180352 0 -2.21521e+06 184511 0 -2.22207e+06 188679 0 -2.2291e+06 192858 0 -2.2363e+06 197048 0 -2.24367e+06 201251 0 -2.2512e+06 205468 0 -2.25892e+06 209698 0 -2.26681e+06 213943 0 -2.27487e+06 218205 0 -2.28312e+06 222482 0 -2.29155e+06 226778 0 -2.30016e+06 231092 0 -2.30895e+06 235426 0 -2.31794e+06 239779 0 -2.32711e+06 244154 0 -2.33648e+06 248550 0 -2.34604e+06 252970 0 -2.3558e+06 257413 0 -2.36576e+06 261880 0 -2.37592e+06 266373 0 -2.38628e+06 270891 0 -2.39686e+06 275436 0 -2.40764e+06 280009 0 -2.41864e+06 284609 0 -2.42986e+06 289238 0 -2.4413e+06 293897 0 -2.45297e+06 298585 0 -2.46486e+06 303303 0 -2.47698e+06 308051 0 -2.48934e+06 312831 0 -2.50194e+06 317641 0 -2.51479e+06 322482 0 -2.52788e+06 327353 0 -2.54123e+06 332256 0 -2.55484e+06 337188 0 -2.56871e+06 342149 0 -2.58285e+06 347139 0 -2.59726e+06 352157 0 -2.61195e+06 357201 0 -2.62693e+06 362268 0 -2.64221e+06 367359 0 -2.65778e+06 372469 0 -2.67365e+06 377596 0 -2.68984e+06 382738 0 -2.70635e+06 387889 0 -2.72318e+06 393045 0 -2.74036e+06 398202 0 -2.75787e+06 403354 0 -2.77574e+06 408493 0 -2.79397e+06 413613 0 -2.81258e+06 418704 0 -2.83156e+06 423758 0 -2.85093e+06 428762 0 -2.87071e+06 433704 0 -2.8909e+06 438571 0 -2.91151e+06 443347 0 -2.93256e+06 448014 0 -2.95405e+06 452552 0 -2.976e+06 456940 0 -2.99842e+06 461151 0 -3.02132e+06 465159 0 -3.04471e+06 468934 0 -3.0686e+06 472439 0 -3.093e+06 475638 0 -3.11793e+06 478487 0 -3.14338e+06 480940 0 -3.16936e+06 482944 0 -3.19589e+06 484442 0 -3.22294e+06 485371 0 -3.25053e+06 485660 0 -3.27865e+06 485235 0 -3.30727e+06 484011 0 -3.33637e+06 481898 0 -3.36593e+06 478801 0 -3.39591e+06 474615 0 -3.42624e+06 469229 0 -3.45686e+06 462529 0 -3.48768e+06 454395 0 -3.51861e+06 444705 0 -3.5495e+06 433336 0 -3.58022e+06 420171 0 -3.61058e+06 405100 0 -3.64039e+06 388026 0 -3.66941e+06 368868 0 -3.69739e+06 347575 0 -3.72404e+06 324125 0 -3.74908e+06 298538 0 -3.7722e+06 270880 0 -3.79307e+06 241266 0 -3.81141e+06 209869 0 -3.82693e+06 176916 0 -3.83937e+06 142688 0 -3.84855e+06 107510 0 -3.85431e+06 71744.5 0 -3.85658e+06 35776.7 0 -3.85535e+06 1.89769e-06 0 -2.07704e+06 52832.9 0 -2.07912e+06 57072.6 0 -2.08135e+06 61299.4 0 -2.08371e+06 65513.9 0 -2.08621e+06 69716.9 0 -2.08885e+06 73909 0 -2.09163e+06 78091 0 -2.09455e+06 82263.6 0 -2.09762e+06 86427.5 0 -2.10082e+06 90583.4 0 -2.10417e+06 94731.9 0 -2.10766e+06 98873.9 0 -2.11129e+06 103010 0 -2.11507e+06 107141 0 -2.11899e+06 111267 0 -2.12306e+06 115390 0 -2.12728e+06 119510 0 -2.13164e+06 123627 0 -2.13615e+06 127743 0 -2.14081e+06 131858 0 -2.14563e+06 135973 0 -2.15059e+06 140089 0 -2.1557e+06 144206 0 -2.16097e+06 148326 0 -2.16639e+06 152448 0 -2.17197e+06 156574 0 -2.17771e+06 160705 0 -2.1836e+06 164841 0 -2.18965e+06 168984 0 -2.19586e+06 173133 0 -2.20223e+06 177291 0 -2.20877e+06 181456 0 -2.21547e+06 185632 0 -2.22233e+06 189817 0 -2.22936e+06 194014 0 -2.23656e+06 198223 0 -2.24393e+06 202444 0 -2.25148e+06 206680 0 -2.25919e+06 210929 0 -2.26708e+06 215195 0 -2.27515e+06 219476 0 -2.2834e+06 223775 0 -2.29183e+06 228092 0 -2.30044e+06 232428 0 -2.30924e+06 236784 0 -2.31822e+06 241160 0 -2.3274e+06 245558 0 -2.33676e+06 249978 0 -2.34632e+06 254422 0 -2.35608e+06 258890 0 -2.36604e+06 263382 0 -2.3762e+06 267901 0 -2.38656e+06 272446 0 -2.39713e+06 277018 0 -2.40792e+06 281618 0 -2.41891e+06 286247 0 -2.43013e+06 290905 0 -2.44156e+06 295593 0 -2.45322e+06 300311 0 -2.46511e+06 305060 0 -2.47723e+06 309840 0 -2.48959e+06 314652 0 -2.50218e+06 319495 0 -2.51502e+06 324369 0 -2.52811e+06 329276 0 -2.54145e+06 334213 0 -2.55505e+06 339181 0 -2.56891e+06 344180 0 -2.58304e+06 349208 0 -2.59745e+06 354264 0 -2.61213e+06 359347 0 -2.6271e+06 364455 0 -2.64237e+06 369587 0 -2.65793e+06 374740 0 -2.6738e+06 379911 0 -2.68998e+06 385097 0 -2.70648e+06 390294 0 -2.7233e+06 395497 0 -2.74047e+06 400702 0 -2.75798e+06 405903 0 -2.77584e+06 411093 0 -2.79406e+06 416265 0 -2.81266e+06 421410 0 -2.83164e+06 426518 0 -2.85101e+06 431579 0 -2.87079e+06 436579 0 -2.89097e+06 441506 0 -2.91159e+06 446343 0 -2.93264e+06 451073 0 -2.95413e+06 455675 0 -2.97609e+06 460129 0 -2.99852e+06 464409 0 -3.02143e+06 468487 0 -3.04484e+06 472333 0 -3.06876e+06 475911 0 -3.09319e+06 479185 0 -3.11815e+06 482111 0 -3.14364e+06 484642 0 -3.16967e+06 486725 0 -3.19625e+06 488303 0 -3.22337e+06 489312 0 -3.25104e+06 489681 0 -3.27923e+06 489335 0 -3.30795e+06 488189 0 -3.33717e+06 486152 0 -3.36685e+06 483126 0 -3.39696e+06 479006 0 -3.42745e+06 473681 0 -3.45825e+06 467031 0 -3.48926e+06 458936 0 -3.5204e+06 449270 0 -3.55152e+06 437909 0 -3.58249e+06 424730 0 -3.61312e+06 409620 0 -3.64321e+06 392478 0 -3.67253e+06 373219 0 -3.70082e+06 351788 0 -3.72779e+06 328159 0 -3.75315e+06 302349 0 -3.77658e+06 274422 0 -3.79775e+06 244492 0 -3.81636e+06 212733 0 -3.83212e+06 179375 0 -3.84478e+06 144702 0 -3.85412e+06 109048 0 -3.85999e+06 72781.3 0 -3.86232e+06 36297.7 0 -3.8611e+06 -9.40774e-07 0 -2.07696e+06 53595.7 0 -2.07906e+06 57841.4 0 -2.0813e+06 62074.4 0 -2.08368e+06 66295.6 0 -2.08619e+06 70505.6 0 -2.08885e+06 74705.1 0 -2.09164e+06 78894.8 0 -2.09458e+06 83075.4 0 -2.09765e+06 87247.6 0 -2.10087e+06 91412.1 0 -2.10423e+06 95569.7 0 -2.10773e+06 99720.9 0 -2.11138e+06 103867 0 -2.11517e+06 108008 0 -2.1191e+06 112144 0 -2.12318e+06 116278 0 -2.12741e+06 120408 0 -2.13178e+06 124537 0 -2.1363e+06 128665 0 -2.14097e+06 132792 0 -2.14579e+06 136919 0 -2.15076e+06 141048 0 -2.15589e+06 145178 0 -2.16116e+06 149311 0 -2.16659e+06 153448 0 -2.17218e+06 157588 0 -2.17792e+06 161734 0 -2.18382e+06 165885 0 -2.18988e+06 170043 0 -2.19609e+06 174208 0 -2.20247e+06 178381 0 -2.20901e+06 182564 0 -2.21572e+06 186756 0 -2.22259e+06 190959 0 -2.22962e+06 195174 0 -2.23683e+06 199401 0 -2.2442e+06 203641 0 -2.25175e+06 207895 0 -2.25947e+06 212164 0 -2.26736e+06 216450 0 -2.27543e+06 220752 0 -2.28368e+06 225071 0 -2.29211e+06 229410 0 -2.30072e+06 233767 0 -2.30952e+06 238145 0 -2.31851e+06 242544 0 -2.32768e+06 246966 0 -2.33705e+06 251410 0 -2.34661e+06 255878 0 -2.35636e+06 260370 0 -2.36632e+06 264888 0 -2.37648e+06 269433 0 -2.38684e+06 274004 0 -2.39741e+06 278603 0 -2.40819e+06 283231 0 -2.41918e+06 287888 0 -2.43039e+06 292575 0 -2.44182e+06 297293 0 -2.45348e+06 302041 0 -2.46536e+06 306821 0 -2.47747e+06 311633 0 -2.48982e+06 316476 0 -2.50241e+06 321352 0 -2.51525e+06 326261 0 -2.52833e+06 331201 0 -2.54166e+06 336174 0 -2.55525e+06 341178 0 -2.56911e+06 346214 0 -2.58323e+06 351279 0 -2.59763e+06 356374 0 -2.61231e+06 361497 0 -2.62727e+06 366646 0 -2.64252e+06 371819 0 -2.65808e+06 377015 0 -2.67394e+06 382229 0 -2.69011e+06 387460 0 -2.7066e+06 392702 0 -2.72342e+06 397953 0 -2.74058e+06 403206 0 -2.75808e+06 408457 0 -2.77593e+06 413698 0 -2.79415e+06 418922 0 -2.81274e+06 424120 0 -2.83172e+06 429283 0 -2.85108e+06 434401 0 -2.87086e+06 439459 0 -2.89104e+06 444446 0 -2.91166e+06 449344 0 -2.93271e+06 454137 0 -2.95421e+06 458805 0 -2.97618e+06 463326 0 -2.99862e+06 467674 0 -3.02155e+06 471823 0 -3.04497e+06 475741 0 -3.06891e+06 479393 0 -3.09337e+06 482743 0 -3.11836e+06 485746 0 -3.14389e+06 488356 0 -3.16997e+06 490519 0 -3.19661e+06 492178 0 -3.22379e+06 493268 0 -3.25153e+06 493720 0 -3.27981e+06 493454 0 -3.30863e+06 492388 0 -3.33795e+06 490429 0 -3.36776e+06 487477 0 -3.39802e+06 483425 0 -3.42866e+06 478162 0 -3.45963e+06 471565 0 -3.49084e+06 463512 0 -3.52219e+06 453873 0 -3.55355e+06 442522 0 -3.58477e+06 429332 0 -3.61568e+06 414186 0 -3.64606e+06 396978 0 -3.67568e+06 377621 0 -3.70428e+06 356053 0 -3.73158e+06 332246 0 -3.75726e+06 306212 0 -3.781e+06 278014 0 -3.80248e+06 247766 0 -3.82138e+06 215641 0 -3.83739e+06 181873 0 -3.85026e+06 146750 0 -3.85977e+06 110611 0 -3.86577e+06 73835.7 0 -3.86816e+06 36827.6 0 -3.86694e+06 1.25765e-06 0 -2.07688e+06 54361.5 0 -2.079e+06 58613.2 0 -2.08125e+06 62852.6 0 -2.08365e+06 67080.5 0 -2.08618e+06 71297.5 0 -2.08884e+06 75504.4 0 -2.09165e+06 79701.7 0 -2.0946e+06 83890.3 0 -2.09769e+06 88070.9 0 -2.10092e+06 92244.1 0 -2.10429e+06 96410.6 0 -2.1078e+06 100571 0 -2.11146e+06 104727 0 -2.11526e+06 108878 0 -2.11921e+06 113025 0 -2.1233e+06 117169 0 -2.12753e+06 121310 0 -2.13192e+06 125451 0 -2.13645e+06 129590 0 -2.14113e+06 133729 0 -2.14596e+06 137869 0 -2.15094e+06 142011 0 -2.15607e+06 146154 0 -2.16136e+06 150301 0 -2.16679e+06 154451 0 -2.17239e+06 158606 0 -2.17813e+06 162766 0 -2.18404e+06 166932 0 -2.1901e+06 171105 0 -2.19633e+06 175286 0 -2.20271e+06 179476 0 -2.20926e+06 183675 0 -2.21597e+06 187884 0 -2.22284e+06 192104 0 -2.22988e+06 196337 0 -2.23709e+06 200582 0 -2.24447e+06 204841 0 -2.25202e+06 209114 0 -2.25974e+06 213403 0 -2.26764e+06 217708 0 -2.27571e+06 222031 0 -2.28396e+06 226371 0 -2.29239e+06 230731 0 -2.30101e+06 235110 0 -2.3098e+06 239510 0 -2.31879e+06 243932 0 -2.32796e+06 248377 0 -2.33733e+06 252845 0 -2.34689e+06 257337 0 -2.35664e+06 261854 0 -2.3666e+06 266398 0 -2.37675e+06 270968 0 -2.38711e+06 275566 0 -2.39768e+06 280192 0 -2.40846e+06 284848 0 -2.41945e+06 289533 0 -2.43065e+06 294249 0 -2.44208e+06 298996 0 -2.45373e+06 303774 0 -2.46561e+06 308585 0 -2.47772e+06 313428 0 -2.49006e+06 318304 0 -2.50264e+06 323213 0 -2.51547e+06 328155 0 -2.52854e+06 333131 0 -2.54187e+06 338138 0 -2.55546e+06 343179 0 -2.5693e+06 348251 0 -2.58342e+06 353355 0 -2.59781e+06 358488 0 -2.61248e+06 363650 0 -2.62743e+06 368840 0 -2.64268e+06 374055 0 -2.65822e+06 379293 0 -2.67407e+06 384551 0 -2.69023e+06 389826 0 -2.70672e+06 395115 0 -2.72353e+06 400413 0 -2.74068e+06 405715 0 -2.75817e+06 411015 0 -2.77602e+06 416307 0 -2.79423e+06 421583 0 -2.81282e+06 426835 0 -2.83179e+06 432054 0 -2.85115e+06 437228 0 -2.87092e+06 442345 0 -2.8911e+06 447392 0 -2.91172e+06 452352 0 -2.93277e+06 457208 0 -2.95428e+06 461942 0 -2.97626e+06 466529 0 -2.99871e+06 470947 0 -3.02165e+06 475167 0 -3.04509e+06 479157 0 -3.06906e+06 482885 0 -3.09354e+06 486311 0 -3.11857e+06 489392 0 -3.14414e+06 492082 0 -3.17027e+06 494326 0 -3.19695e+06 496068 0 -3.2242e+06 497241 0 -3.25202e+06 497775 0 -3.28038e+06 497593 0 -3.3093e+06 496608 0 -3.33873e+06 494728 0 -3.36867e+06 491852 0 -3.39907e+06 487872 0 -3.42987e+06 482673 0 -3.46102e+06 476132 0 -3.49242e+06 468123 0 -3.52399e+06 458515 0 -3.55559e+06 447176 0 -3.58706e+06 433978 0 -3.61824e+06 418799 0 -3.64892e+06 401528 0 -3.67885e+06 382073 0 -3.70778e+06 360370 0 -3.7354e+06 336385 0 -3.76142e+06 310128 0 -3.78549e+06 281658 0 -3.80728e+06 251089 0 -3.82646e+06 218595 0 -3.84274e+06 184411 0 -3.85583e+06 148831 0 -3.86551e+06 112201 0 -3.87163e+06 74908.3 0 -3.87409e+06 37366.6 0 -3.87288e+06 -1.91829e-06 0 -2.07681e+06 55130.4 0 -2.07894e+06 59388.1 0 -2.08121e+06 63634 0 -2.08362e+06 67868.5 0 -2.08616e+06 72092.6 0 -2.08884e+06 76306.8 0 -2.09166e+06 80511.9 0 -2.09462e+06 84708.5 0 -2.09773e+06 88897.4 0 -2.10097e+06 93079.3 0 -2.10435e+06 97254.8 0 -2.10788e+06 101425 0 -2.11155e+06 105590 0 -2.11536e+06 109751 0 -2.11932e+06 113908 0 -2.12342e+06 118063 0 -2.12766e+06 122216 0 -2.13206e+06 126367 0 -2.1366e+06 130519 0 -2.14129e+06 134670 0 -2.14613e+06 138822 0 -2.15112e+06 142976 0 -2.15626e+06 147133 0 -2.16155e+06 151293 0 -2.16699e+06 155457 0 -2.17259e+06 159626 0 -2.17835e+06 163801 0 -2.18426e+06 167983 0 -2.19033e+06 172171 0 -2.19656e+06 176368 0 -2.20295e+06 180574 0 -2.2095e+06 184789 0 -2.21622e+06 189015 0 -2.22309e+06 193253 0 -2.23014e+06 197503 0 -2.23735e+06 201767 0 -2.24473e+06 206044 0 -2.25229e+06 210337 0 -2.26001e+06 214645 0 -2.26791e+06 218970 0 -2.27599e+06 223313 0 -2.28424e+06 227674 0 -2.29267e+06 232055 0 -2.30129e+06 236456 0 -2.31009e+06 240879 0 -2.31907e+06 245324 0 -2.32825e+06 249791 0 -2.33761e+06 254283 0 -2.34717e+06 258800 0 -2.35692e+06 263342 0 -2.36687e+06 267911 0 -2.37703e+06 272507 0 -2.38738e+06 277131 0 -2.39795e+06 281785 0 -2.40872e+06 286468 0 -2.41971e+06 291181 0 -2.43091e+06 295926 0 -2.44233e+06 300703 0 -2.45398e+06 305511 0 -2.46585e+06 310353 0 -2.47796e+06 315228 0 -2.49029e+06 320136 0 -2.50287e+06 325078 0 -2.51569e+06 330054 0 -2.52876e+06 335063 0 -2.54208e+06 340106 0 -2.55565e+06 345183 0 -2.56949e+06 350292 0 -2.5836e+06 355433 0 -2.59798e+06 360606 