<?xml version="1.0"?> 
<VTKFile type="StructuredGrid" version="0.1"> 
<StructuredGrid WholeExtent="0 127 0 127 0 0"> 
<Piece Extent="0 127 0 127 0 0"> 
<PointData>
<DataArray type="Float32" Name="u" format="ascii" NumberOfComponents="1"> 
0 -1312.57 -2625.27 -3938.26 -5251.66 -6565.62 -7880.28 -9195.78 -10512.3 -11829.8 -13148.7 -14468.9 -15790.7 -17114.1 -18439.3 -19766.5 -21095.8 -22427.2 -23761.1 -25097.4 -26436.3 -27778 -29122.5 -30470.1 -31820.8 -33174.8 -34532.2 -35893.2 -37257.8 -38626.2 -39998.4 -41374.8 -42755.3 -44140 -45529.2 -46922.8 -48321.1 -49724.1 -51131.9 -52544.7 -53962.5 -55385.4 -56813.6 -58247.1 -59686.1 -61130.5 -62580.5 -64036.2 -65497.6 -66964.9 -68437.9 -69916.9 -71401.8 -72892.7 -74389.6 -75892.5 -77401.5 -78916.6 -80437.7 -81964.9 -83498 -85037.1 -86582.2 -88133.1 -89689.7 -91252.1 -92820 -94393.3 -95971.9 -97555.7 -99144.5 -100738 -102336 -103938 -105545 -107155 -108769 -110386 -112006 -113628 -115253 -116879 -118507 -120137 -121767 -123397 -125028 -126659 -128290 -129920 -131549 -133178 -134805 -136432 -138058 -139683 -141308 -142933 -144559 -146185 -147813 -149444 -151077 -152715 -154359 -156009 -157666 -159333 -161010 -162700 -164403 -166122 -167857 -169613 -171389 -173189 -175014 -176868 -178754 -180674 -182635 -184639 -186701 -188823 -191051 -193392 -196056 -200000 0 -1308.65 -2617.48 -3926.63 -5236.24 -6546.45 -7857.39 -9169.22 -10482.1 -11796 -13111.3 -14428 -15746.3 -17066.3 -18388.1 -19711.9 -21037.8 -22366 -23696.5 -25029.5 -26365.2 -27703.7 -29045.1 -30389.6 -31737.2 -33088.1 -34442.5 -35800.4 -37162 -38527.4 -39896.8 -41270.2 -42647.8 -44029.7 -45416 -46806.9 -48202.4 -49602.6 -51007.7 -52417.8 -53832.9 -55253.2 -56678.8 -58109.7 -59546 -60987.9 -62435.4 -63888.6 -65347.5 -66812.3 -68282.9 -69759.4 -71241.9 -72730.5 -74225.1 -75725.7 -77232.4 -78745.3 -80264.2 -81789.1 -83320.1 -84857.1 -86400.1 -87948.9 -89503.6 -91064 -92629.9 -94201.4 -95778.2 -97360.2 -98947.3 -100539 -102136 -103736 -105341 -106950 -108563 -110179 -111797 -113419 -115043 -116669 -118296 -119925 -121555 -123186 -124817 -126448 -128079 -129709 -131340 -132969 -134598 -136226 -137854 -139481 -141109 -142736 -144364 -145994 -147625 -149259 -150896 -152538 -154185 -155840 -157501 -159173 -160855 -162549 -164257 -165981 -167722 -169482 -171263 -173068 -174899 -176758 -178648 -180573 -182537 -184545 -186606 -188734 -190949 -193301 -195898 -199287 0 -1304.71 -2609.65 -3914.95 -5220.75 -6527.2 -7834.42 -9142.56 -10451.7 -11762.1 -13073.8 -14387 -15701.8 -17018.3 -18336.7 -19657.1 -20979.6 -22304.4 -23631.7 -24961.5 -26293.9 -27629.2 -28967.5 -30308.8 -31653.3 -33001.1 -34352.4 -35707.3 -37066 -38428.4 -39794.8 -41165.3 -42540.1 -43919.1 -45302.6 -46690.6 -48083.3 -49480.8 -50883.2 -52290.5 -53703 -55120.6 -56543.6 -57971.9 -59405.6 -60845 -62289.9 -63740.6 -65197 -66659.3 -68127.5 -69601.6 -71081.8 -72568 -74060.2 -75558.6 -77063 -78573.6 -80090.3 -81613.1 -83141.9 -84676.8 -86217.7 -87764.5 -89317.2 -90875.6 -92439.7 -94009.3 -95584.3 -97164.6 -98749.9 -100340 -101935 -103534 -105138 -106746 -108357 -109971 -111589 -113210 -114833 -116458 -118085 -119714 -121343 -122974 -124605 -126236 -127868 -129499 -131130 -132761 -134391 -136021 -137650 -139280 -140909 -142539 -144170 -145802 -147437 -149074 -150715 -152361 -154012 -155670 -157336 -159012 -160699 -162398 -164111 -165839 -167585 -169351 -171137 -172947 -174783 -176647 -178542 -180471 -182438 -184450 -186513 -188642 -190852 -193196 -195755 -198815 0 -1300.76 -2601.79 -3903.23 -5205.21 -6507.88 -7811.36 -9115.79 -10421.3 -11728.1 -13036.2 -14345.8 -15657.1 -16970.1 -18285.1 -19602.1 -20921.2 -22242.7 -23566.7 -24893.2 -26222.4 -27554.5 -28889.5 -30227.7 -31569.1 -32913.8 -34262.1 -35614 -36969.6 -38329.1 -39692.6 -41060.2 -42432 -43808.2 -45188.8 -46574 -47963.9 -49358.7 -50758.3 -52163 -53572.7 -54987.7 -56408 -57833.7 -59264.9 -60701.7 -62144.1 -63592.2 -65046.2 -66506 -67971.8 -69443.5 -70921.3 -72405.1 -73895 -75391.1 -76893.3 -78401.6 -79916.1 -81436.7 -82963.4 -84496.2 -86035.1 -87579.8 -89130.5 -90687 -92249.2 -93816.9 -95390.1 -96968.7 -98552.3 -100141 -101734 -103332 -104934 -106541 -108151 -109764 -111381 -113001 -114623 -116247 -117874 -119502 -121131 -122762 -124393 -126025 -127657 -129289 -130921 -132553 -134184 -135815 -137447 -139078 -140710 -142342 -143976 -145611 -147248 -148889 -150534 -152183 -153838 -155501 -157171 -158851 -160543 -162246 -163964 -165698 -167449 -169219 -171011 -172826 -174667 -176536 -178435 -180368 -182340 -184354 -186419 -188547 -190754 -193087 -195613 -198441 0 -1296.8 -2593.91 -3891.47 -5189.61 -6488.48 -7788.21 -9088.93 -10390.8 -11693.9 -12998.4 -14304.5 -15612.2 -16921.8 -18233.3 -19546.9 -20862.7 -22180.8 -23501.4 -24824.7 -26150.6 -27479.5 -28811.4 -30146.4 -31484.6 -32826.3 -34171.5 -35520.3 -36872.9 -38229.4 -39590 -40954.6 -42323.6 -43696.9 -45074.7 -46457.1 -47844.2 -49236.2 -50633.1 -52035 -53442.1 -54854.4 -56272.1 -57695.2 -59123.8 -60558 -61997.9 -63443.6 -64895 -66352.4 -67815.7 -69285.1 -70760.5 -72241.9 -73729.5 -75223.3 -76723.2 -78229.3 -79741.6 -81260.1 -82784.7 -84315.4 -85852.1 -87394.9 -88943.6 -90498.1 -92058.4 -93624.3 -95195.8 -96772.5 -98354.5 -99941.5 -101533 -103130 -104731 -106335 -107944 -109557 -111172 -112791 -114413 -116037 -117663 -119290 -120920 -122550 -124181 -125813 -127446 -129078 -130711 -132344 -133977 -135610 -137243 -138876 -140510 -142145 -143781 -145419 -147060 -148704 -150352 -152005 -153664 -155331 -157006 -158691 -160386 -162095 -163817 -165556 -167312 -169088 -170884 -172705 -174550 -176424 -178328 -180265 -182240 -184258 -186324 -188452 -190655 -192975 -195468 -198119 0 -1292.82 -2585.99 -3879.66 -5173.95 -6469.01 -7764.97 -9061.97 -10360.1 -11659.6 -12960.5 -14263 -15567.2 -16873.3 -18181.3 -19491.5 -20803.9 -22118.7 -23435.9 -24755.9 -26078.6 -27404.2 -28732.9 -30064.8 -31399.9 -32738.5 -34080.6 -35426.4 -36776 -38129.5 -39487.1 -40848.8 -42214.9 -43585.3 -44960.2 -46339.8 -47724.2 -49113.4 -50507.5 -51906.8 -53311.2 -54720.8 -56135.9 -57556.3 -58982.4 -60414 -61851.4 -63294.5 -64743.5 -66198.4 -67659.3 -69126.3 -70599.3 -72078.4 -73563.7 -75055.2 -76552.9 -78056.8 -79566.8 -81083.1 -82605.6 -84134.2 -85668.9 -87209.7 -88756.4 -90309 -91867.4 -93431.5 -95001.2 -96576.2 -98156.5 -99741.9 -101332 -102927 -104527 -106130 -107738 -109349 -110964 -112582 -114202 -115826 -117451 -119079 -120708 -122338 -123969 -125602 -127235 -128868 -130502 -132136 -133770 -135404 -137039 -138674 -140311 -141948 -143587 -145228 -146871 -148519 -150170 -151827 -153490 -155161 -156840 -158529 -160230 -161943 -163670 -165414 -167175 -168956 -170757 -172583 -174433 -176311 -178220 -180162 -182141 -184161 -186229 -188356 -190556 -192861 -195320 -197830 0 -1288.82 -2578.04 -3867.8 -5158.23 -6449.47 -7741.65 -9034.91 -10329.4 -11625.2 -12922.5 -14221.4 -15522.1 -16824.6 -18129.2 -19435.9 -20744.9 -22056.3 -23370.3 -24686.9 -26006.4 -27328.8 -28654.2 -29982.9 -31314.9 -32650.4 -33989.4 -35332.1 -36678.7 -38029.3 -39383.9 -40742.7 -42105.8 -43473.4 -44845.5 -46222.3 -47603.8 -48990.2 -50381.6 -51778.2 -53179.9 -54586.9 -55999.3 -57417.1 -58840.6 -60269.7 -61704.5 -63145.1 -64591.7 -66044.1 -67502.6 -68967.1 -70437.8 -71914.6 -73397.6 -74886.8 -76382.2 -77883.8 -79391.7 -80905.9 -82426.2 -83952.7 -85485.4 -87024.2 -88568.9 -90119.6 -91676.2 -93238.4 -94806.3 -96379.7 -97958.3 -99542.2 -101131 -102724 -104323 -105925 -107531 -109142 -110755 -112372 -113992 -115615 -117240 -118867 -120496 -122126 -123758 -125390 -127024 -128658 -130292 -131927 -133563 -135199 -136835 -138473 -140111 -141751 -143392 -145036 -146683 -148334 -149989 -151649 -153316 -154991 -156674 -158368 -160073 -161791 -163523 -165271 -167038 -168823 -170630 -172460 -174316 -176199 -178112 -180058 -182040 -184063 -186133 -188259 -190454 -192746 -195169 -197564 0 -1284.81 -2570.07 -3855.9 -5142.46 -6429.86 -7718.25 -9007.75 -10298.5 -11590.6 -12884.3 -14179.6 -15476.7 -16775.8 -18076.8 -19380.1 -20685.7 -21993.7 -23304.4 -24617.7 -25933.9 -27253 -28575.3 -29900.8 -31229.6 -32562 -33897.9 -35237.6 -36581.2 -37928.7 -39280.4 -40636.2 -41996.5 -43361.1 -44730.4 -46104.3 -47483.1 -48866.7 -50255.4 -51649.2 -53048.2 -54452.6 -55862.3 -57277.6 -58698.4 -60125 -61557.3 -62995.4 -64439.5 -65889.5 -67345.5 -68807.7 -70275.9 -71750.4 -73231.1 -74718 -76211.2 -77710.6 -79216.3 -80728.3 -82246.6 -83771 -85301.6 -86838.4 -88381.2 -89930 -91484.7 -93045.1 -94611.3 -96182.9 -97760 -99342.2 -100929 -102522 -104118 -105719 -107325 -108934 -110547 -112163 -113782 -115404 -117028 -118655 -120284 -121914 -123546 -125179 -126813 -128447 -130083 -131719 -133356 -134993 -136632 -138271 -139911 -141554 -143198 -144844 -146494 -148148 -149807 -151471 -153142 -154821 -156508 -158206 -159916 -161638 -163375 -165129 -166900 -168690 -170502 -172337 -174198 -176086 -178003 -179953 -181939 -183965 -186036 -188161 -190352 -192630 -195016 -197318 0 -1280.78 -2562.06 -3843.96 -5126.62 -6410.18 -7694.76 -8980.49 -10267.5 -11556 -12846 -14137.7 -15431.2 -16726.7 -18024.3 -19324.1 -20626.3 -21931 -23238.2 -24548.2 -25861.1 -27177.1 -28496.1 -29818.4 -31144.1 -32473.3 -33806.2 -35142.8 -36483.3 -37827.9 -39176.6 -40529.5 -41886.8 -43248.6 -44615 -45986.1 -47362.1 -48742.9 -50128.9 -51519.9 -52916.3 -54317.9 -55725 -57137.7 -58556 -59980 -61409.7 -62845.4 -64286.9 -65734.5 -67188.1 -68647.9 -70113.8 -71585.9 -73064.3 -74548.9 -76039.9 -77537.1 -79040.6 -80550.5 -82066.6 -83589 -85117.6 -86652.4 -88193.2 -89740.1 -91292.9 -92851.6 -94416 -95986 -97561.4 -99142 -100728 -102318 -103914 -105514 -107118 -108726 -110338 -111953 -113571 -115193 -116817 -118443 -120072 -121702 -123334 -124967 -126602 -128237 -129874 -131511 -133149 -134788 -136428 -138069 -139712 -141356 -143003 -144653 -146306 -147963 -149625 -151293 -152968 -154650 -156342 -158045 -159759 -161486 -163228 -164986 -166762 -168557 -170374 -172214 -174079 -175972 -177894 -179849 -181838 -183866 -185939 -188063 -190249 -192513 -194863 -197086 0 -1276.74 -2554.03 -3831.98 -5110.73 -6390.42 -7671.18 -8953.14 -10236.4 -11521.2 -12807.6 -14095.7 -15385.6 -16677.6 -17971.6 -19268 -20566.7 -21868 -23171.9 -24478.6 -25788.2 -27100.8 -28416.7 -29735.8 -31058.3 -32384.4 -33714.2 -35047.7 -36385.2 -37726.8 -39072.4 -40422.4 -41776.8 -43135.7 -44499.3 -45867.5 -47240.7 -48618.8 -50002 -51390.3 -52784 -54183 -55587.4 -56997.5 -58413.2 -59834.6 -61261.8 -62694.9 -64134 -65579.2 -67030.4 -68487.7 -69951.3 -71421.1 -72897.2 -74379.5 -75868.2 -77363.3 -78864.6 -80372.3 -81886.4 -83406.7 -84933.3 -86466.1 -88005 -89550 -91101 -92657.8 -94220.5 -95788.8 -97362.6 -98941.7 -100526 -102115 -103709 -105308 -106911 -108518 -110129 -111743 -113361 -114982 -116605 -118231 -119860 -121490 -123122 -124756 -126391 -128027 -129664 -131302 -132942 -134582 -136224 -137867 -139512 -141159 -142808 -144461 -146117 -147777 -149443 -151114 -152793 -154480 -156176 -157882 -159601 -161333 -163079 -164842 -166623 -168424 -170246 -172091 -173961 -175858 -177785 -179743 -181736 -183767 -185841 -187964 -190145 -192395 -194711 -196868 0 -1272.69 -2545.96 -3819.95 -5094.79 -6370.6 -7647.52 -8925.69 -10205.2 -11486.3 -12769 -14053.4 -15339.8 -16628.2 -17918.8 -19211.6 -20506.9 -21804.8 -23105.3 -24408.7 -25715 -27024.4 -28337 -29652.9 -30972.2 -32295.2 -33621.9 -34952.4 -36286.8 -37625.3 -38968 -40315.1 -41666.5 -43022.5 -44383.2 -45748.7 -47119 -48494.3 -49874.8 -51260.4 -52651.3 -54047.7 -55449.5 -56856.9 -58270 -59688.9 -61113.6 -62544.2 -63980.8 -65423.5 -66872.3 -68327.3 -69788.5 -71255.9 -72729.7 -74209.8 -75696.3 -77189.1 -78688.3 -80193.9 -81705.8 -83224.1 -84748.7 -86279.5 -87816.5 -89359.6 -90908.8 -92463.9 -94024.8 -95591.4 -97163.6 -98741.2 -100324 -101912 -103505 -105102 -106704 -108310 -109920 -111533 -113150 -114771 -116394 -118019 -119648 -121278 -122910 -124544 -126179 -127816 -129455 -131094 -132735 -134377 -136020 -137665 -139312 -140962 -142614 -144269 -145928 -147591 -149260 -150936 -152618 -154309 -156009 -157720 -159443 -161180 -162931 -164699 -166484 -168290 -170117 -171967 -173842 -175744 -177675 -179637 -181634 -183667 -185742 -187864 -190040 -192276 -194559 -196660 0 -1268.62 -2537.87 -3807.88 -5078.78 -6350.71 -7623.78 -8898.15 -10173.9 -11451.3 -12730.3 -14011.1 -15293.9 -16578.7 -17865.7 -19155.1 -20447 -21741.4 -23038.6 -24338.6 -25641.6 -26947.7 -28257 -29569.7 -30885.9 -32205.7 -33529.3 -34856.7 -36188.1 -37523.6 -38863.3 -40207.4 -41555.9 -42909 -44266.9 -45629.5 -46997 -48369.5 -49747.2 -51130.1 -52518.3 -53912 -55311.2 -56716 -58126.5 -59542.8 -60965 -62393.1 -63827.3 -65267.5 -66713.9 -68166.5 -69625.3 -71090.5 -72561.9 -74039.8 -75524 -77014.7 -78511.7 -80015.2 -81525 -83041.2 -84563.8 -86092.6 -87627.7 -89169 -90716.3 -92269.6 -93828.8 -95393.8 -96964.4 -98540.4 -100122 -101708 -103300 -104896 -106497 -108101 -109710 -111323 -112940 -114559 -116182 -117807 -119435 -121066 -122698 -124332 -125968 -127606 -129245 -130886 -132528 -134171 -135816 -137463 -139113 -140764 -142419 -144077 -145739 -147406 -149078 -150757 -152443 -154138 -155842 -157558 -159285 -161026 -162782 -164555 -166345 -168156 -169987 -171842 -173722 -175629 -177564 -179531 -181531 -183567 -185643 -187763 -189934 -192157 -194408 -196462 0 -1264.54 -2529.75 -3795.77 -5062.72 -6330.74 -7599.96 -8870.51 -10142.5 -11416.1 -12691.4 -13968.6 -15247.8 -16529 -17812.5 -19098.4 -20386.8 -21677.8 -22971.6 -24268.2 -25567.9 -26870.7 -28176.8 -29486.3 -30799.3 -32116 -33436.4 -34760.8 -36089.1 -37421.6 -38758.3 -40099.4 -41445 -42795.2 -44150.2 -45509.9 -46874.6 -48244.4 -49619.3 -50999.5 -52385 -53776 -55172.6 -56574.8 -57982.7 -59396.5 -60816.1 -62241.7 -63673.4 -65111.2 -66555.2 -68005.4 -69461.9 -70924.7 -72393.9 -73869.5 -75351.5 -76839.9 -78334.8 -79836.1 -81343.9 -82858.1 -84378.6 -85905.5 -87438.7 -88978.1 -90523.6 -92075.2 -93632.7 -95196 -96765 -98339.5 -99919.4 -101505 -103095 -104690 -106289 -107893 -109501 -111113 -112729 -114348 -115970 -117595 -119223 -120853 -122486 -124121 -125757 -127395 -129035 -130677 -132320 -133965 -135612 -137261 -138913 -140567 -142224 -143885 -145550 -147220 -148896 -150578 -152268 -153967 -155675 -157395 -159127 -160872 -162633 -164410 -166206 -168021 -169858 -171718 -173602 -175514 -177454 -179424 -181428 -183466 -185543 -187663 -189828 -192037 -194259 -196272 0 -1260.44 -2521.6 -3783.61 -5046.6 -6310.71 -7576.06 -8842.78 -10111 -11380.8 -12652.5 -13926 -15201.5 -16479.2 -17759.1 -19041.5 -20326.4 -21614 -22904.4 -24197.7 -25494 -26793.6 -28096.4 -29402.7 -30712.5 -32026 -33343.3 -34664.5 -35989.8 -37319.3 -38653 -39991.2 -41333.8 -42681.1 -44033.2 -45390.1 -46752 -48119 -49491.1 -50868.6 -52251.4 -53639.7 -55033.6 -56433.2 -57838.6 -59249.7 -60666.9 -62090 -63519.2 -64954.5 -66396.1 -67843.9 -69298.1 -70758.6 -72225.5 -73698.8 -75178.6 -76664.9 -78157.6 -79656.8 -81162.5 -82674.7 -84193.2 -85718.2 -87249.4 -88787 -90330.7 -91880.5 -93436.3 -94997.9 -96565.4 -98138.4 -99716.9 -101301 -102889 -104483 -106082 -107685 -109292 -110903 -112518 -114136 -115758 -117383 -119011 -120641 -122274 -123909 -125546 -127185 -128826 -130469 -132113 -133760 -135408 -137059 -138713 -140369 -142029 -143692 -145360 -147034 -148713 -150399 -152093 -153795 -155508 -157232 -158968 -160718 -162484 -164266 -166066 -167886 -169728 -171592 -173482 -175398 -177342 -179317 -181324 -183365 -185443 -187561 -189721 -191918 -194111 -196090 0 -1256.32 -2513.42 -3771.41 -5030.43 -6290.61 -7552.07 -8814.95 -10079.4 -11345.5 -12613.4 -13883.2 -15155.1 -16429.2 -17705.6 -18984.4 -20265.9 -21550 -22837 -24126.9 -25419.9 -26716.2 -28015.7 -29318.8 -30625.4 -31935.7 -33249.9 -34568 -35890.3 -37216.7 -38547.4 -39882.6 -41222.3 -42566.7 -43915.9 -45269.9 -46629 -47993.2 -49362.6 -50737.3 -52117.4 -53503.1 -54894.3 -56291.3 -57694.1 -59102.7 -60517.3 -61937.9 -63364.7 -64797.6 -66236.7 -67682.2 -69134 -70592.1 -72056.8 -73527.8 -75005.4 -76489.5 -77980.1 -79477.2 -80980.8 -82491 -84007.5 -85530.5 -87059.9 -88595.6 -90137.5 -91685.5 -93239.7 -94799.7 -96365.6 -97937.1 -99514.1 -101097 -102684 -104277 -105874 -107476 -109082 -110693 -112307 -113925 -115546 -117171 -118799 -120429 -122062 -123697 -125335 -126974 -128616 -130260 -131906 -133554 -135204 -136857 -138513 -140171 -141834 -143500 -145171 -146847 -148530 -150220 -151917 -153624 -155341 -157069 -158809 -160564 -162334 -164121 -165926 -167751 -169597 -171467 -173361 -175282 -177231 -179209 -181220 -183263 -185343 -187459 -189614 -191798 -193966 -195915 0 -1252.2 -2505.21 -3759.17 -5014.2 -6270.44 -7528 -8787.03 -10047.6 -11310 -12574.1 -13840.3 -15108.5 -16379 -17651.8 -18927.2 -20205.1 -21485.8 -22769.4 -24055.9 -25345.6 -26638.5 -27934.8 -29234.6 -30538 -31845.2 -33156.2 -34471.3 -35790.4 -37113.8 -38441.5 -39773.7 -41110.5 -42452 -43798.3 -45149.5 -46505.7 -47867.1 -49233.7 -50605.7 -51983.1 -53366.1 -54754.7 -56149.1 -57549.3 -58955.3 -60367.4 -61785.5 -63209.8 -64640.3 -66077 -67520.1 -68969.5 -70425.4 -71887.7 -73356.6 -74831.9 -76313.8 -77802.3 -79297.3 -80798.9 -82307 -83821.6 -85342.6 -86870.1 -88403.9 -89944.1 -91490.4 -93042.8 -94601.2 -96165.5 -97735.6 -99311.2 -100892 -102479 -104070 -105666 -107267 -108873 -110482 -112096 -113713 -115334 -116959 -118586 -120217 -121850 -123485 -125123 -126764 -128407 -130052 -131699 -133348 -135000 -136655 -138313 -139974 -141639 -143308 -144982 -146661 -148347 -150040 -151741 -153452 -155173 -156905 -158650 -160409 -162184 -163975 -165785 -167615 -169467 -171341 -173240 -175165 -177119 -179101 -181115 -183161 -185242 -187357 -189507 -191679 -193823 -195746 0 -1248.06 -2496.98 -3746.89 -4997.92 -6250.2 -7503.85 -8759.01 -10015.8 -11274.3 -12534.8 -13797.2 -15061.8 -16328.7 -17597.9 -18869.7 -20144.2 -21421.4 -22701.5 -23984.7 -25271 -26560.6 -27853.6 -29150.2 -30450.4 -31754.4 -33062.3 -34374.2 -35690.3 -37010.6 -38335.3 -39664.5 -40998.4 -42336.9 -43680.3 -45028.7 -46382.1 -47740.7 -49104.6 -50473.8 -51848.5 -53228.8 -54614.8 -56006.5 -57404.1 -58807.6 -60217.2 -61632.8 -63054.6 -64482.6 -65917 -67357.7 -68804.8 -70258.3 -71718.4 -73185 -74658.2 -76137.9 -77624.2 -79117.1 -80616.6 -82122.7 -83635.3 -85154.5 -86680.1 -88212.1 -89750.4 -91295 -92845.8 -94402.6 -95965.3 -97533.9 -99108.1 -100688 -102273 -103863 -105458 -107058 -108663 -110272 -111885 -113502 -115122 -116746 -118374 -120004 -121637 -123273 -124912 -126553 -128197 -129843 -131491 -133142 -134796 -136453 -138113 -139776 -141443 -143115 -144792 -146475 -148164 -149861 -151566 -153280 -155005 -156741 -158491 -160254 -162034 -163830 -165645 -167479 -169336 -171215 -173119 -175049 -177006 -178993 -181010 -183059 -185140 -187255 -189399 -191560 -193682 -195583 0 -1243.9 -2488.71 -3734.56 -4981.58 -6229.89 -7479.62 -8730.9 -9983.86 -11238.6 -12495.3 -13754 -15015 -16278.2 -17543.9 -18812.1 -20083 -21356.8 -22633.5 -23913.3 -25196.2 -26482.5 -27772.2 -29065.5 -30362.5 -31663.3 -32968.1 -34276.9 -35589.9 -36907.2 -38228.9 -39555.1 -40886 -42221.6 -43562.1 -44907.6 -46258.2 -47614 -48975.1 -50341.6 -51713.6 -53091.2 -54474.5 -55863.6 -57258.6 -58659.6 -60066.6 -61479.7 -62899.1 -64324.7 -65756.6 -67194.9 -68639.7 -70091 -71548.8 -73013.1 -74484.1 -75961.6 -77445.8 -78936.7 -80434.1 -81938.2 -83448.8 -84966 -86489.8 -88019.9 -89556.5 -91099.4 -92648.5 -94203.7 -95764.9 -97332 -98904.8 -100483 -102067 -103656 -105250 -106849 -108453 -110061 -111673 -113290 -114910 -116534 -118161 -119792 -121425 -123061 -124701 -126343 -127987 -129634 -131284 -132936 -134592 -136250 -137912 -139578 -141248 -142922 -144602 -146288 -147981 -149681 -151389 -153108 -154837 -156577 -158331 -160099 -161883 -163684 -165503 -167343 -169204 -171088 -172997 -174931 -176893 -178884 -180904 -182956 -185038 -187152 -189291 -191441 -193543 -195426 0 -1239.73 -2480.42 -3722.2 -4965.19 -6209.52 -7455.32 -8702.7 -9951.81 -11202.8 -12455.7 -13710.7 -14968 -16227.6 -17489.6 -18754.3 -20021.7 -21292 -22565.3 -23841.6 -25121.2 -26404.2 -27690.6 -28980.6 -30274.4 -31572 -32873.6 -34179.3 -35489.2 -36803.4 -38122.1 -39445.3 -40773.2 -42106 -43443.6 -44786.2 -46134 -47486.9 -48845.3 -50209 -51578.3 -52953.3 -54333.9 -55720.4 -57112.8 -58511.2 -59915.7 -61326.4 -62743.2 -64166.4 -65595.9 -67031.9 -68474.3 -69923.3 -71378.8 -72840.9 -74309.7 -75785.1 -77267.2 -78755.9 -80251.3 -81753.4 -83262.1 -84777.4 -86299.2 -87827.6 -89362.4 -90903.5 -92451 -94004.6 -95564.3 -97129.9 -98701.3 -100278 -101861 -103449 -105042 -106640 -108243 -109850 -111462 -113078 -114698 -116321 -117948 -119579 -121213 -122849 -124489 -126132 -127777 -129425 -131076 -132730 -134388 -136048 -137712 -139380 -141052 -142730 -144412 -146101 -147797 -149501 -151213 -152935 -154668 -156413 -158171 -159944 -161732 -163538 -165362 -167206 -169072 -170961 -172874 -174814 -176780 -178774 -180798 -182852 -184936 -187048 -189184 -191323 -193407 -195273 0 -1235.55 -2472.1 -3709.79 -4948.74 -6189.08 -7430.93 -8674.41 -9919.66 -11166.8 -12415.9 -13667.2 -14920.8 -16176.7 -17435.2 -18696.3 -19960.2 -21227 -22496.8 -23769.8 -25046 -26325.6 -27608.7 -28895.5 -30186 -31480.5 -32778.9 -34081.4 -35388.2 -36699.4 -38015 -39335.3 -40660.2 -41990 -43324.7 -44664.5 -46009.4 -47359.6 -48715.1 -50076.2 -51442.8 -52815 -54193 -55576.9 -56966.7 -58362.6 -59764.5 -61172.7 -62587.1 -64007.8 -65434.9 -66868.5 -68308.6 -69755.3 -71208.5 -72668.4 -74135 -75608.2 -77088.2 -78574.8 -80068.2 -81568.3 -83075 -84588.4 -86108.4 -87634.9 -89168 -90707.4 -92253.2 -93805.3 -95363.4 -96927.6 -98497.7 -100073 -101655 -103242 -104834 -106431 -108033 -109639 -111250 -112866 -114485 -116109 -117736 -119366 -121000 -122637 -124278 -125921 -127567 -129217 -130869 -132524 -134183 -135845 -137512 -139182 -140857 -142537 -144222 -145914 -147613 -149321 -151037 -152762 -154499 -156248 -158011 -159788 -161581 -163391 -165220 -167069 -168940 -170834 -172752 -174696 -176666 -178665 -180692 -182748 -184834 -186945 -189076 -191205 -193272 -195125 0 -1231.35 -2463.76 -3697.35 -4932.25 -6168.57 -7406.46 -8646.03 -9887.41 -11130.7 -12376.1 -13623.6 -14873.5 -16125.8 -17380.6 -18638.2 -19898.5 -21161.8 -22428.2 -23697.7 -24970.5 -26246.8 -27526.6 -28810.1 -30097.4 -31388.6 -32683.9 -33983.3 -35287 -36595.1 -37907.7 -39224.9 -40546.9 -41873.8 -43205.6 -44542.5 -45884.6 -47231.9 -48584.7 -49943 -51306.9 -52676.4 -54051.8 -55433.1 -56820.3 -58213.6 -59613 -61018.6 -62430.6 -63848.9 -65273.6 -66704.8 -68142.6 -69587 -71038 -72495.6 -73960 -75431.1 -76908.9 -78393.5 -79884.8 -81382.9 -82887.7 -84399.2 -85917.3 -87442.1 -88973.4 -90511.1 -92055.3 -93605.8 -95162.4 -96725.1 -98293.8 -99868.3 -101448 -103034 -104625 -106221 -107822 -109428 -111039 -112654 -114273 -115896 -117523 -119154 -120788 -122425 -124066 -125710 -127357 -129008 -130661 -132318 -133979 -135643 -137311 -138984 -140661 -142343 -144032 -145727 -147430 -149140 -150860 -152590 -154330 -156084 -157850 -159632 -161429 -163244 -165078 -166932 -168807 -170706 -172629 -174577 -176552 -178555 -180585 -182644 -184731 -186841 -188968 -191088 -193141 -194982 0 -1227.14 -2455.38 -3684.86 -4915.69 -6148 -7381.92 -8617.56 -9855.05 -11094.5 -12336.1 -13579.9 -14826 -16074.7 -17325.9 -18579.9 -19836.7 -21096.4 -22359.3 -23625.4 -24894.8 -26167.8 -27444.3 -28724.5 -30008.5 -31296.5 -32588.6 -33884.9 -35185.5 -36490.5 -37800.1 -39114.3 -40433.3 -41757.2 -43086.1 -44420.2 -45759.4 -47104 -48454 -49809.5 -51170.6 -52537.5 -53910.2 -55288.9 -56673.5 -58064.2 -59461.1 -60864.3 -62273.8 -63689.7 -65112 -66540.8 -67976.3 -69418.3 -70867.1 -72322.5 -73784.7 -75253.6 -76729.4 -78211.9 -79701.2 -81197.3 -82700.1 -84209.7 -85726 -87249 -88778.5 -90314.6 -91857.1 -93406 -94961.2 -96522.5 -98089.8 -99663 -101242 -102826 -104416 -106012 -107612 -109217 -110827 -112441 -114060 -115683 -117310 -118941 -120575 -122213 -123854 -125499 -127147 -128799 -130454 -132112 -133774 -135440 -137110 -138785 -140465 -142150 -143842 -145540 -147245 -148960 -150683 -152416 -154161 -155919 -157689 -159475 -161277 -163097 -164935 -166794 -168674 -170578 -172505 -174458 -176438 -178444 -180478 -182540 -184628 -186737 -188860 -190972 -193011 -194842 0 -1222.91 -2446.98 -3672.33 -4899.09 -6127.36 -7357.29 -8588.99 -9822.59 -11058.2 -12296 -13536 -14778.4 -16023.4 -17271 -18521.3 -19774.6 -21030.9 -22290.3 -23552.9 -24819 -26088.5 -27361.7 -28638.6 -29919.4 -31204.2 -32493.1 -33786.2 -35083.7 -36385.7 -37692.2 -39003.4 -40319.4 -41640.4 -42966.4 -44297.5 -45633.9 -46975.7 -48322.9 -49675.7 -51034.1 -52398.3 -53768.4 -55144.4 -56526.4 -57914.6 -59309 -60709.6 -62116.7 -63530.1 -64950 -66376.5 -67809.6 -69249.4 -70695.9 -72149.1 -73609.1 -75075.9 -76549.5 -78030 -79517.3 -81011.4 -82512.3 -84020 -85534.4 -87055.6 -88583.4 -90117.8 -91658.7 -93206.1 -94759.7 -96319.6 -97885.6 -99457.5 -101035 -102619 -104208 -105802 -107401 -109006 -110615 -112229 -113848 -115470 -117097 -118728 -120362 -122001 -123643 -125288 -126937 -128590 -130246 -131906 -133570 -135237 -136910 -138587 -140269 -141957 -143651 -145352 -147061 -148779 -150506 -152243 -153992 -155753 -157528 -159319 -161125 -162949 -164792 -166656 -168541 -170449 -172381 -174339 -176323 -178333 -180371 -182435 -184524 -186634 -188753 -190856 -192884 -194707 0 -1218.67 -2438.56 -3659.76 -4882.43 -6106.66 -7332.59 -8560.34 -9790.04 -11021.8 -12255.7 -13492 -14730.7 -15972 -17215.9 -18462.7 -19712.3 -20965.1 -22221 -23480.2 -24742.8 -26009 -27278.9 -28552.5 -29830 -31111.6 -32397.3 -33687.3 -34981.7 -36280.5 -37584 -38892.2 -40205.3 -41523.3 -42846.4 -44174.6 -45508.2 -46847.1 -48191.5 -49541.5 -50897.3 -52258.8 -53626.2 -54999.6 -56379 -57764.6 -59156.5 -60554.7 -61959.2 -63370.2 -64787.8 -66211.9 -67642.7 -69080.2 -70524.4 -71975.4 -73433.2 -74897.9 -76369.4 -77847.8 -79333.1 -80825.2 -82324.2 -83830 -85342.6 -86862 -88388.1 -89920.8 -91460.1 -93005.9 -94558 -96116.5 -97681.1 -99251.8 -100828 -102411 -103999 -105592 -107191 -108795 -110403 -112017 -113635 -115257 -116884 -118515 -120150 -121788 -123431 -125077 -126727 -128381 -130038 -131699 -133365 -135034 -136709 -138388 -140073 -141763 -143460 -145165 -146877 -148598 -150328 -152069 -153822 -155587 -157367 -159161 -160972 -162801 -164649 -166517 -168407 -170320 -172257 -174219 -176207 -178222 -180263 -182330 -184421 -186529 -188645 -190742 -192759 -194575 0 -1214.42 -2430.1 -3647.16 -4865.71 -6085.89 -7307.81 -8531.6 -9757.38 -10985.3 -12215.4 -13447.9 -14682.8 -15920.4 -17160.7 -18403.8 -19649.9 -20899.1 -22151.5 -23407.3 -24666.5 -25929.3 -27195.8 -28466.1 -29740.4 -31018.8 -32301.3 -33588.1 -34879.3 -36175.1 -37475.5 -38780.7 -40090.8 -41405.9 -42726 -44051.4 -45382.1 -46718.2 -48059.8 -49407.1 -50760.1 -52118.9 -53483.7 -54854.4 -56231.3 -57614.4 -59003.7 -60399.4 -61801.5 -63210.1 -64625.2 -66047 -67475.5 -68910.6 -70352.6 -71801.4 -73257.1 -74719.6 -76189 -77665.3 -79148.6 -80638.7 -82135.8 -83639.7 -85150.5 -86668.1 -88192.5 -89723.6 -91261.3 -92805.5 -94356.2 -95913.2 -97476.5 -99045.9 -100621 -102203 -103790 -105382 -106980 -108583 -110191 -111804 -113422 -115044 -116671 -118302 -119937 -121576 -123219 -124866 -126517 -128171 -129830 -131493 -133160 -134831 -136508 -138189 -139876 -141570 -143270 -144977 -146692 -148416 -150151 -151895 -153652 -155422 -157205 -159004 -160820 -162653 -164505 -166378 -168273 -170191 -172132 -174099 -176092 -178110 -180155 -182225 -184317 -186425 -188538 -190628 -192635 -194447 0 -1210.16 -2421.62 -3634.51 -4848.95 -6065.06 -7282.96 -8502.77 -9724.62 -10948.6 -12174.9 -13403.6 -14634.8 -15868.7 -17105.3 -18344.8 -19587.3 -20833 -22081.9 -23334.2 -24590 -25849.4 -27112.5 -28379.6 -29650.6 -30925.7 -32205 -33488.6 -34776.8 -36069.4 -37366.8 -38669 -39976 -41288.1 -42605.4 -43927.9 -45255.7 -46589 -47927.9 -49272.4 -50622.6 -51978.8 -53340.9 -54709 -56083.3 -57463.8 -58850.6 -60243.8 -61643.4 -63049.6 -64462.3 -65881.8 -67307.9 -68740.8 -70180.5 -71627.1 -73080.6 -74541 -76008.3 -77482.6 -78963.8 -80452 -81947.2 -83449.2 -84958.2 -86474 -87996.7 -89526.1 -91062.2 -92604.9 -94154.1 -95709.8 -97271.7 -98839.9 -100414 -101994 -103580 -105172 -106769 -108371 -109979 -111591 -113209 -114831 -116457 -118088 -119724 -121363 -123007 -124654 -126306 -127962 -129622 -131286 -132955 -134628 -136307 -137990 -139680 -141376 -143079 -144789 -146507 -148235 -149973 -151721 -153482 -155255 -157043 -158846 -160666 -162504 -164361 -166239 -168139 -170061 -172007 -173979 -175976 -177998 -180047 -182119 -184213 -186321 -188431 -190516 -192515 -194322 0 -1205.88 -2413.11 -3621.82 -4832.13 -6044.16 -7258.03 -8473.85 -9691.76 -10911.9 -12134.3 -13359.2 -14586.6 -15816.8 -17049.7 -18285.6 -19524.5 -20766.6 -22012 -23260.9 -24513.2 -25769.2 -27029 -28292.7 -29560.5 -30832.3 -32108.4 -33388.9 -34673.9 -35963.5 -37257.8 -38556.9 -39861 -41170.1 -42484.5 -43804.1 -45129 -46459.5 -47795.6 -49137.3 -50484.9 -51838.3 -53197.7 -54563.3 -55934.9 -57312.9 -58697.1 -60087.8 -61485 -62888.8 -64299.1 -65716.2 -67140 -68570.7 -70008.1 -71452.5 -72903.8 -74362.1 -75827.3 -77299.6 -78778.8 -80265 -81758.3 -83258.5 -84765.6 -86279.7 -87800.6 -89328.4 -90862.9 -92404.1 -93951.8 -95506.1 -97066.7 -98633.6 -100207 -101786 -103371 -104961 -106558 -108159 -109766 -111379 -112996 -114618 -116244 -117875 -119511 -121151 -122795 -124443 -126096 -127753 -129414 -131080 -132750 -134425 -136106 -137791 -139483 -141182 -142887 -144601 -146322 -148053 -149795 -151547 -153311 -155089 -156881 -158688 -160513 -162355 -164217 -166099 -168004 -169931 -171882 -173858 -175859 -177886 -179938 -182013 -184108 -186217 -188325 -190404 -192396 -194200 0 -1201.58 -2404.58 -3609.1 -4815.27 -6023.2 -7233.02 -8444.85 -9658.81 -10875 -12093.6 -13314.6 -14538.3 -15764.7 -16994 -18226.2 -19461.6 -20700.1 -21942 -23187.3 -24436.2 -25688.9 -26945.3 -28205.7 -29470.1 -30738.7 -32011.6 -33288.9 -34570.8 -35857.3 -37148.5 -38444.6 -39745.7 -41051.9 -42363.2 -43679.9 -45002.1 -46329.7 -47663 -49002 -50346.8 -51697.5 -53054.3 -54417.2 -55786.3 -57161.7 -58543.4 -59931.6 -61326.3 -62727.6 -64135.6 -65550.4 -66971.9 -68400.2 -69835.4 -71277.6 -72726.8 -74182.9 -75646 -77116.2 -78593.5 -80077.8 -81569.1 -83067.4 -84572.8 -86085.1 -87604.3 -89130.4 -90663.4 -92203 -93749.3 -95302.2 -96861.5 -98427.2 -99999.1 -101577 -103161 -104751 -106346 -107948 -109554 -111166 -112782 -114404 -116031 -1176