<?xml version="1.0"?> 
<VTKFile type="StructuredGrid" version="0.1"> 
<StructuredGrid WholeExtent="0 127 0 127 0 0"> 
<Piece Extent="0 127 0 127 0 0"> 
<PointData>
<DataArray type="Float32" Name="u" format="ascii" NumberOfComponents="1"> 
-200000 -200000 -200000 -200000 -200000 -200000 -200000 -200000 -200000 -200000 -200000 -200000 -200000 -200000 -200000 -200000 -200000 -200000 -200000 -200000 -200000 -200000 -200000 -200000 -200000 -200000 -200000 -200000 -200000 -200000 -200000 -200000 -200000 -200000 -200000 -200000 -200000 -200000 -200000 -200000 -200000 -200000 -200000 -200000 -200000 -200000 -200000 -200000 -200000 -200000 -200000 -200000 -200000 -200000 -200000 -200000 -200000 -200000 -200000 -200000 -200000 -200000 -200000 -200000 -200000 -200000 -200000 -200000 -200000 -200000 -200000 -200000 -200000 -200000 -200000 -200000 -200000 -200000 -200000 -200000 -200000 -200000 -200000 -200000 -200000 -200000 -200000 -200000 -200000 -200000 -200000 -200000 -200000 -200000 -200000 -200000 -200000 -200000 -200000 -200000 -200000 -200000 -200000 -200000 -200000 -200000 -200000 -200000 -200000 -200000 -200000 -200000 -200000 -200000 -200000 -200000 -200000 -200000 -200000 -200000 -200000 -200000 -200000 -200000 -200000 -200000 -200000 -200000 -200000 -200000 -200000 -200000 -200000 -200000 -200000 -200000 -200000 -200000 -200000 -200000 -200000 -200000 -200000 -200000 -200000 -200000 -200000 -200000 -200000 -200000 -200000 -200000 -200000 -200000 -200000 -200000 -200000 -200000 -200000 -200000 -200000 -200000 -200000 -200000 -200000 -200000 -200000 -200000 -200000 -200000 -200000 -200000 -200000 -200000 -200000 -200000 -200000 -200000 -200000 -200000 -200000 -200000 -200000 -200000 -200000 -200000 -200000 -200000 -200000 -200000 -200000 -200000 -200000 -200000 -200000 -200000 -200000 -200000 -200000 -200000 -200000 -200000 -200000 -200000 -200000 -200000 -200000 -200000 -200000 -200000 -200000 -200000 -200000 -200000 -200000 -200000 -200000 -200000 -200000 -200000 -200000 -200000 -200000 -200000 -200000 -200000 -200000 -200000 -200000 -200000 -200000 -200000 -200000 -200000 -200000 -200000 -200000 -200000 -200000 -200000 -200000 -200000 -200000 -200000 -200000 -200000 -200000 -200000 -200000 -200000 -200000 -200000 -200000 -200000 -200000 -200000 -200000 -200000 -200000 -200000 -200000 -200000 -200000 -200000 -200000 -200000 -200000 -200000 -200000 -200000 -200000 -200000 -200000 -200000 -200000 -200000 -200000 -200000 -200000 -200000 -200000 -200000 -200000 -200000 -200000 -200000 -200000 -200000 -200000 -200000 -200000 -200000 -200000 -200000 -200000 -200000 -200000 -200000 -200000 -200000 -200000 -200000 -200000 -200000 -200000 -200000 -200000 -200000 -200000 -200000 -200000 -200000 -200000 -200000 -200000 -200000 -200000 -200000 -200000 -200000 -200000 -200000 -200000 -200000 -200000 -200000 -200000 -200000 -200000 -200000 -200000 -200000 -200000 -200000 -200000 -200000 -200000 -200000 -200000 -200000 -200000 -200000 -200000 -200000 -200000 -200000 -200000 -200000 -200000 -200000 -200000 -200000 -200000 -200000 -200000 -200000 -200000 -200000 -200000 -200000 -200000 -200000 -200000 -200000 -200000 -200000 -200000 -200000 -200000 -200000 -200000 -200000 -200000 -200000 -200000 -200000 -200000 -200000 -200000 -200000 -200000 -200000 -200000 -200000 -200000 -200000 -200000 -200000 -200000 -200000 -200000 -200000 -200000 -200000 -200000 -200000 -200000 -200000 -200000 -200000 -200000 -200000 -200000 -200000 -200000 -200000 -200000 -200000 -200000 -200000 -200000 -200000 -200000 -200000 -200000 -200000 -200000 -200000 -200000 -200000 -200000 -200000 -200000 -200000 -200000 -200000 -200000 -200000 -200000 -200000 -200000 -200000 -200000 -200000 -200000 -200000 -200000 -200000 -200000 -200000 -200000 -200000 -200000 -200000 -200000 -200000 -200000 -200000 -200000 -200000 -200000 -200000 -200000 -200000 -200000 -200000 -200000 -200000 -200000 -200000 -200000 -200000 -200000 -200000 -200000 -200000 -200000 -200000 -200000 -200000 -200000 -200000 -200000 -200000 -200000 -200000 -200000 -200000 -200000 -200000 -200000 -200000 -200000 -200000 -200000 -200000 -200000 -200000 -200000 -200000 -200000 -200000 -200000 -200000 -200000 -200000 -200000 -200000 -200000 -200000 -200000 -200000 -200000 -200000 -200000 -200000 -200000 -200000 -200000 -200000 -200000 -200000 -200000 -200000 -200000 -200000 -200000 -200000 -200000 -200000 -200000 -200000 -200000 -200000 -200000 -200000 -200000 -200000 -200000 -200000 -200000 -200000 -200000 -200000 -200000 -200000 -200000 -200000 -200000 -200000 -200000 -200000 -200000 -200000 -200000 -200000 -200000 -200000 -200000 -200000 -200000 -200000 -200000 -200000 -200000 -200000 -200000 -200000 -200000 -200000 -200000 -200000 -200000 -200000 -200000 -200000 -200000 -200000 -200000 -200000 -200000 -200000 -200000 -200000 -200000 -200000 -200000 -200000 -200000 -200000 -200000 -200000 -200000 -200000 -200000 -200000 -200000 -200000 -200000 -200000 -200000 -200000 -200000 -200000 -200000 -200000 -200000 -200000 -200000 -200000 -200000 -200000 -200000 -200000 -200000 -200000 -200000 -200000 -200000 -200000 -200000 -200000 -200000 -200000 -200000 -200000 -200000 -200000 -200000 -200000 -200000 -200000 -200000 -200000 -200000 -200000 -200000 -200000 -200000 -200000 -200000 -200000 -200000 -200000 -200000 -200000 -200000 -200000 -200000 -200000 -200000 -200000 -200000 -200000 -200000 -200000 -200000 -200000 -200000 -200000 -200000 -200000 -200000 -200000 -200000 -200000 -200000 -200000 -200000 -200000 -200000 -200000 -200000 -200000 -200000 -200000 -200000 -200000 -200000 -200000 -200000 -200000 -200000 -200000 -200000 -200000 -200000 -200000 -200000 -200000 -200000 -200000 -200000 -200000 -200000 -200000 -200000 -200000 -200000 -200000 -200000 -200000 -200000 -200000 -200000 -200000 -200000 -200000 -200000 -200000 -200000 -200000 -200000 -200000 -200000 -200000 -200000 -200000 -200000 -200000 -200000 -200000 -200000 -200000 -200000 -200000 -200000 -200000 -200000 -200000 -200000 -200000 -200000 -200000 -200000 -200000 -200000 -200000 -200000 -200000 -200000 -200000 -200000 -200000 -200000 -200000 -200000 -200000 -200000 -200000 -200000 -200000 -200000 -200000 -200000 -200000 -200000 -200000 -200000 -200000 -200000 -200000 -200000 -200000 -200000 -200000 -200000 -200000 -200000 -200000 -200000 -200000 -200000 -200000 -200000 -200000 -200000 -200000 -200000 -200000 -200000 -200000 -200000 -200000 -200000 -200000 -200000 -200000 -200000 -200000 -200000 -200000 -200000 -200000 -200000 -200000 -200000 -200000 -200000 -200000 -200000 -200000 -200000 -200000 -200000 -200000 -200000 -200000 -200000 -200000 -200000 -200000 -200000 -200000 -200000 -200000 -200000 -200000 -200000 -200000 -200000 -200000 -200000 -200000 -200000 -200000 -200000 -200000 -200000 -200000 -200000 -200000 -200000 -200000 -200000 -200000 -200000 -200000 -200000 -200000 -200000 -200000 -200000 -200000 -200000 -200000 -200000 -200000 -200000 -200000 -200000 -200000 -200000 -200000 -200000 -200000 -200000 -200000 -200000 -200000 -200000 -200000 -200000 -200000 -200000 -200000 -200000 -200000 -200000 -200000 -200000 -200000 -200000 -200000 -200000 -200000 -200000 -200000 -200000 -200000 -200000 -200000 -200000 -200000 -200000 -200000 -200000 -200000 -200000 -200000 -200000 -200000 -200000 -200000 -200000 -200000 -200000 -200000 -200000 -200000 -200000 -200000 -200000 -200000 -200000 -200000 -200000 -200000 -200000 -200000 -200000 -200000 -200000 -200000 -200000 -200000 -200000 -200000 -200000 -200000 -200000 -200000 -200000 -200000 -200000 -200000 -200000 -200000 -200000 -200000 -200000 -200000 -200000 -200000 -200000 -200000 -200000 -200000 -200000 -200000 -200000 -200000 -200000 -200000 -200000 -200000 -200000 -200000 -200000 -200000 -200000 -200000 -200000 -200000 -200000 -200000 -200000 -200000 -200000 -200000 -200000 -200000 -200000 -200000 -200000 -200000 -200000 -200000 -200000 -200000 -200000 -200000 -200000 -200000 -200000 -200000 -200000 -200000 -200000 -200000 -200000 -200000 -200000 -200000 -200000 -200000 -200000 -200000 -200000 -200000 -200000 -200000 -200000 -200000 -200000 -200000 -200000 -200000 -200000 -200000 -200000 -200000 -200000 -200000 -200000 -200000 -200000 -200000 -200000 -200000 -200000 -200000 -200000 -200000 -200000 -200000 -200000 -200000 -200000 -200000 -200000 -200000 -200000 -200000 -200000 -200000 -200000 -200000 -200000 -200000 -200000 -200000 -200000 -200000 -200000 -200000 -200000 -200000 -200000 -200000 -200000 -200000 -200000 -200000 -200000 -200000 -200000 -200000 -200000 -200000 -200000 -200000 -200000 -200000 -200000 -200000 -200000 -200000 -200000 -200000 -200000 -200000 -200000 -200000 -200000 -200000 -200000 -200000 -200000 -200000 -200000 -200000 -200000 -200000 -200000 -200000 -200000 -200000 -200000 -200000 -200000 -200000 -200000 -200000 -200000 -200000 -200000 -200000 -200000 -200000 -200000 -200000 -200000 -200000 -200000 -200000 -200000 -200000 -200000 -200000 -200000 -200000 -200000 -200000 -200000 -200000 -200000 -200000 -200000 -200000 -200000 -200000 -200000 -200000 -200000 -200000 -200000 -200000 -200000 -200000 -200000 -200000 -200000 -200000 -200000 -200000 -200000 -200000 -200000 -200000 -200000 -200000 -200000 -200000 -200000 -200000 -200000 -200000 -200000 -200000 -200000 -200000 -200000 -200000 -200000 -200000 -200000 -200000 -200000 -200000 -200000 -200000 -200000 -200000 -200000 -200000 -200000 -200000 -200000 -200000 -200000 -200000 -200000 -200000 -200000 -200000 -200000 -200000 -200000 -200000 -200000 -200000 -200000 -200000 -200000 -200000 -200000 -200000 -200000 -200000 -200000 -200000 -200000 -200000 -200000 -200000 -200000 -200000 -200000 -200000 -200000 -200000 -200000 -200000 -200000 -200000 -200000 -200000 -200000 -200000 -200000 -200000 -200000 -200000 -200000 -200000 -200000 -200000 -200000 -200000 -200000 -200000 -200000 -200000 -200000 -200000 -200000 -200000 -200000 -200000 -200000 -200000 -200000 -200000 -200000 -200000 -200000 -200000 -200000 -200000 -200000 -200000 -200000 -200000 -200000 -200000 -200000 -200000 -200000 -200000 -200000 -200000 -200000 -200000 -200000 -200000 -200000 -200000 -200000 -200000 -200000 -200000 -200000 -200000 -200000 -200000 -200000 -200000 -200000 -200000 -200000 -200000 -200000 -200000 -200000 -200000 -200000 -200000 -200000 -200000 -200000 -200000 -200000 -200000 -200000 -200000 -200000 -200000 -200000 -200000 -200000 -200000 -200000 -200000 -200000 -200000 -200000 -200000 -200000 -200000 -200000 -200000 -200000 -200000 -200000 -200000 -200000 -200000 -200000 -200000 -200000 -200000 -200000 -200000 -200000 -200000 -200000 -200000 -200000 -200000 -200000 -200000 -200000 -200000 -200000 -200000 -200000 -200000 -200000 -200000 -200000 -200000 -200000 -200000 -200000 -200000 -200000 -200000 -200000 -200000 -200000 -200000 -200000 -200000 -200000 -200000 -200000 -200000 -200000 -200000 -200000 -200000 -200000 -200000 -200000 -200000 -200000 -200000 -200000 -200000 -200000 -200000 -200000 -200000 -200000 -200000 -200000 -200000 -200000 -200000 -200000 -200000 -200000 -200000 -200000 -200000 -200000 -200000 -200000 -200000 -200000 -200000 -200000 -200000 -200000 -200000 -200000 -200000 -200000 -200000 -200000 -200000 -200000 -200000 -200000 -200000 -200000 -200000 -200000 -200000 -200000 -200000 -200000 -200000 -200000 -200000 -200000 -200000 -200000 -200000 -200000 -200000 -200000 -200000 -200000 -200000 -200000 -200000 -200000 -200000 -200000 -200000 -200000 -200000 -200000 -200000 -200000 -200000 -200000 -200000 -200000 -200000 -200000 -200000 -200000 -200000 -200000 -200000 -200000 -200000 -200000 -200000 -200000 -200000 -200000 -200000 -200000 -200000 -200000 -200000 -200000 -200000 -200000 -200000 -200000 -200000 -200000 -200000 -200000 -200000 -200000 -200000 -200000 -200000 -200000 -200000 -200000 -200000 -200000 -200000 -200000 -200000 -200000 -200000 -200000 -200000 -200000 -200000 -200000 -200000 -200000 -200000 -200000 -200000 -200000 -200000 -200000 -200000 -200000 -200000 -200000 -200000 -200000 -200000 -200000 -200000 -200000 -200000 -200000 -200000 -200000 -200000 -200000 -200000 -200000 -200000 -200000 -200000 -200000 -200000 -200000 -200000 -200000 -200000 -200000 -200000 -200000 -200000 -200000 -200000 -200000 -200000 -200000 -200000 -200000 -200000 -200000 -200000 -200000 -200000 -200000 -200000 -200000 -200000 -200000 -200000 -200000 -200000 -200000 -200000 -200000 -200000 -200000 -200000 -200000 -200000 -200000 -200000 -200000 -200000 -200000 -200000 -200000 -200000 -200000 -200000 -200000 -200000 -200000 -200000 -200000 -200000 -200000 -200000 -200000 -200000 -200000 -200000 -200000 -200000 -200000 -200000 -200000 -200000 -200000 -200000 -200000 -200000 -200000 -200000 -200000 -200000 -200000 -200000 -200000 -200000 -200000 -200000 -200000 -200000 -200000 -200000 -200000 -200000 -200000 -200000 -200000 -200000 -200000 -200000 -200000 -200000 -200000 -200000 -200000 -200000 -200000 -200000 -200000 -200000 -200000 -200000 -200000 -200000 -200000 -200000 -200000 -200000 -200000 -200000 -200000 -200000 -200000 -200000 -200000 -200000 -200000 -200000 -200000 -200000 -200000 -200000 -200000 -200000 -200000 -200000 -200000 -200000 -200000 -200000 -200000 -200000 -200000 -200000 -200000 -200000 -200000 -200000 -200000 -200000 -200000 -200000 -200000 -200000 -200000 -200000 -200000 -200000 -200000 -200000 -200000 -200000 -200000 -200000 -200000 -200000 -200000 -200000 -200000 -200000 -200000 -200000 -200000 -200000 -200000 -200000 -200000 -200000 -200000 -200000 -200000 -200000 -200000 -200000 -200000 -200000 -200000 -200000 -200000 -200000 -200000 -200000 -200000 -200000 -200000 -200000 -200000 -200000 -200000 -200000 -200000 -200000 -200000 -200000 -200000 -200000 -200000 -200000 -200000 -200000 -200000 -200000 -200000 -200000 -200000 -200000 -200000 -200000 -200000 -200000 -200000 -200000 -200000 -200000 -200000 -200000 -200000 -200000 -200000 -200000 -200000 -200000 -200000 -200000 -200000 -200000 -200000 -200000 -200000 -200000 -200000 -200000 -200000 -200000 -200000 -200000 -200000 -200000 -200000 -200000 -200000 -200000 -200000 -200000 -200000 -200000 -200000 -200000 -200000 -200000 -200000 -200000 -200000 -200000 -200000 -200000 -200000 -200000 -200000 -200000 -200000 -200000 -200000 -200000 -200000 -200000 -200000 -200000 -200000 -200000 -200000 -200000 -200000 -200000 -200000 -200000 -200000 -200000 -200000 -200000 -200000 -200000 -200000 -200000 -200000 -200000 -200000 -200000 -200000 -200000 -200000 -200000 -200000 -200000 -200000 -200000 -200000 -200000 -200000 -200000 -200000 -200000 -200000 -200000 -200000 -200000 -200000 -200000 -200000 -200000 -200000 -200000 -200000 -200000 -200000 -200000 -200000 -200000 -200000 -200000 -200000 -200000 -200000 -200000 -200000 -200000 -200000 -200000 -200000 -200000 -200000 -200000 -200000 -200000 -200000 -200000 -200000 -200000 -200000 -200000 -200000 -200000 -200000 -200000 -200000 -200000 -200000 -200000 -200000 -200000 -200000 -200000 -200000 -200000 -200000 -200000 -200000 -200000 -200000 -200000 -200000 -200000 -200000 -200000 -200000 -200000 -200000 -200000 -200000 -200000 -200000 -200000 -200000 -200000 -200000 -200000 -200000 -200000 -200000 -200000 -200000 -200000 -200000 -200000 -200000 -200000 -200000 -200000 -200000 -200000 -200000 -200000 -200000 -200000 -200000 -200000 -200000 -200000 -200000 -200000 -200000 -200000 -200000 -200000 -200000 -200000 -200000 -200000 -200000 -200000 -200000 -200000 -200000 -200000 -200000 -200000 -200000 -200000 -200000 -200000 -200000 -200000 -200000 -200000 -200000 -200000 -200000 -200000 -200000 -200000 -200000 -200000 -200000 -200000 -200000 -200000 -200000 -200000 -200000 -200000 -200000 -200000 -200000 -200000 -200000 -200000 -200000 -200000 -200000 -200000 -200000 -200000 -200000 -200000 -200000 -200000 -200000 -200000 -200000 -200000 -200000 -200000 -200000 -200000 -200000 -200000 -200000 -200000 -200000 -200000 -200000 -200000 -200000 -200000 -200000 -200000 -200000 -200000 -200000 -200000 -200000 -200000 -200000 -200000 -200000 -200000 -200000 -200000 -200000 -200000 -200000 -200000 -200000 -200000 -200000 -200000 -200000 -200000 -200000 -200000 -200000 -200000 -200000 -200000 -200000 -200000 -200000 -200000 -200000 -200000 -200000 -200000 -200000 -200000 -200000 -200000 -200000 -200000 -200000 -200000 -200000 -200000 -200000 -200000 -200000 -200000 -200000 -200000 -200000 -200000 -200000 -200000 -200000 -200000 -200000 -200000 -200000 -200000 -200000 -200000 -200000 -200000 -200000 -200000 -200000 -200000 -200000 -200000 -200000 -200000 -200000 -200000 -200000 -200000 -200000 -200000 -200000 -200000 -200000 -200000 -200000 -200000 -200000 -200000 -200000 -200000 -200000 -200000 -200000 -200000 -200000 -200000 -200000 -200000 -200000 -200000 -200000 -200000 -200000 -200000 -200000 -200000 -200000 -200000 -200000 -200000 -200000 -200000 -200000 -200000 -200000 -200000 -200000 -200000 -200000 -200000 -200000 -200000 -200000 -200000 -200000 -200000 -200000 -200000 -200000 -200000 -200000 -200000 -200000 -200000 -200000 -200000 -200000 -200000 -200000 -200000 -200000 -200000 -200000 -200000 -200000 -200000 -200000 -200000 -200000 -200000 -200000 -200000 -200000 -200000 -200000 -200000 -200000 -200000 -200000 -200000 -200000 -200000 -200000 -200000 -200000 -200000 -200000 -200000 -200000 -200000 -200000 -200000 -200000 -200000 -200000 -200000 -200000 -200000 -200000 -200000 -200000 -200000 -200000 -200000 -200000 -200000 -200000 -200000 -200000 -200000 -200000 -200000 -200000 -200000 -200000 -200000 -200000 -200000 -200000 -200000 -200000 -200000 -200000 -200000 -200000 -200000 -200000 -200000 -200000 -200000 -200000 -200000 -200000 -200000 -200000 -200000 -200000 -200000 -200000 -200000 -200000 -200000 -200000 -200000 -200000 -200000 -200000 -200000 -200000 -200000 -200000 -200000 -200000 -200000 -200000 -200000 -200000 -200000 -200000 -200000 -200000 -200000 -200000 -200000 -200000 -200000 -200000 -200000 -200000 -200000 -200000 -200000 -200000 -200000 -200000 -200000 -200000 -200000 -200000 -200000 -200000 -200000 -200000 -200000 -200000 -200000 -200000 -200000 -200000 -200000 -200000 -200000 -200000 -200000 -200000 -200000 -200000 -200000 -200000 -200000 -200000 -200000 -200000 -200000 -200000 -200000 -200000 -200000 -200000 -200000 -200000 -200000 -200000 -200000 -200000 -200000 -200000 -200000 -200000 -200000 -200000 -200000 -200000 -200000 -200000 -200000 -200000 -200000 -200000 -200000 -200000 -200000 -200000 -200000 -200000 -200000 -200000 -200000 -200000 -200000 -200000 -200000 -200000 -200000 -200000 -200000 -200000 -200000 -200000 -200000 -200000 -200000 -200000 -200000 -200000 -200000 -200000 -200000 -200000 -200000 -200000 -200000 -200000 -200000 -200000 -200000 -200000 -200000 -200000 -200000 -200000 -200000 -200000 -200000 -200000 -200000 -200000 -200000 -200000 -200000 -200000 -200000 -200000 -200000 -200000 -200000 -200000 -200000 -200000 -200000 -200000 -200000 -200000 -200000 -200000 -200000 -200000 -200000 -200000 -200000 -200000 -200000 -200000 -200000 -200000 -200000 -200000 -200000 -200000 -200000 -200000 -200000 -200000 -200000 -200000 -200000 -200000 -200000 -200000 -200000 -200000 -200000 -200000 -200000 -200000 -200000 -200000 -200000 -200000 -200000 -200000 -200000 -200000 -200000 -200000 -200000 -200000 -200000 -200000 -200000 -200000 -200000 -200000 -200000 -200000 -200000 -200000 -200000 -200000 -200000 -200000 -200000 -200000 -200000 -200000 -200000 -200000 -200000 -200000 -200000 -200000 -200000 -200000 -200000 -200000 -200000 -200000 -200000 -200000 -200000 -200000 -200000 -200000 -200000 -200000 -200000 -200000 -200000 -200000 -200000 -200000 -200000 -200000 -200000 -200000 -200000 -200000 -200000 -200000 -200000 -200000 -200000 -200000 -200000 -200000 -200000 -200000 -200000 -200000 -200000 -200000 -200000 -200000 -200000 -200000 -200000 -200000 -200000 -200000 -200000 -200000 -200000 -200000 -200000 -200000 -200000 -200000 -200000 -200000 -200000 -200000 -200000 -200000 -200000 -200000 -200000 -200000 -200000 -200000 -200000 -200000 -200000 -200000 -200000 -200000 -200000 -200000 -200000 -200000 -200000 -200000 -200000 -200000 -200000 -200000 -200000 -200000 -200000 -200000 -200000 -200000 -200000 -200000 -200000 -200000 -200000 -200000 -200000 -200000 -200000 -200000 -200000 -200000 -200000 -200000 -200000 -200000 -200000 -200000 -200000 -200000 -200000 -200000 -200000 -200000 -200000 -200000 -200000 -200000 -200000 -200000 -200000 -200000 -200000 -200000 -200000 -200000 -200000 -200000 -200000 -200000 -200000 -200000 -200000 -200000 -200000 -200000 -200000 -200000 -200000 -200000 -200000 -200000 -200000 -200000 -200000 -200000 -200000 -200000 -200000 -200000 -200000 -200000 -200000 -200000 -200000 -200000 -200000 -200000 -200000 -200000 -200000 -200000 -200000 -200000 -200000 -200000 -200000 -200000 -200000 -200000 -200000 -200000 -200000 -200000 -200000 -200000 -200000 -200000 -200000 -200000 -200000 -200000 -200000 -200000 -200000 -200000 -200000 -200000 -200000 -200000 -200000 -200000 -200000 -200000 -200000 -200000 -200000 -200000 -200000 -200000 -200000 -200000 -200000 -200000 -200000 -200000 -200000 -200000 -200000 -200000 -200000 -200000 -200000 -200000 -200000 -200000 -200000 -200000 -200000 -200000 -200000 -200000 -200000 -200000 -200000 -200000 -200000 -200000 -200000 -200000 -200000 -200000 -200000 -200000 -200000 -200000 -200000 -200000 -200000 -200000 -200000 -200000 -200000 -200000 -200000 -200000 -200000 -200000 -200000 -200000 -200000 -200000 -200000 -200000 -200000 -200000 -200000 -200000 -200000 -200000 -200000 -200000 -200000 -200000 -200000 -200000 -200000 -200000 -200000 -200000 -200000 -200000 -200000 -200000 -200000 -200000 -200000 -200000 -200000 -200000 -200000 -200000 -200000 -200000 -200000 -200000 -200000 -200000 -200000 -200000 -200000 -200000 -200000 -200000 -200000 -200000 -200000 -200000 -200000 -200000 -200000 -200000 -200000 -200000 -200000 -200000 -200000 -200000 -200000 -200000 -200000 -200000 -200000 -200000 -200000 -200000 -200000 -200000 -200000 -200000 -200000 -200000 -200000 -200000 -200000 -200000 -200000 -200000 -200000 -200000 -200000 -200000 -200000 -200000 -200000 -200000 -200000 -200000 -200000 -200000 -200000 -200000 -200000 -200000 -200000 -200000 -200000 -200000 -200000 -200000 -200000 -200000 -200000 -200000 -200000 -200000 -200000 -200000 -200000 -200000 -200000 -200000 -200000 -200000 -200000 -200000 -200000 -200000 -200000 -200000 -200000 -200000 -200000 -200000 -200000 -200000 -200000 -200000 -200000 -200000 -200000 -200000 -200000 -200000 -200000 -200000 -200000 -200000 -200000 -200000 -200000 -200000 -200000 -200000 -200000 -200000 -200000 -200000 -200000 -200000 -200000 -200000 -200000 -200000 -200000 -200000 -200000 -200000 -200000 -200000 -200000 -200000 -200000 -200000 -200000 -200000 -200000 -200000 -200000 -200000 -200000 -200000 -200000 -200000 -200000 -200000 -200000 -200000 -200000 -200000 -200000 -200000 -200000 -200000 -200000 -200000 -200000 -200000 -200000 -200000 -200000 -200000 -200000 -200000 -200000 -200000 -200000 -200000 -200000 -200000 -200000 -200000 -200000 -200000 -200000 -200000 -200000 -200000 -200000 -200000 -200000 -200000 -200000 -200000 -200000 -200000 -200000 -200000 -200000 -200000 -200000 -200000 -200000 -200000 -200000 -200000 -200000 -200000 -200000 -200000 -200000 -200000 -200000 -200000 -200000 -200000 -200000 -200000 -200000 -200000 -200000 -200000 -200000 -200000 -200000 -200000 -200000 -200000 -200000 -200000 -200000 -200000 -200000 -200000 -200000 -200000 -200000 -200000 -200000 -200000 -200000 -200000 -200000 -200000 -200000 -200000 -200000 -200000 -200000 -200000 -200000 -200000 -200000 -200000 -200000 -200000 -200000 -200000 -200000 -200000 -200000 -200000 -200000 -200000 -200000 -200000 -200000 -200000 -200000 -200000 -200000 -200000 -200000 -200000 -200000 -200000 -200000 -200000 -200000 -200000 -200000 -200000 -200000 -200000 -200000 -200000 -200000 -200000 -200000 -200000 -200000 -200000 -200000 -200000 -200000 -200000 -200000 -200000 -200000 -200000 -200000 -200000 -200000 -200000 -200000 -200000 -200000 -200000 -200000 -200000 -200000 -200000 -200000 -200000 -200000 -200000 -200000 -200000 -200000 -200000 -200000 -200000 -200000 -200000 -200000 -200000 -200000 -200000 -200000 -200000 -200000 -200000 -200000 -200000 -200000 -200000 -200000 -200000 -200000 -200000 -200000 -200000 -200000 -200000 -200000 -200000 -200000 -200000 -200000 -200000 -200000 -200000 -200000 -200000 -200000 -200000 -200000 -200000 -200000 -200000 -200000 -200000 -200000 -200000 -200000 -200000 -200000 -200000 -200000 -200000 -200000 -200000 -200000 -200000 -200000 -200000 -200000 -200000 -200000 -200000 -200000 -200000 -200000 -200000 -200000 -200000 -200000 -200000 -200000 -200000 -200000 -200000 -200000 -200000 -200000 -200000 -200000 -200000 -200000 -200000 -200000 -200000 -200000 -200000 -200000 -200000 -200000 -200000 -200000 -200000 -200000 -200000 -200000 -200000 -200000 -200000 -200000 -200000 -200000 -200000 -200000 -200000 -200000 -200000 -200000 -200000 -200000 -200000 -200000 -200000 -200000 -200000 -200000 -200000 -200000 -200000 -200000 -200000 -200000 -200000 -200000 -200000 -200000 -200000 -200000 -200000 -200000 -200000 -200000 -200000 -200000 -200000 -200000 -200000 -200000 -200000 -200000 -200000 -200000 -200000 -200000 -200000 -200000 -200000 -200000 -200000 -200000 -200000 -200000 -200000 -200000 -200000 -200000 -200000 -200000 -200000 -200000 -200000 -200000 -200000 -200000 -200000 -200000 -200000 -200000 -200000 -200000 -200000 -200000 -200000 -200000 -200000 -200000 -200000 -200000 -200000 -200000 -200000 -200000 -200000 -200000 -200000 -200000 -200000 -200000 -200000 -200000 -200000 -200000 -200000 -200000 -200000 -200000 -200000 -200000 -200000 -200000 -200000 -200000 -200000 -200000 -200000 -200000 -200000 -200000 -200000 -200000 -200000 -200000 -200000 -200000 -200000 -200000 -200000 -200000 -200000 -200000 -200000 -200000 -200000 -200000 -200000 -200000 -200000 -200000 -200000 -200000 -200000 -200000 -200000 -200000 -200000 -200000 -200000 -200000 -200000 -200000 -200000 -200000 -200000 -200000 -200000 -200000 -200000 -200000 -200000 -200000 -200000 -200000 -200000 -200000 -200000 -200000 -200000 -200000 -200000 -200000 -200000 -200000 -200000 -200000 -200000 -200000 -200000 -200000 -200000 -200000 -200000 -200000 -200000 -200000 -200000 -200000 -200000 -200000 -200000 -200000 -200000 -200000 -200000 -200000 -200000 -200000 -200000 -200000 -200000 -200000 -200000 -200000 -200000 -200000 -200000 -200000 -200000 -200000 -200000 -200000 -200000 -200000 -200000 -200000 -200000 -200000 -200000 -200000 -200000 -200000 -200000 -200000 -200000 -200000 -200000 -200000 -200000 -200000 -200000 -200000 -200000 -200000 -200000 -200000 -200000 -200000 -200000 -200000 -200000 -200000 -200000 -200000 -200000 -200000 -200000 -200000 -200000 -200000 -200000 -200000 -200000 -200000 -200000 -200000 -200000 -200000 -200000 -200000 -200000 -200000 -200000 -200000 -200000 -200000 -200000 -200000 -200000 -200000 -200000 -200000 -200000 -200000 -200000 -200000 -200000 -200000 -200000 -200000 -200000 -200000 -200000 -200000 -200000 -200000 -200000 -200000 -200000 -200000 -200000 -200000 -200000 -200000 -200000 -200000 -200000 -200000 -200000 -200000 -200000 -200000 -200000 -200000 -200000 -200000 -200000 -200000 -200000 -200000 -200000 -200000 -200000 -200000 -200000 -200000 -200000 -200000 -200000 -200000 -200000 -200000 -200000 -200000 -200000 -200000 -200000 -200000 -200000 -200000 -200000 -200000 -200000 -200000 -200000 -200000 -200000 -200000 -200000 -200000 -200000 -200000 -200000 -200000 -200000 -200000 -200000 -200000 -200000 -200000 -200000 -200000 -200000 -200000 -200000 -200000 -200000 -200000 -200000 -200000 -200000 -200000 -200000 -200000 -200000 -200000 -200000 -200000 -200000 -200000 -200000 -200000 -200000 -200000 -200000 -200000 -200000 -200000 -200000 -200000 -200000 -200000 -200000 -200000 -200000 -200000 -200000 -200000 -200000 -200000 -200000 -200000 -200000 -200000 -200000 -200000 -200000 -200000 -200000 -200000 -200000 -200000 -200000 -200000 -200000 -200000 -200000 -200000 -200000 -200000 -200000 -200000 -200000 -200000 -200000 -200000 -200000 -200000 -200000 -200000 -200000 -200000 -200000 -200000 -200000 -200000 -200000 -200000 -200000 -200000 -200000 -200000 -200000 -200000 -200000 -200000 -200000 -200000 -200000 -200000 -200000 -200000 -200000 -200000 -200000 -200000 -200000 -200000 -200000 -200000 -200000 -200000 -200000 -200000 -200000 -200000 -200000 -200000 -200000 -200000 -200000 -200000 -200000 -200000 -200000 -200000 -200000 -200000 -200000 -200000 -200000 -200000 -200000 -200000 -200000 -200000 -200000 -200000 -200000 -200000 -200000 -200000 -200000 -200000 -200000 -200000 -200000 -200000 -200000 -200000 -200000 -200000 -200000 -200000 -200000 -200000 -200000 -200000 -200000 -200000 -200000 -200000 -200000 -200000 -200000 -200000 -200000 -200000 -200000 -200000 -200000 -200000 -200000 -200000 -200000 -200000 -200000 -200000 -200000 -200000 -200000 -200000 -200000 -200000 -200000 -200000 -200000 -200000 -200000 -200000 -200000 -200000 -200000 -200000 -200000 -200000 -200000 -200000 -200000 -200000 -200000 -200000 -200000 -200000 -200000 -200000 -200000 -200000 -200000 -200000 -200000 -200000 -200000 -200000 -200000 -200000 -200000 -200000 -200000 -200000 -200000 -200000 -200000 -200000 -200000 -200000 -200000 -200000 -200000 -200000 -200000 -200000 -200000 -200000 -200000 -200000 -200000 -200000 -200000 -200000 -200000 -200000 -200000 -200000 -200000 -200000 -200000 -200000 -200000 -200000 -200000 -200000 -200000 -200000 -200000 -200000 -200000 -200000 -200000 -200000 -200000 -200000 -200000 -200000 -200000 -200000 -200000 -200000 -200000 -200000 -200000 -200000 -200000 -200000 -200000 -200000 -200000 -200000 -200000 -200000 -200000 -200000 -200000 -200000 -200000 -200000 -200000 -200000 -200000 -200000 -200000 -200000 -200000 -200000 -200000 -200000 -200000 -200000 -