<?xml version="1.0"?> 
<VTKFile type="StructuredGrid" version="0.1"> 
<StructuredGrid WholeExtent="0 127 0 127 0 0"> 
<Piece Extent="0 127 0 127 0 0"> 
<PointData>
<DataArray type="Float32" Name="u" format="ascii" NumberOfComponents="1"> 
-200000 -198444 -196638 -194704 -192675 -190565 -188387 -186148 -183856 -181516 -179134 -176715 -174264 -171786 -169285 -166765 -164231 -161687 -159136 -156582 -154028 -151477 -148933 -146398 -143874 -141364 -138870 -136393 -133936 -131500 -129086 -126696 -124331 -121991 -119677 -117391 -115133 -112903 -110701 -108529 -106385 -104272 -102187 -100133 -98107.4 -96111.8 -94145.6 -92208.7 -90301 -88422.2 -86572.1 -84750.5 -82957 -81191.3 -79453.2 -77742.3 -76058.3 -74400.7 -72769.2 -71163.4 -69582.9 -68027.4 -66496.3 -64989.3 -63506 -62045.9 -60608.6 -59193.7 -57800.8 -56429.4 -55079 -53749.3 -52439.9 -51150.2 -49879.9 -48628.6 -47395.8 -46181 -44984 -43804.2 -42641.2 -41494.7 -40364.2 -39249.3 -38149.6 -37064.7 -35994.2 -34937.7 -33894.9 -32865.3 -31848.5 -30844.3 -29852.1 -28871.6 -27902.5 -26944.3 -25996.7 -25059.4 -24132 -23214.1 -22305.3 -21405.4 -20514 -19630.6 -18755.1 -17887 -17025.9 -16171.7 -15323.8 -14482 -13646 -12815.4 -11989.9 -11169.2 -10352.9 -9540.75 -8732.39 -7927.5 -7125.78 -6326.89 -5530.52 -4736.36 -3944.08 -3153.38 -2363.94 -1575.43 -787.56 0 -200000 -198430 -196620 -194683 -192651 -190539 -188359 -186117 -183823 -181481 -179097 -176676 -174223 -171743 -169241 -166720 -164185 -161639 -159087 -156533 -153978 -151427 -148882 -146347 -143823 -141313 -138818 -136342 -133885 -131449 -129036 -126646 -124281 -121942 -119629 -117343 -115086 -112856 -110655 -108484 -106341 -104228 -102144 -100091 -98066.2 -96071.4 -94106 -92170 -90263 -88385.1 -86535.8 -84714.9 -82922.2 -81157.4 -79420.1 -77710 -76026.7 -74369.9 -72739.2 -71134.2 -69554.4 -67999.6 -66469.3 -64963 -63480.3 -62020.9 -60584.3 -59170.1 -57777.8 -56407 -55057.3 -53728.2 -52419.4 -51130.3 -49860.6 -48609.8 -47377.5 -46163.3 -44966.8 -43787.5 -42625.1 -41479 -40349 -39234.6 -38135.4 -37050.9 -35980.9 -34924.9 -33882.5 -32853.3 -31837 -30833.1 -29841.3 -28861.2 -27892.5 -26934.7 -25987.5 -25050.6 -24123.5 -23205.9 -22297.5 -21398 -20506.8 -19623.8 -18748.6 -17880.8 -17020.1 -16166.1 -15318.5 -14477.1 -13641.4 -12811.1 -11985.9 -11165.4 -10349.4 -9537.53 -8729.44 -7924.83 -7123.38 -6324.76 -5528.66 -4734.77 -3942.76 -3152.33 -2363.15 -1574.91 -787.297 0 -200000 -198416 -196603 -194663 -192628 -190513 -188330 -186087 -183790 -181445 -179059 -176637 -174182 -171701 -169197 -166675 -164138 -161592 -159039 -156483 -153928 -151377 -148832 -146296 -143771 -141261 -138767 -136291 -133834 -131398 -128985 -126596 -124231 -121893 -119580 -117295 -115038 -112809 -110609 -108438 -106297 -104184 -102102 -100048 -98024.9 -96030.9 -94066.3 -92131.1 -90225 -88347.8 -86499.4 -84679.3 -82887.5 -81123.4 -79386.9 -77677.6 -75995.1 -74339.1 -72709.1 -71104.8 -69525.8 -67971.7 -66442.1 -64936.5 -63454.6 -61995.9 -60560 -59146.4 -57754.7 -56384.6 -55035.5 -53707 -52398.8 -51110.3 -49841.2 -48590.9 -47359.2 -46145.6 -44949.6 -43770.8 -42608.9 -41463.4 -40333.8 -39219.9 -38121.1 -37037.2 -35967.6 -34912 -33870 -32841.3 -31825.4 -30821.9 -29830.5 -28850.8 -27882.5 -26925.1 -25978.2 -25041.7 -24114.9 -23197.7 -22289.7 -21390.5 -20499.7 -19617 -18742.1 -17874.6 -17014.2 -16160.5 -15313.3 -14472.1 -13636.7 -12806.7 -11981.8 -11161.6 -10345.9 -9534.29 -8726.49 -7922.15 -7120.97 -6322.63 -5526.8 -4733.18 -3941.44 -3151.27 -2362.35 -1574.38 -787.032 0 -200000 -198403 -196586 -194642 -192605 -190487 -188302 -186056 -183757 -181410 -179022 -176598 -174142 -171658 -169153 -166629 -164092 -161544 -158991 -156434 -153878 -151326 -148781 -146244 -143720 -141210 -138715 -136239 -133783 -131347 -128935 -126546 -124182 -121843 -119532 -117247 -114991 -112763 -110563 -108393 -106252 -104140 -102059 -100006 -97983.5 -95990.3 -94026.5 -92092.1 -90186.9 -88310.5 -86462.9 -84643.7 -82852.6 -81089.4 -79353.7 -77645.1 -75963.4 -74308.1 -72678.9 -71075.4 -69497.2 -67943.8 -66414.9 -64910.1 -63428.8 -61970.8 -60535.5 -59122.6 -57731.6 -56362.1 -55013.6 -53685.8 -52378.1 -51090.2 -49821.7 -48572 -47340.9 -46127.8 -44932.3 -43754.1 -42592.7 -41447.6 -40318.6 -39205.1 -38106.8 -37023.3 -35954.2 -34899.1 -33857.6 -32829.2 -31813.7 -30810.7 -29819.7 -28840.4 -27872.4 -26915.4 -25969 -25032.7 -24106.4 -23189.5 -22281.8 -21382.9 -20492.5 -19610.1 -18735.5 -17868.4 -17008.3 -16154.9 -15308 -14467.1 -13632 -12802.3 -11977.7 -11157.8 -10342.4 -9531.05 -8723.52 -7919.47 -7118.56 -6320.49 -5524.93 -4731.58 -3940.1 -3150.2 -2361.55 -1573.85 -786.767 0 -200000 -198390 -196569 -194622 -192582 -190462 -188274 -186025 -183724 -181375 -178985 -176559 -174101 -171616 -169109 -166584 -164046 -161497 -158942 -156385 -153828 -151276 -148730 -146193 -143669 -141158 -138664 -136188 -133731 -131296 -128884 -126495 -124132 -121794 -119483 -117199 -114943 -112716 -110517 -108348 -106207 -104097 -102015 -99963.9 -97942 -95949.6 -93986.7 -92053.1 -90148.6 -88273.1 -86426.3 -84607.9 -82817.7 -81055.2 -79320.3 -77612.6 -75931.7 -74277.2 -72648.7 -71046 -69468.5 -67915.8 -66387.6 -64883.5 -63403 -61945.6 -60511 -59098.8 -57708.4 -56339.6 -54991.7 -53664.5 -52357.4 -51070.1 -49802.2 -48553.1 -47322.5 -46109.9 -44915 -43737.3 -42576.4 -41431.9 -40303.3 -39190.3 -38092.5 -37009.5 -35940.8 -34886.1 -33845 -32817.1 -31802.1 -30799.4 -29808.8 -28829.9 -27862.3 -26905.7 -25959.6 -25023.8 -24097.8 -23181.3 -22273.9 -21375.4 -20485.3 -19603.2 -18729 -17862.1 -17002.4 -16149.3 -15302.7 -14462.1 -13627.3 -12797.9 -11973.6 -11154 -10338.8 -9527.79 -8720.55 -7916.77 -7116.14 -6318.34 -5523.06 -4729.97 -3938.77 -3149.13 -2360.75 -1573.31 -786.5 0 -200000 -198378 -196552 -194602 -192559 -190436 -188245 -185995 -183691 -181340 -178948 -176520 -174060 -171574 -169065 -166539 -163999 -161449 -158894 -156336 -153778 -151225 -148679 -146142 -143617 -141107 -138612 -136136 -133680 -131245 -128833 -126445 -124082 -121745 -119434 -117151 -114896 -112669 -110471 -108302 -106163 -104053 -101972 -99921.5 -97900.4 -95908.8 -93946.7 -92014 -90110.4 -88235.7 -86389.7 -84572.1 -82782.6 -81021 -79286.9 -77580 -75899.8 -74246.1 -72618.4 -71016.4 -69439.7 -67887.8 -66360.3 -64856.9 -63377 -61920.4 -60486.5 -59074.9 -57685.2 -56316.9 -54969.7 -53643.1 -52336.7 -51050 -49782.6 -48534.1 -47304 -46092 -44897.6 -43720.5 -42560.1 -41416 -40288 -39175.5 -38078.2 -36995.6 -35927.4 -34873.1 -33832.5 -32805 -31790.4 -30788.1 -29797.9 -28819.4 -27852.2 -26896 -25950.3 -25014.8 -24089.2 -23173 -22266 -21367.8 -20478 -19596.3 -18722.4 -17855.9 -16996.4 -16143.7 -15297.4 -14457.1 -13622.6 -12793.5 -11969.4 -11150.1 -10335.3 -9524.53 -8717.56 -7914.06 -7113.71 -6316.18 -5521.17 -4728.36 -3937.43 -3148.06 -2359.95 -1572.78 -786.233 0 -200000 -198366 -196535 -194583 -192536 -190411 -188217 -185964 -183658 -181305 -178911 -176481 -174019 -171531 -169021 -166494 -163953 -161402 -158845 -156286 -153728 -151175 -148628 -146091 -143566 -141055 -138561 -136085 -133629 -131194 -128782 -126395 -124032 -121695 -119385 -117103 -114848 -112622 -110425 -108257 -106118 -104009 -101929 -99879 -97858.7 -95868 -93906.7 -91974.8 -90072 -88198.1 -86352.9 -84536.2 -82747.5 -80986.7 -79253.4 -77547.3 -75867.9 -74215 -72588.1 -70986.8 -69410.8 -67859.6 -66332.9 -64830.2 -63351 -61895.1 -60461.8 -59050.9 -57661.9 -56294.3 -54947.7 -53621.7 -52315.9 -51029.8 -49763 -48515 -47285.5 -46074.1 -44880.2 -43703.6 -42543.7 -41400.2 -40272.6 -39160.6 -38063.8 -36981.7 -35913.9 -34860.1 -33819.9 -32792.9 -31778.6 -30776.8 -29787 -28808.9 -27842.1 -26886.2 -25940.9 -25005.8 -24080.5 -23164.7 -22258.1 -21360.2 -20470.8 -19589.4 -18715.8 -17849.6 -16990.5 -16138.1 -15292 -14452.1 -13617.9 -12789 -11965.3 -11146.3 -10331.7 -9521.25 -8714.56 -7911.34 -7111.27 -6314.02 -5519.28 -4726.74 -3936.08 -3146.99 -2359.15 -1572.24 -785.965 0 -200000 -198354 -196519 -194563 -192513 -190385 -188189 -185934 -183625 -181270 -178874 -176442 -173979 -171489 -168977 -166448 -163906 -161354 -158797 -156237 -153678 -151124 -148577 -146039 -143514 -141003 -138509 -136033 -133577 -131143 -128731 -126344 -123982 -121646 -119336 -117054 -114800 -112575 -110378 -108211 -106073 -103964 -101886 -99836.5 -97817 -95827.1 -93866.6 -91935.5 -90033.5 -88160.5 -86316.1 -84500.2 -82712.4 -80952.4 -79219.9 -77514.5 -75835.9 -74183.8 -72557.6 -70957.1 -69381.9 -67831.4 -66305.4 -64803.4 -63325 -61869.7 -60437.2 -59026.9 -57638.5 -56271.6 -54925.6 -53600.2 -52295 -51009.5 -49743.3 -48495.9 -47267 -46056.1 -44862.8 -43686.6 -42527.3 -41384.3 -40257.2 -39145.7 -38049.3 -36967.7 -35900.4 -34847 -33807.3 -32780.7 -31766.8 -30765.4 -29776.1 -28798.4 -27831.9 -26876.4 -25931.5 -24996.8 -24071.8 -23156.4 -22250.1 -21352.6 -20463.5 -19582.5 -18709.2 -17843.3 -16984.5 -16132.4 -15286.7 -14447 -13613.1 -12784.6 -11961.1 -11142.4 -10328.1 -9517.96 -8711.56 -7908.62 -7108.82 -6311.85 -5517.39 -4725.12 -3934.73 -3145.91 -2358.34 -1571.7 -785.696 0 -200000 -198343 -196503 -194544 -192491 -190360 -188161 -185903 -183593 -181235 -178837 -176403 -173938 -171447 -168934 -166403 -163859 -161307 -158748 -156187 -153628 -151073 -148525 -145988 -143462 -140951 -138457 -135981 -133526 -131091 -128680 -126293 -123932 -121596 -119287 -117006 -114752 -112528 -110332 -108165 -106028 -103920 -101842 -99793.9 -97775.2 -95786.1 -93826.4 -91896.1 -89995 -88122.8 -86279.2 -84464.1 -82677.1 -80917.9 -79186.2 -77481.7 -75803.9 -74152.5 -72527.1 -70927.4 -69352.9 -67803.2 -66277.9 -64776.6 -63298.9 -61844.3 -60412.4 -59002.8 -57615.1 -56248.8 -54903.5 -53578.7 -52274.1 -50989.2 -49723.5 -48476.8 -47248.4 -46038 -44845.3 -43669.7 -42510.8 -41368.3 -40241.8 -39130.7 -38034.8 -36953.7 -35886.8 -34833.9 -33794.6 -32768.4 -31755 -30754 -29765.1 -28787.8 -27821.7 -26866.6 -25922.1 -24987.7 -24063.1 -23148.1 -22242.1 -21344.9 -20456.2 -19575.5 -18702.5 -17837 -16978.5 -16126.7 -15281.3 -14442 -13608.3 -12780.1 -11957 -11138.5 -10324.6 -9514.66 -8708.54 -7905.88 -7106.37 -6309.67 -5515.49 -4723.5 -3933.38 -3144.83 -2357.53 -1571.16 -785.426 0 -200000 -198332 -196488 -194524 -192469 -190335 -188134 -185873 -183560 -181200 -178800 -176364 -173897 -171404 -168890 -166358 -163813 -161259 -158699 -156138 -153578 -151022 -148474 -145936 -143410 -140899 -138405 -135929 -133474 -131040 -128629 -126243 -123881 -121546 -119238 -116957 -114704 -112480 -110285 -108119 -105983 -103876 -101799 -99751.1 -97733.2 -95745 -93786.2 -91856.7 -89956.4 -88085 -86242.3 -84428 -82641.8 -80883.4 -79152.5 -77448.8 -75771.8 -74121.1 -72496.5 -70897.6 -69323.8 -67774.9 -66250.3 -64749.7 -63272.7 -61818.8 -60387.6 -58978.7 -57591.6 -56226 -54881.3 -53557.1 -52253.1 -50968.8 -49703.8 -48457.5 -47229.7 -46019.9 -44827.7 -43652.6 -42494.3 -41352.3 -40226.3 -39115.7 -38020.3 -36939.6 -35873.2 -34820.8 -33781.9 -32756.1 -31743.2 -30742.6 -29754.1 -28777.1 -27811.5 -26856.8 -25912.6 -24978.6 -24054.4 -23139.7 -22234.1 -21337.3 -20448.9 -19568.5 -18695.9 -17830.7 -16972.5 -16121 -15275.9 -14436.9 -13603.6 -12775.6 -11952.8 -11134.7 -10321 -9511.35 -8705.51 -7903.14 -7103.9 -6307.49 -5513.58 -4721.86 -3932.02 -3143.74 -2356.71 -1570.62 -785.155 0 -200000 -198321 -196472 -194505 -192446 -190310 -188106 -185843 -183527 -181166 -178763 -176325 -173856 -171362 -168846 -166312 -163766 -161211 -158651 -156088 -153528 -150971 -148423 -145884 -143358 -140847 -138353 -135877 -133422 -130989 -128578 -126192 -123831 -121496 -119189 -116908 -114656 -112433 -110239 -108073 -105938 -103832 -101755 -99708.3 -97691.3 -95703.8 -93745.8 -91817.2 -89917.7 -88047.1 -86205.2 -84391.8 -82606.4 -80848.8 -79118.7 -77415.8 -75739.6 -74089.7 -72465.9 -70867.7 -69294.7 -67746.5 -66222.6 -64722.8 -63246.5 -61793.3 -60362.7 -58954.5 -57568.1 -56203.1 -54859 -53535.5 -52232.1 -50948.4 -49683.9 -48438.3 -47211 -46001.8 -44810.1 -43635.6 -42477.8 -41336.3 -40210.7 -39100.7 -38005.7 -36925.5 -35859.6 -34807.6 -33769.1 -32743.8 -31731.3 -30731.1 -29743 -28766.5 -27801.3 -26846.9 -25903.1 -24969.5 -24045.7 -23131.3 -22226.1 -21329.6 -20441.5 -19561.5 -18689.2 -17824.3 -16966.4 -16115.3 -15270.5 -14431.8 -13598.8 -12771.1 -11948.6 -11130.8 -10317.3 -9508.02 -8702.48 -7900.39 -7101.43 -6305.3 -5511.67 -4720.22 -3930.66 -3142.65 -2355.9 -1570.08 -784.883 0 -200000 -198311 -196457 -194486 -192424 -190285 -188078 -185813 -183495 -181131 -178726 -176286 -173816 -171319 -168802 -166267 -163720 -161163 -158602 -156039 -153477 -150921 -148371 -145833 -143307 -140795 -138301 -135825 -133370 -130937 -128527 -126141 -123781 -121446 -119139 -116860 -114608 -112386 -110192 -108027 -105892 -103787 -101711 -99665.4 -97649.2 -95662.5 -93705.4 -91777.6 -89878.9 -88009.2 -86168.1 -84355.5 -82570.9 -80814.2 -79084.9 -77382.7 -75707.3 -74058.2 -72435.2 -70837.7 -69265.5 -67718 -66194.9 -64695.8 -63220.1 -61767.6 -60337.8 -58930.2 -57544.5 -56180.1 -54836.7 -53513.8 -52211 -50927.9 -49664 -48419 -47192.3 -45983.6 -44792.4 -43618.4 -42461.2 -41320.2 -40195.1 -39085.6 -37991.1 -36911.4 -35845.9 -34794.4 -33756.4 -32731.5 -31719.4 -30719.6 -29731.9 -28755.8 -27791 -26837 -25893.6 -24960.3 -24036.9 -23122.9 -22218 -21321.9 -20434.1 -19554.4 -18682.5 -17817.9 -16960.4 -16109.5 -15265.1 -14426.7 -13594 -12766.6 -11944.4 -11126.8 -10313.7 -9504.69 -8699.43 -7897.62 -7098.95 -6303.1 -5509.74 -4718.58 -3929.29 -3141.56 -2355.08 -1569.53 -784.611 0 -200000 -198301 -196442 -194468 -192402 -190260 -188050 -185782 -183462 -181096 -178689 -176247 -173775 -171277 -168758 -166222 -163673 -161115 -158553 -155989 -153427 -150870 -148320 -145781 -143255 -140743 -138249 -135773 -133318 -130885 -128476 -126090 -123730 -121396 -119090 -116811 -114560 -112338 -110145 -107981 -105847 -103742 -101668 -99622.5 -97607 -95621.2 -93664.9 -91737.9 -89840 -87971.1 -86130.9 -84319.1 -82535.3 -80779.4 -79050.9 -77349.6 -75674.9 -74026.7 -72404.4 -70807.7 -69236.2 -67689.5 -66167.1 -64668.7 -63193.8 -61742 -60312.8 -58905.9 -57520.8 -56157.1 -54814.3 -53492.1 -52189.9 -50907.4 -49644.1 -48399.6 -47173.5 -45965.3 -44774.7 -43601.3 -42444.5 -41304.1 -40179.5 -39070.4 -37976.5 -36897.2 -35832.2 -34781.1 -33743.5 -32719.1 -31707.4 -30708.1 -29720.8 -28745.1 -27780.6 -26827.1 -25884 -24951.1 -24028.1 -23114.4 -22209.9 -21314.1 -20426.7 -19547.4 -18675.8 -17811.5 -16954.3 -16103.8 -15259.6 -14421.5 -13589.1 -12762.1 -11940.1 -11122.9 -10310.1 -9501.35 -8696.38 -7894.85 -7096.46 -6300.89 -5507.82 -4716.93 -3927.92 -3140.46 -2354.26 -1568.99 -784.337 0 -200000 -198291 -196427 -194449 -192380 -190235 -188023 -185752 -183430 -181061 -178652 -176208 -173734 -171234 -168714 -166176 -163626 -161068 -158504 -155939 -153376 -150818 -148268 -145729 -143202 -140691 -138197 -135721 -133266 -130834 -128424 -126039 -123680 -121346 -119040 -116762 -114512 -112290 -110098 -107935 -105802 -103698 -101624 -99579.4 -97564.8 -95579.8 -93624.3 -91698.1 -89801.1 -87933 -86093.6 -84282.6 -82499.7 -80744.6 -79016.9 -77316.4 -75642.5 -73995 -72373.5 -70777.6 -69206.9 -67660.9 -66139.2 -64641.5 -63167.3 -61716.2 -60287.8 -58881.5 -57497.1 -56134 -54791.9 -53470.2 -52168.7 -50886.8 -49624.1 -48380.2 -47154.6 -45947 -44757 -43584.1 -42427.8 -41287.9 -40163.8 -39055.3 -37961.8 -36882.9 -35818.4 -34767.8 -33730.7 -32706.7 -31695.4 -30696.5 -29709.6 -28734.3 -27770.3 -26817.1 -25874.4 -24941.9 -24019.2 -23106 -22201.8 -21306.3 -20419.3 -19540.3 -18669 -17805.1 -16948.2 -16098 -15254.2 -14416.4 -13584.3 -12757.6 -11935.9 -11119 -10306.4 -9497.99 -8693.31 -7892.07 -7093.97 -6298.68 -5505.88 -4715.28 -3926.54 -3139.36 -2353.43 -1568.44 -784.063 0 -200000 -198282 -196412 -194431 -192359 -190210 -187996 -185722 -183397 -181027 -178616 -176170 -173693 -171192 -168670 -166131 -163579 -161020 -158455 -155889 -153326 -150767 -148217 -145677 -143150 -140639 -138144 -135669 -133214 -130782 -128373 -125988 -123629 -121296 -118991 -116713 -114463 -112243 -110051 -107889 -105756 -103653 -101580 -99536.3 -97522.4 -95538.3 -93583.6 -91658.3 -89762.1 -87894.8 -86056.3 -84246.1 -82464 -80709.7 -78982.8 -77283.1 -75610 -73963.3 -72342.6 -70747.4 -69177.4 -67632.2 -66111.3 -64614.3 -63140.8 -61690.4 -60262.6 -58857.1 -57473.3 -56110.9 -54769.4 -53448.4 -52147.4 -50866.1 -49604 -48360.7 -47135.7 -45928.7 -44739.2 -43566.8 -42411.1 -41271.7 -40148.1 -39040 -37947 -36868.7 -35804.6 -34754.5 -33717.8 -32694.2 -31683.4 -30684.9 -29698.4 -28723.5 -27759.9 -26807.1 -25864.8 -24932.7 -24010.4 -23097.5 -22193.6 -21298.6 -20411.9 -19533.2 -18662.2 -17798.7 -16942.1 -16092.2 -15248.7 -14411.2 -13579.4 -12753 -11931.7 -11115 -10302.8 -9494.62 -8690.23 -7889.28 -7091.46 -6296.45 -5503.94 -4713.62 -3925.16 -3138.26 -2352.61 -1567.89 -783.787 0 -200000 -198272 -196398 -194412 -192337 -190186 -187968 -185692 -183365 -180992 -178579 -176131 -173653 -171149 -168626 -166085 -163533 -160972 -158406 -155840 -153275 -150716 -148165 -145625 -143098 -140586 -138092 -135617 -133162 -130730 -128321 -125937 -123578 -121246 -118941 -116664 -114415 -112195 -110004 -107842 -105711 -103608 -101536 -99493 -97480 -95496.7 -93542.8 -91618.3 -89723 -87856.6 -86018.8 -84209.5 -82428.2 -80674.7 -78948.7 -77249.7 -75577.5 -73931.6 -72311.6 -70717.2 -69148 -67603.5 -66083.3 -64587 -63114.3 -61664.5 -60237.5 -58832.6 -57449.5 -56087.7 -54746.8 -53426.5 -52126.1 -50845.4 -49583.9 -48341.2 -47116.8 -45910.3 -44721.3 -43549.5 -42394.3 -41255.4 -40132.3 -39024.8 -37932.2 -36854.4 -35790.8 -34741.1 -33704.9 -32681.7 -31671.3 -30673.3 -29687.2 -28712.7 -27749.5 -26797.1 -25855.2 -24923.4 -24001.5 -23088.9 -22185.5 -21290.7 -20404.4 -19526.1 -18655.5 -17792.2 -16936 -16086.4 -15243.2 -14406 -13574.6 -12748.5 -11927.4 -11111.1 -10299.1 -9491.25 -8687.14 -7886.48 -7088.95 -6294.23 -5502 -4711.95 -3923.77 -3137.15 -2351.78 -1567.33 -783.511 0 -200000 -198263 -196383 -194394 -192315 -190161 -187941 -185662 -183332 -180957 -178542 -176092 -173612 -171107 -168581 -166040 -163486 -160924 -158357 -155790 -153225 -150665 -148114 -145573 -143046 -140534 -138039 -135564 -133110 -130678 -128269 -125885 -123527 -121196 -118891 -116615 -114366 -112147 -109957 -107796 -105665 -103563 -101492 -99449.7 -97437.5 -95455 -93502 -91578.3 -89683.8 -87818.2 -85981.3 -84172.8 -82392.3 -80639.7 -78914.4 -77216.3 -75544.8 -73899.7 -72280.5 -70686.9 -69118.4 -67574.7 -66055.2 -64559.7 -63087.6 -61638.6 -60212.2 -58808 -57425.6 -56064.5 -54724.2 -53404.5 -52104.8 -50824.7 -49563.8 -48321.6 -47097.8 -45891.9 -44703.5 -43532.1 -42377.5 -41239.1 -40116.5 -39009.5 -37917.4 -36840 -35776.9 -34727.7 -33691.9 -32669.2 -31659.2 -30661.6 -29676 -28701.9 -27739 -26787 -25845.5 -24914.1 -23992.6 -23080.4 -22177.3 -21282.9 -20396.9 -19518.9 -18648.6 -17785.7 -16929.8 -16080.6 -15237.7 -14400.8 -13569.7 -12743.9 -11923.1 -11107.1 -10295.4 -9487.86 -8684.05 -7883.68 -7086.43 -6291.99 -5500.04 -4710.28 -3922.38 -3136.04 -2350.94 -1566.78 -783.234 0 -200000 -198254 -196369 -194376 -192294 -190137 -187914 -185633 -183300 -180922 -178505 -176053 -173571 -171064 -168537 -165994 -163439 -160876 -158308 -155740 -153174 -150614 -148062 -145521 -142993 -140481 -137987 -135512 -133058 -130626 -128218 -125834 -123476 -121145 -118841 -116565 -114318 -112099 -109910 -107750 -105619 -103518 -101447 -99406.3 -97394.9 -95413.2 -93461 -91538.2 -89644.5 -87779.8 -85943.7 -84136 -82356.4 -80604.6 -78880.1 -77182.8 -75512.1 -73867.8 -72249.4 -70656.5 -69088.8 -67545.8 -66027.1 -64532.3 -63060.9 -61612.6 -60186.9 -58783.4 -57401.6 -56041.2 -54701.6 -53382.5 -52083.4 -50803.9 -49543.5 -48302 -47078.7 -45873.4 -44685.5 -43514.7 -42360.6 -41222.7 -40100.7 -38994.1 -37902.6 -36825.7 -35763 -34714.2 -33678.9 -32656.6 -31647.1 -30649.9 -29664.7 -28691 -27728.5 -26776.9 -25835.8 -24904.8 -23983.6 -23071.8 -22169.1 -21275 -20389.4 -19511.7 -18641.8 -17779.2 -16923.6 -16074.7 -15232.2 -14395.6 -13564.8 -12739.3 -11918.8 -11103.1 -10291.7 -9484.46 -8680.94 -7880.86 -7083.9 -6289.75 -5498.09 -4708.6 -3920.99 -3134.93 -2350.11 -1566.22 -782.955 0 -200000 -198246 -196355 -194358 -192273 -190112 -187886 -185603 -183268 -180888 -178468 -176014 -173530 -171022 -168493 -165948 -163392 -160827 -158259 -155690 -153123 -150562 -148010 -145469 -142941 -140429 -137934 -135459 -133005 -130574 -128166 -125783 -123425 -121095 -118791 -116516 -114269 -112051 -109862 -107703 -105573 -103473 -101403 -99362.8 -97352.3 -95371.4 -93420 -91498 -89605.2 -87741.3 -85906 -84099.2 -82320.4 -80569.4 -78845.7 -77149.2 -75479.3 -73835.8 -72218.2 -70626.1 -69059.1 -67516.9 -65998.9 -64504.8 -63034.2 -61586.6 -60161.6 -58758.7 -57377.6 -56017.8 -54678.9 -53360.4 -52061.9 -50783 -49523.3 -48282.3 -47059.6 -45854.8 -44667.5 -43497.3 -42343.7 -41206.3 -40084.8 -38978.7 -37887.7 -36811.2 -35749 -34700.7 -33665.8 -32644 -31634.9 -30638.2 -29653.3 -28680.1 -27718 -26766.8 -25826.1 -24895.5 -23974.6 -23063.2 -22160.8 -21267.1 -20381.8 -19504.6 -18635 -17772.7 -16917.4 -16068.9 -15226.6 -14390.4 -13559.9 -12734.7 -11914.5 -11099.1 -10288 -9481.05 -8677.82 -7878.03 -7081.36 -6287.5 -5496.12 -4706.92 -3919.59 -3133.81 -2349.27 -1565.66 -782.676 0 -200000 -198237 -196342 -194340 -192252 -190088 -187859 -185573 -183236 -180853 -178431 -175975 -173490 -170979 -168449 -165903 -163345 -160779 -158210 -155640 -153072 -150511 -147958 -145416 -142888 -140376 -137882 -135407 -132953 -130521 -128114 -125731 -123374 -121044 -118741 -116466 -114220 -112003 -109815 -107656 -105527 -103428 -101359 -99319.3 -97309.5 -95329.5 -93378.9 -91457.8 -89565.8 -87702.7 -85868.3 -84062.2 -82284.3 -80534.1 -78811.3 -77115.5 -75446.5 -73803.7 -72186.9 -70595.6 -69029.4 -67487.9 -65970.6 -64477.3 -63007.4 -61560.5 -60136.1 -58734 -57353.5 -55994.4 -54656.1 -53338.2 -52040.4 -50762.1 -49503 -48262.6 -47040.5 -45836.2 -44649.5 -43479.8 -42326.7 -41189.9 -40068.9 -38963.3 -37872.7 -36796.8 -35735 -34687.2 -33652.8 -32631.4 -31622.7 -30626.4 -29642 -28669.1 -27707.5 -26756.7 -25816.3 -24886.1 -23965.6 -23054.6 -22152.5 -21259.2 -20374.3 -19497.3 -18628.1 -17766.1 -16911.2 -16063 -15221.1 -14385.1 -13554.9 -12730 -11910.2 -11095.1 -10284.3 -9477.63 -8674.7 -7875.2 -7078.82 -6285.24 -5494.15 -4705.23 -3918.18 -3132.69 -2348.43 -1565.1 -782.396 0 -200000 -198229 -196328 -194323 -192231 -190064 -187832 -185543 -183203 -180819 -178395 -175936 -173449 -170937 -168405 -165857 -163298 -160731 -158160 -155589 -153021 -150459 -147906 -145364 -142836 -140323 -137829 -135354 -132900 -130469 -128062 -125679 -123323 -120993 -118691 -116417 -114171 -111955 -109767 -107609 -105481 -103383 -101314 -99275.6 -97266.7 -95287.4 -93337.7 -91417.4 -89526.3 -87664 -85830.4 -84025.2 -82248.1 -80498.7 -78776.7 -77081.8 -75413.5 -73771.6 -72155.5 -70565 -68999.5 -67458.8 -65942.3 -64449.7 -62980.5 -61534.3 -60110.6 -58709.2 -57329.4 -55970.9 -54633.3 -53316 -52018.8 -50741.1 -49482.6 -48242.8 -47021.3 -45817.6 -44631.4 -43462.2 -42309.7 -41173.4 -40052.9 -38947.8 -37857.7 -36782.3 -35721 -34673.6 -33639.6 -32618.7 -31610.5 -30614.6 -29630.6 -28658.2 -27696.9 -26746.5 -25806.5 -24876.7 -23956.6 -23045.9 -22144.2 -21251.3 -20366.7 -19490.1 -18621.2 -17759.6 -16905 -16057.1 -15215.5 -14379.9 -13550 -12725.4 -11905.9 -11091 -10280.6 -9474.2 -8671.56 -7872.35 -7076.26 -6282.97 -5492.17 -4703.54 -3916.78 -3131.56 -2347.59 -1564.54 -782.115 0 -200000 -198221 -196315 -194305 -192210 -190040 -187805 -185514 -183171 -180784 -178358 -175897 -173408 -170894 -168361 -165811 -163251 -160683 -158111 -155539 -152970 -150408 -147854 -145311 -142783 -140270 -137776 -135301 -132847 -130416 -128010 -125628 -123272 -120942 -118641 -116367 -114122 -111906 -109720 -107563 -105435 -103337 -101270 -99231.9 -97223.8 -95245.3 -93296.5 -91377 -89486.7 -87625.3 -85792.5 -83988.2 -82211.9 -80463.3 -78742.1 -77048 -75380.5 -73739.4 -72124.1 -70534.3 -68969.6 -67429.6 -65913.9 -64422 -62953.5 -61508 -60085.1 -58684.3 -57305.2 -55947.4 -54610.4 -53293.8 -51997.2 -50720.1 -49462.2 -48223 -47002 -45798.9 -44613.3 -43444.6 -42292.6 -41156.9 -40036.9 -38932.3 -37842.7 -36767.7 -35706.9 -34660 -33626.5 -32606 -31598.2 -30602.7 -29619.2 -28647.1 -27686.3 -26736.3 -25796.7 -24867.3 -23947.6 -23037.2 -22135.9 -21243.3 -20359.1 -19482.8 -18614.3 -17753 -16898.7 -16051.1 -15209.9 -14374.6 -13545 -12720.7 -11901.5 -11087 -10276.8 -9470.75 -8668.41 -7869.5 -7073.7 -6280.7 -5490.19 -4701.84 -3915.36 -3130.43 -2346.74 -1563.98 -781.834 0 -200000 -198212 -196301 -194288 -192189 -190016 -187778 -185484 -183139 -180750 -178321 -175859 -173367 -170852 -168316 -165766 -163204 -160635 -158062 -155489 -152919 -150356 -147802 -145259 -142730 -140217 -137723 -135248 -132795 -130364 -127957 -125576 -123220 -120892 -118590 -116318 -114073 -111858 -109672 -107516 -105389 -103292 -101225 -99188 -97180.8 -95203.2 -93255.1 -91336.5 -89447 -87586.4 -85754.5 -83951 -82175.5 -80427.8 -78707.4 -77014.1 -75347.5 -73707.1 -72092.6 -70503.6 -68939.7 -67400.4 -65885.4 -64394.3 -62926.5 -61481.7 -60059.5 -58659.4 -57280.9 -55923.8 -54587.4 -53271.5 -51975.5 -50699 -49441.7 -48203.1 -46982.7 -45780.2 -44595.1 -43427 -42275.5 -41140.3 -40020.8 -38916.7 -37827.6 -36753.1 -35692.8 -34646.3 -33613.3 -32593.3 -31585.9 -30590.9 -29607.7 -28636.1 -27675.7 -26726.1 -25786.9 -24857.8 -23938.5 -23028.5 -22127.6 -21235.3 -20351.5 -19475.6 -18607.3 -17746.4 -16892.5 -16045.2 -15204.3 -14369.3 -13540 -12716.1 -11897.2 -11082.9 -10273.1 -9467.3 -8665.26 -7866.64 -7071.13 -6278.42 -5488.19 -4700.14 -3913.94 -3129.3 -2345.89 -1563.41 -781.551 0 -200000 -198205 -196288 -194271 -192168 -189992 -187752 -185454 -183107 -180715 -178284 -175820 -173326 -170809 -168272 -165720 -163157 -160586 -158012 -155439 -152868 -150304 -147749 -145206 -142677 -140164 -137670 -135195 -132742 -130311 -127905 -125524 -123169 -120841 -118540 -116268 -114024 -111809 -109624 -107468 -105343 -103247 -101180 -99144.1 -97137.7 -95160.9 -93213.7 -91295.9 -89407.2 -87547.5 -85716.5 -83913.8 -82139.1 -80392.2 -78672.7 -76980.2 -75314.3 -73674.7 -72061 -70472.8 -68909.7 -67371.2 -65856.9 -64366.5 -62899.4 -61455.4 -60033.8 -58634.4 -57256.6 -55900.1 -54564.4 -53249.1 -51953.7 -50677.9 -49421.2 -48183.1 -46963.3 -45761.4 -44576.8 -43409.3 -42258.4 -41123.6 -40004.7 -38901.1 -37812.5 -36738.5 -35678.7 -34632.7 -33600.1 -32580.5 -31573.6 -30579 -29596.2 -28625 -27665 -26715.8 -25777 -24848.3 -23929.4 -23019.8 -22119.2 -21227.3 -20343.8 -19468.2 -18600.4 -17739.8 -16886.2 -16039.2 -15198.6 -14364 -13535 -12711.4 -11892.8 -11078.9 -10269.3 -9463.83 -8662.09 -7863.77 -7068.55 -6276.13 -5486.2 -4698.43 -3912.52 -3128.16 -2345.04 -1562.84 -781.267 0 -200000 -198197 -196275 -194253 -192147 -189968 -187725 -185425 -183075 -180681 -178248 -175781 -173286 -170766 -168228 -165674 -163109 -160538 -157963 -155388 -152817 -150252 -147697 -145154 -142624 -140111 -137617 -135142 -132689 -130259 -127853 -125472 -123117 -120790 -118490 -116218 -113975 -111761 -109576 -107421 -105296 -103201 -101136 -99100.1 -97094.5 -95118.6 -93172.2 -91255.2 -89367.4 -87508.5 -85678.3 -83876.4 -82102.6 -80356.6 -78637.8 -76946.2 -75281.1 -73642.3 -72029.4 -70442 -68879.6 -67341.8 -65828.3 -64338.6 -62872.3 -61428.9 -60008.1 -58609.3 -57232.3 -55876.4 -54541.4 -53226.7 -51932 -50656.7 -49400.6 -48163.1 -46943.9 -45742.5 -44558.6 -43391.6 -42241.2 -41107 -39988.5 -38885.5 -37797.4 -36723.8 -35664.5 -34618.9 -33586.8 -32567.7 -31561.2 -30567 -29584.7 -28613.9 -27654.3 -26705.5 -25767.1 -24838.8 -23920.2 -23011 -22110.8 -21219.3 -20336.1 -19460.9 -18593.4 -17733.1 -16879.9 -16033.3 -15193 -14358.7 -13530 -12706.7 -11888.4 -11074.8 -10265.5 -9460.36 -8658.91 -7860.89 -7065.97 -6273.84 -5484.19 -4696.72 -3911.1 -3127.02 -2344.18 -1562.27 -780.983 0 -200000 -198189 -196262 -194236 -192127 -189944 -187698 -185395 -183043 -180646 -178211 -175742 -173245 -170724 -168183 -165628 -163062 -160489 -157913 -155338 -152766 -150201 -147645 -145101 -142571 -140058 -137563 -135089 -132636 -130206 -127800 -125420 -123066 -120738 -118439 -116168 -113925 -111712 -109528 -107374 -105250 -103155 -101091 -99056 -97051.2 -95076.1 -93130.6 -91214.5 -89327.5 -87469.5 -85640.1 -83839.1 -82066.1 -80320.8 -78602.9 -76912.1 -75247.8 -73609.8 -71997.7 -70411 -68849.4 -67312.4 -65799.7 -64310.7 -62845.1 -61402.4 -59982.3 -58584.2 -57207.8 -55852.6 -54518.2 -53204.2 -51910.1 -50635.5 -49380 -48143.1 -46924.5 -45723.7 -44540.2 -43373.8 -42224 -41090.3 -39972.3 -38869.8 -37782.2 -36709.1 -35650.2 -34605.2 -33573.5 -32554.8 -31548.8 -30555 -29573.1 -28602.8 -27643.6 -26695.2 -25757.2 -24829.3 -23911.1 -23002.2 -22102.4 -21211.2 -20328.4 -19453.6 -18586.4 -17726.5 -16873.5 -16027.3 -15187.3 -14353.3 -13525 -12702 -11884 -11070.7 -10261.8 -9456.87 -8655.73 -7858 -7063.37 -6271.54 -5482.18 -4695 -3909.66 -3125.88 -2343.33 -1561.7 -780.697 0 -200000 -198182 -196249 -194219 -192106 -189921 -187671 -185366 -183011 -180612 -178174 -175703 -173204 -170681 -168139 -165582 -163015 -160441 -157864 -155287 -152715 -150149 -147592 -145048 -142518 -140005 -137510 -135036 -132583 -130153 -127748 -125368 -123014 -120687 -118388 -116118 -113876 -111663 -109480 -107327 -105203 -103109 -101046 -99011.9 -97007.9 -95033.6 -93088.9 -91173.6 -89287.5 -87430.3 -85601.8 -83801.6 -82029.4 -80285 -78567.9 -76877.9 -75214.4 -73577.3 -71965.9 -70380 -68819.2 -67283 -65770.9 -64282.7 -62817.8 -61375.9 -59956.4 -58559.1 -57183.3 -55828.8 -54495.1 -53181.7 -51888.2 -50614.2 -49359.3 -48123 -46905 -45704.7 -44521.9 -43356 -42206.7 -41073.5 -39956.1 -38854 -37766.9 -36694.4 -35636 -34591.4 -33560.1 -32541.9 -31536.3 -30543 -29561.6 -28591.6 -27632.8 -26684.8 -25747.2 -24819.7 -23901.9 -22993.4 -22094 -21203.2 -20320.7 -19446.2 -18579.3 -17719.8 -16867.2 -16021.3 -15181.6 -14347.9 -13519.9 -12697.2 -11879.6 -11066.6 -10258 -9453.37 -8652.53 -7855.1 -7060.77 -6269.23 -5480.17 -4693.27 -3908.23 -3124.73 -2342.47 -1561.13 -780.411 0 -200000 -198174 -196237 -194203 -192086 -189897 -187645 -185337 -182979 -180577 -178137 -175664 -173163 -170638 -168095 -165536 -162967 -160392 -157814 -155237 -152663 -150097 -147540 -144995 -142465 -139952 -137457 -134982 -132530 -130100 -127695 -125315 -122962 -120636 -118337 -116068 -113826 -111615 -109432 -107279 -105157 -103064 -101001 -98967.6 -96964.5 -94991 -93047.2 -91132.7 -89247.4 -87391.1 -85563.4 -83764 -81992.7 -80249.1 -78532.9 -76843.6 -7