<?xml version="1.0"?> 
<VTKFile type="StructuredGrid" version="0.1"> 
<StructuredGrid WholeExtent="0 127 0 127 0 0"> 
<Piece Extent="0 127 0 127 0 0"> 
<PointData>
<DataArray type="Float32" Name="u" format="ascii" NumberOfComponents="1"> 
-187435 -187524 -187613 -187702 -187791 -187880 -187970 -188059 -188149 -188238 -188328 -188418 -188508 -188599 -188689 -188780 -188870 -188961 -189052 -189143 -189235 -189326 -189418 -189509 -189601 -189693 -189785 -189877 -189970 -190062 -190155 -190248 -190341 -190434 -190527 -190621 -190714 -190808 -190902 -190996 -191090 -191185 -191279 -191374 -191469 -191564 -191659 -191754 -191850 -191945 -192041 -192137 -192233 -192330 -192426 -192523 -192620 -192717 -192814 -192911 -193009 -193107 -193204 -193302 -193401 -193499 -193598 -193696 -193795 -193895 -193994 -194093 -194193 -194293 -194393 -194493 -194594 -194694 -194795 -194896 -194998 -195099 -195201 -195302 -195404 -195507 -195609 -195712 -195815 -195918 -196021 -196124 -196228 -196332 -196436 -196540 -196645 -196750 -196855 -196960 -197065 -197171 -197277 -197383 -197489 -197596 -197702 -197809 -197917 -198024 -198132 -198240 -198348 -198456 -198565 -198674 -198783 -198892 -199002 -199112 -199222 -199332 -199443 -199554 -199665 -199776 -199888 -200000 -187338 -187426 -187515 -187604 -187693 -187782 -187872 -187961 -188051 -188141 -188231 -188321 -188411 -188501 -188592 -188682 -188773 -188864 -188955 -189047 -189138 -189230 -189321 -189413 -189505 -189597 -189690 -189782 -189875 -189968 -190061 -190154 -190247 -190341 -190434 -190528 -190622 -190716 -190810 -190905 -190999 -191094 -191189 -191284 -191380 -191475 -191571 -191666 -191762 -191859 -191955 -192051 -192148 -192245 -192342 -192439 -192537 -192634 -192732 -192830 -192928 -193027 -193125 -193224 -193323 -193422 -193521 -193621 -193721 -193821 -193921 -194021 -194122 -194222 -194323 -194424 -194526 -194627 -194729 -194831 -194933 -195035 -195138 -195241 -195344 -195447 -195551 -195654 -195758 -195862 -195967 -196071 -196176 -196281 -196386 -196492 -196598 -196704 -196810 -196916 -197023 -197130 -197237 -197345 -197452 -197560 -197668 -197777 -197885 -197994 -198103 -198213 -198323 -198432 -198543 -198653 -198764 -198875 -198986 -199098 -199210 -199322 -199434 -199547 -199660 -199773 -199886 -200000 -187238 -187326 -187415 -187504 -187593 -187682 -187772 -187861 -187951 -188041 -188131 -188221 -188311 -188402 -188493 -188583 -188674 -188765 -188857 -188948 -189040 -189132 -189223 -189316 -189408 -189500 -189593 -189686 -189778 -189872 -189965 -190058 -190152 -190246 -190340 -190434 -190528 -190622 -190717 -190812 -190907 -191002 -191098 -191193 -191289 -191385 -191481 -191577 -191674 -191770 -191867 -191964 -192062 -192159 -192257 -192355 -192453 -192551 -192649 -192748 -192847 -192946 -193045 -193144 -193244 -193344 -193444 -193544 -193645 -193746 -193846 -193948 -194049 -194151 -194252 -194354 -194457 -194559 -194662 -194765 -194868 -194971 -195075 -195178 -195283 -195387 -195491 -195596 -195701 -195806 -195912 -196018 -196124 -196230 -196336 -196443 -196550 -196657 -196765 -196872 -196980 -197089 -197197 -197306 -197415 -197524 -197634 -197744 -197854 -197964 -198075 -198186 -198297 -198408 -198520 -198632 -198745 -198857 -198970 -199083 -199197 -199311 -199425 -199539 -199654 -199769 -199884 -200000 -187135 -187224 -187313 -187402 -187491 -187580 -187670 -187759 -187849 -187939 -188029 -188120 -188210 -188301 -188391 -188482 -188573 -188665 -188756 -188848 -188940 -189032 -189124 -189216 -189309 -189401 -189494 -189587 -189680 -189774 -189867 -189961 -190055 -190149 -190243 -190338 -190433 -190527 -190622 -190718 -190813 -190909 -191005 -191101 -191197 -191293 -191390 -191487 -191584 -191681 -191778 -191876 -191974 -192072 -192170 -192269 -192367 -192466 -192565 -192664 -192764 -192864 -192964 -193064 -193164 -193265 -193366 -193467 -193568 -193669 -193771 -193873 -193975 -194078 -194181 -194283 -194387 -194490 -194594 -194697 -194802 -194906 -195010 -195115 -195220 -195326 -195431 -195537 -195643 -195750 -195856 -195963 -196070 -196178 -196285 -196393 -196502 -196610 -196719 -196828 -196937 -197047 -197157 -197267 -197377 -197488 -197599 -197710 -197822 -197934 -198046 -198158 -198271 -198384 -198497 -198611 -198725 -198839 -198954 -199069 -199184 -199300 -199416 -199532 -199648 -199765 -199882 -200000 -187031 -187120 -187208 -187298 -187387 -187476 -187566 -187655 -187745 -187835 -187926 -188016 -188107 -188197 -188288 -188379 -188471 -188562 -188654 -188746 -188838 -188930 -189022 -189115 -189208 -189301 -189394 -189487 -189580 -189674 -189768 -189862 -189956 -190051 -190146 -190240 -190336 -190431 -190526 -190622 -190718 -190814 -190910 -191007 -191103 -191200 -191297 -191395 -191492 -191590 -191688 -191786 -191885 -191983 -192082 -192181 -192281 -192380 -192480 -192580 -192680 -192780 -192881 -192982 -193083 -193185 -193286 -193388 -193490 -193592 -193695 -193798 -193901 -194004 -194108 -194212 -194316 -194420 -194525 -194629 -194734 -194840 -194945 -195051 -195157 -195264 -195371 -195478 -195585 -195692 -195800 -195908 -196016 -196125 -196234 -196343 -196453 -196562 -196672 -196783 -196893 -197004 -197116 -197227 -197339 -197451 -197564 -197676 -197789 -197903 -198016 -198130 -198245 -198360 -198474 -198590 -198705 -198821 -198938 -199054 -199171 -199289 -199406 -199524 -199643 -199761 -199881 -200000 -186924 -187013 -187102 -187191 -187280 -187370 -187459 -187549 -187639 -187729 -187820 -187910 -188001 -188092 -188183 -188274 -188366 -188458 -188549 -188642 -188734 -188826 -188919 -189012 -189105 -189198 -189291 -189385 -189479 -189573 -189667 -189762 -189856 -189951 -190046 -190141 -190237 -190333 -190428 -190525 -190621 -190717 -190814 -190911 -191008 -191106 -191204 -191301 -191400 -191498 -191596 -191695 -191794 -191893 -191993 -192093 -192193 -192293 -192393 -192494 -192595 -192696 -192797 -192899 -193001 -193103 -193206 -193308 -193411 -193514 -193618 -193721 -193825 -193930 -194034 -194139 -194244 -194349 -194455 -194560 -194666 -194773 -194880 -194986 -195094 -195201 -195309 -195417 -195525 -195634 -195743 -195852 -195962 -196072 -196182 -196292 -196403 -196514 -196625 -196737 -196849 -196961 -197074 -197187 -197300 -197414 -197528 -197642 -197757 -197872 -197987 -198102 -198218 -198335 -198451 -198568 -198686 -198803 -198921 -199040 -199158 -199277 -199397 -199517 -199637 -199758 -199879 -200000 -186815 -186904 -186993 -187082 -187172 -187261 -187351 -187441 -187531 -187621 -187712 -187803 -187894 -187985 -188076 -188167 -188259 -188351 -188443 -188535 -188628 -188721 -188814 -188907 -189000 -189094 -189187 -189281 -189375 -189470 -189564 -189659 -189754 -189850 -189945 -190041 -190137 -190233 -190329 -190426 -190522 -190620 -190717 -190814 -190912 -191010 -191108 -191207 -191305 -191404 -191503 -191603 -191702 -191802 -191902 -192003 -192103 -192204 -192305 -192407 -192508 -192610 -192712 -192815 -192918 -193021 -193124 -193227 -193331 -193435 -193539 -193644 -193749 -193854 -193959 -194065 -194171 -194277 -194384 -194491 -194598 -194705 -194813 -194921 -195029 -195138 -195247 -195356 -195465 -195575 -195685 -195796 -195906 -196018 -196129 -196241 -196353 -196465 -196578 -196691 -196804 -196918 -197032 -197146 -197261 -197376 -197492 -197607 -197723 -197840 -197957 -198074 -198191 -198309 -198428 -198546 -198665 -198785 -198904 -199025 -199145 -199266 -199387 -199509 -199631 -199754 -199877 -200000 -186704 -186793 -186882 -186971 -187061 -187150 -187240 -187330 -187421 -187511 -187602 -187693 -187784 -187875 -187967 -188058 -188150 -188243 -188335 -188427 -188520 -188613 -188706 -188800 -188893 -188987 -189081 -189176 -189270 -189365 -189460 -189555 -189651 -189746 -189842 -189938 -190035 -190131 -190228 -190325 -190422 -190520 -190618 -190716 -190814 -190913 -191011 -191110 -191210 -191309 -191409 -191509 -191609 -191710 -191810 -191912 -192013 -192114 -192216 -192318 -192421 -192523 -192626 -192730 -192833 -192937 -193041 -193145 -193250 -193355 -193460 -193565 -193671 -193777 -193883 -193990 -194097 -194204 -194312 -194420 -194528 -194636 -194745 -194854 -194964 -195073 -195183 -195294 -195404 -195515 -195627 -195738 -195851 -195963 -196076 -196189 -196302 -196416 -196530 -196644 -196759 -196874 -196989 -197105 -197221 -197338 -197455 -197572 -197690 -197808 -197926 -198045 -198164 -198284 -198404 -198524 -198645 -198766 -198888 -199010 -199132 -199255 -199378 -199501 -199625 -199750 -199875 -200000 -186590 -186679 -186768 -186858 -186947 -187037 -187127 -187217 -187308 -187399 -187490 -187581 -187672 -187764 -187855 -187947 -188039 -188132 -188225 -188317 -188410 -188504 -188597 -188691 -188785 -188879 -188974 -189068 -189163 -189258 -189354 -189449 -189545 -189641 -189738 -189834 -189931 -190028 -190125 -190223 -190321 -190419 -190517 -190616 -190715 -190814 -190913 -191013 -191112 -191213 -191313 -191414 -191515 -191616 -191717 -191819 -191921 -192023 -192126 -192229 -192332 -192435 -192539 -192643 -192747 -192852 -192957 -193062 -193167 -193273 -193379 -193486 -193592 -193699 -193807 -193914 -194022 -194131 -194239 -194348 -194457 -194567 -194677 -194787 -194897 -195008 -195119 -195231 -195343 -195455 -195568 -195681 -195794 -195907 -196021 -196136 -196250 -196365 -196481 -196597 -196713 -196829 -196946 -197064 -197181 -197299 -197418 -197537 -197656 -197775 -197896 -198016 -198137 -198258 -198380 -198502 -198624 -198747 -198870 -198994 -199118 -199243 -199368 -199494 -199619 -199746 -199873 -200000 -186473 -186563 -186652 -186742 -186831 -186922 -187012 -187102 -187193 -187284 -187375 -187466 -187558 -187650 -187742 -187834 -187926 -188019 -188112 -188205 -188299 -188392 -188486 -188580 -188675 -188769 -188864 -188959 -189054 -189150 -189246 -189342 -189438 -189535 -189631 -189728 -189826 -189923 -190021 -190119 -190217 -190316 -190415 -190514 -190613 -190713 -190813 -190913 -191014 -191115 -191216 -191317 -191418 -191520 -191623 -191725 -191828 -191931 -192034 -192138 -192242 -192346 -192450 -192555 -192660 -192766 -192872 -192978 -193084 -193191 -193298 -193405 -193513 -193621 -193729 -193838 -193946 -194056 -194165 -194275 -194386 -194496 -194607 -194719 -194830 -194942 -195055 -195167 -195280 -195394 -195508 -195622 -195736 -195851 -195967 -196082 -196198 -196315 -196432 -196549 -196666 -196784 -196903 -197021 -197141 -197260 -197380 -197501 -197621 -197743 -197864 -197986 -198109 -198232 -198355 -198479 -198603 -198728 -198853 -198979 -199105 -199231 -199358 -199486 -199613 -199742 -199871 -200000 -186355 -186444 -186534 -186623 -186713 -186804 -186894 -186985 -187076 -187167 -187258 -187350 -187442 -187534 -187626 -187719 -187811 -187904 -187998 -188091 -188185 -188279 -188373 -188467 -188562 -188657 -188752 -188848 -188943 -189039 -189136 -189232 -189329 -189426 -189523 -189621 -189719 -189817 -189915 -190014 -190112 -190212 -190311 -190411 -190511 -190611 -190712 -190812 -190914 -191015 -191117 -191219 -191321 -191424 -191526 -191630 -191733 -191837 -191941 -192045 -192150 -192255 -192361 -192466 -192572 -192679 -192785 -192892 -192999 -193107 -193215 -193323 -193432 -193541 -193650 -193760 -193870 -193980 -194091 -194202 -194313 -194425 -194537 -194649 -194762 -194875 -194989 -195103 -195217 -195332 -195447 -195562 -195678 -195795 -195911 -196028 -196146 -196263 -196382 -196500 -196619 -196739 -196859 -196979 -197100 -197221 -197342 -197464 -197587 -197710 -197833 -197957 -198081 -198205 -198331 -198456 -198582 -198709 -198836 -198963 -199091 -199219 -199348 -199478 -199607 -199738 -199869 -200000 -186233 -186323 -186413 -186503 -186593 -186683 -186774 -186865 -186956 -187047 -187139 -187231 -187323 -187415 -187508 -187601 -187694 -187787 -187881 -187975 -188069 -188163 -188258 -188353 -188448 -188543 -188639 -188735 -188831 -188927 -189024 -189121 -189218 -189316 -189413 -189511 -189610 -189708 -189807 -189906 -190006 -190106 -190206 -190306 -190406 -190507 -190609 -190710 -190812 -190914 -191016 -191119 -191222 -191325 -191429 -191533 -191637 -191742 -191847 -191952 -192057 -192163 -192269 -192376 -192483 -192590 -192698 -192805 -192914 -193022 -193131 -193240 -193350 -193460 -193570 -193681 -193792 -193903 -194015 -194127 -194240 -194353 -194466 -194579 -194693 -194808 -194923 -195038 -195153 -195269 -195386 -195502 -195619 -195737 -195855 -195973 -196092 -196211 -196331 -196451 -196572 -196693 -196814 -196936 -197058 -197181 -197304 -197427 -197552 -197676 -197801 -197926 -198052 -198179 -198306 -198433 -198561 -198689 -198818 -198947 -199077 -199207 -199338 -199469 -199601 -199734 -199867 -200000 -186109 -186199 -186289 -186379 -186470 -186560 -186651 -186743 -186834 -186926 -187018 -187110 -187202 -187295 -187388 -187481 -187574 -187668 -187762 -187856 -187951 -188045 -188140 -188236 -188331 -188427 -188523 -188619 -188716 -188813 -188910 -189007 -189105 -189203 -189302 -189400 -189499 -189598 -189698 -189797 -189897 -189998 -190098 -190199 -190301 -190402 -190504 -190606 -190709 -190811 -190914 -191018 -191122 -191226 -191330 -191435 -191540 -191645 -191751 -191857 -191963 -192070 -192177 -192284 -192392 -192500 -192609 -192718 -192827 -192936 -193046 -193156 -193267 -193378 -193489 -193601 -193713 -193826 -193938 -194052 -194165 -194279 -194394 -194508 -194624 -194739 -194855 -194972 -195089 -195206 -195323 -195441 -195560 -195679 -195798 -195918 -196038 -196159 -196280 -196401 -196523 -196646 -196769 -196892 -197016 -197140 -197265 -197390 -197516 -197642 -197769 -197896 -198024 -198152 -198280 -198409 -198539 -198669 -198800 -198931 -199063 -199195 -199328 -199461 -199595 -199730 -199864 -200000 -185983 -186073 -186163 -186253 -186344 -186435 -186526 -186618 -186709 -186801 -186894 -186986 -187079 -187172 -187265 -187359 -187453 -187547 -187641 -187736 -187830 -187926 -188021 -188117 -188213 -188309 -188405 -188502 -188599 -188697 -188794 -188892 -188991 -189089 -189188 -189287 -189386 -189486 -189586 -189687 -189787 -189888 -189989 -190091 -190193 -190295 -190398 -190501 -190604 -190707 -190811 -190915 -191020 -191125 -191230 -191335 -191441 -191547 -191654 -191761 -191868 -191975 -192083 -192192 -192300 -192409 -192519 -192628 -192739 -192849 -192960 -193071 -193183 -193295 -193407 -193520 -193633 -193747 -193861 -193975 -194090 -194205 -194321 -194437 -194553 -194670 -194787 -194905 -195023 -195141 -195260 -195380 -195500 -195620 -195741 -195862 -195984 -196106 -196228 -196351 -196475 -196599 -196723 -196848 -196973 -197099 -197226 -197353 -197480 -197608 -197736 -197865 -197994 -198124 -198255 -198386 -198517 -198649 -198782 -198915 -199049 -199183 -199318 -199453 -199589 -199725 -199862 -200000 -185853 -185944 -186034 -186125 -186216 -186307 -186399 -186491 -186583 -186675 -186767 -186860 -186953 -187047 -187140 -187234 -187328 -187423 -187518 -187613 -187708 -187804 -187899 -187996 -188092 -188189 -188286 -188383 -188481 -188578 -188677 -188775 -188874 -188973 -189072 -189172 -189272 -189372 -189473 -189574 -189675 -189777 -189879 -189981 -190084 -190187 -190290 -190393 -190497 -190602 -190706 -190811 -190916 -191022 -191128 -191234 -191341 -191448 -191555 -191663 -191771 -191880 -191988 -192098 -192207 -192317 -192428 -192538 -192649 -192761 -192873 -192985 -193098 -193211 -193324 -193438 -193552 -193667 -193782 -193898 -194014 -194130 -194247 -194364 -194482 -194600 -194718 -194837 -194957 -195076 -195197 -195318 -195439 -195560 -195683 -195805 -195928 -196052 -196176 -196300 -196425 -196551 -196677 -196803 -196930 -197058 -197186 -197315 -197444 -197573 -197703 -197834 -197965 -198097 -198229 -198362 -198495 -198629 -198764 -198899 -199034 -199170 -199307 -199445 -199583 -199721 -199860 -200000 -185722 -185812 -185903 -185994 -186085 -186177 -186269 -186361 -186453 -186546 -186639 -186732 -186825 -186919 -187013 -187107 -187202 -187297 -187392 -187488 -187583 -187679 -187776 -187872 -187969 -188066 -188164 -188262 -188360 -188458 -188557 -188656 -188755 -188855 -188955 -189055 -189156 -189257 -189358 -189460 -189562 -189664 -189767 -189870 -189973 -190076 -190180 -190285 -190389 -190494 -190600 -190705 -190811 -190918 -191025 -191132 -191239 -191347 -191455 -191564 -191673 -191782 -191892 -192002 -192113 -192224 -192335 -192447 -192559 -192671 -192784 -192898 -193011 -193126 -193240 -193355 -193470 -193586 -193703 -193819 -193936 -194054 -194172 -194290 -194409 -194529 -194649 -194769 -194890 -195011 -195132 -195255 -195377 -195500 -195624 -195748 -195872 -195997 -196123 -196249 -196376 -196503 -196630 -196758 -196887 -197016 -197146 -197276 -197407 -197538 -197670 -197802 -197935 -198069 -198203 -198338 -198473 -198609 -198745 -198882 -199020 -199158 -199297 -199436 -199576 -199717 -199858 -200000 -185587 -185678 -185769 -185860 -185952 -186044 -186136 -186229 -186321 -186414 -186508 -186601 -186695 -186789 -186884 -186978 -187073 -187169 -187264 -187360 -187456 -187553 -187650 -187747 -187844 -187942 -188040 -188138 -188237 -188336 -188435 -188535 -188635 -188735 -188836 -188937 -189038 -189139 -189241 -189344 -189446 -189549 -189653 -189756 -189860 -189964 -190069 -190174 -190280 -190385 -190492 -190598 -190705 -190812 -190920 -191028 -191136 -191245 -191354 -191464 -191573 -191684 -191794 -191906 -192017 -192129 -192241 -192354 -192467 -192581 -192695 -192809 -192924 -193039 -193155 -193271 -193388 -193505 -193622 -193740 -193858 -193977 -194096 -194216 -194336 -194457 -194578 -194700 -194822 -194944 -195067 -195191 -195315 -195439 -195564 -195690 -195816 -195942 -196070 -196197 -196325 -196454 -196583 -196713 -196843 -196974 -197105 -197237 -197370 -197503 -197636 -197771 -197905 -198041 -198177 -198313 -198450 -198588 -198727 -198865 -199005 -199145 -199286 -199428 -199570 -199713 -199856 -200000 -185450 -185541 -185632 -185724 -185816 -185908 -186001 -186094 -186187 -186280 -186374 -186468 -186562 -186657 -186752 -186847 -186942 -187038 -187134 -187231 -187327 -187424 -187522 -187619 -187717 -187815 -187914 -188013 -188112 -188212 -188312 -188412 -188512 -188613 -188714 -188816 -188918 -189020 -189123 -189226 -189329 -189433 -189537 -189641 -189746 -189851 -189956 -190062 -190168 -190275 -190382 -190489 -190597 -190705 -190814 -190922 -191032 -191141 -191251 -191362 -191473 -191584 -191696 -191808 -191920 -192033 -192146 -192260 -192374 -192489 -192604 -192720 -192835 -192952 -193069 -193186 -193304 -193422 -193540 -193660 -193779 -193899 -194020 -194141 -194262 -194384 -194507 -194630 -194753 -194877 -195001 -195126 -195252 -195378 -195504 -195631 -195759 -195887 -196016 -196145 -196274 -196405 -196535 -196667 -196799 -196931 -197064 -197198 -197332 -197467 -197602 -197738 -197875 -198012 -198150 -198289 -198428 -198567 -198708 -198849 -198990 -199133 -199275 -199419 -199563 -199708 -199854 -200000 -185310 -185401 -185493 -185585 -185677 -185770 -185863 -185956 -186050 -186144 -186238 -186332 -186427 -186522 -186617 -186713 -186809 -186905 -187002 -187099 -187196 -187293 -187391 -187489 -187588 -187687 -187786 -187885 -187985 -188085 -188186 -188287 -188388 -188489 -188591 -188694 -188796 -188899 -189002 -189106 -189210 -189314 -189419 -189524 -189630 -189736 -189842 -189949 -190056 -190163 -190271 -190379 -190487 -190596 -190706 -190815 -190926 -191036 -191147 -191259 -191370 -191483 -191595 -191708 -191822 -191936 -192050 -192165 -192280 -192396 -192512 -192629 -192746 -192863 -192981 -193100 -193219 -193338 -193458 -193578 -193699 -193820 -193942 -194064 -194187 -194311 -194434 -194559 -194684 -194809 -194935 -195061 -195188 -195315 -195443 -195572 -195701 -195831 -195961 -196092 -196223 -196355 -196487 -196620 -196754 -196888 -197023 -197158 -197294 -197431 -197568 -197706 -197845 -197984 -198123 -198264 -198405 -198546 -198689 -198832 -198975 -199120 -199265 -199410 -199557 -199704 -199852 -200000 -185167 -185259 -185351 -185443 -185536 -185629 -185723 -185816 -185910 -186004 -186099 -186194 -186289 -186385 -186480 -186577 -186673 -186770 -186867 -186964 -187062 -187160 -187259 -187357 -187456 -187556 -187656 -187756 -187856 -187957 -188058 -188160 -188261 -188364 -188466 -188569 -188672 -188776 -188880 -188984 -189089 -189194 -189300 -189406 -189512 -189619 -189726 -189833 -189941 -190049 -190158 -190267 -190376 -190486 -190596 -190707 -190818 -190930 -191042 -191154 -191267 -191380 -191494 -191608 -191722 -191837 -191953 -192069 -192185 -192302 -192419 -192537 -192655 -192774 -192893 -193013 -193133 -193253 -193374 -193496 -193618 -193741 -193864 -193987 -194112 -194236 -194361 -194487 -194613 -194740 -194867 -194995 -195124 -195253 -195382 -195512 -195643 -195774 -195906 -196038 -196171 -196305 -196439 -196573 -196709 -196845 -196981 -197118 -197256 -197395 -197534 -197673 -197814 -197955 -198096 -198239 -198382 -198525 -198670 -198815 -198960 -199107 -199254 -199402 -199550 -199699 -199849 -200000 -185021 -185113 -185206 -185299 -185392 -185486 -185579 -185674 -185768 -185863 -185958 -186053 -186149 -186245 -186341 -186438 -186535 -186632 -186730 -186828 -186926 -187025 -187124 -187223 -187323 -187423 -187523 -187624 -187725 -187826 -187928 -188030 -188133 -188236 -188339 -188443 -188547 -188651 -188756 -188861 -188967 -189072 -189179 -189285 -189392 -189500 -189608 -189716 -189825 -189934 -190043 -190153 -190264 -190375 -190486 -190597 -190709 -190822 -190935 -191048 -191162 -191276 -191391 -191506 -191622 -191738 -191854 -191971 -192089 -192207 -192325 -192444 -192563 -192683 -192804 -192924 -193046 -193168 -193290 -193413 -193536 -193660 -193785 -193910 -194035 -194161 -194288 -194415 -194542 -194671 -194799 -194929 -195059 -195189 -195320 -195452 -195584 -195717 -195850 -195984 -196119 -196254 -196390 -196526 -196663 -196801 -196939 -197078 -197218 -197358 -197499 -197640 -197783 -197925 -198069 -198213 -198358 -198504 -198650 -198797 -198945 -199094 -199243 -199393 -199543 -199695 -199847 -200000 -184873 -184965 -185058 -185152 -185245 -185339 -185434 -185528 -185623 -185718 -185814 -185910 -186006 -186103 -186200 -186297 -186394 -186492 -186590 -186689 -186788 -186887 -186987 -187087 -187187 -187288 -187389 -187490 -187592 -187694 -187796 -187899 -188002 -188106 -188210 -188314 -188419 -188524 -188630 -188736 -188842 -188949 -189056 -189163 -189271 -189380 -189488 -189597 -189707 -189817 -189927 -190038 -190150 -190261 -190373 -190486 -190599 -190713 -190826 -190941 -191056 -191171 -191287 -191403 -191520 -191637 -191754 -191873 -191991 -192110 -192230 -192350 -192470 -192592 -192713 -192835 -192958 -193081 -193205 -193329 -193453 -193579 -193704 -193831 -193958 -194085 -194213 -194342 -194471 -194600 -194731 -194861 -194993 -195125 -195257 -195391 -195524 -195659 -195794 -195929 -196066 -196203 -196340 -196478 -196617 -196756 -196897 -197037 -197179 -197321 -197464 -197607 -197751 -197896 -198042 -198188 -198335 -198482 -198631 -198780 -198930 -199080 -199232 -199384 -199537 -199690 -199845 -200000 -184721 -184815 -184908 -185002 -185096 -185190 -185285 -185380 -185476 -185572 -185668 -185764 -185861 -185958 -186055 -186153 -186251 -186350 -186448 -186548 -186647 -186747 -186847 -186948 -187049 -187150 -187252 -187354 -187456 -187559 -187662 -187766 -187870 -187974 -188079 -188184 -188290 -188396 -188502 -188609 -188716 -188823 -188931 -189040 -189148 -189257 -189367 -189477 -189588 -189699 -189810 -189922 -190034 -190147 -190260 -190373 -190487 -190602 -190717 -190832 -190948 -191064 -191181 -191298 -191416 -191535 -191653 -191773 -191892 -192013 -192133 -192255 -192376 -192499 -192622 -192745 -192869 -192993 -193118 -193244 -193370 -193496 -193624 -193751 -193879 -194008 -194138 -194268 -194398 -194529 -194661 -194794 -194927 -195060 -195194 -195329 -195464 -195600 -195737 -195874 -196012 -196151 -196290 -196430 -196571 -196712 -196854 -196996 -197140 -197284 -197428 -197574 -197720 -197866 -198014 -198162 -198311 -198461 -198611 -198762 -198914 -199067 -199221 -199375 -199530 -199686 -199843 -200000 -184567 -184661 -184755 -184849 -184944 -185039 -185134 -185230 -185326 -185422 -185519 -185616 -185713 -185811 -185909 -186007 -186106 -186205 -186304 -186404 -186504 -186605 -186706 -186807 -186908 -187011 -187113 -187216 -187319 -187422 -187526 -187631 -187735 -187840 -187946 -188052 -188158 -188265 -188372 -188480 -188588 -188696 -188805 -188914 -189024 -189134 -189244 -189355 -189467 -189578 -189691 -189803 -189917 -190030 -190144 -190259 -190374 -190490 -190606 -190722 -190839 -190956 -191074 -191193 -191312 -191431 -191551 -191672 -191792 -191914 -192036 -192158 -192281 -192405 -192529 -192654 -192779 -192905 -193031 -193158 -193285 -193413 -193542 -193671 -193801 -193931 -194062 -194193 -194325 -194458 -194591 -194725 -194860 -194995 -195130 -195267 -195404 -195542 -195680 -195819 -195958 -196099 -196240 -196381 -196524 -196667 -196811 -196955 -197100 -197246 -197392 -197540 -197688 -197836 -197986 -198136 -198287 -198439 -198592 -198745 -198899 -199054 -199209 -199366 -199523 -199681 -199840 -200000 -184410 -184504 -184599 -184694 -184789 -184884 -184980 -185076 -185173 -185270 -185367 -185465 -185563 -185661 -185759 -185858 -185958 -186057 -186158 -186258 -186359 -186460 -186562 -186664 -186766 -186869 -186972 -187075 -187179 -187283 -187388 -187493 -187599 -187705 -187811 -187918 -188025 -188132 -188240 -188349 -188457 -188567 -188676 -188787 -188897 -189008 -189120 -189231 -189344 -189457 -189570 -189684 -189798 -189913 -190028 -190143 -190259 -190376 -190493 -190611 -190729 -190847 -190966 -191086 -191206 -191327 -191448 -191569 -191691 -191814 -191937 -192061 -192185 -192310 -192436 -192562 -192688 -192815 -192943 -193071 -193200 -193329 -193459 -193590 -193721 -193853 -193985 -194118 -194251 -194386 -194520 -194656 -194792 -194929 -195066 -195204 -195343 -195482 -195622 -195763 -195904 -196046 -196189 -196332 -196477 -196621 -196767 -196913 -197060 -197208 -197356 -197506 -197656 -197806 -197958 -198110 -198263 -198417 -198572 -198727 -198883 -199040 -199198 -199357 -199516 -199677 -199838 -200000 -184250 -184345 -184440 -184535 -184631 -184727 -184824 -184920 -185018 -185115 -185213 -185311 -185410 -185508 -185608 -185707 -185807 -185908 -186008 -186110 -186211 -186313 -186415 -186518 -186621 -186725 -186828 -186933 -187037 -187142 -187248 -187354 -187460 -187567 -187674 -187781 -187889 -187998 -188107 -188216 -188326 -188436 -188546 -188657 -188769 -188881 -188993 -189106 -189220 -189333 -189448 -189562 -189678 -189793 -189909 -190026 -190143 -190261 -190379 -190498 -190617 -190737 -190857 -190978 -191099 -191221 -191343 -191466 -191589 -191713 -191838 -191963 -192088 -192214 -192341 -192468 -192596 -192725 -192854 -192983 -193113 -193244 -193376 -193508 -193640 -193773 -193907 -194042 -194177 -194313 -194449 -194586 -194724 -194862 -195001 -195141 -195281 -195422 -195564 -195706 -195849 -195993 -196138 -196283 -196429 -196576 -196723 -196871 -197020 -197170 -197320 -197471 -197623 -197776 -197930 -198084 -198239 -198395 -198552 -198709 -198868 -199027 -199187 -199348 -199510 -199672 -199836 -200000 -184087 -184183 -184278 -184374 -184471 -184567 -184664 -184762 -184859 -184957 -185056 -185155 -185254 -185354 -185453 -185554 -185654 -185756 -185857 -185959 -186061 -186164 -186267 -186370 -186474 -186578 -186683 -186788 -186893 -186999 -187105 -187212 -187319 -187427 -187535 -187643 -187752 -187861 -187971 -188081 -188192 -188303 -188415 -188527 -188639 -188752 -188865 -188979 -189094 -189208 -189324 -189439 -189556 -189672 -189790 -189908 -190026 -190145 -190264 -190384 -190504 -190625 -190746 -190868 -190991 -191114 -191237 -191361 -191486 -191611 -191737 -191863 -191990 -192117 -192246 -192374 -192503 -192633 -192764 -192895 -193026 -193159 -193291 -193425 -193559 -193694 -193829 -193965 -194102 -194239 -194377 -194516 -194655 -194795 -194936 -195077 -195219 -195362 -195505 -195649 -195794 -195940 -196086 -196233 -196381 -196530 -196679 -196829 -196980 -197131 -197284 -197437 -197591 -197746 -197901 -198058 -198215 -198373 -198532 -198691 -198852 -199013 -199176 -199339 -199503 -199668 -199833 -200000 -183922 -184018 -184114 -184210 -184307 -184405 -184502 -184600 -184699 -184797 -184896 -184996 -185096 -185196 -185297 -185398 -185499 -185601 -185703 -185806 -185909 -186012 -186116 -186220 -186325 -186430 -186535 -186641 -186747 -186854 -186961 -187069 -187177 -187285 -187394 -187503 -187613 -187723 -187834 -187945 -188056 -188169 -188281 -188394 -188507 -188621 -188736 -188851 -188966 -189082 -189198 -189315 -189432 -189550 -189669 -189787 -189907 -190027 -190147 -190268 -190390 -190512 -190634 -190757 -190881 -191005 -191130 -191255 -191381 -191508 -191635 -191763 -191891 -192020 -192149 -192279 -192410 -192541 -192673 -192805 -192938 -193072 -193206 -193341 -193477 -193613 -193750 -193888 -194026 -194165 -194304 -194445 -194586 -194727 -194870 -195013 -195157 -195301 -195446 -195592 -195739 -195886 -196034 -196183 -196333 -196483 -196635 -196786 -196939 -197093 -197247 -197402 -197558 -197715 -197873 -198031 -198190 -198350 -198511 -198673 -198836 -199000 -199164 -199329 -199496 -199663 -199831 -200000 -183753 -183850 -183946 -184044 -184141 -184239 -184337 -184436 -184535 -184635 -184734 -184835 -184935 -185036 -185137 -185239 -185341 -185444 -185547 -185650 -185754 -185858 -185963 -186068 -186173 -186279 -186385 -186492 -186599 -186707 -186815 -186923 -187032 -187141 -187251 -187361 -187472 -187583 -187695 -187807 -187919 -188032 -188146 -188260 -188374 -188489 -188604 -188720 -188837 -188954 -189071 -189189 -189308 -189426 -189546 -189666 -189787 -189908 -190029 -190151 -190274 -190397 -190521 -190646 -190770 -190896 -191022 -191149 -191276 -191404 -191532 -191661 -191791 -191921 -192052 -192183 -192315 -192448 -192581 -192715 -192850 -192985 -193121 -193257 -193394 -193532 -193671 -193810 -193950 -194090 -194231 -194373 -194516 -194659 -194803 -194948 -195094 -195240 -195387 -195534 -195683 -195832 -195982 -196133 -196284 -196437 -196590 -196744 -196898 -197054 -197210 -197367 -197525 -197684 -197844 -198004 -198166 -198328 -198491 -198655 -198820 -198986 -199153 -199320 -199489 -199658 -199829 -200000 -183582 -183679 -183776 -183874 -183972 -184071 -184170 -184269 -