<?xml version="1.0"?> 
<VTKFile type="StructuredGrid" version="0.1"> 
<StructuredGrid WholeExtent="0 127 0 127 0 0"> 
<Piece Extent="0 127 0 127 0 0"> 
<PointData>
<DataArray type="Float32" Name="u" format="ascii" NumberOfComponents="1"> 
-60000 -59998.8 -59998.2 -59997.6 -59997 -59996.5 -59996.1 -59995.6 -59995.2 -59994.7 -59994.3 -59993.9 -59993.5 -59993.1 -59992.7 -59992.3 -59992 -59991.6 -59991.2 -59990.8 -59990.5 -59990.1 -59989.7 -59989.4 -59989 -59988.7 -59988.3 -59988 -59987.6 -59987.3 -59986.9 -59986.6 -59986.3 -59985.9 -59985.6 -59985.3 -59985 -59984.7 -59984.4 -59984.1 -59983.8 -59983.5 -59983.2 -59983 -59982.7 -59982.5 -59982.2 -59982 -59981.8 -59981.6 -59981.4 -59981.2 -59981.1 -59980.9 -59980.8 -59980.7 -59980.6 -59980.5 -59980.4 -59980.4 -59980.3 -59980.3 -59980.3 -59980.3 -59980.4 -59980.4 -59980.5 -59980.6 -59980.7 -59980.8 -59981 -59981.1 -59981.3 -59981.6 -59981.8 -59982 -59982.3 -59982.6 -59982.9 -59983.2 -59983.6 -59983.9 -59984.3 -59984.7 -59985.1 -59985.5 -59986 -59986.4 -59986.9 -59987.3 -59987.8 -59988.3 -59988.8 -59989.3 -59989.7 -59990.2 -59990.7 -59991.2 -59991.7 -59992.2 -59992.7 -59993.1 -59993.6 -59994 -59994.5 -59994.9 -59995.3 -59995.7 -59996.1 -59996.5 -59996.9 -59997.2 -59997.5 -59997.9 -59998.1 -59998.4 -59998.7 -59998.9 -59999.1 -59999.3 -59999.5 -59999.6 -59999.7 -59999.8 -59999.9 -60000 -60000 -60000 -60000 -59999.6 -59999 -59998.4 -59997.8 -59997.3 -59996.8 -59996.3 -59995.9 -59995.5 -59995 -59994.6 -59994.2 -59993.8 -59993.5 -59993.1 -59992.7 -59992.3 -59992 -59991.6 -59991.2 -59990.9 -59990.5 -59990.2 -59989.8 -59989.5 -59989.1 -59988.8 -59988.5 -59988.1 -59987.8 -59987.5 -59987.1 -59986.8 -59986.5 -59986.2 -59985.9 -59985.6 -59985.3 -59985 -59984.7 -59984.5 -59984.2 -59984 -59983.7 -59983.5 -59983.2 -59983 -59982.8 -59982.6 -59982.4 -59982.2 -59982.1 -59981.9 -59981.8 -59981.6 -59981.5 -59981.4 -59981.3 -59981.3 -59981.2 -59981.2 -59981.2 -59981.2 -59981.2 -59981.2 -59981.3 -59981.3 -59981.4 -59981.5 -59981.6 -59981.8 -59981.9 -59982.1 -59982.3 -59982.5 -59982.8 -59983 -59983.3 -59983.6 -59983.9 -59984.2 -59984.5 -59984.9 -59985.2 -59985.6 -59986 -59986.4 -59986.8 -59987.2 -59987.7 -59988.1 -59988.6 -59989 -59989.5 -59989.9 -59990.4 -59990.9 -59991.3 -59991.8 -59992.3 -59992.7 -59993.2 -59993.6 -59994 -59994.5 -59994.9 -59995.3 -59995.7 -59996.1 -59996.4 -59996.8 -59997.1 -59997.5 -59997.8 -59998 -59998.3 -59998.6 -59998.8 -59999 -59999.2 -59999.4 -59999.5 -59999.7 -59999.8 -59999.9 -60000 -60000 -60000 -59999.7 -59999.4 -59998.9 -59998.4 -59997.9 -59997.5 -59997 -59996.6 -59996.1 -59995.7 -59995.3 -59994.9 -59994.5 -59994.1 -59993.8 -59993.4 -59993 -59992.7 -59992.3 -59992 -59991.6 -59991.3 -59990.9 -59990.6 -59990.3 -59989.9 -59989.6 -59989.3 -59989 -59988.6 -59988.3 -59988 -59987.7 -59987.4 -59987.1 -59986.8 -59986.5 -59986.2 -59985.9 -59985.7 -59985.4 -59985.1 -59984.9 -59984.7 -59984.4 -59984.2 -59984 -59983.8 -59983.6 -59983.4 -59983.2 -59983 -59982.9 -59982.7 -59982.6 -59982.5 -59982.3 -59982.3 -59982.2 -59982.1 -59982.1 -59982 -59982 -59982 -59982 -59982 -59982.1 -59982.1 -59982.2 -59982.3 -59982.4 -59982.5 -59982.7 -59982.9 -59983 -59983.2 -59983.5 -59983.7 -59983.9 -59984.2 -59984.5 -59984.8 -59985.1 -59985.4 -59985.8 -59986.1 -59986.5 -59986.9 -59987.2 -59987.6 -59988 -59988.5 -59988.9 -59989.3 -59989.7 -59990.2 -59990.6 -59991 -59991.5 -59991.9 -59992.4 -59992.8 -59993.2 -59993.7 -59994.1 -59994.5 -59994.9 -59995.3 -59995.7 -59996 -59996.4 -59996.8 -59997.1 -59997.4 -59997.7 -59998 -59998.3 -59998.5 -59998.8 -59999 -59999.2 -59999.4 -59999.5 -59999.7 -59999.8 -59999.9 -60000 -60000 -59999.8 -59999.5 -59999.2 -59998.9 -59998.5 -59998 -59997.6 -59997.2 -59996.8 -59996.3 -59995.9 -59995.6 -59995.2 -59994.8 -59994.4 -59994.1 -59993.7 -59993.4 -59993 -59992.7 -59992.3 -59992 -59991.7 -59991.3 -59991 -59990.7 -59990.4 -59990.1 -59989.7 -59989.4 -59989.1 -59988.8 -59988.5 -59988.2 -59987.9 -59987.7 -59987.4 -59987.1 -59986.8 -59986.6 -59986.3 -59986 -59985.8 -59985.6 -59985.3 -59985.1 -59984.9 -59984.7 -59984.5 -59984.3 -59984.1 -59983.9 -59983.8 -59983.6 -59983.5 -59983.4 -59983.2 -59983.1 -59983.1 -59983 -59982.9 -59982.9 -59982.8 -59982.8 -59982.8 -59982.8 -59982.8 -59982.9 -59982.9 -59983 -59983.1 -59983.2 -59983.3 -59983.4 -59983.6 -59983.8 -59983.9 -59984.1 -59984.4 -59984.6 -59984.8 -59985.1 -59985.4 -59985.7 -59986 -59986.3 -59986.6 -59987 -59987.3 -59987.7 -59988 -59988.4 -59988.8 -59989.2 -59989.6 -59990 -59990.4 -59990.8 -59991.3 -59991.7 -59992.1 -59992.5 -59992.9 -59993.3 -59993.8 -59994.2 -59994.6 -59994.9 -59995.3 -59995.7 -59996.1 -59996.4 -59996.8 -59997.1 -59997.4 -59997.7 -59998 -59998.3 -59998.6 -59998.8 -59999 -59999.2 -59999.4 -59999.6 -59999.8 -59999.9 -60000 -60000 -59999.8 -59999.6 -59999.4 -59999.1 -59998.8 -59998.4 -59998.1 -59997.7 -59997.3 -59996.9 -59996.5 -59996.2 -59995.8 -59995.4 -59995.1 -59994.7 -59994.4 -59994 -59993.7 -59993.4 -59993 -59992.7 -59992.4 -59992 -59991.7 -59991.4 -59991.1 -59990.8 -59990.5 -59990.2 -59989.9 -59989.6 -59989.3 -59989 -59988.7 -59988.5 -59988.2 -59987.9 -59987.7 -59987.4 -59987.2 -59986.9 -59986.7 -59986.4 -59986.2 -59986 -59985.8 -59985.6 -59985.4 -59985.2 -59985 -59984.8 -59984.7 -59984.5 -59984.4 -59984.2 -59984.1 -59984 -59983.9 -59983.8 -59983.8 -59983.7 -59983.6 -59983.6 -59983.6 -59983.6 -59983.6 -59983.6 -59983.6 -59983.7 -59983.8 -59983.8 -59983.9 -59984 -59984.2 -59984.3 -59984.5 -59984.6 -59984.8 -59985 -59985.2 -59985.5 -59985.7 -59986 -59986.2 -59986.5 -59986.8 -59987.1 -59987.5 -59987.8 -59988.1 -59988.5 -59988.8 -59989.2 -59989.6 -59989.9 -59990.3 -59990.7 -59991.1 -59991.5 -59991.9 -59992.3 -59992.7 -59993.1 -59993.5 -59993.9 -59994.3 -59994.7 -59995 -59995.4 -59995.8 -59996.1 -59996.5 -59996.8 -59997.2 -59997.5 -59997.8 -59998.1 -59998.3 -59998.6 -59998.9 -59999.1 -59999.3 -59999.5 -59999.7 -59999.9 -60000 -60000 -59999.8 -59999.7 -59999.5 -59999.3 -59999 -59998.7 -59998.4 -59998.1 -59997.8 -59997.4 -59997.1 -59996.7 -59996.4 -59996 -59995.7 -59995.3 -59995 -59994.6 -59994.3 -59994 -59993.7 -59993.4 -59993 -59992.7 -59992.4 -59992.1 -59991.8 -59991.5 -59991.2 -59990.9 -59990.6 -59990.4 -59990.1 -59989.8 -59989.5 -59989.3 -59989 -59988.7 -59988.5 -59988.2 -59988 -59987.7 -59987.5 -59987.3 -59987 -59986.8 -59986.6 -59986.4 -59986.2 -59986 -59985.9 -59985.7 -59985.5 -59985.4 -59985.2 -59985.1 -59985 -59984.9 -59984.7 -59984.7 -59984.6 -59984.5 -59984.4 -59984.4 -59984.4 -59984.3 -59984.3 -59984.3 -59984.4 -59984.4 -59984.4 -59984.5 -59984.6 -59984.7 -59984.8 -59984.9 -59985 -59985.2 -59985.3 -59985.5 -59985.7 -59985.9 -59986.1 -59986.3 -59986.6 -59986.8 -59987.1 -59987.4 -59987.7 -59988 -59988.3 -59988.6 -59988.9 -59989.3 -59989.6 -59990 -59990.3 -59990.7 -59991 -59991.4 -59991.8 -59992.2 -59992.6 -59992.9 -59993.3 -59993.7 -59994.1 -59994.5 -59994.8 -59995.2 -59995.6 -59995.9 -59996.3 -59996.6 -59996.9 -59997.3 -59997.6 -59997.9 -59998.2 -59998.4 -59998.7 -59999 -59999.2 -59999.4 -59999.6 -59999.8 -60000 -60000 -59999.9 -59999.7 -59999.5 -59999.4 -59999.2 -59998.9 -59998.7 -59998.4 -59998.1 -59997.8 -59997.5 -59997.2 -59996.9 -59996.5 -59996.2 -59995.9 -59995.5 -59995.2 -59994.9 -59994.6 -59994.3 -59994 -59993.7 -59993.4 -59993.1 -59992.8 -59992.5 -59992.2 -59991.9 -59991.6 -59991.3 -59991.1 -59990.8 -59990.5 -59990.3 -59990 -59989.7 -59989.5 -59989.2 -59989 -59988.8 -59988.5 -59988.3 -59988.1 -59987.9 -59987.6 -59987.4 -59987.2 -59987 -59986.9 -59986.7 -59986.5 -59986.4 -59986.2 -59986.1 -59985.9 -59985.8 -59985.7 -59985.6 -59985.5 -59985.4 -59985.3 -59985.2 -59985.2 -59985.1 -59985.1 -59985.1 -59985.1 -59985.1 -59985.1 -59985.1 -59985.2 -59985.2 -59985.3 -59985.4 -59985.5 -59985.6 -59985.7 -59985.8 -59986 -59986.2 -59986.3 -59986.5 -59986.7 -59986.9 -59987.2 -59987.4 -59987.6 -59987.9 -59988.2 -59988.5 -59988.8 -59989.1 -59989.4 -59989.7 -59990 -59990.3 -59990.7 -59991 -59991.4 -59991.7 -59992.1 -59992.5 -59992.8 -59993.2 -59993.6 -59993.9 -59994.3 -59994.6 -59995 -59995.4 -59995.7 -59996.1 -59996.4 -59996.7 -59997.1 -59997.4 -59997.7 -59998 -59998.3 -59998.6 -59998.9 -59999.1 -59999.4 -59999.6 -59999.8 -60000 -60000 -59999.9 -59999.8 -59999.6 -59999.4 -59999.3 -59999.1 -59998.9 -59998.6 -59998.4 -59998.1 -59997.9 -59997.6 -59997.3 -59997 -59996.7 -59996.4 -59996.1 -59995.8 -59995.5 -59995.2 -59994.9 -59994.6 -59994.3 -59994 -59993.7 -59993.4 -59993.1 -59992.8 -59992.6 -59992.3 -59992 -59991.7 -59991.5 -59991.2 -59991 -59990.7 -59990.5 -59990.2 -59990 -59989.7 -59989.5 -59989.3 -59989.1 -59988.8 -59988.6 -59988.4 -59988.2 -59988 -59987.8 -59987.7 -59987.5 -59987.3 -59987.1 -59987 -59986.8 -59986.7 -59986.6 -59986.5 -59986.4 -59986.2 -59986.2 -59986.1 -59986 -59985.9 -59985.9 -59985.8 -59985.8 -59985.8 -59985.8 -59985.8 -59985.8 -59985.8 -59985.9 -59985.9 -59986 -59986.1 -59986.2 -59986.3 -59986.4 -59986.5 -59986.7 -59986.8 -59987 -59987.1 -59987.3 -59987.5 -59987.7 -59988 -59988.2 -59988.5 -59988.7 -59989 -59989.2 -59989.5 -59989.8 -59990.1 -59990.4 -59990.8 -59991.1 -59991.4 -59991.7 -59992.1 -59992.4 -59992.8 -59993.1 -59993.5 -59993.8 -59994.2 -59994.5 -59994.9 -59995.2 -59995.6 -59995.9 -59996.3 -59996.6 -59996.9 -59997.2 -59997.6 -59997.9 -59998.2 -59998.5 -59998.8 -59999 -59999.3 -59999.5 -59999.8 -60000 -60000 -59999.9 -59999.8 -59999.7 -59999.5 -59999.4 -59999.2 -59999 -59998.8 -59998.6 -59998.4 -59998.1 -59997.9 -59997.6 -59997.4 -59997.1 -59996.8 -59996.5 -59996.2 -59996 -59995.7 -59995.4 -59995.1 -59994.8 -59994.5 -59994.3 -59994 -59993.7 -59993.4 -59993.2 -59992.9 -59992.7 -59992.4 -59992.1 -59991.9 -59991.6 -59991.4 -59991.2 -59990.9 -59990.7 -59990.5 -59990.2 -59990 -59989.8 -59989.6 -59989.4 -59989.2 -59989 -59988.8 -59988.6 -59988.4 -59988.2 -59988.1 -59987.9 -59987.8 -59987.6 -59987.5 -59987.3 -59987.2 -59987.1 -59987 -59986.9 -59986.8 -59986.7 -59986.7 -59986.6 -59986.6 -59986.5 -59986.5 -59986.5 -59986.5 -59986.5 -59986.5 -59986.5 -59986.6 -59986.6 -59986.7 -59986.7 -59986.8 -59986.9 -59987 -59987.2 -59987.3 -59987.4 -59987.6 -59987.8 -59987.9 -59988.1 -59988.3 -59988.5 -59988.8 -59989 -59989.2 -59989.5 -59989.7 -59990 -59990.3 -59990.6 -59990.9 -59991.2 -59991.5 -59991.8 -59992.1 -59992.4 -59992.8 -59993.1 -59993.4 -59993.8 -59994.1 -59994.4 -59994.8 -59995.1 -59995.5 -59995.8 -59996.1 -59996.5 -59996.8 -59997.1 -59997.5 -59997.8 -59998.1 -59998.4 -59998.7 -59999 -59999.2 -59999.5 -59999.8 -60000 -60000 -59999.9 -59999.8 -59999.7 -59999.6 -59999.4 -59999.3 -59999.1 -59999 -59998.8 -59998.6 -59998.4 -59998.2 -59997.9 -59997.7 -59997.5 -59997.2 -59996.9 -59996.7 -59996.4 -59996.1 -59995.9 -59995.6 -59995.3 -59995.1 -59994.8 -59994.5 -59994.3 -59994 -59993.8 -59993.5 -59993.3 -59993 -59992.8 -59992.5 -59992.3 -59992 -59991.8 -59991.6 -59991.4 -59991.1 -59990.9 -59990.7 -59990.5 -59990.3 -59990.1 -59989.9 -59989.7 -59989.5 -59989.3 -59989.1 -59989 -59988.8 -59988.7 -59988.5 -59988.4 -59988.2 -59988.1 -59988 -59987.8 -59987.7 -59987.6 -59987.6 -59987.5 -59987.4 -59987.3 -59987.3 -59987.2 -59987.2 -59987.2 -59987.2 -59987.1 -59987.2 -59987.2 -59987.2 -59987.2 -59987.3 -59987.3 -59987.4 -59987.5 -59987.6 -59987.7 -59987.8 -59987.9 -59988.1 -59988.2 -59988.4 -59988.5 -59988.7 -59988.9 -59989.1 -59989.3 -59989.5 -59989.8 -59990 -59990.2 -59990.5 -59990.8 -59991 -59991.3 -59991.6 -59991.9 -59992.2 -59992.5 -59992.8 -59993.1 -59993.4 -59993.8 -59994.1 -59994.4 -59994.7 -59995.1 -59995.4 -59995.7 -59996.1 -59996.4 -59996.7 -59997 -59997.4 -59997.7 -59998 -59998.3 -59998.6 -59998.9 -59999.2 -59999.5 -59999.7 -60000 -60000 -59999.9 -59999.8 -59999.7 -59999.6 -59999.5 -59999.4 -59999.2 -59999.1 -59998.9 -59998.8 -59998.6 -59998.4 -59998.2 -59998 -59997.8 -59997.5 -59997.3 -59997.1 -59996.8 -59996.6 -59996.3 -59996.1 -59995.8 -59995.6 -59995.3 -59995.1 -59994.8 -59994.6 -59994.3 -59994.1 -59993.8 -59993.6 -59993.4 -59993.1 -59992.9 -59992.7 -59992.4 -59992.2 -59992 -59991.8 -59991.6 -59991.4 -59991.1 -59990.9 -59990.7 -59990.6 -59990.4 -59990.2 -59990 -59989.8 -59989.7 -59989.5 -59989.4 -59989.2 -59989.1 -59988.9 -59988.8 -59988.7 -59988.6 -59988.5 -59988.4 -59988.3 -59988.2 -59988.1 -59988 -59988 -59987.9 -59987.9 -59987.8 -59987.8 -59987.8 -59987.8 -59987.8 -59987.8 -59987.8 -59987.9 -59987.9 -59988 -59988 -59988.1 -59988.2 -59988.3 -59988.4 -59988.5 -59988.7 -59988.8 -59988.9 -59989.1 -59989.3 -59989.5 -59989.6 -59989.8 -59990.1 -59990.3 -59990.5 -59990.7 -59991 -59991.2 -59991.5 -59991.8 -59992 -59992.3 -59992.6 -59992.9 -59993.2 -59993.5 -59993.8 -59994.1 -59994.4 -59994.7 -59995.1 -59995.4 -59995.7 -59996 -59996.3 -59996.7 -59997 -59997.3 -59997.6 -59997.9 -59998.2 -59998.6 -59998.9 -59999.2 -59999.4 -59999.7 -60000 -60000 -59999.9 -59999.8 -59999.7 -59999.7 -59999.5 -59999.4 -59999.3 -59999.2 -59999 -59998.9 -59998.7 -59998.6 -59998.4 -59998.2 -59998 -59997.8 -59997.6 -59997.4 -59997.2 -59996.9 -59996.7 -59996.5 -59996.2 -59996 -59995.8 -59995.5 -59995.3 -59995.1 -59994.8 -59994.6 -59994.4 -59994.1 -59993.9 -59993.7 -59993.5 -59993.2 -59993 -59992.8 -59992.6 -59992.4 -59992.2 -59992 -59991.8 -59991.6 -59991.4 -59991.2 -59991 -59990.8 -59990.7 -59990.5 -59990.3 -59990.2 -59990 -59989.9 -59989.7 -59989.6 -59989.5 -59989.4 -59989.2 -59989.1 -59989 -59988.9 -59988.8 -59988.8 -59988.7 -59988.6 -59988.6 -59988.5 -59988.5 -59988.5 -59988.4 -59988.4 -59988.4 -59988.4 -59988.4 -59988.5 -59988.5 -59988.5 -59988.6 -59988.7 -59988.7 -59988.8 -59988.9 -59989 -59989.1 -59989.2 -59989.4 -59989.5 -59989.7 -59989.8 -59990 -59990.2 -59990.4 -59990.6 -59990.8 -59991 -59991.2 -59991.5 -59991.7 -59991.9 -59992.2 -59992.5 -59992.7 -59993 -59993.3 -59993.6 -59993.9 -59994.2 -59994.5 -59994.8 -59995.1 -59995.4 -59995.7 -59996 -59996.3 -59996.6 -59997 -59997.3 -59997.6 -59997.9 -59998.2 -59998.5 -59998.8 -59999.1 -59999.4 -59999.7 -60000 -60000 -59999.9 -59999.9 -59999.8 -59999.7 -59999.6 -59999.5 -59999.4 -59999.3 -59999.1 -59999 -59998.9 -59998.7 -59998.6 -59998.4 -59998.2 -59998.1 -59997.9 -59997.7 -59997.5 -59997.3 -59997.1 -59996.8 -59996.6 -59996.4 -59996.2 -59996 -59995.7 -59995.5 -59995.3 -59995.1 -59994.9 -59994.6 -59994.4 -59994.2 -59994 -59993.8 -59993.6 -59993.4 -59993.2 -59993 -59992.8 -59992.6 -59992.4 -59992.2 -59992 -59991.8 -59991.6 -59991.5 -59991.3 -59991.1 -59991 -59990.8 -59990.7 -59990.5 -59990.4 -59990.3 -59990.1 -59990 -59989.9 -59989.8 -59989.7 -59989.6 -59989.5 -59989.4 -59989.3 -59989.3 -59989.2 -59989.2 -59989.1 -59989.1 -59989.1 -59989 -59989 -59989 -59989 -59989 -59989.1 -59989.1 -59989.1 -59989.2 -59989.3 -59989.3 -59989.4 -59989.5 -59989.6 -59989.7 -59989.8 -59989.9 -59990.1 -59990.2 -59990.4 -59990.5 -59990.7 -59990.9 -59991.1 -59991.3 -59991.5 -59991.7 -59991.9 -59992.2 -59992.4 -59992.6 -59992.9 -59993.2 -59993.4 -59993.7 -59994 -59994.2 -59994.5 -59994.8 -59995.1 -59995.4 -59995.7 -59996 -59996.3 -59996.6 -59996.9 -59997.3 -59997.6 -59997.9 -59998.2 -59998.5 -59998.8 -59999.1 -59999.4 -59999.7 -60000 -60000 -59999.9 -59999.9 -59999.8 -59999.7 -59999.6 -59999.5 -59999.4 -59999.3 -59999.2 -59999.1 -59999 -59998.9 -59998.7 -59998.6 -59998.4 -59998.3 -59998.1 -59997.9 -59997.7 -59997.6 -59997.4 -59997.2 -59997 -59996.8 -59996.6 -59996.4 -59996.2 -59995.9 -59995.7 -59995.5 -59995.3 -59995.1 -59994.9 -59994.7 -59994.5 -59994.3 -59994.1 -59993.9 -59993.7 -59993.5 -59993.3 -59993.1 -59992.9 -59992.8 -59992.6 -59992.4 -59992.2 -59992.1 -59991.9 -59991.8 -59991.6 -59991.4 -59991.3 -59991.2 -59991 -59990.9 -59990.8 -59990.6 -59990.5 -59990.4 -59990.3 -59990.2 -59990.1 -59990 -59990 -59989.9 -59989.8 -59989.8 -59989.7 -59989.7 -59989.7 -59989.6 -59989.6 -59989.6 -59989.6 -59989.6 -59989.6 -59989.7 -59989.7 -59989.7 -59989.8 -59989.8 -59989.9 -59990 -59990.1 -59990.2 -59990.3 -59990.4 -59990.5 -59990.6 -59990.8 -59990.9 -59991.1 -59991.2 -59991.4 -59991.6 -59991.8 -59992 -59992.2 -59992.4 -59992.6 -59992.8 -59993.1 -59993.3 -59993.6 -59993.8 -59994.1 -59994.4 -59994.6 -59994.9 -59995.2 -59995.5 -59995.8 -59996.1 -59996.4 -59996.7 -59997 -59997.3 -59997.6 -59997.9 -59998.2 -59998.5 -59998.8 -59999.1 -59999.4 -59999.7 -60000 -60000 -59999.9 -59999.9 -59999.8 -59999.7 -59999.7 -59999.6 -59999.5 -59999.4 -59999.3 -59999.2 -59999.1 -59999 -59998.8 -59998.7 -59998.6 -59998.4 -59998.3 -59998.1 -59998 -59997.8 -59997.6 -59997.5 -59997.3 -59997.1 -59996.9 -59996.7 -59996.5 -59996.3 -59996.1 -59995.9 -59995.7 -59995.6 -59995.4 -59995.2 -59995 -59994.8 -59994.6 -59994.4 -59994.2 -59994 -59993.8 -59993.7 -59993.5 -59993.3 -59993.1 -59993 -59992.8 -59992.6 -59992.5 -59992.3 -59992.2 -59992 -59991.9 -59991.8 -59991.6 -59991.5 -59991.4 -59991.2 -59991.1 -59991 -59990.9 -59990.8 -59990.7 -59990.7 -59990.6 -59990.5 -59990.4 -59990.4 -59990.3 -59990.3 -59990.2 -59990.2 -59990.2 -59990.2 -59990.2 -59990.2 -59990.2 -59990.2 -59990.2 -59990.2 -59990.3 -59990.3 -59990.4 -59990.5 -59990.5 -59990.6 -59990.7 -59990.8 -59990.9 -59991 -59991.2 -59991.3 -59991.4 -59991.6 -59991.7 -59991.9 -59992.1 -59992.3 -59992.5 -59992.7 -59992.9 -59993.1 -59993.3 -59993.5 -59993.8 -59994 -59994.2 -59994.5 -59994.7 -59995 -59995.3 -59995.6 -59995.8 -59996.1 -59996.4 -59996.7 -59997 -59997.3 -59997.6 -59997.9 -59998.2 -59998.5 -59998.8 -59999.1 -59999.4 -59999.7 -60000 -60000 -59999.9 -59999.9 -59999.8 -59999.8 -59999.7 -59999.6 -59999.5 -59999.5 -59999.4 -59999.3 -59999.2 -59999.1 -59999 -59998.8 -59998.7 -59998.6 -59998.5 -59998.3 -59998.2 -59998 -59997.9 -59997.7 -59997.5 -59997.4 -59997.2 -59997 -59996.9 -59996.7 -59996.5 -59996.3 -59996.1 -59996 -59995.8 -59995.6 -59995.4 -59995.2 -59995 -59994.9 -59994.7 -59994.5 -59994.3 -59994.2 -59994 -59993.8 -59993.7 -59993.5 -59993.3 -59993.2 -59993 -59992.9 -59992.7 -59992.6 -59992.5 -59992.3 -59992.2 -59992.1 -59991.9 -59991.8 -59991.7 -59991.6 -59991.5 -59991.4 -59991.3 -59991.2 -59991.2 -59991.1 -59991 -59991 -59990.9 -59990.9 -59990.8 -59990.8 -59990.7 -59990.7 -59990.7 -59990.7 -59990.7 -59990.7 -59990.7 -59990.8 -59990.8 -59990.8 -59990.9 -59990.9 -59991 -59991.1 -59991.1 -59991.2 -59991.3 -59991.4 -59991.5 -59991.7 -59991.8 -59991.9 -59992.1 -59992.2 -59992.4 -59992.6 -59992.7 -59992.9 -59993.1 -59993.3 -59993.5 -59993.7 -59993.9 -59994.2 -59994.4 -59994.6 -59994.9 -59995.1 -59995.4 -59995.7 -59995.9 -59996.2 -59996.5 -59996.7 -59997 -59997.3 -59997.6 -59997.9 -59998.2 -59998.5 -59998.8 -59999.1 -59999.4 -59999.7 -60000 -60000 -60000 -59999.9 -59999.8 -59999.8 -59999.7 -59999.7 -59999.6 -59999.5 -59999.4 -59999.3 -59999.3 -59999.2 -59999.1 -59999 -59998.8 -59998.7 -59998.6 -59998.5 -59998.4 -59998.2 -59998.1 -59997.9 -59997.8 -59997.6 -59997.5 -59997.3 -59997.2 -59997 -59996.8 -59996.7 -59996.5 -59996.3 -59996.1 -59996 -59995.8 -59995.6 -59995.5 -59995.3 -59995.1 -59995 -59994.8 -59994.6 -59994.5 -59994.3 -59994.1 -59994 -59993.8 -59993.7 -59993.5 -59993.4 -59993.3 -59993.1 -59993 -59992.9 -59992.7 -59992.6 -59992.5 -59992.4 -59992.3 -59992.2 -59992.1 -59992 -59991.9 -59991.8 -59991.7 -59991.6 -59991.6 -59991.5 -59991.5 -59991.4 -59991.4 -59991.3 -59991.3 -59991.3 -59991.2 -59991.2 -59991.2 -59991.2 -59991.2 -59991.3 -59991.3 -59991.3 -59991.4 -59991.4 -59991.5 -59991.5 -59991.6 -59991.7 -59991.7 -59991.8 -59991.9 -59992.1 -59992.2 -59992.3 -59992.4 -59992.6 -59992.7 -59992.9 -59993 -59993.2 -59993.4 -59993.6 -59993.7 -59993.9 -59994.2 -59994.4 -59994.6 -59994.8 -59995 -59995.3 -59995.5 -59995.8 -59996 -59996.3 -59996.5 -59996.8 -59997.1 -59997.4 -59997.6 -59997.9 -59998.2 -59998.5 -59998.8 -59999.1 -59999.4 -59999.7 -60000 -60000 -60000 -59999.9 -59999.9 -59999.8 -59999.7 -59999.7 -59999.6 -59999.5 -59999.5 -59999.4 -59999.3 -59999.2 -59999.1 -59999 -59999 -59998.8 -59998.7 -59998.6 -59998.5 -59998.4 -59998.3 -59998.1 -59998 -59997.9 -59997.7 -59997.6 -59997.4 -59997.3 -59997.1 -59997 -59996.8 -59996.7 -59996.5 -59996.3 -59996.2 -59996 -59995.9 -59995.7 -59995.5 -59995.4 -59995.2 -59995.1 -59994.9 -59994.8 -59994.6 -59994.5 -59994.3 -59994.2 -59994 -59993.9 -59993.8 -59993.6 -59993.5 -59993.4 -59993.2 -59993.1 -59993 -59992.9 -59992.8 -59992.7 -59992.6 -59992.5 -59992.4 -59992.3 -59992.2 -59992.2 -59992.1 -59992 -59992 -59991.9 -59991.9 -59991.8 -59991.8 -59991.8 -59991.8 -59991.7 -59991.7 -59991.7 -59991.7 -59991.7 -59991.8 -59991.8 -59991.8 -59991.9 -59991.9 -59992 -59992 -59992.1 -59992.2 -59992.2 -59992.3 -59992.4 -59992.5 -59992.6 -59992.8 -59992.9 -59993 -59993.2 -59993.3 -59993.5 -59993.6 -59993.8 -59994 -59994.2 -59994.4 -59994.6 -59994.8 -59995 -59995.2 -59995.4 -59995.7 -59995.9 -59996.1 -59996.4 -59996.6 -59996.9 -59997.2 -59997.4 -59997.7 -59998 -59998.3 -59998.5 -59998.8 -59999.1 -59999.4 -59999.7 -60000 -60000 -60000 -59999.9 -59999.9 -59999.8 -59999.8 -59999.7 -59999.7 -59999.6 -59999.5 -59999.5 -59999.4 -59999.3 -59999.2 -59999.1 -59999 -59999 -59998.9 -59998.8 -59998.6 -59998.5 -59998.4 -59998.3 -59998.2 -59998.1 -59997.9 -59997.8 -59997.7 -59997.5 -59997.4 -59997.2 -59997.1 -59997 -59996.8 -59996.7 -59996.5 -59996.4 -59996.2 -59996.1 -59995.9 -59995.8 -59995.6 -59995.5 -59995.3 -59995.2 -59995 -59994.9 -59994.8 -59994.6 -59994.5 -59994.3 -59994.2 -59994.1 -59994 -59993.8 -59993.7 -59993.6 -59993.5 -59993.4 -59993.3 -59993.2 -59993.1 -59993 -59992.9 -59992.8 -59992.8 -59992.7 -59992.6 -59992.5 -59992.5 -59992.4 -59992.4 -59992.3 -59992.3 -59992.3 -59992.3 -59992.2 -59992.2 -59992.2 -59992.2 -59992.2 -59992.2 -59992.2 -59992.3 -59992.3 -59992.3 -59992.4 -59992.4 -59992.5 -59992.6 -59992.6 -59992.7 -59992.8 -59992.9 -59993 -59993.1 -59993.2 -59993.4 -59993.5 -59993.6 -59993.8 -59993.9 -59994.1 -59994.2 -59994.4 -59994.6 -59994.8 -59995 -59995.2 -59995.4 -59995.6 -59995.8 -59996 -59996.3 -59996.5 -59996.7 -59997 -59997.2 -59997.5 -59997.8 -59998 -59998.3 -59998.6 -59998.8 -59999.1 -59999.4 -59999.7 -60000 -60000 -60000 -59999.9 -59999.9 -59999.8 -59999.8 -59999.7 -59999.7 -59999.6 -59999.6 -59999.5 -59999.4 -59999.4 -59999.3 -59999.2 -59999.1 -59999 -59999 -59998.9 -59998.8 -59998.7 -59998.6 -59998.5 -59998.4 -59998.2 -59998.1 -59998 -59997.9 -59997.8 -59997.6 -59997.5 -59997.4 -59997.2 -59997.1 -59997 -59996.8 -59996.7 -59996.5 -59996.4 -59996.3 -59996.1 -59996 -59995.8 -59995.7 -59995.6 -59995.4 -59995.3 -59995.2 -59995 -59994.9 -59994.8 -59994.7 -59994.5 -59994.4 -59994.3 -59994.2 -59994.1 -59994 -59993.9 -59993.8 -59993.7 -59993.6 -59993.5 -59993.4 -59993.3 -59993.2 -59993.2 -59993.1 -59993 -59993 -59992.9 -59992.9 -59992.8 -59992.8 -59992.8 -59992.7 -59992.7 -59992.7 -59992.7 -59992.7 -59992.7 -59992.7 -59992.7 -59992.7 -59992.7 -59992.8 -59992.8 -59992.9 -59992.9 -59993 -59993 -59993.1 -59993.2 -59993.3 -59993.4 -59993.5 -59993.6 -59993.7 -59993.8 -59993.9 -59994.1 -59994.2 -59994.3 -59994.5 -59994.7 -59994.8 -59995 -59995.2 -59995.4 -59995.6 -59995.8 -59996 -59996.2 -59996.4 -59996.6 -59996.9 -59997.1 -59997.3 -59997.6 -59997.8 -59998.1 -59998.3 -59998.6 -59998.9 -59999.2 -59999.4 -59999.7 -60000 -60000 -60000 -59999.9 -59999.9 -59999.8 -59999.8 -59999.8 -59999.7 -59999.7 -59999.6 -59999.5 -59999.5 -59999.4 -59999.4 -59999.3 -59999.2 -59999.1 -59999.1 -59999 -59998.9 -59998.8 -59998.7 -59998.6 -59998.5 -59998.4 -59998.3 -59998.2 -59998.1 -59998 -59997.8 -59997.7 -59997.6 -59997.5 -59997.4 -59997.2 -59997.1 -59997 -59996.8 -59996.7 -59996.6 -59996.5 -59996.3 -59996.2 -59996.1 -59995.9 -59995.8 -59995.7 -59995.6 -59995.4 -59995.3 -59995.2 -59995.1 -59995 -59994.8 -59994.7 -59994.6 -59994.5 -59994.4 -59994.3 -59994.2 -59994.1 -59994 -59993.9 -59993.9 -59993.8 -59993.7 -59993.6 -59993.6 -59993.5 -59993.4 -59993.4 -59993.3 -59993.3 -59993.2 -59993.2 -59993.2 -59993.2 -59993.1 -59993.1 -59993.1 -59993.1 -59993.1 -59993.1 -59993.1 -59993.2 -59993.2 -59993.2 -59993.3 -59993.3 -59993.4 -59993.4 -59993.5 -59993.5 -59993.6 -59993.7 -59993.8 -59993.9 -59994 -59994.1 -59994.2 -59994.3 -59994.5 -59994.6 -59994.8 -59994.9 -59995.1 -59995.2 -59995.4 -59995.6 -59995.8 -59995.9 -59996.1 -59996.3 -59996.5 -59996.8 -59997 -59997.2 -59997.4 -59997.7 -59997.9 -59998.1 -59998.4 -59998.6 -59998.9 -59999.2 -59999.4 -59999.7 -60000 -60000 -60000 -59999.9 -59999.9 -59999.9 -59999.8 -59999.8 -59999.7 -59999.7 -59999.6 -59999.6 -59999.5 -59999.5 -59999.4 -59999.3 -59999.3 -59999.2 -59999.1 -59999.1 -59999 -59998.9 -59998.8 -59998.7 -59998.6 -59998.5 -59998.4 -59998.3 -59998.2 -59998.1 -59998 -59997.9 -59997.8 -59997.7 -59997.6 -59997.5 -59997.4 -59997.2 -59997.1 -59997 -59996.9 -59996.8 -59996.6 -59996.5 -59996.4 -59996.3 -59996.2 -59996 -59995.9 -59995.8 -59995.7 -59995.6 -59995.5 -59995.3 -59995.2 -59995.1 -59995 -59994.9 -59994.8 -59994.7 -59994.6 -59994.5 -59994.5 -59994.4 -59994.3 -59994.2 -59994.1 -59994.1 -59994 -59993.9 -59993.9 -59993.8 -59993.8 -59993.7 -59993.7 -59993.7 -59993.6 -59993.6 -59993.6 -59993.6 -59993.5 -59993.5 -59993.5 -59993.5 -59993.6 -59993.6 -59993.6 -59993.6 -59993.7 -59993.7 -59993.7 -59993.8 -59993.8 -59993.9 -59994 -59994.1 -59994.1 -59994.2 -59994.3 -59994.4 -59994.5 -59994.6 -59994.8 -59994.9 -59995 -59995.2 -59995.3 -59995.4 -59995.6 -59995.8 -59995.9 -59996.1 -59996.3 -59996.5 -59996.7 -59996.9 -59997.1 -59997.3 -59997.5 -59997.7 -59998 -59998.2 -59998.5 -59998.7 -59998.9 -59999.2 -59999.5 -59999.7 -60000 -60000 -60000 -59999.9 -59999.9 -59999.9 -59999.8 -59999.8 -59999.8 -59999.7 -59999.7 -59999.6 -59999.6 -59999.5 -59999.5 -59999.4 -59999.3 -59999.3 -59999.2 -59999.1 -59999.1 -59999 -59998.9 -59998.8 -59998.8 -59998.7 -59998.6 -59998.5 -59998.4 -59998.3 -59998.2 -59998.1 -59998 -59997.9 -59997.8 -59997.7 -59997.6 -59997.5 -59997.4 -59997.3 -59997.2 -59997 -59996.9 -59996.8 -59996.7 -59996.6 -59996.5 -59996.4 -59996.3 -59996.1 -59996 -59995.9 -59995.8 -59995.7 -59995.6 -59995.5 -59995.4 -59995.3 -59995.2 -59995.1 -59995 -59994.9 -59994.9 -59994.8 -59994.7 -59994.6 -59994.6 -59994.5 -59994.4 -59994.4 -59994.3 -59994.2 -59994.2 -59994.2 -59994.1 -59994.1 -59994 -59994 -59994 -59994 -59994 -59993.9 -59993.9 -59993.9 -59994 -59994 -59994 -59994 -59994 -59994.1 -59994.1 -59994.1 -59994.2 -59994.3 -59994.3 -59994.4 -59994.5 -59994.5 -59994.6 -59994.7 -59994.8 -59994.9 -59995 -59995.1 -59995.3 -59995.4 -59995.5 -59995.7 -59995.8 -59996 -59996.1 -59996.3 -59996.5 -59996.6 -59996.8 -59997 -59997.2 -59997.4 -59997.6 -59997.8 -59998.1 -59998.3 -59998.5 -59998.7 -59999 -59999.2 -59999.5 -59999.7 -60000 -60000 -60000 -59999.9 -59999.9 -59999.9 -59999.8 -59999.8 -59999.8 -59999.7 -59999.7 -59999.6 -59999.6 -59999.6 -59999.5 -59999.4 -59999.4 -59999.3 -59999.3 -59999.2 -59999.1 -59999.1 -59999 -59998.9 -59998.9 -59998.8 -59998.7 -59998.6 -59998.5 -59998.5 -59998.4 -59998.3 -59998.2 -59998.1 -59998 -59997.9 -59997.8 -59997.7 -59997.6 -59997.5 -59997.4 -59997.3 -59997.2 -59997.1 -59997 -59996.9 -59996.8 -59996.7 -59996.6 -59996.5 -59996.4 -59996.3 -59996.2 -59996.1 -59996 -59995.9 -59995.8 -59995.7 -59995.6 -59995.5 -59995.4 -59995.3 -59995.2 -59995.2 -59995.1 -59995 -59994.9 -59994.9 -59994.8 -59994.8 -59994.7 -59994.6 -59994.6 -59994.6 -59994.5 -59994.5 -59994.4 -59994.4 -59994.4 -59994.4 -59994.3 -59994.3 -59994.3 -59994.3 -59994.3 -59994.3 -59994.4 -59994.4 -59994.4 -59994.4 -59994.5 -59994.5 -59994.5 -59994.6 -59994.6 -59994.7 -59994.8 -59994.8 -59994.9 -59995 -59995.1 -59995.2 -59995.3 -59995.4 -59995.5 -59995.6 -59995.8 -59995.9 -59996 -59996.2 -59996.3 -59996.5 -59996.6 -59996.8 -59997 -59997.2 -59997.3 -59997.5 -59997.7 -59997.9 -59998.1 -59998.4 -59998.6 -59998.8 -59999 -59999.3 -59999.5 -59999.7 -60000 -60000 -60000 -59999.9 -59999.9 -59999.9 -59999.9 -59999.8 -59999.8 -59999.8 -59999.7 -59999.7 -59999.6 -59999.6 -59999.5 -59999.5 -59999.4 -59999.4 -59999.3 -59999.3 -59999.2 -59999.2 -59999.1 -59999 -59999 -59998.9 -59998.8 -59998.7 -59998.7 -59998.6 -59998.5 -59998.4 -59998.3 -59998.3 -59998.2 -59998.1 -59998 -59997.9 -59997.8 -59997.7 -59997.6 -59997.5 -59997.4 -59997.3 -59997.2 -59997.1 -59997 -59996.9 -59996.8 -59996.7 -59996.7 -59996.6 -59996.5 -59996.4 -59996.3 -59996.2 -59996.1 -59996 -59995.9 -59995.8 -59995.8 -59995.7 -59995.6 -59995.5 -59995.5 -59995.4 -59995.3 -59995.3 -59995.2 -59995.1 -59995.1 -59995 -59995 -59994.9 -59994.9 -59994.9 -59994.8 -59994.8 -59994.8 -59994.7 -59994.7 -59994.7 -59994.7 -59994.7 -59994.7 -59994.7 -59994.7 -59994.7 -59994.7 -59994.8 -59994.8 -59994.8 -59994.9 -59994.9 -59995 -59995 -59995.1 -59995.1 -59995.2 -59995.3 -59995.4 -59995.5 -59995.6 -59995.7 -59995.8 -59995.9 -59996 -59996.1 -59996.2 -59996.4 -59996.5 -59996.7 -59996.8 -59997 -59997.1 -59997.3 -59997.5 -59997.7 -59997.8 -59998 -59998.2 -59998.4 -59998.6 -59998.8 -59999.1 -59999.3 -59999.5 -59999.8 -60000 -60000 -60000 -60000 -59999.9 -59999.9 -59999.9 -59999.8 -59999.8 -59999.8 -59999.7 -59999.7 -59999.7 -59999.6 -59999.6 -59999.5 -59999.5 -59999.4 -59999.4 -59999.3 -59999.3 -59999.2 -59999.2 -59999.1 -59999.1 -59999 -59998.9 -59998.9 -59998.8 -59998.7 -59998.6 -59998.6 -59998.5 -59998.4 -59998.3 -59998.2 -59998.2 -59998.1 -59998 -59997.9 -59997.8 -59997.7 -59997.6 -59997.6 -59997.5 -59997.4 -59997.3 -59997.2 -59997.1 -59997 -59996.9 -59996.8 -59996.8 -59996.7 -59996.6 -59996.5 -59996.4 -59996.3 -59996.2 -59996.2 -59996.1 -59996 -59995.9 -59995.9 -59995.8 -59995.7 -59995.7 -59995.6 -59995.5 -59995.5 -59995.4 -59995.4 -59995.3 -59995.3 -59995.3 -59995.2 -59995.2 -59995.1 -59995.1 -59995.1 -59995.1 -59995.1 -59995.1 -59995 -59995 -59995 -59995.1 -59995.1 -59995.1 -59995.1 -59995.1 -59995.2 -59995.2 -59995.2 -59995.3 -59995.3 -59995.4 -59995.4 -59995.5 -59995.6 -59995.6 -59995.7 -59995.8 -59995.9 -59996 -59996.1 -59996.2 -59996.3 -59996.4 -59996.6 -59996.7 -59996.8 -59997 -59997.1 -59997.3 -59997.4 -59997.6 -59997.8 -59997.9 -59998.1 -59998.3 -59998.5 -59998.7 -59998.9 -59999.1 -59999.3 -59999.5 -59999.8 -60000 -60000 -60000 -60000 -59999.9 -59999.9 -59999.9 -59999.9 -59999.8 -59999.8 -59999.8 -59999.7 -59999.7 -59999.7 -59999.6 -59999.6 -59999.5 -59999.5 -59999.4 -59999.4 -59999.3 -59999.3 -59999.2 -59999.2 -59999.1 -59999.1 -59999 -59999 -59998.9 -59998.8 -59998.8 -59998.7 -59998.6 -59998.5 -59998.5 -59998.4 -59998.3 -59998.2 -59998.2 -59998.1 -59998 -59997.9 -59997.8 -59997.8 -59997.7 -59997.6 -59997.5 -59997.4 -59997.3 -59997.3 -59997.2 -59997.1 -59997 -59996.9 -59996.9 -59996.8 -59996.7 -59996.6 -59996.5 -59996.5 -59996.4 -59996.3 -59996.3 -59996.