<?xml version="1.0"?> 
<VTKFile type="StructuredGrid" version="0.1"> 
<StructuredGrid WholeExtent="0 127 0 127 0 0"> 
<Piece Extent="0 127 0 127 0 0"> 
<PointData>
<DataArray type="Float32" Name="u" format="ascii" NumberOfComponents="1"> 
-200000 -197781 -195598 -193449 -191331 -189241 -187178 -185141 -183128 -181137 -179169 -177222 -175294 -173385 -171494 -169620 -167763 -165921 -164094 -162282 -160484 -158699 -156927 -155167 -153419 -151682 -149956 -148241 -146536 -144841 -143156 -141479 -139812 -138153 -136502 -134860 -133225 -131598 -129978 -128365 -126759 -125159 -123566 -121979 -120399 -118824 -117255 -115691 -114133 -112580 -111032 -109489 -107951 -106418 -104889 -103365 -101844 -100328 -98816.6 -97308.7 -95804.6 -94304.3 -92807.6 -91314.5 -89824.9 -88338.6 -86855.6 -85375.8 -83899.1 -82425.4 -80954.7 -79486.8 -78021.7 -76559.3 -75099.5 -73642.3 -72187.6 -70735.3 -69285.4 -67837.8 -66392.4 -64949.1 -63508 -62068.9 -60631.8 -59196.6 -57763.3 -56331.8 -54902 -53474 -52047.6 -50622.8 -49199.5 -47777.7 -46357.4 -44938.5 -43520.9 -42104.6 -40689.6 -39275.7 -37863 -36451.5 -35041 -33631.5 -32223 -30815.4 -29408.7 -28002.9 -26597.8 -25193.5 -23790 -22387.1 -20984.8 -19583.2 -18182.1 -16781.5 -15381.4 -13981.7 -12582.4 -11183.5 -9784.86 -8386.52 -6988.41 -5590.49 -4192.73 -2795.09 -1397.53 0 -200000 -197753 -195547 -193376 -191236 -189126 -187044 -184988 -182957 -180949 -178964 -177000 -175056 -173132 -171226 -169337 -167466 -165610 -163770 -161945 -160135 -158338 -156554 -154783 -153024 -151277 -149541 -147816 -146102 -144398 -142703 -141019 -139343 -137677 -136019 -134369 -132728 -131094 -129468 -127850 -126238 -124634 -123036 -121445 -119860 -118281 -116709 -115142 -113581 -112025 -110475 -108930 -107390 -105855 -104325 -102799 -101278 -99761.9 -98249.8 -96741.9 -95238.1 -93738.3 -92242.4 -90750.4 -89262 -87777.3 -86296.1 -84818.4 -83343.9 -81872.8 -80404.8 -78940 -77478.2 -76019.3 -74563.3 -73110.1 -71659.7 -70211.9 -68766.7 -67324 -65883.8 -64446 -63010.6 -61577.4 -60146.4 -58717.6 -57290.9 -55866.2 -54443.6 -53022.8 -51604 -50187 -48771.7 -47358.2 -45946.4 -44536.1 -43127.5 -41720.4 -40314.7 -38910.5 -37507.7 -36106.3 -34706.1 -33307.2 -31909.5 -30512.9 -29117.5 -27723.1 -26329.8 -24937.5 -23546.2 -22155.7 -20766.1 -19377.4 -17989.4 -16602.2 -15215.7 -13829.9 -12444.7 -11060.1 -9676.06 -8292.53 -6909.48 -5526.86 -4144.64 -2762.78 -1381.25 0 -200000 -197726 -195496 -193303 -191142 -189011 -186909 -184834 -182784 -180759 -178756 -176775 -174815 -172875 -170953 -169050 -167164 -165295 -163441 -161603 -159780 -157970 -156175 -154392 -152622 -150864 -149118 -147383 -145660 -143946 -142243 -140550 -138867 -137192 -135527 -133871 -132222 -130582 -128950 -127326 -125709 -124099 -122497 -120901 -119312 -117730 -116153 -114583 -113019 -111461 -109908 -108361 -106819 -105282 -103751 -102224 -100702 -99185.4 -97673 -96165.1 -94661.6 -93162.3 -91667.3 -90176.2 -88689.2 -87206 -85726.6 -84251 -82778.9 -81310.3 -79845.2 -78383.4 -76924.9 -75469.6 -74017.4 -72568.3 -71122.1 -69678.9 -68238.4 -66800.8 -65365.9 -63933.6 -62503.9 -61076.7 -59652 -58229.6 -56809.6 -55391.9 -53976.4 -52563.1 -51151.9 -49742.8 -48335.7 -46930.6 -45527.3 -44125.9 -42726.4 -41328.6 -39932.5 -38538.1 -37145.3 -35754.1 -34364.5 -32976.3 -31589.6 -30204.3 -28820.3 -27437.7 -26056.3 -24676.2 -23297.2 -21919.5 -20542.8 -19167.2 -17792.7 -16419.1 -15046.5 -13674.8 -12304 -10934 -9564.85 -8196.45 -6828.77 -5461.79 -4095.45 -2729.74 -1364.6 0 -200000 -197700 -195446 -193230 -191047 -188895 -186773 -184679 -182610 -180566 -178546 -176547 -174571 -172614 -170677 -168758 -166858 -164974 -163107 -161255 -159419 -157597 -155789 -153995 -152214 -150445 -148688 -146944 -145210 -143488 -141776 -140074 -138382 -136700 -135027 -133363 -131708 -130062 -128424 -126793 -125171 -123556 -121948 -120348 -118755 -117168 -115588 -114015 -112447 -110886 -109331 -107782 -106238 -104700 -103167 -101639 -100116 -98598.9 -97086.3 -95578.4 -94075.1 -92576.4 -91082.1 -89592.1 -88106.4 -86624.8 -85147.3 -83673.6 -82203.9 -80737.9 -79275.7 -77817 -76361.8 -74910.1 -73461.8 -72016.8 -70575 -69136.3 -67700.8 -66268.3 -64838.7 -63412 -61988.1 -60567 -59148.6 -57732.8 -56319.6 -54908.9 -53500.8 -52095 -50691.6 -49290.5 -47891.6 -46495 -45100.5 -43708.1 -42317.7 -40929.4 -39543.1 -38158.6 -36776 -35395.3 -34016.3 -32639 -31263.5 -29889.6 -28517.3 -27146.6 -25777.4 -24409.6 -23043.4 -21678.5 -20315 -18952.8 -17591.9 -16232.2 -14873.8 -13516.5 -12160.3 -10805.3 -9451.29 -8098.33 -6746.35 -5395.32 -4045.21 -2695.97 -1347.58 0 -200000 -197675 -195396 -193156 -190951 -188779 -186636 -184521 -182433 -180371 -178332 -176316 -174322 -172349 -170396 -168462 -166546 -164648 -162767 -160901 -159052 -157217 -155397 -153591 -151798 -150019 -148251 -146496 -144753 -143021 -141300 -139589 -137889 -136199 -134519 -132847 -131185 -129532 -127888 -126252 -124623 -123003 -121391 -119786 -118188 -116597 -115014 -113437 -111866 -110302 -108745 -107193 -105647 -104107 -102573 -101044 -99520.7 -98002.6 -96489.6 -94981.7 -93478.7 -91980.5 -90487 -88998.1 -87513.7 -86033.7 -84558 -83086.5 -81619.2 -80155.8 -78696.4 -77240.9 -75789.2 -74341.1 -72896.7 -71455.9 -70018.5 -68584.5 -67153.9 -65726.5 -64302.3 -62881.3 -61463.3 -60048.4 -58636.4 -57227.3 -55821 -54417.5 -53016.7 -51618.5 -50223 -48830 -47439.6 -46051.6 -44665.9 -43282.7 -41901.7 -40523 -39146.5 -37772.2 -36400 -35029.8 -33661.7 -32295.5 -30931.4 -29569.1 -28208.6 -26850 -25493.2 -24138 -22784.6 -21432.9 -20082.7 -18734.2 -17387.2 -16041.7 -14697.6 -13355 -12013.8 -10674 -9335.47 -7998.24 -6662.27 -5327.51 -3993.94 -2661.52 -1330.22 0 -200000 -197649 -195346 -193083 -190855 -188661 -186497 -184362 -182254 -180173 -178115 -176082 -174070 -172080 -170111 -168161 -166230 -164317 -162421 -160542 -158679 -156831 -154999 -153181 -151376 -149585 -147807 -146042 -144288 -142546 -140816 -139097 -137388 -135690 -134001 -132323 -130654 -128994 -127343 -125701 -124067 -122441 -120824 -119214 -117612 -116017 -114430 -112849 -111276 -109709 -108148 -106594 -105047 -103505 -101969 -100439 -98915.1 -97396.4 -95883.1 -94375.2 -92872.5 -91374.8 -89882.1 -88394.3 -86911.2 -85432.8 -83959 -82489.7 -81024.7 -79564.1 -78107.6 -76655.3 -75207 -73762.7 -72322.2 -70885.6 -69452.7 -68023.4 -66597.8 -65175.7 -63757 -62341.7 -60929.8 -59521.1 -58115.6 -56713.2 -55313.9 -53917.7 -52524.4 -51134 -49746.5 -48361.8 -46979.8 -45600.6 -44224 -42850 -41478.5 -40109.6 -38743.1 -37379 -36017.3 -34658 -33300.9 -31946 -30593.4 -29242.9 -27894.5 -26548.2 -25203.9 -23861.6 -22521.3 -21182.9 -19846.3 -18511.7 -17178.8 -15847.7 -14518.3 -13190.6 -11864.6 -10540.3 -9217.49 -7896.28 -6576.6 -5258.42 -3941.7 -2626.41 -1312.52 0 -200000 -197624 -195296 -193009 -190758 -188542 -186356 -184201 -182073 -179972 -177896 -175843 -173814 -171807 -169821 -167855 -165908 -163980 -162070 -160176 -158300 -156439 -154594 -152763 -150947 -149144 -147355 -145579 -143815 -142064 -140324 -138596 -136879 -135172 -133476 -131790 -130113 -128447 -126789 -125141 -123501 -121870 -120248 -118633 -117026 -115427 -113836 -112252 -110675 -109105 -107542 -105986 -104436 -102893 -101356 -99824.7 -98299.7 -96780.4 -95266.9 -93758.9 -92256.5 -90759.4 -89267.5 -87780.8 -86299.1 -84822.4 -83350.5 -81883.3 -80420.8 -78962.9 -77509.4 -76060.3 -74615.5 -73175 -71738.6 -70306.2 -68877.9 -67453.4 -66032.8 -64616 -63202.9 -61793.5 -60387.6 -58985.3 -57586.4 -56190.9 -54798.7 -53409.8 -52024.2 -50641.7 -49262.3 -47885.9 -46512.6 -45142.3 -43774.8 -42410.2 -41048.4 -39689.4 -38333.1 -36979.4 -35628.4 -34280 -32934.1 -31590.7 -30249.8 -28911.2 -27575.1 -26241.3 -24909.8 -23580.5 -22253.5 -20928.6 -19605.9 -18285.3 -16966.8 -15650.4 -14335.9 -13023.4 -11712.9 -10404.2 -9097.47 -7792.55 -6489.44 -5188.11 -3888.54 -2590.68 -1294.51 0 -200000 -197599 -195245 -192934 -190660 -188421 -186214 -184037 -181889 -179767 -177672 -175601 -173554 -171529 -169526 -167544 -165581 -163637 -161712 -159805 -157914 -156040 -154182 -152338 -150510 -148696 -146896 -145109 -143335 -141573 -139824 -138087 -136361 -134646 -132941 -131248 -129564 -127890 -126226 -124572 -122926 -121290 -119662 -118043 -116431 -114828 -113233 -111645 -110065 -108493 -106927 -105368 -103816 -102271 -100733 -99200.6 -97674.6 -96154.8 -94641 -93133.1 -91630.9 -90134.4 -88643.4 -87157.8 -85677.5 -84202.5 -82732.5 -81267.6 -79807.6 -78352.4 -76902 -75456.2 -74015 -72578.2 -71145.9 -69717.9 -68294.2 -66874.7 -65459.2 -64047.8 -62640.4 -61236.9 -59837.2 -58441.3 -57049.1 -55660.5 -54275.6 -52894.2 -51516.3 -50141.8 -48770.6 -47402.8 -46038.2 -44676.9 -43318.7 -41963.7 -40611.7 -39262.7 -37916.7 -36573.6 -35233.5 -33896.1 -32561.6 -31229.9 -29900.8 -28574.4 -27250.7 -25929.6 -24611 -23295 -21981.5 -20670.4 -19361.7 -18055.4 -16751.5 -15449.9 -14150.6 -12853.5 -11558.7 -10266 -8975.51 -7687.14 -6400.87 -5116.67 -3834.51 -2554.37 -1276.2 0 -200000 -197573 -195195 -192859 -190561 -188299 -186069 -183871 -181702 -179560 -177445 -175355 -173290 -171247 -169227 -167227 -165248 -163289 -161349 -159427 -157522 -155634 -153763 -151907 -150066 -148240 -146429 -144631 -142846 -141075 -139316 -137569 -135834 -134111 -132398 -130697 -129006 -127325 -125655 -123994 -122342 -120700 -119067 -117443 -115827 -114220 -112621 -111029 -109446 -107870 -106302 -104741 -103187 -101640 -100100 -98566.9 -97040.1 -95519.7 -94005.7 -92497.8 -90995.9 -89500 -88009.9 -86525.5 -85046.7 -83573.3 -82105.4 -80642.7 -79185.3 -77732.9 -76285.6 -74843.2 -73405.6 -71972.7 -70544.6 -69121.1 -67702 -66287.4 -64877.2 -63471.3 -62069.7 -60672.2 -59278.7 -57889.4 -56504 -55122.5 -53744.9 -52371.1 -51001 -49634.6 -48271.8 -46912.6 -45557 -44204.8 -42856 -41510.7 -40168.6 -38829.8 -37494.3 -36162 -34832.8 -33506.7 -32183.7 -30863.8 -29546.8 -28232.8 -26921.6 -25613.4 -24308 -23005.3 -21705.5 -20408.4 -19113.9 -17822.2 -16533.1 -15246.5 -13962.6 -12681.1 -11402.2 -10125.8 -8851.76 -7580.19 -6311 -5044.18 -3779.69 -2517.52 -1257.63 0 -200000 -197547 -195143 -192782 -190460 -188175 -185923 -183702 -181511 -179349 -177214 -175105 -173021 -170960 -168922 -166906 -164910 -162935 -160979 -159042 -157123 -155221 -153337 -151468 -149615 -147777 -145954 -144145 -142350 -140568 -138799 -137043 -135299 -133567 -131847 -130137 -128439 -126751 -125074 -123407 -121749 -120101 -118463 -116834 -115213 -113602 -111999 -110404 -108817 -107239 -105668 -104104 -102548 -101000 -99458.4 -97923.9 -96396.3 -94875.4 -93361.1 -91853.3 -90351.8 -88856.5 -87367.3 -85884.1 -84406.8 -82935.2 -81469.3 -80009 -78554.2 -77104.7 -75660.5 -74221.5 -72787.6 -71358.8 -69934.9 -68515.9 -67101.6 -65692.1 -64287.2 -62886.9 -61491 -60099.7 -58712.6 -57329.9 -55951.4 -54577.1 -53206.9 -51840.8 -50478.7 -49120.5 -47766.3 -46415.8 -45069.2 -43726.3 -42387.1 -41051.5 -39719.6 -38391.2 -37066.2 -35744.8 -34426.8 -33112.1 -31800.8 -30492.8 -29188 -27886.5 -26588.1 -25292.9 -24000.8 -22711.8 -21425.8 -20142.9 -18862.9 -17585.8 -16311.7 -15040.4 -13772 -12506.5 -11243.7 -9983.65 -8726.38 -7471.81 -6219.94 -4970.72 -3724.14 -2480.18 -1238.81 0 -200000 -197521 -195091 -192705 -190358 -188049 -185773 -183530 -181318 -179135 -176980 -174851 -172747 -170668 -168612 -166578 -164566 -162575 -160604 -158651 -156718 -154802 -152903 -151022 -149156 -147306 -145471 -143651 -141845 -140053 -138274 -136509 -134756 -133015 -131286 -129569 -127863 -126168 -124484 -122811 -121147 -119494 -117850 -116216 -114591 -112975 -111368 -109769 -108179 -106598 -105024 -103458 -101901 -100350 -98807.4 -97271.9 -95743.5 -94222.1 -92707.6 -91199.9 -89698.7 -88204.1 -86715.9 -85234 -83758.2 -82288.5 -80824.7 -79366.8 -77914.6 -76468.1 -75027.1 -73591.6 -72161.5 -70736.7 -69317.1 -67902.7 -66493.3 -65088.9 -63689.4 -62294.8 -60904.9 -59519.8 -58139.2 -56763.2 -55391.8 -54024.8 -52662.1 -51303.8 -49949.8 -48600 -47254.3 -45912.8 -44575.3 -43241.8 -41912.3 -40586.7 -39264.9 -37947 -36632.8 -35322.4 -34015.7 -32712.6 -31413.1 -30117.2 -28824.9 -27536 -26250.6 -24968.6 -23690 -22414.7 -21142.8 -19874.2 -18608.8 -17346.6 -16087.7 -14831.9 -13579.2 -12329.7 -11083.2 -9839.85 -8599.5 -7362.16 -6127.8 -4896.4 -3667.94 -2442.41 -1219.77 0 -200000 -197494 -195038 -192626 -190254 -187921 -185622 -183356 -181122 -178917 -176741 -174592 -172469 -170371 -168297 -166246 -164217 -162209 -160221 -158254 -156306 -154376 -152463 -150568 -148690 -146828 -144981 -143150 -141333 -139530 -137742 -135966 -134204 -132454 -130717 -128992 -127279 -125577 -123886 -122206 -120536 -118877 -117228 -115589 -113959 -112339 -110728 -109126 -107533 -105948 -104372 -102804 -101244 -99691.9 -98147.6 -96611 -95081.9 -93560 -92045.4 -90537.8 -89037.1 -87543.2 -86056 -84575.4 -83101.2 -81633.4 -80171.7 -78716.3 -77266.8 -75823.3 -74385.7 -72953.8 -71527.5 -70106.9 -68691.7 -67282 -65877.5 -64478.4 -63084.4 -61695.5 -60311.7 -58932.8 -57558.9 -56189.8 -54825.4 -53465.8 -52110.8 -50760.5 -49414.6 -48073.3 -46736.4 -45403.8 -44075.6 -42751.7 -41432 -40116.5 -38805.1 -37497.8 -36194.5 -34895.3 -33600 -32308.6 -31021.1 -29737.5 -28457.7 -27181.6 -25909.3 -24640.7 -23375.7 -22114.4 -20856.7 -19602.5 -18351.9 -17104.9 -15861.2 -14621.1 -13384.4 -12151.1 -10921.1 -9694.55 -8471.3 -7251.36 -6034.71 -4821.32 -3611.17 -2404.25 -1200.53 0 -200000 -197467 -194984 -192546 -190149 -187790 -185468 -183179 -180922 -178695 -176498 -174329 -172186 -170069 -167976 -165907 -163861 -161836 -159833 -157850 -155887 -153942 -152016 -150108 -148216 -146342 -144483 -142640 -140812 -138999 -137200 -135415 -133644 -131886 -130140 -128407 -126686 -124977 -123279 -121592 -119917 -118252 -116597 -114953 -113319 -111694 -110079 -108474 -106877 -105290 -103711 -102140 -100579 -99024.9 -97479.3 -95941.6 -94411.7 -92889.5 -91374.7 -89867.3 -88367.1 -86874 -85387.9 -83908.7 -82436.1 -80970.3 -79510.9 -78058 -76611.3 -75170.9 -73736.7 -72308.4 -70886.1 -69469.7 -68059 -66654 -65254.7 -63860.8 -62472.5 -61089.5 -59711.8 -58339.3 -56972.1 -55609.9 -54252.8 -52900.7 -51553.5 -50211.2 -48873.7 -47540.9 -46212.9 -44889.5 -43570.7 -42256.4 -40946.7 -39641.4 -38340.5 -37043.9 -35751.7 -34463.8 -33180.1 -31900.6 -30625.2 -29354 -28086.8 -26823.7 -25564.7 -24309.6 -23058.4 -21811.2 -20567.8 -19328.3 -18092.7 -16860.8 -15632.7 -14408.4 -13187.7 -11970.8 -10757.5 -9547.93 -8341.95 -7139.58 -5940.79 -4745.57 -3553.9 -2365.76 -1181.13 0 -200000 -197439 -194929 -192464 -190042 -187658 -185311 -182998 -180718 -178470 -176251 -174061 -171898 -169762 -167650 -165563 -163499 -161458 -159438 -157439 -155461 -153502 -151562 -149640 -147735 -145848 -143978 -142123 -140284 -138460 -136651 -134857 -133076 -131308 -129554 -127813 -126084 -124368 -122663 -120970 -119289 -117618 -115958 -114309 -112670 -111041 -109422 -107813 -106213 -104623 -103041 -101469 -99904.8 -98349.5 -96802.7 -95264 -93733.5 -92210.8 -90696 -89188.8 -87689.2 -86197 -84712 -83234.2 -81763.4 -80299.6 -78842.5 -77392.2 -75948.5 -74511.2 -73080.4 -71655.9 -70237.7 -68825.6 -67419.5 -66019.4 -64625.2 -63236.7 -61854.1 -60477.1 -59105.6 -57739.7 -56379.3 -55024.2 -53674.4 -52329.9 -50990.6 -49656.5 -48327.4 -47003.4 -45684.3 -44370.2 -43060.9 -41756.4 -40456.7 -39161.8 -37871.5 -36585.9 -35304.8 -34028.3 -32756.3 -31488.8 -30225.7 -28967.1 -27712.7 -26462.7 -25217 -23975.6 -22738.4 -21505.4 -20276.6 -19051.9 -17831.3 -16614.8 -15402.3 -14193.9 -12989.5 -11789.1 -10592.7 -9400.2 -8211.63 -7026.96 -5846.19 -4669.28 -3496.22 -2327 -1161.6 0 -200000 -197411 -194873 -192381 -189932 -187523 -185151 -182814 -180511 -178240 -176000 -173789 -171605 -169449 -167319 -165213 -163132 -161073 -159037 -157022 -155028 -153055 -151100 -149164 -147247 -145347 -143464 -141598 -139748 -137913 -136094 -134290 -132499 -130723 -128961 -127211 -125475 -123751 -122040 -120340 -118652 -116976 -115311 -113657 -112013 -110380 -108757 -107144 -105541 -103948 -102364 -100789 -99223.1 -97666.3 -96118.1 -94578.6 -93047.4 -91524.4 -90009.6 -88502.8 -87003.7 -85512.4 -84028.7 -82552.4 -81083.4 -79621.7 -78167 -76719.4 -75278.6 -73844.7 -72417.4 -70996.8 -69582.7 -68174.9 -66773.6 -65378.4 -63989.4 -62606.6 -61229.7 -59858.8 -58493.7 -57134.4 -55780.9 -54433 -53090.7 -51753.9 -50422.7 -49096.8 -47776.3 -46461.1 -45151.1 -43846.3 -42546.7 -41252.2 -39962.7 -38678.2 -37398.7 -36124 -34854.3 -33589.4 -32329.2 -31073.8 -29823.2 -28577.2 -27335.8 -26099 -24866.8 -23639.2 -22416.1 -21197.4 -19983.2 -18773.4 -17568.1 -16367.1 -15170.4 -13978.1 -12790 -11606.3 -10426.8 -9251.54 -8080.51 -6913.67 -5751.02 -4592.54 -3438.21 -2288.02 -1141.96 0 -200000 -197382 -194816 -192297 -189821 -187386 -184989 -182628 -180301 -178007 -175744 -173512 -171308 -169131 -166982 -164858 -162758 -160682 -158629 -156599 -154589 -152600 -150632 -148682 -146751 -144839 -142944 -141066 -139204 -137359 -135529 -133715 -131915 -130130 -128359 -126602 -124857 -123126 -121408 -119702 -118008 -116326 -114655 -112996 -111348 -109711 -108084 -106467 -104861 -103265 -101678 -100101 -98533.8 -96975.4 -95426.1 -93885.6 -92353.9 -90830.7 -89315.9 -87809.5 -86311.1 -84820.8 -83338.3 -81863.6 -80396.6 -78937 -77484.9 -76040 -74602.3 -73171.8 -71748.2 -70331.4 -68921.5 -67518.3 -66121.7 -64731.7 -63348 -61970.8 -60599.8 -59235.1 -57876.5 -56524 -55177.5 -53836.9 -52502.2 -51173.2 -49850.1 -48532.6 -47220.8 -45914.5 -44613.8 -43318.5 -42028.6 -40744.1 -39465 -38191.1 -36922.4 -35658.9 -34400.6 -33147.4 -31899.2 -30656.1 -29417.9 -28184.7 -26956.4 -25733 -24514.5 -23300.7 -22091.8 -20887.6 -19688.2 -18493.4 -17303.4 -16118 -14937.2 -13761.1 -12589.5 -11422.5 -10260.1 -9102.17 -7948.77 -6799.87 -5655.44 -4515.48 -3379.96 -2248.89 -1122.24 0 -200000 -197353 -194758 -192211 -189708 -187246 -184823 -182437 -180087 -177769 -175484 -173230 -171005 -168808 -166639 -164496 -162379 -160285 -158215 -156168 -154143 -152139 -150156 -148193 -146248 -144323 -142416 -140526 -138653 -136797 -134957 -133132 -131323 -129529 -127750 -125984 -124232 -122494 -120768 -119056 -117356 -115668 -113992 -112328 -110675 -109034 -107403 -105783 -104174 -102575 -100986 -99406.5 -97837.1 -96277.3 -94726.8 -93185.6 -91653.3 -90130 -88615.4 -87109.4 -85611.8 -84122.5 -82641.5 -81168.4 -79703.4 -78246.1 -76796.5 -75354.5 -73920 -72492.9 -71073.1 -69660.4 -68254.8 -66856.2 -65464.5 -64079.6 -62701.4 -61329.9 -59965 -58606.6 -57254.5 -55908.9 -54569.5 -53236.3 -51909.3 -50588.3 -49273.4 -47964.5 -46661.4 -45364.2 -44072.8 -42787.2 -41507.2 -40232.9 -38964.1 -37700.9 -36443.3 -35191 -33944.2 -32702.8 -31466.7 -30236 -29010.4 -27790.1 -26575 -25365.1 -24160.3 -22960.6 -21766 -20576.4 -19391.8 -18212.2 -17037.6 -15867.9 -14703.1 -13543.2 -12388.2 -11238.1 -10092.8 -8952.3 -7816.61 -6685.7 -5559.57 -4438.19 -3321.55 -2209.65 -1102.47 0 -200000 -197323 -194699 -192124 -189593 -187104 -184655 -182244 -179869 -177528 -175220 -172943 -170697 -168480 -166291 -164129 -161993 -159882 -157795 -155732 -153691 -151672 -149674 -147696 -145738 -143800 -141880 -139978 -138094 -136227 -134377 -132543 -130724 -128921 -127133 -125359 -123599 -121854 -120121 -118402 -116696 -115003 -113322 -111653 -109995 -108349 -106715 -105092 -103479 -101877 -100286 -98704.7 -97133.6 -95572.4 -94020.8 -92478.8 -90946.2 -89422.8 -87908.4 -86402.9 -84906.2 -83418.1 -81938.5 -80467.3 -79004.2 -77549.3 -76102.5 -74663.4 -73232.2 -71808.6 -70392.6 -68984.1 -67582.9 -66189 -64802.3 -63422.7 -62050.1 -60684.5 -59325.7 -57973.7 -56628.3 -55289.6 -53957.5 -52631.9 -51312.6 -49999.8 -48693.2 -47392.9 -46098.7 -44810.7 -43528.8 -42252.8 -40982.9 -39718.8 -38460.6 -37208.3 -35961.7 -34720.8 -33485.7 -32256.2 -31032.3 -29814 -28601.2 -27393.9 -26192.1 -24995.7 -23804.8 -22619.2 -21439 -20264 -19094.4 -17930.1 -16770.9 -15617 -14468.3 -13324.8 -12186.5 -11053.2 -9925.12 -8802.11 -7684.19 -6571.33 -5463.54 -4360.79 -3263.07 -2170.37 -1082.69 0 -200000 -197293 -194639 -192034 -189475 -186959 -184484 -182047 -179647 -177282 -174951 -172652 -170384 -168147 -165938 -163756 -161602 -159473 -157369 -155289 -153232 -151197 -149185 -147193 -145222 -143270 -141338 -139424 -137529 -135651 -133790 -131945 -130117 -128305 -126508 -124726 -122959 -121206 -119467 -117742 -116030 -114330 -112644 -110970 -109308 -107658 -106020 -104393 -102778 -101173 -99579.5 -97996.3 -96423.6 -94861 -93308.5 -91765.9 -90232.9 -88709.5 -87195.4 -85690.6 -84194.8 -82708 -81229.9 -79760.5 -78299.7 -76847.3 -75403.2 -73967.2 -72539.4 -71119.5 -69707.4 -68303.1 -66906.5 -65517.4 -64135.8 -62761.6 -61394.7 -60035 -58682.5 -57337 -55998.4 -54666.8 -53342 -52024 -50712.7 -49408.1 -48110 -46818.4 -45533.2 -44254.5 -42982.1 -41716 -40456.2 -39202.5 -37955 -36713.6 -35478.2 -34248.8 -33025.4 -31807.9 -30596.3 -29390.6 -28190.6 -26996.5 -25808 -24625.3 -23448.3 -22276.9 -21111.2 -19951 -18796.4 -17647.4 -16503.8 -15365.8 -14233.2 -13106.1 -11984.4 -10868.2 -9757.3 -8651.81 -7551.69 -6456.92 -5367.49 -4283.39 -3204.6 -2131.11 -1062.91 0 -200000 -197262 -194578 -191944 -189356 -186812 -184309 -181846 -179421 -177032 -174678 -172356 -170067 -167808 -165579 -163378 -161204 -159057 -156936 -154839 -152766 -150716 -148689 -146683 -144698 -142733 -140788 -138863 -136956 -135067 -133195 -131341 -129504 -127682 -125877 -124087 -122312 -120552 -118806 -117074 -115356 -113651 -111960 -110281 -108614 -106961 -105319 -103689 -102070 -100463 -98866.9 -97281.8 -95707.5 -94143.8 -92590.3 -91047.1 -89513.9 -87990.6 -86476.9 -84972.8 -83478.1 -81992.6 -80516.2 -79048.8 -77590.3 -76140.4 -74699.2 -73266.4 -71842 -70425.9 -69017.9 -67618 -66226 -64841.9 -63465.5 -62096.8 -60735.7 -59382 -58035.8 -56697 -55365.4 -54040.9 -52723.6 -51413.4 -50110.1 -48813.7 -47524.2 -46241.5 -44965.5 -43696.1 -42433.4 -41177.3 -39927.6 -38684.5 -37447.7 -36217.3 -34993.2 -33775.4 -32563.9 -31358.5 -30159.3 -28966.2 -27779.2 -26598.2 -25423.3 -24254.3 -23091.3 -21934.2 -20783 -19637.6 -18498.1 -17364.4 -16236.5 -15114.4 -13998 -12887.4 -11782.4 -10683.1 -9589.54 -8501.6 -7419.3 -6342.62 -5271.56 -4206.09 -3146.21 -2091.91 -1043.17 0 -200000 -197231 -194516 -191851 -189234 -186662 -184132 -181642 -179192 -176778 -174400 -172055 -169744 -167464 -165214 -162994 -160801 -158636 -156497 -154383 -152294 -150229 -148186 -146166 -144168 -142190 -140232 -138295 -136376 -134476 -132594 -130730 -128883 -127053 -125239 -123441 -121658 -119891 -118138 -116400 -114676 -112966 -111269 -109585 -107915 -106257 -104611 -102978 -101356 -99746.8 -98148.6 -96561.7 -94985.9 -93421 -91866.8 -90323.1 -88789.7 -87266.6 -85753.4 -84250.1 -82756.5 -81272.5 -79797.9 -78332.6 -76876.4 -75429.3 -73991 -72561.5 -71140.7 -69728.5 -68324.7 -66929.2 -65542 -64162.9 -62791.9 -61428.8 -60073.5 -58726.1 -57386.4 -56054.3 -54729.7 -53412.6 -52102.8 -50800.4 -49505.3 -48217.3 -46936.5 -45662.7 -44396 -43136.1 -41883.2 -40637.1 -39397.8 -38165.2 -36939.3 -35720 -34507.3 -33301.2 -32101.6 -30908.4 -29721.6 -28541.3 -27367.3 -26199.6 -25038.2 -23883 -22734.1 -21591.3 -20454.7 -19324.3 -18199.9 -17081.6 -15969.4 -14863.2 -13763 -12668.8 -11580.6 -10498.4 -9422.06 -8351.66 -7287.17 -6228.57 -5175.85 -4128.99 -3087.99 -2052.83 -1023.5 0 -200000 -197198 -194452 -191757 -189110 -186509 -183951 -181435 -178958 -176520 -174117 -171750 -169416 -167115 -164844 -162604 -160392 -158209 -156052 -153922 -151816 -149735 -147678 -145643 -143631 -141640 -139670 -137720 -135790 -133879 -131987 -130113 -128256 -126417 -124595 -122788 -120998 -119224 -117464 -115720 -113990 -112274 -110572 -108884 -107209 -105547 -103898 -102261 -100637 -99025.2 -97424.9 -95836.3 -94259.1 -92693.2 -91138.2 -89594.2 -88060.8 -86537.9 -85025.4 -83523 -82030.7 -80548.2 -79075.5 -77612.4 -76158.7 -74714.4 -73279.2 -71853.1 -70436 -69027.8 -67628.2 -66237.4 -64855 -63481.1 -62115.5 -60758.1 -59408.9 -58067.8 -56734.6 -55409.4 -54091.9 -52782.2 -51480.2 -50185.8 -48898.9 -47619.4 -46347.4 -45082.7 -43825.2 -42575 -41331.9 -40096 -38867.1 -37645.2 -36430.2 -35222.1 -34021 -32826.6 -31639 -30458.1 -29283.9 -28116.3 -26955.4 -25801 -24653.2 -23511.9 -22377.1 -21248.8 -20126.8 -19011.3 -17902.1 -16799.2 -15702.7 -14612.5 -13528.5 -12450.8 -11379.4 -10314.1 -9255.06 -8202.19 -7155.48 -6114.92 -5080.49 -4052.19 -3030 -2013.91 -1003.92 0 -200000 -197166 -194387 -191661 -188984 -186354 -183768 -181224 -178721 -176257 -173831 -171440 -169084 -166760 -164469 -162209 -159978 -157776 -155602 -153454 -151332 -149235 -147163 -145114 -143088 -141084 -139101 -137139 -135198 -133276 -131373 -129489 -127623 -125775 -123944 -122130 -120332 -118550 -116784 -115034 -113298 -111577 -109870 -108177 -106498 -104832 -103180 -101540 -99913.1 -98298.7 -96696.4 -95106.2 -93527.7 -91960.8 -90405.3 -88861 -87327.6 -85805.2 -84293.3 -82792 -81301.1 -79820.3 -78349.5 -76888.7 -75437.6 -73996.2 -72564.3 -71141.7 -69728.4 -68324.3 -66929.1 -65542.9 -64165.6 -62796.9 -61436.9 -60085.4 -58742.3 -57407.6 -56081.1 -54762.8 -53452.6 -52150.4 -50856.2 -49569.9 -48291.3 -47020.5 -45757.3 -44501.8 -43253.8 -42013.3 -40780.2 -39554.5 -38336.1 -37124.9 -35921 -34724.2 -33534.6 -32352 -31176.5 -30008 -28846.4 -27691.7 -26543.9 -25403 -24268.8 -23141.4 -22020.8 -20906.8 -19799.6 -18699 -17605 -16517.6 -15436.8 -14362.5 -13294.8 -12233.6 -11178.8 -10130.6 -9088.74 -8053.35 -7024.37 -6001.79 -4985.6 -3975.79 -2972.33 -1975.22 -984.445 0 -200000 -197132 -194321 -191563 -188855 -186195 -183581 -181010 -178481 -175991 -173540 -171125 -168746 -166401 -164089 -161808 -159558 -157337 -155145 -152980 -150842 -148730 -146642 -144579 -142539 -140522 -138526 -136552 -134599 -132667 -130754 -128860 -126984 -125127 -123288 -121466 -119660 -117872 -116099 -114342 -112601 -110874 -109162 -107465 -105782 -104112 -102456 -100814 -99184.3 -97567.6 -95963.5 -94371.7 -92792.1 -91224.3 -89668.3 -88123.9 -86590.7 -85068.8 -83557.8 -82057.6 -80568.1 -79089.1 -77620.5 -76162.1 -74713.8 -73275.3 -71846.7 -70427.8 -69018.4 -67618.5 -66227.9 -64846.5 -63474.3 -62111 -60756.6 -59411.1 -58074.3 -56746 -55426.4 -54115.2 -52812.3 -51517.8 -50231.5 -48953.3 -47683.2 -46421.1 -45166.9 -43920.6 -42682.2 -41451.4 -40228.4 -39013 -37805.2 -36604.9 -35412.1 -34226.7 -33048.7 -31878.1 -30714.7 -29558.6 -28409.7 -27267.9 -26133.3 -25005.8 -23885.3 -22771.9 -21665.4 -20565.9 -19473.4 -18387.7 -17309 -16237 -15171.9 -14113.6 -13062.1 -12017.3 -10979.3 -9947.92 -8923.27 -7905.31 -6894 -5889.33 -4891.29 -3899.86 -2915.03 -1936.78 -965.109 0 -200000 -197098 -194254 -191463 -188725 -186035 -183391 -180792 -178236 -175720 -173244 -170806 -168404 -166037 -163703 -161402 -159133 -156893 -154683 -152501 -150347 -148218 -146116 -144038 -141984 -139954 -137946 -135960 -133995 -132052 -130128 -128224 -126340 -124474 -122626 -120796 -118983 -117188 -115409 -113646 -111898 -110167 -108450 -106748 -105061 -103388 -101729 -100083 -98451.4 -96832.6 -95226.7 -93633.5 -92052.8 -90484.3 -88927.9 -87383.4 -85850.6 -84329.2 -82819.2 -81320.3 -79832.4 -78355.4 -76889 -75433.1 -73987.6 -72552.3 -71127.2 -69712 -68306.7 -66911.1 -65525.1 -64148.7 -62781.6 -61423.8 -60075.3 -58735.8 -57405.3 -56083.7 -54771 -53467 -52171.6 -50884.8 -49606.5 -48336.6 -47075 -45821.7 -44576.7 -43339.7 -42110.9 -40890 -39677.1 -38472.2 -37275 -36085.6 -34904 -33730.1 -32563.8 -31405.1 -30253.9 -29110.3 -27974.1 -26845.3 -25723.9 -24609.8 -23503.1 -22403.6 -21311.4 -20226.4 -19148.5 -18077.8 -17014.3 -15957.8 -14908.4 -13866 -12830.6 -11802.2 -10780.8 -9766.37 -8758.84 -7758.22 -6764.5 -5777.64 -4797.65 -3824.49 -2858.16 -1898.65 -945.931 0 -200000 -197063 -194185 -191362 -188592 -185871 -183198 -180571 -177987 -175446 -172945 -170482 -168057 -165668 -163313 -160991 -158702 -156444 -154216 -152017 -149845 -147701 -145584 -143491 -141424 -139380 -137360 -135362 -133386 -131431 -129498 -127584 -125690 -123815 -121959 -120122 -118302 -116499 -114713 -112944 -111192 -109455 -107733 -106027 -104336 -102660 -100997 -99349.2 -97714.8 -96093.9 -94486.4 -92891.9 -91310.2 -89741.2 -88184.6 -86640.1 -85107.7 -83587.1 -82078.1 -80580.7 -79094.5 -77619.4 -76155.4 -74702.2 -73259.6 -71827.6 -70406 -68994.7 -67593.6 -66202.5 -64821.3 -63449.8 -62088.1 -60736 -59393.3 -58060 -56736 -55421.2 -54115.4 -52818.7 -51530.9 -50251.9 -48981.7 -47720.2 -46467.3 -45222.9 -43987 -42759.5 -41540.4 -40329.5 -39126.8 -37932.3 -36745.9 -35567.6 -34397.2 -33234.7 -32080.2 -30933.5 -29794.6 -28663.5 -27540 -26424.2 -25316.1 -24215.5 -23122.5 -22037.1 -20959.1 -19888.5 -18825.4 -17769.6 -16721.2 -15680.1 -14646.4 -13619.9 -12600.6 -11588.6 -10583.8 -9586.11 -8595.61 -7612.25 -6636 -5666.85 -4704.78 -3749.76 -2801.8 -1860.86 -926.928 0 -200000 -197028 -194115 -191259 -188456 -185705 -183002 -180346 -177735 -175167 -172641 -170154 -167705 -165294 -162917 -160575 -158266 -155989 -153743 -151527 -149339 -147179 -145046 -142940 -140858 -138801 -136768 -134759 -132771 -130806 -128862 -126939 -125036 -123152 -121288 -119442 -117615 -115806 -114014 -112239 -110481 -108739 -107013 -105303 -103608 -101928 -100262 -98611.6 -96975 -95352.2 -93743.1 -92147.5 -90565 -88995.5 -87438.7 -85894.5 -84362.6 -82842.8 -81335.1 -79839.1 -78354.8 -76881.9 -75420.3 -73969.9 -72530.4 -71101.8 -69683.9 -68276.6 -66879.7 -65493.2 -64116.9 -62750.6 -61394.3 -60047.9 -58711.2 -57384.2 -56066.8 -54758.8 -53460.2 -52170.9 -50890.7 -49619.7 -48357.7 -47104.7 -45860.5 -44625.1 -43398.5 -42180.5 -40971.2 -39770.3 -38578 -37394 -36218.4 -35051.1 -33892 -32741.1 -31598.4 -30463.8 -29337.2 -28218.6 -27107.9 -26005.2 -24910.3 -23823.2 -22744 -21672.5 -20608.7 -19552.6 -18504.1 -17463.3 -16430.1 -15404.4 -14386.2 -13375.5 -12372.3 -11376.6 -10388.2 -9407.29 -8433.73 -7467.51 -6508.63 -5557.05 -4612.76 -3675.74 -2745.98 -1823.44 -908.12 0 -200000 -196992 -194044 -191154 -188319 -185536 -182803 -180118 -177480 -174885 -172333 -169821 -167349 -164915 -162517 -160155 -157826 -155530 -153266 -151032 -148827 -146652 -144504 -142383 -140287 -138218 -136172 -134150 -132152 -130176 -128222 -126289 -124376 -122484 -120612 -118759 -116925 -115109 -113310 -111530 -109766 -108019 -106289 -104575 -102876 -101193 -99524.5 -97871.2 -96232.4 -94607.9 -92997.4 -91400.6 -89817.5 -88247.6 -86690.8 -85146.9 -83615.7 -82097 -80590.5 -79096.2 -77613.8 -76143.2 -74684.2 -73236.7 -71800.5 -70375.4 -68961.3 -67558.1 -66165.6 -64783.8 -63412.4 -62051.5 -60700.7 -59360.2 -58029.6 -56709 -55398.3 -54097.2 -52805.