<?xml version="1.0"?> 
<VTKFile type="StructuredGrid" version="0.1"> 
<StructuredGrid WholeExtent="0 127 0 127 0 0"> 
<Piece Extent="0 127 0 127 0 0"> 
<PointData>
<DataArray type="Float32" Name="u" format="ascii" NumberOfComponents="1"> 
-12432.1 -13563.7 -14696.7 -15831.1 -16966.9 -18104.3 -19243.3 -20383.9 -21526.4 -22670.7 -23816.9 -24965.1 -26115.4 -27267.9 -28422.6 -29579.6 -30739 -31900.9 -33065.4 -34232.5 -35402.3 -36575 -37750.5 -38929 -40110.6 -41295.3 -42483.3 -43674.6 -44869.3 -46067.5 -47269.2 -48474.7 -49683.9 -50896.9 -52114 -53335 -54560.2 -55789.6 -57023.4 -58261.6 -59504.2 -60751.6 -62003.6 -63260.4 -64522.2 -65789 -67060.9 -68338.1 -69620.6 -70908.6 -72202.1 -73501.3 -74806.3 -76117.1 -77434 -78757.1 -80086.4 -81422 -82764.2 -84113 -85468.6 -86831 -88200.5 -89577.1 -90961 -92352.3 -93751.2 -95157.7 -96572.2 -97994.6 -99425.2 -100864 -102312 -103768 -105232 -106706 -108189 -109681 -111183 -112695 -114216 -115747 -117289 -118841 -120403 -121977 -123562 -125157 -126765 -128384 -130015 -131658 -133314 -134983 -136664 -138359 -140067 -141788 -143524 -145274 -147038 -148816 -150610 -152419 -154243 -156082 -157937 -159808 -161694 -163596 -165514 -167447 -169396 -171360 -173339 -175332 -177339 -179358 -181390 -183432 -185484 -187545 -189613 -191686 -193763 -195842 -197922 -200000 -12593.8 -13724.1 -14855.8 -15988.9 -17123.4 -18259.5 -19397.1 -20536.5 -21677.7 -22820.7 -23965.7 -25112.6 -26261.6 -27412.8 -28566.3 -29722 -30880.2 -32040.9 -33204.1 -34369.9 -35538.5 -36709.9 -37884.2 -39061.5 -40241.8 -41425.3 -42612 -43802.1 -44995.5 -46192.4 -47393 -48597.2 -49805.1 -51016.9 -52232.7 -53452.5 -54676.4 -55904.6 -57137.1 -58374 -59615.4 -60861.4 -62112.2 -63367.8 -64628.2 -65893.7 -67164.4 -68440.2 -69721.4 -71008 -72300.2 -73598.1 -74901.7 -76211.3 -77526.8 -78848.5 -80176.4 -81510.7 -82851.5 -84198.9 -85553 -86914 -88282 -89657.2 -91039.6 -92429.5 -93826.9 -95232 -96644.9 -98065.8 -99494.9 -100932 -102378 -103833 -105296 -106768 -108249 -109740 -111240 -112750 -114269 -115799 -117339 -118889 -120450 -122022 -123605 -125199 -126805 -128422 -130051 -131693 -133347 -135014 -136693 -138386 -140092 -141812 -143546 -145294 -147056 -148833 -150625 -152432 -154254 -156092 -157946 -159815 -161700 -163600 -165517 -167449 -169397 -171360 -173338 -175331 -177337 -179356 -181387 -183430 -185482 -187543 -189611 -191684 -193762 -195841 -197921 -200000 -12755.4 -13884.5 -15014.8 -16146.6 -17279.8 -18414.6 -19551 -20689.1 -21829 -22970.7 -24114.4 -25260.1 -26407.8 -27557.8 -28709.9 -29864.4 -31021.4 -32180.8 -33342.7 -34507.3 -35674.7 -36844.8 -38017.9 -39193.9 -40373 -41555.2 -42740.7 -43929.5 -45121.7 -46317.4 -47516.7 -48719.6 -49926.3 -51136.9 -52351.4 -53570 -54792.6 -56019.5 -57250.7 -58486.4 -59726.5 -60971.3 -62220.7 -63475 -64734.2 -65998.4 -67267.7 -68542.3 -69822.1 -71107.5 -72398.3 -73694.9 -74997.1 -76305.3 -77619.5 -78939.8 -80266.4 -81599.3 -82938.6 -84284.6 -85637.3 -86996.9 -88363.5 -89737.2 -91118.2 -92506.6 -93902.5 -95306.1 -96717.5 -98136.9 -99564.5 -101000 -102445 -103897 -105359 -106830 -108309 -109798 -111297 -112805 -114323 -115851 -117389 -118938 -120497 -122067 -123648 -125240 -126844 -128460 -130087 -131727 -133379 -135044 -136722 -138413 -140117 -141835 -143567 -145314 -147074 -148850 -150640 -152445 -154266 -156102 -157954 -159822 -161705 -163605 -165520 -167451 -169398 -171360 -173337 -175329 -177335 -179354 -181385 -183427 -185479 -187540 -189609 -191682 -193760 -195840 -197921 -200000 -12917.1 -14044.8 -15173.8 -16304.3 -17436.2 -18569.7 -19704.8 -20841.6 -21980.2 -23120.7 -24263.1 -25407.5 -26554 -27702.7 -28853.6 -30006.8 -31162.5 -32320.6 -33481.3 -34644.7 -35810.8 -36979.7 -38151.5 -39326.3 -40504.1 -41685.1 -42869.4 -44056.9 -45247.9 -46442.3 -47640.3 -48842 -50047.5 -51256.8 -52470.1 -53687.3 -54908.8 -56134.4 -57364.3 -58598.7 -59837.6 -61081 -62329.2 -63582.2 -64840.1 -66103 -67371 -68644.3 -69922.8 -71206.8 -72496.3 -73791.5 -75092.5 -76399.3 -77712.1 -79031.1 -80356.2 -81687.7 -83025.7 -84370.3 -85721.6 -87079.7 -88444.9 -89817.1 -91196.6 -92583.5 -93978 -95380.1 -96790 -98207.9 -99633.9 -101068 -102511 -103962 -105422 -106891 -108369 -109857 -111353 -112860 -114376 -115902 -117439 -118986 -120543 -122112 -123691 -125282 -126884 -128497 -130123 -131761 -133411 -135075 -136751 -138440 -140142 -141858 -143589 -145333 -147092 -148866 -150654 -152458 -154277 -156111 -157962 -159828 -161710 -163608 -165523 -167453 -169398 -171360 -173336 -175327 -177332 -179351 -181382 -183424 -185476 -187538 -189606 -191680 -193759 -195839 -197920 -200000 -13078.7 -14205.1 -15332.8 -16461.9 -17592.6 -18724.8 -19858.6 -20994.1 -22131.4 -23270.6 -24411.7 -25554.9 -26700.1 -27847.5 -28997.2 -30149.2 -31303.6 -32460.5 -33619.9 -34782 -35946.9 -37114.5 -38285.1 -39458.6 -40635.2 -41815 -42998 -44184.3 -45374 -46567.2 -47764 -48964.4 -50168.6 -51376.7 -52588.7 -53804.7 -55024.8 -56249.2 -57477.9 -58711 -59948.6 -61190.8 -62437.7 -63689.4 -64946 -66207.6 -67474.3 -68746.2 -70023.4 -71306.1 -72594.3 -73888.1 -75187.7 -76493.2 -77804.6 -79122.2 -80446 -81776.1 -83112.7 -84455.8 -85805.7 -87162.4 -88526.1 -89896.9 -91275 -92660.4 -94053.3 -95453.9 -96862.3 -98278.7 -99703.1 -101136 -102577 -104027 -105485 -106953 -108429 -109915 -111410 -112915 -114429 -115954 -117489 -119034 -120589 -122156 -123734 -125322 -126923 -128535 -130159 -131795 -133443 -135105 -136779 -138466 -140167 -141881 -143610 -145352 -147110 -148881 -150668 -152470 -154288 -156121 -157969 -159834 -161715 -163612 -165525 -167454 -169399 -171359 -173335 -175325 -177330 -179348 -181378 -183421 -185473 -187535 -189603 -191678 -193757 -195838 -197920 -200000 -13240.2 -14365.3 -15491.7 -16619.6 -17748.9 -18879.8 -20012.3 -21146.6 -22282.6 -23420.5 -24560.4 -25702.3 -26846.2 -27992.4 -29140.8 -30291.5 -31444.6 -32600.3 -33758.5 -34919.3 -36082.9 -37249.4 -38418.7 -39591 -40766.3 -41944.8 -43126.5 -44311.6 -45500.1 -46692 -47887.5 -49086.7 -50289.7 -51496.5 -52707.2 -53922 -55140.9 -56364 -57591.4 -58823.2 -60059.5 -61300.4 -62546 -63796.4 -65051.7 -66312 -67577.4 -68848 -70124 -71405.3 -72692.2 -73984.7 -75282.9 -76587 -77897.1 -79213.3 -80535.7 -81864.4 -83199.6 -84541.3 -85889.8 -87245 -88607.3 -89976.6 -91353.2 -92737.1 -94128.6 -95527.7 -96934.5 -98349.4 -99772.3 -101203 -102643 -104091 -105548 -107014 -108489 -109973 -111466 -112969 -114482 -116005 -117538 -119081 -120635 -122200 -123776 -125363 -126962 -128572 -130194 -131828 -133475 -135135 -136807 -138492 -140191 -141904 -143631 -145371 -147127 -148897 -150682 -152482 -154298 -156129 -157977 -159840 -161719 -163615 -165527 -167455 -169398 -171358 -173333 -175323 -177327 -179344 -181375 -183417 -185470 -187531 -189601 -191676 -193755 -195837 -197919 -200000 -13401.7 -14525.5 -15650.6 -16777.2 -17905.2 -19034.8 -20166.1 -21299 -22433.8 -23570.4 -24709 -25849.6 -26992.3 -28137.2 -29284.3 -30433.8 -31585.7 -32740.1 -33897 -35056.6 -36219 -37384.1 -38552.2 -39723.2 -40897.3 -42074.6 -43255.1 -44438.9 -45626.1 -46816.8 -48011.1 -49209 -50410.7 -51616.3 -52825.8 -54039.3 -55256.9 -56478.7 -57704.9 -58935.4 -60170.4 -61410 -62654.4 -63903.5 -65157.5 -66416.5 -67680.6 -68949.8 -70224.4 -71504.4 -72790 -74081.1 -75378 -76680.7 -77989.5 -79304.3 -80625.3 -81952.6 -83286.3 -84626.7 -85973.7 -87327.6 -88688.3 -90056.2 -91431.3 -92813.8 -94203.7 -95601.3 -97006.6 -98419.9 -99841.3 -101271 -102709 -104155 -105611 -107075 -108548 -110030 -111522 -113024 -114535 -116056 -117587 -119129 -120681 -122244 -123818 -125404 -127000 -128609 -130229 -131862 -133507 -135164 -136835 -138518 -140215 -141926 -143651 -145390 -147144 -148912 -150695 -152494 -154308 -156138 -157984 -159846 -161724 -163618 -165528 -167455 -169398 -171356 -173331 -175320 -177323 -179341 -181371 -183413 -185466 -187528 -189598 -191673 -193753 -195835 -197918 -200000 -13563.2 -14685.7 -15809.5 -16934.7 -18061.5 -19189.8 -20319.7 -21451.4 -22584.9 -23720.3 -24857.6 -25996.9 -27138.3 -28281.9 -29427.8 -30576 -31726.7 -32879.8 -34035.5 -35193.9 -36355 -37518.9 -38685.7 -39855.5 -41028.3 -42204.4 -43383.6 -44566.2 -45752.1 -46941.6 -48134.6 -49331.3 -50531.7 -51736 -52944.2 -54156.5 -55372.8 -56593.4 -57818.3 -59047.5 -60281.3 -61519.6 -62762.6 -64010.4 -65263.1 -66520.8 -67783.6 -69051.6 -70324.8 -71603.5 -72887.7 -74177.5 -75473 -76774.4 -78081.7 -79395.2 -80714.8 -82040.7 -83373 -84712 -86057.5 -87409.9 -88769.3 -90135.7 -91509.3 -92890.3 -94278.7 -95674.8 -97078.6 -98490.4 -99910.2 -101338 -102775 -104220 -105673 -107136 -108607 -110088 -111578 -113078 -114587 -116107 -117636 -119176 -120727 -122288 -123860 -125444 -127039 -128645 -130264 -131895 -133538 -135194 -136862 -138544 -140239 -141948 -143671 -145409 -147160 -148927 -150709 -152505 -154318 -156146 -157990 -159851 -161727 -163620 -165529 -167455 -169397 -171355 -173328 -175317 -177320 -179337 -181367 -183409 -185462 -187524 -189594 -191670 -193751 -195834 -197918 -200000 -13724.7 -14845.8 -15968.3 -17092.3 -18217.7 -19344.7 -20473.4 -21603.8 -22736 -23870.1 -25006.1 -26144.2 -27284.3 -28426.7 -29571.3 -30718.3 -31867.6 -33019.5 -34174 -35331.1 -36490.9 -37653.6 -38819.2 -39987.7 -41159.3 -42334.1 -43512.1 -44693.4 -45878.1 -47066.3 -48258.1 -49453.5 -50652.7 -51855.7 -53062.7 -54273.6 -55488.7 -56708 -57931.6 -59159.6 -60392.1 -61629.1 -62870.8 -64117.4 -65368.7 -66625.1 -67886.6 -69153.2 -70425.2 -71702.5 -72985.3 -74273.8 -75568 -76868 -78173.9 -79486 -80804.2 -82128.7 -83459.6 -84797.1 -86141.3 -87492.2 -88850.1 -90215.1 -91587.2 -92966.7 -94353.6 -95748.2 -97150.5 -98560.7 -99978.9 -101405 -102840 -104284 -105736 -107196 -108666 -110145 -111634 -113132 -114640 -116157 -117685 -119224 -120772 -122332 -123902 -125484 -127077 -128682 -130299 -131927 -133569 -135223 -136889 -138569 -140263 -141970 -143691 -145427 -147177 -148941 -150721 -152517 -154327 -156154 -157997 -159856 -161731 -163622 -165530 -167455 -169396 -171352 -173325 -175313 -177316 -179333 -181363 -183405 -185458 -187520 -189591 -191668 -193749 -195833 -197917 -200000 -13886.1 -15005.9 -16127.1 -17249.7 -18373.9 -19499.6 -20627 -21756.1 -22887 -24019.8 -25154.6 -26291.4 -27430.3 -28571.4 -29714.8 -30860.5 -32008.6 -33159.2 -34312.4 -35468.3 -36626.8 -37788.3 -38952.6 -40119.9 -41290.2 -42463.8 -43640.5 -44820.6 -46004 -47191 -48381.5 -49575.7 -50773.6 -51975.4 -53181 -54390.8 -55604.6 -56822.6 -58044.9 -59271.6 -60502.8 -61738.5 -62979 -64224.2 -65474.3 -66729.4 -67989.5 -69254.8 -70525.4 -71801.4 -73082.9 -74370 -75662.8 -76961.5 -78266 -79576.7 -80893.5 -82216.6 -83546.1 -84882.2 -86224.9 -87574.4 -88930.9 -90294.3 -91665 -93043 -94428.4 -95821.4 -97222.2 -98630.8 -100048 -101472 -102906 -104347 -105798 -107257 -108725 -110203 -111690 -113186 -114692 -116208 -117734 -119271 -120818 -122375 -123944 -125524 -127115 -128718 -130333 -131960 -133599 -135252 -136916 -138595 -140286 -141992 -143711 -145445 -147193 -148956 -150734 -152527 -154337 -156162 -158003 -159860 -161734 -163624 -165531 -167454 -169394 -171350 -173322 -175309 -177312 -179328 -181358 -183400 -185453 -187516 -189587 -191665 -193746 -195831 -197916 -200000 -14047.4 -15166 -16285.9 -17407.2 -18530.1 -19654.5 -20780.6 -21908.4 -23038.1 -24169.6 -25303.1 -26438.6 -27576.2 -28716.1 -29858.2 -31002.6 -32149.5 -33298.8 -34450.8 -35605.4 -36762.7 -37922.9 -39086 -40252 -41421.1 -42593.4 -43768.9 -44947.7 -46129.9 -47315.6 -48504.9 -49697.8 -50894.5 -52095 -53299.4 -54507.8 -55720.4 -56937.1 -58158.2 -59383.6 -60613.5 -61847.9 -63087.1 -64331 -65579.8 -66833.5 -68092.3 -69356.3 -70625.6 -71900.3 -73180.4 -74466.1 -75757.6 -77054.9 -78358.1 -79667.3 -80982.7 -82304.4 -83632.6 -84967.2 -86308.5 -87656.5 -89011.5 -90373.5 -91742.6 -93119.1 -94503 -95894.5 -97293.8 -98700.9 -100116 -101539 -102971 -104411 -105860 -107317 -108784 -110260 -111745 -113240 -114744 -116258 -117783 -119317 -120863 -122419 -123985 -125564 -127153 -128754 -130367 -131992 -133630 -135280 -136943 -138620 -140309 -142013 -143730 -145462 -147208 -148970 -150746 -152538 -154345 -156169 -158008 -159864 -161736 -163625 -165531 -167453 -169392 -171347 -173318 -175305 -177307 -179323 -181353 -183395 -185449 -187512 -189583 -191661 -193744 -195829 -197915 -200000 -14208.8 -15326 -16444.6 -17564.6 -18686.2 -19809.3 -20934.1 -22060.7 -23189 -24319.3 -25451.5 -26585.8 -27722.2 -28860.7 -30001.6 -31144.7 -32290.3 -33438.5 -34589.2 -35742.5 -36898.6 -38057.5 -39219.3 -40384.1 -41552 -42723 -43897.2 -45074.8 -46255.8 -47440.2 -48628.2 -49819.9 -51015.3 -52214.5 -53417.7 -54624.9 -55836.1 -57051.6 -58271.3 -59495.5 -60724.1 -61957.3 -63195.1 -64437.7 -65685.2 -66937.6 -68195.1 -69457.8 -70725.7 -71999 -73277.8 -74562.2 -75852.3 -77148.2 -78450 -79757.9 -81071.9 -82392.2 -83718.9 -85052.1 -86391.9 -87738.5 -89092 -90452.5 -91820.2 -93195.2 -94577.6 -95967.5 -97365.2 -98770.8 -100184 -101606 -103036 -104475 -105922 -107378 -108843 -110317 -111800 -113293 -114796 -116308 -117831 -119364 -120907 -122462 -124027 -125603 -127191 -128790 -130401 -132024 -133660 -135309 -136970 -138644 -140332 -142034 -143749 -145479 -147224 -148983 -150758 -152548 -154354 -156176 -158014 -159868 -161739 -163626 -165531 -167452 -169390 -171344 -173314 -175300 -177302 -179318 -181348 -183390 -185444 -187507 -189579 -191658 -193741 -195828 -197914 -200000 -14370.1 -15486 -16603.3 -17722 -18842.3 -19964.1 -21087.7 -22212.9 -23340 -24469 -25599.9 -26732.9 -27868 -29005.3 -30144.9 -31286.8 -32431.2 -33578 -34727.5 -35879.6 -37034.4 -38192.1 -39352.7 -40516.2 -41682.8 -42852.6 -44025.6 -45201.9 -46381.6 -47564.8 -48751.5 -49941.9 -51136.1 -52334 -53535.9 -54741.8 -55951.8 -57166 -58384.5 -59607.3 -60834.7 -62066.5 -63303.1 -64544.4 -65790.5 -67041.7 -68297.8 -69559.2 -70825.8 -72097.7 -73375.2 -74658.2 -75946.9 -77241.4 -78541.9 -79848.3 -81161 -82479.8 -83805.1 -85136.8 -86475.2 -87820.4 -89172.4 -90531.4 -91897.6 -93271.1 -94652 -96040.4 -97436.6 -98840.5 -100253 -101673 -103101 -104538 -105984 -107438 -108901 -110374 -111855 -113347 -114848 -116358 -117879 -119410 -120952 -122504 -124068 -125642 -127228 -128826 -130435 -132056 -133690 -135337 -136996 -138669 -140355 -142054 -143768 -145496 -147239 -148997 -150770 -152558 -154362 -156182 -158019 -159871 -161741 -163627 -165530 -167450 -169387 -171340 -173310 -175296 -177297 -179312 -181342 -183385 -185439 -187503 -189575 -191655 -193739 -195826 -197913 -200000 -14531.4 -15646 -16761.9 -17879.4 -18998.3 -20118.9 -21241.1 -22365.1 -23490.9 -24618.6 -25748.3 -26880 -28013.9 -29149.9 -30288.2 -31428.9 -32572 -33717.6 -34865.8 -36016.6 -37170.2 -38326.6 -39485.9 -40648.2 -41813.6 -42982.1 -44153.8 -45328.9 -46507.3 -47689.3 -48874.8 -50063.9 -51256.8 -52453.5 -53654.1 -54858.8 -56067.5 -57280.4 -58497.6 -59719.1 -60945.2 -62175.8 -63411 -64651 -65895.8 -67145.6 -68400.5 -69660.5 -70925.7 -72196.4 -73472.5 -74754.1 -76041.5 -77334.6 -78633.7 -79938.7 -81249.9 -82567.4 -83891.2 -85221.5 -86558.5 -87902.2 -89252.7 -90610.3 -91974.9 -93346.9 -94726.3 -96113.2 -97507.8 -98910.2 -100321 -101739 -103166 -104601 -106045 -107498 -108959 -110430 -111910 -113400 -114899 -116408 -117927 -119457 -120997 -122547 -124109 -125681 -127265 -128861 -130468 -132088 -133720 -135364 -137022 -138693 -140377 -142075 -143787 -145513 -147254 -149010 -150781 -152568 -154370 -156188 -158023 -159875 -161743 -163627 -165529 -167448 -169384 -171336 -173305 -175290 -177291 -179307 -181336 -183379 -185433 -187498 -189571 -191651 -193736 -195824 -197913 -200000 -14692.6 -15805.9 -16920.6 -18036.7 -19154.4 -20273.6 -21394.6 -22517.3 -23641.8 -24768.3 -25896.7 -27027.1 -28159.7 -29294.5 -30431.5 -31570.9 -32712.8 -33857.1 -35004 -36153.6 -37306 -38461.1 -39619.2 -40780.2 -41944.4 -43111.6 -44282.1 -45455.9 -46633.1 -47813.7 -48998 -50185.9 -51377.5 -52572.9 -53772.3 -54975.6 -56183.1 -57394.7 -58610.6 -59830.9 -61055.6 -62284.9 -63518.9 -64757.5 -66001.1 -67249.6 -68503.1 -69761.7 -71025.7 -72294.9 -73569.7 -74850 -76135.9 -77427.7 -78725.3 -80029 -81338.8 -82654.8 -83977.2 -85306.1 -86641.6 -87983.8 -89332.9 -90689 -92052.1 -93422.6 -94800.4 -96185.8 -97578.8 -98979.7 -100389 -101805 -103231 -104664 -106107 -107558 -109018 -110487 -111965 -113453 -114950 -116458 -117975 -119503 -121041 -122590 -124149 -125720 -127302 -128896 -130502 -132119 -133749 -135392 -137048 -138717 -140399 -142095 -143805 -145529 -147268 -149023 -150792 -152577 -154377 -156194 -158027 -159877 -161744 -163627 -165528 -167446 -169380 -171332 -173300 -175285 -177285 -179300 -181330 -183373 -185427 -187492 -189566 -191647 -193733 -195822 -197911 -200000 -14853.8 -15965.8 -17079.1 -18194 -19310.4 -20428.3 -21548 -22669.4 -23792.7 -24917.8 -26045 -27174.2 -28305.5 -29439 -30574.8 -31712.9 -32853.5 -33996.6 -35142.3 -36290.6 -37441.7 -38595.6 -39752.4 -40912.2 -42075.1 -43241.1 -44410.3 -45582.8 -46758.8 -47938.2 -49121.2 -50307.8 -51498.1 -52692.3 -53890.4 -55092.5 -56298.6 -57509 -58723.6 -59942.6 -61166 -62394 -63626.7 -64864 -66106.2 -67353.4 -68605.6 -69862.9 -71125.5 -72393.4 -73666.8 -74945.7 -76230.3 -77520.7 -78816.9 -80119.2 -81427.6 -82742.2 -84063.2 -85390.6 -86724.6 -88065.4 -89413 -90767.6 -92129.2 -93498.2 -94874.5 -96258.3 -97649.8 -99049.1 -100456 -101872 -103295 -104727 -106168 -107617 -109076 -110543 -112020 -113506 -115001 -116507 -118023 -119548 -121085 -122632 -124190 -125759 -127339 -128931 -130535 -132150 -133779 -135419 -137073 -138740 -140420 -142115 -143823 -145545 -147283 -149035 -150802 -152586 -154385 -156200 -158031 -159880 -161745 -163627 -165526 -167443 -169376 -171327 -173295 -175279 -177279 -179294 -181323 -183366 -185421 -187487 -189561 -191643 -193730 -195820 -197910 -200000 -15014.9 -16125.6 -17237.7 -18351.2 -19466.3 -20583 -21701.4 -22821.5 -23943.5 -25067.4 -26193.3 -27321.2 -28451.2 -29583.5 -30718 -31854.9 -32994.2 -34136.1 -35280.5 -36427.6 -37577.4 -38730 -39885.6 -41044.1 -42205.7 -43370.5 -44538.5 -45709.7 -46884.4 -48062.6 -49244.3 -50429.6 -51618.7 -52811.6 -54008.5 -55209.3 -56414.2 -57623.2 -58836.6 -60054.2 -61276.4 -62503.1 -63734.4 -64970.5 -66211.4 -67457.2 -68708 -69964 -71225.3 -72491.8 -73763.8 -75041.4 -76324.6 -77613.6 -78908.5 -80209.3 -81516.3 -82829.5 -84149 -85475 -86807.6 -88146.8 -89493 -90846 -92206.2 -93573.6 -94948.4 -96330.7 -97720.6 -99118.3 -100524 -101938 -103360 -104790 -106229 -107677 -109133 -110599 -112074 -113558 -115052 -116556 -118070 -119594 -121129 -122674 -124230 -125797 -127375 -128965 -130567 -132181 -133808 -135447 -137098 -138763 -140442 -142134 -143841 -145561 -147297 -149047 -150813 -152594 -154391 -156205 -158035 -159882 -161745 -163626 -165524 -167440 -169372 -171322 -173289 -175272 -177272 -179287 -181316 -183360 -185415 -187481 -189556 -191639 -193726 -195817 -197909 -200000 -15176.1 -16285.4 -17396.2 -18508.5 -19622.2 -20737.7 -21854.8 -22973.6 -24094.3 -25216.9 -26341.5 -27468.2 -28596.9 -29727.9 -30861.2 -31996.8 -33134.9 -34275.5 -35418.6 -36564.5 -37713 -38864.4 -40018.7 -41176 -42336.4 -43499.9 -44666.6 -45836.6 -47010 -48186.9 -49367.4 -50551.5 -51739.3 -52930.9 -54126.5 -55326 -56529.6 -57737.4 -58949.4 -60165.8 -61386.7 -62612.1 -63842.1 -65076.8 -66316.4 -67560.9 -68810.4 -70065.1 -71325 -72590.2 -73860.8 -75137 -76418.8 -77706.4 -78999.9 -80299.3 -81604.9 -82916.6 -84234.7 -85559.3 -86890.4 -88228.2 -89572.8 -90924.4 -92283.1 -93648.9 -95022.2 -96402.9 -97791.3 -99187.4 -100591 -102004 -103424 -104853 -106290 -107736 -109191 -110655 -112128 -113611 -115103 -116605 -118117 -119640 -121172 -122716 -124270 -125835 -127412 -129000 -130600 -132212 -133836 -135473 -137123 -138786 -140463 -142153 -143858 -145577 -147310 -149059 -150823 -152602 -154398 -156210 -158038 -159883 -161746 -163625 -165522 -167436 -169368 -171317 -173283 -175266 -177265 -179280 -181309 -183352 -185408 -187475 -189551 -191634 -193723 -195815 -197908 -200000 -15337.2 -16445.2 -17554.7 -18665.6 -19778.1 -20892.3 -22008.1 -23125.7 -24245.1 -25366.4 -26489.7 -27615.1 -28742.6 -29872.3 -31004.4 -32138.7 -33275.5 -34414.9 -35556.8 -36701.3 -37848.7 -38998.8 -40151.9 -41307.9 -42467 -43629.2 -44794.7 -45963.4 -47135.6 -48311.2 -49490.4 -50673.2 -51859.8 -53050.2 -54244.4 -55442.7 -56645 -57851.5 -59062.3 -60277.4 -61496.9 -62721 -63949.7 -65183.1 -66421.4 -67664.5 -68912.7 -70166 -71424.6 -72688.4 -73957.7 -75232.5 -76513 -77799.2 -79091.2 -80389.3 -81693.4 -83003.7 -84320.4 -85643.5 -86973.1 -88309.4 -89652.6 -91002.7 -92359.8 -93724.2 -95095.9 -96475 -97861.8 -99256.4 -100659 -102069 -103488 -104915 -106351 -107795 -109249 -110711 -112182 -113663 -115154 -116654 -118164 -119685 -121216 -122757 -124310 -125873 -127448 -129034 -130632 -132242 -133865 -135500 -137148 -138809 -140484 -142172 -143875 -145592 -147324 -149070 -150832 -152610 -154404 -156214 -158041 -159885 -161745 -163623 -165519 -167432 -169363 -171311 -173276 -175259 -177257 -179272 -181302 -183345 -185401 -187469 -189545 -191630 -193719 -195813 -197907 -200000 -15498.2 -16605 -17713.1 -18822.8 -19934 -21046.8 -22161.4 -23277.7 -24395.8 -25515.9 -26637.9 -27762 -28888.3 -30016.7 -31147.5 -32280.6 -33416.1 -34554.2 -35694.9 -36838.2 -37984.3 -39133.1 -40284.9 -41439.7 -42597.6 -43758.5 -44922.7 -46090.2 -47261.1 -48435.5 -49613.4 -50795 -51980.3 -53169.4 -54362.3 -55559.3 -56760.4 -57965.6 -59175 -60388.8 -61607.1 -62829.9 -64057.3 -65289.4 -66526.3 -67768.1 -69015 -70266.9 -71524.1 -72786.6 -74054.5 -75328 -76607 -77891.8 -79182.5 -80479.1 -81781.8 -83090.7 -84405.9 -85727.5 -87055.7 -88390.6 -89732.2 -91080.8 -92436.4 -93799.3 -95169.4 -96547 -97932.2 -99325.2 -100726 -102135 -103552 -104978 -106412 -107854 -109306 -110766 -112236 -113715 -115204 -116703 -118211 -119730 -121259 -122799 -124349 -125911 -127484 -129068 -130664 -132273 -133893 -135526 -137172 -138832 -140504 -142191 -143892 -145607 -147337 -149081 -150842 -152618 -154410 -156218 -158044 -159886 -161745 -163622 -165516 -167428 -169357 -171305 -173269 -175251 -177250 -179264 -181294 -183337 -185394 -187462 -189539 -191625 -193716 -195810 -197906 -200000 -15659.2 -16764.7 -17871.6 -18979.9 -20089.8 -21201.4 -22314.6 -23429.6 -24546.5 -25665.3 -26786.1 -27908.9 -29033.9 -30161.1 -31290.6 -32422.4 -33556.7 -34693.5 -35832.9 -36975 -38119.8 -39267.4 -40418 -41571.5 -42728.1 -43887.8 -45050.7 -46217 -47386.6 -48559.7 -49736.4 -50916.7 -52100.7 -53288.5 -54480.2 -55675.9 -56875.7 -58079.6 -59287.8 -60500.3 -61717.2 -62938.7 -64164.7 -65395.5 -66631.1 -67871.6 -69117.2 -70367.8 -71623.6 -72884.7 -74151.3 -75423.3 -76701 -77984.4 -79273.7 -80568.9 -81870.1 -83177.6 -84491.3 -85811.5 -87138.2 -88471.6 -89811.8 -91158.8 -92512.9 -93874.2 -95242.8 -96618.9 -98002.5 -99393.9 -100793 -102200 -103616 -105040 -106472 -107913 -109363 -110822 -112290 -113767 -115254 -116751 -118258 -119775 -121302 -122840 -124388 -125948 -127519 -129102 -130696 -132302 -133921 -135552 -137197 -138854 -140525 -142209 -143908 -145621 -147349 -149092 -150851 -152625 -154415 -156222 -158046 -159886 -161744 -163619 -165512 -167423 -169352 -171298 -173262 -175243 -177241 -179256 -181285 -183329 -185386 -187455 -189533 -191620 -193712 -195807 -197904 -200000 -15820.2 -16924.4 -18029.9 -19137 -20245.6 -21355.9 -22467.8 -23581.6 -24697.2 -25814.7 -26934.2 -28055.8 -29179.5 -30305.4 -31433.6 -32564.2 -33697.3 -34832.8 -35971 -37111.8 -38255.3 -39401.7 -40551 -41703.2 -42858.6 -44017 -45178.7 -46343.7 -47512.1 -48683.9 -49859.3 -51038.3 -52221.1 -53407.6 -54598 -55792.5 -56990.9 -58193.6 -59400.4 -60611.6 -61827.3 -63047.4 -64272.2 -65501.7 -66735.9 -67975.1 -69219.3 -70468.5 -71723 -72982.8 -74247.9 -75518.6 -76794.9 -78076.9 -79364.7 -80658.5 -81958.4 -83264.4 -84576.7 -85895.4 -87220.6 -88552.5 -89891.2 -91236.7 -92589.3 -93949.1 -95316.1 -96690.6 -98072.7 -99462.5 -100860 -102266 -103680 -105102 -106533 -107972 -109420 -110877 -112343 -113819 -115304 -116799 -118304 -119819 -121345 -122881 -124428 -125985 -127555 -129135 -130728 -132332 -133949 -135578 -137220 -138876 -140545 -142228 -143924 -145636 -147362 -149103 -150859 -152632 -154420 -156226 -158047 -159886 -161743 -163617 -165508 -167418 -169345 -171291 -173254 -175235 -177233 -179247 -181277 -183321 -185379 -187448 -189527 -191615 -193708 -195805 -197903 -200000 -15981.2 -17084 -18188.3 -19294 -20401.4 -21510.3 -22621 -23733.5 -24847.8 -25964 -27082.3 -28202.6 -29325 -30449.7 -31576.7 -32706 -33837.8 -34972.1 -36109 -37248.5 -38390.8 -39535.9 -40684 -41835 -42989 -44146.2 -45306.7 -46470.4 -47637.5 -48808.1 -49982.2 -51159.9 -52341.4 -53526.7 -54715.8 -55908.9 -57106.1 -58307.5 -59513 -60723 -61937.3 -63156.1 -64379.6 -65607.7 -66840.6 -68078.5 -69321.3 -70569.2 -71822.3 -73080.7 -74344.5 -75613.8 -76888.7 -78169.3 -79455.7 -80748.1 -82046.5 -83351.1 -84661.9 -85979.2 -87302.9 -88633.3 -89970.5 -91314.5 -92665.6 -94023.8 -95389.3 -96762.2 -98142.7 -99530.9 -100927 -102331 -103743 -105164 -106593 -108030 -109477 -110932 -112397 -113871 -115354 -116847 -118351 -119864 -121387 -122922 -124466 -126022 -127590 -129168 -130759 -132361 -133976 -135604 -137244 -138898 -140565 -142245 -143940 -145650 -147374 -149113 -150868 -152638 -154425 -156229 -158049 -159886 -161741 -163613 -165504 -167412 -169339 -171283 -173246 -175226 -177224 -179238 -181268 -183312 -185370 -187440 -189521 -191609 -193704 -195802 -197902 -200000 -16142.1 -17243.6 -18346.6 -19451.1 -20557.1 -21664.8 -22774.2 -23885.4 -24998.4 -26113.4 -27230.3 -28349.4 -29470.6 -30594 -31719.7 -32847.7 -33978.3 -35111.3 -36246.9 -37385.2 -38526.2 -39670.1 -40816.9 -41966.6 -43119.4 -44275.4 -45434.5 -46597 -47762.9 -48932.2 -50105 -51281.5 -52461.7 -53645.7 -54833.5 -56025.4 -57221.3 -58421.3 -59625.6 -60834.2 -62047.2 -63264.8 -64486.9 -65713.7 -66945.3 -68181.8 -69423.3 -70669.8 -71921.6 -73178.6 -74441 -75708.9 -76982.4 -78261.6 -79546.6 -80837.6 -82134.6 -83437.7 -84747.1 -86062.9 -87385.1 -88714 -90049.7 -91392.2 -92741.7 -94098.4 -95462.4 -96833.7 -98212.6 -99599.2 -100994 -102396 -103807 -105225 -106653 -108089 -109533 -110987 -112450 -113922 -115404 -116895 -118397 -119908 -121430 -122962 -124505 -126059 -127625 -129201 -130790 -132391 -134004 -135629 -137267 -138919 -140584 -142263 -143956 -145663 -147385 -149123 -150876 -152645 -154430 -156231 -158050 -159886 -161739 -163610 -165499 -167406 -169332 -171276 -173238 -175217 -177214 -179228 -181258 -183303 -185362 -187433 -189514 -191604 -193699 -195799 -197900 -200000 -16302.9 -17403.2 -18504.9 -19608 -20712.8 -21819.2 -22927.3 -24037.2 -25149 -26262.7 -27378.4 -28496.1 -29616.1 -30738.2 -31862.6 -32989.4 -34118.7 -35250.5 -36384.8 -37521.9 -38661.7 -39804.3 -40949.8 -42098.3 -43249.8 -44404.5 -45562.4 -46723.6 -47888.2 -49056.2 -50227.8 -51403 -52581.9 -53764.6 -54951.2 -56141.8 -57336.4 -58535.1 -59738.1 -60945.4 -62157.1 -63373.3 -64594.1 -65819.6 -67049.9 -68285.1 -69525.2 -70770.4 -72020.8 -73276.4 -74537.5 -75804 -77076.1 -78353.9 -79637.5 -80927 -82222.5 -83524.2 -84832.1 -86146.4 -87467.2 -88794.6 -90128.8 -91469.8 -92817.8 -94172.9 -95535.3 -96905.1 -98282.4 -99667.4 -101060 -102461 -103870 -105287 -106713 -108147 -109590 -111042 -112503 -113973 -115453 -116943 -118442 -119952 -121472 -123002 -124544 -126096 -127659 -129234 -130821 -132420 -134031 -135654 -137290 -138940 -140603 -142280 -143971 -145677 -147397 -149132 -150884 -152650 -154434 -156234 -158051 -159885 -161736 -163606 -165494 -167400 -169324 -171267 -173229 -175208 -177205 -179218 -181249 -183294 -185353 -187425 -189507 -191598 -193695 -195796 -197898 -200000 -16463.8 -17562.7 -18663.1 -19765 -20868.4 -21973.6 -23080.4 -24189 -25299.5 -26411.9 -27526.4 -28642.9 -29761.5 -30882.4 -32005.6 -33131.1 -34259.1 -35389.6 -36522.7 -37658.5 -38797 -39938.4 -41082.6 -42229.9 -43380.2 -44533.6 -45690.2 -46850.2 -48013.5 -49180.2 -50350.5 -51524.5 -52702.1 -53883.5 -55068.9 -56258.1 -57451.4 -58648.9 -59850.6 -61056.6 -62267 -63481.8 -64701.3 -65925.5 -67154.4 -68388.2 -69627 -70870.9 -72119.9 -73374.2 -74633.8 -75898.9 -77169.6 -78446 -79728.2 -81016.3 -82310.4 -83610.6 -84917.1 -86229.9 -87549.2 -88875.1 -90207.7 -91547.2 -92893.7 -94247.3 -95608.1 -96976.3 -98352 -99735.4 -101127 -102526 -103933 -105349 -106772 -108205 -109646 -111097 -112556 -114025 -115503 -116990 -118488 -119996 -121514 -123043 -124582 -126132 -127694 -129267 -130852 -132448 -134057 -135679 -137313 -138961 -140622 -142297 -143986 -145690 -147408 -149142 -150891 -152656 -154437 -156236 -158051 -159883 -161734 -163602 -165488 -167393 -169317 -171259 -173219 -175198 -177194 -179208 -181238 -183284 -185344 -187416 -189500 -191592 -193690 -195793 -197897 -200000 -16624.6 -17722.2 -18821.3 -19921.9 -21024.1 -22127.9 -23233.5 -24340.8 -25450 -26561.2 -27674.3 -28789.6 -29906.9 -31026.6 -32148.5 -33272.8 -34399.5 -35528.7 -36660.6 -37795.1 -38932.4 -40072.5 -41215.5 -42361.4 -43510.5 -44662.6 -45818 -46976.7 -48138.7 -49304.2 -50473.2 -51645.9 -52822.3 -54002.4 -55186.4 -56374.4 -57566.4 -58762.6 -59963 -61167.6 -62376.7 -63590.3 -64808.5 -66031.3 -67258.9 -68491.3 -69728.8 -70971.3 -72218.9 -73471.8 -74730.1 -75993.8 -77263.1 -78538.1 -79818.8 -81105.5 -82398.1 -83696.9 -85001.9 -86313.3 -87631.1 -88955.5 -90286.6 -91624.6 -92969.5 -94321.5 -95680.8 -97047.4 -98421.5 -99803.3 -101193 -102590 -103996 -105410 -106832 -108263 -109702 -111151 -112609 -114075 -115552 -117038 -118534 -120040 -121556 -123083 -124620 -126168 -127728 -129299 -130882 -132477 -134084 -135703 -137336 -138981 -140641 -142314 -144001 -145702 -147419 -149151 -150898 -152661 -154441 -156237 -158051 -159882 -161730 -163597 -165482 -167386 -169308 -171250 -173209 -175188 -177184 -179197 -181228 -183274 -185334 -187408 -189492 -191585 -193685 -195789 -197895 -200000 -16785.4 -17881.7 -18979.5 -20078.8 -21179.7 -22282.2 -23386.5 -24492.5 -25600.5 -26710.4 -27822.2 -28936.2 -30052.3 -31170.7 -32291.3 -33414.4 -34539.8 -35667.8 -36798.4 -37931.7 -39067.7 -40206.5 -41348.2 -42493 -43640.7 -44791.6 -45945.7 -47103.1 -48263.9 -49428.1 -50595.9 -51767.3 -52942.4 -54121.2 -55304 -56490.7 -57681.4 -58876.2 -60075.3 -61278.7 -62486.4 -63698.7 -64915.5 -66137 -67363.3 -68594.4 -69830.5 -71071.6 -72317.9 -73569.4 -74826.3 -76088.6 -77356.5 -78630.1 -79909.4 -81194.6 -82485.8 -83783.1 -85086.7 -86396.5 -87712.9 -89035.8 -90365.4 -91701.8 -93045.2 -94395.6 -95753.3 -97118.3 