<?xml version="1.0"?> 
<VTKFile type="StructuredGrid" version="0.1"> 
<StructuredGrid WholeExtent="0 127 0 127 0 0"> 
<Piece Extent="0 127 0 127 0 0"> 
<PointData>
<DataArray type="Float32" Name="u" format="ascii" NumberOfComponents="1"> 
-155650 -152168 -148800 -145537 -142372 -139297 -136305 -133392 -130552 -127780 -125072 -122426 -119837 -117302 -114819 -112386 -110001 -107660 -105364 -103109 -100894 -98718.3 -96580.3 -94478.8 -92412.6 -90380.9 -88382.5 -86416.7 -84482.7 -82579.6 -80706.9 -78863.8 -77049.7 -75264.2 -73506.5 -71776.3 -70073 -68396.3 -66745.6 -65120.6 -63521 -61946.3 -60396.2 -58870.4 -57368.7 -55890.6 -54436 -53004.5 -51595.9 -50210 -48846.5 -47505.2 -46185.9 -44888.4 -43612.4 -42357.9 -41124.4 -39912 -38720.5 -37549.5 -36399.1 -35268.9 -34158.9 -33069 -31998.8 -30948.4 -29917.5 -28906.1 -27913.9 -26940.9 -25986.9 -25051.8 -24135.5 -23237.8 -22358.6 -21497.9 -20655.4 -19831.1 -19024.9 -18236.7 -17466.3 -16713.7 -15978.7 -15261.3 -14561.4 -13878.8 -13213.6 -12565.5 -11934.5 -11320.6 -10723.6 -10143.5 -9580.21 -9033.61 -8503.65 -7990.26 -7493.37 -7012.92 -6548.84 -6101.07 -5669.56 -5254.23 -4855.05 -4471.94 -4104.87 -3753.78 -3418.63 -3099.36 -2795.94 -2508.33 -2236.49 -1980.37 -1739.95 -1515.19 -1306.07 -1112.55 -934.607 -772.219 -625.363 -494.019 -378.169 -277.798 -192.891 -123.438 -69.4282 -30.8552 -7.71355 0 -156006 -152528 -149164 -145905 -142743 -139672 -136684 -133774 -130936 -128167 -125463 -122819 -120232 -117700 -115219 -112789 -110405 -108066 -105771 -103518 -101305 -99131 -96994.3 -94894 -92829 -90798.2 -88800.8 -86835.7 -84902.4 -82999.9 -81127.6 -79284.8 -77471 -75685.5 -73927.8 -72197.5 -70494 -68816.9 -67165.7 -65540.2 -63939.8 -62364.3 -60813.3 -59286.5 -57783.6 -56304.3 -54848.3 -53415.3 -52005.2 -50617.6 -49252.3 -47909.1 -46587.8 -45288.2 -44010 -42753.1 -41517.3 -40302.4 -39108.2 -37934.5 -36781.2 -35648.2 -34535.2 -33442.1 -32368.8 -31315.1 -30280.8 -29265.9 -28270.2 -27293.6 -26335.8 -25396.9 -24476.7 -23575 -22691.7 -21826.8 -20980.1 -20151.5 -19340.9 -18548.1 -17773.2 -17015.9 -16276.2 -15554 -14849.2 -14161.7 -13491.4 -12838.2 -12202 -11582.8 -10980.5 -10395 -9826.13 -9273.94 -8738.31 -8219.18 -7716.47 -7230.12 -6760.06 -6306.24 -5868.58 -5447.04 -5041.55 -4652.07 -4278.53 -3920.9 -3579.11 -3253.14 -2942.92 -2648.42 -2369.6 -2106.43 -1858.86 -1626.86 -1410.4 -1209.46 -1024 -853.992 -699.423 -560.267 -436.505 -328.119 -235.095 -157.419 -95.0796 -48.0677 -16.3762 0 -156363 -152889 -149529 -146274 -143116 -140048 -137063 -134156 -131322 -128556 -125854 -123213 -120629 -118099 -115621 -113192 -110811 -108474 -106181 -103929 -101718 -99545.1 -97409.8 -95310.8 -93246.9 -91217.1 -89220.5 -87256.3 -85323.6 -83421.6 -81549.8 -79707.3 -77893.7 -76108.3 -74350.7 -72620.2 -70916.4 -69239 -67587.3 -65961.2 -64360.2 -62783.9 -61231.9 -59704.1 -58200.1 -56719.5 -55262.1 -53827.7 -52416 -51026.7 -49659.6 -48314.5 -46991.2 -45689.4 -44409.1 -43149.8 -41911.6 -40694.1 -39497.3 -38320.9 -37164.8 -36028.9 -34912.9 -33816.7 -32740.1 -31683.1 -30645.5 -29627.1 -28627.8 -27647.5 -26686 -25743.3 -24819.1 -23913.4 -23026 -22156.9 -21306 -20473 -19658 -18860.7 -18081.2 -17319.2 -16574.8 -15847.8 -15138 -14445.5 -13770.1 -13111.8 -12470.4 -11845.9 -11238.2 -10647.2 -10072.8 -9515.04 -8973.71 -8448.81 -7940.25 -7447.97 -6971.91 -6511.99 -6068.17 -5640.38 -5228.57 -4832.68 -4452.65 -4088.45 -3740 -3407.29 -3090.24 -2788.84 -2503.02 -2232.76 -1978.01 -1738.75 -1514.94 -1306.55 -1113.55 -935.906 -773.605 -626.619 -494.928 -378.512 -277.355 -191.442 -120.76 -65.2982 -25.0471 0 -156720 -153251 -149895 -146644 -143490 -140426 -137444 -134541 -131709 -128946 -126247 -123608 -121027 -118500 -116024 -113597 -111218 -108883 -106592 -104342 -102132 -99960.7 -97826.8 -95729 -93666.2 -91637.4 -89641.8 -87678.3 -85746.3 -83844.9 -81973.5 -80131.4 -78318 -76532.7 -74775 -73044.4 -71340.4 -69662.6 -68010.5 -66383.8 -64782 -63204.9 -61652.1 -60123.2 -58618 -57136.2 -55677.5 -54241.6 -52828.3 -51437.3 -50068.4 -48721.4 -47396.1 -46092.2 -44809.6 -43548 -42307.4 -41087.4 -39887.9 -38708.8 -37549.9 -36411 -35291.9 -34192.6 -33112.9 -32052.6 -31011.5 -29989.6 -28986.8 -28002.8 -27037.5 -26090.9 -25162.8 -24253.1 -23361.6 -22488.3 -21633 -20795.7 -19976.2 -19174.4 -18390.3 -17623.6 -16874.4 -16142.5 -15427.9 -14730.4 -14049.9 -13386.4 -12739.7 -12109.9 -11496.8 -10900.3 -10320.4 -9756.91 -9209.87 -8679.16 -8164.73 -7666.49 -7184.39 -6718.36 -6268.35 -5834.28 -5416.12 -5013.79 -4627.24 -4256.44 -3901.31 -3561.83 -3237.93 -2929.59 -2636.75 -2359.38 -2097.43 -1850.89 -1619.7 -1403.83 -1203.27 -1017.97 -847.917 -693.082 -553.444 -428.981 -319.676 -225.511 -146.473 -82.5488 -33.7273 0 -157079 -153614 -150263 -147016 -143866 -140805 -137827 -134926 -132098 -129338 -126642 -124006 -121426 -118902 -116428 -114004 -111626 -109294 -107004 -104756 -102548 -100378 -98245.2 -96148.6 -94087 -92059.3 -90064.5 -88101.8 -86170.5 -84269.7 -82398.7 -80556.9 -78743.7 -76958.6 -75200.9 -73470.1 -71765.9 -70087.7 -68435.2 -66807.9 -65205.5 -63627.5 -62073.8 -60543.9 -59037.5 -57554.5 -56094.4 -54657 -53242.1 -51849.4 -50478.7 -49129.8 -47802.5 -46496.5 -45211.6 -43947.7 -42704.6 -41482.1 -40280 -39098.1 -37936.4 -36794.5 -35672.5 -34570 -33487 -32423.4 -31378.9 -30353.5 -29347.1 -28359.4 -27390.3 -26439.8 -25507.8 -24594 -23698.4 -22820.9 -21961.3 -21119.6 -20295.6 -19489.3 -18700.5 -17929.2 -17175.1 -16438.4 -15718.8 -15016.2 -14330.6 -13661.9 -13010 -12374.8 -11756.2 -11154.2 -10568.7 -9999.58 -9446.79 -8910.25 -8389.91 -7885.69 -7397.53 -6925.36 -6469.12 -6028.75 -5604.2 -5195.41 -4802.32 -4424.88 -4063.05 -3716.77 -3386 -3070.69 -2770.8 -2486.29 -2217.13 -1963.27 -1724.67 -1501.32 -1293.17 -1100.19 -922.366 -759.663 -612.058 -479.53 -362.06 -259.629 -172.221 -99.8212 -42.4178 0 -157440 -153979 -150632 -147389 -144242 -141185 -138210 -135313 -132488 -129731 -127037 -124404 -121827 -119305 -116834 -114412 -112036 -109706 -107418 -105171 -102965 -100796 -98665.1 -96569.8 -94509.3 -92482.6 -90488.8 -88526.9 -86596.2 -84696 -82825.5 -80984 -79171.1 -77386 -75628.3 -73897.4 -72192.9 -70514.4 -68861.4 -67233.5 -65630.4 -64051.7 -62497 -60966.1 -59458.6 -57974.2 -56512.8 -55073.9 -53657.4 -52263.1 -50890.6 -49539.7 -48210.4 -46902.2 -45615.1 -44348.9 -43103.4 -41878.3 -40673.5 -39488.9 -38324.3 -37179.5 -36054.4 -34948.8 -33862.6 -32795.6 -31747.7 -30718.8 -29708.7 -28717.3 -27744.5 -26790.1 -25854.1 -24936.2 -24036.5 -23154.7 -22290.8 -21444.7 -20616.3 -19805.3 -19011.9 -18235.8 -17477 -16735.3 -16010.7 -15303 -14612.3 -13938.4 -13281.2 -12640.6 -12016.6 -11409 -10817.9 -10243.1 -9684.49 -9142.1 -8615.82 -8105.59 -7611.33 -7132.99 -6670.5 -6223.8 -5792.84 -5377.55 -4977.89 -4593.8 -4225.23 -3872.12 -3534.45 -3212.15 -2905.19 -2613.52 -2337.1 -2075.9 -1829.89 -1599.01 -1383.26 -1182.58 -996.96 -826.367 -670.777 -530.166 -404.513 -293.799 -198.006 -117.117 -51.1193 0 -157801 -154345 -151002 -147763 -144620 -141566 -138595 -135701 -132879 -130125 -127434 -124804 -122230 -119710 -117241 -114821 -112448 -110119 -107833 -105588 -103383 -101216 -99086.6 -96992.5 -94933.2 -92907.5 -90914.5 -88953.5 -87023.5 -85123.8 -83253.7 -81412.6 -79599.9 -77814.9 -76057.2 -74326.3 -72621.5 -70942.7 -69289.2 -67660.7 -66056.9 -64477.4 -62921.8 -61389.8 -59881.2 -58395.6 -56932.8 -55492.4 -54074.3 -52678.3 -51304 -49951.2 -48619.8 -47309.5 -46020.2 -44751.6 -43503.6 -42276 -41068.6 -39881.2 -38713.8 -37566 -36437.8 -35329.1 -34239.6 -33169.3 -32117.9 -31085.5 -30071.8 -29076.6 -28100 -27141.7 -26201.7 -25279.7 -24375.8 -23489.8 -22621.6 -21771 -20938.1 -20122.6 -19324.4 -18543.6 -17779.9 -17033.3 -16303.7 -15590.9 -14895 -14215.9 -13553.3 -12907.3 -12277.8 -11664.7 -11067.9 -10487.4 -9922.99 -9374.71 -8842.47 -8326.2 -7825.82 -7341.28 -6872.51 -6419.45 -5982.05 -5560.24 -5153.97 -4763.2 -4387.86 -4027.91 -3683.3 -3353.98 -3039.92 -2741.06 -2457.37 -2188.81 -1935.34 -1696.93 -1473.54 -1265.14 -1071.7 -893.202 -729.606 -580.893 -447.04 -328.025 -223.831 -134.439 -59.833 0 -158164 -154712 -151373 -148138 -144999 -141949 -138981 -136091 -133272 -130521 -127833 -125205 -122634 -120116 -117650 -115232 -112861 -110534 -108250 -106007 -103803 -101638 -99509.5 -97416.7 -95358.5 -93333.9 -91341.8 -89381.6 -87452.3 -85553.2 -83683.6 -81842.8 -80030.3 -78245.5 -76487.7 -74756.6 -73051.7 -71372.5 -69718.6 -68089.5 -66485 -64904.7 -63348.2 -61815.2 -60305.4 -58818.5 -57354.3 -55912.5 -54492.8 -53095 -51718.9 -50364.2 -49030.8 -47718.4 -46426.8 -45155.9 -43905.4 -42675.2 -41465.2 -40275 -39104.7 -37954 -36822.7 -35710.8 -34618.1 -33544.4 -32489.6 -31453.6 -30436.2 -29437.3 -28456.9 -27494.7 -26550.6 -25624.6 -24716.5 -23826.2 -22953.6 -22098.6 -21261.1 -20441 -19638.1 -18852.5 -18083.9 -17332.4 -16597.7 -15879.9 -15178.8 -14494.3 -13826.4 -13175 -12540 -11921.3 -11318.8 -10732.5 -10162.3 -9608.11 -9069.88 -8547.53 -8041.01 -7550.24 -7075.16 -6615.71 -6171.84 -5743.48 -5330.58 -4933.09 -4550.96 -4184.13 -3832.56 -3496.2 -3175.01 -2868.94 -2577.94 -2302 -2041.05 -1795.07 -1564.03 -1347.88 -1146.61 -960.173 -788.551 -631.716 -489.643 -362.311 -249.699 -151.787 -68.5596 0 -158527 -155080 -151746 -148515 -145380 -142333 -139369 -136482 -133666 -130918 -128233 -125608 -123039 -120524 -118060 -115644 -113275 -110950 -108668 -106427 -104225 -102061 -99934 -97842.4 -95785.4 -93761.8 -91770.7 -89811.2 -87882.6 -85984.1 -84115 -82274.6 -80462.3 -78677.5 -76919.8 -75188.6 -73483.4 -71803.9 -70149.5 -68519.9 -66914.7 -65333.5 -63776.1 -62242.1 -60731.1 -59243 -57777.4 -56334.1 -54912.8 -53513.3 -52135.4 -50778.8 -49443.3 -48128.8 -46835 -45561.7 -44308.7 -43076 -41863.2 -40670.3 -39497.1 -38343.4 -37209.1 -36094 -34998 -33920.9 -32862.7 -31823.1 -30802 -29799.4 -28815.1 -27849 -26900.9 -25970.8 -25058.4 -24163.9 -23286.9 -22427.4 -21585.4 -20760.6 -19953 -19162.6 -18389.1 -17632.6 -16892.9 -16169.9 -15463.6 -14773.8 -14100.5 -13443.7 -12803.1 -12178.8 -11570.6 -10978.5 -10402.4 -9842.31 -9298.06 -8769.61 -8256.91 -7759.88 -7278.46 -6812.6 -6362.22 -5927.29 -5507.73 -5103.5 -4714.54 -4340.81 -3982.25 -3638.82 -3310.46 -2997.15 -2698.83 -2415.47 -2147.02 -1893.45 -1654.73 -1430.81 -1221.68 -1027.29 -847.619 -682.64 -532.329 -396.66 -275.613 -169.165 -77.3002 0 -158892 -155450 -152119 -148893 -145761 -142719 -139758 -136874 -134061 -131316 -128634 -126012 -123446 -120933 -118471 -116058 -113691 -111368 -109088 -106848 -104648 -102486 -100360 -98269.7 -96213.8 -94191.2 -92201.1 -90242.4 -88314.5 -86416.6 -84547.9 -82707.9 -80895.8 -79111.2 -77353.5 -75622.2 -73916.8 -72236.9 -70582 -68951.8 -67345.9 -65764 -64205.6 -62670.5 -61158.5 -59669.1 -58202.1 -56757.3 -55334.5 -53933.3 -52553.5 -51195 -49857.5 -48540.7 -47244.7 -45969 -44713.6 -43478.3 -42262.9 -41067.2 -39891.1 -38734.4 -37597 -36478.7 -35379.4 -34298.9 -33237.2 -32194 -31169.3 -30162.9 -29174.8 -28204.7 -27252.5 -26318.3 -25401.7 -24502.8 -23621.5 -22757.5 -21910.9 -21081.4 -20269.1 -19473.8 -18695.5 -17933.9 -17189.1 -16461 -15749.4 -15054.4 -14375.7 -13713.3 -13067.1 -12437.2 -11823.3 -11225.4 -10643.4 -10077.3 -9527.03 -8992.45 -8473.54 -7970.22 -7482.44 -7010.12 -6553.22 -6111.68 -5685.43 -5274.43 -4878.62 -4497.95 -4132.37 -3781.84 -3446.3 -3125.72 -2820.05 -2529.24 -2253.26 -1992.08 -1745.65 -1513.94 -1296.92 -1094.55 -906.813 -733.671 -575.1 -431.076 -301.574 -186.574 -86.0557 0 -159258 -155820 -152494 -149272 -146144 -143105 -140148 -137268 -134458 -131716 -129037 -126417 -123854 -121344 -118884 -116473 -114108 -111787 -109509 -107271 -105072 -102912 -100787 -98698.5 -96643.7 -94622.2 -92633 -90675.2 -88748 -86850.6 -84982.4 -83142.7 -81330.9 -79546.4 -77788.7 -76057.3 -74351.7 -72671.4 -71016.1 -69385.4 -67778.8 -66196 -64636.7 -63100.6 -61587.4 -60096.8 -58628.4 -57182.2 -55757.7 -54354.8 -52973.2 -51612.7 -50273.2 -48954.3 -47656 -46377.9 -45120.1 -43882.1 -42664 -41465.5 -40286.5 -39126.9 -37986.3 -36864.9 -35762.3 -34678.4 -33613.2 -32566.4 -31538 -30527.9 -29535.8 -28561.8 -27605.6 -26667.1 -25746.4 -24843.1 -23957.3 -23088.9 -22237.6 -21403.5 -20586.4 -19786.3 -19003 -18236.4 -17486.5 -16753.2 -16036.4 -15335.9 -14651.8 -13983.9 -13332.2 -12696.5 -12076.9 -11473.1 -10885.3 -10313.2 -9756.79 -9216.06 -8690.91 -8181.28 -7687.09 -7208.3 -6744.85 -6296.66 -5863.7 -5445.9 -5043.2 -4655.57 -4282.95 -3925.28 -3582.53 -3254.65 -2941.59 -2643.32 -2359.79 -2090.96 -1836.8 -1597.27 -1372.34 -1161.98 -966.142 -784.814 -617.962 -465.561 -327.587 -204.016 -94.827 0 -159625 -156192 -152871 -149652 -146529 -143493 -140540 -137662 -134856 -132117 -129441 -126824 -124263 -121756 -119299 -116890 -114527 -112208 -109931 -107695 -105499 -103339 -101216 -99128.8 -97075.2 -95054.8 -93066.5 -91109.5 -89183 -87286.3 -85418.5 -83579.2 -81767.6 -79983.3 -78225.6 -76494 -74788.2 -73107.6 -71451.8 -69820.5 -68213.2 -66629.7 -65069.5 -63532.4 -62018 -60526.1 -59056.4 -57608.6 -56182.5 -54777.9 -53394.5 -52032.1 -50690.5 -49369.4 -48068.8 -46788.4 -45528.1 -44287.6 -43066.8 -41865.5 -40683.6 -39520.9 -38377.3 -37252.6 -36146.7 -35059.4 -33990.7 -32940.3 -31908.2 -30894.2 -29898.3 -28920.3 -27960 -27017.4 -26092.4 -25184.8 -24294.5 -23421.5 -22565.7 -21726.9 -20905 -20100 -19311.7 -18540.1 -17785.1 -17046.5 -16324.4 -15618.6 -14929 -14255.6 -13598.2 -12956.8 -12331.4 -11721.8 -11128 -10549.9 -9987.38 -9440.46 -8909.04 -8393.06 -7892.45 -7407.16 -6937.11 -6482.26 -6042.54 -5617.91 -5208.31 -4813.68 -4433.98 -4069.16 -3719.17 -3383.96 -3063.49 -2757.72 -2466.61 -2190.11 -1928.19 -1680.82 -1447.95 -1229.56 -1025.61 -836.073 -660.919 -500.121 -353.654 -221.493 -103.615 0 -159994 -156565 -153248 -150034 -146914 -143883 -140933 -138059 -135256 -132520 -129847 -127232 -124674 -122169 -119714 -117308 -114947 -112630 -110356 -108121 -105926 -103768 -101647 -99560.7 -97508.3 -95488.9 -93501.6 -91545.4 -89619.6 -87723.5 -85856.2 -84017.3 -82205.9 -80421.7 -78664 -76932.4 -75226.3 -73545.4 -71889.2 -70257.3 -68649.3 -67065 -65503.9 -63965.7 -62450.2 -60957 -59485.9 -58036.6 -56609 -55202.6 -53817.4 -52453 -51109.4 -49786.2 -48483.3 -47200.5 -45937.7 -44694.6 -43471.1 -42267 -41082.2 -39916.5 -38769.7 -37641.8 -36532.6 -35441.9 -34369.6 -33315.7 -32279.9 -31262.1 -30262.2 -29280.2 -28315.8 -27369 -26439.7 -25527.8 -24633.1 -23755.5 -22895 -22051.5 -21224.8 -20414.9 -19621.6 -18845 -18084.8 -17341 -16613.6 -15902.3 -15207.2 -14528.2 -13865.2 -13218.1 -12586.9 -11971.4 -11371.6 -10787.4 -10218.8 -9665.67 -9127.95 -8605.59 -8098.53 -7606.69 -7130.03 -6668.48 -6221.99 -5790.49 -5373.95 -4972.3 -4585.49 -4213.48 -3856.21 -3513.65 -3185.74 -2872.45 -2573.72 -2289.53 -2019.83 -1764.58 -1523.76 -1297.31 -1085.22 -887.454 -703.974 -534.758 -379.777 -239.006 -112.421 0 -160363 -156939 -153627 -150417 -147301 -144273 -141327 -138456 -135657 -132924 -130253 -127642 -125087 -122584 -120132 -117727 -115369 -113054 -110781 -108549 -106355 -104199 -102079 -99994.1 -97942.9 -95924.6 -93938.2 -91982.9 -90057.9 -88162.3 -86295.5 -84456.9 -82645.9 -80861.8 -79104.1 -77372.4 -75666.1 -73984.8 -72328.1 -70695.7 -69087 -67501.9 -65939.9 -64400.7 -62884 -61389.6 -59917.1 -58466.3 -57037 -55629 -54241.9 -52875.6 -51529.9 -50204.5 -48899.4 -47614.2 -46348.9 -45103.2 -43877 -42670.1 -41482.3 -40313.6 -39163.7 -38032.6 -36920 -35825.9 -34750.1 -33692.5 -32653 -31631.4 -30627.6 -29641.5 -28673.1 -27722.1 -26788.5 -25872.1 -24973 -24090.8 -23225.7 -22377.4 -21545.9 -20731 -19932.8 -19151 -18385.7 -17636.6 -16903.8 -16187.2 -15486.6 -14802 -14133.3 -13480.4 -12843.3 -12221.9 -11616.1 -11025.9 -10451.1 -9891.69 -9347.65 -8818.88 -8305.33 -7806.93 -7323.62 -6855.34 -6402.03 -5963.65 -5540.13 -5131.43 -4737.49 -4358.25 -3993.69 -3643.74 -3308.36 -2987.51 -2681.15 -2389.23 -2111.72 -1848.58 -1599.76 -1365.24 -1144.99 -938.961 -747.134 -569.475 -405.959 -256.557 -121.245 0 -160734 -157315 -154007 -150801 -147689 -144665 -141723 -138855 -136059 -133329 -130662 -128053 -125500 -123000 -120551 -118149 -115792 -113479 -111209 -108978 -106786 -104631 -102513 -100429 -98379.1 -96361.9 -94376.5 -92422 -90497.7 -88602.7 -86736.4 -84898.2 -83087.4 -81303.4 -79545.8 -77814 -76107.5 -74425.9 -72768.8 -71135.7 -69526.4 -67940.4 -66377.5 -64837.3 -63319.4 -61823.8 -60349.9 -58897.7 -57466.8 -56057 -54668.1 -53299.8 -51952.1 -50624.5 -49317.1 -48029.5 -46761.7 -45513.4 -44284.5 -43074.7 -41884.1 -40712.3 -39559.3 -38424.9 -37309 -36211.5 -35132.1 -34070.9 -33027.6 -32002.2 -30994.5 -30004.4 -29031.8 -28076.6 -27138.6 -26217.9 -25314.2 -24427.5 -23557.7 -22704.6 -21868.3 -21048.5 -20245.2 -19458.3 -18687.7 -17933.4 -17195.2 -16473.1 -15767 -15076.8 -14402.4 -13743.7 -13100.8 -12473.4 -11861.6 -11265.2 -10684.2 -10118.5 -9568.15 -9032.95 -8512.88 -8007.88 -7517.89 -7042.85 -6582.71 -6137.4 -5706.88 -5291.09 -4889.98 -4503.5 -4131.6 -3774.24 -3431.36 -3102.93 -2788.9 -2489.23 -2203.88 -1932.81 -1675.98 -1433.36 -1204.91 -990.602 -790.401 -604.277 -432.203 -274.149 -130.089 0 -161106 -157691 -154388 -151186 -148079 -145059 -142120 -139256 -136463 -133736 -131072 -128466 -125916 -123418 -120971 -118571 -116217 -113906 -111637 -109409 -107218 -105065 -102948 -100866 -98816.9 -96800.8 -94816.3 -92862.7 -90939.1 -89044.7 -87179 -85341.1 -83530.6 -81746.7 -79989.1 -78257.2 -76550.5 -74868.6 -73211 -71577.4 -69967.4 -68380.6 -66816.8 -65275.5 -63756.6 -62259.6 -60784.4 -59330.6 -57898.1 -56486.6 -55095.9 -53725.7 -52375.9 -51046.2 -49736.5 -48446.5 -47176.2 -45925.2 -44693.6 -43481 -42287.4 -41112.6 -39956.5 -38818.8 -37699.6 -36598.6 -35515.7 -34450.8 -33403.7 -32374.5 -31362.8 -30368.7 -29391.9 -28432.5 -27490.2 -26565 -25656.9 -24765.5 -23891 -23033.2 -22191.9 -21367.2 -20558.8 -19766.8 -18991 -18231.4 -17487.8 -16760.2 -16048.5 -15352.6 -14672.5 -14008 -13359.2 -12725.8 -12107.9 -11505.4 -10918.2 -10346.3 -9789.47 -9247.8 -8721.19 -8209.56 -7712.86 -7231.03 -6764.01 -6311.75 -5874.2 -5451.29 -5042.99 -4649.23 -4269.97 -3905.16 -3554.75 -3218.71 -2896.98 -2589.53 -2296.31 -2017.28 -1752.41 -1501.66 -1265 -1042.38 -833.78 -639.168 -458.511 -291.782 -138.954 0 -161478 -158069 -154770 -151573 -148470 -145453 -142518 -139658 -136868 -134144 -131483 -128880 -126333 -123838 -121393 -118995 -116643 -114335 -112068 -109841 -107652 -105501 -103385 -101304 -99256.3 -97241.2 -95257.7 -93305 -91382.1 -89488.4 -87623.1 -85785.6 -83975.4 -82191.7 -80434.1 -78702.1 -76995.2 -75312.9 -73654.9 -72020.8 -70410.1 -68822.5 -67257.8 -65715.5 -64195.4 -62697.1 -61220.5 -59765.3 -58331.2 -56917.9 -55525.4 -54153.2 -52801.3 -51469.5 -50157.5 -48865.1 -47592.2 -46338.7 -45104.3 -43888.9 -42692.4 -41514.5 -40355.2 -39214.3 -38091.7 -36987.3 -35900.8 -34832.2 -33781.4 -32748.3 -31732.6 -30734.4 -29753.5 -28789.8 -27843.2 -26913.6 -26000.9 -25104.9 -24225.7 -23363 -22516.9 -21687.2 -20873.7 -20076.6 -19295.5 -18530.5 -17781.5 -17048.4 -16331.2 -15629.6 -14943.7 -14273.4 -13618.6 -12979.3 -12355.3 -11746.6 -11153.1 -10574.8 -10011.6 -9463.47 -8930.27 -8411.98 -7908.54 -7419.89 -6945.97 -6486.73 -6042.11 -5612.05 -5196.52 -4795.45 -4408.79 -4036.51 -3678.54 -3334.85 -3005.4 -2690.13 -2389.02 -2102.01 -1829.07 -1570.16 -1325.25 -1094.3 -877.276 -674.15 -484.887 -309.46 -147.84 0 -161853 -158448 -155154 -151961 -148862 -145849 -142917 -140061 -137274 -134554 -131896 -129296 -126751 -124259 -121816 -119421 -117071 -114765 -112500 -110274 -108087 -105938 -103823 -101744 -99697.2 -97683.3 -95700.8 -93748.9 -91826.8 -89933.7 -88068.9 -86231.8 -84421.8 -82638.3 -80880.7 -79148.6 -77441.5 -75758.9 -74100.5 -72465.8 -70854.4 -69266.1 -67700.4 -66157.1 -64635.8 -63136.3 -61658.4 -60201.6 -58765.9 -57350.9 -55956.5 -54582.4 -53228.5 -51894.4 -50580.1 -49285.4 -48010 -46753.8 -45516.7 -44298.5 -43099 -41918.1 -40755.6 -39611.4 -38485.5 -37377.5 -36287.5 -35215.2 -34160.6 -33123.6 -32104 -31101.7 -30116.6 -29148.7 -28197.7 -27263.6 -26346.3 -25445.8 -24561.8 -23694.3 -22843.2 -22008.5 -21190 -20387.6 -19601.3 -18830.9 -18076.5 -17337.8 -16614.9 -15907.7 -15216 -14539.8 -13879.1 -13233.7 -12603.6 -11988.7 -11389 -10804.3 -10234.6 -9679.95 -9140.14 -8615.16 -8104.95 -7609.44 -7128.59 -6662.33 -6210.61 -5773.38 -5350.58 -4942.17 -4548.09 -4168.3 -3802.74 -3451.38 -3114.17 -2791.06 -2482.02 -2186.99 -1905.96 -1638.86 -1385.68 -1146.37 -920.894 -709.227 -511.334 -327.184 -156.749 0 -162228 -158828 -155539 -152350 -149255 -146247 -143318 -140465 -137682 -134965 -132310 -129712 -127171 -124681 -122241 -119848 -117500 -115196 -112933 -110710 -108524 -106376 -104263 -102185 -100140 -98126.9 -96145.4 -94194.4 -92273 -90380.6 -88516.3 -86679.6 -84869.9 -83086.5 -81329 -79596.8 -77889.5 -76206.6 -74547.8 -72912.5 -71300.5 -69711.3 -68144.7 -66600.4 -65078 -63577.2 -62097.9 -60639.7 -59202.3 -57785.6 -56389.4 -55013.3 -53657.3 -52321.1 -51004.5 -49707.3 -48429.4 -47170.6 -45930.7 -44709.7 -43507.2 -42323.2 -41157.6 -40010.2 -38880.8 -37769.4 -36675.7 -35599.8 -34541.4 -33500.5 -32476.9 -31470.5 -30481.2 -29509 -28553.6 -27615.1 -26693.2 -25788 -24899.2 -24026.9 -23170.9 -22331.1 -21507.5 -20699.9 -19908.3 -19132.5 -18372.6 -17628.4 -16899.9 -16186.9 -15489.4 -14807.3 -14140.6 -13489.1 -12852.9 -12231.8 -11625.7 -11034.6 -10458.5 -9897.27 -9350.82 -8819.12 -8302.1 -7799.71 -7311.89 -6838.58 -6379.73 -5935.29 -5505.2 -5089.41 -4687.88 -4300.54 -3927.37 -3568.3 -3223.3 -2892.32 -2575.31 -2272.25 -1983.08 -1707.77 -1446.29 -1198.59 -964.637 -744.403 -537.853 -344.956 -165.681 0 -162604 -159210 -155925 -152741 -149650 -146645 -143721 -140871 -138091 -135377 -132725 -130131 -127592 -125105 -122667 -120277 -117931 -115629 -113368 -111146 -108963 -106816 -104705 -102628 -100584 -98572.2 -96591.7 -94641.6 -92720.9 -90829.1 -88965.4 -87129.1 -85319.6 -83536.4 -81779 -80046.7 -78339.2 -76656 -74996.7 -73360.9 -71748.2 -70158.2 -68590.8 -67045.4 -65521.8 -64019.8 -62539.1 -61079.4 -59640.4 -58222 -56823.9 -55445.9 -54087.8 -52749.4 -51430.5 -50130.9 -48850.5 -47589.1 -46346.4 -45122.5 -43917.1 -42730 -41561.2 -40410.5 -39277.7 -38162.8 -37065.6 -35985.9 -34923.8 -33878.9 -32851.3 -31840.8 -30847.4 -29870.8 -28911.1 -27968 -27041.6 -26131.6 -25238.1 -24360.9 -23499.9 -22655.1 -21826.3 -21013.5 -20216.6 -19435.4 -18670 -17920.2 -17186 -16467.3 -15763.9 -15075.9 -14403.2 -13745.6 -13103.2 -12475.8 -11863.4 -11265.9 -10683.3 -10115.4 -9562.32 -9023.86 -8500.01 -7990.7 -7495.88 -7015.49 -6549.48 -6097.8 -5660.38 -5237.19 -4828.16 -4433.26 -4052.42 -3685.62 -3332.8 -2993.91 -2668.92 -2357.78 -2060.46 -1776.9 -1507.09 -1250.97 -1008.51 -779.682 -564.448 -362.777 -174.637 0 -162982 -159592 -156312 -153132 -150046 -147045 -144124 -141278 -138502 -135791 -133142 -130551 -128014 -125530 -123095 -120707 -118364 -116063 -113804 -111585 -109403 -107258 -105148 -103072 -101030 -99019.1 -97039.6 -95090.3 -93170.5 -91279.3 -89416.1 -87580.2 -85771.1 -83988 -82230.6 -80498.3 -78790.6 -77107.1 -75447.3 -73811 -72197.6 -70606.9 -69038.5 -67492.1 -65967.4 -64464.1 -62982 -61520.8 -60080.2 -58660.1 -57260.1 -55880.2 -54520 -53179.4 -51858.2 -50556.2 -49273.3 -48009.2 -46763.8 -45537 -44328.6 -43138.5 -41966.5 -40812.5 -39676.3 -38557.9 -37457.1 -36373.7 -35307.7 -34258.9 -33227.3 -32212.7 -31215 -30234.1 -29270 -28322.4 -27391.4 -26476.7 -25578.4 -24696.3 -23830.3 -22980.4 -22146.5 -21328.4 -20526.1 -19739.6 -18968.6 -18213.2 -17473.3 -16748.8 -16039.6 -15345.6 -14666.8 -14003.2 -13354.5 -12720.8 -12102.1 -11498.1 -10908.9 -10334.5 -9774.65 -9229.41 -8698.69 -8182.43 -7680.58 -7193.08 -6719.87 -6260.91 -5816.14 -5385.5 -4968.95 -4566.44 -4177.93 -3803.35 -3442.68 -3095.85 -2762.84 -2443.6 -2138.08 -1846.25 -1568.08 -1303.51 -1052.52 -815.066 -591.121 -380.65 -183.619 0 -163360 -159976 -156701 -153525 -150443 -147446 -144529 -141687 -138914 -136206 -133560 -130972 -128438 -125957 -123524 -121138 -118798 -116499 -114242 -112024 -109845 -107701 -105593 -103518 -101477 -99467.6 -97489.1 -95540.8 -93621.7 -91731.2 -89868.5 -88033 -86224.1 -84441.3 -82683.9 -80951.5 -79243.6 -77559.8 -75899.7 -74262.7 -72648.7 -71057.2 -69487.9 -67940.5 -66414.7 -64910.1 -63426.7 -61964 -60521.8 -59099.9 -57698.1 -56316.2 -54953.9 -53611.1 -52287.6 -50983.2 -49697.7 -48431 -47182.9 -45953.2 -44741.9 -43548.7 -42373.5 -41216.1 -40076.6 -38954.6 -37850.1 -36763.1 -35693.2 -34640.5 -33604.9 -32586.1 -31584.2 -30599 -29630.4 -28678.3 -27742.6 -26823.3 -25920.1 -25033.1 -24162.2 -23307.1 -22468 -21644.7 -20837 -20045 -19268.5 -18507.5 -17761.8 -17031.5 -16316.4 -15616.4 -14931.6 -14261.8 -13606.9 -12966.9 -12341.7 -11731.3 -11135.5 -10554.4 -9987.84 -9435.77 -8898.15 -8374.91 -7866 -7371.35 -6890.92 -6424.65 -5972.48 -5534.37 -5110.27 -4700.12 -4303.88 -3921.51 -3552.94 -3198.15 -2857.09 -2529.71 -2215.97 -1915.84 -1629.27 -1356.22 -1096.66 -850.561 -617.876 -398.576 -192.628 0 -163740 -160361 -157090 -153920 -150841 -147849 -144936 -142097 -139327 -136623 -133980 -131395 -128864 -126385 -123955 -121572 -119233 -116937 -114682 -112466 -110288 -108146 -106039 -103966 -101926 -99917.8 -97940.3 -95992.8 -94074.5 -92184.7 -90322.5 -88487.5 -86678.9 -84896.2 -83138.9 -81406.5 -79698.4 -78014.3 -76353.7 -74716.2 -73101.5 -71509.3 -69939.1 -68390.6 -66863.7 -65357.9 -63873 -62408.8 -60965 -59541.4 -58137.8 -56753.9 -55389.6 -54044.6 -52718.8 -51411.9 -50123.9 -48854.6 -47603.7 -46371.2 -45156.8 -43960.5 -42782.1 -41621.5 -40478.5 -39353 -38244.9 -37154.1 -36080.4 -35023.7 -33984 -32961.2 -31955 -30965.4 -29992.4 -29035.7 -28095.4 -27171.3 -26263.3 -25371.4 -24495.4 -23635.3 -22790.9 -21962.3 -21149.2 -20351.7 -19569.6 -18802.9 -18051.5 -17315.4 -16594.3 -15888.4 -15197.5 -14521.4 -13860.3 -13213.9 -12582.3 -11965.4 -11363 -10775.2 -10201.9 -9642.98 -9098.42 -8568.16 -8052.15 -7550.33 -7062.63 -6589.02 -6129.43 -5683.81 -5252.12 -4834.3 -4430.31 -4040.09 -3663.61 -3300.82 -2951.67 -2616.12 -2294.13 -1985.65 -1690.66 -1409.11 -1140.95 -886.169 -644.715 -416.557 -201.663 0 -164121 -160747 -157481 -154315 -151241 -148252 -145343 -142508 -139742 -137041 -134401 -131819 -129291 -126815 -124387 -122006 -119670 -117376 -115123 -112909 -110733 -108592 -106487 -104416 -102377 -100370 -98393.1 -96446.5 -94529 -92639.8 -90778.3 -88943.6 -87135.4 -85352.9 -83595.6 -81863.1 -80154.9 -78470.5 -76809.4 -75171.5 -73556.1 -71963.1 -70392 -68842.5 -67314.4 -65807.4 -64321.1 -62855.4 -61410 -59984.7 -58579.2 -57193.4 -55827 -54479.8 -53151.7 -51842.4 -50551.8 -49279.8 -48026.2 -46790.8 -45573.4 -44374 -43192.4 -42028.4 -40882 -39753 -38641.3 -37546.7 -36469.2 -35408.6 -34364.8 -33337.8 -32327.3 -31333.4 -30355.9 -29394.7 -28449.7 -27520.8 -26608 -25711.1 -24830 -23964.8 -23115.2 -22281.2 -21462.8 -20659.7 -19872.1 -19099.7 -18342.5 -17600.5 -16873.5 -16161.5 -15464.4 -14782.2 -14114.8 -13462 -12824 -12200.5 -11591.5 -10997 -10416.8 -9851.03 -9299.5 -8762.2 -8239.06 -7730.02 -7235.03 -6754.04 -6286.99 -5833.83 -5394.51 -4968.99 -4557.21 -4159.12 -3774.69 -3403.86 -3046.59 -2702.84 -2372.56 -2055.72 -1752.27 -1462.17 -1185.39 -921.895 -671.641 -434.596 -210.727 0 -164503 -161134 -157873 -154712 -151642 -148657 -145752 -142921 -140158 -137461 -134824 -132245 -129719 -127246 -124821 -122442 -120108 -117817 -115566 -113354 -111179 -109040 -106937 -104867 -102829 -100823 -98847.6 -96901.9 -94985.2 -93096.7 -91235.6 -89401.5 -87593.5 -85811.2 -84054 -82321.5 -80613 -78928.3 -77266.9 -75628.4 -74012.4 -72418.6 -70846.6 -69296.1 -67766.9 -66258.6 -64771 -63303.8 -61856.8 -60429.7 -59022.4 -57634.6 -56266.1 -54916.7 -53586.3 -52274.6 -50981.5 -49706.8 -48450.4 -47212.1 -45991.8 -44789.2 -43604.4 -42437.1 -41287.3 -40154.7 -39039.3 -37941 -36859.6 -35795 -34747.2 -33716 -32701.2 -31702.9 -30720.9 -29755.1 -28805.5 -27871.8 -26954.1 -26052.3 -25166.2 -24295.7 -23440.9 -22601.6 -21777.7 -20969.1 -20175.8 -19397.7 -18634.8 -17886.8 -17153.9 -16435.8 -15732.6 -15044.1 -14370.4 -13711.2 -13066.6 -12436.5 -11820.9 -11219.6 -10632.7 -10059.9 -9501.42 -8957.03 -8426.72 -7910.44 -7408.12 -6919.72 -6445.17 -5984.44 -5537.46 -5104.2 -4684.6 -4278.61 -3886.19 -3507.29 -3141.86 -2789.87 -2451.28 -2126.03 -1814.09 -1515.42 -1229.98 -957.741 -698.657 -452.694 -219.82 0 -164886 -161522 -158266 -155109 -152044 -149064 -146162 -143335 -140576 -137881 -135248 -132672 -130149 -127678 -125256 -122880 -120548 -118259 -116010 -113800 -111627 -109490 -107388 -105319 -103283 -101278 -99303.6 -97358.9 -95443 -93555.2 -91694.7 -89861 -88053.3 -86271.2 -84514.1 -82781.5 -81072.9 -79387.9 -77726.1 -76087.1 -74470.4 -72875.8 -71302.9 -69751.5 -68221.1 -66711.6 -65222.6 -63753.9 -62305.3 -60876.5 -59467.3 -58077.6 -56707 -55355.4 -54022.6 -52708.5 -51412.9 -50135.6 -48876.4 -47635.2 -46411.8 -45206.2 -44018.1 -42847.5 -41694.2 -40558.1 -39439.1 -38336.9 -37251.7 -36183.1 -35131.2 -34095.8 -33076.8 -32074.1 -31087.6 -30117.2 -29162.8 -28224.4 -27301.8 -26394.9 -25503.7 -24628.1 -23768 -22923.3 -22093.9 -21279.8 -20480.9 -19697.1 -18928.3 -18174.4 -17435.4 -16711.3 -16001.9 -15307.2 -14627 -13961.4 -13310.3 -12673.6 -12051.3 -11443.2 -10849.4 -10269.7 -9704.18 -9152.68 -8615.17 -8091.6 -7581.92 -7086.07 -6604 -6135.65 -5680.99 -5239.95 -4812.49 -4398.56 -3998.11 -3611.11 -3237.5 -2877.24 -2530.28 -2196.6 -1876.14 -1568.86 -1274.73 -993.713 -725.765 -470.854 -228.943 0 -165270 -161912 -158661 -155508 -152448 -149471 -146574 -143750 -140995 -138304 -135673 -133100 -130581 -128113 -125693 -123319 -120990 -118703 -116456 -114247 -112076 -109941 -107841 -105773 -103738 -101735 -99761.4 -97817.6 -95902.5 -94015.4 -92155.5 -90322.2 -88514.9 -86733 -84975.9 -83243.3 -81534.6 -79849.3 -78187.1 -76547.5 -74930.2 -73334.8 -71761.1 -70208.6 -68677.1 -67166.3 -65676 -64205.8 -62755.6 -61325.1 -59914 -58522.3 -57149.6 -55795.9 -54460.8 -53144.2 -51846 -50566 -49304.1 -48060 -46833.6 -45624.9 -44433.6 -43259.6 -42102.9 -40963.2 -39840.5 -38734.6 -37645.4 -36572.9 -35516.9 -34477.2 -33453.9 -32446.8 -31455.8 -30480.8 -29521.7 -28578.5 -27650.9 -26739.1 -25842.8 -24962 -24096.6 -23246.5 -22411.6 -21591.9 -20787.3 -19997.7 -19223.1 -18463.3 -17718.3 -16988 -16272.4 -15571.3 -14884.8 -14212.8 -13555.1 -12911.8 -12282.7 -11667.8 -11067.1 -10480.4 -9907.8 -9349.15 -8804.41 -8273.53 -7756.45 -7253.11 -6763.48 -6287.49 -5825.09 -5376.24 -4940.89 -4518.98 -4110.48 -3715.33 -3333.5 -2964.93 -2609.59 -2267.43 -1938.41 -1622.5 -1319.64 -1