<?xml version="1.0"?> 
<VTKFile type="StructuredGrid" version="0.1"> 
<StructuredGrid WholeExtent="0 127 0 127 0 0"> 
<Piece Extent="0 127 0 127 0 0"> 
<PointData>
<DataArray type="Float32" Name="u" format="ascii" NumberOfComponents="1"> 
0 -1244.92 -2489.94 -3735.16 -4980.68 -6226.61 -7473.05 -8720.09 -9967.85 -11216.4 -12465.9 -13716.4 -14968 -16220.8 -17475 -18730.6 -19987.7 -21246.4 -22506.9 -23769.2 -25033.5 -26299.8 -27568.3 -28839.1 -30112.2 -31387.8 -32666 -33946.8 -35230.5 -36517.1 -37806.7 -39099.5 -40395.4 -41694.8 -42997.6 -44304 -45614.1 -46928 -48245.8 -49567.7 -50893.8 -52224.1 -53558.8 -54898.1 -56242 -57590.6 -58944.2 -60302.8 -61666.5 -63035.6 -64410 -65789.9 -67175.6 -68567 -69964.4 -71367.8 -72777.5 -74193.6 -75616.1 -77045.3 -78481.2 -79924.2 -81374.2 -82831.4 -84296.1 -85768.3 -87248.2 -88736 -90231.9 -91735.9 -93248.4 -94769.4 -96299.1 -97837.7 -99385.5 -100942 -102509 -104085 -105671 -107267 -108873 -110490 -112118 -113756 -115406 -117066 -118739 -120423 -122119 -123828 -125549 -127283 -129030 -130791 -132565 -134353 -136155 -137972 -139803 -141650 -143512 -145390 -147283 -149193 -151120 -153063 -155023 -157001 -158997 -161010 -163041 -165090 -167157 -169242 -171346 -173466 -175604 -177759 -179931 -182117 -184318 -186532 -188757 -190993 -193237 -195488 -197743 -200000 0 -1235.76 -2471.62 -3707.67 -4944.03 -6180.78 -7418.02 -8655.86 -9894.4 -11133.7 -12373.9 -13615.2 -14857.5 -16101 -17345.8 -18592 -19839.6 -21088.9 -22339.9 -23592.7 -24847.4 -26104.1 -27362.9 -28623.9 -29887.3 -31153 -32421.3 -33692.2 -34965.9 -36242.4 -37521.9 -38804.4 -40090.1 -41379.1 -42671.5 -43967.3 -45266.8 -46570 -47877.1 -49188.1 -50503.2 -51822.4 -53146 -54474 -55806.5 -57143.7 -58485.7 -59832.6 -61184.5 -62541.5 -63903.9 -65271.6 -66644.9 -68023.9 -69408.7 -70799.4 -72196.1 -73599.1 -75008.4 -76424.3 -77846.7 -79275.9 -80712.1 -82155.3 -83605.7 -85063.5 -86528.8 -88001.9 -89482.7 -90971.6 -92468.7 -93974 -95487.9 -97010.5 -98542 -100082 -101632 -103191 -104760 -106339 -107927 -109526 -111135 -112755 -114385 -116027 -117680 -119344 -121021 -122709 -124409 -126122 -127848 -129586 -131338 -133103 -134882 -136676 -138483 -140306 -142143 -143996 -145864 -147748 -149648 -151564 -153497 -155448 -157415 -159400 -161402 -163423 -165461 -167517 -169590 -171682 -173791 -175917 -178060 -180218 -182392 -184580 -186781 -188993 -191215 -193445 -195681 -197922 0 -1226.6 -2453.3 -3680.2 -4907.38 -6134.95 -7363.01 -8591.65 -9820.96 -11051.1 -12282 -13514 -14747 -15981.1 -17216.6 -18453.4 -19691.7 -20931.5 -22173 -23416.2 -24661.3 -25908.4 -27157.6 -28408.9 -29662.4 -30918.4 -32176.8 -33437.8 -34701.4 -35967.9 -37237.2 -38509.6 -39785 -41063.6 -42345.6 -43630.9 -44919.9 -46212.4 -47508.7 -48808.9 -50113 -51421.2 -52733.7 -54050.4 -55371.6 -56697.4 -58027.8 -59363 -60703.1 -62048.3 -63398.6 -64754.2 -66115.2 -67481.8 -68854 -70232 -71615.9 -73005.9 -74402.1 -75804.6 -77213.6 -78629.2 -80051.6 -81480.8 -82917.1 -84360.6 -85811.4 -87269.8 -88735.7 -90209.5 -91691.3 -93181.2 -94679.4 -96186.1 -97701.4 -99225.5 -100759 -102301 -103852 -105414 -106985 -108565 -110156 -111758 -113370 -114992 -116626 -118271 -119927 -121595 -123274 -124966 -126671 -128388 -130117 -131860 -133617 -135387 -137171 -138969 -140782 -142610 -144453 -146311 -148185 -150075 -151981 -153904 -155844 -157801 -159775 -161766 -163775 -165802 -167847 -169909 -171988 -174085 -176199 -178329 -180475 -182636 -184810 -186998 -189196 -191404 -193620 -195842 0 -1217.45 -2434.99 -3652.72 -4870.74 -6089.13 -7308 -8527.44 -9747.54 -10968.4 -12190.1 -13412.8 -14636.5 -15861.3 -17087.4 -18314.9 -19543.7 -20774.1 -22006.1 -23239.8 -24475.4 -25712.8 -26952.3 -28193.9 -29437.7 -30683.9 -31932.4 -33183.5 -34437.1 -35693.5 -36952.8 -38214.9 -39480.1 -40748.4 -42020 -43294.9 -44573.2 -45855.1 -47140.7 -48430 -49723.3 -51020.5 -52321.9 -53627.4 -54937.3 -56251.6 -57570.6 -58894.1 -60222.5 -61555.8 -62894.2 -64237.6 -65586.4 -66940.6 -68300.3 -69665.7 -71036.8 -72413.9 -73797 -75186.3 -76581.9 -77984 -79392.6 -80808 -82230.2 -83659.5 -85095.9 -86539.7 -87990.9 -89449.7 -90916.3 -92390.8 -93873.4 -95364.3 -96863.5 -98371.4 -99888 -101414 -102948 -104492 -106046 -107609 -109182 -110765 -112358 -113962 -115576 -117202 -118838 -120486 -122145 -123817 -125500 -127195 -128903 -130624 -132358 -134105 -135866 -137641 -139429 -141233 -143051 -144884 -146732 -148596 -150475 -152371 -154284 -156213 -158158 -160121 -162102 -164099 -166114 -168147 -170197 -172265 -174349 -176450 -178568 -180701 -182848 -185009 -187183 -189367 -191561 -193763 0 -1208.29 -2416.68 -3625.25 -4834.1 -6043.32 -7253.01 -8463.25 -9674.13 -10885.8 -12098.2 -13311.6 -14526 -15741.6 -16958.3 -18176.4 -19395.8 -20616.7 -21839.3 -23063.5 -24289.5 -25517.3 -26747.2 -27979.1 -29213.1 -30449.5 -31688.2 -32929.3 -34173 -35419.4 -36668.5 -37920.5 -39175.4 -40433.5 -41694.6 -42959.1 -44226.9 -45498.2 -46773.1 -48051.6 -49334 -50620.2 -51910.5 -53204.9 -54503.5 -55806.5 -57113.9 -58425.9 -59742.6 -61064.1 -62390.5 -63721.9 -65058.5 -66400.4 -67747.7 -69100.5 -70458.9 -71823.1 -73193.2 -74569.3 -75951.6 -77340.2 -78735.2 -80136.8 -81545.1 -82960.2 -84382.4 -85811.6 -87248.1 -88692.1 -90143.6 -91602.8 -93069.9 -94545.1 -96028.5 -97520.2 -99020.5 -100529 -102047 -103574 -105110 -106656 -108211 -109776 -111351 -112936 -114532 -116138 -117755 -119383 -121022 -122673 -124335 -126009 -127696 -129395 -131106 -132831 -134569 -136320 -138085 -139864 -141657 -143465 -145288 -147126 -148979 -150848 -152734 -154635 -156553 -158487 -160439 -162408 -164394 -166397 -168418 -170455 -172510 -174582 -176671 -178775 -180894 -183029 -185176 -187336 -189506 -191686 0 -1199.14 -2398.37 -3597.79 -4797.47 -5997.52 -7198.02 -8399.06 -9600.74 -10803.1 -12006.4 -13210.5 -14415.6 -15621.8 -16829.2 -18037.9 -19247.9 -20459.4 -21672.5 -22887.2 -24103.6 -25321.9 -26542.1 -27764.3 -28988.6 -30215.2 -31444 -32675.3 -33909 -35145.4 -36384.4 -37626.3 -38871 -40118.7 -41369.6 -42623.6 -43880.9 -45141.6 -46405.8 -47673.6 -48945.1 -50220.4 -51499.6 -52782.9 -54070.3 -55361.9 -56657.9 -57958.4 -59263.4 -60573.1 -61887.6 -63207.1 -64531.5 -65861.1 -67196 -68536.3 -69882.1 -71233.5 -72590.6 -73953.7 -75322.8 -76697.9 -78079.4 -79467.3 -80861.7 -82262.8 -83670.7 -85085.5 -86507.4 -87936.6 -89373.2 -90817.2 -92269 -93728.6 -95196.2 -96671.9 -98156 -99648.5 -101150 -102660 -104179 -105707 -107244 -108791 -110348 -111915 -113492 -115079 -116676 -118285 -119904 -121534 -123176 -124829 -126495 -128172 -129861 -131564 -133279 -135007 -136748 -138503 -140272 -142056 -143853 -145666 -147493 -149336 -151194 -153068 -154958 -156865 -158788 -160728 -162685 -164659 -166650 -168658 -170683 -172726 -174785 -176860 -178951 -181057 -183177 -185311 -187457 -189613 0 -1189.99 -2380.07 -3570.33 -4760.85 -5951.73 -7143.04 -8334.89 -9527.36 -10720.5 -11914.5 -13109.4 -14305.2 -15502.1 -16700.2 -17899.5 -19100.1 -20302.2 -21505.8 -22711 -23917.9 -25126.5 -26337.1 -27549.7 -28764.3 -29981 -31200 -32421.4 -33645.2 -34871.6 -36100.6 -37332.3 -38566.8 -39804.3 -41044.8 -42288.3 -43535.2 -44785.3 -46038.8 -47295.9 -48556.6 -49821 -51089.3 -52361.4 -53637.6 -54918 -56202.6 -57491.5 -58784.9 -60082.9 -61385.6 -62693 -64005.4 -65322.8 -66645.4 -67973.2 -69306.4 -70645 -71989.3 -73339.4 -74695.3 -76057.1 -77425.1 -78799.4 -80180 -81567.1 -82960.8 -84361.4 -85768.8 -87183.3 -88605 -90034 -91470.5 -92914.7 -94366.6 -95826.5 -97294.5 -98770.7 -100255 -101749 -103251 -104761 -106281 -107811 -109349 -110898 -112456 -114024 -115603 -117192 -118791 -120401 -122023 -123655 -125300 -126956 -128623 -130303 -131996 -133701 -135420 -137151 -138896 -140655 -142428 -144215 -146016 -147833 -149665 -151512 -153375 -155254 -157149 -159060 -160988 -162933 -164894 -166873 -168869 -170881 -172910 -174956 -177018 -179095 -181188 -183294 -185414 -187545 0 -1180.84 -2361.77 -3542.87 -4724.23 -5905.94 -7088.08 -8270.74 -9454 -10638 -11822.7 -13008.3 -14194.8 -15382.4 -16571.2 -17761.1 -18952.4 -20145 -21339.1 -22534.8 -23732.2 -24931.3 -26132.2 -27335.1 -28540 -29747 -30956.2 -32167.7 -33381.6 -34597.9 -35816.9 -37038.5 -38262.8 -39490 -40720.2 -41953.4 -43189.8 -44429.4 -45672.3 -46918.6 -48168.5 -49422.1 -50679.3 -51940.4 -53205.5 -54474.6 -55747.8 -57025.3 -58307.1 -59593.4 -60884.3 -62179.9 -63480.2 -64785.5 -66095.7 -67411.1 -68731.8 -70057.8 -71389.3 -72726.3 -74069.1 -75417.8 -76772.4 -78133 -79499.9 -80873.2 -82252.9 -83639.2 -85032.2 -86432.2 -87839.1 -89253.2 -90674.5 -92103.4 -93539.7 -94983.9 -96435.9 -97895.9 -99364.2 -100841 -102326 -103820 -105322 -106834 -108355 -109885 -111425 -112974 -114534 -116104 -117684 -119274 -120875 -122487 -124111 -125746 -127392 -129050 -130721 -132403 -134099 -135807 -137528 -139263 -141011 -142773 -144549 -146340 -148146 -149966 -151802 -153653 -155520 -157404 -159303 -161219 -163151 -165100 -167066 -169049 -171048 -173064 -175097 -177145 -179209 -181287 -183379 -185484 0 -1171.69 -2343.47 -3515.42 -4687.62 -5860.16 -7033.12 -8206.59 -9380.65 -10555.4 -11730.9 -12907.2 -14084.5 -15262.8 -16442.2 -17622.8 -18804.6 -19987.9 -21172.5 -22358.7 -23546.6 -24736.1 -25927.4 -27120.6 -28315.8 -29513.1 -30712.5 -31914.1 -33118.1 -34324.5 -35533.4 -36744.9 -37959.1 -39176.1 -40395.9 -41618.8 -42844.7 -44073.7 -45306.1 -46541.8 -47780.9 -49023.6 -50269.9 -51520 -52773.9 -54031.7 -55293.6 -56559.7 -57830 -59104.7 -60383.8 -61667.5 -62955.9 -64249 -65547.1 -66850.1 -68158.3 -69471.7 -70790.4 -72114.6 -73444.4 -74779.8 -76121.1 -77468.3 -78821.6 -80181 -81546.7 -82918.9 -84297.7 -85683.1 -87075.4 -88474.6 -89881 -91294.6 -92715.5 -94144 -95580.2 -97024.2 -98476.2 -99936.3 -101405 -102882 -104367 -105861 -107364 -108877 -110398 -111929 -113470 -115021 -116581 -118152 -119733 -121325 -122928 -124542 -126167 -127804 -129452 -131113 -132785 -134471 -136168 -137879 -139603 -141341 -143092 -144857 -146637 -148431 -150240 -152064 -153904 -155759 -157630 -159517 -161421 -163340 -165277 -167230 -169199 -171185 -173188 -175206 -177240 -179290 -181354 -183432 0 -1162.55 -2325.18 -3487.97 -4651.02 -5814.39 -6978.18 -8142.46 -9307.31 -10472.8 -11639.1 -12806.2 -13974.2 -15143.2 -16313.3 -17484.5 -18657 -19830.8 -21006 -22182.7 -23361 -24541 -25722.7 -26906.3 -28091.8 -29279.3 -30468.9 -31660.7 -32854.7 -34051.2 -35250.1 -36451.5 -37655.5 -38862.3 -40071.9 -41284.4 -42499.9 -43718.5 -44940.2 -46165.2 -47393.6 -48625.5 -49860.9 -51100 -52342.8 -53589.5 -54840.1 -56094.8 -57353.6 -58616.7 -59884.1 -61156 -62432.4 -63713.5 -64999.4 -66290.1 -67585.9 -68886.7 -70192.8 -71504.1 -72820.9 -74143.3 -75471.3 -76805.1 -78144.8 -79490.6 -80842.4 -82200.6 -83565.1 -84936.2 -86313.9 -87698.4 -89089.8 -90488.3 -91894 -93307 -94727.4 -96155.5 -97591.4 -99035.1 -100487 -101947 -103415 -104892 -106378 -107873 -109376 -110889 -112411 -113943 -115484 -117036 -118597 -120169 -121752 -123345 -124949 -126564 -128191 -129830 -131480 -133142 -134817 -136504 -138204 -139917 -141644 -143384 -145138 -146906 -148689 -150486 -152299 -154126 -155969 -157828 -159702 -161593 -163500 -165423 -167363 -169319 -171291 -173280 -175284 -177305 -179340 -181390 0 -1153.4 -2306.89 -3460.53 -4614.42 -5768.63 -6923.24 -8078.33 -9233.99 -10390.3 -11547.3 -12705.2 -13863.9 -15023.6 -16184.3 -17346.2 -18509.3 -19673.7 -20839.5 -22006.8 -23175.5 -24346 -25518.1 -26692 -27867.8 -29045.6 -30225.4 -31407.4 -32591.6 -33778.1 -34966.9 -36158.3 -37352.2 -38548.8 -39748.2 -40950.3 -42155.4 -43363.5 -44574.7 -45789.1 -47006.8 -48227.9 -49452.4 -50680.5 -51912.3 -53147.8 -54387.2 -55630.5 -56877.9 -58129.4 -59385.1 -60645.2 -61909.8 -63178.9 -64452.7 -65731.2 -67014.6 -68302.9 -69596.3 -70894.9 -72198.9 -73508.2 -74823 -76143.5 -77469.7 -78801.8 -80139.9 -81484.1 -82834.5 -84191.3 -85554.6 -86924.5 -88301.1 -89684.5 -91075 -92472.6 -93877.5 -95289.8 -96709.6 -98137.2 -99572.6 -101016 -102467 -103927 -105396 -106873 -108358 -109853 -111357 -112870 -114392 -115925 -117467 -119019 -120581 -122154 -123737 -125332 -126937 -128554 -130182 -131822 -133473 -135137 -136814 -138503 -140205 -141921 -143650 -145392 -147149 -148919 -150705 -152505 -154320 -156151 -157997 -159858 -161736 -163630 -165540 -167466 -169408 -171367 -173341 -175332 -177337 -179358 0 -1144.26 -2288.6 -3433.09 -4577.83 -5722.87 -6868.31 -8014.23 -9160.69 -10307.8 -11455.6 -12604.2 -13753.6 -14904 -16055.5 -17208 -18361.7 -19516.7 -20673.1 -21830.9 -22990.1 -24151 -25313.6 -26477.9 -27644 -28812 -29982.1 -31154.2 -32328.5 -33505.1 -34684 -35865.3 -37049.1 -38235.6 -39424.7 -40616.5 -41811.2 -43008.9 -44209.6 -45413.4 -46620.4 -47830.7 -49044.4 -50261.5 -51482.3 -52706.7 -53934.8 -55166.8 -56402.8 -57642.8 -58887 -60135.3 -61388.1 -62645.2 -63906.9 -65173.2 -66444.3 -67720.2 -69001.1 -70287 -71578.1 -72874.5 -74176.2 -75483.4 -76796.3 -78114.8 -79439.2 -80769.5 -82105.9 -83448.5 -84797.4 -86152.8 -87514.7 -88883.2 -90258.6 -91641 -93030.4 -94427 -95831 -97242.5 -98661.6 -100088 -101523 -102966 -104417 -105877 -107345 -108821 -110307 -111802 -113305 -114819 -116342 -117874 -119417 -120969 -122532 -124105 -125690 -127285 -128891 -130509 -132138 -133779 -135432 -137098 -138776 -140467 -142171 -143888 -145619 -147363 -149122 -150895 -152683 -154486 -156304 -158137 -159985 -161850 -163730 -165626 -167539 -169467 -171411 -173372 -175347 -177339 0 -1135.12 -2270.31 -3405.66 -4541.24 -5677.13 -6813.4 -7950.13 -9087.4 -10225.3 -11363.9 -12503.2 -13643.4 -14784.5 -15926.6 -17069.8 -18214.2 -19359.8 -20506.7 -21655 -22804.8 -23956.1 -25109.1 -26263.8 -27420.3 -28578.6 -29738.9 -30901.2 -32065.7 -33232.3 -34401.3 -35572.5 -36746.3 -37922.5 -39101.4 -40283 -41467.4 -42654.6 -43844.8 -45038 -46234.3 -47433.9 -48636.8 -49843 -51052.8 -52266.1 -53483.1 -54703.8 -55928.4 -57157 -58389.5 -59626.2 -60867.2 -62112.4 -63362.1 -64616.3 -65875.1 -67138.7 -68407 -69680.3 -70958.7 -72242.1 -73530.8 -74824.9 -76124.4 -77429.5 -78740.2 -80056.8 -81379.3 -82707.8 -84042.4 -85383.3 -86730.6 -88084.4 -89444.8 -90812 -92186.1 -93567.2 -94955.4 -96350.9 -97753.9 -99164.4 -100583 -102009 -103443 -104885 -106335 -107794 -109262 -110738 -112224 -113718 -115222 -116735 -118258 -119790 -121333 -122886 -124449 -126023 -127608 -129204 -130811 -132429 -134059 -135701 -137356 -139022 -140702 -142394 -144099 -145818 -147551 -149297 -151058 -152833 -154623 -156428 -158248 -160083 -161934 -163800 -165683 -167581 -169495 -171425 -173371 -175332 0 -1125.98 -2252.03 -3378.23 -4504.66 -5631.39 -6758.49 -7886.05 -9014.12 -10142.8 -11272.2 -12402.3 -13533.2 -14665 -15797.8 -16931.7 -18066.7 -19202.9 -20340.4 -21479.3 -22619.6 -23761.4 -24904.8 -26049.8 -27196.6 -28345.3 -29495.8 -30648.4 -31803 -32959.7 -34118.7 -35280 -36443.6 -37609.8 -38778.4 -39949.7 -41123.8 -42300.6 -43480.3 -44663 -45848.7 -47037.6 -48229.6 -49425 -50623.8 -51826.1 -53031.9 -54241.4 -55454.7 -56671.8 -57892.9 -59117.9 -60347.1 -61580.5 -62818.2 -64060.4 -65307 -66558.2 -67814.2 -69074.9 -70340.5 -71611.2 -72886.9 -74167.9 -75454.1 -76745.8 -78043 -79345.9 -80654.5 -81969 -83289.5 -84616.1 -85948.9 -87288 -88633.5 -89985.7 -91344.5 -92710.2 -94082.8 -95462.5 -96849.4 -98243.7 -99645.5 -101055 -102472 -103897 -105330 -106772 -108221 -109680 -111147 -112622 -114107 -115601 -117105 -118618 -120140 -121673 -123215 -124768 -126332 -127906 -129491 -131087 -132694 -134313 -135944 -137587 -139242 -140910 -142590 -144284 -145990 -147711 -149445 -151193 -152955 -154732 -156523 -158330 -160151 -161988 -163841 -165709 -167593 -169493 -171408 -173339 0 -1116.84 -2233.75 -3350.81 -4468.09 -5585.66 -6703.6 -7821.97 -8940.86 -10060.3 -11180.5 -12301.3 -13423 -14545.6 -15669.1 -16793.6 -17919.3 -19046.1 -20174.2 -21303.6 -22434.4 -23566.6 -24700.5 -25836 -26973.1 -28112.1 -29252.9 -30395.7 -31540.4 -32687.3 -33836.3 -34987.6 -36141.2 -37297.2 -38455.7 -39616.8 -40780.5 -41946.9 -43116.2 -44288.3 -45463.5 -46641.6 -47823 -49007.5 -50195.4 -51386.6 -52581.4 -53779.7 -54981.7 -56187.4 -57396.9 -58610.4 -59827.9 -61049.5 -62275.3 -63505.4 -64739.9 -65978.9 -67222.4 -68470.7 -69723.7 -70981.5 -72244.4 -73512.3 -74785.4 -76063.8 -77347.6 -78636.8 -79931.7 -81232.3 -82538.7 -83851 -85169.4 -86493.9 -87824.8 -89162 -90505.7 -91856.1 -93213.2 -94577.2 -95948.3 -97326.5 -98711.9 -100105 -101505 -102913 -104329 -105753 -107185 -108626 -110075 -111532 -112998 -114473 -115957 -117451 -118954 -120466 -121988 -123520 -125063 -126615 -128179 -129753 -131338 -132934 -134542 -136161 -137792 -139436 -141092 -142760 -144441 -146135 -147843 -149564 -151299 -153048 -154812 -156590 -158383 -160190 -162013 -163852 -165706 -167575 -169460 -171360 0 -1107.7 -2215.48 -3323.39 -4431.52 -5539.94 -6648.71 -7757.92 -8867.62 -9977.89 -11088.8 -12200.4 -13312.9 -14426.1 -15540.4 -16655.6 -17771.9 -18889.3 -20008 -21127.9 -22249.2 -23372 -24496.3 -25622.2 -26749.7 -27879 -29010.1 -30143.1 -31278 -32415 -33554.1 -34695.4 -35839 -36984.9 -38133.2 -39284.1 -40437.5 -41593.6 -42752.4 -43914.1 -45078.6 -46246.1 -47416.7 -48590.5 -49767.4 -50947.7 -52131.4 -53318.5 -54509.3 -55703.6 -56901.7 -58103.7 -59309.5 -60519.4 -61733.3 -62951.5 -64173.9 -65400.6 -66631.9 -67867.7 -69108.1 -70353.3 -71603.3 -72858.3 -74118.3 -75383.4 -76653.8 -77929.6 -79210.8 -80497.5 -81789.9 -83088.1 -84392.2 -85702.3 -87018.5 -88340.9 -89669.6 -91004.8 -92346.6 -93695 -95050.3 -96412.6 -97781.9 -99158.4 -100542 -101934 -103333 -104739 -106154 -107576 -109007 -110446 -111894 -113350 -114816 -116290 -117773 -119265 -120767 -122279 -123801 -125332 -126874 -128427 -129990 -131563 -133148 -134744 -136352 -137971 -139603 -141246 -142902 -144571 -146253 -147947 -149656 -151377 -153113 -154863 -156627 -158406 -160200 -162009 -163833 -165672 -167526 -169396 0 -1098.57 -2197.2 -3295.98 -4394.97 -5494.23 -6593.84 -7693.87 -8794.39 -9895.46 -10997.2 -12099.6 -13202.7 -14306.7 -15411.7 -16517.6 -17624.5 -18732.6 -19841.8 -20952.3 -22064.2 -23177.5 -24292.2 -25408.5 -26526.4 -27646 -28767.4 -29890.6 -31015.8 -32142.9 -33272.1 -34403.4 -35537 -36672.8 -37811 -38951.7 -40094.8 -41240.6 -42389 -43540.1 -44694.1 -45851.1 -47010.9 -48173.9 -49340 -50509.3 -51682 -52858 -54037.5 -55220.6 -56407.3 -57597.7 -58792 -59990.1 -61192.3 -62398.5 -63608.8 -64823.5 -66042.4 -67265.9 -68493.8 -69726.3 -70963.6 -72205.7 -73452.7 -74704.7 -75961.8 -77224.1 -78491.7 -79764.7 -81043.3 -82327.4 -83617.3 -84913 -86214.6 -87522.3 -88836.2 -90156.3 -91482.8 -92815.9 -94155.5 -95502 -96855.3 -98215.6 -99583 -100958 -102340 -103729 -105127 -106532 -107945 -109366 -110795 -112233 -113679 -115134 -116598 -118071 -119553 -121045 -122546 -124057 -125577 -127108 -128649 -130201 -131763 -133337 -134921 -136517 -138124 -139743 -141374 -143018 -144674 -146342 -148024 -149719 -151428 -153150 -154886 -156636 -158401 -160180 -161975 -163784 -165608 -167447 0 -1089.43 -2178.94 -3268.57 -4358.41 -5448.53 -6538.98 -7629.84 -8721.17 -9813.05 -10905.5 -11998.7 -13092.6 -14187.4 -15283 -16379.6 -17477.2 -18575.9 -19675.7 -20776.8 -21879.2 -22983 -24088.2 -25194.9 -26303.2 -27413.2 -28524.9 -29638.3 -30753.7 -31871 -32990.3 -34111.7 -35235.2 -36361 -37489 -38619.5 -39752.4 -40887.8 -42025.9 -43166.6 -44310.1 -45456.4 -46605.6 -47757.8 -48913.1 -50071.5 -51233.2 -52398.1 -53566.4 -54738.2 -55913.6 -57092.6 -58275.2 -59461.7 -60652.1 -61846.5 -63044.8 -64247.4 -65454.2 -66665.2 -67880.7 -69100.7 -70325.3 -71554.6 -72788.6 -74027.5 -75271.4 -76520.4 -77774.5 -79033.9 -80298.6 -81568.8 -82844.5 -84126 -85413.2 -86706.3 -88005.4 -89310.6 -90622 -91939.7 -93263.9 -94594.6 -95932 -97276.3 -98627.4 -99985.6 -101351 -102724 -104104 -105492 -106887 -108290 -109701 -111121 -112549 -113985 -115430 -116883 -118345 -119817 -121298 -122788 -124288 -125797 -127317 -128847 -130387 -131938 -133499 -135071 -136655 -138250 -139857 -141475 -143106 -144749 -146405 -148073 -149755 -151450 -153158 -154880 -156616 -158366 -160131 -161911 -163705 -165514 0 -1080.3 -2160.67 -3241.17 -4321.87 -5402.83 -6484.13 -7565.82 -8647.97 -9730.66 -10813.9 -11897.9 -12982.6 -14068 -15154.4 -16241.7 -17329.9 -18419.3 -19509.7 -20601.4 -21694.3 -22788.6 -23884.3 -24981.4 -26080.1 -27180.5 -28282.4 -29386.2 -30491.8 -31599.2 -32708.6 -33820.1 -34933.6 -36049.3 -37167.3 -38287.6 -39410.3 -40535.4 -41663.1 -42793.4 -43926.4 -45062.1 -46200.7 -47342.2 -48486.7 -49634.2 -50784.9 -51938.8 -53096 -54256.6 -55420.6 -56588.1 -57759.3 -58934.2 -60112.9 -61295.4 -62481.9 -63672.4 -64867 -66065.8 -67268.9 -68476.4 -69688.4 -70904.9 -72126.1 -73352 -74582.7 -75818.4 -77059.1 -78304.9 -79555.9 -80812.3 -82074 -83341.3 -84614.2 -85892.8 -87177.2 -88467.6 -89764 -91066.5 -92375.3 -93690.5 -95012.2 -96340.5 -97675.5 -99017.4 -100366 -101722 -103085 -104456 -105834 -107219 -108613 -110014 -111423 -112841 -114267 -115701 -117144 -118596 -120056 -121526 -123005 -124494 -125992 -127501 -129019 -130547 -132086 -133636 -135196 -136767 -138350 -139944 -141550 -143167 -144797 -146440 -148094 -149762 -151443 -153138 -154845 -156567 -158303 -160053 -161817 -163596 0 -1071.17 -2142.41 -3213.77 -4285.33 -5357.15 -6429.28 -7501.81 -8574.79 -9648.29 -10722.4 -11797.1 -12872.5 -13948.7 -15025.8 -16103.8 -17182.7 -18262.7 -19343.8 -20426 -21509.5 -22594.3 -23680.5 -24768.1 -25857.2 -26947.8 -28040.1 -29134.2 -30230 -31327.6 -32427.2 -33528.7 -34632.3 -35738 -36845.8 -37956 -39068.5 -40183.3 -41300.7 -42420.6 -43543.1 -44668.3 -45796.3 -46927 -48060.8 -49197.4 -50337.2 -51480.1 -52626.2 -53775.6 -54928.3 -56084.5 -57244.2 -58407.5 -59574.5 -60745.3 -61919.9 -63098.4 -64280.9 -65467.6 -66658.4 -67853.4 -69052.8 -70256.7 -71465 -72678 -73895.7 -75118.2 -76345.5 -77577.9 -78815.3 -80057.8 -81305.7 -82558.9 -83817.5 -85081.7 -86351.6 -87627.3 -88908.8 -90196.3 -91489.8 -92789.6 -94095.7 -95408.2 -96727.2 -98052.8 -99385.3 -100725 -102071 -103424 -104785 -106153 -107529 -108912 -110303 -111702 -113109 -114525 -115949 -117381 -118822 -120272 -121730 -123198 -124676 -126162 -127659 -129165 -130682 -132209 -133746 -135294 -136853 -138423 -140004 -141597 -143201 -144818 -146447 -148088 -149742 -151409 -153089 -154782 -156489 -158210 -159945 -161694 0 -1062.04 -2124.15 -3186.38 -4248.8 -5311.47 -6374.45 -7437.82 -8501.62 -9565.93 -10630.8 -11696.3 -12762.5 -13829.5 -14897.2 -15965.9 -17035.5 -18106.1 -19177.8 -20250.7 -21324.7 -22400.1 -23476.7 -24554.8 -25634.3 -26715.3 -27798 -28882.3 -29968.3 -31056.2 -32145.9 -33237.5 -34331.1 -35426.8 -36524.6 -37624.6 -38726.9 -39831.6 -40938.6 -42048.1 -43160.2 -44274.9 -45392.2 -46512.4 -47635.3 -48761.2 -49890.1 -51022 -52157 -53295.2 -54436.7 -55581.6 -56729.9 -57881.7 -59037.1 -60196.1 -61358.9 -62525.5 -63696 -64870.5 -66049 -67231.7 -68418.6 -69609.9 -70805.5 -72005.6 -73210.3 -74419.7 -75633.8 -76852.7 -78076.6 -79305.5 -80539.5 -81778.7 -83023.2 -84273.2 -85528.6 -86789.6 -88056.4 -89328.9 -90607.4 -91891.9 -93182.4 -94479.3 -95782.4 -97092 -98408.2 -99731.1 -101061 -102397 -103741 -105092 -106450 -107815 -109189 -110569 -111958 -113355 -114759 -116172 -117594 -119024 -120462 -121910 -123366 -124832 -126307 -127792 -129287 -130791 -132306 -133831 -135366 -136912 -138469 -140038 -141617 -143208 -144811 -146426 -148054 -149693 -151346 -153012 -154690 -156382 -158088 -159808 0 -1052.91 -2105.89 -3158.99 -4212.27 -5265.8 -6319.64 -7373.84 -8428.47 -9483.59 -10539.3 -11595.6 -12652.5 -13710.2 -14768.7 -15828.1 -16888.4 -17949.7 -19012 -20075.4 -21140.1 -22205.9 -23273.1 -24341.6 -25411.5 -26483 -27555.9 -28630.6 -29706.8 -30784.9 -31864.8 -32946.5 -34030.2 -35115.9 -36203.6 -37293.6 -38385.7 -39480.1 -40576.8 -41676 -42777.6 -43881.8 -44988.6 -46098.1 -47210.4 -48325.5 -49443.5 -50564.4 -51688.4 -52815.6 -53945.9 -55079.5 -56216.4 -57356.7 -58500.5 -59647.9 -60798.9 -61953.6 -63112.1 -64274.5 -65440.9 -66611.3 -67785.8 -68964.4 -70147.4 -71334.8 -72526.5 -73722.8 -74923.8 -76129.4 -77339.8 -78555.1 -79775.4 -81000.8 -82231.3 -83467 -84708.1 -85954.7 -87206.8 -88464.5 -89727.9 -90997.2 -92272.5 -93553.8 -94841.2 -96134.9 -97435 -98741.6 -100055 -101375 -102701 -104035 -105376 -106724 -108079 -109442 -110812 -112190 -113576 -114970 -116372 -117782 -119201 -120629 -122065 -123510 -124964 -126427 -127900 -129383 -130875 -132377 -133889 -135412 -136945 -138489 -140044 -141611 -143188 -144777 -146378 -147992 -149617 -151255 -152906 -154570 -156247 -157937 0 -1043.79 -2087.64 -3131.61 -4175.76 -5220.14 -6264.83 -7309.87 -8355.33 -9401.28 -10447.8 -11494.8 -12542.6 -13591 -14640.3 -15690.3 -16741.3 -17793.2 -18846.2 -19900.2 -20955.4 -22011.8 -23069.5 -24128.5 -25188.9 -26250.7 -27314 -28379 -29445.5 -30513.8 -31583.8 -32655.7 -33729.4 -34805.2 -35882.9 -36962.7 -38044.7 -39128.9 -40215.4 -41304.2 -42395.5 -43489.2 -44585.5 -45684.4 -46786 -47890.3 -48997.5 -50107.5 -51220.5 -52336.6 -53455.7 -54578 -55703.6 -56832.5 -57964.8 -59100.6 -60239.8 -61382.8 -62529.4 -63679.7 -64833.9 -65992.1 -67154.2 -68320.4 -69490.8 -70665.4 -71844.4 -73027.7 -74215.5 -75408 -76605 -77806.8 -79013.5 -80225 -81441.6 -82663.3 -83890.2 -85122.3 -86359.8 -87602.9 -88851.4 -90105.7 -91365.7 -92631.6 -93903.5 -95181.4 -96465.6 -97756 -99052.8 -100356 -101666 -102983 -104306 -105637 -106975 -108319 -109672 -111031 -112399 -113774 -115157 -116548 -117947 -119354 -120770 -122195 -123628 -125071 -126522 -127983 -129453 -130933 -132422 -133922 -135432 -136952 -138483 -140024 -141577 -143141 -144716 -146303 -147902 -149513 -151136 -152772 -154420 -156082 0 -1034.67 -2069.39 -3104.23 -4139.24 -5174.49 -6210.03 -7245.92 -8282.21 -9318.97 -10356.3 -11394.1 -12432.6 -13471.9 -14511.8 -15552.6 -16594.3 -17636.9 -18680.5 -19725.1 -20770.9 -21817.8 -22866 -23915.5 -24966.3 -26018.5 -27072.2 -28127.5 -29184.3 -30242.8 -31303.1 -32365.1 -33428.9 -34494.7 -35562.4 -36632.2 -37704 -38778 -39854.3 -40932.8 -42013.7 -43097 -44182.7 -45271.1 -46362 -47455.6 -48552 -49651.2 -50753.2 -51858.2 -52966.3 -54077.4 -55191.7 -56309.2 -57430 -58554.2 -59681.8 -60812.9 -61947.7 -63086.1 -64228.2 -65374.1 -66524 -67677.8 -68835.6 -69997.6 -71163.8 -72334.2 -73509.1 -74688.3 -75872.1 -77060.5 -78253.6 -79451.5 -80654.2 -81861.9 -83074.7 -84292.5 -85515.6 -86744.1 -87977.9 -89217.2 -90462.1 -91712.8 -92969.2 -94231.5 -95499.8 -96774.3 -98054.9 -99341.8 -100635 -101935 -103242 -104555 -105875 -107202 -108537 -109878 -111227 -112584 -113948 -115320 -116700 -118087 -119483 -120888 -122301 -123722 -125152 -126592 -128040 -129498 -130965 -132442 -133928 -135425 -136932 -138450 -139978 -141516 -143066 -144627 -146200 -147784 -149380 -150989 -152609 -154243 0 -1025.54 -2051.14 -3076.86 -4102.74 -5128.85 -6155.24 -7181.98 -8209.11 -9236.69 -10264.8 -11293.5 -12322.7 -13352.7 -14383.4 -15414.9 -16447.3 -17480.6 -18514.8 -19550.1 -20586.4 -21623.9 -22662.6 -23702.6 -24743.8 -25786.5 -26830.6 -27876.2 -28923.3 -29972.1 -31022.5 -32074.7 -33128.6 -34184.4 -35242.2 -36301.9 -37363.6 -38427.5 -39493.5 -40561.7 -41632.3 -42705.1 -43780.4 -44858.2 -45938.5 -47021.4 -48107 -49195.4 -50286.5 -51380.5 -52477.5 -53577.4 -54680.5 -55786.6 -56896 -58008.7 -59124.7 -60244.1 -61367 -62493.5 -63623.6 -64757.4 -65895 -67036.5 -68181.9 -69331.3 -70484.8 -71642.4 -72804.3 -73970.5 -75141.1 -76316.2 -77495.8 -78680.1 -79869.1 -81062.9 -82261.6 -83465.3 -84674.1 -85888 -87107.2 -88331.7 -89561.7 -90797.2 -92038.3 -93285.1 -94537.8 -95796.4 -97060.9 -98331.7 -99608.6 -100892 -102182 -103478 -104781 -106091 -107407 -108731 -110062 -111400 -112745 -114098 -115459 -116827 -118203 -119588 -120980 -122381 -123791 -125209 -126636 -128072 -129517 -130971 -132435 -133909 -135392 -136886 -138390 -139904 -141429 -142965 -144511 -146069 -147639 -149220 -150813 -152419 0 -1016.42 -2032.9 -3049.49 -4066.24 -5083.22 -6100.47 -7118.05 -8136.02 -9154.43 -10173.3 -11192.8 -12212.9 -13233.6 -14255.1 -15277.3 -16300.3 -17324.3 -18349.2 -19375.1 -20402 -21430.1 -22459.3 -23489.7 -24521.5 -25554.6 -26589 -27625 -28662.4 -29701.4 -30742.1 -31784.4 -32828.5 -33874.4 -34922.2 -35971.8 -37023.5 -38077.2 -39133 -40191 -41251.2 -42313.7 -43378.5 -44445.8 -45515.5 -46587.8 -47662.7 -48740.2 -49820.4 -50903.5 -51989.4 -53078.2 -54170 -55264.9 -56362.9 -57464.1 -58568.5 -59676.3 -60787.4 -61902.1 -63020.2 -64142 -65267.4 -66396.6 -67529.6 -68666.5 -69807.3 -70952.2 -72101.3 -73254.5 -74412 -75573.8 -76740.1 -77910.8 -79086.2 -80266.2 -81451 -82640.6 -83835.2 -85034.8 -86239.4 -87449.2 -88664.4 -89884.8 -91110.8 -92342.2 -93579.4 -94822.2 -96070.9 -97325.6 -98586.3 -99853.1 -101126 -102406 -103691 -104984 -106283 -107589 -108902 -110222 -111549 -112883 -114225 -115574 -116931 -118295 -119668 -121049 -122438 -123835 -125241 -126655 -128079 -129511 -130952 -132403 -133864 -135334 -136813 -138303 -139804 -141314 -142836 -144368 -145911 -147466 -149032 -150610 0 -1007.3 -2014.66 -3022.13 -4029.76 -5037.6 -6045.71 -7054.14 -8062.95 -9072.19 -10081.9 -11092.2 -12103 -13114.5 -14126.7 -15139.7 -16153.4 -17168.1 -18183.6 -19200.1 -20217.7 -21236.3 -22256.1 -23277 -24299.2 -25322.8 -26347.6 -27373.9 -28401.7 -29431 -30461.9 -31494.4 -32528.6 -33564.6 -34602.4 -35642 -36683.6 -37727.2 -38772.9 -39820.6 -40870.5 -41922.6 -42977.1 -44033.8 -45093 -46154.6 -47218.8 -48285.6 -49355 -50427.1 -51502 -52579.7 -53660.4 -54744 -55830.7 -56920.4 -58013.3 -59109.5 -60208.9 -61311.7 -62418 -63527.7 -64641 -65758 -66878.7 -68003.1 -69131.4 -70263.7 -71399.9 -72540.2 -73684.7 -74833.3 -75986.3 -77143.7 -78305.5 -79471.8 -80642.8 -81818.5 -82998.9 -84184.2 -85374.4 -86569.7 -87770.1 -88975.7 -90186.6 -91402.8 -92624.5 -93851.8 -95084.8 -96323.5 -97568.1 -98818.6 -100075 -101338 -102607 -103882 -105164 -106452 -107747 -109049 -110358 -111674 -112997 -114327 -115665 -117010 -118363 -119724 -121092 -122469 -123854 -125247 -126649 -128060 -129479 -130908 -132345 -133792 -135248 -136715 -138191 -139677 -141173 -142680 -144198 -145726 -147266 -148816 0 -998.188 -1996.43 -2994.77 -3993.27 -4991.98 -5990.96 -6990.24 -7989.89 -8989.96 -9990.5 -10991.6 -11993.2 -12995.5 -13998.4 -15002.1 -16006.6 -17011.9 -18018.1 -19025.3 -20033.4 -21042.6 -22052.9 -23064.4 -24077.1 -25091.1 -26106.3 -27123 -28141.1 -29160.7 -30181.8 -31204.5 -32228.9 -33255 -34282.8 -35312.5 -36344.1 -37377.6 -38413 -39450.6 -40490.2 -41532 -42576 -43622.3 -44670.9 -45722 -46775.5 -47831.5 -48890.1 -49951.3 -51015.3 -52082 -53151.5 -54223.9 -55299.2 -56377.6