<?xml version="1.0"?> 
<VTKFile type="StructuredGrid" version="0.1"> 
<StructuredGrid WholeExtent="0 127 0 127 0 0"> 
<Piece Extent="0 127 0 127 0 0"> 
<PointData>
<DataArray type="Float32" Name="u" format="ascii" NumberOfComponents="1"> 
-200000 -198065 -196113 -194130 -192107 -190039 -187926 -185766 -183561 -181314 -179027 -176704 -174348 -171963 -169553 -167120 -164670 -162205 -159729 -157245 -154756 -152266 -149778 -147293 -144815 -142347 -139889 -137445 -135017 -132605 -130212 -127839 -125487 -123158 -120853 -118571 -116316 -114086 -111882 -109706 -107557 -105436 -103343 -101279 -99242.7 -97235 -95255.8 -93305.1 -91382.8 -89488.8 -87622.9 -85785.1 -83974.9 -82192.3 -80437 -78708.6 -77006.9 -75331.5 -73682.1 -72058.4 -70460 -68886.5 -67337.5 -65812.6 -64311.5 -62833.7 -61378.8 -59946.4 -58536.1 -57147.5 -55780.1 -54433.6 -53107.5 -51801.3 -50514.7 -49247.3 -47998.5 -46768.1 -45555.5 -44360.4 -43182.3 -42020.8 -40875.6 -39746.2 -38632.2 -37533.2 -36448.7 -35378.5 -34322.2 -33279.2 -32249.2 -31232 -30226.9 -29233.8 -28252.1 -27281.7 -26321.9 -25372.6 -24433.3 -23503.6 -22583.3 -21671.9 -20769.2 -19874.6 -18988 -18108.9 -17237 -16372 -15513.5 -14661.2 -13814.7 -12973.8 -12138 -11307 -10480.6 -9658.36 -8839.99 -8025.14 -7213.51 -6404.76 -5598.57 -4794.62 -3992.59 -3192.15 -2393 -1594.8 -797.24 0 -200000 -198065 -196113 -194130 -192107 -190040 -187926 -185766 -183561 -181314 -179027 -176704 -174348 -171963 -169553 -167120 -164670 -162205 -159729 -157245 -154756 -152266 -149778 -147293 -144815 -142347 -139889 -137445 -135017 -132605 -130212 -127839 -125487 -123158 -120853 -118571 -116316 -114086 -111882 -109706 -107557 -105436 -103343 -101279 -99242.7 -97235 -95255.8 -93305.1 -91382.8 -89488.8 -87622.9 -85785.1 -83974.9 -82192.3 -80437 -78708.6 -77006.9 -75331.5 -73682.1 -72058.4 -70460 -68886.4 -67337.4 -65812.6 -64311.4 -62833.6 -61378.8 -59946.4 -58536.1 -57147.5 -55780.1 -54433.6 -53107.5 -51801.3 -50514.7 -49247.3 -47998.5 -46768.1 -45555.5 -44360.4 -43182.3 -42020.8 -40875.6 -39746.2 -38632.2 -37533.1 -36448.7 -35378.5 -34322.1 -33279.2 -32249.2 -31231.9 -30226.9 -29233.8 -28252.1 -27281.6 -26321.9 -25372.6 -24433.3 -23503.6 -22583.3 -21671.9 -20769.2 -19874.6 -18988 -18108.9 -17237 -16372 -15513.5 -14661.2 -13814.7 -12973.7 -12138 -11307 -10480.6 -9658.36 -8839.99 -8025.14 -7213.51 -6404.75 -5598.57 -4794.62 -3992.59 -3192.15 -2393 -1594.8 -797.24 0 -200000 -198065 -196113 -194130 -192107 -190040 -187926 -185766 -183561 -181314 -179028 -176704 -174348 -171963 -169553 -167120 -164670 -162205 -159729 -157245 -154756 -152266 -149778 -147293 -144815 -142347 -139889 -137445 -135017 -132605 -130212 -127839 -125487 -123158 -120853 -118571 -116316 -114086 -111882 -109706 -107557 -105436 -103343 -101279 -99242.6 -97234.9 -95255.7 -93305 -91382.7 -89488.8 -87622.9 -85785 -83974.9 -82192.3 -80437 -78708.6 -77006.9 -75331.5 -73682.1 -72058.4 -70459.9 -68886.4 -67337.4 -65812.6 -64311.4 -62833.6 -61378.7 -59946.4 -58536.1 -57147.5 -55780.1 -54433.6 -53107.4 -51801.3 -50514.7 -49247.2 -47998.5 -46768 -45555.5 -44360.3 -43182.3 -42020.8 -40875.6 -39746.2 -38632.1 -37533.1 -36448.7 -35378.5 -34322.1 -33279.2 -32249.2 -31231.9 -30226.9 -29233.8 -28252.1 -27281.6 -26321.9 -25372.6 -24433.3 -23503.6 -22583.3 -21671.9 -20769.1 -19874.6 -18988 -18108.9 -17237 -16372 -15513.5 -14661.2 -13814.7 -12973.7 -12138 -11307 -10480.6 -9658.36 -8839.98 -8025.14 -7213.5 -6404.75 -5598.56 -4794.61 -3992.58 -3192.15 -2393 -1594.8 -797.24 0 -200000 -198065 -196113 -194130 -192107 -190040 -187926 -185766 -183561 -181314 -179028 -176704 -174349 -171963 -169553 -167120 -164670 -162205 -159729 -157245 -154756 -152266 -149778 -147293 -144815 -142347 -139889 -137445 -135017 -132605 -130212 -127839 -125487 -123158 -120852 -118571 -116315 -114086 -111882 -109706 -107557 -105436 -103343 -101279 -99242.6 -97234.9 -95255.7 -93305 -91382.7 -89488.7 -87622.9 -85785 -83974.9 -82192.3 -80436.9 -78708.5 -77006.8 -75331.4 -73682.1 -72058.3 -70459.9 -68886.4 -67337.4 -65812.5 -64311.4 -62833.6 -61378.7 -59946.3 -58536 -57147.4 -55780.1 -54433.5 -53107.4 -51801.3 -50514.7 -49247.2 -47998.5 -46768 -45555.4 -44360.3 -43182.2 -42020.8 -40875.5 -39746.1 -38632.1 -37533.1 -36448.7 -35378.5 -34322.1 -33279.1 -32249.2 -31231.9 -30226.9 -29233.7 -28252.1 -27281.6 -26321.9 -25372.5 -24433.2 -23503.6 -22583.3 -21671.9 -20769.1 -19874.6 -18988 -18108.9 -17237 -16372 -15513.5 -14661.2 -13814.7 -12973.7 -12138 -11307 -10480.6 -9658.35 -8839.98 -8025.13 -7213.5 -6404.75 -5598.56 -4794.61 -3992.58 -3192.15 -2392.99 -1594.8 -797.239 0 -200000 -198065 -196113 -194130 -192107 -190040 -187926 -185766 -183562 -181314 -179028 -176705 -174349 -171963 -169553 -167120 -164670 -162205 -159729 -157245 -154756 -152266 -149778 -147293 -144815 -142347 -139889 -137445 -135017 -132605 -130212 -127839 -125487 -123158 -120852 -118571 -116315 -114086 -111882 -109706 -107557 -105436 -103343 -101279 -99242.5 -97234.8 -95255.6 -93304.9 -91382.6 -89488.6 -87622.8 -85784.9 -83974.8 -82192.2 -80436.8 -78708.5 -77006.7 -75331.4 -73682 -72058.3 -70459.8 -68886.3 -67337.3 -65812.4 -64311.3 -62833.5 -61378.6 -59946.3 -58536 -57147.4 -55780 -54433.5 -53107.4 -51801.2 -50514.6 -49247.2 -47998.4 -46768 -45555.4 -44360.3 -43182.2 -42020.7 -40875.5 -39746.1 -38632.1 -37533.1 -36448.7 -35378.5 -34322.1 -33279.1 -32249.2 -31231.9 -30226.9 -29233.7 -28252.1 -27281.6 -26321.9 -25372.5 -24433.2 -23503.6 -22583.3 -21671.9 -20769.1 -19874.6 -18987.9 -18108.9 -17237 -16372 -15513.5 -14661.2 -13814.7 -12973.7 -12137.9 -11307 -10480.6 -9658.34 -8839.97 -8025.12 -7213.49 -6404.74 -5598.55 -4794.61 -3992.58 -3192.15 -2392.99 -1594.8 -797.238 0 -200000 -198066 -196113 -194130 -192107 -190040 -187926 -185766 -183562 -181315 -179028 -176705 -174349 -171964 -169553 -167121 -164670 -162205 -159729 -157245 -154756 -152266 -149778 -147293 -144815 -142347 -139889 -137445 -135017 -132605 -130212 -127839 -125487 -123158 -120852 -118571 -116315 -114085 -111882 -109706 -107557 -105436 -103343 -101279 -99242.4 -97234.7 -95255.5 -93304.8 -91382.5 -89488.5 -87622.7 -85784.8 -83974.7 -82192.1 -80436.7 -78708.4 -77006.7 -75331.3 -73681.9 -72058.2 -70459.7 -68886.2 -67337.2 -65812.4 -64311.2 -62833.4 -61378.6 -59946.2 -58535.9 -57147.3 -55779.9 -54433.4 -53107.3 -51801.1 -50514.5 -49247.1 -47998.3 -46767.9 -45555.3 -44360.2 -43182.1 -42020.7 -40875.5 -39746 -38632 -37533 -36448.6 -35378.4 -34322 -33279.1 -32249.1 -31231.8 -30226.8 -29233.7 -28252 -27281.6 -26321.8 -25372.5 -24433.2 -23503.6 -22583.2 -21671.9 -20769.1 -19874.6 -18987.9 -18108.8 -17237 -16371.9 -15513.4 -14661.1 -13814.7 -12973.7 -12137.9 -11307 -10480.6 -9658.33 -8839.95 -8025.11 -7213.48 -6404.73 -5598.55 -4794.6 -3992.57 -3192.14 -2392.99 -1594.79 -797.237 0 -200000 -198066 -196114 -194130 -192107 -190040 -187926 -185767 -183562 -181315 -179028 -176705 -174349 -171964 -169553 -167121 -164670 -162205 -159729 -157245 -154756 -152266 -149778 -147293 -144815 -142347 -139889 -137445 -135017 -132605 -130212 -127839 -125487 -123158 -120852 -118571 -116315 -114085 -111882 -109706 -107557 -105436 -103343 -101278 -99242.3 -97234.6 -95255.4 -93304.7 -91382.4 -89488.4 -87622.6 -85784.7 -83974.6 -82192 -80436.6 -78708.3 -77006.5 -75331.2 -73681.8 -72058.1 -70459.6 -68886.1 -67337.1 -65812.3 -64311.1 -62833.3 -61378.5 -59946.1 -58535.8 -57147.2 -55779.9 -54433.3 -53107.2 -51801.1 -50514.5 -49247 -47998.3 -46767.8 -45555.3 -44360.1 -43182.1 -42020.6 -40875.4 -39746 -38632 -37533 -36448.6 -35378.4 -34322 -33279 -32249.1 -31231.8 -30226.8 -29233.6 -28252 -27281.5 -26321.8 -25372.4 -24433.1 -23503.5 -22583.2 -21671.8 -20769 -19874.5 -18987.9 -18108.8 -17236.9 -16371.9 -15513.4 -14661.1 -13814.6 -12973.7 -12137.9 -11307 -10480.5 -9658.31 -8839.94 -8025.1 -7213.47 -6404.72 -5598.54 -4794.59 -3992.56 -3192.14 -2392.98 -1594.79 -797.236 0 -200000 -198066 -196114 -194131 -192108 -190040 -187927 -185767 -183562 -181315 -179028 -176705 -174349 -171964 -169553 -167121 -164670 -162205 -159729 -157245 -154756 -152266 -149778 -147293 -144815 -142347 -139889 -137445 -135016 -132605 -130212 -127839 -125487 -123158 -120852 -118571 -116315 -114085 -111882 -109706 -107557 -105436 -103343 -101278 -99242.1 -97234.5 -95255.3 -93304.6 -91382.3 -89488.3 -87622.4 -85784.6 -83974.4 -82191.8 -80436.5 -78708.1 -77006.4 -75331 -73681.7 -72058 -70459.5 -68886 -67337 -65812.2 -64311 -62833.2 -61378.4 -59946 -58535.7 -57147.1 -55779.8 -54433.2 -53107.1 -51801 -50514.4 -49246.9 -47998.2 -46767.7 -45555.2 -44360.1 -43182 -42020.5 -40875.3 -39745.9 -38631.9 -37532.9 -36448.5 -35378.3 -34321.9 -33278.9 -32249 -31231.7 -30226.7 -29233.6 -28251.9 -27281.5 -26321.7 -25372.4 -24433.1 -23503.5 -22583.1 -21671.8 -20769 -19874.5 -18987.9 -18108.8 -17236.9 -16371.9 -15513.4 -14661.1 -13814.6 -12973.7 -12137.9 -11306.9 -10480.5 -9658.29 -8839.92 -8025.08 -7213.45 -6404.71 -5598.53 -4794.58 -3992.56 -3192.13 -2392.98 -1594.79 -797.234 0 -200000 -198066 -196114 -194131 -192108 -190041 -187927 -185767 -183562 -181315 -179028 -176705 -174349 -171964 -169553 -167121 -164670 -162205 -159729 -157245 -154756 -152266 -149778 -147293 -144815 -142347 -139889 -137445 -135016 -132605 -130212 -127838 -125487 -123158 -120852 -118571 -116315 -114085 -111882 -109705 -107557 -105436 -103343 -101278 -99242 -97234.3 -95255.1 -93304.4 -91382.1 -89488.1 -87622.3 -85784.4 -83974.3 -82191.7 -80436.4 -78708 -77006.3 -75330.9 -73681.5 -72057.8 -70459.4 -68885.9 -67336.9 -65812 -64310.9 -62833.1 -61378.2 -59945.9 -58535.6 -57147 -55779.6 -54433.1 -53107 -51800.9 -50514.3 -49246.8 -47998.1 -46767.6 -45555.1 -44360 -43181.9 -42020.4 -40875.2 -39745.8 -38631.8 -37532.8 -36448.4 -35378.2 -34321.8 -33278.9 -32248.9 -31231.7 -30226.6 -29233.5 -28251.9 -27281.4 -26321.7 -25372.3 -24433 -23503.4 -22583.1 -21671.7 -20769 -19874.4 -18987.8 -18108.7 -17236.9 -16371.8 -15513.4 -14661 -13814.6 -12973.6 -12137.9 -11306.9 -10480.5 -9658.27 -8839.9 -8025.07 -7213.44 -6404.69 -5598.51 -4794.57 -3992.55 -3192.12 -2392.97 -1594.78 -797.233 0 -200000 -198066 -196114 -194131 -192108 -190041 -187927 -185767 -183563 -181315 -179029 -176705 -174349 -171964 -169553 -167121 -164670 -162205 -159729 -157245 -154756 -152266 -149778 -147293 -144815 -142346 -139889 -137445 -135016 -132605 -130211 -127838 -125487 -123157 -120852 -118571 -116315 -114085 -111882 -109705 -107556 -105435 -103343 -101278 -99241.8 -97234.1 -95254.9 -93304.2 -91381.9 -89487.9 -87622.1 -85784.2 -83974.1 -82191.5 -80436.2 -78707.8 -77006.1 -75330.7 -73681.4 -72057.7 -70459.2 -68885.7 -67336.7 -65811.9 -64310.8 -62833 -61378.1 -59945.7 -58535.5 -57146.9 -55779.5 -54433 -53106.9 -51800.7 -50514.1 -49246.7 -47998 -46767.5 -45555 -44359.8 -43181.8 -42020.3 -40875.1 -39745.7 -38631.7 -37532.7 -36448.3 -35378.1 -34321.7 -33278.8 -32248.9 -31231.6 -30226.6 -29233.4 -28251.8 -27281.3 -26321.6 -25372.3 -24433 -23503.4 -22583 -21671.7 -20768.9 -19874.4 -18987.8 -18108.7 -17236.8 -16371.8 -15513.3 -14661 -13814.5 -12973.6 -12137.8 -11306.9 -10480.5 -9658.25 -8839.88 -8025.05 -7213.42 -6404.68 -5598.5 -4794.56 -3992.54 -3192.11 -2392.97 -1594.78 -797.231 0 -200000 -198066 -196114 -194131 -192109 -190041 -187928 -185768 -183563 -181316 -179029 -176706 -174350 -171964 -169554 -167121 -164670 -162205 -159729 -157245 -154756 -152266 -149778 -147293 -144815 -142346 -139889 -137445 -135016 -132604 -130211 -127838 -125486 -123157 -120852 -118570 -116315 -114085 -111881 -109705 -107556 -105435 -103342 -101278 -99241.6 -97233.9 -95254.7 -93304 -91381.7 -89487.7 -87621.9 -85784 -83973.9 -82191.3 -80436 -78707.6 -77005.9 -75330.5 -73681.2 -72057.5 -70459.1 -68885.5 -67336.6 -65811.7 -64310.6 -62832.8 -61377.9 -59945.6 -58535.3 -57146.7 -55779.4 -54432.8 -53106.7 -51800.6 -50514 -49246.6 -47997.8 -46767.4 -45554.8 -44359.7 -43181.7 -42020.2 -40875 -39745.6 -38631.6 -37532.6 -36448.2 -35378 -34321.7 -33278.7 -32248.8 -31231.5 -30226.5 -29233.4 -28251.7 -27281.2 -26321.5 -25372.2 -24432.9 -23503.3 -22583 -21671.6 -20768.8 -19874.3 -18987.7 -18108.6 -17236.8 -16371.8 -15513.3 -14661 -13814.5 -12973.6 -12137.8 -11306.9 -10480.4 -9658.22 -8839.86 -8025.02 -7213.4 -6404.66 -5598.48 -4794.55 -3992.53 -3192.11 -2392.96 -1594.78 -797.228 0 -200000 -198066 -196115 -194132 -192109 -190042 -187928 -185768 -183563 -181316 -179029 -176706 -174350 -171964 -169554 -167121 -164671 -162205 -159729 -157245 -154756 -152266 -149778 -147293 -144815 -142346 -139889 -137445 -135016 -132604 -130211 -127838 -125486 -123157 -120851 -118570 -116314 -114084 -111881 -109705 -107556 -105435 -103342 -101278 -99241.4 -97233.7 -95254.5 -93303.8 -91381.5 -89487.5 -87621.7 -85783.8 -83973.7 -82191.1 -80435.8 -78707.4 -77005.7 -75330.3 -73681 -72057.3 -70458.9 -68885.3 -67336.4 -65811.5 -64310.4 -62832.6 -61377.8 -59945.4 -58535.1 -57146.5 -55779.2 -54432.7 -53106.6 -51800.4 -50513.9 -49246.4 -47997.7 -46767.3 -45554.7 -44359.6 -43181.5 -42020.1 -40874.9 -39745.5 -38631.5 -37532.5 -36448.1 -35377.9 -34321.5 -33278.6 -32248.7 -31231.4 -30226.4 -29233.3 -28251.6 -27281.2 -26321.4 -25372.1 -24432.8 -23503.2 -22582.9 -21671.5 -20768.8 -19874.3 -18987.7 -18108.6 -17236.7 -16371.7 -15513.2 -14660.9 -13814.5 -12973.5 -12137.7 -11306.8 -10480.4 -9658.19 -8839.83 -8025 -7213.38 -6404.64 -5598.47 -4794.53 -3992.51 -3192.1 -2392.95 -1594.77 -797.226 0 -200000 -198066 -196115 -194132 -192109 -190042 -187928 -185768 -183564 -181316 -179029 -176706 -174350 -171965 -169554 -167121 -164671 -162205 -159729 -157245 -154756 -152266 -149777 -147293 -144815 -142346 -139889 -137445 -135016 -132604 -130211 -127838 -125486 -123157 -120851 -118570 -116314 -114084 -111881 -109705 -107556 -105435 -103342 -101277 -99241.1 -97233.4 -95254.3 -93303.6 -91381.3 -89487.3 -87621.4 -85783.6 -83973.5 -82190.9 -80435.5 -78707.2 -77005.5 -75330.1 -73680.8 -72057.1 -70458.6 -68885.1 -67336.2 -65811.3 -64310.2 -62832.4 -61377.6 -59945.2 -58535 -57146.4 -55779 -54432.5 -53106.4 -51800.3 -50513.7 -49246.3 -47997.5 -46767.1 -45554.5 -44359.4 -43181.4 -42020 -40874.8 -39745.4 -38631.4 -37532.4 -36448 -35377.8 -34321.4 -33278.5 -32248.6 -31231.3 -30226.3 -29233.2 -28251.6 -27281.1 -26321.4 -25372 -24432.8 -23503.1 -22582.8 -21671.5 -20768.7 -19874.2 -18987.6 -18108.5 -17236.7 -16371.7 -15513.2 -14660.9 -13814.4 -12973.5 -12137.7 -11306.8 -10480.4 -9658.16 -8839.8 -8024.97 -7213.35 -6404.62 -5598.45 -4794.51 -3992.5 -3192.08 -2392.95 -1594.77 -797.223 0 -200000 -198066 -196115 -194132 -192110 -190042 -187929 -185769 -183564 -181317 -179030 -176706 -174350 -171965 -169554 -167122 -164671 -162206 -159729 -157245 -154756 -152266 -149777 -147293 -144815 -142346 -139889 -137445 -135016 -132604 -130211 -127838 -125486 -123157 -120851 -118570 -116314 -114084 -111881 -109704 -107556 -105435 -103342 -101277 -99240.9 -97233.2 -95254 -93303.3 -91381 -89487 -87621.2 -85783.3 -83973.2 -82190.6 -80435.3 -78706.9 -77005.2 -75329.9 -73680.5 -72056.8 -70458.4 -68884.9 -67335.9 -65811.1 -64310 -62832.2 -61377.4 -59945 -58534.8 -57146.2 -55778.8 -54432.3 -53106.2 -51800.1 -50513.5 -49246.1 -47997.4 -46766.9 -45554.4 -44359.3 -43181.2 -42019.8 -40874.6 -39745.2 -38631.2 -37532.2 -36447.8 -35377.7 -34321.3 -33278.4 -32248.4 -31231.2 -30226.2 -29233.1 -28251.4 -27281 -26321.3 -25371.9 -24432.7 -23503.1 -22582.7 -21671.4 -20768.6 -19874.1 -18987.5 -18108.5 -17236.6 -16371.6 -15513.1 -14660.8 -13814.4 -12973.4 -12137.7 -11306.7 -10480.3 -9658.12 -8839.76 -8024.94 -7213.32 -6404.59 -5598.43 -4794.5 -3992.49 -3192.07 -2392.94 -1594.76 -797.22 0 -200000 -198067 -196115 -194133 -192110 -190043 -187929 -185769 -183564 -181317 -179030 -176707 -174351 -171965 -169554 -167122 -164671 -162206 -159729 -157245 -154756 -152266 -149777 -147293 -144815 -142346 -139888 -137444 -135016 -132604 -130211 -127837 -125486 -123156 -120851 -118570 -116314 -114084 -111880 -109704 -107555 -105434 -103341 -101277 -99240.6 -97232.9 -95253.7 -93303 -91380.7 -89486.7 -87620.9 -85783 -83972.9 -82190.4 -80435 -78706.7 -77005 -75329.6 -73680.3 -72056.6 -70458.2 -68884.7 -67335.7 -65810.9 -64309.7 -62832 -61377.1 -59944.8 -58534.5 -57146 -55778.6 -54432.1 -53106 -51799.9 -50513.3 -49245.9 -47997.2 -46766.8 -45554.2 -44359.1 -43181.1 -42019.6 -40874.4 -39745.1 -38631.1 -37532.1 -36447.7 -35377.5 -34321.2 -33278.2 -32248.3 -31231.1 -30226.1 -29232.9 -28251.3 -27280.9 -26321.2 -25371.8 -24432.6 -23503 -22582.7 -21671.3 -20768.6 -19874 -18987.4 -18108.4 -17236.5 -16371.5 -15513.1 -14660.8 -13814.3 -12973.4 -12137.6 -11306.7 -10480.3 -9658.08 -8839.73 -8024.91 -7213.3 -6404.57 -5598.4 -4794.48 -3992.47 -3192.06 -2392.93 -1594.75 -797.217 0 -200000 -198067 -196116 -194133 -192111 -190043 -187930 -185770 -183565 -181318 -179031 -176707 -174351 -171965 -169555 -167122 -164671 -162206 -159729 -157245 -154756 -152266 -149777 -147293 -144815 -142346 -139888 -137444 -135015 -132604 -130210 -127837 -125485 -123156 -120851 -118569 -116313 -114083 -111880 -109704 -107555 -105434 -103341 -101276 -99240.3 -97232.6 -95253.4 -93302.7 -91380.4 -89486.4 -87620.6 -85782.7 -83972.6 -82190.1 -80434.7 -78706.4 -77004.7 -75329.3 -73680 -72056.3 -70457.9 -68884.4 -67335.4 -65810.6 -64309.5 -62831.7 -61376.9 -59944.5 -58534.3 -57145.7 -55778.4 -54431.9 -53105.8 -51799.7 -50513.1 -49245.7 -47997 -46766.6 -45554 -44358.9 -43180.9 -42019.5 -40874.3 -39744.9 -38630.9 -37531.9 -36447.6 -35377.4 -34321 -33278.1 -32248.2 -31230.9 -30225.9 -29232.8 -28251.2 -27280.7 -26321 -25371.7 -24432.5 -23502.9 -22582.6 -21671.2 -20768.5 -19874 -18987.4 -18108.3 -17236.4 -16371.5 -15513 -14660.7 -13814.3 -12973.3 -12137.6 -11306.6 -10480.3 -9658.04 -8839.69 -8024.87 -7213.26 -6404.54 -5598.38 -4794.46 -3992.45 -3192.05 -2392.92 -1594.75 -797.213 0 -200000 -198067 -196116 -194134 -192111 -190044 -187930 -185770 -183565 -181318 -179031 -176707 -174351 -171966 -169555 -167122 -164671 -162206 -159729 -157245 -154756 -152266 -149777 -147293 -144815 -142346 -139888 -137444 -135015 -132603 -130210 -127837 -125485 -123156 -120850 -118569 -116313 -114083 -111880 -109703 -107555 -105434 -103341 -101276 -99239.9 -97232.3 -95253.1 -93302.4 -91380.1 -89486.1 -87620.3 -85782.4 -83972.3 -82189.7 -80434.4 -78706.1 -77004.4 -75329 -73679.7 -72056 -70457.6 -68884.1 -67335.1 -65810.3 -64309.2 -62831.5 -61376.6 -59944.3 -58534 -57145.5 -55778.2 -54431.7 -53105.6 -51799.5 -50512.9 -49245.5 -47996.8 -46766.4 -45553.8 -44358.7 -43180.7 -42019.3 -40874.1 -39744.7 -38630.7 -37531.8 -36447.4 -35377.2 -34320.9 -33277.9 -32248 -31230.8 -30225.8 -29232.7 -28251.1 -27280.6 -26320.9 -25371.6 -24432.4 -23502.7 -22582.5 -21671.1 -20768.4 -19873.9 -18987.3 -18108.2 -17236.4 -16371.4 -15512.9 -14660.6 -13814.2 -12973.3 -12137.5 -11306.6 -10480.2 -9658 -8839.65 -8024.84 -7213.23 -6404.51 -5598.35 -4794.43 -3992.43 -3192.03 -2392.91 -1594.74 -797.21 0 -200000 -198067 -196117 -194134 -192112 -190045 -187931 -185771 -183566 -181318 -179031 -176708 -174352 -171966 -169555 -167122 -164671 -162206 -159730 -157245 -154756 -152266 -149777 -147293 -144815 -142346 -139888 -137444 -135015 -132603 -130210 -127837 -125485 -123156 -120850 -118569 -116313 -114083 -111879 -109703 -107554 -105433 -103340 -101276 -99239.6 -97231.9 -95252.7 -93302 -91379.7 -89485.8 -87619.9 -85782.1 -83972 -82189.4 -80434.1 -78705.7 -77004.1 -75328.7 -73679.4 -72055.7 -70457.3 -68883.8 -67334.9 -65810 -64308.9 -62831.2 -61376.3 -59944 -58533.8 -57145.2 -55777.9 -54431.4 -53105.3 -51799.2 -50512.7 -49245.2 -47996.5 -46766.1 -45553.6 -44358.5 -43180.5 -42019.1 -40873.9 -39744.5 -38630.5 -37531.6 -36447.2 -35377.1 -34320.7 -33277.8 -32247.9 -31230.6 -30225.6 -29232.5 -28250.9 -27280.5 -26320.8 -25371.5 -24432.2 -23502.6 -22582.3 -21671 -20768.3 -19873.8 -18987.2 -18108.1 -17236.3 -16371.3 -15512.8 -14660.6 -13814.1 -12973.2 -12137.4 -11306.5 -10480.2 -9657.95 -8839.61 -8024.8 -7213.2 -6404.48 -5598.32 -4794.41 -3992.41 -3192.02 -2392.89 -1594.73 -797.206 0 -200000 -198068 -196117 -194135 -192112 -190045 -187931 -185771 -183566 -181319 -179032 -176708 -174352 -171966 -169555 -167123 -164672 -162206 -159730 -157245 -154756 -152266 -149777 -147292 -144814 -142345 -139888 -137444 -135015 -132603 -130210 -127836 -125485 -123155 -120850 -118568 -116312 -114082 -111879 -109703 -107554 -105433 -103340 -101275 -99239.2 -97231.5 -95252.3 -93301.6 -91379.4 -89485.4 -87619.6 -85781.7 -83971.6 -82189 -80433.7 -78705.4 -77003.7 -75328.4 -73679 -72055.4 -70457 -68883.5 -67334.5 -65809.7 -64308.6 -62830.9 -61376.1 -59943.7 -58533.5 -57144.9 -55777.6 -54431.1 -53105.1 -51799 -50512.4 -49245 -47996.3 -46765.9 -45553.4 -44358.3 -43180.3 -42018.9 -40873.7 -39744.3 -38630.4 -37531.4 -36447 -35376.9 -34320.5 -33277.6 -32247.7 -31230.5 -30225.5 -29232.4 -28250.8 -27280.4 -26320.7 -25371.4 -24432.1 -23502.5 -22582.2 -21670.9 -20768.2 -19873.7 -18987.1 -18108 -17236.2 -16371.2 -15512.8 -14660.5 -13814 -12973.1 -12137.4 -11306.5 -10480.1 -9657.9 -8839.56 -8024.75 -7213.16 -6404.45 -5598.3 -4794.39 -3992.39 -3192 -2392.88 -1594.72 -797.202 0 -200000 -198068 -196117 -194135 -192113 -190046 -187932 -185772 -183567 -181320 -179032 -176709 -174352 -171967 -169556 -167123 -164672 -162206 -159730 -157245 -154756 -152266 -149777 -147292 -144814 -142345 -139888 -137443 -135014 -132603 -130209 -127836 -125484 -123155 -120849 -118568 -116312 -114082 -111879 -109702 -107554 -105433 -103340 -101275 -99238.8 -97231.1 -95251.9 -93301.3 -91379 -89485 -87619.2 -85781.3 -83971.2 -82188.7 -80433.4 -78705 -77003.3 -75328 -73678.7 -72055 -70456.6 -68883.1 -67334.2 -65809.4 -64308.3 -62830.6 -61375.7 -59943.4 -58533.2 -57144.6 -55777.3 -54430.9 -53104.8 -51798.7 -50512.1 -49244.7 -47996.1 -46765.7 -45553.1 -44358.1 -43180 -42018.6 -40873.5 -39744.1 -38630.1 -37531.2 -36446.8 -35376.7 -34320.3 -33277.4 -32247.5 -31230.3 -30225.3 -29232.2 -28250.6 -27280.2 -26320.5 -25371.2 -24432 -23502.4 -22582.1 -21670.8 -20768 -19873.6 -18987 -18107.9 -17236.1 -16371.1 -15512.7 -14660.4 -13814 -12973.1 -12137.3 -11306.4 -10480 -9657.84 -8839.51 -8024.71 -7213.12 -6404.41 -5598.26 -4794.36 -3992.37 -3191.98 -2392.87 -1594.71 -797.197 0 -200000 -198068 -196118 -194136 -192114 -190046 -187933 -185773 -183568 -181320 -179033 -176709 -174353 -171967 -169556 -167123 -164672 -162206 -159730 -157245 -154756 -152266 -149777 -147292 -144814 -142345 -139887 -137443 -135014 -132602 -130209 -127836 -125484 -123155 -120849 -118568 -116312 -114082 -111878 -109702 -107553 -105432 -103339 -101275 -99238.4 -97230.7 -95251.5 -93300.8 -91378.6 -89484.6 -87618.8 -85780.9 -83970.8 -82188.3 -80433 -78704.6 -77003 -75327.6 -73678.3 -72054.6 -70456.3 -68882.8 -67333.9 -65809 -64308 -62830.2 -61375.4 -59943.1 -58532.9 -57144.3 -55777 -54430.6 -53104.5 -51798.4 -50511.9 -49244.5 -47995.8 -46765.4 -45552.9 -44357.8 -43179.8 -42018.4 -40873.2 -39743.9 -38629.9 -37531 -36446.6 -35376.5 -34320.1 -33277.2 -32247.4 -31230.1 -30225.2 -29232.1 -28250.5 -27280 -26320.4 -25371.1 -24431.8 -23502.2 -22582 -21670.7 -20767.9 -19873.4 -18986.9 -18107.8 -17236 -16371 -15512.6 -14660.3 -13813.9 -12973 -12137.2 -11306.4 -10480 -9657.79 -8839.46 -8024.66 -7213.08 -6404.37 -5598.23 -4794.33 -3992.35 -3191.96 -2392.85 -1594.7 -797.193 0 -200000 -198068 -196118 -194137 -192114 -190047 -187933 -185773 -183568 -181321 -179033 -176710 -174353 -171968 -169556 -167123 -164672 -162207 -159730 -157245 -154757 -152266 -149777 -147292 -144814 -142345 -139887 -137443 -135014 -132602 -130209 -127835 -125484 -123154 -120849 -118567 -116311 -114081 -111878 -109702 -107553 -105432 -103339 -101274 -99238 -97230.3 -95251.1 -93300.4 -91378.1 -89484.2 -87618.3 -85780.5 -83970.4 -82187.9 -80432.6 -78704.2 -77002.6 -75327.2 -73677.9 -72054.3 -70455.9 -68882.4 -67333.5 -65808.7 -64307.6 -62829.9 -61375.1 -59942.8 -58532.6 -57144 -55776.7 -54430.2 -53104.2 -51798.1 -50511.6 -49244.2 -47995.5 -46765.1 -45552.6 -44357.6 -43179.5 -42018.2 -40873 -39743.6 -38629.7 -37530.8 -36446.4 -35376.3 -34319.9 -33277 -32247.2 -31229.9 -30225 -29231.9 -28250.3 -27279.9 -26320.2 -25370.9 -24431.7 -23502.1 -22581.8 -21670.5 -20767.8 -19873.3 -18986.7 -18107.7 -17235.9 -16370.9 -15512.5 -14660.2 -13813.8 -12972.9 -12137.2 -11306.3 -10479.9 -9657.73 -8839.41 -8024.61 -7213.03 -6404.33 -5598.2 -4794.3 -3992.32 -3191.94 -2392.84 -1594.69 -797.188 0 -200000 -198069 -196119 -194137 -192115 -190048 -187934 -185774 -183569 -181321 -179034 -176710 -174354 -171968 -169557 -167124 -164673 -162207 -159730 -157246 -154757 -152266 -149777 -147292 -144814 -142345 -139887 -137443 -135014 -132602 -130208 -127835 -125483 -123154 -120848 -118567 -116311 -114081 -111877 -109701 -107552 -105431 -103338 -101274 -99237.5 -97229.8 -95250.6 -93300 -91377.7 -89483.7 -87617.9 -85780.1 -83970 -82187.4 -80432.1 -78703.8 -77002.1 -75326.8 -73677.5 -72053.9 -70455.5 -68882 -67333.1 -65808.3 -64307.2 -62829.5 -61374.7 -59942.4 -58532.2 -57143.7 -55776.4 -54429.9 -53103.9 -51797.8 -50511.3 -49243.9 -47995.2 -46764.8 -45552.3 -44357.3 -43179.3 -42017.9 -40872.7 -39743.4 -38629.5 -37530.5 -36446.2 -35376 -34319.7 -33276.8 -32247 -31229.7 -30224.8 -29231.7 -28250.1 -27279.7 -26320 -25370.8 -24431.5 -23502 -22581.7 -21670.4 -20767.7 -19873.2 -18986.6 -18107.6 -17235.8 -16370.8 -15512.4 -14660.1 -13813.7 -12972.8 -12137.1 -11306.2 -10479.8 -9657.67 -8839.35 -8024.56 -7212.99 -6404.29 -5598.16 -4794.27 -3992.3 -3191.92 -2392.82 -1594.68 -797.183 0 -200000 -198069 -196119 -194138 -192116 -190049 -187935 -185775 -183570 -181322 -179035 -176711 -174354 -171968 -169557 -167124 -164673 -162207 -159730 -157246 -154757 -152266 -149777 -147292 -144814 -142345 -139887 -137442 -135013 -132601 -130208 -127835 -125483 -123154 -120848 -118566 -116310 -114080 -111877 -109701 -107552 -105431 -103338 -101273 -99237 -97229.3 -95250.2 -93299.5 -91377.2 -89483.2 -87617.4 -85779.6 -83969.5 -82187 -80431.7 -78703.3 -77001.7 -75326.4 -73677.1 -72053.4 -70455.1 -68881.6 -67332.7 -65807.9 -64306.8 -62829.1 -61374.3 -59942 -58531.8 -57143.3 -55776 -54429.6 -53103.5 -51797.5 -50510.9 -49243.6 -47994.9 -46764.5 -45552 -44357 -43179 -42017.6 -40872.5 -39743.1 -38629.2 -37530.3 -36445.9 -35375.8 -34319.5 -33276.6 -32246.7 -31229.5 -30224.6 -29231.5 -28250 -27279.5 -26319.9 -25370.6 -24431.4 -23501.8 -22581.5 -21670.2 -20767.5 -19873.1 -18986.5 -18107.5 -17235.7 -16370.7 -15512.3 -14660 -13813.6 -12972.7 -12137 -11306.1 -10479.8 -9657.6 -8839.29 -8024.51 -7212.94 -6404.25 -5598.12 -4794.24 -3992.27 -3191.9 -2392.81 -1594.67 -797.177 0 -200000 -198069 -196120 -194139 -192117 -190049 -187936 -185776 -183571 -181323 -179035 -176711 -174355 -171969 -169557 -167124 -164673 -162207 -159730 -157246 -154757 -152266 -149777 -147292 -144814 -142344 -139887 -137442 -135013 -132601 -130208 -127834 -125482 -123153 -120847 -118566 -116310 -114080 -111877 -109700 -107551 -105430 -103337 -101273 -99236.5 -97228.8 -95249.7 -93299 -91376.7 -89482.7 -87616.9 -85779.1 -83969 -82186.5 -80431.2 -78702.9 -77001.2 -75325.9 -73676.6 -72053 -70454.6 -68881.2 -67332.3 -65807.5 -64306.4 -62828.7 -61373.9 -59941.7 -58531.5 -57142.9 -55775.7 -54429.2 -53103.2 -51797.1 -50510.6 -49243.2 -47994.6 -46764.2 -45551.7 -44356.7 -43178.7 -42017.3 -40872.2 -39742.9 -38628.9 -37530 -36445.7 -35375.6 -34319.3 -33276.4 -32246.5 -31229.3 -30224.4 -29231.3 -28249.8 -27279.3 -26319.7 -25370.4 -24431.2 -23501.6 -22581.4 -21670.1 -20767.4 -19872.9 -18986.4 -18107.4 -17235.5 -16370.6 -15512.2 -14659.9 -13813.5 -12972.6 -12136.9 -11306.1 -10479.7 -9657.54 -8839.23 -8024.45 -7212.89 -6404.2 -5598.08 -4794.2 -3992.24 -3191.88 -2392.79 -1594.66 -797.172 0 -200000 -198070 -196121 -194139 -192117 -190050 -187937 -185776 -183571 -181323 -179036 -176712 -174355 -171969 -169558 -167125 -164673 -162207 -159730 -157246 -154757 -152266 -149777 -147292 -144813 -142344 -139886 -137442 -135013 -132601 -130207 -127834 -125482 -123153 -120847 -118566 -116310 -114079 -111876 -109700 -107551 -105430 -103337 -101272 -99236 -97228.3 -95249.1 -93298.5 -91376.2 -89482.2 -87616.4 -85778.6 -83968.5 -82186 -80430.7 -78702.4 -77000.8 -75325.5 -73676.2 -72052.5 -70454.2 -68880.7 -67331.8 -65807 -64306 -62828.3 -61373.5 -59941.2 -58531.1 -57142.5 -55775.3 -54428.8 -53102.8 -51796.8 -50510.3 -49242.9 -47994.3 -46763.9 -45551.4 -44356.4 -43178.4 -42017 -40871.9 -39742.6 -38628.7 -37529.7 -36445.4 -35375.3 -34319 -33276.1 -32246.3 -31229.1 -30224.2 -29231.1 -28249.6 -27279.1 -26319.5 -25370.2 -24431 -23501.5 -22581.2 -21669.9 -20767.2 -19872.8 -18986.2 -18107.2 -17235.4 -16370.5 -15512.1 -14659.8 -13813.4 -12972.5 -12136.8 -11306 -10479.6 -9657.46 -8839.16 -8024.39 -7212.83 -6404.16 -5598.04 -4794.17 -3992.21 -3191.85 -2392.77 -1594.65 -797.166 0 -200000 -198070 -196121 -194140 -192118 -190051 -187938 -185777 -183572 -181324 -179037 -176713 -174356 -171970 -169558 -167125 -164674 -162208 -159731 -157246 -154757 -152266 -149777 -147292 -144813 -142344 -139886 -137442 -135012 -132600 -130207 -127834 -125482 -123152 -120846 -118565 -116309 -114079 -111876 -109699 -107550 -105429 -103336 -101272 -99235.5 -97227.8 -95248.6 -93297.9 -91375.6 -89481.7 -87615.9 -85778.1 -83968 -82185.5 -80430.2 -78701.9 -77000.3 -75325 -73675.7 -72052 -70453.7 -68880.3 -67331.4 -65806.6 -64305.6 -62827.9 -61373.1 -59940.8 -58530.7 -57142.1 -55774.9 -54428.5 -53102.4 -51796.4 -50509.9 -49242.5 -47993.9 -46763.6 -45551.1 -44356.1 -43178.1 -42016.7 -40871.6 -39742.3 -38628.4 -37529.5 -36445.2 -35375.1 -34318.8 -33275.9 -32246.1 -31228.9 -30223.9 -29230.9 -28249.3 -27278.9 -26319.3 -25370 -24430.8 -23501.3 -22581.1 -21669.8 -20767.1 -19872.6 -18986.1 -18107.1 -17235.3 -16370.4 -15511.9 -14659.7 -13813.3 -12972.4 -12136.7 -11305.9 -10479.5 -9657.39 -8839.1 -8024.33 -7212.78 -6404.11 -5598 -4794.13 -3992.18 -3191.83 -2392.76 -1594.64 -797.16 0 -200000 -198070 -196122 -194141 -192119 -190052 -187938 -185778 -183573 -181325 -179037 -176713 -174356 -171970 -169559 -167125 -164674 -162208 -159731 -157246 -154757 -152266 -149777 -147291 -144813 -142344 -139886 -137441 -135012 -132600 -130207 -127833 -125481 -123152 -120846 -118565 -116309 -114078 -111875 -109699 -107550 -105429 -103336 -101271 -99234.9 -97227.2 -95248 -93297.4 -91375.1 -89481.1 -87615.3 -85777.5 -83967.5 -82184.9 -80429.7 -78701.4 -76999.7 -75324.4 -73675.2 -7205