<?xml version="1.0"?> 
<VTKFile type="StructuredGrid" version="0.1"> 
<StructuredGrid WholeExtent="0 127 0 127 0 0"> 
<Piece Extent="0 127 0 127 0 0"> 
<PointData>
<DataArray type="Float32" Name="u" format="ascii" NumberOfComponents="1"> 
-60000 -60000 -60000 -60000 -60000 -60000 -60000 -60000 -60000 -60000 -60000 -60000 -60000 -60000 -60000 -60000 -60000 -60000 -60000 -60000 -60000 -60000 -60000 -60000 -60000 -60000 -60000 -60000 -60000 -60000 -60000 -60000 -60000 -60000 -60000 -60000 -60000 -60000 -60000 -60000 -60000 -60000 -60000 -60000 -60000 -60000 -60000 -60000 -60000 -60000 -60000 -60000 -60000 -60000 -60000 -60000 -60000 -60000 -60000 -60000 -60000 -60000 -60000 -60000 -60000 -60000 -60000 -60000 -60000 -60000 -60000 -60000 -60000 -60000 -60000 -60000 -60000 -60000 -60000 -60000 -60000 -60000 -60000 -60000 -60000 -60000 -60000 -60000 -60000 -60000 -60000 -60000 -60000 -60000 -60000 -60000 -60000 -60000 -60000 -60000 -60000 -60000 -60000 -60000 -60000 -60000 -60000 -60000 -60000 -60000 -60000 -60000 -60000 -60000 -60000 -60000 -60000 -60000 -60000 -60000 -60000 -60000 -60000 -60000 -60000 -60000 -60000 -60000 -59979.9 -59984.2 -59987.6 -59989.9 -59991.4 -59992.5 -59993.3 -59993.9 -59994.5 -59994.9 -59995.3 -59995.6 -59995.9 -59996.1 -59996.3 -59996.5 -59996.7 -59996.9 -59997 -59997.2 -59997.3 -59997.4 -59997.5 -59997.6 -59997.7 -59997.8 -59997.9 -59998 -59998 -59998.1 -59998.2 -59998.2 -59998.3 -59998.4 -59998.4 -59998.5 -59998.5 -59998.6 -59998.6 -59998.6 -59998.7 -59998.7 -59998.8 -59998.8 -59998.8 -59998.9 -59998.9 -59998.9 -59999 -59999 -59999 -59999 -59999.1 -59999.1 -59999.1 -59999.1 -59999.2 -59999.2 -59999.2 -59999.2 -59999.3 -59999.3 -59999.3 -59999.3 -59999.3 -59999.3 -59999.4 -59999.4 -59999.4 -59999.4 -59999.4 -59999.4 -59999.5 -59999.5 -59999.5 -59999.5 -59999.5 -59999.5 -59999.5 -59999.6 -59999.6 -59999.6 -59999.6 -59999.6 -59999.6 -59999.6 -59999.6 -59999.6 -59999.7 -59999.7 -59999.7 -59999.7 -59999.7 -59999.7 -59999.7 -59999.7 -59999.7 -59999.7 -59999.8 -59999.8 -59999.8 -59999.8 -59999.8 -59999.8 -59999.8 -59999.8 -59999.8 -59999.8 -59999.8 -59999.8 -59999.9 -59999.9 -59999.9 -59999.9 -59999.9 -59999.9 -59999.9 -59999.9 -59999.9 -59999.9 -59999.9 -59999.9 -60000 -60000 -60000 -60000 -60000 -60000 -59969 -59972.7 -59976.2 -59979.2 -59981.7 -59983.8 -59985.5 -59986.9 -59988.1 -59989 -59989.9 -59990.6 -59991.2 -59991.7 -59992.2 -59992.7 -59993.1 -59993.4 -59993.7 -59994 -59994.3 -59994.6 -59994.8 -59995 -59995.2 -59995.4 -59995.6 -59995.8 -59995.9 -59996.1 -59996.2 -59996.3 -59996.5 -59996.6 -59996.7 -59996.8 -59996.9 -59997 -59997.1 -59997.2 -59997.3 -59997.4 -59997.4 -59997.5 -59997.6 -59997.7 -59997.7 -59997.8 -59997.9 -59997.9 -59998 -59998 -59998.1 -59998.1 -59998.2 -59998.2 -59998.3 -59998.3 -59998.4 -59998.4 -59998.5 -59998.5 -59998.5 -59998.6 -59998.6 -59998.6 -59998.7 -59998.7 -59998.8 -59998.8 -59998.8 -59998.8 -59998.9 -59998.9 -59998.9 -59999 -59999 -59999 -59999 -59999.1 -59999.1 -59999.1 -59999.1 -59999.2 -59999.2 -59999.2 -59999.2 -59999.3 -59999.3 -59999.3 -59999.3 -59999.3 -59999.4 -59999.4 -59999.4 -59999.4 -59999.4 -59999.5 -59999.5 -59999.5 -59999.5 -59999.5 -59999.6 -59999.6 -59999.6 -59999.6 -59999.6 -59999.6 -59999.7 -59999.7 -59999.7 -59999.7 -59999.7 -59999.7 -59999.8 -59999.8 -59999.8 -59999.8 -59999.8 -59999.8 -59999.8 -59999.9 -59999.9 -59999.9 -59999.9 -59999.9 -59999.9 -60000 -59960.5 -59963.9 -59967.2 -59970.2 -59973 -59975.4 -59977.6 -59979.6 -59981.2 -59982.7 -59984 -59985.1 -59986.1 -59986.9 -59987.7 -59988.4 -59989 -59989.6 -59990.1 -59990.6 -59991.1 -59991.5 -59991.8 -59992.2 -59992.5 -59992.8 -59993.1 -59993.4 -59993.6 -59993.9 -59994.1 -59994.3 -59994.5 -59994.7 -59994.9 -59995 -59995.2 -59995.3 -59995.5 -59995.6 -59995.8 -59995.9 -59996 -59996.1 -59996.3 -59996.4 -59996.5 -59996.6 -59996.7 -59996.8 -59996.8 -59996.9 -59997 -59997.1 -59997.2 -59997.3 -59997.3 -59997.4 -59997.5 -59997.5 -59997.6 -59997.7 -59997.7 -59997.8 -59997.8 -59997.9 -59998 -59998 -59998.1 -59998.1 -59998.2 -59998.2 -59998.3 -59998.3 -59998.3 -59998.4 -59998.4 -59998.5 -59998.5 -59998.6 -59998.6 -59998.6 -59998.7 -59998.7 -59998.7 -59998.8 -59998.8 -59998.8 -59998.9 -59998.9 -59998.9 -59999 -59999 -59999 -59999.1 -59999.1 -59999.1 -59999.2 -59999.2 -59999.2 -59999.2 -59999.3 -59999.3 -59999.3 -59999.4 -59999.4 -59999.4 -59999.4 -59999.5 -59999.5 -59999.5 -59999.5 -59999.6 -59999.6 -59999.6 -59999.6 -59999.6 -59999.7 -59999.7 -59999.7 -59999.7 -59999.8 -59999.8 -59999.8 -59999.8 -59999.9 -59999.9 -59999.9 -59953.5 -59956.6 -59959.7 -59962.6 -59965.4 -59968 -59970.4 -59972.6 -59974.5 -59976.3 -59977.9 -59979.4 -59980.7 -59981.9 -59982.9 -59983.9 -59984.8 -59985.6 -59986.3 -59986.9 -59987.6 -59988.1 -59988.7 -59989.1 -59989.6 -59990 -59990.4 -59990.8 -59991.1 -59991.5 -59991.8 -59992.1 -59992.4 -59992.6 -59992.9 -59993.1 -59993.3 -59993.6 -59993.8 -59994 -59994.2 -59994.3 -59994.5 -59994.7 -59994.8 -59995 -59995.1 -59995.3 -59995.4 -59995.5 -59995.7 -59995.8 -59995.9 -59996 -59996.1 -59996.2 -59996.3 -59996.4 -59996.5 -59996.6 -59996.7 -59996.8 -59996.9 -59997 -59997 -59997.1 -59997.2 -59997.3 -59997.3 -59997.4 -59997.5 -59997.5 -59997.6 -59997.7 -59997.7 -59997.8 -59997.8 -59997.9 -59998 -59998 -59998.1 -59998.1 -59998.2 -59998.2 -59998.3 -59998.3 -59998.4 -59998.4 -59998.5 -59998.5 -59998.5 -59998.6 -59998.6 -59998.7 -59998.7 -59998.7 -59998.8 -59998.8 -59998.9 -59998.9 -59998.9 -59999 -59999 -59999.1 -59999.1 -59999.1 -59999.2 -59999.2 -59999.2 -59999.3 -59999.3 -59999.3 -59999.4 -59999.4 -59999.4 -59999.5 -59999.5 -59999.5 -59999.5 -59999.6 -59999.6 -59999.6 -59999.7 -59999.7 -59999.7 -59999.8 -59999.8 -59999.8 -59947.5 -59950.5 -59953.4 -59956.2 -59958.9 -59961.5 -59963.9 -59966.2 -59968.3 -59970.3 -59972.1 -59973.8 -59975.3 -59976.7 -59978 -59979.2 -59980.3 -59981.3 -59982.2 -59983.1 -59983.9 -59984.6 -59985.3 -59985.9 -59986.5 -59987.1 -59987.6 -59988.1 -59988.5 -59989 -59989.4 -59989.8 -59990.1 -59990.5 -59990.8 -59991.1 -59991.4 -59991.7 -59991.9 -59992.2 -59992.4 -59992.7 -59992.9 -59993.1 -59993.3 -59993.5 -59993.7 -59993.9 -59994.1 -59994.2 -59994.4 -59994.5 -59994.7 -59994.8 -59995 -59995.1 -59995.3 -59995.4 -59995.5 -59995.6 -59995.7 -59995.9 -59996 -59996.1 -59996.2 -59996.3 -59996.4 -59996.5 -59996.6 -59996.6 -59996.7 -59996.8 -59996.9 -59997 -59997.1 -59997.1 -59997.2 -59997.3 -59997.4 -59997.4 -59997.5 -59997.6 -59997.6 -59997.7 -59997.7 -59997.8 -59997.9 -59997.9 -59998 -59998 -59998.1 -59998.2 -59998.2 -59998.3 -59998.3 -59998.4 -59998.4 -59998.5 -59998.5 -59998.6 -59998.6 -59998.7 -59998.7 -59998.8 -59998.8 -59998.8 -59998.9 -59998.9 -59999 -59999 -59999.1 -59999.1 -59999.1 -59999.2 -59999.2 -59999.3 -59999.3 -59999.3 -59999.4 -59999.4 -59999.5 -59999.5 -59999.5 -59999.6 -59999.6 -59999.6 -59999.7 -59999.7 -59942.5 -59945.3 -59948 -59950.7 -59953.3 -59955.8 -59958.2 -59960.5 -59962.6 -59964.7 -59966.6 -59968.5 -59970.2 -59971.7 -59973.2 -59974.6 -59975.9 -59977 -59978.1 -59979.2 -59980.1 -59981 -59981.8 -59982.6 -59983.3 -59984 -59984.6 -59985.2 -59985.8 -59986.3 -59986.8 -59987.3 -59987.8 -59988.2 -59988.6 -59989 -59989.3 -59989.7 -59990 -59990.3 -59990.6 -59990.9 -59991.2 -59991.5 -59991.7 -59992 -59992.2 -59992.4 -59992.6 -59992.9 -59993.1 -59993.3 -59993.4 -59993.6 -59993.8 -59994 -59994.1 -59994.3 -59994.4 -59994.6 -59994.7 -59994.9 -59995 -59995.1 -59995.3 -59995.4 -59995.5 -59995.6 -59995.7 -59995.8 -59995.9 -59996.1 -59996.2 -59996.3 -59996.3 -59996.4 -59996.5 -59996.6 -59996.7 -59996.8 -59996.9 -59997 -59997 -59997.1 -59997.2 -59997.3 -59997.4 -59997.4 -59997.5 -59997.6 -59997.6 -59997.7 -59997.8 -59997.8 -59997.9 -59998 -59998 -59998.1 -59998.1 -59998.2 -59998.3 -59998.3 -59998.4 -59998.4 -59998.5 -59998.5 -59998.6 -59998.6 -59998.7 -59998.7 -59998.8 -59998.8 -59998.9 -59998.9 -59999 -59999 -59999.1 -59999.1 -59999.2 -59999.2 -59999.3 -59999.3 -59999.4 -59999.4 -59999.5 -59999.5 -59999.6 -59999.6 -59938.1 -59940.7 -59943.3 -59945.9 -59948.4 -59950.8 -59953.1 -59955.4 -59957.6 -59959.6 -59961.6 -59963.5 -59965.3 -59967 -59968.6 -59970.1 -59971.5 -59972.8 -59974.1 -59975.2 -59976.3 -59977.3 -59978.3 -59979.2 -59980 -59980.8 -59981.6 -59982.3 -59983 -59983.6 -59984.2 -59984.8 -59985.3 -59985.8 -59986.3 -59986.8 -59987.2 -59987.6 -59988 -59988.4 -59988.8 -59989.1 -59989.4 -59989.8 -59990.1 -59990.4 -59990.6 -59990.9 -59991.2 -59991.4 -59991.7 -59991.9 -59992.1 -59992.3 -59992.5 -59992.7 -59992.9 -59993.1 -59993.3 -59993.5 -59993.7 -59993.8 -59994 -59994.1 -59994.3 -59994.4 -59994.6 -59994.7 -59994.9 -59995 -59995.1 -59995.3 -59995.4 -59995.5 -59995.6 -59995.7 -59995.8 -59995.9 -59996 -59996.1 -59996.2 -59996.3 -59996.4 -59996.5 -59996.6 -59996.7 -59996.8 -59996.9 -59997 -59997.1 -59997.1 -59997.2 -59997.3 -59997.4 -59997.4 -59997.5 -59997.6 -59997.7 -59997.7 -59997.8 -59997.9 -59997.9 -59998 -59998.1 -59998.1 -59998.2 -59998.3 -59998.3 -59998.4 -59998.5 -59998.5 -59998.6 -59998.6 -59998.7 -59998.7 -59998.8 -59998.9 -59998.9 -59999 -59999 -59999.1 -59999.1 -59999.2 -59999.2 -59999.3 -59999.3 -59999.4 -59999.5 -59934.3 -59936.8 -59939.3 -59941.7 -59944.1 -59946.4 -59948.7 -59950.9 -59953 -59955.1 -59957.1 -59959 -59960.8 -59962.6 -59964.2 -59965.8 -59967.3 -59968.8 -59970.1 -59971.4 -59972.6 -59973.7 -59974.8 -59975.8 -59976.8 -59977.7 -59978.5 -59979.3 -59980.1 -59980.8 -59981.5 -59982.2 -59982.8 -59983.4 -59983.9 -59984.5 -59985 -59985.5 -59985.9 -59986.4 -59986.8 -59987.2 -59987.6 -59988 -59988.3 -59988.7 -59989 -59989.3 -59989.6 -59989.9 -59990.2 -59990.5 -59990.7 -59991 -59991.2 -59991.5 -59991.7 -59991.9 -59992.1 -59992.4 -59992.6 -59992.7 -59992.9 -59993.1 -59993.3 -59993.5 -59993.6 -59993.8 -59994 -59994.1 -59994.3 -59994.4 -59994.6 -59994.7 -59994.8 -59995 -59995.1 -59995.2 -59995.3 -59995.5 -59995.6 -59995.7 -59995.8 -59995.9 -59996 -59996.1 -59996.2 -59996.3 -59996.4 -59996.5 -59996.6 -59996.7 -59996.8 -59996.9 -59997 -59997.1 -59997.1 -59997.2 -59997.3 -59997.4 -59997.5 -59997.5 -59997.6 -59997.7 -59997.8 -59997.8 -59997.9 -59998 -59998.1 -59998.1 -59998.2 -59998.3 -59998.3 -59998.4 -59998.5 -59998.5 -59998.6 -59998.7 -59998.7 -59998.8 -59998.9 -59998.9 -59999 -59999 -59999.1 -59999.2 -59999.2 -59999.3 -59931.1 -59933.4 -59935.8 -59938.1 -59940.4 -59942.6 -59944.8 -59946.9 -59949 -59951 -59953 -59954.9 -59956.7 -59958.5 -59960.2 -59961.8 -59963.4 -59964.9 -59966.3 -59967.7 -59968.9 -59970.2 -59971.3 -59972.4 -59973.5 -59974.5 -59975.4 -59976.3 -59977.2 -59978 -59978.8 -59979.5 -59980.2 -59980.9 -59981.5 -59982.1 -59982.7 -59983.3 -59983.8 -59984.3 -59984.8 -59985.3 -59985.7 -59986.1 -59986.5 -59986.9 -59987.3 -59987.7 -59988 -59988.4 -59988.7 -59989 -59989.3 -59989.6 -59989.9 -59990.2 -59990.4 -59990.7 -59990.9 -59991.2 -59991.4 -59991.6 -59991.8 -59992.1 -59992.3 -59992.5 -59992.6 -59992.8 -59993 -59993.2 -59993.4 -59993.5 -59993.7 -59993.9 -59994 -59994.2 -59994.3 -59994.5 -59994.6 -59994.7 -59994.9 -59995 -59995.1 -59995.3 -59995.4 -59995.5 -59995.6 -59995.7 -59995.8 -59996 -59996.1 -59996.2 -59996.3 -59996.4 -59996.5 -59996.6 -59996.7 -59996.8 -59996.9 -59996.9 -59997 -59997.1 -59997.2 -59997.3 -59997.4 -59997.5 -59997.6 -59997.6 -59997.7 -59997.8 -59997.9 -59998 -59998 -59998.1 -59998.2 -59998.3 -59998.3 -59998.4 -59998.5 -59998.5 -59998.6 -59998.7 -59998.8 -59998.8 -59998.9 -59999 -59999 -59999.1 -59928.3 -59930.5 -59932.8 -59935 -59937.1 -59939.3 -59941.4 -59943.4 -59945.5 -59947.4 -59949.4 -59951.2 -59953 -59954.8 -59956.5 -59958.2 -59959.7 -59961.3 -59962.7 -59964.1 -59965.5 -59966.8 -59968 -59969.2 -59970.3 -59971.4 -59972.4 -59973.4 -59974.3 -59975.2 -59976.1 -59976.9 -59977.6 -59978.4 -59979.1 -59979.8 -59980.4 -59981 -59981.6 -59982.2 -59982.7 -59983.3 -59983.8 -59984.2 -59984.7 -59985.2 -59985.6 -59986 -59986.4 -59986.8 -59987.1 -59987.5 -59987.8 -59988.2 -59988.5 -59988.8 -59989.1 -59989.4 -59989.7 -59989.9 -59990.2 -59990.5 -59990.7 -59990.9 -59991.2 -59991.4 -59991.6 -59991.8 -59992 -59992.2 -59992.4 -59992.6 -59992.8 -59993 -59993.2 -59993.3 -59993.5 -59993.7 -59993.8 -59994 -59994.1 -59994.3 -59994.4 -59994.6 -59994.7 -59994.8 -59995 -59995.1 -59995.2 -59995.4 -59995.5 -59995.6 -59995.7 -59995.8 -59995.9 -59996.1 -59996.2 -59996.3 -59996.4 -59996.5 -59996.6 -59996.7 -59996.8 -59996.9 -59997 -59997.1 -59997.2 -59997.3 -59997.3 -59997.4 -59997.5 -59997.6 -59997.7 -59997.8 -59997.9 -59997.9 -59998 -59998.1 -59998.2 -59998.3 -59998.4 -59998.4 -59998.5 -59998.6 -59998.7 -59998.7 -59998.8 -59998.9 -59925.9 -59928 -59930.2 -59932.2 -59934.3 -59936.4 -59938.4 -59940.4 -59942.3 -59944.2 -59946.1 -59947.9 -59949.7 -59951.5 -59953.1 -59954.8 -59956.4 -59957.9 -59959.4 -59960.8 -59962.2 -59963.6 -59964.8 -59966.1 -59967.2 -59968.4 -59969.5 -59970.5 -59971.5 -59972.5 -59973.4 -59974.2 -59975.1 -59975.9 -59976.7 -59977.4 -59978.1 -59978.8 -59979.4 -59980.1 -59980.7 -59981.2 -59981.8 -59982.3 -59982.8 -59983.3 -59983.8 -59984.3 -59984.7 -59985.1 -59985.6 -59985.9 -59986.3 -59986.7 -59987.1 -59987.4 -59987.7 -59988.1 -59988.4 -59988.7 -59989 -59989.2 -59989.5 -59989.8 -59990.1 -59990.3 -59990.5 -59990.8 -59991 -59991.2 -59991.5 -59991.7 -59991.9 -59992.1 -59992.3 -59992.5 -59992.7 -59992.8 -59993 -59993.2 -59993.4 -59993.5 -59993.7 -59993.9 -59994 -59994.2 -59994.3 -59994.5 -59994.6 -59994.7 -59994.9 -59995 -59995.1 -59995.3 -59995.4 -59995.5 -59995.6 -59995.8 -59995.9 -59996 -59996.1 -59996.2 -59996.3 -59996.4 -59996.5 -59996.6 -59996.7 -59996.9 -59997 -59997.1 -59997.1 -59997.2 -59997.3 -59997.4 -59997.5 -59997.6 -59997.7 -59997.8 -59997.9 -59998 -59998.1 -59998.2 -59998.2 -59998.3 -59998.4 -59998.5 -59998.6 -59998.7 -59923.9 -59925.9 -59927.9 -59929.9 -59931.9 -59933.8 -59935.8 -59937.7 -59939.5 -59941.4 -59943.2 -59945 -59946.7 -59948.4 -59950.1 -59951.7 -59953.3 -59954.8 -59956.3 -59957.8 -59959.2 -59960.5 -59961.8 -59963.1 -59964.3 -59965.5 -59966.6 -59967.7 -59968.8 -59969.8 -59970.7 -59971.7 -59972.6 -59973.4 -59974.3 -59975.1 -59975.8 -59976.6 -59977.3 -59977.9 -59978.6 -59979.2 -59979.8 -59980.4 -59981 -59981.5 -59982 -59982.5 -59983 -59983.5 -59983.9 -59984.4 -59984.8 -59985.2 -59985.6 -59986 -59986.3 -59986.7 -59987 -59987.4 -59987.7 -59988 -59988.3 -59988.6 -59988.9 -59989.2 -59989.5 -59989.7 -59990 -59990.2 -59990.5 -59990.7 -59990.9 -59991.2 -59991.4 -59991.6 -59991.8 -59992 -59992.2 -59992.4 -59992.6 -59992.8 -59992.9 -59993.1 -59993.3 -59993.4 -59993.6 -59993.8 -59993.9 -59994.1 -59994.2 -59994.4 -59994.5 -59994.7 -59994.8 -59995 -59995.1 -59995.2 -59995.3 -59995.5 -59995.6 -59995.7 -59995.8 -59996 -59996.1 -59996.2 -59996.3 -59996.4 -59996.5 -59996.6 -59996.8 -59996.9 -59997 -59997.1 -59997.2 -59997.3 -59997.4 -59997.5 -59997.6 -59997.7 -59997.8 -59997.9 -59998 -59998 -59998.1 -59998.2 -59998.3 -59998.4 -59922.3 -59924.2 -59926.1 -59927.9 -59929.8 -59931.7 -59933.5 -59935.3 -59937.1 -59938.9 -59940.7 -59942.4 -59944.1 -59945.7 -59947.4 -59949 -59950.5 -59952 -59953.5 -59955 -59956.4 -59957.7 -59959.1 -59960.3 -59961.6 -59962.8 -59963.9 -59965.1 -59966.2 -59967.2 -59968.2 -59969.2 -59970.1 -59971 -59971.9 -59972.7 -59973.6 -59974.3 -59975.1 -59975.8 -59976.5 -59977.2 -59977.8 -59978.5 -59979.1 -59979.7 -59980.2 -59980.8 -59981.3 -59981.8 -59982.3 -59982.8 -59983.2 -59983.7 -59984.1 -59984.5 -59984.9 -59985.3 -59985.7 -59986 -59986.4 -59986.7 -59987.1 -59987.4 -59987.7 -59988 -59988.3 -59988.6 -59988.9 -59989.2 -59989.4 -59989.7 -59989.9 -59990.2 -59990.4 -59990.7 -59990.9 -59991.1 -59991.3 -59991.5 -59991.8 -59992 -59992.1 -59992.3 -59992.5 -59992.7 -59992.9 -59993.1 -59993.2 -59993.4 -59993.6 -59993.7 -59993.9 -59994.1 -59994.2 -59994.4 -59994.5 -59994.7 -59994.8 -59994.9 -59995.1 -59995.2 -59995.3 -59995.5 -59995.6 -59995.7 -59995.9 -59996 -59996.1 -59996.2 -59996.3 -59996.5 -59996.6 -59996.7 -59996.8 -59996.9 -59997 -59997.1 -59997.2 -59997.3 -59997.4 -59997.5 -59997.6 -59997.7 -59997.8 -59997.9 -59998 -59998.1 -59920.9 -59922.7 -59924.5 -59926.3 -59928.1 -59929.8 -59931.6 -59933.3 -59935 -59936.7 -59938.4 -59940.1 -59941.7 -59943.3 -59944.9 -59946.5 -59948 -59949.5 -59951 -59952.4 -59953.8 -59955.1 -59956.5 -59957.8 -59959 -59960.2 -59961.4 -59962.6 -59963.7 -59964.7 -59965.8 -59966.8 -59967.8 -59968.7 -59969.6 -59970.5 -59971.4 -59972.2 -59973 -59973.7 -59974.5 -59975.2 -59975.9 -59976.6 -59977.2 -59977.8 -59978.4 -59979 -59979.6 -59980.1 -59980.6 -59981.2 -59981.6 -59982.1 -59982.6 -59983 -59983.5 -59983.9 -59984.3 -59984.7 -59985.1 -59985.5 -59985.8 -59986.2 -59986.5 -59986.8 -59987.2 -59987.5 -59987.8 -59988.1 -59988.4 -59988.7 -59988.9 -59989.2 -59989.5 -59989.7 -59990 -59990.2 -59990.4 -59990.7 -59990.9 -59991.1 -59991.3 -59991.6 -59991.8 -59992 -59992.2 -59992.3 -59992.5 -59992.7 -59992.9 -59993.1 -59993.3 -59993.4 -59993.6 -59993.8 -59993.9 -59994.1 -59994.2 -59994.4 -59994.5 -59994.7 -59994.8 -59995 -59995.1 -59995.2 -59995.4 -59995.5 -59995.6 -59995.8 -59995.9 -59996 -59996.1 -59996.3 -59996.4 -59996.5 -59996.6 -59996.7 -59996.9 -59997 -59997.1 -59997.2 -59997.3 -59997.4 -59997.5 -59997.6 -59997.7 -59997.9 -59919.8 -59921.5 -59923.2 -59924.9 -59926.6 -59928.3 -59929.9 -59931.6 -59933.2 -59934.9 -59936.5 -59938.1 -59939.7 -59941.2 -59942.8 -59944.3 -59945.8 -59947.2 -59948.7 -59950.1 -59951.4 -59952.8 -59954.1 -59955.4 -59956.6 -59957.9 -59959 -59960.2 -59961.3 -59962.4 -59963.5 -59964.5 -59965.5 -59966.5 -59967.4 -59968.3 -59969.2 -59970.1 -59970.9 -59971.7 -59972.5 -59973.2 -59974 -59974.7 -59975.3 -59976 -59976.6 -59977.3 -59977.9 -59978.4 -59979 -59979.5 -59980.1 -59980.6 -59981.1 -59981.6 -59982 -59982.5 -59982.9 -59983.3 -59983.8 -59984.2 -59984.5 -59984.9 -59985.3 -59985.7 -59986 -59986.3 -59986.7 -59987 -59987.3 -59987.6 -59987.9 -59988.2 -59988.5 -59988.8 -59989 -59989.3 -59989.5 -59989.8 -59990 -59990.3 -59990.5 -59990.7 -59991 -59991.2 -59991.4 -59991.6 -59991.8 -59992 -59992.2 -59992.4 -59992.6 -59992.8 -59992.9 -59993.1 -59993.3 -59993.5 -59993.6 -59993.8 -59994 -59994.1 -59994.3 -59994.4 -59994.6 -59994.7 -59994.9 -59995 -59995.2 -59995.3 -59995.4 -59995.6 -59995.7 -59995.8 -59996 -59996.1 -59996.2 -59996.4 -59996.5 -59996.6 -59996.7 -59996.8 -59997 -59997.1 -59997.2 -59997.3 -59997.4 -59997.5 -59919 -59920.6 -59922.2 -59923.8 -59925.4 -59927 -59928.6 -59930.2 -59931.7 -59933.3 -59934.8 -59936.4 -59937.9 -59939.4 -59940.9 -59942.3 -59943.8 -59945.2 -59946.6 -59948 -59949.3 -59950.6 -59951.9 -59953.2 -59954.5 -59955.7 -59956.9 -59958 -59959.1 -59960.2 -59961.3 -59962.4 -59963.4 -59964.4 -59965.3 -59966.3 -59967.2 -59968 -59968.9 -59969.7 -59970.5 -59971.3 -59972.1 -59972.8 -59973.5 -59974.2 -59974.9 -59975.5 -59976.2 -59976.8 -59977.4 -59977.9 -59978.5 -59979 -59979.6 -59980.1 -59980.6 -59981.1 -59981.5 -59982 -59982.4 -59982.8 -59983.3 -59983.7 -59984.1 -59984.4 -59984.8 -59985.2 -59985.5 -59985.9 -59986.2 -59986.5 -59986.9 -59987.2 -59987.5 -59987.8 -59988.1 -59988.3 -59988.6 -59988.9 -59989.2 -59989.4 -59989.7 -59989.9 -59990.1 -59990.4 -59990.6 -59990.8 -59991.1 -59991.3 -59991.5 -59991.7 -59991.9 -59992.1 -59992.3 -59992.5 -59992.7 -59992.8 -59993 -59993.2 -59993.4 -59993.5 -59993.7 -59993.9 -59994 -59994.2 -59994.4 -59994.5 -59994.7 -59994.8 -59995 -59995.1 -59995.3 -59995.4 -59995.5 -59995.7 -59995.8 -59995.9 -59996.1 -59996.2 -59996.3 -59996.5 -59996.6 -59996.7 -59996.9 -59997 -59997.1 -59997.2 -59918.4 -59919.9 -59921.4 -59922.9 -59924.4 -59925.9 -59927.4 -59929 -59930.4 -59931.9 -59933.4 -59934.9 -59936.3 -59937.8 -59939.2 -59940.6 -59942 -59943.4 -59944.8 -59946.1 -59947.4 -59948.7 -59950 -59951.2 -59952.5 -59953.7 -59954.8 -59956 -59957.1 -59958.2 -59959.3 -59960.3 -59961.4 -59962.4 -59963.3 -59964.3 -59965.2 -59966.1 -59967 -59967.8 -59968.7 -59969.5 -59970.3 -59971 -59971.8 -59972.5 -59973.2 -59973.8 -59974.5 -59975.1 -59975.8 -59976.4 -59976.9 -59977.5 -59978.1 -59978.6 -59979.1 -59979.6 -59980.1 -59980.6 -59981.1 -59981.5 -59982 -59982.4 -59982.8 -59983.2 -59983.6 -59984 -59984.4 -59984.8 -59985.1 -59985.5 -59985.8 -59986.1 -59986.5 -59986.8 -59987.1 -59987.4 -59987.7 -59988 -59988.3 -59988.5 -59988.8 -59989.1 -59989.3 -59989.6 -59989.8 -59990 -59990.3 -59990.5 -59990.7 -59991 -59991.2 -59991.4 -59991.6 -59991.8 -59992 -59992.2 -59992.4 -59992.6 -59992.8 -59993 -59993.1 -59993.3 -59993.5 -59993.7 -59993.8 -59994 -59994.2 -59994.3 -59994.5 -59994.6 -59994.8 -59994.9 -59995.1 -59995.2 -59995.4 -59995.5 -59995.7 -59995.8 -59995.9 -59996.1 -59996.2 -59996.4 -59996.5 -59996.6 -59996.7 -59996.9 -59918 -59919.4 -59920.8 -59922.3 -59923.7 -59925.1 -59926.6 -59928 -59929.4 -59930.8 -59932.2 -59933.6 -59935 -59936.4 -59937.8 -59939.1 -59940.5 -59941.8 -59943.1 -59944.4 -59945.7 -59947 -59948.2 -59949.5 -59950.7 -59951.8 -59953 -59954.1 -59955.3 -59956.4 -59957.4 -59958.5 -59959.5 -59960.5 -59961.5 -59962.4 -59963.4 -59964.3 -59965.2 -59966 -59966.9 -59967.7 -59968.5 -59969.3 -59970 -59970.8 -59971.5 -59972.2 -59972.9 -59973.5 -59974.2 -59974.8 -59975.4 -59976 -59976.6 -59977.2 -59977.7 -59978.2 -59978.8 -59979.3 -59979.7 -59980.2 -59980.7 -59981.1 -59981.6 -59982 -59982.4 -59982.8 -59983.2 -59983.6 -59984 -59984.4 -59984.7 -59985.1 -59985.4 -59985.8 -59986.1 -59986.4 -59986.7 -59987 -59987.3 -59987.6 -59987.9 -59988.2 -59988.5 -59988.7 -59989 -59989.2 -59989.5 -59989.7 -59990 -59990.2 -59990.5 -59990.7 -59990.9 -59991.1 -59991.3 -59991.5 -59991.7 -59991.9 -59992.1 -59992.3 -59992.5 -59992.7 -59992.9 -59993.1 -59993.3 -59993.4 -59993.6 -59993.8 -59994 -59994.1 -59994.3 -59994.5 -59994.6 -59994.8 -59994.9 -59995.1 -59995.2 -59995.4 -59995.5 -59995.7 -59995.8 -59996 -59996.1 -59996.2 -59996.4 -59996.5 -59917.8 -59919.1 -59920.5 -59921.8 -59923.2 -59924.5 -59925.9 -59927.2 -59928.6 -59929.9 -59931.3 -59932.6 -59933.9 -59935.3 -59936.6 -59937.9 -59939.2 -59940.5 -59941.7 -59943 -59944.2 -59945.5 -59946.7 -59947.9 -59949 -59950.2 -59951.3 -59952.5 -59953.6 -59954.6 -59955.7 -59956.7 -59957.8 -59958.8 -59959.7 -59960.7 -59961.6 -59962.6 -59963.5 -59964.3 -59965.2 -59966 -59966.8 -59967.6 -59968.4 -59969.2 -59969.9 -59970.6 -59971.3 -59972 -59972.7 -59973.3 -59973.9 -59974.5 -59975.1 -59975.7 -59976.3 -59976.9 -59977.4 -59977.9 -59978.4 -59978.9 -59979.4 -59979.9 -59980.4 -59980.8 -59981.2 -59981.7 -59982.1 -59982.5 -59982.9 -59983.3 -59983.7 -59984 -59984.4 -59984.8 -59985.1 -59985.4 -59985.8 -59986.1 -59986.4 -59986.7 -59987 -59987.3 -59987.6 -59987.9 -59988.2 -59988.4 -59988.7 -59989 -59989.2 -59989.5 -59989.7 -59990 -59990.2 -59990.4 -59990.6 -59990.9 -59991.1 -59991.3 -59991.5 -59991.7 -59991.9 -59992.1 -59992.3 -59992.5 -59992.7 -59992.9 -59993.1 -59993.3 -59993.4 -59993.6 -59993.8 -59994 -59994.1 -59994.3 -59994.5 -59994.6 -59994.8 -59994.9 -59995.1 -59995.2 -59995.4 -59995.6 -59995.7 -59995.8 -59996 -59996.1 -59917.7 -59919 -59920.3 -59921.5 -59922.8 -59924.1 -59925.4 -59926.7 -59927.9 -59929.2 -59930.5 -59931.8 -59933 -59934.3 -59935.6 -59936.8 -59938.1 -59939.3 -59940.5 -59941.7 -59942.9 -59944.1 -59945.3 -59946.4 -59947.6 -59948.7 -59949.8 -59950.9 -59952 -59953.1 -59954.1 -59955.2 -59956.2 -59957.2 -59958.1 -59959.1 -59960 -59960.9 -59961.8 -59962.7 -59963.6 -59964.4 -59965.2 -59966 -59966.8 -59967.6 -59968.3 -59969.1 -59969.8 -59970.5 -59971.2 -59971.8 -59972.5 -59973.1 -59973.7 -59974.3 -59974.9 -59975.5 -59976.1 -59976.6 -59977.1 -59977.7 -59978.2 -59978.7 -59979.1 -59979.6 -59980.1 -59980.5 -59981 -59981.4 -59981.8 -59982.2 -59982.6 -59983 -59983.4 -59983.7 -59984.1 -59984.5 -59984.8 -59985.1 -59985.5 -59985.8 -59986.1 -59986.4 -59986.7 -59987 -59987.3 -59987.6 -59987.9 -59988.2 -59988.4 -59988.7 -59989 -59989.2 -59989.5 -59989.7 -59989.9 -59990.2 -59990.4 -59990.6 -59990.9 -59991.1 -59991.3 -59991.5 -59991.7 -59991.9 -59992.1 -59992.3 -59992.5 -59992.7 -59992.9 -59993.1 -59993.3 -59993.4 -59993.6 -59993.8 -59994 -59994.1 -59994.3 -59994.5 -59994.6 -59994.8 -59995 -59995.1 -59995.3 -59995.4 -59995.6 -59995.7 -59917.9 -59919.1 -59920.3 -59921.5 -59922.7 -59923.9 -59925.1 -59926.3 -59927.5 -59928.7 -59929.9 -59931.1 -59932.3 -59933.5 -59934.7 -59935.9 -59937.1 -59938.3 -59939.5 -59940.6 -59941.8 -59942.9 -59944.1 -59945.2 -59946.3 -59947.4 -59948.5 -59949.6 -59950.6 -59951.7 -59952.7 -59953.7 -59954.7 -59955.7 -59956.7 -59957.6 -59958.5 -59959.4 -59960.3 -59961.2 -59962.1 -59962.9 -59963.7 -59964.6 -59965.3 -59966.1 -59966.9 -59967.6 -59968.3 -59969.1 -59969.7 -59970.4 -59971.1 -59971.7 -59972.4 -59973 -59973.6 -59974.2 -59974.8 -59975.3 -59975.9 -59976.4 -59976.9 -59977.4 -59977.9 -59978.4 -59978.9 -59979.4 -59979.8 -59980.3 -59980.7 -59981.1 -59981.5 -59981.9 -59982.3 -59982.7 -59983.1 -59983.5 -59983.8 -59984.2 -59984.5 -59984.9 -59985.2 -59985.5 -59985.9 -59986.2 -59986.5 -59986.8 -59987.1 -59987.4 -59987.7 -59987.9 -59988.2 -59988.5 -59988.7 -59989 -59989.2 -59989.5 -59989.7 -59990 -59990.2 -59990.4 -59990.7 -59990.9 -59991.1 -59991.3 -59991.5 -59991.7 -59991.9 -59992.1 -59992.3 -59992.5 -59992.7 -59992.9 -59993.1 -59993.3 -59993.5 -59993.7 -59993.8 -59994 -59994.2 -59994.4 -59994.5 -59994.7 -59994.9 -59995 -59995.2 -59995.3 -59918.2 -59919.3 -59920.4 -59921.5 -59922.6 -59923.8 -59924.9 -59926.1 -59927.2 -59928.4 -59929.5 -59930.7 -59931.8 -59932.9 -59934.1 -59935.2 -59936.4 -59937.5 -59938.6 -59939.7 -59940.9 -59942 -59943.1 -59944.1 -59945.2 -59946.3 -59947.3 -59948.4 -59949.4 -59950.4 -59951.4 -59952.4 -59953.4 -59954.4 -59955.3 -59956.2 -59957.2 -59958.1 -59959 -59959.8 -59960.7 -59961.5 -59962.3 -59963.2 -59964 -59964.7 -59965.5 -59966.2 -59967 -59967.7 -59968.4 -59969.1 -59969.8 -59970.4 -59971.1 -59971.7 -59972.3 -59972.9 -59973.5 -59974.1 -59974.6 -59975.2 -59975.7 -59976.2 -59976.8 -59977.3 -59977.8 -59978.2 -59978.7 -59979.2 -59979.6 -59980.1 -59980.5 -59980.9 -59981.3 -59981.7 -59982.1 -59982.5 -59982.9 -59983.3 -59983.6 -59984 -59984.3 -59984.7 -59985 -59985.3 -59985.6 -59986 -59986.3 -59986.6 -59986.9 -59987.1 -59987.4 -59987.7 -59988 -59988.3 -59988.5 -59988.8 -59989 -59989.3 -59989.5 -59989.8 -59990 -59990.2 -59990.5 -59990.7 -59990.9 -59991.1 -59991.4 -59991.6 -59991.8 -59992 -59992.2 -59992.4 -59992.6 -59992.8 -59993 -59993.2 -59993.3 -59993.5 -59993.7 -59993.9 -59994.1 -59994.2 -59994.4 -59994.6 -59994.8 -59994.9 -59918.6 -59919.6 -59920.7 -59921.7 -59922.8 -59923.9 -59924.9 -59926 -59927.1 -59928.2 -59929.3 -59930.3 -59931.4 -59932.5 -59933.6 -59934.7 -59935.8 -59936.9 -59937.9 -59939 -59940.1 -59941.1 -59942.2 -59943.2 -59944.3 -59945.3 -59946.3 -59947.3 -59948.3 -59949.3 -59950.3 -59951.3 -59952.2 -59953.2 -59954.1 -59955 -59955.9 -59956.8 -59957.7 -59958.5 -59959.4 -59960.2 -59961 -59961.9 -59962.6 -59963.4 -59964.2 -59964.9 -59965.7 -59966.4 -59967.1 -59967.8 -59968.5 -59969.1 -59969.8 -59970.4 -59971.1 -59971.7 -59972.3 -59972.9 -59973.4 -59974 -59974.5 -59975.1 -59975.6 -59976.1 -59976.6 -59977.1 -59977.6 -59978.1 -59978.5 -59979 -59979.4 -59979.9 -59980.3 -59980.7 -59981.1 -59981.5 -59981.9 -59982.3 -59982.7 -59983.1 -59983.4 -59983.8 -59984.1 -59984.5 -59984.8 -59985.1 -59985.4 -59985.8 -59986.1 -59986.4 -59986.7 -59987 -59987.2 -59987.5 -59987.8 -59988.1 -59988.3 -59988.6 -59988.9 -59989.1 -59989.4 -59989.6 -59989.8 -59990.1 -59990.3 -59990.5 -59990.8 -59991 -59991.2 -59991.4 -59991.6 -59991.8 -59992 -59992.2 -59992.4 -59992.6 -59992.8 -59993 -59993.2 -59993.4 -59993.6 -59993.8 -59994 -59994.1 -59994.3 -59994.5 -59919.1 -59920.1 -59921.1 -59922.1 -59923.1 -59924.1 -59925.1 -59926.1 -59927.1 -59928.1 -59929.1 -59930.2 -59931.2 -59932.2 -59933.3 -59934.3 -59935.3 -59936.4 -59937.4 -59938.4 -59939.4 -59940.4 -59941.5 -59942.5 -59943.5 -59944.5 -59945.4 -59946.4 -59947.4 -59948.3 -59949.3 -59950.2 -59951.2 -59952.1 -59953 -59953.9 -59954.8 -59955.7 -59956.5 -59957.4 -59958.2 -59959 -59959.8 -59960.6 -59961.4 -59962.2 -59963 -59963.7 -59964.5 -59965.2 -59965.9 -59966.6 -59967.3 -59967.9 -59968.6 -59969.2 -59969.9 -59970.5 -59971.1 -59971.7 -59972.3 -59972.8 -59973.4 -59974 -59974.5 -59975 -59975.5 -59976 -59976.5 -59977 -59977.5 -59978 -59978.4 -59978.9 -59979.3 -59979.7 -59980.2 -59980.6 -59981 -59981.4 -59981.8 -59982.2 -59982.5 -59982.9 -59983.3 -59983.6 -59983.9 -59984.3 -59984.6 -59984.9 -59985.3 -59985.6 -59985.9 -59986.2 -59986.5 -59986.8 -59987.1 -59987.4 -59987.6 -59987.9 -59988.2 -59988.4 -59988.7 -59988.9 -59989.2 -59989.4 -59989.7 -59989.9 -59990.2 -59990.4 -59990.6 -59990.8 -59991.1 -59991.3 -59991.5 -59991.7 -59991.9 -59992.1 -59992.3 -59992.5 -59992.7 -59992.9 -59993.1 -59993.3 -59993.5 -59993.7 -59993.9 -59994 -59919.8 -59920.7 -59921.6 -59922.5 -59923.5 -59924.4 -59925.3 -59926.3 -59927.2 -59928.2 -59929.2 -59930.1 -59931.1 -59932.1 -59933.1 -59934.1 -59935 -59936 -59937 -59938 -59938.9 -59939.9 -59940.9 -59941.8 -59942.8 -59943.8 -59944.7 -59945.6 -59946.6 -59947.5 -59948.4 -59949.3 -59950.2 -59951.1 -59952 -59952.9 -59953.8 -59954.6 -59955.5 -59956.3 -59957.1 -59958 -59958.8 -59959.5 -59960.3 -59961.1 -59961.8 -59962.6 -59963.3 -59964 -59964.7 -59965.4 -59966.1 -59966.8 -59967.5 -59968.1 -59968.7 -59969.4 -59970 -59970.6 -59971.2 -59971.7 -59972.3 -59972.9 -59973.4 -59974 -59974.5 -59975 -59975.5 -59976 -59976.5 -59977 -59977.4 -59977.9 -59978.3 -59978.8 -59979.2 -59979.6 -59980.1 -59980.5 -59980.9 -59981.3 -59981.6 -59982 -59982.4 -59982.8 -59983.1 -59983.5 -59983.8 -59984.1 -59984.5 -59984.8 -59985.1 -59985.4 -59985.7 -59986 -59986.3 -59986.6 -59986.9 -59987.2 -59987.5 -59987.8 -59988 -59988.3 -59988.6 -59988.8 -59989.1 -59989.3 -59989.6 -59989.8 -59990 -59990.3 -59990.5 -59990.7 -59990.9 -59991.2 -59991.4 -59991.6 -59991.8 -59992 -59992.2 -59992.4 -59992.6 -59992.8 -59993 -59993.2 -59993.4 -59993.6 -59920.5 -59921.4 -59922.2 -59923.1 -59924 -59924.8 -59925.7 -59926.6 -59927.5 -59928.4 -59929.3 -59930.2 -59931.2 -59932.1 -59933 -59933.9 -59934.9 -59935.8 -59936.7 -59937.7 -59938.6 -59939.5 -59940.4 -59941.4 -59942.3 -59943.2 -59944.1 -59945 -59945.9 -59946.8 -59947.7 -59948.6 -59949.5 -59950.3 -59951.2 -59952 -59952.9 -59953.7 -59954.5 -59955.4 -59956.2 -59957 -59957.8 -59958.5 -59959.3 -59960.1 -59960.8 -59961.5 -59962.3 -59963 -59963.7 -59964.4 -59965.1 -59965.7 -59966.4 -59967 -59967.7 -59968.3 -59968.9 -59969.5 -59970.1 -59970.7 -59971.3 -59971.8 -59972.4 -59972.9 -59973.5 -59974 -59974.5 -59975 -59975.5 -59976 -59976.5 -59976.9 -59977.4 -59977