<?xml version="1.0"?> 
<VTKFile type="StructuredGrid" version="0.1"> 
<StructuredGrid WholeExtent="0 127 0 127 0 0"> 
<Piece Extent="0 127 0 127 0 0"> 
<PointData>
<DataArray type="Float32" Name="u" format="ascii" NumberOfComponents="1"> 
0 -254.985 -509.971 -764.959 -1019.95 -1274.94 -1529.94 -1784.94 -2039.95 -2294.97 -2550 -2805.03 -3060.07 -3315.13 -3570.19 -3825.27 -4080.36 -4335.47 -4590.59 -4845.72 -5100.88 -5356.05 -5611.24 -5866.44 -6121.67 -6376.92 -6632.2 -6887.49 -7142.81 -7398.15 -7653.52 -7908.92 -8164.34 -8419.8 -8675.28 -8930.79 -9186.33 -9441.91 -9697.51 -9953.15 -10208.8 -10464.5 -10720.3 -10976.1 -11231.9 -11487.8 -11743.7 -11999.6 -12255.6 -12511.6 -12767.7 -13023.8 -13279.9 -13536.1 -13792.4 -14048.7 -14305 -14561.4 -14817.9 -15074.4 -15330.9 -15587.6 -15844.2 -16100.9 -16357.7 -16614.5 -16871.4 -17128.4 -17385.4 -17642.4 -17899.5 -18156.7 -18414 -18671.3 -18928.7 -19186.1 -19443.6 -19701.2 -19958.9 -20216.6 -20474.4 -20732.2 -20990.2 -21248.2 -21506.2 -21764.4 -22022.6 -22280.9 -22539.3 -22797.8 -23056.3 -23314.9 -23573.6 -23832.4 -24091.3 -24350.2 -24609.3 -24868.4 -25127.6 -25386.9 -25646.3 -25905.7 -26165.3 -26425 -26684.7 -26944.5 -27204.5 -27464.5 -27724.6 -27984.9 -28245.2 -28505.6 -28766.1 -29026.7 -29287.4 -29548.3 -29809.2 -30070.2 -30331.3 -30592.6 -30853.9 -31115.4 -31376.9 -31638.6 -31900.4 -32162.3 -32424.3 -32686.4 0 -265.378 -530.757 -796.138 -1061.52 -1326.91 -1592.3 -1857.7 -2123.11 -2388.52 -2653.95 -2919.38 -3184.82 -3450.28 -3715.75 -3981.23 -4246.73 -4512.24 -4777.77 -5043.32 -5308.89 -5574.48 -5840.09 -6105.72 -6371.37 -6637.05 -6902.75 -7168.48 -7434.23 -7700.01 -7965.83 -8231.67 -8497.54 -8763.45 -9029.38 -9295.36 -9561.36 -9827.4 -10093.5 -10359.6 -10625.8 -10892 -11158.2 -11424.5 -11690.8 -11957.2 -12223.6 -12490 -12756.5 -13023.1 -13289.7 -13556.3 -13823 -14089.8 -14356.6 -14623.5 -14890.4 -15157.3 -15424.4 -15691.5 -15958.6 -16225.8 -16493.1 -16760.4 -17027.8 -17295.3 -17562.8 -17830.4 -18098 -18365.7 -18633.5 -18901.4 -19169.3 -19437.3 -19705.4 -19973.6 -20241.8 -20510.1 -20778.5 -21046.9 -21315.5 -21584.1 -21852.8 -22121.6 -22390.5 -22659.4 -22928.4 -23197.6 -23466.8 -23736.1 -24005.5 -24274.9 -24544.5 -24814.2 -25083.9 -25353.8 -25623.7 -25893.8 -26163.9 -26434.1 -26704.5 -26974.9 -27245.5 -27516.1 -27786.9 -28057.7 -28328.7 -28599.7 -28870.9 -29142.2 -29413.6 -29685.1 -29956.7 -30228.5 -30500.3 -30772.3 -31044.3 -31316.5 -31588.8 -31861.3 -32133.8 -32406.5 -32679.3 -32952.2 -33225.3 -33498.4 -33771.7 -34045.2 0 -275.759 -551.519 -827.281 -1103.05 -1378.82 -1654.59 -1930.37 -2206.16 -2481.96 -2757.77 -3033.59 -3309.43 -3585.27 -3861.13 -4137.01 -4412.9 -4688.81 -4964.74 -5240.69 -5516.67 -5792.66 -6068.68 -6344.72 -6620.79 -6896.88 -7173 -7449.16 -7725.34 -8001.55 -8277.8 -8554.08 -8830.39 -9106.74 -9383.13 -9659.55 -9936.02 -10212.5 -10489.1 -10765.7 -11042.3 -11319 -11595.7 -11872.5 -12149.3 -12426.1 -12703.1 -12980 -13257.1 -13534.1 -13811.3 -14088.4 -14365.7 -14643 -14920.4 -15197.8 -15475.3 -15752.8 -16030.4 -16308.1 -16585.8 -16863.7 -17141.5 -17419.5 -17697.5 -17975.6 -18253.8 -18532 -18810.3 -19088.7 -19367.2 -19645.7 -19924.3 -20203.1 -20481.8 -20760.7 -21039.7 -21318.7 -21597.8 -21877.1 -22156.4 -22435.8 -22715.3 -22994.8 -23274.5 -23554.3 -23834.2 -24114.1 -24394.2 -24674.3 -24954.6 -25235 -25515.4 -25796 -26076.7 -26357.5 -26638.3 -26919.3 -27200.4 -27481.7 -27763 -28044.4 -28326 -28607.7 -28889.5 -29171.4 -29453.4 -29735.5 -30017.8 -30300.2 -30582.7 -30865.3 -31148.1 -31431 -31714 -31997.2 -32280.5 -32563.9 -32847.4 -33131.1 -33414.9 -33698.9 -33983 -34267.2 -34551.6 -34836.1 -35120.7 -35405.5 0 -286.127 -572.255 -858.386 -1144.52 -1430.66 -1716.81 -2002.96 -2289.12 -2575.29 -2861.48 -3147.67 -3433.88 -3720.11 -4006.35 -4292.61 -4578.88 -4865.18 -5151.5 -5437.84 -5724.2 -6010.59 -6297.01 -6583.45 -6869.93 -7156.43 -7442.96 -7729.53 -8016.13 -8302.76 -8589.43 -8876.14 -9162.89 -9449.68 -9736.5 -10023.4 -10310.3 -10597.3 -10884.3 -11171.3 -11458.4 -11745.6 -12032.8 -12320 -12607.3 -12894.7 -13182.1 -13469.6 -13757.1 -14044.7 -14332.4 -14620.1 -14907.9 -15195.8 -15483.7 -15771.7 -16059.7 -16347.9 -16636.1 -16924.3 -17212.7 -17501.1 -17789.6 -18078.2 -18366.8 -18655.6 -18944.4 -19233.3 -19522.2 -19811.3 -20100.5 -20389.7 -20679 -20968.5 -21258 -21547.6 -21837.3 -22127.1 -22417 -22707 -22997.1 -23287.3 -23577.6 -23868 -24158.5 -24449.1 -24739.8 -25030.6 -25321.6 -25612.6 -25903.8 -26195 -26486.4 -26777.9 -27069.6 -27361.3 -27653.2 -27945.1 -28237.2 -28529.5 -28821.8 -29114.3 -29406.9 -29699.6 -29992.5 -30285.5 -30578.7 -30871.9 -31165.3 -31458.9 -31752.5 -32046.4 -32340.3 -32634.4 -32928.7 -33223.1 -33517.6 -33812.3 -34107.1 -34402.1 -34697.2 -34992.5 -35288 -35583.6 -35879.3 -36175.2 -36471.3 -36767.5 0 -296.483 -592.967 -889.453 -1185.94 -1482.44 -1778.94 -2075.46 -2371.98 -2668.51 -2965.06 -3261.62 -3558.19 -3854.78 -4151.39 -4448.02 -4744.67 -5041.34 -5338.04 -5634.76 -5931.5 -6228.28 -6525.08 -6821.92 -7118.78 -7415.68 -7712.62 -8009.59 -8306.6 -8603.65 -8900.73 -9197.86 -9495.04 -9792.25 -10089.5 -10386.8 -10684.2 -10981.6 -11279.1 -11576.6 -11874.1 -12171.8 -12469.4 -12767.2 -13065 -13362.9 -13660.8 -13958.8 -14256.8 -14554.9 -14853.1 -15151.4 -15449.7 -15748.1 -16046.6 -16345.2 -16643.8 -16942.5 -17241.3 -17540.1 -17839.1 -18138.1 -18437.2 -18736.5 -19035.8 -19335.1 -19634.6 -19934.2 -20233.8 -20533.6 -20833.4 -21133.4 -21433.4 -21733.6 -22033.9 -22334.2 -22634.7 -22935.2 -23235.9 -23536.7 -23837.6 -24138.6 -24439.7 -24741 -25042.3 -25343.8 -25645.4 -25947.1 -26248.9 -26550.9 -26853 -27155.2 -27457.5 -27760 -28062.6 -28365.3 -28668.2 -28971.2 -29274.3 -29577.6 -29881 -30184.6 -30488.3 -30792.1 -31096.1 -31400.3 -31704.5 -32009 -32313.6 -32618.3 -32923.2 -33228.2 -33533.4 -33838.8 -34144.3 -34450 -34755.9 -35061.9 -35368 -35674.4 -35980.9 -36287.6 -36594.4 -36901.5 -37208.7 -37516.1 -37823.6 -38131.4 0 -306.826 -613.653 -920.483 -1227.32 -1534.16 -1841.01 -2147.87 -2454.73 -2761.61 -3068.51 -3375.42 -3682.35 -3989.29 -4296.26 -4603.25 -4910.26 -5217.29 -5524.35 -5831.44 -6138.56 -6445.71 -6752.89 -7060.11 -7367.36 -7674.65 -7981.98 -8289.34 -8596.75 -8904.2 -9211.7 -9519.24 -9826.83 -10134.5 -10442.2 -10749.9 -11057.7 -11365.6 -11673.5 -11981.4 -12289.5 -12597.6 -12905.7 -13213.9 -13522.2 -13830.6 -14139 -14447.5 -14756.1 -15064.7 -15373.4 -15682.2 -15991.1 -16300.1 -16609.1 -16918.2 -17227.4 -17536.7 -17846.1 -18155.6 -18465.1 -18774.8 -19084.5 -19394.4 -19704.3 -20014.4 -20324.5 -20634.7 -20945.1 -21255.6 -21566.1 -21876.8 -22187.6 -22498.5 -22809.5 -23120.6 -23431.8 -23743.2 -24054.7 -24366.3 -24678 -24989.8 -25301.8 -25613.9 -25926.1 -26238.5 -26551 -26863.6 -27176.4 -27489.3 -27802.3 -28115.5 -28428.8 -28742.3 -29055.9 -29369.6 -29683.5 -29997.6 -30311.8 -30626.2 -30940.7 -31255.4 -31570.2 -31885.2 -32200.3 -32515.6 -32831.1 -33146.8 -33462.6 -33778.6 -34094.7 -34411 -34727.5 -35044.2 -35361.1 -35678.1 -35995.3 -36312.7 -36630.3 -36948.1 -37266 -37584.2 -37902.5 -38221 -38539.7 -38858.6 -39177.8 -39497.1 0 -317.156 -634.313 -951.474 -1268.64 -1585.81 -1902.99 -2220.18 -2537.39 -2854.61 -3171.84 -3489.09 -3806.35 -4123.64 -4440.95 -4758.29 -5075.65 -5393.04 -5710.45 -6027.9 -6345.38 -6662.89 -6980.44 -7298.03 -7615.65 -7933.32 -8251.03 -8568.79 -8886.58 -9204.43 -9522.33 -9840.28 -10158.3 -10476.3 -10794.4 -11112.6 -11430.8 -11749.1 -12067.5 -12385.9 -12704.4 -13023 -13341.6 -13660.3 -13979 -14297.9 -14616.8 -14935.8 -15254.9 -15574.1 -15893.3 -16212.6 -16532.1 -16851.6 -17171.2 -17490.8 -17810.6 -18130.5 -18450.5 -18770.6 -19090.8 -19411 -19731.4 -20051.9 -20372.5 -20693.2 -21014 -21335 -21656 -21977.2 -22298.5 -22619.9 -22941.4 -23263.1 -23584.8 -23906.8 -24228.8 -24550.9 -24873.2 -25195.7 -25518.2 -25840.9 -26163.8 -26486.8 -26809.9 -27133.2 -27456.6 -27780.1 -28103.9 -28427.7 -28751.8 -29075.9 -29400.3 -29724.8 -30049.4 -30374.2 -30699.2 -31024.4 -31349.7 -31675.2 -32000.8 -32326.6 -32652.6 -32978.8 -33305.2 -33631.7 -33958.4 -34285.3 -34612.4 -34939.7 -35267.2 -35594.8 -35922.7 -36250.7 -36579 -36907.4 -37236 -37564.9 -37893.9 -38223.2 -38552.6 -38882.3 -39212.2 -39542.3 -39872.6 -40203.1 -40533.8 -40864.8 0 -327.473 -654.948 -982.426 -1309.91 -1637.4 -1964.9 -2292.42 -2619.94 -2947.48 -3275.04 -3602.61 -3930.21 -4257.83 -4585.47 -4913.14 -5240.84 -5568.57 -5896.33 -6224.12 -6551.95 -6879.82 -7207.73 -7535.67 -7863.66 -8191.7 -8519.78 -8847.92 -9176.1 -9504.33 -9832.62 -10161 -10489.4 -10817.8 -11146.4 -11475 -11803.6 -12132.3 -12461.1 -12790 -13118.9 -13447.9 -13777 -14106.2 -14435.4 -14764.8 -15094.2 -15423.7 -15753.3 -16083 -16412.8 -16742.6 -17072.6 -17402.7 -17732.8 -18063.1 -18393.5 -18723.9 -19054.5 -19385.2 -19716 -20046.9 -20378 -20709.1 -21040.4 -21371.8 -21703.3 -22034.9 -22366.7 -22698.6 -23030.6 -23362.7 -23695 -24027.4 -24360 -24692.7 -25025.5 -25358.5 -25691.7 -26025 -26358.4 -26692 -27025.7 -27359.6 -27693.6 -28027.9 -28362.2 -28696.8 -29031.5 -29366.3 -29701.4 -30036.6 -30371.9 -30707.5 -31043.2 -31379.1 -31715.2 -32051.5 -32388 -32724.6 -33061.5 -33398.5 -33735.7 -34073.1 -34410.7 -34748.5 -35086.5 -35424.8 -35763.2 -36101.8 -36440.6 -36779.7 -37118.9 -37458.4 -37798.1 -38138 -38478.1 -38818.5 -39159 -39499.8 -39840.9 -40182.1 -40523.6 -40865.3 -41207.3 -41549.5 -41891.9 -42234.6 0 -337.777 -675.556 -1013.34 -1351.13 -1688.93 -2026.74 -2364.56 -2702.39 -3040.24 -3378.11 -3716 -4053.92 -4391.85 -4729.82 -5067.81 -5405.84 -5743.89 -6081.99 -6420.11 -6758.28 -7096.49 -7434.75 -7773.04 -8111.39 -8449.79 -8788.23 -9126.73 -9465.29 -9803.9 -10142.6 -10481.3 -10820.1 -11159 -11497.9 -11836.9 -12176 -12515.1 -12854.4 -13193.7 -13533.1 -13872.5 -14212.1 -14551.7 -14891.4 -15231.3 -15571.2 -15911.2 -16251.3 -16591.5 -16931.8 -17272.2 -17612.7 -17953.3 -18294.1 -18634.9 -18975.9 -19316.9 -19658.1 -19999.4 -20340.9 -20682.4 -21024.1 -21365.9 -21707.9 -22049.9 -22392.2 -22734.5 -23077 -23419.6 -23762.4 -24105.3 -24448.4 -24791.6 -25134.9 -25478.5 -25822.1 -26166 -26510 -26854.1 -27198.4 -27542.9 -27887.6 -28232.4 -28577.4 -28922.6 -29267.9 -29613.5 -29959.2 -30305.1 -30651.2 -30997.4 -31343.9 -31690.5 -32037.4 -32384.4 -32731.7 -33079.1 -33426.8 -33774.6 -34122.7 -34470.9 -34819.4 -35168.1 -35517 -35866.2 -36215.5 -36565.1 -36914.9 -37264.9 -37615.1 -37965.6 -38316.4 -38667.3 -39018.5 -39369.9 -39721.6 -40073.5 -40425.7 -40778.1 -41130.8 -41483.7 -41836.9 -42190.3 -42544 -42898 -43252.2 -43606.7 0 -348.068 -696.139 -1044.21 -1392.3 -1740.39 -2088.49 -2436.61 -2784.74 -3132.89 -3481.06 -3829.25 -4177.47 -4525.71 -4873.98 -5222.29 -5570.63 -5919 -6267.42 -6615.87 -6964.37 -7312.91 -7661.5 -8010.14 -8358.83 -8707.57 -9056.37 -9405.23 -9754.16 -10103.1 -10452.2 -10801.3 -11150.5 -11499.8 -11849.1 -12198.5 -12548 -12897.6 -13247.2 -13597 -13946.8 -14296.7 -14646.7 -14996.8 -15347 -15697.3 -16047.7 -16398.2 -16748.9 -17099.6 -17450.4 -17801.4 -18152.4 -18503.6 -18854.9 -19206.3 -19557.9 -19909.6 -20261.4 -20613.3 -20965.4 -21317.6 -21669.9 -22022.4 -22375 -22727.8 -23080.7 -23433.8 -23787 -24140.4 -24493.9 -24847.6 -25201.5 -25555.5 -25909.7 -26264.1 -26618.6 -26973.3 -27328.2 -27683.2 -28038.4 -28393.9 -28749.5 -29105.2 -29461.2 -29817.4 -30173.7 -30530.3 -30887.1 -31244 -31601.2 -31958.5 -32316.1 -32673.9 -33031.9 -33390.1 -33748.6 -34107.2 -34466.1 -34825.2 -35184.5 -35544.1 -35903.9 -36263.9 -36624.1 -36984.6 -37345.4 -37706.4 -38067.6 -38429.1 -38790.8 -39152.8 -39515 -39877.5 -40240.3 -40603.3 -40966.6 -41330.2 -41694 -42058.1 -42422.5 -42787.1 -43152.1 -43517.3 -43882.8 -44248.6 -44614.7 -44981 0 -358.347 -716.696 -1075.05 -1433.41 -1791.78 -2150.17 -2508.56 -2866.98 -3225.42 -3583.87 -3942.35 -4300.86 -4659.4 -5017.97 -5376.58 -5735.22 -6093.9 -6452.62 -6811.39 -7170.21 -7529.07 -7887.98 -8246.95 -8605.98 -8965.06 -9324.21 -9683.42 -10042.7 -10402 -10761.5 -11121 -11480.5 -11840.2 -12199.9 -12559.7 -12919.6 -13279.6 -13639.7 -13999.8 -14360.1 -14720.5 -15080.9 -15441.5 -15802.2 -16163 -16523.9 -16884.9 -17246 -17607.3 -17968.6 -18330.1 -18691.7 -19053.5 -19415.4 -19777.4 -20139.5 -20501.8 -20864.2 -21226.8 -21589.5 -21952.4 -22315.4 -22678.6 -23041.9 -23405.4 -23769 -24132.8 -24496.8 -24860.9 -25225.3 -25589.8 -25954.4 -26319.3 -26684.3 -27049.5 -27414.9 -27780.5 -28146.3 -28512.2 -28878.4 -29244.8 -29611.3 -29978.1 -30345.1 -30712.3 -31079.7 -31447.3 -31815.1 -32183.2 -32551.5 -32920 -33288.7 -33657.6 -34026.8 -34396.3 -34765.9 -35135.8 -35506 -35876.4 -36247 -36617.9 -36989.1 -37360.5 -37732.1 -38104 -38476.2 -38848.7 -39221.4 -39594.4 -39967.7 -40341.2 -40715 -41089.2 -41463.5 -41838.2 -42213.2 -42588.5 -42964 -43339.9 -43716 -44092.5 -44469.3 -44846.4 -45223.8 -45601.5 -45979.5 -46357.8 0 -368.612 -737.226 -1105.85 -1474.47 -1843.11 -2211.76 -2580.43 -2949.12 -3317.83 -3686.56 -4055.32 -4424.11 -4792.93 -5161.78 -5530.68 -5899.61 -6268.58 -6637.61 -7006.68 -7375.8 -7744.97 -8114.2 -8483.49 -8852.84 -9222.26 -9591.74 -9961.29 -10330.9 -10700.6 -11070.4 -11440.3 -11810.2 -12180.2 -12550.3 -12920.5 -13290.8 -13661.2 -14031.7 -14402.3 -14773 -15143.9 -15514.8 -15885.8 -16257 -16628.2 -16999.6 -17371.1 -17742.8 -18114.5 -18486.4 -18858.5 -19230.6 -19603 -19975.4 -20348 -20720.8 -21093.7 -21466.7 -21839.9 -22213.3 -22586.8 -22960.5 -23334.4 -23708.4 -24082.6 -24457 -24831.6 -25206.3 -25581.2 -25956.3 -26331.6 -26707.1 -27082.8 -27458.7 -27834.8 -28211.1 -28587.6 -28964.3 -29341.2 -29718.3 -30095.7 -30473.2 -30851 -31229 -31607.3 -31985.8 -32364.5 -32743.4 -33122.6 -33502 -33881.7 -34261.6 -34641.8 -35022.2 -35402.9 -35783.8 -36165 -36546.5 -36928.2 -37310.2 -37692.5 -38075.1 -38457.9 -38841 -39224.4 -39608.1 -39992.1 -40376.4 -40760.9 -41145.8 -41531 -41916.4 -42302.2 -42688.3 -43074.7 -43461.4 -43848.5 -44235.9 -44623.5 -45011.6 -45399.9 -45788.6 -46177.6 -46567 -46956.7 -47346.8 -47737.2 0 -378.863 -757.73 -1136.6 -1515.48 -1894.38 -2273.28 -2652.21 -3031.15 -3410.12 -3789.11 -4168.14 -4547.19 -4926.28 -5305.41 -5684.58 -6063.79 -6443.05 -6822.36 -7201.72 -7581.14 -7960.61 -8340.15 -8719.75 -9099.41 -9479.15 -9858.96 -10238.8 -10618.8 -10998.9 -11379 -11759.2 -12139.5 -12519.9 -12900.4 -13281 -13661.7 -14042.5 -14423.4 -14804.4 -15185.6 -15566.8 -15948.2 -16329.7 -16711.3 -17093.1 -17474.9 -17857 -18239.1 -18621.4 -19003.8 -19386.4 -19769.2 -20152 -20535.1 -20918.3 -21301.6 -21685.1 -22068.8 -22452.7 -22836.7 -23220.9 -23605.3 -23989.9 -24374.6 -24759.6 -25144.7 -25530 -25915.6 -26301.3 -26687.2 -27073.3 -27459.7 -27846.2 -28233 -28620 -29007.2 -29394.6 -29782.3 -30170.1 -30558.3 -30946.6 -31335.2 -31724 -32113.1 -32502.4 -32892 -33281.9 -33671.9 -34062.3 -34452.9 -34843.8 -35234.9 -35626.4 -36018.1 -36410 -36802.3 -37194.8 -37587.7 -37980.8 -38374.2 -38767.9 -39161.9 -39556.3 -39950.9 -40345.8 -40741.1 -41136.6 -41532.5 -41928.7 -42325.2 -42722.1 -43119.3 -43516.8 -43914.7 -44312.9 -44711.4 -45110.3 -45509.6 -45909.2 -46309.1 -46709.5 -47110.1 -47511.2 -47912.6 -48314.4 -48716.6 -49119.1 0 -389.102 -778.207 -1167.32 -1556.44 -1945.57 -2334.72 -2723.89 -3113.08 -3502.29 -3891.54 -4280.81 -4670.12 -5059.47 -5448.86 -5838.29 -6227.77 -6617.3 -7006.89 -7396.53 -7786.23 -8175.99 -8565.82 -8955.72 -9345.69 -9735.74 -10125.9 -10516.1 -10906.4 -11296.8 -11687.2 -12077.8 -12468.5 -12859.2 -13250.1 -13641.1 -14032.2 -14423.4 -14814.7 -15206.1 -15597.7 -15989.4 -16381.2 -16773.2 -17165.3 -17557.5 -17949.9 -18342.4 -18735 -19127.9 -19520.8 -19914 -20307.3 -20700.7 -21094.3 -21488.1 -21882.1 -22276.3 -22670.6 -23065.1 -23459.8 -23854.7 -24249.8 -24645.1 -25040.6 -25436.2 -25832.1 -26228.2 -26624.6 -27021.1 -27417.9 -27814.8 -28212 -28609.5 -29007.1 -29405 -29803.2 -30201.6 -30600.2 -30999.1 -31398.2 -31797.6 -32197.2 -32597.2 -32997.3 -33397.8 -33798.5 -34199.5 -34600.8 -35002.3 -35404.2 -35806.3 -36208.7 -36611.4 -37014.4 -37417.8 -37821.4 -38225.3 -38629.6 -39034.1 -39439 -39844.2 -40249.7 -40655.6 -41061.8 -41468.3 -41875.2 -42282.4 -42689.9 -43097.8 -43506.1 -43914.7 -44323.7 -44733 -45142.7 -45552.8 -45963.2 -46374.1 -46785.3 -47196.9 -47608.8 -48021.2 -48434 -48847.1 -49260.7 -49674.7 -50089 -50503.8 0 -399.327 -798.657 -1197.99 -1597.34 -1996.7 -2396.08 -2795.48 -3194.9 -3594.35 -3993.83 -4393.34 -4792.9 -5192.49 -5592.13 -5991.81 -6391.55 -6791.34 -7191.18 -7591.09 -7991.07 -8391.11 -8791.23 -9191.42 -9591.68 -9992.03 -10392.5 -10793 -11193.6 -11594.3 -11995.1 -12396 -12797.1 -13198.2 -13599.4 -14000.8 -14402.3 -14803.9 -15205.6 -15607.4 -16009.4 -16411.6 -16813.8 -17216.2 -17618.8 -18021.5 -18424.4 -18827.4 -19230.6 -19633.9 -20037.4 -20441.1 -20845 -21249 -21653.2 -22057.6 -22462.2 -22867 -23272 -23677.2 -24082.6 -24488.1 -24893.9 -25300 -25706.2 -26112.6 -26519.3 -26926.2 -27333.3 -27740.7 -28148.3 -28556.2 -28964.2 -29372.6 -29781.2 -30190 -30599.1 -31008.5 -31418.1 -31828 -32238.2 -32648.7 -33059.4 -33470.4 -33881.7 -34293.3 -34705.2 -35117.4 -35529.9 -35942.7 -36355.8 -36769.2 -37182.9 -37597 -38011.4 -38426.1 -38841.1 -39256.5 -39672.2 -40088.2 -40504.6 -40921.4 -41338.5 -41755.9 -42173.7 -42591.9 -43010.4 -43429.4 -43848.7 -44268.3 -44688.4 -45108.8 -45529.6 -45950.9 -46372.5 -46794.5 -47216.9 -47639.7 -48063 -48486.7 -48910.7 -49335.2 -49760.2 -50185.5 -50611.3 -51037.6 -51464.2 -51891.4 0 -409.538 -819.08 -1228.63 -1638.19 -2047.76 -2457.36 -2866.97 -3276.61 -3686.29 -4095.99 -4505.73 -4915.51 -5325.34 -5735.21 -6145.13 -6555.11 -6965.15 -7375.25 -7785.42 -8195.66 -8605.97 -9016.35 -9426.82 -9837.38 -10248 -10658.8 -11069.6 -11480.5 -11891.5 -12302.7 -12713.9 -13125.3 -13536.8 -13948.4 -14360.1 -14772 -15184 -15596.1 -16008.4 -16420.8 -16833.3 -17246 -17658.9 -18071.9 -18485.1 -18898.5 -19312 -19725.7 -20139.6 -20553.6 -20967.9 -21382.3 -21796.9 -22211.7 -22626.8 -23042 -23457.4 -23873 -24288.9 -24705 -25121.3 -25537.8 -25954.5 -26371.5 -26788.8 -27206.2 -27623.9 -28041.9 -28460.1 -28878.6 -29297.3 -29716.3 -30135.6 -30555.1 -30974.9 -31395 -31815.4 -32236.1 -32657 -33078.3 -33499.8 -33921.7 -34343.8 -34766.3 -35189.1 -35612.2 -36035.6 -36459.3 -36883.4 -37307.8 -37732.6 -38157.7 -38583.1 -39008.9 -39435 -39861.5 -40288.4 -40715.6 -41143.2 -41571.1 -41999.5 -42428.2 -42857.3 -43286.8 -43716.7 -44147 -44577.7 -45008.8 -45440.3 -45872.2 -46304.5 -46737.3 -47170.4 -47604.1 -48038.1 -48472.6 -48907.5 -49342.8 -49778.7 -50214.9 -50651.7 -51088.8 -51526.5 -51964.6 -52403.2 -52842.3 -53281.8 0 -419.736 -839.476 -1259.22 -1678.98 -2098.76 -2518.56 -2938.37 -3358.22 -3778.1 -4198.01 -4617.97 -5037.97 -5458.01 -5878.11 -6298.26 -6718.47 -7138.75 -7559.09 -7979.5 -8399.99 -8820.56 -9241.21 -9661.95 -10082.8 -10503.7 -10924.7 -11345.9 -11767.1 -12188.4 -12609.9 -13031.5 -13453.2 -13875 -14297 -14719.1 -15141.3 -15563.7 -15986.2 -16408.9 -16831.7 -17254.7 -17677.8 -18101.2 -18524.7 -18948.3 -19372.2 -19796.2 -20220.4 -20644.8 -21069.4 -21494.2 -21919.2 -22344.4 -22769.9 -23195.5 -23621.4 -24047.4 -24473.7 -24900.3 -25327.1 -25754.1 -26181.3 -26608.8 -27036.6 -27464.6 -27892.9 -28321.4 -28750.2 -29179.3 -29608.7 -30038.3 -30468.2 -30898.5 -31329 -31759.8 -32190.9 -32622.3 -33054 -33486 -33918.4 -34351.1 -34784.1 -35217.4 -35651.1 -36085.1 -36519.4 -36954.1 -37389.1 -37824.5 -38260.3 -38696.4 -39132.9 -39569.8 -40007 -40444.6 -40882.6 -41321 -41759.8 -42199 -42638.6 -43078.6 -43519 -43959.8 -44401.1 -44842.7 -45284.8 -45727.4 -46170.3 -46613.7 -47057.6 -47501.9 -47946.6 -48391.8 -48837.5 -49283.6 -49730.3 -50177.3 -50624.9 -51073 -51521.5 -51970.5 -52420.1 -52870.1 -53320.7 -53771.7 -54223.3 -54675.4 0 -429.92 -859.845 -1289.78 -1719.72 -2149.69 -2579.67 -3009.68 -3439.72 -3869.79 -4299.91 -4730.06 -5160.26 -5590.51 -6020.82 -6451.19 -6881.62 -7312.12 -7742.69 -8173.34 -8604.07 -9034.88 -9465.79 -9896.78 -10327.9 -10759.1 -11190.4 -11621.8 -12053.3 -12485 -12916.8 -13348.7 -13780.7 -14212.9 -14645.2 -15077.6 -15510.2 -15943 -16375.9 -16809 -17242.2 -17675.7 -18109.2 -18543 -18977 -19411.1 -19845.5 -20280 -20714.7 -21149.7 -21584.8 -22020.2 -22455.8 -22891.6 -23327.6 -23763.9 -24200.4 -24637.1 -25074.1 -25511.3 -25948.8 -26386.6 -26824.6 -27262.9 -27701.4 -28140.2 -28579.3 -29018.7 -29458.4 -29898.4 -30338.6 -30779.2 -31220.1 -31661.3 -32102.8 -32544.6 -32986.7 -33429.2 -33872 -34315.1 -34758.6 -35202.4 -35646.6 -36091.2 -36536.1 -36981.3 -37427 -37873 -38319.3 -38766.1 -39213.3 -39660.8 -40108.7 -40557.1 -41005.8 -41455 -41904.5 -42354.5 -42804.9 -43255.8 -43707 -44158.8 -44610.9 -45063.5 -45516.6 -45970.1 -46424 -46878.5 -47333.4 -47788.7 -48244.6 -48700.9 -49157.8 -49615.1 -50072.9 -50531.2 -50990.1 -51449.4 -51909.3 -52369.6 -52830.5 -53292 -53754 -54216.5 -54679.5 -55143.2 -55607.3 -56072.1 0 -440.091 -880.186 -1320.29 -1760.41 -2200.54 -2640.7 -3080.89 -3521.11 -3961.36 -4401.66 -4842 -5282.39 -5722.84 -6163.35 -6603.92 -7044.56 -7485.27 -7926.06 -8366.93 -8807.89 -9248.94 -9690.09 -10131.3 -10572.7 -11014.1 -11455.7 -11897.4 -12339.2 -12781.2 -13223.3 -13665.5 -14107.8 -14550.3 -14993 -15435.8 -15878.8 -16321.9 -16765.2 -17208.7 -17652.4 -18096.2 -18540.2 -18984.5 -19428.9 -19873.5 -20318.4 -20763.4 -21208.7 -21654.1 -22099.8 -22545.8 -22991.9 -23438.3 -23885 -24331.9 -24779 -25226.5 -25674.1 -26122.1 -26570.3 -27018.8 -27467.5 -27916.6 -28366 -28815.6 -29265.5 -29715.8 -30166.4 -30617.2 -31068.4 -31519.9 -31971.8 -32424 -32876.5 -33329.3 -33782.6 -34236.1 -34690 -35144.3 -35599 -36054 -36509.4 -36965.2 -37421.3 -37877.9 -38334.8 -38792.2 -39250 -39708.1 -40166.7 -40625.7 -41085.2 -41545 -42005.3 -42466.1 -42927.2 -43388.9 -43851 -44313.5 -44776.5 -45240 -45704 -46168.4 -46633.3 -47098.7 -47564.6 -48031 -48498 -48965.4 -49433.3 -49901.8 -50370.8 -50840.3 -51310.3 -51780.9 -52252 -52723.7 -53196 -53668.8 -54142.1 -54616.1 -55090.6 -55565.7 -56041.4 -56517.6 -56994.5 -57472 0 -450.247 -900.5 -1350.76 -1801.04 -2251.33 -2701.66 -3152.01 -3602.39 -4052.81 -4503.28 -4953.8 -5404.37 -5855 -6305.69 -6756.45 -7207.28 -7658.2 -8109.19 -8560.28 -9011.45 -9462.73 -9914.11 -10365.6 -10817.2 -11268.9 -11720.7 -12172.7 -12624.8 -13077 -13529.4 -13981.9 -14434.6 -14887.5 -15340.5 -15793.6 -16247 -16700.5 -17154.2 -17608 -18062.1 -18516.4 -18970.8 -19425.5 -19880.4 -20335.5 -20790.8 -21246.4 -21702.2 -22158.2 -22614.5 -23071 -23527.7 -23984.7 -24442 -24899.6 -25357.4 -25815.5 -26273.8 -26732.5 -27191.4 -27650.7 -28110.2 -28570.1 -29030.2 -29490.7 -29951.5 -30412.7 -30874.1 -31335.9 -31798.1 -32260.6 -32723.4 -33186.6 -33650.2 -34114.1 -34578.4 -35043.1 -35508.2 -35973.6 -36439.5 -36905.7 -37372.4 -37839.4 -38306.9 -38774.8 -39243.1 -39711.8 -40181 -40650.6 -41120.7 -41591.2 -42062.2 -42533.6 -43005.5 -43477.9 -43950.8 -44424.1 -44897.9 -45372.2 -45847.1 -46322.4 -46798.2 -47274.5 -47751.4 -48228.8 -48706.7 -49185.2 -49664.2 -50143.7 -50623.8 -51104.5 -51585.7 -52067.5 -52549.8 -53032.8 -53516.3 -54000.4 -54485.1 -54970.4 -55456.3 -55942.9 -56430 -56917.8 -57406.2 -57895.3 -58384.9 -58875.3 0 -460.39 -920.785 -1381.19 -1841.61 -2302.05 -2762.52 -3223.02 -3683.56 -4144.14 -4604.76 -5065.44 -5526.18 -5986.98 -6447.84 -6908.78 -7369.8 -7830.9 -8292.09 -8753.38 -9214.76 -9676.25 -10137.8 -10599.6 -11061.4 -11523.4 -11985.5 -12447.7 -12910 -13372.6 -13835.2 -14298.1 -14761 -15224.2 -15687.5 -16151 -16614.7 -17078.6 -17542.7 -18007 -18471.4 -18936.1 -19401 -19866.2 -20331.5 -20797.1 -21262.9 -21729 -22195.3 -22661.9 -23128.7 -23595.8 -24063.1 -24530.8 -24998.7 -25466.9 -25935.3 -26404.1 -26873.2 -27342.6 -27812.3 -28282.3 -28752.6 -29223.3 -29694.3 -30165.6 -30637.3 -31109.4 -31581.7 -32054.5 -32527.6 -33001.1 -33475 -33949.2 -34423.8 -34898.9 -35374.3 -35850.1 -36326.4 -36803 -37280.1 -37757.6 -38235.5 -38713.9 -39192.7 -39672 -40151.7 -40631.9 -41112.6 -41593.7 -42075.3 -42557.4 -43039.9 -43523 -44006.5 -44490.6 -44975.2 -45460.3 -45945.9 -46432 -46918.7 -47405.9 -47893.7 -48382 -48870.9 -49360.3 -49850.3 -50340.9 -50832 -51323.8 -51816.1 -52309 -52802.6 -53296.7 -53791.5 -54286.8 -54782.8 -55279.5 -55776.8 -56274.7 -56773.3 -57272.5 -57772.4 -58272.9 -58774.2 -59276.1 -59778.7 -60282 0 -470.519 -941.043 -1411.58 -1882.13 -2352.71 -2823.31 -3293.94 -3764.62 -4235.34 -4706.11 -5176.94 -5647.82 -6118.78 -6589.8 -7060.91 -7532.1 -8003.38 -8474.75 -8946.23 -9417.81 -9889.5 -10361.3 -10833.2 -11305.3 -11777.5 -12249.8 -12722.3 -13195 -13667.7 -14140.7 -14613.8 -15087.1 -15560.6 -16034.2 -16508.1 -16982.1 -17456.4 -17930.8 -18405.5 -18880.4 -19355.5 -19830.8 -20306.4 -20782.2 -21258.3 -21734.6 -22211.2 -22688 -23165.1 -23642.5 -24120.2 -24598.2 -25076.4 -25554.9 -26033.8 -26513 -26992.4 -27472.2 -27952.4 -28432.8 -28913.6 -29394.8 -29876.3 -30358.1 -30840.3 -31322.9 -31805.9 -32289.2 -32772.9 -33257 -33741.5 -34226.4 -34711.8 -35197.5 -35683.6 -36170.2 -36657.2 -37144.7 -37632.6 -38120.9 -38609.7 -39099 -39588.7 -40078.9 -40569.6 -41060.8 -41552.4 -42044.6 -42537.3 -43030.4 -43524.1 -44018.3 -44513.1 -45008.3 -45504.2 -46000.5 -46497.4 -46994.9 -47492.9 -47991.5 -48490.7 -48990.5 -49490.8 -49991.8 -50493.3 -50995.5 -51498.2 -52001.6 -52505.6 -53010.3 -53515.6 -54021.5 -54528.1 -55035.3 -55543.2 -56051.8 -56561.1 -57071 -57581.6 -58093 -58605 -59117.7 -59631.2 -60145.3 -60660.2 -61175.9 -61692.3 0 -480.633 -961.273 -1441.92 -1922.59 -2403.29 -2884.01 -3364.77 -3845.57 -4326.42 -4807.32 -5288.28 -5769.3 -6250.4 -6731.58 -7212.84 -7694.19 -8175.63 -8657.17 -9138.83 -9620.59 -10102.5 -10584.5 -11066.6 -11548.9 -12031.3 -12513.9 -12996.6 -13479.5 -13962.6 -14445.8 -14929.2 -15412.8 -15896.6 -16380.6 -16864.7 -17349.1 -17833.7 -18318.6 -18803.6 -19288.9 -19774.4 -20260.2 -20746.3 -21232.5 -21719.1 -22205.9 -22693 -23180.4 -23668 -24156 -24644.2 -25132.8 -25621.7 -26110.9 -26600.4 -27090.3 -27580.4 -28071 -28561.8 -29053.1 -29544.7 -30036.6 -30529 -31021.7 -31514.8 -32008.3 -32502.2 -32996.5 -33491.2 -33986.3 -34481.9 -34977.9 -35474.3 -35971.1 -36468.5 -36966.2 -37464.4 -37963.1 -38462.3 -38961.9 -39462.1 -39962.7 -40463.8 -40965.5 -41467.6 -41970.3 -42473.4 -42977.2 -43481.4 -43986.2 -44491.6 -44997.5 -45503.9 -46011 -46518.6 -47026.8 -47535.6 -48045 -48554.9 -49065.5 -49576.7 -50088.6 -50601 -51114.1 -51627.9 -52142.3 -52657.3 -53173 -53689.4 -54206.4 -54724.1 -55242.6 -55761.7 -56281.5 -56802 -57323.3 -57845.2 -58367.9 -58891.4 -59415.5 -59940.5 -60466.1 -60992.6 -61519.8 -62047.8 -62576.6 -63106.2 0 -490.734 -981.474 -1472.23 -1963 -2453.8 -2944.63 -3435.49 -3926.4 -4417.37 -4908.39 -5399.47 -5890.62 -6381.85 -6873.16 -7364.56 -7856.06 -8347.65 -8839.36 -9331.18 -9823.12 -10315.2 -10807.4 -11299.7 -11792.2 -12284.8 -12777.6 -13270.6 -13763.7 -14257 -14750.5 -15244.2 -15738.1 -16232.2 -16726.5 -17221 -17715.8 -18210.7 -18705.9 -19201.4 -19697.1 -20193 -20689.2 -21185.7 -21682.4 -22179.5 -22676.8 -23174.4 -23672.3 -24170.5 -24669.1 -25167.9 -25667.1 -26166.6 -26666.5 -27166.7 -27667.2 -28168.1 -28669.4 -29171 -29673.1 -30175.5 -30678.3 -31181.5 -31685.1 -32189.1 -32693.5 -33198.4 -33703.7 -34209.4 -34715.6 -35222.2 -35729.3 -36236.8 -36744.8 -37253.3 -37762.3 -38271.8 -38781.7 -39292.2 -39803.2 -40314.7 -40826.7 -41339.3 -41852.4 -42366 -42880.2 -43395 -43910.3 -44426.2 -44942.6 -45459.7 -45977.4 -46495.6 -47014.5 -47533.9 -48054 -48574.8 -49096.1 -49618.1 -50140.8 -50664.1 -51188.1 -51712.7 -52238 -52764 -53290.7 -53818.1 -54346.2 -54875 -55404.5 -55934.8 -56465.8 -56997.5 -57530 -58063.3 -58597.3 -59132 -59667.6 -60203.9 -60741.1 -61279 -61817.7 -62357.3 -62897.7 -63438.9 -63980.9 -64523.8 0 -500.82 -1001.65 -1502.49 -2003.35 -2504.24 -3005.16 -3506.12 -4007.13 -4508.19 -5009.31 -5510.51 -6011.77 -6513.12 -7014.55 -7516.08 -8017.71 -8519.45 -9021.3 -9523.27 -10025.4 -10527.6 -11030 -11532.5 -12035.2 -12538 -13041.1 -13544.2 -14047.6 -14551.2 -15054.9 -15558.9 -16063.1 -16567.5 -17072.1 -17576.9 -18082 -18587.3 -19092.9 -19598.7 -20104.8 -20611.2 -21117.8 -21624.7 -22131.9 -22639.5 -23147.3 -23655.4 -24163.9 -24672.7 -25181.8 -25691.2 -26201 -26711.2 -27221.7 -27732.6 -28243.8 -28755.5 -29267.5 -29779.9 -30292.7 -30806 -31319.6 -31833.7 -32348.2 -32863.2 -33378.6 -33894.4 -34410.7 -34927.5 -35444.7 -35962.4 -36480.6 -36999.3 -37518.5 -38038.2 -38558.4 -39079.2 -39600.5 -40122.3 -40644.6 -41167.6 -41691 -42215.1 -42739.7 -43264.9 -43790.6 -44317 -44844 -45371.6 -45899.8 -46428.6 -46958 -47488.1 -48018.9 -48550.3 -49082.3 -49615 -50148.4 -50682.5 -51217.3 -51752.8 -52289 -52825.9 -53363.5 -53901.8 -54440.9 -54980.7 -55521.3 -56062.6 -56604.7 -57147.6 -57691.3 -58235.7 -58780.9 -59327 -59873.9 -60421.5 -60970.1 -61519.4 -62069.6 -62620.6 -63172.6 -63725.3 -64279 -64833.5 -65388.9 -65945.3 0 -510.892 -1021.79 -1532.71 -2043.64 -2554.6 -3065.6 -3576.65 -4087.74 -4598.89 -5110.1 -5621.39 -6132.75 -6644.2 -7155.75 -7667.39 -8179.14 -8691.01 -9203 -9715.12 -10227.4 -10739.8 -11252.3 -11765 -12277.9 -12790.9 -13304.2 -13817.6 -14331.2 -14845 -15359 -15873.2 -16387.7 -16902.3 -17417.2 -17932.4 -18447.8 -18963.5 -19479.4 -19995.6 -20512.1 -21028.9 -21546 -22063.4 -22581 -23099.1 -23617.4 -24136 -24655 -25174.4 -25694.1 -26214.1 -26734.6 -27255.4 -27776.6 -28298.2 -28820.1 -29342.5 -29865.3 -30388.5 -30912.2 -31436.2 -31960.8 -32485.7 -33011.2 -33537.1 -34063.4 -34590.3 -35117.6 -35645.4 -36173.8 -36702.6 -37232 -37761.8 -38292.3 -38823.2 -39354.7 -39886.8 -40419.4 -40952.6 -41486.4 -42020.7 -42555.7 -43091.2 -43627.4 -44164.2 -44701.6 -45239.6 -45778.3 -46317.6 -46857.6 -47398.2 -47939.5 -48481.5 -49024.2 -49567.6 -50111.7 -50656.5 -51202 -51748.2 -52295.2 -52842.9 -53391.3 -53940.6 -54490.5 -55041.3 -55592.8 -56145.2 -56698.3 -57252.3 -57807 -58362.6 -58919 -59476.3 -60034.4 -60593.3 -61153.1 -61713.8 -62275.4 -62837.9 -63401.2 -63965.5 -64530.7 -65096.8 -65663.9 -66231.8 -66800.8 -67370.7 0 -520.95 -1041.91 -1562.88 -2083.88 -2604.9 -3125.96 -3647.07 -4168.24 -4689.46 -5210.75 -5732.12 -6253.57 -6775.11 -7296.75 -7818.5 -8340.36 -8862.34 -9384.46 -9906.7 -10429.1 -10951.6 -11474.3 -11997.2 -12520.3 -13043.5 -13566.9 -14090.5 -14614.4 -15138.4 -15662.7 -16187.1 -16711.9 -17236.8 -17762 -18287.5 -18813.3 -19339.3 -19865.6 -20392.2 -20919.1 -21446.3 -21973.8 -22501.6 -23029.8 -23558.2 -24087.1 -24616.3 -25145.8 -25675.7 -26206 -26736.7 -27267.8 -27799.2 -28331.1 -28863.4 -29396.1 -29929.2 -30462.8 -30996.8 -31531.3 -32066.3 -32601.7 -33137.5 -33673.9 -34210.8 -34748.1 -35286 -35