<?xml version="1.0"?> 
<VTKFile type="StructuredGrid" version="0.1"> 
<StructuredGrid WholeExtent="0 15 0 15 0 0"> 
<Piece Extent="0 15 0 15 0 0"> 
<PointData>
<DataArray type="Float32" Name="E" format="ascii" NumberOfComponents="3"> 
1.27324e+06 2.38419e-06 0 1.50006e+06 -0.0111563 0 1.65701e+06 -0.0152298 0 1.65608e+06 0.0231049 0 1.55566e+06 0.000619052 0 1.4117e+06 0.00707482 0 1.25928e+06 0.000147628 0 1.11626e+06 0.00126222 0 989797 -0.000212135 0 882064 -8.74326e-06 0 792900 -0.000189569 0 721455 -0.000129785 0 666786 -8.61827e-05 0 628174 -5.82626e-05 0 605161 -1.4619e-05 0 597514 0 0 1.27286e+06 -3.10363e-07 0 1.50012e+06 -6398.92 0 1.65707e+06 -1949.96 0 1.65612e+06 1688.47 0 1.55568e+06 3550.88 0 1.4117e+06 4167.79 0 1.25927e+06 4087.88 0 1.11626e+06 3700.17 0 989790 3202.17 0 882057 2686.74 0 792894 2189.57 0 721449 1719.03 0 666780 1271.68 0 628168 840.4 0 605156 418.234 0 597508 0 0 1.27173e+06 7.35745e-08 0 1.50028e+06 -12799.3 0 1.65725e+06 -3901.95 0 1.65623e+06 3379.99 0 1.55572e+06 7101.84 0 1.41171e+06 8336.5 0 1.25926e+06 8175.77 0 1.11624e+06 7400.5 0 989769 6404.31 0 882036 5373.49 0 792874 4379.12 0 721430 3438.05 0 666762 2543.35 0 628151 1680.79 0 605138 836.467 0 597491 0 0 1.26982e+06 1.52737e-07 0 1.50055e+06 -19202.3 0 1.65754e+06 -5858.04 0 1.65642e+06 5077.63 0 1.5558e+06 10652.9 0 1.41172e+06 12507.1 0 1.25924e+06 12263.7 0 1.11621e+06 11101.2 0 989734 9606.39 0 882002 8060.23 0 792841 6568.62 0 721399 5157.03 0 666732 3815 0 628122 2521.17 0 605110 1254.7 0 597463 0 0 1.26713e+06 -1.9744e-07 0 1.50093e+06 -25609.1 0 1.65796e+06 -7820.46 0 1.65668e+06 6784.56 0 1.55591e+06 14204.1 0 1.41174e+06 16680.5 0 1.25922e+06 16351.6 0 1.11616e+06 14802.4 0 989684 12808.4 0 881953 10747 0 792794 8758.04 0 721355 6875.96 0 666690 5086.62 0 628081 3361.52 0 605070 1672.92 0 597423 0 0 1.26365e+06 2.01166e-07 0 1.50143e+06 -32020.4 0 1.6585e+06 -9791.62 0 1.65701e+06 8504.06 0 1.55605e+06 17755.4 0 1.41176e+06 20857.8 0 1.25918e+06 20439.6 0 1.11611e+06 18504.2 0 989621 16010.3 0 881890 13433.7 0 792735 10947.4 0 721299 8594.83 0 666636 6358.19 0 628029 4201.84 0 605018 2091.13 0 597371 0 0 1.25933e+06 3.57628e-07 0 1.50206e+06 -38436.5 0 1.65916e+06 -11774.2 0 1.65742e+06 10239.6 0 1.55622e+06 21306.6 0 1.41179e+06 25039.9 0 1.25914e+06 24527.5 0 1.11604e+06 22207 0 989543 19212 0 881814 16120.5 0 792662 13136.6 0 721230 10313.6 0 666570 7629.7 0 627965 5042.13 0 604955 2509.34 0 597309 0 0 1.25416e+06 -6.4075e-07 0 1.50281e+06 -44857 0 1.65993e+06 -13771.2 0 1.6579e+06 11994.7 0 1.55642e+06 24857.5 0 1.41182e+06 29228 0 1.25909e+06 28615.4 0 1.11595e+06 25910.8 0 989452 22413.5 0 881723 18807.2 0 792576 15325.6 0 721148 12032.3 0 666492 8901.15 0 627889 5882.36 0 604881 2927.54 0 597234 0 0 1.24808e+06 4.32134e-07 0 1.50369e+06 -51280.7 0 1.66083e+06 -15786.1 0 1.65845e+06 13773.5 0 1.55666e+06 28407.7 0 1.41185e+06 33423.3 0 1.25903e+06 32703 0 1.11586e+06 29616 0 989346 25614.7 0 881619 21494 0 792477 17514.5 0 721055 13750.8 0 666403 10172.5 0 627802 6722.54 0 604795 3345.73 0 597149 0 0 1.24107e+06 -3.42727e-07 0 1.50472e+06 -57705.7 0 1.66184e+06 -17822.9 0 1.65908e+06 15580 0 1.55692e+06 31956.7 0 1.41189e+06 37626.9 0 1.25897e+06 36790.3 0 1.11575e+06 33322.6 0 989227 28815.6 0 881500 24180.8 0 792365 19703.1 0 720948 15469.3 0 666301 11443.8 0 627703 7562.66 0 604697 3763.9 0 597052 0 0 1.23306e+06 1.19209e-07 0 1.50591e+06 -64129 0 1.66297e+06 -19886.1 0 1.65978e+06 17418.8 0 1.55722e+06 35503.6 0 1.41194e+06 41840.3 0 1.2589e+06 40877.1 0 1.11563e+06 37031.1 0 989093 32016.1 0 881367 26867.6 0 792239 21891.5 0 720829 17187.5 0 666187 12715 0 627593 8402.7 0 604588 4182.07 0 596943 0 0 1.22399e+06 -2.38419e-07 0 1.50726e+06 -70546.2 0 1.66421e+06 -21981 0 1.66056e+06 19295.1 0 1.55755e+06 39047.5 0 1.41199e+06 46064.8 0 1.25882e+06 44963.1 0 1.11549e+06 40741.7 0 988946 35216.1 0 881221 29554.5 0 792101 24079.7 0 720698 18905.6 0 666062 13986.1 0 627471 9242.65 0 604468 4600.22 0 596824 0 0 1.2138e+06 2.68221e-07 0 1.5088e+06 -76951.6 0 1.66557e+06 -24113.8 0 1.66141e+06 21214.2 0 1.55791e+06 42587.1 0 1.41204e+06 50302.3 0 1.25874e+06 49047.9 0 1.11534e+06 44454.7 0 988785 38415.6 0 881060 32241.5 0 791949 26267.5 0 720554 20623.5 0 665924 15257 0 627337 10082.5 0 604336 5018.37 0 596693 0 0 1.2024e+06 -8.9407e-08 0 1.51053e+06 -83337.8 0 1.66705e+06 -26291.4 0 1.66233e+06 23182.3 0 1.5583e+06 46120.9 0 1.41209e+06 54554.3 0 1.25864e+06 53131.2 0 1.11518e+06 48170.5 0 988610 41614.4 0 880885 34928.6 0 791784 28455 0 720397 22341.2 0 665775 16527.9 0 627191 10922.3 0 604193 5436.51 0 596550 0 0 1.18971e+06 -3.57628e-07 0 1.51247e+06 -89695.5 0 1.66863e+06 -28522.2 0 1.66332e+06 25206.2 0 1.55873e+06 49647 0 1.41215e+06 58822.9 0 1.25855e+06 57212.4 0 1.115e+06 51889.5 0 988422 44812.3 0 880696 37615.8 0 791607 30642.1 0 720228 24058.7 0 665613 17798.6 0 627034 11761.9 0 604038 5854.64 0 596396 0 0 1.17562e+06 1.43051e-06 0 1.51465e+06 -96013.3 0 1.67033e+06 -30815.5 0 1.66439e+06 27293.3 0 1.55919e+06 53162.9 0 1.4122e+06 63110.2 0 1.25844e+06 61291 0 1.11481e+06 55612.1 0 988220 48009.3 0 880492 40303.3 0 791416 32828.9 0 720046 25776 0 665440 19069.2 0 626866 12601.4 0 603872 6272.78 0 596231 0 0 </DataArray> 
</PointData> 
<Points> 
<DataArray type="Float32" NumberOfComponents="3"> 
0.19 0 0 0.2022 0 0 0.2144 0 0 0.2266 0 0 0.2388 0 0 0.251 0 0 0.2632 0 0 0.2754 0 0 0.2876 0 0 0.2998 0 0 0.312 0 0 0.3242 0 0 0.3364 0 0 0.3486 0 0 0.3608 0 0 0.373 0 0 0.19 0.000333333 0 0.2022 0.000333333 0 0.2144 0.000333333 0 0.2266 0.000333333 0 0.2388 0.000333333 0 0.251 0.000333333 0 0.2632 0.000333333 0 0.2754 0.000333333 0 0.2876 0.000333333 0 0.2998 0.000333333 0 0.312 0.000333333 0 0.3242 0.000333333 0 0.3364 0.000333333 0 0.3486 0.000333333 0 0.3608 0.000333333 0 0.373 0.000333333 0 0.19 0.000666667 0 0.2022 0.000666667 0 0.2144 0.000666667 0 0.2266 0.000666667 0 0.2388 0.000666667 0 0.251 0.000666667 0 0.2632 0.000666667 0 0.2754 0.000666667 0 0.2876 0.000666667 0 0.2998 0.000666667 0 0.312 0.000666667 0 0.3242 0.000666667 0 0.3364 0.000666667 0 0.3486 0.000666667 0 0.3608 0.000666667 0 0.373 0.000666667 0 0.19 0.001 0 0.2022 0.001 0 0.2144 0.001 0 0.2266 0.001 0 0.2388 0.001 0 0.251 0.001 0 0.2632 0.001 0 0.2754 0.001 0 0.2876 0.001 0 0.2998 0.001 0 0.312 0.001 0 0.3242 0.001 0 0.3364 0.001 0 0.3486 0.001 0 0.3608 0.001 0 0.373 0.001 0 0.19 0.00133333 0 0.2022 0.00133333 0 0.2144 0.00133333 0 0.2266 0.00133333 0 0.2388 0.00133333 0 0.251 0.00133333 0 0.2632 0.00133333 0 0.2754 0.00133333 0 0.2876 0.00133333 0 0.2998 0.00133333 0 0.312 0.00133333 0 0.3242 0.00133333 0 0.3364 0.00133333 0 0.3486 0.00133333 0 0.3608 0.00133333 0 0.373 0.00133333 0 0.19 0.00166667 0 0.2022 0.00166667 0 0.2144 0.00166667 0 0.2266 0.00166667 0 0.2388 0.00166667 0 0.251 0.00166667 0 0.2632 0.00166667 0 0.2754 0.00166667 0 0.2876 0.00166667 0 0.2998 0.00166667 0 0.312 0.00166667 0 0.3242 0.00166667 0 0.3364 0.00166667 0 0.3486 0.00166667 0 0.3608 0.00166667 0 0.373 0.00166667 0 0.19 0.002 0 0.2022 0.002 0 0.2144 0.002 0 0.2266 0.002 0 0.2388 0.002 0 0.251 0.002 0 0.2632 0.002 0 0.2754 0.002 0 0.2876 0.002 0 0.2998 0.002 0 0.312 0.002 0 0.3242 0.002 0 0.3364 0.002 0 0.3486 0.002 0 0.3608 0.002 0 0.373 0.002 0 0.19 0.00233333 0 0.2022 0.00233333 0 0.2144 0.00233333 0 0.2266 0.00233333 0 0.2388 0.00233333 0 0.251 0.00233333 0 0.2632 0.00233333 0 0.2754 0.00233333 0 0.2876 0.00233333 0 0.2998 0.00233333 0 0.312 0.00233333 0 0.3242 0.00233333 0 0.3364 0.00233333 0 0.3486 0.00233333 0 0.3608 0.00233333 0 0.373 0.00233333 0 0.19 0.00266667 0 0.2022 0.00266667 0 0.2144 0.00266667 0 0.2266 0.00266667 0 0.2388 0.00266667 0 0.251 0.00266667 0 0.2632 0.00266667 0 0.2754 0.00266667 0 0.2876 0.00266667 0 0.2998 0.00266667 0 0.312 0.00266667 0 0.3242 0.00266667 0 0.3364 0.00266667 0 0.3486 0.00266667 0 0.3608 0.00266667 0 0.373 0.00266667 0 0.19 0.003 0 0.2022 0.003 0 0.2144 0.003 0 0.2266 0.003 0 0.2388 0.003 0 0.251 0.003 0 0.2632 0.003 0 0.2754 0.003 0 0.2876 0.003 0 0.2998 0.003 0 0.312 0.003 0 0.3242 0.003 0 0.3364 0.003 0 0.3486 0.003 0 0.3608 0.003 0 0.373 0.003 0 0.19 0.00333333 0 0.2022 0.00333333 0 0.2144 0.00333333 0 0.2266 0.00333333 0 0.2388 0.00333333 0 0.251 0.00333333 0 0.2632 0.00333333 0 0.2754 0.00333333 0 0.2876 0.00333333 0 0.2998 0.00333333 0 0.312 0.00333333 0 0.3242 0.00333333 0 0.3364 0.00333333 0 0.3486 0.00333333 0 0.3608 0.00333333 0 0.373 0.00333333 0 0.19 0.00366667 0 0.2022 0.00366667 0 0.2144 0.00366667 0 0.2266 0.00366667 0 0.2388 0.00366667 0 0.251 0.00366667 0 0.2632 0.00366667 0 0.2754 0.00366667 0 0.2876 0.00366667 0 0.2998 0.00366667 0 0.312 0.00366667 0 0.3242 0.00366667 0 0.3364 0.00366667 0 0.3486 0.00366667 0 0.3608 0.00366667 0 0.373 0.00366667 0 0.19 0.004 0 0.2022 0.004 0 0.2144 0.004 0 0.2266 0.004 0 0.2388 0.004 0 0.251 0.004 0 0.2632 0.004 0 0.2754 0.004 0 0.2876 0.004 0 0.2998 0.004 0 0.312 0.004 0 0.3242 0.004 0 0.3364 0.004 0 0.3486 0.004 0 0.3608 0.004 0 0.373 0.004 0 0.19 0.00433333 0 0.2022 0.00433333 0 0.2144 0.00433333 0 0.2266 0.00433333 0 0.2388 0.00433333 0 0.251 0.00433333 0 0.2632 0.00433333 0 0.2754 0.00433333 0 0.2876 0.00433333 0 0.2998 0.00433333 0 0.312 0.00433333 0 0.3242 0.00433333 0 0.3364 0.00433333 0 0.3486 0.00433333 0 0.3608 0.00433333 0 0.373 0.00433333 0 0.19 0.00466667 0 0.2022 0.00466667 0 0.2144 0.00466667 0 0.2266 0.00466667 0 0.2388 0.00466667 0 0.251 0.00466667 0 0.2632 0.00466667 0 0.2754 0.00466667 0 0.2876 0.00466667 0 0.2998 0.00466667 0 0.312 0.00466667 0 0.3242 0.00466667 0 0.3364 0.00466667 0 0.3486 0.00466667 0 0.3608 0.00466667 0 0.373 0.00466667 0 0.19 0.005 0 0.2022 0.005 0 0.2144 0.005 0 0.2266 0.005 0 0.2388 0.005 0 0.251 0.005 0 0.2632 0.005 0 0.2754 0.005 0 0.2876 0.005 0 0.2998 0.005 0 0.312 0.005 0 0.3242 0.005 0 0.3364 0.005 0 0.3486 0.005 0 0.3608 0.005 0 0.373 0.005 0 
</DataArray>
</Points> 
</Piece> 
</StructuredGrid> 
</VTKFile> 
