<?xml version="1.0"?> 
<VTKFile type="StructuredGrid" version="0.1"> 
<StructuredGrid WholeExtent="0 15 0 15 0 0"> 
<Piece Extent="0 15 0 15 0 0"> 
<PointData>
<DataArray type="Float32" Name="E" format="ascii" NumberOfComponents="3"> 
2.98023e-07 1.71661e-05 0 -4.07308e-08 558.347 0 2.69501e-08 315.949 0 2.56114e-09 172.357 0 -3.21306e-08 97.9737 0 3.35276e-08 58.2284 0 -3.63216e-08 35.4155 0 3.53903e-08 22.1933 0 -3.07336e-08 14.0097 0 2.04891e-08 8.93492 0 -1.86265e-08 5.68516 0 2.23517e-08 3.58933 0 -3.35276e-08 2.20758 0 2.98023e-08 1.26679 0 7.45058e-09 0.577435 0 -2.68221e-07 4.76837e-07 0 54.8986 -1.82539e-07 0 -8.78051 558.247 0 -6.78779 315.956 0 -4.79311 172.247 0 -2.97574 97.9363 0 -1.98983 58.1856 0 -1.29084 35.391 0 -0.897948 22.1739 0 -0.609802 13.9959 0 -0.43067 8.92463 0 -0.300127 5.6775 0 -0.213437 3.58368 0 -0.153386 2.20353 0 -0.115615 1.26413 0 -0.0959605 0.576094 0 -0.0932239 -9.48785e-08 0 110.061 -1.40443e-06 0 -17.608 557.944 0 -13.5744 315.978 0 -9.57888 171.916 0 -5.94915 97.8249 0 -3.97559 58.0568 0 -2.57951 35.3175 0 -1.79409 22.1158 0 -1.21816 13.9546 0 -0.860352 8.89379 0 -0.599368 5.65455 0 -0.426227 3.56677 0 -0.306199 2.19141 0 -0.230737 1.25615 0 -0.191455 0.572079 0 -0.185976 1.81142e-07 0 165.754 1.33365e-06 0 -26.5291 557.423 0 -20.3588 316.021 0 -14.3497 171.36 0 -8.91815 97.6422 0 -5.95303 57.8411 0 -3.86396 35.1959 0 -2.6866 22.0187 0 -1.82365 13.8859 0 -1.28805 8.84245 0 -0.896842 5.61638 0 -0.637725 3.53864 0 -0.457867 2.17125 0 -0.344877 1.24287 0 -0.286018 0.56542 0 -0.277792 -1.53668e-07 0 222.245 -8.9407e-07 0 -35.5898 556.66 0 -27.1408 316.098 0 -19.0972 170.572 0 -11.8811 97.3926 0 -7.91763 57.5365 0 -5.14235 35.0276 0 -3.5735 21.8825 0 -2.42492 13.7902 0 -1.71277 8.77068 0 -1.19168 5.56315 0 -0.847293 3.49938 0 -0.607822 2.14314 0 -0.457548 1.22436 0 -0.379186 0.556165 0 -0.368221 2.55182e-07 0 279.811 1.3113e-06 0 -44.8349 555.62 0 -33.921 316.224 0 -23.8123 169.543 0 -14.8373 97.0826 0 -9.86432 57.1406 0 -6.41319 34.8146 0 -4.45271 21.7068 0 -3.02072 13.6682 0 -2.13347 8.67857 0 -1.48304 5.49506 0 -1.0543 3.4491 0 -0.755502 2.10718 0 -0.56827 1.20067 0 -0.4705 0.544381 0 -0.456834 -1.86265e-07 0 338.733 -2.98023e-07 0 -54.3081 554.259 0 -40.7012 316.419 0 -28.4844 168.26 0 -17.7869 96.7205 0 -11.7873 56.6497 0 -7.67553 34.5597 0 -5.32183 21.491 0 -3.60998 13.5206 0 -2.54906 8.56623 0 -1.7701 5.41238 0 -1.2581 3.38794 0 -0.900356 2.06351 0 -0.676571 1.1719 0 -0.559502 0.530158 0 -0.543238 7.07805e-08 0 399.301 -5.96046e-07 0 -64.051 552.523 0 -47.4851 316.711 0 -33.1012 166.708 0 -20.7317 96.3173 0 -13.6798 56.0591 0 -8.92914 34.2665 0 -6.17811 21.2343 0 -4.19186 13.3484 0 -2.95837 8.43373 0 -2.05214 5.31546 0 -1.45807 3.31607 0 -1.04185 2.0123 0 -0.781984 1.13813 0 -0.645736 0.513606 0 -0.627093 -7.45058e-09 0 461.819 -1.19209e-07 0 -74.103 550.345 0 -54.2783 317.13 0 -37.6481 164.866 0 -23.6754 95.8862 0 -15.5337 55.363 0 -10.1748 33.9393 0 -7.01822 20.9356 0 -4.7659 13.1528 0 -3.36006 8.28115 0 -2.3285 5.20469 0 -1.65356 3.2337 0 -1.17947 1.95374 0 -0.88405 1.09949 0 -0.728743 0.494853 0 -0.708147 0 0 526.6 2.6226e-06 0 -84.5008 547.648 0 -61.0892 317.714 0 -42.1079 162.713 0 -26.624 95.4435 0 -17.3389 54.5537 0 -11.4146 33.5839 0 -7.838 20.5931 0 -5.33222 12.9354 0 -3.75253 8.1085 0 -2.59872 5.08057 0 -1.84384 3.14106 0 -1.31277 1.88804 0 -0.982314 1.05612 0 -0.808057 0.47404 0 -0.786286 -6.70552e-08 0 593.975 -3.21865e-06 0 -95.2776 544.344 0 -67.9295 318.508 0 -46.4597 160.219 0 -29.5867 95.0086 0 -19.0833 53.6219 0 -12.6527 33.2071 0 -8.63215 20.2048 0 -5.8917 12.6982 0 -4.13376 7.91573 0 -2.86259 4.94363 0 -2.02812 3.03843 0 -1.44134 1.81542 0 -1.07631 1.00821 0 -0.883187 0.451301 0 -0.861639 1.3411e-07 0 664.289 1.66893e-06 0 -106.463 540.331 0 -74.8149 319.564 0 -50.6784 157.353 0 -32.5765 94.6044 0 -20.7514 52.5561 0 -13.8953 32.8174 0 -9.39375 19.7679 0 -6.44638 12.4435 0 -4.50109 7.70273 0 -3.12031 4.79445 0 -2.2054 2.92617 0 -1.56491 1.73603 0 -1.16557 0.956018 0 -0.953588 0.426721 0 -0.934774 -8.9407e-08 0 737.91 -7.15256e-07 0 -118.081 535.494 0 -81.7657 320.941 0 -54.7339 154.076 0 -35.6112 94.2581 0 -22.3241 51.3423 0 -15.152 32.4248 0 -10.1136 19.2787 0 -6.9999 12.1742 0 -4.85088 7.46934 0 -3.37274 4.63359 0 -2.37437 2.80478 0 -1.68342 1.64993 0 -1.24955 0.899956 0 -1.0186 0.400253 0 -1.00705 4.47035e-08 0 815.223 4.76837e-07 0 -130.153 529.707 0 -88.8082 322.706 0 -58.5897 150.345 0 -38.7146 94.0014 0 -23.7771 49.9637 0 -16.4367 32.0417 0 -10.7796 18.7325 0 -7.55822 11.8935 0 -5.17804 7.21537 0 -3.62169 4.46151 0 -2.53318 2.67505 0 -1.79711 1.55692 0 -1.32769 0.840737 0 -1.07734 0.371545 0 -1.08136 -2.38419e-07 0 896.641 -7.15256e-07 0 -142.689 522.826 0 -95.9753 324.939 0 -62.202 146.109 0 -41.9176 93.8711 0 -25.0797 48.3998 0 -17.7687 31.6824 0 -11.3752 18.1235 0 -8.13046 11.6053 0 -5.4753 6.94073 0 -3.87046 4.27834 0 -2.67915 2.53822 0 -1.9067 1.4563 0 -1.39926 0.779665 0 -1.12842 0.339595 0 -1.16342 2.98023e-08 0 982.598 1.90735e-06 0 -155.698 514.694 0 -103.308 327.725 0 -65.5182 141.31 0 -45.2599 93.9094 0 -26.1936 46.6268 0 -19.1743 31.364 0 -11.8783 17.445 0 -8.73019 11.3138 0 -5.7323 6.64566 0 -4.12453 4.08364 0 -2.80825 2.3964 0 -2.01373 1.34645 0 -1.46344 0.719105 0 -1.16952 0.302159 0 -1.26449 9.53674e-07 0 </DataArray> 
</PointData> 
<Points> 
<DataArray type="Float32" NumberOfComponents="3"> 
0.125 0.02 0 0.129 0.02 0 0.133 0.02 0 0.137 0.02 0 0.141 0.02 0 0.145 0.02 0 0.149 0.02 0 0.153 0.02 0 0.157 0.02 0 0.161 0.02 0 0.165 0.02 0 0.169 0.02 0 0.173 0.02 0 0.177 0.02 0 0.181 0.02 0 0.185 0.02 0 0.125 0.0200667 0 0.129 0.0201067 0 0.133 0.0201467 0 0.137 0.0201867 0 0.141 0.0202267 0 0.145 0.0202667 0 0.149 0.0203067 0 0.153 0.0203467 0 0.157 0.0203867 0 0.161 0.0204267 0 0.165 0.0204667 0 0.169 0.0205067 0 0.173 0.0205467 0 0.177 0.0205867 0 0.181 0.0206267 0 0.185 0.0206667 0 0.125 0.0201333 0 0.129 0.0202133 0 0.133 0.0202933 0 0.137 0.0203733 0 0.141 0.0204533 0 0.145 0.0205333 0 0.149 0.0206133 0 0.153 0.0206933 0 0.157 0.0207733 0 0.161 0.0208533 0 0.165 0.0209333 0 0.169 0.0210133 0 0.173 0.0210933 0 0.177 0.0211733 0 0.181 0.0212533 0 0.185 0.0213333 0 0.125 0.0202 0 0.129 0.02032 0 0.133 0.02044 0 0.137 0.02056 0 0.141 0.02068 0 0.145 0.0208 0 0.149 0.02092 0 0.153 0.02104 0 0.157 0.02116 0 0.161 0.02128 0 0.165 0.0214 0 0.169 0.02152 0 0.173 0.02164 0 0.177 0.02176 0 0.181 0.02188 0 0.185 0.022 0 0.125 0.0202667 0 0.129 0.0204267 0 0.133 0.0205867 0 0.137 0.0207467 0 0.141 0.0209067 0 0.145 0.0210667 0 0.149 0.0212267 0 0.153 0.0213867 0 0.157 0.0215467 0 0.161 0.0217067 0 0.165 0.0218667 0 0.169 0.0220267 0 0.173 0.0221867 0 0.177 0.0223467 0 0.181 0.0225067 0 0.185 0.0226667 0 0.125 0.0203333 0 0.129 0.0205333 0 0.133 0.0207333 0 0.137 0.0209333 0 0.141 0.0211333 0 0.145 0.0213333 0 0.149 0.0215333 0 0.153 0.0217333 0 0.157 0.0219333 0 0.161 0.0221333 0 0.165 0.0223333 0 0.169 0.0225333 0 0.173 0.0227333 0 0.177 0.0229333 0 0.181 0.0231333 0 0.185 0.0233333 0 0.125 0.0204 0 0.129 0.02064 0 0.133 0.02088 0 0.137 0.02112 0 0.141 0.02136 0 0.145 0.0216 0 0.149 0.02184 0 0.153 0.02208 0 0.157 0.02232 0 0.161 0.02256 0 0.165 0.0228 0 0.169 0.02304 0 0.173 0.02328 0 0.177 0.02352 0 0.181 0.02376 0 0.185 0.024 0 0.125 0.0204667 0 0.129 0.0207467 0 0.133 0.0210267 0 0.137 0.0213067 0 0.141 0.0215867 0 0.145 0.0218667 0 0.149 0.0221467 0 0.153 0.0224267 0 0.157 0.0227067 0 0.161 0.0229867 0 0.165 0.0232667 0 0.169 0.0235467 0 0.173 0.0238267 0 0.177 0.0241067 0 0.181 0.0243867 0 0.185 0.0246667 0 0.125 0.0205333 0 0.129 0.0208533 0 0.133 0.0211733 0 0.137 0.0214933 0 0.141 0.0218133 0 0.145 0.0221333 0 0.149 0.0224533 0 0.153 0.0227733 0 0.157 0.0230933 0 0.161 0.0234133 0 0.165 0.0237333 0 0.169 0.0240533 0 0.173 0.0243733 0 0.177 0.0246933 0 0.181 0.0250133 0 0.185 0.0253333 0 0.125 0.0206 0 0.129 0.02096 0 0.133 0.02132 0 0.137 0.02168 0 0.141 0.02204 0 0.145 0.0224 0 0.149 0.02276 0 0.153 0.02312 0 0.157 0.02348 0 0.161 0.02384 0 0.165 0.0242 0 0.169 0.02456 0 0.173 0.02492 0 0.177 0.02528 0 0.181 0.02564 0 0.185 0.026 0 0.125 0.0206667 0 0.129 0.0210667 0 0.133 0.0214667 0 0.137 0.0218667 0 0.141 0.0222667 0 0.145 0.0226667 0 0.149 0.0230667 0 0.153 0.0234667 0 0.157 0.0238667 0 0.161 0.0242667 0 0.165 0.0246667 0 0.169 0.0250667 0 0.173 0.0254667 0 0.177 0.0258667 0 0.181 0.0262667 0 0.185 0.0266667 0 0.125 0.0207333 0 0.129 0.0211733 0 0.133 0.0216133 0 0.137 0.0220533 0 0.141 0.0224933 0 0.145 0.0229333 0 0.149 0.0233733 0 0.153 0.0238133 0 0.157 0.0242533 0 0.161 0.0246933 0 0.165 0.0251333 0 0.169 0.0255733 0 0.173 0.0260133 0 0.177 0.0264533 0 0.181 0.0268933 0 0.185 0.0273333 0 0.125 0.0208 0 0.129 0.02128 0 0.133 0.02176 0 0.137 0.02224 0 0.141 0.02272 0 0.145 0.0232 0 0.149 0.02368 0 0.153 0.02416 0 0.157 0.02464 0 0.161 0.02512 0 0.165 0.0256 0 0.169 0.02608 0 0.173 0.02656 0 0.177 0.02704 0 0.181 0.02752 0 0.185 0.028 0 0.125 0.0208667 0 0.129 0.0213867 0 0.133 0.0219067 0 0.137 0.0224267 0 0.141 0.0229467 0 0.145 0.0234667 0 0.149 0.0239867 0 0.153 0.0245067 0 0.157 0.0250267 0 0.161 0.0255467 0 0.165 0.0260667 0 0.169 0.0265867 0 0.173 0.0271067 0 0.177 0.0276267 0 0.181 0.0281467 0 0.185 0.0286667 0 0.125 0.0209333 0 0.129 0.0214933 0 0.133 0.0220533 0 0.137 0.0226133 0 0.141 0.0231733 0 0.145 0.0237333 0 0.149 0.0242933 0 0.153 0.0248533 0 0.157 0.0254133 0 0.161 0.0259733 0 0.165 0.0265333 0 0.169 0.0270933 0 0.173 0.0276533 0 0.177 0.0282133 0 0.181 0.0287733 0 0.185 0.0293333 0 0.125 0.021 0 0.129 0.0216 0 0.133 0.0222 0 0.137 0.0228 0 0.141 0.0234 0 0.145 0.024 0 0.149 0.0246 0 0.153 0.0252 0 0.157 0.0258 0 0.161 0.0264 0 0.165 0.027 0 0.169 0.0276 0 0.173 0.0282 0 0.177 0.0288 0 0.181 0.0294 0 0.185 0.03 0 
</DataArray>
</Points> 
</Piece> 
</StructuredGrid> 
</VTKFile> 
