<?xml version="1.0"?> 
<VTKFile type="StructuredGrid" version="0.1"> 
<StructuredGrid WholeExtent="0 15 0 15 0 0"> 
<Piece Extent="0 15 0 15 0 0"> 
<PointData>
<DataArray type="Float32" Name="E" format="ascii" NumberOfComponents="3"> 
-1.78814e-07 6.19993e+06 0 2.06637e-09 3.96275e+06 0 5.12227e-08 2.78697e+06 0 -4.56348e-08 2.0905e+06 0 3.49246e-08 1.57441e+06 0 -7.45058e-09 1.15032e+06 0 3.25963e-08 792652 0 -5.58794e-08 504208 0 5.40167e-08 293749 0 -5.40167e-08 158194 0 9.68575e-08 80459.4 0 -1.22935e-07 39500.4 0 1.08033e-07 19003.3 0 -8.56817e-08 8957.55 0 3.72529e-08 4010.35 0 0 1440.4 0 -544419 4.45607e+06 0 -290838 3.09163e+06 0 -183373 2.31688e+06 0 -140882 1.77307e+06 0 -117708 1.33399e+06 0 -100284 960944 0 -81768 647779 0 -60681.3 402963 0 -39998.9 231330 0 -23596.8 124387 0 -12819.2 63973.2 0 -6618.29 32044.8 0 -3333.14 15790.7 0 -1677.47 7639.47 0 -900.65 3452.89 0 -723.661 796.756 0 -665276 3.28221e+06 0 -405470 2.48724e+06 0 -302482 1.93399e+06 0 -250661 1.48951e+06 0 -215390 1.10964e+06 0 -182256 781867 0 -143902 512060 0 -102434 309765 0 -65225.9 174689 0 -37845.8 93646.2 0 -20597 48668.1 0 -10804.2 24854.6 0 -5573.99 12543.1 0 -2897.06 6207.1 0 -1630.99 2856.1 0 -1454.31 802.741 0 -644990 2.56901e+06 0 -478211 2.04528e+06 0 -394682 1.6087e+06 0 -340548 1.23132e+06 0 -295018 898332 0 -243849 612547 0 -184674 386047 0 -125778 225815 0 -77633.8 124904 0 -44517.5 66797.7 0 -24372.8 35110.1 0 -13016.5 18286.1 0 -6889.61 9445.4 0 -3700.96 4785.19 0 -2185.56 2256.46 0 -1906.92 850.023 0 -654975 2.0979e+06 0 -543039 1.68514e+06 0 -470971 1.31989e+06 0 -414537 990518 0 -354453 697327 0 -281851 453298 0 -203119 271820 0 -132427 152992 0 -79665.7 83028.1 0 -45436.3 44398.6 0 -25139.8 23640.6 0 -13703 12563.4 0 -7453.28 6642.5 0 -4142.76 3449.42 0 -2548.22 1696.03 0 -2131.67 849.515 0 -687499 1.71607e+06 0 -601005 1.37148e+06 0 -536103 1.05351e+06 0 -470251 760556 0 -388515 505484 0 -293076 307023 0 -200097 172898 0 -125426 93237.4 0 -74149.7 49719 0 -42382.3 26643.7 0 -23809.4 14386 0 -13280.6 7801.75 0 -7434.66 4223.64 0 -4279.2 2257.49 0 -2721.44 1194.1 0 -2189.97 801.818 0 -724877 1.38449e+06 0 -655433 1.08455e+06 0 -586857 797860 0 -499553 537325 0 -390601 326142 0 -276616 179770 0 -179173 93239.5 0 -108998 47761.8 0 -64016 24937.6 0 -36957.6 13350.8 0 -21173.8 7287.64 0 -12116.3 4024.48 0 -6991.89 2232.65 0 -4167.54 1246 0 -2723.82 758.382 0 -2121.38 717.816 0 -768764 1.08226e+06 0 -701128 806421 0 -610783 544210 0 -490465 324085 0 -356634 168977 0 -236393 79176.2 0 -146676 35512.1 0 -87879.7 16300.6 0 -51893.8 7893.63 0 -30476.3 4030.28 0 -17875.6 2148 0 -10517.4 1183.72 0 -6264.92 676.931 0 -3864.44 430.544 0 -2583.17 391.743 0 -1955.82 608.379 0 -811098 783663 0 -719176 521890 0 -587439 295630 0 -433655 135980 0 -290791 47796.2 0 -182111 10811.9 0 -110373 -713.898 0 -66292.5 -3025.55 0 -39784.6 -2753.48 0 -23902.1 -1994.65 0 -14397.7 -1315.37 0 -8727.33 -816.907 0 -5371.68 -465.057 0 -3424.58 -189.937 0 -2331.52 94.1274 0 -1718.89 483.143 0 -822528 465785 0 -675635 234913 0 -499507 76386.2 0 -334085 -3080.1 0 -208554 -26910.1 0 -126698 -26058 0 -76988.1 -19325.4 0 -47082.8 -13119.8 0 -28935.2 -8560.42 0 -17854.6 -5457.75 0 -11072.7 -3421.37 0 -6926.05 -2102.2 0 -4407.46 -1235.53 0 -2898.62 -628.642 0 -2001.81 -136.865 0 -1434.55 350.8 0 -747066 136602 0 -542654 -13464.1 0 -355523 -73229.4 0 -217878 -75431.8 0 -131514 -57300.1 0 -80590.8 -39237.1 0 -50183 -26013.5 0 -31530 -16997 0 -19930.1 -10992 0 -12667.1 -7053.26 0 -8103.44 -4486.63 0 -5236.94 -2808.31 0 -3445.48 -1689.51 0 -2331.74 -906.614 0 -1625.72 -305.776 0 -1125.09 218.838 0 -546479 -132005 0 -341651 -157233 0 -201925 -127721 0 -120445 -88708.6 0 -74655.1 -58993.3 0 -47482.1 -39149.2 0 -30532.3 -25947.2 0 -19777.5 -17121.4 0 -12894.8 -11261.8 0 -8458.86 -7379.05 0 -5590.03 -4799.23 0 -3735.43 -3069.81 0 -2539.11 -1887.64 0 -1762.43 -1049.21 0 -1232.49 -418.975 0 -810.588 93.2171 0 -279283 -239640 0 -156473 -169848 0 -93031.7 -111184 0 -59361.4 -73365.1 0 -38866.1 -49486.4 0 -25627.5 -33496.4 0 -17022.4 -22618.4 0 -11400.1 -15262.2 0 -7680.82 -10290.4 0 -5207.53 -6912.4 0 -3558.4 -4604.42 0 -2459.32 -3010.35 0 -1724.49 -1890.36 0 -1222.21 -1083.25 0 -848.217 -484.15 0 -508.818 -22.3702 0 -88809.6 -183179 0 -56603.9 -115079 0 -38680.3 -78055.1 0 -26164.8 -54489.1 0 -17634.1 -37832.2 0 -12026.1 -26177 0 -8290.43 -18143.4 0 -5747.61 -12591.3 0 -4005.21 -8720.96 0 -2808.77 -6010.74 0 -1985.72 -4099.15 0 -1418.83 -2736.95 0 -1023.67 -1753.37 0 -736.037 -1034.55 0 -496.755 -509.78 0 -233.465 -130.497 0 -25920.4 -99365.6 0 -18458.5 -73754.8 0 -12174.5 -53480.5 0 -8286.69 -37890 0 -5869.27 -26881.8 0 -4185.13 -19191.6 0 -2990.15 -13721.9 0 -2143.46 -9796.77 0 -1546.35 -6970.07 0 -1122 -4924.89 0 -820.963 -3433.48 0 -605.552 -2336.91 0 -447.827 -1524.42 0 -323.384 -925.506 0 -203.058 -504.138 0 -6.10571 -253.804 0 1.01328e-06 -54990.9 0 -9.27248e-08 -42779.7 0 1.72295e-08 -33971.4 0 -6.98492e-09 -25105.9 0 -2.04891e-08 -18274.6 0 -1.30385e-08 -13420.5 0 8.19564e-08 -9876.56 0 -8.9407e-08 -7248.24 0 3.35276e-08 -5287.55 0 -7.07805e-08 -3820.75 0 7.45058e-08 -2714.92 0 -4.47035e-08 -1876.16 0 1.49012e-08 -1240.88 0 -8.19564e-08 -769.12 0 4.47035e-08 -465.307 0 -2.38419e-07 -509.799 0 </DataArray> 
</PointData> 
<Points> 
<DataArray type="Float32" NumberOfComponents="3"> 
0.075 0.021 0 0.0783333 0.021 0 0.0816667 0.021 0 0.085 0.021 0 0.0883333 0.021 0 0.0916667 0.021 0 0.095 0.021 0 0.0983333 0.021 0 0.101667 0.021 0 0.105 0.021 0 0.108333 0.021 0 0.111667 0.021 0 0.115 0.021 0 0.118333 0.021 0 0.121667 0.021 0 0.125 0.021 0 0.0773333 0.0219333 0 0.0805333 0.0219333 0 0.0837333 0.0219333 0 0.0869333 0.0219333 0 0.0901333 0.0219333 0 0.0933333 0.0219333 0 0.0965333 0.0219333 0 0.0997333 0.0219333 0 0.102933 0.0219333 0 0.106133 0.0219333 0 0.109333 0.0219333 0 0.112533 0.0219333 0 0.115733 0.0219333 0 0.118933 0.0219333 0 0.122133 0.0219333 0 0.125333 0.0219333 0 0.0796667 0.0228667 0 0.0827333 0.0228667 0 0.0858 0.0228667 0 0.0888667 0.0228667 0 0.0919333 0.0228667 0 0.095 0.0228667 0 0.0980667 0.0228667 0 0.101133 0.0228667 0 0.1042 0.0228667 0 0.107267 0.0228667 0 0.110333 0.0228667 0 0.1134 0.0228667 0 0.116467 0.0228667 0 0.119533 0.0228667 0 0.1226 0.0228667 0 0.125667 0.0228667 0 0.082 0.0238 0 0.0849333 0.0238 0 0.0878667 0.0238 0 0.0908 0.0238 0 0.0937333 0.0238 0 0.0966667 0.0238 0 0.0996 0.0238 0 0.102533 0.0238 0 0.105467 0.0238 0 0.1084 0.0238 0 0.111333 0.0238 0 0.114267 0.0238 0 0.1172 0.0238 0 0.120133 0.0238 0 0.123067 0.0238 0 0.126 0.0238 0 0.0843333 0.0247333 0 0.0871333 0.0247333 0 0.0899333 0.0247333 0 0.0927333 0.0247333 0 0.0955333 0.0247333 0 0.0983333 0.0247333 0 0.101133 0.0247333 0 0.103933 0.0247333 0 0.106733 0.0247333 0 0.109533 0.0247333 0 0.112333 0.0247333 0 0.115133 0.0247333 0 0.117933 0.0247333 0 0.120733 0.0247333 0 0.123533 0.0247333 0 0.126333 0.0247333 0 0.0866667 0.0256667 0 0.0893333 0.0256667 0 0.092 0.0256667 0 0.0946667 0.0256667 0 0.0973333 0.0256667 0 0.1 0.0256667 0 0.102667 0.0256667 0 0.105333 0.0256667 0 0.108 0.0256667 0 0.110667 0.0256667 0 0.113333 0.0256667 0 0.116 0.0256667 0 0.118667 0.0256667 0 0.121333 0.0256667 0 0.124 0.0256667 0 0.126667 0.0256667 0 0.089 0.0266 0 0.0915333 0.0266 0 0.0940667 0.0266 0 0.0966 0.0266 0 0.0991333 0.0266 0 0.101667 0.0266 0 0.1042 0.0266 0 0.106733 0.0266 0 0.109267 0.0266 0 0.1118 0.0266 0 0.114333 0.0266 0 0.116867 0.0266 0 0.1194 0.0266 0 0.121933 0.0266 0 0.124467 0.0266 0 0.127 0.0266 0 0.0913333 0.0275333 0 0.0937333 0.0275333 0 0.0961333 0.0275333 0 0.0985333 0.0275333 0 0.100933 0.0275333 0 0.103333 0.0275333 0 0.105733 0.0275333 0 0.108133 0.0275333 0 0.110533 0.0275333 0 0.112933 0.0275333 0 0.115333 0.0275333 0 0.117733 0.0275333 0 0.120133 0.0275333 0 0.122533 0.0275333 0 0.124933 0.0275333 0 0.127333 0.0275333 0 0.0936667 0.0284667 0 0.0959333 0.0284667 0 0.0982 0.0284667 0 0.100467 0.0284667 0 0.102733 0.0284667 0 0.105 0.0284667 0 0.107267 0.0284667 0 0.109533 0.0284667 0 0.1118 0.0284667 0 0.114067 0.0284667 0 0.116333 0.0284667 0 0.1186 0.0284667 0 0.120867 0.0284667 0 0.123133 0.0284667 0 0.1254 0.0284667 0 0.127667 0.0284667 0 0.096 0.0294 0 0.0981333 0.0294 0 0.100267 0.0294 0 0.1024 0.0294 0 0.104533 0.0294 0 0.106667 0.0294 0 0.1088 0.0294 0 0.110933 0.0294 0 0.113067 0.0294 0 0.1152 0.0294 0 0.117333 0.0294 0 0.119467 0.0294 0 0.1216 0.0294 0 0.123733 0.0294 0 0.125867 0.0294 0 0.128 0.0294 0 0.0983333 0.0303333 0 0.100333 0.0303333 0 0.102333 0.0303333 0 0.104333 0.0303333 0 0.106333 0.0303333 0 0.108333 0.0303333 0 0.110333 0.0303333 0 0.112333 0.0303333 0 0.114333 0.0303333 0 0.116333 0.0303333 0 0.118333 0.0303333 0 0.120333 0.0303333 0 0.122333 0.0303333 0 0.124333 0.0303333 0 0.126333 0.0303333 0 0.128333 0.0303333 0 0.100667 0.0312667 0 0.102533 0.0312667 0 0.1044 0.0312667 0 0.106267 0.0312667 0 0.108133 0.0312667 0 0.11 0.0312667 0 0.111867 0.0312667 0 0.113733 0.0312667 0 0.1156 0.0312667 0 0.117467 0.0312667 0 0.119333 0.0312667 0 0.1212 0.0312667 0 0.123067 0.0312667 0 0.124933 0.0312667 0 0.1268 0.0312667 0 0.128667 0.0312667 0 0.103 0.0322 0 0.104733 0.0322 0 0.106467 0.0322 0 0.1082 0.0322 0 0.109933 0.0322 0 0.111667 0.0322 0 0.1134 0.0322 0 0.115133 0.0322 0 0.116867 0.0322 0 0.1186 0.0322 0 0.120333 0.0322 0 0.122067 0.0322 0 0.1238 0.0322 0 0.125533 0.0322 0 0.127267 0.0322 0 0.129 0.0322 0 0.105333 0.0331333 0 0.106933 0.0331333 0 0.108533 0.0331333 0 0.110133 0.0331333 0 0.111733 0.0331333 0 0.113333 0.0331333 0 0.114933 0.0331333 0 0.116533 0.0331333 0 0.118133 0.0331333 0 0.119733 0.0331333 0 0.121333 0.0331333 0 0.122933 0.0331333 0 0.124533 0.0331333 0 0.126133 0.0331333 0 0.127733 0.0331333 0 0.129333 0.0331333 0 0.107667 0.0340667 0 0.109133 0.0340667 0 0.1106 0.0340667 0 0.112067 0.0340667 0 0.113533 0.0340667 0 0.115 0.0340667 0 0.116467 0.0340667 0 0.117933 0.0340667 0 0.1194 0.0340667 0 0.120867 0.0340667 0 0.122333 0.0340667 0 0.1238 0.0340667 0 0.125267 0.0340667 0 0.126733 0.0340667 0 0.1282 0.0340667 0 0.129667 0.0340667 0 0.11 0.035 0 0.111333 0.035 0 0.112667 0.035 0 0.114 0.035 0 0.115333 0.035 0 0.116667 0.035 0 0.118 0.035 0 0.119333 0.035 0 0.120667 0.035 0 0.122 0.035 0 0.123333 0.035 0 0.124667 0.035 0 0.126 0.035 0 0.127333 0.035 0 0.128667 0.035 0 0.13 0.035 0 
</DataArray>
</Points> 
</Piece> 
</StructuredGrid> 
</VTKFile> 
