<?xml version="1.0"?> 
<VTKFile type="StructuredGrid" version="0.1"> 
<StructuredGrid WholeExtent="0 15 0 15 0 0"> 
<Piece Extent="0 15 0 15 0 0"> 
<PointData>
<DataArray type="Float32" Name="E" format="ascii" NumberOfComponents="3"> 
228.47 1.19209e-06 0 -2.50019 -54.7375 0 -9.44629 -39.6419 0 -12.2077 -17.8812 0 -10.8568 -15.8263 0 -8.66543 -8.97895 0 -6.88329 -7.26994 0 -5.17204 -4.73348 0 -3.94531 -3.55505 0 -2.93046 -2.44563 0 -2.20791 -1.74151 0 -1.65818 -1.19326 0 -1.28016 -0.793212 0 -1.02884 -0.491008 0 -0.896405 -0.236776 0 -0.860275 3.09944e-06 0 144.852 -2.15136e-07 0 10.2588 -52.0747 0 -7.36028 -34.1458 0 -10.6028 -20.3445 0 -9.75435 -14.8637 0 -8.14164 -9.95174 0 -6.36712 -7.2849 0 -4.91228 -5.11947 0 -3.69635 -3.69758 0 -2.78528 -2.61688 0 -2.0827 -1.84707 0 -1.57578 -1.2746 0 -1.21322 -0.849532 0 -0.978575 -0.522975 0 -0.851189 -0.25267 0 -0.814424 -2.45171e-07 0 97.7319 1.20606e-07 0 15.9355 -45.9208 0 -5.08535 -31.2282 0 -9.08252 -21.02 0 -8.7968 -14.6889 0 -7.51377 -10.4458 0 -5.9146 -7.47965 0 -4.59775 -5.39177 0 -3.46455 -3.86692 0 -2.61801 -2.76363 0 -1.95917 -1.95036 0 -1.48446 -1.35079 0 -1.14413 -0.901659 0 -0.923824 -0.554306 0 -0.803206 -0.26682 0 -0.767375 6.14673e-08 0 69.7666 -1.85333e-07 0 17.8887 -39.2573 0 -3.03407 -29.2088 0 -7.69375 -20.963 0 -7.89917 -14.7609 0 -6.86556 -10.7441 0 -5.47198 -7.71868 0 -4.26496 -5.61317 0 -3.22989 -4.03607 0 -2.441 -2.89578 0 -1.83136 -2.04821 0 -1.38786 -1.42183 0 -1.07151 -0.950231 0 -0.865599 -0.583964 0 -0.752469 -0.280048 0 -0.718203 -2.18861e-07 0 52.1617 3.31551e-07 0 17.8908 -33.2285 0 -1.36191 -27.4617 0 -6.44869 -20.6192 0 -7.03986 -14.8705 0 -6.22411 -10.9586 0 -5.02465 -7.95104 0 -3.92519 -5.80723 0 -2.98739 -4.195 0 -2.25797 -3.01682 0 -1.69806 -2.1393 0 -1.28711 -1.48767 0 -0.995226 -0.995331 0 -0.804328 -0.611602 0 -0.699128 -0.292503 0 -0.666802 2.47732e-07 0 40.3661 -2.90573e-07 0 16.8887 -28.1561 0 -0.0969214 -25.8064 0 -5.34739 -20.1685 0 -6.21753 -14.9502 0 -5.59671 -11.1303 0 -4.57106 -8.1606 0 -3.58133 -5.98174 0 -2.73692 -4.34048 0 -2.06992 -3.12771 0 -1.5595 -2.22307 0 -1.18264 -1.54824 0 -0.915519 -1.03688 0 -0.740272 -0.637096 0 -0.643378 -0.304137 0 -0.613279 -1.08033e-07 0 31.9722 7.07805e-08 0 15.39 -24.0345 0 0.791614 -24.2241 0 -4.38462 -19.6858 0 -5.4353 -14.9863 0 -4.98444 -11.2733 0 -4.11314 -8.34399 0 -3.23392 -6.13884 0 -2.47958 -4.47174 0 -1.87719 -3.22856 0 -1.41626 -2.29929 0 -1.07471 -1.60342 0 -0.83272 -1.07479 0 -0.67366 -0.660376 0 -0.585424 -0.314872 0 -0.55779 8.56817e-08 0 25.6618 8.19564e-08 0 13.6682 -20.7462 0 1.3568 -22.7438 0 -3.55201 -19.2051 0 -4.69547 -14.9844 0 -4.38682 -11.3926 0 -3.65309 -8.50205 0 -2.88312 -6.27893 0 -2.21653 -4.58872 0 -1.68008 -3.31922 0 -1.2689 -2.3678 0 -0.963579 -1.65312 0 -0.747153 -1.10895 0 -0.604729 -0.681384 0 -0.525476 -0.324631 0 -0.500505 -3.72529e-08 0 20.6864 -9.68575e-08 0 11.8681 -18.1518 0 1.65628 -21.3993 0 -2.83871 -18.746 0 -3.99829 -14.9549 0 -3.80305 -11.4907 0 -3.19261 -8.63667 0 -2.52919 -6.40201 0 -1.94877 -4.6916 0 -1.47897 -3.39952 0 -1.11797 -2.42849 0 -0.849558 -1.69722 0 -0.659135 -1.13928 0 -0.53372 -0.700065 0 -0.463744 -0.333355 0 -0.441597 1.41561e-07 0 16.6007 8.9407e-08 0 10.0642 -16.1241 0 1.74403 -20.2156 0 -2.232 -18.3223 0 -3.34198 -14.9085 0 -3.23226 -11.5698 0 -2.73276 -8.74974 0 -2.17253 -6.50812 0 -1.67712 -4.78052 0 -1.2743 -3.46931 0 -0.963955 -2.48129 0 -0.732981 -1.73563 0 -0.568972 -1.16571 0 -0.460885 -0.716366 0 -0.400442 -0.340997 0 -0.381248 -2.98023e-07 0 13.1262 1.04308e-07 0 8.29142 -14.5586 0 1.66719 -19.2079 0 -1.71777 -17.9452 0 -2.72315 -14.8545 0 -2.67335 -11.6318 0 -2.27415 -8.84287 0 -1.8136 -6.59739 0 -1.40227 -4.8556 0 -1.06657 -3.52849 0 -0.807303 -2.5261 0 -0.6142 -1.76826 0 -0.476968 -1.18818 0 -0.38648 -0.730241 0 -0.335787 -0.34752 0 -0.319649 1.93715e-07 0 10.0789 -2.38419e-07 0 6.56239 -13.3738 0 1.46555 -18.3833 0 -1.28108 -17.6242 0 -2.1371 -14.8005 0 -2.12499 -11.6791 0 -1.81699 -8.91736 0 -1.45286 -6.67002 0 -1.12483 -4.91693 0 -0.856296 -3.57699 0 -0.648465 -2.56286 0 -0.493577 -1.79505 0 -0.383426 -1.20663 0 -0.310762 -0.741649 0 -0.269998 -0.352895 0 -0.256998 -1.19209e-07 0 7.32969 1.49012e-07 0 4.87734 -12.5086 0 1.17225 -17.7438 0 -0.906525 -17.3668 0 -1.57825 -14.7526 0 -1.58553 -11.7134 0 -1.36127 -8.97425 0 -1.09076 -6.72622 0 -0.845363 -4.96457 0 -0.643989 -3.61476 0 -0.487878 -2.59151 0 -0.371476 -1.81595 0 -0.288651 -1.22103 0 -0.233994 -0.750556 0 -0.203299 -0.357098 0 -0.193497 7.45058e-08 0 4.7826 -1.93715e-07 0 3.22942 -11.9194 0 0.814959 -17.2889 0 -0.578533 -17.1788 0 -1.04032 -14.7152 0 -1.05303 -11.7367 0 -0.906773 -9.01433 0 -0.727691 -6.7662 0 -0.564398 -4.99857 0 -0.430166 -3.64176 0 -0.32598 -2.61201 0 -0.248267 -1.8309 0 -0.19295 -1.23133 0 -0.156435 -0.756938 0 -0.135914 -0.360113 0 -0.129356 -5.96046e-08 0 2.36115 1.78814e-07 0 1.60789 -11.577 0 0.41725 -17.0169 0 -0.281531 -17.0644 0 -0.516579 -14.6915 0 -0.525297 -11.7501 0 -0.453156 -9.03816 0 -0.363997 -6.79012 0 -0.282445 -5.01896 0 -0.215334 -3.65796 0 -0.163209 -2.62432 0 -0.124318 -1.83989 0 -0.0966296 -1.23753 0 -0.0783493 -0.760774 0 -0.0680718 -0.361926 0 -0.0647854 8.9407e-08 0 3.57628e-07 -1.19209e-06 0 2.6921e-09 -11.4647 0 -4.7381e-08 -16.9265 0 4.51691e-08 -17.026 0 -2.84053e-08 -14.6834 0 -1.86265e-09 -11.7545 0 4.09782e-08 -9.04606 0 -3.35276e-08 -6.79808 0 9.31323e-09 -5.02575 0 -1.86265e-09 -3.66337 0 -1.11759e-08 -2.62842 0 3.72529e-09 -1.84288 0 7.45058e-09 -1.23959 0 -1.11759e-08 -0.762054 0 -2.23517e-08 -0.362532 0 1.78814e-07 -5.96046e-07 0 </DataArray> 
</PointData> 
<Points> 
<DataArray type="Float32" NumberOfComponents="3"> 
0.13 0.035 0 0.133667 0.035 0 0.137333 0.035 0 0.141 0.035 0 0.144667 0.035 0 0.148333 0.035 0 0.152 0.035 0 0.155667 0.035 0 0.159333 0.035 0 0.163 0.035 0 0.166667 0.035 0 0.170333 0.035 0 0.174 0.035 0 0.177667 0.035 0 0.181333 0.035 0 0.185 0.035 0 0.13 0.0356667 0 0.133667 0.0356667 0 0.137333 0.0356667 0 0.141 0.0356667 0 0.144667 0.0356667 0 0.148333 0.0356667 0 0.152 0.0356667 0 0.155667 0.0356667 0 0.159333 0.0356667 0 0.163 0.0356667 0 0.166667 0.0356667 0 0.170333 0.0356667 0 0.174 0.0356667 0 0.177667 0.0356667 0 0.181333 0.0356667 0 0.185 0.0356667 0 0.13 0.0363333 0 0.133667 0.0363333 0 0.137333 0.0363333 0 0.141 0.0363333 0 0.144667 0.0363333 0 0.148333 0.0363333 0 0.152 0.0363333 0 0.155667 0.0363333 0 0.159333 0.0363333 0 0.163 0.0363333 0 0.166667 0.0363333 0 0.170333 0.0363333 0 0.174 0.0363333 0 0.177667 0.0363333 0 0.181333 0.0363333 0 0.185 0.0363333 0 0.13 0.037 0 0.133667 0.037 0 0.137333 0.037 0 0.141 0.037 0 0.144667 0.037 0 0.148333 0.037 0 0.152 0.037 0 0.155667 0.037 0 0.159333 0.037 0 0.163 0.037 0 0.166667 0.037 0 0.170333 0.037 0 0.174 0.037 0 0.177667 0.037 0 0.181333 0.037 0 0.185 0.037 0 0.13 0.0376667 0 0.133667 0.0376667 0 0.137333 0.0376667 0 0.141 0.0376667 0 0.144667 0.0376667 0 0.148333 0.0376667 0 0.152 0.0376667 0 0.155667 0.0376667 0 0.159333 0.0376667 0 0.163 0.0376667 0 0.166667 0.0376667 0 0.170333 0.0376667 0 0.174 0.0376667 0 0.177667 0.0376667 0 0.181333 0.0376667 0 0.185 0.0376667 0 0.13 0.0383333 0 0.133667 0.0383333 0 0.137333 0.0383333 0 0.141 0.0383333 0 0.144667 0.0383333 0 0.148333 0.0383333 0 0.152 0.0383333 0 0.155667 0.0383333 0 0.159333 0.0383333 0 0.163 0.0383333 0 0.166667 0.0383333 0 0.170333 0.0383333 0 0.174 0.0383333 0 0.177667 0.0383333 0 0.181333 0.0383333 0 0.185 0.0383333 0 0.13 0.039 0 0.133667 0.039 0 0.137333 0.039 0 0.141 0.039 0 0.144667 0.039 0 0.148333 0.039 0 0.152 0.039 0 0.155667 0.039 0 0.159333 0.039 0 0.163 0.039 0 0.166667 0.039 0 0.170333 0.039 0 0.174 0.039 0 0.177667 0.039 0 0.181333 0.039 0 0.185 0.039 0 0.13 0.0396667 0 0.133667 0.0396667 0 0.137333 0.0396667 0 0.141 0.0396667 0 0.144667 0.0396667 0 0.148333 0.0396667 0 0.152 0.0396667 0 0.155667 0.0396667 0 0.159333 0.0396667 0 0.163 0.0396667 0 0.166667 0.0396667 0 0.170333 0.0396667 0 0.174 0.0396667 0 0.177667 0.0396667 0 0.181333 0.0396667 0 0.185 0.0396667 0 0.13 0.0403333 0 0.133667 0.0403333 0 0.137333 0.0403333 0 0.141 0.0403333 0 0.144667 0.0403333 0 0.148333 0.0403333 0 0.152 0.0403333 0 0.155667 0.0403333 0 0.159333 0.0403333 0 0.163 0.0403333 0 0.166667 0.0403333 0 0.170333 0.0403333 0 0.174 0.0403333 0 0.177667 0.0403333 0 0.181333 0.0403333 0 0.185 0.0403333 0 0.13 0.041 0 0.133667 0.041 0 0.137333 0.041 0 0.141 0.041 0 0.144667 0.041 0 0.148333 0.041 0 0.152 0.041 0 0.155667 0.041 0 0.159333 0.041 0 0.163 0.041 0 0.166667 0.041 0 0.170333 0.041 0 0.174 0.041 0 0.177667 0.041 0 0.181333 0.041 0 0.185 0.041 0 0.13 0.0416667 0 0.133667 0.0416667 0 0.137333 0.0416667 0 0.141 0.0416667 0 0.144667 0.0416667 0 0.148333 0.0416667 0 0.152 0.0416667 0 0.155667 0.0416667 0 0.159333 0.0416667 0 0.163 0.0416667 0 0.166667 0.0416667 0 0.170333 0.0416667 0 0.174 0.0416667 0 0.177667 0.0416667 0 0.181333 0.0416667 0 0.185 0.0416667 0 0.13 0.0423333 0 0.133667 0.0423333 0 0.137333 0.0423333 0 0.141 0.0423333 0 0.144667 0.0423333 0 0.148333 0.0423333 0 0.152 0.0423333 0 0.155667 0.0423333 0 0.159333 0.0423333 0 0.163 0.0423333 0 0.166667 0.0423333 0 0.170333 0.0423333 0 0.174 0.0423333 0 0.177667 0.0423333 0 0.181333 0.0423333 0 0.185 0.0423333 0 0.13 0.043 0 0.133667 0.043 0 0.137333 0.043 0 0.141 0.043 0 0.144667 0.043 0 0.148333 0.043 0 0.152 0.043 0 0.155667 0.043 0 0.159333 0.043 0 0.163 0.043 0 0.166667 0.043 0 0.170333 0.043 0 0.174 0.043 0 0.177667 0.043 0 0.181333 0.043 0 0.185 0.043 0 0.13 0.0436667 0 0.133667 0.0436667 0 0.137333 0.0436667 0 0.141 0.0436667 0 0.144667 0.0436667 0 0.148333 0.0436667 0 0.152 0.0436667 0 0.155667 0.0436667 0 0.159333 0.0436667 0 0.163 0.0436667 0 0.166667 0.0436667 0 0.170333 0.0436667 0 0.174 0.0436667 0 0.177667 0.0436667 0 0.181333 0.0436667 0 0.185 0.0436667 0 0.13 0.0443333 0 0.133667 0.0443333 0 0.137333 0.0443333 0 0.141 0.0443333 0 0.144667 0.0443333 0 0.148333 0.0443333 0 0.152 0.0443333 0 0.155667 0.0443333 0 0.159333 0.0443333 0 0.163 0.0443333 0 0.166667 0.0443333 0 0.170333 0.0443333 0 0.174 0.0443333 0 0.177667 0.0443333 0 0.181333 0.0443333 0 0.185 0.0443333 0 0.13 0.045 0 0.133667 0.045 0 0.137333 0.045 0 0.141 0.045 0 0.144667 0.045 0 0.148333 0.045 0 0.152 0.045 0 0.155667 0.045 0 0.159333 0.045 0 0.163 0.045 0 0.166667 0.045 0 0.170333 0.045 0 0.174 0.045 0 0.177667 0.045 0 0.181333 0.045 0 0.185 0.045 0 
</DataArray>
</Points> 
</Piece> 
</StructuredGrid> 
</VTKFile> 
