<?xml version="1.0"?> 
<VTKFile type="StructuredGrid" version="0.1"> 
<StructuredGrid WholeExtent="0 15 0 15 0 0"> 
<Piece Extent="0 15 0 15 0 0"> 
<PointData>
<DataArray type="Float32" Name="E" format="ascii" NumberOfComponents="3"> 
1.17562e+06 -119961 0 1.51465e+06 -101152 0 1.67033e+06 -25646.2 0 1.66439e+06 24452.2 0 1.55919e+06 54673.7 0 1.4122e+06 62384.4 0 1.25844e+06 61642.5 0 1.11481e+06 55457 0 988220 48075 0 880492 40279 0 791416 32836.3 0 720046 25775.3 0 665440 19067.9 0 626866 12603.2 0 603872 6271 0 596231 0 0 1.17803e+06 -120207 0 1.51649e+06 -107243 0 1.6724e+06 -27686.5 0 1.66537e+06 26590.2 0 1.55936e+06 58184.4 0 1.41201e+06 66588.1 0 1.25806e+06 65640.6 0 1.11443e+06 59092.4 0 987852 51198.9 0 880175 42903 0 791141 34972.2 0 719811 27452.6 0 665233 20309.1 0 626678 13423.4 0 603696 6679.45 0 596057 0 0 1.17902e+06 -120308 0 1.51859e+06 -113377 0 1.67457e+06 -29680 0 1.66641e+06 28755.9 0 1.55957e+06 61716.1 0 1.41181e+06 70798.6 0 1.25768e+06 69641.8 0 1.11403e+06 62727.2 0 987470 54321.8 0 879845 45525.6 0 790854 37106.8 0 719564 29129 0 665014 21549.5 0 626480 14243.2 0 603508 7087.7 0 595873 0 0 1.17856e+06 -120261 0 1.52094e+06 -119540 0 1.67685e+06 -31637 0 1.66753e+06 30957.2 0 1.5598e+06 65266.3 0 1.41162e+06 75018.1 0 1.25729e+06 73645.2 0 1.11361e+06 66361.9 0 987075 57443.5 0 879502 48146.9 0 790554 39240.2 0 719305 30804.5 0 664784 22789.3 0 626270 15062.6 0 603309 7495.75 0 595678 0 0 1.17663e+06 -120065 0 1.52356e+06 -125717 0 1.67922e+06 -33568.3 0 1.6687e+06 33202.5 0 1.56006e+06 68831.9 0 1.41143e+06 79248.8 0 1.25689e+06 77650.1 0 1.11319e+06 69997 0 986667 60563.8 0 879144 50766.9 0 790241 41372.4 0 719034 32479 0 664542 24028.4 0 626049 15881.6 0 603099 7903.59 0 595472 0 0 1.1732e+06 -119715 0 1.52644e+06 -131891 0 1.6817e+06 -35485.2 0 1.66994e+06 35500.3 0 1.56035e+06 72409.8 0 1.41123e+06 83493.2 0 1.25649e+06 81655.8 0 1.11275e+06 73633 0 986247 63682.6 0 878773 53385.7 0 789916 43503.3 0 718751 34152.5 0 664289 25266.9 0 625816 16700.2 0 602879 8311.24 0 595255 0 0 1.16822e+06 -119206 0 1.52961e+06 -138047 0 1.68428e+06 -37400.1 0 1.67125e+06 37860 0 1.56066e+06 75996.5 0 1.41104e+06 87753.9 0 1.25608e+06 85661.2 0 1.1123e+06 77270.4 0 985812 66799.5 0 878388 56003.3 0 789579 45632.8 0 718456 35825.1 0 664025 26504.6 0 625573 17518.3 0 602647 8718.69 0 595027 0 0 1.16162e+06 -118533 0 1.53307e+06 -144164 0 1.68696e+06 -39326 0 1.67262e+06 40291.3 0 1.561e+06 79588.2 0 1.41084e+06 92033.7 0 1.25566e+06 89665.4 0 1.11183e+06 80909.8 0 985365 69914.5 0 877990 58619.8 0 789229 47761 0 718149 37496.7 0 663749 27741.7 0 625319 18335.9 0 602404 9125.96 0 594788 0 0 1.15333e+06 -117687 0 1.53684e+06 -150223 0 1.68974e+06 -41277.5 0 1.67405e+06 42805 0 1.56137e+06 83180.5 0 1.41064e+06 96335.7 0 1.25523e+06 93667.1 0 1.11135e+06 84552 0 984905 73027.1 0 877577 61235.3 0 788867 49887.7 0 717829 39167.3 0 663462 28978 0 625053 19153.1 0 602151 9533.06 0 594538 0 0 1.14324e+06 -116658 0 1.54093e+06 -156199 0 1.69261e+06 -43270.6 0 1.67554e+06 45412.8 0 1.56177e+06 86768.5 0 1.41044e+06 100663 0 1.2548e+06 97665.2 0 1.11085e+06 88197.5 0 984433 76137.1 0 877151 63849.9 0 788492 52012.9 0 717498 40836.8 0 663163 30213.7 0 624776 19969.8 0 601886 9939.98 0 594277 0 0 1.13126e+06 -115434 0 1.54538e+06 -162068 0 1.69558e+06 -45323.2 0 1.67709e+06 48127.6 0 1.56219e+06 90346.7 0 1.41023e+06 105020 0 1.25436e+06 101658 0 1.11034e+06 91847.4 0 983947 79244.2 0 876711 66463.7 0 788106 54136.6 0 717154 42505.4 0 662853 31448.7 0 624488 20786 0 601610 10346.8 0 594006 0 0 1.11724e+06 -114004 0 1.55021e+06 -167800 0 1.69864e+06 -47455.4 0 1.67871e+06 50963.7 0 1.56264e+06 93908.6 0 1.41002e+06 109410 0 1.25392e+06 105644 0 1.10981e+06 95502.6 0 983450 82347.9 0 876256 69076.9 0 787707 56258.6 0 716799 44172.9 0 662532 32682.9 0 624189 21601.7 0 601324 10753.4 0 593723 0 0 1.10104e+06 -112351 0 1.55543e+06 -173361 0 1.7018e+06 -49690 0 1.68038e+06 53936.9 0 1.56312e+06 97447 0 1.4098e+06 113839 0 1.25347e+06 109621 0 1.10927e+06 99164 0 982940 85447.9 0 875787 71689.5 0 787295 58379 0 716431 45839.3 0 662200 33916.5 0 623879 22416.8 0 601026 11159.9 0 593430 0 0 1.08249e+06 -110458 0 1.5611e+06 -178714 0 1.70504e+06 -52052.5 0 1.6821e+06 57064.9 0 1.56363e+06 100953 0 1.40957e+06 118310 0 1.25302e+06 113586 0 1.1087e+06 102833 0 982418 88543.5 0 875303 74301.8 0 786872 60497.6 0 716051 47504.6 0 661856 35149.4 0 623557 23231.3 0 600718 11566.3 0 593125 0 0 1.0614e+06 -108306 0 1.56723e+06 -183815 0 1.70836e+06 -54572.1 0 1.68389e+06 60367.8 0 1.56418e+06 104418 0 1.40933e+06 122831 0 1.25256e+06 117537 0 1.10813e+06 106511 0 981886 91634.2 0 874804 76914 0 786438 62614.3 0 715658 49168.8 0 661501 36381.6 0 623224 24045.2 0 600399 11972.6 0 592810 0 0 1.03755e+06 -105873 0 1.57388e+06 -188616 0 1.71176e+06 -57281.6 0 1.68572e+06 63867.5 0 1.56475e+06 107830 0 1.40908e+06 127408 0 1.2521e+06 121472 0 1.10753e+06 110199 0 981342 94719.4 0 874290 79526.3 0 785991 64729.1 0 715253 50832 0 661135 37613.1 0 622880 24858.5 0 600068 12378.8 0 592485 0 0 </DataArray> 
</PointData> 
<Points> 
<DataArray type="Float32" NumberOfComponents="3"> 
0.19 0.005 0 0.2022 0.005 0 0.2144 0.005 0 0.2266 0.005 0 0.2388 0.005 0 0.251 0.005 0 0.2632 0.005 0 0.2754 0.005 0 0.2876 0.005 0 0.2998 0.005 0 0.312 0.005 0 0.3242 0.005 0 0.3364 0.005 0 0.3486 0.005 0 0.3608 0.005 0 0.373 0.005 0 0.190033 0.00532667 0 0.202231 0.00532667 0 0.214429 0.00532667 0 0.226627 0.00532667 0 0.238824 0.00532667 0 0.251022 0.00532667 0 0.26322 0.00532667 0 0.275418 0.00532667 0 0.287616 0.00532667 0 0.299813 0.00532667 0 0.312011 0.00532667 0 0.324209 0.00532667 0 0.336407 0.00532667 0 0.348604 0.00532667 0 0.360802 0.00532667 0 0.373 0.00532667 0 0.190067 0.00565333 0 0.202262 0.00565333 0 0.214458 0.00565333 0 0.226653 0.00565333 0 0.238849 0.00565333 0 0.251044 0.00565333 0 0.26324 0.00565333 0 0.275436 0.00565333 0 0.287631 0.00565333 0 0.299827 0.00565333 0 0.312022 0.00565333 0 0.324218 0.00565333 0 0.336413 0.00565333 0 0.348609 0.00565333 0 0.360804 0.00565333 0 0.373 0.00565333 0 0.1901 0.00598 0 0.202293 0.00598 0 0.214487 0.00598 0 0.22668 0.00598 0 0.238873 0.00598 0 0.251067 0.00598 0 0.26326 0.00598 0 0.275453 0.00598 0 0.287647 0.00598 0 0.29984 0.00598 0 0.312033 0.00598 0 0.324227 0.00598 0 0.33642 0.00598 0 0.348613 0.00598 0 0.360807 0.00598 0 0.373 0.00598 0 0.190133 0.00630667 0 0.202324 0.00630667 0 0.214516 0.00630667 0 0.226707 0.00630667 0 0.238898 0.00630667 0 0.251089 0.00630667 0 0.26328 0.00630667 0 0.275471 0.00630667 0 0.287662 0.00630667 0 0.299853 0.00630667 0 0.312044 0.00630667 0 0.324236 0.00630667 0 0.336427 0.00630667 0 0.348618 0.00630667 0 0.360809 0.00630667 0 0.373 0.00630667 0 0.190167 0.00663333 0 0.202356 0.00663333 0 0.214544 0.00663333 0 0.226733 0.00663333 0 0.238922 0.00663333 0 0.251111 0.00663333 0 0.2633 0.00663333 0 0.275489 0.00663333 0 0.287678 0.00663333 0 0.299867 0.00663333 0 0.312056 0.00663333 0 0.324244 0.00663333 0 0.336433 0.00663333 0 0.348622 0.00663333 0 0.360811 0.00663333 0 0.373 0.00663333 0 0.1902 0.00696 0 0.202387 0.00696 0 0.214573 0.00696 0 0.22676 0.00696 0 0.238947 0.00696 0 0.251133 0.00696 0 0.26332 0.00696 0 0.275507 0.00696 0 0.287693 0.00696 0 0.29988 0.00696 0 0.312067 0.00696 0 0.324253 0.00696 0 0.33644 0.00696 0 0.348627 0.00696 0 0.360813 0.00696 0 0.373 0.00696 0 0.190233 0.00728667 0 0.202418 0.00728667 0 0.214602 0.00728667 0 0.226787 0.00728667 0 0.238971 0.00728667 0 0.251156 0.00728667 0 0.26334 0.00728667 0 0.275524 0.00728667 0 0.287709 0.00728667 0 0.299893 0.00728667 0 0.312078 0.00728667 0 0.324262 0.00728667 0 0.336447 0.00728667 0 0.348631 0.00728667 0 0.360816 0.00728667 0 0.373 0.00728667 0 0.190267 0.00761333 0 0.202449 0.00761333 0 0.214631 0.00761333 0 0.226813 0.00761333 0 0.238996 0.00761333 0 0.251178 0.00761333 0 0.26336 0.00761333 0 0.275542 0.00761333 0 0.287724 0.00761333 0 0.299907 0.00761333 0 0.312089 0.00761333 0 0.324271 0.00761333 0 0.336453 0.00761333 0 0.348636 0.00761333 0 0.360818 0.00761333 0 0.373 0.00761333 0 0.1903 0.00794 0 0.20248 0.00794 0 0.21466 0.00794 0 0.22684 0.00794 0 0.23902 0.00794 0 0.2512 0.00794 0 0.26338 0.00794 0 0.27556 0.00794 0 0.28774 0.00794 0 0.29992 0.00794 0 0.3121 0.00794 0 0.32428 0.00794 0 0.33646 0.00794 0 0.34864 0.00794 0 0.36082 0.00794 0 0.373 0.00794 0 0.190333 0.00826667 0 0.202511 0.00826667 0 0.214689 0.00826667 0 0.226867 0.00826667 0 0.239044 0.00826667 0 0.251222 0.00826667 0 0.2634 0.00826667 0 0.275578 0.00826667 0 0.287756 0.00826667 0 0.299933 0.00826667 0 0.312111 0.00826667 0 0.324289 0.00826667 0 0.336467 0.00826667 0 0.348644 0.00826667 0 0.360822 0.00826667 0 0.373 0.00826667 0 0.190367 0.00859333 0 0.202542 0.00859333 0 0.214718 0.00859333 0 0.226893 0.00859333 0 0.239069 0.00859333 0 0.251244 0.00859333 0 0.26342 0.00859333 0 0.275596 0.00859333 0 0.287771 0.00859333 0 0.299947 0.00859333 0 0.312122 0.00859333 0 0.324298 0.00859333 0 0.336473 0.00859333 0 0.348649 0.00859333 0 0.360824 0.00859333 0 0.373 0.00859333 0 0.1904 0.00892 0 0.202573 0.00892 0 0.214747 0.00892 0 0.22692 0.00892 0 0.239093 0.00892 0 0.251267 0.00892 0 0.26344 0.00892 0 0.275613 0.00892 0 0.287787 0.00892 0 0.29996 0.00892 0 0.312133 0.00892 0 0.324307 0.00892 0 0.33648 0.00892 0 0.348653 0.00892 0 0.360827 0.00892 0 0.373 0.00892 0 0.190433 0.00924667 0 0.202604 0.00924667 0 0.214776 0.00924667 0 0.226947 0.00924667 0 0.239118 0.00924667 0 0.251289 0.00924667 0 0.26346 0.00924667 0 0.275631 0.00924667 0 0.287802 0.00924667 0 0.299973 0.00924667 0 0.312144 0.00924667 0 0.324316 0.00924667 0 0.336487 0.00924667 0 0.348658 0.00924667 0 0.360829 0.00924667 0 0.373 0.00924667 0 0.190467 0.00957333 0 0.202636 0.00957333 0 0.214804 0.00957333 0 0.226973 0.00957333 0 0.239142 0.00957333 0 0.251311 0.00957333 0 0.26348 0.00957333 0 0.275649 0.00957333 0 0.287818 0.00957333 0 0.299987 0.00957333 0 0.312156 0.00957333 0 0.324324 0.00957333 0 0.336493 0.00957333 0 0.348662 0.00957333 0 0.360831 0.00957333 0 0.373 0.00957333 0 0.1905 0.0099 0 0.202667 0.0099 0 0.214833 0.0099 0 0.227 0.0099 0 0.239167 0.0099 0 0.251333 0.0099 0 0.2635 0.0099 0 0.275667 0.0099 0 0.287833 0.0099 0 0.3 0.0099 0 0.312167 0.0099 0 0.324333 0.0099 0 0.3365 0.0099 0 0.348667 0.0099 0 0.360833 0.0099 0 0.373 0.0099 0 
</DataArray>
</Points> 
</Piece> 
</StructuredGrid> 
</VTKFile> 
