<?xml version="1.0"?> 
<VTKFile type="StructuredGrid" version="0.1"> 
<StructuredGrid WholeExtent="0 15 0 15 0 0"> 
<Piece Extent="0 15 0 15 0 0"> 
<PointData>
<DataArray type="Float32" Name="E" format="ascii" NumberOfComponents="3"> 
2.52305e+06 3.47867e+06 0 2.4146e+06 3.36038e+06 0 2.3401e+06 3.28395e+06 0 2.27915e+06 3.22257e+06 0 2.22533e+06 3.16816e+06 0 2.17594e+06 3.11751e+06 0 2.12909e+06 3.06839e+06 0 2.08274e+06 3.0182e+06 0 2.03408e+06 2.9631e+06 0 1.97917e+06 2.8975e+06 0 1.9129e+06 2.81386e+06 0 1.82915e+06 2.70311e+06 0 1.72148e+06 2.55543e+06 0 1.58386e+06 2.36148e+06 0 1.41155e+06 2.11368e+06 0 1.20168e+06 1.80715e+06 0 2.04332e+06 3.75632e+06 0 2.01624e+06 3.61796e+06 0 1.97397e+06 3.49475e+06 0 1.92475e+06 3.39043e+06 0 1.8751e+06 3.30304e+06 0 1.82849e+06 3.23016e+06 0 1.78721e+06 3.17015e+06 0 1.7537e+06 3.12173e+06 0 1.73098e+06 3.08294e+06 0 1.72253e+06 3.05024e+06 0 1.73163e+06 3.01794e+06 0 1.76055e+06 2.97824e+06 0 1.80977e+06 2.92207e+06 0 1.87763e+06 2.84042e+06 0 1.96046e+06 2.72581e+06 0 2.0532e+06 2.57317e+06 0 1.71998e+06 3.81629e+06 0 1.71132e+06 3.65733e+06 0 1.68582e+06 3.51429e+06 0 1.65312e+06 3.38948e+06 0 1.62086e+06 3.28124e+06 0 1.59445e+06 3.18577e+06 0 1.57724e+06 3.09803e+06 0 1.57038e+06 3.01212e+06 0 1.57229e+06 2.92217e+06 0 1.57859e+06 2.82394e+06 0 1.5827e+06 2.71679e+06 0 1.57752e+06 2.60522e+06 0 1.55733e+06 2.49923e+06 0 1.51948e+06 2.4131e+06 0 1.46511e+06 2.36291e+06 0 1.39867e+06 2.36381e+06 0 1.46811e+06 3.81687e+06 0 1.47469e+06 3.64144e+06 0 1.46326e+06 3.48015e+06 0 1.44338e+06 3.335e+06 0 1.42278e+06 3.20302e+06 0 1.40549e+06 3.07883e+06 0 1.39154e+06 2.95688e+06 0 1.37769e+06 2.83356e+06 0 1.35914e+06 2.7089e+06 0 1.33211e+06 2.58673e+06 0 1.29601e+06 2.47286e+06 0 1.25419e+06 2.37145e+06 0 1.21251e+06 2.28122e+06 0 1.17666e+06 2.19328e+06 0 1.14957e+06 2.09152e+06 0 1.13018e+06 1.95558e+06 0 1.26123e+06 3.79298e+06 0 1.28019e+06 3.60433e+06 0 1.27853e+06 3.42697e+06 0 1.26587e+06 3.26271e+06 0 1.24876e+06 3.10856e+06 0 1.22919e+06 2.96024e+06 0 1.20559e+06 2.81534e+06 0 1.17546e+06 2.67479e+06 0 1.13814e+06 2.54197e+06 0 1.09586e+06 2.41989e+06 0 1.05228e+06 2.30871e+06 0 1.0098e+06 2.20583e+06 0 967913 2.10923e+06 0 924102 2.02251e+06 0 876646 1.95835e+06 0 827186 1.93856e+06 0 1.08597e+06 3.75982e+06 0 1.11335e+06 3.56024e+06 0 1.11765e+06 3.36864e+06 0 1.10774e+06 3.18755e+06 0 1.08917e+06 3.0153e+06 0 1.06339e+06 2.85012e+06 0 1.03012e+06 2.6925e+06 0 990037 2.54478e+06 0 945579 2.40879e+06 0 899417 2.28451e+06 0 852806 2.17119e+06 0 806074 2.06956e+06 0 760690 1.98172e+06 0 720183 1.90699e+06 0 688166 1.83575e+06 0 664819 1.74512e+06 0 933504 3.72424e+06 0 966090 3.51515e+06 0 973324 3.31084e+06 0 963458 3.11522e+06 0 941710 2.92858e+06 0 910334 2.7514e+06 0 871069 2.58546e+06 0 826511 2.43249e+06 0 779369 2.29306e+06 0 731584 2.16722e+06 0 684972 2.05529e+06 0 642029 1.95681e+06 0 604734 1.86869e+06 0 572442 1.78688e+06 0 542291 1.71301e+06 0 513100 1.66318e+06 0 798162 3.68954e+06 0 833202 3.47176e+06 0 841253 3.25579e+06 0 830135 3.0473e+06 0 805315 2.84864e+06 0 770245 2.66185e+06 0 728132 2.48903e+06 0 682225 2.3314e+06 0 635307 2.18935e+06 0 589922 2.06275e+06 0 548443 1.95026e+06 0 511948 1.84927e+06 0 479807 1.75791e+06 0 451719 1.67681e+06 0 429375 1.60544e+06 0 413792 1.53169e+06 0 675900 3.65747e+06 0 711163 3.43122e+06 0 718611 3.20408e+06 0 705857 2.98367e+06 0 678857 2.77423e+06 0 642098 2.57888e+06 0 599610 2.39981e+06 0 554977 2.23802e+06 0 511290 2.09345e+06 0 471045 1.96476e+06 0 435452 1.84971e+06 0 404590 1.74658e+06 0 378854 1.65443e+06 0 358825 1.5711e+06 0 343317 1.49342e+06 0 330711 1.42563e+06 0 563758 3.62887e+06 0 597392 3.3939e+06 0 603358 3.15556e+06 0 589161 2.92358e+06 0 561215 2.70389e+06 0 524690 2.50045e+06 0 484029 2.31552e+06 0 442975 2.14973e+06 0 404459 2.00216e+06 0 370196 1.87077e+06 0 340811 1.75347e+06 0 316763 1.6484e+06 0 298153 1.55309e+06 0 284127 1.46532e+06 0 274496 1.38484e+06 0 269910 1.30862e+06 0 459445 3.60416e+06 0 489912 3.35979e+06 0 493940 3.10979e+06 0 478895 2.86612e+06 0 451428 2.63633e+06 0 417000 2.42507e+06 0 380123 2.23455e+06 0 344345 2.0648e+06 0 312008 1.91416e+06 0 284253 1.78027e+06 0 261632 1.66062e+06 0 244227 1.55245e+06 0 231547 1.45332e+06 0 223534 1.36171e+06 0 220216 1.27553e+06 0 221038 1.19332e+06 0 361129 3.58355e+06 0 387146 3.32866e+06 0 389145 3.06617e+06 0 374166 2.8104e+06 0 348742 2.57051e+06 0 318198 2.35168e+06 0 286744 2.15587e+06 0 257380 1.98239e+06 0 231815 1.82899e+06 0 210846 1.6927e+06 0 194702 1.57028e+06 0 183134 1.45867e+06 0 176072 1.35538e+06 0 173508 1.25778e+06 0 175374 1.16348e+06 0 182455 1.07097e+06 0 267282 3.56711e+06 0 287795 3.30018e+06 0 288014 3.02404e+06 0 274306 2.75563e+06 0 252595 2.50562e+06 0 227609 2.27956e+06 0 202878 2.0789e+06 0 180661 1.90221e+06 0 162111 1.7464e+06 0 147665 1.60773e+06 0 137275 1.48235e+06 0 130845 1.36679e+06 0 128390 1.25765e+06 0 130002 1.15176e+06 0 136620 1.04629e+06 0 150022 937253 0 176587 3.55485e+06 0 190762 3.27395e+06 0 189801 2.98276e+06 0 178840 2.7011e+06 0 162587 2.44106e+06 0 144678 2.20827e+06 0 127646 2.00346e+06 0 112950 1.82417e+06 0 101241 1.66633e+06 0 92649.9 1.52532e+06 0 87114.6 1.39663e+06 0 84634.8 1.27593e+06 0 85347.2 1.15902e+06 0 90044.1 1.04155e+06 0 100424 917875 0 119817 781148 0 87859.3 3.54673e+06 0 95104.2 3.24951e+06 0 93934.3 2.94168e+06 0 87459.6 2.64622e+06 0 78446.6 2.37643e+06 0 68942.5 2.13765e+06 0 60265.1 1.92953e+06 0 53096.1 1.74833e+06 0 47670.7 1.58881e+06 0 43996.6 1.44541e+06 0 42052.2 1.31271e+06 0 41901.4 1.1854e+06 0 43901.6 1.05789e+06 0 49023.2 923106 0 59420.8 771116 0 86892.8 581393 0 0 3.54272e+06 0 0 3.22636e+06 0 0 2.90017e+06 0 0 2.59051e+06 0 0 2.3115e+06 0 0 2.06771e+06 0 0 1.85726e+06 0 0 1.67486e+06 0 0 1.51396e+06 0 0 1.36791e+06 0 0 1.23029e+06 0 0 1.09435e+06 0 0 952170 0 0 791060 0 0 583673 0 0 202400 0 </DataArray> 
</PointData> 
<Points> 
<DataArray type="Float32" NumberOfComponents="3"> 
0.186774 0.057797 0 0.187313 0.057408 0 0.187897 0.0569901 0 0.188525 0.0565447 0 0.189193 0.0560738 0 0.189899 0.0555795 0 0.190639 0.0550647 0 0.191408 0.0545321 0 0.192203 0.0539851 0 0.193018 0.0534269 0 0.193849 0.0528612 0 0.194689 0.0522914 0 0.195533 0.0517212 0 0.196377 0.0511539 0 0.197215 0.0505929 0 0.198043 0.0500413 0 0.186856 0.0614106 0 0.188192 0.0610947 0 0.189589 0.0607467 0 0.191039 0.0603675 0 0.192537 0.0599584 0 0.194074 0.0595211 0 0.195643 0.0590575 0 0.197235 0.05857 0 0.198841 0.0580614 0 0.200451 0.0575346 0 0.202056 0.0569926 0 0.203648 0.0564388 0 0.205216 0.0558765 0 0.206754 0.0553091 0 0.208253 0.0547398 0 0.209707 0.0541719 0 0.186938 0.0650241 0 0.18907 0.0647745 0 0.191274 0.0644903 0 0.193541 0.0641718 0 0.195861 0.0638199 0 0.198221 0.0634357 0 0.200611 0.0630208 0 0.203017 0.062577 0 0.205427 0.0621065 0 0.207828 0.0616119 0 0.210208 0.0610959 0 0.212553 0.0605615 0 0.214853 0.0600117 0 0.217095 0.0594498 0 0.219271 0.058879 0 0.221371 0.0583025 0 0.187019 0.0686376 0 0.189946 0.0684475 0 0.192954 0.0682209 0 0.196032 0.0679577 0 0.199165 0.0676584 0 0.20234 0.0673238 0 0.205542 0.0669549 0 0.208755 0.0665532 0 0.211963 0.0661206 0 0.215151 0.0656591 0 0.218304 0.0651712 0 0.221405 0.0646596 0 0.224442 0.0641269 0 0.2274 0.0635762 0 0.230268 0.0630106 0 0.233035 0.062433 0 0.187101 0.0722511 0 0.19082 0.0721138 0 0.194628 0.0719386 0 0.19851 0.0717253 0 0.202449 0.0714742 0 0.206431 0.0711855 0 0.210436 0.0708601 0 0.214448 0.0704992 0 0.218449 0.0701041 0 0.222421 0.0696767 0 0.226345 0.069219 0 0.230205 0.0687334 0 0.233985 0.0682222 0 0.23767 0.0676883 0 0.241245 0.0671345 0 0.244698 0.0665636 0 0.187183 0.0758647 0 0.191693 0.0757732 0 0.196296 0.0756434 0 0.200976 0.0754748 0 0.205714 0.0752673 0 0.210494 0.0750211 0 0.215295 0.0747368 0 0.220099 0.0744152 0 0.224886 0.0740574 0 0.229637 0.0736649 0 0.234332 0.0732395 0 0.238953 0.072783 0 0.243483 0.0722978 0 0.247904 0.0717862 0 0.252202 0.0712508 0 0.256362 0.0706942 0 0.187265 0.0794782 0 0.192564 0.079426 0 0.197959 0.0793355 0 0.20343 0.0792063 0 0.20896 0.0790381 0 0.21453 0.078831 0 0.220119 0.0785853 0 0.225707 0.0783016 0 0.231274 0.0779808 0 0.2368 0.0776241 0 0.242265 0.0772329 0 0.247649 0.0768088 0 0.252934 0.0763539 0 0.258103 0.07587 0 0.263138 0.0753595 0 0.268026 0.0748248 0 0.187346 0.0830917 0 0.193434 0.083072 0 0.199615 0.0830149 0 0.205873 0.0829199 0 0.212187 0.0827867 0 0.218539 0.0826153 0 0.224907 0.0824058 0 0.231273 0.0821587 0 0.237615 0.0818746 0 0.243912 0.0815545 0 0.250145 0.0811995 0 0.256294 0.080811 0 0.262341 0.0803905 0 0.268266 0.0799397 0 0.274055 0.0794607 0 0.27969 0.0789554 0 0.187428 0.0867053 0 0.194302 0.0867113 0 0.201267 0.0866816 0 0.208304 0.0866157 0 0.215395 0.0865133 0 0.222521 0.0863743 0 0.229661 0.0861987 0 0.236797 0.0859868 0 0.243907 0.0857392 0 0.250972 0.0854565 0 0.257973 0.0851396 0 0.264889 0.0847896 0 0.271702 0.0844078 0 0.278395 0.0839955 0 0.284951 0.0835543 0 0.291353 0.0830859 0 0.18751 0.0903188 0 0.195168 0.0903439 0 0.202912 0.0903357 0 0.210723 0.0902939 0 0.218584 0.0902181 0 0.226476 0.0901082 0 0.234381 0.0899643 0 0.24228 0.0897864 0 0.250153 0.0895749 0 0.257982 0.0893304 0 0.265748 0.0890535 0 0.273433 0.088745 0 0.281019 0.0884059 0 0.288489 0.0880373 0 0.295827 0.0876404 0 0.303017 0.0872165 0 0.187591 0.0939323 0 0.196033 0.0939698 0 0.204552 0.0939773 0 0.213131 0.0939546 0 0.221754 0.0939014 0 0.230405 0.0938174 0 0.239067 0.0937028 0 0.247721 0.0935576 0 0.256352 0.093382 0 0.264941 0.0931765 0 0.273472 0.0929414 0 0.281927 0.0926773 0 0.290292 0.092385 0 0.298549 0.0920653 0 0.306683 0.091719 0 0.314681 0.0913471 0 0.187673 0.0975459 0 0.196896 0.0975891 0 0.206186 0.0976065 0 0.215527 0.097598 0 0.224906 0.0975632 0 0.234309 0.0975021 0 0.243719 0.0974146 0 0.253123 0.0973008 0 0.262505 0.0971609 0 0.27185 0.096995 0 0.281144 0.0968035 0 0.290372 0.0965868 0 0.29952 0.0963453 0 0.308574 0.0960795 0 0.31752 0.0957901 0 0.326345 0.0954777 0 0.187755 0.101159 0 0.197758 0.101202 0 0.207814 0.101223 0 0.217912 0.101224 0 0.22804 0.101204 0 0.238186 0.101162 0 0.248338 0.1011 0 0.258484 0.101016 0 0.268612 0.100912 0 0.27871 0.100786 0 0.288766 0.10064 0 0.298768 0.100474 0 0.308705 0.100287 0 0.318564 0.10008 0 0.328336 0.0998537 0 0.338009 0.0996083 0 0.187837 0.104773 0 0.198618 0.104808 0 0.209437 0.104828 0 0.220286 0.104833 0 0.231156 0.104823 0 0.242038 0.104799 0 0.252924 0.104759 0 0.263806 0.104705 0 0.274675 0.104635 0 0.285521 0.104551 0 0.296338 0.104452 0 0.307116 0.104338 0 0.317846 0.10421 0 0.328521 0.104067 0 0.339133 0.10391 0 0.349672 0.103739 0 0.187918 0.108386 0 0.199476 0.108407 0 0.211055 0.10842 0 0.222649 0.108425 0 0.234253 0.108422 0 0.245865 0.108411 0 0.257478 0.108392 0 0.269089 0.108366 0 0.280693 0.108331 0 0.292285 0.108289 0 0.30386 0.108238 0 0.315415 0.10818 0 0.326944 0.108114 0 0.338444 0.10804 0 0.34991 0.107959 0 0.361336 0.107869 0 0.188 0.112 0 0.200333 0.112 0 0.212667 0.112 0 0.225 0.112 0 0.237333 0.112 0 0.249667 0.112 0 0.262 0.112 0 0.274333 0.112 0 0.286667 0.112 0 0.299 0.112 0 0.311333 0.112 0 0.323667 0.112 0 0.336 0.112 0 0.348333 0.112 0 0.360667 0.112 0 0.373 0.112 0 
</DataArray>
</Points> 
</Piece> 
</StructuredGrid> 
</VTKFile> 
