<?xml version="1.0"?> 
<VTKFile type="StructuredGrid" version="0.1"> 
<StructuredGrid WholeExtent="0 15 0 15 0 0"> 
<Piece Extent="0 15 0 15 0 0"> 
<PointData>
<DataArray type="Float32" Name="E" format="ascii" NumberOfComponents="3"> 
-4.65499e+06 -392207 0 -3.6018e+06 -797645 0 -2.96454e+06 -385478 0 -2.797e+06 -102111 0 -2.77565e+06 43414 0 -2.77265e+06 153540 0 -2.79129e+06 270838 0 -2.84202e+06 383781 0 -2.9163e+06 501689 0 -3.00953e+06 622023 0 -3.13107e+06 710569 0 -3.27577e+06 971734 0 -3.50942e+06 1.1059e+06 0 -3.79569e+06 1.04319e+06 0 -4.60528e+06 2.31834e+06 0 -8.95691e+06 2.85922e+07 0 -3.13368e+06 -1.09645e+06 0 -2.77023e+06 -421324 0 -2.73726e+06 -71829.4 0 -2.74664e+06 79336.7 0 -2.74673e+06 183461 0 -2.76851e+06 295899 0 -2.82068e+06 411099 0 -2.89169e+06 522292 0 -2.978e+06 634082 0 -3.08653e+06 776742 0 -3.21012e+06 916546 0 -3.4167e+06 1.08656e+06 0 -3.60385e+06 1.45686e+06 0 -4.20567e+06 1.88794e+06 0 -4.50489e+06 3.71133e+06 0 208635 2.57344e+06 0 -2.66654e+06 -203181 0 -2.71592e+06 38825.2 0 -2.72245e+06 131736 0 -2.72074e+06 224635 0 -2.74982e+06 337822 0 -2.80616e+06 451022 0 -2.87564e+06 560040 0 -2.95559e+06 671839 0 -3.0537e+06 807222 0 -3.16808e+06 945851 0 -3.33239e+06 1.13223e+06 0 -3.50573e+06 1.49229e+06 0 -3.83775e+06 1.70222e+06 0 -4.06592e+06 3.11836e+06 0 -2.17109e+06 4.6317e+06 0 -678846 3.31613e+06 0 -2.69996e+06 114637 0 -2.6855e+06 183066 0 -2.69492e+06 284456 0 -2.73939e+06 398589 0 -2.80096e+06 506988 0 -2.86769e+06 612159 0 -2.94224e+06 723467 0 -3.03226e+06 854439 0 -3.13751e+06 1.00281e+06 0 -3.27155e+06 1.19673e+06 0 -3.42319e+06 1.50405e+06 0 -3.62366e+06 1.74087e+06 0 -3.71103e+06 2.84816e+06 0 -2.5903e+06 3.9635e+06 0 -1.07805e+06 3.43812e+06 0 -735075 2.79422e+06 0 -2.65003e+06 264005 0 -2.68818e+06 367010 0 -2.74556e+06 474593 0 -2.80568e+06 576962 0 -2.86703e+06 680206 0 -2.93692e+06 793577 0 -3.02029e+06 926702 0 -3.1157e+06 1.08378e+06 0 -3.2277e+06 1.27843e+06 0 -3.35151e+06 1.54987e+06 0 -3.46396e+06 1.85594e+06 0 -3.40702e+06 2.72608e+06 0 -2.60583e+06 3.49755e+06 0 -1.45742e+06 3.26436e+06 0 -884279 2.60236e+06 0 -638915 2.05775e+06 0 -2.70739e+06 460402 0 -2.76191e+06 567516 0 -2.81473e+06 667678 0 -2.87183e+06 771958 0 -2.93892e+06 889751 0 -3.01625e+06 1.02743e+06 0 -3.10105e+06 1.18905e+06 0 -3.19292e+06 1.38441e+06 0 -3.27879e+06 1.6495e+06 0 -3.30373e+06 2.00984e+06 0 -3.12257e+06 2.68662e+06 0 -2.46752e+06 3.17728e+06 0 -1.61496e+06 3.01333e+06 0 -1.08705e+06 2.55551e+06 0 -838211 2.12339e+06 0 -685921 1.71213e+06 0 -2.77832e+06 690725 0 -2.82796e+06 785045 0 -2.88435e+06 891145 0 -2.94883e+06 1.01475e+06 0 -3.01829e+06 1.15713e+06 0 -3.0886e+06 1.32384e+06 0 -3.15192e+06 1.52956e+06 0 -3.18015e+06 1.80785e+06 0 -3.1061e+06 2.18048e+06 0 -2.82724e+06 2.67268e+06 0 -2.26269e+06 2.93105e+06 0 -1.63389e+06 2.76331e+06 0 -1.21573e+06 2.42463e+06 0 -977901 2.06938e+06 0 -823052 1.71465e+06 0 -726474 1.38849e+06 0 -2.85164e+06 926989 0 -2.90533e+06 1.04094e+06 0 -2.96291e+06 1.17452e+06 0 -3.01732e+06 1.32429e+06 0 -3.06025e+06 1.50362e+06 0 -3.07359e+06 1.72706e+06 0 -3.01978e+06 2.00839e+06 0 -2.84494e+06 2.33208e+06 0 -2.50793e+06 2.63421e+06 0 -2.03251e+06 2.70739e+06 0 -1.58193e+06 2.52141e+06 0 -1.27655e+06 2.24979e+06 0 -1.07614e+06 1.95597e+06 0 -934463 1.65243e+06 0 -839172 1.36343e+06 0 -768875 1.08253e+06 0 -2.92342e+06 1.23543e+06 0 -2.96388e+06 1.38637e+06 0 -2.98462e+06 1.54419e+06 0 -2.97489e+06 1.73767e+06 0 -2.91139e+06 1.96061e+06 0 -2.76445e+06 2.198e+06 0 -2.51489e+06 2.41092e+06 0 -2.17643e+06 2.53161e+06 0 -1.80899e+06 2.47466e+06 0 -1.50583e+06 2.27989e+06 0 -1.29492e+06 2.04806e+06 0 -1.13759e+06 1.79777e+06 0 -1.01829e+06 1.53983e+06 0 -935253 1.29122e+06 0 -873471 1.04165e+06 0 -811696 785158 0 -2.90602e+06 1.66505e+06 0 -2.86027e+06 1.80417e+06 0 -2.77368e+06 1.98971e+06 0 -2.62571e+06 2.15824e+06 0 -2.41153e+06 2.29284e+06 0 -2.14787e+06 2.36804e+06 0 -1.87097e+06 2.34889e+06 0 -1.62423e+06 2.21993e+06 0 -1.43579e+06 2.02755e+06 0 -1.29213e+06 1.81995e+06 0 -1.17185e+06 1.60284e+06 0 -1.0791e+06 1.38653e+06 0 -1.01591e+06 1.17469e+06 0 -968179 951129 0 -912309 709372 0 -822400 465463 0 -2.5727e+06 2.00074e+06 0 -2.42708e+06 2.16425e+06 0 -2.23372e+06 2.21217e+06 0 -2.02217e+06 2.22592e+06 0 -1.81919e+06 2.19509e+06 0 -1.64297e+06 2.09628e+06 0 -1.49931e+06 1.93505e+06 0 -1.38133e+06 1.74706e+06 0 -1.27694e+06 1.55936e+06 0 -1.1888e+06 1.37758e+06 0 -1.12867e+06 1.20164e+06 0 -1.09262e+06 1.01773e+06 0 -1.06002e+06 807162 0 -1.00322e+06 571325 0 -899395 335363 0 -746246 134554 0 -2.02427e+06 2.20334e+06 0 -1.84867e+06 2.04181e+06 0 -1.71502e+06 2.0049e+06 0 -1.60595e+06 1.92843e+06 0 -1.50797e+06 1.78143e+06 0 -1.41455e+06 1.59871e+06 0 -1.32742e+06 1.42322e+06 0 -1.2562e+06 1.27222e+06 0 -1.21301e+06 1.13505e+06 0 -1.19666e+06 987831 0 -1.18608e+06 806814 0 -1.15166e+06 585842 0 -1.06814e+06 345728 0 -926541 124471 0 -741754 -41131 0 -545716 -133913 0 -1.57677e+06 1.58416e+06 0 -1.55182e+06 1.73821e+06 0 -1.48377e+06 1.5828e+06 0 -1.40287e+06 1.3607e+06 0 -1.33546e+06 1.18371e+06 0 -1.2984e+06 1.06816e+06 0 -1.29481e+06 978495 0 -1.31103e+06 866095 0 -1.31847e+06 699316 0 -1.28579e+06 478268 0 -1.19255e+06 231852 0 -1.03643e+06 4017.17 0 -835264 -165103 0 -621420 -255296 0 -428703 -271805 0 -279546 -238981 0 -1.50781e+06 1.5727e+06 0 -1.38655e+06 938212 0 -1.36073e+06 753517 0 -1.39444e+06 746887 0 -1.4473e+06 741991 0 -1.47987e+06 651515 0 -1.45958e+06 459632 0 -1.36814e+06 202026 0 -1.20675e+06 -61160.9 0 -994044 -274700 0 -759850 -404323 0 -537268 -442923 0 -352924 -408881 0 -219786 -334555 0 -135977 -251933 0 -89438 -181608 0 -1.46448e+06 -68416.1 0 -1.63923e+06 408954 0 -1.667e+06 440937 0 -1.56954e+06 219976 0 -1.37691e+06 -97390.5 0 -1.12526e+06 -396244 0 -853393 -604024 0 -596679 -693001 0 -380918 -674859 0 -220197 -582351 0 -116366 -455353 0 -60315.1 -330474 0 -36774.4 -230850 0 -30078.4 -163394 0 -28453.1 -123012 0 -25912.5 -99385.4 0 2.6226e-06 -1.08133e+07 0 -2.44472e-07 -4.87063e+06 0 -2.14204e-08 -1.36544e+06 0 1.96509e-07 369999 0 -6.51926e-08 937312 0 -7.45058e-09 842726 0 2.23517e-08 472939 0 -1.49012e-07 82465.2 0 2.5332e-07 -195355 0 -2.68221e-07 -322118 0 2.68221e-07 -324122 0 -1.3411e-07 -256981 0 1.78814e-07 -173930 0 -1.93715e-07 -108414 0 2.08616e-07 -70732 0 -1.78814e-06 -54990.9 0 </DataArray> 
</PointData> 
<Points> 
<DataArray type="Float32" NumberOfComponents="3"> 
0.016 0.021 0 0.0199333 0.021 0 0.0238667 0.021 0 0.0278 0.021 0 0.0317333 0.021 0 0.0356667 0.021 0 0.0396 0.021 0 0.0435333 0.021 0 0.0474667 0.021 0 0.0514 0.021 0 0.0553333 0.021 0 0.0592667 0.021 0 0.0632 0.021 0 0.0671333 0.021 0 0.0710667 0.021 0 0.075 0.021 0 0.0216 0.0219333 0 0.0253156 0.0219333 0 0.0290311 0.0219333 0 0.0327467 0.0219333 0 0.0364622 0.0219333 0 0.0401778 0.0219333 0 0.0438933 0.0219333 0 0.0476089 0.0219333 0 0.0513244 0.0219333 0 0.05504 0.0219333 0 0.0587556 0.0219333 0 0.0624711 0.0219333 0 0.0661867 0.0219333 0 0.0699022 0.0219333 0 0.0736178 0.0219333 0 0.0773333 0.0219333 0 0.0272 0.0228667 0 0.0306978 0.0228667 0 0.0341956 0.0228667 0 0.0376933 0.0228667 0 0.0411911 0.0228667 0 0.0446889 0.0228667 0 0.0481867 0.0228667 0 0.0516844 0.0228667 0 0.0551822 0.0228667 0 0.05868 0.0228667 0 0.0621778 0.0228667 0 0.0656756 0.0228667 0 0.0691733 0.0228667 0 0.0726711 0.0228667 0 0.0761689 0.0228667 0 0.0796667 0.0228667 0 0.0328 0.0238 0 0.03608 0.0238 0 0.03936 0.0238 0 0.04264 0.0238 0 0.04592 0.0238 0 0.0492 0.0238 0 0.05248 0.0238 0 0.05576 0.0238 0 0.05904 0.0238 0 0.06232 0.0238 0 0.0656 0.0238 0 0.06888 0.0238 0 0.07216 0.0238 0 0.07544 0.0238 0 0.07872 0.0238 0 0.082 0.0238 0 0.0384 0.0247333 0 0.0414622 0.0247333 0 0.0445244 0.0247333 0 0.0475867 0.0247333 0 0.0506489 0.0247333 0 0.0537111 0.0247333 0 0.0567733 0.0247333 0 0.0598356 0.0247333 0 0.0628978 0.0247333 0 0.06596 0.0247333 0 0.0690222 0.0247333 0 0.0720844 0.0247333 0 0.0751467 0.0247333 0 0.0782089 0.0247333 0 0.0812711 0.0247333 0 0.0843333 0.0247333 0 0.044 0.0256667 0 0.0468444 0.0256667 0 0.0496889 0.0256667 0 0.0525333 0.0256667 0 0.0553778 0.0256667 0 0.0582222 0.0256667 0 0.0610667 0.0256667 0 0.0639111 0.0256667 0 0.0667556 0.0256667 0 0.0696 0.0256667 0 0.0724444 0.0256667 0 0.0752889 0.0256667 0 0.0781333 0.0256667 0 0.0809778 0.0256667 0 0.0838222 0.0256667 0 0.0866667 0.0256667 0 0.0496 0.0266 0 0.0522267 0.0266 0 0.0548533 0.0266 0 0.05748 0.0266 0 0.0601067 0.0266 0 0.0627333 0.0266 0 0.06536 0.0266 0 0.0679867 0.0266 0 0.0706133 0.0266 0 0.07324 0.0266 0 0.0758667 0.0266 0 0.0784933 0.0266 0 0.08112 0.0266 0 0.0837467 0.0266 0 0.0863733 0.0266 0 0.089 0.0266 0 0.0552 0.0275333 0 0.0576089 0.0275333 0 0.0600178 0.0275333 0 0.0624267 0.0275333 0 0.0648356 0.0275333 0 0.0672444 0.0275333 0 0.0696533 0.0275333 0 0.0720622 0.0275333 0 0.0744711 0.0275333 0 0.07688 0.0275333 0 0.0792889 0.0275333 0 0.0816978 0.0275333 0 0.0841067 0.0275333 0 0.0865156 0.0275333 0 0.0889244 0.0275333 0 0.0913333 0.0275333 0 0.0608 0.0284667 0 0.0629911 0.0284667 0 0.0651822 0.0284667 0 0.0673733 0.0284667 0 0.0695644 0.0284667 0 0.0717556 0.0284667 0 0.0739467 0.0284667 0 0.0761378 0.0284667 0 0.0783289 0.0284667 0 0.08052 0.0284667 0 0.0827111 0.0284667 0 0.0849022 0.0284667 0 0.0870933 0.0284667 0 0.0892844 0.0284667 0 0.0914756 0.0284667 0 0.0936667 0.0284667 0 0.0664 0.0294 0 0.0683733 0.0294 0 0.0703467 0.0294 0 0.07232 0.0294 0 0.0742933 0.0294 0 0.0762667 0.0294 0 0.07824 0.0294 0 0.0802133 0.0294 0 0.0821867 0.0294 0 0.08416 0.0294 0 0.0861333 0.0294 0 0.0881067 0.0294 0 0.09008 0.0294 0 0.0920533 0.0294 0 0.0940267 0.0294 0 0.096 0.0294 0 0.072 0.0303333 0 0.0737556 0.0303333 0 0.0755111 0.0303333 0 0.0772667 0.0303333 0 0.0790222 0.0303333 0 0.0807778 0.0303333 0 0.0825333 0.0303333 0 0.0842889 0.0303333 0 0.0860444 0.0303333 0 0.0878 0.0303333 0 0.0895556 0.0303333 0 0.0913111 0.0303333 0 0.0930667 0.0303333 0 0.0948222 0.0303333 0 0.0965778 0.0303333 0 0.0983333 0.0303333 0 0.0776 0.0312667 0 0.0791378 0.0312667 0 0.0806756 0.0312667 0 0.0822133 0.0312667 0 0.0837511 0.0312667 0 0.0852889 0.0312667 0 0.0868267 0.0312667 0 0.0883644 0.0312667 0 0.0899022 0.0312667 0 0.09144 0.0312667 0 0.0929778 0.0312667 0 0.0945156 0.0312667 0 0.0960533 0.0312667 0 0.0975911 0.0312667 0 0.0991289 0.0312667 0 0.100667 0.0312667 0 0.0832 0.0322 0 0.08452 0.0322 0 0.08584 0.0322 0 0.08716 0.0322 0 0.08848 0.0322 0 0.0898 0.0322 0 0.09112 0.0322 0 0.09244 0.0322 0 0.09376 0.0322 0 0.09508 0.0322 0 0.0964 0.0322 0 0.09772 0.0322 0 0.09904 0.0322 0 0.10036 0.0322 0 0.10168 0.0322 0 0.103 0.0322 0 0.0888 0.0331333 0 0.0899022 0.0331333 0 0.0910044 0.0331333 0 0.0921067 0.0331333 0 0.0932089 0.0331333 0 0.0943111 0.0331333 0 0.0954133 0.0331333 0 0.0965156 0.0331333 0 0.0976178 0.0331333 0 0.09872 0.0331333 0 0.0998222 0.0331333 0 0.100924 0.0331333 0 0.102027 0.0331333 0 0.103129 0.0331333 0 0.104231 0.0331333 0 0.105333 0.0331333 0 0.0944 0.0340667 0 0.0952844 0.0340667 0 0.0961689 0.0340667 0 0.0970533 0.0340667 0 0.0979378 0.0340667 0 0.0988222 0.0340667 0 0.0997067 0.0340667 0 0.100591 0.0340667 0 0.101476 0.0340667 0 0.10236 0.0340667 0 0.103244 0.0340667 0 0.104129 0.0340667 0 0.105013 0.0340667 0 0.105898 0.0340667 0 0.106782 0.0340667 0 0.107667 0.0340667 0 0.1 0.035 0 0.100667 0.035 0 0.101333 0.035 0 0.102 0.035 0 0.102667 0.035 0 0.103333 0.035 0 0.104 0.035 0 0.104667 0.035 0 0.105333 0.035 0 0.106 0.035 0 0.106667 0.035 0 0.107333 0.035 0 0.108 0.035 0 0.108667 0.035 0 0.109333 0.035 0 0.11 0.035 0 
</DataArray>
</Points> 
</Piece> 
</StructuredGrid> 
</VTKFile> 
