<?xml version="1.0"?> 
<VTKFile type="StructuredGrid" version="0.1"> 
<StructuredGrid WholeExtent="0 15 0 15 0 0"> 
<Piece Extent="0 15 0 15 0 0"> 
<PointData>
<DataArray type="Float32" Name="E" format="ascii" NumberOfComponents="3"> 
809.927 1151.14 0 -92.513 93.4627 0 -52.9264 -8.1512 0 -48.351 26.8619 0 -30.8553 -2.12188 0 -20.0914 5.94545 0 -14.4677 -0.0136996 0 -9.44407 1.21657 0 -7.04388 0.0716999 0 -4.75846 0.153383 0 -3.5058 -0.0412091 0 -2.43846 -0.0688199 0 -1.7989 -0.0857466 0 -1.33857 -0.113383 0 -1.10869 -0.103411 0 -1.26449 -7.15256e-07 0 146.262 486.069 0 -71.7959 74.3637 0 -64.1122 9.44953 0 -45.9719 11.6346 0 -30.6004 0.310186 0 -19.796 2.298 0 -14.0457 -0.0127374 0 -9.38676 0.303533 0 -6.86167 -0.145703 0 -4.72056 -0.124096 0 -3.43728 -0.17666 0 -2.4174 -0.166552 0 -1.77609 -0.148276 0 -1.33214 -0.141074 0 -1.10898 -0.120733 0 -1.20887 2.87313e-07 0 -61.3953 305.272 0 -84.4713 60.8752 0 -67.6744 9.40438 0 -44.9099 4.34219 0 -29.7848 -0.660013 0 -19.3918 0.244701 0 -13.6315 -0.593985 0 -9.24813 -0.334195 0 -6.69501 -0.446546 0 -4.65483 -0.359867 0 -3.37215 -0.318052 0 -2.38761 -0.260091 0 -1.75331 -0.207567 0 -1.32259 -0.170651 0 -1.10649 -0.133673 0 -1.16503 7.54371e-08 0 -150.937 222.887 0 -99.4038 45.3756 0 -68.7293 4.14608 0 -43.755 -0.761105 0 -28.7201 -2.43127 0 -18.8673 -1.30932 0 -13.1992 -1.29632 0 -9.06117 -0.87982 0 -6.5252 -0.759017 0 -4.57324 -0.579027 0 -3.30448 -0.457391 0 -2.3525 -0.350645 0 -1.72888 -0.264465 0 -1.31082 -0.20042 0 -1.10123 -0.144431 0 -1.12916 -1.67638e-08 0 -199.386 159.412 0 -109.937 27.4165 0 -68.211 -2.83545 0 -42.1883 -5.06568 0 -27.4886 -4.31947 0 -18.234 -2.64159 0 -12.7445 -1.99979 0 -8.83686 -1.37954 0 -6.34835 -1.06438 0 -4.47909 -0.787724 0 -3.23311 -0.592547 0 -2.31295 -0.438369 0 -1.70242 -0.319291 0 -1.29707 -0.229715 0 -1.09347 -0.153983 0 -1.09884 -2.38419e-07 0 -225.441 100.202 0 -115 8.12859 0 -66.2512 -10.2966 0 -40.1684 -8.86877 0 -26.1198 -6.13089 0 -17.5115 -3.82054 0 -12.2666 -2.67383 0 -8.58226 -1.84361 0 -6.16325 -1.35818 0 -4.37416 -0.986993 0 -3.15774 -0.722999 0 -2.26934 -0.52317 0 -1.67388 -0.372157 0 -1.28139 -0.258264 0 -1.08345 -0.1628 0 -1.07236 1.86265e-07 0 -235.256 44.1993 0 -114.855 -11.2402 0 -62.9059 -17.5744 0 -37.7357 -12.2132 0 -24.6383 -7.7899 0 -16.7189 -4.86926 0 -11.7668 -3.30732 0 -8.30266 -2.27533 0 -5.96962 -1.63875 0 -4.25969 -1.177 0 -3.07832 -0.848507 0 -2.22197 -0.604944 0 -1.64322 -0.423104 0 -1.26384 -0.285924 0 -1.07142 -0.17116 0 -1.04847 2.01166e-07 0 -232.108 -7.23215 0 -110.108 -29.6313 0 -58.2936 -24.2064 0 -34.966 -15.0833 0 -23.0704 -9.25876 0 -15.8742 -5.79919 0 -11.2473 -3.89515 0 -8.00268 -2.67619 0 -5.76746 -1.90526 0 -4.13686 -1.3577 0 -2.99484 -0.96891 0 -2.1711 -0.683603 0 -1.61046 -0.472135 0 -1.24445 -0.312631 0 -1.05757 -0.179218 0 -1.02628 -4.47035e-08 0 -218.692 -52.6424 0 -101.456 -46.2144 0 -52.6065 -29.8371 0 -31.9542 -17.463 0 -21.4461 -10.5137 0 -14.9931 -6.62145 0 -10.7116 -4.43301 0 -7.68606 -3.04817 0 -5.55711 -2.15674 0 -4.00664 -1.52921 0 -2.90736 -1.08402 0 -2.11699 -0.75908 0 -1.57562 -0.519249 0 -1.22329 -0.338335 0 -1.04207 -0.18708 0 -1.00511 -1.78814e-07 0 -197.646 -90.9509 0 -89.5756 -60.3472 0 -46.1058 -34.2039 0 -28.8056 -19.3472 0 -19.7972 -11.5433 0 -14.0883 -7.34662 0 -10.1639 -4.91784 0 -7.35559 -3.39332 0 -5.33931 -2.39232 0 -3.86982 -1.69171 0 -2.81602 -1.19364 0 -2.05984 -0.831336 0 -1.53871 -0.564431 0 -1.2004 -0.363017 0 -1.02504 -0.194799 0 -0.984505 3.57628e-07 0 -171.611 -121.69 0 -75.0665 -71.5076 0 -39.1214 -37.1366 0 -25.6222 -20.7529 0 -18.1593 -12.3413 0 -13.1675 -7.98979 0 -9.61147 -5.34426 0 -7.01195 -3.71577 0 -5.11597 -2.61007 0 -3.72647 -1.84595 0 -2.72135 -1.2974 0 -1.99968 -0.900362 0 -1.49988 -0.607711 0 -1.17581 -0.386591 0 -1.0066 -0.202484 0 -0.96414 -3.27826e-07 0 -143.404 -145.063 0 -58.3683 -79.0816 0 -32.0573 -38.6741 0 -22.4988 -21.6478 0 -16.5637 -12.9492 0 -12.2376 -8.54524 0 -9.06086 -5.71809 0 -6.65539 -4.01491 0 -4.88923 -2.81027 0 -3.57641 -1.99189 0 -2.62401 -1.3952 0 -1.93644 -0.966115 0 -1.45931 -0.649098 0 -1.14952 -0.409024 0 -0.986861 -0.210176 0 -0.943836 2.38419e-07 0 -115.215 -162.943 0 -39.7877 -82.1428 0 -25.397 -39.1659 0 -19.5109 -21.8916 0 -15.0331 -13.491 0 -11.3073 -8.9654 0 -8.51672 -6.06717 0 -6.28637 -4.27999 0 -4.66138 -2.99768 0 -3.41915 -2.1278 0 -2.52495 -1.48754 0 -1.86986 -1.02844 0 -1.4173 -0.688559 0 -1.12147 -0.430369 0 -0.965947 -0.21781 0 -0.923561 -3.8743e-07 0 -86.5278 -182.975 0 -19.694 -79.2968 0 -19.655 -39.3268 0 -16.7519 -21.1602 0 -13.5334 -14.2443 0 -10.4266 -9.10416 0 -7.95313 -6.47894 0 -5.92435 -4.46792 0 -4.42324 -3.19332 0 -3.26058 -2.2448 0 -2.4217 -1.57748 0 -1.80142 -1.08672 0 -1.37332 -0.725704 0 -1.09197 -0.451333 0 -0.94387 -0.224564 0 -0.902938 1.49012e-07 0 -31.7322 -244.652 0 -0.915792 -70.5353 0 -15.0269 -38.2542 0 -14.3377 -20.1422 0 -11.9998 -14.9906 0 -9.66573 -9.04381 0 -7.32573 -6.94372 0 -5.6022 -4.57405 0 -4.15625 -3.40439 0 -3.11251 -2.33856 0 -2.30827 -1.6668 0 -1.73457 -1.14075 0 -1.32582 -0.759934 0 -1.06183 -0.472821 0 -0.920485 -0.229388 0 -0.881091 4.17233e-07 0 228.47 -591.396 0 -2.50019 -77.5087 0 -9.44629 -14.0144 0 -12.2077 -32.878 0 -10.8568 -7.81547 0 -8.66543 -13.068 0 -6.88329 -5.27081 0 -5.17204 -5.66473 0 -3.94531 -3.1478 0 -2.93046 -2.60739 0 -2.20791 -1.68819 0 -1.65818 -1.20256 0 -1.28016 -0.799786 0 -1.02884 -0.479625 0 -0.896405 -0.24953 0 -0.860275 -5.96046e-06 0 </DataArray> 
</PointData> 
<Points> 
<DataArray type="Float32" NumberOfComponents="3"> 
0.125 0.021 0 0.129 0.0216 0 0.133 0.0222 0 0.137 0.0228 0 0.141 0.0234 0 0.145 0.024 0 0.149 0.0246 0 0.153 0.0252 0 0.157 0.0258 0 0.161 0.0264 0 0.165 0.027 0 0.169 0.0276 0 0.173 0.0282 0 0.177 0.0288 0 0.181 0.0294 0 0.185 0.03 0 0.125333 0.0219333 0 0.129311 0.0224933 0 0.133289 0.0230533 0 0.137267 0.0236133 0 0.141244 0.0241733 0 0.145222 0.0247333 0 0.1492 0.0252933 0 0.153178 0.0258533 0 0.157156 0.0264133 0 0.161133 0.0269733 0 0.165111 0.0275333 0 0.169089 0.0280933 0 0.173067 0.0286533 0 0.177044 0.0292133 0 0.181022 0.0297733 0 0.185 0.0303333 0 0.125667 0.0228667 0 0.129622 0.0233867 0 0.133578 0.0239067 0 0.137533 0.0244267 0 0.141489 0.0249467 0 0.145444 0.0254667 0 0.1494 0.0259867 0 0.153356 0.0265067 0 0.157311 0.0270267 0 0.161267 0.0275467 0 0.165222 0.0280667 0 0.169178 0.0285867 0 0.173133 0.0291067 0 0.177089 0.0296267 0 0.181044 0.0301467 0 0.185 0.0306667 0 0.126 0.0238 0 0.129933 0.02428 0 0.133867 0.02476 0 0.1378 0.02524 0 0.141733 0.02572 0 0.145667 0.0262 0 0.1496 0.02668 0 0.153533 0.02716 0 0.157467 0.02764 0 0.1614 0.02812 0 0.165333 0.0286 0 0.169267 0.02908 0 0.1732 0.02956 0 0.177133 0.03004 0 0.181067 0.03052 0 0.185 0.031 0 0.126333 0.0247333 0 0.130244 0.0251733 0 0.134156 0.0256133 0 0.138067 0.0260533 0 0.141978 0.0264933 0 0.145889 0.0269333 0 0.1498 0.0273733 0 0.153711 0.0278133 0 0.157622 0.0282533 0 0.161533 0.0286933 0 0.165444 0.0291333 0 0.169356 0.0295733 0 0.173267 0.0300133 0 0.177178 0.0304533 0 0.181089 0.0308933 0 0.185 0.0313333 0 0.126667 0.0256667 0 0.130556 0.0260667 0 0.134444 0.0264667 0 0.138333 0.0268667 0 0.142222 0.0272667 0 0.146111 0.0276667 0 0.15 0.0280667 0 0.153889 0.0284667 0 0.157778 0.0288667 0 0.161667 0.0292667 0 0.165556 0.0296667 0 0.169444 0.0300667 0 0.173333 0.0304667 0 0.177222 0.0308667 0 0.181111 0.0312667 0 0.185 0.0316667 0 0.127 0.0266 0 0.130867 0.02696 0 0.134733 0.02732 0 0.1386 0.02768 0 0.142467 0.02804 0 0.146333 0.0284 0 0.1502 0.02876 0 0.154067 0.02912 0 0.157933 0.02948 0 0.1618 0.02984 0 0.165667 0.0302 0 0.169533 0.03056 0 0.1734 0.03092 0 0.177267 0.03128 0 0.181133 0.03164 0 0.185 0.032 0 0.127333 0.0275333 0 0.131178 0.0278533 0 0.135022 0.0281733 0 0.138867 0.0284933 0 0.142711 0.0288133 0 0.146556 0.0291333 0 0.1504 0.0294533 0 0.154244 0.0297733 0 0.158089 0.0300933 0 0.161933 0.0304133 0 0.165778 0.0307333 0 0.169622 0.0310533 0 0.173467 0.0313733 0 0.177311 0.0316933 0 0.181156 0.0320133 0 0.185 0.0323333 0 0.127667 0.0284667 0 0.131489 0.0287467 0 0.135311 0.0290267 0 0.139133 0.0293067 0 0.142956 0.0295867 0 0.146778 0.0298667 0 0.1506 0.0301467 0 0.154422 0.0304267 0 0.158244 0.0307067 0 0.162067 0.0309867 0 0.165889 0.0312667 0 0.169711 0.0315467 0 0.173533 0.0318267 0 0.177356 0.0321067 0 0.181178 0.0323867 0 0.185 0.0326667 0 0.128 0.0294 0 0.1318 0.02964 0 0.1356 0.02988 0 0.1394 0.03012 0 0.1432 0.03036 0 0.147 0.0306 0 0.1508 0.03084 0 0.1546 0.03108 0 0.1584 0.03132 0 0.1622 0.03156 0 0.166 0.0318 0 0.1698 0.03204 0 0.1736 0.03228 0 0.1774 0.03252 0 0.1812 0.03276 0 0.185 0.033 0 0.128333 0.0303333 0 0.132111 0.0305333 0 0.135889 0.0307333 0 0.139667 0.0309333 0 0.143444 0.0311333 0 0.147222 0.0313333 0 0.151 0.0315333 0 0.154778 0.0317333 0 0.158556 0.0319333 0 0.162333 0.0321333 0 0.166111 0.0323333 0 0.169889 0.0325333 0 0.173667 0.0327333 0 0.177444 0.0329333 0 0.181222 0.0331333 0 0.185 0.0333333 0 0.128667 0.0312667 0 0.132422 0.0314267 0 0.136178 0.0315867 0 0.139933 0.0317467 0 0.143689 0.0319067 0 0.147444 0.0320667 0 0.1512 0.0322267 0 0.154956 0.0323867 0 0.158711 0.0325467 0 0.162467 0.0327067 0 0.166222 0.0328667 0 0.169978 0.0330267 0 0.173733 0.0331867 0 0.177489 0.0333467 0 0.181244 0.0335067 0 0.185 0.0336667 0 0.129 0.0322 0 0.132733 0.03232 0 0.136467 0.03244 0 0.1402 0.03256 0 0.143933 0.03268 0 0.147667 0.0328 0 0.1514 0.03292 0 0.155133 0.03304 0 0.158867 0.03316 0 0.1626 0.03328 0 0.166333 0.0334 0 0.170067 0.03352 0 0.1738 0.03364 0 0.177533 0.03376 0 0.181267 0.03388 0 0.185 0.034 0 0.129333 0.0331333 0 0.133044 0.0332133 0 0.136756 0.0332933 0 0.140467 0.0333733 0 0.144178 0.0334533 0 0.147889 0.0335333 0 0.1516 0.0336133 0 0.155311 0.0336933 0 0.159022 0.0337733 0 0.162733 0.0338533 0 0.166444 0.0339333 0 0.170156 0.0340133 0 0.173867 0.0340933 0 0.177578 0.0341733 0 0.181289 0.0342533 0 0.185 0.0343333 0 0.129667 0.0340667 0 0.133356 0.0341067 0 0.137044 0.0341467 0 0.140733 0.0341867 0 0.144422 0.0342267 0 0.148111 0.0342667 0 0.1518 0.0343067 0 0.155489 0.0343467 0 0.159178 0.0343867 0 0.162867 0.0344267 0 0.166556 0.0344667 0 0.170244 0.0345067 0 0.173933 0.0345467 0 0.177622 0.0345867 0 0.181311 0.0346267 0 0.185 0.0346667 0 0.13 0.035 0 0.133667 0.035 0 0.137333 0.035 0 0.141 0.035 0 0.144667 0.035 0 0.148333 0.035 0 0.152 0.035 0 0.155667 0.035 0 0.159333 0.035 0 0.163 0.035 0 0.166667 0.035 0 0.170333 0.035 0 0.174 0.035 0 0.177667 0.035 0 0.181333 0.035 0 0.185 0.035 0 
</DataArray>
</Points> 
</Piece> 
</StructuredGrid> 
</VTKFile> 
