<?xml version="1.0"?> 
<VTKFile type="StructuredGrid" version="0.1"> 
<StructuredGrid WholeExtent="0 15 0 15 0 0"> 
<Piece Extent="0 15 0 15 0 0"> 
<PointData>
<DataArray type="Float32" Name="E" format="ascii" NumberOfComponents="3"> 
2.60362e+06 -1.07846e+06 0 2.72241e+06 -16564.6 0 2.0859e+06 79838.5 0 1.71855e+06 58422.3 0 1.4486e+06 64365.5 0 1.24185e+06 55513 0 1.08136e+06 48960.6 0 950518 41897.3 0 844485 35348.9 0 756892 29429.3 0 685331 23966.4 0 627577 18896.2 0 582782 14057.5 0 550577 9340.87 0 531091 4667.21 0 524556 0 0 3.0579e+06 -1.00005e+06 0 2.67546e+06 71251.3 0 2.06682e+06 134063 0 1.6993e+06 105570 0 1.43222e+06 104294 0 1.22792e+06 90309.7 0 1.0693e+06 80194 0 940333 69841.4 0 835897 60557.3 0 749738 51961.8 0 679423 43816.6 0 622709 35833.1 0 578737 27680.1 0 547101 19086.6 0 527894 9872.46 0 521304 0 0 3.42569e+06 -816392 0 2.63528e+06 154814 0 2.04817e+06 187752 0 1.68118e+06 151870 0 1.41635e+06 143571 0 1.21441e+06 124634 0 1.05733e+06 110972 0 930087 97395.7 0 826988 85400.5 0 742056 74160.4 0 672718 63362.8 0 616756 52499.4 0 573266 41076 0 541829 28661.1 0 522537 14980.1 0 515587 0 0 3.7093e+06 -547006 0 2.60035e+06 235209 0 2.03035e+06 240546 0 1.66421e+06 197591 0 1.40112e+06 182189 0 1.20134e+06 158547 0 1.0455e+06 141311 0 919795 124583 0 817780 109898 0 733856 96052.6 0 665226 82643.4 0 609720 68951.4 0 566366 54316.4 0 534753 38139.9 0 515003 20043.6 0 507389 0 0 3.90776e+06 -210496 0 2.5701e+06 313354 0 2.01367e+06 292176 0 1.64842e+06 243012 0 1.38663e+06 220132 0 1.18876e+06 192125 0 1.03386e+06 171227 0 909477 151434 0 808301 134071 0 725156 117671 0 656967 101703 0 601619 85251.9 0 558050 67481.5 0 525872 47608.3 0 505276 25124.4 0 496677 0 0 4.01899e+06 173672 0 2.54448e+06 390039 0 1.99836e+06 342546 0 1.63381e+06 288349 0 1.37298e+06 257414 0 1.17665e+06 225444 0 1.02246e+06 200740 0 899155 177983 0 798588 157947 0 715986 139050 0 647977 120588 0 592487 101468 0 548348 80658.7 0 515195 57162.1 0 493331 30294.2 0 483401 0 0 4.0415e+06 584385 0 2.52367e+06 465928 0 1.98461e+06 391785 0 1.62039e+06 333702 0 1.3603e+06 294116 0 1.16503e+06 258556 0 1.01137e+06 229888 0 888848 204264 0 788682 181553 0 706385 160227 0 638306 139348 0 582378 117670 0 537307 93943.1 0 502742 66912.4 0 479134 35641.4 0 467479 0 0 3.97582e+06 998913 0 2.50787e+06 541548 0 1.97254e+06 440239 0 1.60814e+06 379046 0 1.34867e+06 330385 0 1.1539e+06 291482 0 1.00064e+06 258722 0 878581 230304 0 778633 204920 0 696400 181234 0 628020 158029 0 571364 133928 0 524996 107438 0 488545 76989.1 0 462638 41278.9 0 448784 0 0 3.82523e+06 1.39356e+06 0 2.49719e+06 617289 0 1.96221e+06 488418 0 1.59713e+06 424258 0 1.33815e+06 366434 0 1.14327e+06 324213 0 990326 287313 0 868383 256123 0 768494 228083 0 686090 202103 0 617195 176677 0 559536 150311 0 511506 121251 0 472649 87547.3 0 443774 47357.3 0 427118 0 0 3.59613e+06 1.74465e+06 0 2.49158e+06 693415 0 1.95358e+06 536909 0 1.58743e+06 469168 0 1.32874e+06 402499 0 1.1332e+06 356726 0 980447 315741 0 858295 281736 0 758315 251073 0 675520 222857 0 605923 195328 0 547006 166881 0 496958 135499 0 455124 98773.1 0 422445 54086 0 402175 0 0 3.29781e+06 2.02957e+06 0 2.49086e+06 770081 0 1.94658e+06 586272 0 1.57918e+06 513627 0 1.32038e+06 438805 0 1.12375e+06 389003 0 971015 344082 0 848366 307157 0 748145 273919 0 664763 243514 0 594302 214010 0 533904 183690 0 481504 150294 0 436079 110889 0 398523 61768.6 0 373455 0 0 2.94179e+06 2.2276e+06 0 2.49471e+06 847345 0 1.94111e+06 636960 0 1.57253e+06 557566 0 1.31299e+06 475528 0 1.115e+06 421049 0 962021 372400 0 838653 332402 0 738027 296645 0 653900 264084 0 582437 232742 0 520379 200776 0 465332 165746 0 415677 124160 0 371840 70862.2 0 340113 0 0 2.54104e+06 2.32026e+06 0 2.50286e+06 925170 0 1.93704e+06 689269 0 1.56761e+06 601023 0 1.30649e+06 512773 0 1.10704e+06 452907 0 953445 400737 0 829218 357496 0 727999 319263 0 643011 284569 0 570434 251524 0 506595 218157 0 448672 181943 0 394176 138887 0 342231 82075.3 0 300571 0 0 2.10895e+06 2.29118e+06 0 2.51518e+06 1.00339e+06 0 1.93428e+06 743347 0 1.56453e+06 644142 0 1.30077e+06 550572 0 1.09996e+06 484656 0 945265 429114 0 820119 382467 0 718091 341780 0 632176 304970 0 558401 270341 0 492722 235830 0 431796 198931 0 371963 155410 0 309688 96513.1 0 251426 0 0 1.65849e+06 2.12521e+06 0 2.53191e+06 1.08163e+06 0 1.93273e+06 799258 0 1.56336e+06 687128 0 1.29576e+06 588911 0 1.09382e+06 516400 0 937455 457535 0 811414 407356 0 708329 364186 0 621470 325287 0 546438 289140 0 478925 253805 0 415034 216629 0 349526 174146 0 275035 115830 0 183891 0 0 1.20168e+06 1.80715e+06 0 2.55392e+06 1.15926e+06 0 1.93226e+06 857078 0 1.56414e+06 730185 0 1.29139e+06 627752 0 1.08867e+06 548254 0 929989 485984 0 803157 432217 0 698728 386442 0 610963 345567 0 534643 307770 0 465321 272227 0 398864 234581 0 327083 195878 0 242469 142083 0 71677.5 0 0 </DataArray> 
</PointData> 
<Points> 
<DataArray type="Float32" NumberOfComponents="3"> 
0.2018 0.0378 0 0.213213 0.0378 0 0.224627 0.0378 0 0.23604 0.0378 0 0.247453 0.0378 0 0.258867 0.0378 0 0.27028 0.0378 0 0.281693 0.0378 0 0.293107 0.0378 0 0.30452 0.0378 0 0.315933 0.0378 0 0.327347 0.0378 0 0.33876 0.0378 0 0.350173 0.0378 0 0.361587 0.0378 0 0.373 0.0378 0 0.202138 0.0387128 0 0.213677 0.0389852 0 0.225194 0.0392571 0 0.23669 0.0395285 0 0.248164 0.0397994 0 0.259618 0.0400698 0 0.27105 0.0403397 0 0.282461 0.0406091 0 0.293851 0.0408781 0 0.305221 0.0411465 0 0.316569 0.0414144 0 0.327897 0.0416818 0 0.339204 0.0419488 0 0.35049 0.0422152 0 0.361755 0.0424812 0 0.373 0.0427467 0 0.202399 0.0396353 0 0.214049 0.0401856 0 0.225659 0.0407339 0 0.237229 0.0412804 0 0.248759 0.041825 0 0.260248 0.0423677 0 0.271698 0.0429085 0 0.283109 0.0434475 0 0.294481 0.0439846 0 0.305813 0.0445199 0 0.317107 0.0450533 0 0.328362 0.0455849 0 0.339579 0.0461147 0 0.350757 0.0466427 0 0.361897 0.0471689 0 0.373 0.0476933 0 0.202578 0.0405622 0 0.214326 0.0413948 0 0.226017 0.0422233 0 0.237652 0.0430479 0 0.24923 0.0438684 0 0.260753 0.044685 0 0.27222 0.0454977 0 0.283633 0.0463065 0 0.294991 0.0471115 0 0.306294 0.0479126 0 0.317544 0.0487098 0 0.328741 0.0495033 0 0.339884 0.0502931 0 0.350975 0.0510791 0 0.362013 0.0518614 0 0.373 0.05264 0 0.202672 0.0414879 0 0.214503 0.0426062 0 0.226263 0.0437177 0 0.237954 0.0448227 0 0.249575 0.045921 0 0.261127 0.0470129 0 0.272612 0.0480984 0 0.284028 0.0491774 0 0.295378 0.0502502 0 0.306661 0.0513166 0 0.317879 0.0523769 0 0.329031 0.0534309 0 0.340119 0.0544789 0 0.351143 0.0555208 0 0.362103 0.0565567 0 0.373 0.0575867 0 0.202677 0.0424068 0 0.214576 0.0438128 0 0.226393 0.0452093 0 0.238131 0.0465962 0 0.249788 0.0479738 0 0.261368 0.0493421 0 0.272869 0.0507011 0 0.284293 0.0520511 0 0.295641 0.053392 0 0.306913 0.054724 0 0.31811 0.0560472 0 0.329233 0.0573616 0 0.340283 0.0586673 0 0.351261 0.0599644 0 0.362166 0.0612531 0 0.373 0.0625333 0 0.202592 0.0433129 0 0.214543 0.0450077 0 0.226405 0.04669 0 0.23818 0.0483599 0 0.249868 0.0500175 0 0.261471 0.051663 0 0.272989 0.0532966 0 0.284424 0.0549183 0 0.295777 0.0565282 0 0.307047 0.0581266 0 0.318236 0.0597135 0 0.329346 0.061289 0 0.340376 0.0628533 0 0.351328 0.0644065 0 0.362202 0.0659487 0 0.373 0.06748 0 0.202417 0.0442005 0 0.214403 0.0461838 0 0.226297 0.0481518 0 0.2381 0.0501048 0 0.249812 0.0520429 0 0.261436 0.0539663 0 0.272972 0.0558752 0 0.284422 0.0577697 0 0.295785 0.0596499 0 0.307063 0.0615161 0 0.318257 0.0633684 0 0.329368 0.065207 0 0.340397 0.0670319 0 0.351345 0.0688434 0 0.362212 0.0706416 0 0.373 0.0724267 0 0.202152 0.045064 0 0.214157 0.0473341 0 0.226069 0.0495869 0 0.23789 0.0518224 0 0.249621 0.0540409 0 0.261263 0.0562425 0 0.272817 0.0584275 0 0.284284 0.0605961 0 0.295665 0.0627483 0 0.30696 0.0648845 0 0.318172 0.0670047 0 0.3293 0.0691092 0 0.340347 0.0711982 0 0.351311 0.0732717 0 0.362195 0.0753301 0 0.373 0.0773733 0 0.201799 0.0458979 0 0.213805 0.0484521 0 0.225722 0.0509875 0 0.237552 0.0535042 0 0.249295 0.0560024 0 0.260952 0.0584824 0 0.272524 0.0609442 0 0.284012 0.0633883 0 0.295417 0.0658146 0 0.30674 0.0682235 0 0.317981 0.0706151 0 0.329143 0.0729896 0 0.340224 0.0753471 0 0.351227 0.0776879 0 0.362152 0.0800122 0 0.373 0.08232 0 0.20136 0.0466973 0 0.213351 0.0495315 0 0.22526 0.0523464 0 0.237088 0.0551421 0 0.248836 0.0579189 0 0.260504 0.0606769 0 0.272095 0.0634164 0 0.283607 0.0661375 0 0.295043 0.0688404 0 0.306402 0.0715253 0 0.317686 0.0741924 0 0.328895 0.0768419 0 0.34003 0.0794739 0 0.351092 0.0820885 0 0.362082 0.0846861 0 0.373 0.0872667 0 0.200839 0.0474578 0 0.212798 0.0505666 0 0.224685 0.0536568 0 0.236501 0.0567286 0 0.248247 0.0597821 0 0.259924 0.0628177 0 0.271532 0.0658353 0 0.283071 0.0688351 0 0.294543 0.0718174 0 0.305948 0.0747822 0 0.317286 0.0777297 0 0.328558 0.0806601 0 0.339765 0.0835735 0 0.350908 0.0864701 0 0.361986 0.08935 0 0.373 0.0922133 0 0.200242 0.0481754 0 0.212151 0.0515522 0 0.224002 0.0549126 0 0.235796 0.0582567 0 0.247533 0.0615847 0 0.259214 0.0648967 0 0.270839 0.0681928 0 0.282407 0.071473 0 0.293921 0.0747376 0 0.30538 0.0779867 0 0.316784 0.0812202 0 0.328134 0.0844384 0 0.33943 0.0876414 0 0.350673 0.0908293 0 0.361863 0.0940021 0 0.373 0.09716 0 0.199572 0.0488468 0 0.211416 0.0524839 0 0.223218 0.0561084 0 0.234979 0.0597203 0 0.2467 0.0633197 0 0.25838 0.0669067 0 0.27002 0.0704813 0 0.28162 0.0740437 0 0.29318 0.0775937 0 0.3047 0.0811316 0 0.316181 0.0846574 0 0.327622 0.0881711 0 0.339025 0.0916728 0 0.350388 0.0951626 0 0.361713 0.0986406 0 0.373 0.102107 0 0.198837 0.0494694 0 0.210599 0.0533581 0 0.222338 0.0572396 0 0.234056 0.061114 0 0.245752 0.0649811 0 0.257427 0.0688412 0 0.26908 0.0726941 0 0.280712 0.0765399 0 0.292322 0.0803786 0 0.303911 0.0842103 0 0.315479 0.088035 0 0.327025 0.0918526 0 0.338551 0.0956632 0 0.350055 0.0994669 0 0.361538 0.103264 0 0.373 0.107053 0 0.198043 0.0500413 0 0.209707 0.0541719 0 0.221371 0.0583025 0 0.233035 0.062433 0 0.244698 0.0665636 0 0.256362 0.0706942 0 0.268026 0.0748248 0 0.27969 0.0789554 0 0.291353 0.0830859 0 0.303017 0.0872165 0 0.314681 0.0913471 0 0.326345 0.0954777 0 0.338009 0.0996083 0 0.349672 0.103739 0 0.361336 0.107869 0 0.373 0.112 0 
</DataArray>
</Points> 
</Piece> 
</StructuredGrid> 
</VTKFile> 
