<?xml version="1.0"?> 
<VTKFile type="StructuredGrid" version="0.1"> 
<StructuredGrid WholeExtent="0 15 0 15 0 0"> 
<Piece Extent="0 15 0 15 0 0"> 
<PointData>
<DataArray type="Float32" Name="E" format="ascii" NumberOfComponents="3"> 
-6.24839e+06 -150250 0 -6.58394e+06 1.09118e+06 0 -6.48829e+06 2.28006e+06 0 -6.08836e+06 3.26228e+06 0 -5.53197e+06 3.99353e+06 0 -4.93223e+06 4.50235e+06 0 -4.35357e+06 4.84265e+06 0 -3.82341e+06 5.0654e+06 0 -3.34796e+06 5.20937e+06 0 -2.92339e+06 5.30081e+06 0 -2.54204e+06 5.35593e+06 0 -2.19551e+06 5.38343e+06 0 -1.8759e+06 5.38605e+06 0 -1.57619e+06 5.36059e+06 0 -1.28937e+06 5.29246e+06 0 -1.00552e+06 5.13047e+06 0 -4.51891e+06 1.3294e+06 0 -4.63817e+06 1.80762e+06 0 -4.66032e+06 2.33519e+06 0 -4.56275e+06 2.87333e+06 0 -4.34863e+06 3.37471e+06 0 -4.04656e+06 3.80278e+06 0 -3.6954e+06 4.14279e+06 0 -3.32908e+06 4.39866e+06 0 -2.9702e+06 4.5835e+06 0 -2.63097e+06 4.71175e+06 0 -2.31676e+06 4.79528e+06 0 -2.02976e+06 4.84229e+06 0 -1.77158e+06 4.85789e+06 0 -1.54532e+06 4.84558e+06 0 -1.35633e+06 4.81023e+06 0 -1.20704e+06 4.76483e+06 0 -3.74716e+06 1.73661e+06 0 -3.81916e+06 2.04251e+06 0 -3.83758e+06 2.39349e+06 0 -3.78424e+06 2.77028e+06 0 -3.65213e+06 3.14448e+06 0 -3.44981e+06 3.48737e+06 0 -3.19761e+06 3.77939e+06 0 -2.91919e+06 4.01343e+06 0 -2.63468e+06 4.19189e+06 0 -2.35835e+06 4.3218e+06 0 -2.09934e+06 4.41124e+06 0 -1.86343e+06 4.46775e+06 0 -1.6544e+06 4.49834e+06 0 -1.47442e+06 4.51004e+06 0 -1.32358e+06 4.5101e+06 0 -1.20206e+06 4.50465e+06 0 -3.28747e+06 1.89605e+06 0 -3.33275e+06 2.13546e+06 0 -3.34129e+06 2.41046e+06 0 -3.29808e+06 2.70997e+06 0 -3.19485e+06 3.01454e+06 0 -3.03463e+06 3.302e+06 0 -2.83055e+06 3.55481e+06 0 -2.60044e+06 3.76398e+06 0 -2.36141e+06 3.9285e+06 0 -2.12691e+06 4.05237e+06 0 -1.90638e+06 4.14189e+06 0 -1.7058e+06 4.20404e+06 0 -1.52841e+06 4.24573e+06 0 -1.37515e+06 4.27336e+06 0 -1.2451e+06 4.2924e+06 0 -1.13475e+06 4.30706e+06 0 -2.96789e+06 1.97234e+06 0 -2.99889e+06 2.17237e+06 0 -2.99961e+06 2.4044e+06 0 -2.95784e+06 2.65923e+06 0 -2.86644e+06 2.92127e+06 0 -2.72694e+06 3.17225e+06 0 -2.54925e+06 3.39683e+06 0 -2.34797e+06 3.58619e+06 0 -2.13786e+06 3.73832e+06 0 -1.93113e+06 3.85597e+06 0 -1.73649e+06 3.94448e+06 0 -1.5593e+06 4.01009e+06 0 -1.40211e+06 4.0589e+06 0 -1.26524e+06 4.09625e+06 0 -1.14742e+06 4.1263e+06 0 -1.04733e+06 4.15192e+06 0 -2.73067e+06 2.00368e+06 0 -2.75084e+06 2.18044e+06 0 -2.74441e+06 2.38553e+06 0 -2.70118e+06 2.61159e+06 0 -2.61496e+06 2.84548e+06 0 -2.48677e+06 3.07143e+06 0 -2.3249e+06 3.27583e+06 0 -2.14192e+06 3.45047e+06 0 -1.95092e+06 3.59308e+06 0 -1.7629e+06 3.70585e+06 0 -1.5857e+06 3.79345e+06 0 -1.42401e+06 3.86138e+06 0 -1.2799e+06 3.91491e+06 0 -1.15351e+06 3.95844e+06 0 -1.04383e+06 3.99525e+06 0 -949001 4.02765e+06 0 -2.54564e+06 2.01195e+06 0 -2.55676e+06 2.172e+06 0 -2.54375e+06 2.35867e+06 0 -2.49776e+06 2.56508e+06 0 -2.41344e+06 2.77946e+06 0 -2.29166e+06 2.98775e+06 0 -2.13972e+06 3.17763e+06 0 -1.96884e+06 3.34153e+06 0 -1.7908e+06 3.47721e+06 0 -1.61558e+06 3.58651e+06 0 -1.45024e+06 3.6736e+06 0 -1.29892e+06 3.74334e+06 0 -1.16341e+06 3.80028e+06 0 -1.04382e+06 3.84812e+06 0 -939244 3.8896e+06 0 -848495 3.92652e+06 0 -2.39695e+06 2.00435e+06 0 -2.39958e+06 2.15291e+06 0 -2.38007e+06 2.32666e+06 0 -2.33056e+06 2.51918e+06 0 -2.24629e+06 2.71967e+06 0 -2.12808e+06 2.91524e+06 0 -1.98252e+06 3.09461e+06 0 -1.81981e+06 3.25075e+06 0 -1.65071e+06 3.38153e+06 0 -1.48433e+06 3.48858e+06 0 -1.32708e+06 3.57562e+06 0 -1.18272e+06 3.647e+06 0 -1.05283e+06 3.70671e+06 0 -937586 3.75794e+06 0 -836264 3.80299e+06 0 -747747 3.84344e+06 0 -2.2745e+06 1.98577e+06 0 -2.26867e+06 2.12625e+06 0 -2.24267e+06 2.29095e+06 0 -2.18921e+06 2.47364e+06 0 -2.10388e+06 2.66415e+06 0 -1.98746e+06 2.85054e+06 0 -1.84598e+06 3.02231e+06 0 -1.68882e+06 3.17294e+06 0 -1.52591e+06 3.30039e+06 0 -1.36564e+06 3.40615e+06 0 -1.21388e+06 3.4936e+06 0 -1.0741e+06 3.56667e+06 0 -947808 3.62891e+06 0 -835211 3.68312e+06 0 -735761 3.73135e+06 0 -648588 3.7749e+06 0 -2.17139e+06 1.95851e+06 0 -2.15716e+06 2.09394e+06 0 -2.12467e+06 2.25256e+06 0 -2.06698e+06 2.42839e+06 0 -1.9799e+06 2.61181e+06 0 -1.86409e+06 2.7916e+06 0 -1.72513e+06 2.95795e+06 0 -1.57172e+06 3.10475e+06 0 -1.41306e+06 3.23009e+06 0 -1.25693e+06 3.33535e+06 0 -1.10882e+06 3.42364e+06 0 -971939 3.49855e+06 0 -847758 3.56331e+06 0 -736577 3.62046e+06 0 -638003 3.6718e+06 0 -551331 3.71851e+06 0 -2.08285e+06 1.92437e+06 0 -2.06027e+06 2.05719e+06 0 -2.02135e+06 2.21212e+06 0 -1.9593e+06 2.3834e+06 0 -1.87004e+06 2.56192e+06 0 -1.75406e+06 2.7371e+06 0 -1.61653e+06 2.89969e+06 0 -1.46555e+06 3.04397e+06 0 -1.30972e+06 3.16815e+06 0 -1.15632e+06 3.27355e+06 0 -1.01047e+06 3.36306e+06 0 -875236 3.44004e+06 0 -752068 3.50747e+06 0 -641360 3.56769e+06 0 -542884 3.62238e+06 0 -456112 3.67261e+06 0 -2.00527e+06 1.8845e+06 0 -1.97457e+06 2.01692e+06 0 -1.92938e+06 2.17012e+06 0 -1.86297e+06 2.3387e+06 0 -1.77125e+06 2.51404e+06 0 -1.65455e+06 2.68613e+06 0 -1.51766e+06 2.84625e+06 0 -1.36815e+06 2.98903e+06 0 -1.2141e+06 3.11282e+06 0 -1.06234e+06 3.21888e+06 0 -917717 3.30997e+06 0 -783163 3.38928e+06 0 -660138 3.45962e+06 0 -549145 3.52323e+06 0 -450118 3.58168e+06 0 -362715 3.636e+06 0 -1.93599e+06 1.83997e+06 0 -1.89756e+06 1.97383e+06 0 -1.84634e+06 2.12695e+06 0 -1.77563e+06 2.29432e+06 0 -1.68131e+06 2.46784e+06 0 -1.56353e+06 2.63806e+06 0 -1.42671e+06 2.79674e+06 0 -1.27794e+06 2.93882e+06 0 -1.12485e+06 3.06282e+06 0 -973891 3.16998e+06 0 -829668 3.263e+06 0 -695015 3.34491e+06 0 -571417 3.41848e+06 0 -459488 3.48587e+06 0 -359339 3.54866e+06 0 -270826 3.60787e+06 0 -1.87305e+06 1.79158e+06 0 -1.82736e+06 1.92849e+06 0 -1.77044e+06 2.0829e+06 0 -1.69557e+06 2.2503e+06 0 -1.59859e+06 2.42311e+06 0 -1.47946e+06 2.59242e+06 0 -1.34227e+06 2.75047e+06 0 -1.19369e+06 2.89251e+06 0 -1.04092e+06 3.01722e+06 0 -890094 3.12586e+06 0 -745599 3.22109e+06 0 -610195 3.30592e+06 0 -485400 3.38307e+06 0 -371950 3.45475e+06 0 -270138 3.52257e+06 0 -180044 3.58764e+06 0 -1.81492e+06 1.7401e+06 0 -1.76258e+06 1.8814e+06 0 -1.70031e+06 2.03824e+06 0 -1.62147e+06 2.20667e+06 0 -1.52184e+06 2.37967e+06 0 -1.40118e+06 2.54886e+06 0 -1.26329e+06 2.70694e+06 0 -1.11446e+06 2.84947e+06 0 -961503 2.97529e+06 0 -810250 3.08574e+06 0 -664917 3.18347e+06 0 -528192 3.27151e+06 0 -401634 3.35265e+06 0 -286102 3.42917e+06 0 -182087 3.50283e+06 0 -89925.9 3.57491e+06 0 -1.76049e+06 1.68615e+06 0 -1.70214e+06 1.83295e+06 0 -1.63495e+06 1.99318e+06 0 -1.55234e+06 2.16348e+06 0 -1.45009e+06 2.33741e+06 0 -1.3278e+06 2.50713e+06 0 -1.18896e+06 2.66576e+06 0 -1.03952e+06 2.80921e+06 0 -885947 2.93648e+06 0 -733804 3.049e+06 0 -587137 3.1495e+06 0 -448575 3.24107e+06 0 -319715 3.32661e+06 0 -201541 3.4086e+06 0 -94758.9 3.48904e+06 0 -2.00144 3.56947e+06 0 </DataArray> 
</PointData> 
<Points> 
<DataArray type="Float32" NumberOfComponents="3"> 
0.0999907 0.0519165 0 0.10004 0.0525992 0 0.100229 0.0533265 0 0.100568 0.0540907 0 0.101066 0.0548814 0 0.101724 0.0556865 0 0.102538 0.0564919 0 0.103501 0.0572831 0 0.104597 0.0580453 0 0.105806 0.0587647 0 0.107104 0.059429 0 0.108466 0.0600285 0 0.109864 0.0605563 0 0.111273 0.0610083 0 0.112669 0.0613833 0 0.114031 0.0616826 0 0.0978446 0.0526221 0 0.098023 0.0535102 0 0.0983501 0.054449 0 0.0988349 0.0554283 0 0.0994823 0.0564355 0 0.100293 0.0574556 0 0.10126 0.0584723 0 0.102374 0.0594683 0 0.103618 0.0604263 0 0.10497 0.0613304 0 0.106408 0.0621663 0 0.107904 0.0629227 0 0.109433 0.0635914 0 0.110967 0.0641673 0 0.112484 0.0646488 0 0.113962 0.0650371 0 0.0956986 0.0533277 0 0.0960161 0.0544167 0 0.0964893 0.0555607 0 0.0971249 0.0567477 0 0.0979257 0.0579632 0 0.0988895 0.0591902 0 0.100009 0.0604105 0 0.101272 0.0616048 0 0.10266 0.0627543 0 0.104153 0.0638413 0 0.105726 0.0648501 0 0.107353 0.0657679 0 0.109007 0.0665852 0 0.110664 0.0672961 0 0.112299 0.067898 0 0.113894 0.0683916 0 0.0935525 0.0540332 0 0.0940192 0.0553186 0 0.0946462 0.0566618 0 0.0954381 0.0580494 0 0.0963953 0.0594652 0 0.0975137 0.0608912 0 0.0987844 0.0623076 0 0.100194 0.0636943 0 0.101724 0.0650311 0 0.103353 0.0662991 0 0.105057 0.0674818 0 0.10681 0.0685652 0 0.108587 0.0695385 0 0.110364 0.0703949 0 0.112116 0.0711308 0 0.113825 0.0717461 0 0.0914065 0.0547388 0 0.0920322 0.0562161 0 0.0928206 0.0577525 0 0.0937738 0.0593335 0 0.0948904 0.0609422 0 0.0961643 0.0625595 0 0.0975855 0.0641652 0 0.0991393 0.0657383 0 0.100808 0.0672583 0 0.102569 0.0687057 0 0.1044 0.0700631 0 0.106277 0.0713158 0 0.108173 0.0724523 0 0.110066 0.0734644 0 0.111934 0.0743476 0 0.113756 0.0751006 0 0.0892604 0.0554444 0 0.0900552 0.057109 0 0.0910123 0.0588328 0 0.0921318 0.0606005 0 0.0934103 0.0623947 0 0.0948406 0.0641961 0 0.0964113 0.0659843 0 0.0981076 0.0677383 0 0.0999114 0.0694375 0 0.101802 0.0710624 0 0.103757 0.0725953 0 0.105752 0.0740209 0 0.107765 0.0753271 0 0.109772 0.0765048 0 0.111752 0.0775483 0 0.113687 0.0784551 0 0.0871144 0.0561499 0 0.088088 0.0579976 0 0.089221 0.059903 0 0.0905115 0.0618508 0 0.0919546 0.0638235 0 0.0935417 0.0658019 0 0.0952611 0.0677662 0 0.0970978 0.0696957 0 0.0990342 0.0715703 0 0.10105 0.0733709 0 0.103125 0.0750798 0 0.105236 0.0766817 0 0.107362 0.078164 0 0.10948 0.0795167 0 0.111572 0.0807331 0 0.113619 0.0818096 0 0.0849683 0.0568555 0 0.0861305 0.0588817 0 0.0874464 0.0609632 0 0.0889125 0.0630846 0 0.0905225 0.0652289 0 0.0922671 0.0673778 0 0.0941343 0.0695119 0 0.0961093 0.0716118 0 0.0981754 0.0736582 0 0.100314 0.0756326 0 0.102505 0.077518 0 0.104728 0.0792992 0 0.106964 0.0809635 0 0.109191 0.0825003 0 0.111392 0.0839022 0 0.11355 0.0851641 0 0.0828223 0.0575611 0 0.0841828 0.0597614 0 0.0856884 0.0620134 0 0.0873344 0.0643023 0 0.0891135 0.0666117 0 0.0910161 0.0689245 0 0.0930301 0.0712227 0 0.0951415 0.073488 0 0.0973346 0.0757025 0 0.0995924 0.0778489 0 0.101897 0.0799111 0 0.104229 0.0818745 0 0.106571 0.0837264 0 0.108905 0.0854561 0 0.111214 0.0870555 0 0.113481 0.0885186 0 0.0806763 0.0582666 0 0.0822446 0.0606368 0 0.0839467 0.063054 0 0.0857768 0.0655042 0 0.0877271 0.0679724 0 0.0897879 0.070443 0 0.0919478 0.0728995 0 0.0941936 0.0753255 0 0.0965112 0.0777046 0 0.0988851 0.0800212 0 0.101299 0.0822604 0 0.103738 0.0844085 0 0.106184 0.0864534 0 0.108621 0.0883846 0 0.111036 0.0901933 0 0.113412 0.091873 0 0.0785302 0.0589722 0 0.0803159 0.061508 0 0.0822211 0.0640849 0 0.0842393 0.0666905 0 0.0863627 0.0693115 0 0.0885821 0.0719338 0 0.0908867 0.0745432 0 0.0932651 0.0771253 0 0.0957046 0.0796658 0 0.0981918 0.0821508 0 0.100713 0.0845671 0 0.103254 0.0869023 0 0.105801 0.0891453 0 0.10834 0.0912859 0 0.110859 0.0933157 0 0.113344 0.0952275 0 0.0763842 0.0596777 0 0.0783968 0.0623748 0 0.0805114 0.0651064 0 0.0827215 0.0678617 0 0.0850198 0.0706294 0 0.0873979 0.0733979 0 0.0898464 0.076155 0 0.0923554 0.0788888 0 0.0949143 0.0815874 0 0.0975119 0.084239 0 0.100137 0.0868323 0 0.102778 0.0893569 0 0.105423 0.0918026 0 0.108062 0.0941606 0 0.110683 0.0964228 0 0.113275 0.098582 0 0.0742381 0.0603833 0 0.076487 0.0632374 0 0.0788172 0.0661185 0 0.0812231 0.0690179 0 0.0836979 0.0719268 0 0.0862348 0.0748358 0 0.0888261 0.0777357 0 0.0914639 0.080617 0 0.0941398 0.0834704 0 0.0968452 0.0862868 0 0.0995714 0.0890572 0 0.102309 0.091773 0 0.105051 0.0944262 0 0.107786 0.097009 0 0.110507 0.0995146 0 0.113206 0.101937 0 0.0720921 0.0610889 0 0.0745865 0.0640958 0 0.0771386 0.0671214 0 0.0797435 0.0701596 0 0.0823965 0.073204 0 0.0850922 0.0762484 0 0.0878253 0.0792862 0 0.09059 0.0823109 0 0.0933807 0.0853162 0 0.0961912 0.0882955 0 0.0990157 0.0912427 0 0.101848 0.0941517 0 0.104682 0.0970165 0 0.107513 0.0998315 0 0.110333 0.102591 0 0.113137 0.105291 0 0.069946 0.0617944 0 0.0726953 0.06495 0 0.0754751 0.0681152 0 0.0782826 0.0712868 0 0.0811151 0.0744616 0 0.0839697 0.0776363 0 0.0868435 0.0808074 0 0.0897334 0.0839716 0 0.0926364 0.0871257 0 0.0955496 0.0902662 0 0.0984698 0.09339 0 0.101394 0.0964937 0 0.104319 0.0995742 0 0.107242 0.102628 0 0.110159 0.105653 0 0.113069 0.108646 0 0.0678 0.0625 0 0.0708133 0.0658 0 0.0738267 0.0691 0 0.07684 0.0724 0 0.0798533 0.0757 0 0.0828667 0.079 0 0.08588 0.0823 0 0.0888933 0.0856 0 0.0919067 0.0889 0 0.09492 0.0922 0 0.0979333 0.0955 0 0.100947 0.0988 0 0.10396 0.1021 0 0.106973 0.1054 0 0.109987 0.1087 0 0.113 0.112 0 
</DataArray>
</Points> 
</Piece> 
</StructuredGrid> 
</VTKFile> 
