<?xml version="1.0"?> 
<VTKFile type="StructuredGrid" version="0.1"> 
<StructuredGrid WholeExtent="0 15 0 15 0 0"> 
<Piece Extent="0 15 0 15 0 0"> 
<PointData>
<DataArray type="Float32" Name="E" format="ascii" NumberOfComponents="3"> 
-1.00552e+06 5.13047e+06 0 -811099 4.71043e+06 0 -681389 4.66009e+06 0 -553757 4.70269e+06 0 -412457 4.77266e+06 0 -251282 4.85429e+06 0 -65225.2 4.93107e+06 0 149278 4.99541e+06 0 395124 5.03781e+06 0 674132 5.04906e+06 0 986122 5.01709e+06 0 1.32726e+06 4.92678e+06 0 1.68711e+06 4.75876e+06 0 2.04427e+06 4.48949e+06 0 2.35675e+06 4.08715e+06 0 2.52305e+06 3.47867e+06 0 -1.19886e+06 4.765e+06 0 -850015 4.61396e+06 0 -672433 4.59306e+06 0 -525581 4.63005e+06 0 -379691 4.69075e+06 0 -222469 4.75544e+06 0 -47789.1 4.81372e+06 0 147761 4.85681e+06 0 365866 4.87747e+06 0 606282 4.86806e+06 0 866346 4.82051e+06 0 1.14001e+06 4.72616e+06 0 1.41657e+06 4.57646e+06 0 1.67901e+06 4.36426e+06 0 1.90157e+06 4.08685e+06 0 2.04461e+06 3.7563e+06 0 -1.19816e+06 4.50473e+06 0 -858302 4.49626e+06 0 -657249 4.51104e+06 0 -500170 4.55369e+06 0 -353073 4.60817e+06 0 -201666 4.66188e+06 0 -39066.5 4.7062e+06 0 138187 4.73423e+06 0 331167 4.74002e+06 0 538870 4.71797e+06 0 757983 4.66288e+06 0 982594 4.57023e+06 0 1.20392e+06 4.43703e+06 0 1.41031e+06 4.26297e+06 0 1.58748e+06 4.0523e+06 0 1.7198e+06 3.81629e+06 0 -1.13467e+06 4.30706e+06 0 -835962 4.3755e+06 0 -633849 4.42306e+06 0 -474800 4.47462e+06 0 -330247 4.52702e+06 0 -186384 4.57361e+06 0 -36200.4 4.60829e+06 0 123709 4.62587e+06 0 294254 4.62185e+06 0 474300 4.5923e+06 0 660725 4.53405e+06 0 848504 4.44506e+06 0 1.03092e+06 4.32504e+06 0 1.20013e+06 4.17617e+06 0 1.34808e+06 4.00378e+06 0 1.46814e+06 3.81687e+06 0 -1.04673e+06 4.15193e+06 0 -792268 4.26182e+06 0 -601959 4.33453e+06 0 -447849 4.39554e+06 0 -309307 4.4485e+06 0 -174515 4.49103e+06 0 -36947.9 4.51944e+06 0 106637 4.53014e+06 0 257153 4.51992e+06 0 413628 4.48618e+06 0 573435 4.42714e+06 0 732538 4.34222e+06 0 885903 4.23239e+06 0 1.02814e+06 4.10058e+06 0 1.15434e+06 3.95183e+06 0 1.26116e+06 3.79298e+06 0 -949085 4.02765e+06 0 -735035 4.15909e+06 0 -562685 4.24931e+06 0 -418492 4.31879e+06 0 -288821 4.37375e+06 0 -164391 4.41448e+06 0 -39562.2 4.4392e+06 0 88634 4.44567e+06 0 221137 4.43182e+06 0 357237 4.39605e+06 0 494844 4.33752e+06 0 630804 4.25648e+06 0 761332 4.1545e+06 0 882596 4.03462e+06 0 991420 3.90125e+06 0 1.08593e+06 3.75982e+06 0 -848410 3.92652e+06 0 -669597 4.06826e+06 0 -517573 4.16983e+06 0 -386451 4.24619e+06 0 -267783 4.30376e+06 0 -154738 4.34423e+06 0 -42716.9 4.36715e+06 0 70883.4 4.37139e+06 0 186998 4.35572e+06 0 305168 4.31932e+06 0 423790 4.262e+06 0 540423 4.18449e+06 0 652188 4.0886e+06 0 756265 3.97724e+06 0 850423 3.85431e+06 0 933462 3.72424e+06 0 -747775 3.84344e+06 0 -599412 3.98906e+06 0 -468073 4.09751e+06 0 -351767 4.17908e+06 0 -245544 4.23934e+06 0 -144626 4.28052e+06 0 -45434 4.303e+06 0 54218.3 4.30641e+06 0 155217 4.29021e+06 0 257303 4.2541e+06 0 359273 4.19835e+06 0 459243 4.12397e+06 0 554992 4.03284e+06 0 644370 3.92771e+06 0 725708 3.81202e+06 0 798127 3.68954e+06 0 -648580 3.7749e+06 0 -526621 3.92081e+06 0 -415355 4.03302e+06 0 -314626 4.11832e+06 0 -221708 4.18109e+06 0 -133394 4.22354e+06 0 -47010.4 4.24651e+06 0 39212.4 4.2501e+06 0 126071 4.23424e+06 0 213449 4.19903e+06 0 300453 4.14502e+06 0 385628 4.07337e+06 0 467238 3.98599e+06 0 543595 3.88544e+06 0 613378 3.77482e+06 0 675873 3.65747e+06 0 -551337 3.71851e+06 0 -452505 3.86274e+06 0 -360276 3.97663e+06 0 -275254 4.06446e+06 0 -196051 4.12942e+06 0 -120595 4.17344e+06 0 -46955.6 4.19748e+06 0 26249.9 4.20194e+06 0 99704.1 4.18702e+06 0 173380 4.1531e+06 0 246622 4.10088e+06 0 318305 4.03162e+06 0 387058 3.94717e+06 0 451526 3.84997e+06 0 510628 3.74285e+06 0 563735 3.62887e+06 0 -456112 3.67261e+06 0 -377775 3.81413e+06 0 -303419 3.92837e+06 0 -233856 4.01781e+06 0 -168459 4.08462e+06 0 -105935 4.13031e+06 0 -44937.7 4.15579e+06 0 15577.5 4.16156e+06 0 76170 4.148e+06 0 136863 4.1156e+06 0 197180 4.06515e+06 0 256255 3.99794e+06 0 313004 3.91578e+06 0 366329 3.82095e+06 0 415324 3.71614e+06 0 459426 3.60416e+06 0 -362717 3.636e+06 0 -302774 3.77437e+06 0 -245145 3.88812e+06 0 -190587 3.9785e+06 0 -138872 4.04683e+06 0 -89225.9 4.0942e+06 0 -40739.2 4.12133e+06 0 7345.36 4.12872e+06 0 55465.7 4.11677e+06 0 103669 4.08602e+06 0 151614 4.03729e+06 0 198647 3.97183e+06 0 243918 3.89139e+06 0 286548 3.79814e+06 0 325782 3.69463e+06 0 361112 3.58355e+06 0 -270829 3.60787e+06 0 -227602 3.74296e+06 0 -185645 3.85573e+06 0 -145545 3.94657e+06 0 -107260 4.01615e+06 0 -70346.4 4.06512e+06 0 -34221.1 4.09401e+06 0 1637.69 4.1032e+06 0 37552.8 4.09304e+06 0 73576.8 4.06402e+06 0 109478 4.01693e+06 0 144780 3.95294e+06 0 178845 3.87372e+06 0 210990 3.78135e+06 0 240609 3.67828e+06 0 267267 3.56711e+06 0 -180047 3.58764e+06 0 -152202 3.7195e+06 0 -124984 3.83102e+06 0 -98775.3 3.92199e+06 0 -73597.6 3.99258e+06 0 -49218.4 4.04309e+06 0 -25295.2 4.07379e+06 0 -1502.12 4.08489e+06 0 22375.8 4.07662e+06 0 46384.7 4.04938e+06 0 70382.4 4.00384e+06 0 94054.7 3.94107e+06 0 116966 3.86262e+06 0 138634 3.77049e+06 0 158614 3.66704e+06 0 176573 3.55485e+06 0 -89927.8 3.57491e+06 0 -76411 3.70371e+06 0 -63132.6 3.81383e+06 0 -50273.6 3.90471e+06 0 -37856.7 3.97613e+06 0 -25785.2 4.02809e+06 0 -13903 4.0606e+06 0 -2052.76 4.07369e+06 0 9875.18 4.06741e+06 0 21910.6 4.04198e+06 0 33987.8 3.99792e+06 0 45948.8 3.93613e+06 0 57565.8 3.85803e+06 0 68578.5 3.76551e+06 0 78738.3 3.66089e+06 0 87849.9 3.54673e+06 0 0 3.56947e+06 0 0 3.69538e+06 0 0 3.80406e+06 0 0 3.89467e+06 0 0 3.96678e+06 0 0 4.0201e+06 0 0 4.05443e+06 0 0 4.06956e+06 0 0 4.06535e+06 0 0 4.04178e+06 0 0 3.99914e+06 0 0 3.93812e+06 0 0 3.85997e+06 0 0 3.76645e+06 0 0 3.65983e+06 0 0 3.54272e+06 0 </DataArray> 
</PointData> 
<Points> 
<DataArray type="Float32" NumberOfComponents="3"> 
0.114031 0.0616826 0 0.120956 0.0629592 0 0.127585 0.0640165 0 0.133917 0.0648543 0 0.139953 0.0654728 0 0.145692 0.0658719 0 0.151134 0.0660516 0 0.15628 0.066012 0 0.16113 0.0657529 0 0.165683 0.0652745 0 0.169939 0.0645767 0 0.173899 0.0636595 0 0.177563 0.062523 0 0.18093 0.061167 0 0.184 0.0595917 0 0.186774 0.057797 0 0.113962 0.0650371 0 0.120759 0.0662286 0 0.127279 0.0672154 0 0.133522 0.0679974 0 0.139489 0.0685746 0 0.145179 0.0689471 0 0.150592 0.0691149 0 0.155728 0.0690778 0 0.160588 0.0688361 0 0.165171 0.0683895 0 0.169477 0.0677383 0 0.173506 0.0668822 0 0.177259 0.0658214 0 0.180735 0.0645559 0 0.183934 0.0630856 0 0.186856 0.0614106 0 0.113894 0.0683916 0 0.120562 0.069498 0 0.126973 0.0704143 0 0.133128 0.0711404 0 0.139026 0.0716764 0 0.144666 0.0720223 0 0.15005 0.0721781 0 0.155176 0.0721437 0 0.160046 0.0719192 0 0.164658 0.0715046 0 0.169014 0.0708998 0 0.173113 0.0701049 0 0.176954 0.0691199 0 0.180539 0.0679448 0 0.183867 0.0665795 0 0.186938 0.0650241 0 0.113825 0.0717461 0 0.120365 0.0727674 0 0.126668 0.0736132 0 0.132734 0.0742835 0 0.138562 0.0747783 0 0.144153 0.0750975 0 0.149507 0.0752413 0 0.154624 0.0752096 0 0.159504 0.0750023 0 0.164146 0.0746196 0 0.168551 0.0740614 0 0.172719 0.0733276 0 0.17665 0.0724184 0 0.180344 0.0713336 0 0.1838 0.0700734 0 0.187019 0.0686376 0 0.113756 0.0751006 0 0.120168 0.0760368 0 0.126362 0.0768121 0 0.132339 0.0774265 0 0.138099 0.0778801 0 0.143641 0.0781727 0 0.148965 0.0783045 0 0.154072 0.0782754 0 0.158962 0.0780855 0 0.163634 0.0777346 0 0.168089 0.0772229 0 0.172326 0.0765503 0 0.176346 0.0757168 0 0.180149 0.0747225 0 0.183734 0.0735673 0 0.187101 0.0722511 0 0.113687 0.0784551 0 0.119971 0.0793062 0 0.126057 0.080011 0 0.131945 0.0805696 0 0.137635 0.0809819 0 0.143128 0.0812479 0 0.148423 0.0813678 0 0.15352 0.0813413 0 0.15842 0.0811686 0 0.163122 0.0808497 0 0.167626 0.0803845 0 0.171933 0.079773 0 0.176042 0.0790153 0 0.179953 0.0781114 0 0.183667 0.0770611 0 0.187183 0.0758647 0 0.113619 0.0818096 0 0.119774 0.0825755 0 0.125751 0.0832099 0 0.13155 0.0837126 0 0.137172 0.0840837 0 0.142615 0.0843231 0 0.147881 0.084431 0 0.152968 0.0844072 0 0.157878 0.0842518 0 0.16261 0.0839647 0 0.167164 0.083546 0 0.17154 0.0829957 0 0.175738 0.0823138 0 0.179758 0.0815002 0 0.1836 0.080555 0 0.187265 0.0794782 0 0.11355 0.0851641 0 0.119577 0.0858449 0 0.125445 0.0864088 0 0.131156 0.0868556 0 0.136708 0.0871855 0 0.142102 0.0873984 0 0.147338 0.0874942 0 0.152416 0.0874731 0 0.157336 0.0873349 0 0.162098 0.0870797 0 0.166701 0.0867076 0 0.171146 0.0862184 0 0.175434 0.0856123 0 0.179563 0.0848891 0 0.183533 0.0840489 0 0.187346 0.0830917 0 0.113481 0.0885186 0 0.11938 0.0891143 0 0.12514 0.0896077 0 0.130761 0.0899987 0 0.136245 0.0902873 0 0.141589 0.0904736 0 0.146796 0.0905574 0 0.151864 0.0905389 0 0.156794 0.090418 0 0.161585 0.0901948 0 0.166238 0.0898691 0 0.170753 0.0894411 0 0.175129 0.0889107 0 0.179367 0.0882779 0 0.183467 0.0875428 0 0.187428 0.0867053 0 0.113412 0.091873 0 0.119182 0.0923837 0 0.124834 0.0928066 0 0.130367 0.0931417 0 0.135781 0.0933891 0 0.141077 0.0935488 0 0.146254 0.0936207 0 0.151312 0.0936048 0 0.156252 0.0935012 0 0.161073 0.0933098 0 0.165776 0.0930307 0 0.17036 0.0926638 0 0.174825 0.0922092 0 0.179172 0.0916668 0 0.1834 0.0910367 0 0.18751 0.0903188 0 0.113344 0.0952275 0 0.118985 0.0956531 0 0.124528 0.0960055 0 0.129972 0.0962848 0 0.135318 0.0964909 0 0.140564 0.096624 0 0.145711 0.0966839 0 0.15076 0.0966707 0 0.15571 0.0965843 0 0.160561 0.0964248 0 0.165313 0.0961922 0 0.169966 0.0958865 0 0.174521 0.0955077 0 0.178977 0.0950557 0 0.183333 0.0945306 0 0.187591 0.0939323 0 0.113275 0.098582 0 0.118788 0.0989225 0 0.124223 0.0992044 0 0.129578 0.0994278 0 0.134854 0.0995928 0 0.140051 0.0996992 0 0.145169 0.0997471 0 0.150208 0.0997365 0 0.155168 0.0996674 0 0.160049 0.0995399 0 0.16485 0.0993538 0 0.169573 0.0991092 0 0.174217 0.0988061 0 0.178781 0.0984445 0 0.183267 0.0980245 0 0.187673 0.0975459 0 0.113206 0.101937 0 0.118591 0.102192 0 0.123917 0.102403 0 0.129183 0.102571 0 0.134391 0.102695 0 0.139538 0.102774 0 0.144627 0.10281 0 0.149656 0.102802 0 0.154626 0.102751 0 0.159537 0.102655 0 0.164388 0.102515 0 0.16918 0.102332 0 0.173913 0.102105 0 0.178586 0.101833 0 0.1832 0.101518 0 0.187755 0.101159 0 0.113137 0.105291 0 0.118394 0.105461 0 0.123611 0.105602 0 0.128789 0.105714 0 0.133927 0.105796 0 0.139026 0.10585 0 0.144085 0.105874 0 0.149104 0.105868 0 0.154084 0.105834 0 0.159024 0.10577 0 0.163925 0.105677 0 0.168787 0.105555 0 0.173608 0.105403 0 0.178391 0.105222 0 0.183133 0.105012 0 0.187837 0.104773 0 0.113069 0.108646 0 0.118197 0.108731 0 0.123306 0.108801 0 0.128394 0.108857 0 0.133464 0.108898 0 0.138513 0.108925 0 0.143542 0.108937 0 0.148552 0.108934 0 0.153542 0.108917 0 0.158512 0.108885 0 0.163463 0.108838 0 0.168393 0.108777 0 0.173304 0.108702 0 0.178195 0.108611 0 0.183067 0.108506 0 0.187918 0.108386 0 0.113 0.112 0 0.118 0.112 0 0.123 0.112 0 0.128 0.112 0 0.133 0.112 0 0.138 0.112 0 0.143 0.112 0 0.148 0.112 0 0.153 0.112 0 0.158 0.112 0 0.163 0.112 0 0.168 0.112 0 0.173 0.112 0 0.178 0.112 0 0.183 0.112 0 0.188 0.112 0 
</DataArray>
</Points> 
</Piece> 
</StructuredGrid> 
</VTKFile> 
