<?xml version="1.0"?> 
<VTKFile type="StructuredGrid" version="0.1"> 
<StructuredGrid WholeExtent="0 15 0 15 0 0"> 
<Piece Extent="0 15 0 15 0 0"> 
<PointData>
<DataArray type="Float32" Name="E" format="ascii" NumberOfComponents="3"> 
-545056 -1.82213 0 -587904 -1.77002 0 -636293 -1.59268 0 -690444 -1.25975 0 -750548 -0.737431 0 -816740 0.00351256 0 -889073 0.976934 0 -967490 2.19959 0 -1.05179e+06 3.59732 0 -1.14159e+06 5.20963 0 -1.23633e+06 6.69512 0 -1.33521e+06 8.38937 0 -1.43726e+06 9.17589 0 -1.54131e+06 10.6699 0 -1.64605e+06 9.66713 0 -1.75015e+06 8.55583 0 -542406 40122 0 -585134 45543.1 0 -633410 51200.2 0 -687463 57071.3 0 -747497 63113.9 0 -813659 69260.7 0 -886019 75415.5 0 -964534 81450.5 0 -1.04902e+06 87206 0 -1.13911e+06 92493.6 0 -1.23423e+06 97105.1 0 -1.33362e+06 100827 0 -1.43625e+06 103459 0 -1.54095e+06 104839 0 -1.64639e+06 104863 0 -1.75116e+06 103504 0 -534457 79999.4 0 -576817 90846.8 0 -624744 102182 0 -678494 113966 0 -738303 126119 0 -804362 138508 0 -876786 150946 0 -955581 163177 0 -1.04061e+06 174878 0 -1.13155e+06 185664 0 -1.22785e+06 195105 0 -1.32873e+06 202753 0 -1.43316e+06 208185 0 -1.53986e+06 211051 0 -1.6474e+06 211129 0 -1.75426e+06 208355 0 -521212 119377 0 -562936 135657 0 -610251 152709 0 -663457 170485 0 -722848 188876 0 -788683 207696 0 -861156 226672 0 -940363 245422 0 -1.02625e+06 263457 0 -1.11858e+06 280178 0 -1.21684e+06 294903 0 -1.32027e+06 306908 0 -1.42775e+06 315495 0 -1.53791e+06 320081 0 -1.6491e+06 320275 0 -1.75959e+06 315963 0 -502683 157973 0 -543469 179687 0 -589865 202503 0 -642231 226377 0 -700940 251187 0 -766348 276712 0 -838768 302603 0 -918428 328365 0 -1.00542e+06 353334 0 -1.09962e+06 376680 0 -1.20063e+06 397425 0 -1.30769e+06 414500 0 -1.41964e+06 426847 0 -1.5349e+06 433546 0 -1.65153e+06 433985 0 -1.76742e+06 427957 0 -478899 195475 0 -518400 222605 0 -563509 251224 0 -614661 281314 0 -672325 312763 0 -736987 345335 0 -809116 378636 0 -889130 412070 0 -977324 444809 0 -1.07379e+06 475769 0 -1.17829e+06 503618 0 -1.29016e+06 526848 0 -1.40816e+06 543891 0 -1.53047e+06 553360 0 -1.65471e+06 554238 0 -1.77823e+06 546182 0 -449918 231528 0 -487733 264021 0 -531116 298459 0 -580581 334872 0 -636713 373188 0 -700149 413196 0 -771561 454495 0 -851616 496427 0 -940907 538022 0 -1.03984e+06 577933 0 -1.14849e+06 614424 0 -1.26638e+06 645399 0 -1.39228e+06 668600 0 -1.52405e+06 681847 0 -1.6587e+06 683579 0 -1.7925e+06 673143 0 -415842 265728 0 -451515 303482 0 -492650 343703 0 -539844 386501 0 -593803 431887 0 -655335 479725 0 -725352 529665 0 -804837 581057 0 -894788 632846 0 -996093 683459 0 -1.10933e+06 730700 0 -1.23444e+06 771762 0 -1.37037e+06 803320 0 -1.51468e+06 822078 0 -1.66338e+06 825273 0 -1.81179e+06 811744 0 -376835 297629 0 -409857 340465 0 -448142 386353 0 -492362 435518 0 -543337 488100 0 -602052 544101 0 -669678 603313 0 -747576 665199 0 -837263 728742 0 -940313 792236 0 -1.05811e+06 853085 0 -1.19145e+06 907575 0 -1.33982e+06 951015 0 -1.50065e+06 978038 0 -1.66885e+06 984113 0 -1.83613e+06 966839 0 -333144 326747 0 -362961 374387 0 -397723 425713 0 -438154 481096 0 -485163 540856 0 -539891 605213 0 -603763 674207 0 -678537 747571 0 -766354 824524 0 -869680 903483 0 -991161 981608 0 -1.13306e+06 1.05438e+06 0 -1.29634e+06 1.11511e+06 0 -1.47899e+06 1.15551e+06 0 -1.67402e+06 1.16689e+06 0 -1.87202e+06 1.14419e+06 0 -285114 352571 0 -311148 404619 0 -341667 461008 0 -377406 522281 0 -419318 588987 0 -468647 661638 0 -527007 740649 0 -596527 826216 0 -679961 918104 0 -780868 1.01525e+06 0 -903551 1.11516e+06 0 -1.05284e+06 1.21281e+06 0 -1.23271e+06 1.29963e+06 0 -1.44363e+06 1.36228e+06 0 -1.67869e+06 1.38511e+06 0 -1.91505e+06 1.35598e+06 0 -233201 374588 0 -254882 430516 0 -280427 491418 0 -310531 558030 0 -346125 631159 0 -388452 711670 0 -439211 800466 0 -500724 898415 0 -576265 1.00618e+06 0 -670338 1.12388e+06 0 -789312 1.25027e+06 0 -941449 1.38138e+06 0 -1.1367e+06 1.50747e+06 0 -1.38291e+06 1.60975e+06 0 -1.67489e+06 1.65762e+06 0 -1.99388e+06 1.62027e+06 0 -177986 392314 0 -194786 451450 0 -214664 516129 0 -238222 587275 0 -266270 665956 0 -299941 753414 0 -340799 851104 0 -391143 960711 0 -454283 1.08414e+06 0 -535365 1.22334e+06 0 -642108 1.37985e+06 0 -786909 1.55323e+06 0 -988101 1.73725e+06 0 -1.27009e+06 1.91035e+06 0 -1.65247e+06 2.02023e+06 0 -2.0819e+06 1.98284e+06 0 -120166 405318 0 -131639 466859 0 -145259 534398 0 -161467 609016 0 -180878 692011 0 -204340 784967 0 -233111 889865 0 -268993 1.00921e+06 0 -314908 1.14627e+06 0 -375304 1.30523e+06 0 -458154 1.49177e+06 0 -577009 1.71213e+06 0 -758405 1.97298e+06 0 -1.05262e+06 2.26666e+06 0 -1.53948e+06 2.53488e+06 0 -2.29123e+06 2.56048e+06 0 -60544.9 413265 0 -66365.9 476298 0 -73290.8 545623 0 -81557.5 622427 0 -91483.6 708166 0 -103558 804671 0 -118418 914284 0 -137194 1.0402e+06 0 -161373 1.1866e+06 0 -194024 1.36008e+06 0 -239667 1.56919e+06 0 -308845 1.83081e+06 0 -422639 2.16596e+06 0 -638064 2.62675e+06 0 -1.14477e+06 3.25466e+06 0 -2.43701e+06 3.72921e+06 0 0 415939 0 0 479480 0 0 549410 0 0 626963 0 0 713649 0 0 811363 0 0 922693 0 0 1.05073e+06 0 0 1.201e+06 0 0 1.37863e+06 0 0 1.59919e+06 0 0 1.87155e+06 0 0 2.25376e+06 0 0 2.78512e+06 0 0 3.82124e+06 0 0 7.70626e+06 0 </DataArray> 
</PointData> 
<Points> 
<DataArray type="Float32" NumberOfComponents="3"> 
0.006 0 0 0.00666667 0 0 0.00733333 0 0 0.008 0 0 0.00866667 0 0 0.00933333 0 0 0.01 0 0 0.0106667 0 0 0.0113333 0 0 0.012 0 0 0.0126667 0 0 0.0133333 0 0 0.014 0 0 0.0146667 0 0 0.0153333 0 0 0.016 0 0 0.006 0.000666667 0 0.00666667 0.000666667 0 0.00733333 0.000666667 0 0.008 0.000666667 0 0.00866667 0.000666667 0 0.00933333 0.000666667 0 0.01 0.000666667 0 0.0106667 0.000666667 0 0.0113333 0.000666667 0 0.012 0.000666667 0 0.0126667 0.000666667 0 0.0133333 0.000666667 0 0.014 0.000666667 0 0.0146667 0.000666667 0 0.0153333 0.000666667 0 0.016 0.000666667 0 0.006 0.00133333 0 0.00666667 0.00133333 0 0.00733333 0.00133333 0 0.008 0.00133333 0 0.00866667 0.00133333 0 0.00933333 0.00133333 0 0.01 0.00133333 0 0.0106667 0.00133333 0 0.0113333 0.00133333 0 0.012 0.00133333 0 0.0126667 0.00133333 0 0.0133333 0.00133333 0 0.014 0.00133333 0 0.0146667 0.00133333 0 0.0153333 0.00133333 0 0.016 0.00133333 0 0.006 0.002 0 0.00666667 0.002 0 0.00733333 0.002 0 0.008 0.002 0 0.00866667 0.002 0 0.00933333 0.002 0 0.01 0.002 0 0.0106667 0.002 0 0.0113333 0.002 0 0.012 0.002 0 0.0126667 0.002 0 0.0133333 0.002 0 0.014 0.002 0 0.0146667 0.002 0 0.0153333 0.002 0 0.016 0.002 0 0.006 0.00266667 0 0.00666667 0.00266667 0 0.00733333 0.00266667 0 0.008 0.00266667 0 0.00866667 0.00266667 0 0.00933333 0.00266667 0 0.01 0.00266667 0 0.0106667 0.00266667 0 0.0113333 0.00266667 0 0.012 0.00266667 0 0.0126667 0.00266667 0 0.0133333 0.00266667 0 0.014 0.00266667 0 0.0146667 0.00266667 0 0.0153333 0.00266667 0 0.016 0.00266667 0 0.006 0.00333333 0 0.00666667 0.00333333 0 0.00733333 0.00333333 0 0.008 0.00333333 0 0.00866667 0.00333333 0 0.00933333 0.00333333 0 0.01 0.00333333 0 0.0106667 0.00333333 0 0.0113333 0.00333333 0 0.012 0.00333333 0 0.0126667 0.00333333 0 0.0133333 0.00333333 0 0.014 0.00333333 0 0.0146667 0.00333333 0 0.0153333 0.00333333 0 0.016 0.00333333 0 0.006 0.004 0 0.00666667 0.004 0 0.00733333 0.004 0 0.008 0.004 0 0.00866667 0.004 0 0.00933333 0.004 0 0.01 0.004 0 0.0106667 0.004 0 0.0113333 0.004 0 0.012 0.004 0 0.0126667 0.004 0 0.0133333 0.004 0 0.014 0.004 0 0.0146667 0.004 0 0.0153333 0.004 0 0.016 0.004 0 0.006 0.00466667 0 0.00666667 0.00466667 0 0.00733333 0.00466667 0 0.008 0.00466667 0 0.00866667 0.00466667 0 0.00933333 0.00466667 0 0.01 0.00466667 0 0.0106667 0.00466667 0 0.0113333 0.00466667 0 0.012 0.00466667 0 0.0126667 0.00466667 0 0.0133333 0.00466667 0 0.014 0.00466667 0 0.0146667 0.00466667 0 0.0153333 0.00466667 0 0.016 0.00466667 0 0.006 0.00533333 0 0.00666667 0.00533333 0 0.00733333 0.00533333 0 0.008 0.00533333 0 0.00866667 0.00533333 0 0.00933333 0.00533333 0 0.01 0.00533333 0 0.0106667 0.00533333 0 0.0113333 0.00533333 0 0.012 0.00533333 0 0.0126667 0.00533333 0 0.0133333 0.00533333 0 0.014 0.00533333 0 0.0146667 0.00533333 0 0.0153333 0.00533333 0 0.016 0.00533333 0 0.006 0.006 0 0.00666667 0.006 0 0.00733333 0.006 0 0.008 0.006 0 0.00866667 0.006 0 0.00933333 0.006 0 0.01 0.006 0 0.0106667 0.006 0 0.0113333 0.006 0 0.012 0.006 0 0.0126667 0.006 0 0.0133333 0.006 0 0.014 0.006 0 0.0146667 0.006 0 0.0153333 0.006 0 0.016 0.006 0 0.006 0.00666667 0 0.00666667 0.00666667 0 0.00733333 0.00666667 0 0.008 0.00666667 0 0.00866667 0.00666667 0 0.00933333 0.00666667 0 0.01 0.00666667 0 0.0106667 0.00666667 0 0.0113333 0.00666667 0 0.012 0.00666667 0 0.0126667 0.00666667 0 0.0133333 0.00666667 0 0.014 0.00666667 0 0.0146667 0.00666667 0 0.0153333 0.00666667 0 0.016 0.00666667 0 0.006 0.00733333 0 0.00666667 0.00733333 0 0.00733333 0.00733333 0 0.008 0.00733333 0 0.00866667 0.00733333 0 0.00933333 0.00733333 0 0.01 0.00733333 0 0.0106667 0.00733333 0 0.0113333 0.00733333 0 0.012 0.00733333 0 0.0126667 0.00733333 0 0.0133333 0.00733333 0 0.014 0.00733333 0 0.0146667 0.00733333 0 0.0153333 0.00733333 0 0.016 0.00733333 0 0.006 0.008 0 0.00666667 0.008 0 0.00733333 0.008 0 0.008 0.008 0 0.00866667 0.008 0 0.00933333 0.008 0 0.01 0.008 0 0.0106667 0.008 0 0.0113333 0.008 0 0.012 0.008 0 0.0126667 0.008 0 0.0133333 0.008 0 0.014 0.008 0 0.0146667 0.008 0 0.0153333 0.008 0 0.016 0.008 0 0.006 0.00866667 0 0.00666667 0.00866667 0 0.00733333 0.00866667 0 0.008 0.00866667 0 0.00866667 0.00866667 0 0.00933333 0.00866667 0 0.01 0.00866667 0 0.0106667 0.00866667 0 0.0113333 0.00866667 0 0.012 0.00866667 0 0.0126667 0.00866667 0 0.0133333 0.00866667 0 0.014 0.00866667 0 0.0146667 0.00866667 0 0.0153333 0.00866667 0 0.016 0.00866667 0 0.006 0.00933333 0 0.00666667 0.00933333 0 0.00733333 0.00933333 0 0.008 0.00933333 0 0.00866667 0.00933333 0 0.00933333 0.00933333 0 0.01 0.00933333 0 0.0106667 0.00933333 0 0.0113333 0.00933333 0 0.012 0.00933333 0 0.0126667 0.00933333 0 0.0133333 0.00933333 0 0.014 0.00933333 0 0.0146667 0.00933333 0 0.0153333 0.00933333 0 0.016 0.00933333 0 0.006 0.01 0 0.00666667 0.01 0 0.00733333 0.01 0 0.008 0.01 0 0.00866667 0.01 0 0.00933333 0.01 0 0.01 0.01 0 0.0106667 0.01 0 0.0113333 0.01 0 0.012 0.01 0 0.0126667 0.01 0 0.0133333 0.01 0 0.014 0.01 0 0.0146667 0.01 0 0.0153333 0.01 0 0.016 0.01 0 
</DataArray>
</Points> 
</Piece> 
</StructuredGrid> 
</VTKFile> 
