<?xml version="1.0"?> 
<VTKFile type="StructuredGrid" version="0.1"> 
<StructuredGrid WholeExtent="0 15 0 15 0 0"> 
<Piece Extent="0 15 0 15 0 0"> 
<PointData>
<DataArray type="Float32" Name="E" format="ascii" NumberOfComponents="3"> 
-1.21868e+06 0 0 -1.22345e+06 47773.8 0 -1.2447e+06 104318 0 -1.2785e+06 173069 0 -1.32034e+06 255637 0 -1.366e+06 351871 0 -1.41218e+06 460348 0 -1.45675e+06 579019 0 -1.49865e+06 705745 0 -1.53757e+06 838592 0 -1.57376e+06 975877 0 -1.6079e+06 1.11613e+06 0 -1.64121e+06 1.25802e+06 0 -1.6756e+06 1.40048e+06 0 -1.714e+06 1.54297e+06 0 -1.76047e+06 1.68613e+06 0 -1.17515e+06 0 0 -1.17763e+06 64200 0 -1.19454e+06 135573 0 -1.22273e+06 217132 0 -1.25849e+06 310398 0 -1.29834e+06 415467 0 -1.33951e+06 531375 0 -1.38011e+06 656585 0 -1.41915e+06 789400 0 -1.45636e+06 928207 0 -1.49202e+06 1.07158e+06 0 -1.527e+06 1.2183e+06 0 -1.56277e+06 1.36747e+06 0 -1.60164e+06 1.51878e+06 0 -1.64678e+06 1.67302e+06 0 -1.7021e+06 1.83291e+06 0 -1.12095e+06 0 0 -1.12183e+06 78853.2 0 -1.13549e+06 163651 0 -1.15934e+06 257072 0 -1.19036e+06 360582 0 -1.22562e+06 474466 0 -1.26275e+06 598111 0 -1.30013e+06 730380 0 -1.33688e+06 869947 0 -1.37277e+06 1.01552e+06 0 -1.40822e+06 1.16599e+06 0 -1.44421e+06 1.32055e+06 0 -1.48239e+06 1.47894e+06 0 -1.52507e+06 1.64186e+06 0 -1.57504e+06 1.81164e+06 0 -1.63495e+06 1.99318e+06 0 -1.0582e+06 0 0 -1.05799e+06 92125.9 0 -1.06918e+06 189247 0 -1.08966e+06 293785 0 -1.1169e+06 407164 0 -1.14844e+06 529823 0 -1.18226e+06 661430 0 -1.21695e+06 801181 0 -1.25176e+06 948082 0 -1.28656e+06 1.10118e+06 0 -1.32182e+06 1.25974e+06 0 -1.35857e+06 1.42349e+06 0 -1.39838e+06 1.59291e+06 0 -1.4431e+06 1.76978e+06 0 -1.49439e+06 1.95785e+06 0 -1.55241e+06 2.16354e+06 0 -988503 0 0 -987590 104303 0 -996909 212865 0 -1.01471e+06 327912 0 -1.03887e+06 450840 0 -1.06733e+06 582221 0 -1.09833e+06 721958 0 -1.13067e+06 869538 0 -1.16372e+06 1.02429e+06 0 -1.19742e+06 1.1856e+06 0 -1.23222e+06 1.35316e+06 0 -1.26905e+06 1.52724e+06 0 -1.30907e+06 1.70908e+06 0 -1.35323e+06 1.90136e+06 0 -1.40128e+06 2.10864e+06 0 -1.45022e+06 2.33753e+06 0 -913114 0 0 -911781 115588 0 -919656 234863 0 -935285 359903 0 -956882 492097 0 -982678 632132 0 -1.01119e+06 780121 0 -1.04136e+06 935814 0 -1.07266e+06 1.09884e+06 0 -1.10504e+06 1.26893e+06 0 -1.13887e+06 1.44621e+06 0 -1.17475e+06 1.63143e+06 0 -1.21317e+06 1.82642e+06 0 -1.25376e+06 2.03432e+06 0 -1.29406e+06 2.25959e+06 0 -1.32796e+06 2.50727e+06 0 -833015 0 0 -831476 126124 0 -838224 255491 0 -852041 390075 0 -871416 531272 0 -894836 679879 0 -921022 836196 0 -949065 1.00022e+06 0 -978484 1.17185e+06 0 -1.00918e+06 1.35116e+06 0 -1.04133e+06 1.5386e+06 0 -1.07507e+06 1.73534e+06 0 -1.10999e+06 1.94343e+06 0 -1.14425e+06 2.16588e+06 0 -1.17335e+06 2.40602e+06 0 -1.1891e+06 2.66589e+06 0 -749004 0 0 -747420 136010 0 -753266 274921 0 -765517 418642 0 -782890 568590 0 -804092 725667 0 -828014 890348 0 -853855 1.06285e+06 0 -881154 1.24332e+06 0 -909715 1.43209e+06 0 -939414 1.62989e+06 0 -969825 1.83802e+06 0 -999591 2.05844e+06 0 -1.02555e+06 2.29336e+06 0 -1.04179e+06 2.54416e+06 0 -1.03961e+06 2.80929e+06 0 -661745 0 0 -660234 145312 0 -665329 293270 0 -676168 445746 0 -691661 604192 0 -710700 769617 0 -732322 942654 0 -755808 1.12371e+06 0 -780684 1.31314e+06 0 -806611 1.51148e+06 0 -833135 1.71954e+06 0 -859246 1.93857e+06 0 -882744 2.16999e+06 0 -899530 2.41475e+06 0 -903204 2.67186e+06 0 -885992 2.93652e+06 0 -571800 0 0 -570446 154074 0 -574883 310608 0 -584388 471468 0 -598040 638158 0 -614891 811788 0 -634105 993135 0 -655025 1.18276e+06 0 -677148 1.38119e+06 0 -699980 1.58903e+06 0 -722741 1.80708e+06 0 -743920 2.03623e+06 0 -760717 2.27707e+06 0 -768627 2.52898e+06 0 -761642 2.78869e+06 0 -733812 3.04901e+06 0 -479658 0 0 -478517 162318 0 -482340 326972 0 -490526 495851 0 -502305 670521 0 -516877 852193 0 -533518 1.04177e+06 0 -551629 1.23995e+06 0 -570677 1.44733e+06 0 -590028 1.66453e+06 0 -608646 1.89215e+06 0 -624675 2.13053e+06 0 -635044 2.37923e+06 0 -635378 2.63598e+06 0 -620689 2.8956e+06 0 -587124 3.14949e+06 0 -385753 0 0 -384857 170052 0 -388066 342374 0 -394894 518902 0 -404710 701277 0 -416853 890812 0 -430715 1.08852e+06 0 -445755 1.29518e+06 0 -461433 1.51144e+06 0 -477030 1.73781e+06 0 -491361 1.97457e+06 0 -502444 2.22136e+06 0 -507283 2.47659e+06 0 -502074 2.73647e+06 0 -483152 2.99437e+06 0 -448554 3.24105e+06 0 -290479 0 0 -289839 177271 0 -292397 356802 0 -297774 540600 0 -305481 730397 0 -314999 927602 0 -325839 1.13332e+06 0 -337540 1.3484e+06 0 -349595 1.57346e+06 0 -361281 1.80884e+06 0 -371419 2.05437e+06 0 -378141 2.30894e+06 0 -378847 2.56976e+06 0 -370596 2.83172e+06 0 -351063 3.08712e+06 0 -319692 3.32659e+06 0 -194201 0 0 -193809 183962 0 -195639 370228 0 -199428 560905 0 -204830 757828 0 -211479 962506 0 -219023 1.17612e+06 0 -227112 1.39956e+06 0 -235331 1.63336e+06 0 -243061 1.87765e+06 0 -249308 2.13177e+06 0 -252570 2.39376e+06 0 -250914 2.65971e+06 0 -242398 2.9233e+06 0 -225847 3.17605e+06 0 -201522 3.40859e+06 0 -97263.5 0 0 -97091.3 190098 0 -98082.3 382604 0 -100095 579753 0 -102946 783499 0 -106438 995450 0 -110380 1.21686e+06 0 -114575 1.44861e+06 0 -118773 1.69119e+06 0 -122590 1.94443e+06 0 -125417 2.20717e+06 0 -126372 2.4766e+06 0 -124401 2.74767e+06 0 -118578 3.01293e+06 0 -108541 3.26318e+06 0 -94747.2 3.48903e+06 0 0 0 0 0 195648 0 0 393870 0 0 597067 0 0 807325 0 0 1.02635e+06 0 0 1.25546e+06 0 0 1.49555e+06 0 0 1.747e+06 0 0 2.00942e+06 0 0 2.2811e+06 0 0 2.55837e+06 0 0 2.83501e+06 0 0 3.10235e+06 0 0 3.35033e+06 0 0 3.56947e+06 0 </DataArray> 
</PointData> 
<Points> 
<DataArray type="Float32" NumberOfComponents="3"> 
0 0.0556667 0 0.00452 0.0561222 0 0.00904 0.0565778 0 0.01356 0.0570333 0 0.01808 0.0574889 0 0.0226 0.0579444 0 0.02712 0.0584 0 0.03164 0.0588556 0 0.03616 0.0593111 0 0.04068 0.0597667 0 0.0452 0.0602222 0 0.04972 0.0606778 0 0.05424 0.0611333 0 0.05876 0.0615889 0 0.06328 0.0620444 0 0.0678 0.0625 0 0 0.0594222 0 0.00472089 0.0598474 0 0.00944178 0.0602726 0 0.0141627 0.0606978 0 0.0188836 0.061123 0 0.0236044 0.0615481 0 0.0283253 0.0619733 0 0.0330462 0.0623985 0 0.0377671 0.0628237 0 0.042488 0.0632489 0 0.0472089 0.0636741 0 0.0519298 0.0640993 0 0.0566507 0.0645244 0 0.0613716 0.0649496 0 0.0660924 0.0653748 0 0.0708133 0.0658 0 0 0.0631778 0 0.00492178 0.0635726 0 0.00984356 0.0639674 0 0.0147653 0.0643622 0 0.0196871 0.064757 0 0.0246089 0.0651519 0 0.0295307 0.0655467 0 0.0344524 0.0659415 0 0.0393742 0.0663363 0 0.044296 0.0667311 0 0.0492178 0.0671259 0 0.0541396 0.0675207 0 0.0590613 0.0679156 0 0.0639831 0.0683104 0 0.0689049 0.0687052 0 0.0738267 0.0691 0 0 0.0669333 0 0.00512267 0.0672978 0 0.0102453 0.0676622 0 0.015368 0.0680267 0 0.0204907 0.0683911 0 0.0256133 0.0687556 0 0.030736 0.06912 0 0.0358587 0.0694844 0 0.0409813 0.0698489 0 0.046104 0.0702133 0 0.0512267 0.0705778 0 0.0563493 0.0709422 0 0.061472 0.0713067 0 0.0665947 0.0716711 0 0.0717173 0.0720356 0 0.07684 0.0724 0 0 0.0706889 0 0.00532356 0.071023 0 0.0106471 0.071357 0 0.0159707 0.0716911 0 0.0212942 0.0720252 0 0.0266178 0.0723593 0 0.0319413 0.0726933 0 0.0372649 0.0730274 0 0.0425884 0.0733615 0 0.047912 0.0736956 0 0.0532356 0.0740296 0 0.0585591 0.0743637 0 0.0638827 0.0746978 0 0.0692062 0.0750319 0 0.0745298 0.0753659 0 0.0798533 0.0757 0 0 0.0744444 0 0.00552444 0.0747481 0 0.0110489 0.0750519 0 0.0165733 0.0753556 0 0.0220978 0.0756593 0 0.0276222 0.075963 0 0.0331467 0.0762667 0 0.0386711 0.0765704 0 0.0441956 0.0768741 0 0.04972 0.0771778 0 0.0552444 0.0774815 0 0.0607689 0.0777852 0 0.0662933 0.0780889 0 0.0718178 0.0783926 0 0.0773422 0.0786963 0 0.0828667 0.079 0 0 0.0782 0 0.00572533 0.0784733 0 0.0114507 0.0787467 0 0.017176 0.07902 0 0.0229013 0.0792933 0 0.0286267 0.0795667 0 0.034352 0.07984 0 0.0400773 0.0801133 0 0.0458027 0.0803867 0 0.051528 0.08066 0 0.0572533 0.0809333 0 0.0629787 0.0812067 0 0.068704 0.08148 0 0.0744293 0.0817533 0 0.0801547 0.0820267 0 0.08588 0.0823 0 0 0.0819556 0 0.00592622 0.0821985 0 0.0118524 0.0824415 0 0.0177787 0.0826844 0 0.0237049 0.0829274 0 0.0296311 0.0831704 0 0.0355573 0.0834133 0 0.0414836 0.0836563 0 0.0474098 0.0838993 0 0.053336 0.0841422 0 0.0592622 0.0843852 0 0.0651884 0.0846281 0 0.0711147 0.0848711 0 0.0770409 0.0851141 0 0.0829671 0.085357 0 0.0888933 0.0856 0 0 0.0857111 0 0.00612711 0.0859237 0 0.0122542 0.0861363 0 0.0183813 0.0863489 0 0.0245084 0.0865615 0 0.0306356 0.0867741 0 0.0367627 0.0869867 0 0.0428898 0.0871993 0 0.0490169 0.0874119 0 0.055144 0.0876244 0 0.0612711 0.087837 0 0.0673982 0.0880496 0 0.0735253 0.0882622 0 0.0796524 0.0884748 0 0.0857796 0.0886874 0 0.0919067 0.0889 0 0 0.0894667 0 0.006328 0.0896489 0 0.012656 0.0898311 0 0.018984 0.0900133 0 0.025312 0.0901956 0 0.03164 0.0903778 0 0.037968 0.09056 0 0.044296 0.0907422 0 0.050624 0.0909244 0 0.056952 0.0911067 0 0.06328 0.0912889 0 0.069608 0.0914711 0 0.075936 0.0916533 0 0.082264 0.0918356 0 0.088592 0.0920178 0 0.09492 0.0922 0 0 0.0932222 0 0.00652889 0.0933741 0 0.0130578 0.0935259 0 0.0195867 0.0936778 0 0.0261156 0.0938296 0 0.0326444 0.0939815 0 0.0391733 0.0941333 0 0.0457022 0.0942852 0 0.0522311 0.094437 0 0.05876 0.0945889 0 0.0652889 0.0947407 0 0.0718178 0.0948926 0 0.0783467 0.0950444 0 0.0848756 0.0951963 0 0.0914044 0.0953481 0 0.0979333 0.0955 0 0 0.0969778 0 0.00672978 0.0970993 0 0.0134596 0.0972207 0 0.0201893 0.0973422 0 0.0269191 0.0974637 0 0.0336489 0.0975852 0 0.0403787 0.0977067 0 0.0471084 0.0978281 0 0.0538382 0.0979496 0 0.060568 0.0980711 0 0.0672978 0.0981926 0 0.0740276 0.0983141 0 0.0807573 0.0984356 0 0.0874871 0.098557 0 0.0942169 0.0986785 0 0.100947 0.0988 0 0 0.100733 0 0.00693067 0.100824 0 0.0138613 0.100916 0 0.020792 0.101007 0 0.0277227 0.101098 0 0.0346533 0.101189 0 0.041584 0.10128 0 0.0485147 0.101371 0 0.0554453 0.101462 0 0.062376 0.101553 0 0.0693067 0.101644 0 0.0762373 0.101736 0 0.083168 0.101827 0 0.0900987 0.101918 0 0.0970293 0.102009 0 0.10396 0.1021 0 0 0.104489 0 0.00713156 0.10455 0 0.0142631 0.10461 0 0.0213947 0.104671 0 0.0285262 0.104732 0 0.0356578 0.104793 0 0.0427893 0.104853 0 0.0499209 0.104914 0 0.0570524 0.104975 0 0.064184 0.105036 0 0.0713156 0.105096 0 0.0784471 0.105157 0 0.0855787 0.105218 0 0.0927102 0.105279 0 0.0998418 0.105339 0 0.106973 0.1054 0 0 0.108244 0 0.00733244 0.108275 0 0.0146649 0.108305 0 0.0219973 0.108336 0 0.0293298 0.108366 0 0.0366622 0.108396 0 0.0439947 0.108427 0 0.0513271 0.108457 0 0.0586596 0.108487 0 0.065992 0.108518 0 0.0733244 0.108548 0 0.0806569 0.108579 0 0.0879893 0.108609 0 0.0953218 0.108639 0 0.102654 0.10867 0 0.109987 0.1087 0 0 0.112 0 0.00753333 0.112 0 0.0150667 0.112 0 0.0226 0.112 0 0.0301333 0.112 0 0.0376667 0.112 0 0.0452 0.112 0 0.0527333 0.112 0 0.0602667 0.112 0 0.0678 0.112 0 0.0753333 0.112 0 0.0828667 0.112 0 0.0904 0.112 0 0.0979333 0.112 0 0.105467 0.112 0 0.113 0.112 0 
</DataArray>
</Points> 
</Piece> 
</StructuredGrid> 
</VTKFile> 
