<?xml version="1.0"?> 
<VTKFile type="StructuredGrid" version="0.1"> 
<StructuredGrid WholeExtent="0 15 0 15 0 0"> 
<Piece Extent="0 15 0 15 0 0"> 
<PointData>
<DataArray type="Float32" Name="E" format="ascii" NumberOfComponents="3"> 
0 8.51615e+06 0 -2.21189e-09 1.64177e+06 0 -9.59262e-08 44616.3 0 2.28174e-07 7989.23 0 -3.7998e-07 163479 0 4.41447e-07 181646 0 -3.72529e-07 95461.1 0 3.91155e-07 -361.446 0 -2.90573e-07 -43890.9 0 8.9407e-08 -26553.9 0 1.04308e-07 10640.2 0 -4.47035e-08 15004.5 0 1.49012e-08 -3333.65 0 -1.49012e-08 -3885.52 0 0 669.455 0 -7.15256e-07 -0.015625 0 -2.70079e+06 982815 0 -2.78057e+06 882915 0 -2.01782e+06 1.09831e+06 0 -1.20894e+06 1.02788e+06 0 -617833 709131 0 -264097 350379 0 -89099.8 98538.7 0 -24091.2 -13249.8 0 -10687.1 -28940.1 0 -8291.97 -9058.89 0 -1711.56 7599.94 0 2862.03 8304.43 0 426.01 -2380.65 0 -843.137 -4350.21 0 177.9 2486.94 0 -233.806 -4507.82 0 -3.06215e+06 518554 0 -2.83119e+06 826041 0 -2.92873e+06 576292 0 -2.72459e+06 552472 0 -2.19811e+06 629876 0 -1.52932e+06 596998 0 -899704 416445 0 -425519 186857 0 -146697 19141.5 0 -33177.9 -44990.5 0 -9482.76 -34414.5 0 -5149.42 -1974.38 0 1553.51 13544.5 0 1451.11 4101.52 0 -2457.97 -16092.9 0 457.664 4299.22 0 -2.84821e+06 1.28685e+06 0 -3.0093e+06 957372 0 -2.95261e+06 939886 0 -3.00195e+06 715787 0 -2.99967e+06 502520 0 -2.76998e+06 416223 0 -2.27335e+06 382347 0 -1.60334e+06 296377 0 -925401 147419 0 -401197 7538.92 0 -112036 -57418.3 0 -17842.3 -49083 0 -5318.98 -14161.5 0 -390.907 6621.41 0 6145.07 28573.8 0 539.545 3271.95 0 -2.87928e+06 1.33041e+06 0 -2.90839e+06 1.32079e+06 0 -3.01298e+06 1.16979e+06 0 -3.0285e+06 1.10379e+06 0 -3.06068e+06 934176 0 -3.11049e+06 679307 0 -3.05767e+06 457085 0 -2.76809e+06 307894 0 -2.19888e+06 180947 0 -1.44753e+06 39792.3 0 -724054 -73250.7 0 -234649 -96155.2 0 -33887.9 -46187.7 0 -996.169 -4052.09 0 -7871.3 -25013 0 -4309.33 -18844.7 0 -2.69158e+06 1.63026e+06 0 -2.77959e+06 1.54629e+06 0 -2.85689e+06 1.46737e+06 0 -2.96858e+06 1.3408e+06 0 -3.04044e+06 1.25165e+06 0 -3.09179e+06 1.11777e+06 0 -3.15583e+06 888136 0 -3.186e+06 616793 0 -3.05104e+06 369292 0 -2.61927e+06 144479 0 -1.88043e+06 -69485.4 0 -1.0223e+06 -203017 0 -351102 -168278 0 -42180.2 -31457.8 0 6903.31 22362.8 0 12206 40717.1 0 -2.58166e+06 1.70895e+06 0 -2.64924e+06 1.67826e+06 0 -2.72113e+06 1.64435e+06 0 -2.79953e+06 1.58237e+06 0 -2.90827e+06 1.47765e+06 0 -3.01232e+06 1.37852e+06 0 -3.09562e+06 1.25608e+06 0 -3.1761e+06 1.05371e+06 0 -3.24419e+06 778889 0 -3.20116e+06 477889 0 -2.87774e+06 157851 0 -2.16634e+06 -166550 0 -1.20601e+06 -349017 0 -394629 -244549 0 -28955 -17545.4 0 -17411.8 -45696.6 0 -2.44506e+06 1.80443e+06 0 -2.51035e+06 1.78287e+06 0 -2.58825e+06 1.74411e+06 0 -2.6677e+06 1.71305e+06 0 -2.7508e+06 1.66355e+06 0 -2.85627e+06 1.57827e+06 0 -2.97504e+06 1.48062e+06 0 -3.08678e+06 1.36044e+06 0 -3.19072e+06 1.17026e+06 0 -3.28411e+06 896234 0 -3.29078e+06 559800 0 -3.02149e+06 149838 0 -2.28675e+06 -290826 0 -1.20593e+06 -496665 0 -310377 -269190 0 -51046 -107103 0 -2.33453e+06 1.84111e+06 0 -2.39392e+06 1.83327e+06 0 -2.45781e+06 1.82313e+06 0 -2.53579e+06 1.79443e+06 0 -2.62199e+06 1.76544e+06 0 -2.71366e+06 1.72234e+06 0 -2.82194e+06 1.64929e+06 0 -2.95005e+06 1.55571e+06 0 -3.08432e+06 1.43475e+06 0 -3.21486e+06 1.24388e+06 0 -3.33368e+06 958059 0 -3.36625e+06 574480 0 -3.08421e+06 51649.6 0 -2.21898e+06 -502482 0 -967754 -629143 0 -139436 -235146 0 -2.23135e+06 1.85874e+06 0 -2.28653e+06 1.86226e+06 0 -2.34934e+06 1.85877e+06 0 -2.41731e+06 1.85224e+06 0 -2.49725e+06 1.83162e+06 0 -2.58947e+06 1.8058e+06 0 -2.69126e+06 1.76671e+06 0 -2.80867e+06 1.70016e+06 0 -2.94885e+06 1.6079e+06 0 -3.10471e+06 1.48128e+06 0 -3.26487e+06 1.27568e+06 0 -3.4127e+06 956679 0 -3.45112e+06 484962 0 -3.0504e+06 -211163 0 -1.88789e+06 -841618 0 -417665 -563826 0 -2.13872e+06 1.85569e+06 0 -2.19132e+06 1.86814e+06 0 -2.24954e+06 1.87671e+06 0 -2.31592e+06 1.87905e+06 0 -2.38959e+06 1.87608e+06 0 -2.47477e+06 1.86104e+06 0 -2.5747e+06 1.83778e+06 0 -2.68839e+06 1.80081e+06 0 -2.82067e+06 1.73644e+06 0 -2.97932e+06 1.64163e+06 0 -3.16216e+06 1.50114e+06 0 -3.35879e+06 1.26116e+06 0 -3.5431e+06 870612 0 -3.53964e+06 218761 0 -2.81728e+06 -757069 0 -1.01551e+06 -1.08166e+06 0 -2.05362e+06 1.83846e+06 0 -2.10466e+06 1.85972e+06 0 -2.16111e+06 1.87708e+06 0 -2.22392e+06 1.89001e+06 0 -2.29555e+06 1.8972e+06 0 -2.37653e+06 1.89792e+06 0 -2.47037e+06 1.88697e+06 0 -2.58139e+06 1.86537e+06 0 -2.71076e+06 1.82805e+06 0 -2.86471e+06 1.76118e+06 0 -3.05136e+06 1.65832e+06 0 -3.27351e+06 1.48952e+06 0 -3.52284e+06 1.18272e+06 0 -3.75125e+06 637281 0 -3.55954e+06 -417167 0 -1.96384e+06 -1.60412e+06 0 -1.97434e+06 1.81052e+06 0 -2.02496e+06 1.83997e+06 0 -2.08048e+06 1.8662e+06 0 -2.14204e+06 1.88843e+06 0 -2.21111e+06 1.90547e+06 0 -2.29019e+06 1.91654e+06 0 -2.38087e+06 1.92029e+06 0 -2.48731e+06 1.9121e+06 0 -2.61419e+06 1.89126e+06 0 -2.76595e+06 1.85064e+06 0 -2.95115e+06 1.77622e+06 0 -3.18169e+06 1.65549e+06 0 -3.4658e+06 1.43041e+06 0 -3.8096e+06 991203 0 -4.05235e+06 44447.7 0 -3.16236e+06 -1.88105e+06 0 -1.89973e+06 1.77453e+06 0 -1.95083e+06 1.81198e+06 0 -2.00636e+06 1.84661e+06 0 -2.06755e+06 1.87773e+06 0 -2.13578e+06 1.90454e+06 0 -2.21317e+06 1.92547e+06 0 -2.3024e+06 1.93977e+06 0 -2.40644e+06 1.94551e+06 0 -2.53048e+06 1.93869e+06 0 -2.68042e+06 1.91691e+06 0 -2.86512e+06 1.86937e+06 0 -3.09806e+06 1.78109e+06 0 -3.40017e+06 1.62262e+06 0 -3.80297e+06 1.2847e+06 0 -4.33071e+06 516027 0 -4.41231e+06 -1.72947e+06 0 -1.82869e+06 1.73254e+06 0 -1.88108e+06 1.77815e+06 0 -1.93753e+06 1.82116e+06 0 -1.99919e+06 1.86088e+06 0 -2.06757e+06 1.89658e+06 0 -2.14454e+06 1.92739e+06 0 -2.23296e+06 1.95175e+06 0 -2.33606e+06 1.96862e+06 0 -2.4587e+06 1.97547e+06 0 -2.60748e+06 1.96862e+06 0 -2.7918e+06 1.94343e+06 0 -3.02703e+06 1.88404e+06 0 -3.33894e+06 1.77215e+06 0 -3.77579e+06 1.53036e+06 0 -4.46491e+06 946475 0 -5.49421e+06 -1.11544e+06 0 -1.76052e+06 1.68608e+06 0 -1.81494e+06 1.74006e+06 0 -1.87307e+06 1.79155e+06 0 -1.93601e+06 1.83991e+06 0 -2.00528e+06 1.88447e+06 0 -2.08286e+06 1.92435e+06 0 -2.17142e+06 1.95843e+06 0 -2.27454e+06 1.98566e+06 0 -2.39699e+06 2.00423e+06 0 -2.5457e+06 2.01178e+06 0 -2.73078e+06 2.00335e+06 0 -2.96792e+06 1.97224e+06 0 -3.28784e+06 1.89491e+06 0 -3.74699e+06 1.73712e+06 0 -4.51972e+06 1.32695e+06 0 -6.24839e+06 -150250 0 </DataArray> 
</PointData> 
<Points> 
<DataArray type="Float32" NumberOfComponents="3"> 
0.1 0.045 0 0.100867 0.045 0 0.101733 0.045 0 0.1026 0.045 0 0.103467 0.045 0 0.104333 0.045 0 0.1052 0.045 0 0.106067 0.045 0 0.106933 0.045 0 0.1078 0.045 0 0.108667 0.045 0 0.109533 0.045 0 0.1104 0.045 0 0.111267 0.045 0 0.112133 0.045 0 0.113 0.045 0 0.0978533 0.0461667 0 0.0987493 0.0460936 0 0.0996496 0.0460202 0 0.100554 0.0459464 0 0.101464 0.0458722 0 0.102377 0.0457977 0 0.103295 0.0457228 0 0.104218 0.0456476 0 0.105145 0.045572 0 0.106077 0.045496 0 0.107014 0.0454196 0 0.107955 0.0453428 0 0.108901 0.0452657 0 0.109851 0.0451882 0 0.110807 0.0451102 0 0.111767 0.0450319 0 0.0957067 0.0473333 0 0.0966303 0.0471959 0 0.0975624 0.0470572 0 0.0985031 0.0469172 0 0.0994523 0.046776 0 0.10041 0.0466334 0 0.101377 0.0464895 0 0.102353 0.0463443 0 0.103338 0.0461977 0 0.104333 0.0460498 0 0.105336 0.0459004 0 0.10635 0.0457497 0 0.107373 0.0455974 0 0.108405 0.0454438 0 0.109448 0.0452886 0 0.110501 0.045132 0 0.09356 0.0485 0 0.0945121 0.0483058 0 0.0954762 0.0481091 0 0.0964525 0.0479099 0 0.0974414 0.0477082 0 0.0984431 0.0475038 0 0.0994577 0.0472968 0 0.100486 0.0470871 0 0.101527 0.0468746 0 0.102582 0.0466594 0 0.103652 0.0464412 0 0.104735 0.0462201 0 0.105834 0.0459961 0 0.106947 0.045769 0 0.108075 0.0455388 0 0.109219 0.0453054 0 0.0914133 0.0496667 0 0.0923966 0.0494221 0 0.0933952 0.0491738 0 0.0944094 0.0489216 0 0.0954395 0.0486654 0 0.096486 0.0484051 0 0.0975492 0.0481407 0 0.0986297 0.047872 0 0.0997276 0.0475989 0 0.100844 0.0473214 0 0.101978 0.0470393 0 0.103131 0.0467524 0 0.104304 0.0464608 0 0.105497 0.0461642 0 0.10671 0.0458625 0 0.107944 0.0455556 0 0.0892667 0.0508333 0 0.0902863 0.0505438 0 0.091324 0.0502491 0 0.0923802 0.0499492 0 0.0934553 0.0496439 0 0.09455 0.0493331 0 0.0956647 0.0490166 0 0.0968 0.0486942 0 0.0979565 0.0483658 0 0.0991347 0.0480313 0 0.100335 0.0476903 0 0.101559 0.0473429 0 0.102806 0.0469887 0 0.104078 0.0466275 0 0.105375 0.0462593 0 0.106698 0.0458836 0 0.08712 0.052 0 0.0881834 0.0516696 0 0.089267 0.0513329 0 0.0903716 0.0509898 0 0.0914977 0.0506399 0 0.092646 0.0502832 0 0.093817 0.0499194 0 0.0950115 0.0495482 0 0.0962303 0.0491696 0 0.097474 0.0487832 0 0.0987434 0.0483888 0 0.100039 0.0479862 0 0.101363 0.047575 0 0.102714 0.0471551 0 0.104095 0.0467262 0 0.105506 0.0462878 0 0.0849733 0.0531667 0 0.08609 0.0527984 0 0.0872288 0.0524229 0 0.0883903 0.0520399 0 0.0895754 0.0516491 0 0.0907847 0.0512503 0 0.092019 0.0508433 0 0.093279 0.0504278 0 0.0945655 0.0500036 0 0.0958795 0.0495703 0 0.0972217 0.0491277 0 0.0985932 0.0486754 0 0.0999949 0.0482132 0 0.101428 0.0477407 0 0.102893 0.0472576 0 0.104391 0.0467635 0 0.0828267 0.0543333 0 0.0840084 0.0539291 0 0.0852135 0.0535168 0 0.0864428 0.0530962 0 0.0876969 0.0526672 0 0.0889766 0.0522294 0 0.0902828 0.0517825 0 0.0916162 0.0513264 0 0.0929777 0.0508606 0 0.0943682 0.0503849 0 0.0957887 0.0498989 0 0.0972401 0.0494024 0 0.0987234 0.048895 0 0.10024 0.0483762 0 0.10179 0.0478458 0 0.103376 0.0473033 0 0.08068 0.0555 0 0.0819407 0.0550603 0 0.0832255 0.0546122 0 0.0845351 0.0541554 0 0.0858702 0.0536898 0 0.0872316 0.053215 0 0.08862 0.0527308 0 0.0900363 0.0522368 0 0.0914812 0.0517329 0 0.0929557 0.0512186 0 0.0944608 0.0506937 0 0.0959973 0.0501578 0 0.0975662 0.0496106 0 0.0991686 0.0490517 0 0.100806 0.0484808 0 0.102478 0.0478974 0 0.0785333 0.0566667 0 0.0798892 0.0561909 0 0.0812691 0.0557068 0 0.0826735 0.0552141 0 0.0841032 0.0547125 0 0.0855588 0.0542018 0 0.0870411 0.0536817 0 0.0885507 0.053152 0 0.0900886 0.0526125 0 0.0916553 0.0520628 0 0.0932519 0.0515026 0 0.0948791 0.0509317 0 0.0965378 0.0503498 0 0.098229 0.0497564 0 0.0999536 0.0491513 0 0.101713 0.0485342 0 0.0763867 0.0578333 0 0.077856 0.0573198 0 0.0793481 0.0567984 0 0.0808635 0.0562688 0 0.0824028 0.0557308 0 0.0839665 0.0551843 0 0.0855552 0.0546291 0 0.0871697 0.0540649 0 0.0888103 0.0534915 0 0.0904779 0.0529087 0 0.092173 0.0523163 0 0.0938964 0.051714 0 0.0956488 0.0511016 0 0.0974309 0.0504787 0 0.0992435 0.0498453 0 0.101087 0.0492009 0 0.07424 0.059 0 0.075843 0.0584458 0 0.0774663 0.0578846 0 0.0791103 0.0573162 0 0.0807754 0.0567405 0 0.0824619 0.0561575 0 0.0841704 0.0555668 0 0.0859011 0.0549685 0 0.0876546 0.0543622 0 0.0894314 0.0537479 0 0.0912318 0.0531255 0 0.0930564 0.0524947 0 0.0949056 0.0518554 0 0.09678 0.0512073 0 0.0986801 0.0505504 0 0.100606 0.0498845 0 0.0720933 0.0601667 0 0.0738524 0.0595676 0 0.0756275 0.0589632 0 0.0774189 0.0583531 0 0.0792267 0.0577375 0 0.0810512 0.0571162 0 0.0828927 0.0564891 0 0.0847513 0.0558562 0 0.0866273 0.0552174 0 0.088521 0.0545725 0 0.0904325 0.0539216 0 0.0923622 0.0532645 0 0.0943103 0.0526011 0 0.0962771 0.0519313 0 0.0982629 0.0512551 0 0.100268 0.0505723 0 0.0699467 0.0613333 0 0.0718861 0.0606842 0 0.0738351 0.060032 0 0.0757936 0.0593765 0 0.0777617 0.0587178 0 0.0797394 0.0580559 0 0.081727 0.0573907 0 0.0837243 0.0567222 0 0.0857316 0.0560504 0 0.0877488 0.0553753 0 0.0897761 0.0546968 0 0.0918135 0.0540149 0 0.0938611 0.0533296 0 0.095919 0.0526409 0 0.0979872 0.0519487 0 0.100066 0.051253 0 0.0678 0.0625 0 0.069946 0.0617944 0 0.0720921 0.0610889 0 0.0742381 0.0603833 0 0.0763842 0.0596777 0 0.0785302 0.0589722 0 0.0806763 0.0582666 0 0.0828223 0.0575611 0 0.0849683 0.0568555 0 0.0871144 0.0561499 0 0.0892604 0.0554444 0 0.0914065 0.0547388 0 0.0935525 0.0540332 0 0.0956986 0.0533277 0 0.0978446 0.0526221 0 0.0999907 0.0519165 0 
</DataArray>
</Points> 
</Piece> 
</StructuredGrid> 
</VTKFile> 
