<?xml version="1.0"?> 
<VTKFile type="StructuredGrid" version="0.1"> 
<StructuredGrid WholeExtent="0 15 0 15 0 0"> 
<Piece Extent="0 15 0 15 0 0"> 
<PointData>
<DataArray type="Float32" Name="E" format="ascii" NumberOfComponents="3"> 
-1.25483e+06 0 0 -1.29867e+06 -26323 0 -1.41809e+06 -10919.9 0 -1.57706e+06 74292.5 0 -1.73308e+06 225457 0 -1.86511e+06 416485 0 -1.97349e+06 625890 0 -2.06389e+06 844793 0 -2.13667e+06 1.06825e+06 0 -2.18573e+06 1.29158e+06 0 -2.20227e+06 1.48344e+06 0 -2.19419e+06 1.60918e+06 0 -2.20918e+06 1.58858e+06 0 -2.34372e+06 1.37353e+06 0 -2.55311e+06 1.01364e+06 0 -3.63594e+06 1.82601e+06 0 -1.25789e+06 0 0 -1.29778e+06 -16985 0 -1.40629e+06 3425.23 0 -1.5524e+06 85866.8 0 -1.69922e+06 228623 0 -1.8264e+06 410434 0 -1.9322e+06 611732 0 -2.02082e+06 823106 0 -2.09375e+06 1.03929e+06 0 -2.14641e+06 1.25511e+06 0 -2.17458e+06 1.44931e+06 0 -2.18088e+06 1.58658e+06 0 -2.20808e+06 1.62222e+06 0 -2.32347e+06 1.47886e+06 0 -2.59452e+06 1.19198e+06 0 -2.86122e+06 687633 0 -1.25999e+06 0 0 -1.29619e+06 -8468.63 0 -1.39469e+06 16585.7 0 -1.52876e+06 96772.3 0 -1.66641e+06 231935 0 -1.78835e+06 404909 0 -1.89126e+06 598165 0 -1.97797e+06 802121 0 -2.05055e+06 1.01123e+06 0 -2.10576e+06 1.22039e+06 0 -2.14219e+06 1.41402e+06 0 -2.16032e+06 1.56317e+06 0 -2.19564e+06 1.63356e+06 0 -2.29882e+06 1.56855e+06 0 -2.56633e+06 1.35739e+06 0 -2.92244e+06 775631 0 -1.26118e+06 0 0 -1.29395e+06 -720.371 0 -1.38324e+06 28624.4 0 -1.50603e+06 106980 0 -1.63462e+06 235299 0 -1.75102e+06 399856 0 -1.85073e+06 585172 0 -1.93536e+06 781808 0 -2.00717e+06 984007 0 -2.06402e+06 1.18695e+06 0 -2.10615e+06 1.37859e+06 0 -2.13361e+06 1.53677e+06 0 -2.17411e+06 1.63312e+06 0 -2.26885e+06 1.62922e+06 0 -2.50572e+06 1.5e+06 0 -2.93006e+06 1.13624e+06 0 -1.26151e+06 0 0 -1.29106e+06 6311.19 0 -1.37189e+06 39600.7 0 -1.48413e+06 116468 0 -1.60385e+06 238627 0 -1.71445e+06 395209 0 -1.81066e+06 572737 0 -1.89301e+06 762124 0 -1.96367e+06 957583 0 -2.02141e+06 1.15446e+06 0 -2.0673e+06 1.34341e+06 0 -2.10177e+06 1.50745e+06 0 -2.14559e+06 1.6239e+06 0 -2.23293e+06 1.66563e+06 0 -2.43526e+06 1.60958e+06 0 -2.83703e+06 1.40816e+06 0 -1.261e+06 0 0 -1.28756e+06 12673.2 0 -1.3606e+06 49570.7 0 -1.46298e+06 125224 0 -1.57405e+06 241840 0 -1.67868e+06 390904 0 -1.77109e+06 560828 0 -1.85097e+06 743055 0 -1.92014e+06 931870 0 -1.97813e+06 1.12284e+06 0 -2.02628e+06 1.30845e+06 0 -2.06573e+06 1.47599e+06 0 -2.11157e+06 1.60722e+06 0 -2.19208e+06 1.6832e+06 0 -2.36217e+06 1.68582e+06 0 -2.70865e+06 1.59886e+06 0 -1.25972e+06 0 0 -1.28348e+06 18409.4 0 -1.34933e+06 58587.7 0 -1.44251e+06 133240 0 -1.5452e+06 244866 0 -1.64372e+06 386872 0 -1.73208e+06 549409 0 -1.80926e+06 724574 0 -1.87666e+06 906822 0 -1.93432e+06 1.09195e+06 0 -1.98363e+06 1.27379e+06 0 -2.0263e+06 1.44278e+06 0 -2.07326e+06 1.58474e+06 0 -2.14728e+06 1.68563e+06 0 -2.29013e+06 1.73325e+06 0 -2.57292e+06 1.72502e+06 0 -1.2577e+06 0 0 -1.27882e+06 23560.8 0 -1.33805e+06 66701.7 0 -1.42264e+06 140515 0 -1.51724e+06 247641 0 -1.6096e+06 383041 0 -1.69368e+06 538437 0 -1.76794e+06 706654 0 -1.83329e+06 882403 0 -1.89013e+06 1.0617e+06 0 -1.93976e+06 1.23943e+06 0 -1.98422e+06 1.40828e+06 0 -2.03152e+06 1.55749e+06 0 -2.09954e+06 1.67643e+06 0 -2.21998e+06 1.7571e+06 0 -2.44679e+06 1.80123e+06 0 -1.25496e+06 0 0 -1.27361e+06 28165.3 0 -1.32673e+06 73960.1 0 -1.40331e+06 147052 0 -1.49014e+06 250110 0 -1.57631e+06 379342 0 -1.65592e+06 527865 0 -1.72704e+06 689263 0 -1.79012e+06 858576 0 -1.84571e+06 1.03205e+06 0 -1.89499e+06 1.20537e+06 0 -1.94011e+06 1.37286e+06 0 -1.98709e+06 1.52645e+06 0 -2.04964e+06 1.65811e+06 0 -2.15176e+06 1.76251e+06 0 -2.3333e+06 1.84336e+06 0 -1.25156e+06 0 0 -1.26788e+06 32258.3 0 -1.31535e+06 80407.9 0 -1.38446e+06 152859 0 -1.46384e+06 252224 0 -1.54387e+06 375707 0 -1.61886e+06 517639 0 -1.68662e+06 672367 0 -1.74721e+06 835311 0 -1.80117e+06 1.00295e+06 0 -1.84958e+06 1.1716e+06 0 -1.89449e+06 1.33678e+06 0 -1.94057e+06 1.4925e+06 0 -1.99817e+06 1.63265e+06 0 -2.08538e+06 1.75366e+06 0 -2.23105e+06 1.8593e+06 0 -1.24751e+06 0 0 -1.26164e+06 35872.8 0 -1.30388e+06 86087.4 0 -1.36602e+06 157943 0 -1.43831e+06 253944 0 -1.51225e+06 372071 0 -1.58251e+06 507704 0 -1.64673e+06 655929 0 -1.70462e+06 812577 0 -1.75663e+06 974376 0 -1.80374e+06 1.13814e+06 0 -1.84778e+06 1.30027e+06 0 -1.89247e+06 1.4563e+06 0 -1.94557e+06 1.60166e+06 0 -2.02059e+06 1.73384e+06 0 -2.13847e+06 1.85614e+06 0 -1.24285e+06 0 0 -1.25492e+06 39039.1 0 -1.2923e+06 91038.9 0 -1.34796e+06 162319 0 -1.41349e+06 255233 0 -1.48146e+06 368370 0 -1.54691e+06 498001 0 -1.60742e+06 639906 0 -1.66242e+06 790344 0 -1.71221e+06 946299 0 -1.75765e+06 1.105e+06 0 -1.80033e+06 1.2635e+06 0 -1.84322e+06 1.41843e+06 0 -1.89217e+06 1.56641e+06 0 -1.95718e+06 1.70563e+06 0 -2.05341e+06 1.83884e+06 0 -1.23762e+06 0 0 -1.24771e+06 41785.9 0 -1.28061e+06 95300.2 0 -1.33021e+06 166000 0 -1.38933e+06 256065 0 -1.45146e+06 364548 0 -1.51206e+06 488472 0 -1.56873e+06 624253 0 -1.62066e+06 768579 0 -1.66801e+06 918702 0 -1.71148e+06 1.07218e+06 0 -1.75241e+06 1.22659e+06 0 -1.7932e+06 1.37934e+06 0 -1.83825e+06 1.52793e+06 0 -1.89494e+06 1.67104e+06 0 -1.97423e+06 1.81073e+06 0 -1.23183e+06 0 0 -1.24006e+06 44139.5 0 -1.26879e+06 98907.5 0 -1.31275e+06 169002 0 -1.36578e+06 256415 0 -1.42223e+06 360552 0 -1.47799e+06 479055 0 -1.5307e+06 608920 0 -1.57941e+06 747247 0 -1.62411e+06 891563 0 -1.66535e+06 1.03972e+06 0 -1.70424e+06 1.18966e+06 0 -1.7427e+06 1.33938e+06 0 -1.78405e+06 1.48702e+06 0 -1.83373e+06 1.63162e+06 0 -1.89964e+06 1.7747e+06 0 -1.22551e+06 0 0 -1.23197e+06 46124.5 0 -1.25682e+06 101895 0 -1.29552e+06 171342 0 -1.3428e+06 256266 0 -1.39376e+06 356332 0 -1.4447e+06 469694 0 -1.49336e+06 593856 0 -1.53872e+06 726313 0 -1.58061e+06 864863 0 -1.61941e+06 1.0076e+06 0 -1.65602e+06 1.15281e+06 0 -1.69196e+06 1.29885e+06 0 -1.72978e+06 1.44434e+06 0 -1.77344e+06 1.58858e+06 0 -1.82863e+06 1.73265e+06 0 -1.21868e+06 0 0 -1.22345e+06 47763.6 0 -1.24469e+06 104294 0 -1.27849e+06 173039 0 -1.32034e+06 255605 0 -1.366e+06 351846 0 -1.41218e+06 460330 0 -1.45675e+06 579006 0 -1.49865e+06 705735 0 -1.53757e+06 838576 0 -1.57375e+06 975856 0 -1.6079e+06 1.11609e+06 0 -1.64121e+06 1.25797e+06 0 -1.6756e+06 1.4004e+06 0 -1.71399e+06 1.54288e+06 0 -1.76048e+06 1.68616e+06 0 </DataArray> 
</PointData> 
<Points> 
<DataArray type="Float32" NumberOfComponents="3"> 
0 0.045 0 0.00666667 0.045 0 0.0133333 0.045 0 0.02 0.045 0 0.0266667 0.045 0 0.0333333 0.045 0 0.04 0.045 0 0.0466667 0.045 0 0.0533333 0.045 0 0.06 0.045 0 0.0666667 0.045 0 0.0733333 0.045 0 0.08 0.045 0 0.0866667 0.045 0 0.0933333 0.045 0 0.1 0.045 0 0 0.0457111 0 0.00652356 0.0457415 0 0.0130471 0.0457719 0 0.0195707 0.0458022 0 0.0260942 0.0458326 0 0.0326178 0.045863 0 0.0391413 0.0458933 0 0.0456649 0.0459237 0 0.0521884 0.0459541 0 0.058712 0.0459844 0 0.0652356 0.0460148 0 0.0717591 0.0460452 0 0.0782827 0.0460756 0 0.0848062 0.0461059 0 0.0913298 0.0461363 0 0.0978533 0.0461667 0 0 0.0464222 0 0.00638044 0.046483 0 0.0127609 0.0465437 0 0.0191413 0.0466044 0 0.0255218 0.0466652 0 0.0319022 0.0467259 0 0.0382827 0.0467867 0 0.0446631 0.0468474 0 0.0510436 0.0469081 0 0.057424 0.0469689 0 0.0638044 0.0470296 0 0.0701849 0.0470904 0 0.0765653 0.0471511 0 0.0829458 0.0472119 0 0.0893262 0.0472726 0 0.0957067 0.0473333 0 0 0.0471333 0 0.00623733 0.0472244 0 0.0124747 0.0473156 0 0.018712 0.0474067 0 0.0249493 0.0474978 0 0.0311867 0.0475889 0 0.037424 0.04768 0 0.0436613 0.0477711 0 0.0498987 0.0478622 0 0.056136 0.0479533 0 0.0623733 0.0480444 0 0.0686107 0.0481356 0 0.074848 0.0482267 0 0.0810853 0.0483178 0 0.0873227 0.0484089 0 0.09356 0.0485 0 0 0.0478444 0 0.00609422 0.0479659 0 0.0121884 0.0480874 0 0.0182827 0.0482089 0 0.0243769 0.0483304 0 0.0304711 0.0484519 0 0.0365653 0.0485733 0 0.0426596 0.0486948 0 0.0487538 0.0488163 0 0.054848 0.0489378 0 0.0609422 0.0490593 0 0.0670364 0.0491807 0 0.0731307 0.0493022 0 0.0792249 0.0494237 0 0.0853191 0.0495452 0 0.0914133 0.0496667 0 0 0.0485556 0 0.00595111 0.0487074 0 0.0119022 0.0488593 0 0.0178533 0.0490111 0 0.0238044 0.049163 0 0.0297556 0.0493148 0 0.0357067 0.0494667 0 0.0416578 0.0496185 0 0.0476089 0.0497704 0 0.05356 0.0499222 0 0.0595111 0.0500741 0 0.0654622 0.0502259 0 0.0714133 0.0503778 0 0.0773644 0.0505296 0 0.0833156 0.0506815 0 0.0892667 0.0508333 0 0 0.0492667 0 0.005808 0.0494489 0 0.011616 0.0496311 0 0.017424 0.0498133 0 0.023232 0.0499956 0 0.02904 0.0501778 0 0.034848 0.05036 0 0.040656 0.0505422 0 0.046464 0.0507244 0 0.052272 0.0509067 0 0.05808 0.0510889 0 0.063888 0.0512711 0 0.069696 0.0514533 0 0.075504 0.0516356 0 0.081312 0.0518178 0 0.08712 0.052 0 0 0.0499778 0 0.00566489 0.0501904 0 0.0113298 0.050403 0 0.0169947 0.0506156 0 0.0226596 0.0508281 0 0.0283244 0.0510407 0 0.0339893 0.0512533 0 0.0396542 0.0514659 0 0.0453191 0.0516785 0 0.050984 0.0518911 0 0.0566489 0.0521037 0 0.0623138 0.0523163 0 0.0679787 0.0525289 0 0.0736436 0.0527415 0 0.0793084 0.0529541 0 0.0849733 0.0531667 0 0 0.0506889 0 0.00552178 0.0509319 0 0.0110436 0.0511748 0 0.0165653 0.0514178 0 0.0220871 0.0516607 0 0.0276089 0.0519037 0 0.0331307 0.0521467 0 0.0386524 0.0523896 0 0.0441742 0.0526326 0 0.049696 0.0528756 0 0.0552178 0.0531185 0 0.0607396 0.0533615 0 0.0662613 0.0536044 0 0.0717831 0.0538474 0 0.0773049 0.0540904 0 0.0828267 0.0543333 0 0 0.0514 0 0.00537867 0.0516733 0 0.0107573 0.0519467 0 0.016136 0.05222 0 0.0215147 0.0524933 0 0.0268933 0.0527667 0 0.032272 0.05304 0 0.0376507 0.0533133 0 0.0430293 0.0535867 0 0.048408 0.05386 0 0.0537867 0.0541333 0 0.0591653 0.0544067 0 0.064544 0.05468 0 0.0699227 0.0549533 0 0.0753013 0.0552267 0 0.08068 0.0555 0 0 0.0521111 0 0.00523556 0.0524148 0 0.0104711 0.0527185 0 0.0157067 0.0530222 0 0.0209422 0.0533259 0 0.0261778 0.0536296 0 0.0314133 0.0539333 0 0.0366489 0.054237 0 0.0418844 0.0545407 0 0.04712 0.0548444 0 0.0523556 0.0551481 0 0.0575911 0.0554519 0 0.0628267 0.0557556 0 0.0680622 0.0560593 0 0.0732978 0.056363 0 0.0785333 0.0566667 0 0 0.0528222 0 0.00509244 0.0531563 0 0.0101849 0.0534904 0 0.0152773 0.0538244 0 0.0203698 0.0541585 0 0.0254622 0.0544926 0 0.0305547 0.0548267 0 0.0356471 0.0551607 0 0.0407396 0.0554948 0 0.045832 0.0558289 0 0.0509244 0.056163 0 0.0560169 0.056497 0 0.0611093 0.0568311 0 0.0662018 0.0571652 0 0.0712942 0.0574993 0 0.0763867 0.0578333 0 0 0.0535333 0 0.00494933 0.0538978 0 0.00989867 0.0542622 0 0.014848 0.0546267 0 0.0197973 0.0549911 0 0.0247467 0.0553556 0 0.029696 0.05572 0 0.0346453 0.0560844 0 0.0395947 0.0564489 0 0.044544 0.0568133 0 0.0494933 0.0571778 0 0.0544427 0.0575422 0 0.059392 0.0579067 0 0.0643413 0.0582711 0 0.0692907 0.0586356 0 0.07424 0.059 0 0 0.0542444 0 0.00480622 0.0546393 0 0.00961244 0.0550341 0 0.0144187 0.0554289 0 0.0192249 0.0558237 0 0.0240311 0.0562185 0 0.0288373 0.0566133 0 0.0336436 0.0570081 0 0.0384498 0.057403 0 0.043256 0.0577978 0 0.0480622 0.0581926 0 0.0528684 0.0585874 0 0.0576747 0.0589822 0 0.0624809 0.059377 0 0.0672871 0.0597719 0 0.0720933 0.0601667 0 0 0.0549556 0 0.00466311 0.0553807 0 0.00932622 0.0558059 0 0.0139893 0.0562311 0 0.0186524 0.0566563 0 0.0233156 0.0570815 0 0.0279787 0.0575067 0 0.0326418 0.0579319 0 0.0373049 0.058357 0 0.041968 0.0587822 0 0.0466311 0.0592074 0 0.0512942 0.0596326 0 0.0559573 0.0600578 0 0.0606204 0.060483 0 0.0652836 0.0609081 0 0.0699467 0.0613333 0 0 0.0556667 0 0.00452 0.0561222 0 0.00904 0.0565778 0 0.01356 0.0570333 0 0.01808 0.0574889 0 0.0226 0.0579444 0 0.02712 0.0584 0 0.03164 0.0588556 0 0.03616 0.0593111 0 0.04068 0.0597667 0 0.0452 0.0602222 0 0.04972 0.0606778 0 0.05424 0.0611333 0 0.05876 0.0615889 0 0.06328 0.0620444 0 0.0678 0.0625 0 
</DataArray>
</Points> 
</Piece> 
</StructuredGrid> 
</VTKFile> 
