<?xml version="1.0"?> 
<VTKFile type="StructuredGrid" version="0.1"> 
<StructuredGrid WholeExtent="0 15 0 15 0 0"> 
<Piece Extent="0 15 0 15 0 0"> 
<PointData>
<DataArray type="Float32" Name="E" format="ascii" NumberOfComponents="3"> 
-1.07551e+06 0 0 -1.16226e+06 -216664 0 -1.43385e+06 -351808 0 -1.78813e+06 -276026 0 -2.04771e+06 -35307.5 0 -2.20388e+06 225906 0 -2.31586e+06 471946 0 -2.41548e+06 712497 0 -2.50534e+06 967372 0 -2.56628e+06 1.25257e+06 0 -2.53585e+06 1.57756e+06 0 -2.30869e+06 1.82536e+06 0 -1.95213e+06 1.77221e+06 0 -1.6788e+06 1.35825e+06 0 -1.652e+06 652221 0 -1.82951e+06 4.05312e-06 0 -1.09743e+06 0 0 -1.18116e+06 -199420 0 -1.43734e+06 -318333 0 -1.77012e+06 -243920 0 -2.02186e+06 -15810.6 0 -2.1787e+06 238625 0 -2.29193e+06 482251 0 -2.39105e+06 722065 0 -2.47871e+06 975264 0 -2.53608e+06 1.25577e+06 0 -2.50472e+06 1.56588e+06 0 -2.29627e+06 1.79415e+06 0 -1.97555e+06 1.73986e+06 0 -1.73617e+06 1.34178e+06 0 -1.72637e+06 665121 0 -1.87978e+06 -3.65078e-07 0 -1.11764e+06 0 0 -1.19823e+06 -182865 0 -1.43999e+06 -286986 0 -1.75312e+06 -213444 0 -1.99697e+06 3550.42 0 -2.15393e+06 251469 0 -2.26811e+06 492609 0 -2.36672e+06 731487 0 -2.45237e+06 982895 0 -2.5067e+06 1.25856e+06 0 -2.47553e+06 1.5549e+06 0 -2.28513e+06 1.76594e+06 0 -1.99806e+06 1.71103e+06 0 -1.79118e+06 1.32827e+06 0 -1.79846e+06 678011 0 -1.93724e+06 -5.40167e-08 0 -1.1362e+06 0 0 -1.21361e+06 -167012 0 -1.44185e+06 -257582 0 -1.73697e+06 -184487 0 -1.97299e+06 22708.2 0 -2.12956e+06 264403 0 -2.24442e+06 503003 0 -2.3425e+06 740774 0 -2.42631e+06 990289 0 -2.47812e+06 1.26105e+06 0 -2.44807e+06 1.54467e+06 0 -2.27511e+06 1.74054e+06 0 -2.01968e+06 1.68555e+06 0 -1.84395e+06 1.31762e+06 0 -1.86871e+06 691173 0 -2.00072e+06 4.19095e-08 0 -1.1532e+06 0 0 -1.22741e+06 -151863 0 -1.44299e+06 -229955 0 -1.72155e+06 -156947 0 -1.94983e+06 41608.5 0 -2.1056e+06 277391 0 -2.22087e+06 513416 0 -2.3184e+06 749936 0 -2.40055e+06 997469 0 -2.45032e+06 1.26331e+06 0 -2.42217e+06 1.53524e+06 0 -2.26603e+06 1.71779e+06 0 -2.04043e+06 1.66325e+06 0 -1.8946e+06 1.30972e+06 0 -1.93745e+06 704912 0 -2.06959e+06 -7.63685e-08 0 -1.1687e+06 0 0 -1.23973e+06 -137410 0 -1.44345e+06 -203960 0 -1.70675e+06 -130730 0 -1.92743e+06 60208.7 0 -2.08204e+06 290401 0 -2.19749e+06 523835 0 -2.29445e+06 758982 0 -2.37509e+06 1.00446e+06 0 -2.42327e+06 1.26544e+06 0 -2.39765e+06 1.52662e+06 0 -2.25777e+06 1.69753e+06 0 -2.06032e+06 1.644e+06 0 -1.94324e+06 1.3045e+06 0 -2.00489e+06 719531 0 -2.14369e+06 5.58794e-08 0 -1.18278e+06 0 0 -1.25066e+06 -123636 0 -1.44328e+06 -179467 0 -1.69247e+06 -105750 0 -1.90573e+06 78475.8 0 -2.05885e+06 303403 0 -2.17427e+06 534246 0 -2.27064e+06 767919 0 -2.34993e+06 1.01129e+06 0 -2.39694e+06 1.26748e+06 0 -2.37438e+06 1.51885e+06 0 -2.25018e+06 1.67962e+06 0 -2.07936e+06 1.62765e+06 0 -1.98998e+06 1.30188e+06 0 -2.07114e+06 735318 0 -2.2233e+06 -7.45058e-08 0 -1.19548e+06 0 0 -1.26029e+06 -110521 0 -1.44251e+06 -156361 0 -1.67863e+06 -81929.1 0 -1.88466e+06 96384.9 0 -2.03604e+06 316371 0 -2.15122e+06 544637 0 -2.247e+06 776755 0 -2.32506e+06 1.01798e+06 0 -2.37129e+06 1.26952e+06 0 -2.35221e+06 1.51193e+06 0 -2.24314e+06 1.66393e+06 0 -2.09753e+06 1.61406e+06 0 -2.03491e+06 1.30186e+06 0 -2.13623e+06 752519 0 -2.30917e+06 1.63913e-07 0 -1.20688e+06 0 0 -1.26869e+06 -98041.3 0 -1.44118e+06 -134537 0 -1.66517e+06 -59195.4 0 -1.86417e+06 113917 0 -2.01358e+06 329279 0 -2.12836e+06 554998 0 -2.22352e+06 785497 0 -2.3005e+06 1.02455e+06 0 -2.3463e+06 1.27159e+06 0 -2.33101e+06 1.50585e+06 0 -2.23656e+06 1.65037e+06 0 -2.11482e+06 1.60306e+06 0 -2.07812e+06 1.30444e+06 0 -2.20005e+06 771315 0 -2.40259e+06 -1.04308e-07 0 -1.21704e+06 0 0 -1.27594e+06 -86172.5 0 -1.43931e+06 -113901 0 -1.65201e+06 -37482.6 0 -1.84421e+06 131060 0 -1.99147e+06 342106 0 -2.10567e+06 565318 0 -2.20021e+06 794151 0 -2.27623e+06 1.03102e+06 0 -2.32192e+06 1.27375e+06 0 -2.31067e+06 1.50061e+06 0 -2.23031e+06 1.63886e+06 0 -2.13121e+06 1.59447e+06 0 -2.11971e+06 1.30972e+06 0 -2.26235e+06 791784 0 -2.5056e+06 8.19564e-08 0 -1.226e+06 0 0 -1.28211e+06 -74887.5 0 -1.43693e+06 -94368.7 0 -1.63912e+06 -16730 0 -1.82472e+06 147805 0 -1.96968e+06 354832 0 -2.08317e+06 575587 0 -2.17708e+06 802725 0 -2.25224e+06 1.03741e+06 0 -2.29811e+06 1.27604e+06 0 -2.29109e+06 1.49616e+06 0 -2.22432e+06 1.62936e+06 0 -2.14667e+06 1.58805e+06 0 -2.15978e+06 1.31788e+06 0 -2.32269e+06 813833 0 -2.6212e+06 -1.04308e-07 0 -1.23383e+06 0 0 -1.28725e+06 -64159.4 0 -1.43407e+06 -75861.8 0 -1.62643e+06 3118.51 0 -1.80568e+06 164147 0 -1.94821e+06 367441 0 -2.06085e+06 585796 0 -2.15412e+06 811229 0 -2.22854e+06 1.04372e+06 0 -2.27483e+06 1.27853e+06 0 -2.27218e+06 1.49244e+06 0 -2.21847e+06 1.62188e+06 0 -2.16117e+06 1.5835e+06 0 -2.19846e+06 1.32927e+06 0 -2.38035e+06 837099 0 -2.75381e+06 1.19209e-07 0 -1.24058e+06 0 0 -1.29143e+06 -53961 0 -1.43073e+06 -58310.1 0 -1.61392e+06 22114.8 0 -1.78702e+06 180084 0 -1.92703e+06 379919 0 -2.03872e+06 595936 0 -2.13133e+06 819674 0 -2.20512e+06 1.04996e+06 0 -2.25203e+06 1.28127e+06 0 -2.25387e+06 1.48936e+06 0 -2.21267e+06 1.61651e+06 0 -2.17469e+06 1.58035e+06 0 -2.23591e+06 1.34453e+06 0 -2.43425e+06 860797 0 -2.90985e+06 -2.98023e-08 0 -1.2463e+06 0 0 -1.29469e+06 -44266.2 0 -1.42694e+06 -41649 0 -1.60154e+06 40306.6 0 -1.76873e+06 195616 0 -1.90614e+06 392254 0 -2.01677e+06 605993 0 -2.10872e+06 828079 0 -2.18198e+06 1.05611e+06 0 -2.22964e+06 1.28437e+06 0 -2.23611e+06 1.48673e+06 0 -2.2068e+06 1.61347e+06 0 -2.18719e+06 1.57792e+06 0 -2.27235e+06 1.36466e+06 0 -2.48278e+06 883479 0 -3.09869e+06 -1.3411e-07 0 -1.25103e+06 0 0 -1.29709e+06 -35049.4 0 -1.42273e+06 -25818.9 0 -1.58926e+06 57737.9 0 -1.75075e+06 210746 0 -1.88551e+06 404438 0 -1.99503e+06 615953 0 -2.08625e+06 836472 0 -2.15915e+06 1.06212e+06 0 -2.20758e+06 1.28797e+06 0 -2.21889e+06 1.48428e+06 0 -2.20071e+06 1.6132e+06 0 -2.19868e+06 1.57517e+06 0 -2.30813e+06 1.39132e+06 0 -2.52356e+06 902658 0 -3.33404e+06 8.9407e-08 0 -1.25483e+06 0 0 -1.29867e+06 -26287.1 0 -1.41809e+06 -10765 0 -1.57706e+06 74448.7 0 -1.73308e+06 225477 0 -1.86511e+06 416467 0 -1.97349e+06 625796 0 -2.06389e+06 844896 0 -2.13667e+06 1.06791e+06 0 -2.18573e+06 1.29227e+06 0 -2.20227e+06 1.48157e+06 0 -2.19419e+06 1.61642e+06 0 -2.20918e+06 1.57051e+06 0 -2.34372e+06 1.42714e+06 0 -2.55311e+06 914323 0 -3.63594e+06 -4.76837e-07 0 </DataArray> 
</PointData> 
<Points> 
<DataArray type="Float32" NumberOfComponents="3"> 
0 0.035 0 0.00666667 0.035 0 0.0133333 0.035 0 0.02 0.035 0 0.0266667 0.035 0 0.0333333 0.035 0 0.04 0.035 0 0.0466667 0.035 0 0.0533333 0.035 0 0.06 0.035 0 0.0666667 0.035 0 0.0733333 0.035 0 0.08 0.035 0 0.0866667 0.035 0 0.0933333 0.035 0 0.1 0.035 0 0 0.0356667 0 0.00666667 0.0356667 0 0.0133333 0.0356667 0 0.02 0.0356667 0 0.0266667 0.0356667 0 0.0333333 0.0356667 0 0.04 0.0356667 0 0.0466667 0.0356667 0 0.0533333 0.0356667 0 0.06 0.0356667 0 0.0666667 0.0356667 0 0.0733333 0.0356667 0 0.08 0.0356667 0 0.0866667 0.0356667 0 0.0933333 0.0356667 0 0.1 0.0356667 0 0 0.0363333 0 0.00666667 0.0363333 0 0.0133333 0.0363333 0 0.02 0.0363333 0 0.0266667 0.0363333 0 0.0333333 0.0363333 0 0.04 0.0363333 0 0.0466667 0.0363333 0 0.0533333 0.0363333 0 0.06 0.0363333 0 0.0666667 0.0363333 0 0.0733333 0.0363333 0 0.08 0.0363333 0 0.0866667 0.0363333 0 0.0933333 0.0363333 0 0.1 0.0363333 0 0 0.037 0 0.00666667 0.037 0 0.0133333 0.037 0 0.02 0.037 0 0.0266667 0.037 0 0.0333333 0.037 0 0.04 0.037 0 0.0466667 0.037 0 0.0533333 0.037 0 0.06 0.037 0 0.0666667 0.037 0 0.0733333 0.037 0 0.08 0.037 0 0.0866667 0.037 0 0.0933333 0.037 0 0.1 0.037 0 0 0.0376667 0 0.00666667 0.0376667 0 0.0133333 0.0376667 0 0.02 0.0376667 0 0.0266667 0.0376667 0 0.0333333 0.0376667 0 0.04 0.0376667 0 0.0466667 0.0376667 0 0.0533333 0.0376667 0 0.06 0.0376667 0 0.0666667 0.0376667 0 0.0733333 0.0376667 0 0.08 0.0376667 0 0.0866667 0.0376667 0 0.0933333 0.0376667 0 0.1 0.0376667 0 0 0.0383333 0 0.00666667 0.0383333 0 0.0133333 0.0383333 0 0.02 0.0383333 0 0.0266667 0.0383333 0 0.0333333 0.0383333 0 0.04 0.0383333 0 0.0466667 0.0383333 0 0.0533333 0.0383333 0 0.06 0.0383333 0 0.0666667 0.0383333 0 0.0733333 0.0383333 0 0.08 0.0383333 0 0.0866667 0.0383333 0 0.0933333 0.0383333 0 0.1 0.0383333 0 0 0.039 0 0.00666667 0.039 0 0.0133333 0.039 0 0.02 0.039 0 0.0266667 0.039 0 0.0333333 0.039 0 0.04 0.039 0 0.0466667 0.039 0 0.0533333 0.039 0 0.06 0.039 0 0.0666667 0.039 0 0.0733333 0.039 0 0.08 0.039 0 0.0866667 0.039 0 0.0933333 0.039 0 0.1 0.039 0 0 0.0396667 0 0.00666667 0.0396667 0 0.0133333 0.0396667 0 0.02 0.0396667 0 0.0266667 0.0396667 0 0.0333333 0.0396667 0 0.04 0.0396667 0 0.0466667 0.0396667 0 0.0533333 0.0396667 0 0.06 0.0396667 0 0.0666667 0.0396667 0 0.0733333 0.0396667 0 0.08 0.0396667 0 0.0866667 0.0396667 0 0.0933333 0.0396667 0 0.1 0.0396667 0 0 0.0403333 0 0.00666667 0.0403333 0 0.0133333 0.0403333 0 0.02 0.0403333 0 0.0266667 0.0403333 0 0.0333333 0.0403333 0 0.04 0.0403333 0 0.0466667 0.0403333 0 0.0533333 0.0403333 0 0.06 0.0403333 0 0.0666667 0.0403333 0 0.0733333 0.0403333 0 0.08 0.0403333 0 0.0866667 0.0403333 0 0.0933333 0.0403333 0 0.1 0.0403333 0 0 0.041 0 0.00666667 0.041 0 0.0133333 0.041 0 0.02 0.041 0 0.0266667 0.041 0 0.0333333 0.041 0 0.04 0.041 0 0.0466667 0.041 0 0.0533333 0.041 0 0.06 0.041 0 0.0666667 0.041 0 0.0733333 0.041 0 0.08 0.041 0 0.0866667 0.041 0 0.0933333 0.041 0 0.1 0.041 0 0 0.0416667 0 0.00666667 0.0416667 0 0.0133333 0.0416667 0 0.02 0.0416667 0 0.0266667 0.0416667 0 0.0333333 0.0416667 0 0.04 0.0416667 0 0.0466667 0.0416667 0 0.0533333 0.0416667 0 0.06 0.0416667 0 0.0666667 0.0416667 0 0.0733333 0.0416667 0 0.08 0.0416667 0 0.0866667 0.0416667 0 0.0933333 0.0416667 0 0.1 0.0416667 0 0 0.0423333 0 0.00666667 0.0423333 0 0.0133333 0.0423333 0 0.02 0.0423333 0 0.0266667 0.0423333 0 0.0333333 0.0423333 0 0.04 0.0423333 0 0.0466667 0.0423333 0 0.0533333 0.0423333 0 0.06 0.0423333 0 0.0666667 0.0423333 0 0.0733333 0.0423333 0 0.08 0.0423333 0 0.0866667 0.0423333 0 0.0933333 0.0423333 0 0.1 0.0423333 0 0 0.043 0 0.00666667 0.043 0 0.0133333 0.043 0 0.02 0.043 0 0.0266667 0.043 0 0.0333333 0.043 0 0.04 0.043 0 0.0466667 0.043 0 0.0533333 0.043 0 0.06 0.043 0 0.0666667 0.043 0 0.0733333 0.043 0 0.08 0.043 0 0.0866667 0.043 0 0.0933333 0.043 0 0.1 0.043 0 0 0.0436667 0 0.00666667 0.0436667 0 0.0133333 0.0436667 0 0.02 0.0436667 0 0.0266667 0.0436667 0 0.0333333 0.0436667 0 0.04 0.0436667 0 0.0466667 0.0436667 0 0.0533333 0.0436667 0 0.06 0.0436667 0 0.0666667 0.0436667 0 0.0733333 0.0436667 0 0.08 0.0436667 0 0.0866667 0.0436667 0 0.0933333 0.0436667 0 0.1 0.0436667 0 0 0.0443333 0 0.00666667 0.0443333 0 0.0133333 0.0443333 0 0.02 0.0443333 0 0.0266667 0.0443333 0 0.0333333 0.0443333 0 0.04 0.0443333 0 0.0466667 0.0443333 0 0.0533333 0.0443333 0 0.06 0.0443333 0 0.0666667 0.0443333 0 0.0733333 0.0443333 0 0.08 0.0443333 0 0.0866667 0.0443333 0 0.0933333 0.0443333 0 0.1 0.0443333 0 0 0.045 0 0.00666667 0.045 0 0.0133333 0.045 0 0.02 0.045 0 0.0266667 0.045 0 0.0333333 0.045 0 0.04 0.045 0 0.0466667 0.045 0 0.0533333 0.045 0 0.06 0.045 0 0.0666667 0.045 0 0.0733333 0.045 0 0.08 0.045 0 0.0866667 0.045 0 0.0933333 0.045 0 0.1 0.045 0 
</DataArray>
</Points> 
</Piece> 
</StructuredGrid> 
</VTKFile> 
