<?xml version="1.0"?> 
<VTKFile type="StructuredGrid" version="0.1"> 
<StructuredGrid WholeExtent="0 15 0 15 0 0"> 
<Piece Extent="0 15 0 15 0 0"> 
<PointData>
<DataArray type="Float32" Name="E" format="ascii" NumberOfComponents="3"> 
1.03755e+06 -431458 0 1.57388e+06 -202927 0 1.71176e+06 -44026.1 0 1.68572e+06 56851.5 0 1.56475e+06 111498 0 1.40908e+06 125687 0 1.2521e+06 122294 0 1.10753e+06 109841 0 981342 94869.2 0 874290 79471.6 0 785991 64745.9 0 715253 50830.8 0 661135 37610.3 0 622880 24862.6 0 600068 12374.8 0 592485 0 0 1.09161e+06 -453935 0 1.58641e+06 -212582 0 1.72051e+06 -44448.7 0 1.68847e+06 63618.3 0 1.56396e+06 119999 0 1.40682e+06 134688 0 1.24944e+06 130565 0 1.10506e+06 117184 0 979199 101142 0 872532 84718.9 0 784562 69017.9 0 714098 54187.7 0 660182 40097.1 0 622067 26507.8 0 599335 13194.6 0 591777 0 0 1.14069e+06 -474347 0 1.60014e+06 -221812 0 1.72954e+06 -44184.2 0 1.69134e+06 70662.2 0 1.56318e+06 128693 0 1.40453e+06 143731 0 1.24673e+06 138844 0 1.10252e+06 124508 0 976999 107393 0 870717 89944.7 0 783081 73272.2 0 712893 57531 0 659181 42574.3 0 621207 28147 0 598555 14011.3 0 591023 0 0 1.18569e+06 -493061 0 1.61493e+06 -230553 0 1.73885e+06 -43249.3 0 1.69433e+06 78003 0 1.56241e+06 137575 0 1.40219e+06 152819 0 1.24397e+06 147128 0 1.09993e+06 131812 0 974743 113621 0 868848 95148.8 0 781549 77508.8 0 711639 60860.8 0 658133 45041.8 0 620299 29780 0 597728 14825.2 0 590223 0 0 1.22736e+06 -510385 0 1.63066e+06 -238754 0 1.74844e+06 -41653.7 0 1.69741e+06 85657.5 0 1.56164e+06 146642 0 1.39981e+06 161953 0 1.24115e+06 155418 0 1.09728e+06 139097 0 972429 119827 0 866922 100331 0 779965 81727.3 0 710335 64176.7 0 657036 47499.5 0 619345 31407 0 596856 15636 0 589377 0 0 1.26629e+06 -526576 0 1.64722e+06 -246377 0 1.75831e+06 -39401.2 0 1.70058e+06 93639.9 0 1.56085e+06 155891 0 1.39737e+06 171135 0 1.23827e+06 163712 0 1.09456e+06 146363 0 970058 126009 0 864942 105491 0 778329 85927.7 0 708982 67478.8 0 655892 49947.4 0 618344 33027.7 0 595936 16443.8 0 588484 0 0 1.30302e+06 -541851 0 1.66453e+06 -253396 0 1.76846e+06 -36490.2 0 1.7038e+06 101961 0 1.56003e+06 165320 0 1.39487e+06 180367 0 1.23534e+06 172009 0 1.09178e+06 153609 0 967629 132168 0 862906 110629 0 776642 90109.7 0 707580 70766.9 0 654701 52385.4 0 617296 34642.3 0 594971 17248.6 0 587545 0 0 1.338e+06 -556396 0 1.68253e+06 -259789 0 1.77888e+06 -32914.2 0 1.70708e+06 110631 0 1.55919e+06 174929 0 1.39231e+06 189648 0 1.23234e+06 180310 0 1.08894e+06 160836 0 965142 138304 0 860815 115745 0 774904 94273.1 0 706128 74040.8 0 653462 54813.4 0 616201 36250.6 0 593958 18050.4 0 586559 0 0 1.37162e+06 -570375 0 1.70119e+06 -265541 0 1.78956e+06 -28662.3 0 1.71038e+06 119654 0 1.55829e+06 184716 0 1.38969e+06 198978 0 1.22928e+06 188613 0 1.08603e+06 168044 0 962597 144415 0 858669 120837 0 773114 98417.8 0 704627 77300.5 0 652175 57231.3 0 615060 37852.5 0 592900 18849.2 0 585528 0 0 1.40421e+06 -583930 0 1.72045e+06 -270642 0 1.8005e+06 -23718.9 0 1.71369e+06 129036 0 1.55735e+06 194681 0 1.387e+06 208356 0 1.22616e+06 196918 0 1.08306e+06 175231 0 959993 150502 0 856468 125907 0 771273 102543 0 703077 80545.7 0 650842 59639.1 0 613872 39448.1 0 591795 19644.9 0 584450 0 0 1.43611e+06 -597194 0 1.74028e+06 -275087 0 1.81166e+06 -18063.5 0 1.717e+06 138776 0 1.55634e+06 204825 0 1.38423e+06 217781 0 1.22296e+06 205225 0 1.08003e+06 182398 0 957331 156565 0 854212 130954 0 769382 106650 0 701479 83776.4 0 649461 62036.6 0 612638 41037.4 0 590644 20437.6 0 583325 0 0 1.4676e+06 -610289 0 1.76067e+06 -278874 0 1.82306e+06 -11670 0 1.72028e+06 148870 0 1.55526e+06 215151 0 1.38138e+06 227248 0 1.2197e+06 213534 0 1.07693e+06 189542 0 954610 162603 0 851901 135976 0 767439 110737 0 699832 86992.4 0 648032 64423.9 0 611357 42620.2 0 589447 21227.2 0 582155 0 0 1.49897e+06 -623336 0 1.78159e+06 -282006 0 1.83465e+06 -4505.91 0 1.72353e+06 159312 0 1.55409e+06 225662 0 1.37845e+06 236752 0 1.21636e+06 221847 0 1.07376e+06 196663 0 951829 168616 0 849536 140975 0 765445 114805 0 698136 90193.6 0 646557 66800.8 0 610029 44196.6 0 588203 22013.7 0 580938 0 0 1.53052e+06 -636456 0 1.80302e+06 -284494 0 1.84644e+06 3469.33 0 1.72671e+06 170087 0 1.55283e+06 236367 0 1.37544e+06 246288 0 1.21295e+06 230164 0 1.07053e+06 203759 0 948988 174604 0 847115 145949 0 763400 118854 0 696392 93379.9 0 645035 69167.3 0 608655 45766.6 0 586913 22797.1 0 579676 0 0 1.56256e+06 -649776 0 1.82495e+06 -286356 0 1.8584e+06 12306.2 0 1.72981e+06 181174 0 1.55147e+06 247276 0 1.37234e+06 255847 0 1.20946e+06 238489 0 1.06723e+06 210827 0 946088 180569 0 844641 150898 0 761304 122882 0 694599 96551.1 0 643466 71523.3 0 607235 47330.2 0 585577 23577.4 0 578367 0 0 1.5954e+06 -663435 0 1.84734e+06 -287620 0 1.8705e+06 22066.8 0 1.73282e+06 192543 0 1.54998e+06 258403 0 1.36915e+06 265415 0 1.20588e+06 246826 0 1.06387e+06 217863 0 943125 186510 0 842114 155821 0 759158 126892 0 692759 99707.1 0 641849 73868.6 0 605769 48887.3 0 584195 24354.4 0 577011 0 0 </DataArray> 
</PointData> 
<Points> 
<DataArray type="Float32" NumberOfComponents="3"> 
0.1905 0.0099 0 0.202667 0.0099 0 0.214833 0.0099 0 0.227 0.0099 0 0.239167 0.0099 0 0.251333 0.0099 0 0.2635 0.0099 0 0.275667 0.0099 0 0.287833 0.0099 0 0.3 0.0099 0 0.312167 0.0099 0 0.324333 0.0099 0 0.3365 0.0099 0 0.348667 0.0099 0 0.360833 0.0099 0 0.373 0.0099 0 0.19078 0.0105733 0 0.202928 0.0105733 0 0.215076 0.0105733 0 0.227224 0.0105733 0 0.239372 0.0105733 0 0.25152 0.0105733 0 0.263668 0.0105733 0 0.275816 0.0105733 0 0.287964 0.0105733 0 0.300112 0.0105733 0 0.31226 0.0105733 0 0.324408 0.0105733 0 0.336556 0.0105733 0 0.348704 0.0105733 0 0.360852 0.0105733 0 0.373 0.0105733 0 0.19106 0.0112467 0 0.203189 0.0112467 0 0.215319 0.0112467 0 0.227448 0.0112467 0 0.239577 0.0112467 0 0.251707 0.0112467 0 0.263836 0.0112467 0 0.275965 0.0112467 0 0.288095 0.0112467 0 0.300224 0.0112467 0 0.312353 0.0112467 0 0.324483 0.0112467 0 0.336612 0.0112467 0 0.348741 0.0112467 0 0.360871 0.0112467 0 0.373 0.0112467 0 0.19134 0.01192 0 0.203451 0.01192 0 0.215561 0.01192 0 0.227672 0.01192 0 0.239783 0.01192 0 0.251893 0.01192 0 0.264004 0.01192 0 0.276115 0.01192 0 0.288225 0.01192 0 0.300336 0.01192 0 0.312447 0.01192 0 0.324557 0.01192 0 0.336668 0.01192 0 0.348779 0.01192 0 0.360889 0.01192 0 0.373 0.01192 0 0.19162 0.0125933 0 0.203712 0.0125933 0 0.215804 0.0125933 0 0.227896 0.0125933 0 0.239988 0.0125933 0 0.25208 0.0125933 0 0.264172 0.0125933 0 0.276264 0.0125933 0 0.288356 0.0125933 0 0.300448 0.0125933 0 0.31254 0.0125933 0 0.324632 0.0125933 0 0.336724 0.0125933 0 0.348816 0.0125933 0 0.360908 0.0125933 0 0.373 0.0125933 0 0.1919 0.0132667 0 0.203973 0.0132667 0 0.216047 0.0132667 0 0.22812 0.0132667 0 0.240193 0.0132667 0 0.252267 0.0132667 0 0.26434 0.0132667 0 0.276413 0.0132667 0 0.288487 0.0132667 0 0.30056 0.0132667 0 0.312633 0.0132667 0 0.324707 0.0132667 0 0.33678 0.0132667 0 0.348853 0.0132667 0 0.360927 0.0132667 0 0.373 0.0132667 0 0.19218 0.01394 0 0.204235 0.01394 0 0.216289 0.01394 0 0.228344 0.01394 0 0.240399 0.01394 0 0.252453 0.01394 0 0.264508 0.01394 0 0.276563 0.01394 0 0.288617 0.01394 0 0.300672 0.01394 0 0.312727 0.01394 0 0.324781 0.01394 0 0.336836 0.01394 0 0.348891 0.01394 0 0.360945 0.01394 0 0.373 0.01394 0 0.19246 0.0146133 0 0.204496 0.0146133 0 0.216532 0.0146133 0 0.228568 0.0146133 0 0.240604 0.0146133 0 0.25264 0.0146133 0 0.264676 0.0146133 0 0.276712 0.0146133 0 0.288748 0.0146133 0 0.300784 0.0146133 0 0.31282 0.0146133 0 0.324856 0.0146133 0 0.336892 0.0146133 0 0.348928 0.0146133 0 0.360964 0.0146133 0 0.373 0.0146133 0 0.19274 0.0152867 0 0.204757 0.0152867 0 0.216775 0.0152867 0 0.228792 0.0152867 0 0.240809 0.0152867 0 0.252827 0.0152867 0 0.264844 0.0152867 0 0.276861 0.0152867 0 0.288879 0.0152867 0 0.300896 0.0152867 0 0.312913 0.0152867 0 0.324931 0.0152867 0 0.336948 0.0152867 0 0.348965 0.0152867 0 0.360983 0.0152867 0 0.373 0.0152867 0 0.19302 0.01596 0 0.205019 0.01596 0 0.217017 0.01596 0 0.229016 0.01596 0 0.241015 0.01596 0 0.253013 0.01596 0 0.265012 0.01596 0 0.277011 0.01596 0 0.289009 0.01596 0 0.301008 0.01596 0 0.313007 0.01596 0 0.325005 0.01596 0 0.337004 0.01596 0 0.349003 0.01596 0 0.361001 0.01596 0 0.373 0.01596 0 0.1933 0.0166333 0 0.20528 0.0166333 0 0.21726 0.0166333 0 0.22924 0.0166333 0 0.24122 0.0166333 0 0.2532 0.0166333 0 0.26518 0.0166333 0 0.27716 0.0166333 0 0.28914 0.0166333 0 0.30112 0.0166333 0 0.3131 0.0166333 0 0.32508 0.0166333 0 0.33706 0.0166333 0 0.34904 0.0166333 0 0.36102 0.0166333 0 0.373 0.0166333 0 0.19358 0.0173067 0 0.205541 0.0173067 0 0.217503 0.0173067 0 0.229464 0.0173067 0 0.241425 0.0173067 0 0.253387 0.0173067 0 0.265348 0.0173067 0 0.277309 0.0173067 0 0.289271 0.0173067 0 0.301232 0.0173067 0 0.313193 0.0173067 0 0.325155 0.0173067 0 0.337116 0.0173067 0 0.349077 0.0173067 0 0.361039 0.0173067 0 0.373 0.0173067 0 0.19386 0.01798 0 0.205803 0.01798 0 0.217745 0.01798 0 0.229688 0.01798 0 0.241631 0.01798 0 0.253573 0.01798 0 0.265516 0.01798 0 0.277459 0.01798 0 0.289401 0.01798 0 0.301344 0.01798 0 0.313287 0.01798 0 0.325229 0.01798 0 0.337172 0.01798 0 0.349115 0.01798 0 0.361057 0.01798 0 0.373 0.01798 0 0.19414 0.0186533 0 0.206064 0.0186533 0 0.217988 0.0186533 0 0.229912 0.0186533 0 0.241836 0.0186533 0 0.25376 0.0186533 0 0.265684 0.0186533 0 0.277608 0.0186533 0 0.289532 0.0186533 0 0.301456 0.0186533 0 0.31338 0.0186533 0 0.325304 0.0186533 0 0.337228 0.0186533 0 0.349152 0.0186533 0 0.361076 0.0186533 0 0.373 0.0186533 0 0.19442 0.0193267 0 0.206325 0.0193267 0 0.218231 0.0193267 0 0.230136 0.0193267 0 0.242041 0.0193267 0 0.253947 0.0193267 0 0.265852 0.0193267 0 0.277757 0.0193267 0 0.289663 0.0193267 0 0.301568 0.0193267 0 0.313473 0.0193267 0 0.325379 0.0193267 0 0.337284 0.0193267 0 0.349189 0.0193267 0 0.361095 0.0193267 0 0.373 0.0193267 0 0.1947 0.02 0 0.206587 0.02 0 0.218473 0.02 0 0.23036 0.02 0 0.242247 0.02 0 0.254133 0.02 0 0.26602 0.02 0 0.277907 0.02 0 0.289793 0.02 0 0.30168 0.02 0 0.313567 0.02 0 0.325453 0.02 0 0.33734 0.02 0 0.349227 0.02 0 0.361113 0.02 0 0.373 0.02 0 
</DataArray>
</Points> 
</Piece> 
</StructuredGrid> 
</VTKFile> 
