<?xml version="1.0"?> 
<VTKFile type="StructuredGrid" version="0.1"> 
<StructuredGrid WholeExtent="0 15 0 15 0 0"> 
<Piece Extent="0 15 0 15 0 0"> 
<PointData>
<DataArray type="Float32" Name="E" format="ascii" NumberOfComponents="3"> 
-373314 0 0 -374035 -0.163142 0 -376202 -0.32564 0 -379822 -0.486809 0 -384906 -0.645885 0 -391470 -0.80198 0 -399535 -0.954043 0 -409125 -1.10081 0 -420271 -1.24075 0 -433003 -1.37203 0 -447361 -1.49244 0 -463385 -1.59936 0 -481118 -1.68969 0 -500608 -1.7598 0 -521903 -1.80551 0 -545054 -1.82213 0 -371311 0 0 -372029 2402.72 0 -374187 4813.15 0 -377791 7238.99 0 -382853 9687.86 0 -389388 12167.3 0 -397418 14684.7 0 -406968 17247.3 0 -418067 19862 0 -430748 22535.6 0 -445049 25274.3 0 -461012 28083.8 0 -478680 30969.5 0 -498101 33935.6 0 -519325 36985.7 0 -542404 40122 0 -365321 0 0 -366030 4783.91 0 -368158 9583.33 0 -371714 14413.7 0 -376708 19290.4 0 -383158 24228.6 0 -391084 29243.2 0 -400511 34348.9 0 -411471 39559.7 0 -423996 44889.3 0 -438126 50350.4 0 -453903 55955.1 0 -471374 61713.9 0 -490587 67636.3 0 -511596 73729.7 0 -534454 79999.4 0 -355398 0 0 -356090 7121.97 0 -358170 14267.4 0 -361645 21459.6 0 -366526 28721.9 0 -372831 36077.3 0 -380582 43548.5 0 -389803 51157.8 0 -400528 58926.9 0 -412790 66876.6 0 -426631 75026.9 0 -442094 83396.6 0 -459229 92002.6 0 -478089 100860 0 -498729 109981 0 -521209 119377 0 -341631 0 0 -342301 9394.82 0 -344312 18821.2 0 -347672 28310.6 0 -352394 37894.5 0 -358495 47603.9 0 -365996 57469.6 0 -374926 67522.1 0 -385316 77791 0 -397204 88305.3 0 -410631 99092.6 0 -425645 110179 0 -442298 121590 0 -460646 133347 0 -480752 145470 0 -502680 157973 0 -324148 0 0 -324788 11579.9 0 -326710 23199.7 0 -329922 34899.1 0 -334436 46717.9 0 -340271 58695.6 0 -347448 70871.5 0 -355997 83284.3 0 -365949 95972.6 0 -377345 108974 0 -390228 122325 0 -404648 136060 0 -420661 150214 0 -438327 164816 0 -457715 179895 0 -478895 195475 0 -303115 0 0 -303718 13654.3 0 -305530 27356.8 0 -308559 41155.9 0 -312816 55099.7 0 -318321 69236.5 0 -325097 83614.2 0 -333171 98280.9 0 -342579 113284 0 -353360 128670 0 -365560 144486 0 -379232 160777 0 -394434 177587 0 -411232 194956 0 -429699 212925 0 -449914 231528 0 -278736 0 0 -279295 15594.5 0 -280976 31245.7 0 -283785 47010.4 0 -287737 62945.4 0 -292848 79107.7 0 -299141 95554.3 0 -306647 112342 0 -315399 129529 0 -325437 147172 0 -336810 165328 0 -349571 184052 0 -363781 203401 0 -379509 223429 0 -396833 244188 0 -415837 265728 0 -251253 0 0 -251761 17377.2 0 -253290 34819.5 0 -255845 52391.9 0 -259441 70159.9 0 -264093 88189.1 0 -269825 106546 0 -276666 125296 0 -284649 144508 0 -293815 164249 0 -304211 184587 0 -315891 205591 0 -328918 227329 0 -343362 249870 0 -359303 273281 0 -376831 297629 0 -220948 0 0 -221399 18979.5 0 -222755 38031.9 0 -225022 57230.6 0 -228213 76649 0 -232344 96361.5 0 -237436 116443 0 -243517 136970 0 -250620 158018 0 -258783 179668 0 -268051 201998 0 -278479 225090 0 -290126 249026 0 -303064 273891 0 -317371 299769 0 -333140 326747 0 -188141 0 0 -188528 20379.2 0 -189692 40838.7 0 -191638 61459.3 0 -194379 82322.2 0 -197928 103510 0 -202306 125105 0 -207537 147193 0 -213651 169861 0 -220684 193198 0 -228680 217294 0 -237686 242244 0 -247760 268145 0 -258969 295097 0 -271390 323203 0 -285109 352571 0 -153185 0 0 -153503 21555.9 0 -154457 43198.8 0 -156054 65015.8 0 -158302 87095.1 0 -161215 109526 0 -164810 132400 0 -169107 155809 0 -174134 179849 0 -179922 204619 0 -186507 230221 0 -193933 256760 0 -202251 284348 0 -211520 313100 0 -221809 343138 0 -233197 374588 0 -116469 0 0 -116712 22491.7 0 -117442 45075.7 0 -118663 67844.8 0 -120384 90892.8 0 -122613 114315 0 -125365 138209 0 -128657 162674 0 -132510 187813 0 -136949 213734 0 -142004 240547 0 -147709 268369 0 -154108 297323 0 -161247 327539 0 -169183 359153 0 -177983 392314 0 -78406.2 0 0 -78570.4 23171.4 0 -79064 46439.3 0 -79890 69900.4 0 -81053.5 93653 0 -82561.7 117797 0 -84424.1 142434 0 -86652.7 167669 0 -89262.1 193611 0 -92269.9 220374 0 -95697.1 248076 0 -99568.6 276841 0 -103914 306802 0 -108766 338099 0 -114168 370884 0 -120164 405318 0 -39432.7 0 0 -39515.5 23584 0 -39764.4 47266.8 0 -40181 71148.1 0 -40767.9 95328.5 0 -41528.7 119911 0 -42468.4 145000 0 -43593.1 170704 0 -44910.3 197135 0 -46429.2 224412 0 -48160.5 252656 0 -50117.1 281998 0 -52314.2 312576 0 -54769.6 344538 0 -57504.3 378044 0 -60542.9 413265 0 0 0 0 0 23722.3 0 0 47544.3 0 0 71566.5 0 0 95890.4 0 0 120620 0 0 145860 0 0 171722 0 0 198318 0 0 225767 0 0 254194 0 0 283730 0 0 314516 0 0 346703 0 0 380452 0 0 415939 0 </DataArray> 
</PointData> 
<Points> 
<DataArray type="Float32" NumberOfComponents="3"> 
0 0 0 0.0004 0 0 0.0008 0 0 0.0012 0 0 0.0016 0 0 0.002 0 0 0.0024 0 0 0.0028 0 0 0.0032 0 0 0.0036 0 0 0.004 0 0 0.0044 0 0 0.0048 0 0 0.0052 0 0 0.0056 0 0 0.006 0 0 0 0.000666667 0 0.0004 0.000666667 0 0.0008 0.000666667 0 0.0012 0.000666667 0 0.0016 0.000666667 0 0.002 0.000666667 0 0.0024 0.000666667 0 0.0028 0.000666667 0 0.0032 0.000666667 0 0.0036 0.000666667 0 0.004 0.000666667 0 0.0044 0.000666667 0 0.0048 0.000666667 0 0.0052 0.000666667 0 0.0056 0.000666667 0 0.006 0.000666667 0 0 0.00133333 0 0.0004 0.00133333 0 0.0008 0.00133333 0 0.0012 0.00133333 0 0.0016 0.00133333 0 0.002 0.00133333 0 0.0024 0.00133333 0 0.0028 0.00133333 0 0.0032 0.00133333 0 0.0036 0.00133333 0 0.004 0.00133333 0 0.0044 0.00133333 0 0.0048 0.00133333 0 0.0052 0.00133333 0 0.0056 0.00133333 0 0.006 0.00133333 0 0 0.002 0 0.0004 0.002 0 0.0008 0.002 0 0.0012 0.002 0 0.0016 0.002 0 0.002 0.002 0 0.0024 0.002 0 0.0028 0.002 0 0.0032 0.002 0 0.0036 0.002 0 0.004 0.002 0 0.0044 0.002 0 0.0048 0.002 0 0.0052 0.002 0 0.0056 0.002 0 0.006 0.002 0 0 0.00266667 0 0.0004 0.00266667 0 0.0008 0.00266667 0 0.0012 0.00266667 0 0.0016 0.00266667 0 0.002 0.00266667 0 0.0024 0.00266667 0 0.0028 0.00266667 0 0.0032 0.00266667 0 0.0036 0.00266667 0 0.004 0.00266667 0 0.0044 0.00266667 0 0.0048 0.00266667 0 0.0052 0.00266667 0 0.0056 0.00266667 0 0.006 0.00266667 0 0 0.00333333 0 0.0004 0.00333333 0 0.0008 0.00333333 0 0.0012 0.00333333 0 0.0016 0.00333333 0 0.002 0.00333333 0 0.0024 0.00333333 0 0.0028 0.00333333 0 0.0032 0.00333333 0 0.0036 0.00333333 0 0.004 0.00333333 0 0.0044 0.00333333 0 0.0048 0.00333333 0 0.0052 0.00333333 0 0.0056 0.00333333 0 0.006 0.00333333 0 0 0.004 0 0.0004 0.004 0 0.0008 0.004 0 0.0012 0.004 0 0.0016 0.004 0 0.002 0.004 0 0.0024 0.004 0 0.0028 0.004 0 0.0032 0.004 0 0.0036 0.004 0 0.004 0.004 0 0.0044 0.004 0 0.0048 0.004 0 0.0052 0.004 0 0.0056 0.004 0 0.006 0.004 0 0 0.00466667 0 0.0004 0.00466667 0 0.0008 0.00466667 0 0.0012 0.00466667 0 0.0016 0.00466667 0 0.002 0.00466667 0 0.0024 0.00466667 0 0.0028 0.00466667 0 0.0032 0.00466667 0 0.0036 0.00466667 0 0.004 0.00466667 0 0.0044 0.00466667 0 0.0048 0.00466667 0 0.0052 0.00466667 0 0.0056 0.00466667 0 0.006 0.00466667 0 0 0.00533333 0 0.0004 0.00533333 0 0.0008 0.00533333 0 0.0012 0.00533333 0 0.0016 0.00533333 0 0.002 0.00533333 0 0.0024 0.00533333 0 0.0028 0.00533333 0 0.0032 0.00533333 0 0.0036 0.00533333 0 0.004 0.00533333 0 0.0044 0.00533333 0 0.0048 0.00533333 0 0.0052 0.00533333 0 0.0056 0.00533333 0 0.006 0.00533333 0 0 0.006 0 0.0004 0.006 0 0.0008 0.006 0 0.0012 0.006 0 0.0016 0.006 0 0.002 0.006 0 0.0024 0.006 0 0.0028 0.006 0 0.0032 0.006 0 0.0036 0.006 0 0.004 0.006 0 0.0044 0.006 0 0.0048 0.006 0 0.0052 0.006 0 0.0056 0.006 0 0.006 0.006 0 0 0.00666667 0 0.0004 0.00666667 0 0.0008 0.00666667 0 0.0012 0.00666667 0 0.0016 0.00666667 0 0.002 0.00666667 0 0.0024 0.00666667 0 0.0028 0.00666667 0 0.0032 0.00666667 0 0.0036 0.00666667 0 0.004 0.00666667 0 0.0044 0.00666667 0 0.0048 0.00666667 0 0.0052 0.00666667 0 0.0056 0.00666667 0 0.006 0.00666667 0 0 0.00733333 0 0.0004 0.00733333 0 0.0008 0.00733333 0 0.0012 0.00733333 0 0.0016 0.00733333 0 0.002 0.00733333 0 0.0024 0.00733333 0 0.0028 0.00733333 0 0.0032 0.00733333 0 0.0036 0.00733333 0 0.004 0.00733333 0 0.0044 0.00733333 0 0.0048 0.00733333 0 0.0052 0.00733333 0 0.0056 0.00733333 0 0.006 0.00733333 0 0 0.008 0 0.0004 0.008 0 0.0008 0.008 0 0.0012 0.008 0 0.0016 0.008 0 0.002 0.008 0 0.0024 0.008 0 0.0028 0.008 0 0.0032 0.008 0 0.0036 0.008 0 0.004 0.008 0 0.0044 0.008 0 0.0048 0.008 0 0.0052 0.008 0 0.0056 0.008 0 0.006 0.008 0 0 0.00866667 0 0.0004 0.00866667 0 0.0008 0.00866667 0 0.0012 0.00866667 0 0.0016 0.00866667 0 0.002 0.00866667 0 0.0024 0.00866667 0 0.0028 0.00866667 0 0.0032 0.00866667 0 0.0036 0.00866667 0 0.004 0.00866667 0 0.0044 0.00866667 0 0.0048 0.00866667 0 0.0052 0.00866667 0 0.0056 0.00866667 0 0.006 0.00866667 0 0 0.00933333 0 0.0004 0.00933333 0 0.0008 0.00933333 0 0.0012 0.00933333 0 0.0016 0.00933333 0 0.002 0.00933333 0 0.0024 0.00933333 0 0.0028 0.00933333 0 0.0032 0.00933333 0 0.0036 0.00933333 0 0.004 0.00933333 0 0.0044 0.00933333 0 0.0048 0.00933333 0 0.0052 0.00933333 0 0.0056 0.00933333 0 0.006 0.00933333 0 0 0.01 0 0.0004 0.01 0 0.0008 0.01 0 0.0012 0.01 0 0.0016 0.01 0 0.002 0.01 0 0.0024 0.01 0 0.0028 0.01 0 0.0032 0.01 0 0.0036 0.01 0 0.004 0.01 0 0.0044 0.01 0 0.0048 0.01 0 0.0052 0.01 0 0.0056 0.01 0 0.006 0.01 0 
</DataArray>
</Points> 
</Piece> 
</StructuredGrid> 
</VTKFile> 
