<?xml version="1.0"?> 
<VTKFile type="StructuredGrid" version="0.1"> 
<StructuredGrid WholeExtent="0 15 0 15 0 0"> 
<Piece Extent="0 15 0 15 0 0"> 
<PointData>
<DataArray type="Float32" Name="E" format="ascii" NumberOfComponents="3"> 
-1.74776e+06 8.55583 0 -2.28686e+06 0.343704 0 -2.62207e+06 -3.49374 0 -2.79938e+06 -2.44285 0 -2.89859e+06 -1.25378 0 -2.96904e+06 -0.609445 0 -3.03579e+06 -0.290649 0 -3.1109e+06 -0.128751 0 -3.20005e+06 -0.0238824 0 -3.30527e+06 0.0813893 0 -3.42581e+06 0.23176 0 -3.55746e+06 0.45221 0 -3.69105e+06 0.708308 0 -3.81104e+06 0.842757 0 -3.89653e+06 0.614349 0 -3.92792e+06 3.21865e-06 0 -1.74872e+06 103504 0 -2.29002e+06 74561.8 0 -2.62435e+06 40734.7 0 -2.80046e+06 21515.8 0 -2.89897e+06 13342.5 0 -2.96908e+06 11130.6 0 -3.03566e+06 11780.4 0 -3.1107e+06 13816.2 0 -3.19981e+06 16453.2 0 -3.30505e+06 19200.3 0 -3.42564e+06 21560.5 0 -3.55742e+06 22840.2 0 -3.69124e+06 22044.5 0 -3.81153e+06 18060 0 -3.89732e+06 10359.9 0 -3.92884e+06 -3.64031e-07 0 -1.75163e+06 208355 0 -2.29958e+06 149160 0 -2.6312e+06 80995 0 -2.80367e+06 42715.8 0 -2.90011e+06 26518.8 0 -2.96919e+06 22183 0 -3.03527e+06 23522.2 0 -3.11008e+06 27615.8 0 -3.19911e+06 32903.2 0 -3.30438e+06 38411.3 0 -3.42514e+06 43151.3 0 -3.55731e+06 45739.7 0 -3.6918e+06 44182.2 0 -3.81302e+06 36231.3 0 -3.8997e+06 20801.2 0 -3.93161e+06 9.49949e-08 0 -1.75663e+06 315963 0 -2.31587e+06 223789 0 -2.64261e+06 120295 0 -2.80898e+06 63286.4 0 -2.90198e+06 39366.2 0 -2.96936e+06 33080.4 0 -3.03462e+06 35187.7 0 -3.10904e+06 41382.6 0 -3.19793e+06 49346.6 0 -3.30325e+06 57643.4 0 -3.42431e+06 64802.3 0 -3.55711e+06 68757.3 0 -3.69273e+06 66506.2 0 -3.8155e+06 54625.9 0 -3.90369e+06 31406.5 0 -3.93625e+06 1.76951e-08 0 -1.76398e+06 427957 0 -2.33939e+06 298351 0 -2.65857e+06 158117 0 -2.8163e+06 82914.4 0 -2.90452e+06 51726.2 0 -2.96957e+06 43748 0 -3.03369e+06 46740.3 0 -3.10759e+06 55100.7 0 -3.19628e+06 65780.3 0 -3.30166e+06 76906.6 0 -3.42312e+06 86542.8 0 -3.55682e+06 91951.6 0 -3.69401e+06 89110.7 0 -3.81897e+06 73359.4 0 -3.90931e+06 42262 0 -3.94281e+06 -9.31323e-09 0 -1.7741e+06 546182 0 -2.3709e+06 372585 0 -2.67906e+06 193911 0 -2.82551e+06 101285 0 -2.90767e+06 63450.7 0 -2.96978e+06 54113.4 0 -3.03246e+06 58145.3 0 -3.1057e+06 68754.7 0 -3.19413e+06 82200.9 0 -3.2996e+06 96210.6 0 -3.42156e+06 108401 0 -3.55641e+06 115381 0 -3.69562e+06 112091 0 -3.82343e+06 92551.5 0 -3.91659e+06 53459.1 0 -3.95134e+06 -7.45058e-09 0 -1.78765e+06 673143 0 -2.41145e+06 445984 0 -2.70397e+06 227088 0 -2.83646e+06 118084 0 -2.91134e+06 74403.4 0 -2.96995e+06 64107.2 0 -3.03092e+06 69371.1 0 -3.10337e+06 82329.6 0 -3.1915e+06 98605.3 0 -3.29707e+06 115564 0 -3.41963e+06 130405 0 -3.55586e+06 139101 0 -3.69755e+06 135544 0 -3.82889e+06 112328 0 -3.92559e+06 65096.6 0 -3.96192e+06 1.86265e-08 0 -1.8057e+06 811744 0 -2.46238e+06 517630 0 -2.73313e+06 257054 0 -2.84896e+06 132979 0 -2.91542e+06 84476.2 0 -2.97003e+06 73657.9 0 -3.02903e+06 80392.1 0 -3.10058e+06 95809.9 0 -3.18835e+06 114991 0 -3.29404e+06 134975 0 -3.41729e+06 152580 0 -3.55513e+06 163169 0 -3.69974e+06 159567 0 -3.83533e+06 132822 0 -3.93636e+06 77282.8 0 -3.97464e+06 7.45058e-09 0 -1.83028e+06 966839 0 -2.52534e+06 586049 0 -2.76621e+06 283208 0 -2.86277e+06 145635 0 -2.9198e+06 93587.3 0 -2.96996e+06 82694.5 0 -3.02677e+06 91188.6 0 -3.09732e+06 109180 0 -3.18469e+06 131355 0 -3.29049e+06 154450 0 -3.41452e+06 174950 0 -3.55419e+06 187639 0 -3.70217e+06 184262 0 -3.84275e+06 154176 0 -3.94897e+06 90138.3 0 -3.98963e+06 8.9407e-08 0 -1.86482e+06 1.14419e+06 0 -2.60235e+06 648846 0 -2.80269e+06 305088 0 -2.87761e+06 155641 0 -2.92436e+06 101724 0 -2.96967e+06 91126.1 0 -3.02413e+06 101758 0 -3.09357e+06 122419 0 -3.18049e+06 147699 0 -3.28642e+06 173992 0 -3.41128e+06 197537 0 -3.55299e+06 212563 0 -3.70478e+06 209730 0 -3.85114e+06 176545 0 -3.96351e+06 103800 0 -4.00703e+06 -2.45869e-07 0 -1.91763e+06 1.35598e+06 0 -2.69549e+06 702573 0 -2.8418e+06 322264 0 -2.89317e+06 162606 0 -2.92896e+06 108907 0 -2.96907e+06 98861.1 0 -3.02107e+06 112105 0 -3.0893e+06 135505 0 -3.17576e+06 164024 0 -3.2818e+06 193604 0 -3.40756e+06 220361 0 -3.55147e+06 237989 0 -3.70752e+06 236074 0 -3.86049e+06 200097 0 -3.98008e+06 118423 0 -4.02702e+06 1.78814e-07 0 -2.00485e+06 1.62027e+06 0 -2.80664e+06 742289 0 -2.88247e+06 334496 0 -2.90907e+06 166102 0 -2.93352e+06 115228 0 -2.96803e+06 105786 0 -3.0176e+06 122259 0 -3.08447e+06 148410 0 -3.17047e+06 180334 0 -3.27659e+06 213286 0 -3.40331e+06 243438 0 -3.54958e+06 263964 0 -3.71031e+06 263399 0 -3.87076e+06 225013 0 -3.99878e+06 134188 0 -4.04982e+06 1.49012e-08 0 -2.17286e+06 1.98284e+06 0 -2.93529e+06 762578 0 -2.9235e+06 340567 0 -2.9249e+06 166374 0 -2.93793e+06 120495 0 -2.96643e+06 111938 0 -3.01372e+06 132186 0 -3.07903e+06 161131 0 -3.16465e+06 196625 0 -3.27077e+06 233037 0 -3.3985e+06 266781 0 -3.54725e+06 290531 0 -3.71307e+06 291809 0 -3.88191e+06 251495 0 -4.01975e+06 151307 0 -4.07568e+06 -2.38419e-07 0 -2.53334e+06 2.56048e+06 0 -3.07462e+06 761326 0 -2.96399e+06 334913 0 -2.94022e+06 166310 0 -2.94205e+06 123213 0 -2.96417e+06 118013 0 -3.0094e+06 141557 0 -3.07295e+06 173804 0 -3.15827e+06 212835 0 -3.2643e+06 252878 0 -3.39309e+06 290390 0 -3.5444e+06 317726 0 -3.71569e+06 321408 0 -3.89389e+06 279762 0 -4.04314e+06 170029 0 -4.10491e+06 1.93715e-07 0 -3.46066e+06 3.72921e+06 0 -3.19263e+06 756855 0 -3.00564e+06 292931 0 -2.95475e+06 179861 0 -2.94511e+06 116162 0 -2.96169e+06 127582 0 -3.00426e+06 148681 0 -3.06643e+06 187183 0 -3.15119e+06 228641 0 -3.25724e+06 272926 0 -3.387e+06 314234 0 -3.54097e+06 345584 0 -3.71806e+06 352303 0 -3.90664e+06 310046 0 -4.0691e+06 190663 0 -4.1379e+06 -3.27826e-07 0 -6.38145e+06 7.70626e+06 0 -3.16104e+06 894250 0 -3.06172e+06 75257.5 0 -2.96946e+06 286418 0 -2.94329e+06 57865.4 0 -2.96208e+06 161402 0 -2.99604e+06 143637 0 -3.06084e+06 205764 0 -3.14257e+06 242140 0 -3.25001e+06 293887 0 -3.37993e+06 338098 0 -3.537e+06 374147 0 -3.71996e+06 384634 0 -3.92006e+06 342550 0 -4.09781e+06 213622 0 -4.17505e+06 1.90735e-06 0 </DataArray> 
</PointData> 
<Points> 
<DataArray type="Float32" NumberOfComponents="3"> 
0.016 0 0 0.0199333 0 0 0.0238667 0 0 0.0278 0 0 0.0317333 0 0 0.0356667 0 0 0.0396 0 0 0.0435333 0 0 0.0474667 0 0 0.0514 0 0 0.0553333 0 0 0.0592667 0 0 0.0632 0 0 0.0671333 0 0 0.0710667 0 0 0.075 0 0 0.016 0.000666667 0 0.0199333 0.000666667 0 0.0238667 0.000666667 0 0.0278 0.000666667 0 0.0317333 0.000666667 0 0.0356667 0.000666667 0 0.0396 0.000666667 0 0.0435333 0.000666667 0 0.0474667 0.000666667 0 0.0514 0.000666667 0 0.0553333 0.000666667 0 0.0592667 0.000666667 0 0.0632 0.000666667 0 0.0671333 0.000666667 0 0.0710667 0.000666667 0 0.075 0.000666667 0 0.016 0.00133333 0 0.0199333 0.00133333 0 0.0238667 0.00133333 0 0.0278 0.00133333 0 0.0317333 0.00133333 0 0.0356667 0.00133333 0 0.0396 0.00133333 0 0.0435333 0.00133333 0 0.0474667 0.00133333 0 0.0514 0.00133333 0 0.0553333 0.00133333 0 0.0592667 0.00133333 0 0.0632 0.00133333 0 0.0671333 0.00133333 0 0.0710667 0.00133333 0 0.075 0.00133333 0 0.016 0.002 0 0.0199333 0.002 0 0.0238667 0.002 0 0.0278 0.002 0 0.0317333 0.002 0 0.0356667 0.002 0 0.0396 0.002 0 0.0435333 0.002 0 0.0474667 0.002 0 0.0514 0.002 0 0.0553333 0.002 0 0.0592667 0.002 0 0.0632 0.002 0 0.0671333 0.002 0 0.0710667 0.002 0 0.075 0.002 0 0.016 0.00266667 0 0.0199333 0.00266667 0 0.0238667 0.00266667 0 0.0278 0.00266667 0 0.0317333 0.00266667 0 0.0356667 0.00266667 0 0.0396 0.00266667 0 0.0435333 0.00266667 0 0.0474667 0.00266667 0 0.0514 0.00266667 0 0.0553333 0.00266667 0 0.0592667 0.00266667 0 0.0632 0.00266667 0 0.0671333 0.00266667 0 0.0710667 0.00266667 0 0.075 0.00266667 0 0.016 0.00333333 0 0.0199333 0.00333333 0 0.0238667 0.00333333 0 0.0278 0.00333333 0 0.0317333 0.00333333 0 0.0356667 0.00333333 0 0.0396 0.00333333 0 0.0435333 0.00333333 0 0.0474667 0.00333333 0 0.0514 0.00333333 0 0.0553333 0.00333333 0 0.0592667 0.00333333 0 0.0632 0.00333333 0 0.0671333 0.00333333 0 0.0710667 0.00333333 0 0.075 0.00333333 0 0.016 0.004 0 0.0199333 0.004 0 0.0238667 0.004 0 0.0278 0.004 0 0.0317333 0.004 0 0.0356667 0.004 0 0.0396 0.004 0 0.0435333 0.004 0 0.0474667 0.004 0 0.0514 0.004 0 0.0553333 0.004 0 0.0592667 0.004 0 0.0632 0.004 0 0.0671333 0.004 0 0.0710667 0.004 0 0.075 0.004 0 0.016 0.00466667 0 0.0199333 0.00466667 0 0.0238667 0.00466667 0 0.0278 0.00466667 0 0.0317333 0.00466667 0 0.0356667 0.00466667 0 0.0396 0.00466667 0 0.0435333 0.00466667 0 0.0474667 0.00466667 0 0.0514 0.00466667 0 0.0553333 0.00466667 0 0.0592667 0.00466667 0 0.0632 0.00466667 0 0.0671333 0.00466667 0 0.0710667 0.00466667 0 0.075 0.00466667 0 0.016 0.00533333 0 0.0199333 0.00533333 0 0.0238667 0.00533333 0 0.0278 0.00533333 0 0.0317333 0.00533333 0 0.0356667 0.00533333 0 0.0396 0.00533333 0 0.0435333 0.00533333 0 0.0474667 0.00533333 0 0.0514 0.00533333 0 0.0553333 0.00533333 0 0.0592667 0.00533333 0 0.0632 0.00533333 0 0.0671333 0.00533333 0 0.0710667 0.00533333 0 0.075 0.00533333 0 0.016 0.006 0 0.0199333 0.006 0 0.0238667 0.006 0 0.0278 0.006 0 0.0317333 0.006 0 0.0356667 0.006 0 0.0396 0.006 0 0.0435333 0.006 0 0.0474667 0.006 0 0.0514 0.006 0 0.0553333 0.006 0 0.0592667 0.006 0 0.0632 0.006 0 0.0671333 0.006 0 0.0710667 0.006 0 0.075 0.006 0 0.016 0.00666667 0 0.0199333 0.00666667 0 0.0238667 0.00666667 0 0.0278 0.00666667 0 0.0317333 0.00666667 0 0.0356667 0.00666667 0 0.0396 0.00666667 0 0.0435333 0.00666667 0 0.0474667 0.00666667 0 0.0514 0.00666667 0 0.0553333 0.00666667 0 0.0592667 0.00666667 0 0.0632 0.00666667 0 0.0671333 0.00666667 0 0.0710667 0.00666667 0 0.075 0.00666667 0 0.016 0.00733333 0 0.0199333 0.00733333 0 0.0238667 0.00733333 0 0.0278 0.00733333 0 0.0317333 0.00733333 0 0.0356667 0.00733333 0 0.0396 0.00733333 0 0.0435333 0.00733333 0 0.0474667 0.00733333 0 0.0514 0.00733333 0 0.0553333 0.00733333 0 0.0592667 0.00733333 0 0.0632 0.00733333 0 0.0671333 0.00733333 0 0.0710667 0.00733333 0 0.075 0.00733333 0 0.016 0.008 0 0.0199333 0.008 0 0.0238667 0.008 0 0.0278 0.008 0 0.0317333 0.008 0 0.0356667 0.008 0 0.0396 0.008 0 0.0435333 0.008 0 0.0474667 0.008 0 0.0514 0.008 0 0.0553333 0.008 0 0.0592667 0.008 0 0.0632 0.008 0 0.0671333 0.008 0 0.0710667 0.008 0 0.075 0.008 0 0.016 0.00866667 0 0.0199333 0.00866667 0 0.0238667 0.00866667 0 0.0278 0.00866667 0 0.0317333 0.00866667 0 0.0356667 0.00866667 0 0.0396 0.00866667 0 0.0435333 0.00866667 0 0.0474667 0.00866667 0 0.0514 0.00866667 0 0.0553333 0.00866667 0 0.0592667 0.00866667 0 0.0632 0.00866667 0 0.0671333 0.00866667 0 0.0710667 0.00866667 0 0.075 0.00866667 0 0.016 0.00933333 0 0.0199333 0.00933333 0 0.0238667 0.00933333 0 0.0278 0.00933333 0 0.0317333 0.00933333 0 0.0356667 0.00933333 0 0.0396 0.00933333 0 0.0435333 0.00933333 0 0.0474667 0.00933333 0 0.0514 0.00933333 0 0.0553333 0.00933333 0 0.0592667 0.00933333 0 0.0632 0.00933333 0 0.0671333 0.00933333 0 0.0710667 0.00933333 0 0.075 0.00933333 0 0.016 0.01 0 0.0199333 0.01 0 0.0238667 0.01 0 0.0278 0.01 0 0.0317333 0.01 0 0.0356667 0.01 0 0.0396 0.01 0 0.0435333 0.01 0 0.0474667 0.01 0 0.0514 0.01 0 0.0553333 0.01 0 0.0592667 0.01 0 0.0632 0.01 0 0.0671333 0.01 0 0.0710667 0.01 0 0.075 0.01 0 
</DataArray>
</Points> 
</Piece> 
</StructuredGrid> 
</VTKFile> 
