<?xml version="1.0"?> 
<VTKFile type="StructuredGrid" version="0.1"> 
<StructuredGrid WholeExtent="0 15 0 15 0 0"> 
<Piece Extent="0 15 0 15 0 0"> 
<PointData>
<DataArray type="Float32" Name="|E|" format="ascii" NumberOfComponents="3"> 
-1.69899e+06 0 0 -1.72019e+06 93944.4 0 -1.77906e+06 206900 0 -1.8606e+06 353516 0 -1.94448e+06 536140 0 -2.01599e+06 745458 0 -2.0695e+06 969563 0 -2.10378e+06 1.19917e+06 0 -2.11879e+06 1.42517e+06 0 -2.11377e+06 1.63857e+06 0 -2.09086e+06 1.82028e+06 0 -2.05722e+06 1.94979e+06 0 -2.03316e+06 1.98639e+06 0 -2.04318e+06 1.86714e+06 0 -2.09122e+06 1.45564e+06 0 -2.2827e+06 1.49604e+06 0 -1.68906e+06 0 0 -1.70794e+06 96209.2 0 -1.76107e+06 209599 0 -1.83541e+06 353020 0 -1.91328e+06 529080 0 -1.98121e+06 730351 0 -2.03338e+06 946394 0 -2.06819e+06 1.16845e+06 0 -2.08584e+06 1.38842e+06 0 -2.08591e+06 1.5974e+06 0 -2.07124e+06 1.78188e+06 0 -2.04773e+06 1.9201e+06 0 -2.03553e+06 1.98856e+06 0 -2.05932e+06 1.92728e+06 0 -2.16882e+06 1.63686e+06 0 -2.21447e+06 945101 0 -1.67868e+06 0 0 -1.69534e+06 98085.5 0 -1.74314e+06 211697 0 -1.81072e+06 352104 0 -1.88274e+06 522036 0 -1.94694e+06 715631 0 -1.99748e+06 923832 0 -2.03249e+06 1.13853e+06 0 -2.05214e+06 1.35234e+06 0 -2.05646e+06 1.55717e+06 0 -2.04823e+06 1.7421e+06 0 -2.03316e+06 1.88956e+06 0 -2.02855e+06 1.97889e+06 0 -2.06021e+06 1.97305e+06 0 -2.18461e+06 1.78838e+06 0 -2.41309e+06 1.18402e+06 0 -1.66785e+06 0 0 -1.6824e+06 99596.4 0 -1.72525e+06 213226 0 -1.78649e+06 350765 0 -1.85283e+06 514964 0 -1.91321e+06 701249 0 -1.96186e+06 901834 0 -1.99672e+06 1.10933e+06 0 -2.01783e+06 1.31695e+06 0 -2.02556e+06 1.51756e+06 0 -2.02246e+06 1.70186e+06 0 -2.01409e+06 1.85633e+06 0 -2.01458e+06 1.96302e+06 0 -2.04928e+06 1.99805e+06 0 -2.16742e+06 1.90378e+06 0 -2.45923e+06 1.54816e+06 0 -1.65659e+06 0 0 -1.66914e+06 100765 0 -1.70738e+06 214216 0 -1.76267e+06 349004 0 -1.82352e+06 507822 0 -1.88001e+06 687151 0 -1.92654e+06 880364 0 -1.96092e+06 1.08079e+06 0 -1.98302e+06 1.28227e+06 0 -1.99341e+06 1.47842e+06 0 -1.99438e+06 1.66144e+06 0 -1.99116e+06 1.8206e+06 0 -1.99524e+06 1.94156e+06 0 -2.02941e+06 2.00715e+06 0 -2.13487e+06 1.98207e+06 0 -2.40526e+06 1.79533e+06 0 -1.64494e+06 0 0 -1.65556e+06 101612 0 -1.6895e+06 214695 0 -1.73923e+06 346821 0 -1.79479e+06 500576 0 -1.84734e+06 673289 0 -1.89156e+06 859374 0 -1.92515e+06 1.05288e+06 0 -1.94781e+06 1.24822e+06 0 -1.96021e+06 1.43975e+06 0 -1.96434e+06 1.62083e+06 0 -1.96502e+06 1.78297e+06 0 -1.97159e+06 1.9148e+06 0 -2.00343e+06 2.00388e+06 0 -2.09393e+06 2.02913e+06 0 -2.32056e+06 1.95614e+06 0 -1.6329e+06 0 0 -1.64169e+06 102156 0 -1.67162e+06 214692 0 -1.71613e+06 344222 0 -1.7666e+06 493193 0 -1.81521e+06 659615 0 -1.85693e+06 838818 0 -1.88945e+06 1.02556e+06 0 -1.9123e+06 1.21479e+06 0 -1.92611e+06 1.40153e+06 0 -1.93267e+06 1.58013e+06 0 -1.93621e+06 1.74373e+06 0 -1.94446e+06 1.88364e+06 0 -1.97317e+06 1.99034e+06 0 -2.04927e+06 2.05186e+06 0 -2.22932e+06 2.05248e+06 0 -1.62049e+06 0 0 -1.62752e+06 102418 0 -1.65371e+06 214231 0 -1.69332e+06 341213 0 -1.73892e+06 485646 0 -1.7836e+06 646081 0 -1.82269e+06 818650 0 -1.85388e+06 998770 0 -1.87655e+06 1.18194e+06 0 -1.89127e+06 1.36374e+06 0 -1.89961e+06 1.53937e+06 0 -1.90519e+06 1.70324e+06 0 -1.91446e+06 1.8487e+06 0 -1.93993e+06 1.96859e+06 0 -2.00295e+06 2.05585e+06 0 -2.14423e+06 2.10435e+06 0 -1.60774e+06 0 0 -1.61308e+06 102413 0 -1.63576e+06 213337 0 -1.67078e+06 337800 0 -1.71172e+06 477911 0 -1.75251e+06 632644 0 -1.78886e+06 798823 0 -1.81848e+06 972484 0 -1.84067e+06 1.14964e+06 0 -1.85584e+06 1.32638e+06 0 -1.86539e+06 1.4986e+06 0 -1.87237e+06 1.66176e+06 0 -1.88212e+06 1.81069e+06 0 -1.90449e+06 1.94008e+06 0 -1.95615e+06 2.04564e+06 0 -2.06631e+06 2.1262e+06 0 -1.59465e+06 0 0 -1.59838e+06 102159 0 -1.61777e+06 212032 0 -1.64848e+06 333992 0 -1.68497e+06 469968 0 -1.72193e+06 619263 0 -1.75543e+06 779290 0 -1.7833e+06 946653 0 -1.8047e+06 1.11785e+06 0 -1.81995e+06 1.28943e+06 0 -1.83022e+06 1.45789e+06 0 -1.83806e+06 1.61948e+06 0 -1.84789e+06 1.7702e+06 0 -1.8674e+06 1.90609e+06 0 -1.90947e+06 2.02447e+06 0 -1.99509e+06 2.12613e+06 0 -1.58125e+06 0 0 -1.58341e+06 101670 0 -1.59972e+06 210338 0 -1.6264e+06 329798 0 -1.65864e+06 461801 0 -1.69183e+06 605899 0 -1.72244e+06 760005 0 -1.74836e+06 921236 0 -1.76873e+06 1.08654e+06 0 -1.78371e+06 1.25288e+06 0 -1.79427e+06 1.41728e+06 0 -1.80253e+06 1.57661e+06 0 -1.81211e+06 1.72774e+06 0 -1.82903e+06 1.86772e+06 0 -1.8631e+06 1.99482e+06 0 -1.92962e+06 2.11055e+06 0 -1.56754e+06 0 0 -1.5682e+06 100961 0 -1.58161e+06 208275 0 -1.60449e+06 325229 0 -1.6327e+06 453394 0 -1.66222e+06 592517 0 -1.68988e+06 740923 0 -1.71371e+06 896190 0 -1.73281e+06 1.05567e+06 0 -1.74722e+06 1.21674e+06 0 -1.75771e+06 1.37681e+06 0 -1.76602e+06 1.5333e+06 0 -1.77509e+06 1.68372e+06 0 -1.78963e+06 1.82585e+06 0 -1.8171e+06 1.95855e+06 0 -1.86864e+06 2.0834e+06 0 -1.55355e+06 0 0 -1.55275e+06 100044 0 -1.56344e+06 205864 0 -1.58275e+06 320293 0 -1.60712e+06 444738 0 -1.63306e+06 579084 0 -1.65776e+06 722002 0 -1.67938e+06 871470 0 -1.69701e+06 1.02522e+06 0 -1.71057e+06 1.18097e+06 0 -1.72068e+06 1.33651e+06 0 -1.72873e+06 1.48969e+06 0 -1.73708e+06 1.63848e+06 0 -1.74943e+06 1.78123e+06 0 -1.77143e+06 1.91713e+06 0 -1.81121e+06 2.04757e+06 0 -1.53927e+06 0 0 -1.53707e+06 98933.6 0 -1.54519e+06 203121 0 -1.56114e+06 315002 0 -1.58187e+06 435824 0 -1.60434e+06 565571 0 -1.62608e+06 703199 0 -1.64539e+06 847033 0 -1.66138e+06 995147 0 -1.67386e+06 1.14558e+06 0 -1.68331e+06 1.29642e+06 0 -1.69083e+06 1.44589e+06 0 -1.69829e+06 1.59232e+06 0 -1.70859e+06 1.73444e+06 0 -1.72601e+06 1.87169e+06 0 -1.75652e+06 2.00518e+06 0 -1.52474e+06 0 0 -1.52117e+06 97639.9 0 -1.52687e+06 200064 0 -1.53966e+06 309367 0 -1.55692e+06 426645 0 -1.57604e+06 551953 0 -1.59484e+06 684475 0 -1.61177e+06 822838 0 -1.62595e+06 965417 0 -1.63716e+06 1.11053e+06 0 -1.64571e+06 1.25656e+06 0 -1.65246e+06 1.40199e+06 0 -1.65889e+06 1.54547e+06 0 -1.66727e+06 1.68599e+06 0 -1.68081e+06 1.82313e+06 0 -1.70392e+06 1.95775e+06 0 -1.50995e+06 0 0 -1.50506e+06 96174.2 0 -1.50846e+06 196710 0 -1.51827e+06 303398 0 -1.53225e+06 417197 0 -1.54814e+06 538205 0 -1.56403e+06 665793 0 -1.57852e+06 798843 0 -1.59079e+06 935994 0 -1.60054e+06 1.07582e+06 0 -1.60798e+06 1.21694e+06 0 -1.61376e+06 1.35808e+06 0 -1.61904e+06 1.49813e+06 0 -1.62557e+06 1.63627e+06 0 -1.63579e+06 1.77217e+06 0 -1.65293e+06 1.90647e+06 0 </DataArray> 
</PointData> 
<Points> 
<DataArray type="Float32" NumberOfComponents="3"> 
0 0.045 0 0.00666667 0.045 0 0.0133333 0.045 0 0.02 0.045 0 0.0266667 0.045 0 0.0333333 0.045 0 0.04 0.045 0 0.0466667 0.045 0 0.0533333 0.045 0 0.06 0.045 0 0.0666667 0.045 0 0.0733333 0.045 0 0.08 0.045 0 0.0866667 0.045 0 0.0933333 0.045 0 0.1 0.045 0 0 0.0457111 0 0.00652356 0.0457415 0 0.0130471 0.0457719 0 0.0195707 0.0458022 0 0.0260942 0.0458326 0 0.0326178 0.045863 0 0.0391413 0.0458933 0 0.0456649 0.0459237 0 0.0521884 0.0459541 0 0.058712 0.0459844 0 0.0652356 0.0460148 0 0.0717591 0.0460452 0 0.0782827 0.0460756 0 0.0848062 0.0461059 0 0.0913298 0.0461363 0 0.0978533 0.0461667 0 0 0.0464222 0 0.00638044 0.046483 0 0.0127609 0.0465437 0 0.0191413 0.0466044 0 0.0255218 0.0466652 0 0.0319022 0.0467259 0 0.0382827 0.0467867 0 0.0446631 0.0468474 0 0.0510436 0.0469081 0 0.057424 0.0469689 0 0.0638044 0.0470296 0 0.0701849 0.0470904 0 0.0765653 0.0471511 0 0.0829458 0.0472119 0 0.0893262 0.0472726 0 0.0957067 0.0473333 0 0 0.0471333 0 0.00623733 0.0472244 0 0.0124747 0.0473156 0 0.018712 0.0474067 0 0.0249493 0.0474978 0 0.0311867 0.0475889 0 0.037424 0.04768 0 0.0436613 0.0477711 0 0.0498987 0.0478622 0 0.056136 0.0479533 0 0.0623733 0.0480444 0 0.0686107 0.0481356 0 0.074848 0.0482267 0 0.0810853 0.0483178 0 0.0873227 0.0484089 0 0.09356 0.0485 0 0 0.0478444 0 0.00609422 0.0479659 0 0.0121884 0.0480874 0 0.0182827 0.0482089 0 0.0243769 0.0483304 0 0.0304711 0.0484519 0 0.0365653 0.0485733 0 0.0426596 0.0486948 0 0.0487538 0.0488163 0 0.054848 0.0489378 0 0.0609422 0.0490593 0 0.0670364 0.0491807 0 0.0731307 0.0493022 0 0.0792249 0.0494237 0 0.0853191 0.0495452 0 0.0914133 0.0496667 0 0 0.0485556 0 0.00595111 0.0487074 0 0.0119022 0.0488593 0 0.0178533 0.0490111 0 0.0238044 0.049163 0 0.0297556 0.0493148 0 0.0357067 0.0494667 0 0.0416578 0.0496185 0 0.0476089 0.0497704 0 0.05356 0.0499222 0 0.0595111 0.0500741 0 0.0654622 0.0502259 0 0.0714133 0.0503778 0 0.0773644 0.0505296 0 0.0833156 0.0506815 0 0.0892667 0.0508333 0 0 0.0492667 0 0.005808 0.0494489 0 0.011616 0.0496311 0 0.017424 0.0498133 0 0.023232 0.0499956 0 0.02904 0.0501778 0 0.034848 0.05036 0 0.040656 0.0505422 0 0.046464 0.0507244 0 0.052272 0.0509067 0 0.05808 0.0510889 0 0.063888 0.0512711 0 0.069696 0.0514533 0 0.075504 0.0516356 0 0.081312 0.0518178 0 0.08712 0.052 0 0 0.0499778 0 0.00566489 0.0501904 0 0.0113298 0.050403 0 0.0169947 0.0506156 0 0.0226596 0.0508281 0 0.0283244 0.0510407 0 0.0339893 0.0512533 0 0.0396542 0.0514659 0 0.0453191 0.0516785 0 0.050984 0.0518911 0 0.0566489 0.0521037 0 0.0623138 0.0523163 0 0.0679787 0.0525289 0 0.0736436 0.0527415 0 0.0793084 0.0529541 0 0.0849733 0.0531667 0 0 0.0506889 0 0.00552178 0.0509319 0 0.0110436 0.0511748 0 0.0165653 0.0514178 0 0.0220871 0.0516607 0 0.0276089 0.0519037 0 0.0331307 0.0521467 0 0.0386524 0.0523896 0 0.0441742 0.0526326 0 0.049696 0.0528756 0 0.0552178 0.0531185 0 0.0607396 0.0533615 0 0.0662613 0.0536044 0 0.0717831 0.0538474 0 0.0773049 0.0540904 0 0.0828267 0.0543333 0 0 0.0514 0 0.00537867 0.0516733 0 0.0107573 0.0519467 0 0.016136 0.05222 0 0.0215147 0.0524933 0 0.0268933 0.0527667 0 0.032272 0.05304 0 0.0376507 0.0533133 0 0.0430293 0.0535867 0 0.048408 0.05386 0 0.0537867 0.0541333 0 0.0591653 0.0544067 0 0.064544 0.05468 0 0.0699227 0.0549533 0 0.0753013 0.0552267 0 0.08068 0.0555 0 0 0.0521111 0 0.00523556 0.0524148 0 0.0104711 0.0527185 0 0.0157067 0.0530222 0 0.0209422 0.0533259 0 0.0261778 0.0536296 0 0.0314133 0.0539333 0 0.0366489 0.054237 0 0.0418844 0.0545407 0 0.04712 0.0548444 0 0.0523556 0.0551481 0 0.0575911 0.0554519 0 0.0628267 0.0557556 0 0.0680622 0.0560593 0 0.0732978 0.056363 0 0.0785333 0.0566667 0 0 0.0528222 0 0.00509244 0.0531563 0 0.0101849 0.0534904 0 0.0152773 0.0538244 0 0.0203698 0.0541585 0 0.0254622 0.0544926 0 0.0305547 0.0548267 0 0.0356471 0.0551607 0 0.0407396 0.0554948 0 0.045832 0.0558289 0 0.0509244 0.056163 0 0.0560169 0.056497 0 0.0611093 0.0568311 0 0.0662018 0.0571652 0 0.0712942 0.0574993 0 0.0763867 0.0578333 0 0 0.0535333 0 0.00494933 0.0538978 0 0.00989867 0.0542622 0 0.014848 0.0546267 0 0.0197973 0.0549911 0 0.0247467 0.0553556 0 0.029696 0.05572 0 0.0346453 0.0560844 0 0.0395947 0.0564489 0 0.044544 0.0568133 0 0.0494933 0.0571778 0 0.0544427 0.0575422 0 0.059392 0.0579067 0 0.0643413 0.0582711 0 0.0692907 0.0586356 0 0.07424 0.059 0 0 0.0542444 0 0.00480622 0.0546393 0 0.00961244 0.0550341 0 0.0144187 0.0554289 0 0.0192249 0.0558237 0 0.0240311 0.0562185 0 0.0288373 0.0566133 0 0.0336436 0.0570081 0 0.0384498 0.057403 0 0.043256 0.0577978 0 0.0480622 0.0581926 0 0.0528684 0.0585874 0 0.0576747 0.0589822 0 0.0624809 0.059377 0 0.0672871 0.0597719 0 0.0720933 0.0601667 0 0 0.0549556 0 0.00466311 0.0553807 0 0.00932622 0.0558059 0 0.0139893 0.0562311 0 0.0186524 0.0566563 0 0.0233156 0.0570815 0 0.0279787 0.0575067 0 0.0326418 0.0579319 0 0.0373049 0.058357 0 0.041968 0.0587822 0 0.0466311 0.0592074 0 0.0512942 0.0596326 0 0.0559573 0.0600578 0 0.0606204 0.060483 0 0.0652836 0.0609081 0 0.0699467 0.0613333 0 0 0.0556667 0 0.00452 0.0561222 0 0.00904 0.0565778 0 0.01356 0.0570333 0 0.01808 0.0574889 0 0.0226 0.0579444 0 0.02712 0.0584 0 0.03164 0.0588556 0 0.03616 0.0593111 0 0.04068 0.0597667 0 0.0452 0.0602222 0 0.04972 0.0606778 0 0.05424 0.0611333 0 0.05876 0.0615889 0 0.06328 0.0620444 0 0.0678 0.0625 0 
</DataArray>
</Points> 
</Piece> 
</StructuredGrid> 
</VTKFile> 
