<?xml version="1.0"?> 
<VTKFile type="StructuredGrid" version="0.1"> 
<StructuredGrid WholeExtent="0 15 0 15 0 0"> 
<Piece Extent="0 15 0 15 0 0"> 
<PointData>
<DataArray type="Float32" Name="|E|" format="ascii" NumberOfComponents="3"> 
2.98023e-07 1.71661e-05 0 -4.07308e-08 823.818 0 2.69501e-08 410.149 0 2.56114e-09 197.245 0 -3.21306e-08 99.2187 0 3.35276e-08 53.131 0 -3.63216e-08 29.1741 0 3.53903e-08 16.806 0 -3.07336e-08 9.75332 0 2.04891e-08 5.78288 0 -1.86265e-08 3.43075 0 2.23517e-08 2.0369 0 -3.35276e-08 1.18694 0 2.98023e-08 0.65219 0 7.45058e-09 0.288399 0 -2.68221e-07 4.76837e-07 0 88.6653 -1.82539e-07 0 -15.9139 823.618 0 -10.6581 410.137 0 -6.67279 197.065 0 -3.63505 99.1656 0 -2.19474 53.0737 0 -1.261 29.1457 0 -0.808927 16.7852 0 -0.494487 9.73996 0 -0.324745 5.77375 0 -0.206542 3.42446 0 -0.136388 2.03262 0 -0.0902505 1.18407 0 -0.0631235 0.650391 0 -0.0488949 0.287496 0 -0.0460021 -9.48785e-08 0 177.766 -1.40443e-06 0 -31.9048 823.009 0 -21.3109 410.103 0 -13.3325 196.526 0 -7.26573 99.0077 0 -4.38332 52.9015 0 -2.51901 29.0612 0 -1.61563 16.7229 0 -0.987284 9.69996 0 -0.648502 5.74636 0 -0.412205 3.40564 0 -0.272226 2.0198 0 -0.180036 1.17548 0 -0.125904 0.645001 0 -0.0974797 0.284792 0 -0.0916776 1.81142e-07 0 267.741 1.33365e-06 0 -48.049 821.969 0 -31.9538 410.06 0 -19.9657 195.619 0 -10.8881 98.7494 0 -6.55934 52.6125 0 -3.7712 28.9216 0 -2.41783 16.6188 0 -1.47674 9.63366 0 -0.970276 5.70078 0 -0.616118 3.37437 0 -0.406968 1.99849 0 -0.268894 1.16122 0 -0.188 0.636049 0 -0.145446 0.280307 0 -0.136702 -1.53668e-07 0 359.035 -8.9407e-07 0 -64.422 820.455 0 -42.583 410.026 0 -26.5578 194.336 0 -14.4988 98.398 0 -8.71593 52.2041 0 -5.01509 28.7294 0 -3.21309 16.4725 0 -1.96131 9.54161 0 -1.28905 5.63706 0 -0.817425 3.33084 0 -0.540074 1.96877 0 -0.356363 1.14136 0 -0.249078 0.623584 0 -0.192489 0.274073 0 -0.180755 2.55182e-07 0 452.102 1.3113e-06 0 -81.0971 818.413 0 -53.1962 410.027 0 -33.0928 192.659 0 -18.0962 97.9642 0 -10.8454 51.6722 0 -6.24876 28.4876 0 -3.99869 16.2835 0 -2.43961 9.42462 0 -1.60376 5.55527 0 -1.0153 3.2753 0 -0.671008 1.93076 0 -0.44199 1.11603 0 -0.308809 0.60767 0 -0.238309 0.266134 0 -0.223518 -1.86265e-07 0 547.405 -2.98023e-07 0 -98.1458 815.767 0 -63.7932 410.098 0 -39.5524 190.571 0 -21.6799 97.4619 0 -12.9389 51.011 0 -7.47112 28.2006 0 -4.77154 16.0506 0 -2.9105 9.28378 0 -1.91327 5.45549 0 -1.20899 3.20806 0 -0.799236 1.8846 0 -0.525331 1.08537 0 -0.366877 0.58839 0 -0.282613 0.256548 0 -0.26468 7.07805e-08 0 645.426 -5.96046e-07 0 -115.636 812.426 0 -74.3766 410.282 0 -45.9159 188.044 0 -25.2522 96.909 0 -14.986 50.2133 0 -8.68222 27.8741 0 -5.52792 15.7726 0 -3.37324 9.12056 0 -2.21628 5.33774 0 -1.3978 3.12956 0 -0.924209 1.83046 0 -0.605965 1.04956 0 -0.422972 0.565842 0 -0.325121 0.245386 0 -0.303932 -7.45058e-09 0 746.662 -1.19209e-07 0 -133.632 808.283 0 -84.9525 410.634 0 -52.1587 185.049 0 -28.8183 96.3275 0 -16.9743 49.2695 0 -9.88373 27.5151 0 -6.26325 15.4475 0 -3.82767 8.93681 0 -2.51125 5.20197 0 -1.58123 3.04029 0 -1.04534 1.76852 0 -0.683501 1.00879 0 -0.476792 0.540146 0 -0.365565 0.232728 0 -0.340968 0 0 851.634 2.6226e-06 0 -152.194 803.207 0 -95.5314 411.215 0 -58.2517 181.547 0 -32.3875 95.7441 0 -18.8883 48.1677 0 -11.0795 27.1326 0 -6.97166 15.0728 0 -4.27449 8.73486 0 -2.79623 5.04807 0 -1.75901 2.94085 0 -1.16196 1.699 0 -0.757611 0.963292 0 -0.528031 0.511447 0 -0.403697 0.218656 0 -0.375488 -6.70552e-08 0 960.885 -3.21865e-06 0 -171.376 797.053 0 -106.129 412.101 0 -64.1604 177.494 0 -35.974 95.1909 0 -20.709 46.8931 0 -12.2761 26.7376 0 -7.64546 14.6447 0 -4.71562 8.5176 0 -3.06862 4.87578 0 -1.93127 2.83191 0 -1.27323 1.6222 0 -0.828071 0.913274 0 -0.576363 0.479938 0 -0.439296 0.203238 0 -0.407207 1.3411e-07 0 1074.99 1.66893e-06 0 -191.226 789.651 0 -116.768 413.378 0 -69.8434 172.838 0 -39.5982 94.7057 0 -22.4125 45.4271 0 -13.4842 26.3435 0 -8.27444 14.1588 0 -5.15479 8.28857 0 -3.32479 4.68471 0 -2.0988 2.7142 0 -1.37802 1.53847 0 -0.894837 0.858886 0 -0.62141 0.445898 0 -0.472179 0.186493 0 -0.43589 -8.9407e-08 0 1194.55 -7.15256e-07 0 -211.784 780.812 0 -127.477 415.144 0 -75.251 167.518 0 -43.2882 94.3334 0 -23.9688 43.7475 0 -14.7193 25.9665 0 -8.84488 13.6089 0 -5.59821 8.05203 0 -3.55959 4.47437 0 -2.26336 2.5884 0 -1.47468 1.44838 0 -0.958161 0.800129 0 -0.662688 0.409779 0 -0.502208 0.168309 0 -0.461447 4.47035e-08 0 1320.2 4.76837e-07 0 -233.08 770.323 0 -138.298 417.514 0 -80.3237 161.462 0 -47.0818 94.126 0 -25.3398 41.827 0 -16.0039 25.626 0 -9.33818 12.9875 0 -6.05573 7.81301 0 -3.76557 4.2442 0 -2.42823 2.45503 0 -1.56072 1.35285 0 -1.01879 0.736676 0 -0.699517 0.372372 0 -0.529293 0.148292 0 -0.484184 -2.38419e-07 0 1452.62 -7.15256e-07 0 -255.136 757.948 0 -149.28 420.618 0 -84.9897 154.589 0 -51.0283 94.1445 0 -26.4775 39.6329 0 -17.3687 25.3453 0 -9.72919 12.2851 0 -6.54215 7.57733 0 -3.93192 3.99375 0 -2.59895 2.31415 0 -1.63234 1.25347 0 -1.07826 0.667544 0 -0.730887 0.335124 0 -0.553351 0.125451 0 -0.505357 2.98023e-08 0 1592.53 1.90735e-06 0 -277.96 743.427 0 -160.487 424.599 0 -89.1633 146.805 0 -55.1915 94.4581 0 -27.321 37.1267 0 -18.8561 25.1517 0 -9.98387 11.4904 0 -7.07925 7.35141 0 -4.0429 3.72295 0 -2.7845 2.16497 0 -1.6836 1.15296 0 -1.13937 0.590585 0 -0.755243 0.300667 0 -0.574194 0.0976569 0 -0.528419 9.53674e-07 0 </DataArray> 
</PointData> 
<Points> 
<DataArray type="Float32" NumberOfComponents="3"> 
0.125 0.02 0 0.129 0.02 0 0.133 0.02 0 0.137 0.02 0 0.141 0.02 0 0.145 0.02 0 0.149 0.02 0 0.153 0.02 0 0.157 0.02 0 0.161 0.02 0 0.165 0.02 0 0.169 0.02 0 0.173 0.02 0 0.177 0.02 0 0.181 0.02 0 0.185 0.02 0 0.125 0.0200667 0 0.129 0.0201067 0 0.133 0.0201467 0 0.137 0.0201867 0 0.141 0.0202267 0 0.145 0.0202667 0 0.149 0.0203067 0 0.153 0.0203467 0 0.157 0.0203867 0 0.161 0.0204267 0 0.165 0.0204667 0 0.169 0.0205067 0 0.173 0.0205467 0 0.177 0.0205867 0 0.181 0.0206267 0 0.185 0.0206667 0 0.125 0.0201333 0 0.129 0.0202133 0 0.133 0.0202933 0 0.137 0.0203733 0 0.141 0.0204533 0 0.145 0.0205333 0 0.149 0.0206133 0 0.153 0.0206933 0 0.157 0.0207733 0 0.161 0.0208533 0 0.165 0.0209333 0 0.169 0.0210133 0 0.173 0.0210933 0 0.177 0.0211733 0 0.181 0.0212533 0 0.185 0.0213333 0 0.125 0.0202 0 0.129 0.02032 0 0.133 0.02044 0 0.137 0.02056 0 0.141 0.02068 0 0.145 0.0208 0 0.149 0.02092 0 0.153 0.02104 0 0.157 0.02116 0 0.161 0.02128 0 0.165 0.0214 0 0.169 0.02152 0 0.173 0.02164 0 0.177 0.02176 0 0.181 0.02188 0 0.185 0.022 0 0.125 0.0202667 0 0.129 0.0204267 0 0.133 0.0205867 0 0.137 0.0207467 0 0.141 0.0209067 0 0.145 0.0210667 0 0.149 0.0212267 0 0.153 0.0213867 0 0.157 0.0215467 0 0.161 0.0217067 0 0.165 0.0218667 0 0.169 0.0220267 0 0.173 0.0221867 0 0.177 0.0223467 0 0.181 0.0225067 0 0.185 0.0226667 0 0.125 0.0203333 0 0.129 0.0205333 0 0.133 0.0207333 0 0.137 0.0209333 0 0.141 0.0211333 0 0.145 0.0213333 0 0.149 0.0215333 0 0.153 0.0217333 0 0.157 0.0219333 0 0.161 0.0221333 0 0.165 0.0223333 0 0.169 0.0225333 0 0.173 0.0227333 0 0.177 0.0229333 0 0.181 0.0231333 0 0.185 0.0233333 0 0.125 0.0204 0 0.129 0.02064 0 0.133 0.02088 0 0.137 0.02112 0 0.141 0.02136 0 0.145 0.0216 0 0.149 0.02184 0 0.153 0.02208 0 0.157 0.02232 0 0.161 0.02256 0 0.165 0.0228 0 0.169 0.02304 0 0.173 0.02328 0 0.177 0.02352 0 0.181 0.02376 0 0.185 0.024 0 0.125 0.0204667 0 0.129 0.0207467 0 0.133 0.0210267 0 0.137 0.0213067 0 0.141 0.0215867 0 0.145 0.0218667 0 0.149 0.0221467 0 0.153 0.0224267 0 0.157 0.0227067 0 0.161 0.0229867 0 0.165 0.0232667 0 0.169 0.0235467 0 0.173 0.0238267 0 0.177 0.0241067 0 0.181 0.0243867 0 0.185 0.0246667 0 0.125 0.0205333 0 0.129 0.0208533 0 0.133 0.0211733 0 0.137 0.0214933 0 0.141 0.0218133 0 0.145 0.0221333 0 0.149 0.0224533 0 0.153 0.0227733 0 0.157 0.0230933 0 0.161 0.0234133 0 0.165 0.0237333 0 0.169 0.0240533 0 0.173 0.0243733 0 0.177 0.0246933 0 0.181 0.0250133 0 0.185 0.0253333 0 0.125 0.0206 0 0.129 0.02096 0 0.133 0.02132 0 0.137 0.02168 0 0.141 0.02204 0 0.145 0.0224 0 0.149 0.02276 0 0.153 0.02312 0 0.157 0.02348 0 0.161 0.02384 0 0.165 0.0242 0 0.169 0.02456 0 0.173 0.02492 0 0.177 0.02528 0 0.181 0.02564 0 0.185 0.026 0 0.125 0.0206667 0 0.129 0.0210667 0 0.133 0.0214667 0 0.137 0.0218667 0 0.141 0.0222667 0 0.145 0.0226667 0 0.149 0.0230667 0 0.153 0.0234667 0 0.157 0.0238667 0 0.161 0.0242667 0 0.165 0.0246667 0 0.169 0.0250667 0 0.173 0.0254667 0 0.177 0.0258667 0 0.181 0.0262667 0 0.185 0.0266667 0 0.125 0.0207333 0 0.129 0.0211733 0 0.133 0.0216133 0 0.137 0.0220533 0 0.141 0.0224933 0 0.145 0.0229333 0 0.149 0.0233733 0 0.153 0.0238133 0 0.157 0.0242533 0 0.161 0.0246933 0 0.165 0.0251333 0 0.169 0.0255733 0 0.173 0.0260133 0 0.177 0.0264533 0 0.181 0.0268933 0 0.185 0.0273333 0 0.125 0.0208 0 0.129 0.02128 0 0.133 0.02176 0 0.137 0.02224 0 0.141 0.02272 0 0.145 0.0232 0 0.149 0.02368 0 0.153 0.02416 0 0.157 0.02464 0 0.161 0.02512 0 0.165 0.0256 0 0.169 0.02608 0 0.173 0.02656 0 0.177 0.02704 0 0.181 0.02752 0 0.185 0.028 0 0.125 0.0208667 0 0.129 0.0213867 0 0.133 0.0219067 0 0.137 0.0224267 0 0.141 0.0229467 0 0.145 0.0234667 0 0.149 0.0239867 0 0.153 0.0245067 0 0.157 0.0250267 0 0.161 0.0255467 0 0.165 0.0260667 0 0.169 0.0265867 0 0.173 0.0271067 0 0.177 0.0276267 0 0.181 0.0281467 0 0.185 0.0286667 0 0.125 0.0209333 0 0.129 0.0214933 0 0.133 0.0220533 0 0.137 0.0226133 0 0.141 0.0231733 0 0.145 0.0237333 0 0.149 0.0242933 0 0.153 0.0248533 0 0.157 0.0254133 0 0.161 0.0259733 0 0.165 0.0265333 0 0.169 0.0270933 0 0.173 0.0276533 0 0.177 0.0282133 0 0.181 0.0287733 0 0.185 0.0293333 0 0.125 0.021 0 0.129 0.0216 0 0.133 0.0222 0 0.137 0.0228 0 0.141 0.0234 0 0.145 0.024 0 0.149 0.0246 0 0.153 0.0252 0 0.157 0.0258 0 0.161 0.0264 0 0.165 0.027 0 0.169 0.0276 0 0.173 0.0282 0 0.177 0.0288 0 0.181 0.0294 0 0.185 0.03 0 
</DataArray>
</Points> 
</Piece> 
</StructuredGrid> 
</VTKFile> 
