<?xml version="1.0"?> 
<VTKFile type="StructuredGrid" version="0.1"> 
<StructuredGrid WholeExtent="0 15 0 15 0 0"> 
<Piece Extent="0 15 0 15 0 0"> 
<PointData>
<DataArray type="Float32" Name="|E|" format="ascii" NumberOfComponents="3"> 
-1.66235e+06 0 0 -1.68901e+06 -59580.2 0 -1.77099e+06 -105051 0 -1.88752e+06 -108425 0 -1.994e+06 -70127.1 0 -2.07306e+06 -17547.4 0 -2.12796e+06 36725 0 -2.16256e+06 90577.7 0 -2.17735e+06 145139 0 -2.16972e+06 200727 0 -2.13373e+06 253318 0 -2.06609e+06 282118 0 -1.99383e+06 257780 0 -1.95382e+06 188068 0 -1.96584e+06 77072.4 0 -2.01551e+06 4.05312e-06 0 -1.66822e+06 0 0 -1.69441e+06 -54260.4 0 -1.77358e+06 -94665.5 0 -1.8854e+06 -96784 0 -1.98926e+06 -60918.4 0 -2.06775e+06 -10936.3 0 -2.12267e+06 41160.9 0 -2.15726e+06 93063.1 0 -2.17194e+06 145561 0 -2.16431e+06 198692 0 -2.1293e+06 248130 0 -2.06554e+06 274529 0 -1.99866e+06 252284 0 -1.9629e+06 186133 0 -1.97668e+06 81601.2 0 -2.01941e+06 -3.65078e-07 0 -1.67355e+06 0 0 -1.69926e+06 -49054.6 0 -1.77582e+06 -84692.1 0 -1.88339e+06 -85549.2 0 -1.98479e+06 -51831.4 0 -2.06267e+06 -4340.68 0 -2.11758e+06 45601.8 0 -2.15215e+06 95541.7 0 -2.16675e+06 145973 0 -2.15918e+06 196684 0 -2.12519e+06 243154 0 -2.06505e+06 267480 0 -2.00315e+06 247195 0 -1.97149e+06 184657 0 -1.98706e+06 85886.9 0 -2.02506e+06 -5.40167e-08 0 -1.67837e+06 0 0 -1.70359e+06 -43964.1 0 -1.77772e+06 -75091.9 0 -1.88148e+06 -74683.8 0 -1.98057e+06 -42866.4 0 -2.05783e+06 2236.43 0 -2.11268e+06 50045.6 0 -2.14725e+06 98014.6 0 -2.16179e+06 146380 0 -2.15431e+06 194706 0 -2.12136e+06 238384 0 -2.0646e+06 260920 0 -2.0073e+06 242502 0 -1.9796e+06 183608 0 -1.9971e+06 90015.7 0 -2.03218e+06 4.19095e-08 0 -1.68268e+06 0 0 -1.70741e+06 -38987.6 0 -1.77931e+06 -65828.6 0 -1.87963e+06 -64152.8 0 -1.97658e+06 -34021.8 0 -2.05321e+06 8792.3 0 -2.10799e+06 54490.3 0 -2.14254e+06 100483 0 -2.15703e+06 146784 0 -2.14971e+06 192766 0 -2.11779e+06 233815 0 -2.06416e+06 254805 0 -2.01113e+06 238195 0 -1.98725e+06 182962 0 -2.00687e+06 94075.8 0 -2.04058e+06 -7.63685e-08 0 -1.68649e+06 0 0 -1.71074e+06 -34121.5 0 -1.7806e+06 -56868.9 0 -1.87783e+06 -53923.9 0 -1.9728e+06 -25293.9 0 -2.04881e+06 15324.9 0 -2.1035e+06 58934.4 0 -2.13803e+06 102947 0 -2.1525e+06 147188 0 -2.14535e+06 190865 0 -2.11446e+06 229437 0 -2.06373e+06 249094 0 -2.01466e+06 234259 0 -1.99444e+06 182697 0 -2.01641e+06 98152.5 0 -2.05019e+06 5.58794e-08 0 -1.68981e+06 0 0 -1.71361e+06 -29360.8 0 -1.7816e+06 -48181.9 0 -1.87607e+06 -43967.2 0 -1.96922e+06 -16678 0 -2.04463e+06 21832.8 0 -2.09921e+06 63376.5 0 -2.13371e+06 105409 0 -2.14818e+06 147594 0 -2.14123e+06 189008 0 -2.11134e+06 225242 0 -2.06329e+06 243752 0 -2.01788e+06 230678 0 -2.00118e+06 182803 0 -2.02576e+06 102327 0 -2.06099e+06 -7.45058e-08 0 -1.69265e+06 0 0 -1.71602e+06 -24699.3 0 -1.78233e+06 -39738.9 0 -1.87435e+06 -34254.3 0 -1.96584e+06 -8167.92 0 -2.04066e+06 28315.1 0 -2.09512e+06 67815.5 0 -2.1296e+06 107869 0 -2.14408e+06 148006 0 -2.13734e+06 187195 0 -2.10843e+06 221217 0 -2.06284e+06 238747 0 -2.02079e+06 227430 0 -2.00748e+06 183272 0 -2.03491e+06 106671 0 -2.0731e+06 1.63913e-07 0 -1.69502e+06 0 0 -1.71798e+06 -20129.6 0 -1.78279e+06 -31512.6 0 -1.87263e+06 -24758.7 0 -1.96263e+06 243.102 0 -2.03689e+06 34771.5 0 -2.09123e+06 72250.5 0 -2.12569e+06 110327 0 -2.14018e+06 148424 0 -2.13368e+06 185429 0 -2.10569e+06 217351 0 -2.06235e+06 234051 0 -2.02341e+06 224492 0 -2.01335e+06 184108 0 -2.04386e+06 111249 0 -2.08668e+06 -1.04308e-07 0 -1.69693e+06 0 0 -1.71952e+06 -15643.9 0 -1.78299e+06 -23477.5 0 -1.87093e+06 -15455.1 0 -1.95959e+06 8562.69 0 -2.03333e+06 41202.3 0 -2.08753e+06 76680.9 0 -2.12197e+06 112786 0 -2.1365e+06 148849 0 -2.13024e+06 183711 0 -2.10312e+06 213628 0 -2.06183e+06 229641 0 -2.02572e+06 221833 0 -2.0188e+06 185324 0 -2.05256e+06 116106 0 -2.10207e+06 8.19564e-08 0 -1.69838e+06 0 0 -1.72064e+06 -11233.9 0 -1.78294e+06 -15609.3 0 -1.86923e+06 -6319.51 0 -1.95671e+06 16799 0 -2.02996e+06 47607.9 0 -2.08403e+06 81106 0 -2.11846e+06 115245 0 -2.13302e+06 149282 0 -2.12701e+06 182042 0 -2.10071e+06 210032 0 -2.06126e+06 225500 0 -2.02773e+06 219414 0 -2.02383e+06 186952 0 -2.06095e+06 121262 0 -2.11975e+06 -1.04308e-07 0 -1.69938e+06 0 0 -1.72135e+06 -6890.81 0 -1.78264e+06 -7884.68 0 -1.86753e+06 2671 0 -1.95398e+06 24960.6 0 -2.02679e+06 53989.7 0 -2.08073e+06 85525.1 0 -2.11514e+06 117707 0 -2.12975e+06 149722 0 -2.12399e+06 180426 0 -2.09845e+06 206539 0 -2.06063e+06 221619 0 -2.02943e+06 217181 0 -2.02845e+06 189047 0 -2.0689e+06 126696 0 -2.14043e+06 1.19209e-07 0 -1.69994e+06 0 0 -1.72165e+06 -2605.59 0 -1.7821e+06 -281.074 0 -1.86582e+06 11538.6 0 -1.9514e+06 33056.3 0 -2.02381e+06 60348.9 0 -2.07763e+06 89937.4 0 -2.11201e+06 120173 0 -2.12669e+06 150166 0 -2.12117e+06 178868 0 -2.09633e+06 203122 0 -2.05993e+06 218004 0 -2.03083e+06 215054 0 -2.03266e+06 191706 0 -2.07623e+06 132323 0 -2.16515e+06 -2.98023e-08 0 -1.70006e+06 0 0 -1.72155e+06 1630.84 0 -1.78132e+06 7223.26 0 -1.8641e+06 20304.8 0 -1.94895e+06 41095.3 0 -2.02102e+06 66687.5 0 -2.07472e+06 94342 0 -2.10908e+06 122646 0 -2.12384e+06 150610 0 -2.11853e+06 177378 0 -2.09435e+06 199741 0 -2.05915e+06 214679 0 -2.03191e+06 212920 0 -2.0365e+06 195089 0 -2.08269e+06 137956 0 -2.19545e+06 -1.3411e-07 0 -1.69974e+06 0 0 -1.72107e+06 5827.67 0 -1.78031e+06 14649.7 0 -1.86236e+06 28990.5 0 -1.94665e+06 49086.9 0 -2.01842e+06 73007.7 0 -2.07201e+06 98737.3 0 -2.10634e+06 125132 0 -2.1212e+06 151043 0 -2.11607e+06 175976 0 -2.09252e+06 196341 0 -2.05825e+06 211703 0 -2.03269e+06 210604 0 -2.03999e+06 199454 0 -2.08787e+06 143247 0 -2.23354e+06 8.9407e-08 0 -1.69899e+06 0 0 -1.72019e+06 9993.85 0 -1.77906e+06 22019 0 -1.8606e+06 37615.7 0 -1.94448e+06 57040.3 0 -2.01599e+06 79312.1 0 -2.0695e+06 103121 0 -2.10378e+06 127637 0 -2.11879e+06 151451 0 -2.11377e+06 174693 0 -2.09086e+06 192840 0 -2.05722e+06 209182 0 -2.03316e+06 207845 0 -2.04318e+06 205209 0 -2.09122e+06 147611 0 -2.2827e+06 -4.76837e-07 0 </DataArray> 
</PointData> 
<Points> 
<DataArray type="Float32" NumberOfComponents="3"> 
0 0.035 0 0.00666667 0.035 0 0.0133333 0.035 0 0.02 0.035 0 0.0266667 0.035 0 0.0333333 0.035 0 0.04 0.035 0 0.0466667 0.035 0 0.0533333 0.035 0 0.06 0.035 0 0.0666667 0.035 0 0.0733333 0.035 0 0.08 0.035 0 0.0866667 0.035 0 0.0933333 0.035 0 0.1 0.035 0 0 0.0356667 0 0.00666667 0.0356667 0 0.0133333 0.0356667 0 0.02 0.0356667 0 0.0266667 0.0356667 0 0.0333333 0.0356667 0 0.04 0.0356667 0 0.0466667 0.0356667 0 0.0533333 0.0356667 0 0.06 0.0356667 0 0.0666667 0.0356667 0 0.0733333 0.0356667 0 0.08 0.0356667 0 0.0866667 0.0356667 0 0.0933333 0.0356667 0 0.1 0.0356667 0 0 0.0363333 0 0.00666667 0.0363333 0 0.0133333 0.0363333 0 0.02 0.0363333 0 0.0266667 0.0363333 0 0.0333333 0.0363333 0 0.04 0.0363333 0 0.0466667 0.0363333 0 0.0533333 0.0363333 0 0.06 0.0363333 0 0.0666667 0.0363333 0 0.0733333 0.0363333 0 0.08 0.0363333 0 0.0866667 0.0363333 0 0.0933333 0.0363333 0 0.1 0.0363333 0 0 0.037 0 0.00666667 0.037 0 0.0133333 0.037 0 0.02 0.037 0 0.0266667 0.037 0 0.0333333 0.037 0 0.04 0.037 0 0.0466667 0.037 0 0.0533333 0.037 0 0.06 0.037 0 0.0666667 0.037 0 0.0733333 0.037 0 0.08 0.037 0 0.0866667 0.037 0 0.0933333 0.037 0 0.1 0.037 0 0 0.0376667 0 0.00666667 0.0376667 0 0.0133333 0.0376667 0 0.02 0.0376667 0 0.0266667 0.0376667 0 0.0333333 0.0376667 0 0.04 0.0376667 0 0.0466667 0.0376667 0 0.0533333 0.0376667 0 0.06 0.0376667 0 0.0666667 0.0376667 0 0.0733333 0.0376667 0 0.08 0.0376667 0 0.0866667 0.0376667 0 0.0933333 0.0376667 0 0.1 0.0376667 0 0 0.0383333 0 0.00666667 0.0383333 0 0.0133333 0.0383333 0 0.02 0.0383333 0 0.0266667 0.0383333 0 0.0333333 0.0383333 0 0.04 0.0383333 0 0.0466667 0.0383333 0 0.0533333 0.0383333 0 0.06 0.0383333 0 0.0666667 0.0383333 0 0.0733333 0.0383333 0 0.08 0.0383333 0 0.0866667 0.0383333 0 0.0933333 0.0383333 0 0.1 0.0383333 0 0 0.039 0 0.00666667 0.039 0 0.0133333 0.039 0 0.02 0.039 0 0.0266667 0.039 0 0.0333333 0.039 0 0.04 0.039 0 0.0466667 0.039 0 0.0533333 0.039 0 0.06 0.039 0 0.0666667 0.039 0 0.0733333 0.039 0 0.08 0.039 0 0.0866667 0.039 0 0.0933333 0.039 0 0.1 0.039 0 0 0.0396667 0 0.00666667 0.0396667 0 0.0133333 0.0396667 0 0.02 0.0396667 0 0.0266667 0.0396667 0 0.0333333 0.0396667 0 0.04 0.0396667 0 0.0466667 0.0396667 0 0.0533333 0.0396667 0 0.06 0.0396667 0 0.0666667 0.0396667 0 0.0733333 0.0396667 0 0.08 0.0396667 0 0.0866667 0.0396667 0 0.0933333 0.0396667 0 0.1 0.0396667 0 0 0.0403333 0 0.00666667 0.0403333 0 0.0133333 0.0403333 0 0.02 0.0403333 0 0.0266667 0.0403333 0 0.0333333 0.0403333 0 0.04 0.0403333 0 0.0466667 0.0403333 0 0.0533333 0.0403333 0 0.06 0.0403333 0 0.0666667 0.0403333 0 0.0733333 0.0403333 0 0.08 0.0403333 0 0.0866667 0.0403333 0 0.0933333 0.0403333 0 0.1 0.0403333 0 0 0.041 0 0.00666667 0.041 0 0.0133333 0.041 0 0.02 0.041 0 0.0266667 0.041 0 0.0333333 0.041 0 0.04 0.041 0 0.0466667 0.041 0 0.0533333 0.041 0 0.06 0.041 0 0.0666667 0.041 0 0.0733333 0.041 0 0.08 0.041 0 0.0866667 0.041 0 0.0933333 0.041 0 0.1 0.041 0 0 0.0416667 0 0.00666667 0.0416667 0 0.0133333 0.0416667 0 0.02 0.0416667 0 0.0266667 0.0416667 0 0.0333333 0.0416667 0 0.04 0.0416667 0 0.0466667 0.0416667 0 0.0533333 0.0416667 0 0.06 0.0416667 0 0.0666667 0.0416667 0 0.0733333 0.0416667 0 0.08 0.0416667 0 0.0866667 0.0416667 0 0.0933333 0.0416667 0 0.1 0.0416667 0 0 0.0423333 0 0.00666667 0.0423333 0 0.0133333 0.0423333 0 0.02 0.0423333 0 0.0266667 0.0423333 0 0.0333333 0.0423333 0 0.04 0.0423333 0 0.0466667 0.0423333 0 0.0533333 0.0423333 0 0.06 0.0423333 0 0.0666667 0.0423333 0 0.0733333 0.0423333 0 0.08 0.0423333 0 0.0866667 0.0423333 0 0.0933333 0.0423333 0 0.1 0.0423333 0 0 0.043 0 0.00666667 0.043 0 0.0133333 0.043 0 0.02 0.043 0 0.0266667 0.043 0 0.0333333 0.043 0 0.04 0.043 0 0.0466667 0.043 0 0.0533333 0.043 0 0.06 0.043 0 0.0666667 0.043 0 0.0733333 0.043 0 0.08 0.043 0 0.0866667 0.043 0 0.0933333 0.043 0 0.1 0.043 0 0 0.0436667 0 0.00666667 0.0436667 0 0.0133333 0.0436667 0 0.02 0.0436667 0 0.0266667 0.0436667 0 0.0333333 0.0436667 0 0.04 0.0436667 0 0.0466667 0.0436667 0 0.0533333 0.0436667 0 0.06 0.0436667 0 0.0666667 0.0436667 0 0.0733333 0.0436667 0 0.08 0.0436667 0 0.0866667 0.0436667 0 0.0933333 0.0436667 0 0.1 0.0436667 0 0 0.0443333 0 0.00666667 0.0443333 0 0.0133333 0.0443333 0 0.02 0.0443333 0 0.0266667 0.0443333 0 0.0333333 0.0443333 0 0.04 0.0443333 0 0.0466667 0.0443333 0 0.0533333 0.0443333 0 0.06 0.0443333 0 0.0666667 0.0443333 0 0.0733333 0.0443333 0 0.08 0.0443333 0 0.0866667 0.0443333 0 0.0933333 0.0443333 0 0.1 0.0443333 0 0 0.045 0 0.00666667 0.045 0 0.0133333 0.045 0 0.02 0.045 0 0.0266667 0.045 0 0.0333333 0.045 0 0.04 0.045 0 0.0466667 0.045 0 0.0533333 0.045 0 0.06 0.045 0 0.0666667 0.045 0 0.0733333 0.045 0 0.08 0.045 0 0.0866667 0.045 0 0.0933333 0.045 0 0.1 0.045 0 
</DataArray>
</Points> 
</Piece> 
</StructuredGrid> 
</VTKFile> 
