<?xml version="1.0"?> 
<VTKFile type="StructuredGrid" version="0.1"> 
<StructuredGrid WholeExtent="0 15 0 15 0 0"> 
<Piece Extent="0 15 0 15 0 0"> 
<PointData>
<DataArray type="Float32" Name="|E|" format="ascii" NumberOfComponents="3"> 
-3.78835e+06 -1.20201e+06 0 -3.45493e+06 -2.01475e+06 0 -3.31007e+06 -1.31942e+06 0 -3.25309e+06 -734402 0 -3.22811e+06 -368685 0 -3.21542e+06 -65537.3 0 -3.21465e+06 241805 0 -3.22647e+06 545714 0 -3.24955e+06 844668 0 -3.28247e+06 1.14614e+06 0 -3.32678e+06 1.45012e+06 0 -3.38136e+06 1.81623e+06 0 -3.45317e+06 2.20438e+06 0 -3.54617e+06 2.51915e+06 0 -3.70382e+06 3.58253e+06 0 -4.58378e+06 1.70395e+07 0 -3.21466e+06 -1.94365e+06 0 -3.13011e+06 -1.16148e+06 0 -3.14676e+06 -629119 0 -3.14991e+06 -289993 0 -3.14159e+06 -1499.88 0 -3.14262e+06 288588 0 -3.15694e+06 577168 0 -3.17964e+06 860874 0 -3.20878e+06 1.14647e+06 0 -3.24607e+06 1.44859e+06 0 -3.28809e+06 1.76455e+06 0 -3.34763e+06 2.11734e+06 0 -3.37934e+06 2.57435e+06 0 -3.50232e+06 3.18515e+06 0 -2.98641e+06 4.42804e+06 0 5754.04 3.20105e+06 0 -3.02086e+06 -827469 0 -3.07484e+06 -441559 0 -3.07651e+06 -170011 0 -3.06676e+06 94561.7 0 -3.07177e+06 370025 0 -3.08965e+06 643109 0 -3.11234e+06 911729 0 -3.13813e+06 1.18301e+06 0 -3.16968e+06 1.46849e+06 0 -3.20398e+06 1.76837e+06 0 -3.24444e+06 2.10218e+06 0 -3.2633e+06 2.52333e+06 0 -3.27932e+06 2.95248e+06 0 -2.95643e+06 3.93744e+06 0 -1.45246e+06 4.47703e+06 0 -574453 3.44621e+06 0 -3.00995e+06 -264958 0 -2.99404e+06 -29834 0 -2.98985e+06 226102 0 -3.00437e+06 487739 0 -3.02604e+06 743310 0 -3.04743e+06 995915 0 -3.0698e+06 1.25346e+06 0 -3.09617e+06 1.52446e+06 0 -3.12316e+06 1.81211e+06 0 -3.14798e+06 2.1268e+06 0 -3.15291e+06 2.50077e+06 0 -3.11144e+06 2.88621e+06 0 -2.83267e+06 3.65376e+06 0 -1.84273e+06 4.10405e+06 0 -852342 3.49489e+06 0 -621104 2.87495e+06 0 -2.9094e+06 154390 0 -2.92339e+06 396273 0 -2.94586e+06 638331 0 -2.96627e+06 875907 0 -2.98367e+06 1.11443e+06 0 -3.0024e+06 1.36045e+06 0 -3.02377e+06 1.61922e+06 0 -3.04294e+06 1.89359e+06 0 -3.05386e+06 2.18824e+06 0 -3.04004e+06 2.52493e+06 0 -2.95628e+06 2.89554e+06 0 -2.66929e+06 3.48067e+06 0 -1.94339e+06 3.78993e+06 0 -1.1527e+06 3.42246e+06 0 -787489 2.82665e+06 0 -627428 2.29736e+06 0 -2.87219e+06 593769 0 -2.89092e+06 821951 0 -2.90515e+06 1.04563e+06 0 -2.91868e+06 1.27229e+06 0 -2.93462e+06 1.50719e+06 0 -2.95071e+06 1.75291e+06 0 -2.96047e+06 2.01151e+06 0 -2.95547e+06 2.28732e+06 0 -2.91511e+06 2.59776e+06 0 -2.78807e+06 2.94553e+06 0 -2.48227e+06 3.37188e+06 0 -1.9107e+06 3.54088e+06 0 -1.31303e+06 3.2643e+06 0 -970588 2.81219e+06 0 -809247 2.36959e+06 0 -712349 1.94007e+06 0 -2.83011e+06 1.04975e+06 0 -2.84111e+06 1.25645e+06 0 -2.85314e+06 1.46961e+06 0 -2.86587e+06 1.69209e+06 0 -2.87388e+06 1.92327e+06 0 -2.86952e+06 2.16615e+06 0 -2.84128e+06 2.42585e+06 0 -2.76373e+06 2.71082e+06 0 -2.59102e+06 3.00931e+06 0 -2.27426e+06 3.28467e+06 0 -1.81433e+06 3.32624e+06 0 -1.37749e+06 3.07909e+06 0 -1.1057e+06 2.71972e+06 0 -953678 2.33945e+06 0 -855055 1.95621e+06 0 -788855 1.58973e+06 0 -2.77807e+06 1.50223e+06 0 -2.78608e+06 1.70327e+06 0 -2.79084e+06 1.91509e+06 0 -2.78363e+06 2.13153e+06 0 -2.75584e+06 2.35932e+06 0 -2.69304e+06 2.5979e+06 0 -2.57017e+06 2.83882e+06 0 -2.35913e+06 3.05213e+06 0 -2.05309e+06 3.18071e+06 0 -1.6952e+06 3.11754e+06 0 -1.3922e+06 2.87907e+06 0 -1.19759e+06 2.57565e+06 0 -1.07199e+06 2.24625e+06 0 -982419 1.90732e+06 0 -917897 1.57638e+06 0 -862814 1.24949e+06 0 -2.70509e+06 1.97608e+06 0 -2.69398e+06 2.18135e+06 0 -2.65973e+06 2.37528e+06 0 -2.59691e+06 2.57823e+06 0 -2.49138e+06 2.77106e+06 0 -2.32754e+06 2.93177e+06 0 -2.10261e+06 3.03084e+06 0 -1.83948e+06 3.0298e+06 0 -1.58599e+06 2.89391e+06 0 -1.39371e+06 2.66091e+06 0 -1.26485e+06 2.39056e+06 0 -1.16829e+06 2.09828e+06 0 -1.09263e+06 1.79938e+06 0 -1.03586e+06 1.50552e+06 0 -986907 1.20814e+06 0 -925727 904546 0 -2.54982e+06 2.48273e+06 0 -2.47381e+06 2.61572e+06 0 -2.37238e+06 2.76994e+06 0 -2.2316e+06 2.8757e+06 0 -2.05313e+06 2.92524e+06 0 -1.85583e+06 2.91113e+06 0 -1.66861e+06 2.81802e+06 0 -1.51672e+06 2.64189e+06 0 -1.40733e+06 2.41267e+06 0 -1.3229e+06 2.16085e+06 0 -1.24854e+06 1.89811e+06 0 -1.1882e+06 1.6372e+06 0 -1.14401e+06 1.37817e+06 0 -1.10435e+06 1.10648e+06 0 -1.04559e+06 818108 0 -942134 532049 0 -2.20615e+06 2.73741e+06 0 -2.09324e+06 2.85083e+06 0 -1.94981e+06 2.82979e+06 0 -1.80478e+06 2.77601e+06 0 -1.67908e+06 2.68793e+06 0 -1.58064e+06 2.54332e+06 0 -1.50452e+06 2.34247e+06 0 -1.43868e+06 2.11145e+06 0 -1.37426e+06 1.87582e+06 0 -1.31675e+06 1.64736e+06 0 -1.27676e+06 1.42564e+06 0 -1.25101e+06 1.19452e+06 0 -1.21955e+06 936692 0 -1.15371e+06 655815 0 -1.0311e+06 380498 0 -852364 149912 0 -1.85266e+06 2.79939e+06 0 -1.73894e+06 2.57245e+06 0 -1.67089e+06 2.49221e+06 0 -1.62328e+06 2.37641e+06 0 -1.5768e+06 2.18739e+06 0 -1.52301e+06 1.95888e+06 0 -1.46565e+06 1.73548e+06 0 -1.41733e+06 1.53753e+06 0 -1.39029e+06 1.35574e+06 0 -1.38231e+06 1.164e+06 0 -1.37219e+06 937303 0 -1.3293e+06 671276 0 -1.22763e+06 390051 0 -1.05995e+06 135687 0 -845121 -51870.6 0 -619889 -155307 0 -1.65001e+06 2.01311e+06 0 -1.67107e+06 2.15471e+06 0 -1.63563e+06 1.95392e+06 0 -1.57759e+06 1.67904e+06 0 -1.52701e+06 1.45313e+06 0 -1.50305e+06 1.29451e+06 0 -1.50857e+06 1.16477e+06 0 -1.5279e+06 1.01194e+06 0 -1.53085e+06 802945 0 -1.48508e+06 539091 0 -1.36974e+06 253121 0 -1.18421e+06 -6338.7 0 -950188 -195942 0 -704605 -294949 0 -485114 -310867 0 -316182 -271924 0 -1.74744e+06 1.89012e+06 0 -1.62503e+06 1.15839e+06 0 -1.6029e+06 926031 0 -1.64107e+06 891067 0 -1.69477e+06 858960 0 -1.72089e+06 734929 0 -1.68513e+06 504282 0 -1.5695e+06 207613 0 -1.37683e+06 -89741 0 -1.12883e+06 -327450 0 -859620 -468587 0 -606188 -507210 0 -397653 -465233 0 -247740 -379329 0 -153641 -285265 0 -101386 -205723 0 -1.72052e+06 -68569.9 0 -1.89996e+06 442405 0 -1.91452e+06 462087 0 -1.79006e+06 206514 0 -1.56164e+06 -149216 0 -1.2706e+06 -477925 0 -960174 -702227 0 -669184 -794313 0 -426092 -767442 0 -246082 -658706 0 -130326 -513550 0 -68064.1 -372457 0 -41993 -260504 0 -34510.5 -184935 0 -32528.6 -139675 0 -29483.6 -113038 0 2.6226e-06 -1.19601e+07 0 -2.44472e-07 -5.35618e+06 0 -2.14204e-08 -1.48075e+06 0 1.96509e-07 423722 0 -6.51926e-08 1.03504e+06 0 -7.45058e-09 918652 0 2.23517e-08 503106 0 -1.49012e-07 70047.7 0 2.5332e-07 -233786 0 -2.68221e-07 -368713 0 2.68221e-07 -366176 0 -1.3411e-07 -288507 0 1.78814e-07 -194766 0 -1.93715e-07 -121624 0 2.08616e-07 -79857.7 0 -1.78814e-06 -62472.9 0 </DataArray> 
</PointData> 
<Points> 
<DataArray type="Float32" NumberOfComponents="3"> 
0.016 0.021 0 0.0199333 0.021 0 0.0238667 0.021 0 0.0278 0.021 0 0.0317333 0.021 0 0.0356667 0.021 0 0.0396 0.021 0 0.0435333 0.021 0 0.0474667 0.021 0 0.0514 0.021 0 0.0553333 0.021 0 0.0592667 0.021 0 0.0632 0.021 0 0.0671333 0.021 0 0.0710667 0.021 0 0.075 0.021 0 0.0216 0.0219333 0 0.0253156 0.0219333 0 0.0290311 0.0219333 0 0.0327467 0.0219333 0 0.0364622 0.0219333 0 0.0401778 0.0219333 0 0.0438933 0.0219333 0 0.0476089 0.0219333 0 0.0513244 0.0219333 0 0.05504 0.0219333 0 0.0587556 0.0219333 0 0.0624711 0.0219333 0 0.0661867 0.0219333 0 0.0699022 0.0219333 0 0.0736178 0.0219333 0 0.0773333 0.0219333 0 0.0272 0.0228667 0 0.0306978 0.0228667 0 0.0341956 0.0228667 0 0.0376933 0.0228667 0 0.0411911 0.0228667 0 0.0446889 0.0228667 0 0.0481867 0.0228667 0 0.0516844 0.0228667 0 0.0551822 0.0228667 0 0.05868 0.0228667 0 0.0621778 0.0228667 0 0.0656756 0.0228667 0 0.0691733 0.0228667 0 0.0726711 0.0228667 0 0.0761689 0.0228667 0 0.0796667 0.0228667 0 0.0328 0.0238 0 0.03608 0.0238 0 0.03936 0.0238 0 0.04264 0.0238 0 0.04592 0.0238 0 0.0492 0.0238 0 0.05248 0.0238 0 0.05576 0.0238 0 0.05904 0.0238 0 0.06232 0.0238 0 0.0656 0.0238 0 0.06888 0.0238 0 0.07216 0.0238 0 0.07544 0.0238 0 0.07872 0.0238 0 0.082 0.0238 0 0.0384 0.0247333 0 0.0414622 0.0247333 0 0.0445244 0.0247333 0 0.0475867 0.0247333 0 0.0506489 0.0247333 0 0.0537111 0.0247333 0 0.0567733 0.0247333 0 0.0598356 0.0247333 0 0.0628978 0.0247333 0 0.06596 0.0247333 0 0.0690222 0.0247333 0 0.0720844 0.0247333 0 0.0751467 0.0247333 0 0.0782089 0.0247333 0 0.0812711 0.0247333 0 0.0843333 0.0247333 0 0.044 0.0256667 0 0.0468444 0.0256667 0 0.0496889 0.0256667 0 0.0525333 0.0256667 0 0.0553778 0.0256667 0 0.0582222 0.0256667 0 0.0610667 0.0256667 0 0.0639111 0.0256667 0 0.0667556 0.0256667 0 0.0696 0.0256667 0 0.0724444 0.0256667 0 0.0752889 0.0256667 0 0.0781333 0.0256667 0 0.0809778 0.0256667 0 0.0838222 0.0256667 0 0.0866667 0.0256667 0 0.0496 0.0266 0 0.0522267 0.0266 0 0.0548533 0.0266 0 0.05748 0.0266 0 0.0601067 0.0266 0 0.0627333 0.0266 0 0.06536 0.0266 0 0.0679867 0.0266 0 0.0706133 0.0266 0 0.07324 0.0266 0 0.0758667 0.0266 0 0.0784933 0.0266 0 0.08112 0.0266 0 0.0837467 0.0266 0 0.0863733 0.0266 0 0.089 0.0266 0 0.0552 0.0275333 0 0.0576089 0.0275333 0 0.0600178 0.0275333 0 0.0624267 0.0275333 0 0.0648356 0.0275333 0 0.0672444 0.0275333 0 0.0696533 0.0275333 0 0.0720622 0.0275333 0 0.0744711 0.0275333 0 0.07688 0.0275333 0 0.0792889 0.0275333 0 0.0816978 0.0275333 0 0.0841067 0.0275333 0 0.0865156 0.0275333 0 0.0889244 0.0275333 0 0.0913333 0.0275333 0 0.0608 0.0284667 0 0.0629911 0.0284667 0 0.0651822 0.0284667 0 0.0673733 0.0284667 0 0.0695644 0.0284667 0 0.0717556 0.0284667 0 0.0739467 0.0284667 0 0.0761378 0.0284667 0 0.0783289 0.0284667 0 0.08052 0.0284667 0 0.0827111 0.0284667 0 0.0849022 0.0284667 0 0.0870933 0.0284667 0 0.0892844 0.0284667 0 0.0914756 0.0284667 0 0.0936667 0.0284667 0 0.0664 0.0294 0 0.0683733 0.0294 0 0.0703467 0.0294 0 0.07232 0.0294 0 0.0742933 0.0294 0 0.0762667 0.0294 0 0.07824 0.0294 0 0.0802133 0.0294 0 0.0821867 0.0294 0 0.08416 0.0294 0 0.0861333 0.0294 0 0.0881067 0.0294 0 0.09008 0.0294 0 0.0920533 0.0294 0 0.0940267 0.0294 0 0.096 0.0294 0 0.072 0.0303333 0 0.0737556 0.0303333 0 0.0755111 0.0303333 0 0.0772667 0.0303333 0 0.0790222 0.0303333 0 0.0807778 0.0303333 0 0.0825333 0.0303333 0 0.0842889 0.0303333 0 0.0860444 0.0303333 0 0.0878 0.0303333 0 0.0895556 0.0303333 0 0.0913111 0.0303333 0 0.0930667 0.0303333 0 0.0948222 0.0303333 0 0.0965778 0.0303333 0 0.0983333 0.0303333 0 0.0776 0.0312667 0 0.0791378 0.0312667 0 0.0806756 0.0312667 0 0.0822133 0.0312667 0 0.0837511 0.0312667 0 0.0852889 0.0312667 0 0.0868267 0.0312667 0 0.0883644 0.0312667 0 0.0899022 0.0312667 0 0.09144 0.0312667 0 0.0929778 0.0312667 0 0.0945156 0.0312667 0 0.0960533 0.0312667 0 0.0975911 0.0312667 0 0.0991289 0.0312667 0 0.100667 0.0312667 0 0.0832 0.0322 0 0.08452 0.0322 0 0.08584 0.0322 0 0.08716 0.0322 0 0.08848 0.0322 0 0.0898 0.0322 0 0.09112 0.0322 0 0.09244 0.0322 0 0.09376 0.0322 0 0.09508 0.0322 0 0.0964 0.0322 0 0.09772 0.0322 0 0.09904 0.0322 0 0.10036 0.0322 0 0.10168 0.0322 0 0.103 0.0322 0 0.0888 0.0331333 0 0.0899022 0.0331333 0 0.0910044 0.0331333 0 0.0921067 0.0331333 0 0.0932089 0.0331333 0 0.0943111 0.0331333 0 0.0954133 0.0331333 0 0.0965156 0.0331333 0 0.0976178 0.0331333 0 0.09872 0.0331333 0 0.0998222 0.0331333 0 0.100924 0.0331333 0 0.102027 0.0331333 0 0.103129 0.0331333 0 0.104231 0.0331333 0 0.105333 0.0331333 0 0.0944 0.0340667 0 0.0952844 0.0340667 0 0.0961689 0.0340667 0 0.0970533 0.0340667 0 0.0979378 0.0340667 0 0.0988222 0.0340667 0 0.0997067 0.0340667 0 0.100591 0.0340667 0 0.101476 0.0340667 0 0.10236 0.0340667 0 0.103244 0.0340667 0 0.104129 0.0340667 0 0.105013 0.0340667 0 0.105898 0.0340667 0 0.106782 0.0340667 0 0.107667 0.0340667 0 0.1 0.035 0 0.100667 0.035 0 0.101333 0.035 0 0.102 0.035 0 0.102667 0.035 0 0.103333 0.035 0 0.104 0.035 0 0.104667 0.035 0 0.105333 0.035 0 0.106 0.035 0 0.106667 0.035 0 0.107333 0.035 0 0.108 0.035 0 0.108667 0.035 0 0.109333 0.035 0 0.11 0.035 0 
</DataArray>
</Points> 
</Piece> 
</StructuredGrid> 
</VTKFile> 
