<?xml version="1.0"?> 
<VTKFile type="StructuredGrid" version="0.1"> 
<StructuredGrid WholeExtent="0 15 0 15 0 0"> 
<Piece Extent="0 15 0 15 0 0"> 
<PointData>
<DataArray type="Float32" Name="|E|" format="ascii" NumberOfComponents="3"> 
-368890 0 0 -366319 -90246.6 0 -358380 -181253 0 -344383 -274135 0 -323632 -370867 0 -294889 -459213 0 -254333 -538236 0 -205720 -741597 0 -164460 -1.20176e+06 0 -121299 -1.59618e+06 0 -17038.6 -1.17621e+06 0 207185 327451 0 524112 1.69395e+06 0 793443 46066.8 0 822449 -8.32143e+06 0 477177 -2.67952e+07 0 -449653 0 0 -445617 -127774 0 -433073 -258064 0 -411022 -394435 0 -378242 -543346 0 -339792 -706122 0 -289059 -869793 0 -184708 -1.08447e+06 0 -35714.8 -1.52125e+06 0 -12822.2 -2.2723e+06 0 -367870 -3.0813e+06 0 -1.1951e+06 -3.42596e+06 0 -2.28431e+06 -2.9754e+06 0 -3.20417e+06 -2.02711e+06 0 -3.52801e+06 -1.58253e+06 0 -3.02736e+06 -3.06747e+06 0 -533752 0 0 -528688 -167171 0 -513204 -340376 0 -486813 -527748 0 -452231 -737709 0 -402748 -985050 0 -341525 -1.34756e+06 0 -394232 -1.9244e+06 0 -787176 -2.58029e+06 0 -1.57617e+06 -2.89255e+06 0 -2.48318e+06 -2.5662e+06 0 -3.09778e+06 -1.84287e+06 0 -3.22298e+06 -1.35105e+06 0 -3.02109e+06 -1.45115e+06 0 -2.87981e+06 -1.57318e+06 0 -3.16112e+06 14097.7 0 -620654 0 0 -615350 -207522 0 -599916 -426021 0 -577545 -668961 0 -553072 -959114 0 -554547 -1.35674e+06 0 -731908 -1.90083e+06 0 -1.27186e+06 -2.38737e+06 0 -2.0752e+06 -2.43755e+06 0 -2.74183e+06 -1.97456e+06 0 -2.98535e+06 -1.39796e+06 0 -2.90985e+06 -1.12471e+06 0 -2.82941e+06 -1.08204e+06 0 -2.91375e+06 -821547 0 -3.04251e+06 -284418 0 -2.9401e+06 -684089 0 -709287 0 0 -705020 -247909 0 -694333 -512058 0 -687486 -814836 0 -713150 -1.19788e+06 0 -896637 -1.68682e+06 0 -1.40845e+06 -2.10372e+06 0 -2.13098e+06 -2.11068e+06 0 -2.66168e+06 -1.68343e+06 0 -2.80774e+06 -1.21327e+06 0 -2.77586e+06 -977451 0 -2.81587e+06 -819361 0 -2.92265e+06 -501973 0 -2.95436e+06 -161227 0 -2.90077e+06 -78311 0 -2.9416e+06 347598 0 -798913 0 0 -797021 -287159 0 -796811 -595864 0 -821240 -956969 0 -951786 -1.39861e+06 0 -1.35371e+06 -1.81616e+06 0 -1.9925e+06 -1.90672e+06 0 -2.50446e+06 -1.57816e+06 0 -2.68007e+06 -1.1575e+06 0 -2.70793e+06 -892325 0 -2.78222e+06 -659444 0 -2.85465e+06 -330827 0 -2.84694e+06 -38114.1 0 -2.82283e+06 125742 0 -2.85281e+06 364476 0 -2.85856e+06 511990 0 -889259 0 0 -890751 -324361 0 -906227 -674781 0 -979332 -1.07984e+06 0 -1.2389e+06 -1.50894e+06 0 -1.76499e+06 -1.73676e+06 0 -2.30057e+06 -1.55841e+06 0 -2.55761e+06 -1.17439e+06 0 -2.63338e+06 -863678 0 -2.71172e+06 -584982 0 -2.76701e+06 -253287 0 -2.76118e+06 36116.9 0 -2.76298e+06 251368 0 -2.79712e+06 514564 0 -2.81511e+06 792945 0 -2.83536e+06 1.08123e+06 0 -979877 0 0 -985485 -359158 0 -1.02039e+06 -745793 0 -1.15389e+06 -1.16926e+06 0 -1.51813e+06 -1.51956e+06 0 -2.03997e+06 -1.54526e+06 0 -2.40167e+06 -1.24509e+06 0 -2.53907e+06 -899934 0 -2.62274e+06 -588030 0 -2.68003e+06 -248052 0 -2.68724e+06 62088.3 0 -2.70063e+06 324214 0 -2.73194e+06 618552 0 -2.74818e+06 922988 0 -2.7623e+06 1.19947e+06 0 -2.77604e+06 1.49e+06 0 -1.06996e+06 0 0 -1.08029e+06 -391514 0 -1.13666e+06 -806234 0 -1.33043e+06 -1.21974e+06 0 -1.74527e+06 -1.45644e+06 0 -2.18368e+06 -1.33163e+06 0 -2.41596e+06 -998236 0 -2.52129e+06 -657257 0 -2.59003e+06 -303955 0 -2.61321e+06 36188.1 0 -2.63099e+06 339410 0 -2.66e+06 659555 0 -2.67751e+06 985900 0 -2.69223e+06 1.29511e+06 0 -2.70581e+06 1.63322e+06 0 -2.70704e+06 1.98779e+06 0 -1.15872e+06 0 0 -1.17417e+06 -421407 0 -1.25217e+06 -854806 0 -1.49344e+06 -1.23495e+06 0 -1.90431e+06 -1.35423e+06 0 -2.2421e+06 -1.13485e+06 0 -2.40394e+06 -785031 0 -2.49077e+06 -416944 0 -2.53361e+06 -46756.2 0 -2.55598e+06 294956 0 -2.58412e+06 639636 0 -2.60448e+06 990842 0 -2.61915e+06 1.33419e+06 0 -2.62873e+06 1.70178e+06 0 -2.61799e+06 2.08153e+06 0 -2.54793e+06 2.47142e+06 0 -1.24575e+06 0 0 -1.26629e+06 -448749 0 -1.36383e+06 -892007 0 -1.63137e+06 -1.22363e+06 0 -2.00141e+06 -1.23823e+06 0 -2.25478e+06 -957396 0 -2.37756e+06 -582427 0 -2.44355e+06 -188613 0 -2.47639e+06 191029 0 -2.50481e+06 561671 0 -2.52868e+06 938471 0 -2.54398e+06 1.31317e+06 0 -2.55074e+06 1.70501e+06 0 -2.53428e+06 2.10838e+06 0 -2.44585e+06 2.49765e+06 0 -2.21311e+06 2.77916e+06 0 -1.33119e+06 0 0 -1.35614e+06 -473579 0 -1.46848e+06 -919783 0 -1.73871e+06 -1.1951e+06 0 -2.05123e+06 -1.12075e+06 0 -2.24209e+06 -791165 0 -2.3381e+06 -386398 0 -2.38969e+06 26734.2 0 -2.42216e+06 427277 0 -2.44962e+06 828810 0 -2.46762e+06 1.23234e+06 0 -2.47413e+06 1.64693e+06 0 -2.45844e+06 2.07189e+06 0 -2.37408e+06 2.47562e+06 0 -2.15541e+06 2.74772e+06 0 -1.83337e+06 2.68364e+06 0 -1.41542e+06 0 0 -1.44343e+06 -496310 0 -1.56324e+06 -940720 0 -1.81517e+06 -1.15672e+06 0 -2.06725e+06 -1.00513e+06 0 -2.21276e+06 -630480 0 -2.29003e+06 -197224 0 -2.33487e+06 236259 0 -2.36673e+06 663214 0 -2.38959e+06 1.0932e+06 0 -2.3988e+06 1.53084e+06 0 -2.38831e+06 1.9778e+06 0 -2.32382e+06 2.40718e+06 0 -2.1454e+06 2.69995e+06 0 -1.88494e+06 2.65416e+06 0 -1.68403e+06 2.21721e+06 0 -1.49869e+06 0 0 -1.52803e+06 -517725 0 -1.64598e+06 -957388 0 -1.86331e+06 -1.11323e+06 0 -2.05886e+06 -890780 0 -2.17218e+06 -473037 0 -2.23779e+06 -13214.5 0 -2.27927e+06 443161 0 -2.30829e+06 897481 0 -2.3234e+06 1.35865e+06 0 -2.31971e+06 1.82817e+06 0 -2.27953e+06 2.29014e+06 0 -2.15496e+06 2.63736e+06 0 -1.95499e+06 2.64627e+06 0 -1.78702e+06 2.21941e+06 0 -1.68282e+06 1.50237e+06 0 -1.58103e+06 0 0 -1.60989e+06 -538717 0 -1.71544e+06 -972139 0 -1.88641e+06 -1.06704e+06 0 -2.0327e+06 -776062 0 -2.12463e+06 -317913 0 -2.1835e+06 167259 0 -2.22217e+06 648003 0 -2.24547e+06 1.13129e+06 0 -2.25003e+06 1.6236e+06 0 -2.22899e+06 2.11769e+06 0 -2.15699e+06 2.54001e+06 0 -2.02288e+06 2.65764e+06 0 -1.89589e+06 2.29741e+06 0 -1.81869e+06 1.55603e+06 0 -1.80462e+06 436033 0 -1.66235e+06 0 0 -1.68901e+06 -560073 0 -1.77099e+06 -987071 0 -1.88752e+06 -1.01867e+06 0 -1.994e+06 -659407 0 -2.07306e+06 -164912 0 -2.12796e+06 345142 0 -2.16256e+06 851311 0 -2.17735e+06 1.36449e+06 0 -2.16972e+06 1.8863e+06 0 -2.13373e+06 2.38352e+06 0 -2.06609e+06 2.6557e+06 0 -1.99383e+06 2.42345e+06 0 -1.95382e+06 1.75877e+06 0 -1.96584e+06 736706 0 -2.01551e+06 132980 0 </DataArray> 
</PointData> 
<Points> 
<DataArray type="Float32" NumberOfComponents="3"> 
0 0.021 0 0.00106667 0.021 0 0.00213333 0.021 0 0.0032 0.021 0 0.00426667 0.021 0 0.00533333 0.021 0 0.0064 0.021 0 0.00746667 0.021 0 0.00853333 0.021 0 0.0096 0.021 0 0.0106667 0.021 0 0.0117333 0.021 0 0.0128 0.021 0 0.0138667 0.021 0 0.0149333 0.021 0 0.016 0.021 0 0 0.0219333 0 0.00144 0.0219333 0 0.00288 0.0219333 0 0.00432 0.0219333 0 0.00576 0.0219333 0 0.0072 0.0219333 0 0.00864 0.0219333 0 0.01008 0.0219333 0 0.01152 0.0219333 0 0.01296 0.0219333 0 0.0144 0.0219333 0 0.01584 0.0219333 0 0.01728 0.0219333 0 0.01872 0.0219333 0 0.02016 0.0219333 0 0.0216 0.0219333 0 0 0.0228667 0 0.00181333 0.0228667 0 0.00362667 0.0228667 0 0.00544 0.0228667 0 0.00725333 0.0228667 0 0.00906667 0.0228667 0 0.01088 0.0228667 0 0.0126933 0.0228667 0 0.0145067 0.0228667 0 0.01632 0.0228667 0 0.0181333 0.0228667 0 0.0199467 0.0228667 0 0.02176 0.0228667 0 0.0235733 0.0228667 0 0.0253867 0.0228667 0 0.0272 0.0228667 0 0 0.0238 0 0.00218667 0.0238 0 0.00437333 0.0238 0 0.00656 0.0238 0 0.00874667 0.0238 0 0.0109333 0.0238 0 0.01312 0.0238 0 0.0153067 0.0238 0 0.0174933 0.0238 0 0.01968 0.0238 0 0.0218667 0.0238 0 0.0240533 0.0238 0 0.02624 0.0238 0 0.0284267 0.0238 0 0.0306133 0.0238 0 0.0328 0.0238 0 0 0.0247333 0 0.00256 0.0247333 0 0.00512 0.0247333 0 0.00768 0.0247333 0 0.01024 0.0247333 0 0.0128 0.0247333 0 0.01536 0.0247333 0 0.01792 0.0247333 0 0.02048 0.0247333 0 0.02304 0.0247333 0 0.0256 0.0247333 0 0.02816 0.0247333 0 0.03072 0.0247333 0 0.03328 0.0247333 0 0.03584 0.0247333 0 0.0384 0.0247333 0 0 0.0256667 0 0.00293333 0.0256667 0 0.00586667 0.0256667 0 0.0088 0.0256667 0 0.0117333 0.0256667 0 0.0146667 0.0256667 0 0.0176 0.0256667 0 0.0205333 0.0256667 0 0.0234667 0.0256667 0 0.0264 0.0256667 0 0.0293333 0.0256667 0 0.0322667 0.0256667 0 0.0352 0.0256667 0 0.0381333 0.0256667 0 0.0410667 0.0256667 0 0.044 0.0256667 0 0 0.0266 0 0.00330667 0.0266 0 0.00661333 0.0266 0 0.00992 0.0266 0 0.0132267 0.0266 0 0.0165333 0.0266 0 0.01984 0.0266 0 0.0231467 0.0266 0 0.0264533 0.0266 0 0.02976 0.0266 0 0.0330667 0.0266 0 0.0363733 0.0266 0 0.03968 0.0266 0 0.0429867 0.0266 0 0.0462933 0.0266 0 0.0496 0.0266 0 0 0.0275333 0 0.00368 0.0275333 0 0.00736 0.0275333 0 0.01104 0.0275333 0 0.01472 0.0275333 0 0.0184 0.0275333 0 0.02208 0.0275333 0 0.02576 0.0275333 0 0.02944 0.0275333 0 0.03312 0.0275333 0 0.0368 0.0275333 0 0.04048 0.0275333 0 0.04416 0.0275333 0 0.04784 0.0275333 0 0.05152 0.0275333 0 0.0552 0.0275333 0 0 0.0284667 0 0.00405333 0.0284667 0 0.00810667 0.0284667 0 0.01216 0.0284667 0 0.0162133 0.0284667 0 0.0202667 0.0284667 0 0.02432 0.0284667 0 0.0283733 0.0284667 0 0.0324267 0.0284667 0 0.03648 0.0284667 0 0.0405333 0.0284667 0 0.0445867 0.0284667 0 0.04864 0.0284667 0 0.0526933 0.0284667 0 0.0567467 0.0284667 0 0.0608 0.0284667 0 0 0.0294 0 0.00442667 0.0294 0 0.00885333 0.0294 0 0.01328 0.0294 0 0.0177067 0.0294 0 0.0221333 0.0294 0 0.02656 0.0294 0 0.0309867 0.0294 0 0.0354133 0.0294 0 0.03984 0.0294 0 0.0442667 0.0294 0 0.0486933 0.0294 0 0.05312 0.0294 0 0.0575467 0.0294 0 0.0619733 0.0294 0 0.0664 0.0294 0 0 0.0303333 0 0.0048 0.0303333 0 0.0096 0.0303333 0 0.0144 0.0303333 0 0.0192 0.0303333 0 0.024 0.0303333 0 0.0288 0.0303333 0 0.0336 0.0303333 0 0.0384 0.0303333 0 0.0432 0.0303333 0 0.048 0.0303333 0 0.0528 0.0303333 0 0.0576 0.0303333 0 0.0624 0.0303333 0 0.0672 0.0303333 0 0.072 0.0303333 0 0 0.0312667 0 0.00517333 0.0312667 0 0.0103467 0.0312667 0 0.01552 0.0312667 0 0.0206933 0.0312667 0 0.0258667 0.0312667 0 0.03104 0.0312667 0 0.0362133 0.0312667 0 0.0413867 0.0312667 0 0.04656 0.0312667 0 0.0517333 0.0312667 0 0.0569067 0.0312667 0 0.06208 0.0312667 0 0.0672533 0.0312667 0 0.0724267 0.0312667 0 0.0776 0.0312667 0 0 0.0322 0 0.00554667 0.0322 0 0.0110933 0.0322 0 0.01664 0.0322 0 0.0221867 0.0322 0 0.0277333 0.0322 0 0.03328 0.0322 0 0.0388267 0.0322 0 0.0443733 0.0322 0 0.04992 0.0322 0 0.0554667 0.0322 0 0.0610133 0.0322 0 0.06656 0.0322 0 0.0721067 0.0322 0 0.0776533 0.0322 0 0.0832 0.0322 0 0 0.0331333 0 0.00592 0.0331333 0 0.01184 0.0331333 0 0.01776 0.0331333 0 0.02368 0.0331333 0 0.0296 0.0331333 0 0.03552 0.0331333 0 0.04144 0.0331333 0 0.04736 0.0331333 0 0.05328 0.0331333 0 0.0592 0.0331333 0 0.06512 0.0331333 0 0.07104 0.0331333 0 0.07696 0.0331333 0 0.08288 0.0331333 0 0.0888 0.0331333 0 0 0.0340667 0 0.00629333 0.0340667 0 0.0125867 0.0340667 0 0.01888 0.0340667 0 0.0251733 0.0340667 0 0.0314667 0.0340667 0 0.03776 0.0340667 0 0.0440533 0.0340667 0 0.0503467 0.0340667 0 0.05664 0.0340667 0 0.0629333 0.0340667 0 0.0692267 0.0340667 0 0.07552 0.0340667 0 0.0818133 0.0340667 0 0.0881067 0.0340667 0 0.0944 0.0340667 0 0 0.035 0 0.00666667 0.035 0 0.0133333 0.035 0 0.02 0.035 0 0.0266667 0.035 0 0.0333333 0.035 0 0.04 0.035 0 0.0466667 0.035 0 0.0533333 0.035 0 0.06 0.035 0 0.0666667 0.035 0 0.0733333 0.035 0 0.08 0.035 0 0.0866667 0.035 0 0.0933333 0.035 0 0.1 0.035 0 
</DataArray>
</Points> 
</Piece> 
</StructuredGrid> 
</VTKFile> 
