<?xml version="1.0"?> 
<VTKFile type="StructuredGrid" version="0.1"> 
<StructuredGrid WholeExtent="0 15 0 15 0 0"> 
<Piece Extent="0 15 0 15 0 0"> 
<PointData>
<DataArray type="Float32" Name="|E|" format="ascii" NumberOfComponents="3"> 
1.10665e+06 -460190 0 1.67646e+06 -207639 0 1.80461e+06 -29172.9 0 1.75251e+06 77915.5 0 1.60474e+06 131443 0 1.42638e+06 142350 0 1.25095e+06 135926 0 1.09137e+06 120841 0 953188 103535 0 836872 85990.1 0 741844 69331.9 0 666602 53780.5 0 609782 39300.7 0 570121 25695.9 0 546708 12692.7 0 538969 0 0 1.16455e+06 -484268 0 1.69026e+06 -217051 0 1.81369e+06 -28155.4 0 1.75481e+06 86292.8 0 1.60336e+06 141264 0 1.42363e+06 152433 0 1.2479e+06 145073 0 1.08859e+06 128896 0 950803 110368 0 834923 91657.3 0 740269 73896 0 665342 57322 0 608760 41890.6 0 569267 27389.8 0 545952 13530.1 0 538245 0 0 1.2172e+06 -506163 0 1.70539e+06 -225957 0 1.82304e+06 -26362.9 0 1.75721e+06 94961 0 1.60198e+06 151275 0 1.42082e+06 162548 0 1.24479e+06 154221 0 1.08575e+06 136927 0 948354 117175 0 832912 97299.7 0 738637 78439.7 0 664027 60847.7 0 607686 44468.9 0 568363 29076.3 0 545148 14363.9 0 537475 0 0 1.26555e+06 -526270 0 1.72171e+06 -234282 0 1.83267e+06 -23811.8 0 1.75971e+06 103940 0 1.60059e+06 161472 0 1.41796e+06 172698 0 1.24162e+06 163368 0 1.08283e+06 144933 0 945840 123956 0 830837 102917 0 736946 82962.6 0 662658 64357.1 0 606561 47035.3 0 567410 30755.2 0 544297 15193.9 0 536657 0 0 1.3104e+06 -544917 0 1.73907e+06 -241968 0 1.84259e+06 -20511 0 1.76228e+06 113247 0 1.59918e+06 171849 0 1.41504e+06 182886 0 1.23838e+06 172515 0 1.07985e+06 152915 0 943261 130711 0 828699 108509 0 735197 87464.6 0 661233 67850.2 0 605384 49589.9 0 566409 32426.5 0 543398 16020.1 0 535792 0 0 1.35239e+06 -562381 0 1.75737e+06 -248969 0 1.85278e+06 -16463.6 0 1.76491e+06 122895 0 1.59774e+06 182405 0 1.41206e+06 193112 0 1.23508e+06 181659 0 1.0768e+06 160873 0 940617 137438 0 826499 114076 0 733390 91945.3 0 659755 71326.7 0 604156 52132.3 0 565358 34089.9 0 542451 16842.4 0 534880 0 0 1.39211e+06 -578896 0 1.77654e+06 -255247 0 1.86324e+06 -11666.9 0 1.76756e+06 132895 0 1.59625e+06 193135 0 1.40901e+06 203377 0 1.23171e+06 190800 0 1.07367e+06 168807 0 937908 144139 0 824236 119617 0 731526 96404.5 0 658221 74786.3 0 602877 54662.5 0 564258 35745.4 0 541457 17660.8 0 533921 0 0 1.43002e+06 -594663 0 1.7965e+06 -260774 0 1.87395e+06 -6113.48 0 1.77024e+06 143254 0 1.59472e+06 204039 0 1.40588e+06 213682 0 1.22828e+06 199937 0 1.07048e+06 176717 0 935133 150811 0 821911 125132 0 729603 100842 0 656634 78228.9 0 601547 57180.2 0 563109 37392.8 0 540416 18475.3 0 532915 0 0 1.46657e+06 -609859 0 1.81721e+06 -265523 0 1.8849e+06 208.42 0 1.77291e+06 153977 0 1.59312e+06 215114 0 1.40268e+06 224025 0 1.22476e+06 209071 0 1.06721e+06 184601 0 932292 157456 0 819523 130621 0 727623 105257 0 654992 81654.2 0 600166 59685.4 0 561911 39032.1 0 539327 19285.7 0 531862 0 0 1.50211e+06 -624641 0 1.83862e+06 -269474 0 1.89607e+06 7315.19 0 1.77555e+06 165066 0 1.59145e+06 226360 0 1.3994e+06 234406 0 1.22118e+06 218200 0 1.06387e+06 192460 0 929385 164073 0 817073 136083 0 725585 109650 0 653296 85062 0 598734 62177.7 0 560665 40663.1 0 538191 20092 0 530762 0 0 1.53701e+06 -639152 0 1.86071e+06 -272612 0 1.90743e+06 15227.9 0 1.77815e+06 176519 0 1.5897e+06 237778 0 1.39603e+06 244821 0 1.21752e+06 227324 0 1.06046e+06 200293 0 926411 170661 0 814560 141518 0 723490 114021 0 651547 88452.1 0 597251 64657.2 0 559371 42285.6 0 537008 20894.2 0 529616 0 0 1.57159e+06 -653530 0 1.88344e+06 -274921 0 1.91897e+06 23972.9 0 1.78069e+06 188331 0 1.58785e+06 249368 0 1.39258e+06 255268 0 1.21378e+06 236444 0 1.05697e+06 208098 0 923370 177221 0 811986 146926 0 721337 118369 0 649743 91824.2 0 595718 67123.5 0 558027 43899.7 0 535777 21692.2 0 528423 0 0 1.60616e+06 -667909 0 1.9068e+06 -276393 0 1.93067e+06 33582.7 0 1.78314e+06 200491 0 1.5859e+06 261136 0 1.38903e+06 265740 0 1.20995e+06 245561 0 1.05342e+06 215875 0 920263 183752 0 809349 152307 0 719127 122694 0 647886 95178.2 0 594134 69576.5 0 556636 45505.1 0 534500 22486 0 527183 0 0 1.64107e+06 -682424 0 1.93075e+06 -277025 0 1.94249e+06 44097.5 0 1.78549e+06 212982 0 1.58384e+06 273087 0 1.38539e+06 276230 0 1.20605e+06 254677 0 1.04978e+06 223621 0 917088 190254 0 806651 157658 0 716859 126996 0 645975 98513.8 0 592499 72016.1 0 555196 47101.9 0 533176 23275.4 0 525897 0 0 1.67665e+06 -697220 0 1.95529e+06 -276820 0 1.95441e+06 55567.4 0 1.78771e+06 225780 0 1.58164e+06 285231 0 1.38165e+06 286729 0 1.20206e+06 263794 0 1.04608e+06 231334 0 913844 196729 0 803891 162981 0 714534 131274 0 644012 101831 0 590815 74442 0 553709 48689.9 0 531805 24060.3 0 524565 0 0 1.71329e+06 -712456 0 1.98037e+06 -275791 0 1.96639e+06 68053.8 0 1.7898e+06 238850 0 1.57931e+06 297585 0 1.37782e+06 297224 0 1.19797e+06 272919 0 1.0423e+06 239010 0 910532 203177 0 801071 168273 0 712152 135529 0 641995 105129 0 589080 76854.1 0 552173 50269 0 530387 24840.7 0 523186 0 0 </DataArray> 
</PointData> 
<Points> 
<DataArray type="Float32" NumberOfComponents="3"> 
0.1905 0.0099 0 0.202667 0.0099 0 0.214833 0.0099 0 0.227 0.0099 0 0.239167 0.0099 0 0.251333 0.0099 0 0.2635 0.0099 0 0.275667 0.0099 0 0.287833 0.0099 0 0.3 0.0099 0 0.312167 0.0099 0 0.324333 0.0099 0 0.3365 0.0099 0 0.348667 0.0099 0 0.360833 0.0099 0 0.373 0.0099 0 0.19078 0.0105733 0 0.202928 0.0105733 0 0.215076 0.0105733 0 0.227224 0.0105733 0 0.239372 0.0105733 0 0.25152 0.0105733 0 0.263668 0.0105733 0 0.275816 0.0105733 0 0.287964 0.0105733 0 0.300112 0.0105733 0 0.31226 0.0105733 0 0.324408 0.0105733 0 0.336556 0.0105733 0 0.348704 0.0105733 0 0.360852 0.0105733 0 0.373 0.0105733 0 0.19106 0.0112467 0 0.203189 0.0112467 0 0.215319 0.0112467 0 0.227448 0.0112467 0 0.239577 0.0112467 0 0.251707 0.0112467 0 0.263836 0.0112467 0 0.275965 0.0112467 0 0.288095 0.0112467 0 0.300224 0.0112467 0 0.312353 0.0112467 0 0.324483 0.0112467 0 0.336612 0.0112467 0 0.348741 0.0112467 0 0.360871 0.0112467 0 0.373 0.0112467 0 0.19134 0.01192 0 0.203451 0.01192 0 0.215561 0.01192 0 0.227672 0.01192 0 0.239783 0.01192 0 0.251893 0.01192 0 0.264004 0.01192 0 0.276115 0.01192 0 0.288225 0.01192 0 0.300336 0.01192 0 0.312447 0.01192 0 0.324557 0.01192 0 0.336668 0.01192 0 0.348779 0.01192 0 0.360889 0.01192 0 0.373 0.01192 0 0.19162 0.0125933 0 0.203712 0.0125933 0 0.215804 0.0125933 0 0.227896 0.0125933 0 0.239988 0.0125933 0 0.25208 0.0125933 0 0.264172 0.0125933 0 0.276264 0.0125933 0 0.288356 0.0125933 0 0.300448 0.0125933 0 0.31254 0.0125933 0 0.324632 0.0125933 0 0.336724 0.0125933 0 0.348816 0.0125933 0 0.360908 0.0125933 0 0.373 0.0125933 0 0.1919 0.0132667 0 0.203973 0.0132667 0 0.216047 0.0132667 0 0.22812 0.0132667 0 0.240193 0.0132667 0 0.252267 0.0132667 0 0.26434 0.0132667 0 0.276413 0.0132667 0 0.288487 0.0132667 0 0.30056 0.0132667 0 0.312633 0.0132667 0 0.324707 0.0132667 0 0.33678 0.0132667 0 0.348853 0.0132667 0 0.360927 0.0132667 0 0.373 0.0132667 0 0.19218 0.01394 0 0.204235 0.01394 0 0.216289 0.01394 0 0.228344 0.01394 0 0.240399 0.01394 0 0.252453 0.01394 0 0.264508 0.01394 0 0.276563 0.01394 0 0.288617 0.01394 0 0.300672 0.01394 0 0.312727 0.01394 0 0.324781 0.01394 0 0.336836 0.01394 0 0.348891 0.01394 0 0.360945 0.01394 0 0.373 0.01394 0 0.19246 0.0146133 0 0.204496 0.0146133 0 0.216532 0.0146133 0 0.228568 0.0146133 0 0.240604 0.0146133 0 0.25264 0.0146133 0 0.264676 0.0146133 0 0.276712 0.0146133 0 0.288748 0.0146133 0 0.300784 0.0146133 0 0.31282 0.0146133 0 0.324856 0.0146133 0 0.336892 0.0146133 0 0.348928 0.0146133 0 0.360964 0.0146133 0 0.373 0.0146133 0 0.19274 0.0152867 0 0.204757 0.0152867 0 0.216775 0.0152867 0 0.228792 0.0152867 0 0.240809 0.0152867 0 0.252827 0.0152867 0 0.264844 0.0152867 0 0.276861 0.0152867 0 0.288879 0.0152867 0 0.300896 0.0152867 0 0.312913 0.0152867 0 0.324931 0.0152867 0 0.336948 0.0152867 0 0.348965 0.0152867 0 0.360983 0.0152867 0 0.373 0.0152867 0 0.19302 0.01596 0 0.205019 0.01596 0 0.217017 0.01596 0 0.229016 0.01596 0 0.241015 0.01596 0 0.253013 0.01596 0 0.265012 0.01596 0 0.277011 0.01596 0 0.289009 0.01596 0 0.301008 0.01596 0 0.313007 0.01596 0 0.325005 0.01596 0 0.337004 0.01596 0 0.349003 0.01596 0 0.361001 0.01596 0 0.373 0.01596 0 0.1933 0.0166333 0 0.20528 0.0166333 0 0.21726 0.0166333 0 0.22924 0.0166333 0 0.24122 0.0166333 0 0.2532 0.0166333 0 0.26518 0.0166333 0 0.27716 0.0166333 0 0.28914 0.0166333 0 0.30112 0.0166333 0 0.3131 0.0166333 0 0.32508 0.0166333 0 0.33706 0.0166333 0 0.34904 0.0166333 0 0.36102 0.0166333 0 0.373 0.0166333 0 0.19358 0.0173067 0 0.205541 0.0173067 0 0.217503 0.0173067 0 0.229464 0.0173067 0 0.241425 0.0173067 0 0.253387 0.0173067 0 0.265348 0.0173067 0 0.277309 0.0173067 0 0.289271 0.0173067 0 0.301232 0.0173067 0 0.313193 0.0173067 0 0.325155 0.0173067 0 0.337116 0.0173067 0 0.349077 0.0173067 0 0.361039 0.0173067 0 0.373 0.0173067 0 0.19386 0.01798 0 0.205803 0.01798 0 0.217745 0.01798 0 0.229688 0.01798 0 0.241631 0.01798 0 0.253573 0.01798 0 0.265516 0.01798 0 0.277459 0.01798 0 0.289401 0.01798 0 0.301344 0.01798 0 0.313287 0.01798 0 0.325229 0.01798 0 0.337172 0.01798 0 0.349115 0.01798 0 0.361057 0.01798 0 0.373 0.01798 0 0.19414 0.0186533 0 0.206064 0.0186533 0 0.217988 0.0186533 0 0.229912 0.0186533 0 0.241836 0.0186533 0 0.25376 0.0186533 0 0.265684 0.0186533 0 0.277608 0.0186533 0 0.289532 0.0186533 0 0.301456 0.0186533 0 0.31338 0.0186533 0 0.325304 0.0186533 0 0.337228 0.0186533 0 0.349152 0.0186533 0 0.361076 0.0186533 0 0.373 0.0186533 0 0.19442 0.0193267 0 0.206325 0.0193267 0 0.218231 0.0193267 0 0.230136 0.0193267 0 0.242041 0.0193267 0 0.253947 0.0193267 0 0.265852 0.0193267 0 0.277757 0.0193267 0 0.289663 0.0193267 0 0.301568 0.0193267 0 0.313473 0.0193267 0 0.325379 0.0193267 0 0.337284 0.0193267 0 0.349189 0.0193267 0 0.361095 0.0193267 0 0.373 0.0193267 0 0.1947 0.02 0 0.206587 0.02 0 0.218473 0.02 0 0.23036 0.02 0 0.242247 0.02 0 0.254133 0.02 0 0.26602 0.02 0 0.277907 0.02 0 0.289793 0.02 0 0.30168 0.02 0 0.313567 0.02 0 0.325453 0.02 0 0.33734 0.02 0 0.349227 0.02 0 0.361113 0.02 0 0.373 0.02 0 
</DataArray>
</Points> 
</Piece> 
</StructuredGrid> 
</VTKFile> 
