<?xml version="1.0"?> 
<VTKFile type="StructuredGrid" version="0.1"> 
<StructuredGrid WholeExtent="0 15 0 15 0 0"> 
<Piece Extent="0 15 0 15 0 0"> 
<PointData>
<DataArray type="Float32" Name="|E|" format="ascii" NumberOfComponents="3"> 
-3.91759e+06 0 0 -3.3642e+06 106911 0 -3.32207e+06 74843.4 0 -3.28435e+06 19596 0 -3.26297e+06 20383.8 0 -3.25568e+06 7095.66 0 -3.25792e+06 8831.72 0 -3.27214e+06 7366.56 0 -3.29608e+06 9428.15 0 -3.33108e+06 10923.3 0 -3.37659e+06 12892.1 0 -3.43314e+06 14336.5 0 -3.4997e+06 14748.8 0 -3.57188e+06 13079.6 0 -3.63505e+06 8083.81 0 -3.66218e+06 -3.57628e-07 0 -3.71937e+06 0 0 -3.39688e+06 98777.8 0 -3.3274e+06 54226.7 0 -3.28757e+06 20906.2 0 -3.2649e+06 14072.4 0 -3.25572e+06 8343.91 0 -3.25814e+06 9510.33 0 -3.27161e+06 11278.6 0 -3.2957e+06 14756.9 0 -3.33048e+06 18474.4 0 -3.3761e+06 22400 0 -3.43274e+06 25892.1 0 -3.49967e+06 27976.2 0 -3.5726e+06 26474.8 0 -3.63696e+06 17548.6 0 -3.66484e+06 1.48313e-07 0 -3.61218e+06 0 0 -3.41292e+06 80856.1 0 -3.33325e+06 40273 0 -3.29038e+06 17327.4 0 -3.26597e+06 9866.34 0 -3.25568e+06 8266.48 0 -3.25774e+06 10702.8 0 -3.27086e+06 14886.7 0 -3.29486e+06 20182.8 0 -3.32955e+06 25978.3 0 -3.37521e+06 31933 0 -3.43199e+06 37492.7 0 -3.49941e+06 41319.6 0 -3.57357e+06 40135.7 0 -3.64017e+06 27353 0 -3.66957e+06 -1.76951e-07 0 -3.5524e+06 0 0 -3.42071e+06 60811.2 0 -3.33856e+06 28415 0 -3.29257e+06 11635.6 0 -3.26646e+06 6300.96 0 -3.25531e+06 7635.02 0 -3.2569e+06 12036.9 0 -3.26977e+06 18366.5 0 -3.29363e+06 25630.1 0 -3.32826e+06 33461.7 0 -3.37391e+06 41482.1 0 -3.43086e+06 49147.2 0 -3.49888e+06 54825.5 0 -3.57473e+06 54200.1 0 -3.64469e+06 37737.6 0 -3.67652e+06 2.44938e-07 0 -3.51843e+06 0 0 -3.42461e+06 41472.6 0 -3.34295e+06 16883.6 0 -3.29408e+06 4978.03 0 -3.26641e+06 2808.15 0 -3.25452e+06 6757.39 0 -3.25565e+06 13372.5 0 -3.2683e+06 21785.3 0 -3.29202e+06 31070.3 0 -3.32658e+06 40933.3 0 -3.37223e+06 51042.5 0 -3.42935e+06 60862 0 -3.49805e+06 68534.4 0 -3.57604e+06 68807.3 0 -3.65056e+06 48975.8 0 -3.68591e+06 -3.50177e-07 0 -3.49943e+06 0 0 -3.42693e+06 23516.4 0 -3.34627e+06 5077.99 0 -3.29486e+06 -2195.38 0 -3.26582e+06 -799.192 0 -3.25329e+06 5749.38 0 -3.254e+06 14665.3 0 -3.26645e+06 25167.2 0 -3.29003e+06 36493.9 0 -3.32452e+06 48394.3 0 -3.37014e+06 60610.9 0 -3.42742e+06 72639.9 0 -3.49688e+06 82480.2 0 -3.57737e+06 84092 0 -3.6578e+06 61389.5 0 -3.69805e+06 3.42727e-07 0 -3.48991e+06 0 0 -3.42891e+06 6745.37 0 -3.34854e+06 -7178.32 0 -3.29485e+06 -9705.73 0 -3.26468e+06 -4559.55 0 -3.25159e+06 4655.18 0 -3.25195e+06 15906.5 0 -3.26422e+06 28520.7 0 -3.28767e+06 41898.3 0 -3.32207e+06 55842.9 0 -3.36765e+06 70183.8 0 -3.42507e+06 84479.3 0 -3.49531e+06 96688.5 0 -3.57861e+06 100177 0 -3.66641e+06 75369.8 0 -3.71344e+06 -1.3411e-07 0 -3.48715e+06 0 0 -3.4312e+06 -9372.93 0 -3.34977e+06 -19933.3 0 -3.29402e+06 -17471.8 0 -3.26296e+06 -8455.79 0 -3.24942e+06 3494.46 0 -3.24949e+06 17099.5 0 -3.26159e+06 31849.4 0 -3.28493e+06 47283.3 0 -3.31923e+06 63275.9 0 -3.36475e+06 79757.3 0 -3.42227e+06 96372.5 0 -3.49327e+06 111176 0 -3.57957e+06 117164 0 -3.67638e+06 91400.9 0 -3.7328e+06 -1.19209e-07 0 -3.48992e+06 0 0 -3.43416e+06 -25496.2 0 -3.34996e+06 -33211.7 0 -3.29233e+06 -25441.2 0 -3.26064e+06 -12450.6 0 -3.24679e+06 2279.63 0 -3.24662e+06 18251.7 0 -3.25857e+06 35155.8 0 -3.28181e+06 52649.9 0 -3.31601e+06 70688.9 0 -3.36144e+06 89327.4 0 -3.419e+06 108305 0 -3.4907e+06 125948 0 -3.58003e+06 135119 0 -3.68761e+06 110085 0 -3.75719e+06 1.3411e-07 0 -3.49793e+06 0 0 -3.43793e+06 -42339.7 0 -3.34905e+06 -47042.5 0 -3.28973e+06 -33563 0 -3.25772e+06 -16499.1 0 -3.24369e+06 1021.31 0 -3.24333e+06 19371.3 0 -3.25517e+06 38442.2 0 -3.27831e+06 57999.4 0 -3.3124e+06 78076.7 0 -3.3577e+06 98890.2 0 -3.41525e+06 120254 0 -3.48752e+06 141000 0 -3.5797e+06 154056 0 -3.69988e+06 132163 0 -3.78834e+06 -2.16067e-07 0 -3.51165e+06 0 0 -3.4425e+06 -60669.4 0 -3.34694e+06 -61454.8 0 -3.28619e+06 -41775.9 0 -3.2542e+06 -20553.1 0 -3.24012e+06 -270.59 0 -3.23962e+06 20466.8 0 -3.25137e+06 41711.6 0 -3.27442e+06 63333.7 0 -3.3084e+06 85433.4 0 -3.35354e+06 108441 0 -3.411e+06 132194 0 -3.48367e+06 156307 0 -3.57825e+06 173930 0 -3.71274e+06 158514 0 -3.82904e+06 3.12924e-07 0 -3.53244e+06 0 0 -3.44768e+06 -81305.5 0 -3.34342e+06 -76468.8 0 -3.28166e+06 -49997.1 0 -3.25008e+06 -24564.9 0 -3.23607e+06 -1586.32 0 -3.23549e+06 21545.8 0 -3.24718e+06 44967.9 0 -3.27016e+06 68653.6 0 -3.30403e+06 92755.2 0 -3.34894e+06 117967 0 -3.40624e+06 144103 0 -3.47909e+06 171805 0 -3.57534e+06 194645 0 -3.72527e+06 190084 0 -3.8841e+06 -1.78814e-07 0 -3.56294e+06 0 0 -3.453e+06 -105099 0 -3.33825e+06 -92099 0 -3.2761e+06 -58102.6 0 -3.24539e+06 -28495.4 0 -3.23157e+06 -2913.46 0 -3.23093e+06 22613.1 0 -3.2426e+06 48218.5 0 -3.26552e+06 73955 0 -3.29928e+06 100049 0 -3.34391e+06 127434 0 -3.40096e+06 156007 0 -3.47374e+06 187320 0 -3.57062e+06 216161 0 -3.73572e+06 227651 0 -3.96212e+06 1.63913e-07 0 -3.60812e+06 0 0 -3.4575e+06 -132816 0 -3.33114e+06 -108407 0 -3.26948e+06 -65878.3 0 -3.24014e+06 -32339.6 0 -3.22661e+06 -4225.88 0 -3.22593e+06 23662.9 0 -3.23763e+06 51481.7 0 -3.26051e+06 79216.6 0 -3.29415e+06 107358 0 -3.33847e+06 136729 0 -3.39515e+06 168078 0 -3.4676e+06 202382 0 -3.5639e+06 238803 0 -3.74079e+06 271189 0 -4.07917e+06 -1.93715e-07 0 -3.6773e+06 0 0 -3.45932e+06 -164795 0 -3.32179e+06 -125679 0 -3.2618e+06 -72896.9 0 -3.23438e+06 -36192.6 0 -3.22121e+06 -5451.15 0 -3.22051e+06 24658.6 0 -3.23227e+06 54807.9 0 -3.25515e+06 84364.8 0 -3.2886e+06 114832 0 -3.33267e+06 145526 0 -3.38871e+06 180902 0 -3.46069e+06 215735 0 -3.5554e+06 264111 0 -3.73417e+06 318302 0 -4.2661e+06 1.49012e-07 0 -3.78835e+06 0 0 -3.45493e+06 -200120 0 -3.31007e+06 -144886 0 -3.25309e+06 -78241.9 0 -3.22811e+06 -40404.2 0 -3.21542e+06 -6390.15 0 -3.21465e+06 25481.3 0 -3.22647e+06 58330.4 0 -3.24955e+06 89190.3 0 -3.28247e+06 122887 0 -3.32678e+06 152964 0 -3.38136e+06 196096 0 -3.45317e+06 224231 0 -3.54617e+06 296808 0 -3.70382e+06 360849 0 -4.58378e+06 -3.57628e-07 0 </DataArray> 
</PointData> 
<Points> 
<DataArray type="Float32" NumberOfComponents="3"> 
0.016 0.01 0 0.0199333 0.01 0 0.0238667 0.01 0 0.0278 0.01 0 0.0317333 0.01 0 0.0356667 0.01 0 0.0396 0.01 0 0.0435333 0.01 0 0.0474667 0.01 0 0.0514 0.01 0 0.0553333 0.01 0 0.0592667 0.01 0 0.0632 0.01 0 0.0671333 0.01 0 0.0710667 0.01 0 0.075 0.01 0 0.016 0.0107333 0 0.0199333 0.0107333 0 0.0238667 0.0107333 0 0.0278 0.0107333 0 0.0317333 0.0107333 0 0.0356667 0.0107333 0 0.0396 0.0107333 0 0.0435333 0.0107333 0 0.0474667 0.0107333 0 0.0514 0.0107333 0 0.0553333 0.0107333 0 0.0592667 0.0107333 0 0.0632 0.0107333 0 0.0671333 0.0107333 0 0.0710667 0.0107333 0 0.075 0.0107333 0 0.016 0.0114667 0 0.0199333 0.0114667 0 0.0238667 0.0114667 0 0.0278 0.0114667 0 0.0317333 0.0114667 0 0.0356667 0.0114667 0 0.0396 0.0114667 0 0.0435333 0.0114667 0 0.0474667 0.0114667 0 0.0514 0.0114667 0 0.0553333 0.0114667 0 0.0592667 0.0114667 0 0.0632 0.0114667 0 0.0671333 0.0114667 0 0.0710667 0.0114667 0 0.075 0.0114667 0 0.016 0.0122 0 0.0199333 0.0122 0 0.0238667 0.0122 0 0.0278 0.0122 0 0.0317333 0.0122 0 0.0356667 0.0122 0 0.0396 0.0122 0 0.0435333 0.0122 0 0.0474667 0.0122 0 0.0514 0.0122 0 0.0553333 0.0122 0 0.0592667 0.0122 0 0.0632 0.0122 0 0.0671333 0.0122 0 0.0710667 0.0122 0 0.075 0.0122 0 0.016 0.0129333 0 0.0199333 0.0129333 0 0.0238667 0.0129333 0 0.0278 0.0129333 0 0.0317333 0.0129333 0 0.0356667 0.0129333 0 0.0396 0.0129333 0 0.0435333 0.0129333 0 0.0474667 0.0129333 0 0.0514 0.0129333 0 0.0553333 0.0129333 0 0.0592667 0.0129333 0 0.0632 0.0129333 0 0.0671333 0.0129333 0 0.0710667 0.0129333 0 0.075 0.0129333 0 0.016 0.0136667 0 0.0199333 0.0136667 0 0.0238667 0.0136667 0 0.0278 0.0136667 0 0.0317333 0.0136667 0 0.0356667 0.0136667 0 0.0396 0.0136667 0 0.0435333 0.0136667 0 0.0474667 0.0136667 0 0.0514 0.0136667 0 0.0553333 0.0136667 0 0.0592667 0.0136667 0 0.0632 0.0136667 0 0.0671333 0.0136667 0 0.0710667 0.0136667 0 0.075 0.0136667 0 0.016 0.0144 0 0.0199333 0.0144 0 0.0238667 0.0144 0 0.0278 0.0144 0 0.0317333 0.0144 0 0.0356667 0.0144 0 0.0396 0.0144 0 0.0435333 0.0144 0 0.0474667 0.0144 0 0.0514 0.0144 0 0.0553333 0.0144 0 0.0592667 0.0144 0 0.0632 0.0144 0 0.0671333 0.0144 0 0.0710667 0.0144 0 0.075 0.0144 0 0.016 0.0151333 0 0.0199333 0.0151333 0 0.0238667 0.0151333 0 0.0278 0.0151333 0 0.0317333 0.0151333 0 0.0356667 0.0151333 0 0.0396 0.0151333 0 0.0435333 0.0151333 0 0.0474667 0.0151333 0 0.0514 0.0151333 0 0.0553333 0.0151333 0 0.0592667 0.0151333 0 0.0632 0.0151333 0 0.0671333 0.0151333 0 0.0710667 0.0151333 0 0.075 0.0151333 0 0.016 0.0158667 0 0.0199333 0.0158667 0 0.0238667 0.0158667 0 0.0278 0.0158667 0 0.0317333 0.0158667 0 0.0356667 0.0158667 0 0.0396 0.0158667 0 0.0435333 0.0158667 0 0.0474667 0.0158667 0 0.0514 0.0158667 0 0.0553333 0.0158667 0 0.0592667 0.0158667 0 0.0632 0.0158667 0 0.0671333 0.0158667 0 0.0710667 0.0158667 0 0.075 0.0158667 0 0.016 0.0166 0 0.0199333 0.0166 0 0.0238667 0.0166 0 0.0278 0.0166 0 0.0317333 0.0166 0 0.0356667 0.0166 0 0.0396 0.0166 0 0.0435333 0.0166 0 0.0474667 0.0166 0 0.0514 0.0166 0 0.0553333 0.0166 0 0.0592667 0.0166 0 0.0632 0.0166 0 0.0671333 0.0166 0 0.0710667 0.0166 0 0.075 0.0166 0 0.016 0.0173333 0 0.0199333 0.0173333 0 0.0238667 0.0173333 0 0.0278 0.0173333 0 0.0317333 0.0173333 0 0.0356667 0.0173333 0 0.0396 0.0173333 0 0.0435333 0.0173333 0 0.0474667 0.0173333 0 0.0514 0.0173333 0 0.0553333 0.0173333 0 0.0592667 0.0173333 0 0.0632 0.0173333 0 0.0671333 0.0173333 0 0.0710667 0.0173333 0 0.075 0.0173333 0 0.016 0.0180667 0 0.0199333 0.0180667 0 0.0238667 0.0180667 0 0.0278 0.0180667 0 0.0317333 0.0180667 0 0.0356667 0.0180667 0 0.0396 0.0180667 0 0.0435333 0.0180667 0 0.0474667 0.0180667 0 0.0514 0.0180667 0 0.0553333 0.0180667 0 0.0592667 0.0180667 0 0.0632 0.0180667 0 0.0671333 0.0180667 0 0.0710667 0.0180667 0 0.075 0.0180667 0 0.016 0.0188 0 0.0199333 0.0188 0 0.0238667 0.0188 0 0.0278 0.0188 0 0.0317333 0.0188 0 0.0356667 0.0188 0 0.0396 0.0188 0 0.0435333 0.0188 0 0.0474667 0.0188 0 0.0514 0.0188 0 0.0553333 0.0188 0 0.0592667 0.0188 0 0.0632 0.0188 0 0.0671333 0.0188 0 0.0710667 0.0188 0 0.075 0.0188 0 0.016 0.0195333 0 0.0199333 0.0195333 0 0.0238667 0.0195333 0 0.0278 0.0195333 0 0.0317333 0.0195333 0 0.0356667 0.0195333 0 0.0396 0.0195333 0 0.0435333 0.0195333 0 0.0474667 0.0195333 0 0.0514 0.0195333 0 0.0553333 0.0195333 0 0.0592667 0.0195333 0 0.0632 0.0195333 0 0.0671333 0.0195333 0 0.0710667 0.0195333 0 0.075 0.0195333 0 0.016 0.0202667 0 0.0199333 0.0202667 0 0.0238667 0.0202667 0 0.0278 0.0202667 0 0.0317333 0.0202667 0 0.0356667 0.0202667 0 0.0396 0.0202667 0 0.0435333 0.0202667 0 0.0474667 0.0202667 0 0.0514 0.0202667 0 0.0553333 0.0202667 0 0.0592667 0.0202667 0 0.0632 0.0202667 0 0.0671333 0.0202667 0 0.0710667 0.0202667 0 0.075 0.0202667 0 0.016 0.021 0 0.0199333 0.021 0 0.0238667 0.021 0 0.0278 0.021 0 0.0317333 0.021 0 0.0356667 0.021 0 0.0396 0.021 0 0.0435333 0.021 0 0.0474667 0.021 0 0.0514 0.021 0 0.0553333 0.021 0 0.0592667 0.021 0 0.0632 0.021 0 0.0671333 0.021 0 0.0710667 0.021 0 0.075 0.021 0 
</DataArray>
</Points> 
</Piece> 
</StructuredGrid> 
</VTKFile> 
