<?xml version="1.0"?> 
<VTKFile type="StructuredGrid" version="0.1"> 
<StructuredGrid WholeExtent="0 63 0 63 0 0"> 
<Piece Extent="0 63 0 63 0 0"> 
<PointData>
<DataArray type="Float32" Name="|E|" format="ascii" NumberOfComponents="3"> 
-2.06954e+06 0 0 -2.06954e+06 752.597 0 -2.06955e+06 1505.2 0 -2.06956e+06 2257.81 0 -2.06958e+06 3010.44 0 -2.06959e+06 3763.08 0 -2.06962e+06 4515.75 0 -2.06965e+06 5268.45 0 -2.06968e+06 6021.17 0 -2.06971e+06 6773.93 0 -2.06975e+06 7526.73 0 -2.0698e+06 8279.57 0 -2.06985e+06 9032.45 0 -2.0699e+06 9785.39 0 -2.06996e+06 10538.4 0 -2.07002e+06 11291.4 0 -2.07009e+06 12044.5 0 -2.07016e+06 12797.7 0 -2.07023e+06 13551 0 -2.07031e+06 14304.3 0 -2.07039e+06 15057.7 0 -2.07048e+06 15811.2 0 -2.07057e+06 16564.8 0 -2.07066e+06 17318.4 0 -2.07076e+06 18072.2 0 -2.07087e+06 18826.1 0 -2.07098e+06 19580 0 -2.07109e+06 20334.1 0 -2.07121e+06 21088.3 0 -2.07133e+06 21842.6 0 -2.07145e+06 22597 0 -2.07158e+06 23351.5 0 -2.07172e+06 24106.2 0 -2.07185e+06 24861 0 -2.072e+06 25615.9 0 -2.07214e+06 26371 0 -2.07229e+06 27126.3 0 -2.07245e+06 27881.7 0 -2.07261e+06 28637.2 0 -2.07277e+06 29393 0 -2.07294e+06 30148.9 0 -2.07311e+06 30905 0 -2.07329e+06 31661.2 0 -2.07347e+06 32417.6 0 -2.07365e+06 33174.2 0 -2.07384e+06 33930.9 0 -2.07404e+06 34687.8 0 -2.07423e+06 35444.8 0 -2.07444e+06 36201.9 0 -2.07464e+06 36959.2 0 -2.07485e+06 37716.6 0 -2.07507e+06 38474.1 0 -2.07528e+06 39231.8 0 -2.07551e+06 39989.7 0 -2.07574e+06 40747.7 0 -2.07597e+06 41505.8 0 -2.0762e+06 42264.2 0 -2.07644e+06 43022.7 0 -2.07669e+06 43781.4 0 -2.07694e+06 44540.4 0 -2.07719e+06 45299.7 0 -2.07745e+06 46058.8 0 -2.07771e+06 46815 0 -2.07798e+06 47559 0 -2.06891e+06 0 0 -2.06891e+06 776.141 0 -2.06892e+06 1552.29 0 -2.06893e+06 2328.45 0 -2.06895e+06 3104.62 0 -2.06897e+06 3880.81 0 -2.06899e+06 4657.03 0 -2.06902e+06 5433.27 0 -2.06906e+06 6209.55 0 -2.06909e+06 6985.87 0 -2.06914e+06 7762.22 0 -2.06918e+06 8538.63 0 -2.06923e+06 9315.08 0 -2.06929e+06 10091.6 0 -2.06935e+06 10868.2 0 -2.06942e+06 11644.8 0 -2.06949e+06 12421.5 0 -2.06956e+06 13198.3 0 -2.06964e+06 13975.1 0 -2.06972e+06 14752 0 -2.06981e+06 15529.1 0 -2.0699e+06 16306.2 0 -2.06999e+06 17083.4 0 -2.0701e+06 17860.7 0 -2.0702e+06 18638.1 0 -2.07031e+06 19415.6 0 -2.07042e+06 20193.2 0 -2.07054e+06 20970.9 0 -2.07067e+06 21748.8 0 -2.07079e+06 22526.7 0 -2.07093e+06 23304.9 0 -2.07106e+06 24083.1 0 -2.0712e+06 24861.5 0 -2.07135e+06 25640 0 -2.0715e+06 26418.7 0 -2.07165e+06 27197.6 0 -2.07181e+06 27976.6 0 -2.07197e+06 28755.8 0 -2.07214e+06 29535.1 0 -2.07231e+06 30314.6 0 -2.07249e+06 31094.4 0 -2.07267e+06 31874.2 0 -2.07286e+06 32654.3 0 -2.07305e+06 33434.5 0 -2.07324e+06 34214.9 0 -2.07344e+06 34995.4 0 -2.07364e+06 35776.1 0 -2.07385e+06 36556.9 0 -2.07407e+06 37337.9 0 -2.07428e+06 38119 0 -2.0745e+06 38900.3 0 -2.07473e+06 39681.8 0 -2.07496e+06 40463.4 0 -2.07519e+06 41245.2 0 -2.07543e+06 42027.2 0 -2.07568e+06 42809.4 0 -2.07593e+06 43591.8 0 -2.07618e+06 44374.4 0 -2.07644e+06 45157.1 0 -2.0767e+06 45939.9 0 -2.07697e+06 46722.6 0 -2.07724e+06 47505.3 0 -2.07752e+06 48289.1 0 -2.0778e+06 49080.1 0 -2.06828e+06 0 0 -2.06828e+06 799.868 0 -2.06829e+06 1599.74 0 -2.0683e+06 2399.63 0 -2.06832e+06 3199.53 0 -2.06834e+06 3999.46 0 -2.06837e+06 4799.41 0 -2.0684e+06 5599.39 0 -2.06843e+06 6399.41 0 -2.06847e+06 7199.46 0 -2.06852e+06 7999.57 0 -2.06857e+06 8799.72 0 -2.06862e+06 9599.92 0 -2.06868e+06 10400.2 0 -2.06874e+06 11200.5 0 -2.06881e+06 12000.9 0 -2.06888e+06 12801.4 0 -2.06896e+06 13601.9 0 -2.06904e+06 14402.6 0 -2.06913e+06 15203.3 0 -2.06922e+06 16004.1 0 -2.06932e+06 16805 0 -2.06942e+06 17606 0 -2.06952e+06 18407.1 0 -2.06964e+06 19208.4 0 -2.06975e+06 20009.7 0 -2.06987e+06 20811.2 0 -2.06999e+06 21612.8 0 -2.07012e+06 22414.5 0 -2.07026e+06 23216.3 0 -2.0704e+06 24018.3 0 -2.07054e+06 24820.5 0 -2.07069e+06 25622.8 0 -2.07084e+06 26425.2 0 -2.071e+06 27227.9 0 -2.07116e+06 28030.7 0 -2.07133e+06 28833.6 0 -2.0715e+06 29636.8 0 -2.07168e+06 30440.1 0 -2.07186e+06 31243.6 0 -2.07204e+06 32047.3 0 -2.07223e+06 32851.2 0 -2.07243e+06 33655.2 0 -2.07263e+06 34459.5 0 -2.07283e+06 35263.8 0 -2.07304e+06 36068.4 0 -2.07326e+06 36873.1 0 -2.07347e+06 37678 0 -2.0737e+06 38483.1 0 -2.07393e+06 39288.3 0 -2.07416e+06 40093.7 0 -2.0744e+06 40899.3 0 -2.07464e+06 41705.1 0 -2.07489e+06 42511.1 0 -2.07514e+06 43317.3 0 -2.0754e+06 44123.8 0 -2.07566e+06 44930.4 0 -2.07592e+06 45737.2 0 -2.0762e+06 46544.3 0 -2.07647e+06 47351.6 0 -2.07675e+06 48159.5 0 -2.07704e+06 48968.8 0 -2.07733e+06 49780 0 -2.07763e+06 50589.4 0 -2.06765e+06 0 0 -2.06765e+06 823.78 0 -2.06766e+06 1647.57 0 -2.06767e+06 2471.37 0 -2.06769e+06 3295.18 0 -2.06771e+06 4119.02 0 -2.06774e+06 4942.89 0 -2.06777e+06 5766.79 0 -2.0678e+06 6590.73 0 -2.06785e+06 7414.72 0 -2.06789e+06 8238.75 0 -2.06795e+06 9062.83 0 -2.068e+06 9886.98 0 -2.06806e+06 10711.2 0 -2.06813e+06 11535.5 0 -2.0682e+06 12359.8 0 -2.06828e+06 13184.2 0 -2.06836e+06 14008.8 0 -2.06845e+06 14833.4 0 -2.06854e+06 15658.1 0 -2.06863e+06 16482.9 0 -2.06874e+06 17307.8 0 -2.06884e+06 18132.8 0 -2.06895e+06 18957.9 0 -2.06907e+06 19783.2 0 -2.06919e+06 20608.5 0 -2.06932e+06 21434 0 -2.06945e+06 22259.7 0 -2.06958e+06 23085.4 0 -2.06972e+06 23911.4 0 -2.06987e+06 24737.4 0 -2.07002e+06 25563.7 0 -2.07017e+06 26390.1 0 -2.07034e+06 27216.7 0 -2.0705e+06 28043.4 0 -2.07067e+06 28870.4 0 -2.07085e+06 29697.5 0 -2.07103e+06 30524.8 0 -2.07121e+06 31352.3 0 -2.0714e+06 32180 0 -2.0716e+06 33007.8 0 -2.0718e+06 33835.9 0 -2.072e+06 34664.1 0 -2.07221e+06 35492.5 0 -2.07243e+06 36321.2 0 -2.07265e+06 37149.9 0 -2.07287e+06 37978.9 0 -2.0731e+06 38808.1 0 -2.07334e+06 39637.4 0 -2.07357e+06 40467 0 -2.07382e+06 41296.8 0 -2.07407e+06 42126.7 0 -2.07432e+06 42956.9 0 -2.07458e+06 43787.4 0 -2.07485e+06 44618.1 0 -2.07512e+06 45449 0 -2.07539e+06 46280.2 0 -2.07567e+06 47111.7 0 -2.07596e+06 47943.7 0 -2.07625e+06 48776.5 0 -2.07655e+06 49610.2 0 -2.07684e+06 50444.6 0 -2.07715e+06 51278.7 0 -2.07746e+06 52113.3 0 -2.06701e+06 0 0 -2.06701e+06 847.875 0 -2.06702e+06 1695.76 0 -2.06703e+06 2543.65 0 -2.06705e+06 3391.57 0 -2.06707e+06 4239.51 0 -2.0671e+06 5087.48 0 -2.06714e+06 5935.48 0 -2.06717e+06 6783.53 0 -2.06722e+06 7631.63 0 -2.06727e+06 8479.77 0 -2.06732e+06 9327.97 0 -2.06738e+06 10176.2 0 -2.06745e+06 11024.6 0 -2.06752e+06 11873 0 -2.06759e+06 12721.5 0 -2.06767e+06 13570 0 -2.06776e+06 14418.7 0 -2.06785e+06 15267.5 0 -2.06794e+06 16116.3 0 -2.06804e+06 16965.3 0 -2.06815e+06 17814.4 0 -2.06826e+06 18663.6 0 -2.06838e+06 19512.9 0 -2.0685e+06 20362.4 0 -2.06863e+06 21212 0 -2.06876e+06 22061.7 0 -2.0689e+06 22911.6 0 -2.06904e+06 23761.6 0 -2.06919e+06 24611.8 0 -2.06934e+06 25462.2 0 -2.0695e+06 26312.7 0 -2.06966e+06 27163.4 0 -2.06983e+06 28014.3 0 -2.07e+06 28865.3 0 -2.07018e+06 29716.6 0 -2.07036e+06 30568.1 0 -2.07055e+06 31419.7 0 -2.07075e+06 32271.6 0 -2.07095e+06 33123.6 0 -2.07115e+06 33975.9 0 -2.07136e+06 34828.3 0 -2.07158e+06 35681 0 -2.0718e+06 36533.8 0 -2.07202e+06 37386.8 0 -2.07225e+06 38240.1 0 -2.07249e+06 39093.5 0 -2.07273e+06 39947.2 0 -2.07298e+06 40801 0 -2.07323e+06 41655.2 0 -2.07348e+06 42509.5 0 -2.07375e+06 43364.1 0 -2.07401e+06 44218.9 0 -2.07429e+06 45074.1 0 -2.07456e+06 45929.5 0 -2.07485e+06 46785.2 0 -2.07514e+06 47641.4 0 -2.07543e+06 48498.1 0 -2.07573e+06 49355.5 0 -2.07603e+06 50213.6 0 -2.07634e+06 51072 0 -2.07666e+06 51930.5 0 -2.07698e+06 52789.4 0 -2.0773e+06 53648.5 0 -2.06637e+06 0 0 -2.06637e+06 872.153 0 -2.06638e+06 1744.32 0 -2.06639e+06 2616.49 0 -2.06641e+06 3488.69 0 -2.06644e+06 4360.91 0 -2.06647e+06 5233.17 0 -2.0665e+06 6105.46 0 -2.06654e+06 6977.8 0 -2.06659e+06 7850.19 0 -2.06664e+06 8722.63 0 -2.0667e+06 9595.14 0 -2.06676e+06 10467.7 0 -2.06683e+06 11340.4 0 -2.0669e+06 12213.1 0 -2.06698e+06 13085.9 0 -2.06706e+06 13958.8 0 -2.06715e+06 14831.8 0 -2.06725e+06 15704.9 0 -2.06735e+06 16578.1 0 -2.06745e+06 17451.5 0 -2.06756e+06 18324.9 0 -2.06768e+06 19198.5 0 -2.0678e+06 20072.2 0 -2.06793e+06 20946.1 0 -2.06806e+06 21820.1 0 -2.0682e+06 22694.2 0 -2.06835e+06 23568.5 0 -2.06849e+06 24443 0 -2.06865e+06 25317.6 0 -2.06881e+06 26192.5 0 -2.06898e+06 27067.5 0 -2.06915e+06 27942.7 0 -2.06932e+06 28818 0 -2.0695e+06 29693.6 0 -2.06969e+06 30569.4 0 -2.06988e+06 31445.4 0 -2.07008e+06 32321.6 0 -2.07029e+06 33198 0 -2.07049e+06 34074.6 0 -2.07071e+06 34951.4 0 -2.07093e+06 35828.5 0 -2.07115e+06 36705.7 0 -2.07138e+06 37583.2 0 -2.07162e+06 38460.9 0 -2.07186e+06 39338.8 0 -2.07211e+06 40216.9 0 -2.07236e+06 41095.3 0 -2.07262e+06 41973.9 0 -2.07288e+06 42852.8 0 -2.07315e+06 43732 0 -2.07343e+06 44611.4 0 -2.07371e+06 45491.1 0 -2.07399e+06 46371.2 0 -2.07428e+06 47251.7 0 -2.07458e+06 48132.7 0 -2.07488e+06 49014.1 0 -2.07519e+06 49896.2 0 -2.0755e+06 50778.7 0 -2.07582e+06 51661.6 0 -2.07615e+06 52544.8 0 -2.07647e+06 53428.3 0 -2.07681e+06 54312 0 -2.07715e+06 55196.1 0 -2.06572e+06 0 0 -2.06573e+06 896.615 0 -2.06574e+06 1793.24 0 -2.06575e+06 2689.88 0 -2.06577e+06 3586.54 0 -2.0658e+06 4483.23 0 -2.06583e+06 5379.95 0 -2.06586e+06 6276.72 0 -2.06591e+06 7173.53 0 -2.06595e+06 8070.4 0 -2.06601e+06 8967.33 0 -2.06607e+06 9864.32 0 -2.06613e+06 10761.4 0 -2.0662e+06 11658.5 0 -2.06628e+06 12555.8 0 -2.06636e+06 13453.1 0 -2.06645e+06 14350.5 0 -2.06655e+06 15248 0 -2.06664e+06 16145.7 0 -2.06675e+06 17043.4 0 -2.06686e+06 17941.3 0 -2.06698e+06 18839.3 0 -2.0671e+06 19737.5 0 -2.06723e+06 20635.8 0 -2.06736e+06 21534.2 0 -2.0675e+06 22432.8 0 -2.06764e+06 23331.6 0 -2.06779e+06 24230.5 0 -2.06795e+06 25129.6 0 -2.06811e+06 26028.9 0 -2.06828e+06 26928.3 0 -2.06845e+06 27828 0 -2.06863e+06 28727.9 0 -2.06882e+06 29628 0 -2.06901e+06 30528.3 0 -2.0692e+06 31428.8 0 -2.0694e+06 32329.5 0 -2.06961e+06 33230.4 0 -2.06982e+06 34131.6 0 -2.07004e+06 35033 0 -2.07027e+06 35934.6 0 -2.0705e+06 36836.4 0 -2.07073e+06 37738.5 0 -2.07097e+06 38640.8 0 -2.07122e+06 39543.3 0 -2.07147e+06 40446.1 0 -2.07173e+06 41349.2 0 -2.072e+06 42252.5 0 -2.07227e+06 43156.1 0 -2.07254e+06 44060 0 -2.07282e+06 44964.2 0 -2.07311e+06 45868.7 0 -2.07341e+06 46773.6 0 -2.0737e+06 47679 0 -2.07401e+06 48584.8 0 -2.07432e+06 49491.1 0 -2.07464e+06 50397.9 0 -2.07496e+06 51305.2 0 -2.07529e+06 52212.8 0 -2.07562e+06 53120.8 0 -2.07596e+06 54029.1 0 -2.0763e+06 54937.8 0 -2.07665e+06 55846.7 0 -2.07701e+06 56756.1 0 -2.06508e+06 0 0 -2.06508e+06 921.259 0 -2.06509e+06 1842.53 0 -2.06511e+06 2763.81 0 -2.06513e+06 3685.12 0 -2.06515e+06 4606.46 0 -2.06519e+06 5527.84 0 -2.06522e+06 6449.26 0 -2.06527e+06 7370.73 0 -2.06532e+06 8292.26 0 -2.06538e+06 9213.85 0 -2.06544e+06 10135.5 0 -2.06551e+06 11057.3 0 -2.06558e+06 11979.1 0 -2.06566e+06 12901 0 -2.06575e+06 13823 0 -2.06584e+06 14745.2 0 -2.06594e+06 15667.4 0 -2.06604e+06 16589.7 0 -2.06615e+06 17512.2 0 -2.06627e+06 18434.8 0 -2.06639e+06 19357.6 0 -2.06651e+06 20280.5 0 -2.06665e+06 21203.6 0 -2.06679e+06 22126.8 0 -2.06693e+06 23050.2 0 -2.06708e+06 23973.7 0 -2.06724e+06 24897.5 0 -2.0674e+06 25821.4 0 -2.06757e+06 26745.5 0 -2.06775e+06 27669.8 0 -2.06793e+06 28594.4 0 -2.06812e+06 29519.1 0 -2.06831e+06 30444.1 0 -2.06851e+06 31369.3 0 -2.06871e+06 32294.7 0 -2.06892e+06 33220.3 0 -2.06914e+06 34146.2 0 -2.06936e+06 35072.3 0 -2.06959e+06 35998.7 0 -2.06983e+06 36925.3 0 -2.07007e+06 37852.1 0 -2.07031e+06 38779.2 0 -2.07057e+06 39706.5 0 -2.07082e+06 40634.2 0 -2.07109e+06 41562.1 0 -2.07136e+06 42490.2 0 -2.07164e+06 43418.7 0 -2.07192e+06 44347.5 0 -2.07221e+06 45276.7 0 -2.0725e+06 46206.2 0 -2.0728e+06 47136.1 0 -2.07311e+06 48066.4 0 -2.07342e+06 48997.2 0 -2.07374e+06 49928.5 0 -2.07406e+06 50860.3 0 -2.07439e+06 51792.5 0 -2.07473e+06 52725.1 0 -2.07507e+06 53658.1 0 -2.07542e+06 54591.4 0 -2.07577e+06 55525.1 0 -2.07613e+06 56459.2 0 -2.0765e+06 57393.6 0 -2.07687e+06 58328.5 0 -2.06443e+06 0 0 -2.06443e+06 946.087 0 -2.06444e+06 1892.18 0 -2.06446e+06 2838.3 0 -2.06448e+06 3784.44 0 -2.06451e+06 4730.61 0 -2.06454e+06 5676.82 0 -2.06458e+06 6623.08 0 -2.06463e+06 7569.39 0 -2.06468e+06 8515.77 0 -2.06474e+06 9462.21 0 -2.0648e+06 10408.7 0 -2.06488e+06 11355.3 0 -2.06495e+06 12302 0 -2.06504e+06 13248.8 0 -2.06513e+06 14195.7 0 -2.06522e+06 15142.7 0 -2.06532e+06 16089.9 0 -2.06543e+06 17037.1 0 -2.06555e+06 17984.5 0 -2.06567e+06 18932.1 0 -2.0658e+06 19879.8 0 -2.06593e+06 20827.6 0 -2.06607e+06 21775.6 0 -2.06621e+06 22723.8 0 -2.06637e+06 23672.1 0 -2.06652e+06 24620.7 0 -2.06669e+06 25569.4 0 -2.06686e+06 26518.4 0 -2.06704e+06 27467.5 0 -2.06722e+06 28416.9 0 -2.06741e+06 29366.5 0 -2.0676e+06 30316.3 0 -2.0678e+06 31266.3 0 -2.06801e+06 32216.6 0 -2.06823e+06 33167.1 0 -2.06845e+06 34117.9 0 -2.06867e+06 35068.9 0 -2.0689e+06 36020.2 0 -2.06914e+06 36971.7 0 -2.06939e+06 37923.5 0 -2.06964e+06 38875.6 0 -2.0699e+06 39827.9 0 -2.07016e+06 40780.5 0 -2.07043e+06 41733.4 0 -2.07071e+06 42686.6 0 -2.07099e+06 43640.2 0 -2.07128e+06 44594.1 0 -2.07157e+06 45548.3 0 -2.07187e+06 46502.9 0 -2.07218e+06 47458 0 -2.0725e+06 48413.4 0 -2.07282e+06 49369.4 0 -2.07314e+06 50325.8 0 -2.07347e+06 51282.7 0 -2.07381e+06 52240.1 0 -2.07416e+06 53197.8 0 -2.07451e+06 54156 0 -2.07487e+06 55114.5 0 -2.07523e+06 56073.5 0 -2.0756e+06 57032.8 0 -2.07598e+06 57992.6 0 -2.07636e+06 58952.8 0 -2.07675e+06 59913.4 0 -2.06378e+06 0 0 -2.06378e+06 971.096 0 -2.06379e+06 1942.2 0 -2.06381e+06 2913.33 0 -2.06383e+06 3884.48 0 -2.06386e+06 4855.67 0 -2.06389e+06 5826.9 0 -2.06394e+06 6798.18 0 -2.06398e+06 7769.52 0 -2.06404e+06 8740.92 0 -2.0641e+06 9712.4 0 -2.06417e+06 10684 0 -2.06424e+06 11655.6 0 -2.06432e+06 12627.4 0 -2.06441e+06 13599.2 0 -2.0645e+06 14571.2 0 -2.0646e+06 15543.3 0 -2.06471e+06 16515.5 0 -2.06482e+06 17487.8 0 -2.06494e+06 18460.3 0 -2.06507e+06 19433 0 -2.0652e+06 20405.8 0 -2.06534e+06 21378.7 0 -2.06549e+06 22351.9 0 -2.06564e+06 23325.2 0 -2.0658e+06 24298.8 0 -2.06596e+06 25272.5 0 -2.06613e+06 26246.4 0 -2.06631e+06 27220.6 0 -2.0665e+06 28194.9 0 -2.06669e+06 29169.5 0 -2.06688e+06 30144.4 0 -2.06709e+06 31119.4 0 -2.0673e+06 32094.8 0 -2.06751e+06 33070.3 0 -2.06774e+06 34046.2 0 -2.06797e+06 35022.2 0 -2.0682e+06 35998.6 0 -2.06845e+06 36975.2 0 -2.06869e+06 37952.1 0 -2.06895e+06 38929.3 0 -2.06921e+06 39906.8 0 -2.06948e+06 40884.6 0 -2.06976e+06 41862.7 0 -2.07004e+06 42841.1 0 -2.07033e+06 43819.9 0 -2.07062e+06 44799 0 -2.07092e+06 45778.5 0 -2.07123e+06 46758.4 0 -2.07154e+06 47738.7 0 -2.07187e+06 48719.5 0 -2.07219e+06 49700.8 0 -2.07253e+06 50682.5 0 -2.07287e+06 51664.7 0 -2.07321e+06 52647.4 0 -2.07357e+06 53630.5 0 -2.07393e+06 54614 0 -2.07429e+06 55597.9 0 -2.07467e+06 56582.3 0 -2.07505e+06 57567.1 0 -2.07543e+06 58552.4 0 -2.07582e+06 59538.1 0 -2.07622e+06 60524.2 0 -2.07663e+06 61510.8 0 -2.06312e+06 0 0 -2.06313e+06 996.288 0 -2.06314e+06 1992.59 0 -2.06315e+06 2988.91 0 -2.06318e+06 3985.26 0 -2.06321e+06 4981.64 0 -2.06324e+06 5978.07 0 -2.06329e+06 6974.55 0 -2.06334e+06 7971.1 0 -2.0634e+06 8967.72 0 -2.06346e+06 9964.41 0 -2.06353e+06 10961.2 0 -2.06361e+06 11958.1 0 -2.06369e+06 12955.1 0 -2.06378e+06 13952.1 0 -2.06388e+06 14949.4 0 -2.06398e+06 15946.7 0 -2.0641e+06 16944.2 0 -2.06421e+06 17941.8 0 -2.06434e+06 18939.6 0 -2.06447e+06 19937.5 0 -2.06461e+06 20935.7 0 -2.06475e+06 21933.9 0 -2.0649e+06 22932.4 0 -2.06506e+06 23931.1 0 -2.06523e+06 24930 0 -2.0654e+06 25929.1 0 -2.06558e+06 26928.4 0 -2.06576e+06 27927.9 0 -2.06596e+06 28927.7 0 -2.06615e+06 29927.7 0 -2.06636e+06 30928 0 -2.06657e+06 31928.5 0 -2.06679e+06 32929.3 0 -2.06702e+06 33930.4 0 -2.06725e+06 34931.7 0 -2.06749e+06 35933.3 0 -2.06774e+06 36935.2 0 -2.06799e+06 37937.4 0 -2.06825e+06 38939.9 0 -2.06851e+06 39942.7 0 -2.06879e+06 40945.8 0 -2.06907e+06 41949.3 0 -2.06935e+06 42953.1 0 -2.06965e+06 43957.2 0 -2.06995e+06 44961.7 0 -2.07026e+06 45966.7 0 -2.07057e+06 46972 0 -2.07089e+06 47977.8 0 -2.07122e+06 48984 0 -2.07155e+06 49990.8 0 -2.07189e+06 50998 0 -2.07224e+06 52005.7 0 -2.0726e+06 53013.8 0 -2.07296e+06 54022.4 0 -2.07333e+06 55031.5 0 -2.0737e+06 56041 0 -2.07408e+06 57051 0 -2.07447e+06 58061.4 0 -2.07487e+06 59072.3 0 -2.07527e+06 60083.7 0 -2.07568e+06 61095.6 0 -2.0761e+06 62107.9 0 -2.07652e+06 63120.8 0 -2.06246e+06 0 0 -2.06247e+06 1021.66 0 -2.06248e+06 2043.34 0 -2.0625e+06 3065.03 0 -2.06252e+06 4086.76 0 -2.06255e+06 5108.52 0 -2.06259e+06 6130.33 0 -2.06264e+06 7152.2 0 -2.06269e+06 8174.14 0 -2.06275e+06 9196.15 0 -2.06281e+06 10218.2 0 -2.06289e+06 11240.4 0 -2.06297e+06 12262.7 0 -2.06306e+06 13285.1 0 -2.06315e+06 14307.6 0 -2.06325e+06 15330.3 0 -2.06336e+06 16353.1 0 -2.06348e+06 17376 0 -2.0636e+06 18399.1 0 -2.06373e+06 19422.4 0 -2.06387e+06 20445.8 0 -2.06401e+06 21469.4 0 -2.06416e+06 22493.2 0 -2.06432e+06 23517.2 0 -2.06449e+06 24541.4 0 -2.06466e+06 25565.8 0 -2.06484e+06 26590.5 0 -2.06502e+06 27615.4 0 -2.06522e+06 28640.5 0 -2.06542e+06 29665.9 0 -2.06562e+06 30691.5 0 -2.06584e+06 31717.4 0 -2.06606e+06 32743.6 0 -2.06629e+06 33770.1 0 -2.06652e+06 34796.8 0 -2.06676e+06 35823.8 0 -2.06701e+06 36851.2 0 -2.06727e+06 37878.8 0 -2.06753e+06 38906.8 0 -2.0678e+06 39935 0 -2.06808e+06 40963.7 0 -2.06836e+06 41992.6 0 -2.06866e+06 43022 0 -2.06896e+06 44051.7 0 -2.06926e+06 45081.7 0 -2.06957e+06 46112.3 0 -2.06989e+06 47143.2 0 -2.07022e+06 48174.6 0 -2.07056e+06 49206.5 0 -2.0709e+06 50238.8 0 -2.07125e+06 51271.7 0 -2.0716e+06 52305 0 -2.07196e+06 53338.8 0 -2.07233e+06 54373.2 0 -2.07271e+06 55407.9 0 -2.07309e+06 56443.2 0 -2.07348e+06 57479 0 -2.07388e+06 58515.2 0 -2.07429e+06 59551.9 0 -2.0747e+06 60589.1 0 -2.07512e+06 61626.9 0 -2.07554e+06 62665.2 0 -2.07598e+06 63704 0 -2.07642e+06 64743.4 0 -2.0618e+06 0 0 -2.06181e+06 1047.22 0 -2.06182e+06 2094.45 0 -2.06184e+06 3141.7 0 -2.06186e+06 4188.98 0 -2.06189e+06 5236.31 0 -2.06193e+06 6283.69 0 -2.06198e+06 7331.13 0 -2.06204e+06 8378.64 0 -2.0621e+06 9426.23 0 -2.06217e+06 10473.9 0 -2.06224e+06 11521.7 0 -2.06233e+06 12569.6 0 -2.06242e+06 13617.6 0 -2.06252e+06 14665.7 0 -2.06262e+06 15714 0 -2.06274e+06 16762.4 0 -2.06286e+06 17811 0 -2.06299e+06 18859.7 0 -2.06312e+06 19908.6 0 -2.06326e+06 20957.7 0 -2.06341e+06 22007 0 -2.06357e+06 23056.5 0 -2.06373e+06 24106.2 0 -2.06391e+06 25156.1 0 -2.06409e+06 26206.3 0 -2.06427e+06 27256.7 0 -2.06446e+06 28307.3 0 -2.06467e+06 29358.3 0 -2.06487e+06 30409.4 0 -2.06509e+06 31460.9 0 -2.06531e+06 32512.6 0 -2.06554e+06 33564.6 0 -2.06578e+06 34617 0 -2.06602e+06 35669.6 0 -2.06628e+06 36722.5 0 -2.06654e+06 37775.8 0 -2.0668e+06 38829.4 0 -2.06708e+06 39883.3 0 -2.06736e+06 40937.6 0 -2.06765e+06 41992.2 0 -2.06794e+06 43047.2 0 -2.06825e+06 44102.6 0 -2.06856e+06 45158.5 0 -2.06888e+06 46214.7 0 -2.0692e+06 47271.4 0 -2.06954e+06 48328.6 0 -2.06988e+06 49386.2 0 -2.07022e+06 50444.4 0 -2.07058e+06 51503.1 0 -2.07094e+06 52562.2 0 -2.07131e+06 53621.9 0 -2.07169e+06 54682.1 0 -2.07207e+06 55742.7 0 -2.07246e+06 56803.9 0 -2.07286e+06 57865.6 0 -2.07327e+06 58927.8 0 -2.07368e+06 59990.5 0 -2.07411e+06 61053.8 0 -2.07453e+06 62117.6 0 -2.07497e+06 63182 0 -2.07541e+06 64246.9 0 -2.07586e+06 65312.4 0 -2.07632e+06 66378.5 0 -2.06114e+06 0 0 -2.06114e+06 1072.95 0 -2.06115e+06 2145.92 0 -2.06117e+06 3218.91 0 -2.0612e+06 4291.94 0 -2.06123e+06 5365.01 0 -2.06128e+06 6438.13 0 -2.06133e+06 7511.32 0 -2.06138e+06 8584.59 0 -2.06145e+06 9657.94 0 -2.06152e+06 10731.4 0 -2.0616e+06 11804.9 0 -2.06169e+06 12878.6 0 -2.06178e+06 13952.4 0 -2.06188e+06 15026.3 0 -2.06199e+06 16100.4 0 -2.06211e+06 17174.6 0 -2.06224e+06 18249 0 -2.06237e+06 19323.6 0 -2.06251e+06 20398.3 0 -2.06266e+06 21473.3 0 -2.06281e+06 22548.4 0 -2.06298e+06 23623.8 0 -2.06315e+06 24699.4 0 -2.06333e+06 25775.3 0 -2.06351e+06 26851.4 0 -2.06371e+06 27927.7 0 -2.06391e+06 29004.3 0 -2.06412e+06 30081.2 0 -2.06433e+06 31158.3 0 -2.06456e+06 32235.8 0 -2.06479e+06 33313.6 0 -2.06503e+06 34391.6 0 -2.06527e+06 35470 0 -2.06553e+06 36548.7 0 -2.06579e+06 37627.7 0 -2.06606e+06 38707.1 0 -2.06634e+06 39786.9 0 -2.06662e+06 40867 0 -2.06692e+06 41947.4 0 -2.06722e+06 43028.3 0 -2.06752e+06 44109.6 0 -2.06784e+06 45191.3 0 -2.06816e+06 46273.5 0 -2.06849e+06 47356.1 0 -2.06883e+06 48439.2 0 -2.06918e+06 49522.8 0 -2.06953e+06 50606.9 0 -2.06989e+06 51691.6 0 -2.07026e+06 52776.7 0 -2.07064e+06 53862.4 0 -2.07102e+06 54948.6 0 -2.07142e+06 56035.3 0 -2.07182e+06 57122.6 0 -2.07222e+06 58210.4 0 -2.07264e+06 59298.7 0 -2.07306e+06 60387.6 0 -2.07349e+06 61477.1 0 -2.07393e+06 62567.1 0 -2.07438e+06 63657.7 0 -2.07483e+06 64748.9 0 -2.07529e+06 65840.7 0 -2.07576e+06 66933.2 0 -2.07624e+06 68026.3 0 -2.06047e+06 0 0 -2.06048e+06 1098.87 0 -2.06049e+06 2197.76 0 -2.06051e+06 3296.67 0 -2.06054e+06 4395.62 0 -2.06057e+06 5494.61 0 -2.06061e+06 6593.67 0 -2.06067e+06 7692.79 0 -2.06072e+06 8791.99 0 -2.06079e+06 9891.28 0 -2.06087e+06 10990.7 0 -2.06095e+06 12090.2 0 -2.06104e+06 13189.8 0 -2.06114e+06 14289.6 0 -2.06125e+06 15389.5 0 -2.06136e+06 16489.5 0 -2.06148e+06 17589.8 0 -2.06161e+06 18690.2 0 -2.06175e+06 19790.7 0 -2.0619e+06 20891.5 0 -2.06205e+06 21992.5 0 -2.06221e+06 23093.7 0 -2.06238e+06 24195.2 0 -2.06256e+06 25296.9 0 -2.06274e+06 26398.8 0 -2.06294e+06 27501 0 -2.06314e+06 28603.5 0 -2.06335e+06 29706.2 0 -2.06356e+06 30809.3 0 -2.06379e+06 31912.6 0 -2.06402e+06 33016.3 0 -2.06426e+06 34120.2 0 -2.06451e+06 35224.5 0 -2.06477e+06 36329.2 0 -2.06503e+06 37434.2 0 -2.0653e+06 38539.5 0 -2.06559e+06 39645.2 0 -2.06587e+06 40751.3 0 -2.06617e+06 41857.8 0 -2.06647e+06 42964.7 0 -2.06679e+06 44072 0 -2.06711e+06 45179.8 0 -2.06743e+06 46288 0 -2.06777e+06 47396.7 0 -2.06811e+06 48505.9 0 -2.06847e+06 49615.6 0 -2.06883e+06 50725.9 0 -2.06919e+06 51836.6 0 -2.06957e+06 52947.9 0 -2.06995e+06 54059.8 0 -2.07034e+06 55172.2 0 -2.07074e+06 56285.1 0 -2.07115e+06 57398.6 0 -2.07157e+06 58512.7 0 -2.07199e+06 59627.4 0 -2.07242e+06 60742.6 0 -2.07286e+06 61858.4 0 -2.07331e+06 62974.8 0 -2.07376e+06 64091.8 0 -2.07423e+06 65209.5 0 -2.0747e+06 66327.8 0 -2.07518e+06 67446.7 0 -2.07566e+06 68566.4 0 -2.07616e+06 69686.7 0 -2.0598e+06 0 0 -2.05981e+06 1124.97 0 -2.05982e+06 2249.96 0 -2.05984e+06 3374.97 0 -2.05987e+06 4500.02 0 -2.0599e+06 5625.12 0 -2.05995e+06 6750.29 0 -2.06e+06 7875.52 0 -2.06006e+06 9000.84 0 -2.06013e+06 10126.3 0 -2.06021e+06 11251.8 0 -2.0603e+06 12377.4 0 -2.06039e+06 13503.2 0 -2.06049e+06 14629.1 0 -2.06061e+06 15755.2 0 -2.06072e+06 16881.4 0 -2.06085e+06 18007.8 0 -2.06099e+06 19134.4 0 -2.06113e+06 20261.2 0 -2.06128e+06 21388.2 0 -2.06144e+06 22515.4 0 -2.06161e+06 23642.9 0 -2.06178e+06 24770.6 0 -2.06197e+06 25898.6 0 -2.06216e+06 27026.8 0 -2.06236e+06 28155.3 0 -2.06257e+06 29284.1 0 -2.06279e+06 30413.2 0 -2.06301e+06 31542.6 0 -2.06325e+06 32672.3 0 -2.06349e+06 33802.3 0 -2.06374e+06 34932.7 0 -2.064e+06 36063.4 0 -2.06426e+06 37194.5 0 -2.06454e+06 38326 0 -2.06482e+06 39457.8 0 -2.06511e+06 40590.1 0 -2.06541e+06 41722.7 0 -2.06572e+06 42855.8 0 -2.06603e+06 43989.3 0 -2.06636e+06 45123.3 0 -2.06669e+06 46257.7 0 -2.06703e+06 47392.7 0 -2.06738e+06 48528.1 0 -2.06774e+06 49664.1 0 -2.0681e+06 50800.6 0 -2.06847e+06 51937.7 0 -2.06886e+06 53075.3 0 -2.06925e+06 54213.5 0 -2.06964e+06 55352.3 0 -2.07005e+06 56491.6 0 -2.07047e+06 57631.5 0 -2.07089e+06 58772 0 -2.07132e+06 59913.1 0 -2.07176e+06 61054.8 0 -2.07221e+06 62197.2 0 -2.07266e+06 63340.1 0 -2.07313e+06 64483.7 0 -2.0736e+06 65628 0 -2.07408e+06 66772.9 0 -2.07457e+06 67918.6 0 -2.07507e+06 69064.9 0 -2.07557e+06 70211.9 0 -2.07609e+06 71359.7 0 -2.05913e+06 0 0 -2.05913e+06 1151.25 0 -2.05915e+06 2302.52 0 -2.05917e+06 3453.81 0 -2.0592e+06 4605.15 0 -2.05924e+06 5756.54 0 -2.05928e+06 6907.99 0 -2.05934e+06 8059.52 0 -2.0594e+06 9211.14 0 -2.05947e+06 10362.9 0 -2.05955e+06 11514.7 0 -2.05964e+06 12666.7 0 -2.05974e+06 13818.8 0 -2.05985e+06 14971 0 -2.05996e+06 16123.4 0 -2.06009e+06 17276 0 -2.06022e+06 18428.8 0 -2.06036e+06 19581.8 0 -2.06051e+06 20734.9 0 -2.06066e+06 21888.3 0 -2.06083e+06 23042 0 -2.061e+06 24195.9 0 -2.06119e+06 25350 0 -2.06138e+06 26504.4 0 -2.06158e+06 27659.1 0 -2.06178e+06 28814.1 0 -2.062e+06 29969.4 0 -2.06223e+06 31125.1 0 -2.06246e+06 32281 0 -2.0627e+06 33437.3 0 -2.06295e+06 34593.9 0 -2.06321e+06 35750.9 0 -2.06348e+06 36908.3 0 -2.06376e+06 38066 0 -2.06404e+06 39224.1 0 -2.06433e+06 40382.7 0 -2.06464e+06 41541.7 0 -2.06495e+06 42701.1 0 -2.06527e+06 43861 0 -2.06559e+06 45021.3 0 -2.06593e+06 46182.1 0 -2.06627e+06 47343.5 0 -2.06663e+06 48505.3 0 -2.06699e+06 49667.7 0 -2.06736e+06 50830.7 0 -2.06774e+06 51994.2 0 -2.06813e+06 53158.3 0 -2.06852e+06 54323 0 -2.06893e+06 55488.3 0 -2.06934e+06 56654.2 0 -2.06976e+06 57820.7 0 -2.07019e+06 58987.8 0 -2.07063e+06 60155.5 0 -2.07108e+06 61323.9 0 -2.07153e+06 62492.9 0 -2.072e+06 63662.5 0 -2.07247e+06 64832.9 0 -2.07295e+06 66003.9 0 -2.07344e+06 67175.7 0 -2.07394e+06 68348.1 0 -2.07445e+06 69521.3 0 -2.07497e+06 70695.2 0 -2.07549e+06 71869.9 0 -2.07603e+06 73045.4 0 -2.05845e+06 0 0 -2.05846e+06 1177.71 0 -2.05847e+06 2355.44 0 -2.05849e+06 3533.2 0 -2.05852e+06 4711 0 -2.05856e+06 5888.85 0 -2.05861e+06 7066.78 0 -2.05867e+06 8244.79 0 -2.05874e+06 9422.89 0 -2.05881e+06 10601.1 0 -2.05889e+06 11779.4 0 -2.05899e+06 12957.9 0 -2.05909e+06 14136.5 0 -2.0592e+06 15315.3 0 -2.05932e+06 16494.2 0 -2.05945e+06 17673.3 0 -2.05958e+06 18852.7 0 -2.05973e+06 20032.2 0 -2.05988e+06 21212 0 -2.06004e+06 22391.9 0 -2.06022e+06 23572.2 0 -2.0604e+06 24752.7 0 -2.06059e+06 25933.5 0 -2.06078e+06 27114.5 0 -2.06099e+06 28295.9 0 -2.06121e+06 29477.6 0 -2.06143e+06 30659.6 0 -2.06166e+06 31841.9 0 -2.06191e+06 33024.6 0 -2.06216e+06 34207.6 0 -2.06242e+06 35391 0 -2.06269e+06 36574.8 0 -2.06296e+06 37759 0 -2.06325e+06 38943.6 0 -2.06355e+06 40128.7 0 -2.06385e+06 41314.1 0 -2.06416e+06 42500 0 -2.06448e+06 43686.4 0 -2.06482e+06 44873.3 0 -2.06515e+06 46060.6 0 -2.0655e+06 47248.5 0 -2.06586e+06 48437 0 -2.06623e+06 49626 0 -2.0666e+06 50815.5 0 -2.06699e+06 52005.7 0 -2.06738e+06 53196.4 0 -2.06778e+06 54387.8 0 -2.06819e+06 55579.7 0 -2.06861e+06 56772.3 0 -2.06904e+06 57965.5 0 -2.06948e+06 59159.4 0 -2.06992e+06 60353.9 0 -2.07038e+06 61549.1 0 -2.07084e+06 62744.9 0 -2.07131e+06 63941.4 0 -2.0718e+06 65138.7 0 -2.07229e+06 66336.6 0 -2.07279e+06 67535.3 0 -2.07329e+06 68734.8 0 -2.07381e+06 69935 0 -2.07434e+06 71136 0 -2.07487e+06 72337.7 0 -2.07542e+06 73540.3 0 -2.07597e+06 74743.7 0 -2.05778e+06 0 0 -2.05778e+06 1204.35 0 -2.05779e+06 2408.72 0 -2.05782e+06 3613.12 0 -2.05785e+06 4817.57 0 -2.05789e+06 6022.07 0 -2.05794e+06 7226.65 0 -2.058e+06 8431.31 0 -2.05807e+06 9636.08 0 -2.05815e+06 10841 0 -2.05823e+06 12046 0 -2.05833e+06 13251.1 0 -2.05843e+06 14456.4 0 -2.05855e+06 15661.9 0 -2.05867e+06 16867.5 0 -2.0588e+06 18073.4 0 -2.05894e+06 19279.4 0 -2.05909e+06 20485.7 0 -2.05925e+06 21692.2 0 -2.05942e+06 22899 0 -2.0596e+06 24106 0 -2.05979e+06 25313.3 0 -2.05998e+06 26520.9 0 -2.06019e+06 27728.8 0 -2.0604e+06 28937.1 0 -2.06063e+06 30145.6 0 -2.06086e+06 31354.5 0 -2.0611e+06 32563.7 0 -2.06135e+06 33773.4 0 -2.06161e+06 34983.4 0 -2.06188e+06 36193.7 0 -2.06216e+06 37404.5 0 -2.06245e+06 38615.7 0 -2.06274e+06 39827.4 0 -2.06305e+06 41039.5 0 -2.06337e+06 42252.1 0 -2.06369e+06 43465.1 0 -2.06402e+06 44678.7 0 -2.06437e+06 45892.7 0 -2.06472e+06 47107.3 0 -2.06508e+06 48322.5 0 -2.06545e+06 49538.2 0 -2.06583e+06 50754.6 0 -2.06622e+06 51971.5 0 -2.06661e+06 53189 0 -2.06702e+06 54407.2 0 -2.06744e+06 55626 0 -2.06786e+06 56845.4 0 -2.0683e+06 58065.5 0 -2.06874e+06 59286.3 0 -2.06919e+06 60507.7 0 -2.06966e+06 61729.9 0 -2.07013e+06 62952.7 0 -2.07061e+06 64176.3 0 -2.0711e+06 65400.6 0 -2.0716e+06 66625.6 0 -2.07211e+06 67851.4 0 -2.07262e+06 69078 0 -2.07315e+06 70305.4 0 -2.07369e+06 71533.6 0 -2.07423e+06 72762.6 0 -2.07479e+06 73992.5 0 -2.07535e+06 75223.2 0 -2.07592e+06 76454.8 0 -2.05709e+06 0 0 -2.0571e+06 1231.17 0 -2.05711e+06 2462.36 0 -2.05714e+06 3693.58 0 -2.05717e+06 4924.86 0 -2.05721e+06 6156.19 0 -2.05726e+06 7387.6 0 -2.05733e+06 8619.1 0 -2.0574e+06 9850.71 0 -2.05748e+06 11082.4 0 -2.05757e+06 12314.3 0 -2.05767e+06 13546.3 0 -2.05777e+06 14778.5 0 -2.05789e+06 16010.8 0 -2.05802e+06 17243.4 0 -2.05816e+06 18476.2 0 -2.0583e+06 19709.1 0 -2.05846e+06 20942.3 0 -2.05862e+06 22175.8 0 -2.0588e+06 23409.5 0 -2.05898e+06 24643.5 0 -2.05918e+06 25877.8 0 -2.05938e+06 27112.4 0 -2.05959e+06 28347.4 0 -2.05981e+06 29582.6 0 -2.06005e+06 30818.2 0 -2.06029e+06 32054.2 0 -2.06054e+06 33290.5 0 -2.0608e+06 34527.3 0 -2.06107e+06 35764.4 0 -2.06135e+06 37002 0 -2.06163e+06 38240 0 -2.06193e+06 39478.4 0 -2.06224e+06 40717.3 0 -2.06256e+06 41956.7 0 -2.06288e+06 43196.6 0 -2.06322e+06 44436.9 0 -2.06356e+06 45677.9 0 -2.06392e+06 46919.3 0 -2.06428e+06 48161.4 0 -2.06466e+06 49404 0 -2.06504e+06 50647.3 0 -2.06543e+06 51891.1 0 -2.06583e+06 53135.6 0 -2.06625e+06 54380.7 0 -2.06667e+06 55626.5 0 -2.0671e+06 56873 0 -2.06754e+06 58120.1 0 -2.06799e+06 59368 0 -2.06845e+06 60616.5 0 -2.06892e+06 61865.8 0 -2.0694e+06 63115.7 0 -2.06988e+06 64366.5 0 -2.07038e+06 65618 0 -2.07089e+06 66870.3 0 -2.0714e+06 68123.3 0 -2.07193e+06 69377.2 0 -2.07247e+06 70631.9 0 -2.07301e+06 71887.5 0 -2.07357e+06 73143.9 0 -2.07413e+06 74401.2 0 -2.07471e+06 75659.4 0 -2.07529e+06 76918.5 0 -2.07588e+06 78178.5 0 -2.05641e+06 0 0 -2.05642e+06 1258.17 0 -2.05643e+06 2516.36 0 -2.05645e+06 3774.59 0 -2.05649e+06 5032.87 0 -2.05653e+06 6291.21 0 -2.05659e+06 7549.63 0 -2.05665e+06 8808.15 0 -2.05672e+06 10066.8 0 -2.05681e+06 11325.5 0 -2.0569e+06 12584.4 0 -2.057e+06 13843.5 0 -2.05711e+06 15102.7 0 -2.05724e+06 16362.2 0 -2.05737e+06 17621.8 0 -2.05751e+06 18881.6 0 -2.05766e+06 20141.7 0 -2.05782e+06 21402 0 -2.05799e+06 22662.6 0 -2.05817e+06 23923.5 0 -2.05836e+06 25184.7 0 -2.05857e+06 26446.1 0 -2.05878e+06 27707.9 0 -2.059e+06 28970.1 0 -2.05922e+06 30232.6 0 -2.05946e+06 31495.4 0 -2.05971e+06 32758.7 0 -2.05997e+06 34022.3 0 -2.06024e+06 35286.4 0 -2.06052e+06 36550.8 0 -2.06081e+06 37815.8 0 -2.06111e+06 39081.1 0 -2.06141e+06 40347 0 -2.06173e+06 41613.3 0 -2.06206e+06 42880.2 0 -2.0624e+06 44147.