<?xml version="1.0"?> 
<VTKFile type="StructuredGrid" version="0.1"> 
<StructuredGrid WholeExtent="0 63 0 63 0 0"> 
<Piece Extent="0 63 0 63 0 0"> 
<PointData>
<DataArray type="Float32" Name="|E|" format="ascii" NumberOfComponents="3"> 
-3.75081e+06 1.01099e+06 0 -3.76179e+06 1.00058e+06 0 -3.77284e+06 990068 0 -3.784e+06 979426 0 -3.79526e+06 968650 0 -3.80664e+06 957735 0 -3.81813e+06 946680 0 -3.82974e+06 935482 0 -3.84147e+06 924139 0 -3.85332e+06 912649 0 -3.86529e+06 901009 0 -3.87739e+06 889218 0 -3.88962e+06 877273 0 -3.90198e+06 865173 0 -3.91446e+06 852915 0 -3.92709e+06 840497 0 -3.93984e+06 827916 0 -3.95274e+06 815171 0 -3.96577e+06 802258 0 -3.97895e+06 789176 0 -3.99227e+06 775922 0 -4.00574e+06 762494 0 -4.01936e+06 748889 0 -4.03313e+06 735105 0 -4.04705e+06 721138 0 -4.06113e+06 706987 0 -4.07536e+06 692648 0 -4.08976e+06 678120 0 -4.10433e+06 663398 0 -4.11906e+06 648480 0 -4.13395e+06 633363 0 -4.14903e+06 618045 0 -4.16427e+06 602522 0 -4.17969e+06 586791 0 -4.1953e+06 570848 0 -4.21109e+06 554692 0 -4.22706e+06 538318 0 -4.24322e+06 521723 0 -4.25958e+06 504904 0 -4.27613e+06 487857 0 -4.29289e+06 470578 0 -4.30984e+06 453065 0 -4.327e+06 435313 0 -4.34437e+06 417318 0 -4.36196e+06 399078 0 -4.37976e+06 380587 0 -4.39778e+06 361842 0 -4.41603e+06 342839 0 -4.4345e+06 323574 0 -4.45321e+06 304041 0 -4.47215e+06 284238 0 -4.49134e+06 264160 0 -4.51076e+06 243801 0 -4.53044e+06 223159 0 -4.55037e+06 202227 0 -4.57056e+06 181001 0 -4.59101e+06 159476 0 -4.61173e+06 137647 0 -4.63272e+06 115509 0 -4.65399e+06 93057.6 0 -4.67554e+06 70286.2 0 -4.69737e+06 47189.9 0 -4.7195e+06 23763 0 -4.74193e+06 1.66893e-06 0 -3.79682e+06 1.06196e+06 0 -3.80825e+06 1.05222e+06 0 -3.81981e+06 1.04235e+06 0 -3.8315e+06 1.03235e+06 0 -3.84331e+06 1.02223e+06 0 -3.85525e+06 1.01197e+06 0 -3.86731e+06 1.00158e+06 0 -3.87951e+06 991053 0 -3.89183e+06 980391 0 -3.90429e+06 969590 0 -3.91688e+06 958647 0 -3.92962e+06 947562 0 -3.94249e+06 936332 0 -3.9555e+06 924955 0 -3.96866e+06 913429 0 -3.98197e+06 901751 0 -3.99542e+06 889920 0 -4.00903e+06 877933 0 -4.02279e+06 865789 0 -4.0367e+06 853483 0 -4.05078e+06 841016 0 -4.06501e+06 828383 0 -4.07942e+06 815583 0 -4.09398e+06 802613 0 -4.10872e+06 789471 0 -4.12363e+06 776154 0 -4.13872e+06 762659 0 -4.15398e+06 748984 0 -4.16943e+06 735126 0 -4.18506e+06 721083 0 -4.20088e+06 706851 0 -4.21689e+06 692428 0 -4.23309e+06 677811 0 -4.2495e+06 662997 0 -4.2661e+06 647982 0 -4.2829e+06 632764 0 -4.29992e+06 617340 0 -4.31714e+06 601706 0 -4.33458e+06 585859 0 -4.35224e+06 569796 0 -4.37012e+06 553513 0 -4.38823e+06 537008 0 -4.40657e+06 520276 0 -4.42514e+06 503313 0 -4.44396e+06 486117 0 -4.46301e+06 468683 0 -4.48231e+06 451007 0 -4.50187e+06 433086 0 -4.52168e+06 414916 0 -4.54175e+06 396492 0 -4.56209e+06 377811 0 -4.5827e+06 358868 0 -4.60358e+06 339659 0 -4.62475e+06 320179 0 -4.6462e+06 300424 0 -4.66794e+06 280390 0 -4.68998e+06 260071 0 -4.71233e+06 239463 0 -4.73498e+06 218562 0 -4.75794e+06 197361 0 -4.78123e+06 175856 0 -4.80484e+06 154041 0 -4.82878e+06 131912 0 -4.85306e+06 109463 0 -3.84029e+06 1.11556e+06 0 -3.85224e+06 1.10647e+06 0 -3.86432e+06 1.09725e+06 0 -3.87652e+06 1.08792e+06 0 -3.88887e+06 1.07846e+06 0 -3.90135e+06 1.06888e+06 0 -3.91397e+06 1.05918e+06 0 -3.92672e+06 1.04935e+06 0 -3.93962e+06 1.03939e+06 0 -3.95267e+06 1.0293e+06 0 -3.96586e+06 1.01908e+06 0 -3.97921e+06 1.00872e+06 0 -3.9927e+06 998230 0 -4.00635e+06 987601 0 -4.02016e+06 976832 0 -4.03413e+06 965921 0 -4.04826e+06 954867 0 -4.06255e+06 943666 0 -4.07702e+06 932318 0 -4.09165e+06 920819 0 -4.10646e+06 909168 0 -4.12144e+06 897363 0 -4.13661e+06 885400 0 -4.15195e+06 873279 0 -4.16749e+06 860995 0 -4.18321e+06 848548 0 -4.19912e+06 835934 0 -4.21523e+06 823152 0 -4.23154e+06 810198 0 -4.24805e+06 797070 0 -4.26477e+06 783765 0 -4.28169e+06 770281 0 -4.29884e+06 756615 0 -4.31619e+06 742764 0 -4.33377e+06 728725 0 -4.35157e+06 714495 0 -4.36961e+06 700072 0 -4.38787e+06 685453 0 -4.40638e+06 670633 0 -4.42512e+06 655611 0 -4.44411e+06 640383 0 -4.46335e+06 624946 0 -4.48285e+06 609296 0 -4.5026e+06 593430 0 -4.52263e+06 577345 0 -4.54292e+06 561037 0 -4.56348e+06 544503 0 -4.58433e+06 527738 0 -4.60545e+06 510739 0 -4.62687e+06 493503 0 -4.64859e+06 476026 0 -4.67061e+06 458302 0 -4.69293e+06 440329 0 -4.71557e+06 422103 0 -4.73853e+06 403619 0 -4.76181e+06 384872 0 -4.78543e+06 365859 0 -4.80938e+06 346575 0 -4.83368e+06 327015 0 -4.85833e+06 307175 0 -4.88334e+06 287050 0 -4.90871e+06 266635 0 -4.93446e+06 245925 0 -4.96059e+06 224915 0 -3.8812e+06 1.17159e+06 0 -3.89363e+06 1.16316e+06 0 -3.9062e+06 1.15461e+06 0 -3.91892e+06 1.14596e+06 0 -3.93178e+06 1.13719e+06 0 -3.94478e+06 1.1283e+06 0 -3.95793e+06 1.11931e+06 0 -3.97123e+06 1.11019e+06 0 -3.98469e+06 1.10095e+06 0 -3.9983e+06 1.0916e+06 0 -4.01208e+06 1.08212e+06 0 -4.02601e+06 1.07251e+06 0 -4.04011e+06 1.06278e+06 0 -4.05437e+06 1.05293e+06 0 -4.06881e+06 1.04294e+06 0 -4.08342e+06 1.03282e+06 0 -4.0982e+06 1.02257e+06 0 -4.11316e+06 1.01219e+06 0 -4.12831e+06 1.00166e+06 0 -4.14364e+06 991001 0 -4.15915e+06 980197 0 -4.17486e+06 969250 0 -4.19077e+06 958158 0 -4.20687e+06 946919 0 -4.22317e+06 935529 0 -4.23968e+06 923988 0 -4.2564e+06 912293 0 -4.27333e+06 900442 0 -4.29048e+06 888431 0 -4.30785e+06 876260 0 -4.32544e+06 863925 0 -4.34326e+06 851424 0 -4.36131e+06 838755 0 -4.3796e+06 825915 0 -4.39814e+06 812901 0 -4.41691e+06 799711 0 -4.43594e+06 786341 0 -4.45523e+06 772790 0 -4.47477e+06 759055 0 -4.49457e+06 745132 0 -4.51465e+06 731018 0 -4.535e+06 716712 0 -4.55563e+06 702209 0 -4.57655e+06 687507 0 -4.59776e+06 672602 0 -4.61926e+06 657491 0 -4.64106e+06 642171 0 -4.66318e+06 626639 0 -4.6856e+06 610892 0 -4.70835e+06 594925 0 -4.73142e+06 578735 0 -4.75483e+06 562320 0 -4.77857e+06 545674 0 -4.80267e+06 528794 0 -4.82711e+06 511677 0 -4.85191e+06 494319 0 -4.87708e+06 476715 0 -4.90263e+06 458862 0 -4.92856e+06 440755 0 -4.95488e+06 422391 0 -4.9816e+06 403765 0 -5.00872e+06 384872 0 -5.03626e+06 365709 0 -5.06423e+06 346270 0 -3.91941e+06 1.22987e+06 0 -3.93231e+06 1.22211e+06 0 -3.94536e+06 1.21425e+06 0 -3.95855e+06 1.20629e+06 0 -3.9719e+06 1.19822e+06 0 -3.98541e+06 1.19005e+06 0 -3.99908e+06 1.18178e+06 0 -4.0129e+06 1.17339e+06 0 -4.02689e+06 1.1649e+06 0 -4.04105e+06 1.1563e+06 0 -4.05538e+06 1.14758e+06 0 -4.06989e+06 1.13876e+06 0 -4.08456e+06 1.12981e+06 0 -4.09942e+06 1.12075e+06 0 -4.11446e+06 1.11157e+06 0 -4.12969e+06 1.10227e+06 0 -4.1451e+06 1.09285e+06 0 -4.16071e+06 1.08331e+06 0 -4.17651e+06 1.07364e+06 0 -4.19251e+06 1.06384e+06 0 -4.20872e+06 1.05391e+06 0 -4.22513e+06 1.04386e+06 0 -4.24175e+06 1.03367e+06 0 -4.25858e+06 1.02334e+06 0 -4.27563e+06 1.01288e+06 0 -4.2929e+06 1.00229e+06 0 -4.3104e+06 991547 0 -4.32813e+06 980665 0 -4.34609e+06 969639 0 -4.36429e+06 958466 0 -4.38274e+06 947144 0 -4.40143e+06 935672 0 -4.42037e+06 924046 0 -4.43957e+06 912264 0 -4.45903e+06 900325 0 -4.47875e+06 888225 0 -4.49875e+06 875963 0 -4.51902e+06 863536 0 -4.53958e+06 850942 0 -4.56042e+06 838177 0 -4.58156e+06 825240 0 -4.603e+06 812128 0 -4.62474e+06 798837 0 -4.64679e+06 785367 0 -4.66915e+06 771713 0 -4.69184e+06 757873 0 -4.71486e+06 743844 0 -4.73822e+06 729624 0 -4.76192e+06 715208 0 -4.78596e+06 700595 0 -4.81037e+06 685781 0 -4.83514e+06 670763 0 -4.86028e+06 655538 0 -4.8858e+06 640103 0 -4.9117e+06 624454 0 -4.938e+06 608588 0 -4.96471e+06 592501 0 -4.99182e+06 576191 0 -5.01936e+06 559654 0 -5.04732e+06 542885 0 -5.07573e+06 525883 0 -5.10458e+06 508641 0 -5.13389e+06 491158 0 -5.16367e+06 473429 0 -3.95481e+06 1.2902e+06 0 -3.96815e+06 1.28313e+06 0 -3.98165e+06 1.27597e+06 0 -3.99531e+06 1.26872e+06 0 -4.00913e+06 1.26137e+06 0 -4.02312e+06 1.25393e+06 0 -4.03728e+06 1.2464e+06 0 -4.05161e+06 1.23877e+06 0 -4.06611e+06 1.23104e+06 0 -4.0808e+06 1.22321e+06 0 -4.09566e+06 1.21528e+06 0 -4.11071e+06 1.20725e+06 0 -4.12595e+06 1.19911e+06 0 -4.14137e+06 1.19087e+06 0 -4.157e+06 1.18252e+06 0 -4.17282e+06 1.17407e+06 0 -4.18884e+06 1.1655e+06 0 -4.20507e+06 1.15683e+06 0 -4.2215e+06 1.14804e+06 0 -4.23815e+06 1.13914e+06 0 -4.25502e+06 1.13012e+06 0 -4.2721e+06 1.12098e+06 0 -4.28941e+06 1.11173e+06 0 -4.30695e+06 1.10236e+06 0 -4.32473e+06 1.09286e+06 0 -4.34274e+06 1.08324e+06 0 -4.36099e+06 1.07349e+06 0 -4.37949e+06 1.06362e+06 0 -4.39824e+06 1.05362e+06 0 -4.41724e+06 1.04349e+06 0 -4.43651e+06 1.03322e+06 0 -4.45604e+06 1.02282e+06 0 -4.47584e+06 1.01229e+06 0 -4.49592e+06 1.00161e+06 0 -4.51628e+06 990798 0 -4.53693e+06 979841 0 -4.55787e+06 968740 0 -4.57911e+06 957493 0 -4.60065e+06 946098 0 -4.6225e+06 934552 0 -4.64467e+06 922853 0 -4.66716e+06 911000 0 -4.68998e+06 898990 0 -4.71313e+06 886821 0 -4.73663e+06 874490 0 -4.76048e+06 861996 0 -4.78468e+06 849336 0 -4.80925e+06 836507 0 -4.83419e+06 823507 0 -4.85951e+06 810335 0 -4.88522e+06 796986 0 -4.91132e+06 783459 0 -4.93782e+06 769752 0 -4.96474e+06 755861 0 -4.99208e+06 741784 0 -5.01984e+06 727518 0 -5.04805e+06 713061 0 -5.07671e+06 698410 0 -5.10582e+06 683562 0 -5.1354e+06 668515 0 -5.16546e+06 653265 0 -5.19601e+06 637809 0 -5.22706e+06 622146 0 -5.25862e+06 606271 0 -3.98729e+06 1.35237e+06 0 -4.00105e+06 1.34601e+06 0 -4.01498e+06 1.33957e+06 0 -4.02908e+06 1.33304e+06 0 -4.04335e+06 1.32644e+06 0 -4.0578e+06 1.31975e+06 0 -4.07243e+06 1.31297e+06 0 -4.08724e+06 1.30611e+06 0 -4.10224e+06 1.29916e+06 0 -4.11742e+06 1.29213e+06 0 -4.1328e+06 1.285e+06 0 -4.14837e+06 1.27779e+06 0 -4.16414e+06 1.27048e+06 0 -4.18012e+06 1.26308e+06 0 -4.1963e+06 1.25559e+06 0 -4.21269e+06 1.248e+06 0 -4.22929e+06 1.24032e+06 0 -4.24612e+06 1.23254e+06 0 -4.26316e+06 1.22466e+06 0 -4.28043e+06 1.21668e+06 0 -4.29794e+06 1.2086e+06 0 -4.31567e+06 1.20042e+06 0 -4.33365e+06 1.19213e+06 0 -4.35187e+06 1.18374e+06 0 -4.37033e+06 1.17524e+06 0 -4.38905e+06 1.16664e+06 0 -4.40803e+06 1.15792e+06 0 -4.42727e+06 1.1491e+06 0 -4.44678e+06 1.14016e+06 0 -4.46657e+06 1.13111e+06 0 -4.48663e+06 1.12195e+06 0 -4.50697e+06 1.11267e+06 0 -4.52761e+06 1.10327e+06 0 -4.54854e+06 1.09375e+06 0 -4.56977e+06 1.08411e+06 0 -4.5913e+06 1.07435e+06 0 -4.61315e+06 1.06446e+06 0 -4.63532e+06 1.05445e+06 0 -4.65782e+06 1.04432e+06 0 -4.68065e+06 1.03405e+06 0 -4.70381e+06 1.02365e+06 0 -4.72733e+06 1.01312e+06 0 -4.75119e+06 1.00246e+06 0 -4.77542e+06 991666 0 -4.80002e+06 980732 0 -4.82499e+06 969660 0 -4.85034e+06 958447 0 -4.87609e+06 947093 0 -4.90224e+06 935594 0 -4.92879e+06 923951 0 -4.95576e+06 912160 0 -4.98316e+06 900220 0 -5.011e+06 888129 0 -5.03928e+06 875886 0 -5.06801e+06 863488 0 -5.09721e+06 850934 0 -5.12688e+06 838222 0 -5.15703e+06 825350 0 -5.18769e+06 812317 0 -5.21885e+06 799120 0 -5.25053e+06 785757 0 -5.28273e+06 772227 0 -5.31548e+06 758528 0 -5.34879e+06 744658 0 -4.01675e+06 1.4162e+06 0 -4.03092e+06 1.41056e+06 0 -4.04526e+06 1.40484e+06 0 -4.05978e+06 1.39906e+06 0 -4.07448e+06 1.39321e+06 0 -4.08937e+06 1.38728e+06 0 -4.10445e+06 1.38128e+06 0 -4.11971e+06 1.37521e+06 0 -4.13518e+06 1.36906e+06 0 -4.15084e+06 1.36284e+06 0 -4.16671e+06 1.35654e+06 0 -4.18278e+06 1.35016e+06 0 -4.19906e+06 1.34371e+06 0 -4.21556e+06 1.33717e+06 0 -4.23227e+06 1.33056e+06 0 -4.24921e+06 1.32386e+06 0 -4.26637e+06 1.31709e+06 0 -4.28376e+06 1.31023e+06 0 -4.30139e+06 1.30329e+06 0 -4.31926e+06 1.29626e+06 0 -4.33737e+06 1.28915e+06 0 -4.35573e+06 1.28195e+06 0 -4.37434e+06 1.27466e+06 0 -4.39321e+06 1.26728e+06 0 -4.41235e+06 1.25982e+06 0 -4.43175e+06 1.25227e+06 0 -4.45143e+06 1.24462e+06 0 -4.47138e+06 1.23688e+06 0 -4.49162e+06 1.22905e+06 0 -4.51215e+06 1.22112e+06 0 -4.53297e+06 1.2131e+06 0 -4.5541e+06 1.20498e+06 0 -4.57553e+06 1.19677e+06 0 -4.59728e+06 1.18845e+06 0 -4.61935e+06 1.18004e+06 0 -4.64174e+06 1.17153e+06 0 -4.66447e+06 1.16291e+06 0 -4.68754e+06 1.1542e+06 0 -4.71095e+06 1.14538e+06 0 -4.73472e+06 1.13645e+06 0 -4.75885e+06 1.12742e+06 0 -4.78335e+06 1.11828e+06 0 -4.80823e+06 1.10904e+06 0 -4.83349e+06 1.09969e+06 0 -4.85915e+06 1.09022e+06 0 -4.88521e+06 1.08065e+06 0 -4.91167e+06 1.07097e+06 0 -4.93856e+06 1.06117e+06 0 -4.96587e+06 1.05126e+06 0 -4.99363e+06 1.04124e+06 0 -5.02182e+06 1.0311e+06 0 -5.05048e+06 1.02084e+06 0 -5.0796e+06 1.01047e+06 0 -5.1092e+06 999980 0 -5.13928e+06 989371 0 -5.16987e+06 978644 0 -5.20096e+06 967795 0 -5.23257e+06 956826 0 -5.26472e+06 945736 0 -5.29741e+06 934522 0 -5.33066e+06 923186 0 -5.36448e+06 911727 0 -5.39888e+06 900143 0 -5.43389e+06 888434 0 -4.04313e+06 1.48146e+06 0 -4.05768e+06 1.47655e+06 0 -4.07241e+06 1.47159e+06 0 -4.08733e+06 1.46656e+06 0 -4.10244e+06 1.46147e+06 0 -4.11774e+06 1.45632e+06 0 -4.13325e+06 1.45112e+06 0 -4.14895e+06 1.44585e+06 0 -4.16486e+06 1.44052e+06 0 -4.18098e+06 1.43513e+06 0 -4.19731e+06 1.42967e+06 0 -4.21385e+06 1.42415e+06 0 -4.23062e+06 1.41857e+06 0 -4.24762e+06 1.41292e+06 0 -4.26484e+06 1.40721e+06 0 -4.28229e+06 1.40143e+06 0 -4.29999e+06 1.39559e+06 0 -4.31792e+06 1.38967e+06 0 -4.33611e+06 1.38369e+06 0 -4.35454e+06 1.37765e+06 0 -4.37324e+06 1.37153e+06 0 -4.39219e+06 1.36534e+06 0 -4.41141e+06 1.35909e+06 0 -4.4309e+06 1.35276e+06 0 -4.45068e+06 1.34636e+06 0 -4.47073e+06 1.33989e+06 0 -4.49107e+06 1.33335e+06 0 -4.51171e+06 1.32674e+06 0 -4.53264e+06 1.32005e+06 0 -4.55389e+06 1.31329e+06 0 -4.57544e+06 1.30645e+06 0 -4.59732e+06 1.29954e+06 0 -4.61952e+06 1.29256e+06 0 -4.64205e+06 1.2855e+06 0 -4.66492e+06 1.27836e+06 0 -4.68813e+06 1.27115e+06 0 -4.7117e+06 1.26386e+06 0 -4.73563e+06 1.25649e+06 0 -4.75993e+06 1.24905e+06 0 -4.7846e+06 1.24153e+06 0 -4.80966e+06 1.23393e+06 0 -4.83511e+06 1.22625e+06 0 -4.86095e+06 1.21849e+06 0 -4.88721e+06 1.21065e+06 0 -4.91388e+06 1.20274e+06 0 -4.94099e+06 1.19474e+06 0 -4.96852e+06 1.18667e+06 0 -4.9965e+06 1.17852e+06 0 -5.02494e+06 1.17028e+06 0 -5.05384e+06 1.16197e+06 0 -5.08322e+06 1.15358e+06 0 -5.11308e+06 1.14511e+06 0 -5.14344e+06 1.13656e+06 0 -5.17431e+06 1.12793e+06 0 -5.2057e+06 1.11922e+06 0 -5.23761e+06 1.11044e+06 0 -5.27008e+06 1.10158e+06 0 -5.30309e+06 1.09264e+06 0 -5.33668e+06 1.08362e+06 0 -5.37085e+06 1.07453e+06 0 -5.40561e+06 1.06536e+06 0 -5.44099e+06 1.05612e+06 0 -5.47698e+06 1.04681e+06 0 -5.51362e+06 1.03742e+06 0 -4.06637e+06 1.54796e+06 0 -4.08128e+06 1.54379e+06 0 -4.09638e+06 1.53958e+06 0 -4.11168e+06 1.53532e+06 0 -4.12717e+06 1.53102e+06 0 -4.14287e+06 1.52667e+06 0 -4.15878e+06 1.52227e+06 0 -4.17489e+06 1.51782e+06 0 -4.19122e+06 1.51332e+06 0 -4.20777e+06 1.50878e+06 0 -4.22454e+06 1.50419e+06 0 -4.24154e+06 1.49954e+06 0 -4.25877e+06 1.49485e+06 0 -4.27623e+06 1.49011e+06 0 -4.29394e+06 1.48532e+06 0 -4.31189e+06 1.48048e+06 0 -4.33008e+06 1.47559e+06 0 -4.34854e+06 1.47065e+06 0 -4.36725e+06 1.46566e+06 0 -4.38622e+06 1.46062e+06 0 -4.40547e+06 1.45552e+06 0 -4.42499e+06 1.45038e+06 0 -4.44478e+06 1.44518e+06 0 -4.46487e+06 1.43994e+06 0 -4.48525e+06 1.43464e+06 0 -4.50592e+06 1.42929e+06 0 -4.52689e+06 1.42389e+06 0 -4.54818e+06 1.41844e+06 0 -4.56978e+06 1.41294e+06 0 -4.5917e+06 1.40738e+06 0 -4.61395e+06 1.40177e+06 0 -4.63654e+06 1.39612e+06 0 -4.65947e+06 1.39041e+06 0 -4.68275e+06 1.38465e+06 0 -4.70638e+06 1.37884e+06 0 -4.73038e+06 1.37298e+06 0 -4.75475e+06 1.36707e+06 0 -4.7795e+06 1.36111e+06 0 -4.80464e+06 1.3551e+06 0 -4.83018e+06 1.34904e+06 0 -4.85611e+06 1.34294e+06 0 -4.88247e+06 1.33678e+06 0 -4.90924e+06 1.33058e+06 0 -4.93644e+06 1.32434e+06 0 -4.96409e+06 1.31804e+06 0 -4.99219e+06 1.31171e+06 0 -5.02074e+06 1.30532e+06 0 -5.04977e+06 1.2989e+06 0 -5.07928e+06 1.29243e+06 0 -5.10928e+06 1.28592e+06 0 -5.13978e+06 1.27938e+06 0 -5.1708e+06 1.27279e+06 0 -5.20234e+06 1.26617e+06 0 -5.23442e+06 1.25951e+06 0 -5.26706e+06 1.25282e+06 0 -5.30025e+06 1.2461e+06 0 -5.33402e+06 1.23935e+06 0 -5.36838e+06 1.23256e+06 0 -5.40334e+06 1.22576e+06 0 -5.43892e+06 1.21893e+06 0 -5.47513e+06 1.21208e+06 0 -5.51199e+06 1.20521e+06 0 -5.54951e+06 1.19832e+06 0 -5.58771e+06 1.19143e+06 0 -4.08643e+06 1.61547e+06 0 -4.10168e+06 1.61206e+06 0 -4.11713e+06 1.60862e+06 0 -4.13278e+06 1.60514e+06 0 -4.14864e+06 1.60163e+06 0 -4.16471e+06 1.59809e+06 0 -4.18099e+06 1.59451e+06 0 -4.1975e+06 1.5909e+06 0 -4.21422e+06 1.58725e+06 0 -4.23118e+06 1.58357e+06 0 -4.24837e+06 1.57986e+06 0 -4.26579e+06 1.57611e+06 0 -4.28345e+06 1.57233e+06 0 -4.30136e+06 1.56852e+06 0 -4.31952e+06 1.56467e+06 0 -4.33793e+06 1.56079e+06 0 -4.35661e+06 1.55688e+06 0 -4.37555e+06 1.55293e+06 0 -4.39476e+06 1.54895e+06 0 -4.41424e+06 1.54494e+06 0 -4.43401e+06 1.5409e+06 0 -4.45406e+06 1.53683e+06 0 -4.47441e+06 1.53272e+06 0 -4.49505e+06 1.52859e+06 0 -4.516e+06 1.52442e+06 0 -4.53726e+06 1.52023e+06 0 -4.55884e+06 1.516e+06 0 -4.58074e+06 1.51175e+06 0 -4.60296e+06 1.50747e+06 0 -4.62553e+06 1.50316e+06 0 -4.64844e+06 1.49882e+06 0 -4.6717e+06 1.49446e+06 0 -4.69532e+06 1.49008e+06 0 -4.71931e+06 1.48567e+06 0 -4.74367e+06 1.48123e+06 0 -4.76841e+06 1.47678e+06 0 -4.79354e+06 1.4723e+06 0 -4.81906e+06 1.4678e+06 0 -4.845e+06 1.46329e+06 0 -4.87135e+06 1.45876e+06 0 -4.89812e+06 1.45421e+06 0 -4.92533e+06 1.44965e+06 0 -4.95298e+06 1.44507e+06 0 -4.98109e+06 1.44049e+06 0 -5.00965e+06 1.43589e+06 0 -5.03869e+06 1.43129e+06 0 -5.06822e+06 1.42668e+06 0 -5.09824e+06 1.42207e+06 0 -5.12876e+06 1.41746e+06 0 -5.1598e+06 1.41285e+06 0 -5.19137e+06 1.40825e+06 0 -5.22348e+06 1.40365e+06 0 -5.25614e+06 1.39906e+06 0 -5.28937e+06 1.39449e+06 0 -5.32318e+06 1.38993e+06 0 -5.35758e+06 1.38539e+06 0 -5.39259e+06 1.38087e+06 0 -5.42822e+06 1.37638e+06 0 -5.46448e+06 1.37192e+06 0 -5.5014e+06 1.36749e+06 0 -5.53897e+06 1.36311e+06 0 -5.57724e+06 1.35876e+06 0 -5.61619e+06 1.35447e+06 0 -5.65587e+06 1.35023e+06 0 -4.10329e+06 1.68379e+06 0 -4.11886e+06 1.68115e+06 0 -4.13463e+06 1.67849e+06 0 -4.15062e+06 1.6758e+06 0 -4.16682e+06 1.6731e+06 0 -4.18323e+06 1.67038e+06 0 -4.19988e+06 1.66763e+06 0 -4.21674e+06 1.66487e+06 0 -4.23384e+06 1.66209e+06 0 -4.25118e+06 1.65929e+06 0 -4.26876e+06 1.65647e+06 0 -4.28658e+06 1.65364e+06 0 -4.30465e+06 1.65078e+06 0 -4.32298e+06 1.64792e+06 0 -4.34156e+06 1.64503e+06 0 -4.36041e+06 1.64213e+06 0 -4.37954e+06 1.63922e+06 0 -4.39893e+06 1.63629e+06 0 -4.41861e+06 1.63335e+06 0 -4.43858e+06 1.63039e+06 0 -4.45883e+06 1.62743e+06 0 -4.47939e+06 1.62445e+06 0 -4.50025e+06 1.62147e+06 0 -4.52142e+06 1.61847e+06 0 -4.5429e+06 1.61547e+06 0 -4.56471e+06 1.61246e+06 0 -4.58685e+06 1.60945e+06 0 -4.60933e+06 1.60643e+06 0 -4.63215e+06 1.60341e+06 0 -4.65532e+06 1.60038e+06 0 -4.67885e+06 1.59736e+06 0 -4.70275e+06 1.59434e+06 0 -4.72702e+06 1.59132e+06 0 -4.75167e+06 1.5883e+06 0 -4.77671e+06 1.58529e+06 0 -4.80214e+06 1.58229e+06 0 -4.82799e+06 1.5793e+06 0 -4.85425e+06 1.57633e+06 0 -4.88093e+06 1.57337e+06 0 -4.90805e+06 1.57042e+06 0 -4.93561e+06 1.56749e+06 0 -4.96362e+06 1.56459e+06 0 -4.99209e+06 1.56171e+06 0 -5.02104e+06 1.55886e+06 0 -5.05047e+06 1.55604e+06 0 -5.0804e+06 1.55325e+06 0 -5.11083e+06 1.5505e+06 0 -5.14178e+06 1.54779e+06 0 -5.17326e+06 1.54513e+06 0 -5.20527e+06 1.54251e+06 0 -5.23784e+06 1.53994e+06 0 -5.27098e+06 1.53743e+06 0 -5.30469e+06 1.53498e+06 0 -5.339e+06 1.5326e+06 0 -5.37391e+06 1.53029e+06 0 -5.40944e+06 1.52805e+06 0 -5.4456e+06 1.5259e+06 0 -5.48242e+06 1.52383e+06 0 -5.5199e+06 1.52185e+06 0 -5.55806e+06 1.51998e+06 0 -5.59691e+06 1.51821e+06 0 -5.63648e+06 1.51655e+06 0 -5.67678e+06 1.51501e+06 0 -5.71783e+06 1.5136e+06 0 -4.11695e+06 1.75272e+06 0 -4.13281e+06 1.75085e+06 0 -4.14889e+06 1.74897e+06 0 -4.16518e+06 1.74709e+06 0 -4.1817e+06 1.74521e+06 0 -4.19844e+06 1.74331e+06 0 -4.21541e+06 1.74142e+06 0 -4.23262e+06 1.73952e+06 0 -4.25007e+06 1.73762e+06 0 -4.26776e+06 1.73571e+06 0 -4.2857e+06 1.7338e+06 0 -4.3039e+06 1.7319e+06 0 -4.32235e+06 1.72999e+06 0 -4.34107e+06 1.72808e+06 0 -4.36005e+06 1.72618e+06 0 -4.37931e+06 1.72428e+06 0 -4.39885e+06 1.72239e+06 0 -4.41867e+06 1.7205e+06 0 -4.43879e+06 1.71862e+06 0 -4.4592e+06 1.71674e+06 0 -4.47992e+06 1.71488e+06 0 -4.50094e+06 1.71303e+06 0 -4.52228e+06 1.71119e+06 0 -4.54394e+06 1.70936e+06 0 -4.56593e+06 1.70755e+06 0 -4.58825e+06 1.70576e+06 0 -4.61092e+06 1.70399e+06 0 -4.63394e+06 1.70224e+06 0 -4.65731e+06 1.70051e+06 0 -4.68105e+06 1.69881e+06 0 -4.70515e+06 1.69714e+06 0 -4.72964e+06 1.6955e+06 0 -4.75451e+06 1.69389e+06 0 -4.77978e+06 1.69231e+06 0 -4.80546e+06 1.69078e+06 0 -4.83155e+06 1.68928e+06 0 -4.85806e+06 1.68783e+06 0 -4.885e+06 1.68643e+06 0 -4.91238e+06 1.68508e+06 0 -4.94021e+06 1.68378e+06 0 -4.9685e+06 1.68254e+06 0 -4.99726e+06 1.68136e+06 0 -5.0265e+06 1.68024e+06 0 -5.05624e+06 1.67919e+06 0 -5.08647e+06 1.67822e+06 0 -5.11722e+06 1.67733e+06 0 -5.1485e+06 1.67651e+06 0 -5.18031e+06 1.67579e+06 0 -5.21267e+06 1.67516e+06 0 -5.24559e+06 1.67463e+06 0 -5.27908e+06 1.6742e+06 0 -5.31317e+06 1.67388e+06 0 -5.34785e+06 1.67368e+06 0 -5.38315e+06 1.6736e+06 0 -5.41908e+06 1.67365e+06 0 -5.45565e+06 1.67384e+06 0 -5.49289e+06 1.67417e+06 0 -5.53079e+06 1.67466e+06 0 -5.56939e+06 1.67531e+06 0 -5.6087e+06 1.67612e+06 0 -5.64873e+06 1.67712e+06 0 -5.6895e+06 1.67831e+06 0 -5.73102e+06 1.67969e+06 0 -5.77333e+06 1.68128e+06 0 -4.1274e+06 1.82203e+06 0 -4.14354e+06 1.82095e+06 0 -4.1599e+06 1.81987e+06 0 -4.17648e+06 1.8188e+06 0 -4.19329e+06 1.81774e+06 0 -4.21033e+06 1.81669e+06 0 -4.22762e+06 1.81566e+06 0 -4.24514e+06 1.81463e+06 0 -4.26291e+06 1.81362e+06 0 -4.28093e+06 1.81262e+06 0 -4.29921e+06 1.81164e+06 0 -4.31775e+06 1.81067e+06 0 -4.33656e+06 1.80973e+06 0 -4.35563e+06 1.8088e+06 0 -4.37499e+06 1.8079e+06 0 -4.39463e+06 1.80702e+06 0 -4.41455e+06 1.80616e+06 0 -4.43478e+06 1.80533e+06 0 -4.4553e+06 1.80453e+06 0 -4.47612e+06 1.80376e+06 0 -4.49726e+06 1.80302e+06 0 -4.51872e+06 1.80231e+06 0 -4.54051e+06 1.80165e+06 0 -4.56262e+06 1.80102e+06 0 -4.58508e+06 1.80043e+06 0 -4.60788e+06 1.79989e+06 0 -4.63103e+06 1.79939e+06 0 -4.65455e+06 1.79894e+06 0 -4.67843e+06 1.79855e+06 0 -4.70269e+06 1.79821e+06 0 -4.72733e+06 1.79792e+06 0 -4.75236e+06 1.7977e+06 0 -4.7778e+06 1.79754e+06 0 -4.80364e+06 1.79746e+06 0 -4.8299e+06 1.79744e+06 0 -4.85659e+06 1.7975e+06 0 -4.88371e+06 1.79764e+06 0 -4.91128e+06 1.79786e+06 0 -4.93931e+06 1.79817e+06 0 -4.9678e+06 1.79858e+06 0 -4.99676e+06 1.79908e+06 0 -5.02621e+06 1.79969e+06 0 -5.05616e+06 1.8004e+06 0 -5.08661e+06 1.80123e+06 0 -5.11758e+06 1.80218e+06 0 -5.14909e+06 1.80325e+06 0 -5.18113e+06 1.80446e+06 0 -5.21373e+06 1.80581e+06 0 -5.2469e+06 1.8073e+06 0 -5.28065e+06 1.80894e+06 0 -5.31499e+06 1.81075e+06 0 -5.34994e+06 1.81272e+06 0 -5.38551e+06 1.81487e+06 0 -5.42171e+06 1.81721e+06 0 -5.45856e+06 1.81974e+06 0 -5.49608e+06 1.82247e+06 0 -5.53428e+06 1.82542e+06 0 -5.57318e+06 1.82859e+06 0 -5.61279e+06 1.832e+06 0 -5.65312e+06 1.83566e+06 0 -5.69421e+06 1.83957e+06 0 -5.73605e+06 1.84376e+06 0 -5.77868e+06 1.84823e+06 0 -5.82211e+06 1.853e+06 0 -4.13468e+06 1.89154e+06 0 -4.15107e+06 1.89125e+06 0 -4.16769e+06 1.89098e+06 0 -4.18454e+06 1.89073e+06 0 -4.20162e+06 1.89051e+06 0 -4.21894e+06 1.89031e+06 0 -4.23651e+06 1.89014e+06 0 -4.25432e+06 1.89e+06 0 -4.27239e+06 1.88989e+06 0 -4.29071e+06 1.88981e+06 0 -4.3093e+06 1.88976e+06 0 -4.32816e+06 1.88976e+06 0 -4.34729e+06 1.88978e+06 0 -4.3667e+06 1.88985e+06 0 -4.3864e+06 1.88996e+06 0 -4.40639e+06 1.89012e+06 0 -4.42667e+06 1.89032e+06 0 -4.44726e+06 1.89056e+06 0 -4.46815e+06 1.89086e+06 0 -4.48936e+06 1.89122e+06 0 -4.51089e+06 1.89162e+06 0 -4.53275e+06 1.89209e+06 0 -4.55494e+06 1.89262e+06 0 -4.57747e+06 1.89322e+06 0 -4.60036e+06 1.89388e+06 0 -4.6236e+06 1.89461e+06 0 -4.6472e+06 1.89542e+06 0 -4.67117e+06 1.8963e+06 0 -4.69552e+06 1.89727e+06 0 -4.72026e+06 1.89833e+06 0 -4.74539e+06 1.89947e+06 0 -4.77092e+06 1.90071e+06 0 -4.79687e+06 1.90204e+06 0 -4.82323e+06 1.90348e+06 0 -4.85003e+06 1.90503e+06 0 -4.87727e+06 1.90669e+06 0 -4.90495e+06 1.90847e+06 0 -4.93309e+06 1.91037e+06 0 -4.9617e+06 1.9124e+06 0 -4.99078e+06 1.91457e+06 0 -5.02036e+06 1.91687e+06 0 -5.05043e+06 1.91933e+06 0 -5.08102e+06 1.92194e+06 0 -5.11212e+06 1.92471e+06 0 -5.14376e+06 1.92765e+06 0 -5.17595e+06 1.93077e+06 0 -5.20869e+06 1.93408e+06 0 -5.242e+06 1.93757e+06 0 -5.27589e+06 1.94127e+06 0 -5.31038e+06 1.94519e+06 0 -5.34548e+06 1.94932e+06 0 -5.3812e+06 1.95368e+06 0 -5.41755e+06 1.95829e+06 0 -5.45456e+06 1.96315e+06 0 -5.49224e+06 1.96827e+06 0 -5.53059e+06 1.97367e+06 0 -5.56965e+06 1.97936e+06 0 -5.60941e+06 1.98535e+06 0 -5.64991e+06 1.99165e+06 0 -5.69115e+06 1.99829e+06 0 -5.73316e+06 2.00527e+06 0 -5.77595e+06 2.01262e+06 0 -5.81953e+06 2.02034e+06 0 -5.86394e+06 2.02846e+06 0 -4.13882e+06 1.96105e+06 0 -4.15544e+06 1.96156e+06 0 -4.1723e+06 1.9621e+06 0 -4.18939e+06 1.96268e+06 0 -4.20672e+06 1.9633e+06 0 -4.2243e+06 1.96396e+06 0 -4.24212e+06 1.96467e+06 0 -4.2602e+06 1.96542e+06 0 -4.27854e+06 1.96622e+06 0 -4.29714e+06 1.96707e+06 0 -4.31602e+06 1.96797e+06 0 -4.33517e+06 1.96893e+06 0 -4.3546e+06 1.96995e+06 0 -4.37431e+06 1.97103e+06 0 -4.39432e+06 1.97217e+06 0 -4.41462e+06 1.97337e+06 0 -4.43523e+06 1.97464e+06 0 -4.45615e+06 1.97599e+06 0 -4.47738e+06 1.9774e+06 0 -4.49894e+06 1.9789e+06 0 -4.52083e+06 1.98048e+06 0 -4.54305e+06 1.98214e+06 0 -4.56561e+06 1.98389e+06 0 -4.58853e+06 1.98573e+06 0 -4.6118e+06 1.98766e+06 0 -4.63543e+06 1.9897e+06 0 -4.65944e+06 1.99184e+06 0 -4.68382e+06 1.99409e+06 0 -4.7086e+06 1.99646e+06 0 -4.73377e+06 1.99894e+06 0 -4.75934e+06 2.00154e+06 0 -4.78533e+06 2.00427e+06 0 -4.81173e+06 2.00714e+06 0 -4.83857e+06 2.01015e+06 0 -4.86585e+06 2.0133e+06 0 -4.89357e+06 2.01661e+06 0 -4.92176e+06 2.02007e+06 0 -4.95041e+06 2.0237e+06 0 -4.97954e+06 2.0275e+06 0 -5.00916e+06 2.03149e+06 0 -5.03928e+06 2.03565e+06 0 -5.06991e+06 2.04002e+06 0 -5.10106e+06 2.04459e+06 0 -5.13275e+06 2.04937e+06 0 -5.16498e+06 2.05438e+06 0 -5.19776e+06 2.05961e+06 0 -5.23112e+06 2.06509e+06 0 -5.26505e+06 2.07082e+06 0 -5.29958e+06 2.07681e+06 0 -5.33472e+06 2.08308e+06 0 -5.37048e+06 2.08963e+06 0 -5.40687e+06 2.09648e+06 0 -5.44391e+06 2.10364e+06 0 -5.48161e+06 2.11113e+06 0 -5.52e+06 2.11896e+06 0 -5.55907e+06 2.12714e+06 0 -5.59886e+06 2.13569e+06 0 -5.63936e+06 2.14463e+06 0 -5.68061e+06 2.15396e+06 0 -5.72262e+06 2.16372e+06 0 -5.7654e+06 2.17392e+06 0 -5.80898e+06 2.18457e+06 0 -5.85336e+06 2.19571e+06 0 -5.89857e+06 2.20734e+06 0 -4.13988e+06 2.03037e+06 0 -4.15671e+06 2.03168e+06 0 -4.17378e+06 2.03304e+06 0 -4.19109e+06 2.03445e+06 0 -4.20865e+06 2.03592e+06 0 -4.22645e+06 2.03745e+06 0 -4.24451e+06 2.03904e+06 0 -4.26283e+06 2.0407e+06 0 -4.28142e+06 2.04242e+06 0 -4.30027e+06 2.04421e+06 0 -4.31941e+06 2.04607e+06 0 -4.33882e+06 2.04801e+06 0 -4.35852e+06 2.05002e+06 0 -4.37851e+06 2.05212e+06 0 -4.39879e+06 2.0543e+06 0 -4.41939e+06 2.05657e+06 0 -4.44029e+06 2.05893e+06 0 -4.46151e+06 2.06139e+06 0 -4.48305e+06 2.06394e+06 0 -4.50492e+06 2.0666e+06 0 -4.52712e+06 2.06936e+06 0 -4.54967e+06 2.07224e+06 0 -4.57257e+06 2.07523e+06 0 -4.59582e+06 2.07834e+06 0 -4.61944e+06 2.08157e+06 0 -4.64343e+06 2.08494e+06 0 -4.6678e+06 2.08844e+06 0 -4.69255e+06 2.09208e+06 0 -4.7177e+06 2.09587e+06 0 -4.74326e+06 2.09981e+06 0 -4.76923e+06 2.10391e+06 0 -4.79561e+06 2.10817e+06 0 -4.82243e+06 2.11261e+06 0 -4.84968e+06 2.11722e+06 0 -4.87738e+06 2.12202e+06 0 -4.90554e+06 2.12701e+06 0 -4.93417e+06 2.13221e+06 0 -4.96327e+06 2.13761e+06 0 -4.99286e+06 2.14324e+06 0 -5.02295e+06 2.14909e+06 0 -5.05354e+06 2.15517e+06 0 -5.08466e+06 2.1615e+06 0 -5.1163e+06 2.16809e+06 0 -5.14848e+06 2.17495e+06 0 -5.18122e+06 2.18208e+06 0 -5.21452e+06 2.18951e+06 0 -5.2484e+06 2.19723e+06 0 -5.28287e+06 2.20527e+06 0 -5.31794e+06 2.21364e+06 0 -5.35362e+06 2.22234e+06 0 -5.38994e+06 2.23141e+06 0 -5.42689e+06 2.24084e+06 0 -5.4645e+06 2.25065e+06 0 -5.50279e+06 2.26087e+06 0 -5.54175e+06 2.27151e+06 0 -5.58142e+06 2.28259e+06 0 -5.6218e+06 2.29412e+06 0 -5.66291e+06 2.30612e+06 0 -5.70476e+06 2.31862e+06 0 -5.74738e+06 2.33164e+06 0 -5.79077e+06 2.34519e+06 0 -5.83496e+06 2.35931e+06 0 -5.87996e+06 2.37401e+06 0 -5.92579e+06 2.38932e+06 0 -4.13791e+06 2.09933e+06 0 -4.15493e+06 2.10144e+06 0 -4.1722e+06 2.10362e+06 0 -4.1897e+06 2.10587e+06 0 -4.20746e+06 2.1082e+06 0 -4.22547e+06 2.1106e+06 0 -4.24375e+06 2.11308e+06 0 -4.26228e+06 2.11564e+06 0 -4.28109e+06 2.11829e+06 0 -4.30017e+06 2.12103e+06 0 -4.31953e+06 2.12386e+06 0 -4.33918e+06 2.12679e+06 0 -4.35912e+06 2.12981e+06 0 -4.37935e+06 2.13294e+06 0 -4.39989e+06 2.13617e+06 0 -4.42074e+06 2.13952e+06 0 -4.4419e+06 2.14298e+06 0 -4.46339e+06 2.14656e+06 0 -4.4852e+06 2.15027e+06 0 -4.50735e+06 2.1541e+06 0 -4.52984e+06 2.15807e+06 0 -4.55267e+06 2.16217e+06 0 -4.57586e+06 2.16643e+06 0 -4.59942e+06 2.17083e+06 0 -4.62334e+06 2.17538e+06 0 -4.64764e+06 2.1801e+06 0 -4.67233e+06 2.18498e+06 0 -4.69741e+06 2.19004e+06 0 -4.72289e+06 2.19528e+06 0 -4.74878e+06 2.20071e+06 0 -4.77509e+06 2.20634e+06 0 -4.80183e+06 2.21216e+06 0 -4.829e+06 2.2182e+06 0 -4.85661e+06 2.22446e+06 0 -4.88468e+06 2.23095e+06 0 -4.91321e+06 2.23767e+06 0 -4.94222e+06 2.24464e+06 0 -4.9717e+06 2.25186e+06 0 -5.00168e+06 2.25935e+06 0 -5.03216e+06 2.26712e+06 0 -5.06316e+06 2.27517e+06 0 -5.09468e+06 2.28353e+06 0 -5.12673e+06 2.2922e+06 0 -5.15933e+06 2.30119e+06 0 -5.19249e+06 2.31051e+06 0 -5.22622e+06 2.32019e+06 0 -5.26053e+06 2.33023e+06 0 -5.29543e+06 2.34065e+06 0 -5.33094e+06 2.35147e+06 0 -5.36707e+06 2.3627e+06 0 -5.40383e+06 2.37436e+06 0 -5.44123e+06 2.38646e+06 0 -5.47929e+06 2.39903e+06 0 -5.51802e+06 2.41208e+06 0 -5.55744e+06 2.42563e+06 0 -5.59755e+06 2.43971e+06 0 -5.63838e+06 2.45433e+06 0 -5.67994e+06 2.46952e+06 0 -5.72224e+06 2.48531e+06 0 -5.76529e+06 2.50171e+06 0 -5.80912e+06 2.51876e+06 0 -5.85374e+06 2.53647e+06 0 -5.89916e+06 2.55489e+06 0 -5.9454e+06 2.57404e+06 0 -4.13299e+06 2.16775e+06 0 -4.15019e+06 2.17067e+06 0 -4.16762e+06 2.17367e+06 0 -4.18531e+06 2.17676e+06 0 -4.20324e+06 2.17995e+06 0 -4.22144e+06 2.18322e+06 0 -4.2399e+06 2.1866e+06 0 -4.25863e+06 2.19008e+06 0 -4.27763e+06 2.19366e+06 0 -4.29691e+06 2.19735e+06 0 -4.31647e+06 2.20116e+06 0 -4.33633e+06 2.20508e+06 0 -4.35648e+06 2.20912e+06 0 -4.37693e+06 2.21329e+06 0 -4.39769e+06 2.21759e+06 0 -4.41876e+06 2.22203e+06 0 -4.440