<?xml version="1.0"?> 
<VTKFile type="StructuredGrid" version="0.1"> 
<StructuredGrid WholeExtent="0 63 0 63 0 0"> 
<Piece Extent="0 63 0 63 0 0"> 
<PointData>
<DataArray type="Float32" Name="|E|" format="ascii" NumberOfComponents="3"> 
-5.36442e-07 -7.62939e-06 0 3.83239e-07 779.178 0 -3.27826e-07 935.651 0 2.30968e-07 870.818 0 -1.50874e-07 764.752 0 1.11759e-07 653.826 0 -9.68575e-08 553.345 0 5.58794e-08 465.488 0 1.49012e-08 390.761 0 -5.96046e-08 327.806 0 4.47035e-08 275.189 0 -8.19564e-08 231.352 0 2.23517e-08 194.901 0 5.96046e-08 164.595 0 -4.47035e-08 139.381 0 -1.49012e-08 118.371 0 0 100.827 0 1.49012e-08 86.1387 0 7.45058e-09 73.8059 0 0 63.4187 0 1.49012e-08 54.642 0 1.49012e-08 47.2015 0 4.47035e-08 40.8733 0 -5.96046e-08 35.4738 0 1.04308e-07 30.8522 0 -1.19209e-07 26.8848 0 7.45058e-08 23.4691 0 1.49012e-08 20.5206 0 -4.47035e-08 17.969 0 7.45058e-08 15.7557 0 -4.47035e-08 13.8316 0 1.49012e-08 12.1556 0 -4.47035e-08 10.6931 0 -4.47035e-08 9.41455 0 0 8.2952 0 0 7.31379 0 0 6.45219 0 0 5.69487 0 -1.49012e-08 5.02846 0 0 4.44143 0 -2.98023e-08 3.92382 0 0 3.46698 0 0 3.06342 0 0 2.70659 0 -2.98023e-08 2.39077 0 0 2.11098 0 0 1.86284 0 0 1.64249 0 0 1.44655 0 0 1.27204 0 0 1.1163 0 0 0.97699 0 0 0.852027 0 -2.98023e-08 0.73955 0 -2.98023e-08 0.637886 0 0 0.545539 0 2.98023e-08 0.461148 0 0 0.383474 0 2.98023e-08 0.311384 0 0 0.243823 0 0 0.179811 0 0 0.118415 0 0 0.0587419 0 1.19209e-07 -3.62396e-05 0 20.9184 2.11596e-06 0 8.17726 773.863 0 -0.672579 934.887 0 -2.50021 875.174 0 -3.66772 771.035 0 -3.74403 661.673 0 -3.74439 561.556 0 -3.50822 473.825 0 -3.24592 398.801 0 -2.94421 335.419 0 -2.6468 282.251 0 -2.36055 237.828 0 -2.09465 200.781 0 -1.85212 169.899 0 -1.63402 144.143 0 -1.43987 122.631 0 -1.26827 104.63 0 -1.11737 89.5294 0 -0.985133 76.8276 0 -0.869479 66.1117 0 -0.768432 57.043 0 -0.68016 49.3438 0 -0.603006 42.7866 0 -0.535499 37.1843 0 -0.476348 32.3832 0 -0.424426 28.2567 0 -0.378764 24.6999 0 -0.338522 21.6261 0 -0.302982 18.9629 0 -0.271528 16.6501 0 -0.243632 14.6373 0 -0.218841 12.882 0 -0.196767 11.3483 0 -0.177077 10.0061 0 -0.159484 8.82954 0 -0.143741 7.79669 0 -0.129634 6.88881 0 -0.116978 6.0898 0 -0.10561 5.3858 0 -0.0953914 4.76487 0 -0.0861985 4.21665 0 -0.0779236 3.7322 0 -0.0704723 3.30369 0 -0.0637606 2.92433 0 -0.0577157 2.58819 0 -0.0522717 2.29005 0 -0.0473711 2.02537 0 -0.0429631 1.79012 0 -0.0390022 1.58077 0 -0.0354478 1.39422 0 -0.0322647 1.22769 0 -0.0294216 1.07875 0 -0.0268904 0.945219 0 -0.0246474 0.825157 0 -0.0226709 0.716833 0 -0.0209434 0.618685 0 -0.0194493 0.529309 0 -0.0181759 0.447428 0 -0.0171131 0.371875 0 -0.0162535 0.30158 0 -0.0155915 0.235547 0 -0.0151245 0.172843 0 -0.0148534 0.112578 0 -0.0147739 0.0539094 0 41.842 -5.126e-06 0 16.781 768.755 0 -1.04833 934.101 0 -4.93513 879.454 0 -7.29745 777.348 0 -7.55897 669.532 0 -7.56462 569.867 0 -7.13871 482.261 0 -6.61837 406.984 0 -6.02933 343.181 0 -5.43497 289.477 0 -4.86251 244.471 0 -4.32636 206.829 0 -3.83539 175.368 0 -3.39186 149.062 0 -2.9955 127.042 0 -2.64396 108.575 0 -2.33384 93.0533 0 -2.06128 79.9732 0 -1.82228 68.9193 0 -1.61297 59.5498 0 -1.42974 51.5835 0 -1.26927 44.7894 0 -1.12863 38.977 0 -1.0052 33.9897 0 -0.896713 29.6979 0 -0.801176 25.9943 0 -0.716883 22.7898 0 -0.642357 20.0103 0 -0.57633 17.5938 0 -0.517715 15.4882 0 -0.465576 13.6499 0 -0.419107 12.0419 0 -0.377618 10.633 0 -0.340514 9.3964 0 -0.307278 8.30958 0 -0.277466 7.35308 0 -0.250691 6.51023 0 -0.226618 5.76666 0 -0.204953 5.11 0 -0.185439 4.52951 0 -0.167851 4.01587 0 -0.151991 3.56098 0 -0.137686 3.15777 0 -0.12478 2.80005 0 -0.113138 2.48242 0 -0.102638 2.20012 0 -0.0931727 1.94897 0 -0.0846478 1.72529 0 -0.0769778 1.52583 0 -0.0700874 1.3477 0 -0.0639103 1.18836 0 -0.0583875 1.04554 0 -0.0534669 0.917212 0 -0.049103 0.801573 0 -0.0452563 0.697001 0 -0.041893 0.602036 0 -0.0389841 0.51536 0 -0.036506 0.43577 0 -0.0344398 0.362167 0 -0.0327715 0.293538 0 -0.0314909 0.228939 0 -0.0305946 0.167485 0 -0.0300809 0.108343 0 62.783 6.55651e-06 0 25.8131 763.862 0 -1.11388 933.303 0 -7.29293 883.659 0 -10.8866 783.687 0 -11.4369 677.406 0 -11.4638 578.274 0 -10.8889 490.8 0 -10.1223 415.309 0 -9.25765 351.096 0 -8.37033 296.87 0 -7.51124 251.284 0 -6.70178 213.048 0 -5.95662 181.005 0 -5.28064 154.146 0 -4.67409 131.609 0 -4.13421 112.668 0 -3.65639 96.7159 0 -3.23519 83.2481 0 -2.86486 71.847 0 -2.53975 62.1677 0 -2.25452 53.9257 0 -2.00424 46.8865 0 -1.78449 40.8565 0 -1.59133 35.6759 0 -1.42129 31.2123 0 -1.27136 27.356 0 -1.13892 24.0155 0 -1.02169 21.1146 0 -0.917719 18.5898 0 -0.825328 16.3873 0 -0.743066 14.4623 0 -0.669682 12.7764 0 -0.604101 11.2975 0 -0.545395 9.99804 0 -0.49276 8.85456 0 -0.445502 7.84697 0 -0.403015 6.95801 0 -0.364774 6.17279 0 -0.33032 5.47847 0 -0.299251 4.86391 0 -0.271214 4.31944 0 -0.245899 3.83664 0 -0.223032 3.40816 0 -0.202372 3.02756 0 -0.183704 2.68921 0 -0.166838 2.38817 0 -0.151605 2.12006 0 -0.137854 1.88106 0 -0.125453 1.66777 0 -0.114281 1.47718 0 -0.104233 1.30663 0 -0.0952154 1.15375 0 -0.0871447 1.01644 0 -0.0799475 0.892799 0 -0.0735593 0.78115 0 -0.0679248 0.679971 0 -0.0629955 0.587894 0 -0.058731 0.503676 0 -0.0550977 0.426185 0 -0.0520689 0.354383 0 -0.0496251 0.28731 0 -0.0477529 0.22407 0 -0.0464446 0.163829 0 83.7538 -3.09944e-06 0 35.2756 759.189 0 -0.856005 932.506 0 -9.56105 887.793 0 -14.4322 790.049 0 -15.3701 685.3 0 -15.444 586.772 0 -14.7568 499.446 0 -13.7616 423.775 0 -12.6322 359.167 0 -11.4582 304.431 0 -10.3127 258.272 0 -9.22753 219.444 0 -8.22299 186.816 0 -7.30778 159.397 0 -6.48319 136.337 0 -5.74655 116.914 0 -5.09241 100.522 0 -4.51404 86.6573 0 -4.00413 74.8995 0 -3.55537 64.9011 0 -3.16076 56.3746 0 -2.81381 49.082 0 -2.50861 42.8267 0 -2.2399 37.4456 0 -2.003 32.8035 0 -1.79383 28.7882 0 -1.60882 25.306 0 -1.44488 22.2788 0 -1.29933 19.6408 0 -1.16985 17.3372 0 -1.05446 15.3213 0 -0.95142 13.554 0 -0.859254 12.0018 0 -0.776673 10.6364 0 -0.702563 9.43345 0 -0.635958 8.37219 0 -0.57602 7.43474 0 -0.522015 6.60567 0 -0.473306 5.87167 0 -0.429333 5.22118 0 -0.389604 4.64416 0 -0.353686 4.13185 0 -0.321199 3.67661 0 -0.291804 3.27175 0 -0.265203 2.91141 0 -0.241129 2.59042 0 -0.219347 2.30426 0 -0.199644 2.0489 0 -0.181835 1.82081 0 -0.165752 1.61685 0 -0.151245 1.43424 0 -0.138182 1.27051 0 -0.126444 1.12345 0 -0.115928 0.991099 0 -0.10654 0.871692 0 -0.0982004 0.763649 0 -0.0908377 0.665545 0 -0.0843914 0.576093 0 -0.0788106 0.49412 0 -0.0740529 0.418559 0 -0.0700848 0.348427 0 -0.0668818 0.282815 0 -0.0644252 0.22088 0 104.768 -6.4373e-06 0 45.1713 754.744 0 -0.261597 931.72 0 -11.7262 891.859 0 -17.9305 796.433 0 -19.3508 693.216 0 -19.5064 595.358 0 -18.7411 508.202 0 -17.5393 432.38 0 -16.1566 367.397 0 -14.7036 312.164 0 -13.2729 265.438 0 -11.9104 226.019 0 -10.642 192.805 0 -9.48103 164.822 0 -8.43076 141.231 0 -7.48894 121.317 0 -6.64978 104.477 0 -5.90551 90.2057 0 -5.24749 78.0817 0 -4.6669 67.755 0 -4.15519 58.935 0 -3.70432 51.3805 0 -3.30698 44.8918 0 -2.95653 39.3027 0 -2.64709 34.4753 0 -2.37349 30.2947 0 -2.13118 26.6649 0 -1.9162 23.5058 0 -1.72514 20.7499 0 -1.55499 18.3405 0 -1.40321 16.2297 0 -1.26755 14.3771 0 -1.14609 12.7482 0 -1.03716 11.3136 0 -0.939308 10.0483 0 -0.851286 8.93063 0 -0.771997 7.9422 0 -0.700486 7.06699 0 -0.635919 6.29119 0 -0.577567 5.60281 0 -0.524785 4.99141 0 -0.477009 4.4479 0 -0.43374 3.96435 0 -0.394536 3.53378 0 -0.359006 3.1501 0 -0.326801 2.80792 0 -0.297611 2.50252 0 -0.271159 2.22971 0 -0.2472 1.9858 0 -0.225513 1.76752 0 -0.205901 1.57196 0 -0.188188 1.39653 0 -0.172219 1.23894 0 -0.157852 1.09713 0 -0.144965 0.969255 0 -0.133448 0.853671 0 -0.123205 0.748891 0 -0.114152 0.653577 0 -0.106218 0.566515 0 -0.0993417 0.486599 0 -0.0934722 0.41282 0 -0.0885707 0.344245 0 -0.0846052 0.280019 0 125.838 1.43051e-06 0 55.5033 750.531 0 0.682302 930.959 0 -13.7746 895.864 0 -21.3773 802.835 0 -23.371 701.158 0 -23.6512 604.029 0 -22.841 517.071 0 -21.458 441.126 0 -19.8346 375.789 0 -18.1114 320.069 0 -16.3984 272.786 0 -14.7574 232.779 0 -13.2212 198.976 0 -11.8085 170.425 0 -10.5251 146.297 0 -9.36979 125.884 0 -8.33682 108.586 0 -7.41776 93.8987 0 -6.60285 81.3989 0 -5.88195 70.7344 0 -5.24505 61.6117 0 -4.68268 53.7866 0 -4.18608 47.0562 0 -3.74733 41.2514 0 -3.3593 36.2315 0 -3.01571 31.879 0 -2.711 28.0956 0 -2.44035 24.799 0 -2.19952 21.92 0 -1.98484 19.4001 0 -1.79313 17.1901 0 -1.62162 15.2483 0 -1.46792 13.539 0 -1.32994 12.0319 0 -1.20589 10.7011 0 -1.0942 9.52424 0 -0.993484 8.48222 0 -0.902562 7.55847 0 -0.820386 6.73864 0 -0.746039 6.01031 0 -0.678716 5.36263 0 -0.617707 4.78617 0 -0.562384 4.27266 0 -0.512193 3.81486 0 -0.466641 3.40641 0 -0.42529 3.04172 0 -0.387751 2.71585 0 -0.353674 2.42445 0 -0.322748 2.16365 0 -0.294696 1.93005 0 -0.269269 1.72059 0 -0.246243 1.53259 0 -0.225419 1.36363 0 -0.20662 1.21158 0 -0.189687 1.07449 0 -0.174478 0.950659 0 -0.160869 0.838529 0 -0.14875 0.736706 0 -0.138026 0.643927 0 -0.128613 0.559047 0 -0.120442 0.48102 0 -0.113457 0.408889 0 -0.107608 0.341778 0 146.98 1.43051e-06 0 66.2752 746.561 0 1.98852 930.235 0 -15.6915 899.811 0 -24.7676 809.255 0 -27.4232 709.129 0 -27.8776 612.782 0 -27.0558 526.054 0 -25.5194 450.014 0 -23.6701 384.344 0 -21.6866 328.152 0 -19.6956 280.318 0 -17.7757 239.726 0 -15.9688 205.334 0 -14.2987 176.21 0 -12.775 151.539 0 -11.398 130.619 0 -10.1624 112.855 0 -9.05948 97.7418 0 -8.07867 84.8564 0 -7.20866 73.8444 0 -6.43815 64.4096 0 -5.75629 56.3049 0 -5.15296 49.3244 0 -4.61893 43.296 0 -4.14587 38.0763 0 -3.72634 33.545 0 -3.35379 29.6017 0 -3.02245 26.1618 0 -2.72727 23.1543 0 -2.46387 20.5191 0 -2.2284 18.2054 0 -2.01754 16.1702 0 -1.8284 14.3767 0 -1.65846 12.7936 0 -1.50552 11.3941 0 -1.36768 10.1551 0 -1.24329 9.05676 0 -1.13087 8.08193 0 -1.02917 7.21575 0 -0.937068 6.4453 0 -0.853574 5.75935 0 -0.777824 5.14807 0 -0.709053 4.60288 0 -0.646582 4.11624 0 -0.58981 3.68155 0 -0.5382 3.29296 0 -0.491276 2.94533 0 -0.44861 2.63413 0 -0.409821 2.35532 0 -0.374567 2.10533 0 -0.342543 1.88099 0 -0.313473 1.67948 0 -0.287113 1.49829 0 -0.263242 1.33516 0 -0.241661 1.18809 0 -0.222196 1.05527 0 -0.20469 0.935089 0 -0.189004 0.826084 0 -0.175014 0.726942 0 -0.162615 0.636469 0 -0.151714 0.553583 0 -0.142234 0.477294 0 -0.134107 0.4067 0 168.208 -2.14577e-06 0 77.4913 742.838 0 3.66975 929.562 0 -17.4617 903.708 0 -28.0958 815.691 0 -31.4995 717.133 0 -32.1839 621.616 0 -31.3851 535.153 0 -29.7253 459.043 0 -27.6671 393.064 0 -25.4343 336.414 0 -23.1708 288.039 0 -20.973 246.865 0 -18.8928 211.884 0 -16.9604 182.184 0 -15.1896 156.963 0 -13.5828 135.529 0 -12.1358 117.289 0 -10.8399 101.74 0 -9.68398 88.4595 0 -8.65579 77.0902 0 -7.7429 67.3339 0 -6.93318 58.9405 0 -6.21524 51.7012 0 -5.57855 45.4411 0 -5.01358 40.0138 0 -4.51177 35.2968 0 -4.06552 31.187 0 -3.66811 27.5978 0 -3.31366 24.4562 0 -2.99701 21.7006 0 -2.71364 19.2785 0 -2.45964 17.1456 0 -2.23158 15.2639 0 -2.02647 13.6012 0 -1.84172 12.1296 0 -1.67506 10.8253 0 -1.52451 9.66783 0 -1.38834 8.63929 0 -1.26502 7.72431 0 -1.15322 6.90948 0 -1.05177 6.18315 0 -0.959633 5.53511 0 -0.875884 4.95643 0 -0.799717 4.43929 0 -0.730409 3.97677 0 -0.667317 3.56283 0 -0.60987 3.19208 0 -0.557556 2.85981 0 -0.509916 2.56179 0 -0.466539 2.29431 0 -0.427058 2.05405 0 -0.391142 1.83806 0 -0.358493 1.64371 0 -0.328844 1.46865 0 -0.301957 1.31078 0 -0.277616 1.1682 0 -0.255629 1.03923 0 -0.235826 0.922344 0 -0.218054 0.816167 0 -0.202178 0.719455 0 -0.188083 0.631082 0 -0.175667 0.550021 0 -0.16484 0.475342 0 189.538 2.38419e-06 0 89.1563 739.374 0 5.73855 928.955 0 -19.0697 907.562 0 -31.3553 822.141 0 -35.5922 725.172 0 -36.5677 630.53 0 -35.8285 544.37 0 -34.0767 468.217 0 -31.8294 401.952 0 -29.3594 344.859 0 -26.8307 295.952 0 -24.3568 254.201 0 -22.0019 218.631 0 -19.8028 188.351 0 -17.7784 162.574 0 -15.9342 140.618 0 -14.267 121.893 0 -12.7689 105.9 0 -11.4284 92.2139 0 -10.2327 80.4775 0 -9.16833 70.3898 0 -8.22202 61.6984 0 -7.38116 54.1914 0 -6.63401 47.6911 0 -5.96985 42.0485 0 -5.37898 37.1384 0 -4.85276 32.8553 0 -4.38351 29.1106 0 -3.96446 25.8292 0 -3.58967 22.9478 0 -3.25392 20.4124 0 -2.95265 18.1773 0 -2.68189 16.2034 0 -2.43816 14.4572 0 -2.21841 12.91 0 -2.02 11.5372 0 -1.84061 10.3176 0 -1.67819 9.23253 0 -1.53096 8.26619 0 -1.39736 7.40462 0 -1.276 6.63572 0 -1.16566 5.94887 0 -1.06526 5.33481 0 -0.973839 4.78538 0 -0.89055 4.29341 0 -0.814634 3.85257 0 -0.745414 3.45728 0 -0.682287 3.1026 0 -0.62471 2.78413 0 -0.572196 2.49799 0 -0.524311 2.24072 0 -0.480662 2.00922 0 -0.440895 1.80075 0 -0.404693 1.61285 0 -0.371771 1.44331 0 -0.341871 1.29017 0 -0.314763 1.15165 0 -0.29024 1.02615 0 -0.268117 0.912238 0 -0.24823 0.808618 0 -0.230433 0.714113 0 -0.214601 0.627652 0 -0.20062 0.548271 0 210.987 -1.43051e-06 0 101.276 736.175 0 8.20734 928.429 0 -20.4989 911.381 0 -34.5388 828.608 0 -39.6932 733.25 0 -41.0255 639.523 0 -40.3853 553.705 0 -38.5746 477.536 0 -36.1606 411.009 0 -33.4671 353.489 0 -30.6819 304.06 0 -27.9352 261.738 0 -25.3048 225.578 0 -22.8355 194.716 0 -20.5517 168.378 0 -18.4624 145.892 0 -16.5665 126.674 0 -14.8569 110.227 0 -13.3223 96.1254 0 -11.9495 84.0117 0 -10.7242 73.5828 0 -9.63213 64.5838 0 -8.65964 56.7999 0 -7.7938 50.0509 0 -7.0227 44.1849 0 -6.33556 39.0741 0 -5.72267 34.6107 0 -5.17538 30.704 0 -4.68601 27.2769 0 -4.2478 24.2641 0 -3.85482 21.6104 0 -3.50183 19.2684 0 -3.18426 17.1978 0 -2.89813 15.3642 0 -2.63992 13.7378 0 -2.40656 12.2931 0 -2.19538 11.0081 0 -2.004 9.86375 0 -1.83037 8.84336 0 -1.67265 7.93257 0 -1.52924 7.11878 0 -1.39872 6.391 0 -1.27982 5.73956 0 -1.17145 5.156 0 -1.07259 4.63284 0 -0.982373 4.1635 0 -0.900007 3.74217 0 -0.824785 3.36367 0 -0.756075 3.02344 0 -0.693309 2.71741 0 -0.635976 2.44197 0 -0.583617 2.19389 0 -0.535819 1.97029 0 -0.492208 1.76859 0 -0.452448 1.5865 0 -0.416237 1.42194 0 -0.383299 1.27306 0 -0.353391 1.13819 0 -0.326292 1.01582 0 -0.301804 0.904596 0 -0.279752 0.803291 0 -0.259979 0.710783 0 -0.242347 0.626076 0 232.571 1.90735e-06 0 113.856 733.251 0 11.0884 927.998 0 -21.7328 915.174 0 -37.6381 835.09 0 -43.7946 741.369 0 -45.5534 648.596 0 -45.0549 563.159 0 -43.2198 487.003 0 -40.6639 420.238 0 -37.7627 362.308 0 -34.7309 312.368 0 -31.7162 269.479 0 -28.8107 232.732 0 -26.0685 201.284 0 -23.5199 174.381 0 -21.1784 151.358 0 -19.0454 131.638 0 -17.115 114.726 0 -15.3767 100.2 0 -13.8169 87.6987 0 -12.4209 76.9185 0 -11.1736 67.602 0 -10.0604 59.532 0 -9.06712 52.5253 0 -8.1809 46.4275 0 -7.38981 41.1083 0 -6.68309 36.4575 0 -6.0511 32.382 0 -5.48525 28.8028 0 -4.97795 25.6531 0 -4.52247 22.8756 0 -4.11292 20.4219 0 -3.74411 18.2502 0 -3.41147 16.325 0 -3.11101 14.6155 0 -2.83923 13.0954 0 -2.59305 11.7419 0 -2.36975 10.5351 0 -2.16697 9.45785 0 -1.98261 8.49524 0 -1.8148 7.63416 0 -1.66192 6.86319 0 -1.52253 6.1723 0 -1.39532 5.55266 0 -1.27915 4.99651 0 -1.17302 4.49699 0 -1.07599 4.04802 0 -0.987266 3.64424 0 -0.906107 3.28087 0 -0.831858 2.95367 0 -0.763928 2.65885 0 -0.701783 2.39305 0 -0.644945 2.15325 0 -0.592981 1.93676 0 -0.545497 1.74116 0 -0.502141 1.5643 0 -0.462595 1.40422 0 -0.426568 1.25918 0 -0.393802 1.12759 0 -0.364064 1.00805 0 -0.337144 0.899249 0 -0.312855 0.800032 0 -0.291028 0.70935 0 254.309 9.53674e-07 0 126.904 730.614 0 14.394 927.681 0 -22.754 918.953 0 -40.644 841.59 0 -47.8882 749.533 0 -50.1464 657.749 0 -49.8361 572.734 0 -48.0129 496.619 0 -45.3426 429.64 0 -42.2513 371.319 0 -38.9846 320.879 0 -35.708 277.43 0 -32.5291 240.097 0 -29.512 208.062 0 -26.6941 180.588 0 -24.0936 157.02 0 -21.7152 136.79 0 -19.555 119.405 0 -17.6031 104.443 0 -15.8463 91.5442 0 -14.2696 80.4026 0 -12.8573 70.7587 0 -11.5937 62.3929 0 -10.464 55.1195 0 -9.45397 48.7813 0 -8.55077 43.2456 0 -7.74258 38.3998 0 -7.01877 34.1485 0 -6.36982 30.411 0 -5.78729 27.1182 0 -5.26366 24.2116 0 -4.79231 21.641 0 -4.36741 19.3635 0 -3.98381 17.3424 0 -3.63699 15.5459 0 -3.32299 13.9467 0 -3.0383 12.5211 0 -2.77985 11.2488 0 -2.54493 10.1118 0 -2.33114 9.09462 0 -2.13638 8.18373 0 -1.95876 7.36723 0 -1.79665 6.6347 0 -1.64855 5.97695 0 -1.51317 5.38591 0 -1.38933 4.85443 0 -1.27599 4.37619 0 -1.17221 3.94558 0 -1.07715 3.55763 0 -0.990062 3.20789 0 -0.910267 2.89243 0 -0.83715 2.60771 0 -0.77016 2.3506 0 -0.708797 2.11826 0 -0.652611 1.90818 0 -0.601193 1.71807 0 -0.554173 1.54592 0 -0.511217 1.38987 0 -0.472022 1.24828 0 -0.436316 1.11966 0 -0.403852 1.00265 0 -0.374411 0.896029 0 -0.347789 0.798714 0 276.221 -1.43051e-06 0 140.427 728.272 0 18.1361 927.494 0 -23.5449 922.728 0 -43.5463 848.111 0 -51.9653 757.746 0 -54.7991 666.983 0 -54.7272 582.431 0 -52.9543 506.387 0 -50.1995 439.218 0 -46.9381 380.525 0 -43.4497 329.597 0 -39.9191 285.595 0 -36.4695 247.678 0 -33.1767 215.055 0 -30.0856 187.005 0 -27.22 162.886 0 -24.5885 142.137 0 -22.1894 124.269 0 -20.0142 108.861 0 -18.0503 95.5545 0 -16.2825 84.041 0 -14.6949 74.0595 0 -13.2711 65.3881 0 -11.9952 57.8386 0 -10.8523 51.2512 0 -9.82828 45.4906 0 -8.91048 40.4421 0 -8.08723 36.0079 0 -7.34809 32.1052 0 -6.68372 28.6633 0 -6.08581 25.6217 0 -5.547 22.929 0 -5.06077 20.5409 0 -4.62136 18.4193 0 -4.22371 16.5316 0 -3.86335 14.8494 0 -3.53633 13.3483 0 -3.23919 12.0071 0 -2.96885 10.8073 0 -2.7226 9.73277 0 -2.49807 8.76943 0 -2.29311 7.90495 0 -2.10585 7.12849 0 -1.93461 6.43051 0 -1.7779 5.8026 0 -1.6344 5.23731 0 -1.50291 4.72806 0 -1.38237 4.269 0 -1.27182 3.85494 0 -1.1704 3.48126 0 -1.07735 3.14382 0 -0.991947 2.83894 0 -0.913577 2.56334 0 -0.841665 2.31405 0 -0.775694 2.08844 0 -0.715197 1.88412 0 -0.659749 1.69896 0 -0.608966 1.53103 0 -0.562498 1.37861 0 -0.52003 1.24012 0 -0.481274 1.11416 0 -0.445976 0.999424 0 -0.413896 0.894787 0 298.326 -2.38419e-06 0 154.434 726.239 0 22.3266 927.457 0 -24.0875 926.513 0 -46.3341 854.655 0 -56.0173 766.01 0 -59.5052 676.302 0 -59.7264 592.25 0 -58.0442 516.309 0 -55.237 448.975 0 -51.8281 389.929 0 -48.1331 338.526 0 -44.3579 293.978 0 -40.6421 255.48 0 -37.0738 222.268 0 -33.7065 193.638 0 -30.5703 168.962 0 -27.6782 147.685 0 -25.0314 129.324 0 -22.6231 113.461 0 -20.4417 99.7355 0 -18.4725 87.8396 0 -16.699 77.5101 0 -15.1046 68.5231 0 -13.6725 60.6878 0 -12.387 53.8421 0 -11.2331 47.8482 0 -10.197 42.5889 0 -9.26617 37.9643 0 -8.42922 33.8896 0 -7.67592 30.292 0 -6.99713 27.1096 0 -6.38472 24.2893 0 -5.83147 21.7854 0 -5.331 19.5588 0 -4.87764 17.5755 0 -4.46641 15.8063 0 -4.09288 14.226 0 -3.75318 12.8125 0 -3.44384 11.5467 0 -3.16182 10.4118 0 -2.90443 9.39324 0 -2.66926 8.47823 0 -2.45419 7.65546 0 -2.25733 6.91502 0 -2.077 6.24816 0 -1.91168 5.64712 0 -1.76003 5.10505 0 -1.62085 4.61585 0 -1.49306 4.1741 0 -1.37566 3.77498 0 -1.2678 3.41417 0 -1.16868 3.08782 0 -1.07757 2.79249 0 -0.993836 2.5251 0 -0.916885 2.28287 0 -0.846186 2.06331 0 -0.781253 1.86418 0 -0.721648 1.68346 0 -0.666972 1.51934 0 -0.61686 1.37017 0 -0.570985 1.23447 0 -0.529049 1.11088 0 -0.490776 0.998212 0 320.647 9.53674e-07 0 168.935 724.527 0 26.9774 927.587 0 -24.3637 930.32 0 -48.9952 861.228 0 -60.0348 774.33 0 -64.2579 685.706 0 -64.8307 602.194 0 -63.2824 526.387 0 -60.4576 458.913 0 -56.9261 399.535 0 -53.0416 347.67 0 -49.0332 302.585 0 -45.057 263.51 0 -41.2147 229.707 0 -37.5693 200.493 0 -34.1578 175.253 0 -30.9981 153.441 0 -28.095 134.578 0 -25.444 118.249 0 -23.0349 104.094 0 -20.8534 91.8046 0 -18.8833 81.1165 0 -17.1074 71.8036 0 -15.5087 63.6727 0 -14.0704 56.5593 0 -12.7769 50.3232 0 -11.6133 44.8448 0 -10.5662 40.0221 0 -9.62329 35.7681 0 -8.77341 32.0083 0 -8.00662 28.679 0 -7.31399 25.7253 0 -6.68757 23.1004 0 -6.12031 20.7638 0 -5.60594 18.6804 0 -5.13893 16.8201 0 -4.71435 15.1567 0 -4.32785 13.6673 0 -3.9756 12.3321 0 -3.65417 11.1338 0 -3.36054 10.0572 0 -3.09202 9.08897 0 -2.84622 8.21741 0 -2.62102 7.4322 0 -2.41452 6.72422 0 -2.22502 6.08541 0 -2.051 5.50862 0 -1.89112 4.98751 0 -1.74413 4.51641 0 -1.60895 4.09028 0 -1.48459 3.70464 0 -1.37014 3.35545 0 -1.2648 3.03912 0 -1.16784 2.75241 0 -1.07859 2.49242 0 -0.996443 2.25654 0 -0.920856 2.04243 0 -0.851328 1.84797 0 -0.787405 1.67124 0 -0.728674 1.51053 0 -0.674759 1.36428 0 -0.625318 1.23106 0 -0.580035 1.10963 0 343.206 0 0 183.94 723.149 0 32.1001 927.907 0 -24.355 934.167 0 -51.5166 867.835 0 -64.0082 782.711 0 -69.0497 695.2 0 -70.037 612.264 0 -68.6687 536.624 0 -65.8632 469.036 0 -62.2369 409.345 0 -58.1823 357.034 0 -53.9537 311.42 0 -49.7248 271.771 0 -45.6114 237.377 0 -41.687 207.576 0 -37.9961 181.766 0 -34.5626 159.41 0 -31.3951 140.036 0 -28.492 123.23 0 -25.8447 108.635 0 -23.44 95.9422 0 -21.2621 84.8848 0 -19.2938 75.2353 0 -17.5175 66.7986 0 -15.9158 59.4079 0 -14.4724 52.9205 0 -13.1716 47.2145 0 -11.999 42.1858 0 -10.9413 37.7451 0 -9.98668 33.8161 0 -9.12422 30.3334 0 -8.3442 27.2405 0 -7.63794 24.4891 0 -6.9977 22.0374 0 -6.41656 19.8493 0 -5.8884 17.8935 0 -5.40779 16.1429 0 -4.96989 14.5739 0 -4.57044 13.1659 0 -4.20561 11.901 0 -3.87204 10.7633 0 -3.56672 9.73912 0 -3.28699 8.81617 0 -3.03046 7.98376 0 -2.795 7.23241 0 -2.57871 6.55372 0 -2.3799 5.94024 0 -2.19702 5.38536 0 -2.02872 4.88318 0 -1.87376 4.42843 0 -1.73102 4.01643 0 -1.59949 3.64297 0 -1.47826 3.30428 0 -1.36652 2.99698 0 -1.2635 2.71804 0 -1.16854 2.46472 0 -1.081 2.23457 0 -1.00033 2.02536 0 -0.926011 1.83509 0 -0.857577 1.66195 0 -0.794599 1.5043 0 -0.736692 1.36065 0 -0.68349 1.22968 0 366.026 -4.76837e-07 0 199.462 722.12 0 37.7065 928.437 0 -24.0426 938.07 0 -53.8843 874.483 0 -67.9272 791.157 0 -73.8728 704.786 0 -75.3413 622.464 0 -74.2022 547.023 0 -71.4556 479.347 0 -67.765 419.365 0 -63.5621 366.622 0 -59.1284 320.488 0 -54.6562 280.27 0 -50.2761 245.286 0 -46.0731 214.895 0 -42.1 188.508 0 -38.3869 165.601 0 -34.9473 145.706 0 -31.7829 128.413 0 -28.8872 113.367 0 -26.2484 100.259 0 -23.8514 88.8209 0 -21.6791 78.8241 0 -19.7137 70.0713 0 -17.9376 62.3933 0 -16.3335 55.6452 0 -14.8851 49.7028 0 -13.5771 44.4597 0 -12.3954 39.8247 0 -11.3272 35.7194 0 -10.3608 32.0766 0 -9.48571 28.8383 0 -8.6924 25.9547 0 -7.97243 23.3827 0 -7.31826 21.085 0 -6.72313 19.0292 0 -6.18107 17.1873 0 -5.68673 15.5348 0 -5.23537 14.0505 0 -4.82279 12.7155 0 -4.44522 11.5137 0 -4.09933 10.4306 0 -3.78214 9.45358 0 -3.49099 8.57146 0 -3.2235 7.77438 0 -2.97756 7.05361 0 -2.75127 6.40139 0 -2.5429 5.81081 0 -2.35094 5.27573 0 -2.17398 4.79067 0 -2.0108 4.35072 0 -1.86024 3.95149 0 -1.72131 3.58903 0 -1.59306 3.25983 0 -1.47467 2.96069 0 -1.36536 2.68876 0 -1.26444 2.44146 0 -1.17127 2.21646 0 -1.08528 2.01166 0 -1.00594 1.82516 0 -0.932768 1.65523 0 -0.865322 1.50031 0 -0.803193 1.35902 0 389.135 0 0 215.512 721.457 0 43.8079 929.202 0 -23.4079 942.047 0 -56.0836 881.182 0 -71.7809 799.675 0 -78.7184 714.47 0 -80.7387 632.795 0 -79.8817 557.587 0 -77.2363 489.849 0 -73.5145 429.597 0 -69.1878 376.439 0 -64.5663 329.795 0 -59.8622 289.013 0 -55.2216 253.439 0 -50.7416 222.454 0 -46.4844 195.486 0 -42.4871 172.019 0 -38.7683 151.593 0 -35.3337 133.804 0 -32.1795 118.296 0 -29.2955 104.761 0 -26.6678 92.9312 0 -24.2798 82.5761 0 -22.1136 73.4964 0 -20.1514 65.5208 0 -18.3753 58.5023 0 -16.7684 52.3144 0 -15.3145 46.8484 0 -13.9989 42.011 0 -12.8077 37.722 0 -11.7285 33.9123 0 -10.7499 30.5223 0 -9.86176 27.5006 0 -9.05478 24.8028 0 -8.32075 22.3904 0 -7.65231 20.2299 0 -7.04288 18.2924 0 -6.48659 16.5524 0 -5.97822 14.9879 0 -5.5131 13.5796 0 -5.08708 12.3103 0 -4.69647 11.1654 0 -4.33795 10.1314 0 -4.00857 9.19699 0 -3.70569 8.35175 0 -3.42694 7.58661 0 -3.17022 6.8935 0 -2.9336 6.26523 0 -2.71537 5.69538 0 -2.514 5.17824 0 -2.32808 4.70868 0 -2.15637 4.28212 0 -1.9977 3.89444 0 -1.85106 3.54195 0 -1.7155 3.22132 0 -1.59016 2.92956 0 -1.47426 2.66395 0 -1.3671 2.42208 0 -1.26803 2.20171 0 -1.17645 2.00088 0 -1.09182 1.81775 0 -1.01364 1.65069 0 -0.941461 1.49825 0 412.559 4.76837e-07 0 232.107 721.176 0 50.4158 930.224 0 -22.4321 946.118 0 -58.0985 887.941 0 -75.5578 808.272 0 -83.5774 724.257 0 -86.2238 643.262 0 -85.7055 568.32 0 -83.2064 500.547 0 -79.4896 440.046 0 -75.0661 386.488 0 -70.2765 339.345 0 -65.354 298.004 0 -60.4608 261.843 0 -55.7072 230.262 0 -51.1653 202.706 0 -46.8799 178.672 0 -42.8756 157.707 0 -39.1624 139.409 0 -35.7397 123.428 0 -32.5996 109.455 0 -29.7296 97.222 0 -27.1137 86.4971 0 -24.7346 77.0795 0 -22.5741 68.7959 0 -20.6142 61.497 0 -18.8372 55.054 0 -17.2264 49.3563 0 -15.7661 44.3083 0 -14.4419 39.8279 0 -13.2404 35.8441 0 -12.1494 32.2958 0 -11.158 29.1299 0 -10.2561 26.3006 0 -9.43481 23.7683 0 -8.68615 21.4983 0 -8.0029 19.4606 0 -7.37864 17.629 0 -6.80764 15.9805 0 -6.28476 14.4951 0 -5.80541 13.1552 0 -5.36552 11.9452 0 -4.96142 10.8515 0 -4.58985 9.86201 0 -4.24786 8.96607 0 -3.93284 8.15421 0 -3.64243 7.418 0 -3.37451 6.74995 0 -3.12718 6.14338 0 -2.8987 5.59233 0 -2.68754 5.09144 0 -2.49229 4.63594 0 -2.31167 4.22151 0 -2.14453 3.8443 0 -1.98982 3.50083 0 -1.84659 3.18796 0 -1.71396 2.90286 0 -1.59115 2.64297 0 -1.47742 2.40598 0 -1.37212 2.1898 0 -1.27463 1.99252 0 -1.1844 1.81242 0 -1.10092 1.64797 0 436.327 9.53674e-07 0 249.26 721.296 0 57.5413 931.532 0 -21.0964 950.307 0 -59.9126 894.771 0 -79.2456 816.955 0 -88.4401 734.153 0 -91.7906 653.869 0 -91.6714 579.226 0 -89.3667 511.445 0 -85.6939 450.717 0 -81.2038 396.777 0 -76.2682 349.145 0 -71.143 307.252 0 -66.0072 270.503 0 -60.985 238.324 0 -56.1592 210.176 0 -51.583 185.567 0 -47.2876 164.052 0 -43.288 145.237 0 -39.5872 128.771 0 -36.1802 114.348 0 -33.0561 101.7 0 -30.2001 90.5933 0 -27.5955 80.8265 0 -25.2242 72.224 0 -23.068 64.6343 0 -21.1088 57.9265 0 -19.3293 51.9879 0 -17.7132 46.7208 0 -16.2452 42.041 0 -14.9111 37.8757 0 -13.6981 34.1622 0 -12.5942 30.8457 0 -11.5889 27.8792 0 -10.6723 25.2215 0 -9.83592 22.8369 0 -9.07184 20.6944 0 -8.37305 18.7668 0 -7.73328 17.0304 0 -7.1469 15.4642 0 -6.60889 14.0501 0 -6.11472 12.7719 0 -5.66038 11.6154 0 -5.24224 10.5681 0 -4.85707 9.61884 0 -4.50195 8.75779 0 -4.17428 7.97619 0 -3.87171 7.26622 0 -3.59211 6.62092 0 -3.33358 6.03406 0 -3.09439 5.50007 0 -2.87299 5.01395 0 -2.66795 4.5712 0 -2.47799 4.16779 0 -2.30195 3.80008 0 -2.13876 3.46478 0 -1.98746 3.15894 0 -1.84715 2.87987 0 -1.71703 2.62514 0 -1.59636 2.39257 0 -1.48446 2.18015 0 -1.38071 1.98607 0 -1.28452 1.80872 0 460.472 0 0 266.99 721.839 0 65.1957 933.151 0 -19.3824 954.636 0 -61.5085 901.689 0 -82.8314 825.733 0 -93.2961 744.166 0 -97.432 664.621 0 -97.7763 590.309 0 -95.7176 522.548 0 -92.1308 461.615 0 -87.6072 407.309 0 -82.5507 359.201 0 -77.2408 316.761 0 -71.8747 279.428 0 -66.5907 246.648 0 -61.4833 217.903 0 -56.6149 192.711 0 -52.0238 170.638 0 -47.7306 151.293 0 -43.7427 134.331 0 -40.0581 119.446 0 -36.6682 106.371 0 -33.5597 94.8708 0 -30.7167 84.7431 0 -28.1216 75.8103 0 -25.7561 67.9192 0 -23.602 60.9366 0 -21.6414 54.7475 0 -19.8575 49.2523 0 -18.2342 44.3649 0 -16.7567 40.0106 0 -15.4111 36.1247 0 -14.1851 32.6511 0 -13.067 29.5411 0 -12.0465 26.7525 0 -11.1142 24.2482 0 -10.2616 21.996 0 -9.4811 19.968 0 -8.76586 18.1394 0 -8.10972 16.4887 0 -7.50717 14.9968 0 -6.95325 13.647 0 -6.44353 12.4247 0 -5.97404 11.3166 0 -5.54118 10.3114 0 -5.14176 9.39864 0 -4.77289 8.56929 0 -4.43195 7.81518 0 -4.11662 7.12907 0 -3.82477 6.50446 0 -3.55449 5.93552 0 -3.30404 5.41706 0 -3.07187 4.94436 0 -2.85653 4.51322 0 -2.65673 4.11982 0 -2.4713 3.76074 0 -2.29916 3.43287 0 -2.13931 3.1334 0 -1.99087 2.8598 0 -1.85301 2.60975 0 -1.72497 2.38117 0 -1.60606 2.17215 0 -1.49563 1.98099 0 485.026 0 0 285.315 722.828 0 73.3897 935.113 0 -17.2717 959.131 0 -62.8683 908.708 0 -86.3012 834.617 0 -98.1344 754.303 0 -103.14 675.525 0 -104.017 601.574 0 -102.259 533.861 0 -98.8035 472.746 0 -94.2826 418.092 0 -89.1331 369.519 0 -83.6593 326.54 0 -78.0773 288.623 0 -72.5404 255.242 0 -67.1556 225.894 0 -61.995 200.112 0 -57.1048 177.471 0 -52.5117 157.586 0 -48.2281 140.116 0 -44.2556 124.757 0 -40.5882 111.241 0 -37.2147 99.3358 0 -34.1202 88.835 0 -31.2879 79.5604 0 -28.6997 71.3566 0 -26.3372 64.0886 0 -24.1825 57.6393 0 -22.2181 51.9069 0 -20.4273 46.8033 0 -18.7945 42.2519 0 -17.3054 38.1862 0 -15.9465 34.5487 0 -14.7057 31.2891 0 -13.5718 28.3636 0 -12.5347 25.7341 0 -11.5853 23.3674 0 -10.7153 21.2343 0 -9.91729 19.3093 0 -9.18453 17.57 0 -8.51101 15.9967 0 -7.89132 14.572 0 -7.3206 13.2806 0 -6.79446 12.1089 0 -6.30899 11.0449 0 -5.86063 10.0778 0 -5.4462 9.1983 0 -5.06283 8.39779 0 -4.70793 7.66874 0 -4.37915 7.00436 0 -4.07439 6.39861 0 -3.79171 5.84603 0 -3.52938 5.34171 0 -3.28583 4.88127 0 -3.0596 4.4607 0 -2.8494 4.07644 0 -2.65402 3.72522 0 -2.47238 3.40411 0 -2.30348 3.11045 0 -2.1464 2.84182 0 -2.0003 2.59602 0 -1.86442 2.37105 0 -1.73802 2.16515 0 510.027 1.90735e-06 0 304.255 724.287 0 82.1342 937.448 0 -14.7463 963.822 0 -63.9733 915.847 0 -89.6406 843.618 0 -102.943 764.574 0 -108.907 686.589 0 -110.388 613.029 0 -108.99 545.39 0 -105.715 484.116 0 -101.236 429.13 0 -96.0246 380.106 0 -90.4105 336.594 0 -84.6295 298.097 0 -78.851 264.113 0 -73.1948 234.158 0 -67.7436 207.778 0 -62.5521 184.559 0 -57.6538 164.123 0 -53.0667 146.132 0 -48.7964 130.286 0 -44.8402 116.318 0 -41.189 103.994 0 -37.8297 93.1079 0 -34.7464 83.4794 0 -31.9215 74.9515 0 -29.3369 67.3872 0 -26.9743 60.6673 0 -24.8159 54.6881 0 -22.8446 49.3594 0 -21.0441 44.6026 0 -19.3994 40.3496 0 -17.8964 36.5411 0 -16.522 33.1252 0 -15.2645 30.0568 0 -14.113 27.2967 0 -13.0577 24.8102 0 -12.0897 22.5673 0 -11.2008 20.5416 0 -10.3839 18.7097 0 -9.6324 17.0511 0 -8.94033 15.548 0 -8.30241 14.1842 0 -7.71384 12.9458 0 -7.1703 11.8202 0 -6.66789 10.7962 0 -6.20312 9.86402 0 -5.77281 9.01478 0 -5.37411 8.24061 0 -5.00443 7.53443 0 -4.66143 6.88993 0 -4.343 6.30142 0 -4.04719 5.76379 0 -3.77228 5.27243 0 -3.51666 4.82318 0 -3.27889 4.4123 0 -3.05764 4.03638 0 -2.8517 3.69236 0 -2.65996 3.37743 0 -2.48141 3.08907 0 -2.31513 2.82498 0 -2.16024 2.58305 0 -2.01597 2.36143 0 535.513 0 0 323.834 726.245 0 91.4395 940.191 0 -11.7886 968.737 0 -64.8048 923.127 0 -92.8342 852.751 0 -107.711 774.99 0 -114.724 697.82 0 -116.886 624.68 0 -115.91 557.143 0 -112.867 495.731 0 -108.474 440.432 0 -103.234 390.968 0 -97.5065 346.932 0 -91.5464 307.857 0 -85.5398 273.269 0 -79.6203 242.701 0 -73.8819 215.717 0 -68.3884 191.91 0 -63.1809 170.912 0 -58.2832 152.388 0 -53.7058 136.042 0 -49.