<?xml version="1.0"?> 
<VTKFile type="StructuredGrid" version="0.1"> 
<StructuredGrid WholeExtent="0 63 0 63 0 0"> 
<Piece Extent="0 63 0 63 0 0"> 
<PointData>
<DataArray type="Float32" Name="|E|" format="ascii" NumberOfComponents="3"> 
-1.66715e+06 0 0 -1.66752e+06 30068.6 0 -1.6686e+06 60162 0 -1.67041e+06 90305.1 0 -1.67293e+06 120523 0 -1.67617e+06 150840 0 -1.68013e+06 181283 0 -1.68479e+06 211875 0 -1.69016e+06 242644 0 -1.69623e+06 273615 0 -1.70299e+06 304814 0 -1.71043e+06 336267 0 -1.71856e+06 368002 0 -1.72735e+06 400046 0 -1.7368e+06 432427 0 -1.74689e+06 465171 0 -1.7576e+06 498308 0 -1.76892e+06 531865 0 -1.78082e+06 565870 0 -1.79329e+06 600353 0 -1.80628e+06 635341 0 -1.81978e+06 670860 0 -1.83373e+06 706939 0 -1.8481e+06 743600 0 -1.86283e+06 780867 0 -1.87786e+06 818760 0 -1.89314e+06 857293 0 -1.90857e+06 896475 0 -1.92407e+06 936310 0 -1.93955e+06 976787 0 -1.95488e+06 1.01788e+06 0 -1.96995e+06 1.05957e+06 0 -1.9846e+06 1.10177e+06 0 -1.99868e+06 1.1444e+06 0 -2.01201e+06 1.18735e+06 0 -2.02443e+06 1.23045e+06 0 -2.03573e+06 1.27347e+06 0 -2.04572e+06 1.31615e+06 0 -2.05424e+06 1.35814e+06 0 -2.06113e+06 1.39901e+06 0 -2.06627e+06 1.43825e+06 0 -2.06963e+06 1.47527e+06 0 -2.07125e+06 1.50939e+06 0 -2.07129e+06 1.53987e+06 0 -2.07006e+06 1.5659e+06 0 -2.06799e+06 1.58669e+06 0 -2.06572e+06 1.60143e+06 0 -2.06401e+06 1.60941e+06 0 -2.06377e+06 1.60998e+06 0 -2.06599e+06 1.60265e+06 0 -2.07174e+06 1.58706e+06 0 -2.08212e+06 1.56301e+06 0 -2.09812e+06 1.53044e+06 0 -2.12094e+06 1.48959e+06 0 -2.15108e+06 1.44041e+06 0 -2.19063e+06 1.38464e+06 0 -2.23771e+06 1.32008e+06 0 -2.30062e+06 1.25757e+06 0 -2.36365e+06 1.17584e+06 0 -2.47461e+06 1.14772e+06 0 -2.53283e+06 1.00793e+06 0 -2.84361e+06 1.26885e+06 0 -2.79138e+06 622808 0 -5.70457e+06 7.30341e+06 0 -1.65553e+06 0 0 -1.65602e+06 30341 0 -1.65723e+06 60700.3 0 -1.65915e+06 91102.3 0 -1.66178e+06 121572 0 -1.66512e+06 152134 0 -1.66916e+06 182813 0 -1.67391e+06 213635 0 -1.67935e+06 244625 0 -1.68548e+06 275809 0 -1.69231e+06 307212 0 -1.69981e+06 338861 0 -1.70798e+06 370782 0 -1.71681e+06 403003 0 -1.72629e+06 435549 0 -1.73641e+06 468450 0 -1.74715e+06 501731 0 -1.75849e+06 535421 0 -1.7704e+06 569548 0 -1.78288e+06 604138 0 -1.79588e+06 639220 0 -1.80938e+06 674818 0 -1.82333e+06 710959 0 -1.8377e+06 747666 0 -1.85243e+06 784961 0 -1.86746e+06 822860 0 -1.88274e+06 861379 0 -1.89818e+06 900524 0 -1.9137e+06 940295 0 -1.9292e+06 980683 0 -1.94457e+06 1.02166e+06 0 -1.95969e+06 1.06319e+06 0 -1.97442e+06 1.10521e+06 0 -1.98861e+06 1.14764e+06 0 -2.00209e+06 1.19033e+06 0 -2.01469e+06 1.23314e+06 0 -2.02623e+06 1.27585e+06 0 -2.03653e+06 1.31819e+06 0 -2.04544e+06 1.35981e+06 0 -2.05279e+06 1.4003e+06 0 -2.05851e+06 1.43917e+06 0 -2.06255e+06 1.47582e+06 0 -2.06496e+06 1.50962e+06 0 -2.06591e+06 1.53982e+06 0 -2.06569e+06 1.56567e+06 0 -2.06475e+06 1.58637e+06 0 -2.06368e+06 1.60116e+06 0 -2.06324e+06 1.60932e+06 0 -2.06429e+06 1.61023e+06 0 -2.06781e+06 1.60338e+06 0 -2.07483e+06 1.58842e+06 0 -2.08641e+06 1.56513e+06 0 -2.10358e+06 1.53343e+06 0 -2.12733e+06 1.49348e+06 0 -2.1586e+06 1.44546e+06 0 -2.19828e+06 1.39033e+06 0 -2.24724e+06 1.32805e+06 0 -2.30689e+06 1.26365e+06 0 -2.37763e+06 1.19148e+06 0 -2.46738e+06 1.14408e+06 0 -2.56974e+06 1.06275e+06 0 -2.75576e+06 1.18854e+06 0 -2.97704e+06 1.02667e+06 0 -4.38702e+06 5.20013e+06 0 -1.64379e+06 0 0 -1.64443e+06 30609.9 0 -1.64576e+06 61231.5 0 -1.6478e+06 91889.2 0 -1.65054e+06 122608 0 -1.65397e+06 153411 0 -1.65811e+06 184324 0 -1.66294e+06 215373 0 -1.66846e+06 246582 0 -1.67466e+06 277976 0 -1.68155e+06 309581 0 -1.6891e+06 341423 0 -1.69733e+06 373529 0 -1.7062e+06 405924 0 -1.71572e+06 438635 0 -1.72587e+06 471690 0 -1.73664e+06 505114 0 -1.748e+06 538936 0 -1.75993e+06 573182 0 -1.77242e+06 607879 0 -1.78543e+06 643053 0 -1.79894e+06 678730 0 -1.8129e+06 714933 0 -1.82727e+06 751686 0 -1.84201e+06 789008 0 -1.85705e+06 826915 0 -1.87233e+06 865420 0 -1.88779e+06 904529 0 -1.90333e+06 944240 0 -1.91886e+06 984541 0 -1.93428e+06 1.02541e+06 0 -1.94946e+06 1.06679e+06 0 -1.96427e+06 1.10864e+06 0 -1.97857e+06 1.15085e+06 0 -1.99221e+06 1.19331e+06 0 -2.005e+06 1.23585e+06 0 -2.01679e+06 1.27826e+06 0 -2.02741e+06 1.32026e+06 0 -2.0367e+06 1.36154e+06 0 -2.04453e+06 1.40167e+06 0 -2.05082e+06 1.44017e+06 0 -2.05553e+06 1.47649e+06 0 -2.05873e+06 1.50998e+06 0 -2.06057e+06 1.53993e+06 0 -2.06136e+06 1.56561e+06 0 -2.06151e+06 1.58625e+06 0 -2.06162e+06 1.6011e+06 0 -2.06242e+06 1.60945e+06 0 -2.06474e+06 1.6107e+06 0 -2.06953e+06 1.60434e+06 0 -2.0778e+06 1.58999e+06 0 -2.09057e+06 1.56744e+06 0 -2.10887e+06 1.5366e+06 0 -2.13362e+06 1.49756e+06 0 -2.16582e+06 1.45059e+06 0 -2.20608e+06 1.39634e+06 0 -2.25587e+06 1.33558e+06 0 -2.31463e+06 1.27109e+06 0 -2.38748e+06 1.20361e+06 0 -2.46887e+06 1.14891e+06 0 -2.58508e+06 1.09495e+06 0 -2.71556e+06 1.16327e+06 0 -3.02971e+06 1.23815e+06 0 -3.60515e+06 4.1256e+06 0 -1.63196e+06 0 0 -1.63273e+06 30875.3 0 -1.63419e+06 61755.9 0 -1.63635e+06 92666.1 0 -1.6392e+06 123630 0 -1.64274e+06 154672 0 -1.64697e+06 185817 0 -1.65188e+06 217089 0 -1.65748e+06 248514 0 -1.66376e+06 280116 0 -1.67071e+06 311921 0 -1.67833e+06 343954 0 -1.6866e+06 376242 0 -1.69552e+06 408810 0 -1.70509e+06 441684 0 -1.71527e+06 474891 0 -1.72607e+06 508458 0 -1.73745e+06 542410 0 -1.74941e+06 576774 0 -1.76192e+06 611577 0 -1.77495e+06 646843 0 -1.78846e+06 682597 0 -1.80243e+06 718862 0 -1.81682e+06 755660 0 -1.83156e+06 793009 0 -1.84662e+06 830925 0 -1.86192e+06 869418 0 -1.87739e+06 908493 0 -1.89296e+06 948145 0 -1.90853e+06 988362 0 -1.924e+06 1.02912e+06 0 -1.93925e+06 1.07036e+06 0 -1.95416e+06 1.11204e+06 0 -1.96858e+06 1.15405e+06 0 -1.98237e+06 1.19628e+06 0 -1.99537e+06 1.23856e+06 0 -2.00741e+06 1.28068e+06 0 -2.01835e+06 1.32237e+06 0 -2.02803e+06 1.36331e+06 0 -2.03633e+06 1.4031e+06 0 -2.04319e+06 1.44127e+06 0 -2.04857e+06 1.47727e+06 0 -2.05254e+06 1.51047e+06 0 -2.05527e+06 1.5402e+06 0 -2.05704e+06 1.56573e+06 0 -2.05827e+06 1.58632e+06 0 -2.05954e+06 1.60123e+06 0 -2.06155e+06 1.60979e+06 0 -2.06511e+06 1.61138e+06 0 -2.07115e+06 1.6055e+06 0 -2.08065e+06 1.59177e+06 0 -2.09461e+06 1.56995e+06 0 -2.11401e+06 1.53995e+06 0 -2.13976e+06 1.50181e+06 0 -2.17284e+06 1.45583e+06 0 -2.2138e+06 1.40253e+06 0 -2.26408e+06 1.34299e+06 0 -2.32282e+06 1.27906e+06 0 -2.3956e+06 1.2143e+06 0 -2.4738e+06 1.15695e+06 0 -2.59087e+06 1.1175e+06 0 -2.69613e+06 1.15936e+06 0 -3.01901e+06 1.36197e+06 0 -3.10744e+06 3.44447e+06 0 -1.62002e+06 0 0 -1.62093e+06 31137.2 0 -1.62252e+06 62273.5 0 -1.6248e+06 93432.9 0 -1.62776e+06 124640 0 -1.63141e+06 155917 0 -1.63574e+06 187291 0 -1.64074e+06 218784 0 -1.64642e+06 250423 0 -1.65278e+06 282230 0 -1.6598e+06 314233 0 -1.66748e+06 346455 0 -1.67581e+06 378923 0 -1.68478e+06 411661 0 -1.69439e+06 444697 0 -1.70461e+06 478055 0 -1.71544e+06 511762 0 -1.72686e+06 545843 0 -1.73884e+06 580325 0 -1.75137e+06 615232 0 -1.76442e+06 650589 0 -1.77795e+06 686420 0 -1.79194e+06 722747 0 -1.80633e+06 759590 0 -1.82109e+06 796967 0 -1.83617e+06 834892 0 -1.85149e+06 873374 0 -1.86699e+06 912416 0 -1.88259e+06 952013 0 -1.89821e+06 992150 0 -1.91373e+06 1.0328e+06 0 -1.92906e+06 1.07391e+06 0 -1.94407e+06 1.11542e+06 0 -1.95862e+06 1.15725e+06 0 -1.97258e+06 1.19925e+06 0 -1.98578e+06 1.24128e+06 0 -1.99809e+06 1.28312e+06 0 -2.00935e+06 1.32452e+06 0 -2.01942e+06 1.36514e+06 0 -2.0282e+06 1.40461e+06 0 -2.03562e+06 1.44246e+06 0 -2.04166e+06 1.47816e+06 0 -2.0464e+06 1.5111e+06 0 -2.04999e+06 1.54062e+06 0 -2.05273e+06 1.56602e+06 0 -2.05503e+06 1.58658e+06 0 -2.05743e+06 1.60157e+06 0 -2.06062e+06 1.61034e+06 0 -2.06541e+06 1.61227e+06 0 -2.07268e+06 1.60687e+06 0 -2.08339e+06 1.59375e+06 0 -2.0985e+06 1.57265e+06 0 -2.11899e+06 1.54347e+06 0 -2.14575e+06 1.50623e+06 0 -2.17968e+06 1.46121e+06 0 -2.22138e+06 1.40887e+06 0 -2.27204e+06 1.35039e+06 0 -2.33104e+06 1.28731e+06 0 -2.40295e+06 1.22421e+06 0 -2.47998e+06 1.16652e+06 0 -2.59231e+06 1.13449e+06 0 -2.68588e+06 1.16607e+06 0 -2.97727e+06 1.43175e+06 0 -2.77989e+06 2.99009e+06 0 -1.60798e+06 0 0 -1.60903e+06 31395.6 0 -1.61076e+06 62784.3 0 -1.61316e+06 94189.9 0 -1.61624e+06 125636 0 -1.61999e+06 157147 0 -1.62442e+06 188746 0 -1.62952e+06 220458 0 -1.63529e+06 252308 0 -1.64172e+06 284319 0 -1.64881e+06 316517 0 -1.65655e+06 348926 0 -1.66494e+06 381572 0 -1.67397e+06 414479 0 -1.68362e+06 447674 0 -1.69389e+06 481181 0 -1.70476e+06 515027 0 -1.71621e+06 549236 0 -1.72822e+06 583834 0 -1.74078e+06 618845 0 -1.75385e+06 654292 0 -1.7674e+06 690200 0 -1.78141e+06 726588 0 -1.79582e+06 763477 0 -1.8106e+06 800882 0 -1.8257e+06 838817 0 -1.84105e+06 877289 0 -1.85658e+06 916301 0 -1.87222e+06 955845 0 -1.88789e+06 995904 0 -1.90348e+06 1.03645e+06 0 -1.91889e+06 1.07743e+06 0 -1.93401e+06 1.11879e+06 0 -1.9487e+06 1.16043e+06 0 -1.96282e+06 1.20222e+06 0 -1.97624e+06 1.24401e+06 0 -1.98882e+06 1.28559e+06 0 -2.0004e+06 1.3267e+06 0 -2.01087e+06 1.36703e+06 0 -2.02012e+06 1.40619e+06 0 -2.0281e+06 1.44374e+06 0 -2.0348e+06 1.47916e+06 0 -2.04029e+06 1.51186e+06 0 -2.04474e+06 1.54119e+06 0 -2.04843e+06 1.56648e+06 0 -2.05177e+06 1.58702e+06 0 -2.05528e+06 1.6021e+06 0 -2.05965e+06 1.61108e+06 0 -2.06563e+06 1.61336e+06 0 -2.07411e+06 1.60844e+06 0 -2.086e+06 1.59593e+06 0 -2.10226e+06 1.57555e+06 0 -2.12383e+06 1.54717e+06 0 -2.15158e+06 1.51081e+06 0 -2.18636e+06 1.46672e+06 0 -2.2288e+06 1.41533e+06 0 -2.27982e+06 1.35781e+06 0 -2.33914e+06 1.29566e+06 0 -2.40997e+06 1.2337e+06 0 -2.48643e+06 1.17664e+06 0 -2.59197e+06 1.14836e+06 0 -2.67908e+06 1.17693e+06 0 -2.92213e+06 1.4687e+06 0 -2.55854e+06 2.66137e+06 0 -1.59584e+06 0 0 -1.59703e+06 31650.6 0 -1.5989e+06 63288.5 0 -1.60143e+06 94937 0 -1.60462e+06 126620 0 -1.60849e+06 158361 0 -1.61302e+06 190183 0 -1.61821e+06 222112 0 -1.62407e+06 254170 0 -1.63058e+06 286382 0 -1.63775e+06 318773 0 -1.64556e+06 351367 0 -1.65401e+06 384189 0 -1.66309e+06 417263 0 -1.6728e+06 450616 0 -1.68311e+06 484271 0 -1.69402e+06 518254 0 -1.70551e+06 552590 0 -1.71756e+06 587303 0 -1.73014e+06 622416 0 -1.74324e+06 657954 0 -1.75682e+06 693937 0 -1.77085e+06 730387 0 -1.78529e+06 767321 0 -1.80009e+06 804756 0 -1.81521e+06 842702 0 -1.83059e+06 881166 0 -1.84616e+06 920148 0 -1.86185e+06 959642 0 -1.87758e+06 999628 0 -1.89324e+06 1.04007e+06 0 -1.90874e+06 1.08094e+06 0 -1.92397e+06 1.12214e+06 0 -1.9388e+06 1.1636e+06 0 -1.95311e+06 1.20519e+06 0 -1.96675e+06 1.24675e+06 0 -1.97959e+06 1.28808e+06 0 -1.9915e+06 1.32892e+06 0 -2.00237e+06 1.36897e+06 0 -2.0121e+06 1.40785e+06 0 -2.02063e+06 1.44512e+06 0 -2.02798e+06 1.48027e+06 0 -2.03422e+06 1.51275e+06 0 -2.03952e+06 1.54191e+06 0 -2.04414e+06 1.5671e+06 0 -2.0485e+06 1.58763e+06 0 -2.05311e+06 1.60282e+06 0 -2.05861e+06 1.61203e+06 0 -2.06577e+06 1.61466e+06 0 -2.07544e+06 1.61021e+06 0 -2.0885e+06 1.59829e+06 0 -2.10589e+06 1.57862e+06 0 -2.12852e+06 1.55104e+06 0 -2.15726e+06 1.51555e+06 0 -2.19289e+06 1.47236e+06 0 -2.23605e+06 1.42191e+06 0 -2.28746e+06 1.36529e+06 0 -2.34706e+06 1.30408e+06 0 -2.41685e+06 1.24296e+06 0 -2.49273e+06 1.18686e+06 0 -2.59106e+06 1.16022e+06 0 -2.67317e+06 1.18888e+06 0 -2.8631e+06 1.48403e+06 0 -2.40636e+06 2.41278e+06 0 -1.5836e+06 0 0 -1.58494e+06 31902.2 0 -1.58694e+06 63786 0 -1.5896e+06 95674.5 0 -1.59292e+06 127591 0 -1.5969e+06 159559 0 -1.60153e+06 191602 0 -1.60683e+06 223744 0 -1.61277e+06 256008 0 -1.61937e+06 288419 0 -1.62661e+06 321001 0 -1.63449e+06 353778 0 -1.64301e+06 386774 0 -1.65216e+06 420014 0 -1.66191e+06 453523 0 -1.67228e+06 487325 0 -1.68323e+06 521444 0 -1.69476e+06 555906 0 -1.70684e+06 590732 0 -1.71946e+06 625948 0 -1.73259e+06 661575 0 -1.7462e+06 697634 0 -1.76026e+06 734145 0 -1.77472e+06 771125 0 -1.78956e+06 808589 0 -1.80471e+06 846547 0 -1.82013e+06 885004 0 -1.83574e+06 923960 0 -1.85148e+06 963406 0 -1.86727e+06 1.00332e+06 0 -1.88301e+06 1.04368e+06 0 -1.89861e+06 1.08442e+06 0 -1.91396e+06 1.12548e+06 0 -1.92894e+06 1.16677e+06 0 -1.94343e+06 1.20817e+06 0 -1.95729e+06 1.24951e+06 0 -1.97041e+06 1.2906e+06 0 -1.98265e+06 1.33118e+06 0 -1.99392e+06 1.37096e+06 0 -2.00412e+06 1.40957e+06 0 -2.01321e+06 1.44658e+06 0 -2.02121e+06 1.4815e+06 0 -2.02818e+06 1.51376e+06 0 -2.03431e+06 1.54278e+06 0 -2.03985e+06 1.56789e+06 0 -2.04521e+06 1.58843e+06 0 -2.05089e+06 1.60373e+06 0 -2.05752e+06 1.61316e+06 0 -2.06584e+06 1.61615e+06 0 -2.07666e+06 1.61218e+06 0 -2.09088e+06 1.60085e+06 0 -2.10938e+06 1.58188e+06 0 -2.13307e+06 1.55508e+06 0 -2.16278e+06 1.52045e+06 0 -2.19926e+06 1.47814e+06 0 -2.24314e+06 1.42859e+06 0 -2.29496e+06 1.37284e+06 0 -2.3548e+06 1.31251e+06 0 -2.42367e+06 1.25207e+06 0 -2.49875e+06 1.19693e+06 0 -2.59017e+06 1.17072e+06 0 -2.66707e+06 1.20018e+06 0 -2.80539e+06 1.48504e+06 0 -2.30057e+06 2.21617e+06 0 -1.57126e+06 0 0 -1.57275e+06 32150.5 0 -1.57489e+06 64276.9 0 -1.57768e+06 96402.3 0 -1.58113e+06 128550 0 -1.58522e+06 160742 0 -1.58996e+06 193003 0 -1.59536e+06 225356 0 -1.6014e+06 257824 0 -1.60808e+06 290432 0 -1.6154e+06 323203 0 -1.62336e+06 356160 0 -1.63195e+06 389329 0 -1.64115e+06 422733 0 -1.65097e+06 456396 0 -1.66138e+06 490343 0 -1.67238e+06 524598 0 -1.68396e+06 559183 0 -1.69608e+06 594123 0 -1.70874e+06 629440 0 -1.7219e+06 665155 0 -1.73554e+06 701290 0 -1.74963e+06 737863 0 -1.76413e+06 774889 0 -1.779e+06 812383 0 -1.79419e+06 850354 0 -1.80965e+06 888806 0 -1.82531e+06 927738 0 -1.84111e+06 967138 0 -1.85697e+06 1.00699e+06 0 -1.87279e+06 1.04725e+06 0 -1.8885e+06 1.08788e+06 0 -1.90397e+06 1.12881e+06 0 -1.9191e+06 1.16994e+06 0 -1.93378e+06 1.21115e+06 0 -1.94787e+06 1.25228e+06 0 -1.96127e+06 1.29315e+06 0 -1.97385e+06 1.33349e+06 0 -1.98551e+06 1.37301e+06 0 -1.99618e+06 1.41137e+06 0 -2.00583e+06 1.44813e+06 0 -2.01446e+06 1.48282e+06 0 -2.02216e+06 1.5149e+06 0 -2.02911e+06 1.54378e+06 0 -2.03556e+06 1.56883e+06 0 -2.0419e+06 1.58939e+06 0 -2.04863e+06 1.60482e+06 0 -2.05636e+06 1.61449e+06 0 -2.06581e+06 1.61783e+06 0 -2.07778e+06 1.61433e+06 0 -2.09313e+06 1.6036e+06 0 -2.11274e+06 1.58531e+06 0 -2.13747e+06 1.55929e+06 0 -2.16814e+06 1.52549e+06 0 -2.20548e+06 1.48405e+06 0 -2.25007e+06 1.43539e+06 0 -2.30233e+06 1.38046e+06 0 -2.36237e+06 1.32095e+06 0 -2.43044e+06 1.26106e+06 0 -2.50451e+06 1.20673e+06 0 -2.58953e+06 1.1802e+06 0 -2.66049e+06 1.20998e+06 0 -2.75173e+06 1.47634e+06 0 -2.22674e+06 2.05542e+06 0 -1.55883e+06 0 0 -1.56047e+06 32395.4 0 -1.56275e+06 64761.4 0 -1.56568e+06 97120.6 0 -1.56925e+06 129496 0 -1.57346e+06 161910 0 -1.57831e+06 194386 0 -1.58381e+06 226948 0 -1.58995e+06 259618 0 -1.59672e+06 292420 0 -1.60412e+06 325377 0 -1.61216e+06 358514 0 -1.62081e+06 391853 0 -1.63009e+06 425419 0 -1.63996e+06 459236 0 -1.65043e+06 493326 0 -1.66148e+06 527714 0 -1.6731e+06 562423 0 -1.68527e+06 597475 0 -1.69797e+06 632893 0 -1.71117e+06 668697 0 -1.72485e+06 704907 0 -1.73898e+06 741541 0 -1.75352e+06 778614 0 -1.76843e+06 816139 0 -1.78366e+06 854124 0 -1.79916e+06 892573 0 -1.81488e+06 931482 0 -1.83074e+06 970841 0 -1.84667e+06 1.01063e+06 0 -1.86258e+06 1.05081e+06 0 -1.87839e+06 1.09133e+06 0 -1.894e+06 1.13212e+06 0 -1.90929e+06 1.1731e+06 0 -1.92416e+06 1.21413e+06 0 -1.93849e+06 1.25507e+06 0 -1.95217e+06 1.29572e+06 0 -1.96508e+06 1.33583e+06 0 -1.97715e+06 1.37512e+06 0 -1.98829e+06 1.41324e+06 0 -1.99848e+06 1.44977e+06 0 -2.00775e+06 1.48426e+06 0 -2.01617e+06 1.51617e+06 0 -2.02392e+06 1.54493e+06 0 -2.03126e+06 1.56993e+06 0 -2.03857e+06 1.59052e+06 0 -2.04633e+06 1.60608e+06 0 -2.05514e+06 1.616e+06 0 -2.06571e+06 1.61969e+06 0 -2.0788e+06 1.61667e+06 0 -2.09527e+06 1.60652e+06 0 -2.11596e+06 1.58892e+06 0 -2.14172e+06 1.56367e+06 0 -2.17335e+06 1.53069e+06 0 -2.21154e+06 1.4901e+06 0 -2.25684e+06 1.44229e+06 0 -2.30957e+06 1.38815e+06 0 -2.36979e+06 1.32939e+06 0 -2.43718e+06 1.26997e+06 0 -2.51003e+06 1.21621e+06 0 -2.58927e+06 1.18884e+06 0 -2.65354e+06 1.21792e+06 0 -2.70345e+06 1.46107e+06 0 -2.17551e+06 1.92021e+06 0 -1.5463e+06 0 0 -1.5481e+06 32637.1 0 -1.55052e+06 65239.4 0 -1.55359e+06 97829.5 0 -1.55728e+06 130430 0 -1.56161e+06 163063 0 -1.56658e+06 195752 0 -1.57218e+06 228520 0 -1.57842e+06 261389 0 -1.58528e+06 294383 0 -1.59277e+06 327525 0 -1.60089e+06 360839 0 -1.60962e+06 394347 0 -1.61896e+06 428074 0 -1.6289e+06 462042 0 -1.63943e+06 496275 0 -1.65053e+06 530796 0 -1.6622e+06 565627 0 -1.67442e+06 600790 0 -1.68716e+06 636308 0 -1.7004e+06 672200 0 -1.71413e+06 708485 0 -1.72829e+06 745181 0 -1.74287e+06 782301 0 -1.75783e+06 819858 0 -1.77311e+06 857859 0 -1.78866e+06 896306 0 -1.80444e+06 935195 0 -1.82036e+06 974514 0 -1.83637e+06 1.01424e+06 0 -1.85238e+06 1.05434e+06 0 -1.86831e+06 1.09476e+06 0 -1.88405e+06 1.13543e+06 0 -1.89951e+06 1.17626e+06 0 -1.91457e+06 1.21713e+06 0 -1.92914e+06 1.25788e+06 0 -1.9431e+06 1.29832e+06 0 -1.95635e+06 1.33822e+06 0 -1.96882e+06 1.37728e+06 0 -1.98043e+06 1.41518e+06 0 -1.99117e+06 1.4515e+06 0 -2.00106e+06 1.4858e+06 0 -2.01019e+06 1.51755e+06 0 -2.01873e+06 1.54621e+06 0 -2.02695e+06 1.57117e+06 0 -2.03521e+06 1.59182e+06 0 -2.04398e+06 1.60752e+06 0 -2.05386e+06 1.61768e+06 0 -2.06551e+06 1.62174e+06 0 -2.07972e+06 1.6192e+06 0 -2.09728e+06 1.60963e+06 0 -2.11904e+06 1.5927e+06 0 -2.14583e+06 1.5682e+06 0 -2.17841e+06 1.53603e+06 0 -2.21745e+06 1.49628e+06 0 -2.26347e+06 1.44929e+06 0 -2.31668e+06 1.39592e+06 0 -2.37706e+06 1.33783e+06 0 -2.44389e+06 1.27879e+06 0 -2.5154e+06 1.22536e+06 0 -2.58941e+06 1.19674e+06 0 -2.64645e+06 1.22388e+06 0 -2.66104e+06 1.44138e+06 0 -2.14063e+06 1.8039e+06 0 -1.53368e+06 0 0 -1.53563e+06 32875.5 0 -1.53821e+06 65711.2 0 -1.54141e+06 98529.2 0 -1.54523e+06 131352 0 -1.54969e+06 164201 0 -1.55477e+06 197101 0 -1.56048e+06 230072 0 -1.56682e+06 263138 0 -1.57378e+06 296323 0 -1.58136e+06 329647 0 -1.58955e+06 363136 0 -1.59836e+06 396812 0 -1.60777e+06 430697 0 -1.61777e+06 464815 0 -1.62836e+06 499189 0 -1.63953e+06 533842 0 -1.65125e+06 568794 0 -1.66352e+06 604069 0 -1.67631e+06 639686 0 -1.6896e+06 675666 0 -1.70337e+06 712026 0 -1.71758e+06 748783 0 -1.73221e+06 785952 0 -1.74721e+06 823541 0 -1.76254e+06 861559 0 -1.77815e+06 900006 0 -1.79399e+06 938878 0 -1.80999e+06 978160 0 -1.82608e+06 1.01783e+06 0 -1.84219e+06 1.05785e+06 0 -1.85823e+06 1.09818e+06 0 -1.87411e+06 1.13873e+06 0 -1.88974e+06 1.17942e+06 0 -1.90501e+06 1.22013e+06 0 -1.91982e+06 1.2607e+06 0 -1.93407e+06 1.30095e+06 0 -1.94766e+06 1.34065e+06 0 -1.96052e+06 1.3795e+06 0 -1.9726e+06 1.41719e+06 0 -1.98388e+06 1.45332e+06 0 -1.99439e+06 1.48744e+06 0 -2.00422e+06 1.51906e+06 0 -2.01355e+06 1.54763e+06 0 -2.02262e+06 1.57257e+06 0 -2.03181e+06 1.59327e+06 0 -2.04158e+06 1.60913e+06 0 -2.0525e+06 1.61955e+06 0 -2.06523e+06 1.62397e+06 0 -2.08053e+06 1.6219e+06 0 -2.09917e+06 1.61291e+06 0 -2.12199e+06 1.59665e+06 0 -2.14979e+06 1.5729e+06 0 -2.18332e+06 1.54152e+06 0 -2.22322e+06 1.50259e+06 0 -2.26994e+06 1.4564e+06 0 -2.32366e+06 1.40376e+06 0 -2.38422e+06 1.34629e+06 0 -2.45056e+06 1.28754e+06 0 -2.52068e+06 1.23418e+06 0 -2.58997e+06 1.20398e+06 0 -2.63954e+06 1.22794e+06 0 -2.62454e+06 1.41877e+06 0 -2.11785e+06 1.70202e+06 0 -1.52097e+06 0 0 -1.52308e+06 33110.7 0 -1.5258e+06 66176.6 0 -1.52914e+06 99219.6 0 -1.5331e+06 132262 0 -1.53768e+06 165325 0 -1.54288e+06 198432 0 -1.5487e+06 231605 0 -1.55514e+06 264866 0 -1.5622e+06 298238 0 -1.56987e+06 331744 0 -1.57815e+06 365406 0 -1.58703e+06 399247 0 -1.59652e+06 433290 0 -1.60659e+06 467557 0 -1.61725e+06 502071 0 -1.62847e+06 536853 0 -1.64025e+06 571926 0 -1.65257e+06 607311 0 -1.66542e+06 643027 0 -1.67876e+06 679094 0 -1.69257e+06 715530 0 -1.70684e+06 752349 0 -1.72151e+06 789566 0 -1.73656e+06 827189 0 -1.75195e+06 865225 0 -1.76762e+06 903674 0 -1.78353e+06 942531 0 -1.79961e+06 981780 0 -1.81579e+06 1.0214e+06 0 -1.832e+06 1.06135e+06 0 -1.84817e+06 1.10158e+06 0 -1.8642e+06 1.14202e+06 0 -1.88e+06 1.18258e+06 0 -1.89547e+06 1.22314e+06 0 -1.91052e+06 1.26355e+06 0 -1.92506e+06 1.30362e+06 0 -1.939e+06 1.34312e+06 0 -1.95226e+06 1.38178e+06 0 -1.96481e+06 1.41927e+06 0 -1.97662e+06 1.45522e+06 0 -1.98774e+06 1.48918e+06 0 -1.99826e+06 1.52068e+06 0 -2.00836e+06 1.54918e+06 0 -2.01828e+06 1.57411e+06 0 -2.02838e+06 1.59489e+06 0 -2.03913e+06 1.6109e+06 0 -2.05107e+06 1.62158e+06 0 -2.06486e+06 1.62637e+06 0 -2.08123e+06 1.62477e+06 0 -2.10094e+06 1.61636e+06 0 -2.12481e+06 1.60077e+06 0 -2.15361e+06 1.57775e+06 0 -2.18808e+06 1.54716e+06 0 -2.22883e+06 1.50903e+06 0 -2.27628e+06 1.46362e+06 0 -2.33052e+06 1.41167e+06 0 -2.39128e+06 1.35475e+06 0 -2.4572e+06 1.29622e+06 0 -2.52593e+06 1.2427e+06 0 -2.59098e+06 1.21061e+06 0 -2.63307e+06 1.23024e+06 0 -2.59373e+06 1.39432e+06 0 -2.10426e+06 1.61146e+06 0 -1.50816e+06 0 0 -1.51043e+06 33342.7 0 -1.51331e+06 66635.9 0 -1.51679e+06 99901 0 -1.52088e+06 133160 0 -1.52559e+06 166434 0 -1.53091e+06 199746 0 -1.53684e+06 233118 0 -1.54339e+06 266572 0 -1.55055e+06 300130 0 -1.55831e+06 333815 0 -1.56668e+06 367648 0 -1.57565e+06 401653 0 -1.58521e+06 435852 0 -1.59536e+06 470266 0 -1.60608e+06 504919 0 -1.61737e+06 539831 0 -1.62921e+06 575023 0 -1.64159e+06 610517 0 -1.65448e+06 646332 0 -1.66788e+06 682487 0 -1.68175e+06 718998 0 -1.69606e+06 755879 0 -1.71079e+06 793145 0 -1.7259e+06 830803 0 -1.74134e+06 868859 0 -1.75708e+06 907312 0 -1.77306e+06 946155 0 -1.78922e+06 985374 0 -1.8055e+06 1.02494e+06 0 -1.82182e+06 1.06483e+06 0 -1.83811e+06 1.10497e+06 0 -1.85429e+06 1.14531e+06 0 -1.87027e+06 1.18575e+06 0 -1.88595e+06 1.22616e+06 0 -1.90125e+06 1.26641e+06 0 -1.91608e+06 1.30631e+06 0 -1.93036e+06 1.34563e+06 0 -1.94402e+06 1.38411e+06 0 -1.95703e+06 1.42143e+06 0 -1.96938e+06 1.4572e+06 0 -1.9811e+06 1.49103e+06 0 -1.99231e+06 1.52242e+06 0 -2.00316e+06 1.55086e+06 0 -2.01391e+06 1.5758e+06 0 -2.02492e+06 1.59665e+06 0 -2.03662e+06 1.61284e+06 0 -2.04957e+06 1.62378e+06 0 -2.0644e+06 1.62894e+06 0 -2.08182e+06 1.62782e+06 0 -2.10258e+06 1.61998e+06 0 -2.12748e+06 1.60505e+06 0 -2.15729e+06 1.58276e+06 0 -2.1927e+06 1.55294e+06 0 -2.2343e+06 1.5156e+06 0 -2.28248e+06 1.47095e+06 0 -2.33726e+06 1.41966e+06 0 -2.39824e+06 1.36324e+06 0 -2.46382e+06 1.30483e+06 0 -2.5312e+06 1.25093e+06 0 -2.59242e+06 1.21667e+06 0 -2.62729e+06 1.23098e+06 0 -2.56828e+06 1.36881e+06 0 -2.0978e+06 1.53001e+06 0 -1.49527e+06 0 0 -1.4977e+06 33571.7 0 -1.50073e+06 67089 0 -1.50436e+06 100573 0 -1.50859e+06 134046 0 -1.51342e+06 167529 0 -1.51887e+06 201044 0 -1.52491e+06 234613 0 -1.53157e+06 268257 0 -1.53883e+06 301999 0 -1.54669e+06 335860 0 -1.55515e+06 369863 0 -1.5642e+06 404031 0 -1.57384e+06 438384 0 -1.58406e+06 472944 0 -1.59486e+06 507734 0 -1.60621e+06 542775 0 -1.61812e+06 578086 0 -1.63055e+06 613689 0 -1.64351e+06 649603 0 -1.65696e+06 685844 0 -1.67088e+06 722430 0 -1.68526e+06 759375 0 -1.70004e+06 796690 0 -1.71521e+06 834384 0 -1.73072e+06 872461 0 -1.74653e+06 910920 0 -1.76258e+06 949753 0 -1.77883e+06 988945 0 -1.7952e+06 1.02847e+06 0 -1.81164e+06 1.06829e+06 0 -1.82806e+06 1.10836e+06 0 -1.8444e+06 1.14859e+06 0 -1.86056e+06 1.18891e+06 0 -1.87645e+06 1.2292e+06 0 -1.89201e+06 1.2693e+06 0 -1.90713e+06 1.30904e+06 0 -1.92175e+06 1.34819e+06 0 -1.93581e+06 1.3865e+06 0 -1.94928e+06 1.42365e+06 0 -1.96215e+06 1.45927e+06 0 -1.97448e+06 1.49297e+06 0 -1.98635e+06 1.52427e+06 0 -1.99795e+06 1.55266e+06 0 -2.00952e+06 1.57762e+06 0 -2.02141e+06 1.59856e+06 0 -2.03406e+06 1.61493e+06 0 -2.048e+06 1.62615e+06 0 -2.06385e+06 1.63168e+06 0 -2.0823e+06 1.63103e+06 0 -2.10411e+06 1.62376e+06 0 -2.13003e+06 1.60948e+06 0 -2.16081e+06 1.58792e+06 0 -2.19716e+06 1.55887e+06 0 -2.23962e+06 1.52229e+06 0 -2.28853e+06 1.47838e+06 0 -2.34388e+06 1.42773e+06 0 -2.40512e+06 1.37174e+06 0 -2.47044e+06 1.31339e+06 0 -2.53655e+06 1.2589e+06 0 -2.59434e+06 1.22221e+06 0 -2.62242e+06 1.23036e+06 0 -2.54778e+06 1.34281e+06 0 -2.09699e+06 1.45605e+06 0 -1.48229e+06 0 0 -1.48488e+06 33797.5 0 -1.48806e+06 67536 0 -1.49184e+06 101237 0 -1.49621e+06 134921 0 -1.50118e+06 168610 0 -1.50675e+06 202325 0 -1.51291e+06 236088 0 -1.51968e+06 269921 0 -1.52704e+06 303844 0 -1.535e+06 337881 0 -1.54355e+06 372052 0 -1.55269e+06 406380 0 -1.56241e+06 440886 0 -1.57271e+06 475592 0 -1.58358e+06 510518 0 -1.59501e+06 545686 0 -1.60698e+06 581116 0 -1.61948e+06 616827 0 -1.6325e+06 652838 0 -1.64601e+06 689166 0 -1.65999e+06 725828 0 -1.67442e+06 762836 0 -1.68927e+06 800202 0 -1.7045e+06 837933 0 -1.72008e+06 876032 0 -1.73596e+06 914499 0 -1.7521e+06 953324 0 -1.76843e+06 992492 0 -1.78491e+06 1.03198e+06 0 -1.80146e+06 1.07174e+06 0 -1.81802e+06 1.11173e+06 0 -1.83452e+06 1.15187e+06 0 -1.85086e+06 1.19208e+06 0 -1.86697e+06 1.23224e+06 0 -1.88278e+06 1.2722e+06 0 -1.89819e+06 1.31179e+06 0 -1.91316e+06 1.35079e+06 0 -1.92762e+06 1.38894e+06 0 -1.94154e+06 1.42594e+06 0 -1.95494e+06 1.46143e+06 0 -1.96785e+06 1.49501e+06 0 -1.98039e+06 1.52622e+06 0 -1.99273e+06 1.55459e+06 0 -2.0051e+06 1.57957e+06 0 -2.01786e+06 1.60062e+06 0 -2.03144e+06 1.61718e+06 0 -2.04635e+06 1.62868e+06 0 -2.0632e+06 1.63459e+06 0 -2.08267e+06 1.63441e+06 0 -2.1055e+06 1.6277e+06 0 -2.13243e+06 1.61408e+06 0 -2.1642e+06 1.59322e+06 0 -2.20147e+06 1.56493e+06 0 -2.24479e+06 1.52912e+06 0 -2.29446e+06 1.48592e+06 0 -2.35039e+06 1.43588e+06 0 -2.41192e+06 1.38028e+06 0 -2.47705e+06 1.3219e+06 0 -2.542e+06 1.26665e+06 0 -2.59673e+06 1.22728e+06 0 -2.61859e+06 1.22862e+06 0 -2.53183e+06 1.31674e+06 0 -2.10075e+06 1.38837e+06 0 -1.46922e+06 0 0 -1.47198e+06 34020.2 0 -1.47532e+06 67977.1 0 -1.47924e+06 101892 0 -1.48375e+06 135784 0 -1.48886e+06 169677 0 -1.49455e+06 203590 0 -1.50084e+06 237545 0 -1.50771e+06 271564 0 -1.51518e+06 305667 0 -1.52324e+06 339877 0 -1.53189e+06 374215 0 -1.54112e+06 408702 0 -1.55093e+06 443359 0 -1.56131e+06 478208 0 -1.57225e+06 513270 0 -1.58375e+06 548565 0 -1.59579e+06 584112 0 -1.60836e+06 619931 0 -1.62144e+06 656039 0 -1.63502e+06 692455 0 -1.64906e+06 729192 0 -1.66356e+06 766264 0 -1.67847e+06 803681 0 -1.69377e+06 841450 0 -1.70942e+06 879574 0 -1.72538e+06 918050 0 -1.7416e+06 956870 0 -1.75803e+06 996017 0 -1.77461e+06 1.03546e+06 0 -1.79129e+06 1.07517e+06 0 -1.80799e+06 1.11509e+06 0 -1.82464e+06 1.15515e+06 0 -1.84117e+06 1.19526e+06 0 -1.85751e+06 1.2353e+06 0 -1.87357e+06 1.27513e+06 0 -1.88928e+06 1.31458e+06 0 -1.90459e+06 1.35343e+06 0 -1.91944e+06 1.39144e+06 0 -1.93382e+06 1.42829e+06 0 -1.94774e+06 1.46366e+06 0 -1.96124e+06 1.49714e+06 0 -1.97443e+06 1.52829e+06 0 -1.98748e+06 1.55664e+06 0 -2.00065e+06 1.58166e+06 0 -2.01427e+06 1.60283e+06 0 -2.02875e+06 1.61957e+06 0 -2.04462e+06 1.63136e+06 0 -2.06245e+06 1.63765e+06 0 -2.08293e+06 1.63795e+06 0 -2.10677e+06 1.63181e+06 0 -2.1347e+06 1.61883e+06 0 -2.16744e+06 1.59868e+06 0 -2.20564e+06 1.57114e+06 0 -2.24982e+06 1.53607e+06 0 -2.30025e+06 1.49358e+06 0 -2.35679e+06 1.44412e+06 0 -2.41865e+06 1.38886e+06 0 -2.48367e+06 1.33038e+06 0 -2.54759e+06 1.27421e+06 0 -2.59963e+06 1.23194e+06 0 -2.61593e+06 1.22595e+06 0 -2.52004e+06 1.2909e+06 0 -2.10832e+06 1.32605e+06 0 -1.45606e+06 0 0 -1.45899e+06 34239.9 0 -1.46249e+06 68412.2 0 -1.46656e+06 102538 0 -1.47122e+06 136636 0 -1.47646e+06 170730 0 -1.48228e+06 204838 0 -1.48869e+06 238984 0 -1.49568e+06 273186 0 -1.50326e+06 307468 0 -1.51142e+06 341849 0 -1.52017e+06 376352 0 -1.52949e+06 410996 0 -1.53939e+06 445804 0 -1.54985e+06 480795 0 -1.56087e+06 515991 0 -1.57245e+06 551411 0 -1.58456e+06 587075 0 -1.5972e+06 623002 0 -1.61035e+06 659208 0 -1.62399e+06 695710 0 -1.6381e+06 732523 0 -1.65266e+06 769659 0 -1.66765e+06 807128 0 -1.68302e+06 844937 0 -1.69874e+06 883086 0 -1.71478e+06 921575 0 -1.73109e+06 960392 0 -1.74762e+06 999520 0 -1.76431e+06 1.03893e+06 0 -1.78111e+06 1.07859e+06 0 -1.79796e+06 1.11845e+06 0 -1.81478e+06 1.15842e+06 0 -1.8315e+06 1.19843e+06 0 -1.84805e+06 1.23837e+06 0 -1.86437e+06 1.27808e+06 0 -1.88038e+06 1.3174e+06 0 -1.89603e+06 1.35612e+06 0 -1.91128e+06 1.39399e+06 0 -1.92611e+06 1.43072e+06 0 -1.94054e+06 1.46597e+06 0 -1.95462e+06 1.49936e+06 0 -1.96845e+06 1.53046e+06 0 -1.98222e+06 1.55881e+06 0 -1.99617e+06 1.58388e+06 0 -2.01062e+06 1.60517e+06 0 -2.026e+06 1.62212e+06 0 -2.0428e+06 1.63419e+06 0 -2.06161e+06 1.64087e+06 0 -2.08308e+06 1.64164e+06 0 -2.10791e+06 1.63607e+06 0 -2.13683e+06 1.62373e+06 0 -2.17053e+06 1.60429e+06 0 -2.20966e+06 1.57748e+06 0 -2.25471e+06 1.54315e+06 0 -2.30591e+06 1.50134e+06 0 -2.36308e+06 1.45244e+06 0 -2.42533e+06 1.39749e+06 0 -2.4903e+06 1.33884e+06 0 -2.55336e+06 1.2816e+06 0 -2.60305e+06 1.23624e+06 0 -2.61451e+06 1.22255e+06 0 -2.51203e+06 1.26554e+06 0 -2.11909e+06 1.26838e+06 0 -1.44283e+06 0 0 -1.44592e+06 34456.7 0 -1.44958e+06 68841.5 0 -1.45381e+06 103175 0 -1.45861e+06 137477 0 -1.46398e+06 171769 0 -1.46994e+06 206071 0 -1.47647e+06 240404 0 -1.48358e+06 274789 0 -1.49127e+06 309246 0 -1.49954e+06 343797 0 -1.50839e+06 378463 0 -1.5178e+06 413263 0 -1.52779e+06 448220 0 -1.53834e+06 483353 0 -1.54944e+06 518682 0 -1.5611e+06 554227 0 -1.57328e+06 590007 0 -1.58599e+06 626040 0 -1.59921e+06 662343 0 -1.61293e+06 698932 0 -1.62711e+06 735821 0 -1.64174e+06 773023 0 -1.65679e+06 810545 0 -1.67224e+06 848394 0 -1.68804e+06 886571 0 -1.70417e+06 925073 0 -1.72057e+06 963890 0 -1.7372e+06 1.003e+06 0 -1.75401e+06 1.04239e+06 0 -1.77094e+06 1.082e+06 0 -1.78793e+06 1.12179e+06 0 -1.80492e+06 1.1617e+06 0 -1.82183e+06 1.20162e+06 0 -1.83861e+06 1.24145e+06 0 -1.85518e+06 1.28105e+06 0 -1.87149e+06 1.32025e+06 0 -1.88749e+06 1.35885e+06 0 -1.90313e+06 1.39659e+06 0 -1.91841e+06 1.43321e+06 0 -1.93334e+06 1.46836e+06 0 -1.94799e+06 1.50168e+06 0 -1.96246e+06 1.53274e+06 0 -1.97694e+06 1.56109e+06 0 -1.99165e+06 1.58623e+06 0 -2.00693e+06 1.60764e+06 0 -2.02318e+06 1.62481e+06 0 -2.04091e+06 1.63718e+06 0 -2.06067e+06 1.64424e+06 0 -2.08311e+06 1.64549e+06 0 -2.10893e+06 1.64048e+06 0 -2.13882e+06 1.62878e+06 0 -2.17348e+06 1.61003e+06 0 -2.21354e+06 1.58396e+06 0 -2.25945e+06 1.55036e+06 0 -2.31144e+06 1.50922e+06 0 -2.36927e+06 1.46085e+06 0 -2.43194e+06 1.40617e+06 0 -2.49697e+06 1.34729e+06 0 -2.5593e+06 1.28886e+06 0 -2.60701e+06 1.24024e+06 0 -2.61437e+06 1.2186e+06 0 -2.50747e+06 1.24082e+06