<?xml version="1.0"?> 
<VTKFile type="StructuredGrid" version="0.1"> 
<StructuredGrid WholeExtent="0 63 0 63 0 0"> 
<Piece Extent="0 63 0 63 0 0"> 
<PointData>
<DataArray type="Float32" Name="|E|" format="ascii" NumberOfComponents="3"> 
1.00001e+06 -415845 0 1.3305e+06 -304366 0 1.4403e+06 -286841 0 1.54293e+06 -249148 0 1.61477e+06 -211077 0 1.67403e+06 -171178 0 1.71784e+06 -131767 0 1.74923e+06 -93638.1 0 1.76858e+06 -57681.1 0 1.7772e+06 -24517.3 0 1.77616e+06 5424.25 0 1.76669e+06 31910.6 0 1.74999e+06 54885.4 0 1.72722e+06 74431.8 0 1.69945e+06 90736.2 0 1.66766e+06 104051 0 1.63269e+06 114667 0 1.59532e+06 122884 0 1.55619e+06 129003 0 1.51584e+06 133305 0 1.47475e+06 136051 0 1.43331e+06 137478 0 1.39184e+06 137795 0 1.35061e+06 137185 0 1.30985e+06 135809 0 1.26973e+06 133803 0 1.2304e+06 131284 0 1.19197e+06 128354 0 1.15454e+06 125097 0 1.11818e+06 121584 0 1.08294e+06 117875 0 1.04886e+06 114020 0 1.01597e+06 110061 0 984284 106031 0 953812 101960 0 924559 97871.5 0 896523 93783.3 0 869696 89711 0 844070 85666.8 0 819631 81660.1 0 796366 77698.3 0 774258 73786.7 0 753291 69929.3 0 733447 66128.5 0 714707 62385.8 0 697054 58701.7 0 680471 55075.8 0 664938 51507.1 0 650439 47994.2 0 636959 44535 0 624479 41127.1 0 612987 37767.9 0 602467 34454.4 0 592907 31183.3 0 584294 27951.2 0 576617 24754.6 0 569867 21589.9 0 564034 18453.1 0 559111 15340.5 0 555090 12248.1 0 551967 9171.92 0 549738 6107.88 0 548398 3051.93 0 547948 0 0 1.02542e+06 -426413 0 1.33241e+06 -314928 0 1.4455e+06 -291907 0 1.54656e+06 -253051 0 1.6185e+06 -213854 0 1.67729e+06 -173155 0 1.7208e+06 -133024 0 1.75181e+06 -94260.4 0 1.77079e+06 -57739.1 0 1.77903e+06 -24081.9 0 1.77762e+06 6282.8 0 1.76781e+06 33124.8 0 1.7508e+06 56392.4 0 1.72775e+06 76174.6 0 1.69974e+06 92664.4 0 1.66773e+06 106121 0 1.63259e+06 116841 0 1.59507e+06 125131 0 1.55582e+06 131295 0 1.51538e+06 135621 0 1.47421e+06 138373 0 1.43271e+06 139790 0 1.39121e+06 140085 0 1.34995e+06 139442 0 1.30917e+06 138025 0 1.26905e+06 135971 0 1.22972e+06 133400 0 1.1913e+06 130413 0 1.15388e+06 127096 0 1.11754e+06 123520 0 1.08231e+06 119747 0 1.04825e+06 115827 0 1.01538e+06 111802 0 983717 107706 0 953268 103569 0 924038 99414.1 0 896025 95260.3 0 869221 91123 0 843617 87014.4 0 819200 82944.2 0 795956 78919.8 0 773869 74946.5 0 752921 71028.3 0 733095 67167.7 0 714374 63366.2 0 696738 59624.2 0 680170 55941.3 0 664653 52316.6 0 650168 48748.5 0 636701 45235 0 624234 41773.7 0 612753 38361.7 0 602243 34996.1 0 592692 31673.6 0 584088 28390.8 0 576419 25144 0 569675 21929.5 0 563848 18743.4 0 558929 15581.9 0 554913 12440.8 0 551793 9316.22 0 549566 6203.97 0 548228 3099.95 0 547778 0 0 1.04897e+06 -436207 0 1.33511e+06 -324925 0 1.45064e+06 -296957 0 1.55029e+06 -256898 0 1.62227e+06 -216597 0 1.68059e+06 -175097 0 1.7238e+06 -134247 0 1.75442e+06 -94849.7 0 1.77302e+06 -57765.3 0 1.78087e+06 -23616.6 0 1.7791e+06 7168.92 0 1.76895e+06 34363.9 0 1.75162e+06 57921.3 0 1.72829e+06 77936.4 0 1.70003e+06 94608.8 0 1.66781e+06 108205 0 1.63249e+06 119026 0 1.59482e+06 127387 0 1.55545e+06 133595 0 1.51491e+06 137943 0 1.47367e+06 140699 0 1.43212e+06 142105 0 1.39057e+06 142376 0 1.34929e+06 141700 0 1.3085e+06 140241 0 1.26837e+06 138140 0 1.22904e+06 135515 0 1.19063e+06 132471 0 1.15322e+06 129094 0 1.11689e+06 125456 0 1.08168e+06 121618 0 1.04764e+06 117633 0 1.01479e+06 113542 0 983147 109380 0 952721 105176 0 923513 100955 0 895523 96735.9 0 868742 92533.6 0 843160 88360.8 0 818765 84227.1 0 795542 80140.1 0 773475 76105.1 0 752548 72126.2 0 732741 68205.9 0 714037 64345.5 0 696418 60545.7 0 679867 56805.9 0 664364 53125.2 0 649894 49502.1 0 636440 45934.3 0 623985 42419.5 0 612515 38954.9 0 602016 35537.3 0 592475 32163.5 0 583879 28829.9 0 576218 25532.9 0 569481 22268.7 0 563659 19033.4 0 558745 15822.9 0 554733 12633.3 0 551616 9460.38 0 549391 6299.97 0 548055 3147.92 0 547605 0 0 1.07088e+06 -445315 0 1.33849e+06 -334410 0 1.45575e+06 -301978 0 1.55413e+06 -260689 0 1.62606e+06 -219305 0 1.68394e+06 -177004 0 1.72682e+06 -135436 0 1.75705e+06 -95405.9 0 1.77527e+06 -57759.7 0 1.78274e+06 -23121.2 0 1.7806e+06 8082.75 0 1.77009e+06 35628 0 1.75245e+06 59472.3 0 1.72883e+06 79717.3 0 1.70032e+06 96569.5 0 1.66789e+06 110302 0 1.63239e+06 121223 0 1.59458e+06 129652 0 1.55508e+06 135903 0 1.51445e+06 140271 0 1.47314e+06 143030 0 1.43153e+06 144423 0 1.38994e+06 144670 0 1.34863e+06 143960 0 1.30782e+06 142459 0 1.26768e+06 140308 0 1.22835e+06 137631 0 1.18995e+06 134529 0 1.15255e+06 131091 0 1.11623e+06 127390 0 1.08104e+06 123489 0 1.04702e+06 119437 0 1.01419e+06 115280 0 982573 111052 0 952169 106782 0 922985 102495 0 895017 98210.2 0 868259 93942.9 0 842700 89705.8 0 818327 85508.7 0 795125 81359.1 0 773079 77262.5 0 752171 73223 0 732383 69242.9 0 713697 65323.9 0 696096 61466.2 0 679560 57669.6 0 664073 53933.1 0 649617 50254.8 0 636176 46632.9 0 623734 43064.7 0 612275 39547.5 0 601787 36078 0 592255 32652.9 0 583667 29268.6 0 576014 25921.5 0 569283 22607.6 0 563468 19323.1 0 558559 16063.8 0 554550 12825.6 0 551437 9604.38 0 549214 6395.88 0 547879 3195.84 0 547429 0 0 1.09132e+06 -453818 0 1.34244e+06 -343424 0 1.46084e+06 -306960 0 1.55806e+06 -264426 0 1.62989e+06 -221979 0 1.68732e+06 -178875 0 1.72988e+06 -136592 0 1.75971e+06 -95928.7 0 1.77754e+06 -57721.9 0 1.78462e+06 -22595.5 0 1.78211e+06 9024.45 0 1.77125e+06 36917.1 0 1.75328e+06 61045.5 0 1.72938e+06 81517.5 0 1.70062e+06 98546.6 0 1.66797e+06 112413 0 1.63229e+06 123431 0 1.59433e+06 131926 0 1.55471e+06 138217 0 1.51398e+06 142605 0 1.4726e+06 145364 0 1.43093e+06 146745 0 1.3893e+06 146966 0 1.34797e+06 146221 0 1.30714e+06 144677 0 1.26699e+06 142478 0 1.22766e+06 139746 0 1.18926e+06 136586 0 1.15188e+06 133088 0 1.11558e+06 129324 0 1.0804e+06 125357 0 1.0464e+06 121241 0 1.01359e+06 117017 0 981995 112723 0 951614 108387 0 922453 104034 0 894508 99683 0 867773 95350.8 0 842236 91049.5 0 817885 86789 0 794705 82576.9 0 772679 78418.8 0 751791 74318.6 0 732022 70278.9 0 713354 66301.2 0 695770 62385.8 0 679250 58532.5 0 663778 54740 0 649337 51006.8 0 635909 47330.8 0 623479 43709.2 0 612032 40139.4 0 601554 36618 0 592032 33141.7 0 583453 29706.8 0 575807 26309.6 0 569083 22946.2 0 563273 19612.5 0 558369 16304.4 0 554365 13017.7 0 551254 9748.24 0 549034 6491.68 0 547700 3243.71 0 547251 0 0 1.11048e+06 -461783 0 1.34687e+06 -352007 0 1.46594e+06 -311895 0 1.56207e+06 -268108 0 1.63375e+06 -224616 0 1.69075e+06 -180711 0 1.73296e+06 -137713 0 1.7624e+06 -96417.9 0 1.77984e+06 -57651.8 0 1.78653e+06 -22039.4 0 1.78363e+06 9994.19 0 1.77242e+06 38231.5 0 1.75413e+06 62640.8 0 1.72993e+06 83336.9 0 1.70092e+06 100540 0 1.66806e+06 114537 0 1.6322e+06 125650 0 1.59408e+06 134210 0 1.55434e+06 140539 0 1.51352e+06 144944 0 1.47205e+06 147703 0 1.43033e+06 149069 0 1.38866e+06 149264 0 1.3473e+06 148483 0 1.30646e+06 146896 0 1.2663e+06 144647 0 1.22697e+06 141861 0 1.18858e+06 138643 0 1.1512e+06 135083 0 1.11491e+06 131256 0 1.07976e+06 127225 0 1.04578e+06 123043 0 1.01299e+06 118753 0 981414 114392 0 951055 109990 0 921917 105571 0 893996 101155 0 867283 96757.3 0 841769 92391.9 0 817440 88068 0 794281 83793.5 0 772276 79573.8 0 751407 75413 0 731657 71313.8 0 713008 67277.4 0 695441 63304.4 0 678937 59394.4 0 663481 55546.1 0 649054 51758 0 635639 48027.9 0 623222 44353.1 0 611786 40730.7 0 601318 37157.5 0 591806 33630 0 583236 30144.6 0 575597 26697.4 0 568880 23284.4 0 563076 19901.6 0 558177 16544.7 0 554177 13209.6 0 551069 9891.96 0 548851 6587.39 0 547518 3291.53 0 547070 0 0 1.12848e+06 -469271 0 1.35173e+06 -360194 0 1.47105e+06 -316774 0 1.56616e+06 -271738 0 1.63764e+06 -227217 0 1.69421e+06 -182510 0 1.73607e+06 -138800 0 1.76511e+06 -96873.3 0 1.78216e+06 -57549.1 0 1.78845e+06 -21452.7 0 1.78517e+06 10992.1 0 1.7736e+06 39571.3 0 1.75498e+06 64258.6 0 1.7305e+06 85175.6 0 1.70123e+06 102550 0 1.66814e+06 116676 0 1.6321e+06 127881 0 1.59383e+06 136502 0 1.55397e+06 142869 0 1.51305e+06 147289 0 1.47151e+06 150047 0 1.42973e+06 151397 0 1.38802e+06 151565 0 1.34663e+06 150747 0 1.30577e+06 149116 0 1.26561e+06 146817 0 1.22628e+06 143976 0 1.18789e+06 140699 0 1.15052e+06 137078 0 1.11425e+06 133188 0 1.07911e+06 129092 0 1.04515e+06 124844 0 1.01238e+06 120488 0 980829 116060 0 950493 111592 0 921378 107106 0 893480 102625 0 866790 98162.5 0 841298 93732.9 0 816991 89345.8 0 793854 85008.8 0 771869 80727.7 0 751020 76506.4 0 731290 72347.6 0 712658 68252.7 0 695108 64222.1 0 678621 60255.4 0 663180 56351.4 0 648767 52508.4 0 635366 48724.3 0 622961 44996.3 0 611537 41321.4 0 601080 37696.5 0 591577 34117.9 0 583015 30581.9 0 575385 27084.7 0 568674 23622.3 0 562876 20190.4 0 557982 16784.8 0 553986 13401.3 0 550882 10035.5 0 548665 6682.99 0 547334 3339.31 0 546886 0 0 1.14547e+06 -476334 0 1.35693e+06 -368016 0 1.47617e+06 -321594 0 1.57033e+06 -275314 0 1.64156e+06 -229780 0 1.69771e+06 -184274 0 1.73921e+06 -139851 0 1.76785e+06 -97294.5 0 1.7845e+06 -57413.7 0 1.79038e+06 -20835.1 0 1.78672e+06 12018.4 0 1.77479e+06 40936.5 0 1.75584e+06 65898.8 0 1.73106e+06 87033.8 0 1.70154e+06 104577 0 1.66824e+06 118828 0 1.63201e+06 130123 0 1.59359e+06 138804 0 1.5536e+06 145205 0 1.51258e+06 149640 0 1.47096e+06 152395 0 1.42913e+06 153728 0 1.38737e+06 153868 0 1.34596e+06 153013 0 1.30508e+06 151336 0 1.26491e+06 148986 0 1.22558e+06 146090 0 1.18719e+06 142755 0 1.14984e+06 139072 0 1.11358e+06 135118 0 1.07846e+06 130957 0 1.04452e+06 126643 0 1.01177e+06 122221 0 980240 117727 0 949927 113192 0 920835 108641 0 892960 104093 0 866293 99566.4 0 840824 95072.6 0 816539 90622.2 0 793423 86222.9 0 771459 81880.3 0 750630 77598.6 0 730919 73380.3 0 712305 69226.9 0 694773 65138.8 0 678302 61115.5 0 662876 57155.8 0 648478 53258 0 635090 49419.9 0 622698 45638.7 0 611285 41911.5 0 600839 38234.8 0 591345 34605.2 0 582792 31018.8 0 575169 27471.7 0 568466 23959.8 0 562674 20478.9 0 557785 17024.7 0 553792 13592.8 0 550691 10178.9 0 548477 6778.5 0 547147 3387.03 0 546700 0 0 1.16154e+06 -483018 0 1.36243e+06 -375501 0 1.48132e+06 -326348 0 1.57457e+06 -278837 0 1.64552e+06 -232305 0 1.70124e+06 -186001 0 1.74238e+06 -140868 0 1.77062e+06 -97681.4 0 1.78686e+06 -57245.2 0 1.79234e+06 -20186.5 0 1.78829e+06 13073.1 0 1.77599e+06 42327.3 0 1.75671e+06 67561.5 0 1.73164e+06 88911.4 0 1.70185e+06 106620 0 1.66833e+06 120994 0 1.63192e+06 132377 0 1.59334e+06 141116 0 1.55323e+06 147550 0 1.51211e+06 151997 0 1.47042e+06 154747 0 1.42852e+06 156062 0 1.38673e+06 156173 0 1.34528e+06 155280 0 1.30438e+06 153558 0 1.26421e+06 151157 0 1.22488e+06 148205 0 1.1865e+06 144810 0 1.14916e+06 141066 0 1.11291e+06 137048 0 1.07781e+06 132822 0 1.04388e+06 128442 0 1.01116e+06 123953 0 979648 119392 0 949358 114791 0 920289 110174 0 892436 105561 0 865793 100969 0 840346 96411 0 816083 91897.4 0 792989 87435.7 0 771046 83031.8 0 750237 78689.6 0 730544 74412 0 711949 70200.1 0 694434 66054.5 0 677980 61974.6 0 662569 57959.4 0 648185 54006.9 0 634811 50114.8 0 622431 46280.6 0 611030 42500.9 0 600594 38772.6 0 591110 35092 0 582566 31455.2 0 574951 27858.2 0 568255 24296.9 0 562468 20767 0 557584 17264.3 0 553596 13784.1 0 550498 10322.2 0 548286 6873.91 0 546958 3434.7 0 546511 0 0 1.1768e+06 -489364 0 1.36819e+06 -382675 0 1.4865e+06 -331034 0 1.57888e+06 -282307 0 1.64952e+06 -234791 0 1.70482e+06 -187691 0 1.74558e+06 -141850 0 1.77341e+06 -98033.8 0 1.78924e+06 -57043.5 0 1.79431e+06 -19506.7 0 1.78987e+06 14156.5 0 1.7772e+06 43743.9 0 1.75759e+06 69246.9 0 1.73221e+06 90808.7 0 1.70217e+06 108679 0 1.66842e+06 123174 0 1.63182e+06 134642 0 1.5931e+06 143436 0 1.55286e+06 149901 0 1.51164e+06 154359 0 1.46987e+06 157104 0 1.42791e+06 158400 0 1.38608e+06 158480 0 1.3446e+06 157548 0 1.30369e+06 155780 0 1.2635e+06 153327 0 1.22417e+06 150319 0 1.1858e+06 146865 0 1.14847e+06 143058 0 1.11223e+06 138976 0 1.07715e+06 134685 0 1.04324e+06 130239 0 1.01054e+06 125684 0 979052 121056 0 948784 116388 0 919739 111705 0 891910 107027 0 865289 102370 0 839865 97748.1 0 815624 93171.2 0 792551 88647.3 0 770629 84182 0 749840 79779.6 0 730167 75442.5 0 711590 71172.3 0 694092 66969.2 0 677654 62832.9 0 662259 58762.1 0 647890 54754.9 0 634529 50809 0 622162 46921.7 0 610772 43089.8 0 600347 39309.9 0 590873 35578.3 0 582338 31891.1 0 574730 28244.3 0 568040 24633.7 0 562260 21054.9 0 557381 17503.6 0 553397 13975.2 0 550302 10465.3 0 548093 6969.22 0 546765 3482.32 0 546319 0 0 1.19133e+06 -495406 0 1.37415e+06 -389562 0 1.49172e+06 -335650 0 1.58324e+06 -285725 0 1.65355e+06 -237239 0 1.70843e+06 -189344 0 1.74881e+06 -142795 0 1.77622e+06 -98351.3 0 1.79164e+06 -56808.4 0 1.7963e+06 -18795.5 0 1.79146e+06 15268.7 0 1.77842e+06 45186.3 0 1.75847e+06 70955.1 0 1.7328e+06 92725.6 0 1.70249e+06 110756 0 1.66852e+06 125369 0 1.63173e+06 136919 0 1.59285e+06 145766 0 1.55249e+06 152260 0 1.51116e+06 156727 0 1.46932e+06 159465 0 1.4273e+06 160741 0 1.38542e+06 160790 0 1.34392e+06 159818 0 1.30299e+06 158003 0 1.26279e+06 155498 0 1.22346e+06 152433 0 1.18509e+06 148919 0 1.14777e+06 145050 0 1.11155e+06 140904 0 1.07649e+06 136547 0 1.0426e+06 132035 0 1.00992e+06 127413 0 978452 122719 0 948208 117985 0 919185 113235 0 891379 108491 0 864781 103770 0 839380 99083.8 0 815162 94443.8 0 792110 89857.6 0 770209 85331.1 0 749440 80868.3 0 729786 76472 0 711228 72143.4 0 693747 67883 0 677326 63690.2 0 661946 59563.9 0 647591 55502.1 0 634244 51502.4 0 621890 47562.1 0 610512 43678 0 600097 39846.5 0 590633 36064 0 582106 32326.6 0 574506 28630 0 567824 24970.1 0 562049 21342.5 0 557175 17742.7 0 553195 14166.2 0 550103 10608.3 0 547896 7064.42 0 546570 3529.9 0 546124 0 0 1.20521e+06 -501178 0 1.3803e+06 -396183 0 1.49697e+06 -340192 0 1.58767e+06 -289090 0 1.65762e+06 -239646 0 1.71207e+06 -190960 0 1.75207e+06 -143705 0 1.77907e+06 -98633.8 0 1.79406e+06 -56539.7 0 1.79831e+06 -18052.7 0 1.79306e+06 16409.9 0 1.77966e+06 46654.7 0 1.75936e+06 72686 0 1.73339e+06 94662.2 0 1.70282e+06 112849 0 1.66862e+06 127577 0 1.63164e+06 139207 0 1.5926e+06 148105 0 1.55211e+06 154627 0 1.51069e+06 159101 0 1.46876e+06 161830 0 1.42669e+06 163085 0 1.38477e+06 163101 0 1.34323e+06 162089 0 1.30229e+06 160227 0 1.26208e+06 157669 0 1.22275e+06 154547 0 1.18439e+06 150973 0 1.14708e+06 147041 0 1.11087e+06 142831 0 1.07582e+06 138408 0 1.04195e+06 133830 0 1.00929e+06 129141 0 977849 124380 0 947627 119579 0 918628 114764 0 890845 109954 0 864270 105168 0 838892 100418 0 814696 95715 0 791666 91066.6 0 769785 86478.9 0 749037 81955.9 0 729402 77500.3 0 710862 73113.5 0 693399 68795.8 0 676994 64546.7 0 661630 60364.9 0 647290 56248.5 0 633956 52195.1 0 621614 48201.8 0 610248 44265.5 0 599844 40382.6 0 590389 36549.3 0 581872 32761.6 0 574280 29015.3 0 567604 25306.2 0 561835 21629.8 0 556966 17981.5 0 552990 14356.9 0 549902 10751.1 0 547697 7159.53 0 546373 3577.42 0 545927 0 0 1.2185e+06 -506705 0 1.38659e+06 -402557 0 1.50225e+06 -344660 0 1.59216e+06 -292403 0 1.66172e+06 -242014 0 1.71575e+06 -192538 0 1.75536e+06 -144579 0 1.78193e+06 -98880.9 0 1.79651e+06 -56237.1 0 1.80033e+06 -17278.2 0 1.79468e+06 17580.2 0 1.7809e+06 48149.2 0 1.76026e+06 74439.9 0 1.73398e+06 96618.5 0 1.70314e+06 114959 0 1.66872e+06 129799 0 1.63155e+06 141506 0 1.59235e+06 150454 0 1.55174e+06 157000 0 1.51021e+06 161481 0 1.46821e+06 164200 0 1.42608e+06 165432 0 1.38411e+06 165416 0 1.34255e+06 164362 0 1.30158e+06 162451 0 1.26137e+06 159840 0 1.22203e+06 156661 0 1.18368e+06 153026 0 1.14637e+06 149031 0 1.11019e+06 144756 0 1.07515e+06 140268 0 1.0413e+06 135623 0 1.00866e+06 130868 0 977242 126040 0 947043 121173 0 918067 116291 0 890307 111416 0 863756 106565 0 838400 101751 0 814226 96985 0 791218 92274.4 0 769359 87625.5 0 748630 83042.4 0 729015 78527.6 0 710493 74082.5 0 693047 69707.6 0 676659 65402.1 0 661311 61165 0 646985 56994.1 0 633666 52887 0 621336 48840.9 0 609982 44852.5 0 599588 40918.1 0 590143 37034 0 581634 33196.1 0 574050 29400.2 0 567381 25641.9 0 561619 21916.7 0 556755 18220.1 0 552783 14547.4 0 549698 10893.8 0 547495 7254.53 0 546172 3624.89 0 545727 0 0 1.23127e+06 -512012 0 1.393e+06 -408701 0 1.50758e+06 -349053 0 1.5967e+06 -295663 0 1.66587e+06 -244342 0 1.71947e+06 -194079 0 1.75867e+06 -145416 0 1.78483e+06 -99092.5 0 1.79897e+06 -55900.3 0 1.80237e+06 -16471.6 0 1.79632e+06 18779.7 0 1.78215e+06 49669.9 0 1.76117e+06 76216.8 0 1.73458e+06 98594.8 0 1.70348e+06 117086 0 1.66883e+06 132035 0 1.63146e+06 143818 0 1.59211e+06 152812 0 1.55136e+06 159382 0 1.50973e+06 163866 0 1.46765e+06 166575 0 1.42546e+06 167782 0 1.38345e+06 167732 0 1.34185e+06 166636 0 1.30087e+06 164677 0 1.26065e+06 162012 0 1.22131e+06 158775 0 1.18296e+06 155079 0 1.14567e+06 151021 0 1.1095e+06 146681 0 1.07448e+06 142127 0 1.04065e+06 137415 0 1.00803e+06 132593 0 976631 127699 0 946455 122765 0 917502 117817 0 889766 112876 0 863238 107961 0 837905 103083 0 813753 98253.6 0 790767 93481 0 768928 88771 0 748220 84127.6 0 728624 79553.7 0 710121 75050.5 0 692693 70618.4 0 676321 66256.7 0 660989 61964.2 0 646678 57738.8 0 633372 53578.2 0 621055 49479.3 0 609712 45438.7 0 599330 41453 0 589894 37518.2 0 581394 33630.2 0 573818 29784.7 0 567156 25977.3 0 561400 22203.4 0 556541 18458.4 0 552573 14737.6 0 549491 11036.3 0 547291 7349.44 0 545969 3672.31 0 545524 0 0 1.24355e+06 -517121 0 1.39952e+06 -414632 0 1.51295e+06 -353370 0 1.60129e+06 -298871 0 1.67005e+06 -246629 0 1.72322e+06 -195582 0 1.76202e+06 -146216 0 1.78774e+06 -99268.3 0 1.80146e+06 -55529.3 0 1.80443e+06 -15632.9 0 1.79796e+06 20008.8 0 1.78341e+06 51216.9 0 1.76208e+06 78016.9 0 1.73518e+06 100591 0 1.70381e+06 119229 0 1.66893e+06 134285 0 1.63137e+06 146140 0 1.59186e+06 155179 0 1.55098e+06 161771 0 1.50925e+06 166258 0 1.46709e+06 168954 0 1.42484e+06 170136 0 1.38278e+06 170051 0 1.34116e+06 168912 0 1.30016e+06 166903 0 1.25993e+06 164184 0 1.22059e+06 160888 0 1.18224e+06 157131 0 1.14496e+06 153010 0 1.1088e+06 148605 0 1.0738e+06 143984 0 1.03999e+06 139206 0 1.00739e+06 134317 0 976017 129356 0 945864 124355 0 916934 119341 0 889221 114335 0 862716 109355 0 837406 104413 0 813277 99520.9 0 790312 94686.3 0 768495 89915.2 0 747807 85211.8 0 728230 80578.7 0 709746 76017.4 0 692335 71528.2 0 675980 67110.3 0 660663 62762.5 0 646367 58482.8 0 633075 54268.6 0 620771 50116.9 0 609440 46024.4 0 599068 41987.4 0 589643 38001.9 0 581151 34063.8 0 573583 30168.7 0 566928 26312.2 0 561178 22489.7 0 556324 18696.5 0 552360 14927.7 0 549281 11178.6 0 547083 7444.24 0 545763 3719.68 0 545319 0 0 1.25541e+06 -522051 0 1.40613e+06 -420363 0 1.51835e+06 -357611 0 1.60594e+06 -302027 0 1.67426e+06 -248875 0 1.72701e+06 -197047 0 1.76539e+06 -146980 0 1.79069e+06 -99408 0 1.80396e+06 -55123.6 0 1.8065e+06 -14761.9 0 1.79962e+06 21267.4 0 1.78468e+06 52790.5 0 1.763e+06 79840.1 0 1.73579e+06 102607 0 1.70415e+06 121390 0 1.66903e+06 136550 0 1.63129e+06 148475 0 1.59161e+06 157556 0 1.5506e+06 164167 0 1.50877e+06 168655 0 1.46653e+06 171337 0 1.42421e+06 172493 0 1.38212e+06 172372 0 1.34046e+06 171189 0 1.29944e+06 169130 0 1.2592e+06 166356 0 1.21986e+06 163001 0 1.18152e+06 159183 0 1.14425e+06 154997 0 1.1081e+06 150527 0 1.07312e+06 145841 0 1.03933e+06 140996 0 1.00675e+06 136040 0 975399 131012 0 945269 125944 0 916362 120864 0 888673 115793 0 862191 110748 0 836904 105742 0 812797 100787 0 789854 95890.3 0 768058 91058.1 0 747390 86294.7 0 727833 81602.7 0 709367 76983.3 0 691974 72437 0 675636 67963 0 660335 63560 0 646053 59226 0 632775 54958.3 0 620483 50753.9 0 609164 46609.4 0 598804 42521.1 0 589388 38485 0 580906 34496.9 0 573345 30552.4 0 566697 26646.9 0 560953 22775.8 0 556104 18934.3 0 552145 15117.6 0 549069 11320.8 0 546873 7538.94 0 545554 3767 0 545111 0 0 1.26687e+06 -526819 0 1.4128e+06 -425909 0 1.5238e+06 -361776 0 1.61063e+06 -305131 0 1.67851e+06 -251081 0 1.73083e+06 -198473 0 1.7688e+06 -147706 0 1.79365e+06 -99511.4 0 1.80649e+06 -54683.2 0 1.80859e+06 -13858.2 0 1.80129e+06 22555.7 0 1.78596e+06 54390.6 0 1.76392e+06 81686.7 0 1.7364e+06 104643 0 1.70448e+06 123567 0 1.66914e+06 138828 0 1.6312e+06 150821 0 1.59136e+06 159942 0 1.55022e+06 166571 0 1.50829e+06 171058 0 1.46596e+06 173724 0 1.42359e+06 174853 0 1.38144e+06 174695 0 1.33976e+06 173467 0 1.29872e+06 171358 0 1.25847e+06 168528 0 1.21913e+06 165115 0 1.1808e+06 161234 0 1.14354e+06 156985 0 1.1074e+06 152449 0 1.07244e+06 147696 0 1.03867e+06 142784 0 1.00611e+06 137761 0 974777 132666 0 944670 127532 0 915787 122386 0 888121 117249 0 861662 112139 0 836398 107070 0 812314 102052 0 789393 97093 0 767618 92199.9 0 746971 87376.5 0 727433 82625.5 0 708985 77948.2 0 691610 73344.8 0 675289 68814.8 0 660003 64356.6 0 645737 59968.3 0 632472 55647.2 0 620193 51390.1 0 608886 47193.8 0 598536 43054.3 0 589131 38967.6 0 580657 34929.5 0 573105 30935.6 0 566464 26981.1 0 560725 23061.5 0 555882 19171.9 0 551926 15307.3 0 548854 11462.9 0 546661 7633.53 0 545343 3814.27 0 544900 0 0 1.27798e+06 -531439 0 1.41954e+06 -431281 0 1.52928e+06 -365866 0 1.61537e+06 -308183 0 1.6828e+06 -253244 0 1.73468e+06 -199861 0 1.77223e+06 -148394 0 1.79665e+06 -99578.2 0 1.80904e+06 -54207.7 0 1.81069e+06 -12921.8 0 1.80297e+06 23874 0 1.78725e+06 56017.4 0 1.76485e+06 83556.6 0 1.73701e+06 106700 0 1.70483e+06 125762 0 1.66925e+06 141121 0 1.63111e+06 153179 0 1.59111e+06 162338 0 1.54984e+06 168982 0 1.5078e+06 173467 0 1.46539e+06 176117 0 1.42296e+06 177217 0 1.38077e+06 177021 0 1.33906e+06 175747 0 1.298e+06 173587 0 1.25774e+06 170701 0 1.2184e+06 167228 0 1.18007e+06 163285 0 1.14282e+06 158971 0 1.1067e+06 154370 0 1.07175e+06 149550 0 1.038e+06 144571 0 1.00546e+06 139481 0 974151 134319 0 944067 129118 0 915207 123906 0 887565 118704 0 861130 113529 0 835889 108396 0 811827 103315 0 788928 98294.4 0 767174 93340.4 0 746547 88457.1 0 727029 83647.2 0 708600 78911.9 0 691243 74251.6 0 674938 69665.6 0 659669 65152.4 0 645417 60709.8 0 632166 56335.3 0 619900 52025.7 0 608605 47777.5 0 598266 43586.9 0 588870 39449.7 0 580406 35361.7 0 572861 31318.4 0 566227 27315 0 560495 23346.9 0 555656 19409.2 0 551705 15496.8 0 548636 11604.8 0 546445 7728.03 0 545129 3861.49 0 544686 0 0 1.28877e+06 -535926 0 1.42632e+06 -436491 0 1.5348e+06 -369881 0 1.62015e+06 -311184 0 1.68713e+06 -255367 0 1.73857e+06 -201209 0 1.77569e+06 -149045 0 1.79966e+06 -99608.2 0 1.8116e+06 -53697 0 1.81281e+06 -11952.5 0 1.80466e+06 25222.3 0 1.78854e+06 57671 0 1.76579e+06 85450 0 1.73763e+06 108776 0 1.70517e+06 127974 0 1.66935e+06 143428 0 1.63102e+06 155548 0 1.59086e+06 164743 0 1.54946e+06 171401 0 1.50731e+06 175882 0 1.46482e+06 178513 0 1.42233e+06 179584 0 1.38009e+06 179349 0 1.33835e+06 178029 0 1.29727e+06 175816 0 1.257e+06 172874 0 1.21766e+06 169340 0 1.17934e+06 165335 0 1.14209e+06 160957 0 1.10599e+06 156289 0 1.07106e+06 151403 0 1.03733e+06 146357 0 1.00481e+06 141199 0 973522 135970 0 943461 130703 0 914625 125425 0 887006 120157 0 860594 114918 0 835376 109721 0 811337 104577 0 788460 99494.6 0 766727 94479.7 0 746121 89536.6 0 726622 84667.7 0 708212 79874.6 0 690873 75157.4 0 674585 70515.5 0 659331 65947.2 0 645094 61450.5 0 631857 57022.7 0 619604 52660.5 0 608321 48360.6 0 597993 44118.9 0 588607 39931.3 0 580151 35793.4 0 572615 31700.7 0 565988 27648.6 0 560262 23632 0 555428 19646.2 0 551482 15686 0 548416 11746.5 0 546227 7822.42 0 544912 3908.65 0 544470 0 0 1.29927e+06 -540291 0 1.43314e+06 -441549 0 1.54037e+06 -373822 0 1.62498e+06 -314133 0 1.69149e+06 -257447 0 1.74249e+06 -202519 0 1.77918e+06 -149658 0 1.8027e+06 -99601 0 1.81419e+06 -53150.8 0 1.81494e+06 -10950 0 1.80636e+06 26600.9 0 1.78985e+06 59351.6 0 1.76673e+06 87366.9 0 1.73826e+06 110873 0 1.70551e+06 130202 0 1.66946e+06 145749 0 1.63093e+06 157929 0 1.5906e+06 167157 0 1.54907e+06 173827 0 1.50682e+06 178303 0 1.46425e+06 180914 0 1.42169e+06 181954 0 1.37941e+06 181679 0 1.33764e+06 180312 0 1.29654e+06 178047 0 1.25626e+06 175047 0 1.21692e+06 171453 0 1.1786e+06 167385 0 1.14137e+06 162941 0 1.10528e+06 158208 0 1.07036e+06 153255 0 1.03665e+06 148142 0 1.00416e+06 142917 0 972889 137621 0 942851 132287 0 914038 126942 0 886443 121609 0 860055 116305 0 834860 111044 0 810843 105838 0 787988 100693 0 766277 95617.8 0 745691 90614.8 0 726212 85687.2 0 707821 80836.3 0 690499 76062.2 0 674228 71364.4 0 658990 66741.1 0 644768 62190.4 0 631545 57709.3 0 619305 53294.7 0 608034 48943 0 597717 44650.3 0 588341 40412.3 0 579894 36224.6 0 572366 32082.7 0 565746 27981.7 0 560026 23916.8 0 555198 19883 0 551255 15875.1 0 548193 11888.1 0 546006 7916.7 0 544693 3955.76 0 544251 0 0 1.3095e+06 -544544 0 1.43999e+06 -446464 0 1.54596e+06 -377689 0 1.62986e+06 -317030 0 1.69589e+06 -259486 0 1.74645e+06 -203789 0 1.7827e+06 -150233 0 1.80577e+06 -99556.6 0 1.81679e+06 -52568.9 0 1.81709e+06 -9914.16 0 1.80808e+06 28009.8 0 1.79116e+06 61059.3 0 1.76768e+06 89307.5 0 1.73888e+06 112990 0 1.70586e+06 132448 0 1.66957e+06 148085 0 1.63084e+06 160322 0 1.59035e+06 169581 0 1.54868e+06 176261 0 1.50633e+06 180729 0 1.46367e+06 183320 0 1.42105e+06 184327 0 1.37873e+06 184011 0 1.33692e+06 182597 0 1.29581e+06 180278 0 1.25552e+06 177220 0 1.21618e+06 173566 0 1.17786e+06 169434 0 1.14064e+06 164925 0 1.10456e+06 160126 0 1.06966e+06 155106 0 1.03597e+06 149925 0 1.0035e+06 144633 0 972253 139269 0 942238 133869 0 913448 128458 0 885877 123059 0 859512 117691 0 834340 112366 0 810346 107097 0 787513 101891 0 765823 96754.6 0 745258 91691.9 0 725798 86705.5 0 707426 81796.8 0 690122 76966 0 673868 72212.4 0 658646 67534.2 0 644439 62929.4 0 631230 58395.1 0 619003 53928.1 0 607744 49524.8 0 597438 45181.1 0 588072 40892.8 0 579634 36655.4 0 572114 32464.2 0 565501 28314.5 0 559787 24201.3 0 554964 20119.5 0 551026 16063.9 0 547967 12029.5 0 545783 8010.89 0 544471 4002.83 0 544029 0 0 1.31949e+06 -548697 0 1.44687e+06 -451244 0 1.5516e+06 -381484 0 1.63477e+06 -319877 0 1.70032e+06 -261482 0 1.75044e+06 -205020 0 1.78625e+06 -150769 0 1.80886e+06 -99474.5 0 1.81941e+06 -51951 0 1.81926e+06 -8844.77 0 1.80981e+06 29449.3 0 1.79248e+06 62794.1 0 1.76863e+06 91271.8 0 1.73951e+06 115127 0 1.70621e+06 134712 0 1.66968e+06 150434 0 1.63075e+06 162727 0 1.59009e+06 172015 0 1.54829e+06 178702 0 1.50583e+06 183162 0 1.4631e+06 185730 0 1.42041e+06 186704 0 1.37804e+06 186346 0 1.33621e+06 184883 0 1.29507e+06 182510 0 1.25477e+06 179394 0 1.21543e+06 175678 0 1.17712e+06 171482 0 1.1399e+06 166909 0 1.10384e+06 162043 0 1.06896e+06 156955 0 1.03529e+06 151707 0 1.00283e+06 146347 0 971612 140917 0 941621 135449 0 912855 129972 0 885307 124508 0 858965 119075 0 833817 113687 0 809845 108355 0 787034 103087 0 765366 97890.2 0 744821 92767.8 0 725382 87722.7 0 707028 82756.3 0 689742 77868.8 0 673505 73059.4 0 658300 68326.4 0 644107 63667.6 0 630912 59080.2 0 618698 54560.9 0 607451 50105.9 0 597156 45711.3 0 587800 41372.7 0 579372 37085.6 0 571860 32845.3 0 565254 28646.9 0 559546 24485.4 0 554728 20355.7 0 550794 16252.6 0 547738 12170.8 0 545557 8104.96 0 544246 4049.83 0 543805 0 0 1.32925e+06 -552757 0 1.45376e+06 -455898 0 1.55727e+06 -385208 0 1.63973e+06 -322672 0 1.70479e+06 -263437 0 1.75446e+06 -206211 0 1.78982e+06 -151266 0 1.81197e+06 -99354.5 0 1.82206e+06 -51296.9 0 1.82144e+06 -7741.62 0 1.81154e+06 30919.4 0 1.79381e+06 64556.3 0 1.76959e+06 93260 0 1.74014e+06 117285 0 1.70656e+06 136992 0 1.66979e+06 152799 0 1.63065e+06 165143 0 1.58983e+06 174458 0 1.5479e+06 181151 0 1.50533e+06 185600 0 1.46251e+06 188144 0 1.41977e+06 189084 0 1.37735e+06 188683 0 1.33548e+06 187170 0 1.29433e+06 184742 0 1.25402e+06 181568 0 1.21468e+06 177790 0 1.17637e+06 173530 0 1.13917e+06 168891 0 1.10312e+06 163958 0 1.06825e+06 158804 0 1.0346e+06 153488 0 1.00217e+06 148061 0 970968 142563 0 941000 137028 0 912257 131485 0 884733 125956 0 858415 120458 0 833290 115007 0 809341 109612 0 786553 104282 0 764906 99024.6 0 744382 93842.5 0 724962 88738.8 0 706627 83714.8 0 689359 78770.6 0 673139 73905.4 0 657950 69117.7 0 643772 64405 0 630591 59764.5 0 618391 55192.9 0 607155 50686.4 0 596871 46240.9 0 587526 41852.1 0 579106 37515.4 0 571602 33226 0 565004 28979 0 559302 24769.3 0 554489 20591.7 0 550559 16441 0 547507 12311.9 0 545328 8198.94 0 544019 4096.79 0 543578 0 0 1.33881e+06 -556732 0 1.46067e+06 -460433 0 1.56297e+06 -388861 0 1.64472e+06 -325417 0 1.7093e+06 -265349 0 1.75851e+06 -207362 0 1.79343e+06 -151724 0 1.8151e+06 -99196.4 0 1.82472e+06 -50606.3 0 1.82363e+06 -6604.52 0 1.81329e+06 32420.5 0 1.79514e+06 66345.8 0 1.77055e+06 95272 0 1.74078e+06 119463 0 1.7069e+06 139290 0 1.6699e+06 155177 0 1.63056e+06 167571 0 1.58957e+06 176910 0 1.54751e+06 183607 0 1.50483e+06 188044 0 1.46193e+06 190563 0 1.41912e+06 191467 0 1.37666e+06 191022 0 1.33476e+06 189459 0 1.29358e+06 186976 0 1.25327e+06 183742 0 1.21392e+06 179902 0 1.17562e+06 175578 0 1.13842e+06 170873 0 1.10239e+06 165873 0 1.06754e+06 160651 0 1.03391e+06 155267 0 1.0015e+06 149772 0 970321 144207 0 940375 138606 0 911656 132997 0 884156 127402 0 857861 121840 0 832759 116325 0 808834 110867 0 786067 105476 0 764442 100158 0 743939 94916 0 724539 89753.7 0 706223 84672.1 0 688973 79671.4 0 672770 74750.6 0 657597 69908 0 643434 65141.5 0 630268 60448 0 618080 55824.2 0 606857 51266.2 0 596584 46769.9 0 587248 42330.9 0 578838 37944.7 0 571342 33606.2 0 564751 29310.6 0 559055 25052.8 0 554248 20827.4 0 550322 16629.2 0 547273 12452.8 0 545096 8292.8 0 543788 4143.69 0 543348 0 0 1.34818e+06 -560629 0 1.4676e+06 -464855 0 1.56871e+06 -392445 0 1.64976e+06 -328111 0 1.71384e+06 -267218 0 1.7626e+06 -208473 0 1.79706e+06 -152142 0 1.81826e+06 -98999.8 0 1.8274e+06 -49879 0 1.82584e+06 -5433.27 0 1.81505e+06 33952.5 0 1.79648e+06 68162.9 0 1.77152e+06 97308 0 1.74141e+06 121662 0 1.70726e+06 141604 0 1.67e+06 157570 0 1.63046e+06 170011 0 1.58931e+06 179372 0 1.54711e+06 186071 0 1.50433e+06 190494 0 1.46134e+06 192986 0 1.41847e+06 193853 0 1.37596e+06 193364 0 1.33403e+06 191749 0 1.29284e+06 189210 0 1.25251e+06 185917 0 1.21316e+06 182014 0 1.17486e+06 1776