<?xml version="1.0"?> 
<VTKFile type="StructuredGrid" version="0.1"> 
<StructuredGrid WholeExtent="0 63 0 63 0 0"> 
<Piece Extent="0 63 0 63 0 0"> 
<PointData>
<DataArray type="Float32" Name="|E|" format="ascii" NumberOfComponents="3"> 
-2.08132e+06 166997 0 -2.08828e+06 177312 0 -2.09563e+06 187705 0 -2.1034e+06 198202 0 -2.11159e+06 208806 0 -2.1202e+06 219524 0 -2.12923e+06 230364 0 -2.13869e+06 241331 0 -2.14858e+06 252436 0 -2.15891e+06 263685 0 -2.16967e+06 275087 0 -2.18088e+06 286651 0 -2.19254e+06 298387 0 -2.20466e+06 310304 0 -2.21723e+06 322412 0 -2.23028e+06 334723 0 -2.24379e+06 347248 0 -2.25779e+06 359998 0 -2.27228e+06 372986 0 -2.28726e+06 386226 0 -2.30275e+06 399732 0 -2.31876e+06 413519 0 -2.3353e+06 427603 0 -2.35237e+06 442001 0 -2.37e+06 456732 0 -2.3882e+06 471815 0 -2.40698e+06 487271 0 -2.42636e+06 503123 0 -2.44637e+06 519396 0 -2.46702e+06 536115 0 -2.48834e+06 553310 0 -2.51035e+06 571013 0 -2.53309e+06 589256 0 -2.5566e+06 608080 0 -2.58092e+06 627525 0 -2.60608e+06 647637 0 -2.63216e+06 668469 0 -2.65921e+06 690078 0 -2.6873e+06 712530 0 -2.71651e+06 735899 0 -2.74696e+06 760269 0 -2.77875e+06 785738 0 -2.81202e+06 812417 0 -2.84694e+06 840437 0 -2.88371e+06 869952 0 -2.92255e+06 901143 0 -2.96377e+06 934228 0 -3.00772e+06 969468 0 -3.05485e+06 1.00718e+06 0 -3.10569e+06 1.04777e+06 0 -3.16097e+06 1.09171e+06 0 -3.22158e+06 1.13966e+06 0 -3.28873e+06 1.19241e+06 0 -3.36402e+06 1.25091e+06 0 -3.44962e+06 1.31684e+06 0 -3.54865e+06 1.39292e+06 0 -3.66614e+06 1.47714e+06 0 -3.80849e+06 1.58221e+06 0 -3.98351e+06 1.73161e+06 0 -4.23478e+06 1.80361e+06 0 -4.5682e+06 2.10962e+06 0 -4.97242e+06 3.05223e+06 0 -6.58445e+06 -2.11436e+06 0 -1.11201e+07 3.57261e+07 0 -2.08887e+06 183398 0 -2.09627e+06 193798 0 -2.10408e+06 204298 0 -2.1123e+06 214905 0 -2.12092e+06 225626 0 -2.12996e+06 236468 0 -2.13941e+06 247440 0 -2.14928e+06 258548 0 -2.15957e+06 269800 0 -2.1703e+06 281206 0 -2.18145e+06 292773 0 -2.19304e+06 304511 0 -2.20507e+06 316430 0 -2.21756e+06 328539 0 -2.23049e+06 340849 0 -2.24389e+06 353372 0 -2.25775e+06 366119 0 -2.27209e+06 379103 0 -2.28691e+06 392336 0 -2.30222e+06 405834 0 -2.31804e+06 419610 0 -2.33436e+06 433680 0 -2.35122e+06 448063 0 -2.3686e+06 462774 0 -2.38654e+06 477834 0 -2.40504e+06 493264 0 -2.42412e+06 509086 0 -2.44381e+06 525325 0 -2.46412e+06 542005 0 -2.48507e+06 559157 0 -2.50669e+06 576810 0 -2.52902e+06 595000 0 -2.55208e+06 613764 0 -2.57592e+06 633142 0 -2.60058e+06 653182 0 -2.62611e+06 673935 0 -2.65256e+06 695457 0 -2.68001e+06 717815 0 -2.70854e+06 741081 0 -2.73823e+06 765340 0 -2.7692e+06 790688 0 -2.80156e+06 817236 0 -2.83548e+06 845115 0 -2.87113e+06 874477 0 -2.90872e+06 905503 0 -2.94852e+06 938408 0 -2.99085e+06 973453 0 -3.0361e+06 1.01095e+06 0 -3.08476e+06 1.05131e+06 0 -3.13744e+06 1.09499e+06 0 -3.19494e+06 1.14265e+06 0 -3.25829e+06 1.19506e+06 0 -3.32886e+06 1.25327e+06 0 -3.40843e+06 1.31877e+06 0 -3.49956e+06 1.39362e+06 0 -3.60665e+06 1.4797e+06 0 -3.73369e+06 1.58367e+06 0 -3.88623e+06 1.71306e+06 0 -4.10369e+06 1.85152e+06 0 -4.3767e+06 2.11749e+06 0 -4.63572e+06 2.47766e+06 0 -5.86981e+06 2.12156e+06 0 -6.81775e+06 8.82626e+06 0 -1.06397e+06 8.44758e+06 0 -2.09714e+06 200264 0 -2.105e+06 210765 0 -2.11325e+06 221374 0 -2.12189e+06 232099 0 -2.13094e+06 242946 0 -2.14039e+06 253921 0 -2.15025e+06 265034 0 -2.16052e+06 276291 0 -2.17121e+06 287701 0 -2.18231e+06 299273 0 -2.19384e+06 311015 0 -2.2058e+06 322937 0 -2.2182e+06 335049 0 -2.23104e+06 347361 0 -2.24432e+06 359885 0 -2.25806e+06 372632 0 -2.27226e+06 385613 0 -2.28693e+06 398843 0 -2.30207e+06 412336 0 -2.31771e+06 426104 0 -2.33383e+06 440165 0 -2.35047e+06 454535 0 -2.36763e+06 469232 0 -2.38532e+06 484275 0 -2.40355e+06 499684 0 -2.42235e+06 515482 0 -2.44173e+06 531692 0 -2.46171e+06 548340 0 -2.48232e+06 565455 0 -2.50357e+06 583068 0 -2.5255e+06 601212 0 -2.54814e+06 619924 0 -2.57153e+06 639246 0 -2.5957e+06 659223 0 -2.6207e+06 679907 0 -2.6466e+06 701354 0 -2.67344e+06 723629 0 -2.70131e+06 746805 0 -2.73029e+06 770965 0 -2.76047e+06 796206 0 -2.79198e+06 822638 0 -2.82496e+06 850389 0 -2.85955e+06 879613 0 -2.89597e+06 910487 0 -2.93445e+06 943225 0 -2.97527e+06 978085 0 -3.01878e+06 1.01538e+06 0 -3.06542e+06 1.0555e+06 0 -3.11573e+06 1.09893e+06 0 -3.17039e+06 1.14628e+06 0 -3.2303e+06 1.19833e+06 0 -3.29662e+06 1.25613e+06 0 -3.37083e+06 1.32109e+06 0 -3.45507e+06 1.39515e+06 0 -3.5528e+06 1.48072e+06 0 -3.66728e+06 1.58312e+06 0 -3.80278e+06 1.70834e+06 0 -3.98562e+06 1.85532e+06 0 -4.21692e+06 2.09386e+06 0 -4.43573e+06 2.41843e+06 0 -5.15603e+06 2.5397e+06 0 -5.9528e+06 5.57497e+06 0 -3.42456e+06 7.8534e+06 0 -23225.7 3.9748e+06 0 -2.10616e+06 217619 0 -2.11445e+06 228232 0 -2.12313e+06 238961 0 -2.13219e+06 249813 0 -2.14165e+06 260794 0 -2.1515e+06 271913 0 -2.16175e+06 283176 0 -2.17241e+06 294592 0 -2.18347e+06 306169 0 -2.19495e+06 317917 0 -2.20685e+06 329844 0 -2.21917e+06 341961 0 -2.23192e+06 354277 0 -2.2451e+06 366804 0 -2.25872e+06 379553 0 -2.27279e+06 392535 0 -2.28732e+06 405765 0 -2.3023e+06 419255 0 -2.31777e+06 433020 0 -2.33371e+06 447076 0 -2.35014e+06 461438 0 -2.36708e+06 476125 0 -2.38453e+06 491155 0 -2.40252e+06 506548 0 -2.42105e+06 522327 0 -2.44014e+06 538515 0 -2.45981e+06 555138 0 -2.48008e+06 572224 0 -2.50098e+06 589803 0 -2.52254e+06 607910 0 -2.54477e+06 626580 0 -2.56772e+06 645854 0 -2.59143e+06 665779 0 -2.61594e+06 686405 0 -2.64129e+06 707788 0 -2.66756e+06 729992 0 -2.69481e+06 753091 0 -2.7231e+06 777167 0 -2.75255e+06 802315 0 -2.78325e+06 828645 0 -2.81533e+06 856286 0 -2.84894e+06 885387 0 -2.88425e+06 916126 0 -2.92148e+06 948715 0 -2.96089e+06 983408 0 -3.00279e+06 1.02052e+06 0 -3.04756e+06 1.06042e+06 0 -3.09568e+06 1.10359e+06 0 -3.14774e+06 1.15064e+06 0 -3.20452e+06 1.20234e+06 0 -3.267e+06 1.25969e+06 0 -3.33643e+06 1.32407e+06 0 -3.41457e+06 1.39733e+06 0 -3.50412e+06 1.48197e+06 0 -3.60779e+06 1.58259e+06 0 -3.72902e+06 1.70462e+06 0 -3.88461e+06 1.8526e+06 0 -4.07957e+06 2.07043e+06 0 -4.27347e+06 2.37185e+06 0 -4.71222e+06 2.64693e+06 0 -5.30817e+06 4.2864e+06 0 -4.17726e+06 6.45877e+06 0 -1.59062e+06 5.90625e+06 0 -479067 4.26277e+06 0 -2.11592e+06 235491 0 -2.12463e+06 246225 0 -2.13372e+06 257083 0 -2.14319e+06 268070 0 -2.15304e+06 279196 0 -2.16328e+06 290466 0 -2.17392e+06 301889 0 -2.18495e+06 313474 0 -2.19638e+06 325229 0 -2.20822e+06 337164 0 -2.22047e+06 349287 0 -2.23313e+06 361610 0 -2.24622e+06 374142 0 -2.25974e+06 386896 0 -2.27369e+06 399882 0 -2.28808e+06 413115 0 -2.30292e+06 426607 0 -2.31822e+06 440372 0 -2.33399e+06 454426 0 -2.35023e+06 468784 0 -2.36696e+06 483466 0 -2.38419e+06 498488 0 -2.40193e+06 513871 0 -2.42021e+06 529638 0 -2.43902e+06 545810 0 -2.4584e+06 562415 0 -2.47835e+06 579479 0 -2.49892e+06 597032 0 -2.52011e+06 615109 0 -2.54196e+06 633746 0 -2.56449e+06 652984 0 -2.58776e+06 672866 0 -2.61179e+06 693445 0 -2.63664e+06 714776 0 -2.66235e+06 736923 0 -2.689e+06 759958 0 -2.71666e+06 783964 0 -2.7454e+06 809035 0 -2.77533e+06 835280 0 -2.80656e+06 862827 0 -2.83924e+06 891824 0 -2.87351e+06 922447 0 -2.90957e+06 954905 0 -2.94766e+06 989451 0 -2.98805e+06 1.02639e+06 0 -3.03108e+06 1.0661e+06 0 -3.07718e+06 1.10904e+06 0 -3.12685e+06 1.15581e+06 0 -3.18076e+06 1.20715e+06 0 -3.23975e+06 1.26405e+06 0 -3.30488e+06 1.32784e+06 0 -3.37758e+06 1.40028e+06 0 -3.45995e+06 1.48386e+06 0 -3.55421e+06 1.5826e+06 0 -3.66319e+06 1.70164e+06 0 -3.79742e+06 1.84773e+06 0 -3.9619e+06 2.04968e+06 0 -4.13271e+06 2.32742e+06 0 -4.42212e+06 2.65519e+06 0 -4.82885e+06 3.66444e+06 0 -4.34822e+06 5.35571e+06 0 -2.54179e+06 5.84334e+06 0 -1.03317e+06 4.93226e+06 0 -682233 4.32631e+06 0 -2.12642e+06 253903 0 -2.13554e+06 264767 0 -2.14502e+06 275763 0 -2.15488e+06 286897 0 -2.16512e+06 298176 0 -2.17574e+06 309608 0 -2.18674e+06 321202 0 -2.19813e+06 332967 0 -2.20992e+06 344910 0 -2.22211e+06 357043 0 -2.2347e+06 369374 0 -2.2477e+06 381915 0 -2.26112e+06 394676 0 -2.27496e+06 407670 0 -2.28922e+06 420908 0 -2.30392e+06 434405 0 -2.31907e+06 448174 0 -2.33467e+06 462231 0 -2.35073e+06 476591 0 -2.36727e+06 491271 0 -2.38429e+06 506291 0 -2.4018e+06 521670 0 -2.41983e+06 537430 0 -2.43838e+06 553594 0 -2.45747e+06 570186 0 -2.47713e+06 587236 0 -2.49737e+06 604772 0 -2.51821e+06 622829 0 -2.53969e+06 641442 0 -2.56184e+06 660652 0 -2.58468e+06 680503 0 -2.60825e+06 701047 0 -2.63261e+06 722338 0 -2.6578e+06 744441 0 -2.68389e+06 767426 0 -2.71092e+06 791377 0 -2.739e+06 816387 0 -2.7682e+06 842565 0 -2.79863e+06 870036 0 -2.83041e+06 898949 0 -2.8637e+06 929476 0 -2.89867e+06 961827 0 -2.93551e+06 996249 0 -2.97449e+06 1.03304e+06 0 -3.0159e+06 1.07258e+06 0 -3.06011e+06 1.11531e+06 0 -3.10757e+06 1.16182e+06 0 -3.15885e+06 1.21284e+06 0 -3.21465e+06 1.26932e+06 0 -3.27587e+06 1.33253e+06 0 -3.34368e+06 1.40418e+06 0 -3.41972e+06 1.48664e+06 0 -3.50574e+06 1.58353e+06 0 -3.60402e+06 1.69972e+06 0 -3.72113e+06 1.84249e+06 0 -3.86071e+06 2.03202e+06 0 -4.00907e+06 2.28849e+06 0 -4.2145e+06 2.62127e+06 0 -4.48445e+06 3.33143e+06 0 -4.28026e+06 4.57703e+06 0 -3.09099e+06 5.40677e+06 0 -1.63818e+06 5.08962e+06 0 -908612 4.42223e+06 0 -685909 4.02442e+06 0 -2.13765e+06 272883 0 -2.14716e+06 283887 0 -2.15703e+06 295031 0 -2.16727e+06 306320 0 -2.17788e+06 317763 0 -2.18886e+06 329369 0 -2.20022e+06 341144 0 -2.21196e+06 353099 0 -2.2241e+06 365243 0 -2.23662e+06 377586 0 -2.24954e+06 390138 0 -2.26287e+06 402910 0 -2.2766e+06 415914 0 -2.29075e+06 429162 0 -2.30532e+06 442668 0 -2.32032e+06 456445 0 -2.33577e+06 470508 0 -2.35166e+06 484874 0 -2.36801e+06 499559 0 -2.38482e+06 514582 0 -2.40212e+06 529962 0 -2.41991e+06 545722 0 -2.43821e+06 561883 0 -2.45704e+06 578471 0 -2.4764e+06 595514 0 -2.49633e+06 613042 0 -2.51685e+06 631087 0 -2.53797e+06 649686 0 -2.55974e+06 668879 0 -2.58217e+06 688710 0 -2.60532e+06 709230 0 -2.62921e+06 730494 0 -2.6539e+06 752567 0 -2.67944e+06 775518 0 -2.70589e+06 799430 0 -2.73332e+06 824396 0 -2.76182e+06 850524 0 -2.79149e+06 877939 0 -2.82244e+06 906788 0 -2.85479e+06 937243 0 -2.88871e+06 969510 0 -2.92439e+06 1.00383e+06 0 -2.96204e+06 1.04051e+06 0 -3.00192e+06 1.0799e+06 0 -3.04438e+06 1.12246e+06 0 -3.08978e+06 1.16875e+06 0 -3.13862e+06 1.21947e+06 0 -3.1915e+06 1.27557e+06 0 -3.24915e+06 1.33824e+06 0 -3.31254e+06 1.40912e+06 0 -3.38292e+06 1.49049e+06 0 -3.46166e+06 1.58563e+06 0 -3.55053e+06 1.6991e+06 0 -3.65355e+06 1.83801e+06 0 -3.77287e+06 2.01741e+06 0 -3.90026e+06 2.25564e+06 0 -4.05406e+06 2.57385e+06 0 -4.23303e+06 3.12689e+06 0 -4.13788e+06 4.0554e+06 0 -3.35772e+06 4.90376e+06 0 -2.14236e+06 4.99974e+06 0 -1.24476e+06 4.52047e+06 0 -857568 4.05303e+06 0 -648480 3.68291e+06 0 -2.14962e+06 292459 0 -2.15951e+06 303613 0 -2.16975e+06 314914 0 -2.18035e+06 326370 0 -2.19132e+06 337989 0 -2.20265e+06 349778 0 -2.21436e+06 361747 0 -2.22644e+06 373905 0 -2.2389e+06 386262 0 -2.25175e+06 398828 0 -2.26499e+06 411614 0 -2.27863e+06 424631 0 -2.29267e+06 437893 0 -2.30712e+06 451412 0 -2.32198e+06 465201 0 -2.33728e+06 479276 0 -2.353e+06 493652 0 -2.36917e+06 508347 0 -2.3858e+06 523378 0 -2.40289e+06 538766 0 -2.42046e+06 554532 0 -2.43852e+06 570698 0 -2.45708e+06 587289 0 -2.47618e+06 604334 0 -2.49581e+06 621861 0 -2.51601e+06 639904 0 -2.5368e+06 658498 0 -2.5582e+06 677685 0 -2.58024e+06 697508 0 -2.60297e+06 718017 0 -2.62641e+06 739267 0 -2.65062e+06 761323 0 -2.67564e+06 784255 0 -2.70153e+06 808145 0 -2.72835e+06 833084 0 -2.75619e+06 859182 0 -2.78513e+06 886562 0 -2.81527e+06 915370 0 -2.84673e+06 945777 0 -2.87967e+06 977985 0 -2.91423e+06 1.01224e+06 0 -2.95062e+06 1.04883e+06 0 -2.98908e+06 1.08811e+06 0 -3.02988e+06 1.13053e+06 0 -3.07336e+06 1.17663e+06 0 -3.11994e+06 1.22711e+06 0 -3.17011e+06 1.28285e+06 0 -3.22449e+06 1.34504e+06 0 -3.28384e+06 1.41523e+06 0 -3.34912e+06 1.49556e+06 0 -3.42138e+06 1.58906e+06 0 -3.50189e+06 1.69999e+06 0 -3.59304e+06 1.83493e+06 0 -3.69569e+06 2.00579e+06 0 -3.80426e+06 2.2285e+06 0 -3.9231e+06 2.52598e+06 0 -4.04247e+06 2.9853e+06 0 -3.98576e+06 3.70278e+06 0 -3.45776e+06 4.46033e+06 0 -2.49789e+06 4.77144e+06 0 -1.5931e+06 4.52908e+06 0 -1.07106e+06 4.10677e+06 0 -805763 3.73986e+06 0 -625181 3.40843e+06 0 -2.16232e+06 312660 0 -2.17257e+06 323975 0 -2.18317e+06 335446 0 -2.19413e+06 347080 0 -2.20544e+06 358885 0 -2.21711e+06 370870 0 -2.22915e+06 383045 0 -2.24155e+06 395419 0 -2.25434e+06 408002 0 -2.2675e+06 420806 0 -2.28104e+06 433841 0 -2.29498e+06 447119 0 -2.30931e+06 460655 0 -2.32405e+06 474461 0 -2.33921e+06 488552 0 -2.35478e+06 502944 0 -2.37078e+06 517654 0 -2.38722e+06 532700 0 -2.40411e+06 548102 0 -2.42147e+06 563880 0 -2.4393e+06 580058 0 -2.45762e+06 596660 0 -2.47644e+06 613715 0 -2.49579e+06 631251 0 -2.51569e+06 649301 0 -2.53615e+06 667902 0 -2.5572e+06 687093 0 -2.57888e+06 706919 0 -2.6012e+06 727430 0 -2.62421e+06 748681 0 -2.64796e+06 770736 0 -2.67248e+06 793664 0 -2.69782e+06 817549 0 -2.72406e+06 842481 0 -2.75126e+06 868568 0 -2.7795e+06 895935 0 -2.80888e+06 924725 0 -2.8395e+06 955109 0 -2.87149e+06 987286 0 -2.905e+06 1.0215e+06 0 -2.9402e+06 1.05803e+06 0 -2.9773e+06 1.09724e+06 0 -3.01654e+06 1.13956e+06 0 -3.05822e+06 1.18552e+06 0 -3.10267e+06 1.23579e+06 0 -3.15033e+06 1.29125e+06 0 -3.20167e+06 1.35302e+06 0 -3.25731e+06 1.42257e+06 0 -3.31796e+06 1.50195e+06 0 -3.38438e+06 1.59395e+06 0 -3.45742e+06 1.70253e+06 0 -3.53834e+06 1.83366e+06 0 -3.62704e+06 1.99713e+06 0 -3.71906e+06 2.20658e+06 0 -3.8122e+06 2.48286e+06 0 -3.89164e+06 2.87925e+06 0 -3.84523e+06 3.45607e+06 0 -3.46847e+06 4.10372e+06 0 -2.72223e+06 4.4977e+06 0 -1.89514e+06 4.44756e+06 0 -1.30329e+06 4.12765e+06 0 -969002 3.78171e+06 0 -760081 3.47261e+06 0 -615346 3.19268e+06 0 -2.17574e+06 333519 0 -2.18634e+06 345007 0 -2.19729e+06 356659 0 -2.20859e+06 368482 0 -2.22023e+06 380487 0 -2.23223e+06 392682 0 -2.24459e+06 405076 0 -2.25731e+06 417680 0 -2.27039e+06 430504 0 -2.28386e+06 443560 0 -2.2977e+06 456861 0 -2.31192e+06 470417 0 -2.32654e+06 484245 0 -2.34156e+06 498357 0 -2.35698e+06 512771 0 -2.37283e+06 527502 0 -2.38909e+06 542568 0 -2.40579e+06 557990 0 -2.42294e+06 573788 0 -2.44055e+06 589986 0 -2.45863e+06 606607 0 -2.47721e+06 623680 0 -2.49628e+06 641234 0 -2.51589e+06 659302 0 -2.53603e+06 677919 0 -2.55675e+06 697127 0 -2.57806e+06 716969 0 -2.6e+06 737495 0 -2.6226e+06 758761 0 -2.6459e+06 780830 0 -2.66994e+06 803772 0 -2.69477e+06 827670 0 -2.72044e+06 852614 0 -2.74703e+06 878713 0 -2.7746e+06 906089 0 -2.80324e+06 934886 0 -2.83304e+06 965273 0 -2.86413e+06 997450 0 -2.89663e+06 1.03165e+06 0 -2.9307e+06 1.06817e+06 0 -2.96651e+06 1.10734e+06 0 -3.00427e+06 1.1496e+06 0 -3.04424e+06 1.19546e+06 0 -3.0867e+06 1.24559e+06 0 -3.13199e+06 1.30081e+06 0 -3.18051e+06 1.36222e+06 0 -3.23271e+06 1.43124e+06 0 -3.28911e+06 1.50976e+06 0 -3.35021e+06 1.60041e+06 0 -3.41651e+06 1.70683e+06 0 -3.48847e+06 1.83442e+06 0 -3.56526e+06 1.9914e+06 0 -3.64282e+06 2.1894e+06 0 -3.71585e+06 2.44612e+06 0 -3.76737e+06 2.79635e+06 0 -3.72072e+06 3.27638e+06 0 -3.43464e+06 3.82543e+06 0 -2.84991e+06 4.23115e+06 0 -2.12938e+06 4.30734e+06 0 -1.5268e+06 4.10206e+06 0 -1.13802e+06 3.80147e+06 0 -894569 3.51117e+06 0 -726901 3.24649e+06 0 -610411 3.00932e+06 0 -2.18989e+06 355072 0 -2.20083e+06 366744 0 -2.21211e+06 378590 0 -2.22373e+06 390617 0 -2.2357e+06 402834 0 -2.24801e+06 415252 0 -2.26067e+06 427880 0 -2.27369e+06 440730 0 -2.28707e+06 453811 0 -2.30082e+06 467137 0 -2.31495e+06 480720 0 -2.32945e+06 494574 0 -2.34434e+06 508713 0 -2.35963e+06 523153 0 -2.37531e+06 537911 0 -2.39141e+06 553005 0 -2.40793e+06 568454 0 -2.42489e+06 584280 0 -2.44228e+06 600504 0 -2.46014e+06 617153 0 -2.47846e+06 634254 0 -2.49728e+06 651836 0 -2.5166e+06 669931 0 -2.53644e+06 688577 0 -2.55684e+06 707814 0 -2.5778e+06 727685 0 -2.59937e+06 748240 0 -2.62157e+06 769536 0 -2.64444e+06 791635 0 -2.66801e+06 814609 0 -2.69234e+06 838538 0 -2.71747e+06 863516 0 -2.74346e+06 889648 0 -2.77039e+06 917057 0 -2.79832e+06 945888 0 -2.82734e+06 976307 0 -2.85756e+06 1.00851e+06 0 -2.88909e+06 1.04274e+06 0 -2.92207e+06 1.07928e+06 0 -2.95665e+06 1.11846e+06 0 -2.993e+06 1.1607e+06 0 -3.03135e+06 1.20651e+06 0 -3.07191e+06 1.25655e+06 0 -3.11497e+06 1.31161e+06 0 -3.16083e+06 1.37273e+06 0 -3.20982e+06 1.44129e+06 0 -3.26227e+06 1.51907e+06 0 -3.31848e+06 1.60851e+06 0 -3.37863e+06 1.71299e+06 0 -3.4426e+06 1.83733e+06 0 -3.50902e+06 1.98858e+06 0 -3.5739e+06 2.17659e+06 0 -3.63049e+06 2.41594e+06 0 -3.66146e+06 2.73027e+06 0 -3.61099e+06 3.14074e+06 0 -3.38012e+06 3.60888e+06 0 -2.91231e+06 3.99375e+06 0 -2.29715e+06 4.14099e+06 0 -1.72203e+06 4.03473e+06 0 -1.30402e+06 3.79427e+06 0 -1.02866e+06 3.53042e+06 0 -839043 3.28065e+06 0 -704142 3.052e+06 0 -607150 2.8455e+06 0 -2.20475e+06 377357 0 -2.21603e+06 389226 0 -2.22763e+06 401279 0 -2.23956e+06 413523 0 -2.25183e+06 425969 0 -2.26444e+06 438625 0 -2.2774e+06 451503 0 -2.29071e+06 464614 0 -2.30437e+06 477971 0 -2.3184e+06 491585 0 -2.33279e+06 505470 0 -2.34756e+06 519642 0 -2.36271e+06 534115 0 -2.37825e+06 548906 0 -2.39419e+06 564034 0 -2.41053e+06 579518 0 -2.4273e+06 595378 0 -2.44449e+06 611639 0 -2.46212e+06 628325 0 -2.48021e+06 645463 0 -2.49877e+06 663082 0 -2.51782e+06 681217 0 -2.53737e+06 699903 0 -2.55746e+06 719181 0 -2.57809e+06 739095 0 -2.59929e+06 759694 0 -2.6211e+06 781036 0 -2.64355e+06 803183 0 -2.66668e+06 826207 0 -2.69052e+06 850188 0 -2.71512e+06 875220 0 -2.74054e+06 901409 0 -2.76684e+06 928877 0 -2.79409e+06 957769 0 -2.82236e+06 988251 0 -2.85174e+06 1.02052e+06 0 -2.88234e+06 1.05481e+06 0 -2.91426e+06 1.0914e+06 0 -2.94765e+06 1.13063e+06 0 -2.98266e+06 1.1729e+06 0 -3.01944e+06 1.21873e+06 0 -3.0582e+06 1.26872e+06 0 -3.09913e+06 1.32368e+06 0 -3.14246e+06 1.38461e+06 0 -3.18842e+06 1.45279e+06 0 -3.23718e+06 1.52994e+06 0 -3.28885e+06 1.61833e+06 0 -3.34332e+06 1.72106e+06 0 -3.40005e+06 1.84245e+06 0 -3.45728e+06 1.9886e+06 0 -3.51093e+06 2.16784e+06 0 -3.55364e+06 2.39194e+06 0 -3.56864e+06 2.67726e+06 0 -3.51335e+06 3.03549e+06 0 -3.31698e+06 3.43889e+06 0 -2.93256e+06 3.7908e+06 0 -2.40929e+06 3.9712e+06 0 -1.88042e+06 3.93876e+06 0 -1.45714e+06 3.76031e+06 0 -1.15884e+06 3.5302e+06 0 -949831 3.29904e+06 0 -798633 3.08107e+06 0 -688184 2.8807e+06 0 -605351 2.69698e+06 0 -2.22034e+06 400414 0 -2.23192e+06 412496 0 -2.24383e+06 424770 0 -2.25606e+06 437247 0 -2.26863e+06 449936 0 -2.28153e+06 462847 0 -2.29476e+06 475993 0 -2.30835e+06 489385 0 -2.32228e+06 503035 0 -2.33657e+06 516958 0 -2.35122e+06 531168 0 -2.36624e+06 545680 0 -2.38164e+06 560512 0 -2.39742e+06 575681 0 -2.4136e+06 591207 0 -2.43018e+06 607112 0 -2.44718e+06 623417 0 -2.4646e+06 640149 0 -2.48246e+06 657334 0 -2.50077e+06 675003 0 -2.51956e+06 693189 0 -2.53883e+06 711927 0 -2.5586e+06 731260 0 -2.57891e+06 751231 0 -2.59976e+06 771890 0 -2.6212e+06 793295 0 -2.64324e+06 815508 0 -2.66593e+06 838601 0 -2.6893e+06 862656 0 -2.71339e+06 887765 0 -2.73825e+06 914035 0 -2.76394e+06 941590 0 -2.79052e+06 970572 0 -2.81806e+06 1.00115e+06 0 -2.84662e+06 1.03351e+06 0 -2.87631e+06 1.0679e+06 0 -2.90722e+06 1.10459e+06 0 -2.93947e+06 1.14391e+06 0 -2.97316e+06 1.18627e+06 0 -3.00844e+06 1.23216e+06 0 -3.04545e+06 1.28218e+06 0 -3.08434e+06 1.33711e+06 0 -3.12526e+06 1.39791e+06 0 -3.16833e+06 1.46582e+06 0 -3.2136e+06 1.54246e+06 0 -3.26098e+06 1.62993e+06 0 -3.31015e+06 1.7311e+06 0 -3.36023e+06 1.84984e+06 0 -3.40915e+06 1.99142e+06 0 -3.45274e+06 2.16287e+06 0 -3.48339e+06 2.37356e+06 0 -3.48543e+06 2.63482e+06 0 -3.4252e+06 2.95224e+06 0 -3.25098e+06 3.30371e+06 0 -2.92615e+06 3.62022e+06 0 -2.47842e+06 3.81054e+06 0 -2.00155e+06 3.82773e+06 0 -1.59036e+06 3.70414e+06 0 -1.28068e+06 3.51134e+06 0 -1.05657e+06 3.30206e+06 0 -891870 3.09773e+06 0 -769282 2.90534e+06 0 -676817 2.72705e+06 0 -605178 2.5615e+06 0 -2.23664e+06 424290 0 -2.24852e+06 436599 0 -2.26072e+06 449111 0 -2.27324e+06 461837 0 -2.28608e+06 474787 0 -2.29925e+06 487972 0 -2.31276e+06 501405 0 -2.3266e+06 515097 0 -2.34079e+06 529063 0 -2.35533e+06 543318 0 -2.37023e+06 557876 0 -2.38549e+06 572756 0 -2.40112e+06 587974 0 -2.41714e+06 603551 0 -2.43354e+06 619507 0 -2.45035e+06 635867 0 -2.46756e+06 652655 0 -2.4852e+06 669899 0 -2.50327e+06 687628 0 -2.5218e+06 705877 0 -2.54079e+06 724682 0 -2.56027e+06 744084 0 -2.58026e+06 764127 0 -2.60077e+06 784864 0 -2.62184e+06 806349 0 -2.64349e+06 828647 0 -2.66575e+06 851830 0 -2.68866e+06 875981 0 -2.71225e+06 901191 0 -2.73657e+06 927569 0 -2.76166e+06 955238 0 -2.78759e+06 984341 0 -2.81441e+06 1.01505e+06 0 -2.84218e+06 1.04755e+06 0 -2.87098e+06 1.08207e+06 0 -2.9009e+06 1.1189e+06 0 -2.93202e+06 1.15837e+06 0 -2.96444e+06 1.20086e+06 0 -2.99825e+06 1.24687e+06 0 -3.03357e+06 1.29698e+06 0 -3.07049e+06 1.35196e+06 0 -3.10907e+06 1.41272e+06 0 -3.14936e+06 1.48044e+06 0 -3.19127e+06 1.55667e+06 0 -3.23458e+06 1.64337e+06 0 -3.27875e+06 1.74316e+06 0 -3.32261e+06 1.85951e+06 0 -3.36389e+06 1.99698e+06 0 -3.39831e+06 2.16145e+06 0 -3.41829e+06 2.36028e+06 0 -3.40935e+06 2.6011e+06 0 -3.34433e+06 2.88556e+06 0 -3.18473e+06 3.19481e+06 0 -2.90295e+06 3.47753e+06 0 -2.51563e+06 3.66455e+06 0 -2.08926e+06 3.71212e+06 0 -1.70052e+06 3.63241e+06 0 -1.39019e+06 3.47604e+06 0 -1.1567e+06 3.29078e+06 0 -981607 3.10206e+06 0 -849045 2.9199e+06 0 -747723 2.7481e+06 0 -668978 2.58749e+06 0 -606532 2.43695e+06 0 -2.25364e+06 449033 0 -2.26581e+06 461586 0 -2.27828e+06 474354 0 -2.29107e+06 487347 0 -2.30418e+06 500577 0 -2.31762e+06 514056 0 -2.33137e+06 527797 0 -2.34547e+06 541814 0 -2.3599e+06 556120 0 -2.37468e+06 570732 0 -2.38981e+06 585667 0 -2.40529e+06 600942 0 -2.42115e+06 616579 0 -2.43738e+06 632597 0 -2.454e+06 649021 0 -2.47101e+06 665876 0 -2.48843e+06 683190 0 -2.50628e+06 700993 0 -2.52455e+06 719318 0 -2.54328e+06 738203 0 -2.56247e+06 757689 0 -2.58214e+06 777822 0 -2.60232e+06 798652 0 -2.62303e+06 820237 0 -2.64429e+06 842641 0 -2.66613e+06 865937 0 -2.68858e+06 890206 0 -2.71168e+06 915544 0 -2.73547e+06 942058 0 -2.75998e+06 969872 0 -2.78526e+06 999128 0 -2.81137e+06 1.03e+06 0 -2.83836e+06 1.06267e+06 0 -2.8663e+06 1.09738e+06 0 -2.89524e+06 1.1344e+06 0 -2.92525e+06 1.17405e+06 0 -2.95642e+06 1.21673e+06 0 -2.9888e+06 1.26292e+06 0 -3.02245e+06 1.3132e+06 0 -3.05743e+06 1.36829e+06 0 -3.09374e+06 1.42908e+06 0 -3.13132e+06 1.49672e+06 0 -3.16998e+06 1.57265e+06 0 -3.20937e+06 1.6587e+06 0 -3.24874e+06 1.75728e+06 0 -3.28673e+06 1.87146e+06 0 -3.32086e+06 2.0052e+06 0 -3.34681e+06 2.16337e+06 0 -3.35711e+06 2.35158e+06 0 -3.33858e+06 2.57472e+06 0 -3.26898e+06 2.83177e+06 0 -3.11924e+06 3.10603e+06 0 -2.86908e+06 3.35794e+06 0 -2.52962e+06 3.53466e+06 0 -2.14894e+06 3.5987e+06 0 -1.78754e+06 3.55158e+06 0 -1.4848e+06 3.42768e+06 0 -1.24793e+06 3.26676e+06 0 -1.06597e+06 3.09489e+06 0 -925802 2.9244e+06 0 -817125 2.76063e+06 0 -731883 2.60556e+06 0 -664037 2.45945e+06 0 -609210 2.32144e+06 0 -2.27134e+06 474699 0 -2.28378e+06 487514 0 -2.29652e+06 500556 0 -2.30957e+06 513837 0 -2.32293e+06 527370 0 -2.33661e+06 541165 0 -2.35061e+06 555239 0 -2.36493e+06 569604 0 -2.37959e+06 584277 0 -2.39459e+06 599276 0 -2.40994e+06 614618 0 -2.42564e+06 630324 0 -2.44171e+06 646414 0 -2.45814e+06 662914 0 -2.47496e+06 679847 0 -2.49217e+06 697243 0 -2.50978e+06 715132 0 -2.52781e+06 733548 0 -2.54627e+06 752529 0 -2.56517e+06 772116 0 -2.58454e+06 792355 0 -2.60439e+06 813298 0 -2.62474e+06 835003 0 -2.64562e+06 857535 0 -2.66705e+06 880966 0 -2.68906e+06 905381 0 -2.71167e+06 930873 0 -2.73493e+06 957552 0 -2.75886e+06 985543 0 -2.78351e+06 1.01499e+06 0 -2.80892e+06 1.04606e+06 0 -2.83514e+06 1.07894e+06 0 -2.8622e+06 1.11388e+06 0 -2.89017e+06 1.15113e+06 0 -2.9191e+06 1.19103e+06 0 -2.94902e+06 1.23396e+06 0 -2.97997e+06 1.28039e+06 0 -3.01199e+06 1.33089e+06 0 -3.04505e+06 1.38617e+06 0 -3.07911e+06 1.44709e+06 0 -3.11402e+06 1.51473e+06 0 -3.14951e+06 1.59046e+06 0 -3.18506e+06 1.67598e+06 0 -3.21978e+06 1.77348e+06 0 -3.25213e+06 1.88571e+06 0 -3.27948e+06 2.01602e+06 0 -3.29746e+06 2.16839e+06 0 -3.29886e+06 2.34699e+06 0 -3.27173e+06 2.55454e+06 0 -3.19774e+06 2.7882e+06 0 -3.05477e+06 3.03289e+06 0 -2.82831e+06 3.25716e+06 0 -2.52679e+06 3.42022e+06 0 -2.18596e+06 3.49127e+06 0 -1.85317e+06 3.4669e+06 0 -1.56348e+06 3.36998e+06 0 -1.32857e+06 3.23205e+06 0 -1.14342e+06 3.07737e+06 0 -998148 2.91941e+06 0 -883829 2.76471e+06 0 -793190 2.61623e+06 0 -720489 2.47496e+06 0 -661507 2.34093e+06 0 -613040 2.21345e+06 0 -2.28973e+06 501346 0 -2.30242e+06 514444 0 -2.31541e+06 527783 0 -2.32871e+06 541375 0 -2.3423e+06 555233 0 -2.35621e+06 569370 0 -2.37044e+06 583803 0 -2.38498e+06 598547 0 -2.39986e+06 613618 0 -2.41506e+06 629037 0 -2.43061e+06 644822 0 -2.44651e+06 660995 0 -2.46277e+06 677581 0 -2.47939e+06 694606 0 -2.49639e+06 712098 0 -2.51378e+06 730087 0 -2.53156e+06 748610 0 -2.54976e+06 767702 0 -2.56839e+06 787408 0 -2.58745e+06 807772 0 -2.60698e+06 828849 0 -2.62698e+06 850695 0 -2.64748e+06 873377 0 -2.6685e+06 896970 0 -2.69006e+06 921556 0 -2.71219e+06 947233 0 -2.73492e+06 974109 0 -2.75828e+06 1.00231e+06 0 -2.78229e+06 1.03198e+06 0 -2.807e+06 1.06329e+06 0 -2.83245e+06 1.09643e+06 0 -2.85865e+06 1.13164e+06 0 -2.88565e+06 1.16918e+06 0 -2.91348e+06 1.20938e+06 0 -2.94215e+06 1.25261e+06 0 -2.97169e+06 1.29935e+06 0 -3.00206e+06 1.35015e+06 0 -3.03321e+06 1.40569e+06 0 -3.06502e+06 1.46681e+06 0 -3.09728e+06 1.53454e+06 0 -3.12961e+06 1.61016e+06 0 -3.16137e+06 1.69526e+06 0 -3.19153e+06 1.79181e+06 0 -3.21839e+06 1.90223e+06 0 -3.23921e+06 2.02935e+06 0 -3.24961e+06 2.17633e+06 0 -3.24268e+06 2.34608e+06 0 -3.20769e+06 2.53963e+06 0 -3.12947e+06 2.75288e+06 0 -2.99122e+06 2.97205e+06 0 -2.7829e+06 3.17159e+06 0 -2.5117e+06 3.31967e+06 0 -2.20504e+06 3.39153e+06 0 -1.9e+06 3.38205e+06 0 -1.6265e+06 3.30642e+06 0 -1.39772e+06 3.18896e+06 0 -1.2128e+06 3.05093e+06 0 -1.06494e+06 2.90578e+06 0 -946802 2.76078e+06 0 -852014 2.61962e+06 0 -775327 2.48393e+06 0 -712670 2.35418e+06 0 -660997 2.23034e+06 0 -617897 2.11183e+06 0 -2.3088e+06 529043 0 -2.32173e+06 542446 0 -2.33496e+06 556105 0 -2.34848e+06 570033 0 -2.3623e+06 584244 0 -2.37642e+06 598753 0 -2.39085e+06 613576 0 -2.4056e+06 628730 0 -2.42067e+06 644235 0 -2.43607e+06 660111 0 -2.45181e+06 676379 0 -2.46789e+06 693065 0 -2.48432e+06 710194 0 -2.50111e+06 727796 0 -2.51827e+06 745902 0 -2.53582e+06 764546 0 -2.55376e+06 783769 0 -2.5721e+06 803611 0 -2.59087e+06 824122 0 -2.61007e+06 845353 0 -2.62972e+06 867364 0 -2.64984e+06 890223 0 -2.67045e+06 914003 0 -2.69157e+06 938791 0 -2.71321e+06 964683 0 -2.73542e+06 991790 0 -2.75819e+06 1.02024e+06 0 -2.78157e+06 1.05017e+06 0 -2.80558e+06 1.08177e+06 0 -2.83024e+06 1.11521e+06 0 -2.85558e+06 1.15074e+06 0 -2.8816e+06 1.18862e+06 0 -2.90832e+06 1.22917e+06 0 -2.93574e+06 1.27278e+06 0 -2.96383e+06 1.31989e+06 0 -2.99254e+06 1.37105e+06 0 -3.02175e+06 1.42693e+06 0 -3.05131e+06 1.48833e+06 0 -3.08089e+06 1.55623e+06 0 -3.11005e+06 1.63183e+06 0 -3.13802e+06 1.71659e+06 0 -3.16365e+06 1.81228e+06 0 -3.1851e+06 1.921e+06 0 -3.19954e+06 2.0451e+06 0 -3.20263e+06 2.18697e+06 0 -3.18781e+06 2.34843e+06 0 -3.14552e+06 2.52917e+06 0 -3.06326e+06 2.72423e+06 0 -2.92836e+06 2.92097e+06 0 -2.73424e+06 3.09831e+06 0 -2.48759e+06 3.23114e+06 0 -2.21005e+06 3.2999e+06 0 -1.93085e+06 3.29937e+06 0 -1.67492e+06 3.2398e+06 0 -1.45522e+06 3.13976e+06 0 -1.27343e+06 3.01714e+06 0 -1.12533e+06 2.88455e+06 0 -1.00519e+06 2.74948e+06 0 -907595 2.61609e+06 0 -827871 2.4865e+06 0 -762246 2.3616e+06 0 -707779 2.24161e+06 0 -662202 2.12644e+06 0 -623676 2.01564e+06 0 -2.32854e+06 557864 0 -2.34169e+06 571598 0 -2.35514e+06 585605 0 -2.36887e+06 599897 0 -2.38289e+06 614492 0 -2.39721e+06 629404 0 -2.41184e+06 644652 0 -2.42677e+06 660255 0 -2.44202e+06 676234 0 -2.4576e+06 692610 0 -2.4735e+06 709409 0 -2.48974e+06 726658 0 -2.50632e+06 744385 0 -2.52326e+06 762623 0 -2.54057e+06 781408 0 -2.55825e+06 800779 0 -2.57631e+06 820780 0 -2.59478e+06 841458 0 -2.61365e+06 862867 0 -2.63295e+06 885069 0 -2.65269e+06 908131 0 -2.67289e+06 932128 0 -2.69356e+06 957149 0 -2.71472e+06 983290 0 -2.73638e+06 1.01066e+06 0 -2.75858e+06 1.0394e+06 0 -2.78131e+06 1.06964e+06 0 -2.8046e+06 1.10156e+06 0 -2.82847e+06 1.13536e+06 0 -2.85291e+06 1.17126e+06 0 -2.87794e+06 1.20953e+06 0 -2.90353e+06 1.2505e+06 0 -2.92967e+06 1.29454e+06 0 -2.95628e+06 1.34209e+06 0 -2.98329e+06 1.39369e+06 0 -3.01053e+06 1.44998e+06 0 -3.03777e+06 1.51173e+06 0 -3.06464e+06 1.57987e+06 0 -3.09057e+06 1.65551e+06 0 -3.11472e+06 1.74e+06 0 -3.13578e+06 1.8349e+06 0 -3.15183e+06 1.94198e+06 0 -3.15998e+06 2.06315e+06 0 -3.15595e+06 2.20008e+06 0 -3.13359e+06 2.35363e+06 0 -3.08445e+06 2.52244e+06 0 -2.99836e+06 2.70098e+06 0 -2.8659e+06 2.87766e+06 0 -2.68319e+06 3.03489e+06 0 -2.45672e+06 3.15279e+06 0 -2.20403e+06 3.21606e+06 0 -1.94838e+06 3.22015e+06 0 -1.71024e+06 3.17221e+06 0 -1.50145e+06 3.08644e+06 0 -1.32508e+06 2.97755e+06 0 -1.17881e+06 2.85684e+06 0 -1.05837e+06 2.73159e+06 0 -959300 2.60617e+06 0 -877548 2.483e+06 0 -809704 2.3633e+06 0 -753022 2.24758e+06 0 -705321 2.13592e+06 0 -664883 2.02822e+06 0 -630285 1.92411e+06 0 -2.34893e+06 587892 0 -2.36229e+06 601987 0 -2.37593e+06 616371 0 -2.38985e+06 631062 0 -2.40406e+06 646075 0 -2.41856e+06 661428 0 -2.43336e+06 677142 0 -2.44846e+06 693236 0 -2.46388e+06 709734 0 -2.4796e+06 726662 0 -2.49565e+06 744045 0 -2.51203e+06 761916 0 -2.52874e+06 780305 0 -2.54581e+06 799250 0 -2.56322e+06 818790 0 -2.58101e+06 838970 0 -2.59916e+06 859840 0 -2.61771e+06 881453 0 -2.63665e+06 903873 0 -2.65601e+06 927166 0 -2.67578e+06 951413 0 -2.696e+06 976699 0 -2.71666e+06 1.00313e+06 0 -2.73778e+06 1.0308e+06 0 -2.75938e+06 1.05987e+06 0 -2.78145e+06 1.09046e+06 0 -2.80401e+06 1.12276e+06 0 -2.82706e+06 1.15695e+06 0 -2.85059e+06 1.19328e+06 0 -2.87459e+06 1.23201e+06 0 -2.89901e+06 1.27346e+06 0 -2.92382e+06 1.31799e+06 0 -2.94892e+06 1.36605e+06 0 -2.97417e+06 1.41815e+06 0 -2.99937e+06 1.47492e+06 0 -3.02422e+06 1.53709e+06 0 -3.04829e+06 1.60553e+06 0 -3.07091e+06 1.68127e+06 0 -3.09113e+06 1.76553e+06 0 -3.10757e+06 1.8