<?xml version="1.0"?> 
<VTKFile type="StructuredGrid" version="0.1"> 
<StructuredGrid WholeExtent="0 63 0 63 0 0"> 
<Piece Extent="0 63 0 63 0 0"> 
<PointData>
<DataArray type="Float32" Name="|E|" format="ascii" NumberOfComponents="3"> 
1106.05 9.53674e-07 0 104.506 -509.846 0 85.2507 -291.404 0 -22.1975 -269.341 0 -44.9399 -202.017 0 -70.8695 -167.923 0 -79.4595 -131.994 0 -84.2769 -105.691 0 -84.1205 -82.9707 0 -81.6991 -64.8512 0 -77.5908 -49.937 0 -72.6053 -37.895 0 -67.1571 -28.1514 0 -61.5704 -20.3302 0 -56.0492 -14.083 0 -50.7303 -9.13023 0 -45.6981 -5.23622 0 -41.0008 -2.20583 0 -36.6617 0.122781 0 -32.6862 1.88349 0 -29.0679 3.18672 0 -25.7924 4.12336 0 -22.8407 4.76799 0 -20.1907 5.18166 0 -17.8192 5.41415 0 -15.7027 5.50596 0 -13.8183 5.48989 0 -12.1439 5.39241 0 -10.6589 5.2348 0 -9.34398 5.03406 0 -8.18135 4.80369 0 -7.15473 4.55438 0 -6.24934 4.29447 0 -5.45177 4.03045 0 -4.74998 3.76727 0 -4.13311 3.50867 0 -3.59147 3.25741 0 -3.11638 3.01546 0 -2.70012 2.78417 0 -2.33579 2.56439 0 -2.01728 2.3566 0 -1.73917 2.16095 0 -1.49661 1.97739 0 -1.28536 1.80566 0 -1.10162 1.6454 0 -0.94204 1.49613 0 -0.803661 1.3573 0 -0.68386 1.22833 0 -0.580319 1.10859 0 -0.490983 0.99745 0 -0.414038 0.894268 0 -0.347874 0.798402 0 -0.291064 0.709216 0 -0.242344 0.626085 0 -0.200585 0.548397 0 -0.164782 0.475556 0 -0.134032 0.406976 0 -0.107523 0.34209 0 -0.0845169 0.280343 0 -0.0643407 0.22119 0 -0.0463706 0.1641 0 -0.0300242 0.10855 0 -0.0147438 0.0540195 0 9.89437e-06 -3.57628e-07 0 849.963 -1.37091e-06 0 207.036 -420.479 0 74.333 -295.046 0 1.68244 -254.533 0 -40.1171 -202.248 0 -61.3066 -165.256 0 -74.0921 -132.663 0 -79.0324 -106.26 0 -80.2534 -84.3392 0 -78.4603 -66.3471 0 -75.0555 -51.6104 0 -70.5776 -39.5903 0 -65.5714 -29.8335 0 -60.3377 -21.9524 0 -55.108 -15.6234 0 -50.0255 -10.5739 0 -45.1852 -6.57607 0 -40.6426 -3.43959 0 -36.4275 -1.00604 0 -32.5505 0.856101 0 -29.0099 2.25579 0 -25.7949 3.283 0 -22.8897 4.01185 0 -20.2747 4.5032 0 -17.9289 4.80691 0 -15.8306 4.96365 0 -13.9584 5.00653 0 -12.2916 4.96238 0 -10.8103 4.85284 0 -9.49608 4.69533 0 -8.33192 4.50375 0 -7.30206 4.28916 0 -6.39215 4.06029 0 -5.58916 3.82397 0 -4.8813 3.58547 0 -4.25797 3.34884 0 -3.70966 3.11711 0 -3.22782 2.89251 0 -2.80484 2.67661 0 -2.43393 2.47047 0 -2.10902 2.27475 0 -1.82473 2.08978 0 -1.57628 1.91566 0 -1.35942 1.75227 0 -1.17038 1.59936 0 -1.00582 1.45656 0 -0.86278 1.32343 0 -0.738638 1.19947 0 -0.631071 1.08412 0 -0.538023 0.97684 0 -0.45767 0.87703 0 -0.388397 0.784106 0 -0.32877 0.697482 0 -0.277517 0.616574 0 -0.233503 0.540808 0 -0.195716 0.469616 0 -0.163248 0.402446 0 -0.135284 0.338749 0 -0.111082 0.277989 0 -0.0899678 0.219639 0 -0.071318 0.16318 0 -0.0545498 0.108095 0 -0.0391165 0.0538717 0 -0.0244696 1.45286e-07 0 674.206 1.74344e-06 0 257.15 -348.035 0 81.1374 -288.136 0 15.7993 -243.195 0 -31.5871 -199.784 0 -53.7903 -163.146 0 -68.0501 -132.569 0 -74.1821 -106.757 0 -76.2644 -85.4242 0 -75.2722 -67.7062 0 -72.4748 -53.1375 0 -68.5265 -41.1804 0 -63.9439 -31.4263 0 -59.065 -23.5043 0 -54.1242 -17.1075 0 -49.2791 -11.9731 0 -44.6318 -7.8811 0 -40.2458 -4.64649 0 -36.1569 -2.11458 0 -32.3809 -0.156345 0 -28.9205 1.33544 0 -25.7685 2.4497 0 -22.9122 3.25993 0 -20.3345 3.82671 0 -18.0167 4.19985 0 -15.9388 4.42015 0 -14.0808 4.52091 0 -12.4231 4.52928 0 -10.9472 4.46724 0 -9.63525 4.35255 0 -8.47093 4.1995 0 -7.43907 4.01949 0 -6.52577 3.8216 0 -5.71835 3.61298 0 -5.00534 3.39924 0 -4.37637 3.18468 0 -3.82211 2.97262 0 -3.33418 2.76552 0 -2.90508 2.56518 0 -2.5281 2.37287 0 -2.19726 2.18941 0 -1.90722 2.01533 0 -1.65324 1.85084 0 -1.43111 1.69597 0 -1.23706 1.5506 0 -1.06778 1.41446 0 -0.920311 1.28721 0 -0.792031 1.16842 0 -0.680619 1.05765 0 -0.584017 0.954376 0 -0.500396 0.85809 0 -0.428138 0.768257 0 -0.365802 0.684337 0 -0.312111 0.605791 0 -0.265924 0.532079 0 -0.226226 0.462669 0 -0.192104 0.397033 0 -0.162741 0.334649 0 -0.137393 0.275001 0 -0.115385 0.217579 0 -0.0960956 0.161873 0 -0.0789439 0.107379 0 -0.0633908 0.0535908 0 -0.0488891 1.50874e-07 0 550.517 -1.52737e-06 0 276.99 -289.669 0 93.8246 -274.818 0 25.9842 -233.316 0 -22.3814 -195.819 0 -46.9098 -161.034 0 -62.0335 -132.002 0 -69.4323 -107.064 0 -72.3042 -86.2838 0 -72.0839 -68.9086 0 -69.8822 -54.5274 0 -66.4472 -42.6625 0 -62.2842 -32.9301 0 -57.7548 -24.9848 0 -53.1018 -18.5339 0 -48.4935 -13.3264 0 -44.04 -9.14994 0 -39.8121 -5.82521 0 -35.8512 -3.20151 0 -32.1785 -1.1526 0 -28.8004 0.426863 0 -25.7138 1.62457 0 -22.9087 2.51327 0 -20.3706 3.15316 0 -18.0829 3.59387 0 -16.0273 3.87625 0 -14.1853 4.03377 0 -12.5387 4.0938 0 -11.0696 4.07861 0 -9.76142 4.00629 0 -8.59829 3.89144 0 -7.56565 3.74581 0 -6.65005 3.57879 0 -5.83921 3.39785 0 -5.12196 3.20888 0 -4.48816 3.01647 0 -3.92869 2.82419 0 -3.43533 2.63473 0 -3.00069 2.4501 0 -2.61817 2.27177 0 -2.28187 2.10076 0 -1.98651 1.93772 0 -1.72738 1.78304 0 -1.5003 1.63688 0 -1.30155 1.49922 0 -1.12782 1.36991 0 -0.976149 1.24871 0 -0.843941 1.13527 0 -0.72887 1.02921 0 -0.628877 0.930104 0 -0.542133 0.83749 0 -0.467017 0.75089 0 -0.402084 0.669812 0 -0.346052 0.593759 0 -0.29778 0.522232 0 -0.256245 0.454728 0 -0.220536 0.390751 0 -0.189832 0.329803 0 -0.163389 0.271387 0 -0.140533 0.215012 0 -0.120645 0.160182 0 -0.103147 0.106404 0 -0.0875078 0.0531781 0 -0.0731867 -5.40167e-07 0 461.219 8.64267e-07 0 279.593 -242.724 0 106.835 -257.918 0 34.5268 -223.873 0 -13.5699 -190.96 0 -40.2795 -158.692 0 -56.2215 -131.087 0 -64.7422 -107.143 0 -68.4023 -86.9414 0 -68.9005 -69.9498 0 -67.2857 -55.7843 0 -64.3465 -44.0357 0 -60.5969 -34.3451 0 -56.4114 -26.3931 0 -52.044 -19.902 0 -47.6715 -14.6329 0 -43.4122 -10.3815 0 -39.3433 -6.97461 0 -35.512 -4.26569 0 -31.9442 -2.13155 0 -28.6507 -0.468871 0 -25.6315 0.808633 0 -22.8797 1.77284 0 -20.3833 2.48342 0 -18.1276 2.98979 0 -16.0963 3.33273 0 -14.2722 3.54581 0 -12.6382 3.65657 0 -11.1776 3.68753 0 -9.87456 3.65705 0 -8.71392 3.58004 0 -7.68169 3.46854 0 -6.7649 3.33224 0 -5.95163 3.17891 0 -5.23102 3.01471 0 -4.59321 2.84449 0 -4.02926 2.67206 0 -3.53112 2.50034 0 -3.09154 2.33155 0 -2.70402 2.16735 0 -2.36273 2.00893 0 -2.06246 1.8571 0 -1.79856 1.7124 0 -1.56689 1.5751 0 -1.36374 1.44532 0 -1.18582 1.323 0 -1.0302 1.208 0 -0.894273 1.10006 0 -0.775732 0.998869 0 -0.672517 0.904073 0 -0.582799 0.815272 0 -0.504956 0.73204 0 -0.437541 0.653936 0 -0.379272 0.580505 0 -0.329002 0.511287 0 -0.28571 0.445813 0 -0.248482 0.383614 0 -0.216496 0.32422 0 -0.189011 0.267155 0 -0.165353 0.211946 0 -0.144907 0.158112 0 -0.127101 0.105172 0 -0.111409 0.0526341 0 -0.0973001 2.68221e-07 0 394.967 -7.15256e-07 0 272.756 -204.924 0 117.734 -239.427 0 42.2288 -214.355 0 -5.48919 -185.554 0 -33.8418 -156.029 0 -50.6495 -129.888 0 -60.1289 -106.987 0 -64.5655 -87.4093 0 -65.7345 -70.831 0 -64.691 -56.9108 0 -62.2312 -45.3006 0 -58.8865 -35.6715 0 -55.0391 -27.7287 0 -50.954 -21.211 0 -46.8158 -15.8916 0 -42.7504 -11.5748 0 -38.8412 -8.09362 0 -35.1407 -5.30607 0 -31.6794 -3.09213 0 -28.4722 -1.35074 0 -25.5224 0.00286818 0 -22.8258 1.03955 0 -20.373 1.81837 0 -18.1513 2.38841 0 -16.146 2.79033 0 -14.3415 3.05771 0 -12.7217 3.21822 0 -11.2712 3.29457 0 -9.97464 3.30537 0 -8.81778 3.26578 0 -7.78714 3.18811 0 -6.87022 3.08235 0 -6.05549 2.95652 0 -5.33242 2.81704 0 -4.69139 2.66902 0 -4.12369 2.51649 0 -3.62143 2.36259 0 -3.1775 2.20974 0 -2.7855 2.05979 0 -2.43971 1.91409 0 -2.13497 1.77362 0 -1.86669 1.63903 0 -1.63076 1.51075 0 -1.42351 1.38899 0 -1.24168 1.27382 0 -1.08235 1.16516 0 -0.942934 1.06286 0 -0.821119 0.966685 0 -0.714854 0.876337 0 -0.622315 0.79148 0 -0.541879 0.711746 0 -0.472103 0.636743 0 -0.4117 0.566058 0 -0.359525 0.499268 0 -0.314557 0.435942 0 -0.27588 0.375639 0 -0.242675 0.317913 0 -0.214201 0.262315 0 -0.189788 0.208388 0 -0.168825 0.155669 0 -0.150747 0.103686 0 -0.135035 0.0519609 0 -0.121169 1.04308e-07 0 344.457 7.45058e-07 0 261.062 -174.381 0 125.751 -220.648 0 49.2364 -204.594 0 1.82004 -179.787 0 -27.6477 -153.038 0 -45.3115 -128.436 0 -55.6202 -106.602 0 -60.7976 -87.6945 0 -62.5981 -71.5563 0 -62.1037 -57.909 0 -60.108 -46.4585 0 -57.1577 -36.9096 0 -53.642 -28.9916 0 -49.8352 -22.4605 0 -45.9294 -17.1018 0 -42.0571 -12.729 0 -38.3076 -9.18131 0 -34.7387 -6.32166 0 -31.3853 -4.03336 0 -28.2659 -2.21777 0 -25.3871 -0.791797 0 -22.7476 0.314297 0 -20.3402 1.15885 0 -18.1543 1.79053 0 -16.1767 2.24977 0 -14.3934 2.57014 0 -12.7895 2.77936 0 -11.3503 2.90031 0 -10.0617 2.95176 0 -8.90985 2.94913 0 -7.88194 2.90497 0 -6.96594 2.82951 0 -6.15072 2.73103 0 -5.42606 2.61619 0 -4.78261 2.49034 0 -4.21188 2.35773 0 -3.70615 2.2217 0 -3.25845 2.08488 0 -2.86252 1.94928 0 -2.51269 1.81641 0 -2.20392 1.68741 0 -1.93164 1.56308 0 -1.69181 1.44395 0 -1.48078 1.33035 0 -1.29532 1.22245 0 -1.13253 1.12028 0 -0.989838 1.02376 0 -0.864945 0.932722 0 -0.755807 0.84695 0 -0.660604 0.766165 0 -0.577715 0.690053 0 -0.505698 0.618269 0 -0.443269 0.550447 0 -0.389285 0.486203 0 -0.342723 0.425137 0 -0.30267 0.366842 0 -0.268308 0.310899 0 -0.2389 0.256879 0 -0.213781 0.204346 0 -0.192343 0.152856 0 -0.174029 0.10195 0 -0.158328 0.0511597 0 -0.144733 -9.68575e-08 0 304.919 -2.98023e-07 0 247.178 -149.581 0 130.904 -202.398 0 55.4836 -194.608 0 8.3984 -173.766 0 -21.7578 -149.745 0 -40.2022 -126.749 0 -51.2381 -106.004 0 -57.105 -87.8034 0 -59.5011 -72.131 0 -59.5304 -58.7814 0 -57.9828 -47.511 0 -55.4154 -38.06 0 -52.2241 -30.1819 0 -48.691 -23.6502 0 -45.0148 -18.2631 0 -41.3344 -13.8433 0 -37.7446 -10.2369 0 -34.3078 -7.31159 0 -31.0631 -4.95435 0 -28.0328 -3.06908 0 -25.2266 -1.57449 0 -22.6457 -0.402082 0 -20.2854 0.505659 0 -18.1369 1.19688 0 -16.1887 1.71177 0 -14.4281 2.08376 0 -12.8415 2.34062 0 -11.4152 2.50529 0 -10.1357 2.59674 0 -8.99011 2.63055 0 -7.96605 2.61952 0 -7.052 2.5741 0 -6.23723 2.50279 0 -5.51184 2.41248 0 -4.86677 2.30875 0 -4.29372 2.19605 0 -3.78517 2.07793 0 -3.3343 1.95718 0 -2.93496 1.836 0 -2.58159 1.71607 0 -2.2692 1.59864 0 -1.99332 1.48467 0 -1.74993 1.37481 0 -1.53544 1.2695 0 -1.34663 1.169 0 -1.18064 1.07344 0 -1.0349 0.982816 0 -0.907131 0.897046 0 -0.795299 0.815971 0 -0.697591 0.739377 0 -0.61239 0.667003 0 -0.538259 0.598555 0 -0.473915 0.533708 0 -0.418218 0.472119 0 -0.370147 0.413424 0 -0.328793 0.357245 0 -0.29334 0.303191 0 -0.263054 0.250858 0 -0.237275 0.199831 0 -0.215404 0.149682 0 -0.196889 0.0999682 0 -0.181231 0.0502328 0 -0.167934 2.30968e-07 0 273.199 5.96046e-08 0 232.627 -129.321 0 133.55 -185.151 0 60.8736 -184.506 0 14.2969 -167.562 0 -16.2182 -146.191 0 -35.323 -124.846 0 -46.9984 -105.205 0 -53.4961 -87.7433 0 -56.4518 -72.5606 0 -56.9779 -59.531 0 -55.861 -48.4602 0 -53.6643 -39.1238 0 -50.7894 -31.2999 0 -47.5246 -24.78 0 -44.075 -19.375 0 -40.5848 -14.9172 0 -37.1538 -11.2596 0 -33.8493 -8.27506 0 -30.7142 -5.85427 0 -27.774 -3.90383 0 -25.0416 -2.34438 0 -22.5209 -1.10879 0 -20.2091 -0.140446 0 -18.0995 0.608205 0 -16.1822 1.177 0 -14.4458 1.59922 0 -12.8779 1.90257 0 -11.4658 2.11007 0 -10.1968 2.2408 0 -9.05858 2.31052 0 -8.03946 2.33221 0 -7.12837 2.31651 0 -6.31498 2.27215 0 -5.58971 2.20624 0 -4.94378 2.12454 0 -4.36912 2.03171 0 -3.8584 1.93149 0 -3.40495 1.82686 0 -3.00273 1.72015 0 -2.64629 1.61322 0 -2.33073 1.50747 0 -2.05164 1.40396 0 -1.80505 1.30347 0 -1.5874 1.20655 0 -1.39553 1.11357 0 -1.22659 1.02473 0 -1.07803 0.94012 0 -0.947598 0.859729 0 -0.833256 0.783464 0 -0.733205 0.711172 0 -0.645838 0.642646 0 -0.56972 0.57764 0 -0.503575 0.515876 0 -0.446264 0.457048 0 -0.396772 0.400828 0 -0.354192 0.346869 0 -0.317713 0.294809 0 -0.286606 0.244268 0 -0.260217 0.194853 0 -0.237954 0.146154 0 -0.219274 0.0977455 0 -0.203687 0.0491823 0 -0.190712 4.47035e-08 0 247.177 5.06639e-07 0 218.25 -112.658 0 134.149 -169.154 0 65.3474 -174.424 0 19.5559 -161.236 0 -11.0563 -142.421 0 -30.6801 -122.745 0 -42.9126 -104.223 0 -49.9797 -87.5223 0 -53.4575 -72.8509 0 -54.4528 -60.1615 0 -53.7481 -49.3081 0 -51.9089 -40.1022 0 -49.3416 -32.3462 0 -46.3394 -25.8499 0 -43.1125 -20.4373 0 -39.8104 -15.9502 0 -36.5374 -12.2489 0 -33.3649 -9.21141 0 -30.3397 -6.73239 0 -27.4905 -4.72126 0 -24.8331 -3.10071 0 -22.3737 -1.80507 0 -20.1119 -0.778733 0 -18.0426 0.0251916 0 -16.1577 0.646124 0 -14.4469 1.11712 0 -12.899 1.46579 0 -11.5023 1.71518 0 -10.245 1.88446 0 -9.1153 1.98949 0 -8.10218 2.04343 0 -7.19503 2.05712 0 -6.38392 2.03947 0 -5.65961 1.99777 0 -5.01359 1.93799 0 -4.43802 1.86498 0 -3.92577 1.78264 0 -3.4703 1.69412 0 -3.06573 1.60193 0 -2.70671 1.50806 0 -2.38842 1.41404 0 -2.1065 1.32107 0 -1.85706 1.23005 0 -1.63659 1.14162 0 -1.44195 1.05625 0 -1.27031 0.974241 0 -1.11917 0.895751 0 -0.986272 0.820843 0 -0.869605 0.749493 0 -0.767378 0.681606 0 -0.677991 0.617031 0 -0.600018 0.55557 0 -0.532186 0.496989 0 -0.473364 0.441022 0 -0.42254 0.387376 0 -0.378812 0.335737 0 -0.341374 0.285771 0 -0.309504 0.237124 0 -0.282554 0.189424 0 -0.259939 0.142282 0 -0.241128 0.0952872 0 -0.225642 0.0480112 0 -0.213012 -2.98023e-07 0 225.406 -4.47035e-07 0 204.488 -98.8553 0 133.156 -154.499 0 68.8981 -164.497 0 24.206 -154.841 0 -6.28529 -138.48 0 -26.2814 -120.466 0 -38.989 -103.073 0 -46.5641 -87.1495 0 -50.525 -73.0083 0 -51.9611 -60.6768 0 -51.6491 -50.0574 0 -50.1539 -40.9966 0 -47.8846 -33.3217 0 -45.1385 -26.8604 0 -42.1302 -21.4499 0 -39.0135 -16.942 0 -35.8972 -13.2042 0 -32.8563 -10.12 0 -29.9411 -7.58804 0 -27.1835 -5.52067 0 -24.6019 -3.84277 0 -22.205 -2.49022 0 -19.9943 -1.40851 0 -17.9667 -0.551495 0 -16.1153 0.119773 0 -14.4315 0.638058 0 -12.9049 1.03085 0 -11.5249 1.32116 0 -10.2803 1.52818 0 -9.16031 1.66791 0 -8.15422 1.75362 0 -7.25197 1.79632 0 -6.44402 1.80509 0 -5.72149 1.7874 0 -5.07613 1.7494 0 -4.50035 1.69611 0 -3.98719 1.63161 0 -3.5303 1.5592 0 -3.1239 1.48154 0 -2.76277 1.40076 0 -2.44217 1.31853 0 -2.15783 1.23617 0 -1.9059 1.15468 0 -1.68292 1.07483 0 -1.48579 0.997166 0 -1.31172 0.922072 0 -1.15823 0.849794 0 -1.02308 0.780465 0 -0.90428 0.714125 0 -0.800045 0.65074 0 -0.708788 0.590212 0 -0.629092 0.532391 0 -0.559692 0.477088 0 -0.499461 0.424076 0 -0.447395 0.373099 0 -0.402598 0.323875 0 -0.364269 0.276099 0 -0.331694 0.229442 0 -0.304232 0.183557 0 -0.281308 0.138073 0 -0.2624 0.0925999 0 -0.247041 0.0467223 0 -0.234777 1.78814e-07 0 206.878 4.17233e-07 0 191.547 -87.3363 0 130.972 -141.187 0 71.5633 -154.841 0 28.2723 -148.431 0 -1.90818 -134.407 0 -22.1343 -118.032 0 -35.2343 -101.769 0 -43.257 -86.6347 0 -47.6605 -73.0392 0 -49.5087 -61.0812 0 -49.5691 -50.7109 0 -48.4035 -41.8089 0 -46.4221 -34.2274 0 -43.9251 -27.8118 0 -41.1306 -22.413 0 -38.1965 -17.8925 0 -35.235 -14.1253 0 -32.3249 -11.0004 0 -29.5196 -8.42064 0 -26.8539 -6.30142 0 -24.3489 -4.5699 0 -22.0154 -3.16358 0 -19.857 -2.02913 0 -17.8721 -1.12122 0 -16.0556 -0.401446 0 -14.3999 0.162622 0 -12.8959 0.598291 0 -11.5337 0.928495 0 -10.303 1.17245 0 -9.1937 1.34621 0 -8.19563 1.46318 0 -7.2992 1.53448 0 -6.49528 1.56936 0 -5.77533 1.57545 0 -5.13137 1.55907 0 -4.55605 1.52538 0 -4.04261 1.47864 0 -3.58486 1.4223 0 -3.17716 1.35917 0 -2.8144 1.2915 0 -2.49192 1.22109 0 -2.20554 1.14939 0 -1.95148 1.07751 0 -1.72631 1.0063 0 -1.52699 0.936415 0 -1.35076 0.868319 0 -1.19515 0.802337 0 -1.05796 0.738673 0 -0.937216 0.677432 0 -0.831143 0.618637 0 -0.738168 0.562243 0 -0.656884 0.508151 0 -0.586035 0.456214 0 -0.524501 0.406247 0 -0.471285 0.358028 0 -0.425499 0.31131 0 -0.386349 0.265814 0 -0.353128 0.221241 0 -0.325203 0.177266 0 -0.30201 0.133539 0 -0.283038 0.0896898 0 -0.267831 0.0453188 0 -0.255954 -2.68221e-07 0 190.879 -5.66244e-07 0 179.501 -77.6526 0 127.926 -129.161 0 73.4113 -145.546 0 31.7799 -142.056 0 2.07857 -130.243 0 -18.2441 -115.465 0 -31.654 -100.326 0 -40.0647 -85.988 0 -44.8698 -72.9504 0 -47.1009 -61.3794 0 -47.5127 -51.2716 0 -46.6617 -42.5412 0 -44.9576 -35.0644 0 -42.7022 -28.7049 0 -40.1165 -23.3268 0 -37.3615 -18.8016 0 -34.5528 -15.0118 0 -31.7724 -11.8522 0 -29.0766 -9.22969 0 -26.503 -7.06297 0 -24.075 -5.28151 0 -21.8057 -3.82454 0 -19.7005 -2.63999 0 -17.7595 -1.68339 0 -15.979 -0.916955 0 -14.3525 -0.308637 0 -12.8721 0.168639 0 -11.5288 0.537699 0 -10.3132 0.817734 0 -9.21555 1.02485 0 -8.22645 1.17251 0 -7.33675 1.27198 0 -6.53771 1.33263 0 -5.82111 1.36224 0 -5.17927 1.36727 0 -4.60508 1.35306 0 -4.09198 1.32398 0 -3.63393 1.28366 0 -3.22545 1.23502 0 -2.86152 1.18046 0 -2.53761 1.12191 0 -2.24958 1.0609 0 -1.99373 0.998662 0 -1.76671 0.936154 0 -1.56548 0.874111 0 -1.38735 0.813083 0 -1.22987 0.753472 0 -1.09085 0.69555 0 -0.968351 0.639486 0 -0.860613 0.58536 0 -0.766074 0.533183 0 -0.683339 0.482901 0 -0.611161 0.434414 0 -0.548431 0.387574 0 -0.49416 0.342197 0 -0.447465 0.298068 0 -0.407564 0.254941 0 -0.373755 0.21254 0 -0.345418 0.170565 0 -0.321997 0.128691 0 -0.302993 0.0865643 0 -0.287963 0.0438041 0 -0.276488 3.27826e-07 0 176.89 2.98023e-07 0 168.349 -69.4527 0 124.283 -118.335 0 74.5286 -136.677 0 34.7562 -135.763 0 5.68316 -126.02 0 -14.6134 -112.788 0 -28.252 -98.7608 0 -36.9927 -85.22 0 -42.158 -72.7492 0 -44.7425 -61.5764 0 -45.4843 -51.743 0 -44.9324 -43.1956 0 -43.4945 -35.8343 0 -41.4728 -29.5405 0 -39.0904 -24.1916 0 -36.5108 -19.6693 0 -33.8525 -15.8636 0 -31.2004 -12.675 0 -28.6135 -10.0148 0 -26.1319 -7.80481 0 -23.7813 -5.97705 0 -21.5767 -4.47254 0 -19.5256 -3.2405 0 -17.6294 -2.23744 0 -15.8857 -1.4262 0 -14.2896 -0.775189 0 -12.8339 -0.257598 0 -11.5106 0.149247 0 -10.3109 0.464484 0 -9.22597 0.704227 0 -8.24677 0.88201 0 -7.36466 1.00918 0 -6.57131 1.09523 0 -5.85883 1.14807 0 -5.21983 1.1743 0 -4.64742 1.1794 0 -4.13525 1.16788 0 -3.67747 1.1435 0 -3.26871 1.10931 0 -2.90409 1.06784 0 -2.57916 1.02113 0 -2.28988 0.970838 0 -2.03261 0.918283 0 -1.80404 0.864519 0 -1.60121 0.81037 0 -1.42143 0.75647 0 -1.26231 0.703292 0 -1.12169 0.651179 0 -0.99763 0.600361 0 -0.8884 0.550978 0 -0.792452 0.50309 0 -0.708404 0.456695 0 -0.635021 0.411732 0 -0.571203 0.368097 0 -0.515969 0.325641 0 -0.468449 0.284182 0 -0.427866 0.243503 0 -0.393531 0.203358 0 -0.36483 0.163472 0 -0.341221 0.12354 0 -0.322216 0.083231 0 -0.307386 0.0421825 0 -0.296329 -3.72529e-07 0 164.53 -4.76837e-07 0 158.052 -62.4603 0 120.248 -108.607 0 75.0085 -128.274 0 37.2327 -129.593 0 8.91712 -121.773 0 -11.2424 -110.023 0 -25.0312 -97.0877 0 -34.0453 -84.3413 0 -39.5298 -72.4428 0 -42.438 -61.6774 0 -43.4881 -52.1287 0 -43.2194 -43.7745 0 -42.0361 -36.5385 0 -40.2397 -30.3195 0 -38.0547 -25.0081 0 -35.6464 -20.4959 0 -33.1359 -16.6807 0 -30.6104 -13.4687 0 -28.1315 -10.7755 0 -25.7416 -8.52651 0 -23.4686 -6.65605 0 -21.3293 -5.10706 0 -19.3328 -3.83015 0 -17.4822 -2.78283 0 -15.7764 -1.92866 0 -14.2115 -1.23652 0 -12.7815 -0.679933 0 -11.4792 -0.236395 0 -10.2965 0.113141 0 -9.22508 0.384769 0 -8.25667 0.592064 0 -7.38299 0.746444 0 -6.59612 0.857499 0 -5.8885 0.933263 0 -5.25302 0.980452 0 -4.68305 1.00467 0 -4.17241 1.01057 0 -3.71544 1.00203 0 -3.30691 0.982236 0 -2.94206 0.953822 0 -2.61653 0.918946 0 -2.32639 0.879368 0 -2.06804 0.836512 0 -1.83826 0.791522 0 -1.63411 0.745308 0 -1.45296 0.698582 0 -1.29244 0.651892 0 -1.15043 0.605645 0 -1.025 0.560136 0 -0.914452 0.515559 0 -0.817252 0.472027 0 -0.73203 0.429585 0 -0.657565 0.388218 0 -0.592767 0.347859 0 -0.536668 0.308396 0 -0.488404 0.269681 0 -0.447211 0.231528 0 -0.412409 0.193718 0 -0.383395 0.156002 0 -0.359637 0.118099 0 -0.340661 0.0796982 0 -0.326053 0.0404574 0 -0.315426 2.38419e-07 0 153.51 4.17233e-07 0 148.552 -56.4578 0 115.977 -99.8736 0 74.9442 -120.359 0 39.244 -123.582 0 11.7946 -117.531 0 -8.12885 -107.192 0 -21.9932 -95.3219 0 -31.2259 -83.3627 0 -36.9892 -72.0389 0 -40.1913 -61.6876 0 -41.5277 -52.4323 0 -41.5261 -44.2806 0 -40.5854 -37.1789 0 -39.0058 -31.0431 0 -37.0119 -25.7768 0 -34.7705 -21.2817 0 -32.4048 -17.4631 0 -30.004 -14.2331 0 -27.6321 -11.5117 0 -25.3334 -9.22771 0 -23.1378 -7.31807 0 -21.0641 -5.72762 0 -19.1228 -4.40844 0 -17.3185 -3.31907 0 -15.6514 -2.42384 0 -14.1187 -1.69216 0 -12.7153 -1.0979 0 -11.4348 -0.618778 0 -10.2699 -0.235871 0 -9.21302 0.0668773 0 -8.25624 0.303052 0 -7.39181 0.484128 0 -6.61219 0.619773 0 -5.91015 0.718122 0 -5.27887 0.786003 0 -4.71195 0.829137 0 -4.20343 0.852303 0 -3.74781 0.859487 0 -3.34 0.854001 0 -2.97538 0.838589 0 -2.64968 0.815516 0 -2.35906 0.786644 0 -2.09999 0.753493 0 -1.8693 0.717295 0 -1.66413 0.679044 0 -1.48187 0.639529 0 -1.3202 0.599369 0 -1.177 0.559037 0 -1.05041 0.518888 0 -0.938721 0.479173 0 -0.840426 0.440057 0 -0.754171 0.40163 0 -0.678749 0.363921 0 -0.613082 0.326902 0 -0.556212 0.2905 0 -0.507289 0.254599 0 -0.465557 0.219043 0 -0.430347 0.183642 0 -0.401069 0.148174 0 -0.377202 0.112381 0 -0.358285 0.0759748 0 -0.343919 0.0386338 0 -0.333734 -2.23517e-07 0 143.608 -3.57628e-07 0 139.783 -51.2721 0 111.586 -92.0333 0 74.4236 -112.938 0 40.8272 -117.759 0 14.3318 -113.319 0 -5.26824 -104.316 0 -19.1383 -93.4779 0 -28.5371 -82.2947 0 -34.5395 -71.5451 0 -38.0061 -61.6127 0 -39.6067 -52.6579 0 -39.8557 -44.7167 0 -39.1456 -37.7574 0 -37.7736 -31.7125 0 -35.9642 -26.4986 0 -33.8851 -22.0271 0 -31.6609 -18.211 0 -29.3827 -14.9681 0 -27.1164 -12.2231 0 -24.9083 -9.90811 0 -22.79 -7.96274 0 -20.782 -6.33383 0 -18.8963 -4.97493 0 -17.1389 -3.8457 0 -15.5112 -2.91128 0 -14.0114 -2.14164 0 -12.6354 -1.51104 0 -11.3777 -0.99747 0 -10.2315 -0.582137 0 -9.18994 -0.249057 0 -8.24561 0.0153456 0 -7.39121 0.222577 0 -6.61957 0.382372 0 -5.92381 0.50295 0 -5.29739 0.591237 0 -4.73414 0.653061 0 -4.22831 0.693313 0 -3.77456 0.716089 0 -3.36797 0.724811 0 -3.00402 0.722331 0 -2.67857 0.711017 0 -2.38784 0.692825 0 -2.1284 0.669369 0 -1.89714 0.64197 0 -1.69123 0.611698 0 -1.50813 0.579419 0 -1.34553 0.545821 0 -1.20138 0.511444 0 -1.07381 0.4767 0 -0.961162 0.441895 0 -0.86193 0.407245 0 -0.774783 0.372886 0 -0.698529 0.338891 0 -0.632103 0.305273 0 -0.574561 0.271992 0 -0.525062 0.238968 0 -0.482862 0.206075 0 -0.447305 0.173153 0 -0.417812 0.140005 0 -0.393874 0.106399 0 -0.375045 0.0720697 0 -0.360939 0.0367159 0 -0.351205 7.45058e-08 0 134.652 2.98023e-07 0 131.68 -46.7653 0 107.161 -84.9906 0 73.5271 -106.007 0 42.0211 -112.147 0 16.5466 -109.161 0 -2.65434 -101.413 0 -16.4656 -91.5702 0 -25.9802 -81.1479 0 -32.1834 -70.9692 0 -35.8853 -61.4582 0 -37.7282 -52.8094 0 -38.2113 -45.0857 0 -37.7192 -38.276 0 -36.5457 -32.3292 0 -34.914 -27.1744 0 -32.9923 -22.7326 0 -30.906 -18.9246 0 -28.7481 -15.6738 0 -26.5859 -12.9096 0 -24.4675 -10.5675 0 -22.4261 -8.58975 0 -20.4838 -6.92529 0 -18.654 -5.52921 0 -16.944 -4.36229 0 -15.3563 -3.39053 0 -13.8902 -2.58452 0 -12.5424 -1.91894 0 -11.3081 -1.37206 0 -10.1815 -0.925259 0 -9.15602 -0.562654 0 -8.22491 -0.270697 0 -7.38127 -0.0378672 0 -6.61833 0.145617 0 -5.92954 0.288045 0 -5.3086 0.396432 0 -4.74962 0.4767 0 -4.24704 0.533841 0 -3.79569 0.572057 0 -3.3908 0.594871 0 -3.02797 0.605237 0 -2.70317 0.60562 0 -2.41272 0.59807 0 -2.15325 0.584288 0 -1.92172 0.565678 0 -1.71537 0.54339 0 -1.53168 0.518363 0 -1.36841 0.491351 0 -1.22352 0.462957 0 -1.09517 0.433652 0 -0.981733 0.403797 0 -0.881723 0.373657 0 -0.793827 0.343414 0 -0.716867 0.313184 0 -0.649794 0.283017 0 -0.591675 0.252914 0 -0.541685 0.222824 0 -0.49909 0.192655 0 -0.463246 0.162276 0 -0.433586 0.131516 0 -0.409615 0.100169 0 -0.3909 0.0679927 0 -0.377072 0.0347084 0 -0.367797 5.96046e-08 0 126.505 -3.57628e-07 0 124.182 -42.8265 0 102.764 -78.6578 0 72.3257 -99.5519 0 42.8645 -106.76 0 18.4581 -105.076 0 -0.279341 -98.5013 0 -13.9731 -89.6123 0 -23.5561 -79.9326 0 -29.9229 -70.3187 0 -33.8317 -61.2299 0 -35.895 -52.8912 0 -36.5955 -45.3906 0 -36.3089 -38.737 0 -35.3244 -32.8947 0 -33.8634 -27.8051 0 -32.0938 -23.399 0 -30.1419 -19.6042 0 -28.1016 -16.3504 0 -26.0418 -13.5711 0 -24.012 -11.2056 0 -22.0471 -9.19883 0 -20.1703 -7.5017 0 -18.3966 -6.0709 0 -16.7343 -4.86845 0 -15.1872 -3.86121 0 -13.7553 -3.02041 0 -12.4364 -2.32119 0 -11.2264 -1.74215 0 -10.12 -1.26485 0 -9.11143 -0.873545 0 -8.19427 -0.554725 0 -7.36212 -0.296874 0 -6.60857 -0.0901813 0 -5.92738 0.0737016 0 -5.31256 0.201862 0 -4.75843 0.300308 0 -4.25963 0.374126 0 -3.81119 0.427611 0 -3.40847 0.464385 0 -3.0472 0.487495 0 -2.72346 0.499499 0 -2.43365 0.502537 0 -2.1745 0.498394 0 -1.94303 0.488554 0 -1.73651 0.474245 0 -1.55251 0.456472 0 -1.3888 0.436059 0 -1.24338 0.413669 0 -1.11445 0.38983 0 -1.0004 0.364956 0 -0.89977 0.339361 0 -0.811266 0.313274 0 -0.733726 0.286851 0 -0.666117 0.260183 0 -0.60752 0.233305 0 -0.557122 0.206203 0 -0.514204 0.178814 0 -0.478132 0.151036 0 -0.448354 0.122727 0 -0.424388 0.093705 0 -0.405814 0.0637536 0 -0.39228 0.0326168 0 -0.383467 2.98023e-08 0 119.055 2.98023e-07 0 117.23 -39.366 0 98.4369 -72.9557 0 70.8815 -93.5526 0 43.3953 -101.612 0 20.0862 -101.083 0 1.86579 -95.5964 0 -11.6575 -87.6172 0 -21.2646 -78.6589 0 -27.7595 -69.6014 0 -31.8473 -60.9334 0 -34.1095 -52.9075 0 -35.011 -45.6347 0 -34.9171 -39.1425 0 -34.1119 -33.4106 0 -32.8144 -28.392 0 -31.1915 -24.0268 0 -29.37 -20.2503 0 -27.4446 -16.9979 0 -25.4853 -14.2078 0 -23.543 -11.8225 0 -21.6538 -9.78978 0 -19.8423 -8.06276 0 -18.1247 -6.5997 0 -16.5105 -5.36382 0 -15.0043 -4.32292 0 -13.6073 -3.44891 0 -12.3179 -2.71741 0 -11.1328 -2.10735 0 -10.0474 -1.60056 0 -9.05636 -1.18138 0 -8.15385 -0.836398 0 -7.33387 -0.554121 0 -6.59037 -0.324716 0 -5.91742 -0.139795 0 -5.30931 0.00779578 0 -4.76059 0.124138 0 -4.26612 0.214401 0 -3.82108 0.282969 0 -3.42099 0.333554 0 -3.06171 0.369291 0 -2.73942 0.392827 0 -2.45063 0.406386 0 -2.19214 0.411835 0 -1.96102 0.410734 0 -1.75463 0.404383 0 -1.57057 0.393859 0 -1.40665 0.380047 0 -1.26093 0.363672 0 -1.13161 0.345317 0 -1.01713 0.325448 0 -0.916036 0.304427 0 -0.827066 0.282528 0 -0.749073 0.259949 0 -0.681039 0.236819 0 -0.622062 0.213211 0 -0.571341 0.189141 0 -0.528171 0.164582 0 -0.491932 0.139458 0 -0.462084 0.113657 0 -0.438158 0.0870228 0 -0.419752 0.0593629 0 -0.406524 0.0304461 0 -0.398179 -2.68221e-07 0 112.211 -2.38419e-07 0 110.772 -36.3111 0 94.2111 -67.8135 0 69.2474 -87.9862 0 43.6499 -96.7067 0 21.4512 -97.1954 0 3.79108 -92.713 0 -9.51496 -85.597 0 -19.105 -77.3364 0 -25.6942 -68.8246 0 -29.934 -60.5745 0 -32.374 -52.8625 0 -33.4598 -45.821 0 -33.546 -39.4951 0 -32.9104 -33.8786 0 -31.7689 -28.9362 0 -30.2873 -24.6169 0 -28.5921 -20.8634 0 -26.7786 -17.6167 0 -24.9177 -14.8195 0 -23.0615 -12.4179 0 -21.2472 -10.3624 0 -19.5007 -8.60824 0 -17.8391 -7.1153 0 -16.2731 -5.84808 0 -14.8082 -4.77532 0 -13.4465 -3.86966 0 -12.1872 -3.10723 0 -11.0276 -2.46732 0 -9.96382 -1.93201 0 -8.99101 -1.48581 0 -8.10383 -1.11539 0 -7.29666 -0.809293 0 -6.56383 -0.557691 0 -5.89973 -0.352161 0 -5.29891 -0.185501 0 -4.75615 -0.0515622 0 -4.26652 0.0548997 0 -3.82537 0.138349 0 -3.42836 0.202579 0 -3.07149 0.250813 0 -2.75105 0.285776 0 -2.46364 0.309776 0 -2.20613 0.324756 0 -1.97568 0.332351 0 -1.7697 0.333931 0 -1.58584 0.330638 0 -1.42196 0.323421 0 -1.27613 0.313062 0 -1.14663 0.3002 0 -1.03188 0.285351 0 -0.930492 0.268924 0 -0.841198 0.251239 0 -0.762878 0.232533 0 -0.694532 0.212975 0 -0.635272 0.192673 0 -0.584312 0.171678 0 -0.540962 0.149991 0 -0.504614 0.127571 0 -0.474743 0.104329 0 -0.450894 0.0801382 0 -0.432678 0.0548314 0 -0.419771 0.0282016 0 -0.411895 3.27826e-07 0 105.899 3.57628e-07 0 104.759 -33.6019 0 90.106 -63.1685 0 67.4681 -82.8275 0 43.6624 -92.0469 0 22.5735 -93.4241 0 5.50727 -89.8638 0 -7.54055 -83.5631 0 -17.0756 -75.9743 0 -23.7271 -67.9958 0 -28.0931 -60.1588 0 -30.6901 -52.7607 0 -31.944 -45.953 0 -32.1976 -39.7972 0 -31.7218 -34.3006 0 -30.7287 -29.439 0 -29.3826 -25.1703 0 -27.8095 -21.4441 0 -26.1048 -18.2072 0 -24.3402 -15.4066 0 -22.5686 -12.992 0 -20.8283 -10.9167 0 -19.1462 -9.13796 0 -17.5405 -7.61746 0 -16.0227 -6.32093 0 -14.5994 -5.21811 0 -13.2734 -4.28234 0 -12.0446 -3.49032 0 -10.9111 -2.82171 0 -9.86958 -2.25888 0 -8.91561 -1.78651 0 -8.04436 -1.39138 0 -7.25063 -1.06209 0 -6.52908 -0.788815 0 -5.87441 -0.563123 0 -5.28143 -0.377769 0 -4.74517 -0.226548 0 -4.26088 -0.104151 0 -3.82408 -0.00603814 0 -3.43061 0.0716604 0 -3.07656 0.132244 0 -2.75835 0.178518 0 -2.47267 0.212866 0 -2.21648 0.237305 0 -1.98701 0.25354 0 -1.78171 0.26301 0 -1.5983 0.266922 0 -1.43469 0.266283 0 -1.28898 0.261934 0 -1.15948 0.254565 0 -1.04465 0.244743 0 -0.943113 0.232924 0 -0.853636 0.219471 0 -0.775115 0.204661 0 -0.706567 0.188703 0 -0.647122 0.171737 0 -0.596007 0.15385 0 -0.552548 0.135076 0 -0.51615 0.1154 0 -0.486303 0.0947641 0 -0.462565 0.073068 0 -0.444563 0.0501704 0 -0.431989 0.025889 0 -0.42458 -2.38419e-07 0 100.056 -1.78814e-07 0 99.1506 -31.1893 0 86.1337 -58.9651 0 65.5813 -78.0504 0 43.4645 -87.6313 0 23.4732 -89.7783 0 7.02563 -87.0599 0 -5.72874 -81.5259 0 -15.1744 -74.5814 0 -21.8582 -67.122 0 -26.3254 -59.692 0 -29.0594 -52.6064 0 -30.4655 -46.0339 0 -30.8737 -40.0512 0 -30.5478 -34.6784 0 -29.6956 -29.9018 0 -28.4792 -25.6878 0 -27.0237 -21.993 0 -25.4245 -18.7696 0 -23.7539 -15.9692 0 -22.0653 -13.5448 0 -20.3979 -11.4525 0 -18.7796 -9.65177 0 -17.2294 -8.10596 0 -15.7599 -6.78213 0 -14.3784 -5.65098 0 -13.0884 -4.68663 0 -11.8906 -3.86635 0 -10.7837 -3.1702 0 -9.76492 -2.58084 0 -8.83037 -2.08316 0 -7.97564 -1.66406 0 -7.19593 -1.31221 0 -6.48623 -1.01781 0 -5.84155 -0.772412 0 -5.25696 -0.568754 0 -4.72771 -0.400581 0 -4.24924 -0.262524 0 -3.81727 -0.14998 0 -3.42775 -0.0590064 0 -3.07693 0.0137682 0 -2.76133 0.0712234 0 -2.47773 0.115813 0 -2.22318 0.149626 0 -1.99497 0.174437 0 -1.79064 0.191746 0 -1.60794 0.202825 0 -1.44482 0.208739 0 -1.29944 0.210383 0 -1.17014 0.2085 0 -1.0554 0.203705 0 -0.953876 0.196499 0 -0.864357 0.187289 0 -0.78576 0.176391 0 -0.717122 0.164052 0 -0.657588 0.150448 0 -0.606403 0.135699 0 -0.562904 0.119869 0 -0.526515 0.102974 0 -0.496738 0.0849849 0 -0.473145 0.0658289 0 -0.45538 0.0453907 0 -0.443147 0.0235138 0 -0.436205 2.98023e-08 0 94.6276 1.78814e-07 0 93.9071 -29.0325 0 82.301 -55.1545 0 63.6177 -73.6288 0 43.0851 -83.4557 0 24.1697 -86.2644 0 8.3577 -84.3111 0 -4.07346 -79.495 0 -13.3987 -73.1661 0 -20.0868 -66.21 0 -24.6316 -59.1795 0 -27.483 -52.4039 0 -29.0255 -46.0671 0 -29.576 -40.2598 0 -29.3902 -35.014 0 -28.6712 -30.326 0 -27.5785 -26.1705 0 -26.2361 -22.5108 0 -24.7391 -19.3045 0 -23.1599 -16.5075 0 -21.5525 -14.0763 0 -19.9569 -11.9698 0 -