<?xml version="1.0"?> 
<VTKFile type="StructuredGrid" version="0.1"> 
<StructuredGrid WholeExtent="0 63 0 63 0 0"> 
<Piece Extent="0 63 0 63 0 0"> 
<PointData>
<DataArray type="Float32" Name="|E|" format="ascii" NumberOfComponents="3"> 
-1.84117e+06 0 0 -1.84162e+06 25013.7 0 -1.84295e+06 50054.7 0 -1.84518e+06 75150 0 -1.84828e+06 100327 0 -1.85228e+06 125615 0 -1.85715e+06 151040 0 -1.86292e+06 176632 0 -1.86956e+06 202422 0 -1.87709e+06 228439 0 -1.88549e+06 254714 0 -1.89478e+06 281282 0 -1.90494e+06 308176 0 -1.91597e+06 335431 0 -1.92787e+06 363086 0 -1.94062e+06 391181 0 -1.95423e+06 419756 0 -1.96869e+06 448858 0 -1.98397e+06 478534 0 -2.00008e+06 508835 0 -2.01698e+06 539818 0 -2.03467e+06 571540 0 -2.0531e+06 604069 0 -2.07226e+06 637474 0 -2.09209e+06 671832 0 -2.11256e+06 707230 0 -2.13359e+06 743760 0 -2.15512e+06 781526 0 -2.17705e+06 820642 0 -2.19926e+06 861232 0 -2.22161e+06 903434 0 -2.24391e+06 947399 0 -2.26593e+06 993288 0 -2.28738e+06 1.04127e+06 0 -2.30791e+06 1.09153e+06 0 -2.32703e+06 1.14423e+06 0 -2.34418e+06 1.19951e+06 0 -2.35861e+06 1.25748e+06 0 -2.36943e+06 1.31814e+06 0 -2.37551e+06 1.38132e+06 0 -2.37554e+06 1.44663e+06 0 -2.36801e+06 1.51325e+06 0 -2.35128e+06 1.57987e+06 0 -2.32382e+06 1.64445e+06 0 -2.28442e+06 1.7042e+06 0 -2.23264e+06 1.75558e+06 0 -2.16918e+06 1.79463e+06 0 -2.09613e+06 1.81745e+06 0 -2.01686e+06 1.82094e+06 0 -1.93559e+06 1.80326e+06 0 -1.85669e+06 1.76411e+06 0 -1.78397e+06 1.70451e+06 0 -1.72023e+06 1.6263e+06 0 -1.66716e+06 1.5315e+06 0 -1.62552e+06 1.42192e+06 0 -1.59523e+06 1.29886e+06 0 -1.57543e+06 1.16243e+06 0 -1.56579e+06 1.01146e+06 0 -1.56737e+06 845130 0 -1.57593e+06 663697 0 -1.58092e+06 445231 0 -1.62756e+06 162910 0 -1.85129e+06 -111731 0 -2.22302e+06 -1.90735e-06 0 -1.83866e+06 0 0 -1.83911e+06 25102.2 0 -1.84044e+06 50231.6 0 -1.84266e+06 75415.5 0 -1.84576e+06 100681 0 -1.84974e+06 126057 0 -1.8546e+06 151571 0 -1.86034e+06 177251 0 -1.86697e+06 203129 0 -1.87447e+06 229234 0 -1.88285e+06 255597 0 -1.8921e+06 282252 0 -1.90223e+06 309233 0 -1.91322e+06 336575 0 -1.92507e+06 364316 0 -1.93779e+06 392496 0 -1.95135e+06 421157 0 -1.96575e+06 450342 0 -1.98097e+06 480100 0 -1.99701e+06 510483 0 -2.01384e+06 541543 0 -2.03145e+06 573343 0 -2.0498e+06 605944 0 -2.06887e+06 639419 0 -2.0886e+06 673843 0 -2.10896e+06 709301 0 -2.12988e+06 745884 0 -2.15128e+06 783694 0 -2.17306e+06 822844 0 -2.19512e+06 863455 0 -2.2173e+06 905662 0 -2.23942e+06 949611 0 -2.26124e+06 995458 0 -2.28248e+06 1.04337e+06 0 -2.30277e+06 1.09351e+06 0 -2.32164e+06 1.14604e+06 0 -2.33853e+06 1.20109e+06 0 -2.3527e+06 1.25875e+06 0 -2.36325e+06 1.31899e+06 0 -2.36911e+06 1.38165e+06 0 -2.36897e+06 1.44628e+06 0 -2.36137e+06 1.51207e+06 0 -2.34474e+06 1.57769e+06 0 -2.31761e+06 1.64115e+06 0 -2.27887e+06 1.69968e+06 0 -2.22812e+06 1.74986e+06 0 -2.16608e+06 1.78783e+06 0 -2.09481e+06 1.80986e+06 0 -2.01756e+06 1.81294e+06 0 -1.93843e+06 1.79529e+06 0 -1.86163e+06 1.75658e+06 0 -1.79085e+06 1.69775e+06 0 -1.72886e+06 1.62053e+06 0 -1.67735e+06 1.52684e+06 0 -1.63712e+06 1.41841e+06 0 -1.60813e+06 1.29643e+06 0 -1.58973e+06 1.16105e+06 0 -1.58161e+06 1.01111e+06 0 -1.58472e+06 845880 0 -1.59488e+06 664403 0 -1.60575e+06 447687 0 -1.65831e+06 174155 0 -1.87274e+06 -77953.2 0 -2.18178e+06 2.94298e-07 0 -1.83615e+06 0 0 -1.8366e+06 25190.4 0 -1.83792e+06 50408 0 -1.84013e+06 75680.1 0 -1.84322e+06 101034 0 -1.84719e+06 126498 0 -1.85204e+06 152099 0 -1.85776e+06 177868 0 -1.86436e+06 203833 0 -1.87184e+06 230026 0 -1.88019e+06 256477 0 -1.88942e+06 283219 0 -1.89951e+06 310287 0 -1.91046e+06 337715 0 -1.92227e+06 365542 0 -1.93494e+06 393807 0 -1.94845e+06 422552 0 -1.96279e+06 451820 0 -1.97796e+06 481661 0 -1.99394e+06 512123 0 -2.0107e+06 543262 0 -2.02823e+06 575137 0 -2.0465e+06 607811 0 -2.06547e+06 641355 0 -2.08511e+06 675844 0 -2.10536e+06 711360 0 -2.12616e+06 747995 0 -2.14743e+06 785849 0 -2.16908e+06 825031 0 -2.19098e+06 865662 0 -2.21299e+06 907872 0 -2.23493e+06 951803 0 -2.25656e+06 997607 0 -2.27758e+06 1.04544e+06 0 -2.29764e+06 1.09547e+06 0 -2.31628e+06 1.14783e+06 0 -2.33291e+06 1.20265e+06 0 -2.34682e+06 1.25999e+06 0 -2.35713e+06 1.31982e+06 0 -2.36277e+06 1.38195e+06 0 -2.36247e+06 1.44591e+06 0 -2.35482e+06 1.51089e+06 0 -2.33831e+06 1.57554e+06 0 -2.31153e+06 1.63789e+06 0 -2.27344e+06 1.69524e+06 0 -2.22371e+06 1.74425e+06 0 -2.16308e+06 1.7812e+06 0 -2.09355e+06 1.80247e+06 0 -2.01829e+06 1.80515e+06 0 -1.94125e+06 1.78753e+06 0 -1.8665e+06 1.74925e+06 0 -1.79765e+06 1.69117e+06 0 -1.73739e+06 1.61492e+06 0 -1.68743e+06 1.52232e+06 0 -1.64859e+06 1.41502e+06 0 -1.62093e+06 1.29415e+06 0 -1.60391e+06 1.1598e+06 0 -1.59732e+06 1.01092e+06 0 -1.60194e+06 846752 0 -1.61396e+06 665500 0 -1.63003e+06 450647 0 -1.68785e+06 185760 0 -1.89131e+06 -48425.5 0 -2.14998e+06 7.7486e-07 0 -1.83363e+06 0 0 -1.83407e+06 25278.4 0 -1.8354e+06 50583.9 0 -1.8376e+06 75943.9 0 -1.84068e+06 101386 0 -1.84463e+06 126937 0 -1.84946e+06 152627 0 -1.85517e+06 178483 0 -1.86175e+06 204536 0 -1.86921e+06 230816 0 -1.87753e+06 257354 0 -1.88672e+06 284183 0 -1.89678e+06 311337 0 -1.90769e+06 338851 0 -1.91947e+06 366764 0 -1.93209e+06 395113 0 -1.94555e+06 423942 0 -1.95984e+06 453293 0 -1.97494e+06 483215 0 -1.99085e+06 513757 0 -2.00755e+06 544973 0 -2.025e+06 576923 0 -2.04318e+06 609670 0 -2.06207e+06 643282 0 -2.08161e+06 677834 0 -2.10175e+06 713408 0 -2.12243e+06 750094 0 -2.14358e+06 787990 0 -2.16509e+06 827204 0 -2.18684e+06 867853 0 -2.20869e+06 910065 0 -2.23045e+06 953977 0 -2.25188e+06 999736 0 -2.2727e+06 1.04749e+06 0 -2.29253e+06 1.0974e+06 0 -2.31093e+06 1.14959e+06 0 -2.32731e+06 1.20418e+06 0 -2.34098e+06 1.26121e+06 0 -2.35105e+06 1.32063e+06 0 -2.35648e+06 1.38223e+06 0 -2.35604e+06 1.44554e+06 0 -2.34836e+06 1.50971e+06 0 -2.33197e+06 1.57341e+06 0 -2.30555e+06 1.63469e+06 0 -2.26812e+06 1.69089e+06 0 -2.21941e+06 1.73877e+06 0 -2.16016e+06 1.77472e+06 0 -2.09234e+06 1.79526e+06 0 -2.01903e+06 1.79757e+06 0 -1.94404e+06 1.77997e+06 0 -1.87131e+06 1.74211e+06 0 -1.80435e+06 1.68478e+06 0 -1.74581e+06 1.60947e+06 0 -1.69739e+06 1.51796e+06 0 -1.65996e+06 1.41178e+06 0 -1.63363e+06 1.292e+06 0 -1.61799e+06 1.1587e+06 0 -1.61292e+06 1.0109e+06 0 -1.61906e+06 847768 0 -1.63308e+06 666956 0 -1.65385e+06 454085 0 -1.71616e+06 197488 0 -1.90789e+06 -22481.1 0 -2.12587e+06 -1.75834e-06 0 -1.83109e+06 0 0 -1.83154e+06 25366.1 0 -1.83286e+06 50759.3 0 -1.83505e+06 76206.8 0 -1.83812e+06 101736 0 -1.84207e+06 127375 0 -1.84688e+06 153152 0 -1.85257e+06 179096 0 -1.85913e+06 205236 0 -1.86656e+06 231603 0 -1.87486e+06 258228 0 -1.88402e+06 285143 0 -1.89404e+06 312383 0 -1.90492e+06 339983 0 -1.91665e+06 367981 0 -1.92922e+06 396415 0 -1.94263e+06 425327 0 -1.95687e+06 454760 0 -1.97192e+06 484762 0 -1.98776e+06 515383 0 -2.00438e+06 546677 0 -2.02176e+06 578701 0 -2.03986e+06 611519 0 -2.05866e+06 645199 0 -2.0781e+06 679814 0 -2.09813e+06 715445 0 -2.1187e+06 752181 0 -2.13972e+06 790119 0 -2.16109e+06 829363 0 -2.1827e+06 870029 0 -2.20439e+06 912241 0 -2.22597e+06 956133 0 -2.24721e+06 1.00185e+06 0 -2.26782e+06 1.04952e+06 0 -2.28744e+06 1.09931e+06 0 -2.3056e+06 1.15133e+06 0 -2.32174e+06 1.20568e+06 0 -2.33517e+06 1.2624e+06 0 -2.34502e+06 1.32142e+06 0 -2.35026e+06 1.3825e+06 0 -2.34969e+06 1.44515e+06 0 -2.34198e+06 1.50853e+06 0 -2.32574e+06 1.57131e+06 0 -2.29969e+06 1.63153e+06 0 -2.26292e+06 1.68662e+06 0 -2.21522e+06 1.73341e+06 0 -2.15733e+06 1.7684e+06 0 -2.09119e+06 1.78823e+06 0 -2.01979e+06 1.79018e+06 0 -1.94681e+06 1.77263e+06 0 -1.87607e+06 1.73518e+06 0 -1.81097e+06 1.67856e+06 0 -1.75413e+06 1.60419e+06 0 -1.70725e+06 1.51373e+06 0 -1.67121e+06 1.40867e+06 0 -1.64621e+06 1.28998e+06 0 -1.63196e+06 1.15775e+06 0 -1.62842e+06 1.01103e+06 0 -1.63609e+06 848939 0 -1.6522e+06 668747 0 -1.67723e+06 457965 0 -1.74328e+06 209185 0 -1.92314e+06 404.812 0 -2.10811e+06 1.54972e-06 0 -1.82855e+06 0 0 -1.829e+06 25453.5 0 -1.83031e+06 50934.1 0 -1.8325e+06 76469 0 -1.83556e+06 102086 0 -1.83949e+06 127812 0 -1.84429e+06 153676 0 -1.84996e+06 179707 0 -1.8565e+06 205934 0 -1.86391e+06 232387 0 -1.87218e+06 259099 0 -1.88131e+06 286100 0 -1.8913e+06 313426 0 -1.90214e+06 341112 0 -1.91382e+06 369194 0 -1.92635e+06 397711 0 -1.93971e+06 426706 0 -1.95389e+06 456221 0 -1.96888e+06 486304 0 -1.98466e+06 517003 0 -2.00122e+06 548374 0 -2.01852e+06 580472 0 -2.03654e+06 613360 0 -2.05524e+06 647107 0 -2.07458e+06 681784 0 -2.09451e+06 717471 0 -2.11497e+06 754256 0 -2.13586e+06 792234 0 -2.1571e+06 831507 0 -2.17856e+06 872189 0 -2.20008e+06 914400 0 -2.22149e+06 958270 0 -2.24254e+06 1.00393e+06 0 -2.26295e+06 1.05153e+06 0 -2.28235e+06 1.1012e+06 0 -2.30029e+06 1.15305e+06 0 -2.3162e+06 1.20716e+06 0 -2.3294e+06 1.26357e+06 0 -2.33903e+06 1.32218e+06 0 -2.34409e+06 1.38275e+06 0 -2.34341e+06 1.44476e+06 0 -2.33569e+06 1.50736e+06 0 -2.31961e+06 1.56922e+06 0 -2.29394e+06 1.62843e+06 0 -2.25783e+06 1.68244e+06 0 -2.21113e+06 1.72816e+06 0 -2.15459e+06 1.76223e+06 0 -2.0901e+06 1.78138e+06 0 -2.02056e+06 1.78299e+06 0 -1.94955e+06 1.76548e+06 0 -1.88076e+06 1.72843e+06 0 -1.81751e+06 1.67252e+06 0 -1.76235e+06 1.59907e+06 0 -1.71699e+06 1.50966e+06 0 -1.68236e+06 1.40569e+06 0 -1.65869e+06 1.28809e+06 0 -1.64583e+06 1.15693e+06 0 -1.6438e+06 1.01132e+06 0 -1.65303e+06 850275 0 -1.67127e+06 670855 0 -1.70021e+06 462245 0 -1.76929e+06 220735 0 -1.93755e+06 20682.9 0 -2.09559e+06 -1.35601e-06 0 -1.82601e+06 0 0 -1.82645e+06 25540.6 0 -1.82776e+06 51108.3 0 -1.82994e+06 76730.3 0 -1.83299e+06 102434 0 -1.83691e+06 128247 0 -1.84169e+06 154198 0 -1.84735e+06 180316 0 -1.85386e+06 206629 0 -1.86125e+06 233169 0 -1.86949e+06 259967 0 -1.87859e+06 287054 0 -1.88854e+06 314465 0 -1.89934e+06 342236 0 -1.91099e+06 370402 0 -1.92347e+06 399003 0 -1.93678e+06 428080 0 -1.95091e+06 457677 0 -1.96584e+06 487839 0 -1.98156e+06 518617 0 -1.99804e+06 550063 0 -2.01526e+06 582234 0 -2.0332e+06 615193 0 -2.05182e+06 649005 0 -2.07106e+06 683743 0 -2.09089e+06 719486 0 -2.11123e+06 756319 0 -2.132e+06 794336 0 -2.1531e+06 833638 0 -2.17441e+06 874334 0 -2.19578e+06 916543 0 -2.21702e+06 960390 0 -2.23789e+06 1.00601e+06 0 -2.2581e+06 1.05352e+06 0 -2.27729e+06 1.10306e+06 0 -2.295e+06 1.15474e+06 0 -2.31069e+06 1.20862e+06 0 -2.32366e+06 1.26472e+06 0 -2.33309e+06 1.32293e+06 0 -2.33798e+06 1.38298e+06 0 -2.3372e+06 1.44436e+06 0 -2.32949e+06 1.5062e+06 0 -2.31357e+06 1.56717e+06 0 -2.28828e+06 1.62537e+06 0 -2.25285e+06 1.67833e+06 0 -2.20714e+06 1.72303e+06 0 -2.15192e+06 1.75621e+06 0 -2.08905e+06 1.77471e+06 0 -2.02135e+06 1.776e+06 0 -1.95227e+06 1.75853e+06 0 -1.8854e+06 1.72188e+06 0 -1.82396e+06 1.66665e+06 0 -1.77047e+06 1.59411e+06 0 -1.72663e+06 1.50573e+06 0 -1.69339e+06 1.40285e+06 0 -1.67107e+06 1.28634e+06 0 -1.65958e+06 1.15627e+06 0 -1.65906e+06 1.01176e+06 0 -1.66987e+06 851782 0 -1.69027e+06 673262 0 -1.72279e+06 466886 0 -1.79427e+06 232065 0 -1.95148e+06 38731.1 0 -2.08746e+06 1.80304e-06 0 -1.82345e+06 0 0 -1.82389e+06 25627.5 0 -1.82519e+06 51282 0 -1.82737e+06 76990.9 0 -1.83041e+06 102781 0 -1.83432e+06 128681 0 -1.83909e+06 154719 0 -1.84472e+06 180923 0 -1.85122e+06 207323 0 -1.85857e+06 233949 0 -1.86679e+06 260832 0 -1.87586e+06 288005 0 -1.88578e+06 315501 0 -1.89654e+06 343356 0 -1.90815e+06 371606 0 -1.92059e+06 400290 0 -1.93385e+06 429449 0 -1.94792e+06 459127 0 -1.96279e+06 489368 0 -1.97844e+06 520224 0 -1.99486e+06 551745 0 -2.012e+06 583989 0 -2.02986e+06 617017 0 -2.04839e+06 650894 0 -2.06754e+06 685693 0 -2.08726e+06 721490 0 -2.10749e+06 758371 0 -2.12813e+06 796425 0 -2.1491e+06 835754 0 -2.17027e+06 876464 0 -2.19148e+06 918669 0 -2.21255e+06 962491 0 -2.23323e+06 1.00806e+06 0 -2.25325e+06 1.05549e+06 0 -2.27223e+06 1.10491e+06 0 -2.28974e+06 1.15641e+06 0 -2.30521e+06 1.21006e+06 0 -2.31796e+06 1.26585e+06 0 -2.32719e+06 1.32366e+06 0 -2.33193e+06 1.3832e+06 0 -2.33106e+06 1.44396e+06 0 -2.32337e+06 1.50505e+06 0 -2.30762e+06 1.56514e+06 0 -2.28274e+06 1.62237e+06 0 -2.24797e+06 1.67431e+06 0 -2.20324e+06 1.71802e+06 0 -2.14933e+06 1.75033e+06 0 -2.08806e+06 1.76821e+06 0 -2.02216e+06 1.76919e+06 0 -1.95497e+06 1.75177e+06 0 -1.88999e+06 1.71551e+06 0 -1.83034e+06 1.66096e+06 0 -1.7785e+06 1.5893e+06 0 -1.73616e+06 1.50194e+06 0 -1.70431e+06 1.40014e+06 0 -1.68333e+06 1.28473e+06 0 -1.67323e+06 1.15574e+06 0 -1.67422e+06 1.01236e+06 0 -1.68661e+06 853465 0 -1.70917e+06 675953 0 -1.74501e+06 471849 0 -1.81833e+06 243127 0 -1.96518e+06 54870 0 -2.08301e+06 -1.16229e-06 0 -1.82088e+06 0 0 -1.82132e+06 25714.1 0 -1.82262e+06 51455.2 0 -1.82479e+06 77250.6 0 -1.82782e+06 103128 0 -1.83171e+06 129114 0 -1.83647e+06 155238 0 -1.84209e+06 181528 0 -1.84856e+06 208014 0 -1.8559e+06 234726 0 -1.86408e+06 261694 0 -1.87312e+06 288952 0 -1.88301e+06 316533 0 -1.89373e+06 344472 0 -1.9053e+06 372806 0 -1.91769e+06 401573 0 -1.9309e+06 430813 0 -1.94492e+06 460571 0 -1.95973e+06 490892 0 -1.97532e+06 521824 0 -1.99166e+06 553420 0 -2.00874e+06 585736 0 -2.02651e+06 618832 0 -2.04495e+06 652774 0 -2.06401e+06 687633 0 -2.08362e+06 723484 0 -2.10374e+06 760410 0 -2.12426e+06 798502 0 -2.1451e+06 837857 0 -2.16612e+06 878579 0 -2.18718e+06 920779 0 -2.20808e+06 964576 0 -2.22859e+06 1.01009e+06 0 -2.24841e+06 1.05744e+06 0 -2.2672e+06 1.10673e+06 0 -2.28449e+06 1.15806e+06 0 -2.29975e+06 1.21148e+06 0 -2.3123e+06 1.26695e+06 0 -2.32134e+06 1.32437e+06 0 -2.32593e+06 1.38341e+06 0 -2.32498e+06 1.44355e+06 0 -2.31732e+06 1.5039e+06 0 -2.30177e+06 1.56314e+06 0 -2.27729e+06 1.61943e+06 0 -2.24319e+06 1.67037e+06 0 -2.19944e+06 1.71312e+06 0 -2.14682e+06 1.74461e+06 0 -2.08711e+06 1.76188e+06 0 -2.02297e+06 1.76257e+06 0 -1.95765e+06 1.74519e+06 0 -1.89452e+06 1.70932e+06 0 -1.83663e+06 1.65544e+06 0 -1.78642e+06 1.58466e+06 0 -1.74558e+06 1.4983e+06 0 -1.71513e+06 1.39757e+06 0 -1.69548e+06 1.28325e+06 0 -1.68677e+06 1.15536e+06 0 -1.68925e+06 1.01312e+06 0 -1.70325e+06 855327 0 -1.72796e+06 678916 0 -1.76686e+06 477098 0 -1.84158e+06 253893 0 -1.97886e+06 69371.7 0 -2.0817e+06 3.27826e-07 0 -1.81831e+06 0 0 -1.81874e+06 25800.4 0 -1.82004e+06 51627.8 0 -1.8222e+06 77509.5 0 -1.82522e+06 103473 0 -1.82911e+06 129545 0 -1.83385e+06 155755 0 -1.83944e+06 182131 0 -1.8459e+06 208703 0 -1.85321e+06 235500 0 -1.86137e+06 262554 0 -1.87038e+06 289897 0 -1.88023e+06 317562 0 -1.89092e+06 345585 0 -1.90244e+06 374001 0 -1.91479e+06 402850 0 -1.92795e+06 432172 0 -1.94191e+06 462010 0 -1.95667e+06 492409 0 -1.97219e+06 523417 0 -1.98847e+06 555087 0 -2.00547e+06 587475 0 -2.02316e+06 620639 0 -2.04151e+06 654645 0 -2.06047e+06 689562 0 -2.07998e+06 725466 0 -2.09999e+06 762438 0 -2.12039e+06 800566 0 -2.1411e+06 839946 0 -2.16198e+06 880679 0 -2.18288e+06 922873 0 -2.20362e+06 966643 0 -2.22395e+06 1.0121e+06 0 -2.24359e+06 1.05937e+06 0 -2.26217e+06 1.10854e+06 0 -2.27926e+06 1.15969e+06 0 -2.29431e+06 1.21287e+06 0 -2.30667e+06 1.26804e+06 0 -2.31554e+06 1.32506e+06 0 -2.31999e+06 1.38361e+06 0 -2.31898e+06 1.44314e+06 0 -2.31136e+06 1.50277e+06 0 -2.29601e+06 1.56117e+06 0 -2.27194e+06 1.61653e+06 0 -2.23851e+06 1.66651e+06 0 -2.19572e+06 1.70833e+06 0 -2.14437e+06 1.73902e+06 0 -2.0862e+06 1.75572e+06 0 -2.0238e+06 1.75613e+06 0 -1.9603e+06 1.73881e+06 0 -1.899e+06 1.70332e+06 0 -1.84285e+06 1.65009e+06 0 -1.79426e+06 1.58017e+06 0 -1.75491e+06 1.4948e+06 0 -1.72583e+06 1.39514e+06 0 -1.70753e+06 1.28191e+06 0 -1.7002e+06 1.15512e+06 0 -1.70417e+06 1.01403e+06 0 -1.71979e+06 857370 0 -1.74663e+06 682139 0 -1.78838e+06 482601 0 -1.86412e+06 264354 0 -1.99264e+06 82468.1 0 -2.08306e+06 6.85453e-07 0 -1.81572e+06 0 0 -1.81616e+06 25886.4 0 -1.81745e+06 51799.9 0 -1.81961e+06 77767.6 0 -1.82262e+06 103817 0 -1.82649e+06 129975 0 -1.83121e+06 156271 0 -1.83679e+06 182732 0 -1.84323e+06 209389 0 -1.85051e+06 236272 0 -1.85864e+06 263410 0 -1.86762e+06 290838 0 -1.87744e+06 318587 0 -1.88809e+06 346693 0 -1.89957e+06 375192 0 -1.91188e+06 404123 0 -1.92499e+06 433526 0 -1.9389e+06 463443 0 -1.95359e+06 493920 0 -1.96905e+06 525004 0 -1.98526e+06 556748 0 -2.00219e+06 589206 0 -2.0198e+06 622438 0 -2.03806e+06 656507 0 -2.05693e+06 691482 0 -2.07634e+06 727438 0 -2.09623e+06 764454 0 -2.11651e+06 802618 0 -2.13709e+06 842021 0 -2.15783e+06 882764 0 -2.17859e+06 924952 0 -2.19916e+06 968693 0 -2.21932e+06 1.0141e+06 0 -2.23877e+06 1.06128e+06 0 -2.25717e+06 1.11032e+06 0 -2.27406e+06 1.1613e+06 0 -2.28891e+06 1.21424e+06 0 -2.30107e+06 1.26911e+06 0 -2.30977e+06 1.32574e+06 0 -2.3141e+06 1.3838e+06 0 -2.31304e+06 1.44273e+06 0 -2.30548e+06 1.50165e+06 0 -2.29033e+06 1.55923e+06 0 -2.26668e+06 1.61369e+06 0 -2.23393e+06 1.66273e+06 0 -2.1921e+06 1.70366e+06 0 -2.142e+06 1.73357e+06 0 -2.08534e+06 1.74972e+06 0 -2.02464e+06 1.74986e+06 0 -1.96294e+06 1.73261e+06 0 -1.90342e+06 1.69749e+06 0 -1.84899e+06 1.64491e+06 0 -1.802e+06 1.57583e+06 0 -1.76412e+06 1.49144e+06 0 -1.73643e+06 1.39284e+06 0 -1.71947e+06 1.2807e+06 0 -1.71352e+06 1.15503e+06 0 -1.71897e+06 1.01509e+06 0 -1.73622e+06 859594 0 -1.76516e+06 685610 0 -1.80956e+06 488331 0 -1.88604e+06 274512 0 -2.00665e+06 94357.6 0 -2.08672e+06 -7.15256e-07 0 -1.81313e+06 0 0 -1.81356e+06 25972.2 0 -1.81486e+06 51971.5 0 -1.817e+06 78024.8 0 -1.82e+06 104160 0 -1.82386e+06 130404 0 -1.82857e+06 156785 0 -1.83413e+06 183332 0 -1.84055e+06 210074 0 -1.84781e+06 237041 0 -1.85591e+06 264264 0 -1.86486e+06 291775 0 -1.87464e+06 319608 0 -1.88526e+06 347797 0 -1.8967e+06 376379 0 -1.90896e+06 405391 0 -1.92202e+06 434874 0 -1.93587e+06 464870 0 -1.95051e+06 495424 0 -1.96591e+06 526584 0 -1.98205e+06 558401 0 -1.9989e+06 590930 0 -2.01643e+06 624228 0 -2.03461e+06 658360 0 -2.05338e+06 693392 0 -2.07269e+06 729399 0 -2.09247e+06 766459 0 -2.11264e+06 804657 0 -2.13308e+06 844083 0 -2.15369e+06 884835 0 -2.17429e+06 927015 0 -2.19471e+06 970727 0 -2.2147e+06 1.01608e+06 0 -2.23397e+06 1.06317e+06 0 -2.25217e+06 1.11208e+06 0 -2.26887e+06 1.16289e+06 0 -2.28353e+06 1.2156e+06 0 -2.29551e+06 1.27016e+06 0 -2.30405e+06 1.3264e+06 0 -2.30827e+06 1.38398e+06 0 -2.30716e+06 1.44232e+06 0 -2.29967e+06 1.50054e+06 0 -2.28475e+06 1.55732e+06 0 -2.26151e+06 1.6109e+06 0 -2.22943e+06 1.65904e+06 0 -2.18855e+06 1.69909e+06 0 -2.13969e+06 1.72827e+06 0 -2.08452e+06 1.74388e+06 0 -2.02548e+06 1.74378e+06 0 -1.96555e+06 1.72658e+06 0 -1.90779e+06 1.69184e+06 0 -1.85506e+06 1.63989e+06 0 -1.80965e+06 1.57164e+06 0 -1.77324e+06 1.48823e+06 0 -1.74692e+06 1.39067e+06 0 -1.73129e+06 1.27962e+06 0 -1.72672e+06 1.15507e+06 0 -1.73365e+06 1.01631e+06 0 -1.75254e+06 862000 0 -1.78354e+06 689320 0 -1.83043e+06 494263 0 -1.90744e+06 284376 0 -2.02093e+06 105211 0 -2.09238e+06 9.53674e-07 0 -1.81053e+06 0 0 -1.81096e+06 26057.7 0 -1.81225e+06 52142.5 0 -1.81439e+06 78281.3 0 -1.81738e+06 104501 0 -1.82123e+06 130831 0 -1.82592e+06 157297 0 -1.83147e+06 183929 0 -1.83786e+06 210756 0 -1.84509e+06 237807 0 -1.85317e+06 265115 0 -1.86209e+06 292710 0 -1.87184e+06 320626 0 -1.88242e+06 348898 0 -1.89382e+06 377562 0 -1.90603e+06 406655 0 -1.91904e+06 436218 0 -1.93284e+06 466292 0 -1.94742e+06 496923 0 -1.96276e+06 528158 0 -1.97883e+06 560047 0 -1.9956e+06 592645 0 -2.01306e+06 626010 0 -2.03115e+06 660203 0 -2.04982e+06 695293 0 -2.06903e+06 731350 0 -2.08871e+06 768453 0 -2.10875e+06 806684 0 -2.12908e+06 846132 0 -2.14954e+06 886892 0 -2.17e+06 929062 0 -2.19026e+06 972744 0 -2.21008e+06 1.01804e+06 0 -2.22918e+06 1.06504e+06 0 -2.24719e+06 1.11383e+06 0 -2.2637e+06 1.16446e+06 0 -2.27818e+06 1.21694e+06 0 -2.28999e+06 1.27119e+06 0 -2.29838e+06 1.32705e+06 0 -2.30249e+06 1.38415e+06 0 -2.30135e+06 1.44191e+06 0 -2.29393e+06 1.49944e+06 0 -2.27924e+06 1.55544e+06 0 -2.25643e+06 1.60817e+06 0 -2.22502e+06 1.65542e+06 0 -2.18509e+06 1.69464e+06 0 -2.13745e+06 1.72309e+06 0 -2.08374e+06 1.7382e+06 0 -2.02634e+06 1.73786e+06 0 -1.96813e+06 1.72074e+06 0 -1.91212e+06 1.68636e+06 0 -1.86105e+06 1.63503e+06 0 -1.8172e+06 1.56761e+06 0 -1.78225e+06 1.48516e+06 0 -1.7573e+06 1.38864e+06 0 -1.74301e+06 1.27868e+06 0 -1.7398e+06 1.15526e+06 0 -1.74821e+06 1.01768e+06 0 -1.76873e+06 864587 0 -1.80178e+06 693260 0 -1.85101e+06 500377 0 -1.9284e+06 293963 0 -2.03556e+06 115174 0 -2.09979e+06 -7.45058e-07 0 -1.80792e+06 0 0 -1.80835e+06 26143 0 -1.80963e+06 52312.9 0 -1.81177e+06 78536.9 0 -1.81475e+06 104842 0 -1.81858e+06 131256 0 -1.82326e+06 157808 0 -1.82879e+06 184524 0 -1.83516e+06 211435 0 -1.84237e+06 238571 0 -1.85042e+06 265963 0 -1.85931e+06 293641 0 -1.86903e+06 321641 0 -1.87957e+06 349995 0 -1.89092e+06 378740 0 -1.90309e+06 407914 0 -1.91606e+06 437556 0 -1.92981e+06 467709 0 -1.94433e+06 498416 0 -1.9596e+06 529725 0 -1.9756e+06 561687 0 -1.9923e+06 594354 0 -2.00968e+06 627784 0 -2.02768e+06 662038 0 -2.04627e+06 697184 0 -2.06538e+06 733290 0 -2.08494e+06 770435 0 -2.10487e+06 808698 0 -2.12507e+06 848168 0 -2.1454e+06 888935 0 -2.16571e+06 931095 0 -2.18581e+06 974745 0 -2.20547e+06 1.01998e+06 0 -2.22439e+06 1.06689e+06 0 -2.24223e+06 1.11556e+06 0 -2.25856e+06 1.16601e+06 0 -2.27285e+06 1.21826e+06 0 -2.28449e+06 1.27221e+06 0 -2.29275e+06 1.32769e+06 0 -2.29676e+06 1.38431e+06 0 -2.2956e+06 1.44151e+06 0 -2.28827e+06 1.49836e+06 0 -2.27382e+06 1.55359e+06 0 -2.25144e+06 1.60549e+06 0 -2.2207e+06 1.65188e+06 0 -2.1817e+06 1.69029e+06 0 -2.13526e+06 1.71806e+06 0 -2.08299e+06 1.73267e+06 0 -2.02721e+06 1.73211e+06 0 -1.9707e+06 1.71506e+06 0 -1.91639e+06 1.68105e+06 0 -1.86697e+06 1.63034e+06 0 -1.82467e+06 1.56373e+06 0 -1.79116e+06 1.48222e+06 0 -1.76758e+06 1.38675e+06 0 -1.75461e+06 1.27788e+06 0 -1.75277e+06 1.15559e+06 0 -1.76264e+06 1.01921e+06 0 -1.78481e+06 867355 0 -1.81986e+06 697422 0 -1.8713e+06 506658 0 -1.94899e+06 303295 0 -2.05055e+06 124376 0 -2.10876e+06 4.17233e-07 0 -1.8053e+06 0 0 -1.80573e+06 26227.9 0 -1.80701e+06 52482.8 0 -1.80914e+06 78791.7 0 -1.81211e+06 105182 0 -1.81593e+06 131681 0 -1.8206e+06 158317 0 -1.8261e+06 185118 0 -1.83245e+06 212113 0 -1.83964e+06 239333 0 -1.84767e+06 266808 0 -1.85652e+06 294570 0 -1.8662e+06 322651 0 -1.87671e+06 351087 0 -1.88802e+06 379914 0 -1.90015e+06 409168 0 -1.91306e+06 438889 0 -1.92676e+06 469119 0 -1.94122e+06 499903 0 -1.95643e+06 531286 0 -1.97237e+06 563319 0 -1.989e+06 596054 0 -2.00629e+06 629549 0 -2.02421e+06 663864 0 -2.0427e+06 699065 0 -2.06171e+06 735220 0 -2.08117e+06 772406 0 -2.10098e+06 810701 0 -2.12106e+06 850190 0 -2.14125e+06 890963 0 -2.16142e+06 933112 0 -2.18137e+06 976730 0 -2.20087e+06 1.02191e+06 0 -2.21962e+06 1.06873e+06 0 -2.23728e+06 1.11726e+06 0 -2.25343e+06 1.16754e+06 0 -2.26755e+06 1.21956e+06 0 -2.27904e+06 1.27321e+06 0 -2.28716e+06 1.32831e+06 0 -2.29109e+06 1.38447e+06 0 -2.28991e+06 1.4411e+06 0 -2.28268e+06 1.4973e+06 0 -2.26847e+06 1.55178e+06 0 -2.24653e+06 1.60286e+06 0 -2.21647e+06 1.64843e+06 0 -2.17839e+06 1.68605e+06 0 -2.13314e+06 1.71315e+06 0 -2.08228e+06 1.7273e+06 0 -2.02808e+06 1.72653e+06 0 -1.97324e+06 1.70956e+06 0 -1.92061e+06 1.67591e+06 0 -1.87282e+06 1.6258e+06 0 -1.83205e+06 1.56e+06 0 -1.79998e+06 1.47943e+06 0 -1.77774e+06 1.38498e+06 0 -1.76611e+06 1.2772e+06 0 -1.76563e+06 1.15606e+06 0 -1.77695e+06 1.02089e+06 0 -1.80075e+06 870301 0 -1.83778e+06 701799 0 -1.89133e+06 513093 0 -1.96927e+06 312397 0 -2.06595e+06 132926 0 -2.11911e+06 -1.07288e-06 0 -1.80268e+06 0 0 -1.8031e+06 26312.6 0 -1.80438e+06 52652.2 0 -1.8065e+06 79045.7 0 -1.80946e+06 105520 0 -1.81327e+06 132104 0 -1.81792e+06 158824 0 -1.82341e+06 185709 0 -1.82974e+06 212788 0 -1.8369e+06 240092 0 -1.8449e+06 267650 0 -1.85373e+06 295494 0 -1.86338e+06 323659 0 -1.87384e+06 352176 0 -1.88512e+06 381083 0 -1.89719e+06 410417 0 -1.91006e+06 440217 0 -1.92371e+06 470525 0 -1.93811e+06 501383 0 -1.95326e+06 532840 0 -1.96912e+06 564944 0 -1.98568e+06 597747 0 -2.0029e+06 631306 0 -2.02073e+06 665681 0 -2.03913e+06 700936 0 -2.05804e+06 737140 0 -2.07739e+06 774366 0 -2.09709e+06 812692 0 -2.11704e+06 852200 0 -2.13711e+06 892978 0 -2.15714e+06 935115 0 -2.17693e+06 978700 0 -2.19627e+06 1.02382e+06 0 -2.21486e+06 1.07055e+06 0 -2.23235e+06 1.11896e+06 0 -2.24833e+06 1.16906e+06 0 -2.26228e+06 1.22084e+06 0 -2.27361e+06 1.2742e+06 0 -2.28161e+06 1.32892e+06 0 -2.28546e+06 1.38463e+06 0 -2.28429e+06 1.4407e+06 0 -2.27716e+06 1.49625e+06 0 -2.2632e+06 1.55e+06 0 -2.24171e+06 1.60029e+06 0 -2.21231e+06 1.64505e+06 0 -2.17516e+06 1.68191e+06 0 -2.13107e+06 1.70837e+06 0 -2.0816e+06 1.72208e+06 0 -2.02895e+06 1.72111e+06 0 -1.97576e+06 1.70422e+06 0 -1.92478e+06 1.67093e+06 0 -1.87859e+06 1.62143e+06 0 -1.83934e+06 1.55641e+06 0 -1.80869e+06 1.47677e+06 0 -1.78781e+06 1.38335e+06 0 -1.77749e+06 1.27666e+06 0 -1.77836e+06 1.15667e+06 0 -1.79114e+06 1.02272e+06 0 -1.81657e+06 873427 0 -1.85554e+06 706384 0 -1.91111e+06 519673 0 -1.98931e+06 321296 0 -2.08175e+06 140921 0 -2.1307e+06 1.19209e-06 0 -1.80004e+06 0 0 -1.80047e+06 26397.1 0 -1.80174e+06 52821.1 0 -1.80385e+06 79298.9 0 -1.80681e+06 105858 0 -1.8106e+06 132525 0 -1.81524e+06 159330 0 -1.82071e+06 186299 0 -1.82702e+06 213461 0 -1.83416e+06 240848 0 -1.84213e+06 268489 0 -1.85092e+06 296416 0 -1.86054e+06 324662 0 -1.87097e+06 353261 0 -1.8822e+06 382249 0 -1.89423e+06 411662 0 -1.90705e+06 441540 0 -1.92064e+06 471924 0 -1.93499e+06 502858 0 -1.95008e+06 534388 0 -1.96588e+06 566562 0 -1.98236e+06 599432 0 -1.9995e+06 633055 0 -2.01725e+06 667489 0 -2.03556e+06 702798 0 -2.05437e+06 739049 0 -2.07361e+06 776315 0 -2.0932e+06 814671 0 -2.11303e+06 854198 0 -2.13296e+06 894980 0 -2.15285e+06 937103 0 -2.1725e+06 980654 0 -2.19168e+06 1.02571e+06 0 -2.21011e+06 1.07235e+06 0 -2.22743e+06 1.12063e+06 0 -2.24324e+06 1.17056e+06 0 -2.25704e+06 1.22211e+06 0 -2.26822e+06 1.27518e+06 0 -2.2761e+06 1.32953e+06 0 -2.27989e+06 1.38478e+06 0 -2.27872e+06 1.44031e+06 0 -2.27171e+06 1.49522e+06 0 -2.25801e+06 1.54825e+06 0 -2.23696e+06 1.59777e+06 0 -2.20823e+06 1.64176e+06 0 -2.17199e+06 1.67788e+06 0 -2.12906e+06 1.70372e+06 0 -2.08096e+06 1.717e+06 0 -2.02984e+06 1.71585e+06 0 -1.97826e+06 1.69905e+06 0 -1.92891e+06 1.66611e+06 0 -1.8843e+06 1.6172e+06 0 -1.84655e+06 1.55297e+06 0 -1.81731e+06 1.47426e+06 0 -1.79776e+06 1.38186e+06 0 -1.78876e+06 1.27626e+06 0 -1.79098e+06 1.15742e+06 0 -1.8052e+06 1.0247e+06 0 -1.83225e+06 876729 0 -1.87314e+06 711172 0 -1.93066e+06 526392 0 -2.00915e+06 330020 0 -2.09798e+06 148446 0 -2.14342e+06 -8.9407e-07 0 -1.7974e+06 0 0 -1.79782e+06 26481.2 0 -1.79909e+06 52989.4 0 -1.8012e+06 79551.3 0 -1.80414e+06 106194 0 -1.80792e+06 132946 0 -1.81254e+06 159834 0 -1.818e+06 186886 0 -1.82429e+06 214132 0 -1.8314e+06 241602 0 -1.83935e+06 269326 0 -1.84811e+06 297335 0 -1.85769e+06 325662 0 -1.86808e+06 354342 0 -1.87928e+06 383410 0 -1.89127e+06 412902 0 -1.90404e+06 442858 0 -1.91758e+06 473319 0 -1.93187e+06 504327 0 -1.94689e+06 535929 0 -1.96262e+06 568173 0 -1.97903e+06 601110 0 -1.99609e+06 634796 0 -2.01376e+06 669289 0 -2.03198e+06 704651 0 -2.05069e+06 740949 0 -2.06983e+06 778253 0 -2.08931e+06 816638 0 -2.10901e+06 856182 0 -2.12882e+06 896968 0 -2.14857e+06 939077 0 -2.16808e+06 982593 0 -2.1871e+06 1.02759e+06 0 -2.20537e+06 1.07414e+06 0 -2.22253e+06 1.12229e+06 0 -2.23818e+06 1.17204e+06 0 -2.25182e+06 1.22337e+06 0 -2.26286e+06 1.27614e+06 0 -2.27063e+06 1.33012e+06 0 -2.27436e+06 1.38492e+06 0 -2.27321e+06 1.43992e+06 0 -2.26632e+06 1.49421e+06 0 -2.25289e+06 1.54654e+06 0 -2.23229e+06 1.59531e+06 0 -2.20423e+06 1.63854e+06 0 -2.16889e+06 1.67395e+06 0 -2.1271e+06 1.6992e+06 0 -2.08034e+06 1.71207e+06 0 -2.03073e+06 1.71075e+06 0 -1.98074e+06 1.69404e+06 0 -1.93299e+06 1.66146e+06 0 -1.88993e+06 1.61313e+06 0 -1.85367e+06 1.54967e+06 0 -1.82583e+06 1.47187e+06 0 -1.80761e+06 1.38049e+06 0 -1.79991e+06 1.27598e+06 0 -1.80348e+06 1.15831e+06 0 -1.81914e+06 1.02684e+06 0 -1.84779e+06 880206 0 -1.89058e+06 716159 0 -1.94999e+06 533248 0 -2.02885e+06 338598 0 -2.11463e+06 155578 0 -2.15718e+06 1.78814e-07 0 -1.79475e+06 0 0 -1.79517e+06 26565.1 0 -1.79643e+06 53157.1 0 -1.79853e+06 79802.9 0 -1.80147e+06 106530 0 -1.80524e+06 133365 0 -1.80984e+06 160336 0 -1.81528e+06 187472 0 -1.82155e+06 214801 0 -1.82864e+06 242353 0 -1.83656e+06 270159 0 -1.84529e+06 298250 0 -1.85484e+06 326659 0 -1.86519e+06 355419 0 -1.87635e+06 384567 0 -1.88829e+06 414137 0 -1.90101e+06 444171 0 -1.9145e+06 474707 0 -1.92873e+06 505790 0 -1.94369e+06 537464 0 -1.95936e+06 569777 0 -1.9757e+06 602781 0 -1.99268e+06 636529 0 -2.01026e+06 671080 0 -2.02839e+06 706494 0 -2.04701e+06 742838 0 -2.06605e+06 780180 0 -2.08541e+06 818593 0 -2.105e+06 858155 0 -2.12468e+06 898943 0 -2.14429e+06 941038 0 -2.16365e+06 984518 0 -2.18253e+06 1.02946e+06 0 -2.20064e+06 1.07591e+06 0 -2.21764e+06 1.12393e+06 0 -2.23313e+06 1.17351e+06 0 -2.24662e+06 1.2246e+06 0 -2.25754e+06 1.27709e+06 0 -2.26521e+06 1.33071e+06 0 -2.26889e+06 1.38507e+06 0 -2.26776e+06 1.43953e+06 0 -2.26101e+06 1.49321e+06 0 -2.24785e+06 1.54487e+06 0 -2.2277e+06 1.59291e+06 0 -2.2003e+06 1.63539e+06 0 -2.16585e+06 1.67012e+06 0 -2.12518e+06 1.6948e+06 0 -2.07976e+06 1.70728e+06 0 -2.03162e+06 1.7058e+06 0 -1.98319e+06 1.68919e+06 0 -1.93702e+06 1.65696e+06 0 -1.8955e+06 1.60922e+06 0 -1.86071e+06 1.54652e+06 0 -1.83425e+06 1.46963e+06 0 -1.81736e+06 1.37925e+06 0 -1.81096e+06 1.27584e+06 0 -1.81586e+06 1.15934e+06 0 -1.83294e+06 1.02913e+06 0 -1.8632e+06 883858 0 -1.90785e+06 721340 0 -1.96911e+06 540238 0 -2.04843e+06 347061 0 -2.13172e+06 162382 0 -2.1719e+06 -5.96046e-08 0 -1.79209e+06 0 0 -1.79251e+06 26648.8 0 -1.79377e+06 53324.4 0 -1.79586e+06 80053.7 0 -1.79879e+06 106864 0 -1.80255e+06 133782 0 -1.80713e+06 160837 0 -1.81255e+06 188055 0 -1.8188e+06 215467 0 -1.82587e+06 243102 0 -1.83376e+06 270990 0 -1.84246e+06 299163 0 -1.85198e+06 327652 0 -1.86229e+06 356493 0 -1.87341e+06 385719 0 -1.88531e+06 415368 0 -1.89798e+06 445479 0 -1.91141e+06 476091 0 -1.92559e+06 507247 0 -1.94049e+06 538992 0 -1.95609e+06 571374 0 -1.97236e+06 604444 0 -1.98927e+06 638254 0 -2.00676e+06 672862 0 -2.0248e+06 708328 0 -2.04333e+06 744717 0 -2.06226e+06 782096 0 -2.08151e+06 820537 0 -2.10098e+06 860115 0 -2.12053e+06 900904 0 -2.14002e+06 942984 0 -2