<?xml version="1.0"?> 
<VTKFile type="StructuredGrid" version="0.1"> 
<StructuredGrid WholeExtent="0 15 0 15 0 0"> 
<Piece Extent="0 15 0 15 0 0"> 
<PointData>
<DataArray type="Float32" Name="E" format="ascii" NumberOfComponents="3"> 
548150 8.31384e+06 0 -1.00701e+06 6.5481e+06 0 -1.13458e+06 5.76432e+06 0 -1.04218e+06 5.28641e+06 0 -956347 4.96734e+06 0 -842296 4.73965e+06 0 -742015 4.56871e+06 0 -641787 4.43746e+06 0 -549417 4.33432e+06 0 -461179 4.25305e+06 0 -377747 4.18909e+06 0 -297851 4.13967e+06 0 -220888 4.10283e+06 0 -146080 4.07731e+06 0 -72683.1 4.06229e+06 0 0 4.05733e+06 0 446351 6.76985e+06 0 -502906 6.3284e+06 0 -784407 5.74753e+06 0 -834665 5.32658e+06 0 -796071 5.023e+06 0 -730913 4.79779e+06 0 -653516 4.62595e+06 0 -574343 4.49191e+06 0 -495527 4.38607e+06 0 -418891 4.30209e+06 0 -344588 4.23583e+06 0 -272612 4.18449e+06 0 -202624 4.14616e+06 0 -134194 4.11958e+06 0 -66829.6 4.10392e+06 0 0 4.09876e+06 0 408541 6.19638e+06 0 -204790 6.03735e+06 0 -523951 5.66545e+06 0 -635743 5.32315e+06 0 -649393 5.05055e+06 0 -618075 4.8375e+06 0 -566253 4.66986e+06 0 -505248 4.5367e+06 0 -440705 4.43019e+06 0 -375324 4.345e+06 0 -310416 4.27738e+06 0 -246504 4.22477e+06 0 -183699 4.18538e+06 0 -121870 4.15801e+06 0 -60749.7 4.14187e+06 0 0 4.13654e+06 0 387001 5.86967e+06 0 -41027.2 5.79591e+06 0 -328754 5.55681e+06 0 -467606 5.29093e+06 0 -514561 5.05588e+06 0 -510997 4.86084e+06 0 -480841 4.70163e+06 0 -436735 4.57215e+06 0 -385629 4.46692e+06 0 -331255 4.38181e+06 0 -275644 4.31373e+06 0 -219838 4.26046e+06 0 -164318 4.22042e+06 0 -109225 4.19252e+06 0 -54506.5 4.17605e+06 0 0 4.1706e+06 0 372160 5.64458e+06 0 56419.2 5.6067e+06 0 -186741 5.44689e+06 0 -329423 5.24317e+06 0 -395084 5.04532e+06 0 -411712 4.87086e+06 0 -399241 4.72276e+06 0 -369960 4.59902e+06 0 -331199 4.49662e+06 0 -287272 4.41269e+06 0 -240693 4.34493e+06 0 -192900 4.29156e+06 0 -144668 4.25124e+06 0 -96375.1 4.22306e+06 0 -48154 4.20639e+06 0 0 4.20087e+06 0 361270 5.47942e+06 0 119131 5.45768e+06 0 -82806.7 5.34628e+06 0 -217454 5.18937e+06 0 -291373 5.02452e+06 0 -321372 4.87076e+06 0 -322612 4.73496e+06 0 -305835 4.61831e+06 0 -278102 4.51983e+06 0 -243872 4.43795e+06 0 -205922 4.37115e+06 0 -165939 4.31813e+06 0 -124920 4.27787e+06 0 -83425.5 4.24962e+06 0 -41741.9 4.23286e+06 0 0 4.22731e+06 0 352876 5.3521e+06 0 162150 5.33899e+06 0 -5061.51 5.25795e+06 0 -126909 5.13529e+06 0 -202224 4.998e+06 0 -240197 4.8634e+06 0 -251512 4.74001e+06 0 -244949 4.63105e+06 0 -226827 4.53718e+06 0 -201442 4.45795e+06 0 -171617 4.3926e+06 0 -139164 4.3403e+06 0 -105218 4.30036e+06 0 -70465.4 4.27221e+06 0 -35313.4 4.25548e+06 0 0 4.24993e+06 0 346267 5.25187e+06 0 193370 5.24324e+06 0 54604.4 5.18191e+06 0 -53118.8 5.08408e+06 0 -125777 4.96897e+06 0 -167703 4.85121e+06 0 -186045 4.73953e+06 0 -187579 4.6383e+06 0 -177678 4.54934e+06 0 -160246 4.47312e+06 0 -137992 4.40953e+06 0 -112737 4.35822e+06 0 -85674.1 4.31879e+06 0 -57567.7 4.2909e+06 0 -28903.7 4.27427e+06 0 0 4.26874e+06 0 340968 5.1715e+06 0 217051 5.16535e+06 0 101733 5.1171e+06 0 7793 5.03724e+06 0 -59945.8 4.93958e+06 0 -103028 4.83608e+06 0 -125958 4.73495e+06 0 -133755 4.64106e+06 0 -130783 4.55697e+06 0 -120434 4.48388e+06 0 -105184 4.42223e+06 0 -86768.9 4.37206e+06 0 -66372.6 4.33328e+06 0 -44786.6 4.30573e+06 0 -22539.6 4.28926e+06 0 0 4.28378e+06 0 336689 5.1066e+06 0 235818 5.10168e+06 0 140018 5.06224e+06 0 58953.7 4.99536e+06 0 -2761.17 4.9112e+06 0 -45113.9 4.81942e+06 0 -70776.1 4.72742e+06 0 -83309.5 4.64017e+06 0 -86125.5 4.56069e+06 0 -82052.2 4.49066e+06 0 -73257.6 4.43097e+06 0 -61322.9 4.38201e+06 0 -47365 4.34395e+06 0 -32157.9 4.31679e+06 0 -16239.3 4.30052e+06 0 0 4.2951e+06 0 333228 5.0541e+06 0 251284 5.04966e+06 0 172053 5.01613e+06 0 102787 4.95858e+06 0 47554.8 4.88465e+06 0 7139.73 4.80223e+06 0 -19882.9 4.71786e+06 0 -35933.2 4.63639e+06 0 -43570.5 4.56104e+06 0 -45058.3 4.49384e+06 0 -42215 4.43602e+06 0 -36418.3 4.38825e+06 0 -28673.6 4.35091e+06 0 -19699.7 4.32417e+06 0 -10012.7 4.3081e+06 0 0 4.30275e+06 0 330447 5.01193e+06 0 264555 5.00744e+06 0 199670 4.97779e+06 0 141201 4.92678e+06 0 92540.8 4.86042e+06 0 54811.3 4.78521e+06 0 27403.5 4.70698e+06 0 8777.27 4.63031e+06 0 -2894.08 4.55849e+06 0 -9336.14 4.49378e+06 0 -12002.2 4.43763e+06 0 -12034.6 4.39096e+06 0 -10293.8 4.35429e+06 0 -7413.34 4.32795e+06 0 -3861.54 4.31209e+06 0 0 4.30679e+06 0 328251 4.97861e+06 0 276401 4.9737e+06 0 224238 4.94639e+06 0 175703 4.89977e+06 0 133528 4.83874e+06 0 98915.7 4.76886e+06 0 71791.2 4.6953e+06 0 51284.9 4.62239e+06 0 36192.8 4.55342e+06 0 25287.2 4.49076e+06 0 17480.1 4.43603e+06 0 11882.3 4.39028e+06 0 7801.93 4.3542e+06 0 4713.98 4.32821e+06 0 2218.93 4.31253e+06 0 0 4.30729e+06 0 326572 4.95315e+06 0 287406 4.94749e+06 0 246805 4.92132e+06 0 207523 4.87733e+06 0 171667 4.81975e+06 0 140397 4.75346e+06 0 113986 4.68319e+06 0 92086.1 4.613e+06 0 74023.4 4.54615e+06 0 59027.2 4.48504e+06 0 46366.5 4.43138e+06 0 35413.6 4.38636e+06 0 25660.5 4.35075e+06 0 16707.3 4.32503e+06 0 8239.51 4.30949e+06 0 0 4.3043e+06 0 325369 4.9349e+06 0 298035 4.9282e+06 0 268227 4.90215e+06 0 237695 4.85928e+06 0 207979 4.80348e+06 0 180136 4.73921e+06 0 154683 4.67089e+06 0 131694 4.60239e+06 0 110960 4.53688e+06 0 92129.6 4.47678e+06 0 74818.2 4.42384e+06 0 58661.6 4.3793e+06 0 43343.9 4.34399e+06 0 28601.4 4.31846e+06 0 14215.6 4.30303e+06 0 0 4.29786e+06 0 324616 4.92347e+06 0 308684 4.91544e+06 0 289232 4.88857e+06 0 267118 4.84547e+06 0 243375 4.78992e+06 0 218948 4.72621e+06 0 194549 4.65856e+06 0 170621 4.59072e+06 0 147375 4.52577e+06 0 124855 4.46611e+06 0 103012 4.41349e+06 0 81741.2 4.36917e+06 0 60923.7 4.33401e+06 0 40437.2 4.30856e+06 0 20165.9 4.29317e+06 0 0 4.28802e+06 0 </DataArray> 
</PointData> 
<Points> 
<DataArray type="Float32" NumberOfComponents="3"> 
0.23 0.065 0 0.23 0.0692 0 0.23 0.0734 0 0.23 0.0776 0 0.23 0.0818 0 0.23 0.086 0 0.23 0.0902 0 0.23 0.0944 0 0.23 0.0986 0 0.23 0.1028 0 0.23 0.107 0 0.23 0.1112 0 0.23 0.1154 0 0.23 0.1196 0 0.23 0.1238 0 0.23 0.128 0 0.2325 0.0648352 0 0.2325 0.0690462 0 0.2325 0.0732571 0 0.2325 0.0774681 0 0.2325 0.0816791 0 0.2325 0.0858901 0 0.2325 0.0901011 0 0.2325 0.0943121 0 0.2325 0.0985231 0 0.2325 0.102734 0 0.2325 0.106945 0 0.2325 0.111156 0 0.2325 0.115367 0 0.2325 0.119578 0 0.2325 0.123789 0 0.2325 0.128 0 0.235 0.0646703 0 0.235 0.0688923 0 0.235 0.0731143 0 0.235 0.0773363 0 0.235 0.0815582 0 0.235 0.0857802 0 0.235 0.0900022 0 0.235 0.0942242 0 0.235 0.0984462 0 0.235 0.102668 0 0.235 0.10689 0 0.235 0.111112 0 0.235 0.115334 0 0.235 0.119556 0 0.235 0.123778 0 0.235 0.128 0 0.2375 0.0645055 0 0.2375 0.0687385 0 0.2375 0.0729714 0 0.2375 0.0772044 0 0.2375 0.0814374 0 0.2375 0.0856703 0 0.2375 0.0899033 0 0.2375 0.0941363 0 0.2375 0.0983692 0 0.2375 0.102602 0 0.2375 0.106835 0 0.2375 0.111068 0 0.2375 0.115301 0 0.2375 0.119534 0 0.2375 0.123767 0 0.2375 0.128 0 0.24 0.0643407 0 0.24 0.0685846 0 0.24 0.0728286 0 0.24 0.0770725 0 0.24 0.0813165 0 0.24 0.0855605 0 0.24 0.0898044 0 0.24 0.0940484 0 0.24 0.0982923 0 0.24 0.102536 0 0.24 0.10678 0 0.24 0.111024 0 0.24 0.115268 0 0.24 0.119512 0 0.24 0.123756 0 0.24 0.128 0 0.2425 0.0641758 0 0.2425 0.0684308 0 0.2425 0.0726857 0 0.2425 0.0769407 0 0.2425 0.0811956 0 0.2425 0.0854506 0 0.2425 0.0897055 0 0.2425 0.0939605 0 0.2425 0.0982154 0 0.2425 0.10247 0 0.2425 0.106725 0 0.2425 0.11098 0 0.2425 0.115235 0 0.2425 0.11949 0 0.2425 0.123745 0 0.2425 0.128 0 0.245 0.064011 0 0.245 0.0682769 0 0.245 0.0725429 0 0.245 0.0768088 0 0.245 0.0810747 0 0.245 0.0853407 0 0.245 0.0896066 0 0.245 0.0938725 0 0.245 0.0981385 0 0.245 0.102404 0 0.245 0.10667 0 0.245 0.110936 0 0.245 0.115202 0 0.245 0.119468 0 0.245 0.123734 0 0.245 0.128 0 0.2475 0.0638462 0 0.2475 0.0681231 0 0.2475 0.0724 0 0.2475 0.0766769 0 0.2475 0.0809539 0 0.2475 0.0852308 0 0.2475 0.0895077 0 0.2475 0.0937846 0 0.2475 0.0980616 0 0.2475 0.102338 0 0.2475 0.106615 0 0.2475 0.110892 0 0.2475 0.115169 0 0.2475 0.119446 0 0.2475 0.123723 0 0.2475 0.128 0 0.25 0.0636814 0 0.25 0.0679693 0 0.25 0.0722572 0 0.25 0.0765451 0 0.25 0.080833 0 0.25 0.0851209 0 0.25 0.0894088 0 0.25 0.0936967 0 0.25 0.0979846 0 0.25 0.102273 0 0.25 0.10656 0 0.25 0.110848 0 0.25 0.115136 0 0.25 0.119424 0 0.25 0.123712 0 0.25 0.128 0 0.2525 0.0635165 0 0.2525 0.0678154 0 0.2525 0.0721143 0 0.2525 0.0764132 0 0.2525 0.0807121 0 0.2525 0.085011 0 0.2525 0.0893099 0 0.2525 0.0936088 0 0.2525 0.0979077 0 0.2525 0.102207 0 0.2525 0.106506 0 0.2525 0.110804 0 0.2525 0.115103 0 0.2525 0.119402 0 0.2525 0.123701 0 0.2525 0.128 0 0.255 0.0633517 0 0.255 0.0676616 0 0.255 0.0719715 0 0.255 0.0762814 0 0.255 0.0805912 0 0.255 0.0849011 0 0.255 0.089211 0 0.255 0.0935209 0 0.255 0.0978308 0 0.255 0.102141 0 0.255 0.106451 0 0.255 0.11076 0 0.255 0.11507 0 0.255 0.11938 0 0.255 0.12369 0 0.255 0.128 0 0.2575 0.0631869 0 0.2575 0.0675077 0 0.2575 0.0718286 0 0.2575 0.0761495 0 0.2575 0.0804704 0 0.2575 0.0847912 0 0.2575 0.0891121 0 0.2575 0.093433 0 0.2575 0.0977539 0 0.2575 0.102075 0 0.2575 0.106396 0 0.2575 0.110716 0 0.2575 0.115037 0 0.2575 0.119358 0 0.2575 0.123679 0 0.2575 0.128 0 0.26 0.063022 0 0.26 0.0673539 0 0.26 0.0716858 0 0.26 0.0760176 0 0.26 0.0803495 0 0.26 0.0846814 0 0.26 0.0890132 0 0.26 0.0933451 0 0.26 0.0976769 0 0.26 0.102009 0 0.26 0.106341 0 0.26 0.110673 0 0.26 0.115004 0 0.26 0.119336 0 0.26 0.123668 0 0.26 0.128 0 0.2625 0.0628572 0 0.2625 0.0672001 0 0.2625 0.0715429 0 0.2625 0.0758858 0 0.2625 0.0802286 0 0.2625 0.0845715 0 0.2625 0.0889143 0 0.2625 0.0932572 0 0.2625 0.0976 0 0.2625 0.101943 0 0.2625 0.106286 0 0.2625 0.110629 0 0.2625 0.114971 0 0.2625 0.119314 0 0.2625 0.123657 0 0.2625 0.128 0 0.265 0.0626924 0 0.265 0.0670462 0 0.265 0.0714001 0 0.265 0.0757539 0 0.265 0.0801077 0 0.265 0.0844616 0 0.265 0.0888154 0 0.265 0.0931693 0 0.265 0.0975231 0 0.265 0.101877 0 0.265 0.106231 0 0.265 0.110585 0 0.265 0.114938 0 0.265 0.119292 0 0.265 0.123646 0 0.265 0.128 0 0.2675 0.0625275 0 0.2675 0.0668924 0 0.2675 0.0712572 0 0.2675 0.075622 0 0.2675 0.0799869 0 0.2675 0.0843517 0 0.2675 0.0887165 0 0.2675 0.0930814 0 0.2675 0.0974462 0 0.2675 0.101811 0 0.2675 0.106176 0 0.2675 0.110541 0 0.2675 0.114906 0 0.2675 0.11927 0 0.2675 0.123635 0 0.2675 0.128 0 
</DataArray>
</Points> 
</Piece> 
</StructuredGrid> 
</VTKFile> 
