<?xml version="1.0"?> 
<VTKFile type="StructuredGrid" version="0.1"> 
<StructuredGrid WholeExtent="0 15 0 15 0 0"> 
<Piece Extent="0 15 0 15 0 0"> 
<PointData>
<DataArray type="Float32" Name="E" format="ascii" NumberOfComponents="3"> 
85259.5 -3.42872 0 84096 12661.8 0 80658.2 24845.8 0 75103.3 36105.2 0 67678.8 46037 0 58705.3 54318.8 0 48559.4 60688.5 0 37619.1 65009.6 0 26318.7 67144.2 0 14909.6 67141 0 3953.1 64829.6 0 -6846.81 60308.5 0 -16170 53009.9 0 -26175.9 41863.2 0 -32782.1 24910.3 0 0 -52266.7 0 68062.7 -2.62394 0 67213.7 9580.44 0 64703.3 18821 0 60639.7 27401.1 0 55195.4 35030.5 0 48597 41464.5 0 41110.8 46508.4 0 33032.2 50024.3 0 24666.2 51917.7 0 16341.6 52140 0 8373.81 50643.6 0 1205.96 47395.9 0 -4706.22 42309.3 0 -8156.92 35378.2 0 -7291.32 27569.4 0 0 22064 0 54978 -1.91057 0 54354 7324.28 0 52507.7 14404.9 0 49515.8 21010.8 0 45501.8 26931.7 0 40629.2 31987 0 35095.2 36033.3 0 29122.8 38963.9 0 22956.8 40717.4 0 16860.4 41264.9 0 11128.1 40636.7 0 6087.7 38904.4 0 2150.95 36282.5 0 -260.357 33206.5 0 -825.279 30322.6 0 0 30057.8 0 44927.2 -1.34951 0 44464.6 5659.39 0 43095.6 11143.6 0 40875.2 16286.5 0 37892.7 20936.1 0 34267.8 24962.8 0 30145.8 28263 0 25693 30765.8 0 21092.7 32432.8 0 16541.2 33270.8 0 12244.8 33327.2 0 8411.23 32724.7 0 5232.1 31654.1 0 2829.83 30417.6 0 1179.19 29524 0 0 28667.9 0 37123.5 -0.981574 0 36777 4419.32 0 35750.9 8712.86 0 34085.1 12761.3 0 31844.1 16456.1 0 29114.5 19704.5 0 26001.9 22434.9 0 22626.3 24599.2 0 19117.9 26179 0 15612.3 27186.1 0 12241.2 27672.9 0 9125.02 27727 0 6348.66 27487.2 0 3950.17 27124.3 0 1874.37 26758.7 0 0 26868.7 0 31003.2 -0.697753 0 30740 3484.3 0 29959.9 6878.39 0 28691.7 10096.9 0 26981.6 13062 0 24891.7 15708.3 0 22496.8 17985.2 0 19881.6 19860.9 0 17136.1 21323.6 0 14350.1 22385.6 0 11608.3 23081.2 0 8979.16 23471.4 0 6511.48 23632.6 0 4213.78 23653.5 0 2067.53 23648 0 0 23518.7 0 26161 -0.503989 0 25957.5 2768.1 0 25354 5471.47 0 24370.7 8048.84 0 23040.7 10444.6 0 21407.9 12611.8 0 19525 14514.6 0 17450.8 16129.9 0 15246.8 17449.4 0 12973.6 18479.3 0 10685.7 19241.5 0 8428.31 19769.8 0 6228.84 20109.2 0 4101.03 20307.4 0 2030.82 20394.9 0 0 20474.8 0 22306.3 -0.361245 0 22145.7 2208.95 0 21669 4371.3 0 20890.5 6442.93 0 19833.6 8383.7 0 18529.3 10159.7 0 17014.7 11744.5 0 15330.8 13120.8 0 13520.2 14280.8 0 11624.4 15226.5 0 9681.11 15968.9 0 7720.77 16526.9 0 5766.44 16923.6 0 3827.75 17183.3 0 1909.47 17333.9 0 0 17358.5 0 19230 -0.261719 0 19100.4 1762.83 0 18715.2 3491.97 0 18084.5 5155.44 0 17225.1 6724.06 0 16159 8172.86 0 14912.4 9482.14 0 13514.5 10638.2 0 11995.4 11633.5 0 10384.8 12467.1 0 8709.84 13143.6 0 6994.02 13671.8 0 5254.84 14063.8 0 3505.95 14332.5 0 1752.42 14486.5 0 0 14546.6 0 16781.5 -0.189438 0 16674.3 1398.43 0 16355.3 2772.4 0 15832 4098.67 0 15116.2 5355.84 0 14224.1 6525.43 0 13174.6 7592.45 0 11988.8 8545.89 0 10688.9 9378.9 0 9296.9 10088.7 0 7833.69 10676.1 0 6317.69 11144.7 0 4765.12 11500 0 3188.12 11748 0 1597.75 11895 0 0 11939.9 0 14851.5 -0.137114 0 14760.6 1093.26 0 14489.8 2168.82 0 14044.4 3209.77 0 13433.5 4200.46 0 12668.9 5127.19 0 11764.8 5978.56 0 10737.1 6745.8 0 9602.66 7422.87 0 8378.73 8006.35 0 7081.87 8495.19 0 5727.83 8890.17 0 4330.6 9193.34 0 2903.16 9407.32 0 1455.99 9534.31 0 0 9577.53 0 13361.1 -0.0977945 0 13281.9 830.971 0 13045.7 1649.29 0 12656.8 2442.86 0 12121.8 3200.37 0 11450.1 3911.81 0 10652.6 4568.68 0 9741.81 5164.19 0 8731.27 5693.3 0 7634.88 6152.72 0 6466.64 6540.67 0 5240.09 6856.61 0 3968.33 7100.91 0 2663.4 7274.39 0 1337.14 7378.05 0 0 7412.32 0 12253.4 -0.0671825 0 12182.4 599.275 0 11970.6 1189.85 0 11621.4 1763.37 0 11140.2 2312.01 0 10534.5 2828.73 0 9813.17 3307.48 0 8986.61 3743.27 0 8066.08 4132.26 0 7063.45 4471.67 0 5990.9 4759.74 0 4860.69 4995.52 0 3684.82 5178.66 0 2475.17 5309.21 0 1243.07 5387.41 0 0 5413.36 0 11488.2 -0.0421231 0 11422.7 388.608 0 11227.1 771.757 0 10904.3 1144.2 0 10459 1500.98 0 9897.4 1837.63 0 9227.3 2150.25 0 8457.64 2435.57 0 7598.34 2690.99 0 6659.99 2914.55 0 5653.65 3104.89 0 4590.65 3261.15 0 3482.42 3382.86 0 2340.34 3469.82 0 1175.81 3521.96 0 0 3539.49 0 11039.2 -0.0202956 0 10976.9 191.125 0 10790.5 379.617 0 10482.9 562.94 0 10058.1 738.698 0 9521.83 904.714 0 8881.25 1059.08 0 8144.52 1200.16 0 7320.81 1326.67 0 6420.02 1437.59 0 5452.58 1532.19 0 4429.31 1609.98 0 3361.23 1670.65 0 2259.52 1714.05 0 1135.36 1740.14 0 0 1748.68 0 10891.3 0 0 10829.9 0 0 10646.6 0 0 10343.8 0 0 9925.72 0 0 9397.77 0 0 8766.83 0 0 8040.89 0 0 7228.86 0 0 6340.42 0 0 5385.8 0 0 4375.67 0 0 3320.9 0 0 2232.62 0 0 1121.88 0 0 0 0 0 </DataArray> 
</PointData> 
<Points> 
<DataArray type="Float32" NumberOfComponents="3"> 
0.416 0 0 0.416 0.00133333 0 0.416 0.00266667 0 0.416 0.004 0 0.416 0.00533333 0 0.416 0.00666667 0 0.416 0.008 0 0.416 0.00933333 0 0.416 0.0106667 0 0.416 0.012 0 0.416 0.0133333 0 0.416 0.0146667 0 0.416 0.016 0 0.416 0.0173333 0 0.416 0.0186667 0 0.416 0.02 0 0.418067 0 0 0.418067 0.00133333 0 0.418067 0.00266667 0 0.418067 0.004 0 0.418067 0.00533333 0 0.418067 0.00666667 0 0.418067 0.008 0 0.418067 0.00933333 0 0.418067 0.0106667 0 0.418067 0.012 0 0.418067 0.0133333 0 0.418067 0.0146667 0 0.418067 0.016 0 0.418067 0.0173333 0 0.418067 0.0186667 0 0.418067 0.02 0 0.420133 0 0 0.420133 0.00133333 0 0.420133 0.00266667 0 0.420133 0.004 0 0.420133 0.00533333 0 0.420133 0.00666667 0 0.420133 0.008 0 0.420133 0.00933333 0 0.420133 0.0106667 0 0.420133 0.012 0 0.420133 0.0133333 0 0.420133 0.0146667 0 0.420133 0.016 0 0.420133 0.0173333 0 0.420133 0.0186667 0 0.420133 0.02 0 0.4222 0 0 0.4222 0.00133333 0 0.4222 0.00266667 0 0.4222 0.004 0 0.4222 0.00533333 0 0.4222 0.00666667 0 0.4222 0.008 0 0.4222 0.00933333 0 0.4222 0.0106667 0 0.4222 0.012 0 0.4222 0.0133333 0 0.4222 0.0146667 0 0.4222 0.016 0 0.4222 0.0173333 0 0.4222 0.0186667 0 0.4222 0.02 0 0.424267 0 0 0.424267 0.00133333 0 0.424267 0.00266667 0 0.424267 0.004 0 0.424267 0.00533333 0 0.424267 0.00666667 0 0.424267 0.008 0 0.424267 0.00933333 0 0.424267 0.0106667 0 0.424267 0.012 0 0.424267 0.0133333 0 0.424267 0.0146667 0 0.424267 0.016 0 0.424267 0.0173333 0 0.424267 0.0186667 0 0.424267 0.02 0 0.426333 0 0 0.426333 0.00133333 0 0.426333 0.00266667 0 0.426333 0.004 0 0.426333 0.00533333 0 0.426333 0.00666667 0 0.426333 0.008 0 0.426333 0.00933333 0 0.426333 0.0106667 0 0.426333 0.012 0 0.426333 0.0133333 0 0.426333 0.0146667 0 0.426333 0.016 0 0.426333 0.0173333 0 0.426333 0.0186667 0 0.426333 0.02 0 0.4284 0 0 0.4284 0.00133333 0 0.4284 0.00266667 0 0.4284 0.004 0 0.4284 0.00533333 0 0.4284 0.00666667 0 0.4284 0.008 0 0.4284 0.00933333 0 0.4284 0.0106667 0 0.4284 0.012 0 0.4284 0.0133333 0 0.4284 0.0146667 0 0.4284 0.016 0 0.4284 0.0173333 0 0.4284 0.0186667 0 0.4284 0.02 0 0.430467 0 0 0.430467 0.00133333 0 0.430467 0.00266667 0 0.430467 0.004 0 0.430467 0.00533333 0 0.430467 0.00666667 0 0.430467 0.008 0 0.430467 0.00933333 0 0.430467 0.0106667 0 0.430467 0.012 0 0.430467 0.0133333 0 0.430467 0.0146667 0 0.430467 0.016 0 0.430467 0.0173333 0 0.430467 0.0186667 0 0.430467 0.02 0 0.432533 0 0 0.432533 0.00133333 0 0.432533 0.00266667 0 0.432533 0.004 0 0.432533 0.00533333 0 0.432533 0.00666667 0 0.432533 0.008 0 0.432533 0.00933333 0 0.432533 0.0106667 0 0.432533 0.012 0 0.432533 0.0133333 0 0.432533 0.0146667 0 0.432533 0.016 0 0.432533 0.0173333 0 0.432533 0.0186667 0 0.432533 0.02 0 0.4346 0 0 0.4346 0.00133333 0 0.4346 0.00266667 0 0.4346 0.004 0 0.4346 0.00533333 0 0.4346 0.00666667 0 0.4346 0.008 0 0.4346 0.00933333 0 0.4346 0.0106667 0 0.4346 0.012 0 0.4346 0.0133333 0 0.4346 0.0146667 0 0.4346 0.016 0 0.4346 0.0173333 0 0.4346 0.0186667 0 0.4346 0.02 0 0.436667 0 0 0.436667 0.00133333 0 0.436667 0.00266667 0 0.436667 0.004 0 0.436667 0.00533333 0 0.436667 0.00666667 0 0.436667 0.008 0 0.436667 0.00933333 0 0.436667 0.0106667 0 0.436667 0.012 0 0.436667 0.0133333 0 0.436667 0.0146667 0 0.436667 0.016 0 0.436667 0.0173333 0 0.436667 0.0186667 0 0.436667 0.02 0 0.438733 0 0 0.438733 0.00133333 0 0.438733 0.00266667 0 0.438733 0.004 0 0.438733 0.00533333 0 0.438733 0.00666667 0 0.438733 0.008 0 0.438733 0.00933333 0 0.438733 0.0106667 0 0.438733 0.012 0 0.438733 0.0133333 0 0.438733 0.0146667 0 0.438733 0.016 0 0.438733 0.0173333 0 0.438733 0.0186667 0 0.438733 0.02 0 0.4408 0 0 0.4408 0.00133333 0 0.4408 0.00266667 0 0.4408 0.004 0 0.4408 0.00533333 0 0.4408 0.00666667 0 0.4408 0.008 0 0.4408 0.00933333 0 0.4408 0.0106667 0 0.4408 0.012 0 0.4408 0.0133333 0 0.4408 0.0146667 0 0.4408 0.016 0 0.4408 0.0173333 0 0.4408 0.0186667 0 0.4408 0.02 0 0.442867 0 0 0.442867 0.00133333 0 0.442867 0.00266667 0 0.442867 0.004 0 0.442867 0.00533333 0 0.442867 0.00666667 0 0.442867 0.008 0 0.442867 0.00933333 0 0.442867 0.0106667 0 0.442867 0.012 0 0.442867 0.0133333 0 0.442867 0.0146667 0 0.442867 0.016 0 0.442867 0.0173333 0 0.442867 0.0186667 0 0.442867 0.02 0 0.444933 0 0 0.444933 0.00133333 0 0.444933 0.00266667 0 0.444933 0.004 0 0.444933 0.00533333 0 0.444933 0.00666667 0 0.444933 0.008 0 0.444933 0.00933333 0 0.444933 0.0106667 0 0.444933 0.012 0 0.444933 0.0133333 0 0.444933 0.0146667 0 0.444933 0.016 0 0.444933 0.0173333 0 0.444933 0.0186667 0 0.444933 0.02 0 0.447 0 0 0.447 0.00133333 0 0.447 0.00266667 0 0.447 0.004 0 0.447 0.00533333 0 0.447 0.00666667 0 0.447 0.008 0 0.447 0.00933333 0 0.447 0.0106667 0 0.447 0.012 0 0.447 0.0133333 0 0.447 0.0146667 0 0.447 0.016 0 0.447 0.0173333 0 0.447 0.0186667 0 0.447 0.02 0 
</DataArray>
</Points> 
</Piece> 
</StructuredGrid> 
</VTKFile> 
