<?xml version="1.0"?> 
<VTKFile type="StructuredGrid" version="0.1"> 
<StructuredGrid WholeExtent="0 15 0 15 0 0"> 
<Piece Extent="0 15 0 15 0 0"> 
<PointData>
<DataArray type="Float32" Name="E" format="ascii" NumberOfComponents="3"> 
4.05312e-06 1.00556e+07 0 -2.69688e+06 319867 0 -3.02521e+06 -702203 0 -2.86436e+06 236090 0 -2.95441e+06 260998 0 -2.84252e+06 791035 0 -2.77952e+06 1.0191e+06 0 -2.66746e+06 1.29429e+06 0 -2.56285e+06 1.4764e+06 0 -2.45288e+06 1.63107e+06 0 -2.34807e+06 1.74771e+06 0 -2.24804e+06 1.83958e+06 0 -2.15448e+06 1.91017e+06 0 -2.06733e+06 1.96435e+06 0 -1.98647e+06 2.005e+06 0 -1.91142e+06 2.03479e+06 0 -1.90688e-07 2.63891e+06 0 -2.8632e+06 -79827 0 -2.78094e+06 -17716.6 0 -2.99268e+06 -245351 0 -2.93332e+06 301744 0 -2.90389e+06 614130 0 -2.82529e+06 938731 0 -2.72814e+06 1.20293e+06 0 -2.62524e+06 1.40866e+06 0 -2.5188e+06 1.57472e+06 0 -2.41548e+06 1.70312e+06 0 -2.3166e+06 1.80509e+06 0 -2.22374e+06 1.88426e+06 0 -2.13723e+06 1.9463e+06 0 -2.05699e+06 1.99415e+06 0 -1.98272e+06 2.03071e+06 0 7.35745e-08 -386442 0 -2.48852e+06 223307 0 -2.84907e+06 -212961 0 -2.91085e+06 -128004 0 -3.00245e+06 63972.3 0 -2.92803e+06 525041 0 -2.88251e+06 821754 0 -2.78972e+06 1.10395e+06 0 -2.69198e+06 1.33099e+06 0 -2.59044e+06 1.50869e+06 0 -2.48901e+06 1.65097e+06 0 -2.39219e+06 1.76364e+06 0 -2.30048e+06 1.8526e+06 0 -2.21505e+06 1.92314e+06 0 -2.13583e+06 1.97884e+06 0 -2.06267e+06 2.02267e+06 0 -2.42144e-07 -1.00549e+06 0 -1.87073e+06 640598 0 -2.89483e+06 -398912 0 -2.85926e+06 -129795 0 -3.0124e+06 -28398.4 0 -2.98231e+06 348113 0 -2.92524e+06 715786 0 -2.85871e+06 992173 0 -2.76246e+06 1.23695e+06 0 -2.6679e+06 1.43447e+06 0 -2.56998e+06 1.58851e+06 0 -2.47554e+06 1.71419e+06 0 -2.386e+06 1.81398e+06 0 -2.3021e+06 1.89393e+06 0 -2.22443e+06 1.95831e+06 0 -2.15283e+06 2.01002e+06 0 4.02331e-07 -593759 0 -1.22429e+06 870598 0 -2.74779e+06 -287653 0 -2.88047e+06 -297428 0 -2.97096e+06 -62143.5 0 -3.03605e+06 185819 0 -2.97382e+06 567662 0 -2.92316e+06 878741 0 -2.84145e+06 1.12794e+06 0 -2.75027e+06 1.34484e+06 0 -2.65951e+06 1.51656e+06 0 -2.56808e+06 1.65411e+06 0 -2.48156e+06 1.76691e+06 0 -2.40012e+06 1.85745e+06 0 -2.3246e+06 1.93143e+06 0 -2.25517e+06 1.9919e+06 0 -4.69387e-07 5218.87 0 -680783 838960 0 -2.37434e+06 46272.8 0 -2.90068e+06 -435274 0 -2.9333e+06 -164330 0 -3.0534e+06 74561.9 0 -3.03491e+06 395953 0 -2.98367e+06 740544 0 -2.92472e+06 1.01035e+06 0 -2.84122e+06 1.23764e+06 0 -2.75688e+06 1.43003e+06 0 -2.67187e+06 1.58296e+06 0 -2.58893e+06 1.70877e+06 0 -2.51109e+06 1.81208e+06 0 -2.43866e+06 1.89688e+06 0 -2.37219e+06 1.96731e+06 0 8.56817e-07 381388 0 -299722 611830 0 -1.8358e+06 394818 0 -2.811e+06 -390571 0 -2.92514e+06 -326182 0 -3.03343e+06 -37675.3 0 -3.08927e+06 238291 0 -3.05012e+06 571535 0 -3.00633e+06 873790 0 -2.9415e+06 1.11594e+06 0 -2.86443e+06 1.32445e+06 0 -2.7874e+06 1.49701e+06 0 -2.71077e+06 1.63788e+06 0 -2.63758e+06 1.75519e+06 0 -2.56953e+06 1.85285e+06 0 -2.50709e+06 1.93477e+06 0 -8.49366e-07 439200 0 -83164.4 314914 0 -1.24271e+06 581746 0 -2.53356e+06 -165693 0 -2.90984e+06 -438160 0 -3.00205e+06 -193329 0 -3.11261e+06 91122.9 0 -3.12123e+06 390899 0 -3.08922e+06 706833 0 -3.04626e+06 974921 0 -2.98459e+06 1.19927e+06 0 -2.91691e+06 1.39111e+06 0 -2.84912e+06 1.55077e+06 0 -2.78306e+06 1.68418e+06 0 -2.72098e+06 1.79675e+06 0 -2.66406e+06 1.89228e+06 0 4.32134e-07 269834 0 4509.41 64780.6 0 -708972 548128 0 -2.06206e+06 111282 0 -2.8014e+06 -408353 0 -2.97244e+06 -359887 0 -3.10082e+06 -77118 0 -3.17727e+06 209444 0 -3.17685e+06 514044 0 -3.15419e+06 803834 0 -3.11525e+06 1.05048e+06 0 -3.06327e+06 1.26168e+06 0 -3.00723e+06 1.44203e+06 0 -2.95135e+06 1.59492e+06 0 -2.89794e+06 1.72525e+06 0 -2.8487e+06 1.83723e+06 0 3.27826e-07 34176.5 0 15111.7 -74612.8 0 -315010 355751 0 -1.46783e+06 290847 0 -2.51361e+06 -246468 0 -2.9069e+06 -456533 0 -3.06592e+06 -270338 0 -3.19817e+06 12727.2 0 -3.25739e+06 303920 0 -3.26667e+06 598969 0 -3.25468e+06 868310 0 -3.22662e+06 1.10261e+06 0 -3.18885e+06 1.30575e+06 0 -3.14763e+06 1.48135e+06 0 -3.10672e+06 1.63333e+06 0 -3.06845e+06 1.76565e+06 0 -5.66244e-07 -125931 0 -2240.57 -102271 0 -87910 128712 0 -871631 302501 0 -2.01898e+06 -55534.4 0 -2.71763e+06 -434798 0 -2.99749e+06 -441512 0 -3.17855e+06 -211406 0 -3.30822e+06 69717.8 0 -3.3743e+06 360857 0 -3.40173e+06 644301 0 -3.40671e+06 902786 0 -3.39662e+06 1.13232e+06 0 -3.37793e+06 1.33479e+06 0 -3.35576e+06 1.51337e+06 0 -3.33356e+06 1.67151e+06 0 3.8743e-07 -142058 0 -14147.9 -60178 0 -1974.36 -25574 0 -394122 188850 0 -1.38239e+06 53333.7 0 -2.31945e+06 -331189 0 -2.82906e+06 -534883 0 -3.10598e+06 -440609 0 -3.31058e+06 -200549 0 -3.45487e+06 80244.9 0 -3.54588e+06 369250 0 -3.60119e+06 648019 0 -3.63291e+06 906135 0 -3.64915e+06 1.14072e+06 0 -3.65618e+06 1.35278e+06 0 -3.65868e+06 1.54465e+06 0 -3.57628e-07 -44636.1 0 -9497.71 -1085.28 0 3068.47 -70250.2 0 -106550 57504 0 -745187 50952.8 0 -1.70444e+06 -235730 0 -2.46067e+06 -548934 0 -2.92032e+06 -633842 0 -3.23602e+06 -499628 0 -3.47992e+06 -258491 0 -3.66374e+06 23335.8 0 -3.79852e+06 315691 0 -3.89701e+06 602157 0 -3.96945e+06 874355 0 -4.02377e+06 1.12933e+06 0 -4.06603e+06 1.36704e+06 0 2.98023e-07 49177.3 0 1598.31 32243.1 0 -8593.79 -40589.9 0 -1683.9 -10704.3 0 -264500 5380.18 0 -982187 -196123 0 -1.83815e+06 -537577 0 -2.51761e+06 -781747 0 -3.01151e+06 -809627 0 -3.39951e+06 -665216 0 -3.71631e+06 -424161 0 -3.97351e+06 -134816 0 -4.18074e+06 175360 0 -4.34756e+06 490520 0 -4.48245e+06 801860 0 -4.59248e+06 1.10498e+06 0 0 35908 0 3636.65 20527.8 0 -5121.84 -2452.91 0 293.203 -20353.2 0 -30590.7 -3432.69 0 -355215 -156007 0 -1.03216e+06 -519430 0 -1.81754e+06 -907054 0 -2.5191e+06 -1.13381e+06 0 -3.11387e+06 -1.15546e+06 0 -3.62777e+06 -1.01701e+06 0 -4.0752e+06 -771292 0 -4.46211e+06 -456053 0 -4.79297e+06 -96427.1 0 -5.07243e+06 290603 0 -5.30533e+06 693367 0 -1.19209e-06 -3.14573e+07 0 -1770.47 -18369.5 0 3444.75 17386.1 0 -5434.66 -17680.7 0 -5292.79 -12397.2 0 -24611.6 -43897.5 0 -262184 -367181 0 -842120 -940655 0 -1.63848e+06 -1.46685e+06 0 -2.47121e+06 -1.76455e+06 0 -3.26329e+06 -1.8296e+06 0 -4.00299e+06 -1.70902e+06 0 -4.68813e+06 -1.44103e+06 0 -5.31174e+06 -1.05243e+06 0 -5.86382e+06 -565163 0 -6.33475e+06 -4.76837e-07 0 </DataArray> 
</PointData> 
<Points> 
<DataArray type="Float32" NumberOfComponents="3"> 
0.2225 0.045 0 0.220333 0.0456667 0 0.218167 0.0463333 0 0.216 0.047 0 0.213833 0.0476667 0 0.211667 0.0483333 0 0.2095 0.049 0 0.207333 0.0496667 0 0.205167 0.0503333 0 0.203 0.051 0 0.200833 0.0516667 0 0.198667 0.0523333 0 0.1965 0.053 0 0.194333 0.0536667 0 0.192167 0.0543333 0 0.19 0.055 0 0.223 0.045 0 0.220894 0.0456267 0 0.218784 0.046262 0 0.216673 0.0469052 0 0.214561 0.0475558 0 0.212453 0.0482131 0 0.21035 0.0488763 0 0.208253 0.0495449 0 0.206166 0.0502181 0 0.204091 0.0508953 0 0.202029 0.0515756 0 0.199983 0.0522584 0 0.197956 0.052943 0 0.195948 0.0536286 0 0.193962 0.0543145 0 0.192 0.055 0 0.2235 0.045 0 0.221457 0.0455866 0 0.219407 0.04619 0 0.217354 0.0468093 0 0.215301 0.0474432 0 0.213253 0.0480907 0 0.211215 0.0487503 0 0.209191 0.0494208 0 0.207186 0.0501006 0 0.205203 0.0507885 0 0.203246 0.0514829 0 0.201321 0.0521823 0 0.19943 0.0528852 0 0.197577 0.0535901 0 0.195766 0.0542955 0 0.194 0.055 0 0.224 0.045 0 0.222024 0.0455462 0 0.220036 0.0461173 0 0.218043 0.0467121 0 0.216052 0.0473289 0 0.214068 0.0479661 0 0.212098 0.0486218 0 0.210148 0.0492941 0 0.208226 0.0499808 0 0.206336 0.0506797 0 0.204485 0.0513885 0 0.202679 0.052105 0 0.200922 0.0528267 0 0.199221 0.0535513 0 0.197579 0.0542765 0 0.196 0.055 0 0.2245 0.045 0 0.222593 0.0455057 0 0.220671 0.046044 0 0.218742 0.0466137 0 0.216815 0.0472128 0 0.214897 0.0478393 0 0.212997 0.0484909 0 0.211125 0.0491649 0 0.209286 0.0498585 0 0.207491 0.0505688 0 0.205746 0.0512925 0 0.204058 0.0520265 0 0.202434 0.0527675 0 0.20088 0.0535122 0 0.199401 0.0542574 0 0.198 0.055 0 0.225 0.045 0 0.223164 0.0454649 0 0.221311 0.04597 0 0.219449 0.046514 0 0.217589 0.0470948 0 0.215741 0.0477102 0 0.213915 0.0483573 0 0.212121 0.049033 0 0.210369 0.0497338 0 0.208669 0.0504557 0 0.20703 0.0511947 0 0.20546 0.0519467 0 0.203966 0.0527075 0 0.202555 0.0534727 0 0.201231 0.0542382 0 0.2 0.055 0 0.2255 0.045 0 0.223739 0.045424 0 0.221957 0.0458954 0 0.220166 0.046413 0 0.218377 0.0469749 0 0.216601 0.0475787 0 0.21485 0.0482211 0 0.213138 0.0488985 0 0.211474 0.0496064 0 0.20987 0.0503403 0 0.208337 0.0510952 0 0.206883 0.0518657 0 0.205517 0.0526467 0 0.204245 0.0534328 0 0.203071 0.0542189 0 0.202 0.055 0 0.226 0.045 0 0.224316 0.0453828 0 0.22261 0.04582 0 0.220892 0.0463107 0 0.219177 0.0468531 0 0.217476 0.0474448 0 0.215805 0.0480822 0 0.214176 0.0487611 0 0.212602 0.0494764 0 0.211096 0.0502226 0 0.209669 0.0509937 0 0.20833 0.0517834 0 0.207089 0.0525851 0 0.20595 0.0533925 0 0.20492 0.0541994 0 0.204 0.055 0 0.2265 0.045 0 0.224897 0.0453415 0 0.223268 0.0457439 0 0.221628 0.046207 0 0.21999 0.0467294 0 0.218368 0.0473084 0 0.216778 0.0479405 0 0.215235 0.0486208 0 0.213754 0.0493437 0 0.212346 0.0501026 0 0.211025 0.0508904 0 0.209801 0.0516997 0 0.208681 0.0525227 0 0.207672 0.0533519 0 0.206778 0.0541799 0 0.206 0.055 0 0.227 0.045 0 0.22548 0.0452999 0 0.223933 0.0456671 0 0.222373 0.046102 0 0.220816 0.0466035 0 0.219277 0.0471694 0 0.217772 0.0477958 0 0.216318 0.0484775 0 0.21493 0.0492081 0 0.213622 0.0499801 0 0.212407 0.0507852 0 0.211295 0.0516146 0 0.210294 0.0524595 0 0.20941 0.0533109 0 0.208645 0.0541603 0 0.208 0.055 0 0.2275 0.045 0 0.226066 0.0452581 0 0.224604 0.0455896 0 0.223129 0.0459955 0 0.221656 0.0464757 0 0.220203 0.0470278 0 0.218786 0.0476482 0 0.217424 0.0483312 0 0.216131 0.0490696 0 0.214924 0.049855 0 0.213815 0.0506779 0 0.212814 0.0515282 0 0.211929 0.0523954 0 0.211164 0.0532695 0 0.210522 0.0541406 0 0.21 0.055 0 0.228 0.045 0 0.226655 0.0452161 0 0.225281 0.0455113 0 0.223894 0.0458877 0 0.22251 0.0463456 0 0.221146 0.0468835 0 0.219822 0.0474975 0 0.218553 0.0481817 0 0.217359 0.0489281 0 0.216254 0.0497274 0 0.21525 0.0505686 0 0.214359 0.0514403 0 0.213586 0.0523305 0 0.212935 0.0532277 0 0.212407 0.0541208 0 0.212 0.055 0 0.2285 0.045 0 0.227247 0.045174 0 0.225965 0.0454323 0 0.22467 0.0457784 0 0.223379 0.0462134 0 0.222108 0.0467364 0 0.220879 0.0473436 0 0.219708 0.0480288 0 0.218614 0.0487835 0 0.217611 0.049597 0 0.216713 0.0504572 0 0.215929 0.0513509 0 0.215265 0.0522647 0 0.214723 0.0531855 0 0.214303 0.0541009 0 0.214 0.055 0 0.229 0.045 0 0.227842 0.0451316 0 0.226656 0.0453525 0 0.225457 0.0456676 0 0.224262 0.046079 0 0.223089 0.0465864 0 0.221959 0.0471864 0 0.220889 0.0478726 0 0.219897 0.0486357 0 0.218998 0.0494639 0 0.218205 0.0503436 0 0.217526 0.05126 0 0.216967 0.052198 0 0.216528 0.0531429 0 0.216208 0.0540809 0 0.216 0.055 0 0.2295 0.045 0 0.22844 0.045089 0 0.227353 0.045272 0 0.226254 0.0455552 0 0.22516 0.0459422 0 0.224089 0.0464334 0 0.223062 0.0470258 0 0.222096 0.0477129 0 0.221208 0.0484845 0 0.220414 0.0493279 0 0.219726 0.0502277 0 0.219151 0.0511676 0 0.218692 0.0521304 0 0.218351 0.0530999 0 0.218122 0.0540608 0 0.218 0.055 0 0.23 0.045 0 0.229041 0.0450461 0 0.228056 0.0451907 0 0.227062 0.0454414 0 0.226074 0.0458031 0 0.22511 0.0462774 0 0.224189 0.0468617 0 0.22333 0.0475495 0 0.222549 0.0483299 0 0.221862 0.0491889 0 0.221277 0.0501096 0 0.220803 0.0510735 0 0.220441 0.0520619 0 0.220191 0.0530565 0 0.220046 0.0540406 0 0.22 0.055 0 
</DataArray>
</Points> 
</Piece> 
</StructuredGrid> 
</VTKFile> 
