<?xml version="1.0"?> 
<VTKFile type="StructuredGrid" version="0.1"> 
<StructuredGrid WholeExtent="0 15 0 15 0 0"> 
<Piece Extent="0 15 0 15 0 0"> 
<PointData>
<DataArray type="Float32" Name="E" format="ascii" NumberOfComponents="3"> 
1.5609e+06 5.48363e-06 0 1.00506e+06 -4.58676e-07 0 696000 -2.15136e-07 0 511667 2.08616e-07 0 393168 -1.49012e-07 0 311260 3.1665e-07 0 250928 -4.69387e-07 0 204076 5.51343e-07 0 166103 -5.51343e-07 0 134230 5.51343e-07 0 106669 -5.51343e-07 0 82196.2 4.02331e-07 0 59922.8 -3.8743e-07 0 39162.3 1.49012e-07 0 19351.8 2.98023e-07 0 5.36442e-07 -3.09944e-06 0 119282 -458965 0 182670 -411175 0 200036 -351411 0 195902 -295447 0 182079 -248045 0 164287 -209573 0 145282 -178948 0 126361 -154789 0 108089 -135833 0 90664.5 -121046 0 74096.8 -109626 0 58302.4 -100971 0 43151.3 -94640.2 0 28491.9 -90321.4 0 14163 -87808.4 0 -5.26779e-09 -86983.8 0 -34904.5 -371174 0 -18726 -322249 0 -2737 -290290 0 10252.8 -265254 0 19619.3 -243526 0 25609.7 -224031 0 28757.7 -206546 0 29633.4 -191076 0 28749 -177637 0 26530.8 -166207 0 23320.1 -156729 0 19385.1 -149124 0 14935.3 -143312 0 10135.6 -139218 0 5119.49 -136785 0 -1.25729e-08 -135979 0 -104150 -199244 0 -86505.5 -207799 0 -71283.2 -205828 0 -58172.3 -199839 0 -46961.8 -192539 0 -37474.3 -185031 0 -29537.8 -177784 0 -22977.8 -171024 0 -17618.8 -164879 0 -13287.3 -159431 0 -9815.36 -154741 0 -7042.25 -150855 0 -4815.59 -147804 0 -2990.83 -145611 0 -1430.04 -144289 0 8.3819e-09 -143848 0 -108400 -150369 0 -95943.1 -143476 0 -84790.1 -141049 0 -74593.7 -139926 0 -65227.1 -138957 0 -56630.9 -137812 0 -48758.8 -136464 0 -41560.1 -134985 0 -34975.9 -133465 0 -28939.7 -131989 0 -23379.5 -130629 0 -18219.5 -129444 0 -13381.7 -128477 0 -8786.15 -127764 0 -4352.56 -127327 0 -2.84053e-08 -127180 0 -89423.3 -81315.6 0 -82429.8 -88485.1 0 -75151.6 -92450 0 -67985 -94959.6 0 -61063.7 -96731.9 0 -54424.1 -98057.4 0 -48066.4 -99065.2 0 -41977.9 -99824.8 0 -36139.4 -100385 0 -30528.3 -100785 0 -25118.5 -101061 0 -19881 -101244 0 -14784.6 -101359 0 -9795.84 -101426 0 -4879.64 -101460 0 3.81842e-08 -101471 0 -68427.2 -56852.1 0 -63204.1 -58388.8 0 -58350.8 -60805.3 0 -53609.8 -63314.1 0 -48909 -65630 0 -44239 -67672.4 0 -39607.3 -69435.2 0 -35022.7 -70936.3 0 -30490.6 -72199.7 0 -26012.5 -73247.9 0 -21586.3 -74101.2 0 -17207.2 -74776.5 0 -12868.2 -75287.5 0 -8560.76 -75644.9 0 -4274.88 -75856.3 0 -5.02914e-08 -75926.2 0 -47826.3 -33409 0 -45279.7 -37040.1 0 -42374 -39850.5 0 -39312.6 -42222.4 0 -36171.1 -44306.3 0 -32979.1 -46159.1 0 -29750.3 -47803.7 0 -26493 -49250.8 0 -23213.9 -50508.1 0 -19918.5 -51582.2 0 -16611.3 -52479.1 0 -13296.1 -53204.5 0 -9975.58 -53763.2 0 -6651.86 -54159.4 0 -3326.33 -54395.9 0 1.04308e-07 -54474.5 0 -33429.9 -23105.9 0 -31443.4 -24757.6 0 -29512.5 -26515 0 -27536 -28216.1 0 -25488.2 -29799.4 0 -23369.7 -31244.7 0 -21188.4 -32546.7 0 -18953.4 -33705.5 0 -16673.3 -34722.6 0 -14355.7 -35599.8 0 -12007.3 -36338.9 0 -9634.28 -36941.4 0 -7242.02 -37408.6 0 -4835.68 -37741.6 0 -2420.12 -37941.1 0 -1.13621e-07 -38007.5 0 -22360.4 -14857.6 0 -21342.8 -16381 0 -20156 -17723.1 0 -18871.5 -18943.1 0 -17516.5 -20062 0 -16102.8 -21085.8 0 -14637.2 -22015.2 0 -13125.3 -22849.5 0 -11572.6 -23587.5 0 -9984.22 -24228.4 0 -8365.65 -24771.4 0 -6722.11 -25216.2 0 -5058.75 -25562.4 0 -3380.65 -25809.8 0 -1692.76 -25958.3 0 1.19209e-07 -26007.8 0 -15245.8 -10186.2 0 -14442.5 -11056.4 0 -13632.1 -11904.1 0 -12783.1 -12707.6 0 -11888.2 -13457.3 0 -10948.5 -14148.7 0 -9968.02 -14779.3 0 -8950.94 -15347.2 0 -7901.65 -15851.2 0 -6824.38 -16290.2 0 -5723.25 -16663.2 0 -4602.3 -16969.4 0 -3465.53 -17208.2 0 -2316.92 -17379.1 0 -1160.43 -17481.7 0 -1.11759e-07 -17516 0 -10262.1 -6784.82 0 -9798.26 -7375.23 0 -9269.95 -7930.35 0 -8698.48 -8450.44 0 -8092.28 -8934.67 0 -7455.47 -9381.78 0 -6790.83 -9790.48 0 -6100.95 -10159.5 0 -5388.42 -10487.7 0 -4655.94 -10774.2 0 -3906.3 -11017.9 0 -3142.31 -11218.3 0 -2366.81 -11374.8 0 -1582.68 -11486.9 0 -792.781 -11554.3 0 8.9407e-08 -11576.8 0 -7176.87 -4434.85 0 -6812.69 -4801.15 0 -6435.69 -5143.28 0 -6037.83 -5463.54 0 -5617.73 -5762 0 -5176.34 -6037.96 0 -4715.33 -6290.53 0 -4236.57 -6518.84 0 -3741.96 -6722.11 0 -3233.44 -6899.65 0 -2712.95 -7050.87 0 -2182.44 -7175.27 0 -1643.89 -7272.45 0 -1099.3 -7342.08 0 -550.659 -7383.95 0 -8.19564e-08 -7397.93 0 -5215.41 -2710.12 0 -4966.49 -2902.83 0 -4693.12 -3092.25 0 -4400.9 -3272.61 0 -4092.34 -3441.53 0 -3768.95 -3597.88 0 -3431.95 -3740.98 0 -3082.57 -3870.34 0 -2722.05 -3985.53 0 -2351.69 -4086.15 0 -1972.85 -4171.87 0 -1586.88 -4242.41 0 -1195.19 -4297.52 0 -799.191 -4337.02 0 -400.316 -4360.77 0 2.98023e-08 -4368.7 0 -4171.84 -1270.93 0 -3960.6 -1371.55 0 -3737.57 -1459.72 0 -3502.13 -1540.4 0 -3254.65 -1615.11 0 -2995.88 -1684.12 0 -2726.7 -1747.33 0 -2448.05 -1804.5 0 -2160.91 -1855.44 0 -1866.29 -1899.95 0 -1565.21 -1937.87 0 -1258.71 -1969.07 0 -947.861 -1993.45 0 -633.733 -2010.92 0 -317.415 -2021.42 0 3.72529e-08 -2024.93 0 -3802.12 -2.38419e-07 0 -3600.81 7.1479e-08 0 -3394.29 -7.82311e-08 0 -3178.18 -2.81259e-07 0 -2951.76 3.61353e-07 0 -2715.49 -2.23517e-08 0 -2470.17 -5.21541e-08 0 -2216.65 1.49012e-07 0 -1955.81 -3.42727e-07 0 -1688.52 1.78814e-07 0 -1415.68 2.98023e-08 0 -1138.17 1.19209e-07 0 -856.924 2.98023e-08 0 -572.854 -3.27826e-07 0 -286.899 5.36442e-07 0 -6.55651e-07 -1.90735e-06 0 </DataArray> 
</PointData> 
<Points> 
<DataArray type="Float32" NumberOfComponents="3"> 
0.2525 0.035 0 0.2525 0.0356667 0 0.2525 0.0363333 0 0.2525 0.037 0 0.2525 0.0376667 0 0.2525 0.0383333 0 0.2525 0.039 0 0.2525 0.0396667 0 0.2525 0.0403333 0 0.2525 0.041 0 0.2525 0.0416667 0 0.2525 0.0423333 0 0.2525 0.043 0 0.2525 0.0436667 0 0.2525 0.0443333 0 0.2525 0.045 0 0.2558 0.0351867 0 0.2558 0.0358409 0 0.2558 0.0364951 0 0.2558 0.0371493 0 0.2558 0.0378036 0 0.2558 0.0384578 0 0.2558 0.039112 0 0.2558 0.0397662 0 0.2558 0.0404204 0 0.2558 0.0410747 0 0.2558 0.0417289 0 0.2558 0.0423831 0 0.2558 0.0430373 0 0.2558 0.0436916 0 0.2558 0.0443458 0 0.2558 0.045 0 0.2591 0.0353733 0 0.2591 0.0360151 0 0.2591 0.0366569 0 0.2591 0.0372987 0 0.2591 0.0379404 0 0.2591 0.0385822 0 0.2591 0.039224 0 0.2591 0.0398658 0 0.2591 0.0405076 0 0.2591 0.0411493 0 0.2591 0.0417911 0 0.2591 0.0424329 0 0.2591 0.0430747 0 0.2591 0.0437164 0 0.2591 0.0443582 0 0.2591 0.045 0 0.2624 0.03556 0 0.2624 0.0361893 0 0.2624 0.0368187 0 0.2624 0.037448 0 0.2624 0.0380773 0 0.2624 0.0387067 0 0.2624 0.039336 0 0.2624 0.0399653 0 0.2624 0.0405947 0 0.2624 0.041224 0 0.2624 0.0418533 0 0.2624 0.0424827 0 0.2624 0.043112 0 0.2624 0.0437413 0 0.2624 0.0443707 0 0.2624 0.045 0 0.2657 0.0357467 0 0.2657 0.0363636 0 0.2657 0.0369804 0 0.2657 0.0375973 0 0.2657 0.0382142 0 0.2657 0.0388311 0 0.2657 0.039448 0 0.2657 0.0400649 0 0.2657 0.0406818 0 0.2657 0.0412987 0 0.2657 0.0419156 0 0.2657 0.0425324 0 0.2657 0.0431493 0 0.2657 0.0437662 0 0.2657 0.0443831 0 0.2657 0.045 0 0.269 0.0359333 0 0.269 0.0365378 0 0.269 0.0371422 0 0.269 0.0377467 0 0.269 0.0383511 0 0.269 0.0389556 0 0.269 0.03956 0 0.269 0.0401644 0 0.269 0.0407689 0 0.269 0.0413733 0 0.269 0.0419778 0 0.269 0.0425822 0 0.269 0.0431867 0 0.269 0.0437911 0 0.269 0.0443956 0 0.269 0.045 0 0.2723 0.03612 0 0.2723 0.036712 0 0.2723 0.037304 0 0.2723 0.037896 0 0.2723 0.038488 0 0.2723 0.03908 0 0.2723 0.039672 0 0.2723 0.040264 0 0.2723 0.040856 0 0.2723 0.041448 0 0.2723 0.04204 0 0.2723 0.042632 0 0.2723 0.043224 0 0.2723 0.043816 0 0.2723 0.044408 0 0.2723 0.045 0 0.2756 0.0363067 0 0.2756 0.0368862 0 0.2756 0.0374658 0 0.2756 0.0380453 0 0.2756 0.0386249 0 0.2756 0.0392044 0 0.2756 0.039784 0 0.2756 0.0403636 0 0.2756 0.0409431 0 0.2756 0.0415227 0 0.2756 0.0421022 0 0.2756 0.0426818 0 0.2756 0.0432613 0 0.2756 0.0438409 0 0.2756 0.0444204 0 0.2756 0.045 0 0.2789 0.0364933 0 0.2789 0.0370604 0 0.2789 0.0376276 0 0.2789 0.0381947 0 0.2789 0.0387618 0 0.2789 0.0393289 0 0.2789 0.039896 0 0.2789 0.0404631 0 0.2789 0.0410302 0 0.2789 0.0415973 0 0.2789 0.0421644 0 0.2789 0.0427316 0 0.2789 0.0432987 0 0.2789 0.0438658 0 0.2789 0.0444329 0 0.2789 0.045 0 0.2822 0.03668 0 0.2822 0.0372347 0 0.2822 0.0377893 0 0.2822 0.038344 0 0.2822 0.0388987 0 0.2822 0.0394533 0 0.2822 0.040008 0 0.2822 0.0405627 0 0.2822 0.0411173 0 0.2822 0.041672 0 0.2822 0.0422267 0 0.2822 0.0427813 0 0.2822 0.043336 0 0.2822 0.0438907 0 0.2822 0.0444453 0 0.2822 0.045 0 0.2855 0.0368667 0 0.2855 0.0374089 0 0.2855 0.0379511 0 0.2855 0.0384933 0 0.2855 0.0390356 0 0.2855 0.0395778 0 0.2855 0.04012 0 0.2855 0.0406622 0 0.2855 0.0412044 0 0.2855 0.0417467 0 0.2855 0.0422889 0 0.2855 0.0428311 0 0.2855 0.0433733 0 0.2855 0.0439156 0 0.2855 0.0444578 0 0.2855 0.045 0 0.2888 0.0370533 0 0.2888 0.0375831 0 0.2888 0.0381129 0 0.2888 0.0386427 0 0.2888 0.0391724 0 0.2888 0.0397022 0 0.2888 0.040232 0 0.2888 0.0407618 0 0.2888 0.0412916 0 0.2888 0.0418213 0 0.2888 0.0423511 0 0.2888 0.0428809 0 0.2888 0.0434107 0 0.2888 0.0439404 0 0.2888 0.0444702 0 0.2888 0.045 0 0.2921 0.03724 0 0.2921 0.0377573 0 0.2921 0.0382747 0 0.2921 0.038792 0 0.2921 0.0393093 0 0.2921 0.0398267 0 0.2921 0.040344 0 0.2921 0.0408613 0 0.2921 0.0413787 0 0.2921 0.041896 0 0.2921 0.0424133 0 0.2921 0.0429307 0 0.2921 0.043448 0 0.2921 0.0439653 0 0.2921 0.0444827 0 0.2921 0.045 0 0.2954 0.0374267 0 0.2954 0.0379316 0 0.2954 0.0384364 0 0.2954 0.0389413 0 0.2954 0.0394462 0 0.2954 0.0399511 0 0.2954 0.040456 0 0.2954 0.0409609 0 0.2954 0.0414658 0 0.2954 0.0419707 0 0.2954 0.0424756 0 0.2954 0.0429804 0 0.2954 0.0434853 0 0.2954 0.0439902 0 0.2954 0.0444951 0 0.2954 0.045 0 0.2987 0.0376133 0 0.2987 0.0381058 0 0.2987 0.0385982 0 0.2987 0.0390907 0 0.2987 0.0395831 0 0.2987 0.0400756 0 0.2987 0.040568 0 0.2987 0.0410604 0 0.2987 0.0415529 0 0.2987 0.0420453 0 0.2987 0.0425378 0 0.2987 0.0430302 0 0.2987 0.0435227 0 0.2987 0.0440151 0 0.2987 0.0445076 0 0.2987 0.045 0 0.302 0.0378 0 0.302 0.03828 0 0.302 0.03876 0 0.302 0.03924 0 0.302 0.03972 0 0.302 0.0402 0 0.302 0.04068 0 0.302 0.04116 0 0.302 0.04164 0 0.302 0.04212 0 0.302 0.0426 0 0.302 0.04308 0 0.302 0.04356 0 0.302 0.04404 0 0.302 0.04452 0 0.302 0.045 0 
</DataArray>
</Points> 
</Piece> 
</StructuredGrid> 
</VTKFile> 
