<?xml version="1.0"?> 
<VTKFile type="StructuredGrid" version="0.1"> 
<StructuredGrid WholeExtent="0 15 0 15 0 0"> 
<Piece Extent="0 15 0 15 0 0"> 
<PointData>
<DataArray type="Float32" Name="E" format="ascii" NumberOfComponents="3"> 
2.36074e+06 -240892 0 2.38193e+06 -243054 0 2.39782e+06 -244676 0 2.40846e+06 -245761 0 2.41382e+06 -246308 0 2.4138e+06 -246306 0 2.40814e+06 -245728 0 2.39643e+06 -244533 0 2.37805e+06 -242658 0 2.35215e+06 -240016 0 2.31765e+06 -236495 0 2.27319e+06 -231958 0 2.21719e+06 -226244 0 2.14789e+06 -219172 0 2.06339e+06 -210550 0 1.96179e+06 -200182 0 2.74176e+06 -254999 0 2.73136e+06 -270736 0 2.72243e+06 -287553 0 2.71495e+06 -305396 0 2.70894e+06 -324214 0 2.70446e+06 -343955 0 2.7016e+06 -364571 0 2.70051e+06 -385992 0 2.70141e+06 -408101 0 2.70459e+06 -430699 0 2.71037e+06 -453477 0 2.71914e+06 -475994 0 2.73132e+06 -497668 0 2.74732e+06 -517763 0 2.76754e+06 -535387 0 2.79227e+06 -549547 0 3.02808e+06 -241955 0 3.01944e+06 -259456 0 3.01244e+06 -276524 0 3.00719e+06 -293294 0 3.00382e+06 -309864 0 3.00246e+06 -326277 0 3.00321e+06 -342532 0 3.00616e+06 -358591 0 3.01136e+06 -374412 0 3.01885e+06 -389974 0 3.02862e+06 -405313 0 3.04062e+06 -420554 0 3.05479e+06 -435962 0 3.07104e+06 -451992 0 3.08931e+06 -469358 0 3.10956e+06 -489069 0 3.25809e+06 -206842 0 3.24877e+06 -218413 0 3.24115e+06 -230825 0 3.23542e+06 -243719 0 3.23172e+06 -256814 0 3.23017e+06 -269874 0 3.23085e+06 -282699 0 3.23383e+06 -295103 0 3.23914e+06 -306898 0 3.24681e+06 -317871 0 3.25678e+06 -327757 0 3.26899e+06 -336216 0 3.28328e+06 -342778 0 3.29946e+06 -346777 0 3.3172e+06 -347259 0 3.33608e+06 -342853 0 3.41981e+06 -146215 0 3.41207e+06 -158389 0 3.40575e+06 -170006 0 3.40099e+06 -181153 0 3.39793e+06 -191845 0 3.39671e+06 -202021 0 3.39743e+06 -211578 0 3.40016e+06 -220384 0 3.40489e+06 -228298 0 3.41159e+06 -235182 0 3.42019e+06 -240926 0 3.43056e+06 -245483 0 3.44259e+06 -248932 0 3.45614e+06 -251556 0 3.4711e+06 -253976 0 3.48747e+06 -257258 0 3.52497e+06 -100236 0 3.51969e+06 -107484 0 3.51532e+06 -115220 0 3.51208e+06 -123069 0 3.51011e+06 -130801 0 3.50953e+06 -138208 0 3.5104e+06 -145090 0 3.51277e+06 -151248 0 3.51665e+06 -156505 0 3.52203e+06 -160715 0 3.52883e+06 -163758 0 3.53691e+06 -165507 0 3.54608e+06 -165775 0 3.55606e+06 -164246 0 3.56653e+06 -160377 0 3.57702e+06 -153169 0 3.58452e+06 -57012.9 0 3.58184e+06 -63221.6 0 3.57967e+06 -69228.2 0 3.5781e+06 -74936.7 0 3.57725e+06 -80232.6 0 3.57726e+06 -85002.8 0 3.57822e+06 -89176.1 0 3.58018e+06 -92701.3 0 3.58311e+06 -95500.6 0 3.58691e+06 -97446 0 3.59147e+06 -98377.5 0 3.59665e+06 -98165.6 0 3.60231e+06 -96786.5 0 3.60832e+06 -94397.1 0 3.61455e+06 -91428.9 0 3.62093e+06 -88638.2 0 3.61304e+06 -31783.4 0 3.61184e+06 -34131.1 0 3.61102e+06 -36727.6 0 3.61065e+06 -39513.3 0 3.61076e+06 -42470.3 0 3.61133e+06 -45437.8 0 3.61233e+06 -48135.9 0 3.61374e+06 -50260.3 0 3.61558e+06 -51596.4 0 3.61786e+06 -52086.1 0 3.62053e+06 -51809 0 3.62349e+06 -50897.6 0 3.6266e+06 -49431.6 0 3.62965e+06 -47358.9 0 3.63243e+06 -44457.2 0 3.63471e+06 -40178.6 0 3.62508e+06 -14082.9 0 3.62487e+06 -16731.6 0 3.62464e+06 -19195.6 0 3.62441e+06 -21071.3 0 3.62432e+06 -22223.9 0 3.62447e+06 -22772.5 0 3.62497e+06 -23016.4 0 3.6258e+06 -23260.7 0 3.62687e+06 -23645.3 0 3.62805e+06 -24072.3 0 3.6292e+06 -24258.5 0 3.63021e+06 -23889.2 0 3.63105e+06 -22786.8 0 3.63172e+06 -21024.5 0 3.63223e+06 -18969.4 0 3.63261e+06 -17179.8 0 3.62921e+06 -12901.9 0 3.62841e+06 -10642.4 0 3.62811e+06 -9469.77 0 3.62819e+06 -9619.63 0 3.62848e+06 -10956.1 0 3.62878e+06 -12928.8 0 3.62896e+06 -14804.3 0 3.629e+06 -15952.4 0 3.62896e+06 -16079.3 0 3.62893e+06 -15314.6 0 3.629e+06 -14122.2 0 3.62917e+06 -13087.2 0 3.62936e+06 -12673.5 0 3.62944e+06 -13051.9 0 3.6293e+06 -14059.2 0 3.62885e+06 -15173.4 0 3.64272e+06 -16818 0 3.64095e+06 -20250 0 3.63894e+06 -21397.3 0 3.63691e+06 -20295.6 0 3.6351e+06 -17645 0 3.63373e+06 -14523.8 0 3.63289e+06 -12056.6 0 3.63253e+06 -11067.9 0 3.63249e+06 -11847.9 0 3.63256e+06 -14108.7 0 3.63257e+06 -17134.5 0 3.63243e+06 -20065.6 0 3.63221e+06 -22208.6 0 3.63205e+06 -23271.2 0 3.63215e+06 -23463.6 0 3.63269e+06 -23355.9 0 3.65929e+06 8632.14 0 3.65743e+06 6813.74 0 3.6564e+06 1870.71 0 3.65586e+06 -5395.31 0 3.65546e+06 -13662.7 0 3.65492e+06 -21399.8 0 3.65416e+06 -27276.4 0 3.65325e+06 -30500.9 0 3.65241e+06 -31001.7 0 3.6519e+06 -29413.9 0 3.65195e+06 -26881.5 0 3.6527e+06 -24740.7 0 3.6542e+06 -24174.3 0 3.65638e+06 -25928.9 0 3.65915e+06 -30171.7 0 3.66245e+06 -36439 0 3.71848e+06 15046.4 0 3.71359e+06 10321.8 0 3.70865e+06 10685.4 0 3.70415e+06 14020.7 0 3.70055e+06 18023.7 0 3.69814e+06 20630 0 3.69707e+06 20327.4 0 3.69729e+06 16369.9 0 3.69865e+06 8842.85 0 3.70096e+06 -1429.05 0 3.7041e+06 -13104.1 0 3.70804e+06 -24629.2 0 3.71288e+06 -34559.8 0 3.71885e+06 -41834.7 0 3.72626e+06 -45965 0 3.73542e+06 -47023 0 3.79909e+06 265707 0 3.79941e+06 218627 0 3.80152e+06 175169 0 3.80489e+06 136704 0 3.80906e+06 104468 0 3.81377e+06 79285.7 0 3.81892e+06 61420.6 0 3.82459e+06 50508.8 0 3.83097e+06 45581.4 0 3.83833e+06 45170.1 0 3.84695e+06 47476.9 0 3.85706e+06 50578 0 3.86885e+06 52633.7 0 3.88244e+06 52073 0 3.89791e+06 47721.5 0 3.91536e+06 38918.7 0 4.17799e+06 998670 0 4.18109e+06 900543 0 4.1795e+06 812573 0 4.17521e+06 733306 0 4.17015e+06 661341 0 4.1661e+06 595437 0 4.16465e+06 534527 0 4.16717e+06 477705 0 4.17478e+06 424214 0 4.18834e+06 373407 0 4.20846e+06 324722 0 4.2355e+06 277652 0 4.26956e+06 231723 0 4.31046e+06 186490 0 4.35774e+06 141537 0 4.41066e+06 96564.1 0 3.2273e+06 5.79349e+06 0 3.73219e+06 5.57835e+06 0 4.22827e+06 5.30396e+06 0 4.70765e+06 4.9715e+06 0 5.16187e+06 4.58286e+06 0 5.58221e+06 4.14113e+06 0 5.96005e+06 3.65088e+06 0 6.28721e+06 3.11823e+06 0 6.55625e+06 2.55083e+06 0 6.76079e+06 1.95771e+06 0 6.89571e+06 1.34908e+06 0 6.95727e+06 736105 0 6.9433e+06 130622 0 6.85316e+06 -455093 0 6.6878e+06 -1.00861e+06 0 6.44974e+06 -1.51759e+06 0 </DataArray> 
</PointData> 
<Points> 
<DataArray type="Float32" NumberOfComponents="3"> 
0.307 0.005 0 0.307033 0.00532667 0 0.307067 0.00565333 0 0.3071 0.00598 0 0.307133 0.00630667 0 0.307167 0.00663333 0 0.3072 0.00696 0 0.307233 0.00728667 0 0.307267 0.00761333 0 0.3073 0.00794 0 0.307333 0.00826667 0 0.307367 0.00859333 0 0.3074 0.00892 0 0.307433 0.00924667 0 0.307467 0.00957333 0 0.3075 0.0099 0 0.312716 0.00536037 0 0.312597 0.00566717 0 0.312497 0.00597717 0 0.312418 0.00629014 0 0.31236 0.00660588 0 0.312322 0.00692417 0 0.312304 0.00724477 0 0.312307 0.00756747 0 0.31233 0.00789203 0 0.312375 0.00821822 0 0.312439 0.0085458 0 0.312524 0.00887453 0 0.31263 0.00920417 0 0.312755 0.00953448 0 0.312901 0.00986522 0 0.313067 0.0101962 0 0.318432 0.00572074 0 0.318178 0.00600882 0 0.317962 0.00630303 0 0.317783 0.00660297 0 0.317642 0.00690828 0 0.317539 0.00721852 0 0.317475 0.00753327 0 0.317449 0.00785209 0 0.317463 0.00817452 0 0.317516 0.00850009 0 0.317607 0.00882831 0 0.317737 0.00915872 0 0.317905 0.00949081 0 0.318111 0.00982409 0 0.318354 0.0101581 0 0.318633 0.0104923 0 0.324148 0.00608111 0 0.323779 0.00635163 0 0.323461 0.00663093 0 0.323194 0.00691854 0 0.32298 0.00721391 0 0.32282 0.00751646 0 0.322714 0.00782558 0 0.322662 0.00814061 0 0.322666 0.00846087 0 0.322724 0.00878567 0 0.322838 0.00911427 0 0.323005 0.00944594 0 0.323226 0.00977995 0 0.3235 0.0101155 0 0.323825 0.0104519 0 0.3242 0.0107885 0 0.329863 0.00644148 0 0.329399 0.00669558 0 0.328995 0.00696091 0 0.328653 0.00723688 0 0.328376 0.00752284 0 0.328166 0.00781806 0 0.328022 0.00812177 0 0.327947 0.0084331 0 0.32794 0.00875117 0 0.328002 0.00907504 0 0.328132 0.00940374 0 0.32833 0.00973626 0 0.328594 0.0100716 0 0.328923 0.0104088 0 0.329314 0.0107468 0 0.329767 0.0110846 0 0.335579 0.00680186 0 0.335038 0.00704071 0 0.334563 0.00729297 0 0.33416 0.00755801 0 0.333831 0.0078351 0 0.333577 0.00812338 0 0.333401 0.00842191 0 0.333305 0.00872965 0 0.333288 0.0090455 0 0.333351 0.00936828 0 0.333493 0.00969677 0 0.333713 0.0100297 0 0.334009 0.0103659 0 0.33438 0.0107039 0 0.334823 0.0110426 0 0.335333 0.0113808 0 0.341295 0.00716223 0 0.340695 0.007387 0 0.340167 0.00762714 0 0.339716 0.00788199 0 0.339344 0.00815076 0 0.339056 0.00843249 0 0.338853 0.00872609 0 0.338738 0.00903034 0 0.33871 0.00934393 0 0.338771 0.00966546 0 0.338919 0.00999345 0 0.339154 0.0103264 0 0.339472 0.0106627 0 0.339872 0.0110009 0 0.340349 0.0113395 0 0.3409 0.0116769 0 0.347011 0.0075226 0 0.346372 0.00773446 0 0.345807 0.00796343 0 0.345321 0.00820885 0 0.344918 0.00846988 0 0.344603 0.00874546 0 0.344379 0.00903438 0 0.344247 0.00933526 0 0.344209 0.00964657 0 0.344265 0.00996666 0 0.344414 0.0102938 0 0.344655 0.0106263 0 0.344984 0.0109622 0 0.345399 0.0112998 0 0.345895 0.0116373 0 0.346467 0.0119731 0 0.352727 0.00788297 0 0.352068 0.0080831 0 0.351483 0.00830187 0 0.350976 0.00853863 0 0.350554 0.0087925 0 0.35022 0.00906237 0 0.34998 0.00934688 0 0.349834 0.0096445 0 0.349785 0.00995349 0 0.349833 0.010272 0 0.349978 0.010598 0 0.350216 0.0109295 0 0.350545 0.0112644 0 0.350961 0.0116006 0 0.351459 0.0119362 0 0.352033 0.0122692 0 0.358443 0.00824334 0 0.357784 0.00843294 0 0.357195 0.00864248 0 0.356682 0.00887136 0 0.356251 0.00911869 0 0.355908 0.00938328 0 0.355657 0.00966367 0 0.355501 0.00995815 0 0.355441 0.0102648 0 0.355478 0.0105815 0 0.355612 0.010906 0 0.355838 0.011236 0 0.356156 0.0115692 0 0.356559 0.0119033 0 0.357042 0.0122361 0 0.3576 0.0125654 0 0.364159 0.00860371 0 0.363519 0.00878396 0 0.362943 0.00898527 0 0.362439 0.00920709 0 0.362012 0.00944851 0 0.361669 0.00970828 0 0.361414 0.00998484 0 0.36125 0.0102763 0 0.361179 0.0105806 0 0.361202 0.0108953 0 0.361317 0.0112179 0 0.361524 0.011546 0 0.361817 0.0118768 0 0.362193 0.012208 0 0.362645 0.012537 0 0.363167 0.0128616 0 0.369874 0.00896408 0 0.369274 0.00913618 0 0.368729 0.00933028 0 0.368248 0.00954586 0 0.367838 0.00978202 0 0.367503 0.0100375 0 0.36725 0.0103105 0 0.367081 0.0105991 0 0.366999 0.0109009 0 0.367004 0.0112134 0 0.367096 0.0115338 0 0.367272 0.0118594 0 0.367529 0.0121872 0 0.367863 0.0125146 0 0.368266 0.0128389 0 0.368733 0.0131577 0 0.37559 0.00932445 0 0.375048 0.00948961 0 0.374552 0.00967751 0 0.37411 0.00988771 0 0.373729 0.0101193 0 0.373413 0.0103709 0 0.373168 0.0106407 0 0.372998 0.0109265 0 0.372904 0.0112259 0 0.372888 0.011536 0 0.37295 0.0118538 0 0.373086 0.0121763 0 0.373294 0.0125005 0 0.373569 0.0128232 0 0.373907 0.0131419 0 0.3743 0.0134539 0 0.381306 0.00968482 0 0.380842 0.00984425 0 0.380413 0.010027 0 0.380026 0.0102327 0 0.379686 0.0104603 0 0.379399 0.0107086 0 0.37917 0.0109755 0 0.379001 0.0112588 0 0.378896 0.0115557 0 0.378855 0.0118632 0 0.378879 0.012178 0 0.378965 0.0124969 0 0.379111 0.0128165 0 0.379313 0.0131339 0 0.379567 0.0134459 0 0.379867 0.01375 0 0.387022 0.0100452 0 0.386656 0.0102001 0 0.386312 0.0103788 0 0.385996 0.0105808 0 0.385711 0.0108053 0 0.385464 0.0110508 0 0.385257 0.0113152 0 0.385094 0.011596 0 0.384977 0.0118904 0 0.384907 0.012195 0 0.384886 0.0125064 0 0.384911 0.0128211 0 0.384981 0.0131355 0 0.385094 0.0134465 0 0.385246 0.0137509 0 0.385433 0.0140462 0 0.392738 0.0104056 0 0.39249 0.0105572 0 0.39225 0.0107328 0 0.392021 0.0109321 0 0.391806 0.0111542 0 0.391608 0.0113974 0 0.391431 0.0116596 0 0.391277 0.0119382 0 0.391148 0.01223 0 0.391046 0.0125315 0 0.390972 0.0128391 0 0.390925 0.0131489 0 0.390906 0.0134574 0 0.390913 0.0137612 0 0.390945 0.014057 0 0.391 0.0143423 0 
</DataArray>
</Points> 
</Piece> 
</StructuredGrid> 
</VTKFile> 
