<?xml version="1.0"?> 
<VTKFile type="StructuredGrid" version="0.1"> 
<StructuredGrid WholeExtent="0 15 0 15 0 0"> 
<Piece Extent="0 15 0 15 0 0"> 
<PointData>
<DataArray type="Float32" Name="E" format="ascii" NumberOfComponents="3"> 
5.51926e+06 -2.28615e+06 0 6.03982e+06 -2.07839e+06 0 6.48752e+06 -1.79094e+06 0 6.87605e+06 -1.44107e+06 0 7.21058e+06 -1.04005e+06 0 7.49238e+06 -596588 0 7.72112e+06 -118424 0 7.89607e+06 387095 0 8.01671e+06 912785 0 8.083e+06 1.4516e+06 0 8.09556e+06 1.9967e+06 0 8.05569e+06 2.5415e+06 0 7.96535e+06 3.07981e+06 0 7.82712e+06 3.60586e+06 0 7.64408e+06 4.11444e+06 0 7.41979e+06 4.60089e+06 0 5.28516e+06 -681931 0 5.46824e+06 -486444 0 5.63924e+06 -252946 0 5.78717e+06 16690.6 0 5.90426e+06 317083 0 5.98538e+06 641157 0 6.02778e+06 981155 0 6.03078e+06 1.32928e+06 0 5.99551e+06 1.67816e+06 0 5.92454e+06 2.02122e+06 0 5.82155e+06 2.35294e+06 0 5.69096e+06 2.66893e+06 0 5.53756e+06 2.96601e+06 0 5.36621e+06 3.24216e+06 0 5.18156e+06 3.49632e+06 0 4.98791e+06 3.72831e+06 0 4.7925e+06 -73685.3 0 4.88481e+06 102287 0 4.95995e+06 304205 0 5.0128e+06 528306 0 5.03928e+06 769844 0 5.03682e+06 1.02316e+06 0 5.00458e+06 1.28215e+06 0 4.94342e+06 1.54079e+06 0 4.85566e+06 1.79361e+06 0 4.74478e+06 2.03608e+06 0 4.61493e+06 2.2648e+06 0 4.47055e+06 2.47752e+06 0 4.31606e+06 2.67306e+06 0 4.15552e+06 2.85118e+06 0 3.99249e+06 3.01237e+06 0 3.82997e+06 3.1576e+06 0 4.38973e+06 192232 0 4.43048e+06 349359 0 4.45375e+06 523772 0 4.45626e+06 713087 0 4.43562e+06 913490 0 4.39075e+06 1.12032e+06 0 4.322e+06 1.32864e+06 0 4.23107e+06 1.53373e+06 0 4.12079e+06 1.73151e+06 0 3.99473e+06 1.91879e+06 0 3.85682e+06 2.09341e+06 0 3.71101e+06 2.25419e+06 0 3.56097e+06 2.4008e+06 0 3.40992e+06 2.53359e+06 0 3.26056e+06 2.65342e+06 0 3.11502e+06 2.76141e+06 0 4.07697e+06 305592 0 4.08301e+06 441274 0 4.07201e+06 591826 0 4.04166e+06 754358 0 3.99064e+06 925264 0 3.91883e+06 1.10045e+06 0 3.82731e+06 1.27573e+06 0 3.71823e+06 1.44723e+06 0 3.59457e+06 1.61168e+06 0 3.45977e+06 1.76668e+06 0 3.31741e+06 1.91068e+06 0 3.17089e+06 2.04299e+06 0 3.02328e+06 2.16359e+06 0 2.87712e+06 2.27299e+06 0 2.73447e+06 2.37206e+06 0 2.59686e+06 2.46184e+06 0 3.83528e+06 328737 0 3.81419e+06 447259 0 3.77628e+06 578774 0 3.72023e+06 720964 0 3.64559e+06 870626 0 3.55294e+06 1.02409e+06 0 3.44387e+06 1.17763e+06 0 3.3208e+06 1.32781e+06 0 3.18672e+06 1.47181e+06 0 3.04483e+06 1.60754e+06 0 2.89832e+06 1.73373e+06 0 2.75013e+06 1.84982e+06 0 2.60277e+06 1.95586e+06 0 2.45831e+06 2.05235e+06 0 2.31832e+06 2.14004e+06 0 2.184e+06 2.21986e+06 0 3.6486e+06 297443 0 3.6028e+06 399883 0 3.54045e+06 515735 0 3.46108e+06 642582 0 3.36511e+06 777383 0 3.25379e+06 916610 0 3.12913e+06 1.05663e+06 0 2.9937e+06 1.19409e+06 0 2.85035e+06 1.32622e+06 0 2.702e+06 1.451e+06 0 2.55139e+06 1.56716e+06 0 2.40094e+06 1.67416e+06 0 2.25267e+06 1.77201e+06 0 2.10817e+06 1.86115e+06 0 1.96862e+06 1.9423e+06 0 1.83486e+06 2.01629e+06 0 3.50533e+06 225070 0 3.43425e+06 313718 0 3.34676e+06 416912 0 3.24361e+06 532986 0 3.12625e+06 658758 0 2.99672e+06 790355 0 2.85734e+06 923770 0 2.71064e+06 1.05531e+06 0 2.55913e+06 1.18197e+06 0 2.40523e+06 1.30156e+06 0 2.25109e+06 1.41276e+06 0 2.09856e+06 1.51498e+06 0 1.94914e+06 1.60823e+06 0 1.80396e+06 1.69295e+06 0 1.66385e+06 1.76982e+06 0 1.52937e+06 1.83971e+06 0 3.39799e+06 121231 0 3.2984e+06 194555 0 3.18216e+06 288144 0 3.05248e+06 398651 0 2.91249e+06 521856 0 2.76482e+06 652691 0 2.61184e+06 786056 0 2.45552e+06 917533 0 2.29766e+06 1.04367e+06 0 2.13985e+06 1.16213e+06 0 1.98349e+06 1.27155e+06 0 1.82977e+06 1.37142e+06 0 1.67965e+06 1.46184e+06 0 1.53383e+06 1.54334e+06 0 1.39283e+06 1.61669e+06 0 1.25694e+06 1.68282e+06 0 3.32585e+06 -20536.1 0 3.1875e+06 41475.2 0 3.03506e+06 130260 0 2.87453e+06 242731 0 2.71048e+06 371763 0 2.54574e+06 509603 0 2.38153e+06 649402 0 2.21853e+06 785765 0 2.05715e+06 914993 0 1.89786e+06 1.03479e+06 0 1.74116e+06 1.14405e+06 0 1.58756e+06 1.24252e+06 0 1.43754e+06 1.33056e+06 0 1.29146e+06 1.40887e+06 0 1.14955e+06 1.4784e+06 0 1.01197e+06 1.54014e+06 0 3.28162e+06 -197888 0 3.09276e+06 -151614 0 2.89287e+06 -58766.6 0 2.69624e+06 67816.5 0 2.50866e+06 214041 0 2.33035e+06 367648 0 2.15962e+06 519705 0 1.99439e+06 664557 0 1.83326e+06 798816 0 1.67537e+06 920868 0 1.52041e+06 1.03018e+06 0 1.36834e+06 1.12704e+06 0 1.21928e+06 1.21214e+06 0 1.07336e+06 1.2865e+06 0 930681 1.3512e+06 0 791287 1.40738e+06 0 3.28339e+06 -438924 0 3.00367e+06 -399295 0 2.73772e+06 -282593 0 2.5027e+06 -121052 0 2.29712e+06 57000.5 0 2.1132e+06 234591 0 1.9431e+06 402925 0 1.78138e+06 557612 0 1.6246e+06 696997 0 1.47098e+06 820667 0 1.31963e+06 929130 0 1.17026e+06 1.02328e+06 0 1.02285e+06 1.1043e+06 0 877455 1.17344e+06 0 734146 1.23197e+06 0 592958 1.28106e+06 0 3.30878e+06 -793999 0 2.88987e+06 -728064 0 2.54173e+06 -539215 0 2.27808e+06 -311621 0 2.06992e+06 -87378.3 0 1.89312e+06 119129 0 1.73268e+06 303995 0 1.58028e+06 467311 0 1.4316e+06 609959 0 1.28448e+06 733484 0 1.13811e+06 839374 0 992211 929281 0 846870 1.00474e+06 0 702235 1.06725e+06 0 558460 1.11813e+06 0 415654 1.15856e+06 0 3.42727e+06 -1.33805e+06 0 2.68373e+06 -1.16327e+06 0 2.26657e+06 -808135 0 2.01181e+06 -480657 0 1.82837e+06 -204230 0 1.67389e+06 28423 0 1.53171e+06 225993 0 1.39334e+06 393970 0 1.25528e+06 536890 0 1.11607e+06 657680 0 975325 759024 0 833235 842970 0 690124 911407 0 546391 965884 0 402368 1.00774e+06 0 258332 1.03803e+06 0 3.3598e+06 -2.77066e+06 0 2.20242e+06 -1.67417e+06 0 1.88016e+06 -1.02166e+06 0 1.71361e+06 -596313 0 1.58172e+06 -281926 0 1.46342e+06 -33475.4 0 1.34463e+06 168656 0 1.22295e+06 336419 0 1.09658e+06 475695 0 965626 591250 0 830611 685973 0 692253 762438 0 551357 822522 0 408624 867812 0 264685 899503 0 120074 918465 0 -14425.3 -3.64043e+06 0 1.35167e+06 -1.83746e+06 0 1.44719e+06 -1.09126e+06 0 1.40357e+06 -638315 0 1.35047e+06 -316214 0 1.26789e+06 -68682.7 0 1.17617e+06 129994 0 1.07057e+06 291604 0 955887 424108 0 832713 531832 0 702996 618347 0 568065 685996 0 429232 736749 0 287622 771991 0 144245 792742 0 -0.574514 799592 0 </DataArray> 
</PointData> 
<Points> 
<DataArray type="Float32" NumberOfComponents="3"> 
0.3188 0.0378 0 0.31915 0.0387237 0 0.319446 0.0396795 0 0.319684 0.0406627 0 0.319862 0.0416681 0 0.319976 0.0426901 0 0.320025 0.0437226 0 0.320008 0.0447593 0 0.319924 0.0457937 0 0.319773 0.0468196 0 0.319558 0.0478306 0 0.31928 0.0488206 0 0.318942 0.0497841 0 0.318548 0.0507158 0 0.318101 0.0516112 0 0.317607 0.0524662 0 0.32408 0.03728 0 0.324475 0.0385758 0 0.32481 0.0399108 0 0.325083 0.0412788 0 0.32529 0.0426729 0 0.325427 0.0440857 0 0.325494 0.0455093 0 0.325488 0.0469356 0 0.32541 0.0483565 0 0.325259 0.0497637 0 0.325038 0.0511491 0 0.324748 0.0525053 0 0.324392 0.0538248 0 0.323974 0.0551012 0 0.323497 0.0563286 0 0.322966 0.0575018 0 0.32936 0.03676 0 0.32979 0.0384282 0 0.330156 0.0401413 0 0.330456 0.0418919 0 0.330685 0.0436717 0 0.330841 0.0454717 0 0.330921 0.0472828 0 0.330926 0.0490953 0 0.330854 0.0508995 0 0.330705 0.0526859 0 0.330481 0.054445 0 0.330183 0.0561679 0 0.329816 0.0578459 0 0.329381 0.0594714 0 0.328883 0.0610373 0 0.328326 0.0625374 0 0.33464 0.03624 0 0.335095 0.0382808 0 0.335483 0.040371 0 0.335802 0.0425021 0 0.336048 0.0446645 0 0.336217 0.0468483 0 0.336309 0.0490432 0 0.336322 0.0512384 0 0.336256 0.0534231 0 0.33611 0.0555867 0 0.335886 0.0577186 0 0.335586 0.0598087 0 0.335213 0.0618476 0 0.334769 0.0638264 0 0.334258 0.0657373 0 0.333685 0.067573 0 0.33992 0.03572 0 0.34039 0.0381337 0 0.340792 0.0406 0 0.341123 0.0431093 0 0.341379 0.0456514 0 0.341558 0.0482156 0 0.341658 0.0507907 0 0.341677 0.0533652 0 0.341617 0.0559275 0 0.341476 0.0584661 0 0.341255 0.0609699 0 0.340957 0.0634279 0 0.340584 0.0658299 0 0.340138 0.0681664 0 0.339624 0.0704286 0 0.339045 0.0726086 0 0.3452 0.0352 0 0.345676 0.0379869 0 0.346083 0.0408281 0 0.346418 0.0437135 0 0.346679 0.0466325 0 0.346862 0.0495737 0 0.346967 0.0525255 0 0.346992 0.0554758 0 0.346937 0.0584128 0 0.346802 0.0613246 0 0.346588 0.0641993 0 0.346296 0.0670257 0 0.345929 0.0697931 0 0.345489 0.0724914 0 0.34498 0.0751112 0 0.344405 0.0776442 0 0.35048 0.03468 0 0.350952 0.0378403 0 0.351355 0.0410554 0 0.351688 0.0443149 0 0.351947 0.0476078 0 0.352131 0.0509226 0 0.352237 0.0542476 0 0.352266 0.0575705 0 0.352217 0.0608794 0 0.35209 0.0641622 0 0.351885 0.0674069 0 0.351604 0.0706023 0 0.351249 0.0737373 0 0.350822 0.0768014 0 0.350326 0.0797852 0 0.349764 0.0826797 0 0.35576 0.03416 0 0.356218 0.037694 0 0.356609 0.041282 0 0.356932 0.0449134 0 0.357184 0.0485774 0 0.357364 0.0522625 0 0.35747 0.0559572 0 0.357501 0.0596494 0 0.357457 0.0633274 0 0.357339 0.0669792 0 0.357146 0.0705931 0 0.35688 0.0741578 0 0.356543 0.0776625 0 0.356136 0.0810966 0 0.355662 0.0844506 0 0.355124 0.0877153 0 0.36104 0.03364 0 0.361474 0.037548 0 0.361845 0.0415077 0 0.362152 0.045509 0 0.362391 0.0495413 0 0.362562 0.0535935 0 0.362664 0.0576544 0 0.362696 0.0617127 0 0.362658 0.065757 0 0.36255 0.0697758 0 0.362372 0.073758 0 0.362126 0.0776925 0 0.361812 0.081569 0 0.361432 0.0853771 0 0.360988 0.0891074 0 0.360483 0.0927509 0 0.36632 0.03312 0 0.366721 0.0374022 0 0.367063 0.0417327 0 0.367346 0.0461018 0 0.367567 0.0504995 0 0.367726 0.0549155 0 0.367821 0.0593394 0 0.367853 0.0637606 0 0.36782 0.0681684 0 0.367724 0.0725523 0 0.367564 0.0769017 0 0.367341 0.0812066 0 0.367056 0.0854568 0 0.36671 0.0896429 0 0.366305 0.0937557 0 0.365843 0.0977865 0 0.3716 0.0326 0 0.371958 0.0372568 0 0.372264 0.041957 0 0.372516 0.0466918 0 0.372713 0.0514522 0 0.372855 0.0562288 0 0.372941 0.0610124 0 0.372971 0.0657932 0 0.372944 0.0705619 0 0.37286 0.0753088 0 0.372721 0.0800247 0 0.372525 0.0847001 0 0.372274 0.0893261 0 0.37197 0.093894 0 0.371612 0.0983954 0 0.371202 0.102822 0 0.37688 0.03208 0 0.377186 0.0371115 0 0.377446 0.0421804 0 0.377661 0.0472789 0 0.377829 0.0523993 0 0.377951 0.0575334 0 0.378025 0.0626733 0 0.378051 0.0678108 0 0.37803 0.0729376 0 0.37796 0.0780457 0 0.377843 0.0831269 0 0.377679 0.0881733 0 0.377468 0.0931771 0 0.377211 0.0981307 0 0.376909 0.103027 0 0.376562 0.107858 0 0.38216 0.03156 0 0.382403 0.0369666 0 0.382611 0.0424031 0 0.382782 0.0478633 0 0.382916 0.0533409 0 0.383013 0.0588294 0 0.383072 0.0643224 0 0.383094 0.0698134 0 0.383078 0.0752957 0 0.383024 0.080763 0 0.382932 0.0862087 0 0.382804 0.0916264 0 0.382638 0.0970099 0 0.382435 0.102353 0 0.382196 0.107649 0 0.381921 0.112893 0 0.38744 0.03104 0 0.387612 0.0368219 0 0.387758 0.0426251 0 0.387879 0.048445 0 0.387973 0.0542771 0 0.388041 0.0601169 0 0.388083 0.0659598 0 0.388099 0.0718012 0 0.388088 0.0776365 0 0.388051 0.083461 0 0.387988 0.0892702 0 0.387898 0.0950596 0 0.387783 0.100825 0 0.387641 0.106561 0 0.387474 0.112264 0 0.387281 0.117929 0 0.39272 0.03052 0 0.392811 0.0366775 0 0.392888 0.0428462 0 0.392951 0.0490238 0 0.393001 0.0552079 0 0.393037 0.061396 0 0.393059 0.0675857 0 0.393068 0.0737745 0 0.393062 0.0799601 0 0.393043 0.08614 0 0.39301 0.0923117 0 0.392964 0.0984729 0 0.392903 0.104621 0 0.392829 0.110754 0 0.392742 0.116869 0 0.39264 0.122964 0 0.398 0.03 0 0.398 0.0365333 0 0.398 0.0430667 0 0.398 0.0496 0 0.398 0.0561333 0 0.398 0.0626667 0 0.398 0.0692 0 0.398 0.0757333 0 0.398 0.0822667 0 0.398 0.0888 0 0.398 0.0953333 0 0.398 0.101867 0 0.398 0.1084 0 0.398 0.114933 0 0.398 0.121467 0 0.398 0.128 0 
</DataArray>
</Points> 
</Piece> 
</StructuredGrid> 
</VTKFile> 
