<?xml version="1.0"?> 
<VTKFile type="StructuredGrid" version="0.1"> 
<StructuredGrid WholeExtent="0 127 0 127 0 0"> 
<Piece Extent="0 127 0 127 0 0"> 
<PointData>
<DataArray type="Float32" Name="|E|" format="ascii" NumberOfComponents="3"> 
-3.75254e+06 1.01041e+06 0 -3.75795e+06 1.00528e+06 0 -3.76339e+06 1.00013e+06 0 -3.76885e+06 994940 0 -3.77435e+06 989718 0 -3.77986e+06 984463 0 -3.78541e+06 979174 0 -3.79099e+06 973852 0 -3.79659e+06 968495 0 -3.80222e+06 963105 0 -3.80788e+06 957679 0 -3.81357e+06 952219 0 -3.81928e+06 946724 0 -3.82503e+06 941193 0 -3.8308e+06 935628 0 -3.83661e+06 930026 0 -3.84244e+06 924388 0 -3.8483e+06 918715 0 -3.8542e+06 913004 0 -3.86012e+06 907257 0 -3.86608e+06 901473 0 -3.87206e+06 895652 0 -3.87808e+06 889794 0 -3.88413e+06 883897 0 -3.89021e+06 877963 0 -3.89632e+06 871990 0 -3.90247e+06 865979 0 -3.90864e+06 859929 0 -3.91485e+06 853840 0 -3.92109e+06 847712 0 -3.92737e+06 841544 0 -3.93368e+06 835336 0 -3.94002e+06 829088 0 -3.9464e+06 822800 0 -3.95281e+06 816470 0 -3.95925e+06 810100 0 -3.96573e+06 803689 0 -3.97224e+06 797236 0 -3.97879e+06 790741 0 -3.98538e+06 784204 0 -3.992e+06 777624 0 -3.99865e+06 771002 0 -4.00535e+06 764336 0 -4.01207e+06 757627 0 -4.01884e+06 750875 0 -4.02564e+06 744078 0 -4.03248e+06 737237 0 -4.03936e+06 730351 0 -4.04628e+06 723421 0 -4.05323e+06 716445 0 -4.06023e+06 709423 0 -4.06726e+06 702356 0 -4.07433e+06 695242 0 -4.08144e+06 688081 0 -4.08859e+06 680874 0 -4.09579e+06 673619 0 -4.10302e+06 666317 0 -4.11029e+06 658966 0 -4.1176e+06 651568 0 -4.12496e+06 644120 0 -4.13236e+06 636623 0 -4.1398e+06 629077 0 -4.14728e+06 621481 0 -4.1548e+06 613835 0 -4.16237e+06 606139 0 -4.16998e+06 598391 0 -4.17764e+06 590592 0 -4.18534e+06 582741 0 -4.19308e+06 574839 0 -4.20087e+06 566884 0 -4.20871e+06 558875 0 -4.21659e+06 550814 0 -4.22452e+06 542699 0 -4.23249e+06 534530 0 -4.24051e+06 526306 0 -4.24858e+06 518028 0 -4.25669e+06 509694 0 -4.26486e+06 501304 0 -4.27307e+06 492858 0 -4.28133e+06 484356 0 -4.28964e+06 475796 0 -4.298e+06 467179 0 -4.30641e+06 458504 0 -4.31486e+06 449771 0 -4.32338e+06 440979 0 -4.33194e+06 432127 0 -4.34055e+06 423216 0 -4.34922e+06 414244 0 -4.35794e+06 405212 0 -4.36671e+06 396119 0 -4.37553e+06 386964 0 -4.38441e+06 377746 0 -4.39335e+06 368467 0 -4.40233e+06 359124 0 -4.41138e+06 349717 0 -4.42048e+06 340246 0 -4.42963e+06 330711 0 -4.43885e+06 321110 0 -4.44812e+06 311444 0 -4.45744e+06 301711 0 -4.46683e+06 291912 0 -4.47628e+06 282046 0 -4.48578e+06 272111 0 -4.49534e+06 262109 0 -4.50497e+06 252037 0 -4.51465e+06 241896 0 -4.5244e+06 231685 0 -4.53421e+06 221403 0 -4.54408e+06 211050 0 -4.55401e+06 200625 0 -4.56401e+06 190128 0 -4.57407e+06 179557 0 -4.5842e+06 168914 0 -4.59439e+06 158196 0 -4.60465e+06 147403 0 -4.61497e+06 136535 0 -4.62536e+06 125591 0 -4.63582e+06 114570 0 -4.64635e+06 103472 0 -4.65695e+06 92295.5 0 -4.66761e+06 81040.7 0 -4.67835e+06 69706.7 0 -4.68915e+06 58292.7 0 -4.70003e+06 46798.2 0 -4.71098e+06 35222.3 0 -4.722e+06 23564.4 0 -4.7331e+06 11823.9 0 -4.74427e+06 1.23978e-05 0 -3.77558e+06 1.03539e+06 0 -3.78112e+06 1.03042e+06 0 -3.78669e+06 1.02542e+06 0 -3.79228e+06 1.02038e+06 0 -3.79791e+06 1.01532e+06 0 -3.80356e+06 1.01022e+06 0 -3.80924e+06 1.00509e+06 0 -3.81495e+06 999924 0 -3.82069e+06 994727 0 -3.82646e+06 989496 0 -3.83226e+06 984231 0 -3.83809e+06 978933 0 -3.84395e+06 973601 0 -3.84984e+06 968235 0 -3.85576e+06 962833 0 -3.86171e+06 957398 0 -3.8677e+06 951927 0 -3.87371e+06 946421 0 -3.87976e+06 940879 0 -3.88583e+06 935302 0 -3.89194e+06 929689 0 -3.89808e+06 924040 0 -3.90426e+06 918354 0 -3.91047e+06 912631 0 -3.91671e+06 906872 0 -3.92298e+06 901075 0 -3.92929e+06 895241 0 -3.93563e+06 889369 0 -3.94201e+06 883459 0 -3.94842e+06 877510 0 -3.95486e+06 871524 0 -3.96134e+06 865498 0 -3.96786e+06 859433 0 -3.97441e+06 853329 0 -3.98099e+06 847185 0 -3.98761e+06 841001 0 -3.99427e+06 834777 0 -4.00097e+06 828513 0 -4.0077e+06 822208 0 -4.01447e+06 815861 0 -4.02128e+06 809474 0 -4.02812e+06 803044 0 -4.03501e+06 796573 0 -4.04193e+06 790059 0 -4.04889e+06 783503 0 -4.05589e+06 776904 0 -4.06293e+06 770261 0 -4.07001e+06 763576 0 -4.07712e+06 756846 0 -4.08428e+06 750072 0 -4.09148e+06 743254 0 -4.09872e+06 736391 0 -4.10601e+06 729482 0 -4.11333e+06 722529 0 -4.1207e+06 715529 0 -4.1281e+06 708484 0 -4.13555e+06 701392 0 -4.14305e+06 694253 0 -4.15059e+06 687067 0 -4.15817e+06 679833 0 -4.16579e+06 672552 0 -4.17346e+06 665222 0 -4.18117e+06 657844 0 -4.18893e+06 650417 0 -4.19674e+06 642941 0 -4.20459e+06 635415 0 -4.21249e+06 627839 0 -4.22043e+06 620212 0 -4.22842e+06 612535 0 -4.23646e+06 604806 0 -4.24455e+06 597026 0 -4.25268e+06 589194 0 -4.26087e+06 581310 0 -4.2691e+06 573372 0 -4.27738e+06 565382 0 -4.28571e+06 557338 0 -4.2941e+06 549240 0 -4.30253e+06 541088 0 -4.31101e+06 532880 0 -4.31955e+06 524618 0 -4.32814e+06 516300 0 -4.33678e+06 507926 0 -4.34547e+06 499495 0 -4.35422e+06 491007 0 -4.36302e+06 482462 0 -4.37187e+06 473859 0 -4.38078e+06 465197 0 -4.38975e+06 456477 0 -4.39877e+06 447698 0 -4.40785e+06 438858 0 -4.41698e+06 429959 0 -4.42617e+06 420999 0 -4.43542e+06 411978 0 -4.44473e+06 402895 0 -4.4541e+06 393750 0 -4.46352e+06 384542 0 -4.47301e+06 375271 0 -4.48255e+06 365937 0 -4.49216e+06 356538 0 -4.50182e+06 347075 0 -4.51155e+06 337547 0 -4.52134e+06 327952 0 -4.5312e+06 318292 0 -4.54112e+06 308565 0 -4.5511e+06 298770 0 -4.56115e+06 288908 0 -4.57126e+06 278977 0 -4.58144e+06 268977 0 -4.59168e+06 258908 0 -4.60199e+06 248768 0 -4.61237e+06 238558 0 -4.62282e+06 228276 0 -4.63334e+06 217923 0 -4.64392e+06 207497 0 -4.65458e+06 196998 0 -4.6653e+06 186425 0 -4.6761e+06 175778 0 -4.68697e+06 165056 0 -4.69792e+06 154259 0 -4.70893e+06 143385 0 -4.72002e+06 132434 0 -4.73119e+06 121406 0 -4.74243e+06 110300 0 -4.75375e+06 99115 0 -4.76514e+06 87850.5 0 -4.77661e+06 76505.9 0 -4.78816e+06 65080.4 0 -4.79979e+06 53573.5 0 -3.79804e+06 1.06103e+06 0 -3.80371e+06 1.05622e+06 0 -3.80941e+06 1.05137e+06 0 -3.81513e+06 1.04649e+06 0 -3.82089e+06 1.04159e+06 0 -3.82667e+06 1.03665e+06 0 -3.83249e+06 1.03167e+06 0 -3.83833e+06 1.02667e+06 0 -3.84421e+06 1.02163e+06 0 -3.85011e+06 1.01657e+06 0 -3.85605e+06 1.01146e+06 0 -3.86202e+06 1.00633e+06 0 -3.86802e+06 1.00116e+06 0 -3.87405e+06 995964 0 -3.88011e+06 990731 0 -3.88621e+06 985463 0 -3.89234e+06 980162 0 -3.8985e+06 974826 0 -3.9047e+06 969456 0 -3.91092e+06 964052 0 -3.91718e+06 958612 0 -3.92348e+06 953137 0 -3.92981e+06 947627 0 -3.93617e+06 942081 0 -3.94257e+06 936499 0 -3.949e+06 930881 0 -3.95547e+06 925227 0 -3.96198e+06 919536 0 -3.96852e+06 913808 0 -3.97509e+06 908043 0 -3.9817e+06 902240 0 -3.98835e+06 896400 0 -3.99504e+06 890522 0 -4.00176e+06 884605 0 -4.00852e+06 878650 0 -4.01532e+06 872656 0 -4.02216e+06 866623 0 -4.02903e+06 860551 0 -4.03594e+06 854439 0 -4.0429e+06 848287 0 -4.04989e+06 842095 0 -4.05692e+06 835862 0 -4.06399e+06 829589 0 -4.0711e+06 823274 0 -4.07825e+06 816918 0 -4.08545e+06 810521 0 -4.09268e+06 804081 0 -4.09996e+06 797599 0 -4.10728e+06 791075 0 -4.11464e+06 784507 0 -4.12204e+06 777897 0 -4.12949e+06 771243 0 -4.13698e+06 764544 0 -4.14451e+06 757802 0 -4.15209e+06 751015 0 -4.15971e+06 744184 0 -4.16738e+06 737307 0 -4.17509e+06 730385 0 -4.18285e+06 723416 0 -4.19065e+06 716402 0 -4.1985e+06 709341 0 -4.2064e+06 702233 0 -4.21434e+06 695078 0 -4.22233e+06 687875 0 -4.23037e+06 680625 0 -4.23846e+06 673326 0 -4.2466e+06 665978 0 -4.25478e+06 658581 0 -4.26302e+06 651135 0 -4.2713e+06 643639 0 -4.27964e+06 636093 0 -4.28802e+06 628496 0 -4.29646e+06 620849 0 -4.30495e+06 613150 0 -4.31349e+06 605399 0 -4.32209e+06 597596 0 -4.33073e+06 589741 0 -4.33944e+06 581832 0 -4.34819e+06 573871 0 -4.357e+06 565855 0 -4.36586e+06 557785 0 -4.37478e+06 549661 0 -4.38376e+06 541482 0 -4.39279e+06 533247 0 -4.40188e+06 524956 0 -4.41103e+06 516609 0 -4.42023e+06 508206 0 -4.42949e+06 499745 0 -4.43881e+06 491226 0 -4.44819e+06 482649 0 -4.45764e+06 474014 0 -4.46714e+06 465319 0 -4.4767e+06 456565 0 -4.48632e+06 447751 0 -4.49601e+06 438876 0 -4.50576e+06 429941 0 -4.51557e+06 420944 0 -4.52544e+06 411885 0 -4.53538e+06 402763 0 -4.54539e+06 393579 0 -4.55546e+06 384331 0 -4.5656e+06 375019 0 -4.5758e+06 365643 0 -4.58607e+06 356201 0 -4.59641e+06 346694 0 -4.60682e+06 337121 0 -4.61729e+06 327481 0 -4.62784e+06 317774 0 -4.63845e+06 308000 0 -4.64914e+06 298157 0 -4.6599e+06 288245 0 -4.67073e+06 278263 0 -4.68164e+06 268212 0 -4.69262e+06 258090 0 -4.70367e+06 247897 0 -4.7148e+06 237632 0 -4.726e+06 227295 0 -4.73728e+06 216884 0 -4.74864e+06 206400 0 -4.76008e+06 195842 0 -4.77159e+06 185209 0 -4.78319e+06 174501 0 -4.79486e+06 163716 0 -4.80662e+06 152855 0 -4.81845e+06 141916 0 -4.83037e+06 130899 0 -4.84238e+06 119804 0 -4.85446e+06 108629 0 -3.81992e+06 1.08732e+06 0 -3.82571e+06 1.08266e+06 0 -3.83153e+06 1.07797e+06 0 -3.83738e+06 1.07325e+06 0 -3.84326e+06 1.0685e+06 0 -3.84918e+06 1.06372e+06 0 -3.85512e+06 1.05891e+06 0 -3.8611e+06 1.05407e+06 0 -3.86711e+06 1.0492e+06 0 -3.87315e+06 1.04429e+06 0 -3.87922e+06 1.03936e+06 0 -3.88532e+06 1.03439e+06 0 -3.89146e+06 1.02939e+06 0 -3.89763e+06 1.02436e+06 0 -3.90384e+06 1.0193e+06 0 -3.91008e+06 1.0142e+06 0 -3.91635e+06 1.00907e+06 0 -3.92266e+06 1.00391e+06 0 -3.929e+06 998714 0 -3.93537e+06 993485 0 -3.94178e+06 988221 0 -3.94823e+06 982924 0 -3.95471e+06 977592 0 -3.96123e+06 972226 0 -3.96778e+06 966825 0 -3.97437e+06 961389 0 -3.981e+06 955917 0 -3.98766e+06 950410 0 -3.99436e+06 944867 0 -4.0011e+06 939289 0 -4.00788e+06 933673 0 -4.01469e+06 928022 0 -4.02155e+06 922333 0 -4.02844e+06 916608 0 -4.03537e+06 910845 0 -4.04234e+06 905044 0 -4.04935e+06 899206 0 -4.0564e+06 893329 0 -4.0635e+06 887414 0 -4.07063e+06 881460 0 -4.0778e+06 875467 0 -4.08502e+06 869435 0 -4.09227e+06 863364 0 -4.09957e+06 857252 0 -4.10691e+06 851101 0 -4.1143e+06 844909 0 -4.12173e+06 838676 0 -4.1292e+06 832402 0 -4.13671e+06 826087 0 -4.14427e+06 819730 0 -4.15188e+06 813332 0 -4.15953e+06 806891 0 -4.16722e+06 800407 0 -4.17496e+06 793881 0 -4.18275e+06 787312 0 -4.19058e+06 780699 0 -4.19846e+06 774042 0 -4.20639e+06 767341 0 -4.21436e+06 760596 0 -4.22239e+06 753805 0 -4.23046e+06 746970 0 -4.23858e+06 740089 0 -4.24675e+06 733162 0 -4.25497e+06 726189 0 -4.26325e+06 719170 0 -4.27157e+06 712104 0 -4.27994e+06 704990 0 -4.28837e+06 697829 0 -4.29684e+06 690620 0 -4.30537e+06 683363 0 -4.31395e+06 676057 0 -4.32259e+06 668701 0 -4.33128e+06 661297 0 -4.34002e+06 653842 0 -4.34882e+06 646338 0 -4.35768e+06 638783 0 -4.36659e+06 631177 0 -4.37555e+06 623519 0 -4.38457e+06 615810 0 -4.39365e+06 608048 0 -4.40279e+06 600234 0 -4.41199e+06 592367 0 -4.42124e+06 584447 0 -4.43056e+06 576473 0 -4.43993e+06 568444 0 -4.44937e+06 560361 0 -4.45886e+06 552223 0 -4.46842e+06 544029 0 -4.47804e+06 535779 0 -4.48772e+06 527473 0 -4.49747e+06 519110 0 -4.50728e+06 510689 0 -4.51715e+06 502211 0 -4.52709e+06 493675 0 -4.53709e+06 485080 0 -4.54716e+06 476425 0 -4.5573e+06 467711 0 -4.5675e+06 458937 0 -4.57777e+06 450102 0 -4.58811e+06 441207 0 -4.59852e+06 432249 0 -4.609e+06 423230 0 -4.61955e+06 414148 0 -4.63017e+06 405002 0 -4.64086e+06 395793 0 -4.65163e+06 386520 0 -4.66247e+06 377183 0 -4.67338e+06 367780 0 -4.68437e+06 358311 0 -4.69543e+06 348776 0 -4.70657e+06 339174 0 -4.71778e+06 329505 0 -4.72907e+06 319768 0 -4.74044e+06 309962 0 -4.75189e+06 300087 0 -4.76342e+06 290143 0 -4.77503e+06 280128 0 -4.78672e+06 270043 0 -4.79849e+06 259886 0 -4.81034e+06 249657 0 -4.82228e+06 239355 0 -4.8343e+06 228980 0 -4.84641e+06 218531 0 -4.8586e+06 208008 0 -4.87088e+06 197410 0 -4.88325e+06 186735 0 -4.89571e+06 175985 0 -4.90825e+06 165157 0 -3.84118e+06 1.11422e+06 0 -3.84709e+06 1.10972e+06 0 -3.85303e+06 1.10519e+06 0 -3.85901e+06 1.10063e+06 0 -3.86502e+06 1.09604e+06 0 -3.87106e+06 1.09143e+06 0 -3.87713e+06 1.08678e+06 0 -3.88323e+06 1.0821e+06 0 -3.88937e+06 1.0774e+06 0 -3.89555e+06 1.07266e+06 0 -3.90175e+06 1.06789e+06 0 -3.90799e+06 1.0631e+06 0 -3.91427e+06 1.05827e+06 0 -3.92057e+06 1.05341e+06 0 -3.92692e+06 1.04852e+06 0 -3.9333e+06 1.04359e+06 0 -3.93971e+06 1.03864e+06 0 -3.94616e+06 1.03365e+06 0 -3.95264e+06 1.02863e+06 0 -3.95916e+06 1.02358e+06 0 -3.96572e+06 1.0185e+06 0 -3.97232e+06 1.01338e+06 0 -3.97895e+06 1.00823e+06 0 -3.98562e+06 1.00304e+06 0 -3.99232e+06 997827 0 -3.99907e+06 992576 0 -4.00585e+06 987290 0 -4.01267e+06 981970 0 -4.01953e+06 976616 0 -4.02643e+06 971226 0 -4.03337e+06 965802 0 -4.04035e+06 960342 0 -4.04736e+06 954846 0 -4.05442e+06 949315 0 -4.06152e+06 943748 0 -4.06867e+06 938144 0 -4.07585e+06 932503 0 -4.08307e+06 926826 0 -4.09034e+06 921111 0 -4.09765e+06 915359 0 -4.105e+06 909570 0 -4.1124e+06 903742 0 -4.11984e+06 897876 0 -4.12732e+06 891972 0 -4.13485e+06 886028 0 -4.14242e+06 880046 0 -4.15004e+06 874024 0 -4.1577e+06 867963 0 -4.16541e+06 861861 0 -4.17317e+06 855720 0 -4.18097e+06 849538 0 -4.18882e+06 843315 0 -4.19672e+06 837050 0 -4.20466e+06 830745 0 -4.21266e+06 824397 0 -4.2207e+06 818008 0 -4.22879e+06 811576 0 -4.23693e+06 805101 0 -4.24512e+06 798584 0 -4.25336e+06 792023 0 -4.26165e+06 785418 0 -4.27e+06 778769 0 -4.27839e+06 772076 0 -4.28684e+06 765339 0 -4.29534e+06 758556 0 -4.30389e+06 751728 0 -4.3125e+06 744855 0 -4.32116e+06 737935 0 -4.32988e+06 730969 0 -4.33865e+06 723956 0 -4.34747e+06 716896 0 -4.35636e+06 709789 0 -4.36529e+06 702634 0 -4.37429e+06 695430 0 -4.38334e+06 688179 0 -4.39245e+06 680878 0 -4.40162e+06 673528 0 -4.41085e+06 666128 0 -4.42014e+06 658678 0 -4.42949e+06 651178 0 -4.4389e+06 643626 0 -4.44837e+06 636024 0 -4.4579e+06 628370 0 -4.4675e+06 620664 0 -4.47715e+06 612905 0 -4.48687e+06 605094 0 -4.49666e+06 597229 0 -4.50651e+06 589311 0 -4.51642e+06 581338 0 -4.5264e+06 573311 0 -4.53645e+06 565229 0 -4.54656e+06 557091 0 -4.55675e+06 548898 0 -4.567e+06 540648 0 -4.57732e+06 532341 0 -4.5877e+06 523978 0 -4.59816e+06 515556 0 -4.60869e+06 507076 0 -4.61929e+06 498538 0 -4.62997e+06 489941 0 -4.64071e+06 481284 0 -4.65153e+06 472567 0 -4.66243e+06 463790 0 -4.6734e+06 454951 0 -4.68444e+06 446051 0 -4.69556e+06 437089 0 -4.70676e+06 428065 0 -4.71803e+06 418977 0 -4.72939e+06 409826 0 -4.74082e+06 400611 0 -4.75234e+06 391331 0 -4.76393e+06 381986 0 -4.77561e+06 372575 0 -4.78737e+06 363098 0 -4.79921e+06 353555 0 -4.81114e+06 343944 0 -4.82315e+06 334265 0 -4.83524e+06 324517 0 -4.84743e+06 314701 0 -4.8597e+06 304815 0 -4.87206e+06 294859 0 -4.88451e+06 284832 0 -4.89705e+06 274733 0 -4.90967e+06 264563 0 -4.9224e+06 254320 0 -4.93521e+06 244004 0 -4.94812e+06 233614 0 -4.96112e+06 223149 0 -3.8618e+06 1.14171e+06 0 -3.86784e+06 1.13737e+06 0 -3.8739e+06 1.13301e+06 0 -3.88e+06 1.12861e+06 0 -3.88613e+06 1.12419e+06 0 -3.89229e+06 1.11974e+06 0 -3.89849e+06 1.11526e+06 0 -3.90473e+06 1.11075e+06 0 -3.91099e+06 1.10621e+06 0 -3.91729e+06 1.10164e+06 0 -3.92363e+06 1.09705e+06 0 -3.93e+06 1.09242e+06 0 -3.93641e+06 1.08776e+06 0 -3.94285e+06 1.08308e+06 0 -3.94933e+06 1.07836e+06 0 -3.95585e+06 1.07361e+06 0 -3.9624e+06 1.06884e+06 0 -3.96899e+06 1.06403e+06 0 -3.97561e+06 1.05919e+06 0 -3.98228e+06 1.05432e+06 0 -3.98898e+06 1.04941e+06 0 -3.99572e+06 1.04448e+06 0 -4.0025e+06 1.03951e+06 0 -4.00931e+06 1.03451e+06 0 -4.01617e+06 1.02948e+06 0 -4.02307e+06 1.02442e+06 0 -4.03e+06 1.01932e+06 0 -4.03698e+06 1.01419e+06 0 -4.04399e+06 1.00903e+06 0 -4.05105e+06 1.00383e+06 0 -4.05815e+06 998603 0 -4.06529e+06 993338 0 -4.07247e+06 988039 0 -4.07969e+06 982705 0 -4.08696e+06 977337 0 -4.09427e+06 971933 0 -4.10162e+06 966494 0 -4.10902e+06 961020 0 -4.11646e+06 955509 0 -4.12394e+06 949963 0 -4.13147e+06 944380 0 -4.13904e+06 938760 0 -4.14666e+06 933104 0 -4.15433e+06 927410 0 -4.16204e+06 921679 0 -4.1698e+06 915911 0 -4.1776e+06 910104 0 -4.18546e+06 904259 0 -4.19336e+06 898376 0 -4.20131e+06 892454 0 -4.20931e+06 886492 0 -4.21735e+06 880492 0 -4.22545e+06 874451 0 -4.2336e+06 868371 0 -4.24179e+06 862250 0 -4.25004e+06 856089 0 -4.25834e+06 849887 0 -4.26669e+06 843643 0 -4.27509e+06 837359 0 -4.28355e+06 831032 0 -4.29206e+06 824663 0 -4.30062e+06 818252 0 -4.30924e+06 811799 0 -4.31791e+06 805302 0 -4.32664e+06 798762 0 -4.33542e+06 792178 0 -4.34426e+06 785550 0 -4.35315e+06 778877 0 -4.3621e+06 772160 0 -4.37111e+06 765398 0 -4.38018e+06 758591 0 -4.3893e+06 751737 0 -4.39849e+06 744838 0 -4.40773e+06 737892 0 -4.41704e+06 730900 0 -4.4264e+06 723860 0 -4.43583e+06 716773 0 -4.44532e+06 709638 0 -4.45487e+06 702454 0 -4.46448e+06 695222 0 -4.47416e+06 687941 0 -4.4839e+06 680611 0 -4.49371e+06 673231 0 -4.50358e+06 665801 0 -4.51352e+06 658320 0 -4.52352e+06 650788 0 -4.53359e+06 643205 0 -4.54373e+06 635570 0 -4.55394e+06 627883 0 -4.56421e+06 620143 0 -4.57456e+06 612351 0 -4.58498e+06 604505 0 -4.59547e+06 596605 0 -4.60602e+06 588651 0 -4.61666e+06 580642 0 -4.62736e+06 572579 0 -4.63814e+06 564459 0 -4.64899e+06 556284 0 -4.65992e+06 548052 0 -4.67092e+06 539764 0 -4.682e+06 531417 0 -4.69316e+06 523014 0 -4.7044e+06 514552 0 -4.71571e+06 506031 0 -4.72711e+06 497451 0 -4.73858e+06 488811 0 -4.75014e+06 480111 0 -4.76177e+06 471350 0 -4.77349e+06 462528 0 -4.7853e+06 453645 0 -4.79719e+06 444699 0 -4.80916e+06 435691 0 -4.82122e+06 426619 0 -4.83336e+06 417484 0 -4.8456e+06 408284 0 -4.85792e+06 399020 0 -4.87033e+06 389690 0 -4.88283e+06 380294 0 -4.89543e+06 370832 0 -4.90811e+06 361304 0 -4.92089e+06 351707 0 -4.93376e+06 342043 0 -4.94673e+06 332310 0 -4.95979e+06 322507 0 -4.97295e+06 312635 0 -4.98621e+06 302693 0 -4.99957e+06 292679 0 -5.01303e+06 282594 0 -3.88179e+06 1.16979e+06 0 -3.88794e+06 1.16561e+06 0 -3.89412e+06 1.16141e+06 0 -3.90034e+06 1.15718e+06 0 -3.90659e+06 1.15292e+06 0 -3.91287e+06 1.14864e+06 0 -3.9192e+06 1.14432e+06 0 -3.92555e+06 1.13998e+06 0 -3.93194e+06 1.13562e+06 0 -3.93837e+06 1.13122e+06 0 -3.94484e+06 1.1268e+06 0 -3.95134e+06 1.12234e+06 0 -3.95788e+06 1.11786e+06 0 -3.96445e+06 1.11335e+06 0 -3.97106e+06 1.10881e+06 0 -3.97771e+06 1.10424e+06 0 -3.9844e+06 1.09965e+06 0 -3.99113e+06 1.09502e+06 0 -3.99789e+06 1.09036e+06 0 -4.0047e+06 1.08567e+06 0 -4.01154e+06 1.08095e+06 0 -4.01842e+06 1.0762e+06 0 -4.02535e+06 1.07143e+06 0 -4.03231e+06 1.06661e+06 0 -4.03931e+06 1.06177e+06 0 -4.04636e+06 1.0569e+06 0 -4.05344e+06 1.05199e+06 0 -4.06057e+06 1.04706e+06 0 -4.06774e+06 1.04209e+06 0 -4.07495e+06 1.03709e+06 0 -4.08221e+06 1.03205e+06 0 -4.0895e+06 1.02699e+06 0 -4.09685e+06 1.02189e+06 0 -4.10423e+06 1.01676e+06 0 -4.11166e+06 1.01159e+06 0 -4.11913e+06 1.00639e+06 0 -4.12665e+06 1.00116e+06 0 -4.13422e+06 995887 0 -4.14183e+06 990585 0 -4.14948e+06 985247 0 -4.15719e+06 979875 0 -4.16494e+06 974467 0 -4.17273e+06 969024 0 -4.18058e+06 963546 0 -4.18847e+06 958031 0 -4.19641e+06 952480 0 -4.2044e+06 946893 0 -4.21244e+06 941269 0 -4.22053e+06 935608 0 -4.22867e+06 929909 0 -4.23686e+06 924173 0 -4.2451e+06 918399 0 -4.25339e+06 912587 0 -4.26174e+06 906736 0 -4.27014e+06 900847 0 -4.27859e+06 894919 0 -4.28709e+06 888952 0 -4.29565e+06 882945 0 -4.30426e+06 876898 0 -4.31293e+06 870811 0 -4.32165e+06 864684 0 -4.33043e+06 858515 0 -4.33927e+06 852306 0 -4.34816e+06 846056 0 -4.35711e+06 839764 0 -4.36612e+06 833429 0 -4.37518e+06 827053 0 -4.38431e+06 820634 0 -4.39349e+06 814172 0 -4.40274e+06 807666 0 -4.41204e+06 801117 0 -4.42141e+06 794525 0 -4.43084e+06 787888 0 -4.44033e+06 781206 0 -4.44988e+06 774479 0 -4.4595e+06 767708 0 -4.46918e+06 760890 0 -4.47892e+06 754027 0 -4.48873e+06 747117 0 -4.49861e+06 740161 0 -4.50855e+06 733157 0 -4.51856e+06 726107 0 -4.52864e+06 719008 0 -4.53879e+06 711861 0 -4.549e+06 704666 0 -4.55928e+06 697422 0 -4.56964e+06 690129 0 -4.58006e+06 682786 0 -4.59056e+06 675393 0 -4.60113e+06 667950 0 -4.61177e+06 660456 0 -4.62249e+06 652910 0 -4.63328e+06 645313 0 -4.64415e+06 637664 0 -4.65509e+06 629963 0 -4.6661e+06 622209 0 -4.6772e+06 614401 0 -4.68837e+06 606540 0 -4.69963e+06 598625 0 -4.71096e+06 590655 0 -4.72237e+06 582630 0 -4.73386e+06 574550 0 -4.74544e+06 566414 0 -4.75709e+06 558222 0 -4.76883e+06 549973 0 -4.78066e+06 541666 0 -4.79257e+06 533303 0 -4.80457e+06 524881 0 -4.81665e+06 516400 0 -4.82882e+06 507860 0 -4.84108e+06 499261 0 -4.85343e+06 490602 0 -4.86587e+06 481882 0 -4.8784e+06 473102 0 -4.89102e+06 464259 0 -4.90374e+06 455355 0 -4.91655e+06 446388 0 -4.92945e+06 437359 0 -4.94245e+06 428266 0 -4.95555e+06 419108 0 -4.96875e+06 409886 0 -4.98204e+06 400599 0 -4.99543e+06 391247 0 -5.00893e+06 381828 0 -5.02253e+06 372342 0 -5.03623e+06 362790 0 -5.05003e+06 353169 0 -5.06394e+06 343480 0 -3.90111e+06 1.19841e+06 0 -3.90737e+06 1.1944e+06 0 -3.91367e+06 1.19036e+06 0 -3.92e+06 1.1863e+06 0 -3.92637e+06 1.18221e+06 0 -3.93278e+06 1.17809e+06 0 -3.93922e+06 1.17395e+06 0 -3.9457e+06 1.16978e+06 0 -3.95221e+06 1.16559e+06 0 -3.95877e+06 1.16137e+06 0 -3.96536e+06 1.15712e+06 0 -3.97198e+06 1.15284e+06 0 -3.97865e+06 1.14854e+06 0 -3.98535e+06 1.14421e+06 0 -3.9921e+06 1.13985e+06 0 -3.99888e+06 1.13546e+06 0 -4.0057e+06 1.13104e+06 0 -4.01256e+06 1.1266e+06 0 -4.01946e+06 1.12212e+06 0 -4.0264e+06 1.11762e+06 0 -4.03339e+06 1.11309e+06 0 -4.04041e+06 1.10853e+06 0 -4.04747e+06 1.10394e+06 0 -4.05458e+06 1.09932e+06 0 -4.06173e+06 1.09467e+06 0 -4.06892e+06 1.08999e+06 0 -4.07615e+06 1.08528e+06 0 -4.08343e+06 1.08054e+06 0 -4.09075e+06 1.07577e+06 0 -4.09812e+06 1.07097e+06 0 -4.10552e+06 1.06613e+06 0 -4.11298e+06 1.06127e+06 0 -4.12048e+06 1.05637e+06 0 -4.12802e+06 1.05144e+06 0 -4.13561e+06 1.04648e+06 0 -4.14325e+06 1.04149e+06 0 -4.15093e+06 1.03646e+06 0 -4.15866e+06 1.03141e+06 0 -4.16643e+06 1.02631e+06 0 -4.17426e+06 1.02119e+06 0 -4.18213e+06 1.01603e+06 0 -4.19006e+06 1.01084e+06 0 -4.19803e+06 1.00561e+06 0 -4.20605e+06 1.00035e+06 0 -4.21412e+06 995060 0 -4.22224e+06 989731 0 -4.23041e+06 984367 0 -4.23863e+06 978968 0 -4.24691e+06 973533 0 -4.25524e+06 968063 0 -4.26362e+06 962556 0 -4.27205e+06 957014 0 -4.28054e+06 951434 0 -4.28908e+06 945819 0 -4.29767e+06 940166 0 -4.30632e+06 934475 0 -4.31503e+06 928748 0 -4.32379e+06 922982 0 -4.33261e+06 917178 0 -4.34149e+06 911336 0 -4.35042e+06 905455 0 -4.35941e+06 899535 0 -4.36846e+06 893576 0 -4.37757e+06 887577 0 -4.38674e+06 881539 0 -4.39597e+06 875460 0 -4.40526e+06 869341 0 -4.41462e+06 863181 0 -4.42403e+06 856980 0 -4.43351e+06 850738 0 -4.44305e+06 844454 0 -4.45265e+06 838128 0 -4.46232e+06 831760 0 -4.47205e+06 825349 0 -4.48185e+06 818895 0 -4.49172e+06 812398 0 -4.50165e+06 805857 0 -4.51165e+06 799273 0 -4.52171e+06 792644 0 -4.53185e+06 785970 0 -4.54205e+06 779252 0 -4.55233e+06 772489 0 -4.56268e+06 765679 0 -4.57309e+06 758824 0 -4.58358e+06 751923 0 -4.59414e+06 744975 0 -4.60478e+06 737979 0 -4.61549e+06 730937 0 -4.62627e+06 723847 0 -4.63713e+06 716708 0 -4.64806e+06 709521 0 -4.65908e+06 702286 0 -4.67017e+06 695001 0 -4.68134e+06 687666 0 -4.69258e+06 680282 0 -4.70391e+06 672847 0 -4.71532e+06 665361 0 -4.72681e+06 657824 0 -4.73838e+06 650235 0 -4.75004e+06 642595 0 -4.76178e+06 634902 0 -4.7736e+06 627156 0 -4.78552e+06 619357 0 -4.79751e+06 611505 0 -4.8096e+06 603598 0 -4.82177e+06 595637 0 -4.83403e+06 587621 0 -4.84638e+06 579550 0 -4.85883e+06 571423 0 -4.87136e+06 563239 0 -4.88399e+06 554999 0 -4.89671e+06 546702 0 -4.90953e+06 538347 0 -4.92244e+06 529935 0 -4.93545e+06 521463 0 -4.94856e+06 512933 0 -4.96176e+06 504343 0 -4.97507e+06 495694 0 -4.98847e+06 486984 0 -5.00198e+06 478213 0 -5.01559e+06 469381 0 -5.0293e+06 460487 0 -5.04312e+06 451530 0 -5.05705e+06 442511 0 -5.07108e+06 433428 0 -5.08522e+06 424281 0 -5.09947e+06 415070 0 -5.11383e+06 405794 0 -3.91975e+06 1.22756e+06 0 -3.92612e+06 1.22372e+06 0 -3.93253e+06 1.21985e+06 0 -3.93898e+06 1.21596e+06 0 -3.94547e+06 1.21204e+06 0 -3.95199e+06 1.20809e+06 0 -3.95855e+06 1.20412e+06 0 -3.96515e+06 1.20013e+06 0 -3.97179e+06 1.19611e+06 0 -3.97846e+06 1.19206e+06 0 -3.98517e+06 1.18799e+06 0 -3.99192e+06 1.18389e+06 0 -3.99872e+06 1.17977e+06 0 -4.00555e+06 1.17562e+06 0 -4.01242e+06 1.17144e+06 0 -4.01933e+06 1.16723e+06 0 -4.02628e+06 1.163e+06 0 -4.03327e+06 1.15874e+06 0 -4.04031e+06 1.15446e+06 0 -4.04739e+06 1.15014e+06 0 -4.0545e+06 1.1458e+06 0 -4.06166e+06 1.14143e+06 0 -4.06887e+06 1.13703e+06 0 -4.07612e+06 1.13261e+06 0 -4.08341e+06 1.12815e+06 0 -4.09074e+06 1.12367e+06 0 -4.09812e+06 1.11916e+06 0 -4.10554e+06 1.11462e+06 0 -4.11301e+06 1.11005e+06 0 -4.12052e+06 1.10544e+06 0 -4.12808e+06 1.10081e+06 0 -4.13569e+06 1.09615e+06 0 -4.14334e+06 1.09146e+06 0 -4.15104e+06 1.08674e+06 0 -4.15879e+06 1.08199e+06 0 -4.16659e+06 1.07721e+06 0 -4.17443e+06 1.07239e+06 0 -4.18232e+06 1.06755e+06 0 -4.19026e+06 1.06267e+06 0 -4.19825e+06 1.05777e+06 0 -4.20629e+06 1.05283e+06 0 -4.21439e+06 1.04785e+06 0 -4.22253e+06 1.04285e+06 0 -4.23072e+06 1.03781e+06 0 -4.23897e+06 1.03274e+06 0 -4.24727e+06 1.02764e+06 0 -4.25562e+06 1.0225e+06 0 -4.26402e+06 1.01733e+06 0 -4.27248e+06 1.01213e+06 0 -4.28099e+06 1.00689e+06 0 -4.28956e+06 1.00162e+06 0 -4.29818e+06 996311 0 -4.30686e+06 990969 0 -4.31559e+06 985593 0 -4.32438e+06 980181 0 -4.33323e+06 974734 0 -4.34213e+06 969250 0 -4.3511e+06 963731 0 -4.36012e+06 958175 0 -4.3692e+06 952583 0 -4.37834e+06 946954 0 -4.38754e+06 941288 0 -4.39681e+06 935584 0 -4.40613e+06 929843 0 -4.41552e+06 924064 0 -4.42497e+06 918246 0 -4.43448e+06 912390 0 -4.44406e+06 906496 0 -4.4537e+06 900562 0 -4.4634e+06 894589 0 -4.47318e+06 888576 0 -4.48301e+06 882523 0 -4.49292e+06 876430 0 -4.50289e+06 870297 0 -4.51293e+06 864123 0 -4.52304e+06 857907 0 -4.53322e+06 851650 0 -4.54347e+06 845352 0 -4.55379e+06 839011 0 -4.56418e+06 832628 0 -4.57465e+06 826202 0 -4.58518e+06 819733 0 -4.59579e+06 813221 0 -4.60648e+06 806666 0 -4.61724e+06 800066 0 -4.62807e+06 793422 0 -4.63898e+06 786733 0 -4.64997e+06 780000 0 -4.66104e+06 773221 0 -4.67219e+06 766396 0 -4.68341e+06 759526 0 -4.69472e+06 752609 0 -4.7061e+06 745645 0 -4.71757e+06 738635 0 -4.72912e+06 731576 0 -4.74076e+06 724471 0 -4.75248e+06 717317 0 -4.76428e+06 710114 0 -4.77617e+06 702863 0 -4.78815e+06 695562 0 -4.80021e+06 688212 0 -4.81237e+06 680812 0 -4.82461e+06 673361 0 -4.83694e+06 665859 0 -4.84937e+06 658307 0 -4.86189e+06 650703 0 -4.8745e+06 643046 0 -4.8872e+06 635338 0 -4.9e+06 627577 0 -4.9129e+06 619762 0 -4.92589e+06 611894 0 -4.93898e+06 603972 0 -4.95217e+06 595996 0 -4.96546e+06 587965 0 -4.97885e+06 579878 0 -4.99235e+06 571736 0 -5.00594e+06 563537 0 -5.01965e+06 555282 0 -5.03345e+06 546971 0 -5.04737e+06 538601 0 -5.06139e+06 530174 0 -5.07552e+06 521688 0 -5.08976e+06 513144 0 -5.10411e+06 504540 0 -5.11857e+06 495876 0 -5.13315e+06 487153 0 -5.14784e+06 478368 0 -5.16265e+06 469523 0 -3.93769e+06 1.25722e+06 0 -3.94418e+06 1.25355e+06 0 -3.9507e+06 1.24985e+06 0 -3.95726e+06 1.24613e+06 0 -3.96386e+06 1.24238e+06 0 -3.9705e+06 1.23861e+06 0 -3.97718e+06 1.23481e+06 0 -3.98389e+06 1.23099e+06 0 -3.99064e+06 1.22715e+06 0 -3.99744e+06 1.22328e+06 0 -4.00427e+06 1.21939e+06 0 -4.01114e+06 1.21547e+06 0 -4.01806e+06 1.21153e+06 0 -4.02501e+06 1.20756e+06 0 -4.03201e+06 1.20357e+06 0 -4.03905e+06 1.19955e+06 0 -4.04613e+06 1.1955e+06 0 -4.05325e+06 1.19143e+06 0 -4.06042e+06 1.18734e+06 0 -4.06763e+06 1.18321e+06 0 -4.07488e+06 1.17906e+06 0 -4.08217e+06 1.17489e+06 0 -4.08951e+06 1.17068e+06 0 -4.0969e+06 1.16645e+06 0 -4.10433e+06 1.1622e+06 0 -4.1118e+06 1.15791e+06 0 -4.11932e+06 1.1536e+06 0 -4.12689e+06 1.14926e+06 0 -4.1345e+06 1.14489e+06 0 -4.14216e+06 1.1405e+06 0 -4.14987e+06 1.13607e+06 0 -4.15763e+06 1.13162e+06 0 -4.16543e+06 1.12714e+06 0 -4.17329e+06 1.12263e+06 0 -4.18119e+06 1.11809e+06 0 -4.18914e+06 1.11352e+06 0 -4.19714e+06 1.10892e+06 0 -4.20519e+06 1.1043e+06 0 -4.21329e+06 1.09964e+06 0 -4.22145e+06 1.09495e+06 0 -4.22965e+06 1.09023e+06 0 -4.23791e+06 1.08548e+06 0 -4.24622e+06 1.0807e+06 0 -4.25459e+06 1.07589e+06 0 -4.263e+06 1.07105e+06 0 -4.27148e+06 1.06618e+06 0 -4.28e+06 1.06127e+06 0 -4.28858e+06 1.05634e+06 0 -4.29722e+06 1.05137e+06 0 -4.30591e+06 1.04637e+06 0 -4.31466e+06 1.04133e+06 0 -4.32347e+06 1.03627e+06 0 -4.33234e+06 1.03117e+06 0 -4.34126e+06 1.02603e+06 0 -4.35024e+06 1.02087e+06 0 -4.35928e+06 1.01567e+06 0 -4.36838e+06 1.01043e+06 0 -4.37755e+06 1.00517e+06 0 -4.38677e+06 999864 0 -4.39605e+06 994527 0 -4.4054e+06 989155 0 -4.41481e+06 983748 0 -4.42428e+06 978306 0 -4.43381e+06 972827 0 -4.44341e+06 967313 0 -4.45308e+06 961763 0 -4.46281e+06 956176 0 -4.47261e+06 950553 0 -4.48247e+06 944892 0 -4.4924e+06 939194 0 -4.5024e+06 933459 0 -4.51247e+06 927686 0 -4.52261e+06 921875 0 -4.53282e+06 916026 0 -4.5431e+06 910138 0 -4.55345e+06 904211 0 -4.56387e+06 898245 0 -4.57437e+06 892240 0 -4.58494e+06 886194 0 -4.59558e+06 880109 0 -4.6063e+06 873984 0 -4.6171e+06 867818 0 -4.62797e+06 861611 0 -4.63892e+06 855362 0 -4.64995e+06 849073 0 -4.66105e+06 842741 0 -4.67224e+06 836367 0 -4.6835e+06 829951 0 -4.69485e+06 823493 0 -4.70628e+06 816991 0 -4.71779e+06 810446 0 -4.72938e+06 803857 0 -4.74106e+06 797224 0 -4.75283e+06 790547 0 -4.76468e+06 783825 0 -4.77662e+06 777058 0 -4.78864e+06 770246 0 -4.80076e+06 763388 0 -4.81296e+06 756485 0 -4.82526e+06 749534 0 -4.83764e+06 742538 0 -4.85012e+06 735494 0 -4.86269e+06 728403 0 -4.87536e+06 721264 0 -4.88812e+06 714077 0 -4.90098e+06 706842 0 -4.91393e+06 699558 0 -4.92699e+06 692224 0 -4.94014e+06 684842 0 -4.95339e+06 677409 0 -4.96675e+06 669926 0 -4.98021e+06 662392 0 -4.99377e+06 654808 0 -5.00743e+06 647172 0 -5.0212e+06 639484 0 -5.03508e+06 631744 0 -5.04906e+06 623952 0 -5.06316e+06 616106 0 -5.07736e+06 608207 0 -5.09168e+06 600255 0 -5.10611e+06 592248 0 -5.12065e+06 584187 0 -5.13531e+06 576071 0 -5.15008e+06 567899 0 -5.16497e+06 559672 0 -5.17998e+06 551388 0 -5.19511e+06 543048 0 -5.21037e+06 534650 0 -3.95494e+06 1.28737e+06 0 -3.96153e+06 1.28386e+06 0 -3.96816e+06 1.28033e+06 0 -3.97483e+06 1.27678e+06 0 -3.98154e+06 1.27321e+06 0 -3.98829e+06 1.26961e+06 0 -3.99508e+06 1.26599e+06 0 -4.00191e+06 1.26235e+06 0 -4.00878e+06 1.25869e+06 0 -4.01569e+06 1.255e+06 0 -4.02264e+06 1.25129e+06 0 -4.02963e+06 1.24755e+06 0 -4.03667e+06 1.2438e+0