<?xml version="1.0"?> 
<VTKFile type="StructuredGrid" version="0.1"> 
<StructuredGrid WholeExtent="0 127 0 127 0 0"> 
<Piece Extent="0 127 0 127 0 0"> 
<PointData>
<DataArray type="Float32" Name="|E|" format="ascii" NumberOfComponents="3"> 
1.34049e+06 3.43323e-05 0 1.34684e+06 6.55493e-06 0 1.3643e+06 -5.732e-06 0 1.38942e+06 1.36712e-06 0 1.419e+06 -4.52948e-06 0 1.45072e+06 1.22676e-06 0 1.48298e+06 6.74078e-06 0 1.51467e+06 -7.55434e-07 0 1.54505e+06 3.21937e-06 0 1.5736e+06 -8.50141e-07 0 1.59999e+06 2.81396e-06 0 1.62401e+06 4.86783e-06 0 1.64554e+06 7.36152e-07 0 1.6645e+06 1.80028e-06 0 1.6809e+06 -7.31816e-06 0 1.69474e+06 4.22675e-06 0 1.70608e+06 6.87927e-07 0 1.71497e+06 -8.01985e-07 0 1.7215e+06 -6.25901e-06 0 1.72576e+06 4.83083e-06 0 1.72784e+06 -1.39163e-06 0 1.72786e+06 4.98764e-06 0 1.72592e+06 3.69595e-06 0 1.72215e+06 -2.30665e-06 0 1.71666e+06 4.09712e-06 0 1.70956e+06 4.28408e-08 0 1.70097e+06 -8.41683e-08 0 1.691e+06 9.75723e-06 0 1.67978e+06 -5.25732e-07 0 1.6674e+06 1.37431e-05 0 1.65396e+06 -1.27337e-05 0 1.63958e+06 7.5947e-06 0 1.62435e+06 4.7416e-06 0 1.60835e+06 7.52509e-07 0 1.59167e+06 -1.37789e-06 0 1.5744e+06 3.66475e-07 0 1.55661e+06 -4.04194e-06 0 1.53837e+06 3.66382e-06 0 1.51975e+06 -1.017e-06 0 1.50081e+06 3.22936e-06 0 1.48161e+06 -2.27988e-06 0 1.46221e+06 -4.48711e-06 0 1.44264e+06 2.32831e-08 0 1.42296e+06 -2.29664e-06 0 1.40321e+06 2.59187e-06 0 1.38343e+06 -3.15346e-06 0 1.36364e+06 7.34907e-06 0 1.3439e+06 6.59376e-07 0 1.32422e+06 1.68197e-06 0 1.30463e+06 3.06778e-06 0 1.28515e+06 -2.4531e-06 0 1.26581e+06 3.42727e-07 0 1.24663e+06 -8.00937e-07 0 1.22762e+06 -7.71135e-07 0 1.2088e+06 4.28408e-07 0 1.19019e+06 7.43195e-07 0 1.1718e+06 1.76951e-07 0 1.15363e+06 -3.93018e-07 0 1.13571e+06 1.18464e-06 0 1.11803e+06 7.45058e-08 0 1.10061e+06 -3.93018e-07 0 1.08346e+06 1.26101e-06 0 1.06657e+06 3.57628e-07 0 1.04996e+06 -2.65986e-06 0 1.03363e+06 4.1835e-06 0 1.01758e+06 -1.44914e-06 0 1.00181e+06 -5.21541e-08 0 986338 -3.72529e-07 0 971153 -8.41916e-07 0 956260 -1.2368e-06 0 941659 5.1409e-07 0 927353 -7.97212e-07 0 913339 1.24052e-06 0 899620 -6.70552e-08 0 886194 6.81728e-07 0 873061 -3.8743e-07 0 860221 0 0 847671 -3.35276e-08 0 835411 -3.35276e-07 0 823440 1.45286e-07 0 811757 -4.35859e-07 0 800359 1.9595e-06 0 789245 -5.99772e-07 0 778413 1.87755e-06 0 767862 -6.89179e-07 0 757589 3.65078e-07 0 747593 2.45869e-07 0 737871 -3.20375e-07 0 728422 7.0408e-07 0 719243 -1.12131e-06 0 710333 6.37025e-07 0 701689 -7.26432e-07 0 693310 8.67993e-07 0 685193 -8.04663e-07 0 677336 3.12924e-07 0 669737 7.15256e-07 0 662395 -6.33299e-07 0 655307 9.16421e-07 0 648471 -6.4075e-07 0 641886 8.9407e-07 0 635550 1.93715e-07 0 629460 3.27826e-07 0 623616 -3.35276e-07 0 618015 1.49012e-07 0 612655 -4.84288e-07 0 607536 4.20958e-07 0 602656 -5.28991e-07 0 598013 3.8743e-07 0 593605 -4.88013e-07 0 589432 8.56817e-08 0 585492 -4.32134e-07 0 581784 3.1665e-07 0 578306 2.16067e-07 0 575058 1.52737e-07 0 572039 4.69387e-07 0 569247 -3.7998e-07 0 566682 -1.3411e-07 0 564342 -9.31323e-08 0 562228 6.33299e-08 0 560338 8.9407e-08 0 558672 -2.62633e-07 0 557229 1.58325e-07 0 556009 -1.99303e-07 0 555012 -7.91624e-08 0 554236 7.26432e-08 0 553682 -5.9139e-08 0 553350 -2.09548e-08 0 553239 0 0 1.34048e+06 4.74239e-06 0 1.34684e+06 -339.283 0 1.3643e+06 -597.954 0 1.38942e+06 -759.819 0 1.419e+06 -846.178 0 1.45072e+06 -880.004 0 1.48298e+06 -877.765 0 1.51467e+06 -850.757 0 1.54505e+06 -806.897 0 1.5736e+06 -751.79 0 1.59999e+06 -689.412 0 1.62401e+06 -622.586 0 1.64554e+06 -553.33 0 1.6645e+06 -483.1 0 1.6809e+06 -412.968 0 1.69474e+06 -343.737 0 1.70608e+06 -276.017 0 1.71497e+06 -210.281 0 1.7215e+06 -146.892 0 1.72576e+06 -86.1333 0 1.72784e+06 -28.2186 0 1.72786e+06 26.6964 0 1.72592e+06 78.5052 0 1.72215e+06 127.145 0 1.71666e+06 172.591 0 1.70956e+06 214.852 0 1.70097e+06 253.963 0 1.691e+06 289.985 0 1.67978e+06 323 0 1.6674e+06 353.104 0 1.65396e+06 380.408 0 1.63958e+06 405.032 0 1.62435e+06 427.104 0 1.60835e+06 446.754 0 1.59167e+06 464.117 0 1.5744e+06 479.328 0 1.55661e+06 492.52 0 1.53837e+06 503.824 0 1.51975e+06 513.368 0 1.50081e+06 521.276 0 1.48161e+06 527.666 0 1.46221e+06 532.653 0 1.44264e+06 536.345 0 1.42296e+06 538.843 0 1.40321e+06 540.246 0 1.38343e+06 540.645 0 1.36364e+06 540.124 0 1.3439e+06 538.763 0 1.32422e+06 536.639 0 1.30463e+06 533.818 0 1.28515e+06 530.368 0 1.26581e+06 526.347 0 1.24663e+06 521.81 0 1.22762e+06 516.81 0 1.2088e+06 511.393 0 1.19019e+06 505.604 0 1.1718e+06 499.482 0 1.15363e+06 493.064 0 1.13571e+06 486.384 0 1.11803e+06 479.474 0 1.10061e+06 472.363 0 1.08346e+06 465.075 0 1.06657e+06 457.635 0 1.04996e+06 450.066 0 1.03363e+06 442.386 0 1.01758e+06 434.615 0 1.00181e+06 426.768 0 986338 418.862 0 971153 410.908 0 956260 402.92 0 941659 394.909 0 927352 386.885 0 913339 378.857 0 899620 370.834 0 886194 362.822 0 873061 354.828 0 860220 346.858 0 847671 338.918 0 835411 331.011 0 823440 323.143 0 811757 315.315 0 800359 307.532 0 789245 299.796 0 778413 292.11 0 767862 284.474 0 757589 276.891 0 747593 269.362 0 737871 261.888 0 728422 254.469 0 719243 247.106 0 710333 239.799 0 701689 232.549 0 693310 225.354 0 685193 218.215 0 677336 211.131 0 669737 204.102 0 662395 197.127 0 655307 190.205 0 648471 183.335 0 641886 176.515 0 635550 169.746 0 629460 163.025 0 623616 156.351 0 618015 149.723 0 612655 143.139 0 607536 136.598 0 602656 130.099 0 598013 123.639 0 593605 117.217 0 589432 110.831 0 585492 104.48 0 581784 98.1617 0 578306 91.8744 0 575058 85.6163 0 572039 79.3855 0 569247 73.1802 0 566682 66.9984 0 564342 60.8383 0 562228 54.698 0 560338 48.5754 0 558672 42.4687 0 557229 36.3759 0 556009 30.295 0 555011 24.224 0 554236 18.1611 0 553682 12.104 0 553350 6.05103 0 553239 0 0 1.34047e+06 -4.49939e-06 0 1.34683e+06 -678.63 0 1.36429e+06 -1195.98 0 1.38941e+06 -1519.69 0 1.419e+06 -1692.39 0 1.45072e+06 -1760.03 0 1.48298e+06 -1755.55 0 1.51467e+06 -1701.53 0 1.54505e+06 -1613.8 0 1.5736e+06 -1503.58 0 1.6e+06 -1378.83 0 1.62401e+06 -1245.17 0 1.64554e+06 -1106.66 0 1.66451e+06 -966.199 0 1.6809e+06 -825.936 0 1.69475e+06 -687.473 0 1.70608e+06 -552.033 0 1.71498e+06 -420.559 0 1.7215e+06 -293.782 0 1.72576e+06 -172.264 0 1.72784e+06 -56.4349 0 1.72786e+06 53.395 0 1.72593e+06 157.013 0 1.72215e+06 254.293 0 1.71666e+06 345.185 0 1.70956e+06 429.706 0 1.70097e+06 507.927 0 1.69101e+06 579.972 0 1.67978e+06 646.001 0 1.6674e+06 706.21 0 1.65397e+06 760.818 0 1.63958e+06 810.066 0 1.62435e+06 854.209 0 1.60835e+06 893.51 0 1.59167e+06 928.236 0 1.5744e+06 958.657 0 1.55661e+06 985.041 0 1.53837e+06 1007.65 0 1.51975e+06 1026.74 0 1.50081e+06 1042.55 0 1.48161e+06 1055.33 0 1.46221e+06 1065.31 0 1.44264e+06 1072.69 0 1.42296e+06 1077.69 0 1.40321e+06 1080.49 0 1.38343e+06 1081.29 0 1.36364e+06 1080.25 0 1.3439e+06 1077.53 0 1.32422e+06 1073.28 0 1.30463e+06 1067.64 0 1.28515e+06 1060.74 0 1.26581e+06 1052.69 0 1.24663e+06 1043.62 0 1.22762e+06 1033.62 0 1.2088e+06 1022.79 0 1.19019e+06 1011.21 0 1.17179e+06 998.963 0 1.15363e+06 986.128 0 1.13571e+06 972.769 0 1.11803e+06 958.949 0 1.10061e+06 944.725 0 1.08345e+06 930.15 0 1.06657e+06 915.271 0 1.04996e+06 900.132 0 1.03363e+06 884.773 0 1.01758e+06 869.23 0 1.00181e+06 853.537 0 986337 837.723 0 971152 821.816 0 956259 805.84 0 941659 789.818 0 927352 773.77 0 913339 757.714 0 899620 741.667 0 886194 725.644 0 873061 709.656 0 860220 693.717 0 847671 677.836 0 835411 662.023 0 823440 646.285 0 811756 630.631 0 800358 615.065 0 789244 599.593 0 778413 584.219 0 767861 568.948 0 757589 553.782 0 747592 538.724 0 737871 523.775 0 728421 508.938 0 719243 494.212 0 710333 479.598 0 701689 465.097 0 693309 450.708 0 685192 436.43 0 677335 422.263 0 669737 408.205 0 662394 394.254 0 655306 380.41 0 648471 366.669 0 641886 353.03 0 635549 339.491 0 629460 326.049 0 623615 312.701 0 618014 299.445 0 612655 286.278 0 607536 273.196 0 602656 260.197 0 598012 247.277 0 593605 234.433 0 589432 221.662 0 585492 208.96 0 581783 196.323 0 578306 183.749 0 575058 171.233 0 572038 158.771 0 569246 146.36 0 566681 133.997 0 564342 121.677 0 562228 109.396 0 560338 97.1508 0 558672 84.9374 0 557229 72.7518 0 556009 60.59 0 555011 48.4481 0 554236 36.3221 0 553682 24.2081 0 553350 12.1021 0 553239 0 0 1.34044e+06 1.0866e-06 0 1.34681e+06 -1018.11 0 1.36428e+06 -1794.16 0 1.38941e+06 -2279.68 0 1.41899e+06 -2538.69 0 1.45072e+06 -2640.12 0 1.48298e+06 -2633.37 0 1.51468e+06 -2552.32 0 1.54506e+06 -2420.72 0 1.57361e+06 -2255.39 0 1.6e+06 -2068.25 0 1.62402e+06 -1867.77 0 1.64554e+06 -1659.99 0 1.66451e+06 -1449.3 0 1.68091e+06 -1238.9 0 1.69475e+06 -1031.21 0 1.70609e+06 -828.046 0 1.71498e+06 -630.835 0 1.72151e+06 -440.668 0 1.72576e+06 -258.391 0 1.72785e+06 -84.6467 0 1.72787e+06 80.0984 0 1.72593e+06 235.525 0 1.72216e+06 381.445 0 1.71666e+06 517.783 0 1.70956e+06 644.564 0 1.70097e+06 761.897 0 1.69101e+06 869.964 0 1.67978e+06 969.007 0 1.6674e+06 1059.32 0 1.65397e+06 1141.23 0 1.63959e+06 1215.1 0 1.62435e+06 1281.32 0 1.60835e+06 1340.27 0 1.59167e+06 1392.36 0 1.5744e+06 1437.99 0 1.55661e+06 1477.56 0 1.53837e+06 1511.48 0 1.51975e+06 1540.11 0 1.50081e+06 1563.83 0 1.48161e+06 1583 0 1.46221e+06 1597.96 0 1.44264e+06 1609.04 0 1.42296e+06 1616.53 0 1.40321e+06 1620.74 0 1.38343e+06 1621.94 0 1.36364e+06 1620.37 0 1.3439e+06 1616.29 0 1.32422e+06 1609.92 0 1.30463e+06 1601.46 0 1.28515e+06 1591.11 0 1.26581e+06 1579.04 0 1.24663e+06 1565.43 0 1.22762e+06 1550.43 0 1.2088e+06 1534.18 0 1.19019e+06 1516.81 0 1.17179e+06 1498.45 0 1.15363e+06 1479.19 0 1.13571e+06 1459.15 0 1.11803e+06 1438.42 0 1.10061e+06 1417.09 0 1.08345e+06 1395.23 0 1.06657e+06 1372.91 0 1.04996e+06 1350.2 0 1.03362e+06 1327.16 0 1.01758e+06 1303.85 0 1.00181e+06 1280.31 0 986337 1256.58 0 971152 1232.72 0 956259 1208.76 0 941658 1184.73 0 927352 1160.66 0 913338 1136.57 0 899619 1112.5 0 886193 1088.47 0 873060 1064.48 0 860220 1040.58 0 847670 1016.75 0 835410 993.034 0 823440 969.428 0 811756 945.946 0 800358 922.597 0 789244 899.389 0 778412 876.329 0 767861 853.422 0 757588 830.673 0 747592 808.086 0 737870 785.663 0 728421 763.406 0 719242 741.318 0 710332 719.397 0 701688 697.646 0 693309 676.062 0 685192 654.645 0 677335 633.394 0 669736 612.307 0 662394 591.381 0 655306 570.614 0 648470 550.003 0 641885 529.545 0 635549 509.237 0 629459 489.074 0 623615 469.052 0 618014 449.168 0 612655 429.417 0 607536 409.794 0 602655 390.296 0 598012 370.916 0 593604 351.65 0 589431 332.493 0 585491 313.44 0 581783 294.485 0 578305 275.623 0 575057 256.849 0 572038 238.156 0 569246 219.541 0 566681 200.995 0 564341 182.515 0 562227 164.094 0 560337 145.726 0 558671 127.406 0 557229 109.128 0 556008 90.8849 0 555011 72.6721 0 554235 54.4831 0 553681 36.3121 0 553349 18.1531 0 553238 0 0 1.34041e+06 6.02107e-07 0 1.34678e+06 -1357.78 0 1.36426e+06 -2392.56 0 1.38939e+06 -3039.84 0 1.41899e+06 -3385.1 0 1.45072e+06 -3520.28 0 1.48298e+06 -3511.24 0 1.51468e+06 -3403.15 0 1.54506e+06 -3227.67 0 1.57361e+06 -3007.21 0 1.60001e+06 -2757.68 0 1.62403e+06 -2490.36 0 1.64555e+06 -2213.33 0 1.66452e+06 -1932.4 0 1.68091e+06 -1651.87 0 1.69476e+06 -1374.94 0 1.70609e+06 -1104.05 0 1.71499e+06 -841.104 0 1.72151e+06 -587.548 0 1.72577e+06 -344.512 0 1.72785e+06 -112.852 0 1.72787e+06 106.809 0 1.72594e+06 314.045 0 1.72216e+06 508.605 0 1.71667e+06 690.389 0 1.70957e+06 859.43 0 1.70098e+06 1015.87 0 1.69101e+06 1159.96 0 1.67978e+06 1292.02 0 1.6674e+06 1412.44 0 1.65397e+06 1521.65 0 1.63959e+06 1620.15 0 1.62435e+06 1708.43 0 1.60835e+06 1787.03 0 1.59168e+06 1856.48 0 1.5744e+06 1917.33 0 1.55661e+06 1970.09 0 1.53837e+06 2015.31 0 1.51975e+06 2053.48 0 1.50081e+06 2085.11 0 1.48161e+06 2110.67 0 1.46221e+06 2130.62 0 1.44264e+06 2145.39 0 1.42296e+06 2155.38 0 1.40321e+06 2160.99 0 1.38343e+06 2162.59 0 1.36364e+06 2160.5 0 1.3439e+06 2155.06 0 1.32422e+06 2146.56 0 1.30462e+06 2135.28 0 1.28515e+06 2121.48 0 1.26581e+06 2105.39 0 1.24663e+06 2087.24 0 1.22762e+06 2067.24 0 1.2088e+06 2045.58 0 1.19019e+06 2022.42 0 1.17179e+06 1997.93 0 1.15363e+06 1972.26 0 1.1357e+06 1945.54 0 1.11803e+06 1917.9 0 1.10061e+06 1889.45 0 1.08345e+06 1860.3 0 1.06657e+06 1830.54 0 1.04996e+06 1800.26 0 1.03362e+06 1769.55 0 1.01757e+06 1738.46 0 1.00181e+06 1707.07 0 986336 1675.45 0 971151 1643.63 0 956258 1611.68 0 941658 1579.64 0 927351 1547.54 0 913338 1515.43 0 899618 1483.33 0 886193 1451.29 0 873060 1419.31 0 860219 1387.43 0 847669 1355.67 0 835410 1324.05 0 823439 1292.57 0 811755 1261.26 0 800357 1230.13 0 789243 1199.19 0 778411 1168.44 0 767860 1137.9 0 757587 1107.56 0 747591 1077.45 0 737869 1047.55 0 728420 1017.88 0 719242 988.423 0 710331 959.196 0 701688 930.194 0 693308 901.416 0 685191 872.86 0 677334 844.525 0 669736 816.409 0 662393 788.508 0 655305 760.819 0 648470 733.338 0 641885 706.06 0 635548 678.982 0 629459 652.098 0 623614 625.403 0 618013 598.89 0 612654 572.556 0 607535 546.392 0 602655 520.394 0 598011 494.554 0 593604 468.866 0 589431 443.324 0 585491 417.92 0 581782 392.646 0 578305 367.497 0 575057 342.465 0 572037 317.542 0 569245 292.721 0 566680 267.994 0 564341 243.353 0 562227 218.792 0 560337 194.302 0 558671 169.875 0 557228 145.503 0 556008 121.18 0 555010 96.8961 0 554235 72.6442 0 553681 48.4162 0 553349 24.2041 0 553238 0 0 1.34037e+06 -1.69815e-06 0 1.34674e+06 -1697.72 0 1.36423e+06 -2991.26 0 1.38938e+06 -3800.22 0 1.41898e+06 -4231.66 0 1.45072e+06 -4400.55 0 1.48298e+06 -4389.19 0 1.51468e+06 -4254.03 0 1.54507e+06 -4034.65 0 1.57362e+06 -3759.05 0 1.60001e+06 -3447.12 0 1.62403e+06 -3112.97 0 1.64556e+06 -2766.66 0 1.66453e+06 -2415.5 0 1.68092e+06 -2064.83 0 1.69477e+06 -1718.66 0 1.7061e+06 -1380.06 0 1.71499e+06 -1051.37 0 1.72152e+06 -734.42 0 1.72578e+06 -430.624 0 1.72786e+06 -141.048 0 1.72788e+06 133.528 0 1.72594e+06 392.574 0 1.72217e+06 635.774 0 1.71667e+06 863.004 0 1.70957e+06 1074.31 0 1.70098e+06 1269.86 0 1.69102e+06 1449.97 0 1.67979e+06 1615.04 0 1.66741e+06 1765.56 0 1.65397e+06 1902.08 0 1.63959e+06 2025.2 0 1.62435e+06 2135.55 0 1.60835e+06 2233.8 0 1.59168e+06 2320.62 0 1.57441e+06 2396.67 0 1.55661e+06 2462.63 0 1.53838e+06 2519.14 0 1.51976e+06 2566.86 0 1.50082e+06 2606.4 0 1.48162e+06 2638.35 0 1.46221e+06 2663.28 0 1.44264e+06 2681.74 0 1.42296e+06 2694.23 0 1.40321e+06 2701.25 0 1.38343e+06 2703.24 0 1.36364e+06 2700.63 0 1.3439e+06 2693.83 0 1.32422e+06 2683.2 0 1.30462e+06 2669.1 0 1.28515e+06 2651.85 0 1.26581e+06 2631.74 0 1.24663e+06 2609.06 0 1.22762e+06 2584.06 0 1.2088e+06 2556.97 0 1.19019e+06 2528.02 0 1.17179e+06 2497.41 0 1.15363e+06 2465.32 0 1.1357e+06 2431.93 0 1.11803e+06 2397.37 0 1.10061e+06 2361.82 0 1.08345e+06 2325.38 0 1.06657e+06 2288.18 0 1.04996e+06 2250.33 0 1.03362e+06 2211.93 0 1.01757e+06 2173.08 0 1.00181e+06 2133.84 0 986335 2094.31 0 971150 2054.54 0 956257 2014.6 0 941657 1974.55 0 927350 1934.43 0 913337 1894.29 0 899617 1854.17 0 886192 1814.11 0 873059 1774.14 0 860218 1734.29 0 847668 1694.59 0 835409 1655.06 0 823438 1615.71 0 811754 1576.58 0 800356 1537.66 0 789242 1498.98 0 778411 1460.55 0 767859 1422.37 0 757586 1384.45 0 747590 1346.81 0 737869 1309.44 0 728419 1272.34 0 719241 1235.53 0 710331 1199 0 701687 1162.74 0 693307 1126.77 0 685190 1091.07 0 677333 1055.66 0 669735 1020.51 0 662392 985.634 0 655304 951.023 0 648469 916.672 0 641884 882.575 0 635547 848.727 0 629458 815.122 0 623613 781.753 0 618012 748.613 0 612653 715.694 0 607534 682.99 0 602654 650.492 0 598011 618.192 0 593603 586.083 0 589430 554.155 0 585490 522.399 0 581782 490.808 0 578304 459.372 0 575056 428.081 0 572037 396.927 0 569245 365.901 0 566679 334.992 0 564340 304.191 0 562226 273.49 0 560336 242.877 0 558670 212.343 0 557227 181.879 0 556007 151.475 0 555009 121.12 0 554234 90.8052 0 553680 60.5202 0 553348 30.2551 0 553237 0 0 1.34031e+06 3.09e-06 0 1.34669e+06 -2037.99 0 1.3642e+06 -3590.33 0 1.38936e+06 -4560.88 0 1.41897e+06 -5078.42 0 1.45071e+06 -5280.95 0 1.48299e+06 -5267.23 0 1.51469e+06 -5104.98 0 1.54507e+06 -4841.67 0 1.57363e+06 -4510.92 0 1.60002e+06 -4136.58 0 1.62404e+06 -3735.58 0 1.64557e+06 -3320 0 1.66454e+06 -2898.6 0 1.68093e+06 -2477.78 0 1.69478e+06 -2062.38 0 1.70611e+06 -1656.05 0 1.715e+06 -1261.62 0 1.72153e+06 -881.282 0 1.72579e+06 -516.725 0 1.72787e+06 -169.233 0 1.72789e+06 160.259 0 1.72595e+06 471.114 0 1.72217e+06 762.955 0 1.71668e+06 1035.63 0 1.70958e+06 1289.19 0 1.70099e+06 1523.86 0 1.69102e+06 1739.99 0 1.67979e+06 1938.07 0 1.66741e+06 2118.7 0 1.65398e+06 2282.52 0 1.63959e+06 2430.26 0 1.62436e+06 2562.69 0 1.60836e+06 2680.58 0 1.59168e+06 2784.76 0 1.57441e+06 2876.02 0 1.55662e+06 2955.17 0 1.53838e+06 3022.99 0 1.51976e+06 3080.25 0 1.50082e+06 3127.69 0 1.48162e+06 3166.03 0 1.46221e+06 3195.95 0 1.44264e+06 3218.1 0 1.42296e+06 3233.09 0 1.40321e+06 3241.5 0 1.38343e+06 3243.89 0 1.36364e+06 3240.76 0 1.3439e+06 3232.6 0 1.32422e+06 3219.85 0 1.30462e+06 3202.93 0 1.28515e+06 3182.22 0 1.26581e+06 3158.09 0 1.24662e+06 3130.87 0 1.22762e+06 3100.87 0 1.2088e+06 3068.37 0 1.19019e+06 3033.63 0 1.17179e+06 2996.9 0 1.15363e+06 2958.39 0 1.1357e+06 2918.31 0 1.11803e+06 2876.85 0 1.10061e+06 2834.18 0 1.08345e+06 2790.45 0 1.06657e+06 2745.82 0 1.04995e+06 2700.4 0 1.03362e+06 2654.32 0 1.01757e+06 2607.69 0 1.00181e+06 2560.61 0 986334 2513.17 0 971149 2465.45 0 956256 2417.52 0 941655 2369.45 0 927349 2321.31 0 913336 2273.14 0 899616 2225 0 886190 2176.93 0 873057 2128.97 0 860217 2081.15 0 847667 2033.51 0 835407 1986.07 0 823437 1938.86 0 811753 1891.89 0 800355 1845.19 0 789241 1798.78 0 778409 1752.66 0 767858 1706.84 0 757585 1661.35 0 747589 1616.17 0 737867 1571.32 0 728418 1526.81 0 719240 1482.63 0 710329 1438.79 0 701686 1395.29 0 693306 1352.12 0 685189 1309.29 0 677332 1266.79 0 669734 1224.61 0 662391 1182.76 0 655303 1141.23 0 648468 1100.01 0 641883 1059.09 0 635546 1018.47 0 629457 978.146 0 623612 938.103 0 618011 898.335 0 612652 858.833 0 607533 819.588 0 602653 780.59 0 598010 741.831 0 593602 703.299 0 589429 664.985 0 585489 626.879 0 581781 588.969 0 578303 551.246 0 575055 513.697 0 572036 476.312 0 569244 439.081 0 566679 401.99 0 564339 365.03 0 562225 328.187 0 560335 291.452 0 558669 254.812 0 557226 218.255 0 556006 181.77 0 555009 145.344 0 554233 108.966 0 553679 72.6242 0 553347 36.3061 0 553236 0 0 1.34025e+06 -2.35561e-06 0 1.34664e+06 -2378.65 0 1.36416e+06 -4189.85 0 1.38934e+06 -5321.88 0 1.41896e+06 -5925.41 0 1.45071e+06 -6161.51 0 1.48299e+06 -6145.38 0 1.5147e+06 -5956 0 1.54508e+06 -5648.74 0 1.57364e+06 -5262.83 0 1.60003e+06 -4826.06 0 1.62406e+06 -4358.2 0 1.64558e+06 -3873.35 0 1.66455e+06 -3381.69 0 1.68095e+06 -2890.74 0 1.69479e+06 -2406.1 0 1.70612e+06 -1932.04 0 1.71502e+06 -1471.87 0 1.72154e+06 -1028.13 0 1.7258e+06 -602.814 0 1.72788e+06 -197.404 0 1.72789e+06 187.005 0 1.72596e+06 549.669 0 1.72218e+06 890.15 0 1.71669e+06 1208.27 0 1.70958e+06 1504.09 0 1.70099e+06 1777.87 0 1.69103e+06 2030.02 0 1.6798e+06 2261.12 0 1.66742e+06 2471.84 0 1.65398e+06 2662.97 0 1.6396e+06 2835.33 0 1.62436e+06 2989.83 0 1.60836e+06 3127.37 0 1.59168e+06 3248.91 0 1.57441e+06 3355.38 0 1.55662e+06 3447.72 0 1.53838e+06 3526.84 0 1.51976e+06 3593.64 0 1.50082e+06 3648.99 0 1.48162e+06 3693.72 0 1.46221e+06 3728.62 0 1.44264e+06 3754.46 0 1.42296e+06 3771.95 0 1.40321e+06 3781.77 0 1.38343e+06 3784.55 0 1.36364e+06 3780.9 0 1.3439e+06 3771.38 0 1.32422e+06 3756.5 0 1.30462e+06 3736.76 0 1.28515e+06 3712.6 0 1.26581e+06 3684.45 0 1.24662e+06 3652.69 0 1.22762e+06 3617.69 0 1.2088e+06 3579.77 0 1.19019e+06 3539.24 0 1.17179e+06 3496.38 0 1.15363e+06 3451.46 0 1.1357e+06 3404.7 0 1.11803e+06 3356.33 0 1.10061e+06 3306.54 0 1.08345e+06 3255.53 0 1.06656e+06 3203.45 0 1.04995e+06 3150.47 0 1.03362e+06 3096.71 0 1.01757e+06 3042.31 0 1.00181e+06 2987.38 0 986332 2932.03 0 971148 2876.36 0 956254 2820.44 0 941654 2764.36 0 927347 2708.2 0 913334 2652 0 899615 2595.84 0 886189 2539.75 0 873056 2483.8 0 860215 2428.01 0 847666 2372.42 0 835406 2317.08 0 823435 2262 0 811752 2207.21 0 800354 2152.72 0 789240 2098.57 0 778408 2044.77 0 767857 1991.32 0 757584 1938.24 0 747588 1885.53 0 737866 1833.21 0 728417 1781.28 0 719238 1729.74 0 710328 1678.59 0 701684 1627.84 0 693305 1577.48 0 685188 1527.5 0 677331 1477.92 0 669732 1428.71 0 662390 1379.89 0 655302 1331.43 0 648467 1283.34 0 641882 1235.6 0 635545 1188.22 0 629456 1141.17 0 623611 1094.45 0 618010 1048.06 0 612651 1001.97 0 607532 956.185 0 602652 910.688 0 598008 865.469 0 593601 820.515 0 589428 775.816 0 585488 731.358 0 581779 687.13 0 578302 643.12 0 575054 599.313 0 572035 555.698 0 569243 512.26 0 566677 468.988 0 564338 425.868 0 562224 382.885 0 560334 340.027 0 558668 297.28 0 557225 254.631 0 556005 212.065 0 555007 169.568 0 554232 127.127 0 553678 84.7282 0 553346 42.3571 0 553235 0 0 1.34018e+06 2.86615e-07 0 1.34657e+06 -2719.76 0 1.36412e+06 -4789.89 0 1.38932e+06 -6083.27 0 1.41895e+06 -6772.68 0 1.45071e+06 -7042.26 0 1.48299e+06 -7023.65 0 1.5147e+06 -6807.1 0 1.54509e+06 -6455.87 0 1.57365e+06 -6014.77 0 1.60005e+06 -5515.57 0 1.62407e+06 -4980.84 0 1.6456e+06 -4426.7 0 1.66456e+06 -3864.79 0 1.68096e+06 -3303.69 0 1.6948e+06 -2749.8 0 1.70614e+06 -2208.01 0 1.71503e+06 -1682.1 0 1.72156e+06 -1174.97 0 1.72581e+06 -688.887 0 1.72789e+06 -225.56 0 1.72791e+06 213.766 0 1.72597e+06 628.241 0 1.72219e+06 1017.36 0 1.71669e+06 1380.93 0 1.70959e+06 1719.01 0 1.701e+06 2031.89 0 1.69103e+06 2320.07 0 1.6798e+06 2584.18 0 1.66742e+06 2825.01 0 1.65399e+06 3043.43 0 1.6396e+06 3240.42 0 1.62437e+06 3416.98 0 1.60836e+06 3574.18 0 1.59169e+06 3713.07 0 1.57441e+06 3834.75 0 1.55662e+06 3940.28 0 1.53838e+06 4030.7 0 1.51976e+06 4107.04 0 1.50082e+06 4170.3 0 1.48162e+06 4221.42 0 1.46221e+06 4261.3 0 1.44264e+06 4290.83 0 1.42296e+06 4310.82 0 1.40321e+06 4322.03 0 1.38343e+06 4325.22 0 1.36364e+06 4321.04 0 1.3439e+06 4310.16 0 1.32421e+06 4293.15 0 1.30462e+06 4270.59 0 1.28515e+06 4242.98 0 1.26581e+06 4210.81 0 1.24662e+06 4174.51 0 1.22761e+06 4134.51 0 1.2088e+06 4091.17 0 1.19018e+06 4044.85 0 1.17179e+06 3995.87 0 1.15362e+06 3944.53 0 1.1357e+06 3891.09 0 1.11802e+06 3835.81 0 1.1006e+06 3778.91 0 1.08345e+06 3720.61 0 1.06656e+06 3661.09 0 1.04995e+06 3600.53 0 1.03362e+06 3539.1 0 1.01757e+06 3476.93 0 1.00181e+06 3414.15 0 986331 3350.9 0 971146 3287.27 0 956253 3223.36 0 941652 3159.27 0 927346 3095.08 0 913332 3030.86 0 899613 2966.67 0 886187 2902.57 0 873054 2838.62 0 860214 2774.87 0 847664 2711.34 0 835404 2648.09 0 823434 2585.14 0 811750 2522.52 0 800352 2460.26 0 789238 2398.37 0 778406 2336.87 0 767855 2275.79 0 757582 2215.13 0 747586 2154.89 0 737865 2095.1 0 728415 2035.75 0 719237 1976.84 0 710327 1918.39 0 701683 1860.39 0 693304 1802.83 0 685186 1745.72 0 677330 1689.05 0 669731 1632.82 0 662389 1577.01 0 655301 1521.63 0 648465 1466.67 0 641880 1412.12 0 635544 1357.96 0 629454 1304.19 0 623610 1250.8 0 618009 1197.78 0 612650 1145.11 0 607531 1092.78 0 602650 1040.79 0 598007 989.106 0 593600 937.731 0 589426 886.646 0 585486 835.838 0 581778 785.291 0 578301 734.993 0 575053 684.929 0 572033 635.083 0 569241 585.44 0 566676 535.986 0 564337 486.705 0 562223 437.583 0 560333 388.602 0 558667 339.749 0 557224 291.006 0 556004 242.359 0 555006 193.792 0 554231 145.288 0 553677 96.8321 0 553345 48.4081 0 553234 0 0 1.34009e+06 -5.83241e-07 0 1.3465e+06 -3061.41 0 1.36407e+06 -5390.53 0 1.38929e+06 -6845.11 0 1.41894e+06 -7620.25 0 1.45071e+06 -7923.22 0 1.483e+06 -7902.08 0 1.51471e+06 -7658.31 0 1.5451e+06 -7263.06 0 1.57367e+06 -6766.75 0 1.60006e+06 -6205.1 0 1.62409e+06 -5603.49 0 1.64561e+06 -4980.05 0 1.66458e+06 -4347.89 0 1.68098e+06 -3716.63 0 1.69482e+06 -3093.5 0 1.70615e+06 -2483.98 0 1.71504e+06 -1892.31 0 1.72157e+06 -1321.79 0 1.72582e+06 -774.944 0 1.7279e+06 -253.698 0 1.72792e+06 240.546 0 1.72598e+06 706.831 0 1.7222e+06 1144.59 0 1.7167e+06 1553.61 0 1.7096e+06 1933.95 0 1.70101e+06 2285.94 0 1.69104e+06 2610.13 0 1.67981e+06 2907.26 0 1.66743e+06 3178.19 0 1.65399e+06 3423.91 0 1.63961e+06 3645.52 0 1.62437e+06 3844.15 0 1.60837e+06 4020.99 0 1.59169e+06 4177.25 0 1.57442e+06 4314.13 0 1.55662e+06 4432.85 0 1.53838e+06 4534.57 0 1.51976e+06 4620.46 0 1.50082e+06 4691.62 0 1.48162e+06 4749.12 0 1.46221e+06 4793.99 0 1.44264e+06 4827.21 0 1.42296e+06 4849.69 0 1.40321e+06 4862.31 0 1.38343e+06 4865.88 0 1.36364e+06 4861.19 0 1.3439e+06 4848.94 0 1.32421e+06 4829.81 0 1.30462e+06 4804.42 0 1.28514e+06 4773.36 0 1.2658e+06 4737.17 0 1.24662e+06 4696.33 0 1.22761e+06 4651.33 0 1.2088e+06 4602.57 0 1.19018e+06 4550.46 0 1.17179e+06 4495.36 0 1.15362e+06 4437.6 0 1.1357e+06 4377.48 0 1.11802e+06 4315.29 0 1.1006e+06 4251.28 0 1.08345e+06 4185.69 0 1.06656e+06 4118.73 0 1.04995e+06 4050.6 0 1.03362e+06 3981.49 0 1.01757e+06 3911.54 0 1.0018e+06 3840.92 0 986329 3769.76 0 971144 3698.17 0 956251 3626.28 0 941651 3554.18 0 927344 3481.97 0 913331 3409.71 0 899611 3337.5 0 886185 3265.39 0 873053 3193.45 0 860212 3121.72 0 847662 3050.26 0 835403 2979.1 0 823432 2908.28 0 811748 2837.83 0 800350 2767.79 0 789236 2698.16 0 778405 2628.98 0 767853 2560.26 0 757581 2492.02 0 747584 2424.25 0 737863 2356.98 0 728414 2290.21 0 719235 2223.95 0 710325 2158.19 0 701681 2092.93 0 693302 2028.18 0 685185 1963.93 0 677328 1900.18 0 669729 1836.92 0 662387 1774.14 0 655299 1711.84 0 648464 1650.01 0 641879 1588.63 0 635542 1527.71 0 629453 1467.22 0 623608 1407.15 0 618007 1347.5 0 612648 1288.25 0 607529 1229.38 0 602649 1170.88 0 598006 1112.74 0 593598 1054.95 0 589425 997.476 0 585485 940.317 0 581777 883.452 0 578299 826.867 0 575051 770.544 0 572032 714.467 0 569240 658.62 0 566675 602.984 0 564335 547.543 0 562221 492.28 0 560331 437.177 0 558665 382.217 0 557223 327.382 0 556002 272.654 0 555005 218.016 0 554229 163.449 0 553675 108.936 0 553343 54.4591 0 553232 0 0 1.34e+06 -5.91448e-07 0 1.34642e+06 -3403.65 0 1.36402e+06 -5991.85 0 1.38926e+06 -7607.46 0 1.41892e+06 -8468.17 0 1.4507e+06 -8804.42 0 1.483e+06 -8780.67 0 1.51472e+06 -8509.62 0 1.54512e+06 -8070.33 0 1.57368e+06 -7518.78 0 1.60008e+06 -6894.66 0 1.6241e+06 -6226.16 0 1.64563e+06 -5533.41 0 1.6646e+06 -4830.98 0 1.68099e+06 -4129.57 0 1.69484e+06 -3437.18 0 1.70617e+06 -2759.93 0 1.71506e+06 -2102.52 0 1.72159e+06 -1468.59 0 1.72584e+06 -860.982 0 1.72792e+06 -281.816 0 1.72793e+06 267.347 0 1.72599e+06 785.443 0 1.72222e+06 1271.85 0 1.71672e+06 1726.31 0 1.70961e+06 2148.9 0 1.70102e+06 2540.01 0 1.69105e+06 2900.22 0 1.67982e+06 3230.35 0 1.66744e+06 3531.38 0 1.654e+06 3804.41 0 1.63961e+06 4050.64 0 1.62438e+06 4271.33 0 1.60837e+06 4467.82 0 1.59169e+06 4641.44 0 1.57442e+06 4793.53 0 1.55663e+06 4925.43 0 1.53839e+06 5038.45 0 1.51976e+06 5133.88 0 1.50082e+06 5212.94 0 1.48162e+06 5276.83 0 1.46221e+06 5326.69 0 1.44264e+06 5363.59 0 1.42296e+06 5388.57 0 1.40321e+06 5402.59 0 1.38343e+06 5406.56 0 1.36364e+06 5401.34 0 1.3439e+06 5387.73 0 1.32421e+06 5366.47 0 1.30462e+06 5338.26 0 1.28514e+06 5303.75 0 1.2658e+06 5263.53 0 1.24662e+06 5218.16 0 1.22761e+06 5168.15 0 1.20879e+06 5113.98 0 1.19018e+06 5056.08 0 1.17179e+06 4994.85 0 1.15362e+06 4930.67 0 1.1357e+06 4863.87 0 1.11802e+06 4794.77 0 1.1006e+06 4723.65 0 1.08345e+06 4650.77 0 1.06656e+06 4576.37 0 1.04995e+06 4500.67 0 1.03362e+06 4423.88 0 1.01757e+06 4346.16 0 1.0018e+06 4267.69 0 986327 4188.62 0 971142 4109.08 0 956249 4029.2 0 941648 3949.09 0 927342 3868.85 0 913329 3788.57 0 899609 3708.34 0 886183 3628.22 0 873050 3548.28 0 860210 3468.58 0 847660 3389.18 0 835401 3310.11 0 823430 3231.42 0 811746 3153.15 0 800348 3075.32 0 789234 2997.96 0 778403 2921.09 0 767851 2844.73 0 757579 2768.9 0 747583 2693.61 0 737861 2618.87 0 728412 2544.68 0 719233 2471.05 0 710323 2397.98 0 701679 2325.48 0 693300 2253.53 0 685183 2182.14 0 677326 2111.31 0 669728 2041.02 0 662385 1971.26 0 655297 1902.04 0 648462 1833.34 0 641877 1765.15 0 635540 1697.45 0 629451 1630.24 0 623607 1563.5 0 618006 1497.22 0 612647 1431.38 0 607528 1365.98 0 602647 1300.98 0 598004 1236.38 0 593596 1172.16 0 589423 1108.31 0 585483 1044.8 0 581775 981.613 0 578298 918.74 0 575050 856.16 0 572030 793.852 0 569238 731.799 0 566673 669.982 0 564334 608.381 0 562220 546.978 0 560330 485.752 0 558664 424.685 0 557221 363.757 0 556001 302.949 0 555003 242.239 0 554228 181.61 0 553674 121.04 0 553342 60.51 0 553231 0 0 1.3399e+06 4.65079e-07 0 1.34634e+06 -3746.56 0 1.36396e+06 -6593.91 0 1.38922e+06 -8370.36 0 1.41891e+06 -9316.48 0 1.4507e+06 -9685.89 0 1.48301e+06 -9659.44 0 1.51473e+06 -9361.06 0 1.54513e+06 -8877.69 0 1.5737e+06 -8270.86 0 1.6001e+06 -7584.25 0 1.62412e+06 -6848.84 0 1.64565e+06 -6086.78 0 1.66462e+06 -5314.08 0 1.68101e+06 -4542.5 0 1.69486e+06 -3780.86 0 1.70619e+06 -3035.86 0 1.71508e+06 -2312.7 0 1.7216e+06 -1615.38 0 1.72585e+06 -946.998 0 1.72793e+06 -309.911 0 1.72795e+06 294.171 0 1.72601e+06 864.079 0 1.72223e+06 1399.12 0 1.71673e+06 1899.03 0 1.70962e+06 2363.89 0 1.70103e+06 2794.1 0 1.69106e+06 3190.33 0 1.67983e+06 3553.47 0 1.66744e+06 3884.6 0 1.65401e+06 4184.93 0 1.63962e+06 4455.77 0 1.62438e+06 4698.54 0 1.60838e+06 4914.67 0 1.5917e+06 5105.64 0 1.57442e+06 5272.94 0 1.55663e+06 5418.03 0 1.53839e+06 5542.35 0 1.51977e+06 5647.31 0 1.50083e+06 5734.28 0 1.48162e+06 5804.56 0 1.46221e+06 5859.39 0 1.44264e+06 5899.99 0 1.42296e+06 5927.46 0 1.40321e+06 5942.88 0 1.38343e+06 5947.24 0 1.36364e+06 5941.5 0 1.3439e+06 5926.52 0 1.32421e+06 5903.14 0 1.30462e+06 5872.11 0 1.28514e+06 5834.14 0 1.2658e+06 5789.9 0 1.24662e+06 5739.99 0 1.22761e+06 5684.98 0 1.20879e+06 5625.39 0 1.19018e+06 5561.7 0 1.17178e+06 5494.35 0 1.15362e+06 5423.74 0 1.13569e+06 5350.27 0 1.11802e+06 5274.25 0 1.1006e+06 5196.02 0 1.08344e+06 5115.85 0 1.06656e+06 5034.01 0 1.04995e+06 4950.74 0 1.03361e+06 4866.27 0 1.01756e+06 4780.78 0 1.0018e+06 4694.46 0 986325 4607.48 0 971140 4519.99 0 956247 4432.12 0 941646 4344 0 927339 4255.74 0 913326 4167.43 0 899607 4079.17 0 886181 3991.04 0 873048 3903.11 0 860207 3815.44 0 847658 3728.09 0 835398 3641.12 0 82