<?xml version="1.0"?> 
<VTKFile type="StructuredGrid" version="0.1"> 
<StructuredGrid WholeExtent="0 127 0 127 0 0"> 
<Piece Extent="0 127 0 127 0 0"> 
<PointData>
<DataArray type="Float32" Name="|E|" format="ascii" NumberOfComponents="3"> 
1.68605e+06 -672524 0 1.70375e+06 -627850 0 1.73988e+06 -582001 0 1.77622e+06 -535954 0 1.81058e+06 -490475 0 1.84231e+06 -444800 0 1.87065e+06 -399230 0 1.89532e+06 -353772 0 1.916e+06 -308722 0 1.93264e+06 -264320 0 1.94521e+06 -220876 0 1.95381e+06 -178669 0 1.95862e+06 -137966 0 1.95984e+06 -98989.5 0 1.95774e+06 -61922.2 0 1.9526e+06 -26896.6 0 1.9447e+06 5998.93 0 1.93434e+06 36718.1 0 1.92178e+06 65251 0 1.90731e+06 91618.1 0 1.89115e+06 115865 0 1.87354e+06 138057 0 1.85469e+06 158273 0 1.83477e+06 176603 0 1.81396e+06 193143 0 1.79241e+06 207994 0 1.77025e+06 221257 0 1.7476e+06 233034 0 1.72456e+06 243423 0 1.70122e+06 252523 0 1.67766e+06 260425 0 1.65397e+06 267219 0 1.63019e+06 272990 0 1.60638e+06 277817 0 1.5826e+06 281775 0 1.55888e+06 284935 0 1.53526e+06 287363 0 1.51177e+06 289121 0 1.48844e+06 290266 0 1.4653e+06 290851 0 1.44236e+06 290925 0 1.41966e+06 290534 0 1.39719e+06 289721 0 1.37498e+06 288524 0 1.35304e+06 286980 0 1.33138e+06 285121 0 1.31001e+06 282978 0 1.28894e+06 280579 0 1.26816e+06 277951 0 1.2477e+06 275116 0 1.22755e+06 272097 0 1.20772e+06 268914 0 1.1882e+06 265585 0 1.16901e+06 262128 0 1.15014e+06 258556 0 1.1316e+06 254885 0 1.11338e+06 251128 0 1.09549e+06 247296 0 1.07792e+06 243400 0 1.06068e+06 239450 0 1.04376e+06 235455 0 1.02717e+06 231424 0 1.0109e+06 227363 0 994943 223279 0 979308 219179 0 963990 215068 0 948987 210951 0 934296 206833 0 919915 202717 0 905842 198608 0 892074 194509 0 878608 190423 0 865442 186353 0 852574 182300 0 840000 178267 0 827718 174256 0 815726 170268 0 804019 166305 0 792597 162368 0 781455 158458 0 770591 154576 0 760003 150722 0 749687 146898 0 739641 143103 0 729863 139337 0 720349 135602 0 711097 131897 0 702105 128222 0 693369 124577 0 684888 120963 0 676659 117378 0 668679 113822 0 660946 110295 0 653458 106798 0 646213 103328 0 639208 99886.2 0 632442 96471.5 0 625911 93083.6 0 619615 89721.6 0 613551 86385 0 607717 83073.1 0 602111 79785.2 0 596732 76520.5 0 591578 73278.3 0 586647 70057.9 0 581938 66858.4 0 577449 63679 0 573179 60518.9 0 569125 57377.3 0 565288 54253.2 0 561665 51145.9 0 558256 48054.4 0 555059 44977.9 0 552073 41915.4 0 549298 38866.1 0 546732 35829.1 0 544374 32803.3 0 542224 29788 0 540281 26782.1 0 538544 23784.8 0 537013 20795 0 535687 17811.9 0 534566 14834.5 0 533650 11861.9 0 532937 8893.1 0 532428 5927.14 0 532123 2963.1 0 532021 0 0 1.68677e+06 -672812 0 1.70989e+06 -629671 0 1.74593e+06 -583763 0 1.78214e+06 -537757 0 1.81643e+06 -492001 0 1.84803e+06 -446056 0 1.87623e+06 -400134 0 1.9007e+06 -354319 0 1.92119e+06 -308897 0 1.93758e+06 -264131 0 1.94989e+06 -220338 0 1.95821e+06 -177805 0 1.96271e+06 -136804 0 1.96363e+06 -97561 0 1.96122e+06 -60258.4 0 1.95576e+06 -25028.9 0 1.94756e+06 8040.43 0 1.9369e+06 38905.4 0 1.92406e+06 67558.5 0 1.90931e+06 94022.9 0 1.8929e+06 118347 0 1.87505e+06 140598 0 1.85597e+06 160857 0 1.83584e+06 179217 0 1.81484e+06 195776 0 1.79311e+06 210636 0 1.77079e+06 223900 0 1.74798e+06 235671 0 1.7248e+06 246049 0 1.70134e+06 255132 0 1.67768e+06 263013 0 1.65388e+06 269784 0 1.63e+06 275528 0 1.60612e+06 280326 0 1.58226e+06 284254 0 1.55847e+06 287382 0 1.53479e+06 289777 0 1.51125e+06 291502 0 1.48787e+06 292612 0 1.46469e+06 293162 0 1.44172e+06 293201 0 1.41898e+06 292775 0 1.39649e+06 291926 0 1.37426e+06 290693 0 1.3523e+06 289112 0 1.33063e+06 287218 0 1.30924e+06 285039 0 1.28816e+06 282605 0 1.26738e+06 279942 0 1.24691e+06 277072 0 1.22676e+06 274018 0 1.20692e+06 270801 0 1.18741e+06 267437 0 1.16822e+06 263946 0 1.14935e+06 260340 0 1.13081e+06 256636 0 1.1126e+06 252846 0 1.09471e+06 248981 0 1.07715e+06 245052 0 1.05992e+06 241070 0 1.04301e+06 237043 0 1.02642e+06 232980 0 1.01016e+06 228888 0 994215 224773 0 978591 220642 0 963283 216501 0 948291 212354 0 933610 208206 0 919240 204061 0 905177 199923 0 891420 195795 0 877965 191680 0 864811 187581 0 851953 183501 0 839391 179440 0 827120 175402 0 815138 171387 0 803442 167397 0 792030 163434 0 780899 159497 0 770046 155589 0 759467 151710 0 749162 147860 0 739126 144039 0 729357 140249 0 719853 136489 0 710610 132760 0 701627 129061 0 692900 125392 0 684428 121753 0 676207 118145 0 668235 114566 0 660511 111016 0 653031 107495 0 645793 104003 0 638796 100539 0 632036 97101.8 0 625513 93691.7 0 619223 90307.8 0 613166 86949.4 0 607338 83615.8 0 601738 80306.4 0 596365 77020.5 0 591217 73757.1 0 586291 70515.7 0 581587 67295.3 0 577103 64095.1 0 572837 60914.4 0 568788 57752.2 0 564955 54607.8 0 561336 51480.2 0 557931 48368.5 0 554737 45271.9 0 551755 42189.4 0 548982 39120.2 0 546419 36063.3 0 544064 33017.8 0 541916 29982.7 0 539975 26957.2 0 538240 23940.3 0 536711 20931 0 535387 17928.4 0 534267 14931.5 0 533351 11939.5 0 532639 8951.25 0 532131 5965.9 0 531826 2982.47 0 531724 0 0 1.68903e+06 -673714 0 1.71592e+06 -631421 0 1.75197e+06 -585560 0 1.78809e+06 -539529 0 1.82231e+06 -493514 0 1.85377e+06 -447284 0 1.88183e+06 -401010 0 1.90613e+06 -354833 0 1.9264e+06 -309035 0 1.94255e+06 -263904 0 1.9546e+06 -219759 0 1.96263e+06 -176900 0 1.96683e+06 -135601 0 1.96743e+06 -96091.8 0 1.9647e+06 -58554.9 0 1.95894e+06 -23123.1 0 1.95043e+06 10118.4 0 1.93947e+06 41127.2 0 1.92634e+06 69898.3 0 1.91132e+06 96457.8 0 1.89465e+06 120856 0 1.87655e+06 143164 0 1.85725e+06 163465 0 1.83691e+06 181853 0 1.81571e+06 198429 0 1.79381e+06 213296 0 1.77132e+06 226559 0 1.74836e+06 238323 0 1.72505e+06 248687 0 1.70146e+06 257752 0 1.67768e+06 265612 0 1.65378e+06 272358 0 1.62982e+06 278074 0 1.60584e+06 282843 0 1.58191e+06 286739 0 1.55806e+06 289835 0 1.53432e+06 292197 0 1.51072e+06 293887 0 1.4873e+06 294962 0 1.46408e+06 295476 0 1.44108e+06 295479 0 1.41831e+06 295017 0 1.39579e+06 294132 0 1.37354e+06 292863 0 1.35156e+06 291247 0 1.32987e+06 289316 0 1.30847e+06 287102 0 1.28738e+06 284632 0 1.26659e+06 281933 0 1.24611e+06 279028 0 1.22596e+06 275939 0 1.20612e+06 272687 0 1.18661e+06 269289 0 1.16742e+06 265763 0 1.14856e+06 262124 0 1.13002e+06 258386 0 1.11181e+06 254562 0 1.09393e+06 250665 0 1.07638e+06 246704 0 1.05915e+06 242689 0 1.04225e+06 238630 0 1.02567e+06 234535 0 1.00942e+06 230412 0 993485 226266 0 977871 222104 0 962573 217932 0 947591 213755 0 932921 209577 0 918562 205403 0 904510 201236 0 890764 197079 0 877320 192936 0 864177 188809 0 851330 184700 0 838778 180612 0 826518 176546 0 814547 172504 0 802863 168488 0 791461 164498 0 780340 160535 0 769497 156601 0 758930 152696 0 748634 148821 0 738608 144975 0 728849 141160 0 719354 137375 0 710121 133622 0 701147 129898 0 692429 126206 0 683965 122543 0 675753 118911 0 667790 115309 0 660073 111736 0 652601 108192 0 645371 104677 0 638381 101191 0 631629 97731.4 0 625112 94299.1 0 618829 90893.2 0 612778 87513.1 0 606957 84157.9 0 601363 80827.1 0 595996 77519.8 0 590853 74235.4 0 585933 70972.9 0 581234 67731.6 0 576754 64510.8 0 572493 61309.4 0 568449 58126.8 0 564620 54961.9 0 561005 51814.1 0 557603 48682.2 0 554413 45565.5 0 551434 42463.1 0 548665 39374 0 546104 36297.2 0 543751 33232 0 541606 30177.2 0 539667 27132.1 0 537934 24095.6 0 536407 21066.8 0 535084 18044.7 0 533965 15028.4 0 533050 12017 0 532339 9009.34 0 531831 6004.61 0 531527 3001.82 0 531425 0 0 1.6923e+06 -675020 0 1.72189e+06 -633155 0 1.75801e+06 -587379 0 1.79406e+06 -541278 0 1.82821e+06 -495011 0 1.85955e+06 -448484 0 1.88747e+06 -401857 0 1.91158e+06 -355312 0 1.93164e+06 -309137 0 1.94755e+06 -263637 0 1.95933e+06 -219140 0 1.96707e+06 -175954 0 1.97096e+06 -134357 0 1.97125e+06 -94581.6 0 1.9682e+06 -56811.5 0 1.96212e+06 -21178.8 0 1.9533e+06 12232.9 0 1.94204e+06 43383.5 0 1.92862e+06 72270.6 0 1.91332e+06 98922.9 0 1.89639e+06 123394 0 1.87806e+06 145756 0 1.85852e+06 166097 0 1.83798e+06 184511 0 1.81658e+06 201102 0 1.7945e+06 215975 0 1.77184e+06 229235 0 1.74874e+06 240989 0 1.72528e+06 251339 0 1.70157e+06 260385 0 1.67768e+06 268222 0 1.65368e+06 274942 0 1.62962e+06 280630 0 1.60557e+06 285368 0 1.58156e+06 289232 0 1.55764e+06 292294 0 1.53384e+06 294622 0 1.51019e+06 296276 0 1.48673e+06 297316 0 1.46347e+06 297794 0 1.44043e+06 297761 0 1.41763e+06 297262 0 1.39508e+06 296341 0 1.37281e+06 295035 0 1.35081e+06 293382 0 1.3291e+06 291415 0 1.30769e+06 289165 0 1.28659e+06 286659 0 1.2658e+06 283924 0 1.24532e+06 280984 0 1.22516e+06 277860 0 1.20532e+06 274573 0 1.1858e+06 271141 0 1.16662e+06 267580 0 1.14776e+06 263907 0 1.12923e+06 260136 0 1.11102e+06 256279 0 1.09315e+06 252348 0 1.0756e+06 248354 0 1.05838e+06 244307 0 1.04149e+06 240216 0 1.02492e+06 236090 0 1.00868e+06 231934 0 992752 227757 0 977147 223565 0 961860 219363 0 946888 215156 0 932229 210948 0 917881 206744 0 903840 202548 0 890105 198363 0 876672 194191 0 863540 190036 0 850704 185899 0 838163 181783 0 825914 177690 0 813954 173621 0 802280 169578 0 790890 165561 0 779779 161572 0 768947 157612 0 758389 153681 0 748104 149781 0 738088 145910 0 728338 142070 0 718853 138261 0 709629 134482 0 700664 130735 0 691955 127018 0 683500 123332 0 675297 119677 0 667342 116051 0 659633 112455 0 652169 108889 0 644947 105351 0 637964 101842 0 631219 98360.2 0 624709 94905.9 0 618433 91478.1 0 612388 88076.1 0 606573 84699.4 0 600986 81347.2 0 595624 78018.6 0 590487 74713 0 585572 71429.6 0 580878 68167.5 0 576404 64925.9 0 572147 61704 0 568107 58500.9 0 564282 55315.7 0 560671 52147.6 0 557273 48995.6 0 554087 45858.8 0 551111 42736.4 0 548345 39627.4 0 545787 36530.9 0 543437 33445.9 0 541294 30371.5 0 539357 27306.8 0 537626 24250.8 0 536100 21202.4 0 534779 18160.9 0 533661 15125.2 0 532748 12094.3 0 532037 9067.35 0 531530 6043.28 0 531226 3021.16 0 531124 0 0 1.69626e+06 -676596 0 1.72782e+06 -634901 0 1.76404e+06 -589210 0 1.80005e+06 -543009 0 1.83413e+06 -496490 0 1.86536e+06 -449657 0 1.89313e+06 -402676 0 1.91707e+06 -355758 0 1.93691e+06 -309203 0 1.95258e+06 -263331 0 1.96408e+06 -218481 0 1.97153e+06 -174966 0 1.97512e+06 -133071 0 1.97508e+06 -93030 0 1.97171e+06 -55027.9 0 1.96531e+06 -19195.7 0 1.95617e+06 14384.3 0 1.94461e+06 45674.6 0 1.9309e+06 74675.5 0 1.91533e+06 101418 0 1.89814e+06 125960 0 1.87956e+06 148375 0 1.85979e+06 168752 0 1.83904e+06 187191 0 1.81745e+06 203794 0 1.79518e+06 218671 0 1.77236e+06 231927 0 1.74911e+06 243671 0 1.72552e+06 254005 0 1.70168e+06 263030 0 1.67767e+06 270843 0 1.65357e+06 277535 0 1.62942e+06 283193 0 1.60528e+06 287900 0 1.5812e+06 291731 0 1.55721e+06 294760 0 1.53336e+06 297052 0 1.50966e+06 298671 0 1.48615e+06 299674 0 1.46284e+06 300116 0 1.43977e+06 300045 0 1.41694e+06 299510 0 1.39437e+06 298551 0 1.37207e+06 297209 0 1.35006e+06 295519 0 1.32833e+06 293516 0 1.30691e+06 291229 0 1.2858e+06 288687 0 1.265e+06 285916 0 1.24451e+06 282940 0 1.22435e+06 279781 0 1.20451e+06 276459 0 1.185e+06 272992 0 1.16581e+06 269397 0 1.14696e+06 265690 0 1.12843e+06 261884 0 1.11023e+06 257994 0 1.09236e+06 254030 0 1.07482e+06 250003 0 1.05761e+06 245924 0 1.04073e+06 241801 0 1.02417e+06 237643 0 1.00793e+06 233456 0 992015 229248 0 976421 225025 0 961144 220792 0 946183 216555 0 931534 212318 0 917197 208084 0 903167 203859 0 889443 199645 0 876021 195444 0 862900 191261 0 850075 187096 0 837546 182953 0 825308 178832 0 813358 174736 0 801695 170666 0 790315 166623 0 779216 162608 0 768393 158622 0 757846 154666 0 747571 150739 0 737565 146844 0 727825 142979 0 718349 139145 0 709135 135342 0 700179 131571 0 691479 127830 0 683033 124120 0 674838 120441 0 666891 116792 0 659191 113173 0 651735 109584 0 644520 106024 0 637545 102492 0 630807 98988.3 0 624304 95511.9 0 618035 92062.2 0 611997 88638.6 0 606188 85240.3 0 600606 81866.6 0 595250 78516.8 0 590119 75190.1 0 585209 71885.8 0 580520 68602.8 0 576051 65340.6 0 571799 62098.1 0 567763 58874.5 0 563943 55669 0 560336 52480.7 0 556942 49308.6 0 553759 46151.8 0 550786 43009.5 0 548023 39880.6 0 545468 36764.3 0 543121 33659.6 0 540980 30565.6 0 539045 27481.3 0 537316 24405.7 0 535792 21337.9 0 534472 18277 0 533356 15221.9 0 532443 12171.6 0 531733 9125.3 0 531227 6081.91 0 530923 3040.46 0 530822 0 0 1.70067e+06 -678358 0 1.73373e+06 -636675 0 1.77008e+06 -591048 0 1.80607e+06 -544724 0 1.84008e+06 -497951 0 1.8712e+06 -450805 0 1.89883e+06 -403465 0 1.92258e+06 -356170 0 1.94222e+06 -309231 0 1.95764e+06 -262986 0 1.96886e+06 -217780 0 1.97601e+06 -173936 0 1.97929e+06 -131742 0 1.97893e+06 -91436.8 0 1.97524e+06 -53203.7 0 1.96851e+06 -17173.8 0 1.95906e+06 16572.7 0 1.94719e+06 48000.7 0 1.93319e+06 77113.1 0 1.91733e+06 103944 0 1.89988e+06 128554 0 1.88105e+06 151019 0 1.86106e+06 171431 0 1.84009e+06 189892 0 1.81831e+06 206507 0 1.79586e+06 221385 0 1.77287e+06 234636 0 1.74947e+06 246367 0 1.72574e+06 256683 0 1.70178e+06 265687 0 1.67766e+06 273474 0 1.65345e+06 280138 0 1.62921e+06 285766 0 1.60499e+06 290440 0 1.58084e+06 294238 0 1.55678e+06 297231 0 1.53287e+06 299487 0 1.50912e+06 301069 0 1.48556e+06 302036 0 1.46222e+06 302440 0 1.43911e+06 302333 0 1.41625e+06 301760 0 1.39365e+06 300764 0 1.37133e+06 299385 0 1.3493e+06 297658 0 1.32756e+06 295617 0 1.30613e+06 293294 0 1.285e+06 290716 0 1.2642e+06 287909 0 1.24371e+06 284897 0 1.22354e+06 281702 0 1.2037e+06 278344 0 1.18419e+06 274842 0 1.165e+06 271213 0 1.14615e+06 267472 0 1.12763e+06 263632 0 1.10943e+06 259708 0 1.09157e+06 255711 0 1.07404e+06 251652 0 1.05684e+06 247540 0 1.03996e+06 243385 0 1.02341e+06 239195 0 1.00718e+06 234977 0 991276 230738 0 975691 226484 0 960425 222220 0 945474 217953 0 930836 213686 0 916510 209423 0 902491 205169 0 888778 200925 0 875367 196697 0 862257 192485 0 849444 188292 0 836925 184121 0 824698 179973 0 812760 175850 0 801108 171753 0 789738 167684 0 778649 163643 0 767838 159631 0 757300 155649 0 747035 151697 0 737039 147776 0 727309 143887 0 717843 140028 0 708638 136201 0 699692 132405 0 691001 128641 0 682563 124907 0 674377 121205 0 666438 117533 0 658746 113891 0 651298 110279 0 644091 106696 0 637123 103142 0 630392 99615.7 0 623897 96117.2 0 617634 92645.7 0 611602 89200.3 0 605800 85780.5 0 600224 82385.5 0 594875 79014.5 0 589748 75666.7 0 584844 72341.4 0 580161 69037.7 0 575696 65754.7 0 571449 62491.7 0 567418 59247.8 0 563601 56021.9 0 559998 52813.4 0 556608 49621.2 0 553428 46444.4 0 550459 43282.2 0 547699 40133.5 0 545147 36997.5 0 542802 33873.1 0 540664 30759.5 0 538731 27655.6 0 537004 24560.5 0 535482 21473.3 0 534163 18392.9 0 533048 15318.4 0 532136 12248.8 0 531428 9183.18 0 530921 6120.48 0 530618 3059.75 0 530517 0 0 1.70541e+06 -680249 0 1.73963e+06 -638482 0 1.77612e+06 -592891 0 1.8121e+06 -546425 0 1.84605e+06 -499394 0 1.87707e+06 -451927 0 1.90456e+06 -404224 0 1.92814e+06 -356547 0 1.94755e+06 -309222 0 1.96272e+06 -262600 0 1.97367e+06 -217037 0 1.98052e+06 -172863 0 1.98347e+06 -130371 0 1.98279e+06 -89801.5 0 1.97877e+06 -51338.7 0 1.97172e+06 -15112.7 0 1.96194e+06 18798.4 0 1.94977e+06 50361.9 0 1.93547e+06 79583.5 0 1.91934e+06 106501 0 1.90162e+06 131176 0 1.88255e+06 153689 0 1.86232e+06 174134 0 1.84114e+06 192615 0 1.81916e+06 209239 0 1.79653e+06 224117 0 1.77338e+06 237361 0 1.74983e+06 249078 0 1.72596e+06 259375 0 1.70187e+06 268356 0 1.67764e+06 276116 0 1.65333e+06 282751 0 1.629e+06 288347 0 1.6047e+06 292988 0 1.58047e+06 296750 0 1.55635e+06 299708 0 1.53238e+06 301928 0 1.50858e+06 303473 0 1.48497e+06 304402 0 1.46159e+06 304769 0 1.43844e+06 304624 0 1.41555e+06 304013 0 1.39293e+06 302979 0 1.37059e+06 301562 0 1.34854e+06 299798 0 1.32679e+06 297720 0 1.30534e+06 295360 0 1.28421e+06 292745 0 1.26339e+06 289901 0 1.2429e+06 286853 0 1.22273e+06 283623 0 1.20288e+06 280230 0 1.18337e+06 276693 0 1.16419e+06 273029 0 1.14534e+06 269253 0 1.12682e+06 265380 0 1.10863e+06 261422 0 1.09078e+06 257392 0 1.07325e+06 253300 0 1.05606e+06 249155 0 1.03919e+06 244968 0 1.02265e+06 240746 0 1.00643e+06 236496 0 990533 232226 0 974959 227941 0 959703 223647 0 944762 219350 0 930136 215053 0 915820 210761 0 901812 206477 0 888110 202205 0 874711 197948 0 861612 193707 0 848810 189487 0 836302 185288 0 824086 181113 0 812159 176963 0 800517 172840 0 789159 168744 0 778080 164676 0 767279 160639 0 756752 156631 0 746497 152654 0 736511 148708 0 726791 144793 0 717335 140910 0 708139 137059 0 699202 133239 0 690520 129451 0 682091 125694 0 673913 121968 0 665983 118272 0 658299 114608 0 650859 110973 0 643659 107367 0 636699 103791 0 629976 100242 0 623487 96721.8 0 617231 93228.4 0 611206 89761.4 0 605410 86320.1 0 599841 82903.7 0 594496 79511.5 0 589376 76142.7 0 584477 72796.5 0 579799 69472 0 575339 66168.4 0 571096 62884.9 0 567070 59620.5 0 563258 56374.5 0 559659 53145.7 0 556272 49933.5 0 553096 46736.7 0 550130 43554.6 0 547373 40386.1 0 544823 37230.3 0 542481 34086.3 0 540346 30953.1 0 538415 27829.7 0 536690 24715.1 0 535169 21608.5 0 533852 18508.7 0 532738 15414.8 0 531828 12325.9 0 531120 9241 0 530614 6159.02 0 530311 3079.01 0 530210 0 0 1.71039e+06 -682235 0 1.74553e+06 -640325 0 1.78218e+06 -594738 0 1.81816e+06 -548114 0 1.85205e+06 -500818 0 1.88297e+06 -453024 0 1.91033e+06 -404953 0 1.93372e+06 -356889 0 1.95292e+06 -309175 0 1.96784e+06 -262174 0 1.9785e+06 -216252 0 1.98505e+06 -171747 0 1.98768e+06 -128957 0 1.98667e+06 -88123.8 0 1.98231e+06 -49432.6 0 1.97493e+06 -13012.1 0 1.96484e+06 21061.5 0 1.95235e+06 52758.3 0 1.93776e+06 82086.9 0 1.92134e+06 109088 0 1.90336e+06 133826 0 1.88403e+06 156385 0 1.86358e+06 176861 0 1.84219e+06 195360 0 1.82001e+06 211991 0 1.7972e+06 226868 0 1.77388e+06 240102 0 1.75018e+06 251804 0 1.72617e+06 262081 0 1.70196e+06 271036 0 1.67762e+06 278769 0 1.65321e+06 285373 0 1.62878e+06 290937 0 1.6044e+06 295543 0 1.58009e+06 299270 0 1.55591e+06 302191 0 1.53188e+06 304374 0 1.50803e+06 305881 0 1.48438e+06 306772 0 1.46095e+06 307100 0 1.43777e+06 306917 0 1.41485e+06 306268 0 1.39221e+06 305196 0 1.36984e+06 303741 0 1.34777e+06 301939 0 1.326e+06 299824 0 1.30455e+06 297426 0 1.2834e+06 294774 0 1.26258e+06 291894 0 1.24208e+06 288810 0 1.22191e+06 285544 0 1.20207e+06 282115 0 1.18255e+06 278543 0 1.16337e+06 274844 0 1.14453e+06 271034 0 1.12601e+06 267127 0 1.10783e+06 263135 0 1.08998e+06 259071 0 1.07246e+06 254946 0 1.05527e+06 250769 0 1.03841e+06 246550 0 1.02188e+06 242296 0 1.00567e+06 238014 0 989787 233713 0 974223 229397 0 958977 225073 0 944048 220745 0 929432 216419 0 915127 212097 0 901130 207784 0 887439 203483 0 874051 199197 0 860963 194929 0 848172 190681 0 835676 186454 0 823471 182252 0 811555 178075 0 799924 173925 0 788576 169802 0 777509 165709 0 766718 161645 0 756202 157612 0 745957 153610 0 735981 149639 0 726270 145699 0 716824 141792 0 707637 137916 0 698709 134072 0 690036 130260 0 681617 126479 0 673447 122730 0 665526 119011 0 657850 115323 0 650417 111666 0 643226 108038 0 636273 104439 0 629557 100868 0 623075 97325.8 0 616826 93810.5 0 610807 90321.9 0 605018 86859.1 0 599454 83421.4 0 594116 80008 0 589001 76618.2 0 584108 73251 0 579435 69905.8 0 574980 66581.7 0 570742 63277.6 0 566720 59992.9 0 562912 56726.6 0 559317 53477.7 0 555934 50245.4 0 552761 47028.7 0 549799 43826.7 0 547045 40638.4 0 544498 37462.9 0 542159 34299.3 0 540025 31146.5 0 538097 28003.6 0 536374 24869.5 0 534855 21743.5 0 533539 18624.3 0 532426 15511.2 0 531517 12403 0 530810 9298.74 0 530305 6197.5 0 530002 3098.25 0 529901 0 0 1.71555e+06 -684291 0 1.75143e+06 -642203 0 1.78825e+06 -596588 0 1.82424e+06 -549791 0 1.85809e+06 -502223 0 1.88891e+06 -454096 0 1.91613e+06 -405652 0 1.93934e+06 -357197 0 1.95832e+06 -309089 0 1.97298e+06 -261706 0 1.98336e+06 -215424 0 1.98959e+06 -170588 0 1.9919e+06 -127500 0 1.99056e+06 -86403.5 0 1.98587e+06 -47485.1 0 1.97815e+06 -10871.8 0 1.96773e+06 23362.3 0 1.95493e+06 55190.1 0 1.94004e+06 84623.4 0 1.92334e+06 111706 0 1.90509e+06 136505 0 1.88552e+06 159107 0 1.86484e+06 179612 0 1.84323e+06 198127 0 1.82085e+06 214763 0 1.79786e+06 229636 0 1.77438e+06 242859 0 1.75052e+06 254544 0 1.72638e+06 264799 0 1.70204e+06 273729 0 1.67759e+06 281433 0 1.65307e+06 288005 0 1.62856e+06 293535 0 1.60409e+06 298106 0 1.57971e+06 301796 0 1.55546e+06 304680 0 1.53137e+06 306825 0 1.50747e+06 308294 0 1.48378e+06 309146 0 1.46031e+06 309436 0 1.4371e+06 309213 0 1.41415e+06 308525 0 1.39147e+06 307415 0 1.36909e+06 305922 0 1.347e+06 304082 0 1.32522e+06 301928 0 1.30375e+06 299493 0 1.2826e+06 296804 0 1.26177e+06 293887 0 1.24126e+06 290767 0 1.22109e+06 287464 0 1.20124e+06 284000 0 1.18173e+06 280393 0 1.16255e+06 276659 0 1.14371e+06 272814 0 1.1252e+06 268873 0 1.10702e+06 264847 0 1.08918e+06 260750 0 1.07167e+06 256592 0 1.05449e+06 252382 0 1.03764e+06 248130 0 1.02111e+06 243844 0 1.00491e+06 239532 0 989038 235199 0 973484 230853 0 958249 226498 0 943330 222140 0 928725 217783 0 914431 213432 0 900445 209090 0 886766 204760 0 873389 200446 0 860312 196149 0 847533 191873 0 835047 187619 0 822853 183390 0 810948 179186 0 799328 175009 0 787991 170860 0 776934 166740 0 766154 162651 0 755648 158592 0 745414 154564 0 735447 150568 0 725747 146604 0 716310 142672 0 707133 138772 0 698214 134904 0 689551 131068 0 681140 127263 0 672979 123491 0 665066 119749 0 657398 116038 0 649973 112358 0 642790 108707 0 635844 105086 0 629135 101493 0 622661 97929 0 616419 94391.9 0 610407 90881.6 0 604623 87397.4 0 599066 83938.4 0 593734 80503.9 0 588624 77093 0 583737 73705.1 0 579068 70339.1 0 574618 66994.4 0 570385 63669.9 0 566368 60364.8 0 562564 57078.2 0 558973 53809.2 0 555594 50556.9 0 552425 47320.3 0 549465 44098.4 0 546714 40890.4 0 544171 37695.2 0 541834 34512 0 539703 31339.6 0 537777 28177.2 0 536056 25023.8 0 534538 21878.3 0 533224 18739.9 0 532113 15607.4 0 531204 12479.9 0 530498 9356.42 0 529993 6235.95 0 529691 3117.47 0 529590 0 0 1.72084e+06 -686401 0 1.75735e+06 -644114 0 1.79434e+06 -598441 0 1.83035e+06 -551457 0 1.86415e+06 -503610 0 1.89488e+06 -455143 0 1.92196e+06 -406320 0 1.94499e+06 -357470 0 1.96375e+06 -308965 0 1.97815e+06 -261198 0 1.98824e+06 -214553 0 1.99416e+06 -169385 0 1.99614e+06 -125998 0 1.99446e+06 -84640 0 1.98943e+06 -45495.8 0 1.98138e+06 -8691.62 0 1.97064e+06 25700.9 0 1.95752e+06 57657.5 0 1.94233e+06 87193 0 1.92534e+06 114354 0 1.90682e+06 139212 0 1.887e+06 161856 0 1.86609e+06 182387 0 1.84426e+06 200915 0 1.82169e+06 217555 0 1.79852e+06 232422 0 1.77487e+06 245633 0 1.75086e+06 257299 0 1.72658e+06 267531 0 1.70212e+06 276433 0 1.67755e+06 284107 0 1.65293e+06 290646 0 1.62833e+06 296141 0 1.60378e+06 300676 0 1.57933e+06 304329 0 1.55501e+06 307175 0 1.53086e+06 309281 0 1.50691e+06 310711 0 1.48317e+06 311524 0 1.45967e+06 311774 0 1.43642e+06 311512 0 1.41344e+06 310785 0 1.39074e+06 309636 0 1.36833e+06 308104 0 1.34623e+06 306225 0 1.32443e+06 304034 0 1.30295e+06 301561 0 1.28179e+06 298835 0 1.26095e+06 295881 0 1.24044e+06 292724 0 1.22026e+06 289385 0 1.20042e+06 285885 0 1.18091e+06 282242 0 1.16173e+06 278473 0 1.14289e+06 274594 0 1.12438e+06 270618 0 1.10621e+06 266559 0 1.08838e+06 262428 0 1.07087e+06 258237 0 1.0537e+06 253994 0 1.03686e+06 249710 0 1.02034e+06 245392 0 1.00415e+06 241048 0 988286 236684 0 972742 232306 0 957518 227921 0 942609 223533 0 928015 219147 0 913732 214766 0 899758 210395 0 886089 206036 0 872724 201693 0 859658 197369 0 846890 193064 0 834416 188783 0 822233 184526 0 810339 180295 0 798730 176091 0 787404 171916 0 776357 167771 0 765588 163655 0 755092 159571 0 744868 155518 0 734912 151497 0 725221 147508 0 715794 143551 0 706627 139627 0 697717 135735 0 689062 131875 0 680660 128047 0 672508 124251 0 664604 120486 0 656944 116752 0 649527 113049 0 642351 109376 0 635414 105733 0 628712 102118 0 622245 98531.5 0 616009 94972.7 0 610004 91440.8 0 604226 87935.1 0 598675 84454.8 0 593349 80999.2 0 588245 77567.4 0 583363 74158.6 0 578700 70771.9 0 574255 67406.6 0 570027 64061.7 0 566013 60736.3 0 562214 57429.5 0 558627 54140.4 0 555251 50868 0 552086 47611.5 0 549130 44369.9 0 546382 41142.1 0 543841 37927.3 0 541507 34724.4 0 539379 31532.6 0 537455 28350.7 0 535735 25177.9 0 534219 22013 0 532907 18855.2 0 531797 15703.5 0 530889 12556.7 0 530184 9414.03 0 529680 6274.34 0 529377 3136.67 0 529277 0 0 1.72624e+06 -688555 0 1.76329e+06 -646054 0 1.80044e+06 -600296 0 1.83648e+06 -553113 0 1.87024e+06 -504979 0 1.90088e+06 -456164 0 1.92783e+06 -406958 0 1.95068e+06 -357708 0 1.96921e+06 -308802 0 1.98335e+06 -260647 0 1.99315e+06 -213639 0 1.99875e+06 -168137 0 2.0004e+06 -124452 0 1.99838e+06 -82833.1 0 1.99301e+06 -43464.5 0 1.98462e+06 -6471.21 0 1.97354e+06 28077.6 0 1.9601e+06 60160.6 0 1.94461e+06 89796 0 1.92734e+06 117034 0 1.90855e+06 141948 0 1.88848e+06 164630 0 1.86733e+06 185185 0 1.84529e+06 203725 0 1.82252e+06 220366 0 1.79917e+06 235227 0 1.77535e+06 248423 0 1.75119e+06 260069 0 1.72677e+06 270276 0 1.70219e+06 279150 0 1.67751e+06 286791 0 1.65279e+06 293297 0 1.62809e+06 298756 0 1.60346e+06 303254 0 1.57894e+06 306869 0 1.55456e+06 309675 0 1.53035e+06 311742 0 1.50634e+06 313132 0 1.48256e+06 313905 0 1.45902e+06 314116 0 1.43573e+06 313814 0 1.41272e+06 313048 0 1.39e+06 311859 0 1.36757e+06 310288 0 1.34545e+06 308371 0 1.32364e+06 306141 0 1.30214e+06 303630 0 1.28097e+06 300866 0 1.26013e+06 297875 0 1.23961e+06 294681 0 1.21943e+06 291305 0 1.19959e+06 287769 0 1.18008e+06 284091 0 1.1609e+06 280287 0 1.14207e+06 276372 0 1.12357e+06 272362 0 1.1054e+06 268269 0 1.08757e+06 264105 0 1.07007e+06 259880 0 1.05291e+06 255605 0 1.03607e+06 251289 0 1.01957e+06 246939 0 1.00339e+06 242563 0 987531 238167 0 971997 233759 0 956783 229343 0 941886 224925 0 927302 220509 0 913030 216099 0 899067 211698 0 885410 207311 0 872056 202939 0 859001 198586 0 846244 194254 0 833782 189945 0 821610 185661 0 809727 181403 0 798129 177173 0 786814 172971 0 775778 168800 0 765019 164658 0 754534 160548 0 744320 156470 0 734374 152424 0 724693 148410 0 715275 144429 0 706118 140481 0 697217 136565 0 688572 132681 0 680179 128830 0 672035 125010 0 664139 121222 0 656488 117466 0 649079 113740 0 641911 110044 0 634980 106378 0 628286 102742 0 621826 99133.2 0 615597 95552.7 0 609598 91999.2 0 603828 88472.1 0 598283 84970.6 0 592962 81493.9 0 587864 78041.1 0 582987 74611.5 0 578329 71204.2 0 573889 67818.3 0 569666 64453 0 565657 61107.3 0 561862 57780.3 0 558279 54471.2 0 554907 51178.8 0 551745 47902.4 0 548793 44641 0 546048 41393.5 0 543510 38159 0 541178 34936.6 0 539052 31725.3 0 537131 28524 0 535413 25331.7 0 533899 22147.6 0 532588 18970.5 0 531479 15799.5 0 530572 12633.5 0 529868 9471.58 0 529364 6312.7 0 529062 3155.84 0 528962 0 0 1.73173e+06 -690744 0 1.76925e+06 -648023 0 1.80656e+06 -602154 0 1.84264e+06 -554759 0 1.87637e+06 -506329 0 1.90692e+06 -457160 0 1.93373e+06 -407565 0 1.9564e+06 -357910 0 1.97471e+06 -308600 0 1.98858e+06 -260054 0 1.99808e+06 -212680 0 2.00337e+06 -166845 0 2.00468e+06 -122862 0 2.00231e+06 -80982.4 0 1.99659e+06 -41390.9 0 1.98786e+06 -4210.35 0 1.97645e+06 30492.6 0 1.96269e+06 62699.7 0 1.94689e+06 92432.4 0 1.92933e+06 119744 0 1.91028e+06 144712 0 1.88995e+06 167431 0 1.86857e+06 188008 0 1.84631e+06 206557 0 1.82334e+06 223198 0 1.79981e+06 238049 0 1.77583e+06 251229 0 1.75151e+06 262853 0 1.72696e+06 273034 0 1.70225e+06 281878 0 1.67746e+06 289487 0 1.65264e+06 295957 0 1.62785e+06 301379 0 1.60313e+06 305839 0 1.57854e+06 309415 0 1.55409e+06 312182 0 1.52983e+06 314208 0 1.50577e+06 315558 0 1.48194e+06 316291 0 1.45836e+06 316461 0 1.43504e+06 316119 0 1.412e+06 315313 0 1.38925e+06 314084 0 1.3668e+06 312473 0 1.34466e+06 310517 0 1.32284e+06 308249 0 1.30133e+06 305699 0 1.28015e+06 302897 0 1.2593e+06 299869 0 1.23878e+06 296638 0 1.2186e+06 293226 0 1.19875e+06 289654 0 1.17924e+06 285939 0 1.16007e+06 282100 0 1.14124e+06 278151 0 1.12274e+06 274106 0 1.10458e+06 269979 0 1.08676e+06 265781 0 1.06927e+06 261523 0 1.05211e+06 257215 0 1.03529e+06 252866 0 1.01879e+06 248484 0 1.00262e+06 244076 0 986773 239650 0 971249 235211 0 956045 230764 0 941159 226316 0 926586 221870 0 912326 217430 0 898374 213000 0 884728 208584 0 871385 204184 0 858342 199803 0 845596 195443 0 833145 191107 0 820984 186795 0 809112 182510 0 797525 178253 0 786221 174025 0 775196 169828 0 764448 165661 0 753973 161525 0 743769 157422 0 733833 153351 0 724163 149312 0 714754 145306 0 705606 141334 0 696715 137394 0 688079 133486 0 679694 129611 0 671560 125769 0 663672 121958 0 656029 118178 0 648628 114430 0 641468 110712 0 634545 107023 0 627858 103365 0 621405 99734.3 0 615183 96132 0 609191 92557 0 603426 89008.5 0 597888 85485.8 0 592573 81988 0 587481 78514.3 0 582609 75063.9 0 577957 71636 0 573522 68229.6 0 569303 64843.9 0 565298 61477.9 0 561508 58130.8 0 557929 54801.5 0 554561 51489.3 0 551403 48193 0 548453 44911.8 0 545711 41644.6 0 543176 38390.5 0 540847 35148.6 0 538724 31917.7 0 536804 28697 0 535089 25485.4 0 533576 22282 0 532267 19085.6 0 531159 15895.3 0 530253 12710.2 0 529549 9529.05 0 529047 6351 0 528745 3174.99 0 528645 0 0 1.73729e+06 -692964 0 1.77523e+06 -650016 0 1.81271e+06 -604014 0 1.84883e+06 -556395 0 1.88252e+06 -507660 0 1.913e+06 -458131 0 1.93967e+06 -408141 0 1.96215e+06 -358076 0 1.98023e+06 -308357 0 1.99384e+06 -259419 0 2.00304e+06 -211677 0 2.008e+06 -165507 0 2.00897e+06 -121227 0 2.00625e+06 -79087.6 0 2.00018e+06 -39274.6 0 1.9911e+06 -1908.79 0 1.97936e+06 32946 0 1.96528e+06 65274.7 0 1.94917e+06 95102.3 0 1.93133e+06 122485 0 1.912e+06 147504 0 1.89142e+06 170257 0 1.8698e+06 190854 0 1.84733e+06 209411 0 1.82416e+06 226049 0 1.80044e+06 240889 0 1.7763e+06 254051 0 1.75183e+06 265652 0 1.72714e+06 275805 0 1.70231e+06 284617 0 1.6774e+06 292192 0 1.65248e+06 298626 0 1.6276e+06 304011 0 1.6028e+06 308432 0 1.57813e+06 311968 0 1.55362e+06 314694 0 1.5293e+06 316680 0 1.50519e+06 317988 0 1.48132e+06 318680 0 1.4577e+06 318809 0 1.43435e+06 318427 0 1.41128e+06 317580 0 1.3885e+06 316311 0 1.36603e+06 314661 0 1.34387e+06 312665 0 1.32203e+06 310357 0 1.30052e+06 307769 0 1.27