<?xml version="1.0"?> 
<VTKFile type="StructuredGrid" version="0.1"> 
<StructuredGrid WholeExtent="0 127 0 127 0 0"> 
<Piece Extent="0 127 0 127 0 0"> 
<PointData>
<DataArray type="Float32" Name="|E|" format="ascii" NumberOfComponents="3"> 
2034.47 -4.76837e-05 0 406.567 -418.316 0 194.327 -467.598 0 131.264 -347.326 0 56.5469 -338.827 0 24.2788 -285.485 0 -10.8206 -265.751 0 -30.1763 -232.613 0 -48.4685 -212.18 0 -59.928 -188.354 0 -69.576 -170.021 0 -75.8425 -151.575 0 -80.5324 -135.952 0 -83.3537 -121.174 0 -85.0162 -108.148 0 -85.5682 -96.1449 0 -85.3306 -85.3984 0 -84.4125 -75.61 0 -82.9838 -66.7994 0 -81.1416 -58.8203 0 -78.9881 -51.6317 0 -76.5965 -45.1443 0 -74.0327 -39.3055 0 -71.3485 -34.0512 0 -68.5881 -29.3314 0 -65.7871 -25.0959 0 -62.9751 -21.3011 0 -60.176 -17.9058 0 -57.4093 -14.8733 0 -54.6906 -12.1695 0 -52.0322 -9.7635 0 -49.4438 -7.62702 0 -46.9328 -5.73431 0 -44.5047 -4.06185 0 -42.1632 -2.58824 0 -39.9108 -1.294 0 -37.749 -0.161345 0 -35.6781 0.82585 0 -33.6978 1.68226 0 -31.8071 2.42123 0 -30.0047 3.05486 0 -28.2885 3.59415 0 -26.6565 4.04906 0 -25.1062 4.42862 0 -23.6349 4.74101 0 -22.2399 4.99363 0 -20.9184 5.19315 0 -19.6674 5.34563 0 -18.4841 5.45651 0 -17.3655 5.53074 0 -16.3087 5.57272 0 -15.3109 5.58647 0 -14.3693 5.57555 0 -13.4812 5.54322 0 -12.644 5.49234 0 -11.855 5.42553 0 -11.1119 5.34509 0 -10.4121 5.25313 0 -9.75353 5.15148 0 -9.13386 5.0418 0 -8.55103 4.92557 0 -8.00302 4.80408 0 -7.48791 4.67851 0 -7.00388 4.54987 0 -6.54918 4.41907 0 -6.12215 4.2869 0 -5.72122 4.15407 0 -5.3449 4.02118 0 -4.99177 3.88878 0 -4.6605 3.75731 0 -4.34979 3.62719 0 -4.05847 3.49873 0 -3.78538 3.37225 0 -3.52946 3.24797 0 -3.28968 3.12611 0 -3.06509 3.00684 0 -2.85479 2.89028 0 -2.6579 2.77656 0 -2.47363 2.66574 0 -2.30122 2.55789 0 -2.13996 2.45304 0 -1.98915 2.35123 0 -1.84818 2.25243 0 -1.71642 2.15668 0 -1.59333 2.06393 0 -1.47837 1.97417 0 -1.37104 1.88733 0 -1.27086 1.8034 0 -1.17739 1.72231 0 -1.09022 1.64401 0 -1.00894 1.56842 0 -0.933188 1.49549 0 -0.862619 1.42515 0 -0.796897 1.35732 0 -0.735723 1.29193 0 -0.678797 1.2289 0 -0.625851 1.16815 0 -0.57663 1.10961 0 -0.530879 1.0532 0 -0.488388 0.998822 0 -0.44893 0.94642 0 -0.412305 0.895898 0 -0.378328 0.847192 0 -0.346816 0.800209 0 -0.317598 0.75488 0 -0.290523 0.711126 0 -0.265428 0.668863 0 -0.242182 0.628021 0 -0.220647 0.588533 0 -0.200695 0.550307 0 -0.182208 0.513283 0 -0.165076 0.477379 0 -0.149181 0.442538 0 -0.134432 0.408669 0 -0.120728 0.375722 0 -0.107973 0.343616 0 -0.0960819 0.312283 0 -0.0849671 0.281662 0 -0.0745509 0.251681 0 -0.0647519 0.222278 0 -0.0554956 0.193386 0 -0.0467111 0.164932 0 -0.0383257 0.136867 0 -0.0302657 0.109111 0 -0.0224766 0.0816146 0 -0.014872 0.0543038 0 -0.00740528 0.0271218 0 -9.53674e-07 0 0 1280.27 -9.0729e-06 0 421.78 -456.091 0 230.115 -411.281 0 130.678 -355.181 0 72.3729 -321.573 0 27.495 -286.65 0 -1.98163 -258.809 0 -26.1082 -232.42 0 -42.6816 -209.319 0 -56.0841 -188.118 0 -65.3737 -169.006 0 -72.5313 -151.629 0 -77.2999 -135.848 0 -80.6049 -121.533 0 -82.4609 -108.525 0 -83.3247 -96.7365 0 -83.2894 -86.0389 0 -82.5987 -76.3532 0 -81.3506 -67.5808 0 -79.6859 -59.6491 0 -77.6855 -52.4802 0 -75.4367 -46.0097 0 -73.0001 -40.1743 0 -70.4325 -34.9186 0 -67.7769 -30.1901 0 -65.0712 -25.9418 0 -62.3452 -22.13 0 -59.624 -18.715 0 -56.9276 -15.6602 0 -54.2723 -12.9325 0 -51.6712 -10.5012 0 -49.1344 -8.33858 0 -46.6698 -6.41916 0 -44.2833 -4.71973 0 -41.9792 -3.21912 0 -39.7603 -1.89802 0 -37.6284 -0.738841 0 -35.5842 0.274437 0 -33.6277 1.15638 0 -31.7582 1.92025 0 -29.9745 2.57809 0 -28.2748 3.14085 0 -26.6574 3.61843 0 -25.1198 4.01987 0 -23.6596 4.35331 0 -22.2743 4.62614 0 -20.9612 4.84506 0 -19.7174 5.01612 0 -18.5401 5.14477 0 -17.4267 5.23596 0 -16.3742 5.29414 0 -15.3799 5.32331 0 -14.4412 5.32709 0 -13.5553 5.30872 0 -12.7198 5.27114 0 -11.932 5.21694 0 -11.1896 5.14849 0 -10.4903 5.06789 0 -9.83177 4.97702 0 -9.21187 4.87754 0 -8.62856 4.77098 0 -8.07984 4.65864 0 -7.56383 4.54172 0 -7.07873 4.42127 0 -6.62283 4.2982 0 -6.19447 4.17335 0 -5.79212 4.04743 0 -5.41429 3.92107 0 -5.05959 3.79482 0 -4.72669 3.66916 0 -4.41433 3.54452 0 -4.12131 3.42123 0 -3.84651 3.29963 0 -3.58886 3.17995 0 -3.34736 3.06243 0 -3.12104 2.94723 0 -2.90902 2.83452 0 -2.71044 2.72442 0 -2.52449 2.61701 0 -2.35043 2.51236 0 -2.18753 2.41054 0 -2.03512 2.31156 0 -1.89257 2.21545 0 -1.75929 2.1222 0 -1.6347 2.03182 0 -1.51827 1.94427 0 -1.40951 1.85953 0 -1.30795 1.77756 0 -1.21313 1.69831 0 -1.12465 1.62173 0 -1.0421 1.54777 0 -0.965127 1.47637 0 -0.893371 1.40745 0 -0.826505 1.34096 0 -0.764224 1.27682 0 -0.706235 1.21497 0 -0.652264 1.15533 0 -0.602056 1.09782 0 -0.555362 1.04237 0 -0.511962 0.988902 0 -0.471635 0.937346 0 -0.434179 0.887619 0 -0.399409 0.839646 0 -0.36714 0.793356 0 -0.337203 0.748669 0 -0.309441 0.705512 0 -0.283699 0.663812 0 -0.259838 0.623491 0 -0.237725 0.584479 0 -0.217228 0.546704 0 -0.19823 0.510093 0 -0.180619 0.474576 0 -0.164282 0.440084 0 -0.14912 0.406545 0 -0.135036 0.373892 0 -0.121936 0.342059 0 -0.109729 0.310977 0 -0.0983334 0.28058 0 -0.0876669 0.250801 0 -0.0776504 0.221577 0 -0.0682086 0.19284 0 -0.0592697 0.164528 0 -0.0507623 0.136577 0 -0.0426151 0.108922 0 -0.0347661 0.0815 0 -0.0271415 0.0542491 0 -0.0196825 0.0271022 0 -0.0123212 3.46379e-06 0 918.743 9.01558e-06 0 440.678 -422.979 0 246.159 -382.138 0 140.37 -348.051 0 80.9767 -311.802 0 34.6221 -282.78 0 4.08956 -254.51 0 -20.5839 -230.286 0 -37.9639 -207.38 0 -51.7177 -187.102 0 -61.584 -168.277 0 -69.0411 -151.351 0 -74.2259 -135.804 0 -77.7976 -121.734 0 -79.9649 -108.887 0 -81.0614 -97.2396 0 -81.2679 -86.6441 0 -80.7757 -77.0391 0 -79.7203 -68.3256 0 -78.2224 -60.4365 0 -76.3783 -53.2963 0 -74.2683 -46.8432 0 -71.9595 -41.0159 0 -69.5066 -35.7607 0 -66.9558 -31.0266 0 -64.3447 -26.7676 0 -61.7047 -22.9411 0 -59.0611 -19.5081 0 -56.435 -16.4329 0 -53.8432 -13.6828 0 -51.2994 -11.2276 0 -48.8144 -9.04017 0 -46.3964 -7.09522 0 -44.0518 -5.36988 0 -41.7853 -3.84323 0 -39.6002 -2.49615 0 -37.4986 -1.31123 0 -35.4814 -0.27258 0 -33.549 0.634258 0 -31.7009 1.42245 0 -29.9362 2.10397 0 -28.2534 2.68971 0 -26.6508 3.18956 0 -25.1263 3.61248 0 -23.6776 3.96663 0 -22.3023 4.25939 0 -20.9978 4.49744 0 -19.7614 4.68683 0 -18.5906 4.83304 0 -17.4826 4.94101 0 -16.4347 5.01521 0 -15.4442 5.05967 0 -14.5085 5.07802 0 -13.6251 5.07352 0 -12.7915 5.04913 0 -12.0051 5.00748 0 -11.2637 4.95094 0 -10.565 4.88164 0 -9.90671 4.80149 0 -9.28676 4.71219 0 -8.70313 4.61526 0 -8.15387 4.51205 0 -7.63712 4.40378 0 -7.1511 4.29149 0 -6.69413 4.17617 0 -6.26458 4.05863 0 -5.86093 3.93962 0 -5.48172 3.81979 0 -5.12556 3.69971 0 -4.79114 3.57988 0 -4.47721 3.46073 0 -4.1826 3.34264 0 -3.90618 3.22592 0 -3.64689 3.11086 0 -3.40374 2.99769 0 -3.17578 2.8866 0 -2.96212 2.77776 0 -2.7619 2.6713 0 -2.57434 2.56732 0 -2.39868 2.46591 0 -2.23421 2.36713 0 -2.08025 2.27102 0 -1.93619 2.1776 0 -1.80142 2.0869 0 -1.67537 1.9989 0 -1.55753 1.9136 0 -1.44738 1.83097 0 -1.34447 1.75098 0 -1.24834 1.6736 0 -1.15859 1.59877 0 -1.07481 1.52646 0 -0.996634 1.4566 0 -0.923721 1.38914 0 -0.855737 1.32401 0 -0.792377 1.26115 0 -0.733345 1.2005 0 -0.678373 1.14198 0 -0.627199 1.08552 0 -0.579581 1.03106 0 -0.53529 0.978519 0 -0.494112 0.927828 0 -0.455843 0.878911 0 -0.420293 0.831697 0 -0.387281 0.786114 0 -0.356638 0.742089 0 -0.328203 0.699549 0 -0.301825 0.658424 0 -0.277361 0.61864 0 -0.254678 0.580127 0 -0.233646 0.542817 0 -0.214147 0.506636 0 -0.196065 0.47152 0 -0.179293 0.437395 0 -0.163727 0.404198 0 -0.149271 0.37186 0 -0.135831 0.340315 0 -0.123316 0.309497 0 -0.111645 0.279339 0 -0.100733 0.249778 0 -0.0905044 0.220747 0 -0.0808817 0.192186 0 -0.0717938 0.164027 0 -0.0631693 0.136208 0 -0.0549386 0.108666 0 -0.0470361 0.081337 0 -0.0393938 0.0541594 0 -0.0319486 0.0270677 0 -0.0246362 -3.37347e-06 0 730.643 -5.53637e-06 0 449.537 -370.4 0 256.333 -360.353 0 151.139 -336.012 0 88.032 -303.9 0 42.0128 -277.308 0 9.67201 -250.75 0 -15.0623 -227.534 0 -33.4114 -205.551 0 -47.4048 -185.816 0 -57.8556 -167.525 0 -65.596 -150.932 0 -71.1771 -135.703 0 -75.0177 -121.847 0 -77.4793 -109.192 0 -78.8112 -97.68 0 -79.2488 -87.1994 0 -78.956 -77.6769 0 -78.0875 -69.0288 0 -76.7562 -61.1855 0 -75.0651 -54.0784 0 -73.0934 -47.6458 0 -70.9106 -41.83 0 -68.5721 -36.578 0 -66.1252 -31.8408 0 -63.6084 -27.5734 0 -61.0538 -23.7342 0 -58.4877 -20.2851 0 -55.9318 -17.1912 0 -53.4036 -14.4202 0 -50.9172 -11.9427 0 -48.484 -9.73162 0 -46.1128 -7.76232 0 -43.8103 -6.01214 0 -41.5817 -4.4604 0 -39.4307 -3.08822 0 -37.3595 -1.87835 0 -35.3697 -0.815042 0 -33.4616 0.116039 0 -31.6353 0.927969 0 -29.89 1.63265 0 -28.2244 2.2409 0 -26.6369 2.76257 0 -25.1258 3.2066 0 -23.6888 3.58112 0 -22.3238 3.89349 0 -21.0282 4.15039 0 -19.7997 4.35788 0 -18.6355 4.52142 0 -17.5332 4.64599 0 -16.4901 4.73605 0 -15.5036 4.79564 0 -14.5713 4.82843 0 -13.6906 4.83769 0 -12.8591 4.82639 0 -12.0744 4.7972 0 -11.3342 4.7525 0 -10.6362 4.69446 0 -9.97835 4.62498 0 -9.35853 4.54581 0 -8.77475 4.45849 0 -8.2251 4.36438 0 -7.70776 4.26472 0 -7.22097 4.16061 0 -6.76307 4.05301 0 -6.33247 3.94278 0 -5.92764 3.83068 0 -5.54716 3.71739 0 -5.18966 3.60348 0 -4.85383 3.48949 0 -4.53844 3.37585 0 -4.24232 3.26296 0 -3.96437 3.15116 0 -3.70353 3.04073 0 -3.45881 2.93194 0 -3.22928 2.82497 0 -3.01405 2.72002 0 -2.81228 2.61723 0 -2.62316 2.51671 0 -2.44597 2.41855 0 -2.27998 2.32284 0 -2.12454 2.22962 0 -1.97901 2.13893 0 -1.8428 2.05078 0 -1.71534 1.9652 0 -1.59612 1.88216 0 -1.48463 1.80167 0 -1.38041 1.72369 0 -1.28301 1.64819 0 -1.19202 1.57515 0 -1.10703 1.5045 0 -1.0277 1.43621 0 -0.953654 1.37022 0 -0.88458 1.30648 0 -0.820165 1.24492 0 -0.760118 1.18549 0 -0.704164 1.12811 0 -0.652048 1.07273 0 -0.603523 1.01928 0 -0.558363 0.967678 0 -0.516351 0.91787 0 -0.477283 0.869783 0 -0.44097 0.823345 0 -0.40723 0.778488 0 -0.375893 0.735142 0 -0.3468 0.693237 0 -0.319796 0.652705 0 -0.294741 0.613474 0 -0.271499 0.575478 0 -0.249943 0.538647 0 -0.22995 0.502914 0 -0.211408 0.468212 0 -0.194207 0.434474 0 -0.178245 0.401633 0 -0.163424 0.369625 0 -0.14965 0.338384 0 -0.136835 0.307843 0 -0.124893 0.277941 0 -0.113743 0.248612 0 -0.103306 0.219793 0 -0.0935079 0.191419 0 -0.0842765 0.163429 0 -0.0755392 0.135758 0 -0.067229 0.108345 0 -0.0592784 0.0811253 0 -0.051622 0.0540365 0 -0.044195 0.0270162 0 -0.0369355 2.26772e-06 0 621.438 2.02957e-06 0 447.702 -317.752 0 264.124 -339.437 0 160.607 -322.575 0 94.8359 -296.035 0 48.8592 -271.356 0 15.2064 -246.882 0 -9.81319 -224.567 0 -28.8845 -203.6 0 -43.2311 -184.404 0 -54.1494 -166.669 0 -62.2216 -150.424 0 -68.1455 -135.52 0 -72.2726 -121.889 0 -75.0042 -109.432 0 -76.5764 -98.0638 0 -77.2338 -87.7022 0 -77.1408 -78.2684 0 -76.4537 -69.6898 0 -75.288 -61.8969 0 -73.7472 -54.8262 0 -71.9127 -48.4177 0 -69.8545 -42.6162 0 -67.6295 -37.3703 0 -65.2857 -32.6325 0 -62.8627 -28.3589 0 -60.3932 -24.5091 0 -57.9044 -21.0459 0 -55.4186 -17.9349 0 -52.9538 -15.1446 0 -50.5249 -12.6461 0 -48.1436 -10.4128 0 -45.8193 -8.42029 0 -43.5591 -6.64633 0 -41.3686 -5.07048 0 -39.2519 -3.67407 0 -37.2115 -2.44004 0 -35.2492 -1.3528 0 -33.3659 -0.398119 0 -31.5616 0.436957 0 -29.8359 1.16426 0 -28.1877 1.79454 0 -26.6158 2.33761 0 -25.1183 2.80236 0 -23.6934 3.1969 0 -22.339 3.52857 0 -21.0527 3.80405 0 -19.8321 4.02938 0 -18.6749 4.21004 0 -17.5785 4.351 0 -16.5405 4.45674 0 -15.5583 4.53133 0 -14.6295 4.57842 0 -13.7518 4.60132 0 -12.9226 4.60302 0 -12.1397 4.58619 0 -11.4009 4.55326 0 -10.7039 4.5064 0 -10.0467 4.44755 0 -9.42715 4.37847 0 -8.8434 4.30071 0 -8.29352 4.21568 0 -7.77574 4.12462 0 -7.28833 4.02866 0 -6.82963 3.92877 0 -6.3981 3.82585 0 -5.99223 3.72067 0 -5.6106 3.61391 0 -5.25186 3.50619 0 -4.91473 3.39803 0 -4.59798 3.28992 0 -4.30045 3.18225 0 -4.02106 3.07537 0 -3.75876 2.9696 0 -3.51256 2.86519 0 -3.28154 2.76237 0 -3.06481 2.66133 0 -2.86154 2.56222 0 -2.67095 2.46518 0 -2.49228 2.37031 0 -2.32484 2.27768 0 -2.16796 2.18738 0 -2.02101 2.09943 0 -1.88341 2.01387 0 -1.7546 1.93072 0 -1.63404 1.84998 0 -1.52125 1.77164 0 -1.41576 1.6957 0 -1.31712 1.62211 0 -1.22492 1.55086 0 -1.13877 1.48191 0 -1.0583 1.41521 0 -0.98316 1.35071 0 -0.913022 1.28838 0 -0.847578 1.22814 0 -0.786539 1.16994 0 -0.729628 1.11373 0 -0.67659 1.05945 0 -0.627179 1.00702 0 -0.581168 0.956384 0 -0.53834 0.90748 0 -0.498491 0.860239 0 -0.461431 0.814596 0 -0.426977 0.770483 0 -0.394961 0.727833 0 -0.365221 0.68658 0 -0.337605 0.646657 0 -0.31197 0.607996 0 -0.28818 0.570532 0 -0.266108 0.534198 0 -0.245632 0.498928 0 -0.226638 0.464658 0 -0.209017 0.43132 0 -0.192667 0.398852 0 -0.177487 0.367189 0 -0.163388 0.336265 0 -0.150277 0.30602 0 -0.13807 0.276387 0 -0.126687 0.247306 0 -0.116049 0.218712 0 -0.10608 0.190543 0 -0.0967094 0.162735 0 -0.0878647 0.135229 0 -0.0794792 0.107959 0 -0.0714855 0.0808647 0 -0.0638185 0.0538817 0 -0.0564143 0.0269484 0 -0.0492085 -6.42512e-07 0 549.906 -4.91425e-07 0 437.959 -271.386 0 269.969 -317.922 0 168.449 -308.833 0 101.445 -287.746 0 55.1213 -265.23 0 20.6661 -242.763 0 -4.82215 -221.479 0 -24.4142 -201.486 0 -39.1809 -182.895 0 -50.486 -165.699 0 -58.9089 -149.834 0 -65.1426 -135.252 0 -69.5584 -121.864 0 -72.5456 -109.606 0 -74.3559 -98.3918 0 -75.2263 -88.1531 0 -75.3302 -78.8142 0 -74.8208 -70.3088 0 -73.8184 -62.5708 0 -72.4259 -55.54 0 -70.7269 -49.159 0 -68.792 -43.3748 0 -66.6795 -38.1376 0 -64.4381 -33.4016 0 -62.1082 -29.1242 0 -59.7234 -25.2659 0 -57.3116 -21.7903 0 -54.8956 -18.664 0 -52.4943 -15.856 0 -50.1228 -13.3378 0 -47.7935 -11.0835 0 -45.5161 -9.06899 0 -43.2985 -7.2723 0 -41.1463 -5.6733 0 -39.064 -4.25354 0 -37.0546 -2.99615 0 -35.1202 -1.88569 0 -33.2618 -0.908074 0 -31.4799 -0.0504394 0 -29.7741 0.698947 0 -28.1437 1.35078 0 -26.5875 1.91481 0 -25.104 2.39989 0 -23.6915 2.8141 0 -22.3478 3.16475 0 -21.071 3.45852 0 -19.8588 3.70144 0 -18.7088 3.899 0 -17.6186 4.05615 0 -16.5859 4.1774 0 -15.6082 4.26681 0 -14.6833 4.32807 0 -13.8086 4.36449 0 -12.982 4.37908 0 -12.2012 4.37453 0 -11.4639 4.35329 0 -10.7681 4.31755 0 -10.1117 4.26927 0 -9.49263 4.21022 0 -8.90906 4.14199 0 -8.35912 4.06601 0 -7.84105 3.98353 0 -7.35315 3.89569 0 -6.89381 3.80351 0 -6.46147 3.70789 0 -6.05468 3.60961 0 -5.67202 3.50939 0 -5.31216 3.40785 0 -4.97382 3.30555 0 -4.65581 3.20297 0 -4.35698 3.10052 0 -4.07624 2.99859 0 -3.81255 2.89748 0 -3.56496 2.79748 0 -3.33252 2.69883 0 -3.11437 2.60171 0 -2.90968 2.50631 0 -2.71767 2.41277 0 -2.53759 2.3212 0 -2.36875 2.23169 0 -2.21049 2.14431 0 -2.06218 2.05913 0 -1.92324 1.97618 0 -1.79312 1.89549 0 -1.67127 1.81706 0 -1.55722 1.7409 0 -1.4505 1.66701 0 -1.35066 1.59536 0 -1.25729 1.52593 0 -1.17001 1.45869 0 -1.08843 1.3936 0 -1.01222 1.33062 0 -0.941049 1.26971 0 -0.874604 1.21081 0 -0.812596 1.15388 0 -0.754752 1.09885 0 -0.700814 1.04568 0 -0.650538 0.994294 0 -0.603695 0.944642 0 -0.560069 0.896661 0 -0.519455 0.850285 0 -0.481664 0.805454 0 -0.446513 0.762101 0 -0.413831 0.720165 0 -0.383458 0.679581 0 -0.355242 0.640284 0 -0.329038 0.60221 0 -0.304711 0.565294 0 -0.282134 0.529472 0 -0.261184 0.494681 0 -0.241747 0.460857 0 -0.223715 0.427936 0 -0.206983 0.395855 0 -0.191454 0.364551 0 -0.177034 0.333963 0 -0.163635 0.304026 0 -0.15117 0.274679 0 -0.13956 0.245859 0 -0.128725 0.217506 0 -0.118591 0.189556 0 -0.109086 0.161948 0 -0.100139 0.13462 0 -0.0916819 0.10751 0 -0.0836493 0.0805557 0 -0.0759766 0.0536943 0 -0.0685989 0.0268636 0 -0.0614559 -5.60189e-07 0 497.84 -1.83572e-07 0 423.32 -232.478 0 273.7 -296.045 0 174.823 -295.063 0 107.67 -279.033 0 60.8953 -258.978 0 25.9577 -238.404 0 -0.0417308 -218.278 0 -20.0443 -199.219 0 -35.2343 -181.287 0 -46.8851 -164.623 0 -55.651 -149.162 0 -62.1774 -134.904 0 -66.8736 -121.772 0 -70.1081 -109.717 0 -72.15 -98.6642 0 -73.2286 -88.5531 0 -73.5251 -79.3144 0 -73.1904 -70.8864 0 -72.3485 -63.2073 0 -71.1021 -56.2199 0 -69.5369 -49.8697 0 -67.724 -44.1056 0 -65.7228 -38.88 0 -63.5829 -34.1483 0 -61.3455 -29.8691 0 -59.0449 -26.0043 0 -56.7098 -22.5183 0 -54.3634 -19.3783 0 -52.0253 -16.554 0 -49.7112 -14.0177 0 -47.4339 -11.7436 0 -45.2037 -9.70826 0 -43.0286 -7.88991 0 -40.9149 -6.26872 0 -38.8673 -4.82649 0 -36.8891 -3.54653 0 -34.9828 -2.41357 0 -33.1497 -1.41368 0 -31.3903 -0.534082 0 -29.7047 0.236854 0 -28.0923 0.909753 0 -26.5522 1.4943 0 -25.0829 1.99931 0 -23.683 2.43283 0 -22.3505 2.80215 0 -21.0834 3.11392 0 -19.8797 3.37418 0 -18.7372 3.58839 0 -17.6534 3.76154 0 -16.6263 3.89811 0 -15.6534 4.00219 0 -14.7324 4.07747 0 -13.8612 4.12729 0 -13.0373 4.15466 0 -12.2588 4.1623 0 -11.5233 4.15266 0 -10.8288 4.12797 0 -10.1734 4.0902 0 -9.55495 4.04114 0 -8.97173 3.9824 0 -8.42189 3.91542 0 -7.90367 3.84149 0 -7.41543 3.76177 0 -6.95557 3.67727 0 -6.52257 3.58893 0 -6.11498 3.49756 0 -5.7314 3.40387 0 -5.37053 3.30853 0 -5.0311 3.21208 0 -4.71193 3.11503 0 -4.41189 3.01783 0 -4.12988 2.92084 0 -3.86491 2.82442 0 -3.61599 2.72884 0 -3.38222 2.63436 0 -3.16272 2.54119 0 -2.95668 2.44952 0 -2.76331 2.35949 0 -2.58188 2.27124 0 -2.41171 2.18486 0 -2.25212 2.10044 0 -2.10251 2.01805 0 -1.96228 1.93773 0 -1.83088 1.85951 0 -1.7078 1.78342 0 -1.59253 1.70946 0 -1.48462 1.63764 0 -1.38362 1.56795 0 -1.28912 1.50036 0 -1.20073 1.43485 0 -1.11808 1.37139 0 -1.04083 1.30995 0 -0.96865 1.25049 0 -0.901229 1.19295 0 -0.838279 1.1373 0 -0.779525 1.08347 0 -0.724709 1.03143 0 -0.673588 0.981111 0 -0.625933 0.93246 0 -0.581527 0.885417 0 -0.540167 0.839924 0 -0.501661 0.795922 0 -0.465826 0.753349 0 -0.432494 0.712142 0 -0.401502 0.672244 0 -0.372697 0.633589 0 -0.345936 0.596117 0 -0.321084 0.559765 0 -0.298012 0.524472 0 -0.276598 0.490175 0 -0.256728 0.456813 0 -0.238292 0.424323 0 -0.221187 0.392645 0 -0.205315 0.361716 0 -0.190583 0.331476 0 -0.176901 0.301863 0 -0.164185 0.272816 0 -0.152353 0.244273 0 -0.141328 0.216175 0 -0.131033 0.188459 0 -0.121399 0.161065 0 -0.112353 0.133932 0 -0.10383 0.106997 0 -0.0957632 0.0801977 0 -0.0880885 0.0534744 0 -0.0807419 0.0267624 0 -0.0736619 9.45878e-07 0 456.894 9.67993e-07 0 406.101 -200.434 0 275.256 -274.412 0 179.91 -281.344 0 113.359 -270.001 0 66.2506 -252.597 0 31.0167 -233.844 0 4.55359 -214.958 0 -15.801 -196.819 0 -31.3836 -179.58 0 -43.3576 -163.448 0 -52.4467 -148.407 0 -59.2547 -134.479 0 -64.219 -121.611 0 -67.6942 -109.766 0 -69.9601 -98.8815 0 -71.2424 -88.903 0 -71.7267 -79.7693 0 -71.5636 -71.4229 0 -70.8792 -63.8066 0 -69.7768 -56.8662 0 -68.3435 -50.5499 0 -66.6511 -44.8089 0 -64.7601 -39.5974 0 -62.7208 -34.8723 0 -60.5752 -30.5937 0 -58.3583 -26.7244 0 -56.0994 -23.2297 0 -53.8224 -20.0776 0 -51.5474 -17.2387 0 -49.2906 -14.6856 0 -47.0653 -12.3931 0 -44.8822 -10.338 0 -42.7498 -8.49902 0 -40.6747 -6.8566 0 -38.6619 -5.39277 0 -36.7152 -4.09103 0 -34.8372 -2.93631 0 -33.0295 -1.91479 0 -31.2929 -1.01383 0 -29.6278 -0.221888 0 -28.0337 0.471584 0 -26.5099 1.07621 0 -25.0551 1.60075 0 -23.668 2.05322 0 -22.3469 2.44088 0 -21.0899 2.77037 0 -19.895 3.0477 0 -18.7601 3.27834 0 -17.6831 3.46726 0 -16.6618 3.61897 0 -15.6938 3.73756 0 -14.7771 3.82672 0 -13.9094 3.8898 0 -13.0886 3.92984 0 -12.3124 3.94957 0 -11.5789 3.95145 0 -10.886 3.93773 0 -10.2317 3.9104 0 -9.61412 3.87128 0 -9.03141 3.82199 0 -8.48181 3.76398 0 -7.9636 3.69857 0 -7.47516 3.62693 0 -7.01492 3.55011 0 -6.58138 3.46904 0 -6.17311 3.38456 0 -5.78873 3.29741 0 -5.42696 3.20824 0 -5.08655 3.11765 0 -4.76632 3.02615 0 -4.46515 2.93419 0 -4.18198 2.84217 0 -3.9158 2.75043 0 -3.66565 2.65929 0 -3.43061 2.56901 0 -3.20984 2.4798 0 -3.00251 2.39187 0 -2.80786 2.30538 0 -2.62515 2.22046 0 -2.45369 2.13723 0 -2.29284 2.05579 0 -2.14197 1.9762 0 -2.0005 1.89853 0 -1.86789 1.82281 0 -1.74361 1.74907 0 -1.62716 1.67734 0 -1.5181 1.60762 0 -1.41597 1.53989 0 -1.32038 1.47416 0 -1.23092 1.41041 0 -1.14723 1.34861 0 -1.06897 1.28872 0 -0.995812 1.23072 0 -0.927443 1.17456 0 -0.863575 1.12021 0 -0.803934 1.06761 0 -0.748264 1.01671 0 -0.696319 0.967476 0 -0.647872 0.919841 0 -0.602705 0.873757 0 -0.560616 0.829164 0 -0.521411 0.786007 0 -0.48491 0.744228 0 -0.45094 0.70377 0 -0.419342 0.664572 0 -0.389962 0.626576 0 -0.362657 0.589722 0 -0.33729 0.55395 0 -0.313734 0.5192 0 -0.291866 0.485412 0 -0.271571 0.452527 0 -0.25274 0.420484 0 -0.235271 0.389222 0 -0.219064 0.358684 0 -0.204026 0.328807 0 -0.190069 0.299532 0 -0.177107 0.270799 0 -0.165059 0.242549 0 -0.153849 0.214721 0 -0.143399 0.187254 0 -0.13364 0.160089 0 -0.124502 0.133164 0 -0.115916 0.106419 0 -0.10782 0.0797922 0 -0.100147 0.0532216 0 -0.0928357 0.0266451 0 -0.0858262 -1.53812e-06 0 423.046 -1.34687e-06 0 387.874 -174.155 0 274.77 -253.577 0 183.843 -267.73 0 118.428 -260.769 0 71.2172 -246.084 0 35.8097 -229.122 0 8.97029 -211.515 0 -11.6968 -194.299 0 -27.6296 -177.772 0 -39.9087 -162.181 0 -49.2983 -147.572 0 -56.3772 -133.981 0 -61.5969 -121.385 0 -65.3056 -109.755 0 -67.7879 -99.0444 0 -69.2691 -89.2036 0 -69.9364 -80.1795 0 -69.9415 -71.9189 0 -69.4115 -64.3691 0 -68.451 -57.4791 0 -67.1475 -51.1998 0 -65.5742 -45.4847 0 -63.7921 -40.2899 0 -61.8524 -35.5738 0 -59.7978 -31.2979 0 -57.664 -27.426 0 -55.4809 -23.9244 0 -53.273 -20.7621 0 -51.0608 -17.91 0 -48.8612 -15.3414 0 -46.6879 -13.0317 0 -44.552 -10.958 0 -42.4623 -9.09949 0 -40.4259 -7.43681 0 -38.4481 -5.95225 0 -36.533 -4.62954 0 -34.6835 -3.45377 0 -32.9014 -2.41129 0 -31.188 -1.48956 0 -29.5435 -0.67715 0 -27.9679 0.0364027 0 -26.4607 0.660657 0 -25.0207 1.20433 0 -23.6467 1.67538 0 -22.3372 2.08106 0 -21.0905 2.42796 0 -19.9047 2.7221 0 -18.7777 2.96893 0 -17.7077 3.17342 0 -16.6923 3.34008 0 -15.7296 3.47301 0 -14.8173 3.5759 0 -13.9534 3.65211 0 -13.1358 3.7047 0 -12.3623 3.73641 0 -11.6309 3.74973 0 -10.9397 3.7469 0 -10.2867 3.72996 0 -9.67012 3.70071 0 -9.08809 3.66081 0 -8.53888 3.61174 0 -8.02083 3.55482 0 -7.53233 3.49124 0 -7.07184 3.42206 0 -6.63789 3.34825 0 -6.22905 3.27065 0 -5.844 3.19003 0 -5.48144 3.10705 0 -5.14015 3.02231 0 -4.81896 2.93636 0 -4.51677 2.84964 0 -4.23252 2.76259 0 -3.96521 2.67556 0 -3.71391 2.58887 0 -3.47769 2.50279 0 -3.25572 2.41755 0 -3.04717 2.33338 0 -2.8513 2.25044 0 -2.66737 2.16888 0 -2.49469 2.08882 0 -2.33263 2.01037 0 -2.18056 1.93361 0 -2.0379 1.8586 0 -1.90411 1.7854 0 -1.77868 1.71404 0 -1.6611 1.64455 0 -1.55093 1.57694 0 -1.44772 1.51121 0 -1.35106 1.44736 0 -1.26057 1.38538 0 -1.17587 1.32524 0 -1.09663 1.26693 0 -1.02252 1.21041 0 -0.953233 1.15565 0 -0.888473 1.10262 0 -0.82797 1.05126 0 -0.771467 1.00153 0 -0.718721 0.953393 0 -0.669501 0.906795 0 -0.623592 0.861683 0 -0.580792 0.818007 0 -0.540905 0.775713 0 -0.503752 0.734746 0 -0.469161 0.69505 0 -0.436971 0.65657 0 -0.407029 0.619248 0 -0.379191 0.583027 0 -0.353322 0.54785 0 -0.329292 0.513659 0 -0.306979 0.480396 0 -0.286269 0.448002 0 -0.267053 0.41642 0 -0.249227 0.385591 0 -0.232693 0.355456 0 -0.217357 0.325957 0 -0.203131 0.297035 0 -0.18993 0.268632 0 -0.177672 0.240687 0 -0.166282 0.213144 0 -0.155682 0.185941 0 -0.145804 0.159019 0 -0.136577 0.132319 0 -0.127934 0.105779 0 -0.119811 0.0793384 0 -0.112144 0.0529369 0 -0.104872 0.0265116 0 -0.097933 1.80384e-06 0 394.188 1.01974e-06 0 369.616 -152.55 0 272.511 -233.913 0 186.709 -254.3 0 122.846 -251.433 0 75.7997 -239.452 0 40.3229 -224.268 0 13.2045 -207.954 0 -7.73726 -191.671 0 -23.9764 -175.867 0 -36.5412 -160.827 0 -46.2092 -146.656 0 -53.547 -133.411 0 -59.0096 -121.094 0 -62.9438 -109.686 0 -65.6352 -99.1538 0 -67.3098 -89.4558 0 -68.1556 -80.5456 0 -68.3253 -72.3748 0 -67.9467 -64.8952 0 -67.1254 -58.0588 0 -65.9499 -51.8196 0 -64.4939 -46.1332 0 -62.8195 -40.9575 0 -60.9783 -36.2528 0 -59.0139 -31.9817 0 -56.9626 -28.1091 0 -54.8547 -24.6025 0 -52.7156 -21.4314 0 -50.5661 -18.5676 0 -48.4235 -15.985 0 -46.302 -13.6593 0 -44.2132 -11.5683 0 -42.1664 -9.69121 0 -40.1687 -8.00921 0 -38.2261 -6.50479 0 -36.3427 -5.16191 0 -34.5219 -3.96582 0 -32.7657 -2.90303 0 -31.0755 -1.96114 0 -29.452 -1.12881 0 -27.8952 -0.395667 0 -26.4047 0.247769 0 -24.9797 0.810168 0 -23.6191 1.29944 0 -22.3215 1.7228 0 -21.0853 2.08682 0 -19.9087 2.39749 0 -18.79 2.66027 0 -17.7271 2.88012 0 -16.718 3.06153 0 -15.7607 3.20862 0 -14.8531 3.32508 0 -13.9932 3.4143 0 -13.1789 3.47932 0 -12.4082 3.52291 0 -11.6792 3.54757 0 -10.9899 3.55556 0 -10.3384 3.54892 0 -9.72296 3.5295 0 -9.14175 3.49894 0 -8.5931 3.45876 0 -8.07535 3.41029 0 -7.58693 3.35474 0 -7.12632 3.29319 0 -6.69208 3.22662 0 -6.28281 3.15589 0 -5.89719 3.08178 0 -5.53395 3.00497 0 -5.19188 2.92609 0 -4.86983 2.84569 0 -4.56671 2.76423 0 -4.28148 2.68215 0 -4.01314 2.59983 0 -3.76075 2.51759 0 -3.52343 2.43573 0 -3.30033 2.35449 0 -3.09065 2.27408 0 -2.89362 2.19471 0 -2.70853 2.11652 0 -2.53469 2.03964 0 -2.37147 1.9642 0 -2.21825 1.89028 0 -2.07446 1.81796 0 -1.93955 1.7473 0 -1.813 1.67833 0 -1.69434 1.6111 0 -1.58309 1.54562 0 -1.47883 1.4819 0 -1.38115 1.41995 0 -1.28966 1.35976 0 -1.20399 1.30132 0 -1.12381 1.2446 0 -1.04877 1.18958 0 -0.978588 1.13624 0 -0.912962 1.08453 0 -0.851621 1.03443 0 -0.794309 0.985892 0 -0.740781 0.938872 0 -0.690811 0.893325 0 -0.644179 0.849205 0 -0.600684 0.806462 0 -0.560134 0.765046 0 -0.522344 0.724906 0 -0.487148 0.685989 0 -0.454379 0.648241 0 -0.423889 0.611609 0 -0.395531 0.576037 0 -0.36917 0.54147 0 -0.344677 0.507852 0 -0.32193 0.475128 0 -0.300815 0.44324 0 -0.281222 0.412133 0 -0.263048 0.38175 0 -0.246194 0.352034 0 -0.230568 0.322927 0 -0.216079 0.294373 0 -0.202646 0.266313 0 -0.190184 0.23869 0 -0.178619 0.211445 0 -0.167875 0.18452 0 -0.157882 0.157857 0 -0.148571 0.131395 0 -0.139875 0.105075 0 -0.131731 0.0788373 0 -0.124074 0.0526198 0 -0.116845 0.0263618 0 -0.109983 -1.92269e-06 0 369.099 -1.07061e-06 0 351.893 -134.68 0 268.801 -215.632 0 188.588 -241.146 0 126.615 -242.074 0 79.9939 -232.724 0 44.552 -219.305 0 17.2494 -204.285 0 -3.92507 -188.944 0 -20.4291 -173.869 0 -33.2574 -159.39 0 -43.1825 -145.665 0 -50.7658 -132.773 0 -56.4595 -120.739 0 -60.6106 -109.559 0 -63.5037 -99.2108 0 -65.366 -89.6603 0 -66.3855 -80.8681 0 -66.716 -72.7911 0 -66.4857 -65.385 0 -65.8011 -58.6056 0 -64.7514 -52.4094 0 -63.4112 -46.7543 0 -61.8429 -41.6004 0 -60.0992 -36.9093 0 -58.2241 -32.645 0 -56.2546 -28.7738 0 -54.2215 -25.2639 0 -52.1506 -22.0857 0 -50.0634 -19.2117 0 -47.9777 -16.6163 0 -45.908 -14.2759 0 -43.8663 -12.1686 0 -41.8622 -10.2741 0 -39.9035 -8.5737 0 -37.996 -7.05029 0 -36.1446 -5.68802 0 -34.3526 -4.47234 0 -32.6224 -3.38989 0 -30.9557 -2.42844 0 -29.3533 -1.57673 0 -27.8155 -0.824506 0 -26.342 -0.162337 0 -24.9322 0.418376 0 -23.5852 0.925495 0 -22.2997 1.3662 0 -21.0743 1.74704 0 -19.9073 2.07398 0 -18.7969 2.35246 0 -17.7414 2.58744 0 -16.7388 2.78342 0 -15.7871 2.94449 0 -14.8844 3.07437 0 -14.0287 3.17645 0 -13.218 3.25378 0 -12.4503 3.30914 0 -11.7238 3.34505 0 -11.0366 3.36377 0 -10.3868 3.36736 0 -9.77263 3.35769 0 -9.19241 3.33643 0 -8.64445 3.30509 0 -8.12715 3.26504 0 -7.63895 3.21748 0 -7.17835 3.16354 0 -6.74395 3.10418 0 -6.33437 3.04031 0 -5.94829 2.9727 0 -5.58448 2.90207 0 -5.24174 2.82904 0 -4.91893 2.75418 0 -4.61498 2.67798 0 -4.32884 2.60088 0 -4.05955 2.52327 0 -3.80618 2.4455 0 -3.56783 2.36786 0 -3.34367 2.29062 0 -3.13291 2.214 0 -2.9348 2.13821 0 -2.74861 2.0634 0 -2.57367 1.98973 0 -2.40935 1.91731 0 -2.25504 1.84625 0 -2.11016 1.77663 0 -1.97417 1.70852 0 -1.84657 1.64196 0 -1.72685 1.57701 0 -1.61458 1.51368 0 -1.50931 1.45199 0 -1.41064 1.39196 0 -1.31819 1.33358 0 -1.23158 1.27684 0 -1.15047 1.22173 0 -1.07455 1.16823 0 -1.0035 1.11632 0 -0.93703 1.06597 0 -0.874876 1.01714 0 -0.816778 0.969806 0 -0.762492 0.923918 0 -0.71179 0.87944 0 -0.664455 0.836327 0 -0.620286 0.794533 0 -0.579087 0.754012 0 -0.540679 0.714714 0 -0.50489 0.676591 0 -0.471559 0.639592 0 -0.440533 0.603663 0 -0.411667 0.568755 0 -0.384827 0.534812 0 -0.359882 0.501782 0 -0.336712 0.469611 0 -0.315201 0.438245 0 -0.29524 0.407628 0 -0.276726 0.377705 0 -0.25956 0.348421 0 -0.243651 0.319721 0 -0.228908 0.291547 0 -0.215247 0.263845 0 -0.202588 0.236556 0 -0.190854 0.209625 0 -0.179971 0.182993 0 -0.169869 0.156602 0 -0.160478 0.130394 0 -0.151733 0.104309 0 -0.143571 0.0782886 0 -0.135928 0.0522711 0 -0.128745 0.026196 0 -0.121962 1.74738e-06 0 346.997 1.18604e-06 0 335.006 -119.786 0 263.968 -198.815 0 189.556 -228.36 0 129.755 -232.757 0 83.7948 -225.93 0 48.4966 -214.254 0 21.0983 -200.52 0 -0.262321 -186.127 0 -16.9919 -171.785 0 -30.0592 -157.874 0 -40.2214 -144.6 0 -48.0355 -132.068 0 -53.9485 -120.323 0 -58.3074 -109.377 0 -61.395 -99.2166 0 -63.439 -89.818 0 -64.6274 -81.1478 0 -65.1147 -73.1682 0 -65.0295 -65.8392 0 -64.479 -59.1198 0 -63.5529 -52.9694 0 -62.3266 -47.3484 0 -60.8631 -42.2186 0 -59.2157 -37.5433 0 -57.429 -33.288 0 -55.5404 -29.42 0 -53.5815 -25.9085 0 -51.5785 -22.7247 0 -49.5533 -19.842 0 -47.5242 -17.2353 0 -45.5062 -14.8814 0 -43.5115 -12.7589 0 -41.5502 -10.8479 0 -39.6303 -9.13015 0 -37.7582 -7.58862 0 -35.9388 -6.20775 0 -34.1757 -4.9732 0 -32.4718 -3.87177 0 -30.8287 -2.89134 0 -29.2476 -2.02082 0 -27.729 -1.25 0 -26.2727 -0.56955 0 -24.8784 0.0290667 0 -23.5452 0.553662 0 -22.2721 1.01137 0 -21.0576 1.40872 0 -19.9003 1.75166 0 -18.7986 2.0456 0 -17.7507 2.29549 0 -16.7547 2.50582 0 -15.8089 2.6807 0 -14.9113 2.82385 0 -14.0599 2.93864 0 -13.253 3.02816 0 -12.4886 3.09518 0 -11.7648 3.14222 0 -11.0798 3.17159 0 -10.4318 3.18535 0 -9.81913 3.18537 0 -9.24005 3.17335 0 -8.69294 3.1508 0 -8.17622 3.11912 0 -7.68837 3.07953 0 -7.22793 3.03315 0 -6.79349 2.981 0 -6.38371 2.92396 0 -5.9973 2.86284 0 -5.63302 2.79837 0 -5.28971 2.73119 0 -4.96625 2.66187 0 -4.66155 2.59092 0 -4.37461 2.51881 0 -4.10445 2.44592 0 -3.85016 2.37262 0 -3.61086 2.29922 0 -3.38572 2.22598 0 -3.17396 2.15316 0 -2.97482 2.08096 0 -2.7876 2.00955 0 -2.61163 1.93909 0 -2.44626 1.86971 0 -2.29091 1.80153 0 -2.14499 1.73463 0 -2.00798 1.66908 0 -1.87935 1.60495 0 -1.75864 1.54229 0 -1.64538 1.48113 0 -1.53914 1.42149 0 -1.43952 1.36339 0 -1.34613 1.30683 0 -1.25862 1.25182 0 -1.17663 1.19834 0 -1.09984 1.14638 0 -1.02795 1.09592 0 -0.960668 1.04693 0 -0.897726 0.999398 0 -0.838864 0.953278 0 -0.783842 0.90854 0 -0.73243 0.865146 0 -0.684412 0.823055 0 -0.639585 0.782226 0 -0.597756 0.742615 0 -0.558745 0.704175 0 -0.52238 0.666861 0 -0.4885 0.630623 