<?xml version="1.0"?> 
<VTKFile type="StructuredGrid" version="0.1"> 
<StructuredGrid WholeExtent="0 127 0 127 0 0"> 
<Piece Extent="0 127 0 127 0 0"> 
<PointData>
<DataArray type="Float32" Name="|E|" format="ascii" NumberOfComponents="3"> 
-1.66693e+06 0 0 -1.66702e+06 14911.5 0 -1.66728e+06 29825.9 0 -1.66773e+06 44746.5 0 -1.66835e+06 59676.1 0 -1.66915e+06 74617.8 0 -1.67012e+06 89574.7 0 -1.67127e+06 104550 0 -1.6726e+06 119546 0 -1.6741e+06 134567 0 -1.67578e+06 149615 0 -1.67764e+06 164694 0 -1.67967e+06 179806 0 -1.68187e+06 194955 0 -1.68425e+06 210143 0 -1.68681e+06 225375 0 -1.68953e+06 240653 0 -1.69243e+06 255979 0 -1.6955e+06 271359 0 -1.69874e+06 286794 0 -1.70215e+06 302288 0 -1.70573e+06 317844 0 -1.70948e+06 333465 0 -1.71339e+06 349155 0 -1.71747e+06 364917 0 -1.72172e+06 380754 0 -1.72612e+06 396670 0 -1.73069e+06 412668 0 -1.73542e+06 428752 0 -1.74031e+06 444924 0 -1.74535e+06 461188 0 -1.75055e+06 477548 0 -1.7559e+06 494007 0 -1.7614e+06 510568 0 -1.76705e+06 527235 0 -1.77284e+06 544012 0 -1.77877e+06 560901 0 -1.78485e+06 577907 0 -1.79106e+06 595033 0 -1.7974e+06 612281 0 -1.80386e+06 629656 0 -1.81046e+06 647161 0 -1.81717e+06 664799 0 -1.824e+06 682573 0 -1.83093e+06 700486 0 -1.83797e+06 718542 0 -1.84511e+06 736742 0 -1.85234e+06 755091 0 -1.85966e+06 773590 0 -1.86705e+06 792242 0 -1.87452e+06 811049 0 -1.88205e+06 830013 0 -1.88963e+06 849135 0 -1.89725e+06 868416 0 -1.90491e+06 887857 0 -1.91259e+06 907459 0 -1.92028e+06 927220 0 -1.92797e+06 947139 0 -1.93565e+06 967216 0 -1.9433e+06 987447 0 -1.95091e+06 1.00783e+06 0 -1.95846e+06 1.02836e+06 0 -1.96593e+06 1.04902e+06 0 -1.97331e+06 1.06982e+06 0 -1.98058e+06 1.09075e+06 0 -1.98773e+06 1.11178e+06 0 -1.99472e+06 1.13292e+06 0 -2.00154e+06 1.15414e+06 0 -2.00817e+06 1.17543e+06 0 -2.01458e+06 1.19677e+06 0 -2.02076e+06 1.21813e+06 0 -2.02668e+06 1.2395e+06 0 -2.03231e+06 1.26083e+06 0 -2.03764e+06 1.2821e+06 0 -2.04264e+06 1.30327e+06 0 -2.04729e+06 1.3243e+06 0 -2.05156e+06 1.34513e+06 0 -2.05544e+06 1.36573e+06 0 -2.05892e+06 1.38603e+06 0 -2.06198e+06 1.40597e+06 0 -2.0646e+06 1.42549e+06 0 -2.06678e+06 1.44451e+06 0 -2.06853e+06 1.46296e+06 0 -2.06983e+06 1.48075e+06 0 -2.07072e+06 1.4978e+06 0 -2.07119e+06 1.51402e+06 0 -2.07129e+06 1.52931e+06 0 -2.07104e+06 1.54358e+06 0 -2.07049e+06 1.55673e+06 0 -2.06969e+06 1.56865e+06 0 -2.0687e+06 1.57925e+06 0 -2.0676e+06 1.58844e+06 0 -2.06647e+06 1.59612e+06 0 -2.06541e+06 1.60219e+06 0 -2.06451e+06 1.60657e+06 0 -2.06388e+06 1.60919e+06 0 -2.06364e+06 1.60996e+06 0 -2.06391e+06 1.60884e+06 0 -2.06481e+06 1.60575e+06 0 -2.06649e+06 1.60066e+06 0 -2.06906e+06 1.59352e+06 0 -2.07266e+06 1.58432e+06 0 -2.07742e+06 1.57302e+06 0 -2.08347e+06 1.55963e+06 0 -2.09095e+06 1.54415e+06 0 -2.09997e+06 1.52657e+06 0 -2.11067e+06 1.50695e+06 0 -2.12313e+06 1.48528e+06 0 -2.13753e+06 1.46167e+06 0 -2.1539e+06 1.43608e+06 0 -2.17248e+06 1.40879e+06 0 -2.19318e+06 1.37956e+06 0 -2.21646e+06 1.34917e+06 0 -2.24193e+06 1.3167e+06 0 -2.27059e+06 1.28438e+06 0 -2.30129e+06 1.24909e+06 0 -2.33653e+06 1.21739e+06 0 -2.37301e+06 1.17931e+06 0 -2.41737e+06 1.15429e+06 0 -2.46057e+06 1.11135e+06 0 -2.52035e+06 1.10854e+06 0 -2.57254e+06 1.05115e+06 0 -2.66525e+06 1.11383e+06 0 -2.73608e+06 1.0064e+06 0 -2.91895e+06 1.28149e+06 0 -3.08496e+06 950519 0 -3.61934e+06 2.25217e+06 0 -9.47047e+06 1.22711e+07 0 -1.66118e+06 0 0 -1.6613e+06 14979.1 0 -1.6616e+06 29960.5 0 -1.66207e+06 44947 0 -1.66272e+06 59941.9 0 -1.66355e+06 74948 0 -1.66455e+06 89968.4 0 -1.66573e+06 105006 0 -1.66708e+06 120064 0 -1.66861e+06 135146 0 -1.67031e+06 150254 0 -1.67219e+06 165392 0 -1.67424e+06 180562 0 -1.67647e+06 195768 0 -1.67886e+06 211013 0 -1.68144e+06 226299 0 -1.68418e+06 241631 0 -1.68709e+06 257011 0 -1.69018e+06 272443 0 -1.69344e+06 287929 0 -1.69686e+06 303473 0 -1.70045e+06 319078 0 -1.70421e+06 334747 0 -1.70814e+06 350484 0 -1.71223e+06 366291 0 -1.71649e+06 382173 0 -1.7209e+06 398132 0 -1.72548e+06 414172 0 -1.73022e+06 430296 0 -1.73511e+06 446508 0 -1.74016e+06 462810 0 -1.74537e+06 479207 0 -1.75072e+06 495701 0 -1.75623e+06 512296 0 -1.76188e+06 528996 0 -1.76768e+06 545804 0 -1.77361e+06 562723 0 -1.77969e+06 579756 0 -1.7859e+06 596908 0 -1.79224e+06 614181 0 -1.79871e+06 631579 0 -1.8053e+06 649104 0 -1.81202e+06 666761 0 -1.81884e+06 684552 0 -1.82578e+06 702481 0 -1.83282e+06 720550 0 -1.83996e+06 738761 0 -1.84719e+06 757119 0 -1.8545e+06 775624 0 -1.8619e+06 794280 0 -1.86936e+06 813089 0 -1.87689e+06 832051 0 -1.88447e+06 851169 0 -1.8921e+06 870444 0 -1.89976e+06 889875 0 -1.90744e+06 909464 0 -1.91514e+06 929210 0 -1.92283e+06 949111 0 -1.93052e+06 969165 0 -1.93817e+06 989370 0 -1.94579e+06 1.00972e+06 0 -1.95335e+06 1.03022e+06 0 -1.96084e+06 1.05085e+06 0 -1.96823e+06 1.0716e+06 0 -1.97552e+06 1.09248e+06 0 -1.98269e+06 1.11347e+06 0 -1.98971e+06 1.13455e+06 0 -1.99656e+06 1.15572e+06 0 -2.00322e+06 1.17695e+06 0 -2.00967e+06 1.19822e+06 0 -2.0159e+06 1.21951e+06 0 -2.02187e+06 1.2408e+06 0 -2.02756e+06 1.26206e+06 0 -2.03295e+06 1.28324e+06 0 -2.03803e+06 1.30433e+06 0 -2.04276e+06 1.32527e+06 0 -2.04712e+06 1.34601e+06 0 -2.05111e+06 1.36652e+06 0 -2.0547e+06 1.38672e+06 0 -2.05788e+06 1.40657e+06 0 -2.06064e+06 1.426e+06 0 -2.06298e+06 1.44492e+06 0 -2.06489e+06 1.46328e+06 0 -2.06638e+06 1.48099e+06 0 -2.06745e+06 1.49795e+06 0 -2.06814e+06 1.51409e+06 0 -2.06845e+06 1.52932e+06 0 -2.06844e+06 1.54352e+06 0 -2.06814e+06 1.55662e+06 0 -2.0676e+06 1.56851e+06 0 -2.06689e+06 1.57908e+06 0 -2.06608e+06 1.58826e+06 0 -2.06524e+06 1.59594e+06 0 -2.06448e+06 1.60204e+06 0 -2.06389e+06 1.60646e+06 0 -2.06358e+06 1.60914e+06 0 -2.06366e+06 1.60999e+06 0 -2.06425e+06 1.60896e+06 0 -2.06548e+06 1.60599e+06 0 -2.06747e+06 1.60103e+06 0 -2.07035e+06 1.59404e+06 0 -2.07426e+06 1.585e+06 0 -2.07933e+06 1.57389e+06 0 -2.08568e+06 1.56069e+06 0 -2.09344e+06 1.54542e+06 0 -2.10273e+06 1.52807e+06 0 -2.11368e+06 1.50867e+06 0 -2.1264e+06 1.48725e+06 0 -2.14101e+06 1.46387e+06 0 -2.15762e+06 1.43857e+06 0 -2.17633e+06 1.41148e+06 0 -2.19728e+06 1.38264e+06 0 -2.22054e+06 1.35231e+06 0 -2.24633e+06 1.32049e+06 0 -2.27468e+06 1.28781e+06 0 -2.30596e+06 1.25397e+06 0 -2.34014e+06 1.22063e+06 0 -2.37806e+06 1.18637e+06 0 -2.41949e+06 1.1558e+06 0 -2.4665e+06 1.12379e+06 0 -2.51853e+06 1.10375e+06 0 -2.58099e+06 1.07855e+06 0 -2.65339e+06 1.08875e+06 0 -2.75124e+06 1.07988e+06 0 -2.88102e+06 1.1841e+06 0 -3.10454e+06 1.22531e+06 0 -3.5757e+06 1.81638e+06 0 -5.48913e+06 6.99426e+06 0 -1.6554e+06 0 0 -1.65555e+06 15046.3 0 -1.65588e+06 30094.1 0 -1.65639e+06 45146.3 0 -1.65707e+06 60205.9 0 -1.65792e+06 75276 0 -1.65895e+06 90359.5 0 -1.66016e+06 105460 0 -1.66153e+06 120579 0 -1.66309e+06 135721 0 -1.66481e+06 150889 0 -1.66671e+06 166085 0 -1.66879e+06 181313 0 -1.67103e+06 196576 0 -1.67345e+06 211877 0 -1.67604e+06 227218 0 -1.67881e+06 242604 0 -1.68174e+06 258037 0 -1.68484e+06 273520 0 -1.68811e+06 289057 0 -1.69155e+06 304651 0 -1.69516e+06 320305 0 -1.69893e+06 336021 0 -1.70287e+06 351805 0 -1.70697e+06 367657 0 -1.71124e+06 383583 0 -1.71566e+06 399585 0 -1.72025e+06 415667 0 -1.725e+06 431832 0 -1.7299e+06 448082 0 -1.73496e+06 464423 0 -1.74017e+06 480856 0 -1.74553e+06 497385 0 -1.75104e+06 514014 0 -1.7567e+06 530746 0 -1.7625e+06 547585 0 -1.76844e+06 564533 0 -1.77452e+06 581594 0 -1.78073e+06 598772 0 -1.78707e+06 616070 0 -1.79355e+06 633490 0 -1.80014e+06 651037 0 -1.80685e+06 668713 0 -1.81368e+06 686521 0 -1.82062e+06 704464 0 -1.82766e+06 722546 0 -1.8348e+06 740769 0 -1.84203e+06 759135 0 -1.84935e+06 777647 0 -1.85674e+06 796307 0 -1.86421e+06 815117 0 -1.87173e+06 834078 0 -1.87932e+06 853193 0 -1.88694e+06 872461 0 -1.8946e+06 891883 0 -1.90229e+06 911459 0 -1.90999e+06 931189 0 -1.91769e+06 951071 0 -1.92538e+06 971104 0 -1.93305e+06 991283 0 -1.94067e+06 1.01161e+06 0 -1.94824e+06 1.03207e+06 0 -1.95575e+06 1.05266e+06 0 -1.96316e+06 1.07338e+06 0 -1.97047e+06 1.09421e+06 0 -1.97766e+06 1.11515e+06 0 -1.9847e+06 1.13618e+06 0 -1.99158e+06 1.15729e+06 0 -1.99828e+06 1.17846e+06 0 -2.00478e+06 1.19967e+06 0 -2.01105e+06 1.22089e+06 0 -2.01707e+06 1.24211e+06 0 -2.02282e+06 1.26329e+06 0 -2.02828e+06 1.2844e+06 0 -2.03343e+06 1.3054e+06 0 -2.03824e+06 1.32625e+06 0 -2.04271e+06 1.34691e+06 0 -2.0468e+06 1.36732e+06 0 -2.0505e+06 1.38743e+06 0 -2.05381e+06 1.40719e+06 0 -2.05671e+06 1.42652e+06 0 -2.0592e+06 1.44536e+06 0 -2.06127e+06 1.46363e+06 0 -2.06294e+06 1.48125e+06 0 -2.0642e+06 1.49813e+06 0 -2.06509e+06 1.5142e+06 0 -2.06563e+06 1.52936e+06 0 -2.06585e+06 1.54351e+06 0 -2.0658e+06 1.55655e+06 0 -2.06552e+06 1.5684e+06 0 -2.06508e+06 1.57896e+06 0 -2.06455e+06 1.58813e+06 0 -2.06401e+06 1.59582e+06 0 -2.06355e+06 1.60194e+06 0 -2.06327e+06 1.6064e+06 0 -2.06327e+06 1.60914e+06 0 -2.06366e+06 1.61007e+06 0 -2.06457e+06 1.60913e+06 0 -2.06612e+06 1.60628e+06 0 -2.06843e+06 1.60145e+06 0 -2.07163e+06 1.59461e+06 0 -2.07584e+06 1.58574e+06 0 -2.08121e+06 1.5748e+06 0 -2.08785e+06 1.5618e+06 0 -2.09589e+06 1.54674e+06 0 -2.10546e+06 1.52961e+06 0 -2.11666e+06 1.51044e+06 0 -2.12963e+06 1.48926e+06 0 -2.14445e+06 1.46612e+06 0 -2.16127e+06 1.44108e+06 0 -2.18016e+06 1.41423e+06 0 -2.20128e+06 1.38568e+06 0 -2.22466e+06 1.35557e+06 0 -2.25057e+06 1.32412e+06 0 -2.27891e+06 1.29157e+06 0 -2.31027e+06 1.25831e+06 0 -2.34423e+06 1.22481e+06 0 -2.38219e+06 1.19176e+06 0 -2.42293e+06 1.16014e+06 0 -2.47007e+06 1.13123e+06 0 -2.52029e+06 1.10738e+06 0 -2.58333e+06 1.09105e+06 0 -2.6509e+06 1.08904e+06 0 -2.75054e+06 1.10736e+06 0 -2.8664e+06 1.17153e+06 0 -3.08832e+06 1.31698e+06 0 -3.50353e+06 1.75926e+06 0 -3.90332e+06 5.22617e+06 0 -1.64959e+06 0 0 -1.64978e+06 15113.1 0 -1.65014e+06 30226.9 0 -1.65068e+06 45344.3 0 -1.65139e+06 60468.3 0 -1.65227e+06 75601.9 0 -1.65333e+06 90748.2 0 -1.65456e+06 105910 0 -1.65597e+06 121091 0 -1.65755e+06 136293 0 -1.6593e+06 151520 0 -1.66122e+06 166774 0 -1.66332e+06 182060 0 -1.66558e+06 197379 0 -1.66802e+06 212735 0 -1.67063e+06 228131 0 -1.67341e+06 243571 0 -1.67636e+06 259056 0 -1.67948e+06 274591 0 -1.68277e+06 290179 0 -1.68622e+06 305822 0 -1.68984e+06 321524 0 -1.69363e+06 337288 0 -1.69758e+06 353117 0 -1.7017e+06 369015 0 -1.70597e+06 384985 0 -1.71041e+06 401030 0 -1.71501e+06 417153 0 -1.71976e+06 433358 0 -1.72467e+06 449648 0 -1.72974e+06 466025 0 -1.73496e+06 482495 0 -1.74032e+06 499059 0 -1.74584e+06 515722 0 -1.7515e+06 532486 0 -1.75731e+06 549356 0 -1.76325e+06 566333 0 -1.76933e+06 583422 0 -1.77555e+06 600626 0 -1.7819e+06 617947 0 -1.78837e+06 635390 0 -1.79497e+06 652958 0 -1.80168e+06 670652 0 -1.80851e+06 688478 0 -1.81545e+06 706436 0 -1.82249e+06 724531 0 -1.82963e+06 742765 0 -1.83686e+06 761139 0 -1.84418e+06 779658 0 -1.85158e+06 798322 0 -1.85904e+06 817133 0 -1.86657e+06 836094 0 -1.87416e+06 855205 0 -1.88179e+06 874466 0 -1.88945e+06 893880 0 -1.89714e+06 913444 0 -1.90485e+06 933159 0 -1.91255e+06 953022 0 -1.92025e+06 973033 0 -1.92792e+06 993188 0 -1.93556e+06 1.01348e+06 0 -1.94314e+06 1.03391e+06 0 -1.95066e+06 1.05447e+06 0 -1.95809e+06 1.07515e+06 0 -1.96542e+06 1.09594e+06 0 -1.97263e+06 1.11683e+06 0 -1.97971e+06 1.13781e+06 0 -1.98662e+06 1.15886e+06 0 -1.99336e+06 1.17997e+06 0 -1.99989e+06 1.20111e+06 0 -2.00621e+06 1.22227e+06 0 -2.01229e+06 1.24342e+06 0 -2.0181e+06 1.26452e+06 0 -2.02363e+06 1.28555e+06 0 -2.02885e+06 1.30647e+06 0 -2.03375e+06 1.32724e+06 0 -2.0383e+06 1.34781e+06 0 -2.0425e+06 1.36814e+06 0 -2.04632e+06 1.38816e+06 0 -2.04975e+06 1.40783e+06 0 -2.05279e+06 1.42707e+06 0 -2.05543e+06 1.44582e+06 0 -2.05767e+06 1.464e+06 0 -2.05951e+06 1.48154e+06 0 -2.06097e+06 1.49835e+06 0 -2.06206e+06 1.51434e+06 0 -2.06282e+06 1.52943e+06 0 -2.06327e+06 1.54353e+06 0 -2.06346e+06 1.55653e+06 0 -2.06344e+06 1.56835e+06 0 -2.06327e+06 1.57889e+06 0 -2.06302e+06 1.58805e+06 0 -2.06277e+06 1.59575e+06 0 -2.06261e+06 1.60189e+06 0 -2.06263e+06 1.6064e+06 0 -2.06295e+06 1.60919e+06 0 -2.06365e+06 1.6102e+06 0 -2.06488e+06 1.60936e+06 0 -2.06674e+06 1.60662e+06 0 -2.06936e+06 1.60192e+06 0 -2.07287e+06 1.59524e+06 0 -2.07739e+06 1.58653e+06 0 -2.08306e+06 1.57577e+06 0 -2.08999e+06 1.56296e+06 0 -2.09831e+06 1.5481e+06 0 -2.10814e+06 1.53119e+06 0 -2.1196e+06 1.51225e+06 0 -2.13281e+06 1.49131e+06 0 -2.14786e+06 1.46841e+06 0 -2.16488e+06 1.44362e+06 0 -2.18396e+06 1.41702e+06 0 -2.20523e+06 1.38874e+06 0 -2.22875e+06 1.35889e+06 0 -2.25473e+06 1.32772e+06 0 -2.28315e+06 1.29543e+06 0 -2.31445e+06 1.26251e+06 0 -2.34839e+06 1.22923e+06 0 -2.38606e+06 1.1967e+06 0 -2.42664e+06 1.16517e+06 0 -2.47302e+06 1.13732e+06 0 -2.52282e+06 1.11312e+06 0 -2.58407e+06 1.09955e+06 0 -2.65055e+06 1.09575e+06 0 -2.74556e+06 1.12245e+06 0 -2.85713e+06 1.18047e+06 0 -3.06161e+06 1.35879e+06 0 -3.41782e+06 1.78853e+06 0 -3.16539e+06 4.37008e+06 0 -1.64376e+06 0 0 -1.64398e+06 15179.5 0 -1.64438e+06 30358.8 0 -1.64494e+06 45541 0 -1.64569e+06 60729 0 -1.6466e+06 75925.8 0 -1.64769e+06 91134.4 0 -1.64894e+06 106358 0 -1.65038e+06 121599 0 -1.65198e+06 136861 0 -1.65376e+06 152147 0 -1.6557e+06 167459 0 -1.65782e+06 182802 0 -1.66011e+06 198177 0 -1.66257e+06 213588 0 -1.6652e+06 229039 0 -1.668e+06 244532 0 -1.67097e+06 260069 0 -1.6741e+06 275656 0 -1.6774e+06 291293 0 -1.68087e+06 306986 0 -1.68451e+06 322736 0 -1.68831e+06 338547 0 -1.69227e+06 354422 0 -1.6964e+06 370365 0 -1.70069e+06 386379 0 -1.70514e+06 402466 0 -1.70974e+06 418630 0 -1.71451e+06 434875 0 -1.71943e+06 451204 0 -1.7245e+06 467619 0 -1.72973e+06 484125 0 -1.7351e+06 500724 0 -1.74062e+06 517420 0 -1.74629e+06 534216 0 -1.7521e+06 551116 0 -1.75805e+06 568122 0 -1.76414e+06 585239 0 -1.77036e+06 602468 0 -1.77671e+06 619814 0 -1.78318e+06 637280 0 -1.78978e+06 654868 0 -1.7965e+06 672581 0 -1.80333e+06 690424 0 -1.81027e+06 708397 0 -1.81732e+06 726505 0 -1.82446e+06 744749 0 -1.83169e+06 763133 0 -1.83901e+06 781658 0 -1.84641e+06 800326 0 -1.85387e+06 819139 0 -1.86141e+06 838099 0 -1.86899e+06 857206 0 -1.87663e+06 876461 0 -1.8843e+06 895866 0 -1.89199e+06 915418 0 -1.8997e+06 935118 0 -1.90741e+06 954964 0 -1.91512e+06 974953 0 -1.9228e+06 995083 0 -1.93045e+06 1.01535e+06 0 -1.93805e+06 1.03575e+06 0 -1.94558e+06 1.05627e+06 0 -1.95303e+06 1.07691e+06 0 -1.96038e+06 1.09766e+06 0 -1.96762e+06 1.1185e+06 0 -1.97472e+06 1.13943e+06 0 -1.98167e+06 1.16043e+06 0 -1.98844e+06 1.18148e+06 0 -1.99502e+06 1.20256e+06 0 -2.00139e+06 1.22365e+06 0 -2.00752e+06 1.24473e+06 0 -2.01339e+06 1.26576e+06 0 -2.01899e+06 1.28671e+06 0 -2.02429e+06 1.30755e+06 0 -2.02927e+06 1.32824e+06 0 -2.03392e+06 1.34872e+06 0 -2.03822e+06 1.36896e+06 0 -2.04215e+06 1.3889e+06 0 -2.04571e+06 1.40848e+06 0 -2.04889e+06 1.42764e+06 0 -2.05168e+06 1.4463e+06 0 -2.05408e+06 1.4644e+06 0 -2.0561e+06 1.48186e+06 0 -2.05775e+06 1.49859e+06 0 -2.05905e+06 1.51452e+06 0 -2.06002e+06 1.52955e+06 0 -2.0607e+06 1.54359e+06 0 -2.06114e+06 1.55655e+06 0 -2.06137e+06 1.56834e+06 0 -2.06147e+06 1.57886e+06 0 -2.0615e+06 1.58802e+06 0 -2.06153e+06 1.59572e+06 0 -2.06167e+06 1.6019e+06 0 -2.06199e+06 1.60645e+06 0 -2.06261e+06 1.6093e+06 0 -2.06363e+06 1.61039e+06 0 -2.06517e+06 1.60965e+06 0 -2.06734e+06 1.60702e+06 0 -2.07027e+06 1.60245e+06 0 -2.07409e+06 1.59591e+06 0 -2.07891e+06 1.58736e+06 0 -2.08487e+06 1.57679e+06 0 -2.09209e+06 1.56417e+06 0 -2.10069e+06 1.54951e+06 0 -2.11079e+06 1.53282e+06 0 -2.12251e+06 1.5141e+06 0 -2.13595e+06 1.49339e+06 0 -2.15123e+06 1.47073e+06 0 -2.16845e+06 1.4462e+06 0 -2.18772e+06 1.41985e+06 0 -2.20914e+06 1.39182e+06 0 -2.2328e+06 1.36223e+06 0 -2.25885e+06 1.33133e+06 0 -2.28734e+06 1.29931e+06 0 -2.31858e+06 1.26668e+06 0 -2.35251e+06 1.2337e+06 0 -2.38986e+06 1.2015e+06 0 -2.43032e+06 1.17036e+06 0 -2.47583e+06 1.14299e+06 0 -2.52538e+06 1.11938e+06 0 -2.58444e+06 1.10675e+06 0 -2.65038e+06 1.10416e+06 0 -2.73956e+06 1.13348e+06 0 -2.84823e+06 1.19512e+06 0 -3.03173e+06 1.3838e+06 0 -3.32671e+06 1.83213e+06 0 -2.78438e+06 3.85577e+06 0 -1.6379e+06 0 0 -1.63816e+06 15245.4 0 -1.63859e+06 30489.8 0 -1.63919e+06 45736.4 0 -1.63996e+06 60988 0 -1.6409e+06 76247.5 0 -1.64202e+06 91518.1 0 -1.6433e+06 106803 0 -1.64476e+06 122104 0 -1.64639e+06 137425 0 -1.64819e+06 152770 0 -1.65016e+06 168140 0 -1.6523e+06 183539 0 -1.65461e+06 198970 0 -1.65709e+06 214437 0 -1.65974e+06 229941 0 -1.66256e+06 245486 0 -1.66555e+06 261076 0 -1.6687e+06 276713 0 -1.67202e+06 292401 0 -1.67551e+06 308142 0 -1.67916e+06 323941 0 -1.68297e+06 339798 0 -1.68695e+06 355720 0 -1.69109e+06 371707 0 -1.69539e+06 387764 0 -1.69985e+06 403893 0 -1.70447e+06 420099 0 -1.70924e+06 436383 0 -1.71417e+06 452750 0 -1.71925e+06 469203 0 -1.72448e+06 485745 0 -1.72987e+06 502379 0 -1.73539e+06 519108 0 -1.74107e+06 535936 0 -1.74688e+06 552866 0 -1.75284e+06 569901 0 -1.75893e+06 587045 0 -1.76515e+06 604300 0 -1.77151e+06 621670 0 -1.77799e+06 639158 0 -1.78459e+06 656767 0 -1.79131e+06 674499 0 -1.79814e+06 692358 0 -1.80509e+06 710347 0 -1.81213e+06 728467 0 -1.81927e+06 746723 0 -1.82651e+06 765115 0 -1.83383e+06 783646 0 -1.84123e+06 802318 0 -1.8487e+06 821133 0 -1.85624e+06 840092 0 -1.86383e+06 859196 0 -1.87146e+06 878446 0 -1.87914e+06 897841 0 -1.88684e+06 917382 0 -1.89456e+06 937067 0 -1.90228e+06 956895 0 -1.90999e+06 976864 0 -1.91769e+06 996970 0 -1.92535e+06 1.01721e+06 0 -1.93296e+06 1.03758e+06 0 -1.94051e+06 1.05806e+06 0 -1.94798e+06 1.07867e+06 0 -1.95535e+06 1.09937e+06 0 -1.96261e+06 1.12017e+06 0 -1.96974e+06 1.14105e+06 0 -1.97672e+06 1.16199e+06 0 -1.98354e+06 1.18299e+06 0 -1.99016e+06 1.20401e+06 0 -1.99657e+06 1.22503e+06 0 -2.00276e+06 1.24604e+06 0 -2.00869e+06 1.267e+06 0 -2.01436e+06 1.28788e+06 0 -2.01974e+06 1.30864e+06 0 -2.02481e+06 1.32925e+06 0 -2.02955e+06 1.34965e+06 0 -2.03395e+06 1.36981e+06 0 -2.03801e+06 1.38966e+06 0 -2.04169e+06 1.40915e+06 0 -2.04501e+06 1.42822e+06 0 -2.04794e+06 1.4468e+06 0 -2.05051e+06 1.46482e+06 0 -2.0527e+06 1.4822e+06 0 -2.05454e+06 1.49887e+06 0 -2.05604e+06 1.51473e+06 0 -2.05723e+06 1.5297e+06 0 -2.05814e+06 1.54369e+06 0 -2.05882e+06 1.55661e+06 0 -2.0593e+06 1.56837e+06 0 -2.05967e+06 1.57887e+06 0 -2.05997e+06 1.58803e+06 0 -2.06029e+06 1.59575e+06 0 -2.06072e+06 1.60195e+06 0 -2.06134e+06 1.60655e+06 0 -2.06226e+06 1.60946e+06 0 -2.06359e+06 1.61063e+06 0 -2.06544e+06 1.60998e+06 0 -2.06792e+06 1.60747e+06 0 -2.07116e+06 1.60303e+06 0 -2.07528e+06 1.59664e+06 0 -2.0804e+06 1.58825e+06 0 -2.08666e+06 1.57786e+06 0 -2.09416e+06 1.56543e+06 0 -2.10304e+06 1.55097e+06 0 -2.1134e+06 1.53449e+06 0 -2.12537e+06 1.51599e+06 0 -2.13905e+06 1.49552e+06 0 -2.15456e+06 1.4731e+06 0 -2.17198e+06 1.4488e+06 0 -2.19143e+06 1.42271e+06 0 -2.21301e+06 1.39493e+06 0 -2.2368e+06 1.3656e+06 0 -2.26293e+06 1.33495e+06 0 -2.29149e+06 1.30321e+06 0 -2.32267e+06 1.27084e+06 0 -2.35657e+06 1.23819e+06 0 -2.39362e+06 1.20625e+06 0 -2.43392e+06 1.17556e+06 0 -2.47861e+06 1.14848e+06 0 -2.52778e+06 1.1257e+06 0 -2.58479e+06 1.11348e+06 0 -2.64984e+06 1.11281e+06 0 -2.73346e+06 1.14302e+06 0 -2.83839e+06 1.21055e+06 0 -3.00096e+06 1.40218e+06 0 -3.2352e+06 1.86914e+06 0 -2.5698e+06 3.50516e+06 0 -1.63202e+06 0 0 -1.63231e+06 15310.8 0 -1.63277e+06 30620 0 -1.6334e+06 45930.5 0 -1.63421e+06 61245.3 0 -1.63518e+06 76567.2 0 -1.63633e+06 91899.3 0 -1.63764e+06 107245 0 -1.63913e+06 122606 0 -1.64078e+06 137986 0 -1.64261e+06 153389 0 -1.6446e+06 168816 0 -1.64676e+06 184272 0 -1.6491e+06 199759 0 -1.6516e+06 215279 0 -1.65427e+06 230837 0 -1.65711e+06 246436 0 -1.66011e+06 262077 0 -1.66328e+06 277765 0 -1.66662e+06 293502 0 -1.67012e+06 309292 0 -1.67379e+06 325138 0 -1.67762e+06 341042 0 -1.68161e+06 357009 0 -1.68576e+06 373041 0 -1.69007e+06 389141 0 -1.69454e+06 405312 0 -1.69917e+06 421558 0 -1.70396e+06 437883 0 -1.70889e+06 454288 0 -1.71399e+06 470778 0 -1.71923e+06 487355 0 -1.72462e+06 504024 0 -1.73015e+06 520786 0 -1.73583e+06 537646 0 -1.74165e+06 554606 0 -1.74761e+06 571670 0 -1.75371e+06 588841 0 -1.75994e+06 606122 0 -1.7663e+06 623516 0 -1.77278e+06 641026 0 -1.77939e+06 658655 0 -1.78611e+06 676406 0 -1.79295e+06 694282 0 -1.79989e+06 712285 0 -1.80694e+06 730419 0 -1.81409e+06 748685 0 -1.82132e+06 767086 0 -1.82865e+06 785624 0 -1.83605e+06 804300 0 -1.84353e+06 823117 0 -1.85106e+06 842076 0 -1.85866e+06 861176 0 -1.8663e+06 880420 0 -1.87398e+06 899807 0 -1.88169e+06 919336 0 -1.88941e+06 939007 0 -1.89714e+06 958818 0 -1.90486e+06 978766 0 -1.91257e+06 998848 0 -1.92024e+06 1.01906e+06 0 -1.92787e+06 1.0394e+06 0 -1.93544e+06 1.05985e+06 0 -1.94293e+06 1.08041e+06 0 -1.95033e+06 1.10108e+06 0 -1.95762e+06 1.12183e+06 0 -1.96478e+06 1.14266e+06 0 -1.97179e+06 1.16356e+06 0 -1.97864e+06 1.18449e+06 0 -1.98531e+06 1.20545e+06 0 -1.99177e+06 1.22642e+06 0 -1.99801e+06 1.24736e+06 0 -2.00401e+06 1.26825e+06 0 -2.00975e+06 1.28905e+06 0 -2.0152e+06 1.30974e+06 0 -2.02036e+06 1.33027e+06 0 -2.0252e+06 1.35059e+06 0 -2.02971e+06 1.37066e+06 0 -2.03387e+06 1.39043e+06 0 -2.03768e+06 1.40984e+06 0 -2.04114e+06 1.42883e+06 0 -2.04422e+06 1.44733e+06 0 -2.04695e+06 1.46527e+06 0 -2.04932e+06 1.48258e+06 0 -2.05135e+06 1.49917e+06 0 -2.05305e+06 1.51497e+06 0 -2.05445e+06 1.52989e+06 0 -2.05559e+06 1.54383e+06 0 -2.0565e+06 1.55671e+06 0 -2.05724e+06 1.56844e+06 0 -2.05786e+06 1.57893e+06 0 -2.05844e+06 1.58809e+06 0 -2.05904e+06 1.59582e+06 0 -2.05976e+06 1.60205e+06 0 -2.06068e+06 1.6067e+06 0 -2.0619e+06 1.60967e+06 0 -2.06353e+06 1.61092e+06 0 -2.06569e+06 1.61037e+06 0 -2.06847e+06 1.60797e+06 0 -2.07202e+06 1.60366e+06 0 -2.07644e+06 1.59742e+06 0 -2.08187e+06 1.58919e+06 0 -2.08841e+06 1.57897e+06 0 -2.0962e+06 1.56673e+06 0 -2.10535e+06 1.55248e+06 0 -2.11598e+06 1.53621e+06 0 -2.1282e+06 1.51793e+06 0 -2.14212e+06 1.49768e+06 0 -2.15784e+06 1.4755e+06 0 -2.17547e+06 1.45145e+06 0 -2.1951e+06 1.42559e+06 0 -2.21683e+06 1.39806e+06 0 -2.24075e+06 1.36899e+06 0 -2.26697e+06 1.3386e+06 0 -2.29558e+06 1.30713e+06 0 -2.32672e+06 1.275e+06 0 -2.36057e+06 1.24266e+06 0 -2.39736e+06 1.21098e+06 0 -2.43741e+06 1.18072e+06 0 -2.48138e+06 1.15391e+06 0 -2.52999e+06 1.1319e+06 0 -2.58518e+06 1.12001e+06 0 -2.64887e+06 1.12117e+06 0 -2.72746e+06 1.15195e+06 0 -2.82741e+06 1.225e+06 0 -2.97008e+06 1.41745e+06 0 -3.14643e+06 1.8938e+06 0 -2.43765e+06 3.24053e+06 0 -1.62611e+06 0 0 -1.62644e+06 15375.9 0 -1.62693e+06 30749.4 0 -1.6276e+06 46123.4 0 -1.62843e+06 61500.9 0 -1.62944e+06 76884.8 0 -1.63061e+06 92278.1 0 -1.63195e+06 107684 0 -1.63347e+06 123105 0 -1.63515e+06 138544 0 -1.637e+06 154004 0 -1.63902e+06 169488 0 -1.6412e+06 185000 0 -1.64356e+06 200542 0 -1.64608e+06 216117 0 -1.64877e+06 231728 0 -1.65163e+06 247379 0 -1.65466e+06 263072 0 -1.65784e+06 278810 0 -1.6612e+06 294597 0 -1.66472e+06 310435 0 -1.6684e+06 326328 0 -1.67224e+06 342279 0 -1.67625e+06 358291 0 -1.68041e+06 374366 0 -1.68474e+06 390509 0 -1.68922e+06 406723 0 -1.69386e+06 423010 0 -1.69866e+06 439373 0 -1.7036e+06 455817 0 -1.7087e+06 472344 0 -1.71395e+06 488957 0 -1.71935e+06 505659 0 -1.7249e+06 522455 0 -1.73058e+06 539346 0 -1.73641e+06 556336 0 -1.74238e+06 573429 0 -1.74848e+06 590626 0 -1.75471e+06 607933 0 -1.76108e+06 625350 0 -1.76756e+06 642883 0 -1.77417e+06 660532 0 -1.7809e+06 678302 0 -1.78774e+06 696195 0 -1.79469e+06 714213 0 -1.80174e+06 732360 0 -1.80889e+06 750637 0 -1.81613e+06 769046 0 -1.82346e+06 787591 0 -1.83087e+06 806271 0 -1.83834e+06 825090 0 -1.84589e+06 844048 0 -1.85349e+06 863146 0 -1.86113e+06 882384 0 -1.86882e+06 901762 0 -1.87653e+06 921281 0 -1.88426e+06 940938 0 -1.892e+06 960731 0 -1.89974e+06 980659 0 -1.90746e+06 1.00072e+06 0 -1.91514e+06 1.0209e+06 0 -1.92279e+06 1.04121e+06 0 -1.93037e+06 1.06163e+06 0 -1.93789e+06 1.08216e+06 0 -1.94531e+06 1.10278e+06 0 -1.95262e+06 1.12349e+06 0 -1.95982e+06 1.14428e+06 0 -1.96687e+06 1.16512e+06 0 -1.97376e+06 1.186e+06 0 -1.98047e+06 1.2069e+06 0 -1.98698e+06 1.2278e+06 0 -1.99328e+06 1.24868e+06 0 -1.99934e+06 1.2695e+06 0 -2.00515e+06 1.29023e+06 0 -2.01068e+06 1.31084e+06 0 -2.01592e+06 1.33129e+06 0 -2.02086e+06 1.35154e+06 0 -2.02547e+06 1.37153e+06 0 -2.02975e+06 1.39123e+06 0 -2.03369e+06 1.41056e+06 0 -2.03728e+06 1.42946e+06 0 -2.04052e+06 1.44789e+06 0 -2.04341e+06 1.46575e+06 0 -2.04595e+06 1.48299e+06 0 -2.04816e+06 1.49951e+06 0 -2.05006e+06 1.51525e+06 0 -2.05168e+06 1.53011e+06 0 -2.05304e+06 1.54401e+06 0 -2.05419e+06 1.55686e+06 0 -2.05518e+06 1.56856e+06 0 -2.05606e+06 1.57904e+06 0 -2.05691e+06 1.5882e+06 0 -2.05779e+06 1.59595e+06 0 -2.05879e+06 1.60221e+06 0 -2.06e+06 1.60689e+06 0 -2.06152e+06 1.60994e+06 0 -2.06346e+06 1.61126e+06 0 -2.06592e+06 1.61081e+06 0 -2.06901e+06 1.60852e+06 0 -2.07286e+06 1.60435e+06 0 -2.07758e+06 1.59824e+06 0 -2.0833e+06 1.59018e+06 0 -2.09013e+06 1.58013e+06 0 -2.0982e+06 1.56808e+06 0 -2.10763e+06 1.55403e+06 0 -2.11852e+06 1.53796e+06 0 -2.13099e+06 1.51991e+06 0 -2.14514e+06 1.49989e+06 0 -2.16109e+06 1.47794e+06 0 -2.17892e+06 1.45412e+06 0 -2.19874e+06 1.42851e+06 0 -2.22062e+06 1.40123e+06 0 -2.24467e+06 1.37241e+06 0 -2.27097e+06 1.34226e+06 0 -2.29963e+06 1.31105e+06 0 -2.33074e+06 1.27917e+06 0 -2.3645e+06 1.24712e+06 0 -2.40106e+06 1.21569e+06 0 -2.44082e+06 1.18581e+06 0 -2.48414e+06 1.15928e+06 0 -2.53203e+06 1.13794e+06 0 -2.58559e+06 1.1264e+06 0 -2.64753e+06 1.12913e+06 0 -2.72156e+06 1.16049e+06 0 -2.81549e+06 1.23801e+06 0 -2.93934e+06 1.4305e+06 0 -3.06225e+06 1.90625e+06 0 -2.34957e+06 3.03012e+06 0 -1.62018e+06 0 0 -1.62054e+06 15440.5 0 -1.62107e+06 30877.9 0 -1.62177e+06 46315 0 -1.62263e+06 61754.9 0 -1.62367e+06 77200.4 0 -1.62487e+06 92654.5 0 -1.62624e+06 108120 0 -1.62778e+06 123600 0 -1.62949e+06 139098 0 -1.63137e+06 154615 0 -1.63341e+06 170156 0 -1.63562e+06 185724 0 -1.638e+06 201320 0 -1.64055e+06 216949 0 -1.64326e+06 232614 0 -1.64614e+06 248316 0 -1.64918e+06 264060 0 -1.65239e+06 279849 0 -1.65576e+06 295685 0 -1.65929e+06 311571 0 -1.66299e+06 327511 0 -1.66685e+06 343508 0 -1.67087e+06 359565 0 -1.67505e+06 375684 0 -1.67939e+06 391870 0 -1.68388e+06 408125 0 -1.68853e+06 424452 0 -1.69334e+06 440855 0 -1.6983e+06 457337 0 -1.70341e+06 473900 0 -1.70867e+06 490548 0 -1.71407e+06 507285 0 -1.71963e+06 524113 0 -1.72532e+06 541036 0 -1.73116e+06 558056 0 -1.73713e+06 575177 0 -1.74324e+06 592402 0 -1.74947e+06 609733 0 -1.75584e+06 627175 0 -1.76234e+06 644729 0 -1.76895e+06 662399 0 -1.77568e+06 680187 0 -1.78253e+06 698097 0 -1.78948e+06 716130 0 -1.79653e+06 734289 0 -1.80369e+06 752577 0 -1.81093e+06 770996 0 -1.81826e+06 789547 0 -1.82568e+06 808232 0 -1.83316e+06 827053 0 -1.84071e+06 846010 0 -1.84831e+06 865105 0 -1.85596e+06 884338 0 -1.86366e+06 903708 0 -1.87138e+06 923216 0 -1.87912e+06 942859 0 -1.88687e+06 962636 0 -1.89461e+06 982544 0 -1.90235e+06 1.00258e+06 0 -1.91005e+06 1.02274e+06 0 -1.91771e+06 1.04302e+06 0 -1.92531e+06 1.0634e+06 0 -1.93285e+06 1.0839e+06 0 -1.9403e+06 1.10448e+06 0 -1.94764e+06 1.12515e+06 0 -1.95486e+06 1.14588e+06 0 -1.96195e+06 1.16667e+06 0 -1.96888e+06 1.1875e+06 0 -1.97564e+06 1.20835e+06 0 -1.9822e+06 1.22919e+06 0 -1.98856e+06 1.25e+06 0 -1.99468e+06 1.27075e+06 0 -2.00056e+06 1.29142e+06 0 -2.00617e+06 1.31196e+06 0 -2.0115e+06 1.33233e+06 0 -2.01653e+06 1.3525e+06 0 -2.02125e+06 1.37242e+06 0 -2.02565e+06 1.39203e+06 0 -2.02971e+06 1.41128e+06 0 -2.03344e+06 1.43012e+06 0 -2.03683e+06 1.44846e+06 0 -2.03987e+06 1.46625e+06 0 -2.04259e+06 1.48342e+06 0 -2.04499e+06 1.49988e+06 0 -2.04709e+06 1.51556e+06 0 -2.04891e+06 1.53037e+06 0 -2.0505e+06 1.54422e+06 0 -2.05189e+06 1.55704e+06 0 -2.05312e+06 1.56872e+06 0 -2.05426e+06 1.57919e+06 0 -2.05537e+06 1.58835e+06 0 -2.05653e+06 1.59612e+06 0 -2.05782e+06 1.60241e+06 0 -2.05932e+06 1.60714e+06 0 -2.06114e+06 1.61025e+06 0 -2.06337e+06 1.61166e+06 0 -2.06613e+06 1.6113e+06 0 -2.06952e+06 1.60912e+06 0 -2.07367e+06 1.60508e+06 0 -2.07869e+06 1.59912e+06 0 -2.0847e+06 1.59122e+06 0 -2.09182e+06 1.58134e+06 0 -2.10017e+06 1.56948e+06 0 -2.10987e+06 1.55562e+06 0 -2.12102e+06 1.53977e+06 0 -2.13374e+06 1.52193e+06 0 -2.14813e+06 1.50213e+06 0 -2.1643e+06 1.48042e+06 0 -2.18233e+06 1.45683e+06 0 -2.20233e+06 1.43147e+06 0 -2.22437e+06 1.40442e+06 0 -2.24854e+06 1.37584e+06 0 -2.27493e+06 1.34594e+06 0 -2.30363e+06 1.31497e+06 0 -2.33472e+06 1.28334e+06 0 -2.36839e+06 1.25156e+06 0 -2.40474e+06 1.22039e+06 0 -2.44416e+06 1.19085e+06 0 -2.48688e+06 1.1646e+06 0 -2.53395e+06 1.14383e+06 0 -2.58599e+06 1.13266e+06 0 -2.6459e+06 1.13665e+06 0 -2.71569e+06 1.16866e+06 0 -2.80288e+06 1.24949e+06 0 -2.9089e+06 1.44152e+06 0 -2.98367e+06 1.90811e+06 0 -2.28642e+06 2.85499e+06 0 -1.61422e+06 0 0 -1.61462e+06 15504.7 0 -1.61518e+06 31005.5 0 -1.61591e+06 46505.4 0 -1.61681e+06 62007.3 0 -1.61788e+06 77514 0 -1.61911e+06 93028.5 0 -1.62051e+06 108554 0 -1.62208e+06 124092 0 -1.62381e+06 139648 0 -1.62572e+06 155223 0 -1.62778e+06 170820 0 -1.63002e+06 186443 0 -1.63242e+06 202094 0 -1.63499e+06 217777 0 -1.63772e+06 233494 0 -1.64062e+06 249248 0 -1.64368e+06 265043 0 -1.64691e+06 280881 0 -1.6503e+06 296766 0 -1.65385e+06 312700 0 -1.65757e+06 328687 0 -1.66144e+06 344730 0 -1.66548e+06 360831 0 -1.66967e+06 376994 0 -1.67402e+06 393222 0 -1.67853e+06 409519 0 -1.68319e+06 425886 0 -1.68801e+06 442328 0 -1.69298e+06 458847 0 -1.6981e+06 475447 0 -1.70337e+06 492131 0 -1.70878e+06 508902 0 -1.71434e+06 525762 0 -1.72004e+06 542716 0 -1.72589e+06 559766 0 -1.73187e+06 576915 0 -1.73798e+06 594167 0 -1.74423e+06 611524 0 -1.7506e+06 628989 0 -1.7571e+06 646565 0 -1.76372e+06 664255 0 -1.77045e+06 682062 0 -1.7773e+06 699988 0 -1.78426e+06 718036 0 -1.79132e+06 736209 0 -1.79848e+06 754507 0 -1.80573e+06 772935 0 -1.81306e+06 791492 0 -1.82048e+06 810182 0 -1.82797e+06 829005 0 -1.83552e+06 847962 0 -1.84313e+06 867054 0 -1.85079e+06 886282 0 -1.85849e+06 905644 0 -1.86622e+06 925141 0 -1.87397e+06 944771 0 -1.88173e+06 964532 0 -1.88949e+06 984421 0 -1.89724e+06 1.00443e+06 0 -1.90495e+06 1.02457e+06 0 -1.91263e+06 1.04482e+06 0 -1.92026e+06 1.06517e+06 0 -1.92782e+06 1.08563e+06 0 -1.93529e+06 1.10617e+06 0 -1.94266e+06 1.1268e+06 0 -1.94992e+06 1.14749e+06 0 -1.95704e+06 1.16823e+06 0 -1.96402e+06 1.18901e+0