<?xml version="1.0"?> 
<VTKFile type="StructuredGrid" version="0.1"> 
<StructuredGrid WholeExtent="0 127 0 127 0 0"> 
<Piece Extent="0 127 0 127 0 0"> 
<PointData>
<DataArray type="Float32" Name="|E|" format="ascii" NumberOfComponents="3"> 
-1.90735e-05 1.22711e+07 0 -2.80224e-06 6.48329e+06 0 2.19879e-06 5.06489e+06 0 -6.18274e-07 4.37276e+06 0 -5.29515e-07 3.8625e+06 0 8.50716e-07 3.50986e+06 0 -5.85351e-08 3.21609e+06 0 -2.5475e-06 2.98286e+06 0 3.39333e-06 2.77961e+06 0 -3.16325e-06 2.60609e+06 0 3.28946e-06 2.45096e+06 0 -1.63223e-06 2.31294e+06 0 4.8487e-07 2.18724e+06 0 2.17347e-07 2.07258e+06 0 -3.51109e-07 1.96667e+06 0 -6.9337e-07 1.86849e+06 0 1.81329e-06 1.7768e+06 0 -2.82086e-06 1.69085e+06 0 1.45636e-06 1.60991e+06 0 5.13624e-07 1.53343e+06 0 -1.10385e-06 1.46094e+06 0 9.48319e-07 1.39205e+06 0 -6.0373e-07 1.32642e+06 0 8.94535e-07 1.26377e+06 0 -1.72528e-06 1.20387e+06 0 2.34134e-06 1.14651e+06 0 -1.35647e-06 1.09151e+06 0 -3.09199e-07 1.03871e+06 0 1.46916e-06 987978 0 -1.14413e-06 939201 0 -3.05474e-07 892273 0 1.96323e-06 847103 0 -2.43355e-06 803611 0 1.77324e-06 761725 0 -2.43913e-06 721384 0 1.88965e-06 682531 0 -1.94088e-06 645116 0 2.07871e-06 609094 0 -1.50502e-06 574425 0 8.27014e-07 541072 0 -7.15256e-07 509003 0 6.50063e-07 478188 0 -5.30854e-07 448598 0 3.68804e-07 420209 0 6.85453e-07 392996 0 -3.11062e-07 366937 0 3.5204e-07 342010 0 -2.6077e-07 318194 0 5.10365e-07 295471 0 -6.70552e-08 273819 0 1.52737e-07 253220 0 -5.43892e-07 233654 0 9.27597e-07 215101 0 -6.92904e-07 197541 0 -4.58211e-07 180953 0 3.46452e-07 165317 0 1.22935e-07 150609 0 -1.75089e-07 136808 0 -4.02331e-07 123889 0 1.30385e-07 111829 0 4.47035e-07 100600 0 -9.90927e-07 90177.2 0 7.97212e-07 80532.1 0 1.2666e-07 71636.1 0 -5.36442e-07 63459.7 0 6.85453e-07 55972.3 0 -3.57628e-07 49142.5 0 -5.96046e-07 42938.3 0 7.6741e-07 37326.9 0 -7.30157e-07 32275.1 0 -3.65078e-07 27749.3 0 1.03563e-06 23715.7 0 -9.23872e-07 20140.6 0 8.64267e-07 16990.2 0 -7.45058e-08 14231.3 0 5.21541e-07 11831.1 0 -7.89762e-07 9757.56 0 4.47035e-07 7979.5 0 -2.98023e-07 6466.88 0 1.49012e-07 5190.95 0 -3.72529e-07 4124.35 0 4.91738e-07 3241.33 0 -1.13249e-06 2517.82 0 8.64267e-07 1931.53 0 -6.10948e-07 1462.07 0 4.47035e-07 1090.93 0 -2.68221e-07 801.523 0 -9.23872e-07 579.18 0 1.81794e-06 411.073 0 -1.10269e-06 286.156 0 1.40071e-06 195.059 0 -1.98185e-06 129.966 0 2.47359e-06 84.4749 0 -1.74344e-06 53.4429 0 1.62423e-06 32.827 0 -1.04308e-06 19.5217 0 5.06639e-07 11.2039 0 -2.98023e-08 6.18333 0 -1.2815e-06 3.26796 0 1.81794e-06 1.64622 0 -1.99676e-06 0.786201 0 1.96695e-06 0.353751 0 -1.49012e-06 0.148846 0 9.23872e-07 0.0582266 0 -6.85453e-07 0.020771 0 -4.47035e-07 0.00681829 0 1.81794e-06 0.00203466 0 -3.39746e-06 0.000459433 0 3.99351e-06 0.000138283 0 -3.48687e-06 -2.83718e-05 0 1.60933e-06 0.000118971 0 1.19209e-07 7.15256e-07 0 -4.76837e-07 -2.3365e-05 0 0 5.29289e-05 0 1.49012e-07 -0.000122547 0 1.78814e-07 0.000135422 0 5.96046e-08 -1.09673e-05 0 -2.98023e-08 -1.00136e-05 0 -8.04663e-07 0.000159264 0 1.13249e-06 -2.57492e-05 0 -1.60933e-06 4.95911e-05 0 2.20537e-06 0.000125885 0 -2.74181e-06 -0.00050354 0 3.15905e-06 0.000480652 0 -2.44379e-06 -0.000324249 0 1.13249e-06 0.000610352 0 -4.76837e-07 -0.00183105 0 2.19345e-05 6.20757e+08 0 -3.42839e+06 6.99426e+06 0 -1.31058e+06 5.95708e+06 0 -679909 4.97095e+06 0 -431214 4.31862e+06 0 -310666 3.85741e+06 0 -237309 3.50594e+06 0 -191941 3.225e+06 0 -159284 2.9917e+06 0 -136325 2.79271e+06 0 -118416 2.61939e+06 0 -104756 2.46585e+06 0 -93601.4 2.32808e+06 0 -84605.5 2.20304e+06 0 -77031.1 2.08859e+06 0 -70676.7 1.98298e+06 0 -65200.2 1.88494e+06 0 -60471.8 1.79341e+06 0 -56318.3 1.70755e+06 0 -52653.6 1.62669e+06 0 -49382.4 1.55027e+06 0 -46446.6 1.47781e+06 0 -43789.8 1.40893e+06 0 -41372.5 1.34331e+06 0 -39158.7 1.28065e+06 0 -37121.3 1.22073e+06 0 -35236.4 1.16333e+06 0 -33484.7 1.10828e+06 0 -31849.6 1.05542e+06 0 -30317.5 1.00462e+06 0 -28876.5 955753 0 -27516.7 908725 0 -26229.3 863442 0 -25007 819822 0 -23843.5 777795 0 -22733.2 737299 0 -21671.3 698275 0 -20653.7 660675 0 -19676.9 624453 0 -18737.6 589569 0 -17833.3 555987 0 -16961.5 523673 0 -16120.3 492598 0 -15307.9 462733 0 -14522.7 434054 0 -13763.6 406537 0 -13029.5 380160 0 -12319.4 354901 0 -11632.5 330740 0 -10968.3 307659 0 -10326.2 285638 0 -9705.76 264658 0 -9106.73 244700 0 -8528.81 225746 0 -7971.83 207777 0 -7435.65 190773 0 -6920.16 174714 0 -6425.32 159579 0 -5951.06 145347 0 -5497.36 131995 0 -5064.19 119501 0 -4651.51 107839 0 -4259.27 96985.3 0 -3887.4 86913.3 0 -3535.8 77595.8 0 -3204.32 69004.9 0 -2892.79 61111.5 0 -2600.99 53885.7 0 -2328.64 47296.8 0 -2075.39 41313.6 0 -1840.87 35903.9 0 -1624.62 31035.5 0 -1426.13 26675.7 0 -1244.83 22791.4 0 -1080.08 19349.9 0 -931.207 16318.5 0 -797.46 13664.7 0 -678.055 11356.8 0 -572.163 9363.74 0 -478.921 7655.34 0 -397.439 6202.52 0 -326.808 4977.46 0 -266.112 3953.76 0 -214.435 3106.54 0 -170.871 2412.59 0 -134.536 1850.45 0 -104.575 1400.45 0 -80.1717 1044.79 0 -60.5568 767.537 0 -45.0144 554.577 0 -32.8877 393.595 0 -23.5829 273.991 0 -16.5714 186.779 0 -11.3911 124.466 0 -7.64489 80.917 0 -4.9984 51.2077 0 -3.17602 31.4668 0 -1.95585 18.7231 0 -1.16367 10.7531 0 -0.666563 5.93967 0 -0.366116 3.14264 0 -0.191938 1.58524 0 -0.0955323 0.758336 0 -0.0448808 0.341873 0 -0.0197452 0.144269 0 -0.00807776 0.0564477 0 -0.0030431 0.0203498 0 -0.00103665 0.00662694 0 -0.000320137 0.00195616 0 -8.99275e-05 0.000504642 0 -1.79429e-05 0.000114798 0 -5.65381e-06 1.3439e-05 0 3.20661e-06 3.48351e-05 0 -3.78894e-06 -5.02118e-05 0 3.55124e-06 5.22103e-05 0 -6.28405e-06 -4.93725e-05 0 3.95943e-06 2.69645e-05 0 1.96944e-06 -6.82107e-06 0 -5.71589e-06 1.34747e-05 0 4.22734e-06 -4.29118e-06 0 6.0789e-07 -2.29986e-05 0 -3.92865e-06 2.57477e-05 0 2.81821e-06 -2.9704e-05 0 -1.68338e-06 -8.27965e-05 0 2.18917e-07 4.0223e-05 0 2.85442e-06 4.25086e-05 0 -4.96133e-06 -0.00014958 0 5.40932e-06 0.000160987 0 1.76191e-05 0.00199086 0 -3.22744e+06 5.22617e+06 0 -1.92675e+06 5.13701e+06 0 -1.19596e+06 4.64044e+06 0 -816694 4.16763e+06 0 -601997 3.78074e+06 0 -469887 3.46564e+06 0 -381495 3.20427e+06 0 -319508 2.98251e+06 0 -273617 2.79082e+06 0 -238724 2.62225e+06 0 -211214 2.47205e+06 0 -189145 2.3366e+06 0 -170990 2.21332e+06 0 -155863 2.10014e+06 0 -143032 1.99553e+06 0 -132034 1.89825e+06 0 -122483 1.80732e+06 0 -114117 1.72194e+06 0 -106714 1.64147e+06 0 -100114 1.56535e+06 0 -94182.9 1.49314e+06 0 -88819 1.42447e+06 0 -83936.2 1.359e+06 0 -79466.4 1.29646e+06 0 -75352.3 1.23663e+06 0 -71547.2 1.17929e+06 0 -68011.6 1.12428e+06 0 -64712.4 1.07143e+06 0 -61621.7 1.02063e+06 0 -58715.8 971734 0 -55974.1 924660 0 -53379.4 879312 0 -50916.7 835609 0 -48572.9 793482 0 -46336.9 752867 0 -44199 713708 0 -42150.6 675955 0 -40184.6 639564 0 -38294.5 604494 0 -36474.8 570709 0 -34720.6 538177 0 -33027.9 506866 0 -31393 476751 0 -29812.8 447805 0 -28284.6 420006 0 -26806.2 393332 0 -25375.6 367762 0 -23991.3 343277 0 -22651.9 319858 0 -21356.3 297486 0 -20103.6 276143 0 -18893 255812 0 -17724.1 236474 0 -16596.4 218112 0 -15509.5 200707 0 -14463.3 184240 0 -13457.6 168691 0 -12492.3 154041 0 -11567.4 140267 0 -10682.7 127349 0 -9838.3 115264 0 -9034.06 103988 0 -8269.88 93495.6 0 -7545.63 83762.2 0 -6861.08 74760.9 0 -6215.95 66464.3 0 -5609.89 58843.8 0 -5042.41 51870.3 0 -4512.97 45513.8 0 -4020.89 39743.7 0 -3565.38 34528.7 0 -3145.53 29837.3 0 -2760.34 25637.5 0 -2408.65 21897.3 0 -2089.22 18584.8 0 -1800.68 15668.1 0 -1541.58 13115.8 0 -1310.37 10897.1 0 -1105.41 8981.81 0 -925.008 7340.74 0 -767.426 5945.74 0 -630.886 4769.92 0 -513.596 3787.75 0 -413.771 2975.23 0 -329.648 2309.96 0 -259.508 1771.24 0 -201.689 1340.16 0 -154.609 999.577 0 -116.776 734.162 0 -86.8038 530.361 0 -63.4223 376.348 0 -45.4834 261.953 0 -31.9665 178.558 0 -21.9794 118.983 0 -14.7563 77.3549 0 -9.65255 48.9581 0 -6.13697 30.0898 0 -3.78206 17.9086 0 -2.25229 10.2893 0 -1.29157 5.68648 0 -0.710371 3.01073 0 -0.373022 1.52005 0 -0.186031 0.727943 0 -0.0875923 0.328633 0 -0.0386518 0.13892 0 -0.0158616 0.0544802 0 -0.00599725 0.0196874 0 -0.00205793 0.00645128 0 -0.000637623 0.00189784 0 -0.00017727 0.000495417 0 -3.946e-05 0.000100966 0 -7.3261e-06 3.1371e-05 0 -6.98848e-08 3.27658e-05 0 -8.44726e-07 -7.99614e-06 0 1.00407e-06 2.90711e-05 0 -6.47776e-06 -3.50242e-05 0 4.55132e-06 1.74922e-05 0 2.50814e-06 -1.16071e-05 0 -7.00554e-06 -1.72533e-06 0 2.98051e-06 -1.15733e-05 0 2.43169e-06 -2.76819e-05 0 -3.72506e-06 4.6913e-05 0 5.29137e-07 2.20493e-05 0 3.7997e-07 -3.99373e-05 0 1.26815e-06 5.71252e-05 0 6.62042e-07 4.79401e-06 0 -2.12622e-06 -2.54856e-05 0 -1.12237e-05 -0.000703705 0 -2.91584e+06 4.37008e+06 0 -2.13268e+06 4.46592e+06 0 -1.51985e+06 4.2525e+06 0 -1.11698e+06 3.95111e+06 0 -857216 3.65494e+06 0 -683697 3.39028e+06 0 -562950 3.1581e+06 0 -475276 2.95459e+06 0 -409494 2.77463e+06 0 -358563 2.61411e+06 0 -318203 2.46949e+06 0 -285487 2.33812e+06 0 -258513 2.21782e+06 0 -235899 2.10693e+06 0 -216693 2.00408e+06 0 -200171 1.90818e+06 0 -185811 1.81834e+06 0 -173204 1.73385e+06 0 -162042 1.65408e+06 0 -152080 1.57855e+06 0 -143124 1.50682e+06 0 -135019 1.43853e+06 0 -127639 1.37338e+06 0 -120882 1.31111e+06 0 -114662 1.25149e+06 0 -108909 1.19432e+06 0 -103564 1.13944e+06 0 -98576.3 1.08669e+06 0 -93904.7 1.03594e+06 0 -89513 987092 0 -85370.5 940029 0 -81450.7 894668 0 -77731.1 850930 0 -74191.9 808745 0 -70816.1 768052 0 -67589 728794 0 -64497.6 690924 0 -61530.8 654396 0 -58678.9 619170 0 -55933.3 585212 0 -53286.7 552487 0 -50732.7 520968 0 -48265.7 490627 0 -45880.8 461439 0 -43574.1 433382 0 -41341.8 406433 0 -39181.1 380574 0 -37089.3 355785 0 -35064.3 332047 0 -33104.4 309344 0 -31208.1 287658 0 -29374.2 266971 0 -27601.8 247267 0 -25890.3 228528 0 -24239 210738 0 -22647.6 193878 0 -21115.9 177929 0 -19643.6 162874 0 -18230.7 148691 0 -16877.1 135361 0 -15582.8 122862 0 -14347.5 111172 0 -13171.4 100267 0 -12054.2 90124.4 0 -10995.6 80718 0 -9995.41 72021.9 0 -9053.12 64009.3 0 -8168.18 56652.3 0 -7339.9 49922.4 0 -6567.4 43790.1 0 -5849.69 38225.7 0 -5185.57 33198.6 0 -4573.69 28678 0 -4012.52 24632.8 0 -3500.36 21031.7 0 -3035.36 17843.7 0 -2615.49 15037.9 0 -2238.61 12583.7 0 -1902.41 10451.2 0 -1604.49 8611.11 0 -1342.37 7035.18 0 -1113.47 5696.16 0 -915.21 4568.02 0 -744.952 3626.1 0 -600.087 2847.22 0 -478.041 2209.78 0 -376.305 1693.83 0 -292.458 1281.15 0 -224.195 955.244 0 -169.346 701.376 0 -125.898 506.521 0 -92.0034 359.328 0 -65.9979 250.04 0 -46.4006 170.397 0 -31.9182 113.522 0 -21.4408 73.7921 0 -14.0347 46.6975 0 -8.93046 28.6986 0 -5.50911 17.0806 0 -3.28469 9.81438 0 -1.88629 5.42492 0 -1.03921 2.87306 0 -0.546791 1.45116 0 -0.273341 0.695361 0 -0.129057 0.314178 0 -0.0571419 0.132938 0 -0.0235407 0.0522066 0 -0.0089401 0.0188856 0 -0.00308839 0.00620313 0 -0.000961557 0.001832 0 -0.000268808 0.000481159 0 -6.08667e-05 0.000101477 0 -1.12624e-05 1.04621e-05 0 -1.25515e-06 2.22793e-05 0 -1.01966e-06 -9.0079e-06 0 -2.34627e-07 2.16736e-05 0 -6.29749e-06 -1.66973e-05 0 4.87274e-06 1.4958e-05 0 2.13249e-06 -1.01615e-05 0 -6.26803e-06 1.29876e-05 0 1.00015e-06 -9.58485e-06 0 3.56143e-06 -5.03049e-05 0 -2.13681e-06 1.81773e-05 0 -1.08809e-06 2.35685e-05 0 3.14596e-07 -4.09267e-05 0 1.29055e-06 9.0452e-06 0 -5.11502e-07 1.06638e-05 0 1.07307e-05 0.000324641 0 -2.71393e+06 3.85577e+06 0 -2.18247e+06 3.97134e+06 0 -1.70352e+06 3.89419e+06 0 -1.3345e+06 3.71331e+06 0 -1.06597e+06 3.50063e+06 0 -872268 3.28882e+06 0 -729942 3.09093e+06 0 -623115 2.90978e+06 0 -540850 2.74512e+06 0 -476143 2.5952e+06 0 -424150 2.45826e+06 0 -381651 2.3325e+06 0 -346331 2.21644e+06 0 -316576 2.10878e+06 0 -291181 2.00845e+06 0 -269271 1.91455e+06 0 -250171 1.82631e+06 0 -233371 1.7431e+06 0 -218468 1.66439e+06 0 -205150 1.58972e+06 0 -193163 1.51871e+06 0 -182307 1.45102e+06 0 -172416 1.38637e+06 0 -163354 1.32451e+06 0 -155010 1.26523e+06 0 -147291 1.20834e+06 0 -140117 1.15368e+06 0 -133423 1.10112e+06 0 -127153 1.05052e+06 0 -121259 1.00177e+06 0 -115700 954781 0 -110440 909463 0 -105449 865741 0 -100702 823545 0 -96173.5 782816 0 -91845.3 743500 0 -87699.8 705548 0 -83721.6 668917 0 -79897.7 633568 0 -76216.6 599466 0 -72668.1 566579 0 -69243.6 534878 0 -65935.5 504337 0 -62737.1 474932 0 -59642.8 446640 0 -56647.6 419440 0 -53747.4 393313 0 -50938.7 368242 0 -48218.4 344207 0 -45584 321192 0 -43033.4 299181 0 -40565.1 278158 0 -38177.6 258105 0 -35869.9 239008 0 -33641.3 220848 0 -31491.1 203611 0 -29419 187277 0 -27424.6 171830 0 -25507.9 157251 0 -23668.7 143520 0 -21907 130618 0 -20222.6 118524 0 -18615.6 107216 0 -17085.9 96670.9 0 -15633.1 86865.3 0 -14256.9 77774.6 0 -12957.1 69373.3 0 -11732.8 61635.1 0 -10583.5 54532.6 0 -9508.01 48037.9 0 -8505.33 42122.3 0 -7574.07 36756.6 0 -6712.64 31911 0 -5919.24 27555.4 0 -5191.84 23659.5 0 -4528.19 20192.9 0 -3925.85 17125.4 0 -3382.16 14426.7 0 -2894.27 12067.4 0 -2459.19 10018.2 0 -2073.77 8250.94 0 -1734.76 6738.08 0 -1438.8 5453.28 0 -1182.5 4371.36 0 -962.464 3468.48 0 -775.28 2722.27 0 -617.608 2111.87 0 -486.192 1618.07 0 -377.894 1223.31 0 -289.73 911.713 0 -218.892 669.119 0 -162.775 483.014 0 -118.993 342.505 0 -85.3944 238.232 0 -60.0686 162.282 0 -41.346 108.072 0 -27.7947 70.2222 0 -18.21 44.422 0 -11.5995 27.2906 0 -7.16452 16.2374 0 -4.27795 9.3272 0 -2.46089 5.15436 0 -1.3585 2.72923 0 -0.716472 1.3783 0 -0.359152 0.660409 0 -0.170118 0.298385 0 -0.0756112 0.126266 0 -0.0312866 0.049611 0 -0.0119435 0.0179475 0 -0.00415357 0.00589868 0 -0.00130258 0.00173937 0 -0.000365742 0.000464504 0 -8.49549e-05 0.000111598 0 -1.62943e-05 9.30747e-06 0 -1.44997e-06 1.89695e-05 0 2.00504e-07 9.45852e-06 0 -1.57451e-06 4.16607e-06 0 -4.64427e-06 9.92795e-06 0 2.89302e-06 1.77961e-06 0 3.23086e-06 -5.55901e-06 0 -6.40322e-06 7.05702e-06 0 -4.36417e-07 1.99812e-05 0 3.60543e-06 -4.42126e-05 0 8.30681e-07 2.01755e-05 0 -3.24464e-06 -5.67508e-06 0 1.49529e-06 7.54909e-06 0 3.1801e-07 -2.44568e-05 0 -2.26533e-06 -4.65841e-05 0 -2.55708e+06 3.50516e+06 0 -2.17852e+06 3.60715e+06 0 -1.80522e+06 3.58715e+06 0 -1.48537e+06 3.48309e+06 0 -1.23039e+06 3.33505e+06 0 -1.03241e+06 3.17171e+06 0 -879364 3.00802e+06 0 -759909 2.85119e+06 0 -665460 2.70377e+06 0 -589583 2.56642e+06 0 -527727 2.43871e+06 0 -476549 2.31991e+06 0 -433653 2.20917e+06 0 -397249 2.10564e+06 0 -366017 2.00856e+06 0 -338945 1.91724e+06 0 -315265 1.83109e+06 0 -294373 1.74958e+06 0 -275800 1.67227e+06 0 -259169 1.59876e+06 0 -244179 1.52871e+06 0 -230584 1.46182e+06 0 -218186 1.39785e+06 0 -206819 1.33656e+06 0 -196346 1.27775e+06 0 -186651 1.22127e+06 0 -177640 1.16695e+06 0 -169228 1.11466e+06 0 -161348 1.06428e+06 0 -153940 1.01571e+06 0 -146952 968864 0 -140341 923650 0 -134068 879997 0 -128100 837840 0 -122409 797121 0 -116970 757787 0 -111760 719793 0 -106761 683095 0 -101957 647656 0 -97331.1 613443 0 -92872.2 580423 0 -88568.8 548569 0 -84411.2 517855 0 -80390.9 488258 0 -76500.7 459756 0 -72734.2 432329 0 -69085.9 405958 0 -65551.4 380626 0 -62126.5 356315 0 -58808.1 333010 0 -55593.4 310694 0 -52480.2 289353 0 -49466.6 268970 0 -46551.2 249531 0 -43733 231020 0 -41011.2 213421 0 -38385.1 196717 0 -35854.4 180893 0 -33418.8 165931 0 -31078.2 151812 0 -28832.6 138519 0 -26681.8 126031 0 -24625.9 114328 0 -22664.8 103389 0 -20798.3 93191.2 0 -19026.2 83711.6 0 -17348 74926.2 0 -15763.2 66809.9 0 -14271 59336.8 0 -12870.4 52480.3 0 -11560.3 46213 0 -10339.2 40506.8 0 -9205.45 35333.2 0 -8156.99 30663.1 0 -7191.61 26467.1 0 -6306.79 22715.6 0 -5499.76 19379.1 0 -4767.49 16428 0 -4106.69 13833.1 0 -3513.88 11565.6 0 -2985.36 9597.21 0 -2517.28 7900.45 0 -2105.63 6448.73 0 -1746.35 5216.52 0 -1435.27 4179.47 0 -1168.22 3314.52 0 -941.084 2600.06 0 -749.771 2015.98 0 -590.322 1543.76 0 -458.923 1166.47 0 -351.947 868.855 0 -265.983 637.292 0 -197.872 459.765 0 -144.72 325.819 0 -103.917 226.484 0 -73.1479 154.181 0 -50.3892 102.609 0 -33.9059 66.6273 0 -22.2382 42.1184 0 -14.1836 25.8567 0 -8.77365 15.3727 0 -5.24782 8.82358 0 -3.02486 4.87204 0 -1.67372 2.57749 0 -0.885098 1.30046 0 -0.445073 0.622478 0 -0.211584 0.280938 0 -0.0944438 0.118715 0 -0.0392722 0.0465824 0 -0.0150789 0.016822 0 -0.00528167 0.00551852 0 -0.00166932 0.00161817 0 -0.000471034 0.000424571 0 -0.000112506 0.000109363 0 -2.22738e-05 1.01353e-05 0 -1.91637e-06 1.2067e-05 0 -1.03911e-06 1.23786e-06 0 -7.2048e-07 5.45566e-06 0 -4.79896e-06 8.56441e-06 0 1.35003e-06 -3.45244e-06 0 4.59227e-06 1.73909e-06 0 -5.30239e-06 -6.12627e-06 0 -2.13149e-06 2.17106e-05 0 3.09062e-06 -3.13728e-05 0 2.52655e-06 1.87337e-05 0 -3.88781e-06 1.06121e-05 0 4.8129e-06 7.22239e-05 0 1.28063e-06 1.05446e-05 0 -2.45107e+06 3.24053e+06 0 -2.15814e+06 3.32471e+06 0 -1.86104e+06 3.33083e+06 0 -1.5893e+06 3.27184e+06 0 -1.35687e+06 3.17086e+06 0 -1.16539e+06 3.04737e+06 0 -1.00992e+06 2.91513e+06 0 -884039 2.78212e+06 0 -781565 2.65271e+06 0 -697453 2.52892e+06 0 -627686 2.41156e+06 0 -569211 2.30073e+06 0 -519676 2.19619e+06 0 -477296 2.09755e+06 0 -440689 2.00437e+06 0 -408791 1.9162e+06 0 -380764 1.83261e+06 0 -355950 1.7532e+06 0 -333825 1.67762e+06 0 -313965 1.60556e+06 0 -296029 1.53672e+06 0 -279737 1.47085e+06 0 -264858 1.40774e+06 0 -251202 1.34718e+06 0 -238608 1.28899e+06 0 -226942 1.23303e+06 0 -216092 1.17915e+06 0 -205960 1.12724e+06 0 -196465 1.07717e+06 0 -187536 1.02887e+06 0 -179112 982226 0 -171142 937178 0 -163578 893652 0 -156383 851586 0 -149521 810924 0 -142962 771618 0 -136681 733622 0 -130653 696895 0 -124859 661402 0 -119282 627110 0 -113905 593989 0 -108715 562012 0 -103701 531153 0 -98850.8 501392 0 -94157.1 472706 0 -89611.4 445076 0 -85207.2 418485 0 -80938.6 392915 0 -76800.7 368350 0 -72789.4 344776 0 -68901.3 322176 0 -65133.4 300536 0 -61483.5 279842 0 -57949.7 260079 0 -54530.5 241233 0 -51224.9 223289 0 -48032.1 206231 0 -44951.6 190045 0 -41983 174714 0 -39126.1 160220 0 -36380.9 146548 0 -33747.3 133677 0 -31225.3 121590 0 -28814.9 110265 0 -26516.1 99683.1 0 -24328.5 89821.3 0 -22252 80657.1 0 -20286 72166.9 0 -18429.8 64326.1 0 -16682.5 57109.5 0 -15042.9 50491 0 -13509.6 44443.6 0 -12080.8 38940.1 0 -10754.5 33952.3 0 -9528.29 29452 0 -8399.56 25410.5 0 -7365.27 21798.8 0 -6422.14 18588.3 0 -5566.56 15750 0 -4794.67 13255.6 0 -4102.32 11077.1 0 -3485.18 9187.04 0 -2938.7 7558.71 0 -2458.19 6166.36 0 -2038.84 4985.24 0 -1675.79 3991.79 0 -1364.15 3163.75 0 -1099.09 2480.22 0 -875.837 1921.8 0 -689.755 1470.64 0 -536.392 1110.44 0 -411.513 826.512 0 -311.141 605.769 0 -231.59 436.673 0 -169.486 309.195 0 -121.79 214.739 0 -85.8012 146.048 0 -59.1637 97.1008 0 -39.8552 62.9837 0 -26.1744 39.7699 0 -16.7192 24.3849 0 -10.36 14.4783 0 -6.20899 8.29792 0 -3.58707 4.57428 0 -1.99003 2.41549 0 -1.05556 1.21617 0 -0.53265 0.580713 0 -0.254241 0.261347 0 -0.114019 0.110057 0 -0.0476716 0.0429912 0 -0.0184176 0.0154547 0 -0.0065017 0.00503753 0 -0.00207276 0.00145638 0 -0.000589783 0.00036884 0 -0.000143792 8.63373e-05 0 -2.73683e-05 2.84064e-05 0 -4.48551e-06 8.05837e-06 0 -1.7199e-06 -6.89031e-06 0 7.00078e-07 -1.57838e-06 0 -5.52083e-06 2.62407e-06 0 5.56816e-07 5.08759e-06 0 3.8142e-06 -4.05372e-06 0 -2.40679e-06 1.35906e-05 0 -5.37456e-06 6.19658e-06 0 4.68926e-06 5.00141e-06 0 6.83258e-07 -4.11953e-05 0 -2.34435e-06 -2.10483e-05 0 1.28306e-05 0.000206513 0 -2.36708e+06 3.03012e+06 0 -2.13418e+06 3.09931e+06 0 -1.8922e+06 3.11518e+06 0 -1.66124e+06 3.08315e+06 0 -1.45374e+06 3.01454e+06 0 -1.27422e+06 2.92235e+06 0 -1.12229e+06 2.81701e+06 0 -994866 2.70603e+06 0 -888213 2.59413e+06 0 -798663 2.48418e+06 0 -723058 2.37772e+06 0 -658767 2.27551e+06 0 -603680 2.17783e+06 0 -556104 2.0847e+06 0 -514699 1.99598e+06 0 -478393 1.91144e+06 0 -446330 1.83083e+06 0 -417822 1.7539e+06 0 -392314 1.68038e+06 0 -369350 1.61004e+06 0 -348560 1.54266e+06 0 -329637 1.47803e+06 0 -312326 1.41596e+06 0 -296415 1.3563e+06 0 -281724 1.29887e+06 0 -268104 1.24357e+06 0 -255426 1.19024e+06 0 -243579 1.1388e+06 0 -232472 1.08914e+06 0 -222022 1.04117e+06 0 -212161 994814 0 -202827 949998 0 -193969 906658 0 -185541 864738 0 -177503 824185 0 -169819 784952 0 -162459 746997 0 -155397 710282 0 -148608 674773 0 -142072 640437 0 -135771 607247 0 -129688 575178 0 -123810 544205 0 -118124 514306 0 -112620 485463 0 -107288 457656 0 -102121 430869 0 -97110.9 405085 0 -92252.2 380289 0 -87539.9 356466 0 -82969.8 333603 0 -78538.3 311685 0 -74242.5 290699 0 -70080.2 270631 0 -66049.4 251469 0 -62148.9 233196 0 -58377.5 215801 0 -54734.6 199268 0 -51219.6 183582 0 -47832.4 168727 0 -44572.8 154688 0 -41440.7 141447 0 -38436.3 128985 0 -35559.6 117285 0 -32810.5 106327 0 -30189.1 96090.8 0 -27694.9 86554.1 0 -25327.8 77695.1 0 -23087 69490.7 0 -20971.9 61916.7 0 -18981.2 54948.4 0 -17113.7 48560.2 0 -15367.6 42725.9 0 -13740.8 37418.5 0 -12231.1 32610.7 0 -10835.6 28274.9 0 -9551.25 24383 0 -8374.62 20906.9 0 -7301.89 17818.4 0 -6328.91 15089.6 0 -5451.24 12692.7 0 -4664.14 10600.6 0 -3962.61 8786.55 0 -3341.47 7224.71 0 -2795.36 5890.07 0 -2318.78 4758.68 0 -1906.19 3807.71 0 -1552.03 3015.64 0 -1250.77 2362.3 0 -997.009 1828.97 0 -785.465 1398.42 0 -611.081 1054.97 0 -469.046 784.486 0 -354.846 574.395 0 -264.296 413.617 0 -193.571 292.536 0 -139.219 202.921 0 -98.1795 137.828 0 -67.7773 91.5037 0 -45.718 59.2597 0 -30.07 37.3533 0 -19.2406 22.8588 0 -11.9457 13.5426 0 -7.17538 7.74252 0 -4.15598 4.25601 0 -2.31239 2.24002 0 -1.23066 1.12344 0 -0.623397 0.533953 0 -0.298873 0.238945 0 -0.134719 0.0999344 0 -0.056658 0.038699 0 -0.0220391 0.0137398 0 -0.00784155 0.00442775 0 -0.00252492 0.00125907 0 -0.000724895 0.000306824 0 -0.000179525 5.57361e-05 0 -3.48928e-05 2.21656e-05 0 -6.34002e-06 5.53483e-06 0 -1.96294e-06 9.85459e-07 0 3.32994e-07 -1.00753e-05 0 -5.68872e-06 -6.00372e-07 0 -1.94068e-07 2.17204e-06 0 3.71319e-06 -1.40039e-05 0 -1.81876e-06 -1.76665e-06 0 -4.73436e-06 1.77489e-05 0 5.13396e-06 4.76224e-05 0 -8.03943e-07 -2.1908e-05 0 6.9918e-06 5.87667e-05 0 -2.30474e+06 2.85499e+06 0 -2.11121e+06 2.91217e+06 0 -1.90958e+06 2.93207e+06 0 -1.7121e+06 2.91567e+06 0 -1.52814e+06 2.86925e+06 0 -1.36296e+06 2.80064e+06 0 -1.21807e+06 2.71748e+06 0 -1.09275e+06 2.62585e+06 0 -985036 2.53026e+06 0 -892598 2.43373e+06 0 -813120 2.33824e+06 0 -744528 2.24495e+06 0 -685028 2.15455e+06 0 -633122 2.06737e+06 0 -587568 1.98353e+06 0 -547348 1.90303e+06 0 -511621 1.82579e+06 0 -479703 1.75166e+06 0 -451026 1.6805e+06 0 -425122 1.61216e+06 0 -401603 1.54647e+06 0 -380143 1.48328e+06 0 -360472 1.42245e+06 0 -342361 1.36384e+06 0 -325615 1.30733e+06 0 -310070 1.2528e+06 0 -295585 1.20015e+06 0 -282040 1.14928e+06 0 -269330 1.10012e+06 0 -257367 1.05257e+06 0 -246072 1.00657e+06 0 -235378 962058 0 -225225 918969 0 -215563 877252 0 -206346 836860 0 -197534 797749 0 -189092 759881 0 -180991 723219 0 -173203 687732 0 -165704 653389 0 -158473 620166 0 -151492 588036 0 -144745 556979 0 -138218 526973 0 -131897 498000 0 -125773 470043 0 -119836 443085 0 -114078 417111 0 -108492 392107 0 -103071 368059 0 -97811 344954 0 -92707.7 322779 0 -87757.3 301521 0 -82957.2 281167 0 -78305.1 261706 0 -73799.2 243123 0 -69438.1 225407 0 -65221 208543 0 -61147.3 192517 0 -57216.6 177316 0 -53428.7 162923 0 -49783.5 149323 0 -46281.3 136499 0 -42922 124434 0 -39705.7 113110 0 -36632.6 102507 0 -33702.4 92604.5 0 -30915 83382.8 0 -28269.9 74819.4 0 -25766.4 66891.8 0 -23403.7 59576.2 0 -21180.4 52848.5 0 -19094.9 46683.5 0 -17145.4 41055.5 0 -15329.5 35938.3 0 -13644.5 31305.1 0 -12087.3 27128.7 0 -10654.3 23382 0 -9341.69 20037.3 0 -8145.14 17067.4 0 -7059.99 14444.8 0 -6081.23 12142.7 0 -5203.54 10134.5 0 -4421.33 8394.46 0 -3728.78 6897.35 0 -3119.88 5618.94 0 -2588.5 4536.02 0 -2128.44 3626.52 0 -1733.49 2869.62 0 -1397.49 2245.82 0 -1114.4 1737.07 0 -878.358 1326.75 0 -683.714 999.776 0 -525.118 742.55 0 -397.544 542.983 0 -296.335 390.447 0 -217.233 275.727 0 -156.398 190.939 0 -110.424 129.451 0 -76.3309 85.7654 0 -51.565 55.416 0 -33.9734 34.8401 0 -21.7801 21.258 0 -13.552 12.5516 0 -8.16035 7.14763 0 -4.73978 3.91079 0 -2.64566 2.04696 0 -1.41317 1.01974 0 -0.718826 0.480672 0 -0.346265 0.212884 0 -0.156936 0.0878632 0 -0.0664176 0.0334381 0 -0.0260223 0.0115827 0 -0.00933685 0.00361444 0 -0.00303642 0.000984026 0 -0.000880415 0.00022986 0 -0.000222319 3.10758e-05 0 -4.31536e-05 1.92147e-05 0 -8.57099e-06 9.69614e-06 0 -3.11896e-06 9.00971e-07 0 4.15428e-08 -4.40752e-06 0 -5.35401e-06 -1.22301e-05 0 2.23935e-07 2.00972e-05 0 3.68357e-06 -2.84391e-06 0 -2.55206e-06 -2.84035e-05 0 -2.6019e-06 8.36329e-06 0 2.6195e-06 4.04564e-05 0 -3.36737e-06 -3.99561e-06 0 -2.2538e+06 2.70583e+06 0 -2.09053e+06 2.75369e+06 0 -1.91941e+06 2.77406e+06 0 -1.74888e+06 2.76709e+06 0 -1.586e+06 2.73565e+06 0 -1.43539e+06 2.68462e+06 0 -1.29943e+06 2.61916e+06 0 -1.17859e+06 2.54404e+06 0 -1.07222e+06 2.46304e+06 0 -979008 2.37909e+06 0 -897440 2.29422e+06 0 -825980 2.20984e+06 0 -763209 2.12689e+06 0 -707867 2.04592e+06 0 -658864 1.96728e+06 0 -615272 1.89114e+06 0 -576306 1.81755e+06 0 -541306 1.74652e+06 0 -509717 1.67799e+06 0 -481073 1.61188e+06 0 -454980 1.54811e+06 0 -431106 1.48656e+06 0 -409170 1.42714e+06 0 -388932 1.36974e+06 0 -370188 1.31428e+06 0 -352762 1.26067e+06 0 -336506 1.20881e+06 0 -321288 1.15863e+06 0 -306996 1.11005e+06 0 -293534 1.06301e+06 0 -280816 1.01745e+06 0 -268768 973310 0 -257326 930536 0 -246432 889082 0 -236037 848906 0 -226097 809968 0 -216573 772233 0 -207431 735668 0 -198641 700244 0 -190176 665933 0 -182012 632711 0 -174130 600556 0 -166509 569446 0 -159136 539363 0 -151994 510290 0 -145073 482209 0 -138361 455107 0 -131849 428968 0 -125529 403781 0 -119393 379530 0 -113436 356206 0 -107654 333794 0 -102041 312285 0 -96594.7 291665 0 -91312.1 271924 0 -86191.2 253049 0 -81230.3 235029 0 -76428.3 217851 0 -71784.2 201501 0 -67297.7 185967 0 -62968.5 171235 0 -58796.5 157289 0 -54781.8 144115 0 -50924.7 131696 0 -47225.2 120015 0 -43683.5 109054 0 -40299.7 98794.6 0 -37073.7 89216.9 0 -34005.1 80300.4 0 -31093.7 72023.6 0 -28338.5 64364.2 0 -25738.5 57299.2 0 -23292.2 50804.8 0 -20998 44856.2 0 -18853.7 39428.4 0 -16856.5 34495.7 0 -15003.5 30031.9 0 -13291.3 26010.4 0 -11715.8 22404.6 0 -10272.9 19187.7 0 -8957.61 16332.9 0 -7764.87 13813.7 0 -6689.12 11603.8 0 -5724.48 9677.39 0 -4864.78 8009.41 0 -4103.59 6575.42 0 -3434.3 5351.91 0 -2850.17 4316.38 0 -2344.37 3447.46 0 -1910.07 2725.02 0 -1540.51 2130.22 0 -1229.06 1645.63 0 -969.276 1255.25 0 -754.968 944.545 0 -580.265 700.439 0 -439.653 511.32 0 -328.027 366.992 0 -240.716 258.628 0 -173.509 178.687 0 -122.666 120.832 0 -84.9201 79.8227 0 -57.4634 51.4053 0 -37.931 32.1954 0 -24.3689 19.5574 0 -15.1991 11.4874 0 -9.17692 6.50116 0 -5.34651 3.53056 0 -2.99464 1.83107 0 -1.60584 0.901819 0 -0.820466 0.418948 0 -0.397228 0.182054 0 -0.181075 0.0732491 0 -0.0771414 0.0269087 0 -0.0304508 0.0088582 0 -0.0110232 0.00253454 0 -0.00361951 0.000602798 0 -0.0010638 9.58349e-05 0 -0.000271207 -2.85851e-07 0 -5.33919e-05 4.5804e-06 0 -1.10574e-05 6.4318e-06 0 -3.13924e-06 9.05278e-06 0 -1.75364e-06 -1.01664e-05 0 -5.14952e-06 -2.31007e-05 0 1.15262e-06 1.42493e-05 0 2.86673e-06 8.64758e-06 0 -2.74254e-06 -2.71201e-05 0 -1.15934e-06 -1.35583e-05 0 -6.2029e-07 -3.05614e-06 0 -2.21351e+06 2.57587e+06 0 -2.07251e+06 2.61629e+06 0 -1.92493e+06 2.63609e+06 0 -1.77628e+06 2.63461e+06 0 -1.63165e+06 2.6134e+06 0 -1.49493e+06 2.5753e+06 0 -1.36856e+06 2.5238e+06 0 -1.25364e+06 2.46239e+06 0 -1.15029e+06 2.39415e+06 0 -1.05798e+06 2.32161e+06 0 -975832 2.24674e+06 0 -902804 2.17101e+06 0 -837842 2.09545e+06 0 -779947 2.02079e+06 0 -728208 1.94751e+06 0 -681818 1.87594e+06 0 -640069 1.80625e+06 0 -602353 1.73855e+06 0 -568143 1.67288e+06 0 -536991 1.60922e+06 0 -508509 1.54755e+06 0 -482368 1.48783e+06 0 -458284 1.42999e+06 0 -436012 1.37397e+06 0 -415344 1.3197e+06 0 -396098 1.26712e+06 0 -378116 1.21617e+06 0 -361262 1.16678e+06 0 -345417 1.11889e+06 0 -330479 1.07244e+06 0 -316355 1.0274e+06 0 -302968 983703 0 -290246 941311 0 -278128 900182 0 -266561 860279 0 -255497 821567 0 -244892 784014 0 -234710 747591 0 -224918 712273 0 -215486 678033 0 -206388 644850 0 -197601 612704 0 -189105 581575 0 -180882 551447 0 -172916 522302 0 -165194 494127 0 -157702 466907 0 -150431 440630 0 -143372 415283 0 -136516 390855 0 -129856 367333 0 -123388 344708 0 -117106 322968 0 -111006 302102 0 -105085 282101 0 -99340 262953 0 -93769.9 244646 0 -88372.9 227170 0 -83147.8 210513 0 -78094.2 194662 0 -73211.6 179605 0 -68499.9 165327 0 -63959.3 151815 0 -59589.9 139053 0 -55392 127027 0 -51365.9 115718 0 -47511.7 105110 0 -43829.6 95183.6 0 -40319.4 85920.4 0 -36980.9 77299.9 0 -33813.6 69301.1 0 -30816.6 61902.1 0 -27988.7 55080.2 0 -25328.4 48812.1 0 -22833.6 43073.7 0 -20502 37840.4 0 -18330.7 33086.9 0 -16316.3 28787.6 0 -14455 24916.6 0 -12742.6 21447.9 0 -11174.2 18355.3 0 -9744.67 15612.7 0 -8448.32 13194.1 0 -7279.11 11074.1 0 -6230.63 9227.5 0 -5296.15 7629.93 0 -4468.68 6257.65 0 -3741.01 5087.88 0 -3105.82 4098.79 0 -2555.69 3269.69 0 -2083.2 2581.12 0 -1681.03 2014.87 0 -1341.96 1554.14 0 -1059.01 1183.48 0 -825.478 888.909 0 -634.989 657.852 0 -481.568 479.158 0 -359.677 343.053 0 -264.252 241.083 0 -190.724 166.04 0 -135.035 111.876 0 -93.6364 73.6007 0 -63.4782 47.1712 0 -41.9876 29.3776 0 -27.0374 17.7267 0 -16.9071 10.3288 0 -10.2379 5.78838 0 -5.98415 3.10542 0 -3.36414 1.58594 0 -1.81148 0.765633 0 -0.929877 0.346327 0 -0.452591 0.145044 0 -0.207558 0.055304 0 -0.0890299 0.0187019 0 -0.0354184 0.00533465 0 -0.0129351 0.00113132 0 -0.00429121 7.88702e-05 0 -0.00127556 -6.84029e-05 0 -0.000328676 -4.20868e-05 0 -6.8948e-05 -2.09524e-05 0 -1.34169e-05 -1.0566e-05 0 -3.3661e-06 1.47714e-05 0 -2.36505e-06 4.64135e-06 0 -4.5318e-06 -2.02312e-05 0 4.30031e-07 3.10785e-07 0 1.96587e-06 3.86371e-06 0 -1.82479e-06 -8.61334e-06 0 5.48628e-06 5.75683e-05 0 -2.18004e+06 2.46117e+06 0 -2.05701e+06 2.49563e+06 0 -1.92811e+06 2.51405e+06 0 -1.7973e+06 2.51584e+06 0 -1.66834e+06 2.5016e+06 0 -1.54433e+06 2.47302e+06 0 -1.42752e+06 2.43239e+06 0 -1.31922e+06 2.38221e+06 0 -1.22001e+06 2.32487e+06 0 -1.12984e+06 2.26249e+06 0 -1.04833e+06 2.196