<?xml version="1.0"?> 
<VTKFile type="StructuredGrid" version="0.1"> 
<StructuredGrid WholeExtent="0 127 0 127 0 0"> 
<Piece Extent="0 127 0 127 0 0"> 
<PointData>
<DataArray type="Float32" Name="E" format="ascii" NumberOfComponents="3"> 
0 -775543 0 51856.9 -711831 0 60462.2 -719938 0 88900.7 -715672 0 115059 -715725 0 144381 -712208 0 173349 -707944 0 202696 -701745 0 231635 -694161 0 260141 -685089 0 287966 -674720 0 315014 -663138 0 341176 -650475 0 366387 -636841 0 390594 -622354 0 413764 -607119 0 435879 -591239 0 456928 -574809 0 476915 -557917 0 495846 -540644 0 513736 -523065 0 530604 -505246 0 546473 -487250 0 561367 -469132 0 575315 -450940 0 588345 -432720 0 600486 -414512 0 611769 -396350 0 622222 -378266 0 631875 -360286 0 640759 -342436 0 648900 -324735 0 656328 -307203 0 663069 -289854 0 669149 -272704 0 674593 -255762 0 679426 -239039 0 683670 -222544 0 687348 -206282 0 690481 -190261 0 693090 -174483 0 695193 -158953 0 696809 -143673 0 697956 -128646 0 698651 -113872 0 698909 -99351.6 0 698747 -85085.8 0 698178 -71073.8 0 697216 -57314.8 0 695875 -43808 0 694167 -30551.8 0 692104 -17544.8 0 689699 -4785.02 0 686961 7729.48 0 683901 20000.9 0 680530 32031.4 0 676857 43823.6 0 672891 55379.7 0 668642 66702.5 0 664117 77794.6 0 659326 88658.4 0 654274 99296.9 0 648972 109713 0 643425 119908 0 637640 129886 0 631625 139650 0 625386 149202 0 618929 158544 0 612260 167680 0 605385 176611 0 598311 185342 0 591042 193873 0 583584 202208 0 575943 210349 0 568122 218298 0 560128 226059 0 551965 233632 0 543638 241022 0 535151 248229 0 526509 255256 0 517716 262105 0 508777 268779 0 499695 275279 0 490475 281607 0 481122 287766 0 471637 293757 0 462027 299582 0 452294 305243 0 442442 310742 0 432475 316081 0 422396 321260 0 412209 326283 0 401918 331149 0 391525 335862 0 381035 340422 0 370450 344831 0 359774 349090 0 349010 353201 0 338161 357164 0 327231 360982 0 316222 364655 0 305138 368184 0 293982 371571 0 282756 374817 0 271464 377923 0 260109 380889 0 248693 383717 0 237220 386407 0 225693 388961 0 214113 391379 0 202485 393662 0 190810 395811 0 179093 397826 0 167335 399708 0 155539 401458 0 143708 403076 0 131845 404563 0 119953 405918 0 108033 407144 0 96090 408239 0 84125.4 409205 0 72142.1 410042 0 60142.8 410749 0 48130.2 411328 0 36107 411778 0 24075.8 412099 0 12039.2 412292 0 0 412357 0 0 -743782 0 43020.9 -713239 0 61828.3 -710062 0 87708.9 -708267 0 114668 -706399 0 143039 -703257 0 171734 -698677 0 200511 -692623 0 229030 -685115 0 257093 -676241 0 284531 -666090 0 311219 -654771 0 337061 -642393 0 361986 -629065 0 385941 -614896 0 408893 -599988 0 430818 -584439 0 451708 -568342 0 471561 -551782 0 490382 -534837 0 508185 -517581 0 524987 -500079 0 540807 -482392 0 555670 -464575 0 569601 -446676 0 582627 -428741 0 594775 -410807 0 606076 -392910 0 616557 -375082 0 626246 -357350 0 635172 -339737 0 643363 -322266 0 650845 -304954 0 657645 -287818 0 663788 -270872 0 669299 -254127 0 674201 -237594 0 678517 -221280 0 682269 -205194 0 685478 -189341 0 688163 -173726 0 690344 -158353 0 692039 -143224 0 693265 -128343 0 694040 -113709 0 694378 -99324.5 0 694295 -85189.5 0 693805 -71303.9 0 692923 -57667.1 0 691660 -44278.3 0 690031 -31136.3 0 688046 -18239.7 0 685718 -5586.81 0 683057 6824.21 0 680073 18995.4 0 676778 30928.8 0 673179 42626.8 0 669287 54091.7 0 665111 65325.9 0 660658 76332.1 0 655938 87112.6 0 650957 97670.1 0 645724 108007 0 640246 118126 0 634529 128031 0 628581 137722 0 622408 147204 0 616017 156478 0 609413 165548 0 602602 174415 0 595591 183083 0 588384 191553 0 580988 199829 0 573407 207913 0 565646 215806 0 557711 223512 0 549607 231033 0 541337 238371 0 532907 245528 0 524322 252507 0 515585 259309 0 506700 265937 0 497673 272393 0 488507 278678 0 479207 284795 0 469775 290745 0 460217 296531 0 450535 302154 0 440734 307616 0 430817 312918 0 420788 318063 0 410651 323051 0 400408 327885 0 390064 332567 0 379621 337096 0 369084 341475 0 358455 345706 0 347738 349789 0 336935 353727 0 326051 357519 0 315087 361167 0 304048 364673 0 292937 368038 0 281755 371262 0 270507 374347 0 259196 377294 0 247824 380103 0 236394 382776 0 224909 385313 0 213372 387715 0 201786 389983 0 190154 392117 0 178479 394119 0 166762 395989 0 155008 397727 0 143219 399335 0 131397 400812 0 119546 402159 0 107668 403376 0 95765.2 404464 0 83841.4 405424 0 71898.9 406255 0 59940.2 406958 0 47968.2 407533 0 35985.5 407980 0 23994.8 408299 0 11998.7 408491 0 0 408555 0 0 -723464 0 37768.3 -707873 0 61413.9 -702026 0 86923.3 -700039 0 113899 -697578 0 141778 -694287 0 170060 -689628 0 198374 -683615 0 226462 -676220 0 254113 -667516 0 281170 -657580 0 307510 -646510 0 333038 -634406 0 357682 -621373 0 381389 -607512 0 404123 -592921 0 425862 -577695 0 446592 -561922 0 466310 -545685 0 485021 -529061 0 502736 -512121 0 519468 -494930 0 535237 -477547 0 550066 -460027 0 563976 -442416 0 576996 -424761 0 589149 -407098 0 600465 -389464 0 610971 -371889 0 620693 -354401 0 629659 -337024 0 637896 -319781 0 645430 -302688 0 652287 -285763 0 658490 -269020 0 664065 -252471 0 669035 -236126 0 673421 -219994 0 677244 -204083 0 680527 -188398 0 683287 -172946 0 685544 -157729 0 687316 -142751 0 688620 -128015 0 689472 -113521 0 689888 -99272.5 0 689883 -85268.3 0 689472 -71509.1 0 688667 -57994.6 0 687483 -44723.9 0 685931 -31696.2 0 684023 -18910.2 0 681771 -6364.39 0 679185 5942.94 0 676277 18013.6 0 673055 29849.7 0 669531 41453.3 0 665712 52826.7 0 661607 63972.2 0 657226 74892.1 0 652576 85589 0 647666 96065.3 0 642501 106324 0 637091 116366 0 631442 126196 0 625560 135815 0 619453 145227 0 613126 154433 0 606586 163436 0 599839 172239 0 592890 180843 0 585745 189253 0 578410 197469 0 570889 205495 0 563188 213333 0 555312 220984 0 547265 228452 0 539053 235739 0 530680 242846 0 522150 249776 0 513468 256531 0 504639 263113 0 495665 269523 0 486553 275765 0 477305 281840 0 467925 287750 0 458419 293496 0 448788 299080 0 439037 304505 0 429171 309771 0 419191 314881 0 409102 319835 0 398908 324637 0 388612 329286 0 378217 333785 0 367727 338135 0 357145 342337 0 346473 346393 0 335717 350304 0 324878 354070 0 313960 357694 0 302965 361177 0 291898 364519 0 280761 367722 0 269557 370786 0 258289 373713 0 246960 376503 0 235573 379158 0 224131 381678 0 212636 384064 0 201092 386317 0 189502 388437 0 177868 390426 0 166194 392283 0 154481 394010 0 142733 395607 0 130952 397074 0 119142 398412 0 107304 399621 0 95442.6 400702 0 83559.3 401655 0 71657.2 402481 0 59739 403179 0 47807.3 403750 0 35864.9 404194 0 23914.4 404511 0 11958.5 404702 0 0 404765 0 0 -708461 0 34430.2 -699991 0 60411.5 -694191 0 86131.5 -691675 0 112983 -688918 0 140501 -685430 0 168375 -680726 0 196265 -674744 0 223936 -667457 0 251192 -658914 0 277881 -649183 0 303883 -638352 0 329104 -626513 0 353472 -613764 0 376934 -600201 0 399454 -585918 0 421006 -571005 0 441576 -555547 0 461160 -539626 0 479760 -523316 0 497384 -506686 0 514046 -489800 0 529762 -472716 0 544553 -455487 0 558441 -438161 0 571451 -420781 0 583607 -403386 0 594936 -386011 0 605463 -368687 0 615215 -351441 0 624219 -334298 0 632500 -317280 0 640083 -300405 0 646993 -283690 0 653256 -267149 0 658893 -250794 0 663927 -234637 0 668380 -218686 0 672274 -202949 0 675628 -187432 0 678461 -172141 0 680792 -157080 0 682640 -142253 0 684019 -127662 0 684948 -113309 0 685441 -99195.9 0 685513 -85322.6 0 685178 -71689.9 0 684450 -58297.6 0 683342 -45145.2 0 681866 -32231.9 0 680034 -19556.7 0 677857 -7118.11 0 675346 5085.34 0 672511 17055.4 0 669363 28793.9 0 665911 40302.9 0 662164 51584.5 0 658132 62641 0 653821 73474.5 0 649241 84087.5 0 644399 94482.4 0 639303 104662 0 633960 114627 0 628378 124382 0 622562 133929 0 616520 143270 0 610257 152407 0 603781 161344 0 597096 170082 0 590209 178624 0 583126 186972 0 575850 195129 0 568389 203097 0 560747 210878 0 552929 218475 0 544940 225890 0 536785 233124 0 528468 240181 0 519993 247062 0 511366 253769 0 502591 260305 0 493671 266671 0 484612 272870 0 475416 278902 0 466089 284770 0 456633 290477 0 447053 296023 0 437353 301410 0 427535 306640 0 417605 311714 0 407565 316635 0 397419 321403 0 387170 326021 0 376823 330489 0 366379 334809 0 355843 338983 0 345218 343011 0 334507 346895 0 323713 350636 0 312840 354236 0 301890 357694 0 290867 361014 0 279773 364195 0 268613 367238 0 257388 370146 0 246102 372917 0 234757 375554 0 223357 378057 0 211905 380427 0 200403 382665 0 188855 384771 0 177262 386746 0 165629 388591 0 153957 390306 0 142250 391892 0 130510 393349 0 118740 394678 0 106943 395879 0 95122.1 396953 0 83279.1 397900 0 71417.2 398719 0 59539.1 399413 0 47647.5 399980 0 35745 400421 0 23834.5 400736 0 11918.6 400925 0 0 400989 0 0 -696149 0 32227.4 -691203 0 59237 -686192 0 85272.4 -683305 0 111982 -680346 0 139196 -676694 0 166687 -671952 0 194178 -666003 0 221452 -658819 0 248329 -650431 0 274661 -640897 0 300334 -630295 0 325254 -618711 0 349352 -606236 0 372574 -592962 0 394882 -578977 0 416249 -564369 0 436660 -549220 0 456109 -533607 0 474596 -517604 0 492129 -501277 0 508718 -484690 0 524379 -467900 0 539131 -450957 0 552994 -433911 0 565992 -416803 0 578148 -399672 0 589486 -382553 0 600033 -365477 0 609813 -348471 0 618851 -331560 0 627173 -314765 0 634803 -298106 0 641765 -281599 0 648083 -265259 0 653780 -249098 0 658877 -233127 0 663396 -217356 0 667358 -201792 0 670781 -186443 0 673686 -171314 0 676089 -156409 0 678010 -141732 0 679464 -127286 0 680467 -113073 0 681035 -99095.2 0 681183 -85352.8 0 680923 -71846.6 0 680271 -58576.6 0 679238 -45542.6 0 677836 -32743.9 0 676079 -20179.5 0 673976 -7848.29 0 671539 4251.11 0 668777 16120.3 0 665702 27761.1 0 662322 39175.3 0 658646 50364.9 0 654683 61332.1 0 650443 72079 0 645931 82607.9 0 641158 92921.1 0 636129 103021 0 630853 112910 0 625337 122590 0 619586 132064 0 613608 141334 0 607410 150402 0 600996 159272 0 594374 167945 0 587548 176424 0 580525 184710 0 573310 192808 0 565908 200717 0 558324 208442 0 550564 215984 0 542632 223345 0 534533 230528 0 526271 237534 0 517852 244366 0 509279 251025 0 500558 257515 0 491691 263836 0 482684 269990 0 473541 275980 0 464265 281808 0 454860 287474 0 445330 292981 0 435679 298330 0 425911 303524 0 416030 308563 0 406038 313450 0 395940 318185 0 385738 322771 0 375438 327208 0 365041 331498 0 354551 335643 0 343971 339643 0 333305 343501 0 322556 347216 0 311727 350791 0 300822 354226 0 289842 357523 0 278792 360682 0 267675 363705 0 256493 366592 0 245249 369344 0 233947 371963 0 222589 374449 0 211179 376803 0 199719 379025 0 188212 381117 0 176660 383079 0 165068 384911 0 153437 386614 0 141770 388189 0 130071 389637 0 118342 390957 0 106585 392150 0 94803.7 393216 0 83000.8 394156 0 71178.8 394971 0 59340.5 395660 0 47488.7 396223 0 35626 396661 0 23755.2 396974 0 11879 397162 0 0 397225 0 0 -685275 0 30696.2 -682170 0 58080.2 -677999 0 84348.1 -674952 0 110927 -671844 0 137864 -668071 0 164999 -663298 0 192113 -657387 0 219009 -650303 0 245520 -642062 0 271507 -632717 0 296860 -622336 0 321488 -610998 0 345321 -598789 0 368306 -585794 0 390404 -572099 0 411587 -557787 0 431840 -542938 0 451154 -527627 0 469528 -511923 0 486968 -495895 0 503483 -479601 0 519087 -463098 0 533798 -446438 0 547634 -429667 0 560617 -412827 0 572770 -395957 0 584116 -379091 0 594679 -362260 0 604484 -345492 0 613555 -328810 0 621915 -312237 0 629590 -295792 0 636602 -279491 0 642973 -263351 0 648727 -247382 0 653885 -231597 0 658468 -216005 0 662495 -200615 0 665986 -185432 0 668960 -170464 0 671435 -155714 0 673427 -141188 0 674954 -126887 0 676030 -112814 0 676672 -98971 0 676893 -85359.4 0 676708 -71979.7 0 676130 -58832.1 0 675170 -45916.4 0 673843 -33232.3 0 672159 -20778.9 0 670129 -8555.28 0 667764 3439.91 0 665075 15208.1 0 662071 26750.9 0 658762 38070.1 0 655156 49167.5 0 651263 60045.2 0 647091 70705.3 0 642648 81149.8 0 637942 91381.1 0 632981 101401 0 627771 111213 0 622319 120818 0 616633 130219 0 610719 139418 0 604584 148417 0 598232 157220 0 591671 165827 0 584906 174243 0 577943 182468 0 570788 190505 0 563444 198356 0 555919 206024 0 548215 213511 0 540340 220818 0 532297 227949 0 524091 234904 0 515726 241687 0 507207 248298 0 498539 254741 0 489726 261017 0 480771 267128 0 471679 273075 0 462453 278861 0 453099 284487 0 443619 289955 0 434018 295267 0 424299 300424 0 414466 305427 0 404522 310280 0 394471 314982 0 384317 319535 0 374062 323941 0 363711 328202 0 353267 332318 0 342733 336290 0 332112 340120 0 321407 343810 0 310623 347360 0 299761 350771 0 288825 354045 0 277818 357182 0 266744 360184 0 255604 363051 0 244403 365785 0 233143 368386 0 221827 370854 0 210458 373192 0 199039 375399 0 187573 377476 0 176063 379424 0 164511 381244 0 152920 382936 0 141294 384500 0 129635 385937 0 117946 387248 0 106229 388433 0 94487.6 389492 0 82724.4 390426 0 70942.1 391235 0 59143.4 391919 0 47331 392478 0 35507.8 392913 0 23676.4 393224 0 11839.6 393411 0 0 393473 0 0 -675237 0 29581.1 -673142 0 57000.9 -669677 0 83385.9 -666615 0 109835 -663407 0 136511 -659551 0 163315 -654758 0 190070 -648890 0 216604 -641902 0 242763 -633805 0 268417 -624641 0 293459 -614473 0 317801 -603372 0 341374 -591420 0 364126 -578696 0 386017 -565283 0 407019 -551260 0 427114 -536703 0 446293 -521685 0 464554 -506276 0 481899 -490538 0 498339 -474532 0 513884 -458313 0 528552 -441930 0 542359 -425430 0 555325 -408855 0 567473 -392242 0 578824 -375626 0 589402 -359037 0 599229 -342503 0 608330 -326049 0 616727 -309696 0 624443 -293463 0 631502 -277368 0 637925 -261425 0 643735 -245648 0 648951 -230048 0 653595 -214634 0 657686 -199416 0 661243 -184400 0 664285 -169592 0 666828 -154998 0 668891 -140620 0 670488 -126464 0 671637 -112531 0 672351 -98823.7 0 672645 -85342.8 0 672532 -72089.5 0 672026 -59064.3 0 671140 -46267.1 0 669885 -33697.7 0 668273 -21355.4 0 666315 -9239.4 0 664022 2651.44 0 661404 14318.4 0 658470 25763.1 0 655231 36987.1 0 651695 47992.1 0 647871 58780.2 0 643767 69353.1 0 639392 79713.1 0 634752 89862.2 0 629857 99802.6 0 624712 109536 0 619325 119066 0 613703 128394 0 607852 137521 0 601779 146452 0 595489 155187 0 588989 163729 0 582285 172081 0 575381 180244 0 568284 188221 0 560999 196013 0 553531 203624 0 545884 211055 0 538065 218309 0 530077 225387 0 521926 232292 0 513616 239025 0 505150 245588 0 496535 251984 0 487774 258215 0 478871 264281 0 469830 270186 0 460655 275930 0 451351 281516 0 441921 286945 0 432368 292218 0 422698 297339 0 412912 302307 0 403016 307125 0 393012 311793 0 382905 316314 0 372697 320690 0 362391 324920 0 351992 329006 0 341503 332951 0 330927 336754 0 320266 340418 0 309526 343943 0 298707 347330 0 287815 350581 0 276851 353696 0 265819 356677 0 254722 359524 0 243562 362239 0 232344 364821 0 221069 367273 0 209742 369594 0 198364 371786 0 186939 373848 0 175469 375783 0 163957 377590 0 152407 379270 0 140821 380823 0 129202 382250 0 117552 383552 0 105875 384729 0 94173.6 385781 0 82449.9 386708 0 70706.9 387511 0 58947.5 388190 0 47174.4 388746 0 35390.4 389178 0 23598.2 389486 0 11800.4 389672 0 0 389734 0 0 -665723 0 28730.1 -664213 0 56012.8 -661294 0 82409.4 -658298 0 108718 -655035 0 135145 -651127 0 161635 -646327 0 188050 -640505 0 214237 -633613 0 240058 -625654 0 265389 -616666 0 290128 -606703 0 314191 -595832 0 337510 -584128 0 360033 -571668 0 381719 -558528 0 402541 -544785 0 422480 -530514 0 441524 -515783 0 459671 -500661 0 476922 -485209 0 493285 -469485 0 508770 -453543 0 523392 -437433 0 537168 -421200 0 550116 -404886 0 562256 -388527 0 573610 -372157 0 584199 -355808 0 594047 -339507 0 603175 -323278 0 611606 -307142 0 619362 -291120 0 626466 -275229 0 632938 -259483 0 638801 -243897 0 644074 -228480 0 648777 -213244 0 652930 -198197 0 656552 -183347 0 659659 -168699 0 662270 -154259 0 664401 -140031 0 666068 -126019 0 667287 -112226 0 668072 -98653.6 0 668437 -85303.4 0 668396 -72176.5 0 667961 -59273.6 0 667147 -46594.9 0 665963 -34140.3 0 664422 -21909.2 0 662535 -9901 0 660313 1885.36 0 657764 13451 0 654901 24797.4 0 651730 35926 0 648263 46838.5 0 644507 57536.6 0 640470 68022.3 0 636161 78297.5 0 631588 88364.2 0 626758 98224.6 0 621678 107881 0 616355 117335 0 610796 126589 0 605007 135645 0 598996 144506 0 592767 153173 0 586328 161650 0 579683 169938 0 572838 178038 0 565800 185955 0 558572 193689 0 551161 201242 0 543571 208618 0 535807 215817 0 527874 222843 0 519777 229696 0 511520 236380 0 503108 242895 0 494546 249244 0 485836 255429 0 476984 261451 0 467994 267312 0 458870 273015 0 449615 278560 0 440234 283950 0 430730 289185 0 421108 294269 0 411370 299201 0 401521 303984 0 391564 308620 0 381503 313108 0 371341 317452 0 361081 321652 0 350727 325710 0 340282 329626 0 329750 333402 0 319134 337040 0 308436 340540 0 297661 343903 0 286811 347131 0 275890 350224 0 264900 353184 0 253845 356011 0 242728 358706 0 231551 361270 0 220317 363704 0 209031 366009 0 197694 368185 0 186309 370234 0 174879 372154 0 163408 373949 0 151898 375617 0 140352 377159 0 128772 378576 0 117162 379869 0 105524 381037 0 93861.8 382082 0 82177.3 383002 0 70473.4 383800 0 58753.1 384474 0 47018.9 385026 0 35273.8 385455 0 23520.5 385761 0 11761.6 385945 0 0 386007 0 0 -656567 0 28052 -655410 0 55110.2 -652901 0 81435.5 -650010 0 107588 -646728 0 133771 -642793 0 159962 -637999 0 186052 -632227 0 211907 -625430 0 237401 -617607 0 262420 -608789 0 286865 -599024 0 310655 -588375 0 333725 -576912 0 356023 -564707 0 377508 -551833 0 398152 -538364 0 417935 -524371 0 436845 -509921 0 454877 -495079 0 472033 -479906 0 488318 -464459 0 503742 -448791 0 518317 -432949 0 532060 -416979 0 544987 -400921 0 557117 -384813 0 568472 -368687 0 579071 -352575 0 588937 -336503 0 598090 -320497 0 606553 -304578 0 614347 -288765 0 621493 -273076 0 628013 -257526 0 633926 -242128 0 639254 -226894 0 644015 -211835 0 648228 -196959 0 651911 -182273 0 655083 -167785 0 657760 -153499 0 659958 -139421 0 661693 -125553 0 662980 -111899 0 663834 -98461.3 0 664269 -85241.6 0 664298 -72241.1 0 663934 -59460.6 0 663190 -46900.4 0 662077 -34560.5 0 660606 -22440.7 0 658789 -10540.4 0 656636 1141.37 0 654157 12605.6 0 651361 23853.5 0 648259 34886.5 0 644859 45706.3 0 641170 56314.3 0 637200 66712.6 0 632957 76902.8 0 628449 86886.9 0 623684 96667 0 618667 106245 0 613408 115623 0 607912 124804 0 602185 133788 0 596235 142579 0 590067 151179 0 583687 159590 0 577101 167813 0 570315 175852 0 563334 183707 0 556164 191382 0 548809 198878 0 541274 206198 0 533566 213343 0 525688 220316 0 517644 227118 0 509441 233752 0 501082 240218 0 492571 246520 0 483913 252659 0 475112 258637 0 466172 264455 0 457098 270116 0 447892 275620 0 438560 280970 0 429105 286168 0 419530 291214 0 409840 296111 0 400037 300859 0 390127 305461 0 380111 309917 0 369994 314229 0 359780 318399 0 349470 322427 0 339070 326315 0 328582 330064 0 318009 333676 0 307355 337150 0 296623 340489 0 285815 343694 0 274936 346765 0 263989 349703 0 252975 352510 0 241899 355186 0 230763 357732 0 219571 360149 0 208325 362437 0 197028 364598 0 185683 366631 0 174294 368538 0 162863 370320 0 151392 371976 0 139885 373507 0 128345 374915 0 116774 376198 0 105176 377358 0 93552.3 378395 0 81906.6 379309 0 70241.6 380101 0 58560 380771 0 46864.6 381318 0 35158.1 381744 0 23443.3 382048 0 11723 382231 0 0 382292 0 0 -647671 0 27490.1 -646739 0 54281.2 -644536 0 80474.6 -641759 0 106454 -638488 0 132396 -634546 0 158300 -629769 0 184077 -624052 0 209614 -617351 0 234792 -609660 0 259508 -601006 0 283667 -591434 0 307192 -581000 0 330018 -569770 0 352094 -557813 0 373381 -545198 0 393849 -531995 0 413477 -518273 0 432253 -504097 0 450172 -489530 0 467231 -474632 0 483438 -459456 0 498798 -444056 0 513325 -428478 0 527033 -412766 0 539937 -396962 0 552056 -381100 0 563410 -365215 0 574016 -349337 0 583898 -333493 0 593074 -317708 0 601566 -302002 0 609396 -286397 0 616583 -270908 0 623148 -255553 0 629110 -240343 0 634490 -225291 0 639307 -210407 0 643578 -195701 0 647322 -181180 0 650556 -166851 0 653297 -152719 0 655561 -138789 0 657362 -125065 0 658717 -111550 0 659639 -98247.2 0 660142 -85157.9 0 660240 -72283.7 0 659946 -59625.5 0 659270 -47183.8 0 658226 -34958.8 0 656824 -22950.3 0 655076 -11157.9 0 652991 419.146 0 650580 11781.8 0 647853 22931.1 0 644818 33868.4 0 641485 44595.2 0 637862 55113.1 0 633958 65423.6 0 629780 75528.6 0 625336 85430 0 620635 95129.7 0 615682 104630 0 610485 113932 0 605050 123038 0 599385 131951 0 593495 140672 0 587387 149204 0 581067 157548 0 574539 165707 0 567811 173683 0 560887 181478 0 553774 189093 0 546475 196532 0 538996 203796 0 531342 210886 0 523517 217806 0 515528 224557 0 507377 231140 0 499070 237558 0 490611 243813 0 482004 249906 0 473253 255839 0 464364 261614 0 455338 267232 0 446182 272696 0 436898 278006 0 427491 283165 0 417963 288174 0 408320 293035 0 398564 297748 0 388699 302316 0 378730 306740 0 368658 311020 0 358488 315159 0 348223 319158 0 337867 323018 0 327422 326740 0 316893 330325 0 306281 333774 0 295592 337089 0 284827 340271 0 273990 343319 0 263083 346236 0 252111 349023 0 241076 351679 0 229981 354207 0 218829 356606 0 207624 358878 0 196367 361023 0 185063 363042 0 173713 364935 0 162321 366704 0 150890 368348 0 139422 369868 0 127921 371265 0 116389 372539 0 104830 373691 0 93244.9 374720 0 81637.9 375628 0 70011.4 376414 0 58368.3 377079 0 46711.3 377623 0 35043.2 378046 0 23366.7 378348 0 11684.7 378529 0 0 378590 0 0 -638979 0 27008.5 -638194 0 53513.5 -636219 0 79532.4 -633556 0 105321 -630314 0 131025 -626383 0 156650 -621633 0 182127 -615977 0 207356 -609370 0 232230 -601809 0 256652 -593316 0 280533 -583930 0 303799 -573705 0 326386 -562702 0 348245 -550985 0 369336 -538622 0 389630 -525678 0 409105 -512221 0 427748 -498313 0 445552 -484015 0 462515 -469384 0 478642 -454475 0 493938 -439338 0 508416 -424020 0 522087 -408563 0 534967 -393008 0 547072 -377390 0 558422 -361743 0 569034 -346096 0 578929 -330477 0 588126 -314910 0 596646 -299417 0 604509 -284017 0 611735 -268728 0 618343 -253565 0 624353 -238542 0 629783 -223671 0 634654 -208962 0 638982 -194425 0 642785 -180068 0 646079 -165897 0 648882 -151918 0 651210 -138136 0 653076 -124556 0 654497 -111180 0 655486 -98011.7 0 656056 -85052.7 0 656222 -72304.6 0 655995 -59768.7 0 655387 -47445.5 0 654411 -35335.3 0 653077 -23438.2 0 651397 -11753.9 0 649379 -281.617 0 647036 10979.3 0 644375 22029.9 0 641407 32871.4 0 638140 43505.1 0 634582 53932.5 0 630743 64155.2 0 626629 74174.9 0 622249 83993.3 0 617611 93612.3 0 612720 103034 0 607585 112260 0 602212 121292 0 596607 130133 0 590778 138784 0 584729 147247 0 578467 155525 0 571998 163620 0 565327 171533 0 558460 179266 0 551402 186822 0 544158 194203 0 536734 201411 0 529134 208447 0 521364 215313 0 513427 222012 0 505329 228545 0 497073 234914 0 488665 241121 0 480109 247168 0 471409 253056 0 462569 258788 0 453592 264364 0 444484 269787 0 435249 275057 0 425889 280178 0 416408 285149 0 406811 289974 0 397102 294652 0 387283 299186 0 377358 303577 0 367331 307826 0 357206 311934 0 346985 315904 0 336672 319735 0 326271 323429 0 315784 326988 0 305216 330412 0 294568 333702 0 283845 336860 0 273050 339887 0 262185 342782 0 251254 345548 0 240259 348185 0 229205 350694 0 218094 353076 0 206928 355331 0 195711 357461 0 184446 359465 0 173136 361344 0 161783 363100 0 150391 364732 0 138963 366241 0 127500 367628 0 116007 368893 0 104486 370036 0 92939.8 371058 0 81371.1 371959 0 69782.9 372740 0 58178 373400 0 46559.1 373939 0 34929.1 374359 0 23290.7 374659 0 11646.7 374839 0 0 374900 0 0 -630453 0 26583.7 -629769 0 52796.4 -627968 0 78611.7 -625410 0 104196 -622209 0 129660 -618302 0 155015 -613589 0 180202 -607996 0 205133 -601486 0 229713 -594052 0 253850 -585714 0 277461 -576510 0 300473 -566488 0 322827 -555704 0 344473 -544222 0 365371 -532103 0 385493 -519413 0 404816 -506214 0 423326 -492568 0 441016 -478533 0 457883 -464165 0 473929 -449517 0 489161 -434639 0 503587 -419575 0 517220 -404370 0 530073 -389060 0 542164 -373683 0 553508 -358270 0 564124 -342853 0 574030 -327456 0 583247 -312106 0 591792 -296822 0 599686 -281626 0 606948 -266535 0 613598 -251563 0 619653 -236726 0 625133 -222034 0 630055 -207500 0 634438 -193131 0 638298 -178937 0 641651 -164923 0 644515 -151097 0 646905 -137464 0 648835 -124027 0 650320 -110789 0 651374 -97755.3 0 652011 -84926.3 0 652242 -72304.4 0 652082 -59890.6 0 651541 -47685.8 0 650632 -35690.6 0 649365 -23904.9 0 647751 -12328.6 0 645800 -961.232 0 643523 10197.9 0 640928 21149.6 0 638025 31895.1 0 634823 42435.6 0 631330 52772.5 0 627555 62907.1 0 623505 72841.3 0 619188 82576.5 0 614612 92114.7 0 609783 101458 0 604710 110607 0 599397 119565 0 593852 128333 0 588082 136914 0 582092 145309 0 575888 153520 0 569476 161550 0 562862 169400 0 556051 177072 0 549049 184569 0 541860 191892 0 534491 199043 0 526944 206024 0 519227 212837 0 511343 219484 0 503296 225967 0 495092 232287 0 486735 238446 0 478229 244446 0 469578 250290 0 460787 255977 0 451860 261511 0 442800 266893 0 433611 272124 0 424299 277205 0 414865 282139 0 405314 286927 0 395650 291570 0 385877 296070 0 375997 300428 0 366015 304645 0 355933 308723 0 345756 312663 0 335487 316465 0 325128 320132 0 314684 323664 0 304158 327063 0 293552 330329 0 282871 333463 0 272117 336467 0 261293 339341 0 250402 342087 0 239449 344704 0 228434 347195 0 217363 349559 0 206237 351797 0 195060 353911 0 183834 355900 0 172563 357766 0 161250 359509 0 149896 361129 0 138507 362627 0 127083 364003 0 115628 365259 0 104145 366394 0 92636.9 367408 0 81106.3 368303 0 69556.1 369077 0 57989.1 369732 0 46408 370268 0 34815.8 370685 0 23215.2 370982 0 11609 371161 0 0 371221 0 0 -622069 0 26200.3 -621456 0 52120.6 -619788 0 77713.3 -617326 0 103081 -614175 0 128307 -610302 0 153397 -605633 0 178302 -600108 0 202946 -593694 0 227241 -586386 0 251101 -578200 0 274448 -569172 0 297214 -559346 0 319339 -548777 0 340775 -537522 0 361484 -525642 0 381436 -513198 0 400608 -500252 0 418987 -486861 0 436563 -473084 0 453333 -458974 0 469298 -444582 0 484463 -429958 0 498837 -415145 0 512430 -400186 0 525256 -385119 0 537330 -369979 0 548667 -354799 0 559284 -339607 0 569201 -324431 0 578434 -309294 0 587003 -294219 0 594927 -279225 0 602223 -264330 0 608912 -249548 0 615011 -234895 0 620537 -220382 0 625510 -206021 0 629946 -191820 0 633861 -177788 0 637273 -163931 0 640196 -150258 0 642646 -136771 0 644638 -123477 0 646186 -110378 0 647304 -97478.3 0 648005 -84779.3 0 648302 -72283.2 0 648207 -59991.6 0 647732 -47905.2 0 646889 -36024.8 0 645687 -24350.6 0 644139 -12882.4 0 642254 -1620.01 0 640042 9437.21 0 637512 20290 0 634674 30939.4 0 631536 41386.5 0 628107 51632.6 0 624395 61679.2 0 620408 71527.6 0 616153 81179.5 0 611639 90636.6 0 606871 99900.7 0 601858 108973 0 596605 117857 0 591120 126553 0 585408 135063 0 579476 143389 0 573330 151534 0 566975 159499 0 560417 167285 0 553662 174896 0 546715 182333 0 539580 189598 0 532264 196692 0 524771 203618 0 517107 210377 0 509274 216972 0 501279 223404 0 493126 229675 0 484819 235787 0 476363 241741 0 467762 247539 0 459019 253182 0 450140 258674 0 441128 264014 0 431987 269205 0 422721 274247 0 413333 279144 0 403829 283895 0 394210 288503 0 384481 292969 0 374646 297293 0 364708 301479 0 354670 305526 0 344536 309435 0 334310 313209 0 323994 316848 0 313592 320354 0 303108 323727 0 292544 326968 0 281904 330079 0 271191 333061 0 260407 335913 0 249558 338638 0 238644 341236 0 227670 343708 0 216638 346054 0 205552 348276 0 194414 350374 0 183227 352348 0 171995 354200 0 160720 355929 0 149405 357537 0 138054 359024 0 126668 360391 0 115251 361637 0 103807 362763 0 92336.3 363770 0 80843.5 364658 0 69330.9 365427 0 57801.5 366077 0 46258.1 366609 0 34703.4 367022 0 23140.3 367318 0 11571.5 367495 0 0 367555 0 0 -613812 0 25847.6 -613251 0 51479 -611687 0 76836.9 -609310 0 101980 -606212 0 126966 -602382 0 151796 -597764 0 176429 -592309 0 200794 -585992 0 224812 -578807 0 248404 -570770 0 271494 -561914 0 294019 -552280 0 315920 -541919 0 337151 -530885 0 357673 -519238 0 377457 -507034 0 396480 -494334 0 414728 -481193 0 432190 -467668 0 448863 -453810 0 464747 -439671 0 479845 -425296 0 494166 -410730 0 507718 -396014 0 520515 -381186 0 532570 -366280 0 543898 -351328 0 554515 -336359 0 564439 -321401 0 573688 -306476 0 582279 -291607 0 590230 -276814 0 597559 -262113 0 604285 -247520 0 610426 -233050 0 615998 -218715 0 621019 -204525 0 625506 -190491 0 629475 -176621 0 632942 -162921 0 635923 -149399 0 638433 -136060 0 640486 -122908 0 642096 -109947 0 643276 -97181.2 0 644041 -84611.9 0 644401 -72241.7 0 644371 -60072 0 643960 -48104 0 643181 -36338.4 0 642045 -24775.6 0 640561 -13415.6 0 638740 -2258.24 0 636592 8696.99 0 634127 19450.8 0 631352 30003.9 0 628278 40357.5 0 624912 50512.8 0 621262 60471 0 617337 70233.5 0 613144 79802 0 608690 89177.9 0 603983 98363 0 599030 107359 0 593837 116168 0 588410 124791 0 582756 133230 0 576882 141488 0 570793 149565 0 564494 157465 0 557992 165188 0 551292 172737 0 544399 180114 0 537319 187320 0 530056 194358 0 522616 201229 0 515003 207934 0 507222 214477 0 499278 220858 0 491176 227079 0 482919 233143 0 474512 239050 0 465959 244803 0 457265 250403 0 448434 255851 0 439469 261150 0 430375 266301 0 421155 271304 0 411813 276163 0 402354 280878 0 392781 285450 0 383096 289881 0 373305 294173 0 363411 298326 0 353417 302342 0 343326 306222 0 333142 309967 0 322868 313578 0 312509 317057 0 302066 320404 0 291543 323621 0 280944 326708 0 270271 329667 0 259529 332498 0 248719 335202 0 237845 337780 0 226911 340233 0 215918 342562 0 204871 344767 0 193772 346849 0 182624 348808 0 171431 350646 0 160194 352362 0 148918 353958 0 137604 355434 0 126257 356790 0 114878 358027 0 103471 359145 0 92037.9 360144 0 80582.6 361025 0 69107.5 361788 0 57615.4 362433 0 46109.3 362961 0 34591.8 363372 0 23065.9 363665 0 11534.4 363841 0 0 363900 0 0 -605669 0 25518.4 -605147 0 50865.8 -603665 0 75981.8 -601364 0 100895 -598323 0 125640 -594540 0 150215 -589977 0 174582 -584597 0 198676 -578