<?xml version="1.0"?> 
<VTKFile type="StructuredGrid" version="0.1"> 
<StructuredGrid WholeExtent="0 127 0 127 0 0"> 
<Piece Extent="0 127 0 127 0 0"> 
<PointData>
<DataArray type="Float32" Name="E" format="ascii" NumberOfComponents="3"> 
2.89292e+06 2.67029e-05 0 2.89291e+06 -1.55866e-05 0 2.89288e+06 8.80659e-06 0 2.89283e+06 -4.79817e-06 0 2.89276e+06 4.47035e-06 0 2.89267e+06 1.78814e-07 0 2.89256e+06 -1.96695e-06 0 2.89243e+06 2.14577e-06 0 2.89228e+06 -6.4373e-06 0 2.89211e+06 6.31809e-06 0 2.89192e+06 -2.5034e-06 0 2.89171e+06 9.53674e-07 0 2.89148e+06 5.96046e-07 0 2.89123e+06 3.57628e-07 0 2.89095e+06 0 0 2.89066e+06 -3.57628e-07 0 2.89035e+06 2.38419e-07 0 2.89001e+06 2.38419e-07 0 2.88966e+06 4.76837e-07 0 2.88928e+06 0 0 2.88889e+06 -2.38419e-07 0 2.88847e+06 7.15256e-07 0 2.88803e+06 -2.38419e-07 0 2.88757e+06 -1.19209e-06 0 2.88709e+06 2.6226e-06 0 2.88659e+06 -9.53674e-07 0 2.88606e+06 -2.6226e-06 0 2.88552e+06 9.53674e-07 0 2.88495e+06 0 0 2.88436e+06 0 0 2.88375e+06 -2.38419e-07 0 2.88311e+06 4.76837e-07 0 2.88245e+06 -4.76837e-07 0 2.88177e+06 -1.43051e-06 0 2.88107e+06 -1.19209e-06 0 2.88034e+06 2.86102e-06 0 2.87959e+06 -1.90735e-06 0 2.87882e+06 -1.90735e-06 0 2.87802e+06 2.86102e-06 0 2.8772e+06 -3.33786e-06 0 2.87635e+06 3.8147e-06 0 2.87548e+06 -4.29153e-06 0 2.87459e+06 3.8147e-06 0 2.87367e+06 -3.33786e-06 0 2.87272e+06 2.86102e-06 0 2.87175e+06 -3.33786e-06 0 2.87075e+06 2.38419e-06 0 2.86972e+06 -2.38419e-06 0 2.86867e+06 3.8147e-06 0 2.86759e+06 -3.33786e-06 0 2.86648e+06 2.86102e-06 0 2.86535e+06 -2.86102e-06 0 2.86419e+06 1.43051e-06 0 2.86299e+06 -1.43051e-06 0 2.86177e+06 2.38419e-06 0 2.86052e+06 -1.43051e-06 0 2.85924e+06 1.43051e-06 0 2.85793e+06 -9.53674e-07 0 2.85658e+06 1.43051e-06 0 2.8552e+06 -1.43051e-06 0 2.8538e+06 1.90735e-06 0 2.85235e+06 -1.43051e-06 0 2.85088e+06 -4.76837e-07 0 2.84937e+06 9.53674e-07 0 2.84782e+06 0 0 2.84624e+06 -4.76837e-07 0 2.84462e+06 -4.76837e-07 0 2.84296e+06 0 0 2.84127e+06 -4.76837e-07 0 2.83953e+06 0 0 2.83776e+06 -4.76837e-07 0 2.83594e+06 4.76837e-07 0 2.83408e+06 -9.53674e-07 0 2.83217e+06 9.53674e-07 0 2.83022e+06 -9.53674e-07 0 2.82823e+06 9.53674e-07 0 2.82618e+06 -9.53674e-07 0 2.82409e+06 9.53674e-07 0 2.82195e+06 -9.53674e-07 0 2.81975e+06 9.53674e-07 0 2.8175e+06 -9.53674e-07 0 2.81519e+06 9.53674e-07 0 2.81283e+06 -9.53674e-07 0 2.8104e+06 1.90735e-06 0 2.80791e+06 -9.53674e-07 0 2.80536e+06 1.90735e-06 0 2.80273e+06 -1.90735e-06 0 2.80004e+06 9.53674e-07 0 2.79727e+06 -1.90735e-06 0 2.79443e+06 9.53674e-07 0 2.7915e+06 -1.90735e-06 0 2.78849e+06 9.53674e-07 0 2.78539e+06 -2.86102e-06 0 2.78219e+06 1.90735e-06 0 2.77889e+06 -2.86102e-06 0 2.77549e+06 2.86102e-06 0 2.77198e+06 -1.90735e-06 0 2.76835e+06 2.86102e-06 0 2.76459e+06 -2.86102e-06 0 2.7607e+06 2.86102e-06 0 2.75666e+06 0 0 2.75248e+06 -1.90735e-06 0 2.74812e+06 3.8147e-06 0 2.74359e+06 -2.86102e-06 0 2.73886e+06 1.90735e-06 0 2.73393e+06 -9.53674e-07 0 2.72877e+06 1.90735e-06 0 2.72336e+06 -1.90735e-06 0 2.71769e+06 9.53674e-07 0 2.71172e+06 0 0 2.70542e+06 0 0 2.69877e+06 0 0 2.69173e+06 9.53674e-07 0 2.68424e+06 -9.53674e-07 0 2.67627e+06 -9.53674e-07 0 2.66776e+06 1.90735e-06 0 2.65865e+06 -9.53674e-07 0 2.64885e+06 -1.90735e-06 0 2.63829e+06 3.8147e-06 0 2.62687e+06 -2.86102e-06 0 2.61448e+06 0 0 2.60098e+06 1.90735e-06 0 2.58623e+06 -9.53674e-07 0 2.57005e+06 1.90735e-06 0 2.55224e+06 -9.53674e-07 0 2.53257e+06 -1.90735e-06 0 2.51076e+06 5.72205e-06 0 2.48649e+06 -1.14441e-05 0 2.89587e+06 0.00151072 0 2.89586e+06 -339.874 0 2.89583e+06 -679.828 0 2.89578e+06 -1019.94 0 2.89571e+06 -1360.3 0 2.89562e+06 -1700.99 0 2.89551e+06 -2042.08 0 2.89539e+06 -2383.66 0 2.89524e+06 -2725.81 0 2.89507e+06 -3068.61 0 2.89488e+06 -3412.15 0 2.89468e+06 -3756.51 0 2.89445e+06 -4101.78 0 2.8942e+06 -4448.04 0 2.89394e+06 -4795.39 0 2.89365e+06 -5143.9 0 2.89334e+06 -5493.67 0 2.89302e+06 -5844.79 0 2.89267e+06 -6197.35 0 2.8923e+06 -6551.45 0 2.89191e+06 -6907.18 0 2.8915e+06 -7264.65 0 2.89108e+06 -7623.94 0 2.89063e+06 -7985.16 0 2.89015e+06 -8348.41 0 2.88966e+06 -8713.8 0 2.88915e+06 -9081.44 0 2.88862e+06 -9451.44 0 2.88806e+06 -9823.91 0 2.88748e+06 -10199 0 2.88689e+06 -10576.7 0 2.88627e+06 -10957.3 0 2.88562e+06 -11340.9 0 2.88496e+06 -11727.5 0 2.88427e+06 -12117.4 0 2.88357e+06 -12510.6 0 2.88283e+06 -12907.4 0 2.88208e+06 -13307.7 0 2.8813e+06 -13711.9 0 2.8805e+06 -14120 0 2.87968e+06 -14532.3 0 2.87883e+06 -14948.8 0 2.87796e+06 -15369.8 0 2.87707e+06 -15795.5 0 2.87615e+06 -16226 0 2.87521e+06 -16661.5 0 2.87424e+06 -17102.2 0 2.87325e+06 -17548.3 0 2.87223e+06 -18000.1 0 2.87118e+06 -18457.8 0 2.87011e+06 -18921.7 0 2.86902e+06 -19391.8 0 2.86789e+06 -19868.6 0 2.86674e+06 -20352.3 0 2.86557e+06 -20843.2 0 2.86436e+06 -21341.6 0 2.86313e+06 -21847.7 0 2.86187e+06 -22361.9 0 2.86058e+06 -22884.6 0 2.85926e+06 -23416.1 0 2.85791e+06 -23956.8 0 2.85653e+06 -24507 0 2.85513e+06 -25067.2 0 2.85369e+06 -25637.8 0 2.85221e+06 -26219.2 0 2.85071e+06 -26812 0 2.84918e+06 -27416.7 0 2.84761e+06 -28033.8 0 2.84601e+06 -28663.8 0 2.84437e+06 -29307.4 0 2.8427e+06 -29965.1 0 2.84099e+06 -30637.8 0 2.83925e+06 -31326 0 2.83747e+06 -32030.5 0 2.83565e+06 -32752.1 0 2.8338e+06 -33491.7 0 2.83191e+06 -34250.2 0 2.82997e+06 -35028.5 0 2.828e+06 -35827.7 0 2.82599e+06 -36648.9 0 2.82393e+06 -37493.1 0 2.82184e+06 -38361.7 0 2.81969e+06 -39256.1 0 2.81751e+06 -40177.5 0 2.81528e+06 -41127.5 0 2.813e+06 -42107.9 0 2.81068e+06 -43120.2 0 2.80831e+06 -44166.5 0 2.80589e+06 -45248.7 0 2.80342e+06 -46369 0 2.80091e+06 -47529.7 0 2.79834e+06 -48733.5 0 2.79572e+06 -49982.9 0 2.79305e+06 -51281 0 2.79032e+06 -52630.9 0 2.78755e+06 -54036.1 0 2.78472e+06 -55500.3 0 2.78184e+06 -57027.5 0 2.7789e+06 -58622.3 0 2.77591e+06 -60289.2 0 2.77287e+06 -62033.7 0 2.76978e+06 -63861.2 0 2.76664e+06 -65777.9 0 2.76346e+06 -67790.7 0 2.76023e+06 -69906.7 0 2.75696e+06 -72134.1 0 2.75366e+06 -74481.7 0 2.75032e+06 -76958.9 0 2.74697e+06 -79576.5 0 2.7436e+06 -82345.8 0 2.74023e+06 -85279.7 0 2.73687e+06 -88392 0 2.73354e+06 -91698 0 2.73026e+06 -95214.8 0 2.72705e+06 -98960.8 0 2.72393e+06 -102956 0 2.72095e+06 -107225 0 2.71815e+06 -111790 0 2.71556e+06 -116680 0 2.71326e+06 -121926 0 2.71131e+06 -127561 0 2.70978e+06 -133622 0 2.70879e+06 -140151 0 2.70844e+06 -147194 0 2.70887e+06 -154802 0 2.71026e+06 -163030 0 2.71279e+06 -171941 0 2.71669e+06 -181607 0 2.90445e+06 0.00268407 0 2.90444e+06 -662.482 0 2.90441e+06 -1325.11 0 2.90437e+06 -1988.02 0 2.90431e+06 -2651.36 0 2.90422e+06 -3315.28 0 2.90413e+06 -3979.91 0 2.90401e+06 -4645.4 0 2.90387e+06 -5311.91 0 2.90372e+06 -5979.56 0 2.90355e+06 -6648.51 0 2.90336e+06 -7318.92 0 2.90315e+06 -7990.92 0 2.90293e+06 -8664.67 0 2.90268e+06 -9340.32 0 2.90242e+06 -10018 0 2.90214e+06 -10697.9 0 2.90184e+06 -11380.2 0 2.90153e+06 -12065 0 2.90119e+06 -12752.5 0 2.90084e+06 -13442.9 0 2.90047e+06 -14136.2 0 2.90007e+06 -14832.8 0 2.89967e+06 -15532.7 0 2.89924e+06 -16236.2 0 2.89879e+06 -16943.3 0 2.89832e+06 -17654.4 0 2.89784e+06 -18369.5 0 2.89734e+06 -19088.9 0 2.89681e+06 -19812.8 0 2.89627e+06 -20541.3 0 2.89571e+06 -21274.7 0 2.89513e+06 -22013.2 0 2.89453e+06 -22756.9 0 2.89392e+06 -23506.1 0 2.89328e+06 -24261 0 2.89262e+06 -25021.9 0 2.89194e+06 -25788.9 0 2.89125e+06 -26562.4 0 2.89053e+06 -27342.4 0 2.88979e+06 -28129.4 0 2.88904e+06 -28923.6 0 2.88826e+06 -29725.2 0 2.88746e+06 -30534.4 0 2.88664e+06 -31351.7 0 2.88581e+06 -32177.2 0 2.88495e+06 -33011.3 0 2.88407e+06 -33854.3 0 2.88317e+06 -34706.4 0 2.88225e+06 -35568.1 0 2.88131e+06 -36439.6 0 2.88034e+06 -37321.4 0 2.87936e+06 -38213.7 0 2.87835e+06 -39117 0 2.87733e+06 -40031.5 0 2.87628e+06 -40957.8 0 2.87521e+06 -41896.3 0 2.87412e+06 -42847.2 0 2.87301e+06 -43811.2 0 2.87187e+06 -44788.7 0 2.87071e+06 -45780 0 2.86954e+06 -46785.8 0 2.86833e+06 -47806.5 0 2.86711e+06 -48842.7 0 2.86587e+06 -49894.9 0 2.8646e+06 -50963.6 0 2.86331e+06 -52049.5 0 2.862e+06 -53153.1 0 2.86066e+06 -54275.1 0 2.8593e+06 -55416.1 0 2.85792e+06 -56576.9 0 2.85652e+06 -57758 0 2.8551e+06 -58960.4 0 2.85365e+06 -60184.6 0 2.85218e+06 -61431.5 0 2.85069e+06 -62701.8 0 2.84918e+06 -63996.6 0 2.84765e+06 -65316.5 0 2.84609e+06 -66662.5 0 2.84452e+06 -68035.6 0 2.84292e+06 -69436.6 0 2.8413e+06 -70866.7 0 2.83967e+06 -72326.8 0 2.83801e+06 -73818 0 2.83633e+06 -75341.3 0 2.83464e+06 -76898 0 2.83293e+06 -78489.1 0 2.8312e+06 -80115.9 0 2.82945e+06 -81779.5 0 2.82769e+06 -83481.2 0 2.82592e+06 -85222.3 0 2.82413e+06 -87004 0 2.82233e+06 -88827.6 0 2.82052e+06 -90694.4 0 2.8187e+06 -92605.8 0 2.81687e+06 -94563 0 2.81504e+06 -96567.2 0 2.81321e+06 -98619.8 0 2.81137e+06 -100722 0 2.80954e+06 -102875 0 2.8077e+06 -105079 0 2.80588e+06 -107337 0 2.80406e+06 -109647 0 2.80225e+06 -112012 0 2.80046e+06 -114432 0 2.79868e+06 -116906 0 2.79693e+06 -119435 0 2.79519e+06 -122018 0 2.79349e+06 -124655 0 2.79181e+06 -127344 0 2.79016e+06 -130082 0 2.78855e+06 -132868 0 2.78697e+06 -135698 0 2.78543e+06 -138566 0 2.78392e+06 -141469 0 2.78245e+06 -144397 0 2.78101e+06 -147344 0 2.77958e+06 -150298 0 2.77817e+06 -153246 0 2.77677e+06 -156175 0 2.77534e+06 -159066 0 2.77387e+06 -161897 0 2.77232e+06 -164645 0 2.77065e+06 -167279 0 2.76881e+06 -169765 0 2.76673e+06 -172062 0 2.76433e+06 -174125 0 2.76148e+06 -175895 0 2.91812e+06 0.00328349 0 2.91811e+06 -950.309 0 2.91808e+06 -1900.79 0 2.91805e+06 -2851.63 0 2.91799e+06 -3802.99 0 2.91792e+06 -4755.05 0 2.91784e+06 -5707.99 0 2.91774e+06 -6661.98 0 2.91762e+06 -7617.21 0 2.91749e+06 -8573.84 0 2.91734e+06 -9532.06 0 2.91718e+06 -10492 0 2.917e+06 -11454 0 2.9168e+06 -12418 0 2.91659e+06 -13384.4 0 2.91637e+06 -14353.3 0 2.91613e+06 -15324.8 0 2.91587e+06 -16299.2 0 2.9156e+06 -17276.7 0 2.91531e+06 -18257.4 0 2.91501e+06 -19241.5 0 2.91469e+06 -20229.3 0 2.91436e+06 -21220.9 0 2.91401e+06 -22216.6 0 2.91364e+06 -23216.4 0 2.91326e+06 -24220.7 0 2.91286e+06 -25229.7 0 2.91245e+06 -26243.5 0 2.91202e+06 -27262.3 0 2.91158e+06 -28286.5 0 2.91112e+06 -29316.1 0 2.91064e+06 -30351.4 0 2.91015e+06 -31392.7 0 2.90964e+06 -32440.2 0 2.90912e+06 -33494 0 2.90858e+06 -34554.5 0 2.90803e+06 -35621.8 0 2.90746e+06 -36696.3 0 2.90687e+06 -37778.2 0 2.90627e+06 -38867.6 0 2.90565e+06 -39964.9 0 2.90502e+06 -41070.4 0 2.90437e+06 -42184.2 0 2.9037e+06 -43306.8 0 2.90302e+06 -44438.2 0 2.90233e+06 -45578.9 0 2.90162e+06 -46729.1 0 2.90089e+06 -47889.1 0 2.90015e+06 -49059.2 0 2.89939e+06 -50239.7 0 2.89861e+06 -51430.8 0 2.89782e+06 -52633 0 2.89702e+06 -53846.6 0 2.8962e+06 -55071.7 0 2.89536e+06 -56308.9 0 2.89451e+06 -57558.4 0 2.89364e+06 -58820.6 0 2.89276e+06 -60095.7 0 2.89186e+06 -61384.3 0 2.89095e+06 -62686.5 0 2.89003e+06 -64002.9 0 2.88909e+06 -65333.7 0 2.88813e+06 -66679.4 0 2.88716e+06 -68040.3 0 2.88617e+06 -69416.9 0 2.88518e+06 -70809.4 0 2.88416e+06 -72218.4 0 2.88314e+06 -73644.2 0 2.8821e+06 -75087.2 0 2.88104e+06 -76547.9 0 2.87998e+06 -78026.7 0 2.8789e+06 -79523.9 0 2.8778e+06 -81040.1 0 2.8767e+06 -82575.6 0 2.87558e+06 -84130.9 0 2.87446e+06 -85706.4 0 2.87332e+06 -87302.5 0 2.87217e+06 -88919.7 0 2.871e+06 -90558.4 0 2.86983e+06 -92219 0 2.86865e+06 -93902 0 2.86746e+06 -95607.7 0 2.86626e+06 -97336.6 0 2.86505e+06 -99089 0 2.86384e+06 -100865 0 2.86262e+06 -102666 0 2.86139e+06 -104492 0 2.86015e+06 -106342 0 2.85891e+06 -108218 0 2.85766e+06 -110119 0 2.85641e+06 -112046 0 2.85516e+06 -114000 0 2.8539e+06 -115980 0 2.85264e+06 -117986 0 2.85138e+06 -120019 0 2.85012e+06 -122079 0 2.84886e+06 -124166 0 2.84759e+06 -126280 0 2.84633e+06 -128421 0 2.84507e+06 -130589 0 2.84382e+06 -132783 0 2.84257e+06 -135004 0 2.84132e+06 -137252 0 2.84007e+06 -139526 0 2.83883e+06 -141825 0 2.8376e+06 -144151 0 2.83637e+06 -146501 0 2.83515e+06 -148877 0 2.83394e+06 -151278 0 2.83273e+06 -153703 0 2.83153e+06 -156153 0 2.83034e+06 -158627 0 2.82917e+06 -161126 0 2.828e+06 -163650 0 2.82685e+06 -166199 0 2.82571e+06 -168775 0 2.82459e+06 -171379 0 2.82349e+06 -174013 0 2.82241e+06 -176681 0 2.82137e+06 -179386 0 2.82037e+06 -182134 0 2.81943e+06 -184931 0 2.81855e+06 -187787 0 2.81776e+06 -190711 0 2.81708e+06 -193718 0 2.81655e+06 -196824 0 2.81621e+06 -200049 0 2.8161e+06 -203421 0 2.9361e+06 0.00337751 0 2.9361e+06 -1194.21 0 2.93608e+06 -2388.6 0 2.93604e+06 -3583.35 0 2.936e+06 -4778.64 0 2.93594e+06 -5974.66 0 2.93587e+06 -7171.57 0 2.93579e+06 -8369.56 0 2.93569e+06 -9568.82 0 2.93559e+06 -10769.5 0 2.93547e+06 -11971.8 0 2.93533e+06 -13176 0 2.93519e+06 -14382.1 0 2.93503e+06 -15590.4 0 2.93486e+06 -16801.1 0 2.93467e+06 -18014.3 0 2.93447e+06 -19230.2 0 2.93427e+06 -20449 0 2.93404e+06 -21671 0 2.93381e+06 -22896.2 0 2.93356e+06 -24124.9 0 2.9333e+06 -25357.3 0 2.93303e+06 -26593.6 0 2.93274e+06 -27833.9 0 2.93245e+06 -29078.5 0 2.93214e+06 -30327.5 0 2.93181e+06 -31581.2 0 2.93148e+06 -32839.7 0 2.93113e+06 -34103.2 0 2.93077e+06 -35372 0 2.9304e+06 -36646.3 0 2.93001e+06 -37926.2 0 2.92962e+06 -39211.9 0 2.92921e+06 -40503.7 0 2.92879e+06 -41801.8 0 2.92835e+06 -43106.4 0 2.92791e+06 -44417.7 0 2.92745e+06 -45735.9 0 2.92698e+06 -47061.2 0 2.9265e+06 -48393.8 0 2.92601e+06 -49734 0 2.9255e+06 -51082 0 2.92498e+06 -52438 0 2.92445e+06 -53802.3 0 2.92391e+06 -55175 0 2.92336e+06 -56556.3 0 2.9228e+06 -57946.6 0 2.92222e+06 -59346.1 0 2.92163e+06 -60754.9 0 2.92103e+06 -62173.3 0 2.92042e+06 -63601.6 0 2.9198e+06 -65039.9 0 2.91917e+06 -66488.6 0 2.91853e+06 -67947.8 0 2.91788e+06 -69417.9 0 2.91721e+06 -70898.9 0 2.91654e+06 -72391.3 0 2.91585e+06 -73895.1 0 2.91516e+06 -75410.8 0 2.91445e+06 -76938.4 0 2.91374e+06 -78478.3 0 2.91301e+06 -80030.7 0 2.91228e+06 -81595.8 0 2.91153e+06 -83173.9 0 2.91078e+06 -84765.2 0 2.91002e+06 -86370 0 2.90925e+06 -87988.5 0 2.90847e+06 -89620.9 0 2.90768e+06 -91267.4 0 2.90688e+06 -92928.4 0 2.90607e+06 -94604 0 2.90526e+06 -96294.4 0 2.90444e+06 -98000 0 2.90361e+06 -99720.8 0 2.90278e+06 -101457 0 2.90193e+06 -103209 0 2.90108e+06 -104977 0 2.90023e+06 -106761 0 2.89937e+06 -108562 0 2.8985e+06 -110378 0 2.89763e+06 -112212 0 2.89675e+06 -114062 0 2.89587e+06 -115930 0 2.89498e+06 -117814 0 2.89409e+06 -119716 0 2.8932e+06 -121635 0 2.8923e+06 -123572 0 2.8914e+06 -125526 0 2.89049e+06 -127499 0 2.88958e+06 -129489 0 2.88868e+06 -131496 0 2.88777e+06 -133522 0 2.88685e+06 -135566 0 2.88594e+06 -137628 0 2.88503e+06 -139708 0 2.88411e+06 -141806 0 2.8832e+06 -143922 0 2.88229e+06 -146056 0 2.88138e+06 -148208 0 2.88047e+06 -150378 0 2.87956e+06 -152566 0 2.87866e+06 -154772 0 2.87776e+06 -156995 0 2.87686e+06 -159236 0 2.87596e+06 -161494 0 2.87507e+06 -163769 0 2.87419e+06 -166061 0 2.87331e+06 -168370 0 2.87243e+06 -170696 0 2.87156e+06 -173037 0 2.8707e+06 -175394 0 2.86985e+06 -177766 0 2.869e+06 -180152 0 2.86816e+06 -182552 0 2.86732e+06 -184965 0 2.8665e+06 -187389 0 2.86568e+06 -189823 0 2.86486e+06 -192266 0 2.86405e+06 -194715 0 2.86324e+06 -197168 0 2.86243e+06 -199621 0 2.86161e+06 -202070 0 2.86078e+06 -204510 0 2.85993e+06 -206934 0 2.85904e+06 -209336 0 2.8581e+06 -211705 0 2.85709e+06 -214030 0 2.85598e+06 -216296 0 2.95758e+06 0.00315109 0 2.95758e+06 -1392.56 0 2.95756e+06 -2785.29 0 2.95754e+06 -4178.35 0 2.9575e+06 -5571.92 0 2.95746e+06 -6966.16 0 2.9574e+06 -8361.24 0 2.95734e+06 -9757.32 0 2.95726e+06 -11154.6 0 2.95718e+06 -12553.2 0 2.95708e+06 -13953.3 0 2.95698e+06 -15355.1 0 2.95686e+06 -16758.8 0 2.95674e+06 -18164.4 0 2.9566e+06 -19572.3 0 2.95646e+06 -20982.5 0 2.9563e+06 -22395.2 0 2.95614e+06 -23810.7 0 2.95597e+06 -25229 0 2.95578e+06 -26650.3 0 2.95559e+06 -28074.9 0 2.95539e+06 -29502.8 0 2.95517e+06 -30934.3 0 2.95495e+06 -32369.5 0 2.95472e+06 -33808.6 0 2.95448e+06 -35251.7 0 2.95422e+06 -36699.2 0 2.95396e+06 -38151 0 2.95369e+06 -39607.4 0 2.95341e+06 -41068.6 0 2.95312e+06 -42534.7 0 2.95282e+06 -44005.9 0 2.95252e+06 -45482.5 0 2.9522e+06 -46964.4 0 2.95187e+06 -48452.1 0 2.95154e+06 -49945.5 0 2.95119e+06 -51444.9 0 2.95084e+06 -52950.5 0 2.95047e+06 -54462.5 0 2.9501e+06 -55981 0 2.94972e+06 -57506.1 0 2.94933e+06 -59038.2 0 2.94893e+06 -60577.3 0 2.94853e+06 -62123.6 0 2.94811e+06 -63677.3 0 2.94769e+06 -65238.6 0 2.94726e+06 -66807.7 0 2.94682e+06 -68384.7 0 2.94637e+06 -69969.8 0 2.94591e+06 -71563.2 0 2.94545e+06 -73165.1 0 2.94497e+06 -74775.6 0 2.94449e+06 -76394.9 0 2.94401e+06 -78023.2 0 2.94351e+06 -79660.7 0 2.94301e+06 -81307.5 0 2.9425e+06 -82963.7 0 2.94198e+06 -84629.7 0 2.94146e+06 -86305.5 0 2.94092e+06 -87991.2 0 2.94039e+06 -89687.1 0 2.93984e+06 -91393.4 0 2.93929e+06 -93110.1 0 2.93873e+06 -94837.5 0 2.93817e+06 -96575.7 0 2.9376e+06 -98324.8 0 2.93702e+06 -100085 0 2.93644e+06 -101856 0 2.93585e+06 -103639 0 2.93526e+06 -105434 0 2.93466e+06 -107240 0 2.93406e+06 -109058 0 2.93345e+06 -110887 0 2.93284e+06 -112729 0 2.93222e+06 -114583 0 2.9316e+06 -116450 0 2.93097e+06 -118329 0 2.93034e+06 -120220 0 2.92971e+06 -122124 0 2.92907e+06 -124040 0 2.92843e+06 -125970 0 2.92778e+06 -127912 0 2.92714e+06 -129868 0 2.92649e+06 -131836 0 2.92583e+06 -133818 0 2.92518e+06 -135813 0 2.92452e+06 -137821 0 2.92386e+06 -139842 0 2.9232e+06 -141877 0 2.92254e+06 -143925 0 2.92187e+06 -145987 0 2.92121e+06 -148062 0 2.92054e+06 -150150 0 2.91987e+06 -152252 0 2.91921e+06 -154367 0 2.91854e+06 -156496 0 2.91787e+06 -158638 0 2.9172e+06 -160794 0 2.91654e+06 -162962 0 2.91587e+06 -165145 0 2.9152e+06 -167340 0 2.91454e+06 -169548 0 2.91387e+06 -171770 0 2.91321e+06 -174004 0 2.91254e+06 -176252 0 2.91188e+06 -178512 0 2.91122e+06 -180785 0 2.91056e+06 -183071 0 2.9099e+06 -185369 0 2.90925e+06 -187679 0 2.90859e+06 -190002 0 2.90794e+06 -192338 0 2.90728e+06 -194685 0 2.90663e+06 -197045 0 2.90598e+06 -199418 0 2.90534e+06 -201803 0 2.90469e+06 -204201 0 2.90405e+06 -206612 0 2.90341e+06 -209038 0 2.90277e+06 -211478 0 2.90214e+06 -213935 0 2.90152e+06 -216409 0 2.90091e+06 -218902 0 2.90031e+06 -221419 0 2.89973e+06 -223961 0 2.89918e+06 -226533 0 2.89867e+06 -229141 0 2.89821e+06 -231793 0 2.98178e+06 0.00278725 0 2.98177e+06 -1548.41 0 2.98176e+06 -3096.97 0 2.98174e+06 -4645.83 0 2.98171e+06 -6195.13 0 2.98168e+06 -7745.03 0 2.98164e+06 -9295.67 0 2.98159e+06 -10847.2 0 2.98153e+06 -12399.8 0 2.98147e+06 -13953.5 0 2.9814e+06 -15508.6 0 2.98132e+06 -17065.2 0 2.98123e+06 -18623.4 0 2.98114e+06 -20183.4 0 2.98104e+06 -21745.3 0 2.98093e+06 -23309.3 0 2.98081e+06 -24875.5 0 2.98069e+06 -26444.1 0 2.98056e+06 -28015.2 0 2.98042e+06 -29589 0 2.98027e+06 -31165.6 0 2.98012e+06 -32745.1 0 2.97996e+06 -34327.8 0 2.97979e+06 -35913.7 0 2.97962e+06 -37503 0 2.97944e+06 -39095.9 0 2.97925e+06 -40692.5 0 2.97905e+06 -42292.9 0 2.97885e+06 -43897.3 0 2.97864e+06 -45505.9 0 2.97842e+06 -47118.7 0 2.9782e+06 -48736 0 2.97797e+06 -50357.9 0 2.97773e+06 -51984.5 0 2.97749e+06 -53615.9 0 2.97724e+06 -55252.4 0 2.97698e+06 -56894 0 2.97672e+06 -58540.9 0 2.97645e+06 -60193.3 0 2.97617e+06 -61851.3 0 2.97589e+06 -63515 0 2.9756e+06 -65184.6 0 2.9753e+06 -66860.2 0 2.975e+06 -68541.9 0 2.9747e+06 -70229.9 0 2.97438e+06 -71924.4 0 2.97406e+06 -73625.5 0 2.97374e+06 -75333.2 0 2.97341e+06 -77047.9 0 2.97307e+06 -78769.5 0 2.97273e+06 -80498.2 0 2.97238e+06 -82234.1 0 2.97203e+06 -83977.5 0 2.97167e+06 -85728.4 0 2.97131e+06 -87486.9 0 2.97094e+06 -89253.2 0 2.97056e+06 -91027.4 0 2.97019e+06 -92809.6 0 2.9698e+06 -94600 0 2.96942e+06 -96398.6 0 2.96902e+06 -98205.7 0 2.96863e+06 -100021 0 2.96822e+06 -101845 0 2.96782e+06 -103678 0 2.96741e+06 -105520 0 2.96699e+06 -107371 0 2.96658e+06 -109231 0 2.96615e+06 -111100 0 2.96573e+06 -112978 0 2.9653e+06 -114866 0 2.96487e+06 -116763 0 2.96443e+06 -118670 0 2.96399e+06 -120586 0 2.96355e+06 -122513 0 2.96311e+06 -124449 0 2.96266e+06 -126395 0 2.96221e+06 -128351 0 2.96176e+06 -130317 0 2.9613e+06 -132294 0 2.96084e+06 -134280 0 2.96038e+06 -136277 0 2.95992e+06 -138285 0 2.95946e+06 -140303 0 2.95899e+06 -142331 0 2.95853e+06 -144370 0 2.95806e+06 -146420 0 2.95759e+06 -148480 0 2.95712e+06 -150551 0 2.95665e+06 -152633 0 2.95617e+06 -154726 0 2.9557e+06 -156829 0 2.95523e+06 -158944 0 2.95475e+06 -161069 0 2.95428e+06 -163206 0 2.9538e+06 -165353 0 2.95332e+06 -167511 0 2.95285e+06 -169681 0 2.95237e+06 -171861 0 2.9519e+06 -174053 0 2.95142e+06 -176256 0 2.95095e+06 -178470 0 2.95047e+06 -180695 0 2.95e+06 -182931 0 2.94953e+06 -185178 0 2.94906e+06 -187437 0 2.94859e+06 -189706 0 2.94812e+06 -191987 0 2.94765e+06 -194279 0 2.94719e+06 -196582 0 2.94672e+06 -198896 0 2.94626e+06 -201222 0 2.9458e+06 -203558 0 2.94534e+06 -205906 0 2.94488e+06 -208265 0 2.94443e+06 -210634 0 2.94398e+06 -213015 0 2.94353e+06 -215406 0 2.94308e+06 -217808 0 2.94263e+06 -220219 0 2.94219e+06 -222641 0 2.94175e+06 -225071 0 2.9413e+06 -227510 0 2.94086e+06 -229956 0 2.94042e+06 -232408 0 2.93997e+06 -234864 0 2.93951e+06 -237323 0 2.93904e+06 -239781 0 2.93855e+06 -242235 0 3.00798e+06 0.00240046 0 3.00798e+06 -1666.82 0 3.00797e+06 -3333.76 0 3.00796e+06 -5000.97 0 3.00794e+06 -6668.55 0 3.00792e+06 -8336.65 0 3.00789e+06 -10005.4 0 3.00785e+06 -11674.9 0 3.00781e+06 -13345.3 0 3.00776e+06 -15016.7 0 3.00771e+06 -16689.3 0 3.00766e+06 -18363.1 0 3.00759e+06 -20038.4 0 3.00753e+06 -21715.2 0 3.00745e+06 -23393.6 0 3.00738e+06 -25073.8 0 3.00729e+06 -26756 0 3.0072e+06 -28440.1 0 3.00711e+06 -30126.5 0 3.00701e+06 -31815.1 0 3.00691e+06 -33506.1 0 3.0068e+06 -35199.7 0 3.00668e+06 -36896 0 3.00656e+06 -38595 0 3.00644e+06 -40297 0 3.00631e+06 -42002 0 3.00618e+06 -43710.1 0 3.00604e+06 -45421.6 0 3.00589e+06 -47136.4 0 3.00574e+06 -48854.8 0 3.00559e+06 -50576.8 0 3.00543e+06 -52302.7 0 3.00527e+06 -54032.4 0 3.0051e+06 -55766.1 0 3.00493e+06 -57504 0 3.00475e+06 -59246.2 0 3.00457e+06 -60992.7 0 3.00438e+06 -62743.7 0 3.00419e+06 -64499.4 0 3.00399e+06 -66259.8 0 3.00379e+06 -68025 0 3.00359e+06 -69795.2 0 3.00338e+06 -71570.5 0 3.00317e+06 -73351 0 3.00295e+06 -75136.8 0 3.00273e+06 -76928 0 3.00251e+06 -78724.8 0 3.00228e+06 -80527.3 0 3.00205e+06 -82335.4 0 3.00181e+06 -84149.5 0 3.00157e+06 -85969.6 0 3.00133e+06 -87795.7 0 3.00108e+06 -89628 0 3.00083e+06 -91466.7 0 3.00058e+06 -93311.7 0 3.00033e+06 -95163.3 0 3.00007e+06 -97021.4 0 2.9998e+06 -98886.3 0 2.99954e+06 -100758 0 2.99927e+06 -102637 0 2.999e+06 -104522 0 2.99872e+06 -106415 0 2.99844e+06 -108315 0 2.99816e+06 -110222 0 2.99788e+06 -112137 0 2.9976e+06 -114059 0 2.99731e+06 -115988 0 2.99702e+06 -117926 0 2.99673e+06 -119871 0 2.99643e+06 -121824 0 2.99614e+06 -123784 0 2.99584e+06 -125753 0 2.99554e+06 -127730 0 2.99524e+06 -129715 0 2.99494e+06 -131708 0 2.99463e+06 -133709 0 2.99433e+06 -135719 0 2.99402e+06 -137737 0 2.99371e+06 -139764 0 2.9934e+06 -141799 0 2.99309e+06 -143843 0 2.99278e+06 -145896 0 2.99247e+06 -147957 0 2.99215e+06 -150028 0 2.99184e+06 -152107 0 2.99153e+06 -154195 0 2.99121e+06 -156292 0 2.9909e+06 -158398 0 2.99058e+06 -160513 0 2.99027e+06 -162637 0 2.98995e+06 -164771 0 2.98964e+06 -166913 0 2.98932e+06 -169065 0 2.98901e+06 -171227 0 2.9887e+06 -173398 0 2.98838e+06 -175578 0 2.98807e+06 -177767 0 2.98776e+06 -179966 0 2.98745e+06 -182175 0 2.98713e+06 -184393 0 2.98682e+06 -186621 0 2.98652e+06 -188858 0 2.98621e+06 -191105 0 2.9859e+06 -193362 0 2.9856e+06 -195628 0 2.98529e+06 -197904 0 2.98499e+06 -200190 0 2.98469e+06 -202486 0 2.98439e+06 -204791 0 2.98409e+06 -207106 0 2.9838e+06 -209431 0 2.9835e+06 -211766 0 2.98321e+06 -214111 0 2.98292e+06 -216466 0 2.98263e+06 -218831 0 2.98235e+06 -221206 0 2.98206e+06 -223591 0 2.98178e+06 -225986 0 2.9815e+06 -228392 0 2.98122e+06 -230809 0 2.98095e+06 -233236 0 2.98068e+06 -235675 0 2.98041e+06 -238125 0 2.98015e+06 -240588 0 2.97989e+06 -243064 0 2.97964e+06 -245554 0 2.9794e+06 -248060 0 2.97917e+06 -250583 0 3.03562e+06 0.00204506 0 3.03561e+06 -1753.13 0 3.03561e+06 -3506.37 0 3.0356e+06 -5259.83 0 3.03559e+06 -7013.62 0 3.03557e+06 -8767.85 0 3.03555e+06 -10522.6 0 3.03553e+06 -12278 0 3.0355e+06 -14034.2 0 3.03547e+06 -15791.3 0 3.03544e+06 -17549.3 0 3.0354e+06 -19308.4 0 3.03536e+06 -21068.8 0 3.03531e+06 -22830.4 0 3.03527e+06 -24593.4 0 3.03521e+06 -26358 0 3.03516e+06 -28124.1 0 3.0351e+06 -29892.1 0 3.03504e+06 -31661.8 0 3.03497e+06 -33433.5 0 3.0349e+06 -35207.3 0 3.03483e+06 -36983.2 0 3.03476e+06 -38761.4 0 3.03468e+06 -40541.9 0 3.0346e+06 -42325 0 3.03451e+06 -44110.6 0 3.03442e+06 -45898.9 0 3.03433e+06 -47690 0 3.03424e+06 -49484 0 3.03414e+06 -51281 0 3.03404e+06 -53081.1 0 3.03394e+06 -54884.4 0 3.03383e+06 -56691 0 3.03372e+06 -58501 0 3.03361e+06 -60314.5 0 3.03349e+06 -62131.7 0 3.03337e+06 -63952.5 0 3.03325e+06 -65777.2 0 3.03313e+06 -67605.8 0 3.033e+06 -69438.4 0 3.03287e+06 -71275.1 0 3.03274e+06 -73116 0 3.03261e+06 -74961.2 0 3.03247e+06 -76810.8 0 3.03233e+06 -78664.9 0 3.03219e+06 -80523.5 0 3.03204e+06 -82386.9 0 3.0319e+06 -84255 0 3.03175e+06 -86128 0 3.0316e+06 -88006 0 3.03145e+06 -89889 0 3.03129e+06 -91777.2 0 3.03113e+06 -93670.6 0 3.03097e+06 -95569.3 0 3.03081e+06 -97473.4 0 3.03065e+06 -99383 0 3.03049e+06 -101298 0 3.03032e+06 -103219 0 3.03015e+06 -105146 0 3.02999e+06 -107078 0 3.02982e+06 -109016 0 3.02964e+06 -110961 0 3.02947e+06 -112911 0 3.0293e+06 -114868 0 3.02912e+06 -116831 0 3.02894e+06 -118800 0 3.02877e+06 -120775 0 3.02859e+06 -122757 0 3.02841e+06 -124746 0 3.02823e+06 -126741 0 3.02805e+06 -128743 0 3.02787e+06 -130751 0 3.02768e+06 -132767 0 3.0275e+06 -134789 0 3.02732e+06 -136818 0 3.02713e+06 -138855 0 3.02695e+06 -140898 0 3.02677e+06 -142949 0 3.02658e+06 -145006 0 3.0264e+06 -147072 0 3.02621e+06 -149144 0 3.02603e+06 -151224 0 3.02585e+06 -153311 0 3.02566e+06 -155406 0 3.02548e+06 -157508 0 3.0253e+06 -159618 0 3.02511e+06 -161736 0 3.02493e+06 -163861 0 3.02475e+06 -165995 0 3.02457e+06 -168136 0 3.02439e+06 -170285 0 3.02422e+06 -172442 0 3.02404e+06 -174607 0 3.02386e+06 -176780 0 3.02369e+06 -178961 0 3.02351e+06 -181150 0 3.02334e+06 -183348 0 3.02317e+06 -185554 0 3.023e+06 -187768 0 3.02284e+06 -189990 0 3.02267e+06 -192221 0 3.02251e+06 -194460 0 3.02234e+06 -196708 0 3.02218e+06 -198964 0 3.02203e+06 -201229 0 3.02187e+06 -203502 0 3.02172e+06 -205784 0 3.02156e+06 -208075 0 3.02141e+06 -210374 0 3.02127e+06 -212683 0 3.02112e+06 -215000 0 3.02098e+06 -217325 0 3.02084e+06 -219660 0 3.02071e+06 -222004 0 3.02057e+06 -224357 0 3.02044e+06 -226718 0 3.02032e+06 -229089 0 3.02019e+06 -231469 0 3.02007e+06 -233858 0 3.01996e+06 -236255 0 3.01984e+06 -238662 0 3.01973e+06 -241077 0 3.01962e+06 -243502 0 3.01952e+06 -245934 0 3.01941e+06 -248375 0 3.01931e+06 -250823 0 3.01921e+06 -253279 0 3.01911e+06 -255741 0 3.06418e+06 0.00174108 0 3.06418e+06 -1812.24 0 3.06417e+06 -3624.57 0 3.06417e+06 -5437.08 0 3.06416e+06 -7249.88 0 3.06415e+06 -9063.04 0 3.06414e+06 -10876.7 0 3.06413e+06 -12690.9 0 3.06411e+06 -14505.7 0 3.0641e+06 -16321.3 0 3.06408e+06 -18137.7 0 3.06406e+06 -19955 0 3.06403e+06 -21773.3 0 3.06401e+06 -23592.8 0 3.06398e+06 -25413.4 0 3.06395e+06 -27235.4 0 3.06392e+06 -29058.7 0 3.06389e+06 -30883.5 0 3.06385e+06 -32709.8 0 3.06382e+06 -34537.8 0 3.06378e+06 -36367.6 0 3.06374e+06 -38199.2 0 3.0637e+06 -40032.7 0 3.06365e+06 -41868.2 0 3.06361e+06 -43705.8 0 3.06356e+06 -45545.7 0 3.06351e+06 -47387.8 0 3.06346e+06 -49232.2 0 3.06341e+06 -51079.2 0 3.06335e+06 -52928.6 0 3.0633e+06 -54780.7 0 3.06324e+06 -56635.6 0 3.06318e+06 -58493.2 0 3.06312e+06 -60353.7 0 3.06306e+06 -62217.2 0 3.063e+06 -64083.8 0 3.06293e+06 -65953.5 0 3.06287e+06 -67826.4 0 3.0628e+06 -69702.7 0 3.06273e+06 -71582.3 0 3.06266e+06 -73465.5 0 3.06259e+06 -75352.2 0 3.06252e+06 -77242.6 0 3.06245e+06 -79136.6 0 3.06237e+06 -81034.5 0 3.0623e+06 -82936.3 0 3.06222e+06 -84842.1 0 3.06215e+06 -86751.9 0 3.06207e+06 -88665.9 0 3.06199e+06 -90584 0 3.06191e+06 -92506.4 0 3.06183e+06 -94433.2 0 3.06175e+06 -96364.5 0 3.06167e+06 -98300.2 0 3.06159e+06 -100241 0 3.06151e+06 -102186 0 3.06142e+06 -104135 0 3.06134e+06 -106090 0 3.06126e+06 -108049 0 3.06117e+06 -110014 0 3.06109e+06 -111983 0 3.061e+06 -113958 0 3.06092e+06 -115937 0 3.06083e+06 -117922 0 3.06075e+06 -119912 0 3.06067e+06 -121908 0 3.06058e+06 -123909 0 3.0605e+06 -125916 0 3.06041e+06 -127928 0 3.06033e+06 -129945 0 3.06025e+06 -131969 0 3.06017e+06 -133998 0 3.06008e+06 -136033 0 3.06e+06 -138074 0 3.05992e+06 -140121 0 3.05984e+06 -142174 0 3.05976e+06 -144232 0 3.05968e+06 -146297 0 3.05961e+06 -148369 0 3.05953e+06 -150446 0 3.05945e+06 -152530 0 3.05938e+06 -154620 0 3.05931e+06 -156716 0 3.05923e+06 -158819 0 3.05916e+06 -160929 0 3.05909e+06 -163045 0 3.05903e+06 -165167 0 3.05896e+06 -167297 0 3.05889e+06 -169433 0 3.05883e+06 -171576 0 3.05877e+06 -173725 0 3.05871e+06 -175882 0 3.05865e+06 -178045 0 3.0586e+06 -180215 0 3.05854e+06 -182393 0 3.05849e+06 -184577 0 3.05844e+06 -186769 0 3.0584e+06 -188968 0 3.05835e+06 -191173 0 3.05831e+06 -193387 0 3.05827e+06 -195607 0 3.05823e+06 -197835 0 3.0582e+06 -200070 0 3.05817e+06 -202312 0 3.05814e+06 -204562 0 3.05811e+06 -206820 0 3.05809e+06 -209085 0 3.05807e+06 -211357 0 3.05806e+06 -213637 0 3.05804e+06 -215925 0 3.05803e+06 -218221 0 3.05802e+06 -220524 0 3.05802e+06 -222835 0 3.05802e+06 -225154 0 3.05802e+06 -227480 0 3.05803e+06 -229815 0 3.05804e+06 -232157 0 3.05806e+06 -234508 0 3.05808e+06 -236866 0 3.0581e+06 -239233 0 3.05812e+06 -241608 0 3.05815e+06 -243991 0 3.05819e+06 -246382 0 3.05823e+06 -248782 0 3.05827e+06 -251191 0 3.05832e+06 -253609 0 3.05838e+06 -256036 0 3.05844e+06 -258473 0 3.09326e+06 0.00147517 0 3.09326e+06 -1848.33 0 3.09326e+06 -3696.74 0 3.09326e+06 -5545.3 0 3.09326e+06 -7394.11 0 3.09325e+06 -9243.22 0 3.09325e+06 -11092.7 0 3.09324e+06 -12942.7 0 3.09324e+06 -14793.2 0 3.09323e+06 -16644.4 0 3.09323e+06 -18496.3 0 3.09322e+06 -20348.9 0 3.09321e+06 -22202.4 0 3.0932e+06 -24056.9 0 3.09319e+06 -25912.3 0 3.09318e+06 -27768.9 0 3.09317e+06 -29626.6 0 3.09316e+06 -31485.6 0 3.09315e+06 -33345.9 0 3.09314e+06 -35207.6 0 3.09313e+06 -37070.8 0 3.09311e+06 -38935.6 0 3.0931e+06 -40801.9 0 3.09308e+06 -42670 0 3.09307e+06 -44539.9 0 3.09306e+06 -46411.6 0 3.09304e+06 -48285.3 0 3.09302e+06 -50161 0 3.09301e+06 -52038.7 0 3.09299e+06 -53918.7 0 3.09297e+06 -55800.8 0 3.09296e+06 -57685.3 0 3.09294e+06 -59572.1 0 3.09292e+06 -61461