<?xml version="1.0"?> 
<VTKFile type="StructuredGrid" version="0.1"> 
<StructuredGrid WholeExtent="0 127 0 127 0 0"> 
<Piece Extent="0 127 0 127 0 0"> 
<PointData>
<DataArray type="Float32" Name="E" format="ascii" NumberOfComponents="3"> 
-1.36793e+06 5.96396e+06 0 -1.33096e+06 5.87401e+06 0 -1.30202e+06 5.82008e+06 0 -1.27709e+06 5.78543e+06 0 -1.25473e+06 5.76418e+06 0 -1.234e+06 5.75264e+06 0 -1.21435e+06 5.74862e+06 0 -1.19536e+06 5.75057e+06 0 -1.17674e+06 5.75739e+06 0 -1.15825e+06 5.76827e+06 0 -1.13971e+06 5.78256e+06 0 -1.12096e+06 5.79978e+06 0 -1.10187e+06 5.81952e+06 0 -1.08233e+06 5.84145e+06 0 -1.06225e+06 5.86531e+06 0 -1.04153e+06 5.89084e+06 0 -1.02009e+06 5.91786e+06 0 -997860 5.9462e+06 0 -974774 5.97569e+06 0 -950767 6.00619e+06 0 -925780 6.03758e+06 0 -899756 6.06975e+06 0 -872643 6.10257e+06 0 -844391 6.13594e+06 0 -814952 6.16977e+06 0 -784283 6.20396e+06 0 -752342 6.2384e+06 0 -719091 6.273e+06 0 -684494 6.30768e+06 0 -648520 6.34233e+06 0 -611141 6.37686e+06 0 -572331 6.41117e+06 0 -532072 6.44517e+06 0 -490347 6.47875e+06 0 -447145 6.51183e+06 0 -402461 6.54429e+06 0 -356295 6.57604e+06 0 -308652 6.60698e+06 0 -259545 6.63699e+06 0 -208993 6.66597e+06 0 -157021 6.69383e+06 0 -103663 6.72044e+06 0 -48959.3 6.74572e+06 0 7041.78 6.76956e+06 0 64283.7 6.79186e+06 0 122702 6.81251e+06 0 182225 6.83143e+06 0 242771 6.84852e+06 0 304252 6.86369e+06 0 366572 6.87688e+06 0 429628 6.88799e+06 0 493308 6.89696e+06 0 557497 6.90373e+06 0 622070 6.90825e+06 0 686900 6.91048e+06 0 751853 6.91039e+06 0 816793 6.90794e+06 0 881581 6.90313e+06 0 946076 6.89595e+06 0 1.01013e+06 6.88642e+06 0 1.07362e+06 6.87456e+06 0 1.13638e+06 6.86039e+06 0 1.19829e+06 6.84397e+06 0 1.2592e+06 6.82534e+06 0 1.319e+06 6.80456e+06 0 1.37755e+06 6.78173e+06 0 1.43473e+06 6.75691e+06 0 1.49044e+06 6.7302e+06 0 1.54457e+06 6.70171e+06 0 1.59702e+06 6.67154e+06 0 1.6477e+06 6.63981e+06 0 1.69655e+06 6.60663e+06 0 1.74349e+06 6.57214e+06 0 1.78847e+06 6.53647e+06 0 1.83144e+06 6.49974e+06 0 1.87236e+06 6.46209e+06 0 1.9112e+06 6.42366e+06 0 1.94796e+06 6.38458e+06 0 1.98262e+06 6.34499e+06 0 2.01518e+06 6.30501e+06 0 2.04566e+06 6.26479e+06 0 2.07407e+06 6.22445e+06 0 2.10044e+06 6.18411e+06 0 2.12481e+06 6.14389e+06 0 2.14721e+06 6.10393e+06 0 2.1677e+06 6.06432e+06 0 2.18632e+06 6.02517e+06 0 2.20314e+06 5.9866e+06 0 2.21821e+06 5.94871e+06 0 2.2316e+06 5.91158e+06 0 2.24337e+06 5.8753e+06 0 2.25361e+06 5.83998e+06 0 2.26238e+06 5.80568e+06 0 2.26975e+06 5.7725e+06 0 2.27582e+06 5.7405e+06 0 2.28064e+06 5.70976e+06 0 2.28431e+06 5.68034e+06 0 2.2869e+06 5.65233e+06 0 2.28849e+06 5.62579e+06 0 2.28916e+06 5.60078e+06 0 2.28899e+06 5.57737e+06 0 2.28807e+06 5.55563e+06 0 2.28647e+06 5.53564e+06 0 2.28428e+06 5.51746e+06 0 2.28158e+06 5.50118e+06 0 2.27845e+06 5.48688e+06 0 2.27497e+06 5.47464e+06 0 2.27124e+06 5.46458e+06 0 2.26734e+06 5.45679e+06 0 2.26337e+06 5.45141e+06 0 2.25942e+06 5.44857e+06 0 2.25559e+06 5.44844e+06 0 2.252e+06 5.45121e+06 0 2.24875e+06 5.45708e+06 0 2.24599e+06 5.46632e+06 0 2.24386e+06 5.47923e+06 0 2.24252e+06 5.49618e+06 0 2.24217e+06 5.51761e+06 0 2.24304e+06 5.54408e+06 0 2.2454e+06 5.57628e+06 0 2.2496e+06 5.61508e+06 0 2.25608e+06 5.66165e+06 0 2.26543e+06 5.71754e+06 0 2.27846e+06 5.78495e+06 0 2.29638e+06 5.86709e+06 0 2.32112e+06 5.96925e+06 0 2.35607e+06 6.10051e+06 0 2.40998e+06 6.28435e+06 0 -1.4272e+06 5.92128e+06 0 -1.3685e+06 5.84756e+06 0 -1.32709e+06 5.79898e+06 0 -1.29337e+06 5.7675e+06 0 -1.26451e+06 5.74801e+06 0 -1.23866e+06 5.73755e+06 0 -1.21484e+06 5.7341e+06 0 -1.19235e+06 5.73627e+06 0 -1.17074e+06 5.74305e+06 0 -1.14963e+06 5.75367e+06 0 -1.12878e+06 5.76754e+06 0 -1.10797e+06 5.78417e+06 0 -1.08702e+06 5.8032e+06 0 -1.06579e+06 5.82429e+06 0 -1.04417e+06 5.8472e+06 0 -1.02204e+06 5.87169e+06 0 -999312 5.89757e+06 0 -975906 5.92466e+06 0 -951745 5.95282e+06 0 -926762 5.98191e+06 0 -900896 6.0118e+06 0 -874089 6.04237e+06 0 -846289 6.07353e+06 0 -817449 6.10516e+06 0 -787522 6.13716e+06 0 -756470 6.16945e+06 0 -724254 6.20192e+06 0 -690840 6.23449e+06 0 -656200 6.26706e+06 0 -620306 6.29955e+06 0 -583137 6.33187e+06 0 -544673 6.36392e+06 0 -504901 6.39561e+06 0 -463812 6.42686e+06 0 -421399 6.45758e+06 0 -377664 6.48767e+06 0 -332611 6.51704e+06 0 -286252 6.5456e+06 0 -238601 6.57326e+06 0 -189681 6.59992e+06 0 -139520 6.62551e+06 0 -88151.9 6.64991e+06 0 -35616.7 6.67306e+06 0 18038.6 6.69486e+06 0 72761.1 6.71522e+06 0 128491 6.73407e+06 0 185164 6.75132e+06 0 242706 6.76691e+06 0 301039 6.78075e+06 0 360081 6.79279e+06 0 419740 6.80297e+06 0 479923 6.81122e+06 0 540528 6.8175e+06 0 601453 6.82178e+06 0 662589 6.82401e+06 0 723825 6.82416e+06 0 785045 6.82223e+06 0 846135 6.8182e+06 0 906976 6.81207e+06 0 967449 6.80384e+06 0 1.02744e+06 6.79353e+06 0 1.08682e+06 6.78117e+06 0 1.14549e+06 6.76678e+06 0 1.20332e+06 6.75042e+06 0 1.26021e+06 6.73212e+06 0 1.31604e+06 6.71196e+06 0 1.37073e+06 6.68999e+06 0 1.42416e+06 6.66629e+06 0 1.47625e+06 6.64094e+06 0 1.52691e+06 6.61403e+06 0 1.57606e+06 6.58565e+06 0 1.62363e+06 6.5559e+06 0 1.66955e+06 6.52489e+06 0 1.71378e+06 6.49271e+06 0 1.75625e+06 6.45948e+06 0 1.79694e+06 6.42532e+06 0 1.8358e+06 6.39033e+06 0 1.87281e+06 6.35464e+06 0 1.90795e+06 6.31836e+06 0 1.94123e+06 6.28161e+06 0 1.97263e+06 6.24451e+06 0 2.00216e+06 6.20717e+06 0 2.02984e+06 6.1697e+06 0 2.05568e+06 6.13222e+06 0 2.07972e+06 6.09484e+06 0 2.10198e+06 6.05766e+06 0 2.12251e+06 6.02079e+06 0 2.14135e+06 5.98433e+06 0 2.15855e+06 5.94838e+06 0 2.17415e+06 5.91303e+06 0 2.18823e+06 5.87837e+06 0 2.20083e+06 5.84449e+06 0 2.21202e+06 5.81148e+06 0 2.22187e+06 5.77941e+06 0 2.23045e+06 5.74837e+06 0 2.23782e+06 5.71843e+06 0 2.24407e+06 5.68967e+06 0 2.24926e+06 5.66216e+06 0 2.25347e+06 5.63597e+06 0 2.25678e+06 5.61117e+06 0 2.25927e+06 5.58784e+06 0 2.26101e+06 5.56604e+06 0 2.2621e+06 5.54585e+06 0 2.26262e+06 5.52734e+06 0 2.26265e+06 5.51059e+06 0 2.26227e+06 5.49569e+06 0 2.26159e+06 5.48273e+06 0 2.26069e+06 5.4718e+06 0 2.25969e+06 5.46301e+06 0 2.25867e+06 5.45648e+06 0 2.25776e+06 5.45234e+06 0 2.25707e+06 5.45073e+06 0 2.25674e+06 5.45184e+06 0 2.25692e+06 5.45585e+06 0 2.25777e+06 5.463e+06 0 2.25948e+06 5.47355e+06 0 2.26227e+06 5.48783e+06 0 2.2664e+06 5.50621e+06 0 2.27221e+06 5.52917e+06 0 2.28007e+06 5.55728e+06 0 2.2905e+06 5.59126e+06 0 2.30417e+06 5.63201e+06 0 2.32199e+06 5.68073e+06 0 2.34526e+06 5.73899e+06 0 2.37592e+06 5.80894e+06 0 2.41731e+06 5.89356e+06 0 2.47466e+06 5.9971e+06 0 2.56138e+06 6.12278e+06 0 -1.4712e+06 5.86852e+06 0 -1.40033e+06 5.81233e+06 0 -1.34897e+06 5.77199e+06 0 -1.30786e+06 5.74504e+06 0 -1.27322e+06 5.72828e+06 0 -1.24272e+06 5.71949e+06 0 -1.21506e+06 5.71706e+06 0 -1.18932e+06 5.71978e+06 0 -1.1649e+06 5.72676e+06 0 -1.14135e+06 5.73732e+06 0 -1.11833e+06 5.75091e+06 0 -1.09559e+06 5.7671e+06 0 -1.0729e+06 5.78553e+06 0 -1.0501e+06 5.8059e+06 0 -1.02704e+06 5.82795e+06 0 -1.00361e+06 5.85148e+06 0 -979704 5.8763e+06 0 -955222 5.90224e+06 0 -930089 5.92916e+06 0 -904233 5.95692e+06 0 -877589 5.9854e+06 0 -850100 6.01449e+06 0 -821713 6.04408e+06 0 -792382 6.07407e+06 0 -762065 6.10437e+06 0 -730723 6.13489e+06 0 -698322 6.16553e+06 0 -664832 6.1962e+06 0 -630228 6.22683e+06 0 -594487 6.25733e+06 0 -557592 6.28761e+06 0 -519530 6.31759e+06 0 -480290 6.34718e+06 0 -439867 6.37631e+06 0 -398262 6.40489e+06 0 -355478 6.43283e+06 0 -311523 6.46006e+06 0 -266411 6.4865e+06 0 -220160 6.51206e+06 0 -172794 6.53666e+06 0 -124342 6.56023e+06 0 -74836.7 6.58268e+06 0 -24317.7 6.60395e+06 0 27171.1 6.62396e+06 0 79580.3 6.64263e+06 0 132855 6.65991e+06 0 186937 6.67571e+06 0 241761 6.68999e+06 0 297258 6.70268e+06 0 353354 6.71373e+06 0 409972 6.7231e+06 0 467030 6.73072e+06 0 524442 6.73658e+06 0 582120 6.74063e+06 0 639972 6.74285e+06 0 697904 6.74321e+06 0 755819 6.7417e+06 0 813620 6.73832e+06 0 871207 6.73305e+06 0 928482 6.72591e+06 0 985345 6.71691e+06 0 1.0417e+06 6.70606e+06 0 1.09744e+06 6.6934e+06 0 1.15247e+06 6.67895e+06 0 1.20671e+06 6.66276e+06 0 1.26005e+06 6.64487e+06 0 1.31241e+06 6.62533e+06 0 1.36371e+06 6.60421e+06 0 1.41386e+06 6.58156e+06 0 1.46278e+06 6.55747e+06 0 1.51041e+06 6.53199e+06 0 1.55668e+06 6.50522e+06 0 1.60152e+06 6.47724e+06 0 1.64489e+06 6.44814e+06 0 1.68673e+06 6.41801e+06 0 1.72701e+06 6.38694e+06 0 1.76568e+06 6.35504e+06 0 1.80272e+06 6.3224e+06 0 1.8381e+06 6.28913e+06 0 1.87182e+06 6.25532e+06 0 1.90385e+06 6.22108e+06 0 1.9342e+06 6.18651e+06 0 1.96288e+06 6.15172e+06 0 1.98988e+06 6.11681e+06 0 2.01523e+06 6.08188e+06 0 2.03895e+06 6.04702e+06 0 2.06107e+06 6.01233e+06 0 2.08162e+06 5.97792e+06 0 2.10063e+06 5.94388e+06 0 2.11816e+06 5.91028e+06 0 2.13424e+06 5.87724e+06 0 2.14892e+06 5.84482e+06 0 2.16227e+06 5.81312e+06 0 2.17433e+06 5.78222e+06 0 2.18517e+06 5.7522e+06 0 2.19486e+06 5.72313e+06 0 2.20345e+06 5.69509e+06 0 2.21103e+06 5.66815e+06 0 2.21766e+06 5.6424e+06 0 2.22341e+06 5.6179e+06 0 2.22837e+06 5.59472e+06 0 2.2326e+06 5.57294e+06 0 2.23621e+06 5.55263e+06 0 2.23926e+06 5.53387e+06 0 2.24184e+06 5.51673e+06 0 2.24406e+06 5.5013e+06 0 2.246e+06 5.48767e+06 0 2.24776e+06 5.47592e+06 0 2.24946e+06 5.46616e+06 0 2.25121e+06 5.4585e+06 0 2.25313e+06 5.45306e+06 0 2.25536e+06 5.44998e+06 0 2.25805e+06 5.4494e+06 0 2.26136e+06 5.4515e+06 0 2.26549e+06 5.45649e+06 0 2.27066e+06 5.46458e+06 0 2.27713e+06 5.47604e+06 0 2.2852e+06 5.49119e+06 0 2.29525e+06 5.5104e+06 0 2.30775e+06 5.53412e+06 0 2.3233e+06 5.56287e+06 0 2.34266e+06 5.59731e+06 0 2.36689e+06 5.63821e+06 0 2.39744e+06 5.68653e+06 0 2.43639e+06 5.74337e+06 0 2.48696e+06 5.80989e+06 0 2.55387e+06 5.88692e+06 0 2.64564e+06 5.97335e+06 0 -1.5025e+06 5.81279e+06 0 -1.42533e+06 5.77172e+06 0 -1.367e+06 5.74037e+06 0 -1.32001e+06 5.71878e+06 0 -1.28047e+06 5.70539e+06 0 -1.2459e+06 5.69876e+06 0 -1.21479e+06 5.6977e+06 0 -1.1861e+06 5.70124e+06 0 -1.15911e+06 5.70865e+06 0 -1.1333e+06 5.71934e+06 0 -1.10828e+06 5.73281e+06 0 -1.08374e+06 5.74868e+06 0 -1.05943e+06 5.76662e+06 0 -1.03518e+06 5.78636e+06 0 -1.01081e+06 5.80766e+06 0 -986181 5.83032e+06 0 -961190 5.85417e+06 0 -935733 5.87904e+06 0 -909725 5.9048e+06 0 -883091 5.93132e+06 0 -855763 5.95849e+06 0 -827684 5.98618e+06 0 -798801 6.01431e+06 0 -769068 6.04278e+06 0 -738444 6.07149e+06 0 -706893 6.10036e+06 0 -674384 6.1293e+06 0 -640890 6.15822e+06 0 -606387 6.18706e+06 0 -570859 6.21572e+06 0 -534289 6.24413e+06 0 -496669 6.27221e+06 0 -457991 6.29988e+06 0 -418255 6.32708e+06 0 -377462 6.35371e+06 0 -335619 6.37972e+06 0 -292737 6.40502e+06 0 -248831 6.42955e+06 0 -203921 6.45323e+06 0 -158030 6.47599e+06 0 -111187 6.49777e+06 0 -63424.7 6.51849e+06 0 -14779.8 6.5381e+06 0 34706.2 6.55653e+06 0 84988.1 6.57372e+06 0 136016 6.58961e+06 0 187737 6.60415e+06 0 240093 6.61728e+06 0 293023 6.62896e+06 0 346463 6.63915e+06 0 400345 6.64781e+06 0 454599 6.65489e+06 0 509150 6.66037e+06 0 563922 6.66421e+06 0 618839 6.66641e+06 0 673819 6.66693e+06 0 728781 6.66578e+06 0 783642 6.66293e+06 0 838318 6.6584e+06 0 892726 6.65218e+06 0 946781 6.64428e+06 0 1.0004e+06 6.63472e+06 0 1.0535e+06 6.62352e+06 0 1.10599e+06 6.6107e+06 0 1.15781e+06 6.5963e+06 0 1.20886e+06 6.58036e+06 0 1.25907e+06 6.56291e+06 0 1.30837e+06 6.544e+06 0 1.35668e+06 6.52368e+06 0 1.40394e+06 6.50202e+06 0 1.45009e+06 6.47908e+06 0 1.49506e+06 6.45491e+06 0 1.53879e+06 6.42959e+06 0 1.58124e+06 6.4032e+06 0 1.62236e+06 6.3758e+06 0 1.6621e+06 6.34749e+06 0 1.70044e+06 6.31834e+06 0 1.73733e+06 6.28844e+06 0 1.77275e+06 6.25788e+06 0 1.80669e+06 6.22674e+06 0 1.83913e+06 6.19512e+06 0 1.87005e+06 6.16311e+06 0 1.89946e+06 6.13079e+06 0 1.92735e+06 6.09827e+06 0 1.95375e+06 6.06563e+06 0 1.97865e+06 6.03296e+06 0 2.00207e+06 6.00036e+06 0 2.02405e+06 5.96791e+06 0 2.0446e+06 5.93571e+06 0 2.06377e+06 5.90383e+06 0 2.08159e+06 5.87237e+06 0 2.09809e+06 5.84141e+06 0 2.11333e+06 5.81103e+06 0 2.12736e+06 5.78131e+06 0 2.14023e+06 5.75233e+06 0 2.152e+06 5.72417e+06 0 2.16273e+06 5.6969e+06 0 2.17247e+06 5.6706e+06 0 2.18131e+06 5.64534e+06 0 2.18931e+06 5.6212e+06 0 2.19654e+06 5.59825e+06 0 2.20308e+06 5.57655e+06 0 2.20901e+06 5.5562e+06 0 2.21441e+06 5.53725e+06 0 2.21939e+06 5.51979e+06 0 2.22401e+06 5.50389e+06 0 2.2284e+06 5.48964e+06 0 2.23264e+06 5.47714e+06 0 2.23686e+06 5.46646e+06 0 2.24117e+06 5.45771e+06 0 2.24571e+06 5.45101e+06 0 2.25063e+06 5.44646e+06 0 2.25607e+06 5.44421e+06 0 2.26223e+06 5.44441e+06 0 2.26932e+06 5.44721e+06 0 2.27756e+06 5.45281e+06 0 2.28725e+06 5.46142e+06 0 2.2987e+06 5.47329e+06 0 2.31234e+06 5.48868e+06 0 2.32864e+06 5.50793e+06 0 2.34824e+06 5.5314e+06 0 2.37193e+06 5.55949e+06 0 2.40075e+06 5.59265e+06 0 2.43608e+06 5.63133e+06 0 2.47981e+06 5.67593e+06 0 2.53459e+06 5.72658e+06 0 2.60391e+06 5.78277e+06 0 2.69303e+06 5.84232e+06 0 -1.5237e+06 5.75617e+06 0 -1.44369e+06 5.72806e+06 0 -1.38088e+06 5.70541e+06 0 -1.3295e+06 5.68947e+06 0 -1.286e+06 5.67982e+06 0 -1.24799e+06 5.67568e+06 0 -1.21386e+06 5.67626e+06 0 -1.18254e+06 5.68086e+06 0 -1.15324e+06 5.68889e+06 0 -1.12537e+06 5.69985e+06 0 -1.09852e+06 5.71333e+06 0 -1.07233e+06 5.729e+06 0 -1.04655e+06 5.74656e+06 0 -1.02096e+06 5.76577e+06 0 -995382 5.78641e+06 0 -969668 5.80829e+06 0 -943696 5.83125e+06 0 -917361 5.85515e+06 0 -890571 5.87984e+06 0 -863249 5.90521e+06 0 -835325 5.93115e+06 0 -806740 5.95755e+06 0 -777442 5.98432e+06 0 -747385 6.01136e+06 0 -716529 6.03859e+06 0 -684841 6.06593e+06 0 -652289 6.09329e+06 0 -618850 6.1206e+06 0 -584504 6.14778e+06 0 -549233 6.17475e+06 0 -513028 6.20144e+06 0 -475879 6.22778e+06 0 -437784 6.25371e+06 0 -398742 6.27914e+06 0 -358758 6.30402e+06 0 -317840 6.32827e+06 0 -276000 6.35184e+06 0 -233255 6.37465e+06 0 -189624 6.39664e+06 0 -145130 6.41776e+06 0 -99801 6.43793e+06 0 -53668.3 6.45712e+06 0 -6766.45 6.47525e+06 0 40866.5 6.49228e+06 0 89188.8 6.50816e+06 0 138156 6.52283e+06 0 187719 6.53625e+06 0 237828 6.54838e+06 0 288428 6.55918e+06 0 339463 6.56861e+06 0 390874 6.57664e+06 0 442599 6.58324e+06 0 494575 6.58838e+06 0 546736 6.59204e+06 0 599016 6.59421e+06 0 651346 6.59486e+06 0 703656 6.59399e+06 0 755877 6.5916e+06 0 807936 6.58768e+06 0 859763 6.58224e+06 0 911286 6.57528e+06 0 962433 6.56681e+06 0 1.01313e+06 6.55686e+06 0 1.06332e+06 6.54544e+06 0 1.11291e+06 6.53258e+06 0 1.16186e+06 6.5183e+06 0 1.21008e+06 6.50264e+06 0 1.25751e+06 6.48565e+06 0 1.3041e+06 6.46735e+06 0 1.34978e+06 6.44781e+06 0 1.39449e+06 6.42706e+06 0 1.43818e+06 6.40517e+06 0 1.4808e+06 6.38218e+06 0 1.52229e+06 6.35818e+06 0 1.56263e+06 6.3332e+06 0 1.60176e+06 6.30734e+06 0 1.63964e+06 6.28064e+06 0 1.67626e+06 6.2532e+06 0 1.71157e+06 6.22508e+06 0 1.74556e+06 6.19636e+06 0 1.77821e+06 6.16713e+06 0 1.8095e+06 6.13745e+06 0 1.83943e+06 6.10741e+06 0 1.868e+06 6.0771e+06 0 1.8952e+06 6.0466e+06 0 1.92104e+06 6.01599e+06 0 1.94553e+06 5.98535e+06 0 1.96869e+06 5.95476e+06 0 1.99054e+06 5.92432e+06 0 2.0111e+06 5.89409e+06 0 2.0304e+06 5.86417e+06 0 2.04849e+06 5.83463e+06 0 2.06539e+06 5.80556e+06 0 2.08115e+06 5.77702e+06 0 2.09582e+06 5.74909e+06 0 2.10945e+06 5.72186e+06 0 2.12209e+06 5.69539e+06 0 2.1338e+06 5.66977e+06 0 2.14464e+06 5.64505e+06 0 2.15469e+06 5.62132e+06 0 2.164e+06 5.59864e+06 0 2.17265e+06 5.5771e+06 0 2.18073e+06 5.55675e+06 0 2.18831e+06 5.53768e+06 0 2.19549e+06 5.51996e+06 0 2.20235e+06 5.50365e+06 0 2.20899e+06 5.48886e+06 0 2.21553e+06 5.47564e+06 0 2.22207e+06 5.4641e+06 0 2.22874e+06 5.45432e+06 0 2.23569e+06 5.4464e+06 0 2.24305e+06 5.44044e+06 0 2.25099e+06 5.43656e+06 0 2.25971e+06 5.43488e+06 0 2.26942e+06 5.43554e+06 0 2.28037e+06 5.43869e+06 0 2.29284e+06 5.44448e+06 0 2.30717e+06 5.45311e+06 0 2.32376e+06 5.46475e+06 0 2.34312e+06 5.47963e+06 0 2.36585e+06 5.49797e+06 0 2.39269e+06 5.51997e+06 0 2.42462e+06 5.54584e+06 0 2.46284e+06 5.5757e+06 0 2.50892e+06 5.6095e+06 0 2.56491e+06 5.64686e+06 0 2.63326e+06 5.68679e+06 0 2.7172e+06 5.72716e+06 0 -1.5368e+06 5.70009e+06 0 -1.4561e+06 5.68287e+06 0 -1.39069e+06 5.66821e+06 0 -1.33622e+06 5.65785e+06 0 -1.28967e+06 5.65206e+06 0 -1.24883e+06 5.6506e+06 0 -1.21215e+06 5.65301e+06 0 -1.17854e+06 5.65883e+06 0 -1.14719e+06 5.66762e+06 0 -1.11749e+06 5.67899e+06 0 -1.08898e+06 5.69261e+06 0 -1.06131e+06 5.70819e+06 0 -1.03418e+06 5.72547e+06 0 -1.00738e+06 5.74424e+06 0 -980703 5.7643e+06 0 -954004 5.78549e+06 0 -927150 5.80764e+06 0 -900028 5.83064e+06 0 -872545 5.85435e+06 0 -844619 5.87865e+06 0 -816180 5.90346e+06 0 -787167 5.92866e+06 0 -757528 5.95416e+06 0 -727217 5.97989e+06 0 -696196 6.00575e+06 0 -664430 6.03167e+06 0 -631892 6.05757e+06 0 -598559 6.08338e+06 0 -564412 6.10903e+06 0 -529438 6.13445e+06 0 -493625 6.15957e+06 0 -456969 6.18432e+06 0 -419467 6.20864e+06 0 -381121 6.23247e+06 0 -341936 6.25575e+06 0 -301921 6.27842e+06 0 -261089 6.30041e+06 0 -219457 6.32167e+06 0 -177043 6.34215e+06 0 -133870 6.36179e+06 0 -89965.4 6.38054e+06 0 -45356.9 6.39835e+06 0 -77.0843 6.41517e+06 0 45838.9 6.43096e+06 0 92353.2 6.44567e+06 0 139425 6.45926e+06 0 187012 6.47169e+06 0 235068 6.48294e+06 0 283546 6.49295e+06 0 332395 6.50171e+06 0 381565 6.50919e+06 0 431001 6.51535e+06 0 480649 6.52019e+06 0 530453 6.52368e+06 0 580354 6.52581e+06 0 630294 6.52657e+06 0 680213 6.52594e+06 0 730052 6.52393e+06 0 779748 6.52053e+06 0 829242 6.51575e+06 0 878472 6.50959e+06 0 927377 6.50206e+06 0 975895 6.49318e+06 0 1.02397e+06 6.48295e+06 0 1.07153e+06 6.47141e+06 0 1.11853e+06 6.45857e+06 0 1.16491e+06 6.44447e+06 0 1.21061e+06 6.42913e+06 0 1.25557e+06 6.41259e+06 0 1.29975e+06 6.39488e+06 0 1.34309e+06 6.37606e+06 0 1.38553e+06 6.35616e+06 0 1.42705e+06 6.33523e+06 0 1.46758e+06 6.31332e+06 0 1.5071e+06 6.29049e+06 0 1.54556e+06 6.2668e+06 0 1.58292e+06 6.2423e+06 0 1.61916e+06 6.21705e+06 0 1.65424e+06 6.19113e+06 0 1.68815e+06 6.1646e+06 0 1.72086e+06 6.13752e+06 0 1.75236e+06 6.10998e+06 0 1.78264e+06 6.08203e+06 0 1.81168e+06 6.05376e+06 0 1.83949e+06 6.02523e+06 0 1.86606e+06 5.99653e+06 0 1.89141e+06 5.96773e+06 0 1.91553e+06 5.93891e+06 0 1.93846e+06 5.91013e+06 0 1.96019e+06 5.88149e+06 0 1.98077e+06 5.85304e+06 0 2.00022e+06 5.82488e+06 0 2.01856e+06 5.79707e+06 0 2.03584e+06 5.7697e+06 0 2.0521e+06 5.74282e+06 0 2.06737e+06 5.71652e+06 0 2.08172e+06 5.69087e+06 0 2.09519e+06 5.66593e+06 0 2.10785e+06 5.64179e+06 0 2.11974e+06 5.61851e+06 0 2.13095e+06 5.59615e+06 0 2.14153e+06 5.5748e+06 0 2.15157e+06 5.55452e+06 0 2.16115e+06 5.53538e+06 0 2.17034e+06 5.51744e+06 0 2.17925e+06 5.5008e+06 0 2.18797e+06 5.48551e+06 0 2.19661e+06 5.47165e+06 0 2.20529e+06 5.4593e+06 0 2.21412e+06 5.44855e+06 0 2.22325e+06 5.43947e+06 0 2.23283e+06 5.43216e+06 0 2.24302e+06 5.42672e+06 0 2.25402e+06 5.42324e+06 0 2.26605e+06 5.42183e+06 0 2.27935e+06 5.4226e+06 0 2.29419e+06 5.42568e+06 0 2.31093e+06 5.43118e+06 0 2.32994e+06 5.43923e+06 0 2.3517e+06 5.44996e+06 0 2.37678e+06 5.46347e+06 0 2.40584e+06 5.47983e+06 0 2.43974e+06 5.49907e+06 0 2.4795e+06 5.52109e+06 0 2.52638e+06 5.54563e+06 0 2.58189e+06 5.57209e+06 0 2.64776e+06 5.59938e+06 0 2.72602e+06 5.62564e+06 0 -1.54337e+06 5.64524e+06 0 -1.4633e+06 5.63716e+06 0 -1.39668e+06 5.62963e+06 0 -1.34021e+06 5.62454e+06 0 -1.29141e+06 5.62257e+06 0 -1.24834e+06 5.62385e+06 0 -1.20956e+06 5.6282e+06 0 -1.17401e+06 5.63535e+06 0 -1.14088e+06 5.64502e+06 0 -1.10956e+06 5.65691e+06 0 -1.07958e+06 5.67076e+06 0 -1.05058e+06 5.68634e+06 0 -1.02225e+06 5.70343e+06 0 -994356 5.72184e+06 0 -966699 5.74141e+06 0 -939118 5.76199e+06 0 -911476 5.78342e+06 0 -883658 5.8056e+06 0 -855566 5.82841e+06 0 -827117 5.85173e+06 0 -798238 5.87549e+06 0 -768868 5.89958e+06 0 -738955 5.92391e+06 0 -708453 5.94841e+06 0 -677324 5.97301e+06 0 -645534 5.99762e+06 0 -613058 6.02217e+06 0 -579874 6.0466e+06 0 -545963 6.07084e+06 0 -511313 6.09483e+06 0 -475915 6.11851e+06 0 -439764 6.14181e+06 0 -402860 6.16467e+06 0 -365204 6.18704e+06 0 -326804 6.20887e+06 0 -287667 6.23009e+06 0 -247807 6.25066e+06 0 -207239 6.27053e+06 0 -165983 6.28964e+06 0 -124059 6.30795e+06 0 -81492.5 6.32542e+06 0 -38310.1 6.342e+06 0 5458.62 6.35765e+06 0 49781.5 6.37233e+06 0 94624.3 6.386e+06 0 139951 6.39863e+06 0 185722 6.41019e+06 0 231897 6.42064e+06 0 278435 6.42996e+06 0 325292 6.43812e+06 0 372422 6.4451e+06 0 419779 6.45088e+06 0 467314 6.45545e+06 0 514980 6.45878e+06 0 562725 6.46087e+06 0 610501 6.4617e+06 0 658255 6.46128e+06 0 705935 6.45958e+06 0 753490 6.45663e+06 0 800867 6.45241e+06 0 848013 6.44693e+06 0 894876 6.4402e+06 0 941403 6.43224e+06 0 987543 6.42304e+06 0 1.03324e+06 6.41264e+06 0 1.07845e+06 6.40105e+06 0 1.12312e+06 6.38829e+06 0 1.1672e+06 6.37439e+06 0 1.21065e+06 6.35938e+06 0 1.2534e+06 6.34328e+06 0 1.29543e+06 6.32614e+06 0 1.33668e+06 6.30798e+06 0 1.37711e+06 6.28886e+06 0 1.41669e+06 6.26881e+06 0 1.45537e+06 6.24788e+06 0 1.49312e+06 6.22611e+06 0 1.5299e+06 6.20357e+06 0 1.56569e+06 6.18029e+06 0 1.60046e+06 6.15635e+06 0 1.63419e+06 6.13178e+06 0 1.66684e+06 6.10667e+06 0 1.69842e+06 6.08106e+06 0 1.72889e+06 6.05502e+06 0 1.75825e+06 6.02862e+06 0 1.7865e+06 6.00192e+06 0 1.81364e+06 5.975e+06 0 1.83965e+06 5.94791e+06 0 1.86456e+06 5.92073e+06 0 1.88836e+06 5.89353e+06 0 1.91108e+06 5.86637e+06 0 1.93273e+06 5.83934e+06 0 1.95334e+06 5.8125e+06 0 1.97292e+06 5.78592e+06 0 1.99152e+06 5.75967e+06 0 2.00917e+06 5.73382e+06 0 2.0259e+06 5.70844e+06 0 2.04176e+06 5.6836e+06 0 2.05681e+06 5.65937e+06 0 2.07108e+06 5.63582e+06 0 2.08465e+06 5.61301e+06 0 2.09756e+06 5.59101e+06 0 2.1099e+06 5.56989e+06 0 2.12172e+06 5.54971e+06 0 2.13311e+06 5.53054e+06 0 2.14415e+06 5.51246e+06 0 2.15493e+06 5.49552e+06 0 2.16555e+06 5.47979e+06 0 2.1761e+06 5.46535e+06 0 2.18672e+06 5.45227e+06 0 2.19751e+06 5.44061e+06 0 2.20861e+06 5.43045e+06 0 2.22018e+06 5.42187e+06 0 2.23239e+06 5.41494e+06 0 2.24541e+06 5.40975e+06 0 2.25946e+06 5.40637e+06 0 2.27479e+06 5.40489e+06 0 2.29165e+06 5.40539e+06 0 2.31038e+06 5.40794e+06 0 2.33134e+06 5.41262e+06 0 2.35496e+06 5.41948e+06 0 2.38174e+06 5.42854e+06 0 2.41231e+06 5.43978e+06 0 2.44735e+06 5.4531e+06 0 2.48774e+06 5.46831e+06 0 2.53443e+06 5.485e+06 0 2.58858e+06 5.50254e+06 0 2.65137e+06 5.51989e+06 0 2.72411e+06 5.53548e+06 0 -1.54464e+06 5.59202e+06 0 -1.46605e+06 5.59159e+06 0 -1.39919e+06 5.59032e+06 0 -1.34159e+06 5.59008e+06 0 -1.29125e+06 5.59177e+06 0 -1.2465e+06 5.59576e+06 0 -1.20604e+06 5.60208e+06 0 -1.16888e+06 5.61063e+06 0 -1.13424e+06 5.62125e+06 0 -1.10153e+06 5.63375e+06 0 -1.07027e+06 5.64791e+06 0 -1.04009e+06 5.66357e+06 0 -1.0107e+06 5.68055e+06 0 -981834 5.69869e+06 0 -953305 5.71784e+06 0 -924943 5.73787e+06 0 -896606 5.75866e+06 0 -868178 5.7801e+06 0 -839557 5.80209e+06 0 -810659 5.82452e+06 0 -781410 5.8473e+06 0 -751750 5.87037e+06 0 -721623 5.89362e+06 0 -690987 5.91699e+06 0 -659801 5.94042e+06 0 -628035 5.96382e+06 0 -595662 5.98713e+06 0 -562660 6.01029e+06 0 -529014 6.03324e+06 0 -494711 6.05592e+06 0 -459743 6.07827e+06 0 -424106 6.10023e+06 0 -387800 6.12176e+06 0 -350826 6.1428e+06 0 -313191 6.16331e+06 0 -274905 6.18322e+06 0 -235979 6.20251e+06 0 -196429 6.22111e+06 0 -156272 6.23899e+06 0 -115528 6.25611e+06 0 -74220.3 6.27242e+06 0 -32373.2 6.2879e+06 0 9986.2 6.30249e+06 0 52828.7 6.31618e+06 0 96123.3 6.32892e+06 0 139837 6.34069e+06 0 183936 6.35147e+06 0 228385 6.36121e+06 0 273145 6.36991e+06 0 318178 6.37754e+06 0 363445 6.38408e+06 0 408905 6.38952e+06 0 454516 6.39383e+06 0 500236 6.39701e+06 0 546021 6.39906e+06 0 591829 6.39995e+06 0 637613 6.39968e+06 0 683331 6.39826e+06 0 728937 6.39568e+06 0 774385 6.39194e+06 0 819631 6.38705e+06 0 864629 6.38102e+06 0 909334 6.37384e+06 0 953701 6.36554e+06 0 997685 6.35613e+06 0 1.04124e+06 6.34561e+06 0 1.08433e+06 6.33403e+06 0 1.1269e+06 6.32138e+06 0 1.16891e+06 6.3077e+06 0 1.21033e+06 6.29301e+06 0 1.25111e+06 6.27734e+06 0 1.29121e+06 6.26072e+06 0 1.33059e+06 6.24319e+06 0 1.36922e+06 6.22478e+06 0 1.40707e+06 6.20553e+06 0 1.44409e+06 6.18549e+06 0 1.48027e+06 6.16468e+06 0 1.51556e+06 6.14317e+06 0 1.54995e+06 6.121e+06 0 1.5834e+06 6.09821e+06 0 1.61591e+06 6.07487e+06 0 1.64745e+06 6.05102e+06 0 1.678e+06 6.02672e+06 0 1.70756e+06 6.00203e+06 0 1.73611e+06 5.97701e+06 0 1.76365e+06 5.95172e+06 0 1.79019e+06 5.92622e+06 0 1.81571e+06 5.90057e+06 0 1.84023e+06 5.87484e+06 0 1.86375e+06 5.8491e+06 0 1.8863e+06 5.8234e+06 0 1.90789e+06 5.79781e+06 0 1.92854e+06 5.77241e+06 0 1.94827e+06 5.74724e+06 0 1.96713e+06 5.72239e+06 0 1.98513e+06 5.69792e+06 0 2.00233e+06 5.67388e+06 0 2.01877e+06 5.65035e+06 0 2.03449e+06 5.62739e+06 0 2.04954e+06 5.60507e+06 0 2.06399e+06 5.58344e+06 0 2.0779e+06 5.56258e+06 0 2.09133e+06 5.54255e+06 0 2.10437e+06 5.5234e+06 0 2.11708e+06 5.5052e+06 0 2.12955e+06 5.48802e+06 0 2.14189e+06 5.47192e+06 0 2.15418e+06 5.45696e+06 0 2.16655e+06 5.4432e+06 0 2.17911e+06 5.43071e+06 0 2.19199e+06 5.41954e+06 0 2.20534e+06 5.40977e+06 0 2.21933e+06 5.40146e+06 0 2.23413e+06 5.39466e+06 0 2.24994e+06 5.38944e+06 0 2.267e+06 5.38585e+06 0 2.28557e+06 5.38394e+06 0 2.30593e+06 5.38375e+06 0 2.32843e+06 5.38531e+06 0 2.35346e+06 5.38862e+06 0 2.38147e+06 5.39364e+06 0 2.41298e+06 5.40029e+06 0 2.44858e+06 5.40841e+06 0 2.48898e+06 5.41773e+06 0 2.53492e+06 5.42782e+06 0 2.58725e+06 5.43805e+06 0 2.64682e+06 5.44748e+06 0 2.71448e+06 5.45484e+06 0 -1.5416e+06 5.54063e+06 0 -1.46501e+06 5.54659e+06 0 -1.39861e+06 5.55077e+06 0 -1.34056e+06 5.55492e+06 0 -1.28927e+06 5.56003e+06 0 -1.24332e+06 5.56663e+06 0 -1.20157e+06 5.5749e+06 0 -1.16311e+06 5.58488e+06 0 -1.12723e+06 5.5965e+06 0 -1.09334e+06 5.60964e+06 0 -1.06098e+06 5.62419e+06 0 -1.02979e+06 5.64e+06 0 -999459 5.65693e+06 0 -969751 5.67486e+06 0 -940459 5.69366e+06 0 -911413 5.71323e+06 0 -882472 5.73345e+06 0 -853515 5.75422e+06 0 -824442 5.77545e+06 0 -795166 5.79706e+06 0 -765613 5.81896e+06 0 -735722 5.84108e+06 0 -705439 5.86334e+06 0 -674718 5.88567e+06 0 -643522 5.90802e+06 0 -611820 5.9303e+06 0 -579585 5.95247e+06 0 -546796 5.97446e+06 0 -513438 5.99622e+06 0 -479500 6.0177e+06 0 -444972 6.03883e+06 0 -409852 6.05958e+06 0 -374139 6.07989e+06 0 -337835 6.09972e+06 0 -300947 6.11902e+06 0 -263482 6.13775e+06 0 -225454 6.15586e+06 0 -186874 6.17332e+06 0 -147761 6.19009e+06 0 -108132 6.20612e+06 0 -68008.4 6.2214e+06 0 -27412.6 6.23588e+06 0 13630.6 6.24953e+06 0 55095 6.26233e+06 0 96952.9 6.27424e+06 0 139175 6.28524e+06 0 181730 6.29531e+06 0 224587 6.30442e+06 0 267713 6.31257e+06 0 311073 6.31972e+06 0 354633 6.32586e+06 0 398357 6.33098e+06 0 442208 6.33506e+06 0 486151 6.33811e+06 0 530147 6.3401e+06 0 574158 6.34103e+06 0 618146 6.3409e+06 0 662072 6.3397e+06 0 705897 6.33744e+06 0 749583 6.33412e+06 0 793090 6.32973e+06 0 836379 6.32429e+06 0 879411 6.3178e+06 0 922146 6.31027e+06 0 964547 6.30172e+06 0 1.00657e+06 6.29215e+06 0 1.04819e+06 6.28158e+06 0 1.08935e+06 6.27003e+06 0 1.13003e+06 6.25751e+06 0 1.17019e+06 6.24406e+06 0 1.20978e+06 6.22969e+06 0 1.24878e+06 6.21442e+06 0 1.28715e+06 6.1983e+06 0 1.32486e+06 6.18134e+06 0 1.36187e+06 6.16359e+06 0 1.39817e+06 6.14506e+06 0 1.43371e+06 6.12582e+06 0 1.46847e+06 6.10588e+06 0 1.50243e+06 6.0853e+06 0 1.53556e+06 6.06411e+06 0 1.56784e+06 6.04237e+06 0 1.59926e+06 6.02011e+06 0 1.62979e+06 5.9974e+06 0 1.65944e+06 5.97427e+06 0 1.68817e+06 5.95079e+06 0 1.716e+06 5.927e+06 0 1.74291e+06 5.90297e+06 0 1.76891e+06 5.87875e+06 0 1.794e+06 5.85439e+06 0 1.81818e+06 5.82996e+06 0 1.84147e+06 5.80552e+06 0 1.86388e+06 5.78112e+06 0 1.88543e+06 5.75683e+06 0 1.90614e+06 5.73271e+06 0 1.92604e+06 5.70881e+06 0 1.94515e+06 5.68521e+06 0 1.96352e+06 5.66196e+06 0 1.98118e+06 5.63912e+06 0 1.99818e+06 5.61675e+06 0 2.01456e+06 5.59492e+06 0 2.03038e+06 5.57369e+06 0 2.04569e+06 5.55311e+06 0 2.06057e+06 5.53324e+06 0 2.07508e+06 5.51415e+06 0 2.08929e+06 5.49588e+06 0 2.1033e+06 5.47851e+06 0 2.11718e+06 5.46208e+06 0 2.13104e+06 5.44666e+06 0 2.14498e+06 5.43229e+06 0 2.15912e+06 5.41904e+06 0 2.17358e+06 5.40695e+06 0 2.18852e+06 5.39608e+06 0 2.20408e+06 5.38648e+06 0 2.22043e+06 5.37819e+06 0 2.23777e+06 5.37126e+06 0 2.2563e+06 5.36571e+06 0 2.27628e+06 5.36158e+06 0 2.29798e+06 5.35887e+06 0 2.32169e+06 5.35758e+06 0 2.34777e+06 5.35767e+06 0 2.37661e+06 5.35907e+06 0 2.40866e+06 5.36165e+06 0 2.44441e+06 5.36523e+06 0 2.48443e+06 5.36949e+06 0 2.52929e+06 5.37402e+06 0 2.57963e+06 5.37823e+06 0 2.63605e+06 5.3813e+06 0 2.69913e+06 5.38217e+06 0 -1.53505e+06 5.49116e+06 0 -1.46076e+06 5.50246e+06 0 -1.39531e+06 5.51133e+06 0 -1.33734e+06 5.51939e+06 0 -1.28557e+06 5.52766e+06 0 -1.23884e+06 5.53672e+06 0 -1.19616e+06 5.54688e+06 0 -1.1567e+06 5.55827e+06 0 -1.11981e+06 5.5709e+06 0 -1.08495e+06 5.58474e+06 0 -1.05167e+06 5.59971e+06 0 -1.01961e+06 5.61572e+06 0 -988489 5.63267e+06 0 -958053 5.65045e+06 0 -928102 5.66897e+06 0 -898468 5.68813e+06 0 -869008 5.70784e+06 0 -839603 5.72801e+06 0 -810150 5.74857e+06 0 -780562 5.76943e+06 0 -750767 5.79052e+06 0 -720701 5.81177e+06 0 -690311 5.83312e+06 0 -659552 5.85449e+06 0 -628387 5.87584e+06 0 -596784 5.8971e+06 0 -564717 5.91821e+06 0 -532167 5.93913e+06 0 -499116 5.9598e+06 0 -465555 5.98017e+06 0 -431474 6.0002e+06 0 -396871 6.01983e+06 0 -361745 6.03903e+06 0 -326097 6.05775e+06 0 -289933 6.07595e+06 0 -253262 6.0936e+06 0 -216093 6.11065e+06 0 -178440 6.12707e+06 0 -140318 6.14283e+06 0 -101743 6.15789e+06 0 -62734.3 6.17223e+06 0 -23312.8 6.18581e+06 0 16499.5 6.19861e+06 0 56679 6.2106e+06 0 97200.8 6.22176e+06 0 138039 6.23207e+06 0 179165 6.24151e+06 0 220552 6.25006e+06 0 262171 6.2577e+06 0 303991 6.26441e+06 0 345982 6.27019e+06 0 388112 6.27503e+06 0 430350 6.2789e+06 0 472663 6.28181e+06 0 515019 6.28375e+06 0 557385 6.28471e+06 0 599727 6.28469e+06 0 642013 6.28368e+06 0 684207 6.2817e+06 0 726276 6.27872e+06 0 768187 6.27477e+06 0 809905 6.26985e+06 0 851397 6.26395e+06 0 892628 6.2571e+06 0 933564 6.24929e+06 0 974172 6.24054e+06 0 1.01442e+06 6.23086e+06 0 1.05427e+06 6.22027e+06 0 1.0937e+06 6.20878e+06 0 1.13266e+06 6.19641e+06 0 1.17113e+06 6.18318e+06 0 1.20908e+06 6.16911e+06 0 1.24648e+06 6.15423e+06 0 1.28329e+06 6.13856e+06 0 1.31949e+06 6.12213e+06 0 1.35506e+06 6.10497e+06 0 1.38995e+06 6.08711e+0