<?xml version="1.0"?> 
<VTKFile type="StructuredGrid" version="0.1"> 
<StructuredGrid WholeExtent="0 127 0 127 0 0"> 
<Piece Extent="0 127 0 127 0 0"> 
<PointData>
<DataArray type="Float32" Name="E" format="ascii" NumberOfComponents="3"> 
3.54361e+06 -1.45328e+06 0 3.58994e+06 -1.4632e+06 0 3.63047e+06 -1.47045e+06 0 3.66778e+06 -1.4761e+06 0 3.70311e+06 -1.48067e+06 0 3.73716e+06 -1.48446e+06 0 3.77029e+06 -1.4876e+06 0 3.80275e+06 -1.49021e+06 0 3.83466e+06 -1.49234e+06 0 3.86615e+06 -1.49402e+06 0 3.89727e+06 -1.49529e+06 0 3.92809e+06 -1.49617e+06 0 3.95865e+06 -1.49668e+06 0 3.98898e+06 -1.49683e+06 0 4.0191e+06 -1.49662e+06 0 4.04904e+06 -1.49606e+06 0 4.07881e+06 -1.49516e+06 0 4.10842e+06 -1.49392e+06 0 4.1379e+06 -1.49235e+06 0 4.16725e+06 -1.49044e+06 0 4.19648e+06 -1.48821e+06 0 4.22559e+06 -1.48565e+06 0 4.25459e+06 -1.48275e+06 0 4.28348e+06 -1.47953e+06 0 4.31228e+06 -1.47599e+06 0 4.34097e+06 -1.47211e+06 0 4.36957e+06 -1.4679e+06 0 4.39807e+06 -1.46337e+06 0 4.42648e+06 -1.45851e+06 0 4.4548e+06 -1.45331e+06 0 4.48301e+06 -1.44778e+06 0 4.51113e+06 -1.44192e+06 0 4.53916e+06 -1.43573e+06 0 4.56708e+06 -1.4292e+06 0 4.5949e+06 -1.42233e+06 0 4.62262e+06 -1.41513e+06 0 4.65023e+06 -1.40759e+06 0 4.67773e+06 -1.39971e+06 0 4.70511e+06 -1.39149e+06 0 4.73238e+06 -1.38293e+06 0 4.75952e+06 -1.37402e+06 0 4.78653e+06 -1.36478e+06 0 4.81341e+06 -1.35519e+06 0 4.84014e+06 -1.34525e+06 0 4.86674e+06 -1.33498e+06 0 4.89318e+06 -1.32435e+06 0 4.91946e+06 -1.31339e+06 0 4.94558e+06 -1.30208e+06 0 4.97153e+06 -1.29043e+06 0 4.99731e+06 -1.27844e+06 0 5.02289e+06 -1.2661e+06 0 5.04829e+06 -1.25343e+06 0 5.07348e+06 -1.24041e+06 0 5.09847e+06 -1.22706e+06 0 5.12324e+06 -1.21338e+06 0 5.14778e+06 -1.19936e+06 0 5.17209e+06 -1.18501e+06 0 5.19616e+06 -1.17034e+06 0 5.21998e+06 -1.15534e+06 0 5.24354e+06 -1.14002e+06 0 5.26684e+06 -1.12439e+06 0 5.28985e+06 -1.10845e+06 0 5.31258e+06 -1.0922e+06 0 5.33502e+06 -1.07565e+06 0 5.35715e+06 -1.0588e+06 0 5.37897e+06 -1.04167e+06 0 5.40047e+06 -1.02425e+06 0 5.42163e+06 -1.00656e+06 0 5.44246e+06 -988601 0 5.46294e+06 -970381 0 5.48306e+06 -951909 0 5.50281e+06 -933193 0 5.52219e+06 -914244 0 5.54119e+06 -895071 0 5.55979e+06 -875683 0 5.578e+06 -856092 0 5.5958e+06 -836309 0 5.61319e+06 -816345 0 5.63016e+06 -796213 0 5.6467e+06 -775924 0 5.66281e+06 -755492 0 5.67848e+06 -734931 0 5.69371e+06 -714253 0 5.70848e+06 -693473 0 5.7228e+06 -672606 0 5.73667e+06 -651666 0 5.75007e+06 -630670 0 5.76301e+06 -609633 0 5.77549e+06 -588571 0 5.7875e+06 -567500 0 5.79903e+06 -546438 0 5.8101e+06 -525401 0 5.82071e+06 -504407 0 5.83084e+06 -483473 0 5.84051e+06 -462617 0 5.84972e+06 -441857 0 5.85846e+06 -421212 0 5.86676e+06 -400699 0 5.8746e+06 -380337 0 5.882e+06 -360145 0 5.88897e+06 -340141 0 5.8955e+06 -320344 0 5.90162e+06 -300772 0 5.90733e+06 -281445 0 5.91263e+06 -262380 0 5.91755e+06 -243596 0 5.9221e+06 -225112 0 5.92629e+06 -206946 0 5.93013e+06 -189116 0 5.93365e+06 -171639 0 5.93686e+06 -154534 0 5.93977e+06 -137817 0 5.94242e+06 -121506 0 5.94482e+06 -105618 0 5.947e+06 -90169.6 0 5.94898e+06 -75176 0 5.95079e+06 -60653.4 0 5.95246e+06 -46617.2 0 5.95402e+06 -33082.4 0 5.95551e+06 -20063.2 0 5.95697e+06 -7573.9 0 5.95845e+06 4372.15 0 5.95998e+06 15761.9 0 5.96163e+06 26582.9 0 5.96346e+06 36823.2 0 5.96554e+06 46471.7 0 5.96795e+06 55517.6 0 5.97078e+06 63951 0 3.6322e+06 -1.37115e+06 0 3.66168e+06 -1.38131e+06 0 3.69249e+06 -1.38897e+06 0 3.72361e+06 -1.39502e+06 0 3.75463e+06 -1.39987e+06 0 3.78541e+06 -1.40379e+06 0 3.81591e+06 -1.40694e+06 0 3.84612e+06 -1.40944e+06 0 3.87606e+06 -1.41137e+06 0 3.90576e+06 -1.41278e+06 0 3.93522e+06 -1.41372e+06 0 3.96448e+06 -1.41422e+06 0 3.99354e+06 -1.41429e+06 0 4.02243e+06 -1.41396e+06 0 4.05115e+06 -1.41324e+06 0 4.07971e+06 -1.41215e+06 0 4.10813e+06 -1.41069e+06 0 4.1364e+06 -1.40886e+06 0 4.16455e+06 -1.40669e+06 0 4.19257e+06 -1.40416e+06 0 4.22046e+06 -1.40129e+06 0 4.24823e+06 -1.39808e+06 0 4.27589e+06 -1.39452e+06 0 4.30343e+06 -1.39063e+06 0 4.33086e+06 -1.38641e+06 0 4.35817e+06 -1.38185e+06 0 4.38537e+06 -1.37696e+06 0 4.41246e+06 -1.37173e+06 0 4.43943e+06 -1.36618e+06 0 4.46628e+06 -1.36029e+06 0 4.49302e+06 -1.35408e+06 0 4.51964e+06 -1.34753e+06 0 4.54613e+06 -1.34066e+06 0 4.5725e+06 -1.33346e+06 0 4.59874e+06 -1.32593e+06 0 4.62485e+06 -1.31807e+06 0 4.65082e+06 -1.30989e+06 0 4.67665e+06 -1.30137e+06 0 4.70233e+06 -1.29254e+06 0 4.72787e+06 -1.28338e+06 0 4.75325e+06 -1.27389e+06 0 4.77847e+06 -1.26408e+06 0 4.80353e+06 -1.25395e+06 0 4.82842e+06 -1.24351e+06 0 4.85313e+06 -1.23274e+06 0 4.87766e+06 -1.22165e+06 0 4.90199e+06 -1.21026e+06 0 4.92614e+06 -1.19855e+06 0 4.95008e+06 -1.18652e+06 0 4.97382e+06 -1.1742e+06 0 4.99733e+06 -1.16157e+06 0 5.02063e+06 -1.14863e+06 0 5.0437e+06 -1.1354e+06 0 5.06654e+06 -1.12188e+06 0 5.08913e+06 -1.10807e+06 0 5.11147e+06 -1.09397e+06 0 5.13355e+06 -1.07959e+06 0 5.15537e+06 -1.06494e+06 0 5.17692e+06 -1.05002e+06 0 5.19819e+06 -1.03483e+06 0 5.21918e+06 -1.01939e+06 0 5.23988e+06 -1.00369e+06 0 5.26027e+06 -987746 0 5.28036e+06 -971565 0 5.30014e+06 -955153 0 5.3196e+06 -938519 0 5.33874e+06 -921668 0 5.35754e+06 -904611 0 5.376e+06 -887356 0 5.39413e+06 -869911 0 5.4119e+06 -852286 0 5.42932e+06 -834490 0 5.44639e+06 -816535 0 5.46309e+06 -798428 0 5.47942e+06 -780182 0 5.49538e+06 -761807 0 5.51097e+06 -743314 0 5.52618e+06 -724714 0 5.54101e+06 -706019 0 5.55545e+06 -687240 0 5.56951e+06 -668390 0 5.58319e+06 -649480 0 5.59647e+06 -630522 0 5.60937e+06 -611530 0 5.62188e+06 -592516 0 5.634e+06 -573493 0 5.64574e+06 -554472 0 5.65709e+06 -535468 0 5.66806e+06 -516492 0 5.67864e+06 -497559 0 5.68885e+06 -478680 0 5.69869e+06 -459869 0 5.70815e+06 -441138 0 5.71725e+06 -422501 0 5.726e+06 -403969 0 5.73439e+06 -385555 0 5.74243e+06 -367272 0 5.75014e+06 -349132 0 5.75751e+06 -331146 0 5.76456e+06 -313327 0 5.7713e+06 -295685 0 5.77774e+06 -278232 0 5.78388e+06 -260978 0 5.78974e+06 -243934 0 5.79533e+06 -227110 0 5.80067e+06 -210515 0 5.80575e+06 -194158 0 5.81061e+06 -178047 0 5.81525e+06 -162190 0 5.81969e+06 -146594 0 5.82395e+06 -131266 0 5.82803e+06 -116212 0 5.83196e+06 -101436 0 5.83575e+06 -86941.3 0 5.83943e+06 -72732 0 5.843e+06 -58809.4 0 5.84649e+06 -45174.1 0 5.84992e+06 -31825.3 0 5.85331e+06 -18760.5 0 5.85668e+06 -5975.58 0 5.86004e+06 6535.52 0 5.86342e+06 18781.2 0 5.86683e+06 30772.4 0 5.87029e+06 42523.1 0 5.87381e+06 54050.7 0 5.87741e+06 65376.9 0 5.88109e+06 76527.7 0 5.88486e+06 87537.4 0 3.68567e+06 -1.3054e+06 0 3.71438e+06 -1.31138e+06 0 3.74306e+06 -1.31661e+06 0 3.77172e+06 -1.32107e+06 0 3.80033e+06 -1.3248e+06 0 3.82885e+06 -1.32786e+06 0 3.85725e+06 -1.33029e+06 0 3.88553e+06 -1.33216e+06 0 3.91367e+06 -1.33351e+06 0 3.94166e+06 -1.33436e+06 0 3.9695e+06 -1.33475e+06 0 3.99721e+06 -1.33469e+06 0 4.02477e+06 -1.33422e+06 0 4.05219e+06 -1.33333e+06 0 4.07948e+06 -1.33206e+06 0 4.10663e+06 -1.3304e+06 0 4.13366e+06 -1.32837e+06 0 4.16056e+06 -1.32597e+06 0 4.18733e+06 -1.32322e+06 0 4.21397e+06 -1.32011e+06 0 4.2405e+06 -1.31665e+06 0 4.2669e+06 -1.31285e+06 0 4.29317e+06 -1.30871e+06 0 4.31933e+06 -1.30423e+06 0 4.34536e+06 -1.29942e+06 0 4.37126e+06 -1.29427e+06 0 4.39704e+06 -1.2888e+06 0 4.42269e+06 -1.283e+06 0 4.44821e+06 -1.27687e+06 0 4.47359e+06 -1.27042e+06 0 4.49884e+06 -1.26365e+06 0 4.52395e+06 -1.25656e+06 0 4.54892e+06 -1.24915e+06 0 4.57374e+06 -1.24142e+06 0 4.59841e+06 -1.23338e+06 0 4.62293e+06 -1.22503e+06 0 4.64729e+06 -1.21637e+06 0 4.67149e+06 -1.2074e+06 0 4.69552e+06 -1.19812e+06 0 4.71938e+06 -1.18853e+06 0 4.74306e+06 -1.17865e+06 0 4.76656e+06 -1.16847e+06 0 4.78987e+06 -1.15799e+06 0 4.81299e+06 -1.14721e+06 0 4.83591e+06 -1.13615e+06 0 4.85863e+06 -1.1248e+06 0 4.88113e+06 -1.11316e+06 0 4.90343e+06 -1.10125e+06 0 4.9255e+06 -1.08906e+06 0 4.94734e+06 -1.07659e+06 0 4.96895e+06 -1.06386e+06 0 4.99032e+06 -1.05087e+06 0 5.01145e+06 -1.03762e+06 0 5.03233e+06 -1.02412e+06 0 5.05295e+06 -1.01037e+06 0 5.07331e+06 -996374 0 5.0934e+06 -982147 0 5.11322e+06 -967691 0 5.13276e+06 -953012 0 5.15202e+06 -938117 0 5.17098e+06 -923012 0 5.18966e+06 -907706 0 5.20803e+06 -892206 0 5.22611e+06 -876519 0 5.24387e+06 -860654 0 5.26132e+06 -844618 0 5.27846e+06 -828420 0 5.29528e+06 -812069 0 5.31177e+06 -795573 0 5.32794e+06 -778942 0 5.34377e+06 -762184 0 5.35928e+06 -745310 0 5.37445e+06 -728329 0 5.38929e+06 -711249 0 5.40379e+06 -694082 0 5.41795e+06 -676838 0 5.43177e+06 -659525 0 5.44525e+06 -642154 0 5.4584e+06 -624736 0 5.4712e+06 -607280 0 5.48366e+06 -589797 0 5.49579e+06 -572297 0 5.50758e+06 -554790 0 5.51904e+06 -537287 0 5.53016e+06 -519797 0 5.54096e+06 -502331 0 5.55143e+06 -484898 0 5.56158e+06 -467508 0 5.57141e+06 -450172 0 5.58093e+06 -432898 0 5.59014e+06 -415695 0 5.59905e+06 -398574 0 5.60766e+06 -381543 0 5.61598e+06 -364610 0 5.62401e+06 -347784 0 5.63177e+06 -331073 0 5.63925e+06 -314485 0 5.64648e+06 -298027 0 5.65345e+06 -281707 0 5.66017e+06 -265531 0 5.66666e+06 -249505 0 5.67291e+06 -233636 0 5.67895e+06 -217928 0 5.68478e+06 -202386 0 5.6904e+06 -187016 0 5.69584e+06 -171821 0 5.7011e+06 -156804 0 5.70619e+06 -141968 0 5.71112e+06 -127316 0 5.7159e+06 -112849 0 5.72054e+06 -98567.6 0 5.72506e+06 -84472.6 0 5.72946e+06 -70563.3 0 5.73375e+06 -56838.8 0 5.73795e+06 -43297.2 0 5.74207e+06 -29936 0 5.74611e+06 -16751.8 0 5.75009e+06 -3740.67 0 5.75402e+06 9102.24 0 5.7579e+06 21782.3 0 5.76174e+06 34305.8 0 5.76555e+06 46679.2 0 5.76934e+06 58909.7 0 5.77312e+06 71004.8 0 5.77688e+06 82971.8 0 5.78065e+06 94818.2 0 5.78443e+06 106550 0 5.78821e+06 118174 0 3.73348e+06 -1.23864e+06 0 3.76006e+06 -1.24306e+06 0 3.78679e+06 -1.24687e+06 0 3.81358e+06 -1.2501e+06 0 3.84038e+06 -1.25276e+06 0 3.86714e+06 -1.25488e+06 0 3.89385e+06 -1.25649e+06 0 3.92048e+06 -1.25761e+06 0 3.94702e+06 -1.25825e+06 0 3.97346e+06 -1.25845e+06 0 3.99979e+06 -1.25821e+06 0 4.02602e+06 -1.25755e+06 0 4.05213e+06 -1.25649e+06 0 4.07812e+06 -1.25503e+06 0 4.104e+06 -1.2532e+06 0 4.12976e+06 -1.25098e+06 0 4.1554e+06 -1.2484e+06 0 4.18091e+06 -1.24546e+06 0 4.20631e+06 -1.24217e+06 0 4.23158e+06 -1.23853e+06 0 4.25673e+06 -1.23455e+06 0 4.28175e+06 -1.23023e+06 0 4.30665e+06 -1.22557e+06 0 4.33141e+06 -1.22059e+06 0 4.35605e+06 -1.21528e+06 0 4.38054e+06 -1.20964e+06 0 4.4049e+06 -1.20369e+06 0 4.42912e+06 -1.19742e+06 0 4.4532e+06 -1.19083e+06 0 4.47713e+06 -1.18394e+06 0 4.50091e+06 -1.17673e+06 0 4.52454e+06 -1.16922e+06 0 4.54801e+06 -1.1614e+06 0 4.57132e+06 -1.15329e+06 0 4.59447e+06 -1.14488e+06 0 4.61745e+06 -1.13617e+06 0 4.64025e+06 -1.12717e+06 0 4.66287e+06 -1.11788e+06 0 4.68531e+06 -1.10831e+06 0 4.70757e+06 -1.09846e+06 0 4.72963e+06 -1.08833e+06 0 4.75149e+06 -1.07792e+06 0 4.77315e+06 -1.06725e+06 0 4.79461e+06 -1.0563e+06 0 4.81585e+06 -1.0451e+06 0 4.83688e+06 -1.03363e+06 0 4.85768e+06 -1.02192e+06 0 4.87826e+06 -1.00995e+06 0 4.8986e+06 -997742 0 4.91871e+06 -985294 0 4.93858e+06 -972613 0 4.9582e+06 -959704 0 4.97757e+06 -946574 0 4.99668e+06 -933228 0 5.01554e+06 -919672 0 5.03412e+06 -905912 0 5.05244e+06 -891956 0 5.07049e+06 -877810 0 5.08826e+06 -863482 0 5.10575e+06 -848977 0 5.12295e+06 -834304 0 5.13987e+06 -819470 0 5.1565e+06 -804482 0 5.17283e+06 -789349 0 5.18887e+06 -774079 0 5.20461e+06 -758679 0 5.22004e+06 -743158 0 5.23518e+06 -727524 0 5.25001e+06 -711785 0 5.26454e+06 -695950 0 5.27876e+06 -680028 0 5.29267e+06 -664027 0 5.30628e+06 -647956 0 5.31957e+06 -631824 0 5.33257e+06 -615638 0 5.34525e+06 -599408 0 5.35763e+06 -583143 0 5.3697e+06 -566851 0 5.38148e+06 -550541 0 5.39295e+06 -534220 0 5.40412e+06 -517899 0 5.415e+06 -501584 0 5.42559e+06 -485284 0 5.43588e+06 -469007 0 5.44589e+06 -452761 0 5.45562e+06 -436553 0 5.46507e+06 -420391 0 5.47424e+06 -404283 0 5.48315e+06 -388235 0 5.49179e+06 -372254 0 5.50018e+06 -356347 0 5.50831e+06 -340519 0 5.5162e+06 -324778 0 5.52384e+06 -309128 0 5.53125e+06 -293576 0 5.53843e+06 -278125 0 5.54539e+06 -262781 0 5.55213e+06 -247548 0 5.55867e+06 -232431 0 5.56501e+06 -217432 0 5.57115e+06 -202555 0 5.5771e+06 -187804 0 5.58288e+06 -173179 0 5.58849e+06 -158684 0 5.59393e+06 -144320 0 5.59921e+06 -130088 0 5.60435e+06 -115989 0 5.60935e+06 -102023 0 5.61421e+06 -88190.7 0 5.61894e+06 -74491.2 0 5.62355e+06 -60923.5 0 5.62806e+06 -47486.5 0 5.63245e+06 -34178.3 0 5.63675e+06 -20996.8 0 5.64096e+06 -7939.52 0 5.64508e+06 4996.44 0 5.64911e+06 17814.3 0 5.65308e+06 30517.7 0 5.65698e+06 43110.5 0 5.66081e+06 55597 0 5.66458e+06 67981.5 0 5.6683e+06 80268.9 0 5.67197e+06 92464.2 0 5.67559e+06 104573 0 5.67917e+06 116600 0 5.68271e+06 128552 0 5.68621e+06 140436 0 5.68967e+06 152259 0 3.77422e+06 -1.17312e+06 0 3.79953e+06 -1.17628e+06 0 3.82485e+06 -1.17895e+06 0 3.85018e+06 -1.18115e+06 0 3.87548e+06 -1.18288e+06 0 3.90075e+06 -1.18415e+06 0 3.92597e+06 -1.18497e+06 0 3.95113e+06 -1.18535e+06 0 3.97621e+06 -1.18531e+06 0 4.00122e+06 -1.18486e+06 0 4.02613e+06 -1.18401e+06 0 4.05095e+06 -1.18276e+06 0 4.07567e+06 -1.18113e+06 0 4.10028e+06 -1.17912e+06 0 4.12478e+06 -1.17675e+06 0 4.14918e+06 -1.17401e+06 0 4.17346e+06 -1.17093e+06 0 4.19762e+06 -1.1675e+06 0 4.22166e+06 -1.16372e+06 0 4.24558e+06 -1.15961e+06 0 4.26937e+06 -1.15517e+06 0 4.29303e+06 -1.1504e+06 0 4.31656e+06 -1.14531e+06 0 4.33995e+06 -1.13991e+06 0 4.36321e+06 -1.13418e+06 0 4.38632e+06 -1.12815e+06 0 4.40929e+06 -1.12181e+06 0 4.43212e+06 -1.11517e+06 0 4.45478e+06 -1.10822e+06 0 4.4773e+06 -1.10099e+06 0 4.49965e+06 -1.09345e+06 0 4.52184e+06 -1.08563e+06 0 4.54387e+06 -1.07753e+06 0 4.56572e+06 -1.06914e+06 0 4.5874e+06 -1.06047e+06 0 4.60889e+06 -1.05153e+06 0 4.63021e+06 -1.04232e+06 0 4.65133e+06 -1.03284e+06 0 4.67226e+06 -1.0231e+06 0 4.693e+06 -1.0131e+06 0 4.71353e+06 -1.00284e+06 0 4.73386e+06 -992339 0 4.75398e+06 -981590 0 4.77388e+06 -970601 0 4.79356e+06 -959376 0 4.81302e+06 -947920 0 4.83226e+06 -936240 0 4.85126e+06 -924339 0 4.87002e+06 -912224 0 4.88855e+06 -899901 0 4.90683e+06 -887375 0 4.92487e+06 -874653 0 4.94265e+06 -861740 0 4.96018e+06 -848643 0 4.97745e+06 -835368 0 4.99446e+06 -821923 0 5.01121e+06 -808313 0 5.02769e+06 -794546 0 5.0439e+06 -780628 0 5.05983e+06 -766568 0 5.0755e+06 -752371 0 5.09088e+06 -738046 0 5.10599e+06 -723599 0 5.12082e+06 -709039 0 5.13537e+06 -694372 0 5.14964e+06 -679607 0 5.16362e+06 -664751 0 5.17732e+06 -649811 0 5.19074e+06 -634796 0 5.20387e+06 -619713 0 5.21672e+06 -604569 0 5.22929e+06 -589373 0 5.24157e+06 -574132 0 5.25358e+06 -558853 0 5.26531e+06 -543544 0 5.27675e+06 -528212 0 5.28793e+06 -512864 0 5.29883e+06 -497508 0 5.30946e+06 -482151 0 5.31982e+06 -466799 0 5.32991e+06 -451460 0 5.33975e+06 -436140 0 5.34932e+06 -420845 0 5.35864e+06 -405581 0 5.36771e+06 -390355 0 5.37654e+06 -375172 0 5.38512e+06 -360038 0 5.39346e+06 -344958 0 5.40157e+06 -329937 0 5.40945e+06 -314980 0 5.41711e+06 -300092 0 5.42454e+06 -285277 0 5.43177e+06 -270538 0 5.43879e+06 -255880 0 5.4456e+06 -241307 0 5.45222e+06 -226820 0 5.45865e+06 -212423 0 5.46489e+06 -198118 0 5.47095e+06 -183908 0 5.47684e+06 -169795 0 5.48256e+06 -155779 0 5.48812e+06 -141863 0 5.49351e+06 -128048 0 5.49876e+06 -114333 0 5.50387e+06 -100720 0 5.50883e+06 -87207.6 0 5.51365e+06 -73796.6 0 5.51835e+06 -60486.3 0 5.52292e+06 -47275.7 0 5.52738e+06 -34163.7 0 5.53172e+06 -21149.1 0 5.53594e+06 -8230.2 0 5.54007e+06 4594.85 0 5.54409e+06 17328.1 0 5.54802e+06 29971.9 0 5.55185e+06 42528.7 0 5.55559e+06 55001.2 0 5.55925e+06 67392.4 0 5.56282e+06 79705.1 0 5.56632e+06 91942.6 0 5.56974e+06 104108 0 5.57308e+06 116205 0 5.57635e+06 128237 0 5.57955e+06 140208 0 5.58269e+06 152120 0 5.58575e+06 163978 0 5.58875e+06 175784 0 5.59169e+06 187542 0 3.8103e+06 -1.10863e+06 0 3.83427e+06 -1.11083e+06 0 3.85825e+06 -1.11261e+06 0 3.88222e+06 -1.11395e+06 0 3.90617e+06 -1.11489e+06 0 3.93007e+06 -1.11541e+06 0 3.95393e+06 -1.11552e+06 0 3.97772e+06 -1.11524e+06 0 4.00145e+06 -1.11457e+06 0 4.0251e+06 -1.11352e+06 0 4.04867e+06 -1.11209e+06 0 4.07215e+06 -1.1103e+06 0 4.09553e+06 -1.10815e+06 0 4.11882e+06 -1.10564e+06 0 4.142e+06 -1.10278e+06 0 4.16507e+06 -1.09958e+06 0 4.18802e+06 -1.09604e+06 0 4.21087e+06 -1.09218e+06 0 4.23358e+06 -1.08798e+06 0 4.25618e+06 -1.08347e+06 0 4.27865e+06 -1.07864e+06 0 4.30098e+06 -1.0735e+06 0 4.32318e+06 -1.06805e+06 0 4.34524e+06 -1.0623e+06 0 4.36716e+06 -1.05625e+06 0 4.38893e+06 -1.0499e+06 0 4.41055e+06 -1.04326e+06 0 4.43202e+06 -1.03634e+06 0 4.45333e+06 -1.02913e+06 0 4.47447e+06 -1.02164e+06 0 4.49545e+06 -1.01388e+06 0 4.51627e+06 -1.00584e+06 0 4.5369e+06 -997544 0 4.55736e+06 -988981 0 4.57764e+06 -980160 0 4.59774e+06 -971084 0 4.61764e+06 -961759 0 4.63735e+06 -952188 0 4.65686e+06 -942377 0 4.67617e+06 -932329 0 4.69528e+06 -922051 0 4.71417e+06 -911546 0 4.73286e+06 -900820 0 4.75132e+06 -889878 0 4.76957e+06 -878725 0 4.78759e+06 -867367 0 4.80538e+06 -855810 0 4.82294e+06 -844058 0 4.84026e+06 -832119 0 4.85735e+06 -819997 0 4.8742e+06 -807699 0 4.8908e+06 -795231 0 4.90716e+06 -782600 0 4.92327e+06 -769811 0 4.93912e+06 -756872 0 4.95473e+06 -743788 0 4.97007e+06 -730566 0 4.98516e+06 -717214 0 4.99999e+06 -703737 0 5.01456e+06 -690143 0 5.02887e+06 -676438 0 5.04292e+06 -662630 0 5.0567e+06 -648725 0 5.07022e+06 -634730 0 5.08347e+06 -620653 0 5.09646e+06 -606499 0 5.10918e+06 -592277 0 5.12164e+06 -577992 0 5.13384e+06 -563652 0 5.14577e+06 -549263 0 5.15745e+06 -534833 0 5.16886e+06 -520367 0 5.18001e+06 -505873 0 5.19091e+06 -491356 0 5.20155e+06 -476824 0 5.21194e+06 -462281 0 5.22208e+06 -447735 0 5.23198e+06 -433191 0 5.24162e+06 -418654 0 5.25103e+06 -404131 0 5.26019e+06 -389627 0 5.26912e+06 -375147 0 5.27782e+06 -360695 0 5.28629e+06 -346278 0 5.29454e+06 -331899 0 5.30256e+06 -317562 0 5.31037e+06 -303273 0 5.31797e+06 -289034 0 5.32536e+06 -274850 0 5.33254e+06 -260724 0 5.33953e+06 -246658 0 5.34632e+06 -232657 0 5.35292e+06 -218723 0 5.35933e+06 -204858 0 5.36556e+06 -191064 0 5.37162e+06 -177344 0 5.3775e+06 -163699 0 5.38322e+06 -150131 0 5.38877e+06 -136640 0 5.39416e+06 -123229 0 5.3994e+06 -109897 0 5.40449e+06 -96644.6 0 5.40943e+06 -83473 0 5.41424e+06 -70381.9 0 5.4189e+06 -57371.1 0 5.42343e+06 -44440.2 0 5.42784e+06 -31588.6 0 5.43211e+06 -18815.7 0 5.43627e+06 -6120.52 0 5.44031e+06 6498.13 0 5.44423e+06 19041.5 0 5.44804e+06 31511 0 5.45175e+06 43908.2 0 5.45534e+06 56234.9 0 5.45884e+06 68492.8 0 5.46223e+06 80684 0 5.46553e+06 92810.5 0 5.46873e+06 104874 0 5.47184e+06 116878 0 5.47485e+06 128823 0 5.47778e+06 140713 0 5.48062e+06 152550 0 5.48337e+06 164336 0 5.48604e+06 176073 0 5.48862e+06 187764 0 5.49112e+06 199413 0 5.49353e+06 211021 0 5.49587e+06 222591 0 3.84195e+06 -1.04548e+06 0 3.8647e+06 -1.04687e+06 0 3.88744e+06 -1.04788e+06 0 3.91015e+06 -1.04851e+06 0 3.93282e+06 -1.04875e+06 0 3.95545e+06 -1.04862e+06 0 3.97803e+06 -1.04811e+06 0 4.00054e+06 -1.04724e+06 0 4.02298e+06 -1.04601e+06 0 4.04535e+06 -1.04443e+06 0 4.06764e+06 -1.04249e+06 0 4.08984e+06 -1.04021e+06 0 4.11194e+06 -1.03759e+06 0 4.13395e+06 -1.03463e+06 0 4.15585e+06 -1.03135e+06 0 4.17765e+06 -1.02775e+06 0 4.19933e+06 -1.02382e+06 0 4.22089e+06 -1.01958e+06 0 4.24233e+06 -1.01504e+06 0 4.26365e+06 -1.01019e+06 0 4.28484e+06 -1.00504e+06 0 4.30589e+06 -999591 0 4.3268e+06 -993854 0 4.34758e+06 -987830 0 4.36821e+06 -981524 0 4.38868e+06 -974940 0 4.40901e+06 -968082 0 4.42918e+06 -960954 0 4.44918e+06 -953560 0 4.46902e+06 -945906 0 4.4887e+06 -937995 0 4.5082e+06 -929831 0 4.52752e+06 -921419 0 4.54666e+06 -912764 0 4.56562e+06 -903870 0 4.58439e+06 -894742 0 4.60297e+06 -885384 0 4.62135e+06 -875801 0 4.63954e+06 -865999 0 4.65752e+06 -855982 0 4.6753e+06 -845755 0 4.69286e+06 -835324 0 4.71022e+06 -824693 0 4.72736e+06 -813869 0 4.74428e+06 -802856 0 4.76097e+06 -791661 0 4.77745e+06 -780289 0 4.79369e+06 -768745 0 4.80971e+06 -757036 0 4.82549e+06 -745167 0 4.84104e+06 -733145 0 4.85635e+06 -720975 0 4.87142e+06 -708664 0 4.88625e+06 -696218 0 4.90084e+06 -683643 0 4.91518e+06 -670945 0 4.92928e+06 -658131 0 4.94314e+06 -645207 0 4.95674e+06 -632180 0 4.9701e+06 -619055 0 4.98321e+06 -605839 0 4.99607e+06 -592539 0 5.00869e+06 -579160 0 5.02105e+06 -565710 0 5.03317e+06 -552194 0 5.04504e+06 -538619 0 5.05666e+06 -524990 0 5.06803e+06 -511314 0 5.07916e+06 -497597 0 5.09005e+06 -483844 0 5.10069e+06 -470062 0 5.1111e+06 -456256 0 5.12126e+06 -442432 0 5.13119e+06 -428595 0 5.14089e+06 -414750 0 5.15035e+06 -400903 0 5.15958e+06 -387059 0 5.16859e+06 -373223 0 5.17737e+06 -359398 0 5.18593e+06 -345591 0 5.19427e+06 -331804 0 5.2024e+06 -318042 0 5.21031e+06 -304310 0 5.21802e+06 -290611 0 5.22552e+06 -276948 0 5.23283e+06 -263325 0 5.23993e+06 -249745 0 5.24684e+06 -236210 0 5.25356e+06 -222725 0 5.26009e+06 -209291 0 5.26644e+06 -195910 0 5.27261e+06 -182586 0 5.27861e+06 -169318 0 5.28443e+06 -156111 0 5.29009e+06 -142964 0 5.29558e+06 -129879 0 5.30091e+06 -116858 0 5.30609e+06 -103900 0 5.31111e+06 -91008.2 0 5.31598e+06 -78181.5 0 5.32071e+06 -65420.7 0 5.32529e+06 -52726 0 5.32973e+06 -40097.4 0 5.33404e+06 -27534.9 0 5.33821e+06 -15038.2 0 5.34226e+06 -2606.73 0 5.34617e+06 9759.93 0 5.34996e+06 22062.5 0 5.35363e+06 34301.8 0 5.35718e+06 46478.8 0 5.36062e+06 58594.5 0 5.36394e+06 70650 0 5.36714e+06 82646.5 0 5.37024e+06 94585.5 0 5.37323e+06 106468 0 5.37611e+06 118296 0 5.37889e+06 130071 0 5.38156e+06 141794 0 5.38414e+06 153467 0 5.38661e+06 165091 0 5.38898e+06 176669 0 5.39125e+06 188202 0 5.39343e+06 199691 0 5.39551e+06 211139 0 5.39749e+06 222547 0 5.39938e+06 233917 0 5.40117e+06 245251 0 5.40287e+06 256550 0 3.8697e+06 -983777 0 3.89127e+06 -984495 0 3.91281e+06 -984854 0 3.93432e+06 -984856 0 3.95578e+06 -984506 0 3.9772e+06 -983806 0 3.99856e+06 -982762 0 4.01985e+06 -981376 0 4.04107e+06 -979654 0 4.06222e+06 -977599 0 4.08328e+06 -975218 0 4.10425e+06 -972513 0 4.12513e+06 -969490 0 4.14591e+06 -966154 0 4.16659e+06 -962508 0 4.18716e+06 -958558 0 4.20761e+06 -954308 0 4.22795e+06 -949762 0 4.24816e+06 -944925 0 4.26825e+06 -939801 0 4.28821e+06 -934394 0 4.30803e+06 -928710 0 4.32772e+06 -922752 0 4.34726e+06 -916524 0 4.36665e+06 -910031 0 4.3859e+06 -903277 0 4.40499e+06 -896267 0 4.42392e+06 -889005 0 4.44269e+06 -881495 0 4.46129e+06 -873742 0 4.47972e+06 -865750 0 4.49798e+06 -857524 0 4.51606e+06 -849068 0 4.53397e+06 -840388 0 4.55168e+06 -831488 0 4.56921e+06 -822372 0 4.58655e+06 -813046 0 4.6037e+06 -803514 0 4.62065e+06 -793782 0 4.6374e+06 -783855 0 4.65394e+06 -773738 0 4.67028e+06 -763436 0 4.68641e+06 -752954 0 4.70233e+06 -742298 0 4.71803e+06 -731474 0 4.73351e+06 -720486 0 4.74878e+06 -709341 0 4.76383e+06 -698045 0 4.77865e+06 -686602 0 4.79325e+06 -675018 0 4.80762e+06 -663300 0 4.82176e+06 -651454 0 4.83567e+06 -639484 0 4.84935e+06 -627398 0 4.8628e+06 -615200 0 4.87602e+06 -602897 0 4.889e+06 -590495 0 4.90174e+06 -577999 0 4.91426e+06 -565416 0 4.92654e+06 -552751 0 4.93858e+06 -540010 0 4.95039e+06 -527199 0 4.96196e+06 -514324 0 4.9733e+06 -501389 0 4.98441e+06 -488402 0 4.99528e+06 -475367 0 5.00593e+06 -462291 0 5.01634e+06 -449177 0 5.02652e+06 -436031 0 5.03648e+06 -422860 0 5.04621e+06 -409666 0 5.05572e+06 -396457 0 5.06501e+06 -383235 0 5.07408e+06 -370006 0 5.08293e+06 -356775 0 5.09156e+06 -343546 0 5.09998e+06 -330322 0 5.10819e+06 -317109 0 5.1162e+06 -303909 0 5.124e+06 -290726 0 5.13159e+06 -277565 0 5.13899e+06 -264429 0 5.14619e+06 -251320 0 5.1532e+06 -238241 0 5.16002e+06 -225196 0 5.16665e+06 -212188 0 5.1731e+06 -199218 0 5.17937e+06 -186289 0 5.18546e+06 -173404 0 5.19137e+06 -160563 0 5.19712e+06 -147769 0 5.20269e+06 -135024 0 5.2081e+06 -122329 0 5.21335e+06 -109686 0 5.21844e+06 -97094.6 0 5.22337e+06 -84556.8 0 5.22815e+06 -72073.2 0 5.23279e+06 -59644.5 0 5.23727e+06 -47271.3 0 5.24161e+06 -34953.8 0 5.24581e+06 -22692.5 0 5.24986e+06 -10487.3 0 5.25379e+06 1661.7 0 5.25757e+06 13754.6 0 5.26123e+06 25791.6 0 5.26476e+06 37773.2 0 5.26816e+06 49699.6 0 5.27143e+06 61571.4 0 5.27459e+06 73389.3 0 5.27762e+06 85153.9 0 5.28053e+06 96865.9 0 5.28332e+06 108526 0 5.286e+06 120136 0 5.28857e+06 131695 0 5.29102e+06 143206 0 5.29336e+06 154669 0 5.29559e+06 166085 0 5.29771e+06 177455 0 5.29972e+06 188781 0 5.30162e+06 200063 0 5.30342e+06 211303 0 5.30511e+06 222501 0 5.3067e+06 233660 0 5.30818e+06 244780 0 5.30956e+06 255862 0 5.31084e+06 266908 0 5.31201e+06 277919 0 5.31308e+06 288896 0 3.89383e+06 -923681 0 3.91427e+06 -923813 0 3.93467e+06 -923611 0 3.95503e+06 -923076 0 3.97534e+06 -922212 0 3.9956e+06 -921022 0 4.01579e+06 -919510 0 4.03592e+06 -917679 0 4.05597e+06 -915534 0 4.07595e+06 -913077 0 4.09584e+06 -910314 0 4.11564e+06 -907248 0 4.13535e+06 -903883 0 4.15496e+06 -900224 0 4.17446e+06 -896275 0 4.19385e+06 -892039 0 4.21314e+06 -887522 0 4.2323e+06 -882727 0 4.25134e+06 -877658 0 4.27026e+06 -872320 0 4.28904e+06 -866717 0 4.30769e+06 -860853 0 4.3262e+06 -854733 0 4.34457e+06 -848360 0 4.36279e+06 -841739 0 4.38086e+06 -834875 0 4.39878e+06 -827771 0 4.41654e+06 -820433 0 4.43414e+06 -812864 0 4.45157e+06 -805070 0 4.46884e+06 -797054 0 4.48593e+06 -788821 0 4.50285e+06 -780377 0 4.51959e+06 -771725 0 4.53614e+06 -762871 0 4.55252e+06 -753819 0 4.5687e+06 -744574 0 4.5847e+06 -735142 0 4.6005e+06 -725527 0 4.6161e+06 -715734 0 4.63151e+06 -705768 0 4.64671e+06 -695635 0 4.66171e+06 -685341 0 4.6765e+06 -674889 0 4.69109e+06 -664285 0 4.70547e+06 -653536 0 4.71963e+06 -642646 0 4.73358e+06 -631621 0 4.74731e+06 -620465 0 4.76083e+06 -609186 0 4.77413e+06 -597787 0 4.78721e+06 -586276 0 4.80008e+06 -574656 0 4.81272e+06 -562934 0 4.82514e+06 -551116 0 4.83733e+06 -539206 0 4.84931e+06 -527210 0 4.86106e+06 -515134 0 4.87259e+06 -502982 0 4.88389e+06 -490761 0 4.89498e+06 -478476 0 4.90584e+06 -466131 0 4.91649e+06 -453732 0 4.92691e+06 -441284 0 4.93711e+06 -428792 0 4.94709e+06 -416261 0 4.95686e+06 -403696 0 4.96641e+06 -391101 0 4.97575e+06 -378481 0 4.98487e+06 -365840 0 4.99378e+06 -353183 0 5.00248e+06 -340515 0 5.01098e+06 -327838 0 5.01927e+06 -315158 0 5.02736e+06 -302478 0 5.03524e+06 -289802 0 5.04293e+06 -277133 0 5.05041e+06 -264475 0 5.05771e+06 -251830 0 5.06481e+06 -239203 0 5.07172e+06 -226596 0 5.07845e+06 -214012 0 5.08499e+06 -201453 0 5.09135e+06 -188923 0 5.09753e+06 -176423 0 5.10354e+06 -163955 0 5.10937e+06 -151523 0 5.11503e+06 -139127 0 5.12052e+06 -126769 0 5.12585e+06 -114452 0 5.13101e+06 -102175 0 5.13602e+06 -89942.1 0 5.14086e+06 -77752.8 0 5.14555e+06 -65608.6 0 5.15009e+06 -53510.4 0 5.15447e+06 -41459 0 5.15871e+06 -29455.2 0 5.1628e+06 -17499.4 0 5.16675e+06 -5592.23 0 5.17056e+06 6266.06 0 5.17423e+06 18075.2 0 5.17776e+06 29835 0 5.18116e+06 41545.3 0 5.18442e+06 53206.3 0 5.18756e+06 64818.1 0 5.19056e+06 76380.7 0 5.19344e+06 87894.5 0 5.19619e+06 99359.8 0 5.19882e+06 110777 0 5.20132e+06 122146 0 5.2037e+06 133468 0 5.20596e+06 144744 0 5.20811e+06 155973 0 5.21013e+06 167157 0 5.21204e+06 178296 0 5.21384e+06 189390 0 5.21552e+06 200442 0 5.21709e+06 211450 0 5.21854e+06 222416 0 5.21988e+06 233341 0 5.22111e+06 244225 0 5.22223e+06 255070 0 5.22324e+06 265875 0 5.22414e+06 276642 0 5.22493e+06 287372 0 5.22561e+06 298065 0 5.22618e+06 308722 0 5.22664e+06 319343 0 3.91464e+06 -865294 0 3.93399e+06 -864921 0 3.95329e+06 -864234 0 3.97255e+06 -863235 0 3.99175e+06 -861929 0 4.0109e+06 -860317 0 4.02998e+06 -858404 0 4.049e+06 -856192 0 4.06793e+06 -853685 0 4.08679e+06 -850887 0 4.10556e+06 -847802 0 4.12425e+06 -844433 0 4.14284e+06 -840784 0 4.16132e+06 -836858 0 4.17971e+06 -832661 0 4.19798e+06 -828195 0 4.21615e+06 -823465 0 4.23419e+06 -818474 0 4.25212e+06 -813227 0 4.26992e+06 -807728 0 4.28759e+06 -801981 0 4.30512e+06 -795990 0 4.32252e+06 -789759 0 4.33978e+06 -783293 0 4.35689e+06 -776595 0 4.37385e+06 -769670 0 4.39066e+06 -762523 0 4.40732e+06 -755157 0 4.42381e+06 -747577 0 4.44015e+06 -739788 0 4.45632e+06 -731794 0 4.47232e+06 -723600 0 4.48814e+06 -715210 0 4.50379e+06 -706629 0 4.51927e+06 -697861 0 4.53456e+06 -688912 0 4.54967e+06 -679787 0 4.5646e+06 -670489 0 4.57933e+06 -661025 0 4.59388e+06 -651399 0 4.60823e+06 -641615 0 4.62239e+06 -631680 0 4.63635e+06 -621597 0 4.65011e+06 -611373 0 4.66367e+06 -601013 0 4.67703e+06 -590520 0 4.69018e+06 -579901 0 4.70313e+06 -569161 0 4.71587e+06 -558305 0 4.7284e+06 -547338 0 4.74073e+06 -536265 0 4.75284e+06 -525091 0 4.76475e+06 -513822 0 4.77645e+06 -502463 0 4.78793e+06 -491018 0 4.7992e+06 -479493 0 4.81026e+06 -467893 0 4.82111e+06 -456222 0 4.83175e+06 -444486 0 4.84218e+06 -432690 0 4.8524e+06 -420838 0 4.86241e+06 -408934 0 4.87221e+06 -396985 0 4.8818e+06 -384993 0 4.89118e+06 -372965 0 4.90036e+06 -360903 0 4.90933e+06 -348812 0 4.9181e+06 -336697 0 4.92667e+06 -324561 0 4.93503e+06 -312409 0 4.9432e+06 -300244 0 4.95117e+06 -288071 0 4.95894e+06 -275891 0 4.96652e+06 -263710 0 4.97391e+06 -251530 0 4.98111e+06 -239355 0 4.98812e+06 -227188 0 4.99494e+06 -215031 0 5.00158e+06 -202888 0 5.00804e+06 -190761 0 5.01432e+06 -178652 0 5.02042e+06 -166565 0 5.02635e+06 -154502 0 5.0321e+06 -142464 0 5.03768e+06 -130453 0 5.0431e+06 -118472 0 5.04835e+06 -106523 0 5.05343e+06 -94606.6 0 5.05836e+06 -82724.7 0 5.06312e+06 -70878.7 0 5.06773e+06 -59070 0 5.07218e+06 -47299.7 0 5.07648e+06 -35568.8 0 5.08063e+06 -23878.4 0 5.08463e+06 -12229.3 0 5.08849e+06 -622.191 0 5.0922e+06 10942.2 0 5.09576e+06 22463.3 0 5.09919e+06 33940.6 0 5.10248e+06 45373.8 0 5.10563e+06 56762.4 0 5.10864e+06 68106.4 0 5.11152e+06 79405.5 0 5.11427e+06 90659.5 0 5.11689e+06 101868 0 5.11937e+06 113032 0 5.12173e+06 124151 0 5.12397e+06 135225 0 5.12608e+06 146255 0 5.12806e+06 157240 0 5.12992e+06 168180 0 5.13166e+06 179077 0 5.13328e+06 189930 0 5.13478e+06 200740 0 5.13616e+06 211506 0 5.13742e+06 222230 0 5.13857e+06 232912 0 5.1396e+06 243552 0 5.14051e+06 254151 0 5.14131e+06 264708 0 5.14199e+06 275225 0 5.14256e+06 285702 0 5.14302e+06 296140 0 5.14336e+06 306538 0 5.14359e+06 316897 0 5.14371e+06 327218 0 5.14371e+06 337501 0 5.14361e+06 347746 0 3.93238e+06 -808704 0 3.95068e+06 -807893 0 3.96893e+06 -806788 0 3.98713e+06 -805390 0 4.00527e+06 -803704 0 4.02336e+06 -801731 0 4.04138e+06 -799476 0 4.05932e+06 -796942 0 4