<?xml version="1.0"?> 
<VTKFile type="StructuredGrid" version="0.1"> 
<StructuredGrid WholeExtent="0 127 0 127 0 0"> 
<Piece Extent="0 127 0 127 0 0"> 
<PointData>
<DataArray type="Float32" Name="E" format="ascii" NumberOfComponents="3"> 
-812005 0 0 -809542 0 0 -807082 0 0 -804625 0 0 -802173 0 0 -799724 0 0 -797279 0 0 -794838 0 0 -792402 0 0 -789970 0 0 -787542 0 0 -785120 0 0 -782701 0 0 -780288 0 0 -777879 0 0 -775476 0 0 -773077 0 0 -770683 0 0 -768294 0 0 -765910 0 0 -763530 0 0 -761156 0 0 -758786 0 0 -756422 0 0 -754062 0 0 -751707 0 0 -749356 0 0 -747011 0 0 -744670 0 0 -742333 0 0 -740001 0 0 -737673 0 0 -735350 0 0 -733030 0 0 -730715 0 0 -728404 0 0 -726097 0 0 -723794 0 0 -721495 0 0 -719199 0 0 -716907 0 0 -714619 0 0 -712334 0 0 -710052 0 0 -707774 0 0 -705499 0 0 -703227 0 0 -700958 0 0 -698692 0 0 -696428 0 0 -694168 0 0 -691910 0 0 -689655 0 0 -687402 0 0 -685151 0 0 -682903 0 0 -680658 0 0 -678414 0 0 -676173 0 0 -673933 0 0 -671696 0 0 -669461 0 0 -667227 0 0 -664995 0 0 -662765 0 0 -660537 0 0 -658310 0 0 -656085 0 0 -653861 0 0 -651638 0 0 -649417 0 0 -647198 0 0 -644979 0 0 -642762 0 0 -640546 0 0 -638332 0 0 -636118 0 0 -633905 0 0 -631693 0 0 -629483 0 0 -627273 0 0 -625064 0 0 -622856 0 0 -620649 0 0 -618442 0 0 -616237 0 0 -614032 0 0 -611827 0 0 -609624 0 0 -607421 0 0 -605218 0 0 -603017 0 0 -600815 0 0 -598615 0 0 -596414 0 0 -594215 0 0 -592015 0 0 -589817 0 0 -587618 0 0 -585420 0 0 -583222 0 0 -581025 0 0 -578828 0 0 -576631 0 0 -574435 0 0 -572239 0 0 -570043 0 0 -567847 0 0 -565652 0 0 -563457 0 0 -561262 0 0 -559067 0 0 -556872 0 0 -554678 0 0 -552484 0 0 -550290 0 0 -548096 0 0 -545902 0 0 -543708 0 0 -541514 0 0 -539321 0 0 -537127 0 0 -534934 0 0 -532740 0 0 -530547 0 0 -528354 0 0 -526161 0 0 -523967 0 0 -812005 1339.65 0 -809541 1337.89 0 -807081 1336.03 0 -804625 1334.06 0 -802172 1332 0 -799723 1329.85 0 -797278 1327.62 0 -794837 1325.31 0 -792401 1322.94 0 -789969 1320.51 0 -787542 1318.03 0 -785119 1315.5 0 -782701 1312.93 0 -780287 1310.33 0 -777879 1307.71 0 -775475 1305.07 0 -773076 1302.41 0 -770682 1299.74 0 -768293 1297.07 0 -765909 1294.4 0 -763530 1291.74 0 -761155 1289.08 0 -758786 1286.45 0 -756421 1283.83 0 -754061 1281.23 0 -751706 1278.66 0 -749356 1276.11 0 -747010 1273.6 0 -744669 1271.12 0 -742332 1268.68 0 -740000 1266.27 0 -737672 1263.91 0 -735349 1261.59 0 -733030 1259.31 0 -730715 1257.08 0 -728404 1254.89 0 -726097 1252.75 0 -723794 1250.65 0 -721494 1248.61 0 -719199 1246.61 0 -716907 1244.66 0 -714618 1242.76 0 -712333 1240.91 0 -710052 1239.1 0 -707773 1237.35 0 -705498 1235.64 0 -703226 1233.98 0 -700957 1232.37 0 -698691 1230.81 0 -696428 1229.29 0 -694167 1227.82 0 -691909 1226.39 0 -689654 1225.01 0 -687401 1223.67 0 -685151 1222.37 0 -682903 1221.11 0 -680657 1219.9 0 -678414 1218.72 0 -676172 1217.59 0 -673933 1216.49 0 -671696 1215.43 0 -669460 1214.41 0 -667227 1213.42 0 -664995 1212.47 0 -662765 1211.55 0 -660536 1210.66 0 -658310 1209.8 0 -656084 1208.98 0 -653861 1208.19 0 -651638 1207.42 0 -649417 1206.69 0 -647198 1205.98 0 -644979 1205.3 0 -642762 1204.64 0 -640546 1204.01 0 -638331 1203.41 0 -636118 1202.83 0 -633905 1202.27 0 -631693 1201.73 0 -629483 1201.22 0 -627273 1200.72 0 -625064 1200.25 0 -622856 1199.79 0 -620649 1199.36 0 -618442 1198.94 0 -616237 1198.54 0 -614032 1198.16 0 -611827 1197.79 0 -609624 1197.44 0 -607421 1197.11 0 -605218 1196.79 0 -603017 1196.48 0 -600815 1196.19 0 -598615 1195.91 0 -596414 1195.65 0 -594215 1195.39 0 -592015 1195.15 0 -589816 1194.92 0 -587618 1194.71 0 -585420 1194.5 0 -583222 1194.31 0 -581025 1194.12 0 -578828 1193.94 0 -576631 1193.78 0 -574435 1193.62 0 -572239 1193.47 0 -570043 1193.33 0 -567847 1193.2 0 -565652 1193.08 0 -563457 1192.97 0 -561262 1192.86 0 -559067 1192.76 0 -556872 1192.66 0 -554678 1192.58 0 -552484 1192.5 0 -550290 1192.42 0 -548096 1192.35 0 -545902 1192.29 0 -543708 1192.24 0 -541514 1192.18 0 -539321 1192.14 0 -537127 1192.1 0 -534934 1192.06 0 -532740 1192.03 0 -530547 1192 0 -528354 1191.98 0 -526161 1191.96 0 -523967 1191.95 0 -812003 2679.33 0 -809540 2675.82 0 -807080 2672.09 0 -804623 2668.15 0 -802170 2664.02 0 -799721 2659.72 0 -797276 2655.25 0 -794836 2650.64 0 -792399 2645.89 0 -789967 2641.03 0 -787540 2636.07 0 -785117 2631.01 0 -782699 2625.87 0 -780285 2620.68 0 -777876 2615.43 0 -775473 2610.14 0 -773074 2604.82 0 -770680 2599.48 0 -768291 2594.14 0 -765907 2588.8 0 -763527 2583.47 0 -761153 2578.16 0 -758784 2572.89 0 -756419 2567.65 0 -754059 2562.45 0 -751704 2557.3 0 -749354 2552.22 0 -747008 2547.19 0 -744667 2542.23 0 -742330 2537.35 0 -739998 2532.54 0 -737670 2527.81 0 -735347 2523.17 0 -733028 2518.61 0 -730713 2514.14 0 -728402 2509.76 0 -726095 2505.48 0 -723792 2501.29 0 -721493 2497.2 0 -719197 2493.2 0 -716905 2489.31 0 -714617 2485.5 0 -712332 2481.8 0 -710050 2478.19 0 -707772 2474.69 0 -705497 2471.27 0 -703225 2467.95 0 -700956 2464.73 0 -698690 2461.6 0 -696427 2458.57 0 -694166 2455.62 0 -691908 2452.77 0 -689653 2450 0 -687400 2447.32 0 -685150 2444.72 0 -682902 2442.21 0 -680656 2439.78 0 -678413 2437.43 0 -676172 2435.16 0 -673932 2432.97 0 -671695 2430.85 0 -669460 2428.8 0 -667226 2426.83 0 -664994 2424.92 0 -662764 2423.08 0 -660536 2421.31 0 -658309 2419.6 0 -656084 2417.95 0 -653860 2416.37 0 -651638 2414.84 0 -649417 2413.37 0 -647197 2411.95 0 -644979 2410.59 0 -642762 2409.28 0 -640546 2408.02 0 -638331 2406.81 0 -636117 2405.65 0 -633905 2404.53 0 -631693 2403.46 0 -629482 2402.43 0 -627272 2401.44 0 -625064 2400.49 0 -622856 2399.58 0 -620648 2398.71 0 -618442 2397.87 0 -616236 2397.07 0 -614031 2396.31 0 -611827 2395.58 0 -609623 2394.88 0 -607421 2394.21 0 -605218 2393.57 0 -603016 2392.96 0 -600815 2392.37 0 -598614 2391.82 0 -596414 2391.29 0 -594214 2390.78 0 -592015 2390.3 0 -589816 2389.85 0 -587618 2389.41 0 -585420 2389 0 -583222 2388.61 0 -581025 2388.24 0 -578828 2387.89 0 -576631 2387.55 0 -574435 2387.24 0 -572239 2386.95 0 -570043 2386.67 0 -567847 2386.4 0 -565652 2386.16 0 -563457 2385.93 0 -561262 2385.71 0 -559067 2385.51 0 -556872 2385.32 0 -554678 2385.15 0 -552484 2384.99 0 -550289 2384.84 0 -548095 2384.71 0 -545902 2384.58 0 -543708 2384.47 0 -541514 2384.37 0 -539321 2384.27 0 -537127 2384.19 0 -534934 2384.12 0 -532740 2384.06 0 -530547 2384.01 0 -528354 2383.96 0 -526161 2383.93 0 -523967 2383.9 0 -812001 4019.08 0 -809537 4013.81 0 -807077 4008.21 0 -804620 4002.3 0 -802167 3996.1 0 -799718 3989.64 0 -797273 3982.93 0 -794832 3976.01 0 -792396 3968.88 0 -789964 3961.59 0 -787536 3954.13 0 -785113 3946.54 0 -782695 3938.84 0 -780282 3931.03 0 -777873 3923.15 0 -775469 3915.22 0 -773070 3907.23 0 -770676 3899.23 0 -768287 3891.21 0 -765903 3883.2 0 -763524 3875.2 0 -761149 3867.24 0 -758780 3859.32 0 -756415 3851.45 0 -754056 3843.66 0 -751701 3835.93 0 -749350 3828.3 0 -747005 3820.76 0 -744664 3813.32 0 -742327 3805.99 0 -739995 3798.78 0 -737667 3791.68 0 -735344 3784.72 0 -733025 3777.88 0 -730710 3771.18 0 -728399 3764.61 0 -726092 3758.19 0 -723789 3751.9 0 -721490 3745.77 0 -719194 3739.77 0 -716903 3733.92 0 -714614 3728.22 0 -712329 3722.67 0 -710048 3717.26 0 -707770 3711.99 0 -705495 3706.87 0 -703223 3701.9 0 -700954 3697.06 0 -698688 3692.37 0 -696425 3687.82 0 -694164 3683.4 0 -691906 3679.12 0 -689651 3674.97 0 -687399 3670.95 0 -685148 3667.05 0 -682900 3663.29 0 -680655 3659.64 0 -678411 3656.12 0 -676170 3652.72 0 -673931 3649.42 0 -671694 3646.25 0 -669458 3643.18 0 -667225 3640.21 0 -664993 3637.36 0 -662763 3634.6 0 -660535 3631.94 0 -658308 3629.38 0 -656083 3626.91 0 -653859 3624.53 0 -651637 3622.24 0 -649416 3620.03 0 -647196 3617.91 0 -644978 3615.86 0 -642761 3613.9 0 -640545 3612.01 0 -638330 3610.2 0 -636116 3608.45 0 -633904 3606.78 0 -631692 3605.17 0 -629481 3603.62 0 -627272 3602.14 0 -625063 3600.72 0 -622855 3599.36 0 -620648 3598.05 0 -618441 3596.8 0 -616236 3595.6 0 -614031 3594.45 0 -611827 3593.35 0 -609623 3592.3 0 -607420 3591.3 0 -605218 3590.34 0 -603016 3589.43 0 -600815 3588.55 0 -598614 3587.72 0 -596414 3586.92 0 -594214 3586.17 0 -592015 3585.45 0 -589816 3584.76 0 -587618 3584.11 0 -585420 3583.49 0 -583222 3582.91 0 -581024 3582.35 0 -578828 3581.82 0 -576631 3581.33 0 -574434 3580.86 0 -572238 3580.41 0 -570042 3579.99 0 -567847 3579.6 0 -565652 3579.23 0 -563456 3578.89 0 -561261 3578.56 0 -559067 3578.26 0 -556872 3577.98 0 -554678 3577.72 0 -552483 3577.48 0 -550289 3577.26 0 -548095 3577.05 0 -545902 3576.87 0 -543708 3576.7 0 -541514 3576.55 0 -539321 3576.41 0 -537127 3576.29 0 -534934 3576.18 0 -532740 3576.09 0 -530547 3576.01 0 -528354 3575.94 0 -526161 3575.89 0 -523967 3575.85 0 -811998 5358.94 0 -809534 5351.9 0 -807073 5344.42 0 -804617 5336.53 0 -802163 5328.25 0 -799714 5319.63 0 -797269 5310.68 0 -794828 5301.43 0 -792391 5291.93 0 -789959 5282.19 0 -787531 5272.24 0 -785108 5262.11 0 -782690 5251.83 0 -780277 5241.41 0 -777868 5230.9 0 -775464 5220.31 0 -773065 5209.66 0 -770671 5198.97 0 -768282 5188.28 0 -765898 5177.59 0 -763519 5166.92 0 -761144 5156.29 0 -758775 5145.73 0 -756410 5135.24 0 -754051 5124.84 0 -751696 5114.54 0 -749345 5104.36 0 -747000 5094.3 0 -744659 5084.38 0 -742322 5074.6 0 -739990 5064.98 0 -737663 5055.52 0 -735340 5046.23 0 -733021 5037.11 0 -730706 5028.17 0 -728395 5019.42 0 -726088 5010.85 0 -723785 5002.47 0 -721486 4994.29 0 -719191 4986.29 0 -716899 4978.5 0 -714611 4970.89 0 -712326 4963.49 0 -710044 4956.27 0 -707766 4949.26 0 -705491 4942.43 0 -703220 4935.8 0 -700951 4929.35 0 -698685 4923.1 0 -696422 4917.02 0 -694161 4911.14 0 -691904 4905.43 0 -689649 4899.89 0 -687396 4894.54 0 -685146 4889.35 0 -682898 4884.33 0 -680653 4879.47 0 -678409 4874.77 0 -676168 4870.23 0 -673929 4865.85 0 -671692 4861.61 0 -669456 4857.52 0 -667223 4853.57 0 -664991 4849.76 0 -662761 4846.09 0 -660533 4842.54 0 -658306 4839.13 0 -656081 4835.83 0 -653857 4832.66 0 -651635 4829.61 0 -649414 4826.67 0 -647195 4823.84 0 -644977 4821.12 0 -642760 4818.5 0 -640544 4815.98 0 -638329 4813.56 0 -636115 4811.24 0 -633903 4809 0 -631691 4806.86 0 -629481 4804.8 0 -627271 4802.83 0 -625062 4800.93 0 -622854 4799.11 0 -620647 4797.37 0 -618441 4795.71 0 -616235 4794.11 0 -614030 4792.58 0 -611826 4791.12 0 -609622 4789.72 0 -607419 4788.38 0 -605217 4787.1 0 -603015 4785.88 0 -600814 4784.72 0 -598614 4783.61 0 -596413 4782.55 0 -594214 4781.54 0 -592014 4780.58 0 -589816 4779.67 0 -587617 4778.8 0 -585419 4777.97 0 -583221 4777.19 0 -581024 4776.45 0 -578827 4775.75 0 -576631 4775.09 0 -574434 4774.46 0 -572238 4773.87 0 -570042 4773.31 0 -567847 4772.79 0 -565651 4772.3 0 -563456 4771.84 0 -561261 4771.41 0 -559067 4771.01 0 -556872 4770.63 0 -554678 4770.29 0 -552483 4769.97 0 -550289 4769.67 0 -548095 4769.4 0 -545901 4769.15 0 -543708 4768.92 0 -541514 4768.72 0 -539320 4768.54 0 -537127 4768.38 0 -534934 4768.23 0 -532740 4768.11 0 -530547 4768 0 -528354 4767.92 0 -526160 4767.85 0 -523967 4767.79 0 -811994 6698.93 0 -809529 6690.12 0 -807069 6680.76 0 -804612 6670.87 0 -802158 6660.51 0 -799709 6649.71 0 -797263 6638.51 0 -794822 6626.94 0 -792385 6615.04 0 -789953 6602.85 0 -787525 6590.4 0 -785102 6577.72 0 -782684 6564.85 0 -780270 6551.83 0 -777861 6538.67 0 -775458 6525.42 0 -773059 6512.09 0 -770665 6498.73 0 -768275 6485.34 0 -765891 6471.97 0 -763512 6458.63 0 -761138 6445.34 0 -758769 6432.12 0 -756404 6419 0 -754044 6405.99 0 -751689 6393.11 0 -749339 6380.38 0 -746994 6367.8 0 -744653 6355.39 0 -742316 6343.17 0 -739985 6331.14 0 -737657 6319.31 0 -735334 6307.69 0 -733015 6296.29 0 -730700 6285.12 0 -728390 6274.17 0 -726083 6263.46 0 -723780 6252.99 0 -721481 6242.75 0 -719186 6232.76 0 -716894 6223.01 0 -714606 6213.51 0 -712321 6204.25 0 -710040 6195.24 0 -707762 6186.46 0 -705487 6177.93 0 -703216 6169.64 0 -700947 6161.59 0 -698681 6153.77 0 -696418 6146.18 0 -694158 6138.82 0 -691900 6131.68 0 -689645 6124.77 0 -687393 6118.07 0 -685143 6111.59 0 -682895 6105.32 0 -680650 6099.25 0 -678406 6093.38 0 -676165 6087.71 0 -673926 6082.23 0 -671689 6076.93 0 -669454 6071.82 0 -667220 6066.89 0 -664989 6062.13 0 -662759 6057.53 0 -660531 6053.11 0 -658304 6048.84 0 -656079 6044.73 0 -653856 6040.76 0 -651633 6036.95 0 -649413 6033.27 0 -647193 6029.74 0 -644975 6026.34 0 -642758 6023.07 0 -640542 6019.92 0 -638327 6016.9 0 -636114 6014 0 -633901 6011.21 0 -631690 6008.53 0 -629479 6005.96 0 -627270 6003.49 0 -625061 6001.12 0 -622853 5998.85 0 -620646 5996.68 0 -618440 5994.59 0 -616234 5992.6 0 -614029 5990.69 0 -611825 5988.86 0 -609622 5987.11 0 -607419 5985.44 0 -605216 5983.85 0 -603015 5982.32 0 -600813 5980.87 0 -598613 5979.48 0 -596413 5978.16 0 -594213 5976.9 0 -592014 5975.7 0 -589815 5974.56 0 -587617 5973.47 0 -585419 5972.44 0 -583221 5971.47 0 -581024 5970.54 0 -578827 5969.67 0 -576630 5968.84 0 -574434 5968.06 0 -572238 5967.32 0 -570042 5966.62 0 -567846 5965.97 0 -565651 5965.36 0 -563456 5964.78 0 -561261 5964.24 0 -559066 5963.74 0 -556872 5963.28 0 -554677 5962.84 0 -552483 5962.44 0 -550289 5962.07 0 -548095 5961.73 0 -545901 5961.42 0 -543708 5961.14 0 -541514 5960.89 0 -539320 5960.66 0 -537127 5960.46 0 -534934 5960.28 0 -532740 5960.13 0 -530547 5959.99 0 -528354 5959.89 0 -526160 5959.8 0 -523967 5959.73 0 -811988 8039.1 0 -809524 8028.51 0 -807063 8017.24 0 -804606 8005.36 0 -802152 7992.9 0 -799702 7979.92 0 -797257 7966.45 0 -794815 7952.54 0 -792378 7938.24 0 -789946 7923.59 0 -787518 7908.62 0 -785095 7893.39 0 -782676 7877.93 0 -780262 7862.27 0 -777853 7846.47 0 -775450 7830.54 0 -773051 7814.54 0 -770657 7798.48 0 -768267 7782.41 0 -765883 7766.34 0 -763504 7750.32 0 -761130 7734.36 0 -758761 7718.48 0 -756396 7702.73 0 -754037 7687.11 0 -751682 7671.64 0 -749332 7656.35 0 -746986 7641.25 0 -744645 7626.35 0 -742309 7611.68 0 -739977 7597.23 0 -737650 7583.03 0 -735327 7569.09 0 -733008 7555.4 0 -730694 7541.99 0 -728383 7528.85 0 -726076 7516 0 -723774 7503.43 0 -721475 7491.15 0 -719180 7479.15 0 -716888 7467.46 0 -714600 7456.05 0 -712316 7444.94 0 -710035 7434.13 0 -707757 7423.6 0 -705482 7413.36 0 -703211 7403.42 0 -700942 7393.75 0 -698676 7384.37 0 -696414 7375.27 0 -694154 7366.44 0 -691896 7357.88 0 -689641 7349.58 0 -687389 7341.55 0 -685139 7333.77 0 -682891 7326.25 0 -680646 7318.97 0 -678403 7311.93 0 -676162 7305.12 0 -673923 7298.55 0 -671686 7292.2 0 -669451 7286.07 0 -667218 7280.15 0 -664986 7274.44 0 -662756 7268.93 0 -660528 7263.62 0 -658302 7258.5 0 -656077 7253.57 0 -653853 7248.82 0 -651631 7244.25 0 -649410 7239.84 0 -647191 7235.6 0 -644973 7231.52 0 -642756 7227.6 0 -640540 7223.83 0 -638326 7220.2 0 -636112 7216.72 0 -633900 7213.37 0 -631688 7210.16 0 -629478 7207.08 0 -627268 7204.12 0 -625060 7201.28 0 -622852 7198.56 0 -620645 7195.95 0 -618438 7193.45 0 -616233 7191.06 0 -614028 7188.77 0 -611824 7186.58 0 -609620 7184.48 0 -607418 7182.48 0 -605215 7180.57 0 -603014 7178.74 0 -600813 7177 0 -598612 7175.33 0 -596412 7173.75 0 -594212 7172.24 0 -592013 7170.8 0 -589814 7169.43 0 -587616 7168.13 0 -585418 7166.9 0 -583220 7165.73 0 -581023 7164.62 0 -578826 7163.57 0 -576630 7162.58 0 -574433 7161.64 0 -572237 7160.76 0 -570041 7159.92 0 -567846 7159.14 0 -565651 7158.4 0 -563456 7157.71 0 -561261 7157.07 0 -559066 7156.47 0 -556871 7155.91 0 -554677 7155.39 0 -552483 7154.91 0 -550289 7154.47 0 -548095 7154.06 0 -545901 7153.69 0 -543707 7153.35 0 -541514 7153.05 0 -539320 7152.78 0 -537127 7152.53 0 -534933 7152.32 0 -532740 7152.14 0 -530547 7151.98 0 -528354 7151.85 0 -526160 7151.74 0 -523967 7151.66 0 -811982 9379.49 0 -809518 9367.09 0 -807056 9353.91 0 -804598 9340.01 0 -802144 9325.45 0 -799694 9310.26 0 -797248 9294.52 0 -794807 9278.26 0 -792370 9261.54 0 -789937 9244.41 0 -787509 9226.93 0 -785085 9209.13 0 -782667 9191.06 0 -780253 9172.77 0 -777844 9154.3 0 -775440 9135.7 0 -773041 9117 0 -770647 9098.24 0 -768258 9079.47 0 -765874 9060.7 0 -763495 9041.99 0 -761121 9023.35 0 -758751 9004.81 0 -756387 8986.42 0 -754027 8968.18 0 -751673 8950.12 0 -749323 8932.27 0 -746977 8914.63 0 -744637 8897.25 0 -742301 8880.11 0 -739969 8863.26 0 -737642 8846.68 0 -735319 8830.41 0 -733000 8814.44 0 -730686 8798.78 0 -728375 8783.45 0 -726069 8768.45 0 -723767 8753.78 0 -721468 8739.45 0 -719173 8725.46 0 -716882 8711.81 0 -714594 8698.51 0 -712309 8685.55 0 -710029 8672.93 0 -707751 8660.65 0 -705476 8648.71 0 -703205 8637.11 0 -700936 8625.83 0 -698671 8614.89 0 -696408 8604.27 0 -694148 8593.98 0 -691891 8583.99 0 -689636 8574.32 0 -687384 8564.95 0 -685134 8555.88 0 -682887 8547.11 0 -680642 8538.62 0 -678399 8530.41 0 -676158 8522.47 0 -673919 8514.81 0 -671682 8507.4 0 -669447 8500.25 0 -667214 8493.35 0 -664983 8486.7 0 -662753 8480.28 0 -660525 8474.08 0 -658299 8468.12 0 -656074 8462.37 0 -653850 8456.83 0 -651628 8451.49 0 -649408 8446.36 0 -647189 8441.41 0 -644971 8436.66 0 -642754 8432.09 0 -640538 8427.69 0 -638324 8423.46 0 -636110 8419.4 0 -633898 8415.5 0 -631686 8411.76 0 -629476 8408.16 0 -627267 8404.72 0 -625058 8401.41 0 -622850 8398.24 0 -620643 8395.2 0 -618437 8392.28 0 -616231 8389.5 0 -614027 8386.83 0 -611823 8384.27 0 -609619 8381.83 0 -607417 8379.49 0 -605214 8377.26 0 -603013 8375.13 0 -600812 8373.1 0 -598611 8371.16 0 -596411 8369.32 0 -594211 8367.56 0 -592012 8365.88 0 -589814 8364.29 0 -587615 8362.77 0 -585417 8361.34 0 -583220 8359.97 0 -581023 8358.68 0 -578826 8357.46 0 -576629 8356.3 0 -574433 8355.21 0 -572237 8354.18 0 -570041 8353.21 0 -567846 8352.29 0 -565650 8351.44 0 -563455 8350.63 0 -561260 8349.88 0 -559066 8349.18 0 -556871 8348.53 0 -554677 8347.93 0 -552483 8347.37 0 -550289 8346.85 0 -548095 8346.38 0 -545901 8345.95 0 -543707 8345.55 0 -541514 8345.2 0 -539320 8344.88 0 -537127 8344.6 0 -534933 8344.35 0 -532740 8344.14 0 -530547 8343.96 0 -528354 8343.8 0 -526160 8343.68 0 -523967 8343.59 0 -811975 10720.1 0 -809510 10705.9 0 -807048 10690.8 0 -804590 10674.9 0 -802136 10658.2 0 -799685 10640.8 0 -797239 10622.7 0 -794797 10604.1 0 -792360 10585 0 -789927 10565.4 0 -787499 10545.3 0 -785075 10524.9 0 -782656 10504.3 0 -780242 10483.3 0 -777833 10462.2 0 -775429 10440.9 0 -773030 10419.5 0 -770636 10398 0 -768247 10376.5 0 -765863 10355.1 0 -763484 10333.6 0 -761110 10312.3 0 -758741 10291.1 0 -756376 10270.1 0 -754017 10249.2 0 -751662 10228.5 0 -749312 10208.1 0 -746967 10188 0 -744627 10168.1 0 -742291 10148.5 0 -739959 10129.2 0 -737632 10110.2 0 -735309 10091.6 0 -732991 10073.4 0 -730677 10055.5 0 -728367 10038 0 -726060 10020.8 0 -723758 10004 0 -721460 9987.66 0 -719165 9971.67 0 -716874 9956.07 0 -714586 9940.86 0 -712302 9926.05 0 -710021 9911.63 0 -707744 9897.6 0 -705469 9883.96 0 -703198 9870.7 0 -700930 9857.82 0 -698665 9845.32 0 -696402 9833.18 0 -694142 9821.42 0 -691885 9810.02 0 -689631 9798.97 0 -687379 9788.26 0 -685129 9777.9 0 -682882 9767.88 0 -680637 9758.18 0 -678394 9748.81 0 -676153 9739.74 0 -673915 9730.99 0 -671678 9722.53 0 -669443 9714.37 0 -667210 9706.49 0 -664979 9698.88 0 -662749 9691.55 0 -660522 9684.48 0 -658295 9677.66 0 -656071 9671.1 0 -653847 9664.77 0 -651625 9658.68 0 -649405 9652.82 0 -647186 9647.17 0 -644968 9641.74 0 -642751 9636.52 0 -640536 9631.5 0 -638321 9626.68 0 -636108 9622.04 0 -633896 9617.59 0 -631684 9613.31 0 -629474 9609.21 0 -627265 9605.27 0 -625056 9601.49 0 -622848 9597.87 0 -620641 9594.4 0 -618435 9591.08 0 -616230 9587.89 0 -614025 9584.85 0 -611821 9581.93 0 -609618 9579.14 0 -607415 9576.48 0 -605213 9573.93 0 -603011 9571.5 0 -600810 9569.18 0 -598610 9566.97 0 -596410 9564.86 0 -594210 9562.85 0 -592011 9560.94 0 -589813 9559.12 0 -587614 9557.39 0 -585417 9555.75 0 -583219 9554.19 0 -581022 9552.72 0 -578825 9551.32 0 -576628 9550 0 -574432 9548.75 0 -572236 9547.58 0 -570040 9546.47 0 -567845 9545.43 0 -565650 9544.45 0 -563455 9543.54 0 -561260 9542.68 0 -559065 9541.88 0 -556871 9541.14 0 -554676 9540.45 0 -552482 9539.81 0 -550288 9539.22 0 -548094 9538.68 0 -545901 9538.19 0 -543707 9537.74 0 -541513 9537.34 0 -539320 9536.98 0 -537127 9536.66 0 -534933 9536.38 0 -532740 9536.13 0 -530547 9535.92 0 -528353 9535.75 0 -526160 9535.61 0 -523967 9535.51 0 -811967 12061 0 -809502 12045 0 -807039 12027.9 0 -804581 12009.9 0 -802126 11991.1 0 -799675 11971.5 0 -797229 11951.1 0 -794786 11930.1 0 -792349 11908.5 0 -789915 11886.4 0 -787487 11863.8 0 -785063 11840.8 0 -782644 11817.5 0 -780230 11793.9 0 -777821 11770.1 0 -775417 11746.1 0 -773018 11722 0 -770624 11697.8 0 -768235 11673.6 0 -765851 11649.4 0 -763472 11625.3 0 -761097 11601.2 0 -758728 11577.4 0 -756364 11553.6 0 -754005 11530.1 0 -751650 11506.9 0 -749301 11483.9 0 -746956 11461.2 0 -744615 11438.8 0 -742279 11416.7 0 -739948 11395 0 -737621 11373.7 0 -735299 11352.8 0 -732981 11332.2 0 -730667 11312.1 0 -728357 11292.3 0 -726051 11273 0 -723748 11254.2 0 -721450 11235.7 0 -719156 11217.8 0 -716865 11200.2 0 -714577 11183.1 0 -712294 11166.4 0 -710013 11150.2 0 -707736 11134.4 0 -705462 11119.1 0 -703191 11104.2 0 -700923 11089.7 0 -698658 11075.6 0 -696395 11062 0 -694136 11048.8 0 -691879 11035.9 0 -689625 11023.5 0 -687373 11011.5 0 -685123 10999.8 0 -682876 10988.6 0 -680631 10977.7 0 -678389 10967.1 0 -676148 10956.9 0 -673910 10947.1 0 -671673 10937.6 0 -669439 10928.4 0 -667206 10919.5 0 -664975 10911 0 -662745 10902.7 0 -660518 10894.8 0 -658291 10887.1 0 -656067 10879.8 0 -653844 10872.6 0 -651622 10865.8 0 -649402 10859.2 0 -647183 10852.9 0 -644965 10846.8 0 -642748 10840.9 0 -640533 10835.3 0 -638318 10829.8 0 -636105 10824.6 0 -633893 10819.6 0 -631682 10814.8 0 -629472 10810.2 0 -627262 10805.8 0 -625054 10801.5 0 -622846 10797.5 0 -620639 10793.6 0 -618433 10789.8 0 -616228 10786.3 0 -614024 10782.8 0 -611820 10779.6 0 -609616 10776.4 0 -607414 10773.4 0 -605212 10770.6 0 -603010 10767.8 0 -600809 10765.2 0 -598609 10762.7 0 -596409 10760.4 0 -594209 10758.1 0 -592010 10756 0 -589812 10753.9 0 -587613 10752 0 -585416 10750.1 0 -583218 10748.4 0 -581021 10746.7 0 -578824 10745.2 0 -576628 10743.7 0 -574431 10742.3 0 -572236 10741 0 -570040 10739.7 0 -567844 10738.5 0 -565649 10737.5 0 -563454 10736.4 0 -561259 10735.5 0 -559065 10734.6 0 -556870 10733.7 0 -554676 10733 0 -552482 10732.2 0 -550288 10731.6 0 -548094 10731 0 -545900 10730.4 0 -543707 10729.9 0 -541513 10729.5 0 -539320 10729.1 0 -537126 10728.7 0 -534933 10728.4 0 -532740 10728.1 0 -530547 10727.9 0 -528353 10727.7 0 -526160 10727.5 0 -523967 10727.4 0 -811959 13402.2 0 -809492 13384.3 0 -807029 13365.3 0 -804570 13345.3 0 -802115 13324.3 0 -799664 13302.4 0 -797217 13279.7 0 -794774 13256.3 0 -792336 13232.2 0 -789903 13207.6 0 -787474 13182.4 0 -785050 13156.9 0 -782631 13130.9 0 -780217 13104.6 0 -777807 13078.1 0 -775403 13051.3 0 -773004 13024.5 0 -770610 12997.6 0 -768221 12970.6 0 -765837 12943.7 0 -763458 12916.8 0 -761084 12890.1 0 -758715 12863.5 0 -756351 12837.2 0 -753991 12811 0 -751637 12785.2 0 -749288 12759.6 0 -746943 12734.3 0 -744603 12709.4 0 -742267 12684.9 0 -739936 12660.8 0 -737609 12637.1 0 -735287 12613.8 0 -732969 12590.9 0 -730655 12568.5 0 -728345 12546.6 0 -726040 12525.2 0 -723738 12504.2 0 -721440 12483.7 0 -719146 12463.7 0 -716855 12444.2 0 -714568 12425.2 0 -712284 12406.7 0 -710004 12388.7 0 -707727 12371.1 0 -705453 12354.1 0 -703182 12337.5 0 -700914 12321.4 0 -698650 12305.8 0 -696388 12290.7 0 -694128 12276 0 -691872 12261.7 0 -689618 12247.9 0 -687366 12234.6 0 -685117 12221.6 0 -682870 12209.1 0 -680625 12197 0 -678383 12185.3 0 -676142 12174 0 -673904 12163.1 0 -671668 12152.5 0 -669433 12142.3 0 -667201 12132.5 0 -664970 12123 0 -662741 12113.9 0 -660513 12105 0 -658287 12096.5 0 -656063 12088.3 0 -653840 12080.4 0 -651618 12072.8 0 -649398 12065.5 0 -647179 12058.5 0 -644961 12051.7 0 -642745 12045.2 0 -640530 12038.9 0 -638315 12032.9 0 -636102 12027.1 0 -633890 12021.6 0 -631679 12016.3 0 -629469 12011.1 0 -627260 12006.2 0 -625051 12001.5 0 -622844 11997 0 -620637 11992.7 0 -618431 11988.5 0 -616226 11984.6 0 -614022 11980.8 0 -611818 11977.1 0 -609615 11973.7 0 -607412 11970.3 0 -605210 11967.2 0 -603009 11964.1 0 -600808 11961.2 0 -598607 11958.5 0 -596407 11955.8 0 -594208 11953.3 0 -592009 11951 0 -589810 11948.7 0 -587612 11946.5 0 -585415 11944.5 0 -583217 11942.6 0 -581020 11940.7 0 -578823 11939 0 -576627 11937.3 0 -574431 11935.8 0 -572235 11934.3 0 -570039 11932.9 0 -567844 11931.6 0 -565649 11930.4 0 -563454 11929.3 0 -561259 11928.2 0 -559064 11927.2 0 -556870 11926.3 0 -554676 11925.4 0 -552482 11924.7 0 -550288 11923.9 0 -548094 11923.3 0 -545900 11922.6 0 -543706 11922.1 0 -541513 11921.6 0 -539319 11921.1 0 -537126 11920.7 0 -534933 11920.4 0 -532740 11920.1 0 -530546 11919.8 0 -528353 11919.6 0 -526160 11919.4 0 -523967 11919.3 0 -811949 14743.8 0 -809482 14724 0 -807018 14703 0 -804558 14680.9 0 -802103 14657.7 0 -799651 14633.6 0 -797203 14608.5 0 -794760 14582.7 0 -792322 14556.1 0 -789888 14528.9 0 -787459 14501.2 0 -785035 14473 0 -782616 14444.3 0 -780201 14415.3 0 -777792 14386.1 0 -775388 14356.6 0 -772989 14327 0 -770594 14297.4 0 -768205 14267.7 0 -765821 14238 0 -763442 14208.4 0 -761068 14179 0 -758700 14149.7 0 -756336 14120.6 0 -753977 14091.8 0 -751622 14063.3 0 -749273 14035.2 0 -746928 14007.4 0 -744588 13979.9 0 -742253 13952.9 0 -739922 13926.4 0 -737596 13900.3 0 -735274 13874.6 0 -732956 13849.5 0 -730642 13824.9 0 -728333 13800.7 0 -726027 13777.1 0 -723726 13754.1 0 -721428 13731.5 0 -719134 13709.5 0 -716844 13688.1 0 -714557 13667.2 0 -712274 13646.8 0 -709994 13627 0 -707717 13607.7 0 -705443 13589 0 -703173 13570.7 0 -700905 13553 0 -698641 13535.9 0 -696379 13519.2 0 -694120 13503.1 0 -691864 13487.4 0 -689610 13472.2 0 -687358 13457.5 0 -685110 13443.3 0 -682863 13429.6 0 -680618 13416.3 0 -678376 13403.4 0 -676136 13391 0 -673898 13379 0 -671662 13367.4 0 -669428 13356.2 0 -667195 13345.3 0 -664965 13334.9 0 -662736 13324.9 0 -660508 13315.2 0 -658282 13305.8 0 -656058 13296.8 0 -653835 13288.2 0 -651614 13279.8 0 -649394 13271.8 0 -647175 13264 0 -644958 13256.6 0 -642741 13249.4 0 -640526 13242.6 0 -638312 13236 0 -636099 13229.6 0 -633887 13223.5 0 -631676 13217.6 0 -629466 13212 0 -627257 13206.6 0 -625049 13201.5 0 -622841 13196.5 0 -620635 13191.7 0 -618429 13187.2 0 -616224 13182.8 0 -614019 13178.7 0 -611816 13174.7 0 -609613 13170.8 0 -607410 13167.2 0 -605208 13163.7 0 -603007 13160.4 0 -600806 13157.2 0 -598606 13154.2 0 -596406 13151.3 0 -594207 13148.5 0 -592008 13145.9 0 -589809 13143.4 0 -587611 13141.1 0 -585413 13138.8 0 -583216 13136.7 0 -581019 13134.7 0 -578822 13132.8 0 -576626 13131 0 -574430 13129.3 0 -572234 13127.7 0 -570038 13126.1 0 -567843 13124.7 0 -565648 13123.4 0 -563453 13122.1 0 -561258 13121 0 -559064 13119.9 0 -556869 13118.9 0 -554675 13117.9 0 -552481 13117 0 -550287 13116.2 0 -548093 13115.5 0 -545900 13114.8 0 -543706 13114.2 0 -541513 13113.7 0 -539319 13113.2 0 -537126 13112.8 0 -534933 13112.4 0 -532739 13112 0 -530546 13111.8 0 -528353 13111.5 0 -526160 13111.3 0 -523967 13111.2 0 -811938 16085.8 0 -809470 16064.1 0 -807006 16041.1 0 -804545 16016.8 0 -802089 15991.4 0 -799637 15965 0 -797189 15937.6 0 -794746 15909.3 0 -792307 15880.2 0 -789873 15850.5 0 -787443 15820.1 0 -785019 15789.2 0 -782599 15757.9 0 -780185 15726.2 0 -777775 15694.2 0 -775371 15662 0 -772972 15629.6 0 -770578 15597.1 0 -768188 15564.7 0 -765804 15532.3 0 -763426 15499.9 0 -761052 15467.7 0 -758683 15435.7 0 -756319 15404 0 -753960 15372.5 0 -751606 15341.4 0 -749257 15310.7 0 -746913 15280.3 0 -744573 15250.3 0 -742238 15220.9 0 -739907 15191.9 0 -737581 15163.4 0 -735259 15135.4 0 -732942 15107.9 0 -730629 15081 0 -728319 15054.7 0 -726014 15028.9 0 -723713 15003.8 0 -721416 14979.2 0 -719122 14955.2 0 -716832 14931.8 0 -714545 14909 0 -712262 14886.8 0 -709983 14865.1 0 -707706 14844.1 0 -705433 14823.7 0 -703163 14803.8 0 -700896 14784.5 0 -698631 14765.8 0 -696370 14747.6 0 -694111 14730 0 -691855 14712.9 0 -689601 14696.4 0 -687350 14680.4 0 -685102 14664.9 0 -682855 14649.9 0 -680611 14635.4 0 -678369 14621.4 0 -676129 14607.8 0 -673891 14594.7 0 -671655 14582.1 0 -669421 14569.9 0 -667189 14558.1 0 -664959 14546.7 0 -662730 14535.8 0 -660503 14525.2 0 -658277 14515 0 -656053 14505.2 0 -653830 14495.8 0 -651609 14486.7 0 -649389 14477.9 0 -647171 14469.5 0 -644953 14461.4 0 -642737 14453.6 0 -640522 14446.1 0 -638308 14438.9 0 -636096 14432 0 -633884 14425.3 0 -631673 14419 0 -629463 14412.8 0 -627254 14407 0 -625046 14401.3 0 -622839 14395.9 0 -620632 14390.7 0 -618426 14385.8 0 -616221 14381 0 -614017 14376.5 0 -611814 14372.1 0 -609611 14368 0 -607408 14364 0 -605206 14360.2 0 -603005 14356.6 0 -600804 14353.1 0 -598604 14349.8 0 -596404 14346.7 0 -594205 14343.7 0 -592006 14340.9 0 -589808 14338.1 0 -587610 14335.6 0 -585412 14333.1 0 -583215 14330.8 0 -581018 14328.6 0 -578821 14326.5 0 -576625 14324.6 0 -574429 14322.7 0 -572233 14321 0 -570038 14319.3 0 -567842 14317.8 0 -565647 14316.3 0 -563452 14315 0 -561258 14313.7 0 -559063 14312.5 0 -556869 14311.4 0 -554675 14310.4 0 -552481 14309.4 0 -550287 14308.6 0 -548093 14307.8 0 -545899 14307 0 -543706 14306.4 0 -541512 14305.8 0 -539319 14305.2 0 -537126 14304.8 0 -534932 14304.3 0 -532739 14304 0 -530546 14303.7 0 -528353 14303.4 0 -526160 14303.2 0 -523967 14303.1 0 -811926 17428.2 0 -809457 17404.5 0 -806992 17379.5 0 -804531 17353.1 0 -802074 17325.4 0 -799622 17296.7 0 -797173 17266.9 0 -794729 17236.1 0 -792290 17204.5 0 -789856 17172.1 0 -787426 17139.1 0 -785001 17105.6 0 -782581 17071.5 0 -780167 17037.1 0 -777757 17002.3 0 -775353 16967.3 0 -772953 16932.2 0 -770559 16897 0 -768170 16861.7 0 -765786 16826.5 0 -763407 16791.4 0 -761034 16756.5 0 -758665 16721.7 0 -756301 16687.3 0 -753943 16653.2 0 -751589 16619.4 0 -749240 16586 0 -746896 16553.1 0 -744556 16520.6 0 -742221 16488.6 0 -739891 16457.2 0 -737565 16426.3 0 -735244 16395.9 0 -732926 16366.2 0 -730613 16337 0 -728305 16308.5 0 -726000 16280.6 0 -723699 16253.3 0 -721402 16226.7 0 -719108 16200.7 0 -716819 16175.3 0 -714533 16150.6 0 -712250 16126.5 0 -709971 16103.1 0 -707694 16080.3 0 -705422 16058.2 0 -70315