<?xml version="1.0"?> 
<VTKFile type="StructuredGrid" version="0.1"> 
<StructuredGrid WholeExtent="0 127 0 127 0 0"> 
<Piece Extent="0 127 0 127 0 0"> 
<PointData>
<DataArray type="Float32" Name="E" format="ascii" NumberOfComponents="3"> 
1.09565e+06 -0.00621551 0 1.09559e+06 13454.8 0 1.09541e+06 26910.5 0 1.09512e+06 40368.2 0 1.0947e+06 53828.9 0 1.09417e+06 67293.5 0 1.09352e+06 80763 0 1.09276e+06 94238.4 0 1.09187e+06 107721 0 1.09086e+06 121211 0 1.08973e+06 134709 0 1.08848e+06 148218 0 1.08711e+06 161737 0 1.08562e+06 175268 0 1.084e+06 188811 0 1.08226e+06 202368 0 1.08039e+06 215939 0 1.07839e+06 229526 0 1.07626e+06 243128 0 1.07401e+06 256748 0 1.07162e+06 270385 0 1.06911e+06 284041 0 1.06645e+06 297717 0 1.06367e+06 311413 0 1.06074e+06 325130 0 1.05767e+06 338868 0 1.05447e+06 352630 0 1.05111e+06 366415 0 1.04762e+06 380224 0 1.04397e+06 394057 0 1.04018e+06 407916 0 1.03623e+06 421800 0 1.03212e+06 435711 0 1.02786e+06 449649 0 1.02344e+06 463614 0 1.01885e+06 477607 0 1.0141e+06 491628 0 1.00917e+06 505678 0 1.00407e+06 519756 0 998799 533864 0 993342 548000 0 987701 562166 0 981872 576360 0 975850 590584 0 969632 604836 0 963212 619117 0 956587 633426 0 949752 647763 0 942701 662127 0 935431 676518 0 927935 690934 0 920208 705375 0 912245 719839 0 904039 734325 0 895585 748832 0 886877 763358 0 877908 777902 0 868671 792460 0 859159 807031 0 849366 821613 0 839284 836203 0 828905 850796 0 818222 865392 0 807225 879984 0 795908 894571 0 784262 909146 0 772276 923706 0 759943 938245 0 747253 952758 0 734195 967238 0 720761 981680 0 706939 996075 0 692719 1.01042e+06 0 678091 1.0247e+06 0 663043 1.0389e+06 0 647563 1.05303e+06 0 631641 1.06707e+06 0 615264 1.081e+06 0 598419 1.09482e+06 0 581096 1.10851e+06 0 563280 1.12206e+06 0 544959 1.13545e+06 0 526121 1.14867e+06 0 506752 1.16169e+06 0 486839 1.17451e+06 0 466369 1.1871e+06 0 445328 1.19944e+06 0 423703 1.2115e+06 0 401482 1.22326e+06 0 378650 1.2347e+06 0 355197 1.24579e+06 0 331108 1.25648e+06 0 306374 1.26677e+06 0 280981 1.2766e+06 0 254921 1.28594e+06 0 228183 1.29475e+06 0 200758 1.30299e+06 0 172640 1.31062e+06 0 143823 1.31758e+06 0 114304 1.32383e+06 0 84078.7 1.32931e+06 0 53149.4 1.33396e+06 0 21518.7 1.33773e+06 0 -10807 1.34054e+06 0 -43817.9 1.34233e+06 0 -77500.3 1.34302e+06 0 -111836 1.34255e+06 0 -146801 1.34082e+06 0 -182367 1.33776e+06 0 -218497 1.33328e+06 0 -255149 1.32727e+06 0 -292273 1.31965e+06 0 -329807 1.3103e+06 0 -367682 1.29913e+06 0 -405818 1.28602e+06 0 -444120 1.27085e+06 0 -482482 1.2535e+06 0 -520782 1.23384e+06 0 -558882 1.21174e+06 0 -596625 1.18704e+06 0 -633832 1.15958e+06 0 -670305 1.12918e+06 0 -705809 1.09561e+06 0 -740092 1.05861e+06 0 -772916 1.01774e+06 0 -803804 972375 0 -834731 921408 0 -858584 858584 0 1.08468e+06 -0.0179981 0 1.08462e+06 13444.2 0 1.08444e+06 26889.4 0 1.08414e+06 40336.4 0 1.08372e+06 53786.3 0 1.08318e+06 67240 0 1.08251e+06 80698.3 0 1.08173e+06 94162.3 0 1.08083e+06 107633 0 1.0798e+06 121111 0 1.07865e+06 134597 0 1.07737e+06 148093 0 1.07598e+06 161599 0 1.07445e+06 175116 0 1.0728e+06 188645 0 1.07102e+06 202186 0 1.06912e+06 215742 0 1.06708e+06 229312 0 1.06492e+06 242897 0 1.06262e+06 256499 0 1.06018e+06 270117 0 1.05762e+06 283754 0 1.05491e+06 297408 0 1.05207e+06 311082 0 1.04909e+06 324776 0 1.04596e+06 338491 0 1.04269e+06 352227 0 1.03927e+06 365985 0 1.03571e+06 379766 0 1.03199e+06 393569 0 1.02812e+06 407397 0 1.0241e+06 421248 0 1.01992e+06 435125 0 1.01557e+06 449026 0 1.01106e+06 462953 0 1.00639e+06 476905 0 1.00154e+06 490883 0 996520 504888 0 991323 518919 0 985946 532976 0 980384 547060 0 974635 561170 0 968695 575306 0 962558 589468 0 956221 603656 0 949679 617869 0 942929 632106 0 935964 646368 0 928781 660652 0 921374 674959 0 913737 689287 0 905866 703635 0 897755 718002 0 889398 732386 0 880788 746785 0 871920 761197 0 862787 775621 0 853382 790054 0 843698 804493 0 833729 818936 0 823467 833379 0 812904 847819 0 802033 862252 0 790844 876674 0 779331 891081 0 767484 905468 0 755295 919830 0 742754 934160 0 729852 948454 0 716579 962703 0 702926 976902 0 688882 991042 0 674438 1.00511e+06 0 659581 1.01911e+06 0 644302 1.03302e+06 0 628589 1.04684e+06 0 612431 1.06054e+06 0 595817 1.07413e+06 0 578734 1.08759e+06 0 561171 1.10089e+06 0 543116 1.11404e+06 0 524556 1.12701e+06 0 505479 1.13978e+06 0 485873 1.15234e+06 0 465726 1.16467e+06 0 445025 1.17674e+06 0 423758 1.18854e+06 0 401912 1.20003e+06 0 379477 1.21119e+06 0 356441 1.222e+06 0 332792 1.23242e+06 0 308520 1.24243e+06 0 283615 1.25199e+06 0 258069 1.26105e+06 0 231872 1.26959e+06 0 205019 1.27757e+06 0 177503 1.28493e+06 0 149320 1.29164e+06 0 120469 1.29764e+06 0 90948.6 1.30288e+06 0 60761.7 1.30731e+06 0 29913.1 1.31087e+06 0 -1588.97 1.31349e+06 0 -33732.8 1.31511e+06 0 -66502.6 1.31566e+06 0 -99878.2 1.31507e+06 0 -133834 1.31326e+06 0 -168339 1.31015e+06 0 -203355 1.30565e+06 0 -238838 1.29969e+06 0 -274735 1.29216e+06 0 -310984 1.28298e+06 0 -347513 1.27203e+06 0 -384239 1.25923e+06 0 -421067 1.24445e+06 0 -457887 1.2276e+06 0 -494574 1.20854e+06 0 -530985 1.18717e+06 0 -566957 1.16334e+06 0 -602300 1.13692e+06 0 -636797 1.10775e+06 0 -670190 1.07565e+06 0 -702164 1.0404e+06 0 -732332 1.00168e+06 0 -760053 959065 0 -784513 911905 0 -801580 859010 0 -804022 804022 0 1.07379e+06 -0.0166648 0 1.07373e+06 13431.8 0 1.07354e+06 26864.5 0 1.07324e+06 40299 0 1.07281e+06 53736.2 0 1.07226e+06 67177 0 1.07158e+06 80622.3 0 1.07079e+06 94073 0 1.06986e+06 107530 0 1.06882e+06 120994 0 1.06764e+06 134466 0 1.06635e+06 147947 0 1.06492e+06 161437 0 1.06337e+06 174939 0 1.06169e+06 188451 0 1.05987e+06 201976 0 1.05793e+06 215514 0 1.05586e+06 229065 0 1.05365e+06 242631 0 1.05131e+06 256213 0 1.04883e+06 269810 0 1.04621e+06 283424 0 1.04346e+06 297056 0 1.04056e+06 310706 0 1.03752e+06 324375 0 1.03433e+06 338063 0 1.031e+06 351771 0 1.02752e+06 365500 0 1.02389e+06 379249 0 1.0201e+06 393021 0 1.01616e+06 406814 0 1.01206e+06 420630 0 1.0078e+06 434469 0 1.00337e+06 448331 0 998778 462216 0 994014 476125 0 989077 490057 0 983963 504014 0 978669 517994 0 973192 531998 0 967528 546026 0 961672 560077 0 955621 574151 0 949371 588248 0 942918 602367 0 936256 616508 0 929382 630670 0 922290 644852 0 914976 659053 0 907435 673272 0 899661 687507 0 891648 701758 0 883392 716023 0 874885 730299 0 866123 744585 0 857098 758879 0 847805 773178 0 838236 787480 0 828385 801781 0 818244 816078 0 807807 830369 0 797064 844649 0 786010 858914 0 774635 873159 0 762932 887380 0 750891 901571 0 738504 915728 0 725763 929842 0 712657 943908 0 699177 957919 0 685314 971867 0 671057 985743 0 656397 999539 0 641323 1.01324e+06 0 625824 1.02685e+06 0 609890 1.04034e+06 0 593510 1.05371e+06 0 576672 1.06694e+06 0 559365 1.08002e+06 0 541578 1.09294e+06 0 523300 1.10567e+06 0 504519 1.11821e+06 0 485223 1.13053e+06 0 465400 1.14261e+06 0 445041 1.15444e+06 0 424132 1.16598e+06 0 402663 1.17722e+06 0 380624 1.18814e+06 0 358004 1.19869e+06 0 334793 1.20886e+06 0 310981 1.21862e+06 0 286560 1.22792e+06 0 261523 1.23674e+06 0 235862 1.24504e+06 0 209572 1.25278e+06 0 182649 1.25991e+06 0 155090 1.26639e+06 0 126895 1.27218e+06 0 98064.5 1.27722e+06 0 68602.8 1.28146e+06 0 38516.5 1.28484e+06 0 7815.37 1.28731e+06 0 -23487.2 1.2888e+06 0 -55373.8 1.28925e+06 0 -87822.6 1.28858e+06 0 -120806 1.28673e+06 0 -154293 1.28362e+06 0 -188243 1.27916e+06 0 -222609 1.27329e+06 0 -257339 1.26591e+06 0 -292369 1.25693e+06 0 -327626 1.24626e+06 0 -363026 1.23381e+06 0 -398472 1.21948e+06 0 -433854 1.20317e+06 0 -469046 1.18477e+06 0 -503902 1.16417e+06 0 -538256 1.14128e+06 0 -571914 1.11595e+06 0 -604651 1.08808e+06 0 -636195 1.05753e+06 0 -666208 1.02413e+06 0 -694252 987713 0 -719666 948074 0 -741457 905086 0 -757539 858909 0 -765504 811748 0 -767689 767689 0 1.06298e+06 -0.0161407 0 1.06292e+06 13417.5 0 1.06273e+06 26835.9 0 1.06242e+06 40256.1 0 1.06198e+06 53678.8 0 1.06142e+06 67104.9 0 1.06073e+06 80535.2 0 1.05992e+06 93970.7 0 1.05898e+06 107412 0 1.05791e+06 120860 0 1.05672e+06 134316 0 1.0554e+06 147780 0 1.05395e+06 161254 0 1.05236e+06 174737 0 1.05065e+06 188231 0 1.04881e+06 201737 0 1.04683e+06 215255 0 1.04472e+06 228786 0 1.04247e+06 242330 0 1.04008e+06 255890 0 1.03756e+06 269464 0 1.03489e+06 283054 0 1.03209e+06 296660 0 1.02914e+06 310284 0 1.02604e+06 323925 0 1.0228e+06 337584 0 1.0194e+06 351262 0 1.01586e+06 364959 0 1.01216e+06 378676 0 1.0083e+06 392412 0 1.00429e+06 406169 0 1.00011e+06 419947 0 995772 433745 0 991265 447565 0 986588 461406 0 981738 475268 0 976711 489152 0 971505 503057 0 966116 516983 0 960540 530931 0 954773 544899 0 948813 558888 0 942654 572897 0 936292 586925 0 929724 600972 0 922944 615038 0 915949 629120 0 908732 643218 0 901290 657331 0 893617 671458 0 885708 685597 0 877556 699746 0 869158 713903 0 860505 728067 0 851594 742236 0 842416 756406 0 832967 770575 0 823238 784740 0 813223 798898 0 802915 813045 0 792307 827177 0 781391 841291 0 770159 855381 0 758603 869443 0 746716 883471 0 734488 897461 0 721911 911404 0 708976 925296 0 695674 939127 0 681996 952892 0 667932 966581 0 653472 980186 0 638607 993697 0 623326 1.0071e+06 0 607619 1.02039e+06 0 591476 1.03356e+06 0 574887 1.04658e+06 0 557839 1.05945e+06 0 540324 1.07215e+06 0 522330 1.08466e+06 0 503846 1.09697e+06 0 484861 1.10907e+06 0 465366 1.12092e+06 0 445348 1.13252e+06 0 424798 1.14383e+06 0 403706 1.15484e+06 0 382062 1.16552e+06 0 359856 1.17585e+06 0 337080 1.18579e+06 0 313725 1.19532e+06 0 289784 1.20439e+06 0 265251 1.21299e+06 0 240119 1.22107e+06 0 214384 1.2286e+06 0 188044 1.23553e+06 0 161097 1.24182e+06 0 133544 1.24742e+06 0 105388 1.25229e+06 0 76633.2 1.25637e+06 0 47288.8 1.25962e+06 0 17365.5 1.26197e+06 0 -13122 1.26337e+06 0 -44154.9 1.26375e+06 0 -75710.1 1.26304e+06 0 -107759 1.26119e+06 0 -140269 1.25811e+06 0 -173199 1.25374e+06 0 -206501 1.248e+06 0 -240122 1.2408e+06 0 -273998 1.23207e+06 0 -308055 1.22172e+06 0 -342209 1.20966e+06 0 -376363 1.19581e+06 0 -410408 1.18008e+06 0 -444218 1.16237e+06 0 -477647 1.14259e+06 0 -510531 1.12065e+06 0 -542676 1.09646e+06 0 -573858 1.06992e+06 0 -603805 1.04092e+06 0 -632186 1.00939e+06 0 -658576 975243 0 -682389 938440 0 -702827 899089 0 -718737 857635 0 -729071 815421 0 -734447 774472 0 -735791 735791 0 1.05225e+06 -0.0151909 0 1.05219e+06 13401.5 0 1.052e+06 26803.8 0 1.05168e+06 40207.7 0 1.05123e+06 53614 0 1.05066e+06 67023.6 0 1.04996e+06 80437.2 0 1.04914e+06 93855.6 0 1.04818e+06 107280 0 1.04709e+06 120710 0 1.04588e+06 134148 0 1.04453e+06 147593 0 1.04305e+06 161047 0 1.04144e+06 174511 0 1.0397e+06 187985 0 1.03782e+06 201469 0 1.03581e+06 214966 0 1.03366e+06 228474 0 1.03137e+06 241995 0 1.02894e+06 255530 0 1.02637e+06 269079 0 1.02366e+06 282643 0 1.0208e+06 296222 0 1.0178e+06 309817 0 1.01465e+06 323428 0 1.01134e+06 337056 0 1.00789e+06 350701 0 1.00428e+06 364364 0 1.00052e+06 378045 0 996594 391744 0 992508 405462 0 988258 419199 0 983841 432954 0 979254 446729 0 974495 460523 0 969559 474336 0 964444 488168 0 959147 502019 0 953663 515888 0 947990 529776 0 942124 543682 0 936060 557605 0 929794 571545 0 923323 585502 0 916642 599473 0 909746 613459 0 902632 627457 0 895293 641468 0 887725 655490 0 879923 669520 0 871881 683558 0 863594 697601 0 855056 711647 0 846261 725694 0 837204 739740 0 827877 753781 0 818275 767815 0 808391 781838 0 798217 795848 0 787747 809838 0 776973 823807 0 765888 837749 0 754485 851658 0 742754 865531 0 730689 879361 0 718281 893141 0 705521 906866 0 692401 920527 0 678911 934118 0 665043 947629 0 650787 961053 0 636134 974379 0 621074 987597 0 605598 1.0007e+06 0 589696 1.01366e+06 0 573357 1.02649e+06 0 556571 1.03916e+06 0 539330 1.05165e+06 0 521621 1.06396e+06 0 503436 1.07607e+06 0 484764 1.08795e+06 0 465595 1.0996e+06 0 445920 1.11098e+06 0 425729 1.12208e+06 0 405012 1.13288e+06 0 383761 1.14335e+06 0 361967 1.15346e+06 0 339623 1.16319e+06 0 316720 1.17251e+06 0 293254 1.18139e+06 0 269217 1.18978e+06 0 244606 1.19767e+06 0 219417 1.20501e+06 0 193649 1.21176e+06 0 167302 1.21788e+06 0 140377 1.22333e+06 0 112879 1.22806e+06 0 84813.1 1.23202e+06 0 56189.6 1.23516e+06 0 27020.4 1.23743e+06 0 -2678.63 1.23876e+06 0 -32887.7 1.2391e+06 0 -63582.8 1.2384e+06 0 -94734.7 1.23658e+06 0 -126309 1.23357e+06 0 -158265 1.22931e+06 0 -190555 1.22373e+06 0 -223124 1.21675e+06 0 -255908 1.2083e+06 0 -288835 1.1983e+06 0 -321821 1.18667e+06 0 -354770 1.17333e+06 0 -387575 1.1582e+06 0 -420110 1.14121e+06 0 -452236 1.12227e+06 0 -483788 1.1013e+06 0 -514581 1.07824e+06 0 -544397 1.05302e+06 0 -572977 1.02557e+06 0 -600011 995844 0 -625117 963843 0 -647810 929616 0 -667490 893356 0 -683455 855509 0 -695145 816961 0 -702681 778907 0 -706565 742265 0 -707663 707663 0 1.0416e+06 -0.0143438 0 1.04154e+06 13383.6 0 1.04134e+06 26768 0 1.04102e+06 40153.9 0 1.04057e+06 53542.1 0 1.03999e+06 66933.4 0 1.03927e+06 80328.4 0 1.03843e+06 93728 0 1.03746e+06 107133 0 1.03635e+06 120544 0 1.03512e+06 133961 0 1.03375e+06 147386 0 1.03224e+06 160820 0 1.03061e+06 174262 0 1.02883e+06 187713 0 1.02692e+06 201175 0 1.02487e+06 214647 0 1.02268e+06 228131 0 1.02035e+06 241627 0 1.01788e+06 255135 0 1.01527e+06 268657 0 1.01251e+06 282192 0 1.0096e+06 295741 0 1.00655e+06 309305 0 1.00334e+06 322885 0 999982 336479 0 996469 350089 0 992798 363716 0 988968 377359 0 984977 391018 0 980821 404694 0 976498 418387 0 972005 432098 0 967340 445825 0 962499 459569 0 957479 473330 0 952277 487107 0 946890 500901 0 941314 514711 0 935545 528536 0 929580 542376 0 923414 556230 0 917044 570098 0 910466 583979 0 903674 597871 0 896664 611773 0 889433 625685 0 881974 639605 0 874283 653530 0 866354 667460 0 858183 681393 0 849764 695325 0 841090 709256 0 832156 723182 0 822957 737101 0 813485 751008 0 803735 764903 0 793699 778779 0 783370 792634 0 772743 806464 0 761809 820263 0 750561 834027 0 738992 847751 0 727093 861428 0 714857 875053 0 702275 888619 0 689340 902118 0 676042 915543 0 662373 928886 0 648325 942138 0 633887 955289 0 619051 968329 0 603808 981248 0 588148 994032 0 572062 1.00667e+06 0 555540 1.01915e+06 0 538573 1.03146e+06 0 521152 1.04357e+06 0 503266 1.05549e+06 0 484907 1.06717e+06 0 466066 1.07862e+06 0 446732 1.08981e+06 0 426898 1.10072e+06 0 406555 1.11132e+06 0 385694 1.12159e+06 0 364309 1.13151e+06 0 342392 1.14105e+06 0 319937 1.15019e+06 0 296938 1.15888e+06 0 273391 1.1671e+06 0 249292 1.17482e+06 0 224640 1.182e+06 0 199433 1.18859e+06 0 173672 1.19457e+06 0 147361 1.19989e+06 0 120503 1.20451e+06 0 93107.6 1.20837e+06 0 65183.7 1.21143e+06 0 36744.8 1.21364e+06 0 7807.57 1.21494e+06 0 -21607.4 1.21528e+06 0 -51475.4 1.2146e+06 0 -81766.7 1.21284e+06 0 -112446 1.20993e+06 0 -143473 1.20582e+06 0 -174800 1.20043e+06 0 -206372 1.1937e+06 0 -238126 1.18555e+06 0 -269990 1.17592e+06 0 -301882 1.16474e+06 0 -333709 1.15193e+06 0 -365364 1.13743e+06 0 -396727 1.12116e+06 0 -427662 1.10306e+06 0 -458011 1.08307e+06 0 -487598 1.06113e+06 0 -516214 1.03719e+06 0 -543623 1.01123e+06 0 -569541 983228 0 -593637 953219 0 -615515 921300 0 -634725 887681 0 -650796 852751 0 -663371 817139 0 -672425 781644 0 -678221 746999 0 -681294 713767 0 -682176 682176 0 1.03103e+06 -0.0134215 0 1.03097e+06 13364 0 1.03077e+06 26728.7 0 1.03044e+06 40094.9 0 1.02998e+06 53463.2 0 1.02939e+06 66834.3 0 1.02867e+06 80209 0 1.02781e+06 93587.9 0 1.02682e+06 106972 0 1.0257e+06 120361 0 1.02444e+06 133757 0 1.02305e+06 147160 0 1.02152e+06 160570 0 1.01985e+06 173989 0 1.01805e+06 187416 0 1.0161e+06 200853 0 1.01402e+06 214299 0 1.01179e+06 227757 0 1.00942e+06 241225 0 1.00691e+06 254705 0 1.00425e+06 268197 0 1.00145e+06 281702 0 998491 295220 0 995384 308751 0 992124 322296 0 988709 335854 0 985137 349427 0 981405 363015 0 977511 376617 0 973452 390235 0 969227 403867 0 964832 417514 0 960265 431176 0 955522 444853 0 950602 458545 0 945499 472251 0 940212 485971 0 934736 499705 0 929069 513451 0 923206 527211 0 917144 540982 0 910879 554765 0 904406 568557 0 897722 582359 0 890822 596168 0 883701 609984 0 876354 623805 0 868778 637630 0 860967 651456 0 852915 665282 0 844617 679105 0 836068 692923 0 827262 706734 0 818193 720534 0 808856 734321 0 799243 748091 0 789348 761841 0 779165 775566 0 768688 789262 0 757908 802925 0 746819 816550 0 735414 830132 0 723685 843664 0 711624 857140 0 699224 870555 0 686477 883900 0 673374 897168 0 659907 910351 0 646067 923440 0 631847 936426 0 617237 949298 0 602229 962046 0 586814 974659 0 570982 987123 0 554725 999426 0 538035 1.01155e+06 0 520901 1.02349e+06 0 503315 1.03522e+06 0 485268 1.04673e+06 0 466753 1.058e+06 0 447760 1.069e+06 0 428281 1.07973e+06 0 408309 1.09015e+06 0 387836 1.10025e+06 0 366855 1.10999e+06 0 345361 1.11936e+06 0 323347 1.12833e+06 0 300810 1.13686e+06 0 277745 1.14492e+06 0 254149 1.15249e+06 0 230023 1.15953e+06 0 205365 1.166e+06 0 180177 1.17186e+06 0 154464 1.17707e+06 0 128230 1.18159e+06 0 101485 1.18538e+06 0 74239.8 1.18839e+06 0 46507.3 1.19056e+06 0 18305.4 1.19186e+06 0 -10344.8 1.19222e+06 0 -39418.2 1.19159e+06 0 -68884.7 1.18992e+06 0 -98709.2 1.18714e+06 0 -128851 1.18319e+06 0 -159263 1.17802e+06 0 -189891 1.17156e+06 0 -220672 1.16374e+06 0 -251537 1.1545e+06 0 -282406 1.14379e+06 0 -313186 1.13152e+06 0 -343777 1.11765e+06 0 -374062 1.10211e+06 0 -403909 1.08485e+06 0 -433171 1.06582e+06 0 -461679 1.04497e+06 0 -489243 1.02228e+06 0 -515642 997734 0 -540627 971347 0 -563910 943170 0 -585171 913316 0 -604059 881988 0 -620236 849513 0 -633446 816363 0 -643621 783117 0 -650896 750353 0 -655600 718552 0 -658128 688007 0 -658870 658870 0 1.02055e+06 -0.0124888 0 1.02048e+06 13342.7 0 1.02028e+06 26686 0 1.01995e+06 40030.7 0 1.01948e+06 53377.3 0 1.01888e+06 66726.6 0 1.01814e+06 80079.2 0 1.01727e+06 93435.8 0 1.01626e+06 106797 0 1.01512e+06 120163 0 1.01384e+06 133535 0 1.01243e+06 146914 0 1.01087e+06 160300 0 1.00918e+06 173693 0 1.00734e+06 187094 0 1.00537e+06 200504 0 1.00325e+06 213923 0 1.00099e+06 227352 0 998582 240791 0 996028 254241 0 993325 267702 0 990473 281174 0 987469 294657 0 984311 308153 0 980998 321662 0 977527 335183 0 973896 348716 0 970103 362263 0 966146 375823 0 962022 389395 0 957729 402981 0 953263 416580 0 948622 430191 0 943804 443816 0 938804 457452 0 933620 471101 0 928249 484760 0 922686 498431 0 916930 512113 0 910975 525803 0 904818 539503 0 898454 553210 0 891881 566924 0 885093 580644 0 878087 594367 0 870857 608093 0 863399 621820 0 855708 635546 0 847778 649269 0 839606 662987 0 831185 676697 0 822510 690397 0 813575 704084 0 804375 717754 0 794903 731405 0 785153 745033 0 775119 758633 0 764794 772202 0 754172 785735 0 743245 799227 0 732007 812673 0 720451 826066 0 708568 839402 0 696352 852672 0 683795 865871 0 670890 878990 0 657627 892021 0 643999 904957 0 629999 917786 0 615617 930500 0 600845 943088 0 585676 955538 0 570099 967839 0 554108 979977 0 537694 991939 0 520847 1.00371e+06 0 503561 1.01527e+06 0 485826 1.02661e+06 0 467636 1.03771e+06 0 448981 1.04855e+06 0 429855 1.05911e+06 0 410251 1.06937e+06 0 390162 1.0793e+06 0 369582 1.08889e+06 0 348505 1.09811e+06 0 326926 1.10692e+06 0 304843 1.11531e+06 0 282252 1.12323e+06 0 259150 1.13067e+06 0 235538 1.13759e+06 0 211417 1.14395e+06 0 186789 1.14971e+06 0 161658 1.15484e+06 0 136032 1.15929e+06 0 109919 1.16303e+06 0 83330 1.16601e+06 0 56280.4 1.16817e+06 0 28787.8 1.16948e+06 0 873.524 1.16989e+06 0 -27436.9 1.16933e+06 0 -56113.5 1.16777e+06 0 -85121.3 1.16514e+06 0 -114420 1.16138e+06 0 -143963 1.15644e+06 0 -173696 1.15027e+06 0 -203561 1.14279e+06 0 -233487 1.13396e+06 0 -263397 1.12372e+06 0 -293204 1.11201e+06 0 -322808 1.09877e+06 0 -352100 1.08395e+06 0 -380954 1.06752e+06 0 -409231 1.04942e+06 0 -436774 1.02963e+06 0 -463406 1.00814e+06 0 -488929 984936 0 -513122 960056 0 -535737 933560 0 -556509 905564 0 -575159 876251 0 -591429 845898 0 -605120 814873 0 -616154 783621 0 -624593 752599 0 -630641 722217 0 -634580 692773 0 -636721 664457 0 -637360 637360 0 1.01014e+06 -0.0115243 0 1.01007e+06 13319.6 0 1.00987e+06 26639.9 0 1.00953e+06 39961.4 0 1.00906e+06 53284.7 0 1.00845e+06 66610.4 0 1.0077e+06 79939.2 0 1.00681e+06 93271.6 0 1.00579e+06 106608 0 1.00463e+06 119950 0 1.00333e+06 133296 0 1.00189e+06 146649 0 1.00031e+06 160008 0 998592 173374 0 996728 186748 0 994721 200129 0 992569 213519 0 990271 226917 0 987825 240325 0 985230 253743 0 982484 267170 0 979587 280607 0 976535 294055 0 973327 307514 0 969961 320984 0 966435 334465 0 962747 347957 0 958895 361460 0 954875 374975 0 950687 388501 0 946326 402038 0 941791 415586 0 937078 429144 0 932184 442713 0 927107 456292 0 921844 469880 0 916390 483478 0 910742 497083 0 904897 510696 0 898852 524315 0 892602 537940 0 886143 551569 0 879471 565201 0 872582 578836 0 865471 592470 0 858135 606103 0 850567 619732 0 842764 633356 0 834721 646972 0 826431 660578 0 817890 674172 0 809092 687749 0 800032 701308 0 790704 714845 0 781102 728356 0 771219 741837 0 761050 755284 0 750588 768693 0 739827 782058 0 728758 795374 0 717377 808636 0 705675 821837 0 693646 834970 0 681282 848030 0 668575 861008 0 655519 873896 0 642105 886686 0 628325 899368 0 614173 911933 0 599639 924370 0 584716 936668 0 569396 948815 0 553670 960799 0 537532 972605 0 520973 984220 0 503985 995629 0 486562 1.00681e+06 0 468694 1.01776e+06 0 450376 1.02844e+06 0 431600 1.03885e+06 0 412360 1.04896e+06 0 392651 1.05875e+06 0 372466 1.06819e+06 0 351801 1.07727e+06 0 330651 1.08595e+06 0 309014 1.09421e+06 0 286888 1.10202e+06 0 264270 1.10934e+06 0 241163 1.11616e+06 0 217566 1.12242e+06 0 193483 1.12811e+06 0 168920 1.13317e+06 0 143883 1.13758e+06 0 118383 1.14128e+06 0 92429.8 1.14425e+06 0 66040 1.14643e+06 0 39231.1 1.14777e+06 0 12024.8 1.14824e+06 0 -15553.4 1.14778e+06 0 -43473.7 1.14634e+06 0 -71701.5 1.14388e+06 0 -100197 1.14032e+06 0 -128914 1.13564e+06 0 -157802 1.12976e+06 0 -186801 1.12265e+06 0 -215844 1.11423e+06 0 -244857 1.10447e+06 0 -273756 1.0933e+06 0 -302446 1.08069e+06 0 -330822 1.06659e+06 0 -358766 1.05096e+06 0 -386149 1.03378e+06 0 -412823 1.01501e+06 0 -438628 994654 0 -463384 972721 0 -486895 949245 0 -508948 924294 0 -529319 897978 0 -547781 870463 0 -564126 841979 0 -578193 812827 0 -589902 783359 0 -599275 753946 0 -606437 724934 0 -611587 696606 0 -614966 669165 0 -616820 642736 0 -617379 617379 0 999820 -0.0105368 0 999752 13294.9 0 999545 26590.4 0 999201 39887.1 0 998718 53185.4 0 998097 66485.9 0 997338 79789.2 0 996439 93095.8 0 995401 106406 0 994222 119721 0 992902 133041 0 991441 146366 0 989837 159697 0 988089 173034 0 986196 186378 0 984158 199729 0 981972 213087 0 979638 226453 0 977155 239828 0 974519 253211 0 971732 266603 0 968789 280004 0 965690 293414 0 962433 306834 0 959015 320263 0 955436 333702 0 951691 347150 0 947780 360608 0 943699 374076 0 939447 387553 0 935020 401038 0 930416 414533 0 925632 428036 0 920666 441548 0 915513 455066 0 910170 468592 0 904635 482124 0 898904 495661 0 892974 509203 0 886839 522748 0 880498 536295 0 873945 549843 0 867177 563391 0 860189 576937 0 852977 590478 0 845537 604015 0 837862 617543 0 829950 631062 0 821795 644568 0 813391 658059 0 804733 671532 0 795817 684984 0 786635 698411 0 777184 711810 0 767455 725177 0 757445 738508 0 747145 751798 0 736551 765042 0 725655 778234 0 714451 791370 0 702932 804444 0 691092 817448 0 678922 830375 0 666417 843219 0 653568 855972 0 640369 868624 0 626812 881168 0 612889 893592 0 598594 905887 0 583918 918043 0 568854 930046 0 553395 941886 0 537533 953548 0 521260 965018 0 504570 976282 0 487455 987324 0 469909 998126 0 451924 1.00867e+06 0 433495 1.01894e+06 0 414616 1.02891e+06 0 395282 1.03857e+06 0 375487 1.04788e+06 0 355227 1.05684e+06 0 334500 1.0654e+06 0 313301 1.07355e+06 0 291631 1.08125e+06 0 269488 1.08848e+06 0 246873 1.09521e+06 0 223788 1.1014e+06 0 200237 1.10702e+06 0 176226 1.11204e+06 0 151762 1.11642e+06 0 126855 1.12011e+06 0 101518 1.12308e+06 0 75764.9 1.12529e+06 0 49615 1.12669e+06 0 23089.5 1.12724e+06 0 -3786.1 1.12689e+06 0 -30982.4 1.12559e+06 0 -58465.3 1.12331e+06 0 -86195.7 1.11997e+06 0 -114129 1.11555e+06 0 -142215 1.10999e+06 0 -170397 1.10323e+06 0 -198610 1.09524e+06 0 -226782 1.08595e+06 0 -254833 1.07534e+06 0 -282674 1.06335e+06 0 -310205 1.04995e+06 0 -337315 1.03511e+06 0 -363882 1.0188e+06 0 -389771 1.00101e+06 0 -414835 981738 0 -438913 960999 0 -461829 938832 0 -483399 915304 0 -503430 890518 0 -521734 864621 0 -538137 837811 0 -552504 810334 0 -564756 782479 0 -574891 754551 0 -582983 726847 0 -589173 699624 0 -593643 673084 0 -596594 647369 0 -598225 622567 0 -598721 598721 0 989580 -0.00952416 0 989510 13268.6 0 989301 26537.7 0 988951 39807.9 0 988461 53079.5 0 987831 66353.2 0 987060 79629.3 0 986148 92908.5 0 985094 106191 0 983897 119478 0 982557 132768 0 981074 146064 0 979445 159365 0 977671 172671 0 975749 185984 0 973680 199303 0 971462 212628 0 969093 225961 0 966572 239300 0 963897 252647 0 961067 266002 0 958081 279365 0 954935 292735 0 951630 306114 0 948161 319500 0 944528 332895 0 940728 346297 0 936759 359708 0 932618 373126 0 928304 386551 0 923812 399984 0 919141 413423 0 914287 426869 0 909248 440320 0 904021 453776 0 898602 467237 0 892987 480701 0 887174 494167 0 881159 507635 0 874938 521103 0 868508 534570 0 861863 548034 0 855001 561494 0 847917 574949 0 840606 588395 0 833064 601832 0 825286 615257 0 817267 628667 0 809003 642059 0 800488 655432 0 791718 668781 0 782686 682103 0 773387 695396 0 763815 708653 0 753966 721873 0 743831 735049 0 733407 748177 0 722685 761253 0 711661 774269 0 700326 787221 0 688676 800102 0 676703 812905 0 664400 825622 0 651761 838246 0 638777 850769 0 625444 863182 0 611752 875474 0 597696 887637 0 583267 899658 0 568460 911528 0 553266 923233 0 537679 934760 0 521691 946096 0 505297 957227 0 488489 968136 0 471261 978808 0 453608 989224 0 435522 999367 0 417000 1.00922e+06 0 398036 1.01875e+06 0 378625 1.02795e+06 0 358765 1.03679e+06 0 338452 1.04525e+06 0 317685 1.0533e+06 0 296461 1.06092e+06 0 274782 1.06807e+06 0 252649 1.07473e+06 0 230063 1.08086e+06 0 207030 1.08644e+06 0 183556 1.09142e+06 0 159648 1.09578e+06 0 135317 1.09948e+06 0 110574 1.10247e+06 0 85436.8 1.10473e+06 0 59921.9 1.10619e+06 0 34051.2 1.10684e+06 0 7849.71 1.10661e+06 0 -18653.4 1.10548e+06 0 -45424.8 1.10338e+06 0 -72426.4 1.10028e+06 0 -99615 1.09613e+06 0 -126942 1.09089e+06 0 -154351 1.0845e+06 0 -181782 1.07692e+06 0 -209166 1.06812e+06 0 -236425 1.05805e+06 0 -263476 1.04667e+06 0 -290224 1.03396e+06 0 -316565 1.01988e+06 0 -342386 1.00441e+06 0 -367562 987558 0 -391959 969313 0 -415430 949697 0 -437821 928752 0 -458967 906540 0 -478703 883156 0 -496867 858731 0 -513313 833434 0 -527920 807473 0 -540616 781088 0 -551381 754536 0 -560258 728072 0 -567343 701927 0 -572774 676296 0 -576712 651325 0 -579325 627119 0 -580778 603741 0 -581223 581223 0 979423 -0.00848823 0 979352 13240.7 0 979139 26481.8 0 978784 39723.8 0 978287 52967.2 0 977648 66212.4 0 976865 79459.8 0 975940 92709.8 0 974870 105963 0 973656 119220 0 972296 132480 0 970791 145745 0 969138 159014 0 967338 172288 0 965388 185567 0 963289 198852 0 961038 212143 0 958634 225439 0 956076 238742 0 953363 252051 0 950492 265367 0 947462 278689 0 944271 292018 0 940917 305354 0 937399 318696 0 933714 332044 0 929859 345399 0 925833 358760 0 921634 372127 0 917257 385499 0 912702 398876 0 907965 412257 0 903043 425643 0 897933 439032 0 892633 452423 0 887138 465816 0 881446 479209 0 875553 492602 0 869456 505994 0 863150 519382 0 856632 532766 0 849898 546144 0 842944 559514 0 835766 572874 0 828358 586223 0 820717 599557 0 812839 612875 0 804717 626173 0 796348 639449 0 787725 652700 0 778845 665922 0 769701 679111 0 760289 692265 0 750602 705378 0 740635 718446 0 730382 731465 0 719837 744428 0 708993 757331 0 697846 770168 0 686387 782931 0 674612 795616 0 662513 808213 0 650083 820717 0 637317 833117 0 624207 845406 0 610747 857575 0 596930 869613 0 582748 881509 0 568197 893253 0 553268 904833 0 537954 916235 0 522251 927447 0 506151 938455 0 489648 949242 0 472736 959794 0 455410 970092 0 437664 980120 0 419494 989858 0 400895 999287 0 381863 1.00838e+06 0 362396 1.01713e+06 0 342491 1.0255e+06 0 322146 1.03346e+06 0 301360 1.041e+06 0 280135 1.04809e+06 0 258472 1.05469e+06 0 236373 1.06078e+06 0 213845 1.06633e+06 0 190892 1.07129e+06 0 167524 1.07565e+06 0 143750 1.07937e+06 0 119584 1.0824e+06 0 95040 1.08471e+06 0 70136.9 1.08626e+06 0 44895.7 1.08701e+06 0 19341.3 1.08692e+06 0 -6497.99 1.08595e+06 0 -32589.6 1.08406e+06 0 -58896.4 1.0812e+06 0 -85376.6 1.07733e+06 0 -111983 1.07241e+06 0 -138663 1.06639e+06 0 -165357 1.05924e+06 0 -191999 1.05091e+06 0 -218518 1.04137e+06 0 -244831 1.03059e+06 0 -270852 1.01854e+06 0 -296483 1.0052e+06 0 -321619 990550 0 -346144 974586 0 -369935 957315 0 -392860 938758 0 -414779 918954 0 -435548 897963 0 -455022 875871 0 -473059 852794 0 -489531 828879 0 -504333 804303 0 -517395 779269 0 -528688 753996 0 -538231 728705 0 -546091 703604 0 -552369 678874 0 -557193 654662 0 -560704 631081 0 -563044 608208 0 -564351 586091 0 -564755 564755 0 969348 -0.00742956 0 969276 13211.2 0 969060 26422.8 0 968701 39635.1 0 968196 52848.7 0 967548 66063.8 0 966754 79280.8 0 965815 92500.2 0 964730 105722 0 963498 118947 0 962119 132176 0 960592 145408 0 958916 158644 0 957090 171884 0 955113 185128 0 952984 198377 0 950701 211632 0 948263 224891 0 945669 238155 0 942917 251425 0 940006 264699 0 936933 277979 0 933697 291265 0 930297 304555 0 926729 317851 0 922993 331151 0 919085 344456 0 915003 357766 0 910745 371079 0 906309 384395 0 901691 397715 0 896889 411037 0 891900 424360 0 886721 437684 0 881349 451008 0 875781 464331 0 870013 477652 0 864042 490969 0 857864 504282 0 851475 517588 0 844872 530887 0 838051 544175 0 831008 557452 0 823738 570716 0 816236 583963 0 808500 597192 0 800523 610399 0 792301 623583 0 783830 636740 0 775103 649865 0 766117 662957 0 756866 676011 0 747344 689023 0 737546 701988 0 727466 714901 0 717099 727758 0 706438 740553 0 695478 753281 0 684213 765934 0 672636 7