<?xml version="1.0"?> 
<VTKFile type="StructuredGrid" version="0.1"> 
<StructuredGrid WholeExtent="0 127 0 127 0 0"> 
<Piece Extent="0 127 0 127 0 0"> 
<PointData>
<DataArray type="Float32" Name="E" format="ascii" NumberOfComponents="3"> 
-1.0011e+06 0 0 -999854 0 0 -998606 0 0 -997358 0 0 -996109 0 0 -994859 0 0 -993608 0 0 -992356 0 0 -991103 0 0 -989849 0 0 -988595 0 0 -987339 0 0 -986082 0 0 -984825 0 0 -983566 0 0 -982306 0 0 -981046 0 0 -979784 0 0 -978522 0 0 -977258 0 0 -975994 0 0 -974729 0 0 -973462 0 0 -972195 0 0 -970926 0 0 -969657 0 0 -968386 0 0 -967115 0 0 -965843 0 0 -964569 0 0 -963295 0 0 -962019 0 0 -960742 0 0 -959464 0 0 -958186 0 0 -956906 0 0 -955625 0 0 -954342 0 0 -953059 0 0 -951775 0 0 -950489 0 0 -949202 0 0 -947914 0 0 -946624 0 0 -945334 0 0 -944042 0 0 -942749 0 0 -941454 0 0 -940158 0 0 -938861 0 0 -937562 0 0 -936261 0 0 -934960 0 0 -933656 0 0 -932351 0 0 -931045 0 0 -929736 0 0 -928426 0 0 -927115 0 0 -925801 0 0 -924485 0 0 -923168 0 0 -921849 0 0 -920527 0 0 -919204 0 0 -917878 0 0 -916550 0 0 -915220 0 0 -913887 0 0 -912552 0 0 -911214 0 0 -909874 0 0 -908531 0 0 -907185 0 0 -905836 0 0 -904484 0 0 -903129 0 0 -901771 0 0 -900409 0 0 -899044 0 0 -897675 0 0 -896303 0 0 -894927 0 0 -893547 0 0 -892163 0 0 -890774 0 0 -889381 0 0 -887984 0 0 -886582 0 0 -885175 0 0 -883764 0 0 -882347 0 0 -880925 0 0 -879497 0 0 -878064 0 0 -876625 0 0 -875181 0 0 -873730 0 0 -872273 0 0 -870810 0 0 -869340 0 0 -867863 0 0 -866380 0 0 -864889 0 0 -863391 0 0 -861886 0 0 -860374 0 0 -858854 0 0 -857326 0 0 -855790 0 0 -854247 0 0 -852695 0 0 -851135 0 0 -849567 0 0 -847991 0 0 -846406 0 0 -844813 0 0 -843211 0 0 -841601 0 0 -839983 0 0 -838356 0 0 -836720 0 0 -835076 0 0 -833424 0 0 -831763 0 0 -830095 0 0 -828418 0 0 -826733 0 0 -1.0011e+06 2292.22 0 -999855 2280.81 0 -998608 2269.38 0 -997360 2257.93 0 -996111 2246.46 0 -994861 2234.97 0 -993610 2223.46 0 -992358 2211.94 0 -991105 2200.39 0 -989851 2188.83 0 -988596 2177.25 0 -987340 2165.65 0 -986084 2154.04 0 -984826 2142.41 0 -983567 2130.76 0 -982308 2119.09 0 -981047 2107.41 0 -979786 2095.72 0 -978523 2084.01 0 -977260 2072.28 0 -975995 2060.54 0 -974730 2048.79 0 -973463 2037.03 0 -972196 2025.25 0 -970928 2013.46 0 -969658 2001.66 0 -968388 1989.85 0 -967116 1978.04 0 -965844 1966.21 0 -964570 1954.38 0 -963296 1942.53 0 -962020 1930.69 0 -960743 1918.83 0 -959466 1906.97 0 -958187 1895.11 0 -956907 1883.25 0 -955626 1871.38 0 -954344 1859.51 0 -953060 1847.64 0 -951776 1835.77 0 -950490 1823.91 0 -949203 1812.05 0 -947915 1800.19 0 -946626 1788.34 0 -945335 1776.49 0 -944043 1764.65 0 -942750 1752.82 0 -941455 1741 0 -940159 1729.19 0 -938862 1717.39 0 -937563 1705.61 0 -936263 1693.84 0 -934961 1682.08 0 -933657 1670.35 0 -932353 1658.63 0 -931046 1646.94 0 -929738 1635.26 0 -928428 1623.61 0 -927116 1611.98 0 -925802 1600.38 0 -924487 1588.8 0 -923170 1577.26 0 -921850 1565.74 0 -920529 1554.25 0 -919205 1542.8 0 -917880 1531.38 0 -916552 1519.99 0 -915221 1508.64 0 -913889 1497.33 0 -912553 1486.06 0 -911216 1474.82 0 -909875 1463.63 0 -908532 1452.48 0 -907186 1441.37 0 -905838 1430.3 0 -904486 1419.28 0 -903131 1408.3 0 -901772 1397.37 0 -900411 1386.48 0 -899046 1375.63 0 -897677 1364.84 0 -896305 1354.08 0 -894929 1343.37 0 -893549 1332.71 0 -892164 1322.09 0 -890776 1311.51 0 -889383 1300.97 0 -887986 1290.48 0 -886584 1280.01 0 -885177 1269.59 0 -883766 1259.2 0 -882349 1248.84 0 -880927 1238.5 0 -879499 1228.19 0 -878066 1217.9 0 -876628 1207.63 0 -875183 1197.36 0 -873732 1187.11 0 -872275 1176.85 0 -870812 1166.59 0 -869342 1156.32 0 -867865 1146.03 0 -866382 1135.72 0 -864891 1125.38 0 -863393 1114.99 0 -861888 1104.56 0 -860376 1094.08 0 -858856 1083.53 0 -857328 1072.9 0 -855792 1062.2 0 -854249 1051.4 0 -852697 1040.5 0 -851137 1029.48 0 -849569 1018.35 0 -847993 1007.09 0 -846408 995.679 0 -844815 984.12 0 -843213 972.399 0 -841603 960.506 0 -839984 948.433 0 -838357 936.169 0 -836721 923.705 0 -835077 911.033 0 -833425 898.145 0 -831765 885.033 0 -830096 871.69 0 -828419 858.109 0 -826734 844.286 0 -1.00111e+06 4584.43 0 -999860 4561.61 0 -998613 4538.75 0 -997364 4515.85 0 -996115 4492.91 0 -994865 4469.94 0 -993614 4446.92 0 -992362 4423.87 0 -991109 4400.78 0 -989855 4377.66 0 -988600 4354.49 0 -987345 4331.3 0 -986088 4308.07 0 -984830 4284.8 0 -983572 4261.5 0 -982312 4238.17 0 -981051 4214.81 0 -979790 4191.42 0 -978527 4168 0 -977264 4144.54 0 -975999 4121.07 0 -974734 4097.56 0 -973467 4074.03 0 -972200 4050.48 0 -970931 4026.9 0 -969662 4003.3 0 -968392 3979.68 0 -967120 3956.04 0 -965848 3932.39 0 -964574 3908.72 0 -963299 3885.03 0 -962024 3861.33 0 -960747 3837.62 0 -959469 3813.9 0 -958191 3790.18 0 -956911 3766.44 0 -955629 3742.71 0 -954347 3718.97 0 -953064 3695.23 0 -951779 3671.49 0 -950494 3647.76 0 -949207 3624.03 0 -947919 3600.32 0 -946629 3576.61 0 -945339 3552.91 0 -944047 3529.23 0 -942754 3505.57 0 -941459 3481.92 0 -940163 3458.3 0 -938866 3434.7 0 -937567 3411.13 0 -936267 3387.59 0 -934965 3364.09 0 -933661 3340.61 0 -932356 3317.18 0 -931050 3293.78 0 -929742 3270.43 0 -928432 3247.12 0 -927120 3223.87 0 -925807 3200.66 0 -924491 3177.51 0 -923174 3154.41 0 -921854 3131.37 0 -920533 3108.4 0 -919210 3085.49 0 -917884 3062.65 0 -916556 3039.87 0 -915226 3017.17 0 -913893 2994.55 0 -912558 2972 0 -911221 2949.53 0 -909880 2927.14 0 -908537 2904.83 0 -907191 2882.61 0 -905843 2860.48 0 -904491 2838.43 0 -903136 2816.48 0 -901778 2794.61 0 -900416 2772.83 0 -899051 2751.15 0 -897683 2729.55 0 -896311 2708.04 0 -894934 2686.63 0 -893554 2665.3 0 -892170 2644.06 0 -890782 2622.9 0 -889389 2601.83 0 -887992 2580.84 0 -886590 2559.92 0 -885183 2539.07 0 -883772 2518.29 0 -882355 2497.57 0 -880933 2476.9 0 -879506 2456.28 0 -878073 2435.7 0 -876634 2415.16 0 -875189 2394.64 0 -873738 2374.13 0 -872281 2353.62 0 -870818 2333.1 0 -869348 2312.56 0 -867871 2291.99 0 -866388 2271.37 0 -864897 2250.69 0 -863399 2229.92 0 -861894 2209.07 0 -860382 2188.1 0 -858862 2167 0 -857334 2145.76 0 -855798 2124.35 0 -854254 2102.76 0 -852703 2080.97 0 -851143 2058.95 0 -849574 2036.68 0 -847998 2014.16 0 -846413 1991.35 0 -844820 1968.23 0 -843218 1944.79 0 -841607 1921.01 0 -839989 1896.87 0 -838361 1872.34 0 -836725 1847.42 0 -835081 1822.08 0 -833429 1796.3 0 -831768 1770.08 0 -830099 1743.4 0 -828422 1716.24 0 -826737 1688.59 0 -1.00111e+06 6876.65 0 -999868 6842.41 0 -998621 6808.12 0 -997372 6773.77 0 -996123 6739.36 0 -994873 6704.9 0 -993622 6670.37 0 -992370 6635.79 0 -991117 6601.16 0 -989863 6566.47 0 -988608 6531.72 0 -987352 6496.93 0 -986095 6462.08 0 -984837 6427.18 0 -983578 6392.23 0 -982319 6357.23 0 -981058 6322.18 0 -979796 6287.09 0 -978534 6251.95 0 -977270 6216.77 0 -976006 6181.55 0 -974740 6146.29 0 -973474 6110.99 0 -972206 6075.65 0 -970938 6040.28 0 -969668 6004.88 0 -968398 5969.45 0 -967126 5933.98 0 -965854 5898.5 0 -964580 5862.99 0 -963306 5827.45 0 -962030 5791.9 0 -960753 5756.33 0 -959475 5720.75 0 -958197 5685.15 0 -956917 5649.55 0 -955636 5613.94 0 -954353 5578.33 0 -953070 5542.71 0 -951785 5507.1 0 -950500 5471.5 0 -949213 5435.9 0 -947925 5400.32 0 -946635 5364.75 0 -945345 5329.2 0 -944053 5293.68 0 -942760 5258.17 0 -941465 5222.7 0 -940169 5187.26 0 -938872 5151.86 0 -937573 5116.5 0 -936273 5081.19 0 -934971 5045.92 0 -933668 5010.71 0 -932363 4975.55 0 -931057 4940.45 0 -929748 4905.42 0 -928439 4870.45 0 -927127 4835.56 0 -925813 4800.74 0 -924498 4766.01 0 -923181 4731.36 0 -921862 4696.8 0 -920540 4662.33 0 -919217 4627.96 0 -917892 4593.7 0 -916564 4559.53 0 -915234 4525.48 0 -913901 4491.54 0 -912566 4457.71 0 -911229 4424 0 -909888 4390.41 0 -908546 4356.95 0 -907200 4323.62 0 -905851 4290.42 0 -904499 4257.35 0 -903145 4224.41 0 -901787 4191.61 0 -900425 4158.94 0 -899060 4126.41 0 -897692 4094.02 0 -896320 4061.76 0 -894944 4029.64 0 -893564 3997.65 0 -892180 3965.79 0 -890792 3934.06 0 -889399 3902.45 0 -888002 3870.96 0 -886600 3839.59 0 -885193 3808.32 0 -883782 3777.16 0 -882365 3746.08 0 -880943 3715.09 0 -879516 3684.17 0 -878083 3653.31 0 -876644 3622.5 0 -875199 3591.72 0 -873749 3560.97 0 -872292 3530.22 0 -870828 3499.45 0 -869358 3468.65 0 -867882 3437.81 0 -866398 3406.88 0 -864907 3375.87 0 -863410 3344.74 0 -861904 3313.47 0 -860392 3282.03 0 -858871 3250.39 0 -857343 3218.54 0 -855808 3186.44 0 -854264 3154.06 0 -852712 3121.38 0 -851152 3088.36 0 -849583 3054.98 0 -848006 3021.2 0 -846421 2986.99 0 -844828 2952.33 0 -843225 2917.19 0 -841615 2881.52 0 -839996 2845.31 0 -838368 2808.53 0 -836732 2771.15 0 -835088 2733.15 0 -833435 2694.49 0 -831774 2655.16 0 -830105 2615.14 0 -828427 2574.41 0 -826742 2532.94 0 -1.00113e+06 9168.86 0 -999879 9123.21 0 -998632 9077.49 0 -997383 9031.68 0 -996134 8985.8 0 -994883 8939.85 0 -993632 8893.81 0 -992380 8847.7 0 -991127 8801.52 0 -989873 8755.26 0 -988618 8708.93 0 -987362 8662.53 0 -986105 8616.06 0 -984847 8569.52 0 -983588 8522.91 0 -982328 8476.24 0 -981067 8429.51 0 -979806 8382.71 0 -978543 8335.85 0 -977279 8288.94 0 -976015 8241.97 0 -974749 8194.95 0 -973483 8147.88 0 -972215 8100.76 0 -970947 8053.59 0 -969677 8006.38 0 -968406 7959.12 0 -967135 7911.83 0 -965862 7864.51 0 -964589 7817.15 0 -963314 7769.77 0 -962038 7722.35 0 -960762 7674.92 0 -959484 7627.47 0 -958205 7580 0 -956925 7532.52 0 -955644 7485.03 0 -954362 7437.53 0 -953078 7390.04 0 -951794 7342.55 0 -950508 7295.07 0 -949221 7247.59 0 -947933 7200.14 0 -946644 7152.71 0 -945353 7105.3 0 -944062 7057.92 0 -942768 7010.57 0 -941474 6963.27 0 -940178 6916.01 0 -938881 6868.79 0 -937582 6821.64 0 -936282 6774.54 0 -934980 6727.5 0 -933677 6680.54 0 -932372 6633.65 0 -931066 6586.85 0 -929758 6540.12 0 -928448 6493.49 0 -927136 6446.96 0 -925823 6400.53 0 -924508 6354.21 0 -923191 6308 0 -921872 6261.91 0 -920551 6215.95 0 -919227 6170.12 0 -917902 6124.42 0 -916574 6078.86 0 -915244 6033.44 0 -913912 5988.18 0 -912577 5943.07 0 -911240 5898.12 0 -909900 5853.34 0 -908557 5808.72 0 -907211 5764.27 0 -905863 5719.99 0 -904511 5675.9 0 -903157 5631.98 0 -901799 5588.24 0 -900438 5544.68 0 -899073 5501.31 0 -897705 5458.12 0 -896333 5415.11 0 -894957 5372.28 0 -893577 5329.63 0 -892193 5287.16 0 -890805 5244.86 0 -889413 5202.72 0 -888016 5160.74 0 -886614 5118.92 0 -885208 5077.24 0 -883796 5035.69 0 -882379 4994.27 0 -880958 4952.96 0 -879530 4911.75 0 -878097 4870.62 0 -876659 4829.55 0 -875214 4788.53 0 -873763 4747.54 0 -872306 4706.56 0 -870843 4665.56 0 -869373 4624.51 0 -867896 4583.4 0 -866412 4542.19 0 -864922 4500.86 0 -863424 4459.37 0 -861918 4417.7 0 -860406 4375.8 0 -858885 4333.64 0 -857357 4291.2 0 -855821 4248.42 0 -854277 4205.27 0 -852725 4161.71 0 -851164 4117.71 0 -849595 4073.22 0 -848018 4028.2 0 -846433 3982.61 0 -844839 3936.41 0 -843236 3889.57 0 -841625 3842.03 0 -840006 3793.77 0 -838378 3744.74 0 -836741 3694.92 0 -835097 3644.25 0 -833443 3592.72 0 -831782 3540.3 0 -830112 3486.94 0 -828434 3432.64 0 -826749 3377.35 0 -1.00114e+06 11461.1 0 -999893 11404 0 -998646 11346.8 0 -997397 11289.6 0 -996148 11232.2 0 -994897 11174.8 0 -993646 11117.2 0 -992393 11059.6 0 -991140 11001.9 0 -989886 10944 0 -988631 10886.1 0 -987374 10828.1 0 -986117 10770 0 -984859 10711.8 0 -983600 10653.6 0 -982341 10595.2 0 -981080 10536.8 0 -979818 10478.3 0 -978555 10419.7 0 -977291 10361 0 -976027 10302.3 0 -974761 10243.5 0 -973494 10184.7 0 -972227 10125.8 0 -970958 10066.8 0 -969688 10007.8 0 -968418 9948.69 0 -967146 9889.56 0 -965873 9830.39 0 -964600 9771.18 0 -963325 9711.93 0 -962049 9652.66 0 -960773 9593.35 0 -959495 9534.02 0 -958216 9474.67 0 -956936 9415.3 0 -955655 9355.92 0 -954373 9296.54 0 -953089 9237.16 0 -951805 9177.78 0 -950519 9118.41 0 -949232 9059.05 0 -947944 8999.72 0 -946655 8940.41 0 -945364 8881.13 0 -944073 8821.89 0 -942779 8762.69 0 -941485 8703.54 0 -940189 8644.45 0 -938892 8585.42 0 -937593 8526.45 0 -936293 8467.57 0 -934992 8408.76 0 -933689 8350.04 0 -932384 8291.41 0 -931078 8232.88 0 -929770 8174.47 0 -928460 8116.16 0 -927149 8057.98 0 -925836 7999.93 0 -924521 7942.01 0 -923204 7884.24 0 -921885 7826.61 0 -920564 7769.14 0 -919241 7711.84 0 -917915 7654.7 0 -916588 7597.74 0 -915258 7540.96 0 -913926 7484.37 0 -912591 7427.97 0 -911254 7371.78 0 -909914 7315.78 0 -908572 7260 0 -907226 7204.44 0 -905878 7149.09 0 -904527 7093.96 0 -903172 7039.06 0 -901815 6984.38 0 -900454 6929.94 0 -899089 6875.72 0 -897721 6821.73 0 -896349 6767.97 0 -894974 6714.44 0 -893594 6661.14 0 -892211 6608.05 0 -890823 6555.18 0 -889430 6502.52 0 -888033 6450.06 0 -886632 6397.8 0 -885226 6345.71 0 -883814 6293.79 0 -882398 6242.04 0 -880976 6190.42 0 -879549 6138.92 0 -878116 6087.53 0 -876677 6036.22 0 -875233 5984.97 0 -873782 5933.76 0 -872325 5882.56 0 -870862 5831.34 0 -869391 5780.06 0 -867915 5728.7 0 -866431 5677.23 0 -864940 5625.6 0 -863442 5573.77 0 -861936 5521.71 0 -860423 5469.37 0 -858903 5416.71 0 -857374 5363.69 0 -855838 5310.25 0 -854294 5256.35 0 -852741 5201.94 0 -851180 5146.96 0 -849611 5091.38 0 -848034 5035.14 0 -846448 4978.19 0 -844853 4920.47 0 -843250 4861.94 0 -841639 4802.54 0 -840019 4742.24 0 -838391 4680.98 0 -836754 4618.72 0 -835108 4555.41 0 -833454 4491.01 0 -831792 4425.49 0 -830122 4358.82 0 -828444 4290.94 0 -826758 4221.85 0 -1.00116e+06 13753.3 0 -999911 13684.8 0 -998663 13616.2 0 -997414 13547.5 0 -996164 13478.7 0 -994914 13409.7 0 -993662 13340.6 0 -992410 13271.5 0 -991156 13202.2 0 -989902 13132.8 0 -988646 13063.3 0 -987390 12993.6 0 -986133 12923.9 0 -984875 12854.1 0 -983616 12784.1 0 -982355 12714.1 0 -981094 12644 0 -979832 12573.8 0 -978570 12503.5 0 -977306 12433.1 0 -976041 12362.6 0 -974775 12292 0 -973508 12221.4 0 -972240 12150.7 0 -970972 12079.9 0 -969702 12009 0 -968431 11938.1 0 -967160 11867.1 0 -965887 11796.1 0 -964613 11725 0 -963338 11653.9 0 -962063 11582.8 0 -960786 11511.6 0 -959508 11440.4 0 -958229 11369.1 0 -956949 11297.9 0 -955668 11226.6 0 -954386 11155.3 0 -953102 11084 0 -951818 11012.7 0 -950532 10941.5 0 -949245 10870.2 0 -947957 10799 0 -946668 10727.8 0 -945378 10656.6 0 -944086 10585.5 0 -942793 10514.5 0 -941499 10443.5 0 -940203 10372.5 0 -938906 10301.7 0 -937607 10230.9 0 -936307 10160.2 0 -935006 10089.6 0 -933703 10019.1 0 -932398 9948.73 0 -931092 9878.48 0 -929784 9808.35 0 -928475 9738.36 0 -927164 9668.52 0 -925851 9598.84 0 -924536 9529.31 0 -923219 9459.96 0 -921900 9390.79 0 -920580 9321.81 0 -919257 9253.02 0 -917932 9184.44 0 -916605 9116.07 0 -915275 9047.91 0 -913943 8979.99 0 -912609 8912.3 0 -911272 8844.85 0 -909932 8777.65 0 -908590 8710.7 0 -907245 8644 0 -905897 8577.58 0 -904546 8511.42 0 -903192 8445.53 0 -901834 8379.91 0 -900473 8314.58 0 -899109 8249.52 0 -897741 8184.73 0 -896370 8120.23 0 -894994 8056 0 -893615 7992.04 0 -892232 7928.34 0 -890844 7864.91 0 -889452 7801.73 0 -888055 7738.8 0 -886654 7676.1 0 -885248 7613.62 0 -883837 7551.34 0 -882420 7489.26 0 -880999 7427.34 0 -879571 7365.58 0 -878139 7303.94 0 -876700 7242.41 0 -875256 7180.95 0 -873805 7119.54 0 -872348 7058.13 0 -870884 6996.71 0 -869414 6935.23 0 -867937 6873.64 0 -866453 6811.92 0 -864962 6750.01 0 -863464 6687.87 0 -861959 6625.44 0 -860445 6562.69 0 -858924 6499.55 0 -857396 6435.97 0 -855859 6371.89 0 -854314 6307.26 0 -852761 6242.02 0 -851200 6176.1 0 -849630 6109.45 0 -848052 6042.01 0 -846466 5973.71 0 -844871 5904.49 0 -843268 5834.29 0 -841656 5763.06 0 -840035 5690.73 0 -838406 5617.25 0 -836768 5542.57 0 -835122 5466.63 0 -833468 5389.38 0 -831805 5310.78 0 -830134 5230.78 0 -828455 5149.35 0 -826768 5066.46 0 -1.00118e+06 16045.5 0 -999931 15965.6 0 -998683 15885.6 0 -997434 15805.4 0 -996184 15725.1 0 -994933 15644.6 0 -993682 15564 0 -992429 15483.3 0 -991175 15402.5 0 -989921 15321.5 0 -988665 15240.4 0 -987408 15159.1 0 -986151 15077.8 0 -984893 14996.3 0 -983633 14914.7 0 -982373 14833 0 -981112 14751.1 0 -979850 14669.2 0 -978587 14587.1 0 -977323 14505 0 -976058 14422.7 0 -974792 14340.4 0 -973525 14257.9 0 -972257 14175.4 0 -970988 14092.8 0 -969718 14010.1 0 -968447 13927.4 0 -967176 13844.5 0 -965903 13761.6 0 -964629 13678.7 0 -963354 13595.7 0 -962078 13512.7 0 -960802 13429.6 0 -959524 13346.5 0 -958245 13263.3 0 -956965 13180.1 0 -955683 13097 0 -954401 13013.8 0 -953118 12930.6 0 -951833 12847.4 0 -950548 12764.2 0 -949261 12681 0 -947973 12597.9 0 -946684 12514.8 0 -945393 12431.8 0 -944102 12348.8 0 -942809 12265.8 0 -941514 12183 0 -940219 12100.2 0 -938922 12017.5 0 -937623 11934.8 0 -936324 11852.3 0 -935022 11769.9 0 -933720 11687.7 0 -932415 11605.5 0 -931109 11523.5 0 -929802 11441.7 0 -928492 11360 0 -927181 11278.5 0 -925869 11197.2 0 -924554 11116 0 -923237 11035.1 0 -921919 10954.4 0 -920598 10873.8 0 -919276 10793.6 0 -917951 10713.5 0 -916624 10633.7 0 -915295 10554.2 0 -913963 10474.9 0 -912629 10395.9 0 -911292 10317.2 0 -909953 10238.8 0 -908611 10160.7 0 -907266 10082.9 0 -905919 10005.3 0 -904568 9928.15 0 -903214 9851.27 0 -901857 9774.71 0 -900496 9698.48 0 -899133 9622.58 0 -897765 9547 0 -896394 9471.75 0 -895019 9396.82 0 -893640 9322.21 0 -892256 9247.92 0 -890869 9173.93 0 -889477 9100.24 0 -888081 9026.84 0 -886680 8953.72 0 -885274 8880.85 0 -883863 8808.23 0 -882447 8735.83 0 -881025 8663.64 0 -879598 8591.63 0 -878165 8519.76 0 -876727 8448.02 0 -875282 8376.37 0 -873832 8304.77 0 -872375 8233.2 0 -870911 8161.59 0 -869441 8089.92 0 -867964 8018.14 0 -866480 7946.2 0 -864989 7874.03 0 -863491 7801.6 0 -861985 7728.85 0 -860471 7655.7 0 -858950 7582.11 0 -857421 7508 0 -855884 7433.32 0 -854338 7357.99 0 -852785 7281.94 0 -851223 7205.1 0 -849653 7127.41 0 -848075 7048.79 0 -846488 6969.16 0 -844892 6888.47 0 -843288 6806.63 0 -841675 6723.58 0 -840054 6639.24 0 -838424 6553.57 0 -836786 6466.48 0 -835139 6377.92 0 -833484 6287.83 0 -831820 6196.16 0 -830148 6102.86 0 -828469 6007.88 0 -826781 5911.19 0 -1.0012e+06 18337.7 0 -999955 18246.4 0 -998707 18154.9 0 -997457 18063.3 0 -996207 17971.5 0 -994956 17879.5 0 -993704 17787.4 0 -992451 17695.2 0 -991197 17602.7 0 -989942 17510.2 0 -988686 17417.4 0 -987430 17324.6 0 -986172 17231.6 0 -984913 17138.4 0 -983654 17045.1 0 -982393 16951.7 0 -981132 16858.2 0 -979870 16764.5 0 -978606 16670.7 0 -977342 16576.8 0 -976077 16482.7 0 -974811 16388.6 0 -973544 16294.4 0 -972276 16200 0 -971007 16105.6 0 -969737 16011 0 -968466 15916.4 0 -967194 15821.7 0 -965921 15727 0 -964647 15632.1 0 -963372 15537.2 0 -962096 15442.3 0 -960819 15347.3 0 -959542 15252.3 0 -958263 15157.2 0 -956982 15062.1 0 -955701 14967 0 -954419 14871.9 0 -953136 14776.8 0 -951851 14681.7 0 -950566 14586.5 0 -949279 14491.5 0 -947991 14396.4 0 -946702 14301.4 0 -945411 14206.5 0 -944120 14111.6 0 -942827 14016.7 0 -941533 13922 0 -940237 13827.3 0 -938940 13732.7 0 -937642 13638.3 0 -936342 13543.9 0 -935041 13449.7 0 -933739 13355.7 0 -932435 13261.7 0 -931129 13168 0 -929821 13074.4 0 -928512 12981 0 -927202 12887.8 0 -925889 12794.8 0 -924575 12702 0 -923258 12609.5 0 -921940 12517.2 0 -920620 12425.1 0 -919298 12333.4 0 -917973 12241.9 0 -916646 12150.6 0 -915317 12059.7 0 -913986 11969.1 0 -912652 11878.8 0 -911316 11788.8 0 -909977 11699.1 0 -908636 11609.8 0 -907291 11520.9 0 -905944 11432.3 0 -904593 11344 0 -903240 11256.2 0 -901883 11168.7 0 -900523 11081.5 0 -899159 10994.8 0 -897792 10908.4 0 -896421 10822.4 0 -895047 10736.8 0 -893668 10651.5 0 -892285 10566.6 0 -890898 10482.1 0 -889506 10397.9 0 -888110 10314.1 0 -886709 10230.5 0 -885304 10147.3 0 -883893 10064.3 0 -882477 9981.65 0 -881056 9899.2 0 -879629 9816.95 0 -878196 9734.88 0 -876758 9652.95 0 -875314 9571.13 0 -873863 9489.38 0 -872406 9407.65 0 -870942 9325.9 0 -869472 9244.07 0 -867995 9162.12 0 -866511 9079.98 0 -865020 8997.6 0 -863521 8914.92 0 -862015 8831.86 0 -860501 8748.36 0 -858979 8664.34 0 -857450 8579.75 0 -855912 8494.48 0 -854366 8408.48 0 -852813 8321.66 0 -851250 8233.94 0 -849680 8145.23 0 -848100 8055.46 0 -846513 7964.55 0 -844916 7872.4 0 -843311 7778.94 0 -841698 7684.1 0 -840076 7587.78 0 -838445 7489.92 0 -836806 7390.45 0 -835158 7289.29 0 -833502 7186.38 0 -831837 7081.65 0 -830165 6975.06 0 -828484 6866.54 0 -826796 6756.06 0 -1.00123e+06 20629.9 0 -999982 20527.2 0 -998733 20424.3 0 -997484 20321.2 0 -996233 20217.9 0 -994982 20114.4 0 -993729 20010.8 0 -992476 19907 0 -991222 19803 0 -989967 19698.8 0 -988711 19594.5 0 -987454 19490 0 -986196 19385.3 0 -984937 19280.5 0 -983677 19175.5 0 -982416 19070.4 0 -981155 18965.1 0 -979892 18859.7 0 -978629 18754.1 0 -977364 18648.4 0 -976099 18542.6 0 -974833 18436.7 0 -973565 18330.6 0 -972297 18224.4 0 -971028 18118.1 0 -969758 18011.8 0 -968487 17905.3 0 -967215 17798.7 0 -965942 17692 0 -964668 17585.3 0 -963393 17478.5 0 -962117 17371.6 0 -960840 17264.7 0 -959562 17157.8 0 -958283 17050.8 0 -957003 16943.7 0 -955721 16836.7 0 -954439 16729.6 0 -953156 16622.6 0 -951871 16515.5 0 -950586 16408.5 0 -949299 16301.4 0 -948011 16194.5 0 -946722 16087.5 0 -945432 15980.6 0 -944140 15873.8 0 -942847 15767.1 0 -941553 15660.4 0 -940258 15553.9 0 -938961 15447.4 0 -937663 15341.1 0 -936364 15234.9 0 -935063 15128.9 0 -933760 15023 0 -932456 14917.3 0 -931151 14811.7 0 -929844 14706.4 0 -928535 14601.3 0 -927224 14496.4 0 -925912 14391.7 0 -924598 14287.3 0 -923282 14183.1 0 -921964 14079.2 0 -920644 13975.6 0 -919322 13872.3 0 -917998 13769.3 0 -916672 13666.6 0 -915343 13564.3 0 -914012 13462.3 0 -912679 13360.7 0 -911343 13259.4 0 -910004 13158.5 0 -908663 13058 0 -907319 12957.9 0 -905972 12858.2 0 -904622 12758.9 0 -903269 12660.1 0 -901913 12561.6 0 -900553 12463.6 0 -899190 12366 0 -897823 12268.8 0 -896453 12172.1 0 -895078 12075.8 0 -893700 11979.9 0 -892317 11884.4 0 -890931 11789.3 0 -889540 11694.7 0 -888144 11600.4 0 -886743 11506.4 0 -885338 11412.8 0 -883927 11319.6 0 -882512 11226.6 0 -881091 11133.9 0 -879664 11041.4 0 -878231 10949.2 0 -876793 10857.1 0 -875349 10765.1 0 -873898 10673.3 0 -872441 10581.4 0 -870978 10489.5 0 -869507 10397.6 0 -868030 10305.5 0 -866546 10213.2 0 -865054 10120.6 0 -863555 10027.7 0 -862049 9934.42 0 -860535 9840.6 0 -859013 9746.2 0 -857483 9651.15 0 -855945 9555.35 0 -854398 9458.71 0 -852844 9361.16 0 -851281 9262.58 0 -849709 9162.9 0 -848130 9062.02 0 -846541 8959.84 0 -844944 8856.27 0 -843338 8751.23 0 -841724 8644.62 0 -840101 8536.35 0 -838469 8426.34 0 -836829 8314.5 0 -835180 8200.76 0 -833523 8085.04 0 -831857 7967.28 0 -830184 7847.41 0 -828502 7725.37 0 -826812 7601.11 0 -1.00126e+06 22922.2 0 -1.00001e+06 22808 0 -998763 22693.7 0 -997513 22579.1 0 -996262 22464.3 0 -995010 22349.4 0 -993758 22234.2 0 -992504 22118.8 0 -991249 22003.2 0 -989994 21887.5 0 -988738 21771.5 0 -987480 21655.4 0 -986222 21539 0 -984963 21422.5 0 -983703 21305.8 0 -982442 21189 0 -981180 21072 0 -979917 20954.8 0 -978653 20837.5 0 -977389 20720 0 -976123 20602.4 0 -974857 20484.6 0 -973589 20366.7 0 -972321 20248.7 0 -971052 20130.5 0 -969781 20012.3 0 -968510 19893.9 0 -967238 19775.4 0 -965965 19656.9 0 -964691 19538.2 0 -963416 19419.5 0 -962139 19300.7 0 -960862 19181.8 0 -959584 19062.9 0 -958305 18944 0 -957025 18825 0 -955744 18706 0 -954461 18587 0 -953178 18467.9 0 -951894 18348.9 0 -950608 18229.9 0 -949321 18110.9 0 -948034 17992 0 -946745 17873.1 0 -945454 17754.3 0 -944163 17635.5 0 -942870 17516.8 0 -941576 17398.2 0 -940281 17279.8 0 -938984 17161.4 0 -937687 17043.2 0 -936387 16925.2 0 -935086 16807.3 0 -933784 16689.5 0 -932481 16572 0 -931175 16454.7 0 -929868 16337.6 0 -928560 16220.7 0 -927250 16104.1 0 -925938 15987.7 0 -924624 15871.6 0 -923308 15755.8 0 -921991 15640.3 0 -920671 15525.2 0 -919349 15410.3 0 -918026 15295.8 0 -916700 15181.7 0 -915372 15067.9 0 -914041 14954.5 0 -912708 14841.6 0 -911373 14729 0 -910035 14616.9 0 -908694 14505.2 0 -907350 14393.9 0 -906004 14283.1 0 -904654 14172.8 0 -903302 14062.9 0 -901946 13953.5 0 -900586 13844.6 0 -899224 13736.1 0 -897857 13628.2 0 -896487 13520.7 0 -895114 13413.7 0 -893736 13307.2 0 -892354 13201.1 0 -890967 13095.5 0 -889576 12990.3 0 -888181 12885.6 0 -886781 12781.3 0 -885376 12677.3 0 -883966 12573.8 0 -882550 12470.6 0 -881129 12367.6 0 -879703 12265 0 -878271 12162.6 0 -876833 12060.4 0 -875388 11958.3 0 -873938 11856.3 0 -872481 11754.4 0 -871017 11652.4 0 -869547 11550.4 0 -868069 11448.2 0 -866585 11345.8 0 -865093 11243.1 0 -863594 11140 0 -862087 11036.5 0 -860572 10932.4 0 -859050 10827.6 0 -857520 10722.2 0 -855981 10615.9 0 -854434 10508.6 0 -852879 10400.4 0 -851315 10291 0 -849743 10180.4 0 -848162 10068.4 0 -846573 9955.03 0 -844975 9840.08 0 -843368 9723.49 0 -841753 9605.14 0 -840128 9484.95 0 -838496 9362.81 0 -836854 9238.63 0 -835204 9112.34 0 -833546 8983.84 0 -831879 8853.06 0 -830204 8719.92 0 -828522 8584.37 0 -826831 8446.35 0 -1.00129e+06 25214.5 0 -1.00005e+06 25088.9 0 -998796 24963.1 0 -997545 24837.1 0 -996294 24710.8 0 -995042 24584.3 0 -993789 24457.6 0 -992535 24330.6 0 -991280 24203.4 0 -990024 24076.1 0 -988767 23948.5 0 -987510 23820.7 0 -986251 23692.7 0 -984992 23564.5 0 -983731 23436.1 0 -982470 23307.5 0 -981208 23178.7 0 -979945 23049.8 0 -978681 22920.7 0 -977416 22791.4 0 -976150 22662 0 -974883 22532.4 0 -973616 22402.6 0 -972347 22272.7 0 -971078 22142.7 0 -969807 22012.5 0 -968536 21882.3 0 -967263 21751.9 0 -965990 21621.4 0 -964716 21490.8 0 -963440 21360.1 0 -962164 21229.4 0 -960887 21098.6 0 -959609 20967.7 0 -958330 20836.8 0 -957049 20705.8 0 -955768 20574.8 0 -954486 20443.8 0 -953203 20312.8 0 -951918 20181.8 0 -950633 20050.8 0 -949346 19919.9 0 -948058 19788.9 0 -946769 19658.1 0 -945479 19527.3 0 -944188 19396.6 0 -942895 19265.9 0 -941601 19135.4 0 -940306 19005 0 -939010 18874.7 0 -937712 18744.6 0 -936413 18614.7 0 -935113 18484.9 0 -933811 18355.3 0 -932507 18225.9 0 -931202 18096.8 0 -929895 17967.9 0 -928587 17839.2 0 -927277 17710.9 0 -925966 17582.8 0 -924652 17455 0 -923337 17327.5 0 -922020 17200.4 0 -920701 17073.7 0 -919379 16947.3 0 -918056 16821.2 0 -916731 16695.6 0 -915403 16570.4 0 -914073 16445.7 0 -912740 16321.3 0 -911405 16197.5 0 -910068 16074.1 0 -908728 15951.1 0 -907384 15828.7 0 -906038 15706.8 0 -904689 15585.4 0 -903337 15464.5 0 -901982 15344.1 0 -900623 15224.3 0 -899261 15105 0 -897895 14986.3 0 -896526 14868.1 0 -895152 14750.4 0 -893775 14633.2 0 -892393 14516.6 0 -891007 14400.4 0 -889617 14284.8 0 -888222 14169.7 0 -886822 14055 0 -885418 13940.7 0 -884008 13826.9 0 -882593 13713.4 0 -881172 13600.3 0 -879746 13487.5 0 -878314 13375 0 -876876 13262.7 0 -875432 13150.5 0 -873981 13038.5 0 -872524 12926.5 0 -871061 12814.5 0 -869590 12702.4 0 -868113 12590.2 0 -866628 12477.7 0 -865136 12364.9 0 -863637 12251.7 0 -862129 12137.9 0 -860614 12023.6 0 -859091 11908.6 0 -857560 11792.8 0 -856021 11676 0 -854474 11558.2 0 -852918 11439.3 0 -851353 11319.2 0 -849780 11197.7 0 -848198 11074.7 0 -846608 10950.1 0 -845009 10823.8 0 -843401 10695.7 0 -841784 10565.7 0 -840159 10433.6 0 -838525 10299.3 0 -836883 10162.9 0 -835231 10024 0 -833572 9882.78 0 -831904 9739 0 -830228 9592.62 0 -828543 9443.58 0 -826851 9291.8 0 -1.00133e+06 27506.8 0 -1.00008e+06 27369.8 0 -998832 27232.6 0 -997581 27095 0 -996329 26957.3 0 -995077 26819.2 0 -993823 26681 0 -992569 26542.4 0 -991313 26403.7 0 -990057 26264.7 0 -988800 26125.4 0 -987542 25986 0 -986283 25846.3 0 -985023 25706.4 0 -983763 25566.3 0 -982501 25426 0 -981238 25285.4 0 -979975 25144.7 0 -978711 25003.8 0 -977445 24862.7 0 -976179 24721.4 0 -974912 24579.9 0 -973644 24438.3 0 -972376 24296.5 0 -971106 24154.6 0 -969835 24012.6 0 -968564 23870.4 0 -967291 23728.1 0 -966017 23585.6 0 -964743 23443.1 0 -963468 23300.4 0 -962191 23157.7 0 -960914 23014.9 0 -959636 22872.1 0 -958356 22729.2 0 -957076 22586.2 0 -955795 22443.2 0 -954513 22300.2 0 -953229 22157.2 0 -951945 22014.2 0 -950659 21871.2 0 -949373 21728.2 0 -948085 21585.3 0 -946796 21442.4 0 -945506 21299.6 0 -944215 21156.9 0 -942922 21014.3 0 -941629 20871.8 0 -940334 20729.5 0 -939038 20587.3 0 -937740 20445.2 0 -936441 20303.3 0 -935141 20161.7 0 -933839 20020.2 0 -932536 19879 0 -931231 19738 0 -929925 19597.2 0 -928617 19456.8 0 -927307 19316.7 0 -925996 19176.8 0 -924683 19037.3 0 -923368 18898.2 0 -922052 18759.4 0 -920733 18621 0 -919412 18483.1 0 -918089 18345.5 0 -916764 18208.4 0 -915437 18071.7 0 -914107 17935.5 0 -912776 17799.8 0 -911441 17664.6 0 -910104 17530 0 -908764 17395.8 0 -907422 17262.2 0 -906076 17129.2 0 -904728 16996.7 0 -903376 16864.8 0 -902022 16733.5 0 -900663 16602.7 0 -899302 16472.6 0 -897937 16343 0 -896568 16214.1 0 -895195 16085.7 0 -893818 15957.9 0 -892437 15830.7 0 -891051 15704.1 0 -889662 15578 0 -888267 15452.4 0 -886868 15327.4 0 -885463 15202.8 0 -884054 15078.7 0 -882639 14955.1 0 -881219 14831.8 0 -879793 14708.9 0 -878361 14586.3 0 -876924 14463.9 0 -875480 14341.7 0 -874029 14219.6 0 -872572 14097.6 0 -871109 13975.6 0 -869638 13853.6 0 -868160 13731.3 0 -866676 13608.8 0 -865183 13485.9 0 -863683 13362.6 0 -862176 13238.8 0 -860660 13114.3 0 -859137 12989 0 -857605 12862.9 0 -856065 12735.7 0 -854517 12607.5 0 -852960 12478 0 -851395 12347.1 0 -849821 12214.7 0 -848238 12080.8 0 -846647 11945.1 0 -845046 11807.5 0 -843437 11667.9 0 -841820 11526.2 0 -840193 11382.2 0 -838558 11235.9 0 -836914 11087.2 0 -835261 10935.9 0 -833600 10781.9 0 -831931 10625.1 0 -830253 10465.5 0 -828567 10303 0 -826874 10137.5 0 -1.00137e+06 29799.3 0 -1.00012e+06 29650.8 0 -998871 29502.1 0 -997619 29353.1 0 -996367 29203.8 0 -995114 29054.2 0 -993860 28904.4 0 -992605 28754.3 0 -991350 28603.9 0 -990093 28453.3 0 -988835 28302.4 0 -987577 28151.3 0 -986318 27999.9 0 -985057 27848.3 0 -983796 27696.4 0 -982534 27544.3 0 -981271 27392 0 -980008 27239.5 0 -978743 27086.7 0 -977477 26933.8 0 -976211 26780.7 0 -974944 26627.3 0 -973675 26473.8 0 -972406 26320.2 0 -971136 26166.3 0 -969865 26012.3 0 -968594 25858.2 0 -967321 25703.9 0 -966047 25549.5 0 -964773 25395 0 -963497 25240.4 0 -962221 25085.7 0 -960943 24930.9 0 -959665 24776 0 -958385 24621.1 0 -957105 24466.1 0 -955824 24311.1 0 -954541 24156.1 0 -953258 24001 0 -951973 23846 0 -950688 23690.9 0 -949401 23535.9 0 -9