<?xml version="1.0"?> 
<VTKFile type="StructuredGrid" version="0.1"> 
<StructuredGrid WholeExtent="0 127 0 127 0 0"> 
<Piece Extent="0 127 0 127 0 0"> 
<PointData>
<DataArray type="Float32" Name="E" format="ascii" NumberOfComponents="3"> 
-923329 -0.00765133 0 -923322 -171.041 0 -923299 -341.676 0 -923261 -511.491 0 -923208 -680.081 0 -923139 -847.037 0 -923055 -1011.95 0 -922956 -1174.4 0 -922841 -1333.99 0 -922710 -1490.29 0 -922564 -1642.88 0 -922402 -1791.35 0 -922224 -1935.27 0 -922030 -2074.21 0 -921820 -2207.74 0 -921594 -2335.42 0 -921350 -2456.82 0 -921090 -2571.48 0 -920814 -2678.97 0 -920519 -2778.83 0 -920208 -2870.59 0 -919878 -2953.79 0 -919531 -3027.97 0 -919165 -3092.65 0 -918781 -3147.34 0 -918377 -3191.57 0 -917954 -3224.83 0 -917511 -3246.64 0 -917048 -3256.48 0 -916565 -3253.86 0 -916060 -3238.25 0 -915534 -3209.13 0 -914985 -3165.99 0 -914414 -3108.3 0 -913819 -3035.52 0 -913201 -2947.11 0 -912557 -2842.54 0 -911889 -2721.27 0 -911194 -2582.75 0 -910473 -2426.45 0 -909724 -2251.81 0 -908946 -2058.31 0 -908139 -1845.39 0 -907301 -1612.54 0 -906432 -1359.21 0 -905530 -1084.9 0 -904595 -789.085 0 -903625 -471.278 0 -902619 -130.992 0 -901575 232.24 0 -900493 618.863 0 -899371 1029.3 0 -898207 1463.96 0 -897000 1923.19 0 -895747 2407.34 0 -894449 2916.71 0 -893102 3451.54 0 -891704 4012.06 0 -890255 4598.41 0 -888751 5210.69 0 -887191 5848.94 0 -885573 6513.13 0 -883894 7203.16 0 -882151 7918.83 0 -880343 8659.87 0 -878467 9425.92 0 -876521 10216.5 0 -874501 11031 0 -872405 11868.8 0 -870229 12729 0 -867972 13610.7 0 -865631 14512.8 0 -863201 15434 0 -860680 16373 0 -858065 17328.2 0 -855353 18297.8 0 -852540 19280.1 0 -849624 20272.8 0 -846600 21273.8 0 -843465 22280.6 0 -840216 23290.6 0 -836850 24300.8 0 -833362 25308.3 0 -829751 26309.9 0 -826012 27301.9 0 -822141 28280.9 0 -818136 29242.8 0 -813993 30183.7 0 -809709 31099.3 0 -805279 31985.1 0 -800701 32836.4 0 -795972 33648.4 0 -791087 34415.9 0 -786044 35133.6 0 -780838 35796.2 0 -775465 36398 0 -769923 36932.9 0 -764207 37395 0 -758313 37777.8 0 -752235 38074.8 0 -745970 38279.1 0 -739511 38383.4 0 -732854 38380.2 0 -725990 38261.4 0 -718912 38018.6 0 -711612 37642.6 0 -704081 37123.5 0 -696305 36450.6 0 -688273 35612.1 0 -679969 34594.7 0 -671375 33383.6 0 -662468 31961.6 0 -653222 30309.1 0 -643606 28402.8 0 -633581 26215 0 -623098 23711.7 0 -612098 20851.3 0 -600503 17579.6 0 -588212 13831 0 -575092 9502.43 0 -560953 4497.94 0 -545534 -1459.08 0 -528434 -8385.03 0 -508921 -17495.8 0 -486187 -27524.9 0 -455932 -46104.4 0 -417625 -62384.8 0 -259816 -160755 0 -923261 -0.00769663 0 -923254 -164.59 0 -923231 -328.771 0 -923194 -492.127 0 -923141 -654.251 0 -923073 -814.731 0 -922991 -973.153 0 -922893 -1129.1 0 -922779 -1282.17 0 -922651 -1431.92 0 -922507 -1577.95 0 -922347 -1719.82 0 -922172 -1857.11 0 -921981 -1989.39 0 -921774 -2116.23 0 -921550 -2237.17 0 -921311 -2351.79 0 -921055 -2459.63 0 -920782 -2560.23 0 -920492 -2653.15 0 -920185 -2737.91 0 -919860 -2814.05 0 -919518 -2881.09 0 -919157 -2938.55 0 -918778 -2985.95 0 -918381 -3022.79 0 -917964 -3048.58 0 -917528 -3062.8 0 -917072 -3064.95 0 -916595 -3054.52 0 -916098 -3030.97 0 -915579 -2993.79 0 -915039 -2942.44 0 -914476 -2876.38 0 -913890 -2795.06 0 -913280 -2697.95 0 -912646 -2584.49 0 -911987 -2454.12 0 -911303 -2306.3 0 -910592 -2140.46 0 -909854 -1956.05 0 -909087 -1752.51 0 -908292 -1529.29 0 -907466 -1285.83 0 -906609 -1021.6 0 -905721 -736.039 0 -904799 -428.634 0 -903842 -98.8585 0 -902850 253.793 0 -901821 629.811 0 -900754 1029.67 0 -899647 1453.82 0 -898499 1902.68 0 -897308 2376.67 0 -896073 2876.13 0 -894791 3401.4 0 -893462 3952.77 0 -892083 4530.49 0 -890652 5134.75 0 -889167 5765.68 0 -887627 6423.37 0 -886028 7107.82 0 -884369 7818.97 0 -882648 8556.67 0 -880861 9320.71 0 -879006 10110.7 0 -877081 10926.4 0 -875083 11767 0 -873009 12632.1 0 -870857 13520.8 0 -868623 14432.2 0 -866304 15365.3 0 -863898 16319 0 -861400 17291.7 0 -858809 18282.2 0 -856120 19288.6 0 -853331 20309.2 0 -850438 21341.9 0 -847437 22384.5 0 -844325 23434.6 0 -841099 24489.7 0 -837756 25546.8 0 -834291 26603.1 0 -830701 27655.2 0 -826983 28699.9 0 -823133 29733.5 0 -819148 30752.1 0 -815025 31751.8 0 -810759 32728.3 0 -806347 33677.3 0 -801787 34594 0 -797073 35473.7 0 -792204 36311.3 0 -787174 37101.8 0 -781981 37839.6 0 -776621 38519.3 0 -771089 39135.1 0 -765383 39680.9 0 -759496 40150.7 0 -753426 40538 0 -747167 40836.2 0 -740713 41038.4 0 -734058 41137.3 0 -727196 41125.5 0 -720119 40994.8 0 -712819 40736.8 0 -705285 40342.3 0 -697507 39801.5 0 -689471 39103.7 0 -681161 38237 0 -672559 37188.2 0 -663644 35942.3 0 -654389 34482.1 0 -644762 32787.9 0 -634725 30836.1 0 -624228 28598.5 0 -613212 26041.1 0 -601600 23120.4 0 -589289 19784.3 0 -576145 15957.1 0 -561982 11558.1 0 -546530 6421.61 0 -529394 445.779 0 -509882 -6858.45 0 -486935 -15507.7 0 -457713 -27152.8 0 -416378 -42064.8 0 -335214 -57963.6 0 -923195 -0.00774218 0 -923188 -158.228 0 -923166 -316.046 0 -923129 -473.033 0 -923077 -628.781 0 -923010 -782.875 0 -922929 -934.899 0 -922832 -1084.44 0 -922721 -1231.07 0 -922594 -1374.37 0 -922452 -1513.92 0 -922295 -1649.3 0 -922122 -1780.06 0 -921934 -1905.78 0 -921730 -2026.02 0 -921510 -2140.33 0 -921274 -2248.26 0 -921021 -2349.38 0 -920752 -2443.21 0 -920467 -2529.29 0 -920164 -2607.16 0 -919844 -2676.35 0 -919507 -2736.36 0 -919152 -2786.73 0 -918779 -2826.95 0 -918387 -2856.52 0 -917977 -2874.95 0 -917547 -2881.72 0 -917098 -2876.31 0 -916628 -2858.19 0 -916138 -2826.85 0 -915627 -2781.74 0 -915095 -2722.31 0 -914540 -2648.03 0 -913963 -2558.33 0 -913363 -2452.66 0 -912738 -2330.47 0 -912089 -2191.17 0 -911415 -2034.2 0 -910715 -1859 0 -909987 -1664.99 0 -909232 -1451.6 0 -908448 -1218.25 0 -907635 -964.382 0 -906791 -689.426 0 -905915 -392.825 0 -905006 -74.0274 0 -904064 267.509 0 -903086 632.314 0 -902072 1020.9 0 -901020 1433.78 0 -899929 1871.41 0 -898796 2334.26 0 -897622 2822.75 0 -896404 3337.28 0 -895140 3878.22 0 -893828 4445.88 0 -892467 5040.55 0 -891055 5662.46 0 -889590 6311.79 0 -888069 6988.65 0 -886491 7693.09 0 -884852 8425.1 0 -883152 9184.58 0 -881386 9971.34 0 -879553 10785.1 0 -877650 11625.5 0 -875675 12492.1 0 -873624 13384.2 0 -871495 14301.1 0 -869284 15242 0 -866989 16205.9 0 -864606 17191.7 0 -862133 18198 0 -859566 19223.5 0 -856901 20266.5 0 -854136 21325.2 0 -851266 22397.7 0 -848290 23481.7 0 -845202 24575 0 -842000 25674.9 0 -838679 26778.8 0 -835237 27883.7 0 -831670 28986.5 0 -827975 30083.7 0 -824147 31171.8 0 -820183 32247.1 0 -816080 33305.5 0 -811833 34342.9 0 -807441 35355 0 -802898 36337.1 0 -798202 37284.6 0 -793349 38192.4 0 -788334 39055.5 0 -783156 39868.6 0 -777809 40626.3 0 -772289 41322.8 0 -766593 41952.4 0 -760717 42509 0 -754655 42986.5 0 -748403 43378.5 0 -741956 43678.4 0 -735306 43879.2 0 -728449 43973.8 0 -721375 43954.7 0 -714077 43814 0 -706544 43543.3 0 -698766 43133.6 0 -690730 42575.2 0 -682419 41857.5 0 -673816 40969 0 -664898 39896.6 0 -655641 38625.7 0 -646012 37139.6 0 -635973 35418.8 0 -625477 33440.6 0 -614462 31177.8 0 -602853 28597.3 0 -590551 25659.2 0 -577423 22311 0 -563288 18492.6 0 -547888 14111 0 -530837 9076.53 0 -511525 3218.04 0 -488910 -3607.36 0 -460914 -11392.6 0 -423188 -20264.2 0 -365415 -19648.2 0 -923132 -0.0077856 0 -923124 -151.957 0 -923103 -303.501 0 -923066 -454.21 0 -923015 -603.672 0 -922949 -751.471 0 -922869 -897.189 0 -922774 -1040.4 0 -922664 -1180.7 0 -922539 -1317.65 0 -922400 -1450.82 0 -922245 -1579.79 0 -922075 -1704.12 0 -921889 -1823.37 0 -921688 -1937.11 0 -921471 -2044.89 0 -921239 -2146.25 0 -920990 -2240.74 0 -920726 -2327.9 0 -920444 -2407.26 0 -920146 -2478.35 0 -919831 -2540.69 0 -919499 -2593.8 0 -919149 -2637.18 0 -918782 -2670.34 0 -918396 -2692.77 0 -917992 -2703.97 0 -917569 -2703.4 0 -917126 -2690.56 0 -916664 -2664.9 0 -916182 -2625.89 0 -915678 -2572.99 0 -915154 -2505.63 0 -914608 -2423.28 0 -914040 -2325.35 0 -913448 -2211.28 0 -912834 -2080.51 0 -912194 -1932.44 0 -911530 -1766.5 0 -910841 -1582.11 0 -910124 -1378.67 0 -909381 -1155.6 0 -908609 -912.318 0 -907807 -648.227 0 -906976 -362.748 0 -906113 -55.3017 0 -905218 274.683 0 -904289 627.771 0 -903326 1004.51 0 -902327 1405.45 0 -901290 1831.11 0 -900214 2282 0 -899099 2758.59 0 -897941 3261.36 0 -896740 3790.72 0 -895493 4347.07 0 -894200 4930.77 0 -892858 5542.14 0 -891465 6181.44 0 -890019 6848.89 0 -888518 7544.66 0 -886960 8268.83 0 -885342 9021.43 0 -883663 9802.4 0 -881919 10611.6 0 -880109 11448.8 0 -878228 12313.7 0 -876276 13205.9 0 -874248 14124.8 0 -872142 15069.7 0 -869956 16039.8 0 -867685 17034.3 0 -865326 18051.9 0 -862877 19091.6 0 -860335 20151.9 0 -857695 21231.2 0 -854954 22327.8 0 -852110 23439.8 0 -849158 24565.1 0 -846095 25701.4 0 -842917 26846.1 0 -839621 27996.6 0 -836203 29150 0 -832659 30303.2 0 -828987 31452.8 0 -825181 32595.4 0 -821239 33727.2 0 -817158 34844.4 0 -812932 35942.7 0 -808560 37017.8 0 -804036 38065.4 0 -799358 39080.6 0 -794522 40058.6 0 -789524 40994.4 0 -784361 41882.7 0 -779029 42718.3 0 -773523 43495.5 0 -767839 44208.8 0 -761974 44852.2 0 -755923 45419.7 0 -749680 45905.3 0 -743241 46302.5 0 -736598 46604.8 0 -729747 46805.5 0 -722679 46897.4 0 -715385 46873.3 0 -707857 46725.4 0 -700083 46445.5 0 -692049 46025.1 0 -683742 45454.7 0 -675142 44724.2 0 -666228 43822.6 0 -656976 42737.4 0 -647353 41455 0 -637322 39959.7 0 -626837 38233.6 0 -615838 36256.2 0 -604253 34003.1 0 -591984 31446.5 0 -578904 28552.5 0 -564843 25283.6 0 -549556 21593.9 0 -532692 17441.7 0 -513705 12798.8 0 -491719 7671.45 0 -465138 2512.24 0 -431227 -1908.07 0 -386243 2789.88 0 -923071 -0.00782737 0 -923063 -145.776 0 -923042 -291.137 0 -923006 -435.658 0 -922956 -578.926 0 -922891 -720.522 0 -922812 -860.024 0 -922719 -997.012 0 -922610 -1131.06 0 -922487 -1261.74 0 -922350 -1388.63 0 -922197 -1511.29 0 -922030 -1629.29 0 -921847 -1742.18 0 -921649 -1849.52 0 -921436 -1950.86 0 -921207 -2045.74 0 -920962 -2133.72 0 -920701 -2214.31 0 -920424 -2287.06 0 -920131 -2351.48 0 -919821 -2407.09 0 -919494 -2453.4 0 -919150 -2489.92 0 -918788 -2516.14 0 -918408 -2531.55 0 -918010 -2535.64 0 -917593 -2527.87 0 -917158 -2507.72 0 -916703 -2474.66 0 -916228 -2428.12 0 -915732 -2367.57 0 -915216 -2292.43 0 -914679 -2202.14 0 -914119 -2096.14 0 -913537 -1973.83 0 -912932 -1834.64 0 -912303 -1677.97 0 -911649 -1503.22 0 -910970 -1309.81 0 -910265 -1097.13 0 -909532 -864.568 0 -908772 -611.53 0 -907983 -337.409 0 -907165 -41.6039 0 -906315 276.484 0 -905434 617.448 0 -904519 981.873 0 -903570 1370.34 0 -902586 1783.4 0 -901565 2221.62 0 -900505 2685.53 0 -899405 3175.63 0 -898265 3692.42 0 -897081 4236.35 0 -895852 4807.86 0 -894577 5407.34 0 -893254 6035.14 0 -891880 6691.57 0 -890454 7376.88 0 -888973 8091.28 0 -887436 8834.89 0 -885840 9607.8 0 -884182 10410 0 -882460 11241.4 0 -880672 12101.8 0 -878815 12990.9 0 -876886 13908.4 0 -874882 14853.7 0 -872800 15826.3 0 -870638 16825.4 0 -868391 17850.1 0 -866058 18899.4 0 -863634 19972.2 0 -861117 21067 0 -858502 22182.4 0 -855787 23316.7 0 -852968 24468.1 0 -850041 25634.4 0 -847004 26813.4 0 -843851 28002.7 0 -840580 29199.7 0 -837187 30401.5 0 -833667 31605 0 -830019 32806.9 0 -826237 34003.9 0 -822318 35192.2 0 -818259 36367.9 0 -814055 37527 0 -809704 38665.3 0 -805200 39778.2 0 -800542 40861.1 0 -795724 41909.3 0 -790744 42917.7 0 -785598 43881.3 0 -780281 44794.7 0 -774790 45652.6 0 -769120 46449.4 0 -763268 47179.5 0 -757228 47836.9 0 -750996 48415.8 0 -744567 48910.1 0 -737934 49313.6 0 -731091 49619.7 0 -724030 49822 0 -716744 49913.6 0 -709223 49887.5 0 -701455 49736.2 0 -693428 49452.2 0 -685128 49027 0 -676536 48452.2 0 -667631 47718.2 0 -658389 46815 0 -648780 45731.5 0 -638766 44455.6 0 -628303 42973.9 0 -617334 41271.7 0 -605788 39332.7 0 -593574 37139.5 0 -580571 34673.7 0 -566619 31918.5 0 -551495 28862 0 -534886 25507.9 0 -516320 21912.1 0 -495083 18207.1 0 -470012 14992.5 0 -439418 13385 0 -401705 19041.3 0 -923012 -0.00786774 0 -923005 -139.686 0 -922984 -278.955 0 -922948 -417.379 0 -922899 -554.545 0 -922835 -690.028 0 -922758 -823.409 0 -922665 -954.261 0 -922559 -1082.16 0 -922438 -1206.67 0 -922302 -1327.37 0 -922152 -1443.82 0 -921987 -1555.58 0 -921807 -1662.2 0 -921613 -1763.24 0 -921403 -1858.25 0 -921177 -1946.77 0 -920936 -2028.33 0 -920680 -2102.46 0 -920407 -2168.7 0 -920118 -2226.56 0 -919813 -2275.56 0 -919491 -2315.19 0 -919152 -2344.96 0 -918796 -2364.36 0 -918422 -2372.87 0 -918031 -2369.98 0 -917621 -2355.14 0 -917192 -2327.82 0 -916744 -2287.48 0 -916277 -2233.55 0 -915789 -2165.49 0 -915281 -2082.71 0 -914752 -1984.65 0 -914202 -1870.72 0 -913629 -1740.33 0 -913033 -1592.88 0 -912414 -1427.77 0 -911771 -1244.39 0 -911102 -1042.14 0 -910408 -820.388 0 -909687 -578.523 0 -908939 -315.924 0 -908163 -31.9689 0 -907357 273.962 0 -906521 602.486 0 -905653 954.217 0 -904753 1329.76 0 -903818 1729.72 0 -902849 2154.69 0 -901843 2605.23 0 -900800 3081.92 0 -899717 3585.28 0 -898593 4115.85 0 -897427 4674.1 0 -896216 5260.51 0 -894960 5875.5 0 -893655 6519.47 0 -892301 7192.74 0 -890895 7895.64 0 -889435 8628.38 0 -887919 9391.16 0 -886344 10184.1 0 -884708 11007.2 0 -883009 11860.4 0 -881244 12743.7 0 -879410 13656.8 0 -877505 14599.3 0 -875525 15570.8 0 -873467 16570.8 0 -871330 17598.6 0 -869109 18653.3 0 -866801 19734 0 -864402 20839.5 0 -861911 21968.6 0 -859322 23119.9 0 -856633 24291.6 0 -853841 25482.1 0 -850940 26689.2 0 -847928 27910.8 0 -844802 29144.6 0 -841556 30387.8 0 -838189 31637.8 0 -834695 32891.4 0 -831071 34145.6 0 -827314 35396.8 0 -823419 36641.5 0 -819383 37875.8 0 -815202 39095.6 0 -810872 40296.9 0 -806391 41475.1 0 -801753 42625.7 0 -796955 43744 0 -791994 44825 0 -786865 45863.7 0 -781565 46855 0 -776090 47793.5 0 -770436 48673.8 0 -764598 49490.3 0 -758571 50237.4 0 -752352 50909.4 0 -745934 51500.5 0 -739312 52004.5 0 -732479 52415.6 0 -725429 52727.6 0 -718152 52934 0 -710640 53028.6 0 -702882 53004.6 0 -694865 52855.1 0 -686576 52573.2 0 -677996 52151.3 0 -669105 51581.8 0 -659880 50856.5 0 -650291 49966.9 0 -640302 48904 0 -629871 47658.5 0 -618943 46221 0 -607451 44582 0 -595308 42733.2 0 -582404 40669.2 0 -568590 38390.3 0 -553667 35910.2 0 -537358 33268.2 0 -519268 30570.1 0 -498828 28030 0 -475200 26263 0 -447362 26421.6 0 -414679 32302.4 0 -922956 -0.00790456 0 -922949 -133.687 0 -922928 -266.955 0 -922893 -399.374 0 -922845 -530.529 0 -922782 -659.993 0 -922705 -787.344 0 -922615 -912.154 0 -922510 -1034 0 -922391 -1152.44 0 -922257 -1267.04 0 -922109 -1377.37 0 -921947 -1482.99 0 -921770 -1583.45 0 -921578 -1678.29 0 -921372 -1767.07 0 -921150 -1849.32 0 -920913 -1924.57 0 -920660 -1992.36 0 -920392 -2052.2 0 -920108 -2103.61 0 -919808 -2146.1 0 -919491 -2179.17 0 -919157 -2202.31 0 -918807 -2215.01 0 -918439 -2216.75 0 -918054 -2207 0 -917651 -2185.22 0 -917229 -2150.86 0 -916788 -2103.38 0 -916328 -2042.21 0 -915849 -1966.78 0 -915349 -1876.51 0 -914829 -1770.82 0 -914287 -1649.12 0 -913723 -1510.8 0 -913137 -1355.26 0 -912528 -1181.88 0 -911895 -990.045 0 -911238 -779.123 0 -910555 -548.488 0 -909846 -297.505 0 -909110 -25.5369 0 -908346 268.054 0 -907553 583.907 0 -906730 922.658 0 -905876 1284.94 0 -904990 1671.39 0 -904070 2082.62 0 -903116 2519.25 0 -902126 2981.89 0 -901099 3471.11 0 -900033 3987.49 0 -898926 4531.57 0 -897778 5103.89 0 -896585 5704.93 0 -895348 6335.16 0 -894063 6995.01 0 -892728 7684.86 0 -891342 8405.05 0 -889903 9155.85 0 -888408 9937.5 0 -886855 10750.1 0 -885242 11593.9 0 -883565 12468.7 0 -881824 13374.6 0 -880013 14311.2 0 -878132 15278.5 0 -876177 16275.9 0 -874144 17303 0 -872032 18359.1 0 -869836 19443.5 0 -867554 20555.3 0 -865183 21693.4 0 -862717 22856.5 0 -860156 24043.3 0 -857494 25252.3 0 -854727 26481.6 0 -851854 27729.3 0 -848869 28993.2 0 -845769 30271.2 0 -842550 31560.5 0 -839209 32858.5 0 -835741 34162.2 0 -832143 35468.4 0 -828411 36773.7 0 -824541 38074.7 0 -820530 39367.4 0 -816373 40647.9 0 -812066 41912.1 0 -807607 43155.6 0 -802991 44373.8 0 -798214 45562.1 0 -793273 46715.7 0 -788163 47829.6 0 -782882 48898.6 0 -777424 49917.6 0 -771786 50881.2 0 -765964 51784 0 -759952 52620.6 0 -753747 53385.4 0 -747342 54072.8 0 -740733 54677.1 0 -733912 55192.5 0 -726874 55613.3 0 -719609 55933.7 0 -712109 56147.7 0 -704363 56249.5 0 -696359 56232.9 0 -688084 56092 0 -679520 55820.4 0 -670648 55411.9 0 -661444 54860.4 0 -651881 54159.4 0 -641924 53302.9 0 -631533 52285.2 0 -620656 51101.3 0 -609230 49747.9 0 -597175 48224.5 0 -584387 46535.9 0 -570733 44696.3 0 -556035 42738.1 0 -540056 40726 0 -522468 38795.2 0 -502825 37199.1 0 -480531 36520.8 0 -454969 37801.1 0 -425928 43663.9 0 -922902 -0.00793952 0 -922895 -127.779 0 -922875 -255.138 0 -922840 -381.645 0 -922792 -506.88 0 -922731 -630.417 0 -922655 -751.832 0 -922566 -870.693 0 -922463 -986.572 0 -922346 -1099.03 0 -922215 -1207.64 0 -922069 -1311.96 0 -921910 -1411.53 0 -921735 -1505.92 0 -921547 -1594.67 0 -921343 -1677.32 0 -921125 -1753.4 0 -920892 -1822.46 0 -920644 -1884 0 -920380 -1937.56 0 -920100 -1982.63 0 -919805 -2018.73 0 -919493 -2045.35 0 -919165 -2061.98 0 -918821 -2068.11 0 -918459 -2063.2 0 -918080 -2046.71 0 -917683 -2018.12 0 -917268 -1976.86 0 -916835 -1922.38 0 -916383 -1854.1 0 -915911 -1771.45 0 -915420 -1673.84 0 -914908 -1560.68 0 -914375 -1431.36 0 -913821 -1285.28 0 -913245 -1121.81 0 -912645 -940.328 0 -912023 -740.203 0 -911376 -520.795 0 -910705 -281.46 0 -910007 -21.5475 0 -909283 259.594 0 -908532 562.622 0 -907752 888.19 0 -906943 1236.96 0 -906103 1609.58 0 -905231 2006.7 0 -904326 2428.98 0 -903388 2877.04 0 -902413 3351.52 0 -901402 3853.03 0 -900353 4382.17 0 -899264 4939.52 0 -898133 5525.63 0 -896959 6141.04 0 -895741 6786.23 0 -894475 7461.69 0 -893161 8167.82 0 -891795 8905.01 0 -890377 9673.58 0 -888904 10473.8 0 -887373 11305.9 0 -885782 12169.9 0 -884129 13066 0 -882411 13994.1 0 -880625 14954.1 0 -878768 15945.8 0 -876838 16968.8 0 -874831 18022.6 0 -872744 19106.8 0 -870575 20220.6 0 -868319 21363.2 0 -865974 22533.5 0 -863536 23730.3 0 -861002 24952.5 0 -858367 26198.3 0 -855629 27466.2 0 -852783 28754.2 0 -849825 30060.3 0 -846753 31382.3 0 -843562 32717.5 0 -840248 34063.3 0 -836807 35416.8 0 -833236 36774.9 0 -829530 38134.2 0 -825686 39491.3 0 -821700 40842.4 0 -817567 42183.5 0 -813285 43510.5 0 -808849 44819.1 0 -804256 46104.9 0 -799501 47363.2 0 -794581 48589.3 0 -789492 49778.2 0 -784230 50924.9 0 -778791 52024.2 0 -773171 53071 0 -767365 54060 0 -761370 54985.9 0 -755180 55843.1 0 -748791 56626.5 0 -742196 57330.4 0 -735389 57949.5 0 -728365 58478.5 0 -721114 58911.8 0 -713628 59244.1 0 -705897 59470.1 0 -697909 59584.6 0 -689651 59582.3 0 -681106 59458.2 0 -672257 59207.4 0 -663079 58825.2 0 -653548 58307.5 0 -643630 57650.7 0 -633286 56852.1 0 -622468 55911 0 -611118 54828.8 0 -599161 53611.7 0 -586503 52272.6 0 -573025 50836.5 0 -558570 49349.2 0 -542936 47891.8 0 -525855 46614.7 0 -506982 45783.2 0 -485896 45927 0 -462230 47939.1 0 -435977 53691.9 0 -922850 -0.00797381 0 -922844 -121.964 0 -922823 -243.505 0 -922790 -364.191 0 -922743 -483.599 0 -922682 -601.303 0 -922608 -716.874 0 -922520 -829.881 0 -922419 -939.893 0 -922303 -1046.47 0 -922174 -1149.18 0 -922031 -1247.57 0 -921874 -1341.21 0 -921703 -1429.63 0 -921517 -1512.38 0 -921317 -1589 0 -921103 -1659.03 0 -920873 -1721.99 0 -920629 -1777.4 0 -920370 -1824.78 0 -920095 -1863.63 0 -919804 -1893.45 0 -919498 -1913.75 0 -919175 -1923.99 0 -918837 -1923.66 0 -918481 -1912.22 0 -918108 -1889.14 0 -917718 -1853.86 0 -917310 -1805.83 0 -916884 -1744.49 0 -916440 -1669.24 0 -915976 -1579.51 0 -915493 -1474.71 0 -914990 -1354.23 0 -914466 -1217.46 0 -913921 -1063.77 0 -913354 -892.541 0 -912766 -703.131 0 -912154 -494.896 0 -911518 -267.183 0 -910858 -19.3333 0 -910172 249.316 0 -909460 539.435 0 -908721 851.696 0 -907955 1186.77 0 -907159 1545.34 0 -906333 1928.08 0 -905476 2335.65 0 -904586 2768.74 0 -903663 3228 0 -902705 3714.08 0 -901710 4227.63 0 -900678 4769.27 0 -899606 5339.61 0 -898493 5939.25 0 -897338 6568.74 0 -896139 7228.62 0 -894893 7919.4 0 -893599 8641.52 0 -892254 9395.41 0 -890857 10181.4 0 -889406 10999.9 0 -887898 11851.1 0 -886330 12735.1 0 -884700 13652.2 0 -883006 14602.2 0 -881244 15585.2 0 -879412 16600.9 0 -877508 17649.2 0 -875527 18729.5 0 -873466 19841.5 0 -871324 20984.3 0 -869095 22157.4 0 -866778 23359.6 0 -864367 24589.9 0 -861860 25847 0 -859254 27129.5 0 -856544 28435.7 0 -853726 29763.8 0 -850797 31111.8 0 -847753 32477.4 0 -844590 33858.3 0 -841304 35251.7 0 -837891 36654.9 0 -834348 38064.7 0 -830669 39477.9 0 -826852 40891 0 -822892 42300.2 0 -818785 43701.8 0 -814528 45091.6 0 -810117 46465.3 0 -805548 47818.6 0 -800816 49146.8 0 -795918 50445.2 0 -790851 51709.1 0 -785609 52933.3 0 -780190 54112.9 0 -774589 55242.8 0 -768802 56317.7 0 -762825 57332.5 0 -756652 58281.9 0 -750279 59160.8 0 -743700 59963.9 0 -736910 60686.1 0 -729901 61322.3 0 -722666 61867.5 0 -715196 62316.9 0 -707483 62665.7 0 -699513 62909.2 0 -691275 63043.3 0 -682754 63063.8 0 -673930 62967.1 0 -664783 62750 0 -655288 62410.1 0 -645413 61946.1 0 -635123 61358.1 0 -624372 60648.7 0 -613106 59823.7 0 -601257 58894.2 0 -588739 57879.8 0 -575447 56813.4 0 -561246 55749.7 0 -545962 54779.7 0 -529380 54059.1 0 -511235 53848.2 0 -491233 54617.9 0 -469162 57115.8 0 -445109 62720 0 -922801 -0.00800694 0 -922794 -116.241 0 -922775 -232.057 0 -922742 -347.014 0 -922695 -460.688 0 -922636 -572.652 0 -922563 -682.473 0 -922476 -789.721 0 -922377 -893.959 0 -922263 -994.751 0 -922136 -1091.66 0 -921996 -1184.23 0 -921841 -1272.02 0 -921673 -1354.57 0 -921490 -1431.43 0 -921294 -1502.13 0 -921083 -1566.21 0 -920857 -1623.18 0 -920617 -1672.56 0 -920362 -1713.88 0 -920092 -1746.62 0 -919806 -1770.28 0 -919505 -1784.36 0 -919188 -1788.33 0 -918855 -1781.67 0 -918505 -1763.83 0 -918139 -1734.28 0 -917756 -1692.46 0 -917355 -1637.79 0 -916936 -1569.72 0 -916499 -1487.65 0 -916043 -1391 0 -915569 -1279.15 0 -915074 -1151.51 0 -914559 -1007.43 0 -914024 -846.307 0 -913467 -667.485 0 -912888 -470.318 0 -912287 -254.149 0 -911662 -18.3134 0 -911013 237.862 0 -910340 515.055 0 -909640 813.952 0 -908914 1135.24 0 -908160 1479.61 0 -907378 1847.77 0 -906566 2240.4 0 -905724 2658.19 0 -904849 3101.85 0 -903942 3572.06 0 -903000 4069.5 0 -902022 4594.83 0 -901007 5148.71 0 -899953 5731.78 0 -898858 6344.67 0 -897722 6987.97 0 -896542 7662.24 0 -895316 8368.04 0 -894042 9105.85 0 -892719 9876.14 0 -891343 10679.3 0 -889914 11515.7 0 -888428 12385.7 0 -886884 13289.4 0 -885278 14227.1 0 -883608 15198.7 0 -881871 16204.4 0 -880065 17243.9 0 -878186 18317 0 -876231 19423.5 0 -874198 20562.9 0 -872083 21734.5 0 -869882 22937.6 0 -867592 24171.4 0 -865210 25434.8 0 -862732 26726.6 0 -860154 28045.4 0 -857473 29389.7 0 -854684 30757.6 0 -851784 32147.2 0 -848769 33556.3 0 -845635 34982.6 0 -842378 36423.5 0 -838994 37876.1 0 -835479 39337.4 0 -831829 40804.3 0 -828039 42273.2 0 -824107 43740.5 0 -820027 45202.4 0 -815797 46654.8 0 -811411 48093.5 0 -806866 49514.2 0 -802159 50912.2 0 -797285 52283 0 -792240 53621.7 0 -787021 54923.3 0 -781623 56183.1 0 -776042 57395.8 0 -770275 58556.4 0 -764317 59659.9 0 -758162 60701.2 0 -751807 61675.2 0 -745246 62576.9 0 -738473 63401.5 0 -731482 64144.1 0 -724265 64800.2 0 -716814 65365.4 0 -709119 65835.3 0 -701171 66206.1 0 -692956 66474.1 0 -684460 66636.3 0 -675665 66690.1 0 -666553 66633.7 0 -657097 66466.2 0 -647271 66188.3 0 -637040 65802.4 0 -626361 65314 0 -615186 64732.2 0 -603451 64072.5 0 -591082 63359.2 0 -577983 62630.8 0 -564039 61947.8 0 -549104 61405.8 0 -533005 61159.2 0 -515541 61454.3 0 -496507 62704 0 -475790 65529.2 0 -453519 70969.6 0 -922754 -0.00803679 0 -922748 -110.61 0 -922728 -220.793 0 -922696 -330.114 0 -922650 -438.148 0 -922591 -544.464 0 -922520 -648.631 0 -922435 -750.213 0 -922337 -848.774 0 -922225 -943.875 0 -922101 -1035.07 0 -921962 -1121.92 0 -921811 -1203.97 0 -921645 -1280.75 0 -921466 -1351.82 0 -921272 -1416.71 0 -921065 -1474.94 0 -920843 -1526.03 0 -920607 -1569.5 0 -920357 -1604.85 0 -920091 -1631.6 0 -919810 -1649.22 0 -919515 -1657.2 0 -919203 -1655.02 0 -918876 -1642.15 0 -918532 -1618.05 0 -918172 -1582.15 0 -917796 -1533.91 0 -917402 -1472.75 0 -916990 -1398.09 0 -916561 -1309.35 0 -916113 -1205.91 0 -915647 -1087.17 0 -915161 -952.517 0 -914656 -801.307 0 -914130 -632.905 0 -913583 -446.659 0 -913014 -241.91 0 -912423 -17.9877 0 -911810 225.786 0 -911172 490.097 0 -910510 775.638 0 -909823 1083.11 0 -909110 1413.22 0 -908370 1766.68 0 -907601 2144.19 0 -906803 2546.49 0 -905975 2974.28 0 -905116 3428.27 0 -904224 3909.18 0 -903298 4417.72 0 -902337 4954.57 0 -901339 5520.43 0 -900303 6115.96 0 -899227 6741.82 0 -898110 7398.63 0 -896949 8087.01 0 -895743 8807.53 0 -894490 9560.72 0 -893188 10347.1 0 -891835 11167.1 0 -890428 12021.1 0 -888966 12909.5 0 -887445 13832.6 0 -885863 14790.5 0 -884218 15783.5 0 -882506 16811.4 0 -880726 17874.3 0 -878873 18972.1 0 -876945 20104.3 0 -874939 21270.7 0 -872851 22470.8 0 -870679 23703.7 0 -868418 24968.8 0 -866064 26265 0 -863615 27591.1 0 -861067 28946 0 -858415 30327.9 0 -855656 31735.3 0 -852786 33166.3 0 -849801 34618.6 0 -846697 36090.1 0 -843470 37578.1 0 -840116 39080 0 -836630 40592.6 0 -833009 42112.9 0 -829248 43637.5 0 -825344 45162.8 0 -821292 46684.8 0 -817089 48199.8 0 -812730 49703.4 0 -808212 51191.3 0 -803530 52659.1 0 -798680 54102 0 -793659 55515.4 0 -788463 56894.4 0 -783088 58234.1 0 -777529 59529.5 0 -771783 60775.7 0 -765845 61967.6 0 -759711 63100.3 0 -753375 64169 0 -746833 65168.8 0 -740079 66095.1 0 -733107 66943.3 0 -725909 67709.3 0 -718479 68388.8 0 -710806 68978.3 0 -702881 69474.4 0 -694691 69874.1 0 -686223 70175.1 0 -677461 70375.8 0 -668386 70475.7 0 -658974 70475.2 0 -649200 70376.7 0 -639032 70184.6 0 -628431 69906.6 0 -617351 69554.8 0 -605736 69147.8 0 -593519 68713.5 0 -580617 68293.9 0 -566930 67952.9 0 -552338 67786.8 0 -536701 67944.8 0 -519868 68654.7 0 -501699 70275.8 0 -482142 73323 0 -461344 78597.1 0 -922709 -0.0080643 0 -922703 -105.071 0 -922684 -209.715 0 -922652 -313.494 0 -922607 -415.98 0 -922549 -516.743 0 -922479 -615.348 0 -922396 -711.36 0 -922299 -804.34 0 -922190 -893.847 0 -922067 -979.436 0 -921931 -1060.66 0 -921782 -1137.06 0 -921619 -1208.18 0 -921443 -1273.56 0 -921253 -1332.74 0 -921050 -1385.22 0 -920832 -1430.54 0 -920600 -1468.21 0 -920354 -1497.72 0 -920093 -1518.58 0 -919817 -1530.27 0 -919526 -1532.28 0 -919220 -1524.08 0 -918899 -1505.12 0 -918561 -1474.87 0 -918208 -1432.77 0 -917838 -1378.24 0 -917451 -1310.72 0 -917047 -1229.62 0 -916626 -1134.34 0 -916186 -1024.27 0 -915728 -898.793 0 -915251 -757.282 0 -914754 -599.097 0 -914238 -423.585 0 -913701 -230.087 0 -913142 -17.931 0 -912562 213.564 0 -911960 465.089 0 -911334 737.344 0 -910684 1031.04 0 -910009 1346.88 0 -909309 1685.6 0 -908582 2047.93 0 -907827 2434.59 0 -907044 2846.32 0 -906230 3283.86 0 -905386 3747.95 0 -904510 4239.31 0 -903601 4758.69 0 -902657 5306.8 0 -901676 5884.36 0 -900658 6492.07 0 -899601 7130.62 0 -898503 7800.66 0 -897362 8502.84 0 -896176 9237.77 0 -894944 10006 0 -893663 10808.2 0 -892332 11644.7 0 -890948 12516 0 -889509 13422.5 0 -888012 14364.6 0 -886455 15342.5 0 -884834 16356.3 0 -883149 17406.2 0 -881394 18492.2 0 -879568 19614.1 0 -877668 20771.8 0 -875690 21964.9 0 -873630 23193 0 -871486 24455.4 0 -869254 25751.3 0 -866930 27080 0 -864511 28440.2 0 -861993 29830.7 0 -859371 31250.1 0 -856643 32696.7 0 -853804 34168.7 0 -850849 35664 0 -847776 37180.3 0 -844579 38715.3 0 -841256 40266.1 0 -837800 41829.9 0 -834209 43403.5 0 -830478 44983.5 0 -826604 46566.5 0 -822581 48148.6 0 -818406 49725.9 0 -814075 51294.3 0 -809583 52849.4 0 -804928 54386.7 0 -800104 55901.8 0 -795109 57389.8 0 -789937 58846 0 -784585 60265.5 0 -779050 61643.4 0 -773326 62974.8 0 -767410 64254.9 0 -761296 65478.7 0 -754982 66641.6 0 -748460 67738.9 0 -741727 68766.2 0 -734776 69719.2 0 -727599 70594 0 -720191 71386.7 0 -712541 72094.2 0 -704641 72713.6 0 -696479 73242.5 0 -688042 73679.5 0 -679315 74023.7 0 -670279 74275.5 0 -660915 74436.8 0 -651196 74511.1 0 -641095 74504.7 0 -630574 74427.1 0 -619594 74292.5 0 -608102 74122 0 -596040 73945.9 0 -583336 73808.6 0 -569903 73774.7 0 -555644 73939.4 0 -540446 74443.8 0 -524196 75495.7 0 -506800 77406.7 0 -488247 80604.6 0 -468682 85717 0 -922667 -0.00809138 0 -922660 -99.6261 0 -922642 -198.823 0 -922610 -297.152 0 -922566 -394.185 0 -922510 -489.489 0 -922440 -582.628 0 -922359 -673.164 0 -922264 -760.659 0 -922156 -844.669 0 -922036 -924.747 0 -921902 -1000.44 0 -921756 -1071.3 0 -921596 -1136.86 0 -921423 -1196.66 0 -921237 -1250.22 0 -921036 -1297.07 0 -920823 -1336.73 0 -920595 -1368.69 0 -920353 -1392.48 0 -920097 -1407.57 0 -919826 -1413.45 0 -919540 -1409.6 0 -919240 -1395.5 0 -918924 -1370.58 0 -918593 -1334.31 0 -918246 -1286.13 0 -917883 -1225.46 0 -917503 -1151.72 0 -917106 -1064.31 0 -916692 -962.639 0 -916261 -846.086 0 -915811 -714.025 0 -915343 -565.819 0 -914856 -400.819 0 -914349 -218.366 0 -913821 -17.7874 0 -913273 201.598 0 -912704 440.484 0 -912113 699.572 0 -911498 979.576 0 -910860 1281.22 0 -910198 1605.23 0 -909510 1952.35 0 -908797 2323.32 0 -908056 2718.9 0 -907287 3139.84 0 -906489 3586.89 0 -905660 4060.83 0 -904800 4562.4 0 -903907 5092.36 0 -902980 5651.46 0 -902017 6240.45 0 -901017 6860.06 0 -899978 7510.99 0 -898900 8193.96 0 -897778 8909.64 0 -896613 9658.67 0 -895403 10441.7 0 -894144 11259.3 0 -892835 12111.9 0 -891474 13000.2 0 -890058 13924.5 0 -888585 14885.2 0 -887053 15882.7 0 -885458 16917.1 0 -883798 17988.6 0 -882071 19097.2 0 -880272 20243 0 -878399 21425.8 0 -876449 22645.2 0 -874418 23900.9 0 -872304 25192.4 0 -870101 26518.9 0 -867807 27879.6 0 -865419 29273.5 0 -862931 30699.4 0 -860341 32155.9 0 -857644 33641.3 0 -854836 35154 0 -851913 36692 0 -848871 38253 0 -845706 39834.6 0 -842414 41434.1 0 -838990 43048.8 0 -835430 44675.4 0 -831730 46310.8 0 -827885 47951.3 0 -823892 49593.3 0 -819747 51232.8 0 -815445 52865.8 0 -810982 54487.9 0 -806354 56094.7 0 -801557 57681.7 0 -796588 59244.2 0 -791442 60777.4 0 -786115 62276.6 0 -7