<?xml version="1.0"?> 
<VTKFile type="StructuredGrid" version="0.1"> 
<StructuredGrid WholeExtent="0 127 0 127 0 0"> 
<Piece Extent="0 127 0 127 0 0"> 
<PointData>
<DataArray type="Float32" Name="E" format="ascii" NumberOfComponents="3"> 
-1.15847e+06 -2.09738e+06 0 -907656 -1.74356e+06 0 -801559 -1.59294e+06 0 -748619 -1.50642e+06 0 -719750 -1.45214e+06 0 -701753 -1.41336e+06 0 -689119 -1.38399e+06 0 -679127 -1.36055e+06 0 -670475 -1.34123e+06 0 -662499 -1.32491e+06 0 -654859 -1.31088e+06 0 -647383 -1.29865e+06 0 -639980 -1.28789e+06 0 -632603 -1.27834e+06 0 -625230 -1.2698e+06 0 -617849 -1.26212e+06 0 -610455 -1.25518e+06 0 -603047 -1.24889e+06 0 -595624 -1.24316e+06 0 -588187 -1.23793e+06 0 -580737 -1.23314e+06 0 -573274 -1.22875e+06 0 -565799 -1.22471e+06 0 -558312 -1.22099e+06 0 -550815 -1.21756e+06 0 -543307 -1.21439e+06 0 -535788 -1.21147e+06 0 -528258 -1.20877e+06 0 -520718 -1.20627e+06 0 -513168 -1.20396e+06 0 -505606 -1.20182e+06 0 -498033 -1.19985e+06 0 -490447 -1.19802e+06 0 -482850 -1.19634e+06 0 -475240 -1.19479e+06 0 -467617 -1.19336e+06 0 -459979 -1.19205e+06 0 -452327 -1.19085e+06 0 -444660 -1.18975e+06 0 -436977 -1.18876e+06 0 -429277 -1.18785e+06 0 -421560 -1.18703e+06 0 -413824 -1.1863e+06 0 -406069 -1.18565e+06 0 -398294 -1.18508e+06 0 -390497 -1.18458e+06 0 -382679 -1.18415e+06 0 -374837 -1.18379e+06 0 -366971 -1.1835e+06 0 -359080 -1.18328e+06 0 -351163 -1.18311e+06 0 -343217 -1.18301e+06 0 -335243 -1.18297e+06 0 -327239 -1.18299e+06 0 -319203 -1.18306e+06 0 -311134 -1.1832e+06 0 -303030 -1.18338e+06 0 -294891 -1.18363e+06 0 -286714 -1.18392e+06 0 -278498 -1.18428e+06 0 -270241 -1.18468e+06 0 -261942 -1.18515e+06 0 -253597 -1.18566e+06 0 -245206 -1.18623e+06 0 -236767 -1.18686e+06 0 -228276 -1.18754e+06 0 -219733 -1.18828e+06 0 -211134 -1.18908e+06 0 -202477 -1.18994e+06 0 -193759 -1.19085e+06 0 -184978 -1.19183e+06 0 -176130 -1.19287e+06 0 -167213 -1.19398e+06 0 -158223 -1.19515e+06 0 -149157 -1.19639e+06 0 -140011 -1.19771e+06 0 -130781 -1.19909e+06 0 -121463 -1.20056e+06 0 -112053 -1.2021e+06 0 -102546 -1.20373e+06 0 -92936.3 -1.20545e+06 0 -83219.4 -1.20726e+06 0 -73389.2 -1.20917e+06 0 -63439.6 -1.21118e+06 0 -53364.1 -1.2133e+06 0 -43155.6 -1.21554e+06 0 -32806.4 -1.21789e+06 0 -22308.1 -1.22038e+06 0 -11652 -1.223e+06 0 -828.27 -1.22577e+06 0 10173.6 -1.22869e+06 0 21365.1 -1.23178e+06 0 32758.8 -1.23505e+06 0 44368.5 -1.23852e+06 0 56209.2 -1.24219e+06 0 68297.5 -1.24609e+06 0 80652 -1.25023e+06 0 93292.9 -1.25463e+06 0 106243 -1.25932e+06 0 119528 -1.26433e+06 0 133176 -1.26968e+06 0 147219 -1.2754e+06 0 161695 -1.28155e+06 0 176643 -1.28815e+06 0 192114 -1.29526e+06 0 208161 -1.30295e+06 0 224848 -1.31127e+06 0 242252 -1.32031e+06 0 260461 -1.33016e+06 0 279582 -1.34094e+06 0 299744 -1.35278e+06 0 321106 -1.36584e+06 0 343865 -1.38033e+06 0 368272 -1.3965e+06 0 394649 -1.41465e+06 0 423426 -1.43519e+06 0 455185 -1.45865e+06 0 490740 -1.48575e+06 0 531269 -1.51747e+06 0 578540 -1.55527e+06 0 635316 -1.60136e+06 0 706120 -1.6594e+06 0 798721 -1.73578e+06 0 927347 -1.84321e+06 0 1.11922e+06 -2.0066e+06 0 1.43165e+06 -2.28797e+06 0 1.98554e+06 -2.8123e+06 0 3.0777e+06 -3.97249e+06 0 -1.01409e+06 -1.22755e+06 0 -1.00833e+06 -1.29114e+06 0 -973343 -1.30921e+06 0 -933465 -1.31154e+06 0 -895439 -1.30623e+06 0 -861420 -1.2977e+06 0 -831556 -1.28777e+06 0 -805431 -1.27748e+06 0 -782459 -1.26731e+06 0 -762080 -1.25754e+06 0 -743805 -1.24829e+06 0 -727230 -1.23962e+06 0 -712033 -1.23154e+06 0 -697953 -1.22404e+06 0 -684787 -1.21707e+06 0 -672370 -1.21062e+06 0 -660572 -1.20465e+06 0 -649291 -1.19911e+06 0 -638442 -1.19399e+06 0 -627957 -1.18923e+06 0 -617782 -1.18482e+06 0 -607870 -1.18073e+06 0 -598185 -1.17693e+06 0 -588695 -1.17339e+06 0 -579373 -1.17011e+06 0 -570198 -1.16705e+06 0 -561150 -1.1642e+06 0 -552213 -1.16156e+06 0 -543374 -1.15909e+06 0 -534620 -1.15679e+06 0 -525940 -1.15466e+06 0 -517326 -1.15267e+06 0 -508768 -1.15081e+06 0 -500261 -1.14909e+06 0 -491796 -1.14749e+06 0 -483369 -1.146e+06 0 -474973 -1.14462e+06 0 -466605 -1.14334e+06 0 -458259 -1.14215e+06 0 -449931 -1.14106e+06 0 -441618 -1.14005e+06 0 -433317 -1.13912e+06 0 -425023 -1.13827e+06 0 -416733 -1.13749e+06 0 -408446 -1.13679e+06 0 -400157 -1.13614e+06 0 -391864 -1.13557e+06 0 -383565 -1.13505e+06 0 -375257 -1.1346e+06 0 -366937 -1.1342e+06 0 -358603 -1.13385e+06 0 -350253 -1.13356e+06 0 -341884 -1.13331e+06 0 -333494 -1.13312e+06 0 -325081 -1.13298e+06 0 -316641 -1.13288e+06 0 -308173 -1.13283e+06 0 -299675 -1.13282e+06 0 -291144 -1.13286e+06 0 -282576 -1.13294e+06 0 -273971 -1.13306e+06 0 -265325 -1.13322e+06 0 -256636 -1.13343e+06 0 -247900 -1.13367e+06 0 -239115 -1.13396e+06 0 -230278 -1.13429e+06 0 -221386 -1.13465e+06 0 -212436 -1.13506e+06 0 -203423 -1.13551e+06 0 -194346 -1.136e+06 0 -185199 -1.13654e+06 0 -175980 -1.13711e+06 0 -166684 -1.13773e+06 0 -157307 -1.13838e+06 0 -147844 -1.13909e+06 0 -138290 -1.13984e+06 0 -128641 -1.14063e+06 0 -118891 -1.14147e+06 0 -109033 -1.14236e+06 0 -99063.3 -1.1433e+06 0 -88973.6 -1.14429e+06 0 -78757.3 -1.14534e+06 0 -68406.9 -1.14644e+06 0 -57914.1 -1.14759e+06 0 -47270.3 -1.14881e+06 0 -36466.1 -1.15008e+06 0 -25491.1 -1.15142e+06 0 -14334.4 -1.15283e+06 0 -2983.94 -1.15431e+06 0 8573.39 -1.15585e+06 0 20351.8 -1.15748e+06 0 32367 -1.15918e+06 0 44636.1 -1.16097e+06 0 57177.9 -1.16284e+06 0 70013.1 -1.16481e+06 0 83164.8 -1.16687e+06 0 96658.4 -1.16903e+06 0 110522 -1.17129e+06 0 124788 -1.17367e+06 0 139491 -1.17616e+06 0 154671 -1.17876e+06 0 170374 -1.18149e+06 0 186649 -1.18435e+06 0 203555 -1.18734e+06 0 221159 -1.19046e+06 0 239536 -1.19371e+06 0 258773 -1.1971e+06 0 278972 -1.20062e+06 0 300251 -1.20425e+06 0 322747 -1.20799e+06 0 346622 -1.21182e+06 0 372066 -1.21569e+06 0 399304 -1.21955e+06 0 428603 -1.22333e+06 0 460279 -1.22692e+06 0 494705 -1.23016e+06 0 532320 -1.23282e+06 0 573630 -1.23457e+06 0 619203 -1.23494e+06 0 669640 -1.23321e+06 0 725493 -1.2283e+06 0 787073 -1.21854e+06 0 854029 -1.20125e+06 0 924373 -1.1718e+06 0 992430 -1.12212e+06 0 1.04355e+06 -1.03526e+06 0 1.0437e+06 -880013 0 906090 -569230 0 -986856 -1.13657e+06 0 -958906 -1.1276e+06 0 -940860 -1.13157e+06 0 -923709 -1.13759e+06 0 -905744 -1.14323e+06 0 -886860 -1.14746e+06 0 -867499 -1.15019e+06 0 -848103 -1.15153e+06 0 -829017 -1.15173e+06 0 -810471 -1.15101e+06 0 -792598 -1.14958e+06 0 -775458 -1.14763e+06 0 -759063 -1.1453e+06 0 -743395 -1.14271e+06 0 -728415 -1.13996e+06 0 -714075 -1.13712e+06 0 -700323 -1.13425e+06 0 -687107 -1.13138e+06 0 -674376 -1.12855e+06 0 -662082 -1.12579e+06 0 -650182 -1.1231e+06 0 -638635 -1.1205e+06 0 -627406 -1.118e+06 0 -616460 -1.11561e+06 0 -605770 -1.11331e+06 0 -595309 -1.11113e+06 0 -585053 -1.10904e+06 0 -574981 -1.10707e+06 0 -565076 -1.10519e+06 0 -555319 -1.1034e+06 0 -545696 -1.10172e+06 0 -536193 -1.10012e+06 0 -526799 -1.09861e+06 0 -517501 -1.09719e+06 0 -508291 -1.09585e+06 0 -499158 -1.09458e+06 0 -490095 -1.09339e+06 0 -481093 -1.09226e+06 0 -472147 -1.09121e+06 0 -463248 -1.09022e+06 0 -454393 -1.08929e+06 0 -445574 -1.08842e+06 0 -436787 -1.08761e+06 0 -428027 -1.08685e+06 0 -419289 -1.08614e+06 0 -410569 -1.08548e+06 0 -401863 -1.08487e+06 0 -393168 -1.0843e+06 0 -384478 -1.08378e+06 0 -375792 -1.08329e+06 0 -367105 -1.08285e+06 0 -358414 -1.08244e+06 0 -349716 -1.08207e+06 0 -341007 -1.08173e+06 0 -332285 -1.08143e+06 0 -323546 -1.08116e+06 0 -314787 -1.08092e+06 0 -306006 -1.08071e+06 0 -297199 -1.08053e+06 0 -288363 -1.08037e+06 0 -279495 -1.08024e+06 0 -270591 -1.08014e+06 0 -261650 -1.08006e+06 0 -252667 -1.08e+06 0 -243638 -1.07997e+06 0 -234562 -1.07995e+06 0 -225434 -1.07996e+06 0 -216250 -1.07999e+06 0 -207007 -1.08004e+06 0 -197701 -1.08011e+06 0 -188328 -1.08019e+06 0 -178884 -1.0803e+06 0 -169364 -1.08042e+06 0 -159764 -1.08055e+06 0 -150079 -1.0807e+06 0 -140303 -1.08087e+06 0 -130432 -1.08105e+06 0 -120460 -1.08124e+06 0 -110382 -1.08144e+06 0 -100189 -1.08166e+06 0 -89876.9 -1.08188e+06 0 -79437.6 -1.08212e+06 0 -68863.6 -1.08236e+06 0 -58147 -1.08261e+06 0 -47279.1 -1.08286e+06 0 -36250.9 -1.08312e+06 0 -25052.5 -1.08337e+06 0 -13673.3 -1.08363e+06 0 -2102.19 -1.08388e+06 0 9673.03 -1.08413e+06 0 21665.4 -1.08436e+06 0 33889 -1.08458e+06 0 46358.9 -1.08479e+06 0 59091.6 -1.08496e+06 0 72104.6 -1.08511e+06 0 85417.2 -1.08522e+06 0 99050 -1.08529e+06 0 113025 -1.08529e+06 0 127368 -1.08523e+06 0 142103 -1.08509e+06 0 157260 -1.08485e+06 0 172869 -1.0845e+06 0 188964 -1.084e+06 0 205579 -1.08334e+06 0 222754 -1.08249e+06 0 240527 -1.0814e+06 0 258944 -1.08003e+06 0 278046 -1.07833e+06 0 297882 -1.07623e+06 0 318495 -1.07367e+06 0 339931 -1.07054e+06 0 362227 -1.06675e+06 0 385416 -1.06217e+06 0 409514 -1.05664e+06 0 434516 -1.04998e+06 0 460387 -1.04199e+06 0 487042 -1.03241e+06 0 514332 -1.02096e+06 0 542022 -1.00731e+06 0 569763 -991145 0 597075 -972115 0 623356 -949973 0 647959 -924684 0 670470 -896781 0 691421 -867937 0 714343 -843032 0 750039 -832267 0 830678 -866664 0 -958486 -1.00523e+06 0 -947075 -1.01896e+06 0 -931127 -1.02613e+06 0 -914716 -1.03151e+06 0 -898575 -1.03604e+06 0 -882793 -1.0401e+06 0 -867265 -1.04374e+06 0 -851914 -1.04693e+06 0 -836701 -1.04965e+06 0 -821630 -1.0519e+06 0 -806725 -1.05368e+06 0 -792017 -1.05503e+06 0 -777540 -1.05598e+06 0 -763322 -1.05657e+06 0 -749382 -1.05685e+06 0 -735736 -1.05686e+06 0 -722389 -1.05664e+06 0 -709341 -1.05623e+06 0 -696590 -1.05566e+06 0 -684127 -1.05497e+06 0 -671941 -1.05418e+06 0 -660020 -1.05331e+06 0 -648350 -1.05238e+06 0 -636917 -1.05141e+06 0 -625707 -1.05042e+06 0 -614705 -1.04941e+06 0 -603897 -1.04839e+06 0 -593270 -1.04738e+06 0 -582810 -1.04637e+06 0 -572505 -1.04538e+06 0 -562343 -1.04441e+06 0 -552313 -1.04346e+06 0 -542405 -1.04254e+06 0 -532608 -1.04164e+06 0 -522914 -1.04077e+06 0 -513314 -1.03992e+06 0 -503800 -1.03911e+06 0 -494364 -1.03833e+06 0 -484999 -1.03757e+06 0 -475698 -1.03684e+06 0 -466456 -1.03615e+06 0 -457266 -1.03548e+06 0 -448122 -1.03483e+06 0 -439020 -1.03422e+06 0 -429954 -1.03363e+06 0 -420920 -1.03306e+06 0 -411912 -1.03252e+06 0 -402927 -1.032e+06 0 -393961 -1.0315e+06 0 -385009 -1.03102e+06 0 -376067 -1.03056e+06 0 -367133 -1.03012e+06 0 -358201 -1.0297e+06 0 -349270 -1.02929e+06 0 -340334 -1.0289e+06 0 -331391 -1.02852e+06 0 -322437 -1.02815e+06 0 -313470 -1.02779e+06 0 -304485 -1.02745e+06 0 -295479 -1.02711e+06 0 -286450 -1.02679e+06 0 -277394 -1.02647e+06 0 -268307 -1.02615e+06 0 -259186 -1.02584e+06 0 -250028 -1.02553e+06 0 -240830 -1.02523e+06 0 -231587 -1.02492e+06 0 -222297 -1.02461e+06 0 -212956 -1.02431e+06 0 -203559 -1.02399e+06 0 -194104 -1.02368e+06 0 -184586 -1.02335e+06 0 -175001 -1.02302e+06 0 -165345 -1.02267e+06 0 -155613 -1.02232e+06 0 -145801 -1.02195e+06 0 -135904 -1.02156e+06 0 -125918 -1.02115e+06 0 -115836 -1.02073e+06 0 -105655 -1.02028e+06 0 -95367.4 -1.0198e+06 0 -84968.3 -1.01929e+06 0 -74451.4 -1.01875e+06 0 -63810.3 -1.01817e+06 0 -53038.3 -1.01754e+06 0 -42128.3 -1.01688e+06 0 -31073 -1.01616e+06 0 -19864.6 -1.01538e+06 0 -8495.01 -1.01454e+06 0 3044.16 -1.01363e+06 0 14761.8 -1.01265e+06 0 26667.2 -1.01158e+06 0 38770 -1.01041e+06 0 51080.1 -1.00914e+06 0 63608.1 -1.00776e+06 0 76364.7 -1.00624e+06 0 89360.8 -1.00459e+06 0 102608 -1.00277e+06 0 116117 -1.00078e+06 0 129901 -998596 0 143969 -996193 0 158334 -993550 0 173006 -990638 0 187994 -987427 0 203308 -983883 0 218953 -979969 0 234933 -975642 0 251251 -970857 0 267902 -965563 0 284880 -959704 0 302169 -953219 0 319749 -946045 0 337590 -938111 0 355651 -929346 0 373882 -919678 0 392223 -909034 0 410602 -897346 0 428944 -884554 0 447169 -870613 0 465206 -855490 0 482999 -839171 0 500508 -821646 0 517698 -802872 0 534435 -782653 0 550220 -760430 0 563327 -734419 0 568932 -700707 0 552729 -646566 0 -936409 -927721 0 -922710 -930780 0 -910629 -936149 0 -898416 -941641 0 -885866 -946857 0 -873031 -951643 0 -860029 -956007 0 -846948 -959969 0 -833852 -963559 0 -820780 -966800 0 -807761 -969711 0 -794817 -972310 0 -781964 -974614 0 -769218 -976640 0 -756592 -978404 0 -744097 -979925 0 -731743 -981221 0 -719538 -982310 0 -707486 -983212 0 -695592 -983944 0 -683858 -984523 0 -672283 -984965 0 -660868 -985287 0 -649608 -985502 0 -638502 -985622 0 -627544 -985661 0 -616729 -985629 0 -606052 -985535 0 -595507 -985389 0 -585088 -985197 0 -574789 -984967 0 -564602 -984705 0 -554523 -984415 0 -544544 -984103 0 -534660 -983773 0 -524864 -983428 0 -515151 -983070 0 -505514 -982702 0 -495949 -982327 0 -486450 -981946 0 -477012 -981560 0 -467629 -981171 0 -458297 -980779 0 -449012 -980385 0 -439768 -979989 0 -430562 -979593 0 -421389 -979195 0 -412246 -978795 0 -403128 -978395 0 -394031 -977993 0 -384953 -977589 0 -375889 -977182 0 -366835 -976772 0 -357789 -976359 0 -348747 -975941 0 -339706 -975517 0 -330663 -975088 0 -321613 -974652 0 -312555 -974207 0 -303485 -973754 0 -294400 -973290 0 -285296 -972814 0 -276172 -972326 0 -267023 -971824 0 -257846 -971306 0 -248639 -970771 0 -239398 -970218 0 -230121 -969644 0 -220803 -969048 0 -211442 -968427 0 -202034 -967781 0 -192577 -967106 0 -183066 -966401 0 -173498 -965663 0 -163870 -964889 0 -154177 -964077 0 -144418 -963223 0 -134586 -962325 0 -124680 -961379 0 -114694 -960381 0 -104625 -959329 0 -94469.2 -958216 0 -84221.6 -957039 0 -73878.3 -955793 0 -63434.9 -954473 0 -52887.1 -953073 0 -42230.4 -951587 0 -31460.3 -950008 0 -20572.4 -948329 0 -9561.98 -946543 0 1575.29 -944640 0 12843.9 -942612 0 24248.1 -940449 0 35792 -938141 0 47479.7 -935675 0 59314.7 -933040 0 71300.3 -930221 0 83439.3 -927205 0 95733.7 -923975 0 108185 -920515 0 120794 -916805 0 133559 -912828 0 146480 -908561 0 159552 -903982 0 172770 -899067 0 186128 -893792 0 199614 -888130 0 213218 -882053 0 226923 -875533 0 240711 -868540 0 254560 -861045 0 268442 -853017 0 282326 -844427 0 296178 -835248 0 309957 -825451 0 323616 -815011 0 337102 -803907 0 350357 -792118 0 363309 -779627 0 375876 -766421 0 387958 -752495 0 399439 -737852 0 410188 -722528 0 420100 -706636 0 429206 -690459 0 438056 -674829 0 448554 -661525 0 466905 -656273 0 -915722 -850484 0 -905313 -857010 0 -894034 -862204 0 -882673 -867034 0 -871317 -871644 0 -859953 -876080 0 -848550 -880323 0 -837099 -884359 0 -825602 -888173 0 -814069 -891761 0 -802516 -895120 0 -790959 -898253 0 -779413 -901165 0 -767891 -903862 0 -756407 -906352 0 -744972 -908642 0 -733594 -910742 0 -722283 -912660 0 -711046 -914408 0 -699888 -915993 0 -688814 -917427 0 -677828 -918719 0 -666934 -919877 0 -656132 -920913 0 -645423 -921833 0 -634809 -922648 0 -624289 -923365 0 -613862 -923991 0 -603526 -924535 0 -593280 -925003 0 -583121 -925400 0 -573046 -925733 0 -563054 -926008 0 -553140 -926228 0 -543301 -926398 0 -533535 -926523 0 -523838 -926605 0 -514205 -926649 0 -504635 -926656 0 -495122 -926630 0 -485664 -926572 0 -476258 -926485 0 -466899 -926370 0 -457584 -926229 0 -448309 -926063 0 -439073 -925872 0 -429870 -925659 0 -420698 -925423 0 -411554 -925164 0 -402434 -924884 0 -393336 -924582 0 -384256 -924259 0 -375192 -923913 0 -366140 -923546 0 -357097 -923156 0 -348062 -922743 0 -339031 -922307 0 -330001 -921846 0 -320969 -921361 0 -311933 -920850 0 -302891 -920311 0 -293839 -919745 0 -284775 -919150 0 -275696 -918524 0 -266600 -917866 0 -257484 -917175 0 -248345 -916448 0 -239181 -915685 0 -229990 -914883 0 -220769 -914040 0 -211514 -913154 0 -202225 -912223 0 -192897 -911244 0 -183530 -910215 0 -174119 -909133 0 -164663 -907994 0 -155158 -906797 0 -145603 -905536 0 -135995 -904210 0 -126332 -902814 0 -116610 -901344 0 -106828 -899795 0 -96983.3 -898164 0 -87073.4 -896445 0 -77096.2 -894632 0 -67049.5 -892722 0 -56931.4 -890707 0 -46740.1 -888581 0 -36473.7 -886338 0 -26130.8 -883971 0 -15710.2 -881471 0 -5210.83 -878832 0 5367.94 -876045 0 16026.4 -873100 0 26764.4 -869988 0 37581.4 -866700 0 48476.1 -863224 0 59446.7 -859550 0 70490.7 -855666 0 81604.7 -851560 0 92784.3 -847220 0 104024 -842631 0 115318 -837781 0 126659 -832656 0 138036 -827241 0 149441 -821522 0 160859 -815485 0 172279 -809116 0 183684 -802399 0 195056 -795322 0 206375 -787872 0 217621 -780036 0 228769 -771803 0 239794 -763166 0 250668 -754116 0 261361 -744650 0 271842 -734765 0 282082 -724464 0 292050 -713755 0 301721 -702649 0 311072 -691164 0 320094 -679321 0 328784 -667141 0 337139 -654622 0 345111 -641702 0 352443 -628096 0 358303 -613114 0 359926 -594322 0 -897553 -786160 0 -887368 -790580 0 -877402 -795343 0 -867321 -800008 0 -857116 -804513 0 -846809 -808839 0 -836429 -812989 0 -825994 -816969 0 -815517 -820780 0 -805007 -824425 0 -794470 -827904 0 -783915 -831217 0 -773348 -834365 0 -762777 -837351 0 -752210 -840176 0 -741653 -842843 0 -731114 -845355 0 -720599 -847718 0 -710113 -849934 0 -699663 -852010 0 -689253 -853950 0 -678887 -855760 0 -668568 -857444 0 -658301 -859009 0 -648087 -860460 0 -637929 -861802 0 -627828 -863041 0 -617784 -864182 0 -607800 -865229 0 -597874 -866189 0 -588007 -867065 0 -578199 -867862 0 -568448 -868584 0 -558754 -869235 0 -549116 -869819 0 -539532 -870339 0 -530000 -870799 0 -520519 -871201 0 -511086 -871548 0 -501701 -871844 0 -492360 -872089 0 -483062 -872286 0 -473805 -872438 0 -464586 -872545 0 -455403 -872609 0 -446254 -872631 0 -437136 -872613 0 -428047 -872555 0 -418985 -872459 0 -409948 -872324 0 -400933 -872151 0 -391938 -871940 0 -382960 -871692 0 -373998 -871407 0 -365049 -871084 0 -356111 -870723 0 -347182 -870325 0 -338259 -869887 0 -329341 -869411 0 -320425 -868895 0 -311510 -868337 0 -302592 -867739 0 -293671 -867097 0 -284744 -866412 0 -275809 -865682 0 -266864 -864905 0 -257908 -864080 0 -248937 -863205 0 -239952 -862279 0 -230948 -861299 0 -221926 -860264 0 -212883 -859171 0 -203817 -858018 0 -194726 -856803 0 -185610 -855523 0 -176466 -854175 0 -167293 -852757 0 -158089 -851265 0 -148853 -849695 0 -139584 -848046 0 -130281 -846312 0 -120942 -844490 0 -111566 -842576 0 -102154 -840565 0 -92703 -838454 0 -83213.7 -836237 0 -73685.6 -833909 0 -64118.5 -831466 0 -54512.6 -828902 0 -44868.1 -826211 0 -35185.8 -823387 0 -25466.7 -820423 0 -15712 -817315 0 -5923.49 -814054 0 3896.68 -810635 0 13745.9 -807049 0 23621.1 -803289 0 33518.7 -799349 0 43434.2 -795220 0 53363 -790894 0 63299.2 -786363 0 73236.8 -781620 0 83168.4 -776657 0 93086.3 -771465 0 102982 -766038 0 112845 -760366 0 122665 -754444 0 132430 -748264 0 142129 -741821 0 151747 -735107 0 161271 -728120 0 170685 -720855 0 179973 -713309 0 189118 -705480 0 198103 -697368 0 206910 -688974 0 215521 -680301 0 223916 -671352 0 232077 -662131 0 239981 -652647 0 247606 -642904 0 254924 -632911 0 261905 -622681 0 268517 -612235 0 274746 -601623 0 280663 -590991 0 286591 -580663 0 293721 -571734 0 -880542 -725615 0 -871360 -730398 0 -861973 -734864 0 -852533 -739201 0 -843048 -743427 0 -833513 -747543 0 -823925 -751542 0 -814286 -755419 0 -804600 -759170 0 -794873 -762793 0 -785112 -766286 0 -775322 -769649 0 -765509 -772881 0 -755679 -775984 0 -745838 -778958 0 -735990 -781805 0 -726141 -784524 0 -716294 -787120 0 -706456 -789592 0 -696629 -791944 0 -686818 -794179 0 -677027 -796298 0 -667258 -798305 0 -657514 -800203 0 -647799 -801995 0 -638114 -803684 0 -628462 -805273 0 -618844 -806766 0 -609262 -808166 0 -599717 -809476 0 -590210 -810699 0 -580740 -811839 0 -571310 -812898 0 -561918 -813879 0 -552566 -814785 0 -543251 -815619 0 -533975 -816383 0 -524737 -817079 0 -515535 -817710 0 -506369 -818278 0 -497239 -818784 0 -488142 -819231 0 -479078 -819620 0 -470045 -819953 0 -461043 -820230 0 -452070 -820454 0 -443123 -820625 0 -434203 -820744 0 -425308 -820811 0 -416435 -820829 0 -407584 -820796 0 -398753 -820714 0 -389940 -820583 0 -381144 -820402 0 -372363 -820173 0 -363595 -819894 0 -354840 -819566 0 -346095 -819189 0 -337360 -818761 0 -328631 -818282 0 -319909 -817753 0 -311192 -817171 0 -302477 -816536 0 -293764 -815847 0 -285052 -815103 0 -276338 -814304 0 -267622 -813446 0 -258903 -812530 0 -250178 -811553 0 -241448 -810514 0 -232710 -809411 0 -223964 -808243 0 -215209 -807006 0 -206444 -805700 0 -197667 -804322 0 -188879 -802869 0 -180078 -801340 0 -171263 -799730 0 -162435 -798039 0 -153593 -796262 0 -144736 -794397 0 -135865 -792441 0 -126979 -790389 0 -118078 -788240 0 -109163 -785989 0 -100234 -783633 0 -91292.1 -781167 0 -82337.9 -778588 0 -73372.5 -775892 0 -64397.3 -773074 0 -55413.8 -770131 0 -46424.1 -767057 0 -37430.2 -763848 0 -28434.7 -760499 0 -19440.4 -757007 0 -10450.6 -753365 0 -1468.87 -749570 0 7500.75 -745616 0 16453.8 -741498 0 25385.4 -737213 0 34290.2 -732755 0 43162.3 -728119 0 51995.5 -723302 0 60782.8 -718299 0 69516.9 -713107 0 78190 -707721 0 86793.7 -702138 0 95319 -696357 0 103757 -690373 0 112097 -684187 0 120330 -677795 0 128444 -671199 0 136429 -664397 0 144273 -657392 0 151964 -650185 0 159492 -642778 0 166844 -635176 0 174008 -627384 0 180973 -619407 0 187728 -611254 0 194264 -602932 0 200574 -594453 0 206654 -585828 0 212502 -577065 0 218112 -568165 0 223445 -559088 0 228357 -549723 0 232317 -539618 0 -864830 -670160 0 -856060 -674398 0 -847283 -678637 0 -838439 -682791 0 -829532 -686849 0 -820569 -690808 0 -811559 -694667 0 -802506 -698427 0 -793414 -702086 0 -784286 -705643 0 -775126 -709097 0 -765937 -712446 0 -756722 -715690 0 -747486 -718829 0 -738233 -721861 0 -728965 -724788 0 -719687 -727609 0 -710402 -730325 0 -701113 -732936 0 -691824 -735445 0 -682538 -737851 0 -673258 -740156 0 -663986 -742361 0 -654724 -744469 0 -645476 -746480 0 -636244 -748396 0 -627029 -750220 0 -617833 -751953 0 -608658 -753598 0 -599505 -755155 0 -590375 -756627 0 -581270 -758017 0 -572190 -759325 0 -563136 -760554 0 -554109 -761707 0 -545109 -762783 0 -536135 -763786 0 -527189 -764717 0 -518270 -765578 0 -509378 -766370 0 -500513 -767095 0 -491674 -767754 0 -482861 -768348 0 -474074 -768878 0 -465311 -769346 0 -456573 -769753 0 -447858 -770099 0 -439166 -770385 0 -430495 -770612 0 -421846 -770780 0 -413217 -770891 0 -404607 -770943 0 -396015 -770939 0 -387440 -770877 0 -378882 -770757 0 -370339 -770581 0 -361810 -770347 0 -353295 -770056 0 -344792 -769707 0 -336301 -769299 0 -327820 -768833 0 -319349 -768307 0 -310886 -767722 0 -302432 -767075 0 -293984 -766367 0 -285543 -765596 0 -277107 -764761 0 -268675 -763862 0 -260248 -762896 0 -251824 -761863 0 -243402 -760761 0 -234983 -759588 0 -226566 -758344 0 -218150 -757025 0 -209736 -755631 0 -201322 -754160 0 -192909 -752609 0 -184496 -750976 0 -176085 -749260 0 -167674 -747458 0 -159265 -745567 0 -150857 -743586 0 -142452 -741512 0 -134049 -739341 0 -125650 -737073 0 -117256 -734703 0 -108868 -732228 0 -100486 -729647 0 -92114 -726957 0 -83752.2 -724153 0 -75402.8 -721234 0 -67068.2 -718196 0 -58750.6 -715036 0 -50452.7 -711751 0 -42177.5 -708338 0 -33928.2 -704794 0 -25708.2 -701117 0 -17521.2 -697302 0 -9371.36 -693348 0 -1262.9 -689252 0 6799.53 -685012 0 14811 -680624 0 22766.3 -676087 0 30659.8 -671398 0 38485.8 -666557 0 46238.2 -661561 0 53910.6 -656409 0 61496.4 -651101 0 68988.6 -645637 0 76380.2 -640015 0 83663.9 -634238 0 90832.3 -628305 0 97877.9 -622218 0 104793 -615979 0 111570 -609590 0 118201 -603055 0 124678 -596378 0 130995 -589562 0 137143 -582611 0 143116 -575533 0 148905 -568330 0 154503 -561011 0 159901 -553580 0 165090 -546045 0 170061 -538419 0 174822 -530731 0 179423 -523041 0 184090 -515557 0 -850001 -617760 0 -841694 -621911 0 -833315 -625953 0 -824895 -629920 0 -816433 -633814 0 -807931 -637631 0 -799388 -641369 0 -790807 -645025 0 -782191 -648598 0 -773542 -652086 0 -764863 -655488 0 -756157 -658803 0 -747427 -662030 0 -738675 -665168 0 -729905 -668217 0 -721118 -671176 0 -712318 -674044 0 -703507 -676823 0 -694687 -679511 0 -685861 -682110 0 -677032 -684619 0 -668201 -687039 0 -659371 -689370 0 -650544 -691613 0 -641722 -693769 0 -632907 -695839 0 -624101 -697824 0 -615304 -699724 0 -606519 -701541 0 -597747 -703276 0 -588990 -704930 0 -580248 -706504 0 -571523 -707999 0 -562814 -709417 0 -554124 -710758 0 -545453 -712024 0 -536801 -713217 0 -528169 -714336 0 -519558 -715384 0 -510966 -716360 0 -502396 -717267 0 -493846 -718106 0 -485317 -718876 0 -476808 -719579 0 -468320 -720216 0 -459853 -720787 0 -451406 -721293 0 -442978 -721735 0 -434570 -722113 0 -426182 -722428 0 -417812 -722680 0 -409460 -722868 0 -401127 -722995 0 -392811 -723058 0 -384511 -723060 0 -376229 -722999 0 -367962 -722876 0 -359711 -722690 0 -351474 -722442 0 -343252 -722130 0 -335044 -721755 0 -326850 -721316 0 -318669 -720812 0 -310500 -720243 0 -302343 -719609 0 -294199 -718908 0 -286066 -718139 0 -277944 -717302 0 -269833 -716397 0 -261733 -715420 0 -253643 -714373 0 -245564 -713253 0 -237495 -712059 0 -229437 -710790 0 -221390 -709444 0 -213353 -708021 0 -205328 -706518 0 -197313 -704934 0 -189311 -703268 0 -181321 -701517 0 -173344 -699681 0 -165381 -697756 0 -157432 -695742 0 -149499 -693637 0 -141583 -691438 0 -133684 -689144 0 -125805 -686753 0 -117947 -684262 0 -110111 -681671 0 -102299 -678976 0 -94513.8 -676177 0 -86756.9 -673270 0 -79030.8 -670254 0 -71337.9 -667128 0 -63681 -663889 0 -56063 -660536 0 -48486.8 -657067 0 -40955.8 -653480 0 -33473.4 -649774 0 -26043.1 -645947 0 -18668.9 -641998 0 -11354.7 -637927 0 -4104.65 -633732 0 3076.87 -629412 0 10185.3 -624968 0 17216.1 -620398 0 24164.3 -615703 0 31025.1 -610883 0 37793.3 -605938 0 44463.8 -600869 0 51031.4 -595678 0 57490.8 -590366 0 63836.7 -584934 0 70063.7 -579385 0 76166.4 -573721 0 82139.7 -567946 0 87978.3 -562061 0 93677 -556072 0 99231 -549981 0 104635 -543794 0 109886 -537515 0 114979 -531150 0 119911 -524704 0 124680 -518183 0 129284 -511591 0 133717 -504928 0 137951 -498177 0 141887 -491261 0 -835918 -568192 0 -827926 -572138 0 -819903 -576039 0 -811840 -579877 0 -803739 -583651 0 -795602 -587357 0 -787433 -590995 0 -779233 -594564 0 -771003 -598062 0 -762746 -601489 0 -754463 -604842 0 -746157 -608120 0 -737829 -611323 0 -729482 -614449 0 -721117 -617499 0 -712736 -620470 0 -704341 -623363 0 -695935 -626177 0 -687519 -628912 0 -679095 -631567 0 -670664 -634143 0 -662230 -636639 0 -653793 -639056 0 -645355 -641393 0 -636918 -643652 0 -628483 -645831 0 -620052 -647932 0 -611626 -649955 0 -603207 -651900 0 -594796 -653768 0 -586393 -655560 0 -578001 -657276 0 -569620 -658916 0 -561251 -660482 0 -552895 -661975 0 -544553 -663393 0 -536225 -664740 0 -527912 -666014 0 -519614 -667217 0 -511333 -668350 0 -503068 -669412 0 -494820 -670405 0 -486589 -671329 0 -478376 -672185 0 -470180 -672973 0 -462002 -673694 0 -453841 -674348 0 -445699 -674936 0 -437574 -675457 0 -429467 -675913 0 -421378 -676303 0 -413307 -676627 0 -405254 -676886 0 -397218 -677080 0 -389199 -677209 0 -381198 -677273 0 -373213 -677272 0 -365246 -677205 0 -357296 -677073 0 -349362 -676875 0 -341445 -676611 0 -333544 -676280 0 -325660 -675883 0 -317792 -675419 0 -309940 -674886 0 -302104 -674286 0 -294285 -673616 0 -286481 -672877 0 -278694 -672068 0 -270924 -671187 0 -263170 -670235 0 -255432 -669210 0 -247712 -668111 0 -240009 -666937 0 -232323 -665688 0 -224656 -664362 0 -217007 -662958 0 -209378 -661476 0 -201768 -659913 0 -194179 -658269 0 -186611 -656543 0 -179066 -654733 0 -171544 -652838 0 -164046 -650857 0 -156574 -648788 0 -149129 -646631 0 -141713 -644384 0 -134326 -642046 0 -126970 -639615 0 -119648 -637090 0 -112361 -634471 0 -105111 -631755 0 -97899.7 -628943 0 -90730.1 -626032 0 -83604.2 -623022 0 -76524.6 -619911 0 -69493.8 -616700 0 -62514.5 -613386 0 -55589.7 -609970 0 -48722.2 -606451 0 -41915.2 -602829 0 -35171.8 -599103 0 -28495.3 -595272 0 -21889.2 -591338 0 -15357 -587300 0 -8902.14 -583158 0 -2528.36 -578914 0 3760.65 -574567 0 9961.13 -570119 0 16069.3 -565571 0 22081.3 -560924 0 27993.3 -556180 0 33801.5 -551340 0 39502.2 -546407 0 45091.4 -541383 0 50565.7 -536271 0 55921.3 -531073 0 61154.8 -525792 0 66262.7 -520431 0 71241.8 -514995 0 76089 -509487 0 80801 -503909 0 85374.7 -498268 0 89806.8 -492565 0 94094.1 -486808 0 98235.9 -481002 0 102239 -475162 0 106146 -469329 0 -822370 -520802 0 -814659 -524651 0 -806912 -528441 0 -799136 -532177 0 -791332 -535858 0 -783500 -539481 0 -775642 -543046 0 -767759 -546551 0 -759852 -549994 0 -751922 -553375 0 -743972 -556691 0 -736002 -559941 0 -728014 -563126 0 -720010 -566243 0 -711990 -569292 0 -703957 -572273 0 -695912 -575183 0 -687857 -578024 0 -679792 -580793 0 -671720 -583492 0 -663641 -586119 0 -655558 -588673 0 -647471 -591156 0 -639382 -593566 0 -631293 -595904 0 -623204 -598170 0 -615117 -600362 0 -607033 -602483 0 -598953 -604531 0 -590879 -606507 0 -582810 -608410 0 -574749 -610242 0 -566697 -612003 0 -558653 -613692 0 -550620 -615311 0 -542597 -616858 0 -534586 -618336 0 -526587 -619743 0 -518600 -621081 0 -510628 -622349 0 -502669 -623549 0 -494725 -624680 0 -486795 -625743 0 -478881 -626738 0 -470982 -627665 0 -463100 -628524 0 -455234 -629317 0 -447384 -630042 0 -439552 -630701 0 -431736 -631293 0 -423938 -631819 0 -416156 -632278 0 -408393 -632671 0 -400647 -632998 0 -392919 -633259 0 -385209 -633454 0 -377517 -633582 0 -369843 -633644 0 -362188 -633639 0 -354550 -633567 0 -346932 -633429 0 -339332 -633223 0 -331750 -632950 0 -324188 -632609 0 -316645 -632200 0 -309121 -631722 0 -301617 -631176 0 -294133 -630559 0 -286668 -629873 0 -279225 -629116 0 -271802 -628288 0 -264400 -627388 0 -257020 -626415 0 -249662 -625370 0 -242327 -624251 0 -235015 -623057 0 -227727 -621788 0 -220464 -620443 0 -213226 -619022 0 -206015 -617523 0 -198830 -615945 0 -191674 -614289 0 -184547 -612552 0 -177450 -610735 0 -170385 -608836 0 -163353 -606855 0 -156354 -604791 0 -149391 -602643 0 -142465 -600411 0 -135578 -598093 0 -128731 -595690 0 -121926 -593200 0 -115165 -590623 0 -108450 -587958 0 -101782 -585206 0 -95165.1 -582365 0 -88599.8 -579435 0 -82088.9 -576416 0 -75634.8 -573308 0 -69239.8 -570111 0 -62906.4 -566824 0 -56637.2 -563449 0 -50434.8 -559985 0 -44301.8 -556433 0 -38241 -552793 0 -32255.1 -549065 0 -26346.8 -545252 0 -20519.1 -541353 0 -14774.7 -537369 0 -9116.54 -533303 0 -3547.35 -529154 0 1930 -524926 0 7312.71 -520619 0 12598 -516236 0 17783.2 -511779 0 22865.6 -507249 0 27842.6 -502649 0 32711.7 -497982 0 37470.4 -493250 0 42116.5 -488457 0 46647.8 -483605 0 51062.2 -478698 0 55357.9 -473738 0 59533.6 -468730 0 63