<?xml version="1.0"?> 
<VTKFile type="StructuredGrid" version="0.1"> 
<StructuredGrid WholeExtent="0 127 0 127 0 0"> 
<Piece Extent="0 127 0 127 0 0"> 
<PointData>
<DataArray type="Float32" Name="E" format="ascii" NumberOfComponents="3"> 
-826733 0 0 -826661 0 0 -826587 0 0 -826512 0 0 -826436 0 0 -826359 0 0 -826280 0 0 -826200 0 0 -826119 0 0 -826037 0 0 -825953 0 0 -825869 0 0 -825783 0 0 -825696 0 0 -825608 0 0 -825518 0 0 -825428 0 0 -825336 0 0 -825243 0 0 -825149 0 0 -825054 0 0 -824958 0 0 -824860 0 0 -824762 0 0 -824662 0 0 -824562 0 0 -824460 0 0 -824357 0 0 -824254 0 0 -824149 0 0 -824043 0 0 -823936 0 0 -823829 0 0 -823720 0 0 -823610 0 0 -823500 0 0 -823389 0 0 -823276 0 0 -823163 0 0 -823049 0 0 -822934 0 0 -822819 0 0 -822702 0 0 -822585 0 0 -822467 0 0 -822348 0 0 -822229 0 0 -822108 0 0 -821988 0 0 -821866 0 0 -821744 0 0 -821621 0 0 -821498 0 0 -821374 0 0 -821249 0 0 -821124 0 0 -820999 0 0 -820873 0 0 -820746 0 0 -820619 0 0 -820492 0 0 -820364 0 0 -820235 0 0 -820107 0 0 -819978 0 0 -819849 0 0 -819719 0 0 -819589 0 0 -819459 0 0 -819329 0 0 -819198 0 0 -819067 0 0 -818936 0 0 -818805 0 0 -818674 0 0 -818543 0 0 -818411 0 0 -818280 0 0 -818148 0 0 -818017 0 0 -817885 0 0 -817753 0 0 -817622 0 0 -817490 0 0 -817359 0 0 -817228 0 0 -817096 0 0 -816965 0 0 -816834 0 0 -816704 0 0 -816573 0 0 -816443 0 0 -816312 0 0 -816183 0 0 -816053 0 0 -815923 0 0 -815794 0 0 -815666 0 0 -815537 0 0 -815409 0 0 -815281 0 0 -815154 0 0 -815027 0 0 -814900 0 0 -814774 0 0 -814648 0 0 -814522 0 0 -814397 0 0 -814273 0 0 -814149 0 0 -814025 0 0 -813902 0 0 -813779 0 0 -813657 0 0 -813536 0 0 -813415 0 0 -813294 0 0 -813174 0 0 -813055 0 0 -812936 0 0 -812817 0 0 -812700 0 0 -812582 0 0 -812466 0 0 -812350 0 0 -812234 0 0 -812119 0 0 -812005 0 0 -826734 89.8147 0 -826662 91.361 0 -826588 92.9053 0 -826513 94.4468 0 -826437 95.9849 0 -826360 97.5191 0 -826281 99.0486 0 -826201 100.573 0 -826120 102.091 0 -826038 103.603 0 -825954 105.108 0 -825870 106.605 0 -825784 108.094 0 -825697 109.573 0 -825608 111.043 0 -825519 112.503 0 -825428 113.952 0 -825337 115.39 0 -825244 116.816 0 -825150 118.229 0 -825055 119.629 0 -824958 121.016 0 -824861 122.388 0 -824763 123.746 0 -824663 125.088 0 -824562 126.414 0 -824461 127.724 0 -824358 129.018 0 -824254 130.294 0 -824150 131.552 0 -824044 132.791 0 -823937 134.012 0 -823829 135.214 0 -823721 136.396 0 -823611 137.558 0 -823501 138.699 0 -823389 139.82 0 -823277 140.919 0 -823164 141.996 0 -823050 143.051 0 -822935 144.084 0 -822819 145.093 0 -822703 146.08 0 -822585 147.043 0 -822467 147.983 0 -822349 148.898 0 -822229 149.789 0 -822109 150.655 0 -821988 151.496 0 -821867 152.312 0 -821744 153.103 0 -821622 153.868 0 -821498 154.607 0 -821374 155.321 0 -821250 156.008 0 -821125 156.669 0 -820999 157.303 0 -820873 157.911 0 -820746 158.492 0 -820619 159.047 0 -820492 159.574 0 -820364 160.075 0 -820236 160.548 0 -820107 160.995 0 -819978 161.415 0 -819849 161.807 0 -819719 162.173 0 -819589 162.511 0 -819459 162.823 0 -819329 163.108 0 -819198 163.366 0 -819067 163.597 0 -818936 163.801 0 -818805 163.979 0 -818674 164.13 0 -818543 164.255 0 -818411 164.354 0 -818280 164.427 0 -818148 164.475 0 -818017 164.496 0 -817885 164.493 0 -817753 164.464 0 -817622 164.41 0 -817490 164.332 0 -817359 164.229 0 -817227 164.103 0 -817096 163.952 0 -816965 163.778 0 -816834 163.581 0 -816703 163.361 0 -816573 163.118 0 -816442 162.854 0 -816312 162.567 0 -816182 162.26 0 -816053 161.931 0 -815923 161.582 0 -815794 161.212 0 -815665 160.823 0 -815537 160.415 0 -815409 159.988 0 -815281 159.543 0 -815153 159.079 0 -815026 158.599 0 -814900 158.101 0 -814773 157.587 0 -814647 157.057 0 -814522 156.512 0 -814397 155.952 0 -814272 155.378 0 -814148 154.79 0 -814025 154.189 0 -813902 153.575 0 -813779 152.949 0 -813657 152.312 0 -813535 151.663 0 -813414 151.005 0 -813294 150.336 0 -813174 149.659 0 -813054 148.973 0 -812935 148.279 0 -812817 147.578 0 -812699 146.87 0 -812582 146.155 0 -812465 145.436 0 -812349 144.711 0 -812234 143.983 0 -812119 143.25 0 -812005 142.515 0 -826737 179.632 0 -826665 182.725 0 -826591 185.815 0 -826516 188.899 0 -826440 191.976 0 -826363 195.045 0 -826284 198.105 0 -826204 201.155 0 -826123 204.193 0 -826041 207.218 0 -825957 210.228 0 -825872 213.223 0 -825787 216.201 0 -825699 219.161 0 -825611 222.103 0 -825522 225.023 0 -825431 227.922 0 -825339 230.799 0 -825246 233.651 0 -825152 236.479 0 -825057 239.28 0 -824961 242.054 0 -824864 244.799 0 -824765 247.515 0 -824666 250.2 0 -824565 252.854 0 -824463 255.475 0 -824360 258.062 0 -824257 260.615 0 -824152 263.132 0 -824046 265.612 0 -823939 268.055 0 -823832 270.459 0 -823723 272.823 0 -823613 275.148 0 -823503 277.431 0 -823391 279.673 0 -823279 281.871 0 -823166 284.026 0 -823052 286.137 0 -822937 288.203 0 -822821 290.223 0 -822705 292.197 0 -822587 294.124 0 -822469 296.003 0 -822350 297.834 0 -822231 299.616 0 -822111 301.348 0 -821990 303.031 0 -821868 304.664 0 -821746 306.246 0 -821623 307.776 0 -821500 309.255 0 -821376 310.682 0 -821251 312.057 0 -821126 313.379 0 -821000 314.648 0 -820874 315.864 0 -820747 317.026 0 -820620 318.135 0 -820493 319.19 0 -820365 320.192 0 -820237 321.139 0 -820108 322.032 0 -819979 322.872 0 -819850 323.657 0 -819720 324.388 0 -819590 325.065 0 -819460 325.688 0 -819329 326.257 0 -819199 326.773 0 -819068 327.235 0 -818937 327.644 0 -818806 327.999 0 -818674 328.302 0 -818543 328.552 0 -818411 328.749 0 -818280 328.895 0 -818148 328.989 0 -818017 329.032 0 -817885 329.025 0 -817753 328.967 0 -817622 328.859 0 -817490 328.702 0 -817359 328.496 0 -817227 328.242 0 -817096 327.941 0 -816965 327.592 0 -816834 327.197 0 -816703 326.757 0 -816572 326.271 0 -816442 325.741 0 -816312 325.168 0 -816182 324.552 0 -816052 323.894 0 -815923 323.195 0 -815793 322.456 0 -815665 321.677 0 -815536 320.86 0 -815408 320.005 0 -815280 319.113 0 -815152 318.186 0 -815025 317.224 0 -814899 316.228 0 -814772 315.199 0 -814646 314.139 0 -814521 313.048 0 -814396 311.927 0 -814271 310.777 0 -814147 309.601 0 -814024 308.397 0 -813901 307.169 0 -813778 305.916 0 -813656 304.64 0 -813534 303.343 0 -813413 302.025 0 -813292 300.687 0 -813172 299.331 0 -813053 297.958 0 -812934 296.569 0 -812816 295.166 0 -812698 293.749 0 -812581 292.319 0 -812464 290.879 0 -812348 289.429 0 -812232 287.971 0 -812118 286.505 0 -812003 285.033 0 -826742 269.453 0 -826670 274.096 0 -826596 278.733 0 -826521 283.361 0 -826445 287.98 0 -826367 292.586 0 -826289 297.179 0 -826209 301.756 0 -826128 306.315 0 -826045 310.854 0 -825962 315.372 0 -825877 319.867 0 -825791 324.337 0 -825704 328.78 0 -825616 333.194 0 -825526 337.577 0 -825436 341.928 0 -825344 346.245 0 -825251 350.526 0 -825157 354.769 0 -825062 358.973 0 -824965 363.136 0 -824868 367.256 0 -824769 371.332 0 -824670 375.362 0 -824569 379.345 0 -824467 383.278 0 -824364 387.161 0 -824261 390.992 0 -824156 394.769 0 -824050 398.491 0 -823943 402.157 0 -823835 405.765 0 -823727 409.314 0 -823617 412.802 0 -823506 416.229 0 -823395 419.592 0 -823282 422.892 0 -823169 426.126 0 -823055 429.294 0 -822940 432.394 0 -822824 435.425 0 -822708 438.387 0 -822590 441.278 0 -822472 444.098 0 -822353 446.846 0 -822234 449.52 0 -822113 452.12 0 -821992 454.645 0 -821871 457.095 0 -821748 459.468 0 -821625 461.765 0 -821502 463.984 0 -821378 466.125 0 -821253 468.188 0 -821128 470.171 0 -821002 472.075 0 -820876 473.9 0 -820749 475.644 0 -820622 477.308 0 -820494 478.891 0 -820366 480.393 0 -820238 481.814 0 -820109 483.154 0 -819980 484.413 0 -819851 485.591 0 -819721 486.688 0 -819591 487.703 0 -819461 488.637 0 -819330 489.491 0 -819199 490.264 0 -819068 490.957 0 -818937 491.569 0 -818806 492.102 0 -818675 492.555 0 -818543 492.93 0 -818412 493.225 0 -818280 493.443 0 -818148 493.584 0 -818017 493.648 0 -817885 493.635 0 -817753 493.548 0 -817621 493.385 0 -817490 493.148 0 -817358 492.838 0 -817227 492.456 0 -817095 492.003 0 -816964 491.479 0 -816833 490.885 0 -816702 490.223 0 -816572 489.493 0 -816441 488.697 0 -816311 487.836 0 -816181 486.91 0 -816051 485.921 0 -815921 484.871 0 -815792 483.761 0 -815663 482.591 0 -815535 481.363 0 -815406 480.079 0 -815278 478.74 0 -815151 477.347 0 -815024 475.902 0 -814897 474.406 0 -814771 472.861 0 -814645 471.268 0 -814519 469.629 0 -814394 467.946 0 -814270 466.22 0 -814145 464.452 0 -814022 462.645 0 -813899 460.8 0 -813776 458.919 0 -813654 457.003 0 -813532 455.055 0 -813411 453.075 0 -813290 451.066 0 -813170 449.03 0 -813051 446.968 0 -812932 444.883 0 -812814 442.775 0 -812696 440.647 0 -812578 438.501 0 -812462 436.338 0 -812346 434.161 0 -812230 431.97 0 -812115 429.769 0 -812001 427.559 0 -826749 359.281 0 -826676 365.477 0 -826603 371.664 0 -826528 377.84 0 -826451 384.002 0 -826374 390.149 0 -826295 396.277 0 -826215 402.384 0 -826134 408.467 0 -826052 414.524 0 -825968 420.553 0 -825884 426.551 0 -825798 432.515 0 -825711 438.443 0 -825622 444.332 0 -825533 450.181 0 -825442 455.987 0 -825350 461.747 0 -825257 467.459 0 -825163 473.121 0 -825068 478.731 0 -824971 484.285 0 -824874 489.783 0 -824775 495.222 0 -824676 500.599 0 -824575 505.913 0 -824473 511.161 0 -824370 516.342 0 -824266 521.453 0 -824161 526.493 0 -824055 531.459 0 -823948 536.35 0 -823841 541.164 0 -823732 545.899 0 -823622 550.553 0 -823511 555.125 0 -823400 559.612 0 -823287 564.015 0 -823174 568.329 0 -823060 572.556 0 -822944 576.692 0 -822829 580.736 0 -822712 584.688 0 -822594 588.545 0 -822476 592.307 0 -822357 595.972 0 -822237 599.54 0 -822117 603.008 0 -821996 606.377 0 -821874 609.645 0 -821752 612.811 0 -821629 615.875 0 -821505 618.835 0 -821381 621.691 0 -821256 624.442 0 -821131 627.088 0 -821005 629.628 0 -820878 632.061 0 -820752 634.387 0 -820624 636.606 0 -820497 638.718 0 -820369 640.721 0 -820240 642.616 0 -820111 644.403 0 -819982 646.082 0 -819852 647.652 0 -819723 649.114 0 -819592 650.468 0 -819462 651.713 0 -819331 652.851 0 -819200 653.881 0 -819069 654.803 0 -818938 655.619 0 -818807 656.329 0 -818675 656.932 0 -818544 657.43 0 -818412 657.823 0 -818280 658.113 0 -818148 658.299 0 -818017 658.382 0 -817885 658.364 0 -817753 658.245 0 -817621 658.026 0 -817489 657.709 0 -817358 657.294 0 -817226 656.782 0 -817095 656.175 0 -816963 655.474 0 -816832 654.68 0 -816701 653.794 0 -816570 652.819 0 -816440 651.755 0 -816309 650.603 0 -816179 649.366 0 -816049 648.045 0 -815920 646.642 0 -815791 645.158 0 -815662 643.595 0 -815533 641.955 0 -815404 640.239 0 -815276 638.45 0 -815149 636.589 0 -815022 634.659 0 -814895 632.661 0 -814768 630.597 0 -814642 628.47 0 -814517 626.281 0 -814392 624.032 0 -814267 621.727 0 -814143 619.366 0 -814019 616.953 0 -813896 614.488 0 -813773 611.976 0 -813651 609.417 0 -813529 606.815 0 -813408 604.171 0 -813287 601.489 0 -813167 598.769 0 -813048 596.016 0 -812929 593.23 0 -812810 590.416 0 -812693 587.574 0 -812575 584.708 0 -812459 581.819 0 -812343 578.912 0 -812227 575.987 0 -812112 573.048 0 -811998 570.096 0 -826758 449.119 0 -826685 456.87 0 -826611 464.611 0 -826536 472.339 0 -826460 480.049 0 -826383 487.74 0 -826304 495.407 0 -826224 503.049 0 -826143 510.66 0 -826061 518.239 0 -825977 525.782 0 -825892 533.286 0 -825806 540.749 0 -825719 548.166 0 -825630 555.535 0 -825541 562.853 0 -825450 570.117 0 -825358 577.324 0 -825265 584.471 0 -825171 591.555 0 -825076 598.573 0 -824979 605.523 0 -824882 612.402 0 -824783 619.206 0 -824683 625.934 0 -824582 632.583 0 -824480 639.149 0 -824377 645.631 0 -824273 652.026 0 -824168 658.331 0 -824062 664.544 0 -823955 670.663 0 -823847 676.686 0 -823738 682.61 0 -823628 688.432 0 -823518 694.152 0 -823406 699.766 0 -823293 705.274 0 -823180 710.672 0 -823065 715.959 0 -822950 721.133 0 -822834 726.192 0 -822717 731.136 0 -822600 735.961 0 -822481 740.667 0 -822362 745.252 0 -822242 749.714 0 -822122 754.053 0 -822001 758.267 0 -821879 762.354 0 -821756 766.315 0 -821633 770.146 0 -821509 773.849 0 -821385 777.421 0 -821260 780.862 0 -821134 784.17 0 -821008 787.347 0 -820882 790.389 0 -820755 793.298 0 -820627 796.073 0 -820500 798.713 0 -820371 801.218 0 -820243 803.587 0 -820114 805.821 0 -819984 807.92 0 -819855 809.882 0 -819724 811.709 0 -819594 813.401 0 -819464 814.957 0 -819333 816.378 0 -819202 817.665 0 -819071 818.817 0 -818939 819.836 0 -818808 820.721 0 -818676 821.474 0 -818544 822.094 0 -818413 822.584 0 -818281 822.943 0 -818149 823.174 0 -818017 823.275 0 -817885 823.25 0 -817753 823.099 0 -817621 822.822 0 -817489 822.422 0 -817357 821.9 0 -817225 821.257 0 -817094 820.494 0 -816962 819.614 0 -816831 818.618 0 -816700 817.507 0 -816569 816.283 0 -816438 814.948 0 -816308 813.505 0 -816178 811.954 0 -816048 810.298 0 -815918 808.539 0 -815788 806.679 0 -815659 804.72 0 -815530 802.664 0 -815402 800.514 0 -815274 798.272 0 -815146 795.941 0 -815019 793.522 0 -814892 791.018 0 -814765 788.433 0 -814639 785.767 0 -814514 783.025 0 -814388 780.208 0 -814264 777.32 0 -814139 774.362 0 -814016 771.339 0 -813892 768.252 0 -813770 765.105 0 -813647 761.9 0 -813526 758.64 0 -813404 755.328 0 -813284 751.968 0 -813163 748.562 0 -813044 745.113 0 -812925 741.624 0 -812806 738.098 0 -812689 734.539 0 -812571 730.949 0 -812455 727.331 0 -812338 723.689 0 -812223 720.026 0 -812108 716.345 0 -811994 712.648 0 -826768 538.967 0 -826696 548.28 0 -826622 557.58 0 -826547 566.864 0 -826471 576.128 0 -826393 585.368 0 -826315 594.579 0 -826235 603.76 0 -826153 612.904 0 -826071 622.01 0 -825987 631.072 0 -825902 640.088 0 -825816 649.053 0 -825729 657.964 0 -825641 666.817 0 -825551 675.609 0 -825460 684.336 0 -825368 692.995 0 -825275 701.581 0 -825181 710.092 0 -825085 718.523 0 -824989 726.873 0 -824891 735.136 0 -824792 743.311 0 -824692 751.394 0 -824591 759.381 0 -824489 767.269 0 -824386 775.056 0 -824282 782.738 0 -824177 790.313 0 -824071 797.777 0 -823964 805.128 0 -823856 812.362 0 -823746 819.478 0 -823636 826.473 0 -823525 833.344 0 -823414 840.088 0 -823301 846.703 0 -823187 853.187 0 -823073 859.538 0 -822957 865.753 0 -822841 871.83 0 -822724 877.768 0 -822606 883.563 0 -822488 889.216 0 -822368 894.722 0 -822248 900.082 0 -822128 905.293 0 -822006 910.354 0 -821884 915.263 0 -821761 920.019 0 -821638 924.62 0 -821514 929.066 0 -821390 933.356 0 -821264 937.487 0 -821139 941.46 0 -821013 945.274 0 -820886 948.927 0 -820759 952.42 0 -820631 955.751 0 -820503 958.92 0 -820375 961.926 0 -820246 964.77 0 -820117 967.451 0 -819987 969.969 0 -819857 972.325 0 -819727 974.517 0 -819596 976.546 0 -819466 978.412 0 -819335 980.117 0 -819204 981.659 0 -819072 983.04 0 -818941 984.26 0 -818809 985.321 0 -818677 986.221 0 -818545 986.963 0 -818413 987.548 0 -818281 987.976 0 -818149 988.249 0 -818017 988.368 0 -817885 988.333 0 -817752 988.147 0 -817620 987.811 0 -817488 987.326 0 -817356 986.695 0 -817224 985.918 0 -817093 984.998 0 -816961 983.936 0 -816830 982.734 0 -816698 981.395 0 -816567 979.921 0 -816436 978.313 0 -816306 976.574 0 -816175 974.706 0 -816045 972.711 0 -815915 970.593 0 -815786 968.354 0 -815656 965.995 0 -815528 963.521 0 -815399 960.933 0 -815271 958.234 0 -815143 955.428 0 -815015 952.517 0 -814888 949.504 0 -814762 946.393 0 -814636 943.185 0 -814510 939.885 0 -814385 936.496 0 -814260 933.02 0 -814135 929.462 0 -814011 925.824 0 -813888 922.11 0 -813765 918.324 0 -813643 914.468 0 -813521 910.546 0 -813400 906.562 0 -813279 902.519 0 -813159 898.421 0 -813039 894.272 0 -812920 890.075 0 -812802 885.834 0 -812684 881.552 0 -812566 877.233 0 -812450 872.882 0 -812333 868.501 0 -812218 864.094 0 -812103 859.665 0 -811988 855.219 0 -826781 628.829 0 -826708 639.709 0 -826635 650.575 0 -826560 661.421 0 -826483 672.244 0 -826406 683.039 0 -826327 693.801 0 -826247 704.526 0 -826166 715.21 0 -826083 725.847 0 -826000 736.435 0 -825915 746.968 0 -825828 757.442 0 -825741 767.853 0 -825653 778.196 0 -825563 788.467 0 -825472 798.663 0 -825380 808.778 0 -825287 818.809 0 -825192 828.752 0 -825097 838.602 0 -825000 848.356 0 -824902 858.01 0 -824803 867.56 0 -824703 877.002 0 -824602 886.333 0 -824500 895.548 0 -824397 904.645 0 -824292 913.619 0 -824187 922.467 0 -824081 931.187 0 -823974 939.773 0 -823865 948.225 0 -823756 956.537 0 -823646 964.707 0 -823535 972.733 0 -823423 980.611 0 -823310 988.338 0 -823196 995.911 0 -823081 1003.33 0 -822966 1010.59 0 -822849 1017.69 0 -822732 1024.62 0 -822614 1031.39 0 -822495 1037.99 0 -822376 1044.42 0 -822256 1050.68 0 -822135 1056.77 0 -822013 1062.68 0 -821891 1068.41 0 -821768 1073.96 0 -821644 1079.34 0 -821520 1084.53 0 -821395 1089.54 0 -821270 1094.36 0 -821144 1099 0 -821018 1103.45 0 -820891 1107.72 0 -820763 1111.79 0 -820636 1115.68 0 -820507 1119.38 0 -820379 1122.89 0 -820250 1126.21 0 -820120 1129.34 0 -819990 1132.27 0 -819860 1135.02 0 -819730 1137.58 0 -819599 1139.94 0 -819468 1142.12 0 -819337 1144.11 0 -819206 1145.91 0 -819074 1147.51 0 -818942 1148.94 0 -818810 1150.17 0 -818678 1151.22 0 -818546 1152.08 0 -818414 1152.76 0 -818281 1153.25 0 -818149 1153.57 0 -818017 1153.7 0 -817884 1153.65 0 -817752 1153.43 0 -817620 1153.03 0 -817488 1152.46 0 -817355 1151.72 0 -817223 1150.8 0 -817091 1149.72 0 -816960 1148.48 0 -816828 1147.07 0 -816696 1145.5 0 -816565 1143.77 0 -816434 1141.88 0 -816303 1139.84 0 -816173 1137.66 0 -816042 1135.32 0 -815912 1132.84 0 -815783 1130.21 0 -815653 1127.45 0 -815524 1124.55 0 -815395 1121.52 0 -815267 1118.37 0 -815139 1115.08 0 -815011 1111.67 0 -814884 1108.14 0 -814758 1104.5 0 -814631 1100.75 0 -814505 1096.89 0 -814380 1092.92 0 -814255 1088.85 0 -814130 1084.69 0 -814006 1080.43 0 -813883 1076.08 0 -813760 1071.65 0 -813638 1067.14 0 -813516 1062.55 0 -813394 1057.89 0 -813273 1053.16 0 -813153 1048.36 0 -813033 1043.51 0 -812914 1038.59 0 -812796 1033.63 0 -812678 1028.62 0 -812560 1023.57 0 -812444 1018.48 0 -812327 1013.35 0 -812212 1008.2 0 -812097 1003.01 0 -811982 997.812 0 -826796 718.707 0 -826723 731.161 0 -826649 743.599 0 -826574 756.015 0 -826498 768.404 0 -826420 780.761 0 -826341 793.08 0 -826261 805.357 0 -826180 817.587 0 -826097 829.764 0 -826014 841.883 0 -825929 853.94 0 -825842 865.93 0 -825755 877.847 0 -825666 889.686 0 -825577 901.444 0 -825486 913.114 0 -825393 924.693 0 -825300 936.175 0 -825205 947.556 0 -825110 958.831 0 -825013 969.996 0 -824915 981.046 0 -824816 991.977 0 -824716 1002.78 0 -824615 1013.46 0 -824512 1024.01 0 -824409 1034.42 0 -824304 1044.7 0 -824199 1054.82 0 -824092 1064.8 0 -823985 1074.63 0 -823877 1084.3 0 -823767 1093.82 0 -823657 1103.17 0 -823545 1112.35 0 -823433 1121.37 0 -823320 1130.21 0 -823206 1138.88 0 -823091 1147.37 0 -822975 1155.68 0 -822859 1163.8 0 -822741 1171.73 0 -822623 1179.48 0 -822504 1187.03 0 -822384 1194.39 0 -822264 1201.55 0 -822143 1208.52 0 -822021 1215.28 0 -821898 1221.84 0 -821775 1228.19 0 -821651 1234.34 0 -821527 1240.28 0 -821402 1246.01 0 -821276 1251.52 0 -821150 1256.83 0 -821024 1261.92 0 -820896 1266.8 0 -820769 1271.46 0 -820641 1275.91 0 -820512 1280.14 0 -820383 1284.15 0 -820254 1287.94 0 -820124 1291.52 0 -819994 1294.88 0 -819864 1298.02 0 -819733 1300.94 0 -819602 1303.64 0 -819471 1306.13 0 -819339 1308.4 0 -819208 1310.45 0 -819076 1312.28 0 -818944 1313.9 0 -818812 1315.31 0 -818679 1316.5 0 -818547 1317.48 0 -818415 1318.25 0 -818282 1318.81 0 -818149 1319.16 0 -818017 1319.31 0 -817884 1319.25 0 -817752 1318.99 0 -817619 1318.52 0 -817487 1317.86 0 -817354 1317 0 -817222 1315.95 0 -817090 1314.71 0 -816958 1313.27 0 -816826 1311.65 0 -816694 1309.84 0 -816563 1307.86 0 -816431 1305.69 0 -816300 1303.35 0 -816170 1300.84 0 -816039 1298.15 0 -815909 1295.3 0 -815779 1292.29 0 -815649 1289.12 0 -815520 1285.8 0 -815391 1282.32 0 -815263 1278.69 0 -815135 1274.92 0 -815007 1271.01 0 -814879 1266.97 0 -814753 1262.79 0 -814626 1258.48 0 -814500 1254.05 0 -814374 1249.5 0 -814249 1244.83 0 -814125 1240.06 0 -814001 1235.17 0 -813877 1230.19 0 -813754 1225.1 0 -813631 1219.93 0 -813509 1214.67 0 -813388 1209.32 0 -813267 1203.89 0 -813147 1198.4 0 -813027 1192.83 0 -812908 1187.2 0 -812789 1181.5 0 -812671 1175.76 0 -812554 1169.97 0 -812437 1164.13 0 -812321 1158.25 0 -812205 1152.34 0 -812090 1146.4 0 -811975 1140.43 0 -826812 808.603 0 -826740 822.64 0 -826666 836.658 0 -826591 850.651 0 -826514 864.614 0 -826437 878.541 0 -826358 892.425 0 -826278 906.262 0 -826196 920.046 0 -826114 933.77 0 -826030 947.429 0 -825945 961.018 0 -825858 974.531 0 -825771 987.962 0 -825682 1001.31 0 -825592 1014.56 0 -825501 1027.71 0 -825409 1040.76 0 -825315 1053.7 0 -825220 1066.53 0 -825125 1079.23 0 -825028 1091.82 0 -824930 1104.27 0 -824830 1116.59 0 -824730 1128.77 0 -824629 1140.8 0 -824526 1152.69 0 -824423 1164.42 0 -824318 1176 0 -824212 1187.41 0 -824106 1198.66 0 -823998 1209.73 0 -823889 1220.63 0 -823780 1231.35 0 -823669 1241.89 0 -823557 1252.24 0 -823445 1262.4 0 -823332 1272.36 0 -823217 1282.13 0 -823102 1291.69 0 -822986 1301.05 0 -822869 1310.2 0 -822752 1319.14 0 -822633 1327.87 0 -822514 1336.38 0 -822394 1344.67 0 -822273 1352.74 0 -822152 1360.58 0 -822030 1368.2 0 -821907 1375.58 0 -821783 1382.74 0 -821659 1389.66 0 -821535 1396.35 0 -821409 1402.81 0 -821283 1409.02 0 -821157 1414.99 0 -821030 1420.73 0 -820903 1426.22 0 -820775 1431.47 0 -820646 1436.47 0 -820518 1441.23 0 -820388 1445.75 0 -820259 1450.02 0 -820129 1454.04 0 -819998 1457.82 0 -819868 1461.35 0 -819737 1464.64 0 -819606 1467.68 0 -819474 1470.47 0 -819342 1473.02 0 -819210 1475.33 0 -819078 1477.39 0 -818946 1479.21 0 -818813 1480.78 0 -818681 1482.12 0 -818548 1483.21 0 -818415 1484.07 0 -818283 1484.7 0 -818150 1485.08 0 -818017 1485.24 0 -817884 1485.16 0 -817751 1484.86 0 -817618 1484.33 0 -817486 1483.57 0 -817353 1482.6 0 -817220 1481.4 0 -817088 1479.99 0 -816956 1478.36 0 -816824 1476.52 0 -816692 1474.48 0 -816560 1472.23 0 -816428 1469.77 0 -816297 1467.12 0 -816166 1464.28 0 -816035 1461.25 0 -815905 1458.02 0 -815775 1454.62 0 -815645 1451.03 0 -815516 1447.27 0 -815387 1443.34 0 -815258 1439.25 0 -815129 1434.98 0 -815002 1430.57 0 -814874 1425.99 0 -814747 1421.27 0 -814620 1416.4 0 -814494 1411.4 0 -814368 1406.26 0 -814243 1400.99 0 -814118 1395.59 0 -813994 1390.07 0 -813870 1384.44 0 -813747 1378.7 0 -813624 1372.86 0 -813502 1366.91 0 -813381 1360.87 0 -813260 1354.75 0 -813139 1348.54 0 -813019 1342.25 0 -812900 1335.89 0 -812781 1329.46 0 -812663 1322.97 0 -812546 1316.43 0 -812429 1309.84 0 -812313 1303.2 0 -812197 1296.52 0 -812082 1289.82 0 -811967 1283.08 0 -826831 898.519 0 -826758 914.147 0 -826684 929.755 0 -826609 945.334 0 -826533 960.881 0 -826455 976.386 0 -826376 991.845 0 -826296 1007.25 0 -826214 1022.6 0 -826132 1037.88 0 -826048 1053.09 0 -825963 1068.21 0 -825876 1083.26 0 -825789 1098.21 0 -825700 1113.07 0 -825610 1127.82 0 -825518 1142.47 0 -825426 1156.99 0 -825332 1171.4 0 -825237 1185.68 0 -825141 1199.83 0 -825044 1213.84 0 -824946 1227.7 0 -824847 1241.42 0 -824746 1254.98 0 -824644 1268.37 0 -824542 1281.61 0 -824438 1294.67 0 -824333 1307.55 0 -824227 1320.26 0 -824120 1332.78 0 -824012 1345.11 0 -823904 1357.24 0 -823794 1369.17 0 -823683 1380.9 0 -823571 1392.42 0 -823458 1403.73 0 -823345 1414.82 0 -823230 1425.69 0 -823115 1436.33 0 -822998 1446.75 0 -822881 1456.94 0 -822763 1466.89 0 -822645 1476.6 0 -822525 1486.07 0 -822405 1495.29 0 -822284 1504.27 0 -822162 1513 0 -822040 1521.47 0 -821917 1529.69 0 -821793 1537.66 0 -821668 1545.36 0 -821543 1552.8 0 -821418 1559.98 0 -821292 1566.89 0 -821165 1573.53 0 -821038 1579.91 0 -820910 1586.02 0 -820782 1591.85 0 -820653 1597.42 0 -820524 1602.71 0 -820394 1607.73 0 -820264 1612.48 0 -820134 1616.95 0 -820003 1621.15 0 -819872 1625.07 0 -819741 1628.72 0 -819609 1632.1 0 -819478 1635.2 0 -819346 1638.03 0 -819213 1640.59 0 -819081 1642.87 0 -818948 1644.89 0 -818815 1646.63 0 -818682 1648.11 0 -818549 1649.32 0 -818416 1650.27 0 -818283 1650.95 0 -818150 1651.37 0 -818017 1651.53 0 -817884 1651.44 0 -817751 1651.08 0 -817617 1650.48 0 -817484 1649.63 0 -817351 1648.53 0 -817219 1647.18 0 -817086 1645.6 0 -816953 1643.78 0 -816821 1641.72 0 -816689 1639.43 0 -816557 1636.91 0 -816425 1634.17 0 -816294 1631.2 0 -816162 1628.02 0 -816031 1624.63 0 -815901 1621.03 0 -815770 1617.22 0 -815640 1613.22 0 -815511 1609.02 0 -815381 1604.63 0 -815252 1600.05 0 -815124 1595.29 0 -814996 1590.36 0 -814868 1585.25 0 -814741 1579.98 0 -814614 1574.55 0 -814487 1568.96 0 -814361 1563.22 0 -814236 1557.34 0 -814111 1551.31 0 -813987 1545.16 0 -813863 1538.87 0 -813739 1532.46 0 -813617 1525.94 0 -813494 1519.31 0 -813373 1512.57 0 -813252 1505.73 0 -813131 1498.8 0 -813011 1491.78 0 -812892 1484.69 0 -812773 1477.51 0 -812655 1470.27 0 -812537 1462.97 0 -812420 1455.62 0 -812304 1448.21 0 -812188 1440.76 0 -812073 1433.28 0 -811959 1425.76 0 -826851 988.458 0 -826779 1005.69 0 -826705 1022.89 0 -826630 1040.07 0 -826553 1057.21 0 -826475 1074.3 0 -826396 1091.35 0 -826316 1108.33 0 -826235 1125.25 0 -826152 1142.1 0 -826068 1158.86 0 -825982 1175.54 0 -825896 1192.13 0 -825808 1208.62 0 -825719 1224.99 0 -825629 1241.26 0 -825537 1257.4 0 -825445 1273.42 0 -825351 1289.3 0 -825256 1305.04 0 -825160 1320.64 0 -825063 1336.08 0 -824964 1351.37 0 -824864 1366.49 0 -824764 1381.43 0 -824662 1396.2 0 -824559 1410.79 0 -824455 1425.19 0 -824350 1439.39 0 -824244 1453.4 0 -824137 1467.2 0 -824029 1480.79 0 -823919 1494.16 0 -823809 1507.31 0 -823698 1520.24 0 -823586 1532.94 0 -823473 1545.4 0 -823359 1557.62 0 -823244 1569.6 0 -823128 1581.33 0 -823012 1592.81 0 -822894 1604.04 0 -822776 1615 0 -822657 1625.7 0 -822537 1636.14 0 -822417 1646.3 0 -822295 1656.2 0 -822173 1665.81 0 -822051 1675.15 0 -821927 1684.2 0 -821803 1692.98 0 -821678 1701.46 0 -821553 1709.66 0 -821427 1717.56 0 -821300 1725.17 0 -821173 1732.49 0 -821046 1739.52 0 -820918 1746.24 0 -820789 1752.67 0 -820660 1758.79 0 -820530 1764.62 0 -820401 1770.14 0 -820270 1775.37 0 -820140 1780.29 0 -820009 1784.91 0 -819877 1789.22 0 -819746 1793.23 0 -819614 1796.94 0 -819481 1800.35 0 -819349 1803.46 0 -819216 1806.27 0 -819084 1808.78 0 -818951 1810.99 0 -818817 1812.9 0 -818684 1814.52 0 -818551 1815.84 0 -818417 1816.87 0 -818284 1817.61 0 -818150 1818.06 0 -818017 1818.22 0 -817883 1818.1 0 -817750 1817.7 0 -817617 1817.03 0 -817483 1816.07 0 -817350 1814.84 0 -817217 1813.35 0 -817084 1811.58 0 -816951 1809.56 0 -816818 1807.27 0 -816686 1804.73 0 -816553 1801.94 0 -816421 1798.9 0 -816289 1795.62 0 -816158 1792.1 0 -816027 1788.34 0 -815896 1784.36 0 -815765 1780.14 0 -815635 1775.71 0 -815505 1771.06 0 -815375 1766.21 0 -815246 1761.14 0 -815117 1755.88 0 -814989 1750.42 0 -814861 1744.77 0 -814733 1738.94 0 -814606 1732.94 0 -814480 1726.76 0 -814354 1720.41 0 -814228 1713.9 0 -814103 1707.25 0 -813979 1700.44 0 -813854 1693.49 0 -813731 1686.41 0 -813608 1679.2 0 -813486 1671.86 0 -813364 1664.41 0 -813243 1656.86 0 -813122 1649.2 0 -813002 1641.44 0 -812882 1633.6 0 -812763 1625.67 0 -812645 1617.67 0 -812528 1609.6 0 -812410 1601.47 0 -812294 1593.29 0 -812178 1585.06 0 -812063 1576.79 0 -811949 1568.48 0 -826874 1078.42 0 -826801 1097.26 0 -826727 1116.08 0 -826652 1134.87 0 -826575 1153.61 0 -826498 1172.3 0 -826419 1190.94 0 -826338 1209.52 0 -826257 1228.02 0 -826174 1246.44 0 -826090 1264.78 0 -826004 1283.02 0 -825918 1301.16 0 -825830 1319.19 0 -825740 1337.1 0 -825650 1354.88 0 -825559 1372.54 0 -825466 1390.05 0 -825372 1407.42 0 -825277 1424.64 0 -825180 1441.69 0 -825083 1458.58 0 -824984 1475.29 0 -824884 1491.82 0 -824783 1508.17 0 -824681 1524.32 0 -824578 1540.27 0 -824474 1556.01 0 -824368 1571.54 0 -824262 1586.86 0 -824155 1601.95 0 -824046 1616.8 0 -823937 1631.42 0 -823826 1645.8 0 -823715 1659.94 0 -823602 1673.82 0 -823489 1687.44 0 -823375 1700.81 0 -823260 1713.9 0 -823144 1726.73 0 -823027 1739.28 0 -822909 1751.54 0 -822790 1763.53 0 -822671 1775.23 0 -822551 1786.63 0 -822430 1797.74 0 -822308 1808.55 0 -822186 1819.06 0 -822063 1829.26 0 -821939 1839.16 0 -821814 1848.74 0 -821689 1858.01 0 -821563 1866.97 0 -821437 1875.61 0 -821310 1883.92 0 -821183 1891.91 0 -821055 1899.58 0 -820926 1906.93 0 -820797 1913.95 0 -820668 1920.64 0 -820538 1927 0 -820408 1933.03 0 -820277 1938.73 0 -820146 1944.1 0 -820014 1949.14 0 -819883 1953.84 0 -819751 1958.22 0 -819618 1962.26 0 -819486 1965.98 0 -819353 1969.36 0 -819220 1972.42 0 -819087 1975.15 0 -818953 1977.55 0 -818820 1979.63 0 -818686 1981.38 0 -818552 1982.81 0 -818419 1983.93 0 -818285 1984.72 0 -818151 1985.2 0 -818017 1985.36 0 -817883 1985.21 0 -817749 1984.76 0 -817615 1984 0 -817482 1982.94 0 -817348 1981.58 0 -817215 1979.93 0 -817081 1977.98 0 -816948 1975.75 0 -816815 1973.23 0 -816682 1970.43 0 -816550 1967.36 0 -816417 1964.02 0 -816285 1960.41 0 -816153 1956.54 0 -816022 1952.41 0 -815890 1948.03 0 -815759 1943.41 0 -815629 1938.54 0 -815499 1933.44 0 -815369 1928.1 0 -815239 1922.54 0 -815110 1916.77 0 -814982 1910.78 0 -814853 1904.58 0 -814726 1898.18 0 -814598 1891.59 0 -814472 1884.81 0 -814345 1877.85 0 -814220 1870.71 0 -814094 1863.41 0 -813970 1855.94 0 -813845 1848.32 0 -813722 1840.55 0 -813598 1832.64 0 -813476 1824.6 0 -813354 1816.43 0 -813233 1808.14 0 -813112 1799.74 0 -812992 1791.24 0 -812872 1782.64 0 -812753 1773.95 0 -812635 1765.18 0 -812517 1756.33 0 -812400 1747.41 0 -812283 1738.44 0 -812167 1729.42 0 -812052 1720.35 0 -811938 1711.24 0 -826898 1168.41 0 -826826 1188.88 0 -826752 1209.32 0 -826676 1229.72 0 -826600 1250.08 0 -826522 1270.39 0 -826443 1290.64 0 -826362 1310.81 0 -826281 1330.91 0 -826198 1350.92 0 -826113 1370.84 0 -826028 1390.65 0 -825941 1410.36 0 -825853 1429.94 0 -825764 1449.4 0 -825673 1468.72 0 -825581 1487.89 0 -825488 1506.92 0 -825394 1525.78 0 -825299 1544.48 0 -825202 1563 0 -825105 1581.35 0 -825006 1599.5 0 -824906 1617.46 0 -824804 1635.21 0 -824702 1652.75 0 -824599 1670.07 0 -824494 1687.17 0 -824389 1704.04 0 -824282 1720.67 0 -824174 1737.05 0 -824065 1753.19 0 -823956 1769.07 0 -823845 1784.68 0 -823733 1800.03 0 -823620 1815.1 0 -823507 1829.9 0 -823392 1844.41 0 -823277 1858.63 0 -823160 1872.55 0 -823043 1886.18 0 -822925 1899.5 0 