<?xml version="1.0"?> 
<VTKFile type="StructuredGrid" version="0.1"> 
<StructuredGrid WholeExtent="0 127 0 127 0 0"> 
<Piece Extent="0 127 0 127 0 0"> 
<PointData>
<DataArray type="Float32" Name="E" format="ascii" NumberOfComponents="3"> 
1.49012e-08 -3.44453e+06 0 561950 -3.13606e+06 0 818316 -2.85317e+06 0 984158 -2.61028e+06 0 1.09082e+06 -2.40007e+06 0 1.16561e+06 -2.21714e+06 0 1.21835e+06 -2.05618e+06 0 1.25683e+06 -1.91319e+06 0 1.28508e+06 -1.78499e+06 0 1.30605e+06 -1.6691e+06 0 1.32159e+06 -1.56358e+06 0 1.33303e+06 -1.46688e+06 0 1.3413e+06 -1.37775e+06 0 1.34706e+06 -1.29517e+06 0 1.35081e+06 -1.2183e+06 0 1.35293e+06 -1.14645e+06 0 1.35369e+06 -1.07904e+06 0 1.35332e+06 -1.01557e+06 0 1.35199e+06 -955635 0 1.34983e+06 -898874 0 1.34695e+06 -844981 0 1.34344e+06 -793689 0 1.33937e+06 -744769 0 1.33481e+06 -698017 0 1.32979e+06 -653257 0 1.32436e+06 -610333 0 1.31855e+06 -569104 0 1.3124e+06 -529448 0 1.30593e+06 -491256 0 1.29916e+06 -454427 0 1.2921e+06 -418875 0 1.28478e+06 -384519 0 1.2772e+06 -351287 0 1.26939e+06 -319115 0 1.26134e+06 -287942 0 1.25307e+06 -257715 0 1.24459e+06 -228384 0 1.23591e+06 -199905 0 1.22703e+06 -172236 0 1.21795e+06 -145340 0 1.20869e+06 -119181 0 1.19925e+06 -93726.7 0 1.18963e+06 -68948.2 0 1.17984e+06 -44817.6 0 1.16988e+06 -21309.4 0 1.15976e+06 1600.24 0 1.14948e+06 23933.2 0 1.13904e+06 45710.2 0 1.12844e+06 66950.3 0 1.1177e+06 87671.5 0 1.10681e+06 107891 0 1.09577e+06 127623 0 1.08459e+06 146884 0 1.07327e+06 165687 0 1.06181e+06 184046 0 1.05022e+06 201972 0 1.0385e+06 219477 0 1.02665e+06 236573 0 1.01467e+06 253269 0 1.00257e+06 269575 0 990342 285502 0 977996 301057 0 965534 316249 0 952956 331086 0 940265 345576 0 927464 359726 0 914554 373542 0 901537 387033 0 888417 400203 0 875194 413059 0 861872 425608 0 848452 437853 0 834936 449802 0 821327 461458 0 807627 472828 0 793837 483915 0 779961 494724 0 765999 505260 0 751953 515527 0 737827 525529 0 723622 535270 0 709339 544753 0 694982 553983 0 680551 562963 0 666049 571697 0 651477 580187 0 636839 588437 0 622134 596450 0 607366 604229 0 592536 611777 0 577647 619097 0 562699 626190 0 547695 633061 0 532636 639711 0 517524 646143 0 502362 652359 0 487150 658362 0 471891 664153 0 456586 669735 0 441237 675109 0 425845 680278 0 410412 685243 0 394941 690006 0 379432 694570 0 363887 698935 0 348308 703102 0 332696 707075 0 317053 710853 0 301380 714439 0 285680 717833 0 269953 721037 0 254201 724052 0 238425 726879 0 222628 729519 0 206811 731973 0 190975 734241 0 175121 736325 0 159251 738226 0 143367 739944 0 127470 741479 0 111561 742832 0 95642.7 744004 0 79715.4 744995 0 63780.9 745806 0 47840.7 746436 0 31896.1 746887 0 15948.7 747157 0 0 747248 0 2.47383e-09 -3.38019e+06 0 535386 -3.11058e+06 0 798138 -2.83624e+06 0 965512 -2.59993e+06 0 1.07507e+06 -2.39274e+06 0 1.15161e+06 -2.21208e+06 0 1.20604e+06 -2.05248e+06 0 1.2458e+06 -1.91049e+06 0 1.27516e+06 -1.78298e+06 0 1.29704e+06 -1.6676e+06 0 1.31336e+06 -1.56247e+06 0 1.32547e+06 -1.46607e+06 0 1.33431e+06 -1.37717e+06 0 1.34057e+06 -1.29477e+06 0 1.34475e+06 -1.21805e+06 0 1.34726e+06 -1.14632e+06 0 1.34836e+06 -1.07901e+06 0 1.34829e+06 -1.01563e+06 0 1.34723e+06 -955769 0 1.34532e+06 -899072 0 1.34266e+06 -845234 0 1.33936e+06 -793992 0 1.33547e+06 -745115 0 1.33107e+06 -698403 0 1.32621e+06 -653678 0 1.32093e+06 -610786 0 1.31526e+06 -569587 0 1.30923e+06 -529959 0 1.30287e+06 -491792 0 1.2962e+06 -454988 0 1.28925e+06 -419458 0 1.28202e+06 -385124 0 1.27453e+06 -351912 0 1.2668e+06 -319759 0 1.25884e+06 -288605 0 1.25064e+06 -258395 0 1.24224e+06 -229082 0 1.23362e+06 -200620 0 1.2248e+06 -172967 0 1.21579e+06 -146086 0 1.20659e+06 -119942 0 1.1972e+06 -94502.5 0 1.18764e+06 -69738.3 0 1.1779e+06 -45621.6 0 1.16799e+06 -22127 0 1.15792e+06 769.25 0 1.14768e+06 23089.2 0 1.13728e+06 44853.4 0 1.12673e+06 66081 0 1.11603e+06 86790 0 1.10518e+06 106997 0 1.09418e+06 126718 0 1.08304e+06 145967 0 1.07175e+06 164759 0 1.06033e+06 183106 0 1.04878e+06 201022 0 1.03709e+06 218516 0 1.02527e+06 235601 0 1.01332e+06 252287 0 1.00125e+06 268584 0 989057 284500 0 976742 300045 0 964309 315228 0 951760 330056 0 939097 344536 0 926323 358677 0 913440 372485 0 900450 385967 0 887355 399129 0 874158 411977 0 860860 424517 0 847465 436755 0 833973 448696 0 820388 460345 0 806711 471707 0 792944 482787 0 779090 493589 0 765150 504118 0 751127 514378 0 737022 524373 0 722838 534108 0 708576 543585 0 694239 552809 0 679828 561783 0 665346 570511 0 650794 578996 0 636175 587240 0 621490 595248 0 606741 603022 0 591930 610565 0 577059 617879 0 562129 624969 0 547143 631835 0 532102 638481 0 517008 644908 0 501863 651120 0 486669 657119 0 471427 662906 0 456139 668484 0 440806 673855 0 425431 679020 0 410016 683982 0 394560 688743 0 379068 693303 0 363539 697665 0 347975 701830 0 332379 705800 0 316752 709576 0 301095 713159 0 285410 716551 0 269699 719753 0 253962 722766 0 238202 725591 0 222421 728229 0 206618 730681 0 190797 732948 0 174958 735031 0 159104 736930 0 143234 738647 0 127352 740181 0 111458 741534 0 95554.5 742705 0 79641.9 743696 0 63722.2 744506 0 47796.7 745136 0 31866.8 745586 0 15934.1 745856 0 0 745946 0 -7.27596e-10 -3.32107e+06 0 511103 -3.0841e+06 0 778313 -2.8194e+06 0 947347 -2.58924e+06 0 1.05949e+06 -2.3853e+06 0 1.13779e+06 -2.20685e+06 0 1.19382e+06 -2.04868e+06 0 1.23485e+06 -1.90769e+06 0 1.26529e+06 -1.78089e+06 0 1.28807e+06 -1.66604e+06 0 1.30516e+06 -1.5613e+06 0 1.31792e+06 -1.4652e+06 0 1.32733e+06 -1.37654e+06 0 1.33408e+06 -1.29433e+06 0 1.33871e+06 -1.21776e+06 0 1.34159e+06 -1.14616e+06 0 1.34303e+06 -1.07896e+06 0 1.34327e+06 -1.01567e+06 0 1.34248e+06 -955882 0 1.34081e+06 -899250 0 1.33838e+06 -845470 0 1.33527e+06 -794278 0 1.33158e+06 -745447 0 1.32735e+06 -698775 0 1.32264e+06 -654087 0 1.3175e+06 -611228 0 1.31196e+06 -570060 0 1.30606e+06 -530460 0 1.29981e+06 -492319 0 1.29325e+06 -455540 0 1.2864e+06 -420033 0 1.27927e+06 -385721 0 1.27187e+06 -352530 0 1.26422e+06 -320397 0 1.25633e+06 -289261 0 1.24821e+06 -259070 0 1.23988e+06 -229774 0 1.23133e+06 -201328 0 1.22258e+06 -173692 0 1.21362e+06 -146827 0 1.20448e+06 -120698 0 1.19515e+06 -95273.8 0 1.18564e+06 -70524.1 0 1.17596e+06 -46421.5 0 1.1661e+06 -22940.7 0 1.15607e+06 -57.9018 0 1.14588e+06 22248.9 0 1.13553e+06 44000.2 0 1.12502e+06 65215.2 0 1.11436e+06 85911.8 0 1.10355e+06 106107 0 1.09259e+06 125816 0 1.08148e+06 145053 0 1.07024e+06 163834 0 1.05885e+06 182170 0 1.04733e+06 200074 0 1.03568e+06 217558 0 1.02389e+06 234633 0 1.01198e+06 251308 0 999937 267594 0 987774 283501 0 975488 299036 0 963084 314209 0 950564 329028 0 937929 343499 0 925182 357631 0 912326 371430 0 899363 384903 0 886294 398057 0 873122 410897 0 859849 423429 0 846478 435659 0 833011 447592 0 819449 459233 0 805795 470587 0 792051 481660 0 778219 492455 0 764302 502977 0 750300 513231 0 736217 523220 0 722054 532948 0 707813 542419 0 693496 551637 0 679106 560605 0 664644 569327 0 650112 577806 0 635512 586045 0 620846 594047 0 606116 601816 0 591324 609354 0 576471 616664 0 561560 623748 0 546592 630610 0 531569 637251 0 516493 643675 0 501365 649883 0 486188 655877 0 470963 661661 0 455692 667235 0 440377 672602 0 425018 677764 0 409619 682723 0 394180 687480 0 378704 692037 0 363191 696396 0 347644 700559 0 332063 704526 0 316452 708299 0 300811 711880 0 285141 715270 0 269445 718470 0 253724 721481 0 237980 724304 0 222213 726940 0 206426 729391 0 190620 731657 0 174796 733738 0 158956 735636 0 143102 737352 0 127234 738885 0 111355 740236 0 95466.3 741407 0 79568.5 742397 0 63663.5 743206 0 47752.7 743836 0 31837.5 744286 0 15919.4 744556 0 0 744646 0 -3.84171e-09 -3.26641e+06 0 488829 -3.057e+06 0 758921 -2.80257e+06 0 929630 -2.57828e+06 0 1.04409e+06 -2.37773e+06 0 1.12412e+06 -2.20147e+06 0 1.1817e+06 -2.04476e+06 0 1.22397e+06 -1.90479e+06 0 1.25547e+06 -1.77872e+06 0 1.27914e+06 -1.66441e+06 0 1.29699e+06 -1.56007e+06 0 1.3104e+06 -1.46429e+06 0 1.32037e+06 -1.37587e+06 0 1.32762e+06 -1.29385e+06 0 1.33267e+06 -1.21745e+06 0 1.33593e+06 -1.14598e+06 0 1.33772e+06 -1.07888e+06 0 1.33825e+06 -1.01568e+06 0 1.33774e+06 -955973 0 1.33631e+06 -899410 0 1.3341e+06 -845689 0 1.3312e+06 -794549 0 1.32768e+06 -745764 0 1.32362e+06 -699134 0 1.31907e+06 -654483 0 1.31407e+06 -611659 0 1.30866e+06 -570522 0 1.30288e+06 -530951 0 1.29676e+06 -492838 0 1.29031e+06 -456083 0 1.28355e+06 -420600 0 1.27651e+06 -386310 0 1.2692e+06 -353141 0 1.26164e+06 -321028 0 1.25383e+06 -289911 0 1.24579e+06 -259739 0 1.23752e+06 -230461 0 1.22904e+06 -202032 0 1.22035e+06 -174412 0 1.21146e+06 -147563 0 1.20238e+06 -121450 0 1.19311e+06 -96040.5 0 1.18365e+06 -71305.5 0 1.17402e+06 -47217.3 0 1.16421e+06 -23750.4 0 1.15423e+06 -881.216 0 1.14408e+06 21412.3 0 1.13378e+06 43150.6 0 1.12331e+06 64352.8 0 1.11269e+06 85036.9 0 1.10192e+06 105220 0 1.091e+06 124917 0 1.07993e+06 144143 0 1.06872e+06 162912 0 1.05737e+06 181237 0 1.04589e+06 199130 0 1.03427e+06 216603 0 1.02252e+06 233667 0 1.01063e+06 250332 0 998624 266608 0 986491 282504 0 974235 298030 0 961861 313193 0 949369 328002 0 936762 342464 0 924043 356587 0 911213 370377 0 898276 383842 0 885233 396987 0 872087 409818 0 858839 422342 0 845493 434564 0 832049 446489 0 818511 458123 0 804880 469470 0 791159 480535 0 777350 491323 0 763454 501839 0 749474 512085 0 735412 522068 0 721270 531789 0 707050 541254 0 692754 550466 0 678384 559428 0 663942 568144 0 649430 576617 0 634849 584851 0 620203 592848 0 605492 600612 0 590718 608145 0 575884 615450 0 560991 622529 0 546041 629387 0 531036 636023 0 515977 642443 0 500867 648646 0 485708 654637 0 470500 660417 0 455246 665987 0 439947 671351 0 424605 676509 0 409223 681465 0 393800 686219 0 378340 690773 0 362843 695129 0 347312 699289 0 331748 703253 0 316152 707024 0 300526 710603 0 284873 713990 0 269192 717188 0 253486 720197 0 237757 723018 0 222005 725653 0 206233 728102 0 190442 730366 0 174634 732446 0 158809 734343 0 142969 736057 0 127117 737590 0 111253 738940 0 95378.2 740110 0 79495.2 741099 0 63604.8 741908 0 47708.7 742537 0 31808.2 742987 0 15904.8 743257 0 0 743347 0 5.23869e-10 -3.21561e+06 0 468345 -3.02957e+06 0 740017 -2.7857e+06 0 912335 -2.56709e+06 0 1.0289e+06 -2.37002e+06 0 1.11061e+06 -2.19595e+06 0 1.16966e+06 -2.04074e+06 0 1.21316e+06 -1.9018e+06 0 1.2457e+06 -1.77647e+06 0 1.27025e+06 -1.66271e+06 0 1.28885e+06 -1.55879e+06 0 1.3029e+06 -1.46332e+06 0 1.31343e+06 -1.37515e+06 0 1.32116e+06 -1.29334e+06 0 1.32665e+06 -1.2171e+06 0 1.33029e+06 -1.14576e+06 0 1.33241e+06 -1.07877e+06 0 1.33324e+06 -1.01567e+06 0 1.333e+06 -956044 0 1.33182e+06 -899551 0 1.32982e+06 -845890 0 1.32712e+06 -794804 0 1.32379e+06 -746067 0 1.3199e+06 -699479 0 1.3155e+06 -654868 0 1.31065e+06 -612078 0 1.30537e+06 -570974 0 1.29972e+06 -531433 0 1.2937e+06 -493347 0 1.28736e+06 -456618 0 1.28071e+06 -421160 0 1.27376e+06 -386892 0 1.26654e+06 -353745 0 1.25906e+06 -321652 0 1.25133e+06 -290555 0 1.24336e+06 -260401 0 1.23517e+06 -231141 0 1.22675e+06 -202730 0 1.21813e+06 -175127 0 1.2093e+06 -148294 0 1.20028e+06 -122197 0 1.19106e+06 -96802.8 0 1.18166e+06 -72082.6 0 1.17207e+06 -48008.9 0 1.16232e+06 -24556.1 0 1.15238e+06 -1700.69 0 1.14229e+06 20579.3 0 1.13202e+06 42304.5 0 1.1216e+06 63493.9 0 1.11102e+06 84165.4 0 1.10029e+06 104336 0 1.08941e+06 124021 0 1.07838e+06 143235 0 1.06721e+06 161992 0 1.0559e+06 180306 0 1.04445e+06 198188 0 1.03286e+06 215650 0 1.02114e+06 232703 0 1.00929e+06 249358 0 997311 265624 0 985209 281510 0 972983 297026 0 960638 312179 0 948175 326979 0 935596 341432 0 922904 355545 0 910102 369327 0 897191 382782 0 884173 395919 0 871052 408742 0 857830 421258 0 844507 433472 0 831088 445389 0 817573 457015 0 803966 468355 0 790268 479413 0 776481 490194 0 762607 500702 0 748649 510942 0 734608 520917 0 720488 530632 0 706288 540091 0 692013 549297 0 677663 558253 0 663241 566963 0 648748 575431 0 634187 583659 0 619560 591651 0 604868 599409 0 590113 606937 0 575297 614237 0 560422 621312 0 545490 628165 0 530503 634797 0 515462 641212 0 500370 647412 0 485227 653398 0 470037 659174 0 454800 664741 0 439518 670101 0 424193 675256 0 408826 680208 0 393420 684959 0 377976 689510 0 362496 693863 0 346981 698020 0 331432 701982 0 315852 705751 0 300242 709327 0 284604 712712 0 268939 715908 0 253248 718915 0 237534 721734 0 221798 724367 0 206041 726814 0 190265 729077 0 174471 731156 0 158661 733051 0 142837 734764 0 126999 736296 0 111150 737645 0 95290.2 738815 0 79421.8 739803 0 63546.2 740612 0 47664.8 741240 0 31778.9 741689 0 15890.1 741959 0 0 742049 0 -5.82077e-10 -3.16817e+06 0 449454 -3.00201e+06 0 721636 -2.76878e+06 0 895446 -2.55572e+06 0 1.01391e+06 -2.36216e+06 0 1.09725e+06 -2.1903e+06 0 1.15773e+06 -2.0366e+06 0 1.20243e+06 -1.89871e+06 0 1.23598e+06 -1.77415e+06 0 1.26139e+06 -1.66095e+06 0 1.28073e+06 -1.55745e+06 0 1.29543e+06 -1.46231e+06 0 1.30651e+06 -1.3744e+06 0 1.31473e+06 -1.29279e+06 0 1.32063e+06 -1.21671e+06 0 1.32465e+06 -1.14551e+06 0 1.3271e+06 -1.07864e+06 0 1.32824e+06 -1.01564e+06 0 1.32826e+06 -956094 0 1.32732e+06 -899672 0 1.32555e+06 -846075 0 1.32305e+06 -795044 0 1.3199e+06 -746355 0 1.31618e+06 -699812 0 1.31194e+06 -655240 0 1.30722e+06 -612486 0 1.30208e+06 -571415 0 1.29655e+06 -531905 0 1.29065e+06 -493847 0 1.28441e+06 -457145 0 1.27786e+06 -421711 0 1.27101e+06 -387467 0 1.26388e+06 -354341 0 1.25648e+06 -322270 0 1.24883e+06 -291193 0 1.24094e+06 -261058 0 1.23282e+06 -231817 0 1.22447e+06 -203423 0 1.21591e+06 -175837 0 1.20714e+06 -149021 0 1.19818e+06 -122939 0 1.18902e+06 -97560.6 0 1.17967e+06 -72855.4 0 1.17014e+06 -48796.3 0 1.16043e+06 -25357.8 0 1.15054e+06 -2516.34 0 1.14049e+06 19750.1 0 1.13027e+06 41462 0 1.11989e+06 62638.4 0 1.10936e+06 83297.3 0 1.09867e+06 103455 0 1.08782e+06 123128 0 1.07683e+06 142330 0 1.0657e+06 161076 0 1.05442e+06 179378 0 1.043e+06 197249 0 1.03145e+06 214700 0 1.01976e+06 231742 0 1.00795e+06 248386 0 996000 264642 0 983928 280518 0 971732 296024 0 959416 311168 0 946981 325958 0 934430 340401 0 921766 354506 0 908990 368278 0 896106 381725 0 883114 394853 0 870019 407668 0 856821 420175 0 843523 432381 0 830127 444290 0 816636 455909 0 803052 467241 0 789377 478292 0 775612 489065 0 761761 499567 0 747824 509800 0 733805 519769 0 719705 529477 0 705527 538929 0 691272 548129 0 676942 557079 0 662540 565784 0 648067 574246 0 633525 582468 0 618917 590455 0 604244 598208 0 589508 605731 0 574710 613026 0 559854 620096 0 544940 626944 0 529971 633572 0 514948 639983 0 499873 646178 0 484748 652161 0 469574 657933 0 454354 663496 0 439089 668852 0 423780 674004 0 408431 678953 0 393041 683700 0 377613 688249 0 362149 692599 0 346649 696753 0 331117 700712 0 315553 704478 0 299958 708052 0 284335 711435 0 268686 714628 0 253011 717633 0 237312 720451 0 221591 723082 0 205849 725528 0 190088 727789 0 174309 729866 0 158514 731761 0 142705 733473 0 126882 735003 0 111047 736352 0 95202.2 737520 0 79348.6 738508 0 63487.6 739316 0 47620.8 739944 0 31749.6 740393 0 15875.5 740662 0 0 740753 0 9.19681e-09 -3.12367e+06 0 431989 -2.97452e+06 0 703804 -2.75178e+06 0 878946 -2.54418e+06 0 999143 -2.35418e+06 0 1.08405e+06 -2.18453e+06 0 1.1459e+06 -2.03237e+06 0 1.19177e+06 -1.89554e+06 0 1.22632e+06 -1.77175e+06 0 1.25258e+06 -1.65912e+06 0 1.27265e+06 -1.55606e+06 0 1.28798e+06 -1.46125e+06 0 1.29961e+06 -1.3736e+06 0 1.3083e+06 -1.29221e+06 0 1.31463e+06 -1.2163e+06 0 1.31903e+06 -1.14524e+06 0 1.32181e+06 -1.07849e+06 0 1.32325e+06 -1.01558e+06 0 1.32354e+06 -956124 0 1.32284e+06 -899775 0 1.32129e+06 -846242 0 1.31898e+06 -795268 0 1.31602e+06 -746630 0 1.31246e+06 -700131 0 1.30838e+06 -655600 0 1.30381e+06 -612883 0 1.2988e+06 -571846 0 1.29339e+06 -532367 0 1.2876e+06 -494338 0 1.28147e+06 -457663 0 1.27502e+06 -422254 0 1.26826e+06 -388034 0 1.26122e+06 -354931 0 1.25391e+06 -322881 0 1.24633e+06 -291824 0 1.23852e+06 -261709 0 1.23046e+06 -232486 0 1.22219e+06 -204111 0 1.21369e+06 -176542 0 1.20499e+06 -149742 0 1.19608e+06 -123677 0 1.18697e+06 -98313.8 0 1.17768e+06 -73624 0 1.1682e+06 -49579.7 0 1.15854e+06 -26155.6 0 1.1487e+06 -3328.15 0 1.1387e+06 18924.6 0 1.12852e+06 40623.1 0 1.11819e+06 61786.4 0 1.10769e+06 82432.4 0 1.09704e+06 102578 0 1.08624e+06 122238 0 1.07529e+06 141429 0 1.06419e+06 160163 0 1.05294e+06 178453 0 1.04156e+06 196313 0 1.03004e+06 213753 0 1.01839e+06 230784 0 1.0066e+06 247418 0 994689 263663 0 982647 279529 0 970482 295025 0 958195 310159 0 945788 324939 0 933266 339373 0 920629 353469 0 907880 367232 0 895021 380670 0 882056 393789 0 868985 406595 0 855812 419095 0 842539 431292 0 829168 443194 0 815700 454805 0 802139 466129 0 788486 477173 0 774744 487939 0 760915 498433 0 747000 508660 0 733002 518622 0 718924 528324 0 704766 537770 0 690531 546963 0 676222 555907 0 661840 564606 0 647386 573062 0 632864 581279 0 618275 589260 0 603621 597008 0 588903 604526 0 574124 611816 0 559286 618882 0 544390 625725 0 529439 632349 0 514433 638755 0 499376 644946 0 484268 650925 0 469112 656693 0 453908 662252 0 438660 667605 0 423368 672753 0 408035 677699 0 392662 682443 0 377250 686988 0 361802 691336 0 346318 695487 0 330802 699444 0 315253 703207 0 299674 706778 0 284067 710159 0 268433 713350 0 252773 716353 0 237090 719169 0 221384 721798 0 205657 724243 0 189911 726502 0 174147 728578 0 158367 730471 0 142572 732182 0 126764 733711 0 110944 735059 0 95114.3 736227 0 79275.4 737214 0 63429.1 738021 0 47576.9 738649 0 31720.4 739098 0 15860.9 739367 0 0 739457 0 -6.8685e-09 -3.08174e+06 0 415801 -2.94721e+06 0 686531 -2.73472e+06 0 862827 -2.53251e+06 0 984598 -2.34605e+06 0 1.07101e+06 -2.17864e+06 0 1.13418e+06 -2.02803e+06 0 1.18118e+06 -1.89228e+06 0 1.21671e+06 -1.76927e+06 0 1.24381e+06 -1.65722e+06 0 1.2646e+06 -1.55461e+06 0 1.28055e+06 -1.46014e+06 0 1.29273e+06 -1.37276e+06 0 1.3019e+06 -1.29158e+06 0 1.30865e+06 -1.21585e+06 0 1.31341e+06 -1.14494e+06 0 1.31653e+06 -1.07831e+06 0 1.31826e+06 -1.0155e+06 0 1.31882e+06 -956132 0 1.31836e+06 -899860 0 1.31703e+06 -846392 0 1.31492e+06 -795476 0 1.31214e+06 -746890 0 1.30875e+06 -700437 0 1.30482e+06 -655948 0 1.30039e+06 -613269 0 1.29551e+06 -572267 0 1.29022e+06 -532819 0 1.28456e+06 -494820 0 1.27853e+06 -458173 0 1.27218e+06 -422790 0 1.26552e+06 -388594 0 1.25856e+06 -355514 0 1.25133e+06 -323485 0 1.24384e+06 -292450 0 1.2361e+06 -262354 0 1.22811e+06 -233150 0 1.2199e+06 -204793 0 1.21147e+06 -177241 0 1.20283e+06 -150459 0 1.19398e+06 -124410 0 1.18493e+06 -99062.7 0 1.17569e+06 -74388.2 0 1.16626e+06 -50358.9 0 1.15665e+06 -26949.4 0 1.14686e+06 -4136.13 0 1.1369e+06 18102.8 0 1.12678e+06 39787.7 0 1.11648e+06 60937.8 0 1.10603e+06 81571 0 1.09542e+06 101704 0 1.08465e+06 121352 0 1.07374e+06 140530 0 1.06268e+06 159252 0 1.05147e+06 177531 0 1.04012e+06 195379 0 1.02864e+06 212808 0 1.01702e+06 229829 0 1.00526e+06 246452 0 993379 262686 0 981368 278542 0 969232 294028 0 956974 309152 0 944597 323923 0 932102 338347 0 919492 352433 0 906770 366188 0 893938 379617 0 880998 392728 0 867953 405525 0 854805 418016 0 841556 430206 0 828208 442100 0 814764 453702 0 801226 465019 0 787596 476055 0 773877 486815 0 760069 497302 0 746176 507521 0 732200 517477 0 718142 527172 0 704006 536612 0 689791 545799 0 675502 554737 0 661140 563430 0 646706 571880 0 632203 580092 0 617633 588068 0 602998 595810 0 588299 603323 0 573539 610608 0 558719 617669 0 543841 624508 0 528907 631127 0 513920 637529 0 498879 643716 0 483789 649690 0 468650 655454 0 453463 661010 0 438232 666359 0 422957 671504 0 407640 676446 0 392283 681187 0 376887 685729 0 361455 690074 0 345988 694222 0 330487 698176 0 314954 701937 0 299391 705506 0 283799 708885 0 268180 712074 0 252536 715075 0 236868 717888 0 221177 720516 0 205465 722959 0 189734 725217 0 173985 727291 0 158220 729183 0 142440 730893 0 126647 732421 0 110842 733768 0 95026.4 734935 0 79202.2 735921 0 63370.6 736728 0 47533.1 737356 0 31691.1 737804 0 15846.3 738073 0 0 738163 0 2.91038e-09 -3.04209e+06 0 400760 -2.92019e+06 0 669824 -2.71761e+06 0 847078 -2.52072e+06 0 970278 -2.33781e+06 0 1.05811e+06 -2.17264e+06 0 1.12256e+06 -2.02359e+06 0 1.17067e+06 -1.88894e+06 0 1.20715e+06 -1.76673e+06 0 1.23508e+06 -1.65527e+06 0 1.25658e+06 -1.5531e+06 0 1.27315e+06 -1.45898e+06 0 1.28586e+06 -1.37188e+06 0 1.29551e+06 -1.29092e+06 0 1.30267e+06 -1.21537e+06 0 1.30781e+06 -1.14461e+06 0 1.31125e+06 -1.0781e+06 0 1.31328e+06 -1.0154e+06 0 1.3141e+06 -956120 0 1.31389e+06 -899925 0 1.31277e+06 -846526 0 1.31087e+06 -795669 0 1.30827e+06 -747135 0 1.30504e+06 -700731 0 1.30126e+06 -656284 0 1.29698e+06 -613644 0 1.29223e+06 -572677 0 1.28707e+06 -533262 0 1.28151e+06 -495293 0 1.27559e+06 -458674 0 1.26934e+06 -423317 0 1.26277e+06 -389146 0 1.25591e+06 -356089 0 1.24876e+06 -324083 0 1.24135e+06 -293068 0 1.23368e+06 -262993 0 1.22577e+06 -233808 0 1.21762e+06 -205469 0 1.20926e+06 -177936 0 1.20067e+06 -151170 0 1.19188e+06 -125138 0 1.18289e+06 -99807 0 1.1737e+06 -75148.1 0 1.16433e+06 -51133.9 0 1.15477e+06 -27739.2 0 1.14503e+06 -4940.29 0 1.13511e+06 17284.6 0 1.12503e+06 38955.9 0 1.11478e+06 60092.7 0 1.10437e+06 80712.8 0 1.09379e+06 100833 0 1.08307e+06 120469 0 1.07219e+06 139635 0 1.06117e+06 158345 0 1.05e+06 176612 0 1.03868e+06 194449 0 1.02723e+06 211867 0 1.01564e+06 228876 0 1.00392e+06 245488 0 992069 261712 0 980089 277558 0 967983 293033 0 955754 308148 0 943405 322909 0 930938 337324 0 918356 351401 0 905661 365146 0 892855 378566 0 879941 391668 0 866921 404457 0 853798 416940 0 840573 429121 0 827250 441007 0 813829 452602 0 800314 463911 0 786707 474940 0 773010 485692 0 759224 496172 0 745353 506384 0 731398 516333 0 717362 526022 0 703246 535455 0 689052 544636 0 674783 553568 0 660440 562255 0 646026 570700 0 631543 578906 0 616992 586876 0 602375 594614 0 587695 602121 0 572953 609402 0 558152 616457 0 543292 623291 0 528376 629906 0 513406 636304 0 498383 642487 0 483310 648457 0 468188 654217 0 453018 659769 0 437804 665115 0 422545 670256 0 407245 675195 0 391904 679933 0 376525 684472 0 361108 688813 0 345657 692959 0 330172 696910 0 314655 700668 0 299107 704235 0 283531 707611 0 267928 710798 0 252299 713797 0 236646 716609 0 220970 719235 0 205273 721676 0 189557 723932 0 173824 726006 0 158073 727896 0 142308 729605 0 126530 731132 0 110739 732478 0 94938.6 733644 0 79129.1 734630 0 63312.1 735436 0 47489.2 736063 0 31661.9 736511 0 15831.7 736780 0 0 736870 0 -3.95812e-09 -3.00447e+06 0 386753 -2.89352e+06 0 653680 -2.70046e+06 0 831693 -2.50883e+06 0 956187 -2.32944e+06 0 1.04538e+06 -2.16653e+06 0 1.11104e+06 -2.01906e+06 0 1.16024e+06 -1.88551e+06 0 1.19766e+06 -1.76411e+06 0 1.22639e+06 -1.65325e+06 0 1.24859e+06 -1.55154e+06 0 1.26577e+06 -1.45778e+06 0 1.27902e+06 -1.37096e+06 0 1.28913e+06 -1.29023e+06 0 1.29671e+06 -1.21486e+06 0 1.30221e+06 -1.14425e+06 0 1.30599e+06 -1.07787e+06 0 1.30831e+06 -1.01528e+06 0 1.3094e+06 -956088 0 1.30942e+06 -899972 0 1.30852e+06 -846642 0 1.30681e+06 -795847 0 1.30439e+06 -747367 0 1.30134e+06 -701011 0 1.29771e+06 -656608 0 1.29357e+06 -614008 0 1.28895e+06 -573077 0 1.28391e+06 -533695 0 1.27847e+06 -495757 0 1.27266e+06 -459167 0 1.2665e+06 -423837 0 1.26003e+06 -389691 0 1.25325e+06 -356658 0 1.24619e+06 -324674 0 1.23885e+06 -293681 0 1.23126e+06 -263626 0 1.22342e+06 -234461 0 1.21534e+06 -206141 0 1.20704e+06 -178625 0 1.19852e+06 -151877 0 1.18979e+06 -125861 0 1.18085e+06 -100547 0 1.17172e+06 -75903.7 0 1.16239e+06 -51904.9 0 1.15288e+06 -28525 0 1.14319e+06 -5740.62 0 1.13332e+06 16470.1 0 1.12328e+06 38127.7 0 1.11307e+06 59251 0 1.1027e+06 79858 0 1.09217e+06 99965.2 0 1.08149e+06 119588 0 1.07065e+06 138742 0 1.05966e+06 157440 0 1.04852e+06 175696 0 1.03724e+06 193521 0 1.02583e+06 210927 0 1.01427e+06 227926 0 1.00258e+06 244527 0 990761 260741 0 978811 276576 0 966735 292041 0 954536 307146 0 942215 321897 0 929776 336303 0 917221 350370 0 904553 364106 0 891773 377517 0 878885 390610 0 865890 403391 0 852792 415865 0 839591 428039 0 826292 439916 0 812895 451504 0 799403 462805 0 785819 473826 0 772144 484571 0 758380 495044 0 744531 505250 0 730597 515192 0 716582 524874 0 702486 534301 0 688313 543475 0 674064 552401 0 659741 561082 0 645347 569521 0 630883 577722 0 616351 585686 0 601753 593419 0 587092 600921 0 572369 608196 0 557585 615248 0 542743 622077 0 527845 628687 0 512893 635080 0 497887 641259 0 482831 647225 0 467726 652981 0 452574 658529 0 437376 663871 0 422134 669009 0 406850 673945 0 391525 678679 0 376162 683215 0 360762 687554 0 345327 691697 0 329857 695645 0 314356 699401 0 298824 702965 0 283263 706339 0 267675 709524 0 252062 712521 0 236424 715331 0 220763 717955 0 205082 720394 0 189381 722649 0 173662 724721 0 157926 726610 0 142176 728318 0 126412 729844 0 110637 731189 0 94850.9 732354 0 79056 733340 0 63253.7 734145 0 47445.4 734772 0 31632.7 735220 0 15817.1 735488 0 0 735578 0 2.56114e-09 -2.96866e+06 0 373679 -2.86725e+06 0 638094 -2.68329e+06 0 816664 -2.49685e+06 0 942324 -2.32096e+06 0 1.0328e+06 -2.16032e+06 0 1.09964e+06 -2.01443e+06 0 1.14989e+06 -1.882e+06 0 1.18822e+06 -1.76142e+06 0 1.21775e+06 -1.65118e+06 0 1.24064e+06 -1.54993e+06 0 1.25842e+06 -1.45653e+06 0 1.2722e+06 -1.37e+06 0 1.28278e+06 -1.2895e+06 0 1.29077e+06 -1.21432e+06 0 1.29663e+06 -1.14386e+06 0 1.30073e+06 -1.07761e+06 0 1.30335e+06 -1.01513e+06 0 1.3047e+06 -956035 0 1.30496e+06 -900001 0 1.30428e+06 -846741 0 1.30277e+06 -796009 0 1.30053e+06 -747585 0 1.29764e+06 -701278 0 1.29416e+06 -656920 0 1.29016e+06 -614360 0 1.28568e+06 -573466 0 1.28076e+06 -534119 0 1.27543e+06 -496212 0 1.26972e+06 -459651 0 1.26367e+06 -424349 0 1.25729e+06 -390228 0 1.2506e+06 -357220 0 1.24362e+06 -325259 0 1.23636e+06 -294287 0 1.22884e+06 -264253 0 1.22108e+06 -235108 0 1.21307e+06 -206807 0 1.20483e+06 -179309 0 1.19637e+06 -152579 0 1.18769e+06 -126580 0 1.17881e+06 -101282 0 1.16973e+06 -76655 0 1.16046e+06 -52671.7 0 1.151e+06 -29306.9 0 1.14135e+06 -6537.13 0 1.13153e+06 15659.4 0 1.12154e+06 37303 0 1.11137e+06 58412.8 0 1.10104e+06 79006.5 0 1.09055e+06 99100.8 0 1.0799e+06 118711 0 1.0691e+06 137853 0 1.05815e+06 156539 0 1.04705e+06 174782 0 1.03581e+06 192596 0 1.02442e+06 209991 0 1.0129e+06 226979 0 1.00124e+06 243569 0 989454 259772 0 977534 275596 0 965488 291052 0 953318 306146 0 941025 320887 0 928614 335283 0 916087 349342 0 903445 363068 0 890692 376471 0 877829 389555 0 864860 402327 0 851786 414793 0 838610 426958 0 825334 438828 0 811961 450407 0 798492 461701 0 784931 472715 0 771278 483452 0 757537 493918 0 743709 504116 0 729797 514052 0 715802 523727 0 701727 533148 0 687575 542316 0 673346 551236 0 659043 559911 0 644668 568344 0 630223 576539 0 615711 584498 0 601132 592225 0 586489 599722 0 571784 606993 0 557019 614039 0 542195 620864 0 527315 627469 0 512380 633858 0 497392 640033 0 482353 645995 0 467265 651747 0 452129 657291 0 436948 662630 0 421723 667764 0 406455 672696 0 391147 677428 0 375800 681960 0 360416 686296 0 344997 690436 0 329543 694382 0 314057 698135 0 298541 701697 0 282996 705068 0 267423 708251 0 251825 711246 0 236202 714054 0 220557 716676 0 204890 719114 0 189204 721367 0 173500 723438 0 157780 725326 0 142044 727032 0 126295 728557 0 110535 729902 0 94763.2 731066 0 78983 732050 0 63195.3 732856 0 47401.7 733482 0 31603.6 733929 0 15802.5 734198 0 0 734288 0 6.98492e-10 -2.93448e+06 0 361451 -2.84143e+06 0 623053 -2.66611e+06 0 801987 -2.4848e+06 0 928691 -2.31237e+06 0 1.02037e+06 -2.15401e+06 0 1.08834e+06 -2.00972e+06 0 1.13961e+06 -1.87842e+06 0 1.17883e+06 -1.75866e+06 0 1.20915e+06 -1.64904e+06 0 1.23272e+06 -1.54827e+06 0 1.2511e+06 -1.45524e+06 0 1.2654e+06 -1.369e+06 0 1.27643e+06 -1.28873e+06 0 1.28483e+06 -1.21374e+06 0 1.29106e+06 -1.14344e+06 0 1.29549e+06 -1.07733e+06 0 1.29839e+06 -1.01496e+06 0 1.3e+06 -955961 0 1.3005e+06 -900010 0 1.30004e+06 -846824 0 1.29872e+06 -796155 0 1.29666e+06 -747788 0 1.29394e+06 -701532 0 1.29062e+06 -657220 0 1.28676e+06 -614702 0 1.28241e+06 -573845 0 1.27761e+06 -534533 0 1.27239e+06 -496659 0 1.26679e+06 -460127 0 1.26084e+06 -424853 0 1.25455e+06 -390759 0 1.24795e+06 -357774 0 1.24105e+06 -325837 0 1.23387e+06 -294887 0 1.22643e+06 -264874 0 1.21873e+06 -235749 0 1.21079e+06 -207467 0 1.20261e+06 -179989 0 1.19422e+06 -153276 0 1.1856e+06 -127295 0 1.17678e+06 -102013 0 1.16775e+06 -77402.1 0 1.15853e+06 -53434.4 0 1.14912e+06 -30084.8 0 1.13952e+06 -7329.82 0 1.12974e+06 14852.3 0 1.11979e+06 36481.9 0 1.10967e+06 57578 0 1.09938e+06 78158.3 0 1.08893e+06 98239.6 0 1.07832e+06 117837 0 1.06756e+06 136966 0 1.05664e+06 155640 0 1.04558e+06 173872 0 1.03437e+06 191674 0 1.02302e+06 209057 0 1.01153e+06 226034 0 999905 242613 0 988147 258805 0 976258 274619 0 964242 290064 0 952100 305149 0 939837 319880 0 927454 334267 0 914953 348315 0 902338 362033 0 889611 375426 0 876774 388502 0 863830 401265 0 850781 413722 0 837630 425879 0 824378 437741 0 811028 449312 0 797582 460599 0 784043 471605 0 770413 482335 0 756694 492794 0 742887 502985 0 728996 512913 0 715023 522583 0 700969 531996 0 686837 541158 0 672628 550072 0 658345 558741 0 643990 567169 0 629564 575358 0 615071 583312 0 600511 591033 0 585887 598525 0 571200 605791 0 556453 612832 0 541647 619652 0 526785 626253 0 511867 632637 0 496897 638808 0 481875 644766 0 466804 650514 0 451685 656055 0 436521 661389 0 421312 666520 0 406061 671449 0 390769 676177 0 375439 680707 0 360070 685039 0 344667 689177 0 329229 693120 0 313759 696870 0 298258 700430 0 282729 703799 0 267171 706979 0 251588 709972 0 235981 712778 0 220350 715399 0 204699 717835 0 189028 720087 0 173339 722156 0 157633 724042 0 141913 725748 0 126178 727272 0 110432 728615 0 94675.6 729779 0 78910 730763 0 63136.9 731567 0 47357.9 732193 0 31574.4 732640 0 15787.9 732908 0 0 732998 0 -3.72529e-09 -2.90178e+06 0 349991 -2.81607e+06 0 608545 -2.64896e+06 0 787654 -2.47268e+06 0 915287 -2.30369e+06 0 1.0081e+06 -2.14761e+06 0 1.07716e+06 -2.00491e+06 0 1.12941e+06 -1.87475e+06 0 1.16951e+06 -1.75584e+06 0 1.20059e+06 -