<?xml version="1.0"?> 
<VTKFile type="StructuredGrid" version="0.1"> 
<StructuredGrid WholeExtent="0 127 0 127 0 0"> 
<Piece Extent="0 127 0 127 0 0"> 
<PointData>
<DataArray type="Float32" Name="E" format="ascii" NumberOfComponents="3"> 
-751812 145063 0 -753885 157213 0 -757614 157858 0 -760475 157940 0 -762526 157368 0 -763810 156888 0 -764493 156417 0 -764694 156023 0 -764516 155679 0 -764037 155382 0 -763318 155120 0 -762405 154887 0 -761334 154678 0 -760134 154486 0 -758825 154310 0 -757425 154147 0 -755947 153995 0 -754404 153852 0 -752803 153718 0 -751153 153591 0 -749459 153471 0 -747727 153357 0 -745961 153248 0 -744164 153145 0 -742340 153046 0 -740491 152951 0 -738620 152861 0 -736730 152774 0 -734820 152692 0 -732894 152612 0 -730953 152536 0 -728998 152463 0 -727029 152392 0 -725049 152325 0 -723058 152260 0 -721056 152198 0 -719045 152138 0 -717025 152080 0 -714996 152024 0 -712960 151971 0 -710917 151919 0 -708867 151870 0 -706811 151822 0 -704748 151777 0 -702680 151733 0 -700607 151690 0 -698529 151650 0 -696447 151610 0 -694359 151573 0 -692268 151537 0 -690173 151502 0 -688074 151468 0 -685972 151436 0 -683866 151406 0 -681757 151376 0 -679645 151348 0 -677530 151321 0 -675412 151295 0 -673292 151270 0 -671170 151246 0 -669045 151223 0 -666918 151201 0 -664788 151180 0 -662657 151161 0 -660523 151142 0 -658388 151124 0 -656251 151107 0 -654112 151090 0 -651972 151075 0 -649830 151060 0 -647687 151046 0 -645542 151033 0 -643396 151021 0 -641248 151009 0 -639099 150998 0 -636949 150988 0 -634798 150979 0 -632645 150970 0 -630492 150962 0 -628337 150954 0 -626181 150947 0 -624025 150940 0 -621867 150935 0 -619708 150929 0 -617549 150924 0 -615389 150920 0 -613227 150916 0 -611065 150913 0 -608903 150910 0 -606739 150908 0 -604575 150906 0 -602410 150905 0 -600244 150904 0 -598078 150903 0 -595911 150903 0 -593743 150904 0 -591575 150904 0 -589406 150905 0 -587237 150907 0 -585067 150909 0 -582896 150911 0 -580725 150913 0 -578553 150916 0 -576381 150919 0 -574208 150923 0 -572035 150927 0 -569861 150931 0 -567687 150935 0 -565512 150940 0 -563337 150945 0 -561162 150950 0 -558986 150956 0 -556809 150961 0 -554632 150967 0 -552455 150974 0 -550277 150980 0 -548099 150987 0 -545920 150994 0 -543741 151001 0 -541562 151008 0 -539382 151016 0 -537202 151024 0 -535022 151032 0 -532841 151040 0 -530660 151048 0 -528478 151057 0 -526297 151065 0 -524114 151074 0 -790579 152321 0 -787069 153447 0 -783756 155795 0 -780974 157834 0 -778590 159637 0 -776503 161151 0 -774616 162436 0 -772861 163520 0 -771187 164440 0 -769558 165221 0 -767951 165886 0 -766348 166454 0 -764737 166940 0 -763112 167357 0 -761468 167715 0 -759802 168022 0 -758113 168285 0 -756400 168511 0 -754664 168706 0 -752904 168872 0 -751123 169014 0 -749321 169134 0 -747498 169237 0 -745656 169323 0 -743797 169395 0 -741920 169455 0 -740028 169504 0 -738121 169543 0 -736200 169574 0 -734266 169598 0 -732320 169614 0 -730362 169625 0 -728393 169631 0 -726414 169632 0 -724425 169629 0 -722428 169622 0 -720421 169612 0 -718407 169599 0 -716386 169584 0 -714357 169567 0 -712322 169547 0 -710280 169526 0 -708232 169504 0 -706179 169480 0 -704120 169455 0 -702056 169428 0 -699988 169401 0 -697915 169373 0 -695837 169345 0 -693755 169316 0 -691670 169287 0 -689580 169257 0 -687488 169226 0 -685391 169196 0 -683292 169165 0 -681189 169135 0 -679084 169104 0 -676975 169073 0 -674865 169042 0 -672751 169011 0 -670635 168980 0 -668517 168949 0 -666396 168919 0 -664273 168888 0 -662148 168858 0 -660022 168828 0 -657893 168798 0 -655762 168768 0 -653630 168739 0 -651496 168709 0 -649360 168680 0 -647223 168651 0 -645085 168623 0 -642945 168594 0 -640803 168566 0 -638660 168538 0 -636516 168511 0 -634371 168484 0 -632224 168457 0 -630076 168430 0 -627927 168403 0 -625777 168377 0 -623626 168351 0 -621474 168326 0 -619321 168300 0 -617167 168275 0 -615012 168250 0 -612856 168226 0 -610699 168202 0 -608541 168178 0 -606383 168154 0 -604224 168130 0 -602064 168107 0 -599903 168084 0 -597741 168062 0 -595579 168039 0 -593416 168017 0 -591252 167995 0 -589088 167973 0 -586923 167952 0 -584757 167930 0 -582591 167909 0 -580424 167888 0 -578257 167868 0 -576089 167847 0 -573920 167827 0 -571751 167807 0 -569581 167787 0 -567411 167768 0 -565240 167748 0 -563069 167729 0 -560897 167710 0 -558725 167691 0 -556552 167673 0 -554379 167654 0 -552205 167636 0 -550031 167618 0 -547857 167600 0 -545682 167582 0 -543506 167564 0 -541330 167547 0 -539154 167529 0 -536977 167512 0 -534800 167495 0 -532623 167478 0 -530445 167461 0 -528266 167445 0 -526088 167428 0 -798052 177694 0 -795853 178348 0 -793662 178621 0 -791369 178996 0 -789027 179423 0 -786670 179906 0 -784328 180414 0 -782015 180931 0 -779740 181442 0 -777504 181939 0 -775307 182415 0 -773147 182866 0 -771018 183290 0 -768917 183685 0 -766840 184051 0 -764782 184389 0 -762740 184700 0 -760711 184985 0 -758691 185245 0 -756679 185482 0 -754671 185697 0 -752667 185891 0 -750665 186067 0 -748663 186225 0 -746661 186366 0 -744658 186493 0 -742652 186606 0 -740643 186705 0 -738632 186793 0 -736617 186870 0 -734599 186937 0 -732577 186995 0 -730551 187044 0 -728521 187086 0 -726487 187120 0 -724448 187148 0 -722406 187169 0 -720360 187185 0 -718310 187196 0 -716256 187202 0 -714198 187203 0 -712136 187201 0 -710071 187194 0 -708002 187185 0 -705930 187172 0 -703854 187156 0 -701776 187138 0 -699694 187117 0 -697609 187094 0 -695521 187069 0 -693430 187042 0 -691336 187013 0 -689240 186983 0 -687141 186951 0 -685039 186918 0 -682935 186884 0 -680829 186848 0 -678720 186812 0 -676610 186774 0 -674497 186736 0 -672382 186696 0 -670265 186657 0 -668146 186616 0 -666025 186575 0 -663903 186533 0 -661779 186491 0 -659653 186448 0 -657525 186405 0 -655396 186362 0 -653265 186318 0 -651133 186274 0 -648999 186230 0 -646864 186186 0 -644728 186141 0 -642590 186096 0 -640451 186052 0 -638311 186007 0 -636170 185961 0 -634027 185916 0 -631883 185871 0 -629739 185826 0 -627593 185781 0 -625446 185735 0 -623298 185690 0 -621149 185645 0 -618999 185599 0 -616849 185554 0 -614697 185509 0 -612544 185464 0 -610391 185418 0 -608237 185373 0 -606082 185328 0 -603926 185283 0 -601769 185239 0 -599612 185194 0 -597454 185149 0 -595295 185105 0 -593135 185060 0 -590975 185016 0 -588814 184971 0 -586652 184927 0 -584490 184883 0 -582327 184839 0 -580164 184795 0 -578000 184751 0 -575835 184707 0 -573670 184664 0 -571504 184620 0 -569337 184577 0 -567170 184533 0 -565003 184490 0 -562835 184447 0 -560666 184404 0 -558497 184361 0 -556327 184318 0 -554157 184276 0 -551987 184233 0 -549816 184190 0 -547644 184148 0 -545472 184106 0 -543300 184063 0 -541127 184021 0 -538954 183979 0 -536780 183937 0 -534606 183895 0 -532431 183853 0 -530256 183811 0 -528080 183770 0 -804641 199644 0 -802001 199813 0 -799410 200141 0 -796908 200431 0 -794468 200702 0 -792074 200952 0 -789713 201190 0 -787377 201419 0 -785062 201644 0 -782765 201865 0 -780485 202082 0 -778222 202294 0 -775974 202502 0 -773741 202704 0 -771523 202900 0 -769318 203089 0 -767127 203269 0 -764948 203441 0 -762781 203604 0 -760624 203758 0 -758477 203903 0 -756339 204038 0 -754208 204164 0 -752084 204280 0 -749966 204387 0 -747853 204485 0 -745745 204575 0 -743640 204655 0 -741539 204728 0 -739440 204793 0 -737344 204850 0 -735249 204900 0 -733155 204943 0 -731062 204980 0 -728970 205010 0 -726878 205034 0 -724786 205053 0 -722694 205066 0 -720602 205074 0 -718508 205078 0 -716415 205077 0 -714320 205072 0 -712224 205062 0 -710127 205049 0 -708029 205033 0 -705930 205013 0 -703829 204990 0 -701728 204964 0 -699624 204935 0 -697520 204904 0 -695414 204870 0 -693307 204834 0 -691198 204796 0 -689087 204756 0 -686976 204714 0 -684863 204670 0 -682748 204624 0 -680632 204577 0 -678515 204528 0 -676396 204478 0 -674276 204427 0 -672155 204375 0 -670032 204321 0 -667908 204267 0 -665782 204211 0 -663656 204154 0 -661528 204097 0 -659399 204039 0 -657269 203980 0 -655137 203921 0 -653004 203860 0 -650871 203800 0 -648736 203738 0 -646600 203677 0 -644463 203614 0 -642325 203552 0 -640185 203488 0 -638045 203425 0 -635904 203361 0 -633762 203297 0 -631619 203232 0 -629475 203167 0 -627330 203102 0 -625184 203037 0 -623038 202972 0 -620890 202906 0 -618742 202840 0 -616592 202774 0 -614442 202708 0 -612292 202642 0 -610140 202575 0 -607988 202509 0 -605835 202442 0 -603681 202376 0 -601526 202309 0 -599371 202242 0 -597215 202175 0 -595058 202108 0 -592901 202041 0 -590743 201974 0 -588585 201907 0 -586425 201840 0 -584266 201773 0 -582105 201706 0 -579944 201639 0 -577782 201572 0 -575620 201505 0 -573457 201438 0 -571294 201371 0 -569130 201304 0 -566966 201237 0 -564801 201170 0 -562635 201103 0 -560469 201036 0 -558303 200969 0 -556136 200902 0 -553968 200835 0 -551800 200768 0 -549631 200701 0 -547462 200634 0 -545293 200568 0 -543123 200501 0 -540953 200434 0 -538782 200367 0 -536611 200301 0 -534439 200234 0 -532267 200167 0 -530094 200101 0 -807744 222277 0 -805403 222276 0 -803058 222228 0 -800695 222211 0 -798326 222214 0 -795961 222236 0 -793603 222270 0 -791258 222313 0 -788924 222362 0 -786604 222415 0 -784297 222471 0 -782003 222528 0 -779720 222587 0 -777449 222646 0 -775189 222705 0 -772939 222763 0 -770700 222820 0 -768469 222876 0 -766248 222929 0 -764035 222980 0 -761830 223028 0 -759633 223074 0 -757443 223116 0 -755259 223155 0 -753082 223190 0 -750910 223222 0 -748744 223249 0 -746583 223273 0 -744426 223293 0 -742274 223309 0 -740125 223321 0 -737980 223329 0 -735838 223333 0 -733699 223333 0 -731562 223330 0 -729428 223322 0 -727296 223311 0 -725165 223297 0 -723036 223278 0 -720908 223257 0 -718782 223232 0 -716656 223204 0 -714531 223173 0 -712407 223139 0 -710283 223103 0 -708159 223063 0 -706036 223021 0 -703912 222976 0 -701789 222929 0 -699666 222880 0 -697542 222829 0 -695419 222775 0 -693294 222719 0 -691170 222662 0 -689045 222602 0 -686920 222541 0 -684794 222478 0 -682667 222414 0 -680540 222348 0 -678413 222281 0 -676284 222212 0 -674155 222142 0 -672026 222071 0 -669895 221998 0 -667764 221925 0 -665632 221850 0 -663500 221775 0 -661366 221699 0 -659232 221621 0 -657097 221543 0 -654962 221464 0 -652825 221384 0 -650688 221304 0 -648550 221223 0 -646411 221141 0 -644272 221059 0 -642132 220976 0 -639991 220892 0 -637849 220808 0 -635707 220724 0 -633563 220639 0 -631420 220553 0 -629275 220468 0 -627130 220382 0 -624983 220295 0 -622837 220208 0 -620689 220121 0 -618541 220034 0 -616392 219946 0 -614243 219858 0 -612092 219770 0 -609941 219682 0 -607790 219593 0 -605638 219504 0 -603485 219415 0 -601332 219326 0 -599177 219237 0 -597023 219147 0 -594868 219057 0 -592712 218968 0 -590555 218878 0 -588398 218788 0 -586240 218697 0 -584082 218607 0 -581923 218517 0 -579764 218426 0 -577604 218336 0 -575444 218245 0 -573283 218155 0 -571121 218064 0 -568959 217973 0 -566797 217882 0 -564634 217791 0 -562470 217700 0 -560306 217609 0 -558142 217518 0 -555977 217427 0 -553811 217336 0 -551645 217245 0 -549479 217154 0 -547312 217062 0 -545144 216971 0 -542976 216880 0 -540808 216789 0 -538639 216697 0 -536470 216606 0 -534301 216514 0 -532131 216423 0 -810252 243801 0 -807892 243690 0 -805544 243608 0 -803215 243522 0 -800897 243438 0 -798589 243355 0 -796288 243276 0 -793992 243201 0 -791702 243131 0 -789417 243066 0 -787138 243005 0 -784864 242949 0 -782597 242896 0 -780336 242847 0 -778080 242800 0 -775831 242756 0 -773588 242713 0 -771351 242673 0 -769120 242634 0 -766894 242595 0 -764674 242557 0 -762460 242520 0 -760251 242482 0 -758047 242445 0 -755848 242407 0 -753653 242368 0 -751463 242329 0 -749277 242289 0 -747095 242247 0 -744917 242205 0 -742743 242161 0 -740572 242115 0 -738404 242068 0 -736239 242020 0 -734077 241969 0 -731918 241918 0 -729761 241864 0 -727606 241808 0 -725454 241751 0 -723303 241692 0 -721155 241631 0 -719007 241568 0 -716862 241504 0 -714717 241438 0 -712574 241370 0 -710432 241300 0 -708291 241228 0 -706151 241155 0 -704011 241080 0 -701872 241004 0 -699734 240926 0 -697596 240846 0 -695459 240765 0 -693322 240683 0 -691185 240599 0 -689048 240514 0 -686912 240427 0 -684775 240340 0 -682638 240251 0 -680502 240160 0 -678365 240069 0 -676228 239976 0 -674091 239883 0 -671954 239788 0 -669816 239693 0 -667679 239596 0 -665541 239499 0 -663402 239401 0 -661263 239301 0 -659124 239201 0 -656985 239101 0 -654844 238999 0 -652704 238897 0 -650563 238794 0 -648422 238691 0 -646280 238586 0 -644137 238482 0 -641995 238376 0 -639851 238270 0 -637707 238164 0 -635563 238057 0 -633418 237950 0 -631273 237842 0 -629127 237734 0 -626980 237625 0 -624833 237516 0 -622685 237407 0 -620537 237297 0 -618389 237187 0 -616239 237076 0 -614090 236965 0 -611939 236854 0 -609789 236743 0 -607637 236631 0 -605485 236519 0 -603333 236407 0 -601180 236295 0 -599026 236182 0 -596872 236070 0 -594718 235957 0 -592563 235843 0 -590407 235730 0 -588251 235616 0 -586094 235503 0 -583937 235389 0 -581779 235275 0 -579621 235161 0 -577463 235046 0 -575304 234932 0 -573144 234817 0 -570984 234703 0 -568823 234588 0 -566662 234473 0 -564500 234358 0 -562338 234243 0 -560176 234127 0 -558013 234012 0 -555849 233897 0 -553686 233781 0 -551521 233666 0 -549356 233550 0 -547191 233434 0 -545025 233318 0 -542859 233203 0 -540693 233087 0 -538526 232971 0 -536358 232855 0 -534190 232738 0 -811956 265001 0 -809698 264814 0 -807438 264625 0 -805175 264447 0 -802911 264278 0 -800648 264116 0 -798388 263961 0 -796130 263811 0 -793876 263665 0 -791626 263525 0 -789379 263388 0 -787135 263255 0 -784895 263126 0 -782658 263001 0 -780425 262879 0 -778195 262760 0 -775968 262643 0 -773745 262529 0 -771526 262418 0 -769310 262308 0 -767097 262201 0 -764888 262095 0 -762682 261991 0 -760479 261888 0 -758279 261786 0 -756083 261686 0 -753890 261586 0 -751700 261486 0 -749512 261387 0 -747328 261289 0 -745146 261190 0 -742967 261092 0 -740790 260994 0 -738616 260895 0 -736444 260797 0 -734275 260698 0 -732107 260598 0 -729942 260499 0 -727778 260398 0 -725617 260298 0 -723457 260196 0 -721298 260094 0 -719141 259991 0 -716986 259887 0 -714832 259783 0 -712679 259678 0 -710527 259571 0 -708377 259464 0 -706227 259357 0 -704078 259248 0 -701930 259139 0 -699783 259028 0 -697637 258917 0 -695491 258805 0 -693345 258692 0 -691200 258578 0 -689056 258463 0 -686912 258348 0 -684768 258231 0 -682625 258114 0 -680481 257996 0 -678338 257877 0 -676195 257758 0 -674053 257637 0 -671910 257516 0 -669767 257395 0 -667624 257272 0 -665481 257149 0 -663338 257025 0 -661195 256901 0 -659052 256776 0 -656908 256650 0 -654765 256524 0 -652621 256397 0 -650477 256269 0 -648332 256141 0 -646188 256013 0 -644043 255884 0 -641897 255754 0 -639752 255624 0 -637606 255494 0 -635460 255363 0 -633313 255232 0 -631166 255100 0 -629019 254968 0 -626871 254835 0 -624723 254702 0 -622574 254569 0 -620426 254435 0 -618276 254301 0 -616126 254167 0 -613976 254032 0 -611826 253898 0 -609674 253762 0 -607523 253627 0 -605371 253491 0 -603219 253355 0 -601066 253219 0 -598913 253082 0 -596759 252946 0 -594605 252809 0 -592450 252672 0 -590295 252534 0 -588139 252397 0 -585983 252259 0 -583827 252121 0 -581670 251983 0 -579513 251844 0 -577355 251706 0 -575197 251567 0 -573038 251429 0 -570879 251290 0 -568719 251150 0 -566559 251011 0 -564399 250872 0 -562238 250732 0 -560077 250593 0 -557915 250453 0 -555753 250313 0 -553590 250173 0 -551427 250033 0 -549264 249893 0 -547100 249752 0 -544936 249612 0 -542771 249471 0 -540606 249330 0 -538440 249190 0 -536274 249049 0 -813430 285637 0 -811206 285410 0 -808984 285189 0 -806765 284971 0 -804548 284757 0 -802331 284545 0 -800115 284338 0 -797900 284135 0 -795686 283936 0 -793472 283741 0 -791260 283549 0 -789048 283361 0 -786838 283177 0 -784630 282996 0 -782423 282818 0 -780218 282643 0 -778014 282471 0 -775812 282302 0 -773612 282135 0 -771414 281971 0 -769217 281809 0 -767023 281649 0 -764830 281491 0 -762639 281335 0 -760450 281181 0 -758263 281028 0 -756078 280876 0 -753894 280726 0 -751713 280578 0 -749533 280430 0 -747355 280283 0 -745178 280138 0 -743004 279993 0 -740831 279848 0 -738659 279705 0 -736490 279561 0 -734321 279419 0 -732155 279276 0 -729989 279134 0 -727825 278992 0 -725663 278850 0 -723501 278709 0 -721341 278567 0 -719182 278425 0 -717025 278283 0 -714868 278142 0 -712712 278000 0 -710557 277857 0 -708403 277715 0 -706250 277572 0 -704098 277429 0 -701946 277286 0 -699795 277142 0 -697645 276998 0 -695495 276854 0 -693346 276709 0 -691197 276564 0 -689049 276418 0 -686901 276272 0 -684754 276126 0 -682606 275979 0 -680460 275832 0 -678313 275684 0 -676166 275536 0 -674020 275387 0 -671874 275238 0 -669728 275088 0 -667582 274938 0 -665436 274788 0 -663291 274637 0 -661145 274486 0 -658999 274334 0 -656853 274182 0 -654707 274029 0 -652561 273876 0 -650415 273723 0 -648268 273569 0 -646122 273415 0 -643975 273260 0 -641828 273105 0 -639681 272950 0 -637534 272794 0 -635386 272638 0 -633239 272482 0 -631091 272325 0 -628942 272168 0 -626794 272010 0 -624645 271853 0 -622495 271695 0 -620346 271536 0 -618196 271378 0 -616046 271219 0 -613895 271059 0 -611744 270900 0 -609593 270740 0 -607441 270580 0 -605289 270420 0 -603137 270260 0 -600984 270099 0 -598831 269938 0 -596678 269777 0 -594524 269615 0 -592370 269454 0 -590215 269292 0 -588060 269130 0 -585904 268967 0 -583749 268805 0 -581592 268642 0 -579436 268479 0 -577278 268316 0 -575121 268153 0 -572963 267990 0 -570805 267826 0 -568646 267663 0 -566487 267499 0 -564328 267335 0 -562168 267171 0 -560007 267006 0 -557847 266842 0 -555685 266677 0 -553524 266512 0 -551362 266347 0 -549200 266182 0 -547037 266017 0 -544874 265852 0 -542710 265686 0 -540546 265521 0 -538382 265355 0 -814737 305928 0 -812561 305667 0 -810384 305408 0 -808204 305154 0 -806024 304903 0 -803843 304656 0 -801662 304413 0 -799480 304173 0 -797299 303936 0 -795117 303703 0 -792936 303472 0 -790754 303244 0 -788573 303019 0 -786392 302797 0 -784211 302577 0 -782031 302361 0 -779852 302146 0 -777672 301934 0 -775494 301725 0 -773316 301518 0 -771139 301313 0 -768962 301110 0 -766787 300909 0 -764612 300710 0 -762438 300512 0 -760265 300317 0 -758092 300123 0 -755921 299930 0 -753751 299740 0 -751581 299550 0 -749413 299362 0 -747245 299175 0 -745078 298989 0 -742913 298804 0 -740748 298620 0 -738584 298437 0 -736421 298255 0 -734259 298074 0 -732098 297893 0 -729937 297713 0 -727778 297534 0 -725619 297355 0 -723461 297177 0 -721304 296999 0 -719148 296821 0 -716992 296644 0 -714837 296467 0 -712683 296290 0 -710529 296113 0 -708376 295937 0 -706224 295761 0 -704072 295585 0 -701921 295408 0 -699770 295232 0 -697619 295056 0 -695469 294880 0 -693320 294704 0 -691170 294528 0 -689021 294351 0 -686873 294175 0 -684725 293998 0 -682576 293821 0 -680429 293644 0 -678281 293467 0 -676134 293290 0 -673986 293113 0 -671839 292935 0 -669692 292757 0 -667545 292579 0 -665398 292401 0 -663251 292222 0 -661104 292043 0 -658958 291864 0 -656811 291685 0 -654664 291505 0 -652517 291325 0 -650370 291145 0 -648222 290965 0 -646075 290784 0 -643928 290603 0 -641780 290422 0 -639632 290241 0 -637484 290059 0 -635336 289877 0 -633188 289695 0 -631039 289513 0 -628890 289330 0 -626741 289147 0 -624592 288964 0 -622443 288781 0 -620293 288597 0 -618143 288413 0 -615993 288229 0 -613842 288045 0 -611691 287860 0 -609540 287675 0 -607388 287490 0 -605236 287305 0 -603084 287119 0 -600932 286934 0 -598779 286748 0 -596626 286562 0 -594472 286375 0 -592318 286189 0 -590164 286002 0 -588009 285815 0 -585854 285628 0 -583699 285441 0 -581543 285254 0 -579387 285066 0 -577231 284878 0 -575074 284690 0 -572917 284502 0 -570759 284313 0 -568601 284125 0 -566443 283936 0 -564284 283747 0 -562125 283558 0 -559966 283369 0 -557806 283180 0 -555646 282990 0 -553485 282800 0 -551324 282611 0 -549163 282421 0 -547001 282231 0 -544839 282040 0 -542676 281850 0 -540513 281659 0 -816023 325891 0 -813876 325608 0 -811728 325328 0 -809580 325050 0 -807430 324775 0 -805280 324502 0 -803128 324231 0 -800976 323963 0 -798823 323697 0 -796668 323434 0 -794513 323173 0 -792358 322915 0 -790202 322659 0 -788045 322405 0 -785889 322153 0 -783731 321903 0 -781574 321656 0 -779416 321411 0 -777258 321167 0 -775100 320926 0 -772942 320686 0 -770784 320448 0 -768626 320212 0 -766468 319978 0 -764310 319746 0 -762153 319515 0 -759995 319285 0 -757838 319057 0 -755681 318831 0 -753524 318606 0 -751367 318382 0 -749211 318160 0 -747055 317938 0 -744900 317718 0 -742745 317499 0 -740590 317281 0 -738435 317064 0 -736281 316848 0 -734127 316633 0 -731974 316419 0 -729821 316205 0 -727669 315992 0 -725516 315780 0 -723364 315568 0 -721213 315357 0 -719062 315147 0 -716911 314937 0 -714761 314728 0 -712611 314519 0 -710461 314310 0 -708311 314102 0 -706162 313894 0 -704013 313687 0 -701865 313480 0 -699716 313273 0 -697568 313066 0 -695420 312859 0 -693272 312653 0 -691125 312446 0 -688978 312240 0 -686830 312034 0 -684683 311828 0 -682536 311622 0 -680390 311416 0 -678243 311210 0 -676096 311004 0 -673950 310798 0 -671803 310592 0 -669657 310386 0 -667510 310180 0 -665364 309974 0 -663217 309768 0 -661071 309561 0 -658924 309355 0 -656777 309148 0 -654631 308941 0 -652484 308735 0 -650337 308528 0 -648190 308321 0 -646043 308113 0 -643896 307906 0 -641748 307698 0 -639600 307491 0 -637453 307283 0 -635305 307075 0 -633157 306867 0 -631008 306658 0 -628860 306450 0 -626711 306241 0 -624562 306032 0 -622412 305823 0 -620263 305614 0 -618113 305404 0 -615963 305195 0 -613813 304985 0 -611662 304775 0 -609511 304565 0 -607360 304354 0 -605209 304144 0 -603057 303933 0 -600905 303722 0 -598752 303511 0 -596599 303300 0 -594446 303088 0 -592293 302877 0 -590139 302665 0 -587985 302453 0 -585831 302241 0 -583676 302028 0 -581521 301816 0 -579366 301603 0 -577210 301390 0 -575054 301177 0 -572897 300964 0 -570740 300751 0 -568583 300537 0 -566425 300323 0 -564268 300110 0 -562109 299895 0 -559951 299681 0 -557792 299467 0 -555632 299252 0 -553472 299038 0 -551312 298823 0 -549152 298608 0 -546991 298392 0 -544830 298177 0 -542668 297961 0 -817331 345610 0 -815211 345309 0 -813089 345009 0 -810965 344711 0 -808840 344415 0 -806713 344121 0 -804585 343829 0 -802456 343539 0 -800326 343251 0 -798194 342964 0 -796061 342679 0 -793928 342396 0 -791793 342115 0 -789658 341835 0 -787521 341558 0 -785384 341282 0 -783246 341007 0 -781107 340734 0 -778968 340463 0 -776828 340194 0 -774688 339926 0 -772547 339659 0 -770405 339394 0 -768263 339131 0 -766121 338868 0 -763978 338608 0 -761836 338348 0 -759692 338090 0 -757549 337834 0 -755405 337578 0 -753261 337324 0 -751117 337070 0 -748973 336818 0 -746828 336567 0 -744684 336318 0 -742539 336069 0 -740395 335821 0 -738250 335574 0 -736105 335328 0 -733961 335082 0 -731816 334838 0 -729671 334594 0 -727526 334351 0 -725382 334109 0 -723237 333868 0 -721092 333627 0 -718948 333386 0 -716803 333147 0 -714658 332908 0 -712514 332669 0 -710369 332431 0 -708225 332193 0 -706080 331956 0 -703936 331719 0 -701792 331483 0 -699647 331246 0 -697503 331011 0 -695358 330775 0 -693214 330540 0 -691070 330305 0 -688925 330070 0 -686781 329836 0 -684637 329601 0 -682492 329367 0 -680348 329133 0 -678203 328899 0 -676059 328665 0 -673914 328431 0 -671770 328198 0 -669625 327964 0 -667480 327730 0 -665335 327497 0 -663190 327263 0 -661045 327030 0 -658900 326796 0 -656754 326563 0 -654609 326329 0 -652463 326096 0 -650317 325862 0 -648171 325629 0 -646025 325395 0 -643878 325161 0 -641732 324927 0 -639585 324693 0 -637438 324459 0 -635291 324225 0 -633144 323991 0 -630996 323757 0 -628848 323522 0 -626700 323287 0 -624552 323053 0 -622403 322818 0 -620254 322583 0 -618105 322348 0 -615956 322113 0 -613806 321877 0 -611656 321642 0 -609506 321406 0 -607355 321170 0 -605204 320934 0 -603053 320698 0 -600902 320462 0 -598750 320226 0 -596598 319989 0 -594446 319752 0 -592293 319515 0 -590140 319278 0 -587986 319041 0 -585833 318804 0 -583679 318566 0 -581524 318329 0 -579369 318091 0 -577214 317853 0 -575059 317615 0 -572903 317376 0 -570747 317138 0 -568591 316899 0 -566434 316660 0 -564277 316421 0 -562119 316182 0 -559961 315943 0 -557803 315703 0 -555644 315463 0 -553485 315223 0 -551326 314983 0 -549166 314743 0 -547006 314503 0 -544846 314262 0 -818705 365127 0 -816604 364811 0 -814501 364495 0 -812397 364181 0 -810291 363868 0 -808183 363556 0 -806075 363246 0 -803964 362937 0 -801852 362629 0 -799739 362323 0 -797625 362018 0 -795509 361714 0 -793392 361411 0 -791274 361110 0 -789155 360810 0 -787035 360512 0 -784914 360215 0 -782791 359919 0 -780668 359624 0 -778544 359331 0 -776419 359038 0 -774293 358747 0 -772167 358457 0 -770039 358169 0 -767911 357881 0 -765782 357595 0 -763653 357309 0 -761523 357025 0 -759392 356742 0 -757260 356460 0 -755129 356179 0 -752996 355899 0 -750863 355619 0 -748730 355341 0 -746596 355064 0 -744462 354788 0 -742328 354512 0 -740193 354237 0 -738057 353963 0 -735922 353690 0 -733786 353418 0 -731649 353146 0 -729513 352876 0 -727376 352605 0 -725239 352336 0 -723101 352067 0 -720964 351799 0 -718826 351531 0 -716688 351264 0 -714549 350997 0 -712411 350731 0 -710272 350465 0 -708133 350200 0 -705994 349936 0 -703855 349671 0 -701715 349407 0 -699576 349144 0 -697436 348881 0 -695296 348618 0 -693156 348355 0 -691015 348093 0 -688875 347831 0 -686734 347569 0 -684593 347308 0 -682452 347046 0 -680310 346785 0 -678169 346524 0 -676027 346264 0 -673885 346003 0 -671743 345743 0 -669601 345482 0 -667459 345222 0 -665316 344962 0 -663173 344702 0 -661030 344442 0 -658887 344182 0 -656743 343922 0 -654600 343662 0 -652456 343402 0 -650312 343142 0 -648167 342883 0 -646023 342623 0 -643878 342363 0 -641733 342103 0 -639587 341843 0 -637442 341583 0 -635296 341323 0 -633150 341063 0 -631003 340803 0 -628856 340543 0 -626709 340282 0 -624562 340022 0 -622415 339762 0 -620267 339501 0 -618119 339240 0 -615970 338980 0 -613821 338719 0 -611672 338458 0 -609523 338197 0 -607373 337936 0 -605223 337674 0 -603073 337413 0 -600923 337151 0 -598772 336889 0 -596620 336628 0 -594469 336366 0 -592317 336103 0 -590165 335841 0 -588012 335579 0 -585859 335316 0 -583706 335053 0 -581552 334790 0 -579398 334527 0 -577244 334264 0 -575089 334001 0 -572934 333737 0 -570779 333474 0 -568623 333210 0 -566467 332946 0 -564311 332681 0 -562154 332417 0 -559997 332153 0 -557839 331888 0 -555682 331623 0 -553523 331358 0 -551365 331093 0 -549206 330827 0 -547047 330562 0 -820162 384485 0 -818076 384154 0 -815989 383823 0 -813900 383494 0 -811809 383166 0 -809717 382838 0 -807623 382511 0 -805528 382186 0 -803431 381861 0 -801333 381537 0 -799234 381214 0 -797133 380892 0 -795030 380571 0 -792927 380251 0 -790822 379931 0 -788716 379613 0 -786608 379296 0 -784500 378979 0 -782390 378664 0 -780279 378349 0 -778168 378036 0 -776055 377723 0 -773941 377411 0 -771826 377100 0 -769710 376790 0 -767594 376481 0 -765476 376173 0 -763358 375865 0 -761238 375559 0 -759118 375253 0 -756997 374948 0 -754876 374644 0 -752753 374340 0 -750630 374038 0 -748507 373736 0 -746382 373434 0 -744257 373134 0 -742132 372834 0 -740005 372535 0 -737878 372237 0 -735751 371939 0 -733623 371642 0 -731495 371345 0 -729366 371050 0 -727236 370754 0 -725106 370459 0 -722976 370165 0 -720845 369872 0 -718714 369578 0 -716582 369286 0 -714450 368993 0 -712317 368702 0 -710184 368410 0 -708051 368119 0 -705917 367829 0 -703783 367539 0 -701649 367249 0 -699514 366960 0 -697379 366670 0 -695243 366382 0 -693107 366093 0 -690971 365805 0 -688835 365517 0 -686698 365229 0 -684561 364942 0 -682423 364655 0 -680285 364368 0 -678147 364081 0 -676009 363794 0 -673870 363508 0 -671731 363221 0 -669592 362935 0 -667452 362649 0 -665312 362363 0 -663172 362077 0 -661031 361791 0 -658891 361506 0 -656749 361220 0 -654608 360934 0 -652466 360649 0 -650324 360363 0 -648182 360078 0 -646039 359792 0 -643896 359507 0 -641752 359221 0 -639609 358936 0 -637465 358650 0 -635321 358365 0 -633176 358079 0 -631031 357794 0 -628886 357508 0 -626740 357222 0 -624594 356937 0 -622448 356651 0 -620301 356365 0 -618155 356079 0 -616007 355793 0 -613860 355507 0 -611712 355220 0 -609564 354934 0 -607415 354648 0 -605266 354361 0 -603117 354074 0 -600967 353788 0 -598817 353501 0 -596667 353214 0 -594516 352926 0 -592365 352639 0 -590214 352352 0 -588062 352064 0 -585910 351776 0 -583758 351488 0 -581605 351200 0 -579452 350912 0 -577298 350624 0 -575145 350335 0 -572990 350046 0 -570836 349758 0 -568681 349469 0 -566526 349179 0 -564370 348890 0 -562214 348601 0 -560058 348311 0 -557901 348021 0 -555744 347731 0 -553586 347441 0 -551428 347150 0 -549270 346860 0 -821716 403712 0 -819642 403367 0 -817566 403023 0 -815489 402679 0 -813411 402336 0 -811331 401994 0 -809249 401652 0 -807165 401311 0 -805081 400970 0 -802994 400630 0 -800907 400291 0 -798818 399952 0 -796727 399614 0 -794635 399276 0 -792542 398939 0 -790447 398603 0 -788351 398267 0 -786254 397932 0 -784156 397598 0 -782056 397264 0 -779956 396931 0 -777854 396599 0 -775751 396267 0 -773647 395936 0 -771541 395606 0 -769435 395276 0 -767328 394946 0 -765219 394618 0 -763110 394290 0 -761000 393962 0 -758889 393636 0 -756777 393310 0 -754664 392984 0 -752550 392659 0 -750435 392334 0 -748319 392011 0 -746203 391687 0 -744086 391365 0 -741968 391042 0 -739849 390721 0 -737730 390399 0 -735610 390079 0 -733489 389759 0 -731367 389439 0 -729245 389120 0 -727122 388801 0 -724999 388482 0 -722875 388165 0 -720750 387847 0 -718625 387530 0 -716499 387213 0 -714372 386897 0 -712245 386581 0 -710118 386265 0 -707990 385950 0 -705861 385635 0 -703732 385321 0 -701602 385006 0 -699472 384692 0 -697342 384379 0 -695211 384065 0 -693079 383752 0 -690947 383439 0 -688815 383126 0 -686682 382814 0 -684548 382501 0 -682414 382189 0 -680280 381877 0 -678146 381565 0 -676011 381254 0 -673875 380942 0 -671739 380631 0 -669603 380319 0 -667466 380008 0 -665329 379697 0 -663191 379386 0 -661053 379076 0 -658915 378765 0 -656776 378454 0 -654637 378143 0 -652498 377833 0 -650358 377522 0 -648218 377211 0 -646077 376901 0 -643936 376590 0 -641795 376280 0 -639653 375