<?xml version="1.0"?> 
<VTKFile type="StructuredGrid" version="0.1"> 
<StructuredGrid WholeExtent="0 127 0 127 0 0"> 
<Piece Extent="0 127 0 127 0 0"> 
<PointData>
<DataArray type="Float32" Name="E" format="ascii" NumberOfComponents="3"> 
-372876 0 0 -372840 -10744.4 0 -372735 -21490 0 -372558 -32237.8 0 -372310 -42989.1 0 -371991 -53744.9 0 -371601 -64506.4 0 -371138 -75274.9 0 -370603 -86051.6 0 -369994 -96837.8 0 -369311 -107635 0 -368553 -118444 0 -367719 -129267 0 -366809 -140105 0 -365820 -150960 0 -364753 -161834 0 -363605 -172727 0 -362376 -183643 0 -361064 -194583 0 -359668 -205549 0 -358186 -216543 0 -356617 -227567 0 -354959 -238625 0 -353211 -249718 0 -351371 -260849 0 -349437 -272022 0 -347407 -283238 0 -345281 -294501 0 -343055 -305815 0 -340729 -317182 0 -338301 -328606 0 -335768 -340092 0 -333130 -351642 0 -330384 -363262 0 -327530 -374954 0 -324564 -386724 0 -321486 -398576 0 -318295 -410515 0 -314988 -422545 0 -311564 -434672 0 -308022 -446901 0 -304361 -459236 0 -300580 -471684 0 -296676 -484249 0 -292650 -496938 0 -288500 -509756 0 -284225 -522710 0 -279824 -535804 0 -275296 -549045 0 -270640 -562440 0 -265855 -575995 0 -260940 -589715 0 -255895 -603609 0 -250717 -617682 0 -245407 -631941 0 -239963 -646394 0 -234383 -661047 0 -228667 -675908 0 -222813 -690985 0 -216819 -706286 0 -210684 -721818 0 -204406 -737590 0 -197982 -753611 0 -191411 -769889 0 -184689 -786435 0 -177816 -803257 0 -170786 -820367 0 -163599 -837774 0 -156249 -855491 0 -148733 -873529 0 -141048 -891900 0 -133188 -910618 0 -125150 -929696 0 -116929 -949148 0 -108518 -968989 0 -99912.1 -989237 0 -91105.4 -1.00991e+06 0 -82090.9 -1.03103e+06 0 -72861.5 -1.05262e+06 0 -63409.2 -1.0747e+06 0 -53725.4 -1.09729e+06 0 -43800.8 -1.12039e+06 0 -33625.5 -1.14403e+06 0 -23189 -1.16821e+06 0 -12480.6 -1.19297e+06 0 -1489.3 -1.21836e+06 0 9796.75 -1.24447e+06 0 21390.6 -1.2714e+06 0 33307.9 -1.29925e+06 0 45567.7 -1.32812e+06 0 58193.4 -1.35797e+06 0 71212.3 -1.3887e+06 0 84653.7 -1.42006e+06 0 98545.5 -1.45173e+06 0 112910 -1.48347e+06 0 127760 -1.51529e+06 0 143101 -1.54763e+06 0 158931 -1.5815e+06 0 175257 -1.61848e+06 0 192108 -1.66044e+06 0 209557 -1.70901e+06 0 227732 -1.76482e+06 0 246826 -1.82674e+06 0 267072 -1.89116e+06 0 288713 -1.95204e+06 0 311935 -2.00161e+06 0 336796 -2.03225e+06 0 363165 -2.0393e+06 0 390691 -2.02449e+06 0 418836 -1.99909e+06 0 446997 -1.98573e+06 0 474717 -2.01755e+06 0 501980 -2.13339e+06 0 529545 -2.36855e+06 0 559248 -2.7413e+06 0 594199 -3.23688e+06 0 638757 -3.79252e+06 0 698229 -4.28871e+06 0 778214 -4.55394e+06 0 883610 -4.39129e+06 0 1.01733e+06 -3.63619e+06 0 1.17887e+06 -2.25436e+06 0 1.36286e+06 -487565 0 1.55805e+06 946642 0 1.74631e+06 600677 0 1.90333e+06 -4.01444e+06 0 1.99867e+06 -1.67853e+07 0 1.99932e+06 -4.33962e+07 0 -382304 0 0 -382266 -11252.5 0 -382153 -22506.3 0 -381964 -33762.9 0 -381699 -45023.5 0 -381359 -56289.6 0 -380941 -67562.7 0 -380446 -78844.1 0 -379874 -90135.5 0 -379223 -101438 0 -378492 -112754 0 -377682 -124085 0 -376790 -135432 0 -375816 -146797 0 -374758 -158183 0 -373616 -169590 0 -372387 -181022 0 -371071 -192481 0 -369667 -203969 0 -368172 -215488 0 -366584 -227041 0 -364904 -238631 0 -363128 -250260 0 -361254 -261932 0 -359283 -273650 0 -357210 -285416 0 -355035 -297236 0 -352756 -309112 0 -350371 -321048 0 -347878 -333049 0 -345276 -345118 0 -342562 -357260 0 -339735 -369480 0 -336794 -381782 0 -333736 -394171 0 -330560 -406653 0 -327264 -419232 0 -323847 -431914 0 -320308 -444706 0 -316645 -457611 0 -312856 -470638 0 -308942 -483791 0 -304900 -497077 0 -300729 -510503 0 -296428 -524074 0 -291997 -537798 0 -287434 -551682 0 -282739 -565732 0 -277910 -579956 0 -272946 -594360 0 -267847 -608953 0 -262611 -623743 0 -257238 -638736 0 -251725 -653941 0 -246073 -669366 0 -240280 -685020 0 -234344 -700911 0 -228263 -717049 0 -222037 -733442 0 -215663 -750102 0 -209138 -767037 0 -202462 -784259 0 -195631 -801778 0 -188642 -819606 0 -181494 -837755 0 -174181 -856239 0 -166702 -875069 0 -159052 -894260 0 -151227 -913828 0 -143223 -933788 0 -135035 -954157 0 -126657 -974952 0 -118085 -996192 0 -109313 -1.0179e+06 0 -100333 -1.04009e+06 0 -91138.7 -1.06279e+06 0 -81722.2 -1.08602e+06 0 -72074.9 -1.10981e+06 0 -62188.3 -1.1342e+06 0 -52053.9 -1.1592e+06 0 -41663.2 -1.18486e+06 0 -31007.7 -1.2112e+06 0 -20077.1 -1.23826e+06 0 -8858.42 -1.26606e+06 0 2666.31 -1.29465e+06 0 14520.3 -1.32408e+06 0 26731.3 -1.35439e+06 0 39327 -1.38569e+06 0 52329.7 -1.41806e+06 0 65748.4 -1.45163e+06 0 79574.4 -1.48647e+06 0 93783.4 -1.52267e+06 0 108346 -1.56021e+06 0 123253 -1.59903e+06 0 138543 -1.63905e+06 0 154332 -1.6802e+06 0 170831 -1.72251e+06 0 188330 -1.76628e+06 0 207145 -1.81213e+06 0 227522 -1.861e+06 0 249517 -1.9141e+06 0 272876 -1.97267e+06 0 296972 -2.03756e+06 0 320842 -2.10881e+06 0 343377 -2.18523e+06 0 363670 -2.26425e+06 0 381497 -2.34206e+06 0 397841 -2.41447e+06 0 415301 -2.47819e+06 0 438222 -2.53276e+06 0 472324 -2.58262e+06 0 523702 -2.63889e+06 0 597126 -2.72022e+06 0 693744 -2.85197e+06 0 808469 -3.06313e+06 0 927506 -3.38067e+06 0 1.02667e+06 -3.82145e+06 0 1.07124e+06 -4.38269e+06 0 1.01803e+06 -5.03261e+06 0 820420 -5.70406e+06 0 436570 -6.29441e+06 0 -158969 -6.67599e+06 0 -960725 -6.72178e+06 0 -1.9158e+06 -6.3498e+06 0 -2.90595e+06 -5.59346e+06 0 -3.73174e+06 -4.69105e+06 0 -4.095e+06 -4.22471e+06 0 -3.59943e+06 -5.20493e+06 0 -391785 0 0 -391745 -11764.6 0 -391625 -23530.8 0 -391424 -35300.2 0 -391142 -47074.5 0 -390779 -58855.4 0 -390335 -70644.4 0 -389808 -82443.5 0 -389199 -94254.3 0 -388506 -106079 0 -387728 -117919 0 -386865 -129776 0 -385915 -141653 0 -384877 -153552 0 -383750 -165475 0 -382533 -177425 0 -381224 -189403 0 -379822 -201413 0 -378325 -213457 0 -376731 -225539 0 -375039 -237661 0 -373247 -249827 0 -371353 -262039 0 -369356 -274303 0 -367253 -286621 0 -365043 -298997 0 -362724 -311435 0 -360293 -323941 0 -357750 -336518 0 -355092 -349171 0 -352318 -361905 0 -349425 -374725 0 -346412 -387638 0 -343278 -400647 0 -340020 -413759 0 -336637 -426980 0 -333127 -440317 0 -329490 -453775 0 -325724 -467360 0 -321827 -481081 0 -317799 -494943 0 -313638 -508954 0 -309343 -523121 0 -304914 -537451 0 -300348 -551953 0 -295646 -566633 0 -290806 -581500 0 -285828 -596563 0 -280710 -611828 0 -275451 -627306 0 -270051 -643004 0 -264509 -658932 0 -258823 -675100 0 -252992 -691517 0 -247014 -708192 0 -240889 -725137 0 -234615 -742362 0 -228189 -759879 0 -221610 -777698 0 -214876 -795832 0 -207985 -814295 0 -200933 -833098 0 -193718 -852258 0 -186336 -871787 0 -178786 -891703 0 -171061 -912021 0 -163160 -932759 0 -155077 -953937 0 -146808 -975572 0 -138348 -997688 0 -129691 -1.0203e+06 0 -120831 -1.04345e+06 0 -111763 -1.06714e+06 0 -102478 -1.09142e+06 0 -92970.2 -1.1163e+06 0 -83231.4 -1.14183e+06 0 -73254.2 -1.16803e+06 0 -63030.5 -1.19495e+06 0 -52551.4 -1.22261e+06 0 -41806 -1.25106e+06 0 -30780.5 -1.28034e+06 0 -19457.7 -1.31049e+06 0 -7818.33 -1.34159e+06 0 4156.82 -1.37371e+06 0 16482.7 -1.40694e+06 0 29166.1 -1.44138e+06 0 42203.3 -1.47711e+06 0 55583.4 -1.51421e+06 0 69298.4 -1.55271e+06 0 83359.2 -1.59259e+06 0 97816 -1.63383e+06 0 112773 -1.67647e+06 0 128389 -1.72065e+06 0 144854 -1.76672e+06 0 162335 -1.81528e+06 0 180901 -1.86716e+06 0 200442 -1.92328e+06 0 220614 -1.98444e+06 0 240850 -2.051e+06 0 260468 -2.12252e+06 0 278890 -2.19763e+06 0 295957 -2.27406e+06 0 312272 -2.3492e+06 0 329453 -2.42098e+06 0 350181 -2.48924e+06 0 377874 -2.55724e+06 0 415917 -2.63285e+06 0 466420 -2.72908e+06 0 528630 -2.86324e+06 0 597251 -3.05455e+06 0 661072 -3.31996e+06 0 702361 -3.6686e+06 0 697514 -4.09588e+06 0 619278 -4.57851e+06 0 440693 -5.07229e+06 0 140483 -5.51444e+06 0 -290720 -5.8319e+06 0 -844401 -5.95581e+06 0 -1.48981e+06 -5.8411e+06 0 -2.17286e+06 -5.48784e+06 0 -2.81976e+06 -4.95851e+06 0 -3.34677e+06 -4.3831e+06 0 -3.67685e+06 -3.94079e+06 0 -3.76298e+06 -3.80748e+06 0 -3.61814e+06 -4.05116e+06 0 -3.34801e+06 -4.47478e+06 0 -3.18979e+06 -4.36104e+06 0 -3.53408e+06 -2.22797e+06 0 -401319 0 0 -401276 -12280.6 0 -401149 -24563.1 0 -400936 -36849.4 0 -400637 -49141.4 0 -400253 -61441.2 0 -399782 -73750.6 0 -399223 -86071.8 0 -398577 -98406.8 0 -397842 -110758 0 -397017 -123127 0 -396102 -135517 0 -395095 -147930 0 -393994 -160369 0 -392799 -172836 0 -391507 -185334 0 -390118 -197867 0 -388630 -210436 0 -387041 -223046 0 -385350 -235700 0 -383554 -248402 0 -381652 -261154 0 -379642 -273962 0 -377522 -286830 0 -375290 -299761 0 -372944 -312762 0 -370483 -325835 0 -367903 -338987 0 -365205 -352223 0 -362385 -365548 0 -359442 -378968 0 -356373 -392489 0 -353179 -406117 0 -349856 -419859 0 -346403 -433722 0 -342819 -447711 0 -339103 -461836 0 -335253 -476101 0 -331267 -490516 0 -327145 -505089 0 -322886 -519826 0 -318489 -534736 0 -313952 -549828 0 -309275 -565110 0 -304457 -580591 0 -299498 -596280 0 -294395 -612186 0 -289149 -628320 0 -283758 -644690 0 -278222 -661307 0 -272540 -678182 0 -266710 -695325 0 -260731 -712748 0 -254602 -730462 0 -248322 -748480 0 -241889 -766814 0 -235301 -785477 0 -228557 -804484 0 -221653 -823849 0 -214589 -843587 0 -207360 -863714 0 -199965 -884248 0 -192401 -905207 0 -184663 -926609 0 -176749 -948476 0 -168654 -970828 0 -160375 -993690 0 -151906 -1.01708e+06 0 -143243 -1.04104e+06 0 -134380 -1.06558e+06 0 -125311 -1.09074e+06 0 -116031 -1.11656e+06 0 -106533 -1.14306e+06 0 -96810.5 -1.17028e+06 0 -86856.7 -1.19827e+06 0 -76663.8 -1.22707e+06 0 -66222.3 -1.25672e+06 0 -55520.9 -1.28728e+06 0 -44546.5 -1.31879e+06 0 -33285.3 -1.35134e+06 0 -21725.4 -1.385e+06 0 -9859.39 -1.41986e+06 0 2314.01 -1.45601e+06 0 14790.6 -1.49354e+06 0 27566.3 -1.53252e+06 0 40647.2 -1.57299e+06 0 54062.5 -1.61501e+06 0 67875 -1.65866e+06 0 82182 -1.70408e+06 0 97098.6 -1.75156e+06 0 112721 -1.80151e+06 0 129074 -1.85453e+06 0 146054 -1.91126e+06 0 163393 -1.97227e+06 0 180679 -2.03785e+06 0 197445 -2.10781e+06 0 213339 -2.18143e+06 0 228354 -2.25751e+06 0 243057 -2.33486e+06 0 258709 -2.41288e+06 0 277190 -2.4926e+06 0 300607 -2.57748e+06 0 330546 -2.67416e+06 0 367004 -2.79236e+06 0 407166 -2.94391e+06 0 444267 -3.14064e+06 0 466924 -3.39118e+06 0 459272 -3.69721e+06 0 402225 -4.04997e+06 0 275959 -4.42799e+06 0 63484.2 -4.79718e+06 0 -245165 -5.11415e+06 0 -648867 -5.33294e+06 0 -1.13244e+06 -5.41463e+06 0 -1.66573e+06 -5.33816e+06 0 -2.20565e+06 -5.10968e+06 0 -2.70141e+06 -4.76741e+06 0 -3.10287e+06 -4.37866e+06 0 -3.37075e+06 -4.027e+06 0 -3.48713e+06 -3.78945e+06 0 -3.46337e+06 -3.70709e+06 0 -3.34288e+06 -3.75669e+06 0 -3.1953e+06 -3.83676e+06 0 -3.10006e+06 -3.78467e+06 0 -3.11681e+06 -3.45256e+06 0 -3.24432e+06 -2.85758e+06 0 -3.36408e+06 -2.465e+06 0 -3.18842e+06 -3.53319e+06 0 -410904 0 0 -410859 -12800.3 0 -410725 -25602.9 0 -410500 -38409.9 0 -410184 -51223.6 0 -409778 -64046.2 0 -409281 -76880.2 0 -408691 -89727.9 0 -408009 -102592 0 -407233 -115474 0 -406362 -128378 0 -405395 -141306 0 -404330 -154261 0 -403167 -167246 0 -401904 -180264 0 -400540 -193318 0 -399072 -206412 0 -397500 -219549 0 -395821 -232734 0 -394033 -245969 0 -392135 -259260 0 -390125 -272611 0 -388000 -286027 0 -385760 -299511 0 -383401 -313071 0 -380922 -326710 0 -378322 -340434 0 -375597 -354250 0 -372747 -368163 0 -369769 -382179 0 -366662 -396307 0 -363424 -410551 0 -360054 -424920 0 -356549 -439421 0 -352909 -454062 0 -349132 -468849 0 -345217 -483793 0 -341163 -498900 0 -336968 -514180 0 -332633 -529642 0 -328155 -545295 0 -323534 -561147 0 -318769 -577210 0 -313860 -593492 0 -308805 -610005 0 -303605 -626758 0 -298258 -643762 0 -292763 -661030 0 -287121 -678572 0 -281329 -696400 0 -275387 -714527 0 -269294 -732967 0 -263049 -751732 0 -256651 -770837 0 -250098 -790297 0 -243388 -810127 0 -236520 -830344 0 -229492 -850964 0 -222302 -872008 0 -214947 -893493 0 -207425 -915440 0 -199733 -937871 0 -191868 -960810 0 -183827 -984280 0 -175606 -1.00831e+06 0 -167202 -1.03293e+06 0 -158610 -1.05816e+06 0 -149827 -1.08404e+06 0 -140847 -1.11061e+06 0 -131665 -1.1379e+06 0 -122278 -1.16596e+06 0 -112680 -1.19483e+06 0 -102864 -1.22455e+06 0 -92825.2 -1.25517e+06 0 -82555.1 -1.28676e+06 0 -72045.1 -1.31938e+06 0 -61287.1 -1.35309e+06 0 -50274.6 -1.38799e+06 0 -39004.7 -1.42416e+06 0 -27479.1 -1.46169e+06 0 -15702.2 -1.50068e+06 0 -3676.53 -1.54121e+06 0 8605.11 -1.58337e+06 0 21167.8 -1.62726e+06 0 34058.2 -1.67301e+06 0 47338.7 -1.72082e+06 0 61066.5 -1.771e+06 0 75259.6 -1.82397e+06 0 89855.6 -1.88021e+06 0 104680 -1.9402e+06 0 119446 -2.00431e+06 0 133804 -2.07264e+06 0 147452 -2.14501e+06 0 160289 -2.22095e+06 0 172578 -2.29997e+06 0 185032 -2.38199e+06 0 198746 -2.46796e+06 0 214892 -2.56048e+06 0 234133 -2.6642e+06 0 255793 -2.78584e+06 0 276918 -2.93341e+06 0 291439 -3.11474e+06 0 289743 -3.33516e+06 0 258932 -3.59493e+06 0 183995 -3.8868e+06 0 49941 -4.19458e+06 0 -155292 -4.49337e+06 0 -437596 -4.7521e+06 0 -793777 -4.93817e+06 0 -1.20973e+06 -5.02401e+06 0 -1.66043e+06 -4.99386e+06 0 -2.11215e+06 -4.84948e+06 0 -2.52707e+06 -4.61261e+06 0 -2.86948e+06 -4.32274e+06 0 -3.11288e+06 -4.02961e+06 0 -3.24608e+06 -3.78115e+06 0 -3.27694e+06 -3.60947e+06 0 -3.23213e+06 -3.5188e+06 0 -3.15216e+06 -3.48044e+06 0 -3.08192e+06 -3.43908e+06 0 -3.05823e+06 -3.33272e+06 0 -3.09734e+06 -3.1241e+06 0 -3.18666e+06 -2.83413e+06 0 -3.28539e+06 -2.56081e+06 0 -3.33984e+06 -2.45168e+06 0 -3.31638e+06 -2.59966e+06 0 -3.25873e+06 -2.79138e+06 0 -3.35813e+06 -2.12407e+06 0 -420540 0 0 -420493 -13323.6 0 -420351 -26649.8 0 -420115 -39981.1 0 -419783 -53320.2 0 -419356 -66669.6 0 -418832 -80032.1 0 -418212 -93410.5 0 -417494 -106808 0 -416677 -120226 0 -415761 -133670 0 -414743 -147141 0 -413623 -160643 0 -412399 -174180 0 -411070 -187755 0 -409633 -201372 0 -408089 -215036 0 -406433 -228749 0 -404666 -242517 0 -402784 -256344 0 -400786 -270235 0 -398670 -284195 0 -396435 -298230 0 -394077 -312345 0 -391595 -326546 0 -388987 -340839 0 -386252 -355231 0 -383387 -369727 0 -380390 -384337 0 -377261 -399066 0 -373996 -413922 0 -370595 -428913 0 -367057 -444047 0 -363379 -459334 0 -359560 -474781 0 -355600 -490397 0 -351497 -506192 0 -347251 -522176 0 -342860 -538358 0 -338324 -554749 0 -333642 -571358 0 -328814 -588198 0 -323839 -605279 0 -318715 -622613 0 -313444 -640211 0 -308025 -658086 0 -302456 -676251 0 -296737 -694719 0 -290868 -713503 0 -284848 -732619 0 -278677 -752081 0 -272352 -771904 0 -265875 -792106 0 -259242 -812703 0 -252454 -833714 0 -245508 -855157 0 -238404 -877054 0 -231140 -899426 0 -223713 -922296 0 -216122 -945689 0 -208365 -969629 0 -200440 -994146 0 -192343 -1.01927e+06 0 -184073 -1.04503e+06 0 -175627 -1.07146e+06 0 -167002 -1.09861e+06 0 -158194 -1.1265e+06 0 -149202 -1.15519e+06 0 -140022 -1.18472e+06 0 -130652 -1.21513e+06 0 -121087 -1.2465e+06 0 -111325 -1.27886e+06 0 -101361 -1.3123e+06 0 -91191.3 -1.34689e+06 0 -80815.5 -1.38271e+06 0 -70234.4 -1.41985e+06 0 -59453.2 -1.45842e+06 0 -48479.3 -1.4985e+06 0 -37319.3 -1.54021e+06 0 -25974 -1.58366e+06 0 -14433.7 -1.62897e+06 0 -2677.42 -1.67631e+06 0 9319.69 -1.72589e+06 0 21567.9 -1.77801e+06 0 34035.4 -1.83304e+06 0 46619.7 -1.8914e+06 0 59130.5 -1.95348e+06 0 71301.8 -2.01959e+06 0 82845.7 -2.08986e+06 0 93545.9 -2.16426e+06 0 103370 -2.24269e+06 0 112551 -2.32523e+06 0 121578 -2.4125e+06 0 131015 -2.50611e+06 0 141113 -2.60902e+06 0 151211 -2.72565e+06 0 159017 -2.86144e+06 0 159920 -3.02197e+06 0 146581 -3.21135e+06 0 109039 -3.43038e+06 0 35526.2 -3.67462e+06 0 -85919.5 -3.93309e+06 0 -265189 -4.18817e+06 0 -507515 -4.41697e+06 0 -811096 -4.5945e+06 0 -1.16556e+06 -4.69813e+06 0 -1.55185e+06 -4.71259e+06 0 -1.9439e+06 -4.63432e+06 0 -2.31208e+06 -4.47382e+06 0 -2.62802e+06 -4.25494e+06 0 -2.86985e+06 -4.01072e+06 0 -3.0268e+06 -3.7762e+06 0 -3.10185e+06 -3.57976e+06 0 -3.11153e+06 -3.43536e+06 0 -3.08262e+06 -3.33833e+06 0 -3.04586e+06 -3.26673e+06 0 -3.02836e+06 -3.1893e+06 0 -3.04626e+06 -3.07825e+06 0 -3.10012e+06 -2.92346e+06 0 -3.17486e+06 -2.74185e+06 0 -3.24514e+06 -2.57592e+06 0 -3.28574e+06 -2.47671e+06 0 -3.28392e+06 -2.47279e+06 0 -3.24924e+06 -2.53505e+06 0 -3.2134e+06 -2.5649e+06 0 -3.21306e+06 -2.44323e+06 0 -3.24505e+06 -2.2172e+06 0 -3.19444e+06 -2.46482e+06 0 -430226 0 0 -430176 -13850.2 0 -430028 -27703.4 0 -429780 -41562.5 0 -429432 -55430.5 0 -428984 -69310.4 0 -428435 -83205.2 0 -427785 -97118.3 0 -427032 -111053 0 -426176 -125012 0 -425215 -139000 0 -424148 -153019 0 -422973 -167075 0 -421690 -181170 0 -420296 -195309 0 -418790 -209496 0 -417170 -223736 0 -415434 -238033 0 -413580 -252394 0 -411607 -266822 0 -409513 -281323 0 -407295 -295904 0 -404951 -310570 0 -402480 -325328 0 -399880 -340185 0 -397148 -355147 0 -394284 -370223 0 -391284 -385419 0 -388148 -400743 0 -384873 -416205 0 -381459 -431812 0 -377904 -447573 0 -374206 -463498 0 -370365 -479597 0 -366380 -495880 0 -362249 -512355 0 -357972 -529036 0 -353548 -545931 0 -348976 -563053 0 -344257 -580414 0 -339389 -598024 0 -334373 -615898 0 -329207 -634047 0 -323893 -652485 0 -318429 -671226 0 -312816 -690284 0 -307053 -709675 0 -301140 -729414 0 -295077 -749516 0 -288863 -770001 0 -282498 -790884 0 -275981 -812186 0 -269313 -833926 0 -262492 -856125 0 -255517 -878806 0 -248389 -901993 0 -241106 -925710 0 -233666 -949984 0 -226070 -974846 0 -218316 -1.00032e+06 0 -210403 -1.02645e+06 0 -202331 -1.05327e+06 0 -194097 -1.08081e+06 0 -185702 -1.10911e+06 0 -177144 -1.13823e+06 0 -168424 -1.1682e+06 0 -159540 -1.19909e+06 0 -150493 -1.23095e+06 0 -141284 -1.26383e+06 0 -131912 -1.29782e+06 0 -122380 -1.33298e+06 0 -112689 -1.3694e+06 0 -102848 -1.40718e+06 0 -92863.7 -1.44641e+06 0 -82749.9 -1.48721e+06 0 -72520.2 -1.52969e+06 0 -62186.7 -1.57397e+06 0 -51757.9 -1.62019e+06 0 -41238.1 -1.66854e+06 0 -30634.3 -1.71922e+06 0 -19970.3 -1.77251e+06 0 -9306.91 -1.82875e+06 0 1236.09 -1.88829e+06 0 11469.3 -1.95151e+06 0 21144.6 -2.01872e+06 0 29996.7 -2.09012e+06 0 37810.2 -2.16588e+06 0 44490.1 -2.24614e+06 0 50093.9 -2.3313e+06 0 54768.4 -2.42225e+06 0 58541.3 -2.52069e+06 0 60941.9 -2.6293e+06 0 60479.7 -2.75167e+06 0 54077.4 -2.8918e+06 0 36624.2 -3.05319e+06 0 852.274 -3.23745e+06 0 -62265.3 -3.44285e+06 0 -162480 -3.66301e+06 0 -308622 -3.88629e+06 0 -506543 -4.09627e+06 0 -757054 -4.27353e+06 0 -1.05434e+06 -4.39865e+06 0 -1.38541e+06 -4.45597e+06 0 -1.73089e+06 -4.43729e+06 0 -2.0674e+06 -4.34452e+06 0 -2.37104e+06 -4.19033e+06 0 -2.62164e+06 -3.99636e+06 0 -2.80661e+06 -3.78898e+06 0 -2.92357e+06 -3.5934e+06 0 -2.9809e+06 -3.4278e+06 0 -2.99591e+06 -3.29891e+06 0 -2.99075e+06 -3.20098e+06 0 -2.98705e+06 -3.11847e+06 0 -3.00055e+06 -3.03252e+06 0 -3.03727e+06 -2.92885e+06 0 -3.09248e+06 -2.80478e+06 0 -3.15297e+06 -2.67183e+06 0 -3.20231e+06 -2.55211e+06 0 -3.22752e+06 -2.46837e+06 0 -3.22482e+06 -2.4308e+06 0 -3.20212e+06 -2.4267e+06 0 -3.17631e+06 -2.42066e+06 0 -3.16523e+06 -2.37093e+06 0 -3.17672e+06 -2.2613e+06 0 -3.20063e+06 -2.13181e+06 0 -3.21242e+06 -2.07408e+06 0 -3.20107e+06 -2.11662e+06 0 -3.23113e+06 -1.91838e+06 0 -439960 0 0 -439908 -14380 0 -439753 -28763.4 0 -439494 -43153.5 0 -439131 -57553.8 0 -438663 -71967.6 0 -438089 -86398.5 0 -437410 -100850 0 -436623 -115326 0 -435728 -129830 0 -434724 -144367 0 -433609 -158940 0 -432382 -173554 0 -431041 -188213 0 -429584 -202922 0 -428011 -217686 0 -426318 -232510 0 -424504 -247400 0 -422568 -262361 0 -420507 -277400 0 -418320 -292522 0 -416004 -307734 0 -413557 -323044 0 -410978 -338459 0 -408264 -353986 0 -405415 -369633 0 -402427 -385408 0 -399300 -401321 0 -396032 -417380 0 -392621 -433594 0 -389067 -449975 0 -385368 -466530 0 -381523 -483272 0 -377531 -500211 0 -373392 -517358 0 -369105 -534726 0 -364669 -552325 0 -360085 -570169 0 -355351 -588270 0 -350468 -606642 0 -345436 -625298 0 -340255 -644253 0 -334925 -663522 0 -329446 -683121 0 -323819 -703064 0 -318043 -723370 0 -312120 -744056 0 -306048 -765140 0 -299829 -786642 0 -293463 -808581 0 -286950 -830981 0 -280290 -853863 0 -273484 -877251 0 -266531 -901173 0 -259433 -925654 0 -252189 -950724 0 -244800 -976415 0 -237266 -1.00276e+06 0 -229588 -1.0298e+06 0 -221767 -1.05756e+06 0 -213804 -1.0861e+06 0 -205701 -1.11545e+06 0 -197459 -1.14567e+06 0 -189082 -1.1768e+06 0 -180571 -1.20892e+06 0 -171931 -1.24207e+06 0 -163168 -1.27633e+06 0 -154285 -1.31178e+06 0 -145293 -1.3485e+06 0 -136201 -1.38659e+06 0 -127023 -1.42614e+06 0 -117778 -1.46726e+06 0 -108486 -1.51009e+06 0 -99171.9 -1.55474e+06 0 -89859.6 -1.60138e+06 0 -80575.3 -1.65016e+06 0 -71350.9 -1.70131e+06 0 -62234.3 -1.75506e+06 0 -53305.1 -1.81172e+06 0 -44690.7 -1.87164e+06 0 -36577.6 -1.93514e+06 0 -29206.7 -2.00257e+06 0 -22848.5 -2.07422e+06 0 -17760.4 -2.15034e+06 0 -14145.8 -2.23125e+06 0 -12148.2 -2.31743e+06 0 -11923.6 -2.4098e+06 0 -13832.6 -2.50983e+06 0 -18762.9 -2.6197e+06 0 -28552.8 -2.74211e+06 0 -46420.8 -2.87986e+06 0 -77256.4 -3.03502e+06 0 -127597 -3.20782e+06 0 -205139 -3.39552e+06 0 -317710 -3.59147e+06 0 -471769 -3.78486e+06 0 -670660 -3.96137e+06 0 -912999 -4.10489e+06 0 -1.19163e+06 -4.20013e+06 0 -1.49356e+06 -4.23569e+06 0 -1.80116e+06 -4.20684e+06 0 -2.09451e+06 -4.11722e+06 0 -2.35465e+06 -3.9788e+06 0 -2.56694e+06 -3.80994e+06 0 -2.72392e+06 -3.63164e+06 0 -2.82668e+06 -3.46299e+06 0 -2.88451e+06 -3.31692e+06 0 -2.91249e+06 -3.19758e+06 0 -2.92784e+06 -3.10031e+06 0 -2.94562e+06 -3.01431e+06 0 -2.97515e+06 -2.92735e+06 0 -3.01811e+06 -2.83103e+06 0 -3.06897e+06 -2.72453e+06 0 -3.11767e+06 -2.61533e+06 0 -3.15376e+06 -2.51612e+06 0 -3.17068e+06 -2.43877e+06 0 -3.1686e+06 -2.38767e+06 0 -3.15459e+06 -2.35573e+06 0 -3.13987e+06 -2.3258e+06 0 -3.13491e+06 -2.27861e+06 0 -3.1443e+06 -2.20461e+06 0 -3.16409e+06 -2.1135e+06 0 -3.18362e+06 -2.03325e+06 0 -3.19242e+06 -1.99192e+06 0 -3.18932e+06 -1.98677e+06 0 -3.18667e+06 -1.96493e+06 0 -3.19709e+06 -1.87741e+06 0 -3.18648e+06 -1.91121e+06 0 -449742 0 0 -449688 -14912.8 0 -449526 -29829.4 0 -449257 -44753.6 0 -448878 -59689.3 0 -448391 -74640.3 0 -447794 -89610.6 0 -447086 -104604 0 -446267 -119626 0 -445335 -134679 0 -444289 -149770 0 -443128 -164901 0 -441850 -180078 0 -440453 -195307 0 -438936 -210592 0 -437298 -225940 0 -435536 -241356 0 -433648 -256846 0 -431632 -272416 0 -429488 -288075 0 -427212 -303828 0 -424802 -319683 0 -422258 -335649 0 -419576 -351733 0 -416756 -367944 0 -413795 -384291 0 -410693 -400783 0 -407447 -417431 0 -404057 -434244 0 -400520 -451232 0 -396837 -468408 0 -393007 -485782 0 -389028 -503367 0 -384900 -521174 0 -380623 -539217 0 -376196 -557507 0 -371620 -576060 0 -366895 -594890 0 -362021 -614010 0 -356998 -633437 0 -351827 -653185 0 -346509 -673272 0 -341043 -693715 0 -335432 -714532 0 -329675 -735741 0 -323774 -757362 0 -317730 -779415 0 -311544 -801924 0 -305217 -824910 0 -298749 -848398 0 -292144 -872414 0 -285401 -896986 0 -278522 -922142 0 -271510 -947915 0 -264365 -974338 0 -257092 -1.00145e+06 0 -249691 -1.02928e+06 0 -242166 -1.05788e+06 0 -234521 -1.08729e+06 0 -226760 -1.11756e+06 0 -218887 -1.14875e+06 0 -210909 -1.18091e+06 0 -202833 -1.2141e+06 0 -194667 -1.24839e+06 0 -186421 -1.28386e+06 0 -178108 -1.3206e+06 0 -169741 -1.35868e+06 0 -161340 -1.39822e+06 0 -152928 -1.43932e+06 0 -144533 -1.48211e+06 0 -136188 -1.52671e+06 0 -127929 -1.57328e+06 0 -119799 -1.62199e+06 0 -111850 -1.67302e+06 0 -104146 -1.72661e+06 0 -96779.7 -1.78304e+06 0 -89882.9 -1.8426e+06 0 -83638.4 -1.90562e+06 0 -78284 -1.97246e+06 0 -74101.1 -2.04343e+06 0 -71392.6 -2.11886e+06 0 -70460.7 -2.19911e+06 0 -71609.6 -2.28469e+06 0 -75206.9 -2.37636e+06 0 -81835.4 -2.47532e+06 0 -92547.4 -2.58319e+06 0 -109193 -2.70194e+06 0 -134752 -2.8335e+06 0 -173540 -2.97909e+06 0 -231145 -3.13836e+06 0 -313978 -3.30847e+06 0 -428366 -3.48341e+06 0 -579265 -3.65381e+06 0 -768802 -3.80755e+06 0 -994969 -3.93123e+06 0 -1.25086e+06 -4.01237e+06 0 -1.52478e+06 -4.04187e+06 0 -1.80144e+06 -4.01626e+06 0 -2.06406e+06 -3.93891e+06 0 -2.29715e+06 -3.81996e+06 0 -2.48931e+06 -3.67446e+06 0 -2.6353e+06 -3.51942e+06 0 -2.73695e+06 -3.37015e+06 0 -2.80241e+06 -3.23703e+06 0 -2.84394e+06 -3.12368e+06 0 -2.87479e+06 -3.02713e+06 0 -2.90588e+06 -2.93997e+06 0 -2.94331e+06 -2.85383e+06 0 -2.98742e+06 -2.76304e+06 0 -3.03357e+06 -2.66701e+06 0 -3.07463e+06 -2.57048e+06 0 -3.104e+06 -2.4813e+06 0 -3.11848e+06 -2.40655e+06 0 -3.11966e+06 -2.34874e+06 0 -3.1134e+06 -2.30381e+06 0 -3.10758e+06 -2.2623e+06 0 -3.10876e+06 -2.21369e+06 0 -3.11943e+06 -2.15229e+06 0 -3.13687e+06 -2.08137e+06 0 -3.15466e+06 -2.01274e+06 0 -3.16619e+06 -1.96018e+06 0 -3.16871e+06 -1.9291e+06 0 -3.16543e+06 -1.90908e+06 0 -3.16339e+06 -1.87809e+06 0 -3.16723e+06 -1.82331e+06 0 -3.17273e+06 -1.76666e+06 0 -3.17026e+06 -1.75113e+06 0 -3.17695e+06 -1.68051e+06 0 -459571 0 0 -459515 -15448.3 0 -459347 -30900.9 0 -459067 -46362.1 0 -458674 -61836.1 0 -458168 -77327.5 0 -457548 -92840.6 0 -456813 -108380 0 -455963 -123951 0 -454995 -139557 0 -453910 -155205 0 -452704 -170899 0 -451377 -186646 0 -449928 -202450 0 -448354 -218317 0 -446654 -234255 0 -444825 -250269 0 -442867 -266367 0 -440777 -282556 0 -438553 -298844 0 -436193 -315238 0 -433696 -331748 0 -431060 -348381 0 -428283 -365147 0 -425364 -382057 0 -422301 -399119 0 -419092 -416345 0 -415738 -433745 0 -412236 -451331 0 -408585 -469115 0 -404786 -487109 0 -400838 -505326 0 -396740 -523780 0 -392493 -542484 0 -388096 -561452 0 -383550 -580699 0 -378855 -600241 0 -374013 -620095 0 -369023 -640275 0 -363888 -660801 0 -358607 -681690 0 -353183 -702960 0 -347617 -724633 0 -341911 -746728 0 -336066 -769268 0 -330084 -792275 0 -323967 -815773 0 -317718 -839790 0 -311339 -864351 0 -304832 -889487 0 -298201 -915227 0 -291449 -941606 0 -284579 -968659 0 -277596 -996423 0 -270505 -1.02494e+06 0 -263309 -1.05426e+06 0 -256017 -1.08442e+06 0 -248635 -1.11547e+06 0 -241170 -1.14748e+06 0 -233634 -1.18051e+06 0 -226036 -1.21461e+06 0 -218391 -1.24988e+06 0 -210714 -1.28637e+06 0 -203024 -1.32419e+06 0 -195342 -1.36343e+06 0 -187697 -1.40419e+06 0 -180120 -1.4466e+06 0 -172652 -1.49078e+06 0 -165337 -1.53688e+06 0 -158230 -1.58506e+06 0 -151394 -1.63549e+06 0 -144907 -1.6884e+06 0 -138871 -1.74401e+06 0 -133417 -1.80262e+06 0 -128725 -1.86452e+06 0 -125024 -1.93005e+06 0 -122601 -1.99954e+06 0 -121784 -2.07333e+06 0 -122939 -2.1518e+06 0 -126473 -2.23541e+06 0 -132874 -2.32479e+06 0 -142822 -2.42081e+06 0 -157374 -2.52466e+06 0 -178211 -2.63773e+06 0 -207899 -2.76135e+06 0 -250058 -2.89631e+06 0 -309326 -3.04214e+06 0 -391007 -3.19641e+06 0 -500340 -3.35413e+06 0 -641444 -3.50754e+06 0 -816093 -3.6466e+06 0 -1.02261e+06 -3.76008e+06 0 -1.25519e+06 -3.83734e+06 0 -1.50399e+06 -3.87038e+06 0 -1.75607e+06 -3.85573e+06 0 -1.99723e+06 -3.79554e+06 0 -2.21427e+06 -3.69759e+06 0 -2.39739e+06 -3.57396e+06 0 -2.54188e+06 -3.43859e+06 0 -2.64886e+06 -3.3044e+06 0 -2.7246e+06 -3.18064e+06 0 -2.7787e+06 -3.07132e+06 0 -2.82151e+06 -2.97527e+06 0 -2.86151e+06 -2.88765e+06 0 -2.90342e+06 -2.80254e+06 0 -2.94759e+06 -2.71568e+06 0 -2.99077e+06 -2.62627e+06 0 -3.02809e+06 -2.53716e+06 0 -3.05532e+06 -2.45343e+06 0 -3.07087e+06 -2.37984e+06 0 -3.07655e+06 -2.3183e+06 0 -3.07697e+06 -2.26659e+06 0 -3.07777e+06 -2.21912e+06 0 -3.08334e+06 -2.16945e+06 0 -3.09508e+06 -2.11364e+06 0 -3.11099e+06 -2.05263e+06 0 -3.12674e+06 -1.99212e+06 0 -3.13797e+06 -1.93948e+06 0 -3.14257e+06 -1.89897e+06 0 -3.14191e+06 -1.86807e+06 0 -3.13995e+06 -1.83788e+06 0 -3.14067e+06 -1.799e+06 0 -3.14514e+06 -1.75008e+06 0 -3.1505e+06 -1.70195e+06 0 -3.15289e+06 -1.66824e+06 0 -3.15278e+06 -1.64449e+06 0 -3.15647e+06 -1.6006e+06 0 -3.15607e+06 -1.58254e+06 0 -469445 0 0 -469387 -15986.4 0 -469213 -31977.7 0 -468923 -47978.5 0 -468516 -63993.7 0 -467993 -80028.2 0 -467351 -96087.2 0 -466591 -112176 0 -465710 -128299 0 -464709 -144463 0 -463586 -160672 0 -462338 -176934 0 -460966 -193254 0 -459466 -209638 0 -457838 -226094 0 -456079 -242628 0 -454189 -259248 0 -452164 -275962 0 -450004 -292778 0 -447706 -309704 0 -445269 -326749 0 -442691 -343923 0 -439970 -361236 0 -437106 -378698 0 -434096 -396320 0 -430939 -414113 0 -427635 -432089 0 -424183 -450260 0 -420582 -468639 0 -416831 -487239 0 -412931 -506074 0 -408881 -525159 0 -404682 -544508 0 -400334 -564136 0 -395838 -584061 0 -391196 -604299 0 -386407 -624866 0 -381474 -645782 0 -376398 -667066 0 -371181 -688736 0 -365825 -710814 0 -360332 -733322 0 -354706 -756282 0 -348948 -779718 0 -343062 -803657 0 -337051 -828124 0 -330919 -853149 0 -324669 -878762 0 -318306 -904994 0 -311835 -931882 0 -305260 -959462 0 -298590 -987773 0 -291829 -1.01686e+06 0 -284985 -1.04677e+06 0 -278069 -1.07754e+06 0 -271089 -1.10925e+06 0 -264057 -1.14193e+06 0 -256987 -1.17567e+06 0 -249894 -1.21052e+06 0 -242798 -1.24657e+06 0 -235718 -1.28389e+06 0 -228680 -1.32259e+06 0 -221715 -1.36275e+06 0 -214858 -1.4045e+06 0 -208151 -1.44795e+06 0 -201647 -1.49324e+06 0 -195403 -1.54053e+06 0 -189493 -1.58997e+06 0 -184001 -1.64177e+06 0 -179032 -1.69613e+06 0 -174719 -1.7533e+06 0 -171232 -1.81356e+06 0 -168792 -1.87722e+06 0 -167672 -1.9446e+06 0 -168205 -2.01603e+06 0 -170781 -2.09188e+06 0 -175851 -2.17254e+06 0 -183957 -2.25852e+06 0 -195797 -2.35047e+06 0 -212352 -2.44922e+06 0 -235066 -2.55573e+06 0 -266051 -2.67094e+06 0 -308236 -2.7954e+06 0 -365386 -2.92878e+06 0 -441867 -3.06922e+06 0 -542116 -3.21289e+06 0 -669804 -3.35367e+06 0 -826824 -3.48338e+06 0 -1.01231e+06 -3.5926e+06 0 -1.22198e+06 -3.67202e+06 0 -1.44803e+06 -3.71412e+06 0 -1.6798e+06 -3.7148e+06 0 -1.90521e+06 -3.67456e+06 0 -2.11263e+06 -3.59868e+06 0 -2.29292e+06 -3.49643e+06 0 -2.44098e+06 -3.37923e+06 0 -2.55655e+06 -3.25831e+06 0 -2.64377e+06 -3.14244e+06 0 -2.70987e+06 -3.03642e+06 0 -2.76303e+06 -2.94081e+06 0 -2.81027e+06 -2.85291e+06 0 -2.85588e+06 -2.76859e+06 0 -2.90077e+06 -2.68449e+06 0 -2.94309e+06 -2.59947e+06 0 -2.97961e+06 -2.51506e+06 0 -3.00755e+06 -2.43461e+06 0 -3.02599e+06 -2.36155e+06 0 -3.03649e+06 -2.29761e+06 0 -3.04254e+06 -2.24179e+06 0 -3.04827e+06 -2.1907e+06 0 -3.05686e+06 -2.14006e+06 0 -3.06932e+06 -2.08684e+06 0 -3.08424e+06 -2.03086e+06 0 -3.09865e+06 -1.97491e+06 0 -3.10957e+06 -1.92323e+06 0 -3.11546e+06 -1.87889e+06 0 -3.11709e+06 -1.8416e+06 0 -3.11699e+06 -1.80741e+06 0 -3.11805e+06 -1.77095e+06 0 -3