<?xml version="1.0"?> 
<VTKFile type="StructuredGrid" version="0.1"> 
<StructuredGrid WholeExtent="0 127 0 127 0 0"> 
<Piece Extent="0 127 0 127 0 0"> 
<PointData>
<DataArray type="Float32" Name="E" format="ascii" NumberOfComponents="3"> 
2.6226e-06 0.000137329 0 -3.18336e-07 558.524 0 2.16802e-07 887.516 0 -9.33505e-08 1022.84 0 6.24859e-08 1053.73 0 -1.04774e-09 1032.67 0 -4.58676e-08 986.571 0 -7.10133e-08 928.851 0 1.30502e-07 866.687 0 -5.82077e-09 803.954 0 2.56114e-08 742.813 0 -4.28408e-08 684.437 0 5.54137e-08 629.436 0 -3.53903e-08 578.077 0 -7.63685e-08 530.423 0 4.98258e-08 486.407 0 1.72295e-08 445.89 0 9.96515e-08 408.689 0 -3.76254e-07 374.599 0 2.98955e-07 343.403 0 -1.6205e-07 314.888 0 5.02914e-08 288.843 0 6.61239e-08 265.067 0 -6.51926e-09 243.37 0 -7.54371e-08 223.572 0 9.31323e-10 205.508 0 -2.04891e-08 189.024 0 8.00937e-08 173.978 0 -6.33299e-08 160.24 0 9.87202e-08 147.692 0 -3.33413e-07 136.225 0 2.32831e-07 125.739 0 1.86265e-09 116.146 0 -8.19564e-08 107.364 0 3.72529e-09 99.3177 0 2.10479e-07 91.941 0 -1.04308e-07 85.173 0 -7.07805e-08 78.9588 0 1.93715e-07 73.2483 0 -4.84288e-08 67.9967 0 -5.96046e-08 63.1632 0 1.63913e-07 58.7108 0 -1.00583e-07 54.6063 0 -1.15484e-07 50.8194 0 -9.31323e-08 47.3227 0 2.34693e-07 44.0915 0 -1.49012e-07 41.1032 0 -1.08033e-07 38.3376 0 1.82539e-07 35.776 0 -4.84288e-08 33.4018 0 -1.22935e-07 31.1995 0 -2.98023e-08 29.1555 0 2.6077e-07 27.2568 0 -2.01166e-07 25.4922 0 8.9407e-08 23.8511 0 2.98023e-08 22.3239 0 1.11759e-07 20.9018 0 -2.75671e-07 19.5769 0 3.72529e-07 18.3419 0 -8.9407e-08 17.1899 0 -8.19564e-08 16.1149 0 -1.41561e-07 15.1113 0 5.06639e-07 14.1738 0 -6.25849e-07 13.2978 0 4.02331e-07 12.4788 0 -3.35276e-07 11.7127 0 3.72529e-07 10.996 0 -3.7998e-07 10.3251 0 4.02331e-07 9.69691 0 -4.02331e-07 9.10847 0 4.17233e-07 8.55711 0 -3.8743e-07 8.04031 0 3.27826e-07 7.55574 0 -4.32134e-07 7.10128 0 4.47035e-07 6.67492 0 -3.72529e-07 6.27482 0 3.72529e-07 5.89927 0 -3.72529e-07 5.54665 0 3.42727e-07 5.2155 0 -3.27826e-07 4.90444 0 4.61936e-07 4.61215 0 -3.42727e-07 4.33748 0 3.57628e-07 4.07925 0 -3.42727e-07 3.83647 0 3.27826e-07 3.60816 0 -3.72529e-07 3.39338 0 4.02331e-07 3.19132 0 -3.42727e-07 3.00114 0 2.68221e-07 2.82214 0 -3.57628e-07 2.65358 0 3.57628e-07 2.49485 0 -3.72529e-07 2.34532 0 2.68221e-07 2.20441 0 -3.27826e-07 2.07161 0 3.42727e-07 1.94637 0 -3.42727e-07 1.82826 0 2.38419e-07 1.71683 0 -3.72529e-07 1.61161 0 3.8743e-07 1.51229 0 -1.93715e-07 1.41844 0 2.08616e-07 1.32974 0 -2.98023e-07 1.24583 0 2.68221e-07 1.16645 0 -2.98023e-07 1.09125 0 2.98023e-07 1.02002 0 -2.68221e-07 0.952415 0 2.08616e-07 0.888274 0 -1.78814e-07 0.827308 0 1.78814e-07 0.769323 0 -1.78814e-07 0.714081 0 1.78814e-07 0.661416 0 -1.78814e-07 0.61111 0 1.19209e-07 0.562994 0 -1.78814e-07 0.51689 0 1.49012e-07 0.472632 0 -1.49012e-07 0.430071 0 1.49012e-07 0.38904 0 -8.9407e-08 0.349387 0 8.9407e-08 0.311007 0 -1.19209e-07 0.273708 0 8.9407e-08 0.237408 0 -1.19209e-07 0.201937 0 1.19209e-07 0.167201 0 -8.9407e-08 0.133049 0 8.9407e-08 0.0993659 0 -2.98023e-08 0.0660565 0 2.98023e-07 0.0329659 0 -2.14577e-06 2.86102e-06 0 10.3332 -3.00677e-06 0 8.12598 558.565 0 4.12018 887.551 0 1.43557 1022.87 0 -0.024092 1053.75 0 -0.827317 1032.68 0 -1.2702 986.574 0 -1.51591 928.852 0 -1.64306 866.687 0 -1.69775 803.954 0 -1.70572 742.811 0 -1.68328 684.435 0 -1.64077 629.434 0 -1.58516 578.076 0 -1.5212 530.421 0 -1.45228 486.405 0 -1.3808 445.888 0 -1.30851 408.687 0 -1.23666 374.596 0 -1.16616 343.401 0 -1.09768 314.886 0 -1.03167 288.841 0 -0.968426 265.066 0 -0.908147 243.368 0 -0.850936 223.57 0 -0.796826 205.506 0 -0.745801 189.022 0 -0.697805 173.976 0 -0.652753 160.239 0 -0.610539 147.691 0 -0.571044 136.223 0 -0.534136 125.738 0 -0.499682 116.145 0 -0.467545 107.363 0 -0.437582 99.3166 0 -0.409672 91.94 0 -0.383669 85.1721 0 -0.359456 78.9578 0 -0.336909 73.2474 0 -0.315912 67.9959 0 -0.29636 63.1624 0 -0.278145 58.7101 0 -0.261177 54.6056 0 -0.24536 50.8187 0 -0.230615 47.3221 0 -0.21686 44.0909 0 -0.204026 41.1027 0 -0.192042 38.337 0 -0.180848 35.7755 0 -0.170387 33.4013 0 -0.160601 31.1991 0 -0.151447 29.155 0 -0.142874 27.2564 0 -0.134845 25.4918 0 -0.127317 23.8507 0 -0.120256 22.3235 0 -0.11363 20.9015 0 -0.107407 19.5766 0 -0.101561 18.3415 0 -0.0960638 17.1896 0 -0.0908932 16.1147 0 -0.0860264 15.111 0 -0.0814436 14.1736 0 -0.0771265 13.2976 0 -0.073056 12.4785 0 -0.0692174 11.7125 0 -0.0655962 10.9958 0 -0.0621783 10.3249 0 -0.0589494 9.69673 0 -0.055901 9.1083 0 -0.0530176 8.55694 0 -0.050294 8.04014 0 -0.0477165 7.55558 0 -0.0452795 7.10112 0 -0.0429724 6.67478 0 -0.0407894 6.27468 0 -0.0387213 5.89913 0 -0.0367654 5.54653 0 -0.034909 5.21539 0 -0.0331539 4.90432 0 -0.0314877 4.61205 0 -0.0299116 4.33736 0 -0.0284164 4.07916 0 -0.0269986 3.83639 0 -0.0256555 3.60807 0 -0.0243816 3.3933 0 -0.0231742 3.19123 0 -0.0220301 3.00107 0 -0.0209445 2.82206 0 -0.0199162 2.65351 0 -0.0189402 2.49478 0 -0.0180177 2.34525 0 -0.0171408 2.20435 0 -0.0163119 2.07154 0 -0.0155264 1.94631 0 -0.014782 1.82821 0 -0.0140783 1.71676 0 -0.0134121 1.61158 0 -0.0127821 1.51224 0 -0.0121864 1.4184 0 -0.0116241 1.32969 0 -0.0110935 1.2458 0 -0.0105927 1.1664 0 -0.0101216 1.09122 0 -0.00967704 1.01997 0 -0.00926112 0.952395 0 -0.00886876 0.88824 0 -0.00850274 0.82728 0 -0.00815975 0.769291 0 -0.0078404 0.714061 0 -0.0075425 0.661389 0 -0.0072677 0.611087 0 -0.00701231 0.56297 0 -0.00677902 0.516871 0 -0.00656445 0.472616 0 -0.00637006 0.430051 0 -0.00619507 0.38902 0 -0.0060384 0.349383 0 -0.00590099 0.310986 0 -0.00578188 0.273705 0 -0.00568095 0.237393 0 -0.00559857 0.201933 0 -0.00553418 0.167188 0 -0.00548868 0.13304 0 -0.00546066 0.09937 0 -0.00545189 0.0660482 0 -0.00546198 0.0329669 0 -0.00549108 6.53075e-07 0 20.6685 -6.30086e-06 0 16.2523 558.689 0 8.23959 887.656 0 2.87057 1022.93 0 -0.0485334 1053.78 0 -1.65484 1032.7 0 -2.54053 986.583 0 -3.03191 928.856 0 -3.28616 866.687 0 -3.39553 803.952 0 -3.41145 742.808 0 -3.36657 684.431 0 -3.28155 629.429 0 -3.17031 578.07 0 -3.0424 530.415 0 -2.90456 486.399 0 -2.7616 445.882 0 -2.61701 408.681 0 -2.4733 374.59 0 -2.33232 343.395 0 -2.19535 314.88 0 -2.06332 288.836 0 -1.93684 265.06 0 -1.81628 243.363 0 -1.70186 223.565 0 -1.59364 205.501 0 -1.49159 189.017 0 -1.3956 173.972 0 -1.30549 160.234 0 -1.22106 147.686 0 -1.14207 136.219 0 -1.06826 125.734 0 -0.999352 116.141 0 -0.935076 107.359 0 -0.875156 99.3133 0 -0.819331 91.9369 0 -0.767328 85.1692 0 -0.718901 78.9551 0 -0.673808 73.2448 0 -0.631814 67.9934 0 -0.59271 63.1601 0 -0.556281 58.7079 0 -0.522344 54.6035 0 -0.490713 50.8168 0 -0.461222 47.3202 0 -0.433713 44.0891 0 -0.408045 41.101 0 -0.384078 38.3355 0 -0.36169 35.774 0 -0.340767 33.3998 0 -0.321197 31.1977 0 -0.302888 29.1537 0 -0.285744 27.2552 0 -0.269685 25.4907 0 -0.254629 23.8496 0 -0.240508 22.3225 0 -0.227256 20.9005 0 -0.21481 19.5757 0 -0.203118 18.3406 0 -0.192124 17.1887 0 -0.181783 16.1138 0 -0.172049 15.1103 0 -0.162884 14.1729 0 -0.154249 13.2969 0 -0.146109 12.4779 0 -0.138432 11.7119 0 -0.13119 10.9952 0 -0.124353 10.3243 0 -0.117897 9.69616 0 -0.111799 9.10776 0 -0.106034 8.55642 0 -0.100585 8.03965 0 -0.0954315 7.55512 0 -0.0905566 7.10068 0 -0.0859434 6.67435 0 -0.0815761 6.27428 0 -0.0774418 5.89874 0 -0.0735276 5.54616 0 -0.0698174 5.21503 0 -0.0663055 4.90398 0 -0.0629748 4.61172 0 -0.0598211 4.33705 0 -0.0568311 4.07886 0 -0.0539959 3.8361 0 -0.0513096 3.6078 0 -0.0487622 3.39304 0 -0.0463474 3.19098 0 -0.0440583 3.00083 0 -0.0418884 2.82183 0 -0.0398304 2.6533 0 -0.0378803 2.49457 0 -0.0360334 2.34505 0 -0.0342812 2.20416 0 -0.0326229 2.07136 0 -0.0310515 1.94614 0 -0.0295632 1.82804 0 -0.0281556 1.71661 0 -0.0268233 1.61142 0 -0.0255632 1.51209 0 -0.0243722 1.41826 0 -0.0232475 1.32956 0 -0.0221861 1.24567 0 -0.0211847 1.16628 0 -0.0202421 1.09111 0 -0.0193539 1.01986 0 -0.018521 0.952292 0 -0.0177373 0.888144 0 -0.0170048 0.827189 0 -0.0163187 0.769204 0 -0.0156802 0.713979 0 -0.0150847 0.661313 0 -0.0145344 0.611015 0 -0.0140246 0.562904 0 -0.0135568 0.516808 0 -0.0131288 0.472557 0 -0.0127395 0.429997 0 -0.0123895 0.388972 0 -0.0120764 0.349336 0 -0.0118012 0.310946 0 -0.0115633 0.273667 0 -0.0113615 0.237361 0 -0.0111963 0.201904 0 -0.0110681 0.167164 0 -0.0109764 0.133023 0 -0.010921 0.0993546 0 -0.0109035 0.0660401 0 -0.0109233 0.0329607 0 -0.0109833 -1.05356e-08 0 31.0078 -6.08061e-06 0 24.3793 558.896 0 12.3575 887.832 0 4.30439 1023.03 0 -0.0736733 1053.84 0 -2.48277 1032.73 0 -3.81111 986.599 0 -4.54805 928.863 0 -4.92936 866.688 0 -5.09337 803.949 0 -5.11722 742.802 0 -5.04989 684.423 0 -4.92234 629.42 0 -4.75546 578.06 0 -4.56359 530.405 0 -4.35682 486.388 0 -4.14238 445.871 0 -3.92548 408.67 0 -3.70993 374.58 0 -3.49844 343.385 0 -3.293 314.87 0 -3.09495 288.826 0 -2.90522 265.05 0 -2.72438 243.353 0 -2.55275 223.556 0 -2.39042 205.493 0 -2.23735 189.009 0 -2.09336 173.964 0 -1.9582 160.227 0 -1.83156 147.679 0 -1.71308 136.213 0 -1.60236 125.728 0 -1.499 116.135 0 -1.40258 107.353 0 -1.31271 99.3079 0 -1.22897 91.9318 0 -1.15097 85.1643 0 -1.07832 78.9505 0 -1.01069 73.2405 0 -0.947698 67.9893 0 -0.889042 63.1562 0 -0.834401 58.7042 0 -0.783495 54.6 0 -0.736049 50.8135 0 -0.691814 47.3171 0 -0.650552 44.0862 0 -0.61205 41.0982 0 -0.5761 38.3328 0 -0.54252 35.7715 0 -0.511134 33.3975 0 -0.481782 31.1955 0 -0.454318 29.1516 0 -0.428603 27.2532 0 -0.404514 25.4887 0 -0.381932 23.8478 0 -0.360751 22.3207 0 -0.340873 20.8988 0 -0.322205 19.5741 0 -0.304667 18.3391 0 -0.288176 17.1873 0 -0.272666 16.1125 0 -0.258065 15.109 0 -0.244318 14.1716 0 -0.231366 13.2957 0 -0.219156 12.4767 0 -0.207641 11.7108 0 -0.196778 10.9942 0 -0.186523 10.3234 0 -0.176839 9.69523 0 -0.167692 9.10687 0 -0.159045 8.55557 0 -0.150871 8.03883 0 -0.143142 7.55434 0 -0.13583 7.09994 0 -0.12891 6.67364 0 -0.12236 6.2736 0 -0.116158 5.89809 0 -0.110287 5.54554 0 -0.104722 5.21443 0 -0.0994534 4.90341 0 -0.0944591 4.61118 0 -0.0897273 4.33653 0 -0.085243 4.07836 0 -0.0809904 3.83562 0 -0.076961 3.60734 0 -0.07314 3.3926 0 -0.069518 3.19057 0 -0.0660844 3.00043 0 -0.0628293 2.82145 0 -0.0597429 2.65293 0 -0.0568179 2.49423 0 -0.054047 2.34472 0 -0.0514196 2.20384 0 -0.0489315 2.07105 0 -0.0465749 1.94585 0 -0.0443428 1.82776 0 -0.042231 1.71634 0 -0.0402328 1.61117 0 -0.0383429 1.51185 0 -0.0365562 1.41803 0 -0.0348694 1.32934 0 -0.0332771 1.24546 0 -0.0317753 1.16608 0 -0.0303611 1.09092 0 -0.0290295 1.01968 0 -0.0277792 0.952122 0 -0.0266049 0.887984 0 -0.0255051 0.827038 0 -0.0244772 0.769061 0 -0.0235183 0.713843 0 -0.022626 0.661186 0 -0.0218002 0.610895 0 -0.0210356 0.562794 0 -0.0203339 0.516703 0 -0.0196918 0.472462 0 -0.0191082 0.429908 0 -0.0185826 0.38889 0 -0.0181135 0.349262 0 -0.0177007 0.310877 0 -0.0173434 0.273607 0 -0.0170413 0.237308 0 -0.0167932 0.201858 0 -0.016601 0.167127 0 -0.0164631 0.132992 0 -0.0163804 0.0993309 0 -0.016354 0.0660245 0 -0.0163837 0.0329533 0 -0.0164721 1.34739e-06 0 41.3531 -4.22448e-06 0 32.5072 559.185 0 16.473 888.077 0 5.73646 1023.17 0 -0.0998606 1053.92 0 -3.31131 1032.77 0 -5.08205 986.621 0 -6.06443 928.872 0 -6.57272 866.689 0 -6.79131 803.944 0 -6.82305 742.794 0 -6.73323 684.413 0 -6.56313 629.408 0 -6.34062 578.047 0 -6.08477 530.391 0 -5.80907 486.374 0 -5.52313 445.857 0 -5.23393 408.656 0 -4.94651 374.565 0 -4.66453 343.371 0 -4.3906 314.856 0 -4.12653 288.812 0 -3.87356 265.037 0 -3.63244 243.341 0 -3.4036 223.544 0 -3.18716 205.481 0 -2.98306 188.998 0 -2.79108 173.953 0 -2.61087 160.217 0 -2.44202 147.67 0 -2.28404 136.203 0 -2.13641 125.719 0 -1.9986 116.127 0 -1.87005 107.345 0 -1.75022 99.3004 0 -1.63857 91.9246 0 -1.53457 85.1575 0 -1.43772 78.9441 0 -1.34754 73.2344 0 -1.26355 67.9836 0 -1.18535 63.1507 0 -1.11249 58.699 0 -1.04462 54.5952 0 -0.981362 50.8088 0 -0.922383 47.3127 0 -0.867369 44.082 0 -0.816034 41.0943 0 -0.768103 38.3291 0 -0.72333 35.768 0 -0.681484 33.3941 0 -0.642349 31.1923 0 -0.605732 29.1486 0 -0.571447 27.2503 0 -0.539329 25.486 0 -0.50922 23.8452 0 -0.48098 22.3183 0 -0.454477 20.8965 0 -0.429588 19.5719 0 -0.406204 18.337 0 -0.384216 17.1853 0 -0.363537 16.1106 0 -0.344071 15.1071 0 -0.325742 14.1699 0 -0.308473 13.294 0 -0.292194 12.4752 0 -0.276842 11.7093 0 -0.262357 10.9927 0 -0.248685 10.322 0 -0.235773 9.69392 0 -0.223578 9.10562 0 -0.212049 8.55438 0 -0.201151 8.0377 0 -0.190846 7.55325 0 -0.181096 7.09889 0 -0.171871 6.67264 0 -0.163137 6.27265 0 -0.154869 5.89719 0 -0.14704 5.54467 0 -0.139622 5.2136 0 -0.132596 4.90261 0 -0.125938 4.61042 0 -0.119629 4.33581 0 -0.11365 4.07767 0 -0.107981 3.83496 0 -0.102608 3.60671 0 -0.0975144 3.39199 0 -0.0926843 3.18998 0 -0.088107 2.99987 0 -0.0837667 2.82092 0 -0.079652 2.65242 0 -0.0757524 2.49374 0 -0.0720574 2.34426 0 -0.068555 2.2034 0 -0.0652373 2.07063 0 -0.0620956 1.94545 0 -0.0591191 1.82737 0 -0.0563042 1.71597 0 -0.0536394 1.61082 0 -0.0511202 1.51152 0 -0.0487379 1.41771 0 -0.0464888 1.32903 0 -0.0443659 1.24517 0 -0.042364 1.16581 0 -0.0404778 1.09066 0 -0.0387033 1.01943 0 -0.0370354 0.951884 0 -0.0354703 0.88776 0 -0.034004 0.826825 0 -0.0326333 0.76886 0 -0.0313549 0.713655 0 -0.0301653 0.661008 0 -0.029064 0.610729 0 -0.0280449 0.562638 0 -0.0271093 0.516558 0 -0.0262531 0.472327 0 -0.0254752 0.429782 0 -0.0247742 0.388776 0 -0.0241492 0.349157 0 -0.0235984 0.310784 0 -0.0231221 0.273521 0 -0.0227193 0.237235 0 -0.0223886 0.201794 0 -0.0221322 0.167073 0 -0.0219482 0.132949 0 -0.0218383 0.0992983 0 -0.0218028 0.0660017 0 -0.0218425 0.0329422 0 -0.0219604 -5.19212e-07 0 51.7066 -7.71135e-07 0 40.6365 559.557 0 20.5855 888.393 0 7.16619 1023.36 0 -0.127444 1054.02 0 -4.14067 1032.82 0 -6.35349 986.649 0 -7.58112 928.884 0 -8.21626 866.691 0 -8.48937 803.939 0 -8.52896 742.784 0 -8.41662 684.399 0 -8.20395 629.392 0 -7.92577 578.03 0 -7.60593 530.372 0 -7.26128 486.355 0 -6.90384 445.838 0 -6.54233 408.637 0 -6.18305 374.546 0 -5.83057 343.352 0 -5.48815 314.838 0 -5.15806 288.795 0 -4.84184 265.02 0 -4.54045 243.324 0 -4.25439 223.528 0 -3.98384 205.466 0 -3.72872 188.984 0 -3.48874 173.939 0 -3.26349 160.204 0 -3.05242 147.657 0 -2.85495 136.191 0 -2.67042 125.708 0 -2.49816 116.116 0 -2.33748 107.335 0 -2.18769 99.2906 0 -2.04813 91.9154 0 -1.91813 85.1488 0 -1.79707 78.9358 0 -1.68434 73.2266 0 -1.57937 67.9762 0 -1.48161 63.1437 0 -1.39055 58.6924 0 -1.30571 54.5889 0 -1.22664 50.8029 0 -1.15292 47.3071 0 -1.08416 44.0767 0 -1.01999 41.0892 0 -0.960078 38.3243 0 -0.904116 35.7634 0 -0.85181 33.3898 0 -0.802894 31.1882 0 -0.757124 29.1447 0 -0.714269 27.2466 0 -0.674124 25.4825 0 -0.636489 23.8419 0 -0.601191 22.3151 0 -0.568063 20.8935 0 -0.536954 19.569 0 -0.507725 18.3343 0 -0.480242 17.1827 0 -0.454394 16.1081 0 -0.430063 15.1048 0 -0.407152 14.1677 0 -0.385568 13.2919 0 -0.365219 12.4731 0 -0.346031 11.7074 0 -0.327925 10.9909 0 -0.310836 10.3202 0 -0.294697 9.69224 0 -0.279453 9.10402 0 -0.265044 8.55284 0 -0.251421 8.03623 0 -0.238541 7.55185 0 -0.226354 7.09756 0 -0.214823 6.67136 0 -0.203907 6.27142 0 -0.193573 5.89602 0 -0.183786 5.54355 0 -0.174516 5.21253 0 -0.165733 4.90159 0 -0.157411 4.60944 0 -0.149525 4.33487 0 -0.142051 4.07677 0 -0.134965 3.8341 0 -0.12825 3.60589 0 -0.121883 3.39121 0 -0.115846 3.18924 0 -0.110124 2.99916 0 -0.104699 2.82023 0 -0.0995565 2.65177 0 -0.0946823 2.49312 0 -0.0900635 2.34366 0 -0.0856862 2.20283 0 -0.0815392 2.07008 0 -0.0776121 1.94492 0 -0.0738924 1.82688 0 -0.0703733 1.71549 0 -0.0670428 1.61036 0 -0.0638939 1.51109 0 -0.0609165 1.41729 0 -0.0581051 1.32864 0 -0.0554515 1.2448 0 -0.0529497 1.16545 0 -0.0505917 1.09032 0 -0.0483741 1.01911 0 -0.0462891 0.951581 0 -0.0443331 0.887469 0 -0.0425001 0.826552 0 -0.0407871 0.768602 0 -0.039189 0.713412 0 -0.0377024 0.660779 0 -0.0363255 0.610515 0 -0.0350521 0.562436 0 -0.0338826 0.516371 0 -0.0328123 0.472152 0 -0.0318401 0.429622 0 -0.0309637 0.388629 0 -0.0301827 0.349023 0 -0.0294942 0.310664 0 -0.0288989 0.273413 0 -0.0283951 0.237139 0 -0.027982 0.201712 0 -0.0276615 0.167004 0 -0.0274314 0.132893 0 -0.027294 0.0992567 0 -0.0272496 0.0659732 0 -0.0272994 0.0329284 0 -0.0274459 -3.62983e-07 0 62.0703 2.42144e-06 0 48.7674 560.013 0 24.6941 888.779 0 8.593 1023.59 0 -0.156773 1054.14 0 -4.97105 1032.89 0 -7.62555 986.684 0 -9.0982 928.898 0 -9.86006 866.692 0 -10.1876 803.932 0 -10.235 742.771 0 -10.1001 684.383 0 -9.84478 629.373 0 -9.51091 578.009 0 -9.12707 530.35 0 -8.71346 486.332 0 -8.28451 445.815 0 -7.85068 408.614 0 -7.41953 374.524 0 -6.99654 343.33 0 -6.58563 314.816 0 -6.18951 288.773 0 -5.81005 264.999 0 -5.44838 243.304 0 -5.10511 223.509 0 -4.78045 205.447 0 -4.4743 188.966 0 -4.18633 173.922 0 -3.91603 160.187 0 -3.66276 147.642 0 -3.4258 136.177 0 -3.20436 125.694 0 -2.99765 116.103 0 -2.80484 107.323 0 -2.6251 99.2788 0 -2.45763 91.9042 0 -2.30164 85.1382 0 -2.15637 78.9257 0 -2.0211 73.2171 0 -1.89514 67.9671 0 -1.77784 63.1352 0 -1.66857 58.6843 0 -1.56676 54.5812 0 -1.47188 50.7956 0 -1.38342 47.3002 0 -1.30091 44.0702 0 -1.22391 41.0831 0 -1.15202 38.3185 0 -1.08487 35.7579 0 -1.02211 33.3846 0 -0.963409 31.1832 0 -0.908489 29.14 0 -0.857065 27.2421 0 -0.808894 25.4783 0 -0.763735 23.8379 0 -0.721379 22.3113 0 -0.681629 20.8899 0 -0.644299 19.5655 0 -0.609227 18.331 0 -0.576249 17.1796 0 -0.545234 16.1051 0 -0.516037 15.1019 0 -0.488546 14.1649 0 -0.462647 13.2893 0 -0.438229 12.4707 0 -0.415205 11.705 0 -0.39348 10.9886 0 -0.372974 10.3181 0 -0.353609 9.69018 0 -0.335317 9.10205 0 -0.318027 8.55097 0 -0.301681 8.03444 0 -0.286226 7.55014 0 -0.271602 7.09592 0 -0.257766 6.6698 0 -0.244667 6.26993 0 -0.232267 5.89459 0 -0.220524 5.54218 0 -0.2094 5.21123 0 -0.198862 4.90034 0 -0.188876 4.60824 0 -0.179413 4.33373 0 -0.170445 4.07568 0 -0.161943 3.83306 0 -0.153885 3.60489 0 -0.146245 3.39026 0 -0.139001 3.18832 0 -0.132136 2.99828 0 -0.125626 2.8194 0 -0.119455 2.65097 0 -0.113606 2.49235 0 -0.108064 2.34293 0 -0.102812 2.20213 0 -0.0978364 2.06941 0 -0.0931239 1.94429 0 -0.0886607 1.82627 0 -0.0844384 1.71491 0 -0.0804415 1.60981 0 -0.0766635 1.51056 0 -0.0730914 1.41679 0 -0.0697172 1.32816 0 -0.0665338 1.24434 0 -0.0635314 1.16502 0 -0.0607022 1.0899 0 -0.0580415 1.01872 0 -0.0555393 0.951207 0 -0.0531929 0.887117 0 -0.0509929 0.826218 0 -0.0489378 0.768286 0 -0.04702 0.713114 0 -0.0452367 0.660498 0 -0.043584 0.610253 0 -0.0420566 0.56219 0 -0.0406529 0.516142 0 -0.0393689 0.471939 0 -0.0382019 0.429426 0 -0.0371509 0.388448 0 -0.0362134 0.348858 0 -0.0353873 0.310515 0 -0.0346731 0.273281 0 -0.0340685 0.237023 0 -0.0335729 0.20161 0 -0.0331881 0.16692 0 -0.0329121 0.132825 0 -0.0327473 0.0992037 0 -0.0326937 0.0659381 0 -0.0327536 0.0329108 0 -0.0329284 -9.40636e-08 0 72.4461 5.27501e-06 0 56.9003 560.551 0 28.798 889.236 0 10.0163 1023.86 0 -0.188195 1054.29 0 -5.80265 1032.97 0 -8.89835 986.724 0 -10.6158 928.915 0 -11.5041 866.694 0 -11.886 803.924 0 -11.9411 742.757 0 -11.7836 684.363 0 -11.4856 629.351 0 -11.0961 577.984 0 -10.6482 530.324 0 -10.1656 486.305 0 -9.66513 445.787 0 -9.15897 408.586 0 -8.65594 374.497 0 -8.16244 343.303 0 -7.68303 314.79 0 -7.22089 288.748 0 -6.77818 264.975 0 -6.35622 243.281 0 -5.95574 223.486 0 -5.57697 205.426 0 -5.2198 188.945 0 -4.88384 173.902 0 -4.56849 160.168 0 -4.27301 147.623 0 -3.99656 136.159 0 -3.73823 125.677 0 -3.49707 116.087 0 -3.27213 107.308 0 -3.06244 99.2647 0 -2.86706 91.8909 0 -2.68508 85.1256 0 -2.51561 78.9138 0 -2.3578 73.2058 0 -2.21085 67.9564 0 -2.074 63.1251 0 -1.94653 58.6748 0 -1.82776 54.5722 0 -1.71708 50.7871 0 -1.61388 47.2921 0 -1.51762 44.0625 0 -1.42779 41.0758 0 -1.34392 38.3116 0 -1.26558 35.7513 0 -1.19236 33.3784 0 -1.12389 31.1773 0 -1.05982 29.1344 0 -0.99983 27.2368 0 -0.943633 25.4732 0 -0.890952 23.8331 0 -0.841539 22.3067 0 -0.795168 20.8855 0 -0.751619 19.5614 0 -0.710704 18.3271 0 -0.672234 17.1758 0 -0.63605 16.1015 0 -0.601991 15.0986 0 -0.56992 14.1617 0 -0.539707 13.2862 0 -0.511221 12.4677 0 -0.484362 11.7022 0 -0.459017 10.986 0 -0.435096 10.3155 0 -0.412504 9.68776 0 -0.391166 9.09973 0 -0.370996 8.54876 0 -0.351927 8.03232 0 -0.333897 7.54811 0 -0.316837 7.09399 0 -0.300697 6.66796 0 -0.285415 6.26816 0 -0.27095 5.8929 0 -0.257251 5.54057 0 -0.244274 5.20968 0 -0.23198 4.89887 0 -0.220331 4.60683 0 -0.209293 4.33238 0 -0.19883 4.07439 0 -0.188912 3.83182 0 -0.179511 3.60371 0 -0.170599 3.38913 0 -0.162149 3.18724 0 -0.15414 2.99725 0 -0.146546 2.81841 0 -0.139347 2.65002 0 -0.132524 2.49145 0 -0.126059 2.34206 0 -0.119932 2.2013 0 -0.114128 2.06863 0 -0.10863 1.94353 0 -0.103424 1.82555 0 -0.0984977 1.71423 0 -0.0938356 1.60915 0 -0.0894277 1.50993 0 -0.0852615 1.41619 0 -0.0813246 1.32759 0 -0.0776115 1.2438 0 -0.0741089 1.1645 0 -0.0708085 1.08941 0 -0.0677045 1.01826 0 -0.064786 0.950766 0 -0.0620483 0.8867 0 -0.0594823 0.825823 0 -0.0570849 0.767914 0 -0.0548477 0.712763 0 -0.0527672 0.660168 0 -0.0508393 0.609942 0 -0.0490577 0.5619 0 -0.0474199 0.515872 0 -0.0459222 0.471688 0 -0.0445609 0.429195 0 -0.0433348 0.388235 0 -0.042241 0.348664 0 -0.0412776 0.31034 0 -0.0404442 0.273124 0 -0.0397388 0.236885 0 -0.0391608 0.201491 0 -0.0387114 0.16682 0 -0.0383896 0.132744 0 -0.0381975 0.0991437 0 -0.0381347 0.0658973 0 -0.0382046 0.0328893 0 -0.0384076 7.6415e-07 0 82.8363 -1.64658e-06 0 65.0354 561.174 0 32.8965 889.762 0 11.4355 1024.16 0 -0.222059 1054.46 0 -6.63567 1033.06 0 -10.172 986.771 0 -12.1338 928.934 0 -13.1486 866.696 0 -13.5846 803.915 0 -13.6473 742.739 0 -13.4671 684.341 0 -13.1265 629.324 0 -12.6812 577.956 0 -12.1693 530.294 0 -11.6177 486.274 0 -11.0457 445.756 0 -10.4672 408.555 0 -9.89227 374.465 0 -9.32824 343.272 0 -8.78033 314.76 0 -8.25216 288.719 0 -7.7462 264.947 0 -7.26396 243.253 0 -6.80626 223.46 0 -6.37339 205.4 0 -5.9652 188.921 0 -5.58124 173.879 0 -5.22085 160.146 0 -4.88316 147.602 0 -4.56723 136.14 0 -4.272 125.658 0 -3.9964 116.069 0 -3.73933 107.291 0 -3.4997 99.2485 0 -3.27642 91.8755 0 -3.06845 85.1111 0 -2.87477 78.9 0 -2.69443 73.1927 0 -2.52649 67.9441 0 -2.37011 63.1134 0 -2.22443 58.6637 0 -2.08871 54.5617 0 -1.96221 50.7772 0 -1.84428 47.2827 0 -1.73427 44.0536 0 -1.63162 41.0674 0 -1.53578 38.3036 0 -1.44626 35.7438 0 -1.36258 33.3712 0 -1.28433 31.1705 0 -1.21111 29.1279 0 -1.14256 27.2307 0 -1.07834 25.4674 0 -1.01814 23.8275 0 -0.961668 22.3015 0 -0.908677 20.8805 0 -0.85891 19.5567 0 -0.812154 18.3226 0 -0.768191 17.1715 0 -0.726843 16.0975 0 -0.687921 15.0947 0 -0.65127 14.158 0 -0.616744 13.2827 0 -0.584192 12.4644 0 -0.553499 11.699 0 -0.524535 10.9829 0 -0.4972 10.3126 0 -0.471382 9.68495 0 -0.446998 9.09706 0 -0.423948 8.5462 0 -0.402157 8.02988 0 -0.381553 7.54578 0 -0.362059 7.09176 0 -0.343613 6.66582 0 -0.326151 6.26613 0 -0.30962 5.89095 0 -0.293965 5.53871 0 -0.279136 5.2079 0 -0.265087 4.89716 0 -0.251775 4.6052 0 -0.239161 4.33082 0 -0.227205 4.0729 0 -0.215871 3.8304 0 -0.205128 3.60234 0 -0.194944 3.38782 0 -0.185287 3.18599 0 -0.176135 2.99605 0 -0.167458 2.81727 0 -0.159231 2.64893 0 -0.151435 2.4904 0 -0.144046 2.34107 0 -0.137045 2.20035 0 -0.130412 2.06772 0 -0.124129 1.94266 0 -0.11818 1.82472 0 -0.112551 1.71343 0 -0.107223 1.6084 0 -0.102186 1.50921 0 -0.0974258 1.41551 0 -0.0929268 1.32694 0 -0.0886836 1.24318 0 -0.0846814 1.16391 0 -0.0809098 1.08885 0 -0.0773628 1.01772 0 -0.0740276 0.950258 0 -0.0708994 0.88622 0 -0.0679671 0.825368 0 -0.0652273 0.767484 0 -0.0626712 0.712357 0 -0.0602938 0.659787 0 -0.0580904 0.609585 0 -0.0560548 0.561565 0 -0.0541832 0.51556 0 -0.052472 0.471399 0 -0.050916 0.428928 0 -0.0495152 0.387989 0 -0.0482649 0.348441 0 -0.0471641 0.310137 0 -0.0462118 0.272944 0 -0.0454057 0.236725 0 -0.0447449 0.201356 0 -0.0442312 0.166704 0 -0.0438637 0.132652 0 -0.0436439 0.099072 0 -0.0435721 0.0658516 0 -0.0436517 0.0328644 0 -0.0438841 -8.78237e-07 0 93.2428 2.5183e-06 0 73.1731 561.88 0 36.9888 890.359 0 12.8501 1024.51 0 -0.258711 1054.65 0 -7.47033 1033.17 0 -11.4467 986.824 0 -13.6526 928.956 0 -14.7934 866.699 0 -15.2835 803.904 0 -15.3537 742.72 0 -15.1508 684.315 0 -14.7674 629.295 0 -14.2663 577.923 0 -13.6903 530.26 0 -13.0697 486.239 0 -12.4262 445.72 0 -11.7753 408.519 0 -11.1285 374.43 0 -10.4939 343.237 0 -9.87753 314.726 0 -9.28333 288.685 0 -8.71411 264.914 0 -8.17158 243.222 0 -7.65667 223.43 0 -7.16969 205.372 0 -6.71048 188.893 0 -6.27854 173.853 0 -5.8731 160.121 0 -5.49321 147.579 0 -5.1378 136.117 0 -4.80567 125.637 0 -4.49563 116.049 0 -4.20644 107.271 0 -3.93686 99.2302 0 -3.68568 91.8582 0 -3.45173 85.0946 0 -3.23385 78.8845 0 -3.03098 73.178 0 -2.84206 67.9301 0 -2.66614 63.1002 0 -2.50226 58.6512 0 -2.34958 54.5499 0 -2.20729 50.766 0 -2.07462 47.2721 0 -1.95087 44.0436 0 -1.8354 41.0578 0 -1.72759 38.2946 0 -1.62688 35.7352 0 -1.53275 33.3631 0 -1.44473 31.1628 0 -1.36236 29.1206 0 -1.28525 27.2238 0 -1.213 25.4608 0 -1.14528 23.8213 0 -1.08176 22.2956 0 -1.02215 20.8749 0 -0.966168 19.5513 0 -0.913572 18.3174 0 -0.864119 17.1667 0 -0.817605 16.0928 0 -0.773823 15.0902 0 -0.732595 14.1538 0 -0.693756 13.2787 0 -0.657139 12.4605 0 -0.622612 11.6953 0 -0.590031 10.9794 0 -0.559282 10.3093 0 -0.53024 9.68178 0 -0.50281 9.09403 0 -0.476881 8.5433 0 -0.452369 8.02711 0 -0.429192 7.54314 0 -0.407263 7.08923 0 -0.386513 6.66341 0 -0.36687 6.26382 0 -0.348276 5.88875 0 -0.330664 5.5366 0 -0.313985 5.20589 0 -0.298181 4.89523 0 -0.283207 4.60336 0 -0.269017 4.32905 0 -0.255568 4.07121 0 -0.242819 3.82878 0 -0.230734 3.6008 0 -0.219279 3.38635 0 -0.208416 3.18458 0 -0.198121 2.9947 0 -0.18836 2.81597 0 -0.179106 2.6477 0 -0.170336 2.48922 0 -0.162025 2.33994 0 -0.154149 2.19927 0 -0.146688 2.06668 0 -0.139621 1.94168 0 -0.13293 1.82378 0 -0.126597 1.71254 0 -0.120604 1.60754 0 -0.114939 1.50839 0 -0.109584 1.41473 0 -0.104523 1.3262 0 -0.0997498 1.24247 0 -0.0952478 1.16324 0 -0.0910057 1.08821 0 -0.0870154 1.01711 0 -0.0832642 0.949682 0 -0.0797448 0.885675 0 -0.0764473 0.824852 0 -0.0733649 0.766997 0 -0.07049 0.711897 0 -0.0678155 0.659355 0 -0.0653371 0.609178 0 -0.0630475 0.561187 0 -0.060942 0.515206 0 -0.059017 0.471072 0 -0.0572672 0.428624 0 -0.0556913 0.387711 0 -0.0542847 0.348186 0 -0.0530466 0.309908 0 -0.0519751 0.272738 0 -0.0510684 0.236545 0 -0.0503251 0.2012 0 -0.0497471 0.166574 0 -0.0493336 0.132546 0 -0.0490862 0.0989931 0 -0.0490053 0.0657965 0 -0.0490947 0.0328371 0 -0.0493563 1.62702e-06 0 103.668 -3.01003e-06 0 81.3138 562.67 0 41.0741 891.025 0 14.2594 1024.91 0 -0.298498 1054.87 0 -8.30682 1033.28 0 -12.7224 986.884 0 -15.172 928.981 0 -16.4387 866.701 0 -16.9826 803.892 0 -17.0603 742.698 0 -16.8345 684.287 0 -16.4084 629.262 0 -15.8515 577.887 0 -15.2114 530.222 0 -14.5217 486.2 0 -13.8066 445.68 0 -13.0833 408.479 0 -12.3646 374.39 0 -11.6595 343.198 0 -10.9746 314.688 0 -10.3144 288.648 0 -9.68189 264.879 0 -9.07908 243.188 0 -8.50695 223.397 0 -7.96586 205.34 0 -7.45563 188.863 0 -6.9757 173.824 0 -6.52522 160.093 0 -6.10314 147.552 0 -5.70824 136.092 0 -5.33922 125.613 0 -4.99475 116.026 0 -4.67343 107.25 0 -4.37392 99.2097 0 -4.09484 91.8387 0 -3.83491 85.0762 0 -3.59284 78.867 0 -3.36744 73.1615 0 -3.15755 67.9145 0 -2.96208 63.0854 0 -2.78001 58.6372 0 -2.61038 54.5366 0 -2.45229 50.7534 0 -2.30489 47.2603 0 -2.16741 44.0323 0 -2.03911 41.0472 0 -1.91933 38.2845 0 -1.80744 35.7257 0 -1.70287 33.354 0 -1.60507 31.1542 0 -1.51356 29.1125 0 -1.42788 27.216 0 -1.34762 25.4535 0 -1.27238 23.8143 0 -1.20181 22.2889 0 -1.13559 20.8686 0 -1.07339 19.5453 0 -1.01495 18.3117 0 -0.960013 17.1612 0 -0.908335 16.0876 0 -0.859694 15.0853 0 -0.813889 14.1491 0 -0.77074 13.2742 0 -0.730058 12.4562 0 -0.691699 11.6913 0 -0.655501 10.9755 0 -0.62134 10.3055 0 -0.589075 9.67823 0 -0.5586 9.09064 0 -0.529793 8.54007 0 -0.502561 8.02402 0 -0.476811 7.54018 0 -0.452449 7.08641 0 -0.429395 6.66071 0 -0.407573 6.26124 0 -0.386915 5.88628 0 -0.367349 5.53424 0 -0.348818 5.20363 0 -0.33126 4.89308 0 -0.314625 4.60129 0 -0.298859 4.32708 0 -0.283917 4.06932 0 -0.269754 3.82698 0 -0.256328 3.59907 0 -0.243601 3.38469 0 -0.231533 3.183 0 -0.220096 2.99319 0 -0.209252 2.81453 0 -0.198971 2.64632 0 -0.189227 2.4879 0 -0.179994 2.33867 0 -0.171245 2.19806 0 -0.162955 2.06553 0 -0.155104 1.94058 0 -0.147671 1.82273 0 -0.140635 1.71153 0 -0.133978 1.60658 0 -0.127683 1.50748 0 -0.121734 1.41386 0 -0.116112 1.32537 0 -0.110809 1.24168 0 -0.105807 1.16249 0 -0.101095 1.0875 0 -0.0966618 1.01644 0 -0.0924947 0.94904 0 -0.0885846 0.885064 0 -0.0849215 0.824277 0 -0.0814972 0.766451 0 -0.0783033 0.711383 0 -0.075332 0.658871 0 -0.0725785 0.608725 0 -0.070035 0.560762 0 -0.0676959 0.514811 0 -0.0655575 0.470704 0 -0.0636133 0.428286 0 -0.0618626 0.3874 0 -0.0603 0.347903 0 -0.0589244 0.309652 0 -0.0577341 0.272509 0 -0.0567264 0.236344 0 -0.0559006 0.201025 0 -0.0552585 0.166429 0 -0.054799 0.132427 0 -0.0545237 0.098903 0 -0.0544341 0.0657363 0 -0.0545327 0.0328059 0 -0.0548229 -1.20699e-06 0 114.113 4.32134e-06 0 89.4576 563.545 0 45.1517 891.762 0 15.6629 1025.34 0 -0.341767 1055.11 0 -9.14534 1033.41 0 -13.9994 986.949 0 -16.6921 929.008 0 -18.0844 866.704 0 -18.6821 803.879 0 -18.767 742.674 0 -18.5184 684.256 0 -18.0494 629.225 0 -17.4366 577.847 0 -16.7323 530.18 0 -15.9736 486.156 0 -15.1869 445.636 0 -14.3913 408.435 0 -13.6006 374.347 0 -12.825 343.155 0 -12.0715 314.646 0 -11.3453 288.607 0 -10.6495 264.839 0 -9.98643 243.149 0 -9.35709 223.36 0 -8.76189 205.304 0 -8.20064 188.829 0 -7.67272 173.791 0 -7.17721 160.062 0 -6.71292 147.523 0 -6.27855 136.064 0 -5.87265 125.586 0 -5.49374 116.001 0 -5.14031 107.226 0 -4.81086 99.187 0 -4.50389 91.8173 0 -4.21798 85.0558 0 -3.95172 78.8478 0 -3.7038 73.1433 0 -3.47293 67.8973 0 -3.25794 63.0691 0 -3.05767 58.6218 0 -2.8711 54.522 0 -2.69721 50.7396 0 -2.53509 47.2472 0 -2.38387 44.0199 0 -2.24276 41.0354 0 -2.11101 38.2733 0 -1.98794 35.7151 0 -1.87292 33.344 0 -1.76536 31.1447 0 -1.66471 29.1034 0 -1.57047 27.2075 0 -1.48219 25.4453 0 -1.39944 23.8066 0 -1.32182 22.2816 0 -1.24898 20.8616 0 -1.18057 19.5386 0 -1.1163 18.3054 0 -1.05587 17.1552 0 -0.999029 16.0819 0 -0.945531 15.0798 0 -0.895151 14.1439 0 -0.847692 13.2692 0 -0.802947 12.4515 0 -0.760757 11.6867 0 -0.720944