<?xml version="1.0"?> 
<VTKFile type="StructuredGrid" version="0.1"> 
<StructuredGrid WholeExtent="0 127 0 127 0 0"> 
<Piece Extent="0 127 0 127 0 0"> 
<PointData>
<DataArray type="Float32" Name="E" format="ascii" NumberOfComponents="3"> 
-2.6226e-06 8.62871e+06 0 2.67708e-07 6.77267e+06 0 -3.59709e-07 5.8147e+06 0 6.21018e-07 5.25838e+06 0 -4.25527e-07 4.8712e+06 0 1.65659e-07 4.5744e+06 0 2.20258e-07 4.3326e+06 0 2.70666e-07 4.12809e+06 0 -6.27246e-07 3.95045e+06 0 5.51809e-07 3.79292e+06 0 -5.09899e-08 3.651e+06 0 -2.43075e-07 3.5215e+06 0 4.51691e-08 3.40209e+06 0 8.75443e-08 3.29099e+06 0 -1.60187e-07 3.18687e+06 0 1.19209e-07 3.08865e+06 0 -1.25729e-08 2.99548e+06 0 1.49012e-07 2.90668e+06 0 -1.1269e-07 2.82167e+06 0 -2.59839e-07 2.73999e+06 0 5.56931e-07 2.66125e+06 0 -6.02566e-07 2.58511e+06 0 6.83591e-07 2.51129e+06 0 -7.22706e-07 2.43955e+06 0 7.50646e-07 2.36969e+06 0 -7.84174e-07 2.30154e+06 0 7.61822e-07 2.23493e+06 0 -5.64381e-07 2.16974e+06 0 3.50177e-07 2.10586e+06 0 -3.37139e-07 2.04318e+06 0 2.8871e-07 1.98163e+06 0 -2.40281e-07 1.92113e+06 0 2.8871e-07 1.86162e+06 0 -9.31323e-08 1.80305e+06 0 1.15484e-07 1.74537e+06 0 -1.15484e-07 1.68856e+06 0 1.52737e-07 1.63259e+06 0 -9.68575e-08 1.57742e+06 0 7.45058e-09 1.52306e+06 0 4.84288e-08 1.46948e+06 0 -4.84288e-08 1.41669e+06 0 2.79397e-07 1.36469e+06 0 -4.84288e-07 1.31347e+06 0 4.32134e-07 1.26305e+06 0 -2.30968e-07 1.21345e+06 0 2.57045e-07 1.16467e+06 0 -1.63913e-07 1.11675e+06 0 3.72529e-08 1.06969e+06 0 -1.41561e-07 1.02353e+06 0 2.08616e-07 978287 0 -1.19209e-07 933995 0 1.04308e-07 890684 0 -1.11759e-07 848381 0 1.41561e-07 807118 0 -4.47035e-08 766924 0 9.68575e-08 727830 0 -1.56462e-07 689863 0 1.04308e-07 653049 0 -4.47035e-08 617413 0 1.78814e-07 582976 0 -1.04308e-07 549757 0 4.47035e-08 517770 0 -1.78814e-07 487026 0 3.72529e-07 457531 0 -7.7486e-07 429290 0 7.59959e-07 402299 0 -5.81145e-07 376553 0 5.36442e-07 352039 0 -6.4075e-07 328744 0 5.51343e-07 306648 0 -5.96046e-07 285728 0 5.96046e-07 265956 0 -6.25849e-07 247303 0 5.66244e-07 229735 0 -5.51343e-07 213217 0 5.51343e-07 197711 0 -5.36442e-07 183177 0 5.81145e-07 169575 0 -6.55651e-07 156863 0 6.10948e-07 144998 0 -5.66244e-07 133940 0 5.06639e-07 123646 0 -5.51343e-07 114073 0 5.06639e-07 105182 0 -4.17233e-07 96932 0 4.47035e-08 89284.8 0 2.08616e-07 82202.6 0 -1.93715e-07 75649.3 0 2.08616e-07 69590.4 0 -2.38419e-07 63992.7 0 1.3411e-07 58824.8 0 -1.93715e-07 54056.8 0 2.98023e-08 49660.3 0 -2.38419e-07 45608.8 0 4.17233e-07 41877.2 0 -4.17233e-07 38441.8 0 2.98023e-08 35280.6 0 2.98023e-08 32373 0 -1.19209e-07 29699.5 0 3.8743e-07 27242.3 0 -3.57628e-07 24984.6 0 2.38419e-07 22910.8 0 0 21006.6 0 2.98023e-08 19258.5 0 1.49012e-07 17654.2 0 -2.38419e-07 16182.1 0 2.98023e-08 14831.7 0 -1.19209e-07 13593.3 0 2.38419e-07 12457.7 0 -2.08616e-07 11416.6 0 1.49012e-07 10462.5 0 -3.57628e-07 9588.19 0 2.08616e-07 8787.31 0 8.9407e-08 8053.82 0 -2.08616e-07 7382.47 0 1.78814e-07 6767.92 0 -2.68221e-07 6206.41 0 2.08616e-07 5692.42 0 2.98023e-08 5225.17 0 -1.19209e-07 4796.04 0 5.96046e-08 4413.01 0 -8.9407e-08 4053.99 0 5.96046e-08 3756.81 0 -1.78814e-07 3450.05 0 1.78814e-07 3276.18 0 -2.38419e-07 3011.05 0 6.55651e-07 3101.75 0 -3.57628e-06 6154.19 0 -447339 7.17578e+06 0 -231819 6.03149e+06 0 -141203 5.39791e+06 0 -101734 4.97707e+06 0 -79392.8 4.65966e+06 0 -65354.1 4.4046e+06 0 -55668.2 4.19081e+06 0 -48601.4 4.00631e+06 0 -43266.7 3.84357e+06 0 -39093.6 3.69758e+06 0 -35759.1 3.56482e+06 0 -33039.7 3.44276e+06 0 -30786.3 3.32948e+06 0 -28894.4 3.22353e+06 0 -27287.4 3.12378e+06 0 -25909.1 3.02932e+06 0 -24716.7 2.93941e+06 0 -23677.3 2.85345e+06 0 -22765 2.77096e+06 0 -21959.3 2.69151e+06 0 -21243.5 2.61476e+06 0 -20604.2 2.54041e+06 0 -20030.2 2.46822e+06 0 -19512.3 2.39796e+06 0 -19042.5 2.32945e+06 0 -18614.3 2.26254e+06 0 -18222 2.19709e+06 0 -17860.8 2.13297e+06 0 -17526.2 2.07009e+06 0 -17214.6 2.00835e+06 0 -16922.7 1.94769e+06 0 -16647.5 1.88803e+06 0 -16386.4 1.82932e+06 0 -16137.1 1.77152e+06 0 -15897.3 1.71459e+06 0 -15665.1 1.6585e+06 0 -15438.7 1.60322e+06 0 -15216.4 1.54874e+06 0 -14996.6 1.49504e+06 0 -14778.1 1.44213e+06 0 -14559.3 1.38999e+06 0 -14339.1 1.33862e+06 0 -14116.4 1.28805e+06 0 -13890.1 1.23827e+06 0 -13659.3 1.18931e+06 0 -13423.1 1.14117e+06 0 -13180.7 1.09389e+06 0 -12931.5 1.04748e+06 0 -12674.9 1.00196e+06 0 -12410.5 957378 0 -12137.9 913746 0 -11857 871097 0 -11567.6 829462 0 -11269.9 788870 0 -10964 749351 0 -10650.3 710933 0 -10329.3 673644 0 -10001.5 637508 0 -9667.64 602548 0 -9328.68 568785 0 -8985.53 536234 0 -8639.24 504909 0 -8290.95 474819 0 -7941.84 445968 0 -7593.13 418359 0 -7246.07 391986 0 -6901.88 366843 0 -6561.77 342916 0 -6226.91 320189 0 -5898.37 298642 0 -5577.19 278250 0 -5264.28 258985 0 -4960.47 240816 0 -4666.47 223711 0 -4382.87 207632 0 -4110.16 192541 0 -3848.7 178401 0 -3598.76 165169 0 -3360.48 152805 0 -3133.92 141267 0 -2919.05 130514 0 -2715.74 120504 0 -2523.81 111196 0 -2343 102551 0 -2173.02 94528.7 0 -2013.52 87092 0 -1864.12 80204.3 0 -1724.41 73830.1 0 -1593.96 67936 0 -1472.35 62489.7 0 -1359.12 57460.5 0 -1253.83 52819.6 0 -1156.04 48539.4 0 -1065.31 44594.1 0 -981.22 40959.4 0 -903.356 37612.3 0 -831.319 34531.5 0 -764.727 31696.9 0 -703.212 29089.9 0 -646.427 26693 0 -594.041 24490 0 -545.74 22465.8 0 -501.229 20606.4 0 -460.231 18899 0 -422.483 17331.4 0 -387.742 15892.5 0 -355.779 14572.1 0 -326.38 13360.6 0 -299.345 12249.4 0 -274.49 11230.4 0 -251.64 10296 0 -230.634 9439.6 0 -211.32 8654.75 0 -193.561 7935.75 0 -177.215 7277.28 0 -162.169 6674.63 0 -148.277 6123.2 0 -135.458 5619.52 0 -123.517 5159.17 0 -112.41 4740.93 0 -101.848 4358.81 0 -91.6034 4017.86 0 -81.589 3704.81 0 -69.3238 3444.9 0 -57.4233 3202.38 0 -23.6203 3072.62 0 32.9459 3055.69 0 1204.7 3141.24 0 -540587 6.20867e+06 0 -316322 5.52718e+06 0 -220593 5.07709e+06 0 -169727 4.74209e+06 0 -137946 4.47436e+06 0 -116634 4.25185e+06 0 -101193 4.06079e+06 0 -89651.4 3.89305e+06 0 -80694.6 3.74313e+06 0 -73571.5 3.60721e+06 0 -67793.3 3.48258e+06 0 -63022.7 3.36718e+06 0 -59030.6 3.25946e+06 0 -55649.4 3.15822e+06 0 -52756.4 3.06249e+06 0 -50259.1 2.9715e+06 0 -48086.3 2.88462e+06 0 -46182.5 2.80133e+06 0 -44503.8 2.7212e+06 0 -43014.9 2.64385e+06 0 -41686.9 2.56899e+06 0 -40496.4 2.49635e+06 0 -39423.6 2.4257e+06 0 -38452.1 2.35686e+06 0 -37568 2.28965e+06 0 -36759.3 2.22394e+06 0 -36015.8 2.1596e+06 0 -35328.7 2.09652e+06 0 -34690.1 2.0346e+06 0 -34093.1 1.97378e+06 0 -33531.7 1.91399e+06 0 -33000.5 1.85515e+06 0 -32494.5 1.79724e+06 0 -32009.2 1.74019e+06 0 -31540.8 1.68399e+06 0 -31085.3 1.62861e+06 0 -30639.6 1.57402e+06 0 -30200.2 1.52022e+06 0 -29764.5 1.46718e+06 0 -29329.7 1.41492e+06 0 -28893.1 1.36342e+06 0 -28452.7 1.3127e+06 0 -28006.1 1.26277e+06 0 -27551.4 1.21363e+06 0 -27086.9 1.1653e+06 0 -26610.9 1.11781e+06 0 -26122 1.07116e+06 0 -25619 1.0254e+06 0 -25100.9 980536 0 -24567 936604 0 -24016.7 893630 0 -23449.8 851644 0 -22866.1 810675 0 -22266.1 770754 0 -21650.1 731908 0 -21019 694166 0 -20373.8 657553 0 -19715.8 622093 0 -19046.7 587807 0 -18368.1 554714 0 -17682 522828 0 -16990.7 492162 0 -16296.4 462721 0 -15601.4 434510 0 -14908.2 407528 0 -14219.3 381769 0 -13537 357223 0 -12863.7 333877 0 -12201.6 311713 0 -11552.9 290709 0 -10919.5 270839 0 -10303.1 252076 0 -9705.22 234386 0 -9127.28 217737 0 -8570.32 202092 0 -8035.22 187414 0 -7522.64 173661 0 -7032.99 160796 0 -6566.52 148776 0 -6123.26 137561 0 -5703.1 127109 0 -5305.75 117380 0 -4930.79 108334 0 -4577.71 99931.9 0 -4245.87 92135.1 0 -3934.57 84906.9 0 -3643.04 78211.6 0 -3370.47 72015 0 -3116.01 66284.1 0 -2878.78 60987.8 0 -2657.92 56096.4 0 -2452.55 51581.6 0 -2261.8 47416.9 0 -2084.81 43577.1 0 -1920.76 40038.7 0 -1768.83 36779.5 0 -1628.25 33778.7 0 -1498.27 31017 0 -1378.18 28476.2 0 -1267.3 26139.5 0 -1164.98 23991.1 0 -1070.62 22016.4 0 -983.634 20202 0 -903.492 18535.2 0 -829.683 17004.4 0 -761.731 15598.8 0 -699.192 14308.4 0 -641.65 13124.2 0 -588.717 12037.5 0 -540.033 11040.6 0 -495.26 10126.2 0 -454.083 9287.73 0 -416.209 8519.09 0 -381.362 7814.66 0 -349.281 7169.37 0 -319.722 6578.45 0 -292.43 6037.84 0 -267.203 5543.41 0 -243.694 5092.31 0 -221.829 4680.73 0 -200.789 4307.73 0 -180.98 3969.52 0 -159.618 3668.71 0 -138.376 3403.27 0 -105.553 3183.05 0 -57.5844 3028.55 0 133.439 2984.06 0 946.936 2528.47 0 -525739 5.63026e+06 0 -358352 5.16875e+06 0 -271425 4.81905e+06 0 -218313 4.54105e+06 0 -183080 4.31045e+06 0 -157968 4.11348e+06 0 -139260 3.94102e+06 0 -124885 3.7874e+06 0 -113497 3.64849e+06 0 -104305 3.5214e+06 0 -96744 3.40397e+06 0 -90435.9 3.29455e+06 0 -85108.1 3.19188e+06 0 -80559.8 3.09493e+06 0 -76641.8 3.0029e+06 0 -73239.2 2.91513e+06 0 -70262.9 2.83107e+06 0 -67642.5 2.75027e+06 0 -65321.6 2.67235e+06 0 -63254.5 2.59699e+06 0 -61403.8 2.52392e+06 0 -59738.4 2.4529e+06 0 -58232.5 2.38373e+06 0 -56863.9 2.31624e+06 0 -55614.1 2.25028e+06 0 -54466.9 2.18572e+06 0 -53408.5 2.12245e+06 0 -52426.8 2.06038e+06 0 -51511 1.99941e+06 0 -50651.8 1.93948e+06 0 -49840.7 1.88053e+06 0 -49070.1 1.8225e+06 0 -48333.1 1.76536e+06 0 -47623.7 1.70906e+06 0 -46936 1.65358e+06 0 -46264.8 1.59889e+06 0 -45605.4 1.54499e+06 0 -44953.2 1.49185e+06 0 -44304.2 1.43947e+06 0 -43654.4 1.38786e+06 0 -43000.3 1.33701e+06 0 -42338.7 1.28692e+06 0 -41666.4 1.23763e+06 0 -40980.7 1.18912e+06 0 -40279.1 1.14143e+06 0 -39559.3 1.09458e+06 0 -38819.5 1.04858e+06 0 -38058 1.00346e+06 0 -37273.4 959242 0 -36464.9 915962 0 -35631.7 873647 0 -34773.7 832323 0 -33891 792021 0 -32984.2 752770 0 -32054.1 714597 0 -31102.2 677528 0 -30130.2 641590 0 -29140.2 606803 0 -28134.7 573189 0 -27116.3 540763 0 -26088.2 509539 0 -25053.7 479527 0 -24016.1 450733 0 -22979 423157 0 -21946 396797 0 -20920.8 371646 0 -19906.9 347694 0 -18907.7 324923 0 -17926.4 303316 0 -16966.2 282850 0 -16029.6 263498 0 -15119.3 245230 0 -14237.3 228014 0 -13385.6 211817 0 -12565.5 196601 0 -11778.4 182329 0 -11024.9 168961 0 -10305.8 156457 0 -9621.07 144777 0 -8970.87 133881 0 -8354.87 123727 0 -7772.6 114276 0 -7223.39 105489 0 -6706.39 97326.8 0 -6220.65 89752.9 0 -5765.1 82731 0 -5338.56 76226.2 0 -4939.82 70205.2 0 -4567.61 64636.1 0 -4220.65 59488.5 0 -3897.63 54733.5 0 -3597.26 50343.9 0 -3318.26 46293.8 0 -3059.37 42558.8 0 -2819.38 39116.2 0 -2597.09 35944.3 0 -2391.38 33023.2 0 -2201.15 30333.9 0 -2025.35 27859.1 0 -1863 25582.4 0 -1713.15 23488.5 0 -1574.91 21563.3 0 -1447.46 19793.8 0 -1329.99 18167.6 0 -1221.77 16673.6 0 -1122.11 15301.4 0 -1030.36 14041.2 0 -945.904 12884.2 0 -868.191 11822.1 0 -796.689 10847.5 0 -730.905 9953.16 0 -670.381 9132.81 0 -614.687 8380.49 0 -563.42 7690.79 0 -516.202 7058.74 0 -472.662 6479.81 0 -432.456 5949.88 0 -395.216 5465.27 0 -360.574 5022.7 0 -328.112 4619.23 0 -297.187 4252.96 0 -267.293 3921.42 0 -236.159 3626.07 0 -202.95 3364.61 0 -155.265 3149.29 0 -80.0022 2982.19 0 160.238 2865.08 0 634.449 2352.85 0 -514538 5.24463e+06 0 -384523 4.88783e+06 0 -306546 4.60277e+06 0 -255182 4.36583e+06 0 -218980 4.16364e+06 0 -192181 3.98707e+06 0 -171703 3.83006e+06 0 -155578 3.68841e+06 0 -142602 3.55903e+06 0 -131973 3.4397e+06 0 -123128 3.32868e+06 0 -115677 3.22465e+06 0 -109331 3.12655e+06 0 -103875 3.03353e+06 0 -99144.2 2.94491e+06 0 -95012.9 2.86012e+06 0 -91380.9 2.77869e+06 0 -88168.5 2.70022e+06 0 -85311.1 2.62439e+06 0 -82756 2.5509e+06 0 -80459.8 2.47953e+06 0 -78386 2.41005e+06 0 -76504 2.34229e+06 0 -74787.7 2.27609e+06 0 -73214.9 2.21133e+06 0 -71766.2 2.14788e+06 0 -70424.8 2.08565e+06 0 -69176 2.02454e+06 0 -68006.7 1.96449e+06 0 -66905.5 1.90543e+06 0 -65861.8 1.8473e+06 0 -64866.3 1.79006e+06 0 -63910.5 1.73368e+06 0 -62986.7 1.67811e+06 0 -62087.6 1.62334e+06 0 -61206.9 1.56934e+06 0 -60338.3 1.51611e+06 0 -59476.3 1.46363e+06 0 -58615.6 1.41191e+06 0 -57751.4 1.36094e+06 0 -56879.1 1.31073e+06 0 -55994.7 1.26128e+06 0 -55094.3 1.21262e+06 0 -54174.4 1.16475e+06 0 -53232 1.1177e+06 0 -52264.2 1.07148e+06 0 -51268.7 1.02612e+06 0 -50243.7 981645 0 -49187.5 938080 0 -48099.1 895455 0 -46978 853797 0 -45824 813135 0 -44637.7 773499 0 -43419.9 734917 0 -42172.2 697415 0 -40896.6 661019 0 -39595.5 625754 0 -38272 591639 0 -36929.5 558693 0 -35571.7 526932 0 -34202.9 496368 0 -32827.4 467007 0 -31449.8 438854 0 -30074.9 411909 0 -28707.4 386167 0 -27352 361620 0 -26013.3 338255 0 -24695.9 316056 0 -23403.7 295001 0 -22140.8 275067 0 -20910.5 256226 0 -19716 238449 0 -18559.9 221702 0 -17444.6 205952 0 -16371.8 191160 0 -15342.8 177289 0 -14358.8 164301 0 -13420.1 152154 0 -12527.1 140810 0 -11679.6 130229 0 -10877.1 120369 0 -10118.9 111193 0 -9404 102662 0 -8731.3 94737.2 0 -8099.46 87383.7 0 -7507.03 80565.7 0 -6952.44 74249.3 0 -6434.08 68402.2 0 -5950.26 62993.2 0 -5499.28 57992.9 0 -5079.44 53373.2 0 -4689.03 49107.7 0 -4326.38 45171.2 0 -3989.85 41540.2 0 -3677.84 38192.6 0 -3388.82 35107.5 0 -3121.31 32265.6 0 -2873.88 29648.5 0 -2645.18 27239.4 0 -2433.92 25022.4 0 -2238.89 22982.8 0 -2058.92 21107 0 -1892.95 19382.2 0 -1739.93 17796.7 0 -1598.92 16339.6 0 -1469.02 15000.7 0 -1349.39 13770.7 0 -1239.24 12641 0 -1137.85 11603.7 0 -1044.52 10651.3 0 -958.623 9777.19 0 -879.562 8975.05 0 -806.78 8239.17 0 -739.752 7564.29 0 -677.985 6945.61 0 -621 6378.73 0 -568.344 5859.65 0 -519.526 5384.82 0 -474.092 4951 0 -431.391 4555.53 0 -390.807 4196.1 0 -351.069 3871.16 0 -310.437 3580.42 0 -265.036 3323.75 0 -204.465 3107.29 0 -103.219 2927.68 0 131.409 2742.28 0 410.982 2266.2 0 -508004 4.94496e+06 0 -402351 4.65801e+06 0 -332940 4.41697e+06 0 -284212 4.21068e+06 0 -248414 4.03071e+06 0 -221165 3.8708e+06 0 -199817 3.7267e+06 0 -182696 3.59529e+06 0 -168714 3.47422e+06 0 -157113 3.36173e+06 0 -147363 3.25644e+06 0 -139075 3.15727e+06 0 -131961 3.06332e+06 0 -125805 2.97391e+06 0 -120436 2.88843e+06 0 -115722 2.8064e+06 0 -111558 2.72742e+06 0 -107858 2.65114e+06 0 -104555 2.57726e+06 0 -101589 2.50555e+06 0 -98913.6 2.43578e+06 0 -96488.9 2.36776e+06 0 -94280.6 2.30135e+06 0 -92259.8 2.23639e+06 0 -90401.2 2.17278e+06 0 -88683.3 2.1104e+06 0 -87086.8 2.04917e+06 0 -85595 1.98901e+06 0 -84192.9 1.92985e+06 0 -82867.2 1.87163e+06 0 -81605.8 1.81431e+06 0 -80397.9 1.75784e+06 0 -79233.5 1.7022e+06 0 -78103.6 1.64735e+06 0 -76999.7 1.59328e+06 0 -75914.1 1.53996e+06 0 -74839.7 1.4874e+06 0 -73769.8 1.43558e+06 0 -72698.2 1.3845e+06 0 -71619.2 1.33417e+06 0 -70527.5 1.28459e+06 0 -69418.1 1.23578e+06 0 -68286.6 1.18775e+06 0 -67128.9 1.14052e+06 0 -65941.4 1.0941e+06 0 -64721 1.04852e+06 0 -63465 1.0038e+06 0 -62171.2 959967 0 -60838.2 917052 0 -59464.8 875080 0 -58050.7 834079 0 -56596.1 794080 0 -55101.7 755109 0 -53569.1 717195 0 -52000.5 680363 0 -50398.5 644639 0 -48766.6 610045 0 -47108.6 576600 0 -45429 544321 0 -43732.8 513222 0 -42025 483313 0 -40311.4 454600 0 -38597.7 427086 0 -36889.6 400767 0 -35193.2 375639 0 -33514.2 351692 0 -31858.1 328910 0 -30230.4 307275 0 -28636 286767 0 -27079.5 267361 0 -25565 249027 0 -24096.2 231735 0 -22676.2 215452 0 -21307.5 200142 0 -19992.2 185770 0 -18731.8 172296 0 -17527.3 159683 0 -16379.3 147890 0 -15287.7 136877 0 -14252.3 126606 0 -13272.5 117038 0 -12347.1 108133 0 -11475.1 99854.2 0 -10654.7 92164.7 0 -9884.39 85028.9 0 -9162.3 78412.5 0 -8486.47 72282.5 0 -7854.88 66607.3 0 -7265.43 61356.8 0 -6716.03 56502.3 0 -6204.57 52016.5 0 -5728.96 47873.9 0 -5287.14 44050.1 0 -4877.11 40522.2 0 -4496.93 37268.9 0 -4144.7 34270 0 -3818.63 31506.7 0 -3516.99 28961.4 0 -3238.12 26617.6 0 -2980.47 24460.1 0 -2742.54 22474.6 0 -2522.95 20648 0 -2320.36 18967.9 0 -2133.54 17422.9 0 -1961.33 16002.5 0 -1802.63 14697 0 -1656.43 13497.2 0 -1521.77 12394.9 0 -1397.77 11382.3 0 -1283.59 10452.4 0 -1178.47 9598.5 0 -1081.67 8814.66 0 -992.518 8095.3 0 -910.379 7435.34 0 -834.647 6830.11 0 -764.742 6275.37 0 -700.099 5767.23 0 -640.134 5302.24 0 -584.251 4877.25 0 -531.691 4489.72 0 -481.631 4137.23 0 -432.495 3818.54 0 -382.308 3532.32 0 -325.72 3279.36 0 -252.828 3059.64 0 -134.688 2865.35 0 73.3914 2631.4 0 247.494 2203.4 0 -504952 4.70495e+06 0 -416038 4.46258e+06 0 -353549 4.25386e+06 0 -307868 4.07141e+06 0 -273235 3.90924e+06 0 -246186 3.76311e+06 0 -224569 3.62994e+06 0 -206959 3.50735e+06 0 -192384 3.39356e+06 0 -180158 3.28714e+06 0 -169786 3.18698e+06 0 -160899 3.0922e+06 0 -153218 3.00205e+06 0 -146529 2.91593e+06 0 -140664 2.83335e+06 0 -135488 2.75389e+06 0 -130896 2.6772e+06 0 -126799 2.60296e+06 0 -123125 2.53093e+06 0 -119815 2.46089e+06 0 -116818 2.39264e+06 0 -114092 2.32603e+06 0 -111600 2.2609e+06 0 -109313 2.19713e+06 0 -107201 2.13462e+06 0 -105242 2.07328e+06 0 -103415 2.01301e+06 0 -101701 1.95376e+06 0 -100084 1.89547e+06 0 -98548.8 1.83807e+06 0 -97082.5 1.78154e+06 0 -95672.7 1.72583e+06 0 -94308.3 1.67092e+06 0 -92979 1.61677e+06 0 -91675.3 1.56339e+06 0 -90388.5 1.51075e+06 0 -89110.5 1.45884e+06 0 -87833.7 1.40767e+06 0 -86551.1 1.35724e+06 0 -85256.1 1.30754e+06 0 -83942.8 1.2586e+06 0 -82605.6 1.21042e+06 0 -81239.5 1.16302e+06 0 -79839.9 1.11642e+06 0 -78402.9 1.07063e+06 0 -76924.9 1.02569e+06 0 -75403.2 981609 0 -73835.6 938423 0 -72220.5 896156 0 -70557 854837 0 -68845 814494 0 -67085.1 775156 0 -65278.6 736851 0 -63427.7 699604 0 -61535.2 663442 0 -59604.7 628388 0 -57640.5 594464 0 -55647.6 561686 0 -53631.5 530072 0 -51598.1 499633 0 -49553.9 470377 0 -47505.5 442308 0 -45459.9 415428 0 -43424.1 389733 0 -41404.8 365214 0 -39409.1 341861 0 -37443.3 319657 0 -35513.6 298584 0 -33625.8 278618 0 -31785.1 259733 0 -29996.2 241900 0 -28263.1 225089 0 -26589.4 209264 0 -24977.7 194391 0 -23430.2 180433 0 -21948.6 167352 0 -20533.8 155109 0 -19186.2 143664 0 -17905.8 132980 0 -16691.9 123016 0 -15543.8 113734 0 -14460 105098 0 -13439 97068.3 0 -12478.8 89610.7 0 -11577.5 82690 0 -10732.8 76272.9 0 -9942.43 70327.1 0 -9203.84 64821.9 0 -8514.6 59728 0 -7872.23 55017.7 0 -7274.22 50664.6 0 -6718.13 46643.6 0 -6201.52 42931.4 0 -5722.04 39505.8 0 -5277.41 36346 0 -4865.42 33432.6 0 -4483.96 30747.4 0 -4131.02 28273.3 0 -3804.65 25994.4 0 -3503.05 23896.1 0 -3224.47 21964.5 0 -2967.28 20186.8 0 -2729.95 18551.2 0 -2511.03 17046.7 0 -2309.17 15663 0 -2123.09 14390.7 0 -1951.6 13221.2 0 -1793.6 12146.2 0 -1648.05 11158.4 0 -1513.99 10250.9 0 -1390.5 9417.33 0 -1276.75 8651.83 0 -1171.94 7949.07 0 -1075.33 7304.1 0 -986.207 6712.4 0 -903.9 6169.86 0 -827.736 5672.72 0 -757.038 5217.62 0 -691.079 4801.53 0 -629 4421.87 0 -569.743 4076.4 0 -511.583 3763.56 0 -452.047 3481.92 0 -385.342 3231.14 0 -301.484 3007.89 0 -175.664 2797.79 0 1.86296 2536.66 0 118.964 2152 0 -503791 4.50138e+06 0 -426699 4.29244e+06 0 -370385 4.10869e+06 0 -327805 3.94498e+06 0 -294625 3.79735e+06 0 -268175 3.66277e+06 0 -246675 3.53893e+06 0 -228916 3.42402e+06 0 -214048 3.31662e+06 0 -201453 3.21561e+06 0 -190677 3.12007e+06 0 -181377 3.02926e+06 0 -173287 2.94258e+06 0 -166201 2.8595e+06 0 -159956 2.77961e+06 0 -154420 2.70253e+06 0 -149485 2.62797e+06 0 -145065 2.55566e+06 0 -141087 2.48537e+06 0 -137488 2.41691e+06 0 -134219 2.35011e+06 0 -131235 2.28482e+06 0 -128498 2.22092e+06 0 -125975 2.15829e+06 0 -123639 2.09685e+06 0 -121463 2.0365e+06 0 -119426 1.97717e+06 0 -117508 1.91881e+06 0 -115692 1.86135e+06 0 -113961 1.80476e+06 0 -112300 1.74899e+06 0 -110697 1.69403e+06 0 -109140 1.63983e+06 0 -107616 1.58638e+06 0 -106117 1.53368e+06 0 -104631 1.4817e+06 0 -103151 1.43045e+06 0 -101667 1.37992e+06 0 -100173 1.33012e+06 0 -98659.8 1.28106e+06 0 -97122.2 1.23275e+06 0 -95553.9 1.1852e+06 0 -93949.2 1.13843e+06 0 -92303.2 1.09245e+06 0 -90611.8 1.0473e+06 0 -88871.2 1.00299e+06 0 -87078.6 959554 0 -85231.8 917011 0 -83329.3 875393 0 -81370.6 834727 0 -79356 795042 0 -77286.4 756365 0 -75164 718724 0 -72991.5 682144 0 -70772.6 646651 0 -68511.9 612266 0 -66214.7 579010 0 -63886.9 546899 0 -61535.1 515947 0 -59166.6 486165 0 -56788.8 457559 0 -54409.6 430132 0 -52037 403883 0 -49679 378806 0 -47343.6 354893 0 -45038.4 332130 0 -42770.9 310500 0 -40547.9 289982 0 -38375.9 270553 0 -36260.7 252185 0 -34207.2 234849 0 -32220 218512 0 -30302.8 203141 0 -28458.4 188700 0 -26689.1 175151 0 -24996.5 162458 0 -23381.4 150580 0 -21844.1 139480 0 -20384.3 129119 0 -19001.3 119458 0 -17693.7 110461 0 -16460 102088 0 -15298.1 94305.3 0 -14205.9 87076.7 0 -13181 80368.5 0 -12220.6 74148.2 0 -11322.1 68384.3 0 -10482.6 63047.1 0 -9699.25 58108.2 0 -8969.22 53540.5 0 -8289.62 49318.4 0 -7657.63 45417.9 0 -7070.49 41816.2 0 -6525.5 38491.8 0 -6020.06 35424.7 0 -5551.66 32596 0 -5117.91 29988.2 0 -4716.5 27584.8 0 -4345.24 25370.5 0 -4002.07 23330.9 0 -3685.03 21452.8 0 -3392.25 19723.9 0 -3122 18132.6 0 -2872.65 16668.4 0 -2642.65 15321.3 0 -2430.56 14082.3 0 -2235.05 12942.8 0 -2054.85 11895.2 0 -1888.79 10932.2 0 -1735.78 10047.1 0 -1594.78 9233.88 0 -1464.85 8486.79 0 -1345.08 7800.66 0 -1234.62 7170.73 0 -1132.69 6592.62 0 -1038.49 6062.33 0 -951.268 5576.25 0 -870.25 5131.08 0 -794.594 4723.89 0 -723.334 4352.12 0 -655.212 4013.57 0 -588.382 3706.42 0 -519.935 3429.04 0 -444.164 3179.69 0 -351.469 2952.54 0 -224.759 2728.87 0 -74.623 2455.77 0 10.6255 2107.35 0 -503097 4.32546e+06 0 -435714 4.14204e+06 0 -384701 3.97765e+06 0 -345021 3.82912e+06 0 -313437 3.69356e+06 0 -287808 3.56877e+06 0 -266671 3.45297e+06 0 -248999 3.34477e+06 0 -234051 3.24304e+06 0 -221278 3.14686e+06 0 -210266 3.05549e+06 0 -200697 2.9683e+06 0 -192325 2.88479e+06 0 -184952 2.80451e+06 0 -178422 2.7271e+06 0 -172608 2.65225e+06 0 -167404 2.57968e+06 0 -162725 2.50918e+06 0 -158497 2.44053e+06 0 -154659 2.37357e+06 0 -151160 2.30814e+06 0 -147954 2.24412e+06 0 -145004 2.1814e+06 0 -142275 2.11986e+06 0 -139737 2.05944e+06 0 -137366 2.00005e+06 0 -135138 1.94163e+06 0 -133032 1.88412e+06 0 -131029 1.82749e+06 0 -129112 1.77168e+06 0 -127266 1.71667e+06 0 -125477 1.66242e+06 0 -123732 1.60893e+06 0 -122019 1.55617e+06 0 -120326 1.50413e+06 0 -118643 1.45281e+06 0 -116960 1.4022e+06 0 -115269 1.35232e+06 0 -113561 1.30315e+06 0 -111827 1.25472e+06 0 -110062 1.20704e+06 0 -108259 1.16011e+06 0 -106411 1.11397e+06 0 -104514 1.06862e+06 0 -102563 1.0241e+06 0 -100555 980430 0 -98485.8 937630 0 -96354.4 895732 0 -94159.4 854762 0 -91900.6 814749 0 -89578.7 775721 0 -87195.5 737706 0 -84753.5 700729 0 -82256.6 664816 0 -79709.3 629991 0 -77117.1 596274 0 -74486.4 563685 0 -71824.2 532238 0 -69138.4 501947 0 -66437.2 472819 0 -63729.3 444861 0 -61023.7 418072 0 -58329.4 392450 0 -55655.5 367989 0 -53010.9 344677 0 -50404.1 322500 0 -47843.3 301439 0 -45336 281472 0 -42889.2 262575 0 -40509.1 244719 0 -38201.2 227874 0 -35970.1 212008 0 -33819.7 197085 0 -31753 183070 0 -29772.2 169926 0 -27878.7 157615 0 -26073.3 146099 0 -24356 135339 0 -22726.4 125297 0 -21183.2 115936 0 -19724.9 107218 0 -18349.6 99106.7 0 -17055 91566.9 0 -15838.3 84564.3 0 -14696.8 78065.8 0 -13627.5 72039.7 0 -12627.2 66455.5 0 -11692.7 61284.3 0 -10820.8 56498.3 0 -10008.3 52071.6 0 -9251.97 47979.2 0 -8548.56 44197.7 0 -7895.03 40705.3 0 -7288.37 37481.1 0 -6725.67 34505.8 0 -6204.13 31761.1 0 -5721.08 29230 0 -5273.97 26896.7 0 -4860.36 24746.4 0 -4477.96 22765.2 0 -4124.57 20940.3 0 -3798.16 19259.8 0 -3496.78 17712.6 0 -3218.61 16288.4 0 -2961.96 14977.8 0 -2725.23 13771.9 0 -2506.92 12662.5 0 -2305.64 11642.2 0 -2120.08 10703.9 0 -1949.04 9841.31 0 -1791.37 9048.39 0 -1646.02 8319.71 0 -1511.98 7650.25 0 -1388.31 7035.39 0 -1274.11 6470.9 0 -1168.53 5952.92 0 -1070.71 5477.92 0 -979.788 5042.71 0 -894.818 4644.43 0 -814.723 4280.53 0 -738.098 3948.8 0 -662.974 3647.21 0 -586.211 3373.76 0 -502.443 3125.4 0 -403.323 2894.56 0 -279.747 2660.9 0 -151.791 2385.82 0 -84.4594 2067.17 0 -503391 4.17076e+06 0 -443690 4.00688e+06 0 -397209 3.85812e+06 0 -360246 3.72209e+06 0 -330277 3.59669e+06 0 -305587 3.48027e+06 0 -284968 3.37147e+06 0 -267545 3.26917e+06 0 -252672 3.17248e+06 0 -239862 3.08064e+06 0 -228741 2.99304e+06 0 -219019 2.90916e+06 0 -210465 2.82856e+06 0 -202894 2.75086e+06 0 -196159 2.67576e+06 0 -190135 2.60298e+06 0 -184723 2.53229e+06 0 -179837 2.46348e+06 0 -175406 2.39638e+06 0 -171370 2.33084e+06 0 -167677 2.26672e+06 0 -164281 2.20391e+06 0 -161145 2.14231e+06 0 -158233 2.08183e+06 0 -155517 2.02239e+06 0 -152968 1.96392e+06 0 -150564 1.90638e+06 0 -148282 1.84971e+06 0 -146103 1.79387e+06 0 -144010 1.73883e+06 0 -141987 1.68455e+06 0 -140018 1.63102e+06 0 -138089 1.57822e+06 0 -136188 1.52613e+06 0 -134303 1.47476e+06 0 -132423 1.42408e+06 0 -130538 1.37412e+06 0 -128637 1.32486e+06 0 -126713 1.27633e+06 0 -124756 1.22852e+06 0 -122760 1.18146e+06 0 -120717 1.13516e+06 0 -118621 1.08964e+06 0 -116468 1.04493e+06 0 -114252 1.00104e+06 0 -111970 957999 0 -109620 915839 0 -107198 874585 0 -104706 834264 0 -102142 794904 0 -99508.4 756533 0 -96807.6 719178 0 -94043 682866 0 -91219.2 647619 0 -88341.8 613461 0 -85417.3 580412 0 -82453.2 548489 0 -79457.8 517705 0 -76440 488072 0 -73409.2 459597 0 -70375.2 432283 0 -67348.1 406130 0 -64338 381133 0 -61354.9 357283 0 -58408.5 334568 0 -55508.2 312973 0 -52662.8 292476 0 -49880.4 273056 0 -47168.5 254686 0 -44533.6 237337 0 -41981.4 220978 0 -39516.8 205576 0 -37143.7 191097 0 -34865 177504 0 -32682.9 164759 0 -30598.7 152826 0 -28612.9 141667 0 -26725.2 131243 0 -24935 121516 0 -23240.6 112450 0 -21640.3 104008 0 -20131.6 96154.4 0 -18711.9 88854.4 0 -17378.1 82074.8 0 -16127.1 75783.2 0 -14955.4 69948.8 0 -13859.5 64541.9 0 -12835.9 59534.5 0 -11880.9 54899.6 0 -10990.9 50612 0 -10162.5 46647.7 0 -9392.01 42984 0 -8676.13 39599.6 0 -8011.53 36474.5 0 -7395.01 33590 0 -6823.52 30928.4 0 -6294.11 28473.4 0 -5803.99 26209.6 0 -5350.5 24122.7 0 -4931.13 22199.4 0 -4543.49 20427.3 0 -4185.33 18794.9 0 -3854.55 17291.5 0 -3549.17 15907.2 0 -3267.32 14632.9 0 -3007.25 13459.9 0 -2767.35 12380.5 0 -2546.08 11387.4 0 -2342.03 10473.9 0 -2153.87 9633.66 0 -1980.36 8861.05 0 -1820.33 8150.79 0 -1672.69 7498.01 0 -1536.41 6898.24 0 -1410.51 6347.41 0 -1294.05 5841.75 0 -1186.09 5377.85 0 -1085.67 4952.61 0 -991.773 4563.23 0 -903.206 4207.18 0 -818.459 3882.18 0 -735.466 3586.01 0 -651.056 3316.23 0 -560.404 3068.77 0 -457.071 2834.86 0 -338.521 2595.18 0 -227.49 2323.91 0 -170.152 2029.82 0 -504401 4.03221e+06 0 -450988 3.88411e+06 0 -408451 3.74811e+06 0 -373975 3.62252e+06 0 -345586 3.50578e+06 0 -321894 3.3966e+06 0 -301889 3.29392e+06 0 -284824 3.19685e+06 0 -270136 3.10466e+06 0 -257395 3.01674e+06 0 -246264 2.93256e+06 0 -236476 2.8517e+06 0 -227821 2.77377e+06 0 -220125 2.69847e+06 0 -213247 2.62551e+06 0 -207071 2.55467e+06 0 -201501 2.48573e+06 0 -196454 2.41852e+06 0 -191860 2.35289e+06 0 -187660 2.28869e+06 0 -183804 2.22582e+06 0 -180245 2.16416e+06 0 -176947 2.10364e+06 0 -173873 2.04417e+06 0 -170995 1.98568e+06 0 -168284 1.92811e+06 0 -165716 1.87142e+06 0 -163270 1.81556e+06 0 -160925 1.7605e+06 0 -158663 1.7062e+06 0 -156467 1.65264e+06 0 -154322 1.59981e+06 0 -152212 1.54769e+06 0 -150126 1.49627e+06 0 -148049 1.44554e+06 0 -145972 1.39551e+06 0 -143882 1.34618e+06 0 -141770 1.29756e+06 0 -139626 1.24965e+06 0 -137442 1.20246e+06 0 -135210 1.15602e+06 0 -132923 1.11035e+06 0 -130575 1.06545e+06 0 -128160 1.02136e+06 0 -125673 978104 0 -123112 935701 0 -120474 894180 0 -117758 853570 0 -114963 813897 0 -112089 775191 0 -109140 737477 0 -106118 700784 0 -103028 665135 0 -99875.5 630555 0 -96666.8 597064 0 -93409.8 564681 0 -90113 533422 0 -86786 503300 0 -83438.8 474324 0 -80082 446500 0 -76726.5 419828 0 -73383.4 394307 0 -70063.8 369931 0 -66778.6 346689 0 -63538.3 324568 0 -60353 303549 0 -57232.1 283613 0 -54184.1 264734 0 -51216.9 246886 0 -48337.4 230040 0 -45551.3 214162 0 -42863.6 199220 0 -40278.2 185179 0 -37797.9 172002 0 -35424.7 159653 0 -33159.8 148093 0 -31003.3 137286 0 -28954.8 127193 0 -27013.1 117777 0 -25176.4 109002 0 -23442.4 100832 0 -21808.4 93232.7 0 -20271.3 86169.3 0 -18827.6 79609.6 0 -17473.9 73522 0 -16206.2 67876.7 0 -15020.8 62644.7 0 -13913.6 57798.8 0 -12880.8 53313.1 0 -11918.3 49162.9 0 -11022.4 45325 0 -10189.1 41777.6 0 -9414.77 38500 0 -8695.86 35472.8 0 -8028.89 32678.1 0 -7410.52 30098.8 0 -6837.6 27719 0 -6307.1 25524 0 -5816.14 23499.9 0 -5362.01 21634 0 -4942.13 19914.3 0 -4554.1 18329.6 0 -4195.62 16869.8 0 -3864.56 15525.1 0 -3558.92 14286.9 0 -3276.82 13146.7 0 -3016.5 12097.2 0 -2776.33 11131.2 0 -2554.76 10242.3 0 -2350.36 9424.4 0 -2161.8 8672.08 0 -1987.83 7980.22 0 -1827.26 7344.1 0 -1678.98 6759.44 0 -1541.92 6222.26 0 -1415.08 5728.93 0 -1297.43 5276.15 0 -1187.93 4860.88 0 -1085.49 4480.39 0 -988.825 4132.14 0 -896.354 3813.79 0 -805.963 3522.94 0 -714.611 3256.67 0 -618.183 3010.2 0 -512.401 2774.28 0 -399.349 2532.1 0 -300.72 2267.85 0 -248.585 1994.23 0 -506051 3.90673e+06 0 -457874 3.77145e+06 0 -418766 3.64608e+06 0 -386568 3.52934e+06 0 -359700 3.42004e+06 0 -337022 3.31716e+06 0 -317685 3.21988e+06 0 -301051 3.12746e+06 0 -286628 3.03932e+06 0 -274034 2.95494e+06 0 -262966 2.87389e+06 0 -253184 2.79579e+06 0 -244491 2.72034e+06 0 -236727 2.64725e+06 0 -229760 2.57629e+06 0 -223479 2.50726e+06 0 -217792 2.43997e+06 0 -212621 2.37427e+06 0 -207897 2.31002e+06 0 -203564 2.2471e+06 0 -199570 2.18542e+06 0 -195872 2.12487e+06 0 -192431 2.06538e+06 0 -189213 2.00687e+06 0 -186187 1.9493e+06 0 -183327 1.8926e+06 0 -180607 1.83673e+06 0 -178005 1.78166e+06 0 -175501 1.72736e+06 0 -173075 1.67379e+06 0 -170711 1.62094e+06 0 -168392 1.5688e+06 0 -166104 1.51734e+06 0 -163832 1.46658e+06 0 -161564 1.4165e+06 0 -159287 1.3671e+06 0 -156991 1.3184e+06 0 -154664 1.2704e+06 0 -152297 1.22311e+06 0 -149881 1.17654e+06 0 -147409 1.13072e+06 0 -144873 1.08567e+06 0 -142266 1.04139e+06 0 -139584 997931 0 -136821 955303 0 -133976 913534 0 -131045 872652 0 -128028 832686 0 -124925 793663 0 -121738 755610 0 -118469 718554 0 -115123 682522 0 -111705 647538 0 -108222 613623 0 -104681 580799 0 -101092 549082 0 -97463.7 518487 0 -93807.3 489026 0 -90133.9 460705 0 -86455.2 433528 0 -82783.2 407497 0 -79130.1 382605 0 -75507.9 358847 0 -71928.2 336209 0 -68402.3 314678 0 -64940.9 294232 0 -61553.8 274852 0 -58250.1 256510 0 -55037.7 239180 0 -51923.8 222830 0 -48914.3 207428 0 -46014 192942 0 -43226.7 179333 0 -40555.2 166568 0 -38001.1 154608 0 -35565.4 143417 0 -33248 132957 0 -