<?xml version="1.0"?> 
<VTKFile type="StructuredGrid" version="0.1"> 
<StructuredGrid WholeExtent="0 127 0 127 0 0"> 
<Piece Extent="0 127 0 127 0 0"> 
<PointData>
<DataArray type="Float32" Name="E" format="ascii" NumberOfComponents="3"> 
-4.70318e+06 -3.18124e+06 0 -3.95262e+06 -4.51478e+06 0 -3.7163e+06 -3.97653e+06 0 -3.59309e+06 -3.35009e+06 0 -3.53466e+06 -2.90328e+06 0 -3.49531e+06 -2.63758e+06 0 -3.46397e+06 -2.43779e+06 0 -3.43746e+06 -2.26095e+06 0 -3.41586e+06 -2.10139e+06 0 -3.39787e+06 -1.9636e+06 0 -3.3823e+06 -1.84381e+06 0 -3.36839e+06 -1.73653e+06 0 -3.35587e+06 -1.63817e+06 0 -3.34453e+06 -1.54747e+06 0 -3.33419e+06 -1.46357e+06 0 -3.32466e+06 -1.38549e+06 0 -3.31582e+06 -1.31225e+06 0 -3.30761e+06 -1.24311e+06 0 -3.29995e+06 -1.17757e+06 0 -3.2928e+06 -1.11519e+06 0 -3.28609e+06 -1.0556e+06 0 -3.27981e+06 -998453 0 -3.27392e+06 -943477 0 -3.26839e+06 -890436 0 -3.2632e+06 -839126 0 -3.25834e+06 -789369 0 -3.25379e+06 -741008 0 -3.24953e+06 -693905 0 -3.24556e+06 -647941 0 -3.24185e+06 -603007 0 -3.2384e+06 -559010 0 -3.23521e+06 -515863 0 -3.23226e+06 -473492 0 -3.22954e+06 -431828 0 -3.22705e+06 -390810 0 -3.22478e+06 -350382 0 -3.22273e+06 -310495 0 -3.22089e+06 -271103 0 -3.21925e+06 -232166 0 -3.21781e+06 -193645 0 -3.21656e+06 -155505 0 -3.21551e+06 -117716 0 -3.21464e+06 -80248.5 0 -3.21396e+06 -43075.2 0 -3.21345e+06 -6171.55 0 -3.21312e+06 30485.5 0 -3.21297e+06 66917.4 0 -3.21298e+06 103144 0 -3.21317e+06 139185 0 -3.21352e+06 175056 0 -3.21403e+06 210776 0 -3.2147e+06 246359 0 -3.21554e+06 281821 0 -3.21653e+06 317176 0 -3.21768e+06 352437 0 -3.21899e+06 387618 0 -3.22044e+06 422732 0 -3.22205e+06 457789 0 -3.22381e+06 492804 0 -3.22572e+06 527786 0 -3.22778e+06 562748 0 -3.22999e+06 597700 0 -3.23235e+06 632653 0 -3.23485e+06 667619 0 -3.2375e+06 702608 0 -3.2403e+06 737630 0 -3.24324e+06 772697 0 -3.24632e+06 807820 0 -3.24955e+06 843008 0 -3.25293e+06 878274 0 -3.25645e+06 913628 0 -3.26012e+06 949082 0 -3.26393e+06 984647 0 -3.26789e+06 1.02033e+06 0 -3.27199e+06 1.05616e+06 0 -3.27624e+06 1.09213e+06 0 -3.28063e+06 1.12826e+06 0 -3.28518e+06 1.16457e+06 0 -3.28987e+06 1.20107e+06 0 -3.29471e+06 1.23777e+06 0 -3.2997e+06 1.27469e+06 0 -3.30484e+06 1.31184e+06 0 -3.31014e+06 1.34925e+06 0 -3.31559e+06 1.38694e+06 0 -3.3212e+06 1.42491e+06 0 -3.32696e+06 1.4632e+06 0 -3.33289e+06 1.50182e+06 0 -3.33898e+06 1.54081e+06 0 -3.34523e+06 1.58018e+06 0 -3.35166e+06 1.61996e+06 0 -3.35826e+06 1.6602e+06 0 -3.36504e+06 1.70091e+06 0 -3.372e+06 1.74214e+06 0 -3.37915e+06 1.78392e+06 0 -3.3865e+06 1.82631e+06 0 -3.39405e+06 1.86935e+06 0 -3.40181e+06 1.91309e+06 0 -3.4098e+06 1.9576e+06 0 -3.41801e+06 2.00294e+06 0 -3.42648e+06 2.04918e+06 0 -3.4352e+06 2.09642e+06 0 -3.4442e+06 2.14475e+06 0 -3.4535e+06 2.19427e+06 0 -3.46313e+06 2.2451e+06 0 -3.47311e+06 2.2974e+06 0 -3.48347e+06 2.3513e+06 0 -3.49425e+06 2.40701e+06 0 -3.5055e+06 2.46474e+06 0 -3.51728e+06 2.52472e+06 0 -3.52964e+06 2.58726e+06 0 -3.54268e+06 2.65272e+06 0 -3.55648e+06 2.72148e+06 0 -3.57117e+06 2.79407e+06 0 -3.58689e+06 2.87108e+06 0 -3.60384e+06 2.95331e+06 0 -3.62225e+06 3.04149e+06 0 -3.64243e+06 3.13759e+06 0 -3.66479e+06 3.24113e+06 0 -3.68987e+06 3.35832e+06 0 -3.71856e+06 3.48581e+06 0 -3.75156e+06 3.6327e+06 0 -3.79168e+06 3.8103e+06 0 -3.83924e+06 3.99744e+06 0 -3.90345e+06 4.26972e+06 0 -3.98689e+06 4.62806e+06 0 -4.12159e+06 4.94834e+06 0 -4.35728e+06 5.81024e+06 0 -5.73135e+06 2.29571e+07 0 -3.73315e+06 -4.40257e+06 0 -3.50029e+06 -3.78934e+06 0 -3.45367e+06 -3.18578e+06 0 -3.44868e+06 -2.79979e+06 0 -3.43372e+06 -2.55419e+06 0 -3.41049e+06 -2.37011e+06 0 -3.39048e+06 -2.20192e+06 0 -3.37531e+06 -2.05228e+06 0 -3.36288e+06 -1.92123e+06 0 -3.35119e+06 -1.80657e+06 0 -3.34013e+06 -1.7031e+06 0 -3.32997e+06 -1.60808e+06 0 -3.3207e+06 -1.52024e+06 0 -3.31212e+06 -1.43876e+06 0 -3.30407e+06 -1.36271e+06 0 -3.29651e+06 -1.29122e+06 0 -3.2894e+06 -1.22362e+06 0 -3.28272e+06 -1.15943e+06 0 -3.27643e+06 -1.09824e+06 0 -3.27049e+06 -1.03971e+06 0 -3.26489e+06 -983514 0 -3.25961e+06 -929394 0 -3.25463e+06 -877127 0 -3.24995e+06 -826521 0 -3.24554e+06 -777408 0 -3.2414e+06 -729637 0 -3.23752e+06 -683078 0 -3.23389e+06 -637618 0 -3.2305e+06 -593153 0 -3.22734e+06 -549593 0 -3.22441e+06 -506856 0 -3.2217e+06 -464871 0 -3.21921e+06 -423571 0 -3.21692e+06 -382898 0 -3.21485e+06 -342798 0 -3.21297e+06 -303224 0 -3.21129e+06 -264132 0 -3.2098e+06 -225482 0 -3.20849e+06 -187237 0 -3.20737e+06 -149364 0 -3.20643e+06 -111833 0 -3.20567e+06 -74616.1 0 -3.20509e+06 -37686.2 0 -3.20467e+06 -1019.62 0 -3.20442e+06 35406 0 -3.20434e+06 71611.5 0 -3.20442e+06 107616 0 -3.20467e+06 143439 0 -3.20507e+06 179097 0 -3.20563e+06 214605 0 -3.20635e+06 249981 0 -3.20722e+06 285237 0 -3.20824e+06 320389 0 -3.20942e+06 355449 0 -3.21074e+06 390431 0 -3.21221e+06 425346 0 -3.21383e+06 460207 0 -3.2156e+06 495026 0 -3.21751e+06 529813 0 -3.21957e+06 564580 0 -3.22177e+06 599338 0 -3.22411e+06 634098 0 -3.2266e+06 668869 0 -3.22922e+06 703664 0 -3.23199e+06 738492 0 -3.2349e+06 773364 0 -3.23795e+06 808290 0 -3.24114e+06 843281 0 -3.24448e+06 878349 0 -3.24795e+06 913503 0 -3.25156e+06 948756 0 -3.25532e+06 984118 0 -3.25921e+06 1.0196e+06 0 -3.26325e+06 1.05522e+06 0 -3.26742e+06 1.09098e+06 0 -3.27174e+06 1.1269e+06 0 -3.2762e+06 1.16299e+06 0 -3.2808e+06 1.19927e+06 0 -3.28555e+06 1.23575e+06 0 -3.29044e+06 1.27244e+06 0 -3.29548e+06 1.30937e+06 0 -3.30066e+06 1.34654e+06 0 -3.306e+06 1.38398e+06 0 -3.31148e+06 1.42171e+06 0 -3.31711e+06 1.45975e+06 0 -3.32289e+06 1.49811e+06 0 -3.32884e+06 1.53683e+06 0 -3.33493e+06 1.57592e+06 0 -3.34119e+06 1.61543e+06 0 -3.34761e+06 1.65536e+06 0 -3.3542e+06 1.69577e+06 0 -3.36096e+06 1.73668e+06 0 -3.3679e+06 1.77814e+06 0 -3.37502e+06 1.82018e+06 0 -3.38232e+06 1.86286e+06 0 -3.38982e+06 1.90623e+06 0 -3.39752e+06 1.95034e+06 0 -3.40544e+06 1.99525e+06 0 -3.41357e+06 2.04106e+06 0 -3.42194e+06 2.08782e+06 0 -3.43056e+06 2.13564e+06 0 -3.43944e+06 2.18462e+06 0 -3.4486e+06 2.23487e+06 0 -3.45807e+06 2.28653e+06 0 -3.46787e+06 2.33975e+06 0 -3.47803e+06 2.39471e+06 0 -3.48859e+06 2.4516e+06 0 -3.49959e+06 2.51067e+06 0 -3.51109e+06 2.5722e+06 0 -3.52313e+06 2.63651e+06 0 -3.5358e+06 2.70398e+06 0 -3.54919e+06 2.7751e+06 0 -3.5634e+06 2.85043e+06 0 -3.57857e+06 2.93066e+06 0 -3.59486e+06 3.01669e+06 0 -3.61254e+06 3.10958e+06 0 -3.63177e+06 3.21072e+06 0 -3.65299e+06 3.32238e+06 0 -3.67699e+06 3.44582e+06 0 -3.70309e+06 3.58713e+06 0 -3.73525e+06 3.74865e+06 0 -3.77122e+06 3.9373e+06 0 -3.81007e+06 4.17812e+06 0 -3.88698e+06 4.47364e+06 0 -3.89622e+06 4.8497e+06 0 -4.1421e+06 5.73817e+06 0 -3.6443e+06 7.03776e+06 0 52617.9 5.92589e+06 0 -3.31662e+06 -3.53273e+06 0 -3.36028e+06 -2.97383e+06 0 -3.38847e+06 -2.66884e+06 0 -3.38017e+06 -2.47461e+06 0 -3.36076e+06 -2.30579e+06 0 -3.34714e+06 -2.14493e+06 0 -3.33853e+06 -2.00107e+06 0 -3.33062e+06 -1.87733e+06 0 -3.32195e+06 -1.7682e+06 0 -3.31326e+06 -1.66896e+06 0 -3.30525e+06 -1.57712e+06 0 -3.29787e+06 -1.49207e+06 0 -3.29087e+06 -1.41303e+06 0 -3.28416e+06 -1.33907e+06 0 -3.27774e+06 -1.26936e+06 0 -3.27165e+06 -1.20331e+06 0 -3.26588e+06 -1.14049e+06 0 -3.26039e+06 -1.08053e+06 0 -3.25516e+06 -1.02308e+06 0 -3.25021e+06 -967849 0 -3.2455e+06 -914602 0 -3.24105e+06 -863126 0 -3.23684e+06 -813240 0 -3.23286e+06 -764784 0 -3.22912e+06 -717618 0 -3.2256e+06 -671617 0 -3.22229e+06 -626673 0 -3.21921e+06 -582688 0 -3.21633e+06 -539576 0 -3.21365e+06 -497260 0 -3.21118e+06 -455669 0 -3.20891e+06 -414742 0 -3.20683e+06 -374422 0 -3.20493e+06 -334659 0 -3.20323e+06 -295405 0 -3.2017e+06 -256619 0 -3.20036e+06 -218263 0 -3.19919e+06 -180301 0 -3.19819e+06 -142701 0 -3.19737e+06 -105433 0 -3.19671e+06 -68471.5 0 -3.19622e+06 -31789.6 0 -3.1959e+06 4635.4 0 -3.19573e+06 40825.4 0 -3.19572e+06 76800.7 0 -3.19587e+06 112580 0 -3.19618e+06 148182 0 -3.19663e+06 183622 0 -3.19724e+06 218917 0 -3.198e+06 254081 0 -3.19891e+06 289130 0 -3.19996e+06 324076 0 -3.20116e+06 358933 0 -3.20251e+06 393713 0 -3.204e+06 428428 0 -3.20563e+06 463091 0 -3.2074e+06 497712 0 -3.20932e+06 532303 0 -3.21137e+06 566874 0 -3.21356e+06 601437 0 -3.21589e+06 636002 0 -3.21836e+06 670578 0 -3.22097e+06 705178 0 -3.22372e+06 739811 0 -3.2266e+06 774487 0 -3.22962e+06 809217 0 -3.23277e+06 844011 0 -3.23606e+06 878881 0 -3.23949e+06 913836 0 -3.24305e+06 948887 0 -3.24675e+06 984046 0 -3.25058e+06 1.01933e+06 0 -3.25455e+06 1.05473e+06 0 -3.25866e+06 1.09029e+06 0 -3.2629e+06 1.126e+06 0 -3.26728e+06 1.16187e+06 0 -3.2718e+06 1.19793e+06 0 -3.27646e+06 1.23419e+06 0 -3.28125e+06 1.27066e+06 0 -3.28619e+06 1.30736e+06 0 -3.29126e+06 1.3443e+06 0 -3.29648e+06 1.3815e+06 0 -3.30184e+06 1.41899e+06 0 -3.30735e+06 1.45677e+06 0 -3.31299e+06 1.49488e+06 0 -3.31879e+06 1.53334e+06 0 -3.32474e+06 1.57216e+06 0 -3.33083e+06 1.61138e+06 0 -3.33708e+06 1.65103e+06 0 -3.34349e+06 1.69114e+06 0 -3.35006e+06 1.73174e+06 0 -3.35679e+06 1.77288e+06 0 -3.36368e+06 1.81458e+06 0 -3.37075e+06 1.85691e+06 0 -3.378e+06 1.89991e+06 0 -3.38543e+06 1.94363e+06 0 -3.39305e+06 1.98814e+06 0 -3.40087e+06 2.0335e+06 0 -3.4089e+06 2.07981e+06 0 -3.41715e+06 2.12714e+06 0 -3.42563e+06 2.17559e+06 0 -3.43435e+06 2.22527e+06 0 -3.44334e+06 2.27632e+06 0 -3.45262e+06 2.32888e+06 0 -3.4622e+06 2.38311e+06 0 -3.47211e+06 2.43921e+06 0 -3.48239e+06 2.4974e+06 0 -3.49307e+06 2.55795e+06 0 -3.50419e+06 2.62116e+06 0 -3.51582e+06 2.68741e+06 0 -3.52801e+06 2.75712e+06 0 -3.54085e+06 2.83084e+06 0 -3.55441e+06 2.9092e+06 0 -3.56881e+06 2.99305e+06 0 -3.58423e+06 3.08332e+06 0 -3.60075e+06 3.18137e+06 0 -3.61859e+06 3.28904e+06 0 -3.63844e+06 3.40788e+06 0 -3.65927e+06 3.54259e+06 0 -3.68393e+06 3.69589e+06 0 -3.71127e+06 3.87367e+06 0 -3.73512e+06 4.09472e+06 0 -3.78772e+06 4.3625e+06 0 -3.78167e+06 4.7095e+06 0 -3.86738e+06 5.33964e+06 0 -3.65335e+06 6.19688e+06 0 -1.92657e+06 7.37508e+06 0 -474573 6.04363e+06 0 -3.31545e+06 -2.77098e+06 0 -3.34204e+06 -2.57871e+06 0 -3.32831e+06 -2.41377e+06 0 -3.31329e+06 -2.24462e+06 0 -3.30814e+06 -2.08457e+06 0 -3.30565e+06 -1.94852e+06 0 -3.30092e+06 -1.83313e+06 0 -3.29434e+06 -1.72987e+06 0 -3.28771e+06 -1.63427e+06 0 -3.28171e+06 -1.54544e+06 0 -3.27605e+06 -1.46316e+06 0 -3.27044e+06 -1.38662e+06 0 -3.26489e+06 -1.31476e+06 0 -3.25953e+06 -1.24681e+06 0 -3.25438e+06 -1.1823e+06 0 -3.24944e+06 -1.12086e+06 0 -3.24469e+06 -1.06212e+06 0 -3.24013e+06 -1.00577e+06 0 -3.23577e+06 -951517 0 -3.23161e+06 -899151 0 -3.22765e+06 -848476 0 -3.22389e+06 -799321 0 -3.22032e+06 -751533 0 -3.21695e+06 -704980 0 -3.21377e+06 -659546 0 -3.21079e+06 -615127 0 -3.20799e+06 -571631 0 -3.20538e+06 -528976 0 -3.20295e+06 -487088 0 -3.20071e+06 -445900 0 -3.19865e+06 -405354 0 -3.19676e+06 -365394 0 -3.19505e+06 -325973 0 -3.19351e+06 -287046 0 -3.19214e+06 -248572 0 -3.19094e+06 -210515 0 -3.1899e+06 -172841 0 -3.18903e+06 -135519 0 -3.18832e+06 -98519.9 0 -3.18777e+06 -61817.8 0 -3.18737e+06 -25388.4 0 -3.18713e+06 10791.1 0 -3.18705e+06 46741.8 0 -3.18711e+06 82483.2 0 -3.18733e+06 118034 0 -3.18769e+06 153411 0 -3.18821e+06 188631 0 -3.18886e+06 223709 0 -3.18966e+06 258661 0 -3.19061e+06 293499 0 -3.1917e+06 328237 0 -3.19292e+06 362888 0 -3.19429e+06 397465 0 -3.1958e+06 431979 0 -3.19744e+06 466441 0 -3.19922e+06 500863 0 -3.20114e+06 535256 0 -3.20319e+06 569631 0 -3.20538e+06 603997 0 -3.2077e+06 638366 0 -3.21016e+06 672747 0 -3.21275e+06 707151 0 -3.21547e+06 741588 0 -3.21832e+06 776068 0 -3.22131e+06 810602 0 -3.22443e+06 845199 0 -3.22768e+06 879870 0 -3.23106e+06 914625 0 -3.23458e+06 949476 0 -3.23822e+06 984434 0 -3.242e+06 1.01951e+06 0 -3.24591e+06 1.05471e+06 0 -3.24995e+06 1.09006e+06 0 -3.25412e+06 1.12556e+06 0 -3.25842e+06 1.16122e+06 0 -3.26286e+06 1.19706e+06 0 -3.26743e+06 1.2331e+06 0 -3.27213e+06 1.26935e+06 0 -3.27697e+06 1.30582e+06 0 -3.28194e+06 1.34253e+06 0 -3.28704e+06 1.3795e+06 0 -3.29229e+06 1.41674e+06 0 -3.29767e+06 1.45428e+06 0 -3.30318e+06 1.49214e+06 0 -3.30884e+06 1.53033e+06 0 -3.31464e+06 1.56889e+06 0 -3.32058e+06 1.60784e+06 0 -3.32666e+06 1.6472e+06 0 -3.33289e+06 1.68702e+06 0 -3.33927e+06 1.72732e+06 0 -3.3458e+06 1.76813e+06 0 -3.35248e+06 1.80951e+06 0 -3.35933e+06 1.85149e+06 0 -3.36633e+06 1.89413e+06 0 -3.3735e+06 1.93747e+06 0 -3.38084e+06 1.98158e+06 0 -3.38836e+06 2.02652e+06 0 -3.39607e+06 2.07238e+06 0 -3.40396e+06 2.11923e+06 0 -3.41206e+06 2.16717e+06 0 -3.42037e+06 2.2163e+06 0 -3.42891e+06 2.26676e+06 0 -3.43768e+06 2.31867e+06 0 -3.44671e+06 2.3722e+06 0 -3.45601e+06 2.42754e+06 0 -3.46562e+06 2.48488e+06 0 -3.47554e+06 2.54449e+06 0 -3.48581e+06 2.60666e+06 0 -3.49648e+06 2.67172e+06 0 -3.50757e+06 2.7401e+06 0 -3.51914e+06 2.81228e+06 0 -3.53125e+06 2.88887e+06 0 -3.54394e+06 2.97064e+06 0 -3.55733e+06 3.05845e+06 0 -3.57147e+06 3.15355e+06 0 -3.58638e+06 3.25756e+06 0 -3.60257e+06 3.37202e+06 0 -3.61913e+06 3.50067e+06 0 -3.63737e+06 3.64651e+06 0 -3.65771e+06 3.81413e+06 0 -3.67175e+06 4.01802e+06 0 -3.7021e+06 4.26344e+06 0 -3.6958e+06 4.57523e+06 0 -3.69257e+06 5.06309e+06 0 -3.58599e+06 5.72086e+06 0 -2.58929e+06 6.70029e+06 0 -1.07693e+06 6.57141e+06 0 -619817 5.86545e+06 0 -3.29153e+06 -2.52366e+06 0 -3.27512e+06 -2.34888e+06 0 -3.27122e+06 -2.17048e+06 0 -3.27522e+06 -2.01944e+06 0 -3.27649e+06 -1.89668e+06 0 -3.27305e+06 -1.79036e+06 0 -3.26805e+06 -1.6915e+06 0 -3.26349e+06 -1.59882e+06 0 -3.25942e+06 -1.51298e+06 0 -3.25523e+06 -1.43366e+06 0 -3.25078e+06 -1.35963e+06 0 -3.24627e+06 -1.2898e+06 0 -3.24187e+06 -1.22359e+06 0 -3.23759e+06 -1.16062e+06 0 -3.23341e+06 -1.10057e+06 0 -3.22934e+06 -1.04307e+06 0 -3.22539e+06 -987803 0 -3.22159e+06 -934535 0 -3.21794e+06 -883059 0 -3.21444e+06 -833194 0 -3.2111e+06 -784777 0 -3.20792e+06 -737665 0 -3.20491e+06 -691734 0 -3.20206e+06 -646875 0 -3.19937e+06 -602989 0 -3.19686e+06 -559990 0 -3.1945e+06 -517799 0 -3.19232e+06 -476346 0 -3.19029e+06 -435568 0 -3.18843e+06 -395409 0 -3.18673e+06 -355816 0 -3.1852e+06 -316744 0 -3.18382e+06 -278149 0 -3.1826e+06 -239993 0 -3.18154e+06 -202241 0 -3.18064e+06 -164860 0 -3.17988e+06 -127820 0 -3.17928e+06 -91093.6 0 -3.17883e+06 -54655.7 0 -3.17853e+06 -18482.7 0 -3.17838e+06 17447.5 0 -3.17838e+06 53155.1 0 -3.17852e+06 88659.3 0 -3.1788e+06 123978 0 -3.17922e+06 159128 0 -3.17979e+06 194125 0 -3.1805e+06 228984 0 -3.18134e+06 263719 0 -3.18232e+06 298344 0 -3.18344e+06 332873 0 -3.1847e+06 367317 0 -3.18609e+06 401688 0 -3.18762e+06 435998 0 -3.18927e+06 470259 0 -3.19106e+06 504481 0 -3.19299e+06 538675 0 -3.19504e+06 572851 0 -3.19722e+06 607020 0 -3.19954e+06 641192 0 -3.20198e+06 675377 0 -3.20455e+06 709584 0 -3.20725e+06 743825 0 -3.21008e+06 778109 0 -3.21304e+06 812445 0 -3.21612e+06 846845 0 -3.21934e+06 881318 0 -3.22268e+06 915874 0 -3.22614e+06 950525 0 -3.22974e+06 985281 0 -3.23346e+06 1.02015e+06 0 -3.23731e+06 1.05515e+06 0 -3.24128e+06 1.09029e+06 0 -3.24538e+06 1.12558e+06 0 -3.24961e+06 1.16103e+06 0 -3.25397e+06 1.19666e+06 0 -3.25846e+06 1.23248e+06 0 -3.26307e+06 1.26851e+06 0 -3.26781e+06 1.30475e+06 0 -3.27268e+06 1.34123e+06 0 -3.27768e+06 1.37797e+06 0 -3.28281e+06 1.41497e+06 0 -3.28807e+06 1.45227e+06 0 -3.29345e+06 1.48987e+06 0 -3.29898e+06 1.52781e+06 0 -3.30463e+06 1.56611e+06 0 -3.31042e+06 1.60478e+06 0 -3.31634e+06 1.64387e+06 0 -3.3224e+06 1.6834e+06 0 -3.3286e+06 1.7234e+06 0 -3.33494e+06 1.7639e+06 0 -3.34142e+06 1.80496e+06 0 -3.34804e+06 1.8466e+06 0 -3.35481e+06 1.88888e+06 0 -3.36173e+06 1.93186e+06 0 -3.3688e+06 1.97558e+06 0 -3.37603e+06 2.02011e+06 0 -3.38343e+06 2.06553e+06 0 -3.39099e+06 2.11191e+06 0 -3.39872e+06 2.15936e+06 0 -3.40664e+06 2.20796e+06 0 -3.41474e+06 2.25784e+06 0 -3.42304e+06 2.30914e+06 0 -3.43155e+06 2.36199e+06 0 -3.44028e+06 2.41658e+06 0 -3.44925e+06 2.47312e+06 0 -3.45846e+06 2.53182e+06 0 -3.46794e+06 2.59298e+06 0 -3.47771e+06 2.65692e+06 0 -3.48779e+06 2.72401e+06 0 -3.4982e+06 2.79473e+06 0 -3.50898e+06 2.86964e+06 0 -3.52013e+06 2.94943e+06 0 -3.5317e+06 3.03493e+06 0 -3.54371e+06 3.12724e+06 0 -3.55606e+06 3.22783e+06 0 -3.56906e+06 3.33818e+06 0 -3.582e+06 3.46131e+06 0 -3.59506e+06 3.60023e+06 0 -3.60916e+06 3.75865e+06 0 -3.61681e+06 3.94786e+06 0 -3.62982e+06 4.17345e+06 0 -3.622e+06 4.45433e+06 0 -3.58193e+06 4.85435e+06 0 -3.49149e+06 5.37946e+06 0 -2.89819e+06 6.14479e+06 0 -1.69784e+06 6.46028e+06 0 -803659 5.81304e+06 0 -538206 5.3038e+06 0 -3.22861e+06 -2.25982e+06 0 -3.23881e+06 -2.08993e+06 0 -3.24772e+06 -1.95971e+06 0 -3.24913e+06 -1.85019e+06 0 -3.24616e+06 -1.74882e+06 0 -3.24312e+06 -1.65218e+06 0 -3.24081e+06 -1.56237e+06 0 -3.23837e+06 -1.48003e+06 0 -3.23531e+06 -1.40381e+06 0 -3.23184e+06 -1.33216e+06 0 -3.22828e+06 -1.26425e+06 0 -3.22477e+06 -1.19973e+06 0 -3.22128e+06 -1.13833e+06 0 -3.21779e+06 -1.07967e+06 0 -3.21433e+06 -1.02339e+06 0 -3.21095e+06 -969218 0 -3.20767e+06 -916935 0 -3.2045e+06 -866354 0 -3.20143e+06 -817303 0 -3.19849e+06 -769629 0 -3.19567e+06 -723199 0 -3.193e+06 -677896 0 -3.19046e+06 -633618 0 -3.18806e+06 -590272 0 -3.18581e+06 -547775 0 -3.1837e+06 -506055 0 -3.18174e+06 -465043 0 -3.17993e+06 -424681 0 -3.17827e+06 -384915 0 -3.17676e+06 -345694 0 -3.17539e+06 -306976 0 -3.17417e+06 -268719 0 -3.1731e+06 -230886 0 -3.17218e+06 -193443 0 -3.1714e+06 -156359 0 -3.17076e+06 -119606 0 -3.17027e+06 -83156.5 0 -3.16992e+06 -46986.8 0 -3.16972e+06 -11073.8 0 -3.16965e+06 24603.4 0 -3.16972e+06 60064.7 0 -3.16993e+06 95328.4 0 -3.17028e+06 130412 0 -3.17077e+06 165332 0 -3.17139e+06 200103 0 -3.17214e+06 234740 0 -3.17303e+06 269257 0 -3.17405e+06 303668 0 -3.17521e+06 337984 0 -3.17649e+06 372218 0 -3.17791e+06 406383 0 -3.17945e+06 440488 0 -3.18112e+06 474545 0 -3.18292e+06 508565 0 -3.18485e+06 542559 0 -3.18691e+06 576536 0 -3.18909e+06 610506 0 -3.19139e+06 644481 0 -3.19383e+06 678468 0 -3.19638e+06 712479 0 -3.19906e+06 746523 0 -3.20187e+06 780610 0 -3.2048e+06 814749 0 -3.20785e+06 848952 0 -3.21103e+06 883226 0 -3.21433e+06 917584 0 -3.21775e+06 952034 0 -3.2213e+06 986589 0 -3.22496e+06 1.02126e+06 0 -3.22875e+06 1.05605e+06 0 -3.23267e+06 1.09098e+06 0 -3.2367e+06 1.12606e+06 0 -3.24086e+06 1.16131e+06 0 -3.24514e+06 1.19672e+06 0 -3.24954e+06 1.23233e+06 0 -3.25407e+06 1.26813e+06 0 -3.25872e+06 1.30415e+06 0 -3.26349e+06 1.34041e+06 0 -3.26838e+06 1.37691e+06 0 -3.2734e+06 1.41368e+06 0 -3.27854e+06 1.45074e+06 0 -3.28381e+06 1.4881e+06 0 -3.2892e+06 1.52578e+06 0 -3.29471e+06 1.56382e+06 0 -3.30036e+06 1.60223e+06 0 -3.30612e+06 1.64104e+06 0 -3.31202e+06 1.68028e+06 0 -3.31804e+06 1.71999e+06 0 -3.32419e+06 1.76019e+06 0 -3.33047e+06 1.80093e+06 0 -3.33688e+06 1.84224e+06 0 -3.34343e+06 1.88418e+06 0 -3.3501e+06 1.92679e+06 0 -3.35692e+06 1.97013e+06 0 -3.36387e+06 2.01426e+06 0 -3.37097e+06 2.05926e+06 0 -3.37821e+06 2.10519e+06 0 -3.38559e+06 2.15215e+06 0 -3.39313e+06 2.20024e+06 0 -3.40082e+06 2.24956e+06 0 -3.40868e+06 2.30026e+06 0 -3.41669e+06 2.35246e+06 0 -3.42488e+06 2.40634e+06 0 -3.43325e+06 2.46209e+06 0 -3.4418e+06 2.51993e+06 0 -3.45054e+06 2.58012e+06 0 -3.45948e+06 2.64297e+06 0 -3.46862e+06 2.70884e+06 0 -3.47797e+06 2.77817e+06 0 -3.48752e+06 2.85147e+06 0 -3.49727e+06 2.9294e+06 0 -3.50721e+06 3.01271e+06 0 -3.51731e+06 3.1024e+06 0 -3.52741e+06 3.19979e+06 0 -3.53762e+06 3.30628e+06 0 -3.5474e+06 3.42437e+06 0 -3.5563e+06 3.5569e+06 0 -3.56499e+06 3.707e+06 0 -3.56785e+06 3.88344e+06 0 -3.5689e+06 4.09181e+06 0 -3.55634e+06 4.346e+06 0 -3.50508e+06 4.68665e+06 0 -3.40809e+06 5.12014e+06 0 -3.02953e+06 5.72286e+06 0 -2.14179e+06 6.16727e+06 0 -1.19817e+06 5.92259e+06 0 -719299 5.35181e+06 0 -499603 4.92395e+06 0 -3.21382e+06 -2.0222e+06 0 -3.22171e+06 -1.9096e+06 0 -3.22196e+06 -1.80526e+06 0 -3.22055e+06 -1.70496e+06 0 -3.22013e+06 -1.61103e+06 0 -3.21976e+06 -1.52546e+06 0 -3.21841e+06 -1.44709e+06 0 -3.21618e+06 -1.37373e+06 0 -3.21359e+06 -1.30417e+06 0 -3.21094e+06 -1.23809e+06 0 -3.20824e+06 -1.17531e+06 0 -3.20544e+06 -1.11548e+06 0 -3.20256e+06 -1.0582e+06 0 -3.19968e+06 -1.00313e+06 0 -3.19682e+06 -950039 0 -3.19402e+06 -898742 0 -3.19128e+06 -849058 0 -3.18862e+06 -800824 0 -3.18605e+06 -753895 0 -3.18358e+06 -708150 0 -3.18122e+06 -663479 0 -3.17898e+06 -619787 0 -3.17685e+06 -576985 0 -3.17485e+06 -534997 0 -3.17298e+06 -493751 0 -3.17124e+06 -453187 0 -3.16964e+06 -413245 0 -3.16816e+06 -373876 0 -3.16683e+06 -335033 0 -3.16563e+06 -296674 0 -3.16456e+06 -258759 0 -3.16363e+06 -221253 0 -3.16284e+06 -184124 0 -3.16218e+06 -147341 0 -3.16167e+06 -110879 0 -3.16128e+06 -74710.3 0 -3.16103e+06 -38812.3 0 -3.16092e+06 -3162.9 0 -3.16094e+06 32258.2 0 -3.16109e+06 67470 0 -3.16137e+06 102490 0 -3.16178e+06 137336 0 -3.16233e+06 172023 0 -3.16301e+06 206566 0 -3.16381e+06 240979 0 -3.16474e+06 275276 0 -3.1658e+06 309469 0 -3.16699e+06 343571 0 -3.1683e+06 377594 0 -3.16974e+06 411550 0 -3.1713e+06 445448 0 -3.17299e+06 479301 0 -3.1748e+06 513118 0 -3.17674e+06 546910 0 -3.1788e+06 580687 0 -3.18097e+06 614458 0 -3.18328e+06 648234 0 -3.1857e+06 682023 0 -3.18824e+06 715837 0 -3.1909e+06 749683 0 -3.19369e+06 783573 0 -3.19659e+06 817515 0 -3.19961e+06 851520 0 -3.20275e+06 885596 0 -3.20602e+06 919755 0 -3.2094e+06 954005 0 -3.21289e+06 988359 0 -3.21651e+06 1.02283e+06 0 -3.22024e+06 1.05742e+06 0 -3.2241e+06 1.09214e+06 0 -3.22807e+06 1.12702e+06 0 -3.23216e+06 1.16205e+06 0 -3.23636e+06 1.19725e+06 0 -3.24069e+06 1.23264e+06 0 -3.24513e+06 1.26823e+06 0 -3.24968e+06 1.30403e+06 0 -3.25436e+06 1.34006e+06 0 -3.25915e+06 1.37633e+06 0 -3.26407e+06 1.41287e+06 0 -3.26909e+06 1.44969e+06 0 -3.27424e+06 1.4868e+06 0 -3.2795e+06 1.52424e+06 0 -3.28488e+06 1.56202e+06 0 -3.29038e+06 1.60017e+06 0 -3.296e+06 1.63871e+06 0 -3.30173e+06 1.67767e+06 0 -3.30758e+06 1.71709e+06 0 -3.31355e+06 1.75699e+06 0 -3.31964e+06 1.79742e+06 0 -3.32585e+06 1.83841e+06 0 -3.33217e+06 1.88001e+06 0 -3.33862e+06 1.92227e+06 0 -3.34519e+06 1.96523e+06 0 -3.35187e+06 2.00898e+06 0 -3.35868e+06 2.05356e+06 0 -3.36561e+06 2.09905e+06 0 -3.37266e+06 2.14554e+06 0 -3.37984e+06 2.19313e+06 0 -3.38714e+06 2.24192e+06 0 -3.39457e+06 2.29203e+06 0 -3.40212e+06 2.3436e+06 0 -3.40979e+06 2.39679e+06 0 -3.4176e+06 2.45178e+06 0 -3.42552e+06 2.50879e+06 0 -3.43357e+06 2.56805e+06 0 -3.44173e+06 2.62987e+06 0 -3.45e+06 2.69457e+06 0 -3.45836e+06 2.76257e+06 0 -3.4668e+06 2.83435e+06 0 -3.47527e+06 2.9105e+06 0 -3.48373e+06 2.99174e+06 0 -3.49211e+06 3.07896e+06 0 -3.50022e+06 3.17337e+06 0 -3.508e+06 3.27625e+06 0 -3.51501e+06 3.38972e+06 0 -3.5205e+06 3.51636e+06 0 -3.52463e+06 3.65892e+06 0 -3.52348e+06 3.82419e+06 0 -3.51665e+06 4.01754e+06 0 -3.49829e+06 4.24913e+06 0 -3.44495e+06 4.54609e+06 0 -3.34363e+06 4.91506e+06 0 -3.07391e+06 5.39956e+06 0 -2.43131e+06 5.8517e+06 0 -1.57802e+06 5.87005e+06 0 -966137 5.456e+06 0 -673550 5.03651e+06 0 -499443 4.69118e+06 0 -3.19514e+06 -1.85928e+06 0 -3.19594e+06 -1.7563e+06 0 -3.19742e+06 -1.6587e+06 0 -3.19928e+06 -1.57001e+06 0 -3.19998e+06 -1.48938e+06 0 -3.19923e+06 -1.41438e+06 0 -3.19775e+06 -1.34323e+06 0 -3.19607e+06 -1.27558e+06 0 -3.19427e+06 -1.2114e+06 0 -3.19227e+06 -1.15041e+06 0 -3.19006e+06 -1.09214e+06 0 -3.18774e+06 -1.03619e+06 0 -3.18537e+06 -982305 0 -3.183e+06 -930296 0 -3.18064e+06 -879985 0 -3.17831e+06 -831196 0 -3.17602e+06 -783776 0 -3.1738e+06 -737593 0 -3.17165e+06 -692534 0 -3.16959e+06 -648499 0 -3.16762e+06 -605396 0 -3.16576e+06 -563142 0 -3.164e+06 -521665 0 -3.16235e+06 -480898 0 -3.16082e+06 -440784 0 -3.15941e+06 -401268 0 -3.15812e+06 -362301 0 -3.15695e+06 -323839 0 -3.15591e+06 -285842 0 -3.15499e+06 -248273 0 -3.1542e+06 -211098 0 -3.15354e+06 -174287 0 -3.15301e+06 -137810 0 -3.1526e+06 -101641 0 -3.15232e+06 -65756.9 0 -3.15217e+06 -30133.9 0 -3.15214e+06 5248.72 0 -3.15224e+06 40410.6 0 -3.15247e+06 75370 0 -3.15283e+06 110144 0 -3.15331e+06 144749 0 -3.15391e+06 179201 0 -3.15464e+06 213513 0 -3.15549e+06 247700 0 -3.15647e+06 281774 0 -3.15757e+06 315749 0 -3.15879e+06 349635 0 -3.16013e+06 383445 0 -3.16159e+06 417190 0 -3.16318e+06 450881 0 -3.16488e+06 484527 0 -3.16671e+06 518140 0 -3.16865e+06 551729 0 -3.17071e+06 585304 0 -3.17289e+06 618875 0 -3.17518e+06 652452 0 -3.1776e+06 686043 0 -3.18013e+06 719658 0 -3.18277e+06 753307 0 -3.18554e+06 786999 0 -3.18841e+06 820744 0 -3.19141e+06 854550 0 -3.19452e+06 888429 0 -3.19774e+06 922388 0 -3.20108e+06 956440 0 -3.20453e+06 990593 0 -3.2081e+06 1.02486e+06 0 -3.21178e+06 1.05925e+06 0 -3.21557e+06 1.09377e+06 0 -3.21948e+06 1.12843e+06 0 -3.2235e+06 1.16326e+06 0 -3.22764e+06 1.19825e+06 0 -3.23188e+06 1.23343e+06 0 -3.23624e+06 1.2688e+06 0 -3.24071e+06 1.30438e+06 0 -3.2453e+06 1.34019e+06 0 -3.24999e+06 1.37623e+06 0 -3.2548e+06 1.41254e+06 0 -3.25972e+06 1.44912e+06 0 -3.26474e+06 1.486e+06 0 -3.26988e+06 1.52319e+06 0 -3.27513e+06 1.56072e+06 0 -3.28049e+06 1.5986e+06 0 -3.28596e+06 1.63688e+06 0 -3.29154e+06 1.67557e+06 0 -3.29723e+06 1.7147e+06 0 -3.30302e+06 1.75431e+06 0 -3.30892e+06 1.79443e+06 0 -3.31493e+06 1.83511e+06 0 -3.32105e+06 1.87637e+06 0 -3.32727e+06 1.91828e+06 0 -3.33359e+06 1.96089e+06 0 -3.34002e+06 2.00425e+06 0 -3.34656e+06 2.04843e+06 0 -3.35319e+06 2.09349e+06 0 -3.35992e+06 2.13953e+06 0 -3.36675e+06 2.18663e+06 0 -3.37368e+06 2.23489e+06 0 -3.38069e+06 2.28444e+06 0 -3.3878e+06 2.3354e+06 0 -3.39499e+06 2.38793e+06 0 -3.40226e+06 2.44219e+06 0 -3.40959e+06 2.4984e+06 0 -3.41699e+06 2.55678e+06 0 -3.42442e+06 2.6176e+06 0 -3.43188e+06 2.68118e+06 0 -3.43933e+06 2.74791e+06 0 -3.44673e+06 2.81824e+06 0 -3.45403e+06 2.89271e+06 0 -3.46115e+06 2.97199e+06 0 -3.46798e+06 3.05689e+06 0 -3.47431e+06 3.1485e+06 0 -3.47996e+06 3.24801e+06 0 -3.48452e+06 3.35722e+06 0 -3.48716e+06 3.47845e+06 0 -3.48754e+06 3.61416e+06 0 -3.48288e+06 3.76961e+06 0 -3.47078e+06 3.94977e+06 0 -3.44721e+06 4.16223e+06 0 -3.39403e+06 4.42548e+06 0 -3.29371e+06 4.74649e+06 0 -3.08077e+06 5.14728e+06 0 -2.60768e+06 5.56226e+06 0 -1.89163e+06 5.72407e+06 0 -1.24003e+06 5.49335e+06 0 -852343 5.11166e+06 0 -638188 4.78549e+06 0 -504345 4.50277e+06 0 -3.17274e+06 -1.70578e+06 0 -3.17691e+06 -1.61365e+06 0 -3.17987e+06 -1.5307e+06 0 -3.18094e+06 -1.45387e+06 0 -3.18075e+06 -1.3812e+06 0 -3.18014e+06 -1.31204e+06 0 -3.17934e+06 -1.24648e+06 0 -3.17824e+06 -1.18434e+06 0 -3.1768e+06 -1.12511e+06 0 -3.17511e+06 -1.06832e+06 0 -3.1733e+06 -1.01366e+06 0 -3.17142e+06 -960948 0 -3.16949e+06 -910020 0 -3.16753e+06 -860690 0 -3.16557e+06 -812789 0 -3.16363e+06 -766178 0 -3.16173e+06 -720739 0 -3.15988e+06 -676368 0 -3.1581e+06 -632969 0 -3.1564e+06 -590456 0 -3.15478e+06 -548752 0 -3.15325e+06 -507789 0 -3.15181e+06 -467505 0 -3.15048e+06 -427844 0 -3.14926e+06 -388756 0 -3.14814e+06 -350194 0 -3.14714e+06 -312117 0 -3.14625e+06 -274486 0 -3.14548e+06 -237266 0 -3.14482e+06 -200426 0 -3.14428e+06 -163935 0 -3.14387e+06 -127767 0 -3.14357e+06 -91895.8 0 -3.14339e+06 -56298.5 0 -3.14333e+06 -20953.5 0 -3.1434e+06 14159.6 0 -3.14358e+06 49059.5 0 -3.14388e+06 83764 0 -3.14431e+06 118290 0 -3.14485e+06 152652 0 -3.14551e+06 186866 0 -3.1463e+06 220945 0 -3.1472e+06 254903 0 -3.14822e+06 288753 0 -3.14935e+06 322507 0 -3.15061e+06 356176 0 -3.15198e+06 389771 0 -3.15347e+06 423304 0 -3.15507e+06 456785 0 -3.15679e+06 490224 0 -3.15863e+06 523632 0 -3.16058e+06 557017 0 -3.16264e+06 590390 0 -3.16482e+06 623760 0 -3.16712e+06 657136 0 -3.16952e+06 690528 0 -3.17204e+06 723944 0 -3.17467e+06 757395 0 -3.17741e+06 790889 0 -3.18027e+06 824436 0 -3.18323e+06 858045 0 -3.18631e+06 891725 0 -3.1895e+06 925486 0 -3.1928e+06 959338 0 -3.19621e+06 993291 0 -3.19973e+06 1.02735e+06 0 -3.20335e+06 1.06154e+06 0 -3.20709e+06 1.09586e+06 0 -3.21094e+06 1.13032e+06 0 -3.2149e+06 1.16494e+06 0 -3.21896e+06 1.19972e+06 0 -3.22313e+06 1.23468e+06 0 -3.22741e+06 1.26984e+06 0 -3.2318e+06 1.3052e+06 0 -3.23629e+06 1.34079e+06 0 -3.24089e+06 1.37661e+06 0 -3.24559e+06 1.41269e+06 0 -3.2504e+06 1.44904e+06 0 -3.25532e+06 1.48568e+06 0 -3.26034e+06 1.52262e+06 0 -3.26546e+06 1.5599e+06 0 -3.27068e+06 1.59754e+06 0 -3.27601e+06 1.63555e+06 0 -3.28144e+06 1.67397e+06 0 -3.28696e+06 1.71282e+06 0 -3.29259e+06 1.75214e+06 0 -3.29831e+06 1.79196e+06 0 -3.30413e+06 1.83233e+06 0 -3.31004e+06 1.87327e+06 0 -3.31604e+06 1.91484e+06 0 -3.32213e+06 1.95709e+06 0 -3.32831e+06 2.00008e+06 0 -3.33458e+06 2.04386e+06 0 -3.34093e+06 2.08851e+06 0 -3.34735e+06 2.13411e+06 0 -3.35385e+06 2.18074e+06 0 -3.36042e+06 2.22849e+06 0 -3.36704e+06 2.2775e+06 0 -3.37372e+06 2.32787e+06 0 -3.38045e+06 2.37975e+06 0 -3.38721e+06 2.43331e+06 0 -3.39399e+06 2.48875e+06 0 -3.40077e+06 2.54627e+06 0 -3.40752e+06 2.60614e+06 0 -3.41422e+06 2.66865e+06 0 -3.42082e+06 2.73417e+06 0 -3.42727e+06 2.80311e+06 0 -3.43349e+06 2.87599e+06 0 -3.43938e+06 2.95342e+06 0 -3.4448e+06 3.03613e+06 0 -3.44954e+06 3.12511e+06 0 -3.45331e+06 3.22147e+06 0 -3.45571e+06 3.32676e+06 0 -3.4559e+06 3.44301e+06 0 -3.45321e+06 3.57246e+06 0 -3.44548e+06 3.71923e+06 0 -3.42969e+06 3.88776e+06 0 -3.40206e+06 4.08391e+06 0 -3.34923e+06 4.32039e+06 0 -3.25303e+06 4.604e+06 0 -3.07296e+06 4.9449e+06 0 -2.71093e+06 5.31234e+06 0 -2.1288e+06 5.53904e+06 0 -1.50347e+06 5.45877e+06 0 -1.05028e+06 5.16141e+06 0 -782206 4.84705e+06 0 -613521 4.56984e+06 0 -504261 4.32837e+06 0 -3.15807e+06 -1.57053e+06 0 -3.1612e+06 -1.49197e+06 0 -3.16257e+06 -1.41779e+06 0 -3.16316e+06 -1.34729e+06 0 -3.16344e+06 -1.28045e+06 0 -3.16334e+06 -1.21719e+06 0 -3.16277e+06 -1.15703e+06 0 -3.1618e+06 -1.09942e+06 0 -3.1606e+06 -1.04402e+06 0 -3.15926e+06 -990628 0 -3.15782e+06 -939098 0 -3.15628e+06 -889243 0 -3.15469e+06 -840880 0 -3.15307e+06 -793856 0 -3.15145e+06 -748050 0 -3.14985e+06 -703353 0 -3.14829e+06 -659667 0 -3.14677e+06 -616903 0 -3.14531e+06 -574980 0 -3.14392e+06 -533826 0 -3.1426e+06 -493379 0 -3.14137e+06 -453579 0 -3.14023e+06 -414374 0 -3.13918e+06 -375716 0 -3.13824e+06 -337562 0 -3.13739e+06 -299872 0 -3.13665e+06 -262610 0 -3.13601e+06 -225743 0 -3.13549e+06 -189240 0 -3.13507e+06 -153073 0 -3.13477e+06 -117216 0 -3.13457e+06 -81644.7 0 -3.1345e+06 -46337.3 0 -3.13453e+06 -11272.8 0 -3.13468e+06 23568.2 0 -3.13494e+06 58203.7 0 -3.13532e+06 92650.8 0 -3.13581e+06 126925 0 -3.13642e+06 161043 