<?xml version="1.0"?> 
<VTKFile type="StructuredGrid" version="0.1"> 
<StructuredGrid WholeExtent="0 127 0 127 0 0"> 
<Piece Extent="0 127 0 127 0 0"> 
<PointData>
<DataArray type="Float32" Name="E" format="ascii" NumberOfComponents="3"> 
3.08233e+06 -1.27674e+06 0 3.20668e+06 -891876 0 3.19991e+06 -619465 0 3.15446e+06 -402118 0 3.08792e+06 -222696 0 3.01176e+06 -74878.3 0 2.93102e+06 48469.8 0 2.8492e+06 151578 0 2.76813e+06 238255 0 2.68896e+06 311278 0 2.61233e+06 372956 0 2.53857e+06 425107 0 2.46781e+06 469218 0 2.40008e+06 506502 0 2.33532e+06 537957 0 2.27342e+06 564409 0 2.21426e+06 586547 0 2.1577e+06 604948 0 2.10358e+06 620102 0 2.05178e+06 632420 0 2.00214e+06 642257 0 1.95454e+06 649914 0 1.90885e+06 655652 0 1.86494e+06 659696 0 1.82272e+06 662243 0 1.78206e+06 663463 0 1.74289e+06 663505 0 1.70511e+06 662501 0 1.66864e+06 660568 0 1.63341e+06 657807 0 1.59934e+06 654311 0 1.56638e+06 650159 0 1.53445e+06 645424 0 1.50352e+06 640172 0 1.47352e+06 634459 0 1.44441e+06 628338 0 1.41615e+06 621856 0 1.3887e+06 615055 0 1.36202e+06 607973 0 1.33608e+06 600645 0 1.31085e+06 593101 0 1.28629e+06 585371 0 1.26238e+06 577479 0 1.23909e+06 569448 0 1.2164e+06 561301 0 1.19429e+06 553056 0 1.17274e+06 544730 0 1.15173e+06 536339 0 1.13123e+06 527899 0 1.11124e+06 519421 0 1.09174e+06 510917 0 1.07271e+06 502399 0 1.05413e+06 493877 0 1.036e+06 485358 0 1.01831e+06 476852 0 1.00103e+06 468365 0 984162 459903 0 967693 451474 0 951613 443082 0 935912 434732 0 920581 426428 0 905611 418173 0 890995 409973 0 876724 401828 0 862790 393743 0 849188 385718 0 835910 377757 0 822949 369861 0 810299 362031 0 797954 354268 0 785909 346574 0 774158 338949 0 762695 331394 0 751515 323908 0 740614 316493 0 729987 309148 0 719628 301873 0 709535 294669 0 699701 287534 0 690124 280468 0 680800 273471 0 671724 266541 0 662893 259679 0 654303 252884 0 645951 246154 0 637834 239489 0 629948 232887 0 622290 226348 0 614857 219870 0 607646 213452 0 600656 207094 0 593881 200793 0 587322 194549 0 580973 188360 0 574835 182225 0 568903 176142 0 563176 170110 0 557651 164127 0 552327 158193 0 547201 152305 0 542272 146463 0 537538 140664 0 532997 134907 0 528646 129190 0 524486 123513 0 520514 117873 0 516728 112269 0 513128 106699 0 509711 101161 0 506477 95654.8 0 503425 90178 0 500553 84728.9 0 497860 79306.1 0 495346 73907.9 0 493009 68532.6 0 490848 63178.7 0 488863 57844.5 0 487053 52528.3 0 485418 47228.6 0 483956 41943.7 0 482668 36671.9 0 481552 31411.7 0 480609 26161.3 0 479837 20919.2 0 479238 15683.6 0 478810 10453 0 478553 5225.68 0 478467 0 0 3.13394e+06 -1.27179e+06 0 3.23202e+06 -883357 0 3.21955e+06 -608208 0 3.16949e+06 -389430 0 3.09983e+06 -209805 0 3.02114e+06 -62012.2 0 2.93844e+06 61018.8 0 2.85503e+06 163727 0 2.77266e+06 249937 0 2.69243e+06 322480 0 2.6149e+06 383676 0 2.54039e+06 435359 0 2.469e+06 479023 0 2.40072e+06 515882 0 2.33549e+06 546937 0 2.27319e+06 573014 0 2.21368e+06 594801 0 2.15681e+06 612875 0 2.10243e+06 627724 0 2.05039e+06 639758 0 2.00054e+06 649329 0 1.95275e+06 656739 0 1.90689e+06 662247 0 1.86284e+06 666077 0 1.82048e+06 668423 0 1.7797e+06 669455 0 1.74042e+06 669322 0 1.70255e+06 668154 0 1.66599e+06 666067 0 1.63068e+06 663163 0 1.59654e+06 659530 0 1.56351e+06 655251 0 1.53153e+06 650397 0 1.50054e+06 645031 0 1.47049e+06 639212 0 1.44135e+06 632990 0 1.41305e+06 626413 0 1.38557e+06 619521 0 1.35886e+06 612354 0 1.3329e+06 604944 0 1.30764e+06 597322 0 1.28306e+06 589517 0 1.25914e+06 581554 0 1.23584e+06 573456 0 1.21314e+06 565244 0 1.19103e+06 556936 0 1.16947e+06 548550 0 1.14846e+06 540102 0 1.12797e+06 531605 0 1.10798e+06 523073 0 1.08848e+06 514517 0 1.06945e+06 505948 0 1.05088e+06 497376 0 1.03276e+06 488809 0 1.01508e+06 480255 0 997813 471722 0 980958 463215 0 964504 454742 0 948439 446306 0 932754 437913 0 917440 429566 0 902489 421270 0 887891 413028 0 873640 404842 0 859727 396716 0 846145 388652 0 832888 380650 0 819949 372714 0 807322 364844 0 795000 357042 0 782977 349308 0 771249 341644 0 759809 334049 0 748653 326524 0 737776 319069 0 727172 311685 0 716837 304370 0 706767 297126 0 696958 289951 0 687404 282845 0 678103 275808 0 669050 268838 0 660242 261935 0 651675 255099 0 643346 248328 0 635250 241621 0 627386 234978 0 619749 228397 0 612338 221877 0 605148 215417 0 598177 209015 0 591423 202671 0 584882 196383 0 578553 190150 0 572432 183971 0 566518 177843 0 560807 171766 0 555299 165738 0 549990 159758 0 544880 153824 0 539965 147934 0 535244 142088 0 530715 136284 0 526377 130519 0 522228 124793 0 518266 119104 0 514489 113450 0 510897 107829 0 507488 102241 0 504261 96683.9 0 501215 91155.2 0 498347 85653.8 0 495658 80178 0 493147 74726.3 0 490811 69296.9 0 488651 63888.2 0 486666 58498.6 0 484855 53126.5 0 483217 47770.1 0 481751 42427.9 0 480458 37098.1 0 479336 31779.2 0 478385 26469.4 0 477605 21167.2 0 476995 15870.8 0 476555 10578.5 0 476286 5288.84 0 476186 0 0 3.18247e+06 -1.26486e+06 0 3.25777e+06 -874080 0 3.23915e+06 -596478 0 3.18452e+06 -376480 0 3.11168e+06 -196699 0 3.03047e+06 -48992 0 2.94581e+06 73691.5 0 2.86081e+06 175972 0 2.77715e+06 261698 0 2.69584e+06 333745 0 2.61743e+06 394450 0 2.54217e+06 445656 0 2.47014e+06 488866 0 2.40133e+06 525295 0 2.33564e+06 555946 0 2.27294e+06 581645 0 2.21308e+06 603079 0 2.1559e+06 620824 0 2.10125e+06 635365 0 2.04898e+06 647114 0 1.99892e+06 656419 0 1.95095e+06 663581 0 1.90492e+06 668858 0 1.86072e+06 672472 0 1.81822e+06 674617 0 1.77733e+06 675461 0 1.73794e+06 675152 0 1.69997e+06 673820 0 1.66333e+06 671579 0 1.62794e+06 668530 0 1.59373e+06 664762 0 1.56063e+06 660355 0 1.52859e+06 655381 0 1.49755e+06 649902 0 1.46746e+06 643975 0 1.43828e+06 637652 0 1.40994e+06 630979 0 1.38243e+06 623997 0 1.3557e+06 616743 0 1.32971e+06 609251 0 1.30443e+06 601551 0 1.27983e+06 593672 0 1.2559e+06 585638 0 1.23259e+06 577472 0 1.20988e+06 569194 0 1.18776e+06 560823 0 1.1662e+06 552377 0 1.14518e+06 543870 0 1.12469e+06 535317 0 1.10471e+06 526730 0 1.08521e+06 518121 0 1.06619e+06 509501 0 1.04763e+06 500879 0 1.02952e+06 492263 0 1.01184e+06 483662 0 994590 475082 0 977749 466530 0 961309 458011 0 945259 449531 0 929590 441094 0 914294 432705 0 899360 424367 0 884781 416083 0 870549 407856 0 856656 399689 0 843095 391584 0 829859 383542 0 816941 375566 0 804336 367656 0 792036 359814 0 780036 352040 0 768330 344336 0 756914 336701 0 745781 329136 0 734926 321642 0 724346 314218 0 714034 306863 0 703988 299579 0 694201 292364 0 684671 285218 0 675393 278140 0 666363 271129 0 657577 264186 0 649033 257309 0 640725 250496 0 632652 243748 0 624809 237063 0 617193 230440 0 609802 223877 0 602633 217375 0 595682 210930 0 588947 204543 0 582425 198212 0 576113 191935 0 570010 185711 0 564113 179538 0 558419 173416 0 552927 167343 0 547633 161317 0 542537 155336 0 537636 149400 0 532928 143507 0 528411 137654 0 524085 131842 0 519946 126067 0 515994 120329 0 512226 114625 0 508643 108955 0 505241 103316 0 502020 97707.6 0 498979 92127.3 0 496116 86573.7 0 493430 81045.2 0 490921 75540.1 0 488587 70056.9 0 486427 64593.7 0 484441 59149 0 482628 53721.1 0 480987 48308.4 0 479517 42909.1 0 478218 37521.7 0 477089 32144.4 0 476131 26775.6 0 475341 21413.6 0 474721 16056.7 0 474270 10703.3 0 473987 5351.58 0 473873 0 0 3.22853e+06 -1.25626e+06 0 3.28377e+06 -864049 0 3.25871e+06 -584290 0 3.19952e+06 -363265 0 3.12348e+06 -183380 0 3.03974e+06 -35818.2 0 2.95312e+06 86486.8 0 2.86653e+06 188314 0 2.78158e+06 273538 0 2.69921e+06 345075 0 2.61991e+06 405277 0 2.5439e+06 455999 0 2.47125e+06 498747 0 2.4019e+06 534742 0 2.33575e+06 564985 0 2.27265e+06 590302 0 2.21244e+06 611380 0 2.15497e+06 628794 0 2.10005e+06 643026 0 2.04754e+06 654488 0 1.99728e+06 663526 0 1.94912e+06 670439 0 1.90293e+06 675484 0 1.85858e+06 678882 0 1.81595e+06 680825 0 1.77495e+06 681481 0 1.73545e+06 680996 0 1.69738e+06 679499 0 1.66065e+06 677104 0 1.62518e+06 673909 0 1.5909e+06 670005 0 1.55775e+06 665470 0 1.52565e+06 660375 0 1.49456e+06 654783 0 1.46443e+06 648749 0 1.4352e+06 642325 0 1.40683e+06 635555 0 1.37929e+06 628482 0 1.35252e+06 621141 0 1.32651e+06 613567 0 1.30121e+06 605789 0 1.2766e+06 597835 0 1.25265e+06 589729 0 1.22933e+06 581494 0 1.20662e+06 573151 0 1.18449e+06 564717 0 1.16292e+06 556209 0 1.14191e+06 547644 0 1.12141e+06 539034 0 1.10143e+06 530392 0 1.08194e+06 521730 0 1.06292e+06 513058 0 1.04437e+06 504385 0 1.02627e+06 495720 0 1.0086e+06 487071 0 991363 478444 0 974534 469846 0 958108 461282 0 942073 452758 0 926420 444278 0 911140 435845 0 896224 427464 0 881664 419138 0 867451 410870 0 853577 402661 0 840037 394515 0 826822 386432 0 813925 378415 0 801341 370465 0 789063 362583 0 777085 354769 0 765402 347025 0 754008 339350 0 742898 331746 0 732066 324211 0 721509 316747 0 711220 309352 0 701196 302028 0 691433 294772 0 681925 287586 0 672669 280467 0 663662 273416 0 654898 266432 0 646376 259513 0 638090 252659 0 630038 245869 0 622216 239142 0 614621 232477 0 607250 225872 0 600100 219327 0 593169 212839 0 586452 206409 0 579949 200034 0 573655 193712 0 567570 187444 0 561689 181227 0 556011 175060 0 550534 168941 0 545255 162869 0 540173 156842 0 535285 150859 0 530590 144919 0 526085 139019 0 521770 133158 0 517641 127335 0 513698 121548 0 509940 115795 0 506363 110075 0 502968 104386 0 499753 98726.1 0 496717 93094.4 0 493858 87488.8 0 491175 81907.7 0 488668 76349.6 0 486335 70812.6 0 484175 65295.2 0 482188 59795.6 0 480372 54312.3 0 478728 48843.5 0 477253 43387.5 0 475949 37942.7 0 474813 32507.4 0 473846 27079.8 0 473048 21658.4 0 472417 16241.4 0 471953 10827.1 0 471657 5413.91 0 471529 0 0 3.27255e+06 -1.24622e+06 0 3.30993e+06 -853280 0 3.27822e+06 -571656 0 3.2145e+06 -349782 0 3.13522e+06 -169850 0 3.04896e+06 -22491.3 0 2.96037e+06 99403.7 0 2.87219e+06 200752 0 2.78595e+06 285455 0 2.70252e+06 356469 0 2.62234e+06 416157 0 2.5456e+06 466386 0 2.47232e+06 508667 0 2.40244e+06 544222 0 2.33583e+06 574053 0 2.27233e+06 598985 0 2.21178e+06 619705 0 2.15401e+06 636785 0 2.09883e+06 650707 0 2.04609e+06 661880 0 1.99562e+06 670650 0 1.94728e+06 677313 0 1.90092e+06 682126 0 1.85643e+06 685307 0 1.81367e+06 687048 0 1.77255e+06 687515 0 1.73295e+06 686853 0 1.69478e+06 685191 0 1.65797e+06 682640 0 1.62242e+06 679301 0 1.58807e+06 675260 0 1.55485e+06 670597 0 1.5227e+06 665381 0 1.49156e+06 659674 0 1.46138e+06 653533 0 1.43211e+06 647007 0 1.40371e+06 640141 0 1.37614e+06 632976 0 1.34935e+06 625549 0 1.32331e+06 617892 0 1.29799e+06 610035 0 1.27336e+06 602006 0 1.2494e+06 593828 0 1.22607e+06 585524 0 1.20334e+06 577114 0 1.18121e+06 568617 0 1.15964e+06 560048 0 1.13862e+06 551423 0 1.11813e+06 542756 0 1.09815e+06 534059 0 1.07866e+06 525344 0 1.05965e+06 516619 0 1.04111e+06 507896 0 1.02302e+06 499181 0 1.00536e+06 490484 0 988130 481809 0 971314 473165 0 954901 464555 0 938881 455986 0 923244 447462 0 907981 438986 0 893082 430562 0 878540 422194 0 864345 413883 0 850491 405633 0 836971 397445 0 823776 389322 0 810900 381264 0 798337 373273 0 786081 365350 0 774125 357496 0 762464 349711 0 751092 341996 0 740004 334351 0 729195 326777 0 718660 319272 0 708394 311837 0 698393 304472 0 688651 297176 0 679166 289949 0 669933 282790 0 660947 275697 0 652205 268672 0 643704 261712 0 635440 254817 0 627408 247985 0 619607 241216 0 612032 234508 0 604681 227861 0 597551 221273 0 590638 214742 0 583941 208268 0 577455 201849 0 571179 195484 0 565110 189171 0 559245 182910 0 553583 176697 0 548121 170533 0 542857 164415 0 537788 158342 0 532913 152313 0 528230 146325 0 523737 140378 0 519432 134469 0 515313 128597 0 511379 122761 0 507629 116959 0 504060 111189 0 500671 105450 0 497462 99739.4 0 494430 94056.4 0 491575 88399 0 488895 82765.6 0 486389 77154.5 0 484056 71564.1 0 481896 65992.7 0 479907 60438.5 0 478089 54900 0 476440 49375.4 0 474961 43863 0 473650 38361.1 0 472507 32868.1 0 471532 27382.2 0 470723 21901.7 0 470081 16424.9 0 469606 10950.2 0 469296 5475.81 0 469152 0 0 3.31491e+06 -1.23494e+06 0 3.33614e+06 -841790 0 3.29768e+06 -558587 0 3.22943e+06 -336030 0 3.14689e+06 -156112 0 3.05812e+06 -9011.89 0 2.96756e+06 112441 0 2.8778e+06 213284 0 2.79027e+06 297449 0 2.70579e+06 367925 0 2.62473e+06 427089 0 2.54725e+06 476818 0 2.47335e+06 518624 0 2.40294e+06 553734 0 2.33587e+06 583149 0 2.27199e+06 607693 0 2.2111e+06 628052 0 2.15302e+06 644797 0 2.09759e+06 658407 0 2.04461e+06 669290 0 1.99394e+06 677791 0 1.94542e+06 684204 0 1.8989e+06 688782 0 1.85426e+06 691746 0 1.81138e+06 693284 0 1.77014e+06 693562 0 1.73043e+06 692723 0 1.69217e+06 690895 0 1.65527e+06 688189 0 1.61965e+06 684704 0 1.58523e+06 680527 0 1.55195e+06 675735 0 1.51975e+06 670398 0 1.48856e+06 664577 0 1.45833e+06 658327 0 1.42902e+06 651699 0 1.40059e+06 644737 0 1.37298e+06 637480 0 1.34616e+06 629965 0 1.3201e+06 622225 0 1.29477e+06 614289 0 1.27012e+06 606184 0 1.24614e+06 597934 0 1.2228e+06 589561 0 1.20007e+06 581085 0 1.17793e+06 572523 0 1.15636e+06 563893 0 1.13534e+06 555209 0 1.11484e+06 546484 0 1.09486e+06 537731 0 1.07538e+06 528961 0 1.05638e+06 520185 0 1.03784e+06 511410 0 1.01976e+06 502645 0 1.00211e+06 493899 0 984892 485177 0 968088 476486 0 951689 467830 0 935684 459216 0 920062 450647 0 904815 442127 0 889933 433660 0 875408 425249 0 861233 416896 0 847398 408604 0 833897 400374 0 820722 392209 0 807867 384110 0 795325 376079 0 783090 368115 0 771155 360220 0 759516 352395 0 748166 344639 0 737100 336954 0 726313 329339 0 715800 321794 0 705556 314318 0 695577 306913 0 685858 299576 0 676394 292308 0 667183 285107 0 658219 277974 0 649498 270907 0 641018 263906 0 632774 256969 0 624764 250095 0 616983 243284 0 609428 236534 0 602096 229844 0 594985 223213 0 588091 216639 0 581411 210122 0 574943 203659 0 568684 197250 0 562631 190893 0 556782 184586 0 551136 178329 0 545688 172119 0 540437 165955 0 535382 159836 0 530520 153760 0 525848 147725 0 521366 141730 0 517071 135774 0 512962 129854 0 509037 123969 0 505294 118118 0 501732 112298 0 498350 106509 0 495145 100748 0 492118 95013.4 0 489265 89304.4 0 486588 83618.9 0 484083 77955.1 0 481751 72311.5 0 479589 66686.2 0 477599 61077.7 0 475777 55484.3 0 474125 49904.1 0 472640 44335.6 0 471323 38776.9 0 470172 33226.5 0 469188 27682.6 0 468369 22143.4 0 467716 16607.3 0 467227 11072.5 0 466903 5537.3 0 466744 0 0 3.35586e+06 -1.22256e+06 0 3.36236e+06 -829602 0 3.31709e+06 -545093 0 3.24431e+06 -322008 0 3.15851e+06 -142169 0 3.06722e+06 4619.29 0 2.97469e+06 125599 0 2.88335e+06 225911 0 2.79454e+06 309519 0 2.709e+06 379444 0 2.62707e+06 438073 0 2.54886e+06 487293 0 2.47434e+06 528619 0 2.4034e+06 563279 0 2.33589e+06 592273 0 2.27161e+06 616427 0 2.21038e+06 636422 0 2.15202e+06 652829 0 2.09632e+06 666127 0 2.04312e+06 676719 0 1.99224e+06 684948 0 1.94354e+06 691110 0 1.89687e+06 695454 0 1.85208e+06 698200 0 1.80907e+06 699534 0 1.76771e+06 699622 0 1.72791e+06 698606 0 1.68955e+06 696612 0 1.65257e+06 693750 0 1.61687e+06 690119 0 1.58239e+06 685805 0 1.54904e+06 680884 0 1.51678e+06 675425 0 1.48555e+06 669490 0 1.45528e+06 663132 0 1.42593e+06 656401 0 1.39746e+06 649342 0 1.36982e+06 641993 0 1.34298e+06 634391 0 1.31689e+06 626567 0 1.29154e+06 618552 0 1.26688e+06 610371 0 1.24288e+06 602048 0 1.21953e+06 593605 0 1.19679e+06 585062 0 1.17464e+06 576436 0 1.15307e+06 567744 0 1.13204e+06 558999 0 1.11155e+06 550217 0 1.09158e+06 541408 0 1.0721e+06 532584 0 1.0531e+06 523754 0 1.03457e+06 514928 0 1.01649e+06 506113 0 998857 497317 0 981649 488547 0 964857 479809 0 948471 471107 0 932480 462447 0 916873 453833 0 901642 445269 0 886777 436759 0 872270 428304 0 858113 419908 0 844297 411574 0 830815 403303 0 817660 395096 0 804825 386955 0 792303 378882 0 780089 370878 0 768176 362942 0 756558 355076 0 745229 347279 0 734185 339553 0 723420 331897 0 712929 324311 0 702706 316795 0 692749 309349 0 683051 301971 0 673610 294662 0 664419 287420 0 655476 280246 0 646777 273137 0 638318 266094 0 630094 259115 0 622104 252200 0 614342 245346 0 606807 238554 0 599495 231821 0 592402 225147 0 585526 218530 0 578863 211969 0 572412 205463 0 566170 199009 0 560133 192608 0 554300 186256 0 548668 179954 0 543235 173698 0 537998 167489 0 532955 161323 0 528105 155201 0 523445 149119 0 518973 143077 0 514688 137073 0 510588 131105 0 506671 125171 0 502936 119271 0 499380 113402 0 496003 107562 0 492804 101751 0 489780 95965.6 0 486930 90205.1 0 484254 84467.6 0 481751 78751.3 0 479418 73054.7 0 477256 67375.9 0 475262 61713.3 0 473438 56065.1 0 471780 50429.7 0 470290 44805.3 0 468966 39190.2 0 467807 33582.7 0 466814 27981.1 0 465984 22383.6 0 465319 16788.4 0 464818 11193.9 0 464480 5598.38 0 464305 0 0 3.39563e+06 -1.20918e+06 0 3.38853e+06 -816737 0 3.33644e+06 -531184 0 3.25914e+06 -307717 0 3.17006e+06 -128022 0 3.07625e+06 18401.4 0 2.98175e+06 138875 0 2.88884e+06 238631 0 2.79875e+06 321665 0 2.71217e+06 391025 0 2.62937e+06 449109 0 2.55043e+06 497811 0 2.47529e+06 538651 0 2.40383e+06 572855 0 2.33587e+06 601426 0 2.27121e+06 625186 0 2.20964e+06 644815 0 2.15098e+06 660883 0 2.09503e+06 673865 0 2.0416e+06 684164 0 1.99053e+06 692123 0 1.94165e+06 698031 0 1.89481e+06 702141 0 1.84989e+06 704668 0 1.80675e+06 705798 0 1.76528e+06 705696 0 1.72537e+06 704502 0 1.68692e+06 702341 0 1.64986e+06 699324 0 1.61408e+06 695546 0 1.57953e+06 691094 0 1.54613e+06 686044 0 1.51381e+06 680464 0 1.48253e+06 674413 0 1.45221e+06 667947 0 1.42283e+06 661114 0 1.39432e+06 653957 0 1.36665e+06 646515 0 1.33978e+06 638825 0 1.31368e+06 630918 0 1.2883e+06 622823 0 1.26362e+06 614565 0 1.23962e+06 606169 0 1.21625e+06 597656 0 1.1935e+06 589046 0 1.17135e+06 580355 0 1.14977e+06 571600 0 1.12875e+06 562796 0 1.10826e+06 553955 0 1.08828e+06 545090 0 1.06881e+06 536211 0 1.04981e+06 527327 0 1.03129e+06 518449 0 1.01322e+06 509584 0 995597 500739 0 978400 491920 0 961621 483134 0 945248 474386 0 929270 465680 0 913679 457021 0 898463 448412 0 883615 439857 0 869125 431359 0 854986 422921 0 841188 414544 0 827725 406230 0 814589 397981 0 801774 389799 0 789273 381684 0 777079 373638 0 765187 365661 0 753590 357754 0 742282 349917 0 731259 342149 0 720516 334452 0 710046 326826 0 699845 319268 0 689909 311781 0 680233 304362 0 670812 297011 0 661643 289728 0 652721 282512 0 644042 275362 0 635603 268278 0 627400 261257 0 619429 254299 0 611687 247403 0 604170 240568 0 596876 233793 0 589802 227075 0 582943 220415 0 576298 213811 0 569864 207260 0 563638 200763 0 557617 194317 0 551798 187920 0 546181 181573 0 540761 175272 0 535537 169017 0 530507 162805 0 525669 156636 0 521020 150507 0 516558 144418 0 512283 138366 0 508191 132350 0 504282 126368 0 500554 120418 0 497004 114500 0 493633 108610 0 490437 102749 0 487417 96912.8 0 484570 91101 0 481895 85311.7 0 479392 79543.2 0 477059 73793.8 0 474895 68061.7 0 472899 62345.2 0 471070 56642.6 0 469408 50952.2 0 467912 45272.3 0 466580 39601 0 465413 33936.8 0 464410 28277.7 0 463570 22622.2 0 462893 16968.4 0 462378 11314.6 0 462025 5659.06 0 461834 0 0 3.43438e+06 -1.19489e+06 0 3.41461e+06 -803219 0 3.35572e+06 -516869 0 3.27391e+06 -293157 0 3.18153e+06 -113675 0 3.08521e+06 32333.5 0 2.98875e+06 152268 0 2.89427e+06 251444 0 2.80291e+06 333885 0 2.71528e+06 402666 0 2.63161e+06 460195 0 2.55195e+06 508372 0 2.47621e+06 548719 0 2.40423e+06 582464 0 2.33582e+06 610607 0 2.27077e+06 633969 0 2.20888e+06 653230 0 2.14993e+06 668957 0 2.09372e+06 681622 0 2.04007e+06 691628 0 1.98879e+06 699313 0 1.93974e+06 704969 0 1.89274e+06 708843 0 1.84768e+06 711150 0 1.80441e+06 712076 0 1.76283e+06 711782 0 1.72282e+06 710410 0 1.68428e+06 708083 0 1.64713e+06 704909 0 1.61129e+06 700985 0 1.57667e+06 696395 0 1.54321e+06 691215 0 1.51084e+06 685513 0 1.4795e+06 679347 0 1.44915e+06 672772 0 1.41972e+06 665835 0 1.39118e+06 658581 0 1.36348e+06 651047 0 1.33659e+06 643268 0 1.31046e+06 635277 0 1.28506e+06 627101 0 1.26037e+06 618767 0 1.23635e+06 610298 0 1.21297e+06 601715 0 1.19022e+06 593036 0 1.16806e+06 584280 0 1.14648e+06 575463 0 1.12545e+06 566598 0 1.10496e+06 557698 0 1.08498e+06 548776 0 1.06551e+06 539842 0 1.04653e+06 530905 0 1.02801e+06 521974 0 1.00995e+06 513058 0 992333 504163 0 975146 495295 0 958379 486461 0 942018 477666 0 926055 468914 0 910478 460209 0 895278 451556 0 880446 442957 0 865973 434415 0 851851 425933 0 838072 417512 0 824627 409156 0 811511 400865 0 798715 392641 0 786234 384484 0 774060 376397 0 762188 368378 0 750612 360429 0 739325 352551 0 728323 344742 0 717600 337004 0 707152 329336 0 696972 321737 0 687057 314208 0 677401 306748 0 668001 299356 0 658853 292032 0 649951 284774 0 641292 277583 0 632873 270456 0 624690 263393 0 616738 256393 0 609015 249454 0 601517 242577 0 594241 235758 0 587185 228998 0 580344 222294 0 573715 215646 0 567297 209052 0 561087 202510 0 555081 196019 0 549278 189578 0 543674 183186 0 538267 176839 0 533056 170538 0 528038 164281 0 523211 158065 0 518573 151890 0 514121 145753 0 509855 139653 0 505771 133589 0 501870 127559 0 498148 121560 0 494604 115593 0 491237 109654 0 488046 103742 0 485028 97855.1 0 482183 91992.3 0 479510 86151.4 0 477007 80330.8 0 474673 74528.8 0 472507 68743.6 0 470508 62973.5 0 468675 57216.7 0 467008 51471.6 0 465505 45736.4 0 464166 40009.3 0 462990 34288.6 0 461977 28572.5 0 461125 22859.3 0 460436 17147.2 0 459907 11434.5 0 459539 5719.34 0 459332 0 0 3.47224e+06 -1.17977e+06 0 3.44058e+06 -789070 0 3.37493e+06 -502154 0 3.2886e+06 -278330 0 3.19294e+06 -99128.1 0 3.09411e+06 46414.5 0 2.99569e+06 165778 0 2.89963e+06 264349 0 2.80701e+06 346180 0 2.71834e+06 414368 0 2.63382e+06 471331 0 2.55343e+06 518975 0 2.47708e+06 558823 0 2.40459e+06 592104 0 2.33574e+06 619815 0 2.27031e+06 642777 0 2.20809e+06 661668 0 2.14885e+06 677050 0 2.09238e+06 689398 0 2.03851e+06 699108 0 1.98704e+06 706520 0 1.93781e+06 711921 0 1.89066e+06 715559 0 1.84546e+06 717646 0 1.80207e+06 718367 0 1.76037e+06 717882 0 1.72026e+06 716331 0 1.68163e+06 713837 0 1.6444e+06 710506 0 1.60848e+06 706435 0 1.5738e+06 701707 0 1.54028e+06 696398 0 1.50785e+06 690572 0 1.47647e+06 684291 0 1.44607e+06 677607 0 1.41661e+06 670567 0 1.38804e+06 663214 0 1.36031e+06 655587 0 1.33339e+06 647720 0 1.30723e+06 639644 0 1.28182e+06 631388 0 1.25711e+06 622977 0 1.23307e+06 614434 0 1.20969e+06 605780 0 1.18692e+06 597033 0 1.16476e+06 588212 0 1.14317e+06 579331 0 1.12215e+06 570405 0 1.10165e+06 561447 0 1.08168e+06 552467 0 1.06221e+06 543477 0 1.04323e+06 534486 0 1.02472e+06 525503 0 1.00667e+06 516535 0 989063 507590 0 971887 498673 0 955131 489791 0 938783 480948 0 922833 472149 0 907271 463399 0 892086 454700 0 877270 446056 0 862814 437470 0 848709 428944 0 834948 420481 0 821522 412081 0 808424 403748 0 795648 395481 0 783186 387283 0 771032 379153 0 759180 371092 0 747624 363102 0 736358 355182 0 725376 347332 0 714674 339552 0 704246 331843 0 694087 324203 0 684192 316632 0 674557 309131 0 665178 301697 0 656049 294331 0 647168 287031 0 638529 279798 0 630129 272629 0 621965 265524 0 614032 258481 0 606328 251500 0 598848 244580 0 591590 237718 0 584551 230915 0 577727 224168 0 571115 217476 0 564713 210837 0 558518 204251 0 552527 197716 0 546737 191230 0 541147 184793 0 535754 178401 0 530555 172054 0 525548 165750 0 520732 159488 0 516104 153266 0 511662 147082 0 507404 140935 0 503329 134823 0 499434 128744 0 495718 122697 0 492180 116680 0 488818 110692 0 485630 104730 0 482615 98792.6 0 479772 92878.8 0 477099 86986.6 0 474595 81114.2 0 472260 75259.8 0 470092 69421.7 0 468089 63598.2 0 466252 57787.6 0 464579 51988 0 463069 46197.8 0 461723 40415.1 0 460538 34638.3 0 459514 28865.5 0 458651 23094.9 0 457949 17324.9 0 457406 11553.6 0 457023 5779.21 0 456799 0 0 3.50932e+06 -1.16387e+06 0 3.4664e+06 -774312 0 3.39404e+06 -487048 0 3.30322e+06 -263238 0 3.20427e+06 -84384.4 0 3.10294e+06 60643.3 0 3.00256e+06 179403 0 2.90494e+06 277344 0 2.81106e+06 358548 0 2.72135e+06 426130 0 2.63597e+06 482518 0 2.55487e+06 529620 0 2.47792e+06 568964 0 2.40491e+06 601774 0 2.33562e+06 629051 0 2.26982e+06 651610 0 2.20727e+06 670127 0 2.14774e+06 685164 0 2.09103e+06 697192 0 2.03693e+06 706606 0 1.98527e+06 713743 0 1.93587e+06 718889 0 1.88856e+06 722290 0 1.84322e+06 724157 0 1.79971e+06 724672 0 1.7579e+06 723996 0 1.71769e+06 722265 0 1.67898e+06 719603 0 1.64166e+06 716116 0 1.60567e+06 711897 0 1.57092e+06 707031 0 1.53734e+06 701591 0 1.50486e+06 695643 0 1.47343e+06 689246 0 1.44299e+06 682452 0 1.41349e+06 675308 0 1.38488e+06 667857 0 1.35713e+06 660136 0 1.33018e+06 652180 0 1.30401e+06 644020 0 1.27857e+06 635683 0 1.25385e+06 627194 0 1.2298e+06 618577 0 1.2064e+06 609852 0 1.18363e+06 601037 0 1.16146e+06 592150 0 1.13987e+06 583206 0 1.11884e+06 574218 0 1.09835e+06 565200 0 1.07838e+06 556163 0 1.05891e+06 547117 0 1.03993e+06 538072 0 1.02143e+06 529035 0 1.00339e+06 520016 0 985788 511019 0 968623 502053 0 951878 493122 0 935543 484232 0 919606 475386 0 904058 466589 0 888888 457845 0 874088 449156 0 859648 440525 0 845560 431956 0 831816 423448 0 818408 415006 0 805329 406629 0 792572 398320 0 780129 390079 0 767995 381907 0 756162 373804 0 744626 365772 0 733380 357810 0 722419 349918 0 711737 342097 0 701329 334346 0 691190 326664 0 681316 319052 0 671701 311508 0 662341 304033 0 653233 296625 0 644371 289284 0 635751 282008 0 627371 274797 0 619225 267649 0 611311 260564 0 603625 253541 0 596163 246577 0 588923 239673 0 581900 232826 0 575092 226035 0 568497 219299 0 562110 212617 0 555930 205987 0 549953 199407 0 544178 192877 0 538601 186393 0 533220 179956 0 528033 173564 0 523038 167214 0 518232 160905 0 513614 154636 0 509181 148405 0 504931 142211 0 500863 136051 0 496975 129924 0 493266 123828 0 489732 117762 0 486374 111724 0 483189 105713 0 480177 99725.3 0 477335 93760.8 0 474662 87817.4 0 472158 81893.3 0 469821 75986.7 0 467650 70096 0 465644 64219.4 0 463802 58355.1 0 462123 52501.4 0 460606 46656.4 0 459251 40818.5 0 458056 34985.8 0 457022 29156.6 0 456148 23329.1 0 455432 17501.4 0 454875 11671.9 0 454476 5838.7 0 454235 0 0 3.5457e+06 -1.14724e+06 0 3.49207e+06 -758965 0 3.41307e+06 -471559 0 3.31776e+06 -247882 0 3.21553e+06 -69445.9 0 3.11169e+06 75018.8 0 3.00936e+06 193142 0 2.91018e+06 290430 0 2.81504e+06 370989 0 2.72431e+06 437952 0 2.63808e+06 493753 0 2.55627e+06 540307 0 2.47872e+06 579139 0 2.4052e+06 611476 0 2.33548e+06 638313 0 2.2693e+06 660466 0 2.20642e+06 678608 0 2.14661e+06 693298 0 2.08965e+06 705004 0 2.03534e+06 714121 0 1.98348e+06 720982 0 1.93391e+06 725873 0 1.88645e+06 729036 0 1.84097e+06 730681 0 1.79734e+06 730990 0 1.75542e+06 730121 0 1.71511e+06 728212 0 1.67631e+06 725381 0 1.63891e+06 721737 0 1.60285e+06 717370 0 1.56803e+06 712365 0 1.53439e+06 706795 0 1.50187e+06 700724 0 1.47039e+06 694210 0 1.43991e+06 687307 0 1.41037e+06 680059 0 1.38173e+06 672509 0 1.35394e+06 664695 0 1.32697e+06 656650 0 1.30077e+06 648404 0 1.27532e+06 639986 0 1.25058e+06 631419 0 1.22652e+06 622728 0 1.20311e+06 613931 0 1.18033e+06 605048 0 1.15815e+06 596094 0 1.13656e+06 587086 0 1.11553e+06 578037 0 1.09503e+06 568959 0 1.07507e+06 559864 0 1.0556e+06 550761 0 1.03663e+06 541661 0 1.01814e+06 532571 0 1.0001e+06 523499 0 982509 514452 0 965353 505436 0 948620 496456 0 932296 487517 0 916373 478624 0 900838 469781 0 885684 460990 0 870899 452256 0 856475 443581 0 842404 434967 0 828677 426416 0 815287 417929 0 802226 409509 0 789487 401157 0 777063 392873 0 764948 384659 0 753135 376514 0 741618 368440 0 730392 360435 0 719451 352502 0 708788 344638 0 698400 336845 0 688281 329122 0 678427 321468 0 668832 313882 0 659492 306365 0 650402 298915 0 641560 291531 0 632959 284213 0 624598 276960 0 616471 269770 0 608575 262642 0 600906 255576 0 593462 248569 0 586238 241621 0 579232 234731 0 572441 227897 0 565861 221117 0 559489 214391 0 553324 207716 0 547361 201092 0 541599 194517 0 536035 187988 0 530666 181506 0 525491 175068 0 520507 168672 0 515711 162317 0 511102 156001 0 506678 149723 0 502436 143481 0 498375 137274 0 494494 131098 0 490789 124954 0 487261 118840 0 483906 112752 0 480724 106691 0 477713 100653 0 474872 94638.2 0 472200 88643.8 0 469695 82668.2 0 467355 76709.7 0 465181 70766.6 0 463171 64837.1 0 461324 58919.4 0 459639 53011.7 0 458114 47112.3 0 456751 41219.4 0 455547 35331.2 0 454501 29445.9 0 453615 23561.7 0 452885 17676.8 0 452314 11789.5 0 451899 5897.79 0 451640 0 0 3.58144e+06 -1.12992e+06 0 3.51756e+06 -743051 0 3.43199e+06 -455692 0 3.33221e+06 -232265 0 3.2267e+06 -54314.4 0 3.12037e+06 89539.7 0 3.01609e+06 206995 0 2.91537e+06 303605 0 2.81897e+06 383501 0 2.72722e+06 449832 0 2.64014e+06 505037 0 2.55763e+06 551035 0 2.47948e+06 589350 0 2.40546e+06 621208 0 2.3353e+06 647602 0 2.26875e+06 669346 0 2.20555e+06 687110 0 2.14546e+06 701451 0 2.08826e+06 712835 0 2.03373e+06 721653 0 1.98168e+06 728237 0 1.93193e+06 732871 0 1.88433e+06 735795 0 1.83871e+06 737219 0 1.79495e+06 737322 0 1.75293e+06 736260 0 1.71252e+06 734171 0 1.67363e+06 731172 0 1.63616e+06 727369 0 1.60002e+06 722855 0 1.56514e+06 717711 0 1.53144e+06 712010 0 1.49886e+06 705815 0 1.46734e+06 699185 0 1.43682e+06 692171 0 1.40724e+06 684819 0 1.37857e+06 677171 0 1.35075e+06 669262 0 1.32375e+06 661127 0 1.29754e+06 652796 0 1.27206e+06 644296 0 1.24731e+06 635652 0 1.22323e+06 626886 0 1.19981e+06 618017 0 1.17702e+06 609064 0 1.15484e+06 600044 0 1.13324e+06 590972 0 1.11221e+06 581861 0 1.09172e+06 572723 0 1.07175e+06 563569 0 1.05229e+06 554410 0 1.03333e+06 545254 0 1.01483e+06 536111 0 996805 526986 0 979224 517888 0 962078 508821 0 945356 499792 0 929044 490804 0 913134 481864 0 897613 472973 0 882472 464137 0 867703 455357 0 853295 446636 0 839240 437977 0 825530 429382 0 812157 420852 0 799114 412388 0 786394 403993 0 773988 395666 0 761892 387409 0 750098 379221 0 738601 371104 0 727394 363058 0 716472 355082 0 705829 347176 0 695460 339341 0 685361 331576 0 675526 323879 0 665950 316252 0 656629 308692 0 647559 301200 0 638735 293774 0 630154 286414 0 621810 279118 0 613701 271885 0 605823 264714 0 598172 257605 0 590745 250556 0 583538 243