<?xml version="1.0"?> 
<VTKFile type="StructuredGrid" version="0.1"> 
<StructuredGrid WholeExtent="0 127 0 127 0 0"> 
<Piece Extent="0 127 0 127 0 0"> 
<PointData>
<DataArray type="Float32" Name="E" format="ascii" NumberOfComponents="3"> 
335365 6.44292e+06 0 315647 6.05104e+06 0 304488 5.82456e+06 0 296327 5.65629e+06 0 289788 5.51963e+06 0 284433 5.40607e+06 0 279892 5.30842e+06 0 276001 5.2235e+06 0 272611 5.14838e+06 0 269635 5.08139e+06 0 266999 5.02107e+06 0 264650 4.96641e+06 0 262547 4.91657e+06 0 260655 4.8709e+06 0 258948 4.82886e+06 0 257403 4.79001e+06 0 256002 4.75399e+06 0 254728 4.72049e+06 0 253569 4.68925e+06 0 252514 4.66004e+06 0 251551 4.63266e+06 0 250673 4.60696e+06 0 249872 4.58278e+06 0 249143 4.56e+06 0 248477 4.53849e+06 0 247872 4.51816e+06 0 247322 4.49892e+06 0 246823 4.48068e+06 0 246372 4.46338e+06 0 245964 4.44695e+06 0 245598 4.43133e+06 0 245271 4.41646e+06 0 244979 4.4023e+06 0 244721 4.3888e+06 0 244495 4.37593e+06 0 244299 4.36365e+06 0 244131 4.35192e+06 0 243990 4.34071e+06 0 243875 4.33e+06 0 243783 4.31975e+06 0 243714 4.30995e+06 0 243667 4.30057e+06 0 243641 4.2916e+06 0 243635 4.28301e+06 0 243648 4.27479e+06 0 243679 4.26692e+06 0 243727 4.25939e+06 0 243792 4.25218e+06 0 243874 4.24528e+06 0 243971 4.23869e+06 0 244084 4.23238e+06 0 244211 4.22636e+06 0 244353 4.2206e+06 0 244509 4.21511e+06 0 244679 4.20988e+06 0 244862 4.2049e+06 0 245058 4.20017e+06 0 245267 4.19567e+06 0 245489 4.19141e+06 0 245723 4.18738e+06 0 245970 4.18358e+06 0 246229 4.18e+06 0 246501 4.17664e+06 0 246785 4.17351e+06 0 247081 4.1706e+06 0 247390 4.1679e+06 0 247711 4.16542e+06 0 248044 4.16316e+06 0 248390 4.16113e+06 0 248749 4.15931e+06 0 249121 4.15771e+06 0 249506 4.15634e+06 0 249904 4.15519e+06 0 250315 4.15427e+06 0 250741 4.15359e+06 0 251181 4.15315e+06 0 251635 4.15295e+06 0 252105 4.153e+06 0 252590 4.1533e+06 0 253091 4.15386e+06 0 253608 4.1547e+06 0 254143 4.15581e+06 0 254695 4.1572e+06 0 255266 4.15889e+06 0 255856 4.16089e+06 0 256467 4.16321e+06 0 257098 4.16585e+06 0 257751 4.16884e+06 0 258426 4.17219e+06 0 259126 4.17592e+06 0 259851 4.18003e+06 0 260603 4.18456e+06 0 261383 4.18952e+06 0 262192 4.19494e+06 0 263032 4.20083e+06 0 263905 4.20723e+06 0 264814 4.21416e+06 0 265759 4.22166e+06 0 266744 4.22976e+06 0 267771 4.23849e+06 0 268843 4.24791e+06 0 269963 4.25805e+06 0 271135 4.26897e+06 0 272362 4.28072e+06 0 273649 4.29336e+06 0 275000 4.30697e+06 0 276421 4.32161e+06 0 277917 4.33739e+06 0 279496 4.35439e+06 0 281164 4.37274e+06 0 282932 4.39255e+06 0 284807 4.41397e+06 0 286803 4.43717e+06 0 288932 4.46235e+06 0 291210 4.48975e+06 0 293656 4.51963e+06 0 296291 4.55232e+06 0 299144 4.58823e+06 0 302247 4.62785e+06 0 305642 4.6718e+06 0 309385 4.72091e+06 0 313544 4.77618e+06 0 318225 4.83921e+06 0 323555 4.91187e+06 0 329784 4.99791e+06 0 337238 5.10219e+06 0 346827 5.23836e+06 0 362150 5.46053e+06 0 42671.3 6.34344e+06 0 147439 6.045e+06 0 183255 5.82697e+06 0 200925 5.65905e+06 0 211162 5.52332e+06 0 217728 5.40937e+06 0 222161 5.31172e+06 0 225280 5.22649e+06 0 227535 5.1512e+06 0 229200 5.08398e+06 0 230449 5.02348e+06 0 231400 4.96864e+06 0 232132 4.91864e+06 0 232703 4.87282e+06 0 233151 4.83064e+06 0 233509 4.79167e+06 0 233798 4.75554e+06 0 234035 4.72193e+06 0 234233 4.6906e+06 0 234403 4.6613e+06 0 234551 4.63384e+06 0 234685 4.60806e+06 0 234808 4.58382e+06 0 234926 4.56096e+06 0 235040 4.5394e+06 0 235153 4.51901e+06 0 235267 4.49972e+06 0 235384 4.48143e+06 0 235505 4.46408e+06 0 235631 4.44761e+06 0 235762 4.43194e+06 0 235900 4.41704e+06 0 236044 4.40284e+06 0 236196 4.38931e+06 0 236356 4.3764e+06 0 236523 4.36409e+06 0 236698 4.35233e+06 0 236881 4.34109e+06 0 237073 4.33035e+06 0 237273 4.32008e+06 0 237481 4.31025e+06 0 237698 4.30085e+06 0 237923 4.29186e+06 0 238157 4.28324e+06 0 238400 4.275e+06 0 238651 4.26711e+06 0 238912 4.25956e+06 0 239181 4.25233e+06 0 239459 4.24542e+06 0 239745 4.2388e+06 0 240041 4.23248e+06 0 240346 4.22643e+06 0 240661 4.22066e+06 0 240984 4.21516e+06 0 241317 4.20991e+06 0 241660 4.20491e+06 0 242013 4.20016e+06 0 242375 4.19565e+06 0 242748 4.19137e+06 0 243131 4.18732e+06 0 243524 4.1835e+06 0 243929 4.17991e+06 0 244345 4.17654e+06 0 244772 4.17339e+06 0 245211 4.17046e+06 0 245662 4.16775e+06 0 246125 4.16525e+06 0 246602 4.16298e+06 0 247091 4.16092e+06 0 247595 4.15908e+06 0 248113 4.15747e+06 0 248646 4.15608e+06 0 249194 4.15491e+06 0 249758 4.15398e+06 0 250339 4.15328e+06 0 250938 4.15281e+06 0 251555 4.15259e+06 0 252191 4.15262e+06 0 252847 4.1529e+06 0 253524 4.15344e+06 0 254222 4.15424e+06 0 254944 4.15533e+06 0 255690 4.1567e+06 0 256462 4.15836e+06 0 257260 4.16033e+06 0 258086 4.16262e+06 0 258943 4.16523e+06 0 259831 4.16819e+06 0 260753 4.1715e+06 0 261710 4.17519e+06 0 262705 4.17927e+06 0 263739 4.18375e+06 0 264817 4.18867e+06 0 265940 4.19404e+06 0 267111 4.19988e+06 0 268335 4.20623e+06 0 269614 4.21311e+06 0 270952 4.22054e+06 0 272355 4.22858e+06 0 273827 4.23725e+06 0 275374 4.24659e+06 0 277002 4.25665e+06 0 278718 4.26748e+06 0 280529 4.27914e+06 0 282445 4.29168e+06 0 284476 4.30518e+06 0 286632 4.31971e+06 0 288927 4.33536e+06 0 291375 4.35222e+06 0 293995 4.3704e+06 0 296806 4.39004e+06 0 299833 4.41127e+06 0 303103 4.43425e+06 0 306652 4.45919e+06 0 310520 4.48631e+06 0 314759 4.51587e+06 0 319433 4.54819e+06 0 324624 4.58367e+06 0 330439 4.62278e+06 0 337019 4.66612e+06 0 344560 4.71445e+06 0 353345 4.7688e+06 0 363789 4.83049e+06 0 376594 4.90153e+06 0 392933 4.98469e+06 0 415382 5.08489e+06 0 450294 5.21013e+06 0 521951 5.37136e+06 0 -140874 6.23339e+06 0 -4482.83 6.00365e+06 0 66334.9 5.80852e+06 0 106898 5.64968e+06 0 133052 5.51795e+06 0 151167 5.40631e+06 0 164423 5.30992e+06 0 174483 5.22552e+06 0 182351 5.15074e+06 0 188645 5.08387e+06 0 193778 5.0236e+06 0 198031 4.96891e+06 0 201604 4.91901e+06 0 204642 4.87326e+06 0 207253 4.83112e+06 0 209520 4.79218e+06 0 211506 4.75606e+06 0 213259 4.72245e+06 0 214820 4.69111e+06 0 216220 4.6618e+06 0 217484 4.63433e+06 0 218634 4.60854e+06 0 219685 4.58427e+06 0 220653 4.56141e+06 0 221550 4.53982e+06 0 222384 4.51941e+06 0 223166 4.5001e+06 0 223901 4.48179e+06 0 224597 4.46442e+06 0 225258 4.44793e+06 0 225889 4.43224e+06 0 226494 4.41732e+06 0 227077 4.4031e+06 0 227640 4.38955e+06 0 228186 4.37663e+06 0 228718 4.3643e+06 0 229237 4.35252e+06 0 229745 4.34126e+06 0 230245 4.33051e+06 0 230738 4.32022e+06 0 231224 4.31038e+06 0 231706 4.30096e+06 0 232183 4.29195e+06 0 232659 4.28332e+06 0 233132 4.27506e+06 0 233605 4.26716e+06 0 234077 4.25959e+06 0 234550 4.25235e+06 0 235025 4.24542e+06 0 235502 4.23879e+06 0 235981 4.23245e+06 0 236464 4.2264e+06 0 236951 4.22061e+06 0 237443 4.21509e+06 0 237940 4.20983e+06 0 238442 4.20482e+06 0 238951 4.20005e+06 0 239467 4.19552e+06 0 239991 4.19123e+06 0 240523 4.18717e+06 0 241063 4.18334e+06 0 241613 4.17973e+06 0 242172 4.17634e+06 0 242742 4.17317e+06 0 243323 4.17023e+06 0 243917 4.1675e+06 0 244522 4.16499e+06 0 245142 4.1627e+06 0 245775 4.16062e+06 0 246423 4.15877e+06 0 247087 4.15713e+06 0 247767 4.15572e+06 0 248465 4.15454e+06 0 249182 4.15358e+06 0 249918 4.15286e+06 0 250675 4.15237e+06 0 251453 4.15212e+06 0 252255 4.15212e+06 0 253081 4.15238e+06 0 253932 4.15289e+06 0 254811 4.15367e+06 0 255719 4.15473e+06 0 256657 4.15606e+06 0 257628 4.1577e+06 0 258633 4.15963e+06 0 259675 4.16188e+06 0 260755 4.16446e+06 0 261877 4.16737e+06 0 263042 4.17065e+06 0 264255 4.17429e+06 0 265517 4.17832e+06 0 266833 4.18275e+06 0 268205 4.18762e+06 0 269639 4.19293e+06 0 271139 4.19871e+06 0 272708 4.20499e+06 0 274354 4.2118e+06 0 276082 4.21916e+06 0 277898 4.22711e+06 0 279811 4.2357e+06 0 281827 4.24494e+06 0 283956 4.2549e+06 0 286209 4.26563e+06 0 288597 4.27716e+06 0 291133 4.28957e+06 0 293833 4.30293e+06 0 296713 4.3173e+06 0 299794 4.33277e+06 0 303098 4.34944e+06 0 306651 4.36741e+06 0 310486 4.38681e+06 0 314640 4.40777e+06 0 319158 4.43045e+06 0 324092 4.45504e+06 0 329510 4.48175e+06 0 335493 4.51085e+06 0 342145 4.54263e+06 0 349595 4.57746e+06 0 358019 4.61579e+06 0 367646 4.65816e+06 0 378796 4.70529e+06 0 391924 4.75805e+06 0 407718 4.81764e+06 0 427259 4.88564e+06 0 452423 4.96424e+06 0 486698 5.05641e+06 0 537623 5.16553e+06 0 620320 5.29004e+06 0 -277252 6.12504e+06 0 -132414 5.94287e+06 0 -41222.9 5.77443e+06 0 17251.9 5.62892e+06 0 57171.6 5.50437e+06 0 85878.8 5.39695e+06 0 107436 5.30323e+06 0 124152 5.2206e+06 0 137460 5.14705e+06 0 148276 5.08106e+06 0 157223 5.02143e+06 0 164732 4.96722e+06 0 171115 4.91769e+06 0 176599 4.87222e+06 0 181358 4.8303e+06 0 185524 4.79153e+06 0 189199 4.75554e+06 0 192464 4.72205e+06 0 195385 4.69079e+06 0 198013 4.66155e+06 0 200391 4.63414e+06 0 202556 4.60839e+06 0 204535 4.58416e+06 0 206354 4.56132e+06 0 208033 4.53975e+06 0 209590 4.51936e+06 0 211039 4.50006e+06 0 212393 4.48176e+06 0 213664 4.4644e+06 0 214861 4.44791e+06 0 215993 4.43223e+06 0 217066 4.4173e+06 0 218087 4.40309e+06 0 219062 4.38954e+06 0 219996 4.37661e+06 0 220892 4.36427e+06 0 221756 4.35249e+06 0 222591 4.34123e+06 0 223400 4.33047e+06 0 224185 4.32017e+06 0 224950 4.31032e+06 0 225696 4.3009e+06 0 226427 4.29188e+06 0 227144 4.28325e+06 0 227848 4.27498e+06 0 228542 4.26706e+06 0 229227 4.25949e+06 0 229905 4.25224e+06 0 230576 4.2453e+06 0 231243 4.23866e+06 0 231906 4.23231e+06 0 232567 4.22624e+06 0 233227 4.22045e+06 0 233887 4.21491e+06 0 234548 4.20964e+06 0 235210 4.20462e+06 0 235876 4.19984e+06 0 236545 4.1953e+06 0 237219 4.19099e+06 0 237899 4.18692e+06 0 238586 4.18307e+06 0 239281 4.17945e+06 0 239984 4.17605e+06 0 240697 4.17287e+06 0 241420 4.1699e+06 0 242155 4.16716e+06 0 242903 4.16463e+06 0 243664 4.16232e+06 0 244441 4.16023e+06 0 245233 4.15835e+06 0 246042 4.1567e+06 0 246869 4.15527e+06 0 247716 4.15406e+06 0 248584 4.15308e+06 0 249475 4.15233e+06 0 250389 4.15182e+06 0 251328 4.15155e+06 0 252294 4.15152e+06 0 253289 4.15175e+06 0 254315 4.15223e+06 0 255373 4.15298e+06 0 256465 4.154e+06 0 257595 4.1553e+06 0 258763 4.1569e+06 0 259973 4.15879e+06 0 261228 4.161e+06 0 262530 4.16353e+06 0 263883 4.1664e+06 0 265291 4.16963e+06 0 266756 4.17322e+06 0 268283 4.17719e+06 0 269876 4.18157e+06 0 271541 4.18637e+06 0 273282 4.19161e+06 0 275106 4.19732e+06 0 277018 4.20352e+06 0 279027 4.21024e+06 0 281138 4.21752e+06 0 283362 4.22537e+06 0 285708 4.23385e+06 0 288187 4.24298e+06 0 290810 4.25282e+06 0 293591 4.2634e+06 0 296546 4.27479e+06 0 299692 4.28704e+06 0 303048 4.30022e+06 0 306638 4.3144e+06 0 310488 4.32965e+06 0 314628 4.34608e+06 0 319094 4.36378e+06 0 323927 4.38288e+06 0 329178 4.40349e+06 0 334906 4.42579e+06 0 341183 4.44993e+06 0 348097 4.47613e+06 0 355757 4.50462e+06 0 364302 4.5357e+06 0 373905 4.56968e+06 0 384796 4.60698e+06 0 397280 4.64809e+06 0 411772 4.69361e+06 0 428861 4.74429e+06 0 449408 4.80108e+06 0 474727 4.86514e+06 0 506949 4.9379e+06 0 549626 5.02077e+06 0 608950 5.11416e+06 0 693514 5.21414e+06 0 -384303 6.02006e+06 0 -239219 5.87315e+06 0 -137232 5.72945e+06 0 -66106.4 5.59897e+06 0 -15073.2 5.48352e+06 0 22828.3 5.38184e+06 0 51896 5.29192e+06 0 74795.4 5.21191e+06 0 93244.5 5.14023e+06 0 108388 5.07561e+06 0 121016 5.01702e+06 0 131689 4.9636e+06 0 140815 4.91469e+06 0 148698 4.8697e+06 0 155570 4.82818e+06 0 161607 4.78972e+06 0 166952 4.75399e+06 0 171713 4.72071e+06 0 175981 4.68963e+06 0 179828 4.66054e+06 0 183314 4.63325e+06 0 186488 4.60761e+06 0 189390 4.58346e+06 0 192057 4.5607e+06 0 194515 4.5392e+06 0 196791 4.51886e+06 0 198907 4.4996e+06 0 200879 4.48135e+06 0 202724 4.46402e+06 0 204456 4.44756e+06 0 206087 4.4319e+06 0 207628 4.41699e+06 0 209087 4.40279e+06 0 210473 4.38926e+06 0 211794 4.37634e+06 0 213056 4.36402e+06 0 214264 4.35224e+06 0 215425 4.34099e+06 0 216542 4.33023e+06 0 217620 4.31994e+06 0 218664 4.31009e+06 0 219675 4.30067e+06 0 220659 4.29165e+06 0 221617 4.28301e+06 0 222552 4.27474e+06 0 223467 4.26683e+06 0 224365 4.25925e+06 0 225247 4.25199e+06 0 226115 4.24504e+06 0 226972 4.2384e+06 0 227819 4.23205e+06 0 228658 4.22597e+06 0 229491 4.22017e+06 0 230318 4.21463e+06 0 231143 4.20934e+06 0 231965 4.20431e+06 0 232787 4.19952e+06 0 233609 4.19497e+06 0 234434 4.19066e+06 0 235262 4.18657e+06 0 236095 4.18271e+06 0 236934 4.17907e+06 0 237781 4.17566e+06 0 238636 4.17246e+06 0 239501 4.16948e+06 0 240378 4.16672e+06 0 241267 4.16418e+06 0 242170 4.16185e+06 0 243088 4.15974e+06 0 244024 4.15784e+06 0 244978 4.15617e+06 0 245952 4.15471e+06 0 246947 4.15348e+06 0 247965 4.15248e+06 0 249009 4.15171e+06 0 250079 4.15117e+06 0 251178 4.15087e+06 0 252308 4.15081e+06 0 253471 4.151e+06 0 254669 4.15145e+06 0 255904 4.15217e+06 0 257180 4.15315e+06 0 258499 4.15441e+06 0 259863 4.15597e+06 0 261277 4.15782e+06 0 262743 4.15998e+06 0 264265 4.16246e+06 0 265847 4.16528e+06 0 267493 4.16844e+06 0 269208 4.17197e+06 0 270997 4.17588e+06 0 272864 4.18019e+06 0 274818 4.18492e+06 0 276862 4.19008e+06 0 279006 4.19571e+06 0 281256 4.20182e+06 0 283621 4.20844e+06 0 286111 4.21561e+06 0 288736 4.22335e+06 0 291508 4.23171e+06 0 294441 4.24071e+06 0 297549 4.2504e+06 0 300848 4.26082e+06 0 304358 4.27204e+06 0 308100 4.2841e+06 0 312099 4.29707e+06 0 316381 4.31101e+06 0 320981 4.32601e+06 0 325934 4.34215e+06 0 331285 4.35953e+06 0 337086 4.37826e+06 0 343397 4.39847e+06 0 350291 4.4203e+06 0 357857 4.4439e+06 0 366202 4.46948e+06 0 375458 4.49725e+06 0 385794 4.52747e+06 0 397418 4.56043e+06 0 410606 4.59649e+06 0 425716 4.63607e+06 0 443234 4.67966e+06 0 463829 4.72787e+06 0 488453 4.78138e+06 0 518494 4.84097e+06 0 556043 4.90736e+06 0 604236 4.98091e+06 0 667606 5.06069e+06 0 751265 5.14274e+06 0 -470508 5.91971e+06 0 -328644 5.79973e+06 0 -221627 5.67758e+06 0 -142234 5.56205e+06 0 -82740.7 5.4566e+06 0 -37230.7 5.36165e+06 0 -1612.36 5.27639e+06 0 26861.3 5.1997e+06 0 50054.5 5.13044e+06 0 69255.6 5.06764e+06 0 85377.2 5.01043e+06 0 99079.5 4.9581e+06 0 110851 4.91004e+06 0 121060 4.86575e+06 0 129989 4.82478e+06 0 137857 4.78678e+06 0 144837 4.75143e+06 0 151069 4.71846e+06 0 156665 4.68765e+06 0 161714 4.65878e+06 0 166294 4.63168e+06 0 170466 4.6062e+06 0 174283 4.5822e+06 0 177789 4.55955e+06 0 181022 4.53815e+06 0 184013 4.51791e+06 0 186790 4.49873e+06 0 189376 4.48054e+06 0 191793 4.46327e+06 0 194057 4.44686e+06 0 196186 4.43125e+06 0 198192 4.41639e+06 0 200088 4.40222e+06 0 201884 4.38872e+06 0 203591 4.37583e+06 0 205217 4.36353e+06 0 206769 4.35177e+06 0 208255 4.34054e+06 0 209680 4.32979e+06 0 211051 4.31951e+06 0 212372 4.30968e+06 0 213648 4.30026e+06 0 214883 4.29125e+06 0 216082 4.28262e+06 0 217248 4.27436e+06 0 218385 4.26644e+06 0 219494 4.25887e+06 0 220580 4.25161e+06 0 221645 4.24467e+06 0 222692 4.23802e+06 0 223722 4.23166e+06 0 224739 4.22558e+06 0 225744 4.21978e+06 0 226739 4.21423e+06 0 227727 4.20894e+06 0 228708 4.2039e+06 0 229686 4.1991e+06 0 230661 4.19455e+06 0 231636 4.19022e+06 0 232612 4.18612e+06 0 233591 4.18225e+06 0 234574 4.1786e+06 0 235563 4.17517e+06 0 236560 4.17196e+06 0 237566 4.16897e+06 0 238584 4.16619e+06 0 239614 4.16363e+06 0 240658 4.16128e+06 0 241718 4.15915e+06 0 242796 4.15724e+06 0 243894 4.15554e+06 0 245013 4.15406e+06 0 246156 4.15281e+06 0 247324 4.15178e+06 0 248519 4.15098e+06 0 249745 4.15041e+06 0 251002 4.15008e+06 0 252294 4.14999e+06 0 253623 4.15015e+06 0 254992 4.15056e+06 0 256404 4.15124e+06 0 257861 4.15218e+06 0 259367 4.1534e+06 0 260926 4.15491e+06 0 262540 4.15671e+06 0 264215 4.15882e+06 0 265954 4.16124e+06 0 267762 4.164e+06 0 269644 4.1671e+06 0 271606 4.17056e+06 0 273653 4.1744e+06 0 275791 4.17863e+06 0 278029 4.18328e+06 0 280372 4.18835e+06 0 282830 4.19388e+06 0 285412 4.19989e+06 0 288128 4.20641e+06 0 290989 4.21345e+06 0 294008 4.22107e+06 0 297199 4.22928e+06 0 300576 4.23813e+06 0 304158 4.24765e+06 0 307964 4.2579e+06 0 312016 4.26891e+06 0 316339 4.28076e+06 0 320963 4.29348e+06 0 325918 4.30716e+06 0 331245 4.32186e+06 0 336985 4.33767e+06 0 343191 4.35468e+06 0 349923 4.373e+06 0 357251 4.39273e+06 0 365261 4.41402e+06 0 374054 4.43701e+06 0 383754 4.46187e+06 0 394515 4.48881e+06 0 406524 4.51804e+06 0 420022 4.54982e+06 0 435313 4.58447e+06 0 452794 4.62231e+06 0 472990 4.66374e+06 0 496607 4.7092e+06 0 524616 4.75914e+06 0 558365 4.814e+06 0 599742 4.874e+06 0 651317 4.93884e+06 0 716325 5.00711e+06 0 797879 5.07539e+06 0 -540808 5.82416e+06 0 -403825 5.72545e+06 0 -295281 5.62167e+06 0 -210909 5.52017e+06 0 -145321 5.42486e+06 0 -93774.8 5.33716e+06 0 -52638 5.25713e+06 0 -19277 5.18427e+06 0 8192.29 5.1179e+06 0 31124.7 5.05729e+06 0 50507 5.00178e+06 0 67069.3 4.9508e+06 0 81360.7 4.90381e+06 0 93800.4 4.86039e+06 0 104713 4.82013e+06 0 114355 4.78272e+06 0 122927 4.74786e+06 0 130594 4.71531e+06 0 137488 4.68484e+06 0 143717 4.65627e+06 0 149372 4.62943e+06 0 154527 4.60417e+06 0 159246 4.58036e+06 0 163581 4.55788e+06 0 167578 4.53662e+06 0 171276 4.5165e+06 0 174708 4.49744e+06 0 177904 4.47935e+06 0 180887 4.46217e+06 0 183680 4.44583e+06 0 186302 4.43029e+06 0 188771 4.41548e+06 0 191101 4.40137e+06 0 193306 4.38792e+06 0 195396 4.37507e+06 0 197384 4.3628e+06 0 199278 4.35108e+06 0 201088 4.33988e+06 0 202820 4.32916e+06 0 204482 4.3189e+06 0 206079 4.30909e+06 0 207619 4.29969e+06 0 209106 4.29069e+06 0 210546 4.28208e+06 0 211941 4.27382e+06 0 213298 4.26592e+06 0 214619 4.25835e+06 0 215909 4.2511e+06 0 217170 4.24416e+06 0 218405 4.23752e+06 0 219619 4.23116e+06 0 220812 4.22508e+06 0 221989 4.21927e+06 0 223151 4.21373e+06 0 224301 4.20843e+06 0 225442 4.20339e+06 0 226575 4.19859e+06 0 227702 4.19402e+06 0 228827 4.18969e+06 0 229950 4.18558e+06 0 231074 4.1817e+06 0 232200 4.17804e+06 0 233332 4.1746e+06 0 234470 4.17137e+06 0 235616 4.16837e+06 0 236774 4.16557e+06 0 237944 4.16299e+06 0 239128 4.16063e+06 0 240329 4.15848e+06 0 241549 4.15654e+06 0 242789 4.15482e+06 0 244053 4.15332e+06 0 245342 4.15204e+06 0 246658 4.15098e+06 0 248005 4.15015e+06 0 249384 4.14955e+06 0 250799 4.14919e+06 0 252251 4.14906e+06 0 253745 4.14919e+06 0 255283 4.14956e+06 0 256869 4.15019e+06 0 258506 4.15109e+06 0 260197 4.15226e+06 0 261947 4.15372e+06 0 263761 4.15546e+06 0 265641 4.15751e+06 0 267595 4.15988e+06 0 269626 4.16257e+06 0 271741 4.1656e+06 0 273946 4.16899e+06 0 276247 4.17275e+06 0 278652 4.1769e+06 0 281168 4.18145e+06 0 283805 4.18642e+06 0 286573 4.19185e+06 0 289480 4.19774e+06 0 292540 4.20413e+06 0 295765 4.21105e+06 0 299169 4.21852e+06 0 302769 4.22657e+06 0 306580 4.23525e+06 0 310625 4.24459e+06 0 314924 4.25463e+06 0 319503 4.26543e+06 0 324391 4.27702e+06 0 329620 4.28948e+06 0 335226 4.30286e+06 0 341254 4.31723e+06 0 347753 4.33267e+06 0 354780 4.34926e+06 0 362402 4.36711e+06 0 370701 4.38632e+06 0 379769 4.407e+06 0 389721 4.4293e+06 0 400695 4.45336e+06 0 412856 4.47937e+06 0 426413 4.5075e+06 0 441623 4.53799e+06 0 458812 4.57108e+06 0 478395 4.60702e+06 0 500913 4.64613e+06 0 527072 4.68867e+06 0 557809 4.73492e+06 0 594362 4.78503e+06 0 638358 4.83888e+06 0 691827 4.89585e+06 0 757057 4.9544e+06 0 836023 5.0117e+06 0 -598658 5.73349e+06 0 -467265 5.65189e+06 0 -359331 5.56368e+06 0 -272357 5.47493e+06 0 -202635 5.38945e+06 0 -146498 5.30914e+06 0 -100862 5.23466e+06 0 -63330.5 5.166e+06 0 -32092.2 5.10284e+06 0 -5793.1 5.04473e+06 0 16583.6 4.9912e+06 0 35808.1 4.94178e+06 0 52469.9 4.89607e+06 0 67025.9 4.85368e+06 0 79834.3 4.81428e+06 0 91179.2 4.77758e+06 0 101288 4.74332e+06 0 110346 4.71128e+06 0 118502 4.68124e+06 0 125881 4.65304e+06 0 132587 4.62652e+06 0 138705 4.60153e+06 0 144309 4.57795e+06 0 149459 4.55568e+06 0 154209 4.53461e+06 0 158604 4.51466e+06 0 162683 4.49573e+06 0 166479 4.47777e+06 0 170023 4.4607e+06 0 173339 4.44447e+06 0 176451 4.42901e+06 0 179378 4.41429e+06 0 182138 4.40025e+06 0 184747 4.38685e+06 0 187219 4.37406e+06 0 189567 4.36185e+06 0 191801 4.35017e+06 0 193932 4.33901e+06 0 195969 4.32833e+06 0 197920 4.3181e+06 0 199793 4.30832e+06 0 201595 4.29895e+06 0 203332 4.28997e+06 0 205011 4.28138e+06 0 206635 4.27314e+06 0 208211 4.26525e+06 0 209743 4.25769e+06 0 211235 4.25046e+06 0 212691 4.24352e+06 0 214115 4.23689e+06 0 215510 4.23054e+06 0 216880 4.22446e+06 0 218228 4.21866e+06 0 219557 4.21311e+06 0 220869 4.20782e+06 0 222167 4.20277e+06 0 223455 4.19796e+06 0 224734 4.19339e+06 0 226007 4.18905e+06 0 227277 4.18494e+06 0 228545 4.18105e+06 0 229814 4.17738e+06 0 231087 4.17393e+06 0 232365 4.17069e+06 0 233651 4.16767e+06 0 234948 4.16486e+06 0 236257 4.16226e+06 0 237580 4.15988e+06 0 238921 4.1577e+06 0 240281 4.15575e+06 0 241664 4.154e+06 0 243070 4.15248e+06 0 244504 4.15117e+06 0 245968 4.15008e+06 0 247464 4.14922e+06 0 248996 4.14859e+06 0 250566 4.14819e+06 0 252178 4.14803e+06 0 253834 4.14811e+06 0 255540 4.14844e+06 0 257298 4.14903e+06 0 259112 4.14988e+06 0 260986 4.151e+06 0 262926 4.1524e+06 0 264935 4.15409e+06 0 267019 4.15608e+06 0 269184 4.15838e+06 0 271435 4.161e+06 0 273778 4.16395e+06 0 276222 4.16726e+06 0 278773 4.17093e+06 0 281440 4.17498e+06 0 284230 4.17943e+06 0 287156 4.1843e+06 0 290226 4.18961e+06 0 293452 4.19538e+06 0 296849 4.20163e+06 0 300429 4.2084e+06 0 304209 4.21571e+06 0 308207 4.22359e+06 0 312442 4.23208e+06 0 316936 4.24122e+06 0 321714 4.25104e+06 0 326804 4.26159e+06 0 332238 4.27291e+06 0 338051 4.28507e+06 0 344285 4.29812e+06 0 350987 4.31213e+06 0 358211 4.32716e+06 0 366022 4.3433e+06 0 374492 4.36063e+06 0 383709 4.37926e+06 0 393775 4.39928e+06 0 404813 4.42082e+06 0 416971 4.44402e+06 0 430426 4.46901e+06 0 445397 4.49596e+06 0 462152 4.52506e+06 0 481027 4.55648e+06 0 502443 4.59043e+06 0 526934 4.6271e+06 0 555180 4.66666e+06 0 588050 4.70921e+06 0 626643 4.75469e+06 0 672316 4.8028e+06 0 726646 4.85274e+06 0 791261 4.90304e+06 0 867432 4.95137e+06 0 -646471 5.64754e+06 0 -520940 5.57993e+06 0 -414930 5.50496e+06 0 -327036 5.42761e+06 0 -254742 5.35137e+06 0 -195271 5.27833e+06 0 -146090 5.20951e+06 0 -105092 5.14526e+06 0 -70604.5 5.08555e+06 0 -41323.7 5.03017e+06 0 -16240.7 4.97882e+06 0 5427.59 4.93117e+06 0 24292.4 4.88689e+06 0 40834.9 4.84568e+06 0 55436.8 4.80727e+06 0 68404.4 4.7714e+06 0 79985 4.73784e+06 0 90380.4 4.70638e+06 0 99756.5 4.67685e+06 0 108251 4.64909e+06 0 115978 4.62294e+06 0 123035 4.59829e+06 0 129503 4.575e+06 0 135451 4.55298e+06 0 140939 4.53213e+06 0 146019 4.51237e+06 0 150733 4.49362e+06 0 155122 4.47581e+06 0 159217 4.45888e+06 0 163050 4.44277e+06 0 166644 4.42742e+06 0 170024 4.4128e+06 0 173210 4.39885e+06 0 176220 4.38553e+06 0 179069 4.37282e+06 0 181773 4.36066e+06 0 184344 4.34905e+06 0 186794 4.33793e+06 0 189133 4.3273e+06 0 191372 4.31712e+06 0 193518 4.30737e+06 0 195581 4.29803e+06 0 197566 4.28909e+06 0 199482 4.28052e+06 0 201334 4.27231e+06 0 203128 4.26444e+06 0 204869 4.2569e+06 0 206562 4.24968e+06 0 208212 4.24276e+06 0 209824 4.23614e+06 0 211400 4.2298e+06 0 212945 4.22373e+06 0 214463 4.21793e+06 0 215957 4.21239e+06 0 217431 4.2071e+06 0 218886 4.20205e+06 0 220328 4.19724e+06 0 221757 4.19267e+06 0 223178 4.18832e+06 0 224593 4.1842e+06 0 226005 4.18031e+06 0 227416 4.17663e+06 0 228829 4.17316e+06 0 230247 4.16991e+06 0 231672 4.16688e+06 0 233106 4.16405e+06 0 234553 4.16144e+06 0 236015 4.15903e+06 0 237494 4.15684e+06 0 238994 4.15486e+06 0 240517 4.15309e+06 0 242065 4.15154e+06 0 243643 4.15021e+06 0 245252 4.14909e+06 0 246896 4.1482e+06 0 248579 4.14753e+06 0 250303 4.14709e+06 0 252072 4.14689e+06 0 253890 4.14693e+06 0 255760 4.14722e+06 0 257688 4.14775e+06 0 259677 4.14855e+06 0 261732 4.14962e+06 0 263858 4.15096e+06 0 266060 4.15258e+06 0 268344 4.1545e+06 0 270717 4.15673e+06 0 273184 4.15927e+06 0 275753 4.16215e+06 0 278431 4.16537e+06 0 281227 4.16894e+06 0 284150 4.17289e+06 0 287210 4.17723e+06 0 290417 4.18199e+06 0 293783 4.18717e+06 0 297321 4.1928e+06 0 301046 4.19891e+06 0 304973 4.20552e+06 0 309119 4.21266e+06 0 313504 4.22035e+06 0 318149 4.22864e+06 0 323079 4.23755e+06 0 328321 4.24713e+06 0 333904 4.25741e+06 0 339864 4.26844e+06 0 346239 4.28028e+06 0 353074 4.29297e+06 0 360421 4.30658e+06 0 368337 4.32118e+06 0 376892 4.33682e+06 0 386163 4.3536e+06 0 396244 4.3716e+06 0 407244 4.39091e+06 0 419292 4.41164e+06 0 432541 4.43391e+06 0 447178 4.45783e+06 0 463426 4.48353e+06 0 481559 4.51116e+06 0 501911 4.54085e+06 0 524897 4.57274e+06 0 551030 4.60694e+06 0 580947 4.64351e+06 0 615431 4.68243e+06 0 655434 4.72351e+06 0 702069 4.76632e+06 0 756549 4.81002e+06 0 820036 4.85326e+06 0 893362 4.89412e+06 0 -686098 5.56613e+06 0 -566429 5.51009e+06 0 -463138 5.44639e+06 0 -375504 5.37914e+06 0 -301847 5.31144e+06 0 -240101 5.24539e+06 0 -188230 5.18218e+06 0 -144431 5.12242e+06 0 -107204 5.0663e+06 0 -75331.4 5.01382e+06 0 -47841.2 4.96481e+06 0 -23960.2 4.91907e+06 0 -3072.45 4.87637e+06 0 15314.7 4.83648e+06 0 31597.6 4.79917e+06 0 46097.6 4.76422e+06 0 59076.8 4.73144e+06 0 70750.7 4.70066e+06 0 81297.7 4.67171e+06 0 90866.4 4.64445e+06 0 99581.6 4.61874e+06 0 107549 4.59446e+06 0 114857 4.5715e+06 0 121583 4.54978e+06 0 127792 4.52919e+06 0 133541 4.50966e+06 0 138879 4.49111e+06 0 143848 4.47348e+06 0 148486 4.45671e+06 0 152826 4.44074e+06 0 156896 4.42553e+06 0 160723 4.41102e+06 0 164328 4.39717e+06 0 167733 4.38395e+06 0 170955 4.37132e+06 0 174011 4.35925e+06 0 176915 4.3477e+06 0 179681 4.33665e+06 0 182320 4.32608e+06 0 184843 4.31595e+06 0 187261 4.30625e+06 0 189581 4.29695e+06 0 191814 4.28805e+06 0 193965 4.27951e+06 0 196042 4.27133e+06 0 198053 4.26349e+06 0 200002 4.25597e+06 0 201895 4.24877e+06 0 203737 4.24187e+06 0 205534 4.23526e+06 0 207291 4.22894e+06 0 209010 4.22288e+06 0 210697 4.21709e+06 0 212355 4.21155e+06 0 213989 4.20627e+06 0 215600 4.20122e+06 0 217195 4.19642e+06 0 218774 4.19184e+06 0 220342 4.1875e+06 0 221901 4.18337e+06 0 223455 4.17947e+06 0 225007 4.17578e+06 0 226560 4.17231e+06 0 228115 4.16905e+06 0 229678 4.166e+06 0 231249 4.16316e+06 0 232833 4.16052e+06 0 234432 4.1581e+06 0 236048 4.15589e+06 0 237686 4.15388e+06 0 239348 4.15209e+06 0 241037 4.15051e+06 0 242757 4.14915e+06 0 244510 4.148e+06 0 246301 4.14707e+06 0 248132 4.14637e+06 0 250008 4.14589e+06 0 251932 4.14565e+06 0 253909 4.14564e+06 0 255943 4.14588e+06 0 258038 4.14637e+06 0 260199 4.14711e+06 0 262432 4.14811e+06 0 264741 4.14939e+06 0 267133 4.15095e+06 0 269614 4.1528e+06 0 272191 4.15495e+06 0 274870 4.15741e+06 0 277660 4.1602e+06 0 280568 4.16332e+06 0 283604 4.16679e+06 0 286778 4.17064e+06 0 290100 4.17486e+06 0 293583 4.17949e+06 0 297238 4.18453e+06 0 301080 4.19002e+06 0 305124 4.19597e+06 0 309388 4.20241e+06 0 313889 4.20936e+06 0 318650 4.21685e+06 0 323693 4.22492e+06 0 329044 4.2336e+06 0 334732 4.24291e+06 0 340790 4.25291e+06 0 347255 4.26363e+06 0 354168 4.27512e+06 0 361578 4.28743e+06 0 369538 4.30062e+06 0 378110 4.31474e+06 0 387367 4.32986e+06 0 397391 4.34605e+06 0 408280 4.36338e+06 0 420147 4.38194e+06 0 433125 4.40182e+06 0 447373 4.42311e+06 0 463078 4.4459e+06 0 480467 4.47031e+06 0 499811 4.49642e+06 0 521438 4.52434e+06 0 545746 4.55415e+06 0 573217 4.58587e+06 0 604434 4.61951e+06 0 640090 4.65493e+06 0 680995 4.69188e+06 0 728050 4.72985e+06 0 782186 4.76802e+06 0 844238 4.80518e+06 0 914746 4.83972e+06 0 -718941 5.48901e+06 0 -605000 5.44264e+06 0 -504894 5.38858e+06 0 -418338 5.33024e+06 0 -344242 5.27035e+06 0 -281090 5.21088e+06 0 -227272 5.15313e+06 0 -181282 5.09783e+06 0 -141800 5.04537e+06 0 -107717 4.99588e+06 0 -78120.1 4.94933e+06 0 -52263.3 4.90562e+06 0 -29540.5 4.86462e+06 0 -9458.56 4.82614e+06 0 8384.88 4.79003e+06 0 24319.8 4.7561e+06 0 38618 4.72419e+06 0 51505 4.69415e+06 0 63168.7 4.66584e+06 0 73766.7 4.63914e+06 0 83432 4.61391e+06 0 92277.5 4.59006e+06 0 100399 4.56748e+06 0 107880 4.54608e+06 0 114790 4.52579e+06 0 121191 4.50651e+06 0 127137 4.4882e+06 0 132675 4.47078e+06 0 137844 4.4542e+06 0 142682 4.4384e+06 0 147219 4.42333e+06 0 151485 4.40896e+06 0 155503 4.39523e+06 0 159298 4.38212e+06 0 162887 4.36959e+06 0 166291 4.35761e+06 0 169524 4.34614e+06 0 172601 4.33517e+06 0 175536 4.32466e+06 0 178341 4.31459e+06 0 181026 4.30495e+06 0 183602 4.2957e+06 0 186078 4.28684e+06 0 188463 4.27835e+06 0 190764 4.2702e+06 0 192989 4.2624e+06 0 195144 4.25491e+06 0 197235 4.24774e+06 0 199269 4.24086e+06 0 201250 4.23427e+06 0 203185 4.22796e+06 0 205077 4.22192e+06 0 206931 4.21614e+06 0 208753 4.21061e+06 0 210545 4.20534e+06 0 212312 4.2003e+06 0 214057 4.19549e+06 0 215785 4.19092e+06 0 217498 4.18657e+06 0 219201 4.18244e+06 0 220897 4.17853e+06 0 222588 4.17484e+06 0 224278 4.17136e+06 0 225971 4.16809e+06 0 227670 4.16502e+06 0 229377 4.16217e+06 0 231096 4.15952e+06 0 232830 4.15708e+06 0 234583 4.15484e+06 0 236358 4.15282e+06 0 238157 4.151e+06 0 239985 4.14939e+06 0 241845 4.14799e+06 0 243741 4.14681e+06 0 245676 4.14585e+06 0 247654 4.14511e+06 0 249680 4.14459e+06 0 251757 4.1443e+06 0 253891 4.14425e+06 0 256085 4.14444e+06 0 258345 4.14487e+06 0 260676 4.14555e+06 0 263084 4.1465e+06 0 265574 4.14771e+06 0 268152 4.14919e+06 0 270826 4.15097e+06 0 273603 4.15303e+06 0 276490 4.15541e+06 0 279496 4.1581e+06 0 282629 4.16112e+06 0 285900 4.16449e+06 0 289319 4.16821e+06 0 292898 4.17231e+06 0 296648 4.1768e+06 0 300585 4.18171e+06 0 304722 4.18704e+06 0 309077 4.19282e+06 0 313667 4.19908e+06 0 318513 4.20583e+06 0 323637 4.21311e+06 0 329063 4.22095e+06 0 334819 4.22937e+06 0 340937 4.23841e+06 0 347450 4.2481e+06 0 354398 4.25849e+06 0 361825 4.26961e+06 0 369780 4.28152e+06 0 378320 4.29426e+06 0 387511 4.30788e+06 0 397428 4.32244e+06 0 408155 4.33801e+06 0 419794 4.35465e+06 0 432460 4.37243e+06 0 446289 4.39141e+06 0 461441 4.41168e+06 0 478104 4.43332e+06 0 496500 4.45639e+06 0 516895 4.48097e+06 0 539605 4.5071e+06 0 565004 4.53482e+06 0 593538 4.56412e+06 0 625731 4.5949e+06 0 662188 4.62701e+06 0 703589 4.66011e+06 0 750660 4.69368e+06 0 804112 4.72694e+06 0 864545 4.75882e+06 0 932306 4.78797e+06 0 -746116 5.41592e+06 0 -637688 5.3777e+06 0 -541018 5.33192e+06 0 -456101 5.28144e+06 0 -382259 5.22862e+06 0 -318401 5.1753e+06 0 -263272 5.12276e+06 0 -215631 5.07184e+06 0 -174343 5.02303e+06 0 -138415 4.97656e+06 0 -107005 4.93254e+06 0 -79409.5