<?xml version="1.0"?> 
<VTKFile type="StructuredGrid" version="0.1"> 
<StructuredGrid WholeExtent="0 127 0 127 0 0"> 
<Piece Extent="0 127 0 127 0 0"> 
<PointData>
<DataArray type="Float32" Name="E" format="ascii" NumberOfComponents="3"> 
1.15878e+06 -118243 0 1.28516e+06 -85908.3 0 1.32649e+06 -100601 0 1.36964e+06 -115097 0 1.41043e+06 -118941 0 1.45066e+06 -120456 0 1.48855e+06 -117089 0 1.52423e+06 -112053 0 1.5572e+06 -105026 0 1.58747e+06 -97164.6 0 1.61491e+06 -88542.4 0 1.63953e+06 -79602.1 0 1.66131e+06 -70451.5 0 1.6803e+06 -61282.9 0 1.69653e+06 -52180.2 0 1.71007e+06 -43240.8 0 1.72099e+06 -34523.7 0 1.72938e+06 -26084.9 0 1.73533e+06 -17963.8 0 1.73897e+06 -10193.9 0 1.74039e+06 -2799.3 0 1.73972e+06 4201.66 0 1.73708e+06 10797.2 0 1.73259e+06 16980.6 0 1.72638e+06 22749.9 0 1.71858e+06 28107.3 0 1.70929e+06 33058.5 0 1.69865e+06 37612.3 0 1.68676e+06 41779.9 0 1.67374e+06 45574.5 0 1.6597e+06 49011 0 1.64474e+06 52105.3 0 1.62895e+06 54874.3 0 1.61243e+06 57335.2 0 1.59526e+06 59505.5 0 1.57752e+06 61402.7 0 1.5593e+06 63044.1 0 1.54065e+06 64446.6 0 1.52166e+06 65626.6 0 1.50237e+06 66600.1 0 1.48285e+06 67382.2 0 1.46314e+06 67987.4 0 1.4433e+06 68429.6 0 1.42336e+06 68721.8 0 1.40338e+06 68876.3 0 1.38338e+06 68904.6 0 1.36341e+06 68817.7 0 1.34348e+06 68625.4 0 1.32364e+06 68337.4 0 1.3039e+06 67962.4 0 1.28429e+06 67508.5 0 1.26483e+06 66983.3 0 1.24554e+06 66393.7 0 1.22643e+06 65746.2 0 1.20753e+06 65046.8 0 1.18884e+06 64301 0 1.17037e+06 63513.7 0 1.15215e+06 62689.7 0 1.13417e+06 61833.1 0 1.11644e+06 60948 0 1.09898e+06 60037.8 0 1.08179e+06 59105.9 0 1.06487e+06 58155.3 0 1.04824e+06 57188.7 0 1.03188e+06 56208.5 0 1.01581e+06 55217.1 0 1.00003e+06 54216.6 0 984548 53208.7 0 969354 52195.3 0 954454 51177.8 0 939850 50157.7 0 925541 49136.2 0 911528 48114.4 0 897811 47093.4 0 884388 46074.1 0 871260 45057.3 0 858425 44043.7 0 845882 43034 0 833631 42028.8 0 821669 41028.5 0 809995 40033.5 0 798607 39044.4 0 787504 38061.3 0 776683 37084.5 0 766144 36114.4 0 755883 35151 0 745899 34194.5 0 736189 33245.1 0 726753 32302.7 0 717587 31367.5 0 708689 30439.6 0 700058 29518.7 0 691691 28605.1 0 683586 27698.6 0 675742 26799.1 0 668155 25906.6 0 660825 25020.9 0 653749 24142.1 0 646925 23269.8 0 640351 22404.1 0 634025 21544.7 0 627947 20691.4 0 622113 19844.2 0 616522 19002.8 0 611172 18167.1 0 606063 17336.8 0 601191 16511.8 0 596557 15691.9 0 592158 14876.7 0 587993 14066.2 0 584060 13260.1 0 580359 12458.2 0 576888 11660.2 0 573646 10865.9 0 570633 10075.1 0 567847 9287.51 0 565287 8502.94 0 562952 7721.13 0 560842 6941.83 0 558956 6164.79 0 557293 5389.76 0 555853 4616.51 0 554636 3844.77 0 553640 3074.3 0 552866 2304.83 0 552313 1536.13 0 551982 767.94 0 551871 0 0 1.16577e+06 -118956 0 1.28415e+06 -87205.7 0 1.32636e+06 -102031 0 1.36947e+06 -116089 0 1.41049e+06 -120124 0 1.45079e+06 -121456 0 1.48877e+06 -118089 0 1.52448e+06 -112944 0 1.55748e+06 -105861 0 1.58777e+06 -97912.6 0 1.61521e+06 -89219.2 0 1.63983e+06 -80199.4 0 1.66161e+06 -70974.9 0 1.68059e+06 -61731.2 0 1.69681e+06 -52556.3 0 1.71033e+06 -43546.2 0 1.72124e+06 -34761.1 0 1.72962e+06 -26256.6 0 1.73556e+06 -18072.8 0 1.73918e+06 -10243.2 0 1.74059e+06 -2792.02 0 1.7399e+06 4262.3 0 1.73725e+06 10907.9 0 1.73274e+06 17138 0 1.72652e+06 22950.7 0 1.7187e+06 28348.2 0 1.7094e+06 33336.4 0 1.69874e+06 37924 0 1.68684e+06 42122.5 0 1.67381e+06 45945 0 1.65976e+06 49406.7 0 1.64478e+06 52523.7 0 1.62898e+06 55312.8 0 1.61245e+06 57791.4 0 1.59528e+06 59977.3 0 1.57753e+06 61888 0 1.5593e+06 63541 0 1.54065e+06 64953.4 0 1.52165e+06 66141.6 0 1.50236e+06 67121.7 0 1.48283e+06 67909 0 1.46312e+06 68518.1 0 1.44327e+06 68963.1 0 1.42333e+06 69256.9 0 1.40335e+06 69411.9 0 1.38335e+06 69439.9 0 1.36337e+06 69351.7 0 1.34344e+06 69157.6 0 1.3236e+06 68866.9 0 1.30386e+06 68488.6 0 1.28425e+06 68030.9 0 1.26478e+06 67501.3 0 1.24549e+06 66906.9 0 1.22639e+06 66254.1 0 1.20748e+06 65549.1 0 1.18879e+06 64797.3 0 1.17032e+06 64003.7 0 1.1521e+06 63173.2 0 1.13412e+06 62309.9 0 1.1164e+06 61417.8 0 1.09893e+06 60500.5 0 1.08174e+06 59561.3 0 1.06483e+06 58603.2 0 1.04819e+06 57629.1 0 1.03183e+06 56641.3 0 1.01577e+06 55642.2 0 999987 54633.8 0 984501 53618.2 0 969307 52596.9 0 954409 51571.5 0 939805 50543.5 0 925497 49514.1 0 911484 48484.4 0 897767 47455.6 0 884346 46428.4 0 871218 45403.7 0 858384 44382.3 0 845842 43364.9 0 833591 42351.9 0 821630 41343.9 0 809956 40341.3 0 798569 39344.5 0 787467 38353.8 0 776647 37369.6 0 766108 36391.9 0 755848 35421.1 0 745864 34457.3 0 736156 33500.5 0 726720 32551 0 717554 31608.6 0 708657 30673.5 0 700027 29745.6 0 691660 28824.9 0 683556 27911.4 0 675712 27005 0 668126 26105.7 0 660796 25213.2 0 653721 24327.6 0 646897 23448.6 0 640324 22576.2 0 633999 21710.2 0 627920 20850.4 0 622087 19996.7 0 616496 19148.9 0 611147 18306.7 0 606038 17470.1 0 601167 16638.7 0 596533 15812.4 0 592134 14991 0 587969 14174.3 0 584037 13362 0 580336 12553.9 0 576866 11749.8 0 573624 10949.4 0 570611 10152.5 0 567825 9358.88 0 565265 8568.28 0 562930 7780.46 0 560820 6995.17 0 558935 6212.16 0 557272 5431.18 0 555832 4651.98 0 554615 3874.32 0 553619 3097.92 0 552845 2322.55 0 552292 1547.94 0 551961 773.841 0 551850 0 0 1.17222e+06 -119614 0 1.28325e+06 -88527.3 0 1.32622e+06 -103435 0 1.3693e+06 -117103 0 1.41055e+06 -121300 0 1.45092e+06 -122464 0 1.48899e+06 -119088 0 1.52474e+06 -113837 0 1.55777e+06 -106695 0 1.58806e+06 -98661.1 0 1.61552e+06 -89895.6 0 1.64013e+06 -80796.6 0 1.66191e+06 -71497.9 0 1.68088e+06 -62179.1 0 1.69709e+06 -52932 0 1.7106e+06 -43851.2 0 1.72149e+06 -34997.9 0 1.72986e+06 -26427.8 0 1.73579e+06 -18181.3 0 1.73939e+06 -10291.9 0 1.74078e+06 -2784.19 0 1.74008e+06 4323.46 0 1.73741e+06 11019.1 0 1.73289e+06 17295.9 0 1.72665e+06 23152 0 1.71882e+06 28589.7 0 1.7095e+06 33614.8 0 1.69883e+06 38236.2 0 1.68692e+06 42465.4 0 1.67388e+06 46316 0 1.65982e+06 49802.8 0 1.64483e+06 52942.3 0 1.62902e+06 55751.5 0 1.61248e+06 58247.9 0 1.5953e+06 60449.4 0 1.57755e+06 62373.6 0 1.55931e+06 64038.2 0 1.54065e+06 65460.4 0 1.52164e+06 66656.7 0 1.50234e+06 67643.4 0 1.48281e+06 68435.9 0 1.46309e+06 69049 0 1.44324e+06 69496.6 0 1.4233e+06 69792 0 1.40331e+06 69947.6 0 1.38331e+06 69975.3 0 1.36333e+06 69885.9 0 1.3434e+06 69689.8 0 1.32355e+06 69396.5 0 1.30381e+06 69014.9 0 1.2842e+06 68553.3 0 1.26474e+06 68019.3 0 1.24544e+06 67420 0 1.22634e+06 66762 0 1.20743e+06 66051.4 0 1.18874e+06 65293.6 0 1.17028e+06 64493.8 0 1.15205e+06 63656.7 0 1.13407e+06 62786.6 0 1.11634e+06 61887.5 0 1.09888e+06 60963.1 0 1.08169e+06 60016.6 0 1.06478e+06 59051.1 0 1.04814e+06 58069.4 0 1.03178e+06 57074 0 1.01572e+06 56067.2 0 999940 55051.1 0 984454 54027.6 0 969261 52998.5 0 954362 51965.2 0 939759 50929.3 0 925452 49892 0 911440 48854.4 0 897724 47817.7 0 884303 46782.6 0 871176 45750.2 0 858343 44721 0 845801 43695.7 0 833551 42674.9 0 821591 41659.2 0 809918 40649 0 798532 39644.6 0 787430 38646.3 0 776611 37654.6 0 766072 36669.5 0 755813 35691.3 0 745830 34720.1 0 736122 33756 0 726686 32799.2 0 717522 31849.6 0 708625 30907.4 0 699995 29972.4 0 691629 29044.7 0 683526 28124.3 0 675682 27211 0 668097 26304.7 0 660768 25405.5 0 653692 24513.1 0 646869 23627.4 0 640296 22748.4 0 633972 21875.8 0 627894 21009.4 0 622061 20149.2 0 616471 19294.9 0 611122 18446.3 0 606013 17603.3 0 601143 16765.6 0 596509 15933 0 592110 15105.3 0 587946 14282.4 0 584014 13463.9 0 580313 12649.6 0 576843 11839.4 0 573602 11032.9 0 570589 10229.9 0 567803 9430.24 0 565243 8633.62 0 562909 7839.79 0 560799 7048.51 0 558913 6259.53 0 557251 5472.6 0 555811 4687.46 0 554594 3903.86 0 553598 3121.54 0 552824 2340.26 0 552272 1559.74 0 551940 779.742 0 551830 0 0 1.17819e+06 -120223 0 1.28244e+06 -89867.4 0 1.32606e+06 -104815 0 1.36915e+06 -118138 0 1.41061e+06 -122471 0 1.45105e+06 -123478 0 1.48921e+06 -120085 0 1.52499e+06 -114733 0 1.55806e+06 -107530 0 1.58836e+06 -99410.2 0 1.61582e+06 -90571.6 0 1.64044e+06 -81393.7 0 1.66221e+06 -72020.4 0 1.68117e+06 -62626.6 0 1.69737e+06 -53307.3 0 1.71087e+06 -44155.6 0 1.72175e+06 -35234.2 0 1.7301e+06 -26598.5 0 1.73601e+06 -18289.3 0 1.7396e+06 -10340.1 0 1.74098e+06 -2775.81 0 1.74026e+06 4385.16 0 1.73758e+06 11130.8 0 1.73304e+06 17454.3 0 1.72679e+06 23353.8 0 1.71894e+06 28831.5 0 1.70961e+06 33893.5 0 1.69893e+06 38548.8 0 1.687e+06 42808.8 0 1.67395e+06 46687.3 0 1.65987e+06 50199.3 0 1.64488e+06 53361.3 0 1.62906e+06 56190.6 0 1.61251e+06 58704.7 0 1.59532e+06 60921.7 0 1.57756e+06 62859.5 0 1.55931e+06 64535.6 0 1.54065e+06 65967.5 0 1.52163e+06 67172 0 1.50233e+06 68165.4 0 1.48279e+06 68963.1 0 1.46307e+06 69580 0 1.44322e+06 70030.3 0 1.42327e+06 70327.2 0 1.40328e+06 70483.4 0 1.38327e+06 70510.7 0 1.36329e+06 70420.2 0 1.34336e+06 70222.1 0 1.32351e+06 69926.1 0 1.30377e+06 69541.2 0 1.28415e+06 69075.7 0 1.26469e+06 68537.3 0 1.2454e+06 67933.2 0 1.22629e+06 67270 0 1.20738e+06 66553.6 0 1.18869e+06 65789.9 0 1.17022e+06 64983.8 0 1.152e+06 64140.2 0 1.13402e+06 63263.3 0 1.11629e+06 62357.3 0 1.09883e+06 61425.7 0 1.08164e+06 60471.9 0 1.06473e+06 59499 0 1.04809e+06 58509.8 0 1.03174e+06 57506.7 0 1.01567e+06 56492.2 0 999892 55468.3 0 984406 54437 0 969214 53400 0 954316 52358.9 0 939714 51315.1 0 925407 50269.9 0 911396 49224.4 0 897680 48179.8 0 884260 47136.9 0 871134 46096.6 0 858301 45059.5 0 845761 44026.5 0 833511 42998 0 821551 41974.6 0 809879 40956.7 0 798494 39944.6 0 787392 38938.8 0 776574 37939.6 0 766036 36947 0 755777 35961.4 0 745795 34982.8 0 736088 34011.5 0 726653 33047.4 0 717489 32090.7 0 708593 31141.3 0 699964 30199.2 0 691598 29264.5 0 683495 28337.1 0 675652 27416.9 0 668068 26503.8 0 660739 25597.7 0 653664 24698.6 0 646841 23806.2 0 640269 22920.5 0 633945 22041.3 0 627868 21168.4 0 622035 20301.6 0 616445 19440.9 0 611097 18585.9 0 605988 17736.5 0 601118 16892.4 0 596485 16053.6 0 592086 15219.6 0 587922 14390.5 0 583990 13565.8 0 580290 12745.3 0 576820 11928.9 0 573579 11116.4 0 570566 10307.3 0 567781 9501.6 0 565221 8698.95 0 562887 7899.11 0 560777 7101.85 0 558892 6306.9 0 557229 5514.01 0 555790 4722.93 0 554572 3933.4 0 553577 3145.16 0 552803 2357.97 0 552251 1571.54 0 551919 785.643 0 551809 0 0 1.18371e+06 -120786 0 1.28172e+06 -91221.1 0 1.32588e+06 -106175 0 1.369e+06 -119191 0 1.41067e+06 -123636 0 1.45119e+06 -124500 0 1.48943e+06 -121082 0 1.52525e+06 -115630 0 1.55835e+06 -108363 0 1.58867e+06 -100160 0 1.61613e+06 -91247.3 0 1.64075e+06 -81990.6 0 1.66251e+06 -72542.5 0 1.68147e+06 -63073.7 0 1.69766e+06 -53682 0 1.71115e+06 -44459.6 0 1.72201e+06 -35470 0 1.73034e+06 -26768.6 0 1.73624e+06 -18396.6 0 1.73982e+06 -10387.7 0 1.74118e+06 -2766.89 0 1.74045e+06 4447.39 0 1.73774e+06 11243 0 1.7332e+06 17613.2 0 1.72693e+06 23556 0 1.71906e+06 29073.9 0 1.70972e+06 34172.8 0 1.69902e+06 38861.8 0 1.68709e+06 43152.6 0 1.67402e+06 47058.9 0 1.65993e+06 50596.1 0 1.64493e+06 53780.7 0 1.6291e+06 56630 0 1.61254e+06 59161.8 0 1.59534e+06 61394.3 0 1.57757e+06 63345.5 0 1.55932e+06 65033.2 0 1.54065e+06 66474.9 0 1.52163e+06 67687.5 0 1.50232e+06 68687.4 0 1.48277e+06 69490.3 0 1.46305e+06 70111.1 0 1.44319e+06 70564 0 1.42324e+06 70862.6 0 1.40325e+06 71019.3 0 1.38324e+06 71046.2 0 1.36325e+06 70954.5 0 1.34332e+06 70754.4 0 1.32347e+06 70455.7 0 1.30372e+06 70067.5 0 1.28411e+06 69598.2 0 1.26464e+06 69055.4 0 1.24535e+06 68446.5 0 1.22624e+06 67777.9 0 1.20733e+06 67055.9 0 1.18864e+06 66286.2 0 1.17017e+06 65473.8 0 1.15195e+06 64623.7 0 1.13397e+06 63740.1 0 1.11624e+06 62827.1 0 1.09878e+06 61888.3 0 1.08159e+06 60927.3 0 1.06468e+06 59946.9 0 1.04804e+06 58950.1 0 1.03169e+06 57939.4 0 1.01562e+06 56917.2 0 999844 55885.6 0 984359 54846.4 0 969167 53801.6 0 954270 52752.6 0 939668 51700.9 0 925362 50647.8 0 911351 49594.4 0 897637 48541.9 0 884217 47491.1 0 871091 46442.9 0 858259 45398.1 0 845720 44357.3 0 833471 43321 0 821512 42289.9 0 809840 41264.3 0 798455 40244.7 0 787355 39231.3 0 776537 38224.5 0 766000 37224.5 0 755742 36231.5 0 745760 35245.6 0 736054 34266.9 0 726619 33295.6 0 717456 32331.7 0 708561 31375.1 0 699932 30426 0 691567 29484.3 0 683465 28549.9 0 675622 27622.8 0 668038 26702.8 0 660710 25789.9 0 653635 24884 0 646813 23985 0 640241 23092.6 0 633918 22206.8 0 627841 21327.4 0 622009 20454.1 0 616419 19586.9 0 611071 18725.5 0 605963 17869.7 0 601093 17019.3 0 596460 16174.1 0 592062 15333.9 0 587898 14498.5 0 583967 13667.6 0 580267 12841 0 576797 12018.5 0 573557 11199.8 0 570544 10384.7 0 567758 9572.95 0 565199 8764.27 0 562865 7958.43 0 560756 7155.18 0 558870 6354.26 0 557208 5555.42 0 555768 4758.4 0 554551 3962.94 0 553556 3168.78 0 552782 2375.67 0 552229 1583.35 0 551898 791.542 0 551788 0 0 1.18881e+06 -121307 0 1.28107e+06 -92584.1 0 1.32569e+06 -107518 0 1.36885e+06 -120262 0 1.41072e+06 -124798 0 1.45133e+06 -125527 0 1.48965e+06 -122078 0 1.52552e+06 -116530 0 1.55864e+06 -109197 0 1.58897e+06 -100909 0 1.61644e+06 -91922.7 0 1.64106e+06 -82587.4 0 1.66282e+06 -73064.2 0 1.68176e+06 -63520.4 0 1.69794e+06 -54056.2 0 1.71142e+06 -44763 0 1.72227e+06 -35705.3 0 1.73059e+06 -26938.2 0 1.73647e+06 -18503.5 0 1.74003e+06 -10434.8 0 1.74138e+06 -2757.43 0 1.74063e+06 4510.17 0 1.73791e+06 11355.8 0 1.73335e+06 17772.6 0 1.72707e+06 23758.8 0 1.71918e+06 29316.7 0 1.70983e+06 34452.5 0 1.69912e+06 39175.2 0 1.68717e+06 43496.8 0 1.67409e+06 47431 0 1.65999e+06 50993.3 0 1.64498e+06 54200.3 0 1.62914e+06 57069.6 0 1.61257e+06 59619.2 0 1.59536e+06 61867.2 0 1.57758e+06 63831.8 0 1.55932e+06 65531.1 0 1.54065e+06 66982.5 0 1.52162e+06 68203.2 0 1.5023e+06 69209.7 0 1.48276e+06 70017.7 0 1.46303e+06 70642.4 0 1.44316e+06 71097.9 0 1.42321e+06 71398 0 1.40321e+06 71555.3 0 1.3832e+06 71581.9 0 1.36321e+06 71488.8 0 1.34328e+06 71286.8 0 1.32343e+06 70985.5 0 1.30368e+06 70593.9 0 1.28406e+06 70120.7 0 1.2646e+06 69573.5 0 1.2453e+06 68959.7 0 1.22619e+06 68285.9 0 1.20728e+06 67558.3 0 1.18859e+06 66782.5 0 1.17012e+06 65963.9 0 1.1519e+06 65107.2 0 1.13392e+06 64216.8 0 1.11619e+06 63296.8 0 1.09873e+06 62351 0 1.08154e+06 61382.6 0 1.06463e+06 60394.8 0 1.04799e+06 59390.4 0 1.03164e+06 58372.1 0 1.01557e+06 57342.2 0 999795 56302.8 0 984311 55255.8 0 969120 54203.1 0 954223 53146.2 0 939622 52086.6 0 925316 51025.6 0 911307 49964.4 0 897593 48904 0 884173 47845.3 0 871049 46789.3 0 858217 45736.7 0 845678 44688 0 833430 43644.1 0 821472 42605.2 0 809801 41572 0 798417 40544.7 0 787317 39523.8 0 776500 38509.5 0 765964 37502 0 755706 36501.6 0 745725 35508.3 0 736019 34522.3 0 726586 33543.8 0 717423 32572.7 0 708528 31609 0 699900 30652.8 0 691536 29704 0 683434 28762.7 0 675592 27828.6 0 668008 26901.8 0 660680 25982.2 0 653607 25069.5 0 646785 24163.7 0 640214 23264.7 0 633891 22372.3 0 627814 21486.3 0 621982 20606.5 0 616393 19732.8 0 611046 18865 0 605938 18002.8 0 601068 17146.1 0 596436 16294.7 0 592038 15448.2 0 587874 14606.6 0 583943 13769.5 0 580244 12936.8 0 576774 12108.1 0 573534 11283.3 0 570521 10462.1 0 567736 9644.3 0 565177 8829.59 0 562843 8017.75 0 560734 7208.51 0 558848 6401.62 0 557186 5596.82 0 555747 4793.86 0 554530 3992.47 0 553534 3192.4 0 552761 2393.38 0 552208 1595.15 0 551877 797.442 0 551766 0 0 1.19354e+06 -121790 0 1.2805e+06 -93952.5 0 1.32549e+06 -108845 0 1.36872e+06 -121348 0 1.41078e+06 -125957 0 1.45147e+06 -126560 0 1.48988e+06 -123073 0 1.52578e+06 -117431 0 1.55893e+06 -110030 0 1.58928e+06 -101660 0 1.61676e+06 -92597.8 0 1.64137e+06 -83183.9 0 1.66313e+06 -73585.5 0 1.68206e+06 -63966.8 0 1.69823e+06 -54430 0 1.7117e+06 -45066 0 1.72253e+06 -35940 0 1.73084e+06 -27107.3 0 1.73671e+06 -18609.8 0 1.74025e+06 -10481.4 0 1.74158e+06 -2747.41 0 1.74082e+06 4573.48 0 1.73808e+06 11469.1 0 1.7335e+06 17932.5 0 1.7272e+06 23962 0 1.71931e+06 29560 0 1.70994e+06 34732.6 0 1.69922e+06 39489.1 0 1.68725e+06 43841.4 0 1.67416e+06 47803.4 0 1.66005e+06 51390.8 0 1.64503e+06 54620.3 0 1.62918e+06 57509.6 0 1.6126e+06 60076.8 0 1.59538e+06 62340.3 0 1.5776e+06 64318.4 0 1.55933e+06 66029.1 0 1.54065e+06 67490.3 0 1.52161e+06 68719.1 0 1.50229e+06 69732.1 0 1.48274e+06 70545.3 0 1.463e+06 71173.7 0 1.44314e+06 71632 0 1.42318e+06 71933.6 0 1.40318e+06 72091.4 0 1.38317e+06 72117.5 0 1.36317e+06 72023.3 0 1.34324e+06 71819.2 0 1.32338e+06 71515.2 0 1.30363e+06 71120.4 0 1.28402e+06 70643.2 0 1.26455e+06 70091.7 0 1.24525e+06 69473 0 1.22614e+06 68793.9 0 1.20723e+06 68060.6 0 1.18854e+06 67278.9 0 1.17007e+06 66454 0 1.15185e+06 65590.7 0 1.13387e+06 64693.6 0 1.11614e+06 63766.6 0 1.09868e+06 62813.6 0 1.08149e+06 61837.9 0 1.06458e+06 60842.7 0 1.04794e+06 59830.8 0 1.03159e+06 58804.8 0 1.01552e+06 57767.1 0 999747 56719.9 0 984263 55665.2 0 969072 54604.6 0 954176 53539.8 0 939576 52472.4 0 925271 51403.5 0 911262 50334.3 0 897548 49266 0 884130 48199.5 0 871006 47135.6 0 858175 46075.2 0 845637 45018.8 0 833389 43967.1 0 821432 42920.5 0 809762 41879.6 0 798378 40844.7 0 787279 39816.3 0 776463 38794.4 0 765927 37779.5 0 755670 36771.6 0 745690 35771 0 735984 34777.7 0 726552 33791.9 0 717389 32813.6 0 708495 31842.8 0 699868 30879.6 0 691504 29923.8 0 683403 28975.4 0 675562 28034.5 0 667978 27100.8 0 660651 26174.4 0 653578 25255 0 646757 24342.5 0 640186 23436.8 0 633863 22537.8 0 627787 21645.2 0 621955 20759 0 616367 19878.8 0 611020 19004.6 0 605913 18136 0 601043 17273 0 596411 16415.2 0 592014 15562.5 0 587850 14714.6 0 583919 13871.4 0 580220 13032.4 0 576751 12197.7 0 573511 11366.8 0 570498 10539.5 0 567713 9715.64 0 565154 8894.91 0 562821 8077.06 0 560712 7261.83 0 558826 6448.97 0 557164 5638.22 0 555725 4829.32 0 554508 4022.01 0 553513 3216.02 0 552739 2411.08 0 552187 1606.95 0 551855 803.341 0 551745 0 0 1.19793e+06 -122237 0 1.27998e+06 -95323.1 0 1.32528e+06 -110160 0 1.36859e+06 -122449 0 1.41083e+06 -127114 0 1.45162e+06 -127598 0 1.4901e+06 -124068 0 1.52605e+06 -118334 0 1.55923e+06 -110863 0 1.58959e+06 -102410 0 1.61707e+06 -93272.7 0 1.64168e+06 -83780.3 0 1.66343e+06 -74106.5 0 1.68236e+06 -64412.7 0 1.69852e+06 -54803.2 0 1.71197e+06 -45368.4 0 1.7228e+06 -36174.2 0 1.73109e+06 -27275.8 0 1.73694e+06 -18715.5 0 1.74047e+06 -10527.4 0 1.74178e+06 -2736.84 0 1.741e+06 4637.34 0 1.73825e+06 11582.9 0 1.73366e+06 18092.9 0 1.72735e+06 24165.8 0 1.71944e+06 29803.8 0 1.71005e+06 35013.2 0 1.69931e+06 39803.4 0 1.68734e+06 44186.4 0 1.67424e+06 48176.2 0 1.66011e+06 51788.7 0 1.64508e+06 55040.6 0 1.62922e+06 57949.9 0 1.61263e+06 60534.8 0 1.5954e+06 62813.7 0 1.57761e+06 64805.2 0 1.55934e+06 66527.4 0 1.54065e+06 67998.3 0 1.52161e+06 69235.2 0 1.50228e+06 70254.7 0 1.48272e+06 71073 0 1.46298e+06 71705.3 0 1.44311e+06 72166.1 0 1.42315e+06 72469.2 0 1.40315e+06 72627.6 0 1.38313e+06 72653.3 0 1.36314e+06 72557.8 0 1.3432e+06 72351.8 0 1.32334e+06 72045 0 1.30359e+06 71646.9 0 1.28397e+06 71165.8 0 1.2645e+06 70609.9 0 1.2452e+06 69986.3 0 1.22609e+06 69301.9 0 1.20718e+06 68563 0 1.18849e+06 67775.2 0 1.17002e+06 66944 0 1.1518e+06 66074.2 0 1.13382e+06 65170.3 0 1.11609e+06 64236.4 0 1.09863e+06 63276.2 0 1.08144e+06 62293.2 0 1.06453e+06 61290.5 0 1.04789e+06 60271.1 0 1.03154e+06 59237.5 0 1.01547e+06 58192.1 0 999698 57137.1 0 984215 56074.5 0 969025 55006.1 0 954129 53933.5 0 939529 52858.1 0 925225 51781.3 0 911217 50704.2 0 897504 49628.1 0 884086 48553.7 0 870963 47482 0 858133 46413.7 0 845595 45349.5 0 833349 44290 0 821391 43235.8 0 809722 42187.2 0 798339 41144.7 0 787241 40108.7 0 776425 39079.3 0 765890 38056.9 0 755634 37041.7 0 745654 36033.7 0 735950 35033.1 0 726517 34040.1 0 717356 33054.6 0 708462 32076.7 0 699835 31106.3 0 691472 30143.5 0 683372 29188.2 0 675531 28240.3 0 667948 27299.8 0 660621 26366.5 0 653549 25440.4 0 646728 24521.2 0 640158 23608.9 0 633835 22703.3 0 627760 21804.2 0 621929 20911.4 0 616341 20024.8 0 610994 19144.1 0 605887 18269.2 0 601018 17399.8 0 596386 16535.7 0 591989 15676.8 0 587826 14822.7 0 583895 13973.2 0 580196 13128.1 0 576727 12287.2 0 573487 11450.2 0 570475 10616.9 0 567690 9786.98 0 565132 8960.22 0 562798 8136.36 0 560689 7315.15 0 558804 6496.32 0 557142 5679.62 0 555703 4864.78 0 554486 4051.54 0 553491 3239.63 0 552717 2428.79 0 552165 1618.75 0 551834 809.24 0 551723 0 0 1.20199e+06 -122652 0 1.27952e+06 -96693 0 1.32506e+06 -111464 0 1.36846e+06 -123563 0 1.41089e+06 -128270 0 1.45176e+06 -128641 0 1.49033e+06 -125063 0 1.52632e+06 -119238 0 1.55953e+06 -111697 0 1.5899e+06 -103161 0 1.61739e+06 -93947.3 0 1.642e+06 -84376.5 0 1.66375e+06 -74627 0 1.68267e+06 -64858.2 0 1.69881e+06 -55176 0 1.71225e+06 -45670.4 0 1.72307e+06 -36407.8 0 1.73134e+06 -27443.7 0 1.73718e+06 -18820.7 0 1.74069e+06 -10572.8 0 1.74199e+06 -2725.71 0 1.74119e+06 4701.75 0 1.73843e+06 11697.2 0 1.73382e+06 18253.9 0 1.72749e+06 24370 0 1.71956e+06 30048 0 1.71016e+06 35294.2 0 1.69941e+06 40118.1 0 1.68742e+06 44531.8 0 1.67431e+06 48549.4 0 1.66018e+06 52186.9 0 1.64513e+06 55461.3 0 1.62926e+06 58390.5 0 1.61266e+06 60993 0 1.59542e+06 63287.4 0 1.57763e+06 65292.2 0 1.55934e+06 67025.9 0 1.54065e+06 68506.5 0 1.5216e+06 69751.4 0 1.50227e+06 70777.4 0 1.4827e+06 71600.8 0 1.46296e+06 72236.9 0 1.44308e+06 72700.4 0 1.42312e+06 73005 0 1.40311e+06 73163.8 0 1.38309e+06 73189.2 0 1.3631e+06 73092.4 0 1.34316e+06 72884.4 0 1.3233e+06 72574.9 0 1.30354e+06 72173.4 0 1.28392e+06 71688.5 0 1.26445e+06 71128.1 0 1.24515e+06 70499.6 0 1.22604e+06 69809.9 0 1.20713e+06 69065.3 0 1.18844e+06 68271.6 0 1.16997e+06 67434.1 0 1.15174e+06 66557.7 0 1.13376e+06 65647 0 1.11604e+06 64706.1 0 1.09858e+06 63738.8 0 1.08139e+06 62748.5 0 1.06447e+06 61738.4 0 1.04784e+06 60711.4 0 1.03149e+06 59670.1 0 1.01542e+06 58617 0 999649 57554.3 0 984166 56483.9 0 968977 55407.6 0 954082 54327.1 0 939483 53243.8 0 925179 52159.1 0 911171 51074.1 0 897459 49990.1 0 884042 48907.8 0 870920 47828.3 0 858090 46752.2 0 845553 45680.2 0 833307 44613 0 821351 43551 0 809682 42494.8 0 798300 41444.7 0 787203 40401.1 0 776388 39364.2 0 765853 38334.4 0 755598 37311.7 0 745619 36296.4 0 735915 35288.5 0 726483 34288.2 0 717322 33295.5 0 708429 32310.5 0 699803 31333 0 691440 30363.2 0 683340 29400.9 0 675500 28446.2 0 667918 27498.8 0 660592 26558.7 0 653519 25625.8 0 646699 24700 0 640129 23781 0 633808 22868.8 0 627732 21963.1 0 621902 21063.8 0 616314 20170.7 0 610968 19283.6 0 605861 18402.3 0 600993 17526.6 0 596361 16656.2 0 591964 15791 0 587801 14930.7 0 583871 14075 0 580172 13223.8 0 576704 12376.8 0 573464 11533.7 0 570452 10694.3 0 567668 9858.31 0 565109 9025.53 0 562776 8195.66 0 560667 7368.47 0 558782 6543.67 0 557120 5721.02 0 555681 4900.24 0 554464 4081.07 0 553469 3263.24 0 552696 2446.49 0 552143 1630.54 0 551812 815.138 0 551701 0 0 1.20576e+06 -123036 0 1.27911e+06 -98060 0 1.32483e+06 -112759 0 1.36835e+06 -124689 0 1.41094e+06 -129424 0 1.45192e+06 -129688 0 1.49056e+06 -126058 0 1.52659e+06 -120144 0 1.55983e+06 -112530 0 1.59021e+06 -103912 0 1.61771e+06 -94621.7 0 1.64232e+06 -84972.5 0 1.66406e+06 -75147.1 0 1.68297e+06 -65303.3 0 1.69911e+06 -55548.3 0 1.71254e+06 -45971.8 0 1.72333e+06 -36641 0 1.73159e+06 -27611.1 0 1.73742e+06 -18925.3 0 1.74091e+06 -10617.6 0 1.74219e+06 -2714.03 0 1.74138e+06 4766.7 0 1.7386e+06 11812.1 0 1.73397e+06 18415.4 0 1.72763e+06 24574.7 0 1.71969e+06 30292.7 0 1.71028e+06 35575.7 0 1.69951e+06 40433.3 0 1.68751e+06 44877.6 0 1.67438e+06 48923 0 1.66024e+06 52585.5 0 1.64518e+06 55882.3 0 1.6293e+06 58831.4 0 1.61269e+06 61451.5 0 1.59545e+06 63761.3 0 1.57764e+06 65779.5 0 1.55935e+06 67524.7 0 1.54065e+06 69014.9 0 1.52159e+06 70267.8 0 1.50226e+06 71300.4 0 1.48269e+06 72128.8 0 1.46294e+06 72768.7 0 1.44306e+06 73234.7 0 1.42309e+06 73540.9 0 1.40308e+06 73700.2 0 1.38306e+06 73725.1 0 1.36306e+06 73627.1 0 1.34311e+06 73417 0 1.32325e+06 73104.9 0 1.3035e+06 72700 0 1.28388e+06 72211.1 0 1.26441e+06 71646.3 0 1.24511e+06 71013 0 1.22599e+06 70318 0 1.20708e+06 69567.7 0 1.18839e+06 68768 0 1.16992e+06 67924.2 0 1.15169e+06 67041.3 0 1.13371e+06 66123.8 0 1.11599e+06 65175.9 0 1.09853e+06 64201.4 0 1.08134e+06 63203.7 0 1.06442e+06 62186.2 0 1.04779e+06 61151.7 0 1.03144e+06 60102.8 0 1.01537e+06 59042 0 999600 57971.4 0 984117 56893.2 0 968929 55809 0 954035 54720.6 0 939436 53629.5 0 925133 52536.8 0 911126 51444 0 897414 50352.1 0 883998 49262 0 870876 48174.6 0 858047 47090.6 0 845511 46010.9 0 833266 44935.9 0 821310 43866.3 0 809642 42802.4 0 798261 41744.7 0 787164 40693.5 0 776350 39649.1 0 765816 38611.8 0 755561 37581.7 0 745583 36559 0 735879 35543.9 0 726448 34536.3 0 717288 33536.4 0 708396 32544.2 0 699770 31559.7 0 691408 30582.9 0 683309 29613.7 0 675469 28652 0 667887 27697.8 0 660562 26750.9 0 653490 25811.2 0 646670 24878.7 0 640101 23953 0 633780 23034.2 0 627705 22122 0 621875 21216.2 0 616287 20316.7 0 610941 19423.1 0 605835 18535.5 0 600967 17653.4 0 596336 16776.8 0 591939 15905.3 0 587777 15038.7 0 583847 14176.9 0 580148 13319.5 0 576680 12466.3 0 573440 11617.1 0 570429 10771.7 0 567644 9929.64 0 565086 9090.83 0 562753 8254.96 0 560644 7421.78 0 558759 6591.02 0 557098 5762.41 0 555659 4935.69 0 554442 4110.6 0 553447 3286.85 0 552674 2464.19 0 552121 1642.34 0 551790 821.035 0 551680 0 0 1.20925e+06 -123393 0 1.27874e+06 -99422 0 1.3246e+06 -114046 0 1.36823e+06 -125826 0 1.411e+06 -130578 0 1.45207e+06 -130740 0 1.49079e+06 -127053 0 1.52686e+06 -121051 0 1.56013e+06 -113363 0 1.59053e+06 -104663 0 1.61803e+06 -95295.9 0 1.64264e+06 -85568.2 0 1.66437e+06 -75666.9 0 1.68328e+06 -65748 0 1.6994e+06 -55920.1 0 1.71282e+06 -46272.7 0 1.7236e+06 -36873.5 0 1.73185e+06 -27778 0 1.73766e+06 -19029.3 0 1.74113e+06 -10661.9 0 1.7424e+06 -2701.79 0 1.74157e+06 4832.2 0 1.73877e+06 11927.5 0 1.73413e+06 18577.4 0 1.72777e+06 24780 0 1.71982e+06 30537.9 0 1.71039e+06 35857.7 0 1.69961e+06 40748.9 0 1.6876e+06 45223.8 0 1.67446e+06 49297 0 1.6603e+06 52984.4 0 1.64523e+06 56303.6 0 1.62934e+06 59272.7 0 1.61272e+06 61910.3 0 1.59547e+06 64235.5 0 1.57765e+06 66267 0 1.55936e+06 68023.6 0 1.54065e+06 69523.5 0 1.52159e+06 70784.4 0 1.50224e+06 71823.4 0 1.48267e+06 72657 0 1.46292e+06 73300.6 0 1.44303e+06 73769.2 0 1.42306e+06 74076.8 0 1.40305e+06 74236.7 0 1.38302e+06 74261.1 0 1.36302e+06 74161.9 0 1.34307e+06 73949.7 0 1.32321e+06 73634.8 0 1.30345e+06 73226.6 0 1.28383e+06 72733.9 0 1.26436e+06 72164.6 0 1.24506e+06 71526.4 0 1.22594e+06 70826.1 0 1.20703e+06 70070.1 0 1.18834e+06 69264.4 0 1.16987e+06 68414.3 0 1.15164e+06 67524.8 0 1.13366e+06 66600.5 0 1.11594e+06 65645.6 0 1.09848e+06 64663.9 0 1.08129e+06 63659 0 1.06437e+06 62634 0 1.04774e+06 61591.9 0 1.03139e+06 60535.4 0 1.01532e+06 59466.9 0 999550 58388.6 0 984069 57302.5 0 968880 56210.5 0 953987 55114.2 0 939389 54015.1 0 925086 52914.6 0 911080 51813.9 0 897369 50714 0 883954 49616.1 0 870832 48520.8 0 858004 47429.1 0 845469 46341.6 0 833224 45258.8 0 821269 44181.5 0 809602 43109.9 0 798222 42044.6 0 787125 40985.9 0 776312 39934 0 765779 38889.2 0 755524 37851.7 0 745547 36821.6 0 735844 35799.2 0 726414 34784.4 0 717254 33777.3 0 708362 32778 0 699737 31786.4 0 691376 30802.6 0 683277 29826.4 0 675438 28857.8 0 667857 27896.7 0 660531 26943 0 653460 25996.6 0 646641 25057.4 0 640072 24125.1 0 633751 23199.7 0 627677 22280.9 0 621847 21368.6 0 616260 20462.6 0 610915 19562.7 0 605809 18668.6 0 600941 17780.2 0 596310 16897.3 0 591914 16019.5 0 587752 15146.7 0 583822 14278.7 0 580124 13415.2 0 576656 12555.9 0 573417 11700.6 0 570405 10849 0 567621 10001 0 565063 9156.12 0 562730 8314.25 0 560622 7475.09 0 558737 6638.36 0 557075 5803.8 0 555637 4971.14 0 554420 4140.12 0 553425 3310.46 0 552652 2481.89 0 552099 1654.14 0 551768 826.933 0 551657 0 0 1.2125e+06 -123725 0 1.2784e+06 -100777 0 1.32436e+06 -115326 0 1.36812e+06 -126974 0 1.41106e+06 -131732 0 1.45223e+06 -131795 0 1.49102e+06 -128049 0 1.52714e+06 -121960 0 1.56044e+06 -114196 0 1.59085e+06 -105415 0 1.61835e+06 -95969.9 0 1.64296e+06 -86163.8 0 1.66469e+06 -76186.2 0 1.68359e+06 -66192.2 0 1.6997e+06 -56291.4 0 1.7131e+06 -46573.1 0 1.72387e+06 -37105.5 0 1.7321e+06 -27944.3 0 1.7379e+06 -19132.8 0 1.74136e+06 -10705.7 0 1.74261e+06 -2688.98 0 1.74176e+06 4898.26 0 1.73895e+06 12043.5 0 1.73429e+06 18739.9 0 1.72792e+06 24985.7 0 1.71995e+06 30783.6 0 1.71051e+06 36140.1 0 1.69971e+06 41064.9 0 1.68769e+06 45570.4 0 1.67453e+06 49671.3 0 1.66036e+06 53383.8 0 1.64528e+06 56725.3 0 1.62938e+06 59714.2 0 1.61276e+06 62369.4 0 1.59549e+06 64709.9 0 1.57767e+06 66754.8 0 1.55936e+06 68522.8 0 1.54065e+06 70032.3 0 1.52158e+06 71301.2 0 1.50223e+06 72346.7 0 1.48265e+06 73185.3 0 1.46289e+06 73832.7 0 1.44301e+06 74303.9 0 1.42303e+06 74612.9 0 1.40301e+06 74773.2 0 1.38298e+06 74797.2 0 1.36298e+06 74696.7 0 1.34303e+06 74482.5 0 1.32317e+06 74164.9 0 1.30341e+06 73753.3 0 1.28378e+06 73256.6 0 1.26431e+06 72682.9 0 1.24501e+06 72039.8 0 1.22589e+06 71334.2 0 1.20698e+06 70572.5 0 1.18829e+06 69760.8 0 1.16982e+06 68904.4 0 1.15159e+06 68008.3 0 1.13361e+06 67077.3 0 1.11589e+06 66115.4 0 1.09843e+06 65126.5 0 1.08124e+06 64114.3 0 1.06432e+06 63081.9 0 1.04769e+06 62032.2 0 1.03134e+06 60968 0 1.01527e+06 59891.8 0 999501 58805.7 0 984019 57711.8 0 968832 56611.9 0 953939 55507.7 0 939341 54400.8 0 925040 53292.3 0 911034 52183.7 0 897324 51076 0 883909 49970.2 0 870788 48867.1 0 857961 47767.5 0 845426 46672.2 0 833183 45581.7 0 821228 44496.7 0 809562 43417.5 0 798182 42344.5 0 787086 41278.2 0 776273 40218.8 0 765741 39166.5 0 755487 38121.6 0 745511 37084.3 0 735808 36054.5 0 726379 35032.5 0 717219 34018.2 0 708328 33011.8 0 699704 32013.1 0 691343 31022.2 0 683245 30039.1 0 675406 29063.6 0 667826 28095.6 0 660501 27135.1 0 653430 26182 0 646612 25236 0 640043 24297.1 0 633723 23365.1 0 627649 22439.8 0 621820 21521 0 616233 20608.5 0 610888 19702.2 0 605783 18801.7 0 600915 17907 0 596285 17017.7 0 591889 16133.7 0 587727 15254.7 0 583798 14380.5 0 580100 13510.8 0 576632 12645.4 0 573393 11784 0 570382 10926.4 0 567598 10072.3 0 565040 9221.41 0 562707 8373.54 0 560599 7528.39 0 558714 6685.7 0 557053 5845.19 0 555614 5006.59 0 554397 4169.64 0 553403 3334.07 0 552629 2499.59 0 552077 1665.93