<?xml version="1.0"?> 
<VTKFile type="StructuredGrid" version="0.1"> 
<StructuredGrid WholeExtent="0 127 0 127 0 0"> 
<Piece Extent="0 127 0 127 0 0"> 
<PointData>
<DataArray type="Float32" Name="E" format="ascii" NumberOfComponents="3"> 
-1.51596e+06 0 0 -1.5149e+06 11156.6 0 -1.51398e+06 22345 0 -1.51319e+06 33569.5 0 -1.51253e+06 44834.1 0 -1.512e+06 56143 0 -1.51159e+06 67500 0 -1.51131e+06 78909.2 0 -1.51115e+06 90374.1 0 -1.51111e+06 101898 0 -1.51118e+06 113486 0 -1.51137e+06 125139 0 -1.51167e+06 136862 0 -1.51208e+06 148657 0 -1.51259e+06 160528 0 -1.5132e+06 172478 0 -1.51391e+06 184508 0 -1.51472e+06 196622 0 -1.51562e+06 208821 0 -1.5166e+06 221108 0 -1.51767e+06 233485 0 -1.51882e+06 245954 0 -1.52004e+06 258516 0 -1.52134e+06 271173 0 -1.52271e+06 283926 0 -1.52414e+06 296776 0 -1.52564e+06 309724 0 -1.52719e+06 322771 0 -1.52879e+06 335917 0 -1.53045e+06 349163 0 -1.53215e+06 362510 0 -1.5339e+06 375957 0 -1.53569e+06 389503 0 -1.53751e+06 403150 0 -1.53936e+06 416897 0 -1.54124e+06 430742 0 -1.54315e+06 444686 0 -1.54508e+06 458728 0 -1.54702e+06 472866 0 -1.54899e+06 487099 0 -1.55096e+06 501427 0 -1.55295e+06 515848 0 -1.55494e+06 530361 0 -1.55693e+06 544963 0 -1.55893e+06 559655 0 -1.56092e+06 574432 0 -1.56291e+06 589295 0 -1.5649e+06 604241 0 -1.56687e+06 619268 0 -1.56884e+06 634374 0 -1.57079e+06 649557 0 -1.57272e+06 664814 0 -1.57465e+06 680145 0 -1.57655e+06 695545 0 -1.57843e+06 711014 0 -1.5803e+06 726549 0 -1.58214e+06 742147 0 -1.58395e+06 757805 0 -1.58575e+06 773523 0 -1.58752e+06 789297 0 -1.58926e+06 805124 0 -1.59097e+06 821003 0 -1.59266e+06 836930 0 -1.59432e+06 852904 0 -1.59595e+06 868922 0 -1.59755e+06 884980 0 -1.59912e+06 901078 0 -1.60067e+06 917212 0 -1.60218e+06 933380 0 -1.60367e+06 949580 0 -1.60513e+06 965808 0 -1.60656e+06 982063 0 -1.60796e+06 998341 0 -1.60933e+06 1.01464e+06 0 -1.61068e+06 1.03096e+06 0 -1.61199e+06 1.0473e+06 0 -1.61329e+06 1.06365e+06 0 -1.61456e+06 1.08001e+06 0 -1.6158e+06 1.09638e+06 0 -1.61703e+06 1.11276e+06 0 -1.61823e+06 1.12914e+06 0 -1.61941e+06 1.14553e+06 0 -1.62057e+06 1.16191e+06 0 -1.62172e+06 1.1783e+06 0 -1.62285e+06 1.19468e+06 0 -1.62396e+06 1.21105e+06 0 -1.62507e+06 1.22741e+06 0 -1.62616e+06 1.24376e+06 0 -1.62725e+06 1.2601e+06 0 -1.62832e+06 1.27643e+06 0 -1.6294e+06 1.29273e+06 0 -1.63047e+06 1.30902e+06 0 -1.63154e+06 1.32528e+06 0 -1.63262e+06 1.34152e+06 0 -1.6337e+06 1.35773e+06 0 -1.6348e+06 1.37392e+06 0 -1.6359e+06 1.39007e+06 0 -1.63702e+06 1.4062e+06 0 -1.63815e+06 1.42229e+06 0 -1.63931e+06 1.43834e+06 0 -1.6405e+06 1.45436e+06 0 -1.64171e+06 1.47034e+06 0 -1.64296e+06 1.48628e+06 0 -1.64424e+06 1.50218e+06 0 -1.64556e+06 1.51803e+06 0 -1.64693e+06 1.53384e+06 0 -1.64835e+06 1.54961e+06 0 -1.64982e+06 1.56532e+06 0 -1.65135e+06 1.58099e+06 0 -1.65295e+06 1.59661e+06 0 -1.65461e+06 1.61218e+06 0 -1.65636e+06 1.6277e+06 0 -1.65818e+06 1.64316e+06 0 -1.66009e+06 1.65858e+06 0 -1.66209e+06 1.67394e+06 0 -1.66419e+06 1.68925e+06 0 -1.66639e+06 1.7045e+06 0 -1.66871e+06 1.71971e+06 0 -1.67115e+06 1.73486e+06 0 -1.67372e+06 1.74996e+06 0 -1.67642e+06 1.76501e+06 0 -1.67926e+06 1.78001e+06 0 -1.68225e+06 1.79496e+06 0 -1.6854e+06 1.80986e+06 0 -1.68872e+06 1.82472e+06 0 -1.69221e+06 1.83953e+06 0 -1.69589e+06 1.8543e+06 0 -1.69976e+06 1.86903e+06 0 -1.50665e+06 0 0 -1.5056e+06 11327 0 -1.50467e+06 22685 0 -1.50387e+06 34078 0 -1.5032e+06 45510.2 0 -1.50266e+06 56985.5 0 -1.50224e+06 68507.9 0 -1.50194e+06 80081.1 0 -1.50176e+06 91708.8 0 -1.5017e+06 103395 0 -1.50175e+06 115142 0 -1.50192e+06 126954 0 -1.50219e+06 138834 0 -1.50258e+06 150785 0 -1.50306e+06 162810 0 -1.50364e+06 174911 0 -1.50432e+06 187092 0 -1.5051e+06 199355 0 -1.50596e+06 211701 0 -1.50691e+06 224134 0 -1.50794e+06 236654 0 -1.50906e+06 249265 0 -1.51025e+06 261966 0 -1.51151e+06 274761 0 -1.51284e+06 287650 0 -1.51423e+06 300634 0 -1.51568e+06 313714 0 -1.5172e+06 326891 0 -1.51876e+06 340165 0 -1.52038e+06 353538 0 -1.52204e+06 367009 0 -1.52374e+06 380578 0 -1.52549e+06 394245 0 -1.52727e+06 408010 0 -1.52908e+06 421873 0 -1.53092e+06 435834 0 -1.53279e+06 449890 0 -1.53467e+06 464043 0 -1.53658e+06 478290 0 -1.5385e+06 492631 0 -1.54044e+06 507065 0 -1.54238e+06 521590 0 -1.54434e+06 536205 0 -1.54629e+06 550908 0 -1.54825e+06 565699 0 -1.55021e+06 580574 0 -1.55216e+06 595533 0 -1.55411e+06 610573 0 -1.55606e+06 625694 0 -1.55799e+06 640891 0 -1.55991e+06 656165 0 -1.56181e+06 671512 0 -1.56371e+06 686930 0 -1.56558e+06 702418 0 -1.56744e+06 717972 0 -1.56928e+06 733591 0 -1.57109e+06 749272 0 -1.57289e+06 765014 0 -1.57466e+06 780813 0 -1.57641e+06 796667 0 -1.57813e+06 812574 0 -1.57982e+06 828531 0 -1.5815e+06 844537 0 -1.58314e+06 860588 0 -1.58476e+06 876682 0 -1.58635e+06 892817 0 -1.58791e+06 908989 0 -1.58945e+06 925198 0 -1.59095e+06 941440 0 -1.59244e+06 957713 0 -1.59389e+06 974014 0 -1.59532e+06 990341 0 -1.59672e+06 1.00669e+06 0 -1.59809e+06 1.02306e+06 0 -1.59944e+06 1.03945e+06 0 -1.60077e+06 1.05586e+06 0 -1.60207e+06 1.07228e+06 0 -1.60335e+06 1.08871e+06 0 -1.6046e+06 1.10516e+06 0 -1.60584e+06 1.1216e+06 0 -1.60706e+06 1.13806e+06 0 -1.60826e+06 1.15451e+06 0 -1.60944e+06 1.17097e+06 0 -1.61061e+06 1.18742e+06 0 -1.61176e+06 1.20387e+06 0 -1.6129e+06 1.22031e+06 0 -1.61403e+06 1.23674e+06 0 -1.61516e+06 1.25317e+06 0 -1.61628e+06 1.26957e+06 0 -1.61739e+06 1.28597e+06 0 -1.61851e+06 1.30234e+06 0 -1.61962e+06 1.3187e+06 0 -1.62074e+06 1.33504e+06 0 -1.62186e+06 1.35135e+06 0 -1.623e+06 1.36763e+06 0 -1.62414e+06 1.38389e+06 0 -1.6253e+06 1.40012e+06 0 -1.62648e+06 1.41632e+06 0 -1.62768e+06 1.43249e+06 0 -1.6289e+06 1.44862e+06 0 -1.63016e+06 1.46472e+06 0 -1.63144e+06 1.48078e+06 0 -1.63277e+06 1.4968e+06 0 -1.63413e+06 1.51278e+06 0 -1.63554e+06 1.52872e+06 0 -1.63699e+06 1.54461e+06 0 -1.63851e+06 1.56046e+06 0 -1.64008e+06 1.57627e+06 0 -1.64171e+06 1.59203e+06 0 -1.64341e+06 1.60774e+06 0 -1.64519e+06 1.62341e+06 0 -1.64704e+06 1.63902e+06 0 -1.64899e+06 1.65459e+06 0 -1.65102e+06 1.67011e+06 0 -1.65315e+06 1.68558e+06 0 -1.65539e+06 1.701e+06 0 -1.65773e+06 1.71638e+06 0 -1.6602e+06 1.7317e+06 0 -1.66279e+06 1.74698e+06 0 -1.66551e+06 1.76221e+06 0 -1.66837e+06 1.77739e+06 0 -1.67139e+06 1.79253e+06 0 -1.67455e+06 1.80762e+06 0 -1.67789e+06 1.82267e+06 0 -1.68139e+06 1.83769e+06 0 -1.68508e+06 1.85266e+06 0 -1.68896e+06 1.86761e+06 0 -1.69305e+06 1.88252e+06 0 -1.49726e+06 0 0 -1.4962e+06 11495.6 0 -1.49526e+06 23021.3 0 -1.49446e+06 34581.1 0 -1.49378e+06 46179.1 0 -1.49322e+06 57819.2 0 -1.49279e+06 69505.2 0 -1.49248e+06 81240.8 0 -1.49228e+06 93029.6 0 -1.49221e+06 104875 0 -1.49224e+06 116781 0 -1.49238e+06 128750 0 -1.49263e+06 140786 0 -1.49299e+06 152891 0 -1.49345e+06 165068 0 -1.494e+06 177321 0 -1.49465e+06 189651 0 -1.4954e+06 202061 0 -1.49623e+06 214553 0 -1.49715e+06 227130 0 -1.49815e+06 239793 0 -1.49923e+06 252544 0 -1.50038e+06 265384 0 -1.5016e+06 278316 0 -1.50289e+06 291339 0 -1.50425e+06 304456 0 -1.50567e+06 317668 0 -1.50714e+06 330974 0 -1.50867e+06 344376 0 -1.51024e+06 357874 0 -1.51186e+06 371469 0 -1.51353e+06 385159 0 -1.51523e+06 398947 0 -1.51697e+06 412830 0 -1.51874e+06 426809 0 -1.52055e+06 440884 0 -1.52237e+06 455053 0 -1.52422e+06 469316 0 -1.52609e+06 483673 0 -1.52797e+06 498121 0 -1.52987e+06 512661 0 -1.53178e+06 527290 0 -1.53369e+06 542007 0 -1.53561e+06 556811 0 -1.53754e+06 571701 0 -1.53946e+06 586674 0 -1.54138e+06 601729 0 -1.5433e+06 616865 0 -1.54521e+06 632078 0 -1.54711e+06 647368 0 -1.549e+06 662733 0 -1.55087e+06 678169 0 -1.55274e+06 693676 0 -1.55459e+06 709251 0 -1.55642e+06 724891 0 -1.55823e+06 740595 0 -1.56002e+06 756361 0 -1.5618e+06 772185 0 -1.56355e+06 788066 0 -1.56527e+06 804002 0 -1.56698e+06 819989 0 -1.56866e+06 836026 0 -1.57032e+06 852110 0 -1.57195e+06 868239 0 -1.57355e+06 884411 0 -1.57513e+06 900622 0 -1.57669e+06 916871 0 -1.57821e+06 933155 0 -1.57972e+06 949472 0 -1.58119e+06 965819 0 -1.58264e+06 982194 0 -1.58407e+06 998594 0 -1.58547e+06 1.01502e+06 0 -1.58685e+06 1.03146e+06 0 -1.5882e+06 1.04793e+06 0 -1.58953e+06 1.0644e+06 0 -1.59084e+06 1.0809e+06 0 -1.59213e+06 1.0974e+06 0 -1.5934e+06 1.11391e+06 0 -1.59465e+06 1.13043e+06 0 -1.59589e+06 1.14696e+06 0 -1.59711e+06 1.16348e+06 0 -1.59831e+06 1.18001e+06 0 -1.5995e+06 1.19654e+06 0 -1.60068e+06 1.21306e+06 0 -1.60185e+06 1.22957e+06 0 -1.60301e+06 1.24607e+06 0 -1.60417e+06 1.26257e+06 0 -1.60532e+06 1.27905e+06 0 -1.60647e+06 1.29551e+06 0 -1.60763e+06 1.31196e+06 0 -1.60879e+06 1.32839e+06 0 -1.60995e+06 1.3448e+06 0 -1.61112e+06 1.36119e+06 0 -1.61231e+06 1.37755e+06 0 -1.61351e+06 1.39389e+06 0 -1.61472e+06 1.41019e+06 0 -1.61596e+06 1.42647e+06 0 -1.61723e+06 1.44272e+06 0 -1.61852e+06 1.45893e+06 0 -1.61985e+06 1.47511e+06 0 -1.62121e+06 1.49125e+06 0 -1.62261e+06 1.50735e+06 0 -1.62405e+06 1.52342e+06 0 -1.62555e+06 1.53944e+06 0 -1.62709e+06 1.55543e+06 0 -1.6287e+06 1.57137e+06 0 -1.63037e+06 1.58727e+06 0 -1.6321e+06 1.60313e+06 0 -1.63391e+06 1.61894e+06 0 -1.6358e+06 1.63471e+06 0 -1.63777e+06 1.65043e+06 0 -1.63984e+06 1.6661e+06 0 -1.642e+06 1.68173e+06 0 -1.64426e+06 1.69732e+06 0 -1.64663e+06 1.71286e+06 0 -1.64912e+06 1.72835e+06 0 -1.65173e+06 1.7438e+06 0 -1.65447e+06 1.75921e+06 0 -1.65735e+06 1.77458e+06 0 -1.66038e+06 1.7899e+06 0 -1.66356e+06 1.80519e+06 0 -1.66691e+06 1.82044e+06 0 -1.67042e+06 1.83565e+06 0 -1.67412e+06 1.85083e+06 0 -1.678e+06 1.86598e+06 0 -1.68209e+06 1.8811e+06 0 -1.68638e+06 1.8962e+06 0 -1.48777e+06 0 0 -1.48671e+06 11662.4 0 -1.48577e+06 23354 0 -1.48496e+06 35078.9 0 -1.48427e+06 46841 0 -1.48371e+06 58644.1 0 -1.48326e+06 70492.1 0 -1.48294e+06 82388.5 0 -1.48272e+06 94337 0 -1.48263e+06 106341 0 -1.48264e+06 118404 0 -1.48276e+06 130528 0 -1.48299e+06 142718 0 -1.48332e+06 154976 0 -1.48376e+06 167305 0 -1.48429e+06 179707 0 -1.48491e+06 192185 0 -1.48562e+06 204741 0 -1.48643e+06 217378 0 -1.48731e+06 230098 0 -1.48828e+06 242902 0 -1.48932e+06 255792 0 -1.49044e+06 268771 0 -1.49163e+06 281838 0 -1.49289e+06 294996 0 -1.49421e+06 308245 0 -1.49559e+06 321587 0 -1.49702e+06 335022 0 -1.49851e+06 348551 0 -1.50005e+06 362173 0 -1.50163e+06 375891 0 -1.50326e+06 389703 0 -1.50492e+06 403610 0 -1.50662e+06 417611 0 -1.50836e+06 431706 0 -1.51012e+06 445894 0 -1.51191e+06 460176 0 -1.51372e+06 474550 0 -1.51555e+06 489015 0 -1.5174e+06 503571 0 -1.51926e+06 518216 0 -1.52113e+06 532949 0 -1.52301e+06 547769 0 -1.52489e+06 562674 0 -1.52678e+06 577663 0 -1.52867e+06 592734 0 -1.53056e+06 607886 0 -1.53244e+06 623116 0 -1.53432e+06 638424 0 -1.53619e+06 653806 0 -1.53806e+06 669262 0 -1.53991e+06 684788 0 -1.54174e+06 700384 0 -1.54356e+06 716046 0 -1.54537e+06 731774 0 -1.54716e+06 747563 0 -1.54893e+06 763413 0 -1.55068e+06 779321 0 -1.55241e+06 795285 0 -1.55412e+06 811303 0 -1.55581e+06 827371 0 -1.55748e+06 843488 0 -1.55912e+06 859652 0 -1.56074e+06 875860 0 -1.56233e+06 892109 0 -1.5639e+06 908398 0 -1.56545e+06 924724 0 -1.56697e+06 941084 0 -1.56847e+06 957477 0 -1.56994e+06 973899 0 -1.57139e+06 990349 0 -1.57282e+06 1.00682e+06 0 -1.57422e+06 1.02332e+06 0 -1.5756e+06 1.03984e+06 0 -1.57696e+06 1.05638e+06 0 -1.5783e+06 1.07293e+06 0 -1.57962e+06 1.08949e+06 0 -1.58092e+06 1.10607e+06 0 -1.5822e+06 1.12266e+06 0 -1.58347e+06 1.13925e+06 0 -1.58472e+06 1.15585e+06 0 -1.58596e+06 1.17245e+06 0 -1.58718e+06 1.18905e+06 0 -1.5884e+06 1.20564e+06 0 -1.5896e+06 1.22224e+06 0 -1.5908e+06 1.23882e+06 0 -1.592e+06 1.2554e+06 0 -1.59319e+06 1.27197e+06 0 -1.59438e+06 1.28852e+06 0 -1.59557e+06 1.30506e+06 0 -1.59676e+06 1.32159e+06 0 -1.59797e+06 1.33809e+06 0 -1.59918e+06 1.35458e+06 0 -1.6004e+06 1.37104e+06 0 -1.60164e+06 1.38748e+06 0 -1.60289e+06 1.4039e+06 0 -1.60417e+06 1.42028e+06 0 -1.60547e+06 1.43664e+06 0 -1.6068e+06 1.45297e+06 0 -1.60816e+06 1.46927e+06 0 -1.60956e+06 1.48553e+06 0 -1.61099e+06 1.50176e+06 0 -1.61247e+06 1.51795e+06 0 -1.614e+06 1.5341e+06 0 -1.61558e+06 1.55022e+06 0 -1.61722e+06 1.5663e+06 0 -1.61892e+06 1.58234e+06 0 -1.62069e+06 1.59833e+06 0 -1.62253e+06 1.61429e+06 0 -1.62445e+06 1.63021e+06 0 -1.62645e+06 1.64608e+06 0 -1.62854e+06 1.66191e+06 0 -1.63072e+06 1.6777e+06 0 -1.63301e+06 1.69345e+06 0 -1.6354e+06 1.70915e+06 0 -1.63791e+06 1.72482e+06 0 -1.64054e+06 1.74044e+06 0 -1.6433e+06 1.75602e+06 0 -1.6462e+06 1.77157e+06 0 -1.64924e+06 1.78708e+06 0 -1.65243e+06 1.80255e+06 0 -1.65578e+06 1.81799e+06 0 -1.6593e+06 1.8334e+06 0 -1.663e+06 1.84879e+06 0 -1.66688e+06 1.86414e+06 0 -1.67096e+06 1.87948e+06 0 -1.67525e+06 1.89479e+06 0 -1.67975e+06 1.91009e+06 0 -1.4782e+06 0 0 -1.47714e+06 11827.5 0 -1.47619e+06 23683.3 0 -1.47538e+06 35571.6 0 -1.47468e+06 47496.1 0 -1.47411e+06 59460.7 0 -1.47365e+06 71469 0 -1.47331e+06 83524.7 0 -1.47308e+06 95631.2 0 -1.47297e+06 107792 0 -1.47296e+06 120010 0 -1.47307e+06 132289 0 -1.47327e+06 144632 0 -1.47358e+06 157041 0 -1.47399e+06 169519 0 -1.47449e+06 182070 0 -1.47509e+06 194695 0 -1.47578e+06 207396 0 -1.47655e+06 220177 0 -1.4774e+06 233038 0 -1.47834e+06 245983 0 -1.47935e+06 259012 0 -1.48044e+06 272126 0 -1.48159e+06 285329 0 -1.48281e+06 298620 0 -1.4841e+06 312001 0 -1.48544e+06 325472 0 -1.48684e+06 339035 0 -1.48829e+06 352690 0 -1.4898e+06 366437 0 -1.49134e+06 380277 0 -1.49293e+06 394210 0 -1.49456e+06 408235 0 -1.49622e+06 422354 0 -1.49792e+06 436564 0 -1.49964e+06 450867 0 -1.5014e+06 465260 0 -1.50317e+06 479745 0 -1.50496e+06 494319 0 -1.50678e+06 508981 0 -1.5086e+06 523732 0 -1.51044e+06 538569 0 -1.51228e+06 553491 0 -1.51414e+06 568497 0 -1.51599e+06 583586 0 -1.51785e+06 598755 0 -1.51971e+06 614003 0 -1.52156e+06 629329 0 -1.52341e+06 644731 0 -1.52525e+06 660206 0 -1.52708e+06 675753 0 -1.52891e+06 691370 0 -1.53072e+06 707055 0 -1.53252e+06 722806 0 -1.5343e+06 738620 0 -1.53607e+06 754496 0 -1.53782e+06 770431 0 -1.53955e+06 786424 0 -1.54126e+06 802471 0 -1.54295e+06 818571 0 -1.54463e+06 834721 0 -1.54628e+06 850919 0 -1.54791e+06 867163 0 -1.54951e+06 883451 0 -1.5511e+06 899779 0 -1.55266e+06 916146 0 -1.5542e+06 932550 0 -1.55571e+06 948988 0 -1.55721e+06 965457 0 -1.55868e+06 981956 0 -1.56013e+06 998482 0 -1.56156e+06 1.01503e+06 0 -1.56296e+06 1.03161e+06 0 -1.56435e+06 1.0482e+06 0 -1.56572e+06 1.06481e+06 0 -1.56707e+06 1.08144e+06 0 -1.56839e+06 1.09808e+06 0 -1.56971e+06 1.11473e+06 0 -1.57101e+06 1.13139e+06 0 -1.57229e+06 1.14806e+06 0 -1.57356e+06 1.16473e+06 0 -1.57482e+06 1.1814e+06 0 -1.57606e+06 1.19807e+06 0 -1.5773e+06 1.21475e+06 0 -1.57854e+06 1.23141e+06 0 -1.57977e+06 1.24807e+06 0 -1.58099e+06 1.26473e+06 0 -1.58222e+06 1.28137e+06 0 -1.58344e+06 1.298e+06 0 -1.58467e+06 1.31462e+06 0 -1.58591e+06 1.33122e+06 0 -1.58716e+06 1.34781e+06 0 -1.58842e+06 1.36437e+06 0 -1.58969e+06 1.38091e+06 0 -1.59098e+06 1.39743e+06 0 -1.59229e+06 1.41393e+06 0 -1.59363e+06 1.4304e+06 0 -1.595e+06 1.44684e+06 0 -1.59639e+06 1.46325e+06 0 -1.59782e+06 1.47963e+06 0 -1.59929e+06 1.49598e+06 0 -1.60081e+06 1.5123e+06 0 -1.60237e+06 1.52859e+06 0 -1.60398e+06 1.54483e+06 0 -1.60565e+06 1.56105e+06 0 -1.60738e+06 1.57722e+06 0 -1.60917e+06 1.59336e+06 0 -1.61104e+06 1.60946e+06 0 -1.61299e+06 1.62552e+06 0 -1.61501e+06 1.64155e+06 0 -1.61712e+06 1.65753e+06 0 -1.61933e+06 1.67348e+06 0 -1.62164e+06 1.68938e+06 0 -1.62405e+06 1.70525e+06 0 -1.62658e+06 1.72109e+06 0 -1.62923e+06 1.73688e+06 0 -1.632e+06 1.75264e+06 0 -1.63491e+06 1.76836e+06 0 -1.63796e+06 1.78406e+06 0 -1.64115e+06 1.79972e+06 0 -1.64451e+06 1.81535e+06 0 -1.64803e+06 1.83095e+06 0 -1.65173e+06 1.84653e+06 0 -1.65561e+06 1.86209e+06 0 -1.65968e+06 1.87764e+06 0 -1.66396e+06 1.89316e+06 0 -1.66845e+06 1.90868e+06 0 -1.67315e+06 1.9242e+06 0 -1.46855e+06 0 0 -1.46748e+06 11990.8 0 -1.46653e+06 24009.3 0 -1.46571e+06 36059.3 0 -1.46501e+06 48144.6 0 -1.46442e+06 60269.1 0 -1.46395e+06 72436.2 0 -1.4636e+06 84649.6 0 -1.46336e+06 96912.6 0 -1.46323e+06 109229 0 -1.46321e+06 121601 0 -1.46329e+06 134033 0 -1.46348e+06 146527 0 -1.46377e+06 159086 0 -1.46415e+06 171713 0 -1.46463e+06 184411 0 -1.4652e+06 197181 0 -1.46586e+06 210027 0 -1.4666e+06 222950 0 -1.46743e+06 235952 0 -1.46833e+06 249036 0 -1.46931e+06 262202 0 -1.47037e+06 275453 0 -1.47149e+06 288789 0 -1.47268e+06 302213 0 -1.47393e+06 315724 0 -1.47524e+06 329324 0 -1.4766e+06 343015 0 -1.47802e+06 356795 0 -1.47949e+06 370666 0 -1.481e+06 384628 0 -1.48255e+06 398681 0 -1.48414e+06 412825 0 -1.48577e+06 427060 0 -1.48743e+06 441386 0 -1.48912e+06 455802 0 -1.49084e+06 470307 0 -1.49258e+06 484902 0 -1.49433e+06 499584 0 -1.49611e+06 514354 0 -1.4979e+06 529210 0 -1.49971e+06 544151 0 -1.50152e+06 559176 0 -1.50334e+06 574283 0 -1.50516e+06 589471 0 -1.50699e+06 604738 0 -1.50882e+06 620084 0 -1.51064e+06 635505 0 -1.51246e+06 651001 0 -1.51428e+06 666569 0 -1.51608e+06 682208 0 -1.51788e+06 697916 0 -1.51967e+06 713691 0 -1.52144e+06 729530 0 -1.5232e+06 745433 0 -1.52495e+06 761395 0 -1.52668e+06 777416 0 -1.52839e+06 793493 0 -1.53009e+06 809625 0 -1.53177e+06 825808 0 -1.53342e+06 842040 0 -1.53506e+06 858320 0 -1.53668e+06 874646 0 -1.53827e+06 891013 0 -1.53985e+06 907422 0 -1.5414e+06 923868 0 -1.54294e+06 940350 0 -1.54445e+06 956866 0 -1.54594e+06 973414 0 -1.54741e+06 989990 0 -1.54886e+06 1.00659e+06 0 -1.55029e+06 1.02322e+06 0 -1.5517e+06 1.03987e+06 0 -1.55309e+06 1.05654e+06 0 -1.55447e+06 1.07323e+06 0 -1.55583e+06 1.08993e+06 0 -1.55717e+06 1.10664e+06 0 -1.55849e+06 1.12337e+06 0 -1.55981e+06 1.14011e+06 0 -1.56111e+06 1.15685e+06 0 -1.5624e+06 1.1736e+06 0 -1.56368e+06 1.19035e+06 0 -1.56495e+06 1.2071e+06 0 -1.56621e+06 1.22384e+06 0 -1.56747e+06 1.24059e+06 0 -1.56873e+06 1.25733e+06 0 -1.56999e+06 1.27406e+06 0 -1.57125e+06 1.29078e+06 0 -1.57252e+06 1.30749e+06 0 -1.57379e+06 1.32418e+06 0 -1.57507e+06 1.34087e+06 0 -1.57636e+06 1.35753e+06 0 -1.57767e+06 1.37418e+06 0 -1.579e+06 1.3908e+06 0 -1.58034e+06 1.4074e+06 0 -1.58171e+06 1.42398e+06 0 -1.58311e+06 1.44054e+06 0 -1.58454e+06 1.45707e+06 0 -1.586e+06 1.47357e+06 0 -1.5875e+06 1.49004e+06 0 -1.58905e+06 1.50648e+06 0 -1.59064e+06 1.52289e+06 0 -1.59228e+06 1.53927e+06 0 -1.59398e+06 1.55562e+06 0 -1.59574e+06 1.57193e+06 0 -1.59756e+06 1.5882e+06 0 -1.59945e+06 1.60445e+06 0 -1.60142e+06 1.62065e+06 0 -1.60347e+06 1.63683e+06 0 -1.6056e+06 1.65296e+06 0 -1.60783e+06 1.66906e+06 0 -1.61016e+06 1.68513e+06 0 -1.61259e+06 1.70116e+06 0 -1.61513e+06 1.71716e+06 0 -1.61779e+06 1.73312e+06 0 -1.62057e+06 1.74906e+06 0 -1.62349e+06 1.76496e+06 0 -1.62654e+06 1.78083e+06 0 -1.62975e+06 1.79667e+06 0 -1.6331e+06 1.81249e+06 0 -1.63662e+06 1.82829e+06 0 -1.64031e+06 1.84407e+06 0 -1.64419e+06 1.85983e+06 0 -1.64825e+06 1.87558e+06 0 -1.65251e+06 1.89131e+06 0 -1.65698e+06 1.90704e+06 0 -1.66166e+06 1.92278e+06 0 -1.66658e+06 1.93851e+06 0 -1.45881e+06 0 0 -1.45774e+06 12152.6 0 -1.45679e+06 24332 0 -1.45596e+06 36542.1 0 -1.45525e+06 48786.8 0 -1.45466e+06 61069.5 0 -1.45418e+06 73393.9 0 -1.45382e+06 85763.6 0 -1.45356e+06 98181.8 0 -1.45342e+06 110652 0 -1.45338e+06 123177 0 -1.45344e+06 135760 0 -1.45361e+06 148404 0 -1.45387e+06 161112 0 -1.45424e+06 173887 0 -1.45469e+06 186730 0 -1.45524e+06 199645 0 -1.45587e+06 212634 0 -1.45659e+06 225698 0 -1.45738e+06 238840 0 -1.45826e+06 252062 0 -1.45921e+06 265365 0 -1.46023e+06 278750 0 -1.46133e+06 292220 0 -1.46248e+06 305775 0 -1.4637e+06 319416 0 -1.46498e+06 333145 0 -1.46631e+06 346962 0 -1.46769e+06 360867 0 -1.46912e+06 374861 0 -1.4706e+06 388944 0 -1.47212e+06 403117 0 -1.47368e+06 417379 0 -1.47527e+06 431731 0 -1.47689e+06 446171 0 -1.47855e+06 460700 0 -1.48023e+06 475318 0 -1.48194e+06 490022 0 -1.48366e+06 504813 0 -1.48541e+06 519690 0 -1.48716e+06 534651 0 -1.48893e+06 549696 0 -1.49072e+06 564823 0 -1.4925e+06 580031 0 -1.4943e+06 595319 0 -1.4961e+06 610685 0 -1.49789e+06 626128 0 -1.49969e+06 641645 0 -1.50148e+06 657236 0 -1.50327e+06 672897 0 -1.50505e+06 688629 0 -1.50683e+06 704428 0 -1.50859e+06 720293 0 -1.51034e+06 736221 0 -1.51208e+06 752212 0 -1.51381e+06 768262 0 -1.51552e+06 784369 0 -1.51722e+06 800532 0 -1.5189e+06 816748 0 -1.52056e+06 833015 0 -1.5222e+06 849331 0 -1.52383e+06 865693 0 -1.52543e+06 882100 0 -1.52702e+06 898549 0 -1.52859e+06 915038 0 -1.53014e+06 931565 0 -1.53166e+06 948127 0 -1.53317e+06 964722 0 -1.53466e+06 981348 0 -1.53613e+06 998003 0 -1.53758e+06 1.01468e+06 0 -1.53902e+06 1.03139e+06 0 -1.54043e+06 1.04812e+06 0 -1.54183e+06 1.06486e+06 0 -1.54321e+06 1.08163e+06 0 -1.54458e+06 1.09841e+06 0 -1.54594e+06 1.1152e+06 0 -1.54728e+06 1.132e+06 0 -1.54861e+06 1.14882e+06 0 -1.54992e+06 1.16564e+06 0 -1.55123e+06 1.18246e+06 0 -1.55254e+06 1.19929e+06 0 -1.55383e+06 1.21611e+06 0 -1.55513e+06 1.23294e+06 0 -1.55642e+06 1.24976e+06 0 -1.55771e+06 1.26658e+06 0 -1.559e+06 1.28339e+06 0 -1.5603e+06 1.30019e+06 0 -1.5616e+06 1.31698e+06 0 -1.56291e+06 1.33376e+06 0 -1.56424e+06 1.35052e+06 0 -1.56558e+06 1.36727e+06 0 -1.56694e+06 1.384e+06 0 -1.56831e+06 1.40071e+06 0 -1.56972e+06 1.4174e+06 0 -1.57114e+06 1.43406e+06 0 -1.5726e+06 1.45071e+06 0 -1.5741e+06 1.46732e+06 0 -1.57563e+06 1.48392e+06 0 -1.5772e+06 1.50048e+06 0 -1.57882e+06 1.51702e+06 0 -1.58049e+06 1.53352e+06 0 -1.58221e+06 1.55e+06 0 -1.584e+06 1.56645e+06 0 -1.58584e+06 1.58286e+06 0 -1.58776e+06 1.59925e+06 0 -1.58975e+06 1.6156e+06 0 -1.59182e+06 1.63192e+06 0 -1.59397e+06 1.6482e+06 0 -1.59622e+06 1.66446e+06 0 -1.59856e+06 1.68068e+06 0 -1.60101e+06 1.69687e+06 0 -1.60356e+06 1.71303e+06 0 -1.60623e+06 1.72916e+06 0 -1.60902e+06 1.74527e+06 0 -1.61194e+06 1.76134e+06 0 -1.615e+06 1.77739e+06 0 -1.6182e+06 1.79342e+06 0 -1.62156e+06 1.80943e+06 0 -1.62507e+06 1.82541e+06 0 -1.62876e+06 1.84138e+06 0 -1.63262e+06 1.85734e+06 0 -1.63666e+06 1.87329e+06 0 -1.64091e+06 1.88923e+06 0 -1.64535e+06 1.90518e+06 0 -1.65001e+06 1.92112e+06 0 -1.6549e+06 1.93708e+06 0 -1.66002e+06 1.95305e+06 0 -1.44899e+06 0 0 -1.44792e+06 12312.7 0 -1.44697e+06 24651.5 0 -1.44613e+06 37020.3 0 -1.44542e+06 49422.6 0 -1.44482e+06 61862.2 0 -1.44433e+06 74342.5 0 -1.44395e+06 86866.9 0 -1.44369e+06 99438.9 0 -1.44353e+06 112062 0 -1.44347e+06 124738 0 -1.44352e+06 137471 0 -1.44367e+06 150264 0 -1.44391e+06 163120 0 -1.44425e+06 176040 0 -1.44468e+06 189029 0 -1.44521e+06 202087 0 -1.44581e+06 215217 0 -1.4465e+06 228422 0 -1.44728e+06 241703 0 -1.44812e+06 255062 0 -1.44905e+06 268500 0 -1.45004e+06 282020 0 -1.4511e+06 295622 0 -1.45223e+06 309308 0 -1.45341e+06 323079 0 -1.45466e+06 336935 0 -1.45596e+06 350877 0 -1.45731e+06 364907 0 -1.4587e+06 379023 0 -1.46015e+06 393228 0 -1.46163e+06 407520 0 -1.46316e+06 421900 0 -1.46472e+06 436368 0 -1.46631e+06 450922 0 -1.46793e+06 465564 0 -1.46958e+06 480293 0 -1.47125e+06 495107 0 -1.47295e+06 510007 0 -1.47466e+06 524990 0 -1.47638e+06 540057 0 -1.47812e+06 555206 0 -1.47988e+06 570436 0 -1.48163e+06 585745 0 -1.4834e+06 601133 0 -1.48517e+06 616597 0 -1.48694e+06 632137 0 -1.48871e+06 647750 0 -1.49047e+06 663436 0 -1.49224e+06 679192 0 -1.49399e+06 695016 0 -1.49575e+06 710907 0 -1.49749e+06 726862 0 -1.49922e+06 742880 0 -1.50094e+06 758959 0 -1.50265e+06 775097 0 -1.50434e+06 791291 0 -1.50602e+06 807540 0 -1.50768e+06 823841 0 -1.50933e+06 840193 0 -1.51096e+06 856593 0 -1.51258e+06 873039 0 -1.51417e+06 889528 0 -1.51575e+06 906059 0 -1.51731e+06 922630 0 -1.51885e+06 939237 0 -1.52038e+06 955880 0 -1.52188e+06 972555 0 -1.52337e+06 989261 0 -1.52484e+06 1.006e+06 0 -1.5263e+06 1.02276e+06 0 -1.52773e+06 1.03954e+06 0 -1.52916e+06 1.05635e+06 0 -1.53056e+06 1.07317e+06 0 -1.53196e+06 1.09001e+06 0 -1.53333e+06 1.10687e+06 0 -1.5347e+06 1.12374e+06 0 -1.53606e+06 1.14063e+06 0 -1.5374e+06 1.15752e+06 0 -1.53874e+06 1.17442e+06 0 -1.54007e+06 1.19132e+06 0 -1.5414e+06 1.20822e+06 0 -1.54272e+06 1.22513e+06 0 -1.54404e+06 1.24204e+06 0 -1.54536e+06 1.25894e+06 0 -1.54669e+06 1.27584e+06 0 -1.54801e+06 1.29273e+06 0 -1.54935e+06 1.30961e+06 0 -1.55069e+06 1.32648e+06 0 -1.55205e+06 1.34334e+06 0 -1.55342e+06 1.36019e+06 0 -1.5548e+06 1.37702e+06 0 -1.55621e+06 1.39384e+06 0 -1.55764e+06 1.41063e+06 0 -1.5591e+06 1.42741e+06 0 -1.56059e+06 1.44417e+06 0 -1.56211e+06 1.4609e+06 0 -1.56367e+06 1.47761e+06 0 -1.56527e+06 1.4943e+06 0 -1.56692e+06 1.51096e+06 0 -1.56861e+06 1.52759e+06 0 -1.57036e+06 1.5442e+06 0 -1.57217e+06 1.56078e+06 0 -1.57403e+06 1.57733e+06 0 -1.57597e+06 1.59386e+06 0 -1.57798e+06 1.61035e+06 0 -1.58007e+06 1.62681e+06 0 -1.58224e+06 1.64325e+06 0 -1.5845e+06 1.65966e+06 0 -1.58686e+06 1.67603e+06 0 -1.58931e+06 1.69238e+06 0 -1.59188e+06 1.70871e+06 0 -1.59455e+06 1.725e+06 0 -1.59735e+06 1.74127e+06 0 -1.60027e+06 1.75752e+06 0 -1.60333e+06 1.77375e+06 0 -1.60653e+06 1.78995e+06 0 -1.60988e+06 1.80614e+06 0 -1.61339e+06 1.82232e+06 0 -1.61706e+06 1.83848e+06 0 -1.62091e+06 1.85463e+06 0 -1.62494e+06 1.87078e+06 0 -1.62916e+06 1.88692e+06 0 -1.63358e+06 1.90307e+06 0 -1.63821e+06 1.91923e+06 0 -1.64306e+06 1.9354e+06 0 -1.64814e+06 1.95159e+06 0 -1.65346e+06 1.96781e+06 0 -1.43909e+06 0 0 -1.43802e+06 12471.3 0 -1.43707e+06 24968 0 -1.43623e+06 37493.9 0 -1.43551e+06 50052.5 0 -1.4349e+06 62647.4 0 -1.4344e+06 75282.1 0 -1.43402e+06 87960 0 -1.43374e+06 100684 0 -1.43356e+06 113458 0 -1.43349e+06 126285 0 -1.43353e+06 139167 0 -1.43365e+06 152108 0 -1.43388e+06 165109 0 -1.4342e+06 178175 0 -1.43461e+06 191307 0 -1.43511e+06 204507 0 -1.43569e+06 217779 0 -1.43636e+06 231123 0 -1.4371e+06 244541 0 -1.43792e+06 258037 0 -1.43882e+06 271610 0 -1.43978e+06 285263 0 -1.44081e+06 298997 0 -1.44191e+06 312813 0 -1.44307e+06 326712 0 -1.44428e+06 340695 0 -1.44555e+06 354762 0 -1.44687e+06 368916 0 -1.44823e+06 383154 0 -1.44965e+06 397479 0 -1.4511e+06 411890 0 -1.45259e+06 426387 0 -1.45412e+06 440971 0 -1.45568e+06 455640 0 -1.45727e+06 470395 0 -1.45889e+06 485234 0 -1.46053e+06 500158 0 -1.46219e+06 515166 0 -1.46387e+06 530256 0 -1.46557e+06 545428 0 -1.46728e+06 560681 0 -1.469e+06 576013 0 -1.47073e+06 591424 0 -1.47246e+06 606912 0 -1.4742e+06 622475 0 -1.47595e+06 638113 0 -1.47769e+06 653822 0 -1.47943e+06 669603 0 -1.48117e+06 685453 0 -1.48291e+06 701370 0 -1.48464e+06 717353 0 -1.48636e+06 733399 0 -1.48807e+06 749508 0 -1.48977e+06 765676 0 -1.49146e+06 781902 0 -1.49314e+06 798184 0 -1.4948e+06 814519 0 -1.49645e+06 830907 0 -1.49808e+06 847344 0 -1.4997e+06 863828 0 -1.50131e+06 880358 0 -1.50289e+06 896931 0 -1.50447e+06 913545 0 -1.50602e+06 930198 0 -1.50756e+06 946887 0 -1.50908e+06 963611 0 -1.51058e+06 980368 0 -1.51207e+06 997155 0 -1.51355e+06 1.01397e+06 0 -1.515e+06 1.03081e+06 0 -1.51645e+06 1.04767e+06 0 -1.51787e+06 1.06456e+06 0 -1.51929e+06 1.08147e+06 0 -1.52069e+06 1.09839e+06 0 -1.52208e+06 1.11533e+06 0 -1.52346e+06 1.13228e+06 0 -1.52484e+06 1.14924e+06 0 -1.5262e+06 1.16621e+06 0 -1.52756e+06 1.18319e+06 0 -1.52891e+06 1.20017e+06 0 -1.53026e+06 1.21716e+06 0 -1.53161e+06 1.23415e+06 0 -1.53296e+06 1.25113e+06 0 -1.53431e+06 1.26812e+06 0 -1.53567e+06 1.2851e+06 0 -1.53703e+06 1.30207e+06 0 -1.5384e+06 1.31904e+06 0 -1.53979e+06 1.336e+06 0 -1.54119e+06 1.35294e+06 0 -1.5426e+06 1.36988e+06 0 -1.54404e+06 1.3868e+06 0 -1.5455e+06 1.4037e+06 0 -1.54698e+06 1.42059e+06 0 -1.5485e+06 1.43745e+06 0 -1.55005e+06 1.4543e+06 0 -1.55163e+06 1.47113e+06 0 -1.55326e+06 1.48794e+06 0 -1.55492e+06 1.50472e+06 0 -1.55664e+06 1.52148e+06 0 -1.55841e+06 1.53822e+06 0 -1.56024e+06 1.55493e+06 0 -1.56213e+06 1.57161e+06 0 -1.56409e+06 1.58827e+06 0 -1.56611e+06 1.60491e+06 0 -1.56822e+06 1.62152e+06 0 -1.5704e+06 1.6381e+06 0 -1.57268e+06 1.65466e+06 0 -1.57504e+06 1.67119e+06 0 -1.57751e+06 1.68769e+06 0 -1.58008e+06 1.70417e+06 0 -1.58276e+06 1.72063e+06 0 -1.58556e+06 1.73707e+06 0 -1.58848e+06 1.75349e+06 0 -1.59154e+06 1.76989e+06 0 -1.59474e+06 1.78627e+06 0 -1.59808e+06 1.80264e+06 0 -1.60157e+06 1.819e+06 0 -1.60523e+06 1.83535e+06 0 -1.60906e+06 1.85169e+06 0 -1.61307e+06 1.86804e+06 0 -1.61726e+06 1.88438e+06 0 -1.62165e+06 1.90073e+06 0 -1.62625e+06 1.9171e+06 0 -1.63106e+06 1.93348e+06 0 -1.6361e+06 1.94989e+06 0 -1.64137e+06 1.96633e+06 0 -1.64689e+06 1.9828e+06 0 -1.42912e+06 0 0 -1.42805e+06 12628.4 0 -1.42709e+06 25281.5 0 -1.42625e+06 37963 0 -1.42553e+06 50676.5 0 -1.42491e+06 63425.4 0 -1.42441e+06 76213.2 0 -1.42401e+06 89043.1 0 -1.42372e+06 101918 0 -1.42353e+06 114842 0 -1.42345e+06 127818 0 -1.42346e+06 140848 0 -1.42357e+06 153935 0 -1.42378e+06 167082 0 -1.42408e+06 180291 0 -1.42447e+06 193566 0 -1.42495e+06 206907 0 -1.42551e+06 220318 0 -1.42615e+06 233801 0 -1.42687e+06 247356 0 -1.42766e+06 260987 0 -1.42853e+06 274694 0 -1.42947e+06 288479 0 -1.43047e+06 302344 0 -1.43154e+06 316289 0 -1.43267e+06 330316 0 -1.43385e+06 344426 0 -1.43509e+06 358618 0 -1.43638e+06 372894 0 -1.43771e+06 387255 0 -1.43909e+06 401699 0 -1.44052e+06 416229 0 -1.44198e+06 430843 0 -1.44347e+06 445542 0 -1.445e+06 460325 0 -1.44656e+06 475192 0 -1.44815e+06 490143 0 -1.44976e+06 505176 0 -1.45139e+06 520292 0 -1.45304e+06 535489 0 -1.45471e+06 550766 0 -1.45639e+06 566123 0 -1.45808e+06 581558 0 -1.45979e+06 597070 0 -1.46149e+06 612658 0 -1.46321e+06 628320 0 -1.46493e+06 644056 0 -1.46665e+06 659862 0 -1.46837e+06 675738 0 -1.47008e+06 691683 0 -1.47179e+06 707693 0 -1.4735e+06 723768 0 -1.4752e+06 739906 0 -1.47689e+06 756105 0 -1.47858e+06 772363 0 -1.48025e+06 788678 0 -1.48191e+06 805048 0 -1.48356e+06 821471 0 -1.4852e+06 837945 0 -1.48682e+06 854468 0 -1.48843e+06 871038 0 -1.49002e+06 887652 0 -1.4916e+06 904310 0 -1.49317e+06 921007 0 -1.49472e+06 937743 0 -1.49625e+06 954516 0 -1.49777e+06 971322 0 -1.49927e+06 988161 0 -1.50076e+06 1.00503e+06 0 -1.50224e+06 1.02193e+06 0 -1.5037e+06 1.03885e+06 0 -1.50515e+06 1.05579e+06 0 -1.50658e+06 1.07276e+06 0 -1.50801e+06 1.08975e+06 0 -1.50942e+06 1.10675e+06 0 -1.51083e+06 1.12377e+06 0 -1.51222e+06 1.1408e+06 0 -1.51361e+06 1.15785e+06 0 -1.51499e+06 1.1749e+06 0 -1.51637e+06 1.19196e+06 0 -1.51775e+06 1.20902e+06 0 -1.51912e+06 1.22609e+06 0 -1.5205e+06 1.24316e+06 0 -1.52188e+06 1.26023e+06 0 -1.52326e+06 1.2773e+06 0 -1.52465e+06 1.29437e+06 0 -1.52605e+06 1.31143e+06 0 -1.52746e+06 1.32848e+06 0 -1.52889e+06 1.34552e+06 0 -1.53033e+