<?xml version="1.0"?> 
<VTKFile type="StructuredGrid" version="0.1"> 
<StructuredGrid WholeExtent="0 127 0 127 0 0"> 
<Piece Extent="0 127 0 127 0 0"> 
<PointData>
<DataArray type="Float32" Name="E" format="ascii" NumberOfComponents="3"> 
3450.76 4921.77 0 544.559 1550.54 0 263.885 1296.58 0 -9.69486 1306.02 0 -91.1414 1170.02 0 -166.524 1111.02 0 -194.164 1016.04 0 -215.569 940.822 0 -222.216 861.063 0 -224.604 789.425 0 -221.687 720.834 0 -216.42 657.954 0 -209.068 599.609 0 -200.618 546.17 0 -191.399 497.181 0 -181.815 452.486 0 -172.084 411.752 0 -162.4 374.71 0 -152.887 341.061 0 -143.642 310.531 0 -134.732 282.849 0 -126.2 257.766 0 -118.076 235.044 0 -110.375 214.466 0 -103.103 195.829 0 -96.2579 178.948 0 -89.8328 163.653 0 -83.8157 149.791 0 -78.1915 137.22 0 -72.9434 125.814 0 -68.0526 115.458 0 -63.5 106.048 0 -59.2658 97.4903 0 -55.3305 89.7013 0 -51.6749 82.6054 0 -48.28 76.1347 0 -45.1281 70.2284 0 -42.2019 64.8317 0 -39.485 59.8958 0 -36.9622 55.3767 0 -34.6189 51.235 0 -32.4417 47.4354 0 -30.4181 43.9461 0 -28.5362 40.7386 0 -26.7854 37.7874 0 -25.1555 35.0694 0 -23.6373 32.5639 0 -22.2222 30.2523 0 -20.9025 28.1177 0 -19.6709 26.145 0 -18.5206 24.3204 0 -17.4457 22.6316 0 -16.4405 21.0673 0 -15.4997 19.6173 0 -14.6188 18.2724 0 -13.7933 17.0243 0 -13.0192 15.8652 0 -12.2929 14.7883 0 -11.6109 13.7872 0 -10.9702 12.8561 0 -10.3679 11.9897 0 -9.80145 11.1832 0 -9.26831 10.4321 0 -8.76631 9.73243 0 -8.29338 9.08037 0 -7.84761 8.4725 0 -7.42727 7.90568 0 -7.03071 7.37699 0 -6.65646 6.88374 0 -6.3031 6.42345 0 -5.96936 5.99385 0 -5.65404 5.59279 0 -5.35604 5.21835 0 -5.0743 4.86869 0 -4.80789 4.54213 0 -4.5559 4.23711 0 -4.31751 3.95218 0 -4.09192 3.68599 0 -3.87843 3.4373 0 -3.67635 3.20494 0 -3.48506 2.98782 0 -3.30393 2.78495 0 -3.13245 2.59536 0 -2.97007 2.41819 0 -2.81631 2.25263 0 -2.6707 2.09791 0 -2.53284 1.95333 0 -2.40229 1.8182 0 -2.27869 1.69193 0 -2.16168 1.57392 0 -2.05092 1.46363 0 -1.94609 1.36056 0 -1.84689 1.26423 0 -1.75305 1.17421 0 -1.66429 1.09008 0 -1.58038 1.01146 0 -1.50107 0.93797 0 -1.42614 0.869278 0 -1.35538 0.805079 0 -1.2886 0.745068 0 -1.22561 0.688951 0 -1.16625 0.636502 0 -1.11034 0.58746 0 -1.05773 0.541592 0 -1.00828 0.498686 0 -0.961861 0.458561 0 -0.918327 0.420993 0 -0.877583 0.385867 0 -0.839501 0.352943 0 -0.803989 0.322151 0 -0.770941 0.293263 0 -0.740285 0.266232 0 -0.711925 0.240859 0 -0.685798 0.217079 0 -0.661823 0.194742 0 -0.639951 0.17379 0 -0.620117 0.15409 0 -0.602273 0.135584 0 -0.586379 0.11816 0 -0.572402 0.10177 0 -0.560291 0.0863206 0 -0.550033 0.0717783 0 -0.541612 0.0580325 0 -0.535 0.0450883 0 -0.530192 0.0328393 0 -0.527183 0.0212684 0 -0.525977 0.0103402 0 -0.526581 -1.90735e-06 0 1573.27 3009.61 0 532.721 1633.26 0 170.913 1388.37 0 -30.8858 1301.25 0 -125.38 1188.02 0 -186.605 1105.37 0 -215.701 1014.12 0 -232.893 933.367 0 -238.553 854.04 0 -238.908 781.256 0 -234.691 712.867 0 -228.02 649.999 0 -219.495 591.993 0 -209.941 538.897 0 -199.742 490.333 0 -189.267 446.067 0 -178.739 405.775 0 -168.337 369.164 0 -158.182 335.935 0 -148.363 305.804 0 -138.94 278.502 0 -129.951 253.774 0 -121.42 231.384 0 -113.358 211.115 0 -105.765 192.763 0 -98.6347 176.146 0 -91.9566 161.094 0 -85.715 147.454 0 -79.8917 135.087 0 -74.4668 123.868 0 -69.4193 113.682 0 -64.7274 104.427 0 -60.3695 96.0109 0 -56.3242 88.3507 0 -52.5706 81.3719 0 -49.0886 75.0078 0 -45.8589 69.1983 0 -42.8632 63.8896 0 -40.0843 59.0338 0 -37.5059 54.5874 0 -35.1128 50.5119 0 -32.8909 46.7724 0 -30.827 43.3378 0 -28.909 40.1802 0 -27.1255 37.2743 0 -25.4662 34.5977 0 -23.9213 32.1299 0 -22.4822 29.8527 0 -21.1406 27.7495 0 -19.8892 25.8055 0 -18.7209 24.0071 0 -17.6296 22.3423 0 -16.6094 20.8 0 -15.6551 19.3702 0 -14.7617 18.0438 0 -13.9248 16.8127 0 -13.1403 15.6692 0 -12.4044 14.6067 0 -11.7137 13.6188 0 -11.065 12.6998 0 -10.4554 11.8447 0 -9.88211 11.0485 0 -9.34275 10.307 0 -8.83502 9.61609 0 -8.35682 8.97219 0 -7.9062 8.37187 0 -7.48139 7.81203 0 -7.08071 7.28981 0 -6.70265 6.80256 0 -6.34579 6.34785 0 -6.00881 5.92341 0 -5.6905 5.52715 0 -5.38973 5.15716 0 -5.10545 4.81164 0 -4.83668 4.48893 0 -4.58251 4.18749 0 -4.34211 3.9059 0 -4.11467 3.64282 0 -3.89946 3.39702 0 -3.69579 3.16735 0 -3.50303 2.95276 0 -3.32055 2.75222 0 -3.14781 2.56482 0 -2.98427 2.38969 0 -2.82944 2.22604 0 -2.68285 2.0731 0 -2.54407 1.93017 0 -2.41268 1.7966 0 -2.2883 1.67177 0 -2.17057 1.55511 0 -2.05914 1.44609 0 -1.9537 1.34421 0 -1.85393 1.24899 0 -1.75957 1.16001 0 -1.67033 1.07684 0 -1.58597 0.99912 0 -1.50625 0.926483 0 -1.43094 0.858592 0 -1.35984 0.79513 0 -1.29274 0.73582 0 -1.22946 0.680362 0 -1.16983 0.628526 0 -1.11366 0.58005 0 -1.06083 0.534723 0 -1.01117 0.492329 0 -0.964549 0.452671 0 -0.92084 0.415567 0 -0.879928 0.380839 0 -0.841701 0.348333 0 -0.806047 0.317894 0 -0.772878 0.289378 0 -0.742102 0.26266 0 -0.713638 0.23761 0 -0.687412 0.214115 0 -0.66335 0.192074 0 -0.641395 0.171375 0 -0.621486 0.151936 0 -0.603572 0.133658 0 -0.587616 0.11647 0 -0.573578 0.100289 0 -0.561417 0.0850727 0 -0.551105 0.0706975 0 -0.542641 0.057174 0 -0.535981 0.0443906 0 -0.531136 0.0323412 0 -0.528088 0.020941 0 -0.526844 0.0101823 0 -0.527412 8.29488e-07 0 924.786 2536.39 0 421.286 1687.34 0 103.836 1435.32 0 -65.2231 1309.57 0 -155.959 1195.67 0 -209.403 1102.07 0 -236.615 1009.75 0 -250.699 926.036 0 -254.687 846.275 0 -253.177 772.881 0 -247.519 704.567 0 -239.465 641.84 0 -229.742 584.174 0 -219.091 531.466 0 -207.914 483.343 0 -196.557 439.531 0 -185.239 399.695 0 -174.13 363.532 0 -163.343 330.733 0 -152.961 301.013 0 -143.035 274.098 0 -133.6 249.734 0 -124.672 227.683 0 -116.257 207.728 0 -108.35 189.668 0 -100.943 173.318 0 -94.0184 158.512 0 -87.5585 145.098 0 -81.5417 132.938 0 -75.9453 121.908 0 -70.7455 111.894 0 -65.9185 102.796 0 -61.4407 94.5226 0 -57.2887 86.9924 0 -53.4402 80.1319 0 -49.8737 73.8751 0 -46.5686 68.1632 0 -43.5057 62.9432 0 -40.6666 58.1679 0 -38.0343 53.7948 0 -35.593 49.7858 0 -33.3277 46.1068 0 -31.2249 42.7273 0 -29.2718 39.6197 0 -27.4567 36.7594 0 -25.7688 34.1243 0 -24.1981 31.6944 0 -22.7356 29.4517 0 -21.3728 27.3801 0 -20.1021 25.4649 0 -18.9163 23.6929 0 -17.8091 22.0522 0 -16.7744 20.532 0 -15.8067 19.1224 0 -14.9012 17.8146 0 -14.0533 16.6005 0 -13.2586 15.4727 0 -12.5135 14.4245 0 -11.8143 13.4499 0 -11.1577 12.5432 0 -10.5409 11.6992 0 -9.96104 10.9134 0 -9.41561 10.1815 0 -8.9023 9.49946 0 -8.41895 8.86374 0 -7.96359 8.27099 0 -7.5344 7.71816 0 -7.12969 7.20243 0 -6.74791 6.7212 0 -6.38762 6.27206 0 -6.04747 5.8528 0 -5.72624 5.46136 0 -5.42276 5.09583 0 -5.13599 4.75446 0 -4.86491 4.43561 0 -4.60862 4.13777 0 -4.36624 3.85952 0 -4.13698 3.59956 0 -3.92008 3.35666 0 -3.71486 3.12969 0 -3.52066 2.91761 0 -3.33685 2.71943 0 -3.16288 2.53422 0 -2.99821 2.36114 0 -2.84233 2.1994 0 -2.69477 2.04824 0 -2.55509 1.90697 0 -2.42287 1.77495 0 -2.29773 1.65158 0 -2.17929 1.53628 0 -2.06721 1.42853 0 -1.96117 1.32783 0 -1.86085 1.23372 0 -1.76597 1.14577 0 -1.67626 1.06358 0 -1.59147 0.986768 0 -1.51134 0.914981 0 -1.43567 0.847884 0 -1.36422 0.785172 0 -1.29681 0.726558 0 -1.23323 0.671755 0 -1.17334 0.620532 0 -1.11693 0.572634 0 -1.06387 0.527847 0 -1.014 0.485959 0 -0.967192 0.446779 0 -0.923309 0.410121 0 -0.882237 0.375814 0 -0.843862 0.343706 0 -0.808073 0.313637 0 -0.77478 0.285474 0 -0.743891 0.25909 0 -0.715323 0.234351 0 -0.689001 0.211156 0 -0.664851 0.189392 0 -0.642816 0.168962 0 -0.622833 0.149774 0 -0.604852 0.131738 0 -0.588834 0.114778 0 -0.574738 0.0988201 0 -0.562523 0.0838024 0 -0.552164 0.0696406 0 -0.543652 0.0563012 0 -0.536951 0.0437086 0 -0.532064 0.031834 0 -0.528978 0.0206086 0 -0.527698 0.010016 0 -0.52823 1.40932e-06 0 606.945 2362.67 0 301.548 1720.34 0 42.1284 1463.98 0 -103.451 1318.16 0 -186.095 1198.97 0 -233.233 1098.45 0 -257.46 1004.1 0 -268.66 918.314 0 -270.7 837.982 0 -267.343 764.2 0 -260.175 695.975 0 -250.737 633.461 0 -239.803 576.163 0 -228.059 523.876 0 -215.91 476.217 0 -203.68 432.879 0 -191.583 393.517 0 -179.778 357.814 0 -168.371 325.459 0 -157.436 296.16 0 -147.019 269.642 0 -137.146 245.648 0 -127.831 223.943 0 -119.071 204.308 0 -110.86 186.543 0 -103.182 170.466 0 -96.0183 155.91 0 -89.3463 142.725 0 -83.1416 130.774 0 -77.3787 119.934 0 -72.0313 110.095 0 -67.0734 101.155 0 -62.4793 93.0262 0 -58.2241 85.6271 0 -54.2837 78.8857 0 -50.6354 72.7372 0 -47.2573 67.1235 0 -44.1293 61.9929 0 -41.2319 57.2986 0 -38.5476 52.9991 0 -36.0595 49.057 0 -33.7523 45.4389 0 -31.6118 42.1146 0 -29.6247 39.0574 0 -27.7789 36.2429 0 -26.0633 33.6496 0 -24.4676 31.2577 0 -22.9824 29.0497 0 -21.5991 27.0097 0 -20.3096 25.1234 0 -19.1069 23.3778 0 -17.9841 21.7613 0 -16.9353 20.2632 0 -15.9548 18.874 0 -15.0375 17.5848 0 -14.1788 16.3878 0 -13.3743 15.2757 0 -12.6201 14.242 0 -11.9125 13.2806 0 -11.2484 12.3861 0 -10.6246 11.5534 0 -10.0383 10.7781 0 -9.4869 10.0557 0 -8.96813 9.38256 0 -8.47976 8.75504 0 -8.01977 8.16988 0 -7.58631 7.62408 0 -7.17766 7.11486 0 -6.79225 6.63966 0 -6.4286 6.19611 0 -6.08535 5.78204 0 -5.76126 5.39542 0 -5.45514 5.03437 0 -5.16592 4.69717 0 -4.89259 4.38219 0 -4.63421 4.08795 0 -4.3899 3.81305 0 -4.15885 3.55621 0 -3.94031 3.31621 0 -3.73357 3.09196 0 -3.53795 2.8824 0 -3.35284 2.68657 0 -3.17767 2.50356 0 -3.01188 2.33254 0 -2.85498 2.1727 0 -2.70647 2.02333 0 -2.56591 1.88373 0 -2.43288 1.75327 0 -2.30699 1.63135 0 -2.18786 1.51741 0 -2.07514 1.41093 0 -1.9685 1.31143 0 -1.86764 1.21843 0 -1.77226 1.13152 0 -1.68208 1.0503 0 -1.59686 0.974396 0 -1.51634 0.90346 0 -1.4403 0.837163 0 -1.36852 0.775197 0 -1.3008 0.717283 0 -1.23694 0.663138 0 -1.17678 0.612528 0 -1.12014 0.565209 0 -1.06685 0.520962 0 -1.01679 0.479583 0 -0.96979 0.440878 0 -0.925735 0.40467 0 -0.884506 0.370784 0 -0.845986 0.339073 0 -0.810065 0.309376 0 -0.776651 0.281569 0 -0.74565 0.255514 0 -0.716981 0.231091 0 -0.690564 0.208191 0 -0.666329 0.186711 0 -0.644215 0.166544 0 -0.62416 0.147612 0 -0.606112 0.129814 0 -0.590033 0.113086 0 -0.57588 0.0973456 0 -0.563613 0.0825383 0 -0.553206 0.0685751 0 -0.544648 0.0554302 0 -0.537905 0.0430229 0 -0.532978 0.0313273 0 -0.529855 0.0202785 0 -0.528538 0.00985178 0 -0.529033 -6.40983e-07 0 401.71 2269.51 0 191.031 1738.04 0 -17.7062 1482.05 0 -143.003 1324.14 0 -216.364 1199.48 0 -257.557 1093.85 0 -278.316 997.461 0 -286.652 910.06 0 -286.593 829.217 0 -281.371 755.187 0 -272.652 687.101 0 -261.824 624.859 0 -249.675 567.964 0 -236.843 516.13 0 -223.727 468.959 0 -210.634 426.115 0 -197.769 387.243 0 -185.279 352.015 0 -173.263 320.115 0 -161.787 291.247 0 -150.889 265.134 0 -140.59 241.52 0 -130.896 220.167 0 -121.801 200.857 0 -113.293 183.393 0 -105.352 167.591 0 -97.956 153.289 0 -91.0783 140.335 0 -84.6914 128.596 0 -78.7671 117.949 0 -73.2768 108.285 0 -68.1921 99.5059 0 -63.4855 91.5223 0 -59.1304 84.2554 0 -55.1011 77.634 0 -51.3737 71.5945 0 -47.9251 66.0798 0 -44.7341 61.0389 0 -41.7805 56.4262 0 -39.0457 52.2008 0 -36.5124 48.3259 0 -34.1647 44.7689 0 -31.9876 41.5002 0 -29.9676 38.4934 0 -28.0922 35.725 0 -26.3498 33.1735 0 -24.7299 30.8197 0 -23.2227 28.6465 0 -21.8194 26.6383 0 -20.5118 24.781 0 -19.2926 23.062 0 -18.1548 21.4697 0 -17.0922 19.9939 0 -16.0992 18.6249 0 -15.1705 17.3544 0 -14.3013 16.1746 0 -13.4872 15.0782 0 -12.7242 14.059 0 -12.0086 13.1109 0 -11.337 12.2287 0 -10.7063 11.4073 0 -10.1138 10.6424 0 -9.55663 9.92967 0 -9.03254 9.26541 0 -8.53926 8.64611 0 -8.07475 8.06856 0 -7.63712 7.5298 0 -7.22463 7.0271 0 -6.83566 6.55794 0 -6.46873 6.12001 0 -6.12246 5.71114 0 -5.79556 5.32935 0 -5.48686 4.97279 0 -5.19525 4.63976 0 -4.91971 4.32866 0 -4.65928 4.03803 0 -4.41309 3.76649 0 -4.1803 3.51277 0 -3.96014 3.2757 0 -3.7519 3.05416 0 -3.55491 2.84713 0 -3.36852 2.65366 0 -3.19217 2.47285 0 -3.02529 2.30388 0 -2.86738 2.14596 0 -2.71794 1.99838 0 -2.57652 1.86045 0 -2.44269 1.73156 0 -2.31607 1.61109 0 -2.19626 1.49852 0 -2.08291 1.39331 0 -1.9757 1.29499 0 -1.8743 1.20311 0 -1.77843 1.11724 0 -1.6878 1.037 0 -1.60216 0.962008 0 -1.52125 0.891925 0 -1.44485 0.826425 0 -1.37275 0.765209 0 -1.30472 0.707995 0 -1.24059 0.654509 0 -1.18017 0.604515 0 -1.12329 0.557772 0 -1.06979 0.514067 0 -1.01952 0.473198 0 -0.972342 0.434974 0 -0.92812 0.399212 0 -0.886736 0.36575 0 -0.848075 0.334434 0 -0.812024 0.305115 0 -0.77849 0.277659 0 -0.74738 0.251938 0 -0.718611 0.227827 0 -0.692102 0.205227 0 -0.667783 0.184025 0 -0.645591 0.16413 0 -0.625465 0.145446 0 -0.607353 0.127891 0 -0.591213 0.111393 0 -0.577004 0.0958688 0 -0.564687 0.0812748 0 -0.554232 0.0675098 0 -0.545629 0.0545598 0 -0.538845 0.0423376 0 -0.533878 0.0308208 0 -0.530718 0.019944 0 -0.529365 0.00968765 0 -0.529827 -8.42847e-08 0 247.528 2203.39 0 91.6272 1745.1 0 -75.938 1492.38 0 -182.9 1327.06 0 -246.766 1197.67 0 -282.121 1088.13 0 -299.159 989.907 0 -304.603 901.247 0 -302.344 819.993 0 -295.238 745.84 0 -284.939 677.952 0 -272.716 616.036 0 -259.349 559.58 0 -245.435 508.23 0 -231.362 461.571 0 -217.417 419.242 0 -203.795 380.876 0 -190.632 346.138 0 -178.019 314.705 0 -166.012 286.278 0 -154.645 260.579 0 -143.929 237.35 0 -133.867 216.355 0 -124.446 197.377 0 -115.649 180.217 0 -107.454 164.696 0 -99.8318 150.649 0 -92.7545 137.93 0 -86.1911 126.405 0 -80.1107 115.953 0 -74.482 106.467 0 -69.2747 97.8485 0 -64.4594 90.0116 0 -60.0077 82.8778 0 -55.8926 76.3773 0 -52.0887 70.4474 0 -48.572 65.0323 0 -45.3202 60.0817 0 -42.3122 55.551 0 -39.5287 51.3999 0 -36.9518 47.5926 0 -34.5649 44.0969 0 -32.3525 40.884 0 -30.3008 37.928 0 -28.3966 35.2057 0 -26.6283 32.6962 0 -24.9849 30.3807 0 -23.4564 28.2424 0 -22.0338 26.2661 0 -20.7087 24.4379 0 -19.4734 22.7454 0 -18.3211 21.1775 0 -17.2452 19.7239 0 -16.2401 18.3754 0 -15.3002 17.1236 0 -14.4208 15.9609 0 -13.5974 14.8803 0 -12.8258 13.8756 0 -12.1023 12.9409 0 -11.4235 12.0709 0 -10.7862 11.2609 0 -10.1875 10.5064 0 -9.62479 9.80337 0 -9.09551 9.14802 0 -8.59745 8.53696 0 -8.12853 7.96703 0 -7.68684 7.43533 0 -7.27059 6.93917 0 -6.87815 6.47607 0 -6.50802 6.04376 0 -6.15879 5.6401 0 -5.82916 5.26315 0 -5.51793 4.91109 0 -5.22398 4.58224 0 -4.94627 4.27503 0 -4.68385 3.98802 0 -4.43581 3.71984 0 -4.20131 3.46926 0 -3.97958 3.23511 0 -3.76988 3.01629 0 -3.57153 2.8118 0 -3.3839 2.62069 0 -3.20639 2.44209 0 -3.03844 2.27518 0 -2.87954 2.11918 0 -2.72918 1.97339 0 -2.58692 1.83714 0 -2.45232 1.7098 0 -2.32497 1.5908 0 -2.2045 1.47959 0 -2.09054 1.37566 0 -1.98275 1.27854 0 -1.88083 1.18777 0 -1.78448 1.10295 0 -1.6934 1.02368 0 -1.60735 0.949601 0 -1.52607 0.880373 0 -1.44932 0.815676 0 -1.37689 0.755208 0 -1.30857 0.698698 0 -1.24416 0.645868 0 -1.1835 0.596492 0 -1.12638 0.550327 0 -1.07267 0.507166 0 -1.02221 0.466806 0 -0.974849 0.42906 0 -0.930462 0.393749 0 -0.888927 0.360709 0 -0.850126 0.329792 0 -0.813949 0.300848 0 -0.780297 0.273744 0 -0.749081 0.248356 0 -0.720213 0.224561 0 -0.693615 0.20226 0 -0.669212 0.181337 0 -0.646945 0.161711 0 -0.626749 0.143279 0 -0.608573 0.125968 0 -0.592374 0.109698 0 -0.578111 0.0943963 0 -0.565742 0.0800056 0 -0.555242 0.0664481 0 -0.546594 0.0536867 0 -0.53977 0.0416537 0 -0.534763 0.0303151 0 -0.531567 0.0196124 0 -0.530179 0.00952472 0 -0.530605 2.31899e-07 0 121.417 2151.12 0 2.06442 1744.44 0 -132.354 1496.73 0 -222.64 1326.95 0 -277.177 1193.81 0 -306.755 1081.26 0 -319.937 981.488 0 -322.454 891.865 0 -317.931 810.319 0 -308.921 736.157 0 -297.022 668.53 0 -283.404 606.996 0 -268.821 551.016 0 -253.833 500.181 0 -238.811 454.058 0 -224.026 412.263 0 -209.659 374.421 0 -195.836 340.186 0 -182.638 309.231 0 -170.113 281.255 0 -158.286 255.978 0 -147.165 233.143 0 -136.744 212.511 0 -127.006 193.869 0 -117.929 177.018 0 -109.486 161.78 0 -101.645 147.993 0 -94.375 135.511 0 -87.6409 124.202 0 -81.4093 113.947 0 -75.647 104.639 0 -70.3213 96.1839 0 -65.401 88.4947 0 -60.8561 81.495 0 -56.6582 75.1161 0 -52.7805 69.2965 0 -49.1981 63.9815 0 -45.8876 59.1217 0 -42.8272 54.6733 0 -39.9968 50.5969 0 -37.3777 46.8574 0 -34.9529 43.4233 0 -32.7065 40.2664 0 -30.6241 37.3613 0 -28.6922 34.6852 0 -26.8988 32.2179 0 -25.2327 29.9408 0 -23.6837 27.8375 0 -22.2424 25.8931 0 -20.9002 24.094 0 -19.6495 22.4282 0 -18.483 20.8847 0 -17.3943 19.4534 0 -16.3773 18.1253 0 -15.4267 16.8923 0 -14.5374 15.7468 0 -13.7049 14.6821 0 -12.925 13.6918 0 -12.1939 12.7705 0 -11.508 11.9129 0 -10.8643 11.1143 0 -10.2596 10.3702 0 -9.69139 9.67683 0 -9.15706 9.03041 0 -8.65434 8.42761 0 -8.18112 7.86532 0 -7.73545 7.34068 0 -7.31554 6.85107 0 -6.91972 6.39405 0 -6.54646 5.96736 0 -6.19434 5.56894 0 -5.86204 5.19684 0 -5.54833 4.84929 0 -5.2521 4.52462 0 -4.97229 4.22131 0 -4.70791 3.93792 0 -4.45806 3.67312 0 -4.22189 3.42568 0 -3.99861 3.19445 0 -3.78748 2.97835 0 -3.58781 2.77641 0 -3.39896 2.58767 0 -3.22032 2.41128 0 -3.05133 2.24642 0 -2.89146 2.09235 0 -2.74021 1.94836 0 -2.59712 1.81379 0 -2.46175 1.68802 0 -2.3337 1.57048 0 -2.21257 1.46064 0 -2.09801 1.35799 0 -1.98967 1.26206 0 -1.88724 1.17241 0 -1.79041 1.08863 0 -1.6989 1.01034 0 -1.61244 0.937177 0 -1.53079 0.868806 0 -1.4537 0.804911 0 -1.38096 0.745195 0 -1.31235 0.689385 0 -1.24767 0.637218 0 -1.18676 0.588457 0 -1.12942 0.542874 0 -1.0755 0.500256 0 -1.02484 0.460407 0 -0.97731 0.423138 0 -0.932762 0.38828 0 -0.891079 0.355664 0 -0.852142 0.325144 0 -0.81584 0.296575 0 -0.782074 0.269826 0 -0.750752 0.244772 0 -0.721788 0.221292 0 -0.695101 0.199288 0 -0.670618 0.178648 0 -0.648276 0.159288 0 -0.628013 0.141112 0 -0.609773 0.124041 0 -0.593517 0.108 0 -0.579199 0.092921 0 -0.566781 0.0787365 0 -0.556235 0.0653834 0 -0.547544 0.0528123 0 -0.540679 0.0409672 0 -0.535635 0.0298087 0 -0.532403 0.0192809 0 -0.530979 0.00935991 0 -0.531373 2.8871e-07 0 13.2451 2106.42 0 -79.2933 1738.12 0 -186.781 1496.23 0 -261.915 1324.02 0 -307.458 1188.06 0 -331.332 1073.25 0 -340.594 972.238 0 -340.158 881.914 0 -333.327 800.204 0 -322.401 726.142 0 -308.891 658.84 0 -293.878 597.741 0 -278.084 542.275 0 -262.03 491.987 0 -246.071 446.424 0 -230.458 405.183 0 -215.359 367.88 0 -200.889 334.161 0 -187.118 303.697 0 -174.087 276.181 0 -161.813 251.335 0 -150.297 228.898 0 -139.526 208.637 0 -129.481 190.335 0 -120.132 173.797 0 -111.449 158.846 0 -103.397 145.322 0 -95.9398 133.079 0 -89.0406 121.988 0 -82.6633 111.931 0 -76.7719 102.804 0 -71.332 94.5128 0 -66.3105 86.9723 0 -61.6757 80.1074 0 -57.3979 73.8509 0 -53.4493 68.1422 0 -49.8035 62.9277 0 -46.4365 58.1591 0 -43.3256 53.7933 0 -40.4499 49.792 0 -37.7902 46.1206 0 -35.3289 42.7483 0 -33.0497 39.6475 0 -30.9376 36.7933 0 -28.979 34.1637 0 -27.1614 31.7386 0 -25.4734 29.5 0 -23.9045 27.4318 0 -22.4451 25.5194 0 -21.0865 23.7496 0 -19.8208 22.1105 0 -18.6406 20.5913 0 -17.5394 19.1824 0 -16.511 17.8748 0 -15.5499 16.6606 0 -14.651 15.5323 0 -13.8097 14.4834 0 -13.0217 13.5078 0 -12.2832 12.5999 0 -11.5905 11.7546 0 -10.9405 10.9673 0 -10.33 10.2338 0 -9.75644 9.55007 0 -9.21719 8.9126 0 -8.70993 8.31807 0 -8.23252 7.76343 0 -7.78298 7.24588 0 -7.35949 6.76283 0 -6.96037 6.31188 0 -6.58406 5.89084 0 -6.22911 5.49765 0 -5.8942 5.13041 0 -5.57809 4.78738 0 -5.27963 4.46691 0 -4.99775 4.1675 0 -4.73146 3.88774 0 -4.47985 3.62632 0 -4.24204 3.38202 0 -4.01725 3.15372 0 -3.80472 2.94036 0 -3.60376 2.74096 0 -3.41371 2.5546 0 -3.23396 2.38042 0 -3.06395 2.21763 0 -2.90313 2.06549 0 -2.75101 1.92329 0 -2.60711 1.7904 0 -2.471 1.6662 0 -2.34225 1.55013 0 -2.22049 1.44166 0 -2.10534 1.34029 0 -1.99646 1.24555 0 -1.89352 1.15702 0 -1.79623 1.07429 0 -1.70429 0.996984 0 -1.61744 0.924739 0 -1.53542 0.857226 0 -1.458 0.794132 0 -1.38494 0.73517 0 -1.31605 0.680064 0 -1.25111 0.628557 0 -1.18996 0.580415 0 -1.1324 0.535413 0 -1.07827 0.49334 0 -1.02743 0.454002 0 -0.979725 0.417212 0 -0.935019 0.382806 0 -0.893191 0.350613 0 -0.854121 0.320493 0 -0.817696 0.292299 0 -0.783818 0.265905 0 -0.752394 0.241184 0 -0.723336 0.218021 0 -0.696562 0.196315 0 -0.672 0.175959 0 -0.649584 0.156864 0 -0.629255 0.138944 0 -0.610953 0.122113 0 -0.59464 0.106305 0 -0.58027 0.0914441 0 -0.567803 0.0774717 0 -0.557212 0.0643173 0 -0.548478 0.0519415 0 -0.541574 0.0402813 0 -0.536492 0.0293007 0 -0.533224 0.0189481 0 -0.531766 0.00919568 0 -0.532125 5.81145e-07 0 -82.3738 2066.42 0 -153.885 1727.48 0 -239.138 1491.72 0 -300.519 1318.52 0 -337.478 1180.58 0 -355.749 1064.12 0 -361.074 962.187 0 -357.673 871.401 0 -348.508 789.658 0 -335.659 715.8 0 -320.533 648.889 0 -304.13 588.277 0 -287.131 533.363 0 -270.024 483.652 0 -253.139 438.672 0 -236.711 398.006 0 -220.893 361.258 0 -205.789 328.069 0 -191.459 298.105 0 -177.934 271.059 0 -165.224 246.651 0 -153.324 224.621 0 -142.215 204.734 0 -131.87 186.778 0 -122.259 170.557 0 -113.344 155.896 0 -105.087 142.636 0 -97.449 130.635 0 -90.3906 119.764 0 -83.8726 109.908 0 -77.8569 100.963 0 -72.3069 92.8359 0 -67.1879 85.445 0 -62.4666 78.7158 0 -58.112 72.5822 0 -54.095 66.9849 0 -50.3883 61.8714 0 -46.9669 57.1943 0 -43.8073 52.9115 0 -40.8881 48.9854 0 -38.1893 45.3823 0 -35.6929 42.0719 0 -33.382 39.0274 0 -31.2414 36.2244 0 -29.2571 33.6413 0 -27.4161 31.2586 0 -25.707 29.0585 0 -24.1188 27.0255 0 -22.642 25.1451 0 -21.2675 23.4045 0 -19.9873 21.7922 0 -18.7939 20.2975 0 -17.6805 18.911 0 -16.6411 17.624 0 -15.6698 16.4285 0 -14.7616 15.3175 0 -13.9118 14.2845 0 -13.116 13.3235 0 -12.3702 12.429 0 -11.6709 11.596 0 -11.0148 10.8201 0 -10.3987 10.0971 0 -9.81994 9.42311 0 -9.2759 8.7946 0 -8.76421 8.20835 0 -8.28272 7.66138 0 -7.82941 7.15092 0 -7.40244 6.67444 0 -7.0001 6.22959 0 -6.62081 5.8142 0 -6.26312 5.42625 0 -5.92566 5.06388 0 -5.60719 4.72537 0 -5.30655 4.40911 0 -5.02265 4.1136 0 -4.7545 3.83748 0 -4.50116 3.57944 0 -4.26176 3.3383 0 -4.03549 3.11294 0 -3.8216 2.90231 0 -3.61937 2.70546 0 -3.42815 2.52147 0 -3.24732 2.34951 0 -3.0763 2.1888 0 -2.91456 2.03858 0 -2.76158 1.89819 0 -2.6169 1.76698 0 -2.48005 1.64436 0 -2.35063 1.52975 0 -2.22824 1.42265 0 -2.11251 1.32257 0 -2.0031 1.22903 0 -1.89967 1.14162 0 -1.80193 1.05994 0 -1.70957 0.983612 0 -1.62233 0.912285 0 -1.53996 0.845631 0 -1.46221 0.783341 0 -1.38885 0.725133 0 -1.31968 0.670732 0 -1.25449 0.619887 0 -1.19309 0.572366 0 -1.13532 0.527945 0 -1.08099 0.486417 0 -1.02997 0.447589 0 -0.982095 0.411282 0 -0.937234 0.377325 0 -0.895265 0.34556 0 -0.856063 0.315839 0 -0.81952 0.288022 0 -0.785531 0.261982 0 -0.754007 0.237593 0 -0.724856 0.214749 0 -0.697997 0.193339 0 -0.673358 0.173267 0 -0.65087 0.154438 0 -0.630475 0.136775 0 -0.612113 0.120185 0 -0.595744 0.104608 0 -0.581323 0.0899678 0 -0.568808 0.076204 0 -0.558173 0.0632508 0 -0.549397 0.0510685 0 -0.542454 0.0395964 0 -0.537335 0.0287939 0 -0.534032 0.018617 0 -0.53254 0.00903254 0 -0.532866 -1.75647e-06 0 -168.603 2029.27 0 -222.842 1713.46 0 -289.42 1483.85 0 -338.314 1310.67 0 -367.125 1171.51 0 -379.919 1053.93 0 -381.326 951.368 0 -374.959 860.338 0 -363.452 778.692 0 -348.678 705.136 0 -331.937 638.682 0 -314.151 578.609 0 -295.958 524.285 0 -277.808 475.18 0 -260.012 430.808 0 -242.783 390.734 0 -226.261 354.557 0 -210.536 321.911 0 -195.659 292.459 0 -181.653 265.892 0 -168.52 241.929 0 -156.246 220.311 0 -144.809 200.805 0 -134.175 183.199 0 -124.308 167.298 0 -115.169 152.931 0 -106.715 139.939 0 -98.9028 128.181 0 -91.6909 117.532 0 -85.0373 107.877 0 -78.9019 99.1147 0 -73.2462 91.154 0 -68.0333 83.9135 0 -63.2289 77.3206 0 -58.8005 71.3105 0 -54.7178 65.8251 0 -50.9526 60.8129 0 -47.4789 56.2276 0 -44.2726 52.0281 0 -41.3115 48.1775 0 -38.5752 44.6428 0 -36.0449 41.3945 0 -33.7036 38.4064 0 -31.5356 35.6547 0 -29.5264 33.1182 0 -27.663 30.7778 0 -25.9334 28.6164 0 -24.3268 26.6186 0 -22.8331 24.7703 0 -21.4432 23.0591 0 -20.149 21.4735 0 -18.9428 20.0033 0 -17.8178 18.6392 0 -16.7676 17.3727 0 -15.7865 16.1961 0 -14.8694 15.1025 0 -14.0112 14.0853 0 -13.2078 13.1389 0 -12.4551 12.2578 0 -11.7493 11.4373 0 -11.0872 10.6728 0 -10.4657 9.96026 0 -9.88189 9.29597 0 -9.33319 8.67643 0 -8.81721 8.09848 0 -8.33174 7.55918 0 -7.87476 7.05583 0 -7.4444 6.58593 0 -7.03892 6.14718 0 -6.65673 5.73745 0 -6.29635 5.35475 0 -5.95641 4.99726 0 -5.63564 4.66327 0 -5.33287 4.35122 0 -5.04701 4.05963 0 -4.77704 3.78715 0 -4.52201 3.5325 0 -4.28105 3.29452 0 -4.05334 3.0721 0 -3.83811 2.86421 0 -3.63465 2.66991 0 -3.44228 2.48831 0 -3.26039 2.31857 0 -3.0884 2.15992 0 -2.92575 2.01164 0 -2.77194 1.87306 0 -2.62648 1.74353 0 -2.48891 1.62248 0 -2.35884 1.50935 0 -2.23583 1.40363 0 -2.11954 1.30482 0 -2.00961 1.21249 0 -1.9057 1.1262 0 -1.80751 1.04557 0 -1.71474 0.970226 0 -1.62713 0.899816 0 -1.54441 0.834024 0 -1.46633 0.772539 0 -1.39268 0.715086 0 -1.32324 0.66139 0 -1.25779 0.611209 0 -1.19617 0.564307 0 -1.13818 0.520468 0 -1.08366 0.479485 0 -1.03246 0.441172 0 -0.984419 0.405346 0 -0.939406 0.371841 0 -0.897298 0.3405 0 -0.857969 0.311179 0 -0.821308 0.28374 0 -0.787213 0.258054 0 -0.75559 0.234001 0 -0.726349 0.211474 0 -0.699407 0.19036 0 -0.674691 0.170573 0 -0.652134 0.152013 0 -0.631674 0.134602 0 -0.613254 0.118257 0 -0.59683 0.102911 0 -0.582358 0.0884876 0 -0.569797 0.074938 0 -0.559117 0.0621833 0 -0.550301 0.0501993 0 -0.543319 0.0389093 0 -0.538163 0.0282884 0 -0.534825 0.0182843 0 -0.5333 0.00886847 0 -0.533594 2.79024e-06 0 -247.465 1993.83 0 -287.046 1696.73 0 -337.669 1473.12 0 -375.204 1300.73 0 -396.304 1160.96 0 -403.769 1042.72 0 -401.302 939.812 0 -391.983 848.738 0 -378.135 767.316 0 -361.441 694.158 0 -343.092 628.226 0 -323.934 568.742 0 -304.558 515.045 0 -285.381 466.577 0 -266.687 422.835 0 -248.672 383.374 0 -231.46 347.783 0 -215.129 315.692 0 -199.719 286.762 0 -185.245 260.683 0 -171.7 237.172 0 -159.064 215.973 0 -147.308 196.852 0 -136.394 179.599 0 -126.282 164.023 0 -116.926 149.952 0 -108.281 137.23 0 -100.301 125.718 0 -92.9416 115.292 0 -86.1578 105.84 0 -79.9074 97.2616 0 -74.1499 89.4677 0 -68.847 82.3784 0 -63.9628 75.9224 0 -59.4635 70.0363 0 -55.3178 64.6632 0 -51.4964 59.7527 0 -47.9726 55.2595 0 -44.7215 51.1434 0 -41.7202 47.3684 0 -38.9478 43.9023 0 -36.3851 40.7163 0 -34.0145 37.7847 0 -31.8201 35.0843 0 -29.787 32.5945 0 -27.902 30.2966 0 -26.1528 28.1738 0 -24.5283 26.2112 0 -23.0184 24.3951 0 -21.6138 22.7132 0 -20.306 21.1545 0 -19.0875 19.7088 0 -17.9512 18.3672 0 -16.8906 17.1212 0 -15.9001 15.9635 0 -14.9742 14.8871 0 -14.108 13.8859 0 -13.2972 12.954 0 -12.5377 12.0864 0 -11.8257 11.2783 0 -11.1579 10.5252 0 -10.531 9.82323 0 -9.9423 9.16866 0 -9.38907 8.55811 0 -8.86891 7.98846 0 -8.37958 7.45684 0 -7.91903 6.96061 0 -7.48536 6.4973 0 -7.07682 6.06466 0 -6.69181 5.66059 0 -6.32881 5.28315 0 -5.98645 4.93054 0 -5.66344 4.60109 0 -5.3586 4.29325 0 -5.07082 4.00559 0 -4.79907 3.73675 0 -4.5424 3.4855 0 -4.29991 3.25068 0 -4.07079 3.0312 0 -3.85426 2.82606 0 -3.64959 2.63432 0 -3.4561 2.4551 0 -3.27318 2.28758 0 -3.10023 2.13101 0 -2.9367 1.98467 0 -2.78207 1.84789 0 -2.63585 1.72006 0 -2.49759 1.60058 0 -2.36686 1.48892 0 -2.24326 1.38457 0 -2.12642 1.28706 0 -2.01598 1.19593 0 -1.9116 1.11076 0 -1.81297 1.03119 0 -1.71981 0.956823 0 -1.63182 0.887335 0 -1.54876 0.822402 0 -1.47037 0.761727 0 -1.39643 0.705025 0 -1.32672 0.65204 0 -1.26103 0.60252 0 -1.19918 0.55624 0 -1.14099 0.512984 0 -1.08628 0.472548 0 -1.0349 0.434748 0 -0.986697 0.399404 0 -0.941537 0.366353 0 -0.899292 0.335434 0 -0.859838 0.306517 0 -0.823063 0.279452 0 -0.788862 0.254122 0 -0.757144 0.230406 0 -0.727814 0.208193 0 -0.700791 0.187381 0 -0.676001 0.167877 0 -0.653375 0.149583 0 -0.632852 0.13243 0 -0.614373 0.116326 0 -0.597896 0.101212 0 -0.583374 0.0870071 0 -0.570767 0.0736675 0 -0.560045 0.0611175 0 -0.551187 0.0493216 0 -0.544169 0.0382246 0 -0.538977 0.0277781 0 -0.535605 0.0179527 0 -0.534047 0.00870352 0 -0.534306 -2.40654e-06 0 -320.344 1959.37 0 -347.17 1677.74 0 -383.95 1459.95 0 -411.123 1288.88 0 -424.938 1149.04 0 -427.237 1030.54 0 -420.959 927.549 0 -408.713 836.617 0 -392.536 755.545 0 -373.934 682.875 0 -353.988 617.529 0 -333.47 558.683 0 -312.926 505.649 0 -292.737 457.847 0 -273.161 414.759 0 -254.375 375.928 0 -236.489 340.938 0 -219.567 309.415 0 -203.638 281.017 0 -188.708 255.433 0 -174.763 232.382 0 -161.776 211.607 0 -149.712 192.877 0 -138.528 175.982 0 -128.178 160.733 0 -118.614 146.96 0 -109.785 134.511 0 -101.645 123.247 0 -94.143 113.046 0 -87.234 103.798 0 -80.8732 95.4042 0 -75.0182 87.7779 0 -69.6291 80.8404 0 -64.6684 74.5219 0 -60.1013 68.7601 0 -55.8951 63.4996 0 -52.02 58.6911 0 -48.4481 54.2902 0 -45.154 50.2577 0 -42.1142 46.5585 0 -39.3072 43.1611 0 -36.7134 40.0374 0 -34.3148 37.1624 0 -32.095 34.5134 0 -30.0391 32.0703 0 -28.1333 29.8149 0 -26.3652 27.7308 0 -24.7236 25.8035 0 -23.198 24.0195 0 -21.7791 22.367 0 -20.4584 20.8351 0 -19.2279 19.414 0 -18.0807 18.0948 0 -17.0101 16.8695 0 -16.0104 15.7306 0 -15.0761 14.6715 0 -14.2022 13.6862 0 -13.3842 12.769 0 -12.6182 11.9149 0 -11.9001 11.1191 0 -11.2267 10.3775 0 -10.5947 9.68604 0 -10.0012 9.04121 0 -9.44355 8.43965 0 -8.91932 7.87831 0 -8.42624 7.35439 0 -7.96221 6.86527 0 -7.52533 6.40856 0 -7.11382 5.98203 0 -6.72605 5.58364 0 -6.3605 5.21146 0 -6.01578 4.86374 0 -5.69059 4.53883 0 -5.38373 4.23522 0 -5.09407 3.95148 0 -4.82059 3.68629 0 -4.56232 3.43844 0 -4.31835 3.20678 0 -4.08785 2.99025 0 -3.87004 2.78786 0 -3.66419 2.59868 0 -3.46962 2.42185 0 -3.28569 2.25656 0 -3.1118 2.10207 0 -2.94741 1.95767 0 -2.79197 1.8227 0 -2.64502 1.69655 0 -2.50607 1.57866 0 -2.37472 1.46847 0 -2.25053 1.3655 0 -2.13315 1.26927 0 -2.02221 1.17935 0 -1.91737 1.09531 0 -1.81832 1.01679 0 -1.72476 0.943406 0 -1.63642 0.87484 0 -1.55302 0.81077 0 -1.47433 0.750901 0 -1.4001 0.694957 0 -1.33013 0.642678 0 -1.26421 0.593824 0 -1.20213 0.548165 0 -1.14374 0.505493 0 -1.08884 0.465606 0 -1.03729 0.428317 0 -0.988929 0.393459 0 -0.943624 0.360858 0 -0.901247 0.330367 0 -0.86167 0.30185 0 -0.824784 0.275163 0 -0.79048 0.25019 0 -0.758668 0.226809 0 -0.729251 0.204913 0 -0.702149 0.1844 0 -0.677286 0.165179 0 -0.654593 0.147155 0 -0.634008 0.130255 0 -0.615473 0.114395 0 -0.598943 0.0995096 0 -0.584373 0.085529 0 -0.571721 0.0723964 0 -0.560957 0.0600529 0 -0.55206 0.0484492 0 -0.545004 0.037538 0 -0.539776 0.0272709 0 -0.536371 0.0176199 0 -0.53478 0.00853795 0 -0.53501 1.62423e-06 0 -388.217 1925.39 0 -403.738 1656.85 0 -428.339 1444.63 0 -446.027 1275.32 0 -452.964 1135.86 0 -450.271 1017.44