<?xml version="1.0"?> 
<VTKFile type="StructuredGrid" version="0.1"> 
<StructuredGrid WholeExtent="0 127 0 127 0 0"> 
<Piece Extent="0 127 0 127 0 0"> 
<PointData>
<DataArray type="Float32" Name="E" format="ascii" NumberOfComponents="3"> 
0 0 0 0 -3194.02 0 0 -6387.8 0 0 -9581.13 0 0 -12773.8 0 0 -15965.5 0 0 -19156 0 0 -22345.2 0 0 -25532.7 0 0 -28718.4 0 0 -31902 0 0 -35083.3 0 0 -38262 0 0 -41437.9 0 0 -44610.8 0 0 -47780.3 0 0 -50946.4 0 0 -54108.6 0 0 -57266.9 0 0 -60420.8 0 0 -63570.2 0 0 -66714.9 0 0 -69854.5 0 0 -72988.7 0 0 -76117.4 0 0 -79240.3 0 0 -82357 0 0 -85467.3 0 0 -88571 0 0 -91667.7 0 0 -94757.1 0 0 -97839 0 0 -100913 0 0 -103979 0 0 -107037 0 0 -110085 0 0 -113125 0 0 -116155 0 0 -119175 0 0 -122186 0 0 -125186 0 0 -128175 0 0 -131153 0 0 -134119 0 0 -137074 0 0 -140016 0 0 -142946 0 0 -145862 0 0 -148765 0 0 -151654 0 0 -154529 0 0 -157389 0 0 -160234 0 0 -163063 0 0 -165875 0 0 -168671 0 0 -171450 0 0 -174210 0 0 -176953 0 0 -179676 0 0 -182380 0 0 -185064 0 0 -187727 0 0 -190369 0 0 -192989 0 0 -195586 0 0 -198159 0 0 -200709 0 0 -203233 0 0 -205732 0 0 -208203 0 0 -210648 0 0 -213064 0 0 -215451 0 0 -217807 0 0 -220132 0 0 -222425 0 0 -224684 0 0 -226908 0 0 -229097 0 0 -231248 0 0 -233361 0 0 -235433 0 0 -237464 0 0 -239452 0 0 -241395 0 0 -243292 0 0 -245140 0 0 -246938 0 0 -248683 0 0 -250373 0 0 -252006 0 0 -253579 0 0 -255090 0 0 -256535 0 0 -257911 0 0 -259215 0 0 -260443 0 0 -261592 0 0 -262656 0 0 -263631 0 0 -264511 0 0 -265292 0 0 -265966 0 0 -266526 0 0 -266965 0 0 -267273 0 0 -267442 0 0 -267458 0 0 -267311 0 0 -266984 0 0 -266461 0 0 -265722 0 0 -264743 0 0 -263496 0 0 -261945 0 0 -260046 0 0 -257748 0 0 -254987 0 0 -251700 0 0 -247766 0 0 -242870 0 0 -236354 0 0 -227630 0 0 -218344 0 0 -212646 0 0 -195276 0 0 0 0 -2661.74 0 0 -2661.64 -3236.01 0 -2661.34 -6471.79 0 -2660.85 -9707.08 0 -2660.16 -12941.7 0 -2659.27 -16175.3 0 -2658.18 -19407.7 0 -2656.89 -22638.7 0 -2655.41 -25867.9 0 -2653.72 -29095.3 0 -2651.83 -32320.5 0 -2649.74 -35543.2 0 -2647.44 -38763.3 0 -2644.94 -41980.5 0 -2642.23 -45194.5 0 -2639.31 -48405.1 0 -2636.18 -51612 0 -2632.84 -54815 0 -2629.29 -58013.8 0 -2625.52 -61208.1 0 -2621.53 -64397.8 0 -2617.31 -67582.4 0 -2612.88 -70761.8 0 -2608.22 -73935.6 0 -2603.33 -77103.7 0 -2598.2 -80265.7 0 -2592.84 -83421.2 0 -2587.24 -86570.2 0 -2581.4 -89712.2 0 -2575.31 -92846.9 0 -2568.98 -95974.1 0 -2562.38 -99093.4 0 -2555.53 -102205 0 -2548.41 -105307 0 -2541.03 -108401 0 -2533.37 -111486 0 -2525.43 -114561 0 -2517.21 -117626 0 -2508.69 -120682 0 -2499.88 -123726 0 -2490.77 -126760 0 -2481.35 -129783 0 -2471.61 -132793 0 -2461.55 -135792 0 -2451.15 -138779 0 -2440.42 -141752 0 -2429.34 -144713 0 -2417.9 -147659 0 -2406.09 -150592 0 -2393.91 -153510 0 -2381.34 -156413 0 -2368.37 -159300 0 -2355 -162171 0 -2341.2 -165026 0 -2326.98 -167864 0 -2312.31 -170684 0 -2297.17 -173487 0 -2281.57 -176270 0 -2265.47 -179034 0 -2248.87 -181779 0 -2231.75 -184502 0 -2214.09 -187205 0 -2195.87 -189886 0 -2177.07 -192544 0 -2157.67 -195180 0 -2137.65 -197791 0 -2116.99 -200377 0 -2095.65 -202938 0 -2073.62 -205473 0 -2050.86 -207981 0 -2027.35 -210460 0 -2003.05 -212910 0 -1977.93 -215330 0 -1951.95 -217720 0 -1925.08 -220077 0 -1897.27 -222401 0 -1868.49 -224690 0 -1838.67 -226944 0 -1807.77 -229161 0 -1775.74 -231340 0 -1742.51 -233479 0 -1708.03 -235577 0 -1672.22 -237632 0 -1635.01 -239643 0 -1596.32 -241608 0 -1556.06 -243525 0 -1514.13 -245392 0 -1470.43 -247207 0 -1424.84 -248967 0 -1377.23 -250671 0 -1327.48 -252316 0 -1275.42 -253899 0 -1220.88 -255418 0 -1163.68 -256868 0 -1103.6 -258248 0 -1040.41 -259552 0 -973.848 -260778 0 -903.609 -261921 0 -829.358 -262976 0 -750.712 -263938 0 -667.232 -264802 0 -578.412 -265561 0 -483.671 -266209 0 -382.33 -266738 0 -273.593 -267140 0 -156.526 -267405 0 -30.0113 -267522 0 107.287 -267479 0 256.99 -267263 0 421.084 -266857 0 602.029 -266242 0 802.923 -265396 0 1027.73 -264294 0 1281.59 -262902 0 1571.25 -261184 0 1905.75 -259090 0 2297.82 -256559 0 2766.87 -253512 0 3343.79 -249847 0 4076.24 -245431 0 5024.48 -240067 0 6278.32 -233396 0 8056.91 -224650 0 11287.3 -212696 0 18735.4 -196856 0 36306.7 -180764 0 68403 -175197 0 92241.5 -184483 0 -5323.6 0 0 -5323.4 -3278.18 0 -5322.79 -6556.1 0 -5321.78 -9833.53 0 -5320.37 -13110.2 0 -5318.54 -16385.9 0 -5316.31 -19660.3 0 -5313.67 -22933.3 0 -5310.62 -26204.5 0 -5307.16 -29473.6 0 -5303.28 -32740.6 0 -5298.98 -36005 0 -5294.27 -39266.6 0 -5289.13 -42525.2 0 -5283.57 -45780.5 0 -5277.58 -49032.3 0 -5271.16 -52280.2 0 -5264.3 -55524.1 0 -5257 -58763.6 0 -5249.26 -61998.5 0 -5241.06 -65228.4 0 -5232.41 -68453.2 0 -5223.3 -71672.5 0 -5213.73 -74886.1 0 -5203.68 -78093.6 0 -5193.15 -81294.8 0 -5182.13 -84489.4 0 -5170.62 -87677 0 -5158.61 -90857.4 0 -5146.1 -94030.3 0 -5133.06 -97195.3 0 -5119.5 -100352 0 -5105.4 -103500 0 -5090.76 -106640 0 -5075.56 -109770 0 -5059.8 -112891 0 -5043.46 -116002 0 -5026.53 -119102 0 -5008.99 -122192 0 -4990.84 -125271 0 -4972.07 -128339 0 -4952.65 -131395 0 -4932.57 -134439 0 -4911.83 -137470 0 -4890.39 -140488 0 -4868.24 -143493 0 -4845.37 -146484 0 -4821.76 -149461 0 -4797.38 -152423 0 -4772.22 -155370 0 -4746.25 -158301 0 -4719.45 -161215 0 -4691.8 -164113 0 -4663.27 -166994 0 -4633.83 -169857 0 -4603.46 -172701 0 -4572.13 -175527 0 -4539.8 -178333 0 -4506.45 -181119 0 -4472.03 -183883 0 -4436.52 -186627 0 -4399.87 -189348 0 -4362.04 -192046 0 -4322.99 -194721 0 -4282.67 -197371 0 -4241.04 -199996 0 -4198.04 -202595 0 -4153.63 -205167 0 -4107.73 -207712 0 -4060.29 -210227 0 -4011.25 -212713 0 -3960.54 -215169 0 -3908.07 -217592 0 -3853.77 -219983 0 -3797.56 -222340 0 -3739.33 -224661 0 -3679.01 -226947 0 -3616.47 -229194 0 -3551.61 -231402 0 -3484.3 -233570 0 -3414.41 -235696 0 -3341.8 -237777 0 -3266.31 -239813 0 -3187.77 -241802 0 -3106 -243742 0 -3020.79 -245630 0 -2931.94 -247465 0 -2839.19 -249244 0 -2742.28 -250965 0 -2640.93 -252626 0 -2534.8 -254222 0 -2423.54 -255752 0 -2306.76 -257211 0 -2184 -258598 0 -2054.77 -259907 0 -1918.51 -261134 0 -1774.59 -262276 0 -1622.29 -263327 0 -1460.79 -264282 0 -1289.14 -265135 0 -1106.28 -265880 0 -910.95 -266508 0 -701.682 -267014 0 -476.761 -267386 0 -234.154 -267617 0 28.5679 -267693 0 314.331 -267602 0 626.698 -267329 0 970.052 -266858 0 1349.86 -266167 0 1773.04 -265234 0 2248.47 -264031 0 2787.73 -262523 0 3406.3 -260669 0 4125.48 -258419 0 4975.51 -255707 0 6000.56 -252453 0 7265.69 -248550 0 8869.79 -243851 0 10977.8 -238126 0 13922.9 -231031 0 18422 -222194 0 25907 -211768 0 38444.9 -201455 0 57278.2 -195232 0 79094.7 -196465 0 93894.4 -200934 0 106567 -213135 0 -7985.74 0 0 -7985.43 -3320.51 0 -7984.5 -6640.76 0 -7982.94 -9960.5 0 -7980.76 -13279.5 0 -7977.95 -16597.4 0 -7974.52 -19914 0 -7970.46 -23229.1 0 -7965.76 -26542.3 0 -7960.44 -29853.5 0 -7954.47 -33162.4 0 -7947.86 -36468.6 0 -7940.61 -39771.9 0 -7932.71 -43072.1 0 -7924.15 -46368.9 0 -7914.93 -49662 0 -7905.05 -52951.1 0 -7894.49 -56236 0 -7883.26 -59516.3 0 -7871.33 -62791.9 0 -7858.72 -66062.3 0 -7845.4 -69327.4 0 -7831.37 -72586.8 0 -7816.62 -75840.2 0 -7801.14 -79087.4 0 -7784.92 -82327.9 0 -7767.95 -85561.6 0 -7750.22 -88788.1 0 -7731.71 -92007 0 -7712.41 -95218.1 0 -7692.32 -98421 0 -7671.41 -101615 0 -7649.67 -104801 0 -7627.08 -107977 0 -7603.64 -111144 0 -7579.31 -114301 0 -7554.09 -117448 0 -7527.96 -120584 0 -7500.89 -123708 0 -7472.86 -126822 0 -7443.86 -129924 0 -7413.86 -133013 0 -7382.83 -136090 0 -7350.76 -139153 0 -7317.61 -142203 0 -7283.36 -145239 0 -7247.98 -148261 0 -7211.44 -151268 0 -7173.7 -154259 0 -7134.74 -157235 0 -7094.51 -160193 0 -7052.99 -163135 0 -7010.13 -166060 0 -6965.89 -168966 0 -6920.23 -171854 0 -6873.1 -174723 0 -6824.46 -177571 0 -6774.26 -180399 0 -6722.44 -183206 0 -6668.94 -185992 0 -6613.71 -188754 0 -6556.69 -191494 0 -6497.81 -194209 0 -6436.99 -196899 0 -6374.17 -199564 0 -6309.26 -202202 0 -6242.19 -204813 0 -6172.86 -207396 0 -6101.17 -209950 0 -6027.04 -212473 0 -5950.34 -214965 0 -5870.96 -217424 0 -5788.79 -219851 0 -5703.68 -222242 0 -5615.5 -224598 0 -5524.1 -226916 0 -5429.31 -229196 0 -5330.95 -231436 0 -5228.84 -233634 0 -5122.77 -235789 0 -5012.52 -237900 0 -4897.84 -239964 0 -4778.48 -241979 0 -4654.14 -243944 0 -4524.52 -245857 0 -4389.27 -247715 0 -4248.02 -249515 0 -4100.35 -251256 0 -3945.81 -252935 0 -3783.89 -254548 0 -3614.04 -256093 0 -3435.61 -257566 0 -3247.93 -258963 0 -3050.2 -260281 0 -2841.54 -261516 0 -2620.95 -262662 0 -2387.3 -263714 0 -2139.28 -264668 0 -1875.41 -265516 0 -1593.98 -266253 0 -1292.97 -266871 0 -970.053 -267361 0 -622.481 -267714 0 -246.984 -267920 0 160.347 -267967 0 604.238 -267841 0 1090.46 -267527 0 1626.13 -267008 0 2220.16 -266263 0 2883.84 -265267 0 3631.74 -263992 0 4482.95 -262404 0 5463.08 -260462 0 6607.31 -258114 0 7965.06 -255301 0 9607.4 -251944 0 11639.9 -247948 0 14228.9 -243188 0 17653.8 -237520 0 22399 -230856 0 29232 -223391 0 39109.8 -216009 0 52580.8 -210497 0 68628.2 -208879 0 84019.8 -211527 0 95428.2 -216184 0 105819 -223777 0 114091 -228182 0 -10648.3 0 0 -10647.8 -3363.03 0 -10646.6 -6725.78 0 -10644.4 -10088 0 -10641.5 -13449.4 0 -10637.6 -16809.8 0 -10632.9 -20168.8 0 -10627.4 -23526.2 0 -10621 -26881.7 0 -10613.7 -30235 0 -10605.5 -33585.9 0 -10596.5 -36934.1 0 -10586.6 -40279.3 0 -10575.8 -43621.3 0 -10564.1 -46959.7 0 -10551.5 -50294.3 0 -10538 -53624.8 0 -10523.5 -56950.8 0 -10508.2 -60272.2 0 -10491.9 -63588.6 0 -10474.6 -66899.7 0 -10456.4 -70205.2 0 -10437.2 -73504.8 0 -10417 -76798.2 0 -10395.8 -80085.1 0 -10373.6 -83365.1 0 -10350.4 -86638.1 0 -10326.1 -89903.5 0 -10300.8 -93161.1 0 -10274.3 -96410.5 0 -10246.8 -99651.5 0 -10218.2 -102884 0 -10188.4 -106107 0 -10157.4 -109320 0 -10125.3 -112523 0 -10091.9 -115716 0 -10057.4 -118899 0 -10021.5 -122070 0 -9984.38 -125230 0 -9945.93 -128378 0 -9906.13 -131513 0 -9864.94 -134636 0 -9822.34 -137746 0 -9778.29 -140842 0 -9732.75 -143924 0 -9685.68 -146991 0 -9637.04 -150044 0 -9586.8 -153080 0 -9534.89 -156101 0 -9481.29 -159105 0 -9425.92 -162092 0 -9368.76 -165061 0 -9309.73 -168012 0 -9248.78 -170944 0 -9185.85 -173856 0 -9120.87 -176749 0 -9053.77 -179620 0 -8984.5 -182471 0 -8912.95 -185299 0 -8839.07 -188104 0 -8762.76 -190885 0 -8683.92 -193643 0 -8602.48 -196374 0 -8518.32 -199080 0 -8431.33 -201759 0 -8341.41 -204411 0 -8248.44 -207033 0 -8152.27 -209626 0 -8052.78 -212188 0 -7949.81 -214718 0 -7843.22 -217216 0 -7732.82 -219679 0 -7618.45 -222107 0 -7499.91 -224498 0 -7376.98 -226852 0 -7249.45 -229166 0 -7117.07 -231440 0 -6979.59 -233671 0 -6836.72 -235858 0 -6688.16 -238000 0 -6533.57 -240094 0 -6372.59 -242138 0 -6204.83 -244132 0 -6029.86 -246071 0 -5847.21 -247955 0 -5656.36 -249780 0 -5456.73 -251545 0 -5247.71 -253245 0 -5028.58 -254879 0 -4798.57 -256443 0 -4556.82 -257933 0 -4302.35 -259346 0 -4034.08 -260678 0 -3750.78 -261924 0 -3451.06 -263080 0 -3133.34 -264140 0 -2795.8 -265099 0 -2436.36 -265950 0 -2052.62 -266687 0 -1641.78 -267301 0 -1200.55 -267785 0 -725.072 -268129 0 -210.747 -268323 0 347.937 -268353 0 957.647 -268208 0 1626.53 -267871 0 2364.67 -267324 0 3184.67 -266548 0 4102.51 -265518 0 5138.79 -264207 0 6320.5 -262582 0 7683.64 -260605 0 9277.23 -258231 0 11169.3 -255409 0 13456.5 -252079 0 16280.5 -248177 0 19854.6 -243648 0 24499.4 -238494 0 30663.1 -232883 0 38853.9 -227313 0 49384.9 -222728 0 61910 -220308 0 75078.9 -220782 0 87066.6 -223757 0 97105.2 -228062 0 106631 -233669 0 114797 -238318 0 121947 -243894 0 -13311.3 0 0 -13310.8 -3405.72 0 -13309.2 -6811.17 0 -13306.4 -10216.1 0 -13302.6 -13620.1 0 -13297.7 -17023.1 0 -13291.7 -20424.6 0 -13284.6 -23824.5 0 -13276.4 -27222.4 0 -13267.1 -30618.1 0 -13256.6 -34011.3 0 -13245 -37401.7 0 -13232.3 -40788.9 0 -13218.5 -44172.8 0 -13203.5 -47553 0 -13187.4 -50929.3 0 -13170 -54301.3 0 -13151.5 -57668.7 0 -13131.8 -61031.2 0 -13110.9 -64388.6 0 -13088.8 -67740.5 0 -13065.5 -71086.6 0 -13040.8 -74426.6 0 -13015 -77760.2 0 -12987.8 -81087 0 -12959.3 -84406.7 0 -12929.5 -87719 0 -12898.4 -91023.5 0 -12865.9 -94319.9 0 -12831.9 -97607.8 0 -12796.6 -100887 0 -12759.8 -104157 0 -12721.6 -107417 0 -12681.8 -110668 0 -12640.6 -113908 0 -12597.7 -117137 0 -12553.3 -120356 0 -12507.2 -123562 0 -12459.5 -126757 0 -12410 -129940 0 -12358.8 -133109 0 -12305.9 -136266 0 -12251 -139408 0 -12194.3 -142537 0 -12135.7 -145651 0 -12075.1 -148749 0 -12012.5 -151832 0 -11947.7 -154899 0 -11880.8 -157949 0 -11811.7 -160981 0 -11740.3 -163996 0 -11666.5 -166992 0 -11590.3 -169970 0 -11511.6 -172927 0 -11430.4 -175864 0 -11346.4 -178781 0 -11259.7 -181675 0 -11170.1 -184547 0 -11077.5 -187396 0 -10981.9 -190221 0 -10883.1 -193021 0 -10780.9 -195796 0 -10675.4 -198544 0 -10566.2 -201265 0 -10453.3 -203958 0 -10336.6 -206622 0 -10215.8 -209256 0 -10090.8 -211858 0 -9961.37 -214428 0 -9827.35 -216965 0 -9688.5 -219467 0 -9544.61 -221933 0 -9395.41 -224362 0 -9240.64 -226753 0 -9080.03 -229104 0 -8913.25 -231413 0 -8739.98 -233679 0 -8559.85 -235901 0 -8372.47 -238076 0 -8177.42 -240203 0 -7974.23 -242279 0 -7762.4 -244304 0 -7541.38 -246273 0 -7310.55 -248186 0 -7069.25 -250039 0 -6816.74 -251830 0 -6552.22 -253556 0 -6274.79 -255215 0 -5983.43 -256801 0 -5677.04 -258313 0 -5354.36 -259747 0 -5013.98 -261097 0 -4654.32 -262361 0 -4273.58 -263532 0 -3869.7 -264606 0 -3440.34 -265577 0 -2982.79 -266438 0 -2493.94 -267183 0 -1970.14 -267804 0 -1407.14 -268292 0 -799.906 -268638 0 -142.461 -268832 0 572.361 -268860 0 1353.23 -268712 0 2210.73 -268370 0 3157.93 -267818 0 4211.15 -267037 0 5391.04 -266004 0 6724.04 -264695 0 8244.55 -263081 0 9998 -261129 0 12045.2 -258807 0 14469 -256078 0 17383.6 -252910 0 20947.9 -249289 0 25379.8 -245244 0 30958.7 -240904 0 37986.8 -236575 0 46667.6 -232800 0 56896.3 -230293 0 68073.6 -229670 0 79196.5 -231062 0 89428.2 -234023 0 98671 -237933 0 107375 -242573 0 114928 -246979 0 121719 -251857 0 128295 -256591 0 -15975.1 0 0 -15974.4 -3448.61 0 -15972.4 -6896.94 0 -15969.1 -10344.7 0 -15964.4 -13791.6 0 -15958.3 -17237.3 0 -15950.9 -20681.6 0 -15942.2 -24124.2 0 -15932.1 -27564.7 0 -15920.6 -31002.9 0 -15907.8 -34438.6 0 -15893.6 -37871.3 0 -15878 -41300.8 0 -15861 -44726.8 0 -15842.5 -48149 0 -15822.7 -51567.1 0 -15801.4 -54980.8 0 -15778.6 -58389.7 0 -15754.4 -61793.6 0 -15728.7 -65192.2 0 -15701.5 -68585.1 0 -15672.7 -71971.9 0 -15642.5 -75352.4 0 -15610.6 -78726.3 0 -15577.2 -82093.2 0 -15542.1 -85452.7 0 -15505.5 -88804.5 0 -15467.1 -92148.3 0 -15427.1 -95483.6 0 -15385.3 -98810.2 0 -15341.8 -102128 0 -15296.5 -105436 0 -15249.4 -108733 0 -15200.4 -112021 0 -15149.5 -115298 0 -15096.7 -118564 0 -15041.9 -121818 0 -14985.1 -125061 0 -14926.2 -128291 0 -14865.2 -131508 0 -14802 -134711 0 -14736.6 -137901 0 -14668.9 -141077 0 -14598.9 -144238 0 -14526.5 -147384 0 -14451.6 -150514 0 -14374.1 -153627 0 -14294.1 -156724 0 -14211.3 -159803 0 -14125.8 -162864 0 -14037.4 -165907 0 -13946.1 -168930 0 -13851.7 -171934 0 -13754.2 -174917 0 -13653.5 -177879 0 -13549.4 -180818 0 -13441.8 -183736 0 -13330.6 -186629 0 -13215.7 -189499 0 -13096.9 -192344 0 -12974.1 -195162 0 -12847.1 -197955 0 -12715.8 -200719 0 -12579.9 -203455 0 -12439.4 -206162 0 -12293.9 -208838 0 -12143.3 -211482 0 -11987.4 -214094 0 -11825.8 -216671 0 -11658.4 -219214 0 -11484.8 -221721 0 -11304.8 -224189 0 -11118 -226619 0 -10924.1 -229008 0 -10722.7 -231356 0 -10513.3 -233659 0 -10295.7 -235917 0 -10069.1 -238129 0 -9833.27 -240291 0 -9587.47 -242402 0 -9331.12 -244460 0 -9063.55 -246462 0 -8784.02 -248407 0 -8491.69 -250292 0 -8185.67 -252113 0 -7864.97 -253869 0 -7528.46 -255555 0 -7174.93 -257169 0 -6802.99 -258707 0 -6411.1 -260166 0 -5997.54 -261540 0 -5560.34 -262826 0 -5097.28 -264019 0 -4605.83 -265113 0 -4083.11 -266103 0 -3525.78 -266982 0 -2929.99 -267744 0 -2291.26 -268380 0 -1604.34 -268883 0 -863.03 -269243 0 -59.9892 -269450 0 813.59 -269492 0 1768.33 -269357 0 2817.19 -269030 0 3976.07 -268497 0 5264.77 -267738 0 6708.14 -266735 0 8337.73 -265468 0 10194.1 -263912 0 12329.8 -262047 0 14813.7 -259850 0 17736.4 -257309 0 21216.8 -254424 0 25408 -251230 0 30495.3 -247824 0 36673.6 -244404 0 44087.3 -241305 0 52725.8 -238977 0 62317.2 -237877 0 72320.1 -238271 0 82111.4 -240084 0 91313.1 -242986 0 99891.2 -246622 0 107892 -250766 0 115044 -254960 0 121741 -259465 0 128198 -263901 0 134106 -268212 0 -18639.6 0 0 -18638.8 -3491.7 0 -18636.4 -6983.1 0 -18632.4 -10473.9 0 -18626.8 -13963.8 0 -18619.6 -17452.5 0 -18610.8 -20939.8 0 -18600.4 -24425.2 0 -18588.3 -27908.6 0 -18574.6 -31389.5 0 -18559.3 -34867.8 0 -18542.3 -38343 0 -18523.6 -41815 0 -18503.3 -45283.3 0 -18481.3 -48747.7 0 -18457.6 -52207.8 0 -18432.1 -55663.4 0 -18404.9 -59114 0 -18376 -62559.5 0 -18345.2 -65999.4 0 -18312.7 -69433.4 0 -18278.4 -72861.2 0 -18242.2 -76282.4 0 -18204.1 -79696.8 0 -18164.1 -83103.9 0 -18122.2 -86503.3 0 -18078.3 -89894.8 0 -18032.4 -93278 0 -17984.5 -96652.4 0 -17934.5 -100018 0 -17882.4 -103374 0 -17828.2 -106720 0 -17771.8 -110055 0 -17713.1 -113380 0 -17652.2 -116694 0 -17588.9 -119997 0 -17523.2 -123287 0 -17455.1 -126565 0 -17384.5 -129830 0 -17311.4 -133082 0 -17235.6 -136320 0 -17157.1 -139544 0 -17075.9 -142753 0 -16991.9 -145946 0 -16904.9 -149124 0 -16815 -152285 0 -16721.9 -155429 0 -16625.7 -158556 0 -16526.3 -161665 0 -16423.4 -164755 0 -16317.1 -167825 0 -16207.3 -170875 0 -16093.7 -173905 0 -15976.3 -176914 0 -15854.9 -179900 0 -15729.5 -182863 0 -15599.8 -185803 0 -15465.7 -188719 0 -15327 -191609 0 -15183.6 -194473 0 -15035.3 -197310 0 -14881.9 -200120 0 -14723.1 -202900 0 -14558.8 -205651 0 -14388.7 -208371 0 -14212.5 -211058 0 -14030 -213713 0 -13840.9 -216334 0 -13644.9 -218919 0 -13441.7 -221467 0 -13230.8 -223978 0 -13011.9 -226449 0 -12784.6 -228879 0 -12548.4 -231266 0 -12302.9 -233609 0 -12047.6 -235906 0 -11781.8 -238156 0 -11504.9 -240356 0 -11216.3 -242504 0 -10915.2 -244599 0 -10600.8 -246638 0 -10272.3 -248618 0 -9928.62 -250537 0 -9568.74 -252392 0 -9191.46 -254181 0 -8795.47 -255900 0 -8379.3 -257545 0 -7941.32 -259114 0 -7479.68 -260603 0 -6992.35 -262006 0 -6476.97 -263321 0 -5930.93 -264541 0 -5351.21 -265662 0 -4734.37 -266679 0 -4076.48 -267583 0 -3372.95 -268370 0 -2618.48 -269032 0 -1806.85 -269560 0 -930.762 -269945 0 18.4602 -270179 0 1051.16 -270249 0 2179.78 -270146 0 3419.4 -269854 0 4788.48 -269362 0 6309.75 -268653 0 8011.51 -267712 0 9929.18 -266524 0 12107.5 -265074 0 14603.1 -263349 0 17487.9 -261345 0 20852.2 -259069 0 24807.2 -256553 0 29482.2 -253870 0 35011.9 -251155 0 41504.1 -248624 0 48984.8 -246573 0 57335.8 -245330 0 66265.8 -245160 0 75367.3 -246152 0 84263.7 -248193 0 92749.5 -251057 0 100760 -254514 0 108250 -258368 0 115157 -262375 0 121744 -266600 0 128032 -270807 0 133902 -275004 0 139640 -279280 0 -21305.1 0 0 -21304.1 -3534.99 0 -21301.3 -7069.67 0 -21296.7 -10603.7 0 -21290.1 -14136.9 0 -21281.7 -17668.8 0 -21271.4 -21199.2 0 -21259.2 -24727.7 0 -21245.1 -28254 0 -21229 -31777.9 0 -21211.1 -35299 0 -21191.2 -38817 0 -21169.4 -42331.6 0 -21145.6 -45842.4 0 -21119.9 -49349.1 0 -21092.1 -52851.5 0 -21062.3 -56349.1 0 -21030.5 -59841.7 0 -20996.7 -63328.9 0 -20960.7 -66810.3 0 -20922.6 -70285.6 0 -20882.4 -73754.6 0 -20840 -77216.7 0 -20795.4 -80671.7 0 -20748.6 -84119.2 0 -20699.5 -87558.8 0 -20648.1 -90990.2 0 -20594.4 -94412.9 0 -20538.2 -97826.6 0 -20479.7 -101231 0 -20418.6 -104625 0 -20355 -108010 0 -20288.9 -111383 0 -20220.1 -114746 0 -20148.6 -118097 0 -20074.4 -121436 0 -19997.3 -124763 0 -19917.4 -128076 0 -19834.5 -131377 0 -19748.6 -134664 0 -19659.6 -137936 0 -19567.5 -141193 0 -19472 -144435 0 -19373.3 -147662 0 -19271 -150871 0 -19165.2 -154064 0 -19055.8 -157239 0 -18942.6 -160396 0 -18825.5 -163534 0 -18704.5 -166652 0 -18579.3 -169751 0 -18449.8 -172828 0 -18316 -175884 0 -18177.5 -178918 0 -18034.4 -181929 0 -17886.3 -184916 0 -17733.2 -187878 0 -17574.9 -190815 0 -17411.1 -193726 0 -17241.6 -196610 0 -17066.2 -199465 0 -16884.6 -202292 0 -16696.6 -205088 0 -16502 -207853 0 -16300.4 -210586 0 -16091.5 -213286 0 -15875 -215951 0 -15650.5 -218580 0 -15417.6 -221173 0 -15175.9 -223726 0 -14925 -226240 0 -14664.4 -228713 0 -14393.6 -231143 0 -14111.9 -233528 0 -13818.9 -235866 0 -13513.8 -238157 0 -13195.9 -240398 0 -12864.5 -242586 0 -12518.6 -244720 0 -12157.4 -246798 0 -11779.9 -248816 0 -11384.8 -250773 0 -10971 -252666 0 -10537.1 -254492 0 -10081.5 -256247 0 -9602.65 -257928 0 -9098.53 -259533 0 -8567.06 -261056 0 -8005.86 -262494 0 -7412.25 -263843 0 -6783.17 -265097 0 -6115.15 -266251 0 -5404.25 -267301 0 -4645.9 -268240 0 -3834.85 -269060 0 -2965.01 -269757 0 -2029.26 -270321 0 -1019.26 -270744 0 74.8528 -271017 0 1264.81 -271131 0 2564.64 -271075 0 3991.23 -270838 0 5565.09 -270409 0 7311.21 -269776 0 9260.28 -268927 0 11450.1 -267853 0 13927.3 -266548 0 16749.3 -265010 0 19985.9 -263248 0 23720.5 -261291 0 28047.5 -259193 0 33064.7 -257048 0 38855.8 -255002 0 45459.4 -253258 0 52832.1 -252051 0 60820.7 -251603 0 69171.8 -252058 0 77594.2 -253433 0 85846.2 -255622 0 93787.2 -258469 0 101344 -261803 0 108478 -265470 0 115203 -269323 0 121652 -273349 0 127799 -277401 0 133639 -281486 0 139340 -285605 0 144827 -289653 0 -23971.6 0 0 -23970.5 -3578.48 0 -23967.3 -7156.65 0 -23961.9 -10734.2 0 -23954.4 -14310.8 0 -23944.7 -17886.1 0 -23932.8 -21459.8 0 -23918.8 -25031.6 0 -23902.5 -28601.2 0 -23884.1 -32168.2 0 -23863.5 -35732.3 0 -23840.6 -39293.3 0 -23815.5 -42850.6 0 -23788.1 -46404.2 0 -23758.5 -49953.5 0 -23726.5 -53498.3 0 -23692.2 -57038.2 0 -23655.6 -60572.8 0 -23616.6 -64101.9 0 -23575.2 -67625.1 0 -23531.3 -71142 0 -23485 -74652.2 0 -23436.2 -78155.4 0 -23384.8 -81651.3 0 -23330.8 -85139.3 0 -23274.3 -88619.3 0 -23215 -92090.7 0 -23153.1 -95553.2 0 -23088.3 -99006.3 0 -23020.8 -102450 0 -22950.4 -105883 0 -22877.1 -109306 0 -22800.7 -112717 0 -22721.4 -116118 0 -22638.9 -119506 0 -22553.2 -122882 0 -22464.2 -126245 0 -22371.9 -129595 0 -22276.2 -132931 0 -22177 -136252 0 -22074.1 -139559 0 -21967.6 -142850 0 -21857.3 -146126 0 -21743 -149385 0 -21624.8 -152627 0 -21502.4 -155851 0 -21375.7 -159057 0 -21244.6 -162244 0 -21109.1 -165411 0 -20968.8 -168558 0 -20823.7 -171685 0 -20673.6 -174790 0 -20518.4 -177872 0 -20357.8 -180931 0 -20191.6 -183966 0 -20019.7 -186977 0 -19841.9 -189962 0 -19657.9 -192921 0 -19467.4 -195852 0 -19270.3 -198755 0 -19066.1 -201629 0 -18854.8 -204472 0 -18635.8 -207284 0 -18409 -210064 0 -18173.8 -212810 0 -17930.1 -215521 0 -17677.3 -218197 0 -17415 -220835 0 -17142.7 -223434 0 -16860 -225993 0 -16566.2 -228510 0 -16260.9 -230984 0 -15943.3 -233413 0 -15612.8 -235796 0 -15268.6 -238130 0 -14909.9 -240414 0 -14535.8 -242645 0 -14145.4 -244821 0 -13737.6 -246941 0 -13311.2 -249001 0 -12864.9 -251000 0 -12397.4 -252933 0 -11907.1 -254799 0 -11392.2 -256595 0 -10850.9 -258317 0 -10280.9 -259961 0 -9679.97 -261524 0 -9045.32 -263002 0 -8373.93 -264390 0 -7662.37 -265684 0 -6906.72 -266879 0 -6102.54 -267969 0 -5244.71 -268949 0 -4327.35 -269812 0 -3343.64 -270552 0 -2285.66 -271162 0 -1144.13 -271634 0 91.8305 -271960 0 1435.12 -272132 0 2901.04 -272140 0 4507.9 -271976 0 6277.66 -271631 0 8236.77 -271096 0 10417.2 -270365 0 12857.4 -269435 0 15603.9 -268306 0 18711.7 -266989 0 22244.7 -265505 0 26274.7 -263895 0 30875.8 -262228 0 36114.4 -260607 0 42031.9 -259171 0 48621.6 -258093 0 55807.4 -257550 0 63438.1 -257688 0 71309.2 -258583 0 79210.2 -260222 0 86972.5 -262522 0 94488.1 -265361 0 101694 -268613 0 108568 -272156 0 115134 -275892 0 121449 -279778 0 127496 -283720 0 133314 -287714 0 138992 -291737 0 144493 -295739 0 149875 -299751 0 -26639.3 0 0 -26638.1 -3622.19 0 -26634.4 -7244.06 0 -26628.3 -10865.3 0 -26619.8 -14485.5 0 -26608.7 -18104.4 0 -26595.3 -21721.7 0 -26579.3 -25337 0 -26560.9 -28950 0 -26539.9 -32560.4 0 -26516.5 -36167.8 0 -26490.5 -39771.8 0 -26462 -43372.3 0 -26430.9 -46968.7 0 -26397.2 -50560.8 0 -26360.8 -54148.2 0 -26321.9 -57730.6 0 -26280.2 -61307.5 0 -26235.9 -64878.8 0 -26188.8 -68443.9 0 -26138.9 -72002.5 0 -26086.3 -75554.2 0 -26030.7 -79098.7 0 -25972.3 -82635.6 0 -25910.9 -86164.5 0 -25846.5 -89684.9 0 -25779.1 -93196.6 0 -25708.6 -96699 0 -25635 -100192 0 -25558.1 -103674 0 -25477.9 -107147 0 -25394.4 -110608 0 -25307.5 -114058 0 -25217 -117496 0 -25123 -120922 0 -25025.4 -124335 0 -24924 -127734 0 -24818.8 -131120 0 -24709.6 -134492 0 -24596.4 -137848 0 -24479.1 -141190 0 -24357.5 -144515 0 -24231.6 -147824 0 -24101.2 -151116 0 -23966.1 -154390 0 -23826.3 -157646 0 -23681.5 -160883 0 -23531.7 -164100 0 -23376.7 -167297 0 -23216.3 -170473 0 -23050.3 -173628 0 -22878.5 -176760 0 -22700.7 -179868 0 -22516.8 -182953 0 -22326.4 -186013 0 -22129.4 -189047 0 -21925.4 -192055 0 -21714.3 -195035 0 -21495.7 -197987 0 -21269.3 -200910 0 -21034.8 -203802 0 -20791.8 -206662 0 -20540 -209490 0 -20279 -212284 0 -20008.3 -215043 0 -19727.4 -217766 0 -19436 -220452 0 -19133.5 -223098 0 -18819.2 -225704 0 -18492.6 -228268 0 -18153.1 -230789 0 -17799.9 -233264 0 -17432.2 -235693 0 -17049.3 -238073 0 -16650.1 -240402 0 -16233.8 -242679 0 -15799.2 -244901 0 -15345.1 -247065 0 -14870.3 -249170 0 -14373.3 -251213 0 -13852.6 -253191 0 -13306.4 -255102 0 -12732.7 -256942 0 -12129.6 -258708 0 -11494.5 -260396 0 -10824.8 -262004 0 -10117.6 -263526 0 -9369.43 -264960 0 -8576.51 -266299 0 -7734.54 -267540 0 -6838.6 -268678 0 -5883.07 -269707 0 -4861.51 -270621 0 -3766.47 -271414 0 -2589.33 -272080 0 -1320.03 -272612 0 53.1551 -273003 0 1544.02 -273245 0 3168.83 -273332 0 4946.82 -273257 0 6900.8 -273013 0 9057.87 -272597 0 11450.1 -272006 0 14115.4 -271242 0 17097.9 -270314 0 20448.2 -269239 0 24221.9 -268050 0 28477.3 -266795 0 33268.4 -265550 0 38634.8 -264415 0 44587.6 -263515 0 51094.2 -262989 0 58068.5 -262968 0 65375.5 -263547 0 72853 -264767 0 80343.8 -266604 0 87722.5 -268991 0 94903.5 -271833 0 101837 -275031 0 108509 -278493 0 114934 -282143 0 121134 -285930 0 127111 -289793 0 132907 -293715 0 138564 -297669 0 144068 -301624 0 149465 -305588 0 154769 -309538 0 -29308.4 0 0 -29307 -3666.12 0 -29302.9 -7331.91 0 -29296 -10997 0 -29286.4 -14661.1 0 -29274 -18323.9 0 -29258.8 -21984.9 0 -29240.9 -25643.9 0 -29220.2 -29300.6 0 -29196.6 -32954.5 0 -29170.3 -36605.4 0 -29141 -40252.8 0 -29109 -43896.5 0 -29074 -47536.1 0 -29036.1 -51171.2 0 -28995.2 -54801.4 0 -28951.4 -58426.5 0 -28904.5 -62046 0 -28854.7 -65659.5 0 -28801.7 -69266.7 0 -28745.6 -72867.3 0 -28686.3 -76460.8 0 -28623.8 -80046.8 0 -28558 -83624.9 0 -28488.9 -87194.7 0 -28416.4 -90755.9 0 -28340.5 -94308 0 -28261.1 -97850.5 0 -28178.1 -101383 0 -28091.5 -104905 0 -28001.2 -108417 0 -27907.1 -111917 0 -27809.1 -115405 0 -27707.2 -118881 0 -27601.2 -122345 0 -27491.1 -125795 0 -27376.7 -129231 0 -27258 -132653 0 -27134.8 -136061 0 -27007.1 -139453 0 -26874.6 -142829 0 -26737.3 -146188 0 -26595 -149531 0 -26447.7 -152856 0 -26295 -156162 0 -26137 -159450 0 -25973.3 -162718 0 -25803.8 -165966 0 -25628.4 -169193 0 -25446.8 -172398 0 -25258.9 -175580 0 -25064.3 -178740 0 -24862.9 -181875 0 -24654.4 -184985 0 -24438.5 -188070 0 -24215 -191128 0 -23983.5 -194158 0 -23743.8 -197160 0 -23495.5 -200133 0 -23238.2 -203075 0 -22971.6 -205985 0 -22695.2 -208863 0 -22408.6 -211706 0 -22111.4 -214515 0 -21803 -217287 0 -21482.8 -220022 0 -21150.4 -222717 0 -20805 -225372 0 -20446 -227985 0 -20072.8 -230555 0 -19684.4 -233079 0 -19280.1 -235556 0 -18858.8 -237984 0 -18419.7 -240361 0 -17961.7 -242686 0 -17483.4 -244956 0 -16983.8 -247168 0 -16461.2 -249321 0 -15914.2 -251412 0 -15340.9 -253438 0 -14739.7 -255397 0 -14108.2 -257285 0 -13444.1 -259099 0 -12745 -260836 0 -12007.8 -262493 0 -11229.2 -264065 0 -10405.7 -265549 0 -9533.1 -266940 0 -8606.68 -268233 0 -7621.16 -269425 0 -6570.46 -270510 0 -5447.64 -271482 0 -4244.74 -272337 0 -2952.54 -273068 0 -1560.4 -273670 0 -55.9355 -274136 0 1575.27 -274461 0 3350.07 -274639 0 5288.2 -274667 0 7412.71 -274540 0 9750.58 -274258 0 12333.1 -273823 0 15196.2 -273242 0 18380.7 -272530 0 21931.1 -271709 0 25894 -270819 0 30314.1 -269913 0 35228 -269066 0 40654.8 -268369 0 46586.1 -267930 0 52976.5 -267861 0 59741.7 -268255 0 66765.9 -269178 0 73919.6 -270647 0 81081.7 -272641 0 88154.4 -275101 0 95069.4 -277955 0 101787 -281123 0 108295 -284531 0 114598 -288119 0 120706 -291839 0 126631 -295645 0 132403 -299514 0 138045 -303421 0 143556 -307343 0 148974 -311280 0 154310 -315216 0 159572 -319144 0 -31978.9 0 0 -31977.3 -3710.28 0 -31972.7 -7420.21 0 -31965.1 -11129.4 0 -31954.4 -14837.6 0 -31940.6 -18544.4 0 -31923.7 -22249.5 0 -31903.7 -25952.4 0 -31880.6 -29653 0 -31854.3 -33350.7 0 -31824.9 -37045.2 0 -31792.4 -40736.3 0 -31756.6 -44423.4 0 -31717.6 -48106.3 0 -31675.3 -51784.6 0 -31629.8 -55458 0 -31580.9 -59125.9 0 -31528.7 -62788.1 0 -31473 -66444.3 0 -31413.9 -70093.9 0 -31351.4 -73736.6 0 -31285.2 -77372 0 -31215.5 -80999.7 0 -31142.1 -84619.2 0 -31065 -88230.3 0 -30984.1 -91832.4 0 -30899.4 -95425.1 0 -30810.7 -99008 0 -30718 -102581 0 -30621.3 -106143 0 -30520.4 -109693 0 -30415.3 -113232 0 -30305.8 -116759 0 -30191.9 -120274 0 -30073.4 -123775 0 -29950.3 -127262 0 -29822.4 -130736 0 -29689.6 -134194 0 -29551.8 -137638 0 -29408.9 -141065 0 -29260.6 -144476 0 -29106.9 -147870 0 -28947.6 -151247 0 -28782.5 -154605 0 -28611.5 -157944 0 -28434.4 -161264 0 -28250.9 -164563 0 -28060.9 -167841 0 -27864.1 -171098 0 -27660.3 -174332 0 -27449.4 -177543 0 -27230.9 -180730 0 -27004.6 -183892 0 -26770.3 -187028 0 -26527.7 -190137 0 -26276.3 -193219 0 -26016 -196273 0 -25746.2 -199297 0 -25466.5 -202290 0 -25176.7 -205251 0 -24876.2 -208180 0 -24564.5 -211075 0 -24241.2 -213935 0 -23905.6 -216758 0 -23557.3 -219543 0 -23195.5 -222290 0 -22819.5 -224996 0 -22428.7 -227659 0 -22022.3 -230279 0 -21599.3 -232854 0 -21158.9 -235382 0 -20700.1 -237861 0 -20221.7 -240289 0 -19722.6 -242664 0 -19201.5 -244984 0 -18657 -247248 0 -18087.5 -249451 0 -17491.4 -251593 0 -16866.6 -253670 0 -16211.3 -255680 0 -15523.1 -257620 0 -14799.5 -259487 0 -14037.6 -261277 0 -13234.3 -262987 0 -12386.2 -264613 0 -11489.3 -266153 0 -10539.1 -267600 0 -9530.62 -268952 0 -8458.26 -270205 0 -7315.53 -271352 0 -6095.11 -272390 0 -4788.58 -273314 0 -3386.32 -274118 0 -1877.21 -274798 0 -248.477 -275350 0 1514.68 -275768 0 3429.38 -276049