<?xml version="1.0"?> 
<VTKFile type="StructuredGrid" version="0.1"> 
<StructuredGrid WholeExtent="0 127 0 127 0 0"> 
<Piece Extent="0 127 0 127 0 0"> 
<PointData>
<DataArray type="Float32" Name="E" format="ascii" NumberOfComponents="3"> 
9.53674e-06 9.2715e+06 0 -1.62509e-06 4.02674e+06 0 5.62286e-08 2.74504e+06 0 -2.01166e-07 2.55541e+06 0 5.82542e-07 2.51711e+06 0 1.43191e-07 2.42051e+06 0 1.4808e-07 2.27585e+06 0 -2.37022e-07 2.12383e+06 0 -1.00397e-06 1.98775e+06 0 1.40257e-06 1.87268e+06 0 -8.56817e-07 1.77485e+06 0 -1.85333e-07 1.68875e+06 0 -5.92321e-07 1.61018e+06 0 9.574e-07 1.53677e+06 0 -9.38773e-07 1.46744e+06 0 3.18512e-07 1.40174e+06 0 3.1665e-08 1.33942e+06 0 1.19954e-06 1.28021e+06 0 -1.51992e-06 1.22387e+06 0 7.33882e-07 1.1701e+06 0 -5.43892e-07 1.11866e+06 0 1.50874e-06 1.06933e+06 0 -1.88127e-06 1.02195e+06 0 1.29268e-06 976369 0 -1.42306e-06 932463 0 1.57207e-06 890132 0 -1.79559e-06 849289 0 2.05636e-06 809854 0 -1.56462e-06 771761 0 1.81049e-06 734949 0 -2.68966e-06 699367 0 2.35438e-06 664968 0 -1.08778e-06 631712 0 6.70552e-07 599564 0 -8.49366e-07 568492 0 5.06639e-07 538469 0 -1.78814e-07 509469 0 2.38419e-07 481471 0 1.49012e-07 454455 0 -2.23517e-07 428402 0 -1.78814e-07 403297 0 4.02331e-07 379123 0 -2.38419e-07 355868 0 -4.47035e-08 333517 0 -2.38419e-07 312059 0 2.98023e-07 291481 0 5.96046e-08 271772 0 1.19209e-07 252919 0 -3.57628e-07 234912 0 2.38419e-07 217738 0 -2.38419e-07 201385 0 2.98023e-08 185840 0 0 171092 0 1.19209e-07 157124 0 5.96046e-07 143925 0 1.19209e-07 131477 0 -5.36442e-07 119765 0 1.04308e-06 108773 0 -6.85453e-07 98482.4 0 8.34465e-07 88874.1 0 -6.85453e-07 79928.7 0 8.34465e-07 71625.4 0 -9.23872e-07 63942.7 0 3.57628e-07 56857.9 0 -6.25849e-07 50347.6 0 -3.57628e-07 44387.5 0 2.98023e-08 38952.7 0 1.78814e-07 34017.6 0 1.78814e-07 29556 0 -1.19209e-07 25541.2 0 1.19209e-07 21946.3 0 -1.19209e-07 18744.2 0 2.98023e-07 15907.8 0 -5.96046e-08 13410 0 5.96046e-08 11224.2 0 5.96046e-07 9323.94 0 -6.55651e-07 7683.6 0 5.96046e-07 6278.19 0 -9.53674e-07 5083.64 0 1.01328e-06 4076.93 0 -5.96046e-07 3236.2 0 2.98023e-07 2540.87 0 1.78814e-07 1971.74 0 -7.15256e-07 1511.06 0 4.17233e-07 1142.59 0 1.78814e-07 851.63 0 -5.96046e-08 625.025 0 -1.19209e-06 451.144 0 2.38419e-06 319.845 0 -3.75509e-06 222.404 0 4.17233e-06 151.437 0 -4.11272e-06 100.794 0 3.93391e-06 65.4468 0 -3.57628e-06 41.365 0 2.6226e-06 25.3855 0 -1.90735e-06 15.0843 0 1.07288e-06 8.65104 0 -8.34465e-07 4.77121 0 9.53674e-07 2.51996 0 -4.76837e-07 1.26838 0 1.78814e-06 0.604919 0 -2.14577e-06 0.271475 0 2.38419e-06 0.113682 0 -2.02656e-06 0.0439541 0 1.66893e-06 0.0154881 0 -2.02656e-06 0.00486612 0 1.43051e-06 0.00133038 0 -1.43051e-06 0.000283718 0 1.43051e-06 5.29289e-05 0 -1.19209e-06 6.67572e-06 0 7.15256e-07 -1.57356e-05 0 -4.76837e-07 -1.62125e-05 0 -3.57628e-07 -1.57356e-05 0 4.76837e-07 2.47955e-05 0 -3.57628e-07 -2.86102e-06 0 4.76837e-07 -2.95639e-05 0 -4.76837e-07 6.48499e-05 0 1.07288e-06 -5.24521e-05 0 -2.38419e-07 5.72205e-06 0 -1.19209e-07 7.62939e-06 0 -3.57628e-07 -3.05176e-05 0 5.96046e-07 1.14441e-05 0 -1.19209e-07 1.14441e-05 0 0 6.48499e-05 0 0 -0.000225067 0 -3.57628e-07 0.000213623 0 -2.38419e-07 -0.000137329 0 9.53674e-07 2.01327e+08 0 -2.07304e+06 2.86493e+06 0 -2.03944e+06 3.13135e+06 0 -1.50148e+06 3.33734e+06 0 -982572 3.31407e+06 0 -622181 3.12843e+06 0 -406716 2.8846e+06 0 -288094 2.64672e+06 0 -223540 2.44142e+06 0 -185926 2.27144e+06 0 -160875 2.13019e+06 0 -141955 2.00958e+06 0 -126643 1.90328e+06 0 -113988 1.80719e+06 0 -103507 1.71893e+06 0 -94810.1 1.63709e+06 0 -87527.9 1.56077e+06 0 -81338.3 1.48926e+06 0 -75986.5 1.42197e+06 0 -71286 1.35839e+06 0 -67105.1 1.29808e+06 0 -63350.4 1.24069e+06 0 -59952.3 1.18592e+06 0 -56856.1 1.13352e+06 0 -54017.5 1.08329e+06 0 -51399.5 1.03505e+06 0 -48971.4 988666 0 -46707.6 944006 0 -44586.8 900963 0 -42591.4 859442 0 -40706.5 819364 0 -38919.5 780656 0 -37219.8 743256 0 -35598.3 707112 0 -34047.1 672176 0 -32559.6 638405 0 -31130 605763 0 -29753.3 574219 0 -28425.3 543743 0 -27142.3 514309 0 -25901.1 485895 0 -24699 458481 0 -23533.8 432048 0 -22403.5 406579 0 -21306.4 382059 0 -20241.3 358474 0 -19207 335810 0 -18202.5 314056 0 -17227.1 293198 0 -16280.4 273224 0 -15361.8 254124 0 -14471 235885 0 -13608 218495 0 -12772.6 201943 0 -11964.8 186214 0 -11184.6 171297 0 -10432.1 157176 0 -9707.56 143838 0 -9011 131268 0 -8342.62 119447 0 -7702.57 108360 0 -7090.99 97988.2 0 -6508 88312 0 -5953.65 79311.3 0 -5427.99 70964.8 0 -4930.97 63250.1 0 -4462.49 56144.2 0 -4022.38 49622.7 0 -3610.38 43660.6 0 -3226.14 38232.2 0 -2869.22 33310.9 0 -2539.1 28869.7 0 -2235.14 24881.1 0 -1956.62 21317.3 0 -1702.71 18150.3 0 -1472.49 15352 0 -1264.97 12894.5 0 -1079.06 10750.4 0 -913.594 8892.61 0 -767.362 7294.58 0 -639.09 5930.76 0 -527.467 4776.49 0 -431.159 3808.25 0 -348.82 3003.75 0 -279.11 2342.09 0 -220.708 1803.81 0 -172.329 1371.02 0 -132.735 1027.4 0 -100.751 758.25 0 -75.2762 550.493 0 -55.292 392.639 0 -39.8711 274.733 0 -28.1823 188.282 0 -19.4926 126.157 0 -13.1675 82.4804 0 -8.6686 52.4997 0 -5.54828 32.4513 0 -3.44314 19.424 0 -2.06541 11.2219 0 -1.19344 6.2345 0 -0.661638 3.31663 0 -0.350342 1.68115 0 -0.176258 0.807289 0 -0.0837499 0.364754 0 -0.0373187 0.153805 0 -0.0154628 0.0599351 0 -0.00589823 0.0213282 0 -0.00204945 0.00681636 0 -0.000638981 0.00192065 0 -0.000174862 0.000455347 0 -3.90712e-05 9.63381e-05 0 -8.33747e-06 1.34328e-05 0 -1.06919e-06 7.38922e-06 0 -1.09186e-06 -3.77341e-06 0 1.40896e-06 3.59937e-06 0 -1.61635e-07 6.30345e-07 0 -5.99723e-07 1.01779e-06 0 1.62017e-06 2.02649e-06 0 -4.02105e-07 1.26488e-05 0 -8.67855e-07 -1.05414e-05 0 1.29142e-06 8.02391e-06 0 -2.7106e-07 -5.82283e-06 0 -1.65395e-07 1.0985e-05 0 7.2155e-07 2.87656e-06 0 -1.68608e-07 -7.1906e-06 0 -1.46319e-06 1.22203e-05 0 1.47858e-06 5.64465e-05 0 -7.74911e-07 6.06577e-05 0 2.09142e-05 0.00108746 0 -2.09199e+06 2.13147e+06 0 -1.91848e+06 2.48745e+06 0 -1.93325e+06 2.58655e+06 0 -1.80255e+06 2.72131e+06 0 -1.53889e+06 2.84399e+06 0 -1.23336e+06 2.8874e+06 0 -954676 2.83984e+06 0 -733317 2.72533e+06 0 -571581 2.57743e+06 0 -458567 2.42255e+06 0 -380331 2.27588e+06 0 -325018 2.14326e+06 0 -284272 2.02497e+06 0 -252855 1.91898e+06 0 -227697 1.82285e+06 0 -207013 1.73454e+06 0 -189712 1.65259e+06 0 -175053 1.576e+06 0 -162488 1.50405e+06 0 -151593 1.4362e+06 0 -142039 1.37198e+06 0 -133569 1.31101e+06 0 -125986 1.25296e+06 0 -119139 1.19753e+06 0 -112911 1.14449e+06 0 -107207 1.09364e+06 0 -101951 1.0448e+06 0 -97081.3 997826 0 -92545.6 952596 0 -88300.9 909000 0 -84310.9 866945 0 -80545.1 826349 0 -76977.9 787140 0 -73587.4 749258 0 -70354.9 712647 0 -67264.5 677260 0 -64302.6 643055 0 -61457.2 609995 0 -58718.4 578047 0 -56077.5 547183 0 -53526.9 517378 0 -51060.3 488608 0 -48672.2 460852 0 -46357.9 434094 0 -44113.6 408315 0 -41935.8 383501 0 -39821.8 359637 0 -37769.3 336710 0 -35776.6 314708 0 -33842.1 293618 0 -31964.6 273429 0 -30143.5 254128 0 -28378.1 235705 0 -26668 218147 0 -25013.1 201441 0 -23413.4 185575 0 -21869 170536 0 -20380.1 156308 0 -18947 142879 0 -17570 130230 0 -16249.4 118347 0 -14985.5 107210 0 -13778.7 96801.7 0 -12629.2 87101.8 0 -11537 78089.2 0 -10502.3 69742.2 0 -9525.02 62037.5 0 -8604.86 54951.1 0 -7741.48 48458 0 -6934.33 42532.2 0 -6182.7 37147.1 0 -5485.67 32275 0 -4842.12 27888.1 0 -4250.74 23957.8 0 -3710.01 20455.3 0 -3218.23 17351.6 0 -2773.49 14617.8 0 -2373.73 12225.1 0 -2016.69 10145.1 0 -1700.01 8349.94 0 -1421.16 6812.54 0 -1177.55 5506.62 0 -966.492 4407.01 0 -785.273 3489.75 0 -631.158 2732.25 0 -501.437 2113.36 0 -393.449 1613.52 0 -304.616 1214.81 0 -232.47 900.981 0 -174.68 657.497 0 -129.077 471.502 0 -93.6661 331.794 0 -66.6484 228.75 0 -46.4231 154.241 0 -31.5936 101.513 0 -20.9636 65.0692 0 -13.5302 40.5203 0 -8.47145 24.445 0 -5.12996 14.2408 0 -2.99424 7.98199 0 -1.67796 4.28632 0 -0.898786 2.19446 0 -0.457805 1.06499 0 -0.220437 0.48662 0 -0.099647 0.207643 0 -0.0419412 0.0819265 0 -0.0162773 0.0295235 0 -0.00576185 0.00954988 0 -0.00183451 0.00272008 0 -0.000514613 0.000657265 0 -0.000123697 0.000132869 0 -2.51129e-05 1.95348e-05 0 -4.72384e-06 -3.77506e-06 0 -7.67996e-07 -4.46234e-06 0 1.1278e-06 3.911e-06 0 -2.54611e-07 5.0996e-06 0 -5.44102e-07 -9.07574e-07 0 1.77574e-06 5.76919e-06 0 -6.69201e-07 5.18077e-06 0 -1.86529e-06 -1.04019e-05 0 6.19362e-07 -5.69131e-06 0 7.40365e-07 2.46067e-06 0 -9.10608e-07 -7.75105e-06 0 1.13377e-06 4.32064e-06 0 9.95569e-08 -8.92859e-06 0 -1.31009e-06 5.86314e-06 0 5.43644e-06 9.8573e-05 0 -7.26022e-05 -0.00223635 0 -1.94781e+06 2.14678e+06 0 -1.98456e+06 2.07388e+06 0 -1.89127e+06 2.20874e+06 0 -1.8475e+06 2.30513e+06 0 -1.80086e+06 2.39044e+06 0 -1.69888e+06 2.48263e+06 0 -1.53546e+06 2.56294e+06 0 -1.33492e+06 2.60588e+06 0 -1.12849e+06 2.59871e+06 0 -939804 2.54464e+06 0 -780863 2.45645e+06 0 -653964 2.3492e+06 0 -555625 2.23536e+06 0 -480110 2.12306e+06 0 -421687 2.01649e+06 0 -375658 1.91707e+06 0 -338574 1.82472e+06 0 -308052 1.73874e+06 0 -282472 1.65833e+06 0 -260721 1.58275e+06 0 -242000 1.51144e+06 0 -225711 1.44393e+06 0 -211395 1.37982e+06 0 -198693 1.3188e+06 0 -187322 1.26059e+06 0 -177060 1.20492e+06 0 -167730 1.15158e+06 0 -159189 1.1004e+06 0 -151323 1.05121e+06 0 -144037 1.00386e+06 0 -137255 958252 0 -130910 914271 0 -124949 871828 0 -119326 830846 0 -114002 791255 0 -108943 752995 0 -104122 716014 0 -99514.8 680264 0 -95100.2 645706 0 -90860.8 612302 0 -86781.1 580022 0 -82848.2 548837 0 -79050.8 518722 0 -75379.1 489655 0 -71825 461616 0 -68381.4 434587 0 -65042.4 408551 0 -61803 383494 0 -58659 359401 0 -55607.1 336261 0 -52644.5 314059 0 -49769.1 292786 0 -46979.1 272428 0 -44273.5 252975 0 -41651.2 234414 0 -39112 216733 0 -36655.5 199921 0 -34281.7 183964 0 -31991 168849 0 -29783.6 154560 0 -27660 141084 0 -25620.6 128404 0 -23666.1 116502 0 -21796.9 105360 0 -20013.5 94959.2 0 -18316.2 85278.8 0 -16705.2 76297 0 -15180.6 67991.2 0 -13742.2 60337.2 0 -12389.8 53310.1 0 -11122.6 46884 0 -9939.78 41031.7 0 -8840.25 35725.5 0 -7822.52 30936.8 0 -6884.83 26636.6 0 -6025.11 22795.3 0 -5240.98 19382.9 0 -4529.77 16369.4 0 -3888.5 13725 0 -3313.95 11419.9 0 -2802.63 9424.87 0 -2350.86 7711.25 0 -1954.74 6251.25 0 -1610.28 5018.05 0 -1313.36 3986.04 0 -1059.83 3130.91 0 -845.519 2429.83 0 -666.327 1861.59 0 -518.24 1406.62 0 -397.39 1047.13 0 -300.101 767.11 0 -222.921 552.316 0 -162.66 390.282 0 -116.414 270.237 0 -81.5837 183.032 0 -55.8809 121.024 0 -37.3321 77.9503 0 -24.2686 48.7853 0 -15.311 29.5843 0 -9.34686 17.3277 0 -5.50254 9.76637 0 -3.11187 5.27471 0 -1.68315 2.71645 0 -0.866294 1.32628 0 -0.421797 0.609706 0 -0.192965 0.261733 0 -0.0822788 0.103861 0 -0.0323863 0.0376217 0 -0.0116391 0.0122207 0 -0.00376799 0.00347996 0 -0.00107809 0.000838623 0 -0.00026598 0.000168591 0 -5.64963e-05 1.76577e-05 0 -1.04457e-05 -3.97186e-06 0 -4.89952e-07 -2.94094e-06 0 1.16634e-06 3.35451e-06 0 -1.04083e-07 3.93658e-06 0 2.04745e-07 -1.1212e-06 0 1.13414e-06 2.44949e-06 0 -1.3304e-06 -4.28036e-06 0 -2.20055e-06 -5.30714e-06 0 4.70398e-07 -4.4473e-06 0 6.54945e-07 -1.02329e-06 0 6.57477e-07 5.08619e-06 0 -7.62564e-07 -1.43563e-05 0 -1.21603e-06 -1.69314e-05 0 -1.03831e-06 -1.12485e-05 0 -1.73086e-05 -0.000200361 0 -2.00712e+06 1.86805e+06 0 -1.95547e+06 1.97645e+06 0 -1.95435e+06 1.98434e+06 0 -1.90375e+06 2.04406e+06 0 -1.84459e+06 2.11497e+06 0 -1.79189e+06 2.18073e+06 0 -1.73166e+06 2.24545e+06 0 -1.64567e+06 2.31031e+06 0 -1.52724e+06 2.36688e+06 0 -1.38278e+06 2.40277e+06 0 -1.22595e+06 2.40905e+06 0 -1.07108e+06 2.38357e+06 0 -928887 2.33035e+06 0 -805170 2.25686e+06 0 -701385 2.17118e+06 0 -616147 2.08013e+06 0 -546698 1.98852e+06 0 -489985 1.89924e+06 0 -443247 1.81366e+06 0 -404251 1.73226e+06 0 -371286 1.65501e+06 0 -343077 1.58168e+06 0 -318669 1.51196e+06 0 -297339 1.44556e+06 0 -278528 1.38223e+06 0 -261796 1.32171e+06 0 -246792 1.26378e+06 0 -233237 1.20826e+06 0 -220903 1.15496e+06 0 -209609 1.10372e+06 0 -199204 1.05441e+06 0 -189565 1.0069e+06 0 -180592 961091 0 -172197 916882 0 -164311 874191 0 -156872 832948 0 -149829 793086 0 -143138 754551 0 -136762 717291 0 -130670 681264 0 -124833 646431 0 -119228 612757 0 -113835 580212 0 -108636 548769 0 -103618 518406 0 -98765.3 489099 0 -94068.9 460832 0 -89519 433585 0 -85107.8 407344 0 -80828.6 382094 0 -76676.1 357823 0 -72645.7 334517 0 -68733.8 312165 0 -64937.8 290755 0 -61255.4 270276 0 -57685 250716 0 -54225.8 232064 0 -50877 214308 0 -47638.6 197435 0 -44510.6 181433 0 -41493.3 166288 0 -38587.3 151984 0 -35793.2 138506 0 -33111.9 125839 0 -30543.9 113963 0 -28090.1 102861 0 -25751 92511 0 -23527.1 82893 0 -21418.7 73984.2 0 -19425.8 65760.6 0 -17548.2 58197.4 0 -15785.4 51268.5 0 -14136.5 44946.8 0 -12600.2 39204 0 -11174.8 34011.2 0 -9858.38 29338.6 0 -8648.35 25156 0 -7541.83 21432.6 0 -6535.47 18137.3 0 -5625.52 15239 0 -4807.84 12706.8 0 -4077.94 10510 0 -3431 8618.51 0 -2861.9 7002.91 0 -2365.33 5634.78 0 -1935.79 4486.83 0 -1567.66 3533.06 0 -1255.3 2748.94 0 -993.082 2111.58 0 -775.487 1599.79 0 -597.15 1194.19 0 -452.936 877.278 0 -337.995 633.431 0 -247.812 448.891 0 -178.25 311.729 0 -125.578 211.759 0 -86.4917 140.435 0 -58.1186 90.7219 0 -38.0127 56.9462 0 -24.1369 34.6335 0 -14.835 20.3421 0 -8.79619 11.496 0 -5.01233 6.22411 0 -2.73288 3.21223 0 -1.41857 1.57096 0 -0.696949 0.722913 0 -0.321914 0.310327 0 -0.138675 0.122964 0 -0.0551916 0.0443636 0 -0.0200702 0.0143003 0 -0.00657993 0.00400595 0 -0.0019089 0.000944872 0 -0.000480213 0.000173111 0 -0.000103868 1.4091e-05 0 -1.909e-05 -5.40644e-06 0 -1.08198e-06 -2.21247e-06 0 1.56461e-06 3.16091e-06 0 -1.88615e-07 8.58377e-06 0 -2.94269e-07 -2.60025e-06 0 1.02562e-06 1.66427e-06 0 -1.54648e-06 -6.56047e-06 0 -2.73676e-06 -1.12047e-05 0 5.10336e-07 3.00864e-06 0 9.43226e-07 -3.66615e-06 0 3.84171e-08 -4.37442e-06 0 -7.25209e-07 -3.04738e-05 0 3.95684e-06 7.39712e-05 0 -7.24941e-06 -0.000280172 0 -1.97967e+06 1.81792e+06 0 -1.97306e+06 1.82133e+06 0 -1.9411e+06 1.87642e+06 0 -1.9292e+06 1.90267e+06 0 -1.90398e+06 1.93713e+06 0 -1.86147e+06 1.98354e+06 0 -1.81084e+06 2.03381e+06 0 -1.75669e+06 2.08343e+06 0 -1.69498e+06 2.13238e+06 0 -1.61857e+06 2.17968e+06 0 -1.52325e+06 2.22084e+06 0 -1.41037e+06 2.24923e+06 0 -1.28588e+06 2.2589e+06 0 -1.15788e+06 2.24682e+06 0 -1.034e+06 2.21352e+06 0 -919829 2.16227e+06 0 -818454 2.0978e+06 0 -730734 2.02495e+06 0 -655999 1.94786e+06 0 -592748 1.86958e+06 0 -539206 1.79213e+06 0 -493663 1.71667e+06 0 -454635 1.64376e+06 0 -420903 1.57362e+06 0 -391496 1.50628e+06 0 -365646 1.44165e+06 0 -342739 1.37963e+06 0 -322287 1.32007e+06 0 -303895 1.26284e+06 0 -287242 1.2078e+06 0 -272064 1.15482e+06 0 -258148 1.10378e+06 0 -245315 1.05457e+06 0 -233419 1.00709e+06 0 -222337 961242 0 -211965 916951 0 -202217 874143 0 -193020 832754 0 -184310 792727 0 -176035 754011 0 -168148 716561 0 -160611 680336 0 -153390 645301 0 -146455 611426 0 -139782 578681 0 -133349 547043 0 -127138 516488 0 -121134 486999 0 -115322 458556 0 -109692 431144 0 -104234 404749 0 -98939.4 379356 0 -93801.9 354955 0 -88816 331532 0 -83977.6 309076 0 -79283.1 287577 0 -74730.2 267023 0 -70316.9 247403 0 -66042.3 228706 0 -61905.6 210921 0 -57906.8 194034 0 -54046.1 178032 0 -50324 162902 0 -46741.4 148628 0 -43299.1 135195 0 -39998.1 122585 0 -36839.5 110781 0 -33824 99761 0 -30952.6 89505.8 0 -28225.7 79992.7 0 -25643.8 71198.3 0 -23206.8 63097.5 0 -20914.4 55664.4 0 -18765.8 48871.6 0 -16759.8 42690.6 0 -14894.6 37092.2 0 -13168.1 32045.8 0 -11577.5 27520.6 0 -10119.4 23484.9 0 -8789.89 19906.5 0 -7584.67 16753.4 0 -6498.75 13993.2 0 -5526.7 11593.8 0 -4662.63 9523.84 0 -3900.28 7752.18 0 -3233.01 6248.8 0 -2653.96 4984.71 0 -2156.05 3932.21 0 -1732.12 3065.07 0 -1374.97 2358.7 0 -1077.51 1790.25 0 -832.77 1338.76 0 -634.073 985.222 0 -475.052 712.598 0 -349.746 505.835 0 -252.659 351.829 0 -178.803 239.35 0 -123.73 158.944 0 -83.5501 102.796 0 -54.927 64.5833 0 -35.0643 39.3013 0 -21.6723 23.0881 0 -12.9258 13.0434 0 -7.41087 7.05473 0 -4.06671 3.63392 0 -2.1252 1.77164 0 -1.05152 0.811352 0 -0.489287 0.345823 0 -0.212423 0.135577 0 -0.0852382 0.0481423 0 -0.0312644 0.0151345 0 -0.0103413 0.00406643 0 -0.00303141 0.000880994 0 -0.00077077 0.000138425 0 -0.000168443 6.47735e-07 0 -3.21484e-05 -1.78674e-05 0 -1.43518e-06 1.79652e-06 0 1.89002e-06 1.75554e-06 0 -1.30902e-06 1.05193e-06 0 -5.41651e-07 7.96281e-08 0 1.12029e-06 3.43518e-06 0 -1.03781e-06 4.73438e-06 0 -2.29842e-06 -9.14838e-06 0 8.61153e-07 1.42092e-05 0 1.31683e-06 9.58517e-06 0 5.18921e-07 -4.42006e-06 0 4.42378e-08 -1.67638e-05 0 8.67434e-06 0.000109375 0 -2.00103e+06 1.71337e+06 0 -1.98269e+06 1.74605e+06 0 -1.9692e+06 1.76118e+06 0 -1.94177e+06 1.79669e+06 0 -1.92004e+06 1.8265e+06 0 -1.89894e+06 1.85451e+06 0 -1.87029e+06 1.88679e+06 0 -1.83184e+06 1.9239e+06 0 -1.78585e+06 1.963e+06 0 -1.73387e+06 2.00202e+06 0 -1.67469e+06 2.04006e+06 0 -1.60542e+06 2.07585e+06 0 -1.52383e+06 2.10672e+06 0 -1.43004e+06 2.12878e+06 0 -1.3268e+06 2.13812e+06 0 -1.21863e+06 2.13208e+06 0 -1.11062e+06 2.10994e+06 0 -1.0072e+06 2.0729e+06 0 -911582 2.02349e+06 0 -825490 1.96491e+06 0 -749420 1.90029e+06 0 -682977 1.83232e+06 0 -625253 1.76309e+06 0 -575136 1.69402e+06 0 -531503 1.62603e+06 0 -493332 1.55968e+06 0 -459743 1.49526e+06 0 -429996 1.43288e+06 0 -403482 1.37258e+06 0 -379696 1.31435e+06 0 -358224 1.25813e+06 0 -338721 1.20385e+06 0 -320904 1.15144e+06 0 -304536 1.10081e+06 0 -289418 1.05189e+06 0 -275385 1.00459e+06 0 -262299 958856 0 -250041 914614 0 -238513 871805 0 -227628 830377 0 -217316 790280 0 -207513 751470 0 -198168 713908 0 -189234 677560 0 -180672 642394 0 -172448 608381 0 -164532 575498 0 -156901 543722 0 -149532 513033 0 -142407 483414 0 -135511 454848 0 -128829 427321 0 -122351 400821 0 -116068 375334 0 -109971 350850 0 -104055 327357 0 -98314.2 304844 0 -92745.4 283303 0 -87345.6 262720 0 -82113 243087 0 -77046.3 224392 0 -72145 206623 0 -67409.3 189768 0 -62839.5 173813 0 -58436.4 158744 0 -54201.1 144546 0 -50134.9 131203 0 -46239 118695 0 -42514.6 107006 0 -38963 96112.9 0 -35584.9 85995.1 0 -32381.3 76629 0 -29352.3 67989.9 0 -26498 60051.8 0 -23817.8 52787.1 0 -21310.6 46167.3 0 -18974.8 40162.5 0 -16808.1 34741.8 0 -14807.5 29873.4 0 -12969.6 25525 0 -11290 21663.4 0 -9763.63 18255.3 0 -8384.98 15267.2 0 -7147.74 12665.6 0 -6045.04 10417.4 0 -5069.48 8490.21 0 -4213.2 6852.17 0 -3467.96 5472.64 0 -2825.23 4322.19 0 -2276.29 3372.86 0 -1812.35 2598.32 0 -1424.66 1974.08 0 -1104.61 1477.56 0 -843.839 1088.23 0 -634.381 787.605 0 -468.71 559.341 0 -339.846 389.142 0 -241.421 264.732 0 -167.721 175.739 0 -113.718 113.574 0 -75.0762 71.2654 0 -48.137 43.2861 0 -29.8871 25.3611 0 -17.9088 14.2747 0 -10.3174 7.6821 0 -5.68989 3.93048 0 -2.9887 1.89889 0 -1.48655 0.858994 0 -0.695433 0.359967 0 -0.303575 0.137776 0 -0.122496 0.0472131 0 -0.0451819 0.0140341 0 -0.0150282 0.00340697 0 -0.00442932 0.000595377 0 -0.00113423 2.95369e-05 0 -0.000248834 -2.94633e-05 0 -4.57194e-05 -2.24095e-05 0 -3.9119e-06 -6.09644e-06 0 1.94076e-06 1.40257e-06 0 -4.96017e-07 -1.1595e-06 0 -3.90108e-07 -6.24452e-07 0 2.06439e-06 1.81952e-05 0 -1.99152e-06 -1.21119e-05 0 -2.4286e-06 -1.63252e-05 0 3.33937e-06 2.55071e-05 0 -1.6737e-06 -1.78069e-05 0 4.71482e-06 4.72218e-05 0 -2.83662e-05 -0.000495672 0 -2.00431e+06 1.66566e+06 0 -1.9933e+06 1.67832e+06 0 -1.97934e+06 1.69916e+06 0 -1.96771e+06 1.71311e+06 0 -1.94756e+06 1.73583e+06 0 -1.9245e+06 1.76107e+06 0 -1.90156e+06 1.78583e+06 0 -1.87687e+06 1.81119e+06 0 -1.8471e+06 1.83905e+06 0 -1.8107e+06 1.86934e+06 0 -1.76782e+06 1.9008e+06 0 -1.71883e+06 1.93214e+06 0 -1.66323e+06 1.96234e+06 0 -1.59982e+06 1.99022e+06 0 -1.5275e+06 2.01394e+06 0 -1.44623e+06 2.03104e+06 0 -1.35741e+06 2.03887e+06 0 -1.26371e+06 2.03535e+06 0 -1.16844e+06 2.01944e+06 0 -1.07495e+06 1.99135e+06 0 -985988 1.95237e+06 0 -903472 1.90448e+06 0 -828426 1.84993e+06 0 -761118 1.79089e+06 0 -701271 1.72921e+06 0 -648285 1.66636e+06 0 -601412 1.6034e+06 0 -559875 1.54107e+06 0 -522945 1.47982e+06 0 -489967 1.41997e+06 0 -460373 1.36168e+06 0 -433678 1.30503e+06 0 -409470 1.25006e+06 0 -387402 1.19675e+06 0 -367179 1.1451e+06 0 -348554 1.09505e+06 0 -331316 1.04657e+06 0 -315287 999598 0 -300318 954096 0 -286280 910014 0 -273063 867306 0 -260573 825931 0 -248731 785848 0 -237467 747023 0 -226722 709424 0 -216445 673019 0 -206591 637785 0 -197123 603696 0 -188008 570731 0 -179217 538872 0 -170726 508101 0 -162515 478404 0 -154566 449765 0 -146864 422173 0 -139396 395615 0 -132152 370081 0 -125124 345561 0 -118304 322045 0 -111687 299523 0 -105270 277985 0 -99049 257421 0 -93022.1 237821 0 -87188.6 219173 0 -81547.9 201467 0 -76100.5 184690 0 -70847.1 168828 0 -65788.8 153867 0 -60927.1 139790 0 -56263.5 126581 0 -51799.6 114222 0 -47536.9 102692 0 -43476.8 91969.2 0 -39620.6 82031.5 0 -35968.8 72854.1 0 -32521.9 64410.9 0 -29279.7 56674.3 0 -26241.3 49615.7 0 -23405.3 43204.6 0 -20769.6 37409.8 0 -18331.2 32198.8 0 -16086.3 27538.2 0 -14030.3 23394.1 0 -12157.9 19732 0 -10462.8 16517 0 -8937.98 13714.3 0 -7575.7 11289.3 0 -6367.49 9207.98 0 -5304.29 7436.83 0 -4376.52 5943.46 0 -3574.2 4696.69 0 -2887.05 3666.8 0 -2304.64 2825.72 0 -1816.51 2147.27 0 -1412.32 1607.22 0 -1081.98 1183.49 0 -815.789 856.172 0 -604.552 607.579 0 -439.693 422.23 0 -313.338 286.791 0 -218.389 189.98 0 -148.564 122.435 0 -98.4141 76.5473 0 -63.319 46.2771 0 -39.4515 26.9506 0 -23.7242 15.0523 0 -13.7169 8.01973 0 -7.59202 4.04986 0 -4.00218 1.92293 0 -1.99771 0.849662 0 -0.937792 0.344546 0 -0.410721 0.125659 0 -0.166241 0.0398943 0 -0.061488 0.0103187 0 -0.0204967 0.00179624 0 -0.00605313 -1.19112e-05 0 -0.00155199 -0.000164236 0 -0.000339162 -7.47838e-05 0 -6.21393e-05 -3.24589e-05 0 -6.05319e-06 2.45869e-07 0 2.20689e-06 1.10827e-07 0 -1.4971e-07 3.42075e-06 0 8.70845e-07 5.61308e-06 0 -3.86732e-07 -1.67545e-06 0 -2.26276e-06 1.72667e-06 0 -9.65083e-08 1.48993e-05 0 2.45078e-06 2.66898e-05 0 -2.7474e-07 2.22102e-05 0 2.38437e-05 0.000288635 0 -2.01863e+06 1.61661e+06 0 -2.00776e+06 1.62942e+06 0 -1.99542e+06 1.6419e+06 0 -1.98084e+06 1.65882e+06 0 -1.96832e+06 1.67242e+06 0 -1.95273e+06 1.68848e+06 0 -1.93312e+06 1.70758e+06 0 -1.91098e+06 1.72822e+06 0 -1.88726e+06 1.74939e+06 0 -1.86112e+06 1.77153e+06 0 -1.83102e+06 1.79518e+06 0 -1.79586e+06 1.82022e+06 0 -1.75525e+06 1.84593e+06 0 -1.70906e+06 1.87139e+06 0 -1.65698e+06 1.89569e+06 0 -1.59845e+06 1.91777e+06 0 -1.53295e+06 1.93628e+06 0 -1.4605e+06 1.9495e+06 0 -1.38192e+06 1.95557e+06 0 -1.29888e+06 1.95288e+06 0 -1.21364e+06 1.94042e+06 0 -1.12863e+06 1.91798e+06 0 -1.0461e+06 1.88614e+06 0 -967845 1.84609e+06 0 -895052 1.7994e+06 0 -828334 1.74773e+06 0 -767821 1.69263e+06 0 -713296 1.63546e+06 0 -664329 1.57728e+06 0 -620385 1.5189e+06 0 -580900 1.4609e+06 0 -545333 1.40369e+06 0 -513186 1.34754e+06 0 -484014 1.29262e+06 0 -457428 1.23904e+06 0 -433090 1.18685e+06 0 -410710 1.13609e+06 0 -390038 1.08675e+06 0 -370858 1.03883e+06 0 -352986 992297 0 -336267 947130 0 -320562 903301 0 -305758 860779 0 -291752 819535 0 -278459 779541 0 -265805 740769 0 -253725 703196 0 -242162 666797 0 -231070 631552 0 -220407 597441 0 -210137 564449 0 -200228 532558 0 -190655 501755 0 -181394 472028 0 -172427 443364 0 -163737 415754 0 -155311 389186 0 -147137 363652 0 -139206 339143 0 -131511 315650 0 -124047 293164 0 -116808 271676 0 -109792 251177 0 -102998 231656 0 -96424.9 213103 0 -90071.9 195507 0 -83940.1 178854 0 -78030.6 163132 0 -72345 148324 0 -66885.1 134415 0 -61652.9 121387 0 -56650.3 109220 0 -51879.3 97893.6 0 -47341.3 87385 0 -43037.6 77669.8 0 -38969.2 68722.2 0 -35136.1 60514.5 0 -31538.1 53017.8 0 -28174 46201.5 0 -25041.8 40033.7 0 -22138.6 34481.3 0 -19460.7 29510.1 0 -17003.4 25085.1 0 -14760.9 21170.8 0 -12726.5 17730.9 0 -10892.5 14729.2 0 -9250.37 12129.8 0 -7790.68 9896.64 0 -6503.2 7994.8 0 -5377.04 6390.07 0 -4400.78 5049.45 0 -3562.57 3941.45 0 -2850.31 3036.21 0 -2251.79 2305.81 0 -1754.87 1724.38 0 -1347.64 1268.24 0 -1018.57 916.035 0 -756.707 648.737 0 -551.745 449.665 0 -394.195 304.428 0 -275.454 200.838 0 -187.87 128.769 0 -124.776 79.9909 0 -80.4878 47.969 0 -50.2773 27.6512 0 -30.3102 15.2426 0 -17.5675 7.98445 0 -9.74569 3.94255 0 -5.14852 1.81573 0 -2.57485 0.768449 0 -1.21067 0.292126 0 -0.530871 0.0958085 0 -0.21502 0.0247364 0 -0.0795287 0.00346718 0 -0.0264863 -0.000941801 0 -0.00780592 -0.000969982 0 -0.001994 -0.000445591 0 -0.000431846 -0.000141902 0 -7.69731e-05 -3.80622e-05 0 -7.85885e-06 3.98606e-06 0 1.53552e-06 1.73971e-06 0 -7.53673e-07 -1.64751e-06 0 1.98849e-06 1.37705e-05 0 -1.32201e-06 -1.67899e-05 0 -8.24919e-07 1.76132e-05 0 3.29921e-07 5.34207e-06 0 6.45546e-06 8.95709e-05 0 -2.97055e-05 -0.000270516 0 -2.03013e+06 1.58504e+06 0 -2.02092e+06 1.59322e+06 0 -2.01132e+06 1.60227e+06 0 -2.00038e+06 1.6116e+06 0 -1.98663e+06 1.62445e+06 0 -1.973e+06 1.63688e+06 0 -1.95861e+06 1.64974e+06 0 -1.94194e+06 1.66421e+06 0 -1.92245e+06 1.68048e+06 0 -1.90058e+06 1.69789e+06 0 -1.87655e+06 1.71608e+06 0 -1.84993e+06 1.73513e+06 0 -1.81989e+06 1.75517e+06 0 -1.78568e+06 1.77603e+06 0 -1.74682e+06 1.79722e+06 0 -1.70303e+06 1.81804e+06 0 -1.65405e+06 1.83771e+06 0 -1.59956e+06 1.85534e+06 0 -1.53932e+06 1.86986e+06 0 -1.47341e+06 1.87998e+06 0 -1.40241e+06 1.88432e+06 0 -1.32742e+06 1.88165e+06 0 -1.25004e+06 1.87106e+06 0 -1.17207e+06 1.85218e+06 0 -1.09533e+06 1.82522e+06 0 -1.02135e+06 1.79086e+06 0 -951329 1.75019e+06 0 -886023 1.70444e+06 0 -825795 1.65488e+06 0 -770691 1.60267e+06 0 -720524 1.54883e+06 0 -674966 1.49416e+06 0 -633613 1.4393e+06 0 -596041 1.3847e+06 0 -561831 1.33072e+06 0 -530596 1.27759e+06 0 -501980 1.22548e+06 0 -475668 1.1745e+06 0 -451381 1.12472e+06 0 -428874 1.07618e+06 0 -407936 1.0289e+06 0 -388380 982880 0 -370047 938126 0 -352797 894622 0 -336511 852355 0 -321083 811308 0 -306423 771464 0 -292453 732805 0 -279105 695313 0 -266319 658973 0 -254044 623770 0 -242237 589689 0 -230858 556717 0 -219876 524843 0 -209261 494056 0 -198989 464345 0 -189040 435703 0 -179397 408120 0 -170045 381588 0 -160972 356100 0 -152169 331648 0 -143629 308224 0 -135346 285820 0 -127315 264429 0 -119533 244041 0 -112001 224647 0 -104716 206236 0 -97679.5 188796 0 -90892.5 172315 0 -84356.5 156779 0 -78073.8 142172 0 -72046.4 128477 0 -66276.9 115675 0 -60767.6 103747 0 -55520.5 92668.5 0 -50537.7 82416.9 0 -45820.4 72966.3 0 -41369.4 64289.1 0 -37184.8 56356 0 -33265.9 49136.2 0 -29611.1 42597.4 0 -26217.7 36705.7 0 -23082.1 31426.3 0 -20199.4 26723 0 -17563.9 22559.2 0 -15168.3 18897.3 0 -13004.5 15699.8 0 -11063.1 12929 0 -9333.85 10547.4 0 -7805.39 8518.25 0 -6465.59 6805.48 0 -5301.58 5374.34 0 -4299.94 4191.45 0 -3446.88 3225.17 0 -2728.4 2445.79 0 -2130.49 1825.74 0 -1639.34 1339.75 0 -1241.52 964.981 0 -924.182 681.047 0 -675.202 470.06 0 -483.355 316.579 0 -338.416 207.514 0 -231.254 131.992 0 -153.873 81.1811 0 -99.4326 48.0761 0 -62.2137 27.2726 0 -37.5625 14.7241 0 -21.7993 7.50164 0 -12.1061 3.56507 0 -6.40022 1.5534 0 -3.20191 0.60305 0 -1.50523 0.196882 0 -0.65948 0.045711 0 -0.266663 0.000795802 0 -0.098361 -0.00684227 0 -0.0326235 -0.00488059 0 -0.00955774 -0.00228598 0 -0.00242186 -0.000823269 0 -0.000518899 -0.000233618 0 -8.94679e-05 -4.73782e-05 0 -1.01158e-05 -3.58373e-06 0 9.09786e-07 5.69783e-06 0 -5.60307e-07 -3.36021e-06 0 6.78934e-07 -1.80304e-06 0 -9.06875e-07 -1.13845e-05 0 -1.65054e-06 2.35811e-06 0 -6.84522e-07 -4.56721e-06 0 -7.48783e-07 -2.33948e-05 0 -2.04372e+06 1.55933e+06 0 -2.03554e+06 1.56512e+06 0 -2.02624e+06 1.57197e+06 0 -2.01659e+06 1.57942e+06 0 -2.00652e+06 1.58665e+06 0 -1.99435e+06 1.59597e+06 0 -1.98095e+06 1.60624e+06 0 -1.96678e+06 1.61697e+06 0 -1.95143e+06 1.62843e+06 0 -1.93415e+06 1.64111e+06 0 -1.91462e+06 1.65501e+06 0 -1.89282e+06 1.66985e+06 0 -1.86873e+06 1.68545e+06 0 -1.84206e+06 1.70174e+06 0 -1.81229e+06 1.7187e+06 0 -1.7789e+06 1.73614e+06 0 -1.74147e+06 1.75367e+06 0 -1.69969e+06 1.77074e+06 0 -1.65331e+06 1.78669e+06 0 -1.60215e+06 1.80077e+06 0 -1.54609e+06 1.8121e+06 0 -1.48523e+06 1.81967e+06 0 -1.42e+06 1.82242e+06 0 -1.35123e+06 1.81935e+06 0 -1.28007e+06 1.80971e+06 0 -1.2079e+06 1.79306e+06 0 -1.13617e+06 1.76942e+06 0 -1.06618e+06 1.73918e+06 0 -999046 1.70306e+06 0 -935551 1.66199e+06 0 -876182 1.61697e+06 0 -821149 1.569e+06 0 -770442 1.51898e+06 0 -723894 1.46768e+06 0 -681240 1.41572e+06 0 -642163 1.36362e+06 0 -606329 1.31174e+06 0 -573408 1.26039e+06 0 -543088 1.20976e+06 0 -515082 1.16001e+06 0 -489129 1.11125e+06 0 -464998 1.06356e+06 0 -442482 1.01697e+06 0 -421399 971530 0 -401591 927243 0 -382917 884120 0 -365256 842161 0 -348502 801363 0 -332560 761720 0 -317351 723222 0 -302804 685862 0 -288857 649628 0 -275457 614513 0 -262558 580507 0 -250120 547602 0 -238108 515789 0 -226493 485062 0 -215250 455413 0 -204356 426837 0 -193795 399326 0 -183552 372875 0 -173613 347478 0 -163970 323129 0 -154616 299820 0 -145544 277546 0 -136751 256298 0 -128234 236069 0 -119993 216849 0 -112028 198627 0 -104339 181392 0 -96927.6 165131 0 -89797.1 149829 0 -82949.5 135470 0 -76387.8 122035 0 -70114.8 109507 0 -64133.2 97861 0 -58445.5 87075.4 0 -53053.7 77124 0 -47959.2 67979.5 0 -43162.7 59612.5 0 -38664 51991.9 0 -34461.9 45084.9 0 -30554.1 38857.1 0 -26937.3 33272.6 0 -23606.7 28294.5 0 -20556.3 23884.9 0 -17778.7 20005 0 -15265.4 16615.6 0 -13006.3 13677.6 0 -10990.2 11151.7 0 -9204.9 8999.44 0 -7636.92 7182.87 0 -6272 5665.33 0 -5095.18 4411.59 0 -4090.92 3388.12 0 -3243.4 2563.4 0 -2536.69 1908.13 0 -1955 1395.42 0 -1482.9 1000.9 0 -1105.56 702.828 0 -808.917 482.109 0 -579.905 322.248 0 -406.563 209.268 0 -278.168 131.57 0 -185.297 79.7434 0 -119.854 46.3445 0 -75.0483 25.6494 0 -45.335 13.3934 0 -26.3155 6.51024 0 -14.6116 2.88335 0 -7.71985 1.11827 0 -3.85734 0.345097 0 -1.80979 0.055264 0 -0.79063 -0.0258778 0 -0.318406 -0.0322514 0 -0.116801 -0.0206132 0 -0.038456 -0.00998336 0 -0.0111555 -0.00392817 0 -0.00278961 -0.00127513 0 -0.000587253 -0.000333039 0 -9.92174e-05 -7.10562e-05 0 -1.02613e-05 -6.65523e-06 0 7.94884e-07 1.49198e-06 0 -1.48406e-06 -1.08108e-05 0 -1.37137e-07 -1.04941e-05 0 -