<?xml version="1.0"?> 
<VTKFile type="StructuredGrid" version="0.1"> 
<StructuredGrid WholeExtent="0 127 0 127 0 0"> 
<Piece Extent="0 127 0 127 0 0"> 
<PointData>
<DataArray type="Float32" Name="E" format="ascii" NumberOfComponents="3"> 
362150 5.46053e+06 0 406071 5.52193e+06 0 449863 5.56936e+06 0 493808 5.60938e+06 0 538007 5.64469e+06 0 582494 5.67656e+06 0 627274 5.70566e+06 0 672341 5.7324e+06 0 717684 5.75709e+06 0 763291 5.77991e+06 0 809148 5.80102e+06 0 855241 5.82055e+06 0 901554 5.83859e+06 0 948075 5.85523e+06 0 994789 5.87053e+06 0 1.04168e+06 5.88455e+06 0 1.08874e+06 5.89734e+06 0 1.13595e+06 5.90894e+06 0 1.18329e+06 5.91939e+06 0 1.23076e+06 5.92873e+06 0 1.27834e+06 5.93699e+06 0 1.32602e+06 5.94418e+06 0 1.37378e+06 5.95034e+06 0 1.42161e+06 5.95549e+06 0 1.4695e+06 5.95965e+06 0 1.51744e+06 5.96284e+06 0 1.56541e+06 5.96507e+06 0 1.6134e+06 5.96637e+06 0 1.6614e+06 5.96674e+06 0 1.7094e+06 5.9662e+06 0 1.75739e+06 5.96477e+06 0 1.80534e+06 5.96246e+06 0 1.85326e+06 5.95928e+06 0 1.90113e+06 5.95524e+06 0 1.94894e+06 5.95036e+06 0 1.99667e+06 5.94464e+06 0 2.04432e+06 5.9381e+06 0 2.09187e+06 5.93075e+06 0 2.13932e+06 5.9226e+06 0 2.18665e+06 5.91366e+06 0 2.23386e+06 5.90393e+06 0 2.28093e+06 5.89343e+06 0 2.32784e+06 5.88217e+06 0 2.3746e+06 5.87015e+06 0 2.42119e+06 5.8574e+06 0 2.4676e+06 5.8439e+06 0 2.51383e+06 5.82969e+06 0 2.55985e+06 5.81475e+06 0 2.60567e+06 5.79911e+06 0 2.65127e+06 5.78277e+06 0 2.69664e+06 5.76575e+06 0 2.74177e+06 5.74804e+06 0 2.78666e+06 5.72967e+06 0 2.8313e+06 5.71063e+06 0 2.87567e+06 5.69094e+06 0 2.91977e+06 5.6706e+06 0 2.96359e+06 5.64964e+06 0 3.00713e+06 5.62804e+06 0 3.05037e+06 5.60583e+06 0 3.0933e+06 5.58302e+06 0 3.13592e+06 5.55961e+06 0 3.17822e+06 5.5356e+06 0 3.2202e+06 5.51102e+06 0 3.26184e+06 5.48587e+06 0 3.30314e+06 5.46016e+06 0 3.34409e+06 5.43389e+06 0 3.38468e+06 5.40708e+06 0 3.42492e+06 5.37974e+06 0 3.46478e+06 5.35188e+06 0 3.50427e+06 5.3235e+06 0 3.54338e+06 5.29461e+06 0 3.5821e+06 5.26523e+06 0 3.62043e+06 5.23536e+06 0 3.65836e+06 5.20502e+06 0 3.69588e+06 5.1742e+06 0 3.733e+06 5.14293e+06 0 3.7697e+06 5.11121e+06 0 3.80599e+06 5.07905e+06 0 3.84184e+06 5.04646e+06 0 3.87727e+06 5.01345e+06 0 3.91227e+06 4.98003e+06 0 3.94683e+06 4.94621e+06 0 3.98094e+06 4.91199e+06 0 4.01461e+06 4.87739e+06 0 4.04784e+06 4.84242e+06 0 4.0806e+06 4.80709e+06 0 4.11291e+06 4.7714e+06 0 4.14476e+06 4.73536e+06 0 4.17615e+06 4.69899e+06 0 4.20707e+06 4.66229e+06 0 4.23753e+06 4.62528e+06 0 4.26751e+06 4.58796e+06 0 4.29701e+06 4.55034e+06 0 4.32604e+06 4.51243e+06 0 4.35459e+06 4.47424e+06 0 4.38266e+06 4.43578e+06 0 4.41025e+06 4.39705e+06 0 4.43735e+06 4.35808e+06 0 4.46397e+06 4.31886e+06 0 4.4901e+06 4.27941e+06 0 4.51574e+06 4.23973e+06 0 4.5409e+06 4.19983e+06 0 4.56556e+06 4.15973e+06 0 4.58973e+06 4.11943e+06 0 4.6134e+06 4.07894e+06 0 4.63659e+06 4.03826e+06 0 4.65928e+06 3.99742e+06 0 4.68147e+06 3.95641e+06 0 4.70318e+06 3.91524e+06 0 4.72439e+06 3.87393e+06 0 4.7451e+06 3.83247e+06 0 4.76532e+06 3.79089e+06 0 4.78505e+06 3.74918e+06 0 4.80428e+06 3.70736e+06 0 4.82302e+06 3.66544e+06 0 4.84127e+06 3.62341e+06 0 4.85903e+06 3.58129e+06 0 4.87629e+06 3.53909e+06 0 4.89307e+06 3.49681e+06 0 4.90935e+06 3.45447e+06 0 4.92515e+06 3.41206e+06 0 4.94045e+06 3.3696e+06 0 4.95526e+06 3.32709e+06 0 4.96959e+06 3.28454e+06 0 4.98342e+06 3.24195e+06 0 4.99676e+06 3.19934e+06 0 5.00961e+06 3.15669e+06 0 5.02196e+06 3.11403e+06 0 522838 5.37136e+06 0 549388 5.40787e+06 0 579767 5.44373e+06 0 613444 5.47762e+06 0 649667 5.50919e+06 0 687835 5.53844e+06 0 727507 5.56549e+06 0 768372 5.59048e+06 0 810205 5.61353e+06 0 852841 5.63476e+06 0 896152 5.65429e+06 0 940039 5.6722e+06 0 984422 5.68856e+06 0 1.02924e+06 5.70345e+06 0 1.07442e+06 5.71692e+06 0 1.11993e+06 5.72903e+06 0 1.16572e+06 5.73983e+06 0 1.21176e+06 5.74934e+06 0 1.258e+06 5.75761e+06 0 1.30442e+06 5.76468e+06 0 1.35099e+06 5.77057e+06 0 1.39768e+06 5.77532e+06 0 1.44446e+06 5.77894e+06 0 1.4913e+06 5.78146e+06 0 1.5382e+06 5.78291e+06 0 1.58512e+06 5.7833e+06 0 1.63204e+06 5.78266e+06 0 1.67894e+06 5.781e+06 0 1.7258e+06 5.77835e+06 0 1.77261e+06 5.77472e+06 0 1.81934e+06 5.77013e+06 0 1.86598e+06 5.76459e+06 0 1.91251e+06 5.75812e+06 0 1.95891e+06 5.75074e+06 0 2.00517e+06 5.74246e+06 0 2.05127e+06 5.73331e+06 0 2.09719e+06 5.72328e+06 0 2.14292e+06 5.7124e+06 0 2.18845e+06 5.70068e+06 0 2.23377e+06 5.68814e+06 0 2.27884e+06 5.67479e+06 0 2.32368e+06 5.66064e+06 0 2.36825e+06 5.64572e+06 0 2.41256e+06 5.63002e+06 0 2.45658e+06 5.61357e+06 0 2.50031e+06 5.59639e+06 0 2.54373e+06 5.57848e+06 0 2.58683e+06 5.55985e+06 0 2.62961e+06 5.54053e+06 0 2.67204e+06 5.52053e+06 0 2.71413e+06 5.49986e+06 0 2.75586e+06 5.47852e+06 0 2.79722e+06 5.45655e+06 0 2.83821e+06 5.43395e+06 0 2.87881e+06 5.41073e+06 0 2.91901e+06 5.38692e+06 0 2.95882e+06 5.36251e+06 0 2.99821e+06 5.33753e+06 0 3.03719e+06 5.31199e+06 0 3.07575e+06 5.28591e+06 0 3.11387e+06 5.25929e+06 0 3.15156e+06 5.23214e+06 0 3.18881e+06 5.2045e+06 0 3.2256e+06 5.17636e+06 0 3.26195e+06 5.14774e+06 0 3.29783e+06 5.11865e+06 0 3.33326e+06 5.08911e+06 0 3.36821e+06 5.05913e+06 0 3.40269e+06 5.02873e+06 0 3.4367e+06 4.99791e+06 0 3.47022e+06 4.96668e+06 0 3.50327e+06 4.93507e+06 0 3.53583e+06 4.90309e+06 0 3.5679e+06 4.87074e+06 0 3.59948e+06 4.83804e+06 0 3.63056e+06 4.805e+06 0 3.66116e+06 4.77164e+06 0 3.69125e+06 4.73796e+06 0 3.72085e+06 4.70398e+06 0 3.74995e+06 4.66971e+06 0 3.77854e+06 4.63517e+06 0 3.80664e+06 4.60036e+06 0 3.83424e+06 4.56529e+06 0 3.86133e+06 4.52998e+06 0 3.88793e+06 4.49444e+06 0 3.91402e+06 4.45868e+06 0 3.93961e+06 4.42271e+06 0 3.96471e+06 4.38655e+06 0 3.9893e+06 4.35019e+06 0 4.01339e+06 4.31366e+06 0 4.03699e+06 4.27696e+06 0 4.06009e+06 4.24011e+06 0 4.0827e+06 4.20311e+06 0 4.10482e+06 4.16597e+06 0 4.12644e+06 4.12871e+06 0 4.14758e+06 4.09132e+06 0 4.16823e+06 4.05384e+06 0 4.1884e+06 4.01625e+06 0 4.20808e+06 3.97858e+06 0 4.22729e+06 3.94082e+06 0 4.24602e+06 3.903e+06 0 4.26427e+06 3.86511e+06 0 4.28206e+06 3.82717e+06 0 4.29938e+06 3.78918e+06 0 4.31623e+06 3.75116e+06 0 4.33263e+06 3.71311e+06 0 4.34856e+06 3.67503e+06 0 4.36405e+06 3.63694e+06 0 4.37908e+06 3.59885e+06 0 4.39366e+06 3.56076e+06 0 4.40781e+06 3.52267e+06 0 4.42151e+06 3.4846e+06 0 4.43477e+06 3.44655e+06 0 4.44761e+06 3.40854e+06 0 4.46002e+06 3.37056e+06 0 4.472e+06 3.33262e+06 0 4.48357e+06 3.29473e+06 0 4.49472e+06 3.25689e+06 0 4.50545e+06 3.21912e+06 0 4.51578e+06 3.18141e+06 0 4.52571e+06 3.14377e+06 0 4.53524e+06 3.10622e+06 0 4.54438e+06 3.06874e+06 0 4.55313e+06 3.03136e+06 0 4.5615e+06 2.99407e+06 0 4.56949e+06 2.95688e+06 0 4.57711e+06 2.9198e+06 0 4.58436e+06 2.88282e+06 0 620739 5.29004e+06 0 646727 5.31898e+06 0 675496 5.34724e+06 0 706633 5.3746e+06 0 739889 5.4008e+06 0 775012 5.42561e+06 0 811760 5.44894e+06 0 849905 5.4707e+06 0 889249 5.4909e+06 0 929623 5.50953e+06 0 970883 5.52662e+06 0 1.01291e+06 5.5422e+06 0 1.05559e+06 5.5563e+06 0 1.09883e+06 5.56897e+06 0 1.14257e+06 5.58022e+06 0 1.18673e+06 5.59011e+06 0 1.23124e+06 5.59865e+06 0 1.27606e+06 5.60588e+06 0 1.32113e+06 5.61184e+06 0 1.36641e+06 5.61654e+06 0 1.41185e+06 5.62002e+06 0 1.45742e+06 5.6223e+06 0 1.50308e+06 5.62341e+06 0 1.5488e+06 5.62337e+06 0 1.59454e+06 5.62219e+06 0 1.64028e+06 5.61992e+06 0 1.68598e+06 5.61656e+06 0 1.73162e+06 5.61213e+06 0 1.77718e+06 5.60666e+06 0 1.82262e+06 5.60018e+06 0 1.86792e+06 5.59268e+06 0 1.91307e+06 5.58421e+06 0 1.95803e+06 5.57477e+06 0 2.0028e+06 5.56439e+06 0 2.04734e+06 5.55308e+06 0 2.09164e+06 5.54086e+06 0 2.13569e+06 5.52776e+06 0 2.17945e+06 5.51379e+06 0 2.22292e+06 5.49896e+06 0 2.26608e+06 5.48331e+06 0 2.30892e+06 5.46684e+06 0 2.35141e+06 5.44957e+06 0 2.39355e+06 5.43153e+06 0 2.43532e+06 5.41272e+06 0 2.4767e+06 5.39318e+06 0 2.51769e+06 5.37291e+06 0 2.55828e+06 5.35194e+06 0 2.59844e+06 5.33028e+06 0 2.63817e+06 5.30795e+06 0 2.67747e+06 5.28497e+06 0 2.71631e+06 5.26136e+06 0 2.7547e+06 5.23714e+06 0 2.79262e+06 5.21231e+06 0 2.83006e+06 5.18691e+06 0 2.86702e+06 5.16094e+06 0 2.90349e+06 5.13443e+06 0 2.93946e+06 5.10739e+06 0 2.97493e+06 5.07984e+06 0 3.00989e+06 5.0518e+06 0 3.04434e+06 5.02328e+06 0 3.07827e+06 4.99431e+06 0 3.11167e+06 4.96489e+06 0 3.14455e+06 4.93504e+06 0 3.1769e+06 4.90479e+06 0 3.20872e+06 4.87414e+06 0 3.24e+06 4.84312e+06 0 3.27074e+06 4.81174e+06 0 3.30095e+06 4.78001e+06 0 3.33061e+06 4.74795e+06 0 3.35973e+06 4.71557e+06 0 3.38831e+06 4.6829e+06 0 3.41635e+06 4.64994e+06 0 3.44384e+06 4.61672e+06 0 3.4708e+06 4.58324e+06 0 3.49721e+06 4.54952e+06 0 3.52308e+06 4.51557e+06 0 3.54841e+06 4.48141e+06 0 3.57321e+06 4.44705e+06 0 3.59747e+06 4.4125e+06 0 3.6212e+06 4.37778e+06 0 3.6444e+06 4.3429e+06 0 3.66707e+06 4.30788e+06 0 3.68921e+06 4.27271e+06 0 3.71084e+06 4.23743e+06 0 3.73194e+06 4.20203e+06 0 3.75253e+06 4.16654e+06 0 3.77261e+06 4.13095e+06 0 3.79218e+06 4.09529e+06 0 3.81125e+06 4.05956e+06 0 3.82983e+06 4.02378e+06 0 3.8479e+06 3.98795e+06 0 3.86549e+06 3.95209e+06 0 3.8826e+06 3.91619e+06 0 3.89922e+06 3.88029e+06 0 3.91537e+06 3.84437e+06 0 3.93105e+06 3.80846e+06 0 3.94627e+06 3.77256e+06 0 3.96102e+06 3.73667e+06 0 3.97533e+06 3.70081e+06 0 3.98918e+06 3.66499e+06 0 4.0026e+06 3.62921e+06 0 4.01557e+06 3.59349e+06 0 4.02812e+06 3.55782e+06 0 4.04024e+06 3.52221e+06 0 4.05194e+06 3.48667e+06 0 4.06322e+06 3.45122e+06 0 4.0741e+06 3.41585e+06 0 4.08458e+06 3.38056e+06 0 4.09466e+06 3.34538e+06 0 4.10435e+06 3.3103e+06 0 4.11366e+06 3.27532e+06 0 4.12259e+06 3.24046e+06 0 4.13115e+06 3.20571e+06 0 4.13934e+06 3.17109e+06 0 4.14717e+06 3.1366e+06 0 4.15465e+06 3.10223e+06 0 4.16178e+06 3.06801e+06 0 4.16857e+06 3.03392e+06 0 4.17502e+06 2.99998e+06 0 4.18114e+06 2.96618e+06 0 4.18694e+06 2.93254e+06 0 4.19242e+06 2.89905e+06 0 4.19759e+06 2.86571e+06 0 4.20245e+06 2.83254e+06 0 4.20701e+06 2.79953e+06 0 4.21128e+06 2.76669e+06 0 4.21525e+06 2.73401e+06 0 4.21894e+06 2.70151e+06 0 693434 5.21414e+06 0 720260 5.23816e+06 0 748821 5.26175e+06 0 779221 5.28465e+06 0 811379 5.30664e+06 0 845165 5.32758e+06 0 880436 5.34735e+06 0 917043 5.36585e+06 0 954842 5.38302e+06 0 993698 5.39883e+06 0 1.03349e+06 5.41326e+06 0 1.07409e+06 5.4263e+06 0 1.11541e+06 5.43794e+06 0 1.15735e+06 5.44821e+06 0 1.19983e+06 5.4571e+06 0 1.24277e+06 5.46465e+06 0 1.28609e+06 5.47086e+06 0 1.32974e+06 5.47577e+06 0 1.37366e+06 5.47938e+06 0 1.4178e+06 5.48173e+06 0 1.46209e+06 5.48283e+06 0 1.50651e+06 5.4827e+06 0 1.55099e+06 5.48138e+06 0 1.59551e+06 5.47887e+06 0 1.64002e+06 5.47521e+06 0 1.68449e+06 5.47042e+06 0 1.72889e+06 5.46451e+06 0 1.77317e+06 5.45751e+06 0 1.81731e+06 5.44945e+06 0 1.86129e+06 5.44034e+06 0 1.90507e+06 5.4302e+06 0 1.94862e+06 5.41907e+06 0 1.99193e+06 5.40696e+06 0 2.03496e+06 5.39389e+06 0 2.0777e+06 5.37988e+06 0 2.12012e+06 5.36497e+06 0 2.16221e+06 5.34916e+06 0 2.20393e+06 5.33248e+06 0 2.24529e+06 5.31496e+06 0 2.28624e+06 5.29662e+06 0 2.32679e+06 5.27747e+06 0 2.36691e+06 5.25754e+06 0 2.40659e+06 5.23686e+06 0 2.44582e+06 5.21543e+06 0 2.48457e+06 5.1933e+06 0 2.52285e+06 5.17047e+06 0 2.56063e+06 5.14698e+06 0 2.59791e+06 5.12283e+06 0 2.63468e+06 5.09806e+06 0 2.67092e+06 5.07268e+06 0 2.70663e+06 5.04671e+06 0 2.7418e+06 5.02019e+06 0 2.77642e+06 4.99312e+06 0 2.81049e+06 4.96553e+06 0 2.844e+06 4.93744e+06 0 2.87695e+06 4.90887e+06 0 2.90933e+06 4.87984e+06 0 2.94113e+06 4.85037e+06 0 2.97235e+06 4.82048e+06 0 3.003e+06 4.79019e+06 0 3.03306e+06 4.75952e+06 0 3.06254e+06 4.72849e+06 0 3.09144e+06 4.69711e+06 0 3.11975e+06 4.66541e+06 0 3.14747e+06 4.63341e+06 0 3.17461e+06 4.60111e+06 0 3.20116e+06 4.56855e+06 0 3.22713e+06 4.53573e+06 0 3.25251e+06 4.50267e+06 0 3.27732e+06 4.46939e+06 0 3.30154e+06 4.43591e+06 0 3.32519e+06 4.40225e+06 0 3.34827e+06 4.36841e+06 0 3.37078e+06 4.33441e+06 0 3.39273e+06 4.30027e+06 0 3.41411e+06 4.26601e+06 0 3.43494e+06 4.23163e+06 0 3.45522e+06 4.19715e+06 0 3.47495e+06 4.16259e+06 0 3.49414e+06 4.12795e+06 0 3.51279e+06 4.09326e+06 0 3.53091e+06 4.05851e+06 0 3.5485e+06 4.02374e+06 0 3.56558e+06 3.98894e+06 0 3.58214e+06 3.95413e+06 0 3.5982e+06 3.91931e+06 0 3.61376e+06 3.88451e+06 0 3.62882e+06 3.84973e+06 0 3.6434e+06 3.81498e+06 0 3.6575e+06 3.78026e+06 0 3.67112e+06 3.7456e+06 0 3.68428e+06 3.711e+06 0 3.69698e+06 3.67646e+06 0 3.70923e+06 3.642e+06 0 3.72104e+06 3.60762e+06 0 3.73241e+06 3.57333e+06 0 3.74335e+06 3.53914e+06 0 3.75387e+06 3.50506e+06 0 3.76397e+06 3.47109e+06 0 3.77367e+06 3.43724e+06 0 3.78297e+06 3.40352e+06 0 3.79187e+06 3.36992e+06 0 3.80039e+06 3.33646e+06 0 3.80854e+06 3.30315e+06 0 3.81631e+06 3.26998e+06 0 3.82373e+06 3.23697e+06 0 3.83078e+06 3.20411e+06 0 3.83749e+06 3.17141e+06 0 3.84386e+06 3.13888e+06 0 3.8499e+06 3.10652e+06 0 3.85561e+06 3.07433e+06 0 3.861e+06 3.04232e+06 0 3.86608e+06 3.01049e+06 0 3.87086e+06 2.97884e+06 0 3.87534e+06 2.94737e+06 0 3.87953e+06 2.9161e+06 0 3.88343e+06 2.88501e+06 0 3.88705e+06 2.85412e+06 0 3.89041e+06 2.82342e+06 0 3.8935e+06 2.79292e+06 0 3.89633e+06 2.76262e+06 0 3.89891e+06 2.73252e+06 0 3.90124e+06 2.70262e+06 0 3.90334e+06 2.67292e+06 0 3.9052e+06 2.64343e+06 0 3.90683e+06 2.61414e+06 0 3.90824e+06 2.58505e+06 0 3.90944e+06 2.55617e+06 0 751357 5.14274e+06 0 778285 5.16331e+06 0 806906 5.18336e+06 0 837098 5.20277e+06 0 868793 5.2214e+06 0 901913 5.23911e+06 0 936364 5.25579e+06 0 972042 5.27135e+06 0 1.00884e+06 5.28572e+06 0 1.04665e+06 5.29885e+06 0 1.08537e+06 5.3107e+06 0 1.12489e+06 5.32124e+06 0 1.16512e+06 5.33046e+06 0 1.20597e+06 5.33835e+06 0 1.24736e+06 5.34491e+06 0 1.28921e+06 5.35015e+06 0 1.33145e+06 5.35408e+06 0 1.37401e+06 5.3567e+06 0 1.41683e+06 5.35804e+06 0 1.45984e+06 5.35811e+06 0 1.503e+06 5.35692e+06 0 1.54625e+06 5.3545e+06 0 1.58954e+06 5.35087e+06 0 1.63284e+06 5.34604e+06 0 1.67608e+06 5.34005e+06 0 1.71924e+06 5.33291e+06 0 1.76228e+06 5.32464e+06 0 1.80516e+06 5.31527e+06 0 1.84785e+06 5.30483e+06 0 1.8903e+06 5.29333e+06 0 1.9325e+06 5.28081e+06 0 1.97442e+06 5.26728e+06 0 2.01602e+06 5.25277e+06 0 2.05728e+06 5.2373e+06 0 2.09818e+06 5.22091e+06 0 2.13869e+06 5.20361e+06 0 2.17879e+06 5.18544e+06 0 2.21846e+06 5.16641e+06 0 2.25769e+06 5.14655e+06 0 2.29644e+06 5.12589e+06 0 2.33471e+06 5.10446e+06 0 2.37248e+06 5.08227e+06 0 2.40974e+06 5.05935e+06 0 2.44647e+06 5.03573e+06 0 2.48265e+06 5.01144e+06 0 2.51828e+06 4.9865e+06 0 2.55335e+06 4.96093e+06 0 2.58785e+06 4.93475e+06 0 2.62176e+06 4.90801e+06 0 2.65508e+06 4.8807e+06 0 2.68781e+06 4.85287e+06 0 2.71993e+06 4.82454e+06 0 2.75144e+06 4.79572e+06 0 2.78234e+06 4.76645e+06 0 2.81262e+06 4.73674e+06 0 2.84228e+06 4.70662e+06 0 2.87132e+06 4.67611e+06 0 2.89973e+06 4.64523e+06 0 2.92752e+06 4.61401e+06 0 2.95468e+06 4.58246e+06 0 2.98121e+06 4.55061e+06 0 3.00712e+06 4.51848e+06 0 3.03241e+06 4.48608e+06 0 3.05708e+06 4.45344e+06 0 3.08113e+06 4.42057e+06 0 3.10456e+06 4.3875e+06 0 3.12738e+06 4.35425e+06 0 3.14959e+06 4.32082e+06 0 3.17119e+06 4.28725e+06 0 3.1922e+06 4.25354e+06 0 3.21261e+06 4.21971e+06 0 3.23244e+06 4.18578e+06 0 3.25168e+06 4.15177e+06 0 3.27034e+06 4.11769e+06 0 3.28844e+06 4.08355e+06 0 3.30597e+06 4.04937e+06 0 3.32295e+06 4.01517e+06 0 3.33937e+06 3.98095e+06 0 3.35525e+06 3.94673e+06 0 3.3706e+06 3.91252e+06 0 3.38543e+06 3.87834e+06 0 3.39973e+06 3.8442e+06 0 3.41353e+06 3.8101e+06 0 3.42682e+06 3.77606e+06 0 3.43962e+06 3.74209e+06 0 3.45194e+06 3.7082e+06 0 3.46377e+06 3.6744e+06 0 3.47514e+06 3.64069e+06 0 3.48605e+06 3.6071e+06 0 3.49652e+06 3.57361e+06 0 3.50654e+06 3.54025e+06 0 3.51612e+06 3.50703e+06 0 3.52528e+06 3.47393e+06 0 3.53403e+06 3.44099e+06 0 3.54237e+06 3.4082e+06 0 3.55032e+06 3.37556e+06 0 3.55787e+06 3.34309e+06 0 3.56505e+06 3.31078e+06 0 3.57185e+06 3.27866e+06 0 3.5783e+06 3.24671e+06 0 3.58439e+06 3.21494e+06 0 3.59013e+06 3.18337e+06 0 3.59553e+06 3.15198e+06 0 3.60061e+06 3.1208e+06 0 3.60537e+06 3.08981e+06 0 3.60981e+06 3.05903e+06 0 3.61395e+06 3.02845e+06 0 3.6178e+06 2.99808e+06 0 3.62135e+06 2.96792e+06 0 3.62463e+06 2.93798e+06 0 3.62763e+06 2.90825e+06 0 3.63037e+06 2.87875e+06 0 3.63285e+06 2.84946e+06 0 3.63508e+06 2.82039e+06 0 3.63707e+06 2.79154e+06 0 3.63882e+06 2.76292e+06 0 3.64034e+06 2.73452e+06 0 3.64164e+06 2.70635e+06 0 3.64272e+06 2.6784e+06 0 3.6436e+06 2.65067e+06 0 3.64427e+06 2.62318e+06 0 3.64475e+06 2.59591e+06 0 3.64504e+06 2.56887e+06 0 3.64514e+06 2.54205e+06 0 3.64506e+06 2.51546e+06 0 3.64482e+06 2.48909e+06 0 3.6444e+06 2.46295e+06 0 3.64383e+06 2.43704e+06 0 797851 5.07539e+06 0 825206 5.09313e+06 0 853924 5.11036e+06 0 884024 5.12695e+06 0 915465 5.14278e+06 0 948183 5.15774e+06 0 982107 5.17174e+06 0 1.01715e+06 5.18469e+06 0 1.05324e+06 5.19653e+06 0 1.09026e+06 5.20719e+06 0 1.12815e+06 5.21663e+06 0 1.16679e+06 5.22483e+06 0 1.20612e+06 5.23175e+06 0 1.24604e+06 5.23739e+06 0 1.28647e+06 5.24172e+06 0 1.32733e+06 5.24476e+06 0 1.36857e+06 5.2465e+06 0 1.41009e+06 5.24695e+06 0 1.45185e+06 5.24612e+06 0 1.49378e+06 5.24403e+06 0 1.53582e+06 5.24068e+06 0 1.57792e+06 5.2361e+06 0 1.62002e+06 5.2303e+06 0 1.66208e+06 5.22332e+06 0 1.70405e+06 5.21515e+06 0 1.74589e+06 5.20584e+06 0 1.78755e+06 5.19541e+06 0 1.829e+06 5.18387e+06 0 1.87021e+06 5.17126e+06 0 1.91113e+06 5.1576e+06 0 1.95174e+06 5.14292e+06 0 1.992e+06 5.12724e+06 0 2.03188e+06 5.1106e+06 0 2.07137e+06 5.09301e+06 0 2.11042e+06 5.07451e+06 0 2.14903e+06 5.05512e+06 0 2.18716e+06 5.03488e+06 0 2.22479e+06 5.0138e+06 0 2.26191e+06 4.99193e+06 0 2.2985e+06 4.96929e+06 0 2.33454e+06 4.9459e+06 0 2.37002e+06 4.92179e+06 0 2.40491e+06 4.897e+06 0 2.43922e+06 4.87155e+06 0 2.47293e+06 4.84547e+06 0 2.50602e+06 4.81878e+06 0 2.53849e+06 4.79152e+06 0 2.57032e+06 4.7637e+06 0 2.60153e+06 4.73537e+06 0 2.63208e+06 4.70654e+06 0 2.66199e+06 4.67724e+06 0 2.69125e+06 4.6475e+06 0 2.71985e+06 4.61734e+06 0 2.74779e+06 4.58678e+06 0 2.77507e+06 4.55586e+06 0 2.80169e+06 4.5246e+06 0 2.82765e+06 4.49301e+06 0 2.85296e+06 4.46113e+06 0 2.8776e+06 4.42898e+06 0 2.90159e+06 4.39657e+06 0 2.92492e+06 4.36393e+06 0 2.9476e+06 4.33109e+06 0 2.96964e+06 4.29806e+06 0 2.99104e+06 4.26486e+06 0 3.0118e+06 4.23152e+06 0 3.03193e+06 4.19804e+06 0 3.05144e+06 4.16446e+06 0 3.07033e+06 4.13078e+06 0 3.08861e+06 4.09704e+06 0 3.10628e+06 4.06323e+06 0 3.12336e+06 4.02938e+06 0 3.13985e+06 3.99551e+06 0 3.15576e+06 3.96163e+06 0 3.1711e+06 3.92776e+06 0 3.18588e+06 3.89391e+06 0 3.2001e+06 3.86008e+06 0 3.21378e+06 3.82631e+06 0 3.22693e+06 3.7926e+06 0 3.23955e+06 3.75895e+06 0 3.25165e+06 3.72539e+06 0 3.26325e+06 3.69192e+06 0 3.27435e+06 3.65856e+06 0 3.28496e+06 3.62532e+06 0 3.2951e+06 3.59219e+06 0 3.30478e+06 3.5592e+06 0 3.31399e+06 3.52636e+06 0 3.32276e+06 3.49366e+06 0 3.3311e+06 3.46112e+06 0 3.33901e+06 3.42875e+06 0 3.3465e+06 3.39656e+06 0 3.35358e+06 3.36454e+06 0 3.36028e+06 3.33271e+06 0 3.36658e+06 3.30106e+06 0 3.37251e+06 3.26962e+06 0 3.37807e+06 3.23838e+06 0 3.38328e+06 3.20735e+06 0 3.38814e+06 3.17652e+06 0 3.39266e+06 3.14591e+06 0 3.39686e+06 3.11553e+06 0 3.40073e+06 3.08536e+06 0 3.4043e+06 3.05542e+06 0 3.40756e+06 3.02571e+06 0 3.41054e+06 2.99623e+06 0 3.41323e+06 2.96698e+06 0 3.41564e+06 2.93797e+06 0 3.41779e+06 2.90919e+06 0 3.41969e+06 2.88066e+06 0 3.42133e+06 2.85236e+06 0 3.42274e+06 2.82431e+06 0 3.42391e+06 2.7965e+06 0 3.42485e+06 2.76893e+06 0 3.42558e+06 2.74161e+06 0 3.4261e+06 2.71453e+06 0 3.42641e+06 2.68769e+06 0 3.42653e+06 2.6611e+06 0 3.42646e+06 2.63475e+06 0 3.42621e+06 2.60865e+06 0 3.42578e+06 2.58279e+06 0 3.42518e+06 2.55717e+06 0 3.42442e+06 2.53179e+06 0 3.42351e+06 2.50666e+06 0 3.42244e+06 2.48176e+06 0 3.42124e+06 2.45711e+06 0 3.41989e+06 2.43269e+06 0 3.41841e+06 2.40851e+06 0 3.4168e+06 2.38457e+06 0 3.41507e+06 2.36086e+06 0 3.41322e+06 2.33738e+06 0 836046 5.0117e+06 0 863553 5.02708e+06 0 892359 5.04191e+06 0 922416 5.05608e+06 0 953684 5.06951e+06 0 986112 5.08208e+06 0 1.01964e+06 5.09372e+06 0 1.0542e+06 5.10435e+06 0 1.08971e+06 5.11389e+06 0 1.1261e+06 5.12231e+06 0 1.16329e+06 5.12954e+06 0 1.20118e+06 5.13557e+06 0 1.23971e+06 5.14035e+06 0 1.27879e+06 5.14386e+06 0 1.31835e+06 5.14611e+06 0 1.35831e+06 5.14708e+06 0 1.39859e+06 5.14676e+06 0 1.43913e+06 5.14517e+06 0 1.47987e+06 5.14231e+06 0 1.52074e+06 5.13819e+06 0 1.56168e+06 5.13282e+06 0 1.60264e+06 5.12623e+06 0 1.64356e+06 5.11843e+06 0 1.68439e+06 5.10944e+06 0 1.72509e+06 5.09928e+06 0 1.76561e+06 5.08798e+06 0 1.8059e+06 5.07556e+06 0 1.84593e+06 5.06205e+06 0 1.88565e+06 5.04748e+06 0 1.92504e+06 5.03186e+06 0 1.96406e+06 5.01524e+06 0 2.00267e+06 4.99764e+06 0 2.04086e+06 4.9791e+06 0 2.07858e+06 4.95963e+06 0 2.11581e+06 4.93927e+06 0 2.15254e+06 4.91805e+06 0 2.18873e+06 4.89601e+06 0 2.22438e+06 4.87316e+06 0 2.25945e+06 4.84955e+06 0 2.29393e+06 4.82521e+06 0 2.32781e+06 4.80016e+06 0 2.36106e+06 4.77444e+06 0 2.39369e+06 4.74807e+06 0 2.42568e+06 4.7211e+06 0 2.45701e+06 4.69354e+06 0 2.48768e+06 4.66542e+06 0 2.51768e+06 4.63678e+06 0 2.547e+06 4.60765e+06 0 2.57565e+06 4.57806e+06 0 2.60361e+06 4.54803e+06 0 2.63088e+06 4.51758e+06 0 2.65746e+06 4.48676e+06 0 2.68336e+06 4.45558e+06 0 2.70856e+06 4.42407e+06 0 2.73307e+06 4.39227e+06 0 2.7569e+06 4.36018e+06 0 2.78004e+06 4.32784e+06 0 2.80249e+06 4.29527e+06 0 2.82427e+06 4.2625e+06 0 2.84538e+06 4.22955e+06 0 2.86582e+06 4.19643e+06 0 2.88559e+06 4.16318e+06 0 2.90471e+06 4.12981e+06 0 2.92318e+06 4.09634e+06 0 2.94102e+06 4.06279e+06 0 2.95821e+06 4.02919e+06 0 2.97479e+06 3.99554e+06 0 2.99075e+06 3.96188e+06 0 3.0061e+06 3.9282e+06 0 3.02085e+06 3.89454e+06 0 3.03502e+06 3.86091e+06 0 3.04861e+06 3.82731e+06 0 3.06163e+06 3.79378e+06 0 3.07409e+06 3.76031e+06 0 3.08601e+06 3.72692e+06 0 3.0974e+06 3.69364e+06 0 3.10826e+06 3.66046e+06 0 3.1186e+06 3.6274e+06 0 3.12845e+06 3.59447e+06 0 3.1378e+06 3.56168e+06 0 3.14667e+06 3.52904e+06 0 3.15508e+06 3.49656e+06 0 3.16302e+06 3.46425e+06 0 3.17053e+06 3.43212e+06 0 3.17759e+06 3.40018e+06 0 3.18423e+06 3.36842e+06 0 3.19047e+06 3.33687e+06 0 3.19629e+06 3.30552e+06 0 3.20173e+06 3.27438e+06 0 3.20679e+06 3.24346e+06 0 3.21148e+06 3.21276e+06 0 3.21582e+06 3.18229e+06 0 3.2198e+06 3.15205e+06 0 3.22345e+06 3.12205e+06 0 3.22677e+06 3.09229e+06 0 3.22977e+06 3.06276e+06 0 3.23247e+06 3.03349e+06 0 3.23488e+06 3.00446e+06 0 3.23699e+06 2.97568e+06 0 3.23883e+06 2.94716e+06 0 3.2404e+06 2.91889e+06 0 3.24171e+06 2.89087e+06 0 3.24277e+06 2.86312e+06 0 3.24359e+06 2.83562e+06 0 3.24418e+06 2.80838e+06 0 3.24454e+06 2.7814e+06 0 3.24469e+06 2.75467e+06 0 3.24463e+06 2.72821e+06 0 3.24438e+06 2.70201e+06 0 3.24393e+06 2.67607e+06 0 3.2433e+06 2.65039e+06 0 3.24249e+06 2.62497e+06 0 3.24151e+06 2.5998e+06 0 3.24037e+06 2.5749e+06 0 3.23907e+06 2.55025e+06 0 3.23763e+06 2.52585e+06 0 3.23604e+06 2.50171e+06 0 3.23432e+06 2.47782e+06 0 3.23246e+06 2.45418e+06 0 3.23049e+06 2.43079e+06 0 3.2284e+06 2.40765e+06 0 3.22619e+06 2.38476e+06 0 3.22388e+06 2.36211e+06 0 3.22147e+06 2.3397e+06 0 3.21896e+06 2.31754e+06 0 3.21636e+06 2.29561e+06 0 3.21367e+06 2.27392e+06 0 3.2109e+06 2.25246e+06 0 867424 4.95137e+06 0 895117 4.96468e+06 0 923970 4.97742e+06 0 953971 4.98949e+06 0 985085 5.00079e+06 0 1.01727e+06 5.01125e+06 0 1.05046e+06 5.02078e+06 0 1.0846e+06 5.02931e+06 0 1.11962e+06 5.03679e+06 0 1.15545e+06 5.04315e+06 0 1.19201e+06 5.04836e+06 0 1.22923e+06 5.05237e+06 0 1.26703e+06 5.05517e+06 0 1.30534e+06 5.05672e+06 0 1.34407e+06 5.05702e+06 0 1.38316e+06 5.05606e+06 0 1.42254e+06 5.05382e+06 0 1.46214e+06 5.05033e+06 0 1.50188e+06 5.04557e+06 0 1.54172e+06 5.03957e+06 0 1.58158e+06 5.03233e+06 0 1.62142e+06 5.02387e+06 0 1.66117e+06 5.01422e+06 0 1.70079e+06 5.00338e+06 0 1.74023e+06 4.99139e+06 0 1.77943e+06 4.97827e+06 0 1.81836e+06 4.96404e+06 0 1.85698e+06 4.94874e+06 0 1.89524e+06 4.93239e+06 0 1.93311e+06 4.91502e+06 0 1.97056e+06 4.89666e+06 0 2.00756e+06 4.87735e+06 0 2.04406e+06 4.85711e+06 0 2.08006e+06 4.83598e+06 0 2.11551e+06 4.81399e+06 0 2.15041e+06 4.79118e+06 0 2.18472e+06 4.76756e+06 0 2.21843e+06 4.74319e+06 0 2.25151e+06 4.71809e+06 0 2.28396e+06 4.6923e+06 0 2.31576e+06 4.66584e+06 0 2.34689e+06 4.63876e+06 0 2.37735e+06 4.61108e+06 0 2.40712e+06 4.58284e+06 0 2.4362e+06 4.55407e+06 0 2.46457e+06 4.52479e+06 0 2.49225e+06 4.49505e+06 0 2.51921e+06 4.46487e+06 0 2.54545e+06 4.43428e+06 0 2.57098e+06 4.40331e+06 0 2.5958e+06 4.37199e+06 0 2.6199e+06 4.34035e+06 0 2.64329e+06 4.30842e+06 0 2.66596e+06 4.27623e+06 0 2.68793e+06 4.24379e+06 0 2.70919e+06 4.21114e+06 0 2.72975e+06 4.1783e+06 0 2.74962e+06 4.14529e+06 0 2.7688e+06 4.11215e+06 0 2.78729e+06 4.07888e+06 0 2.80512e+06 4.04552e+06 0 2.82228e+06 4.01209e+06 0 2.83879e+06 3.9786e+06 0 2.85465e+06 3.94507e+06 0 2.86987e+06 3.91154e+06 0 2.88446e+06 3.878e+06 0 2.89844e+06 3.84449e+06 0 2.91181e+06 3.81101e+06 0 2.92459e+06 3.77759e+06 0 2.93678e+06 3.74424e+06 0 2.9484e+06 3.71097e+06 0 2.95946e+06 3.6778e+06 0 2.96998e+06 3.64474e+06 0 2.97995e+06 3.61181e+06 0 2.98941e+06 3.57902e+06 0 2.99835e+06 3.54637e+06 0 3.00679e+06 3.51388e+06 0 3.01474e+06 3.48157e+06 0 3.02222e+06 3.44943e+06 0 3.02924e+06 3.41748e+06 0 3.03581e+06 3.38572e+06 0 3.04194e+06 3.35417e+06 0 3.04764e+06 3.32284e+06 0 3.05293e+06 3.29172e+06 0 3.05781e+06 3.26082e+06 0 3.06231e+06 3.23016e+06 0 3.06643e+06 3.19974e+06 0 3.07019e+06 3.16956e+06 0 3.07358e+06 3.13962e+06 0 3.07664e+06 3.10993e+06 0 3.07936e+06 3.0805e+06 0 3.08176e+06 3.05133e+06 0 3.08386e+06 3.02242e+06 0 3.08565e+06 2.99377e+06 0 3.08715e+06 2.96538e+06 0 3.08838e+06 2.93727e+06 0 3.08933e+06 2.90942e+06 0 3.09003e+06 2.88185e+06 0 3.09048e+06 2.85454e+06 0 3.09069e+06 2.82751e+06 0 3.09067e+06 2.80076e+06 0 3.09043e+06 2.77427e+06 0 3.08998e+06 2.74807e+06 0 3.08932e+06 2.72213e+06 0 3.08847e+06 2.69647e+06 0 3.08743e+06 2.67108e+06 0 3.08622e+06 2.64597e+06 0 3.08483e+06 2.62112e+06 0 3.08328e+06 2.59655e+06 0 3.08158e+06 2.57225e+06 0 3.07973e+06 2.54821e+06 0 3.07773e+06 2.52444e+06 0 3.07561e+06 2.50094e+06 0 3.07335e+06 2.4777e+06 0 3.07098e+06 2.45472e+06 0 3.06849e+06 2.432e+06 0 3.06589e+06 2.40954e+06 0 3.06319e+06 2.38734e+06 0 3.06039e+06 2.36539e+06 0 3.0575e+06 2.34369e+06 0 3.05452e+06 2.32224e+06 0 3.05147e+06 2.30104e+06 0 3.04833e+06 2.28008e+06 0 3.04513e+06 2.25936e+06 0 3.04186e+06 2.23889e+06 0 3.03853e+06 2.21865e+06 0 3.03514e+06 2.19864e+06 0 3.0317e+06 2.17887e+06 0 893367 4.89412e+06 0 921135 4.90561e+06 0 949998 4.91648e+06 0 979925 4.92667e+06 0 1.01088e+06 4.93607e+06 0 1.04282e+06 4.94462e+06 0 1.0757e+06 4.95225e+06 0 1.10945e+06 4.95888e+06 0 1.14402e+06 4.96447e+06 0 1.17933e+06 4.96896e+06 0 1.21532e+06 4.9723e+06 0 1.2519e+06 4.97446e+06 0 1.28902e+06 4.97542e+06 0 1.32659e+06 4.97515e+06 0 1.36454e+06 4.97364e+06 0 1.4028e+06 4.97088e+06 0 1.4413e+06 4.96687e+06 0 1.47997e+06 4.9616e+06 0 1.51875e+06 4.95509e+06 0 1.55757e+06 4.94734e+06 0 1.59638e+06 4.93837e+06 0 1.63511e+06 4.92819e+06 0 1.67371e+06 4.91683e+06 0 1.71213e+06 4.9043e+06 0 1.75032e+06 4.89063e+06 0 1.78823e+06 4.87585e+06 0 1.82582e+06 4.85998e+06 0 1.86305e+06 4.84305e+06 0 1.89987e+06 4.8251e+06 0 1.93626e+06 4.80615e+06 0 1.97217e+06 4.78624e+06 0 2.00758e+06 4.7654e+06 0 2.04245e+06 4.74367e+06 0 2.07676e+06 4.72107e+06 0 2.11049e+06 4.69765e+06 0 2.14361e+06 4.67344e+06 0 2.1761e+06 4.64847e+06 0 2.20794e+06 4.62278e+06 0 2.23912e+06 4.5964e+06 0 2.26962e+06 4.56937e+06 0 2.29943e+06 4.54173e+06 0 2.32853e+06 4.51351e+06 0 2.35693e+06 4.48473e+06 0 2.3846e+06 4.45545e+06 0 2.41155e+06 4.42569e+06 0 2.43776e+06 4.39547e+06 0 2.46325e+06 4.36485e+06 0 2.48799e+06 4.33384e+06 0 2.512e+06 4.30248e+06 0 2.53527e+06 4.2708e+06 0 2.5578e+06 4.23882e+06 0 2.5796e+06 4.20658e+06 0 2.60068e+06 4.17411e+06 0 2.62102e+06 4.14143e+06 0 2.64065e+06 4.10858e+06 0 2.65957e+06 4.07556e+06 0 2.67778e+06 4.04242e+06 0 2.69529e+06 4.00917e+06 0 2.71211e+06 3.97584e+06 0 2.72826e+06 3.94245e+06 0 2.74373e+06 3.90902e+06 0 2.75854e+06 3.87558e+06 0 2.7727e+06 3.84213e+06 0 2.78623e+06 3.80871e+06 0 2.79913e+06 3.77533e+06 0 2.81141e+06 3.74201e+06 0 2.82309e+06 3.70877e+06 0 2.83418e+06 3.67561e+06 0 2.84469e+06 3.64256e+06 0 2.85464e+06 3.60963e+06 0 2.86404e+06 3.57684e+06 0 2.87289e+06 3.54419e+06 0 2.88123e+06 3.5117e+06 0 2.88905e+06 3.47939e+06 0 2.89637e+06 3.44725e+06 0 2.9032e+06 3.41531e+06 0 2.90957e+06 3.38356e+06 0 2.91547e+06 3.35203e+06 0 2.92093e+06 3.32072e+06 0 2.92596e+06 3.28963e+06 0 2.93057e+06 3.25878e+06 0 2.93477e+06 3.22816e+06 0 2.93858e+06 3.1978e+06 0 2.94201e+06 3.16768e+06 0 2.94506e+06 3.13782e+06 0 2.94777e+06 3.10822e+06 0 2.95012e+06 3.07889e+06 0 2.95215e+06 3.04983e+06 0 2.95386e+06 3.02104e+06 0 2.95525e+06 2.99252e+06 0 2.95635e+06 2.96428e+06 0 2.95717e+06 2.93633e+06 0 2.95771e+06 2.90865e+06 0 2.95798e+06 2.88126e+06 0 2.958e+06 2.85415e+06 0 2.95778e+06 2.82733e+06 0 2.95733e+06 2.80079e+06 0 2.95665e+06 2.77454e+06 0 2.95575e+06 2.74858e+06 0 2.95465e+06 2.7229e+06 0 2.95336e+06 2.69751e+06 0 2.95188e+06 2.6724e+06 0 2.95022e+06 2.64758e+06 0 2.94839e+06 2.62304e+06 0 2.9464e+06 2.59878e+06 0 2.94426e+06 2.5748e+06 0 2.94197e+06 2.5511e+06 0 2.93954e+06 2.52768e+06 0 2.93698e+06 2.50454e+06 0 2.9343e+06 2.48167e+06 0 2.93149e+06 2.45907e+06 0 2.92858e+06 2.43674e+06 0 2.92557e+06 2.41468e+06 0 2.92246e+06 2.39289e+06 0 2.91925e+06 2.37135e+06 0 2.91596e+06 2.35008e+06 0 2.91259e+06 2.32906e+06 0 2.90914e+06 2.3083e+06 0 2.90563e+06 2.2878e+06 0 2.90204e+06 2.26754e+06 0 2.8984e+06 2.24753e+06 0 2.89471e+06 2.22776e+06 0 2.89096e+06 2.20824e+06 0 2.88717e+06 2.18895e+06 0 2.88334e+06 2.1699e+06 0 2.87947e+06 2.15109e+06 0 2.87556e+06 2.1325e+06 0 2.87163e+06 2.11414e+06 0 914742 4.83972e+06 0 942559 4.84956e+06 0 971391 4.85875e+06 0 1.00122e+06 4.86723e+06 0 1.032e+06 4.87492e+06 0 1.0637e+06 4.88174e+06 0 1.09627e+06 4.88763e+06 0 1.12965e+06 4.89253e+06 0 1.16378e+06 4.89638e+06 0 1.19859e+06 4.89914e+06 0 1.23402e+06 4.90076e+06 0 1.27e+06 4.90122e+06 0 1.30645e+06 4.90048e+06 0 1.34331e+06 4.89852e+06 0 1.3805e+06 4.89534e+06 0 1.41795e+06 4.89091e+06 0 1.45559e+06 4.88524e+06 0 1.49336e+06 4.87834e+06 0 1.53