<?xml version="1.0"?> 
<VTKFile type="StructuredGrid" version="0.1"> 
<StructuredGrid WholeExtent="0 127 0 127 0 0"> 
<Piece Extent="0 127 0 127 0 0"> 
<PointData>
<DataArray type="Float32" Name="E" format="ascii" NumberOfComponents="3"> 
-4.35663e+06 5.02985e-06 0 -4.4156e+06 49251.5 0 -4.47419e+06 100109 0 -4.53224e+06 152579 0 -4.58964e+06 206663 0 -4.64633e+06 262360 0 -4.70224e+06 319670 0 -4.75732e+06 378589 0 -4.81152e+06 439111 0 -4.86478e+06 501231 0 -4.91706e+06 564941 0 -4.9683e+06 630229 0 -5.01846e+06 697086 0 -5.06749e+06 765498 0 -5.11533e+06 835450 0 -5.16193e+06 906925 0 -5.20726e+06 979907 0 -5.25125e+06 1.05437e+06 0 -5.29387e+06 1.1303e+06 0 -5.33505e+06 1.20767e+06 0 -5.37475e+06 1.28646e+06 0 -5.41293e+06 1.36663e+06 0 -5.44954e+06 1.44816e+06 0 -5.48452e+06 1.53101e+06 0 -5.51784e+06 1.61516e+06 0 -5.54944e+06 1.70057e+06 0 -5.57929e+06 1.7872e+06 0 -5.60733e+06 1.87501e+06 0 -5.63352e+06 1.96397e+06 0 -5.65782e+06 2.05402e+06 0 -5.68019e+06 2.14513e+06 0 -5.70058e+06 2.23724e+06 0 -5.71897e+06 2.33032e+06 0 -5.7353e+06 2.4243e+06 0 -5.74954e+06 2.51914e+06 0 -5.76165e+06 2.61479e+06 0 -5.77161e+06 2.71118e+06 0 -5.77938e+06 2.80826e+06 0 -5.78492e+06 2.90597e+06 0 -5.78822e+06 3.00426e+06 0 -5.78923e+06 3.10305e+06 0 -5.78794e+06 3.20229e+06 0 -5.78432e+06 3.3019e+06 0 -5.77835e+06 3.40183e+06 0 -5.77002e+06 3.502e+06 0 -5.7593e+06 3.60235e+06 0 -5.74618e+06 3.70281e+06 0 -5.73064e+06 3.8033e+06 0 -5.71269e+06 3.90375e+06 0 -5.6923e+06 4.0041e+06 0 -5.66948e+06 4.10425e+06 0 -5.64423e+06 4.20415e+06 0 -5.61653e+06 4.30372e+06 0 -5.5864e+06 4.40288e+06 0 -5.55385e+06 4.50155e+06 0 -5.51887e+06 4.59967e+06 0 -5.48148e+06 4.69714e+06 0 -5.4417e+06 4.79391e+06 0 -5.39953e+06 4.88989e+06 0 -5.35501e+06 4.985e+06 0 -5.30814e+06 5.07918e+06 0 -5.25896e+06 5.17234e+06 0 -5.20749e+06 5.26441e+06 0 -5.15376e+06 5.35532e+06 0 -5.09781e+06 5.445e+06 0 -5.03966e+06 5.53338e+06 0 -4.97936e+06 5.62037e+06 0 -4.91694e+06 5.70593e+06 0 -4.85245e+06 5.78997e+06 0 -4.78593e+06 5.87242e+06 0 -4.71743e+06 5.95324e+06 0 -4.647e+06 6.03234e+06 0 -4.57469e+06 6.10967e+06 0 -4.50054e+06 6.18516e+06 0 -4.42463e+06 6.25877e+06 0 -4.347e+06 6.33042e+06 0 -4.26771e+06 6.40007e+06 0 -4.18683e+06 6.46766e+06 0 -4.10441e+06 6.53315e+06 0 -4.02053e+06 6.59648e+06 0 -3.93524e+06 6.6576e+06 0 -3.84861e+06 6.71647e+06 0 -3.76071e+06 6.77305e+06 0 -3.67161e+06 6.8273e+06 0 -3.58137e+06 6.87918e+06 0 -3.49008e+06 6.92865e+06 0 -3.3978e+06 6.97567e+06 0 -3.30459e+06 7.02023e+06 0 -3.21055e+06 7.06228e+06 0 -3.11573e+06 7.10179e+06 0 -3.02021e+06 7.13875e+06 0 -2.92407e+06 7.17313e+06 0 -2.82738e+06 7.20491e+06 0 -2.73021e+06 7.23406e+06 0 -2.63264e+06 7.26057e+06 0 -2.53474e+06 7.28442e+06 0 -2.43659e+06 7.30559e+06 0 -2.33826e+06 7.32408e+06 0 -2.23982e+06 7.33986e+06 0 -2.14135e+06 7.35294e+06 0 -2.04292e+06 7.36328e+06 0 -1.9446e+06 7.3709e+06 0 -1.84646e+06 7.37577e+06 0 -1.74858e+06 7.37788e+06 0 -1.65102e+06 7.37723e+06 0 -1.55386e+06 7.37381e+06 0 -1.45716e+06 7.3676e+06 0 -1.361e+06 7.35859e+06 0 -1.26544e+06 7.34677e+06 0 -1.17056e+06 7.33211e+06 0 -1.07642e+06 7.3146e+06 0 -983082 7.2942e+06 0 -890626 7.27089e+06 0 -799116 7.24463e+06 0 -708621 7.21535e+06 0 -619211 7.18301e+06 0 -530957 7.14752e+06 0 -443934 7.10878e+06 0 -358216 7.06666e+06 0 -273885 7.02099e+06 0 -191027 6.97153e+06 0 -109738 6.91798e+06 0 -30125.5 6.85989e+06 0 47679.3 6.79658e+06 0 123508 6.7269e+06 0 197111 6.64874e+06 0 268049 6.55762e+06 0 335365 6.44292e+06 0 -4.26874e+06 165587 0 -4.32445e+06 213063 0 -4.37959e+06 262001 0 -4.43412e+06 312427 0 -4.48801e+06 364361 0 -4.5412e+06 417815 0 -4.59365e+06 472794 0 -4.64531e+06 529301 0 -4.69613e+06 587335 0 -4.74606e+06 646894 0 -4.79505e+06 707972 0 -4.84306e+06 770561 0 -4.89004e+06 834653 0 -4.93593e+06 900237 0 -4.98069e+06 967299 0 -5.02427e+06 1.03582e+06 0 -5.06663e+06 1.1058e+06 0 -5.10771e+06 1.1772e+06 0 -5.14746e+06 1.25001e+06 0 -5.18585e+06 1.3242e+06 0 -5.22281e+06 1.39976e+06 0 -5.2583e+06 1.47664e+06 0 -5.29228e+06 1.55484e+06 0 -5.32469e+06 1.63431e+06 0 -5.35549e+06 1.71502e+06 0 -5.38464e+06 1.79695e+06 0 -5.41209e+06 1.88004e+06 0 -5.4378e+06 1.96427e+06 0 -5.46171e+06 2.04959e+06 0 -5.4838e+06 2.13596e+06 0 -5.50401e+06 2.22334e+06 0 -5.52231e+06 2.31168e+06 0 -5.53865e+06 2.40093e+06 0 -5.55301e+06 2.49104e+06 0 -5.56534e+06 2.58196e+06 0 -5.57561e+06 2.67363e+06 0 -5.58378e+06 2.766e+06 0 -5.58983e+06 2.85902e+06 0 -5.59372e+06 2.95261e+06 0 -5.59542e+06 3.04672e+06 0 -5.59492e+06 3.14129e+06 0 -5.59218e+06 3.23625e+06 0 -5.58718e+06 3.33154e+06 0 -5.57991e+06 3.42709e+06 0 -5.57034e+06 3.52283e+06 0 -5.55847e+06 3.61869e+06 0 -5.54428e+06 3.7146e+06 0 -5.52776e+06 3.81049e+06 0 -5.5089e+06 3.90629e+06 0 -5.48769e+06 4.00193e+06 0 -5.46415e+06 4.09732e+06 0 -5.43826e+06 4.1924e+06 0 -5.41003e+06 4.28709e+06 0 -5.37947e+06 4.38132e+06 0 -5.34658e+06 4.47501e+06 0 -5.31139e+06 4.56809e+06 0 -5.27389e+06 4.66048e+06 0 -5.23411e+06 4.7521e+06 0 -5.19208e+06 4.84289e+06 0 -5.14781e+06 4.93276e+06 0 -5.10132e+06 5.02165e+06 0 -5.05266e+06 5.10949e+06 0 -5.00184e+06 5.19619e+06 0 -4.94891e+06 5.2817e+06 0 -4.8939e+06 5.36593e+06 0 -4.83685e+06 5.44883e+06 0 -4.77779e+06 5.53033e+06 0 -4.71679e+06 5.61036e+06 0 -4.65387e+06 5.68885e+06 0 -4.5891e+06 5.76575e+06 0 -4.52251e+06 5.84099e+06 0 -4.45417e+06 5.91452e+06 0 -4.38413e+06 5.98628e+06 0 -4.31244e+06 6.05621e+06 0 -4.23916e+06 6.12427e+06 0 -4.16436e+06 6.19039e+06 0 -4.0881e+06 6.25454e+06 0 -4.01043e+06 6.31666e+06 0 -3.93143e+06 6.37672e+06 0 -3.85116e+06 6.43467e+06 0 -3.76968e+06 6.49047e+06 0 -3.68707e+06 6.54409e+06 0 -3.60339e+06 6.59548e+06 0 -3.51872e+06 6.64462e+06 0 -3.43311e+06 6.69148e+06 0 -3.34665e+06 6.73603e+06 0 -3.25941e+06 6.77824e+06 0 -3.17145e+06 6.81809e+06 0 -3.08286e+06 6.85555e+06 0 -2.99369e+06 6.89062e+06 0 -2.90403e+06 6.92326e+06 0 -2.81395e+06 6.95347e+06 0 -2.72351e+06 6.98124e+06 0 -2.6328e+06 7.00654e+06 0 -2.54188e+06 7.02938e+06 0 -2.45082e+06 7.04973e+06 0 -2.3597e+06 7.0676e+06 0 -2.2686e+06 7.08298e+06 0 -2.17757e+06 7.09586e+06 0 -2.0867e+06 7.10625e+06 0 -1.99604e+06 7.11413e+06 0 -1.90569e+06 7.11951e+06 0 -1.81569e+06 7.12238e+06 0 -1.72613e+06 7.12274e+06 0 -1.63708e+06 7.1206e+06 0 -1.5486e+06 7.11595e+06 0 -1.46078e+06 7.10878e+06 0 -1.37367e+06 7.0991e+06 0 -1.28736e+06 7.0869e+06 0 -1.20191e+06 7.07217e+06 0 -1.11742e+06 7.05491e+06 0 -1.03395e+06 7.0351e+06 0 -951587 7.01273e+06 0 -870424 6.98777e+06 0 -790553 6.9602e+06 0 -712079 6.93e+06 0 -635117 6.89711e+06 0 -559796 6.86149e+06 0 -486268 6.82307e+06 0 -414715 6.78179e+06 0 -345358 6.73755e+06 0 -278478 6.69026e+06 0 -214438 6.63981e+06 0 -153725 6.58609e+06 0 -96991.9 6.52908e+06 0 -45095.4 6.46892e+06 0 945.158 6.40631e+06 0 40425.6 6.34344e+06 0 -4.18387e+06 317801 0 -4.23635e+06 363321 0 -4.28827e+06 410266 0 -4.33959e+06 458649 0 -4.39029e+06 508479 0 -4.44031e+06 559763 0 -4.48962e+06 612508 0 -4.53817e+06 666715 0 -4.58591e+06 722386 0 -4.63281e+06 779517 0 -4.67882e+06 838106 0 -4.72388e+06 898147 0 -4.76796e+06 959631 0 -4.811e+06 1.02255e+06 0 -4.85297e+06 1.08689e+06 0 -4.8938e+06 1.15264e+06 0 -4.93345e+06 1.21978e+06 0 -4.97188e+06 1.2883e+06 0 -5.00904e+06 1.35818e+06 0 -5.04488e+06 1.42939e+06 0 -5.07935e+06 1.50191e+06 0 -5.11241e+06 1.57571e+06 0 -5.14401e+06 1.65078e+06 0 -5.17409e+06 1.72707e+06 0 -5.20263e+06 1.80456e+06 0 -5.22956e+06 1.88321e+06 0 -5.25485e+06 1.96299e+06 0 -5.27845e+06 2.04386e+06 0 -5.30032e+06 2.12578e+06 0 -5.32041e+06 2.2087e+06 0 -5.3387e+06 2.29259e+06 0 -5.35512e+06 2.37739e+06 0 -5.36965e+06 2.46305e+06 0 -5.38226e+06 2.54954e+06 0 -5.39289e+06 2.63678e+06 0 -5.40152e+06 2.72474e+06 0 -5.40813e+06 2.81335e+06 0 -5.41266e+06 2.90256e+06 0 -5.41511e+06 2.9923e+06 0 -5.41543e+06 3.08251e+06 0 -5.41361e+06 3.17314e+06 0 -5.40963e+06 3.26411e+06 0 -5.40345e+06 3.35537e+06 0 -5.39508e+06 3.44683e+06 0 -5.38448e+06 3.53844e+06 0 -5.37165e+06 3.63013e+06 0 -5.35658e+06 3.72182e+06 0 -5.33925e+06 3.81344e+06 0 -5.31968e+06 3.90492e+06 0 -5.29784e+06 3.99619e+06 0 -5.27375e+06 4.08717e+06 0 -5.2474e+06 4.1778e+06 0 -5.21881e+06 4.26798e+06 0 -5.18799e+06 4.35766e+06 0 -5.15493e+06 4.44676e+06 0 -5.11967e+06 4.5352e+06 0 -5.08222e+06 4.62291e+06 0 -5.0426e+06 4.70981e+06 0 -5.00083e+06 4.79584e+06 0 -4.95694e+06 4.88092e+06 0 -4.91096e+06 4.96498e+06 0 -4.86293e+06 5.04795e+06 0 -4.81287e+06 5.12976e+06 0 -4.76083e+06 5.21035e+06 0 -4.70684e+06 5.28964e+06 0 -4.65095e+06 5.36758e+06 0 -4.59321e+06 5.4441e+06 0 -4.53366e+06 5.51913e+06 0 -4.47234e+06 5.59263e+06 0 -4.40932e+06 5.66453e+06 0 -4.34465e+06 5.73477e+06 0 -4.27838e+06 5.8033e+06 0 -4.21057e+06 5.87008e+06 0 -4.14129e+06 5.93504e+06 0 -4.07058e+06 5.99816e+06 0 -3.99851e+06 6.05937e+06 0 -3.92515e+06 6.11864e+06 0 -3.85057e+06 6.17593e+06 0 -3.77482e+06 6.2312e+06 0 -3.69798e+06 6.28441e+06 0 -3.62011e+06 6.33554e+06 0 -3.54128e+06 6.38455e+06 0 -3.46156e+06 6.43142e+06 0 -3.38102e+06 6.47612e+06 0 -3.29974e+06 6.51862e+06 0 -3.21777e+06 6.55892e+06 0 -3.1352e+06 6.59698e+06 0 -3.0521e+06 6.63279e+06 0 -2.96852e+06 6.66634e+06 0 -2.88455e+06 6.69761e+06 0 -2.80026e+06 6.72661e+06 0 -2.71572e+06 6.75331e+06 0 -2.63099e+06 6.77771e+06 0 -2.54615e+06 6.79981e+06 0 -2.46127e+06 6.81961e+06 0 -2.37642e+06 6.83711e+06 0 -2.29166e+06 6.8523e+06 0 -2.20707e+06 6.86519e+06 0 -2.12271e+06 6.87578e+06 0 -2.03866e+06 6.88407e+06 0 -1.95498e+06 6.89008e+06 0 -1.87175e+06 6.89381e+06 0 -1.78902e+06 6.89526e+06 0 -1.70687e+06 6.89444e+06 0 -1.62537e+06 6.89137e+06 0 -1.54458e+06 6.88604e+06 0 -1.46458e+06 6.87848e+06 0 -1.38544e+06 6.86868e+06 0 -1.30724e+06 6.85666e+06 0 -1.23004e+06 6.84243e+06 0 -1.15393e+06 6.82599e+06 0 -1.079e+06 6.80736e+06 0 -1.00531e+06 6.78654e+06 0 -932976 6.76353e+06 0 -862088 6.73836e+06 0 -792753 6.71102e+06 0 -725091 6.68154e+06 0 -659232 6.64992e+06 0 -595322 6.61619e+06 0 -533527 6.58038e+06 0 -474031 6.54254e+06 0 -417046 6.50274e+06 0 -362800 6.46109e+06 0 -311545 6.41776e+06 0 -263532 6.37299e+06 0 -219010 6.32711e+06 0 -178244 6.2805e+06 0 -141747 6.23339e+06 0 -4.10205e+06 457502 0 -4.15151e+06 501141 0 -4.20043e+06 546163 0 -4.24879e+06 592575 0 -4.29655e+06 640383 0 -4.34366e+06 689591 0 -4.39009e+06 740205 0 -4.43579e+06 792225 0 -4.48073e+06 845652 0 -4.52486e+06 900486 0 -4.56814e+06 956722 0 -4.61051e+06 1.01436e+06 0 -4.65195e+06 1.07338e+06 0 -4.69239e+06 1.13379e+06 0 -4.73179e+06 1.19556e+06 0 -4.77012e+06 1.2587e+06 0 -4.80731e+06 1.32318e+06 0 -4.84333e+06 1.38899e+06 0 -4.87812e+06 1.45611e+06 0 -4.91164e+06 1.52451e+06 0 -4.94385e+06 1.59418e+06 0 -4.97469e+06 1.66509e+06 0 -5.00412e+06 1.73722e+06 0 -5.0321e+06 1.81053e+06 0 -5.05858e+06 1.88499e+06 0 -5.0835e+06 1.96058e+06 0 -5.10684e+06 2.03724e+06 0 -5.12854e+06 2.11496e+06 0 -5.14857e+06 2.19368e+06 0 -5.16687e+06 2.27337e+06 0 -5.18342e+06 2.35398e+06 0 -5.19816e+06 2.43546e+06 0 -5.21107e+06 2.51777e+06 0 -5.22211e+06 2.60086e+06 0 -5.23124e+06 2.68466e+06 0 -5.23843e+06 2.76914e+06 0 -5.24364e+06 2.85423e+06 0 -5.24685e+06 2.93988e+06 0 -5.24803e+06 3.02602e+06 0 -5.24715e+06 3.11259e+06 0 -5.24419e+06 3.19954e+06 0 -5.23913e+06 3.28679e+06 0 -5.23195e+06 3.37428e+06 0 -5.22264e+06 3.46194e+06 0 -5.21118e+06 3.5497e+06 0 -5.19756e+06 3.6375e+06 0 -5.18176e+06 3.72526e+06 0 -5.1638e+06 3.81291e+06 0 -5.14366e+06 3.90038e+06 0 -5.12134e+06 3.9876e+06 0 -5.09685e+06 4.0745e+06 0 -5.0702e+06 4.16099e+06 0 -5.04139e+06 4.24701e+06 0 -5.01043e+06 4.33249e+06 0 -4.97734e+06 4.41735e+06 0 -4.94214e+06 4.50151e+06 0 -4.90485e+06 4.58491e+06 0 -4.8655e+06 4.66748e+06 0 -4.8241e+06 4.74914e+06 0 -4.7807e+06 4.82982e+06 0 -4.73531e+06 4.90946e+06 0 -4.68799e+06 4.98798e+06 0 -4.63877e+06 5.06533e+06 0 -4.58768e+06 5.14144e+06 0 -4.53477e+06 5.21623e+06 0 -4.48009e+06 5.28966e+06 0 -4.42369e+06 5.36167e+06 0 -4.36561e+06 5.43219e+06 0 -4.30591e+06 5.50117e+06 0 -4.24464e+06 5.56855e+06 0 -4.18186e+06 5.63429e+06 0 -4.11762e+06 5.69834e+06 0 -4.05199e+06 5.76065e+06 0 -3.98503e+06 5.82118e+06 0 -3.9168e+06 5.87988e+06 0 -3.84737e+06 5.93672e+06 0 -3.77679e+06 5.99165e+06 0 -3.70514e+06 6.04466e+06 0 -3.63248e+06 6.09569e+06 0 -3.55889e+06 6.14474e+06 0 -3.48442e+06 6.19176e+06 0 -3.40914e+06 6.23673e+06 0 -3.33314e+06 6.27964e+06 0 -3.25647e+06 6.32047e+06 0 -3.1792e+06 6.35919e+06 0 -3.10141e+06 6.3958e+06 0 -3.02316e+06 6.43028e+06 0 -2.94453e+06 6.46262e+06 0 -2.86559e+06 6.49282e+06 0 -2.78639e+06 6.52087e+06 0 -2.70702e+06 6.54677e+06 0 -2.62754e+06 6.57052e+06 0 -2.54802e+06 6.59211e+06 0 -2.46852e+06 6.61156e+06 0 -2.38912e+06 6.62886e+06 0 -2.30988e+06 6.64402e+06 0 -2.23087e+06 6.65706e+06 0 -2.15215e+06 6.66797e+06 0 -2.07379e+06 6.67677e+06 0 -1.99585e+06 6.68347e+06 0 -1.9184e+06 6.68809e+06 0 -1.84151e+06 6.69063e+06 0 -1.76524e+06 6.69113e+06 0 -1.68965e+06 6.68958e+06 0 -1.61481e+06 6.68601e+06 0 -1.54079e+06 6.68045e+06 0 -1.46765e+06 6.6729e+06 0 -1.39546e+06 6.66339e+06 0 -1.32429e+06 6.65194e+06 0 -1.25421e+06 6.63858e+06 0 -1.18528e+06 6.62334e+06 0 -1.1176e+06 6.60623e+06 0 -1.05123e+06 6.58728e+06 0 -986255 6.56654e+06 0 -922762 6.54404e+06 0 -860840 6.51981e+06 0 -800583 6.49391e+06 0 -742091 6.46639e+06 0 -685469 6.43732e+06 0 -630826 6.40677e+06 0 -578275 6.37484e+06 0 -527928 6.34164e+06 0 -479896 6.3073e+06 0 -434282 6.27199e+06 0 -391177 6.23589e+06 0 -350641 6.19918e+06 0 -312659 6.16212e+06 0 -276968 6.12504e+06 0 -4.02328e+06 585794 0 -4.06994e+06 627654 0 -4.11609e+06 670849 0 -4.16171e+06 715385 0 -4.20676e+06 761268 0 -4.25119e+06 808503 0 -4.29497e+06 857093 0 -4.33806e+06 907040 0 -4.38042e+06 958344 0 -4.42201e+06 1.011e+06 0 -4.46278e+06 1.06502e+06 0 -4.50269e+06 1.12038e+06 0 -4.5417e+06 1.17709e+06 0 -4.57976e+06 1.23513e+06 0 -4.61682e+06 1.29449e+06 0 -4.65285e+06 1.35517e+06 0 -4.68779e+06 1.41714e+06 0 -4.7216e+06 1.4804e+06 0 -4.75423e+06 1.54492e+06 0 -4.78564e+06 1.61069e+06 0 -4.81578e+06 1.67769e+06 0 -4.8446e+06 1.74588e+06 0 -4.87206e+06 1.81524e+06 0 -4.89812e+06 1.88575e+06 0 -4.92272e+06 1.95737e+06 0 -4.94582e+06 2.03007e+06 0 -4.96739e+06 2.10382e+06 0 -4.98737e+06 2.17857e+06 0 -5.00573e+06 2.2543e+06 0 -5.02242e+06 2.33095e+06 0 -5.0374e+06 2.40848e+06 0 -5.05064e+06 2.48686e+06 0 -5.06209e+06 2.56602e+06 0 -5.07173e+06 2.64592e+06 0 -5.07952e+06 2.7265e+06 0 -5.08542e+06 2.80772e+06 0 -5.0894e+06 2.88952e+06 0 -5.09144e+06 2.97183e+06 0 -5.09151e+06 3.0546e+06 0 -5.08958e+06 3.13777e+06 0 -5.08563e+06 3.22127e+06 0 -5.07965e+06 3.30504e+06 0 -5.07161e+06 3.38901e+06 0 -5.06151e+06 3.47312e+06 0 -5.04932e+06 3.5573e+06 0 -5.03504e+06 3.64147e+06 0 -5.01867e+06 3.72558e+06 0 -5.0002e+06 3.80953e+06 0 -4.97962e+06 3.89328e+06 0 -4.95695e+06 3.97674e+06 0 -4.93219e+06 4.05984e+06 0 -4.90534e+06 4.1425e+06 0 -4.87642e+06 4.22467e+06 0 -4.84544e+06 4.30625e+06 0 -4.81243e+06 4.38719e+06 0 -4.77739e+06 4.46741e+06 0 -4.74036e+06 4.54684e+06 0 -4.70136e+06 4.62541e+06 0 -4.66042e+06 4.70306e+06 0 -4.61757e+06 4.7797e+06 0 -4.57285e+06 4.85529e+06 0 -4.5263e+06 4.92974e+06 0 -4.47796e+06 5.00301e+06 0 -4.42787e+06 5.07502e+06 0 -4.37607e+06 5.14572e+06 0 -4.32262e+06 5.21505e+06 0 -4.26757e+06 5.28295e+06 0 -4.21096e+06 5.34938e+06 0 -4.15286e+06 5.41427e+06 0 -4.09332e+06 5.47758e+06 0 -4.03239e+06 5.53926e+06 0 -3.97014e+06 5.59928e+06 0 -3.90662e+06 5.65757e+06 0 -3.84191e+06 5.71412e+06 0 -3.77607e+06 5.76888e+06 0 -3.70915e+06 5.82181e+06 0 -3.64122e+06 5.87289e+06 0 -3.57236e+06 5.92209e+06 0 -3.50263e+06 5.96937e+06 0 -3.43209e+06 6.01473e+06 0 -3.36082e+06 6.05813e+06 0 -3.28889e+06 6.09956e+06 0 -3.21635e+06 6.139e+06 0 -3.14328e+06 6.17644e+06 0 -3.06976e+06 6.21187e+06 0 -2.99584e+06 6.24529e+06 0 -2.92159e+06 6.27668e+06 0 -2.84709e+06 6.30604e+06 0 -2.7724e+06 6.33337e+06 0 -2.69759e+06 6.35867e+06 0 -2.62272e+06 6.38195e+06 0 -2.54787e+06 6.40321e+06 0 -2.47309e+06 6.42246e+06 0 -2.39845e+06 6.4397e+06 0 -2.32401e+06 6.45495e+06 0 -2.24985e+06 6.46822e+06 0 -2.17601e+06 6.47952e+06 0 -2.10257e+06 6.48887e+06 0 -2.02959e+06 6.49629e+06 0 -1.95712e+06 6.5018e+06 0 -1.88523e+06 6.5054e+06 0 -1.81398e+06 6.50714e+06 0 -1.74342e+06 6.50703e+06 0 -1.67362e+06 6.50509e+06 0 -1.60464e+06 6.50136e+06 0 -1.53654e+06 6.49585e+06 0 -1.46937e+06 6.4886e+06 0 -1.4032e+06 6.47964e+06 0 -1.33809e+06 6.46901e+06 0 -1.2741e+06 6.45673e+06 0 -1.21129e+06 6.44284e+06 0 -1.14972e+06 6.42739e+06 0 -1.08946e+06 6.41042e+06 0 -1.03057e+06 6.39197e+06 0 -973111 6.3721e+06 0 -917160 6.35086e+06 0 -862777 6.32832e+06 0 -810030 6.30454e+06 0 -758983 6.2796e+06 0 -709700 6.25359e+06 0 -662239 6.2266e+06 0 -616655 6.19874e+06 0 -572994 6.17011e+06 0 -531290 6.14084e+06 0 -491564 6.11107e+06 0 -453826 6.08094e+06 0 -418089 6.05057e+06 0 -384472 6.02006e+06 0 -3.94755e+06 703742 0 -3.99161e+06 743915 0 -4.0352e+06 785378 0 -4.07828e+06 828137 0 -4.12082e+06 872197 0 -4.16278e+06 917563 0 -4.20412e+06 964238 0 -4.2448e+06 1.01222e+06 0 -4.28478e+06 1.06152e+06 0 -4.32403e+06 1.11213e+06 0 -4.3625e+06 1.16405e+06 0 -4.40014e+06 1.21727e+06 0 -4.43692e+06 1.27179e+06 0 -4.47279e+06 1.3276e+06 0 -4.5077e+06 1.38469e+06 0 -4.54162e+06 1.44305e+06 0 -4.57449e+06 1.50267e+06 0 -4.60628e+06 1.56353e+06 0 -4.63693e+06 1.62561e+06 0 -4.6664e+06 1.6889e+06 0 -4.69465e+06 1.75337e+06 0 -4.72162e+06 1.81901e+06 0 -4.74728e+06 1.88577e+06 0 -4.77158e+06 1.95365e+06 0 -4.79448e+06 2.0226e+06 0 -4.81592e+06 2.09259e+06 0 -4.83588e+06 2.1636e+06 0 -4.8543e+06 2.23557e+06 0 -4.87114e+06 2.30848e+06 0 -4.88637e+06 2.38228e+06 0 -4.89994e+06 2.45693e+06 0 -4.91182e+06 2.53238e+06 0 -4.92196e+06 2.60859e+06 0 -4.93035e+06 2.6855e+06 0 -4.93693e+06 2.76306e+06 0 -4.94168e+06 2.84123e+06 0 -4.94457e+06 2.91993e+06 0 -4.94558e+06 2.99912e+06 0 -4.94467e+06 3.07874e+06 0 -4.94182e+06 3.15872e+06 0 -4.93702e+06 3.239e+06 0 -4.93024e+06 3.31951e+06 0 -4.92147e+06 3.4002e+06 0 -4.91069e+06 3.48099e+06 0 -4.8979e+06 3.56182e+06 0 -4.88309e+06 3.64262e+06 0 -4.86625e+06 3.72331e+06 0 -4.84738e+06 3.80383e+06 0 -4.82648e+06 3.8841e+06 0 -4.80356e+06 3.96406e+06 0 -4.77862e+06 4.04363e+06 0 -4.75168e+06 4.12275e+06 0 -4.72274e+06 4.20133e+06 0 -4.69183e+06 4.27932e+06 0 -4.65897e+06 4.35663e+06 0 -4.62418e+06 4.43321e+06 0 -4.58747e+06 4.50897e+06 0 -4.5489e+06 4.58386e+06 0 -4.50847e+06 4.65781e+06 0 -4.46624e+06 4.73074e+06 0 -4.42223e+06 4.8026e+06 0 -4.3765e+06 4.87332e+06 0 -4.32907e+06 4.94285e+06 0 -4.28e+06 5.01112e+06 0 -4.22933e+06 5.07808e+06 0 -4.17712e+06 5.14367e+06 0 -4.12341e+06 5.20785e+06 0 -4.06826e+06 5.27055e+06 0 -4.01173e+06 5.33173e+06 0 -3.95387e+06 5.39136e+06 0 -3.89475e+06 5.44937e+06 0 -3.83442e+06 5.50575e+06 0 -3.77295e+06 5.56043e+06 0 -3.7104e+06 5.61341e+06 0 -3.64684e+06 5.66463e+06 0 -3.58232e+06 5.71407e+06 0 -3.51692e+06 5.76171e+06 0 -3.4507e+06 5.80751e+06 0 -3.38373e+06 5.85147e+06 0 -3.31608e+06 5.89356e+06 0 -3.24781e+06 5.93376e+06 0 -3.179e+06 5.97207e+06 0 -3.1097e+06 6.00847e+06 0 -3.04e+06 6.04295e+06 0 -2.96994e+06 6.07551e+06 0 -2.89961e+06 6.10615e+06 0 -2.82906e+06 6.13487e+06 0 -2.75837e+06 6.16166e+06 0 -2.6876e+06 6.18653e+06 0 -2.6168e+06 6.20949e+06 0 -2.54606e+06 6.23055e+06 0 -2.47543e+06 6.24972e+06 0 -2.40496e+06 6.267e+06 0 -2.33473e+06 6.28242e+06 0 -2.2648e+06 6.29598e+06 0 -2.19522e+06 6.30772e+06 0 -2.12605e+06 6.31764e+06 0 -2.05735e+06 6.32577e+06 0 -1.98918e+06 6.33213e+06 0 -1.92159e+06 6.33675e+06 0 -1.85465e+06 6.33965e+06 0 -1.7884e+06 6.34086e+06 0 -1.72289e+06 6.34041e+06 0 -1.65819e+06 6.33832e+06 0 -1.59435e+06 6.33464e+06 0 -1.53142e+06 6.3294e+06 0 -1.46944e+06 6.32262e+06 0 -1.40847e+06 6.31436e+06 0 -1.34857e+06 6.30465e+06 0 -1.28978e+06 6.29353e+06 0 -1.23215e+06 6.28104e+06 0 -1.17573e+06 6.26724e+06 0 -1.12057e+06 6.25217e+06 0 -1.06672e+06 6.23589e+06 0 -1.01422e+06 6.21845e+06 0 -963116 6.19992e+06 0 -913456 6.18035e+06 0 -865277 6.15982e+06 0 -818617 6.1384e+06 0 -773509 6.11618e+06 0 -729981 6.09322e+06 0 -688055 6.06962e+06 0 -647749 6.04547e+06 0 -609070 6.02085e+06 0 -572019 5.99588e+06 0 -536589 5.97063e+06 0 -502749 5.9452e+06 0 -470392 5.91971e+06 0 -3.87479e+06 812292 0 -3.91645e+06 850873 0 -3.95766e+06 890700 0 -3.99839e+06 931779 0 -4.03861e+06 974116 0 -4.07828e+06 1.01772e+06 0 -4.11736e+06 1.06258e+06 0 -4.15582e+06 1.10872e+06 0 -4.19361e+06 1.15612e+06 0 -4.23069e+06 1.20479e+06 0 -4.26703e+06 1.25473e+06 0 -4.30259e+06 1.30593e+06 0 -4.33731e+06 1.35839e+06 0 -4.37116e+06 1.4121e+06 0 -4.40409e+06 1.46705e+06 0 -4.43607e+06 1.52323e+06 0 -4.46704e+06 1.58063e+06 0 -4.49696e+06 1.63923e+06 0 -4.5258e+06 1.69902e+06 0 -4.55349e+06 1.75998e+06 0 -4.58e+06 1.82208e+06 0 -4.60528e+06 1.88531e+06 0 -4.62929e+06 1.94964e+06 0 -4.65198e+06 2.01503e+06 0 -4.67332e+06 2.08147e+06 0 -4.69324e+06 2.14892e+06 0 -4.71173e+06 2.21734e+06 0 -4.72873e+06 2.28671e+06 0 -4.74419e+06 2.35697e+06 0 -4.75809e+06 2.42809e+06 0 -4.77038e+06 2.50003e+06 0 -4.78103e+06 2.57274e+06 0 -4.79e+06 2.64617e+06 0 -4.79725e+06 2.72028e+06 0 -4.80276e+06 2.79501e+06 0 -4.80649e+06 2.8703e+06 0 -4.80841e+06 2.94611e+06 0 -4.80849e+06 3.02237e+06 0 -4.80672e+06 3.09903e+06 0 -4.80307e+06 3.17602e+06 0 -4.79752e+06 3.25328e+06 0 -4.79006e+06 3.33076e+06 0 -4.78066e+06 3.40837e+06 0 -4.76932e+06 3.48606e+06 0 -4.75602e+06 3.56376e+06 0 -4.74077e+06 3.6414e+06 0 -4.72356e+06 3.71891e+06 0 -4.70438e+06 3.79622e+06 0 -4.68325e+06 3.87326e+06 0 -4.66017e+06 3.94996e+06 0 -4.63514e+06 4.02626e+06 0 -4.60818e+06 4.10207e+06 0 -4.57931e+06 4.17733e+06 0 -4.54854e+06 4.25198e+06 0 -4.5159e+06 4.32594e+06 0 -4.4814e+06 4.39914e+06 0 -4.44509e+06 4.47151e+06 0 -4.40699e+06 4.543e+06 0 -4.36712e+06 4.61353e+06 0 -4.32554e+06 4.68305e+06 0 -4.28228e+06 4.75148e+06 0 -4.23738e+06 4.81878e+06 0 -4.19088e+06 4.88487e+06 0 -4.14284e+06 4.94972e+06 0 -4.0933e+06 5.01326e+06 0 -4.04232e+06 5.07544e+06 0 -3.98994e+06 5.13621e+06 0 -3.93623e+06 5.19552e+06 0 -3.88124e+06 5.25334e+06 0 -3.82502e+06 5.30962e+06 0 -3.76765e+06 5.36432e+06 0 -3.70918e+06 5.4174e+06 0 -3.64967e+06 5.46883e+06 0 -3.58919e+06 5.51859e+06 0 -3.5278e+06 5.56663e+06 0 -3.46557e+06 5.61295e+06 0 -3.40256e+06 5.65751e+06 0 -3.33884e+06 5.70029e+06 0 -3.27448e+06 5.74129e+06 0 -3.20954e+06 5.78048e+06 0 -3.14409e+06 5.81785e+06 0 -3.0782e+06 5.8534e+06 0 -3.01193e+06 5.88713e+06 0 -2.94534e+06 5.91901e+06 0 -2.87851e+06 5.94907e+06 0 -2.8115e+06 5.97729e+06 0 -2.74437e+06 6.00369e+06 0 -2.67719e+06 6.02826e+06 0 -2.61001e+06 6.05103e+06 0 -2.54291e+06 6.07199e+06 0 -2.47593e+06 6.09116e+06 0 -2.40915e+06 6.10856e+06 0 -2.34261e+06 6.1242e+06 0 -2.27639e+06 6.13811e+06 0 -2.21053e+06 6.15029e+06 0 -2.14508e+06 6.16079e+06 0 -2.08012e+06 6.16961e+06 0 -2.01568e+06 6.17679e+06 0 -1.95182e+06 6.18235e+06 0 -1.88859e+06 6.18632e+06 0 -1.82604e+06 6.18874e+06 0 -1.76422e+06 6.18962e+06 0 -1.70319e+06 6.18902e+06 0 -1.64297e+06 6.18696e+06 0 -1.58363e+06 6.18348e+06 0 -1.52521e+06 6.17862e+06 0 -1.46774e+06 6.17242e+06 0 -1.41127e+06 6.16491e+06 0 -1.35585e+06 6.15615e+06 0 -1.30151e+06 6.14618e+06 0 -1.24829e+06 6.13505e+06 0 -1.19623e+06 6.1228e+06 0 -1.14536e+06 6.1095e+06 0 -1.09571e+06 6.09518e+06 0 -1.04732e+06 6.07991e+06 0 -1.00022e+06 6.06375e+06 0 -954431 6.04676e+06 0 -909974 6.02899e+06 0 -866872 6.01053e+06 0 -825138 5.99143e+06 0 -784784 5.97176e+06 0 -745816 5.9516e+06 0 -708235 5.93101e+06 0 -672036 5.91007e+06 0 -637209 5.88884e+06 0 -603738 5.86741e+06 0 -571608 5.84583e+06 0 -540837 5.82416e+06 0 -3.80494e+06 912307 0 -3.84437e+06 949384 0 -3.88337e+06 987665 0 -3.92193e+06 1.02716e+06 0 -3.96e+06 1.06787e+06 0 -3.99754e+06 1.1098e+06 0 -4.03453e+06 1.15296e+06 0 -4.07092e+06 1.19735e+06 0 -4.10668e+06 1.24297e+06 0 -4.14177e+06 1.28981e+06 0 -4.17614e+06 1.33789e+06 0 -4.20976e+06 1.38719e+06 0 -4.24258e+06 1.4377e+06 0 -4.27457e+06 1.48943e+06 0 -4.30567e+06 1.54237e+06 0 -4.33586e+06 1.5965e+06 0 -4.36507e+06 1.65181e+06 0 -4.39328e+06 1.70828e+06 0 -4.42043e+06 1.76591e+06 0 -4.44648e+06 1.82467e+06 0 -4.47139e+06 1.88455e+06 0 -4.49512e+06 1.94551e+06 0 -4.51761e+06 2.00754e+06 0 -4.53883e+06 2.07061e+06 0 -4.55873e+06 2.13468e+06 0 -4.57727e+06 2.19973e+06 0 -4.59441e+06 2.26573e+06 0 -4.61011e+06 2.33264e+06 0 -4.62432e+06 2.40041e+06 0 -4.63701e+06 2.46902e+06 0 -4.64814e+06 2.53841e+06 0 -4.65767e+06 2.60854e+06 0 -4.66557e+06 2.67936e+06 0 -4.67181e+06 2.75083e+06 0 -4.67635e+06 2.8229e+06 0 -4.67916e+06 2.8955e+06 0 -4.68021e+06 2.96859e+06 0 -4.67948e+06 3.0421e+06 0 -4.67695e+06 3.11598e+06 0 -4.6726e+06 3.19017e+06 0 -4.6664e+06 3.26461e+06 0 -4.65834e+06 3.33923e+06 0 -4.6484e+06 3.41396e+06 0 -4.63658e+06 3.48875e+06 0 -4.62287e+06 3.56352e+06 0 -4.60727e+06 3.63821e+06 0 -4.58977e+06 3.71274e+06 0 -4.57037e+06 3.78706e+06 0 -4.54907e+06 3.86109e+06 0 -4.5259e+06 3.93476e+06 0 -4.50085e+06 4.008e+06 0 -4.47394e+06 4.08074e+06 0 -4.44519e+06 4.15292e+06 0 -4.41462e+06 4.22446e+06 0 -4.38224e+06 4.2953e+06 0 -4.3481e+06 4.36537e+06 0 -4.31222e+06 4.43461e+06 0 -4.27462e+06 4.50295e+06 0 -4.23536e+06 4.57034e+06 0 -4.19445e+06 4.6367e+06 0 -4.15195e+06 4.70198e+06 0 -4.1079e+06 4.76612e+06 0 -4.06235e+06 4.82907e+06 0 -4.01534e+06 4.89077e+06 0 -3.96692e+06 4.95117e+06 0 -3.91715e+06 5.01023e+06 0 -3.86608e+06 5.0679e+06 0 -3.81376e+06 5.12412e+06 0 -3.76026e+06 5.17888e+06 0 -3.70564e+06 5.23211e+06 0 -3.64996e+06 5.2838e+06 0 -3.59327e+06 5.33391e+06 0 -3.53564e+06 5.3824e+06 0 -3.47713e+06 5.42925e+06 0 -3.41782e+06 5.47444e+06 0 -3.35776e+06 5.51794e+06 0 -3.29701e+06 5.55975e+06 0 -3.23566e+06 5.59983e+06 0 -3.17375e+06 5.63818e+06 0 -3.11136e+06 5.6748e+06 0 -3.04855e+06 5.70966e+06 0 -2.98539e+06 5.74278e+06 0 -2.92193e+06 5.77414e+06 0 -2.85826e+06 5.80375e+06 0 -2.79442e+06 5.83161e+06 0 -2.73048e+06 5.85772e+06 0 -2.6665e+06 5.88211e+06 0 -2.60255e+06 5.90476e+06 0 -2.53868e+06 5.92571e+06 0 -2.47496e+06 5.94496e+06 0 -2.41143e+06 5.96253e+06 0 -2.34816e+06 5.97844e+06 0 -2.2852e+06 5.9927e+06 0 -2.22261e+06 6.00535e+06 0 -2.16043e+06 6.01641e+06 0 -2.09873e+06 6.0259e+06 0 -2.03754e+06 6.03385e+06 0 -1.97693e+06 6.04029e+06 0 -1.91693e+06 6.04525e+06 0 -1.85759e+06 6.04876e+06 0 -1.79896e+06 6.05086e+06 0 -1.74107e+06 6.05158e+06 0 -1.68398e+06 6.05095e+06 0 -1.62772e+06 6.04903e+06 0 -1.57233e+06 6.04584e+06 0 -1.51785e+06 6.04142e+06 0 -1.46431e+06 6.03583e+06 0 -1.41174e+06 6.02909e+06 0 -1.36019e+06 6.02127e+06 0 -1.30968e+06 6.01239e+06 0 -1.26023e+06 6.00252e+06 0 -1.21188e+06 5.99169e+06 0 -1.16465e+06 5.97997e+06 0 -1.11856e+06 5.9674e+06 0 -1.07363e+06 5.95404e+06 0 -1.02988e+06 5.93993e+06 0 -987317 5.92514e+06 0 -945962 5.90972e+06 0 -905819 5.89373e+06 0 -866893 5.87722e+06 0 -829184 5.86026e+06 0 -792690 5.8429e+06 0 -757405 5.8252e+06 0 -723319 5.80721e+06 0 -690418 5.789e+06 0 -658686 5.7706e+06 0 -628099 5.75208e+06 0 -598610 5.73349e+06 0 -3.73791e+06 1.00455e+06 0 -3.77526e+06 1.04021e+06 0 -3.81222e+06 1.07704e+06 0 -3.84875e+06 1.11503e+06 0 -3.88482e+06 1.15421e+06 0 -3.9204e+06 1.19457e+06 0 -3.95544e+06 1.23612e+06 0 -3.98992e+06 1.27886e+06 0 -4.02379e+06 1.3228e+06 0 -4.05702e+06 1.36792e+06 0 -4.08957e+06 1.41424e+06 0 -4.12139e+06 1.46174e+06 0 -4.15246e+06 1.51043e+06 0 -4.18272e+06 1.5603e+06 0 -4.21213e+06 1.61133e+06 0 -4.24065e+06 1.66353e+06 0 -4.26824e+06 1.71687e+06 0 -4.29486e+06 1.77134e+06 0 -4.32046e+06 1.82694e+06 0 -4.345e+06 1.88363e+06 0 -4.36844e+06 1.9414e+06 0 -4.39072e+06 2.00024e+06 0 -4.41182e+06 2.0601e+06 0 -4.43168e+06 2.12097e+06 0 -4.45026e+06 2.18283e+06 0 -4.46753e+06 2.24563e+06 0 -4.48344e+06 2.30934e+06 0 -4.49794e+06 2.37393e+06 0 -4.51101e+06 2.43936e+06 0 -4.52259e+06 2.5056e+06 0 -4.53266e+06 2.57259e+06 0 -4.54118e+06 2.6403e+06 0 -4.54812e+06 2.70867e+06 0 -4.55343e+06 2.77766e+06 0 -4.55709e+06 2.84722e+06 0 -4.55908e+06 2.91729e+06 0 -4.55936e+06 2.98782e+06 0 -4.55791e+06 3.05875e+06 0 -4.55471e+06 3.13003e+06 0 -4.54973e+06 3.20159e+06 0 -4.54296e+06 3.27337e+06 0 -4.53439e+06 3.34532e+06 0 -4.524e+06 3.41735e+06 0 -4.51178e+06 3.48942e+06 0 -4.49773e+06 3.56145e+06 0 -4.48184e+06 3.63338e+06 0 -4.46411e+06 3.70514e+06 0 -4.44455e+06 3.77665e+06 0 -4.42316e+06 3.84787e+06 0 -4.39996e+06 3.9187e+06 0 -4.37494e+06 3.98909e+06 0 -4.34813e+06 4.05898e+06 0 -4.31955e+06 4.12828e+06 0 -4.28922e+06 4.19694e+06 0 -4.25716e+06 4.26489e+06 0 -4.22341e+06 4.33206e+06 0 -4.18798e+06 4.39839e+06 0 -4.15093e+06 4.46382e+06 0 -4.11227e+06 4.52829e+06 0 -4.07206e+06 4.59174e+06 0 -4.03034e+06 4.6541e+06 0 -3.98714e+06 4.71534e+06 0 -3.94252e+06 4.77539e+06 0 -3.89653e+06 4.8342e+06 0 -3.84922e+06 4.89173e+06 0 -3.80063e+06 4.94793e+06 0 -3.75084e+06 5.00275e+06 0 -3.69989e+06 5.05616e+06 0 -3.64784e+06 5.10812e+06 0 -3.59475e+06 5.15859e+06 0 -3.54069e+06 5.20754e+06 0 -3.48571e+06 5.25494e+06 0 -3.42987e+06 5.30077e+06 0 -3.37325e+06 5.345e+06 0 -3.31591e+06 5.38761e+06 0 -3.25791e+06 5.42859e+06 0 -3.1993e+06 5.46792e+06 0 -3.14017e+06 5.50558e+06 0 -3.08057e+06 5.54157e+06 0 -3.02057e+06 5.57589e+06 0 -2.96024e+06 5.60853e+06 0 -2.89962e+06 5.63948e+06 0 -2.8388e+06 5.66876e+06 0 -2.77782e+06 5.69636e+06 0 -2.71675e+06 5.72229e+06 0 -2.65566e+06 5.74657e+06 0 -2.5946e+06 5.7692e+06 0 -2.53362e+06 5.79019e+06 0 -2.47279e+06 5.80957e+06 0 -2.41216e+06 5.82735e+06 0 -2.35179e+06 5.84355e+06 0 -2.29173e+06 5.8582e+06 0 -2.23202e+06 5.87131e+06 0 -2.17273e+06 5.88292e+06 0 -2.1139e+06 5.89305e+06 0 -2.05557e+06 5.90172e+06 0 -1.99779e+06 5.90898e+06 0 -1.94061e+06 5.91484e+06 0 -1.88407e+06 5.91936e+06 0 -1.82821e+06 5.92255e+06 0 -1.77306e+06 5.92445e+06 0 -1.71868e+06 5.92511e+06 0 -1.66508e+06 5.92455e+06 0 -1.61231e+06 5.92283e+06 0 -1.56039e+06 5.91998e+06 0 -1.50937e+06 5.91604e+06 0 -1.45926e+06 5.91105e+06 0 -1.4101e+06 5.90506e+06 0 -1.3619e+06 5.89811e+06 0 -1.3147e+06 5.89025e+06 0 -1.2685e+06 5.88153e+06 0 -1.22334e+06 5.87199e+06 0 -1.17923e+06 5.86167e+06 0 -1.13617e+06 5.85064e+06 0 -1.09419e+06 5.83893e+06 0 -1.05329e+06 5.82659e+06 0 -1.01348e+06 5.81368e+06 0 -974756 5.80025e+06 0 -937127 5.78634e+06 0 -900589 5.772e+06 0 -865137 5.75729e+06 0 -830764 5.74224e+06 0 -797461 5.72691e+06 0 -765213 5.71134e+06 0 -734007 5.69558e+06 0