<?xml version="1.0"?> 
<VTKFile type="StructuredGrid" version="0.1"> 
<StructuredGrid WholeExtent="0 127 0 127 0 0"> 
<Piece Extent="0 127 0 127 0 0"> 
<PointData>
<DataArray type="Float32" Name="E" format="ascii" NumberOfComponents="3"> 
1744.56 1.23978e-05 0 431.876 -484.86 0 293.681 -430.259 0 178.043 -338.919 0 120.291 -321.353 0 73.452 -276.677 0 42.4095 -255.265 0 17.7688 -227.662 0 -0.325263 -208.09 0 -14.4921 -188.141 0 -25.2483 -171.643 0 -33.5533 -156.114 0 -39.8411 -142.504 0 -44.5645 -130.018 0 -48.016 -118.832 0 -50.4502 -108.645 0 -52.058 -99.4373 0 -52.9975 -91.063 0 -53.3946 -83.4624 0 -53.3527 -76.5462 0 -52.9566 -70.2544 0 -52.2758 -64.523 0 -51.3682 -59.3003 0 -50.2817 -54.5372 0 -49.0561 -50.1909 0 -47.7244 -46.2222 0 -46.3144 -42.5961 0 -44.849 -39.2811 0 -43.3473 -36.2485 0 -41.8254 -33.4727 0 -40.2964 -30.9302 0 -38.7711 -28.6001 0 -37.2586 -26.4633 0 -35.7661 -24.5025 0 -34.2996 -22.702 0 -32.8637 -21.0477 0 -31.4623 -19.5267 0 -30.0983 -18.1274 0 -28.7737 -16.8392 0 -27.4902 -15.6524 0 -26.2488 -14.5583 0 -25.0502 -13.5491 0 -23.8946 -12.6175 0 -22.782 -11.7569 0 -21.7121 -10.9615 0 -20.6843 -10.2257 0 -19.6982 -9.54473 0 -18.7527 -8.91395 0 -17.847 -8.32933 0 -16.9801 -7.78711 0 -16.151 -7.2839 0 -15.3584 -6.81658 0 -14.6013 -6.38231 0 -13.8785 -5.9785 0 -13.1888 -5.60277 0 -12.5309 -5.25295 0 -11.9037 -4.92706 0 -11.3059 -4.62328 0 -10.7366 -4.33993 0 -10.1944 -4.0755 0 -9.67827 -3.82859 0 -9.18712 -3.59789 0 -8.71987 -3.38224 0 -8.27548 -3.18053 0 -7.85294 -2.99179 0 -7.45129 -2.81507 0 -7.06957 -2.64954 0 -6.70689 -2.49441 0 -6.36236 -2.34897 0 -6.03514 -2.21254 0 -5.72443 -2.0845 0 -5.42944 -1.96431 0 -5.14943 -1.85141 0 -4.88368 -1.74534 0 -4.63151 -1.64564 0 -4.39227 -1.55188 0 -4.16533 -1.46368 0 -3.95008 -1.38069 0 -3.74597 -1.30256 0 -3.55243 -1.22899 0 -3.36896 -1.15968 0 -3.19506 -1.09436 0 -3.03025 -1.0328 0 -2.87409 -0.974744 0 -2.72615 -0.919979 0 -2.58601 -0.868302 0 -2.4533 -0.819526 0 -2.32764 -0.773467 0 -2.20868 -0.729961 0 -2.09609 -0.688856 0 -1.98956 -0.65 0 -1.88878 -0.613259 0 -1.79347 -0.578504 0 -1.70337 -0.54562 0 -1.61821 -0.514481 0 -1.53776 -0.484994 0 -1.46178 -0.457051 0 -1.39006 -0.430562 0 -1.32239 -0.405436 0 -1.25858 -0.38159 0 -1.19845 -0.358948 0 -1.14182 -0.337432 0 -1.08853 -0.316973 0 -1.03843 -0.297505 0 -0.991372 -0.278953 0 -0.947219 -0.261281 0 -0.905849 -0.244414 0 -0.867132 -0.228309 0 -0.830967 -0.212907 0 -0.797241 -0.198163 0 -0.765859 -0.184026 0 -0.736729 -0.170458 0 -0.709769 -0.157411 0 -0.684898 -0.144853 0 -0.662043 -0.132732 0 -0.641143 -0.121029 0 -0.622128 -0.109677 0 -0.604946 -0.0986788 0 -0.589551 -0.087965 0 -0.575891 -0.07754 0 -0.563937 -0.067333 0 -0.553641 -0.0573418 0 -0.544982 -0.0475173 0 -0.537931 -0.0378439 0 -0.532467 -0.0282767 0 -0.528576 -0.0188117 0 -0.526248 -0.00938654 0 -0.52547 9.53674e-06 0 1282.44 -1.96969e-06 0 490.136 -435.6 0 293.688 -388.83 0 189.558 -335.205 0 124.683 -305.824 0 79.545 -273.029 0 46.5762 -248.433 0 21.9918 -224.755 0 3.17011 -204.637 0 -11.2389 -186.147 0 -22.3848 -169.752 0 -30.9448 -154.857 0 -37.4983 -141.449 0 -42.4387 -129.287 0 -46.0928 -118.274 0 -48.7043 -108.274 0 -50.4732 -99.1926 0 -51.5568 -90.9343 0 -52.0842 -83.4206 0 -52.1599 -76.5787 0 -51.87 -70.3447 0 -51.2853 -64.6608 0 -50.4648 -59.4753 0 -49.4572 -54.7417 0 -48.303 -50.4181 0 -47.0363 -46.4665 0 -45.6852 -42.853 0 -44.2733 -39.5467 0 -42.8204 -36.5196 0 -41.3427 -33.7466 0 -39.854 -31.2047 0 -38.3654 -28.8734 0 -36.8863 -26.7338 0 -35.4242 -24.769 0 -33.9854 -22.9636 0 -32.5749 -21.3036 0 -31.1966 -19.7762 0 -29.8536 -18.3701 0 -28.5483 -17.0746 0 -27.2824 -15.8804 0 -26.0571 -14.7788 0 -24.8733 -13.7618 0 -23.7312 -12.8225 0 -22.6309 -11.9543 0 -21.5723 -11.1512 0 -20.555 -10.4079 0 -19.5784 -9.71947 0 -18.6417 -9.08144 0 -17.744 -8.48973 0 -16.8846 -7.94062 0 -16.0622 -7.4307 0 -15.276 -6.95688 0 -14.5247 -6.51631 0 -13.8072 -6.10642 0 -13.1223 -5.72482 0 -12.469 -5.36935 0 -11.846 -5.03801 0 -11.2522 -4.729 0 -10.6864 -4.44064 0 -10.1475 -4.17139 0 -9.63448 -3.91985 0 -9.14618 -3.68474 0 -8.68158 -3.46485 0 -8.23965 -3.2591 0 -7.8194 -3.06648 0 -7.41987 -2.88607 0 -7.04013 -2.71701 0 -6.67929 -2.55852 0 -6.33647 -2.40986 0 -6.01085 -2.27036 0 -5.70162 -2.13941 0 -5.40801 -2.01643 0 -5.1293 -1.90089 0 -4.86476 -1.7923 0 -4.61372 -1.69019 0 -4.37554 -1.59415 0 -4.14958 -1.50378 0 -3.93526 -1.41871 0 -3.73201 -1.33861 0 -3.53928 -1.26317 0 -3.35657 -1.19208 0 -3.18338 -1.12508 0 -3.01924 -1.0619 0 -2.86371 -1.00232 0 -2.71635 -0.946102 0 -2.57676 -0.893045 0 -2.44457 -0.842956 0 -2.31939 -0.795648 0 -2.20088 -0.750959 0 -2.08873 -0.708726 0 -1.9826 -0.668799 0 -1.8822 -0.63104 0 -1.78724 -0.595318 0 -1.69747 -0.56151 0 -1.61263 -0.5295 0 -1.53247 -0.499179 0 -1.45676 -0.470445 0 -1.3853 -0.443202 0 -1.31788 -0.417358 0 -1.2543 -0.392829 0 -1.19438 -0.369535 0 -1.13795 -0.347397 0 -1.08485 -0.326346 0 -1.03493 -0.306309 0 -0.988033 -0.287226 0 -0.944036 -0.269038 0 -0.902808 -0.251677 0 -0.864227 -0.235099 0 -0.828187 -0.219244 0 -0.794578 -0.204065 0 -0.763305 -0.189512 0 -0.734276 -0.175543 0 -0.707408 -0.162113 0 -0.682622 -0.149179 0 -0.659846 -0.136702 0 -0.639016 -0.124643 0 -0.620067 -0.112959 0 -0.602944 -0.101629 0 -0.587601 -0.0905999 0 -0.573988 -0.0798569 0 -0.562073 -0.069349 0 -0.551814 -0.0590562 0 -0.543184 -0.0489402 0 -0.536157 -0.0389744 0 -0.530712 -0.0291288 0 -0.526834 -0.0193688 0 -0.524513 -0.00967214 0 -0.523738 -1.01601e-06 0 1005.29 -1.07102e-08 0 506.686 -379.579 0 298.395 -358.138 0 196.999 -324.25 0 129.784 -294.1 0 84.5873 -267.046 0 50.7961 -242.719 0 25.8652 -221.095 0 6.60032 -201.481 0 -8.13165 -183.891 0 -19.5873 -167.917 0 -28.4113 -153.492 0 -35.2042 -140.385 0 -40.3574 -128.501 0 -44.2029 -117.692 0 -46.9866 -107.868 0 -48.9107 -98.9234 0 -50.1346 -90.7795 0 -50.7887 -83.3575 0 -50.9791 -76.5907 0 -50.7931 -70.4171 0 -50.3026 -64.782 0 -49.5675 -59.6354 0 -48.6374 -54.9326 0 -47.5537 -50.633 0 -46.351 -46.6998 0 -45.058 -43.0998 0 -43.6991 -39.8031 0 -42.2943 -36.7823 0 -40.8604 -34.0128 0 -39.4116 -31.4722 0 -37.9593 -29.1403 0 -36.5134 -26.9985 0 -35.0815 -25.0303 0 -33.6703 -23.2204 0 -32.285 -21.555 0 -30.9297 -20.0217 0 -29.6077 -18.609 0 -28.3216 -17.3067 0 -27.0733 -16.1054 0 -25.8641 -14.9964 0 -24.6949 -13.972 0 -23.5663 -13.0252 0 -22.4785 -12.1494 0 -21.4312 -11.3389 0 -20.4243 -10.5882 0 -19.4572 -9.89256 0 -18.5293 -9.24741 0 -17.6398 -8.64873 0 -16.7878 -8.09283 0 -15.9723 -7.5763 0 -15.1924 -7.09607 0 -14.4469 -6.6493 0 -13.7347 -6.2334 0 -13.0549 -5.846 0 -12.4061 -5.48494 0 -11.7873 -5.14823 0 -11.1974 -4.83404 0 -10.6353 -4.54071 0 -10.0998 -4.26669 0 -9.58986 -4.01058 0 -9.10446 -3.77108 0 -8.64255 -3.547 0 -8.20311 -3.33723 0 -7.78518 -3.14078 0 -7.3878 -2.9567 0 -7.01007 -2.78414 0 -6.65109 -2.6223 0 -6.31001 -2.47045 0 -5.98601 -2.32791 0 -5.67829 -2.19406 0 -5.3861 -2.06832 0 -5.1087 -1.95014 0 -4.8454 -1.83904 0 -4.59551 -1.73454 0 -4.3584 -1.63623 0 -4.13345 -1.5437 0 -3.92007 -1.45657 0 -3.7177 -1.37452 0 -3.52581 -1.29721 0 -3.34387 -1.22436 0 -3.17141 -1.15567 0 -3.00795 -1.09089 0 -2.85305 -1.02979 0 -2.70629 -0.972124 0 -2.56727 -0.917692 0 -2.4356 -0.866296 0 -2.31092 -0.817748 0 -2.19288 -0.771878 0 -2.08116 -0.728524 0 -1.97544 -0.68753 0 -1.87543 -0.648758 0 -1.78084 -0.612072 0 -1.69141 -0.577348 0 -1.60688 -0.544466 0 -1.52703 -0.513316 0 -1.45161 -0.483793 0 -1.38041 -0.455799 0 -1.31324 -0.429241 0 -1.24989 -0.404031 0 -1.19019 -0.380089 0 -1.13397 -0.357332 0 -1.08106 -0.335691 0 -1.03132 -0.315092 0 -0.984599 -0.295472 0 -0.94076 -0.276768 0 -0.899681 -0.258917 0 -0.861239 -0.241868 0 -0.825327 -0.225562 0 -0.791839 -0.20995 0 -0.760676 -0.194983 0 -0.73175 -0.180614 0 -0.704978 -0.166799 0 -0.68028 -0.153493 0 -0.657585 -0.140658 0 -0.636828 -0.128251 0 -0.617945 -0.116233 0 -0.600884 -0.104573 0 -0.585594 -0.0932287 0 -0.57203 -0.0821723 0 -0.560156 -0.0713627 0 -0.549933 -0.0607694 0 -0.541333 -0.0503615 0 -0.53433 -0.0401064 0 -0.528904 -0.0299735 0 -0.52504 -0.0199332 0 -0.522727 -0.00995183 0 -0.521956 -9.64443e-07 0 829.796 -3.22238e-07 0 502.109 -326.901 0 303.001 -331.926 0 202.249 -310.484 0 134.697 -283.766 0 89.0162 -260.16 0 54.8442 -237.354 0 29.4981 -217.134 0 9.90819 -198.384 0 -5.14414 -181.516 0 -16.8705 -166.067 0 -25.9472 -152.066 0 -32.9629 -139.291 0 -38.3196 -127.673 0 -42.3477 -117.081 0 -45.2973 -107.431 0 -47.3713 -98.6287 0 -48.7311 -90.6005 0 -49.5085 -83.273 0 -49.8107 -76.583 0 -49.7262 -70.4718 0 -49.328 -64.8871 0 -48.6767 -59.7809 0 -47.8227 -55.1102 0 -46.8083 -50.8358 0 -45.6686 -46.922 0 -44.433 -43.3366 0 -43.1263 -40.0503 0 -41.7691 -37.0367 0 -40.3786 -34.2715 0 -38.9693 -31.7328 0 -37.5531 -29.4009 0 -36.14 -27.2575 0 -34.7382 -25.2863 0 -33.3544 -23.4724 0 -31.9941 -21.8021 0 -30.6616 -20.2632 0 -29.3606 -18.8444 0 -28.0936 -17.5355 0 -26.8628 -16.3273 0 -25.6697 -15.2112 0 -24.5153 -14.1796 0 -23.4002 -13.2255 0 -22.3247 -12.3425 0 -21.2888 -11.5247 0 -20.2923 -10.7668 0 -19.3348 -10.064 0 -18.4157 -9.41184 0 -17.5343 -8.80632 0 -16.6898 -8.24374 0 -15.8812 -7.72071 0 -15.1076 -7.23416 0 -14.368 -6.78126 0 -13.6613 -6.35944 0 -12.9864 -5.96632 0 -12.3422 -5.59973 0 -11.7277 -5.2577 0 -11.1418 -4.9384 0 -10.5833 -4.64014 0 -10.0512 -4.3614 0 -9.54444 -4.10076 0 -9.06197 -3.85691 0 -8.60277 -3.62867 0 -8.16585 -3.41493 0 -7.75027 -3.21466 0 -7.35508 -3.02694 0 -6.97938 -2.85091 0 -6.6223 -2.68575 0 -6.28298 -2.53073 0 -5.96063 -2.38517 0 -5.65445 -2.24844 0 -5.3637 -2.11995 0 -5.08764 -1.99916 0 -4.82559 -1.88556 0 -4.57687 -1.7787 0 -4.34086 -1.67812 0 -4.11694 -1.58344 0 -3.90452 -1.49427 0 -3.70305 -1.41027 0 -3.512 -1.33111 0 -3.33086 -1.25649 0 -3.15913 -1.18613 0 -2.99637 -1.11976 0 -2.84213 -1.05714 0 -2.69598 -0.998037 0 -2.55753 -0.942239 0 -2.4264 -0.889543 0 -2.30223 -0.839759 0 -2.18467 -0.792714 0 -2.0734 -0.748243 0 -1.9681 -0.706188 0 -1.86848 -0.666406 0 -1.77427 -0.628761 0 -1.68519 -0.593124 0 -1.60099 -0.559374 0 -1.52144 -0.527399 0 -1.44631 -0.497091 0 -1.37539 -0.468349 0 -1.30847 -0.441079 0 -1.24536 -0.415191 0 -1.18589 -0.390602 0 -1.12988 -0.36723 0 -1.07717 -0.345001 0 -1.02762 -0.323842 0 -0.981069 -0.303686 0 -0.937393 -0.28447 0 -0.896466 -0.266131 0 -0.858166 -0.248611 0 -0.822386 -0.231857 0 -0.789022 -0.215814 0 -0.757974 -0.200433 0 -0.729154 -0.185666 0 -0.702479 -0.171468 0 -0.677872 -0.157792 0 -0.655259 -0.1446 0 -0.634578 -0.131847 0 -0.615764 -0.119494 0 -0.598764 -0.107507 0 -0.58353 -0.0958461 0 -0.570015 -0.0844794 0 -0.558184 -0.073367 0 -0.547998 -0.0624773 0 -0.539429 -0.0517774 0 -0.532452 -0.0412345 0 -0.527046 -0.030817 0 -0.523196 -0.0204939 0 -0.52089 -0.0102318 0 -0.520124 -5.6054e-07 0 711.915 6.72182e-07 0 487.207 -281.014 0 305.711 -307.832 0 206.081 -295.858 0 139.08 -273.862 0 92.9983 -252.967 0 58.6379 -232.047 0 32.9287 -213.05 0 13.0734 -195.262 0 -2.26825 -179.074 0 -14.2398 -164.178 0 -23.5512 -150.594 0 -30.776 -138.16 0 -36.3255 -126.811 0 -40.5281 -116.438 0 -43.6368 -106.965 0 -45.8554 -98.3085 0 -47.3468 -90.3983 0 -48.2439 -83.1674 0 -48.655 -76.5561 0 -48.6696 -70.5091 0 -48.3617 -64.9763 0 -47.7925 -59.912 0 -47.0134 -55.2748 0 -46.067 -51.0267 0 -44.9894 -47.1333 0 -43.8104 -43.5635 0 -42.5552 -40.2886 0 -41.245 -37.2829 0 -39.8974 -34.5227 0 -38.5272 -31.9866 0 -37.1467 -29.6553 0 -35.7662 -27.5108 0 -34.3942 -25.5371 0 -33.0376 -23.7196 0 -31.7022 -22.0448 0 -30.3926 -20.5007 0 -29.1124 -19.0761 0 -27.8645 -17.761 0 -26.6512 -16.5462 0 -25.4741 -15.4233 0 -24.3343 -14.3847 0 -23.2327 -13.4235 0 -22.1696 -12.5333 0 -21.1451 -11.7084 0 -20.159 -10.9435 0 -19.2112 -10.2337 0 -18.3009 -9.57472 0 -17.4276 -8.96249 0 -16.5906 -8.39334 0 -15.7889 -7.86391 0 -15.0217 -7.37114 0 -14.288 -6.9122 0 -13.5867 -6.48453 0 -12.9169 -6.08576 0 -12.2774 -5.71372 0 -11.6672 -5.36642 0 -11.0852 -5.04205 0 -10.5305 -4.73893 0 -10.0018 -4.45551 0 -9.49822 -4.19038 0 -9.0187 -3.94223 0 -8.56225 -3.70986 0 -8.1279 -3.49217 0 -7.71469 -3.28813 0 -7.32172 -3.0968 0 -6.94808 -2.91732 0 -6.59292 -2.74886 0 -6.2554 -2.5907 0 -5.93472 -2.44214 0 -5.63011 -2.30255 0 -5.34081 -2.17133 0 -5.06612 -2.04794 0 -4.80534 -1.93187 0 -4.55782 -1.82264 0 -4.32292 -1.71982 0 -4.10005 -1.62299 0 -3.88861 -1.53179 0 -3.68806 -1.44585 0 -3.49787 -1.36485 0 -3.31753 -1.28848 0 -3.14656 -1.21646 0 -2.98451 -1.1485 0 -2.83093 -1.08438 0 -2.68541 -1.02384 0 -2.54756 -0.966683 0 -2.41698 -0.912692 0 -2.29333 -0.861679 0 -2.17625 -0.813464 0 -2.06544 -0.767882 0 -1.96057 -0.72477 0 -1.86136 -0.683984 0 -1.76752 -0.645383 0 -1.6788 -0.608838 0 -1.59494 -0.574224 0 -1.51571 -0.541427 0 -1.44088 -0.510336 0 -1.37023 -0.48085 0 -1.30358 -0.452871 0 -1.24072 -0.426307 0 -1.18148 -0.401075 0 -1.12568 -0.377089 0 -1.07318 -0.354275 0 -1.02382 -0.332558 0 -0.977444 -0.311869 0 -0.933936 -0.292143 0 -0.893164 -0.273316 0 -0.855011 -0.25533 0 -0.819367 -0.238128 0 -0.786128 -0.221656 0 -0.755198 -0.205863 0 -0.726487 -0.1907 0 -0.699913 -0.176119 0 -0.675397 -0.162075 0 -0.65287 -0.148526 0 -0.632266 -0.135428 0 -0.613522 -0.122742 0 -0.596586 -0.11043 0 -0.581409 -0.0984533 0 -0.567945 -0.0867779 0 -0.556157 -0.0753634 0 -0.54601 -0.0641778 0 -0.537472 -0.0531876 0 -0.530521 -0.0423569 0 -0.525136 -0.031657 0 -0.5213 -0.0210516 0 -0.519003 -0.0105108 0 -0.518238 9.10601e-07 0 627.963 -1.26427e-07 0 467.668 -242.363 0 306.102 -285.175 0 208.803 -281.192 0 142.825 -264.072 0 96.5904 -245.695 0 62.1525 -226.712 0 36.168 -208.91 0 16.0902 -192.095 0 0.49758 -176.586 0 -11.6969 -162.247 0 -21.2237 -149.084 0 -28.6443 -136.994 0 -34.3758 -125.917 0 -38.7444 -115.766 0 -42.0056 -106.473 0 -44.3635 -97.9636 0 -45.9821 -90.1736 0 -46.9953 -83.0414 0 -47.5124 -76.5106 0 -47.6237 -70.5294 0 -47.4039 -65.05 0 -46.9152 -60.029 0 -46.2095 -55.4264 0 -45.3301 -51.2058 0 -44.3135 -47.334 0 -43.1902 -43.7806 0 -41.9859 -40.518 0 -40.7221 -37.5209 0 -39.4169 -34.7665 0 -38.0854 -32.2337 0 -36.7404 -29.9035 0 -35.3922 -27.7584 0 -34.0497 -25.7828 0 -32.7202 -23.9621 0 -31.4095 -22.2833 0 -30.1225 -20.7343 0 -28.8631 -19.3042 0 -27.6342 -17.9831 0 -26.4383 -16.762 0 -25.2772 -15.6325 0 -24.1521 -14.5872 0 -23.0639 -13.6191 0 -22.0132 -12.722 0 -21 -11.8902 0 -20.0245 -11.1184 0 -19.0862 -10.4018 0 -18.1849 -9.73607 0 -17.3198 -9.11723 0 -16.4903 -8.54163 0 -15.6955 -8.0059 0 -14.9347 -7.507 0 -14.2069 -7.04211 0 -13.5111 -6.60867 0 -12.8464 -6.20431 0 -12.2116 -5.82688 0 -11.6057 -5.47439 0 -11.0278 -5.14501 0 -10.4768 -4.83707 0 -9.95156 -4.54902 0 -9.4512 -4.27944 0 -8.97467 -4.02703 0 -8.521 -3.79057 0 -8.08924 -3.56897 0 -7.67844 -3.36118 0 -7.28771 -3.16627 0 -6.91617 -2.98336 0 -6.56296 -2.81164 0 -6.22726 -2.65035 0 -5.90828 -2.49881 0 -5.60525 -2.35638 0 -5.31744 -2.22245 0 -5.04413 -2.09648 0 -4.78465 -1.97794 0 -4.53835 -1.86637 0 -4.30459 -1.76131 0 -4.08277 -1.66237 0 -3.87234 -1.56914 0 -3.67272 -1.48128 0 -3.48341 -1.39845 0 -3.30389 -1.32033 0 -3.1337 -1.24665 0 -2.97237 -1.17712 0 -2.81948 -1.1115 0 -2.67459 -1.04954 0 -2.53734 -0.991022 0 -2.40732 -0.935743 0 -2.2842 -0.883505 0 -2.16763 -0.834129 0 -2.05728 -0.787438 0 -1.95286 -0.743275 0 -1.85406 -0.701488 0 -1.76061 -0.661938 0 -1.67226 -0.624486 0 -1.58874 -0.589014 0 -1.50983 -0.555396 0 -1.4353 -0.523529 0 -1.36495 -0.4933 0 -1.29856 -0.464615 0 -1.23595 -0.437379 0 -1.17695 -0.411506 0 -1.12138 -0.386909 0 -1.06908 -0.363514 0 -1.01991 -0.34124 0 -0.973725 -0.320019 0 -0.930388 -0.299785 0 -0.889776 -0.280473 0 -0.851772 -0.262023 0 -0.816267 -0.244374 0 -0.783159 -0.227475 0 -0.752348 -0.211272 0 -0.723749 -0.195713 0 -0.697278 -0.180752 0 -0.672857 -0.166341 0 -0.650417 -0.152437 0 -0.629892 -0.138997 0 -0.611221 -0.125978 0 -0.59435 -0.113342 0 -0.579231 -0.101052 0 -0.56582 -0.0890667 0 -0.554077 -0.077353 0 -0.543968 -0.0658721 0 -0.535464 -0.0545916 0 -0.528539 -0.0434767 0 -0.523174 -0.032492 0 -0.519353 -0.0216076 0 -0.517064 -0.0107878 0 -0.516303 -1.26893e-07 0 564.915 1.41561e-07 0 446.472 -210.269 0 304.337 -263.859 0 210.55 -266.837 0 145.922 -254.335 0 99.8094 -238.434 0 65.3857 -221.335 0 39.2177 -204.739 0 18.958 -188.881 0 3.15299 -174.062 0 -9.24217 -160.276 0 -18.9651 -147.539 0 -26.5684 -135.794 0 -32.4708 -124.992 0 -36.9973 -115.066 0 -40.4042 -105.955 0 -42.8959 -97.5949 0 -44.6374 -89.9273 0 -45.7631 -82.8955 0 -46.3832 -76.447 0 -46.5887 -70.5331 0 -46.4551 -65.1087 0 -46.0451 -60.1322 0 -45.4113 -55.5655 0 -44.5977 -51.3735 0 -43.6411 -47.5241 0 -42.5728 -43.9881 0 -41.4186 -40.7386 0 -40.2006 -37.751 0 -38.9373 -35.003 0 -37.6441 -32.474 0 -36.3341 -30.1455 0 -35.018 -28.0005 0 -33.7048 -26.0234 0 -32.4021 -24.2 0 -31.116 -22.5174 0 -29.8516 -20.9639 0 -28.6127 -19.5287 0 -27.4028 -18.202 0 -26.2243 -16.9748 0 -25.0791 -15.839 0 -23.9687 -14.7872 0 -22.8939 -13.8124 0 -21.8556 -12.9086 0 -20.8538 -12.07 0 -19.8887 -11.2914 0 -18.9601 -10.5682 0 -18.0676 -9.89586 0 -17.2107 -9.27055 0 -16.3887 -8.6886 0 -15.601 -8.14668 0 -14.8467 -7.64173 0 -14.1248 -7.17098 0 -13.4345 -6.73184 0 -12.7749 -6.32198 0 -12.1448 -5.93922 0 -11.5433 -5.58159 0 -10.9695 -5.24726 0 -10.4222 -4.93455 0 -9.9005 -4.64191 0 -9.40339 -4.36793 0 -8.92989 -4.1113 0 -8.47903 -3.87079 0 -8.04989 -3.64531 0 -7.64153 -3.43381 0 -7.25307 -3.23535 0 -6.88365 -3.04904 0 -6.53242 -2.87407 0 -6.19857 -2.70968 0 -5.88131 -2.55519 0 -5.57989 -2.40993 0 -5.29359 -2.27331 0 -5.02169 -2.14477 0 -4.76353 -2.02379 0 -4.51846 -1.90989 0 -4.28585 -1.80261 0 -4.06513 -1.70155 0 -3.8557 -1.60631 0 -3.65704 -1.51654 0 -3.46862 -1.43188 0 -3.28995 -1.35204 0 -3.12054 -1.27671 0 -2.95995 -1.20561 0 -2.80775 -1.13849 0 -2.66352 -1.07512 0 -2.52688 -1.01525 0 -2.39744 -0.958696 0 -2.27486 -0.905239 0 -2.1588 -0.854703 0 -2.04893 -0.806912 0 -1.94495 -0.761703 0 -1.84658 -0.718921 0 -1.75353 -0.678423 0 -1.66555 -0.640072 0 -1.58239 -0.603741 0 -1.50381 -0.569311 0 -1.42959 -0.536666 0 -1.35953 -0.505701 0 -1.29341 -0.476312 0 -1.23107 -0.448408 0 -1.17231 -0.421896 0 -1.11696 -0.396691 0 -1.06488 -0.372715 0 -1.01591 -0.349887 0 -0.969912 -0.328138 0 -0.92675 -0.307398 0 -0.886302 -0.287603 0 -0.848451 -0.268689 0 -0.813088 -0.250597 0 -0.780113 -0.233272 0 -0.749426 -0.21666 0 -0.720941 -0.200707 0 -0.694575 -0.185368 0 -0.670252 -0.170591 0 -0.647901 -0.156334 0 -0.627457 -0.142552 0 -0.60886 -0.129202 0 -0.592057 -0.116244 0 -0.576997 -0.103639 0 -0.563639 -0.091348 0 -0.551942 -0.0793348 0 -0.541874 -0.0675608 0 -0.533403 -0.0559908 0 -0.526505 -0.0445908 0 -0.521162 -0.0333255 0 -0.517355 -0.0221617 0 -0.515076 -0.0110645 0 -0.514318 -3.35742e-07 0 515.386 4.79631e-08 0 425.164 -183.721 0 300.782 -243.948 0 211.403 -252.951 0 148.399 -244.677 0 102.661 -231.221 0 68.343 -215.931 0 42.0776 -200.548 0 21.6779 -185.63 0 5.6974 -171.505 0 -6.87575 -158.27 0 -16.776 -145.961 0 -24.5486 -134.563 0 -30.6111 -124.038 0 -35.2871 -114.339 0 -38.8329 -105.412 0 -41.453 -97.2033 0 -43.3129 -89.6599 0 -44.5475 -82.7303 0 -45.2677 -76.3657 0 -45.5649 -70.5206 0 -45.5154 -65.1525 0 -45.1824 -60.2218 0 -44.6191 -55.6921 0 -43.87 -51.5298 0 -42.9725 -47.704 0 -41.9581 -44.1862 0 -40.8534 -40.9505 0 -39.6806 -37.9731 0 -38.4587 -35.2322 0 -37.2034 -32.7077 0 -35.928 -30.3816 0 -34.6436 -28.237 0 -33.3596 -26.2588 0 -32.0835 -24.4332 0 -30.8219 -22.7473 0 -29.5798 -21.1896 0 -28.3615 -19.7496 0 -27.1704 -18.4175 0 -26.0092 -17.1846 0 -24.8799 -16.0427 0 -23.784 -14.9846 0 -22.7227 -14.0034 0 -21.6967 -13.093 0 -20.7063 -12.2478 0 -19.7517 -11.4627 0 -18.8328 -10.7329 0 -17.9492 -10.0541 0 -17.1005 -9.42244 0 -16.2861 -8.83425 0 -15.5054 -8.28623 0 -14.7575 -7.77534 0 -14.0416 -7.2988 0 -13.3569 -6.85405 0 -12.7024 -6.43875 0 -12.0771 -6.05073 0 -11.48 -5.68802 0 -10.9103 -5.34879 0 -10.3668 -5.03136 0 -9.84863 -4.73419 0 -9.3548 -4.45585 0 -8.88436 -4.19503 0 -8.43635 -3.95052 0 -8.00985 -3.72118 0 -7.60396 -3.506 0 -7.21781 -3.30402 0 -6.85053 -3.11434 0 -6.5013 -2.93615 0 -6.16932 -2.76869 0 -5.85382 -2.61126 0 -5.55404 -2.46319 0 -5.26926 -2.3239 0 -4.9988 -2.19281 0 -4.74198 -2.0694 0 -4.49816 -1.95318 0 -4.26673 -1.8437 0 -4.04711 -1.74054 0 -3.83872 -1.6433 0 -3.64103 -1.55163 0 -3.45352 -1.46516 0 -3.2757 -1.38359 0 -3.10709 -1.30662 0 -2.94726 -1.23397 0 -2.79576 -1.16537 0 -2.6522 -1.10058 0 -2.51618 -1.03938 0 -2.38733 -0.981544 0 -2.26531 -0.926876 0 -2.14976 -0.875187 0 -2.04038 -0.8263 0 -1.93687 -0.780049 0 -1.83893 -0.736277 0 -1.74628 -0.694836 0 -1.65869 -0.65559 0 -1.57588 -0.618407 0 -1.49764 -0.583165 0 -1.42374 -0.549748 0 -1.35398 -0.518048 0 -1.28815 -0.48796 0 -1.22606 -0.459389 0 -1.16755 -0.432242 0 -1.11244 -0.406432 0 -1.06058 -0.381877 0 -1.01181 -0.358499 0 -0.966004 -0.336223 0 -0.923022 -0.31498 0 -0.882742 -0.294702 0 -0.845047 -0.275327 0 -0.809831 -0.256794 0 -0.776991 -0.239045 0 -0.746431 -0.222025 0 -0.718062 -0.20568 0 -0.691805 -0.189963 0 -0.667581 -0.174824 0 -0.645321 -0.160215 0 -0.624962 -0.146092 0 -0.60644 -0.132412 0 -0.589705 -0.119133 0 -0.574707 -0.106216 0 -0.561403 -0.0936202 0 -0.549754 -0.0813085 0 -0.539726 -0.0692415 0 -0.53129 -0.0573849 0 -0.52442 -0.0457012 0 -0.519098 -0.0341559 0 -0.515307 -0.0227126 0 -0.513037 -0.0113397 0 -0.512282 -1.88127e-07 0 475.045 6.61239e-08 0 404.521 -161.722 0 295.837 -225.507 0 211.438 -239.612 0 150.296 -235.151 0 105.152 -224.077 0 71.0321 -210.52 0 44.7483 -196.346 0 24.2516 -182.35 0 8.13056 -168.919 0 -4.59747 -156.232 0 -14.6567 -144.354 0 -22.5851 -133.302 0 -28.7969 -123.057 0 -33.6141 -113.586 0 -37.2921 -104.845 0 -40.0352 -96.7897 0 -42.009 -89.3723 0 -43.3489 -82.5464 0 -44.1661 -76.2673 0 -44.5525 -70.4924 0 -44.5849 -65.1819 0 -44.3272 -60.2982 0 -43.833 -55.8066 0 -43.1471 -51.675 0 -42.3076 -47.8736 0 -41.3464 -44.375 0 -40.2904 -41.154 0 -39.1622 -38.1875 0 -37.9812 -35.4543 0 -36.7633 -32.9349 0 -35.5222 -30.6116 0 -34.2693 -28.468 0 -33.0141 -26.4893 0 -31.7644 -24.6617 0 -30.527 -22.9729 0 -29.3072 -21.4115 0 -28.1093 -19.967 0 -26.937 -18.6298 0 -25.793 -17.3914 0 -24.6795 -16.2437 0 -23.5983 -15.1794 0 -22.5504 -14.192 0 -21.5367 -13.2752 0 -20.5577 -12.4236 0 -19.6135 -11.6321 0 -18.7043 -10.8959 0 -17.8296 -10.2108 0 -16.9891 -9.57289 0 -16.1824 -8.97857 0 -15.4087 -8.42455 0 -14.6673 -7.90781 0 -13.9575 -7.42557 0 -13.2783 -6.97529 0 -12.6289 -6.55461 0 -12.0084 -6.1614 0 -11.4158 -5.79367 0 -10.8502 -5.4496 0 -10.3105 -5.12751 0 -9.79595 -4.82585 0 -9.30544 -4.54319 0 -8.83808 -4.27823 0 -8.39295 -4.02974 0 -7.96913 -3.79659 0 -7.56574 -3.57776 0 -7.18192 -3.37228 0 -6.81681 -3.17926 0 -6.46962 -2.99788 0 -6.13954 -2.82736 0 -5.82581 -2.66701 0 -5.52768 -2.51617 0 -5.24446 -2.37422 0 -4.97545 -2.2406 0 -4.71999 -2.11477 0 -4.47745 -1.99625 0 -4.24722 -1.88458 0 -4.02872 -1.77934 0 -3.82138 -1.68011 0 -3.62467 -1.58654 0 -3.43809 -1.49828 0 -3.26114 -1.41499 0 -3.09335 -1.33639 0 -2.93429 -1.26219 0 -2.78351 -1.19212 0 -2.64063 -1.12593 0 -2.50525 -1.06339 0 -2.377 -1.00429 0 -2.25554 -0.948414 0 -2.14052 -0.895579 0 -2.03164 -0.845601 0 -1.9286 -0.798313 0 -1.8311 -0.753556 0 -1.73887 -0.711177 0 -1.65166 -0.671039 0 -1.56923 -0.633008 0 -1.49133 -0.596959 0 -1.41776 -0.562774 0 -1.3483 -0.530342 0 -1.28276 -0.499559 0 -1.22094 -0.470323 0 -1.16268 -0.442544 0 -1.10781 -0.416131 0 -1.05617 -0.391001 0 -1.00762 -0.367074 0 -0.962003 -0.344273 0 -0.919204 -0.322529 0 -0.879096 -0.301772 0 -0.841562 -0.281938 0 -0.806495 -0.262965 0 -0.773795 -0.244793 0 -0.743363 -0.227368 0 -0.715114 -0.210633 0 -0.688968 -0.194541 0 -0.664846 -0.179039 0 -0.642679 -0.164081 0 -0.622405 -0.149617 0 -0.603961 -0.135609 0 -0.587296 -0.122011 0 -0.572361 -0.108783 0 -0.559112 -0.0958827 0 -0.547512 -0.0832738 0 -0.537526 -0.0709163 0 -0.529125 -0.0587726 0 -0.522284 -0.0468065 0 -0.516984 -0.0349823 0 -0.513209 -0.0232618 0 -0.510948 -0.0116142 0 -0.510197 1.49477e-06 0 441.249 4.3679e-07 0 384.908 -143.398 0 289.869 -208.549 0 210.734 -226.864 0 151.657 -225.807 0 107.291 -217.02 0 73.4617 -205.121 0 47.2311 -192.14 0 26.681 -179.048 0 10.4526 -166.31 0 -2.40708 -154.166 0 -12.6074 -142.72 0 -20.6781 -132.015 0 -27.0287 -122.05 0 -31.9787 -112.808 0 -35.7821 -104.256 0 -38.6427 -96.3551 0 -40.7261 -89.0651 0 -42.1675 -82.3444 0 -43.0786 -76.1521 0 -43.5518 -70.4489 0 -43.6641 -65.1971 0 -43.4799 -60.3616 0 -43.0531 -55.9093 0 -42.4294 -51.8093 0 -41.6468 -48.0332 0 -40.7379 -44.5545 0 -39.7297 -41.349 0 -38.6456 -38.3941 0 -37.5048 -35.6693 0 -36.324 -33.1556 0 -35.1168 -30.8357 0 -33.895 -28.6936 0 -32.6683 -26.7147 0 -31.4449 -24.8857 0 -30.2316 -23.1944 0 -29.0338 -21.6295 0 -27.8563 -20.1808 0 -26.7026 -18.8388 0 -25.5758 -17.5952 0 -24.4781 -16.4419 0 -23.4114 -15.3717 0 -22.3769 -14.3782 0 -21.3755 -13.4553 0 -20.4079 -12.5975 0 -19.4742 -11.7996 0 -18.5746 -11.0572 0 -17.7089 -10.3659 0 -16.8766 -9.72189 0 -16.0775 -9.12156 0 -15.3109 -8.56165 0 -14.576 -8.03914 0 -13.8722 -7.55129 0 -13.1987 -7.09554 0 -12.5545 -6.66958 0 -11.9388 -6.27123 0 -11.3507 -5.89855 0 -10.7892 -5.54969 0 -10.2535 -5.22298 0 -9.74247 -4.91688 0 -9.25531 -4.62995 0 -8.79107 -4.36088 0 -8.34884 -4.10845 0 -7.92773 -3.87153 0 -7.52687 -3.64908 0 -7.1454 -3.44013 0 -6.78251 -3.2438 0 -6.43737 -3.05924 0 -6.10921 -2.8857 0 -5.79728 -2.72246 0 -5.50084 -2.56885 0 -5.21919 -2.42426 0 -4.95166 -2.28813 0 -4.69758 -2.15991 0 -4.45634 -2.0391 0 -4.22732 -1.92526 0 -4.00995 -1.81793 0 -3.80369 -1.71673 0 -3.60799 -1.62128 0 -3.42235 -1.53123 0 -3.24628 -1.44624 0 -3.07933 -1.36602 0 -2.92104 -1.29027 0 -2.771 -1.21874 0 -2.62881 -1.15115 0 -2.49408 -1.08729 0 -2.36644 -1.02692 0 -2.24555 -0.969851 0 -2.13108 -0.915876 0 -2.02271 -0.864814 0 -1.92014 -0.816495 0 -1.82309 -0.770756 0 -1.73129 -0.727444 0 -1.64448 -0.686419 0 -1.56242 -0.647544 0 -1.48488 -0.610691 0 -1.41164 -0.575742 0 -1.34249 -0.542584 0 -1.27724 -0.511104 0 -1.2157 -0.48121 0 -1.1577 -0.452801 0 -1.10308 -0.425788 0 -1.05166 -0.400086 0 -1.00332 -0.375611 0 -0.95791 -0.352289 0 -0.915298 -0.330047 0 -0.875366 -0.308811 0 -0.837995 -0.288521 0 -0.803081 -0.269109 0 -0.770523 -0.250518 0 -0.740223 -0.232688 0 -0.712097 -0.215566 0 -0.686064 -0.199099 0 -0.662046 -0.183237 0 -0.639975 -0.167928 0 -0.619788 -0.153129 0 -0.601423 -0.138791 0 -0.58483 -0.124876 0 -0.569959 -0.111338 0 -0.556767 -0.0981358 0 -0.545217 -0.0852312 0 -0.535274 -0.0725833 0 -0.526908 -0.0601544 0 -0.520097 -0.0479071 0 -0.51482 -0.0358043 0 -0.511061 -0.0238098 0 -0.50881 -0.0118867 0 -0.508061 -3.91155e-08 0 412.313 -2.8871e-08 0 366.467 -128.034 0 283.185 -193.04 0 209.378 -214.733 0 152.526 -216.689 0 109.09 -210.065 0 75.6406 -199.751 0 49.5287 -187.938 0 28.9681 -175.734 0 12.6643 -163.681 0 -0.304212 -152.077 0 -10.6282 -141.061 0 -18.8277 -130.703 0 -25.3066 -121.02 0 -30.381 -112.008 0 -34.3031 -103.645 0 -37.2758 -95.9002 0 -39.4642 -88.7391 0 -41.0036 -82.125 0 -42.0056 -76.0209 0 -42.563 -70.3904 0 -42.753 -65.1987 0 -42.6405 -60.4124 0 -42.2798 -56.0003 0 -41.7168 -51.9329 0 -40.9902 -48.183 0 -40.1326 -44.7251 0 -39.1716 -41.5357 0 -38.1308 -38.5931 0 -37.0298 -35.8773 0 -35.8855 -33.3699 0 -34.7119 -31.0539 0 -33.5209 -28.9138 0 -32.3225 -26.9352 0 -31.1251 -25.1052 0 -29.9356 -23.4116 0 -28.7598 -21.8436 0 -27.6025 -20.391 0 -26.4674 -19.0446 0 -25.3576 -17.796 0 -24.2757 -16.6373 0 -23.2235 -15.5615 0 -22.2023 -14.5622 0 -21.2132 -13.6332 0 -20.257 -12.7693 0 -19.3338 -11.9654 0 -18.4438 -11.2168 0 -17.587 -10.5195 0 -16.7631 -9.86946 0 -15.9716 -9.26322 0 -15.212 -8.69751 0 -14.4838 -8.16933 0 -13.786 -7.67595 0 -13.1181 -7.21482 0 -12.4792 -6.78362 0 -11.8683 -6.38022 0 -11.2847 -6.00263 0 -10.7275 -5.64904 0 -10.1956 -5.31777 0 -9.68821 -5.00727 0 -9.20443 -4.71612 0 -8.74334 -4.44299 0 -8.30404 -4.18665 0 -7.88567 -3.94599 0 -7.48736 -3.71995 0 -7.10828 -3.50757 0 -6.74761 -3.30794 0 -6.40456 -3.12024 0 -6.07834 -2.9437 0 -5.76824 -2.77758 0 -5.4735 -2.62123 0 -5.19345 -2.47403 0 -4.92742 -2.3354 0 -4.67474 -2.20479 0 -4.43481 -2.08172 0 -4.20703 -1.96571 0 -3.99083 -1.85633 0 -3.78565 -1.75317 0 -3.59097 -1.65585 0 -3.40628 -1.56401 0 -3.23112 -1.47733 0 -3.06501 -1.3955 0 -2.90752 -1.31822 0 -2.75824 -1.24522 0 -2.61674 -1.17625 0 -2.48268 -1.11107 0 -2.35566 -1.04945 0 -2.23536 -0.991186 0 -2.12144 -0.936077 0 -2.01358 -0.883936 0 -1.9115 -0.83459 0 -1.81491 -0.787875 0 -1.72354 -0.743637 0 -1.63714 -0.701728 0 -1.55547 -0.662013 0 -1.47829 -0.624361 0 -1.40538 -0.588651 0 -1.33655 -0.554767 0 -1.2716 -0.522599 0 -1.21035 -0.492048 0 -1.15261 -0.463013 0 -1.09823 -0.435402 0 -1.04705 -0.409129 0 -0.99893 -0.384112 0 -0.953723 -0.36027 0 -0.911304 -0.33753 0 -0.87155 -0.31582 0 -0.834348 -0.295074 0 -0.799589 -0.275227 0 -0.767176 -0.256216 0 -0.737011 -0.237985 0 -0.70901 -0.220476 0 -0.683093 -0.203637 0 -0.659181 -0.187414 0 -0.637208 -0.171759 0 -0.61711 -0.156623 0 -0.598827 -0.141963 0 -0.582307 -0.127729 0 -0.567502 -0.113882 0 -0.554368 -0.10038 0 -0.542869 -0.0871807 0 -0.532969 -0.0742428 0 -0.524641 -0.061531 0 -0.517859 -0.049003 0 -0.512605 -0.0366246 0 -0.508863 -0.0243549 0 -0.506622 -0.01216 0 -0.505877 -2.72878e-07 0 387.117 -1.45286e-07 0 349.225 -115.053 0 276.032 -178.911 0 207.458 -203.231 0 152.947 -207.831 0 110.565 -203.23 0 77.5778 -194.426 0 51.6447 -183.748 0 31.1153 -172.413 0 14.7664 -161.038 0 1.71166 -149.968 0 -8.7188 -139.381 0 -17.034 -129.368 0 -23.6307 -119.968 0 -28.8213 -111.187 0 -32.8554 -103.014 0 -35.9348 -95.426 0 -38.2238 -88.395 0 -39.8574 -81.8887 0 -40.9473 -75.8739 0 -41.5863 -70.3174 0 -41.8519 -65.1868 0 -41.8093 -60.4508 0 -41.5132 -56.0799 0 -41.0097 -52.046 0 -40.3378 -48.3231 0 -39.5307 -44.8868 0 -38.6161 -41.7143 0 -37.618 -38.7847 0 -36.5563 -36.0785 0 -35.448 -33.5779 0 -34.3075 -31.2663 0 -33.147 -29.1286 0 -31.9767 -27.1508 0 -30.805 -25.3201 0 -29.6392 -23.6248 0 -28.4852 -22.054 0 -27.3479 -20.5978 0 -26.2313 -19.2472 0 -25.1386 -17.9938 0 -24.0723 -16.83 0 -23.0345 -15.7488 0 -22.0266 -14.7438 0 -21.0499 -13.809 0 -20.1049 -12.9392 0 -19.1922 -12.1293 0 -18.312 -11.3748 0 -17.4641 -10.6715 0 -16.6484 -10.0156 0 -15.8646 -9.40353 0 -15.1122 -8.83212 0 -14.3905 -8.29837 0 -13.6989 -7.79954 0 -13.0366 -7.3331 0 -12.4029 -6.89675 0 -11.797 -6.48835 0 -11.2179 -6.10592 0 -10.6648 -5.7476