<?xml version="1.0"?> 
<VTKFile type="StructuredGrid" version="0.1"> 
<StructuredGrid WholeExtent="0 127 0 127 0 0"> 
<Piece Extent="0 127 0 127 0 0"> 
<PointData>
<DataArray type="Float32" Name="E" format="ascii" NumberOfComponents="3"> 
-1.70395e+06 0 0 -1.70425e+06 10654.3 0 -1.70514e+06 21340.2 0 -1.70663e+06 32089.4 0 -1.7087e+06 42933.7 0 -1.71136e+06 53904.5 0 -1.7146e+06 65033.4 0 -1.7184e+06 76351.9 0 -1.72276e+06 87891.1 0 -1.72766e+06 99682 0 -1.73308e+06 111755 0 -1.73902e+06 124139 0 -1.74544e+06 136863 0 -1.75233e+06 149956 0 -1.75966e+06 163442 0 -1.7674e+06 177347 0 -1.77553e+06 191692 0 -1.78402e+06 206498 0 -1.79282e+06 221783 0 -1.80192e+06 237561 0 -1.81127e+06 253844 0 -1.82084e+06 270641 0 -1.83059e+06 287957 0 -1.84048e+06 305796 0 -1.85048e+06 324155 0 -1.86056e+06 343032 0 -1.87068e+06 362419 0 -1.8808e+06 382307 0 -1.8909e+06 402684 0 -1.90095e+06 423536 0 -1.91092e+06 444847 0 -1.92078e+06 466599 0 -1.93051e+06 488773 0 -1.94009e+06 511350 0 -1.94951e+06 534309 0 -1.95874e+06 557629 0 -1.96777e+06 581288 0 -1.97659e+06 605265 0 -1.98518e+06 629539 0 -1.99355e+06 654089 0 -2.00167e+06 678895 0 -2.00955e+06 703936 0 -2.01718e+06 729193 0 -2.02455e+06 754647 0 -2.03166e+06 780279 0 -2.03851e+06 806071 0 -2.04509e+06 832007 0 -2.05141e+06 858070 0 -2.05746e+06 884243 0 -2.06325e+06 910510 0 -2.06876e+06 936857 0 -2.07401e+06 963268 0 -2.07898e+06 989729 0 -2.08369e+06 1.01622e+06 0 -2.08812e+06 1.04274e+06 0 -2.09229e+06 1.06926e+06 0 -2.09618e+06 1.09578e+06 0 -2.0998e+06 1.12227e+06 0 -2.10315e+06 1.14873e+06 0 -2.10623e+06 1.17513e+06 0 -2.10903e+06 1.20147e+06 0 -2.11156e+06 1.22772e+06 0 -2.11382e+06 1.25388e+06 0 -2.11579e+06 1.27993e+06 0 -2.11749e+06 1.30584e+06 0 -2.11891e+06 1.3316e+06 0 -2.12004e+06 1.3572e+06 0 -2.1209e+06 1.3826e+06 0 -2.12147e+06 1.4078e+06 0 -2.12176e+06 1.43277e+06 0 -2.12176e+06 1.45749e+06 0 -2.12148e+06 1.48193e+06 0 -2.12091e+06 1.50607e+06 0 -2.12006e+06 1.52988e+06 0 -2.11893e+06 1.55333e+06 0 -2.11751e+06 1.5764e+06 0 -2.11582e+06 1.59904e+06 0 -2.11385e+06 1.62124e+06 0 -2.11161e+06 1.64294e+06 0 -2.10911e+06 1.66413e+06 0 -2.10635e+06 1.68475e+06 0 -2.10335e+06 1.70476e+06 0 -2.10011e+06 1.72413e+06 0 -2.09665e+06 1.74282e+06 0 -2.09299e+06 1.76077e+06 0 -2.08914e+06 1.77794e+06 0 -2.08513e+06 1.79428e+06 0 -2.08097e+06 1.80974e+06 0 -2.0767e+06 1.82428e+06 0 -2.07233e+06 1.83784e+06 0 -2.06791e+06 1.85038e+06 0 -2.06346e+06 1.86183e+06 0 -2.05902e+06 1.87216e+06 0 -2.05463e+06 1.88131e+06 0 -2.05031e+06 1.88922e+06 0 -2.04612e+06 1.89585e+06 0 -2.04209e+06 1.90115e+06 0 -2.03827e+06 1.90505e+06 0 -2.03469e+06 1.90753e+06 0 -2.03139e+06 1.90851e+06 0 -2.02841e+06 1.90796e+06 0 -2.02579e+06 1.90582e+06 0 -2.02358e+06 1.90204e+06 0 -2.02179e+06 1.89657e+06 0 -2.02048e+06 1.88935e+06 0 -2.01966e+06 1.88035e+06 0 -2.01937e+06 1.8695e+06 0 -2.01964e+06 1.85678e+06 0 -2.02048e+06 1.84214e+06 0 -2.02193e+06 1.82556e+06 0 -2.02401e+06 1.80703e+06 0 -2.02674e+06 1.78657e+06 0 -2.03013e+06 1.76422e+06 0 -2.03422e+06 1.74009e+06 0 -2.03901e+06 1.71434e+06 0 -2.04455e+06 1.68722e+06 0 -2.05086e+06 1.6592e+06 0 -2.05803e+06 1.6308e+06 0 -2.06606e+06 1.6031e+06 0 -2.07525e+06 1.57719e+06 0 -2.08547e+06 1.55562e+06 0 -2.09785e+06 1.54072e+06 0 -2.11146e+06 1.53914e+06 0 -2.1312e+06 1.55651e+06 0 -2.15226e+06 1.61684e+06 0 -2.19943e+06 1.73658e+06 0 -2.24963e+06 2.09531e+06 0 -2.84774e+06 4.03167e+06 0 -1.70281e+06 0 0 -1.7031e+06 10690.8 0 -1.70398e+06 21413.5 0 -1.70544e+06 32199.3 0 -1.70749e+06 43079.5 0 -1.71012e+06 54085.2 0 -1.71331e+06 65247.6 0 -1.71706e+06 76597.5 0 -1.72137e+06 88165.8 0 -1.72621e+06 99982.7 0 -1.73157e+06 112078 0 -1.73743e+06 124481 0 -1.74378e+06 137220 0 -1.75058e+06 150322 0 -1.75782e+06 163813 0 -1.76548e+06 177717 0 -1.77351e+06 192055 0 -1.7819e+06 206848 0 -1.79061e+06 222112 0 -1.7996e+06 237863 0 -1.80885e+06 254113 0 -1.81831e+06 270869 0 -1.82796e+06 288138 0 -1.83775e+06 305922 0 -1.84765e+06 324220 0 -1.85763e+06 343029 0 -1.86764e+06 362343 0 -1.87767e+06 382152 0 -1.88768e+06 402445 0 -1.89764e+06 423208 0 -1.90752e+06 444426 0 -1.9173e+06 466080 0 -1.92696e+06 488154 0 -1.93647e+06 510627 0 -1.94582e+06 533480 0 -1.95498e+06 556691 0 -1.96396e+06 580240 0 -1.97272e+06 604105 0 -1.98127e+06 628267 0 -1.98959e+06 652704 0 -1.99767e+06 677395 0 -2.00551e+06 702322 0 -2.0131e+06 727465 0 -2.02045e+06 752805 0 -2.02753e+06 778323 0 -2.03436e+06 804003 0 -2.04092e+06 829826 0 -2.04723e+06 855777 0 -2.05327e+06 881840 0 -2.05905e+06 907998 0 -2.06456e+06 934236 0 -2.0698e+06 960540 0 -2.07478e+06 986894 0 -2.07949e+06 1.01329e+06 0 -2.08394e+06 1.0397e+06 0 -2.08811e+06 1.06612e+06 0 -2.09202e+06 1.09253e+06 0 -2.09566e+06 1.11893e+06 0 -2.09904e+06 1.14529e+06 0 -2.10214e+06 1.1716e+06 0 -2.10497e+06 1.19784e+06 0 -2.10753e+06 1.22401e+06 0 -2.10982e+06 1.25008e+06 0 -2.11184e+06 1.27604e+06 0 -2.11358e+06 1.30187e+06 0 -2.11505e+06 1.32755e+06 0 -2.11624e+06 1.35307e+06 0 -2.11716e+06 1.37841e+06 0 -2.11779e+06 1.40354e+06 0 -2.11815e+06 1.42845e+06 0 -2.11823e+06 1.45311e+06 0 -2.11803e+06 1.4775e+06 0 -2.11755e+06 1.50159e+06 0 -2.11679e+06 1.52536e+06 0 -2.11575e+06 1.54878e+06 0 -2.11443e+06 1.57183e+06 0 -2.11285e+06 1.59446e+06 0 -2.11099e+06 1.61664e+06 0 -2.10887e+06 1.63835e+06 0 -2.1065e+06 1.65955e+06 0 -2.10387e+06 1.68019e+06 0 -2.10101e+06 1.70025e+06 0 -2.09791e+06 1.71967e+06 0 -2.0946e+06 1.73842e+06 0 -2.0911e+06 1.75645e+06 0 -2.08741e+06 1.77372e+06 0 -2.08356e+06 1.79018e+06 0 -2.07957e+06 1.80578e+06 0 -2.07546e+06 1.82047e+06 0 -2.07127e+06 1.8342e+06 0 -2.06702e+06 1.84694e+06 0 -2.06275e+06 1.85861e+06 0 -2.05849e+06 1.86918e+06 0 -2.05427e+06 1.87859e+06 0 -2.05014e+06 1.88679e+06 0 -2.04612e+06 1.89373e+06 0 -2.04227e+06 1.89937e+06 0 -2.03862e+06 1.90364e+06 0 -2.03521e+06 1.90651e+06 0 -2.03208e+06 1.90791e+06 0 -2.02928e+06 1.90781e+06 0 -2.02683e+06 1.90614e+06 0 -2.02478e+06 1.90286e+06 0 -2.02316e+06 1.89791e+06 0 -2.02201e+06 1.89126e+06 0 -2.02136e+06 1.88283e+06 0 -2.02123e+06 1.8726e+06 0 -2.02166e+06 1.86051e+06 0 -2.02267e+06 1.84653e+06 0 -2.02428e+06 1.83063e+06 0 -2.0265e+06 1.81279e+06 0 -2.02937e+06 1.79303e+06 0 -2.03289e+06 1.77137e+06 0 -2.03707e+06 1.74791e+06 0 -2.04192e+06 1.72278e+06 0 -2.04746e+06 1.69622e+06 0 -2.05368e+06 1.66861e+06 0 -2.06062e+06 1.64045e+06 0 -2.06822e+06 1.61266e+06 0 -2.07668e+06 1.58619e+06 0 -2.0857e+06 1.56346e+06 0 -2.09611e+06 1.54593e+06 0 -2.10671e+06 1.5409e+06 0 -2.12039e+06 1.54954e+06 0 -2.1338e+06 1.59806e+06 0 -2.15385e+06 1.6899e+06 0 -2.17396e+06 1.94473e+06 0 -2.13439e+06 2.75206e+06 0 -1.70166e+06 0 0 -1.70194e+06 10726.7 0 -1.70281e+06 21485.4 0 -1.70425e+06 32307.2 0 -1.70627e+06 43222.6 0 -1.70886e+06 54262.5 0 -1.71201e+06 65457.6 0 -1.71572e+06 76838.4 0 -1.71997e+06 88435 0 -1.72475e+06 100278 0 -1.73005e+06 112395 0 -1.73584e+06 124817 0 -1.74211e+06 137570 0 -1.74883e+06 150681 0 -1.75599e+06 164176 0 -1.76356e+06 178078 0 -1.7715e+06 192409 0 -1.77979e+06 207188 0 -1.7884e+06 222433 0 -1.79729e+06 238157 0 -1.80643e+06 254373 0 -1.81579e+06 271089 0 -1.82533e+06 288310 0 -1.83502e+06 306041 0 -1.84482e+06 324279 0 -1.8547e+06 343021 0 -1.86462e+06 362263 0 -1.87455e+06 381993 0 -1.88447e+06 402203 0 -1.89434e+06 422877 0 -1.90414e+06 444002 0 -1.91384e+06 465561 0 -1.92342e+06 487534 0 -1.93285e+06 509905 0 -1.94213e+06 532651 0 -1.95124e+06 555755 0 -1.96015e+06 579194 0 -1.96886e+06 602949 0 -1.97736e+06 626998 0 -1.98563e+06 651322 0 -1.99367e+06 675901 0 -2.00148e+06 700714 0 -2.00904e+06 725743 0 -2.01635e+06 750969 0 -2.02341e+06 776374 0 -2.03021e+06 801941 0 -2.03676e+06 827653 0 -2.04305e+06 853493 0 -2.04908e+06 879445 0 -2.05485e+06 905493 0 -2.06035e+06 931624 0 -2.0656e+06 957820 0 -2.07058e+06 984069 0 -2.07529e+06 1.01036e+06 0 -2.07975e+06 1.03667e+06 0 -2.08394e+06 1.06299e+06 0 -2.08786e+06 1.0893e+06 0 -2.09152e+06 1.1156e+06 0 -2.09492e+06 1.14186e+06 0 -2.09804e+06 1.16808e+06 0 -2.10091e+06 1.19423e+06 0 -2.1035e+06 1.22031e+06 0 -2.10583e+06 1.24629e+06 0 -2.10789e+06 1.27217e+06 0 -2.10967e+06 1.29791e+06 0 -2.11119e+06 1.32352e+06 0 -2.11243e+06 1.34897e+06 0 -2.11341e+06 1.37423e+06 0 -2.11411e+06 1.3993e+06 0 -2.11453e+06 1.42414e+06 0 -2.11468e+06 1.44875e+06 0 -2.11456e+06 1.47308e+06 0 -2.11416e+06 1.49713e+06 0 -2.11349e+06 1.52086e+06 0 -2.11254e+06 1.54425e+06 0 -2.11133e+06 1.56726e+06 0 -2.10985e+06 1.58988e+06 0 -2.1081e+06 1.61206e+06 0 -2.1061e+06 1.63377e+06 0 -2.10385e+06 1.65498e+06 0 -2.10135e+06 1.67564e+06 0 -2.09862e+06 1.69574e+06 0 -2.09567e+06 1.71521e+06 0 -2.09251e+06 1.73402e+06 0 -2.08915e+06 1.75213e+06 0 -2.08561e+06 1.76949e+06 0 -2.08192e+06 1.78606e+06 0 -2.0781e+06 1.80179e+06 0 -2.07416e+06 1.81664e+06 0 -2.07014e+06 1.83054e+06 0 -2.06606e+06 1.84347e+06 0 -2.06196e+06 1.85535e+06 0 -2.05787e+06 1.86616e+06 0 -2.05383e+06 1.87583e+06 0 -2.04987e+06 1.88431e+06 0 -2.04603e+06 1.89156e+06 0 -2.04235e+06 1.89753e+06 0 -2.03887e+06 1.90216e+06 0 -2.03563e+06 1.90541e+06 0 -2.03267e+06 1.90723e+06 0 -2.03003e+06 1.90756e+06 0 -2.02775e+06 1.90636e+06 0 -2.02586e+06 1.90357e+06 0 -2.02441e+06 1.89915e+06 0 -2.02342e+06 1.89304e+06 0 -2.02292e+06 1.88519e+06 0 -2.02296e+06 1.87556e+06 0 -2.02354e+06 1.8641e+06 0 -2.02471e+06 1.85077e+06 0 -2.02647e+06 1.83554e+06 0 -2.02885e+06 1.81839e+06 0 -2.03186e+06 1.79932e+06 0 -2.0355e+06 1.77836e+06 0 -2.0398e+06 1.75557e+06 0 -2.04473e+06 1.73109e+06 0 -2.0503e+06 1.70509e+06 0 -2.05648e+06 1.67793e+06 0 -2.06327e+06 1.65003e+06 0 -2.07058e+06 1.62223e+06 0 -2.07848e+06 1.59533e+06 0 -2.08665e+06 1.57151e+06 0 -2.09546e+06 1.55195e+06 0 -2.10401e+06 1.54292e+06 0 -2.11306e+06 1.54599e+06 0 -2.12107e+06 1.57986e+06 0 -2.12581e+06 1.65442e+06 0 -2.12336e+06 1.83529e+06 0 -2.02057e+06 2.26288e+06 0 -1.70051e+06 0 0 -1.70078e+06 10761.9 0 -1.70163e+06 21556 0 -1.70305e+06 32412.9 0 -1.70504e+06 43363 0 -1.7076e+06 54436.5 0 -1.71071e+06 65663.6 0 -1.71437e+06 77074.5 0 -1.71857e+06 88698.9 0 -1.72329e+06 100566 0 -1.72852e+06 112706 0 -1.73424e+06 125145 0 -1.74044e+06 137912 0 -1.74708e+06 151032 0 -1.75416e+06 164531 0 -1.76163e+06 178431 0 -1.76948e+06 192755 0 -1.77768e+06 207520 0 -1.78619e+06 222744 0 -1.79498e+06 238442 0 -1.80402e+06 254625 0 -1.81328e+06 271301 0 -1.82272e+06 288476 0 -1.8323e+06 306152 0 -1.842e+06 324331 0 -1.85178e+06 343007 0 -1.8616e+06 362177 0 -1.87144e+06 381830 0 -1.88127e+06 401957 0 -1.89105e+06 422544 0 -1.90076e+06 443577 0 -1.91038e+06 465039 0 -1.91988e+06 486914 0 -1.92925e+06 509182 0 -1.93846e+06 531824 0 -1.9475e+06 554820 0 -1.95636e+06 578151 0 -1.96501e+06 601795 0 -1.97346e+06 625733 0 -1.98169e+06 649945 0 -1.98969e+06 674410 0 -1.99745e+06 699111 0 -2.00498e+06 724027 0 -2.01226e+06 749140 0 -2.01929e+06 774432 0 -2.02608e+06 799887 0 -2.03261e+06 825487 0 -2.03888e+06 851216 0 -2.0449e+06 877058 0 -2.05065e+06 902998 0 -2.05616e+06 929020 0 -2.0614e+06 955110 0 -2.06638e+06 981253 0 -2.0711e+06 1.00744e+06 0 -2.07556e+06 1.03364e+06 0 -2.07976e+06 1.05986e+06 0 -2.0837e+06 1.08608e+06 0 -2.08738e+06 1.11228e+06 0 -2.09079e+06 1.13844e+06 0 -2.09394e+06 1.16457e+06 0 -2.09684e+06 1.19063e+06 0 -2.09946e+06 1.21662e+06 0 -2.10182e+06 1.24251e+06 0 -2.10392e+06 1.2683e+06 0 -2.10575e+06 1.29397e+06 0 -2.10732e+06 1.3195e+06 0 -2.10861e+06 1.34487e+06 0 -2.10964e+06 1.37006e+06 0 -2.1104e+06 1.39506e+06 0 -2.11089e+06 1.41985e+06 0 -2.11112e+06 1.44439e+06 0 -2.11107e+06 1.46868e+06 0 -2.11075e+06 1.49268e+06 0 -2.11016e+06 1.51637e+06 0 -2.10931e+06 1.53972e+06 0 -2.10819e+06 1.56271e+06 0 -2.10682e+06 1.58531e+06 0 -2.10518e+06 1.60748e+06 0 -2.1033e+06 1.62919e+06 0 -2.10116e+06 1.65041e+06 0 -2.09879e+06 1.6711e+06 0 -2.09619e+06 1.69123e+06 0 -2.09338e+06 1.71075e+06 0 -2.09036e+06 1.72962e+06 0 -2.08715e+06 1.74781e+06 0 -2.08376e+06 1.76526e+06 0 -2.08023e+06 1.78194e+06 0 -2.07656e+06 1.7978e+06 0 -2.07279e+06 1.81279e+06 0 -2.06893e+06 1.82686e+06 0 -2.06502e+06 1.83997e+06 0 -2.0611e+06 1.85206e+06 0 -2.05718e+06 1.8631e+06 0 -2.0533e+06 1.87302e+06 0 -2.04951e+06 1.88178e+06 0 -2.04584e+06 1.88934e+06 0 -2.04233e+06 1.89563e+06 0 -2.03902e+06 1.90062e+06 0 -2.03595e+06 1.90424e+06 0 -2.03315e+06 1.90646e+06 0 -2.03067e+06 1.90723e+06 0 -2.02855e+06 1.90648e+06 0 -2.02682e+06 1.90418e+06 0 -2.02552e+06 1.90027e+06 0 -2.02469e+06 1.8947e+06 0 -2.02435e+06 1.88743e+06 0 -2.02454e+06 1.87839e+06 0 -2.02528e+06 1.86755e+06 0 -2.0266e+06 1.85487e+06 0 -2.02852e+06 1.8403e+06 0 -2.03104e+06 1.82384e+06 0 -2.0342e+06 1.80546e+06 0 -2.03798e+06 1.78519e+06 0 -2.04239e+06 1.76308e+06 0 -2.04742e+06 1.73924e+06 0 -2.05305e+06 1.71383e+06 0 -2.05924e+06 1.68714e+06 0 -2.06596e+06 1.65956e+06 0 -2.07308e+06 1.63181e+06 0 -2.08059e+06 1.6046e+06 0 -2.08815e+06 1.57979e+06 0 -2.09579e+06 1.55859e+06 0 -2.10279e+06 1.54584e+06 0 -2.10875e+06 1.54412e+06 0 -2.11247e+06 1.56592e+06 0 -2.10929e+06 1.62374e+06 0 -2.09198e+06 1.75456e+06 0 -1.99533e+06 2.05933e+06 0 -1.69935e+06 0 0 -1.69961e+06 10796.4 0 -1.70045e+06 21625.3 0 -1.70185e+06 32516.7 0 -1.70381e+06 43500.6 0 -1.70633e+06 54607 0 -1.70941e+06 65865.5 0 -1.71302e+06 77305.9 0 -1.71717e+06 88957.5 0 -1.72183e+06 100849 0 -1.72699e+06 113010 0 -1.73265e+06 125466 0 -1.73877e+06 138246 0 -1.74533e+06 151375 0 -1.75232e+06 164877 0 -1.75971e+06 178776 0 -1.76746e+06 193092 0 -1.77556e+06 207843 0 -1.78398e+06 223048 0 -1.79267e+06 238719 0 -1.80161e+06 254868 0 -1.81077e+06 271505 0 -1.8201e+06 288633 0 -1.82959e+06 306257 0 -1.83918e+06 324376 0 -1.84886e+06 342987 0 -1.85859e+06 362085 0 -1.86834e+06 381662 0 -1.87807e+06 401707 0 -1.88776e+06 422207 0 -1.89739e+06 443149 0 -1.90693e+06 464517 0 -1.91636e+06 486293 0 -1.92565e+06 508459 0 -1.9348e+06 530997 0 -1.94378e+06 553887 0 -1.95257e+06 577110 0 -1.96117e+06 600644 0 -1.96957e+06 624472 0 -1.97775e+06 648572 0 -1.98571e+06 672925 0 -1.99343e+06 697513 0 -2.00093e+06 722316 0 -2.00818e+06 747317 0 -2.01518e+06 772497 0 -2.02194e+06 797840 0 -2.02845e+06 823329 0 -2.03471e+06 848947 0 -2.04071e+06 874680 0 -2.04646e+06 900511 0 -2.05196e+06 926425 0 -2.0572e+06 952409 0 -2.06218e+06 978447 0 -2.0669e+06 1.00453e+06 0 -2.07137e+06 1.03063e+06 0 -2.07558e+06 1.05675e+06 0 -2.07953e+06 1.08286e+06 0 -2.08323e+06 1.10897e+06 0 -2.08667e+06 1.13504e+06 0 -2.08984e+06 1.16107e+06 0 -2.09276e+06 1.18704e+06 0 -2.09542e+06 1.21293e+06 0 -2.09782e+06 1.23874e+06 0 -2.09995e+06 1.26445e+06 0 -2.10182e+06 1.29004e+06 0 -2.10344e+06 1.31549e+06 0 -2.10478e+06 1.34078e+06 0 -2.10587e+06 1.36591e+06 0 -2.10669e+06 1.39084e+06 0 -2.10724e+06 1.41556e+06 0 -2.10753e+06 1.44005e+06 0 -2.10756e+06 1.46428e+06 0 -2.10732e+06 1.48823e+06 0 -2.10682e+06 1.51188e+06 0 -2.10606e+06 1.5352e+06 0 -2.10504e+06 1.55817e+06 0 -2.10376e+06 1.58074e+06 0 -2.10223e+06 1.6029e+06 0 -2.10046e+06 1.62462e+06 0 -2.09844e+06 1.64585e+06 0 -2.09619e+06 1.66656e+06 0 -2.09372e+06 1.68672e+06 0 -2.09104e+06 1.70628e+06 0 -2.08816e+06 1.72522e+06 0 -2.08509e+06 1.74348e+06 0 -2.08186e+06 1.76102e+06 0 -2.07848e+06 1.77781e+06 0 -2.07497e+06 1.79379e+06 0 -2.07135e+06 1.80892e+06 0 -2.06766e+06 1.82315e+06 0 -2.06391e+06 1.83644e+06 0 -2.06015e+06 1.84874e+06 0 -2.0564e+06 1.86e+06 0 -2.05269e+06 1.87017e+06 0 -2.04907e+06 1.87921e+06 0 -2.04557e+06 1.88705e+06 0 -2.04222e+06 1.89367e+06 0 -2.03907e+06 1.899e+06 0 -2.03616e+06 1.903e+06 0 -2.03352e+06 1.90562e+06 0 -2.0312e+06 1.90681e+06 0 -2.02924e+06 1.90651e+06 0 -2.02766e+06 1.90469e+06 0 -2.02652e+06 1.90128e+06 0 -2.02584e+06 1.89625e+06 0 -2.02565e+06 1.88953e+06 0 -2.02599e+06 1.88109e+06 0 -2.02688e+06 1.87086e+06 0 -2.02835e+06 1.85882e+06 0 -2.03042e+06 1.84492e+06 0 -2.03309e+06 1.82913e+06 0 -2.03639e+06 1.81144e+06 0 -2.04031e+06 1.79187e+06 0 -2.04485e+06 1.77044e+06 0 -2.04999e+06 1.74725e+06 0 -2.05571e+06 1.72243e+06 0 -2.06195e+06 1.69625e+06 0 -2.06865e+06 1.66902e+06 0 -2.07567e+06 1.64139e+06 0 -2.08292e+06 1.61397e+06 0 -2.09007e+06 1.58836e+06 0 -2.0969e+06 1.56571e+06 0 -2.10278e+06 1.54983e+06 0 -2.10669e+06 1.54361e+06 0 -2.10742e+06 1.55585e+06 0 -2.09971e+06 1.59829e+06 0 -2.07534e+06 1.69437e+06 0 -1.98776e+06 1.90366e+06 0 -1.69819e+06 0 0 -1.69844e+06 10830.2 0 -1.69926e+06 21693.1 0 -1.70063e+06 32618.4 0 -1.70257e+06 43635.6 0 -1.70506e+06 54774.1 0 -1.70809e+06 66063.5 0 -1.71166e+06 77532.7 0 -1.71575e+06 89210.8 0 -1.72036e+06 101126 0 -1.72546e+06 113307 0 -1.73104e+06 125781 0 -1.73709e+06 138573 0 -1.74358e+06 151710 0 -1.75048e+06 165216 0 -1.75778e+06 179112 0 -1.76545e+06 193420 0 -1.77345e+06 208158 0 -1.78177e+06 223343 0 -1.79036e+06 238987 0 -1.7992e+06 255104 0 -1.80826e+06 271701 0 -1.81749e+06 288783 0 -1.82688e+06 306355 0 -1.83638e+06 324415 0 -1.84596e+06 342961 0 -1.85559e+06 361989 0 -1.86524e+06 381489 0 -1.87488e+06 401453 0 -1.88449e+06 421867 0 -1.89404e+06 442719 0 -1.90349e+06 463992 0 -1.91285e+06 485671 0 -1.92207e+06 507737 0 -1.93114e+06 530171 0 -1.94006e+06 552956 0 -1.94879e+06 576071 0 -1.95734e+06 599496 0 -1.96568e+06 623214 0 -1.97382e+06 647203 0 -1.98173e+06 671444 0 -1.98942e+06 695920 0 -1.99688e+06 720611 0 -2.0041e+06 745500 0 -2.01108e+06 770568 0 -2.01782e+06 795800 0 -2.02431e+06 821178 0 -2.03055e+06 846686 0 -2.03654e+06 872309 0 -2.04228e+06 898032 0 -2.04777e+06 923839 0 -2.053e+06 949717 0 -2.05798e+06 975650 0 -2.06271e+06 1.00162e+06 0 -2.06718e+06 1.02763e+06 0 -2.0714e+06 1.05364e+06 0 -2.07537e+06 1.07966e+06 0 -2.07908e+06 1.10567e+06 0 -2.08254e+06 1.13164e+06 0 -2.08574e+06 1.15758e+06 0 -2.08868e+06 1.18346e+06 0 -2.09137e+06 1.20927e+06 0 -2.0938e+06 1.23499e+06 0 -2.09597e+06 1.26061e+06 0 -2.09789e+06 1.28612e+06 0 -2.09955e+06 1.31149e+06 0 -2.10094e+06 1.33671e+06 0 -2.10208e+06 1.36176e+06 0 -2.10296e+06 1.38663e+06 0 -2.10358e+06 1.41129e+06 0 -2.10393e+06 1.43572e+06 0 -2.10403e+06 1.4599e+06 0 -2.10387e+06 1.4838e+06 0 -2.10345e+06 1.50741e+06 0 -2.10278e+06 1.5307e+06 0 -2.10185e+06 1.55363e+06 0 -2.10067e+06 1.57619e+06 0 -2.09925e+06 1.59834e+06 0 -2.09758e+06 1.62005e+06 0 -2.09568e+06 1.64129e+06 0 -2.09356e+06 1.66202e+06 0 -2.09121e+06 1.68221e+06 0 -2.08866e+06 1.70182e+06 0 -2.08592e+06 1.72081e+06 0 -2.08299e+06 1.73914e+06 0 -2.0799e+06 1.75677e+06 0 -2.07667e+06 1.77366e+06 0 -2.07331e+06 1.78976e+06 0 -2.06985e+06 1.80503e+06 0 -2.06631e+06 1.81942e+06 0 -2.06273e+06 1.83289e+06 0 -2.05913e+06 1.84539e+06 0 -2.05554e+06 1.85687e+06 0 -2.052e+06 1.86728e+06 0 -2.04854e+06 1.87658e+06 0 -2.0452e+06 1.88472e+06 0 -2.04201e+06 1.89165e+06 0 -2.03902e+06 1.89732e+06 0 -2.03627e+06 1.90168e+06 0 -2.03379e+06 1.90469e+06 0 -2.03162e+06 1.9063e+06 0 -2.02981e+06 1.90645e+06 0 -2.02839e+06 1.90509e+06 0 -2.02739e+06 1.90219e+06 0 -2.02686e+06 1.89768e+06 0 -2.02682e+06 1.89152e+06 0 -2.02731e+06 1.88365e+06 0 -2.02834e+06 1.87404e+06 0 -2.02996e+06 1.86262e+06 0 -2.03217e+06 1.84938e+06 0 -2.03499e+06 1.83426e+06 0 -2.03843e+06 1.81726e+06 0 -2.0425e+06 1.79838e+06 0 -2.04717e+06 1.77764e+06 0 -2.05244e+06 1.75511e+06 0 -2.05826e+06 1.73091e+06 0 -2.06457e+06 1.70525e+06 0 -2.0713e+06 1.67842e+06 0 -2.0783e+06 1.65097e+06 0 -2.08541e+06 1.62345e+06 0 -2.09231e+06 1.59717e+06 0 -2.09862e+06 1.5733e+06 0 -2.10373e+06 1.55474e+06 0 -2.10638e+06 1.54454e+06 0 -2.10509e+06 1.54886e+06 0 -2.09508e+06 1.57817e+06 0 -2.06743e+06 1.64836e+06 0 -1.99128e+06 1.79656e+06 0 -1.69701e+06 0 0 -1.69726e+06 10863.4 0 -1.69806e+06 21759.7 0 -1.69942e+06 32718.1 0 -1.70132e+06 43767.8 0 -1.70378e+06 54937.9 0 -1.70677e+06 66257.4 0 -1.7103e+06 77754.9 0 -1.71434e+06 89458.9 0 -1.71889e+06 101398 0 -1.72392e+06 113598 0 -1.72944e+06 126088 0 -1.73541e+06 138893 0 -1.74182e+06 152038 0 -1.74864e+06 165546 0 -1.75585e+06 179440 0 -1.76343e+06 193740 0 -1.77134e+06 208464 0 -1.77956e+06 223629 0 -1.78806e+06 239248 0 -1.7968e+06 255331 0 -1.80576e+06 271889 0 -1.81489e+06 288926 0 -1.82418e+06 306445 0 -1.83357e+06 324447 0 -1.84306e+06 342929 0 -1.85259e+06 361887 0 -1.86215e+06 381312 0 -1.87171e+06 401195 0 -1.88122e+06 421524 0 -1.89069e+06 442286 0 -1.90007e+06 463466 0 -1.90934e+06 485048 0 -1.91849e+06 507014 0 -1.9275e+06 529346 0 -1.93635e+06 552026 0 -1.94502e+06 575034 0 -1.95352e+06 598351 0 -1.96181e+06 621959 0 -1.9699e+06 645837 0 -1.97777e+06 669968 0 -1.98542e+06 694332 0 -1.99284e+06 718912 0 -2.00003e+06 743689 0 -2.00698e+06 768646 0 -2.01369e+06 793767 0 -2.02016e+06 819034 0 -2.02639e+06 844433 0 -2.03236e+06 869947 0 -2.03809e+06 895562 0 -2.04358e+06 921262 0 -2.04881e+06 947033 0 -2.05379e+06 972862 0 -2.05852e+06 998733 0 -2.063e+06 1.02463e+06 0 -2.06723e+06 1.05055e+06 0 -2.07121e+06 1.07647e+06 0 -2.07493e+06 1.10238e+06 0 -2.07841e+06 1.12826e+06 0 -2.08163e+06 1.1541e+06 0 -2.0846e+06 1.17989e+06 0 -2.08731e+06 1.20561e+06 0 -2.08978e+06 1.23124e+06 0 -2.09199e+06 1.25678e+06 0 -2.09394e+06 1.28221e+06 0 -2.09565e+06 1.3075e+06 0 -2.09709e+06 1.33265e+06 0 -2.09828e+06 1.35763e+06 0 -2.09922e+06 1.38243e+06 0 -2.0999e+06 1.40702e+06 0 -2.10032e+06 1.4314e+06 0 -2.10049e+06 1.45552e+06 0 -2.1004e+06 1.47938e+06 0 -2.10007e+06 1.50295e+06 0 -2.09948e+06 1.5262e+06 0 -2.09864e+06 1.54911e+06 0 -2.09756e+06 1.57164e+06 0 -2.09624e+06 1.59378e+06 0 -2.09468e+06 1.61549e+06 0 -2.09289e+06 1.63674e+06 0 -2.09088e+06 1.65748e+06 0 -2.08866e+06 1.6777e+06 0 -2.08624e+06 1.69735e+06 0 -2.08362e+06 1.7164e+06 0 -2.08084e+06 1.7348e+06 0 -2.07789e+06 1.75252e+06 0 -2.0748e+06 1.76951e+06 0 -2.07159e+06 1.78572e+06 0 -2.06828e+06 1.80113e+06 0 -2.0649e+06 1.81567e+06 0 -2.06148e+06 1.82932e+06 0 -2.05803e+06 1.84201e+06 0 -2.0546e+06 1.8537e+06 0 -2.05122e+06 1.86435e+06 0 -2.04792e+06 1.87391e+06 0 -2.04474e+06 1.88233e+06 0 -2.04171e+06 1.88957e+06 0 -2.03888e+06 1.89557e+06 0 -2.03628e+06 1.90029e+06 0 -2.03395e+06 1.90369e+06 0 -2.03194e+06 1.9057e+06 0 -2.03027e+06 1.90629e+06 0 -2.029e+06 1.9054e+06 0 -2.02815e+06 1.90298e+06 0 -2.02776e+06 1.89899e+06 0 -2.02786e+06 1.89338e+06 0 -2.02849e+06 1.88609e+06 0 -2.02967e+06 1.87707e+06 0 -2.03143e+06 1.86628e+06 0 -2.03378e+06 1.85369e+06 0 -2.03675e+06 1.83924e+06 0 -2.04033e+06 1.82293e+06 0 -2.04453e+06 1.80473e+06 0 -2.04935e+06 1.78468e+06 0 -2.05475e+06 1.76282e+06 0 -2.06069e+06 1.73925e+06 0 -2.06711e+06 1.71414e+06 0 -2.07391e+06 1.68775e+06 0 -2.08094e+06 1.66053e+06 0 -2.088e+06 1.63301e+06 0 -2.09478e+06 1.60623e+06 0 -2.1008e+06 1.58133e+06 0 -2.10545e+06 1.56053e+06 0 -2.10738e+06 1.54678e+06 0 -2.10491e+06 1.54463e+06 0 -2.09383e+06 1.56268e+06 0 -2.06563e+06 1.61272e+06 0 -1.99732e+06 1.7202e+06 0 -1.69583e+06 0 0 -1.69607e+06 10895.9 0 -1.69685e+06 21824.9 0 -1.69819e+06 32815.8 0 -1.70007e+06 43897.5 0 -1.70249e+06 55098.4 0 -1.70545e+06 66447.3 0 -1.70893e+06 77972.4 0 -1.71292e+06 89701.8 0 -1.71741e+06 101663 0 -1.72238e+06 113883 0 -1.72783e+06 126389 0 -1.73373e+06 139206 0 -1.74006e+06 152358 0 -1.7468e+06 165869 0 -1.75393e+06 179760 0 -1.76141e+06 194052 0 -1.76923e+06 208762 0 -1.77736e+06 223907 0 -1.78576e+06 239499 0 -1.7944e+06 255551 0 -1.80326e+06 272069 0 -1.81229e+06 289061 0 -1.82148e+06 306529 0 -1.83078e+06 324473 0 -1.84017e+06 342891 0 -1.84961e+06 361779 0 -1.85907e+06 381130 0 -1.86854e+06 400933 0 -1.87797e+06 421178 0 -1.88735e+06 441851 0 -1.89664e+06 462939 0 -1.90584e+06 484424 0 -1.91492e+06 506291 0 -1.92386e+06 528521 0 -1.93265e+06 551097 0 -1.94127e+06 573999 0 -1.9497e+06 597209 0 -1.95794e+06 620707 0 -1.96598e+06 644476 0 -1.97381e+06 668496 0 -1.98142e+06 692750 0 -1.98881e+06 717218 0 -1.99597e+06 741884 0 -2.00289e+06 766730 0 -2.00958e+06 791740 0 -2.01603e+06 816898 0 -2.02223e+06 842187 0 -2.0282e+06 867593 0 -2.03391e+06 893100 0 -2.03939e+06 918693 0 -2.04461e+06 944359 0 -2.04959e+06 970083 0 -2.05433e+06 995851 0 -2.05881e+06 1.02165e+06 0 -2.06305e+06 1.04747e+06 0 -2.06704e+06 1.07329e+06 0 -2.07078e+06 1.0991e+06 0 -2.07427e+06 1.12488e+06 0 -2.07752e+06 1.15063e+06 0 -2.08051e+06 1.17633e+06 0 -2.08326e+06 1.20196e+06 0 -2.08575e+06 1.22751e+06 0 -2.088e+06 1.25296e+06 0 -2.08999e+06 1.27831e+06 0 -2.09174e+06 1.30353e+06 0 -2.09323e+06 1.3286e+06 0 -2.09447e+06 1.35351e+06 0 -2.09546e+06 1.37824e+06 0 -2.0962e+06 1.40277e+06 0 -2.09669e+06 1.42709e+06 0 -2.09693e+06 1.45116e+06 0 -2.09692e+06 1.47497e+06 0 -2.09666e+06 1.49849e+06 0 -2.09615e+06 1.52171e+06 0 -2.09541e+06 1.54459e+06 0 -2.09442e+06 1.56711e+06 0 -2.0932e+06 1.58923e+06 0 -2.09174e+06 1.61094e+06 0 -2.09006e+06 1.63219e+06 0 -2.08817e+06 1.65295e+06 0 -2.08607e+06 1.6732e+06 0 -2.08377e+06 1.69289e+06 0 -2.08129e+06 1.71199e+06 0 -2.07863e+06 1.73046e+06 0 -2.07582e+06 1.74825e+06 0 -2.07288e+06 1.76534e+06 0 -2.06981e+06 1.78167e+06 0 -2.06665e+06 1.79721e+06 0 -2.06343e+06 1.8119e+06 0 -2.06015e+06 1.82571e+06 0 -2.05686e+06 1.83859e+06 0 -2.05359e+06 1.8505e+06 0 -2.05036e+06 1.86138e+06 0 -2.04722e+06 1.87119e+06 0 -2.04419e+06 1.87989e+06 0 -2.04132e+06 1.88743e+06 0 -2.03864e+06 1.89376e+06 0 -2.03619e+06 1.89883e+06 0 -2.03401e+06 1.9026e+06 0 -2.03214e+06 1.90502e+06 0 -2.03062e+06 1.90604e+06 0 -2.02949e+06 1.9056e+06 0 -2.02878e+06 1.90367e+06 0 -2.02853e+06 1.90019e+06 0 -2.02877e+06 1.89512e+06 0 -2.02954e+06 1.88839e+06 0 -2.03086e+06 1.87997e+06 0 -2.03275e+06 1.8698e+06 0 -2.03525e+06 1.85784e+06 0 -2.03835e+06 1.84406e+06 0 -2.04208e+06 1.82843e+06 0 -2.04642e+06 1.81093e+06 0 -2.05137e+06 1.79156e+06 0 -2.05691e+06 1.77038e+06 0 -2.06299e+06 1.74745e+06 0 -2.06953e+06 1.72292e+06 0 -2.07643e+06 1.697e+06 0 -2.08355e+06 1.67008e+06 0 -2.09065e+06 1.64263e+06 0 -2.09742e+06 1.61549e+06 0 -2.10334e+06 1.58974e+06 0 -2.10775e+06 1.56711e+06 0 -2.10937e+06 1.55024e+06 0 -2.10638e+06 1.54274e+06 0 -2.09504e+06 1.55136e+06 0 -2.06775e+06 1.58539e+06 0 -2.00686e+06 1.66097e+06 0 -1.69465e+06 0 0 -1.69487e+06 10927.8 0 -1.69564e+06 21888.8 0 -1.69696e+06 32911.6 0 -1.69881e+06 44024.4 0 -1.7012e+06 55255.7 0 -1.70412e+06 66633.3 0 -1.70755e+06 78185.4 0 -1.71149e+06 89939.5 0 -1.71592e+06 101923 0 -1.72084e+06 114162 0 -1.72622e+06 126683 0 -1.73204e+06 139511 0 -1.7383e+06 152671 0 -1.74496e+06 166184 0 -1.752e+06 180072 0 -1.7594e+06 194356 0 -1.76713e+06 209052 0 -1.77516e+06 224177 0 -1.78346e+06 239743 0 -1.79201e+06 255762 0 -1.80076e+06 272242 0 -1.8097e+06 289188 0 -1.81879e+06 306605 0 -1.82799e+06 324492 0 -1.83728e+06 342848 0 -1.84663e+06 361667 0 -1.856e+06 380943 0 -1.86537e+06 400667 0 -1.87472e+06 420828 0 -1.88401e+06 441414 0 -1.89323e+06 462409 0 -1.90236e+06 483799 0 -1.91136e+06 505568 0 -1.92024e+06 527697 0 -1.92896e+06 550169 0 -1.93751e+06 572966 0 -1.94589e+06 596068 0 -1.95408e+06 619459 0 -1.96208e+06 643118 0 -1.96986e+06 667029 0 -1.97743e+06 691172 0 -1.98478e+06 715529 0 -1.99191e+06 740085 0 -1.99881e+06 764821 0 -2.00547e+06 789721 0 -2.01189e+06 814769 0 -2.01808e+06 839949 0 -2.02403e+06 865246 0 -2.02974e+06 890646 0 -2.0352e+06 916133 0 -2.04043e+06 941693 0 -2.0454e+06 967313 0 -2.05014e+06 992979 0 -2.05463e+06 1.01868e+06 0 -2.05887e+06 1.04439e+06 0 -2.06287e+06 1.07011e+06 0 -2.06663e+06 1.09583e+06 0 -2.07014e+06 1.12152e+06 0 -2.0734e+06 1.14717e+06 0 -2.07642e+06 1.17278e+06 0 -2.07919e+06 1.19832e+06 0 -2.08172e+06 1.22379e+06 0 -2.084e+06 1.24916e+06 0 -2.08603e+06 1.27442e+06 0 -2.08782e+06 1.29956e+06 0 -2.08936e+06 1.32456e+06 0 -2.09065e+06 1.3494e+06 0 -2.0917e+06 1.37406e+06 0 -2.09249e+06 1.39853e+06 0 -2.09305e+06 1.42279e+06 0 -2.09335e+06 1.44681e+06 0 -2.09341e+06 1.47057e+06 0 -2.09323e+06 1.49405e+06 0 -2.09281e+06 1.51723e+06 0 -2.09215e+06 1.54008e+06 0 -2.09125e+06 1.56258e+06 0 -2.09013e+06 1.58469e+06 0 -2.08877e+06 1.60639e+06 0 -2.0872e+06 1.62764e+06 0 -2.08542e+06 1.64842e+06 0 -2.08344e+06 1.6687e+06 0 -2.08126e+06 1.68843e+06 0 -2.0789e+06 1.70757e+06 0 -2.07638e+06 1.72611e+06 0 -2.07371e+06 1.74398e+06 0 -2.0709e+06 1.76116e+06 0 -2.06798e+06 1.7776e+06 0 -2.06496e+06 1.79327e+06 0 -2.06188e+06 1.80811e+06 0 -2.05876e+06 1.82208e+06 0 -2.05562e+06 1.83515e+06 0 -2.0525e+06 1.84726e+06 0 -2.04943e+06 1.85837e+06 0 -2.04643e+06 1.86843e+06 0 -2.04356e+06 1.8774e+06 0 -2.04084e+06 1.88524e+06 0 -2.03831e+06 1.89188e+06 0 -2.03601e+06 1.8973e+06 0 -2.03397e+06 1.90144e+06 0 -2.03225e+06 1.90425e+06 0 -2.03087e+06 1.90569e+06 0 -2.02987e+06 1.90571e+06 0 -2.0293e+06 1.90425e+06 0 -2.02918e+06 1.90128e+06 0 -2.02956e+06 1.89673e+06 0 -2.03046e+06 1.89057e+06 0 -2.03191e+06 1.88273e+06 0 -2.03394e+06 1.87317e+06 0 -2.03657e+06 1.86185e+06 0 -2.03981e+06 1.84873e+06 0 -2.04367e+06 1.83377e+06 0 -2.04816e+06 1.81696e+06 0 -2.05325e+06 1.79829e+06 0 -2.05893e+06 1.77778e+06 0 -2.06515e+06 1.75551e+06 0 -2.07183e+06 1.73158e+06 0 -2.07887e+06 1.70617e+06 0 -2.0861e+06 1.6796e+06 0 -2.0933e+06 1.6523e+06 0 -2.10014e+06 1.62494e+06 0 -2.10611e+06 1.5985e+06 0 -2.11049e+06 1.57439e+06 0 -2.1121e+06 1.55484e+06 0 -2.10906e+06 1.54285e+06 0 -2.09807e+06 1.54366e+06 0 -2.07243e+06 1.56466e+06 0 -2.01823e+06 1.61735e+06 0 -1.69346e+06 0 0 -1.69367e+06 10959 0 -1.69443e+06 21951.4 0 -1.69572e+06 33005.4 0 -1.69755e+06 44148.8 0 -1.6999e+06 55409.6 0 -1.70278e+06 66815.5 0 -1.70617e+06 78393.9 0 -1.71006e+06 90172.1 0 -1.71443e+06 102177 0 -1.71929e+06 114434 0 -1.7246e+06 126970 0 -1.73036e+06 139810 0 -1.73653e+06 152976 0 -1.74311e+06 166491 0 -1.75007e+06 180376 0 -1.75738e+06 194651 0 -1.76502e+06 209333 0 -1.77296e+06 224438 0 -1.78116e+06 239978 0 -1.78961e+06 255965 0 -1.79827e+06 272406 0 -1.80711e+06 289308 0 -1.8161e+06 306674 0 -1.82521e+06 324505 0 -1.8344e+06 342798 0 -1.84365e+06 361549 0 -1.85294e+06 380752 0 -1.86222e+06 400397 0 -1.87148e+06 420475 0 -1.88069e+06 440974 0 -1.88983e+06 461878 0 -1.89888e+06 483173 0 -1.90781e+06 504844 0 -1.91662e+06 526873 0 -1.92527e+06 549242 0 -1.93377e+06 571934 0 -1.9421e+06 594931 0 -1.95023e+06 618214 0 -1.95818e+06 641765 0 -1.96592e+06 665565 0 -1.97345e+06 689599 0 -1.98077e+06 713846 0 -1.98786e+06 738292 0 -1.99473e+06 762917 0 -2.00136e+06 787708 0 -2.00777e+06 812646 0 -2.01394e+06 837718 0 -2.01987e+06 862908 0 -2.02557e+06 888200 0 -2.03102e+06 913581 0 -2.03624e+06 939036 0 -2.04121e+06 964552 0 -2.04595e+06 990115 0 -2.05044e+06 1.01571e+06 0 -2.05469e+06 1