<?xml version="1.0"?> 
<VTKFile type="StructuredGrid" version="0.1"> 
<StructuredGrid WholeExtent="0 127 0 127 0 0"> 
<Piece Extent="0 127 0 127 0 0"> 
<PointData>
<DataArray type="Float32" Name="E" format="ascii" NumberOfComponents="3"> 
-353479 0 0 -353488 -3.69493e-05 0 -353517 -7.38978e-05 0 -353565 -0.000110844 0 -353631 -0.000147785 0 -353717 -0.000184721 0 -353823 -0.000221651 0 -353947 -0.000258574 0 -354090 -0.000295488 0 -354253 -0.000332387 0 -354435 -0.00036928 0 -354635 -0.000406153 0 -354855 -0.000443018 0 -355095 -0.000479861 0 -355353 -0.000516689 0 -355631 -0.000553502 0 -355928 -0.000590285 0 -356244 -0.000627059 0 -356579 -0.000663799 0 -356933 -0.000700523 0 -357307 -0.000737207 0 -357700 -0.00077387 0 -358113 -0.000810504 0 -358544 -0.00084711 0 -358996 -0.000883672 0 -359466 -0.000920211 0 -359956 -0.000956708 0 -360465 -0.000993166 0 -360994 -0.00102959 0 -361542 -0.00106596 0 -362110 -0.0011023 0 -362697 -0.00113858 0 -363303 -0.00117483 0 -363930 -0.00121101 0 -364576 -0.00124715 0 -365241 -0.00128323 0 -365926 -0.00131926 0 -366631 -0.00135523 0 -367355 -0.00139113 0 -368100 -0.00142698 0 -368864 -0.00146275 0 -369648 -0.00149846 0 -370451 -0.0015341 0 -371275 -0.00156967 0 -372118 -0.00160514 0 -372982 -0.00164056 0 -373865 -0.00167588 0 -374769 -0.00171112 0 -375692 -0.00174628 0 -376636 -0.00178135 0 -377600 -0.00181632 0 -378584 -0.00185119 0 -379589 -0.00188597 0 -380613 -0.00192064 0 -381658 -0.0019552 0 -382724 -0.00198966 0 -383809 -0.00202399 0 -384916 -0.00205821 0 -386042 -0.00209231 0 -387190 -0.00212629 0 -388358 -0.00216013 0 -389547 -0.00219385 0 -390756 -0.00222743 0 -391986 -0.00226086 0 -393237 -0.00229416 0 -394509 -0.00232729 0 -395802 -0.00236026 0 -397116 -0.00239308 0 -398451 -0.00242571 0 -399807 -0.00245822 0 -401185 -0.00249053 0 -402583 -0.00252263 0 -404003 -0.00255458 0 -405444 -0.00258633 0 -406907 -0.00261788 0 -408391 -0.00264925 0 -409896 -0.00268037 0 -411424 -0.00271132 0 -412972 -0.00274202 0 -414543 -0.00277249 0 -416136 -0.00280274 0 -417750 -0.00283277 0 -419386 -0.00286252 0 -421044 -0.00289203 0 -422725 -0.0029213 0 -424427 -0.00295028 0 -426152 -0.00297898 0 -427899 -0.00300741 0 -429668 -0.00303554 0 -431460 -0.0030634 0 -433274 -0.00309093 0 -435111 -0.00311817 0 -436970 -0.00314506 0 -438852 -0.00317166 0 -440757 -0.00319786 0 -442685 -0.00322378 0 -444636 -0.00324928 0 -446610 -0.00327449 0 -448607 -0.00329925 0 -450627 -0.00332369 0 -452670 -0.0033477 0 -454737 -0.00337132 0 -456827 -0.00339452 0 -458941 -0.0034173 0 -461078 -0.00343963 0 -463239 -0.00346158 0 -465423 -0.00348299 0 -467632 -0.00350399 0 -469864 -0.00352444 0 -472121 -0.00354453 0 -474401 -0.00356401 0 -476706 -0.00358304 0 -479034 -0.0036015 0 -481388 -0.00361946 0 -483765 -0.00363685 0 -486167 -0.0036537 0 -488594 -0.00366993 0 -491046 -0.00368565 0 -493522 -0.00370072 0 -496023 -0.00371519 0 -498549 -0.003729 0 -501100 -0.00374217 0 -503676 -0.00375472 0 -506277 -0.00376659 0 -508904 -0.00377773 0 -511556 -0.00378828 0 -514234 -0.003798 0 -516937 -0.00380701 0 -353452 0 0 -353462 31.8565 0 -353490 63.7145 0 -353538 95.5755 0 -353605 127.441 0 -353691 159.312 0 -353796 191.191 0 -353920 223.078 0 -354064 254.976 0 -354226 286.885 0 -354408 318.808 0 -354609 350.745 0 -354829 382.698 0 -355068 414.67 0 -355326 446.66 0 -355604 478.67 0 -355901 510.703 0 -356217 542.759 0 -356552 574.84 0 -356907 606.948 0 -357280 639.083 0 -357674 671.248 0 -358086 703.444 0 -358518 735.671 0 -358969 767.933 0 -359439 800.229 0 -359929 832.562 0 -360438 864.933 0 -360967 897.344 0 -361515 929.796 0 -362083 962.289 0 -362670 994.827 0 -363276 1027.41 0 -363902 1060.04 0 -364548 1092.72 0 -365214 1125.45 0 -365899 1158.22 0 -366604 1191.06 0 -367328 1223.94 0 -368072 1256.88 0 -368836 1289.88 0 -369620 1322.93 0 -370424 1356.05 0 -371247 1389.22 0 -372091 1422.46 0 -372954 1455.76 0 -373838 1489.13 0 -374741 1522.56 0 -375665 1556.07 0 -376608 1589.64 0 -377572 1623.28 0 -378556 1656.99 0 -379560 1690.78 0 -380585 1724.64 0 -381630 1758.58 0 -382695 1792.6 0 -383781 1826.7 0 -384887 1860.87 0 -386014 1895.13 0 -387161 1929.47 0 -388329 1963.9 0 -389518 1998.41 0 -390727 2033.01 0 -391957 2067.7 0 -393208 2102.48 0 -394480 2137.35 0 -395773 2172.31 0 -397087 2207.36 0 -398422 2242.51 0 -399778 2277.76 0 -401155 2313.11 0 -402553 2348.55 0 -403973 2384.1 0 -405414 2419.74 0 -406877 2455.49 0 -408361 2491.34 0 -409866 2527.3 0 -411393 2563.37 0 -412942 2599.54 0 -414513 2635.82 0 -416105 2672.21 0 -417719 2708.71 0 -419355 2745.33 0 -421014 2782.06 0 -422694 2818.9 0 -424396 2855.87 0 -426121 2892.94 0 -427868 2930.14 0 -429637 2967.46 0 -431428 3004.89 0 -433243 3042.45 0 -435079 3080.13 0 -436939 3117.94 0 -438821 3155.87 0 -440726 3193.93 0 -442653 3232.11 0 -444604 3270.42 0 -446578 3308.87 0 -448575 3347.44 0 -450595 3386.14 0 -452638 3424.98 0 -454704 3463.94 0 -456794 3503.05 0 -458908 3542.28 0 -461045 3581.66 0 -463206 3621.17 0 -465390 3660.81 0 -467599 3700.6 0 -469831 3740.52 0 -472087 3780.59 0 -474367 3820.8 0 -476672 3861.15 0 -479001 3901.64 0 -481354 3942.27 0 -483731 3983.05 0 -486133 4023.97 0 -488560 4065.04 0 -491011 4106.25 0 -493487 4147.61 0 -495988 4189.12 0 -498514 4230.78 0 -501065 4272.58 0 -503641 4314.53 0 -506242 4356.63 0 -508869 4398.88 0 -511521 4441.29 0 -514198 4483.84 0 -516901 4526.54 0 -353372 0 0 -353382 63.709 0 -353411 127.421 0 -353458 191.139 0 -353525 254.865 0 -353611 318.604 0 -353716 382.357 0 -353841 446.127 0 -353984 509.919 0 -354146 573.733 0 -354328 637.575 0 -354529 701.445 0 -354749 765.348 0 -354988 829.286 0 -355246 893.262 0 -355524 957.28 0 -355821 1021.34 0 -356137 1085.45 0 -356472 1149.61 0 -356826 1213.82 0 -357200 1278.09 0 -357593 1342.41 0 -358005 1406.8 0 -358437 1471.25 0 -358888 1535.77 0 -359358 1600.36 0 -359848 1665.02 0 -360357 1729.76 0 -360886 1794.57 0 -361434 1859.47 0 -362001 1924.46 0 -362588 1989.53 0 -363195 2054.69 0 -363821 2119.95 0 -364467 2185.3 0 -365132 2250.75 0 -365817 2316.3 0 -366521 2381.96 0 -367246 2447.73 0 -367990 2513.6 0 -368754 2579.59 0 -369537 2645.7 0 -370341 2711.92 0 -371164 2778.27 0 -372007 2844.74 0 -372871 2911.34 0 -373754 2978.07 0 -374657 3044.94 0 -375581 3111.94 0 -376524 3179.08 0 -377488 3246.36 0 -378472 3313.78 0 -379476 3381.35 0 -380500 3449.08 0 -381545 3516.95 0 -382610 3584.98 0 -383696 3653.17 0 -384802 3721.52 0 -385928 3790.03 0 -387075 3858.71 0 -388243 3927.56 0 -389431 3996.58 0 -390641 4065.78 0 -391871 4135.15 0 -393121 4204.7 0 -394393 4274.44 0 -395686 4344.36 0 -396999 4414.46 0 -398334 4484.76 0 -399690 4555.25 0 -401067 4625.94 0 -402465 4696.82 0 -403884 4767.91 0 -405325 4839.2 0 -406787 4910.69 0 -408271 4982.39 0 -409776 5054.3 0 -411303 5126.43 0 -412852 5198.77 0 -414422 5271.33 0 -416014 5344.11 0 -417628 5417.11 0 -419264 5490.34 0 -420922 5563.8 0 -422602 5637.49 0 -424304 5711.4 0 -426028 5785.56 0 -427775 5859.95 0 -429543 5934.58 0 -431335 6009.45 0 -433149 6084.56 0 -434985 6159.92 0 -436844 6235.53 0 -438726 6311.39 0 -440630 6387.5 0 -442558 6463.87 0 -444508 6540.49 0 -446481 6617.37 0 -448478 6694.51 0 -450498 6771.91 0 -452541 6849.58 0 -454607 6927.51 0 -456696 7005.72 0 -458810 7084.19 0 -460946 7162.93 0 -463107 7241.95 0 -465291 7321.24 0 -467499 7400.81 0 -469731 7480.66 0 -471987 7560.79 0 -474267 7641.2 0 -476571 7721.89 0 -478899 7802.87 0 -481252 7884.14 0 -483629 7965.69 0 -486031 8047.54 0 -488457 8129.67 0 -490908 8212.1 0 -493384 8294.82 0 -495884 8377.83 0 -498410 8461.14 0 -500960 8544.74 0 -503536 8628.65 0 -506137 8712.85 0 -508763 8797.35 0 -511415 8882.15 0 -514092 8967.26 0 -516794 9052.66 0 -353240 0 0 -353249 95.5533 0 -353278 191.111 0 -353326 286.677 0 -353392 382.257 0 -353478 477.854 0 -353584 573.474 0 -353708 669.12 0 -353851 764.796 0 -354014 860.508 0 -354195 956.26 0 -354396 1052.06 0 -354616 1147.9 0 -354855 1243.8 0 -355113 1339.75 0 -355391 1435.77 0 -355687 1531.85 0 -356003 1628 0 -356338 1724.23 0 -356693 1820.53 0 -357066 1916.92 0 -357459 2013.4 0 -357871 2109.97 0 -358303 2206.64 0 -358753 2303.41 0 -359224 2400.28 0 -359713 2497.26 0 -360222 2594.36 0 -360751 2691.58 0 -361298 2788.92 0 -361866 2886.38 0 -362453 2983.98 0 -363059 3081.71 0 -363685 3179.58 0 -364330 3277.6 0 -364995 3375.77 0 -365680 3474.09 0 -366384 3572.57 0 -367109 3671.2 0 -367852 3770.01 0 -368616 3868.98 0 -369399 3968.13 0 -370203 4067.46 0 -371026 4166.97 0 -371869 4266.67 0 -372732 4366.56 0 -373615 4466.65 0 -374518 4566.93 0 -375441 4667.43 0 -376384 4768.12 0 -377348 4869.03 0 -378331 4970.16 0 -379335 5071.51 0 -380359 5173.08 0 -381403 5274.89 0 -382468 5376.92 0 -383553 5479.2 0 -384659 5581.71 0 -385785 5684.47 0 -386932 5787.48 0 -388099 5890.75 0 -389287 5994.27 0 -390496 6098.05 0 -391726 6202.1 0 -392976 6306.42 0 -394247 6411.01 0 -395540 6515.88 0 -396853 6621.03 0 -398187 6726.47 0 -399543 6832.2 0 -400919 6938.22 0 -402317 7044.54 0 -403736 7151.16 0 -405176 7258.08 0 -406638 7365.31 0 -408121 7472.86 0 -409626 7580.72 0 -411153 7688.9 0 -412701 7797.4 0 -414271 7906.23 0 -415862 8015.39 0 -417476 8124.89 0 -419111 8234.72 0 -420768 8344.9 0 -422448 8455.42 0 -424149 8566.29 0 -425873 8677.51 0 -427619 8789.09 0 -429388 8901.03 0 -431179 9013.33 0 -432992 9125.99 0 -434828 9239.02 0 -436686 9352.43 0 -438567 9466.21 0 -440471 9580.37 0 -442398 9694.91 0 -444348 9809.83 0 -446321 9925.15 0 -448317 10040.9 0 -450336 10157 0 -452378 10273.4 0 -454444 10390.3 0 -456533 10507.6 0 -458646 10625.3 0 -460782 10743.4 0 -462942 10862 0 -465125 10980.9 0 -467333 11100.2 0 -469564 11220 0 -471820 11340.2 0 -474099 11460.8 0 -476402 11581.9 0 -478730 11703.3 0 -481082 11825.2 0 -483459 11947.5 0 -485860 12070.3 0 -488286 12193.5 0 -490736 12317.1 0 -493211 12441.2 0 -495711 12565.7 0 -498236 12690.7 0 -500786 12816.1 0 -503361 12941.9 0 -505961 13068.2 0 -508587 13195 0 -511238 13322.2 0 -513914 13449.8 0 -516616 13577.9 0 -353054 0 0 -353063 127.385 0 -353092 254.776 0 -353140 382.179 0 -353207 509.6 0 -353293 637.044 0 -353398 764.518 0 -353522 892.026 0 -353665 1019.58 0 -353827 1147.17 0 -354009 1274.82 0 -354210 1402.53 0 -354429 1530.3 0 -354668 1658.15 0 -354926 1786.07 0 -355204 1914.07 0 -355500 2042.16 0 -355816 2170.34 0 -356151 2298.63 0 -356505 2427.02 0 -356879 2555.52 0 -357271 2684.14 0 -357683 2812.88 0 -358115 2941.75 0 -358565 3070.75 0 -359035 3199.9 0 -359525 3329.19 0 -360033 3458.64 0 -360561 3588.24 0 -361109 3718 0 -361676 3847.94 0 -362263 3978.05 0 -362869 4108.34 0 -363494 4238.82 0 -364140 4369.49 0 -364804 4500.36 0 -365489 4631.44 0 -366193 4762.72 0 -366917 4894.22 0 -367660 5025.94 0 -368423 5157.89 0 -369206 5290.07 0 -370009 5422.49 0 -370832 5555.16 0 -371675 5688.07 0 -372537 5821.24 0 -373420 5954.67 0 -374323 6088.36 0 -375245 6222.33 0 -376188 6356.58 0 -377151 6491.11 0 -378134 6625.93 0 -379138 6761.04 0 -380161 6896.46 0 -381205 7032.17 0 -382270 7168.2 0 -383354 7304.55 0 -384459 7441.22 0 -385585 7578.22 0 -386731 7715.55 0 -387898 7853.21 0 -389086 7991.23 0 -390294 8129.59 0 -391523 8268.3 0 -392773 8407.38 0 -394044 8546.82 0 -395336 8686.63 0 -396648 8826.81 0 -397982 8967.38 0 -399337 9108.33 0 -400713 9249.68 0 -402110 9391.42 0 -403528 9533.56 0 -404968 9676.11 0 -406429 9819.07 0 -407912 9962.44 0 -409416 10106.2 0 -410942 10250.5 0 -412489 10395.1 0 -414059 10540.2 0 -415650 10685.7 0 -417262 10831.7 0 -418897 10978.2 0 -420554 11125 0 -422233 11272.4 0 -423934 11420.2 0 -425657 11568.5 0 -427402 11717.2 0 -429170 11866.5 0 -430960 12016.2 0 -432772 12166.4 0 -434608 12317.1 0 -436465 12468.3 0 -438346 12620 0 -440249 12772.2 0 -442175 12924.9 0 -444124 13078.1 0 -446096 13231.8 0 -448092 13386.1 0 -450110 13540.9 0 -452152 13696.2 0 -454216 13852 0 -456305 14008.4 0 -458417 14165.4 0 -460552 14322.8 0 -462711 14480.8 0 -464894 14639.4 0 -467100 14798.5 0 -469331 14958.2 0 -471585 15118.4 0 -473864 15279.2 0 -476167 15440.6 0 -478494 15602.6 0 -480845 15765.1 0 -483221 15928.2 0 -485621 16091.8 0 -488046 16256.1 0 -490495 16420.9 0 -492969 16586.4 0 -495468 16752.4 0 -497992 16919 0 -500542 17086.2 0 -503116 17254 0 -505715 17422.4 0 -508340 17591.4 0 -510990 17761 0 -513665 17931.2 0 -516367 18102 0 -352815 0 0 -352825 159.201 0 -352853 318.409 0 -352901 477.632 0 -352968 636.878 0 -353054 796.152 0 -353159 955.463 0 -353283 1114.82 0 -353426 1274.23 0 -353588 1433.69 0 -353770 1593.22 0 -353970 1752.83 0 -354190 1912.51 0 -354429 2072.29 0 -354687 2232.16 0 -354964 2392.13 0 -355260 2552.21 0 -355576 2712.41 0 -355910 2872.74 0 -356264 3033.19 0 -356638 3193.79 0 -357030 3354.53 0 -357442 3515.43 0 -357873 3676.48 0 -358323 3837.71 0 -358793 3999.11 0 -359282 4160.7 0 -359790 4322.47 0 -360318 4484.44 0 -360866 4646.62 0 -361432 4809.01 0 -362019 4971.62 0 -362624 5134.46 0 -363250 5297.52 0 -363894 5460.83 0 -364559 5624.39 0 -365243 5788.21 0 -365947 5952.28 0 -366670 6116.63 0 -367413 6281.25 0 -368176 6446.15 0 -368958 6611.35 0 -369761 6776.84 0 -370583 6942.64 0 -371425 7108.76 0 -372288 7275.19 0 -373170 7441.95 0 -374072 7609.04 0 -374994 7776.47 0 -375936 7944.25 0 -376899 8112.38 0 -377881 8280.88 0 -378884 8449.74 0 -379907 8618.98 0 -380950 8788.6 0 -382014 8958.61 0 -383098 9129.01 0 -384203 9299.82 0 -385328 9471.04 0 -386474 9642.67 0 -387640 9814.73 0 -388827 9987.21 0 -390034 10160.1 0 -391263 10333.5 0 -392512 10507.3 0 -393782 10681.6 0 -395073 10856.3 0 -396385 11031.5 0 -397718 11207.2 0 -399072 11383.4 0 -400447 11560 0 -401844 11737.2 0 -403261 11914.8 0 -404700 12093 0 -406161 12271.7 0 -407643 12450.9 0 -409146 12630.6 0 -410671 12810.8 0 -412218 12991.6 0 -413786 13173 0 -415376 13354.9 0 -416988 13537.3 0 -418622 13720.3 0 -420278 13903.9 0 -421956 14088.1 0 -423656 14272.8 0 -425378 14458.1 0 -427123 14644.1 0 -428889 14830.6 0 -430679 15017.7 0 -432490 15205.4 0 -434325 15393.8 0 -436181 15582.7 0 -438061 15772.3 0 -439963 15962.6 0 -441888 16153.4 0 -443837 16344.9 0 -445808 16537.1 0 -447802 16729.9 0 -449819 16923.4 0 -451860 17117.5 0 -453924 17312.3 0 -456011 17507.7 0 -458122 17703.9 0 -460256 17900.7 0 -462414 18098.2 0 -464596 18296.4 0 -466802 18495.3 0 -469031 18694.8 0 -471284 18895.1 0 -473562 19096.1 0 -475864 19297.8 0 -478190 19500.2 0 -480540 19703.3 0 -482914 19907.2 0 -485313 20111.8 0 -487737 20317.1 0 -490186 20523.1 0 -492659 20729.9 0 -495157 20937.4 0 -497680 21145.6 0 -500227 21354.6 0 -502801 21564.4 0 -505399 21774.8 0 -508022 21986.1 0 -510671 22198.1 0 -513346 22410.8 0 -516046 22624.3 0 -352523 0 0 -352533 190.996 0 -352561 382.001 0 -352609 573.024 0 -352676 764.073 0 -352762 955.158 0 -352866 1146.29 0 -352990 1337.47 0 -353134 1528.71 0 -353296 1720.02 0 -353477 1911.42 0 -353677 2102.9 0 -353897 2294.48 0 -354136 2486.16 0 -354393 2677.96 0 -354670 2869.88 0 -354967 3061.94 0 -355282 3254.13 0 -355616 3446.48 0 -355970 3638.98 0 -356343 3831.65 0 -356735 4024.5 0 -357147 4217.53 0 -357577 4410.75 0 -358028 4604.18 0 -358497 4797.82 0 -358986 4991.67 0 -359494 5185.76 0 -360021 5380.08 0 -360568 5574.65 0 -361134 5769.47 0 -361720 5964.56 0 -362326 6159.92 0 -362950 6355.56 0 -363595 6551.48 0 -364259 6747.71 0 -364942 6944.24 0 -365645 7141.09 0 -366368 7338.26 0 -367111 7535.76 0 -367873 7733.61 0 -368655 7931.8 0 -369457 8130.35 0 -370279 8329.27 0 -371121 8528.56 0 -371982 8728.23 0 -372864 8928.3 0 -373765 9128.77 0 -374687 9329.64 0 -375628 9530.93 0 -376590 9732.65 0 -377572 9934.8 0 -378574 10137.4 0 -379596 10340.4 0 -380639 10543.9 0 -381702 10747.9 0 -382786 10952.4 0 -383889 11157.3 0 -385014 11362.7 0 -386159 11568.6 0 -387324 11775 0 -388510 11982 0 -389717 12189.5 0 -390945 12397.5 0 -392193 12606 0 -393462 12815.1 0 -394752 13024.7 0 -396063 13234.9 0 -397395 13445.7 0 -398749 13657.1 0 -400123 13869 0 -401519 14081.5 0 -402935 14294.7 0 -404373 14508.4 0 -405833 14722.8 0 -407314 14937.8 0 -408816 15153.4 0 -410340 15369.7 0 -411886 15586.6 0 -413453 15804.2 0 -415042 16022.4 0 -416653 16241.3 0 -418286 16460.9 0 -419941 16681.2 0 -421618 16902.1 0 -423317 17123.8 0 -425038 17346.1 0 -426781 17569.2 0 -428547 17793 0 -430335 18017.5 0 -432146 18242.8 0 -433979 18468.7 0 -435834 18695.5 0 -437713 18923 0 -439614 19151.2 0 -441538 19380.2 0 -443485 19610 0 -445455 19840.5 0 -447448 20071.9 0 -449464 20304 0 -451503 20536.9 0 -453566 20770.6 0 -455652 21005.1 0 -457762 21240.5 0 -459895 21476.6 0 -462052 21713.6 0 -464232 21951.4 0 -466436 22190 0 -468665 22429.5 0 -470917 22669.8 0 -473193 22911 0 -475493 23153 0 -477818 23395.9 0 -480167 23639.6 0 -482540 23884.2 0 -484938 24129.7 0 -487360 24376 0 -489807 24623.2 0 -492279 24871.4 0 -494776 25120.3 0 -497297 25370.2 0 -499844 25621 0 -502415 25872.7 0 -505012 26125.2 0 -507634 26378.7 0 -510282 26633.1 0 -512955 26888.3 0 -515654 27144.5 0 -352178 0 0 -352188 222.767 0 -352216 445.544 0 -352264 668.342 0 -352331 891.171 0 -352417 1114.04 0 -352521 1336.96 0 -352645 1559.95 0 -352788 1783 0 -352950 2006.14 0 -353131 2229.37 0 -353332 2452.7 0 -353551 2676.15 0 -353789 2899.72 0 -354047 3123.42 0 -354324 3347.27 0 -354620 3571.27 0 -354935 3795.44 0 -355269 4019.78 0 -355622 4244.3 0 -355995 4469.02 0 -356387 4693.95 0 -356798 4919.09 0 -357228 5144.46 0 -357678 5370.06 0 -358147 5595.91 0 -358635 5822.02 0 -359143 6048.39 0 -359670 6275.04 0 -360217 6501.97 0 -360783 6729.21 0 -361368 6956.75 0 -361973 7184.6 0 -362597 7412.79 0 -363241 7641.31 0 -363904 7870.18 0 -364587 8099.41 0 -365290 8329 0 -366012 8558.97 0 -366754 8789.33 0 -367516 9020.09 0 -368297 9251.25 0 -369098 9482.84 0 -369920 9714.85 0 -370760 9947.29 0 -371621 10180.2 0 -372502 10413.5 0 -373403 10647.4 0 -374324 10881.7 0 -375265 11116.4 0 -376226 11351.7 0 -377207 11587.5 0 -378208 11823.8 0 -379229 12060.6 0 -380271 12298 0 -381334 12535.9 0 -382416 12774.4 0 -383519 13013.4 0 -384642 13253 0 -385786 13493.2 0 -386951 13733.9 0 -388136 13975.3 0 -389342 14217.3 0 -390569 14459.9 0 -391816 14703.1 0 -393084 14947 0 -394373 15191.6 0 -395683 15436.7 0 -397014 15682.6 0 -398367 15929.1 0 -399740 16176.3 0 -401134 16424.2 0 -402550 16672.9 0 -403987 16922.2 0 -405445 17172.2 0 -406925 17423 0 -408426 17674.5 0 -409949 17926.8 0 -411494 18179.8 0 -413060 18433.6 0 -414648 18688.1 0 -416257 18943.5 0 -417889 19199.6 0 -419543 19456.5 0 -421218 19714.2 0 -422916 19972.8 0 -424636 20232.2 0 -426378 20492.4 0 -428142 20753.4 0 -429929 21015.3 0 -431738 21278 0 -433570 21541.6 0 -435424 21806.1 0 -437301 22071.5 0 -439201 22337.7 0 -441124 22604.8 0 -443069 22872.9 0 -445038 23141.8 0 -447029 23411.6 0 -449044 23682.4 0 -451082 23954.1 0 -453143 24226.7 0 -455228 24500.3 0 -457336 24774.8 0 -459468 25050.3 0 -461623 25326.7 0 -463802 25604.1 0 -466005 25882.5 0 -468231 26161.8 0 -470482 26442.2 0 -472757 26723.5 0 -475055 27005.8 0 -477379 27289.1 0 -479726 27573.5 0 -482098 27858.8 0 -484494 28145.2 0 -486915 28432.5 0 -489360 28720.9 0 -491830 29010.4 0 -494325 29300.8 0 -496845 29592.3 0 -499390 29884.9 0 -501960 30178.5 0 -504555 30473.1 0 -507176 30768.8 0 -509822 31065.5 0 -512493 31363.3 0 -515190 31662.2 0 -351781 0 0 -351790 254.509 0 -351819 509.03 0 -351866 763.575 0 -351933 1018.15 0 -352019 1272.78 0 -352123 1527.47 0 -352247 1782.22 0 -352390 2037.06 0 -352552 2292 0 -352733 2547.03 0 -352933 2802.19 0 -353152 3057.48 0 -353390 3312.9 0 -353648 3568.48 0 -353924 3824.23 0 -354220 4080.15 0 -354534 4336.25 0 -354868 4592.56 0 -355221 4849.08 0 -355594 5105.82 0 -355985 5362.8 0 -356396 5620.02 0 -356826 5877.51 0 -357275 6135.26 0 -357744 6393.29 0 -358232 6651.62 0 -358739 6910.25 0 -359265 7169.19 0 -359811 7428.47 0 -360377 7688.08 0 -360961 7948.05 0 -361566 8208.38 0 -362189 8469.08 0 -362832 8730.17 0 -363495 8991.65 0 -364178 9253.55 0 -364880 9515.86 0 -365601 9778.61 0 -366342 10041.8 0 -367103 10305.4 0 -367884 10569.5 0 -368685 10834.1 0 -369505 11099.2 0 -370345 11364.8 0 -371205 11630.9 0 -372085 11897.5 0 -372985 12164.6 0 -373905 12432.3 0 -374845 12700.6 0 -375805 12969.4 0 -376785 13238.8 0 -377786 13508.7 0 -378806 13779.3 0 -379847 14050.5 0 -380908 14322.3 0 -381990 14594.8 0 -383092 14867.9 0 -384214 15141.6 0 -385357 15416.1 0 -386521 15691.1 0 -387705 15966.9 0 -388909 16243.4 0 -390135 16520.6 0 -391381 16798.5 0 -392648 17077.2 0 -393936 17356.6 0 -395245 17636.7 0 -396575 17917.6 0 -397926 18199.3 0 -399298 18481.7 0 -400691 18765 0 -402105 19049 0 -403541 19333.9 0 -404998 19619.6 0 -406477 19906.1 0 -407977 20193.5 0 -409498 20481.7 0 -411041 20770.8 0 -412606 21060.8 0 -414193 21351.7 0 -415801 21643.4 0 -417431 21936.1 0 -419083 22229.6 0 -420757 22524.1 0 -422454 22819.5 0 -424172 23115.9 0 -425913 23413.2 0 -427675 23711.5 0 -429461 24010.7 0 -431268 24310.9 0 -433099 24612.1 0 -434951 24914.3 0 -436827 25217.5 0 -438725 25521.7 0 -440646 25826.9 0 -442590 26133.2 0 -444557 26440.5 0 -446547 26748.8 0 -448560 27058.2 0 -450596 27368.7 0 -452656 27680.2 0 -454739 27992.8 0 -456845 28306.5 0 -458975 28621.3 0 -461129 28937.2 0 -463306 29254.1 0 -465507 29572.2 0 -467732 29891.5 0 -469981 30211.8 0 -472253 30533.3 0 -474550 30855.9 0 -476872 31179.6 0 -479217 31504.5 0 -481587 31830.6 0 -483982 32157.8 0 -486401 32486.2 0 -488844 32815.8 0 -491312 33146.5 0 -493806 33478.4 0 -496324 33811.5 0 -498867 34145.9 0 -501435 34481.4 0 -504028 34818.1 0 -506647 35156 0 -509291 35495.1 0 -511961 35835.4 0 -514656 36176.9 0 -351330 0 0 -351340 286.219 0 -351368 572.451 0 -351416 858.709 0 -351482 1145.01 0 -351568 1431.36 0 -351672 1717.78 0 -351796 2004.27 0 -351939 2290.86 0 -352100 2577.56 0 -352281 2864.37 0 -352481 3151.32 0 -352700 3438.41 0 -352938 3725.66 0 -353195 4013.09 0 -353471 4300.69 0 -353766 4588.5 0 -354081 4876.52 0 -354414 5164.76 0 -354767 5453.24 0 -355139 5741.97 0 -355530 6030.97 0 -355940 6320.24 0 -356370 6609.81 0 -356819 6899.67 0 -357287 7189.86 0 -357774 7480.37 0 -358281 7771.23 0 -358807 8062.44 0 -359352 8354.02 0 -359917 8645.99 0 -360501 8938.35 0 -361104 9231.11 0 -361727 9524.3 0 -362370 9817.92 0 -363032 10112 0 -363714 10406.5 0 -364415 10701.5 0 -365136 10997 0 -365876 11293 0 -366636 11589.5 0 -367416 11886.5 0 -368216 12184.1 0 -369035 12482.2 0 -369874 12780.9 0 -370734 13080.1 0 -371613 13379.9 0 -372512 13680.4 0 -373430 13981.4 0 -374369 14283.1 0 -375329 14585.4 0 -376308 14888.4 0 -377307 15192 0 -378327 15496.3 0 -379366 15801.3 0 -380426 16107 0 -381507 16413.4 0 -382608 16720.6 0 -383729 17028.4 0 -384871 17337.1 0 -386033 17646.4 0 -387216 17956.6 0 -388419 18267.6 0 -389643 18579.3 0 -390888 18891.9 0 -392154 19205.3 0 -393441 19519.5 0 -394748 19834.5 0 -396077 20150.5 0 -397426 20467.2 0 -398797 20784.9 0 -400189 21103.5 0 -401602 21423 0 -403036 21743.4 0 -404492 22064.7 0 -405969 22386.9 0 -407467 22710.1 0 -408987 23034.3 0 -410529 23359.5 0 -412092 23685.6 0 -413677 24012.7 0 -415284 24340.8 0 -416912 24670 0 -418563 25000.2 0 -420235 25331.4 0 -421930 25663.6 0 -423646 25997 0 -425385 26331.4 0 -427146 26666.8 0 -428930 27003.4 0 -430736 27341.1 0 -432564 27679.8 0 -434415 28019.7 0 -436289 28360.7 0 -438186 28702.9 0 -440105 29046.2 0 -442047 29390.7 0 -444012 29736.3 0 -446000 30083.1 0 -448011 30431.1 0 -450046 30780.3 0 -452103 31130.7 0 -454184 31482.3 0 -456289 31835.2 0 -458417 32189.2 0 -460568 32544.5 0 -462744 32901.1 0 -464943 33258.9 0 -467165 33617.9 0 -469412 33978.3 0 -471683 34339.9 0 -473978 34702.7 0 -476297 35066.9 0 -478641 35432.4 0 -481009 35799.1 0 -483401 36167.2 0 -485818 36536.6 0 -488259 36907.3 0 -490726 37279.4 0 -493217 37652.7 0 -495733 38027.4 0 -498274 38403.5 0 -500840 38780.9 0 -503431 39159.7 0 -506048 39539.8 0 -508690 39921.3 0 -511357 40304.1 0 -514050 40688.3 0 -350827 0 0 -350836 317.892 0 -350865 635.798 0 -350912 953.733 0 -350979 1271.71 0 -351064 1589.75 0 -351168 1907.86 0 -351292 2226.06 0 -351434 2544.37 0 -351596 2862.79 0 -351777 3181.34 0 -351976 3500.04 0 -352195 3818.91 0 -352432 4137.95 0 -352689 4457.18 0 -352965 4776.61 0 -353260 5096.27 0 -353574 5416.16 0 -353907 5736.3 0 -354259 6056.71 0 -354631 6377.39 0 -355021 6698.37 0 -355431 7019.65 0 -355860 7341.26 0 -356308 7663.21 0 -356776 7985.51 0 -357263 8308.17 0 -357769 8631.22 0 -358294 8954.66 0 -358839 9278.52 0 -359403 9602.79 0 -359986 9927.51 0 -360589 10252.7 0 -361211 10578.3 0 -361853 10904.4 0 -362514 11231.1 0 -363195 11558.2 0 -363895 11885.8 0 -364615 12214 0 -365355 12542.8 0 -366114 12872.1 0 -366893 13202 0 -367692 13532.5 0 -368510 13863.6 0 -369349 14195.3 0 -370207 14527.7 0 -371085 14860.7 0 -371983 15194.4 0 -372900 15528.8 0 -373838 15863.9 0 -374796 16199.7 0 -375774 16536.2 0 -376772 16873.4 0 -377791 17211.4 0 -378829 17550.2 0 -379888 17889.7 0 -380967 18230.1 0 -382067 18571.2 0 -383187 18913.2 0 -384327 19256 0 -385488 19599.6 0 -386669 19944.1 0 -387872 20289.5 0 -389094 20635.8 0 -390338 20982.9 0 -391602 21331 0 -392887 21680 0 -394193 22030 0 -395520 22380.9 0 -396868 22732.8 0 -398237 23085.6 0 -399628 23439.5 0 -401039 23794.3 0 -402472 24150.2 0 -403926 24507.1 0 -405401 24865.1 0 -406898 25224.1 0 -408416 25584.2 0 -409956 25945.3 0 -411517 26307.6 0 -413101 26671 0 -414705 27035.4 0 -416332 27401.1 0 -417981 27767.8 0 -419652 28135.7 0 -421344 28504.8 0 -423059 28875.1 0 -424796 29246.5 0 -426555 29619.2 0 -428337 29993 0 -430141 30368.1 0 -431968 30744.4 0 -433817 31122 0 -435688 31500.8 0 -437583 31880.9 0 -439500 32262.3 0 -441440 32644.9 0 -443403 33028.9 0 -445389 33414.1 0 -447398 33800.7 0 -449430 34188.6 0 -451486 34577.9 0 -453565 34968.5 0 -455667 35360.4 0 -457793 35753.8 0 -459942 36148.4 0 -462115 36544.5 0 -464312 36942 0 -466533 37340.9 0 -468777 37741.2 0 -471046 38142.9 0 -473339 38546 0 -475656 38950.6 0 -477997 39356.6 0 -480362 39764 0 -482752 40173 0 -485167 40583.3 0 -487606 40995.2 0 -490070 41408.5 0 -492559 41823.3 0 -495072 42239.6 0 -497611 42657.4 0 -500175 43076.7 0 -502764 43497.5 0 -505378 43919.8 0 -508017 44343.6 0 -510682 44769 0 -513373 45195.8 0 -350270 0 0 -350280 349.523 0 -350308 699.063 0 -350356 1048.63 0 -350422 1398.26 0 -350508 1747.94 0 -350612 2097.71 0 -350735 2447.57 0 -350877 2797.55 0 -351039 3147.65 0 -351219 3497.91 0 -351418 3848.32 0 -351637 4198.91 0 -351874 4549.7 0 -352130 4900.69 0 -352406 5251.92 0 -352700 5603.38 0 -353014 5955.11 0 -353347 6307.1 0 -353699 6659.39 0 -354069 7011.99 0 -354460 7364.91 0 -354869 7718.17 0 -355297 8071.78 0 -355745 8425.77 0 -356212 8780.14 0 -356698 9134.92 0 -357203 9490.11 0 -357728 9845.75 0 -358272 10201.8 0 -358835 10558.4 0 -359418 10915.4 0 -360020 11272.9 0 -360641 11631 0 -361282 11989.6 0 -361942 12348.7 0 -362622 12708.4 0 -363322 13068.6 0 -364041 13429.5 0 -364779 13791 0 -365538 14153.1 0 -366315 14515.8 0 -367113 14879.2 0 -367930 15243.3 0 -368768 15608 0 -369625 15973.5 0 -370501 16339.7 0 -371398 16706.6 0 -372315 17074.2 0 -373251 17442.7 0 -374208 17811.9 0 -375185 18181.9 0 -376182 18552.7 0 -377199 18924.4 0 -378236 19296.9 0 -379293 19670.2 0 -380371 20044.4 0 -381469 20419.5 0 -382588 20795.6 0 -383727 21172.5 0 -384886 21550.4 0 -386066 21929.2 0 -387267 22308.9 0 -388488 22689.7 0 -389730 23071.4 0 -390992 23454.2 0 -392276 23838 0 -393580 24222.8 0 -394906 24608.6 0 -396252 24995.6 0 -397619 25383.6 0 -399008 25772.7 0 -400417 26162.9 0 -401848 26554.2 0 -403300 26946.7 0 -404774 27340.3 0 -406269 27735.1 0 -407785 28131 0 -409323 28528.2 0 -410883 28926.5 0 -412464 29326.1 0 -414067 29726.9 0 -415692 30129 0 -417338 30532.3 0 -419007 30936.8 0 -420697 31342.7 0 -422410 31749.9 0 -424145 32158.3 0 -425902 32568.1 0 -427682 32979.3 0 -429484 33391.7 0 -431308 33805.6 0 -433155 34220.8 0 -435024 34637.4 0 -436916 35055.3 0 -438831 35474.7 0 -440769 35895.5 0 -442730 36317.8 0 -444714 36741.5 0 -446720 37166.6 0 -448750 37593.2 0 -450803 38021.3 0 -452880 38450.8 0 -454980 38881.9 0 -457103 39314.4 0 -459250 39748.5 0 -461421 40184.1 0 -463615 40621.2 0 -465834 41059.9 0 -468076 41500.1 0 -470342 41941.9 0 -472632 42385.3 0 -474946 42830.3 0 -477285 43276.8 0 -479648 43724.9 0 -482036 44174.6 0 -484448 44626 0 -486884 45079 0 -489346 45533.5 0 -491832 45989.8 0 -494343 46447.6 0 -496879 46907.2 0 -499440 47368.3 0 -502026 47831.1 0 -504637 48295.6 0 -507274 48761.8 0 -509937 49229.6 0 -512624 49699.1 0 -349662 0 0 -349671 381.11 0 -349699 762.238 0 -349747 1143.4 0 -349813 1524.62 0 -349898 1905.9 0 -350002 2287.28 0 -350126 2668.76 0 -350268 3050.37 0 -350429 3432.11 0 -350609 3814.02 0 -350808 4196.1 0 -351026 4578.38 0 -351263 4960.86 0 -351519 5343.58 0 -351794 5726.55 0 -352088 6109.78 0 -352401 6493.29 0 -352733 6877.1 0 -353085 7261.23 0 -353455 7645.69 0 -353844 8030.51 0 -354253 8415.7 0 -354681 8801.27 0 -355128 9187.25 0 -355594 9573.66 0 -356079 9960.5 0 -356584 10347.8 0 -357108 10735.6 0 -357651 11123.8 0 -358213 11512.6 0 -358795 11901.9 0 -359396 12291.8 0 -360017 12682.2 0 -360657 13073.2 0 -361316 13464.8 0 -361995 13857 0 -362694 14249.8 0 -363412 14643.3 0 -364149 15037.4 0 -364906 15432.3 0 -365683 15827.8 0 -366479 16224.1 0 -367296 16621 0 -368132 17018.8 0 -368987 17417.3 0 -369863 17816.6 0 -370758 18216.7 0 -371674 18617.6 0 -372609 19019.3 0 -373564 19421.9 0 -374540 19825.4 0 -375535 20229.7 0 -376550 20635 0 -377586 21041.2 0 -378642 21448.3 0 -379718 21856.4 0 -380815 22265.4 0 -381932 22675.4 0 -383069 23086.4 0 -384227 23498.5 0 -385405 23911.6 0 -386604 24325.7 0 -387824 24740.9 0 -389064 25157.2 0 -390325 25574.5 0 -391606 25993 0 -392909 26412.7 0 -394232 26833.4 0 -395577 27255.4 0 -396942 27678.5 0 -398329 28102.8 0 -399736 28528.3 0 -401165 28955.1 0 -402616 29383 0 -404087 29812.3 0 -405580 30242.8 0 -407094 30674.6 0 -408630 31107.7 0 -410187 31542.1 0 -411767 31977.8 0 -413367 32414.9 0 -414990 32853.4 0 -416634 33293.2 0 -418301 33734.4 0 -419989 34177 0 -421700 34621 0 -423432 35066.5 0 -425187 35513.4 0 -426964 35961.8 0 -428764 36411.6 0 -430586 36862.9 0 -432430 37315.7 0 -434297 37770 0 -436187 38225.9 0 -438099 38683.3 0 -440035 39142.2 0 -441993 39602.7 0 -443974 40064.8 0 -445978 40528.4 0 -448006 40993.7 0 -450056 41460.5 0 -452130 41929 0 -454228 42399.2 0 -456348 42870.9 0 -458493 43344.3 0