<?xml version="1.0"?> 
<VTKFile type="StructuredGrid" version="0.1"> 
<StructuredGrid WholeExtent="0 127 0 127 0 0"> 
<Piece Extent="0 127 0 127 0 0"> 
<PointData>
<DataArray type="Float32" Name="E" format="ascii" NumberOfComponents="3"> 
-516937 -0.00380701 0 -521499 -0.00382043 0 -526133 -0.00383174 0 -530840 -0.00384078 0 -535618 -0.00384747 0 -540470 -0.00385193 0 -545395 -0.00385387 0 -550394 -0.00385326 0 -555467 -0.00385007 0 -560615 -0.00384415 0 -565839 -0.00383545 0 -571137 -0.00382391 0 -576512 -0.00380935 0 -581963 -0.00379185 0 -587491 -0.00377111 0 -593096 -0.00374718 0 -598778 -0.00371996 0 -604539 -0.00368923 0 -610378 -0.003655 0 -616296 -0.00361721 0 -622293 -0.00357567 0 -628370 -0.0035303 0 -634527 -0.003481 0 -640765 -0.00342776 0 -647083 -0.00337036 0 -653483 -0.00330873 0 -659964 -0.00324284 0 -666527 -0.00317247 0 -673172 -0.00309762 0 -679900 -0.00301821 0 -686711 -0.002934 0 -693605 -0.00284504 0 -700583 -0.00275115 0 -707645 -0.0026522 0 -714791 -0.00254828 0 -722021 -0.00243905 0 -729337 -0.00232459 0 -736737 -0.00220474 0 -744223 -0.00207945 0 -751794 -0.00194866 0 -759451 -0.00181214 0 -767194 -0.00166999 0 -775023 -0.0015221 0 -782938 -0.00136834 0 -790940 -0.00120869 0 -799029 -0.0010431 0 -807204 -0.000871508 0 -815466 -0.000693803 0 -823816 -0.00051002 0 -832252 -0.000320031 0 -840775 -0.000124034 0 -849385 7.82674e-05 0 -858083 0.000286797 0 -866868 0.0005014 0 -875739 0.000722318 0 -884698 0.000949314 0 -893743 0.00118258 0 -902875 0.00142205 0 -912094 0.00166743 0 -921399 0.001919 0 -930791 0.00217657 0 -940269 0.00243995 0 -949832 0.00270929 0 -959481 0.0029843 0 -969215 0.0032648 0 -979033 0.00355095 0 -988937 0.00384244 0 -998924 0.00413913 0 -1.00899e+06 0.00444092 0 -1.01915e+06 0.00474757 0 -1.02939e+06 0.00505896 0 -1.0397e+06 0.00537474 0 -1.0501e+06 0.00569491 0 -1.06059e+06 0.00601908 0 -1.07115e+06 0.00634699 0 -1.08179e+06 0.00667848 0 -1.09251e+06 0.00701323 0 -1.1033e+06 0.00735089 0 -1.11418e+06 0.00769132 0 -1.12513e+06 0.00803406 0 -1.13616e+06 0.00837873 0 -1.14726e+06 0.00872525 0 -1.15844e+06 0.00907281 0 -1.16968e+06 0.00942141 0 -1.181e+06 0.00977066 0 -1.19239e+06 0.01012 0 -1.20386e+06 0.0104692 0 -1.21538e+06 0.0108176 0 -1.22698e+06 0.0111647 0 -1.23864e+06 0.0115106 0 -1.25037e+06 0.0118543 0 -1.26216e+06 0.0121954 0 -1.27401e+06 0.0125339 0 -1.28593e+06 0.0128689 0 -1.2979e+06 0.0132 0 -1.30993e+06 0.0135267 0 -1.32202e+06 0.0138486 0 -1.33416e+06 0.0141652 0 -1.34635e+06 0.0144759 0 -1.3586e+06 0.0147805 0 -1.3709e+06 0.0150782 0 -1.38325e+06 0.0153688 0 -1.39564e+06 0.0156515 0 -1.40808e+06 0.015926 0 -1.42056e+06 0.016192 0 -1.43308e+06 0.0164487 0 -1.44565e+06 0.0166959 0 -1.45825e+06 0.0169332 0 -1.47088e+06 0.0171599 0 -1.48356e+06 0.0173757 0 -1.49626e+06 0.0175806 0 -1.509e+06 0.0177734 0 -1.52176e+06 0.0179547 0 -1.53455e+06 0.0181234 0 -1.54736e+06 0.0182795 0 -1.5602e+06 0.0184227 0 -1.57306e+06 0.0185525 0 -1.58593e+06 0.0186689 0 -1.59883e+06 0.0187716 0 -1.61173e+06 0.0188606 0 -1.62465e+06 0.0189349 0 -1.63758e+06 0.0189955 0 -1.65052e+06 0.0190413 0 -1.66346e+06 0.0190726 0 -1.67641e+06 0.0190895 0 -1.68936e+06 0.0190914 0 -1.70231e+06 0.0190788 0 -1.71525e+06 0.0190516 0 -516901 4526.54 0 -521463 4598.05 0 -526097 4669.98 0 -530803 4742.34 0 -535582 4815.12 0 -540433 4888.32 0 -545358 4961.95 0 -550357 5036 0 -555430 5110.48 0 -560578 5185.39 0 -565801 5260.72 0 -571099 5336.48 0 -576474 5412.65 0 -581924 5489.25 0 -587452 5566.27 0 -593057 5643.7 0 -598739 5721.55 0 -604500 5799.8 0 -610339 5878.47 0 -616257 5957.54 0 -622254 6037.01 0 -628330 6116.87 0 -634487 6197.13 0 -640725 6277.77 0 -647043 6358.78 0 -653442 6440.17 0 -659923 6521.93 0 -666486 6604.04 0 -673131 6686.51 0 -679859 6769.32 0 -686669 6852.46 0 -693563 6935.92 0 -700541 7019.7 0 -707603 7103.78 0 -714749 7188.16 0 -721979 7272.82 0 -729294 7357.74 0 -736694 7442.93 0 -744180 7528.36 0 -751751 7614.01 0 -759408 7699.89 0 -767151 7785.96 0 -774980 7872.22 0 -782895 7958.64 0 -790897 8045.22 0 -798985 8131.93 0 -807161 8218.76 0 -815423 8305.68 0 -823772 8392.68 0 -832208 8479.74 0 -840732 8566.83 0 -849342 8653.94 0 -858039 8741.04 0 -866824 8828.1 0 -875696 8915.11 0 -884654 9002.04 0 -893700 9088.87 0 -902832 9175.57 0 -912051 9262.11 0 -921356 9348.46 0 -930748 9434.61 0 -940226 9520.51 0 -949789 9606.14 0 -959438 9691.48 0 -969172 9776.49 0 -978991 9861.13 0 -988895 9945.38 0 -998882 10029.2 0 -1.00895e+06 10112.6 0 -1.01911e+06 10195.5 0 -1.02934e+06 10277.8 0 -1.03966e+06 10359.6 0 -1.05006e+06 10440.8 0 -1.06055e+06 10521.4 0 -1.07111e+06 10601.3 0 -1.08175e+06 10680.5 0 -1.09247e+06 10759 0 -1.10327e+06 10836.7 0 -1.11414e+06 10913.6 0 -1.12509e+06 10989.6 0 -1.13612e+06 11064.8 0 -1.14722e+06 11139 0 -1.1584e+06 11212.3 0 -1.16965e+06 11284.5 0 -1.18097e+06 11355.7 0 -1.19236e+06 11425.9 0 -1.20382e+06 11494.9 0 -1.21535e+06 11562.8 0 -1.22695e+06 11629.4 0 -1.23861e+06 11694.9 0 -1.25034e+06 11759 0 -1.26213e+06 11821.9 0 -1.27398e+06 11883.4 0 -1.2859e+06 11943.5 0 -1.29787e+06 12002.2 0 -1.3099e+06 12059.5 0 -1.32199e+06 12115.2 0 -1.33413e+06 12169.4 0 -1.34633e+06 12222.1 0 -1.35858e+06 12273.2 0 -1.37087e+06 12322.6 0 -1.38322e+06 12370.3 0 -1.39562e+06 12416.4 0 -1.40806e+06 12460.7 0 -1.42054e+06 12503.3 0 -1.43306e+06 12544.1 0 -1.44563e+06 12583.1 0 -1.45823e+06 12620.2 0 -1.47087e+06 12655.4 0 -1.48354e+06 12688.8 0 -1.49625e+06 12720.2 0 -1.50898e+06 12749.7 0 -1.52175e+06 12777.3 0 -1.53454e+06 12802.8 0 -1.54735e+06 12826.3 0 -1.56019e+06 12847.9 0 -1.57305e+06 12867.4 0 -1.58593e+06 12884.8 0 -1.59882e+06 12900.2 0 -1.61173e+06 12913.5 0 -1.62465e+06 12924.7 0 -1.63758e+06 12933.8 0 -1.65052e+06 12940.9 0 -1.66346e+06 12945.8 0 -1.67641e+06 12948.6 0 -1.68936e+06 12949.3 0 -1.70231e+06 12947.9 0 -1.71525e+06 12944.4 0 -516794 9052.66 0 -521356 9195.68 0 -525989 9339.54 0 -530694 9484.25 0 -535472 9629.8 0 -540323 9776.21 0 -545248 9923.47 0 -550246 10071.6 0 -555318 10220.5 0 -560465 10370.4 0 -565687 10521 0 -570985 10672.5 0 -576359 10824.9 0 -581809 10978.1 0 -587336 11132.1 0 -592940 11287 0 -598622 11442.7 0 -604382 11599.2 0 -610220 11756.5 0 -616138 11914.7 0 -622134 12073.6 0 -628210 12233.4 0 -634367 12393.9 0 -640603 12555.2 0 -646921 12717.2 0 -653320 12880 0 -659800 13043.5 0 -666362 13207.7 0 -673007 13372.7 0 -679734 13538.3 0 -686544 13704.6 0 -693438 13871.5 0 -700415 14039.1 0 -707476 14207.3 0 -714622 14376 0 -721852 14545.4 0 -729167 14715.2 0 -736566 14885.6 0 -744052 15056.5 0 -751622 15227.8 0 -759279 15399.6 0 -767021 15571.7 0 -774850 15744.3 0 -782765 15917.1 0 -790767 16090.3 0 -798855 16263.8 0 -807030 16437.4 0 -815292 16611.3 0 -823642 16785.3 0 -832078 16959.4 0 -840601 17133.7 0 -849211 17307.9 0 -857909 17482.1 0 -866693 17656.3 0 -875565 17830.3 0 -884524 18004.2 0 -893570 18177.9 0 -902702 18351.3 0 -911921 18524.4 0 -921227 18697.1 0 -930619 18869.5 0 -940097 19041.3 0 -949661 19212.6 0 -959310 19383.3 0 -969045 19553.3 0 -978864 19722.7 0 -988768 19891.2 0 -998757 20058.9 0 -1.00883e+06 20225.7 0 -1.01898e+06 20391.5 0 -1.02922e+06 20556.2 0 -1.03954e+06 20719.8 0 -1.04994e+06 20882.3 0 -1.06042e+06 21043.5 0 -1.07099e+06 21203.3 0 -1.08163e+06 21361.8 0 -1.09235e+06 21518.8 0 -1.10315e+06 21674.2 0 -1.11403e+06 21828 0 -1.12498e+06 21980.1 0 -1.13601e+06 22130.5 0 -1.14711e+06 22279 0 -1.15829e+06 22425.5 0 -1.16954e+06 22570.1 0 -1.18086e+06 22712.6 0 -1.19226e+06 22852.9 0 -1.20372e+06 22991 0 -1.21525e+06 23126.7 0 -1.22685e+06 23260.1 0 -1.23851e+06 23391 0 -1.25024e+06 23519.4 0 -1.26203e+06 23645.1 0 -1.27389e+06 23768.2 0 -1.28581e+06 23888.5 0 -1.29778e+06 24005.9 0 -1.30982e+06 24120.4 0 -1.32191e+06 24232 0 -1.33405e+06 24340.5 0 -1.34625e+06 24445.8 0 -1.3585e+06 24548 0 -1.3708e+06 24646.8 0 -1.38315e+06 24742.4 0 -1.39555e+06 24834.5 0 -1.40799e+06 24923.2 0 -1.42048e+06 25008.4 0 -1.433e+06 25090 0 -1.44557e+06 25168 0 -1.45817e+06 25242.2 0 -1.47082e+06 25312.8 0 -1.48349e+06 25379.5 0 -1.4962e+06 25442.4 0 -1.50894e+06 25501.4 0 -1.52171e+06 25556.5 0 -1.5345e+06 25607.6 0 -1.54732e+06 25654.7 0 -1.56016e+06 25697.8 0 -1.57302e+06 25736.8 0 -1.5859e+06 25771.7 0 -1.5988e+06 25802.4 0 -1.61171e+06 25829.1 0 -1.62463e+06 25851.5 0 -1.63756e+06 25869.8 0 -1.65051e+06 25883.9 0 -1.66345e+06 25893.7 0 -1.6764e+06 25899.4 0 -1.68936e+06 25900.8 0 -1.70231e+06 25898 0 -1.71526e+06 25891 0 -516616 13577.9 0 -521177 13792.5 0 -525809 14008.3 0 -530513 14225.3 0 -535290 14443.6 0 -540140 14663.3 0 -545063 14884.1 0 -550060 15106.3 0 -555131 15329.7 0 -560277 15554.5 0 -565499 15780.5 0 -570795 16007.7 0 -576168 16236.3 0 -581617 16466.1 0 -587143 16697.1 0 -592746 16929.4 0 -598427 17163 0 -604186 17397.8 0 -610023 17633.8 0 -615939 17871 0 -621935 18109.4 0 -628010 18349.1 0 -634165 18589.8 0 -640401 18831.8 0 -646718 19074.9 0 -653116 19319.1 0 -659595 19564.4 0 -666157 19810.7 0 -672800 20058.2 0 -679527 20306.6 0 -686336 20556.1 0 -693229 20806.5 0 -700205 21057.9 0 -707266 21310.2 0 -714410 21563.3 0 -721640 21817.4 0 -728954 22072.2 0 -736353 22327.8 0 -743838 22584.1 0 -751408 22841.2 0 -759064 23098.9 0 -766806 23357.1 0 -774634 23616 0 -782549 23875.3 0 -790550 24135.1 0 -798638 24395.3 0 -806813 24655.9 0 -815075 24916.7 0 -823424 25177.8 0 -831860 25439.1 0 -840383 25700.4 0 -848993 25961.8 0 -857691 26223.2 0 -866476 26484.5 0 -875348 26745.7 0 -884307 27006.6 0 -893353 27267.1 0 -902486 27527.3 0 -911705 27787.1 0 -921011 28046.2 0 -930404 28304.8 0 -939882 28562.6 0 -949447 28819.6 0 -959097 29075.8 0 -968833 29330.9 0 -978653 29585 0 -988558 29837.8 0 -998548 30089.5 0 -1.00862e+06 30339.7 0 -1.01878e+06 30588.5 0 -1.02902e+06 30835.7 0 -1.03934e+06 31081.2 0 -1.04974e+06 31325 0 -1.06022e+06 31566.9 0 -1.07079e+06 31806.8 0 -1.08143e+06 32044.5 0 -1.09216e+06 32280.1 0 -1.10296e+06 32513.3 0 -1.11384e+06 32744.2 0 -1.12479e+06 32972.4 0 -1.13582e+06 33198 0 -1.14693e+06 33420.9 0 -1.15811e+06 33640.8 0 -1.16936e+06 33857.7 0 -1.18069e+06 34071.5 0 -1.19208e+06 34282.1 0 -1.20355e+06 34489.3 0 -1.21508e+06 34693.1 0 -1.22668e+06 34893.2 0 -1.23835e+06 35089.7 0 -1.25008e+06 35282.4 0 -1.26188e+06 35471.1 0 -1.27374e+06 35655.7 0 -1.28566e+06 35836.3 0 -1.29764e+06 36012.5 0 -1.30967e+06 36184.4 0 -1.32177e+06 36351.8 0 -1.33392e+06 36514.6 0 -1.34612e+06 36672.7 0 -1.35838e+06 36826 0 -1.37068e+06 36974.4 0 -1.38303e+06 37117.8 0 -1.39544e+06 37256.1 0 -1.40788e+06 37389.3 0 -1.42037e+06 37517.1 0 -1.4329e+06 37639.6 0 -1.44547e+06 37756.6 0 -1.45808e+06 37868 0 -1.47073e+06 37973.9 0 -1.48341e+06 38074.1 0 -1.49612e+06 38168.5 0 -1.50887e+06 38257 0 -1.52164e+06 38339.7 0 -1.53444e+06 38416.4 0 -1.54726e+06 38487.1 0 -1.56011e+06 38551.8 0 -1.57297e+06 38610.3 0 -1.58586e+06 38662.7 0 -1.59876e+06 38708.9 0 -1.61168e+06 38748.8 0 -1.62461e+06 38782.5 0 -1.63754e+06 38809.9 0 -1.65049e+06 38831 0 -1.66344e+06 38845.8 0 -1.6764e+06 38854.3 0 -1.68936e+06 38856.4 0 -1.70232e+06 38852.2 0 -1.71527e+06 38841.7 0 -516367 18102 0 -520926 18388 0 -525556 18675.7 0 -530259 18965.1 0 -535034 19256.2 0 -539883 19549 0 -544804 19843.5 0 -549800 20139.8 0 -554870 20437.7 0 -560014 20737.3 0 -565234 21038.6 0 -570529 21341.7 0 -575901 21646.4 0 -581348 21952.8 0 -586873 22260.9 0 -592474 22570.7 0 -598154 22882.1 0 -603911 23195.1 0 -609747 23509.8 0 -615662 23826.2 0 -621656 24144.1 0 -627730 24463.6 0 -633884 24784.7 0 -640118 25107.3 0 -646434 25431.4 0 -652830 25757 0 -659308 26084.1 0 -665868 26412.7 0 -672511 26742.6 0 -679236 27073.9 0 -686044 27406.6 0 -692936 27740.5 0 -699911 28075.8 0 -706971 28412.2 0 -714115 28749.8 0 -721343 29088.6 0 -728656 29428.4 0 -736054 29769.3 0 -743538 30111.1 0 -751108 30453.9 0 -758763 30797.5 0 -766504 31142 0 -774332 31487.2 0 -782246 31833.1 0 -790247 32179.5 0 -798334 32526.6 0 -806509 32874.1 0 -814771 33222 0 -823119 33570.2 0 -831555 33918.6 0 -840078 34267.2 0 -848688 34615.8 0 -857386 34964.5 0 -866171 35313 0 -875043 35661.2 0 -884002 36009.2 0 -893049 36356.8 0 -902182 36703.8 0 -911402 37050.3 0 -920709 37396 0 -930102 37740.8 0 -939582 38084.7 0 -949148 38427.6 0 -958799 38769.2 0 -968536 39109.5 0 -978357 39448.4 0 -988264 39785.8 0 -998255 40121.4 0 -1.00833e+06 40455.2 0 -1.01849e+06 40787.1 0 -1.02873e+06 41116.9 0 -1.03905e+06 41444.4 0 -1.04946e+06 41769.6 0 -1.05994e+06 42092.3 0 -1.07051e+06 42412.3 0 -1.08116e+06 42729.5 0 -1.09188e+06 43043.7 0 -1.10269e+06 43354.9 0 -1.11357e+06 43662.8 0 -1.12453e+06 43967.4 0 -1.13556e+06 44268.4 0 -1.14667e+06 44565.6 0 -1.15785e+06 44859.1 0 -1.16911e+06 45148.5 0 -1.18044e+06 45433.7 0 -1.19184e+06 45714.7 0 -1.20331e+06 45991.2 0 -1.21485e+06 46263 0 -1.22645e+06 46530.1 0 -1.23812e+06 46792.2 0 -1.24986e+06 47049.2 0 -1.26166e+06 47301 0 -1.27352e+06 47547.5 0 -1.28545e+06 47788.3 0 -1.29743e+06 48023.5 0 -1.30948e+06 48252.9 0 -1.32158e+06 48476.2 0 -1.33373e+06 48693.4 0 -1.34594e+06 48904.4 0 -1.3582e+06 49109 0 -1.37051e+06 49307 0 -1.38287e+06 49498.4 0 -1.39528e+06 49682.9 0 -1.40773e+06 49860.6 0 -1.42023e+06 50031.1 0 -1.43276e+06 50194.6 0 -1.44534e+06 50350.7 0 -1.45796e+06 50499.5 0 -1.47061e+06 50640.7 0 -1.4833e+06 50774.4 0 -1.49602e+06 50900.4 0 -1.50877e+06 51018.5 0 -1.52155e+06 51128.9 0 -1.53435e+06 51231.2 0 -1.54718e+06 51325.6 0 -1.56004e+06 51411.9 0 -1.57291e+06 51490 0 -1.5858e+06 51559.9 0 -1.59871e+06 51621.5 0 -1.61163e+06 51674.8 0 -1.62457e+06 51719.8 0 -1.63752e+06 51756.4 0 -1.65047e+06 51784.5 0 -1.66343e+06 51804.3 0 -1.67639e+06 51815.6 0 -1.68936e+06 51818.4 0 -1.70233e+06 51812.8 0 -1.71529e+06 51798.8 0 -516046 22624.3 0 -520603 22981.8 0 -525232 23341.4 0 -529932 23703.2 0 -534706 24067.1 0 -539552 24433.1 0 -544472 24801.2 0 -549466 25171.5 0 -554534 25543.9 0 -559676 25918.4 0 -564894 26295.1 0 -570188 26673.9 0 -575557 27054.8 0 -581003 27437.9 0 -586525 27823 0 -592125 28210.2 0 -597802 28599.5 0 -603558 28990.9 0 -609392 29384.3 0 -615305 29779.7 0 -621297 30177.1 0 -627370 30576.6 0 -633522 30977.9 0 -639754 31381.2 0 -646068 31786.5 0 -652463 32193.5 0 -658939 32602.5 0 -665498 33013.2 0 -672139 33425.7 0 -678863 33839.9 0 -685669 34255.8 0 -692560 34673.3 0 -699534 35092.4 0 -706592 35513 0 -713734 35935.1 0 -720961 36358.7 0 -728273 36783.6 0 -735670 37209.7 0 -743153 37637.2 0 -750721 38065.7 0 -758376 38495.4 0 -766116 38926.1 0 -773943 39357.7 0 -781857 39790.2 0 -789857 40223.4 0 -797944 40657.3 0 -806118 41091.9 0 -814379 41526.9 0 -822727 41962.3 0 -831163 42398 0 -839686 42833.9 0 -848296 43269.8 0 -856994 43705.8 0 -865779 44141.6 0 -874651 44577.1 0 -883611 45012.3 0 -892658 45447 0 -901792 45881 0 -911013 46314.2 0 -920321 46746.5 0 -929715 47177.8 0 -939196 47607.9 0 -948762 48036.7 0 -958415 48464 0 -968153 48889.6 0 -977977 49313.5 0 -987885 49735.4 0 -997878 50155.2 0 -1.00795e+06 50572.7 0 -1.01812e+06 50987.8 0 -1.02836e+06 51400.3 0 -1.03868e+06 51810 0 -1.04909e+06 52216.7 0 -1.05958e+06 52620.3 0 -1.07015e+06 53020.6 0 -1.0808e+06 53417.4 0 -1.09153e+06 53810.5 0 -1.10234e+06 54199.7 0 -1.11322e+06 54584.9 0 -1.12419e+06 54965.9 0 -1.13522e+06 55342.4 0 -1.14634e+06 55714.3 0 -1.15753e+06 56081.3 0 -1.16879e+06 56443.4 0 -1.18012e+06 56800.3 0 -1.19152e+06 57151.7 0 -1.203e+06 57497.6 0 -1.21454e+06 57837.7 0 -1.22615e+06 58171.8 0 -1.23783e+06 58499.8 0 -1.24957e+06 58821.4 0 -1.26138e+06 59136.4 0 -1.27325e+06 59444.7 0 -1.28518e+06 59746.1 0 -1.29717e+06 60040.3 0 -1.30922e+06 60327.3 0 -1.32133e+06 60606.7 0 -1.33349e+06 60878.6 0 -1.3457e+06 61142.5 0 -1.35797e+06 61398.5 0 -1.37029e+06 61646.3 0 -1.38266e+06 61885.7 0 -1.39507e+06 62116.6 0 -1.40753e+06 62338.9 0 -1.42004e+06 62552.4 0 -1.43258e+06 62756.8 0 -1.44517e+06 62952.2 0 -1.45779e+06 63138.4 0 -1.47046e+06 63315.1 0 -1.48315e+06 63482.4 0 -1.49588e+06 63640 0 -1.50864e+06 63787.9 0 -1.52143e+06 63926 0 -1.53424e+06 64054.1 0 -1.54708e+06 64172.2 0 -1.55994e+06 64280.1 0 -1.57283e+06 64377.9 0 -1.58573e+06 64465.3 0 -1.59865e+06 64542.4 0 -1.61158e+06 64609.2 0 -1.62452e+06 64665.4 0 -1.63748e+06 64711.2 0 -1.65044e+06 64746.5 0 -1.66341e+06 64771.2 0 -1.67639e+06 64785.3 0 -1.68936e+06 64788.9 0 -1.70234e+06 64781.9 0 -1.71531e+06 64764.3 0 -515654 27144.5 0 -520208 27573.5 0 -524835 28005.1 0 -529533 28439.2 0 -534304 28875.8 0 -539149 29315 0 -544066 29756.8 0 -549057 30201.1 0 -554123 30648 0 -559263 31097.5 0 -564479 31549.5 0 -569770 32004 0 -575137 32461.2 0 -580580 32920.8 0 -586100 33383 0 -591698 33847.7 0 -597373 34314.9 0 -603126 34784.5 0 -608958 35256.7 0 -614869 35731.2 0 -620859 36208.2 0 -626929 36687.6 0 -633079 37169.3 0 -639310 37653.3 0 -645621 38139.6 0 -652014 38628.2 0 -658489 39119 0 -665045 39612 0 -671684 40107 0 -678406 40604.2 0 -685211 41103.4 0 -692099 41604.5 0 -699072 42107.5 0 -706128 42612.4 0 -713269 43119.1 0 -720494 43627.4 0 -727805 44137.4 0 -735201 44649 0 -742682 45162 0 -750249 45676.5 0 -757902 46192.3 0 -765642 46709.3 0 -773468 47227.4 0 -781380 47746.5 0 -789380 48266.6 0 -797466 48787.5 0 -805639 49309.1 0 -813900 49831.4 0 -822248 50354.1 0 -830683 50877.2 0 -839206 51400.5 0 -847816 51923.9 0 -856514 52447.3 0 -865300 52970.5 0 -874172 53493.4 0 -883133 54015.9 0 -892180 54537.8 0 -901315 55058.9 0 -910537 55579 0 -919845 56098.1 0 -929241 56616 0 -938723 57132.4 0 -948291 57647.3 0 -957946 58160.4 0 -967686 58671.5 0 -977512 59180.5 0 -987422 59687.1 0 -997417 60191.2 0 -1.0075e+06 60692.6 0 -1.01766e+06 61191.1 0 -1.02791e+06 61686.5 0 -1.03824e+06 62178.5 0 -1.04865e+06 62667 0 -1.05914e+06 63151.7 0 -1.06971e+06 63632.4 0 -1.08037e+06 64109 0 -1.0911e+06 64581.1 0 -1.10191e+06 65048.6 0 -1.1128e+06 65511.2 0 -1.12377e+06 65968.8 0 -1.13481e+06 66421 0 -1.14593e+06 66867.7 0 -1.15712e+06 67308.6 0 -1.16839e+06 67743.5 0 -1.17973e+06 68172.2 0 -1.19114e+06 68594.4 0 -1.20262e+06 69009.9 0 -1.21417e+06 69418.4 0 -1.22579e+06 69819.8 0 -1.23747e+06 70213.7 0 -1.24922e+06 70600.1 0 -1.26104e+06 70978.5 0 -1.27292e+06 71348.9 0 -1.28485e+06 71710.9 0 -1.29685e+06 72064.4 0 -1.30891e+06 72409.2 0 -1.32102e+06 72744.9 0 -1.33319e+06 73071.5 0 -1.34542e+06 73388.6 0 -1.3577e+06 73696.2 0 -1.37002e+06 73993.9 0 -1.3824e+06 74281.5 0 -1.39482e+06 74559 0 -1.40729e+06 74826.1 0 -1.41981e+06 75082.5 0 -1.43236e+06 75328.2 0 -1.44496e+06 75563 0 -1.45759e+06 75786.7 0 -1.47027e+06 75999 0 -1.48297e+06 76200 0 -1.49571e+06 76389.4 0 -1.50848e+06 76567.2 0 -1.52128e+06 76733 0 -1.53411e+06 76887 0 -1.54696e+06 77028.9 0 -1.55983e+06 77158.6 0 -1.57272e+06 77276 0 -1.58564e+06 77381.1 0 -1.59857e+06 77473.8 0 -1.61151e+06 77554 0 -1.62447e+06 77621.6 0 -1.63744e+06 77676.6 0 -1.65041e+06 77719 0 -1.66339e+06 77748.6 0 -1.67638e+06 77765.6 0 -1.68936e+06 77769.9 0 -1.70235e+06 77761.5 0 -1.71533e+06 77740.3 0 -515190 31662.2 0 -519742 32162.7 0 -524366 32666.1 0 -529062 33172.6 0 -533830 33682 0 -538671 34194.4 0 -543586 34709.8 0 -548575 35228.1 0 -553637 35749.5 0 -558775 36273.9 0 -563988 36801.3 0 -569276 37331.6 0 -574640 37864.9 0 -580081 38401.2 0 -585598 38940.5 0 -591193 39482.7 0 -596866 40027.8 0 -602616 40575.8 0 -608445 41126.6 0 -614354 41680.3 0 -620341 42236.9 0 -626408 42796.2 0 -632556 43358.3 0 -638784 43923.1 0 -645093 44490.6 0 -651484 45060.7 0 -657956 45633.4 0 -664510 46208.6 0 -671147 46786.3 0 -677866 47366.5 0 -684669 47949 0 -691555 48533.8 0 -698526 49120.8 0 -705580 49710 0 -712719 50301.3 0 -719943 50894.5 0 -727251 51489.7 0 -734646 52086.8 0 -742125 52685.5 0 -749691 53285.9 0 -757343 53887.9 0 -765081 54491.3 0 -772906 55096 0 -780817 55701.9 0 -788816 56309 0 -796901 56917 0 -805074 57525.8 0 -813334 58135.4 0 -821681 58745.5 0 -830116 59356.1 0 -838639 59967 0 -847249 60577.9 0 -855947 61188.9 0 -864733 61799.7 0 -873606 62410.2 0 -882567 63020.1 0 -891615 63629.3 0 -900751 64237.7 0 -909973 64845 0 -919284 65451 0 -928681 66055.6 0 -938164 66658.6 0 -947734 67259.7 0 -957391 67858.7 0 -967133 68455.5 0 -976961 69049.8 0 -986874 69641.4 0 -996872 70230 0 -1.00695e+06 70815.5 0 -1.01712e+06 71397.6 0 -1.02737e+06 71976 0 -1.0377e+06 72550.5 0 -1.04812e+06 73121 0 -1.05862e+06 73687 0 -1.06919e+06 74248.4 0 -1.07985e+06 74805 0 -1.09059e+06 75356.3 0 -1.10141e+06 75902.3 0 -1.1123e+06 76442.6 0 -1.12328e+06 76977 0 -1.13432e+06 77505.2 0 -1.14545e+06 78026.9 0 -1.15665e+06 78541.9 0 -1.16792e+06 79049.9 0 -1.17927e+06 79550.6 0 -1.19069e+06 80043.7 0 -1.20217e+06 80529.1 0 -1.21373e+06 81006.3 0 -1.22536e+06 81475.1 0 -1.23705e+06 81935.3 0 -1.24881e+06 82386.6 0 -1.26063e+06 82828.7 0 -1.27252e+06 83261.4 0 -1.28447e+06 83684.4 0 -1.29647e+06 84097.3 0 -1.30854e+06 84500.1 0 -1.32067e+06 84892.3 0 -1.33285e+06 85273.9 0 -1.34508e+06 85644.4 0 -1.35737e+06 86003.7 0 -1.36971e+06 86351.5 0 -1.38209e+06 86687.6 0 -1.39453e+06 87011.8 0 -1.40701e+06 87323.8 0 -1.41953e+06 87623.5 0 -1.4321e+06 87910.6 0 -1.44471e+06 88184.9 0 -1.45736e+06 88446.2 0 -1.47004e+06 88694.4 0 -1.48276e+06 88929.2 0 -1.49551e+06 89150.5 0 -1.5083e+06 89358.2 0 -1.52111e+06 89552.1 0 -1.53395e+06 89731.9 0 -1.54681e+06 89897.7 0 -1.5597e+06 90049.3 0 -1.5726e+06 90186.5 0 -1.58553e+06 90309.4 0 -1.59847e+06 90417.6 0 -1.61143e+06 90511.3 0 -1.6244e+06 90590.3 0 -1.63738e+06 90654.6 0 -1.65037e+06 90704.1 0 -1.66337e+06 90738.8 0 -1.67637e+06 90758.7 0 -1.68937e+06 90763.7 0 -1.70237e+06 90753.8 0 -1.71536e+06 90729.1 0 -514656 36176.9 0 -519204 36748.9 0 -523825 37324.2 0 -528518 37903 0 -533283 38485.1 0 -538121 39070.7 0 -543032 39659.7 0 -548018 40252.2 0 -553077 40848.1 0 -558212 41447.4 0 -563421 42050.1 0 -568706 42656.2 0 -574067 43265.8 0 -579505 43878.7 0 -585019 44495 0 -590611 45114.7 0 -596280 45737.7 0 -602028 46364.1 0 -607854 46993.7 0 -613759 47626.6 0 -619743 48262.8 0 -625808 48902.1 0 -631952 49544.6 0 -638177 50190.2 0 -644484 50838.9 0 -650871 51490.6 0 -657341 52145.2 0 -663892 52802.8 0 -670526 53463.2 0 -677243 54126.4 0 -684044 54792.3 0 -690928 55460.8 0 -697895 56131.9 0 -704948 56805.5 0 -712084 57481.5 0 -719306 58159.7 0 -726613 58840.2 0 -734005 59522.8 0 -741483 60207.4 0 -749047 60893.8 0 -756697 61582.1 0 -764434 62272 0 -772257 62963.4 0 -780167 63656.3 0 -788165 64350.4 0 -796249 65045.6 0 -804421 65741.8 0 -812680 66438.8 0 -821027 67136.5 0 -829462 67834.8 0 -837984 68533.3 0 -846594 69232 0 -855292 69930.8 0 -864078 70629.3 0 -872952 71327.4 0 -881913 72025 0 -890962 72721.7 0 -900099 73417.5 0 -909323 74112.1 0 -918635 74805.3 0 -928033 75496.9 0 -937519 76186.5 0 -947091 76874.1 0 -956750 77559.3 0 -966495 78242 0 -976326 78921.8 0 -986242 79598.6 0 -996243 80271.9 0 -1.00633e+06 80941.7 0 -1.0165e+06 81607.6 0 -1.02675e+06 82269.4 0 -1.03709e+06 82926.7 0 -1.04751e+06 83579.3 0 -1.05801e+06 84227 0 -1.06859e+06 84869.3 0 -1.07926e+06 85506.1 0 -1.09e+06 86137 0 -1.10083e+06 86761.7 0 -1.11173e+06 87380 0 -1.12271e+06 87991.5 0 -1.13376e+06 88595.9 0 -1.14489e+06 89192.9 0 -1.1561e+06 89782.2 0 -1.16738e+06 90363.6 0 -1.17874e+06 90936.6 0 -1.19016e+06 91500.9 0 -1.20166e+06 92056.3 0 -1.21322e+06 92602.5 0 -1.22486e+06 93139.1 0 -1.23656e+06 93665.8 0 -1.24833e+06 94182.4 0 -1.26016e+06 94688.4 0 -1.27206e+06 95183.6 0 -1.28402e+06 95667.7 0 -1.29604e+06 96140.5 0 -1.30811e+06 96601.5 0 -1.32025e+06 97050.5 0 -1.33244e+06 97487.2 0 -1.34469e+06 97911.3 0 -1.35699e+06 98322.6 0 -1.36934e+06 98720.8 0 -1.38174e+06 99105.6 0 -1.39419e+06 99476.7 0 -1.40668e+06 99833.9 0 -1.41922e+06 100177 0 -1.4318e+06 100506 0 -1.44442e+06 100820 0 -1.45708e+06 101119 0 -1.46978e+06 101403 0 -1.48252e+06 101672 0 -1.49528e+06 101925 0 -1.50808e+06 102163 0 -1.52091e+06 102385 0 -1.53376e+06 102591 0 -1.54664e+06 102781 0 -1.55954e+06 102954 0 -1.57246e+06 103111 0 -1.58541e+06 103252 0 -1.59837e+06 103376 0 -1.61134e+06 103483 0 -1.62433e+06 103574 0 -1.63732e+06 103647 0 -1.65033e+06 103704 0 -1.66334e+06 103744 0 -1.67635e+06 103767 0 -1.68937e+06 103772 0 -1.70238e+06 103761 0 -1.7154e+06 103733 0 -514050 40688.3 0 -518595 41331.7 0 -523212 41978.9 0 -527901 42630 0 -532662 43284.9 0 -537497 43943.7 0 -542405 44606.3 0 -547386 45272.8 0 -552442 45943.2 0 -557573 46617.4 0 -562779 47295.5 0 -568060 47977.4 0 -573418 48663.2 0 -578851 49352.8 0 -584362 50046.2 0 -589950 50743.4 0 -595616 51444.4 0 -601360 52149.1 0 -607183 52857.6 0 -613085 53569.7 0 -619066 54285.5 0 -625127 55004.8 0 -631268 55727.8 0 -637490 56454.2 0 -643793 57184.1 0 -650177 57917.5 0 -656643 58654.1 0 -663192 59394.1 0 -669823 60137.3 0 -676537 60883.6 0 -683335 61632.9 0 -690216 62385.3 0 -697181 63140.5 0 -704230 63898.6 0 -711365 64659.3 0 -718584 65422.7 0 -725888 66188.6 0 -733278 66956.8 0 -740754 67727.3 0 -748316 68500 0 -755965 69274.6 0 -763700 70051.2 0 -771521 70829.4 0 -779430 71609.3 0 -787426 72390.6 0 -795510 73173.2 0 -803680 73956.9 0 -811939 74741.6 0 -820285 75527 0 -828719 76313.1 0 -837242 77099.5 0 -845852 77886.1 0 -854550 78672.8 0 -863336 79459.2 0 -872210 80245.2 0 -881172 81030.6 0 -890222 81815.2 0 -899360 82598.6 0 -908586 83380.7 0 -917899 84161.3 0 -927299 84940 0 -936787 85716.6 0 -946361 86490.9 0 -956023 87262.6 0 -965771 88031.3 0 -975604 88796.9 0 -985524 89559.1 0 -995529 90317.5 0 -1.00562e+06 91071.9 0 -1.01579e+06 91821.9 0 -1.02605e+06 92567.2 0 -1.03639e+06 93307.6 0 -1.04682e+06 94042.7 0 -1.05733e+06 94772.2 0 -1.06791e+06 95495.8 0 -1.07858e+06 96213.1 0 -1.08933e+06 96923.8 0 -1.10016e+06 97627.6 0 -1.11107e+06 98324.1 0 -1.12206e+06 99013 0 -1.13312e+06 99693.9 0 -1.14426e+06 100367 0 -1.15548e+06 101031 0 -1.16677e+06 101686 0 -1.17813e+06 102331 0 -1.18957e+06 102967 0 -1.20107e+06 103593 0 -1.21265e+06 104208 0 -1.22429e+06 104813 0 -1.23601e+06 105407 0 -1.24779e+06 105989 0 -1.25963e+06 106559 0 -1.27154e+06 107117 0 -1.28351e+06 107663 0 -1.29554e+06 108195 0 -1.30763e+06 108715 0 -1.31978e+06 109221 0 -1.33198e+06 109713 0 -1.34424e+06 110191 0 -1.35656e+06 110655 0 -1.36892e+06 111104 0 -1.38134e+06 111537 0 -1.3938e+06 111956 0 -1.40631e+06 112358 0 -1.41886e+06 112745 0 -1.43146e+06 113115 0 -1.4441e+06 113469 0 -1.45677e+06 113807 0 -1.46949e+06 114127 0 -1.48224e+06 114430 0 -1.49502e+06 114716 0 -1.50784e+06 114984 0 -1.52068e+06 115234 0 -1.53355e+06 115466 0 -1.54645e+06 115680 0 -1.55937e+06 115876 0 -1.57231e+06 116053 0 -1.58527e+06 116211 0 -1.59824e+06 116351 0 -1.61123e+06 116472 0 -1.62424e+06 116574 0 -1.63725e+06 116657 0 -1.65027e+06 116721 0 -1.6633e+06 116766 0 -1.67634e+06 116791 0 -1.68937e+06 116798 0 -1.70241e+06 116785 0 -1.71544e+06 116753 0 -513373 45195.8 0 -517914 45910.7 0 -522527 46629.8 0 -527212 47353.1 0 -531969 48080.8 0 -536799 48812.8 0 -541703 49549 0 -546681 50289.6 0 -551733 51034.4 0 -556859 51783.6 0 -562061 52537 0 -567338 53294.8 0 -572692 54056.8 0 -578122 54823.1 0 -583628 55593.6 0 -589212 56368.4 0 -594874 57147.3 0 -600614 57930.5 0 -606433 58717.7 0 -612331 59509.1 0 -618308 60304.6 0 -624365 61104 0 -630503 61907.5 0 -636721 62714.8 0 -643020 63526 0 -649401 64341 0 -655864 65159.8 0 -662409 65982.2 0 -669037 66808.2 0 -675748 67637.7 0 -682542 68470.6 0 -689420 69306.9 0 -696382 70146.4 0 -703429 70989 0 -710560 71834.6 0 -717777 72683.2 0 -725078 73534.5 0 -732466 74388.6 0 -739940 75245.1 0 -747499 76104.1 0 -755146 76965.3 0 -762879 77828.6 0 -770699 78693.9 0 -778606 79560.9 0 -786601 80429.6 0 -794683 81299.7 0 -802852 82171.1 0 -811110 83043.6 0 -819456 83917 0 -827889 84791 0 -836411 85665.5 0 -845021 86540.2 0 -853719 87415 0 -862506 88289.6 0 -871380 89163.7 0 -880343 90037.2 0 -889394 90909.7 0 -898533 91781 0 -907760 92650.9 0 -917075 93519 0 -926478 94385.2 0 -935968 95249 0 -945545 96110.3 0 -955209 96968.6 0 -964960 97823.8 0 -974798 98675.5 0 -984721 99523.4 0 -994730 100367 0 -1.00482e+06 101206 0 -1.015e+06 102041 0 -1.02527e+06 102870 0 -1.03561e+06 103694 0 -1.04604e+06 104512 0 -1.05656e+06 105323 0 -1.06715e+06 106129 0 -1.07783e+06 106927 0 -1.08859e+06 107718 0 -1.09942e+06 108501 0 -1.11034e+06 109276 0 -1.12134e+06 110042 0 -1.13241e+06 110800 0 -1.14356e+06 111549 0 -1.15478e+06 112288 0 -1.16608e+06 113017 0 -1.17745e+06 113735 0 -1.1889e+06 114443 0 -1.20042e+06 115140 0 -1.212e+06 115825 0 -1.22366e+06 116498 0 -1.23539e+06 117159 0 -1.24718e+06 117807 0 -1.25903e+06 118441 0 -1.27096e+06 119063 0 -1.28294e+06 119670 0 -1.29498e+06 120263 0 -1.30709e+06 120842 0 -1.31925e+06 121405 0 -1.33147e+06 121953 0 -1.34375e+06 122485 0 -1.35608e+06 123002 0 -1.36846e+06 123501 0 -1.38089e+06 123984 0 -1.39337e+06 124450 0 -1.40589e+06 124898 0 -1.41846e+06 125329 0 -1.43108e+06 125742 0 -1.44373e+06 126136 0 -1.45643e+06 126511 0 -1.46916e+06 126868 0 -1.48193e+06 127206 0 -1.49473e+06 127524 0 -1.50756e+06 127822 0 -1.52042e+06 128101 0 -1.53331e+06 128360 0 -1.54623e+06 128598 0 -1.55917e+06 128816 0 -1.57213e+06 129013 0 -1.58511e+06 129190 0 -1.5981e+06 129345 0 -1.61112e+06 129480 0 -1.62414e+06 129594 0 -1.63717e+06 129686 0 -1.65022e+06 129757 0 -1.66327e+06 129807 0 -1.67632e+06 129836 0 -1.68937e+06 129843 0 -1.70243e+06 129828 0 -1.71548e+06 129793 0 -512624 49699.1 0 -517161 50485.4 0 -521769 51276.4 0 -526450 52072 0 -531203 52872.4 0 -536029 53677.5 0 -540928 54487.4 0 -545901 55302 0 -550948 56121.4 0 -556070 56945.4 0 -561268 57774.3 0 -566540 58607.8 0 -571889 59446.1 0 -577315 60289.1 0 -582817 61136.8 0 -588397 61989.1 0 -594054 62846.1 0 -599790 63707.7 0 -605604 64573.8 0 -611498 65444.5 0 -617471 66319.6 0 -623524 67199.2 0 -629657 68083.2 0 -635871 68971.5 0 -642166 69864.1 0 -648543 70760.9 0 -655002 71661.8 0 -661543 72566.7 0 -668168 73475.6 0 -674875 74388.4 0 -681665 75305 0 -688540 76225.2 0 -695499 77149.1 0 -702542 78076.4 0 -709670 79007 0 -716884 79940.9 0 -724183 80877.9 0 -731568 81817.8 0 -739039 82760.5 0 -746596 83705.9 0 -754240 84653.8 0 -761971 85604.1 0 -769789 86556.5 0 -777694 87510.9 0 -785687 88467.2 0 -793768 89425 0 -801936 90384.3 0 -810193 91344.7 0 -818538 92306.2 0 -826971 93268.4 0 -835492 94231.2 0 -844102 95194.3 0 -852800 96157.4 0 -861587 97120.4 0 -870462 98082.8 0 -879426 99044.6 0 -888478 100005 0 -897619 100965 0 -906847 101923 0 -916164 102879 0 -925569 103833 0 -935062 104784 0 -944642 105733 0 -954309 106678 0 -964063 107620 0 -973905 108558