<?xml version="1.0"?> 
<VTKFile type="StructuredGrid" version="0.1"> 
<StructuredGrid WholeExtent="0 127 0 127 0 0"> 
<Piece Extent="0 127 0 127 0 0"> 
<PointData>
<DataArray type="Float32" Name="E" format="ascii" NumberOfComponents="3"> 
-1.71525e+06 0.0190516 0 -1.79147e+06 0.0185951 0 -1.8671e+06 0.0176562 0 -1.94174e+06 0.0162908 0 -2.015e+06 0.0145792 0 -2.08652e+06 0.0126144 0 -2.156e+06 0.0105002 0 -2.22319e+06 0.00833137 0 -2.28785e+06 0.00619816 0 -2.34983e+06 0.00417136 0 -2.40902e+06 0.00230628 0 -2.46533e+06 0.000640062 0 -2.51874e+06 -0.000807677 0 -2.56925e+06 -0.00203016 0 -2.61688e+06 -0.00303331 0 -2.6617e+06 -0.0038304 0 -2.70378e+06 -0.00443936 0 -2.74323e+06 -0.00488106 0 -2.78013e+06 -0.00518041 0 -2.81462e+06 -0.00535596 0 -2.8468e+06 -0.00543188 0 -2.8768e+06 -0.00542428 0 -2.90474e+06 -0.005354 0 -2.93075e+06 -0.00523091 0 -2.95495e+06 -0.00507096 0 -2.97744e+06 -0.0048826 0 -2.99835e+06 -0.00467568 0 -3.01779e+06 -0.00445606 0 -3.03585e+06 -0.00423148 0 -3.05264e+06 -0.00400483 0 -3.06824e+06 -0.00377837 0 -3.08276e+06 -0.00355884 0 -3.09626e+06 -0.0033417 0 -3.10883e+06 -0.0031349 0 -3.12055e+06 -0.00293464 0 -3.13147e+06 -0.0027452 0 -3.14167e+06 -0.00256381 0 -3.15121e+06 -0.00239276 0 -3.16014e+06 -0.00223176 0 -3.16851e+06 -0.00207951 0 -3.17637e+06 -0.001936 0 -3.18378e+06 -0.00180213 0 -3.19076e+06 -0.00167637 0 -3.19737e+06 -0.00155749 0 -3.20363e+06 -0.00144767 0 -3.20958e+06 -0.00134432 0 -3.21526e+06 -0.00124881 0 -3.22069e+06 -0.00115945 0 -3.2259e+06 -0.00107548 0 -3.23091e+06 -0.000997063 0 -3.23575e+06 -0.000925735 0 -3.24044e+06 -0.000856474 0 -3.24501e+06 -0.000794008 0 -3.24946e+06 -0.00073541 0 -3.25381e+06 -0.000679858 0 -3.25809e+06 -0.000628307 0 -3.26231e+06 -0.000580497 0 -3.26648e+06 -0.000535324 0 -3.27061e+06 -0.000493862 0 -3.27472e+06 -0.000454828 0 -3.27882e+06 -0.000417516 0 -3.28291e+06 -0.000383317 0 -3.287e+06 -0.000352129 0 -3.29111e+06 -0.000320032 0 -3.29524e+06 -0.000291541 0 -3.2994e+06 -0.00026454 0 -3.30359e+06 -0.000237793 0 -3.30782e+06 -0.000212893 0 -3.3121e+06 -0.000189662 0 -3.31643e+06 -0.000167489 0 -3.32081e+06 -0.000145748 0 -3.32524e+06 -0.000124291 0 -3.32974e+06 -0.000102878 0 -3.3343e+06 -8.49366e-05 0 -3.33892e+06 -6.56545e-05 0 -3.34362e+06 -4.56274e-05 0 -3.34837e+06 -2.8491e-05 0 -3.3532e+06 -7.80821e-06 0 -3.3581e+06 9.0301e-06 0 -3.36306e+06 2.93553e-05 0 -3.3681e+06 4.64022e-05 0 -3.3732e+06 6.49989e-05 0 -3.37836e+06 8.54731e-05 0 -3.3836e+06 0.000105768 0 -3.38889e+06 0.00012508 0 -3.39424e+06 0.000142276 0 -3.39965e+06 0.000165105 0 -3.40512e+06 0.000183702 0 -3.41063e+06 0.00020504 0 -3.41619e+06 0.000224411 0 -3.42178e+06 0.00024724 0 -3.42742e+06 0.000269532 0 -3.43308e+06 0.000291526 0 -3.43876e+06 0.000314951 0 -3.44445e+06 0.000333905 0 -3.45016e+06 0.00036037 0 -3.45586e+06 0.000383377 0 -3.46156e+06 0.000404418 0 -3.46724e+06 0.000427008 0 -3.47289e+06 0.00045085 0 -3.47851e+06 0.000470459 0 -3.48407e+06 0.000491023 0 -3.48958e+06 0.00050801 0 -3.49502e+06 0.000530005 0 -3.50038e+06 0.000542045 0 -3.50564e+06 0.000558615 0 -3.5108e+06 0.000571609 0 -3.51584e+06 0.000580788 0 -3.52075e+06 0.00058496 0 -3.52551e+06 0.000592113 0 -3.53011e+06 0.000587583 0 -3.53454e+06 0.000589967 0 -3.53878e+06 0.000581026 0 -3.54283e+06 0.00056839 0 -3.54666e+06 0.0005548 0 -3.55027e+06 0.000533581 0 -3.55364e+06 0.000504613 0 -3.55676e+06 0.000482559 0 -3.55962e+06 0.000444651 0 -3.56221e+06 0.000409603 0 -3.56452e+06 0.000365138 0 -3.56654e+06 0.000322223 0 -3.56827e+06 0.000273466 0 -3.56969e+06 0.000221491 0 -3.5708e+06 0.000171185 0 -3.5716e+06 0.000112057 0 -3.57207e+06 5.74589e-05 0 -3.57223e+06 1.52588e-05 0 -1.71525e+06 12944.4 0 -1.79148e+06 12881.1 0 -1.86712e+06 12746.4 0 -1.94176e+06 12544 0 -2.01502e+06 12279 0 -2.08655e+06 11958 0 -2.15604e+06 11588.6 0 -2.22322e+06 11178.8 0 -2.28789e+06 10737 0 -2.34987e+06 10271.3 0 -2.40906e+06 9789.58 0 -2.46537e+06 9298.89 0 -2.51878e+06 8805.68 0 -2.56929e+06 8315.51 0 -2.61692e+06 7833.08 0 -2.66174e+06 7362.26 0 -2.70382e+06 6906.12 0 -2.74326e+06 6466.99 0 -2.78017e+06 6046.59 0 -2.81465e+06 5646.08 0 -2.84683e+06 5266.12 0 -2.87683e+06 4907.03 0 -2.90477e+06 4568.78 0 -2.93078e+06 4251.1 0 -2.95497e+06 3953.52 0 -2.97746e+06 3675.42 0 -2.99837e+06 3416.09 0 -3.01781e+06 3174.74 0 -3.03587e+06 2950.51 0 -3.05265e+06 2742.56 0 -3.06826e+06 2550 0 -3.08277e+06 2371.97 0 -3.09627e+06 2207.62 0 -3.10884e+06 2056.12 0 -3.12056e+06 1916.67 0 -3.13148e+06 1788.51 0 -3.14168e+06 1670.9 0 -3.15122e+06 1563.16 0 -3.16014e+06 1464.62 0 -3.16852e+06 1374.65 0 -3.17638e+06 1292.69 0 -3.18378e+06 1218.17 0 -3.19077e+06 1150.58 0 -3.19737e+06 1089.43 0 -3.20363e+06 1034.27 0 -3.20959e+06 984.685 0 -3.21526e+06 940.27 0 -3.22069e+06 900.658 0 -3.2259e+06 865.503 0 -3.23091e+06 834.485 0 -3.23575e+06 807.302 0 -3.24044e+06 783.677 0 -3.24501e+06 763.347 0 -3.24946e+06 746.069 0 -3.25382e+06 731.617 0 -3.2581e+06 719.779 0 -3.26231e+06 710.357 0 -3.26648e+06 703.167 0 -3.27061e+06 698.037 0 -3.27472e+06 694.804 0 -3.27882e+06 693.318 0 -3.28291e+06 693.437 0 -3.287e+06 695.029 0 -3.29111e+06 697.967 0 -3.29524e+06 702.135 0 -3.2994e+06 707.421 0 -3.30359e+06 713.719 0 -3.30782e+06 720.929 0 -3.3121e+06 728.957 0 -3.31642e+06 737.711 0 -3.3208e+06 747.105 0 -3.32524e+06 757.054 0 -3.32974e+06 767.478 0 -3.3343e+06 778.299 0 -3.33892e+06 789.439 0 -3.34361e+06 800.825 0 -3.34837e+06 812.383 0 -3.3532e+06 824.04 0 -3.3581e+06 835.726 0 -3.36306e+06 847.368 0 -3.3681e+06 858.895 0 -3.3732e+06 870.236 0 -3.37836e+06 881.319 0 -3.3836e+06 892.07 0 -3.38889e+06 902.417 0 -3.39424e+06 912.285 0 -3.39965e+06 921.597 0 -3.40512e+06 930.277 0 -3.41063e+06 938.245 0 -3.41619e+06 945.422 0 -3.42178e+06 951.725 0 -3.42742e+06 957.072 0 -3.43308e+06 961.379 0 -3.43876e+06 964.559 0 -3.44445e+06 966.526 0 -3.45016e+06 967.193 0 -3.45586e+06 966.471 0 -3.46156e+06 964.275 0 -3.46724e+06 960.515 0 -3.47289e+06 955.107 0 -3.47851e+06 947.967 0 -3.48408e+06 939.012 0 -3.48958e+06 928.164 0 -3.49502e+06 915.351 0 -3.50038e+06 900.503 0 -3.50565e+06 883.557 0 -3.5108e+06 864.459 0 -3.51584e+06 843.162 0 -3.52075e+06 819.63 0 -3.52551e+06 793.836 0 -3.53011e+06 765.767 0 -3.53454e+06 735.422 0 -3.53879e+06 702.814 0 -3.54283e+06 667.971 0 -3.54666e+06 630.938 0 -3.55027e+06 591.775 0 -3.55364e+06 550.559 0 -3.55676e+06 507.385 0 -3.55963e+06 462.364 0 -3.56222e+06 415.624 0 -3.56453e+06 367.311 0 -3.56655e+06 317.582 0 -3.56827e+06 266.612 0 -3.56969e+06 214.586 0 -3.5708e+06 161.703 0 -3.5716e+06 108.168 0 -3.57208e+06 54.194 0 -3.57224e+06 -3.4001e-06 0 -1.71526e+06 25891 0 -1.79151e+06 25764.3 0 -1.86716e+06 25494.8 0 -1.94182e+06 25089.8 0 -2.0151e+06 24559.6 0 -2.08664e+06 23917.5 0 -2.15614e+06 23178.4 0 -2.22333e+06 22358.6 0 -2.288e+06 21474.7 0 -2.34999e+06 20543.2 0 -2.40918e+06 19579.4 0 -2.4655e+06 18597.9 0 -2.51891e+06 17611.3 0 -2.56941e+06 16630.8 0 -2.61704e+06 15665.8 0 -2.66186e+06 14724.1 0 -2.70393e+06 13811.7 0 -2.74337e+06 12933.4 0 -2.78027e+06 12092.6 0 -2.81475e+06 11291.6 0 -2.84692e+06 10531.6 0 -2.87692e+06 9813.47 0 -2.90485e+06 9136.97 0 -2.93086e+06 8501.62 0 -2.95504e+06 7906.47 0 -2.97753e+06 7350.3 0 -2.99844e+06 6831.66 0 -3.01787e+06 6348.98 0 -3.03592e+06 5900.56 0 -3.05271e+06 5484.67 0 -3.06831e+06 5099.58 0 -3.08281e+06 4743.54 0 -3.09631e+06 4414.86 0 -3.10888e+06 4111.89 0 -3.12059e+06 3833.01 0 -3.13151e+06 3576.71 0 -3.14171e+06 3341.52 0 -3.15124e+06 3126.05 0 -3.16017e+06 2928.98 0 -3.16854e+06 2749.08 0 -3.1764e+06 2585.16 0 -3.1838e+06 2436.14 0 -3.19078e+06 2300.97 0 -3.19739e+06 2178.68 0 -3.20365e+06 2068.39 0 -3.2096e+06 1969.22 0 -3.21527e+06 1880.4 0 -3.2207e+06 1801.19 0 -3.22591e+06 1730.89 0 -3.23092e+06 1668.86 0 -3.23576e+06 1614.5 0 -3.24045e+06 1567.26 0 -3.24501e+06 1526.61 0 -3.24946e+06 1492.06 0 -3.25382e+06 1463.16 0 -3.2581e+06 1439.49 0 -3.26232e+06 1420.65 0 -3.26648e+06 1406.28 0 -3.27062e+06 1396.02 0 -3.27472e+06 1389.56 0 -3.27882e+06 1386.59 0 -3.28291e+06 1386.83 0 -3.287e+06 1390.02 0 -3.29111e+06 1395.9 0 -3.29524e+06 1404.24 0 -3.2994e+06 1414.81 0 -3.30359e+06 1427.41 0 -3.30782e+06 1441.84 0 -3.3121e+06 1457.89 0 -3.31642e+06 1475.4 0 -3.3208e+06 1494.19 0 -3.32524e+06 1514.09 0 -3.32974e+06 1534.94 0 -3.3343e+06 1556.59 0 -3.33892e+06 1578.87 0 -3.34361e+06 1601.64 0 -3.34837e+06 1624.76 0 -3.3532e+06 1648.08 0 -3.35809e+06 1671.45 0 -3.36306e+06 1694.74 0 -3.36809e+06 1717.8 0 -3.37319e+06 1740.48 0 -3.37836e+06 1762.65 0 -3.38359e+06 1784.15 0 -3.38889e+06 1804.85 0 -3.39424e+06 1824.59 0 -3.39965e+06 1843.21 0 -3.40511e+06 1860.57 0 -3.41063e+06 1876.51 0 -3.41618e+06 1890.87 0 -3.42178e+06 1903.48 0 -3.42741e+06 1914.17 0 -3.43307e+06 1922.79 0 -3.43876e+06 1929.15 0 -3.44445e+06 1933.09 0 -3.45016e+06 1934.43 0 -3.45587e+06 1932.99 0 -3.46156e+06 1928.59 0 -3.46724e+06 1921.08 0 -3.47289e+06 1910.26 0 -3.47851e+06 1895.99 0 -3.48408e+06 1878.08 0 -3.48959e+06 1856.39 0 -3.49503e+06 1830.76 0 -3.50039e+06 1801.07 0 -3.50565e+06 1767.18 0 -3.51081e+06 1728.98 0 -3.51585e+06 1686.39 0 -3.52076e+06 1639.32 0 -3.52552e+06 1587.74 0 -3.53012e+06 1531.6 0 -3.53455e+06 1470.91 0 -3.53879e+06 1405.69 0 -3.54284e+06 1336.01 0 -3.54667e+06 1261.94 0 -3.55028e+06 1183.61 0 -3.55365e+06 1101.17 0 -3.55678e+06 1014.82 0 -3.55964e+06 924.777 0 -3.56223e+06 831.294 0 -3.56454e+06 734.662 0 -3.56656e+06 635.199 0 -3.56829e+06 533.254 0 -3.56971e+06 429.197 0 -3.57082e+06 323.424 0 -3.57161e+06 216.348 0 -3.57209e+06 108.394 0 -3.57225e+06 1.65851e-06 0 -1.71527e+06 38841.7 0 -1.79155e+06 38651.6 0 -1.86723e+06 38247.1 0 -1.94192e+06 37639.2 0 -2.01522e+06 36843.5 0 -2.08679e+06 35879.7 0 -2.1563e+06 34770.5 0 -2.22351e+06 33540.2 0 -2.2882e+06 32213.8 0 -2.3502e+06 30815.9 0 -2.40939e+06 29369.8 0 -2.46571e+06 27897 0 -2.51912e+06 26416.7 0 -2.56962e+06 24945.6 0 -2.61724e+06 23497.9 0 -2.66205e+06 22085.1 0 -2.70412e+06 20716.4 0 -2.74355e+06 19398.8 0 -2.78044e+06 18137.5 0 -2.81491e+06 16935.9 0 -2.84708e+06 15796 0 -2.87706e+06 14718.7 0 -2.90499e+06 13704 0 -2.93099e+06 12751 0 -2.95516e+06 11858.3 0 -2.97765e+06 11024.1 0 -2.99854e+06 10246.2 0 -3.01797e+06 9522.23 0 -3.03601e+06 8849.67 0 -3.05279e+06 8225.9 0 -3.06838e+06 7648.32 0 -3.08289e+06 7114.33 0 -3.09638e+06 6621.37 0 -3.10894e+06 6166.96 0 -3.12065e+06 5748.71 0 -3.13157e+06 5364.31 0 -3.14176e+06 5011.57 0 -3.15129e+06 4688.42 0 -3.16021e+06 4392.86 0 -3.16857e+06 4123.04 0 -3.17643e+06 3877.21 0 -3.18383e+06 3653.71 0 -3.19081e+06 3450.99 0 -3.19741e+06 3267.6 0 -3.20367e+06 3102.18 0 -3.20962e+06 2953.46 0 -3.21529e+06 2820.26 0 -3.22072e+06 2701.46 0 -3.22592e+06 2596.03 0 -3.23093e+06 2503.01 0 -3.23577e+06 2421.5 0 -3.24046e+06 2350.65 0 -3.24502e+06 2289.69 0 -3.24947e+06 2237.88 0 -3.25382e+06 2194.55 0 -3.2581e+06 2159.06 0 -3.26232e+06 2130.82 0 -3.26649e+06 2109.27 0 -3.27062e+06 2093.89 0 -3.27472e+06 2084.21 0 -3.27882e+06 2079.77 0 -3.28291e+06 2080.14 0 -3.287e+06 2084.93 0 -3.29111e+06 2093.76 0 -3.29524e+06 2106.28 0 -3.29939e+06 2122.15 0 -3.30359e+06 2141.05 0 -3.30782e+06 2162.69 0 -3.31209e+06 2186.79 0 -3.31642e+06 2213.06 0 -3.3208e+06 2241.25 0 -3.32523e+06 2271.11 0 -3.32973e+06 2302.39 0 -3.33429e+06 2334.86 0 -3.33892e+06 2368.29 0 -3.34361e+06 2402.45 0 -3.34837e+06 2437.14 0 -3.35319e+06 2472.12 0 -3.35809e+06 2507.18 0 -3.36305e+06 2542.12 0 -3.36809e+06 2576.71 0 -3.37319e+06 2610.74 0 -3.37836e+06 2643.99 0 -3.38359e+06 2676.26 0 -3.38888e+06 2707.31 0 -3.39424e+06 2736.92 0 -3.39965e+06 2764.86 0 -3.40511e+06 2790.91 0 -3.41062e+06 2814.83 0 -3.41618e+06 2836.37 0 -3.42178e+06 2855.29 0 -3.42741e+06 2871.34 0 -3.43307e+06 2884.27 0 -3.43876e+06 2893.82 0 -3.44445e+06 2899.73 0 -3.45016e+06 2901.74 0 -3.45587e+06 2899.58 0 -3.46156e+06 2893 0 -3.46724e+06 2881.73 0 -3.4729e+06 2865.52 0 -3.47851e+06 2844.11 0 -3.48408e+06 2817.25 0 -3.48959e+06 2784.72 0 -3.49503e+06 2746.29 0 -3.50039e+06 2701.75 0 -3.50566e+06 2650.92 0 -3.51082e+06 2593.63 0 -3.51586e+06 2529.74 0 -3.52077e+06 2459.15 0 -3.52553e+06 2381.77 0 -3.53013e+06 2297.56 0 -3.53456e+06 2206.53 0 -3.53881e+06 2108.7 0 -3.54286e+06 2004.16 0 -3.54669e+06 1893.06 0 -3.5503e+06 1775.56 0 -3.55367e+06 1651.9 0 -3.55679e+06 1522.37 0 -3.55966e+06 1387.29 0 -3.56225e+06 1247.05 0 -3.56456e+06 1102.09 0 -3.56658e+06 952.888 0 -3.56831e+06 799.956 0 -3.56973e+06 643.857 0 -3.57084e+06 485.183 0 -3.57164e+06 324.553 0 -3.57212e+06 162.607 0 -3.57228e+06 6.31437e-07 0 -1.71528e+06 51798.8 0 -1.79161e+06 51545 0 -1.86733e+06 51005.3 0 -1.94206e+06 50194 0 -2.0154e+06 49132.2 0 -2.08699e+06 47846.1 0 -2.15653e+06 46366.1 0 -2.22376e+06 44724.6 0 -2.28847e+06 42955 0 -2.35048e+06 41090 0 -2.40968e+06 39160.9 0 -2.466e+06 37196.3 0 -2.51941e+06 35221.8 0 -2.56991e+06 33259.8 0 -2.61753e+06 31329 0 -2.66233e+06 29444.8 0 -2.70439e+06 27619.6 0 -2.74381e+06 25862.6 0 -2.78069e+06 24180.6 0 -2.81514e+06 22578.4 0 -2.8473e+06 21058.5 0 -2.87727e+06 19622.1 0 -2.90519e+06 18269.2 0 -2.93117e+06 16998.6 0 -2.95534e+06 15808.5 0 -2.97781e+06 14696.3 0 -2.99869e+06 13659.2 0 -3.0181e+06 12694 0 -3.03614e+06 11797.4 0 -3.05291e+06 10965.8 0 -3.06849e+06 10195.8 0 -3.08299e+06 9483.94 0 -3.09647e+06 8826.78 0 -3.10903e+06 8221 0 -3.12073e+06 7663.43 0 -3.13164e+06 7151 0 -3.14183e+06 6680.78 0 -3.15135e+06 6249.99 0 -3.16026e+06 5856 0 -3.16863e+06 5496.32 0 -3.17648e+06 5168.61 0 -3.18387e+06 4870.68 0 -3.19085e+06 4600.45 0 -3.19745e+06 4355.99 0 -3.2037e+06 4135.49 0 -3.20965e+06 3937.26 0 -3.21532e+06 3759.7 0 -3.22074e+06 3601.35 0 -3.22594e+06 3460.82 0 -3.23095e+06 3336.84 0 -3.23579e+06 3228.19 0 -3.24047e+06 3133.76 0 -3.24503e+06 3052.51 0 -3.24948e+06 2983.47 0 -3.25383e+06 2925.72 0 -3.25811e+06 2878.42 0 -3.26232e+06 2840.79 0 -3.26649e+06 2812.08 0 -3.27062e+06 2791.6 0 -3.27473e+06 2778.71 0 -3.27882e+06 2772.81 0 -3.28291e+06 2773.33 0 -3.287e+06 2779.73 0 -3.29111e+06 2791.52 0 -3.29523e+06 2808.22 0 -3.29939e+06 2829.39 0 -3.30358e+06 2854.61 0 -3.30781e+06 2883.48 0 -3.31209e+06 2915.62 0 -3.31641e+06 2950.66 0 -3.32079e+06 2988.26 0 -3.32523e+06 3028.08 0 -3.32972e+06 3069.8 0 -3.33428e+06 3113.1 0 -3.33891e+06 3157.69 0 -3.3436e+06 3203.25 0 -3.34836e+06 3249.5 0 -3.35319e+06 3296.15 0 -3.35808e+06 3342.91 0 -3.36305e+06 3389.5 0 -3.36808e+06 3435.63 0 -3.37318e+06 3481.02 0 -3.37835e+06 3525.37 0 -3.38358e+06 3568.4 0 -3.38888e+06 3609.81 0 -3.39423e+06 3649.3 0 -3.39964e+06 3686.57 0 -3.40511e+06 3721.31 0 -3.41062e+06 3753.21 0 -3.41618e+06 3781.94 0 -3.42178e+06 3807.18 0 -3.42741e+06 3828.59 0 -3.43307e+06 3845.84 0 -3.43875e+06 3858.58 0 -3.44445e+06 3866.48 0 -3.45016e+06 3869.17 0 -3.45587e+06 3866.31 0 -3.46157e+06 3857.55 0 -3.46725e+06 3842.53 0 -3.4729e+06 3820.93 0 -3.47852e+06 3792.39 0 -3.48409e+06 3756.59 0 -3.4896e+06 3713.22 0 -3.49504e+06 3661.99 0 -3.5004e+06 3602.61 0 -3.50567e+06 3534.85 0 -3.51083e+06 3458.47 0 -3.51587e+06 3373.29 0 -3.52078e+06 3279.17 0 -3.52554e+06 3176 0 -3.53015e+06 3063.72 0 -3.53458e+06 2942.34 0 -3.53883e+06 2811.9 0 -3.54288e+06 2672.51 0 -3.54671e+06 2524.36 0 -3.55032e+06 2367.69 0 -3.5537e+06 2202.8 0 -3.55682e+06 2030.07 0 -3.55968e+06 1849.95 0 -3.56228e+06 1662.95 0 -3.56459e+06 1469.65 0 -3.56661e+06 1270.68 0 -3.56834e+06 1066.75 0 -3.56976e+06 858.591 0 -3.57087e+06 646.998 0 -3.57167e+06 432.796 0 -3.57215e+06 216.839 0 -3.57231e+06 -9.95351e-07 0 -1.7153e+06 64764.3 0 -1.79168e+06 64446.7 0 -1.86746e+06 63771.2 0 -1.94224e+06 62756 0 -2.01562e+06 61427.3 0 -2.08726e+06 59818.1 0 -2.15683e+06 57966.3 0 -2.22409e+06 55912.6 0 -2.28881e+06 53698.8 0 -2.35084e+06 51365.9 0 -2.41005e+06 48953 0 -2.46638e+06 46495.9 0 -2.51978e+06 44026.6 0 -2.57028e+06 41573 0 -2.61789e+06 39158.7 0 -2.66268e+06 36802.8 0 -2.70473e+06 34520.8 0 -2.74414e+06 32324.1 0 -2.781e+06 30221.5 0 -2.81544e+06 28218.5 0 -2.84758e+06 26318.6 0 -2.87754e+06 24523.2 0 -2.90544e+06 22832.1 0 -2.9314e+06 21243.9 0 -2.95555e+06 19756.4 0 -2.97801e+06 18366.3 0 -2.99888e+06 17070.1 0 -3.01828e+06 15863.8 0 -3.03631e+06 14743.2 0 -3.05306e+06 13703.9 0 -3.06864e+06 12741.6 0 -3.08312e+06 11852 0 -3.09659e+06 11030.7 0 -3.10914e+06 10273.7 0 -3.12083e+06 9576.86 0 -3.13173e+06 8936.48 0 -3.14191e+06 8348.85 0 -3.15143e+06 7810.5 0 -3.16034e+06 7318.15 0 -3.16869e+06 6868.68 0 -3.17654e+06 6459.16 0 -3.18393e+06 6086.86 0 -3.1909e+06 5749.18 0 -3.19749e+06 5443.7 0 -3.20374e+06 5168.17 0 -3.20968e+06 4920.46 0 -3.21535e+06 4698.59 0 -3.22077e+06 4500.73 0 -3.22597e+06 4325.14 0 -3.23097e+06 4170.22 0 -3.2358e+06 4034.47 0 -3.24049e+06 3916.49 0 -3.24504e+06 3814.98 0 -3.24949e+06 3728.72 0 -3.25384e+06 3656.59 0 -3.25812e+06 3597.51 0 -3.26233e+06 3550.51 0 -3.26649e+06 3514.65 0 -3.27062e+06 3489.09 0 -3.27473e+06 3473.02 0 -3.27882e+06 3465.67 0 -3.2829e+06 3466.34 0 -3.287e+06 3474.37 0 -3.2911e+06 3489.13 0 -3.29523e+06 3510.03 0 -3.29939e+06 3536.52 0 -3.30358e+06 3568.07 0 -3.30781e+06 3604.18 0 -3.31208e+06 3644.37 0 -3.31641e+06 3688.19 0 -3.32078e+06 3735.21 0 -3.32522e+06 3785 0 -3.32972e+06 3837.16 0 -3.33428e+06 3891.31 0 -3.3389e+06 3947.05 0 -3.34359e+06 4004.02 0 -3.34835e+06 4061.86 0 -3.35318e+06 4120.18 0 -3.35807e+06 4178.65 0 -3.36304e+06 4236.9 0 -3.36807e+06 4294.58 0 -3.37317e+06 4351.33 0 -3.37834e+06 4406.78 0 -3.38357e+06 4460.58 0 -3.38887e+06 4512.36 0 -3.39422e+06 4561.74 0 -3.39964e+06 4608.35 0 -3.4051e+06 4651.79 0 -3.41061e+06 4691.68 0 -3.41617e+06 4727.61 0 -3.42177e+06 4759.18 0 -3.42741e+06 4785.96 0 -3.43307e+06 4807.54 0 -3.43875e+06 4823.49 0 -3.44445e+06 4833.38 0 -3.45016e+06 4836.76 0 -3.45587e+06 4833.2 0 -3.46157e+06 4822.27 0 -3.46725e+06 4803.52 0 -3.47291e+06 4776.53 0 -3.47852e+06 4740.88 0 -3.4841e+06 4696.15 0 -3.48961e+06 4641.95 0 -3.49505e+06 4577.92 0 -3.50041e+06 4503.72 0 -3.50568e+06 4419.02 0 -3.51084e+06 4323.56 0 -3.51589e+06 4217.1 0 -3.5208e+06 4099.45 0 -3.52556e+06 3970.49 0 -3.53017e+06 3830.14 0 -3.53461e+06 3678.41 0 -3.53885e+06 3515.35 0 -3.5429e+06 3341.11 0 -3.54674e+06 3155.91 0 -3.55035e+06 2960.05 0 -3.55373e+06 2753.92 0 -3.55685e+06 2537.99 0 -3.55972e+06 2312.81 0 -3.56231e+06 2079.03 0 -3.56463e+06 1837.37 0 -3.56665e+06 1588.62 0 -3.56838e+06 1333.66 0 -3.5698e+06 1073.42 0 -3.57091e+06 808.888 0 -3.57171e+06 541.09 0 -3.57219e+06 271.097 0 -3.57235e+06 1.12224e-07 0 -1.71533e+06 77740.3 0 -1.79178e+06 77358.7 0 -1.86762e+06 76547 0 -1.94246e+06 75327 0 -2.0159e+06 73730.5 0 -2.08758e+06 71797.1 0 -2.1572e+06 69572.4 0 -2.22449e+06 67105.3 0 -2.28924e+06 64446.1 0 -2.35128e+06 61644.2 0 -2.41051e+06 58746.4 0 -2.46684e+06 55795.8 0 -2.52024e+06 52830.9 0 -2.57073e+06 49885.2 0 -2.61834e+06 46986.7 0 -2.66311e+06 44158.7 0 -2.70515e+06 41419.5 0 -2.74454e+06 38783 0 -2.78138e+06 36259.5 0 -2.81581e+06 33855.7 0 -2.84792e+06 31575.7 0 -2.87786e+06 29421.2 0 -2.90574e+06 27392 0 -2.93169e+06 25486.4 0 -2.95582e+06 23701.5 0 -2.97826e+06 22033.6 0 -2.99912e+06 20478.5 0 -3.0185e+06 19031.2 0 -3.03651e+06 17686.7 0 -3.05325e+06 16439.9 0 -3.06881e+06 15285.4 0 -3.08328e+06 14218.1 0 -3.09674e+06 13232.8 0 -3.10928e+06 12324.6 0 -3.12095e+06 11488.7 0 -3.13185e+06 10720.4 0 -3.14202e+06 10015.5 0 -3.15152e+06 9369.7 0 -3.16042e+06 8779.07 0 -3.16877e+06 8239.89 0 -3.17661e+06 7748.65 0 -3.18399e+06 7302.04 0 -3.19096e+06 6896.98 0 -3.19754e+06 6530.55 0 -3.20379e+06 6200.04 0 -3.20973e+06 5902.91 0 -3.21539e+06 5636.79 0 -3.2208e+06 5399.47 0 -3.226e+06 5188.86 0 -3.231e+06 5003.05 0 -3.23583e+06 4840.24 0 -3.24051e+06 4698.75 0 -3.24506e+06 4577.01 0 -3.2495e+06 4473.58 0 -3.25385e+06 4387.08 0 -3.25813e+06 4316.25 0 -3.26234e+06 4259.9 0 -3.2665e+06 4216.93 0 -3.27063e+06 4186.31 0 -3.27473e+06 4167.07 0 -3.27882e+06 4158.3 0 -3.2829e+06 4159.15 0 -3.287e+06 4168.82 0 -3.2911e+06 4186.57 0 -3.29523e+06 4211.69 0 -3.29938e+06 4243.51 0 -3.30357e+06 4281.4 0 -3.3078e+06 4324.75 0 -3.31207e+06 4373.01 0 -3.3164e+06 4425.63 0 -3.32078e+06 4482.07 0 -3.32521e+06 4541.85 0 -3.32971e+06 4604.47 0 -3.33427e+06 4669.47 0 -3.33889e+06 4736.39 0 -3.34358e+06 4804.78 0 -3.34834e+06 4874.2 0 -3.35317e+06 4944.21 0 -3.35806e+06 5014.4 0 -3.36303e+06 5084.32 0 -3.36806e+06 5153.56 0 -3.37316e+06 5221.68 0 -3.37833e+06 5288.25 0 -3.38356e+06 5352.83 0 -3.38886e+06 5414.99 0 -3.39421e+06 5474.27 0 -3.39963e+06 5530.22 0 -3.40509e+06 5582.38 0 -3.41061e+06 5630.27 0 -3.41617e+06 5673.41 0 -3.42177e+06 5711.31 0 -3.4274e+06 5743.48 0 -3.43306e+06 5769.4 0 -3.43875e+06 5788.57 0 -3.44445e+06 5800.46 0 -3.45016e+06 5804.55 0 -3.45587e+06 5800.31 0 -3.46157e+06 5787.22 0 -3.46725e+06 5764.75 0 -3.47291e+06 5732.39 0 -3.47853e+06 5689.62 0 -3.4841e+06 5635.97 0 -3.48962e+06 5570.97 0 -3.49506e+06 5494.15 0 -3.50043e+06 5405.13 0 -3.5057e+06 5303.51 0 -3.51086e+06 5188.96 0 -3.51591e+06 5061.22 0 -3.52082e+06 4920.05 0 -3.52559e+06 4765.31 0 -3.5302e+06 4596.89 0 -3.53464e+06 4414.81 0 -3.53889e+06 4219.13 0 -3.54294e+06 4010.03 0 -3.54678e+06 3787.77 0 -3.55039e+06 3552.71 0 -3.55377e+06 3305.32 0 -3.5569e+06 3046.17 0 -3.55976e+06 2775.91 0 -3.56236e+06 2495.33 0 -3.56467e+06 2205.29 0 -3.5667e+06 1906.74 0 -3.56843e+06 1600.73 0 -3.56985e+06 1288.38 0 -3.57096e+06 970.873 0 -3.57176e+06 649.447 0 -3.57224e+06 325.386 0 -3.5724e+06 1.42958e-07 0 -1.71536e+06 90729.1 0 -1.79189e+06 90283 0 -1.86781e+06 89334.5 0 -1.94272e+06 87908.9 0 -2.01622e+06 86043.4 0 -2.08796e+06 83784.4 0 -2.15763e+06 81185.4 0 -2.22496e+06 78303.5 0 -2.28974e+06 75197.5 0 -2.35181e+06 71925.1 0 -2.41105e+06 68541.2 0 -2.46738e+06 65096.1 0 -2.52079e+06 61634.7 0 -2.57127e+06 58195.9 0 -2.61886e+06 54812.7 0 -2.66363e+06 51512.1 0 -2.70564e+06 48315.3 0 -2.74501e+06 45238.7 0 -2.78184e+06 42294 0 -2.81624e+06 39489.3 0 -2.84833e+06 36829.2 0 -2.87825e+06 34315.6 0 -2.9061e+06 31948.3 0 -2.93203e+06 29725.3 0 -2.95614e+06 27643.2 0 -2.97856e+06 25697.7 0 -2.99939e+06 23883.7 0 -3.01875e+06 22195.6 0 -3.03675e+06 20627.4 0 -3.05347e+06 19173.1 0 -3.06901e+06 17826.6 0 -3.08347e+06 16581.8 0 -3.09692e+06 15432.6 0 -3.10944e+06 14373.4 0 -3.1211e+06 13398.5 0 -3.13198e+06 12502.6 0 -3.14214e+06 11680.5 0 -3.15164e+06 10927.3 0 -3.16053e+06 10238.5 0 -3.16887e+06 9609.72 0 -3.1767e+06 9036.85 0 -3.18407e+06 8516.03 0 -3.19103e+06 8043.67 0 -3.19761e+06 7616.37 0 -3.20385e+06 7230.96 0 -3.20978e+06 6884.48 0 -3.21543e+06 6574.17 0 -3.22084e+06 6297.44 0 -3.22603e+06 6051.87 0 -3.23103e+06 5835.22 0 -3.23586e+06 5645.4 0 -3.24053e+06 5480.44 0 -3.24508e+06 5338.52 0 -3.24952e+06 5217.94 0 -3.25387e+06 5117.12 0 -3.25814e+06 5034.57 0 -3.26235e+06 4968.91 0 -3.26651e+06 4918.86 0 -3.27063e+06 4883.21 0 -3.27473e+06 4860.82 0 -3.27882e+06 4850.65 0 -3.2829e+06 4851.7 0 -3.28699e+06 4863.04 0 -3.2911e+06 4883.8 0 -3.29522e+06 4913.15 0 -3.29937e+06 4950.32 0 -3.30356e+06 4994.56 0 -3.30779e+06 5045.19 0 -3.31206e+06 5101.53 0 -3.31639e+06 5162.95 0 -3.32076e+06 5228.84 0 -3.3252e+06 5298.62 0 -3.3297e+06 5371.71 0 -3.33425e+06 5447.58 0 -3.33888e+06 5525.68 0 -3.34357e+06 5605.5 0 -3.34833e+06 5686.52 0 -3.35315e+06 5768.24 0 -3.35805e+06 5850.15 0 -3.36301e+06 5931.76 0 -3.36805e+06 6012.57 0 -3.37315e+06 6092.07 0 -3.37832e+06 6169.76 0 -3.38355e+06 6245.14 0 -3.38885e+06 6317.69 0 -3.3942e+06 6386.89 0 -3.39962e+06 6452.2 0 -3.40508e+06 6513.08 0 -3.4106e+06 6568.99 0 -3.41616e+06 6619.36 0 -3.42176e+06 6663.61 0 -3.4274e+06 6701.18 0 -3.43306e+06 6731.46 0 -3.43875e+06 6753.86 0 -3.44445e+06 6767.77 0 -3.45016e+06 6772.58 0 -3.45587e+06 6767.67 0 -3.46157e+06 6752.44 0 -3.46726e+06 6726.26 0 -3.47292e+06 6688.54 0 -3.47854e+06 6638.69 0 -3.48412e+06 6576.13 0 -3.48963e+06 6500.32 0 -3.49508e+06 6410.73 0 -3.50045e+06 6306.89 0 -3.50572e+06 6188.36 0 -3.51089e+06 6054.75 0 -3.51593e+06 5905.73 0 -3.52085e+06 5741.05 0 -3.52562e+06 5560.52 0 -3.53023e+06 5364.03 0 -3.53467e+06 5151.6 0 -3.53892e+06 4923.29 0 -3.54298e+06 4679.33 0 -3.54682e+06 4420 0 -3.55044e+06 4145.73 0 -3.55381e+06 3857.07 0 -3.55694e+06 3554.67 0 -3.55981e+06 3239.32 0 -3.56241e+06 2911.91 0 -3.56473e+06 2573.45 0 -3.56675e+06 2225.07 0 -3.56848e+06 1867.98 0 -3.56991e+06 1503.49 0 -3.57102e+06 1132.97 0 -3.57182e+06 757.88 0 -3.5723e+06 379.713 0 -3.57246e+06 4.88944e-08 0 -1.71539e+06 103733 0 -1.79201e+06 103222 0 -1.86803e+06 102136 0 -1.94302e+06 100503 0 -2.0166e+06 98367.6 0 -2.08841e+06 95781.6 0 -2.15813e+06 92806.5 0 -2.22551e+06 89508.1 0 -2.29032e+06 85953.6 0 -2.35242e+06 82209.3 0 -2.41167e+06 78337.9 0 -2.46801e+06 74396.9 0 -2.52142e+06 70437.7 0 -2.57189e+06 66505 0 -2.61947e+06 62636.3 0 -2.66422e+06 58862.4 0 -2.70621e+06 55207.6 0 -2.74556e+06 51690.5 0 -2.78236e+06 48324.6 0 -2.81673e+06 45118.8 0 -2.8488e+06 42078.5 0 -2.87869e+06 39205.9 0 -2.90652e+06 36500.5 0 -2.93242e+06 33960.2 0 -2.95651e+06 31581.1 0 -2.9789e+06 29358 0 -2.99971e+06 27285.3 0 -3.01905e+06 25356.5 0 -3.03702e+06 23564.8 0 -3.05372e+06 21903.3 0 -3.06925e+06 20364.9 0 -3.08368e+06 18942.7 0 -3.09712e+06 17629.9 0 -3.10962e+06 16419.9 0 -3.12127e+06 15306.1 0 -3.13214e+06 14282.6 0 -3.14228e+06 13343.4 0 -3.15177e+06 12483.1 0 -3.16065e+06 11696.2 0 -3.16897e+06 10977.9 0 -3.1768e+06 10323.6 0 -3.18416e+06 9728.63 0 -3.19111e+06 9189.06 0 -3.19768e+06 8700.98 0 -3.20391e+06 8260.76 0 -3.20984e+06 7865.01 0 -3.21549e+06 7510.58 0 -3.22089e+06 7194.51 0 -3.22608e+06 6914.05 0 -3.23107e+06 6666.63 0 -3.23589e+06 6449.84 0 -3.24056e+06 6261.47 0 -3.24511e+06 6099.41 0 -3.24954e+06 5961.74 0 -3.25389e+06 5846.64 0 -3.25815e+06 5752.41 0 -3.26236e+06 5677.48 0 -3.26651e+06 5620.37 0 -3.27064e+06 5579.72 0 -3.27473e+06 5554.22 0 -3.27882e+06 5542.67 0 -3.2829e+06 5543.95 0 -3.28699e+06 5556.98 0 -3.29109e+06 5580.78 0 -3.29521e+06 5614.39 0 -3.29937e+06 5656.92 0 -3.30355e+06 5707.55 0 -3.30778e+06 5765.46 0 -3.31205e+06 5829.91 0 -3.31638e+06 5900.15 0 -3.32075e+06 5975.5 0 -3.32519e+06 6055.29 0 -3.32968e+06 6138.87 0 -3.33424e+06 6225.62 0 -3.33886e+06 6314.92 0 -3.34355e+06 6406.18 0 -3.34831e+06 6498.82 0 -3.35314e+06 6592.25 0 -3.35803e+06 6685.91 0 -3.363e+06 6779.22 0 -3.36803e+06 6871.61 0 -3.37314e+06 6962.51 0 -3.37831e+06 7051.35 0 -3.38354e+06 7137.54 0 -3.38884e+06 7220.5 0 -3.39419e+06 7299.62 0 -3.39961e+06 7374.3 0 -3.40507e+06 7443.93 0 -3.41059e+06 7507.87 0 -3.41615e+06 7565.48 0 -3.42175e+06 7616.11 0 -3.42739e+06 7659.09 0 -3.43306e+06 7693.75 0 -3.43874e+06 7719.4 0 -3.44445e+06 7735.34 0 -3.45016e+06 7740.89 0 -3.45587e+06 7735.33 0 -3.46158e+06 7717.97 0 -3.46726e+06 7688.1 0 -3.47293e+06 7645.04 0 -3.47855e+06 7588.11 0 -3.48413e+06 7516.66 0 -3.48965e+06 7430.06 0 -3.4951e+06 7327.72 0 -3.50047e+06 7209.09 0 -3.50574e+06 7073.65 0 -3.51091e+06 6920.98 0 -3.51596e+06 6750.69 0 -3.52088e+06 6562.5 0 -3.52565e+06 6356.18 0 -3.53027e+06 6131.63 0 -3.53471e+06 5888.84 0 -3.53897e+06 5627.91 0 -3.54302e+06 5349.06 0 -3.54687e+06 5052.65 0 -3.55049e+06 4739.16 0 -3.55387e+06 4409.2 0 -3.557e+06 4063.54 0 -3.55987e+06 3703.07 0 -3.56247e+06 3328.8 0 -3.56479e+06 2941.91 0 -3.56682e+06 2543.66 0 -3.56855e+06 2135.44 0 -3.56997e+06 1718.76 0 -3.57109e+06 1295.2 0 -3.57189e+06 866.401 0 -3.57237e+06 434.085 0 -3.57253e+06 5.48549e-07 0 -1.71543e+06 116753 0 -1.79216e+06 116177 0 -1.86827e+06 114953 0 -1.94336e+06 113112 0 -2.01703e+06 110705 0 -2.08891e+06 107790 0 -2.1587e+06 104437 0 -2.22613e+06 100720 0 -2.29098e+06 96715.2 0 -2.3531e+06 92497.1 0 -2.41237e+06 88136.5 0 -2.46872e+06 83698.1 0 -2.52213e+06 79240 0 -2.57259e+06 74812.3 0 -2.62016e+06 70457.2 0 -2.66489e+06 66209.3 0 -2.70686e+06 62095.9 0 -2.74618e+06 58138 0 -2.78295e+06 54350.5 0 -2.8173e+06 50743.5 0 -2.84933e+06 47323 0 -2.87919e+06 44091.3 0 -2.90699e+06 41048 0 -2.93286e+06 38190.5 0 -2.95692e+06 35514.4 0 -2.97928e+06 33014 0 -3.00007e+06 30682.8 0 -3.01938e+06 28513.5 0 -3.03733e+06 26498.5 0 -3.05401e+06 24629.9 0 -3.06951e+06 22899.9 0 -3.08393e+06 21300.6 0 -3.09734e+06 19824.3 0 -3.10983e+06 18463.5 0 -3.12146e+06 17211.1 0 -3.13231e+06 16060.2 0 -3.14244e+06 15004.2 0 -3.15192e+06 14036.7 0 -3.16078e+06 13152 0 -3.1691e+06 12344.3 0 -3.17691e+06 11608.5 0 -3.18426e+06 10939.6 0 -3.1912e+06 10333 0 -3.19777e+06 9784.22 0 -3.20399e+06 9289.28 0 -3.2099e+06 8844.35 0 -3.21555e+06 8445.89 0 -3.22094e+06 8090.57 0 -3.22612e+06 7775.28 0 -3.23111e+06 7497.15 0 -3.23592e+06 7253.47 0 -3.24059e+06 7041.74 0 -3.24513e+06 6859.61 0 -3.24956e+06 6704.89 0 -3.2539e+06 6575.55 0 -3.25817e+06 6469.69 0 -3.26237e+06 6385.53 0 -3.26652e+06 6321.41 0 -3.27064e+06 6275.79 0 -3.27474e+06 6247.22 0 -3.27882e+06 6234.33 0 -3.2829e+06 6235.87 0 -3.28699e+06 6250.62 0 -3.29109e+06 6277.47 0 -3.29521e+06 6315.37 0 -3.29936e+06 6363.3 0 -3.30354e+06 6420.33 0 -3.30777e+06 6485.55 0 -3.31204e+06 6558.11 0 -3.31636e+06 6637.2 0 -3.32074e+06 6722.03 0 -3.32517e+06 6811.85 0 -3.32967e+06 6905.94 0 -3.33422e+06 7003.58 0 -3.33885e+06 7104.11 0 -3.34354e+06 7206.83 0 -3.34829e+06 7311.1 0 -3.35312e+06 7416.26 0 -3.35802e+06 7521.68 0 -3.36298e+06 7626.7 0 -3.36802e+06 7730.7 0 -3.37312e+06 7833.02 0 -3.37829e+06 7933.01 0 -3.38352e+06 8030.03 0 -3.38882e+06 8123.41 0 -3.39418e+06 8212.48 0 -3.39959e+06 8296.55 0 -3.40506e+06 8374.94 0 -3.41058e+06 8446.93 0 -3.41614e+06 8511.8 0 -3.42174e+06 8568.82 0 -3.42738e+06 8617.24 0 -3.43305e+06 8656.29 0 -3.43874e+06 8685.21 0 -3.44445e+06 8703.22 0 -3.45016e+06 8709.52 0 -3.45587e+06 8703.33 0 -3.46158e+06 8683.86 0 -3.46727e+06 8650.32 0 -3.47293e+06 8601.94 0 -3.47856e+06 8537.96 0 -3.48414e+06 8457.63 0 -3.48966e+06 8360.26 0 -3.49512e+06 8245.18 0 -3.50049e+06 8111.76 0 -3.50577e+06 7959.44 0 -3.51094e+06 7787.72 0 -3.51599e+06 7596.17 0 -3.52092e+06 7384.47 0 -3.52569e+06 7152.38 0 -3.53031e+06 6899.76 0 -3.53476e+06 6626.61 0 -3.53901e+06 6333.04 0 -3.54307e+06 6019.3 0 -3.54692e+06 5685.79 0 -3.55054e+06 5333.06 0 -3.55393e+06 4961.79 0 -3.55706e+06 4572.84 0 -3.55994e+06 4167.21 0 -3.56254e+06 3746.06 0 -3.56486e+06 3310.68 0 -3.56689e+06 2862.52 0 -3.56862e+06 2403.15 0 -3.57005e+06 1934.24 0 -3.57117e+06 1457.58 0 -3.57197e+06 975.023 0 -3.57245e+06 488.507 0 -3.57261e+06 9.1549e-07 0 -1.71548e+06 129793 0 -1.79232e+06 129151 0 -1.86855e+06 127787 0 -1.94374e+06 125738 0 -2.0175e+