<?xml version="1.0"?> 
<VTKFile type="StructuredGrid" version="0.1"> 
<StructuredGrid WholeExtent="0 7 0 7 0 0"> 
<Piece Extent="0 7 0 7 0 0"> 
<PointData>
<DataArray type="Float32" Name="|E|" format="ascii" NumberOfComponents="3"> 
-113.996 2.66153e+06 0 -258002 2.57963e+06 0 -607859 2.61891e+06 0 -1.65294e+06 3.92723e+06 0 3.71437e+07 -5.1325e+07 0 6.776e+06 -5.16306e+06 0 5.61927e+06 -1.84464e+06 0 5.10159e+06 -95.9287 0 198473 2.94758e+06 0 182471 3.35253e+06 0 547931 3.94077e+06 0 1.43849e+06 4.33989e+06 0 2.02685e+06 4.12634e+06 0 2.01345e+06 3.27814e+06 0 1.75858e+06 3.00968e+06 0 2.60826e+06 -12674.7 0 527175 2.97703e+06 0 734542 3.21356e+06 0 1.26637e+06 3.16509e+06 0 1.56664e+06 2.55756e+06 0 1.4303e+06 1.8043e+06 0 1.26018e+06 1.45331e+06 0 1.06277e+06 1.28704e+06 0 877557 1.22695e+06 0 658016 2.95957e+06 0 831849 2.91903e+06 0 1.06826e+06 2.51539e+06 0 1.04445e+06 1.95335e+06 0 909259 1.59487e+06 0 746966 1.33305e+06 0 636387 1.11825e+06 0 596866 866669 0 624871 2.98051e+06 0 693084 2.71239e+06 0 760394 2.22477e+06 0 691406 1.73711e+06 0 563084 1.3457e+06 0 461051 1.04796e+06 0 383571 811704 0 289182 695389 0 477501 3.02907e+06 0 475307 2.58313e+06 0 482542 2.03662e+06 0 407624 1.52675e+06 0 321562 1.12874e+06 0 251857 820899 0 192177 594981 0 167148 393139 0 254159 3.07314e+06 0 239365 2.4833e+06 0 228927 1.87448e+06 0 182228 1.34106e+06 0 137156 928513 0 101498 619538 0 81875 383817 0 68258.4 194307 0 0 3.08897e+06 0 0 2.39235e+06 0 0 1.72038e+06 0 0 1.16065e+06 0 0 743739 0 0 442586 0 0 202395 0 0 -375.41 0 </DataArray> 
</PointData> 
<Points> 
<DataArray type="Float32" NumberOfComponents="3"> 
0.187079 0.045 0 0.190392 0.0451567 0 0.19338 0.0456384 0 0.195937 0.0464499 0 0.19798 0.0475773 0 0.19945 0.0489889 0 0.200323 0.0506377 0 0.200607 0.0524662 0 0.18721 0.0545714 0 0.193907 0.0549319 0 0.200434 0.0554988 0 0.206624 0.0562684 0 0.21232 0.057227 0 0.217384 0.0583514 0 0.22171 0.0596113 0 0.225234 0.0609711 0 0.187342 0.0641429 0 0.197395 0.0646302 0 0.207395 0.0652282 0 0.21714 0.0659294 0 0.22643 0.0667219 0 0.235079 0.0675897 0 0.24293 0.0685143 0 0.249862 0.0694759 0 0.187474 0.0737143 0 0.200855 0.0742525 0 0.214264 0.0748293 0 0.227488 0.0754368 0 0.240315 0.0760657 0 0.25254 0.076706 0 0.263983 0.0773477 0 0.27449 0.0779807 0 0.187605 0.0832857 0 0.204288 0.0837998 0 0.221043 0.0843046 0 0.237673 0.084794 0 0.253981 0.085262 0 0.269773 0.085703 0 0.284871 0.0861121 0 0.299117 0.0864855 0 0.187737 0.0928571 0 0.207694 0.0932729 0 0.227734 0.0936566 0 0.247699 0.0940047 0 0.267433 0.0943142 0 0.286782 0.0945827 0 0.305598 0.0948085 0 0.323745 0.0949904 0 0.187868 0.102429 0 0.211075 0.102673 0 0.234338 0.102888 0 0.257568 0.103072 0 0.280676 0.103226 0 0.30357 0.103348 0 0.326164 0.103438 0 0.348372 0.103495 0 0.188 0.112 0 0.214429 0.112 0 0.240857 0.112 0 0.267286 0.112 0 0.293714 0.112 0 0.320143 0.112 0 0.346571 0.112 0 0.373 0.112 0 
</DataArray>
</Points> 
</Piece> 
</StructuredGrid> 
</VTKFile> 
