<?xml version="1.0"?> 
<VTKFile type="StructuredGrid" version="0.1"> 
<StructuredGrid WholeExtent="0 7 0 7 0 0"> 
<Piece Extent="0 7 0 7 0 0"> 
<PointData>
<DataArray type="Float32" Name="|E|" format="ascii" NumberOfComponents="3"> 
-1.74779e+06 0 0 -1.78116e+06 258259 0 -1.87293e+06 531660 0 -2.00805e+06 808962 0 -2.10304e+06 1.1426e+06 0 -2.10093e+06 1.30992e+06 0 -1.82707e+06 1.06852e+06 0 -2.96814e+06 3.61261e+06 0 -1.64384e+06 0 0 -1.68771e+06 279870 0 -1.78667e+06 563140 0 -1.92699e+06 852523 0 -2.05068e+06 1.14402e+06 0 -2.06619e+06 1.30729e+06 0 -1.9737e+06 1.12635e+06 0 -2.2693e+06 2.36694e+06 0 -1.5316e+06 0 0 -1.58711e+06 299745 0 -1.69642e+06 595984 0 -1.84756e+06 890182 0 -1.99764e+06 1.16117e+06 0 -2.05503e+06 1.30465e+06 0 -2.0445e+06 1.15229e+06 0 -1.95593e+06 1.76915e+06 0 -1.411e+06 0 0 -1.47998e+06 318812 0 -1.60189e+06 628678 0 -1.76805e+06 927674 0 -1.94594e+06 1.18696e+06 0 -2.05288e+06 1.31026e+06 0 -2.08811e+06 1.16311e+06 0 -1.81784e+06 1.41018e+06 0 -1.28239e+06 0 0 -1.36647e+06 337279 0 -1.50284e+06 661237 0 -1.68708e+06 966697 0 -1.89508e+06 1.2201e+06 0 -2.05427e+06 1.32574e+06 0 -2.1246e+06 1.16637e+06 0 -1.76928e+06 1.17531e+06 0 -1.14614e+06 0 0 -1.24666e+06 355176 0 -1.39893e+06 693736 0 -1.60338e+06 1.00795e+06 0 -1.84377e+06 1.26021e+06 0 -2.05687e+06 1.35165e+06 0 -2.16292e+06 1.1677e+06 0 -1.77102e+06 1.00509e+06 0 -1.00269e+06 0 0 -1.12066e+06 372401 0 -1.28977e+06 726126 0 -1.51579e+06 1.05154e+06 0 -1.79042e+06 1.30722e+06 0 -2.05937e+06 1.38823e+06 0 -2.20701e+06 1.17112e+06 0 -1.80335e+06 873324 0 -852539 0 0 -988642 388739 0 -1.17502e+06 758137 0 -1.42325e+06 1.09722e+06 0 -1.73337e+06 1.36088e+06 0 -2.06069e+06 1.43583e+06 0 -2.25838e+06 1.17998e+06 0 -1.85664e+06 764270 0 </DataArray> 
</PointData> 
<Points> 
<DataArray type="Float32" NumberOfComponents="3"> 
0 0.045 0 0.0142857 0.045 0 0.0285714 0.045 0 0.0428571 0.045 0 0.0571429 0.045 0 0.0714286 0.045 0 0.0857143 0.045 0 0.1 0.045 0 0 0.0505 0 0.0142857 0.0499184 0 0.0285714 0.0493367 0 0.0428571 0.0487551 0 0.0571429 0.0481735 0 0.0714286 0.0475918 0 0.0857143 0.0470102 0 0.1 0.0464286 0 0 0.056 0 0.0142857 0.0548367 0 0.0285714 0.0536735 0 0.0428571 0.0525102 0 0.0571429 0.0513469 0 0.0714286 0.0501837 0 0.0857143 0.0490204 0 0.1 0.0478571 0 0 0.0615 0 0.0142857 0.0597551 0 0.0285714 0.0580102 0 0.0428571 0.0562653 0 0.0571429 0.0545204 0 0.0714286 0.0527755 0 0.0857143 0.0510306 0 0.1 0.0492857 0 0 0.067 0 0.0142857 0.0646735 0 0.0285714 0.0623469 0 0.0428571 0.0600204 0 0.0571429 0.0576939 0 0.0714286 0.0553673 0 0.0857143 0.0530408 0 0.1 0.0507143 0 0 0.0725 0 0.0142857 0.0695918 0 0.0285714 0.0666837 0 0.0428571 0.0637755 0 0.0571429 0.0608673 0 0.0714286 0.0579592 0 0.0857143 0.055051 0 0.1 0.0521429 0 0 0.078 0 0.0142857 0.0745102 0 0.0285714 0.0710204 0 0.0428571 0.0675306 0 0.0571429 0.0640408 0 0.0714286 0.060551 0 0.0857143 0.0570612 0 0.1 0.0535714 0 0 0.0835 0 0.0142857 0.0794286 0 0.0285714 0.0753571 0 0.0428571 0.0712857 0 0.0571429 0.0672143 0 0.0714286 0.0631429 0 0.0857143 0.0590714 0 0.1 0.055 0 
</DataArray>
</Points> 
</Piece> 
</StructuredGrid> 
</VTKFile> 
