<?xml version="1.0"?> 
<VTKFile type="StructuredGrid" version="0.1"> 
<StructuredGrid WholeExtent="0 7 0 7 0 0"> 
<Piece Extent="0 7 0 7 0 0"> 
<PointData>
<DataArray type="Float32" Name="|E|" format="ascii" NumberOfComponents="3"> 
-2.12777e+06 0 0 -2.12807e+06 6203.22 0 -2.12869e+06 12672.3 0 -2.12935e+06 19226.2 0 -2.13015e+06 25594.4 0 -2.13129e+06 31751.8 0 -2.13287e+06 37817 0 -2.13492e+06 44174.9 0 -2.12247e+06 0 0 -2.12278e+06 8128.59 0 -2.1235e+06 16374.1 0 -2.12453e+06 24582.5 0 -2.12601e+06 32634.1 0 -2.12803e+06 40572.1 0 -2.13062e+06 48481.5 0 -2.13377e+06 56365 0 -2.11689e+06 0 0 -2.11727e+06 10098.1 0 -2.11824e+06 20235.1 0 -2.1198e+06 30299.8 0 -2.12206e+06 40248.1 0 -2.12506e+06 50138.4 0 -2.12882e+06 60042.1 0 -2.13331e+06 70039.8 0 -2.11108e+06 0 0 -2.11156e+06 12159.7 0 -2.11289e+06 24322.6 0 -2.11508e+06 36410.6 0 -2.11821e+06 48417.1 0 -2.12232e+06 60411.2 0 -2.12735e+06 72475.1 0 -2.13326e+06 84700.3 0 -2.10505e+06 0 0 -2.10568e+06 14331.4 0 -2.10742e+06 28654.5 0 -2.11032e+06 42912 0 -2.11444e+06 57111.6 0 -2.11973e+06 71339 0 -2.12612e+06 85705.1 0 -2.13359e+06 100337 0 -2.09882e+06 0 0 -2.0996e+06 16620.5 0 -2.10182e+06 33237 0 -2.10553e+06 49795.8 0 -2.11071e+06 66300.2 0 -2.11726e+06 82872.9 0 -2.12507e+06 99706.4 0 -2.13432e+06 117010 0 -2.09237e+06 0 0 -2.09334e+06 19029.2 0 -2.09609e+06 38071.8 0 -2.10068e+06 57051.9 0 -2.10701e+06 75940.6 0 -2.11484e+06 94967.3 0 -2.12415e+06 114540 0 -2.13555e+06 134891 0 -2.08571e+06 0 0 -2.08688e+06 21557.9 0 -2.09022e+06 43163.8 0 -2.0958e+06 64664.4 0 -2.10332e+06 85978.1 0 -2.11237e+06 107622 0 -2.12335e+06 130369 0 -2.1376e+06 154200 0 </DataArray> 
</PointData> 
<Points> 
<DataArray type="Float32" NumberOfComponents="3"> 
0 0.016 0 0.000857143 0.016 0 0.00171429 0.016 0 0.00257143 0.016 0 0.00342857 0.016 0 0.00428571 0.016 0 0.00514286 0.016 0 0.006 0.016 0 0 0.0167143 0 0.00106122 0.0167143 0 0.00212245 0.0167143 0 0.00318367 0.0167143 0 0.0042449 0.0167143 0 0.00530612 0.0167143 0 0.00636735 0.0167143 0 0.00742857 0.0167143 0 0 0.0174286 0 0.00126531 0.0174286 0 0.00253061 0.0174286 0 0.00379592 0.0174286 0 0.00506122 0.0174286 0 0.00632653 0.0174286 0 0.00759184 0.0174286 0 0.00885714 0.0174286 0 0 0.0181429 0 0.00146939 0.0181429 0 0.00293878 0.0181429 0 0.00440816 0.0181429 0 0.00587755 0.0181429 0 0.00734694 0.0181429 0 0.00881633 0.0181429 0 0.0102857 0.0181429 0 0 0.0188571 0 0.00167347 0.0188571 0 0.00334694 0.0188571 0 0.00502041 0.0188571 0 0.00669388 0.0188571 0 0.00836735 0.0188571 0 0.0100408 0.0188571 0 0.0117143 0.0188571 0 0 0.0195714 0 0.00187755 0.0195714 0 0.0037551 0.0195714 0 0.00563265 0.0195714 0 0.0075102 0.0195714 0 0.00938776 0.0195714 0 0.0112653 0.0195714 0 0.0131429 0.0195714 0 0 0.0202857 0 0.00208163 0.0202857 0 0.00416327 0.0202857 0 0.0062449 0.0202857 0 0.00832653 0.0202857 0 0.0104082 0.0202857 0 0.0124898 0.0202857 0 0.0145714 0.0202857 0 0 0.021 0 0.00228571 0.021 0 0.00457143 0.021 0 0.00685714 0.021 0 0.00914286 0.021 0 0.0114286 0.021 0 0.0137143 0.021 0 0.016 0.021 0 
</DataArray>
</Points> 
</Piece> 
</StructuredGrid> 
</VTKFile> 
