<?xml version="1.0"?> 
<VTKFile type="StructuredGrid" version="0.1"> 
<StructuredGrid WholeExtent="0 7 0 7 0 0"> 
<Piece Extent="0 7 0 7 0 0"> 
<PointData>
<DataArray type="Float32" Name="|E|" format="ascii" NumberOfComponents="3"> 
1.76492e+06 -703986 0 1.96511e+06 53101.9 0 1.53749e+06 298241 0 1.1377e+06 260579 0 851934 184365 0 663440 114045 0 556696 54307.8 0 520179 0 0 1.89349e+06 -755270 0 2.01085e+06 98236.4 0 1.52527e+06 344709 0 1.12234e+06 293238 0 839874 205910 0 654950 127493 0 550365 60629.8 0 514630 0 0 2.03784e+06 -812847 0 2.05728e+06 155138 0 1.50986e+06 392712 0 1.10594e+06 325684 0 826827 226926 0 645691 140687 0 543357 66792.9 0 508422 0 0 2.20491e+06 -879485 0 2.10181e+06 225424 0 1.49089e+06 441917 0 1.08847e+06 357809 0 812788 247400 0 635670 153612 0 535687 72789.4 0 501556 0 0 2.40366e+06 -958762 0 2.14071e+06 311000 0 1.46834e+06 491978 0 1.06984e+06 389385 0 797772 267390 0 624894 166222 0 527366 78623.5 0 494036 0 0 2.64598e+06 -1.05542e+06 0 2.16851e+06 414084 0 1.4427e+06 542611 0 1.04985e+06 419953 0 781822 287103 0 613371 178397 0 518405 84326.4 0 485870 0 0 2.94793e+06 -1.17586e+06 0 2.17722e+06 537234 0 1.41543e+06 593711 0 1.02803e+06 448678 0 765042 306997 0 601113 189887 0 508796 89979.6 0 477088 0 0 3.33154e+06 -1.32887e+06 0 2.15507e+06 683106 0 1.38958e+06 645804 0 1.00347e+06 473868 0 747642 328122 0 588149 200130 0 498492 95787.9 0 467777 0 0 </DataArray> 
</PointData> 
<Points> 
<DataArray type="Float32" NumberOfComponents="3"> 
0.1947 0.02 0 0.220171 0.02 0 0.245643 0.02 0 0.271114 0.02 0 0.296586 0.02 0 0.322057 0.02 0 0.347529 0.02 0 0.373 0.02 0 0.195714 0.0225429 0 0.221041 0.0225429 0 0.246367 0.0225429 0 0.271694 0.0225429 0 0.29702 0.0225429 0 0.322347 0.0225429 0 0.347673 0.0225429 0 0.373 0.0225429 0 0.196729 0.0250857 0 0.22191 0.0250857 0 0.247092 0.0250857 0 0.272273 0.0250857 0 0.297455 0.0250857 0 0.322637 0.0250857 0 0.347818 0.0250857 0 0.373 0.0250857 0 0.197743 0.0276286 0 0.22278 0.0276286 0 0.247816 0.0276286 0 0.272853 0.0276286 0 0.29789 0.0276286 0 0.322927 0.0276286 0 0.347963 0.0276286 0 0.373 0.0276286 0 0.198757 0.0301714 0 0.223649 0.0301714 0 0.248541 0.0301714 0 0.273433 0.0301714 0 0.298324 0.0301714 0 0.323216 0.0301714 0 0.348108 0.0301714 0 0.373 0.0301714 0 0.199771 0.0327143 0 0.224518 0.0327143 0 0.249265 0.0327143 0 0.274012 0.0327143 0 0.298759 0.0327143 0 0.323506 0.0327143 0 0.348253 0.0327143 0 0.373 0.0327143 0 0.200786 0.0352571 0 0.225388 0.0352571 0 0.24999 0.0352571 0 0.274592 0.0352571 0 0.299194 0.0352571 0 0.323796 0.0352571 0 0.348398 0.0352571 0 0.373 0.0352571 0 0.2018 0.0378 0 0.226257 0.0378 0 0.250714 0.0378 0 0.275171 0.0378 0 0.299629 0.0378 0 0.324086 0.0378 0 0.348543 0.0378 0 0.373 0.0378 0 
</DataArray>
</Points> 
</Piece> 
</StructuredGrid> 
</VTKFile> 
