<?xml version="1.0"?> 
<VTKFile type="StructuredGrid" version="0.1"> 
<StructuredGrid WholeExtent="0 31 0 31 0 0"> 
<Piece Extent="0 31 0 31 0 0"> 
<PointData>
<DataArray type="Float32" Name="|E|" format="ascii" NumberOfComponents="3"> 
-1.97228e+06 1.09827e+06 0 -1.9877e+06 1.14148e+06 0 -2.00238e+06 1.18493e+06 0 -2.01609e+06 1.22844e+06 0 -2.0286e+06 1.27182e+06 0 -2.03964e+06 1.31478e+06 0 -2.04894e+06 1.35699e+06 0 -2.05626e+06 1.39807e+06 0 -2.06137e+06 1.43752e+06 0 -2.06409e+06 1.47481e+06 0 -2.06433e+06 1.50932e+06 0 -2.06211e+06 1.54039e+06 0 -2.05759e+06 1.56733e+06 0 -2.05109e+06 1.58948e+06 0 -2.04312e+06 1.60621e+06 0 -2.03441e+06 1.61704e+06 0 -2.02584e+06 1.62163e+06 0 -2.01849e+06 1.61987e+06 0 -2.01361e+06 1.61187e+06 0 -2.01257e+06 1.59803e+06 0 -2.01689e+06 1.57904e+06 0 -2.0283e+06 1.55586e+06 0 -2.04877e+06 1.52987e+06 0 -2.08076e+06 1.50278e+06 0 -2.12726e+06 1.47719e+06 0 -2.19306e+06 1.45618e+06 0 -2.28455e+06 1.44527e+06 0 -2.41225e+06 1.45321e+06 0 -2.60657e+06 1.50124e+06 0 -2.91347e+06 1.57515e+06 0 -3.44476e+06 2.24275e+06 0 -6.97476e+06 3.35309e+06 0 -1.95418e+06 1.09632e+06 0 -1.96931e+06 1.13846e+06 0 -1.98383e+06 1.18078e+06 0 -1.99752e+06 1.22313e+06 0 -2.01019e+06 1.2653e+06 0 -2.02161e+06 1.30707e+06 0 -2.03154e+06 1.34812e+06 0 -2.03978e+06 1.38812e+06 0 -2.04612e+06 1.42663e+06 0 -2.0504e+06 1.46318e+06 0 -2.05252e+06 1.49725e+06 0 -2.05247e+06 1.52824e+06 0 -2.05035e+06 1.55558e+06 0 -2.0464e+06 1.57867e+06 0 -2.041e+06 1.59697e+06 0 -2.0347e+06 1.61002e+06 0 -2.02822e+06 1.61749e+06 0 -2.02243e+06 1.61923e+06 0 -2.01835e+06 1.6153e+06 0 -2.01712e+06 1.60597e+06 0 -2.02e+06 1.59181e+06 0 -2.02842e+06 1.57362e+06 0 -2.04395e+06 1.55259e+06 0 -2.06848e+06 1.53022e+06 0 -2.10426e+06 1.50868e+06 0 -2.15425e+06 1.49086e+06 0 -2.22297e+06 1.48138e+06 0 -2.31682e+06 1.48416e+06 0 -2.44026e+06 1.53038e+06 0 -2.66036e+06 1.56129e+06 0 -2.82687e+06 1.85369e+06 0 -3.63262e+06 2.49742e+06 0 -1.93616e+06 1.0944e+06 0 -1.95101e+06 1.13551e+06 0 -1.96535e+06 1.17676e+06 0 -1.979e+06 1.218e+06 0 -1.99179e+06 1.25905e+06 0 -2.00352e+06 1.2997e+06 0 -2.014e+06 1.33967e+06 0 -2.02303e+06 1.37865e+06 0 -2.03044e+06 1.41628e+06 0 -2.03608e+06 1.45213e+06 0 -2.03986e+06 1.48574e+06 0 -2.04174e+06 1.51661e+06 0 -2.04177e+06 1.54423e+06 0 -2.04013e+06 1.56807e+06 0 -2.03709e+06 1.58766e+06 0 -2.03307e+06 1.60257e+06 0 -2.02864e+06 1.61249e+06 0 -2.02449e+06 1.61725e+06 0 -2.02144e+06 1.61684e+06 0 -2.02042e+06 1.61146e+06 0 -2.02249e+06 1.60153e+06 0 -2.0288e+06 1.58774e+06 0 -2.04064e+06 1.57104e+06 0 -2.05944e+06 1.55273e+06 0 -2.08692e+06 1.53462e+06 0 -2.12515e+06 1.51899e+06 0 -2.17647e+06 1.51031e+06 0 -2.24718e+06 1.50934e+06 0 -2.33129e+06 1.54055e+06 0 -2.47205e+06 1.58552e+06 0 -2.62146e+06 1.72888e+06 0 -2.79573e+06 1.90435e+06 0 -1.91822e+06 1.0925e+06 0 -1.93278e+06 1.13262e+06 0 -1.94693e+06 1.17285e+06 0 -1.96051e+06 1.21304e+06 0 -1.97338e+06 1.25303e+06 0 -1.98536e+06 1.29263e+06 0 -1.9963e+06 1.33158e+06 0 -2.00601e+06 1.36962e+06 0 -2.01435e+06 1.40641e+06 0 -2.02118e+06 1.44159e+06 0 -2.02641e+06 1.47475e+06 0 -2.02999e+06 1.50546e+06 0 -2.03195e+06 1.53326e+06 0 -2.03239e+06 1.5577e+06 0 -2.03151e+06 1.57835e+06 0 -2.02963e+06 1.59482e+06 0 -2.02718e+06 1.60683e+06 0 -2.02471e+06 1.61417e+06 0 -2.02285e+06 1.61681e+06 0 -2.02239e+06 1.61488e+06 0 -2.02416e+06 1.60868e+06 0 -2.02911e+06 1.59875e+06 0 -2.03827e+06 1.58587e+06 0 -2.0528e+06 1.57113e+06 0 -2.07394e+06 1.55601e+06 0 -2.10334e+06 1.54224e+06 0 -2.14206e+06 1.53351e+06 0 -2.1946e+06 1.53098e+06 0 -2.25846e+06 1.54646e+06 0 -2.34376e+06 1.58078e+06 0 -2.45911e+06 1.67056e+06 0 -2.58845e+06 1.83527e+06 0 -1.90033e+06 1.09062e+06 0 -1.91461e+06 1.12979e+06 0 -1.92856e+06 1.16903e+06 0 -1.94205e+06 1.20823e+06 0 -1.95496e+06 1.24722e+06 0 -1.96713e+06 1.28582e+06 0 -1.97844e+06 1.32383e+06 0 -1.98873e+06 1.36098e+06 0 -1.99786e+06 1.39698e+06 0 -2.00573e+06 1.43152e+06 0 -2.01223e+06 1.46424e+06 0 -2.01731e+06 1.49475e+06 0 -2.02098e+06 1.52266e+06 0 -2.02329e+06 1.54757e+06 0 -2.02438e+06 1.56909e+06 0 -2.02449e+06 1.58687e+06 0 -2.02393e+06 1.60064e+06 0 -2.02312e+06 1.61021e+06 0 -2.02259e+06 1.61549e+06 0 -2.02292e+06 1.61656e+06 0 -2.0248e+06 1.61363e+06 0 -2.02901e+06 1.60712e+06 0 -2.03636e+06 1.59766e+06 0 -2.04779e+06 1.5861e+06 0 -2.06422e+06 1.57367e+06 0 -2.0869e+06 1.56175e+06 0 -2.11666e+06 1.55297e+06 0 -2.15555e+06 1.54931e+06 0 -2.20466e+06 1.55661e+06 0 -2.26447e+06 1.57934e+06 0 -2.3385e+06 1.62754e+06 0 -2.42836e+06 1.73555e+06 0 -1.8825e+06 1.08875e+06 0 -1.89648e+06 1.127e+06 0 -1.91022e+06 1.1653e+06 0 -1.9236e+06 1.20354e+06 0 -1.93651e+06 1.24158e+06 0 -1.94882e+06 1.27925e+06 0 -1.96043e+06 1.31636e+06 0 -1.9712e+06 1.35267e+06 0 -1.98101e+06 1.38793e+06 0 -1.98976e+06 1.42187e+06 0 -1.99737e+06 1.45415e+06 0 -2.00376e+06 1.48444e+06 0 -2.00894e+06 1.5124e+06 0 -2.01292e+06 1.53767e+06 0 -2.0158e+06 1.5599e+06 0 -2.01773e+06 1.57879e+06 0 -2.01896e+06 1.59406e+06 0 -2.0198e+06 1.60554e+06 0 -2.02063e+06 1.61311e+06 0 -2.02195e+06 1.61679e+06 0 -2.02428e+06 1.61674e+06 0 -2.02823e+06 1.61327e+06 0 -2.03448e+06 1.60686e+06 0 -2.04375e+06 1.59819e+06 0 -2.05679e+06 1.58823e+06 0 -2.07448e+06 1.57813e+06 0 -2.0976e+06 1.5697e+06 0 -2.12708e+06 1.56493e+06 0 -2.16402e+06 1.56703e+06 0 -2.20899e+06 1.58091e+06 0 -2.26205e+06 1.61118e+06 0 -2.32116e+06 1.66789e+06 0 -1.86471e+06 1.08688e+06 0 -1.8784e+06 1.12424e+06 0 -1.89191e+06 1.16164e+06 0 -1.90515e+06 1.19898e+06 0 -1.91802e+06 1.23611e+06 0 -1.93043e+06 1.27289e+06 0 -1.94226e+06 1.30914e+06 0 -1.95342e+06 1.34466e+06 0 -1.9638e+06 1.37922e+06 0 -1.97331e+06 1.41257e+06 0 -1.98186e+06 1.44443e+06 0 -1.9894e+06 1.47449e+06 0 -1.9959e+06 1.50245e+06 0 -2.00136e+06 1.52799e+06 0 -2.00584e+06 1.55081e+06 0 -2.00945e+06 1.57062e+06 0 -2.01235e+06 1.58718e+06 0 -2.01477e+06 1.60029e+06 0 -2.01701e+06 1.60984e+06 0 -2.01943e+06 1.61581e+06 0 -2.02245e+06 1.6183e+06 0 -2.02655e+06 1.61752e+06 0 -2.03226e+06 1.61385e+06 0 -2.04015e+06 1.60782e+06 0 -2.05083e+06 1.60018e+06 0 -2.06493e+06 1.59187e+06 0 -2.08311e+06 1.5842e+06 0 -2.10597e+06 1.57884e+06 0 -2.13414e+06 1.57789e+06 0 -2.16799e+06 1.58462e+06 0 -2.2078e+06 1.60328e+06 0 -2.25218e+06 1.63939e+06 0 -1.84695e+06 1.08501e+06 0 -1.86034e+06 1.12152e+06 0 -1.87361e+06 1.15805e+06 0 -1.88669e+06 1.1945e+06 0 -1.89949e+06 1.23077e+06 0 -1.91194e+06 1.2667e+06 0 -1.92394e+06 1.30214e+06 0 -1.93541e+06 1.33691e+06 0 -1.94625e+06 1.3708e+06 0 -1.95639e+06 1.40359e+06 0 -1.96575e+06 1.43503e+06 0 -1.97427e+06 1.46485e+06 0 -1.98192e+06 1.49277e+06 0 -1.98869e+06 1.51852e+06 0 -1.99461e+06 1.54182e+06 0 -1.99973e+06 1.56241e+06 0 -2.00418e+06 1.58005e+06 0 -2.0081e+06 1.59458e+06 0 -2.01173e+06 1.60585e+06 0 -2.01533e+06 1.61383e+06 0 -2.01921e+06 1.61855e+06 0 -2.02376e+06 1.62018e+06 0 -2.02938e+06 1.61898e+06 0 -2.03652e+06 1.61536e+06 0 -2.04566e+06 1.60991e+06 0 -2.05729e+06 1.60337e+06 0 -2.0719e+06 1.59673e+06 0 -2.08997e+06 1.59126e+06 0 -2.11191e+06 1.58858e+06 0 -2.13795e+06 1.59082e+06 0 -2.16808e+06 1.60085e+06 0 -2.20172e+06 1.62304e+06 0 -1.82921e+06 1.08313e+06 0 -1.84229e+06 1.11881e+06 0 -1.85532e+06 1.15449e+06 0 -1.86821e+06 1.19011e+06 0 -1.88092e+06 1.22554e+06 0 -1.89336e+06 1.26066e+06 0 -1.90547e+06 1.29533e+06 0 -1.91717e+06 1.32938e+06 0 -1.92838e+06 1.36263e+06 0 -1.93903e+06 1.39488e+06 0 -1.94907e+06 1.42591e+06 0 -1.95843e+06 1.45548e+06 0 -1.96707e+06 1.48333e+06 0 -1.97498e+06 1.50923e+06 0 -1.98216e+06 1.53292e+06 0 -1.98865e+06 1.55416e+06 0 -1.99451e+06 1.57275e+06 0 -1.99985e+06 1.58849e+06 0 -2.00483e+06 1.60126e+06 0 -2.00963e+06 1.611e+06 0 -2.0145e+06 1.61771e+06 0 -2.01972e+06 1.62148e+06 0 -2.02559e+06 1.62251e+06 0 -2.03247e+06 1.62111e+06 0 -2.04072e+06 1.61773e+06 0 -2.05074e+06 1.61294e+06 0 -2.0629e+06 1.6075e+06 0 -2.07756e+06 1.60239e+06 0 -2.09503e+06 1.59881e+06 0 -2.11551e+06 1.59832e+06 0 -2.13897e+06 1.60285e+06 0 -2.16488e+06 1.61506e+06 0 -1.81149e+06 1.08124e+06 0 -1.82427e+06 1.1161e+06 0 -1.83702e+06 1.15097e+06 0 -1.84972e+06 1.18577e+06 0 -1.86229e+06 1.2204e+06 0 -1.87469e+06 1.25474e+06 0 -1.88684e+06 1.28867e+06 0 -1.8987e+06 1.32203e+06 0 -1.91019e+06 1.35467e+06 0 -1.92126e+06 1.3864e+06 0 -1.93185e+06 1.41703e+06 0 -1.94191e+06 1.44633e+06 0 -1.9514e+06 1.47409e+06 0 -1.96029e+06 1.50009e+06 0 -1.96858e+06 1.5241e+06 0 -1.97628e+06 1.5459e+06 0 -1.98341e+06 1.56528e+06 0 -1.99007e+06 1.58209e+06 0 -1.99633e+06 1.59617e+06 0 -2.00234e+06 1.60746e+06 0 -2.00826e+06 1.61593e+06 0 -2.01429e+06 1.62162e+06 0 -2.02067e+06 1.62468e+06 0 -2.02767e+06 1.62533e+06 0 -2.03556e+06 1.62389e+06 0 -2.04464e+06 1.62083e+06 0 -2.0552e+06 1.61672e+06 0 -2.06754e+06 1.6123e+06 0 -2.08188e+06 1.60848e+06 0 -2.09838e+06 1.60643e+06 0 -2.11708e+06 1.60753e+06 0 -2.13767e+06 1.61358e+06 0 -1.79379e+06 1.07934e+06 0 -1.80624e+06 1.1134e+06 0 -1.81872e+06 1.14748e+06 0 -1.83119e+06 1.18149e+06 0 -1.84361e+06 1.21533e+06 0 -1.85591e+06 1.24892e+06 0 -1.86807e+06 1.28214e+06 0 -1.88002e+06 1.31484e+06 0 -1.89171e+06 1.34688e+06 0 -1.9031e+06 1.37811e+06 0 -1.91413e+06 1.40833e+06 0 -1.92476e+06 1.43737e+06 0 -1.93496e+06 1.46502e+06 0 -1.94469e+06 1.49108e+06 0 -1.95393e+06 1.51534e+06 0 -1.96268e+06 1.5376e+06 0 -1.97096e+06 1.55768e+06 0 -1.97881e+06 1.57541e+06 0 -1.98627e+06 1.59065e+06 0 -1.99344e+06 1.60332e+06 0 -2.00044e+06 1.61335e+06 0 -2.00739e+06 1.62078e+06 0 -2.01447e+06 1.62568e+06 0 -2.02186e+06 1.62821e+06 0 -2.02979e+06 1.62861e+06 0 -2.03846e+06 1.62724e+06 0 -2.04811e+06 1.62452e+06 0 -2.05895e+06 1.62104e+06 0 -2.07119e+06 1.61749e+06 0 -2.08494e+06 1.61471e+06 0 -2.10025e+06 1.61376e+06 0 -2.11697e+06 1.61591e+06 0 -1.77608e+06 1.07741e+06 0 -1.78821e+06 1.1107e+06 0 -1.80041e+06 1.14399e+06 0 -1.81264e+06 1.17723e+06 0 -1.82486e+06 1.21032e+06 0 -1.83704e+06 1.24318e+06 0 -1.84915e+06 1.2757e+06 0 -1.86113e+06 1.30776e+06 0 -1.87295e+06 1.33923e+06 0 -1.88456e+06 1.36996e+06 0 -1.89593e+06 1.39979e+06 0 -1.90702e+06 1.42855e+06 0 -1.91779e+06 1.45606e+06 0 -1.92821e+06 1.48215e+06 0 -1.93827e+06 1.50661e+06 0 -1.94793e+06 1.52926e+06 0 -1.95722e+06 1.54994e+06 0 -1.96613e+06 1.56848e+06 0 -1.9747e+06 1.58475e+06 0 -1.98298e+06 1.59863e+06 0 -1.99103e+06 1.61008e+06 0 -1.99895e+06 1.61907e+06 0 -2.00684e+06 1.62565e+06 0 -2.01484e+06 1.62993e+06 0 -2.02309e+06 1.63207e+06 0 -2.03176e+06 1.63234e+06 0 -2.04102e+06 1.63107e+06 0 -2.05103e+06 1.62869e+06 0 -2.06195e+06 1.62574e+06 0 -2.07388e+06 1.62286e+06 0 -2.08688e+06 1.62083e+06 0 -2.10087e+06 1.62058e+06 0 -1.75838e+06 1.07545e+06 0 -1.77018e+06 1.10797e+06 0 -1.78207e+06 1.14051e+06 0 -1.79404e+06 1.17299e+06 0 -1.80605e+06 1.20535e+06 0 -1.81807e+06 1.23749e+06 0 -1.83008e+06 1.26934e+06 0 -1.84204e+06 1.30077e+06 0 -1.85391e+06 1.33167e+06 0 -1.86568e+06 1.36191e+06 0 -1.87729e+06 1.39135e+06 0 -1.88872e+06 1.41983e+06 0 -1.89995e+06 1.44719e+06 0 -1.91093e+06 1.47326e+06 0 -1.92165e+06 1.49788e+06 0 -1.93209e+06 1.52086e+06 0 -1.94224e+06 1.54206e+06 0 -1.95209e+06 1.56131e+06 0 -1.96166e+06 1.57848e+06 0 -1.97096e+06 1.59346e+06 0 -1.98002e+06 1.60618e+06 0 -1.98891e+06 1.6166e+06 0 -1.99768e+06 1.62473e+06 0 -2.00641e+06 1.63062e+06 0 -2.01522e+06 1.6344e+06 0 -2.02419e+06 1.63626e+06 0 -2.03346e+06 1.63645e+06 0 -2.04315e+06 1.63529e+06 0 -2.05336e+06 1.6332e+06 0 -2.0642e+06 1.63066e+06 0 -2.07571e+06 1.62827e+06 0 -2.08788e+06 1.62671e+06 0 -1.74067e+06 1.07345e+06 0 -1.75213e+06 1.10522e+06 0 -1.76372e+06 1.13701e+06 0 -1.77541e+06 1.16875e+06 0 -1.78718e+06 1.20039e+06 0 -1.79901e+06 1.23184e+06 0 -1.81087e+06 1.26302e+06 0 -1.82276e+06 1.29384e+06 0 -1.83462e+06 1.32418e+06 0 -1.84646e+06 1.35394e+06 0 -1.85822e+06 1.38298e+06 0 -1.8699e+06 1.41117e+06 0 -1.88147e+06 1.43835e+06 0 -1.89289e+06 1.46439e+06 0 -1.90415e+06 1.48911e+06 0 -1.91522e+06 1.51237e+06 0 -1.9261e+06 1.53401e+06 0 -1.93676e+06 1.55389e+06 0 -1.9472e+06 1.57187e+06 0 -1.95742e+06 1.58784e+06 0 -1.96743e+06 1.60171e+06 0 -1.97725e+06 1.61343e+06 0 -1.98692e+06 1.62298e+06 0 -1.99647e+06 1.63039e+06 0 -2.00596e+06 1.63572e+06 0 -2.01546e+06 1.63912e+06 0 -2.02504e+06 1.64077e+06 0 -2.03479e+06 1.64091e+06 0 -2.04479e+06 1.63985e+06 0 -2.05509e+06 1.63797e+06 0 -2.06576e+06 1.63572e+06 0 -2.0768e+06 1.63362e+06 0 -1.72295e+06 1.07141e+06 0 -1.73407e+06 1.10244e+06 0 -1.74534e+06 1.13349e+06 0 -1.75673e+06 1.16451e+06 0 -1.76824e+06 1.19543e+06 0 -1.77985e+06 1.2262e+06 0 -1.79154e+06 1.25673e+06 0 -1.80329e+06 1.28694e+06 0 -1.81509e+06 1.31673e+06 0 -1.82693e+06 1.34601e+06 0 -1.83876e+06 1.37465e+06 0 -1.85059e+06 1.40253e+06 0 -1.86239e+06 1.42952e+06 0 -1.87413e+06 1.45549e+06 0 -1.88581e+06 1.48028e+06 0 -1.89738e+06 1.50376e+06 0 -1.90885e+06 1.52578e+06 0 -1.92019e+06 1.54621e+06 0 -1.93137e+06 1.5649e+06 0 -1.94241e+06 1.58176e+06 0 -1.95327e+06 1.59668e+06 0 -1.96397e+06 1.60959e+06 0 -1.97451e+06 1.62047e+06 0 -1.9849e+06 1.62929e+06 0 -1.99516e+06 1.63611e+06 0 -2.00533e+06 1.641e+06 0 -2.01544e+06 1.64409e+06 0 -2.02554e+06 1.64557e+06 0 -2.03568e+06 1.64567e+06 0 -2.0459e+06 1.64468e+06 0 -2.05623e+06 1.64294e+06 0 -2.0667e+06 1.64084e+06 0 -1.70522e+06 1.06932e+06 0 -1.71599e+06 1.09962e+06 0 -1.72692e+06 1.12994e+06 0 -1.73801e+06 1.16024e+06 0 -1.74924e+06 1.19046e+06 0 -1.76059e+06 1.22055e+06 0 -1.77207e+06 1.25044e+06 0 -1.78366e+06 1.28004e+06 0 -1.79534e+06 1.30929e+06 0 -1.8071e+06 1.33808e+06 0 -1.81894e+06 1.36631e+06 0 -1.83083e+06 1.39387e+06 0 -1.84276e+06 1.42065e+06 0 -1.85472e+06 1.44652e+06 0 -1.86668e+06 1.47134e+06 0 -1.87864e+06 1.49499e+06 0 -1.89056e+06 1.51733e+06 0 -1.90244e+06 1.53823e+06 0 -1.91425e+06 1.55757e+06 0 -1.92597e+06 1.57522e+06 0 -1.93758e+06 1.5911e+06 0 -1.94908e+06 1.60512e+06 0 -1.96043e+06 1.61722e+06 0 -1.97164e+06 1.62738e+06 0 -1.9827e+06 1.6356e+06 0 -1.99361e+06 1.64194e+06 0 -2.00439e+06 1.64646e+06 0 -2.01504e+06 1.64931e+06 0 -2.02559e+06 1.65066e+06 0 -2.03606e+06 1.65072e+06 0 -2.04646e+06 1.64976e+06 0 -2.0568e+06 1.64808e+06 0 -1.68747e+06 1.06718e+06 0 -1.69789e+06 1.09675e+06 0 -1.70848e+06 1.12635e+06 0 -1.71925e+06 1.15593e+06 0 -1.73017e+06 1.18546e+06 0 -1.74125e+06 1.21488e+06 0 -1.75248e+06 1.24412e+06 0 -1.76386e+06 1.27313e+06 0 -1.77537e+06 1.30182e+06 0 -1.78701e+06 1.33012e+06 0 -1.79877e+06 1.35794e+06 0 -1.81065e+06 1.38517e+06 0 -1.82262e+06 1.4117e+06 0 -1.83469e+06 1.43744e+06 0 -1.84684e+06 1.46225e+06 0 -1.85905e+06 1.48602e+06 0 -1.87131e+06 1.50863e+06 0 -1.88359e+06 1.52994e+06 0 -1.89589e+06 1.54984e+06 0 -1.90817e+06 1.56821e+06 0 -1.92041e+06 1.58496e+06 0 -1.93259e+06 1.59999e+06 0 -1.94468e+06 1.61324e+06 0 -1.95665e+06 1.62466e+06 0 -1.96849e+06 1.63422e+06 0 -1.98018e+06 1.64196e+06 0 -1.99169e+06 1.6479e+06 0 -2.00303e+06 1.65214e+06 0 -2.01417e+06 1.6548e+06 0 -2.02513e+06 1.65603e+06 0 -2.03589e+06 1.65605e+06 0 -2.04646e+06 1.65508e+06 0 -1.6697e+06 1.06498e+06 0 -1.67976e+06 1.09383e+06 0 -1.69001e+06 1.1227e+06 0 -1.70044e+06 1.15158e+06 0 -1.71104e+06 1.18042e+06 0 -1.72183e+06 1.20916e+06 0 -1.73278e+06 1.23777e+06 0 -1.74391e+06 1.26618e+06 0 -1.75521e+06 1.29432e+06 0 -1.76667e+06 1.32212e+06 0 -1.7783e+06 1.3495e+06 0 -1.79008e+06 1.37637e+06 0 -1.80202e+06 1.40265e+06 0 -1.8141e+06 1.42822e+06 0 -1.82632e+06 1.45298e+06 0 -1.83868e+06 1.47682e+06 0 -1.85114e+06 1.49963e+06 0 -1.86371e+06 1.52129e+06 0 -1.87636e+06 1.54168e+06 0 -1.88907e+06 1.5607e+06 0 -1.90181e+06 1.57824e+06 0 -1.91456e+06 1.5942e+06 0 -1.92727e+06 1.60852e+06 0 -1.93993e+06 1.62112e+06 0 -1.95249e+06 1.63197e+06 0 -1.96492e+06 1.64105e+06 0 -1.97719e+06 1.64839e+06 0 -1.98927e+06 1.65403e+06 0 -2.00112e+06 1.65804e+06 0 -2.01273e+06 1.66055e+06 0 -2.02407e+06 1.6617e+06 0 -2.03512e+06 1.66167e+06 0 -1.65191e+06 1.06272e+06 0 -1.66161e+06 1.09084e+06 0 -1.6715e+06 1.119e+06 0 -1.68159e+06 1.14717e+06 0 -1.69186e+06 1.17532e+06 0 -1.70232e+06 1.20339e+06 0 -1.71298e+06 1.23136e+06 0 -1.72382e+06 1.25916e+06 0 -1.73486e+06 1.28674e+06 0 -1.7461e+06 1.31403e+06 0 -1.75753e+06 1.34096e+06 0 -1.76916e+06 1.36746e+06 0 -1.78098e+06 1.39344e+06 0 -1.79299e+06 1.41882e+06 0 -1.8052e+06 1.44349e+06 0 -1.81758e+06 1.46735e+06 0 -1.83014e+06 1.49031e+06 0 -1.84287e+06 1.51225e+06 0 -1.85574e+06 1.53306e+06 0 -1.86875e+06 1.55264e+06 0 -1.88185e+06 1.57089e+06 0 -1.89503e+06 1.58771e+06 0 -1.90826e+06 1.60301e+06 0 -1.92149e+06 1.61673e+06 0 -1.93468e+06 1.6288e+06 0 -1.94779e+06 1.63919e+06 0 -1.96078e+06 1.6479e+06 0 -1.9736e+06 1.65494e+06 0 -1.9862e+06 1.66034e+06 0 -1.99855e+06 1.66419e+06 0 -2.01061e+06 1.6666e+06 0 -2.02233e+06 1.66768e+06 0 -1.6341e+06 1.06038e+06 0 -1.64344e+06 1.08778e+06 0 -1.65297e+06 1.11523e+06 0 -1.66269e+06 1.14269e+06 0 -1.67262e+06 1.17015e+06 0 -1.68274e+06 1.19755e+06 0 -1.69307e+06 1.22487e+06 0 -1.70361e+06 1.25206e+06 0 -1.71436e+06 1.27907e+06 0 -1.72532e+06 1.30583e+06 0 -1.73651e+06 1.3323e+06 0 -1.74792e+06 1.3584e+06 0 -1.75955e+06 1.38406e+06 0 -1.77142e+06 1.4092e+06 0 -1.78351e+06 1.43373e+06 0 -1.79583e+06 1.45757e+06 0 -1.80838e+06 1.48061e+06 0 -1.82115e+06 1.50277e+06 0 -1.83412e+06 1.52393e+06 0 -1.84728e+06 1.544e+06 0 -1.86062e+06 1.56288e+06 0 -1.8741e+06 1.58047e+06 0 -1.8877e+06 1.59668e+06 0 -1.90137e+06 1.61144e+06 0 -1.91508e+06 1.62467e+06 0 -1.92877e+06 1.63632e+06 0 -1.9424e+06 1.64637e+06 0 -1.95592e+06 1.65479e+06 0 -1.96926e+06 1.66161e+06 0 -1.98237e+06 1.66686e+06 0 -1.99521e+06 1.67061e+06 0 -2.00771e+06 1.67296e+06 0 -1.61626e+06 1.05797e+06 0 -1.62523e+06 1.08465e+06 0 -1.6344e+06 1.11138e+06 0 -1.64376e+06 1.13814e+06 0 -1.65332e+06 1.1649e+06 0 -1.6631e+06 1.19163e+06 0 -1.67308e+06 1.2183e+06 0 -1.68328e+06 1.24486e+06 0 -1.69371e+06 1.27129e+06 0 -1.70436e+06 1.29751e+06 0 -1.71526e+06 1.3235e+06 0 -1.72639e+06 1.34917e+06 0 -1.73778e+06 1.37448e+06 0 -1.74942e+06 1.39934e+06 0 -1.76133e+06 1.42369e+06 0 -1.7735e+06 1.44745e+06 0 -1.78593e+06 1.47052e+06 0 -1.79862e+06 1.49282e+06 0 -1.81158e+06 1.51426e+06 0 -1.82477e+06 1.53474e+06 0 -1.8382e+06 1.55416e+06 0 -1.85184e+06 1.57244e+06 0 -1.86567e+06 1.58948e+06 0 -1.87964e+06 1.6052e+06 0 -1.89373e+06 1.61952e+06 0 -1.90788e+06 1.63237e+06 0 -1.92204e+06 1.64371e+06 0 -1.93616e+06 1.65351e+06 0 -1.95017e+06 1.66175e+06 0 -1.96402e+06 1.66844e+06 0 -1.97763e+06 1.67361e+06 0 -1.99094e+06 1.67732e+06 0 -1.5984e+06 1.05548e+06 0 -1.607e+06 1.08143e+06 0 -1.6158e+06 1.10744e+06 0 -1.62479e+06 1.13349e+06 0 -1.63398e+06 1.15955e+06 0 -1.64339e+06 1.1856e+06 0 -1.65301e+06 1.21161e+06 0 -1.66285e+06 1.23755e+06 0 -1.67293e+06 1.26337e+06 0 -1.68324e+06 1.28905e+06 0 -1.6938e+06 1.31452e+06 0 -1.70462e+06 1.33974e+06 0 -1.7157e+06 1.36466e+06 0 -1.72706e+06 1.38921e+06 0 -1.7387e+06 1.41333e+06 0 -1.75064e+06 1.43695e+06 0 -1.76286e+06 1.45999e+06 0 -1.77538e+06 1.48236e+06 0 -1.7882e+06 1.504e+06 0 -1.80131e+06 1.52481e+06 0 -1.8147e+06 1.54469e+06 0 -1.82836e+06 1.56357e+06 0 -1.84227e+06 1.58134e+06 0 -1.8564e+06 1.59793e+06 0 -1.87071e+06 1.61326e+06 0 -1.88517e+06 1.62725e+06 0 -1.89972e+06 1.63983e+06 0 -1.91432e+06 1.65097e+06 0 -1.92889e+06 1.66061e+06 0 -1.94338e+06 1.66876e+06 0 -1.95771e+06 1.67541e+06 0 -1.97181e+06 1.68058e+06 0 -1.58052e+06 1.0529e+06 0 -1.58875e+06 1.07813e+06 0 -1.59717e+06 1.10342e+06 0 -1.60579e+06 1.12875e+06 0 -1.6146e+06 1.15411e+06 0 -1.62363e+06 1.17947e+06 0 -1.63287e+06 1.20481e+06 0 -1.64233e+06 1.23011e+06 0 -1.65203e+06 1.25532e+06 0 -1.66197e+06 1.28041e+06 0 -1.67217e+06 1.30535e+06 0 -1.68263e+06 1.33009e+06 0 -1.69336e+06 1.35459e+06 0 -1.70438e+06 1.37879e+06 0 -1.7157e+06 1.40263e+06 0 -1.72732e+06 1.42605e+06 0 -1.73925e+06 1.44899e+06 0 -1.75151e+06 1.47137e+06 0 -1.76409e+06 1.49312e+06 0 -1.777e+06 1.51417e+06 0 -1.79023e+06 1.53442e+06 0 -1.80378e+06 1.5538e+06 0 -1.81763e+06 1.57221e+06 0 -1.83176e+06 1.58959e+06 0 -1.84614e+06 1.60583e+06 0 -1.86075e+06 1.62087e+06 0 -1.87553e+06 1.63462e+06 0 -1.89044e+06 1.64704e+06 0 -1.90543e+06 1.65807e+06 0 -1.92042e+06 1.66767e+06 0 -1.93535e+06 1.67582e+06 0 -1.95015e+06 1.68252e+06 0 -1.56261e+06 1.05023e+06 0 -1.57047e+06 1.07473e+06 0 -1.57851e+06 1.09929e+06 0 -1.58675e+06 1.12391e+06 0 -1.59518e+06 1.14855e+06 0 -1.60382e+06 1.17322e+06 0 -1.61267e+06 1.19788e+06 0 -1.62174e+06 1.22252e+06 0 -1.63104e+06 1.2471e+06 0 -1.64059e+06 1.2716e+06 0 -1.65039e+06 1.29598e+06 0 -1.66045e+06 1.32021e+06 0 -1.6708e+06 1.34425e+06 0 -1.68143e+06 1.36804e+06 0 -1.69236e+06 1.39155e+06 0 -1.70361e+06 1.41472e+06 0 -1.71518e+06 1.4375e+06 0 -1.72709e+06 1.45981e+06 0 -1.73935e+06 1.4816e+06 0 -1.75195e+06 1.5028e+06 0 -1.76491e+06 1.52332e+06 0 -1.77821e+06 1.5431e+06 0 -1.79186e+06 1.56205e+06 0 -1.80585e+06 1.58009e+06 0 -1.82015e+06 1.59714e+06 0 -1.83473e+06 1.61313e+06 0 -1.84958e+06 1.62798e+06 0 -1.86463e+06 1.64161e+06 0 -1.87986e+06 1.65396e+06 0 -1.89519e+06 1.66498e+06 0 -1.91056e+06 1.67463e+06 0 -1.9259e+06 1.68289e+06 0 -1.54468e+06 1.04747e+06 0 -1.55217e+06 1.07123e+06 0 -1.55984e+06 1.09506e+06 0 -1.56769e+06 1.11895e+06 0 -1.57573e+06 1.14288e+06 0 -1.58397e+06 1.16684e+06 0 -1.59242e+06 1.19081e+06 0 -1.60109e+06 1.21478e+06 0 -1.60998e+06 1.23871e+06 0 -1.61911e+06 1.26259e+06 0 -1.62849e+06 1.28639e+06 0 -1.63813e+06 1.31007e+06 0 -1.64805e+06 1.33361e+06 0 -1.65825e+06 1.35697e+06 0 -1.66876e+06 1.3801e+06 0 -1.67958e+06 1.40296e+06 0 -1.69073e+06 1.4255e+06 0 -1.70222e+06 1.44767e+06 0 -1.71406e+06 1.46941e+06 0 -1.72627e+06 1.49066e+06 0 -1.73885e+06 1.51135e+06 0 -1.7518e+06 1.53142e+06 0 -1.76513e+06 1.55079e+06 0 -1.77883e+06 1.56939e+06 0 -1.79289e+06 1.58714e+06 0 -1.80729e+06 1.60396e+06 0 -1.82202e+06 1.61979e+06 0 -1.83703e+06 1.63453e+06 0 -1.8523e+06 1.64813e+06 0 -1.86777e+06 1.66051e+06 0 -1.8834e+06 1.67163e+06 0 -1.8991e+06 1.68144e+06 0 -1.52672e+06 1.04461e+06 0 -1.53385e+06 1.06763e+06 0 -1.54114e+06 1.09072e+06 0 -1.54861e+06 1.11387e+06 0 -1.55626e+06 1.13708e+06 0 -1.5641e+06 1.16032e+06 0 -1.57214e+06 1.18359e+06 0 -1.58039e+06 1.20687e+06 0 -1.58886e+06 1.23014e+06 0 -1.59756e+06 1.25338e+06 0 -1.6065e+06 1.27656e+06 0 -1.61569e+06 1.29967e+06 0 -1.62515e+06 1.32268e+06 0 -1.6349e+06 1.34555e+06 0 -1.64493e+06 1.36825e+06 0 -1.65528e+06 1.39074e+06 0 -1.66596e+06 1.41298e+06 0 -1.67697e+06 1.43493e+06 0 -1.68834e+06 1.45653e+06 0 -1.70007e+06 1.47774e+06 0 -1.71218e+06 1.4985e+06 0 -1.72468e+06 1.51875e+06 0 -1.73757e+06 1.53842e+06 0 -1.75086e+06 1.55745e+06 0 -1.76453e+06 1.57577e+06 0 -1.7786e+06 1.5933e+06 0 -1.79304e+06 1.60997e+06 0 -1.80783e+06 1.6257e+06 0 -1.82295e+06 1.64043e+06 0 -1.83835e+06 1.65408e+06 0 -1.85401e+06 1.6666e+06 0 -1.86985e+06 1.67791e+06 0 -1.50875e+06 1.04165e+06 0 -1.5155e+06 1.06392e+06 0 -1.52242e+06 1.08627e+06 0 -1.5295e+06 1.10868e+06 0 -1.53676e+06 1.13115e+06 0 -1.5442e+06 1.15366e+06 0 -1.55183e+06 1.17622e+06 0 -1.55966e+06 1.19879e+06 0 -1.56769e+06 1.22137e+06 0 -1.57595e+06 1.24395e+06 0 -1.58444e+06 1.2665e+06 0 -1.59317e+06 1.289e+06 0 -1.60215e+06 1.31143e+06 0 -1.61141e+06 1.33377e+06 0 -1.62095e+06 1.35599e+06 0 -1.63079e+06 1.37805e+06 0 -1.64095e+06 1.39993e+06 0 -1.65144e+06 1.42158e+06 0 -1.66227e+06 1.44297e+06 0 -1.67347e+06 1.46404e+06 0 -1.68503e+06 1.48477e+06 0 -1.69699e+06 1.50508e+06 0 -1.70935e+06 1.52493e+06 0 -1.72211e+06 1.54425e+06 0 -1.73528e+06 1.56299e+06 0 -1.74886e+06 1.58108e+06 0 -1.76286e+06 1.59845e+06 0 -1.77725e+06 1.61504e+06 0 -1.79202e+06 1.63076e+06 0 -1.80716e+06 1.64555e+06 0 -1.82262e+06 1.65934e+06 0 -1.83837e+06 1.67207e+06 0 -1.49075e+06 1.03858e+06 0 -1.49715e+06 1.0601e+06 0 -1.50369e+06 1.08169e+06 0 -1.51039e+06 1.10335e+06 0 -1.51726e+06 1.12507e+06 0 -1.52429e+06 1.14685e+06 0 -1.53151e+06 1.16867e+06 0 -1.53891e+06 1.19053e+06 0 -1.54651e+06 1.21241e+06 0 -1.55431e+06 1.2343e+06 0 -1.56234e+06 1.25618e+06 0 -1.57059e+06 1.27805e+06 0 -1.57909e+06 1.29987e+06 0 -1.58784e+06 1.32164e+06 0 -1.59686e+06 1.34332e+06 0 -1.60617e+06 1.3649e+06 0 -1.61578e+06 1.38635e+06 0 -1.6257e+06 1.40763e+06 0 -1.63595e+06 1.42871e+06 0 -1.64656e+06 1.44956e+06 0 -1.65753e+06 1.47014e+06 0 -1.66887e+06 1.4904e+06 0 -1.68061e+06 1.5103e+06 0 -1.69275e+06 1.52978e+06 0 -1.70531e+06 1.5488e+06 0 -1.71829e+06 1.5673e+06 0 -1.7317e+06 1.58521e+06 0 -1.74554e+06 1.60247e+06 0 -1.75979e+06 1.61902e+06 0 -1.77445e+06 1.63479e+06 0 -1.78951e+06 1.64971e+06 0 -1.80493e+06 1.66372e+06 0 -1.47274e+06 1.0354e+06 0 -1.47878e+06 1.05616e+06 0 -1.48495e+06 1.07699e+06 0 -1.49127e+06 1.09789e+06 0 -1.49774e+06 1.11886e+06 0 -1.50438e+06 1.13989e+06 0 -1.51118e+06 1.16096e+06 0 -1.51815e+06 1.18208e+06 0 -1.52531e+06 1.20324e+06 0 -1.53266e+06 1.22442e+06 0 -1.54022e+06 1.24562e+06 0 -1.54799e+06 1.26681e+06 0 -1.55598e+06 1.28799e+06 0 -1.56422e+06 1.30914e+06 0 -1.57271e+06 1.33025e+06 0 -1.58146e+06 1.35129e+06 0 -1.5905e+06 1.37224e+06 0 -1.59983e+06 1.39307e+06 0 -1.60948e+06 1.41377e+06 0 -1.61945e+06 1.4343e+06 0 -1.62978e+06 1.45463e+06 0 -1.64046e+06 1.47473e+06 0 -1.65152e+06 1.49455e+06 0 -1.66297e+06 1.51406e+06 0 -1.67483e+06 1.53321e+06 0 -1.68711e+06 1.55195e+06 0 -1.69982e+06 1.57023e+06 0 -1.71296e+06 1.588e+06 0 -1.72654e+06 1.60519e+06 0 -1.74056e+06 1.62175e+06 0 -1.75501e+06 1.63761e+06 0 -1.76987e+06 1.65272e+06 0 -1.45472e+06 1.03211e+06 0 -1.4604e+06 1.0521e+06 0 -1.4662e+06 1.07216e+06 0 -1.47215e+06 1.0923e+06 0 -1.47823e+06 1.1125e+06 0 -1.48447e+06 1.13276e+06 0 -1.49086e+06 1.15308e+06 0 -1.4974e+06 1.17345e+06 0 -1.50412e+06 1.19386e+06 0 -1.51102e+06 1.21431e+06 0 -1.51811e+06 1.23479e+06 0 -1.52539e+06 1.25529e+06 0 -1.53288e+06 1.27579e+06 0 -1.54059e+06 1.29629e+06 0 -1.54854e+06 1.31677e+06 0 -1.55673e+06 1.33722e+06 0 -1.56518e+06 1.35761e+06 0 -1.57391e+06 1.37794e+06 0 -1.58293e+06 1.39817e+06 0 -1.59225e+06 1.4183e+06 0 -1.6019e+06 1.43828e+06 0 -1.61188e+06 1.4581e+06 0 -1.62222e+06 1.47772e+06 0 -1.63293e+06 1.49712e+06 0 -1.64403e+06 1.51624e+06 0 -1.65553e+06 1.53507e+06 0 -1.66745e+06 1.55354e+06 0 -1.67979e+06 1.57162e+06 0 -1.69257e+06 1.58926e+06 0 -1.7058e+06 1.60641e+06 0 -1.71947e+06 1.62301e+06 0 -1.7336e+06 1.63898e+06 0 -1.43668e+06 1.0287e+06 0 -1.44201e+06 1.04792e+06 0 -1.44746e+06 1.0672e+06 0 -1.45303e+06 1.08656e+06 0 -1.45873e+06 1.10598e+06 0 -1.46457e+06 1.12547e+06 0 -1.47055e+06 1.14502e+06 0 -1.47668e+06 1.16462e+06 0 -1.48296e+06 1.18428e+06 0 -1.48941e+06 1.20398e+06 0 -1.49602e+06 1.22372e+06 0 -1.50282e+06 1.24349e+06 0 -1.50981e+06 1.26328e+06 0 -1.517e+06 1.28309e+06 0 -1.5244e+06 1.3029e+06 0 -1.53203e+06 1.3227e+06 0 -1.53989e+06 1.34248e+06 0 -1.548e+06 1.36223e+06 0 -1.55638e+06 1.38193e+06 0 -1.56504e+06 1.40156e+06 0 -1.57399e+06 1.42111e+06 0 -1.58326e+06 1.44055e+06 0 -1.59285e+06 1.45985e+06 0 -1.60278e+06 1.479e+06 0 -1.61308e+06 1.49796e+06 0 -1.62375e+06 1.51671e+06 0 -1.63481e+06 1.5352e+06 0 -1.64628e+06 1.55341e+06 0 -1.65817e+06 1.57129e+06 0 -1.6705e+06 1.5888e+06 0 -1.68327e+06 1.60589e+06 0 -1.69648e+06 1.62255e+06 0 -1.41863e+06 1.02518e+06 0 -1.42362e+06 1.04361e+06 0 -1.42871e+06 1.06211e+06 0 -1.43392e+06 1.08068e+06 0 -1.43925e+06 1.09932e+06 0 -1.4447e+06 1.11802e+06 0 -1.45027e+06 1.13678e+06 0 -1.45599e+06 1.1556e+06 0 -1.46184e+06 1.17448e+06 0 -1.46784e+06 1.19341e+06 0 -1.47399e+06 1.21239e+06 0 -1.48031e+06 1.2314e+06 0 -1.4868e+06 1.25045e+06 0 -1.49347e+06 1.26954e+06 0 -1.50033e+06 1.28864e+06 0 -1.50739e+06 1.30776e+06 0 -1.51467e+06 1.32688e+06 0 -1.52217e+06 1.34599e+06 0 -1.52991e+06 1.36508e+06 0 -1.5379e+06 1.38415e+06 0 -1.54616e+06 1.40317e+06 0 -1.55469e+06 1.42213e+06 0 -1.56352e+06 1.44101e+06 0 -1.57267e+06 1.45979e+06 0 -1.58214e+06 1.47845e+06 0 -1.59195e+06 1.49697e+06 0 -1.60213e+06 1.51532e+06 0 -1.61268e+06 1.53347e+06 0 -1.62363e+06 1.5514e+06 0 -1.63498e+06 1.56906e+06 0 -1.64675e+06 1.58641e+06 0 -1.65898e+06 1.60334e+06 0 </DataArray> 
</PointData> 
<Points> 
<DataArray type="Float32" NumberOfComponents="3"> 