<?xml version="1.0"?> 
<VTKFile type="StructuredGrid" version="0.1"> 
<StructuredGrid WholeExtent="0 31 0 31 0 0"> 
<Piece Extent="0 31 0 31 0 0"> 
<PointData>
<DataArray type="Float32" Name="|E|" format="ascii" NumberOfComponents="3"> 
-1.41863e+06 1.02518e+06 0 -1.42362e+06 1.0436e+06 0 -1.42871e+06 1.0621e+06 0 -1.43392e+06 1.08067e+06 0 -1.43925e+06 1.09931e+06 0 -1.4447e+06 1.11801e+06 0 -1.45027e+06 1.13677e+06 0 -1.45599e+06 1.15559e+06 0 -1.46184e+06 1.17447e+06 0 -1.46784e+06 1.1934e+06 0 -1.47399e+06 1.21237e+06 0 -1.48031e+06 1.23139e+06 0 -1.4868e+06 1.25044e+06 0 -1.49347e+06 1.26952e+06 0 -1.50033e+06 1.28862e+06 0 -1.50739e+06 1.30774e+06 0 -1.51467e+06 1.32685e+06 0 -1.52217e+06 1.34596e+06 0 -1.52991e+06 1.36505e+06 0 -1.5379e+06 1.38411e+06 0 -1.54616e+06 1.40312e+06 0 -1.55469e+06 1.42207e+06 0 -1.56352e+06 1.44093e+06 0 -1.57267e+06 1.4597e+06 0 -1.58214e+06 1.47834e+06 0 -1.59195e+06 1.49684e+06 0 -1.60213e+06 1.51516e+06 0 -1.61268e+06 1.53329e+06 0 -1.62363e+06 1.55118e+06 0 -1.63498e+06 1.5688e+06 0 -1.64675e+06 1.58611e+06 0 -1.65898e+06 1.60314e+06 0 -1.40186e+06 1.02624e+06 0 -1.40689e+06 1.04524e+06 0 -1.41205e+06 1.06433e+06 0 -1.41732e+06 1.08349e+06 0 -1.42272e+06 1.10273e+06 0 -1.42825e+06 1.12204e+06 0 -1.43391e+06 1.14142e+06 0 -1.43972e+06 1.16086e+06 0 -1.44569e+06 1.18038e+06 0 -1.45181e+06 1.19995e+06 0 -1.4581e+06 1.21958e+06 0 -1.46457e+06 1.23926e+06 0 -1.47122e+06 1.25899e+06 0 -1.47808e+06 1.27875e+06 0 -1.48514e+06 1.29854e+06 0 -1.49243e+06 1.31836e+06 0 -1.49996e+06 1.33819e+06 0 -1.50773e+06 1.35802e+06 0 -1.51577e+06 1.37784e+06 0 -1.5241e+06 1.39763e+06 0 -1.53272e+06 1.41738e+06 0 -1.54166e+06 1.43707e+06 0 -1.55094e+06 1.45669e+06 0 -1.56057e+06 1.47621e+06 0 -1.57057e+06 1.4956e+06 0 -1.58097e+06 1.51484e+06 0 -1.59179e+06 1.5339e+06 0 -1.60304e+06 1.55274e+06 0 -1.61474e+06 1.57133e+06 0 -1.62692e+06 1.58964e+06 0 -1.63959e+06 1.60761e+06 0 -1.65275e+06 1.62518e+06 0 -1.38503e+06 1.02722e+06 0 -1.39011e+06 1.0468e+06 0 -1.39531e+06 1.06648e+06 0 -1.40064e+06 1.08623e+06 0 -1.4061e+06 1.10608e+06 0 -1.4117e+06 1.126e+06 0 -1.41745e+06 1.14601e+06 0 -1.42335e+06 1.16609e+06 0 -1.42942e+06 1.18625e+06 0 -1.43566e+06 1.20648e+06 0 -1.44208e+06 1.22678e+06 0 -1.44869e+06 1.24714e+06 0 -1.4555e+06 1.26755e+06 0 -1.46254e+06 1.28802e+06 0 -1.4698e+06 1.30852e+06 0 -1.47731e+06 1.32907e+06 0 -1.48508e+06 1.34963e+06 0 -1.49313e+06 1.3702e+06 0 -1.50148e+06 1.39078e+06 0 -1.51014e+06 1.41134e+06 0 -1.51914e+06 1.43186e+06 0 -1.52849e+06 1.45234e+06 0 -1.53823e+06 1.47274e+06 0 -1.54836e+06 1.49305e+06 0 -1.55893e+06 1.51323e+06 0 -1.56994e+06 1.53326e+06 0 -1.58144e+06 1.5531e+06 0 -1.59343e+06 1.57271e+06 0 -1.60595e+06 1.59205e+06 0 -1.61901e+06 1.61108e+06 0 -1.63265e+06 1.62975e+06 0 -1.64688e+06 1.64799e+06 0 -1.36815e+06 1.02811e+06 0 -1.37326e+06 1.04828e+06 0 -1.3785e+06 1.06854e+06 0 -1.38388e+06 1.0889e+06 0 -1.3894e+06 1.10936e+06 0 -1.39507e+06 1.12991e+06 0 -1.40089e+06 1.15055e+06 0 -1.40687e+06 1.17127e+06 0 -1.41303e+06 1.19209e+06 0 -1.41937e+06 1.21299e+06 0 -1.42591e+06 1.23396e+06 0 -1.43266e+06 1.25501e+06 0 -1.43963e+06 1.27614e+06 0 -1.44683e+06 1.29732e+06 0 -1.45429e+06 1.31856e+06 0 -1.46202e+06 1.33985e+06 0 -1.47003e+06 1.36117e+06 0 -1.47835e+06 1.38252e+06 0 -1.487e+06 1.40388e+06 0 -1.496e+06 1.42524e+06 0 -1.50538e+06 1.44658e+06 0 -1.51516e+06 1.46788e+06 0 -1.52537e+06 1.48911e+06 0 -1.53603e+06 1.51025e+06 0 -1.54718e+06 1.53127e+06 0 -1.55884e+06 1.55213e+06 0 -1.57105e+06 1.5728e+06 0 -1.58384e+06 1.59324e+06 0 -1.59723e+06 1.61339e+06 0 -1.61125e+06 1.63319e+06 0 -1.62594e+06 1.6526e+06 0 -1.64131e+06 1.67154e+06 0 -1.35121e+06 1.02891e+06 0 -1.35636e+06 1.04967e+06 0 -1.36163e+06 1.07053e+06 0 -1.36705e+06 1.0915e+06 0 -1.37261e+06 1.11257e+06 0 -1.37833e+06 1.13374e+06 0 -1.38422e+06 1.15502e+06 0 -1.39028e+06 1.1764e+06 0 -1.39652e+06 1.19788e+06 0 -1.40296e+06 1.21946e+06 0 -1.40961e+06 1.24113e+06 0 -1.41648e+06 1.26289e+06 0 -1.4236e+06 1.28473e+06 0 -1.43096e+06 1.30666e+06 0 -1.4386e+06 1.32865e+06 0 -1.44654e+06 1.35071e+06 0 -1.45479e+06 1.37282e+06 0 -1.46338e+06 1.39497e+06 0 -1.47233e+06 1.41715e+06 0 -1.48167e+06 1.43934e+06 0 -1.49144e+06 1.46153e+06 0 -1.50165e+06 1.48369e+06 0 -1.51234e+06 1.5058e+06 0 -1.52355e+06 1.52782e+06 0 -1.5353e+06 1.54973e+06 0 -1.54765e+06 1.57149e+06 0 -1.56062e+06 1.59305e+06 0 -1.57425e+06 1.61437e+06 0 -1.58857e+06 1.63538e+06 0 -1.60364e+06 1.65603e+06 0 -1.61946e+06 1.67623e+06 0 -1.63608e+06 1.69592e+06 0 -1.33423e+06 1.02962e+06 0 -1.33939e+06 1.05097e+06 0 -1.34469e+06 1.07243e+06 0 -1.35014e+06 1.094e+06 0 -1.35574e+06 1.1157e+06 0 -1.36151e+06 1.13751e+06 0 -1.36745e+06 1.15944e+06 0 -1.37357e+06 1.18148e+06 0 -1.37988e+06 1.20363e+06 0 -1.38641e+06 1.2259e+06 0 -1.39316e+06 1.24827e+06 0 -1.40015e+06 1.27075e+06 0 -1.40739e+06 1.29334e+06 0 -1.41491e+06 1.31602e+06 0 -1.42273e+06 1.33879e+06 0 -1.43087e+06 1.36164e+06 0 -1.43935e+06 1.38456e+06 0 -1.4482e+06 1.40755e+06 0 -1.45745e+06 1.43058e+06 0 -1.46713e+06 1.45365e+06 0 -1.47728e+06 1.47673e+06 0 -1.48793e+06 1.4998e+06 0 -1.49912e+06 1.52283e+06 0 -1.51089e+06 1.54579e+06 0 -1.52328e+06 1.56866e+06 0 -1.53634e+06 1.59137e+06 0 -1.55011e+06 1.61389e+06 0 -1.56464e+06 1.63615e+06 0 -1.57997e+06 1.6581e+06 0 -1.59615e+06 1.67965e+06 0 -1.61321e+06 1.70072e+06 0 -1.6312e+06 1.72122e+06 0 -1.3172e+06 1.03023e+06 0 -1.32237e+06 1.05217e+06 0 -1.32769e+06 1.07424e+06 0 -1.33316e+06 1.09643e+06 0 -1.33879e+06 1.11875e+06 0 -1.34459e+06 1.1412e+06 0 -1.35057e+06 1.16378e+06 0 -1.35674e+06 1.18649e+06 0 -1.36312e+06 1.20933e+06 0 -1.36972e+06 1.23229e+06 0 -1.37656e+06 1.25539e+06 0 -1.38365e+06 1.2786e+06 0 -1.39102e+06 1.30194e+06 0 -1.39868e+06 1.3254e+06 0 -1.40666e+06 1.34896e+06 0 -1.41498e+06 1.37263e+06 0 -1.42368e+06 1.3964e+06 0 -1.43279e+06 1.42025e+06 0 -1.44233e+06 1.44418e+06 0 -1.45235e+06 1.46816e+06 0 -1.46289e+06 1.49217e+06 0 -1.47398e+06 1.5162e+06 0 -1.48567e+06 1.54022e+06 0 -1.49802e+06 1.56418e+06 0 -1.51107e+06 1.58806e+06 0 -1.52487e+06 1.6118e+06 0 -1.53949e+06 1.63535e+06 0 -1.55498e+06 1.65864e+06 0 -1.57139e+06 1.6816e+06 0 -1.58878e+06 1.70414e+06 0 -1.60719e+06 1.72615e+06 0 -1.62669e+06 1.74753e+06 0 -1.30013e+06 1.03075e+06 0 -1.3053e+06 1.05328e+06 0 -1.31062e+06 1.07595e+06 0 -1.3161e+06 1.09876e+06 0 -1.32175e+06 1.12171e+06 0 -1.32757e+06 1.14481e+06 0 -1.33359e+06 1.16805e+06 0 -1.3398e+06 1.19143e+06 0 -1.34623e+06 1.21496e+06 0 -1.35289e+06 1.23864e+06 0 -1.3598e+06 1.26246e+06 0 -1.36698e+06 1.28643e+06 0 -1.37446e+06 1.31054e+06 0 -1.38225e+06 1.33479e+06 0 -1.39038e+06 1.35918e+06 0 -1.39888e+06 1.38369e+06 0 -1.40779e+06 1.40833e+06 0 -1.41714e+06 1.43308e+06 0 -1.42696e+06 1.45793e+06 0 -1.43731e+06 1.48287e+06 0 -1.44823e+06 1.50787e+06 0 -1.45976e+06 1.53292e+06 0 -1.47197e+06 1.55797e+06 0 -1.48491e+06 1.58301e+06 0 -1.49864e+06 1.60797e+06 0 -1.51323e+06 1.63282e+06 0 -1.52874e+06 1.65749e+06 0 -1.54525e+06 1.6819e+06 0 -1.56282e+06 1.70596e+06 0 -1.58152e+06 1.72958e+06 0 -1.60141e+06 1.75262e+06 0 -1.62255e+06 1.77496e+06 0 -1.28301e+06 1.03117e+06 0 -1.28817e+06 1.0543e+06 0 -1.29349e+06 1.07757e+06 0 -1.29898e+06 1.101e+06 0 -1.30463e+06 1.12459e+06 0 -1.31047e+06 1.14833e+06 0 -1.3165e+06 1.17223e+06 0 -1.32274e+06 1.1963e+06 0 -1.32921e+06 1.22053e+06 0 -1.33592e+06 1.24493e+06 0 -1.34289e+06 1.26949e+06 0 -1.35015e+06 1.29422e+06 0 -1.35771e+06 1.31912e+06 0 -1.36561e+06 1.34419e+06 0 -1.37388e+06 1.36941e+06 0 -1.38254e+06 1.3948e+06 0 -1.39165e+06 1.42034e+06 0 -1.40122e+06 1.44603e+06 0 -1.41132e+06 1.47185e+06 0 -1.42199e+06 1.49779e+06 0 -1.43328e+06 1.52383e+06 0 -1.44526e+06 1.54995e+06 0 -1.45799e+06 1.57611e+06 0 -1.47153e+06 1.60229e+06 0 -1.48596e+06 1.62843e+06 0 -1.50136e+06 1.65447e+06 0 -1.51782e+06 1.68035e+06 0 -1.53541e+06 1.70598e+06 0 -1.55423e+06 1.73126e+06 0 -1.57435e+06 1.75605e+06 0 -1.59586e+06 1.78023e+06 0 -1.61882e+06 1.80362e+06 0 -1.26585e+06 1.03149e+06 0 -1.271e+06 1.05521e+06 0 -1.27631e+06 1.07909e+06 0 -1.28178e+06 1.10315e+06 0 -1.28743e+06 1.12737e+06 0 -1.29327e+06 1.15176e+06 0 -1.29931e+06 1.17634e+06 0 -1.30556e+06 1.20109e+06 0 -1.31205e+06 1.22603e+06 0 -1.3188e+06 1.25116e+06 0 -1.32581e+06 1.27647e+06 0 -1.33313e+06 1.30198e+06 0 -1.34077e+06 1.32768e+06 0 -1.34877e+06 1.35358e+06 0 -1.35715e+06 1.37967e+06 0 -1.36596e+06 1.40596e+06 0 -1.37524e+06 1.43243e+06 0 -1.38503e+06 1.45909e+06 0 -1.39538e+06 1.48592e+06 0 -1.40636e+06 1.51291e+06 0 -1.41802e+06 1.54004e+06 0 -1.43043e+06 1.5673e+06 0 -1.44368e+06 1.59465e+06 0 -1.45783e+06 1.62205e+06 0 -1.47299e+06 1.64945e+06 0 -1.48923e+06 1.67679e+06 0 -1.50668e+06 1.70399e+06 0 -1.52543e+06 1.73096e+06 0 -1.54558e+06 1.75757e+06 0 -1.56725e+06 1.78368e+06 0 -1.59053e+06 1.80911e+06 0 -1.61552e+06 1.83366e+06 0 -1.24865e+06 1.0317e+06 0 -1.25377e+06 1.05602e+06 0 -1.25906e+06 1.08052e+06 0 -1.26452e+06 1.10519e+06 0 -1.27015e+06 1.13005e+06 0 -1.27598e+06 1.1551e+06 0 -1.28201e+06 1.18035e+06 0 -1.28827e+06 1.2058e+06 0 -1.29477e+06 1.23145e+06 0 -1.30153e+06 1.25731e+06 0 -1.30858e+06 1.28339e+06 0 -1.31593e+06 1.30969e+06 0 -1.32363e+06 1.33621e+06 0 -1.3317e+06 1.36296e+06 0 -1.34018e+06 1.38994e+06 0 -1.34912e+06 1.41715e+06 0 -1.35855e+06 1.44458e+06 0 -1.36853e+06 1.47225e+06 0 -1.37912e+06 1.50013e+06 0 -1.39039e+06 1.52823e+06 0 -1.4024e+06 1.55652e+06 0 -1.41524e+06 1.58498e+06 0 -1.429e+06 1.61359e+06 0 -1.44377e+06 1.6423e+06 0 -1.45966e+06 1.67107e+06 0 -1.47679e+06 1.69983e+06 0 -1.49528e+06 1.72848e+06 0 -1.51525e+06 1.75692e+06 0 -1.53685e+06 1.785e+06 0 -1.5602e+06 1.81257e+06 0 -1.58544e+06 1.83939e+06 0 -1.61268e+06 1.86524e+06 0 -1.23141e+06 1.03181e+06 0 -1.23651e+06 1.05673e+06 0 -1.24176e+06 1.08183e+06 0 -1.24719e+06 1.10713e+06 0 -1.2528e+06 1.13264e+06 0 -1.2586e+06 1.15834e+06 0 -1.26462e+06 1.18427e+06 0 -1.27086e+06 1.21041e+06 0 -1.27735e+06 1.23678e+06 0 -1.28411e+06 1.26339e+06 0 -1.29117e+06 1.29024e+06 0 -1.29855e+06 1.31734e+06 0 -1.30629e+06 1.3447e+06 0 -1.31441e+06 1.37231e+06 0 -1.32297e+06 1.4002e+06 0 -1.332e+06 1.42836e+06 0 -1.34157e+06 1.45679e+06 0 -1.35172e+06 1.4855e+06 0 -1.36252e+06 1.51449e+06 0 -1.37406e+06 1.54374e+06 0 -1.3864e+06 1.57324e+06 0 -1.39965e+06 1.60299e+06 0 -1.41391e+06 1.63295e+06 0 -1.4293e+06 1.66308e+06 0 -1.44594e+06 1.69332e+06 0 -1.46397e+06 1.72362e+06 0 -1.48354e+06 1.75386e+06 0 -1.50482e+06 1.78393e+06 0 -1.52798e+06 1.81366e+06 0 -1.55317e+06 1.84285e+06 0 -1.58056e+06 1.87125e+06 0 -1.61031e+06 1.89855e+06 0 -1.21415e+06 1.03182e+06 0 -1.2192e+06 1.05733e+06 0 -1.22441e+06 1.08305e+06 0 -1.2298e+06 1.10897e+06 0 -1.23537e+06 1.13511e+06 0 -1.24114e+06 1.16148e+06 0 -1.24712e+06 1.18808e+06 0 -1.25334e+06 1.21493e+06 0 -1.25981e+06 1.24202e+06 0 -1.26655e+06 1.26938e+06 0 -1.2736e+06 1.29701e+06 0 -1.28098e+06 1.32493e+06 0 -1.28873e+06 1.35313e+06 0 -1.29689e+06 1.38163e+06 0 -1.30549e+06 1.41045e+06 0 -1.3146e+06 1.43958e+06 0 -1.32427e+06 1.46904e+06 0 -1.33456e+06 1.49884e+06 0 -1.34555e+06 1.52897e+06 0 -1.35733e+06 1.55943e+06 0 -1.36998e+06 1.59022e+06 0 -1.38362e+06 1.62133e+06 0 -1.39837e+06 1.65273e+06 0 -1.41436e+06 1.68438e+06 0 -1.43175e+06 1.71624e+06 0 -1.45071e+06 1.74822e+06 0 -1.47142e+06 1.78022e+06 0 -1.49408e+06 1.8121e+06 0 -1.51891e+06 1.84367e+06 0 -1.54612e+06 1.8747e+06 0 -1.5759e+06 1.90487e+06 0 -1.60848e+06 1.9338e+06 0 -1.19685e+06 1.03172e+06 0 -1.20185e+06 1.05783e+06 0 -1.20701e+06 1.08415e+06 0 -1.21235e+06 1.1107e+06 0 -1.21787e+06 1.13748e+06 0 -1.22359e+06 1.16451e+06 0 -1.22953e+06 1.19179e+06 0 -1.2357e+06 1.21934e+06 0 -1.24213e+06 1.24717e+06 0 -1.24884e+06 1.27528e+06 0 -1.25586e+06 1.3037e+06 0 -1.26322e+06 1.33243e+06 0 -1.27096e+06 1.36149e+06 0 -1.27912e+06 1.3909e+06 0 -1.28775e+06 1.42067e+06 0 -1.2969e+06 1.4508e+06 0 -1.30664e+06 1.48132e+06 0 -1.31704e+06 1.51224e+06 0 -1.32818e+06 1.54356e+06 0 -1.34016e+06 1.5753e+06 0 -1.35309e+06 1.60745e+06 0 -1.36709e+06 1.64e+06 0 -1.3823e+06 1.67294e+06 0 -1.39888e+06 1.70624e+06 0 -1.41703e+06 1.73984e+06 0 -1.43693e+06 1.77367e+06 0 -1.45882e+06 1.80762e+06 0 -1.48295e+06 1.84152e+06 0 -1.50958e+06 1.87517e+06 0 -1.53899e+06 1.90828e+06 0 -1.57144e+06 1.94047e+06 0 -1.6072e+06 1.97127e+06 0 -1.17953e+06 1.03151e+06 0 -1.18447e+06 1.05821e+06 0 -1.18957e+06 1.08514e+06 0 -1.19485e+06 1.11232e+06 0 -1.20031e+06 1.13974e+06 0 -1.20597e+06 1.16743e+06 0 -1.21184e+06 1.19539e+06 0 -1.21796e+06 1.22364e+06 0 -1.22433e+06 1.2522e+06 0 -1.23099e+06 1.28107e+06 0 -1.23796e+06 1.31029e+06 0 -1.24527e+06 1.33985e+06 0 -1.25298e+06 1.36978e+06 0 -1.26111e+06 1.40011e+06 0 -1.26973e+06 1.43084e+06 0 -1.2789e+06 1.462e+06 0 -1.28867e+06 1.49361e+06 0 -1.29914e+06 1.52569e+06 0 -1.3104e+06 1.55826e+06 0 -1.32254e+06 1.59132e+06 0 -1.3357e+06 1.6249e+06 0 -1.35002e+06 1.65899e+06 0 -1.36566e+06 1.69358e+06 0 -1.38281e+06 1.72866e+06 0 -1.40168e+06 1.76417e+06 0 -1.42254e+06 1.80003e+06 0 -1.44565e+06 1.83615e+06 0 -1.47132e+06 1.87233e+06 0 -1.49989e+06 1.90833e+06 0 -1.53173e+06 1.94381e+06 0 -1.56716e+06 1.97832e+06 0 -1.60655e+06 2.01126e+06 0 -1.16218e+06 1.0312e+06 0 -1.16705e+06 1.05849e+06 0 -1.17209e+06 1.08602e+06 0 -1.17729e+06 1.11382e+06 0 -1.18268e+06 1.14188e+06 0 -1.18827e+06 1.17023e+06 0 -1.19407e+06 1.19887e+06 0 -1.20011e+06 1.22783e+06 0 -1.2064e+06 1.25712e+06 0 -1.21299e+06 1.28676e+06 0 -1.21988e+06 1.31677e+06 0 -1.22713e+06 1.34717e+06 0 -1.23478e+06 1.37798e+06 0 -1.24286e+06 1.40924e+06 0 -1.25144e+06 1.44096e+06 0 -1.26057e+06 1.47317e+06 0 -1.27035e+06 1.5059e+06 0 -1.28084e+06 1.53918e+06 0 -1.29216e+06 1.57303e+06 0 -1.30442e+06 1.60749e+06 0 -1.31776e+06 1.64257e+06 0 -1.33235e+06 1.67829e+06 0 -1.34837e+06 1.71465e+06 0 -1.36604e+06 1.75165e+06 0 -1.38563e+06 1.78924e+06 0 -1.40743e+06 1.82736e+06 0 -1.43179e+06 1.86588e+06 0 -1.45908e+06 1.90463e+06 0 -1.48975e+06 1.94331e+06 0 -1.52424e+06 1.98154e+06 0 -1.56303e+06 2.01873e+06 0 -1.60656e+06 2.05415e+06 0 -1.14481e+06 1.03077e+06 0 -1.14961e+06 1.05865e+06 0 -1.15456e+06 1.08679e+06 0 -1.15969e+06 1.1152e+06 0 -1.16499e+06 1.1439e+06 0 -1.17049e+06 1.17291e+06 0 -1.17621e+06 1.20223e+06 0 -1.18215e+06 1.23189e+06 0 -1.18836e+06 1.26191e+06 0 -1.19484e+06 1.29232e+06 0 -1.20165e+06 1.32313e+06 0 -1.2088e+06 1.35437e+06 0 -1.21635e+06 1.38608e+06 0 -1.22435e+06 1.41827e+06 0 -1.23285e+06 1.45099e+06 0 -1.24192e+06 1.48428e+06 0 -1.25164e+06 1.51815e+06 0 -1.26211e+06 1.55267e+06 0 -1.27344e+06 1.58786e+06 0 -1.28576e+06 1.62377e+06 0 -1.29923e+06 1.66044e+06 0 -1.31402e+06 1.69789e+06 0 -1.33036e+06 1.73614e+06 0 -1.34851e+06 1.77522e+06 0 -1.36876e+06 1.81508e+06 0 -1.39149e+06 1.85569e+06 0 -1.41711e+06 1.89692e+06 0 -1.44609e+06 1.93858e+06 0 -1.479e+06 1.98035e+06 0 -1.51644e+06 2.02175e+06 0 -1.559e+06 2.06209e+06 0 -1.60733e+06 2.10042e+06 0 -1.12743e+06 1.03024e+06 0 -1.13214e+06 1.05871e+06 0 -1.13701e+06 1.08745e+06 0 -1.14204e+06 1.11647e+06 0 -1.14725e+06 1.14581e+06 0 -1.15265e+06 1.17546e+06 0 -1.15826e+06 1.20546e+06 0 -1.1641e+06 1.23583e+06 0 -1.17019e+06 1.26658e+06 0 -1.17656e+06 1.29775e+06 0 -1.18325e+06 1.32936e+06 0 -1.19028e+06 1.36145e+06 0 -1.19771e+06 1.39405e+06 0 -1.20558e+06 1.4272e+06 0 -1.21396e+06 1.46094e+06 0 -1.22292e+06 1.49531e+06 0 -1.23255e+06 1.53036e+06 0 -1.24294e+06 1.56615e+06 0 -1.25422e+06 1.60272e+06 0 -1.26653e+06 1.64015e+06 0 -1.28005e+06 1.67847e+06 0 -1.29497e+06 1.71776e+06 0 -1.31156e+06 1.75804e+06 0 -1.3301e+06 1.79936e+06 0 -1.35095e+06 1.84172e+06 0 -1.37456e+06 1.88509e+06 0 -1.40143e+06 1.92936e+06 0 -1.43218e+06 1.97433e+06 0 -1.46749e+06 2.01966e+06 0 -1.50816e+06 2.06479e+06 0 -1.55502e+06 2.10885e+06 0 -1.60892e+06 2.15065e+06 0 -1.11004e+06 1.02961e+06 0 -1.11466e+06 1.05865e+06 0 -1.11943e+06 1.08798e+06 0 -1.12436e+06 1.11762e+06 0 -1.12946e+06 1.14758e+06 0 -1.13475e+06 1.17789e+06 0 -1.14024e+06 1.20856e+06 0 -1.14595e+06 1.23963e+06 0 -1.15191e+06 1.27111e+06 0 -1.15815e+06 1.30304e+06 0 -1.16469e+06 1.33546e+06 0 -1.17157e+06 1.3684e+06 0 -1.17885e+06 1.40189e+06 0 -1.18656e+06 1.436e+06 0 -1.19478e+06 1.47076e+06 0 -1.20359e+06 1.50624e+06 0 -1.21306e+06 1.54249e+06 0 -1.22331e+06 1.57958e+06 0 -1.23447e+06 1.61758e+06 0 -1.2467e+06 1.65658e+06 0 -1.26017e+06 1.69665e+06 0 -1.27514e+06 1.73787e+06 0 -1.29186e+06 1.78032e+06 0 -1.3107e+06 1.82407e+06 0 -1.33207e+06 1.86916e+06 0 -1.35648e+06 1.91559e+06 0 -1.38458e+06 1.96329e+06 0 -1.41711e+06 2.01206e+06 0 -1.45498e+06 2.06154e+06 0 -1.49923e+06 2.11108e+06 0 -1.55099e+06 2.1596e+06 0 -1.61145e+06 2.20557e+06 0 -1.09263e+06 1.02886e+06 0 -1.09715e+06 1.05848e+06 0 -1.10182e+06 1.0884e+06 0 -1.10664e+06 1.11865e+06 0 -1.11162e+06 1.14924e+06 0 -1.11679e+06 1.18019e+06 0 -1.12215e+06 1.21153e+06 0 -1.12772e+06 1.24329e+06 0 -1.13353e+06 1.2755e+06 0 -1.1396e+06 1.30819e+06 0 -1.14597e+06 1.34141e+06 0 -1.15268e+06 1.37519e+06 0 -1.15977e+06 1.40959e+06 0 -1.16728e+06 1.44465e+06 0 -1.1753e+06 1.48045e+06 0 -1.18389e+06 1.51704e+06 0 -1.19316e+06 1.55451e+06 0 -1.2032e+06 1.59293e+06 0 -1.21416e+06 1.63241e+06 0 -1.22621e+06 1.67303e+06 0 -1.23956e+06 1.71492e+06 0 -1.25444e+06 1.75819e+06 0 -1.27119e+06 1.80295e+06 0 -1.2902e+06 1.84932e+06 0 -1.31195e+06 1.8974e+06 0 -1.33706e+06 1.94723e+06 0 -1.3663e+06 1.99881e+06 0 -1.40062e+06 2.05196e+06 0 -1.44119e+06 2.10631e+06 0 -1.4894e+06 2.16111e+06 0 -1.54678e+06 2.21506e+06 0 -1.61504e+06 2.26611e+06 0 -1.07522e+06 1.028e+06 0 -1.07964e+06 1.0582e+06 0 -1.08419e+06 1.08871e+06 0 -1.08889e+06 1.11955e+06 0 -1.09375e+06 1.15076e+06 0 -1.09877e+06 1.18235e+06 0 -1.10399e+06 1.21436e+06 0 -1.1094e+06 1.24681e+06 0 -1.11504e+06 1.27973e+06 0 -1.12094e+06 1.31318e+06 0 -1.12711e+06 1.3472e+06 0 -1.13361e+06 1.38182e+06 0 -1.14047e+06 1.41712e+06 0 -1.14775e+06 1.45315e+06 0 -1.15552e+06 1.48998e+06 0 -1.16385e+06 1.5277e+06 0 -1.17283e+06 1.5664e+06 0 -1.18259e+06 1.60618e+06 0 -1.19327e+06 1.64716e+06 0 -1.20505e+06 1.68947e+06 0 -1.21814e+06 1.73325e+06 0 -1.23282e+06 1.77866e+06 0 -1.24944e+06 1.82588e+06 0 -1.26845e+06 1.87508e+06 0 -1.29041e+06 1.92643e+06 0 -1.31605e+06 1.98005e+06 0 -1.34631e+06 2.03601e+06 0 -1.38236e+06 2.09423e+06 0 -1.42574e+06 2.15433e+06 0 -1.4783e+06 2.2155e+06 0 -1.54218e+06 2.27612e+06 0 -1.61985e+06 2.3335e+06 0 -1.05781e+06 1.02704e+06 0 -1.06211e+06 1.0578e+06 0 -1.06655e+06 1.08889e+06 0 -1.07112e+06 1.12034e+06 0 -1.07583e+06 1.15216e+06 0 -1.08071e+06 1.18438e+06 0 -1.08576e+06 1.21704e+06 0 -1.09101e+06 1.25017e+06 0 -1.09646e+06 1.28382e+06 0 -1.10215e+06 1.31801e+06 0 -1.10811e+06 1.35281e+06 0 -1.11436e+06 1.38828e+06 0 -1.12097e+06 1.42447e+06 0 -1.12797e+06 1.46146e+06 0 -1.13544e+06 1.49933e+06 0 -1.14344e+06 1.53818e+06 0 -1.15208e+06 1.57812e+06 0 -1.16148e+06 1.61928e+06 0 -1.17178e+06 1.66179e+06 0 -1.18316e+06 1.70582e+06 0 -1.19587e+06 1.75157e+06 0 -1.21019e+06 1.79924e+06 0 -1.22651e+06 1.84906e+06 0 -1.24532e+06 1.90129e+06 0 -1.26726e+06 1.9562e+06 0 -1.2932e+06 2.01404e+06 0 -1.32425e+06 2.07498e+06 0 -1.36191e+06 2.13908e+06 0 -1.40813e+06 2.20604e+06 0 -1.46546e+06 2.27499e+06 0 -1.53689e+06 2.34396e+06 0 -1.62607e+06 2.40939e+06 0 -1.0404e+06 1.02598e+06 0 -1.04458e+06 1.0573e+06 0 -1.04889e+06 1.08896e+06 0 -1.05332e+06 1.121e+06 0 -1.05789e+06 1.15342e+06 0 -1.06261e+06 1.18627e+06 0 -1.06749e+06 1.21958e+06 0 -1.07254e+06 1.25339e+06 0 -1.07779e+06 1.28773e+06 0 -1.08325e+06 1.32267e+06 0 -1.08896e+06 1.35825e+06 0 -1.09495e+06 1.39455e+06 0 -1.10126e+06 1.43162e+06 0 -1.10794e+06 1.46957e+06 0 -1.11506e+06 1.50847e+06 0 -1.12268e+06 1.54845e+06 0 -1.1309e+06 1.58964e+06 0 -1.13985e+06 1.63218e+06 0 -1.14966e+06 1.67625e+06 0 -1.16053e+06 1.72205e+06 0 -1.1727e+06 1.76982e+06 0 -1.18647e+06 1.81983e+06 0 -1.20227e+06 1.8724e+06 0 -1.22062e+06 1.92788e+06 0 -1.24227e+06 1.98667e+06 0 -1.26818e+06 2.04918e+06 0 -1.29972e+06 2.11578e+06 0 -1.33872e+06 2.18672e+06 0 -1.38772e+06 2.26191e+06 0 -1.45018e+06 2.34051e+06 0 -1.53041e+06 2.42013e+06 0 -1.63394e+06 2.49602e+06 0 -1.02299e+06 1.02481e+06 0 -1.02705e+06 1.05668e+06 0 -1.03122e+06 1.08892e+06 0 -1.03551e+06 1.12153e+06 0 -1.03993e+06 1.15455e+06 0 -1.04447e+06 1.18802e+06 0 -1.04916e+06 1.22197e+06 0 -1.05401e+06 1.25644e+06 0 -1.05903e+06 1.29149e+06 0 -1.06425e+06 1.32715e+06 0 -1.06969e+06 1.36351e+06 0 -1.07538e+06 1.40062e+06 0 -1.08136e+06 1.43857e+06 0 -1.08768e+06 1.47745e+06 0 -1.09439e+06 1.51739e+06 0 -1.10156e+06 1.55849e+06 0 -1.10929e+06 1.60092e+06 0 -1.11769e+06 1.64485e+06 0 -1.1269e+06 1.69049e+06 0 -1.13712e+06 1.73808e+06 0 -1.14858e+06 1.78792e+06 0 -1.1616e+06 1.84036e+06 0 -1.17662e+06 1.8958e+06 0 -1.19421e+06 1.95474e+06 0 -1.21518e+06 2.01773e+06 0 -1.24064e+06 2.0854e+06 0 -1.27218e+06 2.15841e+06 0 -1.31209e+06 2.23736e+06 0 -1.3636e+06 2.32249e+06 0 -1.43149e+06 2.41319e+06 0 -1.52197e+06 2.5067e+06 0 -1.64378e+06 2.59658e+06 0 -1.00559e+06 1.02353e+06 0 -1.00952e+06 1.05596e+06 0 -1.01356e+06 1.08875e+06 0 -1.01769e+06 1.12194e+06 0 -1.02194e+06 1.15556e+06 0 -1.02631e+06 1.18963e+06 0 -1.0308e+06 1.22421e+06 0 -1.03543e+06 1.25934e+06 0 -1.04021e+06 1.29506e+06 0 -1.04516e+06 1.33145e+06 0 -1.0503e+06 1.36856e+06 0 -1.05566e+06 1.40647e+06 0 -1.06128e+06 1.44529e+06 0 -1.06718e+06 1.4851e+06 0 -1.07343e+06 1.52604e+06 0 -1.08009e+06 1.56826e+06 0 -1.08725e+06 1.61192e+06 0 -1.095e+06 1.65723e+06 0 -1.1035e+06 1.70444e+06 0 -1.1129e+06 1.75384e+06 0 -1.12346e+06 1.80579e+06 0 -1.1355e+06 1.86071e+06 0 -1.14944e+06 1.91915e+06 0 -1.16589e+06 1.98172e+06 0 -1.18572e+06 2.04923e+06 0 -1.21016e+06 2.12258e+06 0 -1.24104e+06 2.20284e+06 0 -1.28113e+06 2.29114e+06 0 -1.33456e+06 2.38834e+06 0 -1.40791e+06 2.49445e+06 0 -1.5103e+06 2.60641e+06 0 -1.65594e+06 2.71569e+06 0 -988207 1.02216e+06 0 -992005 1.05513e+06 0 -995891 1.08847e+06 0 -999869 1.12223e+06 0 -1.00394e+06 1.15643e+06 0 -1.00812e+06 1.1911e+06 0 -1.0124e+06 1.2263e+06 0 -1.01679e+06 1.26207e+06 0 -1.02132e+06 1.29846e+06 0 -1.02598e+06 1.33555e+06 0 -1.0308e+06 1.3734e+06 0 -1.0358e+06 1.41211e+06 0 -1.04101e+06 1.45176e+06 0 -1.04647e+06 1.49249e+06 0 -1.05221e+06 1.53442e+06 0 -1.05829e+06 1.57773e+06 0 -1.06479e+06 1.6226e+06 0 -1.07179e+06 1.66928e+06 0 -1.07943e+06 1.71805e+06 0 -1.08787e+06 1.76925e+06 0 -1.09732e+06 1.82331e+06 0 -1.1081e+06 1.88077e+06 0 -1.12062e+06 1.94227e+06 0 -1.13549e+06 2.00866e+06 0 -1.15359e+06 2.08096e+06 0 -1.17627e+06 2.16051e+06 0 -1.20554e+06 2.2489e+06 0 -1.24471e+06 2.34811e+06 0 -1.29891e+06 2.46004e+06 0 -1.37726e+06 2.58607e+06 0 -1.49311e+06 2.72356e+06 0 -1.67088e+06 2.86101e+06 0 -970836 1.02068e+06 0 -974495 1.05419e+06 0 -978231 1.08808e+06 0 -982044 1.12239e+06 0 -985937 1.15716e+06 0 -989911 1.19243e+06 0 -993971 1.22823e+06 0 -998122 1.26463e+06 0 -1.00237e+06 1.30168e+06 0 -1.00673e+06 1.33946e+06 0 -1.01121e+06 1.37804e+06 0 -1.01582e+06 1.41751e+06 0 -1.02059e+06 1.45799e+06 0 -1.02555e+06 1.4996e+06 0 -1.03072e+06 1.5425e+06 0 -1.03616e+06 1.58687e+06 0 -1.04191e+06 1.63293e+06 0 -1.04806e+06 1.68094e+06 0 -1.05472e+06 1.73124e+06 0 -1.06201e+06 1.78422e+06 0 -1.07013e+06 1.84039e+06 0 -1.07935e+06 1.90038e+06 0 -1.09005e+06 1.965e+06 0 -1.10281e+06 2.0353e+06 0 -1.11849e+06 2.11265e+06 0 -1.13845e+06 2.19886e+06 0 -1.16481e+06 2.29629e+06 0 -1.20142e+06 2.40814e+06 0 -1.2543e+06 2.53804e+06 0 -1.33618e+06 2.69014e+06 0 -1.46645e+06 2.86279e+06 0 -1.68912e+06 3.04244e+06 0 -953483 1.01911e+06 0 -957000 1.05314e+06 0 -960581 1.08757e+06 0 -964224 1.12244e+06 0 -967929 1.15777e+06 0 -971696 1.19361e+06 0 -975524 1.23001e+06 0 -979418 1.26703e+06 0 -983378 1.30472e+06 0 -987411 1.34316e+06 0 -991522 1.38245e+06 0 -995721 1.42267e+06 0 -1.00002e+06 1.46394e+06 0 -1.00444e+06 1.50641e+06 0 -1.00899e+06 1.55025e+06 0 -1.01371e+06 1.59564e+06 0 -1.01864e+06 1.64285e+06 0 -1.02383e+06 1.69216e+06 0 -1.02936e+06 1.74394e+06 0 -1.03532e+06 1.79866e+06 0 -1.04187e+06 1.85689e+06 0 -1.04921e+06 1.91938e+06 0 -1.05766e+06 1.98711e+06 0 -1.06772e+06 2.06137e+06 0 -1.08012e+06 2.14391e+06 0 -1.09616e+06 2.23716e+06 0 -1.11788e+06 2.34445e+06 0 -1.14949e+06 2.47075e+06 0 -1.19748e+06 2.62242e+06 0 -1.27959e+06 2.80887e+06 0 -1.4216e+06 3.03542e+06 0 -1.71008e+06 3.28938e+06 0 -936151 1.01744e+06 0 -939523 1.05199e+06 0 -942945 1.08696e+06 0 -946414 1.12236e+06 0 -949925 1.15825e+06 0 -953477 1.19465e+06 0 -957066 1.23164e+06 0 -960690 1.26925e+06 0 -964349 1.30757e+06 0 -968040 1.34666e+06 0 -971764 1.38663e+06 0 -975523 1.42757e+06 0 -979317 1.46961e+06 0 -983153 1.51291e+06 0 -987037 1.55764e+06 0 -990980 1.60403e+06 0 -994999 1.65233e+06 0 -999118 1.70288e+06 0 -1.00337e+06 1.75608e+06 0 -1.00782e+06 1.81246e+06 0 -1.01254e+06 1.87267e+06 0 -1.01767e+06 1.93759e+06 0 -1.02339e+06 2.00835e+06 0 -1.03006e+06 2.08652e+06 0 -1.03819e+06 2.17427e+06 0 -1.04886e+06 2.27475e+06 0 -1.06363e+06 2.39251e+06 0 -1.08683e+06 2.53498e+06 0 -1.12403e+06 2.71238e+06 0 -1.19882e+06 2.94534e+06 0 -1.34365e+06 3.24635e+06 0 -1.73609e+06 3.61065e+06 0 -918843 1.01568e+06 0 -922068 1.05075e+06 0 -925328 1.08623e+06 0 -928618 1.12217e+06 0 -931930 1.15859e+06 0 -935261 1.19556e+06 0 -938602 1.23311e+06 0 -941949 1.27131e+06 0 -945293 1.31023e+06 0 -948628 1.34995e+06 0 -951946 1.39058e+06 0 -955239 1.43221e+06 0 -958498 1.47499e+06 0 -961716 1.51908e+06 0 -964880 1.56467e+06 0 -967981 1.61198e+06 0 -971009 1.66132e+06 0 -973950 1.71304e+06 0 -976797 1.76758e+06 0 -979539 1.82552e+06 0 -982177 1.8876e+06 0 -984722 1.95479e+06 0 -987211 2.02842e+06 0 -989746 2.11032e+06 0 -992505 2.20311e+06 0 -996064 2.31072e+06 0 -1.00099e+06 2.43911e+06 0 -1.01113e+06 2.59876e+06 0 -1.02772e+06 2.80611e+06 0 -1.08273e+06 3.09674e+06 0 -1.19077e+06 3.53007e+06 0 -1.71528e+06 4.23299e+06 0 -901561 1.01382e+06 0 -904637 1.0494e+06 0 -907733 1.0854e+06 0 -910840 1.12186e+06 0 -913951 1.15882e+06 0 -917055 1.19632e+06 0 -920142 1.23442e+06 0 -923201 1.27319e+06 0 -926220 1.3127e+06 0 -929185 1.35303e+06 0 -932079 1.39429e+06 0 -934886 1.43659e+06 0 -937583 1.48007e+06 0 -940146 1.5249e+06 0 -942545 1.57129e+06 0 -944745 1.61949e+06 0 -946703 1.6698e+06 0 -948366 1.7226e+06 0 -949666 1.77837e+06 0 -950518 1.83774e+06 0 -950817 1.90152e+06 0 -950421 1.97079e+06 0 -949153 2.04702e+06 0 -946767 2.13231e+06 0 -942968 2.2297e+06 0 -937325 2.34394e+06 0 -929395 2.48228e+06 0 -918735 2.65951e+06 0 -905920 2.89611e+06 0 -899895 3.26631e+06 0 -912397 3.87396e+06 0 -1.46843e+06 5.085e+06 0 -884309 1.01188e+06 0 -887234 1.04796e+06 0 -890164 1.08447e+06 0 -893087 1.12144e+06 0 -895991 1.15891e+06 0 -898864 1.19694e+06 0 -901692 1.23559e+06 0 -904457 1.27491e+06 0 -907141 1.31498e+06 0 -909724 1.3559e+06 0 -912180 1.39776e+06 0 -914480 1.44069e+06 0 -916589 1.48484e+06 0 -918466 1.53037e+06 0 -920059 1.57751e+06 0 -921304 1.62652e+06 0 -922121 1.67771e+06 0 -922408 1.73149e+06 0 -922033 1.78837e+06 0 -920820 1.84901e+06 0 -918533 1.91427e+06 0 -914849 1.98533e+06 0 -909296 2.06379e+06 0 -901241 2.15194e+06 0 -889529 2.25316e+06 0 -872853 2.37282e+06 0 -847887 2.51949e+06 0 -808133 2.71076e+06 0 -758662 2.97354e+06 0 -586296 3.4259e+06 0 -614597 4.15259e+06 0 2.45759e+06 9.90781e+06 0 </DataArray> 
</PointData> 
<Points> 
<DataArray type="Float32" NumberOfComponents="3"> 