<?xml version="1.0"?> 
<VTKFile type="StructuredGrid" version="0.1"> 
<StructuredGrid WholeExtent="0 31 0 31 0 0"> 
<Piece Extent="0 31 0 31 0 0"> 
<PointData>
<DataArray type="Float32" Name="|E|" format="ascii" NumberOfComponents="3"> 
1.02454e+06 -426045 0 1.36513e+06 -311909 0 1.47926e+06 -290988 0 1.58427e+06 -251371 0 1.6576e+06 -210127 0 1.71692e+06 -167500 0 1.75976e+06 -125261 0 1.78907e+06 -84659.8 0 1.80543e+06 -46574.8 0 1.81028e+06 -11758.9 0 1.80491e+06 19346.2 0 1.79074e+06 46504.5 0 1.76912e+06 69700.6 0 1.74139e+06 89074.1 0 1.70874e+06 104881 0 1.67223e+06 117446 0 1.63282e+06 127126 0 1.59129e+06 134285 0 1.54833e+06 139274 0 1.50451e+06 142419 0 1.46029e+06 144014 0 1.41607e+06 144322 0 1.37215e+06 143568 0 1.32879e+06 141951 0 1.28619e+06 139638 0 1.2445e+06 136769 0 1.20386e+06 133463 0 1.16436e+06 129820 0 1.12607e+06 125922 0 1.08903e+06 121836 0 1.05328e+06 117620 0 1.01886e+06 113312 0 1.07549e+06 -447235 0 1.37013e+06 -332785 0 1.49e+06 -301490 0 1.59205e+06 -259146 0 1.66544e+06 -215631 0 1.72379e+06 -171235 0 1.76595e+06 -127459 0 1.79441e+06 -85485.2 0 1.80994e+06 -46199.2 0 1.81396e+06 -10343.2 0 1.80779e+06 21637.5 0 1.79286e+06 49517.4 0 1.77057e+06 73292.3 0 1.74224e+06 93118 0 1.70907e+06 109267 0 1.67213e+06 122080 0 1.63236e+06 131930 0 1.59054e+06 139194 0 1.54735e+06 144233 0 1.50335e+06 147385 0 1.45901e+06 148952 0 1.41469e+06 149202 0 1.37071e+06 148370 0 1.32731e+06 146655 0 1.2847e+06 144230 0 1.24302e+06 141239 0 1.2024e+06 137804 0 1.16292e+06 134025 0 1.12466e+06 129987 0 1.08767e+06 125758 0 1.05197e+06 121397 0 1.01759e+06 116946 0 1.11948e+06 -465527 0 1.37794e+06 -351602 0 1.50064e+06 -311833 0 1.60024e+06 -266709 0 1.67342e+06 -220978 0 1.73083e+06 -174819 0 1.77227e+06 -129508 0 1.79987e+06 -86166 0 1.81454e+06 -45684.1 0 1.81771e+06 -8797.1 0 1.81072e+06 24048.2 0 1.79503e+06 52636.5 0 1.77205e+06 76976.7 0 1.74312e+06 97241.1 0 1.70942e+06 113719 0 1.67204e+06 126769 0 1.63191e+06 136778 0 1.58979e+06 144137 0 1.54637e+06 149219 0 1.50219e+06 152371 0 1.45771e+06 153904 0 1.4133e+06 154093 0 1.36926e+06 153177 0 1.32583e+06 151362 0 1.2832e+06 148824 0 1.24152e+06 145709 0 1.20092e+06 142141 0 1.16147e+06 138225 0 1.12325e+06 134046 0 1.08629e+06 129674 0 1.05064e+06 125168 0 1.01631e+06 120572 0 1.15803e+06 -481557 0 1.38779e+06 -368707 0 1.51129e+06 -321946 0 1.60879e+06 -274060 0 1.68154e+06 -226165 0 1.73804e+06 -178251 0 1.77871e+06 -131407 0 1.80544e+06 -86699.8 0 1.81924e+06 -45027.5 0 1.82153e+06 -7118.75 0 1.81371e+06 26579.5 0 1.79724e+06 55863.1 0 1.77357e+06 80754.6 0 1.74401e+06 101444 0 1.70979e+06 118238 0 1.67196e+06 131512 0 1.63145e+06 141670 0 1.58904e+06 149115 0 1.54539e+06 154232 0 1.50103e+06 157378 0 1.45641e+06 158871 0 1.4119e+06 158994 0 1.3678e+06 157991 0 1.32433e+06 156073 0 1.28169e+06 153418 0 1.24001e+06 150177 0 1.19942e+06 146476 0 1.16e+06 142422 0 1.12181e+06 138101 0 1.0849e+06 133584 0 1.0493e+06 128933 0 1.01501e+06 124193 0 1.19229e+06 -495805 0 1.39908e+06 -384350 0 1.52204e+06 -331786 0 1.61765e+06 -281197 0 1.68981e+06 -231186 0 1.74542e+06 -181528 0 1.78528e+06 -133152 0 1.81111e+06 -87084.5 0 1.82402e+06 -44227.4 0 1.82543e+06 -5306.5 0 1.81675e+06 29232.9 0 1.7995e+06 59198.2 0 1.77511e+06 84626.9 0 1.74493e+06 105727 0 1.71017e+06 122825 0 1.67189e+06 136311 0 1.631e+06 146606 0 1.58829e+06 154128 0 1.54439e+06 159272 0 1.49985e+06 162404 0 1.4551e+06 163853 0 1.41049e+06 163905 0 1.36632e+06 162811 0 1.32282e+06 160786 0 1.28016e+06 158012 0 1.23848e+06 154643 0 1.19791e+06 150808 0 1.15852e+06 146614 0 1.12036e+06 142150 0 1.08349e+06 137489 0 1.04793e+06 132692 0 1.0137e+06 127806 0 1.22315e+06 -508638 0 1.41142e+06 -398743 0 1.53293e+06 -341328 0 1.62679e+06 -288119 0 1.69824e+06 -236038 0 1.75295e+06 -184646 0 1.79197e+06 -134741 0 1.8169e+06 -87317.5 0 1.8289e+06 -43281.9 0 1.82939e+06 -3358.63 0 1.81985e+06 32009.7 0 1.80179e+06 62642.8 0 1.77668e+06 88594.3 0 1.74586e+06 110091 0 1.71055e+06 127479 0 1.67181e+06 141166 0 1.63055e+06 151588 0 1.58753e+06 159176 0 1.54339e+06 164339 0 1.49866e+06 167452 0 1.45377e+06 168849 0 1.40907e+06 168825 0 1.36483e+06 167637 0 1.32129e+06 165502 0 1.27861e+06 162607 0 1.23694e+06 159109 0 1.19638e+06 155137 0 1.15702e+06 150803 0 1.1189e+06 146195 0 1.08207e+06 141389 0 1.04656e+06 136445 0 1.01237e+06 131414 0 1.25129e+06 -520340 0 1.42448e+06 -412062 0 1.54398e+06 -350557 0 1.63619e+06 -294826 0 1.70684e+06 -240718 0 1.76063e+06 -187603 0 1.79879e+06 -136172 0 1.8228e+06 -87396.8 0 1.83386e+06 -42189.1 0 1.83343e+06 -1273.4 0 1.823e+06 34911.4 0 1.80413e+06 66198.1 0 1.77827e+06 92657.7 0 1.74681e+06 114537 0 1.71095e+06 132201 0 1.67174e+06 146076 0 1.6301e+06 156614 0 1.58677e+06 164260 0 1.54238e+06 169434 0 1.49747e+06 172519 0 1.45244e+06 173860 0 1.40763e+06 173756 0 1.36333e+06 172469 0 1.31974e+06 170222 0 1.27705e+06 167203 0 1.23538e+06 163572 0 1.19484e+06 159464 0 1.1555e+06 154987 0 1.11742e+06 150235 0 1.08063e+06 145283 0 1.04516e+06 140192 0 1.01103e+06 135015 0 1.27724e+06 -531130 0 1.43806e+06 -424450 0 1.5552e+06 -359466 0 1.64581e+06 -301316 0 1.71559e+06 -245224 0 1.76847e+06 -190396 0 1.80574e+06 -137443 0 1.8288e+06 -87319.8 0 1.83891e+06 -40946.7 0 1.83753e+06 950.91 0 1.8262e+06 37939.2 0 1.80649e+06 69865 0 1.77989e+06 96817.8 0 1.74777e+06 119065 0 1.71135e+06 136991 0 1.67167e+06 151042 0 1.62964e+06 161685 0 1.586e+06 169379 0 1.54137e+06 174555 0 1.49626e+06 177607 0 1.45109e+06 178885 0 1.40618e+06 178697 0 1.36181e+06 177307 0 1.31819e+06 174944 0 1.27548e+06 171799 0 1.23381e+06 168035 0 1.19328e+06 163787 0 1.15396e+06 159167 0 1.11592e+06 154270 0 1.07917e+06 149171 0 1.04375e+06 143934 0 1.00967e+06 138609 0 1.30141e+06 -541179 0 1.452e+06 -436031 0 1.5666e+06 -368055 0 1.65566e+06 -307590 0 1.7245e+06 -249552 0 1.77645e+06 -193023 0 1.81281e+06 -138551 0 1.83491e+06 -87084.2 0 1.84404e+06 -39552.8 0 1.84169e+06 3316.07 0 1.82945e+06 41094.5 0 1.80889e+06 73644.7 0 1.78154e+06 101075 0 1.74875e+06 123675 0 1.71176e+06 141850 0 1.6716e+06 156064 0 1.62918e+06 166801 0 1.58522e+06 174534 0 1.54034e+06 179704 0 1.49504e+06 182716 0 1.44972e+06 183926 0 1.40471e+06 183648 0 1.36028e+06 182152 0 1.31661e+06 179669 0 1.27388e+06 176396 0 1.23222e+06 172496 0 1.1917e+06 168107 0 1.15241e+06 163343 0 1.1144e+06 158299 0 1.0777e+06 153053 0 1.04232e+06 147669 0 1.00829e+06 142198 0 1.32411e+06 -550620 0 1.46617e+06 -446904 0 1.57817e+06 -376326 0 1.66571e+06 -313646 0 1.73358e+06 -253702 0 1.78458e+06 -195482 0 1.82e+06 -139494 0 1.84112e+06 -86687.6 0 1.84925e+06 -38005.3 0 1.84592e+06 5823.85 0 1.83274e+06 44378.9 0 1.81133e+06 77538 0 1.7832e+06 105431 0 1.74974e+06 128369 0 1.71217e+06 146778 0 1.67153e+06 161143 0 1.62871e+06 171963 0 1.58443e+06 179724 0 1.5393e+06 184881 0 1.49381e+06 187845 0 1.44834e+06 188981 0 1.40323e+06 188608 0 1.35873e+06 187002 0 1.31502e+06 184398 0 1.27227e+06 180993 0 1.23061e+06 176956 0 1.19011e+06 172424 0 1.15085e+06 167515 0 1.11287e+06 162324 0 1.07621e+06 156930 0 1.04088e+06 151398 0 1.0069e+06 145779 0 1.34561e+06 -559562 0 1.48051e+06 -457156 0 1.58992e+06 -384287 0 1.67595e+06 -319487 0 1.74281e+06 -257671 0 1.79286e+06 -197770 0 1.82732e+06 -140269 0 1.84743e+06 -86127.6 0 1.85454e+06 -36301.9 0 1.85021e+06 8476.03 0 1.83608e+06 47793.5 0 1.81379e+06 81546.2 0 1.78487e+06 109886 0 1.75073e+06 133146 0 1.71258e+06 151776 0 1.67146e+06 166278 0 1.62823e+06 177170 0 1.58363e+06 184950 0 1.53825e+06 190085 0 1.49256e+06 192994 0 1.44695e+06 194050 0 1.40174e+06 193579 0 1.35716e+06 191859 0 1.31341e+06 189129 0 1.27065e+06 185591 0 1.22898e+06 181414 0 1.1885e+06 176739 0 1.14926e+06 171683 0 1.11132e+06 166344 0 1.0747e+06 160801 0 1.03942e+06 155120 0 1.00549e+06 149355 0 1.36612e+06 -568088 0 1.49495e+06 -466858 0 1.60182e+06 -391945 0 1.68637e+06 -325112 0 1.75221e+06 -261458 0 1.80129e+06 -199885 0 1.83476e+06 -140874 0 1.85384e+06 -85401.6 0 1.85991e+06 -34440.6 0 1.85456e+06 11274.4 0 1.83946e+06 51339.8 0 1.81627e+06 85670.1 0 1.78657e+06 114440 0 1.75173e+06 138007 0 1.71299e+06 156843 0 1.67138e+06 171470 0 1.62775e+06 182422 0 1.58282e+06 190212 0 1.53718e+06 195316 0 1.4913e+06 198164 0 1.44554e+06 199135 0 1.40023e+06 198560 0 1.35558e+06 196722 0 1.31179e+06 193864 0 1.26901e+06 190189 0 1.22734e+06 185870 0 1.18687e+06 181050 0 1.14766e+06 175846 0 1.10976e+06 170358 0 1.07318e+06 164667 0 1.03795e+06 158837 0 1.00406e+06 152924 0 1.38579e+06 -576268 0 1.50946e+06 -476072 0 1.61387e+06 -399309 0 1.69696e+06 -330523 0 1.76176e+06 -265062 0 1.80985e+06 -201825 0 1.84232e+06 -141307 0 1.86036e+06 -84507.3 0 1.86536e+06 -32419.1 0 1.85896e+06 14220.7 0 1.84287e+06 55019.1 0 1.81879e+06 89910.7 0 1.78827e+06 119094 0 1.75274e+06 142953 0 1.7134e+06 161980 0 1.67129e+06 176719 0 1.62726e+06 187719 0 1.582e+06 195509 0 1.53611e+06 200574 0 1.49002e+06 203354 0 1.44412e+06 204234 0 1.3987e+06 203550 0 1.35398e+06 201591 0 1.31015e+06 198601 0 1.26735e+06 194788 0 1.22568e+06 190325 0 1.18523e+06 185358 0 1.14605e+06 180006 0 1.10818e+06 174368 0 1.07164e+06 168526 0 1.03645e+06 162547 0 1.00262e+06 156486 0 1.40476e+06 -584159 0 1.52402e+06 -484850 0 1.62607e+06 -406387 0 1.70773e+06 -335722 0 1.77147e+06 -268481 0 1.81856e+06 -203587 0 1.85e+06 -141563 0 1.86697e+06 -83441.8 0 1.87088e+06 -30235.1 0 1.86342e+06 17316.9 0 1.84632e+06 58832.8 0 1.82132e+06 94268.9 0 1.78999e+06 123849 0 1.75375e+06 147983 0 1.71381e+06 167187 0 1.67119e+06 182024 0 1.62675e+06 193062 0 1.58117e+06 200842 0 1.53501e+06 205860 0 1.48873e+06 208564 0 1.44268e+06 209347 0 1.39715e+06 208550 0 1.35236e+06 206465 0 1.30849e+06 203341 0 1.26567e+06 199387 0 1.22401e+06 194779 0 1.18357e+06 189663 0 1.14441e+06 184160 0 1.10658e+06 178372 0 1.07008e+06 172380 0 1.03495e+06 166252 0 1.00116e+06 160042 0 1.42316e+06 -591807 0 1.53862e+06 -493234 0 1.63841e+06 -413190 0 1.71865e+06 -340711 0 1.78133e+06 -271716 0 1.82741e+06 -205170 0 1.85781e+06 -141642 0 1.87367e+06 -82202.8 0 1.87648e+06 -27886.4 0 1.86793e+06 20564.6 0 1.84981e+06 62782.3 0 1.82387e+06 98745.7 0 1.79172e+06 128706 0 1.75476e+06 153098 0 1.71421e+06 172464 0 1.67109e+06 187387 0 1.62623e+06 198451 0 1.58032e+06 206210 0 1.5339e+06 211173 0 1.48742e+06 213795 0 1.44122e+06 214475 0 1.39559e+06 213560 0 1.35073e+06 211346 0 1.30682e+06 208084 0 1.26398e+06 203986 0 1.22231e+06 199230 0 1.18189e+06 193964 0 1.14276e+06 188311 0 1.10496e+06 182371 0 1.06851e+06 176228 0 1.03342e+06 169949 0 999690 163591 0 1.44106e+06 -599252 0 1.55324e+06 -501262 0 1.65088e+06 -419724 0 1.72973e+06 -345493 0 1.79134e+06 -274765 0 1.8364e+06 -206570 0 1.86573e+06 -141540 0 1.88047e+06 -80787.3 0 1.88214e+06 -25370.7 0 1.87248e+06 23965.8 0 1.85333e+06 66868.8 0 1.82644e+06 103342 0 1.79345e+06 133664 0 1.75577e+06 158299 0 1.71461e+06 177811 0 1.67098e+06 192806 0 1.6257e+06 203885 0 1.57946e+06 211614 0 1.53278e+06 216513 0 1.4861e+06 219045 0 1.43975e+06 219617 0 1.39401e+06 218579 0 1.34908e+06 216232 0 1.30512e+06 212829 0 1.26227e+06 208585 0 1.2206e+06 203680 0 1.18019e+06 198263 0 1.14109e+06 192457 0 1.10333e+06 186365 0 1.06692e+06 180070 0 1.03188e+06 173641 0 998199 167134 0 1.45855e+06 -606527 0 1.56789e+06 -508965 0 1.66347e+06 -426000 0 1.74097e+06 -350069 0 1.80151e+06 -277627 0 1.84553e+06 -207787 0 1.87376e+06 -141255 0 1.88737e+06 -79192.8 0 1.88788e+06 -22685.6 0 1.87709e+06 27522.2 0 1.85687e+06 71093.7 0 1.82903e+06 108059 0 1.79519e+06 138726 0 1.75677e+06 163586 0 1.71499e+06 183229 0 1.67085e+06 198283 0 1.62516e+06 209364 0 1.57858e+06 217053 0 1.53164e+06 221880 0 1.48475e+06 224316 0 1.43826e+06 224774 0 1.39241e+06 223608 0 1.34741e+06 221123 0 1.30341e+06 217577 0 1.26054e+06 213185 0 1.21887e+06 208128 0 1.17848e+06 202558 0 1.13941e+06 196598 0 1.10168e+06 190353 0 1.06531e+06 183906 0 1.03032e+06 177326 0 996692 170669 0 1.47571e+06 -613663 0 1.58256e+06 -516369 0 1.67619e+06 -432024 0 1.75235e+06 -354443 0 1.81183e+06 -280301 0 1.8548e+06 -208816 0 1.88192e+06 -140783 0 1.89435e+06 -77416.5 0 1.89368e+06 -19828.8 0 1.88174e+06 31235.7 0 1.86045e+06 75458.2 0 1.83163e+06 112896 0 1.79692e+06 143890 0 1.75777e+06 168958 0 1.71537e+06 188718 0 1.67071e+06 203816 0 1.62459e+06 214888 0 1.57768e+06 222527 0 1.53047e+06 227274 0 1.48339e+06 229607 0 1.43674e+06 229944 0 1.39079e+06 228646 0 1.34572e+06 226021 0 1.30168e+06 222327 0 1.25879e+06 217784 0 1.21712e+06 212574 0 1.17675e+06 206850 0 1.1377e+06 200735 0 1.10001e+06 194336 0 1.06369e+06 187736 0 1.02874e+06 181004 0 995168 174199 0 1.4926e+06 -620685 0 1.59727e+06 -523493 0 1.68902e+06 -437805 0 1.76389e+06 -358618 0 1.82231e+06 -282786 0 1.8642e+06 -209657 0 1.89019e+06 -140121 0 1.90142e+06 -75455.3 0 1.89954e+06 -16797.8 0 1.88643e+06 35108.1 0 1.86404e+06 79963.7 0 1.83423e+06 117856 0 1.79866e+06 149157 0 1.75876e+06 174416 0 1.71573e+06 194277 0 1.67055e+06 209406 0 1.62402e+06 220457 0 1.57676e+06 228036 0 1.52929e+06 232694 0 1.48201e+06 234917 0 1.43521e+06 235128 0 1.38915e+06 233694 0 1.34401e+06 230924 0 1.29993e+06 227080 0 1.25702e+06 222384 0 1.21536e+06 217019 0 1.175e+06 211138 0 1.13598e+06 204868 0 1.09833e+06 198313 0 1.06205e+06 191559 0 1.02715e+06 184676 0 993628 177721 0 1.50927e+06 -627617 0 1.61202e+06 -530356 0 1.70196e+06 -443349 0 1.77557e+06 -362596 0 1.83294e+06 -285082 0 1.87375e+06 -210306 0 1.89857e+06 -139268 0 1.90859e+06 -73306.5 0 1.90547e+06 -13590.3 0 1.89116e+06 39141.2 0 1.86766e+06 84611.3 0 1.83685e+06 122939 0 1.8004e+06 154528 0 1.75974e+06 179961 0 1.71608e+06 199906 0 1.67038e+06 215053 0 1.62342e+06 226071 0 1.57583e+06 233580 0 1.52809e+06 238141 0 1.4806e+06 240246 0 1.43366e+06 240326 0 1.38749e+06 238750 0 1.34228e+06 235832 0 1.29816e+06 231835 0 1.25524e+06 226983 0 1.21357e+06 221461 0 1.17323e+06 215422 0 1.13424e+06 208995 0 1.09662e+06 202285 0 1.06039e+06 195377 0 1.02554e+06 188342 0 992071 181237 0 1.52578e+06 -634484 0 1.62682e+06 -536967 0 1.715e+06 -448663 0 1.78739e+06 -366382 0 1.84371e+06 -287188 0 1.88343e+06 -210760 0 1.90707e+06 -138218 0 1.91583e+06 -70967 0 1.91145e+06 -10203.7 0 1.89593e+06 43336.8 0 1.8713e+06 89402.3 0 1.83947e+06 128145 0 1.80213e+06 160004 0 1.76071e+06 185592 0 1.71641e+06 205606 0 1.67018e+06 220757 0 1.6228e+06 231730 0 1.57487e+06 239159 0 1.52687e+06 243614 0 1.47918e+06 245595 0 1.43209e+06 245538 0 1.38582e+06 243816 0 1.34053e+06 240745 0 1.29637e+06 236592 0 1.25343e+06 231582 0 1.21177e+06 225900 0 1.17144e+06 219703 0 1.13248e+06 213118 0 1.0949e+06 206251 0 1.05871e+06 199188 0 1.02392e+06 192001 0 990497 184745 0 1.54219e+06 -641306 0 1.64166e+06 -543334 0 1.72815e+06 -453756 0 1.79937e+06 -369978 0 1.85465e+06 -289101 0 1.89325e+06 -211018 0 1.91568e+06 -136969 0 1.92316e+06 -68433.8 0 1.91749e+06 -6635.59 0 1.90073e+06 47696.9 0 1.87495e+06 94337.9 0 1.84209e+06 133475 0 1.80385e+06 165584 0 1.76167e+06 191310 0 1.71673e+06 211377 0 1.66997e+06 226517 0 1.62216e+06 237434 0 1.57389e+06 244773 0 1.52563e+06 249113 0 1.47773e+06 250963 0 1.43049e+06 250763 0 1.38412e+06 248890 0 1.33877e+06 245663 0 1.29457e+06 241351 0 1.2516e+06 236180 0 1.20995e+06 230338 0 1.16964e+06 223980 0 1.13071e+06 217236 0 1.09317e+06 210212 0 1.05702e+06 202994 0 1.02227e+06 195653 0 988907 188247 0 1.55855e+06 -648109 0 1.65657e+06 -549460 0 1.74139e+06 -458633 0 1.8115e+06 -373387 0 1.86573e+06 -290820 0 1.9032e+06 -211076 0 1.9244e+06 -135518 0 1.93057e+06 -65703.8 0 1.92359e+06 -2883.47 0 1.90556e+06 52223 0 1.87861e+06 99419.3 0 1.84471e+06 138930 0 1.80557e+06 171269 0 1.76261e+06 197114 0 1.71702e+06 217217 0 1.66973e+06 232333 0 1.62149e+06 243181 0 1.57289e+06 250420 0 1.52436e+06 254638 0 1.47627e+06 256350 0 1.42888e+06 256002 0 1.3824e+06 253973 0 1.33698e+06 250586 0 1.29274e+06 246112 0 1.24976e+06 240778 0 1.20811e+06 234773 0 1.16781e+06 228254 0 1.12891e+06 221349 0 1.09141e+06 214167 0 1.05531e+06 206792 0 1.02061e+06 199298 0 987300 191742 0 1.57492e+06 -654918 0 1.67153e+06 -555342 0 1.75472e+06 -463306 0 1.82377e+06 -376613 0 1.87697e+06 -292344 0 1.91329e+06 -210931 0 1.93323e+06 -133861 0 1.93806e+06 -62773.7 0 1.92973e+06 1055.2 0 1.91041e+06 56917.1 0 1.88228e+06 104648 0 1.84733e+06 144511 0 1.80727e+06 177059 0 1.76353e+06 203005 0 1.71729e+06 223128 0 1.66948e+06 238206 0 1.62081e+06 248973 0 1.57186e+06 256102 0 1.52307e+06 260188 0 1.47477e+06 261756 0 1.42724e+06 261253 0 1.38065e+06 259064 0 1.33517e+06 255514 0 1.29089e+06 250875 0 1.2479e+06 245376 0 1.20624e+06 239206 0 1.16597e+06 232523 0 1.1271e+06 225457 0 1.08964e+06 218116 0 1.05358e+06 210585 0 1.01893e+06 202937 0 985677 195229 0 1.59137e+06 -661760 0 1.68655e+06 -560969 0 1.76814e+06 -467783 0 1.83621e+06 -379657 0 1.88836e+06 -293671 0 1.92353e+06 -210580 0 1.94217e+06 -131994 0 1.94563e+06 -59640.3 0 1.93592e+06 5182.99 0 1.91529e+06 61781 0 1.88596e+06 110024 0 1.84994e+06 150217 0 1.80895e+06 182954 0 1.76444e+06 208982 0 1.71754e+06 229109 0 1.66919e+06 244134 0 1.6201e+06 254809 0 1.57081e+06 261817 0 1.52175e+06 265764 0 1.47326e+06 267180 0 1.42558e+06 266517 0 1.37889e+06 264163 0 1.33333e+06 260446 0 1.28902e+06 255639 0 1.24601e+06 249972 0 1.20436e+06 243636 0 1.16411e+06 236789 0 1.12527e+06 229560 0 1.08784e+06 222059 0 1.05184e+06 214371 0 1.01724e+06 206569 0 984036 198710 0 1.60799e+06 -668670 0 1.70161e+06 -566327 0 1.78165e+06 -472081 0 1.8488e+06 -382520 0 1.8999e+06 -294799 0 1.9339e+06 -210020 0 1.95121e+06 -129913 0 1.95327e+06 -56300.2 0 1.94216e+06 9502.45 0 1.9202e+06 66816.2 0 1.88964e+06 115549 0 1.85254e+06 156050 0 1.81062e+06 188955 0 1.76531e+06 215046 0 1.71777e+06 235160 0 1.66888e+06 250117 0 1.61936e+06 260687 0 1.56973e+06 267565 0 1.52041e+06 271365 0 1.47172e+06 272622 0 1.42389e+06 271794 0 1.3771e+06 269271 0 1.33148e+06 265383 0 1.28713e+06 260405 0 1.2441e+06 254568 0 1.20246e+06 248063 0 1.16223e+06 241050 0 1.12342e+06 233658 0 1.08603e+06 225996 0 1.05007e+06 218150 0 1.01553e+06 210193 0 982379 202183 0 1.62487e+06 -675688 0 1.71668e+06 -571388 0 1.79525e+06 -476217 0 1.86156e+06 -385202 0 1.9116e+06 -295727 0 1.9444e+06 -209246 0 1.96036e+06 -127614 0 1.96099e+06 -52750.1 0 1.94844e+06 14016.1 0 1.92512e+06 72024.7 0 1.89333e+06 121224 0 1.85513e+06 162011 0 1.81227e+06 195061 0 1.76617e+06 221196 0 1.71797e+06 241280 0 1.66855e+06 256156 0 1.61859e+06 266609 0 1.56862e+06 273346 0 1.51904e+06 276991 0 1.47015e+06 278082 0 1.42218e+06 277083 0 1.37529e+06 274386 0 1.3296e+06 270323 0 1.28521e+06 265172 0 1.24218e+06 259162 0 1.20054e+06 252488 0 1.16033e+06 245307 0 1.12155e+06 237751 0 1.0842e+06 229927 0 1.04829e+06 221923 0 1.0138e+06 213811 0 980705 205650 0 1.64213e+06 -682866 0 1.73172e+06 -576119 0 1.80896e+06 -480218 0 1.87449e+06 -387697 0 1.92345e+06 -296454 0 1.95505e+06 -208254 0 1.96962e+06 -125094 0 1.96877e+06 -48986.5 0 1.95476e+06 18726.6 0 1.93005e+06 77408 0 1.89701e+06 127050 0 1.8577e+06 168098 0 1.81389e+06 201273 0 1.767e+06 227432 0 1.71814e+06 247469 0 1.66818e+06 262250 0 1.61779e+06 272574 0 1.56749e+06 279161 0 1.51765e+06 282640 0 1.46856e+06 283559 0 1.42044e+06 282384 0 1.37345e+06 279509 0 1.3277e+06 275268 0 1.28328e+06 269940 0 1.24023e+06 263756 0 1.1986e+06 256909 0 1.15841e+06 249560 0 1.11966e+06 241838 0 1.08236e+06 233852 0 1.04649e+06 225689 0 1.01205e+06 217422 0 979014 209108 0 1.65993e+06 -690269 0 1.74665e+06 -580470 0 1.82281e+06 -484118 0 1.88758e+06 -389997 0 1.93546e+06 -296980 0 1.96584e+06 -207040 0 1.97897e+06 -122349 0 1.97662e+06 -45005.5 0 1.96112e+06 23636.5 0 1.935e+06 82967.9 0 1.90068e+06 133028 0 1.86026e+06 174314 0 1.81549e+06 207590 0 1.7678e+06 233754 0 1.71827e+06 253728 0 1.66778e+06 268398 0 1.61697e+06 278581 0 1.56632e+06 285007 0 1.51623e+06 288314 0 1.46694e+06 289054 0 1.41868e+06 287696 0 1.37159e+06 284639 0 1.32578e+06 280217 0 1.28132e+06 274709 0 1.23826e+06 268348 0 1.19664e+06 261328 0 1.15647e+06 253808 0 1.11775e+06 245919 0 1.08049e+06 237770 0 1.04468e+06 229448 0 1.01029e+06 221026 0 977306 212560 0 1.67849e+06 -697985 0 1.76136e+06 -584374 0 1.83685e+06 -487965 0 1.90081e+06 -392085 0 1.94764e+06 -297310 0 1.97676e+06 -205595 0 1.98842e+06 -119374 0 1.98453e+06 -40803.6 0 1.9675e+06 28748.3 0 1.93995e+06 88705.9 0 1.90434e+06 139159 0 1.86279e+06 180657 0 1.81706e+06 214013 0 1.76856e+06 240162 0 1.71838e+06 260054 0 1.66735e+06 274600 0 1.61611e+06 284630 0 1.56513e+06 290885 0 1.51477e+06 294012 0 1.4653e+06 294566 0 1.4169e+06 293020 0 1.36971e+06 289776 0 1.32383e+06 285169 0 1.27934e+06 279478 0 1.23627e+06 272939 0 1.19466e+06 265743 0 1.15451e+06 258052 0 1.11583e+06 249995 0 1.07861e+06 241682 0 1.04284e+06 233201 0 1.00851e+06 224622 0 975581 216004 0 1.69807e+06 -706128 0 1.77569e+06 -587743 0 1.85116e+06 -491824 0 1.91417e+06 -393935 0 1.96001e+06 -297451 0 1.98782e+06 -203912 0 1.99798e+06 -116167 0 1.99251e+06 -36376.7 0 1.97391e+06 34064.7 0 1.94491e+06 94623.6 0 1.90799e+06 145444 0 1.8653e+06 187129 0 1.81861e+06 220541 0 1.7693e+06 246654 0 1.71845e+06 266449 0 1.66688e+06 280855 0 1.61522e+06 290720 0 1.56391e+06 296795 0 1.51329e+06 299733 0 1.46362e+06 300094 0 1.41508e+06 298356 0 1.3678e+06 294920 0 1.32186e+06 290124 0 1.27734e+06 284248 0 1.23426e+06 277528 0 1.19265e+06 270155 0 1.15253e+06 262291 0 1.11388e+06 254066 0 1.07671e+06 245588 0 1.04099e+06 236946 0 1.00671e+06 228211 0 973839 219440 0 1.71905e+06 -714853 0 1.78938e+06 -590464 0 1.86589e+06 -495786 0 1.92757e+06 -395506 0 1.97261e+06 -297416 0 1.99899e+06 -201978 0 2.00764e+06 -112724 0 2.00053e+06 -31721 0 1.98035e+06 39588.7 0 1.94987e+06 100722 0 1.91162e+06 151883 0 1.86778e+06 193729 0 1.82011e+06 227175 0 1.76999e+06 253232 0 1.71848e+06 272911 0 1.66638e+06 287164 0 1.61429e+06 296851 0 1.56265e+06 302735 0 1.51178e+06 305476 0 1.46192e+06 305638 0 1.41324e+06 303702 0 1.36586e+06 300071 0 1.31987e+06 295082 0 1.27531e+06 289019 0 1.23223e+06 282115 0 1.19063e+06 274563 0 1.15053e+06 266525 0 1.11192e+06 258130 0 1.07479e+06 249488 0 1.03912e+06 240685 0 1.00489e+06 231793 0 972080 222869 0 </DataArray> 
</PointData> 
<Points> 
<DataArray type="Float32" NumberOfComponents="3"> 