<?xml version="1.0"?> 
<VTKFile type="StructuredGrid" version="0.1"> 
<StructuredGrid WholeExtent="0 31 0 31 0 0"> 
<Piece Extent="0 31 0 31 0 0"> 
<PointData>
<DataArray type="Float32" Name="|E|" format="ascii" NumberOfComponents="3"> 
-2.08616e-07 -1.90735e-06 0 1.24332e-07 982.681 0 -1.18278e-07 793.633 0 9.12696e-08 570.864 0 -4.47035e-08 401.75 0 2.6077e-08 281.096 0 -4.84288e-08 198.28 0 2.98023e-08 141.169 0 -7.45058e-09 101.746 0 -1.49012e-08 74.2225 0 7.45058e-09 54.7762 0 1.49012e-08 40.849 0 -7.45058e-09 30.742 0 5.96046e-08 23.3157 0 -2.98023e-08 17.7979 0 -2.23517e-08 13.6578 0 1.49012e-08 10.5255 0 2.98023e-08 8.13874 0 0 6.3093 0 7.45058e-09 4.89999 0 -4.47035e-08 3.80961 0 1.49012e-08 2.96266 0 -1.49012e-08 2.30225 0 2.98023e-08 1.78509 0 -4.47035e-08 1.37797 0 2.98023e-08 1.05519 0 -4.47035e-08 0.796608 0 4.47035e-08 0.586289 0 -7.45058e-08 0.411371 0 1.04308e-07 0.261233 0 -1.3411e-07 0.12681 0 1.78814e-07 7.15256e-07 0 40.3793 -2.32458e-06 0 -1.88623 982.965 0 -6.81789 793.605 0 -5.99309 570.845 0 -5.27357 401.714 0 -4.02907 281.065 0 -3.13646 198.252 0 -2.37823 141.146 0 -1.81193 101.728 0 -1.38383 74.2077 0 -1.06411 54.7643 0 -0.824796 40.8395 0 -0.644384 30.7344 0 -0.50726 23.3096 0 -0.401982 17.7929 0 -0.320369 13.6538 0 -0.256523 10.5221 0 -0.206174 8.13595 0 -0.166205 6.30699 0 -0.134308 4.89807 0 -0.108757 3.80801 0 -0.0882406 2.96132 0 -0.0717579 2.30113 0 -0.0585331 1.78416 0 -0.0479652 1.37721 0 -0.0395875 1.05457 0 -0.0330409 0.796107 0 -0.0280551 0.585896 0 -0.0244352 0.411077 0 -0.0220548 0.261035 0 -0.0208488 0.126708 0 -0.0208252 -9.72301e-07 0 80.8205 2.86102e-06 0 -3.81438 983.801 0 -13.6307 793.524 0 -11.9885 570.787 0 -10.5462 401.608 0 -8.05716 280.973 0 -6.27208 198.171 0 -4.75552 141.079 0 -3.6231 101.673 0 -2.76697 74.1639 0 -2.12766 54.7295 0 -1.64913 40.8116 0 -1.28838 30.712 0 -1.0142 23.2915 0 -0.803701 17.7782 0 -0.64052 13.6417 0 -0.512862 10.5122 0 -0.412195 8.12776 0 -0.33228 6.3002 0 -0.268506 4.89241 0 -0.217418 3.8033 0 -0.1764 2.9574 0 -0.143445 2.29787 0 -0.117005 1.78145 0 -0.0958775 1.37497 0 -0.0791286 1.05273 0 -0.0660406 0.794633 0 -0.0560733 0.584739 0 -0.0488362 0.410214 0 -0.044077 0.260452 0 -0.0416649 0.126408 0 -0.041616 4.32134e-07 0 121.386 -2.02656e-06 0 -5.82646 985.189 0 -20.4331 793.389 0 -17.9888 570.692 0 -15.8169 401.433 0 -12.0833 280.82 0 -9.40605 198.036 0 -7.13092 140.967 0 -5.43275 101.583 0 -4.14876 74.0914 0 -3.19009 54.6716 0 -2.47252 40.7653 0 -1.93161 30.6749 0 -1.52051 23.2615 0 -1.2049 17.7538 0 -0.960235 13.6217 0 -0.768838 10.4958 0 -0.617909 8.11418 0 -0.498096 6.28892 0 -0.402482 4.88304 0 -0.325891 3.79548 0 -0.264396 2.95089 0 -0.214993 2.29245 0 -0.175356 1.77696 0 -0.143684 1.37126 0 -0.118577 1.0497 0 -0.0989584 0.792188 0 -0.0840175 0.582822 0 -0.0731691 0.408782 0 -0.0660339 0.259486 0 -0.0624158 0.125909 0 -0.0623375 -1.71363e-07 0 162.137 1.66893e-06 0 -7.96474 987.129 0 -27.2197 793.199 0 -23.9963 570.56 0 -21.0847 401.187 0 -16.1065 280.606 0 -12.5375 197.848 0 -9.50351 140.811 0 -7.24011 101.456 0 -5.52851 73.99 0 -4.25084 54.5907 0 -3.29452 40.7007 0 -2.5737 30.623 0 -2.02588 23.2196 0 -1.60531 17.7197 0 -1.2793 13.5939 0 -1.02427 10.4728 0 -0.823163 8.09521 0 -0.663521 6.27318 0 -0.536127 4.86994 0 -0.43408 3.78457 0 -0.35215 2.9418 0 -0.28633 2.28488 0 -0.233526 1.77068 0 -0.191333 1.36608 0 -0.157887 1.04546 0 -0.131754 0.788775 0 -0.111851 0.580146 0 -0.0973999 0.406784 0 -0.0878931 0.258138 0 -0.0830691 0.125215 0 -0.0829556 2.38419e-07 0 203.138 -3.21865e-06 0 -10.272 989.62 0 -33.9847 792.951 0 -30.0137 570.39 0 -26.3485 400.871 0 -20.126 280.332 0 -15.6657 197.605 0 -11.8723 140.611 0 -9.04443 101.294 0 -6.90556 73.8599 0 -5.30936 54.4869 0 -4.11467 40.6177 0 -3.21425 30.5564 0 -2.52998 23.1658 0 -2.00468 17.676 0 -1.59749 13.5581 0 -1.27897 10.4434 0 -1.02781 8.07087 0 -0.828429 6.25298 0 -0.669331 4.85314 0 -0.541891 3.77058 0 -0.439579 2.93014 0 -0.357389 2.27518 0 -0.291453 1.76263 0 -0.238771 1.35944 0 -0.197013 1.04003 0 -0.164385 0.784399 0 -0.139538 0.576715 0 -0.121495 0.404223 0 -0.109622 0.256409 0 -0.103592 0.124324 0 -0.103436 -3.12924e-07 0 244.451 2.14577e-06 0 -12.7915 992.662 0 -40.7218 792.643 0 -36.044 570.183 0 -31.6072 400.484 0 -24.1407 279.998 0 -18.7897 197.31 0 -14.2365 140.366 0 -10.845 101.096 0 -8.27922 73.7012 0 -6.36509 54.3603 0 -4.9325 40.5165 0 -3.85289 30.4751 0 -3.03251 23.1001 0 -2.40274 17.6226 0 -1.91461 13.5144 0 -1.53277 10.4075 0 -1.23169 8.04118 0 -0.992691 6.22835 0 -0.801985 4.83265 0 -0.649233 3.75351 0 -0.526604 2.91592 0 -0.428099 2.26335 0 -0.349079 1.75281 0 -0.285948 1.35134 0 -0.235909 1.0334 0 -0.196814 0.779066 0 -0.167041 0.572533 0 -0.14542 0.401102 0 -0.13119 0.254303 0 -0.123953 0.123239 0 -0.123745 2.83122e-07 0 286.141 -4.76837e-07 0 -15.5673 996.255 0 -47.4241 792.274 0 -42.0903 569.94 0 -36.8593 400.026 0 -28.1499 279.604 0 -21.9086 196.96 0 -16.595 140.077 0 -12.641 100.862 0 -9.64882 73.5139 0 -7.41748 54.2109 0 -5.74754 40.3971 0 -4.48925 30.3793 0 -3.53315 23.0228 0 -2.79925 17.5597 0 -2.23042 13.463 0 -1.78548 10.3651 0 -1.43465 8.00617 0 -1.15618 6.19931 0 -0.93398 4.80849 0 -0.75601 3.73339 0 -0.613145 2.89916 0 -0.498391 2.2494 0 -0.406345 1.74124 0 -0.33281 1.34179 0 -0.27453 1.0256 0 -0.228998 0.772781 0 -0.194325 0.567607 0 -0.169143 0.397425 0 -0.152563 0.251823 0 -0.14412 0.121962 0 -0.143849 -2.08616e-07 0 328.274 -1.43051e-06 0 -18.6446 1000.4 0 -54.0841 791.84 0 -48.156 569.661 0 -42.1033 399.496 0 -32.1528 279.15 0 -25.0216 196.557 0 -18.947 139.745 0 -14.4316 100.593 0 -11.0137 73.2981 0 -8.46598 54.0388 0 -6.55936 40.2596 0 -5.12295 30.269 0 -4.0316 22.9336 0 -3.19394 17.4873 0 -2.54473 13.4037 0 -2.03693 10.3164 0 -1.63656 7.96588 0 -1.31877 6.16588 0 -1.06521 4.78069 0 -0.862133 3.71024 0 -0.699124 2.87987 0 -0.568199 2.23336 0 -0.46319 1.72793 0 -0.379306 1.33081 0 -0.312831 1.01662 0 -0.260899 0.765554 0 -0.221353 0.561943 0 -0.19263 0.393199 0 -0.173711 0.248973 0 -0.164062 0.120494 0 -0.163715 5.96046e-08 0 370.917 1.19209e-06 0 -22.0694 1005.09 0 -60.6934 791.337 0 -54.2451 569.348 0 -47.3376 398.894 0 -36.1487 278.636 0 -28.1278 196.101 0 -21.2916 139.369 0 -16.2163 100.288 0 -12.3732 73.0541 0 -9.51004 53.8442 0 -7.36748 40.1041 0 -5.75361 30.1442 0 -4.52755 22.8329 0 -3.58657 17.4054 0 -2.85732 13.3367 0 -2.28694 10.2613 0 -1.83725 7.92033 0 -1.48033 6.12809 0 -1.19556 4.74926 0 -0.967508 3.68407 0 -0.784461 2.85808 0 -0.637454 2.21523 0 -0.519556 1.7129 0 -0.425387 1.31841 0 -0.350767 1.00648 0 -0.292478 0.757394 0 -0.24809 0.555549 0 -0.215849 0.388429 0 -0.194603 0.245756 0 -0.183747 0.118839 0 -0.183309 1.19209e-07 0 414.136 2.38419e-07 0 -25.8891 1010.32 0 -67.2426 790.762 0 -60.3619 568.999 0 -52.5603 398.22 0 -40.137 278.063 0 -31.2261 195.591 0 -23.6278 138.949 0 -17.9941 99.9475 0 -13.7266 72.7818 0 -10.5491 53.6271 0 -8.17146 39.9307 0 -6.38087 30.0051 0 -5.0207 22.7206 0 -3.97687 17.3141 0 -3.16798 13.2621 0 -2.53534 10.1998 0 -2.03658 7.86956 0 -1.64074 6.08598 0 -1.32494 4.71425 0 -1.07205 3.65491 0 -0.869078 2.83379 0 -0.706089 2.19503 0 -0.575387 1.69615 0 -0.471001 1.30459 0 -0.388295 0.995194 0 -0.323694 0.748311 0 -0.274502 0.548434 0 -0.238767 0.383121 0 -0.215207 0.242178 0 -0.203144 0.116997 0 -0.2026 -8.9407e-08 0 458.002 -2.38419e-06 0 -30.1522 1016.11 0 -73.7212 790.11 0 -66.5112 568.618 0 -57.7691 397.472 0 -44.1173 277.431 0 -34.3157 195.027 0 -25.9548 138.486 0 -19.7645 99.572 0 -15.0733 72.4815 0 -11.5827 53.3877 0 -8.97085 39.7396 0 -7.00436 29.8517 0 -5.51074 22.5968 0 -4.36461 17.2135 0 -3.4765 13.1798 0 -2.78195 10.1322 0 -2.23441 7.81362 0 -1.79988 6.03958 0 -1.45323 4.67567 0 -1.17566 3.62279 0 -0.9529 2.80705 0 -0.774037 2.17279 0 -0.630624 1.67771 0 -0.516099 1.28939 0 -0.42537 0.982771 0 -0.35451 0.738317 0 -0.300553 0.540606 0 -0.261352 0.377284 0 -0.235494 0.238245 0 -0.222224 0.114973 0 -0.221555 8.9407e-08 0 502.586 2.86102e-06 0 -34.9093 1022.44 0 -80.1175 789.377 0 -72.6985 568.203 0 -62.9614 396.65 0 -48.0892 276.74 0 -37.3955 194.41 0 -28.2717 137.98 0 -21.5265 99.1614 0 -16.4126 72.1535 0 -12.6103 53.1262 0 -9.7652 39.5308 0 -7.62372 29.6843 0 -5.99737 22.4616 0 -4.74953 17.1037 0 -3.78268 13.0899 0 -3.0266 10.0583 0 -2.43059 7.75257 0 -1.95762 5.98895 0 -1.58033 4.63357 0 -1.27825 3.58774 0 -1.03585 2.77787 0 -0.841234 2.14853 0 -0.68521 1.6576 0 -0.560632 1.27281 0 -0.46195 0.969227 0 -0.384887 0.727424 0 -0.32621 0.532077 0 -0.283574 0.370927 0 -0.255432 0.233962 0 -0.240956 0.11277 0 -0.240143 -2.08616e-07 0 547.961 0 0 -40.2122 1029.31 0 -86.4182 788.558 0 -78.93 567.756 0 -68.1343 395.753 0 -52.0525 275.991 0 -40.4643 193.739 0 -30.5777 137.43 0 -23.2795 98.716 0 -17.7438 71.7977 0 -13.6312 52.8426 0 -10.5541 39.3045 0 -8.23859 29.5028 0 -6.4803 22.3152 0 -5.13139 16.9847 0 -4.08632 12.9926 0 -3.26913 9.97826 0 -2.62498 7.68644 0 -2.11384 5.93411 0 -1.70614 4.58799 0 -1.37974 3.5498 0 -1.11785 2.74629 0 -0.907615 2.12227 0 -0.739091 1.63584 0 -0.604551 1.25487 0 -0.497993 0.95458 0 -0.41479 0.715647 0 -0.351439 0.522858 0 -0.305401 0.364057 0 -0.274994 0.229335 0 -0.259311 0.110391 0 -0.258333 1.19209e-07 0 594.203 -1.43051e-06 0 -46.1151 1036.72 0 -92.6089 787.647 0 -85.2127 567.278 0 -73.2844 394.781 0 -56.0072 275.184 0 -43.521 193.015 0 -32.8719 136.839 0 -25.0228 98.2358 0 -19.0664 71.4146 0 -14.6451 52.5373 0 -11.337 39.0609 0 -8.84862 29.3075 0 -6.95923 22.1576 0 -5.50995 16.8566 0 -4.38722 12.8879 0 -3.50936 9.89216 0 -2.81744 7.61531 0 -2.26844 5.87513 0 -1.83057 4.53896 0 -1.48004 3.509 0 -1.19883 2.71233 0 -0.973117 2.09405 0 -0.79221 1.61245 0 -0.647808 1.2356 0 -0.533457 0.938847 0 -0.444179 0.703001 0 -0.376207 0.512962 0 -0.326803 0.356685 0 -0.29415 0.224372 0 -0.277262 0.107841 0 -0.276095 -2.38419e-07 0 641.389 9.53674e-07 0 -52.6739 1044.67 0 -98.673 786.64 0 -91.5545 566.77 0 -78.4079 393.732 0 -59.9537 274.32 0 -46.5644 192.238 0 -35.1535 136.204 0 -26.7555 97.7212 0 -20.3796 71.0043 0 -15.6514 52.2103 0 -12.1136 38.8002 0 -9.45344 29.0984 0 -7.43388 21.9889 0 -5.88498 16.7196 0 -4.68518 12.7759 0 -3.74713 9.80006 0 -3.00783 7.53922 0 -2.42128 5.81205 0 -1.9535 4.48654 0 -1.57907 3.46538 0 -1.27872 2.67603 0 -1.03768 2.06389 0 -0.844515 1.58747 0 -0.690358 1.21502 0 -0.568302 0.922046 0 -0.473021 0.6895 0 -0.400482 0.502402 0 -0.34775 0.348821 0 -0.312872 0.21908 0 -0.294778 0.105122 0 -0.2934 0 0 689.6 -9.53674e-07 0 -59.9471 1053.15 0 -104.592 785.531 0 -97.9641 566.233 0 -83.5003 392.607 0 -63.8923 273.399 0 -49.593 191.407 0 -37.422 135.528 0 -28.4769 97.1723 0 -21.6829 70.567 0 -16.6495 51.862 0 -12.8835 38.5225 0 -10.0527 28.8758 0 -7.90397 21.8093 0 -6.25623 16.5738 0 -4.98001 12.6567 0 -3.98229 9.70204 0 -3.19602 7.45825 0 -2.57225 5.74493 0 -2.07484 4.43076 0 -1.67674 3.41898 0 -1.35744 2.63743 0 -1.10123 2.03182 0 -0.895952 1.56091 0 -0.732153 1.19314 0 -0.602486 0.904199 0 -0.501279 0.675164 0 -0.424232 0.491192 0 -0.368213 0.340477 0 -0.331133 0.213467 0 -0.311835 0.102241 0 -0.31022 2.38419e-07 0 738.919 4.76837e-07 0 -67.9955 1062.16 0 -110.346 784.313 0 -104.452 565.666 0 -88.5565 391.403 0 -67.824 272.421 0 -52.6052 190.524 0 -39.6764 134.81 0 -30.1862 96.5895 0 -22.9756 70.103 0 -17.639 51.4924 0 -13.6461 38.228 0 -10.6461 28.6398 0 -8.36921 21.619 0 -6.62349 16.4192 0 -5.27151 12.5304 0 -4.21466 9.59818 0 -3.38187 7.37247 0 -2.72124 5.67383 0 -2.1945 4.37169 0 -1.77297 3.36984 0 -1.43493 2.59656 0 -1.16372 1.99787 0 -0.946469 1.5328 0 -0.773149 1.17 0 -0.635972 0.885326 0 -0.528918 0.66001 0 -0.447426 0.479347 0 -0.388165 0.331665 0 -0.348906 0.207542 0 -0.328404 0.0991996 0 -0.326526 -2.38419e-07 0 789.431 4.76837e-07 0 -76.8827 1071.7 0 -115.912 782.982 0 -111.028 565.072 0 -93.5707 390.121 0 -71.7499 271.387 0 -55.5995 189.587 0 -41.9164 134.051 0 -31.8826 95.9729 0 -24.2571 69.6127 0 -18.6194 51.1018 0 -14.4011 37.917 0 -11.2333 28.3905 0 -8.82932 21.4181 0 -6.98652 16.2561 0 -5.5595 12.397 0 -4.44411 9.48857 0 -3.56525 7.28195 0 -2.86815 5.59881 0 -2.31238 4.30938 0 -1.86768 3.31802 0 -1.51111 2.55347 0 -1.22509 1.96209 0 -0.996015 1.50318 0 -0.813302 1.14563 0 -0.668719 0.865451 0 -0.555906 0.644058 0 -0.470035 0.466884 0 -0.407578 0.322396 0 -0.366164 0.201314 0 -0.34446 0.0960047 0 -0.342292 2.98023e-07 0 841.227 -2.38419e-06 0 -86.6752 1081.76 0 -121.266 781.531 0 -117.707 564.45 0 -98.5362 388.76 0 -75.6716 270.297 0 -58.5738 188.597 0 -44.1414 133.25 0 -33.5653 95.3229 0 -25.5268 69.0961 0 -19.5901 50.6906 0 -15.1481 37.5896 0 -11.814 28.1282 0 -9.28404 21.2066 0 -7.3451 16.0844 0 -5.8438 12.2568 0 -4.67046 9.37329 0 -3.74603 7.18677 0 -3.01285 5.51995 0 -2.42838 4.24388 0 -1.96079 3.26356 0 -1.58592 2.50819 0 -1.28528 1.92451 0 -1.04454 1.47208 0 -0.852569 1.12004 0 -0.700692 0.844598 0 -0.582209 0.627327 0 -0.492028 0.453819 0 -0.426424 0.312684 0 -0.382883 0.194791 0 -0.359979 0.0926611 0 -0.357491 -1.19209e-07 0 894.399 3.8147e-06 0 -97.4425 1092.33 0 -126.378 779.955 0 -124.501 563.8 0 -103.445 387.32 0 -79.5913 269.152 0 -61.5261 187.555 0 -46.3509 132.409 0 -35.2334 94.6398 0 -26.7842 68.5538 0 -20.5507 50.2588 0 -15.8867 37.2461 0 -12.3878 27.8531 0 -9.7331 20.9849 0 -7.69902 15.9044 0 -6.12422 12.1097 0 -4.89358 9.25245 0 -3.92409 7.08701 0 -3.15525 5.4373 0 -2.54243 4.17525 0 -2.05222 3.20651 0 -1.65929 2.46078 0 -1.34423 1.88516 0 -1.092 1.43954 0 -0.890908 1.09327 0 -0.731854 0.82279 0 -0.607796 0.609839 0 -0.513379 0.440168 0 -0.444678 0.302544 0 -0.399038 0.187984 0 -0.374935 0.0891736 0 -0.3721 1.78814e-07 0 949.043 -3.8147e-06 0 -109.258 1103.41 0 -131.219 778.248 0 -131.428 563.124 0 -108.29 385.8 0 -83.5115 267.951 0 -64.4539 186.461 0 -48.5449 131.527 0 -36.8861 93.924 0 -28.0288 67.9859 0 -21.5006 49.807 0 -16.6164 36.8867 0 -12.9544 27.5653 0 -10.1762 20.7531 0 -8.04807 15.7162 0 -6.4006 11.956 0 -5.11331 9.12615 0 -4.0993 6.98275 0 -3.29524 5.35094 0 -2.65443 4.10355 0 -2.1419 3.14693 0 -1.73116 2.41127 0 -1.40188 1.84408 0 -1.13834 1.40558 0 -0.928277 1.06535 0 -0.76217 0.800055 0 -0.632634 0.591616 0 -0.534058 0.425953 0 -0.462315 0.291989 0 -0.414606 0.180903 0 -0.389307 0.0855482 0 -0.386093 -1.78814e-07 0 1005.26 2.86102e-06 0 -122.197 1114.99 0 -135.756 776.405 0 -138.504 562.42 0 -113.059 384.199 0 -87.4358 266.694 0 -67.3545 185.315 0 -50.7231 130.605 0 -38.5222 93.1759 0 -29.26 67.3927 0 -22.4394 49.3352 0 -17.337 36.5117 0 -13.5135 27.265 0 -10.6132 20.5113 0 -8.39204 15.52 0 -6.67275 11.7957 0 -5.32952 8.99448 0 -4.27154 6.87409 0 -3.43273 5.26094 0 -2.76429 4.02886 0 -2.22976 3.08487 0 -1.80147 2.35972 0 -1.4582 1.80133 0 -1.18351 1.37024 0 -0.964639 1.03631 0 -0.791604 0.77642 0 -0.656696 0.572681 0 -0.554039 0.411189 0 -0.47931 0.281034 0 -0.429563 0.173558 0 -0.403071 0.0817908 0 -0.399449 1.78814e-07 0 1063.16 -9.53674e-07 0 -136.342 1127.06 0 -139.949 774.421 0 -145.75 561.689 0 -117.742 382.519 0 -91.3681 265.382 0 -70.2246 184.118 0 -52.8857 129.642 0 -40.1407 92.396 0 -30.4774 66.7745 0 -23.3665 48.8439 0 -18.048 36.1213 0 -14.0647 26.9525 0 -11.0437 20.2597 0 -8.73071 15.3159 0 -6.94051 11.629 0 -5.54207 8.85756 0 -4.44071 6.76111 0 -3.5676 5.16739 0 -2.87194 3.95123 0 -2.31573 3.02039 0 -1.87015 2.30617 0 -1.51311 1.75694 0 -1.22749 1.33356 0 -0.999953 1.00619 0 -0.820124 0.751913 0 -0.67995 0.553058 0 -0.573297 0.395898 0 -0.495641 0.269695 0 -0.443888 0.165962 0 -0.416207 0.0779065 0 -0.412144 -1.78814e-07 0 1122.84 9.53674e-07 0 -151.775 1139.61 0 -143.76 772.291 0 -153.187 560.928 0 -122.327 380.76 0 -95.3134 264.013 0 -73.0606 182.871 0 -55.0332 128.639 0 -41.7405 91.5849 0 -31.6807 66.1315 0 -24.2815 48.3335 0 -18.7491 35.7157 0 -14.6079 26.6281 0 -11.4676 19.9985 0 -9.06391 15.104 0 -7.20373 11.4561 0 -5.75081 8.7155 0 -4.60668 6.64391 0 -3.69977 5.07037 0 -2.97729 3.87074 0 -2.39973 2.95354 0 -1.93715 2.25068 0 -1.56657 1.71096 0 -1.27021 1.29559 0 -1.03418 0.975011 0 -0.847698 0.726562 0 -0.70237 0.532771 0 -0.591807 0.380101 0 -0.511285 0.257987 0 -0.45756 0.158124 0 -0.428694 0.0739022 0 -0.424158 3.57628e-07 0 1184.42 -1.90735e-06 0 -168.587 1152.62 0 -147.143 770.012 0 -160.842 560.138 0 -126.799 378.922 0 -99.2777 262.589 0 -75.8583 181.574 0 -57.1662 127.596 0 -43.3202 90.7432 0 -32.8695 65.4641 0 -25.1837 47.8043 0 -19.4399 35.2952 0 -15.1427 26.2919 0 -11.8846 19.7279 0 -9.39143 14.8845 0 -7.46223 11.277 0 -5.95562 8.56842 0 -4.76934 6.52259 0 -3.82914 4.96996 0 -3.08025 3.78745 0 -2.4817 2.8844 0 -2.00241 2.19331 0 -1.61854 1.66343 0 -1.31163 1.25635 0 -1.06729 0.942816 0 -0.874295 0.700399 0 -0.723928 0.511847 0 -0.609545 0.363817 0 -0.526221 0.245928 0 -0.47056 0.150056 0 -0.440513 0.0697841 0 -0.435471 -3.57628e-07 0 1248.02 0 0 -186.87 1166.1 0 -150.048 767.581 0 -168.74 559.315 0 -131.14 377.008 0 -103.268 261.106 0 -78.6129 180.23 0 -59.2857 126.513 0 -44.8783 89.8718 0 -34.0436 64.7722 0 -26.0725 47.2569 0 -20.1203 34.8601 0 -15.6687 25.9442 0 -12.2945 19.4481 0 -9.71309 14.6577 0 -7.71587 11.0918 0 -6.15638 8.41643 0 -4.92859 6.39725 0 -3.95563 4.86624 0 -3.18077 3.70145 0 -2.56157 2.81303 0 -2.06587 2.1341 0 -1.66897 1.6144 0 -1.35173 1.2159 0 -1.09925 0.90964 0 -0.899884 0.673454 0 -0.744599 0.490311 0 -0.626488 0.347068 0 -0.540428 0.233535 0 -0.482868 0.141772 0 -0.451645 0.0655586 0 -0.446066 3.57628e-07 0 1313.77 9.53674e-07 0 -206.722 1180.01 0 -152.423 764.995 0 -176.914 558.457 0 -135.334 375.018 0 -107.293 259.564 0 -81.3186 178.839 0 -61.3932 125.389 0 -46.4131 88.9716 0 -35.203 64.0561 0 -26.9475 46.6916 0 -20.7898 34.4104 0 -16.1858 25.5855 0 -12.697 19.1593 0 -10.0287 14.4237 0 -7.9645 10.9008 0 -6.35295 8.25967 0 -5.08432 6.26799 0 -4.07914 4.7593 0 -3.27875 3.61281 0 -2.63928 2.73949 0 -2.12748 2.07312 0 -1.7178 1.56393 0 -1.39046 1.17428 0 -1.13002 0.875519 0 -0.924439 0.645758 0 -0.764359 0.468191 0 -0.642616 0.329878 0 -0.553888 0.220824 0 -0.494467 0.133282 0 -0.462074 0.0612322 0 -0.455924 -2.38419e-07 0 1381.8 0 0 -228.248 1194.35 0 -154.21 762.253 0 -185.397 557.559 0 -139.359 372.956 0 -111.363 257.961 0 -83.9691 177.403 0 -63.4907 124.223 0 -47.9227 88.0437 0 -36.3477 63.3156 0 -27.8078 46.1092 0 -21.4483 33.9465 0 -16.6935 25.2159 0 -13.0921 18.8617 0 -10.3381 14.1827 0 -8.20799 10.7041 0 -6.54522 8.09826 0 -5.23643 6.13492 0 -4.1996 4.64924 0 -3.37414 3.5216 0 -2.71478 2.66385 0 -2.18719 2.01042 0 -1.765 1.51206 0 -1.42777 1.13152 0 -1.15957 0.840493 0 -0.947931 0.617346 0 -0.783183 0.445514 0 -0.657907 0.312267 0 -0.566581 0.207813 0 -0.505339 0.1246 0 -0.471784 0.0568122 0 -0.465031 1.19209e-07 0 1452.24 -1.90735e-06 0 -251.556 1209.1 0 -155.343 759.355 0 -194.227 556.618 0 -143.192 370.826 0 -115.488 256.295 0 -86.5567 175.926 0 -65.5809 123.015 0 -49.4048 87.0897 0 -37.478 62.5506 0 -28.6527 45.5104 0 -22.0956 33.4683 0 -17.1915 24.8358 0 -13.4794 18.5554 0 -10.6411 13.9348 0 -8.44618 10.5018 0 -6.73307 7.93234 0 -5.38484 5.99814 0 -4.31691 4.53616 0 -3.46685 3.42791 0 -2.788 2.58617 0 -2.24495 1.94606 0 -1.81053 1.45884 0 -1.46365 1.08768 0 -1.18787 0.804599 0 -0.970335 0.58825 0 -0.80105 0.422307 0 -0.672343 0.294262 0 -0.57849 0.194521 0 -0.51547 0.115739 0 -0.48076 0.0523047 0 -0.473369 -2.38419e-07 0 1525.23 6.67572e-06 0 -276.762 1224.23 0 -155.754 756.302 0 -203.447 555.627 0 -146.807 368.631 0 -119.683 254.561 0 -89.0726 174.411 0 -67.6669 121.763 0 -50.8566 86.1112 0 -38.5942 61.7608 0 -29.4814 44.896 0 -22.7316 32.976 0 -17.6796 24.4458 0 -13.8588 18.2405 0 -10.9375 13.6804 0 -8.67896 10.2941 0 -6.91639 7.76205 0 -5.52944 5.85776 0 -4.43102 4.42014 0 -3.55684 3.33181 0 -2.85888 2.50654 0 -2.30071 1.8801 0 -1.85434 1.40433 0 -1.49804 1.0428 0 -1.21489 0.767879 0 -0.991626 0.558504 0 -0.817938 0.398602 0 -0.685904 0.275883 0 -0.589601 0.180967 0 -0.524844 0.106712 0 -0.488989 0.0477175 0 -0.480926 -2.38419e-07 0 1600.93 -3.8147e-06 0 -303.985 1239.72 0 -155.367 753.099 0 -213.102 554.578 0 -150.172 366.379 0 -123.964 252.755 0 -91.5067 172.861 0 -69.7531 120.465 0 -52.2751 85.1106 0 -39.6973 60.9454 0 -30.2928 44.2672 0 -23.3562 32.4695 0 -18.1573 24.0462 0 -14.2303 17.9172 0 -11.2271 13.4198 0 -8.90621 10.081 0 -7.09508 7.58756 0 -5.67015 5.71389 0 -4.54183 4.3013 0 -3.64402 3.23339 0 -2.92739 2.42502 0 -2.35443 1.81261 0 -1.89639 1.34858 0 -1.53093 0.996929 0 -1.24061 0.730372 0 -1.01178 0.528145 0 -0.833829 0.374426 0 -0.698575 0.257157 0 -0.599898 0.167169 0 -0.533449 0.0975317 0 -0.496458 0.0430573 0 -0.487689 4.76837e-07 0 </DataArray> 
</PointData> 
<Points> 
<DataArray type="Float32" NumberOfComponents="3"> 