<?xml version="1.0"?> 
<VTKFile type="StructuredGrid" version="0.1"> 
<StructuredGrid WholeExtent="0 31 0 31 0 0"> 
<Piece Extent="0 31 0 31 0 0"> 
<PointData>
<DataArray type="Float32" Name="|E|" format="ascii" NumberOfComponents="3"> 
-2.10217e+07 -310861 0 -2.12031e+07 -2.2998e+06 0 -2.16735e+07 -4.50967e+06 0 -2.25343e+07 -7.08034e+06 0 -2.4159e+07 -1.03286e+07 0 -2.79408e+07 -1.53342e+07 0 -3.90124e+07 -2.64871e+07 0 -1.98194e+08 -1.62307e+08 0 2.49863e+07 2.42356e+07 0 9.11995e+06 1.03366e+07 0 5.10868e+06 6.69682e+06 0 3.55076e+06 5.34131e+06 0 2.81653e+06 4.83279e+06 0 2.41641e+06 4.70807e+06 0 2.16191e+06 4.7672e+06 0 1.97181e+06 4.9098e+06 0 1.8097e+06 5.08178e+06 0 1.65959e+06 5.25345e+06 0 1.51514e+06 5.40918e+06 0 1.37449e+06 5.54175e+06 0 1.23772e+06 5.64891e+06 0 1.10563e+06 5.73133e+06 0 979070 5.79125e+06 0 858738 5.8316e+06 0 745077 5.85557e+06 0 638284 5.86624e+06 0 538349 5.86649e+06 0 445100 5.85892e+06 0 358250 5.84589e+06 0 277433 5.82953e+06 0 202233 5.81188e+06 0 132195 5.79494e+06 0 -1.05507e+07 9.91614e+06 0 -1.3112e+07 7.31992e+06 0 -5.74968e+06 1.70857e+07 0 -9.02129e+06 1.35697e+07 0 -9.09476e+06 1.38956e+07 0 -8.80376e+06 1.44791e+07 0 -8.59206e+06 1.49689e+07 0 -8.15137e+06 1.57829e+07 0 -6.12354e+06 1.68609e+07 0 -5.06317e+06 1.65972e+07 0 -4.00524e+06 1.61213e+07 0 -3.13116e+06 1.54122e+07 0 -2.3918e+06 1.45971e+07 0 -1.79192e+06 1.37349e+07 0 -1.31886e+06 1.28746e+07 0 -958796 1.2049e+07 0 -695126 1.12793e+07 0 -510830 1.0577e+07 0 -389634 9.94658e+06 0 -316917 9.38729e+06 0 -280156 8.89515e+06 0 -269052 8.46432e+06 0 -275424 8.08809e+06 0 -292976 7.75963e+06 0 -316991 7.47245e+06 0 -344026 7.22063e+06 0 -371625 6.99895e+06 0 -398070 6.80285e+06 0 -422173 6.62842e+06 0 -443111 6.4723e+06 0 -460305 6.33155e+06 0 -473278 6.20353e+06 0 -5.3974e+06 1.94241e+06 0 -5.55829e+06 2.08405e+06 0 -5.73138e+06 2.2589e+06 0 -5.86646e+06 2.49907e+06 0 -6.03114e+06 2.73968e+06 0 -6.17717e+06 3.03964e+06 0 -6.1596e+06 3.42465e+06 0 -6.19357e+06 3.62581e+06 0 -6.74258e+06 3.87696e+06 0 -6.77435e+06 4.63187e+06 0 -6.71657e+06 5.33993e+06 0 -6.50432e+06 6.00451e+06 0 -6.19074e+06 6.56781e+06 0 -5.80206e+06 7.01532e+06 0 -5.37019e+06 7.34281e+06 0 -4.9215e+06 7.55727e+06 0 -4.47747e+06 7.67193e+06 0 -4.05378e+06 7.70326e+06 0 -3.66077e+06 7.6685e+06 0 -3.30417e+06 7.58403e+06 0 -2.98608e+06 7.46432e+06 0 -2.70603e+06 7.32149e+06 0 -2.46176e+06 7.16523e+06 0 -2.25003e+06 7.00293e+06 0 -2.06713e+06 6.84003e+06 0 -1.90925e+06 6.68029e+06 0 -1.77278e+06 6.5262e+06 0 -1.65439e+06 6.37925e+06 0 -1.55116e+06 6.24023e+06 0 -1.46055e+06 6.10938e+06 0 -1.38044e+06 5.98665e+06 0 -1.30906e+06 5.8718e+06 0 -5.12611e+06 4.08446e+06 0 -5.01285e+06 4.11436e+06 0 -4.93438e+06 4.11414e+06 0 -4.86757e+06 4.1305e+06 0 -4.81176e+06 4.15327e+06 0 -4.7688e+06 4.17914e+06 0 -4.78264e+06 4.21683e+06 0 -4.77076e+06 4.35388e+06 0 -4.55751e+06 4.43945e+06 0 -4.49978e+06 4.39138e+06 0 -4.44859e+06 4.40333e+06 0 -4.41498e+06 4.45899e+06 0 -4.37337e+06 4.56023e+06 0 -4.31359e+06 4.69342e+06 0 -4.2283e+06 4.8442e+06 0 -4.11581e+06 4.99851e+06 0 -3.9781e+06 5.14471e+06 0 -3.81966e+06 5.27427e+06 0 -3.64624e+06 5.38188e+06 0 -3.46383e+06 5.46506e+06 0 -3.27797e+06 5.5236e+06 0 -3.09337e+06 5.55889e+06 0 -2.91369e+06 5.57332e+06 0 -2.74161e+06 5.56982e+06 0 -2.57883e+06 5.55143e+06 0 -2.42632e+06 5.52112e+06 0 -2.28444e+06 5.48155e+06 0 -2.15308e+06 5.43507e+06 0 -2.03184e+06 5.38365e+06 0 -1.92013e+06 5.3289e+06 0 -1.81724e+06 5.2721e+06 0 -1.72239e+06 5.21421e+06 0 -4.17737e+06 2.85114e+06 0 -4.23266e+06 2.96679e+06 0 -4.25745e+06 3.09096e+06 0 -4.26296e+06 3.20618e+06 0 -4.25324e+06 3.31767e+06 0 -4.23059e+06 3.4267e+06 0 -4.18148e+06 3.52639e+06 0 -4.13224e+06 3.59413e+06 0 -4.1475e+06 3.70465e+06 0 -4.10399e+06 3.85203e+06 0 -4.04457e+06 3.97473e+06 0 -3.9685e+06 4.08112e+06 0 -3.88385e+06 4.17325e+06 0 -3.79306e+06 4.25599e+06 0 -3.6974e+06 4.33255e+06 0 -3.59691e+06 4.40466e+06 0 -3.49139e+06 4.47264e+06 0 -3.3808e+06 4.53588e+06 0 -3.26551e+06 4.5933e+06 0 -3.14634e+06 4.64374e+06 0 -3.02442e+06 4.68623e+06 0 -2.9011e+06 4.72019e+06 0 -2.77775e+06 4.74539e+06 0 -2.6557e+06 4.76198e+06 0 -2.53609e+06 4.77043e+06 0 -2.41986e+06 4.7714e+06 0 -2.30774e+06 4.76569e+06 0 -2.20024e+06 4.75415e+06 0 -2.09766e+06 4.73765e+06 0 -2.00015e+06 4.71703e+06 0 -1.90775e+06 4.69305e+06 0 -1.82038e+06 4.66642e+06 0 -3.87835e+06 2.8087e+06 0 -3.83675e+06 2.85012e+06 0 -3.80978e+06 2.89837e+06 0 -3.78941e+06 2.95776e+06 0 -3.77013e+06 3.02488e+06 0 -3.74897e+06 3.09774e+06 0 -3.72938e+06 3.17901e+06 0 -3.70296e+06 3.27245e+06 0 -3.64501e+06 3.34452e+06 0 -3.59745e+06 3.41018e+06 0 -3.54881e+06 3.48544e+06 0 -3.49687e+06 3.56537e+06 0 -3.43885e+06 3.64699e+06 0 -3.37409e+06 3.72735e+06 0 -3.30267e+06 3.80446e+06 0 -3.22518e+06 3.87702e+06 0 -3.14238e+06 3.94422e+06 0 -3.05511e+06 4.00556e+06 0 -2.96421e+06 4.06072e+06 0 -2.87052e+06 4.1095e+06 0 -2.77488e+06 4.15183e+06 0 -2.67813e+06 4.18769e+06 0 -2.58104e+06 4.2172e+06 0 -2.48437e+06 4.24058e+06 0 -2.38879e+06 4.25813e+06 0 -2.2949e+06 4.27021e+06 0 -2.20317e+06 4.27728e+06 0 -2.11402e+06 4.2798e+06 0 -2.02773e+06 4.27825e+06 0 -1.94452e+06 4.27313e+06 0 -1.86452e+06 4.26488e+06 0 -1.7878e+06 4.25394e+06 0 -3.5122e+06 2.50171e+06 0 -3.51218e+06 2.57691e+06 0 -3.49948e+06 2.64986e+06 0 -3.47914e+06 2.72021e+06 0 -3.45435e+06 2.78976e+06 0 -3.42609e+06 2.85948e+06 0 -3.39268e+06 2.92774e+06 0 -3.35585e+06 2.99387e+06 0 -3.3245e+06 3.0709e+06 0 -3.28394e+06 3.14772e+06 0 -3.23643e+06 3.22046e+06 0 -3.18381e+06 3.29028e+06 0 -3.12691e+06 3.35777e+06 0 -3.0661e+06 3.42305e+06 0 -3.00152e+06 3.4859e+06 0 -2.93335e+06 3.54588e+06 0 -2.86186e+06 3.60248e+06 0 -2.78741e+06 3.65526e+06 0 -2.71047e+06 3.70382e+06 0 -2.63155e+06 3.7479e+06 0 -2.5512e+06 3.78731e+06 0 -2.46996e+06 3.82199e+06 0 -2.38839e+06 3.85195e+06 0 -2.30699e+06 3.8773e+06 0 -2.22623e+06 3.89821e+06 0 -2.14652e+06 3.91491e+06 0 -2.06823e+06 3.92766e+06 0 -1.99166e+06 3.93678e+06 0 -1.91704e+06 3.94257e+06 0 -1.84458e+06 3.94535e+06 0 -1.7744e+06 3.94545e+06 0 -1.70659e+06 3.94317e+06 0 -3.26898e+06 2.33886e+06 0 -3.24652e+06 2.39663e+06 0 -3.22699e+06 2.45805e+06 0 -3.2067e+06 2.52242e+06 0 -3.18359e+06 2.58851e+06 0 -3.15706e+06 2.65553e+06 0 -3.12759e+06 2.72391e+06 0 -3.09469e+06 2.79317e+06 0 -3.05481e+06 2.85778e+06 0 -3.01282e+06 2.92304e+06 0 -2.96845e+06 2.98856e+06 0 -2.92053e+06 3.05338e+06 0 -2.86899e+06 3.11662e+06 0 -2.8139e+06 3.17771e+06 0 -2.7555e+06 3.23621e+06 0 -2.69411e+06 3.2918e+06 0 -2.63007e+06 3.34417e+06 0 -2.56375e+06 3.39309e+06 0 -2.49555e+06 3.43838e+06 0 -2.42587e+06 3.47989e+06 0 -2.35515e+06 3.51754e+06 0 -2.28379e+06 3.55131e+06 0 -2.2122e+06 3.58124e+06 0 -2.14075e+06 3.60741e+06 0 -2.0698e+06 3.62995e+06 0 -1.99966e+06 3.64905e+06 0 -1.9306e+06 3.66488e+06 0 -1.86286e+06 3.67767e+06 0 -1.79663e+06 3.68766e+06 0 -1.73207e+06 3.69508e+06 0 -1.6693e+06 3.70016e+06 0 -1.60839e+06 3.70313e+06 0 -3.04313e+06 2.17641e+06 0 -3.0288e+06 2.23901e+06 0 -3.00931e+06 2.30165e+06 0 -2.9866e+06 2.36457e+06 0 -2.96136e+06 2.42803e+06 0 -2.93349e+06 2.49199e+06 0 -2.90258e+06 2.55583e+06 0 -2.8685e+06 2.61944e+06 0 -2.83252e+06 2.68446e+06 0 -2.79295e+06 2.74795e+06 0 -2.74967e+06 2.81009e+06 0 -2.70338e+06 2.87069e+06 0 -2.65418e+06 2.92961e+06 0 -2.60224e+06 2.98655e+06 0 -2.54773e+06 3.04121e+06 0 -2.49088e+06 3.0933e+06 0 -2.43194e+06 3.14258e+06 0 -2.37123e+06 3.18884e+06 0 -2.30907e+06 3.23193e+06 0 -2.24579e+06 3.27176e+06 0 -2.18172e+06 3.30826e+06 0 -2.11722e+06 3.34144e+06 0 -2.05259e+06 3.37133e+06 0 -1.98814e+06 3.398e+06 0 -1.92414e+06 3.42158e+06 0 -1.86085e+06 3.44219e+06 0 -1.79848e+06 3.46e+06 0 -1.73722e+06 3.47518e+06 0 -1.67723e+06 3.48791e+06 0 -1.61863e+06 3.49839e+06 0 -1.56153e+06 3.5068e+06 0 -1.50601e+06 3.51333e+06 0 -2.85619e+06 2.04206e+06 0 -2.83663e+06 2.10237e+06 0 -2.81618e+06 2.1638e+06 0 -2.79352e+06 2.226e+06 0 -2.76822e+06 2.28862e+06 0 -2.74021e+06 2.35139e+06 0 -2.70953e+06 2.41425e+06 0 -2.67619e+06 2.47686e+06 0 -2.63964e+06 2.53821e+06 0 -2.60045e+06 2.59916e+06 0 -2.55878e+06 2.65901e+06 0 -2.51442e+06 2.71748e+06 0 -2.46752e+06 2.77421e+06 0 -2.41823e+06 2.82896e+06 0 -2.36676e+06 2.88147e+06 0 -2.31333e+06 2.93154e+06 0 -2.25821e+06 2.97899e+06 0 -2.20165e+06 3.02367e+06 0 -2.14395e+06 3.06547e+06 0 -2.08538e+06 3.10433e+06 0 -2.02624e+06 3.14022e+06 0 -1.96681e+06 3.17314e+06 0 -1.90736e+06 3.20315e+06 0 -1.84812e+06 3.2303e+06 0 -1.78934e+06 3.25471e+06 0 -1.73121e+06 3.27649e+06 0 -1.67393e+06 3.29578e+06 0 -1.61764e+06 3.31272e+06 0 -1.56247e+06 3.32747e+06 0 -1.50854e+06 3.34019e+06 0 -1.45592e+06 3.35104e+06 0 -1.40468e+06 3.36018e+06 0 -2.68666e+06 1.92161e+06 0 -2.66807e+06 1.98232e+06 0 -2.6467e+06 2.04358e+06 0 -2.62306e+06 2.10524e+06 0 -2.59716e+06 2.16716e+06 0 -2.56887e+06 2.22914e+06 0 -2.53809e+06 2.29087e+06 0 -2.50476e+06 2.35213e+06 0 -2.46907e+06 2.41296e+06 0 -2.43087e+06 2.47262e+06 0 -2.39015e+06 2.53107e+06 0 -2.34713e+06 2.58803e+06 0 -2.30193e+06 2.64329e+06 0 -2.25469e+06 2.69661e+06 0 -2.20561e+06 2.74778e+06 0 -2.15489e+06 2.79663e+06 0 -2.10275e+06 2.84301e+06 0 -2.04945e+06 2.88679e+06 0 -1.99523e+06 2.92791e+06 0 -1.94035e+06 2.96631e+06 0 -1.88505e+06 3.00198e+06 0 -1.82958e+06 3.03494e+06 0 -1.77417e+06 3.06523e+06 0 -1.71902e+06 3.09292e+06 0 -1.66435e+06 3.11811e+06 0 -1.61031e+06 3.14091e+06 0 -1.55706e+06 3.16143e+06 0 -1.50473e+06 3.17981e+06 0 -1.45344e+06 3.19618e+06 0 -1.40328e+06 3.21069e+06 0 -1.35431e+06 3.22347e+06 0 -1.30659e+06 3.23465e+06 0 -2.53509e+06 1.81276e+06 0 -2.51488e+06 1.8738e+06 0 -2.49297e+06 1.93529e+06 0 -2.46892e+06 1.99708e+06 0 -2.44266e+06 2.05897e+06 0 -2.41415e+06 2.12074e+06 0 -2.38337e+06 2.18221e+06 0 -2.35032e+06 2.24311e+06 0 -2.31495e+06 2.30312e+06 0 -2.27735e+06 2.36218e+06 0 -2.23763e+06 2.41993e+06 0 -2.19584e+06 2.47619e+06 0 -2.15212e+06 2.53071e+06 0 -2.10663e+06 2.58331e+06 0 -2.05954e+06 2.6338e+06 0 -2.01106e+06 2.68204e+06 0 -1.96139e+06 2.72791e+06 0 -1.91076e+06 2.77131e+06 0 -1.8594e+06 2.81219e+06 0 -1.80753e+06 2.8505e+06 0 -1.75538e+06 2.88625e+06 0 -1.70315e+06 2.91947e+06 0 -1.65104e+06 2.9502e+06 0 -1.59925e+06 2.97851e+06 0 -1.54794e+06 3.00449e+06 0 -1.49726e+06 3.02824e+06 0 -1.44735e+06 3.04987e+06 0 -1.39831e+06 3.0695e+06 0 -1.35024e+06 3.08725e+06 0 -1.30323e+06 3.10326e+06 0 -1.25732e+06 3.11764e+06 0 -1.21257e+06 3.13053e+06 0 -2.39528e+06 1.71303e+06 0 -2.37463e+06 1.7747e+06 0 -2.35197e+06 1.83678e+06 0 -2.32737e+06 1.89903e+06 0 -2.30075e+06 1.96128e+06 0 -2.27207e+06 2.02331e+06 0 -2.24129e+06 2.08489e+06 0 -2.20841e+06 2.14582e+06 0 -2.17349e+06 2.20588e+06 0 -2.13655e+06 2.26479e+06 0 -2.09767e+06 2.32238e+06 0 -2.05695e+06 2.37841e+06 0 -2.01454e+06 2.43271e+06 0 -1.97058e+06 2.48508e+06 0 -1.92524e+06 2.53537e+06 0 -1.8787e+06 2.58346e+06 0 -1.83117e+06 2.62924e+06 0 -1.78284e+06 2.67263e+06 0 -1.73393e+06 2.7136e+06 0 -1.68464e+06 2.75211e+06 0 -1.63516e+06 2.78817e+06 0 -1.5857e+06 2.82182e+06 0 -1.53641e+06 2.85311e+06 0 -1.48748e+06 2.8821e+06 0 -1.43904e+06 2.90889e+06 0 -1.39123e+06 2.93355e+06 0 -1.34416e+06 2.95621e+06 0 -1.29793e+06 2.97698e+06 0 -1.25263e+06 2.99596e+06 0 -1.20832e+06 3.01327e+06 0 -1.16505e+06 3.02904e+06 0 -1.12287e+06 3.04337e+06 0 -2.26551e+06 1.6201e+06 0 -2.24392e+06 1.68287e+06 0 -2.22065e+06 1.7459e+06 0 -2.19556e+06 1.80902e+06 0 -2.16861e+06 1.87203e+06 0 -2.13976e+06 1.93473e+06 0 -2.10901e+06 1.9969e+06 0 -2.07637e+06 2.05831e+06 0 -2.04185e+06 2.11874e+06 0 -2.00552e+06 2.17799e+06 0 -1.96746e+06 2.23584e+06 0 -1.92778e+06 2.2921e+06 0 -1.88659e+06 2.34659e+06 0 -1.84404e+06 2.39913e+06 0 -1.8003e+06 2.44961e+06 0 -1.75554e+06 2.49789e+06 0 -1.70994e+06 2.5439e+06 0 -1.66368e+06 2.58757e+06 0 -1.61696e+06 2.62887e+06 0 -1.56996e+06 2.66779e+06 0 -1.52287e+06 2.70434e+06 0 -1.47584e+06 2.73855e+06 0 -1.42905e+06 2.77048e+06 0 -1.38263e+06 2.80021e+06 0 -1.33672e+06 2.8278e+06 0 -1.29143e+06 2.85337e+06 0 -1.24687e+06 2.877e+06 0 -1.20312e+06 2.8988e+06 0 -1.16025e+06 2.91889e+06 0 -1.11833e+06 2.93737e+06 0 -1.07739e+06 2.95436e+06 0 -1.03748e+06 2.96996e+06 0 -2.14318e+06 1.53267e+06 0 -2.12081e+06 1.59681e+06 0 -2.09685e+06 1.66117e+06 0 -2.07126e+06 1.72554e+06 0 -2.044e+06 1.78971e+06 0 -2.01503e+06 1.85347e+06 0 -1.98434e+06 1.9166e+06 0 -1.95195e+06 1.9789e+06 0 -1.91789e+06 2.04013e+06 0 -1.88221e+06 2.10009e+06 0 -1.84499e+06 2.15859e+06 0 -1.80633e+06 2.21543e+06 0 -1.76635e+06 2.27045e+06 0 -1.72518e+06 2.3235e+06 0 -1.68298e+06 2.37445e+06 0 -1.6399e+06 2.42321e+06 0 -1.59612e+06 2.46969e+06 0 -1.5518e+06 2.51386e+06 0 -1.50711e+06 2.55568e+06 0 -1.46223e+06 2.59516e+06 0 -1.41732e+06 2.6323e+06 0 -1.37253e+06 2.66717e+06 0 -1.328e+06 2.6998e+06 0 -1.28387e+06 2.73028e+06 0 -1.24025e+06 2.75868e+06 0 -1.19724e+06 2.78511e+06 0 -1.15494e+06 2.80965e+06 0 -1.11342e+06 2.83242e+06 0 -1.07275e+06 2.85351e+06 0 -1.03297e+06 2.87305e+06 0 -994134 2.89112e+06 0 -956262 2.90784e+06 0 -2.02675e+06 1.44938e+06 0 -2.00345e+06 1.51533e+06 0 -1.9788e+06 1.58141e+06 0 -1.95271e+06 1.64743e+06 0 -1.92516e+06 1.71316e+06 0 -1.89611e+06 1.77838e+06 0 -1.86555e+06 1.84289e+06 0 -1.83349e+06 1.90644e+06 0 -1.79996e+06 1.96884e+06 0 -1.765e+06 2.02987e+06 0 -1.72868e+06 2.08934e+06 0 -1.69111e+06 2.14708e+06 0 -1.65238e+06 2.20293e+06 0 -1.61261e+06 2.25674e+06 0 -1.57195e+06 2.30842e+06 0 -1.53054e+06 2.35786e+06 0 -1.48854e+06 2.40501e+06 0 -1.44609e+06 2.44982e+06 0 -1.40336e+06 2.4923e+06 0 -1.3605e+06 2.53243e+06 0 -1.31766e+06 2.57025e+06 0 -1.27497e+06 2.60581e+06 0 -1.23256e+06 2.63916e+06 0 -1.19056e+06 2.67039e+06 0 -1.14906e+06 2.69958e+06 0 -1.10815e+06 2.72683e+06 0 -1.06793e+06 2.75222e+06 0 -1.02846e+06 2.77587e+06 0 -989793 2.79788e+06 0 -951977 2.81836e+06 0 -915048 2.8374e+06 0 -879034 2.85512e+06 0 -1.91469e+06 1.36925e+06 0 -1.8904e+06 1.43742e+06 0 -1.865e+06 1.50568e+06 0 -1.83842e+06 1.57378e+06 0 -1.81062e+06 1.64152e+06 0 -1.78156e+06 1.70863e+06 0 -1.75122e+06 1.77491e+06 0 -1.7196e+06 1.84011e+06 0 -1.68672e+06 1.90403e+06 0 -1.65261e+06 1.96646e+06 0 -1.61732e+06 2.02722e+06 0 -1.58094e+06 2.08612e+06 0 -1.54356e+06 2.14304e+06 0 -1.50528e+06 2.19784e+06 0 -1.46623e+06 2.25041e+06 0 -1.42653e+06 2.3007e+06 0 -1.38632e+06 2.34864e+06 0 -1.34575e+06 2.39421e+06 0 -1.30496e+06 2.43741e+06 0 -1.26407e+06 2.47826e+06 0 -1.22323e+06 2.51678e+06 0 -1.18256e+06 2.55305e+06 0 -1.14218e+06 2.58711e+06 0 -1.10218e+06 2.61907e+06 0 -1.06268e+06 2.649e+06 0 -1.02375e+06 2.677e+06 0 -985469 2.70317e+06 0 -947895 2.72763e+06 0 -911083 2.75046e+06 0 -875074 2.77178e+06 0 -839903 2.79169e+06 0 -805593 2.81029e+06 0 -1.80573e+06 1.29133e+06 0 -1.78033e+06 1.36225e+06 0 -1.75413e+06 1.4332e+06 0 -1.72707e+06 1.50392e+06 0 -1.69909e+06 1.57414e+06 0 -1.67013e+06 1.64361e+06 0 -1.64016e+06 1.71209e+06 0 -1.60915e+06 1.77933e+06 0 -1.5771e+06 1.84513e+06 0 -1.54402e+06 1.90927e+06 0 -1.50995e+06 1.97158e+06 0 -1.47494e+06 2.0319e+06 0 -1.43907e+06 2.09008e+06 0 -1.40241e+06 2.14602e+06 0 -1.36508e+06 2.19964e+06 0 -1.32719e+06 2.25087e+06 0 -1.28885e+06 2.29968e+06 0 -1.2502e+06 2.34606e+06 0 -1.21135e+06 2.39001e+06 0 -1.17243e+06 2.43157e+06 0 -1.13356e+06 2.47079e+06 0 -1.09486e+06 2.50773e+06 0 -1.05643e+06 2.54247e+06 0 -1.01837e+06 2.5751e+06 0 -980763 2.60571e+06 0 -943697 2.6344e+06 0 -907235 2.66127e+06 0 -871436 2.68644e+06 0 -836349 2.71e+06 0 -802014 2.73208e+06 0 -768464 2.75276e+06 0 -735722 2.77214e+06 0 -1.69867e+06 1.21479e+06 0 -1.672e+06 1.28909e+06 0 -1.64495e+06 1.36336e+06 0 -1.61745e+06 1.43728e+06 0 -1.58939e+06 1.51056e+06 0 -1.56071e+06 1.58291e+06 0 -1.53132e+06 1.65406e+06 0 -1.50117e+06 1.72376e+06 0 -1.47021e+06 1.79179e+06 0 -1.43843e+06 1.85794e+06 0 -1.40583e+06 1.92205e+06 0 -1.37243e+06 1.98396e+06 0 -1.33828e+06 2.04357e+06 0 -1.30344e+06 2.10076e+06 0 -1.268e+06 2.15549e+06 0 -1.23204e+06 2.20771e+06 0 -1.19567e+06 2.25741e+06 0 -1.159e+06 2.30458e+06 0 -1.12214e+06 2.34927e+06 0 -1.0852e+06 2.39151e+06 0 -1.04829e+06 2.43138e+06 0 -1.01153e+06 2.46894e+06 0 -974998 2.50428e+06 0 -938798 2.5375e+06 0 -903011 2.5687e+06 0 -867710 2.59799e+06 0 -832963 2.62548e+06 0 -798824 2.65127e+06 0 -765343 2.67548e+06 0 -732558 2.69822e+06 0 -700503 2.71958e+06 0 -669202 2.73967e+06 0 -1.59231e+06 1.13875e+06 0 -1.56418e+06 1.21723e+06 0 -1.53623e+06 1.29561e+06 0 -1.50835e+06 1.37349e+06 0 -1.4804e+06 1.4505e+06 0 -1.45225e+06 1.52633e+06 0 -1.42376e+06 1.60067e+06 0 -1.39481e+06 1.67325e+06 0 -1.36531e+06 1.74385e+06 0 -1.33518e+06 1.81229e+06 0 -1.30439e+06 1.8784e+06 0 -1.27291e+06 1.94205e+06 0 -1.24077e+06 2.00316e+06 0 -1.20799e+06 2.06166e+06 0 -1.17463e+06 2.11751e+06 0 -1.14077e+06 2.1707e+06 0 -1.10649e+06 2.22124e+06 0 -1.07189e+06 2.26916e+06 0 -1.03707e+06 2.3145e+06 0 -1.00213e+06 2.35735e+06 0 -967185 2.39777e+06 0 -932323 2.43585e+06 0 -897644 2.4717e+06 0 -863236 2.50542e+06 0 -829180 2.53712e+06 0 -795550 2.56692e+06 0 -762412 2.59493e+06 0 -729821 2.62126e+06 0 -697827 2.64603e+06 0 -666472 2.66934e+06 0 -635789 2.69131e+06 0 -605806 2.71203e+06 0 -1.48541e+06 1.06236e+06 0 -1.45553e+06 1.14603e+06 0 -1.42664e+06 1.22951e+06 0 -1.39854e+06 1.31227e+06 0 -1.37099e+06 1.39385e+06 0 -1.34377e+06 1.47386e+06 0 -1.31663e+06 1.55195e+06 0 -1.28937e+06 1.62786e+06 0 -1.26181e+06 1.70137e+06 0 -1.2338e+06 1.77231e+06 0 -1.20525e+06 1.84056e+06 0 -1.17608e+06 1.90602e+06 0 -1.14627e+06 1.96865e+06 0 -1.11583e+06 2.02842e+06 0 -1.08479e+06 2.08533e+06 0 -1.0532e+06 2.1394e+06 0 -1.02115e+06 2.19067e+06 0 -988705 2.23922e+06 0 -955975 2.28511e+06 0 -923056 2.32843e+06 0 -890050 2.36928e+06 0 -857054 2.40777e+06 0 -824165 2.44401e+06 0 -791472 2.47812e+06 0 -759058 2.51021e+06 0 -726997 2.54042e+06 0 -695357 2.56886e+06 0 -664198 2.59564e+06 0 -633571 2.62089e+06 0 -603522 2.64472e+06 0 -574088 2.66722e+06 0 -545300 2.68851e+06 0 -1.37646e+06 984494 0 -1.34456e+06 1.07481e+06 0 -1.31472e+06 1.16473e+06 0 -1.28665e+06 1.25356e+06 0 -1.25997e+06 1.34072e+06 0 -1.23426e+06 1.42571e+06 0 -1.20913e+06 1.50819e+06 0 -1.18423e+06 1.58787e+06 0 -1.15926e+06 1.66457e+06 0 -1.13397e+06 1.73817e+06 0 -1.10819e+06 1.8086e+06 0 -1.08179e+06 1.87584e+06 0 -1.0547e+06 1.9399e+06 0 -1.0269e+06 2.00081e+06 0 -998418 2.05862e+06 0 -969282 2.11341e+06 0 -939568 2.16525e+06 0 -909359 2.21426e+06 0 -878751 2.26052e+06 0 -847848 2.30416e+06 0 -816752 2.34529e+06 0 -785567 2.38405e+06 0 -754392 2.42055e+06 0 -723323 2.45493e+06 0 -692445 2.48732e+06 0 -661840 2.51784e+06 0 -631580 2.54662e+06 0 -601728 2.57378e+06 0 -572343 2.59944e+06 0 -543473 2.62371e+06 0 -515162 2.6467e+06 0 -487445 2.66851e+06 0 -1.26386e+06 904157 0 -1.22937e+06 1.00287e+06 0 -1.19867e+06 1.10103e+06 0 -1.17112e+06 1.1975e+06 0 -1.14604e+06 1.29149e+06 0 -1.12275e+06 1.38243e+06 0 -1.10057e+06 1.46993e+06 0 -1.07895e+06 1.55377e+06 0 -1.05741e+06 1.63384e+06 0 -1.03557e+06 1.71013e+06 0 -1.01319e+06 1.78267e+06 0 -990066 1.85153e+06 0 -966108 1.91681e+06 0 -941273 1.97863e+06 0 -915568 2.0371e+06 0 -889040 2.09236e+06 0 -861763 2.14454e+06 0 -833830 2.19378e+06 0 -805346 2.24021e+06 0 -776425 2.28399e+06 0 -747179 2.32524e+06 0 -717723 2.36411e+06 0 -688165 2.40074e+06 0 -658608 2.43527e+06 0 -629148 2.46784e+06 0 -599872 2.49858e+06 0 -570861 2.52762e+06 0 -542185 2.55509e+06 0 -513909 2.5811e+06 0 -486087 2.60577e+06 0 -458769 2.62921e+06 0 -431998 2.65153e+06 0 -1.1448e+06 819123 0 -1.10756e+06 929455 0 -1.07622e+06 1.03838e+06 0 -1.05004e+06 1.14458e+06 0 -1.02778e+06 1.24697e+06 0 -1.00825e+06 1.3449e+06 0 -990373 1.43804e+06 0 -973254 1.52631e+06 0 -956203 1.60977e+06 0 -938711 1.68859e+06 0 -920427 1.76296e+06 0 -901132 1.83311e+06 0 -880709 1.89926e+06 0 -859120 1.96163e+06 0 -836388 2.02043e+06 0 -812579 2.07585e+06 0 -787787 2.12808e+06 0 -762127 2.17729e+06 0 -735727 2.22367e+06 0 -708716 2.26737e+06 0 -681228 2.30856e+06 0 -653389 2.34739e+06 0 -625325 2.38401e+06 0 -597148 2.41858e+06 0 -568968 2.45124e+06 0 -540881 2.48212e+06 0 -512977 2.51135e+06 0 -485335 2.53907e+06 0 -458028 2.5654e+06 0 -431118 2.59044e+06 0 -404662 2.61431e+06 0 -378708 2.63712e+06 0 -1.01767e+06 728743 0 -975578 853671 0 -944322 977095 0 -921063 1.09585e+06 0 -903615 1.20856e+06 0 -889898 1.31457e+06 0 -878190 1.4138e+06 0 -867174 1.5065e+06 0 -855907 1.59307e+06 0 -843753 1.67397e+06 0 -830315 1.74967e+06 0 -815374 1.82058e+06 0 -798843 1.88709e+06 0 -780725 1.94955e+06 0 -761086 2.00824e+06 0 -740038 2.06344e+06 0 -717714 2.11538e+06 0 -694269 2.16429e+06 0 -669859 2.21036e+06 0 -644645 2.25378e+06 0 -618782 2.29473e+06 0 -592420 2.33337e+06 0 -565700 2.36987e+06 0 -538752 2.40438e+06 0 -511697 2.43703e+06 0 -484646 2.46799e+06 0 -457697 2.49737e+06 0 -430941 2.5253e+06 0 -404457 2.55191e+06 0 -378319 2.57732e+06 0 -352589 2.60162e+06 0 -327324 2.62492e+06 0 -872603 625554 0 -828690 774922 0 -798665 918213 0 -781237 1.05336e+06 0 -771885 1.17855e+06 0 -767055 1.29353e+06 0 -764086 1.39889e+06 0 -761171 1.49555e+06 0 -757161 1.5845e+06 0 -751382 1.66668e+06 0 -743487 1.74289e+06 0 -733342 1.81382e+06 0 -720956 1.88003e+06 0 -706425 1.94199e+06 0 -689900 2.00008e+06 0 -671564 2.05464e+06 0 -651616 2.10595e+06 0 -630258 2.15426e+06 0 -607693 2.19978e+06 0 -584116 2.24272e+06 0 -559712 2.28326e+06 0 -534655 2.32158e+06 0 -509107 2.35784e+06 0 -483217 2.39219e+06 0 -457119 2.42479e+06 0 -430938 2.45577e+06 0 -404784 2.48526e+06 0 -378758 2.51339e+06 0 -352949 2.54028e+06 0 -327439 2.56605e+06 0 -302299 2.5908e+06 0 -277594 2.61462e+06 0 -716889 514935 0 -657279 691900 0 -633116 864289 0 -626923 1.02087e+06 0 -631156 1.16064e+06 0 -639712 1.28479e+06 0 -648822 1.39543e+06 0 -656317 1.49479e+06 0 -661076 1.58477e+06 0 -662608 1.66695e+06 0 -660791 1.74256e+06 0 -655706 1.81255e+06 0 -647549 1.87766e+06 0 -636573 1.93847e+06 0 -623056 1.99543e+06 0 -607282 2.04892e+06 0 -589530 2.09924e+06 0 -570067 2.14666e+06 0 -549146 2.19141e+06 0 -527004 2.23369e+06 0 -503859 2.27368e+06 0 -479911 2.31156e+06 0 -455345 2.3475e+06 0 -430326 2.38163e+06 0 -405007 2.41412e+06 0 -379523 2.44509e+06 0 -353997 2.47468e+06 0 -328541 2.50301e+06 0 -303254 2.53019e+06 0 -278226 2.55635e+06 0 -253539 2.58157e+06 0 -229265 2.60597e+06 0 -490208 360009 0 -451459 607412 0 -437888 821213 0 -454225 1.00521e+06 0 -480914 1.16046e+06 0 -509126 1.29221e+06 0 -534251 1.40578e+06 0 -554480 1.50543e+06 0 -569278 1.59432e+06 0 -578739 1.67475e+06 0 -583222 1.74834e+06 0 -583188 1.81628e+06 0 -579120 1.87941e+06 0 -571488 1.93839e+06 0 -560732 1.99368e+06 0 -547260 2.04569e+06 0 -531442 2.0947e+06 0 -513618 2.14099e+06 0 -494095 2.18476e+06 0 -473152 2.22622e+06 0 -451040 2.26555e+06 0 -427987 2.30291e+06 0 -404197 2.33846e+06 0 -379854 2.37233e+06 0 -355126 2.40468e+06 0 -330160 2.43564e+06 0 -305092 2.46533e+06 0 -280043 2.49387e+06 0 -255123 2.52138e+06 0 -230431 2.54796e+06 0 -206058 2.57372e+06 0 -182087 2.59876e+06 0 -299643 212773 0 -167665 521578 0 -201356 802957 0 -260053 1.01853e+06 0 -323446 1.18597e+06 0 -378795 1.32027e+06 0 -423765 1.43201e+06 0 -458416 1.52814e+06 0 -483849 1.61304e+06 0 -501267 1.68956e+06 0 -511810 1.75954e+06 0 -516468 1.82425e+06 0 -516089 1.88454e+06 0 -511399 1.94104e+06 0 -503021 1.99419e+06 0 -491491 2.04434e+06 0 -477276 2.09177e+06 0 -460784 2.13672e+06 0 -442377 2.17937e+06 0 -422371 2.2199e+06 0 -401049 2.25848e+06 0 -378662 2.29526e+06 0 -355434 2.33037e+06 0 -331566 2.36397e+06 0 -307237 2.39618e+06 0 -282608 2.42713e+06 0 -257824 2.45694e+06 0 -233017 2.48573e+06 0 -208307 2.51361e+06 0 -183803 2.54068e+06 0 -159606 2.56705e+06 0 -135808 2.5928e+06 0 337721 -144151 0 206175 479471 0 97049.9 841101 0 -50266.7 1.08015e+06 0 -166188 1.24681e+06 0 -255809 1.37261e+06 0 -322378 1.47503e+06 0 -371617 1.56249e+06 0 -407071 1.64e+06 0 -431664 1.71029e+06 0 -447464 1.7751e+06 0 -456074 1.83549e+06 0 -458727 1.89217e+06 0 -456406 1.94564e+06 0 -449904 1.99626e+06 0 -439879 2.04428e+06 0 -426883 2.08993e+06 0 -411384 2.13338e+06 0 -393787 2.1748e+06 0 -374442 2.21433e+06 0 -353659 2.25211e+06 0 -331706 2.28827e+06 0 -308823 2.32295e+06 0 -285225 2.35627e+06 0 -261102 2.38835e+06 0 -236625 2.41932e+06 0 -211951 2.44929e+06 0 -187220 2.47838e+06 0 -162562 2.50669e+06 0 -138097 2.53433e+06 0 -113935 2.5614e+06 0 -90182.2 2.58797e+06 0 512588 -381500 0 1.00302e+06 579449 0 407226 990300 0 163178 1.21906e+06 0 -30714.7 1.34841e+06 0 -149556 1.45034e+06 0 -236721 1.53319e+06 0 -297612 1.60662e+06 0 -341085 1.67333e+06 0 -371108 1.73535e+06 0 -390816 1.79365e+06 0 -402296 1.84885e+06 0 -407115 1.90135e+06 0 -406456 1.95141e+06 0 -401250 1.99922e+06 0 -392245 2.04493e+06 0 -380054 2.08867e+06 0 -365191 2.13055e+06 0 -348092 2.17068e+06 0 -329131 2.20918e+06 0 -308632 2.24614e+06 0 -286881 2.28169e+06 0 -264127 2.31593e+06 0 -240595 2.34899e+06 0 -216485 2.38098e+06 0 -191976 2.41201e+06 0 -167234 2.44219e+06 0 -142411 2.47165e+06 0 -117644 2.50047e+06 0 -93066.3 2.52877e+06 0 -68799.3 2.55664e+06 0 -44961 2.58416e+06 0 9.28695e+06 -480696 0 1.23178e+06 1.26342e+06 0 748182 1.35409e+06 0 277327 1.43946e+06 0 69484.2 1.48685e+06 0 -74406.6 1.54698e+06 0 -171485 1.60172e+06 0 -239344 1.65665e+06 0 -287114 1.71026e+06 0 -320183 1.7626e+06 0 -342024 1.81359e+06 0 -355082 1.8631e+06 0 -361079 1.91111e+06 0 -361317 1.95756e+06 0 -356796 2.00245e+06 0 -348312 2.04578e+06 0 -336514 2.08756e+06 0 -321935 2.12785e+06 0 -305028 2.16668e+06 0 -286179 2.20414e+06 0 -265720 2.24029e+06 0 -243944 2.27524e+06 0 -221107 2.30908e+06 0 -197441 2.34191e+06 0 -173150 2.37385e+06 0 -148425 2.405e+06 0 -123438 2.43547e+06 0 -98349.7 2.46537e+06 0 -73311.6 2.4948e+06 0 -48465.8 2.52388e+06 0 -23951.5 2.55268e+06 0 109.372 2.58129e+06 0 </DataArray> 
</PointData> 
<Points> 
<DataArray type="Float32" NumberOfComponents="3"> 