<?xml version="1.0"?> 
<VTKFile type="StructuredGrid" version="0.1"> 
<StructuredGrid WholeExtent="0 31 0 31 0 0"> 
<Piece Extent="0 31 0 31 0 0"> 
<PointData>
<DataArray type="Float32" Name="|E|" format="ascii" NumberOfComponents="3"> 
972083 222863 0 940707 213947 0 910698 205086 0 882023 196305 0 854656 187629 0 828567 179073 0 803727 170650 0 780108 162369 0 757681 154235 0 736419 146251 0 716296 138419 0 697286 130736 0 679363 123202 0 662505 115812 0 646688 108562 0 631891 101447 0 618093 94460.4 0 605275 87595.9 0 593419 80846.6 0 582509 74205.2 0 572528 67664 0 563462 61215.3 0 555298 54851.1 0 548024 48563.2 0 541629 42343.3 0 536105 36183.1 0 531442 30074.2 0 527634 24008 0 524676 17976.1 0 522562 11969.8 0 521290 5980.62 0 520858 0 0 970091 227485 0 938755 218419 0 908786 209407 0 880155 200477 0 852832 191650 0 826787 182945 0 801992 174374 0 778416 165945 0 756033 157664 0 734813 149533 0 714731 141555 0 695760 133726 0 677875 126047 0 661052 118512 0 645269 111117 0 630503 103857 0 616734 96725 0 603944 89715.5 0 592113 82821 0 581225 76034.1 0 571264 69346.9 0 562215 62751.7 0 554067 56240.1 0 546805 49803.9 0 540421 43434.7 0 534904 37123.9 0 530247 30862.9 0 526441 24643.1 0 523482 18455.6 0 521366 12291.8 0 520088 6142.87 0 519647 0 0 968069 232099 0 936771 222882 0 906844 213719 0 878256 204638 0 850977 195662 0 824977 186808 0 800226 178088 0 776695 169512 0 754355 161083 0 733178 152806 0 713136 144681 0 694204 136708 0 676357 128883 0 659569 121203 0 643820 113663 0 629085 106258 0 615346 98982.4 0 602583 91828.3 0 590777 84789 0 579911 77857 0 569970 71024.4 0 560939 64283 0 552805 57624.5 0 545557 51040.6 0 539182 44522.5 0 533673 38061.6 0 529020 31649 0 525217 25276 0 522257 18933.6 0 520137 12612.7 0 518853 6304.57 0 518404 0 0 966017 236704 0 934758 227335 0 904871 218021 0 876326 208789 0 849092 199664 0 823137 190661 0 798431 181793 0 774944 173068 0 752647 164493 0 731512 156070 0 711511 147799 0 692619 139680 0 674809 131710 0 658057 123885 0 642341 116201 0 627638 108653 0 613929 101232 0 601192 93934.3 0 589411 86750.7 0 578567 79674 0 568646 72696.2 0 559633 65809.1 0 551514 59004.3 0 544278 52273 0 537913 45606.5 0 532410 38996 0 527762 32432.4 0 523960 25906.7 0 521000 19409.8 0 518876 12932.6 0 517586 6465.69 0 517127 0 0 963933 241300 0 932713 231779 0 902868 222313 0 874367 212931 0 847176 203655 0 821266 194503 0 796605 185487 0 773163 176615 0 750909 167893 0 729817 159323 0 709857 150907 0 691004 142643 0 673231 134528 0 656516 126560 0 640833 118732 0 626162 111039 0 612481 103475 0 599772 96033.3 0 588015 88705.8 0 577194 81484.9 0 567292 74362.5 0 558296 67330.1 0 550192 60379.3 0 542968 53501.2 0 536613 46686.8 0 531117 39927.2 0 526473 33213 0 522673 26535.2 0 519711 19884.4 0 517583 13251.2 0 516285 6626.24 0 515816 0 0 961819 245887 0 930638 236213 0 900835 226595 0 872377 217062 0 845231 207636 0 819366 198335 0 794749 189171 0 771351 180151 0 749142 171283 0 728092 162567 0 708173 154006 0 689359 145597 0 671624 137338 0 654944 129225 0 639296 121254 0 624656 113418 0 611005 105711 0 598322 98125.3 0 586590 90654.3 0 575791 83289.6 0 565909 76023 0 556930 68845.9 0 548840 61749.6 0 541628 54725.1 0 535282 47763.3 0 529793 40855 0 525153 33990.9 0 521354 27161.5 0 518390 20357.3 0 516257 13568.7 0 514952 6786.2 0 514473 0 0 959673 250465 0 928531 240637 0 898770 230866 0 870356 221182 0 843255 211607 0 817435 202157 0 792864 192844 0 769511 183677 0 747345 174662 0 726337 165801 0 706459 157094 0 687685 148541 0 669988 140138 0 653344 131882 0 637729 123768 0 623121 115788 0 609498 107938 0 596843 100210 0 585135 92596.1 0 574358 85088.1 0 564496 77677.7 0 555534 70356.3 0 547459 63115 0 540258 55944.6 0 533921 48835.9 0 528439 41779.5 0 523802 34765.9 0 520003 27785.4 0 517038 20828.4 0 514900 13885.1 0 513587 6945.57 0 513096 0 0 957497 255033 0 926394 245051 0 896675 235128 0 868305 225292 0 841249 215567 0 815474 205967 0 790949 196507 0 767640 187193 0 745518 178032 0 724553 169025 0 704716 160174 0 685982 151476 0 668322 142930 0 651714 134530 0 636132 126273 0 621556 118151 0 607963 110159 0 595334 102288 0 583651 94531.1 0 572896 86880.2 0 563053 79326.5 0 554108 71861.3 0 546047 64475.5 0 538858 57159.7 0 532530 49904.6 0 527053 42700.7 0 522419 35538.1 0 518621 28407.1 0 515653 21297.8 0 513510 14200.2 0 512189 7104.33 0 511687 0 0 955289 259591 0 924226 249455 0 894550 239379 0 866224 229392 0 839213 219516 0 813484 209768 0 789003 200159 0 765739 190698 0 743661 181391 0 722739 172239 0 702944 163243 0 684249 154402 0 666627 145712 0 650054 137170 0 634507 128770 0 619962 120506 0 606398 112371 0 593796 104358 0 582137 96459.3 0 571404 88665.9 0 561581 80969.5 0 552652 73360.9 0 544605 65831 0 537428 58370.3 0 531108 50969.4 0 525637 43618.3 0 521006 36307.3 0 517209 29026.3 0 514237 21765.4 0 512089 14514.1 0 510758 7262.48 0 510244 0 0 953050 264139 0 922027 253848 0 892394 243619 0 864112 233480 0 837146 223454 0 811463 213557 0 787028 203800 0 763809 194193 0 741775 184739 0 720895 175442 0 701142 166302 0 682486 157317 0 664903 148485 0 648366 139800 0 632852 131258 0 618338 122852 0 604804 114576 0 592229 106421 0 580594 98380.5 0 569883 90445.2 0 560079 82606.3 0 551167 74854.9 0 543134 67181.4 0 535967 59576.4 0 529656 52030.1 0 524191 44532.5 0 519563 37073.6 0 515764 29643.2 0 512790 22231.1 0 510635 14826.9 0 509295 7420 0 508769 0 0 950779 268677 0 919797 258231 0 890207 247849 0 861969 237558 0 835049 227381 0 809412 217335 0 785023 207431 0 761849 197676 0 739859 188077 0 719022 178635 0 699310 169351 0 680695 160223 0 663149 151248 0 646648 142421 0 631168 133737 0 616686 125190 0 603181 116772 0 590632 108477 0 579022 100295 0 568332 92217.8 0 558547 84237.1 0 549652 76343.3 0 541633 68526.8 0 534477 60777.9 0 528174 53086.7 0 522714 45443.1 0 518088 37836.9 0 514289 30257.7 0 511311 22695 0 509150 15138.3 0 507800 7576.89 0 507260 0 0 948478 273205 0 917536 262603 0 887989 252067 0 859796 241625 0 832922 231298 0 807331 221102 0 782987 211050 0 759859 201149 0 737913 191404 0 717120 181818 0 697450 172390 0 678874 163119 0 661366 154002 0 644901 145033 0 629455 136208 0 615004 127520 0 601528 118961 0 589007 110525 0 577421 102202 0 566753 93983.8 0 556987 85861.7 0 548107 77826 0 540102 69867 0 532957 61974.7 0 526662 54139.2 0 521207 46350.2 0 516583 38597.2 0 512783 30869.7 0 509801 23157.1 0 507632 15448.5 0 506272 7733.15 0 505719 0 0 946144 277722 0 915244 266965 0 885740 256275 0 857593 245680 0 830765 235202 0 805220 224858 0 780923 214658 0 757840 204610 0 735938 194720 0 715188 184990 0 695559 175419 0 677024 166005 0 659554 156746 0 643125 147636 0 627713 138669 0 613294 129841 0 599847 121142 0 587352 112565 0 575790 104102 0 565144 95743.1 0 555396 87480.1 0 546533 79302.9 0 538541 71201.9 0 531407 63166.8 0 525120 55187.6 0 519669 47253.6 0 515047 39354.4 0 511246 31479.2 0 508260 23617.2 0 506084 15757.4 0 504713 7888.75 0 504146 0 0 943779 282229 0 912921 271315 0 883461 260471 0 855359 249724 0 828577 239095 0 803079 228602 0 778828 218254 0 755790 208061 0 733934 198026 0 713227 188151 0 693640 178437 0 675144 168881 0 657713 159480 0 641320 150229 0 625941 141122 0 611554 132153 0 598136 123314 0 585668 114597 0 574130 105994 0 563505 97495.6 0 553777 89092.1 0 544930 80774.1 0 536951 72531.5 0 529827 64354.2 0 523547 56231.6 0 518102 48153.4 0 513481 40108.5 0 509679 32086.2 0 506688 24075.5 0 504503 16065.1 0 503121 8043.7 0 502540 0 0 941383 286725 0 910566 275654 0 881150 264655 0 853094 253756 0 826359 242977 0 800907 232334 0 776703 221840 0 753712 211500 0 731900 201320 0 711237 191301 0 691692 181444 0 673236 171746 0 655843 162204 0 639486 152812 0 624141 143565 0 609786 134457 0 596397 125478 0 583955 116622 0 572442 107879 0 561838 99241.1 0 552129 90697.7 0 543298 82239.3 0 535332 73855.7 0 528218 65536.6 0 521945 57271.4 0 516504 49049.4 0 511885 40859.5 0 508080 32690.7 0 505084 24531.8 0 502891 16371.4 0 501498 8197.98 0 500901 0 0 938954 291210 0 908180 279982 0 878809 268828 0 850799 257776 0 824111 246847 0 798706 236055 0 774549 225413 0 751603 214927 0 729837 204603 0 709217 194441 0 689714 184441 0 671299 174601 0 653944 164918 0 637623 155386 0 622312 146000 0 607988 136751 0 594629 127634 0 582214 118639 0 570724 109757 0 560142 100980 0 550451 92296.9 0 541636 83698.6 0 533683 75174.5 0 526579 66714.2 0 520313 58306.9 0 514876 49941.6 0 510258 41607.2 0 506451 33292.6 0 503449 24986.1 0 501248 16676.3 0 499843 8351.58 0 499231 0 0 936494 295684 0 905763 284298 0 876437 272990 0 848474 261785 0 821833 250705 0 796475 239764 0 772365 228975 0 749465 218343 0 727744 207874 0 707168 197569 0 687707 187427 0 669332 177446 0 652016 167622 0 635731 157950 0 620455 148425 0 606162 139037 0 592832 129781 0 580443 120647 0 568978 111627 0 558417 102711 0 548744 93889.4 0 539945 85151.8 0 532004 76487.8 0 524911 67886.8 0 518652 59337.9 0 513218 50830 0 508601 42351.8 0 504791 33891.8 0 501784 25438.4 0 499573 16980 0 498155 8504.5 0 497528 0 0 934002 300146 0 903314 288603 0 874034 277139 0 846117 265781 0 819524 254550 0 794214 243461 0 770151 232524 0 747298 221747 0 725622 211134 0 705090 200686 0 685671 190402 0 667337 180280 0 650059 170316 0 633811 160505 0 618568 150840 0 604307 141314 0 591006 131920 0 578644 122648 0 567203 113490 0 556663 104436 0 547009 95475.4 0 538225 86598.9 0 530297 77795.5 0 523213 69054.4 0 516961 60364.5 0 511531 51714.6 0 506913 43093.1 0 503101 34488.4 0 500088 25888.8 0 497868 17282.2 0 496437 8656.73 0 495792 0 0 931479 304596 0 900834 292895 0 871600 281276 0 843731 269765 0 817185 258384 0 791923 247146 0 767907 236062 0 745101 225140 0 723470 214382 0 702983 203791 0 683607 193366 0 665313 183103 0 648073 172999 0 631862 163049 0 616653 153246 0 602424 143582 0 589152 134050 0 576817 124640 0 565399 115345 0 554880 106153 0 545244 97054.6 0 536476 88039.8 0 528560 79097.6 0 521486 70216.9 0 515240 61386.6 0 509813 52595.2 0 505196 43831 0 501381 35082.3 0 498361 26337 0 496131 17583.1 0 494686 8808.25 0 494025 0 0 928923 309035 0 898323 297175 0 869135 285401 0 841313 273737 0 814816 262205 0 789602 250818 0 765634 239587 0 742875 228520 0 721290 217619 0 700846 206885 0 681513 196319 0 663260 185916 0 646059 175672 0 629884 165583 0 614709 155642 0 600512 145840 0 587269 136171 0 574960 126624 0 563566 117192 0 553069 107863 0 543451 98627 0 534698 89474.5 0 526795 80393.9 0 519729 71374.3 0 513490 62404.1 0 508066 53471.8 0 503449 44565.6 0 499630 35673.5 0 496603 26783.2 0 494363 17882.6 0 492905 8959.06 0 492226 0 0 926336 313462 0 895781 301443 0 866639 289513 0 838866 277696 0 812417 266013 0 787251 254478 0 763331 243101 0 740619 231888 0 719080 220843 0 698681 209968 0 679390 199260 0 661178 188717 0 644016 178335 0 627877 168107 0 612737 158028 0 598571 148090 0 585358 138283 0 573075 128600 0 561705 119031 0 551229 109565 0 541629 100193 0 532891 90902.8 0 525000 81684.5 0 517944 72526.5 0 511711 63417 0 506289 54344.5 0 501671 45296.8 0 497849 36261.9 0 494815 27227.3 0 492564 18180.7 0 491092 9109.16 0 490395 0 0 923716 317876 0 893207 305699 0 864113 293612 0 836387 281642 0 809987 269809 0 784871 258125 0 760999 246601 0 738334 235244 0 716841 224056 0 696487 213038 0 677239 202190 0 659068 191507 0 641944 180986 0 625842 170621 0 610736 160405 0 596602 150329 0 583418 140387 0 571162 130567 0 559816 120862 0 549360 111260 0 539779 101751 0 531056 92324.7 0 523177 82969.3 0 516130 73673.4 0 509902 64425.3 0 504483 55213.1 0 499865 46024.6 0 496038 36847.6 0 492996 27669.3 0 490734 18477.3 0 489247 9258.52 0 488533 0 0 921065 322278 0 890601 309941 0 861555 297699 0 833878 285576 0 807527 273591 0 782460 261759 0 758637 250089 0 736020 238587 0 714573 227256 0 694264 216097 0 675059 205108 0 656929 194286 0 639844 183627 0 623779 173124 0 608707 162771 0 594605 152559 0 581450 142481 0 569221 132526 0 557898 122685 0 547463 112947 0 537900 103303 0 529192 93740.2 0 521325 84248.2 0 514286 74815 0 508064 65428.8 0 502648 56077.6 0 498028 46749 0 494197 37430.4 0 491147 28109.2 0 488874 18772.5 0 487372 9407.15 0 486638 0 0 918381 326667 0 887964 314171 0 858966 301772 0 831339 289496 0 805038 277361 0 780020 265380 0 756245 253564 0 733676 241917 0 712276 230444 0 692012 219143 0 672850 208015 0 654761 197054 0 637716 186257 0 621687 175617 0 606650 165128 0 592580 154780 0 579454 144566 0 567251 134476 0 555952 124500 0 545538 114627 0 535992 104847 0 527299 95149.2 0 519444 85521 0 512414 75951.2 0 506197 66427.6 0 500783 56938 0 496162 47469.8 0 492326 38010.4 0 489268 28546.9 0 486983 19066.2 0 485466 9555.04 0 484713 0 0 915666 331044 0 885296 318387 0 856347 305832 0 828769 293403 0 802518 281117 0 777550 268988 0 753824 257026 0 731303 245235 0 709950 233619 0 689731 222178 0 670613 210909 0 652565 199810 0 635559 188876 0 619567 178099 0 604564 167474 0 590526 156991 0 577429 146642 0 565253 136417 0 553977 126306 0 543584 116299 0 534056 106385 0 525378 96551.5 0 517534 86787.9 0 510513 77082 0 504301 67421.5 0 498889 57794.1 0 494266 48187.1 0 490425 38587.5 0 487359 28982.4 0 485062 19358.4 0 483528 9702.17 0 482756 0 0 912918 335407 0 882596 322591 0 853696 309879 0 826169 297296 0 799968 284860 0 775050 272583 0 751374 260475 0 728901 248540 0 707595 236782 0 687421 225200 0 668347 213792 0 650341 202555 0 633374 191483 0 617419 180571 0 602451 169810 0 588444 159192 0 575377 148708 0 563227 138349 0 551975 128105 0 541603 117963 0 532092 107915 0 523428 97947.2 0 515596 88048.7 0 508583 78207.3 0 502376 68410.6 0 496966 58646 0 492341 48900.7 0 488495 39161.7 0 485420 29415.6 0 483110 19649.1 0 481560 9848.53 0 480767 0 0 910138 339756 0 879865 326780 0 851015 313912 0 823538 301176 0 797388 288589 0 772521 276164 0 748894 263910 0 726470 251832 0 705212 239932 0 685083 228210 0 666052 216663 0 648088 205288 0 631161 194080 0 615243 183031 0 600309 172135 0 586334 161383 0 573296 150765 0 561173 140273 0 549945 129894 0 539593 119620 0 530100 109438 0 521451 99336.1 0 513630 89303.3 0 506625 79327 0 500423 69394.7 0 495013 59493.7 0 490387 49610.8 0 486535 39732.9 0 483451 29846.7 0 481128 19938.3 0 479561 9994.13 0 478748 0 0 907327 344093 0 877102 330956 0 848303 317931 0 820877 305042 0 794778 292304 0 769962 279732 0 746386 267333 0 724010 255111 0 702799 243069 0 682717 231207 0 663730 219521 0 645807 208009 0 628919 196665 0 613039 185481 0 598140 174450 0 584197 163564 0 571188 152813 0 559091 142187 0 547886 131676 0 537555 121268 0 528080 110953 0 519445 100718 0 511635 90551.7 0 504638 80441.2 0 498441 70373.9 0 493032 60337 0 488404 50317.2 0 484546 40301.2 0 481452 30275.4 0 479115 20226 0 477532 10138.9 0 476697 0 0 904483 348415 0 874308 335117 0 845559 321936 0 818186 308893 0 792138 296006 0 767373 283286 0 743847 270741 0 721521 258376 0 700358 246193 0 680321 234191 0 661378 222368 0 643498 210718 0 626650 199238 0 610807 187919 0 595942 176754 0 582031 165735 0 569052 154851 0 556981 144092 0 545800 133449 0 535489 122909 0 526032 112461 0 517411 102093 0 509612 91793.8 0 502623 81549.6 0 496430 71348 0 491023 61175.9 0 486391 51019.9 0 482527 40866.5 0 479423 30701.9 0 477073 20512.1 0 475472 10283 0 474616 0 0 901607 352723 0 871482 339265 0 842785 325927 0 815464 312731 0 789469 299693 0 764755 286826 0 741280 274136 0 719004 261628 0 697888 249304 0 677898 237163 0 658999 225201 0 641161 213415 0 624352 201800 0 608547 190346 0 593717 179048 0 579838 167895 0 566888 156879 0 554844 145988 0 543686 135213 0 533396 124541 0 523956 113961 0 515349 103462 0 507561 93029.6 0 500579 82652.4 0 494391 72317.1 0 488984 62010.4 0 484350 51718.9 0 480479 41428.7 0 477365 31126.1 0 475001 20796.7 0 473382 10426.2 0 472504 0 0 898699 357016 0 868625 343398 0 839981 329903 0 812711 316554 0 786769 303366 0 762107 290351 0 738684 277517 0 716457 264866 0 695390 252401 0 675446 240121 0 656592 228022 0 638795 216100 0 622027 204349 0 606259 192762 0 591464 181331 0 577617 170045 0 564696 158897 0 552679 147875 0 541545 136968 0 531275 126165 0 521852 115454 0 513259 104823 0 505483 94258.9 0 498508 83749.3 0 492323 73281 0 486917 62840.4 0 482279 52414 0 478402 41987.9 0 475277 31547.9 0 472899 21079.7 0 471261 10568.6 0 470361 0 0 895759 361295 0 865736 347516 0 837145 333865 0 809929 320362 0 784040 307025 0 759430 293863 0 736058 280884 0 713882 268091 0 692863 255486 0 672966 243067 0 654156 230831 0 636402 218773 0 619674 206888 0 603943 195167 0 589183 183602 0 575369 172185 0 562477 160905 0 550486 149752 0 539376 138714 0 529126 127781 0 519720 116939 0 511142 106177 0 503376 95481.8 0 496408 84840.4 0 490227 74239.7 0 484821 63666 0 480181 53105.4 0 476296 42544 0 473160 31967.3 0 470767 21361 0 469111 10710.2 0 468187 0 0 </DataArray> 
</PointData> 
<Points> 
<DataArray type="Float32" NumberOfComponents="3"> 