<?xml version="1.0"?> 
<VTKFile type="StructuredGrid" version="0.1"> 
<StructuredGrid WholeExtent="0 31 0 31 0 0"> 
<Piece Extent="0 31 0 31 0 0"> 
<PointData>
<DataArray type="Float32" Name="|E|" format="ascii" NumberOfComponents="3"> 
-1.65882e+06 1.60302e+06 0 -1.69329e+06 1.63174e+06 0 -1.72896e+06 1.6578e+06 0 -1.76563e+06 1.68065e+06 0 -1.80285e+06 1.69984e+06 0 -1.84006e+06 1.71501e+06 0 -1.87666e+06 1.72589e+06 0 -1.91197e+06 1.73243e+06 0 -1.94534e+06 1.73474e+06 0 -1.97621e+06 1.73316e+06 0 -2.00412e+06 1.72818e+06 0 -2.02881e+06 1.72046e+06 0 -2.05015e+06 1.71071e+06 0 -2.06819e+06 1.69975e+06 0 -2.08303e+06 1.68838e+06 0 -2.09481e+06 1.67747e+06 0 -2.10356e+06 1.66787e+06 0 -2.10907e+06 1.6605e+06 0 -2.11075e+06 1.65628e+06 0 -2.10733e+06 1.65601e+06 0 -2.09664e+06 1.6602e+06 0 -2.07528e+06 1.6684e+06 0 -2.03867e+06 1.67825e+06 0 -1.98195e+06 1.68389e+06 0 -1.90258e+06 1.67474e+06 0 -1.80476e+06 1.63663e+06 0 -1.70268e+06 1.55647e+06 0 -1.61968e+06 1.42726e+06 0 -1.58352e+06 1.24386e+06 0 -1.62167e+06 986390 0 -1.73299e+06 583098 0 -1.74206e+06 -7.15256e-07 0 -1.65266e+06 1.62512e+06 0 -1.6888e+06 1.65341e+06 0 -1.72629e+06 1.67877e+06 0 -1.76478e+06 1.70065e+06 0 -1.80377e+06 1.71858e+06 0 -1.84265e+06 1.73221e+06 0 -1.8807e+06 1.74131e+06 0 -1.91721e+06 1.74589e+06 0 -1.95146e+06 1.74616e+06 0 -1.98287e+06 1.74254e+06 0 -2.011e+06 1.73564e+06 0 -2.0356e+06 1.72616e+06 0 -2.05661e+06 1.71491e+06 0 -2.07408e+06 1.7027e+06 0 -2.08817e+06 1.69034e+06 0 -2.09903e+06 1.67865e+06 0 -2.1067e+06 1.66844e+06 0 -2.11098e+06 1.66052e+06 0 -2.11124e+06 1.65565e+06 0 -2.10625e+06 1.65449e+06 0 -2.09393e+06 1.65726e+06 0 -2.07114e+06 1.66327e+06 0 -2.03379e+06 1.66996e+06 0 -1.97781e+06 1.67161e+06 0 -1.90153e+06 1.6585e+06 0 -1.8094e+06 1.6181e+06 0 -1.71469e+06 1.53906e+06 0 -1.63915e+06 1.41527e+06 0 -1.61045e+06 1.24126e+06 0 -1.6577e+06 995687 0 -1.7886e+06 598712 0 -1.80976e+06 -1935.08 0 -1.64679e+06 1.64792e+06 0 -1.68476e+06 1.67575e+06 0 -1.72418e+06 1.70036e+06 0 -1.7646e+06 1.72119e+06 0 -1.80546e+06 1.73775e+06 0 -1.84605e+06 1.7497e+06 0 -1.88559e+06 1.75688e+06 0 -1.92326e+06 1.75936e+06 0 -1.95832e+06 1.75746e+06 0 -1.99018e+06 1.75171e+06 0 -2.0184e+06 1.74281e+06 0 -2.0428e+06 1.73156e+06 0 -2.06333e+06 1.71878e+06 0 -2.08013e+06 1.70531e+06 0 -2.09339e+06 1.69197e+06 0 -2.10327e+06 1.6795e+06 0 -2.10983e+06 1.66866e+06 0 -2.11286e+06 1.66015e+06 0 -2.11175e+06 1.65461e+06 0 -2.10529e+06 1.65251e+06 0 -2.09152e+06 1.65386e+06 0 -2.06751e+06 1.65776e+06 0 -2.02968e+06 1.66151e+06 0 -1.97462e+06 1.6596e+06 0 -1.90133e+06 1.64312e+06 0 -1.81437e+06 1.60095e+06 0 -1.72622e+06 1.52327e+06 0 -1.65724e+06 1.40477e+06 0 -1.63529e+06 1.23991e+06 0 -1.6909e+06 1.00624e+06 0 -1.84202e+06 616310 0 -1.87793e+06 -4230.81 0 -1.64123e+06 1.67147e+06 0 -1.68119e+06 1.69881e+06 0 -1.72266e+06 1.72262e+06 0 -1.76515e+06 1.7423e+06 0 -1.80797e+06 1.75737e+06 0 -1.85034e+06 1.7675e+06 0 -1.89136e+06 1.7726e+06 0 -1.93015e+06 1.77283e+06 0 -1.96595e+06 1.76863e+06 0 -1.99813e+06 1.76064e+06 0 -2.02633e+06 1.74968e+06 0 -2.05037e+06 1.7366e+06 0 -2.07032e+06 1.72228e+06 0 -2.08634e+06 1.70757e+06 0 -2.09867e+06 1.69324e+06 0 -2.10751e+06 1.68001e+06 0 -2.11293e+06 1.66853e+06 0 -2.11473e+06 1.65942e+06 0 -2.11229e+06 1.65318e+06 0 -2.10447e+06 1.65012e+06 0 -2.08939e+06 1.65008e+06 0 -2.0644e+06 1.65195e+06 0 -2.02629e+06 1.65299e+06 0 -1.97225e+06 1.6479e+06 0 -1.90183e+06 1.62855e+06 0 -1.81959e+06 1.58506e+06 0 -1.73726e+06 1.5089e+06 0 -1.67402e+06 1.39556e+06 0 -1.65815e+06 1.23962e+06 0 -1.72135e+06 1.01782e+06 0 -1.89311e+06 635891 0 -1.94684e+06 -6949.42 0 -1.63601e+06 1.69586e+06 0 -1.6781e+06 1.72268e+06 0 -1.72179e+06 1.74562e+06 0 -1.76647e+06 1.76405e+06 0 -1.81136e+06 1.77747e+06 0 -1.85556e+06 1.78561e+06 0 -1.89806e+06 1.78844e+06 0 -1.93793e+06 1.78625e+06 0 -1.97436e+06 1.77961e+06 0 -2.00675e+06 1.76929e+06 0 -2.03476e+06 1.75619e+06 0 -2.05833e+06 1.74126e+06 0 -2.07755e+06 1.72541e+06 0 -2.09268e+06 1.70946e+06 0 -2.10401e+06 1.69416e+06 0 -2.11177e+06 1.68016e+06 0 -2.11603e+06 1.66805e+06 0 -2.1166e+06 1.65833e+06 0 -2.1129e+06 1.65139e+06 0 -2.10381e+06 1.64737e+06 0 -2.08757e+06 1.64595e+06 0 -2.06176e+06 1.6459e+06 0 -2.02355e+06 1.64444e+06 0 -1.97062e+06 1.63654e+06 0 -1.90291e+06 1.61475e+06 0 -1.82494e+06 1.57031e+06 0 -1.74779e+06 1.4958e+06 0 -1.68953e+06 1.38747e+06 0 -1.67913e+06 1.24025e+06 0 -1.7491e+06 1.03025e+06 0 -1.94168e+06 657433 0 -2.0168e+06 -10168.9 0 -1.63113e+06 1.72117e+06 0 -1.67554e+06 1.74742e+06 0 -1.72161e+06 1.76941e+06 0 -1.76863e+06 1.78646e+06 0 -1.8157e+06 1.79807e+06 0 -1.86177e+06 1.80402e+06 0 -1.90576e+06 1.80439e+06 0 -1.94664e+06 1.79961e+06 0 -1.98358e+06 1.79037e+06 0 -2.01602e+06 1.77761e+06 0 -2.04371e+06 1.76232e+06 0 -2.06664e+06 1.74552e+06 0 -2.08502e+06 1.72812e+06 0 -2.09916e+06 1.71095e+06 0 -2.10941e+06 1.69471e+06 0 -2.11603e+06 1.67997e+06 0 -2.11912e+06 1.66723e+06 0 -2.11849e+06 1.6569e+06 0 -2.11357e+06 1.64924e+06 0 -2.10331e+06 1.64428e+06 0 -2.08605e+06 1.64153e+06 0 -2.05958e+06 1.63967e+06 0 -2.02141e+06 1.63592e+06 0 -1.96962e+06 1.62553e+06 0 -1.90447e+06 1.60169e+06 0 -1.83037e+06 1.55658e+06 0 -1.75781e+06 1.48382e+06 0 -1.70384e+06 1.38035e+06 0 -1.69833e+06 1.24168e+06 0 -1.77425e+06 1.04328e+06 0 -1.98749e+06 680872 0 -2.0881e+06 -13987.7 0 -1.62663e+06 1.74749e+06 0 -1.67354e+06 1.77314e+06 0 -1.72218e+06 1.79408e+06 0 -1.7717e+06 1.80959e+06 0 -1.82106e+06 1.8192e+06 0 -1.86907e+06 1.82275e+06 0 -1.91451e+06 1.82043e+06 0 -1.9563e+06 1.81284e+06 0 -1.99362e+06 1.80086e+06 0 -2.02597e+06 1.78555e+06 0 -2.05316e+06 1.76802e+06 0 -2.0753e+06 1.74933e+06 0 -2.0927e+06 1.73042e+06 0 -2.10575e+06 1.71205e+06 0 -2.11486e+06 1.69489e+06 0 -2.12031e+06 1.67943e+06 0 -2.12221e+06 1.66608e+06 0 -2.1204e+06 1.65515e+06 0 -2.11433e+06 1.64679e+06 0 -2.10298e+06 1.64089e+06 0 -2.08483e+06 1.63687e+06 0 -2.05783e+06 1.63331e+06 0 -2.01981e+06 1.62748e+06 0 -1.96917e+06 1.61489e+06 0 -1.90641e+06 1.58931e+06 0 -1.83581e+06 1.5438e+06 0 -1.7673e+06 1.47284e+06 0 -1.71697e+06 1.37406e+06 0 -1.71583e+06 1.24376e+06 0 -1.79694e+06 1.05671e+06 0 -2.03029e+06 706101 0 -2.16101e+06 -18531.4 0 -1.62251e+06 1.77493e+06 0 -1.67215e+06 1.79993e+06 0 -1.72357e+06 1.81971e+06 0 -1.77578e+06 1.83351e+06 0 -1.82755e+06 1.84089e+06 0 -1.87752e+06 1.84177e+06 0 -1.92438e+06 1.83652e+06 0 -1.96698e+06 1.82592e+06 0 -2.00452e+06 1.81103e+06 0 -2.03658e+06 1.79307e+06 0 -2.06309e+06 1.77326e+06 0 -2.08429e+06 1.75268e+06 0 -2.10058e+06 1.73226e+06 0 -2.11245e+06 1.71274e+06 0 -2.12035e+06 1.69469e+06 0 -2.12459e+06 1.67854e+06 0 -2.12531e+06 1.66461e+06 0 -2.12234e+06 1.65309e+06 0 -2.11517e+06 1.64404e+06 0 -2.10283e+06 1.63724e+06 0 -2.08389e+06 1.632e+06 0 -2.05649e+06 1.62686e+06 0 -2.01869e+06 1.61914e+06 0 -1.9692e+06 1.60461e+06 0 -1.90867e+06 1.57758e+06 0 -1.84121e+06 1.53187e+06 0 -1.77629e+06 1.46274e+06 0 -1.72901e+06 1.36849e+06 0 -1.73174e+06 1.24641e+06 0 -1.81734e+06 1.07033e+06 0 -2.06979e+06 732960 0 -2.23579e+06 -23961.9 0 -1.6188e+06 1.8036e+06 0 -1.67142e+06 1.8279e+06 0 -1.72586e+06 1.84638e+06 0 -1.78095e+06 1.85826e+06 0 -1.83525e+06 1.86314e+06 0 -1.88723e+06 1.86107e+06 0 -1.93544e+06 1.85261e+06 0 -1.97872e+06 1.83877e+06 0 -2.01629e+06 1.82081e+06 0 -2.04786e+06 1.80012e+06 0 -2.0735e+06 1.77799e+06 0 -2.09359e+06 1.75553e+06 0 -2.10865e+06 1.73365e+06 0 -2.11924e+06 1.71302e+06 0 -2.12587e+06 1.69413e+06 0 -2.12888e+06 1.67733e+06 0 -2.12842e+06 1.66283e+06 0 -2.12433e+06 1.65075e+06 0 -2.11611e+06 1.64103e+06 0 -2.10286e+06 1.63336e+06 0 -2.08322e+06 1.62697e+06 0 -2.05551e+06 1.62036e+06 0 -2.01801e+06 1.61092e+06 0 -1.96964e+06 1.59469e+06 0 -1.91118e+06 1.56646e+06 0 -1.84653e+06 1.52071e+06 0 -1.78476e+06 1.45342e+06 0 -1.73999e+06 1.36352e+06 0 -1.74611e+06 1.24951e+06 0 -1.83565e+06 1.08393e+06 0 -2.10571e+06 761231 0 -2.31266e+06 -30490.4 0 -1.61552e+06 1.83366e+06 0 -1.67141e+06 1.85718e+06 0 -1.72916e+06 1.8742e+06 0 -1.78734e+06 1.88392e+06 0 -1.84431e+06 1.88598e+06 0 -1.89831e+06 1.88063e+06 0 -1.94778e+06 1.86865e+06 0 -1.99155e+06 1.85132e+06 0 -2.02894e+06 1.83014e+06 0 -2.0598e+06 1.80663e+06 0 -2.08437e+06 1.78216e+06 0 -2.10318e+06 1.75786e+06 0 -2.11688e+06 1.73456e+06 0 -2.1261e+06 1.71287e+06 0 -2.13141e+06 1.69319e+06 0 -2.13317e+06 1.67578e+06 0 -2.13154e+06 1.66075e+06 0 -2.12636e+06 1.64813e+06 0 -2.11715e+06 1.63778e+06 0 -2.10306e+06 1.62928e+06 0 -2.08282e+06 1.62181e+06 0 -2.05488e+06 1.61384e+06 0 -2.01772e+06 1.60286e+06 0 -1.97044e+06 1.58513e+06 0 -1.91387e+06 1.55591e+06 0 -1.85175e+06 1.51024e+06 0 -1.79274e+06 1.44481e+06 0 -1.74999e+06 1.35905e+06 0 -1.75902e+06 1.25298e+06 0 -1.8521e+06 1.09733e+06 0 -2.13779e+06 790635 0 -2.39178e+06 -38396.5 0 -1.6127e+06 1.86526e+06 0 -1.6722e+06 1.88791e+06 0 -1.73356e+06 1.90329e+06 0 -1.79509e+06 1.91054e+06 0 -1.85485e+06 1.90943e+06 0 -1.91087e+06 1.90041e+06 0 -1.96148e+06 1.88458e+06 0 -2.00554e+06 1.86351e+06 0 -2.0425e+06 1.83895e+06 0 -2.0724e+06 1.81255e+06 0 -2.09568e+06 1.78575e+06 0 -2.11304e+06 1.75963e+06 0 -2.12525e+06 1.73498e+06 0 -2.13303e+06 1.7123e+06 0 -2.13697e+06 1.69189e+06 0 -2.13747e+06 1.67391e+06 0 -2.13467e+06 1.6584e+06 0 -2.12843e+06 1.64527e+06 0 -2.11829e+06 1.63431e+06 0 -2.10343e+06 1.62503e+06 0 -2.08266e+06 1.61654e+06 0 -2.05457e+06 1.60733e+06 0 -2.01778e+06 1.59495e+06 0 -1.97153e+06 1.57591e+06 0 -1.91671e+06 1.54588e+06 0 -1.85684e+06 1.50041e+06 0 -1.80023e+06 1.43681e+06 0 -1.75906e+06 1.35499e+06 0 -1.77054e+06 1.25673e+06 0 -1.86694e+06 1.11038e+06 0 -2.16582e+06 820834 0 -2.47329e+06 -48058 0 -1.61038e+06 1.89859e+06 0 -1.67388e+06 1.92028e+06 0 -1.73922e+06 1.93377e+06 0 -1.80436e+06 1.9382e+06 0 -1.86704e+06 1.93348e+06 0 -1.92505e+06 1.92036e+06 0 -1.97663e+06 1.90032e+06 0 -2.02072e+06 1.87525e+06 0 -2.05696e+06 1.84715e+06 0 -2.08563e+06 1.81782e+06 0 -2.1074e+06 1.7887e+06 0 -2.12314e+06 1.76083e+06 0 -2.13374e+06 1.7349e+06 0 -2.14e+06 1.7113e+06 0 -2.14254e+06 1.69023e+06 0 -2.14176e+06 1.67174e+06 0 -2.13781e+06 1.65578e+06 0 -2.13055e+06 1.64218e+06 0 -2.11953e+06 1.63065e+06 0 -2.10396e+06 1.62063e+06 0 -2.08274e+06 1.61121e+06 0 -2.05455e+06 1.60085e+06 0 -2.01814e+06 1.58722e+06 0 -1.97288e+06 1.56704e+06 0 -1.91966e+06 1.53634e+06 0 -1.86178e+06 1.49116e+06 0 -1.80724e+06 1.42935e+06 0 -1.76727e+06 1.35127e+06 0 -1.78071e+06 1.26069e+06 0 -1.88045e+06 1.12295e+06 0 -2.18963e+06 851427 0 -2.55721e+06 -59996.5 0 -1.60858e+06 1.93388e+06 0 -1.67655e+06 1.95449e+06 0 -1.7463e+06 1.9658e+06 0 -1.81536e+06 1.96697e+06 0 -1.88107e+06 1.95814e+06 0 -1.941e+06 1.94043e+06 0 -1.99333e+06 1.91576e+06 0 -2.03714e+06 1.88642e+06 0 -2.07234e+06 1.85466e+06 0 -2.09949e+06 1.82237e+06 0 -2.11951e+06 1.79098e+06 0 -2.13345e+06 1.76144e+06 0 -2.14233e+06 1.73431e+06 0 -2.147e+06 1.70988e+06 0 -2.1481e+06 1.68822e+06 0 -2.14604e+06 1.66927e+06 0 -2.14096e+06 1.65291e+06 0 -2.13272e+06 1.63888e+06 0 -2.12087e+06 1.62682e+06 0 -2.10466e+06 1.61612e+06 0 -2.08304e+06 1.60583e+06 0 -2.05479e+06 1.59442e+06 0 -2.01878e+06 1.57967e+06 0 -1.97444e+06 1.55848e+06 0 -1.92267e+06 1.52725e+06 0 -1.86655e+06 1.48242e+06 0 -1.81379e+06 1.42238e+06 0 -1.77469e+06 1.34783e+06 0 -1.7896e+06 1.26479e+06 0 -1.8929e+06 1.13497e+06 0 -2.20917e+06 881964 0 -2.64357e+06 -74953.5 0 -1.60736e+06 1.97139e+06 0 -1.68036e+06 1.99076e+06 0 -1.75501e+06 1.99954e+06 0 -1.82831e+06 1.99692e+06 0 -1.89716e+06 1.98337e+06 0 -1.95888e+06 1.96051e+06 0 -2.01166e+06 1.93078e+06 0 -2.05483e+06 1.89691e+06 0 -2.08862e+06 1.86137e+06 0 -2.11393e+06 1.82613e+06 0 -2.13196e+06 1.79254e+06 0 -2.14395e+06 1.76142e+06 0 -2.15099e+06 1.73321e+06 0 -2.15401e+06 1.70804e+06 0 -2.15365e+06 1.68586e+06 0 -2.15031e+06 1.66652e+06 0 -2.14412e+06 1.64981e+06 0 -2.13493e+06 1.63539e+06 0 -2.1223e+06 1.62284e+06 0 -2.1055e+06 1.61151e+06 0 -2.08354e+06 1.60041e+06 0 -2.05527e+06 1.58806e+06 0 -2.01965e+06 1.57229e+06 0 -1.97618e+06 1.55024e+06 0 -1.92572e+06 1.51859e+06 0 -1.87116e+06 1.47417e+06 0 -1.8199e+06 1.41583e+06 0 -1.78138e+06 1.34461e+06 0 -1.79726e+06 1.26894e+06 0 -1.90453e+06 1.14638e+06 0 -2.22448e+06 911949 0 -2.7324e+06 -94021.2 0 -1.60678e+06 2.01143e+06 0 -1.68547e+06 2.02939e+06 0 -1.7656e+06 2.03519e+06 0 -1.8435e+06 2.02813e+06 0 -1.91557e+06 2.00914e+06 0 -1.97887e+06 1.98048e+06 0 -2.03173e+06 1.94525e+06 0 -2.07381e+06 1.90659e+06 0 -2.10579e+06 1.8672e+06 0 -2.12894e+06 1.82904e+06 0 -2.14473e+06 1.79334e+06 0 -2.15458e+06 1.76078e+06 0 -2.1597e+06 1.73159e+06 0 -2.16101e+06 1.70578e+06 0 -2.15917e+06 1.68317e+06 0 -2.15456e+06 1.66351e+06 0 -2.14729e+06 1.64649e+06 0 -2.13719e+06 1.63173e+06 0 -2.12383e+06 1.61874e+06 0 -2.10649e+06 1.60683e+06 0 -2.08424e+06 1.59499e+06 0 -2.05597e+06 1.58177e+06 0 -2.02074e+06 1.56511e+06 0 -1.97807e+06 1.5423e+06 0 -1.92878e+06 1.51032e+06 0 -1.87558e+06 1.46634e+06 0 -1.82557e+06 1.40966e+06 0 -1.78741e+06 1.34157e+06 0 -1.80376e+06 1.27308e+06 0 -1.91559e+06 1.15719e+06 0 -2.23574e+06 940857 0 -2.82382e+06 -118882 0 -1.60689e+06 2.0544e+06 0 -1.69209e+06 2.0707e+06 0 -1.77838e+06 2.07296e+06 0 -1.86128e+06 2.06066e+06 0 -1.93658e+06 2.03537e+06 0 -2.00117e+06 2.0002e+06 0 -2.05363e+06 1.95898e+06 0 -2.09411e+06 1.91531e+06 0 -2.12382e+06 1.87203e+06 0 -2.14444e+06 1.83103e+06 0 -2.15776e+06 1.79336e+06 0 -2.16533e+06 1.75949e+06 0 -2.16842e+06 1.72946e+06 0 -2.16799e+06 1.70311e+06 0 -2.16466e+06 1.68015e+06 0 -2.15879e+06 1.66024e+06 0 -2.15046e+06 1.64297e+06 0 -2.13949e+06 1.62792e+06 0 -2.12544e+06 1.61453e+06 0 -2.10761e+06 1.60209e+06 0 -2.0851e+06 1.58958e+06 0 -2.05687e+06 1.57558e+06 0 -2.022e+06 1.5581e+06 0 -1.98007e+06 1.53464e+06 0 -1.93184e+06 1.50242e+06 0 -1.87983e+06 1.45892e+06 0 -1.83082e+06 1.40382e+06 0 -1.79282e+06 1.33869e+06 0 -1.80916e+06 1.27714e+06 0 -1.92623e+06 1.16742e+06 0 -2.24325e+06 968156 0 -2.91834e+06 -152280 0 -1.60778e+06 2.10077e+06 0 -1.70048e+06 2.11511e+06 0 -1.79375e+06 2.1131e+06 0 -1.88206e+06 2.09456e+06 0 -1.96053e+06 2.06195e+06 0 -2.02598e+06 2.01946e+06 0 -2.07744e+06 1.97177e+06 0 -2.11572e+06 1.9229e+06 0 -2.14266e+06 1.87575e+06 0 -2.16041e+06 1.83203e+06 0 -2.171e+06 1.79256e+06 0 -2.17614e+06 1.75754e+06 0 -2.17713e+06 1.72681e+06 0 -2.17492e+06 1.70005e+06 0 -2.1701e+06 1.67684e+06 0 -2.16299e+06 1.65673e+06 0 -2.15363e+06 1.63927e+06 0 -2.14183e+06 1.62397e+06 0 -2.12714e+06 1.61023e+06 0 -2.10886e+06 1.59731e+06 0 -2.08613e+06 1.58419e+06 0 -2.05794e+06 1.56947e+06 0 -2.02343e+06 1.55129e+06 0 -1.98218e+06 1.52726e+06 0 -1.93487e+06 1.49485e+06 0 -1.88388e+06 1.45185e+06 0 -1.83568e+06 1.39827e+06 0 -1.79768e+06 1.33593e+06 0 -1.81355e+06 1.28104e+06 0 -1.93659e+06 1.17713e+06 0 -2.24747e+06 993307 0 -3.01733e+06 -199033 0 -1.60953e+06 2.15112e+06 0 -1.71099e+06 2.16312e+06 0 -1.81222e+06 2.15589e+06 0 -1.90635e+06 2.12984e+06 0 -1.9878e+06 2.0887e+06 0 -2.05351e+06 2.03801e+06 0 -2.10323e+06 1.98337e+06 0 -2.13862e+06 1.92918e+06 0 -2.16226e+06 1.87824e+06 0 -2.17676e+06 1.83199e+06 0 -2.1844e+06 1.79091e+06 0 -2.18698e+06 1.75493e+06 0 -2.18581e+06 1.72366e+06 0 -2.18179e+06 1.6966e+06 0 -2.17548e+06 1.67322e+06 0 -2.16715e+06 1.653e+06 0 -2.15681e+06 1.63541e+06 0 -2.14421e+06 1.6199e+06 0 -2.12891e+06 1.60585e+06 0 -2.11023e+06 1.5925e+06 0 -2.0873e+06 1.57883e+06 0 -2.05917e+06 1.56348e+06 0 -2.02499e+06 1.54465e+06 0 -1.98436e+06 1.52013e+06 0 -1.93786e+06 1.4876e+06 0 -1.88775e+06 1.44512e+06 0 -1.84015e+06 1.39298e+06 0 -1.80202e+06 1.33328e+06 0 -1.81703e+06 1.28474e+06 0 -1.94674e+06 1.18634e+06 0 -2.24892e+06 1.01586e+06 0 -3.12431e+06 -268479 0 -1.61228e+06 2.2062e+06 0 -1.72406e+06 2.21534e+06 0 -1.83443e+06 2.20166e+06 0 -1.93478e+06 2.16649e+06 0 -2.01883e+06 2.11536e+06 0 -2.08397e+06 2.05552e+06 0 -2.13102e+06 1.99351e+06 0 -2.16276e+06 1.93396e+06 0 -2.18253e+06 1.87939e+06 0 -2.19342e+06 1.83084e+06 0 -2.19789e+06 1.7884e+06 0 -2.19779e+06 1.75165e+06 0 -2.19441e+06 1.72e+06 0 -2.18858e+06 1.69278e+06 0 -2.1808e+06 1.66934e+06 0 -2.17128e+06 1.64907e+06 0 -2.15997e+06 1.6314e+06 0 -2.14662e+06 1.61573e+06 0 -2.13076e+06 1.60142e+06 0 -2.1117e+06 1.58769e+06 0 -2.0886e+06 1.57352e+06 0 -2.06054e+06 1.55759e+06 0 -2.02667e+06 1.53819e+06 0 -1.98659e+06 1.51326e+06 0 -1.9408e+06 1.48064e+06 0 -1.89142e+06 1.43869e+06 0 -1.84426e+06 1.38792e+06 0 -1.80587e+06 1.33074e+06 0 -1.81975e+06 1.28814e+06 0 -1.95667e+06 1.19525e+06 0 -2.2483e+06 1.0352e+06 0 -3.24845e+06 -381490 0 -1.61618e+06 2.26698e+06 0 -1.74031e+06 2.27255e+06 0 -1.86122e+06 2.25074e+06 0 -1.96809e+06 2.20439e+06 0 -2.05409e+06 2.14157e+06 0 -2.11755e+06 2.07157e+06 0 -2.16084e+06 2.00187e+06 0 -2.18805e+06 1.93702e+06 0 -2.20338e+06 1.87909e+06 0 -2.2103e+06 1.82854e+06 0 -2.21141e+06 1.785e+06 0 -2.20854e+06 1.74772e+06 0 -2.20291e+06 1.71585e+06 0 -2.19527e+06 1.6886e+06 0 -2.18604e+06 1.66519e+06 0 -2.17535e+06 1.64495e+06 0 -2.16312e+06 1.62725e+06 0 -2.14906e+06 1.61148e+06 0 -2.13267e+06 1.59695e+06 0 -2.11327e+06 1.58287e+06 0 -2.09003e+06 1.56826e+06 0 -2.06203e+06 1.55181e+06 0 -2.02845e+06 1.5319e+06 0 -1.98886e+06 1.50661e+06 0 -1.94367e+06 1.47395e+06 0 -1.89491e+06 1.43255e+06 0 -1.84802e+06 1.38308e+06 0 -1.8093e+06 1.32822e+06 0 -1.82172e+06 1.29142e+06 0 -1.96663e+06 1.20327e+06 0 -2.24589e+06 1.05179e+06 0 -3.4176e+06 -596345 0 -1.62142e+06 2.3347e+06 0 -1.76055e+06 2.33573e+06 0 -1.8937e+06 2.30351e+06 0 -2.00722e+06 2.24332e+06 0 -2.09409e+06 2.16681e+06 0 -2.1544e+06 2.08568e+06 0 -2.19262e+06 2.00809e+06 0 -2.21439e+06 1.93816e+06 0 -2.22469e+06 1.87722e+06 0 -2.22731e+06 1.82503e+06 0 -2.22489e+06 1.7807e+06 0 -2.21918e+06 1.74312e+06 0 -2.21128e+06 1.71124e+06 0 -2.20185e+06 1.68407e+06 0 -2.19119e+06 1.66079e+06 0 -2.17938e+06 1.64066e+06 0 -2.16626e+06 1.62299e+06 0 -2.15152e+06 1.60715e+06 0 -2.13464e+06 1.59244e+06 0 -2.11493e+06 1.57807e+06 0 -2.09157e+06 1.56306e+06 0 -2.06364e+06 1.54615e+06 0 -2.03031e+06 1.52578e+06 0 -1.99116e+06 1.50019e+06 0 -1.94647e+06 1.4675e+06 0 -1.8982e+06 1.42667e+06 0 -1.85146e+06 1.37838e+06 0 -1.81226e+06 1.32594e+06 0 -1.82336e+06 1.29387e+06 0 -1.97579e+06 1.21239e+06 0 -2.24312e+06 1.06322e+06 0 -3.75448e+06 -1.1611e+06 0 -1.62826e+06 2.41105e+06 0 -1.78596e+06 2.40615e+06 0 -1.93336e+06 2.36032e+06 0 -2.05328e+06 2.28285e+06 0 -2.13936e+06 2.19038e+06 0 -2.1946e+06 2.09724e+06 0 -2.22625e+06 2.01176e+06 0 -2.24159e+06 1.93717e+06 0 -2.24631e+06 1.87369e+06 0 -2.24434e+06 1.82029e+06 0 -2.23826e+06 1.77551e+06 0 -2.22966e+06 1.73789e+06 0 -2.2195e+06 1.70616e+06 0 -2.20829e+06 1.67923e+06 0 -2.19624e+06 1.65618e+06 0 -2.18334e+06 1.63621e+06 0 -2.16938e+06 1.61863e+06 0 -2.15401e+06 1.60277e+06 0 -2.13667e+06 1.58792e+06 0 -2.11668e+06 1.5733e+06 0 -2.0932e+06 1.55792e+06 0 -2.06534e+06 1.5406e+06 0 -2.03224e+06 1.51983e+06 0 -1.99347e+06 1.49398e+06 0 -1.94917e+06 1.46128e+06 0 -1.90134e+06 1.421e+06 0 -1.85442e+06 1.37407e+06 0 -1.81541e+06 1.32285e+06 0 -1.82273e+06 1.29907e+06 0 -1.98994e+06 1.21184e+06 0 -2.23305e+06 1.08286e+06 0 -6.54847e+06 -6.66791e+06 0 -1.63706e+06 2.49838e+06 0 -1.81822e+06 2.48549e+06 0 -1.9822e+06 2.42144e+06 0 -2.1076e+06 2.32222e+06 0 -2.19037e+06 2.21131e+06 0 -2.23814e+06 2.10552e+06 0 -2.26154e+06 2.01249e+06 0 -2.26947e+06 1.93383e+06 0 -2.26807e+06 1.86843e+06 0 -2.26127e+06 1.8143e+06 0 -2.25143e+06 1.76943e+06 0 -2.23993e+06 1.73204e+06 0 -2.22752e+06 1.70065e+06 0 -2.21458e+06 1.67409e+06 0 -2.20118e+06 1.65135e+06 0 -2.18724e+06 1.63162e+06 0 -2.17248e+06 1.61418e+06 0 -2.15651e+06 1.59834e+06 0 -2.13875e+06 1.5834e+06 0 -2.1185e+06 1.56856e+06 0 -2.09492e+06 1.55287e+06 0 -2.06713e+06 1.53517e+06 0 -2.03422e+06 1.51403e+06 0 -1.9958e+06 1.48797e+06 0 -1.95175e+06 1.45526e+06 0 -1.90432e+06 1.4157e+06 0 -1.85714e+06 1.36932e+06 0 -1.8177e+06 1.32189e+06 0 -1.82399e+06 1.29719e+06 0 -1.99642e+06 1.23052e+06 0 -2.22989e+06 1.07706e+06 0 -2.22114e+06 2.10113e+06 0 -1.64833e+06 2.60004e+06 0 -1.85986e+06 2.57595e+06 0 -2.04298e+06 2.48694e+06 0 -2.17167e+06 2.36018e+06 0 -2.24748e+06 2.22834e+06 0 -2.28484e+06 2.10972e+06 0 -2.2982e+06 2.00985e+06 0 -2.29775e+06 1.92798e+06 0 -2.2898e+06 1.86137e+06 0 -2.27799e+06 1.80705e+06 0 -2.26434e+06 1.76248e+06 0 -2.24994e+06 1.72558e+06 0 -2.23533e+06 1.69473e+06 0 -2.2207e+06 1.66866e+06 0 -2.206e+06 1.64633e+06 0 -2.19106e+06 1.62691e+06 0 -2.17555e+06 1.60966e+06 0 -2.15902e+06 1.59388e+06 0 -2.14087e+06 1.57888e+06 0 -2.12038e+06 1.56385e+06 0 -2.09672e+06 1.54789e+06 0 -2.06898e+06 1.52985e+06 0 -2.03626e+06 1.5084e+06 0 -1.99807e+06 1.48212e+06 0 -1.95435e+06 1.4495e+06 0 -1.90683e+06 1.41045e+06 0 -1.8602e+06 1.36505e+06 0 -1.81814e+06 1.32044e+06 0 -1.82862e+06 1.29547e+06 0 -1.99388e+06 1.25108e+06 0 -2.27732e+06 994953 0 -2.80914e+06 964745 0 -1.66284e+06 2.72093e+06 0 -1.91486e+06 2.68061e+06 0 -2.11944e+06 2.5563e+06 0 -2.24709e+06 2.39472e+06 0 -2.3108e+06 2.23984e+06 0 -2.33433e+06 2.10894e+06 0 -2.33581e+06 2.00343e+06 0 -2.32615e+06 1.91946e+06 0 -2.31129e+06 1.85247e+06 0 -2.29435e+06 1.79855e+06 0 -2.2769e+06 1.75468e+06 0 -2.25966e+06 1.71855e+06 0 -2.2429e+06 1.68842e+06 0 -2.22664e+06 1.66297e+06 0 -2.2107e+06 1.64115e+06 0 -2.19482e+06 1.6221e+06 0 -2.17859e+06 1.60508e+06 0 -2.16153e+06 1.5894e+06 0 -2.14302e+06 1.57437e+06 0 -2.12233e+06 1.5592e+06 0 -2.09859e+06 1.54299e+06 0 -2.07089e+06 1.52465e+06 0 -2.03833e+06 1.50293e+06 0 -2.0003e+06 1.47643e+06 0 -1.95691e+06 1.44398e+06 0 -1.90897e+06 1.40528e+06 0 -1.86347e+06 1.36112e+06 0 -1.81702e+06 1.3188e+06 0 -1.83619e+06 1.29347e+06 0 -1.98769e+06 1.26662e+06 0 -2.25794e+06 1.05169e+06 0 -2.97026e+06 644999 0 -1.68185e+06 2.86935e+06 0 -1.98971e+06 2.80335e+06 0 -2.21665e+06 2.62797e+06 0 -2.33523e+06 2.4227e+06 0 -2.38004e+06 2.24389e+06 0 -2.38599e+06 2.10228e+06 0 -2.37387e+06 1.9929e+06 0 -2.3543e+06 1.90818e+06 0 -2.33233e+06 1.84174e+06 0 -2.31025e+06 1.78883e+06 0 -2.28904e+06 1.74606e+06 0 -2.26903e+06 1.71097e+06 0 -2.25021e+06 1.68175e+06 0 -2.23238e+06 1.65704e+06 0 -2.21527e+06 1.63581e+06 0 -2.19849e+06 1.61719e+06 0 -2.1816e+06 1.60046e+06 0 -2.16405e+06 1.58492e+06 0 -2.14522e+06 1.56989e+06 0 -2.12433e+06 1.5546e+06 0 -2.10053e+06 1.53818e+06 0 -2.07285e+06 1.51955e+06 0 -2.04045e+06 1.4976e+06 0 -2.00246e+06 1.47089e+06 0 -1.95945e+06 1.43871e+06 0 -1.91071e+06 1.40009e+06 0 -1.86694e+06 1.3579e+06 0 -1.8146e+06 1.31569e+06 0 -1.84547e+06 1.29518e+06 0 -1.98146e+06 1.26912e+06 0 -1.49589e+06 2.41045e+06 0 -3.02791e+06 491835 0 -1.70779e+06 3.05663e+06 0 -2.09557e+06 2.95063e+06 0 -2.34111e+06 2.69737e+06 0 -2.43677e+06 2.43969e+06 0 -2.45431e+06 2.23823e+06 0 -2.4389e+06 2.08889e+06 0 -2.41175e+06 1.97799e+06 0 -2.38185e+06 1.89409e+06 0 -2.35269e+06 1.8292e+06 0 -2.32555e+06 1.77794e+06 0 -2.3007e+06 1.73668e+06 0 -2.27802e+06 1.70289e+06 0 -2.25722e+06 1.67474e+06 0 -2.23792e+06 1.6509e+06 0 -2.21969e+06 1.63034e+06 0 -2.20207e+06 1.61221e+06 0 -2.18456e+06 1.5958e+06 0 -2.16657e+06 1.58044e+06 0 -2.14744e+06 1.56544e+06 0 -2.12638e+06 1.55006e+06 0 -2.10252e+06 1.53345e+06 0 -2.07486e+06 1.51459e+06 0 -2.04257e+06 1.49239e+06 0 -2.0046e+06 1.46553e+06 0 -1.96184e+06 1.43358e+06 0 -1.91242e+06 1.39492e+06 0 -1.8696e+06 1.35562e+06 0 -1.81378e+06 1.30948e+06 0 -1.84933e+06 1.30652e+06 0 -1.98051e+06 1.26054e+06 0 -1.70451e+06 2.05402e+06 0 -3.02752e+06 399299 0 -1.74503e+06 3.31594e+06 0 -2.25285e+06 3.12633e+06 0 -2.49998e+06 2.75623e+06 0 -2.5507e+06 2.439e+06 0 -2.53202e+06 2.22092e+06 0 -2.49177e+06 2.068e+06 0 -2.44876e+06 1.95862e+06 0 -2.40837e+06 1.87723e+06 0 -2.37216e+06 1.81491e+06 0 -2.34012e+06 1.76594e+06 0 -2.31179e+06 1.72658e+06 0 -2.28659e+06 1.69434e+06 0 -2.26393e+06 1.66743e+06 0 -2.24324e+06 1.64457e+06 0 -2.22397e+06 1.62475e+06 0 -2.20557e+06 1.60717e+06 0 -2.18749e+06 1.59112e+06 0 -2.16909e+06 1.57597e+06 0 -2.14968e+06 1.56103e+06 0 -2.12847e+06 1.54559e+06 0 -2.10455e+06 1.52881e+06 0 -2.07691e+06 1.50973e+06 0 -2.04467e+06 1.48732e+06 0 -2.00675e+06 1.46033e+06 0 -1.96398e+06 1.42856e+06 0 -1.91418e+06 1.3901e+06 0 -1.87156e+06 1.3529e+06 0 -1.81334e+06 1.30488e+06 0 -1.85275e+06 1.31374e+06 0 -1.97439e+06 1.26607e+06 0 -1.81248e+06 1.89182e+06 0 -2.98534e+06 335571 0 -1.81042e+06 3.66713e+06 0 -2.49954e+06 3.34854e+06 0 -2.6971e+06 2.77895e+06 0 -2.67383e+06 2.41617e+06 0 -2.6105e+06 2.1892e+06 0 -2.54315e+06 2.03954e+06 0 -2.4841e+06 1.93475e+06 0 -2.43348e+06 1.85771e+06 0 -2.39053e+06 1.799e+06 0 -2.35386e+06 1.75289e+06 0 -2.32227e+06 1.71582e+06 0 -2.29471e+06 1.68536e+06 0 -2.27031e+06 1.65986e+06 0 -2.24832e+06 1.63807e+06 0 -2.22809e+06 1.61907e+06 0 -2.20898e+06 1.60208e+06 0 -2.19036e+06 1.58644e+06 0 -2.1716e+06 1.57152e+06 0 -2.15195e+06 1.55667e+06 0 -2.1306e+06 1.54118e+06 0 -2.10662e+06 1.52426e+06 0 -2.07899e+06 1.50498e+06 0 -2.04677e+06 1.48236e+06 0 -2.00886e+06 1.45528e+06 0 -1.96598e+06 1.42367e+06 0 -1.91581e+06 1.38545e+06 0 -1.87309e+06 1.35031e+06 0 -1.81324e+06 1.30001e+06 0 -1.85352e+06 1.32426e+06 0 -2.04572e+06 1.15046e+06 0 -1.87834e+06 1.81405e+06 0 -2.90909e+06 287719 0 -1.93754e+06 4.40188e+06 0 -2.90824e+06 3.56134e+06 0 -2.92179e+06 2.74122e+06 0 -2.80103e+06 2.36266e+06 0 -2.68588e+06 2.14314e+06 0 -2.59132e+06 2.00322e+06 0 -2.51711e+06 1.90676e+06 0 -2.45671e+06 1.83569e+06 0 -2.40764e+06 1.78159e+06 0 -2.36665e+06 1.73892e+06 0 -2.33208e+06 1.70446e+06 0 -2.30234e+06 1.67602e+06 0 -2.27635e+06 1.65204e+06 0 -2.25317e+06 1.63143e+06 0 -2.23205e+06 1.6133e+06 0 -2.21228e+06 1.59696e+06 0 -2.19319e+06 1.58176e+06 0 -2.17409e+06 1.5671e+06 0 -2.15423e+06 1.55235e+06 0 -2.13275e+06 1.53685e+06 0 -2.10873e+06 1.5198e+06 0 -2.0811e+06 1.50034e+06 0 -2.04886e+06 1.47752e+06 0 -2.01093e+06 1.45039e+06 0 -1.9678e+06 1.41886e+06 0 -1.91742e+06 1.38103e+06 0 -1.87389e+06 1.3478e+06 0 -1.81414e+06 1.29495e+06 0 -1.8543e+06 1.33215e+06 0 -2.05542e+06 1.13755e+06 0 -1.93962e+06 1.75355e+06 0 -2.80319e+06 249476 0 -2.43397e+06 5.81871e+06 0 -3.56468e+06 3.72598e+06 0 -3.12841e+06 2.54992e+06 0 -2.93386e+06 2.30222e+06 0 -2.74826e+06 2.07206e+06 0 -2.63753e+06 1.96405e+06 0 -2.54565e+06 1.87347e+06 0 -2.4784e+06 1.81195e+06 0 -2.42299e+06 1.76272e+06 0 -2.37854e+06 1.72414e+06 0 -2.34111e+06 1.69259e+06 0 -2.30948e+06 1.66633e+06 0 -2.28202e+06 1.64403e+06 0 -2.25778e+06 1.62466e+06 0 -2.23585e+06 1.60748e+06 0 -2.21549e+06 1.59182e+06 0 -2.19597e+06 1.57709e+06 0 -2.17657e+06 1.56271e+06 0 -2.15652e+06 1.5481e+06 0 -2.13494e+06 1.53259e+06 0 -2.11086e+06 1.51542e+06 0 -2.08323e+06 1.49581e+06 0 -2.05092e+06 1.47278e+06 0 -2.01296e+06 1.44565e+06 0 -1.96943e+06 1.41412e+06 0 -1.91898e+06 1.37689e+06 0 -1.87413e+06 1.34501e+06 0 -1.81567e+06 1.29058e+06 0 -1.8493e+06 1.34573e+06 0 -1.95484e+06 1.28663e+06 0 -1.99585e+06 1.7102e+06 0 -2.66886e+06 217307 0 -4.91856e+06 1.55129e+07 0 -4.06642e+06 1.65697e+06 0 -3.4193e+06 2.80353e+06 0 -2.99352e+06 2.01971e+06 0 -2.82306e+06 2.0586e+06 0 -2.66699e+06 1.89485e+06 0 -2.57517e+06 1.84504e+06 0 -2.49542e+06 1.78389e+06 0 -2.43776e+06 1.74338e+06 0 -2.38885e+06 1.70854e+06 0 -2.34961e+06 1.68026e+06 0 -2.316e+06 1.65639e+06 0 -2.28736e+06 1.63582e+06 0 -2.26212e+06 1.61782e+06 0 -2.23949e+06 1.60161e+06 0 -2.21859e+06 1.58668e+06 0 -2.1987e+06 1.57244e+06 0 -2.17904e+06 1.55838e+06 0 -2.15881e+06 1.54391e+06 0 -2.13715e+06 1.52841e+06 0 -2.11302e+06 1.51114e+06 0 -2.08536e+06 1.49138e+06 0 -2.05297e+06 1.46814e+06 0 -2.01494e+06 1.44105e+06 0 -1.9709e+06 1.40944e+06 0 -1.92045e+06 1.37302e+06 0 -1.87381e+06 1.34208e+06 0 -1.81776e+06 1.28681e+06 0 -1.84668e+06 1.35344e+06 0 -1.94092e+06 1.30632e+06 0 -2.05114e+06 1.67291e+06 0 -2.50969e+06 189350 0 </DataArray> 
</PointData> 
<Points> 
<DataArray type="Float32" NumberOfComponents="3"> 