<?xml version="1.0"?> 
<VTKFile type="StructuredGrid" version="0.1"> 
<StructuredGrid WholeExtent="0 31 0 31 0 0"> 
<Piece Extent="0 31 0 31 0 0"> 
<PointData>
<DataArray type="Float32" Name="|E|" format="ascii" NumberOfComponents="3"> 
-2.06969e+06 48000.7 0 -2.07885e+06 65466 0 -2.09042e+06 82665.4 0 -2.10447e+06 99690 0 -2.12101e+06 116580 0 -2.14011e+06 133384 0 -2.16184e+06 150154 0 -2.18626e+06 166942 0 -2.21347e+06 183801 0 -2.24356e+06 200787 0 -2.27665e+06 217956 0 -2.31286e+06 235364 0 -2.35235e+06 253066 0 -2.39528e+06 271115 0 -2.44186e+06 289555 0 -2.49231e+06 308416 0 -2.54692e+06 327704 0 -2.60598e+06 347387 0 -2.66988e+06 367367 0 -2.73905e+06 387445 0 -2.81398e+06 407267 0 -2.89525e+06 426234 0 -2.9835e+06 443385 0 -3.07935e+06 457200 0 -3.18328e+06 465331 0 -3.29532e+06 464276 0 -3.41442e+06 449153 0 -3.53702e+06 413782 0 -3.655e+06 351331 0 -3.75452e+06 256940 0 -3.81938e+06 132272 0 -3.84171e+06 0 0 -2.06932e+06 51114 0 -2.07874e+06 68679.3 0 -2.09055e+06 86012.8 0 -2.1048e+06 103194 0 -2.12154e+06 120263 0 -2.14081e+06 137271 0 -2.16268e+06 154270 0 -2.18723e+06 171314 0 -2.21454e+06 188456 0 -2.2447e+06 205754 0 -2.27784e+06 223265 0 -2.31408e+06 241047 0 -2.35357e+06 259158 0 -2.39647e+06 277654 0 -2.443e+06 296582 0 -2.49337e+06 315977 0 -2.54788e+06 335850 0 -2.60682e+06 356173 0 -2.67059e+06 376857 0 -2.73963e+06 397711 0 -2.81447e+06 418390 0 -2.89571e+06 438308 0 -2.98406e+06 456509 0 -3.08023e+06 471476 0 -3.18483e+06 480835 0 -3.29809e+06 481009 0 -3.41922e+06 466917 0 -3.54487e+06 431897 0 -3.6671e+06 368366 0 -3.77161e+06 270562 0 -3.84093e+06 140639 0 -3.86261e+06 -5.96046e-08 0 -2.06899e+06 54276.9 0 -2.07866e+06 71946.3 0 -2.0907e+06 89415.1 0 -2.10516e+06 106753 0 -2.12208e+06 124003 0 -2.14152e+06 141216 0 -2.16353e+06 158445 0 -2.1882e+06 175744 0 -2.2156e+06 193170 0 -2.24584e+06 210779 0 -2.27902e+06 228632 0 -2.31528e+06 246789 0 -2.35475e+06 265310 0 -2.39763e+06 284253 0 -2.44409e+06 303670 0 -2.49438e+06 323599 0 -2.54878e+06 344056 0 -2.6076e+06 365021 0 -2.67123e+06 386412 0 -2.74013e+06 408047 0 -2.81487e+06 429594 0 -2.89607e+06 450478 0 -2.98451e+06 469757 0 -3.08098e+06 485916 0 -3.18625e+06 496569 0 -3.30077e+06 498072 0 -3.42398e+06 485142 0 -3.55284e+06 450647 0 -3.6796e+06 386190 0 -3.78955e+06 285045 0 -3.86353e+06 149379 0 -3.8854e+06 -2.08616e-07 0 -2.06869e+06 57489.6 0 -2.0786e+06 75267.4 0 -2.09087e+06 92872.2 0 -2.10554e+06 110368 0 -2.12264e+06 127799 0 -2.14223e+06 145218 0 -2.16438e+06 162677 0 -2.18916e+06 180233 0 -2.21666e+06 197942 0 -2.24696e+06 215864 0 -2.28018e+06 234059 0 -2.31645e+06 252590 0 -2.35591e+06 271520 0 -2.39875e+06 290911 0 -2.44514e+06 310816 0 -2.49534e+06 331279 0 -2.54962e+06 352323 0 -2.6083e+06 373931 0 -2.67179e+06 396032 0 -2.74055e+06 418454 0 -2.81517e+06 440878 0 -2.89632e+06 462745 0 -2.98483e+06 483129 0 -3.0816e+06 500524 0 -3.18755e+06 512539 0 -3.30333e+06 515474 0 -3.42868e+06 503853 0 -3.56092e+06 470070 0 -3.6925e+06 404871 0 -3.80834e+06 300445 0 -3.88735e+06 158592 0 -3.91004e+06 4.09782e-07 0 -2.06842e+06 60754.1 0 -2.07858e+06 78642.4 0 -2.09107e+06 96384.3 0 -2.10593e+06 114039 0 -2.12321e+06 131652 0 -2.14296e+06 149277 0 -2.16524e+06 166968 0 -2.19013e+06 184781 0 -2.21771e+06 202773 0 -2.24807e+06 221007 0 -2.28132e+06 239544 0 -2.3176e+06 258450 0 -2.35704e+06 277790 0 -2.39983e+06 297627 0 -2.44615e+06 318021 0 -2.49625e+06 339019 0 -2.5504e+06 360649 0 -2.60894e+06 382903 0 -2.67227e+06 405717 0 -2.74088e+06 428932 0 -2.81537e+06 452243 0 -2.89646e+06 475110 0 -2.98503e+06 496626 0 -3.08209e+06 515303 0 -3.1887e+06 528751 0 -3.30575e+06 533225 0 -3.4333e+06 523070 0 -3.56907e+06 490209 0 -3.70579e+06 424479 0 -3.82802e+06 316836 0 -3.91253e+06 168373 0 -3.9366e+06 1.49012e-08 0 -2.06819e+06 64070.8 0 -2.07859e+06 82071.5 0 -2.09129e+06 99951.4 0 -2.10635e+06 117766 0 -2.1238e+06 135562 0 -2.1437e+06 153394 0 -2.1661e+06 171317 0 -2.19109e+06 189387 0 -2.21875e+06 207663 0 -2.24916e+06 226209 0 -2.28244e+06 245089 0 -2.31872e+06 264370 0 -2.35814e+06 284119 0 -2.40087e+06 304403 0 -2.44711e+06 325286 0 -2.4971e+06 346819 0 -2.55112e+06 369035 0 -2.6095e+06 391936 0 -2.67267e+06 415467 0 -2.74112e+06 439481 0 -2.81547e+06 463690 0 -2.89648e+06 487574 0 -2.9851e+06 510250 0 -3.08243e+06 530254 0 -3.1897e+06 545209 0 -3.30802e+06 551337 0 -3.43782e+06 542815 0 -3.57726e+06 511105 0 -3.71944e+06 445088 0 -3.84859e+06 334307 0 -3.93921e+06 178819 0 -3.96514e+06 -2.38419e-07 0 -2.06799e+06 67439.8 0 -2.07862e+06 85554.8 0 -2.09154e+06 103574 0 -2.10678e+06 121549 0 -2.1244e+06 139529 0 -2.14444e+06 157569 0 -2.16697e+06 175723 0 -2.19206e+06 194051 0 -2.21978e+06 212612 0 -2.25024e+06 231471 0 -2.28355e+06 250693 0 -2.31982e+06 270348 0 -2.35921e+06 290507 0 -2.40188e+06 311238 0 -2.44803e+06 332609 0 -2.4979e+06 354677 0 -2.55178e+06 377482 0 -2.61e+06 401031 0 -2.67299e+06 425282 0 -2.74126e+06 450101 0 -2.81546e+06 475217 0 -2.89638e+06 500136 0 -2.98504e+06 524001 0 -3.08262e+06 545379 0 -3.19052e+06 561917 0 -3.31012e+06 569817 0 -3.44221e+06 563109 0 -3.58545e+06 532802 0 -3.73343e+06 466776 0 -3.8701e+06 352964 0 -3.96753e+06 190037 0 -3.9958e+06 1.19209e-07 0 -2.06783e+06 70861.4 0 -2.07868e+06 89092.4 0 -2.09181e+06 107251 0 -2.10723e+06 125388 0 -2.12501e+06 143553 0 -2.14519e+06 161801 0 -2.16784e+06 180189 0 -2.19302e+06 198774 0 -2.22081e+06 217620 0 -2.25131e+06 236792 0 -2.28464e+06 256357 0 -2.3209e+06 276386 0 -2.36024e+06 296953 0 -2.40285e+06 318132 0 -2.4489e+06 339991 0 -2.49865e+06 362595 0 -2.55238e+06 385988 0 -2.61042e+06 410188 0 -2.67323e+06 435161 0 -2.74131e+06 460791 0 -2.81534e+06 486826 0 -2.89616e+06 512796 0 -2.98482e+06 537880 0 -3.08264e+06 560681 0 -3.19116e+06 578879 0 -3.31202e+06 588675 0 -3.44642e+06 583972 0 -3.59361e+06 555345 0 -3.74773e+06 489629 0 -3.89256e+06 372926 0 -3.99762e+06 202144 0 -4.02873e+06 -7.45058e-08 0 -2.06769e+06 74335.9 0 -2.07877e+06 92684.5 0 -2.0921e+06 110984 0 -2.1077e+06 129283 0 -2.12564e+06 147634 0 -2.14595e+06 166091 0 -2.16871e+06 184712 0 -2.19397e+06 203557 0 -2.22183e+06 222688 0 -2.25237e+06 242172 0 -2.2857e+06 262079 0 -2.32195e+06 282483 0 -2.36125e+06 303459 0 -2.40377e+06 325084 0 -2.44973e+06 347432 0 -2.49934e+06 370571 0 -2.55291e+06 394554 0 -2.61077e+06 419405 0 -2.67338e+06 445105 0 -2.74126e+06 471552 0 -2.81511e+06 498516 0 -2.89581e+06 525556 0 -2.98446e+06 551887 0 -3.08249e+06 576159 0 -3.19159e+06 596097 0 -3.3137e+06 607919 0 -3.45044e+06 605424 0 -3.60169e+06 578778 0 -3.76229e+06 513735 0 -3.91599e+06 394332 0 -4.02965e+06 215270 0 -4.06414e+06 2.08616e-07 0 -2.06759e+06 77863.5 0 -2.07889e+06 96331.1 0 -2.09241e+06 114772 0 -2.10819e+06 133235 0 -2.12628e+06 151772 0 -2.14672e+06 170439 0 -2.16958e+06 189294 0 -2.19493e+06 208398 0 -2.22284e+06 227814 0 -2.25341e+06 247611 0 -2.28675e+06 267861 0 -2.32297e+06 288639 0 -2.36222e+06 310024 0 -2.40466e+06 332096 0 -2.4505e+06 354932 0 -2.49998e+06 378606 0 -2.55338e+06 403179 0 -2.61105e+06 428684 0 -2.67344e+06 455113 0 -2.74111e+06 482383 0 -2.81477e+06 510286 0 -2.89532e+06 538414 0 -2.98394e+06 566022 0 -3.08214e+06 591814 0 -3.19181e+06 613574 0 -3.31514e+06 627553 0 -3.45421e+06 627484 0 -3.60963e+06 603146 0 -3.77707e+06 539191 0 -3.94042e+06 417341 0 -4.06377e+06 229569 0 -4.10225e+06 -1.78814e-07 0 -2.06753e+06 81444.3 0 -2.07903e+06 100032 0 -2.09275e+06 118617 0 -2.1087e+06 137244 0 -2.12693e+06 155968 0 -2.1475e+06 174846 0 -2.17046e+06 193935 0 -2.19588e+06 213298 0 -2.22384e+06 232999 0 -2.25444e+06 253110 0 -2.28777e+06 273702 0 -2.32396e+06 294855 0 -2.36315e+06 316648 0 -2.40551e+06 339165 0 -2.45123e+06 362490 0 -2.50056e+06 386700 0 -2.55378e+06 411863 0 -2.61125e+06 438023 0 -2.67342e+06 465186 0 -2.74086e+06 493284 0 -2.8143e+06 522137 0 -2.89469e+06 551369 0 -2.98326e+06 580285 0 -3.08161e+06 607647 0 -3.1918e+06 631310 0 -3.31631e+06 647585 0 -3.45771e+06 650168 0 -3.61738e+06 628495 0 -3.79199e+06 566099 0 -3.96585e+06 442130 0 -4.10016e+06 245214 0 -4.14334e+06 1.19209e-07 0 -2.06749e+06 85078.5 0 -2.07921e+06 103788 0 -2.09311e+06 122516 0 -2.10922e+06 141309 0 -2.12759e+06 160222 0 -2.14828e+06 179310 0 -2.17133e+06 198634 0 -2.19683e+06 218257 0 -2.22484e+06 238244 0 -2.25545e+06 258668 0 -2.28878e+06 279603 0 -2.32493e+06 301129 0 -2.36405e+06 323331 0 -2.40632e+06 346294 0 -2.45191e+06 370106 0 -2.50108e+06 394852 0 -2.55411e+06 420606 0 -2.61137e+06 447423 0 -2.67331e+06 475321 0 -2.74051e+06 504254 0 -2.81372e+06 534067 0 -2.89392e+06 564422 0 -2.9824e+06 594674 0 -3.08086e+06 623656 0 -3.19153e+06 649306 0 -3.31718e+06 668018 0 -3.46088e+06 673490 0 -3.62488e+06 654867 0 -3.807e+06 594568 0 -3.99227e+06 468904 0 -4.13902e+06 262414 0 -4.18775e+06 -5.96046e-08 0 -2.06749e+06 88766.3 0 -2.07941e+06 107599 0 -2.09349e+06 126472 0 -2.10976e+06 145431 0 -2.12827e+06 164533 0 -2.14907e+06 183833 0 -2.17221e+06 203392 0 -2.19777e+06 223275 0 -2.22582e+06 243548 0 -2.25645e+06 264285 0 -2.28976e+06 285563 0 -2.32587e+06 307463 0 -2.36492e+06 330072 0 -2.40708e+06 353481 0 -2.45254e+06 377781 0 -2.50154e+06 403063 0 -2.55438e+06 429408 0 -2.61141e+06 456883 0 -2.67311e+06 485520 0 -2.74005e+06 515294 0 -2.81301e+06 546077 0 -2.893e+06 577571 0 -2.98136e+06 609189 0 -3.07989e+06 639839 0 -3.19099e+06 667562 0 -3.31771e+06 688854 0 -3.46368e+06 697464 0 -3.63204e+06 682305 0 -3.82199e+06 624710 0 -4.01966e+06 497892 0 -4.18058e+06 281413 0 -4.23586e+06 5.96046e-08 0 -2.06752e+06 92507.8 0 -2.07963e+06 111465 0 -2.09389e+06 130484 0 -2.11031e+06 149611 0 -2.12896e+06 168901 0 -2.14986e+06 188414 0 -2.17309e+06 208209 0 -2.19871e+06 228352 0 -2.22679e+06 248912 0 -2.25743e+06 269962 0 -2.29072e+06 291582 0 -2.32678e+06 313855 0 -2.36575e+06 336872 0 -2.4078e+06 360726 0 -2.45312e+06 385514 0 -2.50194e+06 411331 0 -2.55457e+06 438268 0 -2.61137e+06 466403 0 -2.67281e+06 495782 0 -2.73948e+06 526401 0 -2.81217e+06 558164 0 -2.89192e+06 590815 0 -2.98013e+06 623828 0 -3.07869e+06 656196 0 -3.19016e+06 686074 0 -3.31789e+06 710093 0 -3.46606e+06 722099 0 -3.6388e+06 710848 0 -3.83685e+06 656644 0 -4.04798e+06 529356 0 -4.22508e+06 302504 0 -4.28814e+06 0 0 -2.06758e+06 96303.3 0 -2.07989e+06 115386 0 -2.09431e+06 134552 0 -2.11089e+06 153847 0 -2.12965e+06 173328 0 -2.15066e+06 193054 0 -2.17397e+06 213085 0 -2.19964e+06 233489 0 -2.22776e+06 254335 0 -2.25839e+06 275698 0 -2.29166e+06 297660 0 -2.32766e+06 320307 0 -2.36655e+06 343731 0 -2.40848e+06 368030 0 -2.45364e+06 393304 0 -2.50229e+06 419657 0 -2.5547e+06 447187 0 -2.61125e+06 475982 0 -2.67241e+06 506105 0 -2.73879e+06 537576 0 -2.81119e+06 570328 0 -2.89068e+06 604153 0 -2.97871e+06 638588 0 -3.07725e+06 672723 0 -3.18902e+06 704839 0 -3.31768e+06 731733 0 -3.46795e+06 747402 0 -3.64505e+06 740532 0 -3.85147e+06 690490 0 -4.07717e+06 563589 0 -4.27279e+06 326038 0 -4.34515e+06 0 0 -2.06767e+06 100153 0 -2.08017e+06 119363 0 -2.09476e+06 138676 0 -2.11148e+06 158141 0 -2.13036e+06 177813 0 -2.15147e+06 197752 0 -2.17485e+06 218021 0 -2.20057e+06 238685 0 -2.22871e+06 259817 0 -2.25934e+06 281494 0 -2.29257e+06 303798 0 -2.32851e+06 326818 0 -2.36731e+06 350649 0 -2.40911e+06 375392 0 -2.45412e+06 401153 0 -2.50257e+06 428041 0 -2.55475e+06 456163 0 -2.61105e+06 485619 0 -2.67192e+06 516490 0 -2.738e+06 548817 0 -2.81008e+06 582568 0 -2.88928e+06 617582 0 -2.97708e+06 653467 0 -3.07555e+06 689415 0 -3.18754e+06 723854 0 -3.31703e+06 753770 0 -3.4693e+06 773374 0 -3.6507e+06 771388 0 -3.86568e+06 726368 0 -4.10709e+06 600927 0 -4.32401e+06 352446 0 -4.40758e+06 1.19209e-07 0 -2.06779e+06 104057 0 -2.08047e+06 123395 0 -2.09522e+06 142857 0 -2.11208e+06 162492 0 -2.13108e+06 182356 0 -2.15228e+06 202509 0 -2.17573e+06 223015 0 -2.2015e+06 243941 0 -2.22965e+06 265359 0 -2.26027e+06 287349 0 -2.29346e+06 309995 0 -2.32934e+06 333387 0 -2.36803e+06 357624 0 -2.4097e+06 382811 0 -2.45454e+06 409058 0 -2.50278e+06 436481 0 -2.55473e+06 465196 0 -2.61076e+06 495315 0 -2.67133e+06 526936 0 -2.73708e+06 560123 0 -2.80883e+06 594881 0 -2.8877e+06 631100 0 -2.97524e+06 668463 0 -3.07357e+06 706270 0 -3.18572e+06 743111 0 -3.31593e+06 776197 0 -3.47005e+06 800014 0 -3.65563e+06 803438 0 -3.8793e+06 764397 0 -4.1376e+06 641742 0 -4.37908e+06 382249 0 -4.47623e+06 5.96046e-08 0 -2.06795e+06 108015 0 -2.0808e+06 127482 0 -2.09571e+06 147095 0 -2.1127e+06 166900 0 -2.13181e+06 186957 0 -2.1531e+06 207325 0 -2.17661e+06 228069 0 -2.20241e+06 249256 0 -2.23058e+06 270961 0 -2.26118e+06 293264 0 -2.29433e+06 316251 0 -2.33013e+06 340016 0 -2.36871e+06 364659 0 -2.41024e+06 390289 0 -2.4549e+06 417021 0 -2.50294e+06 444979 0 -2.55464e+06 474286 0 -2.61038e+06 505069 0 -2.67064e+06 537441 0 -2.73604e+06 571494 0 -2.80743e+06 607267 0 -2.88595e+06 644705 0 -2.97317e+06 683570 0 -3.07131e+06 723281 0 -3.18352e+06 762604 0 -3.31433e+06 799005 0 -3.47014e+06 827313 0 -3.65974e+06 836701 0 -3.89213e+06 804688 0 -4.16846e+06 686457 0 -4.43836e+06 416094 0 -4.55214e+06 0 0 -2.06813e+06 112027 0 -2.08116e+06 131625 0 -2.09622e+06 151389 0 -2.11334e+06 171367 0 -2.13256e+06 191617 0 -2.15392e+06 212200 0 -2.17749e+06 233182 0 -2.20333e+06 254631 0 -2.23149e+06 276623 0 -2.26208e+06 299238 0 -2.29517e+06 322567 0 -2.33089e+06 346703 0 -2.36936e+06 371751 0 -2.41073e+06 397823 0 -2.45521e+06 425041 0 -2.50303e+06 453533 0 -2.55447e+06 483433 0 -2.60991e+06 514879 0 -2.66984e+06 548005 0 -2.73488e+06 582927 0 -2.80588e+06 619724 0 -2.88401e+06 658395 0 -2.97088e+06 698785 0 -3.06876e+06 740441 0 -3.18093e+06 782321 0 -3.31219e+06 822179 0 -3.46948e+06 855258 0 -3.6629e+06 871180 0 -3.90393e+06 847341 0 -4.19933e+06 735538 0 -4.50222e+06 454783 0 -4.63657e+06 -5.96046e-08 0 -2.06834e+06 116095 0 -2.08154e+06 135825 0 -2.09674e+06 155740 0 -2.11399e+06 175891 0 -2.13331e+06 196335 0 -2.15475e+06 217134 0 -2.17837e+06 238354 0 -2.20423e+06 260065 0 -2.2324e+06 282344 0 -2.26295e+06 305272 0 -2.29599e+06 328941 0 -2.33161e+06 353449 0 -2.36996e+06 378901 0 -2.41118e+06 405416 0 -2.45547e+06 433117 0 -2.50305e+06 462142 0 -2.55422e+06 492635 0 -2.60936e+06 524746 0 -2.66893e+06 558627 0 -2.73359e+06 594422 0 -2.80419e+06 632249 0 -2.88189e+06 672165 0 -2.96835e+06 714103 0 -3.06589e+06 757744 0 -3.17792e+06 802253 0 -3.30947e+06 845704 0 -3.46802e+06 883829 0 -3.66496e+06 906869 0 -3.91443e+06 892432 0 -4.22979e+06 789497 0 -4.57105e+06 499324 0 -4.73116e+06 -2.98023e-07 0 -2.06859e+06 120217 0 -2.08195e+06 140080 0 -2.09729e+06 160149 0 -2.11465e+06 180473 0 -2.13406e+06 201112 0 -2.15558e+06 222127 0 -2.17925e+06 243586 0 -2.20513e+06 265559 0 -2.23329e+06 288124 0 -2.26381e+06 311366 0 -2.29678e+06 335375 0 -2.33231e+06 360253 0 -2.37052e+06 386110 0 -2.41158e+06 413065 0 -2.45567e+06 441250 0 -2.50301e+06 470808 0 -2.5539e+06 501893 0 -2.60871e+06 534668 0 -2.66792e+06 569306 0 -2.73217e+06 605977 0 -2.80233e+06 644840 0 -2.87957e+06 686012 0 -2.96557e+06 729519 0 -3.0627e+06 775181 0 -3.17447e+06 822386 0 -3.30615e+06 869559 0 -3.46568e+06 912996 0 -3.66578e+06 943750 0 -3.92334e+06 940010 0 -4.25921e+06 848890 0 -4.64521e+06 550987 0 -4.83796e+06 6.55651e-07 0 -2.06886e+06 124395 0 -2.08238e+06 144391 0 -2.09786e+06 164615 0 -2.11533e+06 185113 0 -2.13483e+06 205948 0 -2.15641e+06 227180 0 -2.18012e+06 248878 0 -2.20602e+06 271113 0 -2.23417e+06 293965 0 -2.26464e+06 317519 0 -2.29754e+06 341868 0 -2.33297e+06 367116 0 -2.37105e+06 393376 0 -2.41193e+06 420771 0 -2.4558e+06 449439 0 -2.5029e+06 479529 0 -2.55349e+06 511205 0 -2.60797e+06 544645 0 -2.6668e+06 580040 0 -2.73062e+06 617589 0 -2.80031e+06 657494 0 -2.87705e+06 699933 0 -2.96253e+06 745026 0 -3.05917e+06 792742 0 -3.17057e+06 842705 0 -3.30218e+06 893721 0 -3.46239e+06 942724 0 -3.66522e+06 981784 0 -3.93035e+06 990082 0 -4.28682e+06 914298 0 -4.72502e+06 611398 0 -4.95971e+06 -4.17233e-07 0 -2.06917e+06 128627 0 -2.08283e+06 148759 0 -2.09844e+06 169138 0 -2.11602e+06 189812 0 -2.13561e+06 210842 0 -2.15725e+06 232292 0 -2.181e+06 254229 0 -2.2069e+06 276727 0 -2.23503e+06 299865 0 -2.26546e+06 323731 0 -2.29828e+06 348420 0 -2.3336e+06 374038 0 -2.37153e+06 400700 0 -2.41223e+06 428534 0 -2.45589e+06 457683 0 -2.50271e+06 488304 0 -2.55301e+06 520571 0 -2.60713e+06 554675 0 -2.66556e+06 590828 0 -2.72894e+06 629258 0 -2.79813e+06 670208 0 -2.87432e+06 713922 0 -2.95923e+06 760617 0 -3.0553e+06 810416 0 -3.16618e+06 863193 0 -3.29753e+06 918161 0 -3.45808e+06 972964 0 -3.66309e+06 1.02092e+06 0 -3.93513e+06 1.0426e+06 0 -4.31157e+06 986306 0 -4.81062e+06 682647 0 -5.10001e+06 -3.57628e-07 0 -2.0695e+06 132916 0 -2.08331e+06 153184 0 -2.09905e+06 173719 0 -2.11673e+06 194569 0 -2.1364e+06 215796 0 -2.15809e+06 237464 0 -2.18187e+06 259640 0 -2.20777e+06 282401 0 -2.23588e+06 305825 0 -2.26625e+06 330003 0 -2.29899e+06 355031 0 -2.33419e+06 381018 0 -2.37197e+06 408081 0 -2.41248e+06 436354 0 -2.45591e+06 465983 0 -2.50246e+06 497134 0 -2.55244e+06 529990 0 -2.60619e+06 564757 0 -2.66421e+06 601668 0 -2.72711e+06 640980 0 -2.79577e+06 682979 0 -2.87139e+06 727975 0 -2.95566e+06 776286 0 -3.05106e+06 828192 0 -3.16129e+06 883829 0 -3.29215e+06 942848 0 -3.45267e+06 1.00366e+06 0 -3.65923e+06 1.06108e+06 0 -3.93738e+06 1.09746e+06 0 -4.33212e+06 1.06545e+06 0 -4.90185e+06 767455 0 -5.26377e+06 5.36442e-07 0 -2.06986e+06 137259 0 -2.08382e+06 157665 0 -2.09967e+06 178357 0 -2.11745e+06 199385 0 -2.13719e+06 220809 0 -2.15893e+06 242695 0 -2.18273e+06 265112 0 -2.20864e+06 288134 0 -2.23671e+06 311845 0 -2.26703e+06 336334 0 -2.29967e+06 361701 0 -2.33474e+06 388055 0 -2.37237e+06 415519 0 -2.41268e+06 444229 0 -2.45586e+06 474337 0 -2.50214e+06 506017 0 -2.55178e+06 539461 0 -2.60516e+06 574891 0 -2.66273e+06 612560 0 -2.72514e+06 652754 0 -2.79324e+06 695805 0 -2.86823e+06 742087 0 -2.9518e+06 792024 0 -3.04644e+06 846056 0 -3.15588e+06 904594 0 -3.28601e+06 967744 0 -3.44611e+06 1.03475e+06 0 -3.65345e+06 1.10218e+06 0 -3.9368e+06 1.15445e+06 0 -4.34679e+06 1.15216e+06 0 -4.99797e+06 869396 0 -5.45777e+06 -4.76837e-07 0 -2.07025e+06 141659 0 -2.08434e+06 162203 0 -2.10031e+06 183054 0 -2.11818e+06 204259 0 -2.13799e+06 225881 0 -2.15978e+06 247986 0 -2.1836e+06 270643 0 -2.20949e+06 293928 0 -2.23753e+06 317925 0 -2.26778e+06 342725 0 -2.30032e+06 368430 0 -2.33527e+06 395151 0 -2.37272e+06 423015 0 -2.41283e+06 452160 0 -2.45576e+06 482746 0 -2.50174e+06 514953 0 -2.55104e+06 548984 0 -2.60402e+06 585076 0 -2.66114e+06 623500 0 -2.72303e+06 664577 0 -2.79054e+06 708680 0 -2.86485e+06 756252 0 -2.94766e+06 807822 0 -3.04143e+06 863993 0 -3.14994e+06 925464 0 -3.27908e+06 992809 0 -3.43834e+06 1.06615e+06 0 -3.64556e+06 1.1441e+06 0 -3.9332e+06 1.21329e+06 0 -4.35354e+06 1.24658e+06 0 -5.09724e+06 993217 0 -5.69159e+06 1.19209e-07 0 -2.07067e+06 146114 0 -2.08489e+06 166799 0 -2.10097e+06 187809 0 -2.11893e+06 209192 0 -2.1388e+06 231013 0 -2.16063e+06 253337 0 -2.18445e+06 276234 0 -2.21033e+06 299782 0 -2.23833e+06 324065 0 -2.26851e+06 349176 0 -2.30095e+06 375218 0 -2.33575e+06 402305 0 -2.37303e+06 430567 0 -2.41292e+06 460147 0 -2.4556e+06 491209 0 -2.50127e+06 523941 0 -2.55022e+06 558557 0 -2.60278e+06 595309 0 -2.65943e+06 634489 0 -2.72077e+06 676446 0 -2.78765e+06 721601 0 -2.86124e+06 770464 0 -2.94323e+06 823671 0 -3.03603e+06 881989 0 -3.14344e+06 946414 0 -3.27132e+06 1.018e+06 0 -3.42933e+06 1.09778e+06 0 -3.63533e+06 1.18668e+06 0 -3.92643e+06 1.27363e+06 0 -4.35004e+06 1.34841e+06 0 -5.19612e+06 1.14528e+06 0 -5.97907e+06 5.96046e-08 0 -2.07111e+06 150625 0 -2.08546e+06 171452 0 -2.10165e+06 192621 0 -2.11968e+06 214184 0 -2.13961e+06 236204 0 -2.16147e+06 258748 0 -2.18531e+06 281885 0 -2.21117e+06 305696 0 -2.23911e+06 330264 0 -2.26921e+06 355685 0 -2.30154e+06 382064 0 -2.3362e+06 409517 0 -2.37329e+06 438175 0 -2.41296e+06 468188 0 -2.45537e+06 499725 0 -2.50073e+06 532981 0 -2.5493e+06 568180 0 -2.60144e+06 605589 0 -2.65759e+06 645522 0 -2.71836e+06 688358 0 -2.78458e+06 734564 0 -2.8574e+06 784717 0 -2.93849e+06 839561 0 -3.03021e+06 900025 0 -3.13637e+06 967418 0 -3.2627e+06 1.04325e+06 0 -3.41902e+06 1.12954e+06 0 -3.62256e+06 1.22975e+06 0 -3.91642e+06 1.33508e+06 0 -4.33388e+06 1.4565e+06 0 -5.2879e+06 1.33425e+06 0 -6.3406e+06 1.19209e-07 0 -2.07159e+06 155192 0 -2.08606e+06 176162 0 -2.10234e+06 197493 0 -2.12045e+06 219235 0 -2.14044e+06 241456 0 -2.16232e+06 264219 0 -2.18616e+06 287597 0 -2.21199e+06 311670 0 -2.23988e+06 336524 0 -2.26989e+06 362254 0 -2.3021e+06 388968 0 -2.3366e+06 416786 0 -2.37351e+06 445840 0 -2.41294e+06 476285 0 -2.45507e+06 508294 0 -2.5001e+06 542071 0 -2.5483e+06 577852 0 -2.59999e+06 615916 0 -2.65563e+06 656599 0 -2.7158e+06 700311 0 -2.78132e+06 747564 0 -2.85332e+06 799002 0 -2.93344e+06 855481 0 -3.02398e+06 918084 0 -3.12873e+06 988447 0 -3.25321e+06 1.06852e+06 0 -3.40738e+06 1.16134e+06 0 -3.60711e+06 1.27306e+06 0 -3.90309e+06 1.3973e+06 0 -4.30319e+06 1.56835e+06 0 -5.36043e+06 1.57192e+06 0 -6.80689e+06 -6.55651e-07 0 -2.07209e+06 159815 0 -2.08668e+06 180931 0 -2.10305e+06 202422 0 -2.12124e+06 224346 0 -2.14126e+06 246767 0 -2.16317e+06 269750 0 -2.187e+06 293369 0 -2.2128e+06 317704 0 -2.24063e+06 342843 0 -2.27055e+06 368883 0 -2.30263e+06 395932 0 -2.33697e+06 424112 0 -2.37367e+06 453561 0 -2.41287e+06 484435 0 -2.45471e+06 516915 0 -2.4994e+06 551212 0 -2.5472e+06 587571 0 -2.59843e+06 626287 0 -2.65353e+06 667717 0 -2.71308e+06 712302 0 -2.77787e+06 760596 0 -2.84899e+06 813315 0 -2.92808e+06 871418 0 -3.01731e+06 936147 0 -3.12047e+06 1.00947e+06 0 -3.24286e+06 1.09374e+06 0 -3.39429e+06 1.1931e+06 0 -3.58902e+06 1.31623e+06 0 -3.88595e+06 1.46024e+06 0 -4.2579e+06 1.67905e+06 0 -5.39204e+06 1.87493e+06 0 -7.42525e+06 7.15256e-07 0 -2.07261e+06 164494 0 -2.08732e+06 185757 0 -2.10378e+06 207410 0 -2.12203e+06 229516 0 -2.1421e+06 252137 0 -2.16402e+06 275341 0 -2.18784e+06 299201 0 -2.2136e+06 323799 0 -2.24136e+06 349222 0 -2.27118e+06 375570 0 -2.30313e+06 402953 0 -2.3373e+06 431495 0 -2.3738e+06 461337 0 -2.41274e+06 492639 0 -2.45428e+06 525588 0 -2.49862e+06 560401 0 -2.54601e+06 597336 0 -2.59676e+06 636700 0 -2.65131e+06 678873 0 -2.7102e+06 724326 0 -2.77422e+06 773655 0 -2.84442e+06 827646 0 -2.92239e+06 887361 0 -3.01023e+06 954194 0 -3.11156e+06 1.03047e+06 0 -3.23175e+06 1.11882e+06 0 -3.37944e+06 1.22478e+06 0 -3.56887e+06 1.35871e+06 0 -3.8634e+06 1.52448e+06 0 -4.20229e+06 1.78038e+06 0 -5.34473e+06 2.26583e+06 0 -8.26955e+06 -4.76837e-07 0 -2.07317e+06 169227 0 -2.08798e+06 190643 0 -2.10452e+06 212457 0 -2.12283e+06 234747 0 -2.14294e+06 257568 0 -2.16487e+06 280993 0 -2.18867e+06 305094 0 -2.21439e+06 329953 0 -2.24208e+06 355661 0 -2.27179e+06 382317 0 -2.3036e+06 410033 0 -2.33759e+06 438935 0 -2.37387e+06 469168 0 -2.41255e+06 500897 0 -2.45378e+06 534312 0 -2.49776e+06 569639 0 -2.54473e+06 607146 0 -2.59498e+06 647155 0 -2.64895e+06 690065 0 -2.70716e+06 736380 0 -2.77037e+06 786733 0 -2.83961e+06 841992 0 -2.91636e+06 903290 0 -3.00277e+06 972210 0 -3.10185e+06 1.05139e+06 0 -3.2202e+06 1.14366e+06 0 -3.36202e+06 1.25646e+06 0 -3.54854e+06 1.39943e+06 0 -3.83066e+06 1.59231e+06 0 -4.15063e+06 1.85661e+06 0 -5.15084e+06 2.77965e+06 0 -9.45929e+06 4.76837e-07 0 </DataArray> 
</PointData> 
<Points> 
<DataArray type="Float32" NumberOfComponents="3"> 