<?xml version="1.0"?> 
<VTKFile type="StructuredGrid" version="0.1"> 
<StructuredGrid WholeExtent="0 31 0 31 0 0"> 
<Piece Extent="0 31 0 31 0 0"> 
<PointData>
<DataArray type="Float32" Name="|E|" format="ascii" NumberOfComponents="3"> 
1174.91 2840.15 0 -269.235 1008.05 0 -164.204 812.008 0 -210.858 539.622 0 -150.859 370.957 0 -123.834 251.887 0 -91.5394 173.079 0 -69.7634 120.533 0 -52.2726 85.0939 0 -39.7049 60.9959 0 -30.2928 44.267 0 -23.3593 32.4903 0 -18.1581 24.0519 0 -14.2316 17.9262 0 -11.2278 13.4242 0 -8.90684 10.0852 0 -7.09546 7.59013 0 -5.67045 5.71587 0 -4.54202 4.30257 0 -3.64415 3.23425 0 -2.92746 2.42553 0 -2.35448 1.8129 0 -1.89641 1.3487 0 -1.53093 0.996932 0 -1.2406 0.730302 0 -1.01176 0.528035 0 -0.83381 0.374297 0 -0.698555 0.257026 0 -0.59988 0.167049 0 -0.533434 0.0974337 0 -0.496449 0.0429955 0 -0.487689 9.53674e-07 0 383.791 2225.69 0 -285.852 1089.22 0 -250.194 766.615 0 -239.062 512.938 0 -177.052 347.523 0 -137.346 235.738 0 -100.91 161.792 0 -75.4012 112.784 0 -56.0131 79.7896 0 -42.142 57.3321 0 -31.9473 41.7174 0 -24.4935 30.6921 0 -18.9518 22.7689 0 -14.7929 16.9995 0 -11.6288 12.7479 0 -9.19512 9.58691 0 -7.30361 7.22034 0 -5.8211 5.43981 0 -4.65119 4.09559 0 -3.72331 3.07863 0 -2.98486 2.30835 0 -2.39611 1.72465 0 -1.92666 1.28233 0 -1.55297 0.947177 0 -1.25675 0.69321 0 -1.02372 0.50064 0 -0.842798 0.354381 0 -0.705453 0.242933 0 -0.605313 0.157557 0 -0.537837 0.0916615 0 -0.500111 0.0403197 0 -0.490766 -9.61125e-07 0 -64.8055 1971.29 0 -358.869 1087.14 0 -318.235 723.884 0 -268.917 481.413 0 -199.351 323.168 0 -149.604 218.812 0 -109.022 150.162 0 -80.3521 104.853 0 -59.2769 74.3903 0 -44.2852 53.6174 0 -33.4091 39.1379 0 -25.5032 28.8756 0 -19.663 21.4739 0 -15.299 16.0646 0 -11.9923 12.0657 0 -9.4576 9.08447 0 -7.49383 6.84753 0 -5.95917 5.16156 0 -4.75147 3.88704 0 -3.79614 2.92187 0 -3.03774 2.19035 0 -2.43452 1.63583 0 -1.95459 1.21555 0 -1.57335 0.897135 0 -1.27171 0.655918 0 -1.03482 0.473112 0 -0.851152 0.334376 0 -0.711881 0.228786 0 -0.610391 0.148038 0 -0.54196 0.0858753 0 -0.503542 0.0376386 0 -0.493642 2.38419e-07 0 -365.176 1804.74 0 -447.308 1047.47 0 -376.016 677.887 0 -297.478 446.682 0 -218.416 297.856 0 -160.374 201.324 0 -115.936 138.288 0 -84.6069 96.8084 0 -62.075 68.9352 0 -46.1388 49.8752 0 -34.6822 36.5425 0 -26.3907 27.0492 0 -20.2931 20.1719 0 -15.7507 15.1246 0 -12.3188 11.3796 0 -9.69459 8.57913 0 -7.66628 6.47253 0 -6.08476 4.88167 0 -4.84292 3.67726 0 -3.86268 2.76422 0 -3.08614 2.07171 0 -2.46971 1.54653 0 -1.98021 1.14845 0 -1.59206 0.846858 0 -1.28547 0.618465 0 -1.04504 0.445474 0 -0.85887 0.314302 0 -0.717837 0.214596 0 -0.61511 0.138494 0 -0.545802 0.0800794 0 -0.50674 0.0349554 0 -0.496316 0 0 -589.754 1663.51 0 -534.912 985.78 0 -426.073 627.418 0 -323.338 409.618 0 -234.531 271.703 0 -169.539 183.459 0 -121.692 126.264 0 -88.1677 88.7102 0 -64.4204 63.46 0 -47.7089 46.1268 0 -35.7715 33.9439 0 -27.1587 25.2206 0 -20.8439 18.8677 0 -16.1492 14.1824 0 -12.609 10.6916 0 -9.90647 8.07209 0 -7.82119 6.09611 0 -6.19799 4.60065 0 -4.9256 3.46661 0 -3.92298 2.6059 0 -3.13006 1.95257 0 -2.5017 1.45688 0 -2.00352 1.08108 0 -1.60911 0.796397 0 -1.29802 0.580883 0 -1.05439 0.41775 0 -0.865951 0.294171 0 -0.72332 0.200373 0 -0.619469 0.128933 0 -0.54936 0.0742754 0 -0.509704 0.0322706 0 -0.498785 5.96046e-08 0 -767.596 1522.6 0 -614.965 910.279 0 -469.11 572.782 0 -345.784 370.79 0 -247.817 244.935 0 -177.054 165.383 0 -126.327 114.186 0 -91.0463 80.6168 0 -66.3272 57.9997 0 -49.0033 42.3922 0 -36.6823 31.3541 0 -27.8105 23.3969 0 -21.3174 17.5657 0 -16.4955 13.2409 0 -12.8634 10.0034 0 -10.0936 7.56449 0 -7.9588 5.71904 0 -6.299 4.31901 0 -4.9996 3.25543 0 -3.97707 2.44716 0 -3.16954 1.8331 0 -2.53049 1.36697 0 -2.02454 1.01352 0 -1.62451 0.745801 0 -1.30938 0.543207 0 -1.06287 0.389961 0 -0.872394 0.274 0 -0.728328 0.186125 0 -0.623467 0.119361 0 -0.552634 0.0684687 0 -0.512433 0.0295867 0 -0.50105 -2.98023e-08 0 -911.444 1377 0 -684.614 825.463 0 -505.263 514.748 0 -364.429 330.714 0 -258.346 217.799 0 -182.91 147.255 0 -129.877 102.152 0 -93.261 72.5834 0 -67.8115 52.5868 0 -50.0315 38.6905 0 -37.421 28.7845 0 -28.3497 21.5851 0 -21.7158 16.2702 0 -16.7911 12.3027 0 -13.083 9.31672 0 -10.2566 7.05743 0 -8.0794 5.34204 0 -6.38798 4.03724 0 -5.06503 3.04405 0 -4.02503 2.2882 0 -3.20461 1.71344 0 -2.55611 1.27692 0 -2.04327 0.945848 0 -1.63826 0.69512 0 -1.31955 0.50547 0 -1.07048 0.362132 0 -0.878198 0.253803 0 -0.732861 0.171864 0 -0.627102 0.109782 0 -0.555622 0.062661 0 -0.514925 0.0269034 0 -0.50311 1.19209e-07 0 -1027.51 1226.23 0 -742.715 734.368 0 -534.524 454.241 0 -379.076 289.87 0 -266.18 190.555 0 -187.129 129.23 0 -132.382 90.2502 0 -94.836 64.6621 0 -68.8917 47.2515 0 -50.8045 35.0391 0 -37.9944 26.2455 0 -28.7804 19.7913 0 -22.0415 14.9849 0 -17.0373 11.3702 0 -13.2686 8.63311 0 -10.3958 6.55197 0 -8.18328 4.96582 0 -6.46509 3.7558 0 -5.12198 2.83278 0 -4.06692 2.12926 0 -3.23532 1.59376 0 -2.57858 1.18682 0 -2.05973 0.878132 0 -1.65036 0.644401 0 -1.32852 0.467705 0 -1.07722 0.334283 0 -0.883364 0.233594 0 -0.736917 0.157597 0 -0.630373 0.100203 0 -0.558322 0.0568552 0 -0.517179 0.0242231 0 -0.504962 1.19209e-07 0 -1119.26 1071.67 0 -788.932 639.276 0 -556.897 392.19 0 -389.65 248.731 0 -271.389 163.46 0 -189.753 111.457 0 -133.89 78.5679 0 -95.8002 56.9013 0 -69.5876 42.0219 0 -51.3342 31.4542 0 -38.4098 23.7468 0 -29.107 18.0215 0 -22.2973 13.7137 0 -17.2358 10.4458 0 -13.4211 7.9541 0 -10.5118 6.04911 0 -8.27079 4.59105 0 -6.53054 3.47517 0 -5.17059 2.62195 0 -4.10281 1.97055 0 -3.2617 1.47419 0 -2.59794 1.09677 0 -2.07394 0.810442 0 -1.66083 0.593694 0 -1.3363 0.429945 0 -1.0831 0.306437 0 -0.887892 0.213388 0 -0.740497 0.143335 0 -0.633281 0.0906299 0 -0.560734 0.0510559 0 -0.519196 0.0215472 0 -0.506608 1.78814e-07 0 -1188.94 915.129 0 -823.35 542.045 0 -572.456 329.481 0 -396.166 207.748 0 -274.059 136.764 0 -190.841 94.0759 0 -134.452 67.185 0 -96.1863 49.3456 0 -69.9211 36.9234 0 -51.6334 27.9505 0 -38.6752 21.2971 0 -29.3341 16.2811 0 -22.4858 12.4598 0 -17.3881 9.53165 0 -13.5415 7.28113 0 -10.6053 5.54981 0 -8.34227 4.21837 0 -6.58454 3.19576 0 -5.21098 2.41184 0 -4.13277 1.81227 0 -3.28381 1.35487 0 -2.6142 1.00688 0 -2.0859 0.742847 0 -1.66967 0.543044 0 -1.34291 0.39222 0 -1.08811 0.278615 0 -0.891783 0.1932 0 -0.7436 0.129087 0 -0.635823 0.0810672 0 -0.562858 0.0452646 0 -0.520973 0.018876 0 -0.508045 -1.19209e-07 0 -1238.24 758.481 0 -846.292 444.248 0 -581.349 266.938 0 -398.708 167.356 0 -274.296 110.709 0 -190.472 77.2208 0 -134.127 56.1748 0 -96.031 42.0351 0 -69.9152 31.9785 0 -51.7161 24.541 0 -38.7987 18.9043 0 -29.4666 14.5748 0 -22.61 11.2264 0 -17.4959 8.62978 0 -13.6308 6.61553 0 -10.6768 5.05495 0 -8.39811 3.84838 0 -6.62733 2.91801 0 -5.24329 2.20275 0 -4.15691 1.65462 0 -3.30169 1.23596 0 -2.6274 0.917245 0 -2.09564 0.675413 0 -1.6769 0.492499 0 -1.34833 0.354565 0 -1.09226 0.250839 0 -0.895038 0.173044 0 -0.746227 0.114862 0 -0.638 0.0715219 0 -0.564692 0.0394858 0 -0.52251 0.0162116 0 -0.509275 -1.19209e-07 0 -1268.59 603.521 0 -858.233 347.248 0 -583.801 205.317 0 -397.416 127.963 0 -272.226 85.5189 0 -188.733 61.0142 0 -132.979 45.6035 0 -95.3734 35.0056 0 -69.5943 27.2074 0 -51.5963 21.2374 0 -38.789 16.5754 0 -29.5094 12.9072 0 -22.6728 10.0163 0 -17.5612 7.74204 0 -13.6901 5.95855 0 -10.727 4.56539 0 -8.4387 3.48168 0 -6.65915 2.64231 0 -5.26768 1.99496 0 -4.1753 1.49781 0 -3.31541 1.11758 0 -2.63757 0.827956 0 -2.10319 0.608206 0 -1.68253 0.442104 0 -1.35259 0.317009 0 -1.09555 0.22313 0 -0.897659 0.152934 0 -0.748378 0.100668 0 -0.639812 0.0619985 0 -0.566235 0.0337216 0 -0.523807 0.0135548 0 -0.510295 -1.78814e-07 0 -1281.33 451.91 0 -859.75 252.239 0 -580.101 145.307 0 -392.473 89.9496 0 -267.995 61.4051 0 -185.727 45.5673 0 -131.074 35.5294 0 -94.2553 28.288 0 -68.9833 22.6272 0 -51.2891 18.0495 0 -38.6547 14.3166 0 -29.4679 11.2819 0 -22.6773 8.83199 0 -17.5856 6.87011 0 -13.7205 5.31133 0 -10.7565 4.08191 0 -8.46445 3.11881 0 -6.68025 2.36905 0 -5.2843 1.78873 0 -4.18805 1.34201 0 -3.32503 0.999868 0 -2.64476 0.739106 0 -2.10855 0.541291 0 -1.68657 0.391904 0 -1.35569 0.279584 0 -1.098 0.19551 0 -0.899649 0.132884 0 -0.750054 0.0865156 0 -0.641258 0.0525029 0 -0.567488 0.0279755 0 -0.524863 0.0109079 0 -0.511106 2.38419e-07 0 -1277.78 305.153 0 -851.492 160.261 0 -570.593 87.5278 0 -384.105 53.667 0 -261.769 38.5589 0 -181.567 30.9787 0 -128.486 26.0026 0 -92.7199 21.9082 0 -68.1081 18.2522 0 -50.8094 14.9859 0 -38.4047 12.133 0 -29.3471 9.70242 0 -22.6267 7.67577 0 -17.5711 6.01554 0 -13.7232 4.67493 0 -10.7661 3.60526 0 -8.47579 2.76029 0 -6.69089 2.09859 0 -5.29332 1.58434 0 -4.19526 1.18741 0 -3.33061 0.88295 0 -2.649 0.650787 0 -2.11177 0.474732 0 -1.68904 0.341943 0 -1.35764 0.24232 0 -1.09959 0.167999 0 -0.901009 0.112907 0 -0.751256 0.0724131 0 -0.642338 0.0430409 0 -0.568451 0.0222499 0 -0.525679 0.00827089 0 -0.511707 1.78814e-07 0 -1259.26 164.588 0 -834.161 72.2228 0 -555.664 32.533 0 -372.568 19.4351 0 -253.733 17.1515 0 -176.374 17.3331 0 -125.29 17.0645 0 -90.8117 15.8874 0 -66.9948 14.0942 0 -50.1725 12.0535 0 -38.048 10.029 0 -29.1524 8.17168 0 -22.524 6.5496 0 -17.5196 5.17969 0 -13.6993 4.05033 0 -10.7565 3.13612 0 -8.47317 2.40661 0 -6.69136 1.83128 0 -5.2949 1.38201 0 -4.19705 1.03418 0 -3.33222 0.766953 0 -2.65034 0.563086 0 -2.11287 0.40859 0 -1.68996 0.292263 0 -1.35844 0.205247 0 -1.10034 0.140616 0 -0.901743 0.0930184 0 -0.751985 0.0583698 0 -0.643054 0.0336177 0 -0.569123 0.0165484 0 -0.526252 0.00564516 0 -0.512098 -7.15256e-07 0 -1227.09 31.3803 0 -808.495 -11.0933 0 -535.738 -19.1855 0 -358.145 -12.4584 0 -244.085 -2.66738 0 -170.276 4.70004 0 -121.562 8.74734 0 -88.5756 10.2416 0 -65.6695 10.162 0 -49.3934 9.25757 0 -37.5936 8.00823 0 -28.8892 6.6921 0 -22.3726 5.45522 0 -17.4329 4.36381 0 -13.6499 3.43841 0 -10.7284 2.67513 0 -8.45703 2.05823 0 -6.68194 1.56746 0 -5.28924 1.182 0 -4.19352 0.882505 0 -3.32993 0.651995 0 -2.64883 0.476089 0 -2.11187 0.342925 0 -1.68933 0.242908 0 -1.35812 0.168394 0 -1.10026 0.113384 0 -0.901854 0.0732304 0 -0.752243 0.0443936 0 -0.643405 0.0242386 0 -0.569504 0.0108734 0 -0.526584 0.00303221 0 -0.51228 2.38419e-07 0 -1182.62 -93.4779 0 -775.255 -89.0224 0 -511.265 -67.1947 0 -341.149 -41.7575 0 -233.041 -20.772 0 -163.405 -6.86627 0 -117.38 1.07461 0 -86.0565 4.98196 0 -64.1579 6.46186 0 -48.4873 6.60223 0 -37.0501 6.07343 0 -28.5625 5.2657 0 -22.1754 4.39409 0 -17.3131 3.56898 0 -13.5763 2.83997 0 -10.6825 2.22287 0 -8.42784 1.71556 0 -6.66291 1.30742 0 -5.27652 0.984514 0 -4.18479 0.732534 0 -3.32383 0.538194 0 -2.6445 0.389878 0 -2.1088 0.277797 0 -1.68719 0.193918 0 -1.35668 0.13179 0 -1.09935 0.0863203 0 -0.901346 0.0535562 0 -0.752031 0.0304937 0 -0.643393 0.0149085 0 -0.569594 0.00522819 0 -0.526674 0.000433445 0 -0.512251 1.19209e-07 0 -1127.21 -209.171 0 -735.207 -161.01 0 -482.712 -111.115 0 -321.913 -68.2386 0 -220.828 -37.0618 0 -155.898 -17.3282 0 -112.823 -5.93941 0 -83.2988 0.114746 0 -62.4854 2.99737 0 -47.4688 4.09004 0 -36.4263 4.22663 0 -28.1776 3.89404 0 -21.9357 3.36745 0 -17.162 2.79613 0 -13.4797 2.25572 0 -10.6196 1.77988 0 -8.38606 1.37903 0 -6.63459 1.05147 0 -5.25692 0.789782 0 -4.17099 0.584425 0 -3.31397 0.425662 0 -2.63742 0.304535 0 -2.10371 0.213261 0 -1.68356 0.145334 0 -1.35413 0.0954629 0 -1.09762 0.0594448 0 -0.900223 0.0340089 0 -0.751353 0.0166782 0 -0.643019 0.00563335 0 -0.569395 -0.000384808 0 -0.526523 -0.00215 0 -0.512013 -2.38419e-07 0 -1062.21 -315.058 0 -689.111 -226.602 0 -450.565 -150.612 0 -300.796 -91.7106 0 -207.681 -51.4639 0 -147.891 -26.665 0 -107.968 -12.2893 0 -80.3455 -4.35834 0 -60.6766 -0.230149 0 -46.3521 1.72231 0 -35.7306 2.4691 0 -27.7396 2.5783 0 -21.6565 2.37628 0 -16.9816 2.04608 0 -13.3612 1.6863 0 -10.5404 1.34665 0 -8.33216 1.04898 0 -6.59725 0.799876 0 -5.23064 0.598001 0 -4.15223 0.438327 0 -3.30046 0.314507 0 -2.62763 0.220137 0 -2.09661 0.149375 0 -1.67844 0.0971954 0 -1.35048 0.0594409 0 -1.09507 0.0327764 0 -0.89849 0.0146019 0 -0.750211 0.00295576 0 -0.642283 -0.00358209 0 -0.568906 -0.00596172 0 -0.52613 -0.00471759 0 -0.511564 1.19209e-07 0 -988.93 -410.673 0 -637.704 -285.44 0 -415.318 -185.393 0 -278.179 -112.016 0 -193.843 -63.9351 0 -139.519 -34.8726 0 -102.889 -17.9784 0 -77.2381 -8.43995 0 -58.755 -3.22165 0 -45.1512 -0.500857 0 -34.9711 0.801501 0 -27.2533 1.31927 0 -21.3409 1.42138 0 -16.7736 1.3195 0 -13.222 1.13227 0 -10.4456 0.92362 0 -8.26663 0.725764 0 -6.55123 0.552903 0 -5.19788 0.409365 0 -4.12866 0.294384 0 -3.28337 0.204833 0 -2.61518 0.136759 0 -2.08755 0.0861918 0 -1.67187 0.0495406 0 -1.34576 0.0237504 0 -1.09172 0.00633407 0 -0.896152 -0.00465217 0 -0.748606 -0.0106655 0 -0.641187 -0.012733 0 -0.568127 -0.0115012 0 -0.525497 -0.00726736 0 -0.510906 1.19209e-07 0 -908.668 -495.724 0 -581.682 -337.245 0 -377.483 -215.19 0 -254.47 -129.035 0 -179.561 -74.4646 0 -130.913 -41.9635 0 -97.6584 -23.0179 0 -74.0158 -12.1368 0 -56.7433 -5.98016 0 -43.879 -2.58045 0 -34.1558 -0.77616 0 -26.7237 0.117404 0 -20.9918 0.503292 0 -16.5401 0.61695 0 -13.0633 0.594102 0 -10.3361 0.511185 0 -8.18994 0.409694 0 -6.49682 0.310789 0 -5.15883 0.224057 0 -4.1004 0.152731 0 -3.26279 0.0967399 0 -2.60014 0.0544737 0 -2.07656 0.0237642 0 -1.66387 0.0024071 0 -1.33997 -0.0115827 0 -1.08757 -0.0198638 0 -0.893214 -0.0237414 0 -0.746543 -0.0241773 0 -0.639733 -0.0218142 0 -0.567061 -0.0169994 0 -0.524623 -0.00979859 0 -0.510039 -4.76837e-07 0 -822.645 -570.096 0 -521.677 -381.804 0 -337.595 -239.755 0 -230.107 -142.688 0 -165.073 -83.0759 0 -122.198 -47.9657 0 -92.3431 -27.4271 0 -70.7151 -15.459 0 -54.6625 -8.51053 0 -42.5481 -4.51845 0 -33.2921 -2.26443 0 -26.1552 -1.0272 0 -20.6121 -0.377591 0 -16.2826 -0.061135 0 -12.8861 0.0722165 0 -10.2125 0.109699 0 -8.10257 0.101056 0 -6.43433 0.0737577 0 -5.11372 0.0422476 0 -4.06758 0.0134965 0 -3.2388 -0.00967686 0 -2.58257 -0.0266479 0 -2.06369 -0.0378573 0 -1.65447 -0.0441692 0 -1.33314 -0.0465318 0 -1.08264 -0.0458 0 -0.889681 -0.0426541 0 -0.744025 -0.0375717 0 -0.637923 -0.0308204 0 -0.565708 -0.0224542 0 -0.523508 -0.0123102 0 -0.508963 3.57628e-07 0 -731.986 -633.863 0 -458.239 -418.943 0 -296.234 -258.841 0 -205.555 -152.95 0 -150.611 -89.8284 0 -113.492 -52.9218 0 -87.0056 -31.2321 0 -67.3697 -18.4199 0 -52.5325 -10.8193 0 -41.1699 -6.31773 0 -32.3872 -3.66437 0 -25.5523 -2.1147 0 -20.2045 -1.22108 0 -16.0031 -0.714425 0 -12.6918 -0.433043 0 -10.0756 -0.280529 0 -8.005 -0.199891 0 -6.36409 -0.157982 0 -5.06273 -0.135902 0 -4.03035 -0.123197 0 -3.2115 -0.114325 0 -2.56251 -0.106539 0 -2.04896 -0.0986232 0 -1.64368 -0.0901528 0 -1.32527 -0.0810724 0 -1.07693 -0.0714566 0 -0.885561 -0.0613776 0 -0.741054 -0.0508422 0 -0.635758 -0.0397473 0 -0.564068 -0.0278625 0 -0.522154 -0.0148004 0 -0.507678 0 0 -637.67 -687.309 0 -391.805 -448.495 0 -254.056 -272.195 0 -181.298 -159.864 0 -136.38 -94.816 0 -104.905 -56.8868 0 -81.7013 -34.4653 0 -64.0106 -21.0354 0 -50.3716 -12.9145 0 -39.7553 -7.98193 0 -31.4478 -4.97751 0 -24.9191 -3.14556 0 -19.7717 -2.02715 0 -15.7032 -1.34269 0 -12.4813 -0.921397 0 -9.92612 -0.659226 0 -7.8977 -0.492912 0 -6.28641 -0.384239 0 -5.00609 -0.31024 0 -3.98884 -0.257232 0 -3.18097 -0.217117 0 -2.54004 -0.185134 0 -2.03242 -0.158486 0 -1.63153 -0.13551 0 -1.31638 -0.11518 0 -1.07045 -0.0968162 0 -0.880858 -0.079901 0 -0.737636 -0.063979 0 -0.633241 -0.0485907 0 -0.562143 -0.0332221 0 -0.520562 -0.0172687 0 -0.506185 -1.19209e-07 0 -540.431 -730.982 0 -322.679 -470.232 0 -211.86 -279.545 0 -157.826 -163.566 0 -122.562 -98.1622 0 -96.5417 -59.9277 0 -76.4771 -37.1642 0 -60.666 -23.3235 0 -48.1962 -14.8054 0 -38.3142 -9.5153 0 -30.4801 -6.20578 0 -24.2596 -4.12044 0 -19.3162 -2.79594 0 -15.3846 -1.94579 0 -12.2557 -1.39263 0 -9.76474 -1.02616 0 -7.78115 -0.777799 0 -6.20159 -0.604837 0 -4.944 -0.480627 0 -3.94318 -0.388501 0 -3.14732 -0.317971 0 -2.51521 -0.262371 0 -2.01411 -0.2174 0 -1.61805 -0.180206 0 -1.30649 -0.148831 0 -1.06322 -0.121863 0 -0.87558 -0.0982119 0 -0.733773 -0.0769764 0 -0.630373 -0.0573445 0 -0.559935 -0.0385301 0 -0.518732 -0.0197143 0 -0.504485 1.19209e-07 0 -440.574 -765.839 0 -251.033 -483.754 0 -170.668 -280.616 0 -135.584 -164.313 0 -109.306 -100.008 0 -88.4954 -62.1235 0 -71.3695 -39.3696 0 -57.3627 -25.3039 0 -46.0202 -16.502 0 -36.8559 -10.9228 0 -29.4901 -7.35138 0 -23.5775 -5.0403 0 -18.8406 -3.52768 0 -15.0488 -2.52368 0 -12.0162 -1.84657 0 -9.59217 -1.38113 0 -7.65582 -1.05436 0 -6.10997 -0.819615 0 -4.87667 -0.646931 0 -3.89354 -0.5169 0 -3.11063 -0.416806 0 -2.48808 -0.338191 0 -1.99407 -0.275321 0 -1.60328 -0.224209 0 -1.29562 -0.182001 0 -1.05525 -0.14658 0 -0.869734 -0.116301 0 -0.729471 -0.0898257 0 -0.627159 -0.0660049 0 -0.557445 -0.0437841 0 -0.516664 -0.0221356 0 -0.502579 0 0 -337.577 -793.49 0 -176.983 -488.291 0 -131.849 -275.177 0 -114.889 -162.522 0 -96.755 -100.492 0 -80.8443 -63.5687 0 -66.4067 -41.1222 0 -54.1259 -26.9983 0 -43.8549 -18.0151 0 -35.3895 -12.2098 0 -28.4828 -8.41682 0 -22.8764 -5.90623 0 -18.3471 -4.22275 0 -14.6975 -3.07641 0 -11.7637 -2.28311 0 -9.40911 -1.72397 0 -7.52218 -1.32245 0 -6.01184 -1.02842 0 -4.80432 -0.809031 0 -3.84003 -0.642331 0 -3.07101 -0.513549 0 -2.45873 -0.412537 0 -1.97234 -0.332207 0 -1.58722 -0.267489 0 -1.28379 -0.214671 0 -1.04654 -0.170951 0 -0.863328 -0.134155 0 -0.724733 -0.10252 0 -0.623599 -0.074567 0 -0.554674 -0.0489819 0 -0.514361 -0.0245317 0 -0.500467 0 0 -229.083 -817.206 0 -100.92 -482.224 0 -97.1902 -263.241 0 -95.8054 -158.756 0 -85.0857 -99.7326 0 -73.628 -64.3781 0 -61.6152 -42.4577 0 -50.9768 -28.4318 0 -41.7093 -19.3546 0 -33.9235 -13.3827 0 -27.4624 -9.40437 0 -22.1598 -6.71981 0 -17.8378 -4.88144 0 -14.332 -3.60417 0 -11.4991 -2.70212 0 -9.21623 -2.05459 0 -7.38068 -1.58189 0 -5.90753 -1.23114 0 -4.72716 -0.966812 0 -3.78282 -0.764706 0 -3.02855 -0.608127 0 -2.42722 -0.485355 0 -1.94898 -0.388017 0 -1.56993 -0.310016 0 -1.27101 -0.246815 0 -1.03711 -0.194963 0 -0.856368 -0.151765 0 -0.719565 -0.115054 0 -0.619698 -0.0830272 0 -0.551625 -0.0541204 0 -0.511823 -0.0269014 0 -0.49815 0 0 -108.721 -843.176 0 -24.4145 -462.317 0 -68.8236 -245.441 0 -77.9932 -153.663 0 -74.6084 -97.8199 0 -66.7924 -64.6869 0 -57.0485 -43.4065 0 -47.9205 -29.6295 0 -39.5953 -20.533 0 -32.4642 -14.4463 0 -26.4334 -10.3179 0 -21.4308 -7.48192 0 -17.3146 -5.50462 0 -13.9539 -4.10701 0 -11.2236 -3.10366 0 -9.0142 -2.37285 0 -7.23177 -1.83257 0 -5.79734 -1.42764 0 -4.64539 -1.12017 0 -3.72205 -0.883938 0 -2.98335 -0.700475 0 -2.39361 -0.556592 0 -1.92401 -0.442713 0 -1.55142 -0.35176 0 -1.2573 -0.278415 0 -1.02698 -0.218598 0 -0.848864 -0.169119 0 -0.713971 -0.127419 0 -0.615459 -0.0913808 0 -0.548299 -0.0591979 0 -0.509051 -0.0292445 0 -0.495629 -2.38419e-07 0 41.4679 -890.7 0 46.3643 -420.489 0 -47.9277 -224.635 0 -61.0421 -147.355 0 -65.6835 -95.0076 0 -60.1965 -64.593 0 -52.7956 -43.9994 0 -44.9386 -30.6216 0 -37.5326 -21.5579 0 -31.0133 -15.4086 0 -25.4011 -11.1593 0 -20.6919 -8.19466 0 -16.7796 -6.09256 0 -13.5645 -4.58539 0 -10.9379 -3.4876 0 -8.80367 -2.67875 0 -7.07589 -2.07437 0 -5.68158 -1.61784 0 -4.55924 -1.26901 0 -3.65786 -0.999957 0 -2.93551 -0.790525 0 -2.35797 -0.626201 0 -1.8975 -0.496255 0 -1.53172 -0.392695 0 -1.2427 -0.30945 0 -1.01615 -0.241844 0 -0.840823 -0.18621 0 -0.707957 -0.139608 0 -0.610883 -0.0996234 0 -0.544698 -0.0642115 0 -0.506047 -0.0315592 0 -0.492906 7.15256e-07 0 268.065 -1002.81 0 92.7568 -339.507 0 -31.171 -208.207 0 -45.763 -138.381 0 -58.2882 -92.1023 0 -53.7314 -63.9856 0 -48.9674 -44.3474 0 -41.979 -31.3978 0 -35.5596 -22.4609 0 -29.5604 -16.2623 0 -24.3759 -11.9408 0 -19.9425 -8.85407 0 -16.2358 -6.64926 0 -13.1645 -5.03771 0 -10.6432 -3.85501 0 -8.58519 -2.97173 0 -6.91351 -2.30745 0 -5.56056 -1.80152 0 -4.46891 -1.4133 0 -3.59039 -1.11266 0 -2.88512 -0.878234 0 -2.32037 -0.69413 0 -1.86948 -0.548613 0 -1.51087 -0.432792 0 -1.2272 -0.3399 0 -1.00464 -0.264686 0 -0.832254 -0.203025 0 -0.701529 -0.151615 0 -0.605976 -0.107751 0 -0.540825 -0.0691597 0 -0.502812 -0.0338441 0 -0.489981 -9.53674e-07 0 734.996 -1397.69 0 45.5593 -155.309 0 9.34606 -225.241 0 -44.2443 -115.856 0 -47.1402 -93.7138 0 -49.6092 -61.3895 0 -44.658 -44.9402 0 -39.4149 -31.9095 0 -33.5359 -23.2224 0 -28.1665 -17.0573 0 -23.3392 -12.633 0 -19.1931 -9.48218 0 -15.6819 -7.1641 0 -12.7563 -5.47046 0 -10.3399 -4.20287 0 -8.35951 -3.25332 0 -6.745 -2.531 0 -5.43457 -1.97895 0 -4.37461 -1.5528 0 -3.5198 -1.22204 0 -2.8323 -0.963511 0 -2.28089 -0.760349 0 -1.84 -0.599744 0 -1.4889 -0.472028 0 -1.21085 -0.369746 0 -0.992465 -0.28711 0 -0.823166 -0.219557 0 -0.694691 -0.163435 0 -0.60074 -0.115761 0 -0.536682 -0.0740384 0 -0.499348 -0.0360992 0 -0.486856 1.90735e-06 0 </DataArray> 
</PointData> 
<Points> 
<DataArray type="Float32" NumberOfComponents="3"> 