<?xml version="1.0"?> 
<VTKFile type="StructuredGrid" version="0.1"> 
<StructuredGrid WholeExtent="0 31 0 31 0 0"> 
<Piece Extent="0 31 0 31 0 0"> 
<PointData>
<DataArray type="Float32" Name="|E|" format="ascii" NumberOfComponents="3"> 
-2.25177e+06 984323 0 -2.27435e+06 1.03246e+06 0 -2.29611e+06 1.08287e+06 0 -2.31658e+06 1.13575e+06 0 -2.33521e+06 1.19129e+06 0 -2.35126e+06 1.24963e+06 0 -2.36384e+06 1.31087e+06 0 -2.37184e+06 1.37493e+06 0 -2.37394e+06 1.44155e+06 0 -2.36859e+06 1.5101e+06 0 -2.35409e+06 1.57945e+06 0 -2.32876e+06 1.64777e+06 0 -2.29118e+06 1.71243e+06 0 -2.24066e+06 1.76995e+06 0 -2.17761e+06 1.81627e+06 0 -2.10395e+06 1.84724e+06 0 -2.02307e+06 1.85933e+06 0 -1.93941e+06 1.85029e+06 0 -1.85781e+06 1.81948e+06 0 -1.78267e+06 1.76769e+06 0 -1.71743e+06 1.69666e+06 0 -1.6644e+06 1.60834e+06 0 -1.62479e+06 1.50442e+06 0 -1.59899e+06 1.38576e+06 0 -1.58667e+06 1.25216e+06 0 -1.58711e+06 1.10219e+06 0 -1.59944e+06 932193 0 -1.62074e+06 739949 0 -1.65277e+06 502674 0 -1.71446e+06 259437 0 -1.73515e+06 -259743 0 -2.81003e+06 2.38419e-07 0 -2.24237e+06 988849 0 -2.26452e+06 1.03686e+06 0 -2.28581e+06 1.08706e+06 0 -2.30579e+06 1.13963e+06 0 -2.32388e+06 1.19473e+06 0 -2.33937e+06 1.25248e+06 0 -2.35139e+06 1.31292e+06 0 -2.35888e+06 1.37595e+06 0 -2.36055e+06 1.44126e+06 0 -2.35494e+06 1.50818e+06 0 -2.34048e+06 1.57556e+06 0 -2.31562e+06 1.64161e+06 0 -2.27912e+06 1.70378e+06 0 -2.23041e+06 1.75878e+06 0 -2.16999e+06 1.80281e+06 0 -2.09971e+06 1.83201e+06 0 -2.02278e+06 1.84311e+06 0 -1.94336e+06 1.83402e+06 0 -1.86598e+06 1.80408e+06 0 -1.79481e+06 1.75394e+06 0 -1.73318e+06 1.68512e+06 0 -1.68339e+06 1.59939e+06 0 -1.64679e+06 1.49819e+06 0 -1.62389e+06 1.38229e+06 0 -1.61475e+06 1.25138e+06 0 -1.61854e+06 1.10382e+06 0 -1.63574e+06 936556 0 -1.66112e+06 744582 0 -1.70663e+06 516601 0 -1.75878e+06 257911 0 -1.88235e+06 -145856 0 -2.56621e+06 -3.72529e-07 0 -2.23299e+06 993296 0 -2.25472e+06 1.04117e+06 0 -2.27557e+06 1.09115e+06 0 -2.29506e+06 1.14341e+06 0 -2.31265e+06 1.19806e+06 0 -2.32762e+06 1.25521e+06 0 -2.33913e+06 1.31486e+06 0 -2.34615e+06 1.37688e+06 0 -2.34744e+06 1.4409e+06 0 -2.34165e+06 1.50623e+06 0 -2.32728e+06 1.57172e+06 0 -2.30295e+06 1.6356e+06 0 -2.26754e+06 1.69542e+06 0 -2.22063e+06 1.74805e+06 0 -2.16276e+06 1.78994e+06 0 -2.09574e+06 1.8175e+06 0 -2.02259e+06 1.8277e+06 0 -1.94723e+06 1.81858e+06 0 -1.8739e+06 1.78948e+06 0 -1.80656e+06 1.74093e+06 0 -1.74844e+06 1.67426e+06 0 -1.70185e+06 1.59104e+06 0 -1.66822e+06 1.49255e+06 0 -1.64826e+06 1.37942e+06 0 -1.64223e+06 1.25125e+06 0 -1.64968e+06 1.1063e+06 0 -1.67106e+06 941637 0 -1.7025e+06 751483 0 -1.75538e+06 529290 0 -1.81388e+06 268563 0 -1.97568e+06 -61357.8 0 -2.42303e+06 5.06639e-07 0 -2.22363e+06 997666 0 -2.24496e+06 1.0454e+06 0 -2.26538e+06 1.09516e+06 0 -2.28441e+06 1.14709e+06 0 -2.30152e+06 1.2013e+06 0 -2.31601e+06 1.25785e+06 0 -2.32705e+06 1.31671e+06 0 -2.33364e+06 1.37772e+06 0 -2.33462e+06 1.44048e+06 0 -2.32869e+06 1.50428e+06 0 -2.31448e+06 1.56794e+06 0 -2.29072e+06 1.62975e+06 0 -2.25643e+06 1.68734e+06 0 -2.2113e+06 1.73775e+06 0 -2.15591e+06 1.77765e+06 0 -2.09202e+06 1.80369e+06 0 -2.02249e+06 1.81307e+06 0 -1.95101e+06 1.80395e+06 0 -1.88157e+06 1.77567e+06 0 -1.81794e+06 1.72865e+06 0 -1.76324e+06 1.66407e+06 0 -1.71979e+06 1.5833e+06 0 -1.68911e+06 1.4875e+06 0 -1.67209e+06 1.37715e+06 0 -1.66916e+06 1.25177e+06 0 -1.6803e+06 1.10959e+06 0 -1.70582e+06 947609 0 -1.74363e+06 760062 0 -1.8021e+06 542283 0 -1.87115e+06 285732 0 -2.04044e+06 2843.68 0 -2.34203e+06 -6.18398e-07 0 -2.21429e+06 1.00196e+06 0 -2.23524e+06 1.04954e+06 0 -2.25524e+06 1.09907e+06 0 -2.27384e+06 1.15068e+06 0 -2.2905e+06 1.20444e+06 0 -2.30453e+06 1.26039e+06 0 -2.31514e+06 1.31848e+06 0 -2.32136e+06 1.3785e+06 0 -2.32208e+06 1.44003e+06 0 -2.31607e+06 1.50233e+06 0 -2.30207e+06 1.56424e+06 0 -2.27891e+06 1.62407e+06 0 -2.24576e+06 1.67955e+06 0 -2.20238e+06 1.72787e+06 0 -2.1494e+06 1.76591e+06 0 -2.08852e+06 1.79055e+06 0 -2.02247e+06 1.79919e+06 0 -1.95471e+06 1.79009e+06 0 -1.88901e+06 1.7626e+06 0 -1.82896e+06 1.71707e+06 0 -1.77759e+06 1.65451e+06 0 -1.73721e+06 1.57616e+06 0 -1.70944e+06 1.48301e+06 0 -1.69534e+06 1.37547e+06 0 -1.69552e+06 1.25296e+06 0 -1.71034e+06 1.11368e+06 0 -1.74009e+06 954538 0 -1.78406e+06 770051 0 -1.84783e+06 556193 0 -1.92718e+06 306372 0 -2.09042e+06 52570.1 0 -2.30072e+06 9.38773e-07 0 -2.20497e+06 1.00618e+06 0 -2.22555e+06 1.05361e+06 0 -2.24516e+06 1.10291e+06 0 -2.26335e+06 1.15418e+06 0 -2.27958e+06 1.20749e+06 0 -2.29319e+06 1.26284e+06 0 -2.30341e+06 1.32016e+06 0 -2.30929e+06 1.37921e+06 0 -2.3098e+06 1.43954e+06 0 -2.30377e+06 1.50039e+06 0 -2.29002e+06 1.56062e+06 0 -2.26751e+06 1.61856e+06 0 -2.2355e+06 1.67204e+06 0 -2.19385e+06 1.7184e+06 0 -2.14321e+06 1.7547e+06 0 -2.08524e+06 1.77805e+06 0 -2.02252e+06 1.78601e+06 0 -1.95832e+06 1.77696e+06 0 -1.89622e+06 1.75026e+06 0 -1.83963e+06 1.70617e+06 0 -1.79149e+06 1.64559e+06 0 -1.75413e+06 1.56961e+06 0 -1.72924e+06 1.4791e+06 0 -1.71802e+06 1.37438e+06 0 -1.72131e+06 1.25482e+06 0 -1.73976e+06 1.11857e+06 0 -1.77382e+06 962454 0 -1.82369e+06 781307 0 -1.8929e+06 571273 0 -1.9809e+06 328654 0 -2.13333e+06 92031.8 0 -2.2855e+06 -6.25849e-07 0 -2.19568e+06 1.01033e+06 0 -2.2159e+06 1.0576e+06 0 -2.23514e+06 1.10666e+06 0 -2.25293e+06 1.1576e+06 0 -2.26876e+06 1.21046e+06 0 -2.28199e+06 1.26522e+06 0 -2.29185e+06 1.32178e+06 0 -2.29745e+06 1.37987e+06 0 -2.29778e+06 1.43903e+06 0 -2.29177e+06 1.49848e+06 0 -2.27832e+06 1.55708e+06 0 -2.25649e+06 1.61322e+06 0 -2.22563e+06 1.66481e+06 0 -2.18568e+06 1.70933e+06 0 -2.13732e+06 1.74402e+06 0 -2.08215e+06 1.76617e+06 0 -2.02263e+06 1.77352e+06 0 -1.96185e+06 1.76454e+06 0 -1.9032e+06 1.73861e+06 0 -1.84995e+06 1.69593e+06 0 -1.80496e+06 1.63728e+06 0 -1.77054e+06 1.56363e+06 0 -1.74848e+06 1.47576e+06 0 -1.74011e+06 1.37388e+06 0 -1.7465e+06 1.25733e+06 0 -1.76855e+06 1.12424e+06 0 -1.80696e+06 971362 0 -1.86249e+06 793761 0 -1.93731e+06 587577 0 -2.03231e+06 351614 0 -2.17341e+06 124180 0 -2.28804e+06 4.32134e-07 0 -2.18641e+06 1.01442e+06 0 -2.20629e+06 1.06152e+06 0 -2.22517e+06 1.11035e+06 0 -2.24259e+06 1.16095e+06 0 -2.25805e+06 1.21335e+06 0 -2.27092e+06 1.26753e+06 0 -2.28045e+06 1.32333e+06 0 -2.28581e+06 1.38049e+06 0 -2.28602e+06 1.4385e+06 0 -2.28007e+06 1.4966e+06 0 -2.26696e+06 1.55364e+06 0 -2.24583e+06 1.60807e+06 0 -2.21613e+06 1.65787e+06 0 -2.17785e+06 1.70066e+06 0 -2.13171e+06 1.73384e+06 0 -2.07923e+06 1.75488e+06 0 -2.02278e+06 1.76168e+06 0 -1.96529e+06 1.7528e+06 0 -1.90997e+06 1.72764e+06 0 -1.85995e+06 1.68633e+06 0 -1.81801e+06 1.62957e+06 0 -1.78646e+06 1.55822e+06 0 -1.76717e+06 1.47297e+06 0 -1.76161e+06 1.37397e+06 0 -1.77105e+06 1.26051e+06 0 -1.79667e+06 1.1307e+06 0 -1.83944e+06 981255 0 -1.90046e+06 807379 0 -1.98104e+06 605090 0 -2.08179e+06 374792 0 -2.21304e+06 151147 0 -2.30319e+06 -2.98023e-07 0 -2.17717e+06 1.01844e+06 0 -2.19672e+06 1.06538e+06 0 -2.21526e+06 1.11396e+06 0 -2.23233e+06 1.16422e+06 0 -2.24744e+06 1.21618e+06 0 -2.25998e+06 1.26977e+06 0 -2.26923e+06 1.32483e+06 0 -2.27437e+06 1.38107e+06 0 -2.2745e+06 1.43797e+06 0 -2.26866e+06 1.49476e+06 0 -2.25593e+06 1.55031e+06 0 -2.23552e+06 1.6031e+06 0 -2.20698e+06 1.65121e+06 0 -2.17034e+06 1.69237e+06 0 -2.12635e+06 1.72414e+06 0 -2.07648e+06 1.74417e+06 0 -2.02299e+06 1.75048e+06 0 -1.96865e+06 1.74172e+06 0 -1.91652e+06 1.71731e+06 0 -1.86961e+06 1.67735e+06 0 -1.83063e+06 1.62245e+06 0 -1.80189e+06 1.55337e+06 0 -1.78531e+06 1.47073e+06 0 -1.78251e+06 1.37463e+06 0 -1.79497e+06 1.26433e+06 0 -1.82409e+06 1.13794e+06 0 -1.8712e+06 992126 0 -1.93762e+06 822146 0 -2.02406e+06 623782 0 -2.12987e+06 398044 0 -2.25351e+06 174487 0 -2.3277e+06 0 0 -2.16796e+06 1.02239e+06 0 -2.1872e+06 1.06916e+06 0 -2.2054e+06 1.1175e+06 0 -2.22215e+06 1.16742e+06 0 -2.23693e+06 1.21893e+06 0 -2.24917e+06 1.27195e+06 0 -2.25817e+06 1.32629e+06 0 -2.26314e+06 1.38163e+06 0 -2.26322e+06 1.43745e+06 0 -2.25753e+06 1.49297e+06 0 -2.2452e+06 1.54708e+06 0 -2.22553e+06 1.59831e+06 0 -2.19815e+06 1.64482e+06 0 -2.16313e+06 1.68445e+06 0 -2.12122e+06 1.71491e+06 0 -2.07387e+06 1.734e+06 0 -2.02322e+06 1.73987e+06 0 -1.97192e+06 1.73126e+06 0 -1.92287e+06 1.7076e+06 0 -1.87896e+06 1.66896e+06 0 -1.84284e+06 1.61588e+06 0 -1.81683e+06 1.54906e+06 0 -1.80289e+06 1.46902e+06 0 -1.8028e+06 1.37585e+06 0 -1.81821e+06 1.26879e+06 0 -1.8508e+06 1.14594e+06 0 -1.9022e+06 1.00396e+06 0 -1.97394e+06 838059 0 -2.06635e+06 643641 0 -2.17702e+06 421417 0 -2.29559e+06 195368 0 -2.35953e+06 -2.98023e-08 0 -2.15877e+06 1.02629e+06 0 -2.17771e+06 1.07289e+06 0 -2.19561e+06 1.12098e+06 0 -2.21204e+06 1.17057e+06 0 -2.22653e+06 1.22163e+06 0 -2.23849e+06 1.27407e+06 0 -2.24726e+06 1.3277e+06 0 -2.2521e+06 1.38216e+06 0 -2.25218e+06 1.43694e+06 0 -2.24666e+06 1.49123e+06 0 -2.23476e+06 1.54397e+06 0 -2.21586e+06 1.59372e+06 0 -2.18962e+06 1.6387e+06 0 -2.1562e+06 1.6769e+06 0 -2.11632e+06 1.70614e+06 0 -2.0714e+06 1.72437e+06 0 -2.02349e+06 1.72985e+06 0 -1.97509e+06 1.72141e+06 0 -1.929e+06 1.69849e+06 0 -1.88799e+06 1.66116e+06 0 -1.85465e+06 1.60987e+06 0 -1.83128e+06 1.54527e+06 0 -1.81993e+06 1.46784e+06 0 -1.82247e+06 1.37762e+06 0 -1.84076e+06 1.27387e+06 0 -1.87674e+06 1.15471e+06 0 -1.93238e+06 1.01676e+06 0 -2.00942e+06 855122 0 -2.10792e+06 664684 0 -2.22368e+06 445075 0 -2.33969e+06 214686 0 -2.39738e+06 2.98023e-08 0 -2.14961e+06 1.03013e+06 0 -2.16826e+06 1.07655e+06 0 -2.18587e+06 1.12439e+06 0 -2.20201e+06 1.17365e+06 0 -2.21622e+06 1.22427e+06 0 -2.22794e+06 1.27615e+06 0 -2.23652e+06 1.32908e+06 0 -2.24125e+06 1.38268e+06 0 -2.24135e+06 1.43644e+06 0 -2.23605e+06 1.48956e+06 0 -2.22461e+06 1.54098e+06 0 -2.20648e+06 1.58931e+06 0 -2.18139e+06 1.63286e+06 0 -2.14953e+06 1.66971e+06 0 -2.11162e+06 1.69781e+06 0 -2.06905e+06 1.71524e+06 0 -2.02377e+06 1.72039e+06 0 -1.97818e+06 1.71214e+06 0 -1.93494e+06 1.68996e+06 0 -1.89672e+06 1.65391e+06 0 -1.86606e+06 1.60439e+06 0 -1.84525e+06 1.54199e+06 0 -1.8364e+06 1.46716e+06 0 -1.84151e+06 1.37993e+06 0 -1.86261e+06 1.27956e+06 0 -1.9019e+06 1.16421e+06 0 -1.9617e+06 1.0305e+06 0 -2.04402e+06 873345 0 -2.1488e+06 686956 0 -2.27017e+06 469251 0 -2.38609e+06 233159 0 -2.44048e+06 2.98023e-08 0 -2.14048e+06 1.03391e+06 0 -2.15886e+06 1.08016e+06 0 -2.17619e+06 1.12775e+06 0 -2.19206e+06 1.17667e+06 0 -2.20602e+06 1.22686e+06 0 -2.21751e+06 1.27819e+06 0 -2.22593e+06 1.33043e+06 0 -2.23058e+06 1.3832e+06 0 -2.23074e+06 1.43597e+06 0 -2.22568e+06 1.48795e+06 0 -2.21472e+06 1.53811e+06 0 -2.19738e+06 1.58509e+06 0 -2.17343e+06 1.62729e+06 0 -2.1431e+06 1.66287e+06 0 -2.10712e+06 1.68991e+06 0 -2.06681e+06 1.70661e+06 0 -2.02406e+06 1.71146e+06 0 -1.98117e+06 1.70342e+06 0 -1.94067e+06 1.68199e+06 0 -1.90514e+06 1.6472e+06 0 -1.87707e+06 1.59942e+06 0 -1.85874e+06 1.53921e+06 0 -1.85231e+06 1.46698e+06 0 -1.8599e+06 1.38276e+06 0 -1.88372e+06 1.28585e+06 0 -1.92624e+06 1.17445e+06 0 -1.99011e+06 1.04517e+06 0 -2.07769e+06 892743 0 -2.18898e+06 710533 0 -2.31675e+06 494230 0 -2.43501e+06 251386 0 -2.48837e+06 0 0 -2.13138e+06 1.03764e+06 0 -2.14949e+06 1.08372e+06 0 -2.16656e+06 1.13106e+06 0 -2.18218e+06 1.17965e+06 0 -2.19591e+06 1.22941e+06 0 -2.20721e+06 1.28019e+06 0 -2.21549e+06 1.33175e+06 0 -2.2201e+06 1.38372e+06 0 -2.22035e+06 1.43553e+06 0 -2.21555e+06 1.48642e+06 0 -2.20509e+06 1.53536e+06 0 -2.18854e+06 1.58106e+06 0 -2.16573e+06 1.62198e+06 0 -2.1369e+06 1.65636e+06 0 -2.10278e+06 1.68242e+06 0 -2.06467e+06 1.69846e+06 0 -2.02437e+06 1.70305e+06 0 -1.98406e+06 1.69524e+06 0 -1.9462e+06 1.67455e+06 0 -1.91326e+06 1.641e+06 0 -1.88768e+06 1.59495e+06 0 -1.87175e+06 1.5369e+06 0 -1.86767e+06 1.46727e+06 0 -1.87765e+06 1.38609e+06 0 -1.90409e+06 1.29272e+06 0 -1.94972e+06 1.18539e+06 0 -2.01756e+06 1.06076e+06 0 -2.1104e+06 913334 0 -2.22846e+06 735516 0 -2.3636e+06 520329 0 -2.48661e+06 269898 0 -2.54089e+06 0 0 -2.12231e+06 1.04132e+06 0 -2.14017e+06 1.08722e+06 0 -2.157e+06 1.13432e+06 0 -2.17238e+06 1.18258e+06 0 -2.18589e+06 1.23191e+06 0 -2.19702e+06 1.28216e+06 0 -2.20519e+06 1.33306e+06 0 -2.20979e+06 1.38424e+06 0 -2.21015e+06 1.43512e+06 0 -2.20564e+06 1.48496e+06 0 -2.19571e+06 1.53274e+06 0 -2.17996e+06 1.57723e+06 0 -2.15827e+06 1.61693e+06 0 -2.13091e+06 1.6502e+06 0 -2.09861e+06 1.67534e+06 0 -2.06262e+06 1.69076e+06 0 -2.02467e+06 1.69514e+06 0 -1.98686e+06 1.68758e+06 0 -1.95153e+06 1.66763e+06 0 -1.92109e+06 1.63531e+06 0 -1.89791e+06 1.59096e+06 0 -1.88429e+06 1.53506e+06 0 -1.88246e+06 1.46802e+06 0 -1.89473e+06 1.38991e+06 0 -1.92369e+06 1.30013e+06 0 -1.9723e+06 1.19702e+06 0 -2.044e+06 1.07726e+06 0 -2.14207e+06 935137 0 -2.26719e+06 762021 0 -2.41084e+06 547899 0 -2.54107e+06 289193 0 -2.59805e+06 -1.19209e-07 0 -2.11326e+06 1.04496e+06 0 -2.13089e+06 1.09068e+06 0 -2.14749e+06 1.13753e+06 0 -2.16266e+06 1.18547e+06 0 -2.17598e+06 1.23438e+06 0 -2.18695e+06 1.2841e+06 0 -2.19504e+06 1.33436e+06 0 -2.19964e+06 1.38477e+06 0 -2.20015e+06 1.43476e+06 0 -2.19596e+06 1.48358e+06 0 -2.18656e+06 1.53026e+06 0 -2.17161e+06 1.57358e+06 0 -2.15104e+06 1.61213e+06 0 -2.12512e+06 1.64435e+06 0 -2.09459e+06 1.66864e+06 0 -2.06065e+06 1.68351e+06 0 -2.02497e+06 1.68771e+06 0 -1.98955e+06 1.68041e+06 0 -1.95666e+06 1.6612e+06 0 -1.92862e+06 1.6301e+06 0 -1.90776e+06 1.58743e+06 0 -1.89635e+06 1.53366e+06 0 -1.89668e+06 1.46921e+06 0 -1.91115e+06 1.39419e+06 0 -1.94249e+06 1.30807e+06 0 -1.99396e+06 1.2093e+06 0 -2.06938e+06 1.09464e+06 0 -2.17263e+06 958170 0 -2.30512e+06 790183 0 -2.45853e+06 577318 0 -2.59861e+06 309771 0 -2.66007e+06 1.19209e-07 0 -2.10424e+06 1.04854e+06 0 -2.12166e+06 1.09409e+06 0 -2.13803e+06 1.1407e+06 0 -2.153e+06 1.18831e+06 0 -2.16615e+06 1.23681e+06 0 -2.177e+06 1.28602e+06 0 -2.18503e+06 1.33566e+06 0 -2.18967e+06 1.38531e+06 0 -2.19033e+06 1.43444e+06 0 -2.18648e+06 1.48229e+06 0 -2.17763e+06 1.5279e+06 0 -2.1635e+06 1.57012e+06 0 -2.14403e+06 1.60759e+06 0 -2.11952e+06 1.63883e+06 0 -2.09071e+06 1.66232e+06 0 -2.05875e+06 1.67668e+06 0 -2.02525e+06 1.68074e+06 0 -1.99215e+06 1.67373e+06 0 -1.9616e+06 1.65525e+06 0 -1.93587e+06 1.62535e+06 0 -1.91723e+06 1.58434e+06 0 -1.90795e+06 1.53269e+06 0 -1.91034e+06 1.47082e+06 0 -1.92689e+06 1.39891e+06 0 -1.9605e+06 1.31651e+06 0 -2.01466e+06 1.22221e+06 0 -2.09364e+06 1.11288e+06 0 -2.20199e+06 982448 0 -2.34213e+06 820141 0 -2.50664e+06 608998 0 -2.65943e+06 332162 0 -2.72733e+06 -5.96046e-08 0 -2.09526e+06 1.05208e+06 0 -2.11246e+06 1.09746e+06 0 -2.12863e+06 1.14383e+06 0 -2.14342e+06 1.19112e+06 0 -2.15642e+06 1.23922e+06 0 -2.16716e+06 1.28792e+06 0 -2.17515e+06 1.33695e+06 0 -2.17985e+06 1.38588e+06 0 -2.1807e+06 1.43417e+06 0 -2.1772e+06 1.48108e+06 0 -2.16892e+06 1.52569e+06 0 -2.1556e+06 1.56686e+06 0 -2.13721e+06 1.6033e+06 0 -2.1141e+06 1.63361e+06 0 -2.08695e+06 1.65637e+06 0 -2.05691e+06 1.67026e+06 0 -2.02553e+06 1.67422e+06 0 -1.99464e+06 1.6675e+06 0 -1.96635e+06 1.64976e+06 0 -1.94283e+06 1.62105e+06 0 -1.92632e+06 1.58167e+06 0 -1.91907e+06 1.53212e+06 0 -1.92343e+06 1.47284e+06 0 -1.94195e+06 1.40404e+06 0 -1.97768e+06 1.32542e+06 0 -2.03436e+06 1.23571e+06 0 -2.1167e+06 1.13194e+06 0 -2.23005e+06 1.00798e+06 0 -2.37809e+06 852037 0 -2.55508e+06 643389 0 -2.72382e+06 356960 0 -2.8004e+06 0 0 -2.0863e+06 1.05559e+06 0 -2.1033e+06 1.10079e+06 0 -2.11929e+06 1.14692e+06 0 -2.13391e+06 1.1939e+06 0 -2.14677e+06 1.2416e+06 0 -2.15743e+06 1.28981e+06 0 -2.1654e+06 1.33824e+06 0 -2.17018e+06 1.38648e+06 0 -2.17124e+06 1.43396e+06 0 -2.16811e+06 1.47997e+06 0 -2.16041e+06 1.5236e+06 0 -2.1479e+06 1.56378e+06 0 -2.13059e+06 1.59926e+06 0 -2.10883e+06 1.6287e+06 0 -2.08331e+06 1.65077e+06 0 -2.05513e+06 1.66425e+06 0 -2.02578e+06 1.66812e+06 0 -1.99703e+06 1.66171e+06 0 -1.9709e+06 1.64471e+06 0 -1.94951e+06 1.61717e+06 0 -1.93504e+06 1.57942e+06 0 -1.92974e+06 1.53194e+06 0 -1.93595e+06 1.47523e+06 0 -1.95632e+06 1.40956e+06 0 -1.99402e+06 1.33477e+06 0 -2.05304e+06 1.24977e+06 0 -2.13852e+06 1.1518e+06 0 -2.2567e+06 1.03476e+06 0 -2.41279e+06 886004 0 -2.60368e+06 680978 0 -2.79206e+06 384857 0 -2.88009e+06 -5.96046e-08 0 -2.07737e+06 1.05905e+06 0 -2.09419e+06 1.10408e+06 0 -2.11e+06 1.14998e+06 0 -2.12447e+06 1.19665e+06 0 -2.13722e+06 1.24396e+06 0 -2.14781e+06 1.29169e+06 0 -2.15579e+06 1.33954e+06 0 -2.16066e+06 1.3871e+06 0 -2.16195e+06 1.4338e+06 0 -2.15921e+06 1.47895e+06 0 -2.15209e+06 1.52166e+06 0 -2.14039e+06 1.56089e+06 0 -2.12415e+06 1.59545e+06 0 -2.10372e+06 1.62408e+06 0 -2.07978e+06 1.64552e+06 0 -2.0534e+06 1.65861e+06 0 -2.02601e+06 1.66243e+06 0 -1.99932e+06 1.65634e+06 0 -1.97527e+06 1.64008e+06 0 -1.95591e+06 1.6137e+06 0 -1.9434e+06 1.57755e+06 0 -1.93994e+06 1.53213e+06 0 -1.94791e+06 1.47797e+06 0 -1.97e+06 1.41545e+06 0 -2.00951e+06 1.34452e+06 0 -2.07066e+06 1.26433e+06 0 -2.15902e+06 1.17239e+06 0 -2.2818e+06 1.06276e+06 0 -2.44602e+06 922160 0 -2.65214e+06 722296 0 -2.86447e+06 416691 0 -2.9675e+06 2.98023e-07 0 -2.06847e+06 1.06247e+06 0 -2.08511e+06 1.10734e+06 0 -2.10077e+06 1.153e+06 0 -2.1151e+06 1.19938e+06 0 -2.12775e+06 1.24631e+06 0 -2.13829e+06 1.29357e+06 0 -2.14629e+06 1.34086e+06 0 -2.15129e+06 1.38775e+06 0 -2.15282e+06 1.43371e+06 0 -2.15048e+06 1.47803e+06 0 -2.14395e+06 1.51985e+06 0 -2.13307e+06 1.55818e+06 0 -2.11788e+06 1.59188e+06 0 -2.09875e+06 1.61975e+06 0 -2.07635e+06 1.6406e+06 0 -2.05171e+06 1.65336e+06 0 -2.02621e+06 1.65714e+06 0 -2.0015e+06 1.65139e+06 0 -1.97944e+06 1.63586e+06 0 -1.96204e+06 1.61062e+06 0 -1.95139e+06 1.57605e+06 0 -1.94968e+06 1.53267e+06 0 -1.9593e+06 1.48106e+06 0 -1.98299e+06 1.42167e+06 0 -2.02414e+06 1.35464e+06 0 -2.08719e+06 1.27935e+06 0 -2.17814e+06 1.19367e+06 0 -2.30521e+06 1.09196e+06 0 -2.47748e+06 960592 0 -2.70002e+06 767915 0 -2.94136e+06 453501 0 -3.06408e+06 -3.57628e-07 0 -2.05959e+06 1.06587e+06 0 -2.07607e+06 1.11056e+06 0 -2.09158e+06 1.156e+06 0 -2.1058e+06 1.20208e+06 0 -2.11836e+06 1.24864e+06 0 -2.12887e+06 1.29544e+06 0 -2.13692e+06 1.34219e+06 0 -2.14205e+06 1.38845e+06 0 -2.14385e+06 1.43368e+06 0 -2.14192e+06 1.4772e+06 0 -2.13599e+06 1.51819e+06 0 -2.12592e+06 1.55566e+06 0 -2.11177e+06 1.58855e+06 0 -2.09391e+06 1.6157e+06 0 -2.073e+06 1.63601e+06 0 -2.05005e+06 1.64845e+06 0 -2.02638e+06 1.65224e+06 0 -2.00357e+06 1.64683e+06 0 -1.98343e+06 1.63202e+06 0 -1.9679e+06 1.60792e+06 0 -1.95902e+06 1.57491e+06 0 -1.95897e+06 1.53354e+06 0 -1.97013e+06 1.48444e+06 0 -1.99527e+06 1.42819e+06 0 -2.03789e+06 1.36508e+06 0 -2.1026e+06 1.29478e+06 0 -2.19582e+06 1.21556e+06 0 -2.32679e+06 1.1223e+06 0 -2.50687e+06 1.00134e+06 0 -2.74671e+06 818437 0 -3.02304e+06 496602 0 -3.17181e+06 2.38419e-07 0 -2.05075e+06 1.06922e+06 0 -2.06708e+06 1.11375e+06 0 -2.08245e+06 1.15897e+06 0 -2.09656e+06 1.20476e+06 0 -2.10905e+06 1.25096e+06 0 -2.11955e+06 1.29732e+06 0 -2.12766e+06 1.34353e+06 0 -2.13295e+06 1.38918e+06 0 -2.13502e+06 1.43372e+06 0 -2.13353e+06 1.47648e+06 0 -2.1282e+06 1.51666e+06 0 -2.11893e+06 1.55333e+06 0 -2.10581e+06 1.58544e+06 0 -2.0892e+06 1.61193e+06 0 -2.06975e+06 1.63173e+06 0 -2.04843e+06 1.6439e+06 0 -2.02651e+06 1.6477e+06 0 -2.00554e+06 1.64264e+06 0 -1.98724e+06 1.62856e+06 0 -1.97349e+06 1.60558e+06 0 -1.9663e+06 1.5741e+06 0 -1.96781e+06 1.53471e+06 0 -1.98039e+06 1.48812e+06 0 -2.00686e+06 1.43499e+06 0 -2.05075e+06 1.37581e+06 0 -2.11688e+06 1.31055e+06 0 -2.21198e+06 1.23799e+06 0 -2.34638e+06 1.15369e+06 0 -2.53384e+06 1.0444e+06 0 -2.79137e+06 874472 0 -3.10969e+06 547692 0 -3.29339e+06 -2.98023e-07 0 -2.04193e+06 1.07255e+06 0 -2.05811e+06 1.11692e+06 0 -2.07337e+06 1.16192e+06 0 -2.08738e+06 1.20743e+06 0 -2.09983e+06 1.25327e+06 0 -2.11033e+06 1.2992e+06 0 -2.11851e+06 1.3449e+06 0 -2.12397e+06 1.38996e+06 0 -2.12634e+06 1.43383e+06 0 -2.12528e+06 1.47586e+06 0 -2.12057e+06 1.51528e+06 0 -2.1121e+06 1.55117e+06 0 -2.09999e+06 1.58256e+06 0 -2.0846e+06 1.60842e+06 0 -2.06656e+06 1.62776e+06 0 -2.04682e+06 1.63968e+06 0 -2.02661e+06 1.64352e+06 0 -2.0074e+06 1.63882e+06 0 -1.99086e+06 1.62545e+06 0 -1.97882e+06 1.60357e+06 0 -1.97323e+06 1.5736e+06 0 -1.97621e+06 1.53618e+06 0 -1.99011e+06 1.49206e+06 0 -2.01776e+06 1.44202e+06 0 -2.06273e+06 1.38677e+06 0 -2.13e+06 1.32661e+06 0 -2.22659e+06 1.26085e+06 0 -2.36382e+06 1.18603e+06 0 -2.55805e+06 1.08967e+06 0 -2.83285e+06 936596 0 -3.20124e+06 608999 0 -3.43261e+06 3.57628e-07 0 -2.03313e+06 1.07585e+06 0 -2.04919e+06 1.12006e+06 0 -2.06434e+06 1.16485e+06 0 -2.07827e+06 1.21008e+06 0 -2.09068e+06 1.25558e+06 0 -2.1012e+06 1.30109e+06 0 -2.10947e+06 1.3463e+06 0 -2.11512e+06 1.39078e+06 0 -2.1178e+06 1.43401e+06 0 -2.11719e+06 1.47535e+06 0 -2.11308e+06 1.51403e+06 0 -2.10542e+06 1.5492e+06 0 -2.0943e+06 1.5799e+06 0 -2.08011e+06 1.60517e+06 0 -2.06345e+06 1.62408e+06 0 -2.04524e+06 1.63579e+06 0 -2.02667e+06 1.63968e+06 0 -2.00916e+06 1.63534e+06 0 -1.99431e+06 1.62268e+06 0 -1.98389e+06 1.60189e+06 0 -1.97982e+06 1.57341e+06 0 -1.98417e+06 1.53791e+06 0 -1.99927e+06 1.49623e+06 0 -2.02796e+06 1.44927e+06 0 -2.07382e+06 1.39793e+06 0 -2.14195e+06 1.34289e+06 0 -2.2396e+06 1.28405e+06 0 -2.37892e+06 1.21918e+06 0 -2.57917e+06 1.13696e+06 0 -2.86971e+06 1.00527e+06 0 -3.29718e+06 683481 0 -3.5948e+06 -3.57628e-07 0 -2.02437e+06 1.07912e+06 0 -2.04031e+06 1.12318e+06 0 -2.05535e+06 1.16776e+06 0 -2.06922e+06 1.21272e+06 0 -2.0816e+06 1.25788e+06 0 -2.09216e+06 1.30299e+06 0 -2.10054e+06 1.34772e+06 0 -2.10639e+06 1.39165e+06 0 -2.10938e+06 1.43427e+06 0 -2.10923e+06 1.47494e+06 0 -2.10574e+06 1.51293e+06 0 -2.09887e+06 1.5474e+06 0 -2.08874e+06 1.57746e+06 0 -2.07571e+06 1.60218e+06 0 -2.0604e+06 1.62069e+06 0 -2.04368e+06 1.63221e+06 0 -2.02669e+06 1.63616e+06 0 -2.0108e+06 1.6322e+06 0 -1.99757e+06 1.62024e+06 0 -1.98871e+06 1.60052e+06 0 -1.98607e+06 1.57349e+06 0 -1.9917e+06 1.53989e+06 0 -2.00789e+06 1.50061e+06 0 -2.03747e+06 1.45669e+06 0 -2.08403e+06 1.40923e+06 0 -2.15272e+06 1.35931e+06 0 -2.25099e+06 1.30746e+06 0 -2.39151e+06 1.25297e+06 0 -2.59695e+06 1.18598e+06 0 -2.90015e+06 1.0807e+06 0 -3.39603e+06 775120 0 -3.78775e+06 5.36442e-07 0 -2.01563e+06 1.08237e+06 0 -2.03145e+06 1.12628e+06 0 -2.04641e+06 1.17065e+06 0 -2.06023e+06 1.21536e+06 0 -2.0726e+06 1.26019e+06 0 -2.08321e+06 1.30491e+06 0 -2.09171e+06 1.34918e+06 0 -2.09778e+06 1.39258e+06 0 -2.1011e+06 1.4346e+06 0 -2.10141e+06 1.47464e+06 0 -2.09854e+06 1.51196e+06 0 -2.09246e+06 1.54578e+06 0 -2.0833e+06 1.57523e+06 0 -2.07141e+06 1.59944e+06 0 -2.0574e+06 1.61758e+06 0 -2.04212e+06 1.62894e+06 0 -2.02666e+06 1.63297e+06 0 -2.01234e+06 1.62938e+06 0 -2.00066e+06 1.61812e+06 0 -1.99328e+06 1.59943e+06 0 -1.99199e+06 1.57384e+06 0 -1.9988e+06 1.5421e+06 0 -2.01598e+06 1.50518e+06 0 -2.04631e+06 1.46425e+06 0 -2.09336e+06 1.42063e+06 0 -2.16229e+06 1.37582e+06 0 -2.26076e+06 1.33095e+06 0 -2.40138e+06 1.28719e+06 0 -2.61121e+06 1.23637e+06 0 -2.9221e+06 1.1626e+06 0 -3.49465e+06 889342 0 -4.02305e+06 -5.96046e-07 0 -2.00691e+06 1.0856e+06 0 -2.02264e+06 1.12936e+06 0 -2.03752e+06 1.17353e+06 0 -2.05129e+06 1.21798e+06 0 -2.06367e+06 1.26251e+06 0 -2.07434e+06 1.30685e+06 0 -2.08298e+06 1.35067e+06 0 -2.08927e+06 1.39356e+06 0 -2.09293e+06 1.43502e+06 0 -2.09371e+06 1.47444e+06 0 -2.09146e+06 1.51114e+06 0 -2.08617e+06 1.54433e+06 0 -2.07796e+06 1.57321e+06 0 -2.0672e+06 1.59694e+06 0 -2.05446e+06 1.61475e+06 0 -2.04058e+06 1.62596e+06 0 -2.02659e+06 1.63008e+06 0 -2.01378e+06 1.62686e+06 0 -2.00358e+06 1.61629e+06 0 -1.9976e+06 1.59863e+06 0 -1.99759e+06 1.57444e+06 0 -2.00549e+06 1.54452e+06 0 -2.02354e+06 1.50991e+06 0 -2.05447e+06 1.47192e+06 0 -2.10183e+06 1.43208e+06 0 -2.17066e+06 1.39232e+06 0 -2.26896e+06 1.3544e+06 0 -2.40833e+06 1.32159e+06 0 -2.62186e+06 1.28774e+06 0 -2.93356e+06 1.24983e+06 0 -3.58678e+06 1.03363e+06 0 -4.31837e+06 4.76837e-07 0 -1.99822e+06 1.0888e+06 0 -2.01386e+06 1.13242e+06 0 -2.02867e+06 1.1764e+06 0 -2.04242e+06 1.22061e+06 0 -2.0548e+06 1.26483e+06 0 -2.06555e+06 1.3088e+06 0 -2.07433e+06 1.35219e+06 0 -2.08087e+06 1.3946e+06 0 -2.08488e+06 1.43551e+06 0 -2.08614e+06 1.47435e+06 0 -2.08451e+06 1.51045e+06 0 -2.07999e+06 1.54306e+06 0 -2.07273e+06 1.5714e+06 0 -2.06307e+06 1.59468e+06 0 -2.05157e+06 1.61217e+06 0 -2.03903e+06 1.62326e+06 0 -2.02648e+06 1.62749e+06 0 -2.01511e+06 1.62464e+06 0 -2.00633e+06 1.61474e+06 0 -2.00169e+06 1.59809e+06 0 -2.00287e+06 1.57527e+06 0 -2.01178e+06 1.54712e+06 0 -2.0306e+06 1.51478e+06 0 -2.06197e+06 1.47966e+06 0 -2.10947e+06 1.44353e+06 0 -2.1778e+06 1.40874e+06 0 -2.27564e+06 1.37769e+06 0 -2.41222e+06 1.35581e+06 0 -2.62873e+06 1.33982e+06 0 -2.93328e+06 1.33973e+06 0 -3.66055e+06 1.21837e+06 0 -4.70128e+06 -4.76837e-07 0 -1.98955e+06 1.09198e+06 0 -2.0051e+06 1.13546e+06 0 -2.01987e+06 1.17927e+06 0 -2.03359e+06 1.22323e+06 0 -2.04601e+06 1.26716e+06 0 -2.05684e+06 1.31078e+06 0 -2.06578e+06 1.35376e+06 0 -2.07257e+06 1.39569e+06 0 -2.07694e+06 1.43609e+06 0 -2.07868e+06 1.47438e+06 0 -2.07768e+06 1.5099e+06 0 -2.07393e+06 1.54196e+06 0 -2.06759e+06 1.56979e+06 0 -2.05901e+06 1.59265e+06 0 -2.04872e+06 1.60986e+06 0 -2.03749e+06 1.62084e+06 0 -2.02631e+06 1.62518e+06 0 -2.01634e+06 1.62271e+06 0 -2.00892e+06 1.61347e+06 0 -2.00554e+06 1.5978e+06 0 -2.00784e+06 1.57631e+06 0 -2.01767e+06 1.5499e+06 0 -2.03715e+06 1.51977e+06 0 -2.06882e+06 1.48744e+06 0 -2.11629e+06 1.45494e+06 0 -2.18376e+06 1.42499e+06 0 -2.28079e+06 1.40074e+06 0 -2.41319e+06 1.3893e+06 0 -2.63106e+06 1.39281e+06 0 -2.92262e+06 1.42708e+06 0 -3.69389e+06 1.45832e+06 0 -5.21588e+06 2.38419e-07 0 -1.98091e+06 1.09515e+06 0 -1.99639e+06 1.1385e+06 0 -2.0111e+06 1.18212e+06 0 -2.02482e+06 1.22586e+06 0 -2.03727e+06 1.2695e+06 0 -2.0482e+06 1.31278e+06 0 -2.05732e+06 1.35537e+06 0 -2.06437e+06 1.39685e+06 0 -2.0691e+06 1.43675e+06 0 -2.07133e+06 1.47451e+06 0 -2.07095e+06 1.5095e+06 0 -2.06797e+06 1.54102e+06 0 -2.06255e+06 1.56837e+06 0 -2.05501e+06 1.59084e+06 0 -2.0459e+06 1.60779e+06 0 -2.03595e+06 1.61868e+06 0 -2.0261e+06 1.62315e+06 0 -2.01747e+06 1.62104e+06 0 -2.01134e+06 1.61245e+06 0 -2.00916e+06 1.59774e+06 0 -2.01252e+06 1.57755e+06 0 -2.02317e+06 1.55282e+06 0 -2.04322e+06 1.52484e+06 0 -2.07505e+06 1.49523e+06 0 -2.12228e+06 1.46627e+06 0 -2.18867e+06 1.44093e+06 0 -2.28414e+06 1.42359e+06 0 -2.41215e+06 1.42119e+06 0 -2.62626e+06 1.44784e+06 0 -2.90889e+06 1.50289e+06 0 -3.64671e+06 1.77382e+06 0 -5.93362e+06 -3.57628e-07 0 -1.97228e+06 1.0983e+06 0 -1.9877e+06 1.14152e+06 0 -2.00238e+06 1.18497e+06 0 -2.01609e+06 1.22849e+06 0 -2.0286e+06 1.27186e+06 0 -2.03964e+06 1.31481e+06 0 -2.04894e+06 1.35702e+06 0 -2.05626e+06 1.39807e+06 0 -2.06137e+06 1.4375e+06 0 -2.06409e+06 1.47475e+06 0 -2.06433e+06 1.50923e+06 0 -2.06211e+06 1.54026e+06 0 -2.05759e+06 1.56716e+06 0 -2.05109e+06 1.58926e+06 0 -2.04312e+06 1.60597e+06 0 -2.03441e+06 1.61678e+06 0 -2.02584e+06 1.62138e+06 0 -2.01849e+06 1.61964e+06 0 -2.01361e+06 1.61168e+06 0 -2.01257e+06 1.5979e+06 0 -2.01689e+06 1.57897e+06 0 -2.0283e+06 1.55589e+06 0 -2.04877e+06 1.52996e+06 0 -2.08076e+06 1.50302e+06 0 -2.12726e+06 1.47748e+06 0 -2.19306e+06 1.4564e+06 0 -2.28455e+06 1.44652e+06 0 -2.41225e+06 1.44972e+06 0 -2.60657e+06 1.50855e+06 0 -2.91347e+06 1.55004e+06 0 -3.44476e+06 2.1964e+06 0 -6.97476e+06 1.43051e-06 0 </DataArray> 
</PointData> 
<Points> 
<DataArray type="Float32" NumberOfComponents="3"> 