<?xml version="1.0"?> 
<VTKFile type="StructuredGrid" version="0.1"> 
<StructuredGrid WholeExtent="0 31 0 31 0 0"> 
<Piece Extent="0 31 0 31 0 0"> 
<PointData>
<DataArray type="Float32" Name="|E|" format="ascii" NumberOfComponents="3"> 
1.02896e+06 -5.6982e-05 0 995768 -2.83677e-05 0 963863 -6.05173e-06 0 933252 1.19698e-05 0 903934 2.59709e-05 0 875902 3.68897e-05 0 849146 4.53219e-05 0 823650 5.12023e-05 0 799399 5.55627e-05 0 776372 5.82561e-05 0 754550 5.97723e-05 0 733913 6.03162e-05 0 714440 6.0048e-05 0 696109 5.91166e-05 0 678900 5.76302e-05 0 662792 5.5477e-05 0 647766 5.33462e-05 0 633802 5.04926e-05 0 620883 4.76316e-05 0 608991 4.44278e-05 0 598110 4.10825e-05 0 588225 3.77893e-05 0 579323 3.41311e-05 0 571391 3.05474e-05 0 564417 2.68444e-05 0 558392 2.31117e-05 0 553307 1.92709e-05 0 549153 1.54451e-05 0 545927 1.16155e-05 0 543621 7.75047e-06 0 542234 3.88455e-06 0 541762 0 0 1.02896e+06 1849.88 0 995766 1779.73 0 963861 1709.04 0 933250 1638.22 0 903932 1567.64 0 875901 1497.54 0 849144 1428.15 0 823649 1359.62 0 799397 1292.07 0 776370 1225.58 0 754548 1160.2 0 733912 1095.97 0 714438 1032.89 0 696107 970.962 0 678898 910.166 0 662790 850.473 0 647764 791.842 0 633800 734.231 0 620881 677.586 0 608989 621.852 0 598108 566.968 0 588224 512.872 0 579322 459.498 0 571389 406.777 0 564416 354.641 0 558391 303.018 0 553305 251.837 0 549152 201.025 0 545925 150.51 0 543620 100.216 0 542232 50.0709 0 541761 0 0 1.02895e+06 3699.76 0 995761 3559.47 0 963855 3418.08 0 933244 3276.45 0 903926 3135.27 0 875895 2995.08 0 849139 2856.29 0 823643 2719.23 0 799391 2584.13 0 776365 2451.15 0 754543 2320.39 0 733906 2191.93 0 714433 2065.78 0 696102 1941.92 0 678893 1820.33 0 662786 1700.94 0 647759 1583.68 0 633796 1468.46 0 620877 1355.17 0 608985 1243.7 0 598104 1133.93 0 588219 1025.74 0 579317 918.994 0 571385 813.553 0 564411 709.281 0 558386 606.035 0 553301 503.674 0 549148 402.05 0 545921 301.018 0 543616 200.432 0 542228 100.142 0 541757 0 0 1.02895e+06 5549.64 0 995751 5339.2 0 963845 5127.12 0 933234 4914.67 0 903917 4702.9 0 875885 4492.61 0 849129 4284.44 0 823634 4078.84 0 799382 3876.19 0 776356 3676.71 0 754534 3480.58 0 733898 3287.89 0 714425 3098.65 0 696094 2912.87 0 678885 2730.49 0 662777 2551.4 0 647751 2375.51 0 633788 2202.68 0 620869 2032.75 0 608977 1865.54 0 598096 1700.9 0 588212 1538.61 0 579310 1378.49 0 571378 1220.33 0 564404 1063.92 0 558379 909.05 0 553294 755.508 0 549141 603.073 0 545914 451.526 0 543609 300.646 0 542221 150.212 0 541750 0 0 1.02893e+06 7399.54 0 995737 7118.95 0 963832 6836.16 0 933221 6552.89 0 903903 6270.53 0 875872 5990.14 0 849116 5712.57 0 823621 5438.44 0 799369 5168.23 0 776343 4902.27 0 754522 4640.76 0 733885 4383.83 0 714413 4131.52 0 696082 3883.82 0 678874 3640.63 0 662766 3401.86 0 647740 3167.34 0 633777 2936.89 0 620858 2710.32 0 608966 2487.38 0 598086 2267.85 0 588202 2051.47 0 579300 1837.97 0 571368 1627.09 0 564394 1418.55 0 558369 1212.06 0 553284 1007.34 0 549131 804.093 0 545905 602.032 0 543599 400.86 0 542212 200.281 0 541740 0 0 1.02891e+06 9249.45 0 995720 8898.7 0 963814 8545.2 0 933203 8191.11 0 903886 7838.15 0 875855 7487.66 0 849099 7140.69 0 823604 6798.03 0 799353 6460.27 0 776327 6127.81 0 754506 5800.92 0 733870 5479.76 0 714397 5164.38 0 696067 4854.74 0 678859 4550.77 0 662752 4252.3 0 647726 3959.15 0 633763 3671.09 0 620844 3387.87 0 608953 3109.21 0 598073 2834.79 0 588189 2564.32 0 579287 2297.45 0 571355 2033.85 0 564382 1773.17 0 558357 1515.07 0 553272 1259.16 0 549119 1005.11 0 545892 752.534 0 543587 501.071 0 542199 250.35 0 541728 0 0 1.02889e+06 11099.4 0 995699 10678.5 0 963793 10254.2 0 933182 9829.33 0 903865 9405.76 0 875834 8985.17 0 849078 8568.8 0 823583 8157.61 0 799333 7752.29 0 776307 7353.33 0 754487 6961.07 0 733851 6575.68 0 714378 6197.22 0 696049 5825.65 0 678841 5460.88 0 662734 5102.72 0 647709 4750.95 0 633746 4405.28 0 620827 4065.42 0 608936 3731.02 0 598056 3401.73 0 588172 3077.16 0 579271 2756.92 0 571339 2440.6 0 564366 2127.79 0 558341 1818.06 0 553256 1510.99 0 549104 1206.12 0 545877 903.034 0 543572 601.28 0 542184 300.417 0 541713 0 0 1.02887e+06 12949.3 0 995674 12458.2 0 963768 11963.3 0 933157 11467.5 0 903840 10973.4 0 875809 10482.7 0 849054 9996.89 0 823559 9517.16 0 799309 9044.29 0 776284 8578.84 0 754463 8121.2 0 733828 7671.57 0 714356 7230.03 0 696027 6796.55 0 678819 6370.98 0 662713 5953.13 0 647688 5542.73 0 633726 5139.45 0 620807 4742.95 0 608917 4352.82 0 598037 3968.64 0 588153 3589.98 0 579252 3216.38 0 571321 2847.34 0 564348 2482.4 0 558323 2121.05 0 553238 1762.8 0 549086 1407.13 0 545859 1053.53 0 543554 701.487 0 542167 350.484 0 541695 0 0 1.02884e+06 14799.3 0 995645 14238 0 963739 13672.3 0 933128 13105.7 0 903811 12541 0 875780 11980.1 0 849025 11425 0 823531 10876.7 0 799281 10336.3 0 776256 9804.32 0 754437 9281.3 0 733802 8767.44 0 714331 8262.83 0 696002 7767.41 0 678795 7281.05 0 662689 6803.51 0 647664 6334.48 0 633702 5873.6 0 620784 5420.46 0 608894 4974.6 0 598015 4535.55 0 588131 4102.8 0 579230 3675.82 0 571299 3254.07 0 564326 2837 0 558302 2424.04 0 553217 2014.61 0 549065 1608.13 0 545838 1204.02 0 543533 801.691 0 542146 400.548 0 541675 0 0 1.02881e+06 16649.3 0 995612 16017.8 0 963706 15381.4 0 933095 14743.9 0 903778 14108.5 0 875748 13477.6 0 848993 12853 0 823500 12236.2 0 799250 11628.2 0 776226 11029.8 0 754407 10441.4 0 733772 9863.28 0 714302 9295.59 0 695973 8738.25 0 678767 8191.1 0 662661 7653.87 0 647637 7126.21 0 633676 6607.73 0 620758 6097.94 0 608868 5596.36 0 597989 5102.43 0 588106 4615.59 0 579206 4135.25 0 571275 3660.79 0 564302 3191.58 0 558278 2727.01 0 553194 2266.4 0 549041 1809.12 0 545815 1354.51 0 543510 901.891 0 542123 450.611 0 541651 0 0 1.02877e+06 18499.3 0 995576 17797.6 0 963669 17090.4 0 933058 16382.1 0 903742 15676.1 0 875712 14975.1 0 848958 14281.1 0 823464 13595.7 0 799215 12920.1 0 776192 12255.2 0 754373 11601.4 0 733739 10959.1 0 714269 10328.3 0 695941 9709.06 0 678735 9101.12 0 662630 8504.2 0 647607 7917.92 0 633646 7341.83 0 620729 6775.41 0 608840 6218.09 0 597961 5669.29 0 588078 5128.37 0 579178 4594.66 0 571248 4067.48 0 564275 3546.16 0 558252 3029.96 0 553167 2518.19 0 549015 2010.11 0 545789 1504.99 0 543484 1002.09 0 542097 500.672 0 541625 0 0 1.02873e+06 20349.4 0 995535 19577.4 0 963628 18799.5 0 933018 18020.3 0 903701 17243.7 0 875672 16472.5 0 848918 15709.1 0 823425 14955.2 0 799177 14212 0 776154 13480.6 0 754336 12761.4 0 733703 12054.9 0 714233 11361 0 695906 10679.8 0 678701 10011.1 0 662596 9354.5 0 647574 8709.59 0 633613 8075.9 0 620697 7452.84 0 608808 6839.81 0 597930 6236.13 0 588048 5641.12 0 579148 5054.05 0 571218 4474.17 0 564246 3900.71 0 558222 3332.91 0 553138 2769.97 0 548986 2211.09 0 545760 1655.46 0 543455 1102.28 0 542068 550.731 0 541597 0 0 1.02869e+06 22199.4 0 995491 21357.3 0 963584 20508.6 0 932973 19658.5 0 903657 18811.2 0 875628 17969.9 0 848875 17137 0 823383 16314.6 0 799135 15503.9 0 776112 14705.9 0 754295 13921.4 0 733663 13150.6 0 714194 12393.7 0 695868 11650.6 0 678663 10921.1 0 662559 10204.8 0 647537 9501.24 0 633577 8809.94 0 620662 8130.25 0 608773 7461.49 0 597895 6802.94 0 588014 6153.85 0 579114 5513.41 0 571185 4880.83 0 564213 4255.25 0 558190 3635.84 0 553106 3021.73 0 548954 2412.05 0 545728 1805.92 0 543424 1202.47 0 542037 600.787 0 541565 0 0 1.02864e+06 24049.6 0 995442 23137.1 0 963536 22217.6 0 932925 21296.7 0 903609 20378.7 0 875580 19467.3 0 848828 18565 0 823336 17674 0 799089 16795.7 0 776067 15931.3 0 754251 15081.3 0 733619 14246.3 0 714151 13426.3 0 695826 12621.3 0 678622 11831 0 662519 11055 0 647497 10292.8 0 633538 9543.94 0 620623 8807.62 0 608735 8083.14 0 597858 7369.73 0 587977 6666.55 0 579078 5972.76 0 571149 5287.47 0 564178 4609.77 0 558155 3938.76 0 553071 3273.48 0 548920 2613.01 0 545694 1956.38 0 543389 1302.65 0 542002 650.84 0 541531 0 0 1.02859e+06 25899.7 0 995390 24917 0 963483 23926.7 0 932873 22934.8 0 903557 21946.2 0 875529 20964.6 0 848777 19992.9 0 823286 19033.3 0 799040 18087.5 0 776019 17156.5 0 754203 16241.2 0 733572 15342 0 714105 14458.9 0 695780 13591.9 0 678577 12740.8 0 662475 11905.2 0 647455 11084.4 0 633496 10277.9 0 620582 9484.96 0 608695 8704.76 0 597818 7936.48 0 587938 7179.23 0 579039 6432.08 0 571110 5694.09 0 564139 4964.28 0 558117 4241.66 0 553033 3525.22 0 548882 2813.95 0 545657 2106.83 0 543352 1402.82 0 541965 700.891 0 541494 0 0 1.02853e+06 27750 0 995334 26696.9 0 963427 25635.8 0 932817 24573 0 903501 23513.7 0 875473 22461.9 0 848722 21420.8 0 823232 20392.6 0 798986 19379.2 0 775966 18381.8 0 754152 17401.1 0 733522 16437.6 0 714056 15491.4 0 695732 14562.5 0 678530 13650.6 0 662428 12755.3 0 647408 11875.9 0 633451 11011.8 0 620537 10162.3 0 608651 9326.35 0 597775 8503.2 0 587895 7691.87 0 578997 6891.37 0 571069 6100.68 0 564098 5318.76 0 558076 4544.53 0 552993 3776.94 0 548842 3014.89 0 545617 2257.27 0 543313 1502.99 0 541926 750.939 0 541455 0 0 1.02847e+06 29600.2 0 995275 28476.8 0 963367 27344.8 0 932757 26211.1 0 903442 25081.2 0 875414 23959.2 0 848664 22848.6 0 823174 21751.9 0 798930 20670.9 0 775911 19606.9 0 754097 18560.8 0 733468 17533.1 0 714003 16523.9 0 695680 15533.1 0 678479 14560.4 0 662378 13605.4 0 647359 12667.4 0 633402 11745.7 0 620490 10839.5 0 608604 9947.89 0 597729 9069.89 0 587849 8204.49 0 578952 7350.64 0 571024 6507.25 0 564054 5673.21 0 558033 4847.39 0 552950 4028.65 0 548799 3215.81 0 545574 2407.7 0 543270 1603.15 0 541883 800.983 0 541412 0 0 1.02841e+06 31450.5 0 995211 30256.8 0 963303 29053.9 0 932693 27849.3 0 903378 26648.6 0 875351 25456.5 0 848601 24276.4 0 823113 23111.1 0 798869 21962.5 0 775851 20832.1 0 754039 19720.6 0 733411 18628.6 0 713946 17556.3 0 695625 16503.6 0 678424 15470.1 0 662325 14455.4 0 647307 13458.8 0 633351 12479.6 0 620439 11516.7 0 608554 10569.4 0 597680 9636.54 0 587801 8717.07 0 578904 7809.87 0 570977 6913.79 0 564008 6027.65 0 557986 5150.23 0 552904 4280.33 0 548754 3416.71 0 545529 2558.12 0 543225 1703.31 0 541838 851.024 0 541367 0 0 1.02834e+06 33300.9 0 995144 32036.7 0 963235 30763 0 932625 29487.4 0 903311 28216 0 875285 26953.7 0 848535 25704.2 0 823048 24470.3 0 798805 23254.1 0 775788 22057.1 0 753977 20880.3 0 733350 19724 0 713887 18588.7 0 695566 17474 0 678367 16379.8 0 662268 15305.4 0 647251 14250.2 0 633296 13213.3 0 620385 12193.9 0 608501 11190.9 0 597628 10203.1 0 587750 9229.61 0 578854 8269.07 0 570927 7320.3 0 563958 6382.05 0 557937 5453.05 0 552855 4532 0 548705 3617.6 0 545481 2708.53 0 543177 1803.46 0 541790 901.061 0 541319 0 0 1.02827e+06 35151.3 0 995072 33816.7 0 963164 32472.1 0 932554 31125.5 0 903240 29783.4 0 875214 28450.9 0 848466 27131.9 0 822979 25829.4 0 798737 24545.6 0 775721 23282.1 0 753911 22039.9 0 733285 20819.4 0 713823 19621 0 695504 18444.4 0 678306 17289.4 0 662209 16155.3 0 647193 15041.5 0 633239 13947.1 0 620329 12871 0 608445 11812.3 0 597572 10769.7 0 587695 9742.11 0 578800 8728.23 0 570874 7726.78 0 563906 6736.43 0 557885 5755.84 0 552804 4783.65 0 548654 3818.48 0 545430 2858.92 0 543126 1903.6 0 541740 951.094 0 541269 0 0 1.0282e+06 37001.8 0 994997 35596.8 0 963088 34181.2 0 932478 32763.6 0 903164 31350.7 0 875140 29948 0 848392 28559.5 0 822907 27188.5 0 798666 25837.1 0 775651 24507.1 0 753842 23199.4 0 733218 21914.7 0 713757 20653.2 0 695438 19414.7 0 678242 18198.9 0 662146 17005.2 0 647131 15832.8 0 633178 14680.8 0 620269 13548.1 0 608386 12433.6 0 597514 11336.2 0 587638 10254.6 0 578743 9187.36 0 570818 8133.22 0 563850 7090.78 0 557830 6058.61 0 552749 5035.28 0 548600 4019.33 0 545376 3009.31 0 543073 2003.73 0 541686 1001.12 0 541215 0 0 1.02812e+06 38852.4 0 994918 37376.8 0 963009 35890.3 0 932399 34401.6 0 903086 32918 0 875061 31445.1 0 848315 29987.1 0 822830 28547.5 0 798591 27128.5 0 775577 25731.9 0 753769 24358.9 0 733146 23010 0 713687 21685.4 0 695370 20385 0 678174 19108.4 0 662079 17855 0 647066 16624 0 633114 15414.4 0 620206 14225.1 0 608324 13055 0 597453 11902.7 0 587578 10767 0 578684 9646.45 0 570759 8539.63 0 563792 7445.1 0 557773 6361.35 0 552692 5286.88 0 548543 4220.17 0 545319 3159.68 0 543016 2103.85 0 541630 1051.15 0 541159 0 0 1.02804e+06 40703 0 994835 39156.9 0 962925 37599.4 0 932316 36039.7 0 903003 34485.3 0 874979 32942.1 0 848234 31414.7 0 822750 29906.4 0 798512 28419.8 0 775500 26956.7 0 753693 25518.3 0 733072 24105.1 0 713613 22717.5 0 695298 21355.2 0 678103 20017.8 0 662010 18704.8 0 646997 17415.1 0 633047 16148 0 620140 14902.1 0 608259 13676.2 0 597389 12469.1 0 587515 11279.4 0 578622 10105.5 0 570698 8946.01 0 563731 7799.39 0 557712 6664.07 0 552632 5538.47 0 548484 4420.99 0 545260 3310.03 0 542957 2203.97 0 541571 1101.17 0 541100 0 0 1.02795e+06 42553.7 0 994748 40937.1 0 962838 39308.5 0 932228 37677.7 0 902916 36052.6 0 874894 34439.1 0 848149 32842.2 0 822667 31265.3 0 798430 29711.1 0 775419 28181.5 0 753614 26677.6 0 732993 25200.2 0 713537 23749.5 0 695222 22325.3 0 678029 20927.2 0 661937 19554.4 0 646926 18206.2 0 632976 16881.4 0 620071 15579 0 608191 14297.4 0 597322 13035.5 0 587449 11791.7 0 578557 10564.5 0 570633 9352.34 0 563668 8153.64 0 557649 6966.75 0 552570 5790.03 0 548421 4621.8 0 545198 3460.38 0 542896 2304.07 0 541510 1151.18 0 541039 0 0 1.02786e+06 44404.5 0 994657 42717.2 0 962747 41017.6 0 932137 39315.8 0 902826 37619.8 0 874804 35936.1 0 848060 34269.6 0 822579 32624.1 0 798343 31002.3 0 775334 29406.1 0 753530 27836.9 0 732912 26295.2 0 713456 24781.4 0 695143 23295.3 0 677952 21836.4 0 661861 20404 0 646851 18997.2 0 632903 17614.9 0 619999 16255.8 0 608120 14918.6 0 597253 13601.8 0 587380 12304 0 578489 11023.5 0 570566 9758.64 0 563601 8507.86 0 557583 7269.4 0 552504 6041.56 0 548356 4822.58 0 545134 3610.7 0 542831 2404.16 0 541446 1201.19 0 540975 0 0 1.02777e+06 46255.4 0 994563 44497.4 0 962652 42726.8 0 932043 40953.8 0 902731 39187 0 874710 37433 0 847968 35697 0 822488 33982.8 0 798254 32293.4 0 775246 30630.7 0 753444 28996.1 0 732826 27390.2 0 713373 25813.3 0 695061 24265.3 0 677871 22745.6 0 661782 21253.5 0 646773 19788.1 0 632827 18348.2 0 619923 16932.6 0 608046 15539.7 0 597180 14168.1 0 587308 12816.2 0 578418 11482.4 0 570496 10164.9 0 563532 8862.04 0 557515 7572.03 0 552436 6293.07 0 548289 5023.34 0 545066 3761.01 0 542764 2504.25 0 541379 1251.2 0 540908 0 0 1.02767e+06 48106.3 0 994464 46277.6 0 962553 44435.9 0 931944 42591.8 0 902633 40754.1 0 874613 38929.8 0 847872 37124.3 0 822393 35341.5 0 798160 33584.4 0 775154 31855.2 0 753353 30155.1 0 732738 28485 0 713286 26845.1 0 694976 25235.1 0 677787 23654.7 0 661700 22103 0 646693 20579 0 632747 19081.5 0 619845 17609.3 0 607969 16160.7 0 597104 14734.3 0 587233 13328.4 0 578344 11941.2 0 570423 10571.1 0 563459 9216.18 0 557443 7874.62 0 552365 6544.55 0 548218 5224.08 0 544996 3911.31 0 542694 2604.32 0 541309 1301.19 0 540838 0 0 1.02757e+06 49957.4 0 994362 48057.9 0 962450 46145.1 0 931841 44229.7 0 902531 42321.2 0 874512 40426.6 0 847772 38551.5 0 822294 36700.1 0 798063 34875.4 0 775058 33079.6 0 753259 31314.1 0 732645 29579.8 0 713195 27876.7 0 694887 26204.9 0 677700 24563.7 0 661614 22952.3 0 646608 21369.8 0 632664 19814.8 0 619764 18285.9 0 607889 16781.7 0 597025 15300.4 0 587155 13840.5 0 578267 12400 0 570347 10977.3 0 563384 9570.28 0 557369 8177.17 0 552291 6796 0 548145 5424.79 0 544923 4061.58 0 542621 2704.38 0 541236 1351.19 0 540766 0 0 1.02747e+06 51808.5 0 994256 49838.2 0 962344 47854.2 0 931735 45867.7 0 902425 43888.3 0 874407 41923.4 0 847668 39978.7 0 822192 38058.6 0 797962 36166.2 0 774959 34303.9 0 753162 32473 0 732550 30674.4 0 713101 28908.3 0 694795 27174.6 0 677610 25472.6 0 661525 23801.6 0 646521 22160.5 0 632579 20547.9 0 619679 18962.5 0 607806 17402.6 0 596943 15866.5 0 587075 14352.5 0 578187 12858.8 0 570268 11383.4 0 563306 9924.35 0 557291 8479.69 0 552215 7047.42 0 548069 5625.48 0 544847 4211.84 0 542546 2804.43 0 541161 1401.17 0 540690 0 0 1.02736e+06 53659.8 0 994145 51618.5 0 962233 49563.4 0 931624 47505.6 0 902315 45455.3 0 874298 43420 0 847560 41405.8 0 822086 39417 0 797858 37457 0 774856 35528.1 0 753061 33631.8 0 732451 31769 0 713004 29939.8 0 694699 28144.2 0 677516 26381.4 0 661433 24650.8 0 646431 22951.1 0 632490 21281 0 619592 19638.9 0 607720 18023.4 0 596858 16432.5 0 586991 14864.5 0 578105 13317.5 0 570187 11789.5 0 563226 10278.4 0 557211 8782.18 0 552135 7298.81 0 547990 5826.15 0 544769 4362.08 0 542468 2904.47 0 541083 1451.16 0 540612 0 0 1.02724e+06 55511.2 0 994031 53398.9 0 962119 51272.5 0 931510 49143.5 0 902202 47022.3 0 874186 44916.6 0 847449 42832.8 0 821976 40775.3 0 797750 38747.7 0 774750 36752.2 0 752957 34790.5 0 732348 32863.4 0 712903 30971.2 0 694600 29113.7 0 677419 27290.2 0 661338 25499.9 0 646337 23741.6 0 632398 22013.9 0 619501 20315.3 0 607631 18644.1 0 596770 16998.5 0 586904 15376.5 0 578019 13776.2 0 570102 12195.5 0 563142 10632.3 0 557129 9084.62 0 552053 7550.16 0 547908 6026.79 0 544688 4512.3 0 542387 3004.49 0 541002 1501.13 0 540532 0 0 1.02713e+06 57362.7 0 993914 55179.3 0 962000 52981.7 0 931392 50781.4 0 902084 48589.2 0 874069 46413.2 0 847334 44259.7 0 821863 42133.6 0 797638 40038.3 0 774640 37976.3 0 752848 35949.1 0 732242 33957.8 0 712799 32002.5 0 694498 30083 0 677318 28198.8 0 661239 26348.9 0 646240 24532 0 632303 22746.8 0 619408 20991.7 0 607539 19264.8 0 596680 17564.3 0 586815 15888.3 0 577931 14234.7 0 570015 12601.4 0 563056 10986.3 0 557043 9387.03 0 551968 7801.49 0 547824 6227.41 0 544604 4662.5 0 542303 3104.5 0 540919 1551.1 0 540448 0 0 </DataArray> 
</PointData> 
<Points> 
<DataArray type="Float32" NumberOfComponents="3"> 