<?xml version="1.0"?> 
<VTKFile type="StructuredGrid" version="0.1"> 
<StructuredGrid WholeExtent="0 31 0 31 0 0"> 
<Piece Extent="0 31 0 31 0 0"> 
<PointData>
<DataArray type="Float32" Name="|E|" format="ascii" NumberOfComponents="3"> 
-2.10048e+06 0 0 -2.10198e+06 12403 0 -2.10641e+06 24822 0 -2.11378e+06 37303.9 0 -2.12411e+06 49896.5 0 -2.13745e+06 62649.6 0 -2.15383e+06 75613.9 0 -2.17332e+06 88843 0 -2.19599e+06 102393 0 -2.22193e+06 116325 0 -2.25122e+06 130702 0 -2.284e+06 145591 0 -2.32038e+06 161063 0 -2.36054e+06 177192 0 -2.40464e+06 194051 0 -2.4529e+06 211709 0 -2.50555e+06 230223 0 -2.56287e+06 249630 0 -2.62517e+06 269924 0 -2.69284e+06 291031 0 -2.7663e+06 312759 0 -2.84606e+06 334734 0 -2.93268e+06 356286 0 -3.02679e+06 376285 0 -3.12898e+06 392892 0 -3.2396e+06 403185 0 -3.3584e+06 402603 0 -3.48341e+06 384241 0 -3.6087e+06 338871 0 -3.72161e+06 257770 0 -3.80365e+06 143095 0 -3.84227e+06 -6464.27 0 -2.0995e+06 0 0 -2.10091e+06 12259.2 0 -2.10507e+06 24533.1 0 -2.112e+06 36865.2 0 -2.12172e+06 49300.1 0 -2.13425e+06 61883.9 0 -2.14964e+06 74663.8 0 -2.16794e+06 87689.4 0 -2.18921e+06 101013 0 -2.21353e+06 114689 0 -2.24099e+06 128777 0 -2.27168e+06 143339 0 -2.30573e+06 158441 0 -2.34326e+06 174151 0 -2.38444e+06 190538 0 -2.42943e+06 207670 0 -2.47846e+06 225608 0 -2.53175e+06 244401 0 -2.58957e+06 264068 0 -2.65226e+06 284584 0 -2.72018e+06 305846 0 -2.79376e+06 327627 0 -2.87351e+06 349506 0 -2.96001e+06 370755 0 -3.05388e+06 390178 0 -3.15569e+06 405859 0 -3.26579e+06 414835 0 -3.38384e+06 412534 0 -3.5077e+06 391936 0 -3.63109e+06 342254 0 -3.74081e+06 254743 0 -3.81965e+06 129183 0 -2.09849e+06 0 0 -2.09982e+06 12101.4 0 -2.10373e+06 24216.2 0 -2.11023e+06 36384.9 0 -2.11935e+06 48648.4 0 -2.1311e+06 61049.9 0 -2.14553e+06 73632.9 0 -2.16268e+06 86443.2 0 -2.18261e+06 99528.7 0 -2.20538e+06 112940 0 -2.23107e+06 126732 0 -2.25976e+06 140961 0 -2.29156e+06 155687 0 -2.32658e+06 170975 0 -2.36496e+06 186888 0 -2.40685e+06 203494 0 -2.45243e+06 220852 0 -2.5019e+06 239018 0 -2.55549e+06 258029 0 -2.61348e+06 277890 0 -2.67619e+06 298557 0 -2.74397e+06 319905 0 -2.81728e+06 341675 0 -2.8966e+06 363407 0 -2.98253e+06 384322 0 -3.07567e+06 403150 0 -3.17659e+06 417868 0 -3.28565e+06 425330 0 -3.40248e+06 420923 0 -3.52495e+06 397525 0 -3.64672e+06 343682 0 -3.75423e+06 260303 0 -2.09747e+06 0 0 -2.09872e+06 11929.7 0 -2.10238e+06 23871.5 0 -2.10847e+06 35862.8 0 -2.117e+06 47941.6 0 -2.128e+06 60147.5 0 -2.14151e+06 72521.1 0 -2.15755e+06 85104.1 0 -2.17618e+06 97940.6 0 -2.19746e+06 111077 0 -2.22144e+06 124564 0 -2.24822e+06 138452 0 -2.27786e+06 152797 0 -2.31048e+06 167657 0 -2.3462e+06 183094 0 -2.38513e+06 199168 0 -2.42744e+06 215941 0 -2.47329e+06 233468 0 -2.52288e+06 251796 0 -2.57645e+06 270952 0 -2.63425e+06 290931 0 -2.69661e+06 311675 0 -2.76389e+06 333042 0 -2.83651e+06 354756 0 -2.91497e+06 376341 0 -2.99986e+06 397008 0 -3.09178e+06 415493 0 -3.19131e+06 429767 0 -3.2988e+06 436601 0 -3.41393e+06 431674 0 -3.53491e+06 404733 0 -3.65449e+06 357214 0 -2.09643e+06 0 0 -2.0976e+06 11744 0 -2.10102e+06 23498.9 0 -2.10671e+06 35299.2 0 -2.11468e+06 47179.8 0 -2.12496e+06 59177.2 0 -2.13757e+06 71328.7 0 -2.15254e+06 83672.7 0 -2.16993e+06 96249.4 0 -2.18977e+06 109102 0 -2.21212e+06 122274 0 -2.23705e+06 135814 0 -2.26464e+06 149773 0 -2.29496e+06 164204 0 -2.32813e+06 179161 0 -2.36425e+06 194704 0 -2.40345e+06 210889 0 -2.44587e+06 227773 0 -2.49169e+06 245407 0 -2.54109e+06 263829 0 -2.59431e+06 283060 0 -2.65159e+06 303085 0 -2.71324e+06 323836 0 -2.77962e+06 345162 0 -2.85115e+06 366782 0 -2.92832e+06 388215 0 -3.0117e+06 408679 0 -3.1019e+06 426960 0 -3.1995e+06 440953 0 -3.30483e+06 448303 0 -3.418e+06 441816 0 -3.53642e+06 420634 0 -2.09538e+06 0 0 -2.09646e+06 11544.4 0 -2.09965e+06 23098.5 0 -2.10496e+06 34694.2 0 -2.11239e+06 46363.1 0 -2.12197e+06 58138.9 0 -2.13371e+06 70056 0 -2.14766e+06 82149.3 0 -2.16384e+06 94455.5 0 -2.1823e+06 107013 0 -2.20309e+06 119864 0 -2.22626e+06 133050 0 -2.25187e+06 146617 0 -2.28001e+06 160615 0 -2.31075e+06 175092 0 -2.34419e+06 190104 0 -2.38044e+06 205703 0 -2.41962e+06 221944 0 -2.46187e+06 238878 0 -2.50736e+06 256551 0 -2.55627e+06 274997 0 -2.6088e+06 294228 0 -2.66522e+06 314227 0 -2.72581e+06 334921 0 -2.79093e+06 356161 0 -2.86097e+06 377674 0 -2.93641e+06 398991 0 -3.01781e+06 419408 0 -3.10578e+06 437594 0 -3.20085e+06 452186 0 -3.30362e+06 459182 0 -3.4138e+06 456205 0 -2.0943e+06 0 0 -2.09531e+06 11330.8 0 -2.09827e+06 22670.4 0 -2.10321e+06 34047.7 0 -2.11012e+06 45491.6 0 -2.11903e+06 57033 0 -2.12994e+06 68703.3 0 -2.1429e+06 80534.3 0 -2.15793e+06 92559.3 0 -2.17507e+06 104813 0 -2.19435e+06 117334 0 -2.21583e+06 130159 0 -2.23956e+06 143331 0 -2.2656e+06 156892 0 -2.29403e+06 170890 0 -2.32493e+06 185372 0 -2.35838e+06 200388 0 -2.3945e+06 215988 0 -2.43339e+06 232224 0 -2.47519e+06 249143 0 -2.52006e+06 266786 0 -2.56816e+06 285182 0 -2.61971e+06 304341 0 -2.67495e+06 324243 0 -2.73414e+06 344817 0 -2.79761e+06 365925 0 -2.86577e+06 387303 0 -2.93906e+06 408561 0 -3.01802e+06 428934 0 -3.10323e+06 447530 0 -3.19529e+06 462424 0 -3.29472e+06 471130 0 -2.0932e+06 0 0 -2.09414e+06 11103.5 0 -2.09689e+06 22214.6 0 -2.10147e+06 33359.9 0 -2.10788e+06 44565.6 0 -2.11614e+06 55859.6 0 -2.12626e+06 67270.8 0 -2.13827e+06 78828 0 -2.15219e+06 90561.3 0 -2.16805e+06 102502 0 -2.1859e+06 114684 0 -2.20576e+06 127142 0 -2.22769e+06 139914 0 -2.25174e+06 153037 0 -2.27797e+06 166555 0 -2.30645e+06 180509 0 -2.33726e+06 194947 0 -2.37047e+06 209913 0 -2.40619e+06 225457 0 -2.44453e+06 241624 0 -2.48561e+06 258459 0 -2.52958e+06 275998 0 -2.5766e+06 294270 0 -2.62687e+06 313283 0 -2.6806e+06 333018 0 -2.73806e+06 353414 0 -2.79955e+06 374340 0 -2.86545e+06 395586 0 -2.93618e+06 416756 0 -3.01225e+06 437273 0 -3.09422e+06 456281 0 -3.18271e+06 471848 0 -2.09209e+06 0 0 -2.09295e+06 10862.2 0 -2.0955e+06 21731.1 0 -2.09973e+06 32630.9 0 -2.10566e+06 43585.1 0 -2.1133e+06 54618.9 0 -2.12266e+06 65758.8 0 -2.13375e+06 77030.8 0 -2.14661e+06 88461.8 0 -2.16126e+06 100080 0 -2.17773e+06 111916 0 -2.19605e+06 124001 0 -2.21626e+06 136368 0 -2.23842e+06 149052 0 -2.26256e+06 162089 0 -2.28874e+06 175519 0 -2.31703e+06 189383 0 -2.34751e+06 203723 0 -2.38024e+06 218583 0 -2.41532e+06 234007 0 -2.45286e+06 250038 0 -2.49297e+06 266717 0 -2.53578e+06 284080 0 -2.58145e+06 302152 0 -2.63015e+06 320943 0 -2.68209e+06 340441 0 -2.7375e+06 360591 0 -2.79669e+06 381292 0 -2.85997e+06 402360 0 -2.92777e+06 423453 0 -3.00052e+06 444219 0 -3.07882e+06 463325 0 -2.09095e+06 0 0 -2.09175e+06 10607.2 0 -2.0941e+06 21220.1 0 -2.098e+06 31860.7 0 -2.10347e+06 42550.2 0 -2.11051e+06 53311.1 0 -2.11914e+06 64167.4 0 -2.12936e+06 75142.7 0 -2.1412e+06 86261.1 0 -2.15469e+06 97548 0 -2.16984e+06 109030 0 -2.18669e+06 120735 0 -2.20527e+06 132693 0 -2.22561e+06 144935 0 -2.24777e+06 157493 0 -2.27178e+06 170402 0 -2.29769e+06 183698 0 -2.32558e+06 197420 0 -2.3555e+06 211607 0 -2.38752e+06 226300 0 -2.42174e+06 241539 0 -2.45825e+06 257366 0 -2.49714e+06 273818 0 -2.53855e+06 290929 0 -2.58261e+06 308724 0 -2.62948e+06 327218 0 -2.67936e+06 346401 0 -2.73246e+06 366237 0 -2.78903e+06 386654 0 -2.8494e+06 407468 0 -2.9139e+06 428573 0 -2.98301e+06 449080 0 -2.0898e+06 0 0 -2.09053e+06 10338.3 0 -2.09269e+06 20681.5 0 -2.09628e+06 31049.5 0 -2.10131e+06 41461.1 0 -2.10778e+06 51936.3 0 -2.1157e+06 62496.9 0 -2.12509e+06 73164.2 0 -2.13596e+06 83959.6 0 -2.14834e+06 94905.6 0 -2.16223e+06 106026 0 -2.17768e+06 117346 0 -2.1947e+06 128891 0 -2.21333e+06 140688 0 -2.2336e+06 152767 0 -2.25555e+06 165158 0 -2.27922e+06 177893 0 -2.30466e+06 191006 0 -2.33193e+06 204533 0 -2.36109e+06 218508 0 -2.3922e+06 232972 0 -2.42533e+06 247961 0 -2.46059e+06 263513 0 -2.49805e+06 279664 0 -2.53783e+06 296448 0 -2.58006e+06 313889 0 -2.62488e+06 332006 0 -2.67245e+06 350796 0 -2.72298e+06 370247 0 -2.77669e+06 390270 0 -2.83384e+06 410877 0 -2.8948e+06 431484 0 -2.08863e+06 0 0 -2.0893e+06 10055.7 0 -2.09128e+06 20115.4 0 -2.09456e+06 30197.2 0 -2.09917e+06 40317.8 0 -2.10509e+06 50494.7 0 -2.11234e+06 60747.4 0 -2.12093e+06 71095.3 0 -2.13088e+06 81557.5 0 -2.1422e+06 92153.4 0 -2.1549e+06 102904 0 -2.16901e+06 113832 0 -2.18455e+06 124960 0 -2.20155e+06 136311 0 -2.22003e+06 147912 0 -2.24003e+06 159788 0 -2.26158e+06 171968 0 -2.28472e+06 184482 0 -2.3095e+06 197360 0 -2.33596e+06 210635 0 -2.36416e+06 224341 0 -2.39416e+06 238512 0 -2.42603e+06 253184 0 -2.45984e+06 268392 0 -2.49567e+06 284170 0 -2.53363e+06 300550 0 -2.57382e+06 317559 0 -2.61638e+06 335216 0 -2.66145e+06 353537 0 -2.70919e+06 372488 0 -2.75981e+06 392128 0 -2.81356e+06 412078 0 -2.08743e+06 0 0 -2.08805e+06 9759.27 0 -2.08985e+06 19521.9 0 -2.09285e+06 29304 0 -2.09705e+06 39120.4 0 -2.10245e+06 48986.4 0 -2.10907e+06 58919.2 0 -2.1169e+06 68936.4 0 -2.12596e+06 79054.8 0 -2.13627e+06 89291.7 0 -2.14784e+06 99665.3 0 -2.16068e+06 110195 0 -2.17482e+06 120901 0 -2.19027e+06 131804 0 -2.20706e+06 142926 0 -2.22522e+06 154291 0 -2.24477e+06 165922 0 -2.26575e+06 177846 0 -2.28818e+06 190089 0 -2.31212e+06 202680 0 -2.3376e+06 215648 0 -2.36467e+06 229024 0 -2.39339e+06 242841 0 -2.4238e+06 257130 0 -2.456e+06 271925 0 -2.49003e+06 287257 0 -2.526e+06 303159 0 -2.56399e+06 319656 0 -2.60411e+06 336777 0 -2.6465e+06 354520 0 -2.69128e+06 372956 0 -2.73866e+06 391839 0 -2.08622e+06 0 0 -2.08678e+06 9449.16 0 -2.08842e+06 18901 0 -2.09115e+06 28369.9 0 -2.09496e+06 37869.1 0 -2.09987e+06 47411.6 0 -2.10587e+06 57012.4 0 -2.11298e+06 66687.5 0 -2.12121e+06 76451.8 0 -2.13056e+06 86320.4 0 -2.14105e+06 96308.8 0 -2.15269e+06 106434 0 -2.1655e+06 116714 0 -2.17949e+06 127167 0 -2.19468e+06 137811 0 -2.2111e+06 148666 0 -2.22876e+06 159754 0 -2.2477e+06 171097 0 -2.26794e+06 182718 0 -2.28951e+06 194641 0 -2.31245e+06 206892 0 -2.33679e+06 219498 0 -2.36258e+06 232487 0 -2.38986e+06 245888 0 -2.41869e+06 259731 0 -2.44911e+06 274045 0 -2.4812e+06 288862 0 -2.51503e+06 304211 0 -2.55068e+06 320123 0 -2.58824e+06 336610 0 -2.62781e+06 353745 0 -2.66953e+06 371364 0 -2.085e+06 0 0 -2.0855e+06 9125.37 0 -2.08698e+06 18252.8 0 -2.08945e+06 27395.1 0 -2.09289e+06 36563.9 0 -2.09733e+06 45770.3 0 -2.10276e+06 55027.2 0 -2.10918e+06 64348.8 0 -2.11661e+06 73748.6 0 -2.12506e+06 83239.6 0 -2.13452e+06 92835.1 0 -2.14503e+06 102550 0 -2.15658e+06 112399 0 -2.16919e+06 122398 0 -2.18287e+06 132564 0 -2.19766e+06 142913 0 -2.21355e+06 153463 0 -2.23057e+06 164234 0 -2.24875e+06 175244 0 -2.26811e+06 186516 0 -2.28867e+06 198071 0 -2.31047e+06 209931 0 -2.33354e+06 222121 0 -2.35792e+06 234666 0 -2.38363e+06 247593 0 -2.41074e+06 260927 0 -2.43928e+06 274698 0 -2.46931e+06 288932 0 -2.50089e+06 303662 0 -2.53409e+06 318903 0 -2.56899e+06 334721 0 -2.60567e+06 351008 0 -2.08375e+06 0 0 -2.0842e+06 8787.9 0 -2.08554e+06 17577.4 0 -2.08775e+06 26379.5 0 -2.09085e+06 35204.8 0 -2.09484e+06 44062.7 0 -2.09972e+06 52963.8 0 -2.1055e+06 61920.5 0 -2.11217e+06 70945.3 0 -2.11976e+06 80049.3 0 -2.12826e+06 89243.9 0 -2.13769e+06 98541.4 0 -2.14806e+06 107955 0 -2.15937e+06 117498 0 -2.17163e+06 127184 0 -2.18488e+06 137029 0 -2.1991e+06 147046 0 -2.21433e+06 157253 0 -2.23058e+06 167665 0 -2.24788e+06 178301 0 -2.26623e+06 189178 0 -2.28566e+06 200317 0 -2.30621e+06 211737 0 -2.32789e+06 223460 0 -2.35074e+06 235509 0 -2.37479e+06 247906 0 -2.40008e+06 260675 0 -2.42664e+06 273842 0 -2.45453e+06 287435 0 -2.48378e+06 301471 0 -2.51446e+06 316006 0 -2.54663e+06 330965 0 -2.08248e+06 0 0 -2.08289e+06 8436.81 0 -2.08408e+06 16874.7 0 -2.08606e+06 25323.3 0 -2.08884e+06 33792 0 -2.0924e+06 42288.7 0 -2.09677e+06 50822.1 0 -2.10193e+06 59402.8 0 -2.10789e+06 68041.9 0 -2.11467e+06 76749.5 0 -2.12226e+06 85535.1 0 -2.13068e+06 94408.7 0 -2.13993e+06 103382 0 -2.15002e+06 112465 0 -2.16095e+06 121672 0 -2.17275e+06 131013 0 -2.18542e+06 140501 0 -2.19897e+06 150151 0 -2.21342e+06 159976 0 -2.22878e+06 169990 0 -2.24508e+06 180209 0 -2.26232e+06 190649 0 -2.28052e+06 201327 0 -2.29972e+06 212261 0 -2.31992e+06 223470 0 -2.34116e+06 234972 0 -2.36346e+06 246789 0 -2.38686e+06 258942 0 -2.41137e+06 271454 0 -2.43705e+06 284342 0 -2.46393e+06 297652 0 -2.49206e+06 311331 0 -2.0812e+06 0 0 -2.08156e+06 8072.11 0 -2.08262e+06 16144.8 0 -2.08438e+06 24226.6 0 -2.08684e+06 32325.5 0 -2.09001e+06 40448.5 0 -2.09389e+06 48602.4 0 -2.09847e+06 56795.8 0 -2.10377e+06 65038.7 0 -2.10979e+06 73340.1 0 -2.11652e+06 81708.3 0 -2.12399e+06 90151.4 0 -2.13219e+06 98678.4 0 -2.14113e+06 107299 0 -2.15082e+06 116024 0 -2.16127e+06 124863 0 -2.17248e+06 133826 0 -2.18446e+06 142925 0 -2.19724e+06 152172 0 -2.21081e+06 161578 0 -2.22519e+06 171156 0 -2.24039e+06 180919 0 -2.25643e+06 190882 0 -2.27333e+06 201058 0 -2.29109e+06 211464 0 -2.30975e+06 222114 0 -2.32931e+06 233027 0 -2.34981e+06 244219 0 -2.37126e+06 255710 0 -2.3937e+06 267515 0 -2.41714e+06 279671 0 -2.44163e+06 292138 0 -2.07989e+06 0 0 -2.08021e+06 7693.83 0 -2.08115e+06 15387.9 0 -2.0827e+06 23089.4 0 -2.08487e+06 30805.4 0 -2.08767e+06 38542 0 -2.09109e+06 46304.5 0 -2.09513e+06 54099.6 0 -2.0998e+06 61935.7 0 -2.1051e+06 69821.1 0 -2.11104e+06 77763.2 0 -2.11762e+06 85768.6 0 -2.12484e+06 93844.5 0 -2.13271e+06 101999 0 -2.14123e+06 110240 0 -2.15042e+06 118577 0 -2.16027e+06 127018 0 -2.1708e+06 135572 0 -2.18201e+06 144249 0 -2.19392e+06 153059 0 -2.20652e+06 162011 0 -2.21984e+06 171118 0 -2.23388e+06 180389 0 -2.24866e+06 189837 0 -2.26418e+06 199474 0 -2.28047e+06 209313 0 -2.29753e+06 219368 0 -2.31538e+06 229653 0 -2.33404e+06 240182 0 -2.35353e+06 250970 0 -2.37387e+06 262044 0 -2.39508e+06 273376 0 -2.07857e+06 0 0 -2.07885e+06 7302.01 0 -2.07967e+06 14603.9 0 -2.08103e+06 21911.8 0 -2.08293e+06 29231.8 0 -2.08537e+06 36569.3 0 -2.08837e+06 43928.4 0 -2.0919e+06 51314 0 -2.09599e+06 58732.9 0 -2.10062e+06 66192.5 0 -2.10581e+06 73699.6 0 -2.11156e+06 81259.8 0 -2.11786e+06 88878.7 0 -2.12473e+06 96562.4 0 -2.13217e+06 104318 0 -2.14019e+06 112152 0 -2.14878e+06 120072 0 -2.15796e+06 128086 0 -2.16772e+06 136202 0 -2.17809e+06 144426 0 -2.18906e+06 152767 0 -2.20063e+06 161235 0 -2.21283e+06 169837 0 -2.22566e+06 178584 0 -2.23913e+06 187485 0 -2.25324e+06 196550 0 -2.26801e+06 205790 0 -2.28345e+06 215217 0 -2.29957e+06 224842 0 -2.31639e+06 234676 0 -2.33392e+06 244741 0 -2.35218e+06 255014 0 -2.07723e+06 0 0 -2.07747e+06 6896.68 0 -2.07818e+06 13793 0 -2.07936e+06 20693.9 0 -2.08101e+06 27604.8 0 -2.08313e+06 34530.4 0 -2.08572e+06 41474 0 -2.08879e+06 48439 0 -2.09233e+06 55430.3 0 -2.09634e+06 62454.4 0 -2.10083e+06 69517.3 0 -2.10581e+06 76624.4 0 -2.11127e+06 83779.9 0 -2.11721e+06 90988.5 0 -2.12365e+06 98255.4 0 -2.13057e+06 105586 0 -2.138e+06 112987 0 -2.14593e+06 120464 0 -2.15436e+06 128024 0 -2.1633e+06 135672 0 -2.17276e+06 143415 0 -2.18274e+06 151259 0 -2.19324e+06 159213 0 -2.20428e+06 167283 0 -2.21586e+06 175476 0 -2.22799e+06 183802 0 -2.24067e+06 192267 0 -2.25392e+06 200882 0 -2.26773e+06 209655 0 -2.28213e+06 218594 0 -2.29712e+06 227716 0 -2.31272e+06 237004 0 -2.07587e+06 0 0 -2.07608e+06 6477.86 0 -2.07669e+06 12955.2 0 -2.0777e+06 19435.9 0 -2.07911e+06 25924.5 0 -2.08093e+06 32425.3 0 -2.08315e+06 38941.1 0 -2.08578e+06 45474.2 0 -2.08882e+06 52027.7 0 -2.09226e+06 58606.6 0 -2.09611e+06 65216.3 0 -2.10037e+06 71861.7 0 -2.10504e+06 78546.9 0 -2.11013e+06 85275.2 0 -2.11564e+06 92050.4 0 -2.12157e+06 98876.6 0 -2.12792e+06 105759 0 -2.13469e+06 112701 0 -2.1419e+06 119710 0 -2.14953e+06 126789 0 -2.15761e+06 133944 0 -2.16612e+06 141180 0 -2.17508e+06 148503 0 -2.18448e+06 155917 0 -2.19434e+06 163429 0 -2.20466e+06 171046 0 -2.21544e+06 178773 0 -2.2267e+06 186617 0 -2.23842e+06 194585 0 -2.25063e+06 202683 0 -2.26333e+06 210924 0 -2.27653e+06 219294 0 -2.07449e+06 0 0 -2.07467e+06 6045.6 0 -2.07519e+06 12090.5 0 -2.07604e+06 18137.8 0 -2.07724e+06 24191.1 0 -2.07878e+06 30254.2 0 -2.08066e+06 36329.7 0 -2.08288e+06 42419.2 0 -2.08546e+06 48524.6 0 -2.08837e+06 54648.8 0 -2.09163e+06 60796.4 0 -2.09523e+06 66971.8 0 -2.09919e+06 73178.9 0 -2.10349e+06 79420.8 0 -2.10815e+06 85700.1 0 -2.11316e+06 92019.6 0 -2.11852e+06 98382.6 0 -2.12424e+06 104793 0 -2.13032e+06 111254 0 -2.13677e+06 117771 0 -2.14358e+06 124347 0 -2.15075e+06 130986 0 -2.1583e+06 137693 0 -2.16622e+06 144471 0 -2.17452e+06 151325 0 -2.18319e+06 158259 0 -2.19225e+06 165279 0 -2.2017e+06 172389 0 -2.21155e+06 179594 0 -2.22178e+06 186899 0 -2.23242e+06 194314 0 -2.24347e+06 201826 0 -2.0731e+06 0 0 -2.07324e+06 5599.93 0 -2.07367e+06 11199.1 0 -2.07439e+06 16799.7 0 -2.07539e+06 22404.7 0 -2.07667e+06 28017.1 0 -2.07824e+06 33639.7 0 -2.0801e+06 39273.7 0 -2.08224e+06 44920 0 -2.08468e+06 50580.2 0 -2.0874e+06 56257 0 -2.0904e+06 61954.2 0 -2.0937e+06 67675.5 0 -2.09728e+06 73423.9 0 -2.10116e+06 79201.8 0 -2.10533e+06 85011.2 0 -2.1098e+06 90854.1 0 -2.11457e+06 96732.9 0 -2.11963e+06 102650 0 -2.12499e+06 108610 0 -2.13065e+06 114614 0 -2.13661e+06 120666 0 -2.14288e+06 126769 0 -2.14945e+06 132927 0 -2.15634e+06 139142 0 -2.16354e+06 145418 0 -2.17105e+06 151758 0 -2.17887e+06 158166 0 -2.18702e+06 164645 0 -2.19549e+06 171199 0 -2.20428e+06 177835 0 -2.21341e+06 184543 0 -2.07168e+06 0 0 -2.0718e+06 5140.87 0 -2.07216e+06 10280.9 0 -2.07274e+06 15421.8 0 -2.07356e+06 20565.5 0 -2.07461e+06 25714.5 0 -2.0759e+06 30871.2 0 -2.07742e+06 36037.3 0 -2.07918e+06 41213.2 0 -2.08118e+06 46399.3 0 -2.08341e+06 51596.9 0 -2.08587e+06 56808.3 0 -2.08857e+06 62036.4 0 -2.09151e+06 67284.2 0 -2.09468e+06 72554.3 0 -2.0981e+06 77848.4 0 -2.10175e+06 83168.2 0 -2.10565e+06 88515 0 -2.10979e+06 93890.3 0 -2.11417e+06 99296 0 -2.1188e+06 104734 0 -2.12367e+06 110208 0 -2.12879e+06 115718 0 -2.13416e+06 121269 0 -2.13977e+06 126861 0 -2.14564e+06 132498 0 -2.15176e+06 138182 0 -2.15814e+06 143915 0 -2.16477e+06 149700 0 -2.17166e+06 155539 0 -2.17881e+06 161437 0 -2.18622e+06 167387 0 -2.07025e+06 0 0 -2.07035e+06 4668.46 0 -2.07063e+06 9336.07 0 -2.0711e+06 14004 0 -2.07176e+06 18673.6 0 -2.0726e+06 23346.5 0 -2.07363e+06 28024.8 0 -2.07485e+06 32710.1 0 -2.07626e+06 37403.4 0 -2.07787e+06 42104.6 0 -2.07966e+06 46813.8 0 -2.08164e+06 51531.7 0 -2.0838e+06 56260 0 -2.08616e+06 61000.9 0 -2.08871e+06 65756.9 0 -2.09144e+06 70529.9 0 -2.09437e+06 75321.6 0 -2.09749e+06 80133.2 0 -2.1008e+06 84965.7 0 -2.10431e+06 89820 0 -2.10801e+06 94697.1 0 -2.11191e+06 99598.3 0 -2.11601e+06 104525 0 -2.1203e+06 109479 0 -2.12478e+06 114463 0 -2.12947e+06 119477 0 -2.13436e+06 124523 0 -2.13944e+06 129604 0 -2.14473e+06 134721 0 -2.15022e+06 139875 0 -2.15592e+06 145071 0 -2.16182e+06 150301 0 -2.0688e+06 0 0 -2.06887e+06 4182.73 0 -2.06909e+06 8364.64 0 -2.06946e+06 12546.5 0 -2.06998e+06 16729.1 0 -2.07064e+06 20913.3 0 -2.07144e+06 25100.7 0 -2.0724e+06 29292.7 0 -2.0735e+06 33490.7 0 -2.07475e+06 37694.8 0 -2.07614e+06 41904.9 0 -2.07769e+06 46120.8 0 -2.07939e+06 50342.6 0 -2.08123e+06 54571.2 0 -2.08322e+06 58808.1 0 -2.08536e+06 63055 0 -2.08764e+06 67313.5 0 -2.09007e+06 71585.2 0 -2.09266e+06 75871.2 0 -2.09539e+06 80172.3 0 -2.09828e+06 84489.2 0 -2.10131e+06 88822.4 0 -2.1045e+06 93172.4 0 -2.10784e+06 97540 0 -2.11134e+06 101926 0 -2.11499e+06 106331 0 -2.11879e+06 110757 0 -2.12274e+06 115204 0 -2.12685e+06 119674 0 -2.13112e+06 124168 0 -2.13554e+06 128689 0 -2.14012e+06 133231 0 -2.06733e+06 0 0 -2.06738e+06 3683.71 0 -2.06755e+06 7366.66 0 -2.06783e+06 11049.3 0 -2.06822e+06 14731.9 0 -2.06872e+06 18415.1 0 -2.06933e+06 22099.5 0 -2.07005e+06 25786 0 -2.07088e+06 29476 0 -2.07182e+06 33170.1 0 -2.07287e+06 36868.8 0 -2.07404e+06 40571.6 0 -2.07532e+06 44278.1 0 -2.07671e+06 47988.1 0 -2.07822e+06 51701.7 0 -2.07983e+06 55419.3 0 -2.08156e+06 59141.9 0 -2.08339e+06 62870.5 0 -2.08534e+06 66606.4 0 -2.0874e+06 70350.6 0 -2.08957e+06 74104.1 0 -2.09186e+06 77867.6 0 -2.09426e+06 81641.7 0 -2.09678e+06 85426.8 0 -2.09941e+06 89223.2 0 -2.10215e+06 93030.8 0 -2.10501e+06 96849.6 0 -2.10799e+06 100680 0 -2.11108e+06 104522 0 -2.11429e+06 108375 0 -2.11761e+06 112244 0 -2.12105e+06 116127 0 -2.06584e+06 0 0 -2.06588e+06 3171.43 0 -2.066e+06 6342.16 0 -2.0662e+06 9512.35 0 -2.06648e+06 12682.1 0 -2.06684e+06 15851.7 0 -2.06728e+06 19021 0 -2.0678e+06 22190.5 0 -2.0684e+06 25360.8 0 -2.06908e+06 28532.7 0 -2.06984e+06 31706.7 0 -2.07068e+06 34883.2 0 -2.0716e+06 38062.2 0 -2.0726e+06 41243.3 0 -2.07369e+06 44425.9 0 -2.07486e+06 47609.8 0 -2.07611e+06 50794.6 0 -2.07743e+06 53980.2 0 -2.07884e+06 57166.8 0 -2.08033e+06 60354.7 0 -2.0819e+06 63544.5 0 -2.08354e+06 66736.8 0 -2.08527e+06 69932.4 0 -2.08708e+06 73132.3 0 -2.08897e+06 76337.4 0 -2.09095e+06 79548.3 0 -2.093e+06 82765.6 0 -2.09514e+06 85989.2 0 -2.09736e+06 89218.8 0 -2.09967e+06 92452.6 0 -2.10206e+06 95689.2 0 -2.10453e+06 98922.7 0 -2.06433e+06 0 0 -2.06436e+06 2645.94 0 -2.06444e+06 5291.22 0 -2.06458e+06 7935.8 0 -2.06477e+06 10579.6 0 -2.06501e+06 13222.6 0 -2.06531e+06 15864.7 0 -2.06567e+06 18505.6 0 -2.06607e+06 21145.5 0 -2.06653e+06 23784.3 0 -2.06705e+06 26422.3 0 -2.06762e+06 29059.9 0 -2.06824e+06 31697.4 0 -2.06891e+06 34335 0 -2.06965e+06 36972.9 0 -2.07044e+06 39610.7 0 -2.07128e+06 42248.4 0 -2.07218e+06 44885.4 0 -2.07314e+06 47521.1 0 -2.07415e+06 50154.9 0 -2.07521e+06 52786.1 0 -2.07633e+06 55414.1 0 -2.07751e+06 58038.4 0 -2.07873e+06 60658.6 0 -2.08001e+06 63274.7 0 -2.08135e+06 65887.2 0 -2.08274e+06 68497.1 0 -2.08418e+06 71105.9 0 -2.08568e+06 73715.7 0 -2.08724e+06 76329.1 0 -2.08885e+06 78949.9 0 -2.09052e+06 81579.8 0 -2.06281e+06 0 0 -2.06282e+06 2107.21 0 -2.06288e+06 4213.83 0 -2.06296e+06 6319.62 0 -2.06308e+06 8424.37 0 -2.06323e+06 10527.8 0 -2.06341e+06 12629.9 0 -2.06363e+06 14730.2 0 -2.06388e+06 16828.7 0 -2.06417e+06 18924.9 0 -2.06449e+06 21018.4 0 -2.06484e+06 23108.9 0 -2.06523e+06 25196 0 -2.06564e+06 27279.8 0 -2.06609e+06 29360.3 0 -2.06658e+06 31437.9 0 -2.06709e+06 33513 0 -2.06765e+06 35585.9 0 -2.06823e+06 37656.9 0 -2.06886e+06 39726.2 0 -2.06951e+06 41793.5 0 -2.0702e+06 43858.3 0 -2.07093e+06 45919.7 0 -2.07169e+06 47976.2 0 -2.07249e+06 50026.1 0 -2.07332e+06 52067.3 0 -2.07418e+06 54097.6 0 -2.07507e+06 56114.1 0 -2.076e+06 58114.2 0 -2.07696e+06 60094.9 0 -2.07796e+06 62053.3 0 -2.07898e+06 63985.7 0 -2.06126e+06 0 0 -2.06127e+06 1555.5 0 -2.0613e+06 3110.34 0 -2.06134e+06 4664.09 0 -2.06141e+06 6216.28 0 -2.06149e+06 7766.43 0 -2.06159e+06 9314.02 0 -2.0617e+06 10858.6 0 -2.06184e+06 12400.1 0 -2.06199e+06 13938.4 0 -2.06216e+06 15473.5 0 -2.06235e+06 17004.7 0 -2.06255e+06 18530.8 0 -2.06278e+06 20050 0 -2.06302e+06 21560.3 0 -2.06328e+06 23060.1 0 -2.06355e+06 24548.2 0 -2.06384e+06 26024.6 0 -2.06415e+06 27490.1 0 -2.06448e+06 28946.5 0 -2.06483e+06 30395.9 0 -2.06519e+06 31841.4 0 -2.06557e+06 33285.8 0 -2.06597e+06 34731.9 0 -2.06638e+06 36182.3 0 -2.06682e+06 37639.3 0 -2.06727e+06 39104.6 0 -2.06774e+06 40579.5 0 -2.06823e+06 42065.2 0 -2.06874e+06 43562.5 0 -2.06927e+06 45073 0 -2.06982e+06 46594.4 0 </DataArray> 
</PointData> 
<Points> 
<DataArray type="Float32" NumberOfComponents="3"> 