<?xml version="1.0"?> 
<VTKFile type="StructuredGrid" version="0.1"> 
<StructuredGrid WholeExtent="0 31 0 31 0 0"> 
<Piece Extent="0 31 0 31 0 0"> 
<PointData>
<DataArray type="Float32" Name="|E|" format="ascii" NumberOfComponents="3"> 
428986 757392 0 411667 723282 0 395243 690247 0 379678 658231 0 364933 627178 0 350972 597036 0 337761 567753 0 325267 539283 0 313458 511581 0 302306 484601 0 291780 458304 0 281855 432647 0 272506 407592 0 263707 383102 0 255436 359138 0 247672 335666 0 240393 312649 0 233582 290055 0 227218 267848 0 221286 245996 0 215768 224467 0 210649 203229 0 205915 182249 0 201552 161497 0 197547 140941 0 193887 120552 0 190562 100298 0 187560 80149.3 0 184871 60075.4 0 182485 40046 0 180394 20031 0 178588 0 0 415061 760139 0 398342 725860 0 382486 692665 0 367456 660495 0 353215 629296 0 339730 599013 0 326968 569597 0 314896 541000 0 303486 513176 0 292709 486082 0 282537 459674 0 272944 433913 0 263907 408758 0 255401 384173 0 247405 360119 0 239898 336561 0 232861 313463 0 226274 290790 0 220119 268510 0 214381 246588 0 209044 224992 0 204092 203690 0 199511 182650 0 195289 161842 0 191412 141233 0 187869 120793 0 184649 100491 0 181740 80297.9 0 179134 60182.3 0 176821 40114.4 0 174793 20063.7 0 173040 0 0 401110 762691 0 384992 728257 0 369703 694914 0 355207 662603 0 341470 631268 0 328461 600855 0 316146 571315 0 304498 542600 0 293486 514663 0 283084 487461 0 273265 460951 0 264005 435092 0 255280 409845 0 247067 385171 0 239347 361032 0 232098 337394 0 225301 314219 0 218939 291474 0 212994 269125 0 207451 247137 0 202294 225479 0 197509 204118 0 193082 183023 0 189001 162161 0 185253 141502 0 181827 121015 0 178712 100669 0 175898 80434.7 0 173376 60280.7 0 171136 40177.1 0 169170 20093.6 0 167470 0 0 387138 765051 0 371619 730476 0 356896 696997 0 342933 664556 0 329700 633095 0 317165 602563 0 305299 572908 0 294073 544083 0 283459 516041 0 273432 488739 0 263967 462134 0 255039 436185 0 246627 410851 0 238708 386095 0 231262 361878 0 224271 338165 0 217716 314920 0 211579 292107 0 205844 269693 0 200496 247645 0 195520 225929 0 190902 204513 0 186630 183365 0 182690 162455 0 179071 141749 0 175762 121219 0 172753 100832 0 170034 80559.8 0 167596 60370.5 0 165429 40234.2 0 163527 20120.8 0 161881 0 0 373148 767219 0 358227 732516 0 344068 698914 0 330638 666353 0 317907 634777 0 305847 604135 0 294428 574375 0 283624 545449 0 273408 517312 0 263756 489918 0 254644 463225 0 246049 437192 0 237949 411778 0 230323 386946 0 223153 362657 0 216420 338875 0 210106 315564 0 204195 292689 0 198670 270216 0 193517 248111 0 188722 226341 0 184272 204875 0 180154 183679 0 176356 162723 0 172866 141975 0 169675 121404 0 166772 100981 0 164148 80673.2 0 161795 60451.6 0 159702 40285.7 0 157864 20145.2 0 156272 0 0 359144 769198 0 344819 734379 0 331223 700665 0 318324 667996 0 306095 636316 0 294508 605573 0 283536 575717 0 273153 546699 0 263335 518474 0 254058 490996 0 245299 464222 0 237035 438113 0 229248 412626 0 221916 387724 0 215021 363369 0 208546 339523 0 202473 316152 0 196787 293219 0 191473 270692 0 186515 248535 0 181902 226716 0 177619 205203 0 173656 183963 0 169999 162966 0 166640 142179 0 163567 121572 0 160771 101114 0 158242 80775 0 155973 60524.2 0 153956 40331.6 0 152182 20166.9 0 150644 0 0 345130 770987 0 331398 736066 0 318363 702251 0 305994 669485 0 294265 637711 0 283150 606878 0 272625 576935 0 262663 547834 0 253242 519528 0 244339 491974 0 235932 465127 0 228001 438948 0 220525 413395 0 213487 388429 0 206867 364013 0 200650 340110 0 194819 316683 0 189358 293699 0 184254 271121 0 179492 248917 0 175060 227054 0 170945 205498 0 167136 184219 0 163622 163184 0 160393 142361 0 157438 121721 0 154749 101233 0 152316 80865.2 0 150133 60588.3 0 148190 40371.9 0 146481 20185.9 0 144999 0 0 331108 772590 0 317968 737578 0 305491 703674 0 293650 670821 0 282420 638964 0 271777 608050 0 261697 578029 0 252155 548853 0 243130 520476 0 234601 492852 0 226546 465940 0 218947 439698 0 211783 414085 0 205037 389062 0 198693 364591 0 192733 340635 0 187143 317159 0 181908 294127 0 177014 271505 0 172448 249258 0 168197 227354 0 164251 205761 0 160597 184445 0 157225 163376 0 154126 142522 0 151290 121852 0 148708 101337 0 146371 80943.7 0 144273 60643.8 0 142406 40406.6 0 140763 20202.1 0 139336 0 0 317081 774006 0 304530 738915 0 292610 704934 0 281296 672005 0 270564 640074 0 260391 609089 0 250754 578999 0 241632 549757 0 233003 521316 0 224846 493632 0 217143 466661 0 209874 440363 0 203022 414696 0 196569 389621 0 190500 365102 0 184798 341100 0 179449 317579 0 174439 294505 0 169755 271842 0 165384 249558 0 161315 227618 0 157536 205990 0 154037 184642 0 150808 163543 0 147840 142661 0 145122 121966 0 142648 101426 0 140408 81010.7 0 138396 60690.8 0 136605 40435.8 0 135027 20215.5 0 133656 0 0 303054 775237 0 291089 740079 0 279724 706031 0 268934 673037 0 258697 641043 0 248993 609996 0 239799 579846 0 231095 550546 0 222861 522050 0 215076 494312 0 207724 467290 0 200786 440942 0 194245 415228 0 188084 390109 0 182289 365546 0 176844 341503 0 171736 317944 0 166951 294832 0 162477 272134 0 158302 249816 0 154414 227844 0 150804 206187 0 147460 184811 0 144373 163685 0 141535 142779 0 138937 122061 0 136570 101500 0 134427 81066.2 0 132502 60729.4 0 130786 40459.4 0 129275 20226.3 0 127961 0 0 289029 776285 0 277647 741071 0 266834 706968 0 256566 673919 0 246824 641871 0 237586 610772 0 228834 580571 0 220547 551222 0 212706 522678 0 205293 494894 0 198291 467828 0 191683 441438 0 185452 415683 0 179583 390525 0 174061 365925 0 168874 341846 0 164006 318253 0 159446 295109 0 155182 272380 0 151202 250033 0 147496 228034 0 144053 206350 0 140865 184951 0 137921 163803 0 135214 142875 0 132734 122138 0 130475 101560 0 128430 81110.2 0 126591 60759.5 0 124952 40477.6 0 123507 20234.4 0 122250 0 0 275008 777150 0 264207 741892 0 253943 707745 0 244195 674652 0 234945 642560 0 226173 611417 0 217861 581174 0 209990 551784 0 202541 523200 0 195499 495378 0 188846 468275 0 182566 441849 0 176645 416060 0 171067 390869 0 165819 366237 0 160888 342128 0 156261 318506 0 151925 295335 0 147871 272580 0 144086 250209 0 140561 228187 0 137287 206482 0 134253 185061 0 131452 163895 0 128875 142950 0 126515 122197 0 124365 101605 0 122416 81142.7 0 120664 60781.2 0 119102 40490.2 0 117724 20239.7 0 116524 0 0 260996 777835 0 250772 742544 0 241055 708363 0 231825 675235 0 223065 643109 0 214756 611932 0 206882 581656 0 199425 552233 0 192368 523617 0 185695 495764 0 179390 468631 0 173439 442176 0 167826 416359 0 162539 391141 0 157564 366484 0 152888 342351 0 148501 318705 0 144390 295511 0 140544 272735 0 136955 250344 0 133611 228303 0 130504 206580 0 127626 185144 0 124967 163962 0 122522 143004 0 120281 122238 0 118238 101635 0 116388 81163.7 0 114723 60794.5 0 113237 40497.3 0 111926 20242.4 0 110784 0 0 246995 778340 0 237345 743027 0 228171 708823 0 219457 675671 0 211184 643520 0 203338 612319 0 195900 582018 0 188856 552570 0 182188 523930 0 175883 496053 0 169926 468897 0 164301 442420 0 158997 416581 0 153999 391342 0 149296 366665 0 144876 342512 0 140728 318848 0 136841 295637 0 133204 272845 0 129809 250438 0 126646 228382 0 123707 206646 0 120984 185198 0 118468 164004 0 116153 143036 0 114032 122262 0 112098 101651 0 110345 81173.4 0 108767 60799.4 0 107359 40498.9 0 106115 20242.3 0 105032 0 0 233008 778666 0 223929 743343 0 215296 709126 0 207093 675960 0 199306 643794 0 191919 612576 0 184916 582259 0 178283 552795 0 172004 524138 0 166066 496245 0 160454 469073 0 155156 442580 0 150158 416726 0 145450 391472 0 141018 366781 0 136853 342615 0 132943 318937 0 129279 295714 0 125851 272910 0 122650 250492 0 119668 228426 0 116897 206680 0 114328 185223 0 111955 164022 0 109771 143047 0 107769 122268 0 105943 101652 0 104288 81171.8 0 102797 60796 0 101467 40495.1 0 100291 20239.7 0 99266.2 0 0 219038 778816 0 210525 743493 0 202430 709273 0 194738 676103 0 187434 643930 0 180504 612706 0 173934 582381 0 167709 552908 0 161817 524243 0 156244 496341 0 150977 469160 0 146004 442657 0 141313 416795 0 136892 391532 0 132731 366832 0 128820 342657 0 125148 318972 0 121706 295741 0 118487 272930 0 115480 250505 0 112678 228433 0 110073 206682 0 107659 185220 0 105429 164015 0 103375 143038 0 101493 122256 0 99775.5 101639 0 98218.1 81158.9 0 96815.5 60784.2 0 95562.7 40485.9 0 94455.4 20234.3 0 93488.8 0 0 205088 778791 0 197138 743478 0 189577 709265 0 182391 676100 0 175568 643931 0 169093 612709 0 162954 582384 0 157137 552911 0 151630 524245 0 146420 496341 0 141497 469157 0 136847 442653 0 132461 416787 0 128327 391521 0 124436 366818 0 120778 342640 0 117343 318952 0 114124 295718 0 111111 272905 0 108298 250477 0 105676 228404 0 103239 206652 0 100979 185189 0 98890.5 163984 0 96967.6 143007 0 95204.5 122226 0 93595.8 101612 0 92136.4 81134.7 0 90821.6 60764.3 0 89646.7 40471.3 0 88607.7 20226.3 0 87700.2 0 0 191160 778591 0 183769 743299 0 176740 709104 0 170058 675954 0 163712 643798 0 157689 612585 0 151979 582270 0 146567 552805 0 141443 524144 0 136596 496246 0 132014 469067 0 127687 442566 0 123604 416703 0 119756 391441 0 116134 366740 0 112728 342565 0 109530 318878 0 106533 295647 0 103727 272835 0 101106 250410 0 98664 228339 0 96393.1 206589 0 94287.5 185130 0 92341.2 163928 0 90548.9 142955 0 88905 122179 0 87404.8 101570 0 86043.4 81099.3 0 84816.5 60736 0 83719.7 40451.3 0 82749.3 20215.7 0 81901.2 0 0 177257 778219 0 170422 742958 0 163920 708791 0 157739 675665 0 151868 643530 0 146295 612337 0 141011 582038 0 136002 552588 0 131260 523942 0 126773 496056 0 122531 468888 0 118525 442397 0 114745 416544 0 111182 391290 0 107827 366598 0 104673 342430 0 101711 318751 0 98933.6 295526 0 96334.3 272721 0 93906.2 250303 0 91642.8 228238 0 89538 206495 0 87586.2 185042 0 85781.8 163848 0 84119.7 142883 0 82595.1 122115 0 81203.3 101515 0 79939.9 81052.7 0 78801 60699.6 0 77782.4 40425.9 0 76880.8 20202.4 0 76092.2 0 0 163382 777676 0 157099 742456 0 151121 708326 0 145437 675233 0 140038 643129 0 134913 611964 0 130052 581690 0 125445 552263 0 121082 523638 0 116953 495772 0 113050 468622 0 109363 442148 0 105884 416310 0 102605 391071 0 99516.6 366392 0 96612.6 342237 0 93885.5 318570 0 91328.3 295357 0 88934.6 272563 0 86698.3 250156 0 84613.4 228102 0 82674.3 206370 0 80875.9 184927 0 79213 163744 0 77681.1 142789 0 76275.5 122033 0 74992 101445 0 73826.7 80995.1 0 72775.8 60655 0 71835.6 40395.2 0 71002.9 20186.5 0 70274.2 0 0 149537 776963 0 143802 741794 0 138344 707711 0 133155 674661 0 128224 642596 0 123544 611467 0 119104 581227 0 114896 551831 0 110910 523234 0 107138 495394 0 103572 468269 0 100203 441818 0 97023.8 416002 0 94026.4 390783 0 91203.8 366123 0 88549.1 341986 0 86055.9 318336 0 83717.8 295140 0 81529 272362 0 79483.7 249969 0 77576.8 227930 0 75803 206213 0 74157.6 184785 0 72636 163616 0 71233.8 142676 0 69947.1 121934 0 68771.9 101360 0 67704.6 80926.4 0 66741.7 60602.3 0 65880 40359.2 0 65116.3 20168 0 64447.7 0 0 135726 776082 0 130534 740974 0 125593 706947 0 120894 673949 0 116430 641932 0 112191 610847 0 108170 580648 0 104358 551290 0 100747 522730 0 97330.3 494923 0 94099.1 467829 0 91046.3 441408 0 88165 415619 0 85448.4 390426 0 82890 365791 0 80483.6 341677 0 78223.2 318049 0 76103.3 294874 0 74118.5 272116 0 72263.7 249744 0 70534.1 227724 0 68925 206024 0 67432.2 184615 0 66051.5 163464 0 64778.9 142541 0 63610.8 121817 0 62543.8 101262 0 61574.4 80846.7 0 60699.5 60541.5 0 59916.3 40317.9 0 59221.9 20147 0 58613.5 0 0 121951 775034 0 117298 739997 0 112870 706035 0 108658 673098 0 104656 641138 0 100856 610105 0 97251 579956 0 93833 550644 0 90595.2 522126 0 87530.6 494360 0 84632.5 467304 0 81894.2 440918 0 79309.4 415163 0 76872.1 390001 0 74576.6 365396 0 72417.2 341310 0 70388.7 317710 0 68486 294560 0 66704.4 271827 0 65039.3 249479 0 63486.3 227482 0 62041.4 205805 0 60700.7 184417 0 59460.4 163288 0 58317.1 142387 0 57267.5 121684 0 56308.4 101150 0 55436.8 80756 0 54650 60472.7 0 53945.3 40271.4 0 53320.2 20123.3 0 52772.2 0 0 108214 773821 0 104096 738864 0 100177 704977 0 96448.8 672110 0 92905.9 640214 0 89541.6 609243 0 86349.4 579150 0 83322.7 549892 0 80455.4 521424 0 77741.1 493705 0 75174.1 466693 0 72748.4 440349 0 70458.5 414633 0 68299.1 389509 0 66265 364939 0 64351.4 340887 0 62553.6 317318 0 60867.1 294199 0 59287.8 271495 0 57811.5 249175 0 56434.6 227205 0 55153.2 205554 0 53964 184192 0 52863.8 163088 0 51849.4 142212 0 50917.9 121533 0 50066.6 101024 0 49292.7 80654.5 0 48593.9 60395.9 0 47967.7 40219.6 0 47412 20097.1 0 46924.6 0 0 94517.3 772444 0 90930.5 737577 0 87516.1 703774 0 84268 670985 0 81181 639163 0 78249.2 608260 0 75467.1 578232 0 72829.1 549035 0 70329.7 520624 0 67963.6 492958 0 65725.5 465997 0 63610.5 439701 0 61613.8 414031 0 59730.6 388949 0 57956.6 364420 0 56287.4 340406 0 54719.1 316875 0 53247.8 293790 0 51869.8 271120 0 50581.5 248832 0 49379.8 226893 0 48261.3 205273 0 47223.2 183940 0 46262.5 162865 0 45376.6 142016 0 44563 121366 0 43819.1 100884 0 43142.8 80542.1 0 42531.9 60311.1 0 41984.3 40162.6 0 41498.1 20068.3 0 41071.4 0 0 80864.6 770904 0 77804 736137 0 74890.4 702426 0 72118.4 669725 0 69483.6 637984 0 66981.1 607159 0 64606.2 577203 0 62354.1 548073 0 60220.1 519727 0 58199.7 492122 0 56288.5 465218 0 54482.2 438975 0 52776.8 413356 0 51168.2 388323 0 49652.7 363839 0 48226.6 339870 0 46886.6 316379 0 45629.2 293335 0 44451.5 270703 0 43350.4 248451 0 42323.1 226548 0 41366.8 204961 0 40479.1 183661 0 39657.5 162618 0 38899.7 141801 0 38203.5 121182 0 37567 100731 0 36988 80419 0 36464.9 60218.4 0 35995.8 40100.5 0 35579.1 20037 0 35213.2 0 0 67257.8 769204 0 64719 734545 0 62301.9 700936 0 60002.2 668330 0 57816.1 636679 0 55739.5 605939 0 53768.7 576063 0 51899.6 547009 0 50128.4 518733 0 48451.3 491195 0 46864.7 464354 0 45365 438172 0 43949 412609 0 42613.2 387630 0 41354.6 363198 0 40170.2 339277 0 39057.1 315833 0 38012.6 292833 0 37034.1 270243 0 36119.2 248032 0 35265.4 226167 0 34470.6 204619 0 33732.7 183356 0 33049.6 162348 0 32419.4 141566 0 31840.4 120981 0 31310.8 100563 0 30829.1 80285.2 0 30393.6 60117.9 0 30003 40033.2 0 29655.8 20003.2 0 29350.8 0 0 53699.5 767344 0 51677.9 732802 0 49753.1 699304 0 47921.6 666802 0 46180.5 635250 0 44526.5 604602 0 42956.5 574813 0 41467.4 545841 0 40056.3 517644 0 38720 490179 0 37455.6 463408 0 36260.5 437292 0 35131.9 411792 0 34067.1 386872 0 33063.8 362495 0 32119.5 338628 0 31232 315235 0 30399.1 292284 0 29618.8 269741 0 28889 247575 0 28207.9 225753 0 27573.8 204246 0 26985 183024 0 26439.8 162055 0 25936.8 141311 0 25474.5 120763 0 25051.6 100383 0 24666.8 80140.8 0 24318.8 60009.5 0 24006.6 39960.9 0 23729 19966.9 0 23484.9 0 0 40192.1 765326 0 38683.1 730911 0 37246.2 697532 0 35878.9 665143 0 34578.9 633696 0 33343.9 603149 0 32171.6 573455 0 31059.6 544572 0 30005.6 516459 0 29007.5 489075 0 28063 462380 0 27170.2 436335 0 26327 410903 0 25531.4 386048 0 24781.6 361733 0 24075.9 337924 0 23412.6 314587 0 22789.9 291689 0 22206.5 269197 0 21660.9 247080 0 21151.6 225305 0 20677.4 203844 0 20236.9 182665 0 19829 161739 0 19452.7 141037 0 19106.7 120529 0 18790.1 100188 0 18501.9 79985.8 0 18241.3 59893.4 0 18007.3 39883.4 0 17799.2 19928.1 0 17616.2 0 0 26738.1 763152 0 25736.9 728872 0 24783.6 695621 0 23876.3 663352 0 23013.6 632020 0 22194 601580 0 21415.9 571989 0 20677.8 543203 0 19978.2 515181 0 19315.5 487883 0 18688.5 461270 0 18095.6 435303 0 17535.7 409945 0 17007.3 385159 0 16509.4 360911 0 16040.6 337166 0 15599.9 313889 0 15186.2 291049 0 14798.6 268612 0 14436 246547 0 14097.5 224824 0 13782.2 203411 0 13489.4 182280 0 13218.2 161400 0 12967.9 140742 0 12737.7 120279 0 12527.1 99980.8 0 12335.3 79820.3 0 12161.8 59769.6 0 12006 39800.9 0 11867.3 19886.9 0 11745.3 0 0 13340 760823 0 12841.8 726687 0 12367.4 693572 0 11915.9 661432 0 11486.6 630222 0 11078.7 599898 0 10691.4 570416 0 10324 541733 0 9975.7 513809 0 9645.81 486604 0 9333.61 460079 0 9038.41 434195 0 8759.55 408916 0 8496.41 384206 0 8248.37 360030 0 8014.86 336352 0 7795.31 313141 0 7589.21 290363 0 7396.04 267985 0 7215.32 245978 0 7046.61 224309 0 6889.45 202949 0 6743.45 181869 0 6608.21 161038 0 6483.37 140429 0 6368.56 120012 0 6263.45 99759.9 0 6167.74 79644.4 0 6081.11 59638.1 0 6003.29 39713.4 0 5934.01 19843.1 0 5873 0 0 0 758341 0 0 724357 0 0 691387 0 0 659384 0 0 628304 0 0 598103 0 0 568737 0 0 540164 0 0 512345 0 0 485239 0 0 458808 0 0 433013 0 0 407819 0 0 383190 0 0 359090 0 0 335485 0 0 312343 0 0 289632 0 0 267318 0 0 245371 0 0 223761 0 0 202458 0 0 181432 0 0 160654 0 0 140096 0 0 119729 0 0 99525.7 0 0 79458.2 0 0 59499 0 0 39621 0 0 19797 0 0 0 0 </DataArray> 
</PointData> 
<Points> 
<DataArray type="Float32" NumberOfComponents="3"> 