<?xml version="1.0"?> 
<VTKFile type="StructuredGrid" version="0.1"> 
<StructuredGrid WholeExtent="0 31 0 31 0 0"> 
<Piece Extent="0 31 0 31 0 0"> 
<PointData>
<DataArray type="Float32" Name="|E|" format="ascii" NumberOfComponents="3"> 
-2.12609e+06 0 0 -2.12764e+06 0.000458479 0 -2.13221e+06 0.000922398 0 -2.13982e+06 0.00139721 0 -2.15048e+06 0.00188804 0 -2.16426e+06 0.00239955 0 -2.18118e+06 0.0029358 0 -2.20133e+06 0.00349979 0 -2.22477e+06 0.0040927 0 -2.2516e+06 0.004712 0 -2.28193e+06 0.0053499 0 -2.31587e+06 0.00599013 0 -2.35357e+06 0.00660202 0 -2.39517e+06 0.00713371 0 -2.44083e+06 0.00750093 0 -2.49075e+06 0.00756872 0 -2.54509e+06 0.00712861 0 -2.60403e+06 0.00586291 0 -2.66773e+06 0.00329886 0 -2.7363e+06 -0.00124604 0 -2.80976e+06 -0.00872391 0 -2.88799e+06 -0.0203845 0 -2.97065e+06 -0.0377106 0 -3.05703e+06 -0.0621471 0 -3.14596e+06 -0.0944188 0 -3.23557e+06 -0.133216 0 -3.32313e+06 -0.173316 0 -3.40499e+06 -0.204122 0 -3.47661e+06 -0.210789 0 -3.53299e+06 -0.179371 0 -3.56935e+06 -0.104895 0 -3.58218e+06 -4.76837e-07 0 -2.12606e+06 0 0 -2.12762e+06 402.209 0 -2.13218e+06 805.894 0 -2.13979e+06 1212.55 0 -2.15046e+06 1623.7 0 -2.16423e+06 2040.92 0 -2.18115e+06 2465.87 0 -2.2013e+06 2900.26 0 -2.22474e+06 3345.91 0 -2.25157e+06 3804.73 0 -2.2819e+06 4278.7 0 -2.31584e+06 4769.87 0 -2.35353e+06 5280.3 0 -2.39513e+06 5811.93 0 -2.4408e+06 6366.45 0 -2.49071e+06 6945 0 -2.54505e+06 7547.76 0 -2.60399e+06 8173.23 0 -2.66769e+06 8817.21 0 -2.73625e+06 9471.28 0 -2.80971e+06 10120.6 0 -2.88795e+06 10740.8 0 -2.97061e+06 11294 0 -3.05701e+06 11724.1 0 -3.14596e+06 11952.5 0 -3.23558e+06 11875.5 0 -3.32318e+06 11369.9 0 -3.40508e+06 10309.3 0 -3.47675e+06 8598.44 0 -3.53317e+06 6219.43 0 -3.56957e+06 3274.52 0 -3.5824e+06 -1.86265e-08 0 -2.12598e+06 0 0 -2.12753e+06 804.391 0 -2.1321e+06 1611.73 0 -2.13971e+06 2425.01 0 -2.15037e+06 3247.28 0 -2.16414e+06 4081.71 0 -2.18107e+06 4931.57 0 -2.20121e+06 5800.32 0 -2.22465e+06 6691.59 0 -2.25148e+06 7609.19 0 -2.2818e+06 8557.09 0 -2.31574e+06 9539.4 0 -2.35343e+06 10560.2 0 -2.39502e+06 11623.4 0 -2.44068e+06 12732.5 0 -2.49059e+06 13889.6 0 -2.54492e+06 15095.1 0 -2.60386e+06 16346.1 0 -2.66756e+06 17634.2 0 -2.73612e+06 18942.6 0 -2.80959e+06 20241.7 0 -2.88783e+06 21482.8 0 -2.97051e+06 22590.2 0 -3.05694e+06 23451.9 0 -3.14594e+06 23910.4 0 -3.23564e+06 23758.8 0 -3.32333e+06 22749.9 0 -3.40536e+06 20630.4 0 -3.47716e+06 17209.1 0 -3.53371e+06 12449.3 0 -3.5702e+06 6555.14 0 -3.58307e+06 5.21541e-08 0 -2.12585e+06 0 0 -2.1274e+06 1206.52 0 -2.13197e+06 2417.47 0 -2.13957e+06 3637.32 0 -2.15024e+06 4870.65 0 -2.164e+06 6122.21 0 -2.18092e+06 7396.93 0 -2.20106e+06 8699.97 0 -2.2245e+06 10036.8 0 -2.25132e+06 11413.1 0 -2.28164e+06 12834.9 0 -2.31557e+06 14308.2 0 -2.35325e+06 15839.4 0 -2.39484e+06 17434.1 0 -2.44049e+06 19097.6 0 -2.49039e+06 20833.3 0 -2.54472e+06 22641.6 0 -2.60365e+06 24518.3 0 -2.66734e+06 26450.8 0 -2.73591e+06 28414.1 0 -2.80937e+06 30363.8 0 -2.88763e+06 32227.1 0 -2.97034e+06 33890.7 0 -3.05683e+06 35186.8 0 -3.1459e+06 35879.3 0 -3.23573e+06 35657.5 0 -3.32359e+06 34150 0 -3.40581e+06 30975.3 0 -3.47785e+06 25844.4 0 -3.53461e+06 18700 0 -3.57126e+06 9847.99 0 -3.5842e+06 -2.68221e-07 0 -2.12566e+06 0 0 -2.12721e+06 1608.57 0 -2.13178e+06 3223.04 0 -2.13938e+06 4849.38 0 -2.15004e+06 6493.69 0 -2.16381e+06 8162.3 0 -2.18072e+06 9861.78 0 -2.20086e+06 11599 0 -2.22429e+06 13381.3 0 -2.2511e+06 15216.2 0 -2.28141e+06 17111.7 0 -2.31534e+06 19076 0 -2.35301e+06 21117.4 0 -2.39459e+06 23243.6 0 -2.44023e+06 25461.4 0 -2.49012e+06 27775.6 0 -2.54443e+06 30186.9 0 -2.60335e+06 32689.5 0 -2.66704e+06 35266.9 0 -2.7356e+06 37885.8 0 -2.80907e+06 40487.4 0 -2.88735e+06 42974.9 0 -2.97011e+06 45197.8 0 -3.05666e+06 46932.5 0 -3.14586e+06 47864.5 0 -3.23585e+06 47579.2 0 -3.32394e+06 45580 0 -3.40645e+06 41355.6 0 -3.47881e+06 34516.2 0 -3.53587e+06 24982 0 -3.57275e+06 13159.1 0 -3.58577e+06 5.81145e-07 0 -2.12542e+06 0 0 -2.12697e+06 2010.51 0 -2.13154e+06 4028.4 0 -2.13914e+06 6061.12 0 -2.14979e+06 8116.3 0 -2.16355e+06 10201.8 0 -2.18047e+06 12326 0 -2.20059e+06 14497.3 0 -2.22402e+06 16724.8 0 -2.25082e+06 19018.2 0 -2.28112e+06 21387.3 0 -2.31504e+06 23842.5 0 -2.3527e+06 26393.9 0 -2.39426e+06 29051.4 0 -2.43989e+06 31823.6 0 -2.48976e+06 34716.3 0 -2.54406e+06 37730.6 0 -2.60297e+06 40859.3 0 -2.66665e+06 44082.2 0 -2.73521e+06 47357.8 0 -2.80869e+06 50612.9 0 -2.887e+06 53727.3 0 -2.9698e+06 56513.3 0 -3.05645e+06 58692.3 0 -3.1458e+06 59871.2 0 -3.23601e+06 59531.5 0 -3.32439e+06 57050 0 -3.40728e+06 51783 0 -3.48004e+06 43236.9 0 -3.5375e+06 31305.6 0 -3.57467e+06 16494.7 0 -3.5878e+06 -6.70552e-07 0 -2.12513e+06 0 0 -2.12668e+06 2412.33 0 -2.13124e+06 4833.5 0 -2.13884e+06 7272.46 0 -2.14949e+06 9738.37 0 -2.16325e+06 12240.7 0 -2.18015e+06 14789.3 0 -2.20027e+06 17394.5 0 -2.22369e+06 20067.2 0 -2.25048e+06 22818.9 0 -2.28077e+06 25661.4 0 -2.31467e+06 28607.2 0 -2.35232e+06 31668.5 0 -2.39386e+06 34857.1 0 -2.43947e+06 38183.5 0 -2.48933e+06 41654.7 0 -2.54361e+06 45272.1 0 -2.6025e+06 49027.4 0 -2.66617e+06 52896.4 0 -2.73473e+06 56830 0 -2.80822e+06 60740.9 0 -2.88656e+06 64485.5 0 -2.96943e+06 67839.6 0 -3.0562e+06 70469.7 0 -3.14572e+06 71904.9 0 -3.2362e+06 71521.9 0 -3.32494e+06 68569.8 0 -3.40828e+06 62269.4 0 -3.48155e+06 52018.8 0 -3.53949e+06 37681.7 0 -3.57702e+06 19861.1 0 -3.59029e+06 6.10948e-07 0 -2.12478e+06 0 0 -2.12633e+06 2813.98 0 -2.13089e+06 5638.28 0 -2.13848e+06 8483.33 0 -2.14913e+06 11359.8 0 -2.16288e+06 14278.7 0 -2.17978e+06 17251.6 0 -2.19989e+06 20290.6 0 -2.22329e+06 23408.2 0 -2.25008e+06 26617.9 0 -2.28035e+06 29933.7 0 -2.31424e+06 33369.8 0 -2.35187e+06 36940.8 0 -2.39339e+06 40660.4 0 -2.43898e+06 44540.9 0 -2.48882e+06 48590.5 0 -2.54308e+06 52811.2 0 -2.60195e+06 57193.5 0 -2.6656e+06 61709.5 0 -2.73416e+06 66302.6 0 -2.80766e+06 70871.7 0 -2.88604e+06 75250.4 0 -2.96899e+06 79178.5 0 -3.05589e+06 82268.2 0 -3.14563e+06 83970.7 0 -3.23641e+06 83558.1 0 -3.32559e+06 80149.5 0 -3.40946e+06 72826.9 0 -3.48333e+06 60874.7 0 -3.54185e+06 44121.2 0 -3.57981e+06 23264.8 0 -3.59324e+06 -3.8743e-07 0 -2.12438e+06 0 0 -2.12592e+06 3215.46 0 -2.13048e+06 6442.69 0 -2.13807e+06 9693.63 0 -2.14872e+06 12980.5 0 -2.16246e+06 16315.8 0 -2.17935e+06 19712.8 0 -2.19945e+06 23185.2 0 -2.22284e+06 26747.5 0 -2.24961e+06 30415.1 0 -2.27987e+06 34203.8 0 -2.31374e+06 38130 0 -2.35134e+06 42210.5 0 -2.39285e+06 46460.9 0 -2.43842e+06 50895.2 0 -2.48823e+06 55523.3 0 -2.54247e+06 60347.4 0 -2.60132e+06 65357.1 0 -2.66495e+06 70521.1 0 -2.7335e+06 75775.4 0 -2.80702e+06 81005.7 0 -2.88544e+06 86023.2 0 -2.96848e+06 90532.1 0 -3.05553e+06 94091.1 0 -3.14551e+06 96074 0 -3.23666e+06 95647.4 0 -3.32633e+06 91799.1 0 -3.41082e+06 83467.7 0 -3.48539e+06 69817.4 0 -3.54458e+06 50635.2 0 -3.58304e+06 26712.5 0 -3.59667e+06 2.08616e-07 0 -2.12392e+06 0 0 -2.12547e+06 3616.72 0 -2.13003e+06 7246.69 0 -2.13761e+06 10903.3 0 -2.14825e+06 14600.3 0 -2.16198e+06 18351.8 0 -2.17886e+06 22172.6 0 -2.19895e+06 26078.2 0 -2.22233e+06 30085 0 -2.24909e+06 34210.1 0 -2.27932e+06 38471.4 0 -2.31317e+06 42887.5 0 -2.35075e+06 47477.1 0 -2.39223e+06 52258 0 -2.43778e+06 57246.1 0 -2.48756e+06 62452.6 0 -2.54177e+06 67880.3 0 -2.60059e+06 73518 0 -2.66421e+06 79331.1 0 -2.73275e+06 85248.6 0 -2.80629e+06 91143.4 0 -2.88475e+06 96804.8 0 -2.96789e+06 101902 0 -3.05512e+06 105942 0 -3.14538e+06 108220 0 -3.23693e+06 107798 0 -3.32717e+06 103529 0 -3.41236e+06 94204 0 -3.48772e+06 78860 0 -3.54768e+06 57235.3 0 -3.58672e+06 30211.2 0 -3.60057e+06 -3.27826e-07 0 -2.12341e+06 0 0 -2.12496e+06 4017.75 0 -2.12951e+06 8050.2 0 -2.13709e+06 12112.2 0 -2.14773e+06 16219.1 0 -2.16145e+06 20386.5 0 -2.17832e+06 24630.9 0 -2.1984e+06 28969.5 0 -2.22176e+06 33420.4 0 -2.2485e+06 38002.7 0 -2.27871e+06 42736.3 0 -2.31254e+06 47642 0 -2.3501e+06 52740.3 0 -2.39155e+06 58051.5 0 -2.43706e+06 63593.1 0 -2.48681e+06 69377.9 0 -2.54099e+06 75409.4 0 -2.59979e+06 81675.6 0 -2.66338e+06 88139.1 0 -2.73192e+06 94722.1 0 -2.80547e+06 101285 0 -2.88399e+06 107596 0 -2.96723e+06 113291 0 -3.05465e+06 117823 0 -3.14522e+06 120413 0 -3.23723e+06 120016 0 -3.32809e+06 115349 0 -3.41408e+06 105048 0 -3.49033e+06 88016.1 0 -3.55116e+06 63933.6 0 -3.59085e+06 33768.1 0 -3.60495e+06 3.57628e-07 0 -2.12285e+06 0 0 -2.1244e+06 4418.51 0 -2.12895e+06 8853.2 0 -2.13652e+06 13320.4 0 -2.14715e+06 17836.9 0 -2.16086e+06 22419.9 0 -2.17772e+06 27087.5 0 -2.19778e+06 31858.7 0 -2.22113e+06 36753.4 0 -2.24784e+06 41792.6 0 -2.27804e+06 46998.2 0 -2.31184e+06 52392.9 0 -2.34937e+06 57999.8 0 -2.39079e+06 63840.9 0 -2.43627e+06 69935.8 0 -2.48598e+06 76298.8 0 -2.54013e+06 82934.3 0 -2.5989e+06 89829.7 0 -2.66247e+06 96944.9 0 -2.73099e+06 104196 0 -2.80456e+06 111431 0 -2.88314e+06 118398 0 -2.9665e+06 124700 0 -3.05413e+06 129739 0 -3.14503e+06 132660 0 -3.23754e+06 132310 0 -3.3291e+06 127269 0 -3.41597e+06 116014 0 -3.49322e+06 97299.5 0 -3.55502e+06 70742.3 0 -3.59545e+06 37390.9 0 -3.60983e+06 8.9407e-08 0 -2.12224e+06 0 0 -2.12378e+06 4818.99 0 -2.12833e+06 9655.61 0 -2.1359e+06 14527.7 0 -2.14651e+06 19453.4 0 -2.16022e+06 24451.8 0 -2.17706e+06 29542.3 0 -2.19711e+06 34745.8 0 -2.22044e+06 40083.9 0 -2.24713e+06 45579.5 0 -2.2773e+06 51256.7 0 -2.31107e+06 57140.2 0 -2.34857e+06 63255.1 0 -2.38996e+06 69625.7 0 -2.4354e+06 76273.7 0 -2.48508e+06 83214.8 0 -2.53918e+06 90454.5 0 -2.59792e+06 97979.8 0 -2.66146e+06 105748 0 -2.72998e+06 113670 0 -2.80356e+06 121581 0 -2.8822e+06 129212 0 -2.96569e+06 136131 0 -3.05355e+06 141692 0 -3.14481e+06 144963 0 -3.23788e+06 144687 0 -3.33019e+06 139301 0 -3.41803e+06 127113 0 -3.49639e+06 106724 0 -3.55926e+06 77674.4 0 -3.60051e+06 41087.5 0 -3.61521e+06 -5.96046e-08 0 -2.12157e+06 0 0 -2.12311e+06 5219.16 0 -2.12765e+06 10457.4 0 -2.13522e+06 15734 0 -2.14583e+06 21068.7 0 -2.15952e+06 26482 0 -2.17635e+06 31995.1 0 -2.19638e+06 37630.5 0 -2.21968e+06 43411.6 0 -2.24636e+06 49363.2 0 -2.2765e+06 55511.5 0 -2.31024e+06 61883.3 0 -2.3477e+06 68505.8 0 -2.38905e+06 75405.6 0 -2.43445e+06 82606.3 0 -2.48409e+06 90125.5 0 -2.53816e+06 97969.6 0 -2.59685e+06 106126 0 -2.66037e+06 114549 0 -2.72887e+06 123143 0 -2.80247e+06 131737 0 -2.88117e+06 140038 0 -2.9648e+06 147586 0 -3.0529e+06 153685 0 -3.14457e+06 157330 0 -3.23822e+06 157155 0 -3.33136e+06 151453 0 -3.42026e+06 138359 0 -3.49983e+06 116306 0 -3.5639e+06 84743.3 0 -3.60605e+06 44866.6 0 -3.62111e+06 -1.19209e-07 0 -2.12084e+06 0 0 -2.12239e+06 5618.99 0 -2.12693e+06 11258.5 0 -2.13448e+06 16939.3 0 -2.14508e+06 22682.6 0 -2.15876e+06 28510.5 0 -2.17558e+06 34445.7 0 -2.19559e+06 40512.5 0 -2.21887e+06 46736.2 0 -2.24552e+06 53143.4 0 -2.27563e+06 59762.3 0 -2.30934e+06 66621.9 0 -2.34677e+06 73751.6 0 -2.38808e+06 81180.2 0 -2.43344e+06 88933.3 0 -2.48303e+06 97030.4 0 -2.53705e+06 105479 0 -2.5957e+06 114266 0 -2.65919e+06 123346 0 -2.72768e+06 132617 0 -2.80129e+06 141897 0 -2.88006e+06 150876 0 -2.96384e+06 159066 0 -3.0522e+06 165721 0 -3.14428e+06 169764 0 -3.23857e+06 169721 0 -3.33261e+06 163738 0 -3.42266e+06 149766 0 -3.50355e+06 126058 0 -3.56892e+06 91963.2 0 -3.61208e+06 48736.9 0 -3.62754e+06 1.19209e-07 0 -2.12007e+06 0 0 -2.12161e+06 6018.46 0 -2.12615e+06 12058.9 0 -2.1337e+06 18143.5 0 -2.14428e+06 24295 0 -2.15795e+06 30537 0 -2.17475e+06 36894 0 -2.19474e+06 43391.8 0 -2.218e+06 50057.6 0 -2.24462e+06 56919.9 0 -2.2747e+06 64008.9 0 -2.30837e+06 71355.8 0 -2.34576e+06 78992.1 0 -2.38703e+06 86949 0 -2.43234e+06 95254.1 0 -2.48189e+06 103929 0 -2.53586e+06 112983 0 -2.59447e+06 122402 0 -2.65792e+06 132140 0 -2.72639e+06 142090 0 -2.80002e+06 152062 0 -2.87886e+06 161729 0 -2.96279e+06 170573 0 -3.05142e+06 177803 0 -3.14396e+06 182269 0 -3.23893e+06 182392 0 -3.33392e+06 176164 0 -3.42522e+06 161347 0 -3.50756e+06 135999 0 -3.57435e+06 99348.9 0 -3.61862e+06 52708.3 0 -3.63451e+06 -1.19209e-07 0 -2.11924e+06 0 0 -2.12078e+06 6417.53 0 -2.12531e+06 12858.5 0 -2.13285e+06 19346.5 0 -2.14343e+06 25905.8 0 -2.15708e+06 32561.5 0 -2.17386e+06 39339.8 0 -2.19383e+06 46268.1 0 -2.21707e+06 53375.5 0 -2.24366e+06 60692.4 0 -2.27371e+06 68250.9 0 -2.30734e+06 76084.5 0 -2.34469e+06 84226.9 0 -2.38591e+06 92711.5 0 -2.43117e+06 101568 0 -2.48066e+06 110821 0 -2.53459e+06 120479 0 -2.59315e+06 130532 0 -2.65656e+06 140929 0 -2.72501e+06 151563 0 -2.79866e+06 162232 0 -2.87757e+06 172596 0 -2.96165e+06 182108 0 -3.05058e+06 189933 0 -3.14359e+06 194852 0 -3.23928e+06 195176 0 -3.3353e+06 188744 0 -3.42794e+06 173117 0 -3.51183e+06 146143 0 -3.58019e+06 106916 0 -3.62566e+06 56791 0 -3.64204e+06 -5.96046e-08 0 -2.11836e+06 0 0 -2.1199e+06 6816.19 0 -2.12442e+06 13657.2 0 -2.13196e+06 20548.2 0 -2.14252e+06 27514.9 0 -2.15616e+06 34583.9 0 -2.17292e+06 41782.9 0 -2.19287e+06 49141.3 0 -2.21608e+06 56689.6 0 -2.24264e+06 64460.5 0 -2.27265e+06 72488 0 -2.30624e+06 80807.7 0 -2.34355e+06 89455.7 0 -2.38472e+06 98467.5 0 -2.42993e+06 107876 0 -2.47936e+06 117705 0 -2.53323e+06 127969 0 -2.59174e+06 138656 0 -2.65511e+06 149715 0 -2.72354e+06 161035 0 -2.7972e+06 172408 0 -2.87618e+06 183477 0 -2.96043e+06 193672 0 -3.04966e+06 202114 0 -3.14317e+06 207515 0 -3.23963e+06 208078 0 -3.33674e+06 201487 0 -3.43081e+06 185090 0 -3.51639e+06 156508 0 -3.58643e+06 114681 0 -3.63323e+06 60996.2 0 -3.65014e+06 1.19209e-07 0 -2.11743e+06 0 0 -2.11896e+06 7214.41 0 -2.12348e+06 14455.1 0 -2.13101e+06 21748.6 0 -2.14156e+06 29122.1 0 -2.15518e+06 36603.9 0 -2.17193e+06 44223.2 0 -2.19185e+06 52011 0 -2.21503e+06 59999.9 0 -2.24155e+06 68224.1 0 -2.27153e+06 76719.9 0 -2.30508e+06 85525.1 0 -2.34234e+06 94677.9 0 -2.38346e+06 104216 0 -2.42861e+06 114175 0 -2.47799e+06 124582 0 -2.53179e+06 135451 0 -2.59025e+06 146773 0 -2.65357e+06 158496 0 -2.72198e+06 170506 0 -2.79565e+06 182588 0 -2.8747e+06 194374 0 -2.95912e+06 205267 0 -3.04866e+06 214349 0 -3.1427e+06 220263 0 -3.23997e+06 221108 0 -3.33824e+06 214404 0 -3.43384e+06 197282 0 -3.52123e+06 167112 0 -3.5931e+06 122661 0 -3.64134e+06 65335.9 0 -3.65885e+06 -5.96046e-08 0 -2.11644e+06 0 0 -2.11797e+06 7612.16 0 -2.12249e+06 15252 0 -2.13e+06 22947.6 0 -2.14054e+06 30727.5 0 -2.15415e+06 38621.5 0 -2.17087e+06 46660.6 0 -2.19077e+06 54877.2 0 -2.21392e+06 63305.9 0 -2.24041e+06 71982.9 0 -2.27035e+06 80946.4 0 -2.30385e+06 90236.3 0 -2.34106e+06 99893.3 0 -2.38212e+06 109958 0 -2.42721e+06 120467 0 -2.47653e+06 131451 0 -2.53027e+06 142926 0 -2.58866e+06 154882 0 -2.65194e+06 167271 0 -2.72032e+06 179975 0 -2.794e+06 192774 0 -2.87313e+06 205286 0 -2.95772e+06 216893 0 -3.04759e+06 226639 0 -3.14217e+06 233100 0 -3.24028e+06 234270 0 -3.33978e+06 227507 0 -3.43701e+06 209707 0 -3.52635e+06 177973 0 -3.60019e+06 130875 0 -3.65001e+06 69823.1 0 -3.66817e+06 -1.78814e-07 0 -2.1154e+06 0 0 -2.11693e+06 8009.43 0 -2.12144e+06 16048 0 -2.12894e+06 24145 0 -2.13947e+06 32330.8 0 -2.15306e+06 40636.5 0 -2.16976e+06 49094.7 0 -2.18963e+06 57739.7 0 -2.21275e+06 66607.6 0 -2.2392e+06 75736.6 0 -2.2691e+06 85167 0 -2.30256e+06 94940.9 0 -2.33971e+06 105102 0 -2.38071e+06 115691 0 -2.42574e+06 126750 0 -2.47499e+06 138311 0 -2.52867e+06 150391 0 -2.587e+06 162984 0 -2.65022e+06 176041 0 -2.71856e+06 189443 0 -2.79226e+06 202964 0 -2.87146e+06 216213 0 -2.95623e+06 228552 0 -3.04643e+06 238986 0 -3.14157e+06 246030 0 -3.24057e+06 247573 0 -3.34136e+06 240805 0 -3.44032e+06 222382 0 -3.53174e+06 189112 0 -3.60771e+06 139341 0 -3.65924e+06 74472.2 0 -3.67814e+06 5.96046e-08 0 -2.1143e+06 0 0 -2.11583e+06 8406.17 0 -2.12034e+06 16842.9 0 -2.12783e+06 25340.9 0 -2.13835e+06 33932 0 -2.15192e+06 42648.8 0 -2.16859e+06 51525.6 0 -2.18843e+06 60598.2 0 -2.21152e+06 69904.6 0 -2.23794e+06 79484.9 0 -2.26779e+06 89381.6 0 -2.30119e+06 99638.8 0 -2.33829e+06 110302 0 -2.37924e+06 121417 0 -2.4242e+06 133025 0 -2.47338e+06 145162 0 -2.52698e+06 157848 0 -2.58524e+06 171078 0 -2.6484e+06 184804 0 -2.71672e+06 198908 0 -2.79041e+06 213158 0 -2.86968e+06 227156 0 -2.95463e+06 240244 0 -3.04518e+06 251393 0 -3.14091e+06 259057 0 -3.24083e+06 261023 0 -3.34296e+06 254311 0 -3.44376e+06 235323 0 -3.53741e+06 200548 0 -3.61567e+06 148082 0 -3.66907e+06 79299 0 -3.68877e+06 1.19209e-07 0 -2.11316e+06 0 0 -2.11469e+06 8802.38 0 -2.11918e+06 17636.7 0 -2.12667e+06 26535.2 0 -2.13717e+06 35531 0 -2.15072e+06 44658.3 0 -2.16737e+06 53952.9 0 -2.18718e+06 63452.5 0 -2.21023e+06 73196.7 0 -2.23661e+06 83227.6 0 -2.26641e+06 93589.7 0 -2.29977e+06 104329 0 -2.33681e+06 115495 0 -2.37769e+06 127133 0 -2.42258e+06 139290 0 -2.47168e+06 152002 0 -2.52521e+06 165294 0 -2.5834e+06 179163 0 -2.6465e+06 193561 0 -2.71477e+06 208370 0 -2.78847e+06 223357 0 -2.86781e+06 238115 0 -2.95294e+06 251969 0 -3.04384e+06 263860 0 -3.14017e+06 272184 0 -3.24104e+06 274625 0 -3.3446e+06 268034 0 -3.44733e+06 248546 0 -3.54335e+06 212304 0 -3.62408e+06 157118 0 -3.67951e+06 84320.8 0 -3.70011e+06 0 0 -2.11196e+06 0 0 -2.11348e+06 9198.02 0 -2.11798e+06 18429.4 0 -2.12545e+06 27727.7 0 -2.13593e+06 37127.6 0 -2.14946e+06 46664.8 0 -2.16609e+06 56376.7 0 -2.18587e+06 66302.5 0 -2.20889e+06 76483.8 0 -2.23522e+06 86964.5 0 -2.26498e+06 97791.1 0 -2.29828e+06 109012 0 -2.33525e+06 120679 0 -2.37606e+06 132840 0 -2.42088e+06 145545 0 -2.46991e+06 158833 0 -2.52336e+06 172731 0 -2.58147e+06 187238 0 -2.6445e+06 202310 0 -2.71273e+06 217828 0 -2.78643e+06 233559 0 -2.86583e+06 249089 0 -2.95115e+06 263729 0 -3.0424e+06 276390 0 -3.13935e+06 285414 0 -3.24121e+06 288387 0 -3.34624e+06 281987 0 -3.45102e+06 262069 0 -3.54957e+06 224401 0 -3.63295e+06 166473 0 -3.69057e+06 89556.9 0 -3.71219e+06 1.19209e-07 0 -2.11071e+06 0 0 -2.11223e+06 9593.07 0 -2.11671e+06 19220.9 0 -2.12418e+06 28918.4 0 -2.13464e+06 38721.8 0 -2.14815e+06 48668.2 0 -2.16475e+06 58796.6 0 -2.1845e+06 69148 0 -2.20748e+06 79765.5 0 -2.23377e+06 90695.2 0 -2.26348e+06 101986 0 -2.29672e+06 113688 0 -2.33363e+06 125854 0 -2.37437e+06 138538 0 -2.41911e+06 151789 0 -2.46806e+06 165652 0 -2.52142e+06 180156 0 -2.57945e+06 195303 0 -2.64242e+06 211051 0 -2.71059e+06 227283 0 -2.78428e+06 243765 0 -2.86375e+06 260078 0 -2.94924e+06 275523 0 -3.04086e+06 288983 0 -3.13844e+06 298750 0 -3.24132e+06 302313 0 -3.34788e+06 296178 0 -3.45481e+06 275909 0 -3.55607e+06 236863 0 -3.64228e+06 176171 0 -3.70228e+06 95028.8 0 -3.72505e+06 -5.96046e-08 0 -2.1094e+06 0 0 -2.11092e+06 9987.5 0 -2.1154e+06 20011.1 0 -2.12285e+06 30107.3 0 -2.1333e+06 40313.4 0 -2.14679e+06 50668.4 0 -2.16336e+06 61212.6 0 -2.18308e+06 71988.7 0 -2.20601e+06 83041.8 0 -2.23226e+06 94419.5 0 -2.26191e+06 106173 0 -2.2951e+06 118355 0 -2.33194e+06 131020 0 -2.37261e+06 144225 0 -2.41727e+06 158023 0 -2.46613e+06 172461 0 -2.5194e+06 187570 0 -2.57735e+06 203357 0 -2.64023e+06 219783 0 -2.70836e+06 236733 0 -2.78203e+06 253973 0 -2.86156e+06 271082 0 -2.94723e+06 287351 0 -3.03921e+06 301640 0 -3.13743e+06 312194 0 -3.24136e+06 316410 0 -3.34952e+06 310620 0 -3.4587e+06 290084 0 -3.56283e+06 249717 0 -3.65209e+06 186238 0 -3.71466e+06 100761 0 -3.73873e+06 5.96046e-08 0 -2.10805e+06 0 0 -2.10956e+06 10381.3 0 -2.11403e+06 20800.1 0 -2.12147e+06 31294.2 0 -2.1319e+06 41902.5 0 -2.14537e+06 52665.2 0 -2.16191e+06 63624.5 0 -2.18159e+06 74824.6 0 -2.20449e+06 86312.2 0 -2.23069e+06 98137.2 0 -2.26029e+06 110352 0 -2.29341e+06 123013 0 -2.33018e+06 136177 0 -2.37077e+06 149902 0 -2.41535e+06 164246 0 -2.46412e+06 179257 0 -2.5173e+06 194972 0 -2.57516e+06 211400 0 -2.63796e+06 228506 0 -2.70602e+06 246178 0 -2.77968e+06 264183 0 -2.85927e+06 282100 0 -2.94511e+06 299213 0 -3.03745e+06 314363 0 -3.13633e+06 325750 0 -3.24132e+06 330683 0 -3.35114e+06 325323 0 -3.46268e+06 304613 0 -3.56985e+06 262988 0 -3.66238e+06 196701 0 -3.72772e+06 106780 0 -3.7533e+06 -1.19209e-07 0 -2.10664e+06 0 0 -2.10815e+06 10774.4 0 -2.11261e+06 21587.7 0 -2.12004e+06 32479.1 0 -2.13045e+06 43488.7 0 -2.14389e+06 54658.6 0 -2.16041e+06 66032.1 0 -2.18005e+06 77655.3 0 -2.20291e+06 89576.7 0 -2.22906e+06 101848 0 -2.2586e+06 114524 0 -2.29165e+06 127662 0 -2.32836e+06 141323 0 -2.36887e+06 155568 0 -2.41336e+06 170456 0 -2.46203e+06 186041 0 -2.51512e+06 202361 0 -2.57287e+06 219431 0 -2.63559e+06 237219 0 -2.70359e+06 255616 0 -2.77722e+06 274395 0 -2.85686e+06 293132 0 -2.94287e+06 311109 0 -3.03557e+06 327151 0 -3.13511e+06 339418 0 -3.2412e+06 345137 0 -3.35272e+06 340298 0 -3.46674e+06 319515 0 -3.57713e+06 276706 0 -3.67316e+06 207588 0 -3.74149e+06 113118 0 -3.76881e+06 0 0 -2.10518e+06 0 0 -2.10669e+06 11166.9 0 -2.11114e+06 22374 0 -2.11855e+06 33661.9 0 -2.12895e+06 45072.2 0 -2.14236e+06 56648.3 0 -2.15885e+06 68435.3 0 -2.17846e+06 80480.7 0 -2.20127e+06 92835 0 -2.22736e+06 105552 0 -2.25685e+06 118687 0 -2.28984e+06 132302 0 -2.32647e+06 146460 0 -2.36689e+06 161223 0 -2.41129e+06 176654 0 -2.45987e+06 192811 0 -2.51285e+06 209737 0 -2.57051e+06 227449 0 -2.63313e+06 245920 0 -2.70105e+06 265047 0 -2.77465e+06 284606 0 -2.85433e+06 304177 0 -2.94051e+06 323039 0 -3.03358e+06 340005 0 -3.13377e+06 353201 0 -3.24098e+06 359776 0 -3.35425e+06 355554 0 -3.47085e+06 334810 0 -3.58467e+06 290901 0 -3.68446e+06 218929 0 -3.75596e+06 119810 0 -3.78535e+06 -1.19209e-07 0 -2.10366e+06 0 0 -2.10517e+06 11558.6 0 -2.10962e+06 23158.8 0 -2.11702e+06 34842.5 0 -2.12739e+06 46652.7 0 -2.14078e+06 58634.3 0 -2.15723e+06 70833.9 0 -2.1768e+06 83300.7 0 -2.19957e+06 96086.8 0 -2.22561e+06 109248 0 -2.25503e+06 122842 0 -2.28795e+06 136933 0 -2.3245e+06 151585 0 -2.36484e+06 166865 0 -2.40915e+06 182840 0 -2.45762e+06 199568 0 -2.5105e+06 217099 0 -2.56805e+06 235453 0 -2.63057e+06 254610 0 -2.69842e+06 274471 0 -2.77198e+06 294817 0 -2.85169e+06 315234 0 -2.93803e+06 335001 0 -3.03145e+06 352924 0 -3.13231e+06 367099 0 -3.24065e+06 374604 0 -3.35572e+06 371101 0 -3.47501e+06 350517 0 -3.59245e+06 305605 0 -3.69628e+06 230752 0 -3.77116e+06 126899 0 -3.80302e+06 1.19209e-07 0 -2.1021e+06 0 0 -2.1036e+06 11949.6 0 -2.10804e+06 23942.1 0 -2.11542e+06 36020.9 0 -2.12578e+06 48230.2 0 -2.13914e+06 60616.4 0 -2.15556e+06 73227.8 0 -2.17509e+06 86115 0 -2.19781e+06 99332 0 -2.2238e+06 112936 0 -2.25316e+06 126988 0 -2.28601e+06 141554 0 -2.32248e+06 156699 0 -2.36273e+06 172496 0 -2.40693e+06 189012 0 -2.4553e+06 206311 0 -2.50807e+06 224446 0 -2.5655e+06 243443 0 -2.62792e+06 263287 0 -2.69568e+06 283885 0 -2.7692e+06 305026 0 -2.84894e+06 326302 0 -2.93542e+06 346996 0 -3.02919e+06 365909 0 -3.13072e+06 381114 0 -3.24019e+06 389625 0 -3.35711e+06 386951 0 -3.4792e+06 366654 0 -3.60047e+06 320855 0 -3.70866e+06 243088 0 -3.78706e+06 134430 0 -3.82194e+06 -2.38419e-07 0 -2.10048e+06 0 0 -2.10198e+06 12339.8 0 -2.10641e+06 24724 0 -2.11378e+06 37196.9 0 -2.12411e+06 49804.5 0 -2.13745e+06 62594.5 0 -2.15383e+06 75616.8 0 -2.17332e+06 88923.5 0 -2.19599e+06 102570 0 -2.22193e+06 116617 0 -2.25122e+06 131125 0 -2.284e+06 146164 0 -2.32038e+06 161802 0 -2.36054e+06 178113 0 -2.40464e+06 195170 0 -2.4529e+06 213039 0 -2.50555e+06 231778 0 -2.56287e+06 251418 0 -2.62517e+06 271950 0 -2.69284e+06 293290 0 -2.7663e+06 315233 0 -2.84606e+06 337379 0 -2.93268e+06 359020 0 -3.02679e+06 378957 0 -3.12898e+06 395245 0 -3.2396e+06 404841 0 -3.3584e+06 403111 0 -3.48341e+06 383244 0 -3.6087e+06 336692 0 -3.72161e+06 255967 0 -3.80365e+06 142463 0 -3.84227e+06 0 0 </DataArray> 
</PointData> 
<Points> 
<DataArray type="Float32" NumberOfComponents="3"> 