<?xml version="1.0"?> 
<VTKFile type="StructuredGrid" version="0.1"> 
<StructuredGrid WholeExtent="0 31 0 31 0 0"> 
<Piece Extent="0 31 0 31 0 0"> 
<PointData>
<DataArray type="Float32" Name="|E|" format="ascii" NumberOfComponents="3"> 
895759 361293 0 865737 347514 0 837145 333863 0 809929 320361 0 784040 307024 0 759430 293863 0 736058 280884 0 713882 268092 0 692863 255487 0 672966 243068 0 654156 230832 0 636402 218774 0 619674 206889 0 603943 195168 0 589183 183604 0 575369 172187 0 562477 160907 0 550486 149753 0 539376 138716 0 529126 127782 0 519720 116940 0 511142 106178 0 503376 95482.4 0 496408 84841 0 490227 74240.2 0 484821 63666.3 0 480181 53105.7 0 476296 42544.2 0 473160 31967.5 0 470767 21361.1 0 469111 10710.3 0 468187 0 0 892002 367059 0 862018 353092 0 833466 339256 0 806292 325571 0 780446 312053 0 755880 298711 0 732551 285554 0 710417 272583 0 689440 259800 0 669584 247204 0 650813 234792 0 633096 222557 0 616402 210495 0 600704 198597 0 585973 186855 0 572185 175260 0 559317 163801 0 547346 152468 0 536252 141249 0 526015 130133 0 516619 119108 0 508045 108161 0 500280 97278.9 0 493309 86448.7 0 487121 75656.9 0 481702 64889.7 0 477044 54133.2 0 473138 43372.9 0 469974 32594.3 0 467548 21782.7 0 465854 10923 0 464886 0 0 888188 372802 0 858242 358647 0 829731 344625 0 802599 330757 0 776796 317057 0 752274 303536 0 728989 290199 0 706898 277050 0 685963 264091 0 666147 251318 0 647415 238729 0 629735 226318 0 613076 214080 0 597409 202005 0 582707 190086 0 568946 178313 0 556101 166676 0 544150 155164 0 533072 143766 0 522848 132469 0 513460 121261 0 504891 110130 0 497126 99062.4 0 490151 88044.6 0 483954 77063.2 0 478522 66104 0 473846 55152.8 0 469916 44195.2 0 466725 33216.3 0 464265 22201 0 462531 11134.1 0 461518 0 0 884316 378521 0 854409 364177 0 825939 349970 0 798850 335918 0 773091 322037 0 748613 308335 0 725371 294820 0 703324 281494 0 682431 268357 0 662655 255408 0 643962 242643 0 626319 230056 0 609694 217642 0 594059 205392 0 579387 193297 0 565651 181347 0 552829 169533 0 540897 157843 0 529835 146265 0 519623 134788 0 510243 123399 0 501679 112085 0 493914 100833 0 486934 89628.7 0 480728 78458.8 0 475282 67308.9 0 470587 56164.6 0 466633 45011 0 463412 33833.2 0 460917 22615.9 0 459142 11343.4 0 458083 0 0 880386 384217 0 850518 369684 0 822091 355290 0 795045 341054 0 769330 326991 0 744896 313110 0 721699 299416 0 699695 285912 0 678844 272599 0 659109 259474 0 640455 246533 0 622848 233772 0 606258 221182 0 590654 208757 0 576011 196486 0 562301 184361 0 549502 172370 0 537589 160503 0 526542 148747 0 516342 137091 0 506970 125521 0 498409 114026 0 490643 102590 0 483659 91200.6 0 477442 79843.5 0 471982 68504.3 0 467267 57168.2 0 463288 45820.2 0 460036 34445.1 0 457505 23027.3 0 455688 11551 0 454581 0 0 876399 389887 0 846571 375165 0 818186 360585 0 791184 346165 0 765514 331920 0 741125 317859 0 717972 303986 0 696011 290306 0 675202 276816 0 655508 263516 0 636893 250400 0 619323 237464 0 602767 224700 0 587195 212099 0 572581 199654 0 558897 187354 0 546119 175187 0 534225 163144 0 523194 151211 0 513005 139377 0 503640 127628 0 495082 115951 0 487315 104334 0 480325 92760.3 0 474098 81217.4 0 468622 69690.1 0 463886 58163.6 0 459881 46622.7 0 456598 35051.8 0 454030 23435.2 0 452170 11756.7 0 451014 0 0 872354 395533 0 842567 380620 0 814225 365853 0 787268 351250 0 761642 336823 0 737298 322582 0 714190 308531 0 692273 294674 0 671507 281008 0 651854 267533 0 633277 254243 0 615744 241132 0 599222 228194 0 583682 215420 0 569096 202800 0 555437 190326 0 542682 177985 0 530807 165766 0 519790 153657 0 509612 141645 0 500254 129718 0 491699 117862 0 483930 106063 0 476933 94307.5 0 470694 82580 0 465202 70866.1 0 460445 59150.8 0 456413 47418.4 0 453098 35653.3 0 450492 23839.5 0 448588 11960.6 0 447381 0 0 868251 401153 0 838507 386050 0 810208 371096 0 783296 356308 0 757716 341700 0 733417 327279 0 710354 313050 0 688481 299016 0 667757 285175 0 648145 271525 0 629607 258060 0 612111 244776 0 595623 231665 0 580115 218718 0 565557 205925 0 551924 193277 0 539190 180762 0 527333 168368 0 516331 156084 0 506164 143897 0 496812 131793 0 488259 119758 0 480488 107779 0 473484 95842 0 467233 83931.3 0 461724 72032.2 0 456945 60129.4 0 452885 48207.2 0 449536 36249.5 0 446891 24240.2 0 444941 12162.7 0 443683 0 0 864091 406747 0 834389 391453 0 806135 376311 0 779269 361340 0 753734 346549 0 729482 331949 0 706463 317543 0 684634 303332 0 663954 289316 0 644383 275491 0 625884 261853 0 608424 248396 0 591971 235112 0 576494 221992 0 561964 209027 0 548356 196206 0 535644 183518 0 523805 170951 0 512818 158493 0 502660 146130 0 493315 133850 0 484763 121639 0 476989 109481 0 469977 97363.8 0 463714 85271.2 0 458187 73188.3 0 453385 61099.5 0 449297 48988.9 0 445914 36840.3 0 443228 24637.3 0 441232 12362.9 0 439920 0 0 859873 412313 0 830215 396828 0 802006 381499 0 775186 366343 0 749698 351372 0 725492 336592 0 702519 322008 0 680735 307621 0 660097 293430 0 640567 279432 0 622108 265621 0 604684 251992 0 588265 238535 0 572819 225244 0 558318 212107 0 544735 199114 0 532045 186254 0 520223 173514 0 509249 160883 0 499102 148346 0 489762 135891 0 481211 123503 0 473434 111169 0 466414 98872.5 0 460138 86599.4 0 454592 74334.1 0 449766 62060.8 0 445648 49763.5 0 442230 37425.7 0 439503 25030.6 0 437460 12561.2 0 436094 0 0 855598 417852 0 825984 402176 0 797822 386659 0 771048 371319 0 745607 356166 0 721448 341207 0 698521 326446 0 676781 311883 0 656187 297518 0 636698 283346 0 618278 269363 0 600892 255562 0 584506 241934 0 569092 228472 0 554619 215164 0 541060 202000 0 528391 188969 0 516588 176057 0 505627 163254 0 495489 150544 0 486154 137915 0 477605 125353 0 469823 112842 0 462794 100368 0 456504 87915.8 0 450940 75469.6 0 446089 63013.4 0 441941 50530.9 0 438487 38005.4 0 435717 25420.1 0 433625 12757.5 0 432204 0 0 851265 423363 0 821697 407495 0 793582 391791 0 766855 376267 0 741462 360932 0 717350 345794 0 694469 330856 0 672774 316118 0 652223 301578 0 632776 287234 0 614395 273079 0 597046 259107 0 580695 245309 0 565311 231676 0 550866 218198 0 537333 204863 0 524685 191662 0 512898 178580 0 501951 165605 0 491822 152724 0 482492 139922 0 473943 127186 0 466157 114500 0 459119 101850 0 452814 89220.3 0 447230 76594.6 0 442354 63957 0 438175 51290.9 0 434683 38579.6 0 431871 25805.8 0 429729 12951.9 0 428252 0 0 846876 428844 0 817354 412785 0 789286 396894 0 762608 381185 0 737263 365669 0 713198 350352 0 690364 335237 0 668715 320324 0 648207 305612 0 628802 291095 0 610460 276769 0 593148 262626 0 576831 248658 0 561478 234855 0 547061 221208 0 533552 207704 0 520925 194333 0 509156 181082 0 498222 167937 0 488102 154885 0 478776 141911 0 470227 129003 0 462436 116144 0 455388 103319 0 449068 90512.6 0 443463 77708.9 0 438561 64891.5 0 434350 52043.6 0 430821 39148.1 0 427964 26187.5 0 425771 13144.3 0 424237 0 0 842429 434297 0 812955 418046 0 784936 401966 0 758306 386074 0 733010 370377 0 708993 354881 0 686206 339590 0 664602 324503 0 644139 309617 0 624775 294928 0 606473 280431 0 589197 266119 0 572915 251981 0 557593 238010 0 543204 224194 0 529719 210522 0 517113 196983 0 505361 183562 0 494439 170248 0 484328 157027 0 475006 143883 0 466456 130803 0 458660 117772 0 451602 104774 0 445266 91792.6 0 439640 78812.5 0 434711 65816.8 0 430468 52788.7 0 426900 39710.7 0 423997 26565.4 0 421753 13334.6 0 420160 0 0 837926 439719 0 808500 423276 0 780530 407009 0 753950 390933 0 728703 375055 0 704734 359381 0 681994 343914 0 660437 328652 0 640018 313594 0 620696 298734 0 602434 284067 0 585195 269585 0 568947 255279 0 553657 241140 0 539295 227156 0 525835 213317 0 513249 199610 0 501513 186022 0 490604 172540 0 480501 159150 0 471183 145837 0 462632 132587 0 454830 119385 0 447761 106215 0 441409 93060.2 0 435761 79905.1 0 430805 66732.8 0 426528 53526.1 0 422920 40267.5 0 419972 26939.2 0 417675 13522.9 0 416022 0 0 833366 445111 0 803990 428476 0 776069 412021 0 749539 395761 0 724342 379702 0 700423 363851 0 677731 348208 0 656219 332772 0 635845 317542 0 616565 302512 0 598343 287675 0 581142 273025 0 564927 258551 0 549668 244245 0 535334 230094 0 521898 216088 0 509333 202215 0 497613 188460 0 486717 174811 0 476622 161254 0 467307 147773 0 458755 134355 0 450946 120983 0 443866 107642 0 437497 94315.2 0 431827 80986.7 0 426842 67639.4 0 422531 54255.9 0 418883 40818.4 0 415888 27309 0 413537 13709.2 0 411823 0 0 828750 450471 0 799424 433644 0 771554 417002 0 745075 400558 0 719928 384319 0 696058 368290 0 673415 352471 0 651950 336863 0 631620 321461 0 612383 306261 0 594201 291256 0 577036 276437 0 560856 261797 0 545629 247324 0 531323 233007 0 517910 218836 0 505365 204796 0 493662 190876 0 482778 177061 0 472690 163338 0 463379 149691 0 454825 136105 0 447009 122565 0 439917 109054 0 433531 95557.4 0 427838 82057.1 0 422824 68536.4 0 418478 54977.8 0 414789 41363.3 0 411746 27674.7 0 409340 13893.3 0 407565 0 0 824077 455799 0 794803 438781 0 766985 421952 0 740557 405324 0 715462 388905 0 691642 372698 0 669047 356705 0 647629 340924 0 627344 325351 0 608150 309981 0 590007 294808 0 572881 279822 0 556735 265015 0 541538 250377 0 527260 235895 0 513871 221559 0 501346 207355 0 489659 193270 0 478787 179291 0 468707 165402 0 459398 151590 0 450842 137838 0 443020 124131 0 435915 110452 0 429511 96786.6 0 423794 83116.2 0 418751 69423.8 0 414369 55691.8 0 410638 41902.1 0 407546 28036.2 0 405085 14075.3 0 403246 0 0 819349 461095 0 790127 443885 0 762361 426869 0 735986 410058 0 710942 393459 0 687173 377075 0 664627 360907 0 643256 344954 0 623017 329211 0 603865 313672 0 585763 298331 0 568674 283179 0 552563 268207 0 537397 253404 0 523146 238758 0 509782 224258 0 497277 209891 0 485606 195642 0 474745 181499 0 464672 167447 0 455366 153470 0 446807 139553 0 438977 125681 0 431859 111836 0 425437 98002.9 0 419697 84163.8 0 414623 70301.4 0 410205 56397.8 0 406431 42434.7 0 403289 28393.6 0 400772 14255.2 0 398869 0 0 814565 466358 0 785396 448956 0 757684 431753 0 731362 414759 0 706370 397980 0 682652 381420 0 660156 365079 0 638833 348953 0 618639 333040 0 599530 317333 0 581469 301826 0 564417 286508 0 548341 271371 0 533206 256404 0 518983 241595 0 505642 226932 0 493157 212402 0 481502 197992 0 470653 183686 0 460587 169471 0 451283 155331 0 442721 141251 0 434883 127214 0 427752 113205 0 421311 99205.8 0 415545 85199.8 0 410441 71169.1 0 405986 57095.7 0 402168 42961.2 0 398976 28746.6 0 396401 14432.8 0 394433 0 0 809725 471587 0 780610 453994 0 752953 436604 0 726685 419427 0 701746 402469 0 678080 385733 0 655633 369218 0 634359 352921 0 614210 336839 0 595145 320965 0 577125 305291 0 560111 289808 0 544068 274508 0 528965 259377 0 514770 244406 0 501453 229582 0 488988 214890 0 477348 200318 0 466510 185851 0 456450 171475 0 447148 157173 0 438584 142931 0 430738 128732 0 423592 114559 0 417132 100395 0 411341 86224 0 406206 72026.7 0 401713 57785.4 0 397850 43481.3 0 394607 29095.4 0 391974 14608.3 0 389940 0 0 804830 476782 0 775771 458997 0 748169 441420 0 721956 424061 0 697070 406925 0 673456 390013 0 651060 373325 0 629834 356858 0 609731 340607 0 590710 324566 0 572731 308726 0 555754 293080 0 539747 277616 0 524675 262324 0 510507 247191 0 497214 232206 0 484768 217354 0 473144 202621 0 462317 187994 0 452264 173458 0 442964 158996 0 434396 144593 0 426541 130232 0 419381 115898 0 412901 101572 0 407084 87236.4 0 401917 72874.3 0 397386 58466.7 0 393478 43995 0 390183 29439.8 0 387490 14781.5 0 385390 0 0 799881 481942 0 770878 463966 0 743332 446203 0 717174 428662 0 692343 411347 0 668781 394260 0 646436 377400 0 625259 360762 0 605203 344343 0 586226 328136 0 568287 312132 0 551349 296322 0 535376 280696 0 520335 265243 0 506195 249950 0 492926 234804 0 480500 219793 0 468891 204901 0 458075 190115 0 448028 175420 0 438729 160799 0 430157 146237 0 422293 131716 0 415119 117221 0 408619 102734 0 402776 88236.8 0 397576 73711.6 0 393005 59139.7 0 389052 44502.3 0 385704 29779.8 0 382951 14952.5 0 380783 0 0 794876 487066 0 765931 468899 0 738442 450951 0 712340 433228 0 687564 415735 0 664056 398473 0 641762 381441 0 620634 364634 0 600625 348048 0 581692 331675 0 563795 315507 0 546895 299535 0 530957 283747 0 515948 268134 0 501835 252681 0 488589 237377 0 476183 222207 0 464590 207158 0 453784 192214 0 443743 177361 0 434445 162582 0 425869 147862 0 417996 133183 0 410807 118529 0 404286 103882 0 398416 89225 0 393183 74538.5 0 388572 59804.2 0 384572 45003.1 0 381171 30115.4 0 378357 15121.2 0 376121 0 0 789818 492154 0 760931 473797 0 733500 455663 0 707455 437759 0 682734 420089 0 659280 402653 0 637038 385449 0 615960 368473 0 595998 351720 0 577110 335183 0 559254 318852 0 542392 302718 0 526489 286770 0 511511 270997 0 497426 255385 0 484205 239923 0 471818 224596 0 460239 209390 0 449445 194290 0 439410 179280 0 430112 164345 0 421532 149468 0 413649 134633 0 406445 119822 0 399902 105017 0 394005 90201 0 388738 75355 0 384087 60460.2 0 380040 45497.3 0 376584 30446.5 0 373709 15287.6 0 371403 0 0 784705 497205 0 755878 478658 0 728506 460339 0 702519 442254 0 677854 424407 0 654454 406798 0 632265 389423 0 611237 372279 0 591323 355360 0 572479 338658 0 554665 322165 0 537842 305870 0 521974 289763 0 507027 273831 0 492970 258062 0 479772 242443 0 467405 226960 0 455841 211599 0 445057 196343 0 435028 181178 0 425731 166088 0 417146 151056 0 409253 136065 0 402033 121098 0 395468 106138 0 389543 91164.6 0 384242 76160.9 0 379551 61107.5 0 375456 45984.8 0 371945 30773 0 369007 15451.7 0 366631 0 0 779539 502219 0 750773 483482 0 723460 464978 0 697532 446714 0 672924 428690 0 649579 410907 0 627443 393363 0 606465 376051 0 586599 358967 0 567800 342102 0 550028 325447 0 533244 308992 0 517411 292726 0 502496 276637 0 488466 260712 0 475292 244937 0 462944 229299 0 451396 213783 0 440622 198373 0 430598 183055 0 421301 167811 0 412712 152625 0 404808 137480 0 397572 122359 0 390985 107244 0 385032 92115.7 0 379696 76956.1 0 374964 61746 0 370820 46465.6 0 367254 31094.9 0 364252 15613.4 0 361805 0 0 774319 507195 0 745615 488269 0 718364 469581 0 692494 451137 0 667944 432937 0 644655 414982 0 622572 397268 0 601645 379789 0 581827 362541 0 563073 345513 0 545343 328697 0 528598 312083 0 512801 295659 0 497918 279414 0 483916 263333 0 470765 247404 0 458436 231612 0 446903 215942 0 436139 200380 0 426120 184909 0 416824 169512 0 408229 154174 0 400315 138877 0 393062 123604 0 386454 108336 0 380472 93054.1 0 375101 77740.6 0 370326 62375.7 0 366133 46939.6 0 362511 31412.2 0 359445 15772.7 0 356926 0 0 769047 512133 0 740406 493018 0 713216 474146 0 687406 455522 0 662915 437148 0 639681 419021 0 617652 401138 0 596777 383493 0 577007 366080 0 558299 348891 0 540612 331915 0 523906 315143 0 508144 298562 0 493293 282161 0 479319 265926 0 466191 249843 0 453882 233898 0 442364 218077 0 431610 202363 0 421596 186740 0 412300 171193 0 403700 155705 0 395775 140257 0 388505 124832 0 381873 109413 0 375862 93979.8 0 370456 78514.2 0 365638 62996.5 0 361396 47406.8 0 357716 31724.8 0 354586 15929.7 0 351994 0 0 763723 517031 0 735145 497728 0 708017 478673 0 682269 459871 0 657836 441321 0 634660 423023 0 612685 404972 0 591861 387162 0 572141 369586 0 553479 352236 0 535834 335101 0 519167 318171 0 503441 301435 0 488621 284879 0 474675 268490 0 461572 252255 0 449282 236159 0 437778 220186 0 427034 204322 0 417026 188550 0 407730 172853 0 399124 157215 0 391187 141618 0 383901 126044 0 377246 110475 0 371205 94892.6 0 365762 79276.7 0 360902 63608.2 0 356610 47867.1 0 352872 32032.7 0 349677 16084.2 0 347011 0 0 758346 521890 0 729833 502400 0 702769 483162 0 677082 464182 0 652709 445458 0 629590 426989 0 607670 408770 0 586898 390796 0 567227 373057 0 548611 355547 0 531010 338254 0 514382 321168 0 498692 304276 0 483904 287567 0 469986 271026 0 456907 254639 0 444636 238393 0 433147 222270 0 422413 206257 0 412409 190337 0 403113 174492 0 394501 158706 0 386553 142961 0 379249 127240 0 372571 111523 0 366500 95792.4 0 361021 80028.2 0 356117 64210.9 0 351774 48320.4 0 347978 32335.8 0 344716 16236.3 0 341977 0 0 752920 526707 0 724470 507032 0 697471 487611 0 671846 468454 0 647533 449557 0 624472 430918 0 602608 412532 0 581889 394394 0 562267 376494 0 543698 358824 0 526140 341374 0 509552 324132 0 493898 307087 0 479142 290225 0 465252 273532 0 452196 256995 0 439945 240600 0 428471 224329 0 417747 208168 0 407748 192100 0 398451 176109 0 389833 160177 0 381873 144286 0 374551 128419 0 367849 112556 0 361748 96679.1 0 356232 80768.5 0 351284 64804.4 0 346890 48766.6 0 343035 32634.1 0 339707 16385.9 0 336892 0 0 </DataArray> 
</PointData> 
<Points> 
<DataArray type="Float32" NumberOfComponents="3"> 