<?xml version="1.0"?> 
<VTKFile type="StructuredGrid" version="0.1"> 
<StructuredGrid WholeExtent="0 31 0 31 0 0"> 
<Piece Extent="0 31 0 31 0 0"> 
<PointData>
<DataArray type="Float32" Name="|E|" format="ascii" NumberOfComponents="3"> 
-602.666 3.88034e+06 0 -446.044 3.88748e+06 0 -280.879 3.89457e+06 0 -106.554 3.90161e+06 0 77.607 3.90859e+06 0 272.351 3.91552e+06 0 478.5 3.92238e+06 0 696.964 3.92917e+06 0 928.751 3.93588e+06 0 1174.98 3.94251e+06 0 1436.91 3.94906e+06 0 1715.92 3.95551e+06 0 2013.59 3.96185e+06 0 2331.69 3.96809e+06 0 2672.22 3.9742e+06 0 3037.42 3.98019e+06 0 3429.9 3.98603e+06 0 3852.6 3.99173e+06 0 4308.93 3.99727e+06 0 4802.81 4.00264e+06 0 5338.81 4.00782e+06 0 5922.28 4.0128e+06 0 6559.51 4.01756e+06 0 7257.97 4.02209e+06 0 8026.58 4.02637e+06 0 8876.08 4.03037e+06 0 9819.55 4.03408e+06 0 10873.1 4.03747e+06 0 12056.6 4.04051e+06 0 13395.3 4.04317e+06 0 14921.3 4.04542e+06 0 16676.3 4.04721e+06 0 58570.2 3.85617e+06 0 60024.6 3.86361e+06 0 61500.1 3.87105e+06 0 62995.5 3.87849e+06 0 64509.7 3.88593e+06 0 66041.5 3.89335e+06 0 67589.7 3.90075e+06 0 69152.9 3.90812e+06 0 70729.8 3.91545e+06 0 72318.9 3.92275e+06 0 73918.5 3.92999e+06 0 75526.9 3.93719e+06 0 77141.9 3.94432e+06 0 78761.3 3.95138e+06 0 80382.6 3.95837e+06 0 82002.8 3.96527e+06 0 83619 3.97209e+06 0 85227.6 3.97881e+06 0 86825 3.98543e+06 0 88407.1 3.99195e+06 0 89969.6 3.99835e+06 0 91508.2 4.00464e+06 0 93018.2 4.01081e+06 0 94495.1 4.01686e+06 0 95934.2 4.02279e+06 0 97331.3 4.0286e+06 0 98682.2 4.03428e+06 0 99983.2 4.03984e+06 0 101231 4.04528e+06 0 102424 4.05061e+06 0 103560 4.05582e+06 0 104637 4.06093e+06 0 108642 3.82399e+06 0 111512 3.83146e+06 0 114417 3.83897e+06 0 117357 3.84651e+06 0 120332 3.85407e+06 0 123340 3.86167e+06 0 126382 3.86928e+06 0 129455 3.8769e+06 0 132560 3.88453e+06 0 135694 3.89217e+06 0 138856 3.89981e+06 0 142044 3.90744e+06 0 145257 3.91506e+06 0 148492 3.92267e+06 0 151748 3.93025e+06 0 155023 3.93782e+06 0 158314 3.94535e+06 0 161620 3.95285e+06 0 164938 3.96032e+06 0 168267 3.96774e+06 0 171604 3.97512e+06 0 174948 3.98244e+06 0 178298 3.98971e+06 0 181651 3.99692e+06 0 185008 4.00406e+06 0 188366 4.01113e+06 0 191724 4.01811e+06 0 195082 4.02501e+06 0 198438 4.03181e+06 0 201789 4.03851e+06 0 205135 4.04509e+06 0 208472 4.05154e+06 0 149600 3.78619e+06 0 153852 3.79338e+06 0 158168 3.80064e+06 0 162548 3.80794e+06 0 166991 3.8153e+06 0 171500 3.82271e+06 0 176073 3.83016e+06 0 180710 3.83765e+06 0 185412 3.84518e+06 0 190178 3.85273e+06 0 195009 3.86032e+06 0 199903 3.86793e+06 0 204860 3.87555e+06 0 209880 3.8832e+06 0 214962 3.89085e+06 0 220105 3.89851e+06 0 225308 3.90617e+06 0 230571 3.91384e+06 0 235892 3.92149e+06 0 241270 3.92913e+06 0 246705 3.93676e+06 0 252194 3.94437e+06 0 257737 3.95195e+06 0 263331 3.9595e+06 0 268974 3.96701e+06 0 274665 3.97449e+06 0 280402 3.98192e+06 0 286181 3.98929e+06 0 292000 3.99661e+06 0 297856 4.00388e+06 0 303747 4.01108e+06 0 309669 4.01821e+06 0 181651 3.74487e+06 0 187180 3.75153e+06 0 192803 3.75825e+06 0 198522 3.76504e+06 0 204338 3.77189e+06 0 210253 3.7788e+06 0 216268 3.78576e+06 0 222384 3.79276e+06 0 228603 3.79981e+06 0 234926 3.8069e+06 0 241355 3.81403e+06 0 247889 3.82119e+06 0 254531 3.82838e+06 0 261280 3.8356e+06 0 268138 3.84283e+06 0 275105 3.85008e+06 0 282183 3.85734e+06 0 289370 3.8646e+06 0 296668 3.87187e+06 0 304076 3.87913e+06 0 311596 3.88639e+06 0 319226 3.89363e+06 0 326966 3.90086e+06 0 334816 3.90806e+06 0 342776 3.91523e+06 0 350845 3.92236e+06 0 359022 3.92946e+06 0 367305 3.93651e+06 0 375694 3.9435e+06 0 384187 3.95044e+06 0 392782 3.95731e+06 0 401477 3.9641e+06 0 205404 3.70177e+06 0 212055 3.70771e+06 0 218828 3.71371e+06 0 225725 3.71977e+06 0 232751 3.72589e+06 0 239907 3.73206e+06 0 247197 3.73827e+06 0 254623 3.74453e+06 0 262187 3.75083e+06 0 269892 3.75716e+06 0 277740 3.76352e+06 0 285735 3.76991e+06 0 293877 3.77631e+06 0 302170 3.78273e+06 0 310615 3.78916e+06 0 319214 3.79559e+06 0 327969 3.80202e+06 0 336882 3.80845e+06 0 345954 3.81486e+06 0 355187 3.82125e+06 0 364582 3.82762e+06 0 374139 3.83396e+06 0 383861 3.84025e+06 0 393747 3.84651e+06 0 403797 3.8527e+06 0 414013 3.85884e+06 0 424393 3.86492e+06 0 434938 3.87092e+06 0 445646 3.87683e+06 0 456516 3.88266e+06 0 467547 3.88839e+06 0 478737 3.89401e+06 0 221721 3.65827e+06 0 229319 3.66337e+06 0 237062 3.66852e+06 0 244954 3.67371e+06 0 252999 3.67895e+06 0 261201 3.68423e+06 0 269563 3.68953e+06 0 278089 3.69487e+06 0 286783 3.70022e+06 0 295648 3.70559e+06 0 304687 3.71098e+06 0 313905 3.71636e+06 0 323303 3.72175e+06 0 332886 3.72713e+06 0 342655 3.73249e+06 0 352615 3.73783e+06 0 362767 3.74314e+06 0 373114 3.74842e+06 0 383658 3.75365e+06 0 394401 3.75883e+06 0 405345 3.76395e+06 0 416492 3.769e+06 0 427842 3.77398e+06 0 439398 3.77887e+06 0 451158 3.78367e+06 0 463124 3.78836e+06 0 475296 3.79294e+06 0 487673 3.7974e+06 0 500254 3.80172e+06 0 513037 3.8059e+06 0 526022 3.80992e+06 0 539204 3.81378e+06 0 231575 3.61535e+06 0 239946 3.61955e+06 0 248480 3.62378e+06 0 257180 3.62803e+06 0 266051 3.63231e+06 0 275097 3.63661e+06 0 284324 3.64092e+06 0 293735 3.64523e+06 0 303335 3.64954e+06 0 313127 3.65383e+06 0 323116 3.65812e+06 0 333306 3.66238e+06 0 343699 3.66661e+06 0 354300 3.6708e+06 0 365112 3.67494e+06 0 376138 3.67903e+06 0 387380 3.68305e+06 0 398842 3.687e+06 0 410524 3.69087e+06 0 422431 3.69464e+06 0 434562 3.69831e+06 0 446919 3.70187e+06 0 459504 3.7053e+06 0 472315 3.70859e+06 0 485354 3.71174e+06 0 498620 3.71474e+06 0 512111 3.71756e+06 0 525825 3.72019e+06 0 539762 3.72264e+06 0 553916 3.72487e+06 0 568286 3.72689e+06 0 582866 3.72867e+06 0 235943 3.57369e+06 0 244926 3.57697e+06 0 254082 3.58026e+06 0 263415 3.58355e+06 0 272931 3.58685e+06 0 282634 3.59013e+06 0 292530 3.59341e+06 0 302622 3.59665e+06 0 312916 3.59987e+06 0 323415 3.60306e+06 0 334124 3.60619e+06 0 345047 3.60927e+06 0 356187 3.61229e+06 0 367547 3.61523e+06 0 379131 3.61809e+06 0 390942 3.62086e+06 0 402981 3.62352e+06 0 415251 3.62607e+06 0 427753 3.62849e+06 0 440489 3.63077e+06 0 453460 3.63291e+06 0 466664 3.63488e+06 0 480103 3.63668e+06 0 493775 3.63829e+06 0 507678 3.6397e+06 0 521811 3.6409e+06 0 536170 3.64187e+06 0 550751 3.6426e+06 0 565551 3.64307e+06 0 580563 3.64327e+06 0 595781 3.64319e+06 0 611199 3.64281e+06 0 235747 3.53373e+06 0 245197 3.5361e+06 0 254824 3.53847e+06 0 264633 3.54081e+06 0 274631 3.54313e+06 0 284822 3.54542e+06 0 295210 3.54766e+06 0 305801 3.54985e+06 0 316599 3.55199e+06 0 327608 3.55406e+06 0 338832 3.55604e+06 0 350274 3.55794e+06 0 361938 3.55975e+06 0 373827 3.56144e+06 0 385942 3.56302e+06 0 398287 3.56446e+06 0 410862 3.56576e+06 0 423669 3.56691e+06 0 436709 3.56788e+06 0 449980 3.56868e+06 0 463483 3.56928e+06 0 477216 3.56968e+06 0 491178 3.56985e+06 0 505365 3.56979e+06 0 519774 3.56948e+06 0 534400 3.5689e+06 0 549239 3.56805e+06 0 564283 3.5669e+06 0 579527 3.56544e+06 0 594961 3.56365e+06 0 610577 3.56153e+06 0 626365 3.55906e+06 0 231819 3.49571e+06 0 241608 3.49723e+06 0 251574 3.49871e+06 0 261723 3.50014e+06 0 272060 3.50152e+06 0 282590 3.50284e+06 0 293318 3.50409e+06 0 304248 3.50527e+06 0 315385 3.50635e+06 0 326732 3.50734e+06 0 338293 3.50822e+06 0 350071 3.50897e+06 0 362068 3.5096e+06 0 374286 3.51009e+06 0 386727 3.51042e+06 0 399393 3.51058e+06 0 412283 3.51056e+06 0 425398 3.51035e+06 0 438736 3.50994e+06 0 452296 3.5093e+06 0 466077 3.50843e+06 0 480074 3.50731e+06 0 494285 3.50593e+06 0 508703 3.50427e+06 0 523325 3.50231e+06 0 538142 3.50005e+06 0 553148 3.49747e+06 0 568334 3.49454e+06 0 583689 3.49127e+06 0 599204 3.48762e+06 0 614867 3.4836e+06 0 630664 3.47918e+06 0 224895 3.45979e+06 0 234910 3.4605e+06 0 245100 3.46114e+06 0 255468 3.46171e+06 0 266021 3.46221e+06 0 276763 3.46262e+06 0 287699 3.46293e+06 0 298832 3.46314e+06 0 310167 3.46323e+06 0 321707 3.46319e+06 0 333454 3.46302e+06 0 345411 3.46269e+06 0 357580 3.4622e+06 0 369962 3.46154e+06 0 382557 3.46069e+06 0 395366 3.45965e+06 0 408388 3.45838e+06 0 421622 3.45689e+06 0 435064 3.45516e+06 0 448713 3.45318e+06 0 462565 3.45092e+06 0 476614 3.44838e+06 0 490855 3.44554e+06 0 505282 3.44239e+06 0 519886 3.43891e+06 0 534659 3.43508e+06 0 549591 3.4309e+06 0 564672 3.42634e+06 0 579889 3.4214e+06 0 595229 3.41606e+06 0 610678 3.4103e+06 0 626221 3.40412e+06 0 215609 3.426e+06 0 225754 3.42596e+06 0 236066 3.42584e+06 0 246551 3.42562e+06 0 257213 3.42529e+06 0 268057 3.42485e+06 0 279087 3.42429e+06 0 290306 3.4236e+06 0 301719 3.42276e+06 0 313328 3.42177e+06 0 325134 3.42061e+06 0 337141 3.41927e+06 0 349347 3.41774e+06 0 361754 3.416e+06 0 374362 3.41406e+06 0 387169 3.41188e+06 0 400174 3.40945e+06 0 413374 3.40677e+06 0 426765 3.40382e+06 0 440342 3.40059e+06 0 454101 3.39705e+06 0 468036 3.3932e+06 0 482138 3.38901e+06 0 496399 3.38449e+06 0 510810 3.37961e+06 0 525360 3.37435e+06 0 540039 3.36871e+06 0 554832 3.36268e+06 0 569726 3.35623e+06 0 584707 3.34935e+06 0 599758 3.34204e+06 0 614862 3.33429e+06 0 204510 3.39435e+06 0 214697 3.39363e+06 0 225043 3.3928e+06 0 235553 3.39185e+06 0 246231 3.39078e+06 0 257081 3.38956e+06 0 268108 3.38819e+06 0 279314 3.38667e+06 0 290702 3.38497e+06 0 302275 3.3831e+06 0 314033 3.38103e+06 0 325979 3.37875e+06 0 338111 3.37626e+06 0 350430 3.37354e+06 0 362933 3.37057e+06 0 375620 3.36735e+06 0 388486 3.36385e+06 0 401529 3.36007e+06 0 414742 3.356e+06 0 428122 3.35161e+06 0 441660 3.3469e+06 0 455349 3.34184e+06 0 469181 3.33644e+06 0 483144 3.33066e+06 0 497230 3.3245e+06 0 511424 3.31795e+06 0 525715 3.311e+06 0 540089 3.30362e+06 0 554529 3.29582e+06 0 569019 3.28758e+06 0 583543 3.27888e+06 0 598082 3.26973e+06 0 192062 3.3648e+06 0 202215 3.36347e+06 0 212515 3.36201e+06 0 222969 3.3604e+06 0 233580 3.35864e+06 0 244353 3.35672e+06 0 255291 3.35462e+06 0 266397 3.35233e+06 0 277672 3.34985e+06 0 289119 3.34717e+06 0 300738 3.34426e+06 0 312529 3.34113e+06 0 324493 3.33775e+06 0 336627 3.33412e+06 0 348930 3.33022e+06 0 361397 3.32604e+06 0 374027 3.32156e+06 0 386812 3.31677e+06 0 399749 3.31167e+06 0 412829 3.30623e+06 0 426044 3.30044e+06 0 439387 3.29429e+06 0 452847 3.28776e+06 0 466413 3.28085e+06 0 480072 3.27354e+06 0 493812 3.26582e+06 0 507619 3.25768e+06 0 521476 3.2491e+06 0 535368 3.24008e+06 0 549278 3.23061e+06 0 563188 3.22068e+06 0 577078 3.21029e+06 0 178663 3.33729e+06 0 188709 3.33543e+06 0 198892 3.33341e+06 0 209217 3.33121e+06 0 219687 3.32884e+06 0 230308 3.32627e+06 0 241081 3.32351e+06 0 252008 3.32054e+06 0 263093 3.31735e+06 0 274335 3.31392e+06 0 285736 3.31026e+06 0 297294 3.30634e+06 0 309008 3.30215e+06 0 320877 3.29769e+06 0 332896 3.29293e+06 0 345064 3.28787e+06 0 357374 3.2825e+06 0 369821 3.27679e+06 0 382398 3.27074e+06 0 395097 3.26434e+06 0 407910 3.25757e+06 0 420826 3.25042e+06 0 433836 3.24288e+06 0 446926 3.23494e+06 0 460083 3.22658e+06 0 473295 3.2178e+06 0 486545 3.20858e+06 0 499818 3.19892e+06 0 513097 3.18881e+06 0 526364 3.17824e+06 0 539601 3.16721e+06 0 552787 3.15571e+06 0 164648 3.31178e+06 0 174521 3.30945e+06 0 184519 3.30693e+06 0 194647 3.30421e+06 0 204909 3.30129e+06 0 215308 3.29816e+06 0 225847 3.2948e+06 0 236528 3.29121e+06 0 247352 3.28737e+06 0 258320 3.28328e+06 0 269431 3.27893e+06 0 280685 3.27429e+06 0 292080 3.26937e+06 0 303613 3.26415e+06 0 315280 3.25861e+06 0 327077 3.25275e+06 0 338998 3.24655e+06 0 351038 3.24001e+06 0 363188 3.2331e+06 0 375440 3.22582e+06 0 387784 3.21815e+06 0 400210 3.21009e+06 0 412706 3.20163e+06 0 425260 3.19274e+06 0 437858 3.18343e+06 0 450485 3.17369e+06 0 463126 3.1635e+06 0 475764 3.15286e+06 0 488383 3.14176e+06 0 500964 3.1302e+06 0 513489 3.11817e+06 0 525938 3.10567e+06 0 150302 3.2882e+06 0 159938 3.28546e+06 0 169687 3.28252e+06 0 179555 3.27935e+06 0 189544 3.27594e+06 0 199658 3.2723e+06 0 209899 3.26842e+06 0 220269 3.26427e+06 0 230769 3.25986e+06 0 241399 3.25516e+06 0 252157 3.25018e+06 0 263044 3.2449e+06 0 274056 3.23931e+06 0 285191 3.23339e+06 0 296444 3.22714e+06 0 307809 3.22055e+06 0 319282 3.2136e+06 0 330855 3.20628e+06 0 342520 3.19859e+06 0 354268 3.19051e+06 0 366089 3.18202e+06 0 377971 3.17313e+06 0 389903 3.16381e+06 0 401872 3.15407e+06 0 413864 3.14389e+06 0 425863 3.13326e+06 0 437855 3.12218e+06 0 449822 3.11065e+06 0 461747 3.09865e+06 0 473612 3.08619e+06 0 485399 3.07325e+06 0 497088 3.05985e+06 0 135865 3.2665e+06 0 145203 3.26342e+06 0 154642 3.26011e+06 0 164188 3.25655e+06 0 173843 3.25273e+06 0 183611 3.24864e+06 0 193494 3.24428e+06 0 203493 3.23964e+06 0 213608 3.23471e+06 0 223840 3.22948e+06 0 234188 3.22393e+06 0 244649 3.21806e+06 0 255221 3.21186e+06 0 265900 3.20531e+06 0 276683 3.19842e+06 0 287562 3.19115e+06 0 298533 3.18352e+06 0 309587 3.17549e+06 0 320716 3.16707e+06 0 331910 3.15825e+06 0 343160 3.14901e+06 0 354454 3.13935e+06 0 365779 3.12925e+06 0 377122 3.11872e+06 0 388470 3.10774e+06 0 399806 3.0963e+06 0 411116 3.0844e+06 0 422382 3.07204e+06 0 433588 3.05922e+06 0 444716 3.04592e+06 0 455748 3.03216e+06 0 466664 3.01792e+06 0 121541 3.24662e+06 0 130519 3.24327e+06 0 139588 3.23965e+06 0 148753 3.23576e+06 0 158015 3.23158e+06 0 167378 3.2271e+06 0 176844 3.22233e+06 0 186414 3.21726e+06 0 196088 3.21186e+06 0 205866 3.20614e+06 0 215746 3.20009e+06 0 225726 3.19369e+06 0 235804 3.18693e+06 0 245975 3.17981e+06 0 256235 3.17232e+06 0 266578 3.16444e+06 0 276996 3.15617e+06 0 287484 3.1475e+06 0 298030 3.13841e+06 0 308627 3.1289e+06 0 319264 3.11897e+06 0 329928 3.10859e+06 0 340608 3.09777e+06 0 351291 3.0865e+06 0 361961 3.07477e+06 0 372604 3.06258e+06 0 383206 3.04993e+06 0 393748 3.0368e+06 0 404215 3.02321e+06 0 414589 3.00914e+06 0 424852 2.9946e+06 0 434987 2.97959e+06 0 107500 3.22854e+06 0 116059 3.22497e+06 0 124699 3.2211e+06 0 133423 3.21692e+06 0 142234 3.21244e+06 0 151135 3.20763e+06 0 160127 3.2025e+06 0 169211 3.19704e+06 0 178388 3.19124e+06 0 187656 3.18508e+06 0 197015 3.17857e+06 0 206462 3.17169e+06 0 215993 3.16443e+06 0 225605 3.15678e+06 0 235293 3.14874e+06 0 245050 3.1403e+06 0 254870 3.13145e+06 0 264745 3.12217e+06 0 274666 3.11246e+06 0 284624 3.10232e+06 0 294608 3.09173e+06 0 304605 3.08069e+06 0 314605 3.0692e+06 0 324594 3.05724e+06 0 334558 3.04481e+06 0 344481 3.03192e+06 0 354350 3.01855e+06 0 364148 3.0047e+06 0 373858 2.99038e+06 0 383464 2.97558e+06 0 392950 2.96031e+06 0 402296 2.94457e+06 0 93887.6 3.21222e+06 0 101968 3.20848e+06 0 110118 3.20441e+06 0 118343 3.20001e+06 0 126645 3.19527e+06 0 135026 3.19018e+06 0 143488 3.18474e+06 0 152031 3.17894e+06 0 160655 3.17277e+06 0 169361 3.16623e+06 0 178145 3.1593e+06 0 187005 3.15198e+06 0 195939 3.14427e+06 0 204942 3.13614e+06 0 214009 3.1276e+06 0 223134 3.11863e+06 0 232310 3.10924e+06 0 241529 3.0994e+06 0 250782 3.08911e+06 0 260061 3.07838e+06 0 269353 3.06718e+06 0 278649 3.05551e+06 0 287935 3.04338e+06 0 297199 3.03077e+06 0 306428 3.01768e+06 0 315606 3.00411e+06 0 324720 2.99006e+06 0 333753 2.97553e+06 0 342691 2.96051e+06 0 351517 2.94502e+06 0 360215 2.92905e+06 0 368767 2.91261e+06 0 80823.7 3.19763e+06 0 88364.6 3.19377e+06 0 95967 3.18955e+06 0 103634 3.18497e+06 0 111369 3.18002e+06 0 119173 3.17469e+06 0 127048 3.16899e+06 0 134994 3.1629e+06 0 143012 3.15641e+06 0 151100 3.14952e+06 0 159256 3.14222e+06 0 167479 3.13451e+06 0 175765 3.12638e+06 0 184109 3.11781e+06 0 192507 3.1088e+06 0 200953 3.09935e+06 0 209439 3.08945e+06 0 217959 3.07908e+06 0 226502 3.06825e+06 0 235061 3.05695e+06 0 243625 3.04517e+06 0 252182 3.03292e+06 0 260722 3.02017e+06 0 269231 3.00694e+06 0 277696 2.99322e+06 0 286104 2.979e+06 0 294440 2.9643e+06 0 302690 2.9491e+06 0 310839 2.93342e+06 0 318872 2.91725e+06 0 326772 2.9006e+06 0 334525 2.88347e+06 0 68409.6 3.18475e+06 0 75351.2 3.18081e+06 0 82345.7 3.17649e+06 0 89396.4 3.17178e+06 0 96505.7 3.16666e+06 0 103676 3.16114e+06 0 110907 3.15521e+06 0 118201 3.14887e+06 0 125556 3.1421e+06 0 132973 3.13491e+06 0 140449 3.12728e+06 0 147982 3.11921e+06 0 155568 3.11069e+06 0 163204 3.10171e+06 0 170884 3.09227e+06 0 178603 3.08237e+06 0 186354 3.07199e+06 0 194130 3.06113e+06 0 201922 3.04978e+06 0 209721 3.03794e+06 0 217517 3.02561e+06 0 225300 3.01278e+06 0 233059 2.99945e+06 0 240781 2.98562e+06 0 248454 2.97128e+06 0 256066 2.95644e+06 0 263601 2.9411e+06 0 271048 2.92525e+06 0 278391 2.90891e+06 0 285616 2.89208e+06 0 292709 2.87476e+06 0 299655 2.85695e+06 0 56729.4 3.17356e+06 0 63011.2 3.1696e+06 0 69338.3 3.16521e+06 0 75713.4 3.16041e+06 0 82139 3.15517e+06 0 88616.6 3.14949e+06 0 95147.5 3.14338e+06 0 101732 3.13682e+06 0 108370 3.12981e+06 0 115061 3.12235e+06 0 121802 3.11442e+06 0 128592 3.10602e+06 0 135427 3.09715e+06 0 142303 3.08779e+06 0 149216 3.07795e+06 0 156161 3.06762e+06 0 163130 3.05679e+06 0 170116 3.04546e+06 0 177113 3.03362e+06 0 184110 3.02126e+06 0 191100 3.0084e+06 0 198071 2.99501e+06 0 205013 2.98111e+06 0 211916 2.96669e+06 0 218767 2.95175e+06 0 225553 2.9363e+06 0 232264 2.92032e+06 0 238884 2.90384e+06 0 245403 2.88684e+06 0 251805 2.86934e+06 0 258079 2.85135e+06 0 264210 2.83287e+06 0 45852.8 3.16406e+06 0 51414.4 3.16011e+06 0 57014 3.1557e+06 0 62654.3 3.15084e+06 0 68337.4 3.14551e+06 0 74064.8 3.13972e+06 0 79837.6 3.13346e+06 0 85656.1 3.12672e+06 0 91520.2 3.11951e+06 0 97428.9 3.1118e+06 0 103381 3.1036e+06 0 109374 3.09491e+06 0 115404 3.08571e+06 0 121469 3.07601e+06 0 127564 3.06579e+06 0 133684 3.05505e+06 0 139822 3.04379e+06 0 145973 3.032e+06 0 152128 3.01968e+06 0 158281 3.00683e+06 0 164422 2.99344e+06 0 170541 2.97952e+06 0 176630 2.96506e+06 0 182678 2.95006e+06 0 188674 2.93452e+06 0 194607 2.91845e+06 0 200465 2.90184e+06 0 206236 2.88471e+06 0 211909 2.86706e+06 0 217472 2.8489e+06 0 222912 2.83023e+06 0 228217 2.81106e+06 0 35837 3.15623e+06 0 40618.1 3.15233e+06 0 45430.4 3.14794e+06 0 50276.5 3.14306e+06 0 55158.1 3.13768e+06 0 60076.8 3.13181e+06 0 65033.4 3.12543e+06 0 70028.3 3.11855e+06 0 75061.4 3.11115e+06 0 80131.8 3.10324e+06 0 85238.3 3.0948e+06 0 90378.7 3.08583e+06 0 95550.6 3.07634e+06 0 100750 3.0663e+06 0 105974 3.05573e+06 0 111218 3.0446e+06 0 116475 3.03293e+06 0 121741 3.02071e+06 0 127008 3.00792e+06 0 132269 2.99458e+06 0 137517 2.98068e+06 0 142743 2.96622e+06 0 147939 2.9512e+06 0 153094 2.93562e+06 0 158200 2.91949e+06 0 163247 2.9028e+06 0 168223 2.88556e+06 0 173118 2.86777e+06 0 177923 2.84946e+06 0 182625 2.83061e+06 0 187216 2.81124e+06 0 191683 2.79137e+06 0 26728.4 3.15007e+06 0 30669 3.14626e+06 0 34634.6 3.14192e+06 0 38627.1 3.13705e+06 0 42648.4 3.13166e+06 0 46699.6 3.12574e+06 0 50781.6 3.11928e+06 0 54894.8 3.11227e+06 0 59039 3.10473e+06 0 63213.7 3.09663e+06 0 67417.6 3.08798e+06 0 71649 3.07877e+06 0 75905.8 3.06899e+06 0 80185 3.05865e+06 0 84483.2 3.04774e+06 0 88796.4 3.03624e+06 0 93120 3.02417e+06 0 97448.8 3.01152e+06 0 101777 2.99829e+06 0 106099 2.98446e+06 0 110407 2.97005e+06 0 114694 2.95506e+06 0 118953 2.93948e+06 0 123176 2.92331e+06 0 127353 2.90657e+06 0 131478 2.88925e+06 0 135539 2.87137e+06 0 139530 2.85292e+06 0 143440 2.83391e+06 0 147260 2.81436e+06 0 150982 2.79428e+06 0 154595 2.77367e+06 0 18564.5 3.14558e+06 0 21605.4 3.14188e+06 0 24665.2 3.13763e+06 0 27745.4 3.13281e+06 0 30847.5 3.12744e+06 0 33972.6 3.12149e+06 0 37121.4 3.11498e+06 0 40294.3 3.10788e+06 0 43491.1 3.10022e+06 0 46711.5 3.09196e+06 0 49954.6 3.08312e+06 0 53218.9 3.07369e+06 0 56502.8 3.06366e+06 0 59803.8 3.05302e+06 0 63119.4 3.04179e+06 0 66446.1 3.02994e+06 0 69780.3 3.01749e+06 0 73117.7 3.00441e+06 0 76453.8 2.99073e+06 0 79783.5 2.97643e+06 0 83101.1 2.96151e+06 0 86401 2.94598e+06 0 89676.7 2.92983e+06 0 92921.7 2.91307e+06 0 96129.3 2.89571e+06 0 99292.4 2.87775e+06 0 102404 2.85919e+06 0 105456 2.84005e+06 0 108442 2.82034e+06 0 111354 2.80005e+06 0 114186 2.77922e+06 0 116929 2.75784e+06 0 11374.5 3.14276e+06 0 13457.7 3.13921e+06 0 15553.6 3.13507e+06 0 17663.4 3.13033e+06 0 19788.2 3.125e+06 0 21928.9 3.11906e+06 0 24085.9 3.11252e+06 0 26259.6 3.10537e+06 0 28450.1 3.0976e+06 0 30657 3.08922e+06 0 32879.7 3.08021e+06 0 35117.4 3.07058e+06 0 37368.7 3.06031e+06 0 39632 3.0494e+06 0 41905.4 3.03786e+06 0 44186.5 3.02567e+06 0 46472.6 3.01284e+06 0 48760.7 2.99936e+06 0 51047.5 2.98522e+06 0 53329.2 2.97044e+06 0 55601.9 2.95501e+06 0 57861.2 2.93893e+06 0 60102.7 2.92221e+06 0 62321.6 2.90485e+06 0 64512.9 2.88685e+06 0 66671.5 2.86822e+06 0 68792.3 2.84897e+06 0 70870 2.82911e+06 0 72899.2 2.80864e+06 0 74874.8 2.78759e+06 0 76791.4 2.76597e+06 0 78644 2.74378e+06 0 5180.92 3.14159e+06 0 6249.84 3.13822e+06 0 7325.18 3.13422e+06 0 8407.69 3.12959e+06 0 9497.98 3.12433e+06 0 10596.5 3.11844e+06 0 11703.7 3.1119e+06 0 12819.6 3.10471e+06 0 13944.4 3.09688e+06 0 15078 3.08839e+06 0 16220 3.07924e+06 0 17369.9 3.06942e+06 0 18527.2 3.05893e+06 0 19690.9 3.04777e+06 0 20860.1 3.03594e+06 0 22033.3 3.02342e+06 0 23209.3 3.01021e+06 0 24386.4 2.99633e+06 0 25562.6 2.98175e+06 0 26736.1 2.96649e+06 0 27904.7 2.95054e+06 0 29065.9 2.9339e+06 0 30217.4 2.91659e+06 0 31356.4 2.8986e+06 0 32480.4 2.87994e+06 0 33586.6 2.86061e+06 0 34672 2.84064e+06 0 35733.9 2.82002e+06 0 36769.4 2.79877e+06 0 37775.5 2.7769e+06 0 38749.5 2.75444e+06 0 39688.8 2.73139e+06 0 0 3.14208e+06 0 0 3.13891e+06 0 0 3.13509e+06 0 0 3.1306e+06 0 0 3.12544e+06 0 0 3.11961e+06 0 0 3.1131e+06 0 0 3.10591e+06 0 0 3.09803e+06 0 0 3.08946e+06 0 0 3.08018e+06 0 0 3.07021e+06 0 0 3.05953e+06 0 0 3.04813e+06 0 0 3.03601e+06 0 0 3.02317e+06 0 0 3.00961e+06 0 0 2.99532e+06 0 0 2.9803e+06 0 0 2.96455e+06 0 0 2.94807e+06 0 0 2.93087e+06 0 0 2.91294e+06 0 0 2.8943e+06 0 0 2.87495e+06 0 0 2.8549e+06 0 0 2.83416e+06 0 0 2.81274e+06 0 0 2.79065e+06 0 0 2.76792e+06 0 0 2.74456e+06 0 0 2.72058e+06 0 </DataArray> 
</PointData> 
<Points> 
<DataArray type="Float32" NumberOfComponents="3"> 