<?xml version="1.0"?> 
<VTKFile type="StructuredGrid" version="0.1"> 
<StructuredGrid WholeExtent="0 31 0 31 0 0"> 
<Piece Extent="0 31 0 31 0 0"> 
<PointData>
<DataArray type="Float32" Name="|E|" format="ascii" NumberOfComponents="3"> 
-2.01528e+06 0 0 -2.01534e+06 5335.33 0 -2.01552e+06 10671.7 0 -2.01582e+06 16009.9 0 -2.01624e+06 21350.7 0 -2.01678e+06 26694.9 0 -2.01744e+06 32043.2 0 -2.01822e+06 37396.5 0 -2.01912e+06 42755.5 0 -2.02014e+06 48121 0 -2.02128e+06 53494 0 -2.02254e+06 58875 0 -2.02392e+06 64265.1 0 -2.02542e+06 69665 0 -2.02704e+06 75075.5 0 -2.02879e+06 80497.5 0 -2.03065e+06 85931.7 0 -2.03263e+06 91379.1 0 -2.03474e+06 96840.3 0 -2.03697e+06 102316 0 -2.03932e+06 107808 0 -2.04179e+06 113316 0 -2.04438e+06 118842 0 -2.0471e+06 124386 0 -2.04994e+06 129949 0 -2.0529e+06 135532 0 -2.05599e+06 141136 0 -2.0592e+06 146762 0 -2.06254e+06 152411 0 -2.066e+06 158084 0 -2.06958e+06 163784 0 -2.07329e+06 169514 0 -2.01056e+06 0 0 -2.01063e+06 5813.08 0 -2.01084e+06 11627.4 0 -2.01118e+06 17444 0 -2.01166e+06 23263.7 0 -2.01227e+06 29087.6 0 -2.01302e+06 34916.6 0 -2.0139e+06 40751.6 0 -2.01493e+06 46593.8 0 -2.01608e+06 52443.9 0 -2.01738e+06 58303.1 0 -2.01881e+06 64172.4 0 -2.02037e+06 70052.7 0 -2.02208e+06 75945.1 0 -2.02392e+06 81850.5 0 -2.0259e+06 87770.1 0 -2.02801e+06 93704.7 0 -2.03027e+06 99655.5 0 -2.03266e+06 105623 0 -2.03519e+06 111610 0 -2.03786e+06 117615 0 -2.04067e+06 123641 0 -2.04362e+06 129689 0 -2.0467e+06 135759 0 -2.04993e+06 141853 0 -2.0533e+06 147972 0 -2.05681e+06 154116 0 -2.06046e+06 160289 0 -2.06425e+06 166490 0 -2.06818e+06 172720 0 -2.07226e+06 178982 0 -2.07648e+06 185274 0 -2.00575e+06 0 0 -2.00583e+06 6304.38 0 -2.00606e+06 12610.3 0 -2.00645e+06 18918.8 0 -2.00699e+06 25231.3 0 -2.00768e+06 31548.7 0 -2.00852e+06 37872.3 0 -2.00952e+06 44203.4 0 -2.01067e+06 50543 0 -2.01197e+06 56892.4 0 -2.01343e+06 63252.9 0 -2.01504e+06 69625.5 0 -2.0168e+06 76011.6 0 -2.01872e+06 82412.4 0 -2.02079e+06 88829.2 0 -2.02302e+06 95263.1 0 -2.0254e+06 101715 0 -2.02794e+06 108187 0 -2.03064e+06 114680 0 -2.03349e+06 121196 0 -2.03649e+06 127735 0 -2.03966e+06 134299 0 -2.04298e+06 140889 0 -2.04646e+06 147507 0 -2.0501e+06 154155 0 -2.05389e+06 160833 0 -2.05785e+06 167543 0 -2.06196e+06 174286 0 -2.06624e+06 181065 0 -2.07067e+06 187880 0 -2.07527e+06 194732 0 -2.08003e+06 201627 0 -2.00086e+06 0 0 -2.00094e+06 6809.15 0 -2.0012e+06 13620.1 0 -2.00163e+06 20434.2 0 -2.00223e+06 27253 0 -2.003e+06 34077.8 0 -2.00395e+06 40910.1 0 -2.00506e+06 47751.2 0 -2.00634e+06 54602.7 0 -2.0078e+06 61466 0 -2.00943e+06 68342.6 0 -2.01123e+06 75233.9 0 -2.0132e+06 82141.4 0 -2.01535e+06 89066.6 0 -2.01766e+06 96011 0 -2.02015e+06 102976 0 -2.02282e+06 109964 0 -2.02566e+06 116975 0 -2.02867e+06 124012 0 -2.03186e+06 131075 0 -2.03522e+06 138168 0 -2.03876e+06 145290 0 -2.04247e+06 152445 0 -2.04636e+06 159633 0 -2.05043e+06 166857 0 -2.05468e+06 174118 0 -2.0591e+06 181418 0 -2.06371e+06 188759 0 -2.06849e+06 196142 0 -2.07346e+06 203570 0 -2.0786e+06 211045 0 -2.08393e+06 218569 0 -1.99587e+06 0 0 -1.99596e+06 7327.24 0 -1.99625e+06 14656.6 0 -1.99673e+06 21989.7 0 -1.99739e+06 29328.4 0 -1.99825e+06 36674.2 0 -1.9993e+06 44028.9 0 -2.00053e+06 51394.2 0 -2.00196e+06 58771.9 0 -2.00358e+06 66163.6 0 -2.00538e+06 73571.2 0 -2.00738e+06 80996.3 0 -2.00957e+06 88440.8 0 -2.01195e+06 95906.5 0 -2.01453e+06 103395 0 -2.01729e+06 110909 0 -2.02025e+06 118449 0 -2.0234e+06 126017 0 -2.02675e+06 133617 0 -2.03029e+06 141248 0 -2.03403e+06 148914 0 -2.03796e+06 156616 0 -2.04208e+06 164357 0 -2.04641e+06 172139 0 -2.05093e+06 179963 0 -2.05565e+06 187831 0 -2.06057e+06 195747 0 -2.06569e+06 203712 0 -2.07101e+06 211729 0 -2.07653e+06 219800 0 -2.08225e+06 227927 0 -2.08818e+06 236114 0 -1.99079e+06 0 0 -1.9909e+06 7858.51 0 -1.99121e+06 15719.5 0 -1.99174e+06 23584.9 0 -1.99247e+06 31456.8 0 -1.99342e+06 39337.2 0 -1.99457e+06 47228.1 0 -1.99594e+06 55131.6 0 -1.99751e+06 63049.6 0 -1.9993e+06 70984.3 0 -2.00129e+06 78937.7 0 -2.0035e+06 86911.9 0 -2.00591e+06 94909.1 0 -2.00854e+06 102931 0 -2.01138e+06 110981 0 -2.01444e+06 119060 0 -2.0177e+06 127170 0 -2.02118e+06 135315 0 -2.02488e+06 143496 0 -2.02879e+06 151715 0 -2.03291e+06 159975 0 -2.03726e+06 168279 0 -2.04181e+06 176628 0 -2.04659e+06 185026 0 -2.05158e+06 193475 0 -2.0568e+06 201977 0 -2.06223e+06 210535 0 -2.06789e+06 219153 0 -2.07377e+06 227833 0 -2.07987e+06 236577 0 -2.0862e+06 245389 0 -2.09275e+06 254273 0 -1.98562e+06 0 0 -1.98574e+06 8402.83 0 -1.98609e+06 16808.5 0 -1.98666e+06 25219.4 0 -1.98747e+06 33637.9 0 -1.98851e+06 42066.3 0 -1.98978e+06 50507 0 -1.99127e+06 58962.4 0 -1.993e+06 67434.9 0 -1.99496e+06 75927 0 -1.99715e+06 84441 0 -1.99957e+06 92979.6 0 -2.00223e+06 101545 0 -2.00511e+06 110140 0 -2.00823e+06 118767 0 -2.01159e+06 127429 0 -2.01517e+06 136128 0 -2.01899e+06 144867 0 -2.02305e+06 153648 0 -2.02735e+06 162476 0 -2.03188e+06 171351 0 -2.03665e+06 180278 0 -2.04165e+06 189259 0 -2.0469e+06 198297 0 -2.05239e+06 207396 0 -2.05812e+06 216558 0 -2.06409e+06 225787 0 -2.07031e+06 235087 0 -2.07677e+06 244460 0 -2.08348e+06 253910 0 -2.09043e+06 263441 0 -2.09764e+06 273058 0 -1.98036e+06 0 0 -1.98049e+06 8960.04 0 -1.98087e+06 17923.4 0 -1.9815e+06 26892.8 0 -1.98239e+06 35870.9 0 -1.98352e+06 44860.6 0 -1.9849e+06 53864.7 0 -1.98654e+06 62885.8 0 -1.98843e+06 71926.9 0 -1.99057e+06 80990.8 0 -1.99296e+06 90080.3 0 -1.99561e+06 99198.3 0 -1.99851e+06 108348 0 -2.00166e+06 117532 0 -2.00507e+06 126753 0 -2.00873e+06 136015 0 -2.01265e+06 145320 0 -2.01683e+06 154673 0 -2.02127e+06 164075 0 -2.02596e+06 173531 0 -2.03091e+06 183043 0 -2.03613e+06 192616 0 -2.0416e+06 202252 0 -2.04734e+06 211955 0 -2.05334e+06 221730 0 -2.0596e+06 231580 0 -2.06614e+06 241508 0 -2.07294e+06 251520 0 -2.08e+06 261618 0 -2.08734e+06 271808 0 -2.09495e+06 282094 0 -2.10283e+06 292481 0 -1.97502e+06 0 0 -1.97516e+06 9530.01 0 -1.97557e+06 19063.8 0 -1.97626e+06 28604.5 0 -1.97722e+06 38155.4 0 -1.97845e+06 47719.6 0 -1.97996e+06 57300.4 0 -1.98174e+06 66901 0 -1.98379e+06 76524.6 0 -1.98612e+06 86174.6 0 -1.98872e+06 95854.3 0 -1.9916e+06 105567 0 -1.99475e+06 115316 0 -1.99818e+06 125105 0 -2.00189e+06 134938 0 -2.00588e+06 144817 0 -2.01014e+06 154748 0 -2.01469e+06 164732 0 -2.01951e+06 174775 0 -2.02462e+06 184880 0 -2.03001e+06 195051 0 -2.03569e+06 205293 0 -2.04164e+06 215608 0 -2.04789e+06 226003 0 -2.05442e+06 236480 0 -2.06124e+06 247045 0 -2.06835e+06 257703 0 -2.07576e+06 268458 0 -2.08345e+06 279315 0 -2.09144e+06 290280 0 -2.09973e+06 301357 0 -2.10832e+06 312555 0 -1.96959e+06 0 0 -1.96974e+06 10112.6 0 -1.97019e+06 20229.5 0 -1.97093e+06 30354.3 0 -1.97197e+06 40490.8 0 -1.97331e+06 50642.6 0 -1.97494e+06 60813.4 0 -1.97686e+06 71007 0 -1.97909e+06 81227.1 0 -1.98161e+06 91477.4 0 -1.98443e+06 101762 0 -1.98755e+06 112085 0 -1.99097e+06 122449 0 -1.99468e+06 132860 0 -1.9987e+06 143321 0 -2.00302e+06 153836 0 -2.00764e+06 164409 0 -2.01257e+06 175045 0 -2.0178e+06 185749 0 -2.02333e+06 196525 0 -2.02917e+06 207377 0 -2.03532e+06 218310 0 -2.04178e+06 229330 0 -2.04855e+06 240441 0 -2.05563e+06 251649 0 -2.06303e+06 262959 0 -2.07074e+06 274376 0 -2.07876e+06 285907 0 -2.08711e+06 297558 0 -2.09578e+06 309335 0 -2.10476e+06 321243 0 -2.11408e+06 333292 0 -1.96407e+06 0 0 -1.96424e+06 10707.6 0 -1.96472e+06 21420.1 0 -1.96552e+06 32141.7 0 -1.96664e+06 42876.6 0 -1.96808e+06 53628.9 0 -1.96984e+06 64402.9 0 -1.97192e+06 75202.9 0 -1.97432e+06 86033.2 0 -1.97705e+06 96898.2 0 -1.98009e+06 107802 0 -1.98345e+06 118750 0 -1.98714e+06 129746 0 -1.99116e+06 140794 0 -1.99549e+06 151900 0 -2.00016e+06 163068 0 -2.00514e+06 174304 0 -2.01046e+06 185611 0 -2.01611e+06 196996 0 -2.02208e+06 208464 0 -2.02839e+06 220020 0 -2.03503e+06 231670 0 -2.04201e+06 243419 0 -2.04932e+06 255274 0 -2.05696e+06 267240 0 -2.06495e+06 279325 0 -2.07328e+06 291534 0 -2.08195e+06 303875 0 -2.09096e+06 316356 0 -2.10032e+06 328982 0 -2.11003e+06 341763 0 -2.12009e+06 354708 0 -1.95847e+06 0 0 -1.95865e+06 11315 0 -1.95916e+06 22635.5 0 -1.96003e+06 33966.3 0 -1.96123e+06 45312.1 0 -1.96278e+06 56677.7 0 -1.96468e+06 68068 0 -1.96691e+06 79487.9 0 -1.96949e+06 90942.2 0 -1.97242e+06 102436 0 -1.9757e+06 113974 0 -1.97932e+06 125562 0 -1.98328e+06 137205 0 -1.9876e+06 148907 0 -1.99226e+06 160676 0 -1.99728e+06 172515 0 -2.00265e+06 184431 0 -2.00837e+06 196430 0 -2.01444e+06 208517 0 -2.02087e+06 220699 0 -2.02766e+06 232982 0 -2.0348e+06 245372 0 -2.04231e+06 257876 0 -2.05018e+06 270502 0 -2.0584e+06 283257 0 -2.067e+06 296147 0 -2.07596e+06 309182 0 -2.08529e+06 322368 0 -2.09499e+06 335716 0 -2.10507e+06 349233 0 -2.11552e+06 362928 0 -2.12635e+06 376815 0 -1.95278e+06 0 0 -1.95297e+06 11934.5 0 -1.95353e+06 23875.2 0 -1.95445e+06 35827.5 0 -1.95574e+06 47796.8 0 -1.9574e+06 59788.4 0 -1.95943e+06 71808 0 -1.96183e+06 83860.9 0 -1.9646e+06 95952.9 0 -1.96774e+06 108089 0 -1.97125e+06 120276 0 -1.97513e+06 132520 0 -1.97939e+06 144825 0 -1.98401e+06 157198 0 -1.98902e+06 169646 0 -1.99439e+06 182175 0 -2.00015e+06 194790 0 -2.00628e+06 207500 0 -2.0128e+06 220310 0 -2.01969e+06 233228 0 -2.02697e+06 246262 0 -2.03464e+06 259418 0 -2.04268e+06 272704 0 -2.05112e+06 286129 0 -2.05995e+06 299702 0 -2.06917e+06 313430 0 -2.07878e+06 327324 0 -2.08879e+06 341393 0 -2.09919e+06 355646 0 -2.11e+06 370096 0 -2.12121e+06 384752 0 -2.13283e+06 399629 0 -1.94701e+06 0 0 -1.94721e+06 12566 0 -1.9478e+06 25139 0 -1.94879e+06 37725 0 -1.95017e+06 50330.1 0 -1.95195e+06 62960.3 0 -1.95412e+06 75621.9 0 -1.95668e+06 88321.2 0 -1.95964e+06 101064 0 -1.963e+06 113858 0 -1.96675e+06 126708 0 -1.9709e+06 139621 0 -1.97545e+06 152605 0 -1.9804e+06 165666 0 -1.98574e+06 178810 0 -1.99149e+06 192046 0 -1.99765e+06 205381 0 -2.00421e+06 218822 0 -2.01117e+06 232376 0 -2.01854e+06 246053 0 -2.02633e+06 259861 0 -2.03452e+06 273808 0 -2.04313e+06 287904 0 -2.05215e+06 302158 0 -2.06158e+06 316579 0 -2.07144e+06 331178 0 -2.08172e+06 345967 0 -2.09242e+06 360955 0 -2.10355e+06 376156 0 -2.1151e+06 391582 0 -2.12709e+06 407245 0 -2.13951e+06 423163 0 -1.94115e+06 0 0 -1.94136e+06 13209.4 0 -1.942e+06 26426.6 0 -1.94305e+06 39658.3 0 -1.94452e+06 52911.4 0 -1.94642e+06 66192.6 0 -1.94873e+06 79509.1 0 -1.95146e+06 92867.6 0 -1.95462e+06 106275 0 -1.9582e+06 119740 0 -1.9622e+06 133267 0 -1.96662e+06 146867 0 -1.97147e+06 160544 0 -1.97674e+06 174309 0 -1.98245e+06 188167 0 -1.98858e+06 202129 0 -1.99514e+06 216201 0 -2.00213e+06 230394 0 -2.00956e+06 244715 0 -2.01742e+06 259174 0 -2.02571e+06 273780 0 -2.03445e+06 288545 0 -2.04362e+06 303477 0 -2.05324e+06 318589 0 -2.0633e+06 333891 0 -2.07381e+06 349395 0 -2.08477e+06 365115 0 -2.09618e+06 381062 0 -2.10804e+06 397253 0 -2.12035e+06 413701 0 -2.13313e+06 430421 0 -2.14636e+06 447434 0 -1.93521e+06 0 0 -1.93543e+06 13864.6 0 -1.93611e+06 27737.7 0 -1.93723e+06 41627 0 -1.9388e+06 55540.1 0 -1.94081e+06 69484.7 0 -1.94327e+06 83468.5 0 -1.94618e+06 97499.3 0 -1.94953e+06 111585 0 -1.95333e+06 125734 0 -1.95759e+06 139954 0 -1.96229e+06 154254 0 -1.96745e+06 168641 0 -1.97306e+06 183126 0 -1.97912e+06 197716 0 -1.98564e+06 212421 0 -1.99262e+06 227251 0 -2.00005e+06 242216 0 -2.00795e+06 257325 0 -2.01631e+06 272589 0 -2.02513e+06 288019 0 -2.03442e+06 303627 0 -2.04417e+06 319425 0 -2.0544e+06 335425 0 -2.0651e+06 351640 0 -2.07627e+06 368085 0 -2.08792e+06 384773 0 -2.10004e+06 401721 0 -2.11265e+06 418945 0 -2.12573e+06 436463 0 -2.13931e+06 454293 0 -2.15337e+06 472457 0 -1.92918e+06 0 0 -1.92942e+06 14531.3 0 -1.93014e+06 29072 0 -1.93133e+06 43630.7 0 -1.93299e+06 58215.8 0 -1.93512e+06 72835.8 0 -1.93773e+06 87499.4 0 -1.94082e+06 102215 0 -1.94438e+06 116992 0 -1.94841e+06 131840 0 -1.95292e+06 146766 0 -1.95791e+06 161781 0 -1.96338e+06 176894 0 -1.96933e+06 192116 0 -1.97577e+06 207455 0 -1.98268e+06 222923 0 -1.99008e+06 238530 0 -1.99797e+06 254287 0 -2.00634e+06 270206 0 -2.01521e+06 286299 0 -2.02457e+06 302578 0 -2.03442e+06 319057 0 -2.04476e+06 335749 0 -2.05561e+06 352668 0 -2.06695e+06 369830 0 -2.0788e+06 387251 0 -2.09114e+06 404947 0 -2.104e+06 422938 0 -2.11736e+06 441241 0 -2.13122e+06 459879 0 -2.1456e+06 478871 0 -2.1605e+06 498246 0 -1.92307e+06 0 0 -1.92333e+06 15209.3 0 -1.92409e+06 30429.2 0 -1.92535e+06 45668.8 0 -1.92711e+06 60937.6 0 -1.92936e+06 76245.2 0 -1.93213e+06 91601 0 -1.93539e+06 107015 0 -1.93916e+06 122496 0 -1.94343e+06 138056 0 -1.9482e+06 153703 0 -1.95348e+06 169448 0 -1.95927e+06 185303 0 -1.96557e+06 201278 0 -1.97238e+06 217383 0 -1.9797e+06 233632 0 -1.98753e+06 250036 0 -1.99588e+06 266607 0 -2.00474e+06 283358 0 -2.01412e+06 300304 0 -2.02402e+06 317458 0 -2.03444e+06 334834 0 -2.04539e+06 352450 0 -2.05686e+06 370320 0 -2.06886e+06 388463 0 -2.08138e+06 406897 0 -2.09444e+06 425642 0 -2.10803e+06 444718 0 -2.12215e+06 464149 0 -2.1368e+06 483958 0 -2.15199e+06 504170 0 -2.16772e+06 524818 0 -1.91688e+06 0 0 -1.91716e+06 15898.7 0 -1.91796e+06 31808.9 0 -1.91929e+06 47740.9 0 -1.92114e+06 63705.2 0 -1.92353e+06 79712.1 0 -1.92645e+06 95772.3 0 -1.92989e+06 111897 0 -1.93387e+06 128096 0 -1.93838e+06 144381 0 -1.94342e+06 160763 0 -1.949e+06 177254 0 -1.95512e+06 193865 0 -1.96177e+06 210610 0 -1.96896e+06 227500 0 -1.97669e+06 244548 0 -1.98496e+06 261768 0 -1.99377e+06 279174 0 -2.00313e+06 296780 0 -2.01303e+06 314603 0 -2.02348e+06 332657 0 -2.03449e+06 350960 0 -2.04604e+06 369529 0 -2.05814e+06 388383 0 -2.0708e+06 407542 0 -2.08402e+06 427027 0 -2.09779e+06 446861 0 -2.11212e+06 467069 0 -2.127e+06 487675 0 -2.14244e+06 508709 0 -2.15844e+06 530201 0 -2.175e+06 552186 0 -1.91061e+06 0 0 -1.9109e+06 16599.1 0 -1.91174e+06 33210.9 0 -1.91315e+06 49846.6 0 -1.9151e+06 66517.8 0 -1.91762e+06 83235.9 0 -1.92069e+06 100013 0 -1.92433e+06 116860 0 -1.92852e+06 133789 0 -1.93327e+06 150813 0 -1.93859e+06 167945 0 -1.94447e+06 185196 0 -1.95091e+06 202580 0 -1.95792e+06 220111 0 -1.9655e+06 237802 0 -1.97364e+06 255669 0 -1.98236e+06 273725 0 -1.99164e+06 291987 0 -2.0015e+06 310472 0 -2.01194e+06 329195 0 -2.02295e+06 348176 0 -2.03454e+06 367433 0 -2.0467e+06 386986 0 -2.05945e+06 406857 0 -2.07277e+06 427068 0 -2.08668e+06 447644 0 -2.10117e+06 468610 0 -2.11624e+06 489995 0 -2.13189e+06 511828 0 -2.14812e+06 534144 0 -2.16493e+06 556976 0 -2.18231e+06 580367 0 -1.90426e+06 0 0 -1.90457e+06 17310.5 0 -1.90545e+06 34634.9 0 -1.90693e+06 51985.4 0 -1.90899e+06 69374.8 0 -1.91163e+06 86815.7 0 -1.91487e+06 104321 0 -1.91869e+06 121903 0 -1.9231e+06 139576 0 -1.9281e+06 157353 0 -1.93369e+06 175247 0 -1.93988e+06 193273 0 -1.94666e+06 211446 0 -1.95403e+06 229780 0 -1.962e+06 248290 0 -1.97057e+06 266994 0 -1.97973e+06 285906 0 -1.9895e+06 305046 0 -1.99987e+06 324431 0 -2.01084e+06 344080 0 -2.02241e+06 364014 0 -2.03459e+06 384254 0 -2.04737e+06 404823 0 -2.06076e+06 425744 0 -2.07476e+06 447043 0 -2.08936e+06 468749 0 -2.10457e+06 490891 0 -2.12038e+06 513501 0 -2.13679e+06 536614 0 -2.1538e+06 560268 0 -2.17141e+06 584506 0 -2.1896e+06 609373 0 -1.89783e+06 0 0 -1.89815e+06 18032.7 0 -1.89908e+06 36080.5 0 -1.90063e+06 54156.9 0 -1.90279e+06 72275.7 0 -1.90557e+06 90450.8 0 -1.90897e+06 108696 0 -1.91298e+06 127026 0 -1.91762e+06 145455 0 -1.92287e+06 163998 0 -1.92874e+06 182669 0 -1.93524e+06 201485 0 -1.94235e+06 220462 0 -1.9501e+06 239615 0 -1.95846e+06 258962 0 -1.96746e+06 278521 0 -1.97708e+06 298310 0 -1.98733e+06 318349 0 -1.99821e+06 338658 0 -2.00972e+06 359258 0 -2.02186e+06 380172 0 -2.03464e+06 401423 0 -2.04804e+06 423039 0 -2.06208e+06 445044 0 -2.07675e+06 467470 0 -2.09205e+06 490346 0 -2.10797e+06 513708 0 -2.12452e+06 537592 0 -2.14168e+06 562038 0 -2.15946e+06 587091 0 -2.17785e+06 612800 0 -2.19683e+06 639218 0 -1.89132e+06 0 0 -1.89166e+06 18765.6 0 -1.89263e+06 37547.4 0 -1.89426e+06 56360.6 0 -1.89652e+06 75219.9 0 -1.89944e+06 94140.6 0 -1.903e+06 113138 0 -1.90721e+06 132227 0 -1.91207e+06 151425 0 -1.91757e+06 170747 0 -1.92373e+06 190209 0 -1.93054e+06 209830 0 -1.938e+06 229625 0 -1.94611e+06 249615 0 -1.95488e+06 269816 0 -1.9643e+06 290249 0 -1.97439e+06 310935 0 -1.98513e+06 331894 0 -1.99652e+06 353150 0 -2.00858e+06 374726 0 -2.02129e+06 396647 0 -2.03467e+06 418940 0 -2.0487e+06 441633 0 -2.06338e+06 464758 0 -2.07872e+06 488347 0 -2.09471e+06 512436 0 -2.11135e+06 537063 0 -2.12862e+06 562271 0 -2.14653e+06 588106 0 -2.16506e+06 614619 0 -2.18421e+06 641867 0 -2.20395e+06 669911 0 -1.88473e+06 0 0 -1.88508e+06 19508.9 0 -1.88611e+06 39035.5 0 -1.8878e+06 58595.9 0 -1.89018e+06 78206.7 0 -1.89323e+06 97884.1 0 -1.89696e+06 117645 0 -1.90136e+06 137506 0 -1.90645e+06 157485 0 -1.91221e+06 177599 0 -1.91865e+06 197866 0 -1.92578e+06 218306 0 -1.93359e+06 238936 0 -1.94208e+06 259778 0 -1.95125e+06 280851 0 -1.96111e+06 302177 0 -1.97166e+06 323780 0 -1.98289e+06 345681 0 -1.99481e+06 367907 0 -2.00741e+06 390484 0 -2.0207e+06 413439 0 -2.03467e+06 436803 0 -2.04933e+06 460607 0 -2.06466e+06 484886 0 -2.08067e+06 509677 0 -2.09734e+06 535019 0 -2.11468e+06 560958 0 -2.13267e+06 587541 0 -2.1513e+06 614821 0 -2.17057e+06 642856 0 -2.19044e+06 671713 0 -2.2109e+06 701462 0 -1.87807e+06 0 0 -1.87843e+06 20262.5 0 -1.8795e+06 40544.2 0 -1.88128e+06 60862.6 0 -1.88376e+06 81235.5 0 -1.88695e+06 101681 0 -1.89084e+06 122217 0 -1.89545e+06 142861 0 -1.90076e+06 163634 0 -1.90678e+06 184553 0 -1.91352e+06 205639 0 -1.92096e+06 226912 0 -1.92912e+06 248392 0 -1.93799e+06 270102 0 -1.94758e+06 292065 0 -1.95787e+06 314303 0 -1.96889e+06 336842 0 -1.98061e+06 359708 0 -1.99306e+06 382927 0 -2.00621e+06 406530 0 -2.02007e+06 430547 0 -2.03464e+06 455011 0 -2.04992e+06 479958 0 -2.0659e+06 505426 0 -2.08257e+06 531457 0 -2.09992e+06 558096 0 -2.11795e+06 585394 0 -2.13664e+06 613403 0 -2.15597e+06 642185 0 -2.17593e+06 671806 0 -2.19649e+06 702343 0 -2.21762e+06 733875 0 -1.87132e+06 0 0 -1.8717e+06 21026.3 0 -1.87282e+06 42073.3 0 -1.87467e+06 63160.1 0 -1.87726e+06 84305.8 0 -1.88059e+06 105530 0 -1.88466e+06 126852 0 -1.88946e+06 148292 0 -1.89501e+06 169870 0 -1.90129e+06 191607 0 -1.90832e+06 213525 0 -1.91609e+06 235646 0 -1.9246e+06 257992 0 -1.93385e+06 280587 0 -1.94385e+06 303456 0 -1.95459e+06 326625 0 -1.96607e+06 350121 0 -1.9783e+06 373972 0 -1.99126e+06 398208 0 -2.00497e+06 422862 0 -2.0194e+06 447968 0 -2.03457e+06 473562 0 -2.05047e+06 499685 0 -2.06708e+06 526378 0 -2.0844e+06 553688 0 -2.10242e+06 581666 0 -2.12113e+06 610368 0 -2.14049e+06 639856 0 -2.1605e+06 670197 0 -2.18112e+06 701468 0 -2.20232e+06 733757 0 -2.22405e+06 767152 0 -1.8645e+06 0 0 -1.8649e+06 21800.2 0 -1.86606e+06 43622.6 0 -1.86799e+06 65487.9 0 -1.87069e+06 87416.9 0 -1.87416e+06 109430 0 -1.8784e+06 131550 0 -1.88341e+06 153796 0 -1.88919e+06 176193 0 -1.89574e+06 198761 0 -1.90306e+06 221524 0 -1.91115e+06 244507 0 -1.92002e+06 267734 0 -1.92966e+06 291230 0 -1.94007e+06 315024 0 -1.95125e+06 339142 0 -1.96321e+06 363614 0 -1.97593e+06 388472 0 -1.98942e+06 413749 0 -2.00368e+06 439479 0 -2.01869e+06 465702 0 -2.03445e+06 492456 0 -2.05096e+06 519786 0 -2.0682e+06 547739 0 -2.08617e+06 576367 0 -2.10484e+06 605727 0 -2.12419e+06 635881 0 -2.1442e+06 666898 0 -2.16484e+06 698856 0 -2.18607e+06 731840 0 -2.20785e+06 765951 0 -2.2301e+06 801288 0 -1.85761e+06 0 0 -1.85802e+06 22583.9 0 -1.85923e+06 45191.7 0 -1.86124e+06 67845.7 0 -1.86405e+06 90568.2 0 -1.86766e+06 113382 0 -1.87207e+06 136309 0 -1.87729e+06 159374 0 -1.8833e+06 182600 0 -1.89012e+06 206012 0 -1.89774e+06 229635 0 -1.90616e+06 253494 0 -1.91538e+06 277616 0 -1.92541e+06 302030 0 -1.93624e+06 326765 0 -1.94787e+06 351850 0 -1.96029e+06 377320 0 -1.97352e+06 403206 0 -1.98753e+06 429546 0 -2.00233e+06 456379 0 -2.01791e+06 483744 0 -2.03427e+06 511688 0 -2.05138e+06 540258 0 -2.06924e+06 569507 0 -2.08783e+06 599491 0 -2.10713e+06 630274 0 -2.12711e+06 661926 0 -2.14773e+06 694525 0 -2.16897e+06 728156 0 -2.19075e+06 762916 0 -2.21303e+06 798919 0 -2.23571e+06 836273 0 -1.85064e+06 0 0 -1.85106e+06 23377.3 0 -1.85232e+06 46780.3 0 -1.85441e+06 70232.8 0 -1.85734e+06 93759 0 -1.86109e+06 117383 0 -1.86568e+06 141130 0 -1.87109e+06 165025 0 -1.87735e+06 189093 0 -1.88443e+06 213360 0 -1.89235e+06 237855 0 -1.9011e+06 262604 0 -1.91068e+06 287637 0 -1.9211e+06 312985 0 -1.93234e+06 338678 0 -1.94442e+06 364750 0 -1.95732e+06 391235 0 -1.97104e+06 418172 0 -1.98558e+06 445599 0 -2.00093e+06 473558 0 -2.01707e+06 502094 0 -2.03401e+06 531257 0 -2.05172e+06 561098 0 -2.07019e+06 591677 0 -2.08938e+06 623056 0 -2.10929e+06 655304 0 -2.12986e+06 688500 0 -2.15105e+06 722729 0 -2.17282e+06 758087 0 -2.19509e+06 794683 0 -2.21778e+06 832644 0 -2.24078e+06 872087 0 -1.84359e+06 0 0 -1.84403e+06 24180.3 0 -1.84534e+06 48388 0 -1.84751e+06 72649 0 -1.85055e+06 96988.9 0 -1.85444e+06 121434 0 -1.85921e+06 146011 0 -1.86483e+06 170746 0 -1.87132e+06 195668 0 -1.87868e+06 220804 0 -1.8869e+06 246183 0 -1.89598e+06 271837 0 -1.90592e+06 297796 0 -1.91673e+06 324093 0 -1.92839e+06 350761 0 -1.94091e+06 377837 0 -1.95429e+06 405359 0 -1.96851e+06 433367 0 -1.98357e+06 461903 0 -1.99945e+06 491013 0 -2.01616e+06 520747 0 -2.03367e+06 551158 0 -2.05196e+06 582303 0 -2.07102e+06 614245 0 -2.0908e+06 647055 0 -2.11128e+06 680809 0 -2.13241e+06 715593 0 -2.15412e+06 751500 0 -2.17636e+06 788638 0 -2.19903e+06 827126 0 -2.22203e+06 867105 0 -2.24521e+06 908701 0 -1.83647e+06 0 0 -1.83693e+06 24992.6 0 -1.83829e+06 50014.7 0 -1.84054e+06 75093.7 0 -1.84369e+06 100257 0 -1.84773e+06 125533 0 -1.85267e+06 150951 0 -1.8585e+06 176538 0 -1.86523e+06 202324 0 -1.87286e+06 228341 0 -1.88138e+06 254619 0 -1.89079e+06 281191 0 -1.9011e+06 308090 0 -1.9123e+06 335352 0 -1.92438e+06 363012 0 -1.93735e+06 391111 0 -1.95119e+06 419689 0 -1.96591e+06 448789 0 -1.98148e+06 478457 0 -1.99791e+06 508743 0 -2.01517e+06 539700 0 -2.03324e+06 571387 0 -2.0521e+06 603866 0 -2.07172e+06 637206 0 -2.09206e+06 671483 0 -2.11308e+06 706781 0 -2.13472e+06 743193 0 -2.1569e+06 780823 0 -2.17954e+06 819789 0 -2.20252e+06 860220 0 -2.2257e+06 902268 0 -2.24891e+06 946072 0 -1.82927e+06 0 0 -1.82975e+06 25814.3 0 -1.83116e+06 51659.9 0 -1.83349e+06 77566.4 0 -1.83675e+06 103563 0 -1.84094e+06 129681 0 -1.84606e+06 155949 0 -1.8521e+06 182398 0 -1.85907e+06 209062 0 -1.86697e+06 235971 0 -1.87579e+06 263160 0 -1.88554e+06 290664 0 -1.89621e+06 318518 0 -1.9078e+06 346760 0 -1.9203e+06 375430 0 -1.93372e+06 404569 0 -1.94803e+06 434222 0 -1.96324e+06 464434 0 -1.97933e+06 495257 0 -1.99628e+06 526743 0 -2.01408e+06 558950 0 -2.0327e+06 591940 0 -2.05212e+06 625783 0 -2.07228e+06 660553 0 -2.09315e+06 696331 0 -2.11467e+06 733210 0 -2.13677e+06 771291 0 -2.15935e+06 810687 0 -2.1823e+06 851522 0 -2.20548e+06 893942 0 -2.2287e+06 938100 0 -2.25177e+06 984156 0 </DataArray> 
</PointData> 
<Points> 
<DataArray type="Float32" NumberOfComponents="3"> 