<?xml version="1.0"?> 
<VTKFile type="StructuredGrid" version="0.1"> 
<StructuredGrid WholeExtent="0 31 0 31 0 0"> 
<Piece Extent="0 31 0 31 0 0"> 
<PointData>
<DataArray type="Float32" Name="|E|" format="ascii" NumberOfComponents="3"> 
-2.38419e-07 1.82735e+07 0 -4.91738e-07 9.55188e+06 0 5.28991e-07 5.2917e+06 0 -4.32134e-07 3.48594e+06 0 2.23517e-07 2.86253e+06 0 -1.04308e-07 2.70192e+06 0 3.42727e-07 2.65193e+06 0 -1.19209e-07 2.58008e+06 0 -1.93715e-07 2.46365e+06 0 2.38419e-07 2.32029e+06 0 -1.19209e-07 2.1718e+06 0 1.19209e-07 2.03103e+06 0 -2.98023e-08 1.90147e+06 0 2.98023e-08 1.78145e+06 0 1.19209e-07 1.66803e+06 0 -1.19209e-07 1.55897e+06 0 2.98023e-08 1.45307e+06 0 1.78814e-07 1.34972e+06 0 0 1.24848e+06 0 0 1.14894e+06 0 0 1.05071e+06 0 0 953470 0 0 856946 0 -1.19209e-07 760929 0 -5.96046e-08 665252 0 1.19209e-07 569785 0 -1.19209e-07 474435 0 1.78814e-07 379137 0 -1.19209e-07 283857 0 -2.38419e-07 188578 0 1.78814e-07 93344.7 0 3.57628e-07 0 0 -4.71314e+06 185967 0 -3.8633e+06 4.12213e+06 0 -2.86819e+06 5.2595e+06 0 -1.97662e+06 5.11061e+06 0 -1.28331e+06 4.54243e+06 0 -802955 3.95308e+06 0 -502145 3.47914e+06 0 -329945 3.12935e+06 0 -237625 2.86839e+06 0 -188327 2.65906e+06 0 -159081 2.47693e+06 0 -138199 2.31027e+06 0 -121081 2.15501e+06 0 -106483 2.00984e+06 0 -94166.8 1.8737e+06 0 -83893.2 1.74511e+06 0 -75261.8 1.62246e+06 0 -67846.7 1.50435e+06 0 -61312.5 1.38973e+06 0 -55430.6 1.2778e+06 0 -50043 1.16792e+06 0 -45028.8 1.05958e+06 0 -40289.9 952340 0 -35747.5 845843 0 -31339.7 739812 0 -27018.4 634032 0 -22747.2 528346 0 -18499.9 422646 0 -14258.1 316873 0 -10011.4 211021 0 -5750.07 105172 0 -1453.25 -7.21216e-06 0 -2.53955e+06 2.45236e+06 0 -3.09855e+06 1.64722e+06 0 -3.34853e+06 2.36698e+06 0 -3.20454e+06 3.28855e+06 0 -2.77859e+06 3.87437e+06 0 -2.21966e+06 4.05727e+06 0 -1.66157e+06 3.94804e+06 0 -1.18937e+06 3.68901e+06 0 -836247 3.38679e+06 0 -596553 3.09892e+06 0 -444434 2.84514e+06 0 -350016 2.62482e+06 0 -289083 2.43051e+06 0 -246146 2.25503e+06 0 -213125 2.09347e+06 0 -186430 1.94279e+06 0 -164442 1.80084e+06 0 -146131 1.66584e+06 0 -130621 1.53626e+06 0 -117177 1.41081e+06 0 -105246 1.28847e+06 0 -94427.9 1.16841e+06 0 -84425.9 1.04999e+06 0 -75008 932661 0 -65991.9 815996 0 -57236.2 699662 0 -48633.7 583412 0 -40105.6 467075 0 -31597.8 350548 0 -23076.3 233799 0 -14520.7 116876 0 -5915.17 1.01328e-06 0 -2.66588e+06 1.66963e+06 0 -2.54288e+06 2.0014e+06 0 -2.62967e+06 1.86453e+06 0 -2.81925e+06 1.98729e+06 0 -2.92633e+06 2.40846e+06 0 -2.84921e+06 2.91481e+06 0 -2.57831e+06 3.31504e+06 0 -2.17503e+06 3.51812e+06 0 -1.72767e+06 3.52682e+06 0 -1.31336e+06 3.39528e+06 0 -977350 3.18823e+06 0 -731078 2.95653e+06 0 -562492 2.72974e+06 0 -449952 2.51976e+06 0 -372951 2.3281e+06 0 -317034 2.15213e+06 0 -273908 1.98859e+06 0 -239322 1.83478e+06 0 -210950 1.6886e+06 0 -187209 1.54834e+06 0 -166873 1.41256e+06 0 -149007 1.2801e+06 0 -132921 1.14998e+06 0 -118105 1.02143e+06 0 -104165 893836 0 -90799.2 766704 0 -77778.3 639669 0 -64932.8 512469 0 -52144.8 384940 0 -39340.1 257004 0 -26478.2 128661 0 -13545.6 7.15256e-07 0 -2.40848e+06 1.77809e+06 0 -2.50187e+06 1.76347e+06 0 -2.50024e+06 1.89046e+06 0 -2.49721e+06 1.91136e+06 0 -2.56188e+06 1.94524e+06 0 -2.65548e+06 2.11443e+06 0 -2.69449e+06 2.41679e+06 0 -2.60854e+06 2.76474e+06 0 -2.37901e+06 3.05437e+06 0 -2.04076e+06 3.21778e+06 0 -1.65846e+06 3.23939e+06 0 -1.29592e+06 3.1444e+06 0 -994488 2.97579e+06 0 -767308 2.77418e+06 0 -606274 2.56732e+06 0 -494043 2.36905e+06 0 -413777 2.18345e+06 0 -353558 2.0098e+06 0 -306362 1.84599e+06 0 -268230 1.68995e+06 0 -236665 1.5399e+06 0 -209857 1.39437e+06 0 -186453 1.25206e+06 0 -165454 1.11194e+06 0 -146116 973139 0 -127876 834989 0 -110307 696972 0 -93094.8 558715 0 -76016.9 419975 0 -58931.8 280622 0 -41763 140620 0 -24489.6 -4.17233e-07 0 -2.32614e+06 1.65724e+06 0 -2.34378e+06 1.70644e+06 0 -2.39735e+06 1.73875e+06 0 -2.43343e+06 1.81476e+06 0 -2.4393e+06 1.87611e+06 0 -2.45556e+06 1.92303e+06 0 -2.4999e+06 2.01371e+06 0 -2.54451e+06 2.19019e+06 0 -2.53219e+06 2.4412e+06 0 -2.41465e+06 2.70893e+06 0 -2.18169e+06 2.92298e+06 0 -1.86522e+06 3.03396e+06 0 -1.52081e+06 3.02913e+06 0 -1.20154e+06 2.92776e+06 0 -939579 2.76466e+06 0 -742381 2.57345e+06 0 -600403 2.37717e+06 0 -498225 2.18707e+06 0 -422338 2.00634e+06 0 -363694 1.83444e+06 0 -316850 1.66978e+06 0 -278379 1.51077e+06 0 -245875 1.35591e+06 0 -217566 1.20392e+06 0 -192146 1.0537e+06 0 -168647 904356 0 -146342 755200 0 -124691 605728 0 -103314 455604 0 -81962.6 304640 0 -60499.8 152768 0 -38885.6 -1.3113e-06 0 -2.25144e+06 1.64098e+06 0 -2.27624e+06 1.65579e+06 0 -2.29434e+06 1.68253e+06 0 -2.32697e+06 1.71497e+06 0 -2.36579e+06 1.76726e+06 0 -2.38744e+06 1.82855e+06 0 -2.3984e+06 1.88673e+06 0 -2.41689e+06 1.95963e+06 0 -2.44357e+06 2.07908e+06 0 -2.44824e+06 2.2602e+06 0 -2.38549e+06 2.48223e+06 0 -2.22446e+06 2.69504e+06 0 -1.96961e+06 2.84396e+06 0 -1.65903e+06 2.89494e+06 0 -1.34441e+06 2.8455e+06 0 -1.06769e+06 2.71842e+06 0 -848444 2.54602e+06 0 -685407 2.35589e+06 0 -566425 2.16466e+06 0 -478045 1.97918e+06 0 -410162 1.8007e+06 0 -356289 1.62839e+06 0 -312232 1.46094e+06 0 -275053 1.29698e+06 0 -242606 1.13523e+06 0 -213312 974591 0 -186002 814201 0 -159811 653404 0 -134122 491762 0 -108528 329025 0 -82799.3 165103 0 -56859.8 1.78814e-07 0 -2.20155e+06 1.6234e+06 0 -2.22008e+06 1.6362e+06 0 -2.24139e+06 1.65102e+06 0 -2.25928e+06 1.67055e+06 0 -2.28141e+06 1.69844e+06 0 -2.31255e+06 1.73854e+06 0 -2.3392e+06 1.79131e+06 0 -2.35451e+06 1.85022e+06 0 -2.36543e+06 1.91874e+06 0 -2.37865e+06 2.01438e+06 0 -2.38149e+06 2.155e+06 0 -2.3403e+06 2.33828e+06 0 -2.22011e+06 2.53309e+06 0 -2.00951e+06 2.69096e+06 0 -1.73102e+06 2.76975e+06 0 -1.42985e+06 2.7527e+06 0 -1.15103e+06 2.65146e+06 0 -921476 2.49434e+06 0 -746304 2.31028e+06 0 -616636 2.11902e+06 0 -519856 1.92991e+06 0 -445574 1.74569e+06 0 -386737 1.56622e+06 0 -338624 1.39051e+06 0 -297887 1.21732e+06 0 -262078 1.04542e+06 0 -229399 873787 0 -198526 701620 0 -168508 528373 0 -138707 353739 0 -108757 177610 0 -78525.6 3.57628e-07 0 -2.16473e+06 1.6154e+06 0 -2.17952e+06 1.62265e+06 0 -2.19585e+06 1.63338e+06 0 -2.21475e+06 1.64701e+06 0 -2.23247e+06 1.66351e+06 0 -2.2504e+06 1.68731e+06 0 -2.27435e+06 1.72053e+06 0 -2.29932e+06 1.76565e+06 0 -2.31715e+06 1.8209e+06 0 -2.32708e+06 1.88651e+06 0 -2.33342e+06 1.97146e+06 0 -2.33086e+06 2.08996e+06 0 -2.29554e+06 2.24645e+06 0 -2.195e+06 2.42179e+06 0 -2.01106e+06 2.57522e+06 0 -1.75612e+06 2.66318e+06 0 -1.46906e+06 2.66134e+06 0 -1.19469e+06 2.5739e+06 0 -963333 2.42545e+06 0 -783756 2.24478e+06 0 -649335 2.05283e+06 0 -548387 1.86016e+06 0 -470705 1.67031e+06 0 -409054 1.48365e+06 0 -358413 1.29942e+06 0 -315160 1.11648e+06 0 -276638 933725 0 -240894 750227 0 -206519 565349 0 -172560 378733 0 -138453 190269 0 -103980 5.96046e-08 0 -2.13742e+06 1.6141e+06 0 -2.14965e+06 1.61744e+06 0 -2.1629e+06 1.62301e+06 0 -2.17742e+06 1.63184e+06 0 -2.19418e+06 1.64404e+06 0 -2.21119e+06 1.659e+06 0 -2.22752e+06 1.67995e+06 0 -2.2469e+06 1.70893e+06 0 -2.2684e+06 1.74863e+06 0 -2.28595e+06 1.79972e+06 0 -2.29568e+06 1.86246e+06 0 -2.29844e+06 1.94183e+06 0 -2.29068e+06 2.04825e+06 0 -2.25417e+06 2.18749e+06 0 -2.16018e+06 2.34644e+06 0 -1.98897e+06 2.48985e+06 0 -1.74812e+06 2.57511e+06 0 -1.4725e+06 2.57498e+06 0 -1.20563e+06 2.49016e+06 0 -978437 2.34324e+06 0 -800695 2.1623e+06 0 -666679 1.96808e+06 0 -565417 1.77115e+06 0 -487114 1.5752e+06 0 -424610 1.3808e+06 0 -372762 1.18732e+06 0 -327799 993723 0 -286945 799049 0 -248182 602586 0 -210127 403949 0 -171946 203054 0 -133304 -4.76837e-07 0 -2.11675e+06 1.61639e+06 0 -2.12693e+06 1.61739e+06 0 -2.13812e+06 1.61983e+06 0 -2.15025e+06 1.62418e+06 0 -2.16342e+06 1.63147e+06 0 -2.17841e+06 1.64223e+06 0 -2.1943e+06 1.65612e+06 0 -2.20971e+06 1.67525e+06 0 -2.22642e+06 1.70157e+06 0 -2.2447e+06 1.73772e+06 0 -2.26047e+06 1.78553e+06 0 -2.26913e+06 1.84588e+06 0 -2.2691e+06 1.92211e+06 0 -2.25626e+06 2.02192e+06 0 -2.21481e+06 2.1503e+06 0 -2.11902e+06 2.29613e+06 0 -1.95028e+06 2.42681e+06 0 -1.71554e+06 2.50115e+06 0 -1.44835e+06 2.4922e+06 0 -1.19081e+06 2.40068e+06 0 -972261 2.24897e+06 0 -801276 2.06423e+06 0 -671848 1.86588e+06 0 -573465 1.66352e+06 0 -496851 1.4605e+06 0 -435055 1.25734e+06 0 -382937 1.05343e+06 0 -336682 847872 0 -293493 639963 0 -251423 429326 0 -209279 215939 0 -166557 9.53674e-07 0 -2.10066e+06 1.62103e+06 0 -2.10936e+06 1.6203e+06 0 -2.11884e+06 1.62067e+06 0 -2.12926e+06 1.62239e+06 0 -2.14056e+06 1.62586e+06 0 -2.15273e+06 1.63199e+06 0 -2.16636e+06 1.64151e+06 0 -2.18104e+06 1.65455e+06 0 -2.19557e+06 1.67254e+06 0 -2.21054e+06 1.69729e+06 0 -2.22621e+06 1.73132e+06 0 -2.23959e+06 1.77702e+06 0 -2.24619e+06 1.83583e+06 0 -2.24292e+06 1.91049e+06 0 -2.22431e+06 2.0069e+06 0 -2.17501e+06 2.12837e+06 0 -2.07138e+06 2.26302e+06 0 -1.8977e+06 2.37854e+06 0 -1.66342e+06 2.43525e+06 0 -1.40298e+06 2.40903e+06 0 -1.15672e+06 2.30357e+06 0 -950558 2.14226e+06 0 -790147 1.95088e+06 0 -668473 1.74656e+06 0 -575384 1.53732e+06 0 -502143 1.32583e+06 0 -442056 1.1124e+06 0 -390068 896449 0 -342417 677347 0 -296440 454794 0 -250469 228894 0 -203779 -5.36442e-07 0 -2.0877e+06 1.62709e+06 0 -2.09537e+06 1.6252e+06 0 -2.10365e+06 1.62403e+06 0 -2.11264e+06 1.62386e+06 0 -2.12248e+06 1.62501e+06 0 -2.13313e+06 1.62784e+06 0 -2.14457e+06 1.63315e+06 0 -2.15717e+06 1.64173e+06 0 -2.17073e+06 1.65411e+06 0 -2.18431e+06 1.67146e+06 0 -2.19788e+06 1.69542e+06 0 -2.21133e+06 1.72846e+06 0 -2.22204e+06 1.7732e+06 0 -2.22569e+06 1.83149e+06 0 -2.21813e+06 1.90583e+06 0 -2.19224e+06 2.00086e+06 0 -2.13201e+06 2.11746e+06 0 -2.01564e+06 2.24101e+06 0 -1.83186e+06 2.33792e+06 0 -1.5951e+06 2.37065e+06 0 -1.34177e+06 2.32044e+06 0 -1.1095e+06 2.19598e+06 0 -918985 2.02197e+06 0 -771954 1.82186e+06 0 -660224 1.60981e+06 0 -574016 1.39194e+06 0 -505092 1.17015e+06 0 -447015 944492 0 -394881 714586 0 -345138 480283 0 -295512 241889 0 -244986 5.96046e-08 0 -2.07665e+06 1.63393e+06 0 -2.08375e+06 1.63132e+06 0 -2.09126e+06 1.62912e+06 0 -2.0993e+06 1.62756e+06 0 -2.10795e+06 1.62695e+06 0 -2.11736e+06 1.62763e+06 0 -2.12751e+06 1.63e+06 0 -2.13838e+06 1.63475e+06 0 -2.15017e+06 1.64272e+06 0 -2.16274e+06 1.6547e+06 0 -2.17532e+06 1.6718e+06 0 -2.18756e+06 1.69562e+06 0 -2.19886e+06 1.7286e+06 0 -2.20659e+06 1.77345e+06 0 -2.20635e+06 1.83222e+06 0 -2.19302e+06 1.90734e+06 0 -2.15755e+06 2.00213e+06 0 -2.08289e+06 2.11418e+06 0 -1.94961e+06 2.22457e+06 0 -1.75283e+06 2.29788e+06 0 -1.51361e+06 2.30046e+06 0 -1.27002e+06 2.22133e+06 0 -1.05508e+06 2.07509e+06 0 -882867 1.88672e+06 0 -751032 1.67632e+06 0 -650496 1.45468e+06 0 -571888 1.22608e+06 0 -507375 991679 0 -450765 751519 0 -397445 505721 0 -344378 254898 0 -290174 1.78814e-07 0 -2.06659e+06 1.64108e+06 0 -2.0735e+06 1.63809e+06 0 -2.08065e+06 1.63527e+06 0 -2.08814e+06 1.63278e+06 0 -2.09606e+06 1.63088e+06 0 -2.10451e+06 1.62991e+06 0 -2.1136e+06 1.63022e+06 0 -2.12337e+06 1.63225e+06 0 -2.13377e+06 1.63668e+06 0 -2.1449e+06 1.64435e+06 0 -2.15656e+06 1.65622e+06 0 -2.16808e+06 1.67348e+06 0 -2.17887e+06 1.69774e+06 0 -2.18785e+06 1.73148e+06 0 -2.19206e+06 1.77741e+06 0 -2.18677e+06 1.83762e+06 0 -2.16566e+06 1.91435e+06 0 -2.11754e+06 2.00913e+06 0 -2.02456e+06 2.11502e+06 0 -1.8713e+06 2.20775e+06 0 -1.66132e+06 2.25113e+06 0 -1.42277e+06 2.21811e+06 0 -1.19331e+06 2.10737e+06 0 -999097 1.93856e+06 0 -846983 1.73516e+06 0 -731183 1.51299e+06 0 -642170 1.27958e+06 0 -570920 1.03766e+06 0 -509898 787974 0 -453253 531037 0 -397014 267895 0 -339313 -1.78814e-07 0 -2.05673e+06 1.64824e+06 0 -2.06384e+06 1.64514e+06 0 -2.07099e+06 1.64199e+06 0 -2.0783e+06 1.63893e+06 0 -2.08586e+06 1.63618e+06 0 -2.09376e+06 1.634e+06 0 -2.10211e+06 1.63273e+06 0 -2.111e+06 1.63275e+06 0 -2.12045e+06 1.63458e+06 0 -2.13045e+06 1.63889e+06 0 -2.14098e+06 1.64655e+06 0 -2.15176e+06 1.65865e+06 0 -2.16211e+06 1.67648e+06 0 -2.17119e+06 1.70177e+06 0 -2.17739e+06 1.73704e+06 0 -2.17721e+06 1.78492e+06 0 -2.1653e+06 1.84738e+06 0 -2.13373e+06 1.9261e+06 0 -2.0691e+06 2.01978e+06 0 -1.95403e+06 2.11551e+06 0 -1.77966e+06 2.18376e+06 0 -1.55964e+06 2.19034e+06 0 -1.32761e+06 2.11806e+06 0 -1.1175e+06 1.97542e+06 0 -946687 1.7847e+06 0 -815400 1.56578e+06 0 -715517 1.32997e+06 0 -637340 1.08206e+06 0 -572047 823774 0 -512417 556168 0 -453339 280864 0 -392351 1.19209e-07 0 -2.04642e+06 1.65517e+06 0 -2.05408e+06 1.65219e+06 0 -2.06161e+06 1.64896e+06 0 -2.06911e+06 1.64562e+06 0 -2.07665e+06 1.64234e+06 0 -2.08436e+06 1.63934e+06 0 -2.09232e+06 1.6369e+06 0 -2.10063e+06 1.63539e+06 0 -2.10938e+06 1.63523e+06 0 -2.11858e+06 1.63698e+06 0 -2.12818e+06 1.64135e+06 0 -2.13811e+06 1.6493e+06 0 -2.14794e+06 1.662e+06 0 -2.1569e+06 1.68086e+06 0 -2.16385e+06 1.70779e+06 0 -2.1665e+06 1.74533e+06 0 -2.16065e+06 1.7959e+06 0 -2.13992e+06 1.86113e+06 0 -2.09436e+06 1.94137e+06 0 -2.00889e+06 2.03087e+06 0 -1.86911e+06 2.10969e+06 0 -1.67563e+06 2.14504e+06 0 -1.45222e+06 2.10898e+06 0 -1.23427e+06 1.99646e+06 0 -1.0482e+06 1.82366e+06 0 -902176 1.61206e+06 0 -791354 1.37658e+06 0 -706226 1.1245e+06 0 -636917 858749 0 -574747 581064 0 -513252 293796 0 -449217 -1.19209e-07 0 -2.03511e+06 1.66169e+06 0 -2.04367e+06 1.65904e+06 0 -2.05192e+06 1.65596e+06 0 -2.05995e+06 1.65256e+06 0 -2.06784e+06 1.649e+06 0 -2.07568e+06 1.64548e+06 0 -2.08359e+06 1.64224e+06 0 -2.09165e+06 1.63958e+06 0 -2.09997e+06 1.63788e+06 0 -2.10861e+06 1.63764e+06 0 -2.11757e+06 1.63946e+06 0 -2.12677e+06 1.64411e+06 0 -2.136e+06 1.65265e+06 0 -2.14471e+06 1.66635e+06 0 -2.15193e+06 1.68677e+06 0 -2.15605e+06 1.71597e+06 0 -2.154e+06 1.75645e+06 0 -2.14063e+06 1.81024e+06 0 -2.10804e+06 1.87817e+06 0 -2.04416e+06 1.9579e+06 0 -1.9339e+06 2.03739e+06 0 -1.7694e+06 2.09006e+06 0 -1.56292e+06 2.08404e+06 0 -1.34557e+06 2.00225e+06 0 -1.1492e+06 1.85134e+06 0 -990260 1.65101e+06 0 -868942 1.41882e+06 0 -777070 1.16462e+06 0 -704142 892739 0 -640012 605690 0 -576625 306697 0 -509821 1.78814e-07 0 -2.02235e+06 1.66764e+06 0 -2.03213e+06 1.66553e+06 0 -2.04143e+06 1.6628e+06 0 -2.05033e+06 1.65956e+06 0 -2.05889e+06 1.65595e+06 0 -2.06721e+06 1.65215e+06 0 -2.07539e+06 1.64837e+06 0 -2.08353e+06 1.64488e+06 0 -2.09173e+06 1.64202e+06 0 -2.10007e+06 1.64022e+06 0 -2.1086e+06 1.64e+06 0 -2.11729e+06 1.64205e+06 0 -2.12598e+06 1.64723e+06 0 -2.13434e+06 1.6567e+06 0 -2.14162e+06 1.67185e+06 0 -2.14652e+06 1.69439e+06 0 -2.14678e+06 1.72651e+06 0 -2.13838e+06 1.77046e+06 0 -2.11486e+06 1.82756e+06 0 -2.06646e+06 1.89697e+06 0 -1.97962e+06 1.97168e+06 0 -1.84249e+06 2.03222e+06 0 -1.65755e+06 2.04825e+06 0 -1.44817e+06 1.99472e+06 0 -1.24724e+06 1.86776e+06 0 -1.0782e+06 1.68212e+06 0 -947405 1.45618e+06 0 -849271 1.20209e+06 0 -773288 925607 0 -707937 630040 0 -643313 319589 0 -574060 -1.78814e-07 0 -2.00775e+06 1.67287e+06 0 -2.01904e+06 1.6715e+06 0 -2.02971e+06 1.66932e+06 0 -2.0398e+06 1.66644e+06 0 -2.04938e+06 1.66299e+06 0 -2.0585e+06 1.65912e+06 0 -2.06728e+06 1.65504e+06 0 -2.07581e+06 1.65098e+06 0 -2.08419e+06 1.64725e+06 0 -2.09251e+06 1.64423e+06 0 -2.10086e+06 1.64239e+06 0 -2.10924e+06 1.64233e+06 0 -2.11756e+06 1.64481e+06 0 -2.12559e+06 1.65082e+06 0 -2.13278e+06 1.66161e+06 0 -2.13811e+06 1.67871e+06 0 -2.1398e+06 1.70398e+06 0 -2.13472e+06 1.73957e+06 0 -2.11761e+06 1.78718e+06 0 -2.08041e+06 1.84684e+06 0 -2.01151e+06 1.91442e+06 0 -1.89811e+06 1.97631e+06 0 -1.73599e+06 2.00655e+06 0 -1.53992e+06 1.97674e+06 0 -1.34007e+06 1.87374e+06 0 -1.16445e+06 1.70525e+06 0 -1.02576e+06 1.48832e+06 0 -922143 1.23663e+06 0 -843853 957246 0 -778199 654139 0 -713155 332523 0 -641823 1.78814e-07 0 -1.991e+06 1.67721e+06 0 -2.00407e+06 1.6768e+06 0 -2.0164e+06 1.67538e+06 0 -2.028e+06 1.67307e+06 0 -2.0389e+06 1.66997e+06 0 -2.04916e+06 1.66623e+06 0 -2.05886e+06 1.66205e+06 0 -2.06809e+06 1.65764e+06 0 -2.07695e+06 1.65329e+06 0 -2.08555e+06 1.64933e+06 0 -2.09397e+06 1.64619e+06 0 -2.10226e+06 1.64441e+06 0 -2.11039e+06 1.64468e+06 0 -2.11819e+06 1.64785e+06 0 -2.12527e+06 1.65503e+06 0 -2.13083e+06 1.66759e+06 0 -2.13343e+06 1.68719e+06 0 -2.13059e+06 1.71576e+06 0 -2.11804e+06 1.75511e+06 0 -2.08905e+06 1.80589e+06 0 -2.03373e+06 1.86569e+06 0 -1.9399e+06 1.92503e+06 0 -1.79956e+06 1.96302e+06 0 -1.61988e+06 1.95151e+06 0 -1.42594e+06 1.87074e+06 0 -1.24753e+06 1.72067e+06 0 -1.103e+06 1.51509e+06 0 -994946 1.26806e+06 0 -915273 987589 0 -850433 678050 0 -785978 345575 0 -713002 -2.38419e-07 0 -1.97187e+06 1.68045e+06 0 -1.98696e+06 1.68126e+06 0 -2.00121e+06 1.68084e+06 0 -2.0146e+06 1.67931e+06 0 -2.02714e+06 1.67676e+06 0 -2.03884e+06 1.67336e+06 0 -2.04978e+06 1.66926e+06 0 -2.06003e+06 1.6647e+06 0 -2.06968e+06 1.65992e+06 0 -2.07884e+06 1.65525e+06 0 -2.0876e+06 1.65108e+06 0 -2.09604e+06 1.64791e+06 0 -2.10417e+06 1.64633e+06 0 -2.11189e+06 1.64714e+06 0 -2.1189e+06 1.6513e+06 0 -2.1246e+06 1.66006e+06 0 -2.12781e+06 1.6749e+06 0 -2.12652e+06 1.69755e+06 0 -2.11723e+06 1.72978e+06 0 -2.09432e+06 1.77262e+06 0 -2.04933e+06 1.82475e+06 0 -1.97122e+06 1.87952e+06 0 -1.85035e+06 1.92054e+06 0 -1.68814e+06 1.92204e+06 0 -1.50373e+06 1.86059e+06 0 -1.32618e+06 1.72903e+06 0 -1.17811e+06 1.53652e+06 0 -1.06691e+06 1.29627e+06 0 -986937 1.01661e+06 0 -924230 701884 0 -861603 358863 0 -787498 0 0 -1.9502e+06 1.6824e+06 0 -1.96749e+06 1.68469e+06 0 -1.9839e+06 1.68553e+06 0 -1.99934e+06 1.68501e+06 0 -2.0138e+06 1.68325e+06 0 -2.02726e+06 1.68037e+06 0 -2.03975e+06 1.67656e+06 0 -2.05133e+06 1.67202e+06 0 -2.06208e+06 1.66701e+06 0 -2.07209e+06 1.66182e+06 0 -2.08147e+06 1.65684e+06 0 -2.09031e+06 1.65251e+06 0 -2.09865e+06 1.6494e+06 0 -2.10645e+06 1.64821e+06 0 -2.11349e+06 1.64983e+06 0 -2.11931e+06 1.65536e+06 0 -2.12296e+06 1.66616e+06 0 -2.12278e+06 1.68378e+06 0 -2.11587e+06 1.7099e+06 0 -2.09749e+06 1.74571e+06 0 -2.06042e+06 1.79064e+06 0 -1.99481e+06 1.83995e+06 0 -1.89069e+06 1.88085e+06 0 -1.74559e+06 1.89083e+06 0 -1.57298e+06 1.84524e+06 0 -1.39943e+06 1.73128e+06 0 -1.2502e+06 1.55287e+06 0 -1.13729e+06 1.32125e+06 0 -1.0582e+06 1.04434e+06 0 -999137 725799 0 -939853 372548 0 -865235 1.19209e-07 0 -1.92594e+06 1.68281e+06 0 -1.94556e+06 1.68688e+06 0 -1.9643e+06 1.68926e+06 0 -1.98202e+06 1.69003e+06 0 -1.99866e+06 1.68929e+06 0 -2.01416e+06 1.68717e+06 0 -2.02851e+06 1.68384e+06 0 -2.04173e+06 1.67951e+06 0 -2.05388e+06 1.67442e+06 0 -2.06504e+06 1.6689e+06 0 -2.07532e+06 1.66328e+06 0 -2.08482e+06 1.658e+06 0 -2.09359e+06 1.65359e+06 0 -2.10165e+06 1.65071e+06 0 -2.10885e+06 1.65015e+06 0 -2.11484e+06 1.65293e+06 0 -2.11885e+06 1.66026e+06 0 -2.1195e+06 1.67358e+06 0 -2.11435e+06 1.69443e+06 0 -2.09942e+06 1.72405e+06 0 -2.06845e+06 1.76237e+06 0 -2.01278e+06 1.80597e+06 0 -1.92273e+06 1.84483e+06 0 -1.79353e+06 1.85972e+06 0 -1.63378e+06 1.82651e+06 0 -1.46668e+06 1.72852e+06 0 -1.31853e+06 1.56457e+06 0 -1.20538e+06 1.34307e+06 0 -1.12839e+06 1.07081e+06 0 -1.07466e+06 750002 0 -1.02055e+06 386850 0 -946178 -3.57628e-07 0 -1.89911e+06 1.68141e+06 0 -1.92112e+06 1.6876e+06 0 -1.94231e+06 1.69183e+06 0 -1.96249e+06 1.69419e+06 0 -1.98153e+06 1.69474e+06 0 -1.99933e+06 1.69362e+06 0 -2.01582e+06 1.69099e+06 0 -2.03099e+06 1.68706e+06 0 -2.04485e+06 1.68209e+06 0 -2.05747e+06 1.67637e+06 0 -2.06893e+06 1.67028e+06 0 -2.07934e+06 1.66422e+06 0 -2.08879e+06 1.65871e+06 0 -2.09731e+06 1.65436e+06 0 -2.10482e+06 1.65192e+06 0 -2.11106e+06 1.65231e+06 0 -2.11541e+06 1.65664e+06 0 -2.11672e+06 1.66624e+06 0 -2.11293e+06 1.68252e+06 0 -2.10063e+06 1.70672e+06 0 -2.07444e+06 1.73904e+06 0 -2.02668e+06 1.77703e+06 0 -1.94833e+06 1.81275e+06 0 -1.83337e+06 1.82992e+06 0 -1.68666e+06 1.80593e+06 0 -1.52768e+06 1.72188e+06 0 -1.38254e+06 1.57215e+06 0 -1.27056e+06 1.36189e+06 0 -1.19685e+06 1.09614e+06 0 -1.15024e+06 774750 0 -1.10354e+06 402055 0 -1.03035e+06 5.96046e-08 0 -1.86983e+06 1.67797e+06 0 -1.89421e+06 1.68659e+06 0 -1.9179e+06 1.69301e+06 0 -1.94066e+06 1.69728e+06 0 -1.96229e+06 1.69944e+06 0 -1.98262e+06 1.69959e+06 0 -2.00152e+06 1.69791e+06 0 -2.01892e+06 1.69459e+06 0 -2.03479e+06 1.68991e+06 0 -2.04917e+06 1.68417e+06 0 -2.06211e+06 1.67774e+06 0 -2.07371e+06 1.67106e+06 0 -2.08407e+06 1.6646e+06 0 -2.09325e+06 1.65897e+06 0 -2.10124e+06 1.65487e+06 0 -2.10783e+06 1.65316e+06 0 -2.11255e+06 1.65488e+06 0 -2.11443e+06 1.66122e+06 0 -2.11173e+06 1.67352e+06 0 -2.1015e+06 1.69294e+06 0 -2.07906e+06 1.71988e+06 0 -2.03765e+06 1.75253e+06 0 -1.96898e+06 1.78454e+06 0 -1.86651e+06 1.80215e+06 0 -1.73237e+06 1.78471e+06 0 -1.5825e+06 1.71244e+06 0 -1.44191e+06 1.57622e+06 0 -1.33233e+06 1.37791e+06 0 -1.26293e+06 1.1204e+06 0 -1.22529e+06 800336 0 -1.18867e+06 418526 0 -1.11787e+06 -2.98023e-07 0 -1.8383e+06 1.67223e+06 0 -1.86495e+06 1.68361e+06 0 -1.89113e+06 1.69256e+06 0 -1.91651e+06 1.69909e+06 0 -1.94085e+06 1.70319e+06 0 -1.9639e+06 1.70493e+06 0 -1.98545e+06 1.70447e+06 0 -2.00536e+06 1.70201e+06 0 -2.02354e+06 1.69782e+06 0 -2.03996e+06 1.69222e+06 0 -2.05467e+06 1.68561e+06 0 -2.06774e+06 1.67841e+06 0 -2.07927e+06 1.67114e+06 0 -2.08934e+06 1.66438e+06 0 -2.09798e+06 1.6588e+06 0 -2.10506e+06 1.65523e+06 0 -2.1102e+06 1.65462e+06 0 -2.11262e+06 1.6581e+06 0 -2.11081e+06 1.66688e+06 0 -2.10223e+06 1.68208e+06 0 -2.0828e+06 1.70419e+06 0 -2.04652e+06 1.73187e+06 0 -1.98585e+06 1.75995e+06 0 -1.89419e+06 1.77675e+06 0 -1.77177e+06 1.76372e+06 0 -1.6314e+06 1.70112e+06 0 -1.49648e+06 1.57739e+06 0 -1.39031e+06 1.39138e+06 0 -1.32605e+06 1.14369e+06 0 -1.29915e+06 827084 0 -1.27579e+06 436727 0 -1.20895e+06 1.19209e-07 0 -1.8048e+06 1.66399e+06 0 -1.83357e+06 1.67843e+06 0 -1.86212e+06 1.69025e+06 0 -1.89011e+06 1.69939e+06 0 -1.91722e+06 1.70579e+06 0 -1.94311e+06 1.70946e+06 0 -1.9675e+06 1.71054e+06 0 -1.99017e+06 1.7092e+06 0 -2.01093e+06 1.70573e+06 0 -2.02971e+06 1.70046e+06 0 -2.04649e+06 1.69381e+06 0 -2.0613e+06 1.68623e+06 0 -2.07426e+06 1.67826e+06 0 -2.08544e+06 1.67048e+06 0 -2.09492e+06 1.66357e+06 0 -2.10262e+06 1.65831e+06 0 -2.10828e+06 1.65561e+06 0 -2.11122e+06 1.65652e+06 0 -2.1102e+06 1.66218e+06 0 -2.10297e+06 1.67363e+06 0 -2.08597e+06 1.69141e+06 0 -2.05388e+06 1.7145e+06 0 -1.99985e+06 1.73863e+06 0 -1.91748e+06 1.75382e+06 0 -1.80574e+06 1.74352e+06 0 -1.67484e+06 1.6887e+06 0 -1.54628e+06 1.57625e+06 0 -1.44428e+06 1.40255e+06 0 -1.38568e+06 1.16606e+06 0 -1.37108e+06 855320 0 -1.36476e+06 457234 0 -1.30401e+06 -5.96046e-08 0 -1.76969e+06 1.65311e+06 0 -1.80033e+06 1.67087e+06 0 -1.83109e+06 1.68586e+06 0 -1.86159e+06 1.69797e+06 0 -1.89143e+06 1.70703e+06 0 -1.92024e+06 1.713e+06 0 -1.94763e+06 1.71596e+06 0 -1.97326e+06 1.71605e+06 0 -1.99687e+06 1.71355e+06 0 -2.01829e+06 1.70882e+06 0 -2.03742e+06 1.70229e+06 0 -2.05427e+06 1.69446e+06 0 -2.06892e+06 1.68589e+06 0 -2.08145e+06 1.67719e+06 0 -2.09196e+06 1.66904e+06 0 -2.10044e+06 1.66223e+06 0 -2.1067e+06 1.65763e+06 0 -2.11021e+06 1.65623e+06 0 -2.10989e+06 1.65908e+06 0 -2.10381e+06 1.66717e+06 0 -2.08881e+06 1.68105e+06 0 -2.06015e+06 1.69994e+06 0 -2.01166e+06 1.72022e+06 0 -1.93724e+06 1.73332e+06 0 -1.8351e+06 1.72449e+06 0 -1.71333e+06 1.67576e+06 0 -1.59147e+06 1.57332e+06 0 -1.49413e+06 1.41167e+06 0 -1.4414e+06 1.18754e+06 0 -1.44025e+06 885349 0 -1.45538e+06 480766 0 -1.40365e+06 -5.96046e-08 0 -1.73336e+06 1.63949e+06 0 -1.76558e+06 1.66077e+06 0 -1.7983e+06 1.67922e+06 0 -1.83112e+06 1.69462e+06 0 -1.86362e+06 1.70671e+06 0 -1.89534e+06 1.71536e+06 0 -1.9258e+06 1.72056e+06 0 -1.95457e+06 1.72242e+06 0 -1.98126e+06 1.72119e+06 0 -2.00558e+06 1.71723e+06 0 -2.02737e+06 1.711e+06 0 -2.04655e+06 1.70305e+06 0 -2.06315e+06 1.69397e+06 0 -2.07727e+06 1.68444e+06 0 -2.08901e+06 1.67515e+06 0 -2.09843e+06 1.66689e+06 0 -2.1054e+06 1.66053e+06 0 -2.10952e+06 1.65699e+06 0 -2.10987e+06 1.6573e+06 0 -2.10477e+06 1.66237e+06 0 -2.09144e+06 1.67272e+06 0 -2.06565e+06 1.68775e+06 0 -2.0218e+06 1.70437e+06 0 -1.95419e+06 1.71509e+06 0 -1.86059e+06 1.70679e+06 0 -1.74743e+06 1.66276e+06 0 -1.63231e+06 1.56906e+06 0 -1.53986e+06 1.419e+06 0 -1.49293e+06 1.20807e+06 0 -1.50572e+06 917410 0 -1.54741e+06 508214 0 -1.50884e+06 5.96046e-08 0 -1.69621e+06 1.62314e+06 0 -1.7297e+06 1.64806e+06 0 -1.76408e+06 1.67018e+06 0 -1.79898e+06 1.68915e+06 0 -1.83396e+06 1.70461e+06 0 -1.86851e+06 1.71633e+06 0 -1.90207e+06 1.72417e+06 0 -1.93408e+06 1.72817e+06 0 -1.96404e+06 1.72854e+06 0 -1.99152e+06 1.72562e+06 0 -2.01624e+06 1.7199e+06 0 -2.03803e+06 1.71196e+06 0 -2.05687e+06 1.70249e+06 0 -2.07282e+06 1.69219e+06 0 -2.08602e+06 1.68182e+06 0 -2.09653e+06 1.67219e+06 0 -2.10433e+06 1.66416e+06 0 -2.10911e+06 1.65865e+06 0 -2.11012e+06 1.65661e+06 0 -2.10591e+06 1.65892e+06 0 -2.09399e+06 1.66608e+06 0 -2.07058e+06 1.67758e+06 0 -2.03065e+06 1.69073e+06 0 -1.96889e+06 1.69894e+06 0 -1.88284e+06 1.6905e+06 0 -1.77767e+06 1.64999e+06 0 -1.66915e+06 1.5638e+06 0 -1.58154e+06 1.42474e+06 0 -1.54013e+06 1.22755e+06 0 -1.56647e+06 951636 0 -1.64044e+06 540663 0 -1.62096e+06 -4.76837e-07 0 -1.65857e+06 1.60421e+06 0 -1.69307e+06 1.63278e+06 0 -1.72876e+06 1.65874e+06 0 -1.76545e+06 1.6815e+06 0 -1.80268e+06 1.70063e+06 0 -1.83991e+06 1.71575e+06 0 -1.87651e+06 1.72662e+06 0 -1.91182e+06 1.73315e+06 0 -1.94519e+06 1.73546e+06 0 -1.97605e+06 1.73388e+06 0 -2.00397e+06 1.7289e+06 0 -2.02866e+06 1.72116e+06 0 -2.05001e+06 1.7114e+06 0 -2.06805e+06 1.7004e+06 0 -2.0829e+06 1.689e+06 0 -2.09469e+06 1.67805e+06 0 -2.10344e+06 1.66843e+06 0 -2.10895e+06 1.66106e+06 0 -2.11063e+06 1.65685e+06 0 -2.10721e+06 1.65662e+06 0 -2.0965e+06 1.66086e+06 0 -2.07513e+06 1.66912e+06 0 -2.03851e+06 1.67902e+06 0 -1.98178e+06 1.6847e+06 0 -1.90239e+06 1.67564e+06 0 -1.80453e+06 1.63772e+06 0 -1.70238e+06 1.55789e+06 0 -1.61929e+06 1.42912e+06 0 -1.5831e+06 1.24584e+06 0 -1.62135e+06 987941 0 -1.73375e+06 579510 0 -1.74206e+06 9.53674e-07 0 </DataArray> 
</PointData> 
<Points> 
<DataArray type="Float32" NumberOfComponents="3"> 