<?xml version="1.0"?> 
<VTKFile type="StructuredGrid" version="0.1"> 
<StructuredGrid WholeExtent="0 31 0 31 0 0"> 
<Piece Extent="0 31 0 31 0 0"> 
<PointData>
<DataArray type="Float32" Name="|E|" format="ascii" NumberOfComponents="3"> 
-1.65256e+06 0 0 -1.65294e+06 31015.3 0 -1.65408e+06 62058.4 0 -1.65596e+06 93157.3 0 -1.65858e+06 124340 0 -1.66195e+06 155636 0 -1.66607e+06 187072 0 -1.67092e+06 218677 0 -1.67651e+06 250481 0 -1.68283e+06 282511 0 -1.68988e+06 314797 0 -1.69765e+06 347368 0 -1.70614e+06 380253 0 -1.71533e+06 413482 0 -1.72522e+06 447083 0 -1.7358e+06 481086 0 -1.74704e+06 515520 0 -1.75894e+06 550414 0 -1.77147e+06 585795 0 -1.78461e+06 621690 0 -1.79834e+06 658126 0 -1.81261e+06 695125 0 -1.82739e+06 732710 0 -1.84264e+06 770898 0 -1.85829e+06 809705 0 -1.87429e+06 849139 0 -1.89056e+06 889201 0 -1.90701e+06 929887 0 -1.92353e+06 971177 0 -1.94002e+06 1.01304e+06 0 -1.95632e+06 1.05543e+06 0 -1.97228e+06 1.09828e+06 0 -1.64144e+06 0 0 -1.64181e+06 31103.1 0 -1.64292e+06 62233.4 0 -1.64475e+06 93418.3 0 -1.64731e+06 124685 0 -1.6506e+06 156062 0 -1.65461e+06 187577 0 -1.65935e+06 219257 0 -1.6648e+06 251130 0 -1.67097e+06 283225 0 -1.67784e+06 315569 0 -1.68542e+06 348191 0 -1.6937e+06 381119 0 -1.70266e+06 414381 0 -1.71231e+06 448006 0 -1.72262e+06 482022 0 -1.73359e+06 516456 0 -1.74519e+06 551335 0 -1.75742e+06 586686 0 -1.77024e+06 622535 0 -1.78363e+06 658904 0 -1.79755e+06 695815 0 -1.81199e+06 733289 0 -1.82687e+06 771340 0 -1.84217e+06 809980 0 -1.85782e+06 849216 0 -1.87374e+06 889046 0 -1.88986e+06 929461 0 -1.90609e+06 970439 0 -1.9223e+06 1.01195e+06 0 -1.93838e+06 1.05393e+06 0 -1.95417e+06 1.09633e+06 0 -1.63022e+06 0 0 -1.63059e+06 31184.4 0 -1.63167e+06 62395.4 0 -1.63345e+06 93659.7 0 -1.63595e+06 125004 0 -1.63916e+06 156457 0 -1.64307e+06 188043 0 -1.64769e+06 219791 0 -1.65301e+06 251728 0 -1.65902e+06 283881 0 -1.66572e+06 316277 0 -1.67312e+06 348944 0 -1.68119e+06 381909 0 -1.68993e+06 415200 0 -1.69934e+06 448844 0 -1.70939e+06 482867 0 -1.72009e+06 517296 0 -1.7314e+06 552157 0 -1.74333e+06 587475 0 -1.75583e+06 623274 0 -1.7689e+06 659574 0 -1.78249e+06 696398 0 -1.79658e+06 733761 0 -1.81112e+06 771677 0 -1.82607e+06 810155 0 -1.84138e+06 849200 0 -1.85697e+06 888807 0 -1.87277e+06 928964 0 -1.8887e+06 969648 0 -1.90465e+06 1.01082e+06 0 -1.92052e+06 1.05243e+06 0 -1.93616e+06 1.09441e+06 0 -1.61891e+06 0 0 -1.61927e+06 31259.2 0 -1.62032e+06 62544.4 0 -1.62207e+06 93881.8 0 -1.6245e+06 125298 0 -1.62763e+06 156819 0 -1.63144e+06 188471 0 -1.63595e+06 220281 0 -1.64113e+06 252275 0 -1.64699e+06 284480 0 -1.65353e+06 316922 0 -1.66074e+06 349628 0 -1.66861e+06 382625 0 -1.67713e+06 415939 0 -1.6863e+06 449596 0 -1.69611e+06 483622 0 -1.70654e+06 518043 0 -1.71757e+06 552882 0 -1.7292e+06 588163 0 -1.7414e+06 623909 0 -1.75415e+06 660140 0 -1.76742e+06 696874 0 -1.78117e+06 734128 0 -1.79538e+06 771911 0 -1.80999e+06 810233 0 -1.82496e+06 849093 0 -1.84023e+06 888486 0 -1.85573e+06 928398 0 -1.87137e+06 968803 0 -1.88707e+06 1.00966e+06 0 -1.90273e+06 1.05092e+06 0 -1.91821e+06 1.09251e+06 0 -1.60751e+06 0 0 -1.60786e+06 31327.7 0 -1.60889e+06 62680.8 0 -1.61059e+06 94084.9 0 -1.61296e+06 125566 0 -1.61601e+06 157149 0 -1.61973e+06 188860 0 -1.62412e+06 220726 0 -1.62917e+06 252771 0 -1.63489e+06 285022 0 -1.64126e+06 317505 0 -1.64829e+06 350245 0 -1.65596e+06 383268 0 -1.66427e+06 416600 0 -1.67321e+06 450265 0 -1.68277e+06 484289 0 -1.69294e+06 518696 0 -1.7037e+06 553510 0 -1.71504e+06 588751 0 -1.72694e+06 624443 0 -1.73938e+06 660602 0 -1.75233e+06 697247 0 -1.76576e+06 734392 0 -1.77964e+06 772045 0 -1.79393e+06 810213 0 -1.80857e+06 848895 0 -1.82353e+06 888083 0 -1.83872e+06 927761 0 -1.85409e+06 967902 0 -1.86955e+06 1.00847e+06 0 -1.885e+06 1.0494e+06 0 -1.90033e+06 1.09062e+06 0 -1.59602e+06 0 0 -1.59636e+06 31389.9 0 -1.59736e+06 62804.6 0 -1.59902e+06 94269.1 0 -1.60133e+06 125809 0 -1.60431e+06 157448 0 -1.60793e+06 189213 0 -1.61221e+06 221128 0 -1.61714e+06 253219 0 -1.62271e+06 285510 0 -1.62892e+06 318027 0 -1.63577e+06 350795 0 -1.64325e+06 383839 0 -1.65135e+06 417183 0 -1.66006e+06 450852 0 -1.66938e+06 484870 0 -1.6793e+06 519259 0 -1.68979e+06 554043 0 -1.70085e+06 589242 0 -1.71246e+06 624876 0 -1.72459e+06 660963 0 -1.73723e+06 697518 0 -1.75035e+06 734554 0 -1.76391e+06 772079 0 -1.77787e+06 810098 0 -1.7922e+06 848607 0 -1.80685e+06 887598 0 -1.82175e+06 927054 0 -1.83685e+06 966945 0 -1.85206e+06 1.00723e+06 0 -1.86731e+06 1.04786e+06 0 -1.8825e+06 1.08875e+06 0 -1.58444e+06 0 0 -1.58477e+06 31445.9 0 -1.58575e+06 62916 0 -1.58736e+06 94434.8 0 -1.58962e+06 126027 0 -1.59252e+06 157716 0 -1.59605e+06 189528 0 -1.60022e+06 221487 0 -1.60502e+06 253617 0 -1.61045e+06 285943 0 -1.6165e+06 318489 0 -1.62318e+06 351279 0 -1.63047e+06 384338 0 -1.63836e+06 417690 0 -1.64686e+06 451358 0 -1.65594e+06 485364 0 -1.66561e+06 519732 0 -1.67584e+06 554483 0 -1.68662e+06 589636 0 -1.69794e+06 625211 0 -1.70978e+06 661223 0 -1.72212e+06 697689 0 -1.73492e+06 734617 0 -1.74817e+06 772016 0 -1.76182e+06 809888 0 -1.77585e+06 848231 0 -1.79019e+06 887033 0 -1.80481e+06 926277 0 -1.81964e+06 965932 0 -1.83462e+06 1.00596e+06 0 -1.84967e+06 1.0463e+06 0 -1.8647e+06 1.08688e+06 0 -1.57278e+06 0 0 -1.5731e+06 31495.8 0 -1.57405e+06 63015.1 0 -1.57562e+06 94582.1 0 -1.57782e+06 126220 0 -1.58064e+06 157954 0 -1.58409e+06 189807 0 -1.58815e+06 221804 0 -1.59283e+06 253967 0 -1.59812e+06 286322 0 -1.60402e+06 318891 0 -1.61052e+06 351698 0 -1.61762e+06 384768 0 -1.62532e+06 418122 0 -1.6336e+06 451783 0 -1.64245e+06 485775 0 -1.65187e+06 520117 0 -1.66185e+06 554831 0 -1.67236e+06 589936 0 -1.6834e+06 625448 0 -1.69495e+06 661385 0 -1.70699e+06 697760 0 -1.71949e+06 734581 0 -1.73244e+06 771856 0 -1.74578e+06 809586 0 -1.7595e+06 847766 0 -1.77356e+06 886387 0 -1.7879e+06 925428 0 -1.80247e+06 964859 0 -1.81721e+06 1.00464e+06 0 -1.83207e+06 1.04471e+06 0 -1.84694e+06 1.08501e+06 0 -1.56102e+06 0 0 -1.56134e+06 31539.6 0 -1.56226e+06 63102.2 0 -1.56379e+06 94711.3 0 -1.56594e+06 126390 0 -1.56869e+06 158162 0 -1.57204e+06 190051 0 -1.576e+06 222079 0 -1.58056e+06 254270 0 -1.58571e+06 286648 0 -1.59146e+06 319235 0 -1.5978e+06 352054 0 -1.60471e+06 385128 0 -1.61221e+06 418480 0 -1.62028e+06 452130 0 -1.62891e+06 486102 0 -1.63809e+06 520415 0 -1.64781e+06 555089 0 -1.65806e+06 590142 0 -1.66883e+06 625590 0 -1.6801e+06 661450 0 -1.69185e+06 697733 0 -1.70405e+06 734447 0 -1.7167e+06 771600 0 -1.72975e+06 809190 0 -1.74317e+06 847214 0 -1.75694e+06 885660 0 -1.771e+06 924507 0 -1.78532e+06 963727 0 -1.79983e+06 1.00328e+06 0 -1.81448e+06 1.0431e+06 0 -1.82921e+06 1.08313e+06 0 -1.54918e+06 0 0 -1.54949e+06 31577.4 0 -1.55039e+06 63177.3 0 -1.55188e+06 94822.6 0 -1.55397e+06 126536 0 -1.55665e+06 158340 0 -1.55991e+06 190258 0 -1.56377e+06 222313 0 -1.56821e+06 254526 0 -1.57323e+06 286921 0 -1.57883e+06 319520 0 -1.585e+06 352346 0 -1.59174e+06 385420 0 -1.59905e+06 418764 0 -1.60691e+06 452400 0 -1.61531e+06 486347 0 -1.62426e+06 520627 0 -1.63374e+06 555257 0 -1.64373e+06 590255 0 -1.65423e+06 625638 0 -1.66522e+06 661419 0 -1.67669e+06 697609 0 -1.68861e+06 734218 0 -1.70095e+06 771249 0 -1.71371e+06 808703 0 -1.72685e+06 846575 0 -1.74033e+06 884852 0 -1.75412e+06 923514 0 -1.76818e+06 962532 0 -1.78247e+06 1.00187e+06 0 -1.79692e+06 1.04146e+06 0 -1.81149e+06 1.08125e+06 0 -1.53726e+06 0 0 -1.53756e+06 31609.3 0 -1.53843e+06 63240.7 0 -1.53989e+06 94916.2 0 -1.54192e+06 126658 0 -1.54453e+06 158489 0 -1.54771e+06 190431 0 -1.55146e+06 222506 0 -1.55579e+06 254736 0 -1.56068e+06 287143 0 -1.56613e+06 319749 0 -1.57214e+06 352576 0 -1.57871e+06 385645 0 -1.58582e+06 418977 0 -1.59348e+06 452593 0 -1.60167e+06 486512 0 -1.61039e+06 520754 0 -1.61963e+06 555338 0 -1.62937e+06 590278 0 -1.63961e+06 625592 0 -1.65032e+06 661293 0 -1.66151e+06 697390 0 -1.67314e+06 733893 0 -1.68521e+06 770804 0 -1.69768e+06 808124 0 -1.71053e+06 845848 0 -1.72373e+06 883962 0 -1.73726e+06 922447 0 -1.75107e+06 961274 0 -1.76512e+06 1.0004e+06 0 -1.77938e+06 1.03978e+06 0 -1.79378e+06 1.07934e+06 0 -1.52525e+06 0 0 -1.52554e+06 31635.5 0 -1.52639e+06 63292.4 0 -1.52781e+06 94992.5 0 -1.52979e+06 126758 0 -1.53233e+06 158609 0 -1.53543e+06 190569 0 -1.53908e+06 222659 0 -1.54329e+06 254900 0 -1.54806e+06 287313 0 -1.55337e+06 319921 0 -1.55922e+06 352744 0 -1.56561e+06 385803 0 -1.57254e+06 419119 0 -1.58e+06 452710 0 -1.58798e+06 486597 0 -1.59647e+06 520798 0 -1.60547e+06 555331 0 -1.61497e+06 590212 0 -1.62495e+06 625455 0 -1.6354e+06 661073 0 -1.64631e+06 697077 0 -1.65767e+06 733473 0 -1.66945e+06 770266 0 -1.68164e+06 807454 0 -1.69421e+06 845033 0 -1.70714e+06 882990 0 -1.7204e+06 921304 0 -1.73396e+06 959949 0 -1.74779e+06 998884 0 -1.76184e+06 1.03806e+06 0 -1.77608e+06 1.07741e+06 0 -1.51316e+06 0 0 -1.51344e+06 31655.8 0 -1.51428e+06 63332.6 0 -1.51565e+06 95051.6 0 -1.51758e+06 126834 0 -1.52005e+06 158701 0 -1.52307e+06 190673 0 -1.52663e+06 222772 0 -1.53073e+06 255019 0 -1.53536e+06 287434 0 -1.54053e+06 320038 0 -1.54623e+06 352852 0 -1.55246e+06 385896 0 -1.55921e+06 419190 0 -1.56647e+06 452753 0 -1.57424e+06 486604 0 -1.58251e+06 520760 0 -1.59128e+06 555239 0 -1.60053e+06 590057 0 -1.61026e+06 625227 0 -1.62045e+06 660761 0 -1.6311e+06 696670 0 -1.64218e+06 732960 0 -1.65368e+06 769635 0 -1.66559e+06 806694 0 -1.67789e+06 844131 0 -1.69055e+06 881934 0 -1.70355e+06 920085 0 -1.71686e+06 958556 0 -1.73046e+06 997308 0 -1.74431e+06 1.03629e+06 0 -1.75837e+06 1.07545e+06 0 -1.50099e+06 0 0 -1.50127e+06 31670.5 0 -1.50208e+06 63361.5 0 -1.50342e+06 95093.7 0 -1.50529e+06 126888 0 -1.5077e+06 158764 0 -1.51064e+06 190743 0 -1.5141e+06 222846 0 -1.51809e+06 255093 0 -1.5226e+06 287505 0 -1.52763e+06 320100 0 -1.53318e+06 352901 0 -1.53924e+06 385925 0 -1.54581e+06 419193 0 -1.55288e+06 452723 0 -1.56045e+06 486533 0 -1.56851e+06 520641 0 -1.57705e+06 555063 0 -1.58606e+06 589814 0 -1.59555e+06 624908 0 -1.60548e+06 660357 0 -1.61586e+06 696170 0 -1.62668e+06 732353 0 -1.63791e+06 768911 0 -1.64954e+06 805842 0 -1.66157e+06 843141 0 -1.67396e+06 880796 0 -1.6867e+06 918788 0 -1.69976e+06 957092 0 -1.71313e+06 995671 0 -1.72678e+06 1.03448e+06 0 -1.74066e+06 1.07345e+06 0 -1.48874e+06 0 0 -1.48901e+06 31679.7 0 -1.4898e+06 63379.3 0 -1.4911e+06 95119 0 -1.49293e+06 126919 0 -1.49527e+06 158800 0 -1.49813e+06 190781 0 -1.5015e+06 222882 0 -1.50538e+06 255124 0 -1.50977e+06 287526 0 -1.51467e+06 320109 0 -1.52007e+06 352890 0 -1.52597e+06 385890 0 -1.53236e+06 419127 0 -1.53925e+06 452620 0 -1.54661e+06 486386 0 -1.55446e+06 520441 0 -1.56278e+06 554803 0 -1.57156e+06 589485 0 -1.5808e+06 624501 0 -1.59048e+06 659863 0 -1.60061e+06 695578 0 -1.61116e+06 731655 0 -1.62212e+06 768096 0 -1.63349e+06 804900 0 -1.64524e+06 842063 0 -1.65737e+06 879573 0 -1.66985e+06 917412 0 -1.68267e+06 955556 0 -1.6958e+06 993970 0 -1.70924e+06 1.03261e+06 0 -1.72294e+06 1.07141e+06 0 -1.47641e+06 0 0 -1.47668e+06 31683.3 0 -1.47744e+06 63386 0 -1.47871e+06 95127.9 0 -1.48049e+06 126929 0 -1.48276e+06 158808 0 -1.48554e+06 190785 0 -1.48882e+06 222880 0 -1.4926e+06 255112 0 -1.49687e+06 287500 0 -1.50164e+06 320064 0 -1.5069e+06 352821 0 -1.51264e+06 385792 0 -1.51886e+06 418995 0 -1.52556e+06 452446 0 -1.53273e+06 486163 0 -1.54037e+06 520163 0 -1.54847e+06 554461 0 -1.55702e+06 589071 0 -1.56602e+06 624007 0 -1.57546e+06 659278 0 -1.58533e+06 694896 0 -1.59562e+06 730865 0 -1.60632e+06 767189 0 -1.61742e+06 803868 0 -1.62891e+06 840896 0 -1.64077e+06 878264 0 -1.653e+06 915955 0 -1.66557e+06 953945 0 -1.67847e+06 992201 0 -1.69169e+06 1.03068e+06 0 -1.70521e+06 1.06933e+06 0 -1.46401e+06 0 0 -1.46426e+06 31681.4 0 -1.46501e+06 63381.9 0 -1.46624e+06 95120.5 0 -1.46797e+06 126917 0 -1.47019e+06 158789 0 -1.47289e+06 190757 0 -1.47608e+06 222840 0 -1.47976e+06 255057 0 -1.48391e+06 287426 0 -1.48855e+06 319966 0 -1.49366e+06 352695 0 -1.49925e+06 385633 0 -1.5053e+06 418795 0 -1.51182e+06 452201 0 -1.5188e+06 485866 0 -1.52624e+06 519806 0 -1.53412e+06 554037 0 -1.54245e+06 588572 0 -1.55122e+06 623425 0 -1.56041e+06 658605 0 -1.57003e+06 694123 0 -1.58007e+06 729983 0 -1.59051e+06 766190 0 -1.60135e+06 802744 0 -1.61257e+06 839640 0 -1.62417e+06 876869 0 -1.63614e+06 914415 0 -1.64847e+06 952255 0 -1.66114e+06 990360 0 -1.67414e+06 1.02869e+06 0 -1.68746e+06 1.06719e+06 0 -1.45153e+06 0 0 -1.45178e+06 31674.2 0 -1.4525e+06 63367 0 -1.4537e+06 95097 0 -1.45538e+06 126883 0 -1.45754e+06 158744 0 -1.46017e+06 190698 0 -1.46327e+06 222764 0 -1.46684e+06 254960 0 -1.47088e+06 287305 0 -1.47539e+06 319816 0 -1.48037e+06 352513 0 -1.4858e+06 385412 0 -1.49169e+06 418531 0 -1.49803e+06 451886 0 -1.50482e+06 485495 0 -1.51206e+06 519372 0 -1.51974e+06 553533 0 -1.52784e+06 587990 0 -1.53638e+06 622757 0 -1.54534e+06 657844 0 -1.55471e+06 693260 0 -1.5645e+06 729011 0 -1.57468e+06 765101 0 -1.58526e+06 801530 0 -1.59622e+06 838295 0 -1.60757e+06 875387 0 -1.61928e+06 912791 0 -1.63136e+06 950486 0 -1.64379e+06 988445 0 -1.65657e+06 1.02663e+06 0 -1.66969e+06 1.06499e+06 0 -1.43897e+06 0 0 -1.43921e+06 31661.7 0 -1.43992e+06 63341.5 0 -1.44109e+06 95057.7 0 -1.44272e+06 126828 0 -1.44481e+06 158672 0 -1.44737e+06 190607 0 -1.45039e+06 222650 0 -1.45386e+06 254821 0 -1.45779e+06 287137 0 -1.46218e+06 319616 0 -1.46701e+06 352275 0 -1.4723e+06 385131 0 -1.47803e+06 418202 0 -1.4842e+06 451503 0 -1.4908e+06 485051 0 -1.49784e+06 518862 0 -1.50531e+06 552949 0 -1.5132e+06 587325 0 -1.52152e+06 622004 0 -1.53024e+06 656995 0 -1.53937e+06 692308 0 -1.54891e+06 727948 0 -1.55884e+06 763921 0 -1.56916e+06 800225 0 -1.57987e+06 836860 0 -1.59096e+06 873816 0 -1.60242e+06 911081 0 -1.61424e+06 948635 0 -1.62644e+06 986452 0 -1.63899e+06 1.0245e+06 0 -1.6519e+06 1.06272e+06 0 -1.42634e+06 0 0 -1.42658e+06 31644 0 -1.42726e+06 63305.6 0 -1.4284e+06 95002.7 0 -1.42998e+06 126753 0 -1.43202e+06 158574 0 -1.43451e+06 190485 0 -1.43744e+06 222501 0 -1.44082e+06 254642 0 -1.44464e+06 286924 0 -1.4489e+06 319365 0 -1.4536e+06 351981 0 -1.45874e+06 384790 0 -1.46431e+06 417809 0 -1.47031e+06 451052 0 -1.47674e+06 484536 0 -1.48358e+06 518276 0 -1.49085e+06 552286 0 -1.49853e+06 586579 0 -1.50662e+06 621166 0 -1.51511e+06 656060 0 -1.52401e+06 691267 0 -1.5333e+06 726796 0 -1.54298e+06 762649 0 -1.55305e+06 798830 0 -1.5635e+06 835334 0 -1.57433e+06 872156 0 -1.58554e+06 909283 0 -1.59712e+06 946699 0 -1.60907e+06 984379 0 -1.62139e+06 1.02229e+06 0 -1.63408e+06 1.06039e+06 0 -1.41364e+06 0 0 -1.41387e+06 31621.1 0 -1.41453e+06 63259.4 0 -1.41564e+06 94932.3 0 -1.41718e+06 126657 0 -1.41916e+06 158451 0 -1.42157e+06 190332 0 -1.42442e+06 222317 0 -1.42771e+06 254422 0 -1.43142e+06 286665 0 -1.43556e+06 319064 0 -1.44013e+06 351633 0 -1.44513e+06 384391 0 -1.45054e+06 417353 0 -1.45638e+06 450534 0 -1.46262e+06 483950 0 -1.46928e+06 517616 0 -1.47635e+06 551545 0 -1.48382e+06 585751 0 -1.4917e+06 620245 0 -1.49996e+06 655038 0 -1.50863e+06 690139 0 -1.51768e+06 725554 0 -1.52711e+06 761288 0 -1.53693e+06 797343 0 -1.54713e+06 833717 0 -1.5577e+06 870405 0 -1.56866e+06 907397 0 -1.57998e+06 944676 0 -1.59169e+06 982221 0 -1.60378e+06 1.02e+06 0 -1.61625e+06 1.05798e+06 0 -1.40087e+06 0 0 -1.40109e+06 31593.2 0 -1.40174e+06 63203.1 0 -1.40281e+06 94846.7 0 -1.40431e+06 126541 0 -1.40623e+06 158303 0 -1.40858e+06 190149 0 -1.41135e+06 222097 0 -1.41454e+06 254162 0 -1.41814e+06 286363 0 -1.42217e+06 318714 0 -1.42661e+06 351232 0 -1.43146e+06 383934 0 -1.43673e+06 416834 0 -1.4424e+06 449950 0 -1.44847e+06 483294 0 -1.45494e+06 516882 0 -1.46182e+06 550728 0 -1.46908e+06 584844 0 -1.47674e+06 619241 0 -1.48479e+06 653931 0 -1.49322e+06 688923 0 -1.50203e+06 724222 0 -1.51122e+06 759836 0 -1.52079e+06 795765 0 -1.53074e+06 832009 0 -1.54106e+06 868564 0 -1.55176e+06 905420 0 -1.56284e+06 942564 0 -1.5743e+06 979976 0 -1.58614e+06 1.01763e+06 0 -1.59838e+06 1.05549e+06 0 -1.38803e+06 0 0 -1.38824e+06 31560.2 0 -1.38887e+06 63136.7 0 -1.38991e+06 94746.1 0 -1.39136e+06 126405 0 -1.39323e+06 158130 0 -1.39551e+06 189937 0 -1.3982e+06 221843 0 -1.4013e+06 253864 0 -1.40481e+06 286016 0 -1.40872e+06 318315 0 -1.41303e+06 350778 0 -1.41775e+06 383419 0 -1.42286e+06 416255 0 -1.42837e+06 449300 0 -1.43427e+06 482569 0 -1.44057e+06 516076 0 -1.44725e+06 549834 0 -1.45431e+06 583857 0 -1.46176e+06 618155 0 -1.46959e+06 652740 0 -1.47779e+06 687620 0 -1.48637e+06 722802 0 -1.49532e+06 758293 0 -1.50464e+06 794095 0 -1.51434e+06 830208 0 -1.52441e+06 866629 0 -1.53486e+06 903351 0 -1.54568e+06 940361 0 -1.55689e+06 977642 0 -1.56849e+06 1.01517e+06 0 -1.5805e+06 1.05291e+06 0 -1.37511e+06 0 0 -1.37532e+06 31522.3 0 -1.37593e+06 63060.5 0 -1.37694e+06 94630.8 0 -1.37836e+06 126249 0 -1.38017e+06 157932 0 -1.38238e+06 189695 0 -1.385e+06 221554 0 -1.388e+06 253526 0 -1.39141e+06 285625 0 -1.39521e+06 317869 0 -1.3994e+06 350271 0 -1.40398e+06 382848 0 -1.40894e+06 415615 0 -1.4143e+06 448586 0 -1.42003e+06 481775 0 -1.42615e+06 515197 0 -1.43264e+06 548865 0 -1.43951e+06 582791 0 -1.44675e+06 616987 0 -1.45436e+06 651464 0 -1.46234e+06 686230 0 -1.47069e+06 721294 0 -1.4794e+06 756660 0 -1.48848e+06 792334 0 -1.49793e+06 828315 0 -1.50775e+06 864602 0 -1.51794e+06 901189 0 -1.52851e+06 938065 0 -1.53947e+06 975215 0 -1.55083e+06 1.01262e+06 0 -1.56259e+06 1.05024e+06 0 -1.36213e+06 0 0 -1.36233e+06 31479.5 0 -1.36293e+06 62974.5 0 -1.36391e+06 94500.8 0 -1.36528e+06 126074 0 -1.36704e+06 157710 0 -1.36919e+06 189424 0 -1.37173e+06 221232 0 -1.37465e+06 253150 0 -1.37795e+06 285193 0 -1.38164e+06 317375 0 -1.38571e+06 349713 0 -1.39016e+06 382221 0 -1.39498e+06 414915 0 -1.40018e+06 447808 0 -1.40575e+06 480914 0 -1.41169e+06 514248 0 -1.418e+06 547822 0 -1.42467e+06 581648 0 -1.43171e+06 615739 0 -1.43911e+06 650105 0 -1.44687e+06 684755 0 -1.45499e+06 719697 0 -1.46346e+06 754938 0 -1.47231e+06 790481 0 -1.48151e+06 826329 0 -1.49108e+06 862481 0 -1.50102e+06 898932 0 -1.51133e+06 935674 0 -1.52204e+06 972693 0 -1.53314e+06 1.00997e+06 0 -1.54466e+06 1.04748e+06 0 -1.34909e+06 0 0 -1.34928e+06 31431.9 0 -1.34986e+06 62878.9 0 -1.35081e+06 94356.4 0 -1.35214e+06 125880 0 -1.35385e+06 157464 0 -1.35594e+06 189125 0 -1.3584e+06 220877 0 -1.36123e+06 252737 0 -1.36444e+06 284717 0 -1.36802e+06 316835 0 -1.37197e+06 349104 0 -1.37629e+06 381540 0 -1.38097e+06 414156 0 -1.38602e+06 446967 0 -1.39143e+06 479986 0 -1.39719e+06 513228 0 -1.40332e+06 546704 0 -1.4098e+06 580428 0 -1.41664e+06 614411 0 -1.42383e+06 648663 0 -1.43137e+06 683194 0 -1.43927e+06 718012 0 -1.44751e+06 753125 0 -1.45612e+06 788537 0 -1.46507e+06 824250 0 -1.4744e+06 860265 0 -1.48408e+06 896579 0 -1.49414e+06 933185 0 -1.50459e+06 970073 0 -1.51544e+06 1.00723e+06 0 -1.5267e+06 1.04462e+06 0 -1.33597e+06 0 0 -1.33616e+06 31379.5 0 -1.33672e+06 62773.8 0 -1.33764e+06 94197.9 0 -1.33894e+06 125667 0 -1.3406e+06 157195 0 -1.34262e+06 188798 0 -1.34501e+06 220490 0 -1.34776e+06 252286 0 -1.35087e+06 284201 0 -1.35435e+06 316249 0 -1.35818e+06 348445 0 -1.36237e+06 380804 0 -1.36691e+06 413338 0 -1.37181e+06 446063 0 -1.37706e+06 478992 0 -1.38266e+06 512138 0 -1.38861e+06 545514 0 -1.3949e+06 579131 0 -1.40154e+06 613003 0 -1.40853e+06 647138 0 -1.41586e+06 681548 0 -1.42353e+06 716240 0 -1.43155e+06 751223 0 -1.43991e+06 786500 0 -1.44863e+06 822077 0 -1.4577e+06 857954 0 -1.46714e+06 894129 0 -1.47694e+06 930599 0 -1.48713e+06 967353 0 -1.49772e+06 1.00438e+06 0 -1.50873e+06 1.04166e+06 0 -1.3228e+06 0 0 -1.32298e+06 31322.5 0 -1.32352e+06 62659.4 0 -1.32442e+06 94025.4 0 -1.32567e+06 125435 0 -1.32728e+06 156902 0 -1.32924e+06 188443 0 -1.33156e+06 220070 0 -1.33423e+06 251798 0 -1.33725e+06 283643 0 -1.34062e+06 315618 0 -1.34434e+06 347737 0 -1.3484e+06 380014 0 -1.35281e+06 412463 0 -1.35756e+06 445099 0 -1.36266e+06 477933 0 -1.36809e+06 510980 0 -1.37387e+06 544251 0 -1.37998e+06 577759 0 -1.38642e+06 611516 0 -1.3932e+06 645532 0 -1.40032e+06 679818 0 -1.40777e+06 714381 0 -1.41557e+06 749231 0 -1.4237e+06 784372 0 -1.43217e+06 819810 0 -1.441e+06 855547 0 -1.45018e+06 891582 0 -1.45974e+06 927912 0 -1.46967e+06 964531 0 -1.47999e+06 1.00143e+06 0 -1.49073e+06 1.03859e+06 0 -1.30955e+06 0 0 -1.30973e+06 31260.9 0 -1.31026e+06 62535.8 0 -1.31113e+06 93839 0 -1.31234e+06 125185 0 -1.3139e+06 156587 0 -1.31581e+06 188060 0 -1.31805e+06 219618 0 -1.32064e+06 251275 0 -1.32357e+06 283045 0 -1.32684e+06 314942 0 -1.33044e+06 346979 0 -1.33439e+06 379171 0 -1.33866e+06 411532 0 -1.34327e+06 444073 0 -1.34822e+06 476810 0 -1.35349e+06 509753 0 -1.35909e+06 542917 0 -1.36502e+06 576313 0 -1.37127e+06 609952 0 -1.37786e+06 643846 0 -1.38477e+06 678004 0 -1.392e+06 712436 0 -1.39957e+06 747150 0 -1.40747e+06 782152 0 -1.41571e+06 817449 0 -1.42429e+06 853043 0 -1.43322e+06 888935 0 -1.44252e+06 925124 0 -1.45219e+06 961606 0 -1.46225e+06 998372 0 -1.47272e+06 1.03541e+06 0 -1.29625e+06 0 0 -1.29642e+06 31194.7 0 -1.29693e+06 62403.2 0 -1.29777e+06 93639.1 0 -1.29895e+06 124916 0 -1.30046e+06 156249 0 -1.30231e+06 187651 0 -1.30449e+06 219135 0 -1.307e+06 250716 0 -1.30984e+06 282407 0 -1.31301e+06 314222 0 -1.3165e+06 346174 0 -1.32032e+06 378277 0 -1.32447e+06 410544 0 -1.32894e+06 442988 0 -1.33373e+06 475622 0 -1.33885e+06 508460 0 -1.34428e+06 541512 0 -1.35003e+06 574792 0 -1.3561e+06 608310 0 -1.36248e+06 642078 0 -1.36919e+06 676106 0 -1.37621e+06 710404 0 -1.38356e+06 744980 0 -1.39123e+06 779841 0 -1.39923e+06 814993 0 -1.40757e+06 850442 0 -1.41625e+06 886189 0 -1.42529e+06 922234 0 -1.4347e+06 958576 0 -1.44449e+06 995207 0 -1.45469e+06 1.03212e+06 0 -1.28288e+06 0 0 -1.28305e+06 31124.1 0 -1.28354e+06 62261.5 0 -1.28436e+06 93425.8 0 -1.2855e+06 124630 0 -1.28697e+06 155889 0 -1.28876e+06 187215 0 -1.29087e+06 218621 0 -1.2933e+06 250121 0 -1.29605e+06 281729 0 -1.29912e+06 313458 0 -1.30251e+06 345321 0 -1.30622e+06 377330 0 -1.31024e+06 409500 0 -1.31457e+06 441843 0 -1.31922e+06 474372 0 -1.32417e+06 507100 0 -1.32944e+06 540037 0 -1.33501e+06 573198 0 -1.3409e+06 606592 0 -1.34709e+06 640231 0 -1.3536e+06 674126 0 -1.36041e+06 708286 0 -1.36754e+06 742721 0 -1.37498e+06 777438 0 -1.38275e+06 812443 0 -1.39085e+06 847744 0 -1.39928e+06 883342 0 -1.40806e+06 919240 0 -1.41721e+06 955438 0 -1.42673e+06 991932 0 -1.43666e+06 1.02871e+06 0 -1.26946e+06 0 0 -1.26962e+06 31049 0 -1.2701e+06 62111.1 0 -1.27089e+06 93199.3 0 -1.272e+06 124327 0 -1.27342e+06 155507 0 -1.27515e+06 186752 0 -1.27719e+06 218076 0 -1.27955e+06 249492 0 -1.28222e+06 281013 0 -1.28519e+06 312651 0 -1.28848e+06 344421 0 -1.29207e+06 376333 0 -1.29596e+06 408402 0 -1.30016e+06 440641 0 -1.30466e+06 473060 0 -1.30946e+06 505674 0 -1.31457e+06 538494 0 -1.31997e+06 571531 0 -1.32567e+06 604798 0 -1.33168e+06 638305 0 -1.33798e+06 672064 0 -1.34459e+06 706084 0 -1.3515e+06 740374 0 -1.35872e+06 774943 0 -1.36626e+06 809799 0 -1.37411e+06 844948 0 -1.3823e+06 880395 0 -1.39083e+06 916143 0 -1.39971e+06 952192 0 -1.40896e+06 988544 0 -1.41861e+06 1.02519e+06 0 </DataArray> 
</PointData> 
<Points> 
<DataArray type="Float32" NumberOfComponents="3"> 