<?xml version="1.0"?> 
<VTKFile type="StructuredGrid" version="0.1"> 
<StructuredGrid WholeExtent="0 31 0 31 0 0"> 
<Piece Extent="0 31 0 31 0 0"> 
<PointData>
<DataArray type="Float32" Name="|E|" format="ascii" NumberOfComponents="3"> 
704.255 -2.14577e-06 0 43.6542 -331.786 0 8.95537 -166.418 0 -42.3938 -128.646 0 -45.1686 -84.2492 0 -47.5344 -60.6347 0 -42.7903 -42.5943 0 -37.7665 -30.6751 0 -32.1334 -22.2544 0 -26.9885 -16.3276 0 -22.3631 -12.1216 0 -18.3905 -9.08025 0 -15.026 -6.87292 0 -12.2228 -5.24299 0 -9.90748 -4.03172 0 -8.0099 -3.11975 0 -6.46291 -2.42796 0 -5.20729 -1.89814 0 -4.19165 -1.48953 0 -3.37259 -1.17213 0 -2.71385 -0.924103 0 -2.1855 -0.72915 0 -1.76305 -0.575053 0 -1.42663 -0.452516 0 -1.16021 -0.354396 0 -0.950958 -0.275135 0 -0.78874 -0.210356 0 -0.665638 -0.156552 0 -0.575616 -0.11086 0 -0.514237 -0.0708873 0 -0.478465 -0.0345541 0 -0.466495 -1.43051e-06 0 534.472 9.23872e-07 0 96.1915 -265.534 0 8.99017 -164.231 0 -29.9723 -122.091 0 -41.4226 -84.2937 0 -43.1601 -60.6552 0 -40.4439 -43.4568 0 -35.8636 -31.6134 0 -30.8894 -23.1923 0 -26.0633 -17.1992 0 -21.7106 -12.8796 0 -17.9095 -9.73463 0 -14.6738 -7.42043 0 -11.9598 -5.69943 0 -9.71005 -4.40684 0 -7.85999 -3.42696 0 -6.34825 -2.67783 0 -5.11888 -2.10075 0 -4.12305 -1.65319 0 -3.31903 -1.30399 0 -2.67179 -1.03003 0 -2.1523 -0.814004 0 -1.73671 -0.642786 0 -1.4056 -0.50633 0 -1.14329 -0.396862 0 -0.937215 -0.308302 0 -0.777423 -0.235831 0 -0.656142 -0.175578 0 -0.567442 -0.124369 0 -0.506958 -0.0795395 0 -0.471704 -0.0387772 0 -0.459912 6.85453e-07 0 417.661 -3.94881e-07 0 120.672 -215.202 0 14.7587 -156.977 0 -21.372 -116.542 0 -36.7611 -83.4701 0 -39.4275 -60.5894 0 -37.9545 -44.1175 0 -34.0533 -32.4391 0 -29.6077 -24.0571 0 -25.1347 -18.0111 0 -21.0346 -13.6025 0 -17.4116 -10.36 0 -14.3035 -7.94955 0 -11.6817 -6.14135 0 -9.4993 -4.77198 0 -7.69894 -3.72651 0 -6.22425 -2.92212 0 -5.02278 -2.2991 0 -4.04812 -1.81364 0 -3.2603 -1.43337 0 -2.62553 -1.13406 0 -2.11569 -0.897386 0 -1.70759 -0.709377 0 -1.38231 -0.559258 0 -1.12453 -0.438643 0 -0.921951 -0.34094 0 -0.764841 -0.260905 0 -0.645577 -0.194306 0 -0.55834 -0.137667 0 -0.49885 -0.088058 0 -0.464172 -0.0429348 0 -0.452575 -2.90573e-07 0 334.983 2.68221e-07 0 129.373 -176.413 0 21.8797 -147.213 0 -14.7405 -111.367 0 -32.0066 -82.0963 0 -36.013 -60.382 0 -35.4742 -44.604 0 -32.2845 -33.1603 0 -28.3173 -24.8462 0 -24.1965 -18.7685 0 -20.3415 -14.2879 0 -16.897 -10.9578 0 -13.9169 -8.45917 0 -11.3892 -6.56881 0 -9.27588 -5.12655 0 -7.52714 -4.01812 0 -6.09123 -3.16046 0 -4.91919 -2.49292 0 -3.96703 -1.97064 0 -3.19652 -1.5601 0 -2.57516 -1.23603 0 -2.07574 -0.979166 0 -1.67575 -0.77472 0 -1.3568 -0.611213 0 -1.10395 -0.479668 0 -0.905195 -0.372996 0 -0.751017 -0.285536 0 -0.63396 -0.212707 0 -0.548327 -0.150733 0 -0.489927 -0.0964283 0 -0.455881 -0.0470202 0 -0.444498 8.9407e-08 0 274.844 -1.78814e-07 0 129.319 -146.248 0 28.4207 -136.39 0 -9.27322 -106.311 0 -27.4926 -80.3512 0 -32.803 -60.0169 0 -33.0608 -44.938 0 -30.5453 -33.7818 0 -27.0298 -25.5619 0 -23.2493 -19.4738 0 -19.6346 -14.9359 0 -16.3668 -11.5283 0 -13.5153 -8.9489 0 -11.0828 -6.98158 0 -9.0404 -5.47019 0 -7.34498 -4.30152 0 -5.9495 -3.39256 0 -4.80834 -2.68198 0 -3.87995 -2.12396 0 -3.12783 -1.68398 0 -2.52077 -1.33578 0 -2.03251 -1.05922 0 -1.64125 -0.838717 0 -1.32912 -0.662117 0 -1.08159 -0.519875 0 -0.886974 -0.404419 0 -0.735973 -0.309685 0 -0.621311 -0.23075 0 -0.53742 -0.163547 0 -0.480203 -0.104638 0 -0.446845 -0.0510271 0 -0.435692 -5.96046e-08 0 229.883 3.12924e-07 0 124.604 -122.535 0 33.636 -125.42 0 -4.62256 -101.278 0 -23.3446 -78.3551 0 -29.7643 -59.4967 0 -30.7365 -45.138 0 -28.8366 -34.3088 0 -25.7511 -26.2074 0 -22.2957 -20.1285 0 -18.9161 -15.5468 0 -15.8225 -12.0718 0 -13.0997 -9.41857 0 -10.7635 -7.37943 0 -8.79343 -5.80258 0 -7.1529 -4.57639 0 -5.79936 -3.61815 0 -4.69048 -2.86602 0 -3.78706 -2.2734 0 -3.05437 -1.80484 0 -2.46247 -1.43318 0 -1.98608 -1.13743 0 -1.60414 -0.901268 0 -1.29931 -0.71189 0 -1.0575 -0.559199 0 -0.867321 -0.43516 0 -0.719736 -0.333315 0 -0.607651 -0.248407 0 -0.525637 -0.176087 0 -0.469695 -0.112673 0 -0.437078 -0.0549488 0 -0.426174 3.42727e-07 0 195.38 -4.17233e-07 0 117.577 -103.708 0 37.3736 -114.826 0 -0.645926 -96.2644 0 -19.5948 -76.1887 0 -26.895 -58.835 0 -28.5091 -45.2192 0 -27.1635 -34.7471 0 -24.4848 -26.7863 0 -21.3386 -20.7343 0 -18.188 -16.1214 0 -15.2658 -12.5884 0 -12.6714 -9.86809 0 -10.432 -7.76212 0 -8.53554 -6.12346 0 -6.95132 -4.84247 0 -5.64114 -3.83696 0 -4.56583 -3.04482 0 -3.68853 -2.41876 0 -2.97626 -1.92252 0 -2.40037 -1.52809 0 -1.93655 -1.21369 0 -1.56449 -0.962281 0 -1.26744 -0.760456 0 -1.0317 -0.597581 0 -0.846268 -0.465171 0 -0.702334 -0.356386 0 -0.593004 -0.265649 0 -0.512997 -0.188334 0 -0.45842 -0.12052 0 -0.426598 -0.0587793 0 -0.415959 -6.10948e-07 0 168.25 5.66244e-07 0 109.577 -88.6118 0 39.7442 -104.892 0 2.72186 -91.3079 0 -16.2379 -73.9112 0 -24.2006 -58.051 0 -26.3816 -45.1958 0 -25.5313 -35.1031 0 -23.234 -27.3025 0 -20.381 -21.293 0 -17.4522 -16.6606 0 -14.698 -13.0784 0 -12.2311 -10.2975 0 -10.0891 -8.12949 0 -8.2673 -6.4326 0 -6.74068 -5.09951 0 -5.47515 -4.04877 0 -4.43464 -3.21817 0 -3.58456 -2.55986 0 -2.89366 -2.03685 0 -2.33458 -1.62036 0 -1.884 -1.28787 0 -1.52238 -1.02166 0 -1.23354 -0.80774 0 -1.00426 -0.634961 0 -0.823853 -0.494404 0 -0.683795 -0.378864 0 -0.577394 -0.28245 0 -0.499522 -0.200269 0 -0.446397 -0.128168 0 -0.41542 -0.0625123 0 -0.405064 7.7486e-07 0 146.439 -6.25849e-07 0 101.352 -76.3928 0 40.9568 -95.7503 0 5.52253 -86.4585 0 -13.2551 -71.5688 0 -21.6867 -57.1657 0 -24.3554 -45.0806 0 -23.9446 -35.3837 0 -22.0012 -27.7598 0 -19.4252 -21.8065 0 -16.7103 -17.1653 0 -14.1205 -13.5421 0 -11.7801 -10.7067 0 -9.73551 -8.4814 0 -7.98927 -6.72979 0 -6.52138 -5.34727 0 -5.30173 -4.25335 0 -4.29716 -3.38585 0 -3.47535 -2.69651 0 -2.80671 -2.14768 0 -2.26521 -1.70987 0 -1.82852 -1.35987 0 -1.47788 -1.07932 0 -1.19769 -0.853671 0 -0.975209 -0.67128 0 -0.800112 -0.522814 0 -0.66415 -0.400713 0 -0.560847 -0.298782 0 -0.485234 -0.211872 0 -0.433646 -0.135604 0 -0.403564 -0.0661417 0 -0.393507 -4.47035e-07 0 128.554 4.17233e-07 0 93.3045 -66.4147 0 41.2378 -87.443 0 7.79572 -81.7653 0 -10.6231 -69.1991 0 -19.3555 -56.2002 0 -22.4309 -44.8858 0 -22.4068 -35.5957 0 -20.7887 -28.1621 0 -18.4735 -22.277 0 -15.9641 -17.6366 0 -13.5345 -13.9799 0 -11.3191 -11.096 0 -9.37202 -8.81776 0 -7.702 -7.01487 0 -6.29387 -5.58555 0 -5.12119 -4.45049 0 -4.15364 -3.54768 0 -3.36107 -2.82854 0 -2.71557 -2.25486 0 -2.19238 -1.7965 0 -1.77021 -1.42959 0 -1.43105 -1.13518 0 -1.15994 -0.898178 0 -0.944601 -0.706483 0 -0.775085 -0.550357 0 -0.643433 -0.421897 0 -0.543391 -0.31462 0 -0.470157 -0.223125 0 -0.420188 -0.142815 0 -0.39105 -0.0696622 0 -0.381307 1.49012e-07 0 113.628 -3.8743e-07 0 85.6392 -58.1986 0 40.7956 -79.9574 0 9.58491 -77.2692 0 -8.31779 -66.8338 0 -17.2063 -55.1748 0 -20.6082 -44.6234 0 -20.9203 -35.7461 0 -19.5986 -28.5134 0 -17.5277 -22.7065 0 -15.2148 -18.0755 0 -12.9413 -14.3924 0 -10.8491 -11.4653 0 -8.9993 -9.1385 0 -7.40604 -7.28767 0 -6.05855 -5.81417 0 -4.93386 -4.63999 0 -4.00435 -3.70347 0 -3.24195 -2.95579 0 -2.62039 -2.35825 0 -2.11623 -1.88011 0 -1.70917 -1.49692 0 -1.38199 -1.18915 0 -1.12036 -0.941195 0 -0.912488 -0.740517 0 -0.748814 -0.57699 0 -0.621678 -0.442385 0 -0.525054 -0.329939 0 -0.454316 -0.23401 0 -0.406046 -0.149792 0 -0.377897 -0.0730676 0 -0.368486 -2.38419e-07 0 100.977 3.8743e-07 0 78.4452 -51.3814 0 39.8076 -73.2511 0 10.9374 -73.0011 0 -6.31534 -64.4995 0 -15.2352 -54.1084 0 -18.8868 -44.3045 0 -19.4867 -35.8418 0 -18.4326 -28.8176 0 -16.5894 -23.0973 0 -14.464 -18.4833 0 -12.3418 -14.78 0 -10.371 -11.8149 0 -8.61802 -9.4436 0 -7.10191 -7.54807 0 -5.81585 -6.03294 0 -4.74008 -4.82168 0 -3.84953 -3.85306 0 -3.11817 -3.07811 0 -2.52135 -2.45771 0 -2.03689 -1.96061 0 -1.64549 -1.56177 0 -1.33077 -1.24115 0 -1.07901 -0.982658 0 -0.878921 -0.773328 0 -0.721343 -0.602671 0 -0.598921 -0.462144 0 -0.505867 -0.344714 0 -0.437736 -0.24451 0 -0.391242 -0.156521 0 -0.364128 -0.076353 0 -0.355062 2.08616e-07 0 90.1078 -2.98023e-07 0 71.7476 -45.685 0 38.418 -67.2668 0 11.902 -68.9822 0 -4.59228 -62.2187 0 -13.4366 -53.0181 0 -17.2652 -43.9399 0 -18.1069 -35.8895 0 -17.2921 -29.0787 0 -15.66 -23.4516 0 -13.7128 -18.8611 0 -11.7372 -15.1433 0 -9.88561 -12.145 0 -8.22885 -9.73305 0 -6.79013 -7.79595 0 -5.56618 -6.24172 0 -4.54017 -4.9954 0 -3.68945 -3.99627 0 -2.98995 -3.19534 0 -2.4186 -2.55312 0 -1.95447 -2.03787 0 -1.5793 -1.62405 0 -1.27748 -1.29111 0 -1.03596 -1.0225 0 -0.843958 -0.804867 0 -0.692717 -0.627361 0 -0.575199 -0.481143 0 -0.485861 -0.358923 0 -0.420445 -0.254607 0 -0.375802 -0.162994 0 -0.349765 -0.0795128 0 -0.34106 -2.98023e-08 0 80.6558 -5.96046e-08 0 65.5365 -40.895 0 36.7404 -61.9416 0 12.527 -65.2247 0 -3.12568 -60.0102 0 -11.8031 -51.9193 0 -15.7416 -43.5398 0 -16.7811 -35.8956 0 -16.1779 -29.3005 0 -14.7407 -23.7716 0 -12.9622 -19.2101 0 -11.1283 -15.4829 0 -9.39362 -12.4557 0 -7.83238 -10.0069 0 -6.47121 -8.03125 0 -5.30994 -6.44037 0 -4.33446 -5.16098 0 -3.52438 -4.13297 0 -2.85751 -3.30734 0 -2.31231 -2.64435 0 -1.86912 -2.11179 0 -1.51068 -1.68366 0 -1.2222 -1.33895 0 -0.991277 -1.06067 0 -0.807656 -0.835086 0 -0.662983 -0.651023 0 -0.550551 -0.499353 0 -0.46507 -0.372543 0 -0.402473 -0.264288 0 -0.35975 -0.169199 0 -0.334832 -0.082542 0 -0.326501 5.96046e-08 0 72.3473 5.96046e-08 0 59.7836 -36.8444 0 34.8628 -57.2125 0 12.8584 -61.7337 0 -1.89322 -57.889 0 -10.326 -50.826 0 -14.313 -43.1137 0 -15.509 -35.8662 0 -15.0908 -29.4868 0 -13.8322 -24.0596 0 -12.2131 -19.5316 0 -10.5159 -15.7994 0 -8.89578 -12.7474 0 -7.42923 -10.2651 0 -6.14563 -8.25387 0 -5.04754 -6.62877 0 -4.12327 -5.31829 0 -3.35456 -4.263 0 -2.72104 -3.414 0 -2.20266 -2.73129 0 -1.78099 -2.18228 0 -1.43976 -1.74054 0 -1.16503 -1.38461 0 -0.945043 -1.09711 0 -0.770073 -0.863939 0 -0.63219 -0.673618 0 -0.525018 -0.516745 0 -0.443528 -0.385552 0 -0.383847 -0.273534 0 -0.343112 -0.175127 0 -0.319353 -0.085436 0 -0.311409 0 0 64.9726 5.96046e-08 0 54.4525 -33.4023 0 32.852 -53.0195 0 12.9384 -58.5087 0 -0.873292 -55.8673 0 -8.99635 -49.7502 0 -12.9761 -42.6706 0 -14.2896 -35.8074 0 -14.0309 -29.6414 0 -12.9353 -24.3177 0 -11.4664 -19.8268 0 -9.90079 -16.0935 0 -8.39275 -13.0204 0 -7.01996 -10.5079 0 -5.81389 -8.46379 0 -4.77936 -6.80682 0 -3.90692 -5.4672 0 -3.18028 -4.38625 0 -2.58078 -3.51519 0 -2.08982 -2.81383 0 -1.6902 -2.24925 0 -1.36666 -1.79459 0 -1.10606 -1.42801 0 -0.897327 -1.13176 0 -0.731271 -0.891384 0 -0.600387 -0.695114 0 -0.498642 -0.533292 0 -0.421269 -0.397931 0 -0.364599 -0.282334 0 -0.325917 -0.180768 0 -0.303354 -0.0881901 0 -0.29581 -5.96046e-08 0 58.3684 -5.96046e-08 0 49.5038 -30.4653 0 30.7581 -49.3071 0 12.8051 -55.5453 0 -0.0451903 -53.9545 0 -7.80433 -48.7025 0 -11.727 -42.2184 0 -13.1217 -35.7247 0 -12.9982 -29.7677 0 -12.0503 -24.5482 0 -10.7226 -20.0969 0 -9.2836 -16.3658 0 -7.88512 -13.2748 0 -6.6051 -10.7352 0 -5.47642 -8.66096 0 -4.50581 -6.97441 0 -3.68575 -5.6076 0 -3.0018 -4.5026 0 -2.43692 -3.6108 0 -1.97396 -2.89187 0 -1.5969 -2.31259 0 -1.29148 -1.84574 0 -1.04538 -1.4691 0 -0.848209 -1.16457 0 -0.691312 -0.917378 0 -0.567627 -0.715477 0 -0.471465 -0.54897 0 -0.39833 -0.40966 0 -0.344759 -0.290672 0 -0.308191 -0.186113 0 -0.286861 -0.0908 0 -0.279729 5.96046e-08 0 52.4054 0 0 44.8984 -27.9511 0 28.6177 -46.0249 0 12.4923 -52.836 0 0.610768 -52.1575 0 -6.74008 -47.6923 0 -10.5613 -41.7648 0 -12.0036 -35.6234 0 -11.9923 -29.8692 0 -11.1776 -24.7531 0 -9.98227 -20.3431 0 -8.6649 -16.617 0 -7.37347 -13.5111 0 -6.18517 -10.9471 0 -5.13369 -8.84535 0 -4.22726 -7.13148 0 -3.46007 -5.73938 0 -2.81937 -4.61192 0 -2.28971 -3.70072 0 -1.85527 -2.96532 0 -1.50124 -2.37224 0 -1.21434 -1.89393 0 -0.983095 -1.50783 0 -0.797765 -1.19549 0 -0.650263 -0.941882 0 -0.533963 -0.734676 0 -0.443532 -0.563752 0 -0.374748 -0.420721 0 -0.324362 -0.298535 0 -0.289965 -0.191155 0 -0.269901 -0.0932615 0 -0.263193 0 0 46.9798 5.96046e-08 0 40.599 -25.7937 0 26.4574 -43.1282 0 12.0294 -50.3717 0 1.11312 -50.4815 0 -5.7936 -46.7273 0 -9.47411 -41.3166 0 -10.9332 -35.5083 0 -11.0127 -29.9492 0 -10.3171 -24.9345 0 -9.24572 -20.5667 0 -8.04518 -16.8476 0 -6.85831 -13.7294 0 -5.76065 -11.1438 0 -4.78613 -9.01696 0 -3.94408 -7.27795 0 -3.23019 -5.86245 0 -2.63328 -4.71413 0 -2.13934 -3.78485 0 -1.73393 -3.03409 0 -1.40336 -2.42812 0 -1.13538 -1.93909 0 -0.919296 -1.54412 0 -0.746078 -1.22449 0 -0.608187 -0.96486 0 -0.499449 -0.752682 0 -0.414887 -0.577618 0 -0.350562 -0.431097 0 -0.303439 -0.305912 0 -0.271268 -0.195884 0 -0.252502 -0.0955707 0 -0.246227 1.78814e-07 0 42.007 -5.96046e-08 0 36.5708 -23.9399 0 24.2962 -40.5774 0 11.4416 -48.1422 0 1.47921 -48.9297 0 -4.95497 -45.8143 0 -8.46045 -40.8798 0 -9.90817 -35.384 0 -10.0583 -30.0107 0 -9.46881 -25.0942 0 -8.51323 -20.7687 0 -7.42485 -17.0583 0 -6.34009 -13.9302 0 -5.33199 -11.3254 0 -4.43414 -9.17577 0 -3.65664 -7.41376 0 -2.99644 -5.97671 0 -2.44377 -4.80912 0 -1.98605 -3.86311 0 -1.61011 -3.09809 0 -1.30343 -2.48014 0 -1.0547 -1.98115 0 -0.854086 -1.57794 0 -0.693228 -1.25151 0 -0.565153 -0.986278 0 -0.464141 -0.769467 0 -0.385578 -0.590545 0 -0.325811 -0.44077 0 -0.282024 -0.31279 0 -0.25213 -0.200294 0 -0.234691 -0.0977241 0 -0.22886 -1.78814e-07 0 37.4168 0 0 32.7817 -22.3468 0 22.1467 -38.3377 0 10.7508 -46.1369 0 1.72509 -47.5043 0 -4.2144 -44.959 0 -7.51496 -40.4599 0 -8.9258 -35.2547 0 -9.12805 -30.0565 0 -8.63234 -25.234 0 -7.78492 -20.9502 0 -6.80427 -17.2497 0 -5.81924 -14.1136 0 -4.89963 -11.4919 0 -4.07814 -9.32181 0 -3.36531 -7.53886 0 -2.75913 -6.0821 0 -2.25113 -4.89683 0 -1.83006 -3.93541 0 -1.48402 -3.15725 0 -1.20158 -2.52825 0 -0.972437 -2.02005 0 -0.787568 -1.60923 0 -0.639301 -1.27652 0 -0.521229 -1.0061 0 -0.428095 -0.785006 0 -0.355651 -0.602513 0 -0.300535 -0.449727 0 -0.260153 -0.319158 0 -0.232583 -0.204378 0 -0.216499 -0.0997181 0 -0.211121 1.19209e-07 0 33.151 -1.78814e-07 0 29.2026 -20.9793 0 20.0172 -36.379 0 9.97514 -44.3452 0 1.86563 -46.206 0 -3.56233 -44.1661 0 -6.63215 -40.0617 0 -7.98323 -35.1242 0 -8.22065 -30.0893 0 -7.80727 -25.3558 0 -7.06084 -21.1122 0 -6.18369 -17.4223 0 -5.29614 -14.28 0 -4.46396 -11.6435 0 -3.71851 -9.45507 0 -3.07043 -7.6532 0 -2.51855 -6.17855 0 -2.05561 -4.97716 0 -1.67159 -4.00167 0 -1.35582 -3.2115 0 -1.09798 -2.57239 0 -0.888717 -2.05576 0 -0.719844 -1.63795 0 -0.584379 -1.29947 0 -0.476486 -1.02431 0 -0.391369 -0.799275 0 -0.325155 -0.613505 0 -0.274776 -0.457954 0 -0.237862 -0.325008 0 -0.212658 -0.208129 0 -0.197955 -0.10155 0 -0.193038 -4.17233e-07 0 29.1599 -1.19209e-07 0 25.8065 -19.8088 0 17.9126 -34.6752 0 9.13024 -42.7568 0 1.91447 -45.0352 0 -2.98944 -43.4396 0 -5.80643 -39.6897 0 -7.07737 -34.996 0 -7.33455 -30.1115 0 -6.993 -25.461 0 -6.34091 -21.2558 0 -5.56334 -17.5768 0 -4.77112 -14.4297 0 -4.02537 -11.7803 0 -3.35563 -9.57557 0 -2.77235 -7.75676 0 -2.27503 -6.26599 0 -1.85747 -5.05005 0 -1.51087 -4.06184 0 -1.22571 -3.26079 0 -0.992773 -2.6125 0 -0.803666 -2.08822 0 -0.651022 -1.66406 0 -0.528551 -1.32035 0 -0.430994 -1.04086 0 -0.354022 -0.812254 0 -0.294139 -0.623503 0 -0.248574 -0.465437 0 -0.215185 -0.330329 0 -0.192388 -0.211541 0 -0.179088 -0.103216 0 -0.174641 2.98023e-07 0 25.4011 2.38419e-07 0 22.5691 -18.8122 0 15.8351 -33.204 0 8.22907 -41.3623 0 1.88412 -43.9914 0 -2.48671 -42.7827 0 -5.0321 -39.3475 0 -6.20493 -34.8731 0 -6.46806 -30.1254 0 -6.18881 -25.5511 0 -5.62499 -21.3818 0 -4.94337 -17.7136 0 -4.24449 -14.5629 0 -3.58422 -11.9024 0 -2.98986 -9.68334 0 -2.47141 -7.84949 0 -2.02887 -6.34437 0 -1.65699 -5.11543 0 -1.34811 -4.11585 0 -1.09387 -3.30504 0 -0.886122 -2.64853 0 -0.717414 -2.11738 0 -0.581205 -1.68753 0 -0.471904 -1.33911 0 -0.384824 -1.05574 0 -0.316113 -0.823921 0 -0.262652 -0.632491 0 -0.221971 -0.472166 0 -0.192161 -0.335114 0 -0.171806 -0.214609 0 -0.15993 -0.104714 0 -0.155959 -2.98023e-07 0 21.8377 -5.96046e-08 0 19.468 -17.9703 0 13.7851 -31.9463 0 7.28253 -40.1529 0 1.78609 -43.0738 0 -2.04542 -42.1979 0 -4.30345 -39.0384 0 -5.36253 -34.7583 0 -5.61935 -30.133 0 -5.39387 -25.6275 0 -4.91282 -21.491 0 -4.32386 -17.8332 0 -3.71652 -14.6799 0 -3.14084 -12.0098 0 -2.62156 -9.77838 0 -2.16794 -7.93139 0 -1.78036 -6.41366 0 -1.45442 -5.17327 0 -1.18355 -4.16363 0 -0.960505 -3.34421 0 -0.778184 -2.68043 0 -0.630091 -2.1432 0 -0.510504 -1.70832 0 -0.414525 -1.35574 0 -0.338051 -1.06893 0 -0.277703 -0.834261 0 -0.230746 -0.640457 0 -0.195012 -0.478128 0 -0.168826 -0.339355 0 -0.150945 -0.217328 0 -0.140513 -0.106042 0 -0.137024 4.76837e-07 0 18.4372 2.98023e-07 0 16.4826 -17.2678 0 11.7613 -30.8861 0 6.29976 -39.1206 0 1.63089 -42.2815 0 -1.65714 -41.6874 0 -3.61472 -38.7651 0 -4.54662 -34.6541 0 -4.78645 -30.1359 0 -4.60723 -25.6913 0 -4.2041 -21.5841 0 -3.70488 -17.9359 0 -3.18744 -14.7808 0 -2.69556 -12.1028 0 -2.25105 -9.86073 0 -1.86228 -8.00242 0 -1.5298 -6.47379 0 -1.25002 -5.2235 0 -1.01741 -4.20516 0 -0.825792 -3.37827 0 -0.669118 -2.70817 0 -0.541829 -2.16566 0 -0.439024 -1.7264 0 -0.356505 -1.3702 0 -0.290748 -1.0804 0 -0.238853 -0.843256 0 -0.198471 -0.647388 0 -0.16774 -0.483317 0 -0.145218 -0.343044 0 -0.129839 -0.219695 0 -0.120866 -0.107197 0 -0.117866 -4.17233e-07 0 15.1708 -2.98023e-07 0 13.5936 -16.6921 0 9.76151 -30.0099 0 5.28839 -38.2586 0 1.42825 -41.6132 0 -1.31371 -41.2529 0 -2.96018 -38.53 0 -3.75359 -34.5623 0 -3.9673 -30.1358 0 -3.82788 -25.7435 0 -3.49846 -21.6618 0 -3.08642 -18.0223 0 -2.65746 -14.8658 0 -2.24868 -12.1814 0 -1.87869 -9.93039 0 -1.55474 -8.06257 0 -1.2775 -6.52476 0 -1.04407 -5.26608 0 -0.849913 -4.24038 0 -0.689925 -3.40716 0 -0.559082 -2.73171 0 -0.45276 -2.18473 0 -0.366877 -1.74175 0 -0.297933 -1.38248 0 -0.242989 -1.09014 0 -0.199625 -0.850894 0 -0.165879 -0.653273 0 -0.140197 -0.487723 0 -0.121375 -0.346178 0 -0.108522 -0.221704 0 -0.101024 -0.108179 0 -0.0985162 4.76837e-07 0 12.0123 -1.19209e-07 0 10.7831 -16.2334 0 7.78275 -29.3069 0 4.25491 -37.5611 0 1.18717 -41.0679 0 -1.00724 -40.8956 0 -2.33408 -38.335 0 -2.97972 -34.4849 0 -3.15974 -30.1339 0 -3.05472 -25.785 0 -2.79547 -21.7247 0 -2.46846 -18.0925 0 -2.12677 -14.9353 0 -1.80048 -12.2456 0 -1.50478 -9.9874 0 -1.24565 -8.11182 0 -1.02374 -6.56652 0 -0.836815 -5.301 0 -0.681286 -4.26926 0 -0.553096 -3.43085 0 -0.448238 -2.75102 0 -0.363018 -2.20037 0 -0.294173 -1.75434 0 -0.238901 -1.39255 0 -0.19485 -1.09813 0 -0.16008 -0.857163 0 -0.133022 -0.658104 0 -0.112429 -0.491339 0 -0.097336 -0.34875 0 -0.0870298 -0.223354 0 -0.0810166 -0.108984 0 -0.0790058 -5.96046e-07 0 8.93775 0 0 8.03438 -15.8839 0 5.82137 -28.7683 0 3.2048 -37.023 0 0.916045 -40.6445 0 -0.730052 -40.6165 0 -1.7307 -38.1816 0 -2.22126 -34.4231 0 -2.36154 -30.1314 0 -2.28658 -25.8166 0 -2.09465 -21.7732 0 -1.85093 -18.1469 0 -1.59553 -14.9891 0 -1.35125 -12.2955 0 -1.12965 -10.0318 0 -0.935316 -8.15018 0 -0.768817 -6.59905 0 -0.62852 -5.3282 0 -0.511756 -4.29178 0 -0.415497 -3.44933 0 -0.336746 -2.76608 0 -0.272736 -2.21257 0 -0.221021 -1.76417 0 -0.179499 -1.40041 0 -0.146405 -1.10437 0 -0.120283 -0.862053 0 -0.0999529 -0.661872 0 -0.0844803 -0.49416 0 -0.0731399 -0.350756 0 -0.0653961 -0.224641 0 -0.060878 -0.109613 0 -0.0593671 5.96046e-07 0 5.92484 -2.38419e-07 0 5.33122 -15.6379 0 3.87335 -28.3876 0 2.14285 -36.6408 0 0.622801 -40.3423 0 -0.474665 -40.4164 0 -1.14435 -38.071 0 -1.47438 -34.3782 0 -1.57041 -30.1289 0 -1.52225 -25.8388 0 -1.3955 -21.8076 0 -1.23375 -18.1857 0 -1.0639 -15.0276 0 -0.901259 -12.3312 0 -0.753604 -10.0635 0 -0.624058 -8.17763 0 -0.513027 -6.62234 0 -0.419446 -5.34769 0 -0.341547 -4.3079 0 -0.277319 -3.46256 0 -0.224768 -2.77686 0 -0.18205 -2.22131 0 -0.147534 -1.77121 0 -0.11982 -1.40604 0 -0.0977308 -1.10884 0 -0.0802943 -0.865557 0 -0.066724 -0.664573 0 -0.0563958 -0.496182 0 -0.0488257 -0.352194 0 -0.0436564 -0.225563 0 -0.0406404 -0.110063 0 -0.0396318 -5.96046e-07 0 2.95239 2.38419e-07 0 2.65814 -15.4912 0 1.93439 -28.1602 0 1.07328 -36.4116 0 0.315009 -40.1605 0 -0.233731 -40.2956 0 -0.569342 -38.004 0 -0.735252 -34.3508 0 -0.784016 -30.1272 0 -0.760482 -25.8519 0 -0.697464 -21.8282 0 -0.616812 -18.209 0 -0.532013 -15.0508 0 -0.450756 -12.3526 0 -0.376953 -10.0826 0 -0.312183 -8.19417 0 -0.256658 -6.63638 0 -0.209853 -5.35943 0 -0.170887 -4.31762 0 -0.138756 -3.47054 0 -0.112465 -2.78337 0 -0.0910924 -2.22658 0 -0.0738232 -1.77545 0 -0.0599565 -1.40944 0 -0.0489037 -1.11153 0 -0.040179 -0.86767 0 -0.0333886 -0.666202 0 -0.0282206 -0.497402 0 -0.0244326 -0.353061 0 -0.0218459 -0.226119 0 -0.0203367 -0.110334 0 -0.0198321 4.76837e-07 0 1.49012e-07 -1.19209e-06 0 -7.31088e-08 -15.4417 0 5.96046e-08 -28.0832 0 -6.89179e-08 -36.3339 0 4.65661e-08 -40.0987 0 -2.98023e-08 -40.2545 0 5.96046e-08 -37.9812 0 -5.96046e-08 -34.3414 0 4.09782e-08 -30.1266 0 0 -25.8564 0 -7.45058e-09 -21.8352 0 -1.49012e-08 -18.2169 0 -7.45058e-09 -15.0586 0 2.98023e-08 -12.3599 0 -1.49012e-08 -10.0891 0 0 -8.19979 0 -2.23517e-08 -6.64115 0 4.47035e-08 -5.36342 0 -1.49012e-08 -4.32093 0 0 -3.47326 0 0 -2.78558 0 -1.49012e-08 -2.22837 0 -2.98023e-08 -1.77689 0 4.47035e-08 -1.41059 0 -4.47035e-08 -1.11245 0 -1.49012e-08 -0.86839 0 1.49012e-08 -0.666755 0 -2.98023e-08 -0.497816 0 -2.98023e-08 -0.353356 0 1.49012e-07 -0.226308 0 -2.98023e-07 -0.110427 0 3.8743e-07 2.38419e-07 0 </DataArray> 
</PointData> 
<Points> 
<DataArray type="Float32" NumberOfComponents="3"> 