<?xml version="1.0"?> 
<VTKFile type="StructuredGrid" version="0.1"> 
<StructuredGrid WholeExtent="0 15 0 15 0 0"> 
<Piece Extent="0 15 0 15 0 0"> 
<PointData>
<DataArray type="Float32" Name="|E|" format="ascii" NumberOfComponents="3"> 
276968 4.2008e+06 0 275794 4.18299e+06 0 274867 4.16893e+06 0 274180 4.15852e+06 0 273736 4.15178e+06 0 273543 4.14885e+06 0 273622 4.15005e+06 0 274001 4.1558e+06 0 274725 4.16678e+06 0 275853 4.18389e+06 0 277469 4.2084e+06 0 279691 4.24209e+06 0 282687 4.28755e+06 0 286713 4.34861e+06 0 292171 4.43139e+06 0 299757 4.54644e+06 0 248816 4.20058e+06 0 252910 4.1823e+06 0 257027 4.16766e+06 0 261336 4.15654e+06 0 266013 4.14895e+06 0 271249 4.145e+06 0 277267 4.14493e+06 0 284337 4.14912e+06 0 292805 4.15813e+06 0 303132 4.17271e+06 0 315954 4.1939e+06 0 332188 4.22312e+06 0 353218 4.26231e+06 0 381243 4.31418e+06 0 420005 4.38255e+06 0 476247 4.47281e+06 0 220038 4.19278e+06 0 229108 4.17449e+06 0 237958 4.15951e+06 0 246913 4.1477e+06 0 256297 4.13904e+06 0 266453 4.13359e+06 0 277765 4.13152e+06 0 290685 4.13308e+06 0 305773 4.13864e+06 0 323749 4.14869e+06 0 345572 4.16385e+06 0 372562 4.18489e+06 0 406594 4.21272e+06 0 450403 4.24831e+06 0 508096 4.29244e+06 0 585750 4.34506e+06 0 191586 4.178e+06 0 204999 4.1602e+06 0 217968 4.14514e+06 0 230930 4.13272e+06 0 244321 4.12289e+06 0 258586 4.11568e+06 0 274213 4.11114e+06 0 291756 4.10941e+06 0 311878 4.11064e+06 0 335391 4.11504e+06 0 363326 4.1228e+06 0 397008 4.1341e+06 0 438173 4.14896e+06 0 489091 4.1671e+06 0 552699 4.18763e+06 0 632547 4.20843e+06 0 164327 4.15735e+06 0 181192 4.14042e+06 0 197435 4.12556e+06 0 213559 4.11267e+06 0 230058 4.10171e+06 0 247434 4.09266e+06 0 266216 4.0855e+06 0 286989 4.08024e+06 0 310420 4.07686e+06 0 337288 4.07534e+06 0 368521 4.07556e+06 0 405232 4.07729e+06 0 448744 4.08006e+06 0 500605 4.08303e+06 0 562530 4.08479e+06 0 636208 4.0831e+06 0 138943 4.13224e+06 0 158216 4.11648e+06 0 176751 4.10203e+06 0 195068 4.08885e+06 0 213679 4.07688e+06 0 233092 4.06608e+06 0 253831 4.05638e+06 0 276455 4.04769e+06 0 301574 4.0399e+06 0 329864 4.03282e+06 0 362077 4.02615e+06 0 399049 4.01947e+06 0 441684 4.01211e+06 0 490915 4.00313e+06 0 547618 3.99119e+06 0 612446 3.97446e+06 0 115878 4.10425e+06 0 136467 4.08982e+06 0 156266 4.07595e+06 0 175776 4.06264e+06 0 195488 4.04983e+06 0 215881 4.03748e+06 0 237442 4.02549e+06 0 260670 4.01373e+06 0 286089 4.002e+06 0 314246 3.99006e+06 0 345714 3.97754e+06 0 381079 3.96394e+06 0 420914 3.94862e+06 0 465732 3.93071e+06 0 515919 3.90911e+06 0 571626 3.88248e+06 0 95333.7 4.07496e+06 0 116188 4.06191e+06 0 136257 4.04872e+06 0 155997 4.03541e+06 0 175850 4.02197e+06 0 196248 4.00833e+06 0 217619 3.99439e+06 0 240389 3.98e+06 0 264986 3.96496e+06 0 291837 3.94898e+06 0 321358 3.93171e+06 0 353943 3.91269e+06 0 389935 3.89133e+06 0 429591 3.86692e+06 0 473033 3.83864e+06 0 520190 3.80553e+06 0 77310.6 4.04586e+06 0 97478.2 4.03413e+06 0 116911 4.02165e+06 0 136002 4.00847e+06 0 155135 3.99457e+06 0 174680 3.9799e+06 0 194999 3.96438e+06 0 216442 3.94785e+06 0 239348 3.93012e+06 0 264038 3.91093e+06 0 290810 3.88995e+06 0 319919 3.86679e+06 0 351561 3.84097e+06 0 385844 3.81194e+06 0 422763 3.77907e+06 0 462167 3.74172e+06 0 61652.5 4.01825e+06 0 80315.7 4.00773e+06 0 98324.5 3.99594e+06 0 116005 3.98294e+06 0 133675 3.96873e+06 0 151641 3.95329e+06 0 170198 3.93653e+06 0 189624 3.91833e+06 0 210181 3.8985e+06 0 232107 3.87683e+06 0 255609 3.85304e+06 0 280849 3.8268e+06 0 307932 3.79774e+06 0 336889 3.76545e+06 0 367660 3.72947e+06 0 400078 3.68937e+06 0 48099.8 3.99322e+06 0 64585 3.98375e+06 0 80514.7 3.97258e+06 0 96148.2 3.9598e+06 0 111740 3.94541e+06 0 127534 3.92941e+06 0 143761 3.91172e+06 0 160637 3.89224e+06 0 178359 3.87083e+06 0 197099 3.84729e+06 0 216999 3.82142e+06 0 238160 3.79294e+06 0 260634 3.76158e+06 0 284415 3.72703e+06 0 309426 3.68896e+06 0 335515 3.64707e+06 0 36332.1 3.97166e+06 0 50106.4 3.96305e+06 0 63433.5 3.95242e+06 0 76510.9 3.93985e+06 0 89533.1 3.92537e+06 0 102686 3.90897e+06 0 116143 3.89061e+06 0 130067 3.8702e+06 0 144600 3.84762e+06 0 159864 3.82273e+06 0 175954 3.79536e+06 0 192932 3.7653e+06 0 210820 3.73233e+06 0 229598 3.69623e+06 0 249193 3.65678e+06 0 269481 3.61376e+06 0 25998.9 3.95424e+06 0 36659 3.9463e+06 0 46984 3.9361e+06 0 57115.3 3.92372e+06 0 67192.4 3.90919e+06 0 77348.6 3.89253e+06 0 87708.3 3.8737e+06 0 98385.1 3.85264e+06 0 109478 3.82925e+06 0 121070 3.80342e+06 0 133221 3.775e+06 0 145969 3.74385e+06 0 159322 3.7098e+06 0 173256 3.67268e+06 0 187713 3.63233e+06 0 202600 3.58862e+06 0 16739.2 3.94147e+06 0 23998.1 3.934e+06 0 31034.3 3.92411e+06 0 37938.7 3.91187e+06 0 44801 3.89734e+06 0 51706.9 3.88052e+06 0 58736.2 3.86138e+06 0 65960.9 3.83989e+06 0 73443.5 3.81597e+06 0 81234.5 3.78952e+06 0 89370.6 3.76043e+06 0 97872 3.72858e+06 0 106740 3.69383e+06 0 115958 3.65607e+06 0 125483 3.61517e+06 0 135255 3.57104e+06 0 8192.15 3.93367e+06 0 11866.3 3.92648e+06 0 15429.4 3.91678e+06 0 18925.8 3.90464e+06 0 22399.5 3.89011e+06 0 25892.2 3.8732e+06 0 29442.8 3.8539e+06 0 33086.4 3.83217e+06 0 36852.9 3.80794e+06 0 40766.4 3.78114e+06 0 44844.1 3.75167e+06 0 49094.8 3.71943e+06 0 53518.6 3.6843e+06 0 58105.3 3.64619e+06 0 62834.6 3.605e+06 0 67675.9 3.56065e+06 0 0 3.93105e+06 0 0 3.92396e+06 0 0 3.91432e+06 0 0 3.90221e+06 0 0 3.88768e+06 0 0 3.87074e+06 0 0 3.85138e+06 0 0 3.82958e+06 0 0 3.80526e+06 0 0 3.77834e+06 0 0 3.74875e+06 0 0 3.71638e+06 0 0 3.68113e+06 0 0 3.64291e+06 0 0 3.60162e+06 0 0 3.55721e+06 0 </DataArray> 
</PointData> 
<Points> 
<DataArray type="Float32" NumberOfComponents="3"> 
0.1465 0.0627913 0 0.148833 0.0626374 0 0.151167 0.0624836 0 0.1535 0.0623297 0 0.155833 0.0621759 0 0.158167 0.0620221 0 0.1605 0.0618682 0 0.162833 0.0617144 0 0.165167 0.0615605 0 0.1675 0.0614067 0 0.169833 0.0612529 0 0.172167 0.061099 0 0.1745 0.0609452 0 0.176833 0.0607913 0 0.179167 0.0606375 0 0.1815 0.0604836 0 0.1465 0.0660719 0 0.148833 0.0659283 0 0.151167 0.0657847 0 0.1535 0.0656411 0 0.155833 0.0654975 0 0.158167 0.0653539 0 0.1605 0.0652103 0 0.162833 0.0650668 0 0.165167 0.0649232 0 0.1675 0.0647796 0 0.169833 0.064636 0 0.172167 0.0644924 0 0.1745 0.0643488 0 0.176833 0.0642052 0 0.179167 0.0640617 0 0.1815 0.0639181 0 0.1465 0.0693524 0 0.148833 0.0692191 0 0.151167 0.0690858 0 0.1535 0.0689524 0 0.155833 0.0688191 0 0.158167 0.0686858 0 0.1605 0.0685525 0 0.162833 0.0684191 0 0.165167 0.0682858 0 0.1675 0.0681525 0 0.169833 0.0680191 0 0.172167 0.0678858 0 0.1745 0.0677525 0 0.176833 0.0676192 0 0.179167 0.0674858 0 0.1815 0.0673525 0 0.1465 0.072633 0 0.148833 0.0725099 0 0.151167 0.0723869 0 0.1535 0.0722638 0 0.155833 0.0721407 0 0.158167 0.0720176 0 0.1605 0.0718946 0 0.162833 0.0717715 0 0.165167 0.0716484 0 0.1675 0.0715254 0 0.169833 0.0714023 0 0.172167 0.0712792 0 0.1745 0.0711561 0 0.176833 0.0710331 0 0.179167 0.07091 0 0.1815 0.0707869 0 0.1465 0.0759136 0 0.148833 0.0758008 0 0.151167 0.075688 0 0.1535 0.0755751 0 0.155833 0.0754623 0 0.158167 0.0753495 0 0.1605 0.0752367 0 0.162833 0.0751239 0 0.165167 0.0750111 0 0.1675 0.0748982 0 0.169833 0.0747854 0 0.172167 0.0746726 0 0.1745 0.0745598 0 0.176833 0.074447 0 0.179167 0.0743342 0 0.1815 0.0742213 0 0.1465 0.0791942 0 0.148833 0.0790916 0 0.151167 0.0789891 0 0.1535 0.0788865 0 0.155833 0.0787839 0 0.158167 0.0786814 0 0.1605 0.0785788 0 0.162833 0.0784763 0 0.165167 0.0783737 0 0.1675 0.0782711 0 0.169833 0.0781686 0 0.172167 0.078066 0 0.1745 0.0779634 0 0.176833 0.0778609 0 0.179167 0.0777583 0 0.1815 0.0776558 0 0.1465 0.0824748 0 0.148833 0.0823825 0 0.151167 0.0822902 0 0.1535 0.0821978 0 0.155833 0.0821055 0 0.158167 0.0820132 0 0.1605 0.0819209 0 0.162833 0.0818286 0 0.165167 0.0817363 0 0.1675 0.081644 0 0.169833 0.0815517 0 0.172167 0.0814594 0 0.1745 0.0813671 0 0.176833 0.0812748 0 0.179167 0.0811825 0 0.1815 0.0810902 0 0.1465 0.0857553 0 0.148833 0.0856733 0 0.151167 0.0855912 0 0.1535 0.0855092 0 0.155833 0.0854271 0 0.158167 0.0853451 0 0.1605 0.0852631 0 0.162833 0.085181 0 0.165167 0.085099 0 0.1675 0.0850169 0 0.169833 0.0849349 0 0.172167 0.0848528 0 0.1745 0.0847708 0 0.176833 0.0846887 0 0.179167 0.0846067 0 0.1815 0.0845246 0 0.1465 0.0890359 0 0.148833 0.0889641 0 0.151167 0.0888923 0 0.1535 0.0888205 0 0.155833 0.0887488 0 0.158167 0.088677 0 0.1605 0.0886052 0 0.162833 0.0885334 0 0.165167 0.0884616 0 0.1675 0.0883898 0 0.169833 0.088318 0 0.172167 0.0882462 0 0.1745 0.0881744 0 0.176833 0.0881026 0 0.179167 0.0880308 0 0.1815 0.087959 0 0.1465 0.0923165 0 0.148833 0.092255 0 0.151167 0.0921934 0 0.1535 0.0921319 0 0.155833 0.0920704 0 0.158167 0.0920088 0 0.1605 0.0919473 0 0.162833 0.0918858 0 0.165167 0.0918242 0 0.1675 0.0917627 0 0.169833 0.0917011 0 0.172167 0.0916396 0 0.1745 0.0915781 0 0.176833 0.0915165 0 0.179167 0.091455 0 0.1815 0.0913935 0 0.1465 0.0955971 0 0.148833 0.0955458 0 0.151167 0.0954945 0 0.1535 0.0954432 0 0.155833 0.095392 0 0.158167 0.0953407 0 0.1605 0.0952894 0 0.162833 0.0952381 0 0.165167 0.0951868 0 0.1675 0.0951356 0 0.169833 0.0950843 0 0.172167 0.095033 0 0.1745 0.0949817 0 0.176833 0.0949304 0 0.179167 0.0948792 0 0.1815 0.0948279 0 0.1465 0.0988777 0 0.148833 0.0988366 0 0.151167 0.0987956 0 0.1535 0.0987546 0 0.155833 0.0987136 0 0.158167 0.0986725 0 0.1605 0.0986315 0 0.162833 0.0985905 0 0.165167 0.0985495 0 0.1675 0.0985085 0 0.169833 0.0984674 0 0.172167 0.0984264 0 0.1745 0.0983854 0 0.176833 0.0983444 0 0.179167 0.0983033 0 0.1815 0.0982623 0 0.1465 0.102158 0 0.148833 0.102127 0 0.151167 0.102097 0 0.1535 0.102066 0 0.155833 0.102035 0 0.158167 0.102004 0 0.1605 0.101974 0 0.162833 0.101943 0 0.165167 0.101912 0 0.1675 0.101881 0 0.169833 0.101851 0 0.172167 0.10182 0 0.1745 0.101789 0 0.176833 0.101758 0 0.179167 0.101727 0 0.1815 0.101697 0 0.1465 0.105439 0 0.148833 0.105418 0 0.151167 0.105398 0 0.1535 0.105377 0 0.155833 0.105357 0 0.158167 0.105336 0 0.1605 0.105316 0 0.162833 0.105295 0 0.165167 0.105275 0 0.1675 0.105254 0 0.169833 0.105234 0 0.172167 0.105213 0 0.1745 0.105193 0 0.176833 0.105172 0 0.179167 0.105152 0 0.1815 0.105131 0 0.1465 0.108719 0 0.148833 0.108709 0 0.151167 0.108699 0 0.1535 0.108689 0 0.155833 0.108678 0 0.158167 0.108668 0 0.1605 0.108658 0 0.162833 0.108648 0 0.165167 0.108637 0 0.1675 0.108627 0 0.169833 0.108617 0 0.172167 0.108607 0 0.1745 0.108596 0 0.176833 0.108586 0 0.179167 0.108576 0 0.1815 0.108566 0 0.1465 0.112 0 0.148833 0.112 0 0.151167 0.112 0 0.1535 0.112 0 0.155833 0.112 0 0.158167 0.112 0 0.1605 0.112 0 0.162833 0.112 0 0.165167 0.112 0 0.1675 0.112 0 0.169833 0.112 0 0.172167 0.112 0 0.1745 0.112 0 0.176833 0.112 0 0.179167 0.112 0 0.1815 0.112 0 
</DataArray>
</Points> 
</Piece> 
</StructuredGrid> 
</VTKFile> 
