<?xml version="1.0"?> 
<VTKFile type="StructuredGrid" version="0.1"> 
<StructuredGrid WholeExtent="0 15 0 15 0 0"> 
<Piece Extent="0 15 0 15 0 0"> 
<PointData>
<DataArray type="Float32" Name="|E|" format="ascii" NumberOfComponents="3"> 
-1.668e+06 0 0 -1.67436e+06 126643 0 -1.69334e+06 255144 0 -1.72461e+06 387403 0 -1.76749e+06 525410 0 -1.82071e+06 671306 0 -1.88193e+06 826889 0 -1.94673e+06 994231 0 -2.00802e+06 1.1707e+06 0 -2.05338e+06 1.35265e+06 0 -2.07256e+06 1.5094e+06 0 -2.06539e+06 1.60633e+06 0 -2.07433e+06 1.58465e+06 0 -2.18605e+06 1.37999e+06 0 -2.35992e+06 1.22717e+06 0 -4.48538e+06 3.03648e+06 0 -1.65445e+06 0 0 -1.65945e+06 125323 0 -1.6763e+06 252550 0 -1.70465e+06 383429 0 -1.74387e+06 519745 0 -1.7927e+06 663379 0 -1.84921e+06 815844 0 -1.90939e+06 978633 0 -1.96816e+06 1.14976e+06 0 -2.01498e+06 1.3246e+06 0 -2.04463e+06 1.48314e+06 0 -2.05324e+06 1.59023e+06 0 -2.07969e+06 1.61363e+06 0 -2.17201e+06 1.48179e+06 0 -2.38901e+06 1.31941e+06 0 -2.76421e+06 1.32722e+06 0 -1.64076e+06 0 0 -1.64439e+06 123918 0 -1.65914e+06 249783 0 -1.68465e+06 379192 0 -1.72031e+06 513749 0 -1.76492e+06 655111 0 -1.81686e+06 804530 0 -1.8726e+06 963151 0 -1.92841e+06 1.12925e+06 0 -1.97573e+06 1.29861e+06 0 -2.01199e+06 1.45631e+06 0 -2.03314e+06 1.57491e+06 0 -2.07077e+06 1.62647e+06 0 -2.15863e+06 1.5644e+06 0 -2.36434e+06 1.42223e+06 0 -2.61643e+06 1.19546e+06 0 -1.62693e+06 0 0 -1.62918e+06 122431 0 -1.64186e+06 246845 0 -1.66459e+06 374700 0 -1.69679e+06 507432 0 -1.73733e+06 646500 0 -1.78484e+06 792951 0 -1.83626e+06 947658 0 -1.88881e+06 1.10915e+06 0 -1.93574e+06 1.27373e+06 0 -1.97585e+06 1.43011e+06 0 -2.0062e+06 1.55727e+06 0 -2.05094e+06 1.63198e+06 0 -2.13791e+06 1.62186e+06 0 -2.32567e+06 1.52642e+06 0 -2.5905e+06 1.34076e+06 0 -1.61296e+06 0 0 -1.61383e+06 120865 0 -1.62447e+06 243741 0 -1.64448e+06 369958 0 -1.67331e+06 500800 0 -1.70992e+06 637550 0 -1.75314e+06 781096 0 -1.80035e+06 932090 0 -1.84941e+06 1.08933e+06 0 -1.89521e+06 1.24961e+06 0 -1.93707e+06 1.40434e+06 0 -1.97364e+06 1.53773e+06 0 -2.02254e+06 1.63066e+06 0 -2.10822e+06 1.661e+06 0 -2.27805e+06 1.61685e+06 0 -2.55024e+06 1.48449e+06 0 -1.59886e+06 0 0 -1.59834e+06 119220 0 -1.60696e+06 240474 0 -1.6243e+06 364971 0 -1.64986e+06 493861 0 -1.68268e+06 628266 0 -1.72172e+06 768948 0 -1.76482e+06 916403 0 -1.81024e+06 1.06964e+06 0 -1.85425e+06 1.226e+06 0 -1.89636e+06 1.37881e+06 0 -1.93653e+06 1.51649e+06 0 -1.98743e+06 1.62361e+06 0 -2.07037e+06 1.68486e+06 0 -2.22252e+06 1.68784e+06 0 -2.48188e+06 1.62428e+06 0 -1.58462e+06 0 0 -1.58271e+06 117498 0 -1.58933e+06 237048 0 -1.60407e+06 359747 0 -1.62645e+06 486619 0 -1.65559e+06 618652 0 -1.69057e+06 756500 0 -1.72964e+06 900547 0 -1.77133e+06 1.04998e+06 0 -1.813e+06 1.20266e+06 0 -1.85424e+06 1.3534e+06 0 -1.89587e+06 1.49367e+06 0 -1.9471e+06 1.61169e+06 0 -2.02572e+06 1.69627e+06 0 -2.1613e+06 1.7383e+06 0 -2.39213e+06 1.73298e+06 0 -1.57025e+06 0 0 -1.56695e+06 115701 0 -1.57158e+06 233467 0 -1.58378e+06 354289 0 -1.60306e+06 479082 0 -1.62864e+06 608709 0 -1.65968e+06 743742 0 -1.69477e+06 884482 0 -1.73268e+06 1.03028e+06 0 -1.77157e+06 1.17943e+06 0 -1.8111e+06 1.32793e+06 0 -1.85253e+06 1.46953e+06 0 -1.90269e+06 1.59545e+06 0 -1.97595e+06 1.69762e+06 0 -2.09566e+06 1.77003e+06 0 -2.29568e+06 1.81156e+06 0 -1.55575e+06 0 0 -1.55104e+06 113831 0 -1.55373e+06 229735 0 -1.56343e+06 348603 0 -1.57968e+06 471255 0 -1.6018e+06 598443 0 -1.62902e+06 730668 0 -1.66021e+06 868177 0 -1.69432e+06 1.01046e+06 0 -1.73008e+06 1.15617e+06 0 -1.76727e+06 1.30228e+06 0 -1.80722e+06 1.44418e+06 0 -1.8552e+06 1.57554e+06 0 -1.92243e+06 1.69057e+06 0 -2.02721e+06 1.78578e+06 0 -2.19662e+06 1.86278e+06 0 -1.54112e+06 0 0 -1.53501e+06 111889 0 -1.53576e+06 225854 0 -1.54301e+06 342696 0 -1.55632e+06 463143 0 -1.57508e+06 587855 0 -1.59859e+06 717273 0 -1.62593e+06 851604 0 -1.65624e+06 990466 0 -1.68863e+06 1.1328e+06 0 -1.72297e+06 1.27635e+06 0 -1.76054e+06 1.41773e+06 0 -1.80544e+06 1.55249e+06 0 -1.8663e+06 1.67661e+06 0 -1.95723e+06 1.78828e+06 0 -2.09894e+06 1.89031e+06 0 -1.52636e+06 0 0 -1.51884e+06 109877 0 -1.51768e+06 221829 0 -1.52254e+06 336571 0 -1.53298e+06 454753 0 -1.54845e+06 576949 0 -1.56836e+06 703552 0 -1.59193e+06 834740 0 -1.61844e+06 970237 0 -1.64729e+06 1.10923e+06 0 -1.67841e+06 1.25006e+06 0 -1.71295e+06 1.39027e+06 0 -1.75411e+06 1.52679e+06 0 -1.80845e+06 1.65694e+06 0 -1.88667e+06 1.78001e+06 0 -2.00425e+06 1.89951e+06 0 -1.51148e+06 0 0 -1.50255e+06 107797 0 -1.49949e+06 217662 0 -1.50199e+06 330234 0 -1.50963e+06 446088 0 -1.52192e+06 565728 0 -1.53832e+06 689501 0 -1.55819e+06 817568 0 -1.58094e+06 949738 0 -1.60613e+06 1.0854e+06 0 -1.63377e+06 1.22336e+06 0 -1.66481e+06 1.36185e+06 0 -1.70177e+06 1.49882e+06 0 -1.74959e+06 1.63257e+06 0 -1.81623e+06 1.76308e+06 0 -1.91299e+06 1.89377e+06 0 -1.49648e+06 0 0 -1.48612e+06 105649 0 -1.4812e+06 213357 0 -1.48138e+06 323689 0 -1.48629e+06 437156 0 -1.49548e+06 554196 0 -1.50846e+06 675120 0 -1.52471e+06 800074 0 -1.54373e+06 928937 0 -1.56521e+06 1.06127e+06 0 -1.58917e+06 1.19621e+06 0 -1.61641e+06 1.33255e+06 0 -1.64887e+06 1.46892e+06 0 -1.69026e+06 1.60435e+06 0 -1.74641e+06 1.73921e+06 0 -1.82544e+06 1.87665e+06 0 -1.48137e+06 0 0 -1.46958e+06 103436 0 -1.4628e+06 208916 0 -1.4607e+06 316941 0 -1.46295e+06 427960 0 -1.46912e+06 542357 0 -1.47877e+06 660405 0 -1.49148e+06 782245 0 -1.50682e+06 907808 0 -1.52455e+06 1.03679e+06 0 -1.54472e+06 1.16859e+06 0 -1.56796e+06 1.30239e+06 0 -1.59577e+06 1.43735e+06 0 -1.63087e+06 1.57296e+06 0 -1.67751e+06 1.7098e+06 0 -1.7414e+06 1.85063e+06 0 -1.46613e+06 0 0 -1.45291e+06 101159 0 -1.44429e+06 204344 0 -1.43996e+06 309995 0 -1.4396e+06 418507 0 -1.44282e+06 530213 0 -1.44925e+06 645358 0 -1.45849e+06 764073 0 -1.4702e+06 886333 0 -1.4842e+06 1.01193e+06 0 -1.50052e+06 1.14048e+06 0 -1.51965e+06 1.27145e+06 0 -1.54273e+06 1.40433e+06 0 -1.57175e+06 1.53895e+06 0 -1.60975e+06 1.67599e+06 0 -1.66069e+06 1.81774e+06 0 -1.45077e+06 0 0 -1.43612e+06 98819.9 0 -1.42567e+06 199643 0 -1.41915e+06 302855 0 -1.41624e+06 408800 0 -1.41659e+06 517769 0 -1.41987e+06 629979 0 -1.42573e+06 745552 0 -1.43388e+06 864496 0 -1.44417e+06 986687 0 -1.45663e+06 1.11188e+06 0 -1.47162e+06 1.23975e+06 0 -1.48997e+06 1.37004e+06 0 -1.51315e+06 1.50278e+06 0 -1.54326e+06 1.63864e+06 0 -1.58304e+06 1.77953e+06 0 </DataArray> 
</PointData> 
<Points> 
<DataArray type="Float32" NumberOfComponents="3"> 
0 0.045 0 0.00666667 0.045 0 0.0133333 0.045 0 0.02 0.045 0 0.0266667 0.045 0 0.0333333 0.045 0 0.04 0.045 0 0.0466667 0.045 0 0.0533333 0.045 0 0.06 0.045 0 0.0666667 0.045 0 0.0733333 0.045 0 0.08 0.045 0 0.0866667 0.045 0 0.0933333 0.045 0 0.1 0.045 0 0 0.0457111 0 0.00652356 0.045763 0 0.0130471 0.0458148 0 0.0195707 0.0458667 0 0.0260942 0.0459185 0 0.0326178 0.0459704 0 0.0391413 0.0460222 0 0.0456649 0.0460741 0 0.0521884 0.0461259 0 0.058712 0.0461778 0 0.0652356 0.0462296 0 0.0717591 0.0462815 0 0.0782827 0.0463333 0 0.0848062 0.0463852 0 0.0913298 0.046437 0 0.0978533 0.0464889 0 0 0.0464222 0 0.00638044 0.0465259 0 0.0127609 0.0466296 0 0.0191413 0.0467333 0 0.0255218 0.046837 0 0.0319022 0.0469407 0 0.0382827 0.0470444 0 0.0446631 0.0471481 0 0.0510436 0.0472519 0 0.057424 0.0473556 0 0.0638044 0.0474593 0 0.0701849 0.047563 0 0.0765653 0.0476667 0 0.0829458 0.0477704 0 0.0893262 0.0478741 0 0.0957067 0.0479778 0 0 0.0471333 0 0.00623733 0.0472889 0 0.0124747 0.0474444 0 0.018712 0.0476 0 0.0249493 0.0477556 0 0.0311867 0.0479111 0 0.037424 0.0480667 0 0.0436613 0.0482222 0 0.0498987 0.0483778 0 0.056136 0.0485333 0 0.0623733 0.0486889 0 0.0686107 0.0488444 0 0.074848 0.049 0 0.0810853 0.0491556 0 0.0873227 0.0493111 0 0.09356 0.0494667 0 0 0.0478444 0 0.00609422 0.0480519 0 0.0121884 0.0482593 0 0.0182827 0.0484667 0 0.0243769 0.0486741 0 0.0304711 0.0488815 0 0.0365653 0.0490889 0 0.0426596 0.0492963 0 0.0487538 0.0495037 0 0.054848 0.0497111 0 0.0609422 0.0499185 0 0.0670364 0.0501259 0 0.0731307 0.0503333 0 0.0792249 0.0505407 0 0.0853191 0.0507481 0 0.0914133 0.0509556 0 0 0.0485556 0 0.00595111 0.0488148 0 0.0119022 0.0490741 0 0.0178533 0.0493333 0 0.0238044 0.0495926 0 0.0297556 0.0498519 0 0.0357067 0.0501111 0 0.0416578 0.0503704 0 0.0476089 0.0506296 0 0.05356 0.0508889 0 0.0595111 0.0511481 0 0.0654622 0.0514074 0 0.0714133 0.0516667 0 0.0773644 0.0519259 0 0.0833156 0.0521852 0 0.0892667 0.0524444 0 0 0.0492667 0 0.005808 0.0495778 0 0.011616 0.0498889 0 0.017424 0.0502 0 0.023232 0.0505111 0 0.02904 0.0508222 0 0.034848 0.0511333 0 0.040656 0.0514444 0 0.046464 0.0517556 0 0.052272 0.0520667 0 0.05808 0.0523778 0 0.063888 0.0526889 0 0.069696 0.053 0 0.075504 0.0533111 0 0.081312 0.0536222 0 0.08712 0.0539333 0 0 0.0499778 0 0.00566489 0.0503407 0 0.0113298 0.0507037 0 0.0169947 0.0510667 0 0.0226596 0.0514296 0 0.0283244 0.0517926 0 0.0339893 0.0521556 0 0.0396542 0.0525185 0 0.0453191 0.0528815 0 0.050984 0.0532444 0 0.0566489 0.0536074 0 0.0623138 0.0539704 0 0.0679787 0.0543333 0 0.0736436 0.0546963 0 0.0793084 0.0550593 0 0.0849733 0.0554222 0 0 0.0506889 0 0.00552178 0.0511037 0 0.0110436 0.0515185 0 0.0165653 0.0519333 0 0.0220871 0.0523481 0 0.0276089 0.052763 0 0.0331307 0.0531778 0 0.0386524 0.0535926 0 0.0441742 0.0540074 0 0.049696 0.0544222 0 0.0552178 0.054837 0 0.0607396 0.0552519 0 0.0662613 0.0556667 0 0.0717831 0.0560815 0 0.0773049 0.0564963 0 0.0828267 0.0569111 0 0 0.0514 0 0.00537867 0.0518667 0 0.0107573 0.0523333 0 0.016136 0.0528 0 0.0215147 0.0532667 0 0.0268933 0.0537333 0 0.032272 0.0542 0 0.0376507 0.0546667 0 0.0430293 0.0551333 0 0.048408 0.0556 0 0.0537867 0.0560667 0 0.0591653 0.0565333 0 0.064544 0.057 0 0.0699227 0.0574667 0 0.0753013 0.0579333 0 0.08068 0.0584 0 0 0.0521111 0 0.00523556 0.0526296 0 0.0104711 0.0531481 0 0.0157067 0.0536667 0 0.0209422 0.0541852 0 0.0261778 0.0547037 0 0.0314133 0.0552222 0 0.0366489 0.0557407 0 0.0418844 0.0562593 0 0.04712 0.0567778 0 0.0523556 0.0572963 0 0.0575911 0.0578148 0 0.0628267 0.0583333 0 0.0680622 0.0588519 0 0.0732978 0.0593704 0 0.0785333 0.0598889 0 0 0.0528222 0 0.00509244 0.0533926 0 0.0101849 0.053963 0 0.0152773 0.0545333 0 0.0203698 0.0551037 0 0.0254622 0.0556741 0 0.0305547 0.0562444 0 0.0356471 0.0568148 0 0.0407396 0.0573852 0 0.045832 0.0579556 0 0.0509244 0.0585259 0 0.0560169 0.0590963 0 0.0611093 0.0596667 0 0.0662018 0.060237 0 0.0712942 0.0608074 0 0.0763867 0.0613778 0 0 0.0535333 0 0.00494933 0.0541556 0 0.00989867 0.0547778 0 0.014848 0.0554 0 0.0197973 0.0560222 0 0.0247467 0.0566444 0 0.029696 0.0572667 0 0.0346453 0.0578889 0 0.0395947 0.0585111 0 0.044544 0.0591333 0 0.0494933 0.0597556 0 0.0544427 0.0603778 0 0.059392 0.061 0 0.0643413 0.0616222 0 0.0692907 0.0622444 0 0.07424 0.0628667 0 0 0.0542444 0 0.00480622 0.0549185 0 0.00961244 0.0555926 0 0.0144187 0.0562667 0 0.0192249 0.0569407 0 0.0240311 0.0576148 0 0.0288373 0.0582889 0 0.0336436 0.058963 0 0.0384498 0.059637 0 0.043256 0.0603111 0 0.0480622 0.0609852 0 0.0528684 0.0616593 0 0.0576747 0.0623333 0 0.0624809 0.0630074 0 0.0672871 0.0636815 0 0.0720933 0.0643556 0 0 0.0549556 0 0.00466311 0.0556815 0 0.00932622 0.0564074 0 0.0139893 0.0571333 0 0.0186524 0.0578593 0 0.0233156 0.0585852 0 0.0279787 0.0593111 0 0.0326418 0.060037 0 0.0373049 0.060763 0 0.041968 0.0614889 0 0.0466311 0.0622148 0 0.0512942 0.0629407 0 0.0559573 0.0636667 0 0.0606204 0.0643926 0 0.0652836 0.0651185 0 0.0699467 0.0658444 0 0 0.0556667 0 0.00452 0.0564444 0 0.00904 0.0572222 0 0.01356 0.058 0 0.01808 0.0587778 0 0.0226 0.0595556 0 0.02712 0.0603333 0 0.03164 0.0611111 0 0.03616 0.0618889 0 0.04068 0.0626667 0 0.0452 0.0634444 0 0.04972 0.0642222 0 0.05424 0.065 0 0.05876 0.0657778 0 0.06328 0.0665556 0 0.0678 0.0673333 0 
</DataArray>
</Points> 
</Piece> 
</StructuredGrid> 
</VTKFile> 
