<?xml version="1.0"?> 
<VTKFile type="StructuredGrid" version="0.1"> 
<StructuredGrid WholeExtent="0 15 0 15 0 0"> 
<Piece Extent="0 15 0 15 0 0"> 
<PointData>
<DataArray type="Float32" Name="|E|" format="ascii" NumberOfComponents="3"> 
1100.02 2479.74 0 -212.075 766.956 0 -88.6656 295.466 0 -54.5097 184.12 0 -29.4695 70.0206 0 -14.7622 47.5199 0 -9.96886 21.3489 0 -5.00166 14.2332 0 -3.70235 7.36155 0 -1.97617 4.63452 0 -1.44616 2.60811 0 -0.831295 1.54888 0 -0.594439 0.891057 0 -0.384572 0.468308 0 -0.304621 0.215585 0 -0.287375 7.39098e-06 0 -25.3849 1817.67 0 -266.249 674.751 0 -142.303 290.06 0 -71.6627 151.199 0 -37.3472 69.7953 0 -19.0416 40.6689 0 -11.4719 21.0691 0 -6.2223 12.7606 0 -4.08595 7.13575 0 -2.33513 4.30029 0 -1.56434 2.49828 0 -0.937728 1.47103 0 -0.63521 0.848612 0 -0.418829 0.453489 0 -0.323297 0.202017 0 -0.299461 -6.11646e-07 0 -547.339 1519.6 0 -353.531 584.137 0 -179.768 256.481 0 -86.3703 128.21 0 -43.7256 63.6189 0 -22.4725 35.9446 0 -12.9259 19.6437 0 -7.19755 11.658 0 -4.49322 6.71099 0 -2.62871 4.0126 0 -1.69123 2.36132 0 -1.02802 1.39232 0 -0.678086 0.806007 0 -0.449353 0.434265 0 -0.34202 0.191929 0 -0.313161 -3.42727e-07 0 -860.242 1243.76 0 -429.746 482.312 0 -206.525 213.825 0 -97.4754 107.18 0 -48.6714 55.7451 0 -25.1963 31.6607 0 -14.2022 17.8757 0 -8.01057 10.6178 0 -4.87464 6.22032 0 -2.88254 3.72685 0 -1.81299 2.21282 0 -1.10873 1.31059 0 -0.719663 0.762011 0 -0.477641 0.413278 0 -0.360183 0.18247 0 -0.327034 4.91738e-07 0 -1055.54 952.393 0 -483.318 371.839 0 -223.604 168.004 0 -104.853 86.7742 0 -52.2252 47.3513 0 -27.276 27.4902 0 -15.267 15.9757 0 -8.68563 9.57899 0 -5.21658 5.69813 0 -3.10324 3.43475 0 -1.92586 2.05705 0 -1.1814 1.22573 0 -0.759036 0.716484 0 -0.504005 0.391188 0 -0.37762 0.173008 0 -0.340693 -5.36442e-07 0 -1161.32 654.701 0 -511.597 258.33 0 -231.443 121.982 0 -108.686 67.0792 0 -54.4548 38.9109 0 -28.7639 23.4008 0 -16.1106 14.0204 0 -9.23514 8.53497 0 -5.51339 5.15667 0 -3.29369 3.13606 0 -2.02819 1.89573 0 -1.24661 1.13804 0 -0.795788 0.669543 0 -0.528537 0.368201 0 -0.39425 0.163426 0 -0.353965 8.64267e-07 0 -1192.29 365.202 0 -515.224 147.471 0 -230.666 77.8912 0 -109.3 48.4669 0 -55.4643 30.7075 0 -29.7105 19.4195 0 -16.7353 12.0554 0 -9.66757 7.48966 0 -5.76269 4.60366 0 -3.45549 2.83199 0 -2.11906 1.73012 0 -1.30466 1.04795 0 -0.829668 0.621344 0 -0.551267 0.34445 0 -0.410015 0.153689 0 -0.366744 -8.19564e-07 0 -1160.06 96.5457 0 -496.433 44.2649 0 -222.219 37.438 0 -107.118 31.3266 0 -55.3859 22.9408 0 -30.1686 15.5853 0 -17.1497 10.1141 0 -9.99021 6.44965 0 -5.96372 4.04522 0 -3.58984 2.52414 0 -2.19795 1.56134 0 -1.35573 0.955854 0 -0.860497 0.572058 0 -0.572204 0.320043 0 -0.424868 0.14379 0 -0.378952 8.34465e-07 0 -1075.85 -141.565 0 -458.346 -47.1562 0 -207.346 1.96903 0 -102.623 15.9793 0 -54.373 15.7567 0 -30.1915 11.933 0 -17.3675 8.22417 0 -10.2093 5.42117 0 -6.11713 3.48711 0 -3.69756 2.21399 0 -2.26465 1.39049 0 -1.39989 0.862181 0 -0.888171 0.521849 0 -0.591332 0.295108 0 -0.438772 0.133705 0 -0.390543 -6.85453e-07 0 -950.885 -342.309 0 -404.576 -123.513 0 -187.542 -27.5681 0 -96.3372 2.66529 0 -52.5902 9.24435 0 -29.8329 8.49676 0 -17.4058 6.40554 0 -10.3308 4.41131 0 -6.22457 2.93402 0 -3.7792 1.90318 0 -2.31926 1.21859 0 -1.43715 0.767339 0 -0.91265 0.470889 0 -0.608619 0.26975 0 -0.451699 0.123427 0 -0.401498 6.25849e-07 0 -795.922 -502.077 0 -339.006 -182.296 0 -164.493 -50.6462 0 -88.7812 -8.47294 0 -50.2065 3.4451 0 -29.1446 5.30565 0 -17.2845 4.67297 0 -10.3595 3.42665 0 -6.28889 2.39024 0 -3.83491 1.59321 0 -2.36223 1.04664 0 -1.46737 0.671728 0 -0.933995 0.419334 0 -0.623993 0.244105 0 -0.463637 0.11292 0 -0.411844 -6.85453e-07 0 -620.824 -620.046 0 -265.628 -221.504 0 -140.015 -67.3224 0 -80.4495 -17.2985 0 -47.3793 -1.7021 0 -28.1823 2.41865 0 -17.0201 3.01703 0 -10.3029 2.48317 0 -6.3119 1.85494 0 -3.86561 1.28746 0 -2.39374 0.874951 0 -1.49058 0.575872 0 -0.9522 0.367416 0 -0.637426 0.218162 0 -0.47456 0.102312 0 -0.421586 5.36442e-07 0 -431.37 -700.052 0 -188.836 -239.588 0 -115.937 -78.186 0 -71.7843 -23.712 0 -44.2437 -6.33875 0 -27.009 -0.0799287 0 -16.6224 1.40533 0 -10.173 1.60658 0 -6.29305 1.32171 0 -3.87374 0.991455 0 -2.41326 0.702955 0 -1.50727 0.480442 0 -0.967072 0.315454 0 -0.648991 0.191729 0 -0.484408 0.0919386 0 -0.430652 -8.9407e-08 0 -225.542 -754.152 0 -114.138 -235.899 0 -93.8334 -83.9881 0 -63.2122 -27.8308 0 -40.8625 -10.5951 0 -25.7271 -2.11045 0 -16.0701 -0.208914 0 -10.0021 0.831888 0 -6.21962 0.777253 0 -3.86906 0.714024 0 -2.4163 0.528654 0 -1.52005 0.38644 0 -0.977337 0.263908 0 -0.659289 0.164281 0 -0.492951 0.0825492 0 -0.438456 -2.08616e-07 0 37.3804 -827.054 0 -52.6107 -214.131 0 -74.004 -82.4677 0 -55.2771 -31.9585 0 -37.2379 -13.4432 0 -24.4332 -4.21117 0 -15.3494 -1.57243 0 -9.81555 0.0513299 0 -6.08304 0.270297 0 -3.85912 0.438893 0 -2.39959 0.358418 0 -1.53095 0.293192 0 -0.982078 0.212444 0 -0.668712 0.136849 0 -0.500103 0.0731065 0 -0.444484 2.38419e-07 0 567.128 -1209.64 0 -40.3557 -207.053 0 -50.686 -45.0015 0 -49.6586 -55.2989 0 -33.2966 -4.10931 0 -22.9817 -12.2673 0 -14.6962 0.348575 0 -9.44744 -2.21535 0 -6.00219 0.480621 0 -3.77294 -0.113473 0 -2.40599 0.289933 0 -1.516 0.182231 0 -0.994724 0.150517 0 -0.669888 0.130021 0 -0.509458 0.0399506 0 -0.454412 -1.66893e-06 0 </DataArray> 
</PointData> 
<Points> 
<DataArray type="Float32" NumberOfComponents="3"> 
0.125 0.021 0 0.129 0.0212667 0 0.133 0.0215333 0 0.137 0.0218 0 0.141 0.0220667 0 0.145 0.0223333 0 0.149 0.0226 0 0.153 0.0228667 0 0.157 0.0231333 0 0.161 0.0234 0 0.165 0.0236667 0 0.169 0.0239333 0 0.173 0.0242 0 0.177 0.0244667 0 0.181 0.0247333 0 0.185 0.025 0 0.125333 0.0219333 0 0.129311 0.02216 0 0.133289 0.0223867 0 0.137267 0.0226133 0 0.141244 0.02284 0 0.145222 0.0230667 0 0.1492 0.0232933 0 0.153178 0.02352 0 0.157156 0.0237467 0 0.161133 0.0239733 0 0.165111 0.0242 0 0.169089 0.0244267 0 0.173067 0.0246533 0 0.177044 0.02488 0 0.181022 0.0251067 0 0.185 0.0253333 0 0.125667 0.0228667 0 0.129622 0.0230533 0 0.133578 0.02324 0 0.137533 0.0234267 0 0.141489 0.0236133 0 0.145444 0.0238 0 0.1494 0.0239867 0 0.153356 0.0241733 0 0.157311 0.02436 0 0.161267 0.0245467 0 0.165222 0.0247333 0 0.169178 0.02492 0 0.173133 0.0251067 0 0.177089 0.0252933 0 0.181044 0.02548 0 0.185 0.0256667 0 0.126 0.0238 0 0.129933 0.0239467 0 0.133867 0.0240933 0 0.1378 0.02424 0 0.141733 0.0243867 0 0.145667 0.0245333 0 0.1496 0.02468 0 0.153533 0.0248267 0 0.157467 0.0249733 0 0.1614 0.02512 0 0.165333 0.0252667 0 0.169267 0.0254133 0 0.1732 0.02556 0 0.177133 0.0257067 0 0.181067 0.0258533 0 0.185 0.026 0 0.126333 0.0247333 0 0.130244 0.02484 0 0.134156 0.0249467 0 0.138067 0.0250533 0 0.141978 0.02516 0 0.145889 0.0252667 0 0.1498 0.0253733 0 0.153711 0.02548 0 0.157622 0.0255867 0 0.161533 0.0256933 0 0.165444 0.0258 0 0.169356 0.0259067 0 0.173267 0.0260133 0 0.177178 0.02612 0 0.181089 0.0262267 0 0.185 0.0263333 0 0.126667 0.0256667 0 0.130556 0.0257333 0 0.134444 0.0258 0 0.138333 0.0258667 0 0.142222 0.0259333 0 0.146111 0.026 0 0.15 0.0260667 0 0.153889 0.0261333 0 0.157778 0.0262 0 0.161667 0.0262667 0 0.165556 0.0263333 0 0.169444 0.0264 0 0.173333 0.0264667 0 0.177222 0.0265333 0 0.181111 0.0266 0 0.185 0.0266667 0 0.127 0.0266 0 0.130867 0.0266267 0 0.134733 0.0266533 0 0.1386 0.02668 0 0.142467 0.0267067 0 0.146333 0.0267333 0 0.1502 0.02676 0 0.154067 0.0267867 0 0.157933 0.0268133 0 0.1618 0.02684 0 0.165667 0.0268667 0 0.169533 0.0268933 0 0.1734 0.02692 0 0.177267 0.0269467 0 0.181133 0.0269733 0 0.185 0.027 0 0.127333 0.0275333 0 0.131178 0.02752 0 0.135022 0.0275067 0 0.138867 0.0274933 0 0.142711 0.02748 0 0.146556 0.0274667 0 0.1504 0.0274533 0 0.154244 0.02744 0 0.158089 0.0274267 0 0.161933 0.0274133 0 0.165778 0.0274 0 0.169622 0.0273867 0 0.173467 0.0273733 0 0.177311 0.02736 0 0.181156 0.0273467 0 0.185 0.0273333 0 0.127667 0.0284667 0 0.131489 0.0284133 0 0.135311 0.02836 0 0.139133 0.0283067 0 0.142956 0.0282533 0 0.146778 0.0282 0 0.1506 0.0281467 0 0.154422 0.0280933 0 0.158244 0.02804 0 0.162067 0.0279867 0 0.165889 0.0279333 0 0.169711 0.02788 0 0.173533 0.0278267 0 0.177356 0.0277733 0 0.181178 0.02772 0 0.185 0.0276667 0 0.128 0.0294 0 0.1318 0.0293067 0 0.1356 0.0292133 0 0.1394 0.02912 0 0.1432 0.0290267 0 0.147 0.0289333 0 0.1508 0.02884 0 0.1546 0.0287467 0 0.1584 0.0286533 0 0.1622 0.02856 0 0.166 0.0284667 0 0.1698 0.0283733 0 0.1736 0.02828 0 0.1774 0.0281867 0 0.1812 0.0280933 0 0.185 0.028 0 0.128333 0.0303333 0 0.132111 0.0302 0 0.135889 0.0300667 0 0.139667 0.0299333 0 0.143444 0.0298 0 0.147222 0.0296667 0 0.151 0.0295333 0 0.154778 0.0294 0 0.158556 0.0292667 0 0.162333 0.0291333 0 0.166111 0.029 0 0.169889 0.0288667 0 0.173667 0.0287333 0 0.177444 0.0286 0 0.181222 0.0284667 0 0.185 0.0283333 0 0.128667 0.0312667 0 0.132422 0.0310933 0 0.136178 0.03092 0 0.139933 0.0307467 0 0.143689 0.0305733 0 0.147444 0.0304 0 0.1512 0.0302267 0 0.154956 0.0300533 0 0.158711 0.02988 0 0.162467 0.0297067 0 0.166222 0.0295333 0 0.169978 0.02936 0 0.173733 0.0291867 0 0.177489 0.0290133 0 0.181244 0.02884 0 0.185 0.0286667 0 0.129 0.0322 0 0.132733 0.0319867 0 0.136467 0.0317733 0 0.1402 0.03156 0 0.143933 0.0313467 0 0.147667 0.0311333 0 0.1514 0.03092 0 0.155133 0.0307067 0 0.158867 0.0304933 0 0.1626 0.03028 0 0.166333 0.0300667 0 0.170067 0.0298533 0 0.1738 0.02964 0 0.177533 0.0294267 0 0.181267 0.0292133 0 0.185 0.029 0 0.129333 0.0331333 0 0.133044 0.03288 0 0.136756 0.0326267 0 0.140467 0.0323733 0 0.144178 0.03212 0 0.147889 0.0318667 0 0.1516 0.0316133 0 0.155311 0.03136 0 0.159022 0.0311067 0 0.162733 0.0308533 0 0.166444 0.0306 0 0.170156 0.0303467 0 0.173867 0.0300933 0 0.177578 0.02984 0 0.181289 0.0295867 0 0.185 0.0293333 0 0.129667 0.0340667 0 0.133356 0.0337733 0 0.137044 0.03348 0 0.140733 0.0331867 0 0.144422 0.0328933 0 0.148111 0.0326 0 0.1518 0.0323067 0 0.155489 0.0320133 0 0.159178 0.03172 0 0.162867 0.0314267 0 0.166556 0.0311333 0 0.170244 0.03084 0 0.173933 0.0305467 0 0.177622 0.0302533 0 0.181311 0.02996 0 0.185 0.0296667 0 0.13 0.035 0 0.133667 0.0346667 0 0.137333 0.0343333 0 0.141 0.034 0 0.144667 0.0336667 0 0.148333 0.0333333 0 0.152 0.033 0 0.155667 0.0326667 0 0.159333 0.0323333 0 0.163 0.032 0 0.166667 0.0316667 0 0.170333 0.0313333 0 0.174 0.031 0 0.177667 0.0306667 0 0.181333 0.0303333 0 0.185 0.03 0 
</DataArray>
</Points> 
</Piece> 
</StructuredGrid> 
</VTKFile> 
