<?xml version="1.0"?> 
<VTKFile type="StructuredGrid" version="0.1"> 
<StructuredGrid WholeExtent="0 15 0 15 0 0"> 
<Piece Extent="0 15 0 15 0 0"> 
<PointData>
<DataArray type="Float32" Name="|E|" format="ascii" NumberOfComponents="3"> 
677.096 1.19209e-06 0 -35.9979 -159.116 0 -55.528 -98.2636 0 -46.8348 -24.2369 0 -34.8007 -20.6551 0 -22.216 -3.84402 0 -15.0697 -3.76026 0 -9.27409 -0.30846 0 -6.07772 -0.350172 0 -3.74311 0.21458 0 -2.4157 0.18315 0 -1.51438 0.200041 0 -0.993443 0.164613 0 -0.672016 0.10661 0 -0.507108 0.0657928 0 -0.454412 -1.19209e-07 0 416.942 -2.15136e-07 0 6.93993 -155.333 0 -44.6147 -83.0058 0 -42.2942 -35.4577 0 -31.4512 -18.9345 0 -21.7224 -8.05817 0 -14.2006 -4.14572 0 -9.29127 -1.72639 0 -5.88286 -0.785415 0 -3.78736 -0.26547 0 -2.38817 -0.0599415 0 -1.54172 0.031766 0 -1.00034 0.0563362 0 -0.688258 0.0530308 0 -0.520002 0.0327343 0 -0.465616 6.04196e-08 0 273.594 1.20606e-07 0 28.1784 -136.822 0 -34.2575 -76.5265 0 -37.0895 -39.8021 0 -28.7713 -20.0291 0 -20.5001 -10.4531 0 -13.5723 -5.23658 0 -8.99674 -2.74321 0 -5.74651 -1.35648 0 -3.72056 -0.681952 0 -2.36539 -0.316338 0 -1.53169 -0.136333 0 -1.00148 -0.0475451 0 -0.691225 -0.00698382 0 -0.525575 0.00475087 0 -0.473602 1.76951e-08 0 190.531 -1.85333e-07 0 37.3971 -115.543 0 -25.1223 -72.418 0 -31.9857 -41.372 0 -26.185 -21.7737 0 -19.0517 -12.1598 0 -12.891 -6.46162 0 -8.58634 -3.61302 0 -5.56247 -1.94484 0 -3.60506 -1.07199 0 -2.3156 -0.571937 0 -1.50109 -0.301169 0 -0.988974 -0.150216 0 -0.684292 -0.0673214 0 -0.523195 -0.0227562 0 -0.473783 -4.37722e-08 0 139.497 3.31551e-07 0 40.0007 -96.0824 0 -17.5266 -68.5291 0 -27.2375 -41.7761 0 -23.5827 -23.4141 0 -17.5223 -13.5682 0 -12.1008 -7.6297 0 -8.10741 -4.41183 0 -5.31368 -2.51023 0 -3.45322 -1.44415 0 -2.23494 -0.819804 0 -1.45256 -0.461136 0 -0.962186 -0.25079 0 -0.667888 -0.126407 0 -0.512839 -0.0500393 0 -0.466135 1.2666e-07 0 106.099 -2.90573e-07 0 39.0287 -79.7572 0 -11.5125 -64.4031 0 -22.9264 -41.6191 0 -20.9881 -24.7481 0 -15.9512 -14.7935 0 -11.2108 -8.68818 0 -7.56897 -5.15433 0 -5.00493 -3.03956 0 -3.26648 -1.79739 0 -2.12552 -1.05606 0 -1.38628 -0.614523 0 -0.921896 -0.347805 0 -0.642093 -0.18346 0 -0.494718 -0.0766389 0 -0.451067 -2.03028e-07 0 82.849 7.07805e-08 0 36.1857 -66.6019 0 -6.95456 -60.1411 0 -19.074 -41.1447 0 -18.4461 -25.7642 0 -14.3525 -15.8637 0 -10.2417 -9.62833 0 -6.97396 -5.83811 0 -4.64404 -3.52786 0 -3.0456 -2.12824 0 -1.99005 -1.27792 0 -1.30265 -0.759505 0 -0.868995 -0.439875 0 -0.607171 -0.237757 0 -0.469155 -0.102084 0 -0.428921 2.75671e-07 0 65.7198 7.45058e-08 0 32.4257 -56.2159 0 -3.6506 -55.9648 0 -15.6744 -40.4756 0 -15.9926 -26.5068 0 -12.7366 -16.7858 0 -9.21192 -10.4532 0 -6.32653 -6.45787 0 -4.23793 -3.97223 0 -2.79243 -2.43309 0 -1.83098 -1.48304 0 -1.20255 -0.894299 0 -0.804372 -0.525756 0 -0.563593 -0.288572 0 -0.43656 -0.125966 0 -0.400066 -2.16067e-07 0 52.4625 -1.11759e-07 0 28.2744 -48.1114 0 -1.37907 -52.0704 0 -12.7045 -39.6966 0 -13.6486 -27.0306 0 -11.1137 -17.565 0 -8.13581 -11.1678 0 -5.6324 -7.00925 0 -3.79251 -4.37023 0 -2.5097 -2.70877 0 -1.6506 -1.66927 0 -1.08728 -1.01725 0 -0.728971 -0.604323 0 -0.511988 -0.335201 0 -0.397434 -0.14793 0 -0.364952 1.93715e-07 0 41.7598 2.23517e-07 0 24.0136 -41.8451 0 0.0698964 -48.5921 0 -10.1277 -38.8789 0 -11.4226 -27.3863 0 -9.49281 -18.2097 0 -7.02448 -11.7768 0 -4.89809 -7.48942 0 -3.31309 -4.71964 0 -2.20069 -2.95261 0 -1.45122 -1.83468 0 -0.958345 -1.12687 0 -0.643839 -0.674562 0 -0.453109 -0.376997 0 -0.352371 -0.167653 0 -0.324129 -2.01166e-07 0 32.799 -2.08616e-07 0 19.7845 -37.0547 0 0.880943 -45.609 0 -7.89776 -38.0845 0 -9.31256 -27.6169 0 -7.88056 -18.7299 0 -5.88663 -12.2844 0 -4.13026 -7.89671 0 -2.80475 -5.0185 0 -1.86894 -3.16243 0 -1.23528 -1.97758 0 -0.817447 -1.22187 0 -0.550133 -0.735573 0 -0.387808 -0.41338 0 -0.302048 -0.184851 0 -0.278235 8.19564e-08 0 25.049 1.49012e-07 0 15.6482 -33.4603 0 1.21013 -43.16 0 -5.96184 -37.3659 0 -7.30906 -27.7582 0 -6.28096 -19.137 0 -4.72918 -12.6941 0 -3.33534 -8.23029 0 -2.2724 -5.26514 0 -1.51814 -3.33644 0 -1.00533 -2.0965 0 -0.666396 -1.30113 0 -0.449118 -0.78658 0 -0.317022 -0.44385 0 -0.247221 -0.199273 0 -0.22799 2.23517e-08 0 18.1409 -1.04308e-07 0 11.6195 -30.8545 0 1.18696 -41.259 0 -4.26314 -36.7652 0 -5.39687 -27.8388 0 -4.69521 -19.4413 0 -3.55771 -13.0092 0 -2.51935 -8.48979 0 -1.72095 -5.45826 0 -1.15203 -3.47321 0 -0.764038 -2.19024 0 -0.507108 -1.36373 0 -0.342145 -0.826935 0 -0.241761 -0.46799 0 -0.18871 -0.210713 0 -0.174183 0 0 11.802 -1.19209e-07 0 7.68715 -29.0897 0 0.918846 -39.9065 0 -2.74291 -36.3143 0 -3.55654 -27.8808 0 -3.12211 -19.6518 0 -2.37667 -13.2322 0 -1.68794 -8.6751 0 -1.1552 -5.59687 0 -0.774425 -3.57167 0 -0.514161 -2.25786 0 -0.341573 -1.40896 0 -0.230642 -0.856129 0 -0.163091 -0.485471 0 -0.127389 -0.219004 0 -0.117655 -1.49012e-08 0 5.81635 3.27826e-07 0 3.82516 -28.068 0 0.496595 -39.0981 0 -1.34171 -36.0351 0 -1.76568 -27.8997 0 -1.55851 -19.7753 0 -1.18974 -13.3652 0 -0.846462 -8.78626 0 -0.579971 -5.6803 0 -0.389135 -3.63105 0 -0.258525 -2.29871 0 -0.171841 -1.43631 0 -0.116088 -0.873793 0 -0.0821237 -0.496055 0 -0.0641721 -0.224027 0 -0.0592901 -5.96046e-08 0 4.47035e-07 -2.38419e-06 0 -2.70375e-08 -27.7336 0 -1.74623e-08 -38.8293 0 4.51691e-08 -35.9407 0 -3.44589e-08 -27.9049 0 1.72295e-08 -19.816 0 -8.3819e-09 -13.4094 0 7.45058e-09 -8.8233 0 -2.70084e-08 -5.70816 0 2.79397e-08 -3.6509 0 -1.30385e-08 -2.31237 0 1.49012e-08 -1.44546 0 -1.11759e-08 -0.879706 0 -7.45058e-09 -0.4996 0 -2.23517e-08 -0.22571 0 2.68221e-07 2.38419e-07 0 </DataArray> 
</PointData> 
<Points> 
<DataArray type="Float32" NumberOfComponents="3"> 
0.13 0.035 0 0.133667 0.0346667 0 0.137333 0.0343333 0 0.141 0.034 0 0.144667 0.0336667 0 0.148333 0.0333333 0 0.152 0.033 0 0.155667 0.0326667 0 0.159333 0.0323333 0 0.163 0.032 0 0.166667 0.0316667 0 0.170333 0.0313333 0 0.174 0.031 0 0.177667 0.0306667 0 0.181333 0.0303333 0 0.185 0.03 0 0.13 0.0356667 0 0.133667 0.0353556 0 0.137333 0.0350444 0 0.141 0.0347333 0 0.144667 0.0344222 0 0.148333 0.0341111 0 0.152 0.0338 0 0.155667 0.0334889 0 0.159333 0.0331778 0 0.163 0.0328667 0 0.166667 0.0325556 0 0.170333 0.0322444 0 0.174 0.0319333 0 0.177667 0.0316222 0 0.181333 0.0313111 0 0.185 0.031 0 0.13 0.0363333 0 0.133667 0.0360444 0 0.137333 0.0357556 0 0.141 0.0354667 0 0.144667 0.0351778 0 0.148333 0.0348889 0 0.152 0.0346 0 0.155667 0.0343111 0 0.159333 0.0340222 0 0.163 0.0337333 0 0.166667 0.0334444 0 0.170333 0.0331556 0 0.174 0.0328667 0 0.177667 0.0325778 0 0.181333 0.0322889 0 0.185 0.032 0 0.13 0.037 0 0.133667 0.0367333 0 0.137333 0.0364667 0 0.141 0.0362 0 0.144667 0.0359333 0 0.148333 0.0356667 0 0.152 0.0354 0 0.155667 0.0351333 0 0.159333 0.0348667 0 0.163 0.0346 0 0.166667 0.0343333 0 0.170333 0.0340667 0 0.174 0.0338 0 0.177667 0.0335333 0 0.181333 0.0332667 0 0.185 0.033 0 0.13 0.0376667 0 0.133667 0.0374222 0 0.137333 0.0371778 0 0.141 0.0369333 0 0.144667 0.0366889 0 0.148333 0.0364444 0 0.152 0.0362 0 0.155667 0.0359556 0 0.159333 0.0357111 0 0.163 0.0354667 0 0.166667 0.0352222 0 0.170333 0.0349778 0 0.174 0.0347333 0 0.177667 0.0344889 0 0.181333 0.0342444 0 0.185 0.034 0 0.13 0.0383333 0 0.133667 0.0381111 0 0.137333 0.0378889 0 0.141 0.0376667 0 0.144667 0.0374444 0 0.148333 0.0372222 0 0.152 0.037 0 0.155667 0.0367778 0 0.159333 0.0365556 0 0.163 0.0363333 0 0.166667 0.0361111 0 0.170333 0.0358889 0 0.174 0.0356667 0 0.177667 0.0354444 0 0.181333 0.0352222 0 0.185 0.035 0 0.13 0.039 0 0.133667 0.0388 0 0.137333 0.0386 0 0.141 0.0384 0 0.144667 0.0382 0 0.148333 0.038 0 0.152 0.0378 0 0.155667 0.0376 0 0.159333 0.0374 0 0.163 0.0372 0 0.166667 0.037 0 0.170333 0.0368 0 0.174 0.0366 0 0.177667 0.0364 0 0.181333 0.0362 0 0.185 0.036 0 0.13 0.0396667 0 0.133667 0.0394889 0 0.137333 0.0393111 0 0.141 0.0391333 0 0.144667 0.0389556 0 0.148333 0.0387778 0 0.152 0.0386 0 0.155667 0.0384222 0 0.159333 0.0382444 0 0.163 0.0380667 0 0.166667 0.0378889 0 0.170333 0.0377111 0 0.174 0.0375333 0 0.177667 0.0373556 0 0.181333 0.0371778 0 0.185 0.037 0 0.13 0.0403333 0 0.133667 0.0401778 0 0.137333 0.0400222 0 0.141 0.0398667 0 0.144667 0.0397111 0 0.148333 0.0395556 0 0.152 0.0394 0 0.155667 0.0392444 0 0.159333 0.0390889 0 0.163 0.0389333 0 0.166667 0.0387778 0 0.170333 0.0386222 0 0.174 0.0384667 0 0.177667 0.0383111 0 0.181333 0.0381556 0 0.185 0.038 0 0.13 0.041 0 0.133667 0.0408667 0 0.137333 0.0407333 0 0.141 0.0406 0 0.144667 0.0404667 0 0.148333 0.0403333 0 0.152 0.0402 0 0.155667 0.0400667 0 0.159333 0.0399333 0 0.163 0.0398 0 0.166667 0.0396667 0 0.170333 0.0395333 0 0.174 0.0394 0 0.177667 0.0392667 0 0.181333 0.0391333 0 0.185 0.039 0 0.13 0.0416667 0 0.133667 0.0415556 0 0.137333 0.0414444 0 0.141 0.0413333 0 0.144667 0.0412222 0 0.148333 0.0411111 0 0.152 0.041 0 0.155667 0.0408889 0 0.159333 0.0407778 0 0.163 0.0406667 0 0.166667 0.0405556 0 0.170333 0.0404444 0 0.174 0.0403333 0 0.177667 0.0402222 0 0.181333 0.0401111 0 0.185 0.04 0 0.13 0.0423333 0 0.133667 0.0422444 0 0.137333 0.0421556 0 0.141 0.0420667 0 0.144667 0.0419778 0 0.148333 0.0418889 0 0.152 0.0418 0 0.155667 0.0417111 0 0.159333 0.0416222 0 0.163 0.0415333 0 0.166667 0.0414444 0 0.170333 0.0413556 0 0.174 0.0412667 0 0.177667 0.0411778 0 0.181333 0.0410889 0 0.185 0.041 0 0.13 0.043 0 0.133667 0.0429333 0 0.137333 0.0428667 0 0.141 0.0428 0 0.144667 0.0427333 0 0.148333 0.0426667 0 0.152 0.0426 0 0.155667 0.0425333 0 0.159333 0.0424667 0 0.163 0.0424 0 0.166667 0.0423333 0 0.170333 0.0422667 0 0.174 0.0422 0 0.177667 0.0421333 0 0.181333 0.0420667 0 0.185 0.042 0 0.13 0.0436667 0 0.133667 0.0436222 0 0.137333 0.0435778 0 0.141 0.0435333 0 0.144667 0.0434889 0 0.148333 0.0434444 0 0.152 0.0434 0 0.155667 0.0433556 0 0.159333 0.0433111 0 0.163 0.0432667 0 0.166667 0.0432222 0 0.170333 0.0431778 0 0.174 0.0431333 0 0.177667 0.0430889 0 0.181333 0.0430444 0 0.185 0.043 0 0.13 0.0443333 0 0.133667 0.0443111 0 0.137333 0.0442889 0 0.141 0.0442667 0 0.144667 0.0442444 0 0.148333 0.0442222 0 0.152 0.0442 0 0.155667 0.0441778 0 0.159333 0.0441556 0 0.163 0.0441333 0 0.166667 0.0441111 0 0.170333 0.0440889 0 0.174 0.0440667 0 0.177667 0.0440444 0 0.181333 0.0440222 0 0.185 0.044 0 0.13 0.045 0 0.133667 0.045 0 0.137333 0.045 0 0.141 0.045 0 0.144667 0.045 0 0.148333 0.045 0 0.152 0.045 0 0.155667 0.045 0 0.159333 0.045 0 0.163 0.045 0 0.166667 0.045 0 0.170333 0.045 0 0.174 0.045 0 0.177667 0.045 0 0.181333 0.045 0 0.185 0.045 0 
</DataArray>
</Points> 
</Piece> 
</StructuredGrid> 
</VTKFile> 
