<?xml version="1.0"?> 
<VTKFile type="StructuredGrid" version="0.1"> 
<StructuredGrid WholeExtent="0 15 0 15 0 0"> 
<Piece Extent="0 15 0 15 0 0"> 
<PointData>
<DataArray type="Float32" Name="|E|" format="ascii" NumberOfComponents="3"> 
-1.19209e-07 9.50347e+06 0 -2.21189e-09 3.09208e+06 0 -9.59262e-08 1.22607e+06 0 2.28174e-07 821261 0 -3.7998e-07 680698 0 4.41447e-07 495113 0 -4.28408e-07 284727 0 3.91155e-07 122150 0 -2.90573e-07 35853.9 0 8.9407e-08 7335.93 0 8.9407e-08 2521.93 0 -4.47035e-08 329.991 0 1.49012e-08 -1178.85 0 -2.98023e-08 15.8228 0 5.96046e-08 244.15 0 -1.19209e-06 8.38861e+06 0 -2.56499e+06 1.61445e+06 0 -2.79354e+06 1.69337e+06 0 -2.15395e+06 1.94679e+06 0 -1.42617e+06 1.90016e+06 0 -882156 1.56973e+06 0 -542715 1.12416e+06 0 -343627 707530 0 -218288 390685 0 -128279 184308 0 -62370 68879.8 0 -21596.8 16556.5 0 -4136.07 479.703 0 -343.453 -900.922 0 -78.7701 37.3339 0 37.2508 70.8311 0 97.1054 1007.51 0 -2.80019e+06 930519 0 -2.51937e+06 1.32618e+06 0 -2.6449e+06 1.25833e+06 0 -2.55183e+06 1.33575e+06 0 -2.18581e+06 1.45742e+06 0 -1.69158e+06 1.43595e+06 0 -1.21287e+06 1.21844e+06 0 -823008 877960 0 -530317 528387 0 -314172 254790 0 -157862 88270.2 0 -58250.6 15049.4 0 -11966.5 -1991.56 0 -519.617 -309.573 0 -65.1628 139.063 0 472.18 2383.16 0 -2.48462e+06 1.49342e+06 0 -2.66356e+06 1.23297e+06 0 -2.58262e+06 1.28756e+06 0 -2.59919e+06 1.22198e+06 0 -2.61223e+06 1.17136e+06 0 -2.4791e+06 1.20177e+06 0 -2.16427e+06 1.22866e+06 0 -1.73092e+06 1.13984e+06 0 -1.2735e+06 904191 0 -860870 585341 0 -521289 286815 0 -262813 86834.4 0 -94565.9 2783.98 0 -17023.9 -5728.78 0 197.988 1943.92 0 1262.36 4106.85 0 -2.60008e+06 1.41263e+06 0 -2.5758e+06 1.44645e+06 0 -2.65669e+06 1.34532e+06 0 -2.64862e+06 1.32674e+06 0 -2.63709e+06 1.26732e+06 0 -2.64409e+06 1.17624e+06 0 -2.5965e+06 1.12239e+06 0 -2.41083e+06 1.10332e+06 0 -2.06695e+06 1.03793e+06 0 -1.61612e+06 854649 0 -1.1383e+06 565349 0 -698969 262285 0 -343389 52283.2 0 -110988 -20414.7 0 -13053.2 -6982.37 0 -2083.92 -4881.12 0 -2.45909e+06 1.65714e+06 0 -2.53076e+06 1.58139e+06 0 -2.5675e+06 1.53108e+06 0 -2.63907e+06 1.4438e+06 0 -2.67702e+06 1.38929e+06 0 -2.68437e+06 1.32467e+06 0 -2.68735e+06 1.22484e+06 0 -2.66392e+06 1.12562e+06 0 -2.5438e+06 1.05085e+06 0 -2.26831e+06 956481 0 -1.84165e+06 771036 0 -1.32714e+06 482318 0 -807423 175818 0 -367219 -18959.3 0 -91100.9 -45944.6 0 -11509.8 -20529.1 0 -2.40193e+06 1.71885e+06 0 -2.4514e+06 1.693e+06 0 -2.50739e+06 1.65917e+06 0 -2.55558e+06 1.61018e+06 0 -2.62262e+06 1.53138e+06 0 -2.68306e+06 1.45837e+06 0 -2.71752e+06 1.381e+06 0 -2.73197e+06 1.27411e+06 0 -2.7191e+06 1.14921e+06 0 -2.62675e+06 1.02764e+06 0 -2.38528e+06 883583 0 -1.96779e+06 656708 0 -1.41585e+06 336767 0 -818551 26887.7 0 -308461 -111419 0 -42207.9 -59110.9 0 -2.29259e+06 1.81602e+06 0 -2.35105e+06 1.79194e+06 0 -2.41646e+06 1.75448e+06 0 -2.48281e+06 1.72088e+06 0 -2.54426e+06 1.67517e+06 0 -2.61432e+06 1.60357e+06 0 -2.68688e+06 1.52233e+06 0 -2.74324e+06 1.43139e+06 0 -2.77517e+06 1.31214e+06 0 -2.77226e+06 1.16404e+06 0 -2.68848e+06 997356 0 -2.45003e+06 788229 0 -2.01225e+06 487526 0 -1.3971e+06 112348 0 -705859 -176782 0 -148365 -165725 0 -2.19797e+06 1.86084e+06 0 -2.25592e+06 1.85109e+06 0 -2.31623e+06 1.83749e+06 0 -2.38593e+06 1.80672e+06 0 -2.46137e+06 1.77302e+06 0 -2.5365e+06 1.72846e+06 0 -2.61619e+06 1.6608e+06 0 -2.70012e+06 1.57486e+06 0 -2.77413e+06 1.47042e+06 0 -2.82359e+06 1.33256e+06 0 -2.82978e+06 1.15394e+06 0 -2.74136e+06 930728 0 -2.47766e+06 630979 0 -1.97843e+06 221755 0 -1.24693e+06 -213227 0 -409898 -366960 0 -2.09897e+06 1.89027e+06 0 -2.15688e+06 1.89107e+06 0 -2.22132e+06 1.88502e+06 0 -2.28923e+06 1.87502e+06 0 -2.36521e+06 1.85052e+06 0 -2.44959e+06 1.81789e+06 0 -2.53816e+06 1.77299e+06 0 -2.63166e+06 1.70552e+06 0 -2.72991e+06 1.61372e+06 0 -2.82108e+06 1.49301e+06 0 -2.8872e+06 1.3275e+06 0 -2.89912e+06 1.10178e+06 0 -2.79167e+06 793011 0 -2.46967e+06 357477 0 -1.84173e+06 -198561 0 -869769 -621054 0 -2.00439e+06 1.89931e+06 0 -2.06231e+06 1.91008e+06 0 -2.12536e+06 1.916e+06 0 -2.19579e+06 1.91511e+06 0 -2.27231e+06 1.90844e+06 0 -2.35728e+06 1.88881e+06 0 -2.45252e+06 1.85751e+06 0 -2.55573e+06 1.8109e+06 0 -2.66653e+06 1.7397e+06 0 -2.78336e+06 1.63746e+06 0 -2.89422e+06 1.49292e+06 0 -2.97743e+06 1.28367e+06 0 -2.98955e+06 978865 0 -2.84425e+06 528047 0 -2.40707e+06 -117507 0 -1.49566e+06 -838558 0 -1.91313e+06 1.89358e+06 0 -1.97101e+06 1.91398e+06 0 -2.03451e+06 1.93012e+06 0 -2.10423e+06 1.94079e+06 0 -2.18224e+06 1.9445e+06 0 -2.26873e+06 1.94084e+06 0 -2.36553e+06 1.92449e+06 0 -2.47484e+06 1.8937e+06 0 -2.59592e+06 1.8434e+06 0 -2.72868e+06 1.76367e+06 0 -2.86988e+06 1.6427e+06 0 -3.0062e+06 1.45915e+06 0 -3.10928e+06 1.17547e+06 0 -3.11638e+06 730133 0 -2.89904e+06 33732 0 -2.20875e+06 -942993 0 -1.8255e+06 1.87657e+06 0 -1.88378e+06 1.90575e+06 0 -1.94751e+06 1.93144e+06 0 -2.01778e+06 1.95277e+06 0 -2.09577e+06 1.96814e+06 0 -2.1835e+06 1.97598e+06 0 -2.28227e+06 1.97481e+06 0 -2.39435e+06 1.96009e+06 0 -2.52226e+06 1.92788e+06 0 -2.66685e+06 1.87056e+06 0 -2.8288e+06 1.77513e+06 0 -3.00384e+06 1.62099e+06 0 -3.17695e+06 1.36956e+06 0 -3.30978e+06 951113 0 -3.30688e+06 246194 0 -2.93212e+06 -901270 0 -1.74145e+06 1.85057e+06 0 -1.80049e+06 1.8885e+06 0 -1.86484e+06 1.92338e+06 0 -1.93568e+06 1.95439e+06 0 -2.01439e+06 1.98063e+06 0 -2.1027e+06 2.00037e+06 0 -2.20297e+06 2.01178e+06 0 -2.31754e+06 2.01235e+06 0 -2.44967e+06 1.99742e+06 0 -2.60275e+06 1.96068e+06 0 -2.77987e+06 1.89062e+06 0 -2.98324e+06 1.76735e+06 0 -3.21009e+06 1.55388e+06 0 -3.445e+06 1.17841e+06 0 -3.63574e+06 504080 0 -3.61285e+06 -715822 0 -1.66073e+06 1.81769e+06 0 -1.72094e+06 1.86427e+06 0 -1.78635e+06 1.90822e+06 0 -1.85811e+06 1.94879e+06 0 -1.93772e+06 1.98504e+06 0 -2.02703e+06 2.01587e+06 0 -2.12849e+06 2.03951e+06 0 -2.24512e+06 2.05371e+06 0 -2.38063e+06 2.05493e+06 0 -2.53979e+06 2.0374e+06 0 -2.72828e+06 1.99135e+06 0 -2.9529e+06 1.8988e+06 0 -3.221e+06 1.72577e+06 0 -3.53782e+06 1.40357e+06 0 -3.89574e+06 791423 0 -4.22047e+06 -406774 0 -1.58307e+06 1.77949e+06 0 -1.64492e+06 1.83488e+06 0 -1.71182e+06 1.88785e+06 0 -1.78493e+06 1.93775e+06 0 -1.86579e+06 1.98382e+06 0 -1.95637e+06 2.02509e+06 0 -2.05925e+06 2.06013e+06 0 -2.17775e+06 2.08711e+06 0 -2.31615e+06 2.10315e+06 0 -2.48015e+06 2.10349e+06 0 -2.67734e+06 2.07991e+06 0 -2.9183e+06 2.017e+06 0 -3.21828e+06 1.88491e+06 0 -3.60018e+06 1.62191e+06 0 -4.09756e+06 1.09521e+06 0 -4.7393e+06 -1.43051e-06 0 </DataArray> 
</PointData> 
<Points> 
<DataArray type="Float32" NumberOfComponents="3"> 
0.1 0.045 0 0.100867 0.045 0 0.101733 0.045 0 0.1026 0.045 0 0.103467 0.045 0 0.104333 0.045 0 0.1052 0.045 0 0.106067 0.045 0 0.106933 0.045 0 0.1078 0.045 0 0.108667 0.045 0 0.109533 0.045 0 0.1104 0.045 0 0.111267 0.045 0 0.112133 0.045 0 0.113 0.045 0 0.0978533 0.0464889 0 0.0987669 0.046396 0 0.0996849 0.0463026 0 0.100607 0.0462088 0 0.101534 0.0461145 0 0.102466 0.0460198 0 0.103402 0.0459246 0 0.104343 0.0458289 0 0.105289 0.0457328 0 0.106239 0.0456361 0 0.107194 0.045539 0 0.108153 0.0454414 0 0.109118 0.0453433 0 0.110087 0.0452448 0 0.111062 0.0451457 0 0.112041 0.0450461 0 0.0957067 0.0479778 0 0.096665 0.0478038 0 0.0976321 0.0476282 0 0.0986081 0.047451 0 0.099593 0.0472721 0 0.100587 0.0470916 0 0.10159 0.0469095 0 0.102603 0.0467256 0 0.103625 0.04654 0 0.104657 0.0463527 0 0.105698 0.0461636 0 0.106749 0.0459727 0 0.107811 0.04578 0 0.108882 0.0455855 0 0.109964 0.045389 0 0.111056 0.0451907 0 0.09356 0.0494667 0 0.0945633 0.0492219 0 0.0955793 0.0489741 0 0.0966082 0.0487231 0 0.0976503 0.0484689 0 0.0987058 0.0482114 0 0.0997751 0.0479506 0 0.100858 0.0476864 0 0.101956 0.0474187 0 0.103068 0.0471474 0 0.104195 0.0468726 0 0.105337 0.046594 0 0.106494 0.0463117 0 0.107667 0.0460255 0 0.108856 0.0457354 0 0.110062 0.0454414 0 0.0914133 0.0509556 0 0.0924638 0.0506491 0 0.0935306 0.0503378 0 0.0946141 0.0500217 0 0.0957146 0.0497006 0 0.0968327 0.0493744 0 0.0979686 0.049043 0 0.0991228 0.0487063 0 0.100296 0.048364 0 0.101488 0.0480162 0 0.1027 0.0476626 0 0.103932 0.0473031 0 0.105185 0.0469376 0 0.106459 0.0465658 0 0.107755 0.0461877 0 0.109074 0.0458031 0 0.0892667 0.0524444 0 0.0903689 0.0520837 0 0.0914906 0.0517166 0 0.0926323 0.0513429 0 0.0937945 0.0509625 0 0.0949778 0.0505753 0 0.0961828 0.0501809 0 0.0974101 0.0497792 0 0.0986602 0.0493701 0 0.0999339 0.0489532 0 0.101232 0.0485284 0 0.102555 0.0480955 0 0.103903 0.0476542 0 0.105278 0.0472042 0 0.10668 0.0467454 0 0.10811 0.0462774 0 0.08712 0.0539333 0 0.0882807 0.0535243 0 0.0894636 0.0531075 0 0.0906693 0.0526827 0 0.0918985 0.0522496 0 0.0931518 0.0518079 0 0.0944301 0.0513575 0 0.095734 0.0508981 0 0.0970643 0.0504293 0 0.0984218 0.049951 0 0.0998074 0.0494627 0 0.101222 0.0489643 0 0.102666 0.0484553 0 0.104142 0.0479354 0 0.105649 0.0474044 0 0.107189 0.0468617 0 0.0849733 0.0554222 0 0.0862015 0.0549695 0 0.0874539 0.0545078 0 0.0887315 0.0540368 0 0.0900349 0.0535564 0 0.0913649 0.0530661 0 0.0927224 0.0525657 0 0.0941082 0.0520548 0 0.0955232 0.0515332 0 0.0969684 0.0510005 0 0.0984446 0.0504563 0 0.099953 0.0499002 0 0.101495 0.0493319 0 0.103071 0.048751 0 0.104682 0.048157 0 0.10633 0.0475495 0 0.0828267 0.0569111 0 0.0841334 0.0564176 0 0.085466 0.0559144 0 0.0868252 0.0554011 0 0.088212 0.0548774 0 0.0896271 0.0543429 0 0.0910715 0.0537975 0 0.0925459 0.0532407 0 0.0940514 0.0526721 0 0.095589 0.0520915 0 0.0971598 0.0514983 0 0.0987647 0.0508922 0 0.100405 0.0502728 0 0.102082 0.0496396 0 0.103796 0.0489921 0 0.105549 0.0483299 0 0.08068 0.0584 0 0.0820786 0.0578673 0 0.0835039 0.0573244 0 0.0849567 0.056771 0 0.0864377 0.0562068 0 0.087948 0.0556316 0 0.0894882 0.0550449 0 0.0910593 0.0544464 0 0.0926622 0.0538359 0 0.094298 0.0532128 0 0.0959675 0.0525768 0 0.097672 0.0519276 0 0.0994125 0.0512646 0 0.10119 0.0505875 0 0.103006 0.0498957 0 0.104862 0.0491889 0 0.0785333 0.0598889 0 0.0800393 0.0593168 0 0.0815718 0.0587347 0 0.0831316 0.0581422 0 0.0847195 0.057539 0 0.0863362 0.0569248 0 0.0879825 0.0562995 0 0.0896592 0.0556625 0 0.0913672 0.0550137 0 0.0931073 0.0543527 0 0.0948806 0.0536791 0 0.0966878 0.0529926 0 0.0985301 0.0522928 0 0.100408 0.0515793 0 0.102324 0.0508517 0 0.104277 0.0501096 0 0.0763867 0.0613778 0 0.0780175 0.0607648 0 0.0796736 0.0601424 0 0.0813557 0.0595102 0 0.0830642 0.0588681 0 0.0847998 0.0582157 0 0.0865633 0.057553 0 0.0883552 0.0568795 0 0.0901762 0.0561951 0 0.0920271 0.0554994 0 0.0939087 0.0547923 0 0.0958216 0.0540733 0 0.0977666 0.0533423 0 0.0997447 0.0525989 0 0.101757 0.0518427 0 0.103803 0.0510735 0 0.07424 0.0628667 0 0.0760154 0.0622098 0 0.0778132 0.0615445 0 0.079634 0.0608708 0 0.0814781 0.0601885 0 0.083346 0.0594974 0 0.0852381 0.0587973 0 0.087155 0.058088 0 0.089097 0.0573694 0 0.0910648 0.0566413 0 0.0930588 0.0559035 0 0.0950796 0.0551558 0 0.0971277 0.054398 0 0.0992036 0.0536299 0 0.101308 0.0528513 0 0.103441 0.0520619 0 0.0720933 0.0643556 0 0.0740349 0.0636501 0 0.0759942 0.0629382 0 0.0779714 0.0622198 0 0.0799667 0.0614948 0 0.0819805 0.0607631 0 0.084013 0.0600246 0 0.0860644 0.0592792 0 0.0881351 0.0585269 0 0.0902252 0.0577674 0 0.092335 0.0570008 0 0.0944649 0.0562269 0 0.0966151 0.0554457 0 0.098786 0.0546569 0 0.100978 0.0538605 0 0.103191 0.0530565 0 0.0699467 0.0658444 0 0.072078 0.0650844 0 0.0742198 0.0643206 0 0.0763721 0.063553 0 0.0785349 0.0627817 0 0.0807084 0.0620066 0 0.0828926 0.0612277 0 0.0850876 0.0604449 0 0.0872935 0.0596583 0 0.0895103 0.0588677 0 0.0917382 0.0580732 0 0.0939772 0.0572748 0 0.0962274 0.0564723 0 0.0984889 0.0556658 0 0.100762 0.0548553 0 0.103046 0.0540406 0 0.0678 0.0673333 0 0.0701467 0.0665111 0 0.0724933 0.0656889 0 0.07484 0.0648667 0 0.0771867 0.0640444 0 0.0795333 0.0632222 0 0.08188 0.0624 0 0.0842267 0.0615778 0 0.0865733 0.0607556 0 0.08892 0.0599333 0 0.0912667 0.0591111 0 0.0936133 0.0582889 0 0.09596 0.0574667 0 0.0983067 0.0566444 0 0.100653 0.0558222 0 0.103 0.055 0 
</DataArray>
</Points> 
</Piece> 
</StructuredGrid> 
</VTKFile> 
