<?xml version="1.0"?> 
<VTKFile type="StructuredGrid" version="0.1"> 
<StructuredGrid WholeExtent="0 15 0 15 0 0"> 
<Piece Extent="0 15 0 15 0 0"> 
<PointData>
<DataArray type="Float32" Name="|E|" format="ascii" NumberOfComponents="3"> 
1.66187e+06 -662882 0 1.92227e+06 -286951 0 1.93457e+06 35397.3 0 1.78322e+06 213611 0 1.58568e+06 281385 0 1.38967e+06 289426 0 1.21163e+06 269584 0 1.05609e+06 238409 0 923680 203818 0 813313 169476 0 723445 136843 0 652432 106332 0 598815 77821.8 0 561393 50937.7 0 539294 25181.7 0 531988 0 0 1.70965e+06 -681939 0 1.96604e+06 -285609 0 1.95658e+06 55078.8 0 1.78843e+06 236434 0 1.58272e+06 302664 0 1.38355e+06 308034 0 1.20478e+06 285614 0 1.04954e+06 252019 0 917846 215222 0 808269 178866 0 719139 144392 0 648748 112189 0 595617 82107.9 0 558542 53744.1 0 536649 26569.6 0 529411 0 0 1.75881e+06 -701549 0 2.01185e+06 -281345 0 1.97877e+06 77314.3 0 1.79318e+06 260475 0 1.57933e+06 324436 0 1.3771e+06 326769 0 1.19765e+06 301632 0 1.04276e+06 265553 0 911800 226538 0 803032 188171 0 714654 151869 0 644898 117988 0 592263 86351.2 0 555540 56522.4 0 533857 27943.6 0 526690 0 0 1.80981e+06 -721891 0 2.05985e+06 -273866 0 2.00093e+06 102187 0 1.79737e+06 285718 0 1.57547e+06 346679 0 1.37029e+06 345618 0 1.19023e+06 317632 0 1.03574e+06 279008 0 905540 237764 0 797602 197389 0 709992 159271 0 640882 123728 0 588753 90550.8 0 552389 59272.1 0 530921 29303.5 0 523824 0 0 1.86318e+06 -743180 0 2.11017e+06 -262790 0 2.02283e+06 129760 0 1.80089e+06 312139 0 1.57107e+06 369363 0 1.36311e+06 364565 0 1.18252e+06 333605 0 1.02848e+06 292379 0 899065 248897 0 791980 206517 0 705153 166598 0 636702 129408 0 585088 94705.8 0 549089 61992.5 0 527839 30648.9 0 520815 0 0 1.91961e+06 -765689 0 2.16288e+06 -247645 0 2.04421e+06 160066 0 1.80362e+06 339714 0 1.5661e+06 392450 0 1.35553e+06 383596 0 1.1745e+06 349541 0 1.02097e+06 305660 0 892374 259933 0 786166 215555 0 700138 173847 0 632358 135026 0 581268 98815.2 0 545642 64683.1 0 524613 31979.4 0 517663 0 0 1.97998e+06 -789769 0 2.21805e+06 -227859 0 2.06478e+06 193097 0 1.80548e+06 368418 0 1.56051e+06 415892 0 1.34754e+06 402699 0 1.16616e+06 365429 0 1.01321e+06 318847 0 885466 270869 0 780161 224499 0 694947 181018 0 627852 140581 0 577295 102878 0 542047 67343.2 0 521244 33294.9 0 514369 0 0 2.04547e+06 -815889 0 2.27562e+06 -202759 0 2.08422e+06 228801 0 1.80634e+06 398227 0 1.55425e+06 439631 0 1.33913e+06 421862 0 1.15751e+06 381255 0 1.00521e+06 331936 0 878341 281702 0 773966 233347 0 689581 188108 0 623184 146072 0 573169 106894 0 538306 69972.2 0 517733 34595 0 510933 0 0 2.11768e+06 -844693 0 2.33547e+06 -171580 0 2.10219e+06 267072 0 1.80612e+06 429121 0 1.5473e+06 463593 0 1.33028e+06 441083 0 1.14852e+06 397000 0 996950 344925 0 870997 292426 0 767581 242098 0 684040 195116 0 618356 151497 0 568890 110861 0 534420 72569.6 0 514079 35879.4 0 507357 0 0 2.1989e+06 -877089 0 2.39727e+06 -133487 0 2.11832e+06 307759 0 1.80472e+06 461077 0 1.53962e+06 487698 0 1.32098e+06 460358 0 1.13921e+06 412643 0 988438 357813 0 863437 303035 0 761007 250749 0 678327 202039 0 613368 156856 0 564461 114779 0 530390 75134.7 0 510285 37147.8 0 503642 0 0 2.29239e+06 -914380 0 2.46048e+06 -87626 0 2.13227e+06 350684 0 1.80205e+06 494056 0 1.5312e+06 511859 0 1.31119e+06 479689 0 1.12957e+06 428161 0 979667 370599 0 855661 313524 0 754244 259301 0 672441 208875 0 608221 162147 0 559882 118647 0 526215 77667 0 506351 38400.1 0 499787 0 0 2.40292e+06 -958468 0 2.52419e+06 -33237.1 0 2.14369e+06 395707 0 1.79802e+06 527963 0 1.52204e+06 536008 0 1.3009e+06 499070 0 1.11961e+06 443529 0 970630 383282 0 847673 323885 0 747291 267750 0 666387 215623 0 602917 167370 0 555155 122464 0 521899 80165.6 0 502278 39636 0 495795 0 0 2.53756e+06 -1.01217e+06 0 2.58698e+06 30158.2 0 2.15229e+06 442842 0 1.79254e+06 562579 0 1.51212e+06 560136 0 1.29009e+06 518465 0 1.10933e+06 458738 0 961320 395859 0 839479 334113 0 740146 276096 0 660165 222279 0 597455 172522 0 550280 126230 0 517440 82630 0 498067 40855.3 0 491666 0 0 2.70686e+06 -1.0797e+06 0 2.64672e+06 102421 0 2.15791e+06 492491 0 1.78553e+06 597410 0 1.50146e+06 584374 0 1.27874e+06 537765 0 1.09875e+06 473812 0 951731 408306 0 831084 344211 0 732809 284334 0 653779 228844 0 591835 177602 0 545260 129943 0 512841 85059.5 0 493719 42057.8 0 487401 0 0 2.92673e+06 -1.1674e+06 0 2.70021e+06 182221 0 2.16051e+06 545853 0 1.77692e+06 631424 0 1.49003e+06 609160 0 1.26686e+06 556698 0 1.08786e+06 488857 0 941867 420565 0 822485 354195 0 725281 292453 0 647229 235318 0 586060 182609 0 540095 133602 0 508102 87454.1 0 489235 43242.7 0 483002 0 0 3.22126e+06 -1.28488e+06 0 2.74277e+06 266209 0 2.16029e+06 605585 0 1.76673e+06 662620 0 1.47773e+06 635504 0 1.25453e+06 574677 0 1.07659e+06 504144 0 931762 432494 0 813666 364121 0 717574 300427 0 640512 241706 0 580134 187541 0 534786 137205 0 503225 89815 0 484617 44408 0 478469 0 0 </DataArray> 
</PointData> 
<Points> 
<DataArray type="Float32" NumberOfComponents="3"> 
0.1947 0.02 0 0.206587 0.02 0 0.218473 0.02 0 0.23036 0.02 0 0.242247 0.02 0 0.254133 0.02 0 0.26602 0.02 0 0.277907 0.02 0 0.289793 0.02 0 0.30168 0.02 0 0.313567 0.02 0 0.325453 0.02 0 0.33734 0.02 0 0.349227 0.02 0 0.361113 0.02 0 0.373 0.02 0 0.195173 0.0211867 0 0.207028 0.0211867 0 0.218884 0.0211867 0 0.230739 0.0211867 0 0.242594 0.0211867 0 0.254449 0.0211867 0 0.266304 0.0211867 0 0.278159 0.0211867 0 0.290014 0.0211867 0 0.301869 0.0211867 0 0.313724 0.0211867 0 0.32558 0.0211867 0 0.337435 0.0211867 0 0.34929 0.0211867 0 0.361145 0.0211867 0 0.373 0.0211867 0 0.195647 0.0223733 0 0.20747 0.0223733 0 0.219294 0.0223733 0 0.231117 0.0223733 0 0.242941 0.0223733 0 0.254764 0.0223733 0 0.266588 0.0223733 0 0.278412 0.0223733 0 0.290235 0.0223733 0 0.302059 0.0223733 0 0.313882 0.0223733 0 0.325706 0.0223733 0 0.337529 0.0223733 0 0.349353 0.0223733 0 0.361176 0.0223733 0 0.373 0.0223733 0 0.19612 0.02356 0 0.207912 0.02356 0 0.219704 0.02356 0 0.231496 0.02356 0 0.243288 0.02356 0 0.25508 0.02356 0 0.266872 0.02356 0 0.278664 0.02356 0 0.290456 0.02356 0 0.302248 0.02356 0 0.31404 0.02356 0 0.325832 0.02356 0 0.337624 0.02356 0 0.349416 0.02356 0 0.361208 0.02356 0 0.373 0.02356 0 0.196593 0.0247467 0 0.208354 0.0247467 0 0.220114 0.0247467 0 0.231875 0.0247467 0 0.243635 0.0247467 0 0.255396 0.0247467 0 0.267156 0.0247467 0 0.278916 0.0247467 0 0.290677 0.0247467 0 0.302437 0.0247467 0 0.314198 0.0247467 0 0.325958 0.0247467 0 0.337719 0.0247467 0 0.349479 0.0247467 0 0.36124 0.0247467 0 0.373 0.0247467 0 0.197067 0.0259333 0 0.208796 0.0259333 0 0.220524 0.0259333 0 0.232253 0.0259333 0 0.243982 0.0259333 0 0.255711 0.0259333 0 0.26744 0.0259333 0 0.279169 0.0259333 0 0.290898 0.0259333 0 0.302627 0.0259333 0 0.314356 0.0259333 0 0.326084 0.0259333 0 0.337813 0.0259333 0 0.349542 0.0259333 0 0.361271 0.0259333 0 0.373 0.0259333 0 0.19754 0.02712 0 0.209237 0.02712 0 0.220935 0.02712 0 0.232632 0.02712 0 0.244329 0.02712 0 0.256027 0.02712 0 0.267724 0.02712 0 0.279421 0.02712 0 0.291119 0.02712 0 0.302816 0.02712 0 0.314513 0.02712 0 0.326211 0.02712 0 0.337908 0.02712 0 0.349605 0.02712 0 0.361303 0.02712 0 0.373 0.02712 0 0.198013 0.0283067 0 0.209679 0.0283067 0 0.221345 0.0283067 0 0.233011 0.0283067 0 0.244676 0.0283067 0 0.256342 0.0283067 0 0.268008 0.0283067 0 0.279674 0.0283067 0 0.29134 0.0283067 0 0.303005 0.0283067 0 0.314671 0.0283067 0 0.326337 0.0283067 0 0.338003 0.0283067 0 0.349668 0.0283067 0 0.361334 0.0283067 0 0.373 0.0283067 0 0.198487 0.0294933 0 0.210121 0.0294933 0 0.221755 0.0294933 0 0.233389 0.0294933 0 0.245024 0.0294933 0 0.256658 0.0294933 0 0.268292 0.0294933 0 0.279926 0.0294933 0 0.29156 0.0294933 0 0.303195 0.0294933 0 0.314829 0.0294933 0 0.326463 0.0294933 0 0.338097 0.0294933 0 0.349732 0.0294933 0 0.361366 0.0294933 0 0.373 0.0294933 0 0.19896 0.03068 0 0.210563 0.03068 0 0.222165 0.03068 0 0.233768 0.03068 0 0.245371 0.03068 0 0.256973 0.03068 0 0.268576 0.03068 0 0.280179 0.03068 0 0.291781 0.03068 0 0.303384 0.03068 0 0.314987 0.03068 0 0.326589 0.03068 0 0.338192 0.03068 0 0.349795 0.03068 0 0.361397 0.03068 0 0.373 0.03068 0 0.199433 0.0318667 0 0.211004 0.0318667 0 0.222576 0.0318667 0 0.234147 0.0318667 0 0.245718 0.0318667 0 0.257289 0.0318667 0 0.26886 0.0318667 0 0.280431 0.0318667 0 0.292002 0.0318667 0 0.303573 0.0318667 0 0.315144 0.0318667 0 0.326716 0.0318667 0 0.338287 0.0318667 0 0.349858 0.0318667 0 0.361429 0.0318667 0 0.373 0.0318667 0 0.199907 0.0330533 0 0.211446 0.0330533 0 0.222986 0.0330533 0 0.234525 0.0330533 0 0.246065 0.0330533 0 0.257604 0.0330533 0 0.269144 0.0330533 0 0.280684 0.0330533 0 0.292223 0.0330533 0 0.303763 0.0330533 0 0.315302 0.0330533 0 0.326842 0.0330533 0 0.338381 0.0330533 0 0.349921 0.0330533 0 0.36146 0.0330533 0 0.373 0.0330533 0 0.20038 0.03424 0 0.211888 0.03424 0 0.223396 0.03424 0 0.234904 0.03424 0 0.246412 0.03424 0 0.25792 0.03424 0 0.269428 0.03424 0 0.280936 0.03424 0 0.292444 0.03424 0 0.303952 0.03424 0 0.31546 0.03424 0 0.326968 0.03424 0 0.338476 0.03424 0 0.349984 0.03424 0 0.361492 0.03424 0 0.373 0.03424 0 0.200853 0.0354267 0 0.21233 0.0354267 0 0.223806 0.0354267 0 0.235283 0.0354267 0 0.246759 0.0354267 0 0.258236 0.0354267 0 0.269712 0.0354267 0 0.281188 0.0354267 0 0.292665 0.0354267 0 0.304141 0.0354267 0 0.315618 0.0354267 0 0.327094 0.0354267 0 0.338571 0.0354267 0 0.350047 0.0354267 0 0.361524 0.0354267 0 0.373 0.0354267 0 0.201327 0.0366133 0 0.212772 0.0366133 0 0.224216 0.0366133 0 0.235661 0.0366133 0 0.247106 0.0366133 0 0.258551 0.0366133 0 0.269996 0.0366133 0 0.281441 0.0366133 0 0.292886 0.0366133 0 0.304331 0.0366133 0 0.315776 0.0366133 0 0.32722 0.0366133 0 0.338665 0.0366133 0 0.35011 0.0366133 0 0.361555 0.0366133 0 0.373 0.0366133 0 0.2018 0.0378 0 0.213213 0.0378 0 0.224627 0.0378 0 0.23604 0.0378 0 0.247453 0.0378 0 0.258867 0.0378 0 0.27028 0.0378 0 0.281693 0.0378 0 0.293107 0.0378 0 0.30452 0.0378 0 0.315933 0.0378 0 0.327347 0.0378 0 0.33876 0.0378 0 0.350173 0.0378 0 0.361587 0.0378 0 0.373 0.0378 0 
</DataArray>
</Points> 
</Piece> 
</StructuredGrid> 
</VTKFile> 
