<?xml version="1.0"?> 
<VTKFile type="StructuredGrid" version="0.1"> 
<StructuredGrid WholeExtent="0 15 0 15 0 0"> 
<Piece Extent="0 15 0 15 0 0"> 
<PointData>
<DataArray type="Float32" Name="|E|" format="ascii" NumberOfComponents="3"> 
-353087 0 0 -353772 -0.159814 0 -355828 -0.3192 0 -359262 -0.477695 0 -364086 -0.634771 0 -370314 -0.7898 0 -377968 -0.942014 0 -387073 -1.09047 0 -397655 -1.234 0 -409750 -1.3712 0 -423393 -1.50031 0 -438626 -1.61925 0 -455492 -1.72553 0 -474039 -1.81619 0 -494317 -1.88779 0 -516380 -1.93639 0 -351188 0 0 -351869 2279.1 0 -353916 4565.75 0 -357334 6867.48 0 -362136 9191.78 0 -368337 11546.1 0 -375957 13937.7 0 -385021 16373.9 0 -395558 18861.7 0 -407601 21407.9 0 -421187 24019.1 0 -436358 26701.4 0 -453158 29460.6 0 -471635 32301.7 0 -491840 35229.2 0 -513826 38246.6 0 -345507 0 0 -346179 4537.14 0 -348197 9089.44 0 -351568 13672 0 -356304 18299.9 0 -362420 22988 0 -369937 27751.2 0 -378881 32603.9 0 -389280 37560.4 0 -401168 42634.5 0 -414584 47839.6 0 -429568 53188.2 0 -446168 58692.1 0 -464433 64361.9 0 -484416 70206.8 0 -506172 76234.6 0 -336096 0 0 -336752 6753.07 0 -338723 13529 0 -342015 20350.5 0 -346641 27240.4 0 -352616 34221.3 0 -359961 41315.5 0 -368702 48545.1 0 -378869 55931.8 0 -390497 63496.8 0 -403624 71260.6 0 -418295 79242.7 0 -434557 87461.5 0 -452462 95933.9 0 -472067 104675 0 -493429 113697 0 -323045 0 0 -323679 8905.48 0 -325583 17841.6 0 -328763 26839 0 -333233 35928.1 0 -339009 45139.4 0 -346111 54503.2 0 -354566 64049.2 0 -364405 73807.2 0 -375663 83806 0 -388381 94073.8 0 -402605 104638 0 -418384 115524 0 -435774 126757 0 -454835 138359 0 -475629 150348 0 -306476 0 0 -307081 10972.7 0 -308899 21984 0 -311936 33072.3 0 -316204 44276.1 0 -321721 55633.9 0 -328507 67183.9 0 -336590 78964.2 0 -346002 91012.7 0 -356778 103367 0 -368960 116063 0 -382597 129137 0 -397741 142623 0 -414449 156555 0 -432787 170962 0 -452823 185873 0 -286550 0 0 -287120 12932.9 0 -288831 25912.3 0 -291691 38984.6 0 -295712 52196.4 0 -300910 65594.2 0 -307307 79224.5 0 -314931 93134 0 -323812 107369 0 -333989 121976 0 -345505 137000 0 -358409 152488 0 -372755 168482 0 -388604 185027 0 -406026 202163 0 -425093 219929 0 -263464 0 0 -263992 14764 0 -265577 29582.4 0 -268227 44509.5 0 -271953 59599.9 0 -276772 74908.3 0 -282706 90489.6 0 -289780 106399 0 -298029 122692 0 -307488 139424 0 -318202 156652 0 -330219 174429 0 -343597 192812 0 -358399 211855 0 -374696 231612 0 -392567 252133 0 -237451 0 0 -237930 16444.3 0 -239370 32950.6 0 -241777 49581.1 0 -245162 66398.1 0 -249542 83464.4 0 -254938 100843 0 -261376 118599 0 -268887 136796 0 -277507 155498 0 -287281 174774 0 -298257 194687 0 -310491 215307 0 -324049 236700 0 -339002 258934 0 -355431 282074 0 -208780 0 0 -209204 17952.5 0 -210479 35974.2 0 -212612 54134.8 0 -215613 72504.1 0 -219496 91152.7 0 -224283 110152 0 -229996 129574 0 -236667 149493 0 -244330 169983 0 -253027 191122 0 -262804 212985 0 -273718 235654 0 -285830 259210 0 -299212 283734 0 -313945 309311 0 -177754 0 0 -178118 19268.3 0 -179212 38612.7 0 -181041 58109.3 0 -183614 77835.1 0 -186947 97867.8 0 -191055 118286 0 -195963 139171 0 -201697 160605 0 -208288 182670 0 -215776 205455 0 -224203 229048 0 -233622 253541 0 -244090 279030 0 -255676 305611 0 -268457 333389 0 -144711 0 0 -145009 20373.3 0 -145905 40828.6 0 -147403 61448 0 -149512 82314.6 0 -152244 103513 0 -155614 125128 0 -159640 147247 0 -164347 169961 0 -169763 193362 0 -175920 217547 0 -182856 242614 0 -190617 268667 0 -199255 295815 0 -208830 324172 0 -219411 353857 0 -110015 0 0 -110242 21251.2 0 -110927 42589.1 0 -112072 64101 0 -113684 85875 0 -115773 108001 0 -118350 130569 0 -121431 153674 0 -125035 177412 0 -129183 201883 0 -133903 227190 0 -139225 253443 0 -145185 280756 0 -151826 309248 0 -159196 339049 0 -167354 370292 0 -74055.4 0 0 -74209.3 21888.3 0 -74671.8 43867.1 0 -75445.7 66027.2 0 -76535.4 88460.5 0 -77947.4 111261 0 -79690.1 134523 0 -81774.2 158346 0 -84212.6 182830 0 -87021 208083 0 -90217.8 234212 0 -93824.7 261335 0 -97867.3 289574 0 -102375 319058 0 -107384 349925 0 -112934 382325 0 -37242.8 0 0 -37320.4 22274.8 0 -37553.5 44642.3 0 -37943.6 67195.7 0 -38493 90029.2 0 -39205 113239 0 -40083.9 136923 0 -41135.2 161182 0 -42365.4 186121 0 -43782.7 211850 0 -45396.6 238481 0 -47218.3 266135 0 -49260.9 294940 0 -51539.9 325032 0 -54073.6 356555 0 -56882.9 389667 0 0 0 0 0 22404.4 0 0 44902.2 0 0 67587.4 0 0 90555.1 0 0 113902 0 0 137728 0 0 162133 0 0 187225 0 0 213113 0 0 239913 0 0 267747 0 0 296743 0 0 327039 0 0 358784 0 0 392137 0 </DataArray> 
</PointData> 
<Points> 
<DataArray type="Float32" NumberOfComponents="3"> 
0 0 0 0.0004 0 0 0.0008 0 0 0.0012 0 0 0.0016 0 0 0.002 0 0 0.0024 0 0 0.0028 0 0 0.0032 0 0 0.0036 0 0 0.004 0 0 0.0044 0 0 0.0048 0 0 0.0052 0 0 0.0056 0 0 0.006 0 0 0 0.000666667 0 0.0004 0.000666667 0 0.0008 0.000666667 0 0.0012 0.000666667 0 0.0016 0.000666667 0 0.002 0.000666667 0 0.0024 0.000666667 0 0.0028 0.000666667 0 0.0032 0.000666667 0 0.0036 0.000666667 0 0.004 0.000666667 0 0.0044 0.000666667 0 0.0048 0.000666667 0 0.0052 0.000666667 0 0.0056 0.000666667 0 0.006 0.000666667 0 0 0.00133333 0 0.0004 0.00133333 0 0.0008 0.00133333 0 0.0012 0.00133333 0 0.0016 0.00133333 0 0.002 0.00133333 0 0.0024 0.00133333 0 0.0028 0.00133333 0 0.0032 0.00133333 0 0.0036 0.00133333 0 0.004 0.00133333 0 0.0044 0.00133333 0 0.0048 0.00133333 0 0.0052 0.00133333 0 0.0056 0.00133333 0 0.006 0.00133333 0 0 0.002 0 0.0004 0.002 0 0.0008 0.002 0 0.0012 0.002 0 0.0016 0.002 0 0.002 0.002 0 0.0024 0.002 0 0.0028 0.002 0 0.0032 0.002 0 0.0036 0.002 0 0.004 0.002 0 0.0044 0.002 0 0.0048 0.002 0 0.0052 0.002 0 0.0056 0.002 0 0.006 0.002 0 0 0.00266667 0 0.0004 0.00266667 0 0.0008 0.00266667 0 0.0012 0.00266667 0 0.0016 0.00266667 0 0.002 0.00266667 0 0.0024 0.00266667 0 0.0028 0.00266667 0 0.0032 0.00266667 0 0.0036 0.00266667 0 0.004 0.00266667 0 0.0044 0.00266667 0 0.0048 0.00266667 0 0.0052 0.00266667 0 0.0056 0.00266667 0 0.006 0.00266667 0 0 0.00333333 0 0.0004 0.00333333 0 0.0008 0.00333333 0 0.0012 0.00333333 0 0.0016 0.00333333 0 0.002 0.00333333 0 0.0024 0.00333333 0 0.0028 0.00333333 0 0.0032 0.00333333 0 0.0036 0.00333333 0 0.004 0.00333333 0 0.0044 0.00333333 0 0.0048 0.00333333 0 0.0052 0.00333333 0 0.0056 0.00333333 0 0.006 0.00333333 0 0 0.004 0 0.0004 0.004 0 0.0008 0.004 0 0.0012 0.004 0 0.0016 0.004 0 0.002 0.004 0 0.0024 0.004 0 0.0028 0.004 0 0.0032 0.004 0 0.0036 0.004 0 0.004 0.004 0 0.0044 0.004 0 0.0048 0.004 0 0.0052 0.004 0 0.0056 0.004 0 0.006 0.004 0 0 0.00466667 0 0.0004 0.00466667 0 0.0008 0.00466667 0 0.0012 0.00466667 0 0.0016 0.00466667 0 0.002 0.00466667 0 0.0024 0.00466667 0 0.0028 0.00466667 0 0.0032 0.00466667 0 0.0036 0.00466667 0 0.004 0.00466667 0 0.0044 0.00466667 0 0.0048 0.00466667 0 0.0052 0.00466667 0 0.0056 0.00466667 0 0.006 0.00466667 0 0 0.00533333 0 0.0004 0.00533333 0 0.0008 0.00533333 0 0.0012 0.00533333 0 0.0016 0.00533333 0 0.002 0.00533333 0 0.0024 0.00533333 0 0.0028 0.00533333 0 0.0032 0.00533333 0 0.0036 0.00533333 0 0.004 0.00533333 0 0.0044 0.00533333 0 0.0048 0.00533333 0 0.0052 0.00533333 0 0.0056 0.00533333 0 0.006 0.00533333 0 0 0.006 0 0.0004 0.006 0 0.0008 0.006 0 0.0012 0.006 0 0.0016 0.006 0 0.002 0.006 0 0.0024 0.006 0 0.0028 0.006 0 0.0032 0.006 0 0.0036 0.006 0 0.004 0.006 0 0.0044 0.006 0 0.0048 0.006 0 0.0052 0.006 0 0.0056 0.006 0 0.006 0.006 0 0 0.00666667 0 0.0004 0.00666667 0 0.0008 0.00666667 0 0.0012 0.00666667 0 0.0016 0.00666667 0 0.002 0.00666667 0 0.0024 0.00666667 0 0.0028 0.00666667 0 0.0032 0.00666667 0 0.0036 0.00666667 0 0.004 0.00666667 0 0.0044 0.00666667 0 0.0048 0.00666667 0 0.0052 0.00666667 0 0.0056 0.00666667 0 0.006 0.00666667 0 0 0.00733333 0 0.0004 0.00733333 0 0.0008 0.00733333 0 0.0012 0.00733333 0 0.0016 0.00733333 0 0.002 0.00733333 0 0.0024 0.00733333 0 0.0028 0.00733333 0 0.0032 0.00733333 0 0.0036 0.00733333 0 0.004 0.00733333 0 0.0044 0.00733333 0 0.0048 0.00733333 0 0.0052 0.00733333 0 0.0056 0.00733333 0 0.006 0.00733333 0 0 0.008 0 0.0004 0.008 0 0.0008 0.008 0 0.0012 0.008 0 0.0016 0.008 0 0.002 0.008 0 0.0024 0.008 0 0.0028 0.008 0 0.0032 0.008 0 0.0036 0.008 0 0.004 0.008 0 0.0044 0.008 0 0.0048 0.008 0 0.0052 0.008 0 0.0056 0.008 0 0.006 0.008 0 0 0.00866667 0 0.0004 0.00866667 0 0.0008 0.00866667 0 0.0012 0.00866667 0 0.0016 0.00866667 0 0.002 0.00866667 0 0.0024 0.00866667 0 0.0028 0.00866667 0 0.0032 0.00866667 0 0.0036 0.00866667 0 0.004 0.00866667 0 0.0044 0.00866667 0 0.0048 0.00866667 0 0.0052 0.00866667 0 0.0056 0.00866667 0 0.006 0.00866667 0 0 0.00933333 0 0.0004 0.00933333 0 0.0008 0.00933333 0 0.0012 0.00933333 0 0.0016 0.00933333 0 0.002 0.00933333 0 0.0024 0.00933333 0 0.0028 0.00933333 0 0.0032 0.00933333 0 0.0036 0.00933333 0 0.004 0.00933333 0 0.0044 0.00933333 0 0.0048 0.00933333 0 0.0052 0.00933333 0 0.0056 0.00933333 0 0.006 0.00933333 0 0 0.01 0 0.0004 0.01 0 0.0008 0.01 0 0.0012 0.01 0 0.0016 0.01 0 0.002 0.01 0 0.0024 0.01 0 0.0028 0.01 0 0.0032 0.01 0 0.0036 0.01 0 0.004 0.01 0 0.0044 0.01 0 0.0048 0.01 0 0.0052 0.01 0 0.0056 0.01 0 0.006 0.01 0 
</DataArray>
</Points> 
</Piece> 
</StructuredGrid> 
</VTKFile> 
