<?xml version="1.0"?> 
<VTKFile type="StructuredGrid" version="0.1"> 
<StructuredGrid WholeExtent="0 15 0 15 0 0"> 
<Piece Extent="0 15 0 15 0 0"> 
<PointData>
<DataArray type="Float32" Name="|E|" format="ascii" NumberOfComponents="3"> 
1.51443e+06 3.4393e+06 0 1.39879e+06 3.36392e+06 0 1.29541e+06 3.31731e+06 0 1.19858e+06 3.28987e+06 0 1.10492e+06 3.27624e+06 0 1.0123e+06 3.27357e+06 0 919287 3.28058e+06 0 824794 3.29708e+06 0 727874 3.32378e+06 0 627567 3.36224e+06 0 522768 3.41507e+06 0 412044 3.48619e+06 0 293392 3.58132e+06 0 163853 3.70864e+06 0 18924.4 3.8798e+06 0 -148365 4.11125e+06 0 1.31472e+06 3.78869e+06 0 1.29423e+06 3.77336e+06 0 1.27216e+06 3.76031e+06 0 1.24794e+06 3.75125e+06 0 1.22193e+06 3.74717e+06 0 1.19487e+06 3.74857e+06 0 1.16768e+06 3.7557e+06 0 1.14132e+06 3.76858e+06 0 1.11675e+06 3.78712e+06 0 1.09493e+06 3.81103e+06 0 1.07677e+06 3.83987e+06 0 1.06306e+06 3.87293e+06 0 1.05441e+06 3.90915e+06 0 1.05105e+06 3.94702e+06 0 1.05256e+06 3.98433e+06 0 1.05746e+06 4.01806e+06 0 1.24951e+06 3.8782e+06 0 1.25002e+06 3.86965e+06 0 1.24818e+06 3.86277e+06 0 1.24536e+06 3.85752e+06 0 1.24223e+06 3.85393e+06 0 1.23918e+06 3.85199e+06 0 1.23648e+06 3.85168e+06 0 1.23438e+06 3.85295e+06 0 1.2331e+06 3.85565e+06 0 1.23286e+06 3.85962e+06 0 1.23391e+06 3.86461e+06 0 1.23649e+06 3.87037e+06 0 1.24094e+06 3.87662e+06 0 1.24776e+06 3.8831e+06 0 1.25784e+06 3.88958e+06 0 1.27266e+06 3.89593e+06 0 1.17787e+06 3.88085e+06 0 1.18247e+06 3.87211e+06 0 1.18777e+06 3.86401e+06 0 1.19314e+06 3.85653e+06 0 1.1984e+06 3.84968e+06 0 1.2036e+06 3.84343e+06 0 1.20881e+06 3.83774e+06 0 1.21416e+06 3.83257e+06 0 1.21974e+06 3.82784e+06 0 1.22564e+06 3.82346e+06 0 1.23189e+06 3.81935e+06 0 1.23851e+06 3.81539e+06 0 1.2454e+06 3.81147e+06 0 1.25233e+06 3.80748e+06 0 1.25879e+06 3.80332e+06 0 1.26385e+06 3.79893e+06 0 1.08739e+06 3.8503e+06 0 1.09613e+06 3.84041e+06 0 1.10408e+06 3.83076e+06 0 1.11169e+06 3.82137e+06 0 1.11913e+06 3.81223e+06 0 1.12645e+06 3.8033e+06 0 1.13368e+06 3.79457e+06 0 1.14083e+06 3.78599e+06 0 1.14791e+06 3.77753e+06 0 1.15492e+06 3.76916e+06 0 1.16187e+06 3.76083e+06 0 1.1688e+06 3.75252e+06 0 1.17575e+06 3.74416e+06 0 1.18283e+06 3.73571e+06 0 1.19029e+06 3.7271e+06 0 1.19859e+06 3.71822e+06 0 988113 3.80813e+06 0 996663 3.79743e+06 0 1.00522e+06 3.78682e+06 0 1.01359e+06 3.77627e+06 0 1.02172e+06 3.76578e+06 0 1.0296e+06 3.75534e+06 0 1.03726e+06 3.74494e+06 0 1.04471e+06 3.73457e+06 0 1.05197e+06 3.72422e+06 0 1.05904e+06 3.71385e+06 0 1.06593e+06 3.70347e+06 0 1.07262e+06 3.69304e+06 0 1.07909e+06 3.68255e+06 0 1.08528e+06 3.67199e+06 0 1.09104e+06 3.66136e+06 0 1.09613e+06 3.65071e+06 0 883821 3.76362e+06 0 892448 3.7524e+06 0 900690 3.74117e+06 0 908657 3.72996e+06 0 916385 3.71875e+06 0 923878 3.70754e+06 0 931135 3.69632e+06 0 938152 3.68508e+06 0 944925 3.67383e+06 0 951452 3.66255e+06 0 957731 3.65124e+06 0 963760 3.63989e+06 0 969546 3.62849e+06 0 975111 3.61705e+06 0 980506 3.60552e+06 0 985841 3.59388e+06 0 778742 3.72066e+06 0 786496 3.70922e+06 0 794068 3.69775e+06 0 801407 3.68626e+06 0 808502 3.67472e+06 0 815350 3.66315e+06 0 821953 3.65155e+06 0 828313 3.63992e+06 0 834429 3.62825e+06 0 840301 3.61655e+06 0 845925 3.6048e+06 0 851298 3.59302e+06 0 856410 3.58119e+06 0 861247 3.56933e+06 0 865778 3.55743e+06 0 869944 3.54552e+06 0 674540 3.6813e+06 0 681472 3.66979e+06 0 688164 3.65822e+06 0 694636 3.64662e+06 0 700891 3.63498e+06 0 706929 3.6233e+06 0 712746 3.61158e+06 0 718339 3.59983e+06 0 723706 3.58803e+06 0 728843 3.57621e+06 0 733748 3.56434e+06 0 738419 3.55244e+06 0 742854 3.54052e+06 0 747055 3.52855e+06 0 751029 3.51656e+06 0 754796 3.50451e+06 0 572322 3.64643e+06 0 578253 3.63495e+06 0 584008 3.62342e+06 0 589576 3.61185e+06 0 594954 3.60022e+06 0 600139 3.58855e+06 0 605131 3.57684e+06 0 609927 3.56508e+06 0 614525 3.55329e+06 0 618924 3.54147e+06 0 623121 3.5296e+06 0 627113 3.51771e+06 0 630898 3.50578e+06 0 634471 3.49382e+06 0 637826 3.48184e+06 0 640951 3.46985e+06 0 472405 3.61658e+06 0 477345 3.60517e+06 0 482129 3.59371e+06 0 486758 3.5822e+06 0 491231 3.57065e+06 0 495545 3.55905e+06 0 499698 3.5474e+06 0 503689 3.53572e+06 0 507514 3.52399e+06 0 511173 3.51223e+06 0 514663 3.50043e+06 0 517982 3.48861e+06 0 521129 3.47675e+06 0 524101 3.46486e+06 0 526899 3.45295e+06 0 529522 3.441e+06 0 374778 3.59198e+06 0 378712 3.58066e+06 0 382527 3.56929e+06 0 386220 3.55787e+06 0 389789 3.5464e+06 0 393232 3.53488e+06 0 396549 3.52332e+06 0 399737 3.51171e+06 0 402794 3.50006e+06 0 405719 3.48838e+06 0 408510 3.47665e+06 0 411166 3.46489e+06 0 413685 3.4531e+06 0 416065 3.44127e+06 0 418305 3.42942e+06 0 420403 3.41754e+06 0 279173 3.57277e+06 0 282112 3.56154e+06 0 284963 3.55025e+06 0 287724 3.53891e+06 0 290395 3.52751e+06 0 292973 3.51606e+06 0 295457 3.50457e+06 0 297847 3.49303e+06 0 300140 3.48144e+06 0 302335 3.46981e+06 0 304432 3.45814e+06 0 306428 3.44643e+06 0 308323 3.43467e+06 0 310116 3.42289e+06 0 311804 3.41107e+06 0 313386 3.39921e+06 0 185182 3.55902e+06 0 187135 3.54785e+06 0 189030 3.53662e+06 0 190867 3.52534e+06 0 192645 3.51399e+06 0 194363 3.50259e+06 0 196019 3.49114e+06 0 197614 3.47963e+06 0 199145 3.46807e+06 0 200612 3.45646e+06 0 202015 3.4448e+06 0 203351 3.43309e+06 0 204621 3.42134e+06 0 205824 3.40954e+06 0 206958 3.3977e+06 0 208025 3.38582e+06 0 92306.6 3.55076e+06 0 93280.5 3.53963e+06 0 94227.1 3.52844e+06 0 95145.3 3.51717e+06 0 96034.4 3.50585e+06 0 96894 3.49445e+06 0 97723.7 3.483e+06 0 98522.9 3.47148e+06 0 99291.1 3.4599e+06 0 100028 3.44826e+06 0 100733 3.43657e+06 0 101405 3.42482e+06 0 102045 3.41301e+06 0 102652 3.40114e+06 0 103224 3.38923e+06 0 103761 3.37726e+06 0 0 3.54801e+06 0 0 3.53689e+06 0 0 3.52569e+06 0 0 3.51442e+06 0 0 3.50307e+06 0 0 3.49164e+06 0 0 3.48014e+06 0 0 3.46856e+06 0 0 3.45692e+06 0 0 3.4452e+06 0 0 3.43341e+06 0 0 3.42155e+06 0 0 3.40962e+06 0 0 3.39763e+06 0 0 3.38556e+06 0 0 3.37343e+06 0 </DataArray> 
</PointData> 
<Points> 
<DataArray type="Float32" NumberOfComponents="3"> 
0.181504 0.0578984 0 0.181933 0.0577146 0 0.182355 0.0575442 0 0.182771 0.0573874 0 0.183179 0.057244 0 0.183581 0.0571141 0 0.183976 0.0569978 0 0.184363 0.0568949 0 0.184744 0.0568055 0 0.185118 0.0567297 0 0.185485 0.0566673 0 0.185845 0.0566184 0 0.186198 0.056583 0 0.186544 0.0565611 0 0.186883 0.0565528 0 0.187215 0.0565579 0 0.181503 0.0615052 0 0.181933 0.0613336 0 0.182356 0.0611746 0 0.182773 0.0610282 0 0.183183 0.0608944 0 0.183587 0.0607732 0 0.183984 0.0606646 0 0.184375 0.0605686 0 0.184759 0.0604852 0 0.185137 0.0604144 0 0.185508 0.0603561 0 0.185873 0.0603105 0 0.186231 0.0602775 0 0.186583 0.0602571 0 0.186928 0.0602492 0 0.187267 0.060254 0 0.181503 0.065112 0 0.181933 0.0649526 0 0.182357 0.064805 0 0.182775 0.0646691 0 0.183187 0.0645448 0 0.183592 0.0644323 0 0.183992 0.0643314 0 0.184386 0.0642423 0 0.184774 0.0641648 0 0.185156 0.064099 0 0.185531 0.064045 0 0.185901 0.0640026 0 0.186265 0.063972 0 0.186622 0.063953 0 0.186974 0.0639457 0 0.18732 0.0639502 0 0.181503 0.0687187 0 0.181933 0.0685717 0 0.182358 0.0684354 0 0.182777 0.0683099 0 0.18319 0.0681952 0 0.183598 0.0680913 0 0.184001 0.0679982 0 0.184397 0.0679159 0 0.184789 0.0678444 0 0.185174 0.0677837 0 0.185555 0.0677338 0 0.185929 0.0676947 0 0.186298 0.0676664 0 0.186662 0.0676489 0 0.18702 0.0676422 0 0.187372 0.0676463 0 0.181503 0.0723255 0 0.181933 0.0721907 0 0.182358 0.0720658 0 0.182779 0.0719507 0 0.183194 0.0718456 0 0.183604 0.0717504 0 0.184009 0.071665 0 0.184409 0.0715896 0 0.184803 0.0715241 0 0.185193 0.0714684 0 0.185578 0.0714227 0 0.185957 0.0713868 0 0.186332 0.0713609 0 0.186701 0.0713448 0 0.187065 0.0713387 0 0.187424 0.0713424 0 0.181502 0.0759323 0 0.181933 0.0758097 0 0.182359 0.0756961 0 0.182781 0.0755916 0 0.183197 0.075496 0 0.18361 0.0754094 0 0.184017 0.0753319 0 0.18442 0.0752633 0 0.184818 0.0752037 0 0.185212 0.0751531 0 0.185601 0.0751115 0 0.185985 0.0750789 0 0.186365 0.0750554 0 0.18674 0.0750408 0 0.187111 0.0750352 0 0.187477 0.0750386 0 0.181502 0.0795391 0 0.181933 0.0794287 0 0.18236 0.0793265 0 0.182783 0.0792324 0 0.183201 0.0791464 0 0.183615 0.0790685 0 0.184025 0.0789987 0 0.184431 0.0789369 0 0.184833 0.0788833 0 0.185231 0.0788378 0 0.185624 0.0788004 0 0.186014 0.078771 0 0.186399 0.0787498 0 0.18678 0.0787367 0 0.187156 0.0787317 0 0.187529 0.0787347 0 0.181502 0.0831458 0 0.181933 0.0830478 0 0.182361 0.0829569 0 0.182784 0.0828733 0 0.183205 0.0827968 0 0.183621 0.0827275 0 0.184034 0.0826655 0 0.184443 0.0826106 0 0.184848 0.082563 0 0.18525 0.0825225 0 0.185647 0.0824892 0 0.186042 0.0824632 0 0.186432 0.0824443 0 0.186819 0.0824326 0 0.187202 0.0824281 0 0.187581 0.0824309 0 0.181502 0.0867526 0 0.181933 0.0866668 0 0.182361 0.0865873 0 0.182786 0.0865141 0 0.183208 0.0864472 0 0.183627 0.0863866 0 0.184042 0.0863323 0 0.184454 0.0862843 0 0.184863 0.0862426 0 0.185268 0.0862072 0 0.185671 0.0861781 0 0.18607 0.0861553 0 0.186466 0.0861387 0 0.186858 0.0861285 0 0.187248 0.0861246 0 0.187634 0.086127 0 0.181501 0.0903594 0 0.181933 0.0902858 0 0.182362 0.0902177 0 0.182788 0.0901549 0 0.183212 0.0900976 0 0.183632 0.0900457 0 0.18405 0.0899991 0 0.184465 0.089958 0 0.184878 0.0899222 0 0.185287 0.0898919 0 0.185694 0.0898669 0 0.186098 0.0898474 0 0.186499 0.0898332 0 0.186897 0.0898245 0 0.187293 0.0898211 0 0.187686 0.0898231 0 0.181501 0.0939661 0 0.181933 0.0939049 0 0.182363 0.0938481 0 0.18279 0.0937958 0 0.183215 0.093748 0 0.183638 0.0937047 0 0.184059 0.0936659 0 0.184477 0.0936316 0 0.184892 0.0936018 0 0.185306 0.0935766 0 0.185717 0.0935558 0 0.186126 0.0935395 0 0.186533 0.0935277 0 0.186937 0.0935204 0 0.187339 0.0935176 0 0.187738 0.0935193 0 0.181501 0.0975729 0 0.181933 0.0975239 0 0.182364 0.0974785 0 0.182792 0.0974366 0 0.183219 0.0973984 0 0.183644 0.0973638 0 0.184067 0.0973327 0 0.184488 0.0973053 0 0.184907 0.0972815 0 0.185325 0.0972612 0 0.18574 0.0972446 0 0.186154 0.0972316 0 0.186566 0.0972221 0 0.186976 0.0972163 0 0.187384 0.0972141 0 0.187791 0.0972154 0 0.181501 0.10118 0 0.181933 0.101143 0 0.182364 0.101109 0 0.182794 0.101077 0 0.183223 0.101049 0 0.18365 0.101023 0 0.184075 0.101 0 0.184499 0.100979 0 0.184922 0.100961 0 0.185344 0.100946 0 0.185764 0.100933 0 0.186182 0.100924 0 0.1866 0.100917 0 0.187015 0.100912 0 0.18743 0.100911 0 0.187843 0.100912 0 0.1815 0.104786 0 0.181933 0.104762 0 0.182365 0.104739 0 0.182796 0.104718 0 0.183226 0.104699 0 0.183655 0.104682 0 0.184083 0.104666 0 0.184511 0.104653 0 0.184937 0.104641 0 0.185362 0.104631 0 0.185787 0.104622 0 0.18621 0.104616 0 0.186633 0.104611 0 0.187055 0.104608 0 0.187475 0.104607 0 0.187895 0.104608 0 0.1815 0.108393 0 0.181933 0.108381 0 0.182366 0.10837 0 0.182798 0.108359 0 0.18323 0.10835 0 0.183661 0.108341 0 0.184092 0.108333 0 0.184522 0.108326 0 0.184952 0.10832 0 0.185381 0.108315 0 0.18581 0.108311 0 0.186239 0.108308 0 0.186667 0.108306 0 0.187094 0.108304 0 0.187521 0.108304 0 0.187948 0.108304 0 0.1815 0.112 0 0.181933 0.112 0 0.182367 0.112 0 0.1828 0.112 0 0.183233 0.112 0 0.183667 0.112 0 0.1841 0.112 0 0.184533 0.112 0 0.184967 0.112 0 0.1854 0.112 0 0.185833 0.112 0 0.186267 0.112 0 0.1867 0.112 0 0.187133 0.112 0 0.187567 0.112 0 0.188 0.112 0 
</DataArray>
</Points> 
</Piece> 
</StructuredGrid> 
</VTKFile> 
