<?xml version="1.0"?> 
<VTKFile type="StructuredGrid" version="0.1"> 
<StructuredGrid WholeExtent="0 15 0 15 0 0"> 
<Piece Extent="0 15 0 15 0 0"> 
<PointData>
<DataArray type="Float32" Name="|E|" format="ascii" NumberOfComponents="3"> 
-1.44687e+06 0 0 -1.43216e+06 98965.3 0 -1.42161e+06 199929 0 -1.41492e+06 303290 0 -1.41175e+06 409405 0 -1.41177e+06 518580 0 -1.4146e+06 631050 0 -1.41988e+06 746963 0 -1.42729e+06 866355 0 -1.43662e+06 989145 0 -1.44783e+06 1.11514e+06 0 -1.46118e+06 1.24409e+06 0 -1.47735e+06 1.37583e+06 0 -1.49754e+06 1.51052e+06 0 -1.52345e+06 1.64899e+06 0 -1.55706e+06 1.79326e+06 0 -1.36383e+06 0 0 -1.34967e+06 107034 0 -1.3397e+06 215931 0 -1.33361e+06 327127 0 -1.3311e+06 441010 0 -1.33183e+06 557914 0 -1.33546e+06 678098 0 -1.34168e+06 801735 0 -1.35024e+06 928897 0 -1.36104e+06 1.05956e+06 0 -1.37421e+06 1.19366e+06 0 -1.39019e+06 1.33117e+06 0 -1.40986e+06 1.47232e+06 0 -1.43448e+06 1.61791e+06 0 -1.46562e+06 1.7697e+06 0 -1.50464e+06 1.93094e+06 0 -1.2779e+06 0 0 -1.26441e+06 115085 0 -1.2551e+06 231908 0 -1.24969e+06 350942 0 -1.24788e+06 472612 0 -1.24935e+06 597288 0 -1.25381e+06 725267 0 -1.26099e+06 856765 0 -1.27073e+06 991921 0 -1.28304e+06 1.13082e+06 0 -1.29818e+06 1.27359e+06 0 -1.3167e+06 1.42051e+06 0 -1.33952e+06 1.57231e+06 0 -1.36776e+06 1.73049e+06 0 -1.40239e+06 1.89774e+06 0 -1.44356e+06 2.07835e+06 0 -1.18935e+06 0 0 -1.17663e+06 123100 0 -1.16805e+06 247824 0 -1.16336e+06 374686 0 -1.16226e+06 504156 0 -1.16448e+06 636647 0 -1.16975e+06 772509 0 -1.17786e+06 912025 0 -1.18874e+06 1.05543e+06 0 -1.20248e+06 1.20297e+06 0 -1.21939e+06 1.35499e+06 0 -1.24006e+06 1.51217e+06 0 -1.26525e+06 1.67574e+06 0 -1.29563e+06 1.84789e+06 0 -1.33117e+06 2.03201e+06 0 -1.37024e+06 2.23289e+06 0 -1.09841e+06 0 0 -1.08655e+06 131061 0 -1.07876e+06 263643 0 -1.0748e+06 398309 0 -1.07441e+06 535580 0 -1.07734e+06 675924 0 -1.08337e+06 819759 0 -1.09233e+06 967454 0 -1.10421e+06 1.11937e+06 0 -1.11914e+06 1.27593e+06 0 -1.13744e+06 1.43777e+06 0 -1.15958e+06 1.60593e+06 0 -1.18598e+06 1.78213e+06 0 -1.21655e+06 1.96903e+06 0 -1.24992e+06 2.17034e+06 0 -1.28244e+06 2.39048e+06 0 -1.00531e+06 0 0 -994373 138947 0 -987410 279327 0 -984194 421756 0 -984487 566816 0 -988064 715041 0 -994737 866928 0 -1.0044e+06 1.02295e+06 0 -1.01704e+06 1.18362e+06 0 -1.03281e+06 1.34955e+06 0 -1.05195e+06 1.52165e+06 0 -1.07467e+06 1.7013e+06 0 -1.10085e+06 1.89054e+06 0 -1.12946e+06 2.09225e+06 0 -1.15765e+06 2.30981e+06 0 -1.1799e+06 2.54636e+06 0 -910253 0 0 -900312 146737 0 -894198 294833 0 -891704 444967 0 -892617 597785 0 -896739 753902 0 -903912 913905 0 -914049 1.07838e+06 0 -927156 1.248e+06 0 -943315 1.42356e+06 0 -962608 1.60622e+06 0 -984892 1.79756e+06 0 -1.00939e+06 1.9998e+06 0 -1.03403e+06 2.21556e+06 0 -1.05462e+06 2.44732e+06 0 -1.06438e+06 2.69614e+06 0 -813458 0 0 -804560 154407 0 -799299 310116 0 -797488 467873 0 -798935 628403 0 -803467 792401 0 -810948 960555 0 -821299 1.13358e+06 0 -834499 1.31227e+06 0 -850532 1.49763e+06 0 -869253 1.69094e+06 0 -890090 1.89391e+06 0 -911573 2.10859e+06 0 -930690 2.33699e+06 0 -942283 2.58015e+06 0 -939171 2.83664e+06 0 -715122 0 0 -707307 161934 0 -702889 325128 0 -701701 490406 0 -703571 658573 0 -708348 830417 0 -715910 1.00673e+06 0 -726170 1.18834e+06 0 -739058 1.37618e+06 0 -754427 1.57137e+06 0 -771869 1.77528e+06 0 -790373 1.98951e+06 0 -807840 2.21571e+06 0 -820560 2.45491e+06 0 -822954 2.70638e+06 0 -808286 2.96624e+06 0 -615443 0 0 -608740 169290 0 -605140 339817 0 -604495 512488 0 -606655 688195 0 -611486 867823 0 -618872 1.05227e+06 0 -628711 1.24247e+06 0 -640868 1.43946e+06 0 -655053 1.64443e+06 0 -670599 1.85871e+06 0 -686106 2.08365e+06 0 -699004 2.32022e+06 0 -705229 2.56821e+06 0 -699349 2.82508e+06 0 -675711 3.08483e+06 0 -514617 0 0 -509043 176450 0 -506221 354132 0 -506022 534042 0 -508318 717167 0 -512987 904489 0 -519921 1.09701e+06 0 -528996 1.29576e+06 0 -540010 1.50185e+06 0 -552544 1.71648e+06 0 -565715 1.94081e+06 0 -577845 2.17579e+06 0 -586124 2.42152e+06 0 -586510 2.67644e+06 0 -574197 2.93625e+06 0 -544944 3.19334e+06 0 -412837 0 0 -408400 183385 0 -406303 368017 0 -406436 554987 0 -408691 745381 0 -412966 940282 0 -419154 1.14079e+06 0 -427115 1.34801e+06 0 -436599 1.56312e+06 0 -447089 1.78723e+06 0 -457575 2.02128e+06 0 -466263 2.26563e+06 0 -470368 2.51942e+06 0 -466226 2.77968e+06 0 -449977 3.04058e+06 0 -418833 3.29333e+06 0 -310294 0 0 -306994 190066 0 -305553 381416 0 -305888 575242 0 -307911 772732 0 -311539 975071 0 -316674 1.18345e+06 0 -323174 1.39907e+06 0 -330767 1.62308e+06 0 -338909 1.85651e+06 0 -346578 2.09996e+06 0 -352066 2.35313e+06 0 -352891 2.61411e+06 0 -346060 2.87856e+06 0 -328808 3.13929e+06 0 -299627 3.38664e+06 0 -207180 0 0 -205004 196466 0 -204141 394275 0 -204530 594725 0 -206112 799113 0 -208824 1.00873e+06 0 -212588 1.22486e+06 0 -217278 1.44876e+06 0 -222650 1.6816e+06 0 -228220 1.92423e+06 0 -233112 2.17687e+06 0 -235925 2.43851e+06 0 -234753 2.70613e+06 0 -227487 2.97405e+06 0 -212459 3.23384e+06 0 -189119 3.47512e+06 0 -103685 0 0 -102612 202555 0 -102234 406536 0 -102517 613354 0 -103430 824418 0 -104939 1.04113e+06 0 -106998 1.26487e+06 0 -109526 1.49697e+06 0 -112367 1.73857e+06 0 -115209 1.99037e+06 0 -117506 2.25218e+06 0 -118418 2.52221e+06 0 -116868 2.79629e+06 0 -111771 3.0674e+06 0 -102420 3.32585e+06 0 -88801.9 3.56054e+06 0 0 0 0 0 208304 0 0 418143 0 0 631047 0 0 848543 0 0 1.07215e+06 0 0 1.30336e+06 0 0 1.54357e+06 0 0 1.79393e+06 0 0 2.05501e+06 0 0 2.32618e+06 0 0 2.60486e+06 0 0 2.88565e+06 0 0 3.16002e+06 0 0 3.41693e+06 0 0 3.64446e+06 0 </DataArray> 
</PointData> 
<Points> 
<DataArray type="Float32" NumberOfComponents="3"> 
0 0.0556667 0 0.00452 0.0564444 0 0.00904 0.0572222 0 0.01356 0.058 0 0.01808 0.0587778 0 0.0226 0.0595556 0 0.02712 0.0603333 0 0.03164 0.0611111 0 0.03616 0.0618889 0 0.04068 0.0626667 0 0.0452 0.0634444 0 0.04972 0.0642222 0 0.05424 0.065 0 0.05876 0.0657778 0 0.06328 0.0665556 0 0.0678 0.0673333 0 0 0.0594222 0 0.00472089 0.0601481 0 0.00944178 0.0608741 0 0.0141627 0.0616 0 0.0188836 0.0623259 0 0.0236044 0.0630519 0 0.0283253 0.0637778 0 0.0330462 0.0645037 0 0.0377671 0.0652296 0 0.042488 0.0659556 0 0.0472089 0.0666815 0 0.0519298 0.0674074 0 0.0566507 0.0681333 0 0.0613716 0.0688593 0 0.0660924 0.0695852 0 0.0708133 0.0703111 0 0 0.0631778 0 0.00492178 0.0638519 0 0.00984356 0.0645259 0 0.0147653 0.0652 0 0.0196871 0.0658741 0 0.0246089 0.0665481 0 0.0295307 0.0672222 0 0.0344524 0.0678963 0 0.0393742 0.0685704 0 0.044296 0.0692444 0 0.0492178 0.0699185 0 0.0541396 0.0705926 0 0.0590613 0.0712667 0 0.0639831 0.0719407 0 0.0689049 0.0726148 0 0.0738267 0.0732889 0 0 0.0669333 0 0.00512267 0.0675556 0 0.0102453 0.0681778 0 0.015368 0.0688 0 0.0204907 0.0694222 0 0.0256133 0.0700444 0 0.030736 0.0706667 0 0.0358587 0.0712889 0 0.0409813 0.0719111 0 0.046104 0.0725333 0 0.0512267 0.0731556 0 0.0563493 0.0737778 0 0.061472 0.0744 0 0.0665947 0.0750222 0 0.0717173 0.0756444 0 0.07684 0.0762667 0 0 0.0706889 0 0.00532356 0.0712593 0 0.0106471 0.0718296 0 0.0159707 0.0724 0 0.0212942 0.0729704 0 0.0266178 0.0735407 0 0.0319413 0.0741111 0 0.0372649 0.0746815 0 0.0425884 0.0752519 0 0.047912 0.0758222 0 0.0532356 0.0763926 0 0.0585591 0.076963 0 0.0638827 0.0775333 0 0.0692062 0.0781037 0 0.0745298 0.0786741 0 0.0798533 0.0792444 0 0 0.0744444 0 0.00552444 0.074963 0 0.0110489 0.0754815 0 0.0165733 0.076 0 0.0220978 0.0765185 0 0.0276222 0.077037 0 0.0331467 0.0775556 0 0.0386711 0.0780741 0 0.0441956 0.0785926 0 0.04972 0.0791111 0 0.0552444 0.0796296 0 0.0607689 0.0801481 0 0.0662933 0.0806667 0 0.0718178 0.0811852 0 0.0773422 0.0817037 0 0.0828667 0.0822222 0 0 0.0782 0 0.00572533 0.0786667 0 0.0114507 0.0791333 0 0.017176 0.0796 0 0.0229013 0.0800667 0 0.0286267 0.0805333 0 0.034352 0.081 0 0.0400773 0.0814667 0 0.0458027 0.0819333 0 0.051528 0.0824 0 0.0572533 0.0828667 0 0.0629787 0.0833333 0 0.068704 0.0838 0 0.0744293 0.0842667 0 0.0801547 0.0847333 0 0.08588 0.0852 0 0 0.0819556 0 0.00592622 0.0823704 0 0.0118524 0.0827852 0 0.0177787 0.0832 0 0.0237049 0.0836148 0 0.0296311 0.0840296 0 0.0355573 0.0844444 0 0.0414836 0.0848593 0 0.0474098 0.0852741 0 0.053336 0.0856889 0 0.0592622 0.0861037 0 0.0651884 0.0865185 0 0.0711147 0.0869333 0 0.0770409 0.0873481 0 0.0829671 0.087763 0 0.0888933 0.0881778 0 0 0.0857111 0 0.00612711 0.0860741 0 0.0122542 0.086437 0 0.0183813 0.0868 0 0.0245084 0.087163 0 0.0306356 0.0875259 0 0.0367627 0.0878889 0 0.0428898 0.0882519 0 0.0490169 0.0886148 0 0.055144 0.0889778 0 0.0612711 0.0893407 0 0.0673982 0.0897037 0 0.0735253 0.0900667 0 0.0796524 0.0904296 0 0.0857796 0.0907926 0 0.0919067 0.0911556 0 0 0.0894667 0 0.006328 0.0897778 0 0.012656 0.0900889 0 0.018984 0.0904 0 0.025312 0.0907111 0 0.03164 0.0910222 0 0.037968 0.0913333 0 0.044296 0.0916444 0 0.050624 0.0919556 0 0.056952 0.0922667 0 0.06328 0.0925778 0 0.069608 0.0928889 0 0.075936 0.0932 0 0.082264 0.0935111 0 0.088592 0.0938222 0 0.09492 0.0941333 0 0 0.0932222 0 0.00652889 0.0934815 0 0.0130578 0.0937407 0 0.0195867 0.094 0 0.0261156 0.0942593 0 0.0326444 0.0945185 0 0.0391733 0.0947778 0 0.0457022 0.095037 0 0.0522311 0.0952963 0 0.05876 0.0955556 0 0.0652889 0.0958148 0 0.0718178 0.0960741 0 0.0783467 0.0963333 0 0.0848756 0.0965926 0 0.0914044 0.0968519 0 0.0979333 0.0971111 0 0 0.0969778 0 0.00672978 0.0971852 0 0.0134596 0.0973926 0 0.0201893 0.0976 0 0.0269191 0.0978074 0 0.0336489 0.0980148 0 0.0403787 0.0982222 0 0.0471084 0.0984296 0 0.0538382 0.098637 0 0.060568 0.0988444 0 0.0672978 0.0990519 0 0.0740276 0.0992593 0 0.0807573 0.0994667 0 0.0874871 0.0996741 0 0.0942169 0.0998815 0 0.100947 0.100089 0 0 0.100733 0 0.00693067 0.100889 0 0.0138613 0.101044 0 0.020792 0.1012 0 0.0277227 0.101356 0 0.0346533 0.101511 0 0.041584 0.101667 0 0.0485147 0.101822 0 0.0554453 0.101978 0 0.062376 0.102133 0 0.0693067 0.102289 0 0.0762373 0.102444 0 0.083168 0.1026 0 0.0900987 0.102756 0 0.0970293 0.102911 0 0.10396 0.103067 0 0 0.104489 0 0.00713156 0.104593 0 0.0142631 0.104696 0 0.0213947 0.1048 0 0.0285262 0.104904 0 0.0356578 0.105007 0 0.0427893 0.105111 0 0.0499209 0.105215 0 0.0570524 0.105319 0 0.064184 0.105422 0 0.0713156 0.105526 0 0.0784471 0.10563 0 0.0855787 0.105733 0 0.0927102 0.105837 0 0.0998418 0.105941 0 0.106973 0.106044 0 0 0.108244 0 0.00733244 0.108296 0 0.0146649 0.108348 0 0.0219973 0.1084 0 0.0293298 0.108452 0 0.0366622 0.108504 0 0.0439947 0.108556 0 0.0513271 0.108607 0 0.0586596 0.108659 0 0.065992 0.108711 0 0.0733244 0.108763 0 0.0806569 0.108815 0 0.0879893 0.108867 0 0.0953218 0.108919 0 0.102654 0.10897 0 0.109987 0.109022 0 0 0.112 0 0.00753333 0.112 0 0.0150667 0.112 0 0.0226 0.112 0 0.0301333 0.112 0 0.0376667 0.112 0 0.0452 0.112 0 0.0527333 0.112 0 0.0602667 0.112 0 0.0678 0.112 0 0.0753333 0.112 0 0.0828667 0.112 0 0.0904 0.112 0 0.0979333 0.112 0 0.105467 0.112 0 0.113 0.112 0 
</DataArray>
</Points> 
</Piece> 
</StructuredGrid> 
</VTKFile> 
