<?xml version="1.0"?> 
<VTKFile type="StructuredGrid" version="0.1"> 
<StructuredGrid WholeExtent="0 15 0 15 0 0"> 
<Piece Extent="0 15 0 15 0 0"> 
<PointData>
<DataArray type="Float32" Name="|E|" format="ascii" NumberOfComponents="3"> 
-2.06843e+06 0 0 -2.06847e+06 3174.08 0 -2.06858e+06 6348.47 0 -2.06877e+06 9523.44 0 -2.06903e+06 12699.3 0 -2.06937e+06 15876.4 0 -2.06979e+06 19055 0 -2.07028e+06 22235.4 0 -2.07084e+06 25417.9 0 -2.07148e+06 28602.7 0 -2.07219e+06 31790.2 0 -2.07299e+06 34980.8 0 -2.07385e+06 38174.6 0 -2.07479e+06 41372.2 0 -2.07581e+06 44573.6 0 -2.07691e+06 47778.5 0 -2.06576e+06 0 0 -2.06581e+06 3596.29 0 -2.06595e+06 7193 0 -2.06618e+06 10790.6 0 -2.0665e+06 14389.4 0 -2.06692e+06 17989.8 0 -2.06743e+06 21592.4 0 -2.06803e+06 25197.5 0 -2.06872e+06 28805.5 0 -2.06951e+06 32416.8 0 -2.07039e+06 36031.8 0 -2.07137e+06 39651.1 0 -2.07243e+06 43275.1 0 -2.07359e+06 46904.2 0 -2.07484e+06 50538.9 0 -2.07619e+06 54179.5 0 -2.06304e+06 0 0 -2.06309e+06 4032.15 0 -2.06326e+06 8064.87 0 -2.06354e+06 12098.7 0 -2.06393e+06 16134.3 0 -2.06443e+06 20172.1 0 -2.06505e+06 24212.7 0 -2.06577e+06 28256.7 0 -2.06661e+06 32304.7 0 -2.06756e+06 36357.2 0 -2.06862e+06 40414.8 0 -2.0698e+06 44478.2 0 -2.07108e+06 48547.9 0 -2.07248e+06 52624.5 0 -2.07399e+06 56708.6 0 -2.07562e+06 60800.7 0 -2.06026e+06 0 0 -2.06033e+06 4481.59 0 -2.06053e+06 8963.92 0 -2.06086e+06 13447.7 0 -2.06132e+06 17933.8 0 -2.06192e+06 22422.9 0 -2.06265e+06 26915.6 0 -2.06351e+06 31412.9 0 -2.0645e+06 35915.3 0 -2.06563e+06 40423.8 0 -2.06689e+06 44939.1 0 -2.06828e+06 49461.9 0 -2.06981e+06 53993.1 0 -2.07147e+06 58533.3 0 -2.07326e+06 63083.4 0 -2.07519e+06 67644.1 0 -2.05744e+06 0 0 -2.05751e+06 4944.52 0 -2.05775e+06 9890.01 0 -2.05813e+06 14837.4 0 -2.05867e+06 19787.7 0 -2.05937e+06 24741.9 0 -2.06022e+06 29700.8 0 -2.06123e+06 34665.6 0 -2.06239e+06 39637.1 0 -2.06371e+06 44616.4 0 -2.06518e+06 49604.4 0 -2.06681e+06 54602.3 0 -2.0686e+06 59610.8 0 -2.07054e+06 64631.1 0 -2.07264e+06 69664.2 0 -2.0749e+06 74711 0 -2.05456e+06 0 0 -2.05465e+06 5420.88 0 -2.05492e+06 10843 0 -2.05536e+06 16267.5 0 -2.05599e+06 21695.7 0 -2.05679e+06 27128.8 0 -2.05778e+06 32568 0 -2.05894e+06 38014.5 0 -2.06029e+06 43469.7 0 -2.06181e+06 48934.7 0 -2.06351e+06 54410.8 0 -2.0654e+06 59899.3 0 -2.06746e+06 65401.4 0 -2.06971e+06 70918.4 0 -2.07214e+06 76451.7 0 -2.07475e+06 82002.5 0 -2.05163e+06 0 0 -2.05173e+06 5910.58 0 -2.05204e+06 11822.7 0 -2.05255e+06 17737.8 0 -2.05327e+06 23657.5 0 -2.05419e+06 29583.3 0 -2.05531e+06 35516.8 0 -2.05664e+06 41459.4 0 -2.05818e+06 47412.8 0 -2.05992e+06 53378.4 0 -2.06187e+06 59358 0 -2.06403e+06 65353 0 -2.06639e+06 71365.1 0 -2.06896e+06 77395.8 0 -2.07174e+06 83446.9 0 -2.07473e+06 89519.8 0 -2.04865e+06 0 0 -2.04876e+06 6413.55 0 -2.04911e+06 12829 0 -2.04969e+06 19248.1 0 -2.0505e+06 25672.9 0 -2.05155e+06 32105.2 0 -2.05282e+06 38546.9 0 -2.05433e+06 44999.9 0 -2.05608e+06 51466.1 0 -2.05805e+06 57947.5 0 -2.06026e+06 64446 0 -2.06271e+06 70963.5 0 -2.06539e+06 77502.1 0 -2.0683e+06 84063.8 0 -2.07146e+06 90650.5 0 -2.07485e+06 97264.4 0 -2.04562e+06 0 0 -2.04575e+06 6929.7 0 -2.04614e+06 13861.7 0 -2.04679e+06 20798.2 0 -2.0477e+06 27741.6 0 -2.04888e+06 34694 0 -2.05031e+06 41658 0 -2.05201e+06 48635.6 0 -2.05397e+06 55629.4 0 -2.05619e+06 62641.6 0 -2.05868e+06 69674.7 0 -2.06143e+06 76731 0 -2.06445e+06 83812.9 0 -2.06773e+06 90923 0 -2.07128e+06 98063.7 0 -2.07509e+06 105237 0 -2.04253e+06 0 0 -2.04268e+06 7458.95 0 -2.04312e+06 14920.6 0 -2.04384e+06 22387.8 0 -2.04486e+06 29863.2 0 -2.04618e+06 37349.5 0 -2.04778e+06 44849.6 0 -2.04968e+06 52366.3 0 -2.05187e+06 59902.4 0 -2.05435e+06 67460.6 0 -2.05713e+06 75044 0 -2.0602e+06 82655.4 0 -2.06357e+06 90297.7 0 -2.06724e+06 97974 0 -2.07121e+06 105687 0 -2.07547e+06 113440 0 -2.0394e+06 0 0 -2.03956e+06 8001.21 0 -2.04005e+06 16005.7 0 -2.04086e+06 24016.7 0 -2.04199e+06 32037.5 0 -2.04344e+06 40071.3 0 -2.04522e+06 48121.6 0 -2.04733e+06 56191.6 0 -2.04976e+06 64284.7 0 -2.05252e+06 72404.3 0 -2.0556e+06 80553.8 0 -2.05901e+06 88736.9 0 -2.06276e+06 96957 0 -2.06683e+06 105218 0 -2.07124e+06 113522 0 -2.07597e+06 121875 0 -2.03622e+06 0 0 -2.0364e+06 8556.41 0 -2.03693e+06 17116.7 0 -2.03782e+06 25684.6 0 -2.03907e+06 34264.1 0 -2.04068e+06 42859.1 0 -2.04264e+06 51473.5 0 -2.04497e+06 60111.1 0 -2.04765e+06 68776.1 0 -2.0507e+06 77472.4 0 -2.0541e+06 86204.2 0 -2.05787e+06 94975.6 0 -2.062e+06 103791 0 -2.0665e+06 112654 0 -2.07137e+06 121570 0 -2.0766e+06 130542 0 -2.03298e+06 0 0 -2.03318e+06 9124.45 0 -2.03377e+06 18253.4 0 -2.03475e+06 27391.4 0 -2.03612e+06 36542.9 0 -2.03788e+06 45712.5 0 -2.04004e+06 54904.9 0 -2.04259e+06 64124.6 0 -2.04554e+06 73376.2 0 -2.04888e+06 82664.7 0 -2.05262e+06 91994.9 0 -2.05677e+06 101372 0 -2.06131e+06 110800 0 -2.06625e+06 120285 0 -2.0716e+06 129831 0 -2.07735e+06 139443 0 -2.0297e+06 0 0 -2.02991e+06 9705.26 0 -2.03056e+06 19415.8 0 -2.03163e+06 29136.7 0 -2.03313e+06 38873.5 0 -2.03506e+06 48631.3 0 -2.03741e+06 58415.5 0 -2.0402e+06 68231.5 0 -2.04343e+06 78084.9 0 -2.04708e+06 87981.1 0 -2.05117e+06 97926.1 0 -2.0557e+06 107926 0 -2.06067e+06 117985 0 -2.06608e+06 128110 0 -2.07193e+06 138306 0 -2.07822e+06 148580 0 -2.02637e+06 0 0 -2.0266e+06 10298.7 0 -2.0273e+06 20603.5 0 -2.02846e+06 30920.4 0 -2.0301e+06 41255.5 0 -2.0322e+06 51615 0 -2.03476e+06 62005 0 -2.0378e+06 72431.7 0 -2.04131e+06 82901.6 0 -2.04529e+06 93421.3 0 -2.04974e+06 103998 0 -2.05467e+06 114637 0 -2.06008e+06 125345 0 -2.06597e+06 136130 0 -2.07235e+06 146997 0 -2.0792e+06 157954 0 -2.02298e+06 0 0 -2.02324e+06 10904.8 0 -2.024e+06 21816.5 0 -2.02526e+06 32742.2 0 -2.02703e+06 43688.7 0 -2.0293e+06 54663.3 0 -2.03209e+06 65672.9 0 -2.03538e+06 76724.8 0 -2.03919e+06 87826.2 0 -2.0435e+06 98985.2 0 -2.04833e+06 110210 0 -2.05368e+06 121506 0 -2.05955e+06 132882 0 -2.06595e+06 144345 0 -2.07286e+06 155903 0 -2.0803e+06 167566 0 </DataArray> 
</PointData> 
<Points> 
<DataArray type="Float32" NumberOfComponents="3"> 
0 0.016 0 0.0004 0.016 0 0.0008 0.016 0 0.0012 0.016 0 0.0016 0.016 0 0.002 0.016 0 0.0024 0.016 0 0.0028 0.016 0 0.0032 0.016 0 0.0036 0.016 0 0.004 0.016 0 0.0044 0.016 0 0.0048 0.016 0 0.0052 0.016 0 0.0056 0.016 0 0.006 0.016 0 0 0.0163333 0 0.000444444 0.0163333 0 0.000888889 0.0163333 0 0.00133333 0.0163333 0 0.00177778 0.0163333 0 0.00222222 0.0163333 0 0.00266667 0.0163333 0 0.00311111 0.0163333 0 0.00355556 0.0163333 0 0.004 0.0163333 0 0.00444444 0.0163333 0 0.00488889 0.0163333 0 0.00533333 0.0163333 0 0.00577778 0.0163333 0 0.00622222 0.0163333 0 0.00666667 0.0163333 0 0 0.0166667 0 0.000488889 0.0166667 0 0.000977778 0.0166667 0 0.00146667 0.0166667 0 0.00195556 0.0166667 0 0.00244444 0.0166667 0 0.00293333 0.0166667 0 0.00342222 0.0166667 0 0.00391111 0.0166667 0 0.0044 0.0166667 0 0.00488889 0.0166667 0 0.00537778 0.0166667 0 0.00586667 0.0166667 0 0.00635556 0.0166667 0 0.00684444 0.0166667 0 0.00733333 0.0166667 0 0 0.017 0 0.000533333 0.017 0 0.00106667 0.017 0 0.0016 0.017 0 0.00213333 0.017 0 0.00266667 0.017 0 0.0032 0.017 0 0.00373333 0.017 0 0.00426667 0.017 0 0.0048 0.017 0 0.00533333 0.017 0 0.00586667 0.017 0 0.0064 0.017 0 0.00693333 0.017 0 0.00746667 0.017 0 0.008 0.017 0 0 0.0173333 0 0.000577778 0.0173333 0 0.00115556 0.0173333 0 0.00173333 0.0173333 0 0.00231111 0.0173333 0 0.00288889 0.0173333 0 0.00346667 0.0173333 0 0.00404444 0.0173333 0 0.00462222 0.0173333 0 0.0052 0.0173333 0 0.00577778 0.0173333 0 0.00635556 0.0173333 0 0.00693333 0.0173333 0 0.00751111 0.0173333 0 0.00808889 0.0173333 0 0.00866667 0.0173333 0 0 0.0176667 0 0.000622222 0.0176667 0 0.00124444 0.0176667 0 0.00186667 0.0176667 0 0.00248889 0.0176667 0 0.00311111 0.0176667 0 0.00373333 0.0176667 0 0.00435556 0.0176667 0 0.00497778 0.0176667 0 0.0056 0.0176667 0 0.00622222 0.0176667 0 0.00684444 0.0176667 0 0.00746667 0.0176667 0 0.00808889 0.0176667 0 0.00871111 0.0176667 0 0.00933333 0.0176667 0 0 0.018 0 0.000666667 0.018 0 0.00133333 0.018 0 0.002 0.018 0 0.00266667 0.018 0 0.00333333 0.018 0 0.004 0.018 0 0.00466667 0.018 0 0.00533333 0.018 0 0.006 0.018 0 0.00666667 0.018 0 0.00733333 0.018 0 0.008 0.018 0 0.00866667 0.018 0 0.00933333 0.018 0 0.01 0.018 0 0 0.0183333 0 0.000711111 0.0183333 0 0.00142222 0.0183333 0 0.00213333 0.0183333 0 0.00284444 0.0183333 0 0.00355556 0.0183333 0 0.00426667 0.0183333 0 0.00497778 0.0183333 0 0.00568889 0.0183333 0 0.0064 0.0183333 0 0.00711111 0.0183333 0 0.00782222 0.0183333 0 0.00853333 0.0183333 0 0.00924444 0.0183333 0 0.00995556 0.0183333 0 0.0106667 0.0183333 0 0 0.0186667 0 0.000755556 0.0186667 0 0.00151111 0.0186667 0 0.00226667 0.0186667 0 0.00302222 0.0186667 0 0.00377778 0.0186667 0 0.00453333 0.0186667 0 0.00528889 0.0186667 0 0.00604444 0.0186667 0 0.0068 0.0186667 0 0.00755556 0.0186667 0 0.00831111 0.0186667 0 0.00906667 0.0186667 0 0.00982222 0.0186667 0 0.0105778 0.0186667 0 0.0113333 0.0186667 0 0 0.019 0 0.0008 0.019 0 0.0016 0.019 0 0.0024 0.019 0 0.0032 0.019 0 0.004 0.019 0 0.0048 0.019 0 0.0056 0.019 0 0.0064 0.019 0 0.0072 0.019 0 0.008 0.019 0 0.0088 0.019 0 0.0096 0.019 0 0.0104 0.019 0 0.0112 0.019 0 0.012 0.019 0 0 0.0193333 0 0.000844444 0.0193333 0 0.00168889 0.0193333 0 0.00253333 0.0193333 0 0.00337778 0.0193333 0 0.00422222 0.0193333 0 0.00506667 0.0193333 0 0.00591111 0.0193333 0 0.00675556 0.0193333 0 0.0076 0.0193333 0 0.00844444 0.0193333 0 0.00928889 0.0193333 0 0.0101333 0.0193333 0 0.0109778 0.0193333 0 0.0118222 0.0193333 0 0.0126667 0.0193333 0 0 0.0196667 0 0.000888889 0.0196667 0 0.00177778 0.0196667 0 0.00266667 0.0196667 0 0.00355556 0.0196667 0 0.00444444 0.0196667 0 0.00533333 0.0196667 0 0.00622222 0.0196667 0 0.00711111 0.0196667 0 0.008 0.0196667 0 0.00888889 0.0196667 0 0.00977778 0.0196667 0 0.0106667 0.0196667 0 0.0115556 0.0196667 0 0.0124444 0.0196667 0 0.0133333 0.0196667 0 0 0.02 0 0.000933333 0.02 0 0.00186667 0.02 0 0.0028 0.02 0 0.00373333 0.02 0 0.00466667 0.02 0 0.0056 0.02 0 0.00653333 0.02 0 0.00746667 0.02 0 0.0084 0.02 0 0.00933333 0.02 0 0.0102667 0.02 0 0.0112 0.02 0 0.0121333 0.02 0 0.0130667 0.02 0 0.014 0.02 0 0 0.0203333 0 0.000977778 0.0203333 0 0.00195556 0.0203333 0 0.00293333 0.0203333 0 0.00391111 0.0203333 0 0.00488889 0.0203333 0 0.00586667 0.0203333 0 0.00684444 0.0203333 0 0.00782222 0.0203333 0 0.0088 0.0203333 0 0.00977778 0.0203333 0 0.0107556 0.0203333 0 0.0117333 0.0203333 0 0.0127111 0.0203333 0 0.0136889 0.0203333 0 0.0146667 0.0203333 0 0 0.0206667 0 0.00102222 0.0206667 0 0.00204444 0.0206667 0 0.00306667 0.0206667 0 0.00408889 0.0206667 0 0.00511111 0.0206667 0 0.00613333 0.0206667 0 0.00715556 0.0206667 0 0.00817778 0.0206667 0 0.0092 0.0206667 0 0.0102222 0.0206667 0 0.0112444 0.0206667 0 0.0122667 0.0206667 0 0.0132889 0.0206667 0 0.0143111 0.0206667 0 0.0153333 0.0206667 0 0 0.021 0 0.00106667 0.021 0 0.00213333 0.021 0 0.0032 0.021 0 0.00426667 0.021 0 0.00533333 0.021 0 0.0064 0.021 0 0.00746667 0.021 0 0.00853333 0.021 0 0.0096 0.021 0 0.0106667 0.021 0 0.0117333 0.021 0 0.0128 0.021 0 0.0138667 0.021 0 0.0149333 0.021 0 0.016 0.021 0 
</DataArray>
</Points> 
</Piece> 
</StructuredGrid> 
</VTKFile> 
