<?xml version="1.0"?> 
<VTKFile type="StructuredGrid" version="0.1"> 
<StructuredGrid WholeExtent="0 15 0 15 0 0"> 
<Piece Extent="0 15 0 15 0 0"> 
<PointData>
<DataArray type="Float32" Name="|E|" format="ascii" NumberOfComponents="3"> 
3.51103e+06 -1.45432e+06 0 2.80483e+06 383935 0 2.14782e+06 673990 0 1.74409e+06 696218 0 1.45545e+06 650824 0 1.23468e+06 581106 0 1.05946e+06 505383 0 916880 431390 0 800713 361841 0 706160 297833 0 630342 239201 0 570930 185379 0 526308 135514 0 495250 88661.8 0 476938 43825.4 0 470889 0 0 3.86318e+06 -1.29446e+06 0 2.82044e+06 496264 0 2.13332e+06 742560 0 1.71959e+06 745079 0 1.42785e+06 690324 0 1.20609e+06 614485 0 1.03127e+06 534817 0 889805 457574 0 775188 385162 0 682310 318351 0 608106 256857 0 550079 200024 0 506484 146941 0 475980 96610.4 0 457634 47985.8 0 450849 0 0 4.19195e+06 -1.07403e+06 0 2.83076e+06 610813 0 2.11739e+06 811584 0 1.69478e+06 794333 0 1.40016e+06 730314 0 1.1775e+06 648213 0 1.00295e+06 564452 0 862456 483758 0 749156 408317 0 657709 338565 0 584860 274121 0 527962 214237 0 485146 157953 0 454956 104219 0 436354 51942.1 0 428629 0 0 4.49125e+06 -795693 0 2.83611e+06 727035 0 2.10038e+06 880873 0 1.66988e+06 844054 0 1.37251e+06 770767 0 1.14901e+06 682307 0 974551 594296 0 834846 509964 0 722623 431332 0 632364 358505 0 560621 291025 0 504609 228053 0 462337 168581 0 432243 111513 0 413179 55709.6 0 404327 0 0 4.75434e+06 -463359 0 2.83708e+06 844534 0 2.08262e+06 950272 0 1.64507e+06 894349 0 1.34502e+06 811661 0 1.12066e+06 716805 0 946100 624363 0 806996 536221 0 695599 454236 0 606293 378207 0 535413 307604 0 480061 241506 0 438118 178857 0 407916 118517 0 388204 59302.8 0 378055 0 0 4.9744e+06 -82588.5 0 2.8344e+06 963074 0 2.06443e+06 1.01969e+06 0 1.62055e+06 945328 0 1.31782e+06 852983 0 1.09254e+06 751753 0 917645 654673 0 778932 562567 0 668108 477065 0 579524 397709 0 509277 323896 0 454371 254629 0 412557 188808 0 382065 125252 0 361534 62734.8 0 349931 0 0 5.14517e+06 339268 0 2.82884e+06 1.08255e+06 0 2.04611e+06 1.0891e+06 0 1.59645e+06 997088 0 1.29104e+06 894744 0 1.0647e+06 787203 0 889237 685256 0 750681 589045 0 640183 499857 0 552091 417048 0 482260 339934 0 427603 267454 0 385736 198463 0 354788 131738 0 333286 66017 0 320088 0 0 5.26146e+06 793147 0 2.82114e+06 1.20299e+06 0 2.02793e+06 1.15858e+06 0 1.57292e+06 1.04969e+06 0 1.26483e+06 936980 0 1.03719e+06 823204 0 860937 716152 0 722279 615698 0 611863 522652 0 524039 436265 0 454419 355755 0 399831 280010 0 357749 207844 0 326197 137993 0 303588 69158.3 0 288666 0 0 5.31965e+06 1.26855e+06 0 2.81191e+06 1.32448e+06 0 2.01011e+06 1.22829e+06 0 1.55008e+06 1.10316e+06 0 1.23931e+06 979761 0 1.01007e+06 859796 0 832808 747408 0 693763 642574 0 583197 545494 0 495419 455399 0 425822 371391 0 371137 292325 0 328695 216971 0 296411 144030 0 272576 72165.4 0 255814 0 0 5.31797e+06 1.754e+06 0 2.80162e+06 1.44715e+06 0 1.99284e+06 1.29843e+06 0 1.52806e+06 1.15749e+06 0 1.21459e+06 1.02318e+06 0 983392 897008 0 804913 779084 0 665177 669716 0 554237 568429 0 466287 474486 0 396541 386873 0 341610 304421 0 298684 225860 0 265558 149859 0 240396 75042.6 0 221692 0 0 5.25667e+06 2.23758e+06 0 2.79053e+06 1.57115e+06 0 1.97625e+06 1.36929e+06 0 1.50698e+06 1.21262e+06 0 1.19076e+06 1.06735e+06 0 957236 934866 0 777314 811244 0 636572 697169 0 525038 591501 0 436706 493563 0 366653 402229 0 311343 316318 0 267829 234523 0 233773 155483 0 207200 77791.2 0 186467 0 0 5.13798e+06 2.70751e+06 0 2.77871e+06 1.69658e+06 0 1.9604e+06 1.44112e+06 0 1.48697e+06 1.26853e+06 0 1.1679e+06 1.11237e+06 0 931676 973392 0 750067 843953 0 608004 724976 0 495658 614758 0 406742 512663 0 336239 417483 0 280436 328030 0 236251 242967 0 201194 160906 0 173147 80409.6 0 150310 0 0 4.96595e+06 3.15272e+06 0 2.76603e+06 1.82353e+06 0 1.94534e+06 1.51418e+06 0 1.46817e+06 1.32515e+06 0 1.14605e+06 1.15836e+06 0 906800 1.01261e+06 0 723221 877274 0 579536 753181 0 466152 638242 0 376463 531817 0 305379 432659 0 248989 339569 0 204069 251194 0 167965 166123 0 138399 82893.4 0 113403 0 0 4.74614e+06 3.5633e+06 0 2.75218e+06 1.95196e+06 0 1.93107e+06 1.58865e+06 0 1.45068e+06 1.38249e+06 0 1.12526e+06 1.20537e+06 0 882697 1.05255e+06 0 696826 911263 0 551233 781829 0 436577 661996 0 345940 551055 0 274153 447772 0 217102 350940 0 171406 259202 0 134230 171128 0 103122 85235.1 0 75926.8 0 0 4.4852e+06 3.93077e+06 0 2.73673e+06 2.08177e+06 0 1.91756e+06 1.66467e+06 0 1.43461e+06 1.44054e+06 0 1.10554e+06 1.25345e+06 0 859459 1.09326e+06 0 670925 945964 0 523164 810968 0 406984 686056 0 315244 570406 0 242641 462838 0 184876 362148 0 138381 266983 0 100133 175907 0 67483.3 87424.2 0 38070.6 0 0 4.19049e+06 4.24827e+06 0 2.71918e+06 2.21272e+06 0 1.90476e+06 1.74228e+06 0 1.42003e+06 1.49936e+06 0 1.08694e+06 1.30261e+06 0 837172 1.13478e+06 0 645564 981413 0 495398 840649 0 377423 710458 0 284443 589898 0 210915 477868 0 152407 373192 0 105111 274526 0 65817.4 180448 0 31650.7 89447.1 0 22.2292 0 0 </DataArray> 
</PointData> 
<Points> 
<DataArray type="Float32" NumberOfComponents="3"> 
0.2018 0.0378 0 0.213213 0.0378 0 0.224627 0.0378 0 0.23604 0.0378 0 0.247453 0.0378 0 0.258867 0.0378 0 0.27028 0.0378 0 0.281693 0.0378 0 0.293107 0.0378 0 0.30452 0.0378 0 0.315933 0.0378 0 0.327347 0.0378 0 0.33876 0.0378 0 0.350173 0.0378 0 0.361587 0.0378 0 0.373 0.0378 0 0.202144 0.0387176 0 0.213682 0.0389897 0 0.225198 0.0392613 0 0.236694 0.0395324 0 0.248168 0.039803 0 0.259621 0.040073 0 0.271053 0.0403426 0 0.282464 0.0406117 0 0.293854 0.0408803 0 0.305223 0.0411484 0 0.316571 0.041416 0 0.327898 0.0416831 0 0.339205 0.0419497 0 0.35049 0.0422159 0 0.361755 0.0424815 0 0.373 0.0427467 0 0.202421 0.0396548 0 0.214069 0.0402037 0 0.225678 0.0407508 0 0.237246 0.0412959 0 0.248774 0.0418392 0 0.260262 0.0423806 0 0.271711 0.0429201 0 0.28312 0.0434578 0 0.29449 0.0439936 0 0.305822 0.0445276 0 0.317114 0.0450597 0 0.328367 0.04559 0 0.339583 0.0461185 0 0.35076 0.0466453 0 0.361899 0.0471702 0 0.373 0.0476933 0 0.202627 0.0406065 0 0.214371 0.041436 0 0.226059 0.0422615 0 0.237691 0.0430831 0 0.249266 0.0439006 0 0.260785 0.0447142 0 0.272249 0.0455239 0 0.283658 0.0463298 0 0.295013 0.0471317 0 0.306313 0.0479299 0 0.31756 0.0487242 0 0.328753 0.0495148 0 0.339893 0.0503017 0 0.350981 0.0510848 0 0.362016 0.0518642 0 0.373 0.05264 0 0.202759 0.0415673 0 0.214584 0.0426801 0 0.226338 0.0437861 0 0.238023 0.0448856 0 0.249638 0.0459786 0 0.261185 0.0470651 0 0.272663 0.0481452 0 0.284074 0.0492189 0 0.295418 0.0502863 0 0.306695 0.0513475 0 0.317907 0.0524026 0 0.329054 0.0534514 0 0.340136 0.0544942 0 0.351154 0.055531 0 0.362108 0.0565618 0 0.373 0.0575867 0 0.202814 0.0425316 0 0.214703 0.0439289 0 0.226511 0.0453167 0 0.238239 0.0466951 0 0.249887 0.0480641 0 0.261457 0.0494239 0 0.272949 0.0507745 0 0.284364 0.0521161 0 0.295703 0.0534487 0 0.306966 0.0547725 0 0.318154 0.0560874 0 0.329269 0.0573936 0 0.34031 0.0586913 0 0.351278 0.0599804 0 0.362175 0.061261 0 0.373 0.0625333 0 0.20279 0.0434934 0 0.214727 0.0451756 0 0.226575 0.0468453 0 0.238336 0.0485027 0 0.250011 0.050148 0 0.261601 0.0517812 0 0.273106 0.0534025 0 0.284527 0.0550121 0 0.295866 0.05661 0 0.307124 0.0581964 0 0.3183 0.0597715 0 0.329397 0.0613352 0 0.340414 0.0628879 0 0.351353 0.0644294 0 0.362215 0.0659601 0 0.373 0.06748 0 0.202687 0.0444467 0 0.214654 0.0464127 0 0.226529 0.0483636 0 0.238313 0.0502995 0 0.250007 0.0522208 0 0.261613 0.0541274 0 0.273131 0.0560196 0 0.284562 0.0578975 0 0.295907 0.0597614 0 0.307167 0.0616113 0 0.318344 0.0634474 0 0.329437 0.0652699 0 0.340449 0.067079 0 0.351379 0.0688747 0 0.362229 0.0706572 0 0.373 0.0724267 0 0.202505 0.0453855 0 0.214485 0.0476331 0 0.226372 0.0498635 0 0.238169 0.0520767 0 0.249876 0.0542731 0 0.261494 0.0564529 0 0.273024 0.0586161 0 0.284467 0.060763 0 0.295824 0.0628939 0 0.307097 0.0650088 0 0.318285 0.0671079 0 0.329391 0.0691915 0 0.340414 0.0712596 0 0.351356 0.0733125 0 0.362218 0.0753504 0 0.373 0.0773733 0 0.202244 0.0463041 0 0.214219 0.0488298 0 0.226106 0.0513369 0 0.237905 0.0538255 0 0.249617 0.0562959 0 0.261243 0.0587482 0 0.272785 0.0611826 0 0.284244 0.0635994 0 0.295619 0.0659987 0 0.306912 0.0683807 0 0.318125 0.0707456 0 0.329257 0.0730936 0 0.340309 0.0754249 0 0.351284 0.0777396 0 0.36218 0.0800379 0 0.373 0.08232 0 0.201908 0.0471967 0 0.21386 0.049996 0 0.225731 0.0527762 0 0.237522 0.0555375 0 0.249232 0.0582801 0 0.260863 0.0610042 0 0.272417 0.0637099 0 0.283892 0.0663976 0 0.295291 0.0690672 0 0.306614 0.0717191 0 0.317862 0.0743534 0 0.329036 0.0769702 0 0.340136 0.0795698 0 0.351162 0.0821523 0 0.362117 0.0847178 0 0.373 0.0872667 0 0.201498 0.0480584 0 0.213411 0.0511254 0 0.225252 0.0541741 0 0.237023 0.0572047 0 0.248725 0.0602173 0 0.260357 0.0632121 0 0.27192 0.0661892 0 0.283415 0.0691488 0 0.294843 0.072091 0 0.306204 0.0750161 0 0.317499 0.0779241 0 0.328728 0.0808151 0 0.339893 0.0836895 0 0.350992 0.0865472 0 0.362028 0.0893884 0 0.373 0.0922133 0 0.201019 0.0488843 0 0.212875 0.0522122 0 0.224673 0.055524 0 0.236414 0.0588197 0 0.248098 0.0620996 0 0.259726 0.0653636 0 0.271298 0.068612 0 0.282815 0.0718448 0 0.294277 0.0750621 0 0.305684 0.0782641 0 0.317037 0.0814509 0 0.328336 0.0846225 0 0.339581 0.0877792 0 0.350773 0.0909209 0 0.361913 0.0940478 0 0.373 0.09716 0 0.200476 0.0496704 0 0.212257 0.0532513 0 0.223998 0.0568197 0 0.235698 0.0603758 0 0.247358 0.0639195 0 0.258977 0.0674511 0 0.270556 0.0709704 0 0.282096 0.0744776 0 0.293595 0.0779728 0 0.305056 0.081456 0 0.316477 0.0849272 0 0.327859 0.0883866 0 0.339202 0.0918342 0 0.350506 0.09527 0 0.361772 0.0986942 0 0.373 0.102107 0 0.199872 0.0504132 0 0.211564 0.0542382 0 0.223234 0.0580561 0 0.234882 0.0618669 0 0.246509 0.0656707 0 0.258114 0.0694675 0 0.269698 0.0732572 0 0.28126 0.07704 0 0.292802 0.0808158 0 0.304322 0.0845847 0 0.315821 0.0883467 0 0.327299 0.0921018 0 0.338755 0.0958499 0 0.350191 0.0995912 0 0.361606 0.103326 0 0.373 0.107053 0 0.199215 0.0511099 0 0.210801 0.0551692 0 0.222387 0.0592286 0 0.233972 0.0632879 0 0.245558 0.0673472 0 0.257143 0.0714066 0 0.268729 0.0754659 0 0.280315 0.0795253 0 0.2919 0.0835846 0 0.303486 0.0876439 0 0.315072 0.0917033 0 0.326657 0.0957626 0 0.338243 0.099822 0 0.349829 0.103881 0 0.361414 0.107941 0 0.373 0.112 0 
</DataArray>
</Points> 
</Piece> 
</StructuredGrid> 
</VTKFile> 
