<?xml version="1.0"?> 
<VTKFile type="StructuredGrid" version="0.1"> 
<StructuredGrid WholeExtent="0 15 0 15 0 0"> 
<Piece Extent="0 15 0 15 0 0"> 
<PointData>
<DataArray type="Float32" Name="|E|" format="ascii" NumberOfComponents="3"> 
-2.07691e+06 47783.5 0 -2.09821e+06 83032.8 0 -2.1299e+06 117564 0 -2.17246e+06 151801 0 -2.22651e+06 186190 0 -2.29288e+06 221210 0 -2.3727e+06 257313 0 -2.46748e+06 294981 0 -2.57921e+06 334359 0 -2.71071e+06 375083 0 -2.86587e+06 415008 0 -3.0492e+06 448445 0 -3.26587e+06 458134 0 -3.50998e+06 413528 0 -3.73122e+06 258052 0 -3.81594e+06 -3.57628e-07 0 -2.07619e+06 54183.8 0 -2.09852e+06 89950.4 0 -2.13105e+06 125203 0 -2.17424e+06 160377 0 -2.22873e+06 195932 0 -2.29532e+06 232372 0 -2.37515e+06 270193 0 -2.46969e+06 309908 0 -2.58099e+06 351768 0 -2.71194e+06 395480 0 -2.86674e+06 439135 0 -3.05073e+06 477015 0 -3.27102e+06 492217 0 -3.52539e+06 450794 0 -3.76587e+06 287512 0 -3.86162e+06 1.77999e-07 0 -2.07562e+06 60805 0 -2.09893e+06 97099.4 0 -2.13225e+06 133083 0 -2.17604e+06 169198 0 -2.23091e+06 205923 0 -2.29768e+06 243786 0 -2.37746e+06 283321 0 -2.4717e+06 325089 0 -2.58251e+06 369431 0 -2.71283e+06 416176 0 -2.86719e+06 463626 0 -3.05173e+06 506284 0 -3.27566e+06 527579 0 -3.54118e+06 490854 0 -3.80395e+06 320610 0 -3.91394e+06 -1.47149e-07 0 -2.07519e+06 67648.4 0 -2.09943e+06 104481 0 -2.13351e+06 141203 0 -2.17785e+06 178266 0 -2.23306e+06 216163 0 -2.29996e+06 255451 0 -2.37962e+06 296699 0 -2.47351e+06 340522 0 -2.58375e+06 387351 0 -2.71335e+06 437167 0 -2.86716e+06 488495 0 -3.05213e+06 536255 0 -3.27966e+06 564320 0 -3.55708e+06 534009 0 -3.84575e+06 358166 0 -3.974e+06 2.15136e-07 0 -2.0749e+06 74715.3 0 -2.10004e+06 112097 0 -2.13481e+06 149565 0 -2.17966e+06 187580 0 -2.23517e+06 226653 0 -2.30214e+06 267368 0 -2.38164e+06 310326 0 -2.47511e+06 356206 0 -2.5847e+06 405528 0 -2.7135e+06 458449 0 -2.86664e+06 513748 0 -3.05185e+06 566929 0 -3.28285e+06 602528 0 -3.57279e+06 580577 0 -3.89152e+06 401222 0 -4.04325e+06 -3.50177e-07 0 -2.07475e+06 82007 0 -2.10074e+06 119948 0 -2.13617e+06 158169 0 -2.18148e+06 197142 0 -2.23724e+06 237394 0 -2.30423e+06 279537 0 -2.3835e+06 324202 0 -2.47649e+06 372139 0 -2.58536e+06 423961 0 -2.71324e+06 480018 0 -2.86558e+06 539389 0 -3.05081e+06 598300 0 -3.28504e+06 642277 0 -3.58786e+06 630869 0 -3.94149e+06 451100 0 -4.12366e+06 3.46452e-07 0 -2.07473e+06 89524.7 0 -2.10153e+06 128035 0 -2.13758e+06 167018 0 -2.18331e+06 206954 0 -2.23926e+06 248386 0 -2.30623e+06 291957 0 -2.38521e+06 338327 0 -2.47764e+06 388321 0 -2.58571e+06 442649 0 -2.71256e+06 501871 0 -2.86395e+06 565416 0 -3.0489e+06 630352 0 -3.28601e+06 683629 0 -3.60174e+06 685167 0 -3.99583e+06 509491 0 -4.21794e+06 -1.3411e-07 0 -2.07485e+06 97269.9 0 -2.10241e+06 136359 0 -2.13903e+06 176111 0 -2.18513e+06 217014 0 -2.24123e+06 259630 0 -2.30812e+06 304629 0 -2.38675e+06 352699 0 -2.47857e+06 404750 0 -2.58574e+06 461588 0 -2.71145e+06 524000 0 -2.8617e+06 591825 0 -3.04605e+06 663052 0 -3.28553e+06 726628 0 -3.6137e+06 743680 0 -4.05453e+06 578566 0 -4.32992e+06 -1.19209e-07 0 -2.0751e+06 105244 0 -2.10338e+06 144923 0 -2.14053e+06 185450 0 -2.18695e+06 227325 0 -2.24314e+06 271126 0 -2.3099e+06 317553 0 -2.38811e+06 367317 0 -2.47926e+06 421424 0 -2.58543e+06 480775 0 -2.70989e+06 546399 0 -2.85879e+06 618606 0 -3.04213e+06 696354 0 -3.28336e+06 771306 0 -3.62282e+06 806494 0 -4.11731e+06 661109 0 -4.46516e+06 1.3411e-07 0 -2.07547e+06 113448 0 -2.10443e+06 153727 0 -2.14207e+06 195036 0 -2.18876e+06 237887 0 -2.245e+06 282876 0 -2.31158e+06 330728 0 -2.3893e+06 382180 0 -2.4797e+06 438343 0 -2.58477e+06 500206 0 -2.70785e+06 569060 0 -2.85517e+06 645743 0 -3.03704e+06 730195 0 -3.27925e+06 817666 0 -3.62792e+06 873502 0 -4.18334e+06 760660 0 -4.63217e+06 -2.16067e-07 0 -2.07598e+06 121884 0 -2.10557e+06 162773 0 -2.14364e+06 204870 0 -2.19056e+06 248701 0 -2.24679e+06 294879 0 -2.31314e+06 344153 0 -2.3903e+06 397287 0 -2.4799e+06 455505 0 -2.58374e+06 519869 0 -2.70531e+06 591980 0 -2.85081e+06 673202 0 -3.03065e+06 764511 0 -3.27298e+06 865661 0 -3.62755e+06 944348 0 -4.2508e+06 881607 0 -4.84439e+06 3.05474e-07 0 -2.07661e+06 130553 0 -2.10678e+06 172062 0 -2.14525e+06 214953 0 -2.19234e+06 259769 0 -2.24852e+06 307136 0 -2.31458e+06 357829 0 -2.3911e+06 412634 0 -2.47984e+06 472910 0 -2.58233e+06 539750 0 -2.70226e+06 615168 0 -2.84567e+06 700907 0 -3.02282e+06 799279 0 -3.26439e+06 915105 0 -3.62001e+06 1.01844e+06 0 -4.31602e+06 1.02911e+06 0 -5.12418e+06 -2.23517e-07 0 -2.07736e+06 139454 0 -2.10807e+06 181597 0 -2.14688e+06 225285 0 -2.1941e+06 271089 0 -2.25018e+06 319649 0 -2.3159e+06 371753 0 -2.3917e+06 428219 0 -2.47952e+06 490564 0 -2.58052e+06 559813 0 -2.69865e+06 638674 0 -2.83973e+06 728684 0 -3.01336e+06 834642 0 -3.25339e+06 965452 0 -3.60345e+06 1.09517e+06 0 -4.37192e+06 1.20852e+06 0 -5.51037e+06 1.49012e-07 0 -2.07822e+06 148588 0 -2.10944e+06 191377 0 -2.14855e+06 235868 0 -2.19584e+06 282665 0 -2.25176e+06 332416 0 -2.31708e+06 385925 0 -2.39209e+06 444033 0 -2.47891e+06 508483 0 -2.57832e+06 579988 0 -2.69444e+06 662645 0 -2.83304e+06 756116 0 -3.002e+06 871204 0 -3.24004e+06 1.01521e+06 0 -3.57623e+06 1.17484e+06 0 -4.40477e+06 1.42353e+06 0 -6.07352e+06 -1.93715e-07 0 -2.0792e+06 157952 0 -2.11088e+06 201405 0 -2.15024e+06 246703 0 -2.19755e+06 294497 0 -2.25327e+06 345440 0 -2.31811e+06 400346 0 -2.39228e+06 460063 0 -2.478e+06 526708 0 -2.57575e+06 600117 0 -2.68949e+06 687453 0 -2.82575e+06 782222 0 -2.98831e+06 910753 0 -3.22457e+06 1.06051e+06 0 -3.53793e+06 1.26106e+06 0 -4.38802e+06 1.67131e+06 0 -6.94675e+06 1.49012e-07 0 -2.08029e+06 167548 0 -2.11239e+06 211679 0 -2.15195e+06 257791 0 -2.19922e+06 306584 0 -2.25471e+06 358719 0 -2.31899e+06 415016 0 -2.39227e+06 476284 0 -2.47672e+06 545332 0 -2.57291e+06 619871 0 -2.68354e+06 713960 0 -2.8183e+06 804784 0 -2.97152e+06 957798 0 -3.20726e+06 1.09195e+06 0 -3.49153e+06 1.36677e+06 0 -4.26943e+06 1.93112e+06 0 -8.39028e+06 -3.57628e-07 0 </DataArray> 
</PointData> 
<Points> 
<DataArray type="Float32" NumberOfComponents="3"> 
0.006 0.016 0 0.0106 0.0156 0 0.0152 0.0152 0 0.0198 0.0148 0 0.0244 0.0144 0 0.029 0.014 0 0.0336 0.0136 0 0.0382 0.0132 0 0.0428 0.0128 0 0.0474 0.0124 0 0.052 0.012 0 0.0566 0.0116 0 0.0612 0.0112 0 0.0658 0.0108 0 0.0704 0.0104 0 0.075 0.01 0 0.00666667 0.0163333 0 0.0112222 0.01596 0 0.0157778 0.0155867 0 0.0203333 0.0152133 0 0.0248889 0.01484 0 0.0294444 0.0144667 0 0.034 0.0140933 0 0.0385556 0.01372 0 0.0431111 0.0133467 0 0.0476667 0.0129733 0 0.0522222 0.0126 0 0.0567778 0.0122267 0 0.0613333 0.0118533 0 0.0658889 0.01148 0 0.0704444 0.0111067 0 0.075 0.0107333 0 0.00733333 0.0166667 0 0.0118444 0.01632 0 0.0163556 0.0159733 0 0.0208667 0.0156267 0 0.0253778 0.01528 0 0.0298889 0.0149333 0 0.0344 0.0145867 0 0.0389111 0.01424 0 0.0434222 0.0138933 0 0.0479333 0.0135467 0 0.0524444 0.0132 0 0.0569556 0.0128533 0 0.0614667 0.0125067 0 0.0659778 0.01216 0 0.0704889 0.0118133 0 0.075 0.0114667 0 0.008 0.017 0 0.0124667 0.01668 0 0.0169333 0.01636 0 0.0214 0.01604 0 0.0258667 0.01572 0 0.0303333 0.0154 0 0.0348 0.01508 0 0.0392667 0.01476 0 0.0437333 0.01444 0 0.0482 0.01412 0 0.0526667 0.0138 0 0.0571333 0.01348 0 0.0616 0.01316 0 0.0660667 0.01284 0 0.0705333 0.01252 0 0.075 0.0122 0 0.00866667 0.0173333 0 0.0130889 0.01704 0 0.0175111 0.0167467 0 0.0219333 0.0164533 0 0.0263556 0.01616 0 0.0307778 0.0158667 0 0.0352 0.0155733 0 0.0396222 0.01528 0 0.0440444 0.0149867 0 0.0484667 0.0146933 0 0.0528889 0.0144 0 0.0573111 0.0141067 0 0.0617333 0.0138133 0 0.0661556 0.01352 0 0.0705778 0.0132267 0 0.075 0.0129333 0 0.00933333 0.0176667 0 0.0137111 0.0174 0 0.0180889 0.0171333 0 0.0224667 0.0168667 0 0.0268444 0.0166 0 0.0312222 0.0163333 0 0.0356 0.0160667 0 0.0399778 0.0158 0 0.0443556 0.0155333 0 0.0487333 0.0152667 0 0.0531111 0.015 0 0.0574889 0.0147333 0 0.0618667 0.0144667 0 0.0662444 0.0142 0 0.0706222 0.0139333 0 0.075 0.0136667 0 0.01 0.018 0 0.0143333 0.01776 0 0.0186667 0.01752 0 0.023 0.01728 0 0.0273333 0.01704 0 0.0316667 0.0168 0 0.036 0.01656 0 0.0403333 0.01632 0 0.0446667 0.01608 0 0.049 0.01584 0 0.0533333 0.0156 0 0.0576667 0.01536 0 0.062 0.01512 0 0.0663333 0.01488 0 0.0706667 0.01464 0 0.075 0.0144 0 0.0106667 0.0183333 0 0.0149556 0.01812 0 0.0192444 0.0179067 0 0.0235333 0.0176933 0 0.0278222 0.01748 0 0.0321111 0.0172667 0 0.0364 0.0170533 0 0.0406889 0.01684 0 0.0449778 0.0166267 0 0.0492667 0.0164133 0 0.0535556 0.0162 0 0.0578444 0.0159867 0 0.0621333 0.0157733 0 0.0664222 0.01556 0 0.0707111 0.0153467 0 0.075 0.0151333 0 0.0113333 0.0186667 0 0.0155778 0.01848 0 0.0198222 0.0182933 0 0.0240667 0.0181067 0 0.0283111 0.01792 0 0.0325556 0.0177333 0 0.0368 0.0175467 0 0.0410444 0.01736 0 0.0452889 0.0171733 0 0.0495333 0.0169867 0 0.0537778 0.0168 0 0.0580222 0.0166133 0 0.0622667 0.0164267 0 0.0665111 0.01624 0 0.0707556 0.0160533 0 0.075 0.0158667 0 0.012 0.019 0 0.0162 0.01884 0 0.0204 0.01868 0 0.0246 0.01852 0 0.0288 0.01836 0 0.033 0.0182 0 0.0372 0.01804 0 0.0414 0.01788 0 0.0456 0.01772 0 0.0498 0.01756 0 0.054 0.0174 0 0.0582 0.01724 0 0.0624 0.01708 0 0.0666 0.01692 0 0.0708 0.01676 0 0.075 0.0166 0 0.0126667 0.0193333 0 0.0168222 0.0192 0 0.0209778 0.0190667 0 0.0251333 0.0189333 0 0.0292889 0.0188 0 0.0334444 0.0186667 0 0.0376 0.0185333 0 0.0417556 0.0184 0 0.0459111 0.0182667 0 0.0500667 0.0181333 0 0.0542222 0.018 0 0.0583778 0.0178667 0 0.0625333 0.0177333 0 0.0666889 0.0176 0 0.0708444 0.0174667 0 0.075 0.0173333 0 0.0133333 0.0196667 0 0.0174444 0.01956 0 0.0215556 0.0194533 0 0.0256667 0.0193467 0 0.0297778 0.01924 0 0.0338889 0.0191333 0 0.038 0.0190267 0 0.0421111 0.01892 0 0.0462222 0.0188133 0 0.0503333 0.0187067 0 0.0544444 0.0186 0 0.0585556 0.0184933 0 0.0626667 0.0183867 0 0.0667778 0.01828 0 0.0708889 0.0181733 0 0.075 0.0180667 0 0.014 0.02 0 0.0180667 0.01992 0 0.0221333 0.01984 0 0.0262 0.01976 0 0.0302667 0.01968 0 0.0343333 0.0196 0 0.0384 0.01952 0 0.0424667 0.01944 0 0.0465333 0.01936 0 0.0506 0.01928 0 0.0546667 0.0192 0 0.0587333 0.01912 0 0.0628 0.01904 0 0.0668667 0.01896 0 0.0709333 0.01888 0 0.075 0.0188 0 0.0146667 0.0203333 0 0.0186889 0.02028 0 0.0227111 0.0202267 0 0.0267333 0.0201733 0 0.0307556 0.02012 0 0.0347778 0.0200667 0 0.0388 0.0200133 0 0.0428222 0.01996 0 0.0468444 0.0199067 0 0.0508667 0.0198533 0 0.0548889 0.0198 0 0.0589111 0.0197467 0 0.0629333 0.0196933 0 0.0669556 0.01964 0 0.0709778 0.0195867 0 0.075 0.0195333 0 0.0153333 0.0206667 0 0.0193111 0.02064 0 0.0232889 0.0206133 0 0.0272667 0.0205867 0 0.0312444 0.02056 0 0.0352222 0.0205333 0 0.0392 0.0205067 0 0.0431778 0.02048 0 0.0471556 0.0204533 0 0.0511333 0.0204267 0 0.0551111 0.0204 0 0.0590889 0.0203733 0 0.0630667 0.0203467 0 0.0670444 0.02032 0 0.0710222 0.0202933 0 0.075 0.0202667 0 0.016 0.021 0 0.0199333 0.021 0 0.0238667 0.021 0 0.0278 0.021 0 0.0317333 0.021 0 0.0356667 0.021 0 0.0396 0.021 0 0.0435333 0.021 0 0.0474667 0.021 0 0.0514 0.021 0 0.0553333 0.021 0 0.0592667 0.021 0 0.0632 0.021 0 0.0671333 0.021 0 0.0710667 0.021 0 0.075 0.021 0 
</DataArray>
</Points> 
</Piece> 
</StructuredGrid> 
</VTKFile> 
