<?xml version="1.0"?> 
<VTKFile type="StructuredGrid" version="0.1"> 
<StructuredGrid WholeExtent="0 15 0 15 0 0"> 
<Piece Extent="0 15 0 15 0 0"> 
<PointData>
<DataArray type="Float32" Name="|E|" format="ascii" NumberOfComponents="3"> 
-148365 4.11125e+06 0 154295 4.64016e+06 0 499615 4.96804e+06 0 859610 5.16855e+06 0 1.21851e+06 5.2765e+06 0 1.5664e+06 5.31299e+06 0 1.89722e+06 5.29372e+06 0 2.2079e+06 5.23171e+06 0 2.49778e+06 5.13818e+06 0 2.76809e+06 5.02289e+06 0 3.02155e+06 4.89421e+06 0 3.26199e+06 4.75909e+06 0 3.49396e+06 4.62319e+06 0 3.72251e+06 4.49084e+06 0 3.9529e+06 4.36518e+06 0 4.19049e+06 4.24827e+06 0 1.0606e+06 4.01802e+06 0 1.17691e+06 4.1625e+06 0 1.36525e+06 4.25581e+06 0 1.59113e+06 4.27414e+06 0 1.82144e+06 4.22124e+06 0 2.03588e+06 4.11132e+06 0 2.22449e+06 3.95965e+06 0 2.3836e+06 3.77932e+06 0 2.51276e+06 3.5807e+06 0 2.61303e+06 3.37196e+06 0 2.68606e+06 3.15974e+06 0 2.73385e+06 2.94963e+06 0 2.75856e+06 2.74645e+06 0 2.76253e+06 2.55433e+06 0 2.74817e+06 2.3767e+06 0 2.7179e+06 2.21635e+06 0 1.26897e+06 3.89598e+06 0 1.36737e+06 3.91942e+06 0 1.51654e+06 3.8948e+06 0 1.68328e+06 3.8088e+06 0 1.83966e+06 3.66707e+06 0 1.96869e+06 3.48446e+06 0 2.06305e+06 3.27731e+06 0 2.12187e+06 3.05999e+06 0 2.14812e+06 2.84403e+06 0 2.14698e+06 2.63795e+06 0 2.12479e+06 2.44733e+06 0 2.08813e+06 2.27492e+06 0 2.04318e+06 2.12092e+06 0 1.99516e+06 1.98342e+06 0 1.948e+06 1.85903e+06 0 1.90429e+06 1.74362e+06 0 1.26632e+06 3.79889e+06 0 1.35976e+06 3.74298e+06 0 1.48087e+06 3.64479e+06 0 1.60379e+06 3.49597e+06 0 1.70535e+06 3.30526e+06 0 1.77318e+06 3.08932e+06 0 1.80476e+06 2.86517e+06 0 1.80413e+06 2.64638e+06 0 1.77869e+06 2.4419e+06 0 1.73668e+06 2.25612e+06 0 1.68546e+06 2.08987e+06 0 1.63051e+06 1.94171e+06 0 1.57524e+06 1.80954e+06 0 1.52139e+06 1.69169e+06 0 1.46966e+06 1.58767e+06 0 1.42043e+06 1.49823e+06 0 1.19721e+06 3.71824e+06 0 1.28101e+06 3.60752e+06 0 1.37935e+06 3.45909e+06 0 1.46836e+06 3.26951e+06 0 1.52964e+06 3.05036e+06 0 1.55597e+06 2.81907e+06 0 1.54959e+06 2.59136e+06 0 1.51798e+06 2.37776e+06 0 1.46994e+06 2.18333e+06 0 1.413e+06 2.00907e+06 0 1.35255e+06 1.85392e+06 0 1.29202e+06 1.71625e+06 0 1.23367e+06 1.59452e+06 0 1.17916e+06 1.48707e+06 0 1.12978e+06 1.39158e+06 0 1.08624e+06 1.3046e+06 0 1.09676e+06 3.6507e+06 0 1.17373e+06 3.49937e+06 0 1.2535e+06 3.31436e+06 0 1.31637e+06 3.09646e+06 0 1.34864e+06 2.85913e+06 0 1.34769e+06 2.61933e+06 0 1.31905e+06 2.39044e+06 0 1.27146e+06 2.17993e+06 0 1.21321e+06 1.99032e+06 0 1.15058e+06 1.82134e+06 0 1.0879e+06 1.67148e+06 0 1.02806e+06 1.53871e+06 0 972830 1.42063e+06 0 922888 1.31476e+06 0 878001 1.21926e+06 0 837532 1.13375e+06 0 985454 3.59388e+06 0 1.05529e+06 3.41071e+06 0 1.11982e+06 3.19748e+06 0 1.16255e+06 2.95822e+06 0 1.1741e+06 2.70746e+06 0 1.15541e+06 2.46107e+06 0 1.11385e+06 2.23019e+06 0 1.05832e+06 2.02011e+06 0 996390 1.83199e+06 0 933490 1.66477e+06 0 873160 1.51635e+06 0 817304 1.38423e+06 0 766577 1.26616e+06 0 720999 1.1606e+06 0 680545 1.06645e+06 0 645295 982180 0 870036 3.54552e+06 0 933422 3.33654e+06 0 985253 3.10021e+06 0 1.01246e+06 2.84338e+06 0 1.00932e+06 2.58116e+06 0 979335 2.32827e+06 0 930857 2.09408e+06 0 872545 1.88243e+06 0 811214 1.69355e+06 0 751393 1.52575e+06 0 695596 1.37665e+06 0 644898 1.24396e+06 0 599659 1.12577e+06 0 559939 1.02031e+06 0 525452 925683 0 495513 840320 0 754680 3.50451e+06 0 811578 3.27347e+06 0 852684 3.01709e+06 0 867926 2.74459e+06 0 854599 2.4715e+06 0 818024 2.21159e+06 0 766943 1.97292e+06 0 709526 1.75831e+06 0 651696 1.56731e+06 0 596989 1.3979e+06 0 547135 1.24769e+06 0 502816 1.11439e+06 0 464116 995814 0 430658 889933 0 401874 795218 0 377381 710577 0 640927 3.46985e+06 0 691225 3.21916e+06 0 723124 2.94439e+06 0 729261 2.65697e+06 0 709344 2.37291e+06 0 669878 2.1053e+06 0 619563 1.86129e+06 0 565818 1.64295e+06 0 513565 1.44934e+06 0 465462 1.27825e+06 0 422663 1.12711e+06 0 385425 993345 0 353456 874599 0 326278 768912 0 303455 674569 0 284476 589804 0 529475 3.441e+06 0 572810 3.17193e+06 0 596730 2.8794e+06 0 596194 2.5771e+06 0 572756 2.28162e+06 0 533529 2.00573e+06 0 486760 1.75591e+06 0 438880 1.53367e+06 0 393787 1.33764e+06 0 353363 1.16528e+06 0 318218 1.01365e+06 0 288234 879929 0 262999 761599 0 242044 656417 0 224838 562362 0 210931 477822 0 420372 3.41754e+06 0 456262 3.1305e+06 0 473262 2.82012e+06 0 468270 2.50246e+06 0 444106 2.19502e+06 0 407914 1.91048e+06 0 367067 1.65483e+06 0 326817 1.42902e+06 0 290043 1.23117e+06 0 257913 1.0582e+06 0 230588 906773 0 207767 773713 0 189000 656166 0 173788 551598 0 161708 457878 0 152432 373120 0 313363 3.39921e+06 0 341233 3.09388e+06 0 352310 2.76496e+06 0 345023 2.43117e+06 0 322820 2.11124e+06 0 292246 1.81797e+06 0 259371 1.55691e+06 0 228125 1.32827e+06 0 200401 1.12945e+06 0 176771 956718 0 157123 806194 0 141087 674269 0 128224 557726 0 118143 453797 0 110530 360080 0 105131 274468 0 208006 3.38582e+06 0 227232 3.06125e+06 0 233415 2.71262e+06 0 226062 2.36173e+06 0 208505 2.02892e+06 0 185961 1.72723e+06 0 162790 1.46155e+06 0 141519 1.23111e+06 0 123174 1.03233e+06 0 107913 860677 0 95515.7 711662 0 85643.4 581198 0 77970.7 465727 0 72234 362165 0 68230 267831 0 65836.4 180393 0 103752 3.37726e+06 0 113691 3.03195e+06 0 116119 2.662e+06 0 111105 2.29293e+06 0 100928 1.9471e+06 0 88651 1.63769e+06 0 76566.1 1.36852e+06 0 65839.6 1.13748e+06 0 56839.1 939774 0 49530.9 769970 0 43735.1 622920 0 39249.9 494079 0 35906 379511 0 33573.9 275814 0 32173.8 180007 0 31661.2 89417.3 0 0 3.37343e+06 0 0 3.00537e+06 0 0 2.61211e+06 0 0 2.22376e+06 0 0 1.86513e+06 0 0 1.54909e+06 0 0 1.27785e+06 0 0 1.04749e+06 0 0 851840 0 0 684512 0 0 539728 0 0 412478 0 0 298463 0 0 193921 0 0 95493.2 0 0 63.4436 0 </DataArray> 
</PointData> 
<Points> 
<DataArray type="Float32" NumberOfComponents="3"> 
0.187215 0.0565579 0 0.187971 0.0565586 0 0.188752 0.0565061 0 0.189557 0.0563985 0 0.190379 0.056235 0 0.191215 0.0560151 0 0.19206 0.0557392 0 0.192908 0.0554082 0 0.193755 0.055024 0 0.194594 0.0545887 0 0.195421 0.0541056 0 0.196232 0.0535781 0 0.19702 0.0530103 0 0.197783 0.0524065 0 0.198515 0.0517714 0 0.199215 0.0511099 0 0.187267 0.060254 0 0.188805 0.0603026 0 0.190386 0.0602957 0 0.192 0.0602315 0 0.193641 0.0601085 0 0.195299 0.0599262 0 0.196965 0.0596847 0 0.19863 0.0593846 0 0.200283 0.0590273 0 0.201916 0.0586149 0 0.203519 0.0581501 0 0.205083 0.0576361 0 0.206601 0.0570767 0 0.208064 0.0564761 0 0.209466 0.0558387 0 0.210801 0.0551692 0 0.18732 0.0639502 0 0.189639 0.0640397 0 0.192013 0.0640723 0 0.194431 0.0640458 0 0.196883 0.0639588 0 0.199354 0.0638107 0 0.201833 0.063601 0 0.204307 0.0633304 0 0.206761 0.0629999 0 0.209184 0.0626113 0 0.211561 0.062167 0 0.213882 0.0616699 0 0.216135 0.0611235 0 0.218309 0.0605316 0 0.220396 0.0598985 0 0.222387 0.0592286 0 0.187372 0.0676463 0 0.190471 0.0677699 0 0.193635 0.0678357 0 0.196851 0.0678416 0 0.200105 0.0677863 0 0.203382 0.0676687 0 0.206666 0.0674885 0 0.209941 0.0672461 0 0.21319 0.0669422 0 0.216398 0.0665783 0 0.219549 0.0661567 0 0.222629 0.0656797 0 0.225623 0.0651507 0 0.228519 0.064573 0 0.231305 0.0639507 0 0.233972 0.0632879 0 0.187424 0.0713424 0 0.191301 0.0714932 0 0.195251 0.0715861 0 0.199259 0.0716192 0 0.203309 0.071591 0 0.207383 0.0715006 0 0.211463 0.0713475 0 0.215532 0.0711319 0 0.21957 0.0708543 0 0.223559 0.0705162 0 0.227483 0.0701192 0 0.231323 0.0696657 0 0.235065 0.0691584 0 0.238694 0.0686005 0 0.242195 0.0679955 0 0.245558 0.0673472 0 0.187477 0.0750386 0 0.19213 0.0752096 0 0.196862 0.0753235 0 0.201656 0.0753785 0 0.206494 0.0753732 0 0.211357 0.0753066 0 0.216226 0.0751783 0 0.22108 0.0749882 0 0.225901 0.0747368 0 0.230668 0.0744253 0 0.235363 0.0740551 0 0.239967 0.0736282 0 0.244462 0.0731469 0 0.248833 0.0726141 0 0.253065 0.0720328 0 0.257143 0.0714066 0 0.187529 0.0787347 0 0.192957 0.0789192 0 0.198467 0.0790481 0 0.20404 0.0791198 0 0.209659 0.0791331 0 0.215304 0.0790871 0 0.220953 0.0789811 0 0.226587 0.0788153 0 0.232184 0.07859 0 0.237725 0.0783059 0 0.24319 0.0779645 0 0.248559 0.0775672 0 0.253814 0.0771162 0 0.258937 0.0766138 0 0.263914 0.0760627 0 0.268729 0.0754659 0 0.187581 0.0824309 0 0.193782 0.0826219 0 0.200066 0.0827598 0 0.206414 0.0828432 0 0.212807 0.0828709 0 0.219224 0.0828421 0 0.225646 0.0827564 0 0.232052 0.0826136 0 0.23842 0.0824141 0 0.244731 0.0821584 0 0.250964 0.0818476 0 0.2571 0.0814831 0 0.26312 0.0810664 0 0.269007 0.0805997 0 0.274744 0.0800851 0 0.280315 0.0795253 0 0.187634 0.086127 0 0.194607 0.0863178 0 0.20166 0.0864588 0 0.208776 0.0865488 0 0.215935 0.0865868 0 0.223119 0.0865721 0 0.230305 0.0865044 0 0.237476 0.0863834 0 0.24461 0.0862095 0 0.251687 0.085983 0 0.258687 0.0857048 0 0.265592 0.085376 0 0.272383 0.0849978 0 0.279042 0.084572 0 0.285553 0.0841002 0 0.2919 0.0835846 0 0.187686 0.0898231 0 0.195429 0.0900069 0 0.203249 0.0901451 0 0.211127 0.0902367 0 0.219046 0.0902809 0 0.226987 0.0902773 0 0.234931 0.0902253 0 0.242859 0.090125 0 0.250752 0.0899765 0 0.258592 0.0897801 0 0.266358 0.0895363 0 0.274034 0.0892461 0 0.281601 0.0889105 0 0.289043 0.0885306 0 0.296343 0.0881079 0 0.303486 0.0876439 0 0.187738 0.0935193 0 0.19625 0.0936893 0 0.204832 0.0938188 0 0.213467 0.0939071 0 0.222138 0.0939535 0 0.23083 0.0939578 0 0.239524 0.0939196 0 0.248203 0.0938387 0 0.25685 0.0937154 0 0.265447 0.0935498 0 0.273978 0.0933424 0 0.282427 0.0930937 0 0.290775 0.0928045 0 0.299009 0.0924756 0 0.307113 0.0921082 0 0.315072 0.0917033 0 0.187791 0.0972154 0 0.19707 0.0973649 0 0.206409 0.0974799 0 0.215795 0.09756 0 0.225213 0.0976048 0 0.234647 0.097614 0 0.244083 0.0975874 0 0.253506 0.0975249 0 0.262902 0.0974266 0 0.272254 0.0972927 0 0.281548 0.0971233 0 0.290771 0.0969189 0 0.299906 0.09668 0 0.308941 0.0964072 0 0.317863 0.0961011 0 0.326657 0.0957626 0 0.187843 0.100912 0 0.197888 0.101034 0 0.207982 0.101128 0 0.218113 0.101196 0 0.228269 0.101235 0 0.238439 0.101246 0 0.24861 0.101229 0 0.258771 0.101184 0 0.268909 0.10111 0 0.279012 0.101009 0 0.289068 0.100879 0 0.299066 0.100722 0 0.308994 0.100537 0 0.31884 0.100325 0 0.328593 0.100087 0 0.338243 0.099822 0 0.187895 0.104608 0 0.198705 0.104696 0 0.209549 0.104765 0 0.220419 0.104814 0 0.231308 0.104844 0 0.242206 0.104854 0 0.253105 0.104845 0 0.263997 0.104816 0 0.274872 0.104767 0 0.285722 0.104699 0 0.296539 0.104611 0 0.307314 0.104503 0 0.318038 0.104376 0 0.328704 0.10423 0 0.339304 0.104065 0 0.349829 0.103881 0 0.187948 0.108304 0 0.19952 0.108351 0 0.21111 0.108388 0 0.222715 0.108416 0 0.234329 0.108432 0 0.245949 0.108439 0 0.257568 0.108435 0 0.269184 0.108421 0 0.280791 0.108397 0 0.292384 0.108362 0 0.30396 0.108317 0 0.315514 0.108262 0 0.32704 0.108197 0 0.338536 0.108122 0 0.349995 0.108036 0 0.361414 0.107941 0 0.188 0.112 0 0.200333 0.112 0 0.212667 0.112 0 0.225 0.112 0 0.237333 0.112 0 0.249667 0.112 0 0.262 0.112 0 0.274333 0.112 0 0.286667 0.112 0 0.299 0.112 0 0.311333 0.112 0 0.323667 0.112 0 0.336 0.112 0 0.348333 0.112 0 0.360667 0.112 0 0.373 0.112 0 
</DataArray>
</Points> 
</Piece> 
</StructuredGrid> 
</VTKFile> 
