<?xml version="1.0"?> 
<VTKFile type="StructuredGrid" version="0.1"> 
<StructuredGrid WholeExtent="0 15 0 15 0 0"> 
<Piece Extent="0 15 0 15 0 0"> 
<PointData>
<DataArray type="Float32" Name="|E|" format="ascii" NumberOfComponents="3"> 
1.24813e+06 -127360 0 1.60489e+06 -103932 0 1.75632e+06 -19977.6 0 1.73071e+06 33696.5 0 1.60177e+06 64232.4 0 1.43281e+06 70713.8 0 1.26035e+06 68638.8 0 1.10127e+06 61150 0 962262 52584.7 0 844914 43680.4 0 748796 35241.5 0 672648 27335.1 0 615102 19974.6 0 574931 13060 0 551212 6449.77 0 543372 0 0 1.25074e+06 -127627 0 1.60695e+06 -110161 0 1.75854e+06 -21649.4 0 1.73169e+06 36477.4 0 1.60187e+06 68360.2 0 1.43254e+06 75464.9 0 1.2599e+06 73088.9 0 1.10084e+06 65156.1 0 961848 56000.9 0 844559 46525.2 0 748490 37532.9 0 672389 29113 0 614878 21273.8 0 574734 13909.2 0 551029 6869.48 0 543194 0 0 1.25183e+06 -127738 0 1.60929e+06 -116435 0 1.76087e+06 -23267.8 0 1.73273e+06 39289 0 1.60201e+06 72509.8 0 1.43227e+06 80222.4 0 1.25945e+06 77541.7 0 1.10038e+06 69161.3 0 961418 59415.9 0 844189 49368.3 0 748170 39822.8 0 672118 30889.7 0 614642 22572.1 0 574524 14757.9 0 550835 7288.88 0 543005 0 0 1.2514e+06 -127694 0 1.6119e+06 -122738 0 1.76331e+06 -24843.6 0 1.73384e+06 42139.7 0 1.60217e+06 76678.4 0 1.432e+06 84988.7 0 1.25899e+06 81996.3 0 1.09991e+06 73166.1 0 960973 62829.4 0 843803 52209.8 0 747835 42111.4 0 671832 32665.2 0 614394 23869.6 0 574303 15605.9 0 550630 7708 0 542804 0 0 1.24941e+06 -127491 0 1.61481e+06 -129054 0 1.76586e+06 -26388.2 0 1.73501e+06 45038.5 0 1.60235e+06 80862.9 0 1.43172e+06 89766.2 0 1.25852e+06 86452 0 1.09942e+06 77171 0 960514 66241.2 0 843402 55049.9 0 747487 44398.4 0 671534 34439.6 0 614133 25166.2 0 574070 16453.4 0 550413 8126.82 0 542593 0 0 1.24583e+06 -127125 0 1.61801e+06 -135366 0 1.76852e+06 -27913.3 0 1.73625e+06 47994.5 0 1.60256e+06 85059.9 0 1.43144e+06 94557.4 0 1.25804e+06 90907.9 0 1.09892e+06 81176.5 0 960039 69651.2 0 842986 57888.4 0 747125 46683.9 0 671222 36212.7 0 613859 26461.9 0 573825 17300.3 0 550185 8545.35 0 542370 0 0 1.24059e+06 -126591 0 1.62152e+06 -141656 0 1.77129e+06 -29431.8 0 1.73756e+06 51017.7 0 1.6028e+06 89265.8 0 1.43116e+06 99365.2 0 1.25755e+06 95363 0 1.0984e+06 85183.2 0 959549 73059 0 842553 60725.6 0 746748 48967.8 0 670896 37984.6 0 613574 27756.6 0 573568 18146.6 0 549945 8963.59 0 542137 0 0 1.23365e+06 -125882 0 1.62534e+06 -147904 0 1.77418e+06 -30957.5 0 1.73893e+06 54118.6 0 1.60306e+06 93476.3 0 1.43088e+06 104192 0 1.25705e+06 99816.1 0 1.09787e+06 89191.8 0 959044 76464.6 0 842105 63561.4 0 746358 51250 0 670558 39755.3 0 613276 29050.4 0 573300 18992.2 0 549694 9381.54 0 541892 0 0 1.2249e+06 -124989 0 1.62951e+06 -154087 0 1.77717e+06 -32505.5 0 1.74037e+06 57308.7 0 1.60335e+06 97686.8 0 1.43058e+06 109042 0 1.25655e+06 104266 0 1.09732e+06 93202.9 0 958524 79867.4 0 841642 66396 0 745953 53530.5 0 670206 41524.7 0 612966 30343.3 0 573020 19837.1 0 549432 9799.2 0 541636 0 0 1.21425e+06 -123903 0 1.63404e+06 -160182 0 1.78026e+06 -34092.7 0 1.74186e+06 60600.6 0 1.60366e+06 101892 0 1.43029e+06 113919 0 1.25603e+06 108711 0 1.09675e+06 97217.3 0 957990 83267.3 0 841162 69229.4 0 745534 55809.2 0 669840 43292.8 0 612643 31635.2 0 572728 20681.4 0 549159 10216.6 0 541368 0 0 1.20158e+06 -122610 0 1.63895e+06 -166160 0 1.78347e+06 -35738 0 1.74342e+06 64007.9 0 1.604e+06 106086 0 1.42998e+06 118825 0 1.25551e+06 113151 0 1.09616e+06 101236 0 957441 86663.9 0 840667 72061.9 0 745102 58086.1 0 669461 45059.5 0 612308 32926.1 0 572424 21524.9 0 548874 10633.7 0 541090 0 0 1.18675e+06 -121097 0 1.64427e+06 -171990 0 1.78677e+06 -37462.4 0 1.74504e+06 67545.9 0 1.60437e+06 110263 0 1.42967e+06 123766 0 1.25498e+06 117582 0 1.09556e+06 105260 0 956878 90056.6 0 840155 74893.4 0 744656 60361.1 0 669069 46824.9 0 611961 34216 0 572109 22367.6 0 548578 11050.5 0 540800 0 0 1.1696e+06 -119347 0 1.65003e+06 -177637 0 1.79017e+06 -39289.9 0 1.74672e+06 71231.6 0 1.60476e+06 114413 0 1.42934e+06 128747 0 1.25444e+06 122002 0 1.09494e+06 109290 0 956301 93445.2 0 839627 77724.2 0 744196 62634 0 668663 48588.9 0 611602 35505 0 571782 23209.6 0 548271 11467.1 0 540500 0 0 1.14996e+06 -117343 0 1.65626e+06 -183059 0 1.79367e+06 -41247.6 0 1.74845e+06 75083.9 0 1.60518e+06 118529 0 1.42901e+06 133772 0 1.2539e+06 126410 0 1.09429e+06 113328 0 955710 96828.9 0 839082 80554.5 0 743723 64904.9 0 668243 50351.6 0 611230 36793 0 571443 24050.7 0 547952 11883.5 0 540188 0 0 1.12761e+06 -115062 0 1.663e+06 -188212 0 1.79725e+06 -43366.2 0 1.75024e+06 79124 0 1.60564e+06 122600 0 1.42866e+06 138849 0 1.25335e+06 130803 0 1.09363e+06 117375 0 955106 100207 0 838521 83384.5 0 743236 67173.5 0 667810 52112.7 0 610847 38080 0 571092 24890.9 0 547622 12299.6 0 539865 0 0 1.10233e+06 -112483 0 1.6703e+06 -193043 0 1.80093e+06 -45680.3 0 1.75208e+06 83375.6 0 1.60612e+06 126614 0 1.42829e+06 143985 0 1.25279e+06 135176 0 1.09295e+06 121432 0 954490 103579 0 837943 86214.3 0 742736 69439.8 0 667362 53872.5 0 610451 39365.9 0 570729 25730.2 0 547281 12715.5 0 539531 0 0 </DataArray> 
</PointData> 
<Points> 
<DataArray type="Float32" NumberOfComponents="3"> 
0.19 0.005 0 0.2022 0.005 0 0.2144 0.005 0 0.2266 0.005 0 0.2388 0.005 0 0.251 0.005 0 0.2632 0.005 0 0.2754 0.005 0 0.2876 0.005 0 0.2998 0.005 0 0.312 0.005 0 0.3242 0.005 0 0.3364 0.005 0 0.3486 0.005 0 0.3608 0.005 0 0.373 0.005 0 0.190033 0.00532667 0 0.202231 0.00532667 0 0.214429 0.00532667 0 0.226627 0.00532667 0 0.238824 0.00532667 0 0.251022 0.00532667 0 0.26322 0.00532667 0 0.275418 0.00532667 0 0.287616 0.00532667 0 0.299813 0.00532667 0 0.312011 0.00532667 0 0.324209 0.00532667 0 0.336407 0.00532667 0 0.348604 0.00532667 0 0.360802 0.00532667 0 0.373 0.00532667 0 0.190067 0.00565333 0 0.202262 0.00565333 0 0.214458 0.00565333 0 0.226653 0.00565333 0 0.238849 0.00565333 0 0.251044 0.00565333 0 0.26324 0.00565333 0 0.275436 0.00565333 0 0.287631 0.00565333 0 0.299827 0.00565333 0 0.312022 0.00565333 0 0.324218 0.00565333 0 0.336413 0.00565333 0 0.348609 0.00565333 0 0.360804 0.00565333 0 0.373 0.00565333 0 0.1901 0.00598 0 0.202293 0.00598 0 0.214487 0.00598 0 0.22668 0.00598 0 0.238873 0.00598 0 0.251067 0.00598 0 0.26326 0.00598 0 0.275453 0.00598 0 0.287647 0.00598 0 0.29984 0.00598 0 0.312033 0.00598 0 0.324227 0.00598 0 0.33642 0.00598 0 0.348613 0.00598 0 0.360807 0.00598 0 0.373 0.00598 0 0.190133 0.00630667 0 0.202324 0.00630667 0 0.214516 0.00630667 0 0.226707 0.00630667 0 0.238898 0.00630667 0 0.251089 0.00630667 0 0.26328 0.00630667 0 0.275471 0.00630667 0 0.287662 0.00630667 0 0.299853 0.00630667 0 0.312044 0.00630667 0 0.324236 0.00630667 0 0.336427 0.00630667 0 0.348618 0.00630667 0 0.360809 0.00630667 0 0.373 0.00630667 0 0.190167 0.00663333 0 0.202356 0.00663333 0 0.214544 0.00663333 0 0.226733 0.00663333 0 0.238922 0.00663333 0 0.251111 0.00663333 0 0.2633 0.00663333 0 0.275489 0.00663333 0 0.287678 0.00663333 0 0.299867 0.00663333 0 0.312056 0.00663333 0 0.324244 0.00663333 0 0.336433 0.00663333 0 0.348622 0.00663333 0 0.360811 0.00663333 0 0.373 0.00663333 0 0.1902 0.00696 0 0.202387 0.00696 0 0.214573 0.00696 0 0.22676 0.00696 0 0.238947 0.00696 0 0.251133 0.00696 0 0.26332 0.00696 0 0.275507 0.00696 0 0.287693 0.00696 0 0.29988 0.00696 0 0.312067 0.00696 0 0.324253 0.00696 0 0.33644 0.00696 0 0.348627 0.00696 0 0.360813 0.00696 0 0.373 0.00696 0 0.190233 0.00728667 0 0.202418 0.00728667 0 0.214602 0.00728667 0 0.226787 0.00728667 0 0.238971 0.00728667 0 0.251156 0.00728667 0 0.26334 0.00728667 0 0.275524 0.00728667 0 0.287709 0.00728667 0 0.299893 0.00728667 0 0.312078 0.00728667 0 0.324262 0.00728667 0 0.336447 0.00728667 0 0.348631 0.00728667 0 0.360816 0.00728667 0 0.373 0.00728667 0 0.190267 0.00761333 0 0.202449 0.00761333 0 0.214631 0.00761333 0 0.226813 0.00761333 0 0.238996 0.00761333 0 0.251178 0.00761333 0 0.26336 0.00761333 0 0.275542 0.00761333 0 0.287724 0.00761333 0 0.299907 0.00761333 0 0.312089 0.00761333 0 0.324271 0.00761333 0 0.336453 0.00761333 0 0.348636 0.00761333 0 0.360818 0.00761333 0 0.373 0.00761333 0 0.1903 0.00794 0 0.20248 0.00794 0 0.21466 0.00794 0 0.22684 0.00794 0 0.23902 0.00794 0 0.2512 0.00794 0 0.26338 0.00794 0 0.27556 0.00794 0 0.28774 0.00794 0 0.29992 0.00794 0 0.3121 0.00794 0 0.32428 0.00794 0 0.33646 0.00794 0 0.34864 0.00794 0 0.36082 0.00794 0 0.373 0.00794 0 0.190333 0.00826667 0 0.202511 0.00826667 0 0.214689 0.00826667 0 0.226867 0.00826667 0 0.239044 0.00826667 0 0.251222 0.00826667 0 0.2634 0.00826667 0 0.275578 0.00826667 0 0.287756 0.00826667 0 0.299933 0.00826667 0 0.312111 0.00826667 0 0.324289 0.00826667 0 0.336467 0.00826667 0 0.348644 0.00826667 0 0.360822 0.00826667 0 0.373 0.00826667 0 0.190367 0.00859333 0 0.202542 0.00859333 0 0.214718 0.00859333 0 0.226893 0.00859333 0 0.239069 0.00859333 0 0.251244 0.00859333 0 0.26342 0.00859333 0 0.275596 0.00859333 0 0.287771 0.00859333 0 0.299947 0.00859333 0 0.312122 0.00859333 0 0.324298 0.00859333 0 0.336473 0.00859333 0 0.348649 0.00859333 0 0.360824 0.00859333 0 0.373 0.00859333 0 0.1904 0.00892 0 0.202573 0.00892 0 0.214747 0.00892 0 0.22692 0.00892 0 0.239093 0.00892 0 0.251267 0.00892 0 0.26344 0.00892 0 0.275613 0.00892 0 0.287787 0.00892 0 0.29996 0.00892 0 0.312133 0.00892 0 0.324307 0.00892 0 0.33648 0.00892 0 0.348653 0.00892 0 0.360827 0.00892 0 0.373 0.00892 0 0.190433 0.00924667 0 0.202604 0.00924667 0 0.214776 0.00924667 0 0.226947 0.00924667 0 0.239118 0.00924667 0 0.251289 0.00924667 0 0.26346 0.00924667 0 0.275631 0.00924667 0 0.287802 0.00924667 0 0.299973 0.00924667 0 0.312144 0.00924667 0 0.324316 0.00924667 0 0.336487 0.00924667 0 0.348658 0.00924667 0 0.360829 0.00924667 0 0.373 0.00924667 0 0.190467 0.00957333 0 0.202636 0.00957333 0 0.214804 0.00957333 0 0.226973 0.00957333 0 0.239142 0.00957333 0 0.251311 0.00957333 0 0.26348 0.00957333 0 0.275649 0.00957333 0 0.287818 0.00957333 0 0.299987 0.00957333 0 0.312156 0.00957333 0 0.324324 0.00957333 0 0.336493 0.00957333 0 0.348662 0.00957333 0 0.360831 0.00957333 0 0.373 0.00957333 0 0.1905 0.0099 0 0.202667 0.0099 0 0.214833 0.0099 0 0.227 0.0099 0 0.239167 0.0099 0 0.251333 0.0099 0 0.2635 0.0099 0 0.275667 0.0099 0 0.287833 0.0099 0 0.3 0.0099 0 0.312167 0.0099 0 0.324333 0.0099 0 0.3365 0.0099 0 0.348667 0.0099 0 0.360833 0.0099 0 0.373 0.0099 0 
</DataArray>
</Points> 
</Piece> 
</StructuredGrid> 
</VTKFile> 
