<?xml version="1.0"?> 
<VTKFile type="StructuredGrid" version="0.1"> 
<StructuredGrid WholeExtent="0 15 0 15 0 0"> 
<Piece Extent="0 15 0 15 0 0"> 
<PointData>
<DataArray type="Float32" Name="|E|" format="ascii" NumberOfComponents="3"> 
-1.75672e+06 5.25002e+06 0 -1.56099e+06 5.04018e+06 0 -1.41933e+06 4.98782e+06 0 -1.29244e+06 4.98712e+06 0 -1.1698e+06 5.00994e+06 0 -1.04718e+06 5.04482e+06 0 -922320 5.08475e+06 0 -794097 5.12533e+06 0 -661973 5.16322e+06 0 -525851 5.19585e+06 0 -385948 5.22106e+06 0 -242743 5.23704e+06 0 -96929.2 5.24207e+06 0 50589.4 5.23447e+06 0 198670 5.21176e+06 0 345552 5.16686e+06 0 -1.75621e+06 4.78098e+06 0 -1.53357e+06 4.79031e+06 0 -1.36402e+06 4.80338e+06 0 -1.22077e+06 4.82792e+06 0 -1.09019e+06 4.86043e+06 0 -965517 4.89689e+06 0 -843160 4.93421e+06 0 -721145 4.96985e+06 0 -598408 5.00178e+06 0 -474470 5.02827e+06 0 -349259 5.04788e+06 0 -223034 5.05933e+06 0 -96353.6 5.06151e+06 0 29850.7 5.05339e+06 0 154026 5.0341e+06 0 273693 5.00369e+06 0 -1.60115e+06 4.5158e+06 0 -1.42089e+06 4.57569e+06 0 -1.26701e+06 4.6243e+06 0 -1.13035e+06 4.66874e+06 0 -1.00449e+06 4.71119e+06 0 -885136 4.75169e+06 0 -769546 4.78947e+06 0 -655983 4.82351e+06 0 -543414 4.85281e+06 0 -431290 4.87641e+06 0 -319427 4.89342e+06 0 -207931 4.90312e+06 0 -97172.7 4.90486e+06 0 12222.5 4.89822e+06 0 119388 4.88305e+06 0 223234 4.85972e+06 0 -1.4283e+06 4.3271e+06 0 -1.2846e+06 4.40347e+06 0 -1.15229e+06 4.46703e+06 0 -1.0299e+06 4.52224e+06 0 -914904 4.57138e+06 0 -805173 4.61541e+06 0 -699068 4.65452e+06 0 -595427 4.68853e+06 0 -493485 4.71706e+06 0 -392790 4.73966e+06 0 -293148 4.75591e+06 0 -194575 4.76541e+06 0 -97265.5 4.76789e+06 0 -1561.32 4.7632e+06 0 92095.5 4.75138e+06 0 183307 4.73271e+06 0 -1.26431e+06 4.18297e+06 0 -1.14585e+06 4.26331e+06 0 -1.03352e+06 4.33225e+06 0 -926700 4.39228e+06 0 -824582 4.44498e+06 0 -726252 4.49128e+06 0 -630886 4.53162e+06 0 -537822 4.56613e+06 0 -446581 4.59475e+06 0 -356854 4.61736e+06 0 -268487 4.63379e+06 0 -181456 4.64389e+06 0 -95850.2 4.64756e+06 0 -11835.6 4.64481e+06 0 70377.3 4.63573e+06 0 150547 4.62053e+06 0 -1.10999e+06 4.06791e+06 0 -1.0122e+06 4.14744e+06 0 -917080 4.21735e+06 0 -824984 4.27889e+06 0 -735781 4.33305e+06 0 -649170 4.38049e+06 0 -564806 4.42164e+06 0 -482367 4.45669e+06 0 -401594 4.48573e+06 0 -322308 4.50878e+06 0 -244408 4.52581e+06 0 -167866 4.53682e+06 0 -92716.6 4.5418e+06 0 -19037.7 4.54083e+06 0 53065.1 4.53403e+06 0 123494 4.52157e+06 0 -967546 3.97354e+06 0 -885884 4.05066e+06 0 -805523 4.11955e+06 0 -726772 4.1809e+06 0 -649761 4.23526e+06 0 -574475 4.28305e+06 0 -500823 4.32458e+06 0 -428688 4.36004e+06 0 -357960 4.38954e+06 0 -288553 4.41316e+06 0 -220414 4.43093e+06 0 -153528 4.4429e+06 0 -87907.1 4.44915e+06 0 -23589.7 4.44975e+06 0 39375.2 4.44485e+06 0 100928 4.43461e+06 0 -835258 3.89535e+06 0 -767218 3.96947e+06 0 -699614 4.03657e+06 0 -632822 4.09691e+06 0 -567053 4.15079e+06 0 -502409 4.19844e+06 0 -438924 4.24004e+06 0 -376593 4.27573e+06 0 -315393 4.30561e+06 0 -255300 4.32976e+06 0 -196300 4.34824e+06 0 -138389 4.36112e+06 0 -81576.6 4.36849e+06 0 -25882.7 4.37045e+06 0 28667.9 4.36714e+06 0 82050.7 4.3587e+06 0 -712153 3.83029e+06 0 -655667 3.90153e+06 0 -599250 3.96661e+06 0 -543199 4.02563e+06 0 -487729 4.07871e+06 0 -432979 4.12593e+06 0 -379037 4.16738e+06 0 -325949 4.20315e+06 0 -273742 4.2333e+06 0 -222427 4.25789e+06 0 -172014 4.27699e+06 0 -122511 4.29066e+06 0 -73928.3 4.299e+06 0 -26280 4.30209e+06 0 20421.8 4.30008e+06 0 66163.3 4.2931e+06 0 -596719 3.77659e+06 0 -550393 3.84517e+06 0 -503942 3.90831e+06 0 -457613 3.96596e+06 0 -411598 4.01811e+06 0 -366034 4.06477e+06 0 -321023 4.10595e+06 0 -276632 4.14169e+06 0 -232908 4.172e+06 0 -189881 4.19693e+06 0 -147574 4.21652e+06 0 -106002 4.23085e+06 0 -65177.8 4.23997e+06 0 -25113 4.244e+06 0 14185.2 4.24304e+06 0 52710.8 4.23724e+06 0 -487706 3.73295e+06 0 -450464 3.79926e+06 0 -413034 3.86065e+06 0 -375602 3.917e+06 0 -338325 3.96823e+06 0 -301324 4.01429e+06 0 -264694 4.05513e+06 0 -228505 4.09075e+06 0 -192807 4.12114e+06 0 -157638 4.1463e+06 0 -123024 4.16628e+06 0 -88984.4 4.18112e+06 0 -55533.6 4.19088e+06 0 -22681 4.19565e+06 0 9567.74 4.19553e+06 0 41209.6 4.19066e+06 0 -383893 3.69855e+06 0 -354953 3.76295e+06 0 -325819 3.82283e+06 0 -296630 3.87803e+06 0 -267507 3.92841e+06 0 -238547 3.97389e+06 0 -209829 4.01439e+06 0 -181415 4.04984e+06 0 -153352 4.08023e+06 0 -125676 4.10555e+06 0 -98410.9 4.12581e+06 0 -71577.3 4.14103e+06 0 -45188 4.15128e+06 0 -19251.8 4.15662e+06 0 6226.86 4.15716e+06 0 31246.3 4.153e+06 0 -284190 3.67281e+06 0 -262970 3.73566e+06 0 -241587 3.79429e+06 0 -220138 3.84851e+06 0 -198708 3.89816e+06 0 -177370 3.94311e+06 0 -156184 3.98326e+06 0 -135199 4.01854e+06 0 -114450 4.04889e+06 0 -93968.8 4.07428e+06 0 -73775.7 4.09472e+06 0 -53887.1 4.11022e+06 0 -34314.1 4.12082e+06 0 -15063.9 4.12659e+06 0 3859.88 4.12761e+06 0 22456.2 4.12398e+06 0 -187589 3.65535e+06 0 -173676 3.71699e+06 0 -159648 3.77463e+06 0 -145566 3.82805e+06 0 -131484 3.87708e+06 0 -117451 3.92158e+06 0 -103505 3.96142e+06 0 -89678.4 3.99651e+06 0 -75997.6 4.02679e+06 0 -62482.7 4.0522e+06 0 -49148.8 4.07274e+06 0 -36007.5 4.08842e+06 0 -23066.7 4.09926e+06 0 -10331.5 4.10531e+06 0 2195.57 4.10666e+06 0 14513.6 4.1034e+06 0 -93153.7 3.64593e+06 0 -86272.8 3.70669e+06 0 -79333.5 3.76357e+06 0 -72365.1 3.81639e+06 0 -65393.8 3.86493e+06 0 -58442.4 3.90906e+06 0 -51530.3 3.94863e+06 0 -44673.6 3.98354e+06 0 -37885.2 4.01371e+06 0 -31175.4 4.0391e+06 0 -24551.9 4.05967e+06 0 -18020.6 4.07543e+06 0 -11585.5 4.08639e+06 0 -5249.48 4.09261e+06 0 986.266 4.09415e+06 0 7121.26 4.0911e+06 0 0 3.64445e+06 0 0 3.70462e+06 0 0 3.761e+06 0 0 3.81337e+06 0 0 3.86156e+06 0 0 3.90539e+06 0 0 3.94473e+06 0 0 3.97947e+06 0 0 4.00953e+06 0 0 4.03484e+06 0 0 4.05538e+06 0 0 4.07113e+06 0 0 4.08213e+06 0 0 4.08839e+06 0 0 4.08999e+06 0 0 4.08701e+06 0 </DataArray> 
</PointData> 
<Points> 
<DataArray type="Float32" NumberOfComponents="3"> 
0.111653 0.0618409 0 0.11406 0.0626164 0 0.116455 0.0633281 0 0.118838 0.063976 0 0.121209 0.0645602 0 0.123568 0.0650806 0 0.125916 0.0655371 0 0.128251 0.0659299 0 0.130574 0.0662589 0 0.132886 0.0665241 0 0.135185 0.0667256 0 0.137473 0.0668632 0 0.139748 0.0669371 0 0.142012 0.0669471 0 0.144264 0.0668934 0 0.146503 0.0667759 0 0.111743 0.0651848 0 0.114138 0.0659086 0 0.116522 0.0665729 0 0.118895 0.0671776 0 0.121257 0.0677228 0 0.123608 0.0682085 0 0.125948 0.0686347 0 0.128276 0.0690013 0 0.130594 0.0693083 0 0.1329 0.0695559 0 0.135195 0.0697439 0 0.137479 0.0698723 0 0.139752 0.0699413 0 0.142013 0.0699507 0 0.144264 0.0699005 0 0.146503 0.0697909 0 0.111833 0.0685288 0 0.114216 0.0692009 0 0.11659 0.0698177 0 0.118953 0.0703792 0 0.121306 0.0708855 0 0.123648 0.0713365 0 0.12598 0.0717322 0 0.128302 0.0720726 0 0.130613 0.0723577 0 0.132914 0.0725876 0 0.135205 0.0727622 0 0.137485 0.0728815 0 0.139755 0.0729455 0 0.142015 0.0729542 0 0.144264 0.0729076 0 0.146503 0.0728058 0 0.111922 0.0718727 0 0.114295 0.0724931 0 0.116657 0.0730625 0 0.11901 0.0735808 0 0.121354 0.0740482 0 0.123688 0.0744644 0 0.126012 0.0748297 0 0.128327 0.0751439 0 0.130633 0.0754071 0 0.132929 0.0756193 0 0.135215 0.0757805 0 0.137491 0.0758906 0 0.139759 0.0759497 0 0.142016 0.0759577 0 0.144264 0.0759147 0 0.146503 0.0758208 0 0.112012 0.0752167 0 0.114373 0.0757854 0 0.116725 0.0763073 0 0.119068 0.0767824 0 0.121402 0.0772108 0 0.123728 0.0775924 0 0.126045 0.0779272 0 0.128353 0.0782153 0 0.130652 0.0784565 0 0.132943 0.078651 0 0.135225 0.0787988 0 0.137498 0.0788997 0 0.139762 0.0789539 0 0.142018 0.0789612 0 0.144264 0.0789219 0 0.146502 0.0788357 0 0.112102 0.0785606 0 0.114451 0.0790776 0 0.116792 0.0795521 0 0.119125 0.079984 0 0.121451 0.0803735 0 0.123768 0.0807204 0 0.126077 0.0810248 0 0.128378 0.0812866 0 0.130672 0.0815059 0 0.132957 0.0816828 0 0.135235 0.081817 0 0.137504 0.0819088 0 0.139765 0.0819581 0 0.142019 0.0819648 0 0.144265 0.081929 0 0.146502 0.0818506 0 0.112192 0.0819045 0 0.114529 0.0823698 0 0.11686 0.0827969 0 0.119183 0.0831856 0 0.121499 0.0835361 0 0.123808 0.0838483 0 0.126109 0.0841223 0 0.128404 0.084358 0 0.130691 0.0845554 0 0.132971 0.0847145 0 0.135244 0.0848353 0 0.13751 0.0849179 0 0.139769 0.0849622 0 0.14202 0.0849683 0 0.144265 0.0849361 0 0.146502 0.0848656 0 0.112282 0.0852485 0 0.114608 0.0856621 0 0.116927 0.0860417 0 0.11924 0.0863872 0 0.121547 0.0866988 0 0.123848 0.0869763 0 0.126142 0.0872198 0 0.128429 0.0874293 0 0.130711 0.0876048 0 0.132986 0.0877462 0 0.135254 0.0878536 0 0.137517 0.087927 0 0.139772 0.0879664 0 0.142022 0.0879718 0 0.144265 0.0879432 0 0.146502 0.0878805 0 0.112371 0.0885924 0 0.114686 0.0889543 0 0.116995 0.0892865 0 0.119298 0.0895888 0 0.121595 0.0898614 0 0.123887 0.0901043 0 0.126174 0.0903173 0 0.128455 0.0905006 0 0.13073 0.0906542 0 0.133 0.0907779 0 0.135264 0.0908719 0 0.137523 0.0909362 0 0.139776 0.0909706 0 0.142023 0.0909753 0 0.144265 0.0909503 0 0.146502 0.0908954 0 0.112461 0.0919364 0 0.114764 0.0922466 0 0.117062 0.0925312 0 0.119355 0.0927904 0 0.121644 0.0930241 0 0.123927 0.0932322 0 0.126206 0.0934149 0 0.12848 0.093572 0 0.13075 0.0937036 0 0.133014 0.0938097 0 0.135274 0.0938902 0 0.137529 0.0939453 0 0.139779 0.0939748 0 0.142025 0.0939789 0 0.144265 0.0939574 0 0.146501 0.0939104 0 0.112551 0.0952803 0 0.114842 0.0955388 0 0.117129 0.095776 0 0.119413 0.095992 0 0.121692 0.0961867 0 0.123967 0.0963602 0 0.126239 0.0965124 0 0.128506 0.0966433 0 0.130769 0.096753 0 0.133029 0.0968414 0 0.135284 0.0969085 0 0.137535 0.0969544 0 0.139783 0.096979 0 0.142026 0.0969824 0 0.144266 0.0969645 0 0.146501 0.0969253 0 0.112641 0.0986242 0 0.11492 0.098831 0 0.117197 0.0990208 0 0.11947 0.0991936 0 0.12174 0.0993494 0 0.124007 0.0994881 0 0.126271 0.0996099 0 0.128531 0.0997146 0 0.130789 0.0998024 0 0.133043 0.0998731 0 0.135294 0.0999268 0 0.137542 0.0999635 0 0.139786 0.0999832 0 0.142028 0.0999859 0 0.144266 0.0999716 0 0.146501 0.0999403 0 0.112731 0.101968 0 0.114999 0.102123 0 0.117264 0.102266 0 0.119528 0.102395 0 0.121788 0.102512 0 0.124047 0.102616 0 0.126303 0.102707 0 0.128557 0.102786 0 0.130808 0.102852 0 0.133057 0.102905 0 0.135304 0.102945 0 0.137548 0.102973 0 0.13979 0.102987 0 0.142029 0.102989 0 0.144266 0.102979 0 0.146501 0.102955 0 0.11282 0.105312 0 0.115077 0.105416 0 0.117332 0.10551 0 0.119585 0.105597 0 0.121837 0.105675 0 0.124087 0.105744 0 0.126335 0.105805 0 0.128582 0.105857 0 0.130828 0.105901 0 0.133071 0.105937 0 0.135314 0.105963 0 0.137554 0.105982 0 0.139793 0.105992 0 0.14203 0.105993 0 0.144266 0.105986 0 0.1465 0.10597 0 0.11291 0.108656 0 0.115155 0.108708 0 0.117399 0.108755 0 0.119643 0.108798 0 0.121885 0.108837 0 0.124127 0.108872 0 0.126368 0.108902 0 0.128608 0.108929 0 0.130847 0.108951 0 0.133086 0.108968 0 0.135323 0.108982 0 0.13756 0.108991 0 0.139797 0.108996 0 0.142032 0.108996 0 0.144266 0.108993 0 0.1465 0.108985 0 0.113 0.112 0 0.115233 0.112 0 0.117467 0.112 0 0.1197 0.112 0 0.121933 0.112 0 0.124167 0.112 0 0.1264 0.112 0 0.128633 0.112 0 0.130867 0.112 0 0.1331 0.112 0 0.135333 0.112 0 0.137567 0.112 0 0.1398 0.112 0 0.142033 0.112 0 0.144267 0.112 0 0.1465 0.112 0 
</DataArray>
</Points> 
</Piece> 
</StructuredGrid> 
</VTKFile> 
