<?xml version="1.0"?> 
<VTKFile type="StructuredGrid" version="0.1"> 
<StructuredGrid WholeExtent="0 15 0 15 0 0"> 
<Piece Extent="0 15 0 15 0 0"> 
<PointData>
<DataArray type="Float32" Name="|E|" format="ascii" NumberOfComponents="3"> 
670.194 1.19209e-06 0 -35.6308 -157.494 0 -54.962 -97.262 0 -46.3574 -23.9898 0 -34.446 -20.4446 0 -21.9895 -3.80485 0 -14.9161 -3.72193 0 -9.17956 -0.305317 0 -6.01577 -0.346602 0 -3.70496 0.212393 0 -2.39108 0.181284 0 -1.49895 0.198002 0 -0.983317 0.162935 0 -0.665166 0.105524 0 -0.501939 0.065122 0 -0.44978 -1.19209e-07 0 412.692 -2.15136e-07 0 6.86927 -153.75 0 -44.1599 -82.1597 0 -41.8631 -35.0963 0 -31.1306 -18.7415 0 -21.501 -7.97604 0 -14.0559 -4.10346 0 -9.19656 -1.70879 0 -5.82289 -0.77741 0 -3.74876 -0.262764 0 -2.36382 -0.0593306 0 -1.52601 0.0314422 0 -0.990143 0.055762 0 -0.681242 0.0524902 0 -0.514702 0.0324006 0 -0.46087 6.04196e-08 0 270.805 1.20606e-07 0 27.8912 -135.427 0 -33.9083 -75.7465 0 -36.7114 -39.3964 0 -28.478 -19.825 0 -20.2912 -10.3465 0 -13.434 -5.18321 0 -8.90504 -2.71525 0 -5.68793 -1.34265 0 -3.68264 -0.675001 0 -2.34128 -0.313114 0 -1.51608 -0.134943 0 -0.991276 -0.0470604 0 -0.684179 -0.00691259 0 -0.520218 0.00470246 0 -0.468775 1.76951e-08 0 188.589 -1.85333e-07 0 37.0159 -114.366 0 -24.8662 -71.6798 0 -31.6597 -40.9503 0 -25.918 -21.5517 0 -18.8575 -12.0359 0 -12.7596 -6.39576 0 -8.49882 -3.5762 0 -5.50577 -1.92501 0 -3.56832 -1.06106 0 -2.292 -0.566107 0 -1.48579 -0.298099 0 -0.978893 -0.148685 0 -0.677317 -0.0666352 0 -0.517862 -0.0225243 0 -0.468954 -4.37722e-08 0 138.075 3.31551e-07 0 39.5929 -95.103 0 -17.3479 -67.8306 0 -26.9599 -41.3502 0 -23.3423 -23.1754 0 -17.3437 -13.4299 0 -11.9775 -7.55194 0 -8.02477 -4.36686 0 -5.25952 -2.48464 0 -3.41802 -1.42943 0 -2.21216 -0.811448 0 -1.43775 -0.456435 0 -0.952379 -0.248234 0 -0.66108 -0.125119 0 -0.507611 -0.0495293 0 -0.461384 1.2666e-07 0 105.017 -2.90573e-07 0 38.6308 -78.9442 0 -11.3952 -63.7467 0 -22.6927 -41.1949 0 -20.7741 -24.4959 0 -15.7886 -14.6427 0 -11.0966 -8.59962 0 -7.49182 -5.1018 0 -4.95392 -3.00858 0 -3.23319 -1.77907 0 -2.10386 -1.04529 0 -1.37215 -0.608259 0 -0.912499 -0.34426 0 -0.635548 -0.18159 0 -0.489675 -0.0758578 0 -0.44647 -2.03028e-07 0 82.0044 7.07805e-08 0 35.8169 -65.923 0 -6.88366 -59.528 0 -18.8795 -40.7253 0 -18.2581 -25.5016 0 -14.2062 -15.702 0 -10.1373 -9.53019 0 -6.90288 -5.7786 0 -4.5967 -3.4919 0 -3.01456 -2.10655 0 -1.96977 -1.2649 0 -1.28937 -0.751764 0 -0.860137 -0.435392 0 -0.600983 -0.235334 0 -0.464373 -0.101043 0 -0.424549 2.75671e-07 0 65.0499 7.45058e-08 0 32.0952 -55.6429 0 -3.61337 -55.3944 0 -15.5146 -40.063 0 -15.8296 -26.2366 0 -12.6068 -16.6147 0 -9.11802 -10.3466 0 -6.26204 -6.39204 0 -4.19473 -3.93174 0 -2.76396 -2.40829 0 -1.81232 -1.46792 0 -1.19029 -0.885184 0 -0.796173 -0.520397 0 -0.557849 -0.285631 0 -0.43211 -0.124682 0 -0.395988 -2.16067e-07 0 51.9278 -1.11759e-07 0 27.9862 -47.621 0 -1.365 -51.5396 0 -12.575 -39.292 0 -13.5095 -26.7551 0 -11.0005 -17.386 0 -8.05288 -11.0539 0 -5.57498 -6.9378 0 -3.75385 -4.32568 0 -2.48411 -2.68116 0 -1.63377 -1.65225 0 -1.07619 -1.00688 0 -0.721541 -0.598163 0 -0.50677 -0.331785 0 -0.393383 -0.146422 0 -0.361233 1.93715e-07 0 41.3341 2.23517e-07 0 23.7688 -41.4186 0 0.0691907 -48.0968 0 -10.0244 -38.4826 0 -11.3061 -27.1071 0 -9.39605 -18.024 0 -6.95288 -11.6567 0 -4.84816 -7.41308 0 -3.27932 -4.67154 0 -2.17825 -2.92252 0 -1.43643 -1.81598 0 -0.948577 -1.11539 0 -0.637276 -0.667686 0 -0.448491 -0.373154 0 -0.348779 -0.165944 0 -0.320825 -2.01166e-07 0 32.4647 -2.08616e-07 0 19.5828 -36.677 0 0.871969 -45.1441 0 -7.81725 -37.6963 0 -9.21763 -27.3354 0 -7.80023 -18.539 0 -5.82663 -12.1592 0 -4.08816 -7.81622 0 -2.77616 -4.96735 0 -1.84989 -3.1302 0 -1.22269 -1.95742 0 -0.809114 -1.20942 0 -0.544526 -0.728076 0 -0.383855 -0.409166 0 -0.298969 -0.182966 0 -0.275399 8.19564e-08 0 24.7936 1.49012e-07 0 15.4887 -33.1192 0 1.1978 -42.7201 0 -5.90107 -36.985 0 -7.23456 -27.4753 0 -6.21693 -18.9419 0 -4.68098 -12.5648 0 -3.30134 -8.1464 0 -2.24924 -5.21148 0 -1.50266 -3.30243 0 -0.995084 -2.07513 0 -0.659604 -1.28786 0 -0.44454 -0.778563 0 -0.313791 -0.439326 0 -0.244701 -0.197242 0 -0.225666 2.23517e-08 0 17.956 -1.04308e-07 0 11.5011 -30.54 0 1.17486 -40.8384 0 -4.21968 -36.3905 0 -5.34186 -27.555 0 -4.64735 -19.2431 0 -3.52144 -12.8766 0 -2.49367 -8.40325 0 -1.7034 -5.40263 0 -1.14029 -3.43781 0 -0.756251 -2.16791 0 -0.501939 -1.34983 0 -0.338658 -0.818506 0 -0.239297 -0.46322 0 -0.186787 -0.208565 0 -0.172407 0 0 11.6817 -1.19209e-07 0 7.60879 -28.7932 0 0.909481 -39.4997 0 -2.71495 -35.9441 0 -3.52029 -27.5966 0 -3.09028 -19.4515 0 -2.35245 -13.0974 0 -1.67074 -8.58668 0 -1.14343 -5.53982 0 -0.766531 -3.53527 0 -0.50892 -2.23485 0 -0.338091 -1.3946 0 -0.228291 -0.847402 0 -0.161429 -0.480523 0 -0.126091 -0.216772 0 -0.116455 -1.49012e-08 0 5.75706 3.27826e-07 0 3.78617 -27.7819 0 0.491534 -38.6996 0 -1.32803 -35.6678 0 -1.74768 -27.6153 0 -1.54263 -19.5738 0 -1.17761 -13.229 0 -0.837835 -8.6967 0 -0.574059 -5.6224 0 -0.385168 -3.59404 0 -0.25589 -2.27528 0 -0.170089 -1.42167 0 -0.114905 -0.864886 0 -0.0812866 -0.490999 0 -0.063518 -0.221744 0 -0.0586857 -5.96046e-08 0 4.47035e-07 -2.38419e-06 0 -2.70375e-08 -27.4509 0 -1.74623e-08 -38.4335 0 4.51691e-08 -35.5743 0 -3.44589e-08 -27.6205 0 1.72295e-08 -19.614 0 -8.3819e-09 -13.2727 0 7.45058e-09 -8.73337 0 -2.70084e-08 -5.64997 0 2.79397e-08 -3.61368 0 -1.30385e-08 -2.2888 0 1.49012e-08 -1.43072 0 -1.11759e-08 -0.870739 0 -7.45058e-09 -0.494508 0 -2.23517e-08 -0.223409 0 2.68221e-07 2.38419e-07 0 </DataArray> 
</PointData> 
<Points> 
<DataArray type="Float32" NumberOfComponents="3"> 
0.13 0.035 0 0.133667 0.0346667 0 0.137333 0.0343333 0 0.141 0.034 0 0.144667 0.0336667 0 0.148333 0.0333333 0 0.152 0.033 0 0.155667 0.0326667 0 0.159333 0.0323333 0 0.163 0.032 0 0.166667 0.0316667 0 0.170333 0.0313333 0 0.174 0.031 0 0.177667 0.0306667 0 0.181333 0.0303333 0 0.185 0.03 0 0.13 0.0356667 0 0.133667 0.0353556 0 0.137333 0.0350444 0 0.141 0.0347333 0 0.144667 0.0344222 0 0.148333 0.0341111 0 0.152 0.0338 0 0.155667 0.0334889 0 0.159333 0.0331778 0 0.163 0.0328667 0 0.166667 0.0325556 0 0.170333 0.0322444 0 0.174 0.0319333 0 0.177667 0.0316222 0 0.181333 0.0313111 0 0.185 0.031 0 0.13 0.0363333 0 0.133667 0.0360444 0 0.137333 0.0357556 0 0.141 0.0354667 0 0.144667 0.0351778 0 0.148333 0.0348889 0 0.152 0.0346 0 0.155667 0.0343111 0 0.159333 0.0340222 0 0.163 0.0337333 0 0.166667 0.0334444 0 0.170333 0.0331556 0 0.174 0.0328667 0 0.177667 0.0325778 0 0.181333 0.0322889 0 0.185 0.032 0 0.13 0.037 0 0.133667 0.0367333 0 0.137333 0.0364667 0 0.141 0.0362 0 0.144667 0.0359333 0 0.148333 0.0356667 0 0.152 0.0354 0 0.155667 0.0351333 0 0.159333 0.0348667 0 0.163 0.0346 0 0.166667 0.0343333 0 0.170333 0.0340667 0 0.174 0.0338 0 0.177667 0.0335333 0 0.181333 0.0332667 0 0.185 0.033 0 0.13 0.0376667 0 0.133667 0.0374222 0 0.137333 0.0371778 0 0.141 0.0369333 0 0.144667 0.0366889 0 0.148333 0.0364444 0 0.152 0.0362 0 0.155667 0.0359556 0 0.159333 0.0357111 0 0.163 0.0354667 0 0.166667 0.0352222 0 0.170333 0.0349778 0 0.174 0.0347333 0 0.177667 0.0344889 0 0.181333 0.0342444 0 0.185 0.034 0 0.13 0.0383333 0 0.133667 0.0381111 0 0.137333 0.0378889 0 0.141 0.0376667 0 0.144667 0.0374444 0 0.148333 0.0372222 0 0.152 0.037 0 0.155667 0.0367778 0 0.159333 0.0365556 0 0.163 0.0363333 0 0.166667 0.0361111 0 0.170333 0.0358889 0 0.174 0.0356667 0 0.177667 0.0354444 0 0.181333 0.0352222 0 0.185 0.035 0 0.13 0.039 0 0.133667 0.0388 0 0.137333 0.0386 0 0.141 0.0384 0 0.144667 0.0382 0 0.148333 0.038 0 0.152 0.0378 0 0.155667 0.0376 0 0.159333 0.0374 0 0.163 0.0372 0 0.166667 0.037 0 0.170333 0.0368 0 0.174 0.0366 0 0.177667 0.0364 0 0.181333 0.0362 0 0.185 0.036 0 0.13 0.0396667 0 0.133667 0.0394889 0 0.137333 0.0393111 0 0.141 0.0391333 0 0.144667 0.0389556 0 0.148333 0.0387778 0 0.152 0.0386 0 0.155667 0.0384222 0 0.159333 0.0382444 0 0.163 0.0380667 0 0.166667 0.0378889 0 0.170333 0.0377111 0 0.174 0.0375333 0 0.177667 0.0373556 0 0.181333 0.0371778 0 0.185 0.037 0 0.13 0.0403333 0 0.133667 0.0401778 0 0.137333 0.0400222 0 0.141 0.0398667 0 0.144667 0.0397111 0 0.148333 0.0395556 0 0.152 0.0394 0 0.155667 0.0392444 0 0.159333 0.0390889 0 0.163 0.0389333 0 0.166667 0.0387778 0 0.170333 0.0386222 0 0.174 0.0384667 0 0.177667 0.0383111 0 0.181333 0.0381556 0 0.185 0.038 0 0.13 0.041 0 0.133667 0.0408667 0 0.137333 0.0407333 0 0.141 0.0406 0 0.144667 0.0404667 0 0.148333 0.0403333 0 0.152 0.0402 0 0.155667 0.0400667 0 0.159333 0.0399333 0 0.163 0.0398 0 0.166667 0.0396667 0 0.170333 0.0395333 0 0.174 0.0394 0 0.177667 0.0392667 0 0.181333 0.0391333 0 0.185 0.039 0 0.13 0.0416667 0 0.133667 0.0415556 0 0.137333 0.0414444 0 0.141 0.0413333 0 0.144667 0.0412222 0 0.148333 0.0411111 0 0.152 0.041 0 0.155667 0.0408889 0 0.159333 0.0407778 0 0.163 0.0406667 0 0.166667 0.0405556 0 0.170333 0.0404444 0 0.174 0.0403333 0 0.177667 0.0402222 0 0.181333 0.0401111 0 0.185 0.04 0 0.13 0.0423333 0 0.133667 0.0422444 0 0.137333 0.0421556 0 0.141 0.0420667 0 0.144667 0.0419778 0 0.148333 0.0418889 0 0.152 0.0418 0 0.155667 0.0417111 0 0.159333 0.0416222 0 0.163 0.0415333 0 0.166667 0.0414444 0 0.170333 0.0413556 0 0.174 0.0412667 0 0.177667 0.0411778 0 0.181333 0.0410889 0 0.185 0.041 0 0.13 0.043 0 0.133667 0.0429333 0 0.137333 0.0428667 0 0.141 0.0428 0 0.144667 0.0427333 0 0.148333 0.0426667 0 0.152 0.0426 0 0.155667 0.0425333 0 0.159333 0.0424667 0 0.163 0.0424 0 0.166667 0.0423333 0 0.170333 0.0422667 0 0.174 0.0422 0 0.177667 0.0421333 0 0.181333 0.0420667 0 0.185 0.042 0 0.13 0.0436667 0 0.133667 0.0436222 0 0.137333 0.0435778 0 0.141 0.0435333 0 0.144667 0.0434889 0 0.148333 0.0434444 0 0.152 0.0434 0 0.155667 0.0433556 0 0.159333 0.0433111 0 0.163 0.0432667 0 0.166667 0.0432222 0 0.170333 0.0431778 0 0.174 0.0431333 0 0.177667 0.0430889 0 0.181333 0.0430444 0 0.185 0.043 0 0.13 0.0443333 0 0.133667 0.0443111 0 0.137333 0.0442889 0 0.141 0.0442667 0 0.144667 0.0442444 0 0.148333 0.0442222 0 0.152 0.0442 0 0.155667 0.0441778 0 0.159333 0.0441556 0 0.163 0.0441333 0 0.166667 0.0441111 0 0.170333 0.0440889 0 0.174 0.0440667 0 0.177667 0.0440444 0 0.181333 0.0440222 0 0.185 0.044 0 0.13 0.045 0 0.133667 0.045 0 0.137333 0.045 0 0.141 0.045 0 0.144667 0.045 0 0.148333 0.045 0 0.152 0.045 0 0.155667 0.045 0 0.159333 0.045 0 0.163 0.045 0 0.166667 0.045 0 0.170333 0.045 0 0.174 0.045 0 0.177667 0.045 0 0.181333 0.045 0 0.185 0.045 0 
</DataArray>
</Points> 
</Piece> 
</StructuredGrid> 
</VTKFile> 
