<?xml version="1.0"?> 
<VTKFile type="StructuredGrid" version="0.1"> 
<StructuredGrid WholeExtent="0 15 0 15 0 0"> 
<Piece Extent="0 15 0 15 0 0"> 
<PointData>
<DataArray type="Float32" Name="|E|" format="ascii" NumberOfComponents="3"> 
0 6.40561e+06 0 -2.21189e-09 1.61819e+06 0 -9.59262e-08 471912 0 2.27243e-07 322954 0 -3.5204e-07 273155 0 4.41447e-07 169508 0 -3.72529e-07 65757.9 0 4.20958e-07 5002.93 0 -2.5332e-07 -11934.6 0 1.04308e-07 -4016.83 0 8.9407e-08 4693.69 0 -4.47035e-08 1810.65 0 1.49012e-08 -2108.08 0 -2.98023e-08 81.0696 0 5.96046e-08 511.805 0 -1.19209e-06 2.86102e-06 0 -2.07042e+06 1.63359e+06 0 -2.0718e+06 1.50169e+06 0 -1.51112e+06 1.5164e+06 0 -944230 1.27866e+06 0 -539822 864913 0 -289233 460247 0 -142244 181323 0 -60902.3 44928.8 0 -22253.4 4556.6 0 -7080.91 2182.57 0 -931.723 2807.74 0 800.486 -126.064 0 -70.4796 -981.994 0 -222.569 213.441 0 105.464 61.5945 0 -135.492 -764.872 0 -2.37414e+06 1.36379e+06 0 -2.22208e+06 1.52992e+06 0 -2.26135e+06 1.34749e+06 0 -2.08121e+06 1.27825e+06 0 -1.69104e+06 1.18556e+06 0 -1.22118e+06 942122 0 -779590 588341 0 -425008 257867 0 -184414 54634.2 0 -58520.7 -11991.2 0 -14252.7 -6620.53 0 -3301.72 3654.13 0 275.877 583.594 0 252.733 -1181.94 0 -161.144 378.814 0 191.625 1026.47 0 -2.26978e+06 1.83183e+06 0 -2.35822e+06 1.63235e+06 0 -2.32098e+06 1.59912e+06 0 -2.34809e+06 1.43629e+06 0 -2.31941e+06 1.28062e+06 0 -2.12571e+06 1.14677e+06 0 -1.75653e+06 941311 0 -1.27392e+06 623139 0 -772632 275352 0 -358705 33779.8 0 -110367 -41917.5 0 -19516.3 -17999.1 0 -3643.3 3736.9 0 -492.873 -413.15 0 412.551 -86.7424 0 1244.21 6062.81 0 -2.3086e+06 1.85756e+06 0 -2.32426e+06 1.84155e+06 0 -2.37897e+06 1.75202e+06 0 -2.38319e+06 1.69657e+06 0 -2.40459e+06 1.56399e+06 0 -2.42579e+06 1.38517e+06 0 -2.35722e+06 1.20306e+06 0 -2.1164e+06 975465 0 -1.67918e+06 643532 0 -1.10283e+06 257798 0 -536932 -18753.3 0 -158850 -80826.4 0 -18500.4 -19940.9 0 -2195.21 6079 0 -1684.29 -6262.13 0 -14041 -60427.3 0 -2.21836e+06 2.02806e+06 0 -2.26575e+06 1.97885e+06 0 -2.31101e+06 1.92208e+06 0 -2.37264e+06 1.84472e+06 0 -2.40857e+06 1.78166e+06 0 -2.43912e+06 1.67195e+06 0 -2.47704e+06 1.50121e+06 0 -2.47393e+06 1.2983e+06 0 -2.33459e+06 1.043e+06 0 -1.96755e+06 669076 0 -1.3595e+06 213887 0 -668727 -101889 0 -177288 -114993 0 -5454.16 4740.78 0 -2094.67 3800.99 0 26358.4 98065.7 0 -2.16408e+06 2.07244e+06 0 -2.20374e+06 2.05327e+06 0 -2.24381e+06 2.03324e+06 0 -2.29088e+06 1.98726e+06 0 -2.35454e+06 1.91892e+06 0 -2.4109e+06 1.85174e+06 0 -2.45744e+06 1.75229e+06 0 -2.50612e+06 1.59211e+06 0 -2.53451e+06 1.38431e+06 0 -2.45846e+06 1.11064e+06 0 -2.14616e+06 681215 0 -1.51011e+06 128247 0 -710291 -214517 0 -144123 -119811 0 13699.4 48774.2 0 30063.1 95066.7 0 -2.09161e+06 2.11854e+06 0 -2.12987e+06 2.10995e+06 0 -2.17643e+06 2.08809e+06 0 -2.22227e+06 2.07058e+06 0 -2.27247e+06 2.03379e+06 0 -2.33693e+06 1.97426e+06 0 -2.40516e+06 1.90661e+06 0 -2.46789e+06 1.81004e+06 0 -2.5291e+06 1.65191e+06 0 -2.57424e+06 1.43798e+06 0 -2.5294e+06 1.14593e+06 0 -2.23303e+06 641096 0 -1.52997e+06 -23404.3 0 -626038 -326957 0 -59438.2 -59653.3 0 -56655.6 -149933 0 -2.02806e+06 2.12981e+06 0 -2.06467e+06 2.13148e+06 0 -2.10375e+06 2.12991e+06 0 -2.15181e+06 2.11463e+06 0 -2.20323e+06 2.09839e+06 0 -2.2588e+06 2.06665e+06 0 -2.32629e+06 2.01273e+06 0 -2.40271e+06 1.94521e+06 0 -2.47975e+06 1.84758e+06 0 -2.5558e+06 1.68163e+06 0 -2.61276e+06 1.45058e+06 0 -2.57591e+06 1.11872e+06 0 -2.23397e+06 494910 0 -1.38481e+06 -254823 0 -390419 -339233 0 -101511 -221111 0 -1.96615e+06 2.12572e+06 0 -2.00119e+06 2.13677e+06 0 -2.04067e+06 2.1424e+06 0 -2.08315e+06 2.14395e+06 0 -2.13354e+06 2.13414e+06 0 -2.19016e+06 2.11947e+06 0 -2.25248e+06 2.09037e+06 0 -2.32633e+06 2.03824e+06 0 -2.41134e+06 1.96823e+06 0 -2.5025e+06 1.86419e+06 0 -2.5951e+06 1.67869e+06 0 -2.6627e+06 1.4133e+06 0 -2.60911e+06 988079 0 -2.11628e+06 176192 0 -1.0136e+06 -509729 0 -90390.5 -158794 0 -1.90758e+06 2.10795e+06 0 -1.94197e+06 2.12668e+06 0 -1.97983e+06 2.14161e+06 0 -2.02245e+06 2.1514e+06 0 -2.06929e+06 2.15561e+06 0 -2.1238e+06 2.1494e+06 0 -2.18635e+06 2.13566e+06 0 -2.25689e+06 2.1072e+06 0 -2.34065e+06 2.05328e+06 0 -2.4372e+06 1.97698e+06 0 -2.54599e+06 1.85646e+06 0 -2.6569e+06 1.63473e+06 0 -2.73792e+06 1.30105e+06 0 -2.60513e+06 675594 0 -1.77867e+06 -375239 0 -227097 -313035 0 -1.85182e+06 2.07955e+06 0 -1.88605e+06 2.1059e+06 0 -1.92348e+06 2.12881e+06 0 -1.96493e+06 2.14734e+06 0 -2.01161e+06 2.16065e+06 0 -2.0638e+06 2.16723e+06 0 -2.12456e+06 2.16301e+06 0 -2.19488e+06 2.14891e+06 0 -2.27646e+06 2.11809e+06 0 -2.37407e+06 2.05849e+06 0 -2.48826e+06 1.97e+06 0 -2.62101e+06 1.81664e+06 0 -2.75948e+06 1.52914e+06 0 -2.84685e+06 1.04686e+06 0 -2.47525e+06 -5387.23 0 -771552 -801368 0 -1.7982e+06 2.04327e+06 0 -1.8328e+06 2.077e+06 0 -1.87044e+06 2.10764e+06 0 -1.91171e+06 2.1345e+06 0 -1.95776e+06 2.15625e+06 0 -2.0098e+06 2.17221e+06 0 -2.06897e+06 2.18031e+06 0 -2.13844e+06 2.17663e+06 0 -2.21966e+06 2.16036e+06 0 -2.31691e+06 2.12328e+06 0 -2.4344e+06 2.05254e+06 0 -2.57696e+06 1.94124e+06 0 -2.74627e+06 1.72479e+06 0 -2.94009e+06 1.31397e+06 0 -2.97706e+06 424680 0 -1.78175e+06 -1.30586e+06 0 -1.74638e+06 2.00079e+06 0 -1.78186e+06 2.04199e+06 0 -1.82009e+06 2.08036e+06 0 -1.86183e+06 2.11521e+06 0 -1.90793e+06 2.14565e+06 0 -1.95991e+06 2.17016e+06 0 -2.01911e+06 2.18781e+06 0 -2.08782e+06 2.19603e+06 0 -2.1693e+06 2.19109e+06 0 -2.26678e+06 2.16983e+06 0 -2.38662e+06 2.12162e+06 0 -2.53607e+06 2.03131e+06 0 -2.72485e+06 1.87477e+06 0 -2.97218e+06 1.53905e+06 0 -3.27901e+06 814390 0 -3.03164e+06 -1.38572e+06 0 -1.69594e+06 1.95347e+06 0 -1.73274e+06 2.00255e+06 0 -1.77205e+06 2.04888e+06 0 -1.81465e+06 2.09175e+06 0 -1.86149e+06 2.13041e+06 0 -1.91385e+06 2.16377e+06 0 -1.97356e+06 2.19031e+06 0 -2.04268e+06 2.2084e+06 0 -2.1246e+06 2.21524e+06 0 -2.22357e+06 2.20631e+06 0 -2.34562e+06 2.17642e+06 0 -2.50119e+06 2.10945e+06 0 -2.70543e+06 1.98597e+06 0 -2.98874e+06 1.73365e+06 0 -3.44668e+06 1.15269e+06 0 -4.16872e+06 -865348 0 -1.6466e+06 1.90241e+06 0 -1.68512e+06 1.95987e+06 0 -1.72595e+06 2.01451e+06 0 -1.76983e+06 2.0657e+06 0 -1.81781e+06 2.11269e+06 0 -1.87118e+06 2.15452e+06 0 -1.93183e+06 2.18985e+06 0 -2.00206e+06 2.21733e+06 0 -2.08529e+06 2.23432e+06 0 -2.18619e+06 2.23801e+06 0 -2.31194e+06 2.22174e+06 0 -2.47312e+06 2.17812e+06 0 -2.69138e+06 2.08158e+06 0 -3.00641e+06 1.89553e+06 0 -3.55173e+06 1.45916e+06 0 -4.93083e+06 91985.8 0 </DataArray> 
</PointData> 
<Points> 
<DataArray type="Float32" NumberOfComponents="3"> 
0.1 0.045 0 0.100867 0.045 0 0.101733 0.045 0 0.1026 0.045 0 0.103467 0.045 0 0.104333 0.045 0 0.1052 0.045 0 0.106067 0.045 0 0.106933 0.045 0 0.1078 0.045 0 0.108667 0.045 0 0.109533 0.045 0 0.1104 0.045 0 0.111267 0.045 0 0.112133 0.045 0 0.113 0.045 0 0.0978533 0.0461667 0 0.0987813 0.0460999 0 0.0997137 0.0460328 0 0.100651 0.0459654 0 0.101592 0.0458977 0 0.102539 0.0458296 0 0.10349 0.0457612 0 0.104445 0.0456925 0 0.105406 0.0456234 0 0.106371 0.045554 0 0.107341 0.0454842 0 0.108315 0.0454141 0 0.109295 0.0453437 0 0.11028 0.0452728 0 0.111269 0.0452016 0 0.112264 0.0451301 0 0.0957067 0.0473333 0 0.0966877 0.0472053 0 0.0976776 0.0470762 0 0.0986766 0.0469458 0 0.0996847 0.0468143 0 0.100702 0.0466815 0 0.101729 0.0465475 0 0.102766 0.0464123 0 0.103812 0.0462758 0 0.104868 0.046138 0 0.105934 0.0459989 0 0.10701 0.0458585 0 0.108096 0.0457168 0 0.109193 0.0455736 0 0.110301 0.0454292 0 0.111419 0.0452833 0 0.09356 0.0485 0 0.0945887 0.0483156 0 0.0956304 0.0481288 0 0.0966854 0.0479397 0 0.0977539 0.0477481 0 0.0988362 0.0475541 0 0.0999326 0.0473575 0 0.101043 0.0471584 0 0.102169 0.0469567 0 0.103309 0.0467523 0 0.104464 0.0465451 0 0.105635 0.0463352 0 0.106822 0.0461225 0 0.108025 0.0459068 0 0.109244 0.0456882 0 0.11048 0.0454666 0 0.0914133 0.0496667 0 0.0924873 0.04943 0 0.093578 0.0491896 0 0.0946857 0.0489454 0 0.0958109 0.0486974 0 0.096954 0.0484455 0 0.0981153 0.0481896 0 0.0992954 0.0479295 0 0.100495 0.0476652 0 0.101714 0.0473965 0 0.102953 0.0471234 0 0.104212 0.0468458 0 0.105493 0.0465635 0 0.106796 0.0462763 0 0.108121 0.0459843 0 0.109469 0.0456873 0 0.0892667 0.0508333 0 0.0903865 0.0505478 0 0.0915261 0.0502572 0 0.0926861 0.0499614 0 0.0938669 0.0496603 0 0.0950691 0.0493537 0 0.0962933 0.0490415 0 0.0975402 0.0487236 0 0.0988103 0.0483997 0 0.100104 0.0480698 0 0.101423 0.0477335 0 0.102767 0.0473908 0 0.104137 0.0470415 0 0.105534 0.0466853 0 0.106958 0.0463221 0 0.108411 0.0459516 0 0.08712 0.052 0 0.0882892 0.0516683 0 0.0894807 0.0513303 0 0.0906951 0.0509858 0 0.0919333 0.0506345 0 0.0931958 0.0502764 0 0.0944833 0.0499111 0 0.0957967 0.0495385 0 0.0971367 0.0491584 0 0.0985041 0.0487704 0 0.0998999 0.0483745 0 0.101325 0.0479702 0 0.10278 0.0475575 0 0.104266 0.0471359 0 0.105784 0.0467052 0 0.107335 0.0462652 0 0.0849733 0.0531667 0 0.0861982 0.0527909 0 0.0874474 0.0524076 0 0.0887217 0.0520167 0 0.0900216 0.0516179 0 0.0913482 0.0512109 0 0.0927021 0.0507955 0 0.0940843 0.0503715 0 0.0954956 0.0499385 0 0.096937 0.0494963 0 0.0984094 0.0490446 0 0.0999138 0.0485831 0 0.101451 0.0481113 0 0.103023 0.0476291 0 0.10463 0.0471361 0 0.106274 0.0466318 0 0.0828267 0.0543333 0 0.0841167 0.0539147 0 0.0854324 0.0534878 0 0.0867743 0.0530523 0 0.0881435 0.052608 0 0.0895405 0.0521547 0 0.0909665 0.051692 0 0.0924222 0.0512196 0 0.0939085 0.0507373 0 0.0954265 0.0502447 0 0.0969773 0.0497415 0 0.0985617 0.0492273 0 0.100181 0.0487019 0 0.101836 0.0481647 0 0.103529 0.0476154 0 0.10526 0.0470537 0 0.08068 0.0555 0 0.0820475 0.0550391 0 0.0834412 0.0545694 0 0.0848617 0.0540906 0 0.0863099 0.0536026 0 0.0877865 0.0531049 0 0.0892925 0.0525973 0 0.0908288 0.0520796 0 0.0923961 0.0515513 0 0.0939955 0.0510123 0 0.095628 0.0504621 0 0.0972947 0.0499004 0 0.0989965 0.0493268 0 0.100735 0.048741 0 0.10251 0.0481425 0 0.104325 0.047531 0 0.0785333 0.0566667 0 0.0799935 0.0561633 0 0.0814795 0.0556511 0 0.082992 0.0551297 0 0.0845317 0.054599 0 0.0860993 0.0540587 0 0.0876956 0.0535084 0 0.0893214 0.052948 0 0.0909776 0.0523771 0 0.0926649 0.0517955 0 0.0943843 0.0512028 0 0.0961366 0.0505987 0 0.097923 0.049983 0 0.0997443 0.0493552 0 0.101602 0.048715 0 0.103496 0.048062 0 0.0763867 0.0578333 0 0.0779577 0.0572867 0 0.079553 0.0567315 0 0.0811733 0.0561677 0 0.0828191 0.0555949 0 0.0844911 0.0550131 0 0.0861898 0.054422 0 0.0879159 0.0538213 0 0.0896701 0.0532109 0 0.0914531 0.0525904 0 0.0932656 0.0519597 0 0.0951082 0.0513185 0 0.0969819 0.0506665 0 0.0988874 0.0500034 0 0.100825 0.049329 0 0.102797 0.048643 0 0.07424 0.059 0 0.0759427 0.0584084 0 0.0776669 0.0578092 0 0.0794131 0.0572025 0 0.0811816 0.0565879 0 0.082973 0.0559655 0 0.0847876 0.0553349 0 0.086626 0.0546961 0 0.0884885 0.0540489 0 0.0903757 0.0533932 0 0.092288 0.0527287 0 0.094226 0.0520553 0 0.0961902 0.0513727 0 0.0981811 0.0506809 0 0.100199 0.0499797 0 0.102245 0.0492687 0 0.0720933 0.0601667 0 0.0739514 0.0595277 0 0.0758263 0.058883 0 0.0777184 0.0582323 0 0.0796279 0.0575757 0 0.081555 0.056913 0 0.0835 0.0562441 0 0.0854632 0.055569 0 0.0874447 0.0548876 0 0.0894448 0.0541998 0 0.0914639 0.0535055 0 0.0935021 0.0528046 0 0.0955598 0.052097 0 0.0976372 0.0513826 0 0.0997346 0.0506613 0 0.101852 0.049933 0 0.0699467 0.0613333 0 0.0719864 0.060644 0 0.0740361 0.0599514 0 0.0760959 0.0592554 0 0.0781657 0.0585559 0 0.0802457 0.057853 0 0.082336 0.0571466 0 0.0844367 0.0564368 0 0.0865477 0.0557234 0 0.0886692 0.0550065 0 0.0908013 0.054286 0 0.0929441 0.0535619 0 0.0950975 0.0528342 0 0.0972618 0.0521028 0 0.099437 0.0513678 0 0.101623 0.050629 0 0.0678 0.0625 0 0.0700504 0.0617566 0 0.0723009 0.0610133 0 0.0745513 0.0602699 0 0.0768018 0.0595266 0 0.0790522 0.0587832 0 0.0813027 0.0580398 0 0.0835531 0.0572965 0 0.0858036 0.0565531 0 0.088054 0.0558098 0 0.0903045 0.0550664 0 0.0925549 0.054323 0 0.0948054 0.0535797 0 0.0970558 0.0528363 0 0.0993063 0.052093 0 0.101557 0.0513496 0 
</DataArray>
</Points> 
</Piece> 
</StructuredGrid> 
</VTKFile> 
