<?xml version="1.0"?> 
<VTKFile type="StructuredGrid" version="0.1"> 
<StructuredGrid WholeExtent="0 15 0 15 0 0"> 
<Piece Extent="0 15 0 15 0 0"> 
<PointData>
<DataArray type="Float32" Name="|E|" format="ascii" NumberOfComponents="3"> 
-1.78814e-07 5.58945e+06 0 2.06637e-09 3.88281e+06 0 5.12227e-08 2.92908e+06 0 -4.56348e-08 2.28841e+06 0 3.49246e-08 1.76435e+06 0 -7.45058e-09 1.30557e+06 0 3.25963e-08 904963 0 -5.58794e-08 576855 0 5.40167e-08 336171 0 -5.40167e-08 181006 0 9.68575e-08 92052.1 0 -1.22935e-07 45207.4 0 1.08033e-07 21816.6 0 -8.56817e-08 10403.1 0 3.72529e-08 5024.73 0 0 3324.06 0 -415578 4.26343e+06 0 -241193 3.19007e+06 0 -171927 2.50728e+06 0 -144428 1.97232e+06 0 -127846 1.5076e+06 0 -112462 1.0949e+06 0 -93051 740645 0 -69398.5 461148 0 -45787.6 264724 0 -27004.7 142311 0 -14661.3 73190.7 0 -7560.71 36691.1 0 -3791.79 18144.9 0 -1869.72 8934.66 0 -902.617 4411.64 0 -140.022 2156.04 0 -536370 3.35981e+06 0 -368430 2.67471e+06 0 -302715 2.14121e+06 0 -267449 1.67834e+06 0 -239150 1.26247e+06 0 -206446 893547 0 -164346 586015 0 -117241 354526 0 -74665.6 199879 0 -43300.9 107129 0 -23551.2 55685 0 -12334.6 28471.1 0 -6327.21 14441.2 0 -3204.74 7304.23 0 -1574.3 3712.65 0 -633.122 1765.88 0 -575863 2.77019e+06 0 -470180 2.26311e+06 0 -414955 1.81155e+06 0 -374516 1.40075e+06 0 -332579 1.02693e+06 0 -277994 701303 0 -211312 441954 0 -144002 258410 0 -88851.1 142884 0 -50921.8 76408.5 0 -27858.8 40177.7 0 -14847 20961.4 0 -7797.71 10901.2 0 -4054.38 5667.33 0 -2057.02 2950.34 0 -1003.68 1446.59 0 -638439 2.33226e+06 0 -565509 1.90253e+06 0 -514181 1.50443e+06 0 -465499 1.13406e+06 0 -403446 799271 0 -322433 519289 0 -232589 311124 0 -151598 175010 0 -91149.1 94955.9 0 -51959 50784.3 0 -28721.6 27059.2 0 -15610.7 14415.7 0 -8403.13 7687.6 0 -4487.26 4106.87 0 -2357.41 2185.21 0 -1236.17 1109.87 0 -713635 1.94905e+06 0 -653945 1.57003e+06 0 -600777 1.20996e+06 0 -534897 873578 0 -444494 579759 0 -335715 351567 0 -229122 197765 0 -143534 106602 0 -84811.5 56848 0 -48450.5 30475.6 0 -27183.7 16472.7 0 -15102.7 8963.2 0 -8340.48 4900.65 0 -4578.08 2686.78 0 -2488.24 1459.52 0 -1360.1 764.376 0 -789870 1.59567e+06 0 -734998 1.25143e+06 0 -668036 919219 0 -571961 617324 0 -447696 373676 0 -316850 205580 0 -205069 106540 0 -124682 54576 0 -73198 28505.7 0 -42231.1 15271.3 0 -24151.9 8348.51 0 -13744.7 4628.18 0 -7794.81 2588.87 0 -4401.43 1451.7 0 -2471.31 801.079 0 -1395.13 427.678 0 -865416 1.25614e+06 0 -800057 932440 0 -700397 626422 0 -562657 371485 0 -408674 193092 0 -270584 90333.3 0 -167779 40510.2 0 -100489 18605.3 0 -59317.3 9016.22 0 -34804.5 4607.62 0 -20361.7 2458.57 0 -11890.6 1354.35 0 -6931.13 760.516 0 -4028.41 426.137 0 -2333.59 228.145 0 -1356.36 115.012 0 -929286 909384 0 -826484 601568 0 -674607 338730 0 -497105 155002 0 -332838 54235.6 0 -208279 12181.8 0 -126197 -879.265 0 -75781.7 -3483.02 0 -45457.2 -3160.66 0 -27272.9 -2292.2 0 -16367 -1521.98 0 -9821.86 -969.339 0 -5889.18 -607.154 0 -3524.3 -382.885 0 -2103.97 -248.579 0 -1256.93 -162.259 0 -947468 536809 0 -776533 268326 0 -572614 86189.9 0 -382267 -4240.18 0 -238432 -31041.9 0 -144827 -29880.5 0 -88002.6 -22130.1 0 -53805.5 -15021.6 0 -33040.7 -9808.41 0 -20345.3 -6269.11 0 -12550.4 -3959.01 0 -7747.93 -2485.25 0 -4781.58 -1558.62 0 -2946.53 -982.32 0 -1810.88 -624.778 0 -1109.91 -396.213 0 -858675 154012 0 -621683 -17474.5 0 -406460 -84737.6 0 -248925 -86556.4 0 -150277 -65594 0 -92108.5 -44895.4 0 -57350.2 -29768.1 0 -36015.4 -19460.2 0 -22735.6 -12603.5 0 -14404.2 -8118.25 0 -9146.25 -5214.81 0 -5813.15 -3347.34 0 -3693.91 -2151.89 0 -2343.49 -1389.32 0 -1480.63 -901.819 0 -928.082 -582.512 0 -624984 -153853 0 -390012 -180807 0 -230477 -146220 0 -137578 -101442 0 -85315.7 -67469.3 0 -54262.4 -44787.2 0 -34879.8 -29696.6 0 -22573.3 -19615.7 0 -14686.1 -12934.4 0 -9588.14 -8523.69 0 -6272.16 -5617.99 0 -4106.09 -3706.57 0 -2686.87 -2451.28 0 -1753.93 -1627.86 0 -1136.43 -1086.06 0 -722.88 -720.248 0 -318096 -274494 0 -178437 -194046 0 -106266 -127041 0 -67844.6 -83890.2 0 -44414.6 -56607 0 -29276.4 -38329.6 0 -19432.7 -25903.6 0 -12993.5 -17511.4 0 -8724.47 -11854 0 -5874.11 -8030.74 0 -3960.17 -5447.17 0 -2670.93 -3700.84 0 -1799.42 -2521.57 0 -1207.13 -1725.92 0 -797.951 -1188.09 0 -504.753 -812.55 0 -101366 -208877 0 -64738.9 -131482 0 -44219.7 -89279.1 0 -29893.8 -62331.7 0 -20142.3 -43287.1 0 -13729.3 -29974.8 0 -9451.88 -20809.1 0 -6534.73 -14486.9 0 -4529.59 -10097.4 0 -3145.41 -7046.88 0 -2185.67 -4925.1 0 -1518.59 -3449.24 0 -1052.61 -2423.74 0 -723.85 -1713.08 0 -482.178 -1222.34 0 -278.145 -871.12 0 -29691.4 -113738 0 -21072 -84406.5 0 -13896.9 -61170.9 0 -9464.63 -43351 0 -6700.35 -30784.7 0 -4771.21 -22012.3 0 -3400.31 -15783.4 0 -2426.47 -11328.5 0 -1736.6 -8139.95 0 -1243.21 -5857.11 0 -890.498 -4220.99 0 -636.984 -3049.44 0 -453.699 -2212.06 0 -318.125 -1618.48 0 -207.016 -1206.81 0 -53.6204 -927.449 0 1.01328e-06 -62869 0 -9.27248e-08 -49049.4 0 1.72295e-08 -38901.8 0 -6.98492e-09 -28754.7 0 -2.04891e-08 -20967.8 0 -1.30385e-08 -15444.3 0 8.19564e-08 -11423.7 0 -8.9407e-08 -8458.16 0 3.35276e-08 -6266.12 0 -7.07805e-08 -4649.57 0 7.45058e-08 -3456.4 0 -4.47035e-08 -2576.85 0 1.49012e-08 -1932.45 0 -8.19564e-08 -1464.72 0 4.47035e-08 -1155.47 0 -2.38419e-07 -1165.31 0 </DataArray> 
</PointData> 
<Points> 
<DataArray type="Float32" NumberOfComponents="3"> 
0.075 0.021 0 0.0783333 0.021 0 0.0816667 0.021 0 0.085 0.021 0 0.0883333 0.021 0 0.0916667 0.021 0 0.095 0.021 0 0.0983333 0.021 0 0.101667 0.021 0 0.105 0.021 0 0.108333 0.021 0 0.111667 0.021 0 0.115 0.021 0 0.118333 0.021 0 0.121667 0.021 0 0.125 0.021 0 0.0773333 0.0219333 0 0.0805333 0.0219333 0 0.0837333 0.0219333 0 0.0869333 0.0219333 0 0.0901333 0.0219333 0 0.0933333 0.0219333 0 0.0965333 0.0219333 0 0.0997333 0.0219333 0 0.102933 0.0219333 0 0.106133 0.0219333 0 0.109333 0.0219333 0 0.112533 0.0219333 0 0.115733 0.0219333 0 0.118933 0.0219333 0 0.122133 0.0219333 0 0.125333 0.0219333 0 0.0796667 0.0228667 0 0.0827333 0.0228667 0 0.0858 0.0228667 0 0.0888667 0.0228667 0 0.0919333 0.0228667 0 0.095 0.0228667 0 0.0980667 0.0228667 0 0.101133 0.0228667 0 0.1042 0.0228667 0 0.107267 0.0228667 0 0.110333 0.0228667 0 0.1134 0.0228667 0 0.116467 0.0228667 0 0.119533 0.0228667 0 0.1226 0.0228667 0 0.125667 0.0228667 0 0.082 0.0238 0 0.0849333 0.0238 0 0.0878667 0.0238 0 0.0908 0.0238 0 0.0937333 0.0238 0 0.0966667 0.0238 0 0.0996 0.0238 0 0.102533 0.0238 0 0.105467 0.0238 0 0.1084 0.0238 0 0.111333 0.0238 0 0.114267 0.0238 0 0.1172 0.0238 0 0.120133 0.0238 0 0.123067 0.0238 0 0.126 0.0238 0 0.0843333 0.0247333 0 0.0871333 0.0247333 0 0.0899333 0.0247333 0 0.0927333 0.0247333 0 0.0955333 0.0247333 0 0.0983333 0.0247333 0 0.101133 0.0247333 0 0.103933 0.0247333 0 0.106733 0.0247333 0 0.109533 0.0247333 0 0.112333 0.0247333 0 0.115133 0.0247333 0 0.117933 0.0247333 0 0.120733 0.0247333 0 0.123533 0.0247333 0 0.126333 0.0247333 0 0.0866667 0.0256667 0 0.0893333 0.0256667 0 0.092 0.0256667 0 0.0946667 0.0256667 0 0.0973333 0.0256667 0 0.1 0.0256667 0 0.102667 0.0256667 0 0.105333 0.0256667 0 0.108 0.0256667 0 0.110667 0.0256667 0 0.113333 0.0256667 0 0.116 0.0256667 0 0.118667 0.0256667 0 0.121333 0.0256667 0 0.124 0.0256667 0 0.126667 0.0256667 0 0.089 0.0266 0 0.0915333 0.0266 0 0.0940667 0.0266 0 0.0966 0.0266 0 0.0991333 0.0266 0 0.101667 0.0266 0 0.1042 0.0266 0 0.106733 0.0266 0 0.109267 0.0266 0 0.1118 0.0266 0 0.114333 0.0266 0 0.116867 0.0266 0 0.1194 0.0266 0 0.121933 0.0266 0 0.124467 0.0266 0 0.127 0.0266 0 0.0913333 0.0275333 0 0.0937333 0.0275333 0 0.0961333 0.0275333 0 0.0985333 0.0275333 0 0.100933 0.0275333 0 0.103333 0.0275333 0 0.105733 0.0275333 0 0.108133 0.0275333 0 0.110533 0.0275333 0 0.112933 0.0275333 0 0.115333 0.0275333 0 0.117733 0.0275333 0 0.120133 0.0275333 0 0.122533 0.0275333 0 0.124933 0.0275333 0 0.127333 0.0275333 0 0.0936667 0.0284667 0 0.0959333 0.0284667 0 0.0982 0.0284667 0 0.100467 0.0284667 0 0.102733 0.0284667 0 0.105 0.0284667 0 0.107267 0.0284667 0 0.109533 0.0284667 0 0.1118 0.0284667 0 0.114067 0.0284667 0 0.116333 0.0284667 0 0.1186 0.0284667 0 0.120867 0.0284667 0 0.123133 0.0284667 0 0.1254 0.0284667 0 0.127667 0.0284667 0 0.096 0.0294 0 0.0981333 0.0294 0 0.100267 0.0294 0 0.1024 0.0294 0 0.104533 0.0294 0 0.106667 0.0294 0 0.1088 0.0294 0 0.110933 0.0294 0 0.113067 0.0294 0 0.1152 0.0294 0 0.117333 0.0294 0 0.119467 0.0294 0 0.1216 0.0294 0 0.123733 0.0294 0 0.125867 0.0294 0 0.128 0.0294 0 0.0983333 0.0303333 0 0.100333 0.0303333 0 0.102333 0.0303333 0 0.104333 0.0303333 0 0.106333 0.0303333 0 0.108333 0.0303333 0 0.110333 0.0303333 0 0.112333 0.0303333 0 0.114333 0.0303333 0 0.116333 0.0303333 0 0.118333 0.0303333 0 0.120333 0.0303333 0 0.122333 0.0303333 0 0.124333 0.0303333 0 0.126333 0.0303333 0 0.128333 0.0303333 0 0.100667 0.0312667 0 0.102533 0.0312667 0 0.1044 0.0312667 0 0.106267 0.0312667 0 0.108133 0.0312667 0 0.11 0.0312667 0 0.111867 0.0312667 0 0.113733 0.0312667 0 0.1156 0.0312667 0 0.117467 0.0312667 0 0.119333 0.0312667 0 0.1212 0.0312667 0 0.123067 0.0312667 0 0.124933 0.0312667 0 0.1268 0.0312667 0 0.128667 0.0312667 0 0.103 0.0322 0 0.104733 0.0322 0 0.106467 0.0322 0 0.1082 0.0322 0 0.109933 0.0322 0 0.111667 0.0322 0 0.1134 0.0322 0 0.115133 0.0322 0 0.116867 0.0322 0 0.1186 0.0322 0 0.120333 0.0322 0 0.122067 0.0322 0 0.1238 0.0322 0 0.125533 0.0322 0 0.127267 0.0322 0 0.129 0.0322 0 0.105333 0.0331333 0 0.106933 0.0331333 0 0.108533 0.0331333 0 0.110133 0.0331333 0 0.111733 0.0331333 0 0.113333 0.0331333 0 0.114933 0.0331333 0 0.116533 0.0331333 0 0.118133 0.0331333 0 0.119733 0.0331333 0 0.121333 0.0331333 0 0.122933 0.0331333 0 0.124533 0.0331333 0 0.126133 0.0331333 0 0.127733 0.0331333 0 0.129333 0.0331333 0 0.107667 0.0340667 0 0.109133 0.0340667 0 0.1106 0.0340667 0 0.112067 0.0340667 0 0.113533 0.0340667 0 0.115 0.0340667 0 0.116467 0.0340667 0 0.117933 0.0340667 0 0.1194 0.0340667 0 0.120867 0.0340667 0 0.122333 0.0340667 0 0.1238 0.0340667 0 0.125267 0.0340667 0 0.126733 0.0340667 0 0.1282 0.0340667 0 0.129667 0.0340667 0 0.11 0.035 0 0.111333 0.035 0 0.112667 0.035 0 0.114 0.035 0 0.115333 0.035 0 0.116667 0.035 0 0.118 0.035 0 0.119333 0.035 0 0.120667 0.035 0 0.122 0.035 0 0.123333 0.035 0 0.124667 0.035 0 0.126 0.035 0 0.127333 0.035 0 0.128667 0.035 0 0.13 0.035 0 
</DataArray>
</Points> 
</Piece> 
</StructuredGrid> 
</VTKFile> 
