<?xml version="1.0"?> 
<VTKFile type="StructuredGrid" version="0.1"> 
<StructuredGrid WholeExtent="0 15 0 15 0 0"> 
<Piece Extent="0 15 0 15 0 0"> 
<PointData>
<DataArray type="Float32" Name="|E|" format="ascii" NumberOfComponents="3"> 
738.741 1.19209e-06 0 -27.3851 -180.43 0 -49.6355 -110.217 0 -47.0863 -34.3548 0 -34.6353 -28.1478 0 -23.1885 -9.76592 0 -15.6552 -8.07328 0 -9.92053 -3.47903 0 -6.49719 -2.59682 0 -4.07748 -1.36315 0 -2.64132 -0.907271 0 -1.6782 -0.536994 0 -1.11021 -0.320601 0 -0.75978 -0.187859 0 -0.580929 -0.076991 0 -0.526269 3.09944e-06 0 464.465 -2.15136e-07 0 16.6368 -169.287 0 -40.4887 -94.4763 0 -41.5513 -43.8649 0 -31.5203 -26.1979 0 -22.1566 -13.3801 0 -14.6644 -8.29817 0 -9.65655 -4.67876 0 -6.16982 -2.93268 0 -3.98173 -1.7583 0 -2.529 -1.09709 0 -1.63636 -0.670432 0 -1.06904 -0.404123 0 -0.738714 -0.22858 0 -0.562177 -0.102307 0 -0.50715 -2.45171e-07 0 309.981 1.20606e-07 0 37.1331 -147.57 0 -31.0211 -86.5261 0 -36.2036 -47.464 0 -28.756 -26.6668 0 -20.7174 -15.4521 0 -13.8265 -9.10199 0 -9.19516 -5.53329 0 -5.88598 -3.37119 0 -3.81411 -2.09129 0 -2.42406 -1.29272 0 -1.57078 -0.797687 0 -1.02665 -0.481689 0 -0.709723 -0.271617 0 -0.540242 -0.122943 0 -0.487548 6.14673e-08 0 218.521 -1.85333e-07 0 45.1906 -124.738 0 -22.5365 -81.0985 0 -31.2227 -48.5446 0 -26.0895 -27.8248 0 -19.144 -16.8796 0 -12.9741 -10.0475 0 -8.65293 -6.23981 0 -5.58221 -3.82428 0 -3.61332 -2.39262 0 -2.30715 -1.48348 0 -1.49249 -0.918442 0 -0.978113 -0.555171 0 -0.675407 -0.313622 0 -0.514662 -0.141805 0 -0.4648 -2.18861e-07 0 161.241 3.31551e-07 0 46.6798 -104.348 0 -15.5003 -76.2866 0 -26.6709 -48.5434 0 -23.4681 -29.0076 0 -17.5294 -18.0144 0 -12.0647 -10.9686 0 -8.06638 -6.8702 0 -5.24315 -4.25832 0 -3.39077 -2.67232 0 -2.17409 -1.66463 0 -1.40461 -1.03231 0 -0.922568 -0.624685 0 -0.636556 -0.353474 0 -0.485462 -0.159588 0 -0.438595 2.47732e-07 0 123.178 -2.90573e-07 0 44.7476 -87.3295 0 -9.96568 -71.5844 0 -22.565 -48.0496 0 -20.9014 -30.0038 0 -15.9031 -18.9816 0 -11.0973 -11.811 0 -7.44572 -7.44624 0 -4.86882 -4.66151 0 -3.14942 -2.93247 0 -2.02529 -1.83392 0 -1.308 -1.13875 0 -0.86033 -0.689853 0 -0.593471 -0.390753 0 -0.452837 -0.176321 0 -0.409168 -1.08033e-07 0 96.3949 7.07805e-08 0 41.0907 -73.5847 0 -5.79972 -66.9841 0 -18.9001 -47.3156 0 -18.4112 -30.7751 0 -14.2752 -19.8226 0 -10.0815 -12.5612 0 -6.79403 -7.97212 0 -4.46323 -5.02984 0 -2.89025 -3.17244 0 -1.86233 -1.99006 0 -1.20308 -1.23718 0 -0.791986 -0.750217 0 -0.546387 -0.425221 0 -0.417033 -0.191875 0 -0.376823 8.56817e-08 0 76.5309 8.19564e-08 0 36.6276 -62.6749 0 -2.80154 -62.6138 0 -15.6566 -46.465 0 -16.0146 -31.343 0 -12.6506 -20.5509 0 -9.02827 -13.2194 0 -6.1134 -8.44681 0 -4.03072 -5.36185 0 -2.61424 -3.3909 0 -1.6868 -2.13213 0 -1.09034 -1.32697 0 -0.718141 -0.80535 0 -0.495577 -0.45668 0 -0.378318 -0.206115 0 -0.341838 -3.72529e-08 0 61.1034 -9.68575e-08 0 31.8506 -54.1065 0 -0.760239 -58.6051 0 -12.804 -45.5726 0 -13.7206 -31.7453 0 -11.0327 -21.1728 0 -7.94635 -13.7895 0 -5.40644 -8.86836 0 -3.57516 -5.65674 0 -2.32267 -3.58653 0 -1.50023 -2.25935 0 -0.970418 -1.40758 0 -0.63938 -0.854873 0 -0.441364 -0.484938 0 -0.336973 -0.218924 0 -0.304481 1.41561e-07 0 48.6312 8.9407e-08 0 27.0163 -47.4378 0 0.51893 -55.0539 0 -10.3037 -44.6945 0 -11.5305 -32.0195 0 -9.42444 -21.6935 0 -6.84276 -14.2757 0 -4.67627 -9.2352 0 -3.09997 -5.91387 0 -2.0172 -3.75816 0 -1.304 -2.37104 0 -0.844056 -1.47849 0 -0.556277 -0.898459 0 -0.384113 -0.509818 0 -0.29329 -0.230207 0 -0.265014 -2.98023e-07 0 38.1865 1.04308e-07 0 22.2486 -42.3084 0 1.2052 -52.0189 0 -8.11075 -43.8765 0 -9.43921 -32.1988 0 -7.82778 -22.1193 0 -5.72287 -14.6814 0 -3.92633 -9.54631 0 -2.60823 -6.13264 0 -1.69964 -3.90486 0 -1.09947 -2.46661 0 -0.71209 -1.53924 0 -0.469413 -0.935823 0 -0.324216 -0.531157 0 -0.247577 -0.239885 0 -0.223713 1.93715e-07 0 29.1561 -2.38419e-07 0 17.5973 -38.439 0 1.44122 -49.5295 0 -6.17654 -43.1566 0 -7.43653 -32.3101 0 -6.24336 -22.4566 0 -4.59087 -15.0095 0 -3.16011 -9.80112 0 -2.10283 -6.31247 0 -1.37194 -4.02585 0 -0.887986 -2.54552 0 -0.575402 -1.58947 0 -0.379383 -0.966725 0 -0.262088 -0.548813 0 -0.200149 -0.247892 0 -0.180862 -1.19209e-07 0 21.1109 1.49012e-07 0 13.0695 -35.6216 0 1.34586 -47.5964 0 -4.45028 -42.5657 0 -5.50868 -32.3751 0 -4.6706 -22.7115 0 -3.45008 -15.2624 0 -2.38108 -9.99938 0 -1.58657 -6.45287 0 -1.03609 -4.12054 0 -0.670914 -2.60736 0 -0.434907 -1.62886 0 -0.286796 -0.990967 0 -0.198157 -0.562669 0 -0.151336 -0.254176 0 -0.136756 7.45058e-08 0 13.7321 -1.93715e-07 0 8.64844 -33.707 0 1.01867 -46.2199 0 -2.88016 -42.1272 0 -3.63914 -32.4101 0 -3.10772 -22.8895 0 -2.30321 -15.4418 0 -1.59258 -10.141 0 -1.06221 -6.55344 0 -0.694133 -4.18849 0 -0.449627 -2.65177 0 -0.29154 -1.65716 0 -0.192277 -1.00839 0 -0.132865 -0.572632 0 -0.101476 -0.258694 0 -0.0917012 -5.96046e-08 0 6.7669 1.78814e-07 0 4.30426 -32.5961 0 0.544832 -45.3966 0 -1.41408 -41.8576 0 -1.80946 -32.4265 0 -1.55199 -22.9946 0 -1.15252 -15.549 0 -0.79784 -10.2259 0 -0.532451 -6.61389 0 -0.348087 -4.22939 0 -0.22552 -2.67851 0 -0.146252 -1.67422 0 -0.0964631 -1.0189 0 -0.0666614 -0.578637 0 -0.0509141 -0.261417 0 -0.0460104 8.9407e-08 0 3.57628e-07 -1.19209e-06 0 2.6921e-09 -32.2321 0 -4.7381e-08 -45.1226 0 4.51691e-08 -41.7666 0 -2.84053e-08 -32.4313 0 -1.86265e-09 -23.0293 0 4.09782e-08 -15.5846 0 -3.35276e-08 -10.2543 0 9.31323e-09 -6.63406 0 -1.86265e-09 -4.24304 0 -1.11759e-08 -2.68744 0 3.72529e-09 -1.67991 0 7.45058e-09 -1.0224 0 -1.11759e-08 -0.580643 0 -2.23517e-08 -0.262326 0 1.78814e-07 -5.96046e-07 0 </DataArray> 
</PointData> 
<Points> 
<DataArray type="Float32" NumberOfComponents="3"> 
0.13 0.035 0 0.133667 0.035 0 0.137333 0.035 0 0.141 0.035 0 0.144667 0.035 0 0.148333 0.035 0 0.152 0.035 0 0.155667 0.035 0 0.159333 0.035 0 0.163 0.035 0 0.166667 0.035 0 0.170333 0.035 0 0.174 0.035 0 0.177667 0.035 0 0.181333 0.035 0 0.185 0.035 0 0.13 0.0356667 0 0.133667 0.0356667 0 0.137333 0.0356667 0 0.141 0.0356667 0 0.144667 0.0356667 0 0.148333 0.0356667 0 0.152 0.0356667 0 0.155667 0.0356667 0 0.159333 0.0356667 0 0.163 0.0356667 0 0.166667 0.0356667 0 0.170333 0.0356667 0 0.174 0.0356667 0 0.177667 0.0356667 0 0.181333 0.0356667 0 0.185 0.0356667 0 0.13 0.0363333 0 0.133667 0.0363333 0 0.137333 0.0363333 0 0.141 0.0363333 0 0.144667 0.0363333 0 0.148333 0.0363333 0 0.152 0.0363333 0 0.155667 0.0363333 0 0.159333 0.0363333 0 0.163 0.0363333 0 0.166667 0.0363333 0 0.170333 0.0363333 0 0.174 0.0363333 0 0.177667 0.0363333 0 0.181333 0.0363333 0 0.185 0.0363333 0 0.13 0.037 0 0.133667 0.037 0 0.137333 0.037 0 0.141 0.037 0 0.144667 0.037 0 0.148333 0.037 0 0.152 0.037 0 0.155667 0.037 0 0.159333 0.037 0 0.163 0.037 0 0.166667 0.037 0 0.170333 0.037 0 0.174 0.037 0 0.177667 0.037 0 0.181333 0.037 0 0.185 0.037 0 0.13 0.0376667 0 0.133667 0.0376667 0 0.137333 0.0376667 0 0.141 0.0376667 0 0.144667 0.0376667 0 0.148333 0.0376667 0 0.152 0.0376667 0 0.155667 0.0376667 0 0.159333 0.0376667 0 0.163 0.0376667 0 0.166667 0.0376667 0 0.170333 0.0376667 0 0.174 0.0376667 0 0.177667 0.0376667 0 0.181333 0.0376667 0 0.185 0.0376667 0 0.13 0.0383333 0 0.133667 0.0383333 0 0.137333 0.0383333 0 0.141 0.0383333 0 0.144667 0.0383333 0 0.148333 0.0383333 0 0.152 0.0383333 0 0.155667 0.0383333 0 0.159333 0.0383333 0 0.163 0.0383333 0 0.166667 0.0383333 0 0.170333 0.0383333 0 0.174 0.0383333 0 0.177667 0.0383333 0 0.181333 0.0383333 0 0.185 0.0383333 0 0.13 0.039 0 0.133667 0.039 0 0.137333 0.039 0 0.141 0.039 0 0.144667 0.039 0 0.148333 0.039 0 0.152 0.039 0 0.155667 0.039 0 0.159333 0.039 0 0.163 0.039 0 0.166667 0.039 0 0.170333 0.039 0 0.174 0.039 0 0.177667 0.039 0 0.181333 0.039 0 0.185 0.039 0 0.13 0.0396667 0 0.133667 0.0396667 0 0.137333 0.0396667 0 0.141 0.0396667 0 0.144667 0.0396667 0 0.148333 0.0396667 0 0.152 0.0396667 0 0.155667 0.0396667 0 0.159333 0.0396667 0 0.163 0.0396667 0 0.166667 0.0396667 0 0.170333 0.0396667 0 0.174 0.0396667 0 0.177667 0.0396667 0 0.181333 0.0396667 0 0.185 0.0396667 0 0.13 0.0403333 0 0.133667 0.0403333 0 0.137333 0.0403333 0 0.141 0.0403333 0 0.144667 0.0403333 0 0.148333 0.0403333 0 0.152 0.0403333 0 0.155667 0.0403333 0 0.159333 0.0403333 0 0.163 0.0403333 0 0.166667 0.0403333 0 0.170333 0.0403333 0 0.174 0.0403333 0 0.177667 0.0403333 0 0.181333 0.0403333 0 0.185 0.0403333 0 0.13 0.041 0 0.133667 0.041 0 0.137333 0.041 0 0.141 0.041 0 0.144667 0.041 0 0.148333 0.041 0 0.152 0.041 0 0.155667 0.041 0 0.159333 0.041 0 0.163 0.041 0 0.166667 0.041 0 0.170333 0.041 0 0.174 0.041 0 0.177667 0.041 0 0.181333 0.041 0 0.185 0.041 0 0.13 0.0416667 0 0.133667 0.0416667 0 0.137333 0.0416667 0 0.141 0.0416667 0 0.144667 0.0416667 0 0.148333 0.0416667 0 0.152 0.0416667 0 0.155667 0.0416667 0 0.159333 0.0416667 0 0.163 0.0416667 0 0.166667 0.0416667 0 0.170333 0.0416667 0 0.174 0.0416667 0 0.177667 0.0416667 0 0.181333 0.0416667 0 0.185 0.0416667 0 0.13 0.0423333 0 0.133667 0.0423333 0 0.137333 0.0423333 0 0.141 0.0423333 0 0.144667 0.0423333 0 0.148333 0.0423333 0 0.152 0.0423333 0 0.155667 0.0423333 0 0.159333 0.0423333 0 0.163 0.0423333 0 0.166667 0.0423333 0 0.170333 0.0423333 0 0.174 0.0423333 0 0.177667 0.0423333 0 0.181333 0.0423333 0 0.185 0.0423333 0 0.13 0.043 0 0.133667 0.043 0 0.137333 0.043 0 0.141 0.043 0 0.144667 0.043 0 0.148333 0.043 0 0.152 0.043 0 0.155667 0.043 0 0.159333 0.043 0 0.163 0.043 0 0.166667 0.043 0 0.170333 0.043 0 0.174 0.043 0 0.177667 0.043 0 0.181333 0.043 0 0.185 0.043 0 0.13 0.0436667 0 0.133667 0.0436667 0 0.137333 0.0436667 0 0.141 0.0436667 0 0.144667 0.0436667 0 0.148333 0.0436667 0 0.152 0.0436667 0 0.155667 0.0436667 0 0.159333 0.0436667 0 0.163 0.0436667 0 0.166667 0.0436667 0 0.170333 0.0436667 0 0.174 0.0436667 0 0.177667 0.0436667 0 0.181333 0.0436667 0 0.185 0.0436667 0 0.13 0.0443333 0 0.133667 0.0443333 0 0.137333 0.0443333 0 0.141 0.0443333 0 0.144667 0.0443333 0 0.148333 0.0443333 0 0.152 0.0443333 0 0.155667 0.0443333 0 0.159333 0.0443333 0 0.163 0.0443333 0 0.166667 0.0443333 0 0.170333 0.0443333 0 0.174 0.0443333 0 0.177667 0.0443333 0 0.181333 0.0443333 0 0.185 0.0443333 0 0.13 0.045 0 0.133667 0.045 0 0.137333 0.045 0 0.141 0.045 0 0.144667 0.045 0 0.148333 0.045 0 0.152 0.045 0 0.155667 0.045 0 0.159333 0.045 0 0.163 0.045 0 0.166667 0.045 0 0.170333 0.045 0 0.174 0.045 0 0.177667 0.045 0 0.181333 0.045 0 0.185 0.045 0 
</DataArray>
</Points> 
</Piece> 
</StructuredGrid> 
</VTKFile> 
