<?xml version="1.0"?> 
<VTKFile type="StructuredGrid" version="0.1"> 
<StructuredGrid WholeExtent="0 15 0 15 0 0"> 
<Piece Extent="0 15 0 15 0 0"> 
<PointData>
<DataArray type="Float32" Name="|E|" format="ascii" NumberOfComponents="3"> 
1.23626e+06 -126149 0 1.5903e+06 -103684 0 1.74335e+06 -21433 0 1.72247e+06 31572.6 0 1.59866e+06 62324.2 0 1.43365e+06 69402.3 0 1.26369e+06 67871.8 0 1.10594e+06 60782.6 0 967483 52464 0 850230 43697.6 0 753973 35322.5 0 677593 27434.6 0 619808 20065.5 0 579440 13127.1 0 555594 6485.05 0 547710 0 0 1.23884e+06 -126412 0 1.59232e+06 -109904 0 1.74554e+06 -23201.2 0 1.72345e+06 34207.2 0 1.59879e+06 66328.8 0 1.43341e+06 74068.2 0 1.26326e+06 72273.6 0 1.10551e+06 64765.6 0 967074 55873.1 0 849878 46543.8 0 753668 37619.3 0 677334 29219 0 619583 21370.7 0 579242 13980.7 0 555410 6907.06 0 547531 0 0 1.23991e+06 -126522 0 1.59461e+06 -116169 0 1.74784e+06 -24917.5 0 1.7245e+06 36871.7 0 1.59895e+06 70355.1 0 1.43316e+06 78740.8 0 1.26282e+06 76678.4 0 1.10507e+06 68747.9 0 966650 59281.1 0 849510 49388.5 0 753348 39914.9 0 677062 31002.3 0 619346 22675 0 579031 14833.8 0 555215 7328.78 0 547341 0 0 1.23947e+06 -126477 0 1.59717e+06 -122463 0 1.75024e+06 -26592.4 0 1.72562e+06 39574.5 0 1.59913e+06 74400.4 0 1.43291e+06 83422.3 0 1.26238e+06 81085.2 0 1.10461e+06 72730 0 966211 62687.7 0 849128 52231.7 0 753015 42209 0 676777 32784.5 0 619097 23978.5 0 578809 15686.3 0 555009 7750.21 0 547140 0 0 1.23749e+06 -126274 0 1.60002e+06 -128770 0 1.75276e+06 -28237.4 0 1.7268e+06 42324.3 0 1.59934e+06 78461.5 0 1.43266e+06 88115.2 0 1.26193e+06 85493.4 0 1.10414e+06 76712.3 0 965758 66092.8 0 848729 55073.5 0 752668 44501.7 0 676478 34565.6 0 618836 25281.1 0 578575 16538.2 0 554791 8171.35 0 546927 0 0 1.23393e+06 -125911 0 1.60316e+06 -135073 0 1.75539e+06 -29864.1 0 1.72805e+06 45130.3 0 1.59958e+06 82535.1 0 1.43241e+06 92822.1 0 1.26147e+06 89902.1 0 1.10364e+06 80695.5 0 965290 69496.2 0 848316 57913.8 0 752306 46792.8 0 676166 36345.4 0 618562 26582.8 0 578329 17389.5 0 554561 8592.2 0 546703 0 0 1.22873e+06 -125381 0 1.6066e+06 -141355 0 1.75812e+06 -31485.2 0 1.72936e+06 48002.2 0 1.59985e+06 86617.5 0 1.43216e+06 97545.6 0 1.261e+06 94310.2 0 1.10314e+06 84680 0 964807 72897.5 0 847887 60752.8 0 751931 49082.5 0 675841 38124 0 618275 27883.6 0 578071 18240.2 0 554321 9012.76 0 546468 0 0 1.22184e+06 -124677 0 1.61036e+06 -147595 0 1.76097e+06 -33114.5 0 1.73074e+06 50950.6 0 1.60014e+06 90704.6 0 1.4319e+06 102289 0 1.26053e+06 98716.7 0 1.10262e+06 88666.6 0 964310 76296.7 0 847443 63590.6 0 751542 51370.5 0 675502 39901.4 0 617976 29183.5 0 577802 19090.2 0 554069 9433.03 0 546222 0 0 1.21316e+06 -123792 0 1.61445e+06 -153772 0 1.76392e+06 -34767.1 0 1.73219e+06 53986.6 0 1.60046e+06 94791.8 0 1.43164e+06 107055 0 1.26004e+06 103120 0 1.10208e+06 92655.9 0 963798 79693.4 0 846982 66427.2 0 751138 53656.8 0 675149 41677.6 0 617665 30482.4 0 577520 19939.6 0 553805 9853.01 0 545964 0 0 1.2026e+06 -122714 0 1.61889e+06 -159861 0 1.76697e+06 -36459.6 0 1.73369e+06 57122.8 0 1.6008e+06 98874 0 1.43137e+06 111847 0 1.25955e+06 107520 0 1.10153e+06 96648.7 0 963271 83087.3 0 846507 69262.8 0 750721 55941.4 0 674784 43452.5 0 617342 31780.4 0 577227 20788.3 0 553530 10272.7 0 545696 0 0 1.19003e+06 -121432 0 1.62371e+06 -165834 0 1.77012e+06 -38210.8 0 1.73526e+06 60372.6 0 1.60117e+06 102945 0 1.4311e+06 116669 0 1.25905e+06 111913 0 1.10095e+06 100646 0 962730 86478 0 846015 72097.4 0 750290 58224.2 0 674405 45226.1 0 617006 33077.4 0 576922 21636.3 0 553244 10692.2 0 545416 0 0 1.17533e+06 -119932 0 1.62894e+06 -171662 0 1.77338e+06 -40041.8 0 1.73689e+06 63751.1 0 1.60157e+06 106999 0 1.43082e+06 121526 0 1.25854e+06 116299 0 1.10037e+06 104649 0 962176 89865.1 0 845508 74931.3 0 749845 60505.2 0 674012 46998.3 0 616658 34373.5 0 576606 22483.5 0 552946 11111.3 0 545124 0 0 1.15834e+06 -118198 0 1.63459e+06 -177308 0 1.77673e+06 -41976.1 0 1.73857e+06 67275.1 0 1.602e+06 111027 0 1.43053e+06 126423 0 1.25803e+06 120675 0 1.09976e+06 108658 0 961607 93248.2 0 844984 77764.5 0 749387 62784.2 0 673606 48769.2 0 616298 35668.6 0 576277 23329.9 0 552637 11530.2 0 544822 0 0 1.13887e+06 -116211 0 1.64072e+06 -182732 0 1.78018e+06 -44040.8 0 1.74032e+06 70963.3 0 1.60246e+06 115021 0 1.43023e+06 131365 0 1.25751e+06 125039 0 1.09913e+06 112675 0 961026 96626.7 0 844444 80597.2 0 748915 65061.1 0 673186 50538.8 0 615925 36962.7 0 575936 24175.5 0 552317 11948.9 0 544509 0 0 1.11673e+06 -113952 0 1.64735e+06 -187889 0 1.78371e+06 -46266.2 0 1.74212e+06 74836.7 0 1.60295e+06 118970 0 1.42992e+06 136357 0 1.25699e+06 129388 0 1.09849e+06 116701 0 960431 99999.9 0 843887 83429.7 0 748430 67336 0 672753 52306.9 0 615541 38255.8 0 575584 25020.2 0 551985 12367.4 0 544184 0 0 1.09168e+06 -111396 0 1.65452e+06 -192729 0 1.78733e+06 -48686.7 0 1.74397e+06 78918.7 0 1.60347e+06 122864 0 1.42959e+06 141408 0 1.25646e+06 133718 0 1.09782e+06 120738 0 959824 103367 0 843313 86262.3 0 747931 69608.6 0 672306 54073.7 0 615144 39548 0 575220 25864.1 0 551643 12785.7 0 543848 0 0 </DataArray> 
</PointData> 
<Points> 
<DataArray type="Float32" NumberOfComponents="3"> 
0.19 0.005 0 0.2022 0.005 0 0.2144 0.005 0 0.2266 0.005 0 0.2388 0.005 0 0.251 0.005 0 0.2632 0.005 0 0.2754 0.005 0 0.2876 0.005 0 0.2998 0.005 0 0.312 0.005 0 0.3242 0.005 0 0.3364 0.005 0 0.3486 0.005 0 0.3608 0.005 0 0.373 0.005 0 0.190033 0.00532667 0 0.202231 0.00532667 0 0.214429 0.00532667 0 0.226627 0.00532667 0 0.238824 0.00532667 0 0.251022 0.00532667 0 0.26322 0.00532667 0 0.275418 0.00532667 0 0.287616 0.00532667 0 0.299813 0.00532667 0 0.312011 0.00532667 0 0.324209 0.00532667 0 0.336407 0.00532667 0 0.348604 0.00532667 0 0.360802 0.00532667 0 0.373 0.00532667 0 0.190067 0.00565333 0 0.202262 0.00565333 0 0.214458 0.00565333 0 0.226653 0.00565333 0 0.238849 0.00565333 0 0.251044 0.00565333 0 0.26324 0.00565333 0 0.275436 0.00565333 0 0.287631 0.00565333 0 0.299827 0.00565333 0 0.312022 0.00565333 0 0.324218 0.00565333 0 0.336413 0.00565333 0 0.348609 0.00565333 0 0.360804 0.00565333 0 0.373 0.00565333 0 0.1901 0.00598 0 0.202293 0.00598 0 0.214487 0.00598 0 0.22668 0.00598 0 0.238873 0.00598 0 0.251067 0.00598 0 0.26326 0.00598 0 0.275453 0.00598 0 0.287647 0.00598 0 0.29984 0.00598 0 0.312033 0.00598 0 0.324227 0.00598 0 0.33642 0.00598 0 0.348613 0.00598 0 0.360807 0.00598 0 0.373 0.00598 0 0.190133 0.00630667 0 0.202324 0.00630667 0 0.214516 0.00630667 0 0.226707 0.00630667 0 0.238898 0.00630667 0 0.251089 0.00630667 0 0.26328 0.00630667 0 0.275471 0.00630667 0 0.287662 0.00630667 0 0.299853 0.00630667 0 0.312044 0.00630667 0 0.324236 0.00630667 0 0.336427 0.00630667 0 0.348618 0.00630667 0 0.360809 0.00630667 0 0.373 0.00630667 0 0.190167 0.00663333 0 0.202356 0.00663333 0 0.214544 0.00663333 0 0.226733 0.00663333 0 0.238922 0.00663333 0 0.251111 0.00663333 0 0.2633 0.00663333 0 0.275489 0.00663333 0 0.287678 0.00663333 0 0.299867 0.00663333 0 0.312056 0.00663333 0 0.324244 0.00663333 0 0.336433 0.00663333 0 0.348622 0.00663333 0 0.360811 0.00663333 0 0.373 0.00663333 0 0.1902 0.00696 0 0.202387 0.00696 0 0.214573 0.00696 0 0.22676 0.00696 0 0.238947 0.00696 0 0.251133 0.00696 0 0.26332 0.00696 0 0.275507 0.00696 0 0.287693 0.00696 0 0.29988 0.00696 0 0.312067 0.00696 0 0.324253 0.00696 0 0.33644 0.00696 0 0.348627 0.00696 0 0.360813 0.00696 0 0.373 0.00696 0 0.190233 0.00728667 0 0.202418 0.00728667 0 0.214602 0.00728667 0 0.226787 0.00728667 0 0.238971 0.00728667 0 0.251156 0.00728667 0 0.26334 0.00728667 0 0.275524 0.00728667 0 0.287709 0.00728667 0 0.299893 0.00728667 0 0.312078 0.00728667 0 0.324262 0.00728667 0 0.336447 0.00728667 0 0.348631 0.00728667 0 0.360816 0.00728667 0 0.373 0.00728667 0 0.190267 0.00761333 0 0.202449 0.00761333 0 0.214631 0.00761333 0 0.226813 0.00761333 0 0.238996 0.00761333 0 0.251178 0.00761333 0 0.26336 0.00761333 0 0.275542 0.00761333 0 0.287724 0.00761333 0 0.299907 0.00761333 0 0.312089 0.00761333 0 0.324271 0.00761333 0 0.336453 0.00761333 0 0.348636 0.00761333 0 0.360818 0.00761333 0 0.373 0.00761333 0 0.1903 0.00794 0 0.20248 0.00794 0 0.21466 0.00794 0 0.22684 0.00794 0 0.23902 0.00794 0 0.2512 0.00794 0 0.26338 0.00794 0 0.27556 0.00794 0 0.28774 0.00794 0 0.29992 0.00794 0 0.3121 0.00794 0 0.32428 0.00794 0 0.33646 0.00794 0 0.34864 0.00794 0 0.36082 0.00794 0 0.373 0.00794 0 0.190333 0.00826667 0 0.202511 0.00826667 0 0.214689 0.00826667 0 0.226867 0.00826667 0 0.239044 0.00826667 0 0.251222 0.00826667 0 0.2634 0.00826667 0 0.275578 0.00826667 0 0.287756 0.00826667 0 0.299933 0.00826667 0 0.312111 0.00826667 0 0.324289 0.00826667 0 0.336467 0.00826667 0 0.348644 0.00826667 0 0.360822 0.00826667 0 0.373 0.00826667 0 0.190367 0.00859333 0 0.202542 0.00859333 0 0.214718 0.00859333 0 0.226893 0.00859333 0 0.239069 0.00859333 0 0.251244 0.00859333 0 0.26342 0.00859333 0 0.275596 0.00859333 0 0.287771 0.00859333 0 0.299947 0.00859333 0 0.312122 0.00859333 0 0.324298 0.00859333 0 0.336473 0.00859333 0 0.348649 0.00859333 0 0.360824 0.00859333 0 0.373 0.00859333 0 0.1904 0.00892 0 0.202573 0.00892 0 0.214747 0.00892 0 0.22692 0.00892 0 0.239093 0.00892 0 0.251267 0.00892 0 0.26344 0.00892 0 0.275613 0.00892 0 0.287787 0.00892 0 0.29996 0.00892 0 0.312133 0.00892 0 0.324307 0.00892 0 0.33648 0.00892 0 0.348653 0.00892 0 0.360827 0.00892 0 0.373 0.00892 0 0.190433 0.00924667 0 0.202604 0.00924667 0 0.214776 0.00924667 0 0.226947 0.00924667 0 0.239118 0.00924667 0 0.251289 0.00924667 0 0.26346 0.00924667 0 0.275631 0.00924667 0 0.287802 0.00924667 0 0.299973 0.00924667 0 0.312144 0.00924667 0 0.324316 0.00924667 0 0.336487 0.00924667 0 0.348658 0.00924667 0 0.360829 0.00924667 0 0.373 0.00924667 0 0.190467 0.00957333 0 0.202636 0.00957333 0 0.214804 0.00957333 0 0.226973 0.00957333 0 0.239142 0.00957333 0 0.251311 0.00957333 0 0.26348 0.00957333 0 0.275649 0.00957333 0 0.287818 0.00957333 0 0.299987 0.00957333 0 0.312156 0.00957333 0 0.324324 0.00957333 0 0.336493 0.00957333 0 0.348662 0.00957333 0 0.360831 0.00957333 0 0.373 0.00957333 0 0.1905 0.0099 0 0.202667 0.0099 0 0.214833 0.0099 0 0.227 0.0099 0 0.239167 0.0099 0 0.251333 0.0099 0 0.2635 0.0099 0 0.275667 0.0099 0 0.287833 0.0099 0 0.3 0.0099 0 0.312167 0.0099 0 0.324333 0.0099 0 0.3365 0.0099 0 0.348667 0.0099 0 0.360833 0.0099 0 0.373 0.0099 0 
</DataArray>
</Points> 
</Piece> 
</StructuredGrid> 
</VTKFile> 
