<?xml version="1.0"?> 
<VTKFile type="StructuredGrid" version="0.1"> 
<StructuredGrid WholeExtent="0 15 0 15 0 0"> 
<Piece Extent="0 15 0 15 0 0"> 
<PointData>
<DataArray type="Float32" Name="|E|" format="ascii" NumberOfComponents="3"> 
3.40435e+06 -1.41013e+06 0 2.77433e+06 344058 0 2.14557e+06 643489 0 1.75071e+06 678869 0 1.46433e+06 641078 0 1.24368e+06 576474 0 1.06772e+06 503607 0 924289 431244 0 807265 362519 0 711986 298858 0 635554 240291 0 575658 186369 0 530668 136310 0 499353 89213.1 0 480890 44106.4 0 474790 0 0 3.73817e+06 -1.27806e+06 0 2.79333e+06 452162 0 2.1334e+06 711295 0 1.72786e+06 727847 0 1.43779e+06 680948 0 1.21569e+06 610302 0 1.03986e+06 533420 0 897367 457762 0 781784 386110 0 688107 319599 0 613247 258126 0 554711 201153 0 510733 147841 0 479963 97232.3 0 461459 48303 0 454618 0 0 4.05968e+06 -1.08502e+06 0 2.80672e+06 563695 0 2.11962e+06 780289 0 1.70445e+06 777443 0 1.41095e+06 721566 0 1.18752e+06 644593 0 1.01175e+06 563537 0 870052 484343 0 755708 409579 0 663405 340062 0 589876 275583 0 532455 215514 0 489250 158960 0 458793 104911 0 440030 52294.4 0 432246 0 0 4.36077e+06 -828339 0 2.81468e+06 677983 0 2.10463e+06 850159 0 1.68077e+06 827742 0 1.38397e+06 762897 0 1.1593e+06 679368 0 983429 593970 0 842380 511007 0 729049 432954 0 637896 360280 0 565461 292698 0 508922 229487 0 466264 169699 0 435905 112276 0 416683 56096.4 0 407773 0 0 4.63135e+06 -507226 0 2.81782e+06 794534 0 2.08882e+06 920610 0 1.65708e+06 878911 0 1.357e+06 804900 0 1.13113e+06 714683 0 954952 624742 0 814387 537794 0 701830 456273 0 611604 380294 0 540029 309510 0 484153 243108 0 441833 180091 0 411375 119352 0 391512 59724.5 0 381308 0 0 4.86005e+06 -123872 0 2.81706e+06 913088 0 2.07259e+06 991410 0 1.63361e+06 931159 0 1.33022e+06 847547 0 1.10312e+06 750625 0 926382 655879 0 786115 564757 0 674080 479578 0 584562 400147 0 513622 326061 0 458203 256416 0 416026 190169 0 385290 126165 0 364621 63193.3 0 352972 0 0 5.03527e+06 315677 0 2.81352e+06 1.03361e+06 0 2.05636e+06 1.06246e+06 0 1.61059e+06 984696 0 1.30382e+06 890839 0 1.07533e+06 787293 0 897796 687425 0 757604 591961 0 645839 502919 0 556809 419892 0 486289 342394 0 431138 269448 0 388925 199963 0 357752 132737 0 336127 66515.5 0 322895 0 0 5.14635e+06 801035 0 2.80833e+06 1.15628e+06 0 2.04048e+06 1.13385e+06 0 1.58819e+06 1.03968e+06 0 1.27801e+06 934837 0 1.04785e+06 824787 0 869278 719441 0 728895 619475 0 617155 526354 0 528392 439580 0 458091 358555 0 403029 282244 0 360624 209504 0 328869 139089 0 306157 69702.2 0 291220 0 0 5.18483e+06 1.31752e+06 0 2.80252e+06 1.28137e+06 0 2.02529e+06 1.20588e+06 0 1.56658e+06 1.09619e+06 0 1.25297e+06 979676 0 1.02075e+06 863188 0 840917 752011 0 700029 647374 0 588083 549946 0 499361 459267 0 429094 374587 0 373960 294836 0 331222 218817 0 298763 145239 0 274850 72762.2 0 258096 0 0 5.14552e+06 1.84679e+06 0 2.79685e+06 1.40924e+06 0 2.01102e+06 1.27906e+06 0 1.54595e+06 1.15422e+06 0 1.22887e+06 1.02557e+06 0 994085 902560 0 812794 785243 0 671050 675729 0 558680 573764 0 469772 479007 0 399372 390535 0 344019 307259 0 300829 227924 0 267562 151200 0 242352 75701.8 0 223685 0 0 5.0273e+06 2.36807e+06 0 2.79172e+06 1.54026e+06 0 1.99784e+06 1.35405e+06 0 1.52651e+06 1.21371e+06 0 1.2058e+06 1.07278e+06 0 967962 942949 0 784979 819268 0 642014 704611 0 529003 597886 0 439686 498853 0 369001 406441 0 313299 319541 0 269560 236844 0 235400 156982 0 208817 78524.4 0 188154 0 0 4.83338e+06 2.85971e+06 0 2.78708e+06 1.67475e+06 0 1.9858e+06 1.43157e+06 0 1.50849e+06 1.27458e+06 0 1.18385e+06 1.12159e+06 0 942495 984410 0 757522 854218 0 612982 734094 0 499104 622387 0 409167 518858 0 338059 422346 0 281898 331707 0 237533 245592 0 202419 162590 0 174405 81230.6 0 151678 0 0 4.57102e+06 3.3009e+06 0 2.78244e+06 1.81293e+06 0 1.97491e+06 1.51227e+06 0 1.49214e+06 1.33685e+06 0 1.16302e+06 1.17223e+06 0 917815 1.02702e+06 0 730455 890223 0 584027 764261 0 469028 647344 0 378283 539074 0 306622 438285 0 249914 343777 0 204871 254175 0 168762 168025 0 139281 83817.7 0 114439 0 0 4.25072e+06 3.67315e+06 0 2.77692e+06 1.95488e+06 0 1.96513e+06 1.59665e+06 0 1.47764e+06 1.40064e+06 0 1.14334e+06 1.2249e+06 0 894055 1.0709e+06 0 703802 927393 0 555225 795204 0 438816 672829 0 347101 559555 0 274764 454291 0 217446 355768 0 171692 262598 0 134576 173283 0 103613 86279.9 0 76622.8 0 0 3.88504e+06 3.96125e+06 0 2.76939e+06 2.10047e+06 0 1.95643e+06 1.68501e+06 0 1.46513e+06 1.46622e+06 0 1.12479e+06 1.27967e+06 0 871336 1.11622e+06 0 677584 965819 0 526648 827027 0 408501 698908 0 315688 580353 0 242553 470393 0 184592 367693 0 138116 270858 0 100006 178355 0 67572.2 88607.6 0 38420.6 0 0 3.48718e+06 4.15337e+06 0 2.75872e+06 2.24925e+06 0 1.94872e+06 1.77747e+06 0 1.45464e+06 1.53394e+06 0 1.10743e+06 1.33659e+06 0 849755 1.16316e+06 0 651827 1.00558e+06 0 498366 859847 0 378112 725643 0 284108 601523 0 210050 486614 0 151447 379561 0 104257 278947 0 65196.9 183228 0 31327.5 90787.6 0 22.9937 0 0 </DataArray> 
</PointData> 
<Points> 
<DataArray type="Float32" NumberOfComponents="3"> 
0.2018 0.0378 0 0.213213 0.0378 0 0.224627 0.0378 0 0.23604 0.0378 0 0.247453 0.0378 0 0.258867 0.0378 0 0.27028 0.0378 0 0.281693 0.0378 0 0.293107 0.0378 0 0.30452 0.0378 0 0.315933 0.0378 0 0.327347 0.0378 0 0.33876 0.0378 0 0.350173 0.0378 0 0.361587 0.0378 0 0.373 0.0378 0 0.202149 0.0387237 0 0.213687 0.0389954 0 0.225203 0.0392665 0 0.236698 0.0395372 0 0.248172 0.0398074 0 0.259625 0.0400771 0 0.271056 0.0403462 0 0.282467 0.0406149 0 0.293856 0.0408831 0 0.305225 0.0411508 0 0.316573 0.041418 0 0.3279 0.0416847 0 0.339206 0.0419509 0 0.350491 0.0422167 0 0.361756 0.0424819 0 0.373 0.0427467 0 0.20244 0.0396791 0 0.214088 0.0402264 0 0.225695 0.0407718 0 0.237262 0.0413153 0 0.248788 0.0418569 0 0.260275 0.0423967 0 0.271723 0.0429345 0 0.283131 0.0434706 0 0.2945 0.0440048 0 0.305829 0.0445371 0 0.31712 0.0450677 0 0.328373 0.0455964 0 0.339587 0.0461233 0 0.350762 0.0466484 0 0.3619 0.0471718 0 0.373 0.0476933 0 0.202665 0.0406613 0 0.214407 0.0414871 0 0.226092 0.0423088 0 0.237721 0.0431266 0 0.249293 0.0439404 0 0.26081 0.0447503 0 0.272272 0.0455564 0 0.283678 0.0463585 0 0.29503 0.0471568 0 0.306328 0.0479514 0 0.317572 0.0487421 0 0.328763 0.0495291 0 0.339901 0.0503123 0 0.350986 0.0510919 0 0.362019 0.0518678 0 0.373 0.05264 0 0.202815 0.0416648 0 0.214636 0.0427707 0 0.226387 0.0438701 0 0.238068 0.0449629 0 0.249679 0.0460492 0 0.261222 0.0471291 0 0.272696 0.0482026 0 0.284103 0.0492698 0 0.295443 0.0503307 0 0.306717 0.0513855 0 0.317925 0.0524341 0 0.329068 0.0534766 0 0.340147 0.054513 0 0.351161 0.0555435 0 0.362112 0.056568 0 0.373 0.0575867 0 0.202884 0.0426835 0 0.214769 0.0440702 0 0.226572 0.0454474 0 0.238295 0.0468153 0 0.249938 0.048174 0 0.261503 0.0495234 0 0.272991 0.0508638 0 0.284401 0.0521952 0 0.295735 0.0535177 0 0.306993 0.0548314 0 0.318177 0.0561363 0 0.329287 0.0574327 0 0.340323 0.0587204 0 0.351287 0.0599998 0 0.362179 0.0612707 0 0.373 0.0625333 0 0.202865 0.0437111 0 0.214797 0.045378 0 0.22664 0.0470325 0 0.238396 0.0486749 0 0.250065 0.0503052 0 0.26165 0.0519236 0 0.27315 0.0535303 0 0.284566 0.0551252 0 0.2959 0.0567087 0 0.307153 0.0582807 0 0.318324 0.0598414 0 0.329416 0.061391 0 0.340428 0.0629295 0 0.351363 0.0644571 0 0.36222 0.0659739 0 0.373 0.06748 0 0.202753 0.044741 0 0.214716 0.0466863 0 0.226586 0.0486167 0 0.238365 0.0505323 0 0.250055 0.0524333 0 0.261656 0.0543198 0 0.27317 0.0561921 0 0.284596 0.0580503 0 0.295937 0.0598946 0 0.307193 0.061725 0 0.318365 0.0635419 0 0.329454 0.0653452 0 0.340461 0.0671352 0 0.351388 0.068912 0 0.362233 0.0706758 0 0.373 0.0724267 0 0.202544 0.0457665 0 0.214521 0.0479873 0 0.226406 0.0501911 0 0.2382 0.052378 0 0.249904 0.0545482 0 0.261519 0.056702 0 0.273047 0.0588395 0 0.284487 0.0609608 0 0.295842 0.0630663 0 0.307112 0.065156 0 0.318298 0.0672302 0 0.329401 0.0692889 0 0.340421 0.0713324 0 0.351361 0.0733609 0 0.36222 0.0753745 0 0.373 0.0773733 0 0.202234 0.0467809 0 0.214209 0.0492732 0 0.226096 0.0517471 0 0.237896 0.0542028 0 0.249609 0.0566404 0 0.261236 0.0590602 0 0.272779 0.0614625 0 0.284238 0.0638472 0 0.295614 0.0662148 0 0.306908 0.0685652 0 0.318121 0.0708989 0 0.329254 0.0732158 0 0.340307 0.0755162 0 0.351282 0.0778002 0 0.36218 0.0800681 0 0.373 0.08232 0 0.201821 0.0477777 0 0.213779 0.0505364 0 0.225656 0.0532763 0 0.237453 0.0559975 0 0.249169 0.0587004 0 0.260806 0.0613849 0 0.272366 0.0640515 0 0.283847 0.0667001 0 0.295252 0.0693311 0 0.306581 0.0719445 0 0.317834 0.0745406 0 0.329013 0.0771195 0 0.340119 0.0796814 0 0.351151 0.0822264 0 0.362111 0.0847548 0 0.373 0.0872667 0 0.201305 0.0487506 0 0.213231 0.0517696 0 0.225086 0.0547705 0 0.23687 0.0577536 0 0.248585 0.0607189 0 0.26023 0.0636668 0 0.271806 0.0665972 0 0.283314 0.0695104 0 0.294755 0.0724065 0 0.306129 0.0752857 0 0.317437 0.0781481 0 0.328679 0.0809938 0 0.339855 0.0838231 0 0.350967 0.086636 0 0.362015 0.0894327 0 0.373 0.0922133 0 0.200686 0.0496939 0 0.212565 0.052966 0 0.224386 0.0562223 0 0.23615 0.0594627 0 0.247857 0.0626876 0 0.259507 0.0658969 0 0.271102 0.0690907 0 0.282641 0.0722693 0 0.294125 0.0754327 0 0.305554 0.078581 0 0.316928 0.0817144 0 0.328249 0.0848328 0 0.339516 0.0879365 0 0.35073 0.0910255 0 0.361891 0.0941 0 0.373 0.09716 0 0.199967 0.0506023 0 0.211784 0.0541196 0 0.223559 0.0576246 0 0.235294 0.0611174 0 0.246988 0.0645982 0 0.258641 0.068067 0 0.270254 0.0715238 0 0.281828 0.0749686 0 0.293361 0.0784017 0 0.304855 0.081823 0 0.31631 0.0852325 0 0.327726 0.0886304 0 0.339102 0.0920167 0 0.35044 0.0953915 0 0.361739 0.0987548 0 0.373 0.102107 0 0.199151 0.0514711 0 0.210891 0.0552247 0 0.222609 0.0589712 0 0.234306 0.0627109 0 0.245981 0.0664436 0 0.257635 0.0701695 0 0.269267 0.0738885 0 0.280878 0.0776006 0 0.292467 0.0813059 0 0.304036 0.0850044 0 0.315582 0.0886961 0 0.327108 0.092381 0 0.338613 0.0960592 0 0.350096 0.0997306 0 0.361559 0.103395 0 0.373 0.107053 0 0.19824 0.0522963 0 0.209891 0.0562766 0 0.221542 0.0602568 0 0.233192 0.0642371 0 0.244843 0.0682173 0 0.256494 0.0721976 0 0.268144 0.0761778 0 0.279795 0.080158 0 0.291446 0.0841383 0 0.303096 0.0881185 0 0.314747 0.0920988 0 0.326397 0.096079 0 0.338048 0.100059 0 0.349699 0.10404 0 0.361349 0.10802 0 0.373 0.112 0 
</DataArray>
</Points> 
</Piece> 
</StructuredGrid> 
</VTKFile> 
