<?xml version="1.0"?> 
<VTKFile type="StructuredGrid" version="0.1"> 
<StructuredGrid WholeExtent="0 15 0 15 0 0"> 
<Piece Extent="0 15 0 15 0 0"> 
<PointData>
<DataArray type="Float32" Name="|E|" format="ascii" NumberOfComponents="3"> 
1.09168e+06 -453965 0 1.65452e+06 -207765 0 1.78733e+06 -34711.6 0 1.74397e+06 71525.3 0 1.60347e+06 126723 0 1.42959e+06 139595 0 1.25646e+06 134583 0 1.09782e+06 120362 0 959824 103525 0 843313 86204.8 0 747931 69626.4 0 672306 54072.7 0 615144 39545.3 0 575220 25868.6 0 551643 12781.5 0 543848 0 0 1.14871e+06 -477682 0 1.66798e+06 -217345 0 1.79638e+06 -34202.7 0 1.74648e+06 79439 0 1.60231e+06 136261 0 1.42699e+06 149526 0 1.25349e+06 143665 0 1.09509e+06 128399 0 957457 110365 0 841369 91890.3 0 746355 74212.2 0 671042 57634.7 0 614116 42151.9 0 574360 27574.2 0 550881 13624.9 0 543120 0 0 1.20055e+06 -499240 0 1.68275e+06 -226443 0 1.80571e+06 -32944.8 0 1.74911e+06 87642.1 0 1.60115e+06 145994 0 1.42433e+06 159496 0 1.25047e+06 152752 0 1.09229e+06 136414 0 955027 117181 0 839363 97551.5 0 744721 78777.8 0 669723 61180.8 0 613037 44746.9 0 573451 29272.4 0 550072 14464.7 0 542343 0 0 1.24814e+06 -519027 0 1.69866e+06 -234988 0 1.81533e+06 -30954.8 0 1.75184e+06 96154.9 0 1.6e+06 155917 0 1.42163e+06 169507 0 1.24739e+06 161841 0 1.08942e+06 144406 0 952532 123971 0 837294 103188 0 743029 83322.9 0 668349 64710.9 0 611906 47330.1 0 572492 30963 0 549215 15300.6 0 541520 0 0 1.29224e+06 -537365 0 1.71559e+06 -242923 0 1.82523e+06 -28242.3 0 1.75466e+06 104994 0 1.59883e+06 166027 0 1.41887e+06 179561 0 1.24424e+06 170934 0 1.08648e+06 152377 0 949973 130736 0 835162 108801 0 741279 87847.3 0 666920 68224.8 0 610724 49901.5 0 571484 32645.9 0 548310 16132.8 0 540648 0 0 1.33351e+06 -554528 0 1.73342e+06 -250206 0 1.83542e+06 -24810.9 0 1.75755e+06 114174 0 1.59764e+06 176321 0 1.41606e+06 189660 0 1.24104e+06 180028 0 1.08347e+06 160326 0 947350 137476 0 832968 114388 0 739471 92350.8 0 665437 71722.1 0 609490 52460.8 0 570427 34321 0 547357 16961.1 0 539730 0 0 1.37251e+06 -570746 0 1.75209e+06 -256802 0 1.84588e+06 -20658.4 0 1.76048e+06 123706 0 1.59641e+06 186797 0 1.41318e+06 199804 0 1.23776e+06 189123 0 1.0804e+06 168254 0 944662 144190 0 830711 119951 0 737605 96833.1 0 663898 75202.8 0 608204 55007.9 0 569320 35988.2 0 546356 17785.4 0 538764 0 0 1.40971e+06 -586217 0 1.77152e+06 -262684 0 1.8566e+06 -15778.3 0 1.76345e+06 133597 0 1.59515e+06 197452 0 1.41023e+06 209994 0 1.23442e+06 198219 0 1.07725e+06 176159 0 941908 150877 0 828392 125488 0 735681 101294 0 662306 78666.5 0 606868 57542.6 0 568164 37647.4 0 545307 18605.9 0 537751 0 0 1.44553e+06 -601112 0 1.79167e+06 -267830 0 1.86757e+06 -10159.2 0 1.76643e+06 143854 0 1.59382e+06 208286 0 1.40721e+06 220230 0 1.23101e+06 207314 0 1.07404e+06 184041 0 939089 157538 0 826011 130999 0 733699 105733 0 660659 82113.1 0 605479 60064.7 0 566959 39298.4 0 544211 19422.2 0 536690 0 0 1.48034e+06 -615588 0 1.81249e+06 -272225 0 1.87878e+06 -3785.27 0 1.7694e+06 154479 0 1.59244e+06 219298 0 1.40411e+06 230510 0 1.22753e+06 216409 0 1.07075e+06 191901 0 936204 164172 0 823567 136485 0 731659 110150 0 658957 85542.4 0 604040 62574.2 0 565705 40941.1 0 543067 20234.6 0 535583 0 0 1.51448e+06 -629784 0 1.83396e+06 -275854 0 1.8902e+06 3364.08 0 1.77235e+06 165472 0 1.59098e+06 230489 0 1.40093e+06 240831 0 1.22398e+06 225504 0 1.06739e+06 199737 0 933253 170778 0 821061 141945 0 729562 114546 0 657202 88954.1 0 602550 65070.8 0 564403 42575.5 0 541875 21042.7 0 534428 0 0 1.54827e+06 -643834 0 1.85604e+06 -278708 0 1.90183e+06 11314.9 0 1.77525e+06 176827 0 1.58944e+06 241860 0 1.39767e+06 251191 0 1.22034e+06 234599 0 1.06396e+06 207549 0 930236 177358 0 818493 147378 0 727407 118918 0 655392 92348 0 601009 67554.3 0 563051 44201.3 0 540636 21846.7 0 533227 0 0 1.58202e+06 -657868 0 1.87872e+06 -280784 0 1.91362e+06 20099.4 0 1.77809e+06 188536 0 1.5878e+06 253417 0 1.39432e+06 261585 0 1.21663e+06 243694 0 1.06046e+06 215334 0 927152 183910 0 815863 152783 0 725195 123268 0 653529 95724 0 599417 70024.6 0 561651 45818.6 0 539350 22646.5 0 531978 0 0 1.61604e+06 -672018 0 1.90196e+06 -282081 0 1.92558e+06 29757.9 0 1.78084e+06 200583 0 1.58606e+06 265166 0 1.39088e+06 272004 0 1.21283e+06 252793 0 1.05688e+06 223092 0 924000 190435 0 813172 158162 0 722925 127595 0 651612 99081.7 0 597774 72481.5 0 560202 47427.2 0 538017 23441.8 0 530683 0 0 1.65069e+06 -686426 0 1.92575e+06 -282610 0 1.93766e+06 40340.4 0 1.78349e+06 212945 0 1.58419e+06 277118 0 1.38734e+06 282441 0 1.20895e+06 261897 0 1.05323e+06 230819 0 920781 196934 0 810418 163511 0 720598 131900 0 649641 102421 0 596081 74924.8 0 558705 49027 0 536636 24232.8 0 529341 0 0 1.68632e+06 -701244 0 1.95007e+06 -282389 0 1.94984e+06 51908.6 0 1.78602e+06 225589 0 1.5822e+06 289287 0 1.38371e+06 292881 0 1.20498e+06 271012 0 1.04951e+06 238512 0 917492 203407 0 807604 168832 0 718212 136181 0 647617 105741 0 594337 77354.3 0 557160 50618 0 535209 25019.2 0 527953 0 0 </DataArray> 
</PointData> 
<Points> 
<DataArray type="Float32" NumberOfComponents="3"> 
0.1905 0.0099 0 0.202667 0.0099 0 0.214833 0.0099 0 0.227 0.0099 0 0.239167 0.0099 0 0.251333 0.0099 0 0.2635 0.0099 0 0.275667 0.0099 0 0.287833 0.0099 0 0.3 0.0099 0 0.312167 0.0099 0 0.324333 0.0099 0 0.3365 0.0099 0 0.348667 0.0099 0 0.360833 0.0099 0 0.373 0.0099 0 0.19078 0.0105733 0 0.202928 0.0105733 0 0.215076 0.0105733 0 0.227224 0.0105733 0 0.239372 0.0105733 0 0.25152 0.0105733 0 0.263668 0.0105733 0 0.275816 0.0105733 0 0.287964 0.0105733 0 0.300112 0.0105733 0 0.31226 0.0105733 0 0.324408 0.0105733 0 0.336556 0.0105733 0 0.348704 0.0105733 0 0.360852 0.0105733 0 0.373 0.0105733 0 0.19106 0.0112467 0 0.203189 0.0112467 0 0.215319 0.0112467 0 0.227448 0.0112467 0 0.239577 0.0112467 0 0.251707 0.0112467 0 0.263836 0.0112467 0 0.275965 0.0112467 0 0.288095 0.0112467 0 0.300224 0.0112467 0 0.312353 0.0112467 0 0.324483 0.0112467 0 0.336612 0.0112467 0 0.348741 0.0112467 0 0.360871 0.0112467 0 0.373 0.0112467 0 0.19134 0.01192 0 0.203451 0.01192 0 0.215561 0.01192 0 0.227672 0.01192 0 0.239783 0.01192 0 0.251893 0.01192 0 0.264004 0.01192 0 0.276115 0.01192 0 0.288225 0.01192 0 0.300336 0.01192 0 0.312447 0.01192 0 0.324557 0.01192 0 0.336668 0.01192 0 0.348779 0.01192 0 0.360889 0.01192 0 0.373 0.01192 0 0.19162 0.0125933 0 0.203712 0.0125933 0 0.215804 0.0125933 0 0.227896 0.0125933 0 0.239988 0.0125933 0 0.25208 0.0125933 0 0.264172 0.0125933 0 0.276264 0.0125933 0 0.288356 0.0125933 0 0.300448 0.0125933 0 0.31254 0.0125933 0 0.324632 0.0125933 0 0.336724 0.0125933 0 0.348816 0.0125933 0 0.360908 0.0125933 0 0.373 0.0125933 0 0.1919 0.0132667 0 0.203973 0.0132667 0 0.216047 0.0132667 0 0.22812 0.0132667 0 0.240193 0.0132667 0 0.252267 0.0132667 0 0.26434 0.0132667 0 0.276413 0.0132667 0 0.288487 0.0132667 0 0.30056 0.0132667 0 0.312633 0.0132667 0 0.324707 0.0132667 0 0.33678 0.0132667 0 0.348853 0.0132667 0 0.360927 0.0132667 0 0.373 0.0132667 0 0.19218 0.01394 0 0.204235 0.01394 0 0.216289 0.01394 0 0.228344 0.01394 0 0.240399 0.01394 0 0.252453 0.01394 0 0.264508 0.01394 0 0.276563 0.01394 0 0.288617 0.01394 0 0.300672 0.01394 0 0.312727 0.01394 0 0.324781 0.01394 0 0.336836 0.01394 0 0.348891 0.01394 0 0.360945 0.01394 0 0.373 0.01394 0 0.19246 0.0146133 0 0.204496 0.0146133 0 0.216532 0.0146133 0 0.228568 0.0146133 0 0.240604 0.0146133 0 0.25264 0.0146133 0 0.264676 0.0146133 0 0.276712 0.0146133 0 0.288748 0.0146133 0 0.300784 0.0146133 0 0.31282 0.0146133 0 0.324856 0.0146133 0 0.336892 0.0146133 0 0.348928 0.0146133 0 0.360964 0.0146133 0 0.373 0.0146133 0 0.19274 0.0152867 0 0.204757 0.0152867 0 0.216775 0.0152867 0 0.228792 0.0152867 0 0.240809 0.0152867 0 0.252827 0.0152867 0 0.264844 0.0152867 0 0.276861 0.0152867 0 0.288879 0.0152867 0 0.300896 0.0152867 0 0.312913 0.0152867 0 0.324931 0.0152867 0 0.336948 0.0152867 0 0.348965 0.0152867 0 0.360983 0.0152867 0 0.373 0.0152867 0 0.19302 0.01596 0 0.205019 0.01596 0 0.217017 0.01596 0 0.229016 0.01596 0 0.241015 0.01596 0 0.253013 0.01596 0 0.265012 0.01596 0 0.277011 0.01596 0 0.289009 0.01596 0 0.301008 0.01596 0 0.313007 0.01596 0 0.325005 0.01596 0 0.337004 0.01596 0 0.349003 0.01596 0 0.361001 0.01596 0 0.373 0.01596 0 0.1933 0.0166333 0 0.20528 0.0166333 0 0.21726 0.0166333 0 0.22924 0.0166333 0 0.24122 0.0166333 0 0.2532 0.0166333 0 0.26518 0.0166333 0 0.27716 0.0166333 0 0.28914 0.0166333 0 0.30112 0.0166333 0 0.3131 0.0166333 0 0.32508 0.0166333 0 0.33706 0.0166333 0 0.34904 0.0166333 0 0.36102 0.0166333 0 0.373 0.0166333 0 0.19358 0.0173067 0 0.205541 0.0173067 0 0.217503 0.0173067 0 0.229464 0.0173067 0 0.241425 0.0173067 0 0.253387 0.0173067 0 0.265348 0.0173067 0 0.277309 0.0173067 0 0.289271 0.0173067 0 0.301232 0.0173067 0 0.313193 0.0173067 0 0.325155 0.0173067 0 0.337116 0.0173067 0 0.349077 0.0173067 0 0.361039 0.0173067 0 0.373 0.0173067 0 0.19386 0.01798 0 0.205803 0.01798 0 0.217745 0.01798 0 0.229688 0.01798 0 0.241631 0.01798 0 0.253573 0.01798 0 0.265516 0.01798 0 0.277459 0.01798 0 0.289401 0.01798 0 0.301344 0.01798 0 0.313287 0.01798 0 0.325229 0.01798 0 0.337172 0.01798 0 0.349115 0.01798 0 0.361057 0.01798 0 0.373 0.01798 0 0.19414 0.0186533 0 0.206064 0.0186533 0 0.217988 0.0186533 0 0.229912 0.0186533 0 0.241836 0.0186533 0 0.25376 0.0186533 0 0.265684 0.0186533 0 0.277608 0.0186533 0 0.289532 0.0186533 0 0.301456 0.0186533 0 0.31338 0.0186533 0 0.325304 0.0186533 0 0.337228 0.0186533 0 0.349152 0.0186533 0 0.361076 0.0186533 0 0.373 0.0186533 0 0.19442 0.0193267 0 0.206325 0.0193267 0 0.218231 0.0193267 0 0.230136 0.0193267 0 0.242041 0.0193267 0 0.253947 0.0193267 0 0.265852 0.0193267 0 0.277757 0.0193267 0 0.289663 0.0193267 0 0.301568 0.0193267 0 0.313473 0.0193267 0 0.325379 0.0193267 0 0.337284 0.0193267 0 0.349189 0.0193267 0 0.361095 0.0193267 0 0.373 0.0193267 0 0.1947 0.02 0 0.206587 0.02 0 0.218473 0.02 0 0.23036 0.02 0 0.242247 0.02 0 0.254133 0.02 0 0.26602 0.02 0 0.277907 0.02 0 0.289793 0.02 0 0.30168 0.02 0 0.313567 0.02 0 0.325453 0.02 0 0.33734 0.02 0 0.349227 0.02 0 0.361113 0.02 0 0.373 0.02 0 
</DataArray>
</Points> 
</Piece> 
</StructuredGrid> 
</VTKFile> 
