<?xml version="1.0"?> 
<VTKFile type="StructuredGrid" version="0.1"> 
<StructuredGrid WholeExtent="0 15 0 15 0 0"> 
<Piece Extent="0 15 0 15 0 0"> 
<PointData>
<DataArray type="Float32" Name="|E|" format="ascii" NumberOfComponents="3"> 
-3.91687e+06 0 0 -3.36359e+06 106898 0 -3.32151e+06 74841 0 -3.28384e+06 19607.3 0 -3.26253e+06 20398.7 0 -3.25531e+06 7116.59 0 -3.25764e+06 8856.16 0 -3.27196e+06 7395.23 0 -3.29602e+06 9460.54 0 -3.33115e+06 10959.4 0 -3.3768e+06 12931.2 0 -3.43352e+06 14377.4 0 -3.50026e+06 14788.5 0 -3.57263e+06 13113.2 0 -3.63595e+06 8103.86 0 -3.66314e+06 -3.57628e-07 0 -3.71869e+06 0 0 -3.39627e+06 98771.1 0 -3.32684e+06 54235.9 0 -3.28706e+06 20927.9 0 -3.26445e+06 14101.2 0 -3.25535e+06 8379.79 0 -3.25786e+06 9552.37 0 -3.27143e+06 11327.2 0 -3.29564e+06 14812.1 0 -3.33055e+06 18536.4 0 -3.37632e+06 22468.5 0 -3.43312e+06 25965.5 0 -3.50024e+06 28050.6 0 -3.57335e+06 26541.2 0 -3.63786e+06 17590.8 0 -3.6658e+06 1.48313e-07 0 -3.61151e+06 0 0 -3.4123e+06 80857.1 0 -3.33268e+06 40292.7 0 -3.28986e+06 17360.3 0 -3.26553e+06 9908.74 0 -3.25531e+06 8317.52 0 -3.25746e+06 10762.4 0 -3.27068e+06 14955.2 0 -3.2948e+06 20260.8 0 -3.32962e+06 26066.3 0 -3.37542e+06 32030.9 0 -3.43237e+06 37598.9 0 -3.49997e+06 41429 0 -3.57432e+06 40235.7 0 -3.64108e+06 27417.9 0 -3.67055e+06 -1.76951e-07 0 -3.55174e+06 0 0 -3.42009e+06 60820.5 0 -3.33799e+06 28444.9 0 -3.29206e+06 11680.1 0 -3.26601e+06 6356.8 0 -3.25494e+06 7701.3 0 -3.25661e+06 12113.8 0 -3.26958e+06 18454.9 0 -3.29356e+06 25730.9 0 -3.32832e+06 33575.7 0 -3.37413e+06 41609.4 0 -3.43124e+06 49286.3 0 -3.49944e+06 54970.3 0 -3.57549e+06 54334.4 0 -3.64562e+06 37826.4 0 -3.67752e+06 2.44938e-07 0 -3.51777e+06 0 0 -3.42399e+06 41490.1 0 -3.34237e+06 16923.8 0 -3.29357e+06 5034.26 0 -3.26596e+06 2877.39 0 -3.25415e+06 6838.92 0 -3.25536e+06 13466.9 0 -3.26812e+06 21893.6 0 -3.29195e+06 31193.9 0 -3.32664e+06 41073.3 0 -3.37244e+06 51199.3 0 -3.42972e+06 61034.1 0 -3.49862e+06 68715.1 0 -3.5768e+06 68977.3 0 -3.6515e+06 49090.3 0 -3.68692e+06 -3.50177e-07 0 -3.49877e+06 0 0 -3.4263e+06 23542.2 0 -3.34569e+06 5128.69 0 -3.29434e+06 -2127.22 0 -3.26537e+06 -716.53 0 -3.25291e+06 5846.15 0 -3.25371e+06 14777.1 0 -3.26626e+06 25295.4 0 -3.28996e+06 36640.2 0 -3.32457e+06 48560.2 0 -3.37035e+06 60797.3 0 -3.42779e+06 72845.4 0 -3.49744e+06 82697.5 0 -3.57814e+06 84299.1 0 -3.65875e+06 61532.1 0 -3.6991e+06 3.42727e-07 0 -3.48925e+06 0 0 -3.42827e+06 6779.6 0 -3.34795e+06 -7116.88 0 -3.29433e+06 -9625.54 0 -3.26422e+06 -4463.46 0 -3.25121e+06 4767.14 0 -3.25166e+06 16035.6 0 -3.26402e+06 28668.7 0 -3.28759e+06 42067.2 0 -3.32212e+06 56034.7 0 -3.36785e+06 70399.7 0 -3.42544e+06 84718.3 0 -3.49587e+06 96943.1 0 -3.57938e+06 100423 0 -3.66738e+06 75543.7 0 -3.71452e+06 -1.3411e-07 0 -3.48648e+06 0 0 -3.43056e+06 -9329.97 0 -3.34918e+06 -19860.8 0 -3.29349e+06 -17379.5 0 -3.2625e+06 -8346.29 0 -3.24904e+06 3621.59 0 -3.2492e+06 17245.8 0 -3.26139e+06 32017.1 0 -3.28484e+06 47474.8 0 -3.31928e+06 63493.6 0 -3.36495e+06 80002.8 0 -3.42263e+06 96645.2 0 -3.49383e+06 111468 0 -3.58035e+06 117451 0 -3.67738e+06 91610 0 -3.73392e+06 -1.19209e-07 0 -3.48924e+06 0 0 -3.43351e+06 -25443.9 0 -3.34937e+06 -33127.8 0 -3.2918e+06 -25336.7 0 -3.26018e+06 -12327.7 0 -3.24641e+06 2421.87 0 -3.24633e+06 18415.2 0 -3.25837e+06 35343.1 0 -3.28172e+06 52863.9 0 -3.31605e+06 70932.4 0 -3.36163e+06 89602.6 0 -3.41936e+06 108611 0 -3.49125e+06 126280 0 -3.58081e+06 135449 0 -3.68863e+06 110335 0 -3.75837e+06 1.3411e-07 0 -3.49723e+06 0 0 -3.43727e+06 -42277.3 0 -3.34846e+06 -46946.9 0 -3.2892e+06 -33446.3 0 -3.25726e+06 -16362.8 0 -3.2433e+06 1178.58 0 -3.24303e+06 19551.9 0 -3.25496e+06 38649.1 0 -3.27821e+06 58235.8 0 -3.31243e+06 78345.9 0 -3.35789e+06 99195 0 -3.4156e+06 120595 0 -3.48807e+06 141371 0 -3.58048e+06 154433 0 -3.70094e+06 132460 0 -3.78958e+06 -2.16067e-07 0 -3.51094e+06 0 0 -3.44183e+06 -60595.8 0 -3.34633e+06 -61347.2 0 -3.28566e+06 -41646.9 0 -3.25373e+06 -20403.6 0 -3.23972e+06 -98.3572 0 -3.23932e+06 20664.4 0 -3.25116e+06 41937.9 0 -3.27433e+06 63592.4 0 -3.30843e+06 85728.2 0 -3.35372e+06 108775 0 -3.41134e+06 132569 0 -3.48422e+06 156719 0 -3.57904e+06 174354 0 -3.71383e+06 158867 0 -3.83037e+06 3.12924e-07 0 -3.5317e+06 0 0 -3.447e+06 -81219.1 0 -3.34281e+06 -76348.7 0 -3.28112e+06 -49855.7 0 -3.24961e+06 -24402.1 0 -3.23568e+06 -1399.22 0 -3.23518e+06 21760.3 0 -3.24696e+06 45213.5 0 -3.27006e+06 68934.4 0 -3.30405e+06 93075.5 0 -3.34911e+06 118331 0 -3.40658e+06 144513 0 -3.47964e+06 172258 0 -3.57613e+06 195120 0 -3.72639e+06 190502 0 -3.88554e+06 -1.78814e-07 0 -3.56218e+06 0 0 -3.45231e+06 -104998 0 -3.33764e+06 -91966 0 -3.27556e+06 -57948.9 0 -3.24491e+06 -28319.5 0 -3.23117e+06 -2711.6 0 -3.23061e+06 22844.3 0 -3.24238e+06 48483.2 0 -3.26541e+06 74257.9 0 -3.29929e+06 100395 0 -3.34407e+06 127828 0 -3.40129e+06 156451 0 -3.47428e+06 187816 0 -3.5714e+06 216690 0 -3.73688e+06 228147 0 -3.96372e+06 1.63913e-07 0 -3.60733e+06 0 0 -3.4568e+06 -132698 0 -3.33052e+06 -108260 0 -3.26893e+06 -65712.6 0 -3.23966e+06 -32150.7 0 -3.2262e+06 -4009.39 0 -3.22561e+06 23910.8 0 -3.23741e+06 51765.4 0 -3.26038e+06 79541.3 0 -3.29415e+06 107729 0 -3.33862e+06 137152 0 -3.39547e+06 168556 0 -3.46812e+06 202919 0 -3.56469e+06 239388 0 -3.74197e+06 271774 0 -4.081e+06 -1.93715e-07 0 -3.67645e+06 0 0 -3.45862e+06 -164658 0 -3.32117e+06 -125519 0 -3.26125e+06 -72719.5 0 -3.23389e+06 -35990.7 0 -3.2208e+06 -5220.22 0 -3.22018e+06 24922.9 0 -3.23203e+06 55110.4 0 -3.25502e+06 84710.9 0 -3.28859e+06 115228 0 -3.33281e+06 145977 0 -3.38902e+06 181416 0 -3.46121e+06 216311 0 -3.55617e+06 264759 0 -3.73535e+06 318985 0 -4.2683e+06 1.49012e-07 0 -3.78742e+06 0 0 -3.45422e+06 -199964 0 -3.30945e+06 -144710 0 -3.25254e+06 -78054.1 0 -3.22762e+06 -40189 0 -3.215e+06 -6145.13 0 -3.21431e+06 25761.9 0 -3.22622e+06 58651.8 0 -3.24941e+06 89557.1 0 -3.28246e+06 123310 0 -3.32691e+06 153440 0 -3.38166e+06 196652 0 -3.45367e+06 224837 0 -3.54693e+06 297535 0 -3.70496e+06 361620 0 -4.58658e+06 -3.57628e-07 0 </DataArray> 
</PointData> 
<Points> 
<DataArray type="Float32" NumberOfComponents="3"> 
0.016 0.01 0 0.0199333 0.01 0 0.0238667 0.01 0 0.0278 0.01 0 0.0317333 0.01 0 0.0356667 0.01 0 0.0396 0.01 0 0.0435333 0.01 0 0.0474667 0.01 0 0.0514 0.01 0 0.0553333 0.01 0 0.0592667 0.01 0 0.0632 0.01 0 0.0671333 0.01 0 0.0710667 0.01 0 0.075 0.01 0 0.016 0.0107333 0 0.0199333 0.0107333 0 0.0238667 0.0107333 0 0.0278 0.0107333 0 0.0317333 0.0107333 0 0.0356667 0.0107333 0 0.0396 0.0107333 0 0.0435333 0.0107333 0 0.0474667 0.0107333 0 0.0514 0.0107333 0 0.0553333 0.0107333 0 0.0592667 0.0107333 0 0.0632 0.0107333 0 0.0671333 0.0107333 0 0.0710667 0.0107333 0 0.075 0.0107333 0 0.016 0.0114667 0 0.0199333 0.0114667 0 0.0238667 0.0114667 0 0.0278 0.0114667 0 0.0317333 0.0114667 0 0.0356667 0.0114667 0 0.0396 0.0114667 0 0.0435333 0.0114667 0 0.0474667 0.0114667 0 0.0514 0.0114667 0 0.0553333 0.0114667 0 0.0592667 0.0114667 0 0.0632 0.0114667 0 0.0671333 0.0114667 0 0.0710667 0.0114667 0 0.075 0.0114667 0 0.016 0.0122 0 0.0199333 0.0122 0 0.0238667 0.0122 0 0.0278 0.0122 0 0.0317333 0.0122 0 0.0356667 0.0122 0 0.0396 0.0122 0 0.0435333 0.0122 0 0.0474667 0.0122 0 0.0514 0.0122 0 0.0553333 0.0122 0 0.0592667 0.0122 0 0.0632 0.0122 0 0.0671333 0.0122 0 0.0710667 0.0122 0 0.075 0.0122 0 0.016 0.0129333 0 0.0199333 0.0129333 0 0.0238667 0.0129333 0 0.0278 0.0129333 0 0.0317333 0.0129333 0 0.0356667 0.0129333 0 0.0396 0.0129333 0 0.0435333 0.0129333 0 0.0474667 0.0129333 0 0.0514 0.0129333 0 0.0553333 0.0129333 0 0.0592667 0.0129333 0 0.0632 0.0129333 0 0.0671333 0.0129333 0 0.0710667 0.0129333 0 0.075 0.0129333 0 0.016 0.0136667 0 0.0199333 0.0136667 0 0.0238667 0.0136667 0 0.0278 0.0136667 0 0.0317333 0.0136667 0 0.0356667 0.0136667 0 0.0396 0.0136667 0 0.0435333 0.0136667 0 0.0474667 0.0136667 0 0.0514 0.0136667 0 0.0553333 0.0136667 0 0.0592667 0.0136667 0 0.0632 0.0136667 0 0.0671333 0.0136667 0 0.0710667 0.0136667 0 0.075 0.0136667 0 0.016 0.0144 0 0.0199333 0.0144 0 0.0238667 0.0144 0 0.0278 0.0144 0 0.0317333 0.0144 0 0.0356667 0.0144 0 0.0396 0.0144 0 0.0435333 0.0144 0 0.0474667 0.0144 0 0.0514 0.0144 0 0.0553333 0.0144 0 0.0592667 0.0144 0 0.0632 0.0144 0 0.0671333 0.0144 0 0.0710667 0.0144 0 0.075 0.0144 0 0.016 0.0151333 0 0.0199333 0.0151333 0 0.0238667 0.0151333 0 0.0278 0.0151333 0 0.0317333 0.0151333 0 0.0356667 0.0151333 0 0.0396 0.0151333 0 0.0435333 0.0151333 0 0.0474667 0.0151333 0 0.0514 0.0151333 0 0.0553333 0.0151333 0 0.0592667 0.0151333 0 0.0632 0.0151333 0 0.0671333 0.0151333 0 0.0710667 0.0151333 0 0.075 0.0151333 0 0.016 0.0158667 0 0.0199333 0.0158667 0 0.0238667 0.0158667 0 0.0278 0.0158667 0 0.0317333 0.0158667 0 0.0356667 0.0158667 0 0.0396 0.0158667 0 0.0435333 0.0158667 0 0.0474667 0.0158667 0 0.0514 0.0158667 0 0.0553333 0.0158667 0 0.0592667 0.0158667 0 0.0632 0.0158667 0 0.0671333 0.0158667 0 0.0710667 0.0158667 0 0.075 0.0158667 0 0.016 0.0166 0 0.0199333 0.0166 0 0.0238667 0.0166 0 0.0278 0.0166 0 0.0317333 0.0166 0 0.0356667 0.0166 0 0.0396 0.0166 0 0.0435333 0.0166 0 0.0474667 0.0166 0 0.0514 0.0166 0 0.0553333 0.0166 0 0.0592667 0.0166 0 0.0632 0.0166 0 0.0671333 0.0166 0 0.0710667 0.0166 0 0.075 0.0166 0 0.016 0.0173333 0 0.0199333 0.0173333 0 0.0238667 0.0173333 0 0.0278 0.0173333 0 0.0317333 0.0173333 0 0.0356667 0.0173333 0 0.0396 0.0173333 0 0.0435333 0.0173333 0 0.0474667 0.0173333 0 0.0514 0.0173333 0 0.0553333 0.0173333 0 0.0592667 0.0173333 0 0.0632 0.0173333 0 0.0671333 0.0173333 0 0.0710667 0.0173333 0 0.075 0.0173333 0 0.016 0.0180667 0 0.0199333 0.0180667 0 0.0238667 0.0180667 0 0.0278 0.0180667 0 0.0317333 0.0180667 0 0.0356667 0.0180667 0 0.0396 0.0180667 0 0.0435333 0.0180667 0 0.0474667 0.0180667 0 0.0514 0.0180667 0 0.0553333 0.0180667 0 0.0592667 0.0180667 0 0.0632 0.0180667 0 0.0671333 0.0180667 0 0.0710667 0.0180667 0 0.075 0.0180667 0 0.016 0.0188 0 0.0199333 0.0188 0 0.0238667 0.0188 0 0.0278 0.0188 0 0.0317333 0.0188 0 0.0356667 0.0188 0 0.0396 0.0188 0 0.0435333 0.0188 0 0.0474667 0.0188 0 0.0514 0.0188 0 0.0553333 0.0188 0 0.0592667 0.0188 0 0.0632 0.0188 0 0.0671333 0.0188 0 0.0710667 0.0188 0 0.075 0.0188 0 0.016 0.0195333 0 0.0199333 0.0195333 0 0.0238667 0.0195333 0 0.0278 0.0195333 0 0.0317333 0.0195333 0 0.0356667 0.0195333 0 0.0396 0.0195333 0 0.0435333 0.0195333 0 0.0474667 0.0195333 0 0.0514 0.0195333 0 0.0553333 0.0195333 0 0.0592667 0.0195333 0 0.0632 0.0195333 0 0.0671333 0.0195333 0 0.0710667 0.0195333 0 0.075 0.0195333 0 0.016 0.0202667 0 0.0199333 0.0202667 0 0.0238667 0.0202667 0 0.0278 0.0202667 0 0.0317333 0.0202667 0 0.0356667 0.0202667 0 0.0396 0.0202667 0 0.0435333 0.0202667 0 0.0474667 0.0202667 0 0.0514 0.0202667 0 0.0553333 0.0202667 0 0.0592667 0.0202667 0 0.0632 0.0202667 0 0.0671333 0.0202667 0 0.0710667 0.0202667 0 0.075 0.0202667 0 0.016 0.021 0 0.0199333 0.021 0 0.0238667 0.021 0 0.0278 0.021 0 0.0317333 0.021 0 0.0356667 0.021 0 0.0396 0.021 0 0.0435333 0.021 0 0.0474667 0.021 0 0.0514 0.021 0 0.0553333 0.021 0 0.0592667 0.021 0 0.0632 0.021 0 0.0671333 0.021 0 0.0710667 0.021 0 0.075 0.021 0 
</DataArray>
</Points> 
</Piece> 
</StructuredGrid> 
</VTKFile> 
