<?xml version="1.0"?> 
<VTKFile type="StructuredGrid" version="0.1"> 
<StructuredGrid WholeExtent="0 15 0 15 0 0"> 
<Piece Extent="0 15 0 15 0 0"> 
<PointData>
<DataArray type="Float32" Name="|E|" format="ascii" NumberOfComponents="3"> 
-1.66125e+06 0 0 -1.68789e+06 -59533.9 0 -1.76983e+06 -104958 0 -1.88627e+06 -108289 0 -1.99265e+06 -69950.1 0 -2.07157e+06 -17324.2 0 -2.12631e+06 37006.6 0 -2.16072e+06 90934.7 0 -2.17529e+06 145593 0 -2.16744e+06 201306 0 -2.13129e+06 254060 0 -2.06378e+06 283058 0 -1.99255e+06 258960 0 -1.95599e+06 189457 0 -1.97604e+06 78198.9 0 -2.03266e+06 4.05312e-06 0 -1.66711e+06 0 0 -1.69329e+06 -54217.2 0 -1.77241e+06 -94578.6 0 -1.88415e+06 -96656.8 0 -1.9879e+06 -60753.4 0 -2.06626e+06 -10727.7 0 -2.12101e+06 41424.8 0 -2.15541e+06 93399.2 0 -2.16987e+06 145992 0 -2.16202e+06 199250 0 -2.12685e+06 248866 0 -2.06321e+06 275509 0 -1.99735e+06 253656 0 -1.96504e+06 188060 0 -1.98694e+06 83739.3 0 -2.03681e+06 -3.65078e-07 0 -1.67244e+06 0 0 -1.69813e+06 -49014.6 0 -1.77464e+06 -84611.8 0 -1.88214e+06 -85431.6 0 -1.98343e+06 -51678.3 0 -2.06118e+06 -4146.8 0 -2.11592e+06 45847.9 0 -2.1503e+06 95856.7 0 -2.16467e+06 146382 0 -2.15687e+06 197219 0 -2.12271e+06 243882 0 -2.06268e+06 268498 0 -2.00177e+06 248757 0 -1.97355e+06 187123 0 -1.9974e+06 89062.8 0 -2.04292e+06 -5.40167e-08 0 -1.67726e+06 0 0 -1.70246e+06 -43927.3 0 -1.77654e+06 -75018.1 0 -1.88022e+06 -74575.7 0 -1.9792e+06 -42725.4 0 -2.05633e+06 2415.45 0 -2.11102e+06 50273.7 0 -2.14538e+06 98308.2 0 -2.15969e+06 146765 0 -2.15199e+06 195219 0 -2.11886e+06 239104 0 -2.06219e+06 261972 0 -2.00584e+06 244251 0 -1.98152e+06 186610 0 -2.0075e+06 94272.2 0 -2.05074e+06 4.19095e-08 0 -1.68156e+06 0 0 -1.70627e+06 -38954 0 -1.77813e+06 -65761.4 0 -1.87836e+06 -64054.2 0 -1.97521e+06 -33892.8 0 -2.0517e+06 8956.37 0 -2.10632e+06 54700.3 0 -2.14066e+06 100755 0 -2.15493e+06 147145 0 -2.14736e+06 193255 0 -2.11526e+06 234526 0 -2.0617e+06 255888 0 -2.00957e+06 240125 0 -1.98897e+06 186493 0 -2.01731e+06 99472.2 0 -2.0601e+06 -7.63685e-08 0 -1.68537e+06 0 0 -1.7096e+06 -34091.1 0 -1.77942e+06 -56808.2 0 -1.87657e+06 -53834.8 0 -1.97143e+06 -25177.1 0 -2.0473e+06 15473.9 0 -2.10182e+06 59126.1 0 -2.13615e+06 103197 0 -2.15039e+06 147525 0 -2.14299e+06 191330 0 -2.1119e+06 230139 0 -2.06121e+06 250203 0 -2.01297e+06 236364 0 -1.9959e+06 186748 0 -2.02688e+06 104765 0 -2.07098e+06 5.58794e-08 0 -1.68869e+06 0 0 -1.71247e+06 -29333.6 0 -1.78042e+06 -48127.7 0 -1.87481e+06 -43887.5 0 -1.96785e+06 -16573.4 0 -2.04312e+06 21966.6 0 -2.09753e+06 63549.7 0 -2.13183e+06 105637 0 -2.14606e+06 147907 0 -2.13885e+06 189447 0 -2.10875e+06 225932 0 -2.06071e+06 244880 0 -2.01604e+06 232948 0 -2.00233e+06 187359 0 -2.0362e+06 110246 0 -2.08344e+06 -7.45058e-08 0 -1.69152e+06 0 0 -1.71487e+06 -24675.3 0 -1.78114e+06 -39691.1 0 -1.87308e+06 -34184.1 0 -1.96446e+06 -8075.56 0 -2.03914e+06 28433.6 0 -2.09343e+06 67970.2 0 -2.12771e+06 108074 0 -2.14194e+06 148294 0 -2.13495e+06 187607 0 -2.1058e+06 221895 0 -2.06019e+06 239888 0 -2.01878e+06 229853 0 -2.00826e+06 188314 0 -2.04527e+06 116003 0 -2.09769e+06 1.63913e-07 0 -1.69389e+06 0 0 -1.71684e+06 -20108.8 0 -1.7816e+06 -31471.3 0 -1.87136e+06 -24697.9 0 -1.96125e+06 323.177 0 -2.03537e+06 34874.7 0 -2.08953e+06 72386.6 0 -2.12379e+06 110509 0 -2.13804e+06 148687 0 -2.13127e+06 185813 0 -2.10303e+06 218014 0 -2.05963e+06 235199 0 -2.0212e+06 227053 0 -2.01369e+06 189615 0 -2.05403e+06 122107 0 -2.11407e+06 -1.04308e-07 0 -1.6958e+06 0 0 -1.71837e+06 -15626.4 0 -1.7818e+06 -23442.6 0 -1.86966e+06 -15403.8 0 -1.95821e+06 8630.45 0 -2.03181e+06 41289.9 0 -2.08584e+06 76798.1 0 -2.12007e+06 112945 0 -2.13434e+06 149087 0 -2.12782e+06 184065 0 -2.10042e+06 214274 0 -2.05902e+06 230789 0 -2.02331e+06 224510 0 -2.01863e+06 191274 0 -2.0624e+06 128607 0 -2.13308e+06 8.19564e-08 0 -1.69725e+06 0 0 -1.71949e+06 -11219.5 0 -1.78174e+06 -15580.9 0 -1.86796e+06 -6277.65 0 -1.95532e+06 16854.4 0 -2.02844e+06 47680.1 0 -2.08233e+06 81204.1 0 -2.11655e+06 115381 0 -2.13085e+06 149494 0 -2.12457e+06 182366 0 -2.09797e+06 210654 0 -2.05837e+06 226647 0 -2.02509e+06 222174 0 -2.02309e+06 193330 0 -2.07025e+06 135512 0 -2.15552e+06 -1.04308e-07 0 -1.69825e+06 0 0 -1.7202e+06 -6879.62 0 -1.78145e+06 -7862.62 0 -1.86625e+06 2703.42 0 -1.95259e+06 25003.6 0 -2.02527e+06 54046.2 0 -2.07903e+06 85603.9 0 -2.11323e+06 117819 0 -2.12758e+06 149905 0 -2.12154e+06 180722 0 -2.09566e+06 207129 0 -2.05765e+06 222770 0 -2.02655e+06 219974 0 -2.02707e+06 195854 0 -2.07735e+06 142768 0 -2.18252e+06 1.19209e-07 0 -1.69881e+06 0 0 -1.7205e+06 -2597.62 0 -1.7809e+06 -265.409 0 -1.86454e+06 11561.6 0 -1.95001e+06 33086.8 0 -2.02229e+06 60389.9 0 -2.07592e+06 89996.4 0 -2.1101e+06 120263 0 -2.12451e+06 150318 0 -2.1187e+06 179140 0 -2.0935e+06 203664 0 -2.05686e+06 219176 0 -2.02769e+06 217806 0 -2.03062e+06 198978 0 -2.08342e+06 150222 0 -2.21575e+06 -2.98023e-08 0 -1.69892e+06 0 0 -1.7204e+06 1635.54 0 -1.78012e+06 7232.6 0 -1.86282e+06 20318.3 0 -1.94757e+06 41113.3 0 -2.0195e+06 66713.1 0 -2.07301e+06 94380.2 0 -2.10716e+06 122716 0 -2.12165e+06 150725 0 -2.11604e+06 177637 0 -2.09148e+06 200208 0 -2.05598e+06 215913 0 -2.02851e+06 215508 0 -2.03376e+06 202926 0 -2.08799e+06 157562 0 -2.25761e+06 -1.3411e-07 0 -1.6986e+06 0 0 -1.71992e+06 5828.97 0 -1.77911e+06 14652.8 0 -1.86108e+06 28994.4 0 -1.94526e+06 49092.3 0 -2.01689e+06 73018.3 0 -2.0703e+06 98752.9 0 -2.10441e+06 125185 0 -2.11901e+06 151112 0 -2.11356e+06 176241 0 -2.08962e+06 196685 0 -2.05498e+06 213077 0 -2.02902e+06 212833 0 -2.03656e+06 208073 0 -2.09042e+06 164225 0 -2.31162e+06 8.9407e-08 0 -1.69785e+06 0 0 -1.71904e+06 9991.53 0 -1.77786e+06 22016.2 0 -1.85932e+06 37609.7 0 -1.94309e+06 57033.1 0 -2.01446e+06 79308.5 0 -2.06779e+06 103111 0 -2.10184e+06 127680 0 -2.1166e+06 151455 0 -2.11122e+06 174998 0 -2.08795e+06 192981 0 -2.05381e+06 210839 0 -2.02923e+06 209401 0 -2.03912e+06 215022 0 -2.08977e+06 169279 0 -2.38293e+06 -4.76837e-07 0 </DataArray> 
</PointData> 
<Points> 
<DataArray type="Float32" NumberOfComponents="3"> 
0 0.035 0 0.00666667 0.035 0 0.0133333 0.035 0 0.02 0.035 0 0.0266667 0.035 0 0.0333333 0.035 0 0.04 0.035 0 0.0466667 0.035 0 0.0533333 0.035 0 0.06 0.035 0 0.0666667 0.035 0 0.0733333 0.035 0 0.08 0.035 0 0.0866667 0.035 0 0.0933333 0.035 0 0.1 0.035 0 0 0.0356667 0 0.00666667 0.0356667 0 0.0133333 0.0356667 0 0.02 0.0356667 0 0.0266667 0.0356667 0 0.0333333 0.0356667 0 0.04 0.0356667 0 0.0466667 0.0356667 0 0.0533333 0.0356667 0 0.06 0.0356667 0 0.0666667 0.0356667 0 0.0733333 0.0356667 0 0.08 0.0356667 0 0.0866667 0.0356667 0 0.0933333 0.0356667 0 0.1 0.0356667 0 0 0.0363333 0 0.00666667 0.0363333 0 0.0133333 0.0363333 0 0.02 0.0363333 0 0.0266667 0.0363333 0 0.0333333 0.0363333 0 0.04 0.0363333 0 0.0466667 0.0363333 0 0.0533333 0.0363333 0 0.06 0.0363333 0 0.0666667 0.0363333 0 0.0733333 0.0363333 0 0.08 0.0363333 0 0.0866667 0.0363333 0 0.0933333 0.0363333 0 0.1 0.0363333 0 0 0.037 0 0.00666667 0.037 0 0.0133333 0.037 0 0.02 0.037 0 0.0266667 0.037 0 0.0333333 0.037 0 0.04 0.037 0 0.0466667 0.037 0 0.0533333 0.037 0 0.06 0.037 0 0.0666667 0.037 0 0.0733333 0.037 0 0.08 0.037 0 0.0866667 0.037 0 0.0933333 0.037 0 0.1 0.037 0 0 0.0376667 0 0.00666667 0.0376667 0 0.0133333 0.0376667 0 0.02 0.0376667 0 0.0266667 0.0376667 0 0.0333333 0.0376667 0 0.04 0.0376667 0 0.0466667 0.0376667 0 0.0533333 0.0376667 0 0.06 0.0376667 0 0.0666667 0.0376667 0 0.0733333 0.0376667 0 0.08 0.0376667 0 0.0866667 0.0376667 0 0.0933333 0.0376667 0 0.1 0.0376667 0 0 0.0383333 0 0.00666667 0.0383333 0 0.0133333 0.0383333 0 0.02 0.0383333 0 0.0266667 0.0383333 0 0.0333333 0.0383333 0 0.04 0.0383333 0 0.0466667 0.0383333 0 0.0533333 0.0383333 0 0.06 0.0383333 0 0.0666667 0.0383333 0 0.0733333 0.0383333 0 0.08 0.0383333 0 0.0866667 0.0383333 0 0.0933333 0.0383333 0 0.1 0.0383333 0 0 0.039 0 0.00666667 0.039 0 0.0133333 0.039 0 0.02 0.039 0 0.0266667 0.039 0 0.0333333 0.039 0 0.04 0.039 0 0.0466667 0.039 0 0.0533333 0.039 0 0.06 0.039 0 0.0666667 0.039 0 0.0733333 0.039 0 0.08 0.039 0 0.0866667 0.039 0 0.0933333 0.039 0 0.1 0.039 0 0 0.0396667 0 0.00666667 0.0396667 0 0.0133333 0.0396667 0 0.02 0.0396667 0 0.0266667 0.0396667 0 0.0333333 0.0396667 0 0.04 0.0396667 0 0.0466667 0.0396667 0 0.0533333 0.0396667 0 0.06 0.0396667 0 0.0666667 0.0396667 0 0.0733333 0.0396667 0 0.08 0.0396667 0 0.0866667 0.0396667 0 0.0933333 0.0396667 0 0.1 0.0396667 0 0 0.0403333 0 0.00666667 0.0403333 0 0.0133333 0.0403333 0 0.02 0.0403333 0 0.0266667 0.0403333 0 0.0333333 0.0403333 0 0.04 0.0403333 0 0.0466667 0.0403333 0 0.0533333 0.0403333 0 0.06 0.0403333 0 0.0666667 0.0403333 0 0.0733333 0.0403333 0 0.08 0.0403333 0 0.0866667 0.0403333 0 0.0933333 0.0403333 0 0.1 0.0403333 0 0 0.041 0 0.00666667 0.041 0 0.0133333 0.041 0 0.02 0.041 0 0.0266667 0.041 0 0.0333333 0.041 0 0.04 0.041 0 0.0466667 0.041 0 0.0533333 0.041 0 0.06 0.041 0 0.0666667 0.041 0 0.0733333 0.041 0 0.08 0.041 0 0.0866667 0.041 0 0.0933333 0.041 0 0.1 0.041 0 0 0.0416667 0 0.00666667 0.0416667 0 0.0133333 0.0416667 0 0.02 0.0416667 0 0.0266667 0.0416667 0 0.0333333 0.0416667 0 0.04 0.0416667 0 0.0466667 0.0416667 0 0.0533333 0.0416667 0 0.06 0.0416667 0 0.0666667 0.0416667 0 0.0733333 0.0416667 0 0.08 0.0416667 0 0.0866667 0.0416667 0 0.0933333 0.0416667 0 0.1 0.0416667 0 0 0.0423333 0 0.00666667 0.0423333 0 0.0133333 0.0423333 0 0.02 0.0423333 0 0.0266667 0.0423333 0 0.0333333 0.0423333 0 0.04 0.0423333 0 0.0466667 0.0423333 0 0.0533333 0.0423333 0 0.06 0.0423333 0 0.0666667 0.0423333 0 0.0733333 0.0423333 0 0.08 0.0423333 0 0.0866667 0.0423333 0 0.0933333 0.0423333 0 0.1 0.0423333 0 0 0.043 0 0.00666667 0.043 0 0.0133333 0.043 0 0.02 0.043 0 0.0266667 0.043 0 0.0333333 0.043 0 0.04 0.043 0 0.0466667 0.043 0 0.0533333 0.043 0 0.06 0.043 0 0.0666667 0.043 0 0.0733333 0.043 0 0.08 0.043 0 0.0866667 0.043 0 0.0933333 0.043 0 0.1 0.043 0 0 0.0436667 0 0.00666667 0.0436667 0 0.0133333 0.0436667 0 0.02 0.0436667 0 0.0266667 0.0436667 0 0.0333333 0.0436667 0 0.04 0.0436667 0 0.0466667 0.0436667 0 0.0533333 0.0436667 0 0.06 0.0436667 0 0.0666667 0.0436667 0 0.0733333 0.0436667 0 0.08 0.0436667 0 0.0866667 0.0436667 0 0.0933333 0.0436667 0 0.1 0.0436667 0 0 0.0443333 0 0.00666667 0.0443333 0 0.0133333 0.0443333 0 0.02 0.0443333 0 0.0266667 0.0443333 0 0.0333333 0.0443333 0 0.04 0.0443333 0 0.0466667 0.0443333 0 0.0533333 0.0443333 0 0.06 0.0443333 0 0.0666667 0.0443333 0 0.0733333 0.0443333 0 0.08 0.0443333 0 0.0866667 0.0443333 0 0.0933333 0.0443333 0 0.1 0.0443333 0 0 0.045 0 0.00666667 0.045 0 0.0133333 0.045 0 0.02 0.045 0 0.0266667 0.045 0 0.0333333 0.045 0 0.04 0.045 0 0.0466667 0.045 0 0.0533333 0.045 0 0.06 0.045 0 0.0666667 0.045 0 0.0733333 0.045 0 0.08 0.045 0 0.0866667 0.045 0 0.0933333 0.045 0 0.1 0.045 0 
</DataArray>
</Points> 
</Piece> 
</StructuredGrid> 
</VTKFile> 
