<?xml version="1.0"?> 
<VTKFile type="StructuredGrid" version="0.1"> 
<StructuredGrid WholeExtent="0 15 0 15 0 0"> 
<Piece Extent="0 15 0 15 0 0"> 
<PointData>
<DataArray type="Float32" Name="|E|" format="ascii" NumberOfComponents="3"> 
1.68632e+06 -672635 0 1.95007e+06 -281180 0 1.94984e+06 50659.5 0 1.78602e+06 226285 0 1.5822e+06 288924 0 1.38371e+06 293060 0 1.20498e+06 270927 0 1.04951e+06 238549 0 917492 203392 0 807604 168838 0 718212 136179 0 647617 105742 0 594337 77354.6 0 557160 50617.5 0 535209 25019.6 0 527953 0 0 1.73558e+06 -692283 0 1.99522e+06 -278438 0 1.97151e+06 71978.6 0 1.7904e+06 249826 0 1.57864e+06 310446 0 1.37725e+06 311703 0 1.19796e+06 286933 0 1.04289e+06 252109 0 911632 214742 0 802558 178176 0 713916 143683 0 643948 111562 0 591156 81612.6 0 554325 53405.1 0 532580 26398.1 0 525392 0 0 1.78642e+06 -712562 0 2.04251e+06 -272512 0 1.99322e+06 95944.5 0 1.79425e+06 274551 0 1.57463e+06 332427 0 1.37045e+06 330448 0 1.19066e+06 302913 0 1.03603e+06 265586 0 905560 226001 0 797320 187428 0 709443 151114 0 640113 117324 0 587820 85827.8 0 551342 56164.7 0 529807 27762.7 0 522689 0 0 1.83933e+06 -733666 0 2.0921e+06 -263060 0 2.01475e+06 122630 0 1.79746e+06 300433 0 1.57012e+06 354838 0 1.36329e+06 349280 0 1.18307e+06 318862 0 1.02894e+06 278976 0 899275 237166 0 791891 196590 0 704793 158470 0 636114 123026 0 584328 89999.1 0 548210 58895.5 0 526889 29113.1 0 519842 0 0 1.89492e+06 -755838 0 2.14409e+06 -249644 0 2.03583e+06 152082 0 1.79992e+06 327443 0 1.56506e+06 377647 0 1.35576e+06 368183 0 1.17518e+06 334771 0 1.0216e+06 292274 0 892776 248235 0 786270 205662 0 699966 165750 0 631952 128668 0 580683 94125.8 0 544930 61597.1 0 523827 30449.1 0 516852 0 0 1.95395e+06 -779385 0 2.19854e+06 -231723 0 2.05618e+06 184307 0 1.80152e+06 355550 0 1.5594e+06 400811 0 1.34783e+06 387143 0 1.16699e+06 350631 0 1.01402e+06 305475 0 886062 259204 0 780458 214641 0 694965 172951 0 627627 134248 0 576883 98206.7 0 541503 64268.8 0 520622 31770.3 0 513721 0 0 2.01744e+06 -804709 0 2.25548e+06 -208647 0 2.07548e+06 219264 0 1.80218e+06 384724 0 1.5531e+06 424276 0 1.3395e+06 406149 0 1.15849e+06 366430 0 1.0062e+06 318575 0 879133 270070 0 774458 223524 0 689789 180073 0 623141 139764 0 572932 102241 0 537930 66910.1 0 517275 33076.4 0 510448 0 0 2.08674e+06 -832353 0 2.31483e+06 -179658 0 2.09336e+06 256855 0 1.80178e+06 414942 0 1.54614e+06 447976 0 1.33076e+06 425194 0 1.14966e+06 382152 0 998129 331570 0 871987 280829 0 768269 232311 0 684438 187114 0 618495 145216 0 568828 106228 0 534213 69520.3 0 513786 34367.1 0 507036 0 0 2.16374e+06 -863067 0 2.37637e+06 -143900 0 2.10945e+06 296918 0 1.80024e+06 446185 0 1.53847e+06 471828 0 1.32157e+06 444276 0 1.14052e+06 397777 0 989812 344460 0 864625 291475 0 761892 240998 0 678915 194071 0 613689 150603 0 564573 110167 0 530350 72098.9 0 510157 35642.1 0 503483 0 0 2.25111e+06 -897915 0 2.43967e+06 -100447 0 2.12338e+06 339240 0 1.79747e+06 478434 0 1.53007e+06 495741 0 1.31194e+06 463401 0 1.13104e+06 413283 0 981245 357244 0 857047 302004 0 755328 249585 0 673220 200943 0 608725 155922 0 560169 114056 0 526345 74645.3 0 506387 36901.2 0 499792 0 0 2.3527e+06 -938436 0 2.50404e+06 -48377.1 0 2.13475e+06 383579 0 1.79339e+06 511653 0 1.52094e+06 519619 0 1.30184e+06 482574 0 1.12125e+06 428641 0 972422 369924 0 849258 312406 0 748577 258070 0 667355 207728 0 603603 161174 0 555616 117896 0 522197 77158.7 0 502479 38144.2 0 495964 0 0 2.47417e+06 -986888 0 2.56833e+06 13097.6 0 2.14324e+06 429746 0 1.78792e+06 545741 0 1.51108e+06 543389 0 1.29124e+06 501795 0 1.11115e+06 443827 0 963337 382501 0 841260 322676 0 741638 266454 0 661321 214423 0 598325 166357 0 550915 121684 0 517908 79638.6 0 498433 39370.8 0 491998 0 0 2.62393e+06 -1.04662e+06 0 2.63079e+06 84393.3 0 2.14859e+06 477750 0 1.78097e+06 580444 0 1.5005e+06 567049 0 1.28013e+06 521027 0 1.10075e+06 458832 0 953979 394971 0 833061 332808 0 734508 274733 0 655123 221026 0 592890 171469 0 546069 125421 0 513477 82084.1 0 494250 40581 0 487897 0 0 2.81457e+06 -1.12266e+06 0 2.68882e+06 165145 0 2.15066e+06 528084 0 1.77247e+06 615180 0 1.48921e+06 590775 0 1.26847e+06 540144 0 1.09006e+06 473687 0 944342 407310 0 824666 342806 0 727186 282904 0 648763 227537 0 587299 176509 0 541078 129105 0 508907 84494.8 0 489931 41774.4 0 483661 0 0 3.0651e+06 -1.22259e+06 0 2.73855e+06 253502 0 2.14954e+06 582233 0 1.76237e+06 648706 0 1.47719e+06 615116 0 1.25629e+06 558819 0 1.07907e+06 488525 0 934431 419446 0 816075 352691 0 719674 290953 0 642242 233957 0 581554 181476 0 535945 132735 0 504199 86870.6 0 485477 42950.2 0 479292 0 0 3.40435e+06 -1.35791e+06 0 2.77433e+06 345132 0 2.14557e+06 643468 0 1.75071e+06 678604 0 1.46433e+06 641317 0 1.24368e+06 576343 0 1.06772e+06 503681 0 924289 431209 0 807265 362532 0 711986 298851 0 635554 240291 0 575658 186367 0 530668 136309 0 499353 89213.2 0 480890 44106 0 474790 0 0 </DataArray> 
</PointData> 
<Points> 
<DataArray type="Float32" NumberOfComponents="3"> 
0.1947 0.02 0 0.206587 0.02 0 0.218473 0.02 0 0.23036 0.02 0 0.242247 0.02 0 0.254133 0.02 0 0.26602 0.02 0 0.277907 0.02 0 0.289793 0.02 0 0.30168 0.02 0 0.313567 0.02 0 0.325453 0.02 0 0.33734 0.02 0 0.349227 0.02 0 0.361113 0.02 0 0.373 0.02 0 0.195173 0.0211867 0 0.207028 0.0211867 0 0.218884 0.0211867 0 0.230739 0.0211867 0 0.242594 0.0211867 0 0.254449 0.0211867 0 0.266304 0.0211867 0 0.278159 0.0211867 0 0.290014 0.0211867 0 0.301869 0.0211867 0 0.313724 0.0211867 0 0.32558 0.0211867 0 0.337435 0.0211867 0 0.34929 0.0211867 0 0.361145 0.0211867 0 0.373 0.0211867 0 0.195647 0.0223733 0 0.20747 0.0223733 0 0.219294 0.0223733 0 0.231117 0.0223733 0 0.242941 0.0223733 0 0.254764 0.0223733 0 0.266588 0.0223733 0 0.278412 0.0223733 0 0.290235 0.0223733 0 0.302059 0.0223733 0 0.313882 0.0223733 0 0.325706 0.0223733 0 0.337529 0.0223733 0 0.349353 0.0223733 0 0.361176 0.0223733 0 0.373 0.0223733 0 0.19612 0.02356 0 0.207912 0.02356 0 0.219704 0.02356 0 0.231496 0.02356 0 0.243288 0.02356 0 0.25508 0.02356 0 0.266872 0.02356 0 0.278664 0.02356 0 0.290456 0.02356 0 0.302248 0.02356 0 0.31404 0.02356 0 0.325832 0.02356 0 0.337624 0.02356 0 0.349416 0.02356 0 0.361208 0.02356 0 0.373 0.02356 0 0.196593 0.0247467 0 0.208354 0.0247467 0 0.220114 0.0247467 0 0.231875 0.0247467 0 0.243635 0.0247467 0 0.255396 0.0247467 0 0.267156 0.0247467 0 0.278916 0.0247467 0 0.290677 0.0247467 0 0.302437 0.0247467 0 0.314198 0.0247467 0 0.325958 0.0247467 0 0.337719 0.0247467 0 0.349479 0.0247467 0 0.36124 0.0247467 0 0.373 0.0247467 0 0.197067 0.0259333 0 0.208796 0.0259333 0 0.220524 0.0259333 0 0.232253 0.0259333 0 0.243982 0.0259333 0 0.255711 0.0259333 0 0.26744 0.0259333 0 0.279169 0.0259333 0 0.290898 0.0259333 0 0.302627 0.0259333 0 0.314356 0.0259333 0 0.326084 0.0259333 0 0.337813 0.0259333 0 0.349542 0.0259333 0 0.361271 0.0259333 0 0.373 0.0259333 0 0.19754 0.02712 0 0.209237 0.02712 0 0.220935 0.02712 0 0.232632 0.02712 0 0.244329 0.02712 0 0.256027 0.02712 0 0.267724 0.02712 0 0.279421 0.02712 0 0.291119 0.02712 0 0.302816 0.02712 0 0.314513 0.02712 0 0.326211 0.02712 0 0.337908 0.02712 0 0.349605 0.02712 0 0.361303 0.02712 0 0.373 0.02712 0 0.198013 0.0283067 0 0.209679 0.0283067 0 0.221345 0.0283067 0 0.233011 0.0283067 0 0.244676 0.0283067 0 0.256342 0.0283067 0 0.268008 0.0283067 0 0.279674 0.0283067 0 0.29134 0.0283067 0 0.303005 0.0283067 0 0.314671 0.0283067 0 0.326337 0.0283067 0 0.338003 0.0283067 0 0.349668 0.0283067 0 0.361334 0.0283067 0 0.373 0.0283067 0 0.198487 0.0294933 0 0.210121 0.0294933 0 0.221755 0.0294933 0 0.233389 0.0294933 0 0.245024 0.0294933 0 0.256658 0.0294933 0 0.268292 0.0294933 0 0.279926 0.0294933 0 0.29156 0.0294933 0 0.303195 0.0294933 0 0.314829 0.0294933 0 0.326463 0.0294933 0 0.338097 0.0294933 0 0.349732 0.0294933 0 0.361366 0.0294933 0 0.373 0.0294933 0 0.19896 0.03068 0 0.210563 0.03068 0 0.222165 0.03068 0 0.233768 0.03068 0 0.245371 0.03068 0 0.256973 0.03068 0 0.268576 0.03068 0 0.280179 0.03068 0 0.291781 0.03068 0 0.303384 0.03068 0 0.314987 0.03068 0 0.326589 0.03068 0 0.338192 0.03068 0 0.349795 0.03068 0 0.361397 0.03068 0 0.373 0.03068 0 0.199433 0.0318667 0 0.211004 0.0318667 0 0.222576 0.0318667 0 0.234147 0.0318667 0 0.245718 0.0318667 0 0.257289 0.0318667 0 0.26886 0.0318667 0 0.280431 0.0318667 0 0.292002 0.0318667 0 0.303573 0.0318667 0 0.315144 0.0318667 0 0.326716 0.0318667 0 0.338287 0.0318667 0 0.349858 0.0318667 0 0.361429 0.0318667 0 0.373 0.0318667 0 0.199907 0.0330533 0 0.211446 0.0330533 0 0.222986 0.0330533 0 0.234525 0.0330533 0 0.246065 0.0330533 0 0.257604 0.0330533 0 0.269144 0.0330533 0 0.280684 0.0330533 0 0.292223 0.0330533 0 0.303763 0.0330533 0 0.315302 0.0330533 0 0.326842 0.0330533 0 0.338381 0.0330533 0 0.349921 0.0330533 0 0.36146 0.0330533 0 0.373 0.0330533 0 0.20038 0.03424 0 0.211888 0.03424 0 0.223396 0.03424 0 0.234904 0.03424 0 0.246412 0.03424 0 0.25792 0.03424 0 0.269428 0.03424 0 0.280936 0.03424 0 0.292444 0.03424 0 0.303952 0.03424 0 0.31546 0.03424 0 0.326968 0.03424 0 0.338476 0.03424 0 0.349984 0.03424 0 0.361492 0.03424 0 0.373 0.03424 0 0.200853 0.0354267 0 0.21233 0.0354267 0 0.223806 0.0354267 0 0.235283 0.0354267 0 0.246759 0.0354267 0 0.258236 0.0354267 0 0.269712 0.0354267 0 0.281188 0.0354267 0 0.292665 0.0354267 0 0.304141 0.0354267 0 0.315618 0.0354267 0 0.327094 0.0354267 0 0.338571 0.0354267 0 0.350047 0.0354267 0 0.361524 0.0354267 0 0.373 0.0354267 0 0.201327 0.0366133 0 0.212772 0.0366133 0 0.224216 0.0366133 0 0.235661 0.0366133 0 0.247106 0.0366133 0 0.258551 0.0366133 0 0.269996 0.0366133 0 0.281441 0.0366133 0 0.292886 0.0366133 0 0.304331 0.0366133 0 0.315776 0.0366133 0 0.32722 0.0366133 0 0.338665 0.0366133 0 0.35011 0.0366133 0 0.361555 0.0366133 0 0.373 0.0366133 0 0.2018 0.0378 0 0.213213 0.0378 0 0.224627 0.0378 0 0.23604 0.0378 0 0.247453 0.0378 0 0.258867 0.0378 0 0.27028 0.0378 0 0.281693 0.0378 0 0.293107 0.0378 0 0.30452 0.0378 0 0.315933 0.0378 0 0.327347 0.0378 0 0.33876 0.0378 0 0.350173 0.0378 0 0.361587 0.0378 0 0.373 0.0378 0 
</DataArray>
</Points> 
</Piece> 
</StructuredGrid> 
</VTKFile> 
