<?xml version="1.0"?> 
<VTKFile type="StructuredGrid" version="0.1"> 
<StructuredGrid WholeExtent="0 15 0 15 0 0"> 
<Piece Extent="0 15 0 15 0 0"> 
<PointData>
<DataArray type="Float32" Name="|E|" format="ascii" NumberOfComponents="3"> 
-4.93083e+06 91985.8 0 -5.25387e+06 1.21465e+06 0 -5.18795e+06 2.20763e+06 0 -4.90058e+06 2.97511e+06 0 -4.5289e+06 3.53514e+06 0 -4.14913e+06 3.94317e+06 0 -3.79229e+06 4.25087e+06 0 -3.46545e+06 4.49573e+06 0 -3.16502e+06 4.70235e+06 0 -2.88292e+06 4.88573e+06 0 -2.60908e+06 5.05373e+06 0 -2.33209e+06 5.20825e+06 0 -2.03882e+06 5.34414e+06 0 -1.71304e+06 5.44342e+06 0 -1.3345e+06 5.45968e+06 0 -883649 5.28717e+06 0 -3.55117e+06 1.46087e+06 0 -3.71879e+06 1.84102e+06 0 -3.80681e+06 2.27147e+06 0 -3.7918e+06 2.71869e+06 0 -3.678e+06 3.14199e+06 0 -3.49192e+06 3.51389e+06 0 -3.26419e+06 3.82661e+06 0 -3.01751e+06 4.08524e+06 0 -2.76445e+06 4.29862e+06 0 -2.51029e+06 4.47365e+06 0 -2.25699e+06 4.61299e+06 0 -2.00703e+06 4.71498e+06 0 -1.76686e+06 4.77545e+06 0 -1.54885e+06 4.79223e+06 0 -1.36755e+06 4.77232e+06 0 -1.22639e+06 4.73911e+06 0 -3.00653e+06 1.89516e+06 0 -3.11035e+06 2.12046e+06 0 -3.17586e+06 2.39272e+06 0 -3.18507e+06 2.69854e+06 0 -3.12866e+06 3.01487e+06 0 -3.01072e+06 3.31748e+06 0 -2.84537e+06 3.58935e+06 0 -2.6492e+06 3.82283e+06 0 -2.43619e+06 4.01646e+06 0 -2.21693e+06 4.17108e+06 0 -2.00015e+06 4.28776e+06 0 -1.79452e+06 4.36818e+06 0 -1.60868e+06 4.41641e+06 0 -1.44917e+06 4.44005e+06 0 -1.31861e+06 4.44853e+06 0 -1.22027e+06 4.44911e+06 0 -2.69102e+06 2.08266e+06 0 -2.75638e+06 2.25266e+06 0 -2.79865e+06 2.4589e+06 0 -2.80309e+06 2.69594e+06 0 -2.75915e+06 2.94971e+06 0 -2.66533e+06 3.20183e+06 0 -2.5289e+06 3.43603e+06 0 -2.36192e+06 3.64173e+06 0 -2.17719e+06 3.81386e+06 0 -1.9864e+06 3.95118e+06 0 -1.79985e+06 4.05503e+06 0 -1.62626e+06 4.12911e+06 0 -1.47204e+06 4.17926e+06 0 -1.34056e+06 4.21236e+06 0 -1.23196e+06 4.235e+06 0 -1.14146e+06 4.2523e+06 0 -2.47316e+06 2.17801e+06 0 -2.51596e+06 2.31647e+06 0 -2.54052e+06 2.4869e+06 0 -2.53535e+06 2.68497e+06 0 -2.49155e+06 2.90013e+06 0 -2.4064e+06 3.11775e+06 0 -2.28435e+06 3.32348e+06 0 -2.13486e+06 3.50673e+06 0 -1.96938e+06 3.66168e+06 0 -1.79909e+06 3.78664e+06 0 -1.63377e+06 3.88323e+06 0 -1.48092e+06 3.95549e+06 0 -1.34525e+06 4.0089e+06 0 -1.22846e+06 4.04907e+06 0 -1.12997e+06 4.0806e+06 0 -1.04961e+06 4.10675e+06 0 -2.3118e+06 2.22215e+06 0 -2.33778e+06 2.34304e+06 0 -2.34806e+06 2.49169e+06 0 -2.33338e+06 2.66511e+06 0 -2.28614e+06 2.8548e+06 0 -2.20359e+06 3.04846e+06 0 -2.08898e+06 3.23344e+06 0 -1.95031e+06 3.39989e+06 0 -1.79777e+06 3.54217e+06 0 -1.64161e+06 3.65866e+06 0 -1.49055e+06 3.75103e+06 0 -1.35093e+06 3.82306e+06 0 -1.22634e+06 3.87939e+06 0 -1.11807e+06 3.92446e+06 0 -1.02576e+06 3.96186e+06 0 -947536 3.99414e+06 0 -2.18616e+06 2.23809e+06 0 -2.19847e+06 2.34686e+06 0 -2.19679e+06 2.48126e+06 0 -2.17325e+06 2.6383e+06 0 -2.12135e+06 2.81056e+06 0 -2.03863e+06 2.98729e+06 0 -1.92779e+06 3.15723e+06 0 -1.79585e+06 3.31141e+06 0 -1.65196e+06 3.4446e+06 0 -1.50535e+06 3.5554e+06 0 -1.36374e+06 3.64534e+06 0 -1.23253e+06 3.71779e+06 0 -1.11473e+06 3.77667e+06 0 -1.01131e+06 3.82559e+06 0 -921876 3.86735e+06 0 -845748 3.90389e+06 0 -2.08524e+06 2.23448e+06 0 -2.08556e+06 2.33571e+06 0 -2.07322e+06 2.46063e+06 0 -2.04143e+06 2.60647e+06 0 -1.98449e+06 2.76655e+06 0 -1.90023e+06 2.93119e+06 0 -1.79103e+06 3.09024e+06 0 -1.66318e+06 3.23555e+06 0 -1.52498e+06 3.36235e+06 0 -1.38471e+06 3.4694e+06 0 -1.24925e+06 3.55811e+06 0 -1.12331e+06 3.63142e+06 0 -1.00948e+06 3.69265e+06 0 -908633 3.74478e+06 0 -820568 3.79012e+06 0 -744427 3.83031e+06 0 -2.00203e+06 2.21741e+06 0 -1.99127e+06 2.31393e+06 0 -1.96923e+06 2.43272e+06 0 -1.92973e+06 2.57101e+06 0 -1.86768e+06 2.72258e+06 0 -1.78112e+06 2.87861e+06 0 -1.67223e+06 3.02982e+06 0 -1.54671e+06 3.16879e+06 0 -1.4121e+06 3.2912e+06 0 -1.27591e+06 3.39593e+06 0 -1.14431e+06 3.48426e+06 0 -1.0215e+06 3.55876e+06 0 -909783 3.62231e+06 0 -810017 3.67744e+06 0 -722074 3.72608e+06 0 -645408 3.76956e+06 0 -1.93179e+06 2.18997e+06 0 -1.91065e+06 2.28432e+06 0 -1.87957e+06 2.39953e+06 0 -1.83282e+06 2.53292e+06 0 -1.76571e+06 2.67867e+06 0 -1.67644e+06 2.82864e+06 0 -1.56698e+06 2.97431e+06 0 -1.44256e+06 3.10886e+06 0 -1.31006e+06 3.22837e+06 0 -1.17633e+06 3.33184e+06 0 -1.04695e+06 3.42044e+06 0 -925744 3.49647e+06 0 -814838 3.56244e+06 0 -715078 3.62055e+06 0 -626468 3.67246e+06 0 -548581 3.71935e+06 0 -1.87117e+06 2.15456e+06 0 -1.84023e+06 2.24872e+06 0 -1.80069e+06 2.36237e+06 0 -1.74711e+06 2.49292e+06 0 -1.67506e+06 2.6349e+06 0 -1.58284e+06 2.78076e+06 0 -1.47223e+06 2.92262e+06 0 -1.34801e+06 3.05422e+06 0 -1.21653e+06 3.17198e+06 0 -1.08406e+06 3.27501e+06 0 -955716 3.36441e+06 0 -835004 3.44226e+06 0 -723936 3.51083e+06 0 -623385 3.57208e+06 0 -533480 3.6275e+06 0 -453952 3.6781e+06 0 -1.81779e+06 2.11274e+06 0 -1.77757e+06 2.20846e+06 0 -1.73008e+06 2.32221e+06 0 -1.67004e+06 2.45154e+06 0 -1.59322e+06 2.59135e+06 0 -1.49792e+06 2.73461e+06 0 -1.38575e+06 2.87402e+06 0 -1.26111e+06 3.00381e+06 0 -1.12984e+06 3.1207e+06 0 -997733 3.22394e+06 0 -869506 3.31457e+06 0 -748435 3.39454e+06 0 -636447 3.46595e+06 0 -534465 3.53062e+06 0 -442743 3.5899e+06 0 -361180 3.64476e+06 0 -1.76981e+06 2.06575e+06 0 -1.72087e+06 2.16453e+06 0 -1.66591e+06 2.27975e+06 0 -1.59979e+06 2.40918e+06 0 -1.51837e+06 2.5481e+06 0 -1.41995e+06 2.68995e+06 0 -1.30594e+06 2.82798e+06 0 -1.1804e+06 2.95684e+06 0 -1.04873e+06 3.07357e+06 0 -916285 3.17753e+06 0 -787468 3.26978e+06 0 -665355 3.35217e+06 0 -551824 3.4267e+06 0 -447854 3.49513e+06 0 -353847 3.55879e+06 0 -269873 3.61861e+06 0 -1.72593e+06 2.01455e+06 0 -1.66881e+06 2.11768e+06 0 -1.60687e+06 2.23553e+06 0 -1.53501e+06 2.36615e+06 0 -1.44918e+06 2.50521e+06 0 -1.34764e+06 2.64661e+06 0 -1.2316e+06 2.7841e+06 0 -1.1048e+06 2.91275e+06 0 -972238 3.02988e+06 0 -838912 3.13499e+06 0 -708926 3.22917e+06 0 -585202 3.31426e+06 0 -469581 3.39224e+06 0 -363115 3.46486e+06 0 -266354 3.5335e+06 0 -179571 3.59917e+06 0 -1.68511e+06 1.95991e+06 0 -1.62039e+06 2.06851e+06 0 -1.55192e+06 2.18997e+06 0 -1.47469e+06 2.32269e+06 0 -1.38465e+06 2.46272e+06 0 -1.28001e+06 2.60446e+06 0 -1.16181e+06 2.74209e+06 0 -1.03347e+06 2.8711e+06 0 -899638 2.98908e+06 0 -764978 3.09569e+06 0 -633342 3.19209e+06 0 -507509 3.28016e+06 0 -389297 3.36191e+06 0 -279833 3.4392e+06 0 -179829 3.51354e+06 0 -89784 3.58608e+06 0 -1.64658e+06 1.90247e+06 0 -1.57485e+06 2.01751e+06 0 -1.50032e+06 2.14342e+06 0 -1.41804e+06 2.27899e+06 0 -1.32399e+06 2.4207e+06 0 -1.21631e+06 2.56339e+06 0 -1.09586e+06 2.70172e+06 0 -965766 2.83155e+06 0 -830359 2.95075e+06 0 -693989 3.05916e+06 0 -560281 3.15803e+06 0 -431887 3.24934e+06 0 -310600 3.33523e+06 0 -197625 3.41771e+06 0 -93840 3.49853e+06 0 -2.84253 3.57915e+06 0 </DataArray> 
</PointData> 
<Points> 
<DataArray type="Float32" NumberOfComponents="3"> 
0.101557 0.0513496 0 0.101655 0.0521175 0 0.101927 0.0529408 0 0.102376 0.0538083 0 0.103 0.0547059 0 0.103789 0.0556171 0 0.104727 0.0565231 0 0.105791 0.0574046 0 0.106955 0.0582422 0 0.108186 0.059018 0 0.10945 0.0597163 0 0.110713 0.060325 0 0.111944 0.0608356 0 0.113114 0.0612436 0 0.114201 0.0615482 0 0.115184 0.0617521 0 0.0993063 0.052093 0 0.0995266 0.0530618 0 0.0999276 0.0540907 0 0.100511 0.0551665 0 0.101272 0.0562731 0 0.102201 0.0573915 0 0.103281 0.0585011 0 0.104487 0.0595804 0 0.105794 0.060608 0 0.107168 0.0615642 0 0.108576 0.0624318 0 0.109984 0.0631971 0 0.111361 0.0638503 0 0.112677 0.0643859 0 0.11391 0.0648024 0 0.115039 0.065102 0 0.0970558 0.0528363 0 0.0974087 0.0540014 0 0.097947 0.0552296 0 0.0986706 0.0565063 0 0.0995736 0.0578137 0 0.100644 0.0591312 0 0.101865 0.0604369 0 0.103212 0.0617077 0 0.104658 0.0629211 0 0.106172 0.0640561 0 0.107719 0.0650942 0 0.109267 0.0660205 0 0.110785 0.066824 0 0.112245 0.067498 0 0.11362 0.0680402 0 0.114893 0.0684518 0 0.0948054 0.0535797 0 0.0953015 0.0549362 0 0.0959854 0.0563577 0 0.0968552 0.057828 0 0.0979037 0.0593283 0 0.0991179 0.0608373 0 0.10048 0.0623318 0 0.101966 0.0637883 0 0.103548 0.0651834 0 0.105196 0.0664954 0 0.106879 0.067705 0 0.108563 0.0687963 0 0.110218 0.0697575 0 0.111816 0.0705805 0 0.113332 0.0712618 0 0.114747 0.0718017 0 0.0925549 0.054323 0 0.0932047 0.0558664 0 0.0940424 0.057475 0 0.0950642 0.059132 0 0.0962615 0.0608178 0 0.0976207 0.0625106 0 0.0991232 0.0641871 0 0.100746 0.0658235 0 0.102462 0.0673964 0 0.104242 0.0688836 0 0.106055 0.0702657 0 0.10787 0.071526 0 0.109658 0.0726516 0 0.111391 0.0736337 0 0.113046 0.0744674 0 0.114602 0.0751516 0 0.0903045 0.0550664 0 0.0911185 0.0567919 0 0.0921177 0.0585818 0 0.093297 0.0604186 0 0.0946465 0.0622826 0 0.096152 0.0641521 0 0.0977948 0.066004 0 0.0995523 0.0678149 0 0.101399 0.0695617 0 0.103306 0.0712225 0 0.105246 0.0727777 0 0.107188 0.0742104 0 0.109105 0.0755071 0 0.110971 0.076658 0 0.112761 0.0776569 0 0.114456 0.0785014 0 0.088054 0.0558098 0 0.0890426 0.0577129 0 0.0902112 0.0596781 0 0.0915532 0.0616881 0 0.093058 0.0637233 0 0.0947109 0.0657627 0 0.0964935 0.0677837 0 0.0983842 0.0697639 0 0.100359 0.0716809 0 0.102391 0.0735135 0 0.104453 0.0752425 0 0.106518 0.0768509 0 0.10856 0.0783249 0 0.110554 0.0796539 0 0.112477 0.0808306 0 0.114311 0.0818513 0 0.0858036 0.0565531 0 0.0869769 0.0586293 0 0.0883225 0.0607642 0 0.0898324 0.0629409 0 0.0914954 0.0651407 0 0.0932967 0.0673432 0 0.0952187 0.0695274 0 0.0972408 0.0716719 0 0.0993404 0.0737555 0 0.101493 0.0757581 0 0.103674 0.0776612 0 0.105859 0.0794484 0 0.108022 0.0811056 0 0.110141 0.0826217 0 0.112195 0.0839886 0 0.114165 0.0852011 0 0.0835531 0.0572965 0 0.0849215 0.0595411 0 0.0864514 0.0618402 0 0.0881341 0.0641774 0 0.0899579 0.0665351 0 0.0919086 0.0688945 0 0.0939694 0.0712361 0 0.0961212 0.07354 0 0.0983433 0.0757867 0 0.100614 0.0779576 0 0.10291 0.0800353 0 0.10521 0.0820039 0 0.107491 0.0838499 0 0.109732 0.0855619 0 0.111914 0.087131 0 0.114019 0.088551 0 0.0813027 0.0580398 0 0.0828762 0.0604485 0 0.0845977 0.0629061 0 0.0864578 0.0653978 0 0.0884451 0.0679073 0 0.090546 0.0704175 0 0.0927449 0.0729108 0 0.0950247 0.0753695 0 0.0973668 0.0777761 0 0.099752 0.0801135 0 0.10216 0.0823659 0 0.104572 0.0845186 0 0.106967 0.0865586 0 0.109327 0.0884748 0 0.111635 0.0902579 0 0.113874 0.0919008 0 0.0790522 0.0587832 0 0.080841 0.0613514 0 0.0827611 0.0639623 0 0.0848031 0.0666025 0 0.0869563 0.0692576 0 0.089208 0.0719128 0 0.0915445 0.0745526 0 0.0939506 0.0771617 0 0.0964103 0.0797248 0 0.0989071 0.082227 0 0.101424 0.0846542 0 0.103944 0.0869933 0 0.10645 0.0892324 0 0.108926 0.0913608 0 0.111357 0.0933694 0 0.113728 0.0952507 0 0.0768018 0.0595266 0 0.0788158 0.0622498 0 0.0809413 0.0650087 0 0.0831697 0.0677917 0 0.0854909 0.0705867 0 0.0878941 0.0733812 0 0.0903675 0.0761625 0 0.0928982 0.0789176 0 0.0954732 0.081634 0 0.0980786 0.0842993 0 0.100701 0.0869014 0 0.103325 0.0894291 0 0.105939 0.0918719 0 0.108528 0.0942202 0 0.11108 0.0964656 0 0.113582 0.0986006 0 0.0745513 0.0602699 0 0.0768005 0.0631439 0 0.0791383 0.0660456 0 0.081557 0.0689658 0 0.0840485 0.071895 0 0.0866037 0.0748234 0 0.0892131 0.0777412 0 0.0918669 0.0806384 0 0.0945548 0.0835051 0 0.0972661 0.0863316 0 0.0999903 0.0891085 0 0.102717 0.0918267 0 0.105435 0.0944777 0 0.108134 0.0970535 0 0.110805 0.0995466 0 0.113437 0.10195 0 0.0723009 0.0610133 0 0.074795 0.0640336 0 0.0773516 0.067073 0 0.0799648 0.070125 0 0.0826284 0.073183 0 0.085336 0.0762402 0 0.0880809 0.0792898 0 0.0908561 0.0823251 0 0.0936546 0.085339 0 0.0964691 0.0883251 0 0.0992926 0.0912766 0 0.102118 0.0941872 0 0.104937 0.0970507 0 0.107744 0.099861 0 0.110531 0.102613 0 0.113291 0.1053 0 0.0700504 0.0617566 0 0.0727993 0.0649189 0 0.0755811 0.0680911 0 0.0783926 0.0712697 0 0.0812302 0.0744512 0 0.0840905 0.0776322 0 0.08697 0.0808092 0 0.0898651 0.0839786 0 0.092772 0.087137 0 0.0956872 0.0902809 0 0.098607 0.0934068 0 0.101528 0.0965114 0 0.104445 0.0995912 0 0.107357 0.102643 0 0.110258 0.105664 0 0.113146 0.10865 0 0.0678 0.0625 0 0.0708133 0.0658 0 0.0738267 0.0691 0 0.07684 0.0724 0 0.0798533 0.0757 0 0.0828667 0.079 0 0.08588 0.0823 0 0.0888933 0.0856 0 0.0919067 0.0889 0 0.09492 0.0922 0 0.0979333 0.0955 0 0.100947 0.0988 0 0.10396 0.1021 0 0.106973 0.1054 0 0.109987 0.1087 0 0.113 0.112 0 
</DataArray>
</Points> 
</Piece> 
</StructuredGrid> 
</VTKFile> 
