<?xml version="1.0"?> 
<VTKFile type="StructuredGrid" version="0.1"> 
<StructuredGrid WholeExtent="0 15 0 15 0 0"> 
<Piece Extent="0 15 0 15 0 0"> 
<PointData>
<DataArray type="Float32" Name="|E|" format="ascii" NumberOfComponents="3"> 
2.98023e-07 1.71661e-05 0 -4.07308e-08 829.166 0 2.69501e-08 412.812 0 2.56114e-09 198.525 0 -3.21306e-08 99.8629 0 3.35276e-08 53.4759 0 -3.63216e-08 29.3635 0 3.53903e-08 16.9151 0 -3.07336e-08 9.81665 0 2.04891e-08 5.82042 0 -1.86265e-08 3.45302 0 2.23517e-08 2.05012 0 -3.35276e-08 1.19464 0 2.98023e-08 0.656425 0 7.45058e-09 0.290272 0 -2.68221e-07 4.76837e-07 0 89.2408 -1.82539e-07 0 -16.0172 828.964 0 -10.7273 412.799 0 -6.71611 198.345 0 -3.65865 99.8094 0 -2.20899 53.4183 0 -1.26919 29.3349 0 -0.814178 16.8942 0 -0.497698 9.80319 0 -0.326853 5.81123 0 -0.207883 3.4467 0 -0.137273 2.04582 0 -0.0908365 1.19175 0 -0.0635333 0.654613 0 -0.0492123 0.289363 0 -0.0463008 -9.48785e-08 0 178.92 -1.40443e-06 0 -32.1119 828.352 0 -21.4493 412.766 0 -13.4191 197.802 0 -7.3129 99.6505 0 -4.41178 53.2449 0 -2.53536 29.2498 0 -1.62612 16.8315 0 -0.993694 9.76294 0 -0.652713 5.78367 0 -0.414881 3.42775 0 -0.273993 2.03291 0 -0.181205 1.18311 0 -0.126721 0.649188 0 -0.0981126 0.286641 0 -0.0922728 1.81142e-07 0 269.479 1.33365e-06 0 -48.3609 827.305 0 -32.1613 412.722 0 -20.0953 196.889 0 -10.9587 99.3905 0 -6.60193 52.9541 0 -3.79568 29.1094 0 -2.43353 16.7267 0 -1.48633 9.69621 0 -0.976575 5.73779 0 -0.620118 3.39628 0 -0.40961 2.01146 0 -0.27064 1.16876 0 -0.189221 0.640179 0 -0.14639 0.282127 0 -0.13759 -1.53668e-07 0 361.366 -8.9407e-07 0 -64.8401 825.781 0 -42.8594 412.688 0 -26.7302 195.597 0 -14.593 99.0369 0 -8.77251 52.5431 0 -5.04765 28.9159 0 -3.23395 16.5795 0 -1.97405 9.60356 0 -1.29742 5.67366 0 -0.822732 3.35247 0 -0.54358 1.98155 0 -0.358677 1.14877 0 -0.250695 0.627633 0 -0.193739 0.275852 0 -0.181929 2.55182e-07 0 455.036 1.3113e-06 0 -81.6235 823.725 0 -53.5415 412.689 0 -33.3076 193.91 0 -18.2137 98.6002 0 -10.9158 52.0076 0 -6.28933 28.6725 0 -4.02465 16.3892 0 -2.45545 9.48581 0 -1.61417 5.59134 0 -1.0219 3.29656 0 -0.675365 1.9433 0 -0.444859 1.12328 0 -0.310814 0.611616 0 -0.239856 0.267862 0 -0.22497 -1.86265e-07 0 550.958 -2.98023e-07 0 -98.7828 821.062 0 -64.2073 412.76 0 -39.8092 191.808 0 -21.8206 98.0947 0 -13.0229 51.3422 0 -7.51962 28.3837 0 -4.80252 16.1548 0 -2.92939 9.34406 0 -1.92569 5.49091 0 -1.21684 3.22889 0 -0.804425 1.89684 0 -0.528742 1.09242 0 -0.369259 0.59221 0 -0.284448 0.258214 0 -0.266399 7.07805e-08 0 649.615 -5.96046e-07 0 -116.387 817.7 0 -74.8595 412.946 0 -46.214 189.265 0 -25.4161 97.5382 0 -15.0833 50.5393 0 -8.73859 28.055 0 -5.56381 15.875 0 -3.39514 9.17978 0 -2.23067 5.37239 0 -1.40688 3.14988 0 -0.930209 1.84234 0 -0.609899 1.05637 0 -0.425719 0.569516 0 -0.327232 0.246979 0 -0.305905 -7.45058e-09 0 751.509 -1.19209e-07 0 -134.5 813.53 0 -85.504 413.3 0 -52.4973 186.25 0 -29.0054 96.9529 0 -17.0845 49.5894 0 -9.9479 27.6937 0 -6.30392 15.5478 0 -3.85252 8.99483 0 -2.52756 5.23575 0 -1.5915 3.06003 0 -1.05213 1.78 0 -0.687938 1.01534 0 -0.479888 0.543653 0 -0.367939 0.234239 0 -0.343182 0 0 857.162 2.6226e-06 0 -153.182 808.421 0 -96.1515 413.885 0 -58.6299 182.725 0 -32.5978 96.3657 0 -19.011 48.4805 0 -11.1514 27.3088 0 -7.01692 15.1706 0 -4.30224 8.79157 0 -2.81439 5.08084 0 -1.77043 2.95994 0 -1.16951 1.71003 0 -0.762529 0.969547 0 -0.531459 0.514768 0 -0.406318 0.220075 0 -0.377926 -6.70552e-08 0 967.122 -3.21865e-06 0 -172.489 802.227 0 -106.818 414.777 0 -64.5769 178.646 0 -36.2076 95.8089 0 -20.8435 47.1975 0 -12.3558 26.9112 0 -7.6951 14.7398 0 -4.74624 8.5729 0 -3.08854 4.90743 0 -1.94381 2.8503 0 -1.2815 1.63273 0 -0.833448 0.919203 0 -0.580105 0.483054 0 -0.442148 0.204558 0 -0.409851 1.3411e-07 0 1081.97 1.66893e-06 0 -192.467 794.777 0 -117.526 416.061 0 -70.2968 173.96 0 -39.8553 95.3206 0 -22.5581 45.7221 0 -13.5717 26.5145 0 -8.32817 14.2507 0 -5.18825 8.34238 0 -3.34637 4.71513 0 -2.11243 2.73182 0 -1.38697 1.54846 0 -0.900647 0.864462 0 -0.625444 0.448793 0 -0.475244 0.187704 0 -0.43872 -8.9407e-08 0 1202.3 -7.15256e-07 0 -213.158 785.881 0 -128.305 417.839 0 -75.7395 168.605 0 -43.5693 94.9458 0 -24.1244 44.0316 0 -14.8149 26.135 0 -8.9023 13.6973 0 -5.63456 8.10431 0 -3.5827 4.50342 0 -2.27806 2.60521 0 -1.48425 1.45778 0 -0.964382 0.805324 0 -0.666991 0.41244 0 -0.505469 0.169402 0 -0.464443 4.47035e-08 0 1328.77 4.76837e-07 0 -234.593 775.324 0 -139.196 420.225 0 -80.8452 162.51 0 -47.3875 94.7371 0 -25.5043 42.0986 0 -16.1078 25.7924 0 -9.39881 13.0718 0 -6.09504 7.86374 0 -3.79002 4.27176 0 -2.44399 2.47097 0 -1.57086 1.36163 0 -1.0254 0.741458 0 -0.704059 0.37479 0 -0.53273 0.149255 0 -0.487328 -2.38419e-07 0 1462.05 -7.15256e-07 0 -256.792 762.868 0 -150.249 423.349 0 -85.5415 155.592 0 -51.3596 94.7557 0 -26.6494 39.8903 0 -17.4815 25.5099 0 -9.79236 12.3649 0 -6.58462 7.62653 0 -3.95745 4.01968 0 -2.61582 2.32918 0 -1.64294 1.26161 0 -1.08526 0.671878 0 -0.735632 0.3373 0 -0.556944 0.126265 0 -0.508637 2.98023e-08 0 1602.87 1.90735e-06 0 -279.764 748.253 0 -161.529 427.356 0 -89.7421 147.758 0 -55.5498 95.0714 0 -27.4984 37.3677 0 -18.9786 25.315 0 -10.0487 11.565 0 -7.12521 7.39914 0 -4.06915 3.74712 0 -2.80257 2.17903 0 -1.69453 1.16045 0 -1.14677 0.59442 0 -0.760147 0.302619 0 -0.577922 0.0982908 0 -0.53185 9.53674e-07 0 </DataArray> 
</PointData> 
<Points> 
<DataArray type="Float32" NumberOfComponents="3"> 
0.125 0.02 0 0.129 0.02 0 0.133 0.02 0 0.137 0.02 0 0.141 0.02 0 0.145 0.02 0 0.149 0.02 0 0.153 0.02 0 0.157 0.02 0 0.161 0.02 0 0.165 0.02 0 0.169 0.02 0 0.173 0.02 0 0.177 0.02 0 0.181 0.02 0 0.185 0.02 0 0.125 0.0200667 0 0.129 0.0201067 0 0.133 0.0201467 0 0.137 0.0201867 0 0.141 0.0202267 0 0.145 0.0202667 0 0.149 0.0203067 0 0.153 0.0203467 0 0.157 0.0203867 0 0.161 0.0204267 0 0.165 0.0204667 0 0.169 0.0205067 0 0.173 0.0205467 0 0.177 0.0205867 0 0.181 0.0206267 0 0.185 0.0206667 0 0.125 0.0201333 0 0.129 0.0202133 0 0.133 0.0202933 0 0.137 0.0203733 0 0.141 0.0204533 0 0.145 0.0205333 0 0.149 0.0206133 0 0.153 0.0206933 0 0.157 0.0207733 0 0.161 0.0208533 0 0.165 0.0209333 0 0.169 0.0210133 0 0.173 0.0210933 0 0.177 0.0211733 0 0.181 0.0212533 0 0.185 0.0213333 0 0.125 0.0202 0 0.129 0.02032 0 0.133 0.02044 0 0.137 0.02056 0 0.141 0.02068 0 0.145 0.0208 0 0.149 0.02092 0 0.153 0.02104 0 0.157 0.02116 0 0.161 0.02128 0 0.165 0.0214 0 0.169 0.02152 0 0.173 0.02164 0 0.177 0.02176 0 0.181 0.02188 0 0.185 0.022 0 0.125 0.0202667 0 0.129 0.0204267 0 0.133 0.0205867 0 0.137 0.0207467 0 0.141 0.0209067 0 0.145 0.0210667 0 0.149 0.0212267 0 0.153 0.0213867 0 0.157 0.0215467 0 0.161 0.0217067 0 0.165 0.0218667 0 0.169 0.0220267 0 0.173 0.0221867 0 0.177 0.0223467 0 0.181 0.0225067 0 0.185 0.0226667 0 0.125 0.0203333 0 0.129 0.0205333 0 0.133 0.0207333 0 0.137 0.0209333 0 0.141 0.0211333 0 0.145 0.0213333 0 0.149 0.0215333 0 0.153 0.0217333 0 0.157 0.0219333 0 0.161 0.0221333 0 0.165 0.0223333 0 0.169 0.0225333 0 0.173 0.0227333 0 0.177 0.0229333 0 0.181 0.0231333 0 0.185 0.0233333 0 0.125 0.0204 0 0.129 0.02064 0 0.133 0.02088 0 0.137 0.02112 0 0.141 0.02136 0 0.145 0.0216 0 0.149 0.02184 0 0.153 0.02208 0 0.157 0.02232 0 0.161 0.02256 0 0.165 0.0228 0 0.169 0.02304 0 0.173 0.02328 0 0.177 0.02352 0 0.181 0.02376 0 0.185 0.024 0 0.125 0.0204667 0 0.129 0.0207467 0 0.133 0.0210267 0 0.137 0.0213067 0 0.141 0.0215867 0 0.145 0.0218667 0 0.149 0.0221467 0 0.153 0.0224267 0 0.157 0.0227067 0 0.161 0.0229867 0 0.165 0.0232667 0 0.169 0.0235467 0 0.173 0.0238267 0 0.177 0.0241067 0 0.181 0.0243867 0 0.185 0.0246667 0 0.125 0.0205333 0 0.129 0.0208533 0 0.133 0.0211733 0 0.137 0.0214933 0 0.141 0.0218133 0 0.145 0.0221333 0 0.149 0.0224533 0 0.153 0.0227733 0 0.157 0.0230933 0 0.161 0.0234133 0 0.165 0.0237333 0 0.169 0.0240533 0 0.173 0.0243733 0 0.177 0.0246933 0 0.181 0.0250133 0 0.185 0.0253333 0 0.125 0.0206 0 0.129 0.02096 0 0.133 0.02132 0 0.137 0.02168 0 0.141 0.02204 0 0.145 0.0224 0 0.149 0.02276 0 0.153 0.02312 0 0.157 0.02348 0 0.161 0.02384 0 0.165 0.0242 0 0.169 0.02456 0 0.173 0.02492 0 0.177 0.02528 0 0.181 0.02564 0 0.185 0.026 0 0.125 0.0206667 0 0.129 0.0210667 0 0.133 0.0214667 0 0.137 0.0218667 0 0.141 0.0222667 0 0.145 0.0226667 0 0.149 0.0230667 0 0.153 0.0234667 0 0.157 0.0238667 0 0.161 0.0242667 0 0.165 0.0246667 0 0.169 0.0250667 0 0.173 0.0254667 0 0.177 0.0258667 0 0.181 0.0262667 0 0.185 0.0266667 0 0.125 0.0207333 0 0.129 0.0211733 0 0.133 0.0216133 0 0.137 0.0220533 0 0.141 0.0224933 0 0.145 0.0229333 0 0.149 0.0233733 0 0.153 0.0238133 0 0.157 0.0242533 0 0.161 0.0246933 0 0.165 0.0251333 0 0.169 0.0255733 0 0.173 0.0260133 0 0.177 0.0264533 0 0.181 0.0268933 0 0.185 0.0273333 0 0.125 0.0208 0 0.129 0.02128 0 0.133 0.02176 0 0.137 0.02224 0 0.141 0.02272 0 0.145 0.0232 0 0.149 0.02368 0 0.153 0.02416 0 0.157 0.02464 0 0.161 0.02512 0 0.165 0.0256 0 0.169 0.02608 0 0.173 0.02656 0 0.177 0.02704 0 0.181 0.02752 0 0.185 0.028 0 0.125 0.0208667 0 0.129 0.0213867 0 0.133 0.0219067 0 0.137 0.0224267 0 0.141 0.0229467 0 0.145 0.0234667 0 0.149 0.0239867 0 0.153 0.0245067 0 0.157 0.0250267 0 0.161 0.0255467 0 0.165 0.0260667 0 0.169 0.0265867 0 0.173 0.0271067 0 0.177 0.0276267 0 0.181 0.0281467 0 0.185 0.0286667 0 0.125 0.0209333 0 0.129 0.0214933 0 0.133 0.0220533 0 0.137 0.0226133 0 0.141 0.0231733 0 0.145 0.0237333 0 0.149 0.0242933 0 0.153 0.0248533 0 0.157 0.0254133 0 0.161 0.0259733 0 0.165 0.0265333 0 0.169 0.0270933 0 0.173 0.0276533 0 0.177 0.0282133 0 0.181 0.0287733 0 0.185 0.0293333 0 0.125 0.021 0 0.129 0.0216 0 0.133 0.0222 0 0.137 0.0228 0 0.141 0.0234 0 0.145 0.024 0 0.149 0.0246 0 0.153 0.0252 0 0.157 0.0258 0 0.161 0.0264 0 0.165 0.027 0 0.169 0.0276 0 0.173 0.0282 0 0.177 0.0288 0 0.181 0.0294 0 0.185 0.03 0 
</DataArray>
</Points> 
</Piece> 
</StructuredGrid> 
</VTKFile> 
