<?xml version="1.0"?> 
<VTKFile type="StructuredGrid" version="0.1"> 
<StructuredGrid WholeExtent="0 15 0 15 0 0"> 
<Piece Extent="0 15 0 15 0 0"> 
<PointData>
<DataArray type="Float32" Name="|E|" format="ascii" NumberOfComponents="3"> 
-352876 0 0 -353560 -0.15972 0 -355615 -0.319012 0 -359047 -0.477415 0 -363868 -0.634399 0 -370093 -0.789337 0 -377742 -0.941463 0 -386841 -1.08983 0 -397417 -1.23329 0 -409505 -1.3704 0 -423140 -1.49944 0 -438363 -1.61832 0 -455219 -1.72454 0 -473755 -1.81516 0 -494022 -1.88672 0 -516071 -1.9353 0 -350978 0 0 -351659 2277.74 0 -353704 4563.02 0 -357120 6863.37 0 -361919 9186.29 0 -368116 11539.2 0 -375732 13929.4 0 -384790 16364.1 0 -395321 18850.5 0 -407357 21395.2 0 -420935 24004.8 0 -436097 26685.5 0 -452887 29443 0 -471353 32282.4 0 -491546 35208.2 0 -513519 38223.8 0 -345300 0 0 -345971 4534.43 0 -347988 9084 0 -351357 13663.8 0 -356090 18288.9 0 -362203 22974.3 0 -369716 27734.6 0 -378654 32584.4 0 -389047 37537.9 0 -400928 42609.1 0 -414335 47811 0 -429311 53156.4 0 -445901 58657 0 -464155 64323.4 0 -484126 70165 0 -505869 76189.2 0 -335895 0 0 -336551 6749.03 0 -338520 13520.9 0 -341811 20338.4 0 -346433 27224.2 0 -352404 34200.9 0 -359745 41290.8 0 -368481 48516.1 0 -378642 55898.4 0 -390263 63458.9 0 -403382 71218 0 -418044 79195.3 0 -434297 87409.2 0 -452191 95876.6 0 -471784 104612 0 -493134 113629 0 -322851 0 0 -323485 8900.15 0 -325388 17830.9 0 -328567 26822.9 0 -333034 35906.6 0 -338806 45112.4 0 -345904 54470.6 0 -354354 64011 0 -364186 73763.1 0 -375438 83755.9 0 -388148 94017.6 0 -402364 104576 0 -418133 115455 0 -435513 126682 0 -454562 138276 0 -475345 150258 0 -306293 0 0 -306897 10966.2 0 -308714 21970.8 0 -311749 33052.5 0 -316015 44249.6 0 -321528 55600.6 0 -328311 67143.7 0 -336389 78917 0 -345794 90958.3 0 -356564 103305 0 -368739 115993 0 -382368 129059 0 -397502 142538 0 -414201 156461 0 -432528 170860 0 -452552 185762 0 -286379 0 0 -286948 12925.2 0 -288658 25896.8 0 -291516 38961.3 0 -295534 52165.1 0 -300729 65554.9 0 -307123 79177.1 0 -314742 93078.3 0 -323618 107305 0 -333789 121903 0 -345298 136919 0 -358194 152397 0 -372531 168382 0 -388371 184917 0 -405782 202042 0 -424838 219797 0 -263306 0 0 -263834 14755.2 0 -265418 29564.7 0 -268066 44482.9 0 -271790 59564.2 0 -276606 74863.5 0 -282536 90435.5 0 -289607 106335 0 -297850 122619 0 -307304 139341 0 -318011 156558 0 -330021 174325 0 -343391 192697 0 -358185 211729 0 -374472 231473 0 -392331 251983 0 -237309 0 0 -237787 16434.5 0 -239226 32930.9 0 -241632 49551.4 0 -245015 66358.3 0 -249393 83414.5 0 -254786 100783 0 -261220 118528 0 -268726 136714 0 -277341 155405 0 -287109 174669 0 -298078 194571 0 -310305 215178 0 -323854 236559 0 -338798 258779 0 -355218 281906 0 -208655 0 0 -209079 17941.7 0 -210353 35952.7 0 -212485 54102.4 0 -215483 72460.7 0 -219365 91098.1 0 -224148 110086 0 -229859 129497 0 -236525 149404 0 -244184 169882 0 -252875 191007 0 -262647 212858 0 -273553 235513 0 -285658 259055 0 -299033 283564 0 -313757 309126 0 -177648 0 0 -178012 19256.8 0 -179104 38589.5 0 -180932 58074.5 0 -183504 77788.5 0 -186835 97809.2 0 -190941 118216 0 -195846 139088 0 -201576 160508 0 -208163 182561 0 -215646 205332 0 -224069 228911 0 -233482 253389 0 -243944 278862 0 -255523 305428 0 -268296 333189 0 -144624 0 0 -144922 20361.1 0 -145817 40804.1 0 -147315 61411.2 0 -149423 82265.3 0 -152153 103451 0 -155520 125053 0 -159545 147159 0 -164249 169859 0 -169661 193247 0 -175814 217416 0 -182747 242468 0 -190503 268506 0 -199136 295638 0 -208705 323977 0 -219279 353645 0 -109949 0 0 -110176 21238.4 0 -110860 42563.6 0 -112005 64062.6 0 -113616 85823.6 0 -115704 107936 0 -118279 130491 0 -121358 153582 0 -124960 177306 0 -129106 201762 0 -133822 227054 0 -139141 253291 0 -145098 280588 0 -151735 309063 0 -159101 338845 0 -167253 370070 0 -74011.1 0 0 -74164.8 21875.2 0 -74627.1 43840.8 0 -75400.5 65987.6 0 -76489.5 88407.5 0 -77900.7 111194 0 -79642.3 134442 0 -81725.2 158251 0 -84162.2 182721 0 -86968.8 207958 0 -90163.6 234072 0 -93768.4 261179 0 -97808.5 289400 0 -102314 318866 0 -107320 349715 0 -112866 382095 0 -37220.5 0 0 -37298 22261.5 0 -37531 44615.6 0 -37920.9 67155.4 0 -38470 89975.3 0 -39181.5 113171 0 -40059.9 136841 0 -41110.5 161085 0 -42340 186010 0 -43756.5 211723 0 -45369.4 238338 0 -47189.9 265976 0 -49231.3 294764 0 -51509 324837 0 -54041.1 356341 0 -56848.7 389434 0 0 0 0 0 22391 0 0 44875.3 0 0 67546.9 0 0 90500.9 0 0 113834 0 0 137645 0 0 162036 0 0 187113 0 0 212986 0 0 239770 0 0 267586 0 0 296565 0 0 326843 0 0 358568 0 0 391901 0 </DataArray> 
</PointData> 
<Points> 
<DataArray type="Float32" NumberOfComponents="3"> 
0 0 0 0.0004 0 0 0.0008 0 0 0.0012 0 0 0.0016 0 0 0.002 0 0 0.0024 0 0 0.0028 0 0 0.0032 0 0 0.0036 0 0 0.004 0 0 0.0044 0 0 0.0048 0 0 0.0052 0 0 0.0056 0 0 0.006 0 0 0 0.000666667 0 0.0004 0.000666667 0 0.0008 0.000666667 0 0.0012 0.000666667 0 0.0016 0.000666667 0 0.002 0.000666667 0 0.0024 0.000666667 0 0.0028 0.000666667 0 0.0032 0.000666667 0 0.0036 0.000666667 0 0.004 0.000666667 0 0.0044 0.000666667 0 0.0048 0.000666667 0 0.0052 0.000666667 0 0.0056 0.000666667 0 0.006 0.000666667 0 0 0.00133333 0 0.0004 0.00133333 0 0.0008 0.00133333 0 0.0012 0.00133333 0 0.0016 0.00133333 0 0.002 0.00133333 0 0.0024 0.00133333 0 0.0028 0.00133333 0 0.0032 0.00133333 0 0.0036 0.00133333 0 0.004 0.00133333 0 0.0044 0.00133333 0 0.0048 0.00133333 0 0.0052 0.00133333 0 0.0056 0.00133333 0 0.006 0.00133333 0 0 0.002 0 0.0004 0.002 0 0.0008 0.002 0 0.0012 0.002 0 0.0016 0.002 0 0.002 0.002 0 0.0024 0.002 0 0.0028 0.002 0 0.0032 0.002 0 0.0036 0.002 0 0.004 0.002 0 0.0044 0.002 0 0.0048 0.002 0 0.0052 0.002 0 0.0056 0.002 0 0.006 0.002 0 0 0.00266667 0 0.0004 0.00266667 0 0.0008 0.00266667 0 0.0012 0.00266667 0 0.0016 0.00266667 0 0.002 0.00266667 0 0.0024 0.00266667 0 0.0028 0.00266667 0 0.0032 0.00266667 0 0.0036 0.00266667 0 0.004 0.00266667 0 0.0044 0.00266667 0 0.0048 0.00266667 0 0.0052 0.00266667 0 0.0056 0.00266667 0 0.006 0.00266667 0 0 0.00333333 0 0.0004 0.00333333 0 0.0008 0.00333333 0 0.0012 0.00333333 0 0.0016 0.00333333 0 0.002 0.00333333 0 0.0024 0.00333333 0 0.0028 0.00333333 0 0.0032 0.00333333 0 0.0036 0.00333333 0 0.004 0.00333333 0 0.0044 0.00333333 0 0.0048 0.00333333 0 0.0052 0.00333333 0 0.0056 0.00333333 0 0.006 0.00333333 0 0 0.004 0 0.0004 0.004 0 0.0008 0.004 0 0.0012 0.004 0 0.0016 0.004 0 0.002 0.004 0 0.0024 0.004 0 0.0028 0.004 0 0.0032 0.004 0 0.0036 0.004 0 0.004 0.004 0 0.0044 0.004 0 0.0048 0.004 0 0.0052 0.004 0 0.0056 0.004 0 0.006 0.004 0 0 0.00466667 0 0.0004 0.00466667 0 0.0008 0.00466667 0 0.0012 0.00466667 0 0.0016 0.00466667 0 0.002 0.00466667 0 0.0024 0.00466667 0 0.0028 0.00466667 0 0.0032 0.00466667 0 0.0036 0.00466667 0 0.004 0.00466667 0 0.0044 0.00466667 0 0.0048 0.00466667 0 0.0052 0.00466667 0 0.0056 0.00466667 0 0.006 0.00466667 0 0 0.00533333 0 0.0004 0.00533333 0 0.0008 0.00533333 0 0.0012 0.00533333 0 0.0016 0.00533333 0 0.002 0.00533333 0 0.0024 0.00533333 0 0.0028 0.00533333 0 0.0032 0.00533333 0 0.0036 0.00533333 0 0.004 0.00533333 0 0.0044 0.00533333 0 0.0048 0.00533333 0 0.0052 0.00533333 0 0.0056 0.00533333 0 0.006 0.00533333 0 0 0.006 0 0.0004 0.006 0 0.0008 0.006 0 0.0012 0.006 0 0.0016 0.006 0 0.002 0.006 0 0.0024 0.006 0 0.0028 0.006 0 0.0032 0.006 0 0.0036 0.006 0 0.004 0.006 0 0.0044 0.006 0 0.0048 0.006 0 0.0052 0.006 0 0.0056 0.006 0 0.006 0.006 0 0 0.00666667 0 0.0004 0.00666667 0 0.0008 0.00666667 0 0.0012 0.00666667 0 0.0016 0.00666667 0 0.002 0.00666667 0 0.0024 0.00666667 0 0.0028 0.00666667 0 0.0032 0.00666667 0 0.0036 0.00666667 0 0.004 0.00666667 0 0.0044 0.00666667 0 0.0048 0.00666667 0 0.0052 0.00666667 0 0.0056 0.00666667 0 0.006 0.00666667 0 0 0.00733333 0 0.0004 0.00733333 0 0.0008 0.00733333 0 0.0012 0.00733333 0 0.0016 0.00733333 0 0.002 0.00733333 0 0.0024 0.00733333 0 0.0028 0.00733333 0 0.0032 0.00733333 0 0.0036 0.00733333 0 0.004 0.00733333 0 0.0044 0.00733333 0 0.0048 0.00733333 0 0.0052 0.00733333 0 0.0056 0.00733333 0 0.006 0.00733333 0 0 0.008 0 0.0004 0.008 0 0.0008 0.008 0 0.0012 0.008 0 0.0016 0.008 0 0.002 0.008 0 0.0024 0.008 0 0.0028 0.008 0 0.0032 0.008 0 0.0036 0.008 0 0.004 0.008 0 0.0044 0.008 0 0.0048 0.008 0 0.0052 0.008 0 0.0056 0.008 0 0.006 0.008 0 0 0.00866667 0 0.0004 0.00866667 0 0.0008 0.00866667 0 0.0012 0.00866667 0 0.0016 0.00866667 0 0.002 0.00866667 0 0.0024 0.00866667 0 0.0028 0.00866667 0 0.0032 0.00866667 0 0.0036 0.00866667 0 0.004 0.00866667 0 0.0044 0.00866667 0 0.0048 0.00866667 0 0.0052 0.00866667 0 0.0056 0.00866667 0 0.006 0.00866667 0 0 0.00933333 0 0.0004 0.00933333 0 0.0008 0.00933333 0 0.0012 0.00933333 0 0.0016 0.00933333 0 0.002 0.00933333 0 0.0024 0.00933333 0 0.0028 0.00933333 0 0.0032 0.00933333 0 0.0036 0.00933333 0 0.004 0.00933333 0 0.0044 0.00933333 0 0.0048 0.00933333 0 0.0052 0.00933333 0 0.0056 0.00933333 0 0.006 0.00933333 0 0 0.01 0 0.0004 0.01 0 0.0008 0.01 0 0.0012 0.01 0 0.0016 0.01 0 0.002 0.01 0 0.0024 0.01 0 0.0028 0.01 0 0.0032 0.01 0 0.0036 0.01 0 0.004 0.01 0 0.0044 0.01 0 0.0048 0.01 0 0.0052 0.01 0 0.0056 0.01 0 0.006 0.01 0 
</DataArray>
</Points> 
</Piece> 
</StructuredGrid> 
</VTKFile> 
