<?xml version="1.0"?> 
<VTKFile type="StructuredGrid" version="0.1"> 
<StructuredGrid WholeExtent="0 7 0 7 0 0"> 
<Piece Extent="0 7 0 7 0 0"> 
<PointData>
<DataArray type="Float32" Name="|E|" format="ascii" NumberOfComponents="3"> 
-1.78814e-07 3.9153e+06 0 1.00583e-07 2.10381e+06 0 -7.45058e-08 1.4498e+06 0 -1.49012e-08 493655 0 5.96046e-08 -521498 0 -4.47035e-08 -64659.1 0 1.49012e-08 -53927.1 0 -5.96046e-08 -8.9407e-08 0 -1.29672e+06 2.57893e+06 0 -441816 2.07751e+06 0 -163674 1.50778e+06 0 9002.49 724155 0 12029.7 -148843 0 -75404.6 -172555 0 -35821 -17327.4 0 -18184.8 8.19564e-08 0 -1.55074e+06 1.92563e+06 0 -867839 1.83925e+06 0 -367400 1.49046e+06 0 38241.1 1.15805e+06 0 205017 373214 0 -106720 -127071 0 -43300.7 -7383.11 0 -30984.7 -8.19564e-08 0 -1.63541e+06 1.52545e+06 0 -1.13321e+06 1.58141e+06 0 -614329 1.38276e+06 0 -108147 1.15787e+06 0 175087 522470 0 1533.31 80417.2 0 -86796.8 -46373.6 0 -10619.7 0 0 -1.70068e+06 1.25844e+06 0 -1.3115e+06 1.33141e+06 0 -830308 1.25427e+06 0 -344143 1.05085e+06 0 41011.7 615832 0 2346.19 165028 0 -26378.3 56623.5 0 -9630.18 0 0 -1.77494e+06 1.06422e+06 0 -1.44693e+06 1.11466e+06 0 -1.02311e+06 1.08533e+06 0 -572396 935326 0 -181099 626795 0 -54637.6 246365 0 -55618.8 68997.6 0 -22214.5 -2.98023e-08 0 -1.86261e+06 914385 0 -1.56476e+06 929195 0 -1.19013e+06 905041 0 -784196 794093 0 -416150 577056 0 -193718 294631 0 -110631 93677.1 0 -63284.4 0 0 -1.96343e+06 793362 0 -1.67809e+06 768278 0 -1.33761e+06 727530 0 -973506 634717 0 -635549 477234 0 -379287 277649 0 -221748 102427 0 -125248 0 0 </DataArray> 
</PointData> 
<Points> 
<DataArray type="Float32" NumberOfComponents="3"> 
0.1 0.045 0 0.101857 0.045 0 0.103714 0.045 0 0.105571 0.045 0 0.107429 0.045 0 0.109286 0.045 0 0.111143 0.045 0 0.113 0.045 0 0.1 0.0464286 0 0.101742 0.0459872 0 0.10352 0.0455366 0 0.105336 0.0450765 0 0.10719 0.0446066 0 0.109085 0.0441265 0 0.111021 0.0436359 0 0.113 0.0431345 0 0.1 0.0478571 0 0.101664 0.0470721 0 0.103386 0.0462592 0 0.10517 0.0454171 0 0.10702 0.0445441 0 0.108939 0.0436385 0 0.110931 0.0426985 0 0.113 0.041722 0 0.1 0.0492857 0 0.101624 0.0482452 0 0.103317 0.0471602 0 0.105085 0.0460279 0 0.106931 0.044845 0 0.108862 0.043608 0 0.110882 0.0423133 0 0.113 0.0409566 0 0.1 0.0507143 0 0.101624 0.0494953 0 0.103317 0.0482243 0 0.105085 0.0468977 0 0.106931 0.0455119 0 0.108862 0.0440628 0 0.110882 0.042546 0 0.113 0.0409566 0 0.1 0.0521429 0 0.101664 0.0508094 0 0.103386 0.0494287 0 0.10517 0.0479983 0 0.10702 0.0465155 0 0.108939 0.0449774 0 0.110931 0.0433806 0 0.113 0.041722 0 0.1 0.0535714 0 0.101742 0.0521731 0 0.10352 0.0507454 0 0.105336 0.0492876 0 0.10719 0.0477987 0 0.109085 0.0462775 0 0.111021 0.0447232 0 0.113 0.0431345 0 0.1 0.055 0 0.101857 0.0535714 0 0.103714 0.0521429 0 0.105571 0.0507143 0 0.107429 0.0492857 0 0.109286 0.0478572 0 0.111143 0.0464286 0 0.113 0.045 0 
</DataArray>
</Points> 
</Piece> 
</StructuredGrid> 
</VTKFile> 
