<?xml version="1.0"?> 
<VTKFile type="StructuredGrid" version="0.1"> 
<StructuredGrid WholeExtent="0 7 0 7 0 0"> 
<Piece Extent="0 7 0 7 0 0"> 
<PointData>
<DataArray type="Float32" Name="|E|" format="ascii" NumberOfComponents="3"> 
-2.23517e-08 -9.53674e-07 0 4.19095e-09 299.946 0 -9.31323e-10 71.3718 0 0 11.898 0 0 7.05223 0 -1.11759e-08 1.22576 0 1.49012e-08 0.450198 0 0 0.0199721 0 90.3625 2.98023e-07 0 -41.4165 341.881 0 -7.57466 96.666 0 -5.302 28.5572 0 -1.56549 8.9665 0 -0.7786 4.00316 0 -0.363459 1.32552 0 -0.167476 0.456073 0 213.469 -1.19209e-07 0 -87.8494 400.732 0 -30.8808 136.534 0 -15.0123 46.0354 0 -6.9224 17.8756 0 -3.32492 7.15113 0 -1.42765 3.77129 0 -0.983519 0.961504 0 387.616 4.76837e-07 0 -138.767 480.506 0 -78.6088 192.982 0 -38.4089 73.3604 0 -20.0788 30.3373 0 -10.0952 14.4274 0 -6.35093 5.45077 0 -2.27166 5.44392 0 651.204 -1.07288e-06 0 -194.048 591.27 0 -161.942 268.476 0 -94.217 113.03 0 -53.2791 48.2587 0 -30.2509 21.7924 0 -15.9767 12.1079 0 -13.1759 2.20883 0 1102.8 1.19209e-06 0 -257.762 753.659 0 -299.264 373.55 0 -216.074 159.932 0 -135.946 61.1949 0 -84.0351 21.8824 0 -53.7021 5.71666 0 -24.8733 -2.5946 0 2101.42 -9.53674e-07 0 -357.629 1006.05 0 -534.203 534.077 0 -474.867 204.274 0 -342.49 14.642 0 -212.506 -61.7282 0 -122.49 -60.5788 0 -95.1037 -6.23691 0 6552.34 0 0 -594.088 1334.18 0 -981.341 786.193 0 -1046.97 210.973 0 -885.958 -244.925 0 -593.78 -545.88 0 -247.807 -685.23 0 113.864 -751.555 0 </DataArray> 
</PointData> 
<Points> 
<DataArray type="Float32" NumberOfComponents="3"> 
0.125 0.02 0 0.133571 0.02 0 0.142143 0.02 0 0.150714 0.02 0 0.159286 0.02 0 0.167857 0.02 0 0.176429 0.02 0 0.185 0.02 0 0.125 0.0201429 0 0.132449 0.0204286 0 0.139898 0.0207143 0 0.147347 0.021 0 0.154796 0.0212857 0 0.162245 0.0215714 0 0.169694 0.0218571 0 0.177143 0.0221429 0 0.125 0.0202857 0 0.131327 0.0208571 0 0.137653 0.0214286 0 0.14398 0.022 0 0.150306 0.0225714 0 0.156633 0.0231429 0 0.162959 0.0237143 0 0.169286 0.0242857 0 0.125 0.0204286 0 0.130204 0.0212857 0 0.135408 0.0221429 0 0.140612 0.023 0 0.145816 0.0238571 0 0.15102 0.0247143 0 0.156224 0.0255714 0 0.161429 0.0264286 0 0.125 0.0205714 0 0.129082 0.0217143 0 0.133163 0.0228571 0 0.137245 0.024 0 0.141327 0.0251429 0 0.145408 0.0262857 0 0.14949 0.0274286 0 0.153571 0.0285714 0 0.125 0.0207143 0 0.127959 0.0221429 0 0.130918 0.0235714 0 0.133878 0.025 0 0.136837 0.0264286 0 0.139796 0.0278571 0 0.142755 0.0292857 0 0.145714 0.0307143 0 0.125 0.0208571 0 0.126837 0.0225714 0 0.128673 0.0242857 0 0.13051 0.026 0 0.132347 0.0277143 0 0.134184 0.0294286 0 0.13602 0.0311429 0 0.137857 0.0328571 0 0.125 0.021 0 0.125714 0.023 0 0.126429 0.025 0 0.127143 0.027 0 0.127857 0.029 0 0.128571 0.031 0 0.129286 0.033 0 0.13 0.035 0 
</DataArray>
</Points> 
</Piece> 
</StructuredGrid> 
</VTKFile> 
