<?xml version="1.0"?> 
<VTKFile type="StructuredGrid" version="0.1"> 
<StructuredGrid WholeExtent="0 31 0 31 0 0"> 
<Piece Extent="0 31 0 31 0 0"> 
<PointData>
<DataArray type="Float32" Name="|E|" format="ascii" NumberOfComponents="3"> 
1.07109e+06 -445403 0 1.47065e+06 -278187 0 1.617e+06 -210777 0 1.72491e+06 -128283 0 1.77057e+06 -53643.5 0 1.77592e+06 9716.59 0 1.74615e+06 58831.5 0 1.69268e+06 93935.5 0 1.62324e+06 116981 0 1.54457e+06 130407 0 1.46142e+06 136627 0 1.37722e+06 137653 0 1.29432e+06 135074 0 1.21428e+06 130071 0 1.13812e+06 123507 0 1.06645e+06 115994 0 999614 107958 0 937766 99692.3 0 880937 91392.5 0 829076 83186.4 0 782079 75152.8 0 739814 67336.3 0 702134 59756.9 0 668888 52417.6 0 639930 45309.3 0 615123 38414.6 0 594344 31710 0 577485 25168.3 0 564456 18759 0 555186 12450.3 0 549622 6208.61 0 547734 0 0 1.10238e+06 -458417 0 1.47633e+06 -290446 0 1.62531e+06 -216045 0 1.73056e+06 -130719 0 1.77508e+06 -53584.4 0 1.77876e+06 11617.6 0 1.7477e+06 62017 0 1.69315e+06 97943.8 0 1.62295e+06 121454 0 1.54376e+06 135091 0 1.46029e+06 141346 0 1.37592e+06 142286 0 1.29294e+06 139541 0 1.2129e+06 134322 0 1.13679e+06 127512 0 1.06519e+06 119734 0 998437 111426 0 936682 102886 0 879947 94315.7 0 828178 85844.4 0 781269 77552.8 0 739084 69486 0 701477 61664.5 0 668297 54090.9 0 639397 46755.9 0 614640 39641.2 0 593902 32722.8 0 577077 25972.2 0 564074 19358.3 0 554822 12848 0 549270 6406.94 0 547386 0 0 1.13166e+06 -470590 0 1.48291e+06 -302073 0 1.63363e+06 -221207 0 1.73639e+06 -133008 0 1.77968e+06 -53395.5 0 1.78166e+06 13631.1 0 1.74929e+06 65291.5 0 1.69365e+06 102017 0 1.62267e+06 125971 0 1.54295e+06 139804 0 1.45915e+06 146080 0 1.3746e+06 146927 0 1.29155e+06 144011 0 1.21151e+06 138572 0 1.13544e+06 131512 0 1.06391e+06 123469 0 997244 114888 0 935583 106074 0 878943 97233.3 0 827266 88497.1 0 780444 79947.8 0 738341 71631.3 0 700808 63568 0 667694 55760.8 0 638851 48199.5 0 614144 40865.3 0 593449 33733.4 0 576658 26774.4 0 563681 19956.3 0 554448 13244.9 0 548907 6604.87 0 547027 0 0 1.15915e+06 -482024 0 1.49027e+06 -313121 0 1.64199e+06 -226250 0 1.74238e+06 -135148 0 1.78434e+06 -53074.9 0 1.78462e+06 15758.4 0 1.7509e+06 68655.6 0 1.69416e+06 106155 0 1.62239e+06 130532 0 1.54214e+06 144545 0 1.45801e+06 150831 0 1.37328e+06 151575 0 1.29015e+06 148483 0 1.21011e+06 142821 0 1.13407e+06 135509 0 1.06262e+06 127199 0 996037 118344 0 934469 109257 0 877924 100145 0 826340 91144.5 0 779606 82337.8 0 737584 73771.9 0 700125 65467.5 0 667077 57427 0 638293 49639.9 0 613636 42086.8 0 592983 34741.8 0 576226 27574.9 0 563276 20553 0 554062 13641 0 548533 6802.38 0 546656 0 0 1.18508e+06 -492806 0 1.49831e+06 -323633 0 1.65041e+06 -231164 0 1.74854e+06 -137140 0 1.78908e+06 -52620.6 0 1.78765e+06 18000.8 0 1.75255e+06 72110.1 0 1.69468e+06 110358 0 1.62212e+06 135138 0 1.54132e+06 149314 0 1.45686e+06 155599 0 1.37194e+06 156232 0 1.28874e+06 152957 0 1.20869e+06 147068 0 1.1327e+06 139502 0 1.06131e+06 130924 0 994814 121795 0 933340 112434 0 876891 103052 0 825399 93786.4 0 778753 84722.8 0 736814 75908.1 0 699429 67363 0 666448 59089.7 0 637723 51077.3 0 613116 43305.7 0 592506 35748.1 0 575783 28373.8 0 562860 21148.5 0 553665 14036.2 0 548147 6999.47 0 546274 0 0 1.20963e+06 -503014 0 1.50693e+06 -333647 0 1.65891e+06 -235941 0 1.75484e+06 -138981 0 1.7939e+06 -52030.7 0 1.79073e+06 20359.5 0 1.75422e+06 75655.8 0 1.69522e+06 114628 0 1.62185e+06 139790 0 1.5405e+06 154112 0 1.4557e+06 160383 0 1.37059e+06 160897 0 1.28731e+06 157434 0 1.20725e+06 151314 0 1.1313e+06 143492 0 1.05998e+06 134644 0 993577 125240 0 932196 115605 0 875842 105952 0 824445 96423 0 777887 87102.8 0 736030 78039.6 0 698720 69254.3 0 665806 60748.8 0 637140 52511.6 0 612584 44521.9 0 592016 36752.3 0 575329 29170.9 0 562433 21742.7 0 553257 14430.6 0 547750 7196.15 0 545881 0 0 1.23296e+06 -512716 0 1.51605e+06 -343199 0 1.66749e+06 -240572 0 1.76129e+06 -140670 0 1.79879e+06 -51303.3 0 1.79387e+06 22835.9 0 1.75592e+06 79293.3 0 1.69578e+06 118964 0 1.62158e+06 144486 0 1.53968e+06 158938 0 1.45453e+06 165184 0 1.36924e+06 165570 0 1.28587e+06 161913 0 1.20581e+06 155559 0 1.12989e+06 147478 0 1.05864e+06 138359 0 992324 128680 0 931037 118770 0 874779 108847 0 823475 99054 0 777007 89477.7 0 735232 80166.5 0 697998 71141.5 0 665151 62404.2 0 636544 53942.7 0 612040 45735.5 0 591515 37754.2 0 574863 29966.3 0 561994 22335.6 0 552837 14824.2 0 547342 7392.4 0 545477 0 0 1.25522e+06 -521971 0 1.52562e+06 -352321 0 1.67617e+06 -245053 0 1.76788e+06 -142206 0 1.80375e+06 -50436.3 0 1.79706e+06 25431.3 0 1.75765e+06 83023.5 0 1.69634e+06 123366 0 1.62131e+06 149228 0 1.53885e+06 163793 0 1.45335e+06 170001 0 1.36786e+06 170251 0 1.28442e+06 166395 0 1.20434e+06 159802 0 1.12847e+06 151461 0 1.05729e+06 142069 0 991056 132114 0 929863 121929 0 873701 111736 0 822492 101680 0 776113 91847.5 0 734421 82288.8 0 697262 73024.5 0 664484 64056 0 635936 55370.7 0 611484 46946.3 0 591002 38754 0 574385 30760 0 561543 22927.3 0 552406 15216.9 0 546922 7588.23 0 545062 0 0 1.27652e+06 -530832 0 1.53557e+06 -361040 0 1.68495e+06 -249377 0 1.7746e+06 -143587 0 1.8088e+06 -49427.7 0 1.8003e+06 28146.8 0 1.7594e+06 86847 0 1.69691e+06 127836 0 1.62104e+06 154015 0 1.53801e+06 168677 0 1.45216e+06 174835 0 1.36648e+06 174940 0 1.28295e+06 170879 0 1.20286e+06 164044 0 1.12703e+06 155439 0 1.05592e+06 145774 0 989772 135543 0 928674 125083 0 872609 114620 0 821494 104300 0 775204 94212.2 0 733596 84406.5 0 696514 74903.4 0 663803 65704.1 0 635316 56795.5 0 610915 48154.5 0 590477 39751.5 0 573896 31551.9 0 561081 23517.6 0 551964 15608.7 0 546492 7783.62 0 544635 0 0 1.297e+06 -539346 0 1.54587e+06 -369383 0 1.69384e+06 -253540 0 1.78146e+06 -144812 0 1.81391e+06 -48275.7 0 1.80359e+06 30983.8 0 1.76117e+06 90764.6 0 1.69749e+06 132374 0 1.62077e+06 158848 0 1.53717e+06 173590 0 1.45096e+06 179686 0 1.36508e+06 179638 0 1.28147e+06 175366 0 1.20137e+06 168285 0 1.12558e+06 159415 0 1.05453e+06 149474 0 988473 138966 0 927470 128230 0 871502 117497 0 820481 106914 0 774282 96571.8 0 732758 86519.4 0 695752 76778.1 0 663110 67348.5 0 634684 58217 0 610335 49360 0 589941 40746.9 0 573395 32342 0 560608 24106.6 0 551510 15999.6 0 546050 7978.59 0 544197 0 0 1.31674e+06 -547554 0 1.55646e+06 -377373 0 1.70285e+06 -257540 0 1.78846e+06 -145879 0 1.8191e+06 -46978.2 0 1.80692e+06 33943.5 0 1.76296e+06 94776.8 0 1.69808e+06 136979 0 1.62049e+06 163727 0 1.53632e+06 178532 0 1.44975e+06 184553 0 1.36367e+06 184344 0 1.27997e+06 179855 0 1.19986e+06 172525 0 1.12411e+06 163386 0 1.05313e+06 153170 0 987159 142383 0 926251 131372 0 870380 120369 0 819454 109523 0 773346 98926.2 0 731906 88627.6 0 694977 78648.5 0 662404 68989.2 0 634038 59635.4 0 609742 50562.8 0 589392 41739.9 0 572882 33130.3 0 560123 24694.3 0 551045 16389.7 0 545597 8173.11 0 543748 0 0 1.33583e+06 -555492 0 1.56733e+06 -385031 0 1.71198e+06 -261373 0 1.79557e+06 -146785 0 1.82437e+06 -45533 0 1.8103e+06 37027.2 0 1.76477e+06 98884.4 0 1.69867e+06 141652 0 1.62021e+06 168651 0 1.53545e+06 183502 0 1.44853e+06 189437 0 1.36225e+06 189057 0 1.27846e+06 184347 0 1.19834e+06 176763 0 1.12262e+06 167354 0 1.05172e+06 156860 0 985829 145794 0 925016 134508 0 869243 123235 0 818413 112127 0 772396 101275 0 731041 90731.1 0 694189 80514.7 0 661686 70626.1 0 633381 61050.5 0 609137 51762.8 0 588832 42730.7 0 572358 33916.9 0 559627 25280.7 0 550569 16778.9 0 545133 8367.2 0 543288 0 0 1.35435e+06 -563194 0 1.57843e+06 -392374 0 1.72123e+06 -265037 0 1.80282e+06 -147530 0 1.8297e+06 -43938.2 0 1.81372e+06 40236.1 0 1.7666e+06 103088 0 1.69926e+06 146394 0 1.61993e+06 173622 0 1.53458e+06 188502 0 1.44729e+06 194338 0 1.36081e+06 193779 0 1.27693e+06 188840 0 1.1968e+06 181000 0 1.12112e+06 171318 0 1.05029e+06 160545 0 984484 149200 0 923767 137638 0 868091 126095 0 817358 114725 0 771432 103619 0 730162 92829.8 0 693388 82376.6 0 660955 72259.3 0 632711 62462.4 0 608521 52960.1 0 588260 43719.2 0 571823 34701.7 0 559120 25865.7 0 550081 17167.3 0 544658 8560.85 0 542817 0 0 1.37237e+06 -570689 0 1.58975e+06 -399420 0 1.73061e+06 -268530 0 1.81018e+06 -148111 0 1.83511e+06 -42191.7 0 1.81718e+06 43571.6 0 1.76844e+06 107388 0 1.69985e+06 151205 0 1.61964e+06 178639 0 1.5337e+06 193530 0 1.44604e+06 199255 0 1.35935e+06 198509 0 1.27539e+06 193337 0 1.19524e+06 185235 0 1.1196e+06 175279 0 1.04884e+06 164225 0 983124 152600 0 922502 140761 0 866925 128949 0 816288 117317 0 770454 105958 0 729270 94923.8 0 692574 84234.3 0 660211 73888.6 0 632029 63870.9 0 607892 54154.5 0 587676 44705.5 0 571275 35484.6 0 558601 26449.4 0 549583 17554.7 0 544171 8754.05 0 542335 0 0 1.38996e+06 -578004 0 1.60127e+06 -406182 0 1.74011e+06 -271850 0 1.81767e+06 -148526 0 1.84058e+06 -40291.4 0 1.82068e+06 47034.7 0 1.7703e+06 111786 0 1.70045e+06 156084 0 1.61934e+06 183701 0 1.5328e+06 198588 0 1.44478e+06 204189 0 1.35788e+06 203247 0 1.27383e+06 197835 0 1.19367e+06 189469 0 1.11807e+06 179235 0 1.04737e+06 167900 0 981748 155994 0 921223 143879 0 865744 131797 0 815204 119903 0 769463 108292 0 728364 97012.9 0 691747 86087.6 0 659454 75514.2 0 631335 65276.2 0 607251 55346.2 0 587081 45689.4 0 570717 36265.7 0 558071 27031.7 0 549073 17941.2 0 543673 8946.8 0 541841 0 0 1.40718e+06 -585164 0 1.61297e+06 -412675 0 1.74974e+06 -274997 0 1.82528e+06 -148773 0 1.84612e+06 -38235.1 0 1.82421e+06 50626.8 0 1.77216e+06 116281 0 1.70104e+06 161033 0 1.61903e+06 188810 0 1.53189e+06 203674 0 1.4435e+06 209140 0 1.3564e+06 207994 0 1.27225e+06 202336 0 1.19208e+06 193701 0 1.11652e+06 183188 0 1.04589e+06 171570 0 980356 159382 0 919928 146991 0 864548 134640 0 814106 122484 0 768457 110620 0 727445 99097.1 0 690907 87936.5 0 658685 77135.9 0 630628 66678.1 0 606598 56535.1 0 586473 46671 0 570146 37045 0 557529 27612.6 0 548552 18326.8 0 543164 9139.11 0 541336 0 0 1.42407e+06 -592190 0 1.62483e+06 -418908 0 1.75949e+06 -277970 0 1.833e+06 -148849 0 1.85173e+06 -36020.7 0 1.82777e+06 54349.1 0 1.77404e+06 120874 0 1.70163e+06 166050 0 1.61871e+06 193965 0 1.53097e+06 208789 0 1.4422e+06 214107 0 1.3549e+06 212748 0 1.27066e+06 206839 0 1.19048e+06 197932 0 1.11495e+06 187137 0 1.0444e+06 175234 0 978948 162765 0 918617 150097 0 863338 137476 0 812993 125059 0 767437 112943 0 726512 101177 0 690054 89781.1 0 657903 78753.8 0 629909 68076.7 0 605934 57721.1 0 585854 47650.3 0 569565 37822.4 0 556976 28192.2 0 548019 18711.5 0 542645 9330.95 0 540821 0 0 1.4407e+06 -599103 0 1.63685e+06 -424891 0 1.76938e+06 -280767 0 1.84084e+06 -148753 0 1.85739e+06 -33646 0 1.83136e+06 58202.7 0 1.77592e+06 125566 0 1.70221e+06 171137 0 1.61838e+06 199166 0 1.53003e+06 213933 0 1.44089e+06 219090 0 1.35338e+06 217509 0 1.26905e+06 211344 0 1.18886e+06 202161 0 1.11337e+06 191082 0 1.04289e+06 178894 0 977525 166141 0 917292 153196 0 862112 140306 0 811866 127629 0 766404 115260 0 725566 103251 0 689187 91621.2 0 657108 80367.7 0 629177 69472 0 605257 58904.2 0 585224 48627.2 0 568971 38598 0 556412 28770.3 0 547476 19095.3 0 542113 9522.34 0 540294 0 0 1.4571e+06 -605923 0 1.64901e+06 -430633 0 1.7794e+06 -283390 0 1.8488e+06 -148480 0 1.86313e+06 -31109 0 1.83498e+06 62188.8 0 1.7778e+06 130358 0 1.70278e+06 176294 0 1.61803e+06 204414 0 1.52908e+06 219105 0 1.43956e+06 224090 0 1.35184e+06 222279 0 1.26742e+06 215851 0 1.18722e+06 206389 0 1.11177e+06 195023 0 1.04136e+06 182548 0 976087 169512 0 915951 156290 0 860872 143130 0 810724 130192 0 765357 117572 0 724606 105321 0 688308 93457 0 656301 81977.8 0 628434 70863.8 0 604568 60084.5 0 584581 49601.7 0 568366 39371.7 0 555836 29347.1 0 546921 19478.2 0 541571 9713.27 0 539756 0 0 1.47332e+06 -612668 0 1.6613e+06 -436139 0 1.78955e+06 -285839 0 1.85686e+06 -148029 0 1.86892e+06 -28407.4 0 1.83863e+06 66308.7 0 1.77969e+06 135249 0 1.70335e+06 181520 0 1.61767e+06 209707 0 1.52811e+06 224306 0 1.43821e+06 229106 0 1.35029e+06 227056 0 1.26578e+06 220360 0 1.18557e+06 210615 0 1.11016e+06 198960 0 1.03981e+06 186196 0 974632 172876 0 914595 159377 0 859617 145948 0 809568 132750 0 764295 119879 0 723633 107385 0 687416 95288.3 0 655481 83583.9 0 627678 72252.2 0 603867 61261.9 0 583927 50573.8 0 567750 40143.5 0 555249 29922.5 0 546355 19860.1 0 541018 9903.73 0 539207 0 0 1.4894e+06 -619355 0 1.67373e+06 -441415 0 1.79984e+06 -288113 0 1.86504e+06 -147396 0 1.87476e+06 -25539.2 0 1.8423e+06 70563.5 0 1.78158e+06 140241 0 1.70391e+06 186815 0 1.6173e+06 215045 0 1.52712e+06 229536 0 1.43685e+06 234138 0 1.34872e+06 231841 0 1.26412e+06 224871 0 1.18389e+06 214839 0 1.10852e+06 202893 0 1.03825e+06 189840 0 973162 176235 0 913223 162458 0 858347 148760 0 808398 135302 0 763220 122180 0 722647 109445 0 686510 97115.1 0 654648 85186.1 0 626909 73637.2 0 603155 62436.4 0 583261 51543.6 0 567122 40913.4 0 554651 30496.5 0 545778 20241.1 0 540453 10093.7 0 538646 0 0 1.50539e+06 -626003 0 1.68627e+06 -446464 0 1.81026e+06 -290213 0 1.87334e+06 -146578 0 1.88066e+06 -22502.3 0 1.84599e+06 74954.3 0 1.78346e+06 145333 0 1.70445e+06 192181 0 1.61691e+06 220430 0 1.52611e+06 234793 0 1.43547e+06 239186 0 1.34713e+06 236634 0 1.26244e+06 229384 0 1.1822e+06 219061 0 1.10688e+06 206822 0 1.03668e+06 193478 0 971675 179588 0 911837 165533 0 857062 151566 0 807213 137848 0 762131 124475 0 721647 111499 0 685592 98937.4 0 653803 86784.3 0 626129 75018.8 0 602430 63607.9 0 582583 52510.9 0 566483 41681.3 0 554042 31069 0 545190 20621.1 0 539878 10283.3 0 538075 0 0 1.52132e+06 -632628 0 1.69892e+06 -451288 0 1.82082e+06 -292142 0 1.88174e+06 -145571 0 1.88662e+06 -19294.6 0 1.84969e+06 79482.4 0 1.78534e+06 150526 0 1.70498e+06 197616 0 1.6165e+06 225860 0 1.52509e+06 240079 0 1.43407e+06 244249 0 1.34552e+06 241433 0 1.26074e+06 233898 0 1.1805e+06 223282 0 1.10521e+06 210747 0 1.03508e+06 197110 0 970173 182934 0 910435 168601 0 855762 154365 0 806015 140388 0 761029 126766 0 720634 113549 0 684661 100755 0 652946 88378.5 0 625336 76396.9 0 601693 64776.6 0 581894 53475.8 0 565832 42447.4 0 553421 31640.1 0 544590 21000.2 0 539291 10472.3 0 537493 0 0 1.53724e+06 -639247 0 1.71166e+06 -455888 0 1.83153e+06 -293900 0 1.89024e+06 -144371 0 1.89262e+06 -15914.2 0 1.85341e+06 84148.9 0 1.78722e+06 155819 0 1.70549e+06 203120 0 1.61607e+06 231336 0 1.52404e+06 245392 0 1.43265e+06 249329 0 1.3439e+06 246240 0 1.25903e+06 238414 0 1.17877e+06 227500 0 1.10353e+06 214668 0 1.03347e+06 200737 0 968655 186274 0 909017 171663 0 854448 157158 0 804801 142922 0 759912 129050 0 719607 115593 0 683716 102568 0 652075 89968.7 0 624531 77771.5 0 600945 65942.2 0 581193 54438.3 0 565170 43211.5 0 552789 32209.8 0 543980 21378.3 0 538693 10660.9 0 536899 0 0 1.55318e+06 -645877 0 1.7245e+06 -460261 0 1.84238e+06 -295490 0 1.89885e+06 -142973 0 1.89867e+06 -12359.3 0 1.85715e+06 88955.1 0 1.78908e+06 161215 0 1.70599e+06 208694 0 1.61562e+06 236857 0 1.52298e+06 250734 0 1.43121e+06 254423 0 1.34225e+06 251055 0 1.25729e+06 242932 0 1.17703e+06 231716 0 1.10183e+06 218584 0 1.03185e+06 204359 0 967121 189608 0 907584 174719 0 853119 159945 0 803574 145450 0 758781 131329 0 718567 117633 0 682759 104377 0 651192 91554.8 0 623714 79142.5 0 600184 67104.9 0 580480 55398.3 0 564497 43973.7 0 552145 32778 0 543358 21755.5 0 538084 10849 0 536295 0 0 1.5692e+06 -652537 0 1.73742e+06 -464406 0 1.85339e+06 -296914 0 1.90757e+06 -141373 0 1.90477e+06 -8628.34 0 1.86089e+06 93902.2 0 1.79094e+06 166711 0 1.70647e+06 214337 0 1.61515e+06 242423 0 1.52189e+06 256103 0 1.42974e+06 259533 0 1.34058e+06 255876 0 1.25554e+06 247451 0 1.17527e+06 235931 0 1.10011e+06 222496 0 1.0302e+06 207974 0 965571 192936 0 906136 177768 0 851775 162726 0 802332 147972 0 757637 133603 0 717514 119667 0 681789 106181 0 650297 93136.9 0 622884 80510.1 0 599412 68264.5 0 579756 56355.8 0 563812 44733.9 0 551491 33344.7 0 542725 22131.7 0 537465 11036.6 0 535680 0 0 1.58533e+06 -659246 0 1.75041e+06 -468317 0 1.86456e+06 -298177 0 1.91638e+06 -139565 0 1.91091e+06 -4719.74 0 1.86464e+06 98991.4 0 1.79278e+06 172310 0 1.70693e+06 220050 0 1.61466e+06 248033 0 1.52078e+06 261499 0 1.42826e+06 264659 0 1.3389e+06 260704 0 1.25377e+06 251972 0 1.17349e+06 240143 0 1.09837e+06 226404 0 1.02854e+06 211585 0 964005 196258 0 904672 180811 0 850416 165500 0 801076 150488 0 756479 135870 0 716447 121696 0 680806 107980 0 649389 94714.8 0 622043 81874.1 0 598628 69421.2 0 579020 57310.9 0 563115 45492.1 0 550825 33910 0 542081 22506.9 0 536834 11223.7 0 535053 0 0 1.60163e+06 -666024 0 1.76344e+06 -471987 0 1.8759e+06 -299283 0 1.92528e+06 -137542 0 1.9171e+06 -632.327 0 1.86839e+06 104224 0 1.7946e+06 178009 0 1.70736e+06 225831 0 1.61414e+06 253688 0 1.51965e+06 266922 0 1.42675e+06 269799 0 1.33719e+06 265538 0 1.25198e+06 256494 0 1.17169e+06 244352 0 1.09662e+06 230307 0 1.02687e+06 215189 0 962423 199573 0 903193 183847 0 849042 168268 0 799805 152998 0 755307 138133 0 715367 123720 0 679810 109775 0 648469 96288.6 0 621189 83234.5 0 597832 70574.8 0 578273 58263.4 0 562408 46248.3 0 550148 34473.8 0 541426 22881.2 0 536192 11410.4 0 534416 0 0 1.61815e+06 -672894 0 1.7765e+06 -475409 0 1.88743e+06 -300238 0 1.93426e+06 -135297 0 1.92333e+06 3634.77 0 1.87214e+06 109602 0 1.79641e+06 183811 0 1.70777e+06 231682 0 1.6136e+06 259387 0 1.51849e+06 272372 0 1.42523e+06 274953 0 1.33546e+06 270379 0 1.25017e+06 261016 0 1.16987e+06 248560 0 1.09485e+06 234205 0 1.02517e+06 218788 0 960824 202882 0 901698 186877 0 847653 171030 0 798521 155502 0 754121 140389 0 714274 125739 0 678801 111565 0 647536 97858.3 0 620323 84591.3 0 597024 71725.4 0 577514 59213.4 0 561688 47002.6 0 549460 35036.1 0 540760 23254.4 0 535539 11596.5 0 533767 0 0 1.63495e+06 -679879 0 1.78957e+06 -478570 0 1.89916e+06 -301047 0 1.94333e+06 -132822 0 1.9296e+06 8082.04 0 1.87588e+06 115126 0 1.7982e+06 189713 0 1.70816e+06 237601 0 1.61303e+06 265130 0 1.51731e+06 277848 0 1.42367e+06 280122 0 1.33371e+06 275226 0 1.24833e+06 265540 0 1.16804e+06 252764 0 1.09306e+06 238099 0 1.02346e+06 222380 0 959210 206184 0 900188 189900 0 846250 173785 0 797222 158000 0 752922 142640 0 713167 127752 0 677779 113351 0 646590 99423.9 0 619445 85944.5 0 596204 72872.8 0 576743 60160.9 0 560958 47754.8 0 548760 35596.9 0 540082 23626.7 0 534875 11782.2 0 533108 0 0 1.65209e+06 -687008 0 1.80261e+06 -481458 0 1.91111e+06 -301721 0 1.95246e+06 -130107 0 1.93591e+06 12709.5 0 1.87961e+06 120798 0 1.79997e+06 195717 0 1.70851e+06 243589 0 1.61243e+06 270917 0 1.5161e+06 283350 0 1.4221e+06 285306 0 1.33194e+06 280080 0 1.24648e+06 270065 0 1.16618e+06 256966 0 1.09125e+06 241988 0 1.02174e+06 225967 0 957579 209480 0 898663 192917 0 844831 176533 0 795908 160491 0 751708 144884 0 712047 129760 0 676744 115131 0 645632 100985 0 618555 87294.1 0 595372 74017.2 0 575961 61105.8 0 560216 48505 0 548050 36156.2 0 539394 23998 0 534200 11967.3 0 532437 0 0 1.66965e+06 -694311 0 1.81558e+06 -484056 0 1.92331e+06 -302267 0 1.96163e+06 -127142 0 1.94227e+06 17516.5 0 1.88332e+06 126620 0 1.80172e+06 201822 0 1.70884e+06 249644 0 1.61181e+06 276747 0 1.51487e+06 288878 0 1.4205e+06 290503 0 1.33015e+06 284939 0 1.24461e+06 274590 0 1.16431e+06 261166 0 1.08943e+06 245872 0 1.01999e+06 229548 0 955932 212770 0 897121 195927 0 843398 179275 0 794580 162976 0 750481 147124 0 710913 131763 0 675697 116907 0 644662 102542 0 617652 88640 0 594529 75158.5 0 575167 62048.1 0 559463 49253.1 0 547328 36713.9 0 538694 24368.2 0 533514 12152 0 531756 0 0 </DataArray> 
</PointData> 
<Points> 
<DataArray type="Float32" NumberOfComponents="3"> 