<?xml version="1.0"?> 
<VTKFile type="StructuredGrid" version="0.1"> 
<StructuredGrid WholeExtent="0 31 0 31 0 0"> 
<Piece Extent="0 31 0 31 0 0"> 
<PointData>
<DataArray type="Float32" Name="|E|" format="ascii" NumberOfComponents="3"> 
1.66965e+06 -665985 0 1.81558e+06 -487508 0 1.92331e+06 -301287 0 1.96163e+06 -127464 0 1.94227e+06 17606.7 0 1.88332e+06 126575 0 1.80172e+06 201817 0 1.70884e+06 249635 0 1.61181e+06 276742 0 1.51487e+06 288876 0 1.4205e+06 290503 0 1.33015e+06 284941 0 1.24461e+06 274592 0 1.16431e+06 261169 0 1.08943e+06 245875 0 1.01999e+06 229551 0 955932 212773 0 897121 195930 0 843398 179278 0 794580 162979 0 750481 147126 0 710913 131765 0 675697 116908 0 644662 102543 0 617652 88640.9 0 594529 75159.2 0 575167 62048.6 0 559463 49253.4 0 547328 36714.1 0 538694 24368.3 0 533514 12152 0 531756 0 0 1.69251e+06 -675101 0 1.84006e+06 -493438 0 1.94457e+06 -301551 0 1.97824e+06 -122119 0 1.95353e+06 26449.5 0 1.88997e+06 137047 0 1.80485e+06 212754 0 1.70947e+06 260427 0 1.61076e+06 287099 0 1.51274e+06 298675 0 1.41773e+06 299700 0 1.32703e+06 293529 0 1.24135e+06 282581 0 1.16104e+06 268577 0 1.08624e+06 252724 0 1.01694e+06 235862 0 953040 218567 0 894410 201230 0 840872 184105 0 792236 167353 0 748310 151067 0 708904 135290 0 673835 120033 0 642934 105283 0 616042 91008.9 0 593020 77167.1 0 573745 63706.4 0 558110 50569.6 0 546030 37695.3 0 537436 25019.6 0 532278 12476.8 0 530528 0 0 1.71582e+06 -684402 0 1.86495e+06 -499104 0 1.96638e+06 -301181 0 1.99512e+06 -116069 0 1.96485e+06 35901.9 0 1.89657e+06 147974 0 1.80788e+06 224007 0 1.71e+06 271427 0 1.60961e+06 297589 0 1.51052e+06 308553 0 1.41487e+06 308939 0 1.32383e+06 302134 0 1.23802e+06 290572 0 1.15771e+06 275977 0 1.08299e+06 259557 0 1.01382e+06 242154 0 950098 224342 0 891651 206510 0 838299 188913 0 789847 171709 0 746096 154990 0 706854 138798 0 671934 123144 0 641167 108010 0 614394 93365.7 0 591475 79165.5 0 572287 65356.4 0 556723 51879.5 0 544698 38671.9 0 536142 25667.9 0 531009 12800.1 0 529267 0 0 1.73961e+06 -693891 0 1.89033e+06 -504498 0 1.98876e+06 -300153 0 2.01226e+06 -109285 0 1.97622e+06 45976.8 0 1.90311e+06 159358 0 1.81081e+06 235573 0 1.71042e+06 282633 0 1.60836e+06 308207 0 1.50822e+06 318507 0 1.41194e+06 318219 0 1.32057e+06 310757 0 1.23462e+06 298565 0 1.15431e+06 283368 0 1.07968e+06 266376 0 1.01066e+06 248427 0 947104 230096 0 888843 211770 0 835681 193700 0 787414 176045 0 743840 158895 0 704762 142290 0 669993 126239 0 639362 110724 0 612709 95711.2 0 589894 81154.2 0 570793 66998.4 0 555301 53183.1 0 543331 39643.8 0 534815 26313 0 529705 13121.8 0 527971 0 0 1.76389e+06 -703576 0 1.91628e+06 -509609 0 2.0117e+06 -298440 0 2.02966e+06 -101740 0 1.98763e+06 56686.8 0 1.90957e+06 171203 0 1.81363e+06 247452 0 1.71072e+06 294042 0 1.607e+06 318952 0 1.50582e+06 328536 0 1.40892e+06 327538 0 1.31723e+06 319395 0 1.23115e+06 306557 0 1.15086e+06 290749 0 1.07632e+06 273178 0 1.00744e+06 254681 0 944059 235830 0 885986 217008 0 833015 198467 0 784936 180362 0 741540 162782 0 702629 145766 0 668013 129320 0 637518 113425 0 610986 98045.1 0 588276 83133.2 0 569264 68632.3 0 553844 54480.3 0 541929 40610.8 0 533454 26955 0 528368 13441.9 0 526642 0 0 1.78869e+06 -713468 0 1.94287e+06 -514425 0 2.03523e+06 -296008 0 2.0473e+06 -93403.1 0 1.99903e+06 68043.7 0 1.91593e+06 183509 0 1.81632e+06 259641 0 1.71089e+06 305651 0 1.60553e+06 329821 0 1.50331e+06 338636 0 1.40582e+06 336894 0 1.31381e+06 328048 0 1.22762e+06 314548 0 1.14734e+06 298120 0 1.0729e+06 279965 0 1.00417e+06 260916 0 940963 241542 0 883081 222225 0 830304 203213 0 782414 184659 0 739198 166651 0 700455 149224 0 665992 132385 0 635636 116112 0 609226 100367 0 586622 85102.3 0 567699 70258.1 0 552351 55771 0 540494 41573.1 0 532058 27593.7 0 526996 13760.5 0 525279 0 0 1.81406e+06 -723584 0 1.97018e+06 -518931 0 2.05935e+06 -292817 0 2.06515e+06 -84243.3 0 2.01041e+06 80059 0 1.92217e+06 196279 0 1.81886e+06 272137 0 1.71093e+06 317456 0 1.60394e+06 340810 0 1.50071e+06 348806 0 1.40262e+06 346286 0 1.31031e+06 336713 0 1.22402e+06 322538 0 1.14375e+06 305479 0 1.06941e+06 286734 0 1.00084e+06 267131 0 937815 247233 0 880127 227420 0 827546 207938 0 779847 188937 0 736814 170501 0 698240 152666 0 663932 135435 0 633716 118786 0 607429 102678 0 584931 87061.4 0 566098 71875.6 0 550824 57055.1 0 539024 42530.5 0 530629 28229.2 0 525591 14077.4 0 523882 0 0 1.84003e+06 -733944 0 1.99828e+06 -523107 0 2.08408e+06 -288822 0 2.08319e+06 -74228.3 0 2.02174e+06 92743.1 0 1.92826e+06 209512 0 1.82124e+06 284937 0 1.71082e+06 329454 0 1.60222e+06 351916 0 1.49799e+06 359043 0 1.39933e+06 355711 0 1.30673e+06 345390 0 1.22034e+06 330525 0 1.1401e+06 312827 0 1.06587e+06 293486 0 997453 273325 0 934615 252903 0 877124 232594 0 824741 212641 0 777236 193193 0 734387 174332 0 695984 156091 0 661833 138470 0 631757 121446 0 605595 104977 0 583204 89010.4 0 564462 73484.8 0 549262 58332.7 0 537519 43482.9 0 529165 28861.5 0 524153 14392.7 0 522452 0 0 1.86667e+06 -744572 0 2.02726e+06 -526929 0 2.10942e+06 -283973 0 2.1014e+06 -63324.8 0 2.033e+06 106105 0 1.93419e+06 223208 0 1.82345e+06 298037 0 1.71056e+06 341640 0 1.60037e+06 363137 0 1.49517e+06 369345 0 1.39595e+06 365168 0 1.30307e+06 354077 0 1.21659e+06 338508 0 1.13639e+06 320162 0 1.06227e+06 300220 0 994014 279498 0 931364 258550 0 874072 237745 0 821890 217323 0 774581 197430 0 731917 178144 0 693687 159498 0 659694 141489 0 629760 124092 0 603723 107264 0 581442 90949.3 0 562791 75085.6 0 547666 59603.6 0 535981 44430.4 0 527668 29490.4 0 522680 14706.4 0 520988 0 0 1.89405e+06 -755494 0 2.05718e+06 -530367 0 2.13539e+06 -278213 0 2.11975e+06 -51499.1 0 2.04414e+06 120154 0 1.93994e+06 237364 0 1.82547e+06 311432 0 1.71013e+06 354009 0 1.59838e+06 374466 0 1.49222e+06 379707 0 1.39247e+06 374654 0 1.29933e+06 362772 0 1.21277e+06 346485 0 1.13261e+06 327483 0 1.05861e+06 306935 0 990519 285650 0 928061 264174 0 870971 242874 0 818993 221984 0 771881 201646 0 729405 181937 0 691349 162888 0 657516 144493 0 627725 126725 0 601815 109539 0 579643 92877.9 0 561084 76677.9 0 546035 60867.7 0 534408 45372.8 0 526137 30116 0 521175 15018.4 0 519491 0 0 1.92225e+06 -766741 0 2.08814e+06 -533386 0 2.16197e+06 -271477 0 2.13819e+06 -38716.8 0 2.05514e+06 134897 0 1.94549e+06 251977 0 1.8273e+06 325117 0 1.70953e+06 366556 0 1.59625e+06 385902 0 1.48916e+06 390128 0 1.38888e+06 384168 0 1.2955e+06 371474 0 1.20887e+06 354457 0 1.12876e+06 334789 0 1.05489e+06 313631 0 986969 291780 0 924705 269776 0 867821 247980 0 816049 226622 0 769138 205841 0 726851 185711 0 688971 166260 0 655299 147481 0 625652 129343 0 599870 111801 0 577808 94796.2 0 559343 78261.6 0 544369 62125 0 532801 46310.2 0 524573 30738.3 0 519635 15328.7 0 517960 0 0 1.95136e+06 -778350 0 2.12022e+06 -535944 0 2.18919e+06 -263694 0 2.15669e+06 -24944 0 2.06597e+06 150338 0 1.95081e+06 267044 0 1.82891e+06 339086 0 1.70875e+06 379277 0 1.59396e+06 397439 0 1.48598e+06 400604 0 1.3852e+06 393706 0 1.29158e+06 380182 0 1.2049e+06 362421 0 1.12485e+06 342081 0 1.05111e+06 320307 0 983362 297887 0 921298 275354 0 864622 253062 0 813059 231237 0 766350 210015 0 724255 189466 0 686553 169614 0 653042 150452 0 623542 131947 0 597888 114051 0 575937 96704 0 557566 79836.7 0 542669 63375.5 0 531161 47242.4 0 522975 31357.1 0 518063 15637.3 0 516396 0 0 1.98146e+06 -790359 0 2.15352e+06 -537986 0 2.21701e+06 -254786 0 2.1752e+06 -10147.4 0 2.0766e+06 166481 0 1.95588e+06 282560 0 1.8303e+06 353332 0 1.70778e+06 392165 0 1.59153e+06 409073 0 1.48267e+06 411131 0 1.38141e+06 403266 0 1.28757e+06 388892 0 1.20085e+06 370376 0 1.12086e+06 349356 0 1.04727e+06 326962 0 979699 303972 0 917838 280909 0 861375 258121 0 810023 235830 0 763518 214167 0 721616 193200 0 684093 172951 0 650747 153408 0 621393 134537 0 595869 116289 0 574031 98601.3 0 555754 81403.1 0 540935 64619 0 529487 48169.5 0 521343 31972.5 0 516457 15944.2 0 514799 0 0 2.01269e+06 -802814 0 2.18814e+06 -539452 0 2.24544e+06 -244667 0 2.19368e+06 5705.23 0 2.08698e+06 183328 0 1.96068e+06 298518 0 1.83145e+06 367847 0 1.70661e+06 405213 0 1.58893e+06 420799 0 1.47923e+06 421707 0 1.37751e+06 412846 0 1.28348e+06 397604 0 1.19672e+06 378321 0 1.11681e+06 356613 0 1.04336e+06 333596 0 975980 310033 0 914326 286439 0 858078 263156 0 806940 240400 0 760642 218298 0 718935 196915 0 681594 176269 0 648413 156347 0 619207 137113 0 593814 118515 0 572089 100488 0 553908 82960.6 0 539166 65855.5 0 527779 49091.4 0 519678 32584.5 0 514818 16249.4 0 513169 0 0 2.04517e+06 -815769 0 2.22419e+06 -540265 0 2.27444e+06 -233242 0 2.21207e+06 22643.6 0 2.09709e+06 200878 0 1.96519e+06 314911 0 1.83234e+06 382623 0 1.70524e+06 418416 0 1.58617e+06 432613 0 1.47566e+06 432327 0 1.37351e+06 422444 0 1.27929e+06 406316 0 1.19251e+06 386254 0 1.11269e+06 363853 0 1.03939e+06 340208 0 972203 316070 0 910761 291945 0 854732 268167 0 803811 244947 0 757722 222407 0 716213 200609 0 679054 179568 0 646040 159270 0 616984 139674 0 591723 120727 0 570112 102364 0 552027 84509.3 0 537364 67085 0 526037 50008 0 517980 33192.9 0 513146 16552.9 0 511506 0 0 2.07905e+06 -829284 0 2.26179e+06 -540335 0 2.30398e+06 -220409 0 2.2303e+06 40694.8 0 2.10689e+06 219127 0 1.96939e+06 331730 0 1.83297e+06 397652 0 1.70366e+06 431766 0 1.58324e+06 444508 0 1.47195e+06 442989 0 1.36939e+06 432056 0 1.27501e+06 415026 0 1.18822e+06 394175 0 1.1085e+06 371073 0 1.03536e+06 346796 0 968370 322082 0 907144 297426 0 851337 273153 0 800636 249470 0 754759 226494 0 713448 204283 0 676474 182850 0 643628 162176 0 614723 142220 0 589595 122927 0 568099 104229 0 550111 86048.9 0 535527 68307.3 0 524262 50919.3 0 516249 33797.8 0 511441 16854.5 0 509809 0 0 2.11451e+06 -843429 0 2.30103e+06 -539554 0 2.33401e+06 -206058 0 2.24831e+06 59881.7 0 2.11634e+06 238071 0 1.97325e+06 348964 0 1.83332e+06 412923 0 1.70185e+06 445257 0 1.58014e+06 456481 0 1.4681e+06 453687 0 1.36516e+06 441681 0 1.27064e+06 423732 0 1.18386e+06 402082 0 1.10424e+06 378272 0 1.03127e+06 353361 0 964480 328069 0 903475 302881 0 847893 278115 0 797415 253969 0 751751 230559 0 710642 207936 0 673854 186112 0 641178 165065 0 612425 144752 0 587430 125114 0 566051 106083 0 548161 87579.6 0 533656 69522.4 0 522453 51825.2 0 514484 34399.2 0 509703 17154.4 0 508080 0 0 2.15177e+06 -858288 0 2.34207e+06 -537789 0 2.36445e+06 -190072 0 2.26604e+06 80222.2 0 2.1254e+06 257703 0 1.97675e+06 366602 0 1.83339e+06 428427 0 1.69982e+06 458880 0 1.57686e+06 468525 0 1.46412e+06 464419 0 1.36082e+06 451314 0 1.26617e+06 432431 0 1.17941e+06 409973 0 1.09991e+06 385451 0 1.02711e+06 359901 0 960533 334030 0 899753 308310 0 844400 283050 0 794147 258444 0 748700 234601 0 707795 211569 0 671195 189355 0 638689 167937 0 610089 147268 0 585230 127288 0 563967 107926 0 546176 89101 0 531752 70730.3 0 520611 52725.7 0 512686 34997 0 507932 17452.6 0 506319 0 0 2.19106e+06 -873961 0 2.385e+06 -534885 0 2.39522e+06 -172328 0 2.28342e+06 101728 0 2.13405e+06 278011 0 1.97987e+06 384631 0 1.83315e+06 444153 0 1.69756e+06 472628 0 1.5734e+06 480634 0 1.45999e+06 475181 0 1.35636e+06 460954 0 1.2616e+06 441123 0 1.17488e+06 417847 0 1.09551e+06 392607 0 1.02289e+06 366416 0 956529 339964 0 895978 313712 0 840858 287960 0 790834 262895 0 745606 238620 0 704905 215180 0 668495 192580 0 636162 170792 0 607717 149770 0 582994 129449 0 561849 109757 0 544157 90613.3 0 529814 71930.9 0 518736 53620.7 0 510856 35591.1 0 506128 17748.9 0 504524 0 0 2.23269e+06 -890566 0 2.42997e+06 -530650 0 2.42621e+06 -152697 0 2.30036e+06 124404 0 2.14224e+06 298985 0 1.98259e+06 403036 0 1.83261e+06 460089 0 1.69506e+06 486492 0 1.56975e+06 492804 0 1.45571e+06 485967 0 1.35179e+06 470598 0 1.25694e+06 449804 0 1.17027e+06 425702 0 1.09104e+06 399739 0 1.01861e+06 372905 0 952468 345872 0 892150 319088 0 837268 292844 0 787475 267321 0 742467 242616 0 701975 218770 0 665756 195785 0 633596 173630 0 605307 152256 0 580722 131597 0 559695 111578 0 542103 92116.2 0 527842 73124 0 516827 54510.2 0 508993 36181.6 0 504292 18043.3 0 502697 0 0 2.27701e+06 -908246 0 2.47708e+06 -524855 0 2.45728e+06 -131051 0 2.31681e+06 148245 0 2.14993e+06 320609 0 1.98489e+06 421802 0 1.83174e+06 476224 0 1.69231e+06 500464 0 1.56592e+06 505027 0 1.45129e+06 496775 0 1.3471e+06 480242 0 1.25218e+06 458473 0 1.16558e+06 433538 0 1.08649e+06 406847 0 1.01427e+06 379367 0 948349 351751 0 888271 324436 0 833628 297702 0 784070 271721 0 739286 246588 0 699003 222339 0 662977 198970 0 630993 176451 0 602861 154727 0 578414 133731 0 557507 113387 0 540016 93609.8 0 525837 74309.7 0 514886 55394.2 0 507097 36768.4 0 502424 18336 0 500838 0 0 2.32448e+06 -927178 0 2.52645e+06 -517222 0 2.48827e+06 -107260 0 2.33268e+06 173239 0 2.15709e+06 342868 0 1.98675e+06 440909 0 1.83055e+06 492545 0 1.68931e+06 514536 0 1.56189e+06 517298 0 1.44672e+06 507600 0 1.34228e+06 489884 0 1.24732e+06 467128 0 1.1608e+06 441352 0 1.08188e+06 413930 0 1.00986e+06 385802 0 944173 357603 0 884338 329756 0 829940 302532 0 780619 276097 0 736061 250537 0 695989 225886 0 660158 202136 0 628352 179253 0 600378 157182 0 576071 135852 0 555284 115185 0 537895 95093.9 0 523798 75487.9 0 512911 56272.6 0 505168 37351.5 0 500523 18626.8 0 498947 0 0 2.37562e+06 -947580 0 2.57814e+06 -507414 0 2.51897e+06 -81205.5 0 2.34791e+06 199363 0 2.16368e+06 365743 0 1.98815e+06 460340 0 1.82902e+06 509039 0 1.68606e+06 528698 0 1.55767e+06 529611 0 1.442e+06 518437 0 1.33735e+06 499520 0 1.24237e+06 475767 0 1.15594e+06 449142 0 1.07719e+06 420985 0 1.00538e+06 392208 0 939939 363425 0 880353 335047 0 826203 307335 0 777123 280446 0 732793 254462 0 692935 229411 0 657301 205282 0 625672 182038 0 597859 159621 0 573692 137959 0 553026 116971 0 535739 96568.5 0 521727 76658.5 0 510904 57145.3 0 503207 37930.8 0 498589 18915.7 0 497023 0 0 2.43113e+06 -969721 0 2.63218e+06 -495020 0 2.54916e+06 -52781 0 2.36245e+06 226586 0 2.16965e+06 389215 0 1.98908e+06 480072 0 1.82714e+06 525694 0 1.68254e+06 542941 0 1.55326e+06 541960 0 1.43712e+06 529282 0 1.33229e+06 509148 0 1.23731e+06 484387 0 1.151e+06 456909 0 1.07243e+06 428013 0 1.00085e+06 398584 0 935648 369218 0 876315 340310 0 822417 312111 0 773581 284770 0 729483 258363 0 689840 232914 0 654404 208408 0 622956 184806 0 595303 162045 0 571277 140053 0 550734 118746 0 533550 98033.4 0 519622 77821.5 0 508864 58012.3 0 501214 38506.4 0 496624 19202.7 0 495067 0 0 2.49185e+06 -993942 0 2.68855e+06 -479539 0 2.57859e+06 -21906.9 0 2.37624e+06 254867 0 2.17496e+06 413262 0 1.98952e+06 500082 0 1.82491e+06 542495 0 1.67876e+06 557255 0 1.54864e+06 554338 0 1.43209e+06 540132 0 1.32711e+06 518765 0 1.23215e+06 492987 0 1.14597e+06 464649 0 1.06759e+06 435012 0 996247 404930 0 931299 374981 0 872225 345543 0 818583 316858 0 769993 289067 0 726129 262239 0 686704 236394 0 651468 211514 0 620201 187555 0 592710 164453 0 568828 142133 0 548408 120509 0 531328 99488.7 0 517484 78976.8 0 506792 58873.6 0 499188 39078.1 0 494626 19487.9 0 493079 0 0 2.55888e+06 -1.02068e+06 0 2.7471e+06 -460356 0 2.60698e+06 11456 0 2.38923e+06 284162 0 2.17957e+06 437857 0 1.98946e+06 520347 0 1.82232e+06 559431 0 1.67471e+06 571630 0 1.54383e+06 566738 0 1.4269e+06 550981 0 1.32181e+06 528368 0 1.22689e+06 501563 0 1.14085e+06 472361 0 1.06269e+06 441980 0 991582 411245 0 926893 380713 0 868083 350747 0 814700 321577 0 766361 293337 0 722732 266091 0 683527 239852 0 648493 214599 0 617409 190285 0 590082 166845 0 566343 144198 0 546047 122260 0 529072 100934 0 515313 80124.3 0 504687 59729.1 0 497130 39646 0 492597 19771.1 0 491059 0 0 2.63358e+06 -1.05047e+06 0 2.80755e+06 -436720 0 2.63407e+06 47287.7 0 2.4014e+06 314430 0 2.18343e+06 462971 0 1.9889e+06 540842 0 1.81935e+06 576487 0 1.6704e+06 586057 0 1.53881e+06 579155 0 1.42156e+06 561825 0 1.31639e+06 537953 0 1.22153e+06 510114 0 1.13566e+06 480044 0 1.05771e+06 448917 0 986853 417528 0 922430 386413 0 863888 355920 0 810769 326267 0 762683 297581 0 719293 269918 0 680310 243287 0 645480 217664 0 614580 192998 0 587417 169220 0 563823 146250 0 543653 123999 0 526782 102370 0 513109 81263.9 0 502550 60578.8 0 495041 40210 0 490536 20052.3 0 489007 0 0 2.71773e+06 -1.08404e+06 0 2.86938e+06 -407703 0 2.6596e+06 85481.7 0 2.41272e+06 345637 0 2.18648e+06 488565 0 1.98784e+06 561543 0 1.81601e+06 593647 0 1.6658e+06 600526 0 1.53359e+06 591582 0 1.41606e+06 572659 0 1.31084e+06 547517 0 1.21607e+06 518639 0 1.13037e+06 487697 0 1.05265e+06 455821 0 982060 423779 0 917909 392081 0 859641 361061 0 806790 330928 0 758960 301797 0 715812 273719 0 677053 246699 0 642428 220708 0 611714 195692 0 584717 171579 0 561269 148288 0 541224 125726 0 524459 103795 0 510872 82395.7 0 500380 61422.5 0 492919 40770.1 0 488442 20331.7 0 486924 0 0 2.81365e+06 -1.1223e+06 0 2.93177e+06 -372163 0 2.6834e+06 125812 0 2.42311e+06 377777 0 2.18868e+06 514587 0 1.98627e+06 582429 0 1.81227e+06 610898 0 1.66094e+06 615027 0 1.52816e+06 604012 0 1.4104e+06 583480 0 1.30516e+06 557057 0 1.21051e+06 527134 0 1.12501e+06 495317 0 1.04753e+06 462692 0 977203 429995 0 913331 397716 0 855342 366172 0 802763 335559 0 755192 305985 0 712288 277495 0 673755 250088 0 639337 223731 0 608811 198367 0 581981 173922 0 558680 150311 0 538761 127441 0 522104 105211 0 508604 83519.5 0 498179 62260.4 0 490765 41326.3 0 486318 20609 0 484809 0 0 2.92434e+06 -1.16645e+06 0 2.99343e+06 -328682 0 2.70542e+06 167882 0 2.43249e+06 410890 0 2.19002e+06 540963 0 1.98419e+06 603485 0 1.80813e+06 628220 0 1.65581e+06 629550 0 1.52252e+06 616438 0 1.40458e+06 594283 0 1.29936e+06 566570 0 1.20485e+06 535597 0 1.11955e+06 502902 0 1.04233e+06 469528 0 972283 436177 0 908696 403317 0 850992 371250 0 798687 340160 0 751379 310145 0 708722 281245 0 670417 253453 0 636209 226733 0 605871 201023 0 579209 176248 0 556056 152320 0 536265 129143 0 519715 106617 0 506302 84635.3 0 495945 63092.2 0 488580 41878.5 0 484162 20884.4 0 482663 0 0 3.05373e+06 -1.21806e+06 0 3.05244e+06 -275510 0 2.72588e+06 211080 0 2.44066e+06 445088 0 2.19052e+06 567585 0 1.98158e+06 624706 0 1.8036e+06 645592 0 1.6504e+06 644087 0 1.51667e+06 628853 0 1.39861e+06 605063 0 1.29343e+06 576053 0 1.19908e+06 544026 0 1.11402e+06 510452 0 1.03706e+06 476328 0 967298 442324 0 904004 408885 0 846589 376296 0 794564 344730 0 747522 314277 0 705114 284969 0 667040 256795 0 633042 229713 0 602894 203660 0 576402 178557 0 553398 154314 0 533735 130834 0 517293 108012 0 503969 85743.1 0 493680 63918.1 0 486363 42426.7 0 481974 21157.8 0 480485 0 0 3.20702e+06 -1.2792e+06 0 3.10596e+06 -210422 0 2.74542e+06 254442 0 2.44723e+06 480618 0 2.1903e+06 594284 0 1.97837e+06 646108 0 1.79869e+06 662986 0 1.64471e+06 658630 0 1.51061e+06 641253 0 1.39247e+06 615814 0 1.28738e+06 585504 0 1.19322e+06 552419 0 1.10839e+06 517965 0 1.03172e+06 483091 0 962250 448434 0 899255 414417 0 842134 381309 0 790394 349269 0 743621 318380 0 701464 288667 0 663623 260112 0 629837 232672 0 599881 206278 0 573560 180850 0 550705 156294 0 531172 132511 0 514839 109397 0 501603 86842.6 0 491383 64737.8 0 484115 42970.9 0 479755 21429.2 0 478276 0 0 </DataArray> 
</PointData> 
<Points> 
<DataArray type="Float32" NumberOfComponents="3"> 