<?xml version="1.0"?> 
<VTKFile type="StructuredGrid" version="0.1"> 
<StructuredGrid WholeExtent="0 31 0 31 0 0"> 
<Piece Extent="0 31 0 31 0 0"> 
<PointData>
<DataArray type="Float32" Name="|E|" format="ascii" NumberOfComponents="3"> 
-1.66748e+06 0 0 -1.66901e+06 61155.3 0 -1.67351e+06 122520 0 -1.68097e+06 184303 0 -1.69136e+06 246718 0 -1.70463e+06 309982 0 -1.72073e+06 374318 0 -1.73956e+06 439954 0 -1.76103e+06 507121 0 -1.78498e+06 576059 0 -1.8112e+06 647003 0 -1.83942e+06 720185 0 -1.86926e+06 795814 0 -1.90025e+06 874056 0 -1.93173e+06 954990 0 -1.96286e+06 1.03854e+06 0 -1.99256e+06 1.12438e+06 0 -2.01952e+06 1.21174e+06 0 -2.0422e+06 1.29921e+06 0 -2.05907e+06 1.38436e+06 0 -2.06891e+06 1.46357e+06 0 -2.07163e+06 1.53165e+06 0 -2.06859e+06 1.5825e+06 0 -2.06455e+06 1.60917e+06 0 -2.06441e+06 1.60611e+06 0 -2.08114e+06 1.57017e+06 0 -2.11184e+06 1.49493e+06 0 -2.19528e+06 1.4039e+06 0 -2.26098e+06 1.22672e+06 0 -2.52503e+06 1.24066e+06 0 -2.50058e+06 636345 0 -4.67449e+06 5.73615e+06 0 -1.64373e+06 0 0 -1.6458e+06 62259.2 0 -1.65076e+06 124670 0 -1.65861e+06 187439 0 -1.66932e+06 250775 0 -1.68285e+06 314892 0 -1.69916e+06 380005 0 -1.71815e+06 446336 0 -1.73973e+06 514111 0 -1.76375e+06 583556 0 -1.79001e+06 654897 0 -1.81824e+06 728348 0 -1.8481e+06 804098 0 -1.87911e+06 882290 0 -1.91066e+06 962975 0 -1.94196e+06 1.04605e+06 0 -1.972e+06 1.13115e+06 0 -1.99957e+06 1.21749e+06 0 -2.0233e+06 1.30367e+06 0 -2.0418e+06 1.38734e+06 0 -2.05408e+06 1.46502e+06 0 -2.06008e+06 1.53188e+06 0 -2.06144e+06 1.58202e+06 0 -2.06202e+06 1.60915e+06 0 -2.0681e+06 1.60759e+06 0 -2.08762e+06 1.57402e+06 0 -2.12866e+06 1.50452e+06 0 -2.201e+06 1.40965e+06 0 -2.30426e+06 1.26392e+06 0 -2.4753e+06 1.1993e+06 0 -2.668e+06 930957 0 -3.62084e+06 3.97137e+06 0 -1.61956e+06 0 0 -1.62218e+06 63334.2 0 -1.62762e+06 126766 0 -1.63588e+06 190497 0 -1.64693e+06 254732 0 -1.66076e+06 319681 0 -1.67729e+06 385553 0 -1.69648e+06 452565 0 -1.7182e+06 520934 0 -1.74232e+06 590876 0 -1.76865e+06 662606 0 -1.79693e+06 736322 0 -1.82684e+06 812196 0 -1.85793e+06 890348 0 -1.8896e+06 970803 0 -1.92113e+06 1.05343e+06 0 -1.95158e+06 1.13784e+06 0 -1.97983e+06 1.22325e+06 0 -2.00464e+06 1.30825e+06 0 -2.02481e+06 1.39059e+06 0 -2.03949e+06 1.46692e+06 0 -2.04874e+06 1.5327e+06 0 -2.05423e+06 1.58235e+06 0 -2.05951e+06 1.60993e+06 0 -2.07088e+06 1.60997e+06 0 -2.09479e+06 1.57884e+06 0 -2.14185e+06 1.51386e+06 0 -2.2131e+06 1.41942e+06 0 -2.33001e+06 1.28982e+06 0 -2.46437e+06 1.19257e+06 0 -2.72661e+06 1.08214e+06 0 -3.02605e+06 3.07321e+06 0 -1.59497e+06 0 0 -1.59816e+06 64380.9 0 -1.6041e+06 128807 0 -1.61279e+06 193477 0 -1.62422e+06 258591 0 -1.63835e+06 324352 0 -1.65515e+06 390968 0 -1.67454e+06 458646 0 -1.69643e+06 527596 0 -1.72069e+06 598026 0 -1.74712e+06 670138 0 -1.7755e+06 744118 0 -1.8055e+06 820119 0 -1.83671e+06 898241 0 -1.86856e+06 978487 0 -1.90038e+06 1.0607e+06 0 -1.93129e+06 1.14448e+06 0 -1.96027e+06 1.22902e+06 0 -1.98621e+06 1.31296e+06 0 -2.00805e+06 1.3941e+06 0 -2.0251e+06 1.46926e+06 0 -2.03753e+06 1.53412e+06 0 -2.04698e+06 1.58342e+06 0 -2.05686e+06 1.61153e+06 0 -2.07312e+06 1.61319e+06 0 -2.10182e+06 1.58454e+06 0 -2.15334e+06 1.52345e+06 0 -2.22721e+06 1.43111e+06 0 -2.34831e+06 1.31114e+06 0 -2.46958e+06 1.19918e+06 0 -2.73626e+06 1.16842e+06 0 -2.66981e+06 2.5047e+06 0 -1.56997e+06 0 0 -1.57375e+06 65399.8 0 -1.58021e+06 130795 0 -1.58936e+06 196381 0 -1.60118e+06 262353 0 -1.61565e+06 328909 0 -1.63273e+06 396251 0 -1.65236e+06 464582 0 -1.67445e+06 534102 0 -1.69886e+06 605012 0 -1.72544e+06 677502 0 -1.75395e+06 751744 0 -1.78408e+06 827877 0 -1.81545e+06 905982 0 -1.84753e+06 986041 0 -1.87968e+06 1.06788e+06 0 -1.9111e+06 1.15108e+06 0 -1.94087e+06 1.23484e+06 0 -1.96797e+06 1.31781e+06 0 -1.99149e+06 1.39789e+06 0 -2.01089e+06 1.47202e+06 0 -2.0264e+06 1.53611e+06 0 -2.03967e+06 1.5852e+06 0 -2.054e+06 1.61391e+06 0 -2.07491e+06 1.61719e+06 0 -2.10843e+06 1.59105e+06 0 -2.16386e+06 1.53346e+06 0 -2.24165e+06 1.44404e+06 0 -2.3633e+06 1.33005e+06 0 -2.48152e+06 1.21238e+06 0 -2.72406e+06 1.21535e+06 0 -2.45371e+06 2.12382e+06 0 -1.54458e+06 0 0 -1.54897e+06 66391.5 0 -1.55597e+06 132732 0 -1.56559e+06 199211 0 -1.57782e+06 266021 0 -1.59265e+06 333354 0 -1.61004e+06 401408 0 -1.62993e+06 470377 0 -1.65224e+06 540458 0 -1.67685e+06 611840 0 -1.7036e+06 684703 0 -1.73227e+06 759208 0 -1.76258e+06 835479 0 -1.79415e+06 913581 0 -1.8265e+06 993478 0 -1.85903e+06 1.07498e+06 0 -1.89101e+06 1.15765e+06 0 -1.9216e+06 1.2407e+06 0 -1.94989e+06 1.32281e+06 0 -1.9751e+06 1.40194e+06 0 -1.9968e+06 1.47518e+06 0 -2.01532e+06 1.53866e+06 0 -2.03228e+06 1.58766e+06 0 -2.05089e+06 1.61705e+06 0 -2.0763e+06 1.62195e+06 0 -2.11449e+06 1.59832e+06 0 -2.17369e+06 1.544e+06 0 -2.25571e+06 1.4578e+06 0 -2.37691e+06 1.34781e+06 0 -2.49587e+06 1.22825e+06 0 -2.7042e+06 1.23887e+06 0 -2.32408e+06 1.8469e+06 0 -1.5188e+06 0 0 -1.52382e+06 67356.7 0 -1.53138e+06 134618 0 -1.54149e+06 201969 0 -1.55416e+06 269597 0 -1.56937e+06 337691 0 -1.58709e+06 406441 0 -1.60727e+06 476037 0 -1.62983e+06 546668 0 -1.65466e+06 618515 0 -1.68161e+06 691749 0 -1.71048e+06 766519 0 -1.74099e+06 842935 0 -1.77281e+06 921048 0 -1.80547e+06 1.00081e+06 0 -1.83843e+06 1.08201e+06 0 -1.87101e+06 1.16421e+06 0 -1.90244e+06 1.24663e+06 0 -1.93195e+06 1.32796e+06 0 -1.95884e+06 1.40627e+06 0 -1.98281e+06 1.47875e+06 0 -2.00426e+06 1.54174e+06 0 -2.02478e+06 1.59076e+06 0 -2.0475e+06 1.62091e+06 0 -2.07727e+06 1.62744e+06 0 -2.11997e+06 1.6063e+06 0 -2.18295e+06 1.55509e+06 0 -2.26912e+06 1.4722e+06 0 -2.38999e+06 1.36506e+06 0 -2.51079e+06 1.24498e+06 0 -2.68405e+06 1.24757e+06 0 -2.25037e+06 1.63596e+06 0 -1.49264e+06 0 0 -1.49831e+06 68296 0 -1.50645e+06 136454 0 -1.51707e+06 204656 0 -1.5302e+06 273083 0 -1.54581e+06 341920 0 -1.56389e+06 411353 0 -1.58438e+06 481564 0 -1.60721e+06 552736 0 -1.63229e+06 625043 0 -1.65947e+06 698646 0 -1.68857e+06 773683 0 -1.71932e+06 850253 0 -1.75142e+06 928393 0 -1.78443e+06 1.00804e+06 0 -1.81785e+06 1.08898e+06 0 -1.85106e+06 1.17076e+06 0 -1.88339e+06 1.25261e+06 0 -1.91412e+06 1.33327e+06 0 -1.94269e+06 1.41086e+06 0 -1.96888e+06 1.48271e+06 0 -1.99317e+06 1.54534e+06 0 -2.01714e+06 1.59448e+06 0 -2.04383e+06 1.62544e+06 0 -2.07782e+06 1.63363e+06 0 -2.12487e+06 1.61496e+06 0 -2.19165e+06 1.56677e+06 0 -2.28181e+06 1.48713e+06 0 -2.40289e+06 1.38215e+06 0 -2.52564e+06 1.26167e+06 0 -2.6674e+06 1.24705e+06 0 -2.21425e+06 1.46805e+06 0 -1.46612e+06 0 0 -1.47245e+06 69209.9 0 -1.48118e+06 138242 0 -1.49235e+06 207274 0 -1.50595e+06 276482 0 -1.52198e+06 346047 0 -1.54043e+06 416148 0 -1.56125e+06 486963 0 -1.58439e+06 558669 0 -1.60974e+06 631430 0 -1.63719e+06 705401 0 -1.66654e+06 780708 0 -1.69757e+06 857441 0 -1.72997e+06 935624 0 -1.76337e+06 1.01518e+06 0 -1.79728e+06 1.09589e+06 0 -1.83117e+06 1.17731e+06 0 -1.8644e+06 1.25866e+06 0 -1.89637e+06 1.33874e+06 0 -1.92661e+06 1.41571e+06 0 -1.95498e+06 1.48705e+06 0 -1.98204e+06 1.54942e+06 0 -2.00934e+06 1.59878e+06 0 -2.03984e+06 1.63063e+06 0 -2.07794e+06 1.64049e+06 0 -2.1292e+06 1.62427e+06 0 -2.19979e+06 1.57903e+06 0 -2.29381e+06 1.50253e+06 0 -2.41574e+06 1.39931e+06 0 -2.54032e+06 1.27794e+06 0 -2.65605e+06 1.24095e+06 0 -2.20432e+06 1.33007e+06 0 -1.43925e+06 0 0 -1.44626e+06 70099 0 -1.4556e+06 139983 0 -1.46731e+06 209824 0 -1.48141e+06 279796 0 -1.49789e+06 350072 0 -1.51673e+06 420829 0 -1.53791e+06 492238 0 -1.56137e+06 564469 0 -1.58703e+06 637681 0 -1.61475e+06 712018 0 -1.64439e+06 787600 0 -1.67573e+06 864505 0 -1.70847e+06 942748 0 -1.74229e+06 1.02225e+06 0 -1.77673e+06 1.10277e+06 0 -1.81131e+06 1.18387e+06 0 -1.84547e+06 1.26479e+06 0 -1.87869e+06 1.34436e+06 0 -1.91058e+06 1.42082e+06 0 -1.94109e+06 1.49174e+06 0 -1.97083e+06 1.55397e+06 0 -2.00136e+06 1.60364e+06 0 -2.03554e+06 1.63644e+06 0 -2.0776e+06 1.64799e+06 0 -2.13294e+06 1.6342e+06 0 -2.20737e+06 1.59186e+06 0 -2.30515e+06 1.51841e+06 0 -2.42857e+06 1.41668e+06 0 -2.55495e+06 1.29374e+06 0 -2.65069e+06 1.23178e+06 0 -2.21337e+06 1.2138e+06 0 -1.41204e+06 0 0 -1.41973e+06 70963.9 0 -1.4297e+06 141678 0 -1.44199e+06 212309 0 -1.45659e+06 283026 0 -1.47353e+06 353999 0 -1.49279e+06 425398 0 -1.51435e+06 497392 0 -1.53816e+06 570141 0 -1.56414e+06 643799 0 -1.59218e+06 718504 0 -1.62213e+06 794365 0 -1.65379e+06 871453 0 -1.68692e+06 949773 0 -1.72117e+06 1.02923e+06 0 -1.75618e+06 1.1096e+06 0 -1.79147e+06 1.19044e+06 0 -1.82658e+06 1.27099e+06 0 -1.86105e+06 1.35013e+06 0 -1.89457e+06 1.42617e+06 0 -1.92718e+06 1.49679e+06 0 -1.95952e+06 1.55897e+06 0 -1.99316e+06 1.60904e+06 0 -2.0309e+06 1.64284e+06 0 -2.0768e+06 1.6561e+06 0 -2.13611e+06 1.64474e+06 0 -2.21436e+06 1.60526e+06 0 -2.31586e+06 1.53475e+06 0 -2.44136e+06 1.43435e+06 0 -2.56974e+06 1.30918e+06 0 -2.65142e+06 1.22129e+06 0 -2.23667e+06 1.11407e+06 0 -1.38449e+06 0 0 -1.39289e+06 71805.2 0 -1.4035e+06 143327 0 -1.41637e+06 214729 0 -1.43151e+06 286174 0 -1.44893e+06 357830 0 -1.46863e+06 429860 0 -1.49058e+06 502427 0 -1.51476e+06 575689 0 -1.54108e+06 649790 0 -1.56946e+06 724862 0 -1.59975e+06 801008 0 -1.63177e+06 878289 0 -1.66529e+06 956704 0 -1.70002e+06 1.03616e+06 0 -1.73561e+06 1.11641e+06 0 -1.77164e+06 1.19702e+06 0 -1.80771e+06 1.27727e+06 0 -1.84342e+06 1.35606e+06 0 -1.87856e+06 1.43176e+06 0 -1.91321e+06 1.50217e+06 0 -1.94809e+06 1.5644e+06 0 -1.98474e+06 1.61494e+06 0 -2.0259e+06 1.6498e+06 0 -2.07554e+06 1.6648e+06 0 -2.1387e+06 1.65585e+06 0 -2.22076e+06 1.61922e+06 0 -2.32596e+06 1.55158e+06 0 -2.45408e+06 1.45241e+06 0 -2.58486e+06 1.32445e+06 0 -2.65798e+06 1.21077e+06 0 -2.27111e+06 1.02749e+06 0 -1.35661e+06 0 0 -1.36573e+06 72623.3 0 -1.37701e+06 144932 0 -1.39047e+06 217086 0 -1.40616e+06 289244 0 -1.42407e+06 361567 0 -1.44423e+06 434217 0 -1.46661e+06 507349 0 -1.49117e+06 581116 0 -1.51786e+06 655658 0 -1.5466e+06 731099 0 -1.57725e+06 807534 0 -1.60966e+06 885019 0 -1.6436e+06 963546 0 -1.67883e+06 1.04301e+06 0 -1.71502e+06 1.12318e+06 0 -1.75181e+06 1.20362e+06 0 -1.78884e+06 1.28363e+06 0 -1.8258e+06 1.36213e+06 0 -1.86252e+06 1.43758e+06 0 -1.89918e+06 1.50786e+06 0 -1.93651e+06 1.57023e+06 0 -1.97607e+06 1.62131e+06 0 -2.02055e+06 1.65729e+06 0 -2.07378e+06 1.67406e+06 0 -2.14071e+06 1.66751e+06 0 -2.22655e+06 1.63372e+06 0 -2.33549e+06 1.56889e+06 0 -2.46669e+06 1.47093e+06 0 -2.60046e+06 1.33979e+06 0 -2.66997e+06 1.20116e+06 0 -2.31452e+06 951862 0 -1.32842e+06 0 0 -1.33827e+06 73418.8 0 -1.35022e+06 146494 0 -1.3643e+06 219381 0 -1.38055e+06 292235 0 -1.39898e+06 365213 0 -1.41961e+06 438470 0 -1.44242e+06 512159 0 -1.4674e+06 586426 0 -1.49448e+06 661406 0 -1.52359e+06 737217 0 -1.55463e+06 813948 0 -1.58744e+06 891648 0 -1.62184e+06 970304 0 -1.65758e+06 1.04981e+06 0 -1.69439e+06 1.12993e+06 0 -1.73196e+06 1.21024e+06 0 -1.76996e+06 1.29006e+06 0 -1.80816e+06 1.36834e+06 0 -1.84645e+06 1.44362e+06 0 -1.88506e+06 1.51386e+06 0 -1.92476e+06 1.57644e+06 0 -1.96714e+06 1.62814e+06 0 -2.01481e+06 1.66527e+06 0 -2.07154e+06 1.68384e+06 0 -2.14213e+06 1.67971e+06 0 -2.23173e+06 1.64876e+06 0 -2.34443e+06 1.58672e+06 0 -2.47915e+06 1.48997e+06 0 -2.61662e+06 1.35546e+06 0 -2.68686e+06 1.19318e+06 0 -2.36543e+06 885708 0 -1.29992e+06 0 0 -1.31052e+06 74192.1 0 -1.32315e+06 148014 0 -1.33786e+06 221616 0 -1.35469e+06 295151 0 -1.37366e+06 368769 0 -1.39477e+06 442623 0 -1.41804e+06 516861 0 -1.44344e+06 591622 0 -1.47094e+06 667038 0 -1.50045e+06 743220 0 -1.53189e+06 820253 0 -1.56513e+06 898180 0 -1.6e+06 976982 0 -1.63628e+06 1.05655e+06 0 -1.67373e+06 1.13666e+06 0 -1.71207e+06 1.21688e+06 0 -1.75106e+06 1.29656e+06 0 -1.79048e+06 1.37469e+06 0 -1.8303e+06 1.44986e+06 0 -1.87082e+06 1.52014e+06 0 -1.91283e+06 1.58301e+06 0 -1.95793e+06 1.63539e+06 0 -2.00868e+06 1.67373e+06 0 -2.06879e+06 1.69412e+06 0 -2.14296e+06 1.69242e+06 0 -2.23627e+06 1.66431e+06 0 -2.3528e+06 1.60506e+06 0 -2.49142e+06 1.5096e+06 0 -2.63337e+06 1.3717e+06 0 -2.70814e+06 1.18737e+06 0 -2.42272e+06 828081 0 -1.27112e+06 0 0 -1.28248e+06 74943.7 0 -1.29581e+06 149493 0 -1.31117e+06 223793 0 -1.32859e+06 297992 0 -1.3481e+06 372238 0 -1.36973e+06 446679 0 -1.39347e+06 521456 0 -1.41931e+06 596708 0 -1.44723e+06 672558 0 -1.47717e+06 749113 0 -1.50904e+06 826453 0 -1.54272e+06 904617 0 -1.57807e+06 983583 0 -1.61491e+06 1.06324e+06 0 -1.65301e+06 1.14336e+06 0 -1.69215e+06 1.22354e+06 0 -1.73211e+06 1.30313e+06 0 -1.77275e+06 1.38117e+06 0 -1.81408e+06 1.45631e+06 0 -1.85645e+06 1.52669e+06 0 -1.90071e+06 1.58991e+06 0 -1.94842e+06 1.64304e+06 0 -2.00215e+06 1.68264e+06 0 -2.06553e+06 1.70487e+06 0 -2.14319e+06 1.70561e+06 0 -2.24017e+06 1.68037e+06 0 -2.36059e+06 1.62394e+06 0 -2.50345e+06 1.52988e+06 0 -2.65069e+06 1.38875e+06 0 -2.73326e+06 1.18418e+06 0 -2.48556e+06 778381 0 -1.24204e+06 0 0 -1.25417e+06 75674.1 0 -1.26821e+06 150930 0 -1.28422e+06 225911 0 -1.30225e+06 300760 0 -1.32232e+06 375621 0 -1.34447e+06 450638 0 -1.3687e+06 525948 0 -1.39501e+06 601685 0 -1.42337e+06 677967 0 -1.45375e+06 754898 0 -1.48606e+06 832551 0 -1.52021e+06 910963 0 -1.55606e+06 990108 0 -1.59347e+06 1.06988e+06 0 -1.63224e+06 1.15005e+06 0 -1.67217e+06 1.23022e+06 0 -1.71311e+06 1.30977e+06 0 -1.75495e+06 1.38777e+06 0 -1.79776e+06 1.46294e+06 0 -1.84194e+06 1.53349e+06 0 -1.88836e+06 1.59714e+06 0 -1.93861e+06 1.65107e+06 0 -1.99521e+06 1.69196e+06 0 -2.06176e+06 1.71607e+06 0 -2.14281e+06 1.71927e+06 0 -2.24342e+06 1.69693e+06 0 -2.36777e+06 1.64336e+06 0 -2.51519e+06 1.55087e+06 0 -2.66851e+06 1.40681e+06 0 -2.76169e+06 1.18395e+06 0 -2.55327e+06 736260 0 -1.21267e+06 0 0 -1.22558e+06 76383.6 0 -1.24034e+06 152328 0 -1.25703e+06 227973 0 -1.27567e+06 303457 0 -1.29632e+06 378921 0 -1.31901e+06 454503 0 -1.34374e+06 530339 0 -1.37053e+06 606555 0 -1.39936e+06 683269 0 -1.43019e+06 760577 0 -1.46296e+06 838550 0 -1.49759e+06 917220 0 -1.53396e+06 996561 0 -1.57195e+06 1.07647e+06 0 -1.6114e+06 1.15671e+06 0 -1.65214e+06 1.23691e+06 0 -1.69404e+06 1.31646e+06 0 -1.73707e+06 1.39449e+06 0 -1.78133e+06 1.46974e+06 0 -1.82727e+06 1.54052e+06 0 -1.87578e+06 1.60466e+06 0 -1.92848e+06 1.65944e+06 0 -1.98785e+06 1.70166e+06 0 -2.05745e+06 1.72768e+06 0 -2.14181e+06 1.73337e+06 0 -2.246e+06 1.71396e+06 0 -2.37432e+06 1.66334e+06 0 -2.52658e+06 1.57259e+06 0 -2.68674e+06 1.42605e+06 0 -2.79291e+06 1.18693e+06 0 -2.62524e+06 701549 0 -1.18303e+06 0 0 -1.19673e+06 77072.7 0 -1.21223e+06 153687 0 -1.22959e+06 229979 0 -1.24887e+06 306084 0 -1.27011e+06 382138 0 -1.29335e+06 458277 0 -1.3186e+06 534630 0 -1.34589e+06 611322 0 -1.37519e+06 688465 0 -1.40649e+06 766152 0 -1.43973e+06 844451 0 -1.47486e+06 923391 0 -1.51177e+06 1.00294e+06 0 -1.55035e+06 1.083e+06 0 -1.59048e+06 1.16335e+06 0 -1.63203e+06 1.24361e+06 0 -1.6749e+06 1.32322e+06 0 -1.71909e+06 1.40131e+06 0 -1.76478e+06 1.4767e+06 0 -1.81242e+06 1.54778e+06 0 -1.86296e+06 1.61245e+06 0 -1.91801e+06 1.66813e+06 0 -1.98006e+06 1.71173e+06 0 -2.05261e+06 1.73968e+06 0 -2.14019e+06 1.74789e+06 0 -2.24789e+06 1.73145e+06 0 -2.38022e+06 1.68386e+06 0 -2.53755e+06 1.59511e+06 0 -2.70525e+06 1.44664e+06 0 -2.82641e+06 1.19336e+06 0 -2.70092e+06 674201 0 -1.15312e+06 0 0 -1.16762e+06 77741.5 0 -1.18387e+06 155008 0 -1.20192e+06 231930 0 -1.22185e+06 308641 0 -1.24369e+06 385274 0 -1.26749e+06 461959 0 -1.29328e+06 538824 0 -1.32107e+06 615988 0 -1.35087e+06 693559 0 -1.38265e+06 771627 0 -1.41639e+06 850257 0 -1.45202e+06 929476 0 -1.48948e+06 1.00925e+06 0 -1.52867e+06 1.08949e+06 0 -1.56948e+06 1.16996e+06 0 -1.61183e+06 1.25033e+06 0 -1.65566e+06 1.33002e+06 0 -1.70101e+06 1.40823e+06 0 -1.74808e+06 1.48381e+06 0 -1.79739e+06 1.55523e+06 0 -1.84989e+06 1.6205e+06 0 -1.90721e+06 1.67712e+06 0 -1.97183e+06 1.72214e+06 0 -2.04724e+06 1.75205e+06 0 -2.13793e+06 1.7628e+06 0 -2.24909e+06 1.74937e+06 0 -2.38544e+06 1.70493e+06 0 -2.54803e+06 1.61843e+06 0 -2.72389e+06 1.46869e+06 0 -2.86172e+06 1.20338e+06 0 -2.77978e+06 654252 0 -1.12296e+06 0 0 -1.13827e+06 78390.6 0 -1.15527e+06 156291 0 -1.17403e+06 233828 0 -1.19461e+06 311131 0 -1.21707e+06 388331 0 -1.24145e+06 465553 0 -1.26778e+06 542922 0 -1.29609e+06 620553 0 -1.32639e+06 698550 0 -1.35867e+06 777002 0 -1.39291e+06 855969 0 -1.42907e+06 935476 0 -1.46709e+06 1.0155e+06 0 -1.50689e+06 1.09592e+06 0 -1.5484e+06 1.17656e+06 0 -1.59156e+06 1.25705e+06 0 -1.63634e+06 1.33687e+06 0 -1.68281e+06 1.41523e+06 0 -1.73124e+06 1.49105e+06 0 -1.78216e+06 1.56287e+06 0 -1.83655e+06 1.62877e+06 0 -1.89606e+06 1.68639e+06 0 -1.96315e+06 1.73285e+06 0 -2.04131e+06 1.76475e+06 0 -2.13503e+06 1.77807e+06 0 -2.24958e+06 1.76772e+06 0 -2.38994e+06 1.72654e+06 0 -2.55796e+06 1.6426e+06 0 -2.74251e+06 1.49229e+06 0 -2.89836e+06 1.21712e+06 0 -2.86126e+06 641791 0 -1.09255e+06 0 0 -1.10868e+06 79020.1 0 -1.12644e+06 157536 0 -1.14591e+06 235672 0 -1.16716e+06 313555 0 -1.19024e+06 391309 0 -1.21521e+06 469059 0 -1.2421e+06 546925 0 -1.27095e+06 625019 0 -1.30177e+06 703442 0 -1.33456e+06 782279 0 -1.36932e+06 861588 0 -1.40601e+06 941393 0 -1.44459e+06 1.02167e+06 0 -1.48501e+06 1.10231e+06 0 -1.52722e+06 1.18312e+06 0 -1.57118e+06 1.26377e+06 0 -1.6169e+06 1.34375e+06 0 -1.66449e+06 1.42231e+06 0 -1.71424e+06 1.49842e+06 0 -1.76672e+06 1.57067e+06 0 -1.82294e+06 1.63726e+06 0 -1.88456e+06 1.6959e+06 0 -1.95403e+06 1.74384e+06 0 -2.03483e+06 1.77776e+06 0 -2.13148e+06 1.79368e+06 0 -2.24935e+06 1.78647e+06 0 -2.3937e+06 1.74868e+06 0 -2.56725e+06 1.66761e+06 0 -2.76093e+06 1.51752e+06 0 -2.93587e+06 1.23466e+06 0 -2.94478e+06 636931 0 -1.0619e+06 0 0 -1.07885e+06 79630.3 0 -1.09739e+06 158744 0 -1.11758e+06 237464 0 -1.13951e+06 315912 0 -1.16323e+06 394210 0 -1.18879e+06 472479 0 -1.21626e+06 550835 0 -1.24565e+06 629388 0 -1.277e+06 708235 0 -1.31031e+06 787459 0 -1.3456e+06 867115 0 -1.38283e+06 947227 0 -1.42199e+06 1.02777e+06 0 -1.46304e+06 1.10864e+06 0 -1.50595e+06 1.18965e+06 0 -1.5507e+06 1.27049e+06 0 -1.59735e+06 1.35066e+06 0 -1.64604e+06 1.42946e+06 0 -1.69707e+06 1.50589e+06 0 -1.75106e+06 1.57863e+06 0 -1.80905e+06 1.64594e+06 0 -1.87269e+06 1.70564e+06 0 -1.94445e+06 1.75508e+06 0 -2.0278e+06 1.79105e+06 0 -2.12727e+06 1.80961e+06 0 -2.24837e+06 1.80559e+06 0 -2.39669e+06 1.77134e+06 0 -2.57583e+06 1.69347e+06 0 -2.77897e+06 1.54442e+06 0 -2.97381e+06 1.25603e+06 0 -3.02976e+06 639784 0 -1.03102e+06 0 0 -1.0488e+06 80221.4 0 -1.06812e+06 159917 0 -1.08904e+06 239205 0 -1.11166e+06 318204 0 -1.13602e+06 397034 0 -1.1622e+06 475813 0 -1.19024e+06 554653 0 -1.22019e+06 633660 0 -1.25208e+06 712931 0 -1.28593e+06 792542 0 -1.32175e+06 872551 0 -1.35953e+06 952978 0 -1.39928e+06 1.0338e+06 0 -1.44096e+06 1.11492e+06 0 -1.48457e+06 1.19615e+06 0 -1.53012e+06 1.2772e+06 0 -1.57769e+06 1.3576e+06 0 -1.62744e+06 1.43667e+06 0 -1.67973e+06 1.51346e+06 0 -1.73518e+06 1.58672e+06 0 -1.79487e+06 1.65479e+06 0 -1.86046e+06 1.71558e+06 0 -1.93441e+06 1.76656e+06 0 -2.0202e+06 1.80459e+06 0 -2.1224e+06 1.82581e+06 0 -2.24663e+06 1.82505e+06 0 -2.39886e+06 1.79447e+06 0 -2.58363e+06 1.72016e+06 0 -2.79646e+06 1.573e+06 0 -3.01176e+06 1.28123e+06 0 -3.11557e+06 650446 0 -999913 0 0 -1.01853e+06 80793.7 0 -1.03864e+06 161053 0 -1.0603e+06 240894 0 -1.08361e+06 320432 0 -1.10863e+06 399784 0 -1.13543e+06 479063 0 -1.16406e+06 558380 0 -1.19458e+06 637838 0 -1.22702e+06 717529 0 -1.26141e+06 797530 0 -1.29778e+06 877895 0 -1.33612e+06 958645 0 -1.37645e+06 1.03975e+06 0 -1.41877e+06 1.12114e+06 0 -1.46308e+06 1.20262e+06 0 -1.50942e+06 1.2839e+06 0 -1.55789e+06 1.36455e+06 0 -1.60869e+06 1.44392e+06 0 -1.6622e+06 1.52112e+06 0 -1.71908e+06 1.59493e+06 0 -1.7804e+06 1.66378e+06 0 -1.84786e+06 1.7257e+06 0 -1.92391e+06 1.77823e+06 0 -2.01204e+06 1.81836e+06 0 -2.11687e+06 1.84227e+06 0 -2.24413e+06 1.84482e+06 0 -2.40018e+06 1.81808e+06 0 -2.59056e+06 1.74767e+06 0 -2.81322e+06 1.60325e+06 0 -3.0493e+06 1.31024e+06 0 -3.20156e+06 668978 0 -968586 0 0 -988054 81347.3 0 -1.00895e+06 162154 0 -1.03136e+06 242532 0 -1.05538e+06 322596 0 -1.08106e+06 402458 0 -1.10849e+06 482229 0 -1.13772e+06 562016 0 -1.16881e+06 641920 0 -1.20181e+06 722031 0 -1.23676e+06 802423 0 -1.27368e+06 883148 0 -1.31259e+06 964228 0 -1.35352e+06 1.04564e+06 0 -1.39647e+06 1.1273e+06 0 -1.44148e+06 1.20904e+06 0 -1.48861e+06 1.29059e+06 0 -1.53797e+06 1.37152e+06 0 -1.58979e+06 1.45122e+06 0 -1.64449e+06 1.52884e+06 0 -1.70274e+06 1.60323e+06 0 -1.76564e+06 1.67291e+06 0 -1.83488e+06 1.73598e+06 0 -1.91295e+06 1.79009e+06 0 -2.00332e+06 1.83232e+06 0 -2.11065e+06 1.85895e+06 0 -2.24085e+06 1.86488e+06 0 -2.40063e+06 1.84211e+06 0 -2.59655e+06 1.77596e+06 0 -2.82907e+06 1.63514e+06 0 -3.08606e+06 1.34299e+06 0 -3.28706e+06 695394 0 -937050 0 0 -957369 81882.4 0 -979067 163219 0 -1.00224e+06 244121 0 -1.02696e+06 324697 0 -1.05331e+06 405058 0 -1.08138e+06 485312 0 -1.11122e+06 565563 0 -1.14289e+06 645909 0 -1.17646e+06 726437 0 -1.21197e+06 807221 0 -1.24945e+06 888310 0 -1.28894e+06 969726 0 -1.33046e+06 1.05145e+06 0 -1.37406e+06 1.1334e+06 0 -1.41976e+06 1.21542e+06 0 -1.46767e+06 1.29725e+06 0 -1.51791e+06 1.37848e+06 0 -1.57074e+06 1.45854e+06 0 -1.62658e+06 1.53662e+06 0 -1.68616e+06 1.61162e+06 0 -1.75058e+06 1.68215e+06 0 -1.82154e+06 1.74639e+06 0 -1.90153e+06 1.80209e+06 0 -1.99403e+06 1.84644e+06 0 -2.10377e+06 1.87583e+06 0 -2.23677e+06 1.88519e+06 0 -2.40017e+06 1.86653e+06 0 -2.60154e+06 1.80499e+06 0 -2.84386e+06 1.66862e+06 0 -3.12164e+06 1.37936e+06 0 -3.37138e+06 729648 0 -905311 0 0 -926487 82399.1 0 -948991 164250 0 -972921 245659 0 -998361 326735 0 -1.0254e+06 407585 0 -1.0541e+06 488313 0 -1.08456e+06 569021 0 -1.11683e+06 649804 0 -1.15098e+06 730748 0 -1.18705e+06 811923 0 -1.2251e+06 893380 0 -1.26517e+06 975139 0 -1.3073e+06 1.05718e+06 0 -1.35153e+06 1.13944e+06 0 -1.39793e+06 1.22175e+06 0 -1.4466e+06 1.30388e+06 0 -1.49771e+06 1.38544e+06 0 -1.55151e+06 1.46588e+06 0 -1.60848e+06 1.54444e+06 0 -1.66934e+06 1.62009e+06 0 -1.73521e+06 1.69148e+06 0 -1.80782e+06 1.75691e+06 0 -1.88964e+06 1.81422e+06 0 -1.98418e+06 1.86071e+06 0 -2.09621e+06 1.89287e+06 0 -2.2319e+06 1.90572e+06 0 -2.39879e+06 1.89131e+06 0 -2.60545e+06 1.83472e+06 0 -2.85742e+06 1.70362e+06 0 -3.1557e+06 1.41923e+06 0 -3.45385e+06 771625 0 -873376 0 0 -895414 82897.6 0 -918731 165246 0 -943427 247148 0 -969591 328711 0 -997311 410038 0 -1.02667e+06 491231 0 -1.05775e+06 572390 0 -1.09062e+06 653606 0 -1.12535e+06 734964 0 -1.162e+06 816531 0 -1.20063e+06 898358 0 -1.24128e+06 980466 0 -1.28401e+06 1.06284e+06 0 -1.32889e+06 1.14541e+06 0 -1.37598e+06 1.22803e+06 0 -1.42541e+06 1.31047e+06 0 -1.47736e+06 1.39238e+06 0 -1.53213e+06 1.47322e+06 0 -1.59018e+06 1.55229e+06 0 -1.65228e+06 1.6286e+06 0 -1.71955e+06 1.70089e+06 0 -1.79372e+06 1.76752e+06 0 -1.87729e+06 1.82646e+06 0 -1.97377e+06 1.87509e+06 0 -2.08797e+06 1.91004e+06 0 -2.22622e+06 1.92643e+06 0 -2.39645e+06 1.91641e+06 0 -2.60823e+06 1.86508e+06 0 -2.8696e+06 1.74004e+06 0 -3.18792e+06 1.46243e+06 0 -3.53379e+06 821141 0 -841253 0 0 -864157 83378 0 -888292 166207 0 -913759 248588 0 -940653 330625 0 -969066 412419 0 -999085 494069 0 -1.03079e+06 575671 0 -1.06427e+06 657316 0 -1.09959e+06 739084 0 -1.13682e+06 821043 0 -1.17603e+06 903243 0 -1.21727e+06 985705 0 -1.26061e+06 1.06841e+06 0 -1.30612e+06 1.15131e+06 0 -1.35391e+06 1.23425e+06 0 -1.40409e+06 1.31703e+06 0 -1.45687e+06 1.3993e+06 0 -1.51258e+06 1.48057e+06 0 -1.57169e+06 1.56016e+06 0 -1.63497e+06 1.63715e+06 0 -1.70358e+06 1.71035e+06 0 -1.77926e+06 1.7782e+06 0 -1.86448e+06 1.83877e+06 0 -1.9628e+06 1.88956e+06 0 -2.07906e+06 1.92731e+06 0 -2.21973e+06 1.94729e+06 0 -2.39313e+06 1.94177e+06 0 -2.60981e+06 1.89602e+06 0 -2.88028e+06 1.77779e+06 0 -3.21799e+06 1.50877e+06 0 -3.61054e+06 877928 0 -808949 0 0 -832723 83840.2 0 -857679 167134 0 -883924 249979 0 -911553 332478 0 -940663 414727 0 -971346 496824 0 -1.00369e+06 578864 0 -1.03778e+06 660932 0 -1.0737e+06 743109 0 -1.11152e+06 825460 0 -1.1513e+06 908034 0 -1.19314e+06 990854 0 -1.23709e+06 1.07391e+06 0 -1.28324e+06 1.15714e+06 0 -1.33171e+06 1.24042e+06 0 -1.38263e+06 1.32354e+06 0 -1.43624e+06 1.40619e+06 0 -1.49285e+06 1.48791e+06 0 -1.55299e+06 1.56804e+06 0 -1.61742e+06 1.64573e+06 0 -1.68732e+06 1.71985e+06 0 -1.76442e+06 1.78893e+06 0 -1.85123e+06 1.85113e+06 0 -1.95128e+06 1.90409e+06 0 -2.06947e+06 1.94465e+06 0 -2.21243e+06 1.96825e+06 0 -2.38883e+06 1.96734e+06 0 -2.61017e+06 1.92746e+06 0 -2.88933e+06 1.81675e+06 0 -3.24564e+06 1.55802e+06 0 -3.68348e+06 941650 0 -776472 0 0 -801119 84284.5 0 -826901 168026 0 -853926 251322 0 -882295 334269 0 -912107 416963 0 -943461 499499 0 -976447 581968 0 -1.01116e+06 664456 0 -1.04767e+06 747038 0 -1.08608e+06 829781 0 -1.12646e+06 912732 0 -1.16889e+06 995914 0 -1.21345e+06 1.07932e+06 0 -1.26024e+06 1.16289e+06 0 -1.30939e+06 1.24652e+06 0 -1.36105e+06 1.33e+06 0 -1.41545e+06 1.41305e+06 0 -1.47296e+06 1.49522e+06 0 -1.53408e+06 1.57592e+06 0 -1.59962e+06 1.65432e+06 0 -1.67075e+06 1.72937e+06 0 -1.74922e+06 1.79969e+06 0 -1.83752e+06 1.86353e+06 0 -1.93921e+06 1.91865e+06 0 -2.05922e+06 1.96203e+06 0 -2.20432e+06 1.98929e+06 0 -2.38352e+06 1.99308e+06 0 -2.60924e+06 1.95932e+06 0 -2.89666e+06 1.85678e+06 0 -3.2706e+06 1.60994e+06 0 -3.75208e+06 1.01179e+06 0 </DataArray> 
</PointData> 
<Points> 
<DataArray type="Float32" NumberOfComponents="3"> 