<?xml version="1.0"?> 
<VTKFile type="StructuredGrid" version="0.1"> 
<StructuredGrid WholeExtent="0 31 0 31 0 0"> 
<Piece Extent="0 31 0 31 0 0"> 
<PointData>
<DataArray type="Float32" Name="|E|" format="ascii" NumberOfComponents="3"> 
276978 4.20095e+06 0 276378 4.19185e+06 0 275837 4.18365e+06 0 275354 4.17633e+06 0 274928 4.16987e+06 0 274559 4.16426e+06 0 274245 4.15951e+06 0 273988 4.15561e+06 0 273789 4.15258e+06 0 273647 4.15043e+06 0 273566 4.1492e+06 0 273548 4.14892e+06 0 273595 4.14964e+06 0 273710 4.15139e+06 0 273899 4.15425e+06 0 274166 4.1583e+06 0 274516 4.16361e+06 0 274957 4.17029e+06 0 275496 4.17847e+06 0 276143 4.18828e+06 0 276908 4.19989e+06 0 277805 4.21349e+06 0 278849 4.22932e+06 0 280058 4.24766e+06 0 281454 4.26883e+06 0 283064 4.29326e+06 0 284921 4.32142e+06 0 287066 4.35396e+06 0 289552 4.39167e+06 0 292447 4.43557e+06 0 295841 4.48704e+06 0 299859 4.54798e+06 0 263493 4.20178e+06 0 264151 4.19254e+06 0 264833 4.1842e+06 0 265548 4.17674e+06 0 266305 4.17013e+06 0 267114 4.16437e+06 0 267982 4.15945e+06 0 268922 4.15537e+06 0 269942 4.15216e+06 0 271056 4.14982e+06 0 272274 4.14838e+06 0 273612 4.14787e+06 0 275084 4.14834e+06 0 276708 4.14983e+06 0 278503 4.15239e+06 0 280492 4.15611e+06 0 282701 4.16107e+06 0 285158 4.16735e+06 0 287899 4.17508e+06 0 290965 4.18439e+06 0 294405 4.19543e+06 0 298276 4.20838e+06 0 302651 4.22347e+06 0 307616 4.24094e+06 0 313280 4.26111e+06 0 319781 4.28433e+06 0 327294 4.31107e+06 0 336049 4.34187e+06 0 346353 4.37742e+06 0 358632 4.4186e+06 0 373468 4.46653e+06 0 391783 4.5227e+06 0 249748 4.20081e+06 0 251654 4.19149e+06 0 253546 4.18306e+06 0 255445 4.17548e+06 0 257369 4.16873e+06 0 259336 4.16282e+06 0 261365 4.15773e+06 0 263476 4.15346e+06 0 265688 4.15002e+06 0 268023 4.14744e+06 0 270504 4.14572e+06 0 273155 4.1449e+06 0 276004 4.14502e+06 0 279080 4.14612e+06 0 282416 4.14825e+06 0 286052 4.15148e+06 0 290031 4.15588e+06 0 294402 4.16153e+06 0 299224 4.16855e+06 0 304565 4.17704e+06 0 310508 4.18714e+06 0 317147 4.19901e+06 0 324601 4.21284e+06 0 333013 4.22883e+06 0 342559 4.24724e+06 0 353461 4.26838e+06 0 366001 4.29258e+06 0 380540 4.32027e+06 0 397555 4.35194e+06 0 417685 4.38818e+06 0 441784 4.4297e+06 0 471138 4.4773e+06 0 235848 4.19805e+06 0 238970 4.18872e+06 0 242041 4.18024e+06 0 245090 4.17258e+06 0 248145 4.16572e+06 0 251234 4.15966e+06 0 254384 4.15439e+06 0 257623 4.14991e+06 0 260980 4.14623e+06 0 264485 4.14335e+06 0 268170 4.1413e+06 0 272069 4.1401e+06 0 276220 4.13978e+06 0 280664 4.14039e+06 0 285447 4.14196e+06 0 290620 4.14455e+06 0 296242 4.14822e+06 0 302379 4.15305e+06 0 309108 4.15912e+06 0 316521 4.16653e+06 0 324721 4.17539e+06 0 333834 4.18582e+06 0 344011 4.19796e+06 0 355431 4.21199e+06 0 368315 4.22808e+06 0 382935 4.24645e+06 0 399628 4.26733e+06 0 418820 4.29099e+06 0 441050 4.31769e+06 0 467019 4.34775e+06 0 497614 4.38144e+06 0 534083 4.41898e+06 0 221903 4.19356e+06 0 226189 4.18427e+06 0 230387 4.17579e+06 0 234535 4.16809e+06 0 238670 4.16115e+06 0 242826 4.15496e+06 0 247041 4.14951e+06 0 251348 4.14481e+06 0 255785 4.14085e+06 0 260390 4.13765e+06 0 265202 4.13522e+06 0 270264 4.13359e+06 0 275624 4.13276e+06 0 281329 4.13278e+06 0 287438 4.13369e+06 0 294011 4.13552e+06 0 301118 4.13834e+06 0 308838 4.14218e+06 0 317263 4.14713e+06 0 326496 4.15324e+06 0 336659 4.16062e+06 0 347895 4.16934e+06 0 360371 4.1795e+06 0 374287 4.19122e+06 0 389882 4.20462e+06 0 407443 4.2198e+06 0 427321 4.23691e+06 0 449943 4.25605e+06 0 475829 4.27733e+06 0 505628 4.3008e+06 0 540118 4.32644e+06 0 580311 4.3541e+06 0 208022 4.18742e+06 0 213401 4.17824e+06 0 218656 4.16981e+06 0 223835 4.1621e+06 0 228981 4.1551e+06 0 234136 4.1488e+06 0 239343 4.14318e+06 0 244644 4.13825e+06 0 250081 4.13401e+06 0 255701 4.13046e+06 0 261548 4.12762e+06 0 267673 4.1255e+06 0 274129 4.12411e+06 0 280972 4.12349e+06 0 288267 4.12365e+06 0 296082 4.12464e+06 0 304495 4.12648e+06 0 313593 4.12922e+06 0 323475 4.13291e+06 0 334254 4.13759e+06 0 346057 4.14332e+06 0 359036 4.15016e+06 0 373362 4.15816e+06 0 389237 4.16738e+06 0 406899 4.17788e+06 0 426626 4.1897e+06 0 448747 4.20287e+06 0 473649 4.21741e+06 0 501790 4.23326e+06 0 533708 4.25035e+06 0 570019 4.26846e+06 0 611464 4.28726e+06 0 194309 4.17974e+06 0 200693 4.17073e+06 0 206921 4.16239e+06 0 213049 4.15472e+06 0 219123 4.14768e+06 0 225194 4.14128e+06 0 231309 4.13551e+06 0 237515 4.13035e+06 0 243862 4.12582e+06 0 250398 4.12191e+06 0 257176 4.11863e+06 0 264250 4.11599e+06 0 271678 4.11401e+06 0 279522 4.11269e+06 0 287851 4.11206e+06 0 296738 4.11213e+06 0 306265 4.11294e+06 0 316523 4.11451e+06 0 327614 4.11685e+06 0 339652 4.12002e+06 0 352767 4.12402e+06 0 367107 4.12888e+06 0 382839 4.13463e+06 0 400156 4.14129e+06 0 419277 4.14885e+06 0 440455 4.1573e+06 0 463980 4.16661e+06 0 490180 4.17671e+06 0 519429 4.18747e+06 0 552146 4.1987e+06 0 588784 4.21014e+06 0 629852 4.22138e+06 0 180860 4.17065e+06 0 188147 4.16186e+06 0 195252 4.15366e+06 0 202232 4.14605e+06 0 209142 4.13902e+06 0 216035 4.13254e+06 0 222963 4.12662e+06 0 229977 4.12125e+06 0 237130 4.11642e+06 0 244476 4.11215e+06 0 252071 4.10842e+06 0 259972 4.10525e+06 0 268240 4.10264e+06 0 276940 4.1006e+06 0 286144 4.09914e+06 0 295926 4.09828e+06 0 306370 4.09801e+06 0 317567 4.09836e+06 0 329619 4.09934e+06 0 342636 4.10094e+06 0 356744 4.10319e+06 0 372082 4.10607e+06 0 388805 4.10958e+06 0 407089 4.1137e+06 0 427129 4.1184e+06 0 449142 4.12362e+06 0 473371 4.12929e+06 0 500081 4.13527e+06 0 529563 4.14142e+06 0 562127 4.14749e+06 0 598089 4.1532e+06 0 637780 4.15814e+06 0 167761 4.16031e+06 0 175840 4.15177e+06 0 183712 4.14376e+06 0 191441 4.13625e+06 0 199084 4.12923e+06 0 206696 4.1227e+06 0 214333 4.11665e+06 0 222050 4.11107e+06 0 229901 4.10597e+06 0 237944 4.10133e+06 0 246235 4.09715e+06 0 254835 4.09345e+06 0 263806 4.09021e+06 0 273215 4.08744e+06 0 283132 4.08515e+06 0 293633 4.08333e+06 0 304800 4.08199e+06 0 316721 4.08112e+06 0 329494 4.08072e+06 0 343225 4.08078e+06 0 358028 4.08129e+06 0 374032 4.08224e+06 0 391376 4.08358e+06 0 410213 4.08528e+06 0 430710 4.08728e+06 0 453049 4.08949e+06 0 477425 4.09181e+06 0 504044 4.09409e+06 0 533124 4.09616e+06 0 564884 4.09778e+06 0 599536 4.09865e+06 0 637284 4.09843e+06 0 155087 4.14887e+06 0 163837 4.14064e+06 0 172363 4.13284e+06 0 180729 4.12545e+06 0 188994 4.11849e+06 0 197216 4.11192e+06 0 205454 4.10576e+06 0 213762 4.09999e+06 0 222198 4.09461e+06 0 230819 4.08962e+06 0 239684 4.08501e+06 0 248854 4.08077e+06 0 258390 4.07691e+06 0 268360 4.07342e+06 0 278832 4.0703e+06 0 289880 4.06754e+06 0 301583 4.06514e+06 0 314024 4.06307e+06 0 327296 4.06133e+06 0 341494 4.0599e+06 0 356725 4.05875e+06 0 373100 4.05784e+06 0 390743 4.05714e+06 0 409784 4.05657e+06 0 430361 4.05607e+06 0 452621 4.05553e+06 0 476717 4.05485e+06 0 502805 4.05387e+06 0 531040 4.0524e+06 0 561574 4.05022e+06 0 594540 4.04708e+06 0 630056 4.04266e+06 0 142899 4.13652e+06 0 152196 4.12862e+06 0 161254 4.12105e+06 0 170141 4.11382e+06 0 178915 4.10693e+06 0 187636 4.10035e+06 0 196360 4.0941e+06 0 205147 4.08815e+06 0 214052 4.08252e+06 0 223132 4.07719e+06 0 232448 4.07215e+06 0 242058 4.06741e+06 0 252024 4.06294e+06 0 262411 4.05876e+06 0 273284 4.05483e+06 0 284716 4.05116e+06 0 296778 4.04773e+06 0 309551 4.04451e+06 0 323117 4.04149e+06 0 337564 4.03864e+06 0 352985 4.03592e+06 0 369479 4.03328e+06 0 387150 4.03067e+06 0 406107 4.02802e+06 0 426461 4.02525e+06 0 448330 4.02226e+06 0 471829 4.01892e+06 0 497073 4.01508e+06 0 524170 4.01058e+06 0 553219 4.00521e+06 0 584300 3.99875e+06 0 617469 3.99092e+06 0 131245 4.12344e+06 0 140961 4.11588e+06 0 150431 4.10858e+06 0 159720 4.10152e+06 0 168887 4.09471e+06 0 177991 4.08815e+06 0 187090 4.08182e+06 0 196240 4.07572e+06 0 205498 4.06985e+06 0 214921 4.0642e+06 0 224565 4.05877e+06 0 234489 4.05353e+06 0 244754 4.04849e+06 0 255419 4.04364e+06 0 266549 4.03895e+06 0 278211 4.03441e+06 0 290471 4.03e+06 0 303403 4.0257e+06 0 317081 4.02147e+06 0 331583 4.01729e+06 0 346991 4.01311e+06 0 363389 4.00887e+06 0 380863 4.00452e+06 0 399504 3.99999e+06 0 419401 3.99519e+06 0 440643 3.99001e+06 0 463318 3.98435e+06 0 487505 3.97805e+06 0 513279 3.97098e+06 0 540699 3.96293e+06 0 569807 3.95373e+06 0 600624 3.94314e+06 0 120158 4.10981e+06 0 130167 4.10261e+06 0 139927 4.09558e+06 0 149500 4.08871e+06 0 158945 4.08201e+06 0 168320 4.07547e+06 0 177680 4.06909e+06 0 187080 4.06286e+06 0 196577 4.05677e+06 0 206225 4.05083e+06 0 216080 4.04502e+06 0 226198 4.03933e+06 0 236635 4.03374e+06 0 247449 4.02826e+06 0 258701 4.02284e+06 0 270450 4.01749e+06 0 282761 4.01217e+06 0 295697 4.00685e+06 0 309326 4.00151e+06 0 323716 3.9961e+06 0 338937 3.99058e+06 0 355060 3.98489e+06 0 372157 3.97897e+06 0 390300 3.97275e+06 0 409559 3.96614e+06 0 430002 3.95906e+06 0 451692 3.95137e+06 0 474685 3.94297e+06 0 499028 3.93372e+06 0 524752 3.92344e+06 0 551876 3.91199e+06 0 580393 3.89916e+06 0 109659 4.09581e+06 0 119839 4.08898e+06 0 129769 4.08223e+06 0 139511 4.07556e+06 0 149121 4.06897e+06 0 158653 4.06247e+06 0 168164 4.05605e+06 0 177705 4.04971e+06 0 187330 4.04343e+06 0 197093 4.03722e+06 0 207045 4.03107e+06 0 217239 4.02495e+06 0 227731 4.01886e+06 0 238573 4.01279e+06 0 249820 4.00671e+06 0 261530 4.0006e+06 0 273758 3.99443e+06 0 286562 3.98818e+06 0 300002 3.98181e+06 0 314136 3.97528e+06 0 329024 3.96854e+06 0 344726 3.96154e+06 0 361300 3.95422e+06 0 378803 3.94651e+06 0 397290 3.93832e+06 0 416811 3.92956e+06 0 437411 3.92014e+06 0 459125 3.90995e+06 0 481982 3.89886e+06 0 505996 3.88673e+06 0 531166 3.87343e+06 0 557473 3.85879e+06 0 99758 4.08161e+06 0 109989 4.07514e+06 0 119975 4.06868e+06 0 129774 4.06222e+06 0 139438 4.05576e+06 0 149021 4.04931e+06 0 158575 4.04287e+06 0 168151 4.03643e+06 0 177799 4.02999e+06 0 187569 4.02354e+06 0 197511 4.01707e+06 0 207674 4.01056e+06 0 218110 4.00401e+06 0 228867 3.9974e+06 0 239997 3.9907e+06 0 251550 3.9839e+06 0 263577 3.97696e+06 0 276129 3.96986e+06 0 289258 3.96256e+06 0 303015 3.95501e+06 0 317449 3.94718e+06 0 332611 3.93901e+06 0 348547 3.93045e+06 0 365303 3.92141e+06 0 382919 3.91184e+06 0 401433 3.90165e+06 0 420874 3.89074e+06 0 441265 3.87902e+06 0 462620 3.86639e+06 0 484940 3.85272e+06 0 508215 3.8379e+06 0 532415 3.82181e+06 0 90453.2 4.06738e+06 0 100623 4.06128e+06 0 110555 4.05509e+06 0 120304 4.04884e+06 0 129918 4.04252e+06 0 139449 4.03614e+06 0 148945 4.02969e+06 0 158454 4.02317e+06 0 168024 4.01659e+06 0 177701 4.00992e+06 0 187532 4.00316e+06 0 197563 3.99631e+06 0 207841 3.98933e+06 0 218412 3.98223e+06 0 229320 3.97497e+06 0 240612 3.96754e+06 0 252334 3.9599e+06 0 264530 3.95203e+06 0 277245 3.94389e+06 0 290522 3.93544e+06 0 304403 3.92664e+06 0 318929 3.91743e+06 0 334138 3.90777e+06 0 350064 3.89758e+06 0 366739 3.88681e+06 0 384189 3.87538e+06 0 402432 3.8632e+06 0 421482 3.8502e+06 0 441342 3.83627e+06 0 462006 3.82133e+06 0 483456 3.80527e+06 0 505660 3.78799e+06 0 81734.1 4.05328e+06 0 91737.5 4.04753e+06 0 101513 4.04162e+06 0 111110 4.03558e+06 0 120575 4.0294e+06 0 129957 4.02309e+06 0 139298 4.01664e+06 0 148646 4.01007e+06 0 158043 4.00336e+06 0 167534 3.9965e+06 0 177161 3.98949e+06 0 186967 3.98232e+06 0 196994 3.97497e+06 0 207284 3.96742e+06 0 217878 3.95966e+06 0 228818 3.95166e+06 0 240143 3.94339e+06 0 251892 3.93483e+06 0 264104 3.92594e+06 0 276816 3.91669e+06 0 290062 3.90703e+06 0 303877 3.89691e+06 0 318289 3.88628e+06 0 333326 3.8751e+06 0 349010 3.86329e+06 0 365360 3.85079e+06 0 382387 3.83754e+06 0 400095 3.82345e+06 0 418484 3.80845e+06 0 437540 3.79245e+06 0 457243 3.77538e+06 0 477558 3.75714e+06 0 73582.6 4.03946e+06 0 83321.4 4.03404e+06 0 92843.7 4.0284e+06 0 102196 4.02256e+06 0 111420 4.01652e+06 0 120561 4.01029e+06 0 129659 4.00386e+06 0 138756 3.99724e+06 0 147893 3.99043e+06 0 157111 3.98341e+06 0 166447 3.97618e+06 0 175942 3.96872e+06 0 185634 3.96103e+06 0 195560 3.95309e+06 0 205758 3.94488e+06 0 216263 3.93637e+06 0 227111 3.92755e+06 0 238336 3.91837e+06 0 249970 3.90882e+06 0 262046 3.89886e+06 0 274591 3.88844e+06 0 287633 3.87752e+06 0 301196 3.86606e+06 0 315300 3.85401e+06 0 329961 3.84131e+06 0 345191 3.82791e+06 0 360996 3.81374e+06 0 377376 3.79874e+06 0 394325 3.78284e+06 0 411827 3.76597e+06 0 429860 3.74807e+06 0 448390 3.72906e+06 0 65974.1 4.02606e+06 0 75358.4 4.02095e+06 0 84539.5 4.01557e+06 0 93559.4 4.00992e+06 0 102458 4.00402e+06 0 111273 3.99787e+06 0 120045 3.99147e+06 0 128811 3.98482e+06 0 137607 3.97791e+06 0 146472 3.97075e+06 0 155439 3.96333e+06 0 164546 3.95563e+06 0 173826 3.94764e+06 0 183313 3.93935e+06 0 193040 3.93074e+06 0 203039 3.92178e+06 0 213340 3.91246e+06 0 223974 3.90275e+06 0 234968 3.89261e+06 0 246348 3.88202e+06 0 258139 3.87095e+06 0 270362 3.85934e+06 0 283035 3.84716e+06 0 296175 3.83436e+06 0 309792 3.8209e+06 0 323893 3.80672e+06 0 338481 3.79178e+06 0 353552 3.77601e+06 0 369098 3.75937e+06 0 385101 3.74178e+06 0 401539 3.7232e+06 0 418380 3.70357e+06 0 58879.2 4.01319e+06 0 67827.2 4.00838e+06 0 76586.7 4.00324e+06 0 85195.3 3.99778e+06 0 93688.8 3.99201e+06 0 102103 3.98594e+06 0 110472 3.97957e+06 0 118831 3.9729e+06 0 127214 3.96593e+06 0 135653 3.95865e+06 0 144180 3.95105e+06 0 152828 3.94314e+06 0 161628 3.93489e+06 0 170609 3.92629e+06 0 179800 3.91733e+06 0 189230 3.90798e+06 0 198925 3.89822e+06 0 208911 3.88804e+06 0 219212 3.87739e+06 0 229848 3.86626e+06 0 240841 3.85461e+06 0 252207 3.8424e+06 0 263961 3.8296e+06 0 276115 3.81616e+06 0 288676 3.80206e+06 0 301647 3.78723e+06 0 315029 3.77163e+06 0 328815 3.75522e+06 0 342996 3.73796e+06 0 357554 3.71978e+06 0 372468 3.70065e+06 0 387708 3.68052e+06 0 52264.3 4.00097e+06 0 60702.6 3.99643e+06 0 68967.6 3.99152e+06 0 77093 3.98624e+06 0 85111 3.9806e+06 0 93053.4 3.97461e+06 0 100952 3.96827e+06 0 108836 3.96159e+06 0 116738 3.95456e+06 0 124686 3.94718e+06 0 132710 3.93944e+06 0 140837 3.93134e+06 0 149095 3.92287e+06 0 157511 3.914e+06 0 166110 3.90473e+06 0 174916 3.89504e+06 0 183953 3.88491e+06 0 193243 3.87431e+06 0 202805 3.86322e+06 0 212658 3.85162e+06 0 222817 3.83947e+06 0 233298 3.82675e+06 0 244111 3.81342e+06 0 255264 3.79944e+06 0 266763 3.78478e+06 0 278609 3.7694e+06 0 290799 3.75326e+06 0 303327 3.73632e+06 0 316181 3.71854e+06 0 329346 3.69988e+06 0 342801 3.6803e+06 0 356518 3.65976e+06 0 46093.2 3.9895e+06 0 53956.1 3.98522e+06 0 61661.5 3.98051e+06 0 69239.4 3.97539e+06 0 76718.1 3.96987e+06 0 84126 3.96396e+06 0 91491.1 3.95766e+06 0 98840.7 3.95098e+06 0 106202 3.94391e+06 0 113601 3.93644e+06 0 121063 3.92858e+06 0 128613 3.92032e+06 0 136276 3.91165e+06 0 144075 3.90255e+06 0 152031 3.89302e+06 0 160167 3.88303e+06 0 168502 3.87257e+06 0 177054 3.86162e+06 0 185840 3.85015e+06 0 194877 3.83815e+06 0 204176 3.82557e+06 0 213749 3.81241e+06 0 223605 3.79862e+06 0 233749 3.78418e+06 0 244184 3.76906e+06 0 254911 3.75321e+06 0 265926 3.73662e+06 0 277221 3.71924e+06 0 288786 3.70103e+06 0 300605 3.68198e+06 0 312659 3.66204e+06 0 324925 3.64118e+06 0 40327.5 3.97888e+06 0 47557.1 3.97482e+06 0 54645.3 3.9703e+06 0 61618.3 3.96533e+06 0 68501 3.95992e+06 0 75318.6 3.95409e+06 0 82095.4 3.94783e+06 0 88855.7 3.94115e+06 0 95623 3.93404e+06 0 102421 3.92651e+06 0 109271 3.91855e+06 0 116196 3.91015e+06 0 123216 3.90131e+06 0 130352 3.89202e+06 0 137623 3.88226e+06 0 145047 3.87201e+06 0 152642 3.86127e+06 0 160422 3.85002e+06 0 168402 3.83822e+06 0 176595 3.82587e+06 0 185011 3.81294e+06 0 193659 3.7994e+06 0 202546 3.78523e+06 0 211676 3.7704e+06 0 221050 3.75489e+06 0 230667 3.73866e+06 0 240523 3.72168e+06 0 250611 3.70393e+06 0 260921 3.68538e+06 0 271437 3.666e+06 0 282144 3.64577e+06 0 293019 3.62466e+06 0 34927.5 3.96917e+06 0 41473.1 3.96531e+06 0 47893.5 3.96096e+06 0 54211.3 3.95613e+06 0 60448.3 3.95083e+06 0 66626.2 3.94506e+06 0 72766.2 3.93884e+06 0 78889.4 3.93217e+06 0 85016.3 3.92503e+06 0 91167.1 3.91745e+06 0 97361.1 3.9094e+06 0 103617 3.90089e+06 0 109954 3.89191e+06 0 116388 3.88245e+06 0 122937 3.8725e+06 0 129615 3.86204e+06 0 136437 3.85106e+06 0 143416 3.83954e+06 0 150564 3.82747e+06 0 157891 3.81483e+06 0 165407 3.80159e+06 0 173117 3.78774e+06 0 181027 3.77325e+06 0 189139 3.75809e+06 0 197455 3.74225e+06 0 205973 3.7257e+06 0 214687 3.70841e+06 0 223592 3.69036e+06 0 232677 3.67153e+06 0 241930 3.65189e+06 0 251336 3.63142e+06 0 260875 3.6101e+06 0 29852.8 3.96045e+06 0 35670.6 3.95677e+06 0 41379.3 3.95257e+06 0 46998.3 3.94786e+06 0 52546.2 3.94265e+06 0 58041.5 3.93695e+06 0 63502.5 3.93077e+06 0 68947.1 3.9241e+06 0 74393 3.91695e+06 0 79857.4 3.90932e+06 0 85356.9 3.9012e+06 0 90907.5 3.8926e+06 0 96524.9 3.8835e+06 0 102224 3.8739e+06 0 108018 3.86378e+06 0 113920 3.85314e+06 0 119943 3.84196e+06 0 126096 3.83023e+06 0 132391 3.81793e+06 0 138836 3.80504e+06 0 145436 3.79155e+06 0 152198 3.77743e+06 0 159126 3.76267e+06 0 166221 3.74725e+06 0 173483 3.73114e+06 0 180911 3.71432e+06 0 188499 3.69678e+06 0 196242 3.67848e+06 0 204131 3.65942e+06 0 212155 3.63957e+06 0 220300 3.61891e+06 0 228550 3.59744e+06 0 25062.4 3.95278e+06 0 30115 3.94926e+06 0 35074.7 3.94518e+06 0 39957.6 3.94058e+06 0 44779.2 3.93545e+06 0 49555.2 3.92981e+06 0 54300.9 3.92365e+06 0 59031.4 3.917e+06 0 63761.5 3.90984e+06 0 68505.7 3.90217e+06 0 73277.8 3.894e+06 0 78091.5 3.88532e+06 0 82959.5 3.87612e+06 0 87894.2 3.8664e+06 0 92907.1 3.85615e+06 0 98009 3.84536e+06 0 103210 3.83401e+06 0 108518 3.8221e+06 0 113943 3.80961e+06 0 119489 3.79652e+06 0 125164 3.78282e+06 0 130971 3.76849e+06 0 136913 3.75351e+06 0 142991 3.73786e+06 0 149204 3.72153e+06 0 155551 3.7045e+06 0 162028 3.68675e+06 0 168628 3.66826e+06 0 175345 3.64901e+06 0 182169 3.62899e+06 0 189089 3.60819e+06 0 196090 3.58659e+06 0 20515.2 3.94621e+06 0 24771.6 3.94281e+06 0 28950.8 3.93885e+06 0 33066.2 3.93433e+06 0 37130.5 3.92927e+06 0 41156.3 3.92368e+06 0 45156.2 3.91756e+06 0 49142.7 3.91091e+06 0 53127.8 3.90374e+06 0 57123.3 3.89605e+06 0 61140.7 3.88783e+06 0 65190.9 3.87909e+06 0 69284.5 3.86981e+06 0 73431.4 3.86e+06 0 77641.1 3.84964e+06 0 81922.2 3.83873e+06 0 86282.6 3.82725e+06 0 90729.6 3.81519e+06 0 95269.4 3.80254e+06 0 99907.3 3.78929e+06 0 104648 3.77541e+06 0 109493 3.76091e+06 0 114447 3.74575e+06 0 119509 3.72993e+06 0 124678 3.71342e+06 0 129953 3.69622e+06 0 135331 3.6783e+06 0 140806 3.65965e+06 0 146372 3.64026e+06 0 152021 3.62011e+06 0 157744 3.5992e+06 0 163529 3.5775e+06 0 16170.2 3.94077e+06 0 19605 3.93748e+06 0 22978.3 3.93361e+06 0 26300.6 3.92916e+06 0 29581.9 3.92416e+06 0 32832.2 3.91861e+06 0 36061.5 3.91251e+06 0 39279.4 3.90588e+06 0 42495.6 3.8987e+06 0 45719.2 3.89099e+06 0 48959.4 3.88274e+06 0 52224.7 3.87395e+06 0 55523.4 3.86461e+06 0 58863.3 3.85472e+06 0 62251.8 3.84428e+06 0 65695.6 3.83327e+06 0 69200.9 3.82168e+06 0 72773.3 3.80951e+06 0 76417.5 3.79673e+06 0 80137.7 3.78335e+06 0 83937 3.76934e+06 0 87817.9 3.7547e+06 0 91781.6 3.7394e+06 0 95828.8 3.72344e+06 0 99958.6 3.7068e+06 0 104169 3.68946e+06 0 108458 3.67142e+06 0 112822 3.65265e+06 0 117254 3.63314e+06 0 121749 3.6129e+06 0 126299 3.59189e+06 0 130895 3.57012e+06 0 11986.7 3.9365e+06 0 14579.9 3.93329e+06 0 17127.1 3.92949e+06 0 19636.2 3.92511e+06 0 22114.5 3.92015e+06 0 24569.4 3.91463e+06 0 27008.3 3.90855e+06 0 29438.4 3.90192e+06 0 31866.7 3.89475e+06 0 34300.2 3.88702e+06 0 36745.5 3.87874e+06 0 39209 3.86991e+06 0 41696.8 3.86053e+06 0 44214.7 3.85059e+06 0 46768 3.84008e+06 0 49361.7 3.82899e+06 0 52000.4 3.81733e+06 0 54688.1 3.80507e+06 0 57428.4 3.7922e+06 0 60224.1 3.77872e+06 0 63077.6 3.76461e+06 0 65990.4 3.74987e+06 0 68963.7 3.73447e+06 0 71997.6 3.7184e+06 0 75091.5 3.70165e+06 0 78244.1 3.68422e+06 0 81453.2 3.66607e+06 0 84715.7 3.64721e+06 0 88027.9 3.62763e+06 0 91384.9 3.60731e+06 0 94781.2 3.58624e+06 0 98210.1 3.56442e+06 0 7924.09 3.93343e+06 0 9660.93 3.93028e+06 0 11367.3 3.92653e+06 0 13048.2 3.92218e+06 0 14708.5 3.91726e+06 0 16353.3 3.91176e+06 0 17987.2 3.9057e+06 0 19615.2 3.89908e+06 0 21241.7 3.8919e+06 0 22871.5 3.88416e+06 0 24508.9 3.87587e+06 0 26158.1 3.86702e+06 0 27823.1 3.8576e+06 0 29507.8 3.84762e+06 0 31215.6 3.83706e+06 0 32949.9 3.82593e+06 0 34713.6 3.8142e+06 0 36509.4 3.80188e+06 0 38339.5 3.78895e+06 0 40205.9 3.77541e+06 0 42110.1 3.76123e+06 0 44053 3.74641e+06 0 46035.4 3.73093e+06 0 48057.2 3.71479e+06 0 50118.1 3.69798e+06 0 52217.2 3.68047e+06 0 54352.9 3.66226e+06 0 56523.3 3.64334e+06 0 58725.7 3.6237e+06 0 60957 3.60332e+06 0 63213.5 3.58221e+06 0 65490.8 3.56036e+06 0 3941.93 3.93158e+06 0 4812.75 3.92846e+06 0 5668.36 3.92474e+06 0 6511.26 3.92042e+06 0 7343.89 3.91551e+06 0 8168.69 3.91003e+06 0 8988.06 3.90398e+06 0 9804.38 3.89736e+06 0 10620 3.89018e+06 0 11437.1 3.88244e+06 0 12257.9 3.87413e+06 0 13084.6 3.86526e+06 0 13919 3.85583e+06 0 14763.1 3.84582e+06 0 15618.7 3.83524e+06 0 16487.4 3.82408e+06 0 17370.6 3.81232e+06 0 18269.7 3.79996e+06 0 19185.7 3.78699e+06 0 20119.7 3.77341e+06 0 21072.3 3.75919e+06 0 22044.1 3.74432e+06 0 23035.3 3.72881e+06 0 24046 3.71262e+06 0 25075.9 3.69576e+06 0 26124.7 3.67822e+06 0 27191.4 3.65997e+06 0 28275.2 3.64101e+06 0 29374.7 3.62133e+06 0 30488.4 3.60093e+06 0 31614.3 3.57979e+06 0 32750.4 3.55792e+06 0 0 3.93094e+06 0 0 3.92784e+06 0 0 3.92413e+06 0 0 3.91981e+06 0 0 3.91492e+06 0 0 3.90944e+06 0 0 3.90339e+06 0 0 3.89677e+06 0 0 3.88959e+06 0 0 3.88185e+06 0 0 3.87354e+06 0 0 3.86467e+06 0 0 3.85523e+06 0 0 3.84521e+06 0 0 3.83462e+06 0 0 3.82345e+06 0 0 3.81168e+06 0 0 3.79931e+06 0 0 3.78633e+06 0 0 3.77273e+06 0 0 3.75849e+06 0 0 3.74361e+06 0 0 3.72808e+06 0 0 3.71189e+06 0 0 3.69501e+06 0 0 3.67745e+06 0 0 3.65919e+06 0 0 3.64022e+06 0 0 3.62053e+06 0 0 3.60012e+06 0 0 3.57897e+06 0 0 3.55709e+06 0 </DataArray> 
</PointData> 
<Points> 
<DataArray type="Float32" NumberOfComponents="3"> 