<?xml version="1.0"?> 
<VTKFile type="StructuredGrid" version="0.1"> 
<StructuredGrid WholeExtent="0 31 0 31 0 0"> 
<Piece Extent="0 31 0 31 0 0"> 
<PointData>
<DataArray type="Float32" Name="|E|" format="ascii" NumberOfComponents="3"> 
-3.74742e+06 1.01227e+06 0 -3.77011e+06 990742 0 -3.79299e+06 968839 0 -3.81628e+06 946423 0 -3.84002e+06 923439 0 -3.86425e+06 899857 0 -3.889e+06 875654 0 -3.91427e+06 850808 0 -3.9401e+06 825300 0 -3.96649e+06 799111 0 -3.99348e+06 772219 0 -4.02107e+06 744605 0 -4.04929e+06 716245 0 -4.07816e+06 687119 0 -4.1077e+06 657201 0 -4.13793e+06 626469 0 -4.16887e+06 594897 0 -4.20056e+06 562459 0 -4.23301e+06 529128 0 -4.26625e+06 494875 0 -4.30031e+06 459672 0 -4.33521e+06 423488 0 -4.37099e+06 386291 0 -4.40767e+06 348049 0 -4.4453e+06 308725 0 -4.48389e+06 268286 0 -4.52349e+06 226693 0 -4.56413e+06 183908 0 -4.60586e+06 139889 0 -4.6487e+06 94594.8 0 -4.6927e+06 47980.6 0 -4.73791e+06 0 0 -3.8392e+06 1.11827e+06 0 -3.86353e+06 1.09969e+06 0 -3.88846e+06 1.08058e+06 0 -3.91398e+06 1.06096e+06 0 -3.94008e+06 1.04082e+06 0 -3.96679e+06 1.02015e+06 0 -3.99413e+06 998930 0 -4.0221e+06 977143 0 -4.05074e+06 954771 0 -4.08007e+06 931798 0 -4.11011e+06 908204 0 -4.14089e+06 883971 0 -4.17243e+06 859078 0 -4.20475e+06 833506 0 -4.23789e+06 807234 0 -4.27188e+06 780239 0 -4.30674e+06 752499 0 -4.34251e+06 723991 0 -4.37921e+06 694690 0 -4.4169e+06 664571 0 -4.45559e+06 633607 0 -4.49534e+06 601771 0 -4.53617e+06 569035 0 -4.57814e+06 535369 0 -4.62128e+06 500741 0 -4.66564e+06 465121 0 -4.71126e+06 428474 0 -4.75821e+06 390765 0 -4.80652e+06 351959 0 -4.85626e+06 312017 0 -4.90749e+06 270899 0 -4.96026e+06 228566 0 -3.91944e+06 1.23452e+06 0 -3.94583e+06 1.2187e+06 0 -3.97284e+06 1.20247e+06 0 -4.0005e+06 1.18582e+06 0 -4.02883e+06 1.16871e+06 0 -4.05787e+06 1.15116e+06 0 -4.08762e+06 1.13313e+06 0 -4.11812e+06 1.11462e+06 0 -4.1494e+06 1.09562e+06 0 -4.18147e+06 1.07611e+06 0 -4.21438e+06 1.05607e+06 0 -4.24815e+06 1.0355e+06 0 -4.28281e+06 1.01437e+06 0 -4.3184e+06 992666 0 -4.35494e+06 970376 0 -4.39249e+06 947480 0 -4.43107e+06 923959 0 -4.47072e+06 899794 0 -4.51149e+06 874966 0 -4.55343e+06 849455 0 -4.59656e+06 823239 0 -4.64096e+06 796296 0 -4.68666e+06 768604 0 -4.73372e+06 740140 0 -4.78219e+06 710879 0 -4.83213e+06 680796 0 -4.88362e+06 649865 0 -4.9367e+06 618059 0 -4.99145e+06 585349 0 -5.04794e+06 551707 0 -5.10624e+06 517103 0 -5.16645e+06 481505 0 -3.98806e+06 1.35919e+06 0 -4.01625e+06 1.3463e+06 0 -4.04515e+06 1.33307e+06 0 -4.07478e+06 1.3195e+06 0 -4.10517e+06 1.30558e+06 0 -4.13635e+06 1.29129e+06 0 -4.16834e+06 1.27664e+06 0 -4.20118e+06 1.26162e+06 0 -4.2349e+06 1.2462e+06 0 -4.26952e+06 1.23038e+06 0 -4.3051e+06 1.21416e+06 0 -4.34165e+06 1.19752e+06 0 -4.37922e+06 1.18044e+06 0 -4.41785e+06 1.16293e+06 0 -4.45759e+06 1.14496e+06 0 -4.49847e+06 1.12653e+06 0 -4.54053e+06 1.10762e+06 0 -4.58384e+06 1.08822e+06 0 -4.62844e+06 1.06833e+06 0 -4.67437e+06 1.04791e+06 0 -4.72171e+06 1.02698e+06 0 -4.77051e+06 1.0055e+06 0 -4.82082e+06 983462 0 -4.87272e+06 960860 0 -4.92627e+06 937677 0 -4.98155e+06 913897 0 -5.03862e+06 889507 0 -5.09758e+06 864491 0 -5.15851e+06 838836 0 -5.22149e+06 812525 0 -5.28662e+06 785545 0 -5.35401e+06 757881 0 -4.04419e+06 1.49059e+06 0 -4.07402e+06 1.48073e+06 0 -4.10463e+06 1.47062e+06 0 -4.13605e+06 1.46028e+06 0 -4.1683e+06 1.44969e+06 0 -4.20143e+06 1.43884e+06 0 -4.23546e+06 1.42774e+06 0 -4.27043e+06 1.41638e+06 0 -4.30638e+06 1.40476e+06 0 -4.34334e+06 1.39286e+06 0 -4.38135e+06 1.38069e+06 0 -4.42046e+06 1.36825e+06 0 -4.4607e+06 1.35552e+06 0 -4.50214e+06 1.3425e+06 0 -4.5448e+06 1.32919e+06 0 -4.58875e+06 1.31559e+06 0 -4.63404e+06 1.30169e+06 0 -4.68073e+06 1.28748e+06 0 -4.72886e+06 1.27298e+06 0 -4.77852e+06 1.25816e+06 0 -4.82975e+06 1.24304e+06 0 -4.88264e+06 1.22761e+06 0 -4.93725e+06 1.21187e+06 0 -4.99366e+06 1.19581e+06 0 -5.05195e+06 1.17945e+06 0 -5.11221e+06 1.16277e+06 0 -5.17452e+06 1.14579e+06 0 -5.23899e+06 1.1285e+06 0 -5.30571e+06 1.11092e+06 0 -5.37479e+06 1.09304e+06 0 -5.44634e+06 1.07488e+06 0 -5.52048e+06 1.05644e+06 0 -4.08734e+06 1.62695e+06 0 -4.11863e+06 1.62022e+06 0 -4.15076e+06 1.61336e+06 0 -4.18377e+06 1.60636e+06 0 -4.2177e+06 1.59923e+06 0 -4.25257e+06 1.59198e+06 0 -4.28843e+06 1.58459e+06 0 -4.32531e+06 1.57708e+06 0 -4.36326e+06 1.56944e+06 0 -4.40231e+06 1.56167e+06 0 -4.44252e+06 1.55379e+06 0 -4.48392e+06 1.54579e+06 0 -4.52658e+06 1.53768e+06 0 -4.57054e+06 1.52946e+06 0 -4.61585e+06 1.52113e+06 0 -4.66258e+06 1.51271e+06 0 -4.71078e+06 1.50421e+06 0 -4.76052e+06 1.49562e+06 0 -4.81187e+06 1.48696e+06 0 -4.86489e+06 1.47825e+06 0 -4.91966e+06 1.46949e+06 0 -4.97626e+06 1.46069e+06 0 -5.03477e+06 1.45188e+06 0 -5.09527e+06 1.44307e+06 0 -5.15787e+06 1.43428e+06 0 -5.22265e+06 1.42554e+06 0 -5.28973e+06 1.41686e+06 0 -5.3592e+06 1.40828e+06 0 -5.43118e+06 1.39983e+06 0 -5.5058e+06 1.39153e+06 0 -5.58318e+06 1.38344e+06 0 -5.66347e+06 1.37559e+06 0 -4.11727e+06 1.76651e+06 0 -4.14983e+06 1.76299e+06 0 -4.1833e+06 1.75946e+06 0 -4.21771e+06 1.75593e+06 0 -4.25309e+06 1.75238e+06 0 -4.2895e+06 1.74884e+06 0 -4.32696e+06 1.74532e+06 0 -4.36552e+06 1.74181e+06 0 -4.40522e+06 1.73833e+06 0 -4.44612e+06 1.7349e+06 0 -4.48826e+06 1.73151e+06 0 -4.53169e+06 1.7282e+06 0 -4.57647e+06 1.72496e+06 0 -4.62265e+06 1.72182e+06 0 -4.6703e+06 1.7188e+06 0 -4.71947e+06 1.7159e+06 0 -4.77024e+06 1.71316e+06 0 -4.82267e+06 1.7106e+06 0 -4.87683e+06 1.70824e+06 0 -4.93281e+06 1.70611e+06 0 -4.99069e+06 1.70424e+06 0 -5.05054e+06 1.70267e+06 0 -5.11247e+06 1.70143e+06 0 -5.17657e+06 1.70056e+06 0 -5.24293e+06 1.70011e+06 0 -5.31167e+06 1.70012e+06 0 -5.38289e+06 1.70065e+06 0 -5.45671e+06 1.70177e+06 0 -5.53327e+06 1.70353e+06 0 -5.61268e+06 1.706e+06 0 -5.6951e+06 1.70928e+06 0 -5.78066e+06 1.71343e+06 0 -4.13401e+06 1.90753e+06 0 -4.16766e+06 1.90731e+06 0 -4.20227e+06 1.90719e+06 0 -4.23787e+06 1.9072e+06 0 -4.27451e+06 1.90734e+06 0 -4.31222e+06 1.90763e+06 0 -4.35106e+06 1.90809e+06 0 -4.39106e+06 1.90873e+06 0 -4.43227e+06 1.90957e+06 0 -4.47474e+06 1.91064e+06 0 -4.51853e+06 1.91195e+06 0 -4.56369e+06 1.91353e+06 0 -4.61028e+06 1.9154e+06 0 -4.65836e+06 1.91761e+06 0 -4.70799e+06 1.92017e+06 0 -4.75924e+06 1.92312e+06 0 -4.81218e+06 1.92649e+06 0 -4.86689e+06 1.93034e+06 0 -4.92343e+06 1.9347e+06 0 -4.98191e+06 1.93963e+06 0 -5.04239e+06 1.94516e+06 0 -5.10497e+06 1.95137e+06 0 -5.16975e+06 1.95832e+06 0 -5.23683e+06 1.96607e+06 0 -5.3063e+06 1.9747e+06 0 -5.37829e+06 1.98429e+06 0 -5.45291e+06 1.99493e+06 0 -5.53027e+06 2.00672e+06 0 -5.61052e+06 2.01977e+06 0 -5.69378e+06 2.03419e+06 0 -5.78019e+06 2.05012e+06 0 -5.86992e+06 2.06769e+06 0 -4.13784e+06 2.04838e+06 0 -4.1724e+06 2.0515e+06 0 -4.20795e+06 2.05485e+06 0 -4.24455e+06 2.05847e+06 0 -4.28223e+06 2.06238e+06 0 -4.32103e+06 2.06659e+06 0 -4.361e+06 2.07114e+06 0 -4.40219e+06 2.07604e+06 0 -4.44464e+06 2.08134e+06 0 -4.48842e+06 2.08705e+06 0 -4.53356e+06 2.09322e+06 0 -4.58014e+06 2.09989e+06 0 -4.62821e+06 2.10709e+06 0 -4.67783e+06 2.11487e+06 0 -4.72907e+06 2.12327e+06 0 -4.78199e+06 2.13236e+06 0 -4.83668e+06 2.14217e+06 0 -4.89321e+06 2.15279e+06 0 -4.95165e+06 2.16426e+06 0 -5.01209e+06 2.17667e+06 0 -5.07461e+06 2.1901e+06 0 -5.13931e+06 2.20462e+06 0 -5.20629e+06 2.22034e+06 0 -5.27563e+06 2.23735e+06 0 -5.34745e+06 2.25576e+06 0 -5.42186e+06 2.27571e+06 0 -5.49897e+06 2.29731e+06 0 -5.57889e+06 2.32072e+06 0 -5.66175e+06 2.34609e+06 0 -5.74768e+06 2.3736e+06 0 -5.83681e+06 2.40343e+06 0 -5.92928e+06 2.43579e+06 0 -4.12926e+06 2.18755e+06 0 -4.16455e+06 2.19403e+06 0 -4.20087e+06 2.2009e+06 0 -4.23826e+06 2.20818e+06 0 -4.27676e+06 2.2159e+06 0 -4.31643e+06 2.2241e+06 0 -4.3573e+06 2.23282e+06 0 -4.39942e+06 2.24208e+06 0 -4.44285e+06 2.25193e+06 0 -4.48763e+06 2.26242e+06 0 -4.53383e+06 2.2736e+06 0 -4.5815e+06 2.28551e+06 0 -4.6307e+06 2.29821e+06 0 -4.68149e+06 2.31176e+06 0 -4.73394e+06 2.32624e+06 0 -4.78811e+06 2.34171e+06 0 -4.84409e+06 2.35825e+06 0 -4.90194e+06 2.37595e+06 0 -4.96173e+06 2.39489e+06 0 -5.02356e+06 2.41518e+06 0 -5.08749e+06 2.43692e+06 0 -5.15363e+06 2.46024e+06 0 -5.22206e+06 2.48526e+06 0 -5.29286e+06 2.51212e+06 0 -5.36615e+06 2.54097e+06 0 -5.44201e+06 2.57199e+06 0 -5.52054e+06 2.60534e+06 0 -5.60186e+06 2.64124e+06 0 -5.68606e+06 2.67989e+06 0 -5.77324e+06 2.72153e+06 0 -5.86353e+06 2.76642e+06 0 -5.95703e+06 2.81483e+06 0 -4.10898e+06 2.32366e+06 0 -4.14482e+06 2.33352e+06 0 -4.18172e+06 2.34392e+06 0 -4.2197e+06 2.35488e+06 0 -4.25883e+06 2.36646e+06 0 -4.29913e+06 2.3787e+06 0 -4.34066e+06 2.39163e+06 0 -4.38347e+06 2.40532e+06 0 -4.4276e+06 2.41981e+06 0 -4.47311e+06 2.43516e+06 0 -4.52005e+06 2.45145e+06 0 -4.56847e+06 2.46873e+06 0 -4.61844e+06 2.48708e+06 0 -4.67002e+06 2.50658e+06 0 -4.72326e+06 2.52731e+06 0 -4.77823e+06 2.54938e+06 0 -4.835e+06 2.57289e+06 0 -4.89363e+06 2.59793e+06 0 -4.95421e+06 2.62464e+06 0 -5.01679e+06 2.65315e+06 0 -5.08145e+06 2.68359e+06 0 -5.14827e+06 2.71612e+06 0 -5.21733e+06 2.75091e+06 0 -5.28869e+06 2.78814e+06 0 -5.36244e+06 2.828e+06 0 -5.43866e+06 2.87072e+06 0 -5.51741e+06 2.91652e+06 0 -5.59878e+06 2.96567e+06 0 -5.68283e+06 3.01843e+06 0 -5.76964e+06 3.07512e+06 0 -5.85925e+06 3.13606e+06 0 -5.95174e+06 3.20163e+06 0 -4.07786e+06 2.45552e+06 0 -4.11408e+06 2.46876e+06 0 -4.15137e+06 2.48268e+06 0 -4.18976e+06 2.49734e+06 0 -4.2293e+06 2.51278e+06 0 -4.27003e+06 2.52907e+06 0 -4.31199e+06 2.54626e+06 0 -4.35523e+06 2.56441e+06 0 -4.39979e+06 2.58359e+06 0 -4.44573e+06 2.60387e+06 0 -4.4931e+06 2.62534e+06 0 -4.54194e+06 2.64808e+06 0 -4.59232e+06 2.67219e+06 0 -4.64428e+06 2.69776e+06 0 -4.69788e+06 2.7249e+06 0 -4.75318e+06 2.75374e+06 0 -4.81023e+06 2.7844e+06 0 -4.8691e+06 2.81702e+06 0 -4.92983e+06 2.85174e+06 0 -4.9925e+06 2.88874e+06 0 -5.05715e+06 2.92819e+06 0 -5.12384e+06 2.97028e+06 0 -5.19262e+06 3.01523e+06 0 -5.26355e+06 3.06325e+06 0 -5.33667e+06 3.11459e+06 0 -5.41202e+06 3.16953e+06 0 -5.48965e+06 3.22835e+06 0 -5.56957e+06 3.29136e+06 0 -5.6518e+06 3.35892e+06 0 -5.73635e+06 3.43139e+06 0 -5.82321e+06 3.50918e+06 0 -5.91234e+06 3.59272e+06 0 -4.03684e+06 2.58213e+06 0 -4.07329e+06 2.59871e+06 0 -4.11081e+06 2.61614e+06 0 -4.14943e+06 2.63448e+06 0 -4.18919e+06 2.65378e+06 0 -4.23013e+06 2.67412e+06 0 -4.27229e+06 2.69556e+06 0 -4.31572e+06 2.71819e+06 0 -4.36046e+06 2.74208e+06 0 -4.40655e+06 2.76733e+06 0 -4.45403e+06 2.79403e+06 0 -4.50296e+06 2.82229e+06 0 -4.55337e+06 2.85223e+06 0 -4.60532e+06 2.88396e+06 0 -4.65884e+06 2.91761e+06 0 -4.71398e+06 2.95334e+06 0 -4.77079e+06 2.99129e+06 0 -4.82931e+06 3.03165e+06 0 -4.88957e+06 3.07457e+06 0 -4.95161e+06 3.12028e+06 0 -5.01546e+06 3.16897e+06 0 -5.08115e+06 3.22089e+06 0 -5.1487e+06 3.27628e+06 0 -5.21813e+06 3.33541e+06 0 -5.28943e+06 3.39859e+06 0 -5.3626e+06 3.46613e+06 0 -5.43761e+06 3.53837e+06 0 -5.51443e+06 3.6157e+06 0 -5.59299e+06 3.69852e+06 0 -5.67321e+06 3.78726e+06 0 -5.75498e+06 3.88241e+06 0 -5.83815e+06 3.98447e+06 0 -3.98697e+06 2.70267e+06 0 -4.02351e+06 2.72255e+06 0 -4.0611e+06 2.74345e+06 0 -4.09977e+06 2.76543e+06 0 -4.13957e+06 2.78857e+06 0 -4.18053e+06 2.81293e+06 0 -4.22268e+06 2.83862e+06 0 -4.26607e+06 2.86571e+06 0 -4.31073e+06 2.89431e+06 0 -4.35669e+06 2.92453e+06 0 -4.40399e+06 2.95648e+06 0 -4.45267e+06 2.99029e+06 0 -4.50276e+06 3.02608e+06 0 -4.55429e+06 3.06402e+06 0 -4.60729e+06 3.10425e+06 0 -4.6618e+06 3.14694e+06 0 -4.71782e+06 3.19228e+06 0 -4.77539e+06 3.24047e+06 0 -4.83452e+06 3.29172e+06 0 -4.8952e+06 3.34626e+06 0 -4.95745e+06 3.40435e+06 0 -5.02123e+06 3.46626e+06 0 -5.08654e+06 3.53229e+06 0 -5.15334e+06 3.60274e+06 0 -5.22155e+06 3.67797e+06 0 -5.29112e+06 3.75834e+06 0 -5.36193e+06 3.84424e+06 0 -5.43386e+06 3.93612e+06 0 -5.50675e+06 4.03443e+06 0 -5.58039e+06 4.13966e+06 0 -5.65454e+06 4.25235e+06 0 -5.72889e+06 4.37305e+06 0 -3.92933e+06 2.8165e+06 0 -3.96582e+06 2.83964e+06 0 -4.00334e+06 2.86396e+06 0 -4.04192e+06 2.88953e+06 0 -4.08159e+06 2.91645e+06 0 -4.12239e+06 2.9448e+06 0 -4.16433e+06 2.97469e+06 0 -4.20746e+06 3.00621e+06 0 -4.25179e+06 3.0395e+06 0 -4.29736e+06 3.07467e+06 0 -4.34418e+06 3.11185e+06 0 -4.39229e+06 3.15119e+06 0 -4.4417e+06 3.19285e+06 0 -4.49243e+06 3.237e+06 0 -4.54448e+06 3.28382e+06 0 -4.59786e+06 3.3335e+06 0 -4.65257e+06 3.38627e+06 0 -4.7086e+06 3.44234e+06 0 -4.76592e+06 3.50196e+06 0 -4.82451e+06 3.56541e+06 0 -4.88431e+06 3.63297e+06 0 -4.94526e+06 3.70495e+06 0 -5.00728e+06 3.78169e+06 0 -5.07026e+06 3.86353e+06 0 -5.13407e+06 3.95087e+06 0 -5.19855e+06 4.04413e+06 0 -5.26348e+06 4.14373e+06 0 -5.32865e+06 4.25016e+06 0 -5.39374e+06 4.36391e+06 0 -5.45841e+06 4.48551e+06 0 -5.52226e+06 4.61553e+06 0 -5.58477e+06 4.75453e+06 0 -3.86502e+06 2.92318e+06 0 -3.90134e+06 2.94951e+06 0 -3.93867e+06 2.97717e+06 0 -3.97701e+06 3.00628e+06 0 -4.0164e+06 3.03692e+06 0 -4.05686e+06 3.0692e+06 0 -4.09841e+06 3.10323e+06 0 -4.14107e+06 3.13914e+06 0 -4.18486e+06 3.17706e+06 0 -4.22979e+06 3.21713e+06 0 -4.27586e+06 3.25951e+06 0 -4.3231e+06 3.30435e+06 0 -4.37149e+06 3.35185e+06 0 -4.42103e+06 3.40218e+06 0 -4.47171e+06 3.45557e+06 0 -4.52349e+06 3.51222e+06 0 -4.57635e+06 3.57239e+06 0 -4.63024e+06 3.63633e+06 0 -4.68509e+06 3.70432e+06 0 -4.74083e+06 3.77666e+06 0 -4.79734e+06 3.85367e+06 0 -4.8545e+06 3.93569e+06 0 -4.91216e+06 4.0231e+06 0 -4.97012e+06 4.11627e+06 0 -5.02817e+06 4.21564e+06 0 -5.08602e+06 4.32165e+06 0 -5.14336e+06 4.43476e+06 0 -5.1998e+06 4.55547e+06 0 -5.2549e+06 4.6843e+06 0 -5.30814e+06 4.82179e+06 0 -5.3589e+06 4.9685e+06 0 -5.40644e+06 5.12495e+06 0 -3.79508e+06 3.02242e+06 0 -3.83115e+06 3.05185e+06 0 -3.86816e+06 3.0828e+06 0 -3.90615e+06 3.11536e+06 0 -3.94513e+06 3.14965e+06 0 -3.9851e+06 3.18578e+06 0 -4.02609e+06 3.22389e+06 0 -4.06811e+06 3.26411e+06 0 -4.11114e+06 3.3066e+06 0 -4.1552e+06 3.35151e+06 0 -4.20027e+06 3.39901e+06 0 -4.24634e+06 3.4493e+06 0 -4.29339e+06 3.50257e+06 0 -4.34138e+06 3.55903e+06 0 -4.39027e+06 3.61892e+06 0 -4.44e+06 3.68249e+06 0 -4.49049e+06 3.75e+06 0 -4.54166e+06 3.82174e+06 0 -4.59338e+06 3.89802e+06 0 -4.64552e+06 3.97916e+06 0 -4.6979e+06 4.06551e+06 0 -4.75032e+06 4.15744e+06 0 -4.80254e+06 4.25535e+06 0 -4.85426e+06 4.35966e+06 0 -4.90516e+06 4.4708e+06 0 -4.95484e+06 4.58922e+06 0 -5.00282e+06 4.71542e+06 0 -5.04856e+06 4.84988e+06 0 -5.09145e+06 4.9931e+06 0 -5.13074e+06 5.1456e+06 0 -5.16562e+06 5.30789e+06 0 -5.19505e+06 5.48039e+06 0 -3.72057e+06 3.11408e+06 0 -3.75628e+06 3.14654e+06 0 -3.7929e+06 3.18067e+06 0 -3.83043e+06 3.21661e+06 0 -3.86887e+06 3.25446e+06 0 -3.90823e+06 3.29437e+06 0 -3.94852e+06 3.33647e+06 0 -3.98971e+06 3.38093e+06 0 -4.03181e+06 3.4279e+06 0 -4.07478e+06 3.47756e+06 0 -4.11861e+06 3.53011e+06 0 -4.16325e+06 3.58575e+06 0 -4.20865e+06 3.6447e+06 0 -4.25475e+06 3.7072e+06 0 -4.30147e+06 3.7735e+06 0 -4.3487e+06 3.84388e+06 0 -4.39632e+06 3.91863e+06 0 -4.4442e+06 3.99805e+06 0 -4.49214e+06 4.08247e+06 0 -4.53994e+06 4.17225e+06 0 -4.58736e+06 4.26775e+06 0 -4.63409e+06 4.36937e+06 0 -4.6798e+06 4.47751e+06 0 -4.72408e+06 4.59259e+06 0 -4.76646e+06 4.71507e+06 0 -4.8064e+06 4.84539e+06 0 -4.84327e+06 4.98401e+06 0 -4.87635e+06 5.13138e+06 0 -4.90481e+06 5.28797e+06 0 -4.92769e+06 5.45418e+06 0 -4.94394e+06 5.63044e+06 0 -4.95223e+06 5.81699e+06 0 -3.64243e+06 3.19815e+06 0 -3.67773e+06 3.23355e+06 0 -3.71387e+06 3.27079e+06 0 -3.75085e+06 3.31001e+06 0 -3.78866e+06 3.35133e+06 0 -3.8273e+06 3.39492e+06 0 -3.86675e+06 3.44093e+06 0 -3.90699e+06 3.48952e+06 0 -3.94798e+06 3.54087e+06 0 -3.98968e+06 3.59519e+06 0 -4.03205e+06 3.65269e+06 0 -4.07501e+06 3.71358e+06 0 -4.11848e+06 3.7781e+06 0 -4.16237e+06 3.84653e+06 0 -4.20654e+06 3.91912e+06 0 -4.25085e+06 3.99617e+06 0 -4.29513e+06 4.07799e+06 0 -4.33916e+06 4.16492e+06 0 -4.3827e+06 4.25729e+06 0 -4.42545e+06 4.35548e+06 0 -4.46709e+06 4.45986e+06 0 -4.50721e+06 4.57083e+06 0 -4.54535e+06 4.68879e+06 0 -4.58099e+06 4.81418e+06 0 -4.6135e+06 4.9474e+06 0 -4.64219e+06 5.08887e+06 0 -4.66624e+06 5.239e+06 0 -4.68473e+06 5.39817e+06 0 -4.69663e+06 5.56673e+06 0 -4.70073e+06 5.74495e+06 0 -4.69575e+06 5.93309e+06 0 -4.68007e+06 6.1311e+06 0 -3.56157e+06 3.27474e+06 0 -3.59641e+06 3.31298e+06 0 -3.63201e+06 3.35323e+06 0 -3.66837e+06 3.39564e+06 0 -3.70548e+06 3.44035e+06 0 -3.74329e+06 3.48752e+06 0 -3.7818e+06 3.53733e+06 0 -3.82095e+06 3.58995e+06 0 -3.86069e+06 3.64559e+06 0 -3.90096e+06 3.70446e+06 0 -3.94167e+06 3.76678e+06 0 -3.98273e+06 3.8328e+06 0 -4.02402e+06 3.90278e+06 0 -4.06539e+06 3.97698e+06 0 -4.10667e+06 4.05571e+06 0 -4.14766e+06 4.13927e+06 0 -4.18813e+06 4.22799e+06 0 -4.2278e+06 4.3222e+06 0 -4.26633e+06 4.42227e+06 0 -4.30335e+06 4.52857e+06 0 -4.33842e+06 4.64147e+06 0 -4.37103e+06 4.76137e+06 0 -4.40059e+06 4.88865e+06 0 -4.42642e+06 5.0237e+06 0 -4.44776e+06 5.16689e+06 0 -4.46373e+06 5.31858e+06 0 -4.47332e+06 5.47907e+06 0 -4.4754e+06 5.64862e+06 0 -4.46873e+06 5.82742e+06 0 -4.45186e+06 6.01552e+06 0 -4.42326e+06 6.21294e+06 0 -4.38108e+06 6.41926e+06 0 -3.4788e+06 3.34403e+06 0 -3.51314e+06 3.38503e+06 0 -3.54817e+06 3.42821e+06 0 -3.58386e+06 3.47371e+06 0 -3.62019e+06 3.52171e+06 0 -3.65711e+06 3.57236e+06 0 -3.69459e+06 3.62586e+06 0 -3.73254e+06 3.68241e+06 0 -3.77091e+06 3.74223e+06 0 -3.80959e+06 3.80552e+06 0 -3.84848e+06 3.87255e+06 0 -3.88743e+06 3.94357e+06 0 -3.9263e+06 4.01885e+06 0 -3.96488e+06 4.09868e+06 0 -4.00295e+06 4.18337e+06 0 -4.04026e+06 4.27324e+06 0 -4.0765e+06 4.36863e+06 0 -4.1113e+06 4.46987e+06 0 -4.14425e+06 4.57734e+06 0 -4.17488e+06 4.69139e+06 0 -4.20263e+06 4.81238e+06 0 -4.22686e+06 4.94069e+06 0 -4.24686e+06 5.07666e+06 0 -4.26179e+06 5.22062e+06 0 -4.27071e+06 5.37286e+06 0 -4.27256e+06 5.53363e+06 0 -4.26615e+06 5.70309e+06 0 -4.25014e+06 5.88132e+06 0 -4.22305e+06 6.06827e+06 0 -4.18325e+06 6.26374e+06 0 -4.12899e+06 6.46739e+06 0 -4.05819e+06 6.67833e+06 0 -3.39487e+06 3.40631e+06 0 -3.42868e+06 3.44997e+06 0 -3.4631e+06 3.49598e+06 0 -3.49809e+06 3.54448e+06 0 -3.53359e+06 3.59566e+06 0 -3.56957e+06 3.6497e+06 0 -3.60594e+06 3.70679e+06 0 -3.64262e+06 3.76716e+06 0 -3.6795e+06 3.83103e+06 0 -3.71648e+06 3.89864e+06 0 -3.75339e+06 3.97024e+06 0 -3.79006e+06 4.04612e+06 0 -3.82628e+06 4.12655e+06 0 -3.86183e+06 4.21184e+06 0 -3.8964e+06 4.3023e+06 0 -3.92968e+06 4.39826e+06 0 -3.96127e+06 4.50006e+06 0 -3.99074e+06 4.60805e+06 0 -4.01757e+06 4.72256e+06 0 -4.04118e+06 4.84395e+06 0 -4.06089e+06 4.97254e+06 0 -4.07594e+06 5.10866e+06 0 -4.08545e+06 5.25259e+06 0 -4.08842e+06 5.40457e+06 0 -4.08376e+06 5.56477e+06 0 -4.07021e+06 5.73328e+06 0 -4.04639e+06 5.91009e+06 0 -4.01077e+06 6.09502e+06 0 -3.96167e+06 6.28775e+06 0 -3.89727e+06 6.48769e+06 0 -3.81567e+06 6.69407e+06 0 -3.71466e+06 6.90546e+06 0 -3.31041e+06 3.46188e+06 0 -3.34369e+06 3.50813e+06 0 -3.37749e+06 3.55687e+06 0 -3.41175e+06 3.60828e+06 0 -3.4464e+06 3.66255e+06 0 -3.48138e+06 3.71987e+06 0 -3.51659e+06 3.78045e+06 0 -3.55193e+06 3.84453e+06 0 -3.58725e+06 3.91233e+06 0 -3.6224e+06 3.98413e+06 0 -3.65721e+06 4.06017e+06 0 -3.69144e+06 4.14076e+06 0 -3.72484e+06 4.22618e+06 0 -3.75712e+06 4.31674e+06 0 -3.78792e+06 4.41277e+06 0 -3.81684e+06 4.51459e+06 0 -3.84342e+06 4.62253e+06 0 -3.86712e+06 4.73693e+06 0 -3.88732e+06 4.8581e+06 0 -3.90332e+06 4.98636e+06 0 -3.91432e+06 5.122e+06 0 -3.91941e+06 5.26525e+06 0 -3.91756e+06 5.4163e+06 0 -3.90762e+06 5.57528e+06 0 -3.8883e+06 5.7422e+06 0 -3.85819e+06 5.91695e+06 0 -3.81571e+06 6.09927e+06 0 -3.75916e+06 6.28869e+06 0 -3.68672e+06 6.4845e+06 0 -3.59642e+06 6.68567e+06 0 -3.48628e+06 6.89094e+06 0 -3.35407e+06 7.09822e+06 0 -3.22599e+06 3.51112e+06 0 -3.25875e+06 3.55986e+06 0 -3.29192e+06 3.61126e+06 0 -3.32544e+06 3.66549e+06 0 -3.35923e+06 3.72275e+06 0 -3.39319e+06 3.78325e+06 0 -3.4272e+06 3.84722e+06 0 -3.46114e+06 3.9149e+06 0 -3.49483e+06 3.98653e+06 0 -3.52808e+06 4.06238e+06 0 -3.56066e+06 4.14273e+06 0 -3.59231e+06 4.22788e+06 0 -3.62272e+06 4.31812e+06 0 -3.65153e+06 4.41377e+06 0 -3.67831e+06 4.51514e+06 0 -3.70258e+06 4.62257e+06 0 -3.7238e+06 4.73635e+06 0 -3.74132e+06 4.85681e+06 0 -3.75441e+06 4.98422e+06 0 -3.76226e+06 5.11884e+06 0 -3.76391e+06 5.26089e+06 0 -3.75833e+06 5.41051e+06 0 -3.74432e+06 5.56777e+06 0 -3.72058e+06 5.73262e+06 0 -3.68565e+06 5.90488e+06 0 -3.63795e+06 6.0842e+06 0 -3.57575e+06 6.27e+06 0 -3.49721e+06 6.46144e+06 0 -3.40041e+06 6.65738e+06 0 -3.28332e+06 6.85627e+06 0 -3.14396e+06 7.05625e+06 0 -2.98021e+06 7.25453e+06 0 -3.1421e+06 3.55441e+06 0 -3.17434e+06 3.60557e+06 0 -3.2069e+06 3.65954e+06 0 -3.23968e+06 3.7165e+06 0 -3.2726e+06 3.77667e+06 0 -3.30552e+06 3.84026e+06 0 -3.33832e+06 3.90752e+06 0 -3.37082e+06 3.97869e+06 0 -3.40283e+06 4.05403e+06 0 -3.4341e+06 4.13382e+06 0 -3.46438e+06 4.21834e+06 0 -3.49333e+06 4.30789e+06 0 -3.5206e+06 4.40278e+06 0 -3.54575e+06 4.50332e+06 0 -3.56828e+06 4.60982e+06 0 -3.58764e+06 4.72258e+06 0 -3.60317e+06 4.84189e+06 0 -3.61413e+06 4.96803e+06 0 -3.61967e+06 5.10122e+06 0 -3.61884e+06 5.24165e+06 0 -3.61057e+06 5.38944e+06 0 -3.59366e+06 5.5446e+06 0 -3.56677e+06 5.70705e+06 0 -3.52843e+06 5.87654e+06 0 -3.47705e+06 6.05264e+06 0 -3.4109e+06 6.23468e+06 0 -3.32812e+06 6.42174e+06 0 -3.2268e+06 6.61254e+06 0 -3.10496e+06 6.80543e+06 0 -2.96063e+06 6.99827e+06 0 -2.79195e+06 7.18855e+06 0 -2.59706e+06 7.37274e+06 0 -3.05914e+06 3.59216e+06 0 -3.09089e+06 3.64566e+06 0 -3.12285e+06 3.70212e+06 0 -3.15491e+06 3.76173e+06 0 -3.18696e+06 3.82473e+06 0 -3.21886e+06 3.89133e+06 0 -3.25043e+06 3.96178e+06 0 -3.28147e+06 4.03634e+06 0 -3.31175e+06 4.11528e+06 0 -3.341e+06 4.19889e+06 0 -3.36889e+06 4.28744e+06 0 -3.39504e+06 4.38126e+06 0 -3.41903e+06 4.48063e+06 0 -3.44036e+06 4.58586e+06 0 -3.45845e+06 4.69724e+06 0 -3.47264e+06 4.81506e+06 0 -3.48218e+06 4.93957e+06 0 -3.48622e+06 5.07098e+06 0 -3.4838e+06 5.20947e+06 0 -3.47383e+06 5.35511e+06 0 -3.45509e+06 5.50791e+06 0 -3.42625e+06 5.66772e+06 0 -3.38583e+06 5.83426e+06 0 -3.33222e+06 6.00705e+06 0 -3.26368e+06 6.18535e+06 0 -3.17838e+06 6.36816e+06 0 -3.0744e+06 6.55409e+06 0 -2.94979e+06 6.7414e+06 0 -2.80264e+06 6.92786e+06 0 -2.63111e+06 7.1107e+06 0 -2.4336e+06 7.28669e+06 0 -2.20869e+06 7.45155e+06 0 -2.97746e+06 3.62476e+06 0 -3.00875e+06 3.68054e+06 0 -3.04013e+06 3.73942e+06 0 -3.07149e+06 3.80162e+06 0 -3.10269e+06 3.86736e+06 0 -3.13356e+06 3.93689e+06 0 -3.16391e+06 4.01044e+06 0 -3.19348e+06 4.08831e+06 0 -3.22202e+06 4.17074e+06 0 -3.2492e+06 4.25805e+06 0 -3.27464e+06 4.35051e+06 0 -3.29791e+06 4.44844e+06 0 -3.31851e+06 4.55211e+06 0 -3.33587e+06 4.66183e+06 0 -3.34932e+06 4.77786e+06 0 -3.35811e+06 4.90046e+06 0 -3.36139e+06 5.02982e+06 0 -3.35819e+06 5.16609e+06 0 -3.34742e+06 5.30935e+06 0 -3.32787e+06 5.45958e+06 0 -3.29818e+06 5.6166e+06 0 -3.25689e+06 5.78011e+06 0 -3.20237e+06 5.94958e+06 0 -3.13289e+06 6.12423e+06 0 -3.04663e+06 6.30299e+06 0 -2.94168e+06 6.48444e+06 0 -2.81611e+06 6.66673e+06 0 -2.66804e+06 6.84755e+06 0 -2.49569e+06 7.02405e+06 0 -2.29751e+06 7.19279e+06 0 -2.07229e+06 7.34978e+06 0 -1.81925e+06 7.49006e+06 0 -2.89733e+06 3.65262e+06 0 -2.92818e+06 3.71062e+06 0 -2.95902e+06 3.77186e+06 0 -2.98971e+06 3.83658e+06 0 -3.02009e+06 3.90501e+06 0 -3.04996e+06 3.97738e+06 0 -3.07909e+06 4.05397e+06 0 -3.1072e+06 4.13504e+06 0 -3.13398e+06 4.22087e+06 0 -3.15906e+06 4.31177e+06 0 -3.18201e+06 4.40801e+06 0 -3.20232e+06 4.50989e+06 0 -3.21943e+06 4.6177e+06 0 -3.23268e+06 4.73171e+06 0 -3.24132e+06 4.85215e+06 0 -3.24451e+06 4.97922e+06 0 -3.24127e+06 5.11308e+06 0 -3.23052e+06 5.25377e+06 0 -3.21105e+06 5.40128e+06 0 -3.18152e+06 5.55541e+06 0 -3.14045e+06 5.71585e+06 0 -3.08623e+06 5.88204e+06 0 -3.01713e+06 6.05318e+06 0 -2.93133e+06 6.22817e+06 0 -2.82694e+06 6.40555e+06 0 -2.70204e+06 6.58341e+06 0 -2.55476e+06 6.7594e+06 0 -2.38337e+06 6.93059e+06 0 -2.18637e+06 7.09348e+06 0 -1.96259e+06 7.24393e+06 0 -1.71143e+06 7.3772e+06 0 -1.43289e+06 7.48767e+06 0 -2.81896e+06 3.67611e+06 0 -2.84941e+06 3.73628e+06 0 -2.87974e+06 3.79984e+06 0 -2.9098e+06 3.86703e+06 0 -2.93939e+06 3.93808e+06 0 -2.96829e+06 4.01324e+06 0 -2.99623e+06 4.09278e+06 0 -3.02289e+06 4.17698e+06 0 -3.04792e+06 4.26612e+06 0 -3.07088e+06 4.36049e+06 0 -3.09129e+06 4.46039e+06 0 -3.10858e+06 4.56609e+06 0 -3.12211e+06 4.67787e+06 0 -3.13113e+06 4.79596e+06 0 -3.13481e+06 4.92056e+06 0 -3.13218e+06 5.05182e+06 0 -3.12219e+06 5.1898e+06 0 -3.10361e+06 5.33446e+06 0 -3.07513e+06 5.48564e+06 0 -3.03527e+06 5.64299e+06 0 -2.98242e+06 5.80597e+06 0 -2.91488e+06 5.97377e+06 0 -2.83081e+06 6.14527e+06 0 -2.72835e+06 6.319e+06 0 -2.60557e+06 6.49304e+06 0 -2.46063e+06 6.66499e+06 0 -2.2918e+06 6.8319e+06 0 -2.0976e+06 6.99023e+06 0 -1.8769e+06 7.13577e+06 0 -1.62913e+06 7.26371e+06 0 -1.35439e+06 7.36851e+06 0 -1.05374e+06 7.44412e+06 0 -2.74253e+06 3.69559e+06 0 -2.77259e+06 3.7579e+06 0 -2.80245e+06 3.82375e+06 0 -2.83192e+06 3.89337e+06 0 -2.86077e+06 3.967e+06 0 -2.88875e+06 4.04489e+06 0 -2.91553e+06 4.12732e+06 0 -2.94077e+06 4.21457e+06 0 -2.96404e+06 4.30693e+06 0 -2.98488e+06 4.40468e+06 0 -3.00273e+06 4.50811e+06 0 -3.01694e+06 4.61748e+06 0 -3.0268e+06 4.73306e+06 0 -3.03149e+06 4.85503e+06 0 -3.03005e+06 4.98354e+06 0 -3.02144e+06 5.11868e+06 0 -3.00446e+06 5.26042e+06 0 -2.97781e+06 5.40858e+06 0 -2.94001e+06 5.56285e+06 0 -2.8895e+06 5.72269e+06 0 -2.82455e+06 5.8873e+06 0 -2.74335e+06 6.05558e+06 0 -2.64403e+06 6.22605e+06 0 -2.52468e+06 6.39683e+06 0 -2.38345e+06 6.5655e+06 0 -2.2186e+06 6.7291e+06 0 -2.02865e+06 6.88408e+06 0 -1.81248e+06 7.02622e+06 0 -1.5695e+06 7.15061e+06 0 -1.29984e+06 7.25181e+06 0 -1.00452e+06 7.32349e+06 0 -685904 7.35961e+06 0 -2.66811e+06 3.71134e+06 0 -2.6978e+06 3.77581e+06 0 -2.72726e+06 3.84396e+06 0 -2.7562e+06 3.91599e+06 0 -2.78437e+06 3.99216e+06 0 -2.81147e+06 4.07273e+06 0 -2.83714e+06 4.15799e+06 0 -2.86098e+06 4.24822e+06 0 -2.88253e+06 4.3437e+06 0 -2.90124e+06 4.44473e+06 0 -2.9165e+06 4.55158e+06 0 -2.92759e+06 4.66449e+06 0 -2.93371e+06 4.7837e+06 0 -2.93395e+06 4.90935e+06 0 -2.92726e+06 5.04153e+06 0 -2.91249e+06 5.18025e+06 0 -2.88833e+06 5.32534e+06 0 -2.85336e+06 5.47652e+06 0 -2.806e+06 5.63327e+06 0 -2.74455e+06 5.79482e+06 0 -2.66721e+06 5.96011e+06 0 -2.57211e+06 6.12769e+06 0 -2.45734e+06 6.29569e+06 0 -2.32104e+06 6.46175e+06 0 -2.16144e+06 6.62292e+06 0 -1.97705e+06 6.77567e+06 0 -1.76671e+06 6.91576e+06 0 -1.52979e+06 7.03831e+06 0 -1.26635e+06 7.13772e+06 0 -977397 7.20803e+06 0 -664983 7.24224e+06 0 -333415 7.23566e+06 0 -2.59552e+06 3.72351e+06 0 -2.62507e+06 3.79042e+06 0 -2.65423e+06 3.86086e+06 0 -2.68273e+06 3.93527e+06 0 -2.71028e+06 4.01395e+06 0 -2.73656e+06 4.09716e+06 0 -2.76117e+06 4.18519e+06 0 -2.78365e+06 4.27833e+06 0 -2.80349e+06 4.37686e+06 0 -2.82008e+06 4.48108e+06 0 -2.83273e+06 4.59123e+06 0 -2.84065e+06 4.70755e+06 0 -2.84296e+06 4.83022e+06 0 -2.83865e+06 4.95936e+06 0 -2.82658e+06 5.09497e+06 0 -2.80549e+06 5.23695e+06 0 -2.77397e+06 5.38502e+06 0 -2.73046e+06 5.53872e+06 0 -2.67329e+06 5.69732e+06 0 -2.60067e+06 5.8598e+06 0 -2.51072e+06 6.02477e+06 0 -2.40154e+06 6.19042e+06 0 -2.27124e+06 6.35444e+06 0 -2.11804e+06 6.51394e+06 0 -1.94038e+06 6.66542e+06 0 -1.73705e+06 6.80469e+06 0 -1.50734e+06 6.92686e+06 0 -1.25121e+06 7.02637e+06 0 -969501 7.09705e+06 0 -664104 7.13253e+06 0 -338578 7.12609e+06 0 -5.96046e-07 7.07689e+06 0 </DataArray> 
</PointData> 
<Points> 
<DataArray type="Float32" NumberOfComponents="3"> 