<?xml version="1.0"?> 
<VTKFile type="StructuredGrid" version="0.1"> 
<StructuredGrid WholeExtent="0 31 0 31 0 0"> 
<Piece Extent="0 31 0 31 0 0"> 
<PointData>
<DataArray type="Float32" Name="|E|" format="ascii" NumberOfComponents="3"> 
-2.13399e+06 0 0 -2.13552e+06 0.000453704 0 -2.14002e+06 0.000912846 0 -2.14751e+06 0.001383 0 -2.15801e+06 0.00186908 0 -2.17158e+06 0.0023758 0 -2.18825e+06 0.00290731 0 -2.20809e+06 0.00346631 0 -2.23118e+06 0.00405402 0 -2.25761e+06 0.0046679 0 -2.28749e+06 0.00529993 0 -2.32093e+06 0.00593334 0 -2.35807e+06 0.00653754 0 -2.39906e+06 0.007061 0 -2.44406e+06 0.00741986 0 -2.49325e+06 0.00747989 0 -2.54681e+06 0.00703476 0 -2.6049e+06 0.00577086 0 -2.66769e+06 0.00322096 0 -2.73529e+06 -0.00128812 0 -2.8077e+06 -0.00869471 0 -2.88482e+06 -0.0202272 0 -2.9663e+06 -0.0373417 0 -3.05145e+06 -0.0614483 0 -3.1391e+06 -0.0932375 0 -3.22739e+06 -0.131387 0 -3.31366e+06 -0.170722 0 -3.39429e+06 -0.200814 0 -3.46482e+06 -0.207123 0 -3.52031e+06 -0.176067 0 -3.5561e+06 -0.102888 0 -3.56872e+06 -4.76837e-07 0 -2.13396e+06 0 0 -2.13549e+06 396.108 0 -2.13999e+06 793.676 0 -2.14748e+06 1194.18 0 -2.15799e+06 1599.14 0 -2.17155e+06 2010.11 0 -2.18822e+06 2428.73 0 -2.20806e+06 2856.7 0 -2.23115e+06 3295.82 0 -2.25758e+06 3747.98 0 -2.28746e+06 4215.16 0 -2.3209e+06 4699.37 0 -2.35803e+06 5202.66 0 -2.39902e+06 5726.94 0 -2.44402e+06 6273.88 0 -2.49321e+06 6844.59 0 -2.54677e+06 7439.22 0 -2.60486e+06 8056.26 0 -2.66765e+06 8691.52 0 -2.73524e+06 9336.63 0 -2.80766e+06 9976.86 0 -2.88478e+06 10588.1 0 -2.96627e+06 11132.8 0 -3.05143e+06 11555.7 0 -3.13909e+06 11779.1 0 -3.22741e+06 11701 0 -3.31371e+06 11200.2 0 -3.39438e+06 10152.7 0 -3.46495e+06 8465.55 0 -3.52049e+06 6121.81 0 -3.55631e+06 3222.58 0 -3.56894e+06 -1.86265e-08 0 -2.13388e+06 0 0 -2.13541e+06 792.189 0 -2.13991e+06 1587.3 0 -2.1474e+06 2388.28 0 -2.15791e+06 3198.17 0 -2.17147e+06 4020.08 0 -2.18814e+06 4857.29 0 -2.20798e+06 5713.19 0 -2.23106e+06 6591.41 0 -2.25749e+06 7495.7 0 -2.28736e+06 8430.01 0 -2.3208e+06 9398.4 0 -2.35793e+06 10404.9 0 -2.39891e+06 11453.5 0 -2.44391e+06 12547.3 0 -2.4931e+06 13688.8 0 -2.54665e+06 14878 0 -2.60474e+06 16112.2 0 -2.66752e+06 17382.9 0 -2.73511e+06 18673.3 0 -2.80753e+06 19954.2 0 -2.88467e+06 21177.3 0 -2.96617e+06 22267.8 0 -3.05136e+06 23115 0 -3.13907e+06 23563.6 0 -3.22747e+06 23409.7 0 -3.31386e+06 22410.3 0 -3.39465e+06 20317.1 0 -3.46536e+06 16943.1 0 -3.52102e+06 12253.9 0 -3.55694e+06 6451.14 0 -3.56961e+06 5.21541e-08 0 -2.13375e+06 0 0 -2.13528e+06 1188.22 0 -2.13978e+06 2380.82 0 -2.14727e+06 3582.23 0 -2.15777e+06 4796.98 0 -2.17133e+06 6029.78 0 -2.18799e+06 7285.51 0 -2.20783e+06 8569.29 0 -2.23092e+06 9886.52 0 -2.25734e+06 11242.9 0 -2.2872e+06 12644.2 0 -2.32063e+06 14096.7 0 -2.35776e+06 15606.5 0 -2.39874e+06 17179.2 0 -2.44373e+06 18819.9 0 -2.4929e+06 20532 0 -2.54644e+06 22316 0 -2.60453e+06 24167.4 0 -2.66731e+06 26073.8 0 -2.7349e+06 28010.2 0 -2.80732e+06 29932.6 0 -2.88447e+06 31768.9 0 -2.966e+06 33407.1 0 -3.05125e+06 34681.4 0 -3.13904e+06 35358.9 0 -3.22755e+06 35133.6 0 -3.31411e+06 33640.3 0 -3.3951e+06 30504.9 0 -3.46603e+06 25444.8 0 -3.52191e+06 18406.4 0 -3.55798e+06 9691.7 0 -3.57071e+06 -2.68221e-07 0 -2.13357e+06 0 0 -2.1351e+06 1584.17 0 -2.13959e+06 3174.17 0 -2.14708e+06 4775.93 0 -2.15758e+06 6395.47 0 -2.17114e+06 8039.07 0 -2.1878e+06 9713.23 0 -2.20763e+06 11424.8 0 -2.23071e+06 13180.9 0 -2.25712e+06 14989.2 0 -2.28698e+06 16857.6 0 -2.3204e+06 18794.1 0 -2.35752e+06 20806.8 0 -2.39849e+06 22903.7 0 -2.44346e+06 25091.2 0 -2.49263e+06 27374 0 -2.54616e+06 29752.8 0 -2.60424e+06 32221.7 0 -2.66701e+06 34764.2 0 -2.7346e+06 37347.2 0 -2.80703e+06 39912.4 0 -2.8842e+06 42363.9 0 -2.96577e+06 44552.8 0 -3.05109e+06 46258.4 0 -3.139e+06 47170.3 0 -3.22768e+06 46880.2 0 -3.31446e+06 44899.7 0 -3.39573e+06 40727.4 0 -3.46698e+06 33982.5 0 -3.52315e+06 24589.6 0 -3.55945e+06 12950.2 0 -3.57226e+06 5.81145e-07 0 -2.13333e+06 0 0 -2.13486e+06 1980.01 0 -2.13935e+06 3967.32 0 -2.14684e+06 5969.31 0 -2.15734e+06 7993.54 0 -2.17089e+06 10047.8 0 -2.18754e+06 12140.3 0 -2.20737e+06 14279.5 0 -2.23044e+06 16474.4 0 -2.25685e+06 18734.5 0 -2.2867e+06 21069.7 0 -2.32011e+06 23490 0 -2.35721e+06 26005.7 0 -2.39817e+06 28626.5 0 -2.44313e+06 31360.8 0 -2.49228e+06 34214.3 0 -2.5458e+06 37188 0 -2.60386e+06 40274.6 0 -2.66662e+06 43453.8 0 -2.73421e+06 46684.6 0 -2.80665e+06 49894.2 0 -2.88384e+06 52963.5 0 -2.96547e+06 55707 0 -3.05088e+06 57849.4 0 -3.13894e+06 59003 0 -3.22783e+06 58657 0 -3.31491e+06 56198.5 0 -3.39655e+06 50996.3 0 -3.46819e+06 42568.1 0 -3.52475e+06 30813.7 0 -3.56134e+06 16232.7 0 -3.57426e+06 -6.70552e-07 0 -2.13304e+06 0 0 -2.13457e+06 2375.73 0 -2.13906e+06 4760.21 0 -2.14654e+06 7162.3 0 -2.15704e+06 9591.06 0 -2.17058e+06 12055.9 0 -2.18723e+06 14566.5 0 -2.20705e+06 17133.2 0 -2.23011e+06 19766.7 0 -2.25651e+06 22478.5 0 -2.28635e+06 25280.3 0 -2.31974e+06 28184.3 0 -2.35684e+06 31202.7 0 -2.39777e+06 34347.4 0 -2.44272e+06 37628.3 0 -2.49185e+06 41052.4 0 -2.54535e+06 44621.1 0 -2.6034e+06 48325.8 0 -2.66615e+06 52142.5 0 -2.73373e+06 56022.2 0 -2.80619e+06 59878.4 0 -2.88341e+06 63568.8 0 -2.96511e+06 66871.8 0 -3.05063e+06 69457.8 0 -3.13886e+06 70862.3 0 -3.22802e+06 70471.3 0 -3.31546e+06 67546.4 0 -3.39754e+06 61323.3 0 -3.46968e+06 51214 0 -3.52672e+06 37089.3 0 -3.56365e+06 19545.3 0 -3.57671e+06 6.10948e-07 0 -2.1327e+06 0 0 -2.13422e+06 2771.29 0 -2.13872e+06 5552.79 0 -2.14619e+06 8354.82 0 -2.15668e+06 11187.9 0 -2.17022e+06 14063.1 0 -2.18687e+06 16991.7 0 -2.20668e+06 19985.7 0 -2.22973e+06 23057.7 0 -2.25611e+06 26220.8 0 -2.28594e+06 29489 0 -2.31932e+06 32876.5 0 -2.35639e+06 36397.5 0 -2.39731e+06 40065.8 0 -2.44224e+06 43893.2 0 -2.49135e+06 47888 0 -2.54483e+06 52051.8 0 -2.60285e+06 56375 0 -2.6656e+06 60830 0 -2.73317e+06 65360.1 0 -2.80564e+06 69865.4 0 -2.8829e+06 74180.9 0 -2.96467e+06 78049.1 0 -3.05033e+06 81087 0 -3.13877e+06 82753.3 0 -3.22824e+06 82330.7 0 -3.3161e+06 78953.3 0 -3.3987e+06 71720.2 0 -3.47144e+06 59932.5 0 -3.52904e+06 43427.1 0 -3.5664e+06 22894.6 0 -3.57961e+06 -3.8743e-07 0 -2.1323e+06 0 0 -2.13383e+06 3166.67 0 -2.13832e+06 6345 0 -2.14579e+06 9546.78 0 -2.15628e+06 12784.1 0 -2.16981e+06 16069.4 0 -2.18644e+06 19415.8 0 -2.20624e+06 22836.8 0 -2.22928e+06 26347 0 -2.25565e+06 29961.3 0 -2.28546e+06 33695.7 0 -2.31882e+06 37566.3 0 -2.35588e+06 41589.6 0 -2.39677e+06 45781.3 0 -2.44168e+06 50155.1 0 -2.49076e+06 54720.5 0 -2.54422e+06 59479.6 0 -2.60223e+06 64421.8 0 -2.66495e+06 69516 0 -2.73253e+06 74698.4 0 -2.805e+06 79855.7 0 -2.88231e+06 84800.7 0 -2.96417e+06 89240.9 0 -3.04998e+06 92740.4 0 -3.13866e+06 94681.3 0 -3.22848e+06 94242.7 0 -3.31683e+06 90429.1 0 -3.40005e+06 82199 0 -3.47347e+06 68736.3 0 -3.53173e+06 49838 0 -3.56957e+06 26287 0 -3.58298e+06 2.08616e-07 0 -2.13185e+06 0 0 -2.13338e+06 3561.84 0 -2.13787e+06 7136.79 0 -2.14534e+06 10738.1 0 -2.15581e+06 14379.4 0 -2.16934e+06 18074.6 0 -2.18597e+06 21838.5 0 -2.20575e+06 25686.4 0 -2.22878e+06 29634.4 0 -2.25513e+06 33699.7 0 -2.28492e+06 37899.9 0 -2.31826e+06 42253.4 0 -2.3553e+06 46778.8 0 -2.39617e+06 51493.7 0 -2.44104e+06 56413.6 0 -2.4901e+06 61549.5 0 -2.54353e+06 66904.1 0 -2.60151e+06 72465.9 0 -2.66422e+06 78200.5 0 -2.73179e+06 84037.1 0 -2.80428e+06 89849.5 0 -2.88163e+06 95429.2 0 -2.96359e+06 100449 0 -3.04957e+06 104421 0 -3.13853e+06 106651 0 -3.22876e+06 106215 0 -3.31765e+06 101984 0 -3.40157e+06 92771.9 0 -3.47577e+06 77638.3 0 -3.53478e+06 56333.5 0 -3.57319e+06 29729.5 0 -3.58682e+06 -3.27826e-07 0 -2.13135e+06 0 0 -2.13288e+06 3956.78 0 -2.13736e+06 7928.12 0 -2.14483e+06 11928.7 0 -2.1553e+06 15973.7 0 -2.16882e+06 20078.6 0 -2.18543e+06 24259.7 0 -2.2052e+06 28534.2 0 -2.22822e+06 32919.8 0 -2.25455e+06 37435.6 0 -2.28432e+06 42101.4 0 -2.31764e+06 46937.5 0 -2.35465e+06 51964.6 0 -2.39549e+06 57202.3 0 -2.44034e+06 62668.2 0 -2.48937e+06 68374.6 0 -2.54276e+06 74324.9 0 -2.60072e+06 80506.8 0 -2.66341e+06 86883 0 -2.73097e+06 93376 0 -2.80347e+06 99847.4 0 -2.88088e+06 106067 0 -2.96294e+06 111676 0 -3.04911e+06 116133 0 -3.13837e+06 118669 0 -3.22905e+06 118254 0 -3.31857e+06 113627 0 -3.40326e+06 103451 0 -3.47834e+06 86651.8 0 -3.53821e+06 62925.3 0 -3.57726e+06 33229 0 -3.59113e+06 3.57628e-07 0 -2.1308e+06 0 0 -2.13232e+06 4351.46 0 -2.1368e+06 8718.92 0 -2.14426e+06 13118.6 0 -2.15473e+06 17567 0 -2.16824e+06 22081.3 0 -2.18484e+06 26679.3 0 -2.2046e+06 31379.9 0 -2.22759e+06 36202.9 0 -2.25391e+06 41168.9 0 -2.28366e+06 46299.8 0 -2.31695e+06 51618.2 0 -2.35393e+06 57146.6 0 -2.39474e+06 62906.9 0 -2.43955e+06 68918.6 0 -2.48855e+06 75195.4 0 -2.54191e+06 81741.5 0 -2.59984e+06 88544.3 0 -2.6625e+06 95563.4 0 -2.73005e+06 102715 0 -2.80258e+06 109849 0 -2.88004e+06 116716 0 -2.96222e+06 122923 0 -3.0486e+06 127878 0 -3.13819e+06 130738 0 -3.22936e+06 130368 0 -3.31956e+06 125370 0 -3.40513e+06 114249 0 -3.48119e+06 95790.3 0 -3.54201e+06 69625.4 0 -3.58178e+06 36793.1 0 -3.59593e+06 8.9407e-08 0 -2.13019e+06 0 0 -2.13172e+06 4745.86 0 -2.13619e+06 9509.16 0 -2.14365e+06 14307.5 0 -2.1541e+06 19159 0 -2.1676e+06 24082.4 0 -2.18419e+06 29097.1 0 -2.20394e+06 34223.6 0 -2.22691e+06 39483.4 0 -2.25321e+06 44899.3 0 -2.28293e+06 50495 0 -2.31619e+06 56295.1 0 -2.35314e+06 62324.5 0 -2.39392e+06 68607.1 0 -2.4387e+06 75164.2 0 -2.48766e+06 82011.3 0 -2.54098e+06 89153.6 0 -2.59887e+06 96577.8 0 -2.66151e+06 104241 0 -2.72905e+06 112055 0 -2.80159e+06 119856 0 -2.87912e+06 127377 0 -2.96142e+06 134191 0 -3.04803e+06 139660 0 -3.13798e+06 142864 0 -3.22969e+06 142564 0 -3.32064e+06 137222 0 -3.40716e+06 125179 0 -3.48431e+06 105068 0 -3.54619e+06 76446.7 0 -3.58677e+06 40429.6 0 -3.60123e+06 -5.96046e-08 0 -2.12954e+06 0 0 -2.13106e+06 5139.95 0 -2.13553e+06 10298.8 0 -2.14298e+06 15495.6 0 -2.15343e+06 20749.9 0 -2.16691e+06 26081.9 0 -2.18349e+06 31512.9 0 -2.20321e+06 37064.8 0 -2.22617e+06 42761.1 0 -2.25244e+06 48626.4 0 -2.28214e+06 54686.5 0 -2.31537e+06 60967.9 0 -2.35229e+06 67497.8 0 -2.39303e+06 74302.3 0 -2.43777e+06 81404.6 0 -2.48668e+06 88822 0 -2.53997e+06 96560.5 0 -2.59782e+06 104607 0 -2.66043e+06 112916 0 -2.72796e+06 121394 0 -2.80052e+06 129868 0 -2.87811e+06 138049 0 -2.96055e+06 145483 0 -3.0474e+06 151481 0 -3.13774e+06 155052 0 -3.23004e+06 154849 0 -3.3218e+06 149193 0 -3.40936e+06 136253 0 -3.4877e+06 114499 0 -3.55075e+06 83402.2 0 -3.59222e+06 44146.8 0 -3.60703e+06 -1.19209e-07 0 -2.12882e+06 0 0 -2.13034e+06 5533.7 0 -2.13481e+06 11087.7 0 -2.14226e+06 16682.6 0 -2.15269e+06 22339.3 0 -2.16617e+06 28079.7 0 -2.18273e+06 33926.5 0 -2.20244e+06 39903.5 0 -2.22537e+06 46035.9 0 -2.25162e+06 52350.1 0 -2.28128e+06 58874 0 -2.31449e+06 65636.4 0 -2.35136e+06 72666.4 0 -2.39207e+06 79992.3 0 -2.43676e+06 87639.4 0 -2.48563e+06 95627 0 -2.53888e+06 103962 0 -2.59669e+06 112631 0 -2.65927e+06 121588 0 -2.72678e+06 130733 0 -2.79936e+06 139884 0 -2.87701e+06 148735 0 -2.9596e+06 156800 0 -3.0467e+06 163346 0 -3.13747e+06 167306 0 -3.23039e+06 167231 0 -3.32304e+06 161294 0 -3.41173e+06 147486 0 -3.49137e+06 124099 0 -3.5557e+06 90505.8 0 -3.59816e+06 47953.6 0 -3.61335e+06 1.19209e-07 0 -2.12806e+06 0 0 -2.12958e+06 5927.09 0 -2.13405e+06 11875.9 0 -2.14148e+06 17868.5 0 -2.15191e+06 23927.2 0 -2.16537e+06 30075.6 0 -2.18191e+06 36337.8 0 -2.2016e+06 42739.4 0 -2.22451e+06 49307.4 0 -2.25073e+06 56070.1 0 -2.28037e+06 63057.4 0 -2.31354e+06 70300.1 0 -2.35037e+06 77829.6 0 -2.39103e+06 85676.5 0 -2.43568e+06 93868.2 0 -2.48451e+06 102426 0 -2.5377e+06 111357 0 -2.59547e+06 120651 0 -2.65802e+06 130257 0 -2.72552e+06 140072 0 -2.7981e+06 149905 0 -2.87583e+06 159434 0 -2.95857e+06 168144 0 -3.04594e+06 175255 0 -3.13715e+06 179632 0 -3.23075e+06 179717 0 -3.32434e+06 173535 0 -3.41426e+06 158890 0 -3.49532e+06 133883 0 -3.56105e+06 97772.1 0 -3.60458e+06 51859.4 0 -3.62021e+06 -1.19209e-07 0 -2.12725e+06 0 0 -2.12876e+06 6320.1 0 -2.13322e+06 12663.4 0 -2.14065e+06 19053.2 0 -2.15107e+06 25513.6 0 -2.16451e+06 32069.5 0 -2.18104e+06 38746.6 0 -2.20071e+06 45572.4 0 -2.22359e+06 52575.5 0 -2.24979e+06 59786.1 0 -2.27939e+06 67236.1 0 -2.31252e+06 74958.7 0 -2.34932e+06 82987.2 0 -2.38993e+06 91354.6 0 -2.43453e+06 100090 0 -2.4833e+06 109218 0 -2.53645e+06 118746 0 -2.59417e+06 128664 0 -2.65667e+06 138922 0 -2.72416e+06 149411 0 -2.79676e+06 159932 0 -2.87455e+06 170147 0 -2.95745e+06 179516 0 -3.04511e+06 187213 0 -3.13679e+06 192033 0 -3.2311e+06 192314 0 -3.32571e+06 185927 0 -3.41694e+06 170480 0 -3.49954e+06 143867 0 -3.56679e+06 105216 0 -3.61152e+06 55874.3 0 -3.62762e+06 -5.96046e-08 0 -2.12638e+06 0 0 -2.12789e+06 6712.7 0 -2.13235e+06 13450 0 -2.13977e+06 20236.7 0 -2.15017e+06 27098.3 0 -2.16361e+06 34061.2 0 -2.18011e+06 41152.9 0 -2.19976e+06 48402.3 0 -2.22262e+06 55839.8 0 -2.24878e+06 63497.8 0 -2.27835e+06 71410.1 0 -2.31144e+06 79611.8 0 -2.34819e+06 88138.8 0 -2.38875e+06 97026.1 0 -2.4333e+06 106306 0 -2.48202e+06 116003 0 -2.53511e+06 126129 0 -2.59278e+06 136672 0 -2.65524e+06 147582 0 -2.7227e+06 158748 0 -2.79532e+06 169963 0 -2.87319e+06 180875 0 -2.95625e+06 190916 0 -3.04421e+06 199221 0 -3.13638e+06 204514 0 -3.23145e+06 205028 0 -3.32713e+06 198480 0 -3.41978e+06 182270 0 -3.50403e+06 154068 0 -3.57294e+06 112855 0 -3.61897e+06 60009.2 0 -3.63559e+06 1.19209e-07 0 -2.12546e+06 0 0 -2.12697e+06 7104.86 0 -2.13142e+06 14235.7 0 -2.13883e+06 21418.8 0 -2.14923e+06 28681.1 0 -2.16264e+06 36050.6 0 -2.17913e+06 43556.3 0 -2.19875e+06 51228.7 0 -2.22158e+06 59100.3 0 -2.24771e+06 67205.1 0 -2.27724e+06 75578.9 0 -2.31029e+06 84259.2 0 -2.34699e+06 93284 0 -2.38751e+06 102691 0 -2.432e+06 112514 0 -2.48066e+06 122780 0 -2.53369e+06 133503 0 -2.5913e+06 144673 0 -2.65372e+06 156238 0 -2.72116e+06 168085 0 -2.79379e+06 180000 0 -2.87173e+06 191617 0 -2.95496e+06 202347 0 -3.04323e+06 211281 0 -3.13592e+06 217079 0 -3.23179e+06 217868 0 -3.32861e+06 211205 0 -3.42277e+06 194275 0 -3.5088e+06 164504 0 -3.57951e+06 120704 0 -3.62695e+06 64275.7 0 -3.64415e+06 -5.96046e-08 0 -2.12448e+06 0 0 -2.12599e+06 7496.55 0 -2.13044e+06 15020.5 0 -2.13784e+06 22599.6 0 -2.14822e+06 30262.1 0 -2.16162e+06 38037.6 0 -2.17809e+06 45956.7 0 -2.19769e+06 54051.7 0 -2.22049e+06 62356.6 0 -2.24658e+06 70907.5 0 -2.27607e+06 79742.3 0 -2.30908e+06 88900.4 0 -2.34573e+06 98422.4 0 -2.38619e+06 108348 0 -2.43062e+06 118714 0 -2.47922e+06 129549 0 -2.53219e+06 140870 0 -2.58974e+06 152666 0 -2.65212e+06 164889 0 -2.71953e+06 177420 0 -2.79217e+06 190042 0 -2.87018e+06 202375 0 -2.95358e+06 213809 0 -3.04218e+06 223397 0 -3.13541e+06 229733 0 -3.23211e+06 230839 0 -3.33014e+06 224113 0 -3.4259e+06 206510 0 -3.51384e+06 175193 0 -3.58649e+06 128782 0 -3.63547e+06 68686.9 0 -3.65332e+06 -1.78814e-07 0 -2.12346e+06 0 0 -2.12497e+06 7887.77 0 -2.12941e+06 15804.3 0 -2.1368e+06 23778.8 0 -2.14717e+06 31841.1 0 -2.16055e+06 40022.1 0 -2.177e+06 48354 0 -2.19657e+06 56870.9 0 -2.21934e+06 65608.6 0 -2.24539e+06 74605 0 -2.27484e+06 83899.9 0 -2.3078e+06 93535.2 0 -2.3444e+06 103554 0 -2.3848e+06 113997 0 -2.42917e+06 124905 0 -2.47771e+06 136309 0 -2.53061e+06 148228 0 -2.5881e+06 160652 0 -2.65042e+06 173534 0 -2.7178e+06 186754 0 -2.79045e+06 200088 0 -2.86853e+06 213149 0 -2.95211e+06 225304 0 -3.04104e+06 235569 0 -3.13483e+06 242478 0 -3.2324e+06 243948 0 -3.3317e+06 237214 0 -3.42917e+06 218990 0 -3.51916e+06 186155 0 -3.5939e+06 137109 0 -3.64456e+06 73256.6 0 -3.66312e+06 5.96046e-08 0 -2.12238e+06 0 0 -2.12389e+06 8278.47 0 -2.12833e+06 16587.1 0 -2.13571e+06 24956.5 0 -2.14606e+06 33418 0 -2.15942e+06 42003.9 0 -2.17585e+06 50748.1 0 -2.19539e+06 59686.3 0 -2.21813e+06 68856 0 -2.24415e+06 78297.1 0 -2.27355e+06 88051.5 0 -2.30646e+06 98163.2 0 -2.34301e+06 108677 0 -2.38335e+06 119638 0 -2.42765e+06 131088 0 -2.47611e+06 143061 0 -2.52894e+06 155577 0 -2.58637e+06 168630 0 -2.64863e+06 182172 0 -2.71597e+06 196085 0 -2.78863e+06 210139 0 -2.86679e+06 223938 0 -2.95054e+06 236831 0 -3.03981e+06 247800 0 -3.13418e+06 255318 0 -3.23266e+06 257202 0 -3.3333e+06 250519 0 -3.43257e+06 231732 0 -3.52475e+06 197408 0 -3.60174e+06 145704 0 -3.65423e+06 78000.2 0 -3.67359e+06 1.19209e-07 0 -2.12125e+06 0 0 -2.12276e+06 8668.64 0 -2.12719e+06 17368.9 0 -2.13456e+06 26132.6 0 -2.1449e+06 34992.6 0 -2.15824e+06 43982.8 0 -2.17464e+06 53138.7 0 -2.19415e+06 62497.5 0 -2.21686e+06 72098.5 0 -2.24284e+06 81983.6 0 -2.2722e+06 92196.8 0 -2.30505e+06 102784 0 -2.34154e+06 113793 0 -2.38182e+06 125271 0 -2.42605e+06 137261 0 -2.47444e+06 149802 0 -2.5272e+06 162916 0 -2.58455e+06 176599 0 -2.64675e+06 190805 0 -2.71406e+06 205413 0 -2.78671e+06 220194 0 -2.86494e+06 234742 0 -2.94887e+06 248391 0 -3.03849e+06 260091 0 -3.13345e+06 268258 0 -3.23288e+06 270608 0 -3.33492e+06 264038 0 -3.4361e+06 244752 0 -3.53062e+06 208975 0 -3.61002e+06 154589 0 -3.6645e+06 82934.7 0 -3.68474e+06 0 0 -2.12007e+06 0 0 -2.12158e+06 9058.25 0 -2.126e+06 18149.5 0 -2.13336e+06 27307 0 -2.14368e+06 36565 0 -2.15701e+06 45958.9 0 -2.17338e+06 55525.7 0 -2.19286e+06 65304.4 0 -2.21553e+06 75336.1 0 -2.24147e+06 85664.4 0 -2.27078e+06 96335.4 0 -2.30358e+06 107397 0 -2.34001e+06 118900 0 -2.38022e+06 130894 0 -2.42438e+06 143425 0 -2.47269e+06 156534 0 -2.52537e+06 170245 0 -2.58265e+06 184559 0 -2.64478e+06 199429 0 -2.71204e+06 214738 0 -2.7847e+06 230253 0 -2.86299e+06 245562 0 -2.94711e+06 259985 0 -3.03708e+06 272444 0 -3.13265e+06 281299 0 -3.23305e+06 284170 0 -3.33655e+06 277784 0 -3.43974e+06 258067 0 -3.53675e+06 220878 0 -3.61876e+06 163786 0 -3.67538e+06 88078.9 0 -3.69661e+06 1.19209e-07 0 -2.11884e+06 0 0 -2.12034e+06 9447.27 0 -2.12476e+06 18928.9 0 -2.13211e+06 28479.6 0 -2.14241e+06 38134.9 0 -2.15572e+06 47931.8 0 -2.17206e+06 57909 0 -2.19151e+06 68106.8 0 -2.21414e+06 78568.3 0 -2.24004e+06 89339 0 -2.2693e+06 100467 0 -2.30205e+06 112003 0 -2.33841e+06 123999 0 -2.37855e+06 136508 0 -2.42264e+06 149578 0 -2.47087e+06 163254 0 -2.52346e+06 177564 0 -2.58066e+06 192509 0 -2.64272e+06 208046 0 -2.70993e+06 224059 0 -2.78258e+06 240315 0 -2.86094e+06 256397 0 -2.94523e+06 271614 0 -3.03556e+06 284860 0 -3.13176e+06 294446 0 -3.23317e+06 297895 0 -3.33818e+06 291765 0 -3.4435e+06 271694 0 -3.54316e+06 233140 0 -3.62795e+06 173320 0 -3.6869e+06 93453.8 0 -3.70926e+06 -5.96046e-08 0 -2.11756e+06 0 0 -2.11905e+06 9835.68 0 -2.12346e+06 19707.1 0 -2.1308e+06 29650.3 0 -2.14109e+06 39702.3 0 -2.15437e+06 49901.6 0 -2.17069e+06 60288.3 0 -2.19011e+06 70904.6 0 -2.2127e+06 81795.1 0 -2.23855e+06 93007.4 0 -2.26776e+06 104592 0 -2.30045e+06 116600 0 -2.33674e+06 129089 0 -2.37681e+06 142111 0 -2.42082e+06 155721 0 -2.46896e+06 169964 0 -2.52147e+06 184871 0 -2.57858e+06 200448 0 -2.64057e+06 216654 0 -2.70773e+06 233376 0 -2.78036e+06 250380 0 -2.85878e+06 267247 0 -2.94325e+06 283276 0 -3.03394e+06 297339 0 -3.13078e+06 307700 0 -3.23322e+06 311789 0 -3.33981e+06 305993 0 -3.44735e+06 285651 0 -3.54983e+06 245786 0 -3.63761e+06 183216 0 -3.69908e+06 99083.1 0 -3.72271e+06 5.96046e-08 0 -2.11622e+06 0 0 -2.11772e+06 10223.5 0 -2.12212e+06 20484 0 -2.12944e+06 30819.1 0 -2.13971e+06 41267.1 0 -2.15297e+06 51868.1 0 -2.16926e+06 62663.6 0 -2.18865e+06 73697.5 0 -2.2112e+06 85016.2 0 -2.237e+06 96669.1 0 -2.26616e+06 108708 0 -2.29878e+06 121189 0 -2.33501e+06 134169 0 -2.375e+06 147705 0 -2.41892e+06 161853 0 -2.46698e+06 176661 0 -2.51939e+06 192166 0 -2.57642e+06 208376 0 -2.63832e+06 225253 0 -2.70543e+06 242687 0 -2.77804e+06 260446 0 -2.85652e+06 278112 0 -2.94116e+06 294973 0 -3.03221e+06 309883 0 -3.12969e+06 321063 0 -3.2332e+06 325857 0 -3.34141e+06 320479 0 -3.45128e+06 299957 0 -3.55676e+06 258843 0 -3.64774e+06 193499 0 -3.71193e+06 104993 0 -3.73703e+06 -1.19209e-07 0 -2.11483e+06 0 0 -2.11632e+06 10610.6 0 -2.12072e+06 21259.6 0 -2.12803e+06 31985.9 0 -2.13829e+06 42829.2 0 -2.15152e+06 53831.1 0 -2.16778e+06 65034.6 0 -2.18713e+06 76485.3 0 -2.20964e+06 88231.3 0 -2.23539e+06 100324 0 -2.26449e+06 112818 0 -2.29705e+06 125769 0 -2.33321e+06 139239 0 -2.37312e+06 153287 0 -2.41696e+06 167972 0 -2.46492e+06 183347 0 -2.51724e+06 199449 0 -2.57417e+06 216292 0 -2.63599e+06 233842 0 -2.70302e+06 251992 0 -2.77562e+06 270515 0 -2.85414e+06 288989 0 -2.93896e+06 306703 0 -3.03037e+06 322492 0 -3.1285e+06 334538 0 -3.23309e+06 340104 0 -3.34298e+06 335233 0 -3.45529e+06 314630 0 -3.56395e+06 272338 0 -3.65837e+06 204199 0 -3.72547e+06 111215 0 -3.75227e+06 0 0 -2.11339e+06 0 0 -2.11488e+06 10997 0 -2.11927e+06 22033.9 0 -2.12657e+06 33150.6 0 -2.1368e+06 44388.5 0 -2.15001e+06 55790.5 0 -2.16625e+06 67401.3 0 -2.18556e+06 79267.9 0 -2.20802e+06 91440.4 0 -2.23373e+06 103972 0 -2.26277e+06 116918 0 -2.29526e+06 130340 0 -2.33134e+06 144299 0 -2.37117e+06 158858 0 -2.41492e+06 174080 0 -2.46278e+06 190019 0 -2.515e+06 206718 0 -2.57183e+06 224195 0 -2.63356e+06 242420 0 -2.70052e+06 261291 0 -2.77309e+06 280583 0 -2.85165e+06 299880 0 -2.93663e+06 318466 0 -3.0284e+06 335166 0 -3.12719e+06 348127 0 -3.23288e+06 354533 0 -3.34451e+06 350264 0 -3.45937e+06 329690 0 -3.57139e+06 286301 0 -3.66949e+06 215342 0 -3.73971e+06 117783 0 -3.76853e+06 -1.19209e-07 0 -2.1119e+06 0 0 -2.11339e+06 11382.8 0 -2.11777e+06 22806.7 0 -2.12505e+06 34313.2 0 -2.13527e+06 45944.9 0 -2.14845e+06 57746.2 0 -2.16465e+06 69763.4 0 -2.18393e+06 82045.1 0 -2.20635e+06 94643 0 -2.232e+06 107612 0 -2.26098e+06 121011 0 -2.2934e+06 134901 0 -2.32941e+06 149348 0 -2.36915e+06 164418 0 -2.4128e+06 180174 0 -2.46057e+06 196678 0 -2.51268e+06 213974 0 -2.5694e+06 232085 0 -2.63104e+06 250986 0 -2.69792e+06 270581 0 -2.77045e+06 290651 0 -2.84905e+06 310783 0 -2.93419e+06 330262 0 -3.02631e+06 347905 0 -3.12576e+06 361830 0 -3.23256e+06 369149 0 -3.34598e+06 365583 0 -3.46348e+06 345155 0 -3.57907e+06 300766 0 -3.68114e+06 226959 0 -3.75465e+06 124738 0 -3.78589e+06 1.19209e-07 0 -2.11036e+06 0 0 -2.11184e+06 11767.8 0 -2.11621e+06 23578.1 0 -2.12348e+06 35473.6 0 -2.13368e+06 47498.3 0 -2.14684e+06 59698.1 0 -2.16301e+06 72120.9 0 -2.18224e+06 84816.7 0 -2.20462e+06 97839.1 0 -2.23021e+06 111245 0 -2.25913e+06 125095 0 -2.29149e+06 139453 0 -2.32741e+06 154387 0 -2.36706e+06 169965 0 -2.41062e+06 186256 0 -2.45828e+06 203322 0 -2.51028e+06 221215 0 -2.56689e+06 239960 0 -2.62842e+06 259540 0 -2.69522e+06 279863 0 -2.76771e+06 300717 0 -2.84634e+06 321696 0 -2.93162e+06 342090 0 -3.02409e+06 360709 0 -3.1242e+06 375648 0 -3.23213e+06 383956 0 -3.34737e+06 381200 0 -3.46763e+06 361045 0 -3.58698e+06 315766 0 -3.69333e+06 239079 0 -3.7703e+06 132126 0 -3.80447e+06 -2.38419e-07 0 -2.10877e+06 0 0 -2.11025e+06 12152 0 -2.11461e+06 24347.9 0 -2.12187e+06 36631.6 0 -2.13204e+06 49048.6 0 -2.14517e+06 61646.1 0 -2.16131e+06 74473.4 0 -2.1805e+06 87582.5 0 -2.20283e+06 101028 0 -2.22837e+06 114870 0 -2.25722e+06 129170 0 -2.2895e+06 143994 0 -2.32535e+06 159413 0 -2.3649e+06 175499 0 -2.40836e+06 192323 0 -2.45591e+06 209952 0 -2.5078e+06 228441 0 -2.56429e+06 247821 0 -2.62571e+06 268081 0 -2.69242e+06 289136 0 -2.76485e+06 310781 0 -2.8435e+06 332620 0 -2.92892e+06 353947 0 -3.02173e+06 373577 0 -3.12249e+06 389582 0 -3.23156e+06 398957 0 -3.34866e+06 397124 0 -3.4718e+06 377381 0 -3.59511e+06 331343 0 -3.7061e+06 251729 0 -3.78662e+06 140004 0 -3.82444e+06 0 0 </DataArray> 
</PointData> 
<Points> 
<DataArray type="Float32" NumberOfComponents="3"> 