<?xml version="1.0"?> 
<VTKFile type="StructuredGrid" version="0.1"> 
<StructuredGrid WholeExtent="0 31 0 31 0 0"> 
<Piece Extent="0 31 0 31 0 0"> 
<PointData>
<DataArray type="Float32" Name="|E|" format="ascii" NumberOfComponents="3"> 
-1.84151e+06 0 0 -1.84339e+06 50877.9 0 -1.84893e+06 101985 0 -1.85813e+06 153553 0 -1.87098e+06 205825 0 -1.88747e+06 259054 0 -1.90758e+06 313513 0 -1.93129e+06 369499 0 -1.95854e+06 427341 0 -1.98926e+06 487412 0 -2.02334e+06 550137 0 -2.0606e+06 616014 0 -2.10077e+06 685635 0 -2.14344e+06 759711 0 -2.18797e+06 839107 0 -2.23338e+06 924879 0 -2.2781e+06 1.01829e+06 0 -2.31963e+06 1.12079e+06 0 -2.35396e+06 1.23375e+06 0 -2.37476e+06 1.35785e+06 0 -2.37234e+06 1.49137e+06 0 -2.33378e+06 1.62639e+06 0 -2.2477e+06 1.74394e+06 0 -2.11431e+06 1.81469e+06 0 -1.95282e+06 1.81033e+06 0 -1.796e+06 1.7184e+06 0 -1.67474e+06 1.54755e+06 0 -1.60028e+06 1.31774e+06 0 -1.55909e+06 1.02851e+06 0 -1.57169e+06 649794 0 -1.7268e+06 242243 0 -1.90818e+06 -7.15256e-07 0 -1.83641e+06 0 0 -1.83828e+06 51242.9 0 -1.84379e+06 102715 0 -1.85293e+06 154648 0 -1.86569e+06 207283 0 -1.88207e+06 260875 0 -1.90205e+06 315694 0 -1.92559e+06 372036 0 -1.95263e+06 430228 0 -1.98311e+06 490639 0 -2.01691e+06 553690 0 -2.05382e+06 619872 0 -2.09359e+06 689764 0 -2.13577e+06 764059 0 -2.17973e+06 843596 0 -2.22444e+06 929386 0 -2.26834e+06 1.02262e+06 0 -2.30891e+06 1.12462e+06 0 -2.34217e+06 1.23659e+06 0 -2.36193e+06 1.35893e+06 0 -2.35889e+06 1.48957e+06 0 -2.32101e+06 1.62039e+06 0 -2.23805e+06 1.73305e+06 0 -2.11081e+06 1.79984e+06 0 -1.95763e+06 1.79427e+06 0 -1.8093e+06 1.7045e+06 0 -1.69487e+06 1.53809e+06 0 -1.62548e+06 1.3125e+06 0 -1.5917e+06 1.02702e+06 0 -1.61409e+06 657603 0 -1.76379e+06 261625 0 -1.92104e+06 -2.5332e-07 0 -1.83127e+06 0 0 -1.83313e+06 51605.7 0 -1.8386e+06 103440 0 -1.84769e+06 155735 0 -1.86037e+06 208732 0 -1.87664e+06 262683 0 -1.89648e+06 317859 0 -1.91985e+06 374554 0 -1.94669e+06 433092 0 -1.97693e+06 493840 0 -2.01044e+06 557212 0 -2.04701e+06 623692 0 -2.08637e+06 693848 0 -2.12808e+06 768355 0 -2.17147e+06 848023 0 -2.21551e+06 933818 0 -2.25861e+06 1.02686e+06 0 -2.29826e+06 1.12836e+06 0 -2.33051e+06 1.23934e+06 0 -2.34933e+06 1.35993e+06 0 -2.3458e+06 1.48776e+06 0 -2.3087e+06 1.61457e+06 0 -2.22885e+06 1.72261e+06 0 -2.10758e+06 1.78572e+06 0 -1.96239e+06 1.77906e+06 0 -1.82224e+06 1.69137e+06 0 -1.71452e+06 1.52921e+06 0 -1.65035e+06 1.30782e+06 0 -1.62379e+06 1.02641e+06 0 -1.65512e+06 665898 0 -1.80015e+06 279266 0 -1.93836e+06 6.55651e-07 0 -1.8261e+06 0 0 -1.82795e+06 51966.2 0 -1.83339e+06 104161 0 -1.84241e+06 156816 0 -1.85501e+06 210171 0 -1.87117e+06 264479 0 -1.89087e+06 320009 0 -1.91407e+06 377053 0 -1.94072e+06 435935 0 -1.97072e+06 497014 0 -2.00394e+06 560703 0 -2.04018e+06 627476 0 -2.07914e+06 697889 0 -2.12038e+06 772600 0 -2.16321e+06 852389 0 -2.20659e+06 938178 0 -2.24892e+06 1.03102e+06 0 -2.28768e+06 1.132e+06 0 -2.31899e+06 1.24198e+06 0 -2.33695e+06 1.36085e+06 0 -2.33304e+06 1.48594e+06 0 -2.29682e+06 1.60893e+06 0 -2.22009e+06 1.71263e+06 0 -2.1046e+06 1.77232e+06 0 -1.96709e+06 1.76468e+06 0 -1.83485e+06 1.679e+06 0 -1.7337e+06 1.52091e+06 0 -1.67488e+06 1.30371e+06 0 -1.65535e+06 1.02663e+06 0 -1.6949e+06 674624 0 -1.83618e+06 295524 0 -1.95949e+06 -2.75671e-07 0 -1.82089e+06 0 0 -1.82273e+06 52324.4 0 -1.82813e+06 104877 0 -1.8371e+06 157889 0 -1.84961e+06 211601 0 -1.86567e+06 266263 0 -1.88523e+06 322144 0 -1.90827e+06 379535 0 -1.93471e+06 438755 0 -1.96447e+06 500163 0 -1.9974e+06 564164 0 -2.03331e+06 631224 0 -2.07188e+06 701888 0 -2.11266e+06 776794 0 -2.15494e+06 856695 0 -2.19768e+06 942467 0 -2.23926e+06 1.03509e+06 0 -2.27717e+06 1.13555e+06 0 -2.3076e+06 1.24454e+06 0 -2.32478e+06 1.36171e+06 0 -2.32061e+06 1.48414e+06 0 -2.28536e+06 1.60347e+06 0 -2.21173e+06 1.70309e+06 0 -2.10185e+06 1.75959e+06 0 -1.97173e+06 1.7511e+06 0 -1.84712e+06 1.66737e+06 0 -1.75244e+06 1.51318e+06 0 -1.69903e+06 1.30018e+06 0 -1.68635e+06 1.02765e+06 0 -1.73353e+06 683754 0 -1.8721e+06 310693 0 -1.98395e+06 1.3411e-07 0 -1.81564e+06 0 0 -1.81747e+06 52680.3 0 -1.82284e+06 105588 0 -1.83175e+06 158956 0 -1.84418e+06 213021 0 -1.86013e+06 268034 0 -1.87956e+06 324264 0 -1.90242e+06 381998 0 -1.92867e+06 441554 0 -1.95819e+06 503286 0 -1.99084e+06 567593 0 -2.02642e+06 634936 0 -2.0646e+06 705844 0 -2.10492e+06 780938 0 -2.14667e+06 860942 0 -2.18878e+06 946689 0 -2.22963e+06 1.03909e+06 0 -2.26674e+06 1.13902e+06 0 -2.29634e+06 1.24701e+06 0 -2.31283e+06 1.36251e+06 0 -2.30849e+06 1.48237e+06 0 -2.27429e+06 1.5982e+06 0 -2.20374e+06 1.69398e+06 0 -2.0993e+06 1.74753e+06 0 -1.97631e+06 1.73828e+06 0 -1.85908e+06 1.65644e+06 0 -1.77075e+06 1.50603e+06 0 -1.7228e+06 1.29723e+06 0 -1.71679e+06 1.02941e+06 0 -1.77112e+06 693280 0 -1.90808e+06 325040 0 -2.01135e+06 5.96046e-08 0 -1.81036e+06 0 0 -1.81218e+06 53034 0 -1.81751e+06 106295 0 -1.82636e+06 160015 0 -1.83872e+06 214431 0 -1.85455e+06 269794 0 -1.87385e+06 326369 0 -1.89655e+06 384443 0 -1.92259e+06 444331 0 -1.95188e+06 506383 0 -1.98425e+06 570993 0 -2.0195e+06 638612 0 -2.0573e+06 709758 0 -2.09717e+06 785033 0 -2.13839e+06 865132 0 -2.17989e+06 950844 0 -2.22004e+06 1.04301e+06 0 -2.25638e+06 1.1424e+06 0 -2.2852e+06 1.2494e+06 0 -2.30109e+06 1.36326e+06 0 -2.29668e+06 1.48062e+06 0 -2.26359e+06 1.59313e+06 0 -2.1961e+06 1.68529e+06 0 -2.09695e+06 1.73611e+06 0 -1.98082e+06 1.7262e+06 0 -1.87073e+06 1.6462e+06 0 -1.78864e+06 1.49946e+06 0 -1.74616e+06 1.29484e+06 0 -1.74665e+06 1.03189e+06 0 -1.80775e+06 703207 0 -1.94425e+06 338802 0 -2.04141e+06 7.45058e-08 0 -1.80505e+06 0 0 -1.80685e+06 53385.4 0 -1.81215e+06 106998 0 -1.82094e+06 161068 0 -1.83321e+06 215832 0 -1.84894e+06 271541 0 -1.8681e+06 328458 0 -1.89064e+06 386869 0 -1.91648e+06 447086 0 -1.94553e+06 509454 0 -1.97763e+06 574363 0 -2.01256e+06 642253 0 -2.04998e+06 713631 0 -2.0894e+06 789080 0 -2.13011e+06 869267 0 -2.17101e+06 954934 0 -2.21049e+06 1.04686e+06 0 -2.2461e+06 1.14571e+06 0 -2.2742e+06 1.25173e+06 0 -2.28955e+06 1.36397e+06 0 -2.28515e+06 1.47892e+06 0 -2.25325e+06 1.58825e+06 0 -2.18879e+06 1.67701e+06 0 -2.09477e+06 1.7253e+06 0 -1.98527e+06 1.71483e+06 0 -1.88209e+06 1.63664e+06 0 -1.80613e+06 1.49345e+06 0 -1.76911e+06 1.29303e+06 0 -1.77592e+06 1.03505e+06 0 -1.84349e+06 713554 0 -1.98071e+06 352195 0 -2.07392e+06 -8.9407e-08 0 -1.7997e+06 0 0 -1.80149e+06 53734.5 0 -1.80675e+06 107696 0 -1.81549e+06 162113 0 -1.82768e+06 217224 0 -1.8433e+06 273277 0 -1.86232e+06 330533 0 -1.8847e+06 389278 0 -1.91034e+06 449820 0 -1.93916e+06 512500 0 -1.97099e+06 577703 0 -2.00559e+06 645859 0 -2.04263e+06 717464 0 -2.08162e+06 793080 0 -2.12182e+06 873346 0 -2.16215e+06 958962 0 -2.20098e+06 1.05064e+06 0 -2.23589e+06 1.14895e+06 0 -2.26332e+06 1.25398e+06 0 -2.27821e+06 1.36465e+06 0 -2.27391e+06 1.47727e+06 0 -2.24323e+06 1.58358e+06 0 -2.18178e+06 1.66915e+06 0 -2.09275e+06 1.71508e+06 0 -1.98965e+06 1.70414e+06 0 -1.89317e+06 1.62773e+06 0 -1.82321e+06 1.48801e+06 0 -1.79163e+06 1.29178e+06 0 -1.80459e+06 1.03888e+06 0 -1.87842e+06 724345 0 -2.01753e+06 365420 0 -2.10875e+06 5.96046e-08 0 -1.79431e+06 0 0 -1.79609e+06 54081.4 0 -1.80132e+06 108389 0 -1.81e+06 163152 0 -1.82211e+06 218606 0 -1.83762e+06 275000 0 -1.85651e+06 332594 0 -1.87872e+06 391669 0 -1.90417e+06 452532 0 -1.93276e+06 515522 0 -1.96431e+06 581013 0 -1.9986e+06 649431 0 -2.03527e+06 721256 0 -2.07383e+06 797034 0 -2.11354e+06 877372 0 -2.1533e+06 962929 0 -2.1915e+06 1.05435e+06 0 -2.22575e+06 1.15211e+06 0 -2.25257e+06 1.25619e+06 0 -2.26706e+06 1.3653e+06 0 -2.26292e+06 1.47568e+06 0 -2.23354e+06 1.57911e+06 0 -2.17506e+06 1.66167e+06 0 -2.09087e+06 1.70544e+06 0 -1.99397e+06 1.69412e+06 0 -1.90397e+06 1.61946e+06 0 -1.8399e+06 1.48313e+06 0 -1.81371e+06 1.29109e+06 0 -1.83266e+06 1.04333e+06 0 -1.91257e+06 735612 0 -2.05477e+06 378668 0 -2.14582e+06 1.19209e-07 0 -1.78889e+06 0 0 -1.79066e+06 54426 0 -1.79586e+06 109078 0 -1.80448e+06 164184 0 -1.8165e+06 219979 0 -1.83191e+06 276711 0 -1.85067e+06 334639 0 -1.87271e+06 394042 0 -1.89797e+06 455224 0 -1.92633e+06 518518 0 -1.95761e+06 584294 0 -1.99158e+06 652969 0 -2.02789e+06 725010 0 -2.06603e+06 800942 0 -2.10525e+06 881346 0 -2.14447e+06 966837 0 -2.18207e+06 1.058e+06 0 -2.21569e+06 1.15522e+06 0 -2.24194e+06 1.25833e+06 0 -2.25609e+06 1.36594e+06 0 -2.2522e+06 1.47415e+06 0 -2.22414e+06 1.57484e+06 0 -2.1686e+06 1.65459e+06 0 -2.08913e+06 1.69636e+06 0 -1.9982e+06 1.68474e+06 0 -1.9145e+06 1.61181e+06 0 -1.8562e+06 1.47879e+06 0 -1.83534e+06 1.29094e+06 0 -1.86012e+06 1.04841e+06 0 -1.94599e+06 747391 0 -2.09247e+06 392125 0 -2.18511e+06 -2.98023e-07 0 -1.78344e+06 0 0 -1.78519e+06 54768.3 0 -1.79036e+06 109762 0 -1.79892e+06 165208 0 -1.81086e+06 221343 0 -1.82617e+06 278411 0 -1.84479e+06 336670 0 -1.86667e+06 396397 0 -1.89174e+06 457894 0 -1.91986e+06 521489 0 -1.95088e+06 587547 0 -1.98454e+06 656473 0 -2.02049e+06 728724 0 -2.05821e+06 804805 0 -2.09696e+06 885269 0 -2.13565e+06 970689 0 -2.17267e+06 1.06159e+06 0 -2.2057e+06 1.15826e+06 0 -2.23143e+06 1.26044e+06 0 -2.24531e+06 1.36658e+06 0 -2.24172e+06 1.47269e+06 0 -2.21502e+06 1.57077e+06 0 -2.16239e+06 1.64789e+06 0 -2.0875e+06 1.68782e+06 0 -2.00237e+06 1.67599e+06 0 -1.92477e+06 1.60477e+06 0 -1.87213e+06 1.475e+06 0 -1.85652e+06 1.29134e+06 0 -1.88698e+06 1.05407e+06 0 -1.97867e+06 759720 0 -2.13066e+06 405972 0 -2.22665e+06 8.9407e-08 0 -1.77795e+06 0 0 -1.77969e+06 55108.4 0 -1.78482e+06 110441 0 -1.79333e+06 166226 0 -1.80519e+06 222697 0 -1.82039e+06 280098 0 -1.83888e+06 338686 0 -1.8606e+06 398735 0 -1.88547e+06 460544 0 -1.91337e+06 524436 0 -1.94412e+06 590770 0 -1.97748e+06 659945 0 -2.01307e+06 732400 0 -2.05039e+06 808625 0 -2.08868e+06 889143 0 -2.12685e+06 974486 0 -2.16331e+06 1.06512e+06 0 -2.19579e+06 1.16125e+06 0 -2.22104e+06 1.2625e+06 0 -2.2347e+06 1.3672e+06 0 -2.23147e+06 1.47131e+06 0 -2.20616e+06 1.56692e+06 0 -2.1564e+06 1.64156e+06 0 -2.08597e+06 1.6798e+06 0 -2.00645e+06 1.66783e+06 0 -1.93478e+06 1.59831e+06 0 -1.88768e+06 1.47174e+06 0 -1.87725e+06 1.29226e+06 0 -1.91323e+06 1.06031e+06 0 -2.01064e+06 772638 0 -2.16935e+06 420396 0 -2.27053e+06 1.19209e-07 0 -1.77243e+06 0 0 -1.77416e+06 55446.3 0 -1.77926e+06 111117 0 -1.7877e+06 167238 0 -1.79949e+06 224043 0 -1.81458e+06 281774 0 -1.83293e+06 340687 0 -1.8545e+06 401055 0 -1.87918e+06 463172 0 -1.90685e+06 527358 0 -1.93734e+06 593966 0 -1.97039e+06 663383 0 -2.00563e+06 736039 0 -2.04255e+06 812402 0 -2.08039e+06 892968 0 -2.11806e+06 978230 0 -2.15399e+06 1.06859e+06 0 -2.18594e+06 1.16418e+06 0 -2.21076e+06 1.26452e+06 0 -2.22426e+06 1.36783e+06 0 -2.22144e+06 1.47e+06 0 -2.19756e+06 1.56327e+06 0 -2.15063e+06 1.63559e+06 0 -2.08455e+06 1.67229e+06 0 -2.01045e+06 1.66026e+06 0 -1.94453e+06 1.59243e+06 0 -1.90285e+06 1.46901e+06 0 -1.89751e+06 1.29371e+06 0 -1.93886e+06 1.06711e+06 0 -2.04189e+06 786184 0 -2.20854e+06 435590 0 -2.31689e+06 -8.9407e-08 0 -1.76687e+06 0 0 -1.76859e+06 55782 0 -1.77365e+06 111787 0 -1.78205e+06 168242 0 -1.79375e+06 225378 0 -1.80873e+06 283438 0 -1.82696e+06 342674 0 -1.84836e+06 403358 0 -1.87285e+06 465780 0 -1.9003e+06 530257 0 -1.93053e+06 597133 0 -1.96328e+06 666789 0 -1.99818e+06 739640 0 -2.03471e+06 816136 0 -2.07211e+06 896746 0 -2.10929e+06 981922 0 -2.14471e+06 1.07201e+06 0 -2.17616e+06 1.16707e+06 0 -2.20059e+06 1.26651e+06 0 -2.21399e+06 1.36847e+06 0 -2.21163e+06 1.46879e+06 0 -2.18919e+06 1.55982e+06 0 -2.14506e+06 1.62998e+06 0 -2.0832e+06 1.66527e+06 0 -2.01437e+06 1.65325e+06 0 -1.95404e+06 1.5871e+06 0 -1.91766e+06 1.46679e+06 0 -1.9173e+06 1.29566e+06 0 -1.96389e+06 1.07445e+06 0 -2.07238e+06 800394 0 -2.24821e+06 451760 0 -2.36593e+06 0 0 -1.76128e+06 0 0 -1.76299e+06 56115.4 0 -1.76802e+06 112453 0 -1.77635e+06 169240 0 -1.78798e+06 226705 0 -1.80286e+06 285090 0 -1.82095e+06 344647 0 -1.8422e+06 405643 0 -1.8665e+06 468367 0 -1.89373e+06 533131 0 -1.9237e+06 600273 0 -1.95615e+06 670163 0 -1.99071e+06 743206 0 -2.02685e+06 819830 0 -2.06382e+06 900479 0 -2.10054e+06 985566 0 -2.13547e+06 1.07538e+06 0 -2.16646e+06 1.16991e+06 0 -2.19054e+06 1.26848e+06 0 -2.20387e+06 1.36912e+06 0 -2.20203e+06 1.46766e+06 0 -2.18105e+06 1.55659e+06 0 -2.13967e+06 1.62472e+06 0 -2.08193e+06 1.65873e+06 0 -2.0182e+06 1.64679e+06 0 -1.96329e+06 1.58232e+06 0 -1.93211e+06 1.46507e+06 0 -1.93662e+06 1.29811e+06 0 -1.9883e+06 1.08231e+06 0 -2.10209e+06 815297 0 -2.28831e+06 469127 0 -2.41792e+06 0 0 -1.75566e+06 0 0 -1.75736e+06 56446.6 0 -1.76235e+06 113115 0 -1.77063e+06 170230 0 -1.78217e+06 228022 0 -1.79695e+06 286730 0 -1.81491e+06 346605 0 -1.836e+06 407911 0 -1.86011e+06 470935 0 -1.88712e+06 535982 0 -1.91684e+06 603385 0 -1.949e+06 673506 0 -1.98323e+06 746735 0 -2.01899e+06 823483 0 -2.05554e+06 904167 0 -2.09181e+06 989162 0 -2.12627e+06 1.07871e+06 0 -2.15682e+06 1.17271e+06 0 -2.18059e+06 1.27042e+06 0 -2.19391e+06 1.36979e+06 0 -2.19261e+06 1.46662e+06 0 -2.17311e+06 1.55355e+06 0 -2.13445e+06 1.6198e+06 0 -2.08071e+06 1.65266e+06 0 -2.02194e+06 1.64085e+06 0 -1.9723e+06 1.57807e+06 0 -1.9462e+06 1.46385e+06 0 -1.95546e+06 1.30105e+06 0 -2.01211e+06 1.09068e+06 0 -2.13098e+06 830916 0 -2.32877e+06 487935 0 -2.47322e+06 0 0 -1.75e+06 0 0 -1.75169e+06 56775.6 0 -1.75665e+06 113772 0 -1.76487e+06 171214 0 -1.77634e+06 229331 0 -1.79101e+06 288359 0 -1.80884e+06 348548 0 -1.82977e+06 410162 0 -1.8537e+06 473481 0 -1.88049e+06 538809 0 -1.90996e+06 606470 0 -1.94183e+06 676818 0 -1.97573e+06 750229 0 -2.01112e+06 827098 0 -2.04726e+06 907812 0 -2.08309e+06 992712 0 -2.11711e+06 1.08198e+06 0 -2.14725e+06 1.17547e+06 0 -2.17075e+06 1.27234e+06 0 -2.18409e+06 1.37049e+06 0 -2.18338e+06 1.46568e+06 0 -2.16537e+06 1.55073e+06 0 -2.12939e+06 1.61522e+06 0 -2.07955e+06 1.64703e+06 0 -2.02558e+06 1.63544e+06 0 -1.98107e+06 1.57434e+06 0 -1.95994e+06 1.46312e+06 0 -1.97383e+06 1.30445e+06 0 -2.03531e+06 1.09954e+06 0 -2.15898e+06 847264 0 -2.36947e+06 508456 0 -2.53227e+06 1.19209e-07 0 -1.74431e+06 0 0 -1.74599e+06 57102.3 0 -1.75092e+06 114425 0 -1.75908e+06 172192 0 -1.77047e+06 230630 0 -1.78504e+06 289976 0 -1.80274e+06 350478 0 -1.82352e+06 412396 0 -1.84726e+06 476008 0 -1.87383e+06 541612 0 -1.90305e+06 609528 0 -1.93463e+06 680099 0 -1.96821e+06 753689 0 -2.00324e+06 830673 0 -2.03899e+06 911416 0 -2.07439e+06 996218 0 -2.10798e+06 1.08522e+06 0 -2.13775e+06 1.1782e+06 0 -2.16101e+06 1.27425e+06 0 -2.17441e+06 1.37121e+06 0 -2.17433e+06 1.46484e+06 0 -2.15781e+06 1.5481e+06 0 -2.12446e+06 1.61097e+06 0 -2.07843e+06 1.64185e+06 0 -2.02913e+06 1.63052e+06 0 -1.9896e+06 1.57111e+06 0 -1.97333e+06 1.46285e+06 0 -1.9917e+06 1.30832e+06 0 -2.05791e+06 1.10886e+06 0 -2.18604e+06 864338 0 -2.41023e+06 530999 0 -2.59566e+06 1.19209e-07 0 -1.73859e+06 0 0 -1.74026e+06 57426.9 0 -1.74515e+06 115074 0 -1.75326e+06 173162 0 -1.76457e+06 231920 0 -1.77903e+06 291582 0 -1.79661e+06 352394 0 -1.81723e+06 414613 0 -1.84079e+06 478515 0 -1.86715e+06 544393 0 -1.89612e+06 612560 0 -1.92742e+06 683350 0 -1.96068e+06 757115 0 -1.99536e+06 834211 0 -2.03072e+06 914978 0 -2.06571e+06 999682 0 -2.0989e+06 1.08841e+06 0 -2.12831e+06 1.1809e+06 0 -2.15136e+06 1.27615e+06 0 -2.16487e+06 1.37196e+06 0 -2.16544e+06 1.4641e+06 0 -2.15043e+06 1.54568e+06 0 -2.11967e+06 1.60703e+06 0 -2.07735e+06 1.63708e+06 0 -2.03258e+06 1.62609e+06 0 -1.99789e+06 1.56838e+06 0 -1.98637e+06 1.46305e+06 0 -2.00909e+06 1.31262e+06 0 -2.0799e+06 1.11865e+06 0 -2.2121e+06 882114 0 -2.45082e+06 555915 0 -2.6641e+06 0 0 -1.73284e+06 0 0 -1.73449e+06 57749.3 0 -1.73935e+06 115718 0 -1.74741e+06 174126 0 -1.75863e+06 233201 0 -1.773e+06 293176 0 -1.79045e+06 354295 0 -1.81091e+06 416813 0 -1.83429e+06 481003 0 -1.86044e+06 547151 0 -1.88916e+06 615566 0 -1.92019e+06 686571 0 -1.95313e+06 760507 0 -1.98747e+06 837712 0 -2.02245e+06 918501 0 -2.05705e+06 1.00311e+06 0 -2.08985e+06 1.09157e+06 0 -2.11893e+06 1.18357e+06 0 -2.14181e+06 1.27804e+06 0 -2.15546e+06 1.37274e+06 0 -2.15671e+06 1.46346e+06 0 -2.1432e+06 1.54346e+06 0 -2.115e+06 1.60341e+06 0 -2.07629e+06 1.63274e+06 0 -2.03593e+06 1.62213e+06 0 -2.00594e+06 1.56612e+06 0 -1.99908e+06 1.46371e+06 0 -2.026e+06 1.31734e+06 0 -2.10129e+06 1.12887e+06 0 -2.23712e+06 900544 0 -2.49089e+06 583612 0 -2.73849e+06 1.19209e-07 0 -1.72705e+06 0 0 -1.7287e+06 58069.5 0 -1.73352e+06 116357 0 -1.74152e+06 175083 0 -1.75267e+06 234473 0 -1.76693e+06 294759 0 -1.78426e+06 356182 0 -1.80457e+06 418997 0 -1.82776e+06 483470 0 -1.8537e+06 549886 0 -1.88219e+06 618545 0 -1.91294e+06 689764 0 -1.94557e+06 763867 0 -1.97957e+06 841178 0 -2.01418e+06 921986 0 -2.0484e+06 1.00649e+06 0 -2.08083e+06 1.09469e+06 0 -2.10962e+06 1.18621e+06 0 -2.13236e+06 1.27993e+06 0 -2.14618e+06 1.37356e+06 0 -2.14813e+06 1.46293e+06 0 -2.13613e+06 1.54144e+06 0 -2.11043e+06 1.6001e+06 0 -2.07525e+06 1.62879e+06 0 -2.03918e+06 1.61862e+06 0 -2.01375e+06 1.56432e+06 0 -2.01145e+06 1.46481e+06 0 -2.04241e+06 1.32248e+06 0 -2.12207e+06 1.13954e+06 0 -2.26106e+06 919543 0 -2.52997e+06 614559 0 -2.81999e+06 -4.17233e-07 0 -1.72124e+06 0 0 -1.72287e+06 58387.5 0 -1.72766e+06 116992 0 -1.73561e+06 176034 0 -1.74668e+06 235736 0 -1.76084e+06 296331 0 -1.77803e+06 358056 0 -1.79819e+06 421164 0 -1.82121e+06 485919 0 -1.84694e+06 552599 0 -1.87518e+06 621499 0 -1.90567e+06 692927 0 -1.938e+06 767195 0 -1.97166e+06 844608 0 -2.00592e+06 925433 0 -2.03977e+06 1.00984e+06 0 -2.07186e+06 1.09778e+06 0 -2.10037e+06 1.18883e+06 0 -2.12299e+06 1.28182e+06 0 -2.13701e+06 1.37442e+06 0 -2.1397e+06 1.4625e+06 0 -2.12919e+06 1.53961e+06 0 -2.10597e+06 1.59709e+06 0 -2.07422e+06 1.62524e+06 0 -2.04231e+06 1.61557e+06 0 -2.02133e+06 1.56298e+06 0 -2.0235e+06 1.46634e+06 0 -2.05835e+06 1.32799e+06 0 -2.14222e+06 1.15063e+06 0 -2.28393e+06 938982 0 -2.56739e+06 649308 0 -2.91004e+06 3.57628e-07 0 -1.71539e+06 0 0 -1.71701e+06 58703.3 0 -1.72177e+06 117623 0 -1.72966e+06 176978 0 -1.74065e+06 236991 0 -1.75471e+06 297891 0 -1.77178e+06 359916 0 -1.79179e+06 423314 0 -1.81463e+06 488348 0 -1.84015e+06 555290 0 -1.86816e+06 624428 0 -1.89838e+06 696062 0 -1.93041e+06 770491 0 -1.96375e+06 848005 0 -1.99766e+06 928845 0 -2.03116e+06 1.01315e+06 0 -2.06292e+06 1.10084e+06 0 -2.09117e+06 1.19142e+06 0 -2.11371e+06 1.28371e+06 0 -2.12796e+06 1.37533e+06 0 -2.13139e+06 1.46218e+06 0 -2.12239e+06 1.53798e+06 0 -2.10159e+06 1.59437e+06 0 -2.07318e+06 1.62206e+06 0 -2.04534e+06 1.61294e+06 0 -2.02867e+06 1.56208e+06 0 -2.03521e+06 1.4683e+06 0 -2.07382e+06 1.33385e+06 0 -2.1617e+06 1.16217e+06 0 -2.3058e+06 958674 0 -2.60226e+06 688507 0 -3.01047e+06 -2.98023e-07 0 -1.70951e+06 0 0 -1.71111e+06 59017 0 -1.71584e+06 118250 0 -1.72368e+06 177916 0 -1.73459e+06 238236 0 -1.74855e+06 299440 0 -1.7655e+06 361762 0 -1.78536e+06 425449 0 -1.80802e+06 490758 0 -1.83334e+06 557958 0 -1.86112e+06 627332 0 -1.89107e+06 699168 0 -1.92281e+06 773756 0 -1.95583e+06 851367 0 -1.98941e+06 932222 0 -2.02257e+06 1.01643e+06 0 -2.05401e+06 1.10386e+06 0 -2.08203e+06 1.194e+06 0 -2.10451e+06 1.2856e+06 0 -2.11902e+06 1.37628e+06 0 -2.12322e+06 1.46197e+06 0 -2.1157e+06 1.53655e+06 0 -2.0973e+06 1.59194e+06 0 -2.07215e+06 1.61926e+06 0 -2.04826e+06 1.61074e+06 0 -2.03577e+06 1.5616e+06 0 -2.04658e+06 1.47069e+06 0 -2.08885e+06 1.34004e+06 0 -2.18044e+06 1.17418e+06 0 -2.32685e+06 978359 0 -2.63337e+06 732921 0 -3.12364e+06 4.76837e-07 0 -1.70359e+06 0 0 -1.70519e+06 59328.5 0 -1.70989e+06 118872 0 -1.71767e+06 178846 0 -1.72851e+06 239473 0 -1.74237e+06 300977 0 -1.75919e+06 363594 0 -1.7789e+06 427567 0 -1.80139e+06 493149 0 -1.8265e+06 560605 0 -1.85405e+06 630212 0 -1.88374e+06 702248 0 -1.9152e+06 776991 0 -1.94791e+06 854698 0 -1.98115e+06 935565 0 -2.01399e+06 1.01967e+06 0 -2.04514e+06 1.10686e+06 0 -2.07295e+06 1.19657e+06 0 -2.0954e+06 1.28751e+06 0 -2.11018e+06 1.37728e+06 0 -2.11516e+06 1.46187e+06 0 -2.10913e+06 1.5353e+06 0 -2.09307e+06 1.58979e+06 0 -2.0711e+06 1.61682e+06 0 -2.05105e+06 1.60895e+06 0 -2.04265e+06 1.56154e+06 0 -2.0576e+06 1.4735e+06 0 -2.10351e+06 1.34651e+06 0 -2.19831e+06 1.18672e+06 0 -2.3474e+06 997681 0 -2.65905e+06 783454 0 -3.25255e+06 -4.17233e-07 0 -1.69765e+06 0 0 -1.69924e+06 59637.9 0 -1.7039e+06 119490 0 -1.71163e+06 179771 0 -1.72239e+06 240701 0 -1.73615e+06 302504 0 -1.75285e+06 365413 0 -1.77241e+06 429669 0 -1.79473e+06 495521 0 -1.81964e+06 563231 0 -1.84696e+06 633067 0 -1.8764e+06 705300 0 -1.90757e+06 780197 0 -1.93998e+06 857997 0 -1.97291e+06 938876 0 -2.00543e+06 1.02288e+06 0 -2.0363e+06 1.10984e+06 0 -2.06392e+06 1.19912e+06 0 -2.08636e+06 1.28942e+06 0 -2.10144e+06 1.37833e+06 0 -2.10721e+06 1.46188e+06 0 -2.10266e+06 1.53424e+06 0 -2.0889e+06 1.58792e+06 0 -2.07004e+06 1.61473e+06 0 -2.05373e+06 1.60756e+06 0 -2.04931e+06 1.56187e+06 0 -2.06825e+06 1.47674e+06 0 -2.11788e+06 1.35319e+06 0 -2.2151e+06 1.19987e+06 0 -2.36801e+06 1.01616e+06 0 -2.67708e+06 841183 0 -3.40105e+06 4.76837e-07 0 -1.69168e+06 0 0 -1.69325e+06 59945.2 0 -1.69788e+06 120103 0 -1.70556e+06 180689 0 -1.71624e+06 241920 0 -1.7299e+06 304020 0 -1.74648e+06 367219 0 -1.7659e+06 431755 0 -1.78804e+06 497875 0 -1.81276e+06 565835 0 -1.83985e+06 635898 0 -1.86904e+06 708326 0 -1.89994e+06 783373 0 -1.93204e+06 861264 0 -1.96467e+06 942155 0 -1.99688e+06 1.02607e+06 0 -2.02749e+06 1.11278e+06 0 -2.05494e+06 1.20166e+06 0 -2.07739e+06 1.29134e+06 0 -2.0928e+06 1.37943e+06 0 -2.09937e+06 1.462e+06 0 -2.09629e+06 1.53337e+06 0 -2.08479e+06 1.58631e+06 0 -2.06896e+06 1.61298e+06 0 -2.05626e+06 1.60656e+06 0 -2.05579e+06 1.56259e+06 0 -2.07846e+06 1.48041e+06 0 -2.13212e+06 1.36002e+06 0 -2.23046e+06 1.21377e+06 0 -2.38956e+06 1.03317e+06 0 -2.68442e+06 907393 0 -3.57412e+06 -5.96046e-07 0 -1.68567e+06 0 0 -1.68724e+06 60250.3 0 -1.69184e+06 120713 0 -1.69945e+06 181600 0 -1.71006e+06 243130 0 -1.72363e+06 305524 0 -1.74008e+06 369011 0 -1.75935e+06 433825 0 -1.78133e+06 500210 0 -1.80585e+06 568419 0 -1.83272e+06 638705 0 -1.86166e+06 711325 0 -1.89229e+06 786521 0 -1.9241e+06 864502 0 -1.95643e+06 945404 0 -1.98835e+06 1.02922e+06 0 -2.01871e+06 1.11571e+06 0 -2.04602e+06 1.20419e+06 0 -2.06849e+06 1.29328e+06 0 -2.08424e+06 1.38058e+06 0 -2.09163e+06 1.46223e+06 0 -2.09e+06 1.53269e+06 0 -2.08071e+06 1.58497e+06 0 -2.06786e+06 1.61156e+06 0 -2.05864e+06 1.60594e+06 0 -2.06211e+06 1.56368e+06 0 -2.08814e+06 1.48453e+06 0 -2.14646e+06 1.36691e+06 0 -2.24384e+06 1.22863e+06 0 -2.41344e+06 1.04788e+06 0 -2.67699e+06 983616 0 -3.77823e+06 5.96046e-07 0 -1.67964e+06 0 0 -1.68119e+06 60553.3 0 -1.68576e+06 121318 0 -1.69332e+06 182505 0 -1.70386e+06 244332 0 -1.71732e+06 307018 0 -1.73366e+06 370789 0 -1.75278e+06 435879 0 -1.77459e+06 502528 0 -1.79892e+06 570981 0 -1.82557e+06 641489 0 -1.85426e+06 714299 0 -1.88462e+06 789641 0 -1.91616e+06 867710 0 -1.94819e+06 948623 0 -1.97984e+06 1.03235e+06 0 -2.00997e+06 1.11862e+06 0 -2.03714e+06 1.20671e+06 0 -2.05966e+06 1.29524e+06 0 -2.07577e+06 1.38179e+06 0 -2.08398e+06 1.46256e+06 0 -2.0838e+06 1.53218e+06 0 -2.07666e+06 1.58388e+06 0 -2.06674e+06 1.61048e+06 0 -2.06083e+06 1.60569e+06 0 -2.06836e+06 1.56512e+06 0 -2.09712e+06 1.48913e+06 0 -2.16132e+06 1.37373e+06 0 -2.25437e+06 1.24475e+06 0 -2.44171e+06 1.05922e+06 0 -2.64926e+06 1.0717e+06 0 -4.02177e+06 -7.15256e-07 0 -1.67357e+06 0 0 -1.67511e+06 60854.2 0 -1.67965e+06 121919 0 -1.68716e+06 183404 0 -1.69762e+06 245525 0 -1.71099e+06 308501 0 -1.72721e+06 372555 0 -1.74619e+06 437918 0 -1.76782e+06 504827 0 -1.79196e+06 573523 0 -1.81839e+06 644251 0 -1.84685e+06 717247 0 -1.87695e+06 792734 0 -1.90821e+06 870890 0 -1.93996e+06 951814 0 -1.97134e+06 1.03546e+06 0 -2.00125e+06 1.12151e+06 0 -2.0283e+06 1.20923e+06 0 -2.0509e+06 1.29721e+06 0 -2.06738e+06 1.38306e+06 0 -2.07641e+06 1.46301e+06 0 -2.07768e+06 1.53186e+06 0 -2.07263e+06 1.58304e+06 0 -2.06563e+06 1.60971e+06 0 -2.06278e+06 1.6058e+06 0 -2.07464e+06 1.5669e+06 0 -2.10516e+06 1.49423e+06 0 -2.17728e+06 1.3803e+06 0 -2.26075e+06 1.26254e+06 0 -2.47742e+06 1.06584e+06 0 -2.59382e+06 1.17382e+06 0 -4.31571e+06 4.76837e-07 0 -1.66748e+06 0 0 -1.66901e+06 61153 0 -1.67351e+06 122515 0 -1.68097e+06 184297 0 -1.69136e+06 246710 0 -1.70463e+06 309973 0 -1.72073e+06 374308 0 -1.73956e+06 439942 0 -1.76103e+06 507108 0 -1.78498e+06 576045 0 -1.8112e+06 646989 0 -1.83942e+06 720171 0 -1.86926e+06 795800 0 -1.90025e+06 874042 0 -1.93173e+06 954977 0 -1.96286e+06 1.03853e+06 0 -1.99256e+06 1.12437e+06 0 -2.01952e+06 1.21175e+06 0 -2.0422e+06 1.29921e+06 0 -2.05907e+06 1.38439e+06 0 -2.06891e+06 1.46356e+06 0 -2.07163e+06 1.53173e+06 0 -2.06859e+06 1.58243e+06 0 -2.06455e+06 1.60928e+06 0 -2.06441e+06 1.60624e+06 0 -2.08114e+06 1.56899e+06 0 -2.11184e+06 1.49991e+06 0 -2.19528e+06 1.3864e+06 0 -2.26098e+06 1.28262e+06 0 -2.52503e+06 1.06588e+06 0 -2.50058e+06 1.29274e+06 0 -4.67449e+06 -4.76837e-07 0 </DataArray> 
</PointData> 
<Points> 
<DataArray type="Float32" NumberOfComponents="3"> 