<?xml version="1.0"?> 
<VTKFile type="StructuredGrid" version="0.1"> 
<StructuredGrid WholeExtent="0 31 0 31 0 0"> 
<Piece Extent="0 31 0 31 0 0"> 
<PointData>
<DataArray type="Float32" Name="|E|" format="ascii" NumberOfComponents="3"> 
814.147 -2.14577e-06 0 -26.6889 -383.848 0 -30.9668 -180.536 0 -86.9268 -134.277 0 -80.3666 -76.939 0 -76.1306 -47.6899 0 -64.6407 -25.8961 0 -53.8193 -12.6988 0 -43.5963 -4.32963 0 -34.7974 0.658223 0 -27.4527 3.43898 0 -21.4629 4.83759 0 -16.6625 5.35289 0 -12.8565 5.35026 0 -9.86688 5.0476 0 -7.53372 4.59398 0 -5.72337 4.07791 0 -4.32535 3.55484 0 -3.25065 3.05575 0 -2.42811 2.59721 0 -1.80147 2.18623 0 -1.32644 1.82415 0 -0.96832 1.50891 0 -0.699992 1.23658 0 -0.500308 1.00229 0 -0.35277 0.800817 0 -0.244488 0.626906 0 -0.165341 0.475456 0 -0.107298 0.341582 0 -0.0638872 0.220663 0 -0.0296788 0.108223 0 7.80821e-05 5.36442e-07 0 600.13 9.23872e-07 0 64.3889 -315.01 0 -33.87 -185.195 0 -66.8015 -130.019 0 -75.8067 -80.7622 0 -70.0564 -50.4353 0 -61.9808 -29.2339 0 -51.8785 -15.6631 0 -42.6556 -6.89562 0 -34.3407 -1.52443 0 -27.3476 1.66109 0 -21.5584 3.38613 0 -16.8733 4.19582 0 -13.1244 4.4288 0 -10.1547 4.32267 0 -7.81921 4.02564 0 -5.99326 3.63567 0 -4.57283 3.21239 0 -3.47275 2.79231 0 -2.6244 2.39585 0 -1.97297 2.03353 0 -1.47504 1.70942 0 -1.09632 1.4237 0 -0.809871 1.17422 0 -0.594571 0.957541 0 -0.433856 0.769556 0 -0.31474 0.60589 0 -0.226998 0.462122 0 -0.162522 0.333886 0 -0.114771 0.216918 0 -0.0783686 0.10701 0 -0.0485084 -4.19095e-07 0 456.203 -3.94881e-07 0 110.364 -258.197 0 -22.973 -182.313 0 -53.9654 -126.588 0 -68.464 -83.0548 0 -65.0966 -52.8556 0 -58.7183 -32.207 0 -49.9549 -18.3802 0 -41.499 -9.35132 0 -33.7658 -3.6072 0 -27.1153 -0.0854284 0 -21.5539 1.95863 0 -16.9992 3.03754 0 -13.3233 3.5012 0 -10.3867 3.58385 0 -8.05988 3.44179 0 -6.22751 3.17654 0 -4.79205 2.85348 0 -3.6726 2.5132 0 -2.80324 2.1801 0 -2.13088 1.86784 0 -1.61309 1.58316 0 -1.21618 1.32839 0 -0.913519 1.10314 0 -0.684086 0.905348 0 -0.511346 0.732046 0 -0.382282 0.579742 0 -0.286626 0.444711 0 -0.216235 0.323121 0 -0.164554 0.211101 0 -0.126257 0.10473 0 -0.0966033 3.35276e-07 0 357.015 2.68221e-07 0 130.512 -212.164 0 -8.13365 -174.384 0 -43.9226 -123.3 0 -60.6345 -84.1221 0 -60.3165 -54.9288 0 -55.3213 -34.7744 0 -47.8985 -20.8912 0 -40.2131 -11.6502 0 -33.0584 -5.60485 0 -26.7717 -1.77752 0 -21.4503 0.555168 0 -17.0431 1.8889 0 -13.4537 2.57109 0 -10.5629 2.83687 0 -8.25516 2.84583 0 -6.42519 2.70387 0 -4.98199 2.48053 0 -3.84912 2.22046 0 -2.96358 1.95154 0 -2.27417 1.69042 0 -1.73966 1.44635 0 -1.32706 1.22375 0 -1.01016 1.02391 0 -0.768148 0.846154 0 -0.584602 0.688617 0 -0.446538 0.5487 0 -0.343696 0.423383 0 -0.267942 0.30939 0 -0.212754 0.203269 0 -0.172878 0.101408 0 -0.143697 -2.42144e-07 0 286.908 -1.78814e-07 0 136.079 -175.17 0 6.1778 -163.458 0 -35.042 -119.697 0 -53.098 -84.2654 0 -55.5215 -56.5824 0 -51.9098 -36.9742 0 -45.7136 -23.1797 0 -38.8198 -13.7921 0 -32.2306 -7.50649 0 -26.3235 -3.40994 0 -21.253 -0.81607 0 -17.0074 0.755106 0 -13.5171 1.64418 0 -10.6835 2.08583 0 -8.40486 2.24156 0 -6.58574 2.22058 0 -5.14188 2.09604 0 -4.00144 1.91608 0 -3.10453 1.71177 0 -2.40199 1.50255 0 -1.85391 1.30003 0 -1.42817 1.11059 0 -1.09906 0.937172 0 -0.846103 0.780447 0 -0.65303 0.639638 0 -0.506961 0.513037 0 -0.397701 0.398335 0 -0.317168 0.292824 0 -0.258908 0.193497 0 -0.217769 0.097079 0 -0.189297 9.68575e-08 0 235.984 3.12924e-07 0 133.694 -145.552 0 18.1448 -151.075 0 -26.8512 -115.575 0 -46.0871 -83.6961 0 -50.7365 -57.7907 0 -48.5153 -38.8333 0 -43.4347 -25.2386 0 -37.3316 -15.7751 0 -31.2977 -9.30495 0 -25.7778 -4.97666 0 -20.9677 -2.14865 0 -16.8951 -0.358202 0 -13.5153 0.725454 0 -10.7493 1.33505 0 -8.50908 1.63258 0 -6.70885 1.72971 0 -5.27116 1.70248 0 -4.12888 1.6021 0 -3.22534 1.46247 0 -2.51357 1.30558 0 -1.95511 1.14526 0 -1.51882 0.989774 0 -1.17959 0.843615 0 -0.91735 0.708768 0 -0.716073 0.585528 0 -0.56304 0.473068 0 -0.448164 0.369795 0 -0.363459 0.273582 0 -0.302574 0.181882 0 -0.260486 0.0917872 0 -0.232933 1.2666e-07 0 197.956 -4.17233e-07 0 127.204 -121.836 0 27.3058 -138.301 0 -19.3343 -110.917 0 -39.6377 -82.562 0 -46.0406 -58.5612 0 -45.1524 -40.374 0 -41.0969 -27.0667 0 -35.7621 -17.599 0 -30.2736 -10.9948 0 -25.1426 -6.47272 0 -20.6002 -3.43687 0 -16.7098 -1.44594 0 -13.4503 -0.18036 0 -10.7614 0.588592 0 -8.56823 1.02242 0 -6.79448 1.23423 0 -5.36951 1.30237 0 -4.23094 1.28059 0 -3.32542 1.20534 0 -2.60828 1.10092 0 -2.04263 0.983206 0 -1.59839 0.862224 0 -1.25117 0.743976 0 -0.981345 0.631703 0 -0.773228 0.526746 0 -0.614304 0.429145 0 -0.494644 0.338025 0 -0.406392 0.251845 0 -0.343335 0.168539 0 -0.300603 0.085587 0 -0.274154 -1.2666e-07 0 168.779 5.66244e-07 0 118.818 -102.799 0 33.8122 -125.824 0 -12.5911 -105.816 0 -33.7372 -80.9703 0 -41.506 -58.9249 0 -41.839 -41.6144 0 -38.7291 -28.6692 0 -34.1271 -19.2636 0 -29.1713 -12.5731 0 -24.4264 -7.89369 0 -20.1564 -4.67602 0 -16.4553 -2.50339 0 -13.3246 -1.06896 0 -10.7213 -0.149651 0 -8.58299 0.414464 0 -6.84284 0.737055 0 -5.43681 0.898154 0 -4.30729 0.953631 0 -3.40433 0.942113 0 -2.68562 0.889994 0 -2.11595 0.81503 0 -1.66636 0.728902 0 -1.31327 0.639036 0 -1.03761 0.549878 0 -0.82404 0.463786 0 -0.660324 0.381653 0 -0.536732 0.303313 0 -0.445575 0.227818 0 -0.380803 0.153598 0 -0.337725 0.0785415 0 -0.312534 1.78814e-07 0 145.813 -6.25849e-07 0 109.779 -87.4526 0 38.0542 -114.052 0 -6.70831 -100.416 0 -28.3698 -79.0082 0 -37.1859 -58.9242 0 -38.5971 -42.5733 0 -36.3555 -30.0548 0 -32.4432 -20.7705 0 -28.0031 -14.0383 0 -23.6382 -9.2362 0 -19.6425 -5.86214 0 -16.1359 -3.52639 0 -13.1409 -1.93638 0 -10.6305 -0.876042 0 -8.55434 -0.188064 0 -6.85438 0.241004 0 -5.47316 0.492271 0 -4.35782 0.623278 0 -3.4618 0.674524 0 -2.74524 0.674254 0 -2.17465 0.641942 0 -1.72231 0.590806 0 -1.36549 0.52961 0 -1.08572 0.463953 0 -0.86811 0.397178 0 -0.70072 0.331005 0 -0.574063 0.265973 0 -0.480651 0.201729 0 -0.414623 0.137205 0 -0.371484 0.0707222 0 -0.34768 -5.21541e-08 0 127.306 4.17233e-07 0 100.764 -75.0138 0 40.475 -103.201 0 -1.72053 -94.8717 0 -23.5242 -76.7541 0 -33.1154 -58.6062 0 -35.4496 -43.2715 0 -33.9962 -31.2343 0 -30.7264 -22.1228 0 -26.7805 -15.3903 0 -22.7869 -10.4979 0 -19.0646 -6.99201 0 -15.7559 -4.51134 0 -12.9023 -2.77904 0 -10.4912 -1.58721 0 -8.48347 -0.782098 0 -6.82975 -0.251211 0 -5.47884 0.0870801 0 -4.38254 0.291566 0 -3.49768 0.404305 0 -2.78688 0.455165 0 -2.21844 0.465169 0 -1.7659 0.448954 0 -1.40747 0.416539 0 -1.12534 0.374618 0 -0.905098 0.327475 0 -0.735161 0.27764 0 -0.606316 0.226342 0 -0.511304 0.17382 0 -0.444475 0.11952 0 -0.401548 0.0622084 0 -0.37923 -1.04308e-07 0 112.076 -3.8743e-07 0 92.1205 -64.8706 0 41.487 -93.356 0 2.38891 -89.3243 0 -19.1906 -74.281 0 -29.3166 -58.0184 0 -32.4177 -43.7321 0 -31.6692 -32.2205 0 -28.9917 -23.3257 0 -25.5149 -16.6302 0 -21.8811 -11.6776 0 -18.429 -8.06311 0 -15.32 -5.45519 0 -12.6119 -3.59374 0 -10.3053 -2.28005 0 -8.37179 -1.36477 0 -6.76983 -0.736999 0 -5.45435 -0.31513 0 -4.38167 -0.0395135 0 -3.512 0.13317 0 -2.81044 0.234185 0 -2.24711 0.285947 0 -1.79689 0.304383 0 -1.43895 0.300686 0 -1.15619 0.282582 0 -0.934725 0.255256 0 -0.763369 0.222018 0 -0.633215 0.184775 0 -0.537258 0.144353 0 -0.470079 0.100715 0 -0.427621 0.0530862 0 -0.406864 1.49012e-08 0 99.3087 3.8743e-07 0 84.0108 -56.5465 0 41.4408 -84.5228 0 5.6748 -83.8905 0 -15.3568 -71.658 0 -25.8015 -57.2076 0 -29.5191 -43.9801 0 -29.3898 -33.0272 0 -27.2529 -24.3855 0 -24.217 -17.7602 0 -20.929 -12.7747 0 -17.7421 -9.07365 0 -14.8327 -6.35541 0 -12.273 -4.3777 0 -10.0753 -2.95177 0 -8.22089 -1.9334 0 -6.67566 -1.21391 0 -5.40031 -0.712166 0 -4.35555 -0.368027 0 -3.50491 -0.137201 0 -2.81594 0.0127637 0 -2.2606 0.105507 0 -1.81514 0.158137 0 -1.45974 0.182926 0 -1.17806 0.18857 0 -0.956773 0.181113 0 -0.785121 0.164616 0 -0.654533 0.141643 0 -0.558282 0.113602 0 -0.491195 0.0809709 0 -0.44945 0.0434473 0 -0.430298 -2.98023e-08 0 88.4315 -2.98023e-07 0 76.4901 -49.6712 0 40.6193 -76.6584 0 8.21499 -78.6601 0 -12.0048 -68.9485 0 -22.5747 -56.218 0 -26.7676 -44.0416 0 -27.1713 -33.6694 0 -25.5221 -25.3099 0 -22.8968 -18.7835 0 -19.9386 -13.7899 0 -17.0098 -10.0225 0 -14.2986 -7.21001 0 -11.8889 -5.1285 0 -9.80367 -3.59983 0 -8.03252 -2.48554 0 -6.54844 -1.67965 0 -5.31753 -1.10193 0 -4.30471 -0.692109 0 -3.4767 -0.405168 0 -2.8035 -0.207677 0 -2.25892 -0.074924 0 -1.82059 0.0112582 0 -1.46975 0.0641386 0 -1.19082 0.0933193 0 -0.971087 0.105654 0 -0.800249 0.105923 0 -0.670094 0.0973294 0 -0.574191 0.0818501 0 -0.507628 0.0604789 0 -0.466822 0.0333883 0 -0.449295 8.9407e-08 0 79.0328 -5.96046e-08 0 69.5567 -43.9571 0 39.2435 -69.6947 0 10.0978 -73.6971 0 -9.1108 -66.2093 0 -19.6352 -55.0913 0 -24.1727 -43.9426 0 -25.0249 -34.1627 0 -23.81 -26.1078 0 -21.5632 -19.7041 0 -18.9174 -14.7244 0 -16.2381 -10.9091 0 -13.7223 -8.01748 0 -11.4632 -5.84413 0 -9.49288 -4.22202 0 -7.80855 -3.01894 0 -6.38951 -2.13207 0 -5.20695 -1.48245 0 -4.22976 -1.00997 0 -3.42777 -0.669143 0 -2.77337 -0.425745 0 -2.2422 -0.254142 0 -1.81329 -0.135219 0 -1.46894 -0.054797 0 -1.19441 -0.00243326 0 -0.977578 0.029489 0 -0.808644 0.0464361 0 -0.679773 0.0522259 0 -0.584848 0.0493908 0 -0.519226 0.0394352 0 -0.47957 0.0230099 0 -0.463666 -4.47035e-08 0 70.8108 5.96046e-08 0 63.1794 -39.1802 0 37.482 -63.5521 0 11.4132 -69.0434 0 -6.6456 -63.4897 0 -16.9772 -53.8659 0 -21.7403 -43.7091 0 -22.9591 -34.5232 0 -22.1256 -26.7883 0 -20.2247 -20.527 0 -17.8721 -15.58 0 -15.4326 -11.7336 0 -13.1081 -8.7768 0 -10.9993 -6.52293 0 -9.14559 -4.81639 0 -7.55095 -3.53157 0 -6.20034 -2.56918 0 -5.06964 -1.85186 0 -4.13148 -1.31991 0 -3.35867 -0.927599 0 -2.72592 -0.640092 0 -2.21067 -0.430969 0 -1.79338 -0.280276 0 -1.4574 -0.17301 0 -1.18883 -0.0979511 0 -0.97622 -0.0467678 0 -0.810252 -0.0133436 0 -0.683498 0.00672881 0 -0.590165 0.0165217 0 -0.525887 0.0180409 0 -0.487573 0.0124151 0 -0.473266 1.49012e-08 0 63.5391 5.96046e-08 0 57.3134 -35.1653 0 35.461 -58.1488 0 12.2466 -64.7227 0 -4.57608 -60.831 0 -14.5912 -52.5768 0 -19.4726 -43.366 0 -20.9806 -34.7671 0 -20.4764 -27.3615 0 -18.8882 -21.2576 0 -16.8091 -16.3593 0 -14.5984 -12.4966 0 -12.4603 -9.48734 0 -10.5006 -7.16359 0 -8.76445 -5.38128 0 -7.26176 -4.02164 0 -5.98249 -2.98919 0 -4.90677 -2.20843 0 -4.01074 -1.62032 0 -3.27002 -1.17908 0 -2.66159 -0.849417 0 -2.16465 -0.604259 0 -1.76105 -0.422917 0 -1.43524 -0.289645 0 -1.17418 -0.192507 0 -0.967048 -0.122507 0 -0.805077 -0.0729161 0 -0.681248 -0.0387641 0 -0.590101 -0.0164576 0 -0.527554 -0.00350052 0 -0.490758 0.00170911 0 -0.478002 1.49012e-08 0 57.0446 -5.96046e-08 0 51.9092 -31.775 0 33.2736 -53.4059 0 12.6763 -60.7452 0 -2.86692 -58.2669 0 -12.4643 -51.2554 0 -17.3689 -42.937 0 -19.0935 -34.9105 0 -18.8685 -27.8375 0 -17.5599 -21.9018 0 -15.734 -17.0652 0 -13.7406 -13.199 0 -11.783 -10.1489 0 -9.97025 -7.76514 0 -8.35211 -5.91528 0 -6.94308 -4.48753 0 -5.7376 -3.39043 0 -4.71961 -2.55054 0 -3.86851 -1.90969 0 -3.16258 -1.4222 0 -2.58094 -1.05248 0 -2.10455 -0.772911 0 -1.71662 -0.562178 0 -1.4027 -0.403865 0 -1.15058 -0.285386 0 -0.950163 -0.197128 0 -0.793182 -0.131786 0 -0.673055 -0.0838572 0 -0.584666 -0.0492477 0 -0.524216 -0.024985 0 -0.489098 -0.00900249 0 -0.477831 -2.98023e-08 0 51.1925 0 0 46.9172 -28.9007 0 30.9875 -49.2501 0 12.7715 -57.1109 0 -1.48202 -55.8236 0 -10.5815 -49.9291 0 -15.426 -42.4441 0 -17.3002 -34.9689 0 -17.3063 -28.2266 0 -16.2451 -22.4659 0 -14.6518 -17.7012 0 -12.8634 -13.8423 0 -11.08 -10.7615 0 -9.41158 -8.32689 0 -7.91117 -6.41723 0 -6.59704 -4.92785 0 -5.46735 -3.77142 0 -4.5095 -2.87673 0 -3.70584 -2.18661 0 -3.03715 -1.65565 0 -2.48462 -1.24808 0 -2.03087 -0.935867 0 -1.66047 -0.697126 0 -1.36005 -0.514861 0 -1.11828 -0.375894 0 -0.925723 -0.270043 0 -0.774683 -0.189468 0 -0.659004 -0.128161 0 -0.573918 -0.0815519 0 -0.515914 -0.0462102 0 -0.482615 -0.0196145 0 -0.47276 8.9407e-08 0 45.8759 5.96046e-08 0 42.2902 -26.4562 0 28.6508 -45.6153 0 12.5918 -53.8128 0 -0.385833 -53.5211 0 -8.92604 -48.622 0 -13.6382 -41.9078 0 -15.601 -34.9575 0 -15.7929 -28.5389 0 -14.9478 -22.9562 0 -13.5667 -18.2709 0 -11.9709 -14.4283 0 -10.3548 -11.3257 0 -8.82761 -8.8484 0 -7.44421 -6.8862 0 -6.22574 -5.3414 0 -5.17349 -4.13084 0 -4.27786 -3.18564 0 -3.52388 -2.44978 0 -2.89467 -1.87822 0 -2.37335 -1.43513 0 -1.94418 -1.09212 0 -1.59304 -0.826873 0 -1.30765 -0.621856 0 -1.07753 -0.46336 0 -0.893946 -0.340682 0 -0.74975 -0.245487 0 -0.639227 -0.171293 0 -0.557964 -0.11308 0 -0.502731 -0.0669764 0 -0.471379 -0.030023 0 -0.462845 -1.49012e-07 0 41.0084 -5.96046e-08 0 37.9846 -24.3729 0 26.2973 -42.4425 0 12.1883 -50.8394 0 0.455778 -51.3741 0 -7.47994 -47.3546 0 -11.9984 -41.3465 0 -13.9946 -34.8902 0 -14.3301 -28.7844 0 -13.6711 -23.3792 0 -12.4823 -18.778 0 -11.0667 -14.9587 0 -9.6107 -11.8421 0 -8.22123 -9.3295 0 -6.95371 -7.32147 0 -5.8313 -5.72714 0 -4.85779 -4.4675 0 -4.02615 -3.47606 0 -3.32383 -2.698 0 -2.7361 -2.08878 0 -2.24793 -1.61256 0 -1.84512 -1.24073 0 -1.51487 -0.950574 0 -1.24592 -0.724106 0 -1.02868 -0.54714 0 -0.855107 -0.408498 0 -0.718605 -0.299386 0 -0.613908 -0.212885 0 -0.536956 -0.143549 0 -0.484798 -0.0870896 0 -0.455506 -0.0401265 0 -0.448194 1.19209e-07 0 36.5195 0 0 33.9607 -22.5958 0 23.9498 -39.6804 0 11.6037 -48.1765 0 1.07488 -49.3926 0 -6.22471 -46.1442 0 -10.4976 -40.7769 0 -12.4783 -34.7804 0 -12.9183 -28.9725 0 -12.4172 -23.7412 0 -11.4015 -19.2265 0 -10.1538 -15.4358 0 -8.85066 -12.3115 0 -7.59513 -9.77017 0 -6.44209 -7.7225 0 -5.4158 -6.08421 0 -4.52201 -4.78037 0 -3.75586 -3.74688 0 -3.10694 -2.93018 0 -2.56249 -2.28626 0 -2.10921 -1.7794 0 -1.73442 -1.3808 0 -1.42652 -1.06743 0 -1.17534 -0.82091 0 -0.972129 -0.626623 0 -0.809533 -0.472968 0 -0.681522 -0.35073 0 -0.583277 -0.252584 0 -0.511092 -0.172688 0 -0.462291 -0.106363 0 -0.435155 -0.049827 0 -0.428961 2.98023e-08 0 32.3504 -1.78814e-07 0 30.1825 -21.0806 0 21.6233 -37.2841 0 10.8736 -45.8086 0 1.50111 -47.5827 0 -5.1417 -45.0051 0 -9.12609 -40.2135 0 -11.0479 -34.6403 0 -11.557 -29.1125 0 -11.1874 -24.0485 0 -10.3265 -19.6204 0 -9.23485 -15.8617 0 -8.07734 -12.735 0 -6.95186 -10.1706 0 -5.91162 -8.08891 0 -4.98128 -6.4119 0 -4.16794 -5.06857 0 -3.46852 -3.99714 0 -2.87452 -3.14533 0 -2.37494 -2.46973 0 -1.95814 -1.93476 0 -1.61283 -1.51152 0 -1.32866 -1.17671 0 -1.09646 -0.911609 0 -0.908323 -0.701235 0 -0.7576 -0.533597 0 -0.638819 -0.399102 0 -0.547608 -0.290052 0 -0.480612 -0.200239 0 -0.435427 -0.124617 0 -0.410532 -0.0590305 0 -0.405347 -5.96046e-08 0 28.4519 -1.19209e-07 0 26.6173 -19.7915 0 19.3265 -35.2153 0 10.0273 -43.7198 0 1.76157 -45.9482 0 -4.21243 -43.9489 0 -7.87316 -39.6694 0 -9.69842 -34.481 0 -10.2445 -29.2126 0 -9.98214 -24.307 0 -9.25893 -19.9634 0 -8.31195 -16.2388 0 -7.29309 -13.1135 0 -6.29373 -10.531 0 -5.36452 -8.42044 0 -4.52974 -6.70963 0 -3.79735 -5.33131 0 -3.16569 -4.22596 0 -2.62789 -3.34256 0 -2.17459 -2.63831 0 -1.79567 -2.07781 0 -1.48119 -1.63212 0 -1.22197 -1.27771 0 -1.00985 -0.995593 0 -0.837761 -0.77044 0 -0.699734 -0.589926 0 -0.59086 -0.444116 0 -0.507217 -0.324973 0 -0.445797 -0.225957 0 -0.404463 -0.141683 0 -0.381883 -0.0676484 0 -0.377596 -2.98023e-08 0 24.7817 2.38419e-07 0 23.2359 -18.6997 0 17.064 -33.4411 0 9.08888 -41.8951 0 1.88079 -44.4904 0 -3.41888 -42.9852 0 -6.72753 -39.1558 0 -8.42369 -34.3124 0 -8.97836 -29.2808 0 -8.80115 -24.5223 0 -8.19983 -20.2592 0 -7.38688 -16.5691 0 -6.49996 -13.4483 0 -5.6229 -10.8518 0 -4.80286 -8.71697 0 -4.06311 -6.97694 0 -3.41198 -5.56795 0 -2.84892 -4.4326 0 -2.36843 -3.52109 0 -1.96264 -2.79122 0 -1.62283 -2.20782 0 -1.34037 -1.74191 0 -1.10721 -1.36982 0 -0.916163 -1.0723 0 -0.760987 -0.833746 0 -0.6364 -0.641529 0 -0.53805 -0.485412 0 -0.462459 -0.357056 0 -0.406968 -0.249617 0 -0.369696 -0.157405 0 -0.34949 -0.0755979 0 -0.345997 1.78814e-07 0 21.3034 -5.96046e-08 0 20.0115 -17.7817 0 14.8371 -31.9337 0 8.07783 -40.32 0 1.88087 -43.2093 0 -2.74358 -42.1213 0 -5.67753 -38.6821 0 -7.21691 -34.1434 0 -7.75517 -29.324 0 -7.64343 -24.6995 0 -7.14966 -20.5114 0 -6.46096 -16.855 0 -5.69974 -13.7405 0 -4.94131 -11.1335 0 -4.22859 -8.97845 0 -3.58327 -7.21346 0 -3.01359 -5.77792 0 -2.51977 -4.6164 0 -2.09753 -3.68022 0 -1.7403 -2.92777 0 -1.44069 -2.32412 0 -1.19129 -1.84028 0 -0.985162 -1.45247 0 -0.816072 -1.14123 0 -0.678587 -0.890704 0 -0.568105 -0.688018 0 -0.48083 -0.522662 0 -0.413725 -0.38603 0 -0.364477 -0.27101 0 -0.331455 -0.171638 0 -0.313676 -0.0828029 0 -0.310872 -5.96046e-08 0 17.9849 2.98023e-07 0 16.9198 -17.0187 0 12.6448 -30.6699 0 7.01014 -38.9815 0 1.78171 -42.1039 0 -2.16975 -41.3632 0 -4.71129 -38.2565 0 -6.07066 -33.9816 0 -6.57095 -29.3485 0 -6.50738 -24.8433 0 -6.10841 -20.7231 0 -5.53515 -17.0983 0 -4.89394 -13.9913 0 -4.25074 -11.3765 0 -3.64359 -9.20488 0 -3.09202 -7.41892 0 -2.60386 -5.96078 0 -2.17981 -4.77681 0 -1.81658 -3.81936 0 -1.50881 -3.04736 0 -1.25033 -2.42612 0 -1.0349 -1.92668 0 -0.856659 -1.52515 0 -0.710295 -1.20191 0 -0.591183 -0.940914 0 -0.495392 -0.729045 0 -0.419675 -0.555571 0 -0.36144 -0.411655 0 -0.31871 -0.289951 0 -0.290102 -0.184251 0 -0.274792 -0.0891946 0 -0.272583 -8.9407e-08 0 14.7979 -2.98023e-07 0 13.9383 -16.3957 0 10.4845 -29.6305 0 5.89876 -37.8683 0 1.60118 -41.1725 0 -1.6813 -40.7152 0 -3.81678 -37.8856 0 -4.97703 -33.8337 0 -5.42115 -29.3599 0 -5.39089 -24.9577 0 -5.07563 -20.8972 0 -4.61009 -17.3009 0 -4.08383 -14.2015 0 -3.55281 -11.5812 0 -3.04959 -9.39634 0 -2.59113 -7.5931 0 -2.18448 -6.11615 0 -1.8306 -4.91335 0 -1.52702 -3.93798 0 -1.26945 -3.14947 0 -1.05288 -2.51332 0 -0.872198 -2.00063 0 -0.722562 -1.58743 0 -0.599585 -1.25397 0 -0.499429 -0.984024 0 -0.418831 -0.764304 0 -0.355092 -0.58388 0 -0.306055 -0.433719 0 -0.270082 -0.306273 0 -0.246028 -0.19513 0 -0.233221 -0.094712 0 -0.231521 -8.9407e-08 0 11.7165 -1.19209e-07 0 11.0465 -15.9006 0 8.35221 -28.7998 0 4.75426 -36.9705 0 1.35545 -40.4134 0 -1.26282 -40.1809 0 -2.98198 -37.5749 0 -3.92775 -33.7053 0 -4.30071 -29.3628 0 -4.29137 -25.0464 0 -4.05049 -21.0361 0 -3.68611 -17.4644 0 -3.27047 -14.3723 0 -2.84898 -11.7481 0 -2.44825 -9.5529 0 -2.0823 -7.73586 0 -1.75711 -6.24372 0 -1.4737 -5.02563 0 -1.23026 -4.03566 0 -1.0235 -3.23365 0 -0.849486 -2.58529 0 -0.704186 -2.06173 0 -0.583759 -1.63893 0 -0.484719 -1.29705 0 -0.404008 -1.01973 0 -0.339023 -0.793535 0 -0.28761 -0.607367 0 -0.248048 -0.452037 0 -0.21903 -0.319834 0 -0.199647 -0.204176 0 -0.189371 -0.0993026 0 -0.188105 1.49012e-07 0 8.71743 0 0 8.22479 -15.5242 0 6.24316 -28.1655 0 3.58534 -36.28 0 1.05927 -39.8246 0 -0.899537 -39.7626 0 -2.19485 -37.3288 0 -2.91425 -33.6006 0 -3.20421 -29.361 0 -3.20587 -25.1124 0 -3.03185 -21.142 0 -2.7633 -17.5902 0 -2.45473 -14.5043 0 -2.14059 -11.8776 0 -1.84115 -9.67466 0 -1.56718 -7.84709 0 -1.32338 -6.34326 0 -1.11065 -5.11337 0 -0.927746 -4.11207 0 -0.772267 -3.29956 0 -0.641316 -2.64169 0 -0.531902 -2.10964 0 -0.441164 -1.67935 0 -0.366499 -1.33089 0 -0.305624 -1.0478 0 -0.25659 -0.81652 0 -0.217784 -0.625847 0 -0.187918 -0.466459 0 -0.166014 -0.330517 0 -0.151395 -0.211305 0 -0.143671 -0.102923 0 -0.142776 0 0 5.77868 -2.38419e-07 0 5.45484 -15.2597 0 4.152 -27.7182 0 2.39926 -35.7905 0 0.726239 -39.4046 0 -0.577164 -39.4622 0 -1.44343 -37.1504 0 -1.92776 -33.5233 0 -2.12591 -29.3576 0 -2.13114 -25.1579 0 -2.0183 -21.2166 0 -1.84154 -17.6794 0 -1.63735 -14.5983 0 -1.42887 -11.9701 0 -1.22977 -9.76171 0 -1.04738 -7.92673 0 -0.884886 -6.41461 0 -0.742991 -5.17631 0 -0.620903 -4.16693 0 -0.517059 -3.34692 0 -0.42955 -2.68224 0 -0.356398 -2.14411 0 -0.295707 -1.70845 0 -0.245748 -1.35526 0 -0.205001 -1.06802 0 -0.172171 -0.83309 0 -0.146183 -0.639175 0 -0.126179 -0.476865 0 -0.11151 -0.338228 0 -0.101725 -0.216454 0 -0.0965671 -0.105538 0 -0.0959976 2.98023e-08 0 2.87953 2.38419e-07 0 2.71896 -15.1023 0 2.07295 -27.4514 0 1.20229 -35.4975 0 0.369089 -39.1521 0 -0.281845 -39.2808 0 -0.71577 -37.042 0 -0.959343 -33.4757 0 -1.05987 -29.3547 0 -1.06373 -25.1846 0 -1.00826 -21.261 0 -0.920561 -17.7328 0 -0.818927 -14.6547 0 -0.714975 -12.0256 0 -0.615589 -9.81412 0 -0.524464 -7.97472 0 -0.443234 -6.45764 0 -0.372264 -5.21429 0 -0.311175 -4.20005 0 -0.259195 -3.37552 0 -0.215378 -2.70675 0 -0.17874 -2.16495 0 -0.148335 -1.72604 0 -0.1233 -1.37 0 -0.102878 -1.08026 0 -0.0864201 -0.843122 0 -0.0733907 -0.647247 0 -0.0633609 -0.483169 0 -0.0560062 -0.342901 0 -0.051102 -0.219575 0 -0.0485206 -0.107124 0 -0.0482439 -2.68221e-07 0 1.49012e-07 -1.19209e-06 0 -5.68107e-08 -15.0491 0 5.96046e-08 -27.3611 0 -6.89179e-08 -35.3982 0 4.65661e-08 -39.0664 0 -2.98023e-08 -39.219 0 5.96046e-08 -37.005 0 -5.96046e-08 -33.4594 0 4.09782e-08 -29.3535 0 0 -25.1935 0 -1.49012e-08 -21.276 0 -7.45058e-09 -17.7509 0 7.45058e-09 -14.6739 0 1.49012e-08 -12.0445 0 -1.49012e-08 -9.83193 0 7.45058e-09 -7.99104 0 2.23517e-08 -6.47228 0 2.98023e-08 -5.22721 0 -2.98023e-08 -4.21133 0 0 -3.38526 0 4.47035e-08 -2.71509 0 -1.49012e-08 -2.17205 0 -1.49012e-08 -1.73204 0 2.98023e-08 -1.37502 0 -4.47035e-08 -1.08443 0 2.98023e-08 -0.846542 0 -2.98023e-08 -0.649999 0 5.96046e-08 -0.485319 0 -8.9407e-08 -0.344495 0 1.19209e-07 -0.220639 0 -2.5332e-07 -0.107665 0 5.66244e-07 9.53674e-07 0 </DataArray> 
</PointData> 
<Points> 
<DataArray type="Float32" NumberOfComponents="3"> 