<?xml version="1.0"?> 
<VTKFile type="StructuredGrid" version="0.1"> 
<StructuredGrid WholeExtent="0 31 0 31 0 0"> 
<Piece Extent="0 31 0 31 0 0"> 
<PointData>
<DataArray type="Float32" Name="|E|" format="ascii" NumberOfComponents="3"> 
5.96046e-07 5.73615e+06 0 -6.70552e-07 3.41543e+06 0 5.28991e-07 2.60601e+06 0 -4.32134e-07 2.07378e+06 0 2.23517e-07 1.6972e+06 0 -1.04308e-07 1.39614e+06 0 3.42727e-07 1.14869e+06 0 -1.19209e-07 938890 0 -1.93715e-07 759148 0 2.38419e-07 604503 0 -1.19209e-07 471978 0 1.19209e-07 359561 0 -2.98023e-08 265777 0 0 189344 0 1.19209e-07 128950 0 -1.19209e-07 83087.9 0 2.98023e-08 49979.5 0 1.78814e-07 27567.1 0 0 13596.2 0 0 5775.89 0 0 1988.52 0 5.96046e-08 494.876 0 -5.96046e-08 68.0918 0 -1.19209e-07 3.69475 0 -5.96046e-08 4.45959 0 1.19209e-07 1.15057 0 -1.19209e-07 -1.70989 0 1.19209e-07 -0.39865 0 -1.78814e-07 0.663666 0 -2.38419e-07 0.0615616 0 1.78814e-07 -0.267506 0 5.96046e-07 -8.38861e+06 0 -1.66472e+06 3.97137e+06 0 -721249 3.27777e+06 0 -448937 2.58249e+06 0 -306935 2.11232e+06 0 -232202 1.74638e+06 0 -183014 1.45455e+06 0 -148726 1.21006e+06 0 -122787 1.0016e+06 0 -102070 821384 0 -84843.9 664938 0 -70077 529351 0 -57191.5 412715 0 -45855.5 313674 0 -35903.2 231134 0 -27266.5 164044 0 -19929.3 111240 0 -13889.2 71343.5 0 -9124.52 42710.2 0 -5569.58 23452.8 0 -3100.09 11529.8 0 -1534.46 4898.18 0 -652.112 1700.21 0 -225.991 436.191 0 -58.9998 66.5552 0 -10.4119 3.88883 0 -1.41545 2.05291 0 -0.399044 0.667568 0 -0.0311033 -0.69958 0 0.062694 -0.188375 0 -0.00356811 0.127344 0 -0.00915402 -0.00539884 0 0.0126571 0.274692 0 -1.96125e+06 3.07321e+06 0 -1.26232e+06 2.83119e+06 0 -847414 2.44366e+06 0 -619332 2.07171e+06 0 -476124 1.75587e+06 0 -381286 1.48615e+06 0 -312672 1.25435e+06 0 -260376 1.05244e+06 0 -218414 875428 0 -183443 719772 0 -153438 583150 0 -127176 463976 0 -103941 361127 0 -83335.2 273727 0 -65176.1 200973 0 -49406 141996 0 -36027.8 95766.6 0 -25045.8 61019.4 0 -16414.5 36241.3 0 -9999.89 19705.1 0 -5560.32 9563.12 0 -2753.74 3989.65 0 -1174.09 1345.97 0 -410.07 327.11 0 -108.754 42.6495 0 -19.7081 0.225443 0 -2.64808 1.01545 0 -0.672535 0.435399 0 -0.0621507 -0.259645 0 0.0961889 0.0329646 0 -0.0126472 -0.0980269 0 -0.0206119 -0.221159 0 -2.0319e+06 2.5047e+06 0 -1.5426e+06 2.43346e+06 0 -1.16507e+06 2.22529e+06 0 -901471 1.97161e+06 0 -718458 1.71992e+06 0 -586744 1.48735e+06 0 -488153 1.27692e+06 0 -411010 1.08785e+06 0 -348352 918291 0 -295737 766557 0 -250380 631307 0 -210510 511544 0 -175027 406533 0 -143288 315690 0 -114956 238481 0 -89903.2 174321 0 -68121.3 122486 0 -49649.1 82050.8 0 -34502.8 51852.2 0 -22615 30488.5 0 -13790 16370.4 0 -7684.3 7817.32 0 -3820.5 3191.18 0 -1639.21 1044.05 0 -578.007 242.678 0 -155.364 30.2402 0 -28.5437 1.24806 0 -3.73131 1.12648 0 -0.885779 0.100234 0 -0.0793438 0.110164 0 0.130387 0.403956 0 -0.0660432 -0.466559 0 -2.03726e+06 2.12382e+06 0 -1.6988e+06 2.10531e+06 0 -1.39076e+06 1.99725e+06 0 -1.14002e+06 1.83332e+06 0 -943489 1.64686e+06 0 -790462 1.45762e+06 0 -669433 1.27558e+06 0 -571505 1.10496e+06 0 -490177 947266 0 -420948 802867 0 -360723 671682 0 -307414 553522 0 -259646 448175 0 -216558 355445 0 -177665 275108 0 -142747 206871 0 -111765 150306 0 -84778 104804 0 -61869.8 69528.6 0 -43073.9 43400.3 0 -28308.5 25115.4 0 -17329.3 13203.1 0 -9710.33 6123.73 0 -4865.17 2396.95 0 -2109.17 736.13 0 -753.703 156.197 0 -205.729 20.074 0 -38.1302 4.92402 0 -4.73215 2.16248 0 -1.03944 -0.461637 0 -0.0716787 0.258459 0 0.24756 1.29364 0 -2.03751e+06 1.8469e+06 0 -1.79287e+06 1.84479e+06 0 -1.55137e+06 1.78549e+06 0 -1.33214e+06 1.68122e+06 0 -1.14302e+06 1.54831e+06 0 -983671 1.40134e+06 0 -850128 1.25052e+06 0 -737438 1.10224e+06 0 -641098 960171 0 -557432 826389 0 -483630 702057 0 -417626 587841 0 -357962 484151 0 -303662 391236 0 -254131 309232 0 -209067 238154 0 -168387 177877 0 -132155 128090 0 -100506 88271.8 0 -73577.2 57657.9 0 -51426.9 35242.3 0 -33971.4 19803.7 0 -20935.2 9970.23 0 -11833.2 4318.83 0 -5995.19 1498.62 0 -2635.58 356.369 0 -957.603 32.5782 0 -265.882 -3.16604 0 -49.4921 6.3243 0 -5.66074 3.09923 0 -1.13928 -1.54378 0 0.0197367 0.0812597 0 -2.04269e+06 1.63596e+06 0 -1.85984e+06 1.63517e+06 0 -1.67016e+06 1.59918e+06 0 -1.48589e+06 1.53072e+06 0 -1.31485e+06 1.43678e+06 0 -1.16084e+06 1.32559e+06 0 -1.02432e+06 1.20469e+06 0 -903914 1.08004e+06 0 -797451 955950 0 -702658 835407 0 -617487 720449 0 -540248 612480 0 -469636 512489 0 -404709 421185 0 -344848 339078 0 -289709 266508 0 -239175 203649 0 -193305 150489 0 -152267 106810 0 -116281 72156 0 -85542 45826.1 0 -60146.5 26875 0 -40025.5 14150 0 -24893.8 6359.03 0 -14232.3 2170.27 0 -7312.38 333.368 0 -3268.8 -200.521 0 -1210.03 -189.038 0 -341.586 -69.6146 0 -63.2924 -6.77751 0 -6.38048 -0.110941 0 -1.29656 -4.37426 0 -2.05701e+06 1.46805e+06 0 -1.91519e+06 1.46398e+06 0 -1.76437e+06 1.43801e+06 0 -1.61134e+06 1.38993e+06 0 -1.46185e+06 1.32203e+06 0 -1.31997e+06 1.23819e+06 0 -1.18794e+06 1.14295e+06 0 -1.06646e+06 1.04065e+06 0 -955250 935047 0 -853432 829199 0 -759927 725481 0 -673662 625723 0 -593692 531337 0 -519267 443415 0 -449851 362808 0 -385127 290163 0 -324979 225943 0 -269461 170423 0 -218766 123677 0 -173174 85552.9 0 -132988 55655 0 -98474.9 33334 0 -69782.3 17697.6 0 -46876.4 7648.75 0 -29487.6 1955.82 0 -17090.2 -647.33 0 -8923.26 -1341.38 0 -4062.27 -1102.64 0 -1531.71 -614.255 0 -437.091 -237.476 0 -78.9427 -63.6631 0 -2.88514 -8.19056 0 -2.08032e+06 1.33007e+06 0 -1.96691e+06 1.32145e+06 0 -1.84478e+06 1.29908e+06 0 -1.7176e+06 1.26195e+06 0 -1.58896e+06 1.2104e+06 0 -1.46203e+06 1.14593e+06 0 -1.33917e+06 1.07081e+06 0 -1.22187e+06 987733 0 -1.11088e+06 899391 0 -1.00634e+06 808310 0 -908057 716711 0 -815596 626488 0 -728481 539230 0 -646264 456258 0 -568598 378665 0 -495262 307349 0 -426187 243022 0 -361451 186218 0 -301265 137280 0 -245950 96344.9 0 -195891 63316.9 0 -151486 37852.3 0 -113080 19350.3 0 -80892.6 6965.3 0 -54948 -355.295 0 -35020.8 -3800.85 0 -20608.7 -4598.03 0 -10947.1 -3890.65 0 -5074.14 -2618.87 0 -1940.44 -1422.98 0 -553.331 -623.662 0 -73.3321 -178.507 0 -2.11195e+06 1.2138e+06 0 -2.01886e+06 1.20077e+06 0 -1.91812e+06 1.17892e+06 0 -1.81161e+06 1.14725e+06 0 -1.70144e+06 1.10544e+06 0 -1.58969e+06 1.05385e+06 0 -1.47822e+06 993437 0 -1.36852e+06 925608 0 -1.26166e+06 852043 0 -1.15833e+06 774529 0 -1.05886e+06 694830 0 -963352 614609 0 -871767 535383 0 -783986 458511 0 -699895 385191 0 -619429 316466 0 -542610 253227 0 -469565 196211 0 -400534 145992 0 -335869 102959 0 -276006 67298.8 0 -221436 38968.1 0 -172656 17673.8 0 -130103 2863.84 0 -94086.5 -6263.71 0 -64716.8 -10724.6 0 -41844.1 -11681.8 0 -25024.2 -10347.7 0 -13522.4 -7864.74 0 -6363.26 -5172.18 0 -2452.24 -2939.97 0 -628.795 -1330.72 0 -2.15098e+06 1.11407e+06 0 -2.07296e+06 1.09717e+06 0 -1.98846e+06 1.07445e+06 0 -1.89838e+06 1.04514e+06 0 -1.80388e+06 1.00879e+06 0 -1.70621e+06 965314 0 -1.60662e+06 914987 0 -1.50628e+06 858446 0 -1.40618e+06 796607 0 -1.3071e+06 730583 0 -1.20964e+06 661608 0 -1.11418e+06 590964 0 -1.02098e+06 519923 0 -930198 449712 0 -841933 381487 0 -756286 316318 0 -673390 255176 0 -593443 198921 0 -516723 148291 0 -443605 103877 0 -374556 66108.1 0 -310119 35214.5 0 -250888 11205.7 0 -197460 -6156.33 0 -150381 -17370.2 0 -110069 -23191.1 0 -76749.3 -24600.9 0 -50383.8 -22747 0 -30627.4 -18851.8 0 -16809.4 -14079.6 0 -8003.98 -9464.9 0 -2974.73 -5529.96 0 -2.19663e+06 1.02749e+06 0 -2.13019e+06 1.00733e+06 0 -2.05829e+06 983197 0 -1.98135e+06 954554 0 -1.89993e+06 921003 0 -1.81474e+06 882327 0 -1.72653e+06 838529 0 -1.63609e+06 789830 0 -1.54416e+06 736671 0 -1.45141e+06 679674 0 -1.35842e+06 619620 0 -1.26569e+06 557395 0 -1.17358e+06 493960 0 -1.08242e+06 430312 0 -992453 367453 0 -903903 306369 0 -817004 248009 0 -732016 193266 0 -649255 142958 0 -569113 97810 0 -492063 58428.3 0 -418668 25270.3 0 -349564 -1384.92 0 -285441 -21470.2 0 -226999 -35159 0 -174900 -42885.5 0 -129695 -45348.6 0 -91751.3 -43490.5 0 -61183.9 -38449.2 0 -37783.9 -31457.6 0 -21034.1 -23793.6 0 -9952.44 -16378.2 0 -2.24824e+06 951862 0 -2.191e+06 928993 0 -2.12916e+06 903299 0 -2.06287e+06 874420 0 -1.99238e+06 842056 0 -1.91803e+06 805999 0 -1.84024e+06 766157 0 -1.75947e+06 722570 0 -1.67621e+06 675419 0 -1.59093e+06 625025 0 -1.50409e+06 571840 0 -1.41612e+06 516433 0 -1.3274e+06 459471 0 -1.23827e+06 401697 0 -1.14904e+06 343906 0 -1.05998e+06 286930 0 -971389 231615 0 -883554 178801 0 -796811 129308 0 -711548 83911.5 0 -628226 43319.2 0 -547388 8146.87 0 -469666 -21114.7 0 -395770 -44133.8 0 -326473 -60774.4 0 -262579 -71130.2 0 -204870 -75553.5 0 -154043 -74667 0 -110641 -69360.7 0 -74961.8 -60739.2 0 -47024.8 -50104 0 -26381.1 -38654.3 0 -2.30527e+06 885708 0 -2.25558e+06 860611 0 -2.202e+06 833399 0 -2.14452e+06 803839 0 -2.08323e+06 771723 0 -2.01827e+06 736890 0 -1.94983e+06 699239 0 -1.87813e+06 658743 0 -1.80346e+06 615464 0 -1.72609e+06 569554 0 -1.64634e+06 521264 0 -1.5645e+06 470940 0 -1.48088e+06 419020 0 -1.39577e+06 366023 0 -1.30943e+06 312540 0 -1.22215e+06 259224 0 -1.13419e+06 206773 0 -1.04585e+06 155920 0 -957434 107416 0 -869304 62012.1 0 -781879 20443.6 0 -695649 -16595.7 0 -611195 -48479.1 0 -529185 -74678.4 0 -450382 -94800.3 0 -375623 -108625 0 -305799 -116147 0 -241814 -117611 0 -184521 -113535 0 -134651 -104718 0 -92750.1 -92237.7 0 -59030.4 -77332.6 0 -2.36728e+06 828081 0 -2.32398e+06 801153 0 -2.27736e+06 772551 0 -2.22735e+06 742125 0 -2.17394e+06 709738 0 -2.11715e+06 675275 0 -2.05704e+06 638655 0 -1.99368e+06 599838 0 -1.92721e+06 558836 0 -1.85775e+06 515722 0 -1.78547e+06 470631 0 -1.71055e+06 423771 0 -1.63317e+06 375420 0 -1.55353e+06 325930 0 -1.47183e+06 275719 0 -1.38828e+06 225274 0 -1.30309e+06 175141 0 -1.2165e+06 125917 0 -1.12877e+06 78243.7 0 -1.04018e+06 32796.9 0 -951093 -9729.14 0 -861910 -48635.9 0 -773117 -83241.1 0 -685291 -112903 0 -599106 -137050 0 -515343 -155218 0 -434876 -167086 0 -358661 -172526 0 -287705 -171642 0 -223009 -164807 0 -165510 -152686 0 -116023 -136283 0 -2.43387e+06 778381 0 -2.39614e+06 749958 0 -2.35556e+06 720132 0 -2.31203e+06 688805 0 -2.26549e+06 655887 0 -2.21591e+06 621301 0 -2.16325e+06 584988 0 -2.10752e+06 546914 0 -2.04873e+06 507075 0 -1.98693e+06 465507 0 -1.92215e+06 422286 0 -1.85449e+06 377536 0 -1.784e+06 331437 0 -1.71081e+06 284221 0 -1.635e+06 236180 0 -1.55671e+06 187664 0 -1.47606e+06 139082 0 -1.39322e+06 90899.6 0 -1.30835e+06 43636.3 0 -1.22167e+06 -2139.17 0 -1.13341e+06 -45815.5 0 -1.04389e+06 -86747.5 0 -953456 -124268 0 -862558 -157704 0 -771733 -186397 0 -681621 -209728 0 -592979 -227152 0 -506680 -238236 0 -423705 -242701 0 -345132 -240480 0 -272068 -231732 0 -205723 -217022 0 -2.50468e+06 736260 0 -2.47193e+06 706632 0 -2.43671e+06 675761 0 -2.39894e+06 643585 0 -2.35852e+06 610042 0 -2.3154e+06 575079 0 -2.26949e+06 538656 0 -2.22075e+06 500746 0 -2.16914e+06 461342 0 -2.11463e+06 420462 0 -2.05719e+06 378151 0 -1.99683e+06 334486 0 -1.93353e+06 289582 0 -1.86733e+06 243595 0 -1.79824e+06 196726 0 -1.7263e+06 149221 0 -1.65156e+06 101380 0 -1.57408e+06 53551.6 0 -1.49394e+06 6139.16 0 -1.41127e+06 -40402 0 -1.32618e+06 -85564.6 0 -1.23886e+06 -128793 0 -1.14955e+06 -169486 0 -1.05852e+06 -207008 0 -966141 -240695 0 -872880 -269875 0 -779299 -293881 0 -686085 -312089 0 -594054 -323938 0 -504168 -328994 0 -417481 -326949 0 -335304 -317846 0 -2.57935e+06 701549 0 -2.55115e+06 670970 0 -2.52082e+06 639243 0 -2.48827e+06 606324 0 -2.45342e+06 572167 0 -2.41618e+06 536734 0 -2.37646e+06 499996 0 -2.33419e+06 461930 0 -2.28929e+06 422529 0 -2.24169e+06 381799 0 -2.19134e+06 339768 0 -2.13817e+06 296482 0 -2.08214e+06 252017 0 -2.02319e+06 206475 0 -1.96129e+06 159991 0 -1.8964e+06 112740 0 -1.82851e+06 64931.3 0 -1.7576e+06 16821.1 0 -1.68367e+06 -31290.2 0 -1.60674e+06 -79053.4 0 -1.52683e+06 -126069 0 -1.44401e+06 -171886 0 -1.35838e+06 -216000 0 -1.27008e+06 -257857 0 -1.1793e+06 -296854 0 -1.08629e+06 -332346 0 -991423 -363654 0 -895131 -390077 0 -797985 -410914 0 -700696 -425499 0 -604090 -433193 0 -509299 -433586 0 -2.65751e+06 674201 0 -2.63354e+06 642905 0 -2.60775e+06 610514 0 -2.58005e+06 576992 0 -2.55035e+06 542304 0 -2.51856e+06 506417 0 -2.4846e+06 469305 0 -2.44837e+06 430950 0 -2.40979e+06 391339 0 -2.36877e+06 350473 0 -2.32522e+06 308362 0 -2.27907e+06 265034 0 -2.23022e+06 220534 0 -2.1786e+06 174927 0 -2.12412e+06 128302 0 -2.0667e+06 80774.1 0 -2.00627e+06 32488.8 0 -1.94276e+06 -16375.4 0 -1.8761e+06 -65603.2 0 -1.80623e+06 -114939 0 -1.73311e+06 -164085 0 -1.65669e+06 -212695 0 -1.57696e+06 -260373 0 -1.49393e+06 -306671 0 -1.40764e+06 -351086 0 -1.31818e+06 -393060 0 -1.22568e+06 -431978 0 -1.13036e+06 -467175 0 -1.03251e+06 -497938 0 -932545 -523525 0 -830964 -543150 0 -728546 -556122 0 -2.73873e+06 654252 0 -2.71878e+06 622460 0 -2.69728e+06 589602 0 -2.67414e+06 555644 0 -2.64929e+06 520554 0 -2.62263e+06 484303 0 -2.59409e+06 446866 0 -2.56357e+06 408220 0 -2.53099e+06 368349 0 -2.49625e+06 327245 0 -2.45926e+06 284908 0 -2.41992e+06 241347 0 -2.37813e+06 196584 0 -2.33379e+06 150655 0 -2.28679e+06 103612 0 -2.23704e+06 55526.9 0 -2.18443e+06 6491.73 0 -2.12884e+06 -43376.2 0 -2.07017e+06 -93932.4 0 -2.0083e+06 -145002 0 -1.94314e+06 -196374 0 -1.87457e+06 -247803 0 -1.8025e+06 -298997 0 -1.72684e+06 -349621 0 -1.64751e+06 -399290 0 -1.56446e+06 -447563 0 -1.47766e+06 -493941 0 -1.38712e+06 -537864 0 -1.2929e+06 -578708 0 -1.19513e+06 -615786 0 -1.09401e+06 -648336 0 -989887 -675587 0 -2.82257e+06 641791 0 -2.80648e+06 609718 0 -2.78909e+06 576592 0 -2.77031e+06 542383 0 -2.75007e+06 507058 0 -2.72831e+06 470588 0 -2.70494e+06 432944 0 -2.67988e+06 394100 0 -2.65303e+06 354037 0 -2.62432e+06 312735 0 -2.59365e+06 270184 0 -2.56092e+06 226378 0 -2.52603e+06 181320 0 -2.48887e+06 135023 0 -2.44934e+06 87508 0 -2.40731e+06 38811.9 0 -2.36266e+06 -11015.1 0 -2.31528e+06 -61905.8 0 -2.26503e+06 -113774 0 -2.21177e+06 -166510 0 -2.15537e+06 -219981 0 -2.09568e+06 -274026 0 -2.03255e+06 -328451 0 -1.96583e+06 -383025 0 -1.89537e+06 -437481 0 -1.82103e+06 -491503 0 -1.74267e+06 -544727 0 -1.66015e+06 -596733 0 -1.57336e+06 -647040 0 -1.48222e+06 -695100 0 -1.38668e+06 -740289 0 -1.28676e+06 -781919 0 -2.90854e+06 636931 0 -2.89619e+06 604786 0 -2.88277e+06 571600 0 -2.8682e+06 537339 0 -2.85242e+06 501971 0 -2.83537e+06 465464 0 -2.81697e+06 427785 0 -2.79716e+06 388907 0 -2.77585e+06 348800 0 -2.75296e+06 307441 0 -2.7284e+06 264807 0 -2.70209e+06 220880 0 -2.67393e+06 175646 0 -2.64382e+06 129098 0 -2.61165e+06 81235.2 0 -2.5773e+06 32064.6 0 -2.54066e+06 -18397.5 0 -2.5016e+06 -70123.9 0 -2.45998e+06 -123075 0 -2.41567e+06 -177196 0 -2.3685e+06 -232417 0 -2.31833e+06 -288648 0 -2.26498e+06 -345776 0 -2.20828e+06 -403665 0 -2.14805e+06 -462151 0 -2.08408e+06 -521036 0 -2.01618e+06 -580084 0 -1.94414e+06 -639021 0 -1.86776e+06 -697522 0 -1.78682e+06 -755209 0 -1.70112e+06 -811644 0 -1.61045e+06 -866312 0 -2.99607e+06 639784 0 -2.9874e+06 607779 0 -2.97785e+06 574743 0 -2.96737e+06 540642 0 -2.95592e+06 505442 0 -2.94344e+06 469109 0 -2.92987e+06 431607 0 -2.91513e+06 392903 0 -2.89918e+06 352965 0 -2.88193e+06 311760 0 -2.86332e+06 269258 0 -2.84325e+06 225429 0 -2.82165e+06 180248 0 -2.79843e+06 133691 0 -2.77348e+06 85738.7 0 -2.74671e+06 36374.9 0 -2.718e+06 -14410.3 0 -2.68724e+06 -66621.2 0 -2.65431e+06 -120255 0 -2.61906e+06 -175299 0 -2.58135e+06 -231734 0 -2.54103e+06 -289526 0 -2.49793e+06 -348628 0 -2.45188e+06 -408981 0 -2.40268e+06 -470505 0 -2.35014e+06 -533101 0 -2.29404e+06 -596645 0 -2.23415e+06 -660989 0 -2.17022e+06 -725950 0 -2.10199e+06 -791312 0 -2.0292e+06 -856816 0 -1.95154e+06 -922147 0 -3.0846e+06 650446 0 -3.07952e+06 618792 0 -3.07378e+06 586123 0 -3.06732e+06 552403 0 -3.06009e+06 517597 0 -3.05206e+06 481668 0 -3.04318e+06 444581 0 -3.0334e+06 406296 0 -3.02265e+06 366779 0 -3.01088e+06 325990 0 -2.99804e+06 283893 0 -2.98404e+06 240452 0 -2.96883e+06 195629 0 -2.95232e+06 149389 0 -2.93443e+06 101700 0 -2.91508e+06 52527.1 0 -2.89417e+06 1841.61 0 -2.8716e+06 -50384.5 0 -2.84726e+06 -104176 0 -2.82103e+06 -159552 0 -2.79278e+06 -216529 0 -2.76239e+06 -275118 0 -2.7297e+06 -335322 0 -2.69455e+06 -397137 0 -2.65677e+06 -460549 0 -2.61618e+06 -525535 0 -2.57257e+06 -592058 0 -2.52573e+06 -660068 0 -2.47543e+06 -729497 0 -2.42141e+06 -800256 0 -2.36339e+06 -872239 0 -2.30107e+06 -945296 0 -3.17347e+06 668978 0 -3.17196e+06 637889 0 -3.16996e+06 605806 0 -3.16743e+06 572695 0 -3.16435e+06 538519 0 -3.16068e+06 503241 0 -3.15638e+06 466823 0 -3.15142e+06 429225 0 -3.14574e+06 390409 0 -3.13931e+06 350332 0 -3.13207e+06 308953 0 -3.12397e+06 266231 0 -3.11497e+06 222121 0 -3.10498e+06 176582 0 -3.09396e+06 129569 0 -3.08183e+06 81037.6 0 -3.06852e+06 30945.3 0 -3.05394e+06 -20752.2 0 -3.038e+06 -74098 0 -3.02062e+06 -129134 0 -3.00169e+06 -185903 0 -2.98109e+06 -244444 0 -2.95871e+06 -304795 0 -2.93442e+06 -366991 0 -2.90807e+06 -431066 0 -2.87951e+06 -497048 0 -2.84858e+06 -564962 0 -2.81509e+06 -634827 0 -2.77884e+06 -706655 0 -2.73961e+06 -780452 0 -2.69719e+06 -856214 0 -2.65128e+06 -933918 0 -3.26203e+06 695394 0 -3.26405e+06 665083 0 -3.26574e+06 633809 0 -3.26709e+06 601539 0 -3.26807e+06 568236 0 -3.26867e+06 533864 0 -3.26885e+06 498383 0 -3.26859e+06 461753 0 -3.26785e+06 423935 0 -3.2666e+06 384886 0 -3.26481e+06 344561 0 -3.26244e+06 302916 0 -3.25944e+06 259904 0 -3.25578e+06 215479 0 -3.2514e+06 169590 0 -3.24626e+06 122187 0 -3.24029e+06 73218.8 0 -3.23345e+06 22631.8 0 -3.22565e+06 -29628.3 0 -3.21684e+06 -83617.3 0 -3.20694e+06 -139392 0 -3.19585e+06 -197011 0 -3.1835e+06 -256533 0 -3.16978e+06 -318017 0 -3.15459e+06 -381527 0 -3.13782e+06 -447122 0 -3.11932e+06 -514865 0 -3.09898e+06 -584819 0 -3.07663e+06 -657046 0 -3.05211e+06 -731609 0 -3.02525e+06 -808570 0 -2.99583e+06 -887987 0 -3.3496e+06 729648 0 -3.35509e+06 700328 0 -3.36043e+06 670088 0 -3.3656e+06 638894 0 -3.37058e+06 606711 0 -3.37535e+06 573503 0 -3.37991e+06 539232 0 -3.38423e+06 503861 0 -3.3883e+06 467347 0 -3.39209e+06 429650 0 -3.39557e+06 390726 0 -3.39874e+06 350529 0 -3.40155e+06 309013 0 -3.40398e+06 266128 0 -3.406e+06 221824 0 -3.40758e+06 176048 0 -3.40867e+06 128746 0 -3.40925e+06 79860 0 -3.40926e+06 29331.1 0 -3.40866e+06 -22902.2 0 -3.4074e+06 -76903.9 0 -3.40542e+06 -132741 0 -3.40266e+06 -190482 0 -3.39906e+06 -250199 0 -3.39454e+06 -311968 0 -3.38903e+06 -375867 0 -3.38245e+06 -441976 0 -3.37469e+06 -510380 0 -3.36566e+06 -581168 0 -3.35525e+06 -654431 0 -3.34333e+06 -730265 0 -3.32978e+06 -808767 0 -3.43546e+06 771625 0 -3.4444e+06 743512 0 -3.45334e+06 714529 0 -3.46226e+06 684645 0 -3.47116e+06 653830 0 -3.48002e+06 622047 0 -3.48885e+06 589262 0 -3.49764e+06 555439 0 -3.50637e+06 520538 0 -3.51504e+06 484521 0 -3.52362e+06 447345 0 -3.53213e+06 408967 0 -3.54052e+06 369343 0 -3.54881e+06 328425 0 -3.55696e+06 286164 0 -3.56496e+06 242509 0 -3.57279e+06 197405 0 -3.58042e+06 150797 0 -3.58785e+06 102626 0 -3.59504e+06 52830.9 0 -3.60195e+06 1346.75 0 -3.60858e+06 -51893.7 0 -3.61487e+06 -106961 0 -3.62079e+06 -163930 0 -3.62631e+06 -222878 0 -3.63138e+06 -283886 0 -3.63595e+06 -347042 0 -3.63997e+06 -412435 0 -3.64339e+06 -480160 0 -3.64613e+06 -550319 0 -3.64814e+06 -623016 0 -3.64934e+06 -698363 0 -3.51892e+06 821141 0 -3.53127e+06 794443 0 -3.54375e+06 766941 0 -3.55635e+06 738604 0 -3.56909e+06 709401 0 -3.58195e+06 679303 0 -3.59495e+06 648276 0 -3.60807e+06 616288 0 -3.62132e+06 583305 0 -3.6347e+06 549289 0 -3.6482e+06 514204 0 -3.66182e+06 478010 0 -3.67557e+06 440666 0 -3.68944e+06 402128 0 -3.70343e+06 362352 0 -3.71752e+06 321291 0 -3.73173e+06 278895 0 -3.74604e+06 235112 0 -3.76044e+06 189890 0 -3.77494e+06 143170 0 -3.78952e+06 94892.9 0 -3.80417e+06 44996.7 0 -3.81889e+06 -6584.84 0 -3.83365e+06 -59920.8 0 -3.84846e+06 -115084 0 -3.86329e+06 -172151 0 -3.87812e+06 -231202 0 -3.89295e+06 -292324 0 -3.90775e+06 -355605 0 -3.92249e+06 -421140 0 -3.93715e+06 -489029 0 -3.95171e+06 -559379 0 -3.59927e+06 877928 0 -3.61499e+06 852868 0 -3.63095e+06 827064 0 -3.64718e+06 800501 0 -3.66367e+06 773153 0 -3.68043e+06 744993 0 -3.69746e+06 715991 0 -3.71479e+06 686120 0 -3.7324e+06 655350 0 -3.75031e+06 623649 0 -3.76852e+06 590984 0 -3.78705e+06 557322 0 -3.8059e+06 522628 0 -3.82507e+06 486864 0 -3.84458e+06 449991 0 -3.86442e+06 411969 0 -3.88462e+06 372755 0 -3.90518e+06 332306 0 -3.9261e+06 290573 0 -3.94739e+06 247509 0 -3.96906e+06 203061 0 -3.99112e+06 157177 0 -4.01358e+06 109800 0 -4.03644e+06 60869.9 0 -4.05972e+06 10325 0 -4.08341e+06 -41900.5 0 -4.10753e+06 -95875.6 0 -4.13209e+06 -151673 0 -4.15709e+06 -209369 0 -4.18254e+06 -269045 0 -4.20845e+06 -330785 0 -4.23482e+06 -394679 0 -3.67588e+06 941650 0 -3.69485e+06 918413 0 -3.71425e+06 894549 0 -3.73402e+06 870002 0 -3.75418e+06 844751 0 -3.77474e+06 818775 0 -3.7957e+06 792055 0 -3.81708e+06 764568 0 -3.83889e+06 736292 0 -3.86114e+06 707201 0 -3.88385e+06 677269 0 -3.90704e+06 646468 0 -3.93072e+06 614771 0 -3.95489e+06 582147 0 -3.97959e+06 548564 0 -4.00482e+06 513991 0 -4.0306e+06 478393 0 -4.05696e+06 441734 0 -4.0839e+06 403978 0 -4.11144e+06 365084 0 -4.13961e+06 325013 0 -4.16843e+06 283723 0 -4.19792e+06 241167 0 -4.22809e+06 197301 0 -4.25898e+06 152074 0 -4.2906e+06 105436 0 -4.32298e+06 57332.5 0 -4.35615e+06 7708.07 0 -4.39013e+06 -43496.7 0 -4.42495e+06 -96343.9 0 -4.46063e+06 -150899 0 -4.49722e+06 -207229 0 -3.74742e+06 1.01179e+06 0 -3.77011e+06 990844 0 -3.79299e+06 969122 0 -3.81628e+06 946767 0 -3.84002e+06 923802 0 -3.86425e+06 900222 0 -3.889e+06 876013 0 -3.91427e+06 851158 0 -3.9401e+06 825638 0 -3.96649e+06 799434 0 -3.99348e+06 772527 0 -4.02107e+06 744894 0 -4.04929e+06 716516 0 -4.07816e+06 687369 0 -4.1077e+06 657431 0 -4.13793e+06 626677 0 -4.16887e+06 595083 0 -4.20056e+06 562622 0 -4.23301e+06 529269 0 -4.26625e+06 494995 0 -4.30031e+06 459771 0 -4.33521e+06 423566 0 -4.37099e+06 386350 0 -4.40767e+06 348089 0 -4.4453e+06 308750 0 -4.48389e+06 268297 0 -4.52349e+06 226692 0 -4.56413e+06 183899 0 -4.60586e+06 139875 0 -4.6487e+06 94580.1 0 -4.6927e+06 47970.1 0 -4.73791e+06 4.76837e-07 0 </DataArray> 
</PointData> 
<Points> 
<DataArray type="Float32" NumberOfComponents="3"> 