<?xml version="1.0"?> 
<VTKFile type="StructuredGrid" version="0.1"> 
<StructuredGrid WholeExtent="0 15 0 15 0 0"> 
<Piece Extent="0 15 0 15 0 0"> 
<PointData>
<DataArray type="Float32" Name="|E|" format="ascii" NumberOfComponents="3"> 
-369627 0 0 -367050 -90430.8 0 -359091 -181622 0 -345059 -274690 0 -324257 -371614 0 -295445 -460144 0 -254796 -539344 0 -206072 -742999 0 -164695 -1.20371e+06 0 -121405 -1.59864e+06 0 -16947.2 -1.17844e+06 0 207601 326468 0 524964 1.69415e+06 0 794712 44657.5 0 823934 -8.33085e+06 0 478540 -2.68224e+07 0 -450556 0 0 -446509 -128038 0 -433931 -258596 0 -411819 -395241 0 -378951 -544442 0 -340387 -707528 0 -289511 -871518 0 -184946 -1.08657e+06 0 -35673.1 -1.52395e+06 0 -12590.1 -2.27592e+06 0 -367781 -3.08595e+06 0 -1.1956e+06 -3.43126e+06 0 -2.28566e+06 -2.98065e+06 0 -3.20625e+06 -2.03186e+06 0 -3.5303e+06 -1.58724e+06 0 -3.0291e+06 -3.07396e+06 0 -534832 0 0 -529751 -167521 0 -514217 -341086 0 -487740 -528835 0 -453038 -739205 0 -403392 -987004 0 -341965 -1.3501e+06 0 -394544 -1.92777e+06 0 -787656 -2.58461e+06 0 -1.57719e+06 -2.89756e+06 0 -2.48488e+06 -2.57135e+06 0 -3.09993e+06 -1.84782e+06 0 -3.22515e+06 -1.356e+06 0 -3.02298e+06 -1.45666e+06 0 -2.8815e+06 -1.57927e+06 0 -3.163e+06 9060.49 0 -621918 0 0 -616592 -207965 0 -601095 -426922 0 -578619 -670355 0 -554003 -961064 0 -555322 -1.35938e+06 0 -732657 -1.90434e+06 0 -1.2729e+06 -2.39177e+06 0 -2.07681e+06 -2.4425e+06 0 -2.7439e+06 -1.97962e+06 0 -2.98753e+06 -1.40304e+06 0 -2.91187e+06 -1.13008e+06 0 -2.83125e+06 -1.08793e+06 0 -2.91557e+06 -827745 0 -3.04435e+06 -290673 0 -2.94173e+06 -691298 0 -710742 0 0 -706450 -248449 0 -695690 -513161 0 -688731 -816558 0 -714269 -1.20034e+06 0 -897737 -1.69015e+06 0 -1.40982e+06 -2.10795e+06 0 -2.13283e+06 -2.11549e+06 0 -2.66386e+06 -1.68847e+06 0 -2.80994e+06 -1.21851e+06 0 -2.77792e+06 -983119 0 -2.81786e+06 -825532 0 -2.92462e+06 -508506 0 -2.95622e+06 -168109 0 -2.90244e+06 -85794.4 0 -2.94315e+06 339836 0 -800566 0 0 -798647 -287797 0 -798362 -597174 0 -822686 -959033 0 -953179 -1.40155e+06 0 -1.35527e+06 -1.82004e+06 0 -1.99446e+06 -1.91133e+06 0 -2.50673e+06 -1.58316e+06 0 -2.68237e+06 -1.16284e+06 0 -2.71013e+06 -898155 0 -2.78436e+06 -665808 0 -2.85672e+06 -337650 0 -2.84884e+06 -45440.8 0 -2.82454e+06 117778 0 -2.85435e+06 355938 0 -2.85987e+06 502783 0 -891116 0 0 -892581 -325098 0 -907984 -676302 0 -981013 -1.08225e+06 0 -1.24063e+06 -1.51233e+06 0 -1.76701e+06 -1.74103e+06 0 -2.30291e+06 -1.56328e+06 0 -2.56003e+06 -1.17971e+06 0 -2.63574e+06 -869534 0 -2.71402e+06 -591430 0 -2.7692e+06 -260295 0 -2.76319e+06 28490.8 0 -2.76478e+06 243039 0 -2.79872e+06 505566 0 -2.81643e+06 783287 0 -2.83637e+06 1.07093e+06 0 -981942 0 0 -987523 -359995 0 -1.02237e+06 -747522 0 -1.15583e+06 -1.17198e+06 0 -1.52022e+06 -1.5233e+06 0 -2.04236e+06 -1.54981e+06 0 -2.40423e+06 -1.25025e+06 0 -2.54161e+06 -905685 0 -2.62521e+06 -594437 0 -2.68239e+06 -255115 0 -2.68942e+06 54316.2 0 -2.70258e+06 315667 0 -2.73364e+06 609247 0 -2.74956e+06 912929 0 -2.76328e+06 1.18864e+06 0 -2.77655e+06 1.47846e+06 0 -1.07224e+06 0 0 -1.08254e+06 -392451 0 -1.13887e+06 -808168 0 -1.33265e+06 -1.22275e+06 0 -1.74769e+06 -1.46048e+06 0 -2.18633e+06 -1.33646e+06 0 -2.41867e+06 -1.00375e+06 0 -2.52395e+06 -663488 0 -2.59258e+06 -310927 0 -2.61559e+06 28427.5 0 -2.63314e+06 330798 0 -2.66186e+06 650088 0 -2.679e+06 975577 0 -2.69325e+06 1.28393e+06 0 -2.70626e+06 1.62126e+06 0 -2.70679e+06 1.97517e+06 0 -1.16121e+06 0 0 -1.17664e+06 -422441 0 -1.25461e+06 -856936 0 -1.49594e+06 -1.23823e+06 0 -1.90702e+06 -1.35853e+06 0 -2.24496e+06 -1.13999e+06 0 -2.4068e+06 -790946 0 -2.49354e+06 -423675 0 -2.53623e+06 -54347.9 0 -2.55836e+06 286437 0 -2.58621e+06 630163 0 -2.60616e+06 980408 0 -2.62031e+06 1.32281e+06 0 -2.62923e+06 1.68953e+06 0 -2.61764e+06 2.06857e+06 0 -2.54657e+06 2.45798e+06 0 -1.24846e+06 0 0 -1.26899e+06 -449879 0 -1.36651e+06 -894326 0 -1.63415e+06 -1.22715e+06 0 -2.00436e+06 -1.2428e+06 0 -2.25782e+06 -962855 0 -2.38056e+06 -588767 0 -2.44643e+06 -195880 0 -2.47906e+06 182768 0 -2.50718e+06 552362 0 -2.53064e+06 928093 0 -2.54538e+06 1.30173e+06 0 -2.55139e+06 1.69259e+06 0 -2.53396e+06 2.09515e+06 0 -2.44433e+06 2.48394e+06 0 -2.21026e+06 2.76553e+06 0 -1.33412e+06 0 0 -1.35905e+06 -474803 0 -1.4714e+06 -922282 0 -1.74174e+06 -1.19885e+06 0 -2.05441e+06 -1.12558e+06 0 -2.24529e+06 -796968 0 -2.34123e+06 -393186 0 -2.39266e+06 18894.8 0 -2.42486e+06 418309 0 -2.45193e+06 818669 0 -2.46936e+06 1.22101e+06 0 -2.4751e+06 1.63448e+06 0 -2.45834e+06 2.05849e+06 0 -2.37261e+06 2.46164e+06 0 -2.15233e+06 2.73386e+06 0 -1.8286e+06 2.67109e+06 0 -1.41857e+06 0 0 -1.44657e+06 -497625 0 -1.5664e+06 -943394 0 -1.81844e+06 -1.1607e+06 0 -2.07062e+06 -1.01024e+06 0 -2.21613e+06 -636643 0 -2.2933e+06 -204486 0 -2.33792e+06 227811 0 -2.36944e+06 653500 0 -2.39177e+06 1.08218e+06 0 -2.40021e+06 1.51854e+06 0 -2.38862e+06 1.96437e+06 0 -2.32261e+06 2.39298e+06 0 -2.14233e+06 2.68573e+06 0 -1.87977e+06 2.64131e+06 0 -1.67698e+06 2.20755e+06 0 -1.50205e+06 0 0 -1.5314e+06 -519130 0 -1.64938e+06 -960233 0 -1.86681e+06 -1.11743e+06 0 -2.06242e+06 -896170 0 -2.17571e+06 -479575 0 -2.24118e+06 -20975.9 0 -2.28239e+06 434069 0 -2.31097e+06 886977 0 -2.32537e+06 1.34671e+06 0 -2.32061e+06 1.81487e+06 0 -2.27888e+06 2.27581e+06 0 -2.15222e+06 2.62271e+06 0 -1.94975e+06 2.63276e+06 0 -1.77935e+06 2.20943e+06 0 -1.67458e+06 1.49763e+06 0 -1.58461e+06 0 0 -1.61348e+06 -540210 0 -1.71907e+06 -975153 0 -1.89012e+06 -1.07147e+06 0 -2.03644e+06 -781740 0 -2.12832e+06 -324843 0 -2.18702e+06 158969 0 -2.22535e+06 638227 0 -2.24806e+06 1.11995e+06 0 -2.25166e+06 1.61069e+06 0 -2.22914e+06 2.10342e+06 0 -2.15497e+06 2.52497e+06 0 -2.01801e+06 2.64323e+06 0 -1.88789e+06 2.28624e+06 0 -1.80939e+06 1.55126e+06 0 -1.79884e+06 437548 0 -1.66616e+06 0 0 -1.69283e+06 -561653 0 -1.77485e+06 -990253 0 -1.89143e+06 -1.02332e+06 0 -1.99793e+06 -665379 0 -2.07691e+06 -172252 0 -2.1316e+06 336293 0 -2.16577e+06 840807 0 -2.17978e+06 1.35226e+06 0 -2.17084e+06 1.87238e+06 0 -2.1328e+06 2.36834e+06 0 -2.06215e+06 2.64035e+06 0 -1.98612e+06 2.41056e+06 0 -1.94339e+06 1.75251e+06 0 -1.95838e+06 738814 0 -2.01364e+06 134058 0 </DataArray> 
</PointData> 
<Points> 
<DataArray type="Float32" NumberOfComponents="3"> 
0 0.021 0 0.00106667 0.021 0 0.00213333 0.021 0 0.0032 0.021 0 0.00426667 0.021 0 0.00533333 0.021 0 0.0064 0.021 0 0.00746667 0.021 0 0.00853333 0.021 0 0.0096 0.021 0 0.0106667 0.021 0 0.0117333 0.021 0 0.0128 0.021 0 0.0138667 0.021 0 0.0149333 0.021 0 0.016 0.021 0 0 0.0219333 0 0.00144 0.0219333 0 0.00288 0.0219333 0 0.00432 0.0219333 0 0.00576 0.0219333 0 0.0072 0.0219333 0 0.00864 0.0219333 0 0.01008 0.0219333 0 0.01152 0.0219333 0 0.01296 0.0219333 0 0.0144 0.0219333 0 0.01584 0.0219333 0 0.01728 0.0219333 0 0.01872 0.0219333 0 0.02016 0.0219333 0 0.0216 0.0219333 0 0 0.0228667 0 0.00181333 0.0228667 0 0.00362667 0.0228667 0 0.00544 0.0228667 0 0.00725333 0.0228667 0 0.00906667 0.0228667 0 0.01088 0.0228667 0 0.0126933 0.0228667 0 0.0145067 0.0228667 0 0.01632 0.0228667 0 0.0181333 0.0228667 0 0.0199467 0.0228667 0 0.02176 0.0228667 0 0.0235733 0.0228667 0 0.0253867 0.0228667 0 0.0272 0.0228667 0 0 0.0238 0 0.00218667 0.0238 0 0.00437333 0.0238 0 0.00656 0.0238 0 0.00874667 0.0238 0 0.0109333 0.0238 0 0.01312 0.0238 0 0.0153067 0.0238 0 0.0174933 0.0238 0 0.01968 0.0238 0 0.0218667 0.0238 0 0.0240533 0.0238 0 0.02624 0.0238 0 0.0284267 0.0238 0 0.0306133 0.0238 0 0.0328 0.0238 0 0 0.0247333 0 0.00256 0.0247333 0 0.00512 0.0247333 0 0.00768 0.0247333 0 0.01024 0.0247333 0 0.0128 0.0247333 0 0.01536 0.0247333 0 0.01792 0.0247333 0 0.02048 0.0247333 0 0.02304 0.0247333 0 0.0256 0.0247333 0 0.02816 0.0247333 0 0.03072 0.0247333 0 0.03328 0.0247333 0 0.03584 0.0247333 0 0.0384 0.0247333 0 0 0.0256667 0 0.00293333 0.0256667 0 0.00586667 0.0256667 0 0.0088 0.0256667 0 0.0117333 0.0256667 0 0.0146667 0.0256667 0 0.0176 0.0256667 0 0.0205333 0.0256667 0 0.0234667 0.0256667 0 0.0264 0.0256667 0 0.0293333 0.0256667 0 0.0322667 0.0256667 0 0.0352 0.0256667 0 0.0381333 0.0256667 0 0.0410667 0.0256667 0 0.044 0.0256667 0 0 0.0266 0 0.00330667 0.0266 0 0.00661333 0.0266 0 0.00992 0.0266 0 0.0132267 0.0266 0 0.0165333 0.0266 0 0.01984 0.0266 0 0.0231467 0.0266 0 0.0264533 0.0266 0 0.02976 0.0266 0 0.0330667 0.0266 0 0.0363733 0.0266 0 0.03968 0.0266 0 0.0429867 0.0266 0 0.0462933 0.0266 0 0.0496 0.0266 0 0 0.0275333 0 0.00368 0.0275333 0 0.00736 0.0275333 0 0.01104 0.0275333 0 0.01472 0.0275333 0 0.0184 0.0275333 0 0.02208 0.0275333 0 0.02576 0.0275333 0 0.02944 0.0275333 0 0.03312 0.0275333 0 0.0368 0.0275333 0 0.04048 0.0275333 0 0.04416 0.0275333 0 0.04784 0.0275333 0 0.05152 0.0275333 0 0.0552 0.0275333 0 0 0.0284667 0 0.00405333 0.0284667 0 0.00810667 0.0284667 0 0.01216 0.0284667 0 0.0162133 0.0284667 0 0.0202667 0.0284667 0 0.02432 0.0284667 0 0.0283733 0.0284667 0 0.0324267 0.0284667 0 0.03648 0.0284667 0 0.0405333 0.0284667 0 0.0445867 0.0284667 0 0.04864 0.0284667 0 0.0526933 0.0284667 0 0.0567467 0.0284667 0 0.0608 0.0284667 0 0 0.0294 0 0.00442667 0.0294 0 0.00885333 0.0294 0 0.01328 0.0294 0 0.0177067 0.0294 0 0.0221333 0.0294 0 0.02656 0.0294 0 0.0309867 0.0294 0 0.0354133 0.0294 0 0.03984 0.0294 0 0.0442667 0.0294 0 0.0486933 0.0294 0 0.05312 0.0294 0 0.0575467 0.0294 0 0.0619733 0.0294 0 0.0664 0.0294 0 0 0.0303333 0 0.0048 0.0303333 0 0.0096 0.0303333 0 0.0144 0.0303333 0 0.0192 0.0303333 0 0.024 0.0303333 0 0.0288 0.0303333 0 0.0336 0.0303333 0 0.0384 0.0303333 0 0.0432 0.0303333 0 0.048 0.0303333 0 0.0528 0.0303333 0 0.0576 0.0303333 0 0.0624 0.0303333 0 0.0672 0.0303333 0 0.072 0.0303333 0 0 0.0312667 0 0.00517333 0.0312667 0 0.0103467 0.0312667 0 0.01552 0.0312667 0 0.0206933 0.0312667 0 0.0258667 0.0312667 0 0.03104 0.0312667 0 0.0362133 0.0312667 0 0.0413867 0.0312667 0 0.04656 0.0312667 0 0.0517333 0.0312667 0 0.0569067 0.0312667 0 0.06208 0.0312667 0 0.0672533 0.0312667 0 0.0724267 0.0312667 0 0.0776 0.0312667 0 0 0.0322 0 0.00554667 0.0322 0 0.0110933 0.0322 0 0.01664 0.0322 0 0.0221867 0.0322 0 0.0277333 0.0322 0 0.03328 0.0322 0 0.0388267 0.0322 0 0.0443733 0.0322 0 0.04992 0.0322 0 0.0554667 0.0322 0 0.0610133 0.0322 0 0.06656 0.0322 0 0.0721067 0.0322 0 0.0776533 0.0322 0 0.0832 0.0322 0 0 0.0331333 0 0.00592 0.0331333 0 0.01184 0.0331333 0 0.01776 0.0331333 0 0.02368 0.0331333 0 0.0296 0.0331333 0 0.03552 0.0331333 0 0.04144 0.0331333 0 0.04736 0.0331333 0 0.05328 0.0331333 0 0.0592 0.0331333 0 0.06512 0.0331333 0 0.07104 0.0331333 0 0.07696 0.0331333 0 0.08288 0.0331333 0 0.0888 0.0331333 0 0 0.0340667 0 0.00629333 0.0340667 0 0.0125867 0.0340667 0 0.01888 0.0340667 0 0.0251733 0.0340667 0 0.0314667 0.0340667 0 0.03776 0.0340667 0 0.0440533 0.0340667 0 0.0503467 0.0340667 0 0.05664 0.0340667 0 0.0629333 0.0340667 0 0.0692267 0.0340667 0 0.07552 0.0340667 0 0.0818133 0.0340667 0 0.0881067 0.0340667 0 0.0944 0.0340667 0 0 0.035 0 0.00666667 0.035 0 0.0133333 0.035 0 0.02 0.035 0 0.0266667 0.035 0 0.0333333 0.035 0 0.04 0.035 0 0.0466667 0.035 0 0.0533333 0.035 0 0.06 0.035 0 0.0666667 0.035 0 0.0733333 0.035 0 0.08 0.035 0 0.0866667 0.035 0 0.0933333 0.035 0 0.1 0.035 0 
</DataArray>
</Points> 
</Piece> 
</StructuredGrid> 
</VTKFile> 
