<?xml version="1.0"?> 
<VTKFile type="StructuredGrid" version="0.1"> 
<StructuredGrid WholeExtent="0 15 0 15 0 0"> 
<Piece Extent="0 15 0 15 0 0"> 
<PointData>
<DataArray type="Float32" Name="|E|" format="ascii" NumberOfComponents="3"> 
-1.56597e+06 1.91895e+06 0 -1.61724e+06 1.97845e+06 0 -1.67245e+06 2.03511e+06 0 -1.73263e+06 2.08823e+06 0 -1.79914e+06 2.13692e+06 0 -1.87376e+06 2.18003e+06 0 -1.95878e+06 2.21594e+06 0 -2.05726e+06 2.2424e+06 0 -2.17329e+06 2.25594e+06 0 -2.31243e+06 2.25108e+06 0 -2.48248e+06 2.21853e+06 0 -2.6946e+06 2.14172e+06 0 -2.96527e+06 1.98936e+06 0 -3.3185e+06 1.69879e+06 0 -3.78437e+06 1.13677e+06 0 -4.36285e+06 5.96046e-07 0 -1.50923e+06 2.04606e+06 0 -1.56614e+06 2.10032e+06 0 -1.62753e+06 2.15282e+06 0 -1.69446e+06 2.20302e+06 0 -1.76832e+06 2.25026e+06 0 -1.85094e+06 2.29359e+06 0 -1.94476e+06 2.33173e+06 0 -2.05306e+06 2.36277e+06 0 -2.18039e+06 2.38382e+06 0 -2.33317e+06 2.39016e+06 0 -2.52072e+06 2.37382e+06 0 -2.75712e+06 2.32046e+06 0 -3.06432e+06 2.2028e+06 0 -3.47716e+06 1.96521e+06 0 -4.04924e+06 1.4853e+06 0 -4.83908e+06 467686 0 -1.44762e+06 2.18518e+06 0 -1.50931e+06 2.23596e+06 0 -1.57588e+06 2.28596e+06 0 -1.64844e+06 2.33484e+06 0 -1.72841e+06 2.38213e+06 0 -1.8177e+06 2.42719e+06 0 -1.91887e+06 2.4691e+06 0 -2.03543e+06 2.50643e+06 0 -2.17233e+06 2.53699e+06 0 -2.33669e+06 2.55715e+06 0 -2.53914e+06 2.5606e+06 0 -2.79616e+06 2.53583e+06 0 -3.13434e+06 2.46038e+06 0 -3.5981e+06 2.28714e+06 0 -4.26309e+06 1.90806e+06 0 -5.24538e+06 1.04656e+06 0 -1.3761e+06 2.33517e+06 0 -1.44158e+06 2.38391e+06 0 -1.51221e+06 2.43279e+06 0 -1.58912e+06 2.48168e+06 0 -1.67375e+06 2.53035e+06 0 -1.76808e+06 2.57847e+06 0 -1.87475e+06 2.62552e+06 0 -1.99744e+06 2.67069e+06 0 -2.14139e+06 2.71262e+06 0 -2.31423e+06 2.74893e+06 0 -2.52758e+06 2.77535e+06 0 -2.79976e+06 2.78363e+06 0 -3.16109e+06 2.75699e+06 0 -3.66419e+06 2.65831e+06 0 -4.40463e+06 2.39749e+06 0 -5.55355e+06 1.72685e+06 0 -1.2901e+06 2.49251e+06 0 -1.35828e+06 2.54024e+06 0 -1.43172e+06 2.58902e+06 0 -1.51153e+06 2.63887e+06 0 -1.59918e+06 2.68985e+06 0 -1.69663e+06 2.74195e+06 0 -1.80658e+06 2.79513e+06 0 -1.93275e+06 2.84921e+06 0 -2.08052e+06 2.90376e+06 0 -2.25781e+06 2.95785e+06 0 -2.47679e+06 3.00941e+06 0 -2.75701e+06 3.05392e+06 0 -3.13149e+06 3.08098e+06 0 -3.65931e+06 3.06502e+06 0 -4.45341e+06 2.93758e+06 0 -5.7366e+06 2.49e+06 0 -1.18683e+06 2.65144e+06 0 -1.25662e+06 2.69873e+06 0 -1.33159e+06 2.7479e+06 0 -1.41282e+06 2.79918e+06 0 -1.50175e+06 2.85286e+06 0 -1.60029e+06 2.9093e+06 0 -1.71107e+06 2.96891e+06 0 -1.83777e+06 3.03219e+06 0 -1.98571e+06 3.09969e+06 0 -2.16279e+06 3.17196e+06 0 -2.3813e+06 3.24933e+06 0 -2.66123e+06 3.33126e+06 0 -3.03705e+06 3.41435e+06 0 -3.57227e+06 3.48608e+06 0 -4.39376e+06 3.50357e+06 0 -5.77157e+06 3.30843e+06 0 -1.06651e+06 2.80508e+06 0 -1.13694e+06 2.85201e+06 0 -1.21229e+06 2.90157e+06 0 -1.29359e+06 2.95417e+06 0 -1.38217e+06 3.01035e+06 0 -1.47986e+06 3.07079e+06 0 -1.58914e+06 3.13635e+06 0 -1.71349e+06 3.20817e+06 0 -1.85796e+06 3.28776e+06 0 -2.03013e+06 3.37716e+06 0 -2.24187e+06 3.4791e+06 0 -2.51277e+06 3.59711e+06 0 -2.87724e+06 3.73524e+06 0 -3.40055e+06 3.89528e+06 0 -4.21893e+06 4.064e+06 0 -5.6428e+06 4.14638e+06 0 -932621 2.94728e+06 0 -1.00298e+06 2.99347e+06 0 -1.07785e+06 3.04293e+06 0 -1.15816e+06 3.09625e+06 0 -1.24514e+06 3.15416e+06 0 -1.34042e+06 3.21762e+06 0 -1.44627e+06 3.2879e+06 0 -1.56586e+06 3.36672e+06 0 -1.70378e+06 3.45646e+06 0 -1.86696e+06 3.5605e+06 0 -2.06632e+06 3.68383e+06 0 -2.32009e+06 3.83395e+06 0 -2.66091e+06 4.02234e+06 0 -3.1525e+06 4.26593e+06 0 -3.93401e+06 4.58491e+06 0 -5.34487e+06 4.96234e+06 0 -791009 3.07416e+06 0 -860934 3.11889e+06 0 -934838 3.16744e+06 0 -1.01354e+06 3.2205e+06 0 -1.09811e+06 3.27898e+06 0 -1.19001e+06 3.34407e+06 0 -1.29119e+06 3.41737e+06 0 -1.40442e+06 3.50105e+06 0 -1.53367e+06 3.5982e+06 0 -1.68497e+06 3.71335e+06 0 -1.8678e+06 3.85341e+06 0 -2.09811e+06 4.0294e+06 0 -2.40492e+06 4.25973e+06 0 -2.84647e+06 4.57634e+06 0 -3.55626e+06 5.03534e+06 0 -4.88465e+06 5.71265e+06 0 -648270 3.18474e+06 0 -717725 3.22711e+06 0 -790552 3.27373e+06 0 -867455 3.3254e+06 0 -949360 3.38315e+06 0 -1.03749e+06 3.44834e+06 0 -1.13349e+06 3.52277e+06 0 -1.23965e+06 3.60898e+06 0 -1.35927e+06 3.71055e+06 0 -1.49726e+06 3.83288e+06 0 -1.66132e+06 3.98432e+06 0 -1.8644e+06 4.17865e+06 0 -2.13017e+06 4.44005e+06 0 -2.50721e+06 4.81396e+06 0 -3.1127e+06 5.39238e+06 0 -4.28154e+06 6.3559e+06 0 -510289 3.28054e+06 0 -579481 3.31952e+06 0 -651404 3.36317e+06 0 -726657 3.41232e+06 0 -806015 3.46808e+06 0 -890485 3.53191e+06 0 -981403 3.60575e+06 0 -1.08059e+06 3.69234e+06 0 -1.19061e+06 3.79559e+06 0 -1.31521e+06 3.9214e+06 0 -1.46018e+06 4.07904e+06 0 -1.635e+06 4.28411e+06 0 -1.85674e+06 4.56479e+06 0 -2.1606e+06 4.97688e+06 0 -2.63552e+06 5.64423e+06 0 -3.566e+06 6.85689e+06 0 -381468 3.36453e+06 0 -450710 3.39906e+06 0 -522034 3.43868e+06 0 -595954 3.48426e+06 0 -673116 3.53694e+06 0 -754331 3.59819e+06 0 -840646 3.67004e+06 0 -933441 3.75529e+06 0 -1.03459e+06 3.85801e+06 0 -1.14674e+06 3.98429e+06 0 -1.27373e+06 4.14385e+06 0 -1.42153e+06 4.35307e+06 0 -1.60012e+06 4.64205e+06 0 -1.82881e+06 5.07245e+06 0 -2.15716e+06 5.7905e+06 0 -2.77633e+06 7.18935e+06 0 -264671 3.4401e+06 0 -334224 3.46905e+06 0 -405235 3.50363e+06 0 -478153 3.5447e+06 0 -553516 3.59336e+06 0 -631972 3.6511e+06 0 -714310 3.71992e+06 0 -801525 3.80262e+06 0 -894870 3.90324e+06 0 -995980 4.0279e+06 0 -1.10694e+06 4.18625e+06 0 -1.23043e+06 4.39466e+06 0 -1.36965e+06 4.68308e+06 0 -1.52734e+06 5.11398e+06 0 -1.70641e+06 5.84068e+06 0 -1.95484e+06 7.33606e+06 0 -161578 3.51037e+06 0 -231510 3.53251e+06 0 -302337 3.56103e+06 0 -374462 3.59673e+06 0 -448337 3.64064e+06 0 -524467 3.69418e+06 0 -603427 3.75928e+06 0 -685871 3.83866e+06 0 -772522 3.93625e+06 0 -864122 4.05799e+06 0 -961286 4.21317e+06 0 -1.06367e+06 4.41753e+06 0 -1.16893e+06 4.69924e+06 0 -1.26414e+06 5.11697e+06 0 -1.30596e+06 5.81184e+06 0 -1.1444e+06 7.285e+06 0 -73149.3 3.57783e+06 0 -143189 3.59181e+06 0 -213692 3.61324e+06 0 -285018 3.64278e+06 0 -357535 3.68133e+06 0 -431625 3.73018e+06 0 -507670 3.79115e+06 0 -586017 3.86681e+06 0 -666980 3.96091e+06 0 -750425 4.07906e+06 0 -835937 4.23014e+06 0 -920414 4.42853e+06 0 -997126 4.70012e+06 0 -1.04124e+06 5.09567e+06 0 -970186 5.72758e+06 0 -387505 7.01819e+06 0 0.95232 3.64415e+06 0 -69408.1 3.64853e+06 0 -139101 3.66185e+06 0 -209355 3.68451e+06 0 -280434 3.71721e+06 0 -352594 3.76106e+06 0 -426000 3.8177e+06 0 -500838 3.88952e+06 0 -576713 3.98e+06 0 -653626 4.09444e+06 0 -728297 4.24095e+06 0 -799643 4.43282e+06 0 -849073 4.69251e+06 0 -859782 5.06091e+06 0 -699905 5.61967e+06 0 267676 6.48367e+06 0 </DataArray> 
</PointData> 
<Points> 
<DataArray type="Float32" NumberOfComponents="3"> 
0.0678 0.0673333 0 0.0701467 0.0665112 0 0.0724933 0.0656891 0 0.07484 0.064867 0 0.0771867 0.064045 0 0.0795333 0.0632229 0 0.08188 0.0624008 0 0.0842267 0.0615787 0 0.0865733 0.0607566 0 0.08892 0.0599345 0 0.0912667 0.0591124 0 0.0936133 0.0582903 0 0.09596 0.0574682 0 0.0983067 0.0566461 0 0.100653 0.055824 0 0.103 0.0550019 0 0.0708133 0.0703111 0 0.0728889 0.0693869 0 0.0749746 0.0684583 0 0.0770705 0.067525 0 0.0791767 0.0665872 0 0.0812933 0.0656448 0 0.0834203 0.0646977 0 0.0855578 0.063746 0 0.0877059 0.0627895 0 0.0898647 0.0618283 0 0.0920342 0.0608623 0 0.0942146 0.0598915 0 0.0964059 0.0589158 0 0.0986082 0.0579352 0 0.100822 0.0569497 0 0.103046 0.0559592 0 0.0738267 0.0732889 0 0.07566 0.072268 0 0.0775101 0.0712377 0 0.079377 0.0701981 0 0.0812612 0.0691489 0 0.0831627 0.06809 0 0.0850819 0.0670213 0 0.0870189 0.0659426 0 0.0889741 0.0648538 0 0.0909477 0.0637548 0 0.0929399 0.0626454 0 0.0949511 0.0615254 0 0.0969814 0.0603948 0 0.0990313 0.0592533 0 0.101101 0.0581008 0 0.10319 0.0569372 0 0.07684 0.0762667 0 0.0784573 0.0751513 0 0.080095 0.0740218 0 0.0817536 0.072878 0 0.0834335 0.0717194 0 0.085135 0.070546 0 0.0868586 0.0693572 0 0.0886048 0.068153 0 0.0903739 0.0669329 0 0.0921664 0.0656967 0 0.0939829 0.064444 0 0.0958237 0.0631744 0 0.0976894 0.0618878 0 0.0995804 0.0605836 0 0.101497 0.0592615 0 0.103441 0.0579213 0 0.0798533 0.0792444 0 0.0812779 0.0780339 0 0.0827246 0.0768047 0 0.0841938 0.0755562 0 0.0856862 0.074288 0 0.0872024 0.0729997 0 0.0887428 0.0716908 0 0.090308 0.0703608 0 0.0918987 0.0690091 0 0.0935155 0.0676353 0 0.095159 0.0662387 0 0.09683 0.0648188 0 0.098529 0.0633751 0 0.100257 0.0619069 0 0.102014 0.0604136 0 0.103802 0.0588945 0 0.0828667 0.0822222 0 0.084119 0.0809129 0 0.0853935 0.0795804 0 0.0866906 0.0782242 0 0.0880111 0.0768436 0 0.0893556 0.0754379 0 0.0907246 0.0740065 0 0.092119 0.0725487 0 0.0935394 0.0710637 0 0.0949865 0.0695507 0 0.0964611 0.0680089 0 0.097964 0.0664376 0 0.0994961 0.0648358 0 0.101058 0.0632027 0 0.102651 0.0615373 0 0.104276 0.0598387 0 0.08588 0.0852 0 0.0869777 0.083785 0 0.0880963 0.0823431 0 0.0892366 0.0808733 0 0.090399 0.0793748 0 0.0915843 0.077847 0 0.0927931 0.0762887 0 0.0940262 0.0746992 0 0.0952843 0.0730775 0 0.0965681 0.0714226 0 0.0978785 0.0697335 0 0.0992162 0.068009 0 0.100582 0.0662482 0 0.101977 0.0644497 0 0.103403 0.0626125 0 0.104859 0.0607351 0 0.0888933 0.0881778 0 0.089851 0.0866474 0 0.0908276 0.0850867 0 0.0918237 0.0834948 0 0.09284 0.0818706 0 0.0938771 0.0802133 0 0.0949356 0.0785218 0 0.0960161 0.0767949 0 0.0971195 0.0750317 0 0.0982463 0.0732309 0 0.0993974 0.0713914 0 0.100574 0.0695118 0 0.101776 0.0675908 0 0.103004 0.0656271 0 0.104261 0.0636192 0 0.105546 0.0615656 0 0.0919067 0.0911556 0 0.0927358 0.089497 0 0.0935814 0.0878055 0 0.0944439 0.0860802 0 0.0953239 0.08432 0 0.0962218 0.0825238 0 0.0971383 0.0806905 0 0.0980739 0.078819 0 0.0990293 0.0769081 0 0.100005 0.0749564 0 0.101002 0.0729627 0 0.10202 0.0709256 0 0.103061 0.0688437 0 0.104125 0.0667155 0 0.105213 0.0645394 0 0.106325 0.0623137 0 0.09492 0.0941333 0 0.0956292 0.0923307 0 0.096352 0.0904937 0 0.0970888 0.0886212 0 0.0978399 0.0867123 0 0.0986057 0.0847658 0 0.0993868 0.0827807 0 0.100184 0.0807557 0 0.100996 0.0786897 0 0.101826 0.0765814 0 0.102673 0.0744295 0 0.103537 0.0722326 0 0.10442 0.0699893 0 0.105321 0.0676982 0 0.106242 0.0653576 0 0.107183 0.0629659 0 0.0979333 0.0971111 0 0.0985282 0.0951457 0 0.0991335 0.0931456 0 0.0997497 0.0911098 0 0.100377 0.0890375 0 0.101016 0.0869275 0 0.101666 0.0847789 0 0.102328 0.0825906 0 0.103003 0.0803615 0 0.10369 0.0780904 0 0.104391 0.0757761 0 0.105104 0.0734175 0 0.105832 0.0710131 0 0.106574 0.0685617 0 0.107331 0.0660619 0 0.108102 0.0635122 0 0.100947 0.100089 0 0.10143 0.097939 0 0.10192 0.0957558 0 0.102418 0.0935384 0 0.102924 0.0912861 0 0.103438 0.0889981 0 0.10396 0.0866734 0 0.104491 0.0843112 0 0.10503 0.0819105 0 0.105578 0.0794705 0 0.106135 0.0769902 0 0.106702 0.0744685 0 0.107277 0.0719044 0 0.107863 0.0692968 0 0.108459 0.0666446 0 0.109065 0.0639467 0 0.10396 0.103067 0 0.10433 0.100708 0 0.104705 0.098319 0 0.105085 0.0958998 0 0.10547 0.0934496 0 0.10586 0.0909678 0 0.106254 0.0884538 0 0.106654 0.0859069 0 0.107059 0.0833265 0 0.10747 0.080712 0 0.107886 0.0780626 0 0.108308 0.0753776 0 0.108735 0.0726564 0 0.109168 0.0698982 0 0.109607 0.0671021 0 0.110052 0.0642676 0 0.106973 0.106044 0 0.107228 0.103449 0 0.107484 0.10083 0 0.107743 0.0981874 0 0.108004 0.0955202 0 0.108268 0.0928284 0 0.108534 0.0901116 0 0.108803 0.0873696 0 0.109074 0.0846018 0 0.109347 0.081808 0 0.109624 0.0789878 0 0.109903 0.0761408 0 0.110184 0.0732666 0 0.110468 0.0703649 0 0.110755 0.0674352 0 0.111045 0.0644772 0 0.109987 0.109022 0 0.110118 0.106161 0 0.11025 0.103285 0 0.110383 0.100395 0 0.110516 0.0974912 0 0.11065 0.0945729 0 0.110785 0.0916403 0 0.11092 0.0886932 0 0.111056 0.0857315 0 0.111193 0.082755 0 0.111331 0.0797638 0 0.111469 0.0767576 0 0.111607 0.0737363 0 0.111747 0.0706999 0 0.111887 0.0676482 0 0.112028 0.0645812 0 0.113 0.112 0 0.112999 0.108839 0 0.112998 0.105678 0 0.112997 0.102518 0 0.112996 0.0993567 0 0.112995 0.0961959 0 0.112994 0.0930351 0 0.112993 0.0898743 0 0.112992 0.0867135 0 0.112992 0.0835526 0 0.112991 0.0803918 0 0.11299 0.077231 0 0.112989 0.0740702 0 0.112988 0.0709094 0 0.112987 0.0677486 0 0.112986 0.0645877 0 
</DataArray>
</Points> 
</Piece> 
</StructuredGrid> 
</VTKFile> 
