<?xml version="1.0"?> 
<VTKFile type="StructuredGrid" version="0.1"> 
<StructuredGrid WholeExtent="0 15 0 15 0 0"> 
<Piece Extent="0 15 0 15 0 0"> 
<PointData>
<DataArray type="Float32" Name="|E|" format="ascii" NumberOfComponents="3"> 
1156.44 2881.63 0 -296.929 872.573 0 -146.019 329.707 0 -95.8873 192.714 0 -51.8567 72.887 0 -28.6932 46.6247 0 -18.1901 20.9548 0 -10.2158 13.1697 0 -6.9634 6.67533 0 -4.06691 3.93916 0 -2.76884 2.10022 0 -1.67976 1.15168 0 -1.13876 0.603411 0 -0.750898 0.28314 0 -0.575182 0.113256 0 -0.527142 -7.15256e-07 0 -49.6652 2105.13 0 -360.786 764.874 0 -204.14 309.669 0 -110.162 155.386 0 -59.0722 68.4241 0 -31.8791 39.002 0 -19.3936 19.5395 0 -11.0906 11.4555 0 -7.23475 6.13502 0 -4.30565 3.49956 0 -2.84016 1.90254 0 -1.74258 1.03029 0 -1.15949 0.537878 0 -0.768783 0.253033 0 -0.583619 0.0972991 0 -0.531467 2.87313e-07 0 -637.529 1753.82 0 -455.06 650.411 0 -241.809 264.83 0 -122.018 126.744 0 -63.9877 59.5405 0 -34.328 33.1019 0 -20.3601 17.3668 0 -11.764 10.0174 0 -7.47742 5.47559 0 -4.49134 3.09486 0 -2.90585 1.6904 0 -1.79192 0.910097 0 -1.17863 0.47265 0 -0.783145 0.220983 0 -0.591317 0.0832638 0 -0.535908 7.54371e-08 0 -995.347 1433.98 0 -534.229 523.972 0 -265.82 211.962 0 -129.846 100.64 0 -67.0866 49.5802 0 -36.0405 27.7206 0 -21.0733 15.0107 0 -12.2725 8.65186 0 -7.67192 4.78665 0 -4.63668 2.69738 0 -2.95949 1.47435 0 -1.83123 0.789781 0 -1.19442 0.407294 0 -0.794886 0.188456 0 -0.59784 0.0696316 0 -0.539747 -1.67638e-08 0 -1219 1097.82 0 -586.281 390.292 0 -277.978 157.065 0 -133.514 76.1068 0 -68.5936 39.5478 0 -37.066 22.6311 0 -21.5398 12.6289 0 -12.6314 7.32197 0 -7.8151 4.09233 0 -4.74509 2.3029 0 -3.00003 1.25754 0 -1.86122 0.669456 0 -1.20657 0.341897 0 -0.804155 0.155842 0 -0.603101 0.056092 0 -0.54285 -2.38419e-07 0 -1339.86 754.679 0 -608.822 255.953 0 -279.315 103.457 0 -133.335 53.3055 0 -68.6913 29.8712 0 -37.4753 17.8199 0 -21.7706 10.28 0 -12.8539 6.02792 0 -7.90622 3.40122 0 -4.81899 1.9126 0 -3.02711 1.04135 0 -1.88227 0.549544 0 -1.21499 0.276686 0 -0.810995 0.123251 0 -0.607081 0.0426554 0 -0.545163 1.86265e-07 0 -1374.7 421.006 0 -603.118 127.245 0 -270.985 53.5632 0 -129.815 32.5815 0 -67.572 20.8124 0 -37.3439 13.3056 0 -21.781 8.00152 0 -12.9522 4.77439 0 -7.94577 2.71952 0 -4.86053 1.52812 0 -3.04061 0.826895 0 -1.89473 0.430491 0 -1.21964 0.211885 0 -0.815446 0.0907714 0 -0.609767 0.029353 0 -0.546641 2.01166e-07 0 -1336.94 111.347 0 -572.165 9.59807 0 -254.44 9.25532 0 -123.56 14.246 0 -65.4391 12.5455 0 -36.7486 9.108 0 -21.5898 5.82146 0 -12.938 3.56634 0 -7.935 2.0525 0 -4.87183 1.15108 0 -3.0405 0.615248 0 -1.89898 0.312728 0 -1.22045 0.147716 0 -0.817561 0.0584819 0 -0.611145 0.0162238 0 -0.547236 -4.47035e-08 0 -1239.51 -163.074 0 -519.901 -92.5657 0 -231.414 -28.0829 0 -115.226 -1.49953 0 -62.5034 5.18559 0 -35.7616 5.23587 0 -21.2193 3.76454 0 -12.8212 2.40615 0 -7.87638 1.40581 0 -4.85459 0.78252 0 -3.02701 0.407552 0 -1.89534 0.196647 0 -1.21745 0.08436 0 -0.817387 0.0265135 0 -0.611207 0.00324821 0 -0.546913 -1.78814e-07 0 -1095.39 -394.382 0 -450.747 -175.756 0 -203.873 -57.6089 0 -105.475 -14.5554 0 -58.9736 -1.22006 0 -34.45 1.6961 0 -20.6944 1.8475 0 -12.6101 1.29635 0 -7.77358 0.784217 0 -4.81006 0.423426 0 -3.00075 0.204891 0 -1.884 0.0826179 0 -1.21071 0.0219897 0 -0.814947 -0.00500282 0 -0.609953 -0.00960013 0 -0.54567 3.57628e-07 0 -917.026 -578.371 0 -369.376 -237.302 0 -173.951 -79.0537 0 -94.9263 -24.926 0 -55.0507 -6.68193 0 -32.871 -1.50888 0 -20.0438 0.0824688 0 -12.3101 0.237661 0 -7.63246 0.192819 0 -4.73826 0.0741599 0 -2.96308 0.00847183 0 -1.86478 -0.0290207 0 -1.20051 -0.0393086 0 -0.810183 -0.0358231 0 -0.607406 -0.0224753 0 -0.543609 -3.27826e-07 0 -715.779 -714.124 0 -280.591 -275.006 0 -143.852 -92.9619 0 -84.1312 -32.5573 0 -50.9018 -11.3582 0 -31.0868 -4.32117 0 -19.2891 -1.55541 0 -11.929 -0.753814 0 -7.4575 -0.371145 0 -4.63984 -0.262051 0 -2.91519 -0.181572 0 -1.83757 -0.137761 0 -1.18716 -0.0993479 0 -0.80302 -0.0659086 0 -0.603611 -0.0353091 0 -0.540862 2.38419e-07 0 -497.954 -806.19 0 -189.727 -287.131 0 -115.692 -100.641 0 -73.5518 -37.3332 0 -46.6448 -15.5495 0 -29.1731 -6.61652 0 -18.4373 -3.13593 0 -11.4824 -1.64095 0 -7.24919 -0.921305 0 -4.51746 -0.577702 0 -2.85746 -0.366702 0 -1.80263 -0.242838 0 -1.17086 -0.157761 0 -0.793434 -0.0955618 0 -0.598608 -0.0476515 0 -0.537556 -3.8743e-07 0 -259.271 -869.271 0 -103.61 -273.195 0 -91.1423 -103.62 0 -63.6262 -39.2862 0 -42.2707 -19.6062 0 -27.2809 -8.21598 0 -17.4344 -4.78295 0 -11.0243 -2.35305 0 -6.98397 -1.49111 0 -4.38772 -0.856089 0 -2.78261 -0.55198 0 -1.76427 -0.342866 0 -1.14979 -0.213587 0 -0.782298 -0.12616 0 -0.592211 -0.0578079 0 -0.532847 1.49012e-07 0 55.4521 -958.025 0 -35.7234 -239.387 0 -70.4429 -98.9678 0 -54.736 -41.4581 0 -37.7867 -22.2639 0 -25.5156 -9.77434 0 -16.2439 -6.22164 0 -10.6024 -3.00277 0 -6.63828 -2.03655 0 -4.26915 -1.11086 0 -2.68139 -0.732522 0 -1.72828 -0.438613 0 -1.12123 -0.266459 0 -0.771018 -0.157709 0 -0.584033 -0.0656499 0 -0.525267 4.17233e-07 0 732.202 -1416.5 0 -27.1426 -234.162 0 -49.1961 -46.6291 0 -46.6695 -70.7771 0 -34.3287 -8.24234 0 -22.9833 -19.725 0 -15.5166 -3.0835 0 -9.83272 -5.73948 0 -6.43968 -1.57152 0 -4.04139 -1.74889 0 -2.61794 -0.768566 0 -1.66334 -0.554789 0 -1.10038 -0.334256 0 -0.753054 -0.158036 0 -0.575787 -0.107677 0 -0.521611 -5.96046e-06 0 </DataArray> 
</PointData> 
<Points> 
<DataArray type="Float32" NumberOfComponents="3"> 
0.125 0.021 0 0.129 0.0216 0 0.133 0.0222 0 0.137 0.0228 0 0.141 0.0234 0 0.145 0.024 0 0.149 0.0246 0 0.153 0.0252 0 0.157 0.0258 0 0.161 0.0264 0 0.165 0.027 0 0.169 0.0276 0 0.173 0.0282 0 0.177 0.0288 0 0.181 0.0294 0 0.185 0.03 0 0.125333 0.0219333 0 0.129311 0.0224933 0 0.133289 0.0230533 0 0.137267 0.0236133 0 0.141244 0.0241733 0 0.145222 0.0247333 0 0.1492 0.0252933 0 0.153178 0.0258533 0 0.157156 0.0264133 0 0.161133 0.0269733 0 0.165111 0.0275333 0 0.169089 0.0280933 0 0.173067 0.0286533 0 0.177044 0.0292133 0 0.181022 0.0297733 0 0.185 0.0303333 0 0.125667 0.0228667 0 0.129622 0.0233867 0 0.133578 0.0239067 0 0.137533 0.0244267 0 0.141489 0.0249467 0 0.145444 0.0254667 0 0.1494 0.0259867 0 0.153356 0.0265067 0 0.157311 0.0270267 0 0.161267 0.0275467 0 0.165222 0.0280667 0 0.169178 0.0285867 0 0.173133 0.0291067 0 0.177089 0.0296267 0 0.181044 0.0301467 0 0.185 0.0306667 0 0.126 0.0238 0 0.129933 0.02428 0 0.133867 0.02476 0 0.1378 0.02524 0 0.141733 0.02572 0 0.145667 0.0262 0 0.1496 0.02668 0 0.153533 0.02716 0 0.157467 0.02764 0 0.1614 0.02812 0 0.165333 0.0286 0 0.169267 0.02908 0 0.1732 0.02956 0 0.177133 0.03004 0 0.181067 0.03052 0 0.185 0.031 0 0.126333 0.0247333 0 0.130244 0.0251733 0 0.134156 0.0256133 0 0.138067 0.0260533 0 0.141978 0.0264933 0 0.145889 0.0269333 0 0.1498 0.0273733 0 0.153711 0.0278133 0 0.157622 0.0282533 0 0.161533 0.0286933 0 0.165444 0.0291333 0 0.169356 0.0295733 0 0.173267 0.0300133 0 0.177178 0.0304533 0 0.181089 0.0308933 0 0.185 0.0313333 0 0.126667 0.0256667 0 0.130556 0.0260667 0 0.134444 0.0264667 0 0.138333 0.0268667 0 0.142222 0.0272667 0 0.146111 0.0276667 0 0.15 0.0280667 0 0.153889 0.0284667 0 0.157778 0.0288667 0 0.161667 0.0292667 0 0.165556 0.0296667 0 0.169444 0.0300667 0 0.173333 0.0304667 0 0.177222 0.0308667 0 0.181111 0.0312667 0 0.185 0.0316667 0 0.127 0.0266 0 0.130867 0.02696 0 0.134733 0.02732 0 0.1386 0.02768 0 0.142467 0.02804 0 0.146333 0.0284 0 0.1502 0.02876 0 0.154067 0.02912 0 0.157933 0.02948 0 0.1618 0.02984 0 0.165667 0.0302 0 0.169533 0.03056 0 0.1734 0.03092 0 0.177267 0.03128 0 0.181133 0.03164 0 0.185 0.032 0 0.127333 0.0275333 0 0.131178 0.0278533 0 0.135022 0.0281733 0 0.138867 0.0284933 0 0.142711 0.0288133 0 0.146556 0.0291333 0 0.1504 0.0294533 0 0.154244 0.0297733 0 0.158089 0.0300933 0 0.161933 0.0304133 0 0.165778 0.0307333 0 0.169622 0.0310533 0 0.173467 0.0313733 0 0.177311 0.0316933 0 0.181156 0.0320133 0 0.185 0.0323333 0 0.127667 0.0284667 0 0.131489 0.0287467 0 0.135311 0.0290267 0 0.139133 0.0293067 0 0.142956 0.0295867 0 0.146778 0.0298667 0 0.1506 0.0301467 0 0.154422 0.0304267 0 0.158244 0.0307067 0 0.162067 0.0309867 0 0.165889 0.0312667 0 0.169711 0.0315467 0 0.173533 0.0318267 0 0.177356 0.0321067 0 0.181178 0.0323867 0 0.185 0.0326667 0 0.128 0.0294 0 0.1318 0.02964 0 0.1356 0.02988 0 0.1394 0.03012 0 0.1432 0.03036 0 0.147 0.0306 0 0.1508 0.03084 0 0.1546 0.03108 0 0.1584 0.03132 0 0.1622 0.03156 0 0.166 0.0318 0 0.1698 0.03204 0 0.1736 0.03228 0 0.1774 0.03252 0 0.1812 0.03276 0 0.185 0.033 0 0.128333 0.0303333 0 0.132111 0.0305333 0 0.135889 0.0307333 0 0.139667 0.0309333 0 0.143444 0.0311333 0 0.147222 0.0313333 0 0.151 0.0315333 0 0.154778 0.0317333 0 0.158556 0.0319333 0 0.162333 0.0321333 0 0.166111 0.0323333 0 0.169889 0.0325333 0 0.173667 0.0327333 0 0.177444 0.0329333 0 0.181222 0.0331333 0 0.185 0.0333333 0 0.128667 0.0312667 0 0.132422 0.0314267 0 0.136178 0.0315867 0 0.139933 0.0317467 0 0.143689 0.0319067 0 0.147444 0.0320667 0 0.1512 0.0322267 0 0.154956 0.0323867 0 0.158711 0.0325467 0 0.162467 0.0327067 0 0.166222 0.0328667 0 0.169978 0.0330267 0 0.173733 0.0331867 0 0.177489 0.0333467 0 0.181244 0.0335067 0 0.185 0.0336667 0 0.129 0.0322 0 0.132733 0.03232 0 0.136467 0.03244 0 0.1402 0.03256 0 0.143933 0.03268 0 0.147667 0.0328 0 0.1514 0.03292 0 0.155133 0.03304 0 0.158867 0.03316 0 0.1626 0.03328 0 0.166333 0.0334 0 0.170067 0.03352 0 0.1738 0.03364 0 0.177533 0.03376 0 0.181267 0.03388 0 0.185 0.034 0 0.129333 0.0331333 0 0.133044 0.0332133 0 0.136756 0.0332933 0 0.140467 0.0333733 0 0.144178 0.0334533 0 0.147889 0.0335333 0 0.1516 0.0336133 0 0.155311 0.0336933 0 0.159022 0.0337733 0 0.162733 0.0338533 0 0.166444 0.0339333 0 0.170156 0.0340133 0 0.173867 0.0340933 0 0.177578 0.0341733 0 0.181289 0.0342533 0 0.185 0.0343333 0 0.129667 0.0340667 0 0.133356 0.0341067 0 0.137044 0.0341467 0 0.140733 0.0341867 0 0.144422 0.0342267 0 0.148111 0.0342667 0 0.1518 0.0343067 0 0.155489 0.0343467 0 0.159178 0.0343867 0 0.162867 0.0344267 0 0.166556 0.0344667 0 0.170244 0.0345067 0 0.173933 0.0345467 0 0.177622 0.0345867 0 0.181311 0.0346267 0 0.185 0.0346667 0 0.13 0.035 0 0.133667 0.035 0 0.137333 0.035 0 0.141 0.035 0 0.144667 0.035 0 0.148333 0.035 0 0.152 0.035 0 0.155667 0.035 0 0.159333 0.035 0 0.163 0.035 0 0.166667 0.035 0 0.170333 0.035 0 0.174 0.035 0 0.177667 0.035 0 0.181333 0.035 0 0.185 0.035 0 
</DataArray>
</Points> 
</Piece> 
</StructuredGrid> 
</VTKFile> 
