<?xml version="1.0"?> 
<VTKFile type="StructuredGrid" version="0.1"> 
<StructuredGrid WholeExtent="0 15 0 15 0 0"> 
<Piece Extent="0 15 0 15 0 0"> 
<PointData>
<DataArray type="Float32" Name="|E|" format="ascii" NumberOfComponents="3"> 
-3.79105e+06 -1.20489e+06 0 -3.45691e+06 -2.01978e+06 0 -3.31175e+06 -1.3248e+06 0 -3.25455e+06 -740232 0 -3.22935e+06 -375166 0 -3.21642e+06 -72732.6 0 -3.21538e+06 233880 0 -3.22692e+06 537053 0 -3.24968e+06 835262 0 -3.28226e+06 1.13602e+06 0 -3.32619e+06 1.43935e+06 0 -3.38036e+06 1.80494e+06 0 -3.45172e+06 2.19255e+06 0 -3.54421e+06 2.50751e+06 0 -3.70123e+06 3.57009e+06 0 -4.57874e+06 1.70131e+07 0 -3.21658e+06 -1.94907e+06 0 -3.1318e+06 -1.16711e+06 0 -3.1483e+06 -635203 0 -3.15126e+06 -296708 0 -3.14271e+06 -8901.03 0 -3.14349e+06 280490 0 -3.15754e+06 568363 0 -3.17993e+06 851364 0 -3.20873e+06 1.13628e+06 0 -3.24566e+06 1.43777e+06 0 -3.28727e+06 1.75319e+06 0 -3.34635e+06 2.10558e+06 0 -3.37758e+06 2.56229e+06 0 -3.49991e+06 3.17291e+06 0 -2.98371e+06 4.41525e+06 0 5959.45 3.18985e+06 0 -3.0226e+06 -833312 0 -3.07647e+06 -447941 0 -3.07795e+06 -177039 0 -3.06798e+06 86869.1 0 -3.07274e+06 361666 0 -3.09037e+06 634078 0 -3.11276e+06 902026 0 -3.13821e+06 1.17267e+06 0 -3.16939e+06 1.45754e+06 0 -3.20329e+06 1.75691e+06 0 -3.24329e+06 2.09032e+06 0 -3.26166e+06 2.51114e+06 0 -3.27712e+06 2.94023e+06 0 -2.95384e+06 3.92477e+06 0 -1.45072e+06 4.46434e+06 0 -573347 3.43544e+06 0 -3.01165e+06 -271768 0 -2.99554e+06 -37277.6 0 -2.99113e+06 218028 0 -3.00542e+06 479032 0 -3.02684e+06 733962 0 -3.04793e+06 985934 0 -3.06997e+06 1.24287e+06 0 -3.09597e+06 1.51332e+06 0 -3.12255e+06 1.80048e+06 0 -3.1469e+06 2.11479e+06 0 -3.15134e+06 2.48846e+06 0 -3.10934e+06 2.87383e+06 0 -2.83017e+06 3.64109e+06 0 -1.84055e+06 4.09146e+06 0 -850718 3.48364e+06 0 -619455 2.86542e+06 0 -2.91092e+06 146442 0 -2.9247e+06 387725 0 -2.94695e+06 629178 0 -2.96711e+06 866150 0 -2.98421e+06 1.10408e+06 0 -3.00259e+06 1.34955e+06 0 -3.02359e+06 1.6078e+06 0 -3.04234e+06 1.88172e+06 0 -3.05279e+06 2.17602e+06 0 -3.03847e+06 2.51246e+06 0 -2.9542e+06 2.88298e+06 0 -2.66682e+06 3.46795e+06 0 -1.94099e+06 3.77742e+06 0 -1.15057e+06 3.41103e+06 0 -785384 2.81683e+06 0 -625274 2.28931e+06 0 -2.87352e+06 584639 0 -2.892e+06 812255 0 -2.90596e+06 1.03537e+06 0 -2.91918e+06 1.26149e+06 0 -2.93478e+06 1.49587e+06 0 -2.95047e+06 1.74114e+06 0 -2.9598e+06 1.99934e+06 0 -2.95432e+06 2.27486e+06 0 -2.91345e+06 2.58509e+06 0 -2.78592e+06 2.93278e+06 0 -2.47976e+06 3.3591e+06 0 -1.90811e+06 3.52846e+06 0 -1.31048e+06 3.25287e+06 0 -967978 2.80217e+06 0 -806533 2.3612e+06 0 -709644 1.93341e+06 0 -2.83112e+06 1.03942e+06 0 -2.84183e+06 1.2456e+06 0 -2.85352e+06 1.45827e+06 0 -2.86589e+06 1.6803e+06 0 -2.87349e+06 1.91108e+06 0 -2.86867e+06 2.15363e+06 0 -2.83994e+06 2.41309e+06 0 -2.76189e+06 2.69792e+06 0 -2.58871e+06 2.9964e+06 0 -2.2716e+06 3.27188e+06 0 -1.81149e+06 3.31395e+06 0 -1.37453e+06 3.06779e+06 0 -1.10257e+06 2.70973e+06 0 -950404 2.33099e+06 0 -851763 1.94939e+06 0 -785719 1.58454e+06 0 -2.77858e+06 1.49069e+06 0 -2.78624e+06 1.69131e+06 0 -2.79059e+06 1.90275e+06 0 -2.78294e+06 2.11888e+06 0 -2.75468e+06 2.34642e+06 0 -2.69138e+06 2.58484e+06 0 -2.56802e+06 2.82572e+06 0 -2.35654e+06 3.03913e+06 0 -2.05015e+06 3.16802e+06 0 -1.69199e+06 3.1055e+06 0 -1.38875e+06 2.86806e+06 0 -1.19389e+06 2.56591e+06 0 -1.06812e+06 2.23797e+06 0 -978528 1.90062e+06 0 -914174 1.57125e+06 0 -859456 1.24582e+06 0 -2.70484e+06 1.96347e+06 0 -2.69329e+06 2.16845e+06 0 -2.65857e+06 2.36215e+06 0 -2.59527e+06 2.56497e+06 0 -2.48924e+06 2.75776e+06 0 -2.32493e+06 2.91857e+06 0 -2.09958e+06 3.01792e+06 0 -1.83606e+06 3.0174e+06 0 -1.58224e+06 2.88232e+06 0 -1.38962e+06 2.6504e+06 0 -1.26049e+06 2.38133e+06 0 -1.16377e+06 2.09049e+06 0 -1.08813e+06 1.7931e+06 0 -1.03158e+06 1.50074e+06 0 -983035 1.20475e+06 0 -922431 902343 0 -2.54845e+06 2.46928e+06 0 -2.47196e+06 2.60221e+06 0 -2.37004e+06 2.75643e+06 0 -2.22877e+06 2.86235e+06 0 -2.04984e+06 2.91221e+06 0 -1.8521e+06 2.8986e+06 0 -1.66446e+06 2.80622e+06 0 -1.51219e+06 2.63104e+06 0 -1.40245e+06 2.40298e+06 0 -1.31778e+06 2.15248e+06 0 -1.24334e+06 1.89117e+06 0 -1.18312e+06 1.63171e+06 0 -1.13923e+06 1.37409e+06 0 -1.10007e+06 1.10367e+06 0 -1.04196e+06 816378 0 -939229 531146 0 -2.20331e+06 2.72384e+06 0 -2.0899e+06 2.83744e+06 0 -1.94599e+06 2.81683e+06 0 -1.80048e+06 2.76361e+06 0 -1.67433e+06 2.67626e+06 0 -1.57546e+06 2.53257e+06 0 -1.49897e+06 2.33282e+06 0 -1.43288e+06 2.10307e+06 0 -1.36836e+06 1.8688e+06 0 -1.31093e+06 1.64173e+06 0 -1.27121e+06 1.42137e+06 0 -1.24591e+06 1.19152e+06 0 -1.21507e+06 934798 0 -1.14996e+06 654824 0 -1.02813e+06 380167 0 -850148 149991 0 -1.84788e+06 2.78674e+06 0 -1.73371e+06 2.56063e+06 0 -1.66519e+06 2.48117e+06 0 -1.61717e+06 2.36631e+06 0 -1.57036e+06 2.17841e+06 0 -1.51638e+06 1.95116e+06 0 -1.45899e+06 1.72909e+06 0 -1.41081e+06 1.53247e+06 0 -1.3841e+06 1.35196e+06 0 -1.3766e+06 1.16139e+06 0 -1.3671e+06 935742 0 -1.32496e+06 670581 0 -1.2241e+06 390007 0 -1.05722e+06 136062 0 -843133 -51296 0 -618511 -154704 0 -1.64302e+06 2.00374e+06 0 -1.66373e+06 2.14606e+06 0 -1.62813e+06 1.94646e+06 0 -1.5701e+06 1.67292e+06 0 -1.51969e+06 1.44831e+06 0 -1.49604e+06 1.29091e+06 0 -1.50202e+06 1.16228e+06 0 -1.52194e+06 1.01045e+06 0 -1.5256e+06 802328 0 -1.48062e+06 539184 0 -1.36611e+06 253732 0 -1.18139e+06 -5417.2 0 -948117 -194909 0 -703156 -293964 0 -484138 -310027 0 -315535 -271263 0 -1.73915e+06 1.88507e+06 0 -1.61718e+06 1.15511e+06 0 -1.59553e+06 923947 0 -1.63425e+06 889879 0 -1.68859e+06 858530 0 -1.71544e+06 735172 0 -1.68047e+06 505101 0 -1.56567e+06 208872 0 -1.37382e+06 -88216.2 0 -1.12658e+06 -325844 0 -858018 -467063 0 -605100 -505883 0 -396938 -464156 0 -247272 -378500 0 -153323 -284646 0 -101158 -205263 0 -1.71479e+06 -66781.6 0 -1.8948e+06 444004 0 -1.91007e+06 463848 0 -1.7864e+06 208543 0 -1.55877e+06 -146978 0 -1.26847e+06 -475623 0 -958682 -700028 0 -668199 -792356 0 -425477 -765811 0 -245713 -657420 0 -130101 -512579 0 -67914.2 -371737 0 -41877.7 -259966 0 -34412.8 -184518 0 -32444.8 -139339 0 -29414.5 -112760 0 2.6226e-06 -1.19478e+07 0 -2.44472e-07 -5.35102e+06 0 -2.14204e-08 -1.4793e+06 0 1.96509e-07 423687 0 -6.51926e-08 1.03476e+06 0 -7.45058e-09 918693 0 2.23517e-08 503574 0 -1.49012e-07 70815 0 2.5332e-07 -232918 0 -2.68221e-07 -367915 0 2.68221e-07 -365540 0 -1.3411e-07 -288050 0 1.78814e-07 -194451 0 -1.93715e-07 -121399 0 2.08616e-07 -79679.1 0 -1.78814e-06 -62317 0 </DataArray> 
</PointData> 
<Points> 
<DataArray type="Float32" NumberOfComponents="3"> 
0.016 0.021 0 0.0199333 0.021 0 0.0238667 0.021 0 0.0278 0.021 0 0.0317333 0.021 0 0.0356667 0.021 0 0.0396 0.021 0 0.0435333 0.021 0 0.0474667 0.021 0 0.0514 0.021 0 0.0553333 0.021 0 0.0592667 0.021 0 0.0632 0.021 0 0.0671333 0.021 0 0.0710667 0.021 0 0.075 0.021 0 0.0216 0.0219333 0 0.0253156 0.0219333 0 0.0290311 0.0219333 0 0.0327467 0.0219333 0 0.0364622 0.0219333 0 0.0401778 0.0219333 0 0.0438933 0.0219333 0 0.0476089 0.0219333 0 0.0513244 0.0219333 0 0.05504 0.0219333 0 0.0587556 0.0219333 0 0.0624711 0.0219333 0 0.0661867 0.0219333 0 0.0699022 0.0219333 0 0.0736178 0.0219333 0 0.0773333 0.0219333 0 0.0272 0.0228667 0 0.0306978 0.0228667 0 0.0341956 0.0228667 0 0.0376933 0.0228667 0 0.0411911 0.0228667 0 0.0446889 0.0228667 0 0.0481867 0.0228667 0 0.0516844 0.0228667 0 0.0551822 0.0228667 0 0.05868 0.0228667 0 0.0621778 0.0228667 0 0.0656756 0.0228667 0 0.0691733 0.0228667 0 0.0726711 0.0228667 0 0.0761689 0.0228667 0 0.0796667 0.0228667 0 0.0328 0.0238 0 0.03608 0.0238 0 0.03936 0.0238 0 0.04264 0.0238 0 0.04592 0.0238 0 0.0492 0.0238 0 0.05248 0.0238 0 0.05576 0.0238 0 0.05904 0.0238 0 0.06232 0.0238 0 0.0656 0.0238 0 0.06888 0.0238 0 0.07216 0.0238 0 0.07544 0.0238 0 0.07872 0.0238 0 0.082 0.0238 0 0.0384 0.0247333 0 0.0414622 0.0247333 0 0.0445244 0.0247333 0 0.0475867 0.0247333 0 0.0506489 0.0247333 0 0.0537111 0.0247333 0 0.0567733 0.0247333 0 0.0598356 0.0247333 0 0.0628978 0.0247333 0 0.06596 0.0247333 0 0.0690222 0.0247333 0 0.0720844 0.0247333 0 0.0751467 0.0247333 0 0.0782089 0.0247333 0 0.0812711 0.0247333 0 0.0843333 0.0247333 0 0.044 0.0256667 0 0.0468444 0.0256667 0 0.0496889 0.0256667 0 0.0525333 0.0256667 0 0.0553778 0.0256667 0 0.0582222 0.0256667 0 0.0610667 0.0256667 0 0.0639111 0.0256667 0 0.0667556 0.0256667 0 0.0696 0.0256667 0 0.0724444 0.0256667 0 0.0752889 0.0256667 0 0.0781333 0.0256667 0 0.0809778 0.0256667 0 0.0838222 0.0256667 0 0.0866667 0.0256667 0 0.0496 0.0266 0 0.0522267 0.0266 0 0.0548533 0.0266 0 0.05748 0.0266 0 0.0601067 0.0266 0 0.0627333 0.0266 0 0.06536 0.0266 0 0.0679867 0.0266 0 0.0706133 0.0266 0 0.07324 0.0266 0 0.0758667 0.0266 0 0.0784933 0.0266 0 0.08112 0.0266 0 0.0837467 0.0266 0 0.0863733 0.0266 0 0.089 0.0266 0 0.0552 0.0275333 0 0.0576089 0.0275333 0 0.0600178 0.0275333 0 0.0624267 0.0275333 0 0.0648356 0.0275333 0 0.0672444 0.0275333 0 0.0696533 0.0275333 0 0.0720622 0.0275333 0 0.0744711 0.0275333 0 0.07688 0.0275333 0 0.0792889 0.0275333 0 0.0816978 0.0275333 0 0.0841067 0.0275333 0 0.0865156 0.0275333 0 0.0889244 0.0275333 0 0.0913333 0.0275333 0 0.0608 0.0284667 0 0.0629911 0.0284667 0 0.0651822 0.0284667 0 0.0673733 0.0284667 0 0.0695644 0.0284667 0 0.0717556 0.0284667 0 0.0739467 0.0284667 0 0.0761378 0.0284667 0 0.0783289 0.0284667 0 0.08052 0.0284667 0 0.0827111 0.0284667 0 0.0849022 0.0284667 0 0.0870933 0.0284667 0 0.0892844 0.0284667 0 0.0914756 0.0284667 0 0.0936667 0.0284667 0 0.0664 0.0294 0 0.0683733 0.0294 0 0.0703467 0.0294 0 0.07232 0.0294 0 0.0742933 0.0294 0 0.0762667 0.0294 0 0.07824 0.0294 0 0.0802133 0.0294 0 0.0821867 0.0294 0 0.08416 0.0294 0 0.0861333 0.0294 0 0.0881067 0.0294 0 0.09008 0.0294 0 0.0920533 0.0294 0 0.0940267 0.0294 0 0.096 0.0294 0 0.072 0.0303333 0 0.0737556 0.0303333 0 0.0755111 0.0303333 0 0.0772667 0.0303333 0 0.0790222 0.0303333 0 0.0807778 0.0303333 0 0.0825333 0.0303333 0 0.0842889 0.0303333 0 0.0860444 0.0303333 0 0.0878 0.0303333 0 0.0895556 0.0303333 0 0.0913111 0.0303333 0 0.0930667 0.0303333 0 0.0948222 0.0303333 0 0.0965778 0.0303333 0 0.0983333 0.0303333 0 0.0776 0.0312667 0 0.0791378 0.0312667 0 0.0806756 0.0312667 0 0.0822133 0.0312667 0 0.0837511 0.0312667 0 0.0852889 0.0312667 0 0.0868267 0.0312667 0 0.0883644 0.0312667 0 0.0899022 0.0312667 0 0.09144 0.0312667 0 0.0929778 0.0312667 0 0.0945156 0.0312667 0 0.0960533 0.0312667 0 0.0975911 0.0312667 0 0.0991289 0.0312667 0 0.100667 0.0312667 0 0.0832 0.0322 0 0.08452 0.0322 0 0.08584 0.0322 0 0.08716 0.0322 0 0.08848 0.0322 0 0.0898 0.0322 0 0.09112 0.0322 0 0.09244 0.0322 0 0.09376 0.0322 0 0.09508 0.0322 0 0.0964 0.0322 0 0.09772 0.0322 0 0.09904 0.0322 0 0.10036 0.0322 0 0.10168 0.0322 0 0.103 0.0322 0 0.0888 0.0331333 0 0.0899022 0.0331333 0 0.0910044 0.0331333 0 0.0921067 0.0331333 0 0.0932089 0.0331333 0 0.0943111 0.0331333 0 0.0954133 0.0331333 0 0.0965156 0.0331333 0 0.0976178 0.0331333 0 0.09872 0.0331333 0 0.0998222 0.0331333 0 0.100924 0.0331333 0 0.102027 0.0331333 0 0.103129 0.0331333 0 0.104231 0.0331333 0 0.105333 0.0331333 0 0.0944 0.0340667 0 0.0952844 0.0340667 0 0.0961689 0.0340667 0 0.0970533 0.0340667 0 0.0979378 0.0340667 0 0.0988222 0.0340667 0 0.0997067 0.0340667 0 0.100591 0.0340667 0 0.101476 0.0340667 0 0.10236 0.0340667 0 0.103244 0.0340667 0 0.104129 0.0340667 0 0.105013 0.0340667 0 0.105898 0.0340667 0 0.106782 0.0340667 0 0.107667 0.0340667 0 0.1 0.035 0 0.100667 0.035 0 0.101333 0.035 0 0.102 0.035 0 0.102667 0.035 0 0.103333 0.035 0 0.104 0.035 0 0.104667 0.035 0 0.105333 0.035 0 0.106 0.035 0 0.106667 0.035 0 0.107333 0.035 0 0.108 0.035 0 0.108667 0.035 0 0.109333 0.035 0 0.11 0.035 0 
</DataArray>
</Points> 
</Piece> 
</StructuredGrid> 
</VTKFile> 
