<?xml version="1.0"?> 
<VTKFile type="StructuredGrid" version="0.1"> 
<StructuredGrid WholeExtent="0 15 0 15 0 0"> 
<Piece Extent="0 15 0 15 0 0"> 
<PointData>
<DataArray type="Float32" Name="|E|" format="ascii" NumberOfComponents="3"> 
278009 4.21658e+06 0 276474 4.19331e+06 0 275375 4.17663e+06 0 274577 4.16453e+06 0 274053 4.15658e+06 0 273801 4.15276e+06 0 273834 4.15327e+06 0 274179 4.1585e+06 0 274875 4.16906e+06 0 275982 4.18585e+06 0 277582 4.21011e+06 0 279792 4.24363e+06 0 282783 4.28899e+06 0 286809 4.35006e+06 0 292280 4.43304e+06 0 299928 4.54904e+06 0 242989 4.21221e+06 0 249400 4.19154e+06 0 254757 4.17494e+06 0 259764 4.16235e+06 0 264874 4.15365e+06 0 270400 4.14885e+06 0 276620 4.14812e+06 0 283841 4.15179e+06 0 292425 4.16039e+06 0 302846 4.17465e+06 0 315750 4.19559e+06 0 332066 4.22462e+06 0 353190 4.26368e+06 0 381348 4.31548e+06 0 420336 4.38383e+06 0 476996 4.47403e+06 0 211876 4.20046e+06 0 223243 4.18126e+06 0 233692 4.16527e+06 0 243750 4.15253e+06 0 253904 4.14308e+06 0 264610 4.13698e+06 0 276327 4.13437e+06 0 289554 4.13549e+06 0 304882 4.1407e+06 0 323053 4.15045e+06 0 345042 4.16538e+06 0 372184 4.18623e+06 0 406366 4.21391e+06 0 450341 4.24936e+06 0 508231 4.29335e+06 0 586121 4.34578e+06 0 182819 4.18234e+06 0 198156 4.16443e+06 0 212650 4.14904e+06 0 226781 4.13621e+06 0 241060 4.12595e+06 0 256003 4.11834e+06 0 272152 4.11344e+06 0 290104 4.11139e+06 0 310552 4.11235e+06 0 334332 4.11652e+06 0 362491 4.12408e+06 0 396369 4.13521e+06 0 437712 4.14992e+06 0 488800 4.16792e+06 0 552571 4.1883e+06 0 632566 4.20893e+06 0 155858 4.15901e+06 0 174257 4.14244e+06 0 191790 4.12769e+06 0 208977 4.11477e+06 0 226338 4.10368e+06 0 244407 4.09446e+06 0 263747 4.08712e+06 0 284972 4.08168e+06 0 308771 4.07813e+06 0 335945 4.07645e+06 0 367435 4.07653e+06 0 404366 4.07813e+06 0 448070 4.08077e+06 0 500100 4.08362e+06 0 562174 4.08526e+06 0 635980 4.08345e+06 0 131301 4.13187e+06 0 151715 4.11672e+06 0 171270 4.10265e+06 0 190475 4.08968e+06 0 209844 4.07781e+06 0 229894 4.06702e+06 0 251167 4.05729e+06 0 274238 4.04855e+06 0 299731 4.04069e+06 0 328335 4.03353e+06 0 360816 4.02678e+06 0 398015 4.02002e+06 0 440846 4.01258e+06 0 490246 4.00352e+06 0 547093 3.99148e+06 0 612042 3.97467e+06 0 109296 4.10242e+06 0 130691 4.08871e+06 0 151251 4.07536e+06 0 171458 4.0624e+06 0 191792 4.04984e+06 0 212731 4.03765e+06 0 234766 4.02574e+06 0 258403 4.01403e+06 0 284173 4.00232e+06 0 312632 3.99036e+06 0 344359 3.97782e+06 0 379947 3.96419e+06 0 419973 3.94883e+06 0 464956 3.93088e+06 0 515284 3.90923e+06 0 571109 3.88255e+06 0 89879.5 4.07216e+06 0 111263 4.05984e+06 0 131868 4.04721e+06 0 152126 4.03434e+06 0 172463 4.02122e+06 0 193304 4.00782e+06 0 215073 3.99405e+06 0 238197 3.97978e+06 0 263105 3.96482e+06 0 290229 3.9489e+06 0 319988 3.93166e+06 0 352780 3.91265e+06 0 388952 3.8913e+06 0 428764 3.86689e+06 0 472339 3.83859e+06 0 519610 3.80546e+06 0 72935 4.04246e+06 0 93422.1 4.03142e+06 0 113208 4.0195e+06 0 132664 4.00676e+06 0 152156 3.99322e+06 0 172044 3.97885e+06 0 192682 3.96354e+06 0 214416 3.94719e+06 0 237586 3.92959e+06 0 262513 3.9105e+06 0 289494 3.8896e+06 0 318788 3.86649e+06 0 350592 3.84071e+06 0 385017 3.8117e+06 0 422060 3.77885e+06 0 461569 3.74151e+06 0 58247.7 4.01453e+06 0 77078.6 4.00462e+06 0 95303.1 3.99335e+06 0 113226 3.98078e+06 0 131150 3.96695e+06 0 149370 3.95181e+06 0 168172 3.9353e+06 0 187829 3.9173e+06 0 208601 3.89764e+06 0 230723 3.8761e+06 0 254402 3.85242e+06 0 279801 3.82627e+06 0 307025 3.79728e+06 0 336107 3.76504e+06 0 366987 3.7291e+06 0 399500 3.68903e+06 0 45531.7 3.98937e+06 0 62084 3.98042e+06 0 78131.6 3.96972e+06 0 93916.8 3.95734e+06 0 109680 3.94331e+06 0 125654 3.92761e+06 0 142062 3.91018e+06 0 159114 3.89092e+06 0 177004 3.8697e+06 0 195900 3.84632e+06 0 215944 3.82058e+06 0 237235 3.79221e+06 0 259827 3.76094e+06 0 283713 3.72646e+06 0 308816 3.68845e+06 0 334988 3.64662e+06 0 34465.5 3.96779e+06 0 48247.4 3.95962e+06 0 61628.8 3.9494e+06 0 74794 3.9372e+06 0 87925.7 3.92305e+06 0 101201 3.90694e+06 0 114786 3.88884e+06 0 128839 3.86866e+06 0 143497 3.84628e+06 0 158880 3.82157e+06 0 175081 3.79434e+06 0 192161 3.7644e+06 0 210143 3.73154e+06 0 229005 3.69553e+06 0 248675 3.65616e+06 0 269029 3.61321e+06 0 24713.1 3.95041e+06 0 35352.9 3.94284e+06 0 45695.7 3.93299e+06 0 55873 3.92095e+06 0 66016 3.90673e+06 0 76250.7 3.89036e+06 0 86696.1 3.87178e+06 0 97461.3 3.85095e+06 0 108642 3.82776e+06 0 120319 3.80211e+06 0 132551 3.77385e+06 0 145374 3.74283e+06 0 158796 3.7089e+06 0 172793 3.67188e+06 0 187307 3.63162e+06 0 202244 3.58798e+06 0 15937.7 3.93769e+06 0 23171 3.93054e+06 0 30208.3 3.92097e+06 0 37134 3.90904e+06 0 44032.4 3.89479e+06 0 50984.2 3.87824e+06 0 58065.5 3.85936e+06 0 65345.2 3.8381e+06 0 72883.4 3.81438e+06 0 80729 3.78811e+06 0 88917.4 3.75918e+06 0 97468 3.72747e+06 0 106382 3.69285e+06 0 115641 3.6552e+06 0 125204 3.6144e+06 0 135010 3.57036e+06 0 7808.2 3.92994e+06 0 11466 3.92304e+06 0 15026.5 3.91363e+06 0 18530.8 3.90177e+06 0 22020.1 3.88752e+06 0 25533.9 3.87087e+06 0 29108.9 3.85181e+06 0 32778.7 3.83031e+06 0 36572.1 3.80629e+06 0 40512.3 3.77967e+06 0 44615.6 3.75037e+06 0 48890.6 3.71827e+06 0 53336.9 3.68328e+06 0 57944.4 3.64528e+06 0 62692.5 3.60419e+06 0 67550.7 3.55994e+06 0 0 3.92734e+06 0 0 3.92052e+06 0 0 3.91116e+06 0 0 3.89933e+06 0 0 3.88507e+06 0 0 3.8684e+06 0 0 3.84928e+06 0 0 3.8277e+06 0 0 3.80358e+06 0 0 3.77686e+06 0 0 3.74743e+06 0 0 3.71521e+06 0 0 3.6801e+06 0 0 3.64199e+06 0 0 3.60081e+06 0 0 3.55649e+06 0 </DataArray> 
</PointData> 
<Points> 
<DataArray type="Float32" NumberOfComponents="3"> 
0.146503 0.0627911 0 0.148836 0.0626372 0 0.151169 0.0624834 0 0.153502 0.0623296 0 0.155835 0.0621758 0 0.158169 0.0620219 0 0.160502 0.0618681 0 0.162835 0.0617143 0 0.165168 0.0615604 0 0.167502 0.0614066 0 0.169835 0.0612527 0 0.172169 0.0610989 0 0.174502 0.060945 0 0.176836 0.0607911 0 0.17917 0.0606373 0 0.181504 0.0604834 0 0.146503 0.0660717 0 0.148836 0.0659281 0 0.151169 0.0657845 0 0.153502 0.065641 0 0.155835 0.0654974 0 0.158168 0.0653538 0 0.160502 0.0652102 0 0.162835 0.0650666 0 0.165168 0.0649231 0 0.167502 0.0647795 0 0.169835 0.0646359 0 0.172169 0.0644923 0 0.174502 0.0643487 0 0.176836 0.0642051 0 0.17917 0.0640615 0 0.181503 0.0639178 0 0.146503 0.0693522 0 0.148836 0.0692189 0 0.151169 0.0690856 0 0.153502 0.0689523 0 0.155835 0.068819 0 0.158168 0.0686857 0 0.160502 0.0685524 0 0.162835 0.068419 0 0.165168 0.0682857 0 0.167502 0.0681524 0 0.169835 0.068019 0 0.172169 0.0678857 0 0.174502 0.0677523 0 0.176836 0.067619 0 0.179169 0.0674856 0 0.181503 0.0673523 0 0.146503 0.0726328 0 0.148836 0.0725098 0 0.151169 0.0723867 0 0.153502 0.0722637 0 0.155835 0.0721406 0 0.158168 0.0720176 0 0.160501 0.0718945 0 0.162835 0.0717714 0 0.165168 0.0716483 0 0.167501 0.0715253 0 0.169835 0.0714022 0 0.172168 0.0712791 0 0.174502 0.071156 0 0.176836 0.0710329 0 0.179169 0.0709098 0 0.181503 0.0707867 0 0.146502 0.0759134 0 0.148835 0.0758006 0 0.151169 0.0756878 0 0.153502 0.075575 0 0.155835 0.0754622 0 0.158168 0.0753494 0 0.160501 0.0752366 0 0.162835 0.0751238 0 0.165168 0.075011 0 0.167501 0.0748982 0 0.169835 0.0747853 0 0.172168 0.0746725 0 0.174502 0.0745597 0 0.176835 0.0744468 0 0.179169 0.074334 0 0.181503 0.0742212 0 0.146502 0.079194 0 0.148835 0.0790915 0 0.151168 0.0789889 0 0.153501 0.0788864 0 0.155835 0.0787838 0 0.158168 0.0786813 0 0.160501 0.0785787 0 0.162834 0.0784762 0 0.165168 0.0783736 0 0.167501 0.0782711 0 0.169835 0.0781685 0 0.172168 0.0780659 0 0.174502 0.0779633 0 0.176835 0.0778608 0 0.179169 0.0777582 0 0.181502 0.0776556 0 0.146502 0.0824746 0 0.148835 0.0823823 0 0.151168 0.0822901 0 0.153501 0.0821978 0 0.155835 0.0821055 0 0.158168 0.0820132 0 0.160501 0.0819209 0 0.162834 0.0818286 0 0.165168 0.0817363 0 0.167501 0.0816439 0 0.169834 0.0815516 0 0.172168 0.0814593 0 0.174501 0.081367 0 0.176835 0.0812747 0 0.179169 0.0811824 0 0.181502 0.08109 0 0.146502 0.0857552 0 0.148835 0.0856732 0 0.151168 0.0855912 0 0.153501 0.0855091 0 0.155834 0.0854271 0 0.158168 0.085345 0 0.160501 0.085263 0 0.162834 0.0851809 0 0.165168 0.0850989 0 0.167501 0.0850168 0 0.169834 0.0849348 0 0.172168 0.0848527 0 0.174501 0.0847707 0 0.176835 0.0846886 0 0.179168 0.0846065 0 0.181502 0.0845245 0 0.146502 0.0890358 0 0.148835 0.088964 0 0.151168 0.0888923 0 0.153501 0.0888205 0 0.155834 0.0887487 0 0.158168 0.0886769 0 0.160501 0.0886051 0 0.162834 0.0885333 0 0.165167 0.0884615 0 0.167501 0.0883897 0 0.169834 0.0883179 0 0.172168 0.0882461 0 0.174501 0.0881743 0 0.176835 0.0881025 0 0.179168 0.0880307 0 0.181502 0.0879589 0 0.146501 0.0923164 0 0.148834 0.0922549 0 0.151168 0.0921934 0 0.153501 0.0921318 0 0.155834 0.0920703 0 0.158167 0.0920088 0 0.160501 0.0919472 0 0.162834 0.0918857 0 0.165167 0.0918242 0 0.167501 0.0917626 0 0.169834 0.0917011 0 0.172168 0.0916395 0 0.174501 0.091578 0 0.176834 0.0915165 0 0.179168 0.0914549 0 0.181501 0.0913934 0 0.146501 0.095597 0 0.148834 0.0955457 0 0.151168 0.0954945 0 0.153501 0.0954432 0 0.155834 0.0953919 0 0.158167 0.0953406 0 0.160501 0.0952894 0 0.162834 0.0952381 0 0.165167 0.0951868 0 0.167501 0.0951355 0 0.169834 0.0950842 0 0.172167 0.095033 0 0.174501 0.0949817 0 0.176834 0.0949304 0 0.179168 0.0948791 0 0.181501 0.0948278 0 0.146501 0.0988776 0 0.148834 0.0988366 0 0.151167 0.0987956 0 0.153501 0.0987546 0 0.155834 0.0987135 0 0.158167 0.0986725 0 0.1605 0.0986315 0 0.162834 0.0985905 0 0.165167 0.0985494 0 0.1675 0.0985084 0 0.169834 0.0984674 0 0.172167 0.0984264 0 0.174501 0.0983853 0 0.176834 0.0983443 0 0.179167 0.0983033 0 0.181501 0.0982622 0 0.146501 0.102158 0 0.148834 0.102127 0 0.151167 0.102097 0 0.1535 0.102066 0 0.155834 0.102035 0 0.158167 0.102004 0 0.1605 0.101974 0 0.162834 0.101943 0 0.165167 0.101912 0 0.1675 0.101881 0 0.169834 0.101851 0 0.172167 0.10182 0 0.1745 0.101789 0 0.176834 0.101758 0 0.179167 0.101727 0 0.181501 0.101697 0 0.1465 0.105439 0 0.148834 0.105418 0 0.151167 0.105398 0 0.1535 0.105377 0 0.155834 0.105357 0 0.158167 0.105336 0 0.1605 0.105316 0 0.162834 0.105295 0 0.165167 0.105275 0 0.1675 0.105254 0 0.169834 0.105234 0 0.172167 0.105213 0 0.1745 0.105193 0 0.176834 0.105172 0 0.179167 0.105152 0 0.1815 0.105131 0 0.1465 0.108719 0 0.148834 0.108709 0 0.151167 0.108699 0 0.1535 0.108689 0 0.155833 0.108678 0 0.158167 0.108668 0 0.1605 0.108658 0 0.162833 0.108648 0 0.165167 0.108637 0 0.1675 0.108627 0 0.169833 0.108617 0 0.172167 0.108607 0 0.1745 0.108596 0 0.176834 0.108586 0 0.179167 0.108576 0 0.1815 0.108566 0 0.1465 0.112 0 0.148833 0.112 0 0.151167 0.112 0 0.1535 0.112 0 0.155833 0.112 0 0.158167 0.112 0 0.1605 0.112 0 0.162833 0.112 0 0.165167 0.112 0 0.1675 0.112 0 0.169833 0.112 0 0.172167 0.112 0 0.1745 0.112 0 0.176833 0.112 0 0.179167 0.112 0 0.1815 0.112 0 
</DataArray>
</Points> 
</Piece> 
</StructuredGrid> 
</VTKFile> 
