<?xml version="1.0"?> 
<VTKFile type="StructuredGrid" version="0.1"> 
<StructuredGrid WholeExtent="0 15 0 15 0 0"> 
<Piece Extent="0 15 0 15 0 0"> 
<PointData>
<DataArray type="Float32" Name="|E|" format="ascii" NumberOfComponents="3"> 
299928 4.54904e+06 0 302154 4.57562e+06 0 304507 4.60404e+06 0 307006 4.63458e+06 0 309671 4.66754e+06 0 312529 4.70328e+06 0 315609 4.74226e+06 0 318951 4.78505e+06 0 322604 4.83238e+06 0 326638 4.88526e+06 0 331145 4.94503e+06 0 336255 5.01362e+06 0 342157 5.09379e+06 0 349129 5.18961e+06 0 357587 5.30721e+06 0 368172 5.45595e+06 0 477125 4.47403e+06 0 490567 4.49369e+06 0 505189 4.51439e+06 0 521139 4.53617e+06 0 538589 4.55908e+06 0 557740 4.58314e+06 0 578821 4.6084e+06 0 602101 4.63485e+06 0 627882 4.66248e+06 0 656507 4.69121e+06 0 688354 4.72092e+06 0 723813 4.75134e+06 0 763257 4.78207e+06 0 806971 4.8124e+06 0 855017 4.84126e+06 0 907014 4.8669e+06 0 586207 4.34578e+06 0 603545 4.35629e+06 0 621950 4.36698e+06 0 641488 4.37781e+06 0 662233 4.38872e+06 0 684257 4.39967e+06 0 707634 4.41056e+06 0 732439 4.42131e+06 0 758741 4.43181e+06 0 786611 4.44195e+06 0 816117 4.45158e+06 0 847339 4.46054e+06 0 880380 4.46869e+06 0 915404 4.47586e+06 0 952707 4.48192e+06 0 992831 4.4868e+06 0 632598 4.20893e+06 0 649560 4.2125e+06 0 667243 4.21591e+06 0 685672 4.21911e+06 0 704870 4.22208e+06 0 724860 4.22475e+06 0 745659 4.22708e+06 0 767285 4.22901e+06 0 789748 4.23047e+06 0 813053 4.23142e+06 0 837195 4.23177e+06 0 862151 4.23146e+06 0 887869 4.23041e+06 0 914244 4.22856e+06 0 941077 4.22582e+06 0 968009 4.22214e+06 0 635991 4.08345e+06 0 651094 4.08249e+06 0 666658 4.08127e+06 0 682684 4.07977e+06 0 699176 4.07796e+06 0 716132 4.07582e+06 0 733551 4.0733e+06 0 751429 4.07039e+06 0 769760 4.06704e+06 0 788534 4.06323e+06 0 807743 4.05891e+06 0 827383 4.05407e+06 0 847455 4.04866e+06 0 867983 4.04264e+06 0 889031 4.03598e+06 0 910742 4.02861e+06 0 612042 3.97467e+06 0 625015 3.97085e+06 0 638275 3.96676e+06 0 651823 3.96241e+06 0 665655 3.95775e+06 0 679767 3.95279e+06 0 694156 3.9475e+06 0 708816 3.94187e+06 0 723739 3.93586e+06 0 738917 3.92948e+06 0 754339 3.92269e+06 0 769989 3.91547e+06 0 785845 3.90782e+06 0 801873 3.89972e+06 0 818014 3.89116e+06 0 834167 3.88215e+06 0 571107 3.88255e+06 0 582061 3.87692e+06 0 593197 3.87106e+06 0 604512 3.86495e+06 0 616000 3.85859e+06 0 627657 3.85196e+06 0 639477 3.84505e+06 0 651454 3.83785e+06 0 663580 3.83035e+06 0 675849 3.82255e+06 0 688251 3.81443e+06 0 700780 3.80598e+06 0 713429 3.7972e+06 0 726199 3.78806e+06 0 739098 3.77857e+06 0 752153 3.76869e+06 0 519607 3.80546e+06 0 528764 3.79869e+06 0 538036 3.79173e+06 0 547419 3.78454e+06 0 556909 3.77714e+06 0 566502 3.76951e+06 0 576194 3.76164e+06 0 585979 3.75354e+06 0 595852 3.74518e+06 0 605808 3.73658e+06 0 615840 3.72772e+06 0 625940 3.71859e+06 0 636100 3.70919e+06 0 646308 3.69953e+06 0 656548 3.68959e+06 0 666793 3.67938e+06 0 461566 3.74151e+06 0 469146 3.73403e+06 0 476799 3.72637e+06 0 484520 3.71852e+06 0 492307 3.71049e+06 0 500156 3.70225e+06 0 508064 3.69382e+06 0 516025 3.68519e+06 0 524037 3.67636e+06 0 532094 3.66731e+06 0 540192 3.65806e+06 0 548327 3.64859e+06 0 556493 3.6389e+06 0 564687 3.629e+06 0 572908 3.61886e+06 0 581157 3.6085e+06 0 399497 3.68903e+06 0 405690 3.6811e+06 0 411927 3.67301e+06 0 418207 3.66475e+06 0 424527 3.65633e+06 0 430884 3.64775e+06 0 437275 3.63899e+06 0 443698 3.63006e+06 0 450148 3.62095e+06 0 456623 3.61167e+06 0 463120 3.60221e+06 0 469634 3.59257e+06 0 476162 3.58275e+06 0 482698 3.57274e+06 0 489239 3.56255e+06 0 495776 3.55218e+06 0 334985 3.64662e+06 0 339943 3.63841e+06 0 344928 3.63005e+06 0 349939 3.62155e+06 0 354973 3.61291e+06 0 360029 3.60411e+06 0 365104 3.59517e+06 0 370196 3.58608e+06 0 375303 3.57683e+06 0 380422 3.56743e+06 0 385551 3.55788e+06 0 390687 3.54817e+06 0 395828 3.53831e+06 0 400970 3.52829e+06 0 406112 3.51811e+06 0 411252 3.50778e+06 0 269028 3.61321e+06 0 272868 3.60483e+06 0 276724 3.59631e+06 0 280595 3.58767e+06 0 284480 3.57889e+06 0 288377 3.56998e+06 0 292285 3.56094e+06 0 296201 3.55176e+06 0 300124 3.54245e+06 0 304053 3.533e+06 0 307985 3.52341e+06 0 311918 3.51369e+06 0 315852 3.50383e+06 0 319783 3.49383e+06 0 323710 3.48369e+06 0 327630 3.47342e+06 0 202243 3.58798e+06 0 205053 3.5795e+06 0 207872 3.5709e+06 0 210699 3.56217e+06 0 213534 3.55332e+06 0 216376 3.54435e+06 0 219222 3.53525e+06 0 222073 3.52604e+06 0 224926 3.51669e+06 0 227782 3.50723e+06 0 230637 3.49764e+06 0 233492 3.48793e+06 0 236345 3.47809e+06 0 239194 3.46813e+06 0 242039 3.45804e+06 0 244876 3.44783e+06 0 135009 3.57036e+06 0 136850 3.56182e+06 0 138696 3.55316e+06 0 140546 3.54439e+06 0 142400 3.5355e+06 0 144257 3.5265e+06 0 146117 3.51738e+06 0 147978 3.50815e+06 0 149840 3.4988e+06 0 151702 3.48934e+06 0 153563 3.47975e+06 0 155423 3.47006e+06 0 157281 3.46024e+06 0 159136 3.45032e+06 0 160987 3.44027e+06 0 162834 3.43012e+06 0 67550.3 3.55994e+06 0 68461.3 3.55137e+06 0 69374.5 3.54268e+06 0 70289.5 3.53389e+06 0 71206 3.52499e+06 0 72123.8 3.51597e+06 0 73042.4 3.50685e+06 0 73961.5 3.49761e+06 0 74880.9 3.48826e+06 0 75800 3.4788e+06 0 76718.5 3.46922e+06 0 77636.2 3.45954e+06 0 78552.4 3.44975e+06 0 79466.9 3.43984e+06 0 80379.1 3.42983e+06 0 81288.3 3.41971e+06 0 0 3.55649e+06 0 0 3.54791e+06 0 0 3.53922e+06 0 0 3.53042e+06 0 0 3.52151e+06 0 0 3.51249e+06 0 0 3.50336e+06 0 0 3.49412e+06 0 0 3.48478e+06 0 0 3.47532e+06 0 0 3.46575e+06 0 0 3.45607e+06 0 0 3.44628e+06 0 0 3.43639e+06 0 0 3.42638e+06 0 0 3.41627e+06 0 </DataArray> 
</PointData> 
<Points> 
<DataArray type="Float32" NumberOfComponents="3"> 
0.181504 0.0604834 0 0.181936 0.0604548 0 0.182369 0.0604262 0 0.182802 0.0603976 0 0.183235 0.0603689 0 0.183669 0.0603401 0 0.184102 0.0603113 0 0.184535 0.0602824 0 0.184968 0.0602535 0 0.185402 0.0602246 0 0.185835 0.0601956 0 0.186269 0.0601665 0 0.186702 0.0601374 0 0.187136 0.0601083 0 0.187569 0.0600791 0 0.188003 0.0600498 0 0.181503 0.0639178 0 0.181936 0.0638912 0 0.182369 0.0638645 0 0.182802 0.0638377 0 0.183235 0.0638109 0 0.183668 0.0637841 0 0.184102 0.0637572 0 0.184535 0.0637303 0 0.184968 0.0637033 0 0.185402 0.0636763 0 0.185835 0.0636492 0 0.186268 0.0636221 0 0.186702 0.0635949 0 0.187136 0.0635677 0 0.187569 0.0635405 0 0.188003 0.0635132 0 0.181503 0.0673523 0 0.181936 0.0673275 0 0.182369 0.0673027 0 0.182802 0.0672779 0 0.183235 0.067253 0 0.183668 0.0672281 0 0.184102 0.0672031 0 0.184535 0.0671781 0 0.184968 0.0671531 0 0.185401 0.067128 0 0.185835 0.0671028 0 0.186268 0.0670777 0 0.186702 0.0670524 0 0.187135 0.0670272 0 0.187569 0.0670019 0 0.188003 0.0669765 0 0.181503 0.0707867 0 0.181936 0.0707639 0 0.182369 0.070741 0 0.182802 0.0707181 0 0.183235 0.0706951 0 0.183668 0.0706721 0 0.184101 0.070649 0 0.184535 0.070626 0 0.184968 0.0706028 0 0.185401 0.0705797 0 0.185835 0.0705565 0 0.186268 0.0705332 0 0.186702 0.0705099 0 0.187135 0.0704866 0 0.187569 0.0704633 0 0.188002 0.0704399 0 0.181503 0.0742212 0 0.181936 0.0742002 0 0.182369 0.0741792 0 0.182802 0.0741582 0 0.183235 0.0741372 0 0.183668 0.0741161 0 0.184101 0.074095 0 0.184535 0.0740738 0 0.184968 0.0740526 0 0.185401 0.0740314 0 0.185835 0.0740101 0 0.186268 0.0739888 0 0.186702 0.0739675 0 0.187135 0.0739461 0 0.187569 0.0739247 0 0.188002 0.0739032 0 0.181502 0.0776556 0 0.181935 0.0776366 0 0.182368 0.0776175 0 0.182802 0.0775984 0 0.183235 0.0775792 0 0.183668 0.0775601 0 0.184101 0.0775409 0 0.184534 0.0775216 0 0.184968 0.0775024 0 0.185401 0.0774831 0 0.185834 0.0774637 0 0.186268 0.0774444 0 0.186701 0.077425 0 0.187135 0.0774055 0 0.187568 0.0773861 0 0.188002 0.0773666 0 0.181502 0.08109 0 0.181935 0.0810729 0 0.182368 0.0810557 0 0.182801 0.0810385 0 0.183235 0.0810213 0 0.183668 0.0810041 0 0.184101 0.0809868 0 0.184534 0.0809695 0 0.184968 0.0809521 0 0.185401 0.0809348 0 0.185834 0.0809174 0 0.186268 0.0808999 0 0.186701 0.0808825 0 0.187135 0.080865 0 0.187568 0.0808475 0 0.188002 0.0808299 0 0.181502 0.0845245 0 0.181935 0.0845093 0 0.182368 0.084494 0 0.182801 0.0844787 0 0.183234 0.0844634 0 0.183668 0.0844481 0 0.184101 0.0844327 0 0.184534 0.0844173 0 0.184968 0.0844019 0 0.185401 0.0843864 0 0.185834 0.084371 0 0.186268 0.0843555 0 0.186701 0.08434 0 0.187135 0.0843244 0 0.187568 0.0843088 0 0.188002 0.0842933 0 0.181502 0.0879589 0 0.181935 0.0879456 0 0.182368 0.0879322 0 0.182801 0.0879189 0 0.183234 0.0879055 0 0.183668 0.087892 0 0.184101 0.0878786 0 0.184534 0.0878651 0 0.184967 0.0878517 0 0.185401 0.0878381 0 0.185834 0.0878246 0 0.186268 0.087811 0 0.186701 0.0877975 0 0.187134 0.0877839 0 0.187568 0.0877702 0 0.188001 0.0877566 0 0.181501 0.0913934 0 0.181935 0.0913819 0 0.182368 0.0913705 0 0.182801 0.091359 0 0.183234 0.0913475 0 0.183667 0.091336 0 0.184101 0.0913245 0 0.184534 0.091313 0 0.184967 0.0913014 0 0.185401 0.0912898 0 0.185834 0.0912782 0 0.186267 0.0912666 0 0.186701 0.091255 0 0.187134 0.0912433 0 0.187568 0.0912316 0 0.188001 0.0912199 0 0.181501 0.0948278 0 0.181934 0.0948183 0 0.182368 0.0948087 0 0.182801 0.0947992 0 0.183234 0.0947896 0 0.183667 0.09478 0 0.184101 0.0947704 0 0.184534 0.0947608 0 0.184967 0.0947512 0 0.185401 0.0947415 0 0.185834 0.0947319 0 0.186267 0.0947222 0 0.186701 0.0947125 0 0.187134 0.0947028 0 0.187568 0.094693 0 0.188001 0.0946833 0 0.181501 0.0982622 0 0.181934 0.0982546 0 0.182367 0.098247 0 0.182801 0.0982394 0 0.183234 0.0982317 0 0.183667 0.098224 0 0.1841 0.0982163 0 0.184534 0.0982087 0 0.184967 0.0982009 0 0.1854 0.0981932 0 0.185834 0.0981855 0 0.186267 0.0981777 0 0.186701 0.09817 0 0.187134 0.0981622 0 0.187567 0.0981544 0 0.188001 0.0981466 0 0.181501 0.101697 0 0.181934 0.101691 0 0.182367 0.101685 0 0.1828 0.10168 0 0.183234 0.101674 0 0.183667 0.101668 0 0.1841 0.101662 0 0.184534 0.101656 0 0.184967 0.101651 0 0.1854 0.101645 0 0.185834 0.101639 0 0.186267 0.101633 0 0.1867 0.101627 0 0.187134 0.101622 0 0.187567 0.101616 0 0.188001 0.10161 0 0.1815 0.105131 0 0.181934 0.105127 0 0.182367 0.105123 0 0.1828 0.10512 0 0.183234 0.105116 0 0.183667 0.105112 0 0.1841 0.105108 0 0.184534 0.105104 0 0.184967 0.1051 0 0.1854 0.105097 0 0.185834 0.105093 0 0.186267 0.105089 0 0.1867 0.105085 0 0.187134 0.105081 0 0.187567 0.105077 0 0.188 0.105073 0 0.1815 0.108566 0 0.181934 0.108564 0 0.182367 0.108562 0 0.1828 0.10856 0 0.183233 0.108558 0 0.183667 0.108556 0 0.1841 0.108554 0 0.184533 0.108552 0 0.184967 0.10855 0 0.1854 0.108548 0 0.185833 0.108546 0 0.186267 0.108544 0 0.1867 0.108542 0 0.187133 0.108541 0 0.187567 0.108539 0 0.188 0.108537 0 0.1815 0.112 0 0.181933 0.112 0 0.182367 0.112 0 0.1828 0.112 0 0.183233 0.112 0 0.183667 0.112 0 0.1841 0.112 0 0.184533 0.112 0 0.184967 0.112 0 0.1854 0.112 0 0.185833 0.112 0 0.186267 0.112 0 0.1867 0.112 0 0.187133 0.112 0 0.187567 0.112 0 0.188 0.112 0 
</DataArray>
</Points> 
</Piece> 
</StructuredGrid> 
</VTKFile> 
