<?xml version="1.0"?> 
<VTKFile type="StructuredGrid" version="0.1"> 
<StructuredGrid WholeExtent="0 15 0 15 0 0"> 
<Piece Extent="0 15 0 15 0 0"> 
<PointData>
<DataArray type="Float32" Name="|E|" format="ascii" NumberOfComponents="3"> 
-353095 0 0 -353779 -0.159818 0 -355835 -0.319206 0 -359270 -0.477705 0 -364093 -0.634784 0 -370322 -0.789816 0 -377976 -0.942033 0 -387081 -1.09049 0 -397664 -1.23403 0 -409759 -1.37122 0 -423402 -1.50034 0 -438635 -1.61929 0 -455501 -1.72557 0 -474049 -1.81623 0 -494328 -1.88783 0 -516390 -1.93643 0 -351195 0 0 -351877 2279.15 0 -353923 4565.85 0 -357342 6867.63 0 -362143 9191.98 0 -368344 11546.3 0 -375965 13938 0 -385029 16374.3 0 -395566 18862.1 0 -407610 21408.4 0 -421196 24019.6 0 -436367 26702 0 -453168 29461.2 0 -471645 32302.4 0 -491851 35229.9 0 -513837 38247.4 0 -345514 0 0 -346186 4537.24 0 -348204 9089.63 0 -351575 13672.3 0 -356311 18300.3 0 -362428 22988.5 0 -369945 27751.7 0 -378889 32604.6 0 -389288 37561.2 0 -401177 42635.4 0 -414592 47840.6 0 -429577 53189.3 0 -446178 58693.3 0 -464443 64363.2 0 -484426 70208.3 0 -506182 76236.2 0 -336103 0 0 -336760 6753.21 0 -338730 13529.3 0 -342023 20351 0 -346648 27241 0 -352623 34222 0 -359968 41316.4 0 -368710 48546.1 0 -378877 55933 0 -390505 63498.2 0 -403633 71262.1 0 -418304 79244.3 0 -434566 87463.3 0 -452472 95935.9 0 -472077 104677 0 -493440 113700 0 -323052 0 0 -323686 8905.66 0 -325589 17842 0 -328770 26839.5 0 -333240 35928.9 0 -339016 45140.4 0 -346118 54504.3 0 -354573 64050.6 0 -364412 73808.7 0 -375671 83807.7 0 -388389 94075.8 0 -402613 104640 0 -418393 115527 0 -435783 126760 0 -454844 138362 0 -475640 150351 0 -306483 0 0 -307088 10973 0 -308905 21984.4 0 -311942 33073 0 -316211 44277.1 0 -321728 55635.1 0 -328514 67185.3 0 -336598 78965.9 0 -346009 91014.6 0 -356785 103369 0 -368968 116065 0 -382605 129139 0 -397749 142626 0 -414458 156558 0 -432796 170966 0 -452832 185877 0 -286556 0 0 -287126 12933.2 0 -288837 25912.8 0 -291697 38985.4 0 -295718 52197.5 0 -300916 65595.5 0 -307314 79226.2 0 -314937 93136 0 -323819 107371 0 -333997 121979 0 -345513 137003 0 -358416 152491 0 -372763 168486 0 -388613 185031 0 -406034 202167 0 -425102 219933 0 -263470 0 0 -263997 14764.4 0 -265583 29583 0 -268232 44510.5 0 -271958 59601.2 0 -276778 74909.9 0 -282712 90491.6 0 -289787 106401 0 -298035 122695 0 -307494 139427 0 -318208 156655 0 -330226 174433 0 -343605 192816 0 -358407 211860 0 -374704 231617 0 -392575 252139 0 -237456 0 0 -237935 16444.7 0 -239375 32951.3 0 -241782 49582.1 0 -245167 66399.5 0 -249548 83466.2 0 -254944 100846 0 -261382 118601 0 -268893 136798 0 -277513 155502 0 -287287 174777 0 -298263 194692 0 -310498 215312 0 -324056 236705 0 -339009 258939 0 -355438 282080 0 -208784 0 0 -209209 17952.8 0 -210484 35975 0 -212617 54135.9 0 -215617 72505.6 0 -219501 91154.6 0 -224287 110154 0 -230001 129577 0 -236672 149496 0 -244335 169987 0 -253032 191126 0 -262810 212990 0 -273723 235659 0 -285836 259215 0 -299218 283740 0 -313952 309317 0 -177758 0 0 -178122 19268.7 0 -179216 38613.5 0 -181044 58110.5 0 -183618 77836.7 0 -186951 97869.9 0 -191060 118289 0 -195967 139174 0 -201701 160608 0 -208293 182674 0 -215780 205460 0 -224208 229053 0 -233627 253547 0 -244095 279035 0 -255682 305618 0 -268463 333396 0 -144714 0 0 -145012 20373.8 0 -145908 40829.4 0 -147406 61449.3 0 -149515 82316.3 0 -152247 103515 0 -155617 125130 0 -159644 147250 0 -164351 169965 0 -169766 193366 0 -175923 217551 0 -182860 242619 0 -190621 268673 0 -199259 295821 0 -208834 324179 0 -219415 353864 0 -110017 0 0 -110245 21251.6 0 -110929 42590 0 -112074 64102.4 0 -113687 85876.8 0 -115775 108003 0 -118353 130572 0 -121434 153677 0 -125038 177416 0 -129186 201887 0 -133906 227195 0 -139228 253449 0 -145188 280762 0 -151829 309255 0 -159200 339056 0 -167358 370300 0 -74057 0 0 -74210.9 21888.8 0 -74673.4 43868 0 -75447.3 66028.6 0 -76537 88462.4 0 -77949 111263 0 -79691.8 134526 0 -81775.9 158349 0 -84214.4 182834 0 -87022.9 208087 0 -90219.7 234217 0 -93826.7 261341 0 -97869.3 289580 0 -102378 319064 0 -107386 349932 0 -112936 382333 0 -37243.6 0 0 -37321.1 22275.3 0 -37554.3 44643.3 0 -37944.4 67197.1 0 -38493.8 90031.1 0 -39205.8 113241 0 -40084.8 136926 0 -41136 161185 0 -42366.3 186125 0 -43783.7 211854 0 -45397.6 238486 0 -47219.3 266141 0 -49261.9 294947 0 -51541 325039 0 -54074.8 356563 0 -56884.1 389676 0 0 0 0 0 22404.9 0 0 44903.1 0 0 67588.8 0 0 90557 0 0 113905 0 0 137730 0 0 162137 0 0 187229 0 0 213118 0 0 239918 0 0 267752 0 0 296749 0 0 327046 0 0 358791 0 0 392145 0 </DataArray> 
</PointData> 
<Points> 
<DataArray type="Float32" NumberOfComponents="3"> 
0 0 0 0.0004 0 0 0.0008 0 0 0.0012 0 0 0.0016 0 0 0.002 0 0 0.0024 0 0 0.0028 0 0 0.0032 0 0 0.0036 0 0 0.004 0 0 0.0044 0 0 0.0048 0 0 0.0052 0 0 0.0056 0 0 0.006 0 0 0 0.000666667 0 0.0004 0.000666667 0 0.0008 0.000666667 0 0.0012 0.000666667 0 0.0016 0.000666667 0 0.002 0.000666667 0 0.0024 0.000666667 0 0.0028 0.000666667 0 0.0032 0.000666667 0 0.0036 0.000666667 0 0.004 0.000666667 0 0.0044 0.000666667 0 0.0048 0.000666667 0 0.0052 0.000666667 0 0.0056 0.000666667 0 0.006 0.000666667 0 0 0.00133333 0 0.0004 0.00133333 0 0.0008 0.00133333 0 0.0012 0.00133333 0 0.0016 0.00133333 0 0.002 0.00133333 0 0.0024 0.00133333 0 0.0028 0.00133333 0 0.0032 0.00133333 0 0.0036 0.00133333 0 0.004 0.00133333 0 0.0044 0.00133333 0 0.0048 0.00133333 0 0.0052 0.00133333 0 0.0056 0.00133333 0 0.006 0.00133333 0 0 0.002 0 0.0004 0.002 0 0.0008 0.002 0 0.0012 0.002 0 0.0016 0.002 0 0.002 0.002 0 0.0024 0.002 0 0.0028 0.002 0 0.0032 0.002 0 0.0036 0.002 0 0.004 0.002 0 0.0044 0.002 0 0.0048 0.002 0 0.0052 0.002 0 0.0056 0.002 0 0.006 0.002 0 0 0.00266667 0 0.0004 0.00266667 0 0.0008 0.00266667 0 0.0012 0.00266667 0 0.0016 0.00266667 0 0.002 0.00266667 0 0.0024 0.00266667 0 0.0028 0.00266667 0 0.0032 0.00266667 0 0.0036 0.00266667 0 0.004 0.00266667 0 0.0044 0.00266667 0 0.0048 0.00266667 0 0.0052 0.00266667 0 0.0056 0.00266667 0 0.006 0.00266667 0 0 0.00333333 0 0.0004 0.00333333 0 0.0008 0.00333333 0 0.0012 0.00333333 0 0.0016 0.00333333 0 0.002 0.00333333 0 0.0024 0.00333333 0 0.0028 0.00333333 0 0.0032 0.00333333 0 0.0036 0.00333333 0 0.004 0.00333333 0 0.0044 0.00333333 0 0.0048 0.00333333 0 0.0052 0.00333333 0 0.0056 0.00333333 0 0.006 0.00333333 0 0 0.004 0 0.0004 0.004 0 0.0008 0.004 0 0.0012 0.004 0 0.0016 0.004 0 0.002 0.004 0 0.0024 0.004 0 0.0028 0.004 0 0.0032 0.004 0 0.0036 0.004 0 0.004 0.004 0 0.0044 0.004 0 0.0048 0.004 0 0.0052 0.004 0 0.0056 0.004 0 0.006 0.004 0 0 0.00466667 0 0.0004 0.00466667 0 0.0008 0.00466667 0 0.0012 0.00466667 0 0.0016 0.00466667 0 0.002 0.00466667 0 0.0024 0.00466667 0 0.0028 0.00466667 0 0.0032 0.00466667 0 0.0036 0.00466667 0 0.004 0.00466667 0 0.0044 0.00466667 0 0.0048 0.00466667 0 0.0052 0.00466667 0 0.0056 0.00466667 0 0.006 0.00466667 0 0 0.00533333 0 0.0004 0.00533333 0 0.0008 0.00533333 0 0.0012 0.00533333 0 0.0016 0.00533333 0 0.002 0.00533333 0 0.0024 0.00533333 0 0.0028 0.00533333 0 0.0032 0.00533333 0 0.0036 0.00533333 0 0.004 0.00533333 0 0.0044 0.00533333 0 0.0048 0.00533333 0 0.0052 0.00533333 0 0.0056 0.00533333 0 0.006 0.00533333 0 0 0.006 0 0.0004 0.006 0 0.0008 0.006 0 0.0012 0.006 0 0.0016 0.006 0 0.002 0.006 0 0.0024 0.006 0 0.0028 0.006 0 0.0032 0.006 0 0.0036 0.006 0 0.004 0.006 0 0.0044 0.006 0 0.0048 0.006 0 0.0052 0.006 0 0.0056 0.006 0 0.006 0.006 0 0 0.00666667 0 0.0004 0.00666667 0 0.0008 0.00666667 0 0.0012 0.00666667 0 0.0016 0.00666667 0 0.002 0.00666667 0 0.0024 0.00666667 0 0.0028 0.00666667 0 0.0032 0.00666667 0 0.0036 0.00666667 0 0.004 0.00666667 0 0.0044 0.00666667 0 0.0048 0.00666667 0 0.0052 0.00666667 0 0.0056 0.00666667 0 0.006 0.00666667 0 0 0.00733333 0 0.0004 0.00733333 0 0.0008 0.00733333 0 0.0012 0.00733333 0 0.0016 0.00733333 0 0.002 0.00733333 0 0.0024 0.00733333 0 0.0028 0.00733333 0 0.0032 0.00733333 0 0.0036 0.00733333 0 0.004 0.00733333 0 0.0044 0.00733333 0 0.0048 0.00733333 0 0.0052 0.00733333 0 0.0056 0.00733333 0 0.006 0.00733333 0 0 0.008 0 0.0004 0.008 0 0.0008 0.008 0 0.0012 0.008 0 0.0016 0.008 0 0.002 0.008 0 0.0024 0.008 0 0.0028 0.008 0 0.0032 0.008 0 0.0036 0.008 0 0.004 0.008 0 0.0044 0.008 0 0.0048 0.008 0 0.0052 0.008 0 0.0056 0.008 0 0.006 0.008 0 0 0.00866667 0 0.0004 0.00866667 0 0.0008 0.00866667 0 0.0012 0.00866667 0 0.0016 0.00866667 0 0.002 0.00866667 0 0.0024 0.00866667 0 0.0028 0.00866667 0 0.0032 0.00866667 0 0.0036 0.00866667 0 0.004 0.00866667 0 0.0044 0.00866667 0 0.0048 0.00866667 0 0.0052 0.00866667 0 0.0056 0.00866667 0 0.006 0.00866667 0 0 0.00933333 0 0.0004 0.00933333 0 0.0008 0.00933333 0 0.0012 0.00933333 0 0.0016 0.00933333 0 0.002 0.00933333 0 0.0024 0.00933333 0 0.0028 0.00933333 0 0.0032 0.00933333 0 0.0036 0.00933333 0 0.004 0.00933333 0 0.0044 0.00933333 0 0.0048 0.00933333 0 0.0052 0.00933333 0 0.0056 0.00933333 0 0.006 0.00933333 0 0 0.01 0 0.0004 0.01 0 0.0008 0.01 0 0.0012 0.01 0 0.0016 0.01 0 0.002 0.01 0 0.0024 0.01 0 0.0028 0.01 0 0.0032 0.01 0 0.0036 0.01 0 0.004 0.01 0 0.0044 0.01 0 0.0048 0.01 0 0.0052 0.01 0 0.0056 0.01 0 0.006 0.01 0 
</DataArray>
</Points> 
</Piece> 
</StructuredGrid> 
</VTKFile> 
