<?xml version="1.0"?> 
<VTKFile type="StructuredGrid" version="0.1"> 
<StructuredGrid WholeExtent="0 15 0 15 0 0"> 
<Piece Extent="0 15 0 15 0 0"> 
<PointData>
<DataArray type="Float32" Name="|E|" format="ascii" NumberOfComponents="3"> 
-1.19209e-07 5.88255e+06 0 -2.21189e-09 2.15533e+06 0 -9.59262e-08 1.02563e+06 0 2.28174e-07 718138 0 -3.7998e-07 560128 0 4.41447e-07 387549 0 -4.28408e-07 218713 0 3.91155e-07 95524 0 -2.90573e-07 30528.8 0 8.9407e-08 7656.8 0 8.9407e-08 2380.92 0 -4.47035e-08 -86.927 0 1.49012e-08 -1128.2 0 -2.98023e-08 106.56 0 5.96046e-08 211.627 0 -1.19209e-06 -4.1943e+06 0 -1.91597e+06 1.70317e+06 0 -1.92031e+06 1.67782e+06 0 -1.46474e+06 1.71133e+06 0 -989188 1.559e+06 0 -637854 1.2493e+06 0 -413038 888882 0 -272469 564088 0 -176415 316315 0 -103848 151424 0 -50236.1 56872.1 0 -17346.9 13365.8 0 -3384.31 138.376 0 -327.199 -768.752 0 -59.9568 92.5557 0 37.2892 70.9392 0 73.9145 766.75 0 -2.25238e+06 1.34613e+06 0 -2.05463e+06 1.51637e+06 0 -2.05238e+06 1.42918e+06 0 -1.91068e+06 1.40548e+06 0 -1.61581e+06 1.38068e+06 0 -1.25833e+06 1.25618e+06 0 -920689 1.01611e+06 0 -641633 715370 0 -423304 428076 0 -254232 207669 0 -128170 72906.2 0 -47143.3 12647.1 0 -9656.86 -1754.8 0 -458.597 -361.754 0 -58.0771 139.358 0 378.242 1908.68 0 -2.19553e+06 1.68348e+06 0 -2.26404e+06 1.51524e+06 0 -2.18788e+06 1.50415e+06 0 -2.15224e+06 1.41902e+06 0 -2.0943e+06 1.33301e+06 0 -1.9382e+06 1.27399e+06 0 -1.67274e+06 1.19038e+06 0 -1.34078e+06 1.02483e+06 0 -998804 773033 0 -686363 486120 0 -421226 235214 0 -213682 71379.4 0 -76809.5 2717.08 0 -13747.4 -4622.22 0 139.73 1504.83 0 1053.17 3425.66 0 -2.3064e+06 1.70087e+06 0 -2.28761e+06 1.68791e+06 0 -2.31621e+06 1.60117e+06 0 -2.28967e+06 1.55049e+06 0 -2.2525e+06 1.46758e+06 0 -2.20979e+06 1.35814e+06 0 -2.11668e+06 1.25552e+06 0 -1.92847e+06 1.1516e+06 0 -1.63974e+06 1.00027e+06 0 -1.28502e+06 770649 0 -913228 486598 0 -566120 219391 0 -279526 43347.2 0 -90258.2 -16284.4 0 -10541.6 -5603.11 0 -1721.66 -4031.84 0 -2.25142e+06 1.87993e+06 0 -2.29038e+06 1.81828e+06 0 -2.30966e+06 1.76295e+06 0 -2.34232e+06 1.68302e+06 0 -2.34973e+06 1.61288e+06 0 -2.33231e+06 1.5263e+06 0 -2.29965e+06 1.40901e+06 0 -2.23306e+06 1.27802e+06 0 -2.08997e+06 1.14046e+06 0 -1.83909e+06 968290 0 -1.48723e+06 727928 0 -1.07506e+06 431085 0 -657205 151964 0 -299387 -14562.7 0 -74051 -37099.7 0 -9303.36 -16590.4 0 -2.21947e+06 1.95088e+06 0 -2.25313e+06 1.92201e+06 0 -2.28855e+06 1.8844e+06 0 -2.31873e+06 1.83176e+06 0 -2.35575e+06 1.7566e+06 0 -2.38325e+06 1.67602e+06 0 -2.38865e+06 1.58118e+06 0 -2.37124e+06 1.45615e+06 0 -2.32024e+06 1.30439e+06 0 -2.20005e+06 1.13206e+06 0 -1.96893e+06 920615 0 -1.61288e+06 642392 0 -1.15921e+06 314041 0 -670036 29410.4 0 -251650 -90277.2 0 -34445.8 -48231.1 0 -2.14819e+06 2.02597e+06 0 -2.18987e+06 2.00512e+06 0 -2.23527e+06 1.97282e+06 0 -2.28036e+06 1.93738e+06 0 -2.322e+06 1.88825e+06 0 -2.36617e+06 1.81724e+06 0 -2.40707e+06 1.7311e+06 0 -2.43168e+06 1.62617e+06 0 -2.43132e+06 1.48867e+06 0 -2.39307e+06 1.31409e+06 0 -2.28258e+06 1.10186e+06 0 -2.05164e+06 834645 0 -1.67142e+06 493802 0 -1.15504e+06 120886 0 -579837 -141541 0 -121388 -135565 0 -2.0775e+06 2.06185e+06 0 -2.12107e+06 2.05456e+06 0 -2.16647e+06 2.04155e+06 0 -2.21737e+06 2.01489e+06 0 -2.27126e+06 1.98104e+06 0 -2.32462e+06 1.93365e+06 0 -2.37916e+06 1.86445e+06 0 -2.4325e+06 1.77348e+06 0 -2.47368e+06 1.65633e+06 0 -2.48977e+06 1.49963e+06 0 -2.46221e+06 1.29297e+06 0 -2.35117e+06 1.02639e+06 0 -2.09957e+06 679066 0 -1.66176e+06 249233 0 -1.03695e+06 -163522 0 -335693 -300471 0 -2.00082e+06 2.07959e+06 0 -2.04571e+06 2.0833e+06 0 -2.09499e+06 2.08035e+06 0 -2.14714e+06 2.07135e+06 0 -2.20462e+06 2.04971e+06 0 -2.26731e+06 2.01745e+06 0 -2.33259e+06 1.97005e+06 0 -2.40011e+06 1.89943e+06 0 -2.46776e+06 1.80106e+06 0 -2.52555e+06 1.66686e+06 0 -2.55774e+06 1.48067e+06 0 -2.53808e+06 1.22436e+06 0 -2.41491e+06 875143 0 -2.11389e+06 408970 0 -1.55732e+06 -135720 0 -718387 -512863 0 -1.92457e+06 2.07885e+06 0 -1.97033e+06 2.09266e+06 0 -2.02002e+06 2.10136e+06 0 -2.07497e+06 2.10323e+06 0 -2.13467e+06 2.09775e+06 0 -2.20055e+06 2.07985e+06 0 -2.27351e+06 2.0485e+06 0 -2.35211e+06 1.99904e+06 0 -2.43551e+06 1.92297e+06 0 -2.52097e+06 1.81167e+06 0 -2.59812e+06 1.65115e+06 0 -2.64785e+06 1.41801e+06 0 -2.6325e+06 1.08068e+06 0 -2.48015e+06 598391 0 -2.07348e+06 -46315.6 0 -1.25477e+06 -703367 0 -1.84927e+06 2.06418e+06 0 -1.89565e+06 2.0876e+06 0 -1.94634e+06 2.10661e+06 0 -2.00192e+06 2.11995e+06 0 -2.06376e+06 2.12603e+06 0 -2.13226e+06 2.1234e+06 0 -2.20877e+06 2.10767e+06 0 -2.29471e+06 2.07568e+06 0 -2.38977e+06 2.02131e+06 0 -2.4935e+06 1.93432e+06 0 -2.60246e+06 1.80078e+06 0 -2.70524e+06 1.59736e+06 0 -2.77685e+06 1.28611e+06 0 -2.76195e+06 810736 0 -2.54289e+06 106209 0 -1.88953e+06 -806554 0 -1.77563e+06 2.03876e+06 0 -1.8228e+06 2.07118e+06 0 -1.87424e+06 2.09987e+06 0 -1.93085e+06 2.12385e+06 0 -1.99363e+06 2.14154e+06 0 -2.0641e+06 2.15115e+06 0 -2.1435e+06 2.15045e+06 0 -2.23372e+06 2.13501e+06 0 -2.33677e+06 2.09979e+06 0 -2.45374e+06 2.03613e+06 0 -2.5852e+06 1.92996e+06 0 -2.72769e+06 1.75868e+06 0 -2.86846e+06 1.4827e+06 0 -2.97277e+06 1.03517e+06 0 -2.94817e+06 313734 0 -2.56014e+06 -786783 0 -1.7039e+06 2.00486e+06 0 -1.75208e+06 2.04622e+06 0 -1.80446e+06 2.08427e+06 0 -1.86203e+06 2.11813e+06 0 -1.92595e+06 2.1467e+06 0 -1.99771e+06 2.16819e+06 0 -2.07928e+06 2.18044e+06 0 -2.17283e+06 2.18035e+06 0 -2.28126e+06 2.16283e+06 0 -2.40781e+06 2.12047e+06 0 -2.55582e+06 2.04064e+06 0 -2.72798e+06 1.90192e+06 0 -2.92306e+06 1.66589e+06 0 -3.12749e+06 1.26183e+06 0 -3.28687e+06 563128 0 -3.21646e+06 -637162 0 -1.63405e+06 1.96442e+06 0 -1.68357e+06 2.01474e+06 0 -1.73719e+06 2.06207e+06 0 -1.79591e+06 2.10563e+06 0 -1.86102e+06 2.14437e+06 0 -1.93415e+06 2.17698e+06 0 -2.01745e+06 2.20147e+06 0 -2.11364e+06 2.21514e+06 0 -2.22624e+06 2.21386e+06 0 -2.35983e+06 2.19105e+06 0 -2.52028e+06 2.13579e+06 0 -2.71497e+06 2.02877e+06 0 -2.95245e+06 1.83455e+06 0 -3.23918e+06 1.48414e+06 0 -3.56338e+06 841082 0 -3.82425e+06 -368516 0 -1.56599e+06 1.91889e+06 0 -1.61725e+06 1.97842e+06 0 -1.67246e+06 2.03508e+06 0 -1.73264e+06 2.08819e+06 0 -1.79916e+06 2.13687e+06 0 -1.87377e+06 2.17997e+06 0 -1.9588e+06 2.21587e+06 0 -2.0573e+06 2.2423e+06 0 -2.17333e+06 2.25583e+06 0 -2.31249e+06 2.25092e+06 0 -2.48253e+06 2.21838e+06 0 -2.69467e+06 2.14151e+06 0 -2.96533e+06 1.98919e+06 0 -3.31861e+06 1.69846e+06 0 -3.78451e+06 1.13638e+06 0 -4.36285e+06 -3.57628e-07 0 </DataArray> 
</PointData> 
<Points> 
<DataArray type="Float32" NumberOfComponents="3"> 
0.1 0.045 0 0.100867 0.045 0 0.101733 0.045 0 0.1026 0.045 0 0.103467 0.045 0 0.104333 0.045 0 0.1052 0.045 0 0.106067 0.045 0 0.106933 0.045 0 0.1078 0.045 0 0.108667 0.045 0 0.109533 0.045 0 0.1104 0.045 0 0.111267 0.045 0 0.112133 0.045 0 0.113 0.045 0 0.0978533 0.0464889 0 0.0987669 0.046396 0 0.0996849 0.0463026 0 0.100607 0.0462088 0 0.101534 0.0461145 0 0.102466 0.0460198 0 0.103402 0.0459246 0 0.104343 0.0458289 0 0.105289 0.0457328 0 0.106239 0.0456361 0 0.107194 0.045539 0 0.108153 0.0454414 0 0.109118 0.0453434 0 0.110087 0.0452448 0 0.111062 0.0451457 0 0.112041 0.0450461 0 0.0957067 0.0479778 0 0.096665 0.0478038 0 0.0976321 0.0476282 0 0.0986081 0.047451 0 0.099593 0.0472721 0 0.100587 0.0470917 0 0.10159 0.0469095 0 0.102603 0.0467256 0 0.103625 0.0465401 0 0.104657 0.0463527 0 0.105698 0.0461636 0 0.106749 0.0459728 0 0.107811 0.04578 0 0.108882 0.0455855 0 0.109964 0.0453891 0 0.111056 0.0451907 0 0.09356 0.0494667 0 0.0945633 0.0492219 0 0.0955793 0.0489741 0 0.0966082 0.0487231 0 0.0976503 0.0484689 0 0.0987058 0.0482115 0 0.0997751 0.0479507 0 0.100858 0.0476864 0 0.101956 0.0474187 0 0.103068 0.0471475 0 0.104195 0.0468726 0 0.105337 0.0465941 0 0.106494 0.0463118 0 0.107667 0.0460256 0 0.108856 0.0457355 0 0.110062 0.0454415 0 0.0914133 0.0509556 0 0.0924638 0.0506491 0 0.0935306 0.0503378 0 0.0946141 0.0500217 0 0.0957146 0.0497007 0 0.0968327 0.0493745 0 0.0979686 0.0490431 0 0.0991228 0.0487063 0 0.100296 0.0483641 0 0.101488 0.0480163 0 0.1027 0.0476627 0 0.103932 0.0473032 0 0.105185 0.0469377 0 0.106459 0.046566 0 0.107755 0.0461879 0 0.109074 0.0458033 0 0.0892667 0.0524444 0 0.0903689 0.0520837 0 0.0914906 0.0517166 0 0.0926323 0.051343 0 0.0937945 0.0509626 0 0.0949778 0.0505753 0 0.0961828 0.050181 0 0.0974101 0.0497793 0 0.0986602 0.0493702 0 0.0999339 0.0489533 0 0.101232 0.0485286 0 0.102555 0.0480957 0 0.103903 0.0476544 0 0.105278 0.0472044 0 0.10668 0.0467456 0 0.10811 0.0462776 0 0.08712 0.0539333 0 0.0882807 0.0535244 0 0.0894636 0.0531076 0 0.0906693 0.0526827 0 0.0918985 0.0522497 0 0.0931518 0.051808 0 0.0944301 0.0513576 0 0.095734 0.0508982 0 0.0970643 0.0504295 0 0.0984218 0.0499512 0 0.0998074 0.0494629 0 0.101222 0.0489645 0 0.102666 0.0484556 0 0.104142 0.0479357 0 0.105649 0.0474047 0 0.107189 0.0468621 0 0.0849733 0.0554222 0 0.0862015 0.0549695 0 0.0874539 0.0545078 0 0.0887315 0.0540369 0 0.0900349 0.0535565 0 0.0913649 0.0530662 0 0.0927224 0.0525658 0 0.0941082 0.052055 0 0.0955232 0.0515334 0 0.0969684 0.0510007 0 0.0984446 0.0504566 0 0.099953 0.0499006 0 0.101495 0.0493323 0 0.103071 0.0487514 0 0.104682 0.0481574 0 0.10633 0.04755 0 0.0828267 0.0569111 0 0.0841334 0.0564177 0 0.085466 0.0559145 0 0.0868252 0.0554012 0 0.088212 0.0548775 0 0.0896271 0.0543431 0 0.0910715 0.0537977 0 0.0925459 0.053241 0 0.0940514 0.0526724 0 0.095589 0.0520918 0 0.0971598 0.0514987 0 0.0987647 0.0508926 0 0.100405 0.0502733 0 0.102082 0.0496401 0 0.103796 0.0489927 0 0.105549 0.0483306 0 0.08068 0.0584 0 0.0820786 0.0578673 0 0.0835039 0.0573244 0 0.0849567 0.0567711 0 0.0864377 0.056207 0 0.087948 0.0556318 0 0.0894882 0.0550452 0 0.0910593 0.0544468 0 0.0926622 0.0538362 0 0.094298 0.0532132 0 0.0959675 0.0525773 0 0.097672 0.0519281 0 0.0994125 0.0512652 0 0.10119 0.0505881 0 0.103006 0.0498965 0 0.104862 0.0491897 0 0.0785333 0.0598889 0 0.0800393 0.0593169 0 0.0815718 0.0587348 0 0.0831316 0.0581423 0 0.0847195 0.0575392 0 0.0863362 0.0569251 0 0.0879825 0.0562998 0 0.0896592 0.055663 0 0.0913672 0.0550142 0 0.0931073 0.0543533 0 0.0948806 0.0536797 0 0.0966878 0.0529933 0 0.0985301 0.0522936 0 0.100408 0.0515801 0 0.102324 0.0508526 0 0.104277 0.0501106 0 0.0763867 0.0613778 0 0.0780175 0.0607649 0 0.0796736 0.0601425 0 0.0813557 0.0595104 0 0.0830642 0.0588684 0 0.0847998 0.0582161 0 0.0865633 0.0575534 0 0.0883552 0.05688 0 0.0901762 0.0561957 0 0.0920271 0.0555001 0 0.0939087 0.054793 0 0.0958216 0.0540741 0 0.0977666 0.0533432 0 0.0997447 0.0525998 0 0.101757 0.0518438 0 0.103803 0.0510747 0 0.07424 0.0628667 0 0.0760154 0.0622098 0 0.0778132 0.0615447 0 0.079634 0.0608711 0 0.0814781 0.0601888 0 0.083346 0.0594978 0 0.0852381 0.0587978 0 0.087155 0.0580886 0 0.089097 0.0573701 0 0.0910648 0.0566421 0 0.0930588 0.0559044 0 0.0950796 0.0551568 0 0.0971277 0.0543991 0 0.0992036 0.053631 0 0.101308 0.0528525 0 0.103441 0.0520632 0 0.0720933 0.0643556 0 0.0740349 0.0636502 0 0.0759942 0.0629384 0 0.0779714 0.0622201 0 0.0799667 0.0614952 0 0.0819805 0.0607636 0 0.084013 0.0600252 0 0.0860644 0.0592799 0 0.0881351 0.0585277 0 0.0902252 0.0577683 0 0.092335 0.0570018 0 0.0944649 0.056228 0 0.0966151 0.0554469 0 0.098786 0.0546582 0 0.100978 0.053862 0 0.103191 0.053058 0 0.0699467 0.0658444 0 0.072078 0.0650845 0 0.0742198 0.0643208 0 0.0763721 0.0635534 0 0.0785349 0.0627822 0 0.0807084 0.0620072 0 0.0828926 0.0612284 0 0.0850876 0.0604457 0 0.0872935 0.0596592 0 0.0895103 0.0588687 0 0.0917382 0.0580744 0 0.0939772 0.057276 0 0.0962274 0.0564737 0 0.0984889 0.0556673 0 0.100762 0.0548569 0 0.103046 0.0540424 0 0.0678 0.0673333 0 0.0701467 0.0665112 0 0.0724933 0.0656891 0 0.07484 0.064867 0 0.0771867 0.064045 0 0.0795333 0.0632229 0 0.08188 0.0624008 0 0.0842267 0.0615787 0 0.0865733 0.0607566 0 0.08892 0.0599345 0 0.0912667 0.0591124 0 0.0936133 0.0582903 0 0.09596 0.0574682 0 0.0983067 0.0566461 0 0.100653 0.055824 0 0.103 0.0550019 0 
</DataArray>
</Points> 
</Piece> 
</StructuredGrid> 
</VTKFile> 
