<?xml version="1.0"?> 
<VTKFile type="StructuredGrid" version="0.1"> 
<StructuredGrid WholeExtent="0 15 0 15 0 0"> 
<Piece Extent="0 15 0 15 0 0"> 
<PointData>
<DataArray type="Float32" Name="|E|" format="ascii" NumberOfComponents="3"> 
267676 6.48367e+06 0 239978 5.59039e+06 0 232479 5.21614e+06 0 230489 4.98768e+06 0 230919 4.82546e+06 0 232845 4.70423e+06 0 235707 4.60908e+06 0 239242 4.53257e+06 0 243259 4.46953e+06 0 247643 4.41673e+06 0 252310 4.37182e+06 0 257200 4.33315e+06 0 262266 4.29944e+06 0 267468 4.26965e+06 0 272757 4.24273e+06 0 278009 4.21658e+06 0 -701336 5.61967e+06 0 -331108 5.36521e+06 0 -136399 5.12373e+06 0 -29395.4 4.93706e+06 0 36889.2 4.79405e+06 0 81937.3 4.68188e+06 0 114741 4.59205e+06 0 140019 4.51858e+06 0 160330 4.4575e+06 0 177259 4.40596e+06 0 191771 4.36191e+06 0 204508 4.32384e+06 0 215874 4.29061e+06 0 226098 4.26132e+06 0 235207 4.2353e+06 0 242991 4.21221e+06 0 -858498 5.06091e+06 0 -573919 5.00313e+06 0 -369198 4.90276e+06 0 -225120 4.79629e+06 0 -123509 4.69873e+06 0 -49830.2 4.61386e+06 0 5437.94 4.54114e+06 0 48223.6 4.47897e+06 0 82343.6 4.42559e+06 0 110258 4.37949e+06 0 133634 4.33939e+06 0 153602 4.30428e+06 0 170953 4.27335e+06 0 186226 4.24599e+06 0 199789 4.22177e+06 0 211868 4.20046e+06 0 -849737 4.69251e+06 0 -649016 4.70109e+06 0 -477299 4.6732e+06 0 -339960 4.62615e+06 0 -232179 4.57207e+06 0 -147800 4.51786e+06 0 -81202.3 4.46675e+06 0 -27889.1 4.41997e+06 0 15471.1 4.37776e+06 0 51336 4.33989e+06 0 81491.6 4.30596e+06 0 107258 4.27556e+06 0 129611 4.24828e+06 0 149291 4.22379e+06 0 166866 4.20186e+06 0 182814 4.18234e+06 0 -799292 4.43282e+06 0 -647974 4.46696e+06 0 -511970 4.47446e+06 0 -393679 4.46325e+06 0 -293839 4.44062e+06 0 -210762 4.41201e+06 0 -141918 4.38103e+06 0 -84746.2 4.34986e+06 0 -36953.2 4.3197e+06 0 3360.46 4.29116e+06 0 37734.6 4.26448e+06 0 67393.4 4.23973e+06 0 93314.7 4.21688e+06 0 116284 4.19585e+06 0 136949 4.17657e+06 0 155849 4.15901e+06 0 -728377 4.24095e+06 0 -614244 4.28548e+06 0 -505992 4.31053e+06 0 -407580 4.32004e+06 0 -320352 4.31809e+06 0 -244382 4.30832e+06 0 -178885 4.2936e+06 0 -122647 4.27602e+06 0 -74347.8 4.25702e+06 0 -32713.5 4.23754e+06 0 3396.84 4.21819e+06 0 34977 4.19931e+06 0 62877 4.18114e+06 0 87823.7 4.1638e+06 0 110445 4.14736e+06 0 131293 4.13187e+06 0 -653515 4.09444e+06 0 -564017 4.14294e+06 0 -477758 4.17696e+06 0 -396767 4.19843e+06 0 -322577 4.20968e+06 0 -255807 4.21302e+06 0 -196438 4.21051e+06 0 -144037 4.20381e+06 0 -97938.4 4.19425e+06 0 -57383.5 4.1828e+06 0 -21602.1 4.17016e+06 0 10138.3 4.15684e+06 0 38513 4.14319e+06 0 64134.7 4.12947e+06 0 87559.5 4.11584e+06 0 109288 4.10242e+06 0 -576688 3.98e+06 0 -506237 4.02979e+06 0 -436956 4.06838e+06 0 -370656 4.09681e+06 0 -308509 4.11643e+06 0 -251223 4.12869e+06 0 -199080 4.13499e+06 0 -152028 4.13661e+06 0 -109795 4.13459e+06 0 -71970 4.12981e+06 0 -38071.3 4.12295e+06 0 -7592.84 4.11455e+06 0 19968.4 4.105e+06 0 45097.3 4.09461e+06 0 68254.7 4.08361e+06 0 89873.1 4.07216e+06 0 -500791 3.88952e+06 0 -444663 3.93934e+06 0 -389040 3.98024e+06 0 -335041 4.01275e+06 0 -283603 4.03768e+06 0 -235355 4.05595e+06 0 -190650 4.06851e+06 0 -149607 4.07628e+06 0 -112160 4.08008e+06 0 -78112.5 4.08063e+06 0 -47182.5 4.07852e+06 0 -19037.1 4.07427e+06 0 6682.06 4.06825e+06 0 30341.5 4.06079e+06 0 52306.2 4.05214e+06 0 72929.4 4.04246e+06 0 -425971 3.8177e+06 0 -381480 3.86707e+06 0 -337029 3.90905e+06 0 -293472 3.94395e+06 0 -251495 3.97226e+06 0 -211613 3.99456e+06 0 -174162 4.01151e+06 0 -139313 4.02376e+06 0 -107101 4.03194e+06 0 -77451.3 4.03661e+06 0 -50208.8 4.03829e+06 0 -25162.8 4.0374e+06 0 -2066.75 4.03431e+06 0 19347.2 4.02931e+06 0 39357.5 4.02266e+06 0 58243.2 4.01453e+06 0 -352568 3.76106e+06 0 -317687 3.80979e+06 0 -282689 3.85222e+06 0 -248156 3.88852e+06 0 -214599 3.91897e+06 0 -182414 3.94396e+06 0 -151885 3.96396e+06 0 -123184 3.97942e+06 0 -96383.5 3.99082e+06 0 -71471.6 3.99861e+06 0 -48370.7 4.0032e+06 0 -26951.7 4.00496e+06 0 -7049.4 4.00421e+06 0 11526.3 4.00122e+06 0 28981.3 3.99621e+06 0 45528.1 3.98937e+06 0 -280417 3.71721e+06 0 -253817 3.76531e+06 0 -227035 3.80786e+06 0 -200484 3.84494e+06 0 -174527 3.87675e+06 0 -149461 3.90353e+06 0 -125506 3.92561e+06 0 -102811 3.94333e+06 0 -81452.8 3.95706e+06 0 -61449.5 3.96714e+06 0 -42765.6 3.97391e+06 0 -25325.1 3.97768e+06 0 -9020.34 3.97873e+06 0 6279.68 3.9773e+06 0 20722.2 3.9736e+06 0 34462.9 3.96779e+06 0 -209342 3.68451e+06 0 -190091 3.73206e+06 0 -170665 3.77458e+06 0 -151342 3.8121e+06 0 -132372 3.84475e+06 0 -113963 3.87269e+06 0 -96276.4 3.89617e+06 0 -79425.5 3.91544e+06 0 -63477.2 3.93078e+06 0 -48455.9 3.94248e+06 0 -34349.3 3.95082e+06 0 -21114.3 3.95606e+06 0 -8683.39 3.95843e+06 0 3029.73 3.95817e+06 0 14125.2 3.95544e+06 0 24711.2 3.95041e+06 0 -139095 3.66185e+06 0 -126573 3.70899e+06 0 -113920 3.75143e+06 0 -101307 3.78919e+06 0 -88890 3.82233e+06 0 -76800.6 3.851e+06 0 -65143.8 3.87536e+06 0 -53995.5 3.89562e+06 0 -43403.2 3.91202e+06 0 -33388 3.9248e+06 0 -23947.2 3.93418e+06 0 -15058.2 3.94041e+06 0 -6681.98 3.94369e+06 0 1233.61 3.94422e+06 0 8750.45 3.94217e+06 0 15936.5 3.93769e+06 0 -69404.5 3.64853e+06 0 -63235.2 3.69542e+06 0 -56995 3.73779e+06 0 -50766.8 3.77565e+06 0 -44625.6 3.80906e+06 0 -38635.3 3.83811e+06 0 -32847.4 3.86296e+06 0 -27299.7 3.88378e+06 0 -22016.8 3.90078e+06 0 -17010.4 3.91417e+06 0 -12280.7 3.92415e+06 0 -7818.11 3.93095e+06 0 -3604.76 3.93475e+06 0 383.774 3.93575e+06 0 4176.99 3.9341e+06 0 7807.61 3.92994e+06 0 0 3.64415e+06 0 0 3.69094e+06 0 0 3.73329e+06 0 0 3.77118e+06 0 0 3.80467e+06 0 0 3.83384e+06 0 0 3.85884e+06 0 0 3.87984e+06 0 0 3.89704e+06 0 0 3.91062e+06 0 0 3.9208e+06 0 0 3.92778e+06 0 0 3.93176e+06 0 0 3.93291e+06 0 0 3.93139e+06 0 0 3.92734e+06 0 </DataArray> 
</PointData> 
<Points> 
<DataArray type="Float32" NumberOfComponents="3"> 
0.112986 0.0645877 0 0.115221 0.0644936 0 0.117456 0.0643958 0 0.119691 0.0642944 0 0.121926 0.0641893 0 0.124161 0.0640805 0 0.126395 0.0639681 0 0.12863 0.0638519 0 0.130865 0.0637322 0 0.133099 0.0636087 0 0.135333 0.0634816 0 0.137567 0.0633508 0 0.139802 0.0632164 0 0.142036 0.0630783 0 0.144269 0.0629365 0 0.146503 0.0627911 0 0.112987 0.0677486 0 0.115222 0.0676607 0 0.117457 0.0675695 0 0.119692 0.0674748 0 0.121926 0.0673767 0 0.124161 0.0672751 0 0.126396 0.0671702 0 0.12863 0.0670618 0 0.130865 0.06695 0 0.133099 0.0668348 0 0.135333 0.0667162 0 0.137567 0.0665941 0 0.139801 0.0664686 0 0.142035 0.0663397 0 0.144269 0.0662074 0 0.146503 0.0660717 0 0.112988 0.0709094 0 0.115223 0.0708278 0 0.117458 0.0707431 0 0.119692 0.0706551 0 0.121927 0.070564 0 0.124162 0.0704698 0 0.126396 0.0703723 0 0.12863 0.0702717 0 0.130865 0.0701679 0 0.133099 0.0700609 0 0.135333 0.0699507 0 0.137567 0.0698374 0 0.139801 0.0697209 0 0.142035 0.0696012 0 0.144269 0.0694783 0 0.146503 0.0693522 0 0.112989 0.0740702 0 0.115224 0.0739949 0 0.117458 0.0739167 0 0.119693 0.0738355 0 0.121927 0.0737514 0 0.124162 0.0736644 0 0.126396 0.0735744 0 0.128631 0.0734816 0 0.130865 0.0733857 0 0.133099 0.073287 0 0.135333 0.0731853 0 0.137567 0.0730807 0 0.139801 0.0729731 0 0.142035 0.0728626 0 0.144269 0.0727492 0 0.146503 0.0726328 0 0.11299 0.077231 0 0.115224 0.077162 0 0.117459 0.0770903 0 0.119693 0.0770159 0 0.121928 0.0769388 0 0.124162 0.076859 0 0.126397 0.0767766 0 0.128631 0.0766914 0 0.130865 0.0766036 0 0.133099 0.0765131 0 0.135333 0.0764198 0 0.137567 0.0763239 0 0.139801 0.0762254 0 0.142035 0.0761241 0 0.144269 0.0760201 0 0.146502 0.0759134 0 0.112991 0.0803918 0 0.115225 0.0803291 0 0.11746 0.0802639 0 0.119694 0.0801963 0 0.121928 0.0801262 0 0.124163 0.0800537 0 0.126397 0.0799787 0 0.128631 0.0799013 0 0.130865 0.0798214 0 0.133099 0.0797391 0 0.135333 0.0796544 0 0.137567 0.0795672 0 0.139801 0.0794776 0 0.142035 0.0793855 0 0.144269 0.079291 0 0.146502 0.079194 0 0.112992 0.0835526 0 0.115226 0.0834962 0 0.11746 0.0834375 0 0.119695 0.0833766 0 0.121929 0.0833136 0 0.124163 0.0832483 0 0.126397 0.0831808 0 0.128631 0.0831112 0 0.130865 0.0830393 0 0.133099 0.0829652 0 0.135333 0.082889 0 0.137567 0.0828105 0 0.139801 0.0827298 0 0.142035 0.082647 0 0.144268 0.0825619 0 0.146502 0.0824746 0 0.112992 0.0867135 0 0.115227 0.0866633 0 0.117461 0.0866111 0 0.119695 0.086557 0 0.121929 0.086501 0 0.124164 0.0864429 0 0.126398 0.086383 0 0.128632 0.086321 0 0.130866 0.0862572 0 0.133099 0.0861913 0 0.135333 0.0861235 0 0.137567 0.0860538 0 0.139801 0.0859821 0 0.142035 0.0859084 0 0.144268 0.0858328 0 0.146502 0.0857552 0 0.112993 0.0898743 0 0.115228 0.0898304 0 0.117462 0.0897847 0 0.119696 0.0897374 0 0.12193 0.0896883 0 0.124164 0.0896376 0 0.126398 0.0895851 0 0.128632 0.0895309 0 0.130866 0.089475 0 0.133099 0.0894174 0 0.135333 0.0893581 0 0.137567 0.0892971 0 0.139801 0.0892343 0 0.142034 0.0891699 0 0.144268 0.0891037 0 0.146502 0.0890358 0 0.112994 0.0930351 0 0.115228 0.0929974 0 0.117462 0.0929583 0 0.119696 0.0929178 0 0.12193 0.0928757 0 0.124164 0.0928322 0 0.126398 0.0927872 0 0.128632 0.0927408 0 0.130866 0.0926929 0 0.1331 0.0926435 0 0.135333 0.0925926 0 0.137567 0.0925403 0 0.139801 0.0924866 0 0.142034 0.0924313 0 0.144268 0.0923746 0 0.146501 0.0923164 0 0.112995 0.0961959 0 0.115229 0.0961645 0 0.117463 0.0961319 0 0.119697 0.0960981 0 0.121931 0.0960631 0 0.124165 0.0960268 0 0.126398 0.0959894 0 0.128632 0.0959506 0 0.130866 0.0959107 0 0.1331 0.0958696 0 0.135333 0.0958272 0 0.137567 0.0957836 0 0.139801 0.0957388 0 0.142034 0.0956928 0 0.144268 0.0956455 0 0.146501 0.095597 0 0.112996 0.0993567 0 0.11523 0.0993316 0 0.117464 0.0993056 0 0.119698 0.0992785 0 0.121931 0.0992505 0 0.124165 0.0992215 0 0.126399 0.0991915 0 0.128632 0.0991605 0 0.130866 0.0991286 0 0.1331 0.0990957 0 0.135333 0.0990618 0 0.137567 0.0990269 0 0.1398 0.098991 0 0.142034 0.0989542 0 0.144267 0.0989164 0 0.146501 0.0988776 0 0.112997 0.102518 0 0.115231 0.102499 0 0.117465 0.102479 0 0.119698 0.102459 0 0.121932 0.102438 0 0.124165 0.102416 0 0.126399 0.102394 0 0.128633 0.10237 0 0.130866 0.102346 0 0.1331 0.102322 0 0.135333 0.102296 0 0.137567 0.10227 0 0.1398 0.102243 0 0.142034 0.102216 0 0.144267 0.102187 0 0.146501 0.102158 0 0.112998 0.105678 0 0.115232 0.105666 0 0.117465 0.105653 0 0.119699 0.105639 0 0.121932 0.105625 0 0.124166 0.105611 0 0.126399 0.105596 0 0.128633 0.10558 0 0.130866 0.105564 0 0.1331 0.105548 0 0.135333 0.105531 0 0.137567 0.105513 0 0.1398 0.105496 0 0.142034 0.105477 0 0.144267 0.105458 0 0.1465 0.105439 0 0.112999 0.108839 0 0.115233 0.108833 0 0.117466 0.108826 0 0.119699 0.10882 0 0.121933 0.108813 0 0.124166 0.108805 0 0.1264 0.108798 0 0.128633 0.10879 0 0.130867 0.108782 0 0.1331 0.108774 0 0.135333 0.108765 0 0.137567 0.108757 0 0.1398 0.108748 0 0.142033 0.108739 0 0.144267 0.108729 0 0.1465 0.108719 0 0.113 0.112 0 0.115233 0.112 0 0.117467 0.112 0 0.1197 0.112 0 0.121933 0.112 0 0.124167 0.112 0 0.1264 0.112 0 0.128633 0.112 0 0.130867 0.112 0 0.1331 0.112 0 0.135333 0.112 0 0.137567 0.112 0 0.1398 0.112 0 0.142033 0.112 0 0.144267 0.112 0 0.1465 0.112 0 
</DataArray>
</Points> 
</Piece> 
</StructuredGrid> 
</VTKFile> 
