<?xml version="1.0"?> 
<VTKFile type="StructuredGrid" version="0.1"> 
<StructuredGrid WholeExtent="0 15 0 15 0 0"> 
<Piece Extent="0 15 0 15 0 0"> 
<PointData>
<DataArray type="Float32" Name="|E|" format="ascii" NumberOfComponents="3"> 
3.22081e+06 -1.3341e+06 0 2.74253e+06 264901 0 2.16024e+06 605814 0 1.76676e+06 662542 0 1.47778e+06 635306 0 1.25458e+06 574710 0 1.07664e+06 504078 0 931814 432513 0 813712 364114 0 717616 300438 0 640549 241713 0 580168 187548 0 534817 137211 0 503254 89818.6 0 484645 44410.2 0 478497 0 0 3.50484e+06 -1.20612e+06 0 2.77167e+06 365801 0 2.15262e+06 673398 0 1.74598e+06 713169 0 1.45204e+06 676006 0 1.22702e+06 609250 0 1.04891e+06 534354 0 904928 459376 0 788176 387969 0 693653 321384 0 618133 259711 0 559102 202462 0 514758 148840 0 483735 97904.4 0 465080 48641.2 0 458184 0 0 3.77047e+06 -1.04098e+06 0 2.79757e+06 471106 0 2.1432e+06 742536 0 1.72444e+06 764714 0 1.42588e+06 717424 0 1.19916e+06 644313 0 1.02086e+06 564920 0 877596 486310 0 762008 411697 0 668839 342052 0 594630 277329 0 536709 216948 0 493132 160053 0 462419 105647 0 443500 52665.4 0 435654 0 0 4.01659e+06 -841950 0 2.81985e+06 580472 0 2.13216e+06 813097 0 1.70225e+06 817121 0 1.39939e+06 759531 0 1.17106e+06 679875 0 992504 595764 0 849820 513315 0 735207 435309 0 643177 362458 0 570052 294590 0 513014 231035 0 469984 170876 0 439367 113069 0 419985 56496.8 0 411004 0 0 4.24178e+06 -612033 0 2.83827e+06 693527 0 2.11969e+06 884952 0 1.67955e+06 870348 0 1.37267e+06 802301 0 1.14278e+06 715918 0 963873 626885 0 821615 540396 0 707780 458819 0 616678 382626 0 544423 311519 0 488055 244748 0 445368 181337 0 414654 120191 0 394628 60148.6 0 384344 0 0 4.44444e+06 -354134 0 2.85274e+06 809898 0 2.10597e+06 957978 0 1.65649e+06 924365 0 1.34582e+06 845714 0 1.11438e+06 752438 0 935004 658287 0 793000 567567 0 679747 482250 0 589367 402580 0 517777 328145 0 461884 258114 0 419353 191458 0 388368 127034 0 367534 63632.7 0 355796 0 0 4.62293e+06 -71176.8 0 2.86325e+06 929216 0 2.09118e+06 1.03207e+06 0 1.63319e+06 979152 0 1.31893e+06 889757 0 1.0859e+06 789436 0 905936 689979 0 764005 594847 0 651135 505623 0 561278 422346 0 490162 344492 0 434563 271159 0 392021 201263 0 360609 133613 0 338820 66959.1 0 325491 0 0 4.77564e+06 233827 0 2.86986e+06 1.05113e+06 0 2.0755e+06 1.10712e+06 0 1.60981e+06 1.03469e+06 0 1.29212e+06 934421 0 1.05744e+06 826923 0 876717 721979 0 734668 622259 0 621981 528966 0 532456 441951 0 461635 360588 0 406167 283906 0 363464 210770 0 331486 139945 0 308615 70135.7 0 293571 0 0 4.9011e+06 557738 0 2.87267e+06 1.1753e+06 0 2.05912e+06 1.18305e+06 0 1.58647e+06 1.09098e+06 0 1.26547e+06 979705 0 1.02904e+06 864912 0 847400 754308 0 705033 649830 0 592332 552306 0 502953 461422 0 432262 376455 0 376778 296374 0 333783 219995 0 301122 146038 0 277056 73168.2 0 260189 0 0 4.99804e+06 897282 0 2.87183e+06 1.30142e+06 0 2.0422e+06 1.2598e+06 0 1.5633e+06 1.14799e+06 0 1.23909e+06 1.02561e+06 0 1.0008e+06 903423 0 818045 786991 0 675150 677589 0 562238 575672 0 472830 480785 0 402117 392118 0 346489 308582 0 303091 228950 0 269646 151901 0 244293 76059.7 0 225505 0 0 5.06544e+06 1.24906e+06 0 2.86747e+06 1.42921e+06 0 2.0249e+06 1.33729e+06 0 1.54043e+06 1.20574e+06 0 1.21308e+06 1.07216e+06 0 972768 942478 0 788714 820058 0 645073 705569 0 531758 599096 0 442153 500068 0 371281 407595 0 315396 320543 0 271504 237644 0 237197 157538 0 210480 78810.8 0 189690 0 0 5.10258e+06 1.60956e+06 0 2.85974e+06 1.55838e+06 0 2.00736e+06 1.41549e+06 0 1.51797e+06 1.26419e+06 0 1.18754e+06 1.11934e+06 0 945037 982098 0 759475 853540 0 614863 733803 0 500954 622607 0 410992 519295 0 339839 422903 0 283603 332267 0 239145 246079 0 203917 162947 0 175779 81419.2 0 152919 0 0 5.10906e+06 1.9752e+06 0 2.84875e+06 1.68869e+06 0 1.98972e+06 1.49433e+06 0 1.49602e+06 1.32335e+06 0 1.16258e+06 1.16719e+06 0 917679 1.02231e+06 0 730398 887471 0 584581 762325 0 469891 646235 0 379420 538488 0 307877 438059 0 251216 343761 0 206141 254256 0 169954 168123 0 140357 83880.1 0 115377 0 0 5.08485e+06 2.34237e+06 0 2.83461e+06 1.81988e+06 0 1.97208e+06 1.57379e+06 0 1.4747e+06 1.38319e+06 0 1.13827e+06 1.21571e+06 0 890772 1.06313e+06 0 701554 921884 0 554291 791168 0 438638 670012 0 347511 557669 0 275484 453072 0 218340 355026 0 172619 262170 0 135457 173059 0 104386 86185.5 0 77251.6 0 0 5.03027e+06 2.70747e+06 0 2.81741e+06 1.95173e+06 0 1.95454e+06 1.65381e+06 0 1.45408e+06 1.44369e+06 0 1.11472e+06 1.26491e+06 0 864393 1.10458e+06 0 673018 956814 0 524056 820366 0 407261 693967 0 315337 576858 0 242748 467953 0 185080 366062 0 138707 269811 0 100577 177741 0 68037.7 88324.9 0 38735.2 0 0 4.946e+06 3.06693e+06 0 2.79718e+06 2.08398e+06 0 1.93716e+06 1.73433e+06 0 1.43426e+06 1.50482e+06 0 1.09201e+06 1.31479e+06 0 838617 1.14668e+06 0 644865 992295 0 493939 849953 0 375829 718130 0 282969 596075 0 209755 482710 0 151540 376864 0 104529 277167 0 65463.4 182154 0 31485.7 90285.4 0 21.8831 0 0 </DataArray> 
</PointData> 
<Points> 
<DataArray type="Float32" NumberOfComponents="3"> 
0.2018 0.0378 0 0.213213 0.0378 0 0.224627 0.0378 0 0.23604 0.0378 0 0.247453 0.0378 0 0.258867 0.0378 0 0.27028 0.0378 0 0.281693 0.0378 0 0.293107 0.0378 0 0.30452 0.0378 0 0.315933 0.0378 0 0.327347 0.0378 0 0.33876 0.0378 0 0.350173 0.0378 0 0.361587 0.0378 0 0.373 0.0378 0 0.20215 0.0387237 0 0.213688 0.0389954 0 0.225204 0.0392666 0 0.236699 0.0395372 0 0.248173 0.0398074 0 0.259625 0.0400771 0 0.271057 0.0403463 0 0.282467 0.0406149 0 0.293857 0.0408831 0 0.305225 0.0411508 0 0.316573 0.041418 0 0.3279 0.0416847 0 0.339206 0.0419509 0 0.350491 0.0422167 0 0.361756 0.0424819 0 0.373 0.0427467 0 0.202446 0.0396795 0 0.214093 0.0402268 0 0.2257 0.0407721 0 0.237266 0.0413156 0 0.248793 0.0418572 0 0.260279 0.0423969 0 0.271726 0.0429348 0 0.283134 0.0434708 0 0.294502 0.044005 0 0.305832 0.0445373 0 0.317122 0.0450678 0 0.328374 0.0455965 0 0.339588 0.0461234 0 0.350763 0.0466485 0 0.3619 0.0471718 0 0.373 0.0476933 0 0.202684 0.0406627 0 0.214425 0.0414883 0 0.226109 0.04231 0 0.237736 0.0431277 0 0.249308 0.0439414 0 0.260823 0.0447512 0 0.272283 0.0455572 0 0.283688 0.0463592 0 0.295039 0.0471575 0 0.306336 0.0479519 0 0.317579 0.0487425 0 0.328768 0.0495294 0 0.339905 0.0503126 0 0.350989 0.0510921 0 0.36202 0.0518679 0 0.373 0.05264 0 0.202862 0.041668 0 0.21468 0.0427737 0 0.226427 0.0438729 0 0.238105 0.0449654 0 0.249713 0.0460515 0 0.261252 0.0471312 0 0.272724 0.0482045 0 0.284128 0.0492715 0 0.295465 0.0503322 0 0.306736 0.0513868 0 0.317941 0.0524351 0 0.329081 0.0534774 0 0.340156 0.0545137 0 0.351167 0.0555439 0 0.362115 0.0565682 0 0.373 0.0575867 0 0.202977 0.0426899 0 0.214854 0.0440762 0 0.226651 0.045453 0 0.238368 0.0468204 0 0.250005 0.0481786 0 0.261564 0.0495276 0 0.273045 0.0508676 0 0.284449 0.0521985 0 0.295777 0.0535206 0 0.307029 0.0548339 0 0.318207 0.0561384 0 0.32931 0.0574343 0 0.340341 0.0587217 0 0.351299 0.0600006 0 0.362185 0.0612711 0 0.373 0.0625333 0 0.203026 0.0437223 0 0.214946 0.0453884 0 0.226778 0.0470422 0 0.238522 0.0486838 0 0.250181 0.0503133 0 0.261755 0.051931 0 0.273244 0.0535368 0 0.28465 0.0551311 0 0.295973 0.0567137 0 0.307215 0.058285 0 0.318376 0.059845 0 0.329457 0.0613939 0 0.340459 0.0629317 0 0.351383 0.0644585 0 0.36223 0.0659746 0 0.373 0.06748 0 0.203008 0.0447589 0 0.214952 0.0467029 0 0.226805 0.048632 0 0.238567 0.0505464 0 0.250239 0.0524462 0 0.261823 0.0543315 0 0.273319 0.0562026 0 0.284728 0.0580596 0 0.296052 0.0599027 0 0.307291 0.061732 0 0.318447 0.0635476 0 0.329519 0.0653498 0 0.34051 0.0671386 0 0.35142 0.0689143 0 0.36225 0.0706769 0 0.373 0.0724267 0 0.202924 0.0457932 0 0.214874 0.0480122 0 0.226733 0.0502141 0 0.2385 0.0523991 0 0.250178 0.0545675 0 0.261768 0.0567195 0 0.27327 0.0588552 0 0.284685 0.0609747 0 0.296014 0.0630784 0 0.307259 0.0651664 0 0.31842 0.0672387 0 0.329498 0.0692958 0 0.340494 0.0713375 0 0.351409 0.0733643 0 0.362244 0.0753762 0 0.373 0.0773733 0 0.202774 0.046819 0 0.214712 0.0493086 0 0.226561 0.0517799 0 0.238323 0.0542329 0 0.249999 0.0566679 0 0.26159 0.0590852 0 0.273096 0.0614848 0 0.284519 0.063867 0 0.295859 0.066232 0 0.307117 0.06858 0 0.318295 0.0709111 0 0.329392 0.0732255 0 0.340411 0.0755235 0 0.351351 0.0778051 0 0.362214 0.0800705 0 0.373 0.08232 0 0.202559 0.0478298 0 0.214466 0.0505849 0 0.226292 0.0533211 0 0.238037 0.0560388 0 0.249703 0.0587381 0 0.26129 0.0614191 0 0.272799 0.0640821 0 0.284231 0.0667273 0 0.295587 0.0693548 0 0.306867 0.0719647 0 0.318072 0.0745574 0 0.329203 0.0771329 0 0.340261 0.0796914 0 0.351245 0.0822331 0 0.362158 0.0847581 0 0.373 0.0872667 0 0.202281 0.0488197 0 0.214139 0.0518338 0 0.225927 0.05483 0 0.237644 0.0578083 0 0.249292 0.060769 0 0.260871 0.0637121 0 0.272381 0.0666379 0 0.283824 0.0695465 0 0.2952 0.072438 0 0.306509 0.0753126 0 0.317752 0.0781704 0 0.32893 0.0810117 0 0.340044 0.0838364 0 0.351093 0.0866449 0 0.362078 0.0894371 0 0.373 0.0922133 0 0.201943 0.049783 0 0.213735 0.0530489 0 0.22547 0.0562991 0 0.237148 0.0595335 0 0.248769 0.0627522 0 0.260335 0.0659555 0 0.271845 0.0691434 0 0.2833 0.072316 0 0.2947 0.0754735 0 0.306046 0.0786159 0 0.317337 0.0817433 0 0.328576 0.0848559 0 0.339761 0.0879538 0 0.350893 0.091037 0 0.361972 0.0941057 0 0.373 0.09716 0 0.201549 0.0507145 0 0.213257 0.0542241 0 0.224925 0.0577215 0 0.236552 0.0612067 0 0.248139 0.0646799 0 0.259686 0.0681411 0 0.271194 0.0715904 0 0.282661 0.0750278 0 0.294089 0.0784533 0 0.305478 0.0818672 0 0.316828 0.0852693 0 0.328139 0.0886598 0 0.339412 0.0920387 0 0.350646 0.0954061 0 0.361842 0.0987621 0 0.373 0.102107 0 0.201102 0.0516097 0 0.212711 0.0553539 0 0.224298 0.0590911 0 0.235863 0.0628214 0 0.247407 0.0665449 0 0.25893 0.0702614 0 0.270432 0.0739711 0 0.281912 0.077674 0 0.293372 0.0813701 0 0.30481 0.0850594 0 0.316227 0.0887419 0 0.327623 0.0924176 0 0.338999 0.0960866 0 0.350353 0.0997489 0 0.361687 0.103404 0 0.373 0.107053 0 0.200608 0.0524645 0 0.212101 0.0564336 0 0.223593 0.0604026 0 0.235086 0.0643716 0 0.246579 0.0683407 0 0.258072 0.0723097 0 0.269565 0.0762787 0 0.281058 0.0802478 0 0.29255 0.0842168 0 0.304043 0.0881858 0 0.315536 0.0921548 0 0.327029 0.0961239 0 0.338522 0.100093 0 0.350014 0.104062 0 0.361507 0.108031 0 0.373 0.112 0 
</DataArray>
</Points> 
</Piece> 
</StructuredGrid> 
</VTKFile> 
