<?xml version="1.0"?> 
<VTKFile type="StructuredGrid" version="0.1"> 
<StructuredGrid WholeExtent="0 127 0 127 0 0"> 
<Piece Extent="0 127 0 127 0 0"> 
<PointData>
<DataArray type="Float32" Name="|E|" format="ascii" NumberOfComponents="3"> 
-1.44211e+06 1.00085e+06 0 -1.44326e+06 1.0051e+06 0 -1.44441e+06 1.00936e+06 0 -1.44557e+06 1.01362e+06 0 -1.44673e+06 1.01788e+06 0 -1.44789e+06 1.02215e+06 0 -1.44906e+06 1.02641e+06 0 -1.45023e+06 1.03068e+06 0 -1.45141e+06 1.03496e+06 0 -1.45259e+06 1.03923e+06 0 -1.45377e+06 1.04351e+06 0 -1.45496e+06 1.04779e+06 0 -1.45615e+06 1.05207e+06 0 -1.45735e+06 1.05635e+06 0 -1.45855e+06 1.06064e+06 0 -1.45975e+06 1.06493e+06 0 -1.46096e+06 1.06922e+06 0 -1.46217e+06 1.07351e+06 0 -1.46338e+06 1.07781e+06 0 -1.4646e+06 1.08211e+06 0 -1.46583e+06 1.08641e+06 0 -1.46705e+06 1.09071e+06 0 -1.46828e+06 1.09502e+06 0 -1.46952e+06 1.09932e+06 0 -1.47076e+06 1.10363e+06 0 -1.472e+06 1.10794e+06 0 -1.47325e+06 1.11226e+06 0 -1.4745e+06 1.11657e+06 0 -1.47575e+06 1.12089e+06 0 -1.47701e+06 1.12521e+06 0 -1.47827e+06 1.12953e+06 0 -1.47954e+06 1.13385e+06 0 -1.48081e+06 1.13818e+06 0 -1.48209e+06 1.1425e+06 0 -1.48336e+06 1.14683e+06 0 -1.48465e+06 1.15116e+06 0 -1.48593e+06 1.15549e+06 0 -1.48723e+06 1.15983e+06 0 -1.48852e+06 1.16416e+06 0 -1.48982e+06 1.1685e+06 0 -1.49113e+06 1.17284e+06 0 -1.49243e+06 1.17718e+06 0 -1.49375e+06 1.18152e+06 0 -1.49506e+06 1.18586e+06 0 -1.49639e+06 1.19021e+06 0 -1.49771e+06 1.19456e+06 0 -1.49904e+06 1.1989e+06 0 -1.50038e+06 1.20325e+06 0 -1.50172e+06 1.2076e+06 0 -1.50306e+06 1.21195e+06 0 -1.50441e+06 1.21631e+06 0 -1.50576e+06 1.22066e+06 0 -1.50712e+06 1.22502e+06 0 -1.50848e+06 1.22937e+06 0 -1.50985e+06 1.23373e+06 0 -1.51122e+06 1.23809e+06 0 -1.51259e+06 1.24245e+06 0 -1.51397e+06 1.24681e+06 0 -1.51536e+06 1.25117e+06 0 -1.51675e+06 1.25553e+06 0 -1.51815e+06 1.2599e+06 0 -1.51955e+06 1.26426e+06 0 -1.52095e+06 1.26862e+06 0 -1.52236e+06 1.27299e+06 0 -1.52378e+06 1.27736e+06 0 -1.5252e+06 1.28172e+06 0 -1.52662e+06 1.28609e+06 0 -1.52805e+06 1.29046e+06 0 -1.52949e+06 1.29483e+06 0 -1.53093e+06 1.2992e+06 0 -1.53238e+06 1.30357e+06 0 -1.53383e+06 1.30794e+06 0 -1.53529e+06 1.3123e+06 0 -1.53675e+06 1.31668e+06 0 -1.53822e+06 1.32105e+06 0 -1.5397e+06 1.32542e+06 0 -1.54118e+06 1.32979e+06 0 -1.54266e+06 1.33416e+06 0 -1.54416e+06 1.33853e+06 0 -1.54565e+06 1.3429e+06 0 -1.54716e+06 1.34727e+06 0 -1.54867e+06 1.35164e+06 0 -1.55019e+06 1.35601e+06 0 -1.55171e+06 1.36038e+06 0 -1.55324e+06 1.36475e+06 0 -1.55477e+06 1.36912e+06 0 -1.55631e+06 1.37349e+06 0 -1.55786e+06 1.37786e+06 0 -1.55942e+06 1.38223e+06 0 -1.56098e+06 1.38659e+06 0 -1.56255e+06 1.39096e+06 0 -1.56413e+06 1.39533e+06 0 -1.56571e+06 1.39969e+06 0 -1.5673e+06 1.40406e+06 0 -1.56889e+06 1.40842e+06 0 -1.5705e+06 1.41279e+06 0 -1.57211e+06 1.41715e+06 0 -1.57373e+06 1.42151e+06 0 -1.57536e+06 1.42587e+06 0 -1.57699e+06 1.43023e+06 0 -1.57863e+06 1.43459e+06 0 -1.58028e+06 1.43895e+06 0 -1.58194e+06 1.4433e+06 0 -1.58361e+06 1.44766e+06 0 -1.58528e+06 1.45201e+06 0 -1.58697e+06 1.45637e+06 0 -1.58866e+06 1.46072e+06 0 -1.59036e+06 1.46507e+06 0 -1.59207e+06 1.46941e+06 0 -1.59379e+06 1.47376e+06 0 -1.59551e+06 1.47811e+06 0 -1.59725e+06 1.48245e+06 0 -1.59899e+06 1.48679e+06 0 -1.60075e+06 1.49113e+06 0 -1.60251e+06 1.49547e+06 0 -1.60429e+06 1.49981e+06 0 -1.60607e+06 1.50414e+06 0 -1.60786e+06 1.50847e+06 0 -1.60967e+06 1.5128e+06 0 -1.61148e+06 1.51713e+06 0 -1.61331e+06 1.52146e+06 0 -1.61514e+06 1.52578e+06 0 -1.61699e+06 1.5301e+06 0 -1.61884e+06 1.53442e+06 0 -1.62071e+06 1.53874e+06 0 -1.62259e+06 1.54306e+06 0 -1.62448e+06 1.54737e+06 0 -1.62639e+06 1.55168e+06 0 -1.43823e+06 1.00111e+06 0 -1.43939e+06 1.00539e+06 0 -1.44054e+06 1.00968e+06 0 -1.44171e+06 1.01397e+06 0 -1.44287e+06 1.01826e+06 0 -1.44404e+06 1.02256e+06 0 -1.44521e+06 1.02686e+06 0 -1.44639e+06 1.03116e+06 0 -1.44757e+06 1.03546e+06 0 -1.44876e+06 1.03977e+06 0 -1.44995e+06 1.04408e+06 0 -1.45114e+06 1.04839e+06 0 -1.45234e+06 1.0527e+06 0 -1.45354e+06 1.05702e+06 0 -1.45474e+06 1.06133e+06 0 -1.45595e+06 1.06565e+06 0 -1.45717e+06 1.06998e+06 0 -1.45838e+06 1.0743e+06 0 -1.4596e+06 1.07863e+06 0 -1.46083e+06 1.08296e+06 0 -1.46206e+06 1.08729e+06 0 -1.46329e+06 1.09162e+06 0 -1.46453e+06 1.09596e+06 0 -1.46577e+06 1.1003e+06 0 -1.46701e+06 1.10464e+06 0 -1.46826e+06 1.10898e+06 0 -1.46951e+06 1.11333e+06 0 -1.47077e+06 1.11767e+06 0 -1.47203e+06 1.12202e+06 0 -1.4733e+06 1.12637e+06 0 -1.47457e+06 1.13073e+06 0 -1.47584e+06 1.13508e+06 0 -1.47712e+06 1.13944e+06 0 -1.4784e+06 1.1438e+06 0 -1.47968e+06 1.14816e+06 0 -1.48097e+06 1.15252e+06 0 -1.48227e+06 1.15688e+06 0 -1.48357e+06 1.16125e+06 0 -1.48487e+06 1.16562e+06 0 -1.48618e+06 1.16999e+06 0 -1.48749e+06 1.17436e+06 0 -1.48881e+06 1.17873e+06 0 -1.49013e+06 1.1831e+06 0 -1.49145e+06 1.18748e+06 0 -1.49278e+06 1.19186e+06 0 -1.49411e+06 1.19623e+06 0 -1.49545e+06 1.20061e+06 0 -1.4968e+06 1.205e+06 0 -1.49814e+06 1.20938e+06 0 -1.49949e+06 1.21376e+06 0 -1.50085e+06 1.21815e+06 0 -1.50221e+06 1.22253e+06 0 -1.50358e+06 1.22692e+06 0 -1.50495e+06 1.23131e+06 0 -1.50632e+06 1.2357e+06 0 -1.5077e+06 1.24009e+06 0 -1.50909e+06 1.24449e+06 0 -1.51048e+06 1.24888e+06 0 -1.51187e+06 1.25327e+06 0 -1.51327e+06 1.25767e+06 0 -1.51468e+06 1.26206e+06 0 -1.51609e+06 1.26646e+06 0 -1.5175e+06 1.27086e+06 0 -1.51892e+06 1.27526e+06 0 -1.52035e+06 1.27966e+06 0 -1.52178e+06 1.28406e+06 0 -1.52321e+06 1.28846e+06 0 -1.52466e+06 1.29286e+06 0 -1.5261e+06 1.29726e+06 0 -1.52755e+06 1.30166e+06 0 -1.52901e+06 1.30607e+06 0 -1.53048e+06 1.31047e+06 0 -1.53194e+06 1.31487e+06 0 -1.53342e+06 1.31928e+06 0 -1.5349e+06 1.32368e+06 0 -1.53639e+06 1.32808e+06 0 -1.53788e+06 1.33249e+06 0 -1.53938e+06 1.33689e+06 0 -1.54088e+06 1.3413e+06 0 -1.54239e+06 1.3457e+06 0 -1.54391e+06 1.35011e+06 0 -1.54543e+06 1.35451e+06 0 -1.54696e+06 1.35892e+06 0 -1.54849e+06 1.36332e+06 0 -1.55003e+06 1.36772e+06 0 -1.55158e+06 1.37213e+06 0 -1.55314e+06 1.37653e+06 0 -1.5547e+06 1.38093e+06 0 -1.55627e+06 1.38534e+06 0 -1.55784e+06 1.38974e+06 0 -1.55943e+06 1.39414e+06 0 -1.56102e+06 1.39854e+06 0 -1.56261e+06 1.40294e+06 0 -1.56422e+06 1.40734e+06 0 -1.56583e+06 1.41174e+06 0 -1.56745e+06 1.41614e+06 0 -1.56907e+06 1.42053e+06 0 -1.57071e+06 1.42493e+06 0 -1.57235e+06 1.42933e+06 0 -1.574e+06 1.43372e+06 0 -1.57566e+06 1.43811e+06 0 -1.57732e+06 1.44251e+06 0 -1.579e+06 1.4469e+06 0 -1.58068e+06 1.45129e+06 0 -1.58237e+06 1.45568e+06 0 -1.58407e+06 1.46006e+06 0 -1.58578e+06 1.46445e+06 0 -1.58749e+06 1.46883e+06 0 -1.58922e+06 1.47322e+06 0 -1.59096e+06 1.4776e+06 0 -1.5927e+06 1.48198e+06 0 -1.59445e+06 1.48636e+06 0 -1.59622e+06 1.49074e+06 0 -1.59799e+06 1.49511e+06 0 -1.59977e+06 1.49949e+06 0 -1.60157e+06 1.50386e+06 0 -1.60337e+06 1.50823e+06 0 -1.60518e+06 1.5126e+06 0 -1.60701e+06 1.51696e+06 0 -1.60884e+06 1.52133e+06 0 -1.61068e+06 1.52569e+06 0 -1.61254e+06 1.53005e+06 0 -1.61441e+06 1.53441e+06 0 -1.61628e+06 1.53877e+06 0 -1.61817e+06 1.54312e+06 0 -1.62008e+06 1.54747e+06 0 -1.62199e+06 1.55182e+06 0 -1.62391e+06 1.55617e+06 0 -1.43435e+06 1.00137e+06 0 -1.43551e+06 1.00568e+06 0 -1.43668e+06 1.01e+06 0 -1.43784e+06 1.01432e+06 0 -1.43901e+06 1.01865e+06 0 -1.44019e+06 1.02297e+06 0 -1.44137e+06 1.0273e+06 0 -1.44255e+06 1.03163e+06 0 -1.44373e+06 1.03597e+06 0 -1.44492e+06 1.0403e+06 0 -1.44612e+06 1.04464e+06 0 -1.44732e+06 1.04899e+06 0 -1.44852e+06 1.05333e+06 0 -1.44973e+06 1.05768e+06 0 -1.45094e+06 1.06203e+06 0 -1.45215e+06 1.06638e+06 0 -1.45337e+06 1.07073e+06 0 -1.45459e+06 1.07509e+06 0 -1.45582e+06 1.07945e+06 0 -1.45705e+06 1.08381e+06 0 -1.45828e+06 1.08817e+06 0 -1.45952e+06 1.09254e+06 0 -1.46076e+06 1.0969e+06 0 -1.46201e+06 1.10127e+06 0 -1.46326e+06 1.10565e+06 0 -1.46452e+06 1.11002e+06 0 -1.46578e+06 1.1144e+06 0 -1.46704e+06 1.11877e+06 0 -1.46831e+06 1.12316e+06 0 -1.46958e+06 1.12754e+06 0 -1.47085e+06 1.13192e+06 0 -1.47213e+06 1.13631e+06 0 -1.47342e+06 1.1407e+06 0 -1.47471e+06 1.14509e+06 0 -1.476e+06 1.14948e+06 0 -1.4773e+06 1.15387e+06 0 -1.4786e+06 1.15827e+06 0 -1.47991e+06 1.16267e+06 0 -1.48122e+06 1.16707e+06 0 -1.48253e+06 1.17147e+06 0 -1.48385e+06 1.17587e+06 0 -1.48517e+06 1.18028e+06 0 -1.4865e+06 1.18468e+06 0 -1.48783e+06 1.18909e+06 0 -1.48917e+06 1.1935e+06 0 -1.49051e+06 1.19791e+06 0 -1.49186e+06 1.20232e+06 0 -1.49321e+06 1.20674e+06 0 -1.49457e+06 1.21115e+06 0 -1.49593e+06 1.21557e+06 0 -1.49729e+06 1.21999e+06 0 -1.49866e+06 1.22441e+06 0 -1.50003e+06 1.22883e+06 0 -1.50141e+06 1.23325e+06 0 -1.5028e+06 1.23767e+06 0 -1.50419e+06 1.2421e+06 0 -1.50558e+06 1.24652e+06 0 -1.50698e+06 1.25095e+06 0 -1.50838e+06 1.25538e+06 0 -1.50979e+06 1.25981e+06 0 -1.51121e+06 1.26423e+06 0 -1.51263e+06 1.26866e+06 0 -1.51405e+06 1.2731e+06 0 -1.51548e+06 1.27753e+06 0 -1.51692e+06 1.28196e+06 0 -1.51836e+06 1.28639e+06 0 -1.5198e+06 1.29083e+06 0 -1.52125e+06 1.29526e+06 0 -1.52271e+06 1.2997e+06 0 -1.52417e+06 1.30413e+06 0 -1.52564e+06 1.30857e+06 0 -1.52712e+06 1.31301e+06 0 -1.5286e+06 1.31744e+06 0 -1.53008e+06 1.32188e+06 0 -1.53157e+06 1.32632e+06 0 -1.53307e+06 1.33075e+06 0 -1.53457e+06 1.33519e+06 0 -1.53608e+06 1.33963e+06 0 -1.5376e+06 1.34407e+06 0 -1.53912e+06 1.34851e+06 0 -1.54065e+06 1.35295e+06 0 -1.54218e+06 1.35738e+06 0 -1.54373e+06 1.36182e+06 0 -1.54527e+06 1.36626e+06 0 -1.54683e+06 1.3707e+06 0 -1.54839e+06 1.37514e+06 0 -1.54996e+06 1.37957e+06 0 -1.55153e+06 1.38401e+06 0 -1.55311e+06 1.38845e+06 0 -1.5547e+06 1.39288e+06 0 -1.5563e+06 1.39732e+06 0 -1.5579e+06 1.40176e+06 0 -1.55951e+06 1.40619e+06 0 -1.56113e+06 1.41063e+06 0 -1.56276e+06 1.41506e+06 0 -1.56439e+06 1.41949e+06 0 -1.56603e+06 1.42392e+06 0 -1.56768e+06 1.42835e+06 0 -1.56934e+06 1.43278e+06 0 -1.571e+06 1.43721e+06 0 -1.57268e+06 1.44164e+06 0 -1.57436e+06 1.44607e+06 0 -1.57605e+06 1.4505e+06 0 -1.57775e+06 1.45492e+06 0 -1.57945e+06 1.45935e+06 0 -1.58117e+06 1.46377e+06 0 -1.58289e+06 1.46819e+06 0 -1.58463e+06 1.47261e+06 0 -1.58637e+06 1.47703e+06 0 -1.58812e+06 1.48145e+06 0 -1.58989e+06 1.48586e+06 0 -1.59166e+06 1.49028e+06 0 -1.59344e+06 1.49469e+06 0 -1.59523e+06 1.4991e+06 0 -1.59703e+06 1.50351e+06 0 -1.59884e+06 1.50792e+06 0 -1.60067e+06 1.51233e+06 0 -1.6025e+06 1.51673e+06 0 -1.60434e+06 1.52113e+06 0 -1.6062e+06 1.52554e+06 0 -1.60806e+06 1.52993e+06 0 -1.60994e+06 1.53433e+06 0 -1.61182e+06 1.53873e+06 0 -1.61372e+06 1.54312e+06 0 -1.61563e+06 1.54751e+06 0 -1.61756e+06 1.5519e+06 0 -1.61949e+06 1.55629e+06 0 -1.62144e+06 1.56067e+06 0 -1.43048e+06 1.00162e+06 0 -1.43164e+06 1.00597e+06 0 -1.43281e+06 1.01032e+06 0 -1.43398e+06 1.01467e+06 0 -1.43515e+06 1.01902e+06 0 -1.43633e+06 1.02338e+06 0 -1.43751e+06 1.02774e+06 0 -1.4387e+06 1.0321e+06 0 -1.43989e+06 1.03647e+06 0 -1.44109e+06 1.04084e+06 0 -1.44229e+06 1.04521e+06 0 -1.44349e+06 1.04958e+06 0 -1.4447e+06 1.05396e+06 0 -1.44591e+06 1.05833e+06 0 -1.44713e+06 1.06271e+06 0 -1.44835e+06 1.0671e+06 0 -1.44957e+06 1.07148e+06 0 -1.4508e+06 1.07587e+06 0 -1.45203e+06 1.08026e+06 0 -1.45327e+06 1.08465e+06 0 -1.45451e+06 1.08905e+06 0 -1.45575e+06 1.09344e+06 0 -1.457e+06 1.09784e+06 0 -1.45825e+06 1.10225e+06 0 -1.45951e+06 1.10665e+06 0 -1.46077e+06 1.11106e+06 0 -1.46204e+06 1.11546e+06 0 -1.46331e+06 1.11987e+06 0 -1.46458e+06 1.12429e+06 0 -1.46586e+06 1.1287e+06 0 -1.46714e+06 1.13312e+06 0 -1.46843e+06 1.13754e+06 0 -1.46972e+06 1.14196e+06 0 -1.47101e+06 1.14638e+06 0 -1.47231e+06 1.1508e+06 0 -1.47362e+06 1.15523e+06 0 -1.47493e+06 1.15966e+06 0 -1.47624e+06 1.16409e+06 0 -1.47756e+06 1.16852e+06 0 -1.47888e+06 1.17295e+06 0 -1.48021e+06 1.17739e+06 0 -1.48154e+06 1.18183e+06 0 -1.48287e+06 1.18626e+06 0 -1.48421e+06 1.19071e+06 0 -1.48556e+06 1.19515e+06 0 -1.48691e+06 1.19959e+06 0 -1.48826e+06 1.20404e+06 0 -1.48962e+06 1.20848e+06 0 -1.49098e+06 1.21293e+06 0 -1.49235e+06 1.21738e+06 0 -1.49373e+06 1.22183e+06 0 -1.4951e+06 1.22628e+06 0 -1.49649e+06 1.23074e+06 0 -1.49788e+06 1.23519e+06 0 -1.49927e+06 1.23965e+06 0 -1.50067e+06 1.2441e+06 0 -1.50207e+06 1.24856e+06 0 -1.50348e+06 1.25302e+06 0 -1.50489e+06 1.25748e+06 0 -1.50631e+06 1.26194e+06 0 -1.50773e+06 1.26641e+06 0 -1.50916e+06 1.27087e+06 0 -1.5106e+06 1.27533e+06 0 -1.51204e+06 1.2798e+06 0 -1.51348e+06 1.28426e+06 0 -1.51493e+06 1.28873e+06 0 -1.51639e+06 1.2932e+06 0 -1.51785e+06 1.29767e+06 0 -1.51932e+06 1.30213e+06 0 -1.52079e+06 1.3066e+06 0 -1.52227e+06 1.31107e+06 0 -1.52375e+06 1.31554e+06 0 -1.52524e+06 1.32001e+06 0 -1.52674e+06 1.32449e+06 0 -1.52824e+06 1.32896e+06 0 -1.52975e+06 1.33343e+06 0 -1.53127e+06 1.3379e+06 0 -1.53279e+06 1.34237e+06 0 -1.53432e+06 1.34685e+06 0 -1.53585e+06 1.35132e+06 0 -1.53739e+06 1.35579e+06 0 -1.53894e+06 1.36026e+06 0 -1.54049e+06 1.36474e+06 0 -1.54205e+06 1.36921e+06 0 -1.54362e+06 1.37368e+06 0 -1.54519e+06 1.37815e+06 0 -1.54677e+06 1.38262e+06 0 -1.54836e+06 1.3871e+06 0 -1.54996e+06 1.39157e+06 0 -1.55156e+06 1.39604e+06 0 -1.55317e+06 1.40051e+06 0 -1.55478e+06 1.40498e+06 0 -1.55641e+06 1.40945e+06 0 -1.55804e+06 1.41392e+06 0 -1.55968e+06 1.41839e+06 0 -1.56133e+06 1.42285e+06 0 -1.56299e+06 1.42732e+06 0 -1.56465e+06 1.43179e+06 0 -1.56632e+06 1.43625e+06 0 -1.568e+06 1.44072e+06 0 -1.56969e+06 1.44518e+06 0 -1.57139e+06 1.44964e+06 0 -1.57309e+06 1.4541e+06 0 -1.57481e+06 1.45856e+06 0 -1.57653e+06 1.46302e+06 0 -1.57827e+06 1.46748e+06 0 -1.58001e+06 1.47194e+06 0 -1.58176e+06 1.4764e+06 0 -1.58352e+06 1.48085e+06 0 -1.58529e+06 1.4853e+06 0 -1.58707e+06 1.48976e+06 0 -1.58886e+06 1.49421e+06 0 -1.59066e+06 1.49866e+06 0 -1.59247e+06 1.5031e+06 0 -1.59429e+06 1.50755e+06 0 -1.59612e+06 1.51199e+06 0 -1.59796e+06 1.51644e+06 0 -1.59981e+06 1.52088e+06 0 -1.60168e+06 1.52532e+06 0 -1.60355e+06 1.52976e+06 0 -1.60543e+06 1.53419e+06 0 -1.60733e+06 1.53863e+06 0 -1.60924e+06 1.54306e+06 0 -1.61116e+06 1.54749e+06 0 -1.61309e+06 1.55192e+06 0 -1.61504e+06 1.55634e+06 0 -1.61699e+06 1.56077e+06 0 -1.61896e+06 1.56519e+06 0 -1.42659e+06 1.00187e+06 0 -1.42776e+06 1.00625e+06 0 -1.42893e+06 1.01063e+06 0 -1.43011e+06 1.01501e+06 0 -1.43129e+06 1.0194e+06 0 -1.43247e+06 1.02379e+06 0 -1.43366e+06 1.02818e+06 0 -1.43485e+06 1.03257e+06 0 -1.43605e+06 1.03697e+06 0 -1.43725e+06 1.04137e+06 0 -1.43845e+06 1.04577e+06 0 -1.43966e+06 1.05017e+06 0 -1.44088e+06 1.05458e+06 0 -1.44209e+06 1.05899e+06 0 -1.44331e+06 1.0634e+06 0 -1.44454e+06 1.06782e+06 0 -1.44577e+06 1.07223e+06 0 -1.447e+06 1.07665e+06 0 -1.44824e+06 1.08107e+06 0 -1.44948e+06 1.0855e+06 0 -1.45073e+06 1.08992e+06 0 -1.45198e+06 1.09435e+06 0 -1.45323e+06 1.09878e+06 0 -1.45449e+06 1.10322e+06 0 -1.45575e+06 1.10765e+06 0 -1.45702e+06 1.11209e+06 0 -1.45829e+06 1.11653e+06 0 -1.45957e+06 1.12097e+06 0 -1.46085e+06 1.12542e+06 0 -1.46213e+06 1.12986e+06 0 -1.46342e+06 1.13431e+06 0 -1.46472e+06 1.13876e+06 0 -1.46602e+06 1.14321e+06 0 -1.46732e+06 1.14767e+06 0 -1.46862e+06 1.15213e+06 0 -1.46994e+06 1.15658e+06 0 -1.47125e+06 1.16104e+06 0 -1.47257e+06 1.16551e+06 0 -1.4739e+06 1.16997e+06 0 -1.47523e+06 1.17444e+06 0 -1.47656e+06 1.1789e+06 0 -1.4779e+06 1.18337e+06 0 -1.47924e+06 1.18785e+06 0 -1.48059e+06 1.19232e+06 0 -1.48194e+06 1.19679e+06 0 -1.4833e+06 1.20127e+06 0 -1.48466e+06 1.20575e+06 0 -1.48603e+06 1.21023e+06 0 -1.4874e+06 1.21471e+06 0 -1.48878e+06 1.21919e+06 0 -1.49016e+06 1.22367e+06 0 -1.49155e+06 1.22816e+06 0 -1.49294e+06 1.23264e+06 0 -1.49433e+06 1.23713e+06 0 -1.49573e+06 1.24162e+06 0 -1.49714e+06 1.24611e+06 0 -1.49855e+06 1.2506e+06 0 -1.49997e+06 1.25509e+06 0 -1.50139e+06 1.25959e+06 0 -1.50282e+06 1.26408e+06 0 -1.50425e+06 1.26858e+06 0 -1.50569e+06 1.27308e+06 0 -1.50714e+06 1.27757e+06 0 -1.50859e+06 1.28207e+06 0 -1.51004e+06 1.28657e+06 0 -1.5115e+06 1.29107e+06 0 -1.51297e+06 1.29557e+06 0 -1.51444e+06 1.30007e+06 0 -1.51592e+06 1.30458e+06 0 -1.5174e+06 1.30908e+06 0 -1.51889e+06 1.31358e+06 0 -1.52039e+06 1.31809e+06 0 -1.52189e+06 1.32259e+06 0 -1.5234e+06 1.3271e+06 0 -1.52491e+06 1.3316e+06 0 -1.52643e+06 1.33611e+06 0 -1.52796e+06 1.34061e+06 0 -1.52949e+06 1.34512e+06 0 -1.53103e+06 1.34962e+06 0 -1.53257e+06 1.35413e+06 0 -1.53413e+06 1.35864e+06 0 -1.53568e+06 1.36314e+06 0 -1.53725e+06 1.36765e+06 0 -1.53882e+06 1.37216e+06 0 -1.5404e+06 1.37667e+06 0 -1.54199e+06 1.38117e+06 0 -1.54358e+06 1.38568e+06 0 -1.54518e+06 1.39018e+06 0 -1.54679e+06 1.39469e+06 0 -1.54841e+06 1.3992e+06 0 -1.55003e+06 1.4037e+06 0 -1.55166e+06 1.40821e+06 0 -1.5533e+06 1.41271e+06 0 -1.55495e+06 1.41721e+06 0 -1.5566e+06 1.42172e+06 0 -1.55827e+06 1.42622e+06 0 -1.55994e+06 1.43072e+06 0 -1.56162e+06 1.43522e+06 0 -1.5633e+06 1.43972e+06 0 -1.565e+06 1.44422e+06 0 -1.5667e+06 1.44872e+06 0 -1.56842e+06 1.45322e+06 0 -1.57014e+06 1.45772e+06 0 -1.57187e+06 1.46222e+06 0 -1.57361e+06 1.46671e+06 0 -1.57536e+06 1.4712e+06 0 -1.57712e+06 1.4757e+06 0 -1.57889e+06 1.48019e+06 0 -1.58066e+06 1.48468e+06 0 -1.58245e+06 1.48917e+06 0 -1.58425e+06 1.49366e+06 0 -1.58606e+06 1.49814e+06 0 -1.58787e+06 1.50263e+06 0 -1.5897e+06 1.50711e+06 0 -1.59154e+06 1.5116e+06 0 -1.59339e+06 1.51608e+06 0 -1.59525e+06 1.52056e+06 0 -1.59712e+06 1.52504e+06 0 -1.59901e+06 1.52951e+06 0 -1.6009e+06 1.53399e+06 0 -1.60281e+06 1.53846e+06 0 -1.60472e+06 1.54293e+06 0 -1.60665e+06 1.5474e+06 0 -1.60859e+06 1.55187e+06 0 -1.61055e+06 1.55634e+06 0 -1.61251e+06 1.5608e+06 0 -1.61449e+06 1.56526e+06 0 -1.61649e+06 1.56972e+06 0 -1.42271e+06 1.00212e+06 0 -1.42388e+06 1.00653e+06 0 -1.42506e+06 1.01094e+06 0 -1.42624e+06 1.01535e+06 0 -1.42742e+06 1.01977e+06 0 -1.42861e+06 1.02419e+06 0 -1.42981e+06 1.02861e+06 0 -1.431e+06 1.03304e+06 0 -1.4322e+06 1.03747e+06 0 -1.43341e+06 1.0419e+06 0 -1.43462e+06 1.04633e+06 0 -1.43583e+06 1.05076e+06 0 -1.43705e+06 1.0552e+06 0 -1.43827e+06 1.05964e+06 0 -1.4395e+06 1.06409e+06 0 -1.44073e+06 1.06853e+06 0 -1.44196e+06 1.07298e+06 0 -1.4432e+06 1.07743e+06 0 -1.44445e+06 1.08188e+06 0 -1.44569e+06 1.08634e+06 0 -1.44695e+06 1.0908e+06 0 -1.4482e+06 1.09526e+06 0 -1.44946e+06 1.09972e+06 0 -1.45073e+06 1.10418e+06 0 -1.452e+06 1.10865e+06 0 -1.45327e+06 1.11312e+06 0 -1.45455e+06 1.11759e+06 0 -1.45583e+06 1.12207e+06 0 -1.45712e+06 1.12654e+06 0 -1.45841e+06 1.13102e+06 0 -1.4597e+06 1.1355e+06 0 -1.461e+06 1.13999e+06 0 -1.46231e+06 1.14447e+06 0 -1.46362e+06 1.14896e+06 0 -1.46493e+06 1.15345e+06 0 -1.46625e+06 1.15794e+06 0 -1.46757e+06 1.16243e+06 0 -1.4689e+06 1.16692e+06 0 -1.47023e+06 1.17142e+06 0 -1.47157e+06 1.17592e+06 0 -1.47291e+06 1.18042e+06 0 -1.47426e+06 1.18492e+06 0 -1.47561e+06 1.18943e+06 0 -1.47696e+06 1.19393e+06 0 -1.47832e+06 1.19844e+06 0 -1.47969e+06 1.20295e+06 0 -1.48106e+06 1.20746e+06 0 -1.48243e+06 1.21197e+06 0 -1.48381e+06 1.21648e+06 0 -1.4852e+06 1.221e+06 0 -1.48659e+06 1.22551e+06 0 -1.48798e+06 1.23003e+06 0 -1.48938e+06 1.23455e+06 0 -1.49079e+06 1.23907e+06 0 -1.4922e+06 1.24359e+06 0 -1.49361e+06 1.24812e+06 0 -1.49503e+06 1.25264e+06 0 -1.49646e+06 1.25717e+06 0 -1.49789e+06 1.2617e+06 0 -1.49933e+06 1.26622e+06 0 -1.50077e+06 1.27075e+06 0 -1.50222e+06 1.27528e+06 0 -1.50367e+06 1.27981e+06 0 -1.50513e+06 1.28435e+06 0 -1.5066e+06 1.28888e+06 0 -1.50807e+06 1.29341e+06 0 -1.50954e+06 1.29795e+06 0 -1.51103e+06 1.30248e+06 0 -1.51251e+06 1.30702e+06 0 -1.51401e+06 1.31155e+06 0 -1.51551e+06 1.31609e+06 0 -1.51701e+06 1.32063e+06 0 -1.51853e+06 1.32517e+06 0 -1.52005e+06 1.32971e+06 0 -1.52157e+06 1.33425e+06 0 -1.5231e+06 1.33879e+06 0 -1.52464e+06 1.34333e+06 0 -1.52618e+06 1.34787e+06 0 -1.52774e+06 1.35241e+06 0 -1.52929e+06 1.35695e+06 0 -1.53086e+06 1.36149e+06 0 -1.53243e+06 1.36603e+06 0 -1.53401e+06 1.37057e+06 0 -1.53559e+06 1.37511e+06 0 -1.53718e+06 1.37965e+06 0 -1.53878e+06 1.3842e+06 0 -1.54039e+06 1.38874e+06 0 -1.54201e+06 1.39328e+06 0 -1.54363e+06 1.39782e+06 0 -1.54526e+06 1.40236e+06 0 -1.54689e+06 1.4069e+06 0 -1.54854e+06 1.41144e+06 0 -1.55019e+06 1.41598e+06 0 -1.55185e+06 1.42052e+06 0 -1.55352e+06 1.42506e+06 0 -1.5552e+06 1.42959e+06 0 -1.55688e+06 1.43413e+06 0 -1.55858e+06 1.43867e+06 0 -1.56028e+06 1.4432e+06 0 -1.56199e+06 1.44774e+06 0 -1.56371e+06 1.45228e+06 0 -1.56544e+06 1.45681e+06 0 -1.56718e+06 1.46134e+06 0 -1.56893e+06 1.46587e+06 0 -1.57068e+06 1.47041e+06 0 -1.57245e+06 1.47494e+06 0 -1.57422e+06 1.47946e+06 0 -1.57601e+06 1.48399e+06 0 -1.5778e+06 1.48852e+06 0 -1.57961e+06 1.49305e+06 0 -1.58143e+06 1.49757e+06 0 -1.58325e+06 1.50209e+06 0 -1.58509e+06 1.50662e+06 0 -1.58693e+06 1.51114e+06 0 -1.58879e+06 1.51566e+06 0 -1.59066e+06 1.52017e+06 0 -1.59254e+06 1.52469e+06 0 -1.59443e+06 1.52921e+06 0 -1.59634e+06 1.53372e+06 0 -1.59825e+06 1.53823e+06 0 -1.60018e+06 1.54274e+06 0 -1.60211e+06 1.54725e+06 0 -1.60406e+06 1.55176e+06 0 -1.60603e+06 1.55626e+06 0 -1.608e+06 1.56077e+06 0 -1.60999e+06 1.56527e+06 0 -1.61199e+06 1.56977e+06 0 -1.61401e+06 1.57427e+06 0 -1.41883e+06 1.00237e+06 0 -1.42e+06 1.00681e+06 0 -1.42118e+06 1.01125e+06 0 -1.42237e+06 1.01569e+06 0 -1.42356e+06 1.02014e+06 0 -1.42475e+06 1.02459e+06 0 -1.42595e+06 1.02905e+06 0 -1.42715e+06 1.0335e+06 0 -1.42836e+06 1.03796e+06 0 -1.42957e+06 1.04242e+06 0 -1.43078e+06 1.04689e+06 0 -1.432e+06 1.05135e+06 0 -1.43322e+06 1.05582e+06 0 -1.43445e+06 1.06029e+06 0 -1.43568e+06 1.06477e+06 0 -1.43692e+06 1.06925e+06 0 -1.43816e+06 1.07372e+06 0 -1.4394e+06 1.07821e+06 0 -1.44065e+06 1.08269e+06 0 -1.4419e+06 1.08718e+06 0 -1.44316e+06 1.09167e+06 0 -1.44442e+06 1.09616e+06 0 -1.44569e+06 1.10065e+06 0 -1.44696e+06 1.10515e+06 0 -1.44824e+06 1.10965e+06 0 -1.44952e+06 1.11415e+06 0 -1.4508e+06 1.11866e+06 0 -1.45209e+06 1.12316e+06 0 -1.45338e+06 1.12767e+06 0 -1.45468e+06 1.13218e+06 0 -1.45598e+06 1.13669e+06 0 -1.45729e+06 1.14121e+06 0 -1.4586e+06 1.14573e+06 0 -1.45991e+06 1.15024e+06 0 -1.46123e+06 1.15477e+06 0 -1.46256e+06 1.15929e+06 0 -1.46389e+06 1.16381e+06 0 -1.46522e+06 1.16834e+06 0 -1.46656e+06 1.17287e+06 0 -1.46791e+06 1.1774e+06 0 -1.46926e+06 1.18193e+06 0 -1.47061e+06 1.18647e+06 0 -1.47197e+06 1.191e+06 0 -1.47333e+06 1.19554e+06 0 -1.4747e+06 1.20008e+06 0 -1.47607e+06 1.20462e+06 0 -1.47745e+06 1.20917e+06 0 -1.47883e+06 1.21371e+06 0 -1.48022e+06 1.21826e+06 0 -1.48161e+06 1.22281e+06 0 -1.48301e+06 1.22736e+06 0 -1.48441e+06 1.23191e+06 0 -1.48582e+06 1.23646e+06 0 -1.48724e+06 1.24101e+06 0 -1.48866e+06 1.24557e+06 0 -1.49008e+06 1.25013e+06 0 -1.49151e+06 1.25468e+06 0 -1.49295e+06 1.25924e+06 0 -1.49439e+06 1.2638e+06 0 -1.49583e+06 1.26836e+06 0 -1.49728e+06 1.27293e+06 0 -1.49874e+06 1.27749e+06 0 -1.50021e+06 1.28206e+06 0 -1.50167e+06 1.28662e+06 0 -1.50315e+06 1.29119e+06 0 -1.50463e+06 1.29576e+06 0 -1.50612e+06 1.30032e+06 0 -1.50761e+06 1.30489e+06 0 -1.50911e+06 1.30946e+06 0 -1.51061e+06 1.31403e+06 0 -1.51212e+06 1.3186e+06 0 -1.51364e+06 1.32318e+06 0 -1.51516e+06 1.32775e+06 0 -1.51669e+06 1.33232e+06 0 -1.51823e+06 1.3369e+06 0 -1.51977e+06 1.34147e+06 0 -1.52132e+06 1.34604e+06 0 -1.52288e+06 1.35062e+06 0 -1.52444e+06 1.35519e+06 0 -1.52601e+06 1.35977e+06 0 -1.52759e+06 1.36435e+06 0 -1.52917e+06 1.36892e+06 0 -1.53076e+06 1.3735e+06 0 -1.53236e+06 1.37807e+06 0 -1.53396e+06 1.38265e+06 0 -1.53557e+06 1.38722e+06 0 -1.53719e+06 1.3918e+06 0 -1.53882e+06 1.39638e+06 0 -1.54046e+06 1.40095e+06 0 -1.5421e+06 1.40553e+06 0 -1.54375e+06 1.4101e+06 0 -1.54541e+06 1.41468e+06 0 -1.54708e+06 1.41925e+06 0 -1.54875e+06 1.42383e+06 0 -1.55044e+06 1.4284e+06 0 -1.55213e+06 1.43298e+06 0 -1.55383e+06 1.43755e+06 0 -1.55554e+06 1.44212e+06 0 -1.55725e+06 1.44669e+06 0 -1.55898e+06 1.45126e+06 0 -1.56072e+06 1.45583e+06 0 -1.56246e+06 1.4604e+06 0 -1.56422e+06 1.46497e+06 0 -1.56598e+06 1.46954e+06 0 -1.56775e+06 1.47411e+06 0 -1.56953e+06 1.47867e+06 0 -1.57133e+06 1.48324e+06 0 -1.57313e+06 1.4878e+06 0 -1.57494e+06 1.49237e+06 0 -1.57677e+06 1.49693e+06 0 -1.5786e+06 1.50149e+06 0 -1.58044e+06 1.50605e+06 0 -1.5823e+06 1.51061e+06 0 -1.58416e+06 1.51517e+06 0 -1.58604e+06 1.51972e+06 0 -1.58793e+06 1.52428e+06 0 -1.58983e+06 1.52883e+06 0 -1.59174e+06 1.53339e+06 0 -1.59366e+06 1.53794e+06 0 -1.5956e+06 1.54249e+06 0 -1.59754e+06 1.54704e+06 0 -1.5995e+06 1.55158e+06 0 -1.60147e+06 1.55613e+06 0 -1.60346e+06 1.56067e+06 0 -1.60545e+06 1.56521e+06 0 -1.60746e+06 1.56975e+06 0 -1.60949e+06 1.57429e+06 0 -1.61152e+06 1.57883e+06 0 -1.41494e+06 1.00261e+06 0 -1.41612e+06 1.00708e+06 0 -1.4173e+06 1.01155e+06 0 -1.41849e+06 1.01603e+06 0 -1.41969e+06 1.02051e+06 0 -1.42089e+06 1.02499e+06 0 -1.42209e+06 1.02947e+06 0 -1.42329e+06 1.03396e+06 0 -1.4245e+06 1.03845e+06 0 -1.42572e+06 1.04294e+06 0 -1.42694e+06 1.04744e+06 0 -1.42816e+06 1.05194e+06 0 -1.42939e+06 1.05644e+06 0 -1.43062e+06 1.06094e+06 0 -1.43186e+06 1.06545e+06 0 -1.4331e+06 1.06996e+06 0 -1.43435e+06 1.07447e+06 0 -1.4356e+06 1.07898e+06 0 -1.43685e+06 1.0835e+06 0 -1.43811e+06 1.08802e+06 0 -1.43937e+06 1.09254e+06 0 -1.44064e+06 1.09706e+06 0 -1.44191e+06 1.10159e+06 0 -1.44319e+06 1.10612e+06 0 -1.44447e+06 1.11065e+06 0 -1.44576e+06 1.11518e+06 0 -1.44705e+06 1.11972e+06 0 -1.44834e+06 1.12426e+06 0 -1.44964e+06 1.1288e+06 0 -1.45095e+06 1.13334e+06 0 -1.45225e+06 1.13788e+06 0 -1.45357e+06 1.14243e+06 0 -1.45488e+06 1.14698e+06 0 -1.45621e+06 1.15153e+06 0 -1.45753e+06 1.15608e+06 0 -1.45887e+06 1.16064e+06 0 -1.4602e+06 1.1652e+06 0 -1.46154e+06 1.16976e+06 0 -1.46289e+06 1.17432e+06 0 -1.46424e+06 1.17888e+06 0 -1.4656e+06 1.18345e+06 0 -1.46696e+06 1.18802e+06 0 -1.46832e+06 1.19258e+06 0 -1.4697e+06 1.19716e+06 0 -1.47107e+06 1.20173e+06 0 -1.47245e+06 1.2063e+06 0 -1.47384e+06 1.21088e+06 0 -1.47523e+06 1.21546e+06 0 -1.47662e+06 1.22004e+06 0 -1.47803e+06 1.22462e+06 0 -1.47943e+06 1.2292e+06 0 -1.48084e+06 1.23378e+06 0 -1.48226e+06 1.23837e+06 0 -1.48368e+06 1.24296e+06 0 -1.48511e+06 1.24755e+06 0 -1.48654e+06 1.25214e+06 0 -1.48798e+06 1.25673e+06 0 -1.48943e+06 1.26132e+06 0 -1.49088e+06 1.26591e+06 0 -1.49233e+06 1.27051e+06 0 -1.49379e+06 1.2751e+06 0 -1.49526e+06 1.2797e+06 0 -1.49673e+06 1.2843e+06 0 -1.49821e+06 1.2889e+06 0 -1.4997e+06 1.2935e+06 0 -1.50119e+06 1.2981e+06 0 -1.50268e+06 1.3027e+06 0 -1.50419e+06 1.30731e+06 0 -1.5057e+06 1.31191e+06 0 -1.50721e+06 1.31651e+06 0 -1.50873e+06 1.32112e+06 0 -1.51026e+06 1.32573e+06 0 -1.51179e+06 1.33033e+06 0 -1.51333e+06 1.33494e+06 0 -1.51488e+06 1.33955e+06 0 -1.51644e+06 1.34416e+06 0 -1.518e+06 1.34877e+06 0 -1.51956e+06 1.35337e+06 0 -1.52114e+06 1.35798e+06 0 -1.52272e+06 1.36259e+06 0 -1.52431e+06 1.3672e+06 0 -1.5259e+06 1.37181e+06 0 -1.52751e+06 1.37643e+06 0 -1.52912e+06 1.38104e+06 0 -1.53074e+06 1.38565e+06 0 -1.53236e+06 1.39026e+06 0 -1.53399e+06 1.39487e+06 0 -1.53564e+06 1.39948e+06 0 -1.53728e+06 1.40409e+06 0 -1.53894e+06 1.4087e+06 0 -1.5406e+06 1.41331e+06 0 -1.54228e+06 1.41792e+06 0 -1.54396e+06 1.42253e+06 0 -1.54565e+06 1.42714e+06 0 -1.54735e+06 1.43175e+06 0 -1.54905e+06 1.43636e+06 0 -1.55077e+06 1.44097e+06 0 -1.55249e+06 1.44558e+06 0 -1.55422e+06 1.45019e+06 0 -1.55597e+06 1.45479e+06 0 -1.55772e+06 1.4594e+06 0 -1.55948e+06 1.46401e+06 0 -1.56125e+06 1.46861e+06 0 -1.56303e+06 1.47322e+06 0 -1.56482e+06 1.47782e+06 0 -1.56662e+06 1.48242e+06 0 -1.56843e+06 1.48702e+06 0 -1.57025e+06 1.49163e+06 0 -1.57208e+06 1.49623e+06 0 -1.57392e+06 1.50082e+06 0 -1.57577e+06 1.50542e+06 0 -1.57763e+06 1.51002e+06 0 -1.5795e+06 1.51462e+06 0 -1.58139e+06 1.51921e+06 0 -1.58328e+06 1.5238e+06 0 -1.58519e+06 1.5284e+06 0 -1.58711e+06 1.53299e+06 0 -1.58904e+06 1.53758e+06 0 -1.59098e+06 1.54217e+06 0 -1.59294e+06 1.54676e+06 0 -1.59491e+06 1.55134e+06 0 -1.59689e+06 1.55593e+06 0 -1.59888e+06 1.56051e+06 0 -1.60088e+06 1.56509e+06 0 -1.6029e+06 1.56967e+06 0 -1.60494e+06 1.57425e+06 0 -1.60698e+06 1.57883e+06 0 -1.60904e+06 1.58341e+06 0 -1.41105e+06 1.00285e+06 0 -1.41223e+06 1.00735e+06 0 -1.41342e+06 1.01186e+06 0 -1.41462e+06 1.01636e+06 0 -1.41582e+06 1.02087e+06 0 -1.41702e+06 1.02539e+06 0 -1.41823e+06 1.0299e+06 0 -1.41944e+06 1.03442e+06 0 -1.42065e+06 1.03894e+06 0 -1.42187e+06 1.04346e+06 0 -1.4231e+06 1.04799e+06 0 -1.42432e+06 1.05252e+06 0 -1.42556e+06 1.05705e+06 0 -1.4268e+06 1.06159e+06 0 -1.42804e+06 1.06613e+06 0 -1.42928e+06 1.07067e+06 0 -1.43054e+06 1.07521e+06 0 -1.43179e+06 1.07975e+06 0 -1.43305e+06 1.0843e+06 0 -1.43431e+06 1.08885e+06 0 -1.43558e+06 1.09341e+06 0 -1.43686e+06 1.09796e+06 0 -1.43813e+06 1.10252e+06 0 -1.43942e+06 1.10708e+06 0 -1.4407e+06 1.11164e+06 0 -1.442e+06 1.11621e+06 0 -1.44329e+06 1.12078e+06 0 -1.44459e+06 1.12535e+06 0 -1.4459e+06 1.12992e+06 0 -1.44721e+06 1.13449e+06 0 -1.44852e+06 1.13907e+06 0 -1.44984e+06 1.14365e+06 0 -1.45117e+06 1.14823e+06 0 -1.4525e+06 1.15282e+06 0 -1.45383e+06 1.1574e+06 0 -1.45517e+06 1.16199e+06 0 -1.45651e+06 1.16658e+06 0 -1.45786e+06 1.17117e+06 0 -1.45922e+06 1.17577e+06 0 -1.46057e+06 1.18036e+06 0 -1.46194e+06 1.18496e+06 0 -1.4633e+06 1.18956e+06 0 -1.46468e+06 1.19416e+06 0 -1.46606e+06 1.19877e+06 0 -1.46744e+06 1.20337e+06 0 -1.46883e+06 1.20798e+06 0 -1.47022e+06 1.21259e+06 0 -1.47162e+06 1.2172e+06 0 -1.47303e+06 1.22181e+06 0 -1.47443e+06 1.22643e+06 0 -1.47585e+06 1.23104e+06 0 -1.47727e+06 1.23566e+06 0 -1.47869e+06 1.24028e+06 0 -1.48013e+06 1.2449e+06 0 -1.48156e+06 1.24952e+06 0 -1.483e+06 1.25415e+06 0 -1.48445e+06 1.25877e+06 0 -1.48591e+06 1.2634e+06 0 -1.48736e+06 1.26802e+06 0 -1.48883e+06 1.27265e+06 0 -1.4903e+06 1.27728e+06 0 -1.49178e+06 1.28191e+06 0 -1.49326e+06 1.28654e+06 0 -1.49475e+06 1.29118e+06 0 -1.49624e+06 1.29581e+06 0 -1.49774e+06 1.30045e+06 0 -1.49925e+06 1.30508e+06 0 -1.50076e+06 1.30972e+06 0 -1.50228e+06 1.31436e+06 0 -1.50381e+06 1.319e+06 0 -1.50534e+06 1.32364e+06 0 -1.50688e+06 1.32828e+06 0 -1.50842e+06 1.33292e+06 0 -1.50997e+06 1.33756e+06 0 -1.51153e+06 1.3422e+06 0 -1.5131e+06 1.34685e+06 0 -1.51467e+06 1.35149e+06 0 -1.51625e+06 1.35613e+06 0 -1.51783e+06 1.36078e+06 0 -1.51943e+06 1.36542e+06 0 -1.52103e+06 1.37007e+06 0 -1.52264e+06 1.37471e+06 0 -1.52425e+06 1.37936e+06 0 -1.52587e+06 1.384e+06 0 -1.52751e+06 1.38865e+06 0 -1.52914e+06 1.3933e+06 0 -1.53079e+06 1.39794e+06 0 -1.53244e+