<?xml version="1.0"?> 
<VTKFile type="StructuredGrid" version="0.1"> 
<StructuredGrid WholeExtent="0 127 0 127 0 0"> 
<Piece Extent="0 127 0 127 0 0"> 
<PointData>
<DataArray type="Float32" Name="|E|" format="ascii" NumberOfComponents="3"> 
773622 530945 0 766305 526239 0 759081 521542 0 751947 516854 0 744904 512176 0 737950 507506 0 731084 502847 0 724305 498197 0 717612 493558 0 711003 488929 0 704479 484311 0 698038 479703 0 691679 475106 0 685401 470520 0 679203 465945 0 673085 461382 0 667045 456829 0 661082 452288 0 655197 447759 0 649387 443241 0 643652 438734 0 637992 434240 0 632405 429756 0 626891 425285 0 621449 420825 0 616079 416377 0 610778 411940 0 605547 407515 0 600386 403102 0 595292 398701 0 590267 394311 0 585308 389932 0 580415 385565 0 575588 381210 0 570826 376865 0 566128 372533 0 561493 368211 0 556922 363900 0 552413 359601 0 547965 355312 0 543579 351035 0 539254 346768 0 534988 342512 0 530782 338266 0 526634 334031 0 522545 329806 0 518514 325592 0 514539 321387 0 510622 317192 0 506760 313007 0 502954 308832 0 499203 304666 0 495506 300509 0 491864 296362 0 488275 292224 0 484739 288094 0 481256 283973 0 477825 279861 0 474445 275757 0 471117 271661 0 467839 267573 0 464612 263493 0 461434 259420 0 458306 255355 0 455227 251297 0 452196 247246 0 449213 243202 0 446279 239165 0 443391 235134 0 440550 231109 0 437756 227090 0 435008 223077 0 432305 219069 0 429648 215067 0 427036 211070 0 424469 207078 0 421945 203091 0 419466 199108 0 417030 195129 0 414637 191154 0 412287 187183 0 409979 183216 0 407714 179251 0 405490 175290 0 403308 171332 0 401167 167376 0 399066 163423 0 397007 159471 0 394987 155521 0 393007 151573 0 391067 147627 0 389166 143681 0 387304 139736 0 385481 135791 0 383697 131847 0 381950 127903 0 380241 123959 0 378570 120014 0 376936 116068 0 375340 112121 0 373780 108173 0 372256 104223 0 370769 100271 0 369318 96317 0 367903 92360.5 0 366523 88401.2 0 365179 84438.9 0 363869 80473.3 0 362595 76504.1 0 361355 72530.9 0 360149 68553.5 0 358978 64571.7 0 357840 60585 0 356737 56593.2 0 355667 52596 0 354630 48593.1 0 353626 44584.2 0 352655 40569 0 351717 36547.1 0 350811 32518.3 0 349938 28482.2 0 349097 24438.6 0 348288 20387.1 0 347510 16327.4 0 346765 12259.1 0 346050 8182.04 0 345367 4095.77 0 344715 0 0 771662 533249 0 764355 528508 0 757141 523776 0 750018 519054 0 742985 514341 0 736041 509639 0 729185 504946 0 722416 500264 0 715734 495593 0 709136 490932 0 702622 486283 0 696191 481644 0 689842 477017 0 683574 472401 0 677386 467797 0 671278 463204 0 665248 458623 0 659296 454054 0 653421 449496 0 647621 444950 0 641897 440417 0 636246 435895 0 630669 431385 0 625165 426887 0 619733 422401 0 614372 417927 0 609081 413466 0 603860 409016 0 598708 404578 0 593624 400152 0 588608 395738 0 583659 391336 0 578775 386945 0 573957 382566 0 569204 378199 0 564516 373844 0 559890 369500 0 555328 365167 0 550828 360846 0 546389 356536 0 542012 352237 0 537695 347949 0 533438 343672 0 529240 339406 0 525101 335150 0 521020 330905 0 516997 326671 0 513031 322446 0 509122 318232 0 505268 314028 0 501470 309834 0 497727 305649 0 494038 301474 0 490403 297308 0 486822 293152 0 483294 289004 0 479818 284866 0 476394 280736 0 473022 276614 0 469701 272501 0 466430 268396 0 463210 264300 0 460039 260210 0 456918 256129 0 453845 252055 0 450821 247988 0 447845 243928 0 444917 239875 0 442035 235828 0 439201 231788 0 436413 227754 0 433671 223726 0 430974 219703 0 428323 215686 0 425717 211675 0 423155 207668 0 420637 203666 0 418163 199669 0 415733 195676 0 413345 191688 0 411001 187703 0 408698 183722 0 406438 179744 0 404219 175770 0 402042 171798 0 399905 167829 0 397810 163863 0 395755 159899 0 393740 155936 0 391764 151976 0 389828 148016 0 387932 144058 0 386074 140101 0 384255 136145 0 382474 132189 0 380732 128232 0 379027 124276 0 377359 120320 0 375729 116362 0 374136 112404 0 372579 108444 0 371059 104483 0 369575 100520 0 368127 96555.4 0 366715 92588 0 365338 88617.9 0 363997 84644.9 0 362690 80668.6 0 361418 76688.8 0 360181 72705.2 0 358978 68717.5 0 357809 64725.3 0 356674 60728.4 0 355573 56726.5 0 354505 52719.3 0 353470 48706.5 0 352468 44687.7 0 351499 40662.7 0 350563 36631.1 0 349659 32592.7 0 348787 28547.1 0 347948 24494 0 347140 20433.1 0 346364 16364 0 345619 12286.5 0 344906 8200.22 0 344224 4104.83 0 343573 0 0 769691 535550 0 762395 530773 0 755191 526007 0 748078 521250 0 741056 516503 0 734122 511767 0 727277 507042 0 720519 502328 0 713846 497624 0 707259 492932 0 700755 488251 0 694335 483582 0 687996 478924 0 681739 474279 0 675561 469645 0 669464 465023 0 663444 460413 0 657502 455815 0 651637 451230 0 645847 446656 0 640133 442095 0 634493 437546 0 628926 433010 0 623432 428486 0 618010 423974 0 612658 419475 0 607378 414988 0 602166 410513 0 597024 406050 0 591950 401600 0 586943 397162 0 582003 392736 0 577129 388322 0 572321 383920 0 567577 379530 0 562897 375152 0 558281 370786 0 553728 366431 0 549237 362088 0 544807 357756 0 540439 353436 0 536131 349127 0 531882 344829 0 527693 340543 0 523563 336267 0 519490 332002 0 515476 327747 0 511518 323503 0 507616 319270 0 503771 315047 0 499981 310833 0 496246 306630 0 492565 302436 0 488938 298252 0 485364 294078 0 481844 289912 0 478375 285756 0 474959 281609 0 471594 277470 0 468280 273340 0 465017 269218 0 461803 265104 0 458640 260999 0 455525 256901 0 452459 252810 0 449442 248727 0 446473 244651 0 443551 240583 0 440676 236520 0 437848 232465 0 435066 228416 0 432330 224372 0 429640 220335 0 426994 216304 0 424394 212277 0 421838 208256 0 419326 204240 0 416857 200229 0 414432 196222 0 412050 192220 0 409711 188221 0 407414 184227 0 405158 180236 0 402945 176248 0 400772 172263 0 398641 168281 0 396550 164302 0 394499 160325 0 392489 156350 0 390518 152377 0 388587 148405 0 386694 144435 0 384841 140466 0 383026 136497 0 381249 132529 0 379510 128561 0 377809 124593 0 376145 120625 0 374519 116656 0 372929 112686 0 371376 108715 0 369859 104743 0 368379 100769 0 366934 96793.1 0 365525 92814.8 0 364151 88833.9 0 362812 84850.2 0 361509 80863.3 0 360239 76873 0 359005 72879 0 357804 68880.9 0 356638 64878.5 0 355505 60871.5 0 354406 56859.5 0 353340 52842.3 0 352307 48819.5 0 351308 44790.9 0 350341 40756.1 0 349406 36714.9 0 348504 32666.9 0 347634 28611.7 0 346796 24549.2 0 345990 20478.9 0 345215 16400.5 0 344472 12313.8 0 343760 8218.35 0 343079 4113.86 0 342429 0 0 767710 537846 0 760424 533034 0 753231 528233 0 746129 523442 0 739117 518661 0 732194 513892 0 725359 509134 0 718612 504387 0 711950 499651 0 705373 494928 0 698880 490216 0 692470 485516 0 686142 480828 0 679895 476152 0 673728 471489 0 667641 466838 0 661632 462199 0 655700 457573 0 649845 452960 0 644066 448359 0 638362 443770 0 632732 439195 0 627175 434632 0 621691 430081 0 616279 425544 0 610938 421019 0 605667 416506 0 600465 412007 0 595333 407520 0 590268 403045 0 585271 398583 0 580341 394133 0 575477 389696 0 570678 385271 0 565943 380858 0 561273 376457 0 556666 372069 0 552122 367692 0 547640 363327 0 543219 358974 0 538860 354632 0 534561 350303 0 530321 345984 0 526141 341677 0 522019 337381 0 517955 333096 0 513949 328821 0 509999 324558 0 506106 320305 0 502269 316062 0 498487 311830 0 494760 307608 0 491087 303396 0 487467 299194 0 483902 295001 0 480389 290818 0 476928 286644 0 473519 282479 0 470161 278323 0 466855 274176 0 463599 270037 0 460392 265907 0 457236 261785 0 454128 257670 0 451069 253564 0 448059 249465 0 445096 245373 0 442181 241289 0 439312 237211 0 436490 233140 0 433715 229076 0 430985 225018 0 428301 220965 0 425662 216919 0 423067 212878 0 420517 208843 0 418011 204813 0 415548 200787 0 413128 196767 0 410752 192750 0 408417 188738 0 406125 184730 0 403875 180726 0 401667 176725 0 399499 172727 0 397373 168732 0 395287 164740 0 393241 160750 0 391235 156762 0 389268 152777 0 387341 148793 0 385453 144810 0 383604 140829 0 381793 136848 0 380021 132868 0 378286 128889 0 376589 124909 0 374929 120929 0 373306 116949 0 371720 112968 0 370170 108986 0 368657 105002 0 367179 101017 0 365738 97030.1 0 364332 93041 0 362961 89049.3 0 361625 85054.9 0 360324 81057.5 0 359058 77056.7 0 357826 73052.3 0 356628 69043.9 0 355464 65031.2 0 354333 61014.1 0 353236 56992 0 352173 52964.9 0 351142 48932.2 0 350145 44893.8 0 349179 40849.3 0 348247 36798.4 0 347346 32740.8 0 346478 28676.2 0 345641 24604.2 0 344837 20524.6 0 344063 16437 0 343321 12341 0 342611 8236.42 0 341931 4122.86 0 341282 0 0 765718 540138 0 758443 535291 0 751260 530455 0 744169 525630 0 737168 520815 0 730256 516013 0 723432 511221 0 716695 506442 0 710044 501675 0 703478 496919 0 696995 492176 0 690596 487446 0 684279 482728 0 678043 478022 0 671886 473329 0 665810 468649 0 659811 463982 0 653890 459327 0 648046 454686 0 642277 450057 0 636583 445442 0 630963 440839 0 625417 436250 0 619943 431673 0 614541 427110 0 609210 422559 0 603949 418022 0 598758 413497 0 593635 408985 0 588580 404487 0 583593 400000 0 578672 395527 0 573818 391066 0 569028 386618 0 564303 382183 0 559642 377759 0 555045 373348 0 550510 368950 0 546037 364563 0 541626 360189 0 537275 355826 0 532985 351475 0 528754 347136 0 524582 342808 0 520469 338492 0 516414 334187 0 512416 329893 0 508475 325610 0 504590 321337 0 500761 317076 0 496988 312825 0 493268 308584 0 489604 304354 0 485992 300133 0 482434 295922 0 478929 291721 0 475476 287530 0 472074 283347 0 468724 279174 0 465425 275010 0 462176 270854 0 458977 266707 0 455827 262569 0 452727 258438 0 449675 254315 0 446671 250200 0 443715 246093 0 440806 241993 0 437944 237900 0 435129 233814 0 432360 229734 0 429636 225661 0 426958 221594 0 424325 217533 0 421736 213478 0 419192 209428 0 416691 205384 0 414234 201344 0 411820 197310 0 409449 193280 0 407120 189254 0 404834 185232 0 402589 181214 0 400385 177200 0 398223 173189 0 396101 169181 0 394020 165176 0 391979 161174 0 389977 157174 0 388016 153176 0 386093 149179 0 384209 145185 0 382364 141191 0 380558 137198 0 378789 133207 0 377058 129215 0 375365 125224 0 373709 121233 0 372089 117241 0 370507 113248 0 368961 109255 0 367451 105260 0 365977 101264 0 364538 97266.5 0 363136 93266.5 0 361768 89264.1 0 360435 85259.1 0 359137 81251.1 0 357873 77239.8 0 356644 73225 0 355449 69206.4 0 354287 65183.6 0 353159 61156.3 0 352064 57124.2 0 351003 53087.1 0 349975 49044.6 0 348979 44996.4 0 348016 40942.2 0 347085 36881.7 0 346186 32814.6 0 345319 28740.5 0 344485 24659.1 0 343681 20570.1 0 342909 16473.3 0 342169 12368.1 0 341459 8254.44 0 340780 4131.84 0 340132 0 0 763716 542427 0 756452 537544 0 749280 532673 0 742200 527813 0 735210 522965 0 728308 518129 0 721495 513305 0 714769 508493 0 708129 503694 0 701574 498907 0 695102 494133 0 688714 489372 0 682407 484623 0 676182 479888 0 670036 475166 0 663970 470457 0 657982 465761 0 652072 461078 0 646238 456408 0 640480 451752 0 634797 447110 0 629187 442480 0 623651 437864 0 618188 433262 0 612796 428672 0 607475 424096 0 602224 419534 0 597043 414984 0 591930 410448 0 586885 405925 0 581908 401415 0 576997 396918 0 572152 392434 0 567372 387963 0 562657 383504 0 558006 379058 0 553418 374625 0 548892 370205 0 544428 365796 0 540026 361400 0 535685 357016 0 531403 352645 0 527182 348285 0 523019 343937 0 518914 339600 0 514868 335275 0 510879 330961 0 506946 326659 0 503070 322367 0 499249 318087 0 495483 313817 0 491772 309557 0 488116 305309 0 484512 301070 0 480962 296841 0 477465 292622 0 474019 288413 0 470625 284213 0 467283 280023 0 463991 275842 0 460749 271669 0 457557 267506 0 454415 263351 0 451321 259204 0 448276 255065 0 445279 250934 0 442330 246811 0 439428 242695 0 436573 238587 0 433764 234485 0 431001 230391 0 428284 226303 0 425612 222221 0 422985 218145 0 420402 214076 0 417864 210012 0 415369 205953 0 412917 201900 0 410509 197851 0 408143 193807 0 405820 189768 0 403539 185733 0 401299 181702 0 399100 177674 0 396943 173650 0 394826 169630 0 392750 165612 0 390713 161597 0 388717 157584 0 386760 153574 0 384842 149565 0 382962 145558 0 381121 141552 0 379319 137548 0 377554 133544 0 375827 129541 0 374138 125538 0 372486 121535 0 370870 117532 0 369291 113528 0 367749 109524 0 366242 105518 0 364771 101511 0 363336 97502.1 0 361937 93491.3 0 360572 89478.3 0 359242 85462.6 0 357947 81444.1 0 356686 77422.4 0 355459 73397.3 0 354267 69368.4 0 353108 65335.4 0 351982 61298 0 350890 57256 0 349831 53209 0 348804 49156.7 0 347810 45098.7 0 346849 41034.9 0 345920 36964.8 0 345023 32888.1 0 344158 28804.6 0 343325 24713.8 0 342523 20615.6 0 341753 16509.5 0 341014 12395.2 0 340305 8272.4 0 339628 4140.79 0 338981 0 0 761703 544711 0 754450 539793 0 747290 534887 0 740220 529993 0 733241 525111 0 726351 520242 0 719549 515385 0 712834 510541 0 706205 505709 0 699661 500891 0 693200 496086 0 686823 491294 0 680527 486515 0 674313 481750 0 668178 476998 0 662123 472260 0 656146 467536 0 650246 462825 0 644423 458127 0 638675 453444 0 633003 448774 0 627404 444118 0 621878 439475 0 616425 434847 0 611044 430232 0 605733 425630 0 600493 421042 0 595321 416468 0 590219 411907 0 585184 407360 0 580217 402826 0 575316 398305 0 570480 393798 0 565710 389304 0 561005 384823 0 556363 380354 0 551784 375899 0 547268 371456 0 542814 367027 0 538421 362609 0 534089 358204 0 529816 353811 0 525604 349431 0 521450 345062 0 517354 340706 0 513316 336361 0 509336 332027 0 505412 327705 0 501544 323395 0 497731 319095 0 493974 314806 0 490271 310528 0 486623 306261 0 483027 302004 0 479485 297757 0 475995 293521 0 472558 289294 0 469172 285077 0 465837 280870 0 462552 276671 0 459318 272482 0 456133 268302 0 452998 264130 0 449912 259967 0 446874 255813 0 443883 251666 0 440941 247527 0 438046 243396 0 435197 239272 0 432395 235155 0 429638 231046 0 426927 226943 0 424261 222846 0 421640 218756 0 419064 214672 0 416531 210594 0 414042 206521 0 411597 202453 0 409194 198391 0 406834 194334 0 404516 190281 0 402240 186232 0 400005 182188 0 397812 178147 0 395660 174110 0 393548 170077 0 391477 166046 0 389445 162018 0 387453 157993 0 385500 153970 0 383587 149949 0 381712 145930 0 379875 141912 0 378077 137896 0 376317 133880 0 374594 129866 0 372908 125851 0 371260 121837 0 369648 117822 0 368073 113807 0 366534 109792 0 365031 105775 0 363563 101757 0 362131 97737.1 0 360735 93715.5 0 359373 89691.8 0 358046 85665.6 0 356754 81636.6 0 355496 77604.5 0 354272 73569.1 0 353082 69529.9 0 351925 65486.8 0 350802 61439.4 0 349712 57387.4 0 348655 53330.5 0 347631 49268.4 0 346640 45200.7 0 345680 41127.2 0 344753 37047.5 0 343858 32961.4 0 342995 28868.4 0 342163 24768.4 0 341363 20660.9 0 340594 16545.6 0 339856 12422.2 0 339149 8290.31 0 338472 4149.71 0 337827 0 0 759680 546990 0 752438 542037 0 745289 537097 0 738231 532168 0 731263 527253 0 724384 522350 0 717593 517460 0 710890 512584 0 704272 507721 0 697739 502871 0 691289 498035 0 684923 493212 0 678638 488403 0 672435 483608 0 666311 478827 0 660267 474060 0 654301 469307 0 648412 464568 0 642600 459843 0 636863 455132 0 631201 450435 0 625613 445752 0 620098 441083 0 614655 436428 0 609284 431787 0 603984 427160 0 598754 422547 0 593593 417948 0 588501 413363 0 583476 408792 0 578519 404234 0 573628 399690 0 568802 395159 0 564042 390642 0 559346 386138 0 554714 381647 0 550145 377170 0 545638 372705 0 541193 368254 0 536810 363815 0 532487 359389 0 528224 354975 0 524020 350574 0 519875 346185 0 515788 341808 0 511759 337443 0 507787 333090 0 503872 328749 0 500013 324419 0 496209 320101 0 492460 315793 0 488765 311497 0 485125 307211 0 481538 302936 0 478003 298672 0 474522 294417 0 471092 290173 0 467713 285939 0 464386 281714 0 461109 277499 0 457882 273293 0 454705 269096 0 451577 264908 0 448498 260729 0 445466 256558 0 442483 252396 0 439548 248241 0 436659 244094 0 433817 239955 0 431021 235823 0 428271 231699 0 425567 227581 0 422907 223470 0 420292 219365 0 417722 215266 0 415195 211174 0 412712 207087 0 410272 203006 0 407875 198930 0 405521 194858 0 403208 190792 0 400938 186730 0 398709 182672 0 396520 178619 0 394373 174569 0 392266 170522 0 390200 166479 0 388173 162439 0 386186 158401 0 384238 154366 0 382329 150333 0 380458 146301 0 378626 142272 0 376832 138243 0 375076 134216 0 373357 130189 0 371675 126163 0 370031 122138 0 368423 118112 0 366851 114086 0 365316 110059 0 363816 106031 0 362352 102002 0 360924 97971.4 0 359530 93939.1 0 358172 89904.7 0 356848 85867.9 0 355558 81828.5 0 354303 77786 0 353082 73740.3 0 351895 69691 0 350741 65637.8 0 349620 61580.3 0 348532 57518.4 0 347478 53451.6 0 346456 49379.7 0 345466 45302.4 0 344509 41219.3 0 343584 37130.1 0 342690 33034.5 0 341829 28932.1 0 340999 24822.8 0 340200 20706 0 339432 16581.5 0 338696 12449 0 337990 8308.17 0 337315 4158.6 0 336670 0 0 757646 549266 0 750416 544278 0 743278 539302 0 736232 534340 0 729275 529390 0 722408 524454 0 715628 519532 0 708936 514623 0 702329 509728 0 695807 504847 0 689369 499980 0 683014 495126 0 676741 490287 0 670549 485463 0 664436 480652 0 658403 475856 0 652448 471074 0 646570 466307 0 640769 461554 0 635043 456816 0 629392 452091 0 623814 447382 0 618310 442687 0 612878 438006 0 607518 433339 0 602228 428687 0 597008 424049 0 591858 419425 0 586776 414815 0 581761 410220 0 576814 405638 0 571933 401070 0 567118 396517 0 562367 391976 0 557681 387450 0 553059 382937 0 548500 378437 0 544002 373951 0 539567 369478 0 535193 365018 0 530879 360571 0 526625 356136 0 522431 351714 0 518295 347305 0 514217 342908 0 510197 338524 0 506234 334151 0 502327 329790 0 498477 325441 0 494681 321104 0 490941 316778 0 487255 312463 0 483622 308159 0 480043 303866 0 476517 299583 0 473043 295311 0 469621 291049 0 466250 286798 0 462931 282556 0 459661 278324 0 456442 274101 0 453272 269888 0 450151 265684 0 447079 261488 0 444055 257302 0 441079 253123 0 438150 248953 0 435268 244791 0 432433 240636 0 429644 236489 0 426900 232350 0 424202 228217 0 421549 224091 0 418941 219972 0 416376 215859 0 413856 211753 0 411378 207652 0 408944 203556 0 406553 199467 0 404204 195382 0 401897 191302 0 399632 187227 0 397408 183156 0 395225 179089 0 393083 175026 0 390982 170967 0 388920 166911 0 386898 162858 0 384915 158808 0 382972 154760 0 381068 150715 0 379202 146671 0 377374 142630 0 375584 138589 0 373832 134550 0 372117 130512 0 370440 126475 0 368799 122438 0 367195 118400 0 365627 114363 0 364095 110325 0 362599 106286 0 361138 102246 0 359713 98205 0 358323 94162 0 356967 90117 0 355647 86069.7 0 354360 82019.8 0 353108 77967 0 351889 73911 0 350704 69851.5 0 349553 65788.3 0 348435 61720.8 0 347350 57649 0 346297 53572.4 0 345278 49490.8 0 344290 45403.8 0 343335 41311.1 0 342412 37212.4 0 341520 33107.3 0 340660 28995.6 0 339832 24877 0 339035 20751 0 338269 16617.4 0 337533 12475.8 0 336829 8325.97 0 336155 4167.47 0 335511 0 0 755602 551537 0 748384 546513 0 741257 541503 0 734222 536507 0 727277 531524 0 720422 526554 0 713654 521599 0 706973 516658 0 700378 511731 0 693867 506818 0 687441 501920 0 681097 497037 0 674835 492167 0 668654 487313 0 662553 482473 0 656531 477648 0 650587 472838 0 644720 468042 0 638930 463262 0 633215 458496 0 627575 453745 0 622008 449008 0 616515 444287 0 611094 439580 0 605744 434888 0 600465 430210 0 595256 425547 0 590116 420898 0 585044 416264 0 580040 411645 0 575103 407039 0 570232 402448 0 565427 397871 0 560686 393308 0 556010 388759 0 551398 384223 0 546848 379702 0 542361 375194 0 537935 370699 0 533570 366218 0 529266 361749 0 525021 357294 0 520836 352852 0 516709 348422 0 512641 344006 0 508630 339601 0 504675 335209 0 500777 330829 0 496935 326461 0 493149 322104 0 489417 317759 0 485739 313426 0 482115 309104 0 478544 304793 0 475026 300492 0 471560 296203 0 468146 291924 0 464783 287655 0 461471 283396 0 458209 279147 0 454997 274908 0 451835 270678 0 448721 266457 0 445657 262246 0 442640 258043 0 439671 253849 0 436749 249663 0 433874 245485 0 431045 241316 0 428263 237154 0 425526 232999 0 422834 228852 0 420187 224711 0 417585 220578 0 415027 216450 0 412512 212330 0 410041 208215 0 407613 204106 0 405227 200002 0 402884 195904 0 400583 191810 0 398323 187722 0 396104 183638 0 393927 179558 0 391790 175482 0 389693 171410 0 387637 167341 0 385619 163276 0 383642 159213 0 381703 155153 0 379803 151096 0 377942 147040 0 376118 142987 0 374333 138935 0 372585 134884 0 370874 130834 0 369201 126785 0 367564 122737 0 365963 118688 0 364399 114639 0 362871 110590 0 361378 106541 0 359921 102490 0 358499 98437.8 0 357113 94384.2 0 355760 90328.6 0 354443 86270.8 0 353159 82210.5 0 351910 78147.4 0 350694 74081.2 0 349512 70011.6 0 348363 65938.3 0 347247 61860.9 0 346164 57779.2 0 345114 53692.8 0 344097 49601.5 0 343111 45504.8 0 342158 41402.6 0 341237 37294.4 0 340347 33180 0 339489 29059 0 338663 24931 0 337867 20795.9 0 337102 16653.2 0 336368 12502.6 0 335665 8343.72 0 334992 4176.31 0 334350 0 0 753548 553804 0 746341 548745 0 739226 543700 0 732203 538669 0 725270 533653 0 718426 528650 0 711670 523662 0 705000 518689 0 698417 513730 0 691918 508786 0 685503 503857 0 679171 498943 0 672921 494044 0 666751 489159 0 660661 484290 0 654651 479436 0 648718 474598 0 642863 469774 0 637083 464966 0 631380 460172 0 625750 455394 0 620195 450631 0 614713 445883 0 609302 441150 0 603963 436432 0 598695 431729 0 593496 427041 0 588367 422368 0 583306 417710 0 578312 413066 0 573385 408437 0 568525 403822 0 563730 399222 0 558999 394636 0 554333 390064 0 549731 385507 0 545191 380963 0 540713 376433 0 536297 371917 0 531942 367414 0 527647 362925 0 523412 358449 0 519236 353987 0 515118 349537 0 511059 345100 0 507057 340676 0 503111 336264 0 499222 331864 0 495389 327477 0 491611 323102 0 487887 318738 0 484218 314387 0 480602 310046 0 477040 305717 0 473530 301399 0 470072 297092 0 466666 292795 0 463311 288509 0 460007 284234 0 456753 279968 0 453548 275712 0 450393 271466 0 447287 267229 0 444230 263001 0 441220 258783 0 438258 254573 0 435343 250371 0 432475 246178 0 429653 241993 0 426877 237816 0 424147 233647 0 421462 229485 0 418822 225330 0 416225 221181 0 413673 217040 0 411165 212905 0 408700 208776 0 406277 204653 0 403898 200536 0 401560 196424 0 399264 192317 0 397010 188215 0 394797 184118 0 392625 180025 0 390493 175937 0 388402 171852 0 386350 167770 0 384338 163692 0 382365 159617 0 380431 155545 0 378536 151476 0 376679 147408 0 374860 143343 0 373079 139279 0 371335 135216 0 369628 131155 0 367959 127095 0 366326 123035 0 364729 118975 0 363169 114915 0 361644 110855 0 360155 106794 0 358702 102733 0 357283 98670 0 355900 94605.7 0 354550 90539.6 0 353236 86471.3 0 351955 82400.7 0 350709 78327.3 0 349496 74250.9 0 348316 70171.2 0 347170 66087.9 0 346057 62000.6 0 344977 57909 0 343929 53812.9 0 342913 49711.8 0 341930 45605.6 0 340979 41493.8 0 340060 37376.2 0 339172 33252.4 0 338316 29122.1 0 337491 24984.9 0 336697 20840.6 0 335933 16688.8 0 335201 12529.2 0 334499 8361.41 0 333827 4185.12 0 333186 0 0 751483 556066 0 744288 550972 0 737185 545893 0 730174 540828 0 723253 535777 0 716421 530742 0 709676 525721 0 703019 520715 0 696447 515725 0 689960 510749 0 683557 505789 0 677237 500845 0 670998 495915 0 664840 491002 0 658762 486103 0 652762 481221 0 646841 476353 0 640997 471502 0 635229 466665 0 629537 461845 0 623919 457040 0 618374 452250 0 612903 447476 0 607503 442717 0 602175 437974 0 596918 433245 0 591730 428532 0 586611 423835 0 581560 419152 0 576577 414484 0 571661 409831 0 566811 405193 0 562026 400570 0 557306 395961 0 552650 391367 0 548057 386787 0 543527 382221 0 539060 377670 0 534653 373132 0 530308 368608 0 526022 364098 0 521797 359602 0 517630 355118 0 513522 350648 0 509472 346191 0 505478 341747 0 501542 337316 0 497662 332898 0 493838 328491 0 490068 324097 0 486353 319715 0 482692 315345 0 479085 310986 0 475531 306639 0 472029 302303 0 468580 297979 0 465181 293665 0 461834 289362 0 458538 285069 0 455292 280786 0 452095 276514 0 448948 272251 0 445849 267998 0 442799 263754 0 439796 259520 0 436841 255294 0 433934 251077 0 431072 246869 0 428257 242669 0 425488 238477 0 422765 234292 0 420086 230116 0 417452 225946 0 414862 221784 0 412316 217628 0 409814 213479 0 407355 209336 0 404939 205199 0 402565 201068 0 400233 196943 0 397943 192823 0 395694 188707 0 393486 184597 0 391320 180491 0 389193 176390 0 387107 172292 0 385060 168198 0 383053 164108 0 381085 160021 0 379156 155936 0 377265 151854 0 375412 147775 0 373598 143698 0 371821 139622 0 370082 135548 0 368379 131475 0 366714 127403 0 365085 123332 0 363492 119261 0 361936 115190 0 360415 111119 0 358929 107047 0 357479 102975 0 356064 98901.5 0 354684 94826.6 0 353338 90749.9 0 352026 86671.3 0 350749 82590.3 0 349505 78506.7 0 348295 74420.1 0 347118 70330.3 0 345975 66237 0 344864 62139.8 0 343786 58038.4 0 342741 53932.6 0 341728 49821.9 0 340747 45706 0 339798 41584.8 0 338880 37457.7 0 337994 33324.6 0 337140 29185 0 336316 25038.6 0 335524 20885.2 0 334762 16724.4 0 334031 12555.7 0 333331 8379.04 0 332660 4193.91 0 332020 0 0 749408 558324 0 742225 553195 0 735134 548081 0 728135 542982 0 721226 537898 0 714406 532829 0 707674 527775 0 701028 522738 0 694468 517715 0 687993 512709 0 681602 507718 0 675293 502743 0 669066 497783 0 662920 492840 0 656853 487912 0 650866 483001 0 644956 478105 0 639123 473225 0 633367 468362 0 627686 463514 0 622079 458682 0 616546 453865 0 611086 449065 0 605697 444280 0 600380 439511 0 595134 434758 0 589957 430020 0 584849 425297 0 579809 420590 0 574836 415899 0 569930 411222 0 565091 406561 0 560316 401914 0 555606 397283 0 550961 392666 0 546378 388064 0 541858 383476 0 537400 378903 0 533004 374344 0 528668 369799 0 524392 365268 0 520176 360751 0 516019 356247 0 511920 351757 0 507879 347280 0 503895 342816 0 499968 338366 0 496097 333928 0 492281 329503 0 488520 325090 0 484814 320689 0 481162 316301 0 477563 311924 0 474017 307559 0 470524 303205 0 467082 298863 0 463692 294532 0 460353 290211 0 457065 285902 0 453826 281603 0 450637 277314 0 447497 273035 0 444406 268765 0 441363 264506 0 438368 260255 0 435421 256014 0 432520 251782 0 429666 247558 0 426858 243343 0 424095 239135 0 421378 234936 0 418706 230745 0 416079 226561 0 413495 222384 0 410956 218214 0 408460 214051 0 406007 209894 0 403596 205743 0 401228 201599 0 398902 197460 0 396618 193327 0 394375 189198 0 392172 185075 0 390011 180956 0 387890 176842 0 385808 172731 0 383767 168625 0 381765 164522 0 379801 160422 0 377877 156326 0 375991 152232 0 374143 148141 0 372333 144051 0 370561 139964 0 368826 135879 0 367127 131794 0 365466 127711 0 363841 123628 0 362252 119546 0 360699 115464 0 359182 111382 0 357700 107300 0 356254 103217 0 354842 99132.3 0 353465 95046.8 0 352122 90959.6 0 350814 86870.6 0 349540 82779.3 0 348299 78685.4 0 347091 74588.8 0 345918 70489 0 344777 66385.7 0 343668 62278.6 0 342593 58167.4 0 341550 54051.9 0 340539 49931.5 0 339560 45806.2 0 338613 41675.4 0 337698 37539 0 336814 33396.5 0 335961 29247.7 0 335140 25092.2 0 334349 20929.7 0 333589 16759.8 0 332859 12582.2 0 332160 8396.62 0 331491 4202.67 0 330852 0 0 747322 560577 0 740151 555413 0 733073 550264 0 726086 545131 0 719189 540014 0 712381 534912 0 705661 529826 0 699028 524756 0 692480 519702 0 686017 514664 0 679638 509642 0 673341 504636 0 667126 499647 0 660992 494674 0 654937 489717 0 648961 484777 0 643063 479853 0 637242 474945 0 631497 470054 0 625827 465179 0 620232 460320 0 614710 455477 0 609261 450650 0 603884 445840 0 598578 441045 0 593343 436266 0 588177 431504 0 583079 426757 0 578050 422026 0 573088 417310 0 568193 412610 0 563364 407925 0 558600 403256 0 553901 398601 0 549265 393962 0 544693 389338 0 540183 384728 0 535735 380133 0 531348 375553 0 527022 370987 0 522756 366435 0 518550 361897 0 514402 357373 0 510313 352863 0 506281 348366 0 502306 343883 0 498388 339413 0 494526 334955 0 490719 330511 0 486968 326080 0 483270 321660 0 479627 317254 0 476036 312859 0 472499 308476 0 469014 304105 0 465581 299745 0 462199 295396 0 458868 291059 0 455587 286732 0 452356 282417 0 449175 278111 0 446043 273816 0 442959 269530 0 439924 265255 0 436936 260988 0 433996 256732 0 431102 252484 0 428255 248245 0 425454 244014 0 422698 239792 0 419988 235578 0 417323 231372 0 414702 227174 0 412125 222982 0 409591 218798 0 407101 214621 0 404654 210451 0 402250 206286 0 399888 202128 0 397568 197976 0 395289 193829 0 393052 189688 0 390855 185551 0 388699 181419 0 386583 177292 0 384507 173169 0 382470 169050 0 380473 164935 0 378515 160823 0 376595 156714 0 374714 152609 0 372871 148505 0 371065 144404 0 369297 140305 0 367566 136208 0 365873 132112 0 364215 128018 0 362594 123924 0 361009 119830 0 359460 115737 0 357947 111644 0 356469 107551 0 355026 103457 0 353617 99362.4 0 352244 95266.3 0 350904 91168.7 0 349599 87069.3 0 348328 82967.7 0 347090 78863.7 0 345885 74756.9 0 344714 70647.1 0 343576 66533.9 0 342470 62417 0 341397 58296 0 340357 54170.8 0 339348 50040.9 0 338372 45906 0 337427 41765.8 0 336513 37620 0 335631 33468.3 0 334780 29310.2 0 333960 25145.6 0 333171 20974 0 332413 16795.1 0 331684 12608.6 0 330987 8414.15 0 330319 4211.4 0 329681 0 0 745226 562826 0 738068 557627 0 731002 552444 0 724027 547276 0 717143 542125 0 710347 536990 0 703640 531871 0 697019 526769 0 690483 521683 0 684032 516614 0 677665 511562 0 671381 506526 0 665178 501507 0 659055 496504 0 653012 491518 0 647048 486549 0 641162 481597 0 635353 476661 0 629620 471742 0 623961 466840 0 618378 461954 0 612867 457084 0 607430 452232 0 602064 447395 0 596769 442575 0 591545 437771 0 586390 432984 0 581303 428212 0 576285 423457 0 571334 418717 0 566450 413994 0 561631 409286 0 556878 404593 0 552189 399916 0 547563 395255 0 543001 390608 0 538502 385977 0 534064 381360 0 529687 376758 0 525371 372171 0 521115 367598 0 516918 363040 0 512780 358496 0 508700 353965 0 504678 349449 0 500712 344946 0 496803 340456 0 492950 335980 0 489153 331517 0 485410 327067 0 481721 322629 0 478086 318204 0 474505 313791 0 470976 309391 0 467499 305002 0 464074 300624 0 460701 296259 0 