<?xml version="1.0"?> 
<VTKFile type="StructuredGrid" version="0.1"> 
<StructuredGrid WholeExtent="0 127 0 127 0 0"> 
<Piece Extent="0 127 0 127 0 0"> 
<PointData>
<DataArray type="Float32" Name="|E|" format="ascii" NumberOfComponents="3"> 
1275.95 1.90735e-06 0 345.419 -532.487 0 271.89 -336.72 0 154.033 -328.227 0 108.498 -277.394 0 65.1519 -254.068 0 37.8636 -226.732 0 15.7628 -205.913 0 -0.440156 -186.35 0 -13.1068 -169.422 0 -22.7582 -154.09 0 -30.1927 -140.395 0 -35.8337 -128.03 0 -40.0662 -116.879 0 -43.1619 -106.789 0 -45.3439 -97.6527 0 -46.7854 -89.3671 0 -47.6271 -81.846 0 -47.9823 -75.0121 0 -47.9435 -68.7976 0 -47.5868 -63.1419 0 -46.9747 -57.9911 0 -46.1589 -53.2969 0 -45.1825 -49.0161 0 -44.0811 -45.1096 0 -42.8846 -41.5427 0 -41.6178 -38.2837 0 -40.3012 -35.3042 0 -38.952 -32.5786 0 -37.5846 -30.0837 0 -36.2109 -27.7987 0 -34.8405 -25.7044 0 -33.4815 -23.7839 0 -32.1406 -22.0216 0 -30.8229 -20.4033 0 -29.5328 -18.9165 0 -28.2736 -17.5495 0 -27.048 -16.2918 0 -25.8578 -15.134 0 -24.7046 -14.0673 0 -23.5891 -13.0841 0 -22.5121 -12.177 0 -21.4737 -11.3397 0 -20.474 -10.5663 0 -19.5126 -9.85139 0 -18.589 -9.19012 0 -17.7028 -8.57805 0 -16.8532 -8.01114 0 -16.0394 -7.48572 0 -15.2604 -6.9984 0 -14.5153 -6.54615 0 -13.803 -6.12615 0 -13.1227 -5.73586 0 -12.4731 -5.37293 0 -11.8532 -5.03525 0 -11.262 -4.72086 0 -10.6983 -4.42797 0 -10.1612 -4.15495 0 -9.64947 -3.90031 0 -9.1622 -3.66266 0 -8.69836 -3.44075 0 -8.25695 -3.23341 0 -7.83702 -3.0396 0 -7.43763 -2.85833 0 -7.05789 -2.6887 0 -6.6969 -2.52988 0 -6.35384 -2.38112 0 -6.02788 -2.2417 0 -5.71823 -2.11099 0 -5.42414 -1.98838 0 -5.14488 -1.87332 0 -4.87975 -1.7653 0 -4.62809 -1.66384 0 -4.38924 -1.56851 0 -4.1626 -1.4789 0 -3.94758 -1.39465 0 -3.7436 -1.31539 0 -3.55015 -1.2408 0 -3.36669 -1.17059 0 -3.19275 -1.10447 0 -3.02785 -1.04218 0 -2.87155 -0.983483 0 -2.72342 -0.928151 0 -2.58306 -0.87598 0 -2.45009 -0.826762 0 -2.32414 -0.780324 0 -2.20486 -0.736486 0 -2.09191 -0.695093 0 -1.98499 -0.655997 0 -1.8838 -0.619056 0 -1.78805 -0.584136 0 -1.69747 -0.551117 0 -1.61181 -0.519888 0 -1.53083 -0.490329 0 -1.45429 -0.462352 0 -1.38197 -0.435847 0 -1.31369 -0.41074 0 -1.24922 -0.386934 0 -1.1884 -0.364354 0 -1.13105 -0.342926 0 -1.07701 -0.322574 0 -1.02611 -0.303236 0 -0.978217 -0.28485 0 -0.933186 -0.267352 0 -0.890891 -0.250691 0 -0.851209 -0.234804 0 -0.814024 -0.21965 0 -0.779228 -0.205171 0 -0.746719 -0.191329 0 -0.71641 -0.178082 0 -0.688203 -0.165377 0 -0.662021 -0.153185 0 -0.637791 -0.141462 0 -0.615437 -0.130173 0 -0.594893 -0.119282 0 -0.576106 -0.108757 0 -0.559015 -0.0985665 0 -0.54357 -0.088675 0 -0.529732 -0.0790558 0 -0.517456 -0.0696778 0 -0.506707 -0.0605092 0 -0.497452 -0.0515261 0 -0.489666 -0.0427032 0 -0.483326 -0.0340061 0 -0.478411 -0.0254145 0 -0.474911 -0.0169029 0 -0.472814 -0.00843763 0 -0.472113 -9.53674e-07 0 1033.27 -2.97651e-06 0 409.801 -431.906 0 262.941 -330.855 0 167.756 -308.784 0 111.236 -271.492 0 70.953 -246.726 0 41.5207 -222.633 0 19.5538 -202.25 0 2.70907 -183.781 0 -10.1972 -167.348 0 -20.1797 -152.534 0 -27.8541 -139.187 0 -33.7272 -127.121 0 -38.1578 -116.199 0 -41.4336 -106.298 0 -43.7756 -97.3124 0 -45.3614 -89.1497 0 -46.3327 -81.7281 0 -46.8049 -74.9751 0 -46.8717 -68.8259 0 -46.6104 -63.223 0 -46.0846 -58.1146 0 -45.347 -53.454 0 -44.4415 -49.1996 0 -43.4044 -45.3136 0 -42.2662 -41.7621 0 -41.0523 -38.5144 0 -39.7838 -35.5428 0 -38.4784 -32.8221 0 -37.1508 -30.3298 0 -35.8133 -28.0452 0 -34.4758 -25.9499 0 -33.1469 -24.0269 0 -31.8333 -22.261 0 -30.5405 -20.6384 0 -29.2732 -19.1464 0 -28.0348 -17.7736 0 -26.8281 -16.5098 0 -25.6552 -15.3456 0 -24.5178 -14.2722 0 -23.4168 -13.2821 0 -22.3531 -12.3682 0 -21.3268 -11.5239 0 -20.3382 -10.7436 0 -19.3869 -10.0218 0 -18.4728 -9.3538 0 -17.5952 -8.73508 0 -16.7534 -8.16165 0 -15.9468 -7.62986 0 -15.1745 -7.13634 0 -14.4355 -6.67806 0 -13.7289 -6.25222 0 -13.0537 -5.85627 0 -12.409 -5.48788 0 -11.7935 -5.14493 0 -11.2064 -4.82545 0 -10.6465 -4.52768 0 -10.1128 -4.24996 0 -9.60434 -3.9908 0 -9.12006 -3.74882 0 -8.65899 -3.52276 0 -8.22015 -3.31146 0 -7.80261 -3.11384 0 -7.40543 -2.92893 0 -7.02774 -2.75582 0 -6.66866 -2.59369 0 -6.32738 -2.44175 0 -6.00307 -2.29931 0 -5.69496 -2.16571 0 -5.4023 -2.04035 0 -5.12438 -1.92267 0 -4.8605 -1.81214 0 -4.61 -1.70831 0 -4.37224 -1.61071 0 -4.14661 -1.51895 0 -3.93254 -1.43263 0 -3.72945 -1.35142 0 -3.53683 -1.27497 0 -3.35415 -1.20299 0 -3.18093 -1.13519 0 -3.01671 -1.0713 0 -2.86105 -1.01109 0 -2.71352 -0.954309 0 -2.57373 -0.900762 0 -2.44128 -0.85024 0 -2.31583 -0.802561 0 -2.19701 -0.757543 0 -2.0845 -0.715033 0 -1.97799 -0.674868 0 -1.87718 -0.636916 0 -1.78179 -0.601032 0 -1.69155 -0.5671 0 -1.60621 -0.534998 0 -1.52553 -0.504615 0 -1.44927 -0.475848 0 -1.37722 -0.4486 0 -1.30918 -0.422778 0 -1.24495 -0.398295 0 -1.18435 -0.37507 0 -1.1272 -0.353028 0 -1.07335 -0.332093 0 -1.02263 -0.312197 0 -0.974909 -0.293278 0 -0.930037 -0.275273 0 -0.887891 -0.258125 0 -0.848348 -0.241778 0 -0.811292 -0.226176 0 -0.776617 -0.211277 0 -0.744222 -0.197028 0 -0.714017 -0.183389 0 -0.685908 -0.17031 0 -0.659816 -0.157757 0 -0.635669 -0.145687 0 -0.613392 -0.134062 0 -0.592919 -0.122849 0 -0.574196 -0.112013 0 -0.557163 -0.101516 0 -0.541772 -0.0913303 0 -0.527981 -0.0814248 0 -0.515746 -0.0717648 0 -0.505034 -0.062323 0 -0.49581 -0.0530734 0 -0.48805 -0.043983 0 -0.481732 -0.0350273 0 -0.476834 -0.0261769 0 -0.473345 -0.0174078 0 -0.471256 -0.00869169 0 -0.470557 8.23289e-07 0 862.43 2.14577e-06 0 435.727 -355.796 0 263.03 -316.356 0 175.721 -292.695 0 115.425 -263.831 0 75.5566 -239.981 0 45.2941 -218.132 0 23.0249 -198.646 0 5.79305 -181.091 0 -7.41044 -165.244 0 -17.6659 -150.919 0 -25.5795 -137.941 0 -31.6663 -126.172 0 -36.2882 -115.486 0 -39.7358 -105.776 0 -42.2325 -96.9451 0 -43.9576 -88.9078 0 -45.0549 -81.5882 0 -45.6408 -74.918 0 -45.8107 -68.8362 0 -45.6427 -63.2878 0 -45.2015 -58.2232 0 -44.5407 -53.5977 0 -43.7048 -49.371 0 -42.731 -45.5066 0 -41.6503 -41.9716 0 -40.4887 -38.736 0 -39.2677 -35.773 0 -38.0056 -33.0581 0 -36.7173 -30.5689 0 -35.4156 -28.2855 0 -34.1109 -26.1897 0 -32.8117 -24.2647 0 -31.5253 -22.4957 0 -30.2573 -20.8691 0 -29.0126 -19.3723 0 -27.7948 -17.9942 0 -26.607 -16.7246 0 -25.4515 -15.5541 0 -24.3298 -14.4744 0 -23.2433 -13.4777 0 -22.1928 -12.557 0 -21.1787 -11.7061 0 -20.2011 -10.919 0 -19.2601 -10.1905 0 -18.3553 -9.51585 0 -17.4863 -8.89061 0 -16.6525 -8.31079 0 -15.8531 -7.77273 0 -15.0875 -7.27312 0 -14.3546 -6.8089 0 -13.6537 -6.3773 0 -12.9838 -5.97577 0 -12.3439 -5.60199 0 -11.7329 -5.25383 0 -11.1498 -4.92933 0 -10.5938 -4.62672 0 -10.0636 -4.34435 0 -9.55841 -4.08073 0 -9.07716 -3.83446 0 -8.61889 -3.60429 0 -8.18265 -3.38905 0 -7.76752 -3.18766 0 -7.37258 -2.99914 0 -6.99697 -2.82259 0 -6.63984 -2.65716 0 -6.30035 -2.50207 0 -5.97772 -2.35663 0 -5.67117 -2.22016 0 -5.37998 -2.09206 0 -5.10341 -1.97177 0 -4.8408 -1.85877 0 -4.59149 -1.75256 0 -4.35483 -1.65271 0 -4.13024 -1.5588 0 -3.91713 -1.47045 0 -3.71495 -1.38729 0 -3.52317 -1.309 0 -3.34129 -1.23525 0 -3.16882 -1.16578 0 -3.0053 -1.1003 0 -2.85029 -1.03857 0 -2.70337 -0.98036 0 -2.56415 -0.925445 0 -2.43225 -0.873625 0 -2.30729 -0.824708 0 -2.18895 -0.778518 0 -2.07689 -0.73489 0 -1.9708 -0.693667 0 -1.87038 -0.654706 0 -1.77537 -0.617865 0 -1.68547 -0.583021 0 -1.60046 -0.550053 0 -1.52008 -0.518846 0 -1.44411 -0.489298 0 -1.37233 -0.461303 0 -1.30454 -0.434772 0 -1.24055 -0.409615 0 -1.18018 -0.385747 0 -1.12324 -0.363093 0 -1.06959 -0.341575 0 -1.01906 -0.321124 0 -0.971507 -0.301675 0 -0.926799 -0.283164 0 -0.884805 -0.265534 0 -0.845404 -0.248723 0 -0.808482 -0.232683 0 -0.77393 -0.217359 0 -0.741653 -0.202705 0 -0.711555 -0.188677 0 -0.683546 -0.175226 0 -0.657547 -0.162313 0 -0.633486 -0.149898 0 -0.611287 -0.13794 0 -0.590887 -0.126404 0 -0.57223 -0.115255 0 -0.555257 -0.104456 0 -0.53992 -0.0939769 0 -0.526177 -0.0837844 0 -0.513985 -0.0738454 0 -0.503311 -0.0641315 0 -0.49412 -0.0546111 0 -0.486387 -0.0452599 0 -0.480091 -0.036043 0 -0.47521 -0.0269367 0 -0.471734 -0.0179143 0 -0.469651 -0.00894384 0 -0.468955 -1.66893e-06 0 738.469 1.04308e-07 0 440.019 -297.104 0 265.781 -297.811 0 180.774 -278.221 0 119.781 -255.364 0 79.526 -233.446 0 48.9319 -213.438 0 26.2831 -195.027 0 8.76307 -178.325 0 -4.72747 -163.098 0 -15.2266 -149.257 0 -23.3659 -136.656 0 -29.6533 -125.187 0 -34.4575 -114.742 0 -38.0693 -105.226 0 -40.7147 -96.5516 0 -42.5746 -88.6422 0 -43.7939 -81.4268 0 -44.4905 -74.8416 0 -44.7608 -68.8289 0 -44.6841 -63.3366 0 -44.3257 -58.3173 0 -43.7402 -53.7282 0 -42.9727 -49.5304 0 -42.0612 -45.6886 0 -41.0371 -42.1711 0 -39.927 -38.9487 0 -38.753 -35.9951 0 -37.5336 -33.2866 0 -36.2843 -30.8013 0 -35.0181 -28.5197 0 -33.7457 -26.4238 0 -32.4761 -24.4974 0 -31.2166 -22.7258 0 -29.9733 -21.0955 0 -28.7511 -19.5943 0 -27.5539 -18.2112 0 -26.3849 -16.936 0 -25.2466 -15.7597 0 -24.1407 -14.6738 0 -23.0686 -13.6707 0 -22.0313 -12.7436 0 -21.0293 -11.8861 0 -20.0629 -11.0924 0 -19.1321 -10.3574 0 -18.2367 -9.67628 0 -17.3763 -9.04464 0 -16.5504 -8.45854 0 -15.7583 -7.91434 0 -14.9994 -7.40873 0 -14.2727 -6.93867 0 -13.5776 -6.50139 0 -12.9129 -6.09436 0 -12.2778 -5.71525 0 -11.6713 -5.36194 0 -11.0924 -5.03249 0 -10.5402 -4.72509 0 -10.0136 -4.43813 0 -9.5117 -4.17008 0 -9.0335 -3.91957 0 -8.57806 -3.68533 0 -8.14445 -3.46618 0 -7.73176 -3.26106 0 -7.3391 -3.06896 0 -6.9656 -2.88898 0 -6.61042 -2.72028 0 -6.27277 -2.56208 0 -5.95184 -2.41365 0 -5.64688 -2.27433 0 -5.35717 -2.14352 0 -5.08199 -2.02064 0 -4.82067 -1.90517 0 -4.57256 -1.79661 0 -4.33703 -1.69452 0 -4.11349 -1.59848 0 -3.90137 -1.50809 0 -3.70011 -1.423 0 -3.5092 -1.34287 0 -3.32812 -1.26738 0 -3.15641 -1.19624 0 -2.9936 -1.12918 0 -2.83926 -1.06595 0 -2.69297 -1.0063 0 -2.55433 -0.950027 0 -2.42298 -0.896912 0 -2.29854 -0.846769 0 -2.18069 -0.79941 0 -2.06908 -0.754671 0 -1.96342 -0.712392 0 -1.86341 -0.672427 0 -1.76877 -0.634632 0 -1.67923 -0.598881 0 -1.59455 -0.56505 0 -1.51449 -0.533024 0 -1.43881 -0.502695 0 -1.36731 -0.473959 0 -1.29979 -0.446722 0 -1.23604 -0.420893 0 -1.17589 -0.396387 0 -1.11918 -0.373122 0 -1.06572 -0.351024 0 -1.01538 -0.330019 0 -0.968011 -0.310042 0 -0.92347 -0.291027 0 -0.881632 -0.272914 0 -0.842378 -0.255644 0 -0.805593 -0.239165 0 -0.771169 -0.22342 0 -0.739011 -0.208363 0 -0.709023 -0.193947 0 -0.681118 -0.180124 0 -0.655215 -0.166854 0 -0.63124 -0.154094 0 -0.609122 -0.141802 0 -0.588797 -0.129946 0 -0.570208 -0.118486 0 -0.553296 -0.107386 0 -0.538016 -0.096613 0 -0.524323 -0.086137 0 -0.512175 -0.0759197 0 -0.501539 -0.0659322 0 -0.492382 -0.0561468 0 -0.484677 -0.0465318 0 -0.478403 -0.0370569 0 -0.47354 -0.0276949 0 -0.470077 -0.0184177 0 -0.468001 -0.0091954 0 -0.467307 1.53482e-06 0 645.884 -9.23872e-07 0 432.365 -251.295 0 268.311 -277.68 0 184.177 -264.625 0 123.786 -246.533 0 83.0748 -226.979 0 52.3454 -208.64 0 29.3624 -191.371 0 11.6039 -175.504 0 -2.14355 -160.908 0 -12.8648 -147.553 0 -21.2134 -135.334 0 -27.6892 -124.169 0 -32.6661 -113.967 0 -36.4346 -104.647 0 -39.2229 -96.1329 0 -41.2126 -88.3537 0 -42.5501 -81.2446 0 -43.3543 -74.7462 0 -43.7224 -68.8044 0 -43.7347 -63.3698 0 -43.4574 -58.3972 0 -42.9456 -53.8457 0 -42.2454 -49.678 0 -41.395 -45.86 0 -40.4267 -42.3609 0 -39.3674 -39.1524 0 -38.2397 -36.2091 0 -37.0625 -33.5077 0 -35.8518 -31.027 0 -34.6208 -28.7477 0 -33.3805 -26.6523 0 -32.1402 -24.725 0 -30.9075 -22.9511 0 -29.6886 -21.3176 0 -28.4888 -19.8124 0 -27.3121 -18.4246 0 -26.1618 -17.1442 0 -25.0406 -15.9623 0 -23.9504 -14.8704 0 -22.8927 -13.8613 0 -21.8686 -12.9278 0 -20.8787 -12.064 0 -19.9235 -11.2639 0 -19.0029 -10.5225 0 -18.1168 -9.83506 0 -17.2651 -9.19717 0 -16.4471 -8.60491 0 -15.6624 -8.05467 0 -14.9102 -7.54316 0 -14.1898 -7.06735 0 -13.5004 -6.62448 0 -12.841 -6.21202 0 -12.2108 -5.82766 0 -11.6088 -5.46927 0 -11.0341 -5.13491 0 -10.4858 -4.82279 0 -9.96278 -4.53128 0 -9.4642 -4.25885 0 -8.98908 -4.00414 0 -8.53651 -3.76587 0 -8.10556 -3.54285 0 -7.69534 -3.33402 0 -7.30497 -3.13838 0 -6.93362 -2.95501 0 -6.58043 -2.78306 0 -6.24463 -2.62175 0 -5.92543 -2.47036 0 -5.62209 -2.32823 0 -5.33388 -2.19472 0 -5.0601 -2.06926 0 -4.80009 -1.95134 0 -4.55321 -1.84045 0 -4.31883 -1.73613 0 -4.09637 -1.63797 0 -3.88525 -1.54557 0 -3.68493 -1.45855 0 -3.49489 -1.37659 0 -3.31464 -1.29936 0 -3.1437 -1.22657 0 -2.98162 -1.15793 0 -2.82796 -1.0932 0 -2.68231 -1.03213 0 -2.54427 -0.974503 0 -2.41348 -0.920105 0 -2.28958 -0.868734 0 -2.17222 -0.820213 0 -2.06108 -0.774369 0 -1.95585 -0.73104 0 -1.85625 -0.690075 0 -1.762 -0.65133 0 -1.67283 -0.614678 0 -1.58849 -0.579988 0 -1.50875 -0.547144 0 -1.43338 -0.51604 0 -1.36216 -0.486565 0 -1.2949 -0.458625 0 -1.23141 -0.432127 0 -1.1715 -0.406982 0 -1.115 -0.383112 0 -1.06176 -0.360434 0 -1.01161 -0.338879 0 -0.964422 -0.318376 0 -0.920052 -0.29886 0 -0.878375 -0.280268 0 -0.839271 -0.262541 0 -0.802626 -0.245621 0 -0.768333 -0.229458 0 -0.736298 -0.214 0 -0.706423 -0.199196 0 -0.678623 -0.185003 0 -0.652818 -0.171376 0 -0.628934 -0.158273 0 -0.606899 -0.145652 0 -0.58665 -0.133475 0 -0.568131 -0.121705 0 -0.551282 -0.110305 0 -0.53606 -0.0992409 0 -0.522417 -0.0884791 0 -0.510315 -0.0779848 0 -0.499718 -0.0677278 0 -0.490595 -0.0576757 0 -0.482919 -0.0477983 0 -0.476668 -0.0380646 0 -0.471824 -0.0284493 0 -0.468373 -0.0189192 0 -0.466305 -0.00944532 0 -0.465613 -9.08971e-07 0 574.719 1.2368e-06 0 418.463 -215.042 0 269.44 -257.476 0 186.496 -251.556 0 127.248 -237.592 0 86.2798 -220.523 0 55.5075 -203.787 0 32.2724 -187.674 0 14.3115 -172.638 0 0.341815 -158.679 0 -10.5816 -145.811 0 -19.1222 -133.978 0 -25.7746 -123.118 0 -30.9144 -113.162 0 -34.8323 -104.042 0 -37.7574 -95.6899 0 -39.8722 -88.043 0 -41.3239 -81.0422 0 -42.2324 -74.6325 0 -42.6957 -68.7632 0 -42.7949 -63.3877 0 -42.5968 -58.4632 0 -42.1573 -53.9506 0 -41.523 -49.8141 0 -40.7327 -46.0208 0 -39.8193 -42.541 0 -38.8101 -39.3474 0 -37.7281 -36.4151 0 -36.5926 -33.7215 0 -35.42 -31.246 0 -34.2237 -28.9696 0 -33.0153 -26.8753 0 -31.804 -24.9475 0 -30.5979 -23.1718 0 -29.4033 -21.5355 0 -28.2257 -20.0266 0 -27.0694 -18.6345 0 -25.9377 -17.3492 0 -24.8336 -16.1619 0 -23.7591 -15.0644 0 -22.7158 -14.0493 0 -21.7048 -13.1098 0 -20.7271 -12.2397 0 -19.7829 -11.4335 0 -18.8725 -10.6859 0 -17.9959 -9.99221 0 -17.1528 -9.34819 0 -16.3428 -8.74989 0 -15.5654 -8.19373 0 -14.82 -7.67641 0 -14.1059 -7.19494 0 -13.4222 -6.74656 0 -12.7681 -6.32876 0 -12.1428 -5.93921 0 -11.5454 -5.57581 0 -10.975 -5.2366 0 -10.4305 -4.91981 0 -9.91114 -4.62379 0 -9.41592 -4.34704 0 -8.94392 -4.08817 0 -8.49425 -3.8459 0 -8.06599 -3.61905 0 -7.65827 -3.40655 0 -7.27023 -3.20739 0 -6.90103 -3.02065 0 -6.54987 -2.84549 0 -6.21595 -2.6811 0 -5.8985 -2.52678 0 -5.59679 -2.38183 0 -5.31011 -2.24564 0 -5.03776 -2.11764 0 -4.77909 -1.99728 0 -4.53345 -1.88406 0 -4.30024 -1.77754 0 -4.07886 -1.67727 0 -3.86877 -1.58286 0 -3.66941 -1.49393 0 -3.48027 -1.41015 0 -3.30086 -1.33119 0 -3.13071 -1.25675 0 -2.96936 -1.18655 0 -2.8164 -1.12034 0 -2.6714 -1.05785 0 -2.53397 -0.998874 0 -2.40376 -0.943192 0 -2.28039 -0.890606 0 -2.16354 -0.840928 0 -2.05288 -0.793983 0 -1.9481 -0.749609 0 -1.84892 -0.707649 0 -1.75507 -0.667961 0 -1.66627 -0.630409 0 -1.58228 -0.594864 0 -1.50286 -0.56121 0 -1.4278 -0.529329 0 -1.35688 -0.49912 0 -1.28989 -0.47048 0 -1.22666 -0.443315 0 -1.16699 -0.417537 0 -1.11072 -0.393061 0 -1.05769 -0.369809 0 -1.00774 -0.347705 0 -0.960739 -0.326678 0 -0.916545 -0.306662 0 -0.875033 -0.287592 0 -0.836083 -0.269408 0 -0.799581 -0.252053 0 -0.765423 -0.235471 0 -0.733512 -0.219612 0 -0.703754 -0.204425 0 -0.676062 -0.189863 0 -0.650358 -0.175882 0 -0.626566 -0.162436 0 -0.604616 -0.149485 0 -0.584446 -0.136989 0 -0.565998 -0.124912 0 -0.549214 -0.113213 0 -0.534051 -0.101858 0 -0.520461 -0.0908126 0 -0.508405 -0.0800429 0 -0.497849 -0.069515 0 -0.488761 -0.0591981 0 -0.481114 -0.0490597 0 -0.474887 -0.0390709 0 -0.470062 -0.0291999 0 -0.466624 -0.0194179 0 -0.464564 -0.00969555 0 -0.463874 1.68383e-06 0 518.528 -2.563e-06 0 401.605 -185.989 0 268.863 -238.027 0 187.97 -238.9 0 130.125 -228.679 0 89.1624 -214.073 0 58.4162 -198.906 0 35.0136 -183.944 0 16.8861 -169.736 0 2.72798 -156.413 0 -8.37727 -144.035 0 -17.0931 -132.589 0 -23.9099 -122.038 0 -29.203 -112.33 0 -33.2628 -103.411 0 -36.3186 -95.2236 0 -38.5536 -87.711 0 -40.1157 -80.8203 0 -41.1252 -74.5009 0 -41.6811 -68.7056 0 -41.8648 -63.3907 0 -41.7441 -58.5156 0 -41.3754 -54.0431 0 -40.8057 -49.9388 0 -40.0745 -46.1713 0 -39.2151 -42.7118 0 -38.2551 -39.5338 0 -37.2182 -36.6133 0 -36.1239 -33.9282 0 -34.9889 -31.4584 0 -33.8271 -29.1855 0 -32.6501 -27.0928 0 -31.4677 -25.1649 0 -30.2879 -23.388 0 -29.1174 -21.7492 0 -27.9619 -20.237 0 -26.8258 -18.8408 0 -25.7127 -17.5509 0 -24.6256 -16.3585 0 -23.5667 -15.2556 0 -22.5377 -14.2348 0 -21.5399 -13.2895 0 -20.5743 -12.4134 0 -19.6412 -11.6011 0 -18.7411 -10.8474 0 -17.8738 -10.1477 0 -17.0394 -9.4977 0 -16.2374 -8.89348 0 -15.4674 -8.3315 0 -14.7288 -7.80848 0 -14.0209 -7.32144 0 -13.343 -6.86764 0 -12.6943 -6.44456 0 -12.074 -6.0499 0 -11.4812 -5.68154 0 -10.9149 -5.33755 0 -10.3744 -5.01615 0 -9.85871 -4.71568 0 -9.36688 -4.43464 0 -8.89803 -4.17165 0 -8.45127 -3.92542 0 -8.02573 -3.69478 0 -7.62054 -3.47864 0 -7.23486 -3.27599 0 -6.86785 -3.08592 0 -6.51873 -2.90756 0 -6.18672 -2.74012 0 -5.87105 -2.58288 0 -5.571 -2.43515 0 -5.28587 -2.2963 0 -5.01497 -2.16576 0 -4.75765 -2.04298 0 -4.51328 -1.92746 0 -4.28125 -1.81874 0 -4.06099 -1.71637 0 -3.85193 -1.61997 0 -3.65355 -1.52915 0 -3.46532 -1.44356 0 -3.28677 -1.36288 0 -3.11742 -1.2868 0 -2.95683 -1.21504 0 -2.80457 -1.14734 0 -2.66024 -1.08345 0 -2.52344 -1.02313 0 -2.39381 -0.966181 0 -2.27099 -0.912382 0 -2.15466 -0.861552 0 -2.04448 -0.813514 0 -1.94017 -0.768099 0 -1.84142 -0.725149 0 -1.74796 -0.68452 0 -1.65955 -0.646073 0 -1.57592 -0.609679 0 -1.49684 -0.575214 0 -1.42209 -0.542566 0 -1.35147 -0.511623 0 -1.28476 -0.482287 0 -1.22179 -0.454458 0 -1.16237 -0.428048 0 -1.10633 -0.40297 0 -1.05351 -0.379146 0 -1.00377 -0.356495 0 -0.956964 -0.334947 0 -0.91295 -0.314433 0 -0.871606 -0.294888 0 -0.832813 -0.27625 0 -0.796459 -0.25846 0 -0.762439 -0.241462 0 -0.730656 -0.225205 0 -0.701017 -0.209634 0 -0.673437 -0.194705 0 -0.647835 -0.180369 0 -0.624137 -0.166584 0 -0.602275 -0.153304 0 -0.582185 -0.140492 0 -0.56381 -0.128107 0 -0.547093 -0.116109 0 -0.53199 -0.104465 0 -0.518454 -0.093138 0 -0.506445 -0.0820926 0 -0.495931 -0.0712955 0 -0.486879 -0.060715 0 -0.479262 -0.0503178 0 -0.47306 -0.0400727 0 -0.468253 -0.0299487 0 -0.464829 -0.0199164 0 -0.462777 -0.00994245 0 -0.462091 -3.96371e-06 0 473.057 2.47359e-06 0 383.679 -162.421 0 266.675 -219.765 0 188.709 -226.647 0 132.434 -219.874 0 91.7271 -207.641 0 61.0772 -194.017 0 37.5855 -180.186 0 19.3288 -166.805 0 5.01438 -154.115 0 -6.25178 -142.228 0 -15.1264 -131.17 0 -22.0955 -120.929 0 -27.5322 -111.472 0 -31.7263 -102.757 0 -34.9069 -94.735 0 -37.2572 -87.3585 0 -38.9256 -80.5795 0 -40.033 -74.352 0 -40.6787 -68.6322 0 -40.9449 -63.3792 0 -40.8997 -58.5547 0 -40.6001 -54.1234 0 -40.0938 -50.0524 0 -39.4206 -46.3116 0 -38.6141 -42.8732 0 -37.7027 -39.7117 0 -36.7102 -36.8036 0 -35.6566 -34.1277 0 -34.5588 -31.6643 0 -33.431 -29.3954 0 -32.2851 -27.3048 0 -31.1312 -25.3774 0 -29.9775 -23.5995 0 -28.8311 -21.9587 0 -27.6975 -20.4435 0 -26.5815 -19.0436 0 -25.4869 -17.7494 0 -24.4167 -16.5522 0 -23.3733 -15.4441 0 -22.3586 -14.4179 0 -21.374 -13.4668 0 -20.4204 -12.585 0 -19.4984 -11.7668 0 -18.6085 -11.0072 0 -17.7507 -10.3016 0 -16.9249 -9.6457 0 -16.1309 -9.03568 0 -15.3683 -8.46798 0 -14.6365 -7.93936 0 -13.9349 -7.44684 0 -13.2629 -6.9877 0 -12.6196 -6.55942 0 -12.0042 -6.15972 0 -11.416 -5.78647 0 -10.8541 -5.43776 0 -10.3175 -5.11178 0 -9.80548 -4.80692 0 -9.31707 -4.52164 0 -8.8514 -4.25457 0 -8.4076 -4.00443 0 -7.9848 -3.77003 0 -7.58217 -3.55028 0 -7.19887 -3.34418 0 -6.83409 -3.15079 0 -6.48703 -2.96927 0 -6.15695 -2.79881 0 -5.84308 -2.63867 0 -5.54472 -2.48817 0 -5.26116 -2.34669 0 -4.99173 -2.21363 0 -4.73578 -2.08844 0 -4.4927 -1.97063 0 -4.26188 -1.85973 0 -4.04274 -1.75528 0 -3.83474 -1.65689 0 -3.63735 -1.56419 0 -3.45005 -1.4768 0 -3.27237 -1.39441 0 -3.10384 -1.3167 0 -2.94402 -1.2434 0 -2.79248 -1.17423 0 -2.64882 -1.10893 0 -2.51266 -1.04728 0 -2.38363 -0.989063 0 -2.26138 -0.934061 0 -2.14557 -0.882085 0 -2.03589 -0.832958 0 -1.93204 -0.786507 0 -1.83374 -0.742573 0 -1.7407 -0.701008 0 -1.65267 -0.661669 0 -1.5694 -0.624429 0 -1.49067 -0.58916 0 -1.41625 -0.555744 0 -1.34592 -0.524073 0 -1.2795 -0.494043 0 -1.2168 -0.465555 0 -1.15763 -0.438516 0 -1.10183 -0.412841 0 -1.04924 -0.388443 0 -0.999709 -0.365248 0 -0.953096 -0.343182 0 -0.909266 -0.322172 0 -0.868094 -0.302154 0 -0.829463 -0.283063 0 -0.79326 -0.264841 0 -0.759381 -0.247428 0 -0.727729 -0.230773 0 -0.698212 -0.214821 0 -0.670745 -0.199527 0 -0.645248 -0.18484 0 -0.621648 -0.170714 0 -0.599875 -0.157107 0 -0.579868 -0.143979 0 -0.561567 -0.131288 0 -0.544919 -0.118995 0 -0.529877 -0.107062 0 -0.516396 -0.0954544 0 -0.504436 -0.0841346 0 -0.493965 -0.0730698 0 -0.484949 -0.0622266 0 -0.477363 -0.0515697 0 -0.471187 -0.0410704 0 -0.466399 -0.0306955 0 -0.462989 -0.0204123 0 -0.460945 -0.0101912 0 -0.460262 3.8743e-06 0 435.447 -9.23872e-07 0 365.738 -143.082 0 263.129 -202.877 0 188.776 -214.829 0 134.21 -211.231 0 93.9765 -201.25 0 63.4984 -189.135 0 39.988 -176.413 0 21.6411 -163.851 0 7.20087 -151.791 0 -4.20513 -140.394 0 -13.2224 -129.725 0 -20.3315 -119.795 0 -25.9024 -110.59 0 -30.2233 -102.079 0 -33.5225 -94.225 0 -35.9834 -86.9862 0 -37.7541 -80.3205 0 -38.956 -74.1863 0 -39.6888 -68.5433 0 -40.0351 -63.3535 0 -40.0636 -58.5808 0 -39.8317 -54.1918 0 -39.3873 -50.1551 0 -38.771 -46.4419 0 -38.0167 -43.0255 0 -37.153 -39.8811 0 -36.2042 -36.9863 0 -35.1907 -34.3202 0 -34.1296 -31.8638 0 -33.0354 -29.5995 0 -31.9204 -27.5114 0 -30.7947 -25.5849 0 -29.667 -23.8066 0 -28.5443 -22.1641 0 -27.4325 -20.6463 0 -26.3365 -19.2429 0 -25.2602 -17.9447 0 -24.2069 -16.7429 0 -23.179 -15.6299 0 -22.1786 -14.5984 0 -21.207 -13.6419 0 -20.2654 -12.7545 0 -19.3546 -11.9306 0 -18.4749 -11.1652 0 -17.6265 -10.4538 0 -16.8094 -9.79218 0 -16.0235 -9.17647 0 -15.2682 -8.60317 0 -14.5433 -8.06905 0 -13.848 -7.57114 0 -13.1818 -7.10674 0 -12.5439 -6.67334 0 -11.9336 -6.26866 0 -11.35 -5.8906 0 -10.7924 -5.53721 0 -10.2598 -5.20673 0 -9.75148 -4.89751 0 -9.26651 -4.60804 0 -8.80405 -4.33694 0 -8.36323 -4.08292 0 -7.94321 -3.84479 0 -7.54316 -3.62147 0 -7.16227 -3.41194 0 -6.79973 -3.21528 0 -6.45477 -3.03061 0 -6.12664 -2.85715 0 -5.8146 -2.69414 0 -5.51795 -2.5409 0 -5.23598 -2.39679 0 -4.96804 -2.26123 0 -4.71349 -2.13366 0 -4.47171 -2.01358 0 -4.24212 -1.9005 0 -4.02413 -1.79399 0 -3.8172 -1.69363 0 -3.62082 -1.59905 0 -3.43447 -1.50988 0 -3.25767 -1.42579 0 -3.08998 -1.34646 0 -2.93094 -1.27162 0 -2.78013 -1.20098 0 -2.63717 -1.1343 0 -2.50165 -1.07132 0 -2.37323 -1.01184 0 -2.25155 -0.955639 0 -2.13628 -0.902524 0 -2.02711 -0.852314 0 -1.92374 -0.80483 0 -1.82588 -0.759918 0 -1.73326 -0.717421 0 -1.64563 -0.677197 0 -1.56274 -0.639114 0 -1.48436 -0.603044 0 -1.41026 -0.568865 0 -1.34025 -0.536469 0 -1.27413 -0.505748 0 -1.2117 -0.476602 0 -1.15279 -0.448938 0 -1.09723 -0.422665 0 -1.04487 -0.397701 0 -0.995548 -0.373965 0 -0.949136 -0.351381 0 -0.905495 -0.329878 0 -0.864499 -0.309389 0 -0.826033 -0.289848 0 -0.789984 -0.271194 0 -0.756249 -0.253369 0 -0.724731 -0.236318 0 -0.69534 -0.219987 0 -0.667989 -0.204327 0 -0.642599 -0.189291 0 -0.619098 -0.174827 0 -0.597417 -0.160895 0 -0.577494 -0.147452 0 -0.55927 -0.134456 0 -0.542691 -0.121867 0 -0.527712 -0.109649 0 -0.514288 -0.09776 0 -0.502378 -0.0861678 0 -0.491951 -0.0748362 0 -0.482972 -0.0637302 0 -0.475418 -0.0528169 0 -0.469267 -0.0420639 0 -0.4645 -0.031437 0 -0.461104 -0.0209059 0 -0.459069 -0.0104375 0 -0.458387 -1.87755e-06 0 403.739 1.2517e-06 0 348.352 -127.042 0 258.517 -187.408 0 188.23 -203.487 0 135.499 -202.786 0 95.9159 -194.921 0 65.688 -184.272 0 42.2223 -172.632 0 23.8246 -160.88 0 9.2877 -149.445 0 -2.23716 -138.536 0 -11.3812 -128.255 0 -18.6182 -118.637 0 -24.3138 -109.684 0 -28.7539 -101.38 0 -32.1659 -93.6948 0 -34.7323 -86.595 0 -36.6014 -80.044 0 -37.8945 -74.0044 0 -38.7117 -68.4395 0 -39.1359 -63.314 0 -39.2362 -58.5943 0 -39.0702 -54.2486 0 -38.6866 -50.2472 0 -38.126 -46.5624 0 -37.4228 -43.1688 0 -36.6061 -40.0424 0 -35.7004 -37.1614 0 -34.7264 -34.5058 0 -33.7015 -32.0569 0 -32.6406 -29.7978 0 -31.5561 -27.7128 0 -30.4584 -25.7876 0 -29.3563 -24.0091 0 -28.2571 -22.3653 0 -27.167 -20.8452 0 -26.0908 -19.4388 0 -25.0328 -18.1368 0 -23.9963 -16.9307 0 -22.9838 -15.813 0 -21.9975 -14.7765 0 -21.039 -13.8147 0 -20.1095 -12.9218 0 -19.2097 -12.0924 0 -18.3402 -11.3214 0 -17.5013 -10.6044 0 -16.6929 -9.93714 0 -15.9149 -9.31587 0 -15.1671 -8.73707 0 -14.449 -8.19754 0 -13.7601 -7.69434 0 -13.0997 -7.22475 0 -12.4673 -6.78631 0 -11.862 -6.37673 0 -11.2831 -5.9939 0 -10.7298 -5.63591 0 -10.2013 -5.30097 0 -9.6967 -4.98745 0 -9.21521 -4.69384 0 -8.75598 -4.41874 0 -8.31817 -4.16088 0 -7.90095 -3.91906 0 -7.50352 -3.6922 0 -7.12506 -3.47928 0 -6.76479 -3.27937 0 -6.42196 -3.09159 0 -6.09581 -2.91514 0 -5.78562 -2.74928 0 -5.49069 -2.59332 0 -5.21034 -2.44662 0 -4.94391 -2.30857 0 -4.69078 -2.17863 0 -4.45033 -2.05629 0 -4.22197 -1.94106 0 -4.00515 -1.83249 0 -3.79932 -1.73018 0 -3.60396 -1.63373 0 -3.41857 -1.54279 0 -3.24268 -1.45701 0 -3.07583 -1.37607 0 -2.91758 -1.2997 0 -2.76753 -1.22761 0 -2.62526 -1.15953 0 -2.49041 -1.09524 0 -2.36261 -1.03451 0 -2.24151 -0.977115 0 -2.12679 -0.922867 0 -2.01814 -0.871577 0 -1.91525 -0.823072 0 -1.81785 -0.777183 0 -1.72566 -0.733759 0 -1.63844 -0.692654 0 -1.55593 -0.653732 0 -1.4779 -0.616864 0 -1.40415 -0.581927 0 -1.33445 -0.548809 0 -1.26863 -0.517401 0 -1.20648 -0.487602 0 -1.14783 -0.459315 0 -1.09252 -0.432449 0 -1.04039 -0.406919 0 -0.991292 -0.382643 0 -0.945084 -0.359544 0 -0.901636 -0.33755 0 -0.86082 -0.316592 0 -0.822522 -0.296603 0 -0.786631 -0.27752 0 -0.753044 -0.259284 0 -0.721663 -0.24184 0 -0.6924 -0.225131 0 -0.665167 -0.20911 0 -0.639888 -0.193722 0 -0.616489 -0.178924 0 -0.594901 -0.164667 0 -0.575064 -0.15091 0 -0.556918 -0.137611 0 -0.540412 -0.124728 0 -0.525497 -0.112223 0 -0.51213 -0.100056 0 -0.500271 -0.088192 0 -0.489888 -0.0765955 0 -0.480948 -0.0652288 0 -0.473427 -0.0540593 0 -0.467302 -0.0430539 0 -0.462555 -0.0321771 0 -0.459174 -0.0213975 0 -0.457147 -0.0106827 0 -0.456469 1.2219e-06 0 376.565 -6.55651e-07 0 331.805 -113.604 0 253.115 -173.319 0 187.128 -192.658 0 136.342 -194.568 0 97.5543 -188.676 0 67.654 -179.44 0 44.2909 -168.854 0 25.881 -157.899 0 11.2755 -147.08 0 -0.347584 -136.657 0 -9.6029 -126.763 0 -16.9558 -117.457 0 -22.7666 -108.758 0 -27.3185 -100.66 0 -30.8371 -93.1452 0 -33.5041 -86.1857 0 -35.4676 -79.7505 0 -36.8487 -73.8068 0 -37.7476 -68.3212 0 -38.2474 -63.2612 0 -38.4175 -58.5954 0 -38.3159 -54.294 0 -37.9916 -50.3287 0 -37.4856 -46.6734 0 -36.8327 -43.3032 0 -36.0622 -40.1955 0 -35.1988 -37.3291 0 -34.2637 -34.6845 0 -33.2746 -32.2438 0 -32.2465 -29.9903 0 -31.1921 -27.9088 0 -30.1221 -25.9854 0 -29.0454 -24.2072 0 -27.9696 -22.5625 0 -26.901 -21.0404 0 -25.8445 -19.6312 0 -24.8047 -18.3257 0 -23.7848 -17.1156 0 -22.7877 -15.9934 0 -21.8156 -14.9521 0 -20.8701 -13.9853 0 -19.9526 -13.0871 0 -19.0639 -12.2523 0 -18.2046 -11.4758 0 -17.375 -10.7533 0 -16.5753 -10.0806 0 -15.8054 -9.45386 0 -15.065 -8.86967 0 -14.3538 -8.32483 0 -13.6712 -7.81642 0 -13.0168 -7.34174 0 -12.3898 -6.89833 0 -11.7896 -6.4839 0 -11.2154 -6.09639 0 -10.6665 -5.73384 0 -10.142 -5.3945 0 -9.64116 -5.07673 0 -9.16318 -4.77902 0 -8.70721 -4.49997 0 -8.27243 -4.23831 0 -7.85805 -3.99284 0 -7.46325 -3.76248 0 -7.08725 -3.54619 0 -6.72928 -3.34305 0 -6.38859 -3.15219 0 -6.06444 -2.97279 0 -5.75612 -2.8041 0 -5.46295 -2.64544 0 -5.18423 -2.49615 0 -4.91934 -2.35564 0 -4.66765 -2.22336 0 -4.42854 -2.09877 0 -4.20145 -1.9814 0 -3.98581 -1.87079 0 -3.78108 -1.76654 0 -3.58676 -1.66823 0 -3.40235 -1.57553 0 -3.22738 -1.48807 0 -3.06139 -1.40554 0 -2.90396 -1.32764 0 -2.75466 -1.2541 0 -2.61311 -1.18465 0 -2.47893 -1.11905 0 -2.35176 -1.05706 0 -2.23126 -0.998488 0 -2.1171 -0.943112 0 -2.00898 -0.89075 0 -1.90659 -0.841223 0 -1.80965 -0.794367 0 -1.7179 -0.75002 0 -1.63109 -0.708039 0 -1.54897 -0.668283 0 -1.47131 -0.630621 0 -1.3979 -0.594929 0 -1.32853 -0.561093 0 -1.263 -0.529001 0 -1.20114 -0.498551 0 -1.14276 -0.469644 0 -1.08771 -0.442188 0 -1.03582 -0.416094 0 -0.98694 -0.391282 0 -0.940942 -0.367672 0 -0.89769 -0.345189 0 -0.857058 -0.323764 0 -0.818933 -0.303327 0 -0.783202 -0.283818 0 -0.749765 -0.265173 0 -0.718525 -0.247337 0 -0.689392 -0.230254 0 -0.662282 -0.213869 0 -0.637114 -0.198134 0 -0.613819 -0.183 0 -0.592327 -0.168423 0 -0.572578 -0.154354 0 -0.554513 -0.140751 0 -0.538079 -0.127576 0 -0.52323 -0.114786 0 -0.509921 -0.102343 0 -0.498115 -0.0902089 0 -0.487778 -0.0783467 0 -0.478878 -0.0667203 0 -0.471389 -0.0552953 0 -0.465292 -0.0440374 0 -0.460565 -0.0329126 0 -0.457199 -0.0218871 0 -0.455181 -0.0109269 0 -0.454506 -1.19209e-06 0 352.945 8.04663e-07 0 316.217 -102.241 0 247.16 -160.531 0 185.534 -182.366 0 136.781 -186.597 0 98.9041 -182.534 0 69.4045 -174.652 0 46.197 -165.086 0 27.8122 -154.913 0 13.1651 -144.702 0 1.46403 -134.761 0 -7.88727 -125.251 0 -15.3441 -116.256 0 -21.2609 -107.811 0 -25.9171 -99.921 0 -29.5363 -92.5772 0 -32.2992 -85.759 0 -34.353 -79.4409 0 -35.8188 -73.594 0 -36.7966 -68.1888 0 -37.3697 -63.1953 0 -37.6078 -58.5844 0 -37.569 -54.3282 0 -37.3027 -50.4001 0 -36.8502 -46.7748 0 -36.2465 -43.429 0 -35.5212 -40.3407 0 -34.6996 -37.4895 0 -33.8028 -34.8566 0 -32.849 -32.4245 0 -31.8533 -30.1771 0 -30.8287 -28.0996 0 -29.7861 -26.1784 0 -28.7346 -24.4009 0 -27.6819 -22.7556 0 -26.6345 -21.2319 0 -25.5977 -19.8202 0 -24.5759 -18.5115 0 -23.5726 -17.2976 0 -22.5908 -16.1712 0 -21.6327 -15.1252 0 -20.7003 -14.1535 0 -19.7947 -13.2503 0 -18.917 -12.4102 0 -18.0679 -11.6285 0 -17.2478 -10.9006 0 -16.4568 -10.2225 0 -15.6949 -9.59045 0 -14.962 -9.00097 0 -14.2577 -8.45092 0 -13.5815 -7.93738 0 -12.9329 -7.45769 0 -12.3114 -7.00938 0 -11.7163 -