<?xml version="1.0"?> 
<VTKFile type="StructuredGrid" version="0.1"> 
<StructuredGrid WholeExtent="0 127 0 127 0 0"> 
<Piece Extent="0 127 0 127 0 0"> 
<PointData>
<DataArray type="Float32" Name="|E|" format="ascii" NumberOfComponents="3"> 
1.04005e+06 56698 0 1.03191e+06 56206.5 0 1.02384e+06 55712.2 0 1.01585e+06 55215.3 0 1.00792e+06 54716.2 0 1.00007e+06 54214.9 0 992289 53711.9 0 984583 53207.3 0 976950 52701.2 0 969390 52194 0 961904 51685.8 0 954491 51176.7 0 947153 50666.9 0 939888 50156.7 0 932697 49646.1 0 925580 49135.3 0 918536 48624.5 0 911567 48113.7 0 904672 47603.1 0 897850 47092.8 0 891102 46583 0 884428 46073.7 0 877828 45564.9 0 871301 45057 0 864847 44549.8 0 858466 44043.5 0 852159 43538.2 0 845924 43033.9 0 839762 42530.7 0 833673 42028.7 0 827656 41527.9 0 821711 41028.5 0 815838 40530.4 0 810037 40033.6 0 804308 39538.3 0 798650 39044.5 0 793063 38552.2 0 787547 38061.5 0 782101 37572.3 0 776726 37084.8 0 771421 36598.9 0 766187 36114.7 0 761021 35632.2 0 755926 35151.3 0 750899 34672.2 0 745942 34194.9 0 741053 33719.3 0 736232 33245.5 0 731480 32773.4 0 726796 32303.2 0 722179 31834.7 0 717629 31368 0 713147 30903.2 0 708732 30440.1 0 704383 29978.8 0 700100 29519.3 0 695884 29061.6 0 691733 28605.7 0 687648 28151.5 0 683629 27699.2 0 679674 27248.5 0 675784 26799.7 0 671958 26352.6 0 668197 25907.2 0 664500 25463.5 0 660867 25021.6 0 657297 24581.3 0 653790 24142.7 0 650347 23705.7 0 646966 23270.4 0 643648 22836.8 0 640392 22404.7 0 637198 21974.2 0 634066 21545.3 0 630996 21117.9 0 627987 20692 0 625039 20267.7 0 622153 19844.8 0 619327 19423.4 0 616562 19003.4 0 613857 18584.9 0 611212 18167.7 0 608627 17751.9 0 606102 17337.4 0 603636 16924.2 0 601230 16512.4 0 598883 16101.8 0 596595 15692.4 0 594366 15284.2 0 592196 14877.2 0 590084 14471.4 0 588030 14066.7 0 586035 13663.1 0 584097 13260.6 0 582218 12859.1 0 580396 12458.6 0 578632 12059.1 0 576925 11660.6 0 575275 11263 0 573683 10866.3 0 572147 10470.5 0 570669 10075.5 0 569247 9681.29 0 567882 9287.88 0 566574 8895.22 0 565322 8503.28 0 564126 8112.04 0 562987 7721.44 0 561903 7331.48 0 560876 6942.11 0 559905 6553.31 0 558990 6165.05 0 558130 5777.28 0 557327 5389.99 0 556579 5003.15 0 555886 4616.71 0 555250 4230.65 0 554668 3844.94 0 554143 3459.54 0 553672 3074.43 0 553257 2689.57 0 552898 2304.94 0 552594 1920.49 0 552345 1536.2 0 552151 1152.04 0 552013 767.975 0 551930 383.972 0 551902 0 0 1.04001e+06 57134.5 0 1.03187e+06 56639.2 0 1.0238e+06 56141.1 0 1.0158e+06 55640.3 0 1.00787e+06 55137.3 0 1.00002e+06 54632.2 0 992242 54125.3 0 984536 53616.7 0 976903 53106.8 0 969344 52595.6 0 961858 52083.4 0 954445 51570.4 0 947107 51056.7 0 939842 50542.5 0 932652 50028 0 925535 49513.3 0 918492 48998.5 0 911523 48483.7 0 904628 47969.2 0 897807 47455 0 891060 46941.2 0 884386 46427.9 0 877786 45915.3 0 871259 45403.4 0 864805 44892.3 0 858425 44382.1 0 852118 43872.9 0 845884 43364.7 0 839722 42857.7 0 833633 42351.8 0 827616 41847.2 0 821672 41343.9 0 815800 40841.9 0 809999 40341.3 0 804270 39842.2 0 798612 39344.6 0 793025 38848.5 0 787510 38354 0 782065 37861.1 0 776690 37369.8 0 771386 36880.2 0 766151 36392.2 0 760986 35906 0 755891 35421.5 0 750865 34938.7 0 745907 34457.7 0 741019 33978.5 0 736199 33501 0 731447 33025.3 0 726763 32551.4 0 722146 32079.4 0 717597 31609.1 0 713115 31140.6 0 708700 30674 0 704351 30209.2 0 700069 29746.1 0 695853 29284.9 0 691703 28825.5 0 687618 28367.9 0 683598 27912 0 679644 27457.9 0 675754 27005.6 0 671929 26555.1 0 668168 26106.3 0 664471 25659.2 0 660838 25213.8 0 657268 24770.2 0 653762 24328.2 0 650319 23887.9 0 646938 23449.2 0 643620 23012.2 0 640365 22576.8 0 637171 22143 0 634040 21710.8 0 630969 21280.2 0 627961 20851 0 625013 20423.4 0 622127 19997.3 0 619301 19572.7 0 616536 19149.5 0 613831 18727.7 0 611187 18307.3 0 608602 17888.3 0 606077 17470.6 0 603612 17054.3 0 601206 16639.3 0 598859 16225.5 0 596571 15813 0 594343 15401.7 0 592172 14991.6 0 590060 14582.6 0 588007 14174.8 0 586012 13768.1 0 584074 13362.5 0 582195 12957.9 0 580373 12554.4 0 578609 12151.8 0 576902 11750.2 0 575253 11349.6 0 573661 10949.8 0 572125 10550.9 0 570647 10152.9 0 569225 9755.68 0 567860 9359.25 0 566552 8963.58 0 565300 8568.63 0 564105 8174.37 0 562965 7780.78 0 561882 7387.82 0 560855 6995.46 0 559884 6603.67 0 558969 6212.42 0 558109 5821.68 0 557306 5431.41 0 556558 5041.59 0 555865 4652.19 0 555229 4263.16 0 554648 3874.48 0 554122 3486.13 0 553652 3098.06 0 553237 2710.24 0 552877 2322.65 0 552573 1935.25 0 552324 1548.01 0 552130 1160.89 0 551992 773.877 0 551909 386.922 0 551881 0 0 1.03996e+06 57571.1 0 1.03182e+06 57071.9 0 1.02375e+06 56569.9 0 1.01575e+06 56065.3 0 1.00783e+06 55558.4 0 999974 55049.4 0 992195 54538.6 0 984489 54026.1 0 976856 53512.3 0 969297 52997.2 0 961811 52481 0 954399 51964.1 0 947061 51446.5 0 939797 50928.3 0 932607 50409.9 0 925490 49891.2 0 918448 49372.4 0 911479 48853.8 0 904585 48335.3 0 897764 47817.1 0 891017 47299.4 0 884343 46782.2 0 877743 46265.6 0 871217 45749.8 0 864764 45234.8 0 858384 44720.7 0 852077 44207.6 0 845843 43695.5 0 839682 43184.6 0 833593 42674.9 0 827577 42166.4 0 821633 41659.2 0 815761 41153.4 0 809960 40649.1 0 804232 40146.1 0 798574 39644.7 0 792988 39144.8 0 787473 38646.6 0 782028 38149.9 0 776654 37654.8 0 771349 37161.5 0 766115 36669.8 0 760951 36179.8 0 755856 35691.6 0 750830 35205.2 0 745873 34720.5 0 740985 34237.6 0 736165 33756.5 0 731413 33277.2 0 726729 32799.7 0 722113 32324 0 717564 31850.1 0 713083 31378.1 0 708668 30907.9 0 704320 30439.5 0 700038 29973 0 695822 29508.2 0 691672 29045.3 0 687587 28584.2 0 683568 28124.8 0 679614 27667.3 0 675724 27211.6 0 671900 26757.6 0 668139 26305.3 0 664442 25854.8 0 660809 25406.1 0 657240 24959 0 653734 24513.7 0 650291 24070 0 646911 23628.1 0 643593 23187.7 0 640337 22749 0 637144 22311.9 0 634013 21876.4 0 630943 21442.4 0 627935 21010 0 624987 20579.2 0 622101 20149.8 0 619276 19721.9 0 616511 19295.5 0 613806 18870.5 0 611162 18446.9 0 608577 18024.7 0 606053 17603.8 0 603587 17184.3 0 601182 16766.1 0 598835 16349.2 0 596547 15933.6 0 594319 15519.1 0 592148 15105.9 0 590037 14693.8 0 587984 14282.9 0 585988 13873.1 0 584051 13464.4 0 582172 13056.7 0 580350 12650.1 0 578586 12244.5 0 576880 11839.8 0 575230 11436.1 0 573638 11033.3 0 572103 10631.4 0 570625 10230.3 0 569203 9830.07 0 567838 9430.62 0 566530 9031.93 0 565278 8633.97 0 564083 8236.7 0 562944 7840.11 0 561860 7444.15 0 560833 7048.8 0 559862 6654.03 0 558947 6259.79 0 558088 5866.07 0 557284 5472.83 0 556537 5080.04 0 555844 4687.66 0 555208 4295.67 0 554627 3904.03 0 554101 3512.71 0 553631 3121.68 0 553216 2730.91 0 552856 2340.36 0 552552 1950.01 0 552303 1559.81 0 552110 1169.75 0 551971 779.778 0 551888 389.873 0 551860 0 0 1.03991e+06 58007.6 0 1.03177e+06 57504.6 0 1.0237e+06 56998.8 0 1.0157e+06 56490.3 0 1.00778e+06 55979.5 0 999926 55466.7 0 992147 54951.9 0 984441 54435.5 0 976809 53917.7 0 969250 53398.7 0 961765 52878.7 0 954353 52357.8 0 947015 51836.2 0 939752 51314.1 0 932562 50791.7 0 925445 50269.1 0 918403 49746.4 0 911435 49223.7 0 904541 48701.3 0 897720 48179.2 0 890973 47657.6 0 884300 47136.4 0 877701 46616 0 871175 46096.2 0 864722 45577.3 0 858342 45059.3 0 852036 44542.3 0 845802 44026.3 0 839641 43511.5 0 833553 42997.9 0 827537 42485.6 0 821593 41974.6 0 815722 41465 0 809922 40956.8 0 804193 40450 0 798536 39944.8 0 792950 39441.1 0 787435 38939.1 0 781991 38438.6 0 776617 37939.8 0 771313 37442.7 0 766079 36947.3 0 760915 36453.7 0 755820 35961.8 0 750795 35471.6 0 745838 34983.2 0 740950 34496.7 0 736131 34011.9 0 731379 33529 0 726696 33047.9 0 722080 32568.6 0 717532 32091.2 0 713050 31615.6 0 708636 31141.8 0 704288 30669.9 0 700006 30199.8 0 695791 29731.5 0 691641 29265.1 0 687557 28800.5 0 683538 28337.7 0 679584 27876.7 0 675695 27417.5 0 671870 26960 0 668110 26504.4 0 664413 26050.5 0 660780 25598.3 0 657211 25147.9 0 653706 24699.2 0 650263 24252.2 0 646883 23806.8 0 643565 23363.2 0 640310 22921.1 0 637117 22480.7 0 633986 22041.9 0 630916 21604.7 0 627908 21169 0 624961 20734.9 0 622075 20302.3 0 619250 19871.1 0 616485 19441.5 0 613781 19013.3 0 611136 18586.5 0 608552 18161.1 0 606028 17737.1 0 603563 17314.4 0 601157 16893 0 598811 16472.9 0 596523 16054.1 0 594295 15636.5 0 592125 15220.2 0 590013 14805 0 587960 14391 0 585965 13978.1 0 584028 13566.3 0 582149 13155.5 0 580327 12745.8 0 578563 12337.1 0 576857 11929.4 0 575208 11522.6 0 573616 11116.8 0 572081 10711.8 0 570602 10307.7 0 569181 9904.45 0 567816 9501.98 0 566508 9100.27 0 565256 8699.3 0 564061 8299.03 0 562922 7899.44 0 561839 7500.48 0 560812 7102.14 0 559841 6704.38 0 558926 6307.16 0 558067 5910.46 0 557263 5514.24 0 556515 5118.48 0 555823 4723.13 0 555186 4328.17 0 554605 3933.57 0 554080 3539.29 0 553610 3145.3 0 553195 2751.57 0 552835 2358.07 0 552531 1964.76 0 552282 1571.62 0 552089 1178.6 0 551950 785.678 0 551867 392.823 0 551839 0 0 1.03986e+06 58444.1 0 1.03172e+06 57937.3 0 1.02365e+06 57427.6 0 1.01565e+06 56915.3 0 1.00773e+06 56400.6 0 999878 55883.9 0 992099 55365.2 0 984394 54844.9 0 976762 54323.2 0 969203 53800.3 0 961718 53276.3 0 954307 52751.4 0 946969 52225.9 0 939706 51699.9 0 932516 51173.5 0 925400 50646.9 0 918358 50120.3 0 911391 49593.7 0 904497 49067.4 0 897676 48541.3 0 890930 48015.7 0 884257 47490.7 0 877658 46966.3 0 871132 46442.6 0 864680 45919.8 0 858301 45397.9 0 851994 44877 0 845761 44357.1 0 839601 43838.4 0 833513 43321 0 827497 42804.8 0 821554 42289.9 0 815682 41776.5 0 809883 41264.4 0 804155 40753.9 0 798498 40244.9 0 792912 39737.4 0 787398 39231.6 0 781954 38727.3 0 776580 38224.8 0 771277 37724 0 766043 37224.8 0 760879 36727.5 0 755785 36231.9 0 750760 35738 0 745803 35246 0 740916 34755.8 0 736097 34267.4 0 731345 33780.8 0 726662 33296.1 0 722047 32813.2 0 717499 32332.2 0 713018 31853 0 708603 31375.7 0 704256 30900.2 0 699974 30426.6 0 695759 29954.8 0 691610 29484.9 0 687526 29016.8 0 683507 28550.5 0 679553 28086 0 675664 27623.4 0 671840 27162.5 0 668080 26703.4 0 664384 26246.1 0 660751 25790.6 0 657183 25336.8 0 653677 24884.7 0 650234 24434.3 0 646855 23985.6 0 643537 23538.6 0 640282 23093.3 0 637090 22649.5 0 633959 22207.4 0 630889 21766.9 0 627881 21328 0 624934 20890.6 0 622049 20454.7 0 619224 20020.4 0 616459 19587.5 0 613755 19156 0 611111 18726.1 0 608527 18297.5 0 606002 17870.2 0 603538 17444.4 0 601132 17019.9 0 598786 16596.6 0 596499 16174.7 0 594270 15754 0 592100 15334.5 0 589989 14916.2 0 587936 14499 0 585941 14083 0 584004 13668.1 0 582125 13254.3 0 580304 12841.5 0 578540 12429.8 0 576834 12019 0 575185 11609.2 0 573593 11200.3 0 572058 10792.3 0 570580 10385.1 0 569159 9978.83 0 567794 9573.33 0 566486 9168.61 0 565234 8764.63 0 564039 8361.35 0 562900 7958.76 0 561817 7556.81 0 560790 7155.48 0 559819 6754.72 0 558904 6354.53 0 558045 5954.85 0 557242 5555.65 0 556494 5156.92 0 555802 4758.6 0 555165 4360.68 0 554584 3963.11 0 554058 3565.87 0 553588 3168.92 0 553173 2772.24 0 552814 2375.78 0 552510 1979.52 0 552261 1583.42 0 552068 1187.45 0 551929 791.578 0 551846 395.773 0 551818 0 0 1.03981e+06 58880.6 0 1.03167e+06 58370 0 1.0236e+06 57856.5 0 1.0156e+06 57340.3 0 1.00768e+06 56821.7 0 999829 56301.1 0 992051 55778.5 0 984346 55254.3 0 976714 54728.7 0 969156 54201.8 0 961671 53673.8 0 954260 53145.1 0 946923 52615.6 0 939660 52085.6 0 932470 51555.3 0 925355 51024.8 0 918313 50494.2 0 911346 49963.7 0 904452 49433.4 0 897632 48903.4 0 890886 48373.9 0 884214 47844.9 0 877615 47316.5 0 871089 46789 0 864637 46262.2 0 858259 45736.4 0 851953 45211.6 0 845720 44687.9 0 839560 44165.3 0 833472 43644 0 827457 43123.9 0 821514 42605.2 0 815643 42087.9 0 809844 41572.1 0 804116 41057.7 0 798459 40544.9 0 792874 40033.7 0 787360 39524 0 781916 39016.1 0 776543 38509.8 0 771240 38005.2 0 766007 37502.3 0 760843 37001.2 0 755749 36501.9 0 750724 36004.4 0 745768 35508.7 0 740881 35014.8 0 736062 34522.8 0 731311 34032.6 0 726629 33544.3 0 722013 33057.8 0 717465 32573.2 0 712985 32090.4 0 708571 31609.5 0 704223 31130.5 0 699942 30653.4 0 695727 30178.1 0 691578 29704.6 0 687495 29233 0 683476 28763.3 0 679523 28295.4 0 675634 27829.2 0 671810 27365 0 668050 26902.5 0 664354 26441.7 0 660722 25982.8 0 657154 25525.6 0 653648 25070.1 0 650206 24616.4 0 646826 24164.4 0 643509 23714 0 640255 23265.4 0 637062 22818.3 0 633931 22372.9 0 630862 21929.1 0 627854 21486.9 0 624908 21046.3 0 622022 20607.2 0 619197 20169.6 0 616433 19733.5 0 613729 19298.8 0 611085 18865.6 0 608501 18433.8 0 605977 18003.4 0 603513 17574.4 0 601107 17146.7 0 598761 16720.3 0 596474 16295.2 0 594246 15871.4 0 592076 15448.8 0 589965 15027.3 0 587912 14607.1 0 585917 14188 0 583981 13770 0 582102 13353.1 0 580281 12937.2 0 578517 12522.4 0 576811 12108.6 0 575162 11695.7 0 573570 11283.7 0 572035 10872.7 0 570557 10462.5 0 569136 10053.2 0 567772 9644.69 0 566464 9236.94 0 565212 8829.95 0 564017 8423.67 0 562878 8018.08 0 561795 7613.13 0 560768 7208.81 0 559797 6805.07 0 558882 6401.89 0 558023 5999.23 0 557220 5597.06 0 556472 5195.35 0 555780 4794.07 0 555144 4393.18 0 554563 3992.65 0 554037 3592.45 0 553567 3192.54 0 553152 2792.9 0 552793 2393.49 0 552489 1994.27 0 552240 1595.22 0 552046 1196.3 0 551908 797.478 0 551825 398.723 0 551797 0 0 1.03976e+06 59317.1 0 1.03162e+06 58802.7 0 1.02355e+06 58285.3 0 1.01556e+06 57765.2 0 1.00763e+06 57242.8 0 999781 56718.2 0 992003 56191.8 0 984298 55663.7 0 976666 55134.1 0 969108 54603.3 0 961624 54071.4 0 954213 53538.7 0 946876 53005.3 0 939613 52471.4 0 932424 51937.1 0 925309 51402.6 0 918268 50868.1 0 911301 50333.6 0 904408 49799.4 0 897588 49265.4 0 890842 48732 0 884170 48199.1 0 877572 47666.8 0 871047 47135.3 0 864595 46604.6 0 858216 46074.9 0 851911 45546.2 0 845678 45018.6 0 839519 44492.2 0 833431 43967 0 827417 43443.1 0 821474 42920.5 0 815603 42399.4 0 809804 41879.7 0 804077 41361.5 0 798421 40844.9 0 792836 40329.9 0 787322 39816.5 0 781879 39304.7 0 776506 38794.7 0 771203 38286.4 0 765970 37779.8 0 760807 37275 0 755713 36772 0 750689 36270.8 0 745733 35771.4 0 740846 35273.9 0 736027 34778.2 0 731277 34284.4 0 726595 33792.4 0 721980 33302.4 0 717432 32814.2 0 712952 32327.8 0 708538 31843.4 0 704191 31360.8 0 699910 30880.1 0 695696 30401.3 0 691547 29924.4 0 687463 29449.3 0 683445 28976.1 0 679492 28504.7 0 675604 28035.1 0 671780 27567.4 0 668020 27101.5 0 664325 26637.3 0 660693 26175 0 657124 25714.4 0 653619 25255.6 0 650177 24798.5 0 646798 24343.1 0 643481 23889.5 0 640227 23437.5 0 637034 22987.1 0 633904 22538.4 0 630835 22091.4 0 627827 21645.9 0 624881 21202 0 621996 20759.6 0 619171 20318.8 0 616407 19879.4 0 613703 19441.6 0 611059 19005.2 0 608476 18570.2 0 605952 18136.6 0 603487 17704.4 0 601082 17273.5 0 598736 16844 0 596449 16415.8 0 594221 15988.8 0 592052 15563 0 589941 15138.5 0 587888 14715.2 0 585893 14292.9 0 583957 13871.9 0 582078 13451.9 0 580257 13032.9 0 578494 12615 0 576788 12198.1 0 575139 11782.2 0 573547 11367.2 0 572012 10953.1 0 570534 10539.9 0 569113 10127.6 0 567749 9716.03 0 566441 9305.27 0 565190 8895.27 0 563994 8485.98 0 562855 8077.39 0 561773 7669.45 0 560746 7262.13 0 559775 6855.41 0 558860 6449.24 0 558001 6043.61 0 557198 5638.46 0 556450 5233.78 0 555758 4829.53 0 555122 4425.67 0 554541 4022.18 0 554015 3619.02 0 553545 3216.16 0 553131 2813.56 0 552771 2411.19 0 552467 2009.02 0 552218 1607.02 0 552025 1205.15 0 551886 803.377 0 551803 401.672 0 551776 0 0 1.03971e+06 59753.6 0 1.03157e+06 59235.3 0 1.0235e+06 58714.1 0 1.01551e+06 58190.2 0 1.00758e+06 57663.9 0 999732 57135.4 0 991954 56605 0 984250 56073 0 976618 55539.5 0 969061 55004.8 0 961577 54469 0 954166 53932.3 0 946830 53394.9 0 939567 52857.1 0 932378 52318.8 0 925264 51780.4 0 918223 51241.9 0 911256 50703.5 0 904363 50165.3 0 897544 49627.5 0 890798 49090.1 0 884126 48553.2 0 877528 48017 0 871004 47481.6 0 864552 46947.1 0 858174 46413.4 0 851869 45880.8 0 845637 45349.4 0 839477 44819 0 833390 44290 0 827376 43762.2 0 821434 43235.8 0 815563 42710.8 0 809765 42187.3 0 804038 41665.3 0 798382 41144.9 0 792797 40626.1 0 787284 40108.9 0 781841 39593.4 0 776468 39079.6 0 771166 38567.6 0 765933 38057.3 0 760770 37548.8 0 755677 37042 0 750653 36537.2 0 745697 36034.1 0 740811 35532.9 0 735993 35033.6 0 731243 34536.2 0 726560 34040.6 0 721946 33546.9 0 717398 33055.1 0 712918 32565.2 0 708505 32077.2 0 704158 31591.1 0 699878 31106.9 0 695663 30624.6 0 691515 30144.1 0 687432 29665.5 0 683414 29188.8 0 679461 28714 0 675573 28241 0 671749 27769.8 0 667990 27300.5 0 664295 26832.9 0 660663 26367.2 0 657095 25903.2 0 653590 25441 0 650148 24980.6 0 646769 24521.9 0 643453 24064.9 0 640199 23609.6 0 637006 23155.9 0 633876 22703.9 0 630807 22253.6 0 627800 21804.8 0 624854 21357.6 0 621969 20912 0 619144 20468 0 616380 20025.4 0 613677 19584.3 0 611033 19144.7 0 608450 18706.5 0 605926 18269.8 0 603462 17834.4 0 601057 17400.4 0 598711 16967.7 0 596424 16536.3 0 594196 16106.2 0 592027 15677.3 0 589916 15249.7 0 587864 14823.2 0 585869 14397.9 0 583933 13973.7 0 582054 13550.6 0 580233 13128.6 0 578470 12707.7 0 576764 12287.7 0 575115 11868.7 0 573524 11450.7 0 571989 11033.6 0 570511 10617.3 0 569090 10201.9 0 567726 9787.37 0 566418 9373.6 0 565167 8960.58 0 563972 8548.29 0 562833 8136.7 0 561750 7725.76 0 560724 7315.45 0 559753 6905.74 0 558838 6496.6 0 557979 6087.98 0 557176 5679.86 0 556428 5272.21 0 555736 4864.99 0 555100 4458.17 0 554519 4051.72 0 553994 3645.59 0 553524 3239.77 0 553109 2834.22 0 552750 2428.9 0 552445 2023.77 0 552197 1618.82 0 552003 1214 0 551865 809.276 0 551782 404.622 0 551754 0 0 1.03966e+06 60190.1 0 1.03152e+06 59668 0 1.02345e+06 59142.9 0 1.01546e+06 58615.1 0 1.00753e+06 58084.9 0 999683 57552.6 0 991906 57018.3 0 984201 56482.3 0 976570 55944.9 0 969013 55406.2 0 961529 54866.5 0 954119 54325.9 0 946783 53784.6 0 939520 53242.8 0 932332 52700.6 0 925218 52158.2 0 918177 51615.8 0 911210 51073.4 0 904318 50531.3 0 897499 49989.5 0 890754 49448.1 0 884082 48907.4 0 877485 48367.3 0 870960 47827.9 0 864509 47289.4 0 858131 46751.9 0 851827 46215.4 0 845595 45680.1 0 839436 45145.9 0 833349 44612.9 0 827335 44081.3 0 821393 43551.1 0 815523 43022.2 0 809725 42494.9 0 803998 41969.1 0 798343 41444.9 0 792759 40922.3 0 787245 40401.3 0 781803 39882.1 0 776430 39364.5 0 771128 38848.7 0 765896 38334.7 0 760734 37822.5 0 755641 37312.1 0 750617 36803.5 0 745662 36296.8 0 740776 35791.9 0 735958 35289 0 731208 34787.9 0 726526 34288.7 0 721912 33791.4 0 717365 33296.1 0 712885 32802.6 0 708472 32311 0 704125 31821.4 0 699845 31333.6 0 695631 30847.8 0 691483 30363.8 0 687400 29881.8 0 683382 29401.6 0 679430 28923.3 0 675542 28446.8 0 671719 27972.2 0 667960 27499.4 0 664265 27028.5 0 660633 26559.4 0 657066 26092 0 653561 25626.5 0 650119 25162.7 0 646741 24700.6 0 643424 24240.3 0 640170 23781.6 0 636978 23324.7 0 633848 22869.4 0 630780 22415.8 0 627773 21963.7 0 624827 21513.3 0 621942 21064.4 0 619118 20617.1 0 616354 20171.3 0 613650 19727.1 0 611007 19284.2 0 608424 18842.9 0 605900 18402.9 0 603436 17964.4 0 601031 17527.2 0 598686 17091.4 0 596399 16656.8 0 594172 16223.6 0 592002 15791.6 0 589892 15360.8 0 587839 14931.2 0 585845 14502.8 0 583909 14075.6 0 582030 13649.4 0 580210 13224.3 0 578446 12800.3 0 576740 12377.3 0 575092 11955.2 0 573500 11534.1 0 571966 11114 0 570488 10694.7 0 569067 10276.3 0 567703 9858.7 0 566395 9441.92 0 565144 9025.89 0 563949 8610.6 0 562810 8196 0 561728 7782.07 0 560701 7368.77 0 559731 6956.08 0 558816 6543.95 0 557957 6132.35 0 557154 5721.26 0 556406 5310.64 0 555714 4900.45 0 555078 4490.66 0 554497 4081.25 0 553972 3672.17 0 553502 3263.39 0 553087 2854.87 0 552728 2446.6 0 552424 2038.52 0 552175 1630.62 0 551981 1222.85 0 551843 815.175 0 551760 407.571 0 551732 0 0 1.03961e+06 60626.6 0 1.03147e+06 60100.6 0 1.0234e+06 59571.7 0 1.01541e+06 59040 0 1.00748e+06 58505.9 0 999634 57969.7 0 991857 57431.5 0 984153 56891.6 0 976522 56350.3 0 968965 55807.7 0 961481 55264 0 954071 54719.4 0 946736 54174.2 0 939474 53628.4 0 932285 53082.3 0 925171 52536 0 918131 51989.6 0 911165 51443.3 0 904273 50897.2 0 897454 50351.5 0 890709 49806.2 0 884038 49261.5 0 877441 48717.5 0 870917 48174.2 0 864466 47631.8 0 858089 47090.4 0 851784 46550 0 845553 46010.7 0 839394 45472.7 0 833308 44935.9 0 827294 44400.4 0 821352 43866.3 0 815483 43333.6 0 809685 42802.5 0 803959 42272.9 0 798304 41744.9 0 792720 41218.5 0 787207 40693.7 0 781764 40170.7 0 776393 39649.4 0 771091 39129.9 0 765859 38612.1 0 760697 38096.2 0 755604 37582.1 0 750581 37069.8 0 745626 36559.4 0 740740 36050.9 0 735922 35544.3 0 731173 35039.6 0 726491 34536.8 0 721877 34035.9 0 717331 33537 0 712851 33039.9 0 708439 32544.8 0 704092 32051.6 0 699813 31560.3 0 695599 31071 0 691451 30583.5 0 687368 30098 0 683351 29614.3 0 679399 29132.5 0 675511 28652.6 0 671688 28174.6 0 667929 27698.4 0 664234 27224.1 0 660603 26751.5 0 657036 26280.8 0 653531 25811.9 0 650090 25344.7 0 646712 24879.3 0 643396 24415.7 0 640142 23953.7 0 636950 23493.4 0 633820 23034.9 0 630752 22577.9 0 627745 22122.6 0 624799 21669 0 621915 21216.8 0 619091 20766.3 0 616327 20317.3 0 613624 19869.8 0 610981 19423.8 0 608398 18979.2 0 605874 18536.1 0 603410 18094.4 0 601006 17654 0 598660 17215 0 596374 16777.3 0 594146 16340.9 0 591977 15905.8 0 589867 15471.9 0 587815 15039.3 0 585821 14607.8 0 583884 14177.4 0 582006 13748.2 0 580185 13320 0 578422 12892.9 0 576717 12466.8 0 575068 12041.7 0 573477 11617.6 0 571942 11194.4 0 570465 10772.1 0 569044 10350.6 0 567680 9930.03 0 566372 9510.23 0 565121 9091.19 0 563926 8672.9 0 562788 8255.3 0 561705 7838.37 0 560679 7422.09 0 559708 7006.4 0 558794 6591.29 0 557935 6176.72 0 557132 5762.66 0 556384 5349.06 0 555692 4935.91 0 555056 4523.15 0 554475 4110.78 0 553950 3698.73 0 553480 3287 0 553065 2875.53 0 552706 2464.3 0 552402 2053.27 0 552153 1642.42 0 551959 1231.69 0 551821 821.073 0 551738 410.519 0 551710 0 0 1.03956e+06 61063 0 1.03142e+06 60533.2 0 1.02335e+06 60000.4 0 1.01536e+06 59464.9 0 1.00743e+06 58927 0 999585 58386.8 0 991808 57844.7 0 984104 57300.9 0 976473 56755.7 0 968916 56209.1 0 961433 55661.5 0 954024 55113 0 946688 54563.8 0 939426 54014.1 0 932239 53464 0 925125 52913.7 0 918085 52363.4 0 911119 51813.2 0 904227 51263.1 0 897409 50713.4 0 890665 50164.2 0 883994 49615.6 0 877397 49067.6 0 870873 48520.5 0 864423 47974.2 0 858046 47428.8 0 851742 46884.6 0 845511 46341.4 0 839352 45799.5 0 833266 45258.8 0 827253 44719.4 0 821312 44181.5 0 815442 43645 0 809645 43110 0 803919 42576.6 0 798264 42044.8 0 792681 41514.6 0 787168 40986.1 0 781726 40459.3 0 776354 39934.3 0 771053 39411 0 765822 38889.5 0 760660 38369.9 0 755567 37852.1 0 750544 37336.1 0 745590 36822.1 0 740704 36309.9 0 735887 35799.7 0 731138 35291.3 0 726457 34784.9 0 721843 34280.4 0 717297 33777.9 0 712817 33277.3 0 708405 32778.6 0 704059 32281.9 0 699780 31787 0 695566 31294.2 0 691418 30803.2 0 687336 30314.2 0 683319 29827 0 679367 29341.8 0 675480 28858.4 0 671657 28377 0 667899 27897.4 0 664204 27419.6 0 660573 26943.7 0 657006 26469.6 0 653502 25997.3 0 650061 25526.8 0 646682 25058 0 643367 24591 0 640113 24125.8 0 636922 23662.2 0 633792 23200.3 0 630724 22740.1 0 627717 22281.5 0 624772 21824.6 0 621887 21369.2 0 619063 20915.5 0 616300 20463.2 0 613597 20012.5 0 610954 19563.3 0 608371 19115.5 0 605848 18669.2 0 603384 18224.3 0 600980 17780.8 0 598635 17338.7 0 596349 16897.8 0 594121 16458.3 0 591952 16020.1 0 589842 15583.1 0 587790 15147.3 0 585796 14712.7 0 583860 14279.2 0 581982 13846.9 0 580161 13415.7 0 578398 12985.5 0 576693 12556.3 0 575044 12128.2 0 573453 11701 0 571919 11274.8 0 570441 10849.4 0 569021 10425 0 567657 10001.4 0 566349 9578.54 0 565098 9156.49 0 563903 8735.19 0 562765 8314.59 0 561682 7894.67 0 560656 7475.4 0 559686 7056.73 0 558771 6638.64 0 557912 6221.09 0 557109 5804.05 0 556362 5387.48 0 555670 4971.36 0 555034 4555.64 0 554453 4140.3 0 553927 3725.3 0 553457 3310.61 0 553043 2896.18 0 552684 2482 0 552380 2068.02 0 552131 1654.21 0 551937 1240.54 0 551799 826.97 0 551716 413.468 0 551688 0 0 1.03951e+06 61499.4 0 1.03137e+06 60965.8 0 1.0233e+06 60429.2 0 1.01531e+06 59889.8 0 1.00738e+06 59348 0 999535 58803.9 0 991758 58257.9 0 984055 57710.2 0 976425 57161 0 968868 56610.5 0 961385 56059 0 953976 55506.5 0 946641 54953.4 0 939379 54399.7 0 932192 53845.7 0 925078 53291.5 0 918039 52737.2 0 911073 52183 0 904181 51629 0 897364 51075.4 0 890620 50522.2 0 883949 49969.7 0 877352 49417.8 0 870829 48866.7 0 864379 48316.5 0 858002 47767.3 0 851699 47219.1 0 845468 46672 0 839310 46126.2 0 833225 45581.7 0 827211 45038.5 0 821270 44496.7 0 815402 43956.4 0 809604 43417.6 0 803879 42880.3 0 798224 42344.7 0 792641 41810.7 0 787129 41278.5 0 781687 40747.9 0 776316 40219.1 0 771015 39692.1 0 765784 39166.9 0 760623 38643.5 0 755530 38122 0 750508 37602.4 0 745554 37084.7 0 740668 36568.9 0 735851 36055 0 731103 35543 0 726422 35033 0 721808 34524.9 0 717262 34018.8 0 712783 33514.6 0 708371 33012.4 0 704026 32512.1 0 699746 32013.7 0 695533 31517.3 0 691386 31022.9 0 687304 30530.3 0 683287 30039.7 0 679335 29551 0 675448 29064.2 0 671626 28579.3 0 667868 28096.3 0 664173 27615.1 0 660543 27135.8 0 656976 26658.3 0 653472 26182.7 0 650031 25708.8 0 646653 25236.7 0 643338 24766.4 0 640084 24297.8 0 636893 23830.9 0 633764 23365.8 0 630696 22902.3 0 627689 22440.4 0 624744 21980.2 0 621860 21521.6 0 619036 21064.6 0 616273 20609.1 0 613570 20155.2 0 610928 19702.8 0 608345 19251.8 0 605822 18802.3 0 603358 18354.3 0 600954 17907.6 0 598609 17462.3 0 596323 17018.3 0 594096 16575.7 0 591927 16134.3 0 589817 15694.2 0 587765 15255.3 0 585771 14817.6 0 583835 14381 0 581957 13945.6 0 580137 13511.3 0 578374 13078.1 0 576669 12645.9 0 575020 12214.7 0 573429 11784.5 0 571895 11355.2 0 570418 10926.8 0 568997 10499.3 0 567633 10072.7 0 566326 9646.84 0 565075 9221.79 0 563880 8797.48 0 562742 8373.88 0 561659 7950.97 0 560633 7528.7 0 559663 7107.05 0 558748 6685.98 0 557889 6265.45 0 557086 5845.44 0 556339 5425.9 0 555647 5006.81 0 555011 4588.13 0 554430 4169.83 0 553905 3751.87 0 553435 3334.21 0 553021 2916.84 0 552661 2499.7 0 552357 2082.77 0 552109 1666.01 0 551915 1249.39 0 551777 832.867 0 551694 416.416 0 551666 0 0 1.03946e+06 61935.9 0 1.03132e+06 61398.4 0 1.02325e+06 60857.9 0 1.01526e+06 60314.7 0 1.00733e+06 59768.9 0 999485 59221 0 991709 58671.1 0 984005 58119.5 0 976376 57566.3 0 968819 57011.9 0 961337 56456.4 0 953928 55900 0 946593 55343 0 939332 54785.3 0 932145 54227.4 0 925031 53669.2 0 917992 53110.9 0 911027 52552.8 0 904136 51994.9 0 897318 51437.3 0 890574 50880.2 0 883904 50323.7 0 877308 49767.9 0 870785 49212.9 0 864335 48658.8 0 857959 48105.7 0 851656 47553.6 0 845425 47002.7 0 839268 46453 0 833183 45904.6 0 827170 45357.5 0 821229 44811.9 0 815361 44267.7 0 809564 43725.1 0 803839 43184 0 798185 42644.6 0 792602 42106.8 0 787090 41570.8 0 781649 41036.5 0 776278 40503.9 0 770977 39973.2 0 765746 39444.3 0 760585 38917.2 0 755493 38392 0 750471 37868.7 0 745517 37347.3 0 740632 36827.8 0 735816 36310.3 0 731067 35794.7 0 726386 35281.1 0 721773 34769.4 0 717228 34259.7 0 712749 33751.9 0 708337 33246.1 0 703992 32742.3 0 699713 32240.4 0 695500 31740.5 0 691353 31242.5 0 687271 30746.5 0 683255 30252.4 0 679304 29760.2 0 675417 29270 0 671595 28781.7 0 667837 28295.2 0 664143 27810.6 0 660512 27327.9 0 656946 26847.1 0 653442 26368 0 650001 25890.8 0 646624 25415.4 0 643308 24941.7 0 640055 24469.8 0 636864 23999.6 0 633735 23531.2 0 630667 23064.4 0 627661 22599.3 0 624716 22135.8 0 621832 21674 0 619009 21213.7 0 616246 20755 0 613543 20297.9 0 610901 19842.3 0 608318 19388.1 0 605795 18935.5 0 603332 18484.2 0 600928 18034.4 0 598583 17585.9 0 596297 17138.8 0 594070 16693 0 591902 16248.5 0 589792 15805.3 0 587740 15363.3 0 585746 14922.5 0 583810 14482.9 0 581933 14044.4 0 580112 13607 0 578350 13170.7 0 576644 12735.4 0 574996 12301.2 0 573405 11867.9 0 571871 11435.6 0 570394 11004.2 0 568974 10573.7 0 567610 10144 0 566302 9715.14 0 565052 9287.08 0 563857 8859.76 0 562719 8433.17 0 561636 8007.26 0 560610 7582.01 0 559640 7157.37 0 558725 6733.31 0 557867 6309.81 0 557064 5886.82 0 556316 5464.31 0 555625 5042.26 0 554988 4620.61 0 554408 4199.35 0 553882 3778.43 0 553413 3357.82 0 552998 2937.49 0 552639 2517.4 0 552335 2097.51 0 552086 1677.8 0 551893 1258.23 0 551755 838.764 0 551671 419.365 0 551644 0 0 1.03941e+06 62372.3 0 1.03127e+06 61831 0 1.0232e+06 61286.6 0 1.01521e+06 60739.5 0 1.00728e+06 60189.9 0 999435 59638.1 0 991659 59084.3 0 983956 58528.7 0 976326 57971.7 0 968770 57413.3 0 961288 56853.9 0 953879 56293.5 0 946545 55732.5 0 939284 55170.9 0 932097 54609 0 924984 54046.9 0 917945 53484.7 0 910981 52922.6 0 904090 52360.7 0 897272 51799.2 0 890529 51238.2 0 883859 50677.8 0 877263 50118 0 870741 49559.1 0 864291 49001.1 0 857915 48444 0 851612 47888.1 0 845382 47333.3 0 839225 46779.7 0 833140 46227.4 0 827128 45676.5 0 821188 45127 0 815319 44579 0 809523 44032.6 0 803798 43487.7 0 798145 42944.5 0 792562 42402.9 0 787051 41863.1 0 781610 41325 0 776239 40788.7 0 770939 40254.2 0 765708 39721.6 0 760547 39190.8 0 755456 38661.9 0 750434 38134.9 0 745480 37609.9 0 740596 37086.8 0 735780 36565.6 0 731031 36046.4 0 726351 35529.1 0 721738 35013.8 0 717193 34500.5 0 712715 33989.2 0 708303 33479.8 0 703958 32972.4 0 699680 32467 0 695467 31963.6 0 691320 31462.1 0 687239 30962.6 0 683223 30465.1 0 679272 29969.5 0 675385 29475.8 0 671563 28984 0 667805 28494.1 0 664112 28006.1 0 660482 27520 0 656915 27035.8 0 653412 26553.4 0 649971 26072.8 0 646594 25594 0 643279 25117 0 640026 24641.8 0 636835 24168.3 0 633706 23696.6 0 630639 23226.5 0 627633 22758.2 0 624688 22291.4 0 621804 21826.3 0 618981 21362.9 0 616218 20900.9 0 613516 20440.6 0 610874 19981.8 0 608291 19524.4 0 605769 19068.6 0 603306 18614.2 0 600902 18161.2 0 598557 17709.5 0 596271 17259.3 0 594044 16810.4 0 591876 16362.