<?xml version="1.0"?> 
<VTKFile type="StructuredGrid" version="0.1"> 
<StructuredGrid WholeExtent="0 127 0 127 0 0"> 
<Piece Extent="0 127 0 127 0 0"> 
<PointData>
<DataArray type="Float32" Name="|E|" format="ascii" NumberOfComponents="3"> 
447183 775960 0 442514 767315 0 437909 758737 0 433367 750228 0 428888 741785 0 424470 733409 0 420114 725097 0 415818 716849 0 411581 708665 0 407403 700543 0 403283 692483 0 399220 684483 0 395214 676543 0 391263 668663 0 387367 660841 0 383526 653076 0 379738 645368 0 376003 637716 0 372321 630120 0 368690 622578 0 365110 615089 0 361580 607654 0 358100 600271 0 354669 592940 0 351286 585659 0 347951 578429 0 344664 571249 0 341423 564117 0 338228 557033 0 335079 549997 0 331974 543008 0 328914 536065 0 325898 529167 0 322925 522314 0 319995 515506 0 317108 508741 0 314262 502019 0 311457 495339 0 308693 488702 0 305970 482105 0 303286 475549 0 300642 469033 0 298036 462556 0 295469 456118 0 292940 449718 0 290449 443356 0 287995 437030 0 285577 430741 0 283196 424488 0 280850 418271 0 278540 412088 0 276265 405939 0 274025 399823 0 271819 393741 0 269647 387692 0 267508 381674 0 265402 375688 0 263330 369732 0 261289 363807 0 259281 357912 0 257304 352046 0 255359 346209 0 253445 340400 0 251561 334619 0 249708 328865 0 247885 323138 0 246091 317436 0 244327 311761 0 242593 306111 0 240886 300485 0 239209 294884 0 237559 289306 0 235938 283751 0 234344 278220 0 232778 272710 0 231238 267222 0 229726 261755 0 228239 256309 0 226780 250883 0 225346 245476 0 223938 240089 0 222555 234721 0 221198 229371 0 219866 224039 0 218558 218724 0 217275 213426 0 216017 208145 0 214782 202879 0 213571 197629 0 212384 192394 0 211221 187173 0 210080 181966 0 208963 176773 0 207868 171593 0 206796 166426 0 205746 161271 0 204718 156127 0 203713 150995 0 202729 145874 0 201767 140763 0 200826 135662 0 199906 130570 0 199007 125487 0 198130 120413 0 197273 115347 0 196436 110288 0 195620 105237 0 194824 100192 0 194048 95153.3 0 193291 90120.5 0 192555 85093.1 0 191838 80070.5 0 191140 75052.3 0 190462 70038.1 0 189803 65027.4 0 189162 60019.7 0 188541 55014.6 0 187938 50011.7 0 187353 45010.4 0 186787 40010.4 0 186240 35011.2 0 185710 30012.3 0 185198 25013.2 0 184704 20013.6 0 184228 15012.9 0 183770 10010.7 0 183328 5006.57 0 182905 0 0 443674 776753 0 439043 768093 0 434475 759503 0 429971 750980 0 425529 742525 0 421148 734135 0 416827 725811 0 412566 717551 0 408364 709354 0 404221 701220 0 400134 693148 0 396105 685137 0 392131 677186 0 388213 669294 0 384349 661461 0 380539 653685 0 376782 645967 0 373078 638304 0 369425 630697 0 365824 623145 0 362273 615646 0 358772 608201 0 355320 600808 0 351917 593467 0 348561 586177 0 345254 578937 0 341993 571747 0 338778 564606 0 335609 557514 0 332486 550469 0 329406 543470 0 326371 536519 0 323379 529612 0 320431 522751 0 317524 515934 0 314660 509161 0 311837 502431 0 309055 495744 0 306314 489098 0 303612 482494 0 300950 475930 0 298327 469407 0 295743 462922 0 293197 456477 0 290688 450070 0 288217 443701 0 285782 437368 0 283384 431072 0 281022 424813 0 278695 418588 0 276404 412398 0 274147 406243 0 271925 400121 0 269737 394033 0 267582 387977 0 265460 381953 0 263372 375961 0 261316 369999 0 259292 364068 0 257299 358167 0 255339 352295 0 253409 346453 0 251510 340638 0 249642 334851 0 247803 329092 0 245995 323359 0 244216 317653 0 242466 311972 0 240745 306317 0 239052 300686 0 237388 295080 0 235752 289497 0 234143 283937 0 232562 278400 0 231008 272886 0 229481 267393 0 227980 261922 0 226506 256471 0 225058 251040 0 223635 245630 0 222238 240238 0 220867 234866 0 219520 229511 0 218198 224175 0 216901 218856 0 215628 213554 0 214380 208268 0 213155 202999 0 211954 197744 0 210776 192505 0 209621 187281 0 208490 182070 0 207381 176874 0 206295 171690 0 205231 166519 0 204190 161360 0 203170 156213 0 202172 151078 0 201196 145953 0 200241 140838 0 199307 135734 0 198395 130639 0 197503 125553 0 196632 120475 0 195782 115406 0 194951 110344 0 194142 105290 0 193352 100242 0 192581 95200.5 0 191831 90164.9 0 191100 85134.5 0 190388 80109.1 0 189696 75088.2 0 189023 70071.3 0 188368 65057.9 0 187733 60047.6 0 187116 55039.9 0 186517 50034.5 0 185937 45030.7 0 185375 40028.3 0 184832 35026.7 0 184306 30025.4 0 183798 25024 0 183307 20022.1 0 182835 15019.3 0 182379 10014.9 0 181941 5008.64 0 181520 0 0 440161 777533 0 435569 768860 0 431040 760256 0 426573 751721 0 422167 743253 0 417823 734850 0 413538 726514 0 409312 718242 0 405145 710033 0 401036 701887 0 396983 693804 0 392987 685781 0 389046 677819 0 385160 669916 0 381328 662071 0 377549 654285 0 373824 646556 0 370150 638883 0 366527 631265 0 362955 623703 0 359433 616194 0 355961 608739 0 352538 601337 0 349162 593986 0 345835 586686 0 342554 579437 0 339320 572238 0 336132 565088 0 332989 557987 0 329890 550933 0 326836 543926 0 323826 536966 0 320859 530051 0 317934 523182 0 315052 516357 0 312211 509576 0 309411 502838 0 306652 496142 0 303932 489489 0 301253 482877 0 298613 476306 0 296011 469775 0 293448 463283 0 290922 456831 0 288434 450416 0 285983 444040 0 283568 437701 0 281189 431398 0 278846 425132 0 276539 418901 0 274266 412704 0 272027 406543 0 269823 400414 0 267653 394320 0 265515 388258 0 263411 382228 0 261339 376229 0 259300 370262 0 257292 364325 0 255316 358418 0 253371 352541 0 251457 346692 0 249573 340872 0 247720 335080 0 245897 329315 0 244103 323577 0 242338 317866 0 240602 312180 0 238895 306519 0 237216 300883 0 235565 295272 0 233942 289684 0 232346 284120 0 230778 278578 0 229236 273059 0 227721 267562 0 226233 262086 0 224770 256630 0 223334 251195 0 221923 245780 0 220537 240384 0 219176 235008 0 217841 229649 0 216529 224309 0 215243 218985 0 213980 213679 0 212741 208390 0 211526 203116 0 210334 197858 0 209166 192615 0 208021 187387 0 206898 182173 0 205798 176972 0 204720 171785 0 203665 166610 0 202632 161448 0 201620 156297 0 200630 151158 0 199661 146030 0 198714 140912 0 197788 135805 0 196882 130706 0 195997 125617 0 195133 120537 0 194289 115464 0 193466 110400 0 192662 105342 0 191878 100291 0 191114 95246.9 0 190369 90208.4 0 189644 85175.2 0 188938 80147.1 0 188250 75123.4 0 187582 70103.8 0 186933 65087.8 0 186302 60074.9 0 185690 55064.8 0 185096 50056.8 0 184520 45050.6 0 183962 40045.8 0 183422 35041.8 0 182900 30038.3 0 182396 25034.7 0 181909 20030.5 0 181440 15025.5 0 180988 10019 0 180553 5010.67 0 180135 0 0 436646 778300 0 432093 769614 0 427601 760998 0 423172 752450 0 418803 743969 0 414495 735554 0 410246 727206 0 406056 718922 0 401924 710701 0 397849 702544 0 393830 694449 0 389867 686415 0 385959 678441 0 382105 670527 0 378305 662672 0 374558 654875 0 370863 647136 0 367219 639452 0 363627 631825 0 360085 624252 0 356592 616734 0 353148 609269 0 349753 601857 0 346406 594497 0 343106 587188 0 339852 579930 0 336645 572722 0 333483 565563 0 330366 558452 0 327293 551390 0 324264 544374 0 321279 537406 0 318336 530483 0 315435 523605 0 312577 516772 0 309759 509983 0 306982 503237 0 304246 496534 0 301549 489873 0 298891 483254 0 296273 476675 0 293693 470137 0 291150 463638 0 288646 457179 0 286178 450757 0 283747 444374 0 281352 438028 0 278993 431719 0 276669 425446 0 274380 419208 0 272126 413005 0 269906 406837 0 267719 400703 0 265567 394602 0 263447 388534 0 261360 382498 0 259305 376494 0 257282 370520 0 255291 364578 0 253331 358665 0 251402 352782 0 249503 346928 0 247635 341103 0 245797 335305 0 243988 329535 0 242209 323792 0 240458 318075 0 238737 312384 0 237043 306718 0 235378 301078 0 233741 295461 0 232131 289869 0 230548 284300 0 228992 278754 0 227463 273230 0 225961 267728 0 224484 262247 0 223033 256787 0 221608 251348 0 220209 245928 0 218834 240528 0 217484 235147 0 216159 229785 0 214859 224440 0 213582 219113 0 212330 213803 0 211101 208509 0 209896 203232 0 208713 197970 0 207554 192723 0 206418 187491 0 205304 182273 0 204213 177069 0 203144 171878 0 202097 166700 0 201072 161534 0 200068 156380 0 199086 151238 0 198125 146106 0 197185 140985 0 196266 135874 0 195368 130773 0 194490 125681 0 193633 120597 0 192795 115521 0 191978 110454 0 191181 105393 0 190403 100340 0 189645 95292.4 0 188906 90251.1 0 188186 85215.2 0 187485 80184.3 0 186803 75158 0 186140 70135.8 0 185496 65117.2 0 184870 60101.8 0 184262 55089.1 0 183673 50078.7 0 183101 45070.2 0 182547 40063 0 182012 35056.7 0 181494 30050.9 0 180993 25045.1 0 180510 20038.8 0 180044 15031.6 0 179595 10023 0 179163 5012.66 0 178748 0 0 433129 779055 0 428614 770357 0 424161 761727 0 419769 753167 0 415437 744674 0 411165 736247 0 406952 727886 0 402798 719591 0 398700 711359 0 394659 703190 0 390674 695083 0 386745 687038 0 382869 679054 0 379048 671129 0 375280 663264 0 371564 655456 0 367900 647706 0 364287 640013 0 360724 632375 0 357212 624793 0 353748 617265 0 350334 609790 0 346967 602369 0 343647 594999 0 340375 587681 0 337148 580414 0 333968 573197 0 330832 566029 0 327741 558910 0 324694 551839 0 321690 544816 0 318729 537838 0 315811 530907 0 312935 524022 0 310100 517181 0 307306 510384 0 304552 503631 0 301838 496920 0 299164 490252 0 296528 483625 0 293931 477039 0 291372 470493 0 288851 463988 0 286367 457521 0 283920 451093 0 281509 444703 0 279134 438350 0 276794 432034 0 274489 425755 0 272219 419511 0 269984 413302 0 267782 407127 0 265614 400987 0 263479 394880 0 261376 388806 0 259307 382764 0 257269 376754 0 255263 370775 0 253288 364826 0 251344 358908 0 249431 353020 0 247548 347160 0 245695 341329 0 243872 335527 0 242078 329751 0 240313 324003 0 238577 318281 0 236870 312585 0 235190 306914 0 233539 301269 0 231915 295648 0 230318 290050 0 228748 284477 0 227205 278926 0 225688 273397 0 224198 267891 0 222734 262406 0 221295 256941 0 219881 251498 0 218493 246074 0 217130 240670 0 215791 235284 0 214477 229918 0 213187 224569 0 211920 219238 0 210678 213924 0 209459 208626 0 208263 203345 0 207091 198079 0 205941 192829 0 204814 187593 0 203709 182372 0 202627 177164 0 201566 171970 0 200528 166788 0 199511 161619 0 198515 156462 0 197541 151316 0 196588 146181 0 195655 141057 0 194744 135943 0 193852 130838 0 192981 125743 0 192131 120656 0 191300 115578 0 190489 110507 0 189698 105444 0 188926 100387 0 188174 95337 0 187441 90293 0 186727 85254.4 0 186031 80220.8 0 185355 75191.9 0 184697 70167.1 0 184057 65146 0 183436 60128.1 0 182833 55113 0 182248 50100.2 0 181681 45089.3 0 181131 40079.8 0 180600 35071.3 0 180085 30063.2 0 179588 25055.2 0 179109 20046.8 0 178646 15037.6 0 178201 10027 0 177772 5014.61 0 177360 0 0 429610 779798 0 425133 771087 0 420718 762445 0 416363 753872 0 412069 745367 0 407833 736928 0 403656 728556 0 399537 720249 0 395474 712005 0 391467 703825 0 387516 695708 0 383620 687652 0 379778 679657 0 375988 671721 0 372252 663845 0 368568 656028 0 364935 648267 0 361352 640564 0 357820 632917 0 354337 625324 0 350903 617787 0 347517 610303 0 344178 602872 0 340887 595494 0 337642 588167 0 334442 580891 0 331288 573665 0 328179 566488 0 325114 559361 0 322092 552281 0 319114 545249 0 316178 538264 0 313284 531325 0 310432 524432 0 307621 517583 0 304850 510778 0 302119 504017 0 299428 497299 0 296776 490624 0 294163 483990 0 291588 477397 0 289050 470844 0 286550 464331 0 284087 457858 0 281660 451423 0 279269 445026 0 276913 438667 0 274593 432345 0 272308 426058 0 270057 419808 0 267840 413593 0 265657 407412 0 263507 401266 0 261389 395153 0 259304 389073 0 257252 383025 0 255231 377009 0 253241 371025 0 251283 365071 0 249355 359147 0 247458 353253 0 245591 347388 0 243753 341552 0 241945 335744 0 240166 329964 0 238416 324210 0 236694 318483 0 235001 312782 0 233335 307107 0 231697 301457 0 230087 295831 0 228503 290229 0 226946 284650 0 225416 279095 0 223912 273562 0 222434 268051 0 220981 262561 0 219554 257093 0 218153 251645 0 216776 246217 0 215423 240809 0 214096 235419 0 212792 230048 0 211513 224696 0 210257 219361 0 209025 214043 0 207816 208742 0 206630 203456 0 205467 198187 0 204326 192933 0 203208 187694 0 202113 182469 0 201039 177257 0 199987 172060 0 198957 166875 0 197948 161702 0 196961 156541 0 195994 151392 0 195049 146254 0 194124 141127 0 193219 136010 0 192335 130902 0 191471 125804 0 190627 120714 0 189803 115633 0 188999 110559 0 188214 105493 0 187448 100434 0 186702 95380.8 0 185974 90334.1 0 185266 85292.8 0 184576 80256.7 0 183905 75225.1 0 183252 70197.8 0 182617 65174.2 0 182001 60153.9 0 181403 55136.4 0 180822 50121.3 0 180259 45108.1 0 179714 40096.3 0 179186 35085.6 0 178676 30075.3 0 178183 25065.2 0 177707 20054.7 0 177247 15043.4 0 176805 10030.8 0 176380 5016.52 0 175971 0 0 426088 780528 0 421650 771805 0 417273 763151 0 412956 754566 0 408698 746049 0 404499 737599 0 400358 729215 0 396273 720896 0 392246 712641 0 388273 704450 0 384356 696322 0 380493 688255 0 376684 680249 0 372927 672304 0 369222 664417 0 365569 656589 0 361967 648819 0 358415 641106 0 354913 633449 0 351460 625847 0 348055 618300 0 344697 610807 0 341387 603367 0 338124 595980 0 334906 588644 0 331734 581359 0 328607 574125 0 325524 566940 0 322485 559804 0 319489 552716 0 316536 545676 0 313625 538683 0 310755 531736 0 307927 524835 0 305140 517978 0 302392 511166 0 299685 504398 0 297016 497673 0 294387 490990 0 291795 484348 0 289242 477748 0 286726 471189 0 284247 464669 0 281804 458189 0 279398 451747 0 277027 445344 0 274692 438978 0 272391 432650 0 270125 426357 0 267893 420101 0 265694 413879 0 263529 407693 0 261397 401540 0 259298 395421 0 257230 389336 0 255195 383282 0 253191 377261 0 251218 371270 0 249276 365311 0 247365 359382 0 245483 353483 0 243632 347613 0 241809 341771 0 240017 335958 0 238252 330173 0 236517 324414 0 234810 318682 0 233130 312976 0 231479 307296 0 229854 301641 0 228257 296011 0 226687 290404 0 225143 284821 0 223625 279261 0 222134 273724 0 220668 268208 0 219227 262715 0 217812 257242 0 216422 251790 0 215057 246358 0 213716 240945 0 212399 235552 0 211106 230177 0 209837 224820 0 208592 219481 0 207370 214160 0 206171 208855 0 204995 203566 0 203841 198293 0 202710 193035 0 201601 187792 0 200515 182564 0 199450 177349 0 198406 172148 0 197385 166960 0 196384 161784 0 195404 156620 0 194446 151468 0 193508 146326 0 192591 141196 0 191693 136076 0 190817 130965 0 189960 125864 0 189122 120771 0 188305 115687 0 187507 110610 0 186728 105541 0 185969 100479 0 185228 95423.8 0 184507 90374.3 0 183804 85330.5 0 183119 80291.8 0 182453 75257.7 0 181806 70227.9 0 181176 65201.9 0 180565 60179.2 0 179971 55159.4 0 179395 50141.9 0 178836 45126.5 0 178295 40112.5 0 177772 35099.5 0 177265 30087.2 0 176776 25075 0 176303 20062.5 0 175847 15049.2 0 175408 10034.6 0 174986 5018.39 0 174580 0 0 422563 781246 0 418164 772510 0 413825 763845 0 409546 755248 0 405325 746719 0 401162 738257 0 397057 729862 0 393008 721532 0 389015 713266 0 385077 705065 0 381194 696925 0 377364 688848 0 373587 680832 0 369863 672876 0 366190 664980 0 362569 657142 0 358998 649362 0 355476 641639 0 352004 633973 0 348581 626362 0 345205 618805 0 341876 611303 0 338595 603854 0 335359 596458 0 332169 589113 0 329024 581820 0 325924 574577 0 322867 567384 0 319854 560240 0 316884 553144 0 313956 546096 0 311070 539095 0 308225 532140 0 305421 525231 0 302657 518367 0 299933 511548 0 297248 504772 0 294603 498039 0 291996 491349 0 289426 484701 0 286895 478094 0 284400 471528 0 281942 465001 0 279520 458514 0 277134 452066 0 274783 445657 0 272468 439284 0 270187 432949 0 267940 426651 0 265727 420388 0 263547 414161 0 261400 407968 0 259286 401810 0 257205 395685 0 255155 389594 0 253137 383535 0 251150 377508 0 249193 371512 0 247268 365547 0 245372 359613 0 243507 353708 0 241671 347833 0 239864 341987 0 238086 336168 0 236337 330378 0 234616 324614 0 232923 318878 0 231258 313167 0 229620 307482 0 228010 301822 0 226426 296187 0 224869 290576 0 223338 284989 0 221833 279424 0 220354 273883 0 218900 268363 0 217472 262865 0 216069 257388 0 214690 251932 0 213336 246496 0 212006 241079 0 210701 235682 0 209419 230303 0 208160 224943 0 206925 219600 0 205713 214275 0 204524 208966 0 203358 203673 0 202214 198397 0 201092 193136 0 199993 187889 0 198915 182657 0 197859 177439 0 196824 172234 0 195811 167043 0 194818 161864 0 193847 156697 0 192896 151541 0 191966 146397 0 191056 141264 0 190166 136140 0 189296 131027 0 188446 125922 0 187616 120827 0 186805 115740 0 186014 110660 0 185241 105589 0 184488 100524 0 183753 95465.9 0 183038 90413.8 0 182340 85367.4 0 181661 80326.2 0 181001 75289.7 0 180358 70257.4 0 179734 65229 0 179127 60204 0 178538 55181.8 0 177966 50162.1 0 177412 45144.4 0 176875 40128.3 0 176355 35113.2 0 175853 30098.8 0 175367 25084.6 0 174898 20070 0 174446 15054.8 0 174010 10038.3 0 173591 5020.21 0 173188 0 0 419037 781952 0 414676 773204 0 410376 764526 0 406134 755918 0 401950 747378 0 397824 738905 0 393754 730498 0 389741 722157 0 385783 713881 0 381879 705668 0 378029 697519 0 374233 689431 0 370489 681405 0 366797 673439 0 363157 665533 0 359566 657685 0 356026 649895 0 352536 642163 0 349093 634487 0 345699 626867 0 342353 619302 0 339053 611790 0 335800 604333 0 332592 596928 0 329430 589575 0 326312 582273 0 323239 575022 0 320208 567820 0 317221 560668 0 314276 553564 0 311374 546508 0 308512 539500 0 305692 532537 0 302912 525621 0 300172 518749 0 297472 511922 0 294810 505140 0 292187 498400 0 289603 491703 0 287055 485047 0 284545 478434 0 282072 471861 0 279635 465328 0 277234 458834 0 274869 452380 0 272538 445964 0 270242 439585 0 267981 433244 0 265753 426939 0 263559 420671 0 261398 414437 0 259270 408239 0 257174 402075 0 255110 395945 0 253077 389847 0 251076 383783 0 249106 377750 0 247167 371749 0 245258 365779 0 243378 359840 0 241529 353930 0 239709 348050 0 237917 342198 0 236154 336375 0 234420 330579 0 232714 324811 0 231035 319070 0 229384 313354 0 227760 307665 0 226163 302001 0 224593 296361 0 223049 290745 0 221531 285153 0 220039 279585 0 218572 274039 0 217131 268515 0 215715 263013 0 214323 257532 0 212957 252071 0 211614 246631 0 210295 241211 0 209001 235810 0 207729 230427 0 206482 225063 0 205257 219716 0 204055 214387 0 202876 209075 0 201719 203779 0 200585 198499 0 199473 193234 0 198382 187984 0 197314 182749 0 196266 177527 0 195240 172319 0 194235 167125 0 193251 161942 0 192288 156772 0 191345 151614 0 190422 146466 0 189520 141330 0 188637 136203 0 187775 131087 0 186932 125980 0 186108 120881 0 185304 115792 0 184519 110710 0 183753 105635 0 183006 100568 0 182277 95507.2 0 181567 90452.5 0 180875 85403.6 0 180202 80359.9 0 179547 75321 0 178909 70286.3 0 178290 65255.6 0 177688 60228.2 0 177103 55203.8 0 176536 50181.9 0 175986 45162.1 0 175454 40143.8 0 174938 35126.6 0 174439 30110.2 0 173957 25093.9 0 173492 20077.4 0 173043 15060.3 0 172611 10041.9 0 172195 5022 0 171795 0 0 415509 782645 0 411187 773886 0 406924 765196 0 402719 756576 0 398573 748025 0 394483 739541 0 390449 731124 0 386471 722772 0 382548 714485 0 378679 706262 0 374863 698102 0 371100 690004 0 367389 681968 0 363729 673992 0 360121 666076 0 356562 658219 0 353053 650420 0 349593 642678 0 346181 634993 0 342816 627363 0 339499 619789 0 336228 612269 0 333003 604803 0 329824 597389 0 326689 590028 0 323598 582718 0 320551 575458 0 317548 568249 0 314586 561089 0 311667 553977 0 308790 546914 0 305953 539897 0 303158 532927 0 300402 526003 0 297686 519125 0 295009 512291 0 292370 505501 0 289770 498754 0 287208 492050 0 284683 485388 0 282194 478767 0 279742 472188 0 277327 465648 0 274946 459149 0 272601 452688 0 270291 446265 0 268015 439881 0 265773 433533 0 263565 427223 0 261389 420948 0 259247 414709 0 257137 408505 0 255059 402335 0 253013 396199 0 250998 390097 0 249015 384027 0 247061 377989 0 245139 371982 0 243246 366007 0 241383 360062 0 239549 354148 0 237744 348262 0 235968 342406 0 234221 336578 0 232501 330777 0 230810 325004 0 229146 319258 0 227509 313538 0 225899 307844 0 224316 302175 0 222759 296531 0 221228 290911 0 219723 285315 0 218244 279742 0 216789 274192 0 215360 268664 0 213956 263158 0 212577 257673 0 211221 252208 0 209890 246764 0 208583 241340 0 207299 235935 0 206039 230549 0 204801 225181 0 203587 219831 0 202395 214498 0 201226 209182 0 200079 203882 0 198955 198599 0 197852 193331 0 196771 188077 0 195711 182839 0 194672 177614 0 193655 172403 0 192658 167205 0 191682 162019 0 190727 156846 0 189792 151685 0 188877 146534 0 187982 141395 0 187107 136266 0 186252 131146 0 185416 126036 0 184599 120935 0 183802 115842 0 183023 110758 0 182263 105681 0 181522 100611 0 180799 95547.6 0 180095 90490.4 0 179409 85439 0 178741 80392.9 0 178091 75351.6 0 177459 70314.6 0 176844 65281.6 0 176247 60252 0 175667 55225.3 0 175105 50201.3 0 174559 45179.3 0 174031 40158.9 0 173519 35139.7 0 173025 30121.3 0 172546 25103.1 0 172085 20084.7 0 171639 15065.6 0 171210 10045.5 0 170797 5023.74 0 170400 0 0 411978 783326 0 407695 774555 0 403470 765854 0 399303 757223 0 395193 748661 0 391140 740166 0 387142 731738 0 383200 723375 0 379311 715078 0 375476 706845 0 371694 698675 0 367965 690567 0 364287 682521 0 360660 674535 0 357083 666609 0 353556 658743 0 350077 650935 0 346648 643184 0 343266 635490 0 339931 627851 0 336643 620268 0 333401 612740 0 330205 605265 0 327053 597843 0 323946 590473 0 320882 583155 0 317862 575887 0 314885 568670 0 311950 561502 0 309056 554383 0 306204 547312 0 303392 540288 0 300621 533310 0 297890 526379 0 295197 519494 0 292544 512652 0 289928 505855 0 287351 499102 0 284811 492391 0 282308 485722 0 279841 479095 0 277411 472509 0 275016 465963 0 272657 459457 0 270332 452990 0 268042 446562 0 265786 440171 0 263564 433818 0 261374 427501 0 259218 421221 0 257094 414976 0 255003 408766 0 252943 402591 0 250915 396449 0 248917 390341 0 246951 384266 0 245015 378223 0 243109 372211 0 241232 366231 0 239386 360281 0 237568 354361 0 235779 348471 0 234018 342610 0 232286 336777 0 230581 330972 0 228904 325194 0 227254 319443 0 225632 313719 0 224036 308020 0 222466 302347 0 220923 296698 0 219405 291074 0 217913 285474 0 216446 279897 0 215005 274342 0 213588 268810 0 212196 263300 0 210828 257811 0 209485 252343 0 208165 246895 0 206869 241467 0 205596 236058 0 204346 230668 0 203120 225296 0 201916 219942 0 200734 214606 0 199575 209287 0 198438 203984 0 197323 198697 0 196229 193425 0 195157 188169 0 194107 182927 0 193077 177699 0 192068 172485 0 191080 167283 0 190112 162095 0 189165 156919 0 188238 151754 0 187331 146601 0 186443 141458 0 185576 136326 0 184727 131204 0 183898 126091 0 183089 120988 0 182298 115892 0 181525 110805 0 180772 105725 0 180037 100653 0 179320 95587.1 0 178622 90527.5 0 177942 85473.7 0 177279 80425.2 0 176634 75381.5 0 176007 70342.3 0 175398 65307 0 174805 60275.2 0 174230 55246.4 0 173672 50220.2 0 173131 45196.1 0 172607 40173.7 0 172100 35152.5 0 171609 30132.1 0 171134 25112 0 170676 20091.7 0 170234 15070.9 0 169808 10048.9 0 169399 5025.45 0 169005 0 0 408446 783995 0 404201 775212 0 400014 766501 0 395885 757858 0 391812 749285 0 387795 740779 0 383833 732341 0 379926 723968 0 376073 715660 0 372272 707417 0 368524 699237 0 364828 691119 0 361183 683064 0 357588 675068 0 354043 667133 0 350547 659258 0 347100 651440 0 343701 643680 0 340349 635977 0 337044 628330 0 333785 620739 0 330572 613202 0 327404 605718 0 324281 598288 0 321201 590910 0 318165 583584 0 315171 576309 0 312220 569084 0 309311 561908 0 306443 554781 0 303616 547702 0 300830 540671 0 298083 533687 0 295376 526748 0 292707 519856 0 290077 513008 0 287485 506204 0 284930 499443 0 282412 492726 0 279932 486051 0 277487 479417 0 275078 472825 0 272704 466273 0 270366 459760 0 268061 453287 0 265791 446852 0 263555 440456 0 261352 434097 0 259182 427774 0 257045 421488 0 254940 415238 0 252867 409023 0 250825 402842 0 248815 396695 0 246835 390581 0 244886 384501 0 242967 378453 0 241077 372436 0 239217 366450 0 237387 360496 0 235585 354571 0 233811 348676 0 232066 342810 0 230349 336972 0 228659 331162 0 226997 325380 0 225362 319625 0 223753 313896 0 222171 308193 0 220615 302515 0 219085 296863 0 217581 291234 0 216102 285630 0 214648 280048 0 213219 274490 0 211814 268954 0 210434 263439 0 209078 257946 0 207746 252474 0 206438 247023 0 205153 241591 0 203891 236178 0 202652 230785 0 201436 225410 0 200243 220052 0 199072 214712 0 197922 209390 0 196795 204083 0 195690 198793 0 194605 193518 0 193543 188258 0 192501 183013 0 191480 177782 0 190480 172565 0 189500 167360 0 188541 162169 0 187602 156990 0 186682 151822 0 185783 146666 0 184903 141521 0 184043 136386 0 183202 131261 0 182380 126145 0 181576 121039 0 180792 115941 0 180027 110851 0 179279 105769 0 178551 100694 0 177840 95625.8 0 177147 90563.8 0 176473 85507.6 0 175816 80456.8 0 175176 75410.8 0 174554 70369.3 0 173950 65331.8 0 173362 60297.9 0 172792 55267 0 172238 50238.7 0 171702 45212.6 0 171182 40188.2 0 170678 35165.1 0 170191 30142.7 0 169721 25120.7 0 169266 20098.6 0 168828 15076 0 168405 10052.3 0 167999 5027.11 0 167608 0 0 404911 784651 0 400705 775857 0 396557 767135 0 392465 758482 0 388429 749898 0 384448 741382 0 380523 732933 0 376651 724550 0 372832 716232 0 369066 707979 0 365352 699789 0 361689 691662 0 358076 683597 0 354514 675592 0 351001 667648 0 347537 659763 0 344121 651937 0 340752 644168 0 337431 636456 0 334155 628801 0 330926 621201 0 327741 613655 0 324602 606164 0 321506 598725 0 318454 591339 0 315445 584005 0 312479 576722 0 309554 569489 0 306671 562306 0 303829 555172 0 301027 548086 0 298265 541048 0 295543 534056 0 292860 527111 0 290215 520211 0 287608 513356 0 285039 506546 0 282507 499779 0 280012 493055 0 277553 486373 0 275130 479733 0 272743 473134 0 270390 466576 0 268073 460058 0 265789 453578 0 263539 447138 0 261323 440736 0 259139 434371 0 256989 428043 0 254870 421751 0 252784 415495 0 250729 409274 0 248706 403088 0 246713 396936 0 244751 390817 0 242819 384731 0 240917 378678 0 239044 372656 0 237201 366666 0 235386 360706 0 233600 354777 0 231842 348877 0 230113 343006 0 228410 337164 0 226736 331349 0 225088 325563 0 223467 319803 0 221873 314070 0 220304 308362 0 218762 302680 0 217246 297023 0 215754 291391 0 214288 285782 0 212847 280197 0 211431 274634 0 210039 269094 0 208671 263576 0 207327 258079 0 206006 252604 0 204710 247148 0 203436 241713 0 202185 236296 0 200957 230899 0 199752 225521 0 198568 220160 0 197407 214817 0 196268 209490 0 195151 204181 0 194055 198887 0 192980 193609 0 191926 188346 0 190894 183098 0 189882 177864 0 188890 172643 0 187919 167436 0 186968 162241 0 186037 157059 0 185125 151889 0 184234 146730 0 183361 141582 0 182508 136444 0 181674 131317 0 180859 126198 0 180063 121089 0 179285 115989 0 178526 110896 0 177785 105812 0 177063 100734 0 176358 95663.7 0 175671 90599.3 0 175002 85540.8 0 174351 80487.7 0 173717 75439.5 0 173100 70395.8 0 172500 65356.1 0 171918 60320 0 171352 55287.1 0 170803 50256.8 0 170271 45228.7 0 169755 40202.3 0 169256 35177.3 0 168773 30153.1 0 168306 25129.2 0 167855 20105.4 0 167420 15081 0 167001 10055.6 0 166598 5028.73 0 166210 0 0 401375 785295 0 397208 776491 0 393097 767757 0 389043 759094 0 385044 750499 0 381100 741973 0 377210 733514 0 373373 725121 0 369590 716793 0 365858 708530 0 362177 700331 0 358548 692194 0 354968 684120 0 351439 676106 0 347958 668153 0 344525 660259 0 341140 652424 0 337802 644646 0 334510 636926 0 331265 629262 0 328064 621654 0 324909 614100 0 321798 606601 0 318730 599154 0 315706 591761 0 312724 584419 0 309784 577128 0 306886 569888 0 304029 562697 0 301212 555556 0 298436 548463 0 295699 541417 0 293001 534419 0 290342 527466 0 287721 520560 0 285138 513698 0 282592 506881 0 280083 500108 0 277610 493377 0 275174 486689 0 272772 480043 0 270406 473438 0 268075 466874 0 265778 460349 0 263515 453864 0 261285 447418 0 259089 441010 0 256925 434639 0 254794 428306 0 252694 422009 0 250626 415747 0 248590 409521 0 246585 403330 0 244610 397172 0 242665 391048 0 240750 384957 0 238865 378899 0 237009 372872 0 235182 366877 0 233384 360913 0 231614 354978 0 229872 349074 0 228157 343198 0 226470 337352 0 224811 331533 0 223177 325742 0 221571 319978 0 219991 314240 0 218436 308528 0 216908 302842 0 215405 297181 0 213927 291545 0 212474 285932 0 211046 280343 0 209642 274776 0 208262 269232 0 206906 263710 0 205574 258210 0 204265 252730 0 202980 247271 0 201717 241832 0 200477 236412 0 199260 231012 0 198065 225629 0 196893 220265 0 195742 214919 0 194613 209589 0 193505 204276 0 192419 198979 0 191353 193698 0 190309 188432 0 189285 183180 0 188282 177943 0 187299 172720 0 186336 167510 0 185393 162312 0 184470 157127 0 183567 151954 0 182683 146792 0 181818 141642 0 180972 136501 0 180146 131371 0 179338 126250 0 178548 121139 0 177777 116035 0 177025 110941 0 176290 105854 0 175574 100774 0 174875 95700.7 0 174194 90634 0 173531 85573.2 0 172885 80517.9 0 172256 75467.5 0 171644 70421.6 0 171050 65379.9 0 170472 60341.7 0 169911 55306.7 0 169367 50274.4 0 168839 45244.4 0 168327 40216.1 0 167832 35189.2 0 167353 30163.2 0 166890 25137.6 0 166443 20111.9 0 166011 15085.8 0 165595 10058.8 0 165195 5030.31 0 164811 0 0 397837 785927 0 393708 777112 0 389636 768368 0 385619 759694 0 381657 751089 0 377749 742553 0 373895 734084 0 370094 725681 0 366345 717344 0 362648 709071 0 359001 700862 0 355405 692716 0 351859 684633 0 348361 676610 0 344912 668648 0 341511 660745 0 338157 652901 0 334849 645116 0 331588 637387 0 328372 629715 0 325201 622098 0 322075 614537 0 318992 607029 0 315952 599575 0 312955 592174 0 310001 584824 0 307088 577526 0 304216 570279 0 301385 563081 0 298594 555932 0 295843 548832 0 293131 541779 0 290458 534774 0 287823 527815 0 285226 520902 0 282666 514034 0 280143 507210 0 277657 500430 0 275207 493694 0 272792 486999 0 270413 480347 0 268068 473736 0 265758 467166 0 263482 460636 0 261239 454145 0 259029 447693 0 256853 441279 0 254709 434903 0 252597 428564 0 250516 422261 0 248467 415994 0 246449 409763 0 244462 403566 0 242505 397404 0 240578 391275 0 238680 385179 0 236812 379116 0 234973 373084 0 233162 367084 