<?xml version="1.0"?> 
<VTKFile type="StructuredGrid" version="0.1"> 
<StructuredGrid WholeExtent="0 127 0 127 0 0"> 
<Piece Extent="0 127 0 127 0 0"> 
<PointData>
<DataArray type="Float32" Name="|E|" format="ascii" NumberOfComponents="3"> 
3.08843e+06 -1.27927e+06 0 3.20901e+06 -1.06209e+06 0 3.25416e+06 -895907 0 3.27558e+06 -745106 0 3.2777e+06 -608456 0 3.26751e+06 -483981 0 3.248e+06 -370398 0 3.22165e+06 -266671 0 3.19019e+06 -171869 0 3.15493e+06 -85177.2 0 3.11688e+06 -5857.49 0 3.07683e+06 66754.5 0 3.03539e+06 133260 0 2.99306e+06 194202 0 2.95021e+06 250073 0 2.90714e+06 301318 0 2.86411e+06 348338 0 2.82129e+06 391497 0 2.77884e+06 431124 0 2.73687e+06 467517 0 2.69547e+06 500946 0 2.6547e+06 531655 0 2.61462e+06 559865 0 2.57526e+06 585777 0 2.53664e+06 609573 0 2.49878e+06 631420 0 2.46168e+06 651469 0 2.42535e+06 669856 0 2.38978e+06 686708 0 2.35497e+06 702138 0 2.32091e+06 716251 0 2.28758e+06 729144 0 2.25497e+06 740903 0 2.22306e+06 751608 0 2.19184e+06 761334 0 2.1613e+06 770149 0 2.1314e+06 778113 0 2.10215e+06 785286 0 2.07351e+06 791720 0 2.04548e+06 797463 0 2.01802e+06 802561 0 1.99114e+06 807056 0 1.9648e+06 810986 0 1.939e+06 814387 0 1.91372e+06 817292 0 1.88894e+06 819731 0 1.86465e+06 821735 0 1.84083e+06 823329 0 1.81748e+06 824537 0 1.79456e+06 825385 0 1.77208e+06 825892 0 1.75002e+06 826079 0 1.72837e+06 825964 0 1.70711e+06 825567 0 1.68623e+06 824902 0 1.66573e+06 823986 0 1.64559e+06 822832 0 1.62581e+06 821455 0 1.60636e+06 819867 0 1.58725e+06 818080 0 1.56847e+06 816106 0 1.55e+06 813955 0 1.53183e+06 811637 0 1.51397e+06 809161 0 1.4964e+06 806536 0 1.47911e+06 803771 0 1.4621e+06 800874 0 1.44535e+06 797851 0 1.42887e+06 794711 0 1.41265e+06 791459 0 1.39668e+06 788102 0 1.38095e+06 784646 0 1.36547e+06 781097 0 1.35021e+06 777459 0 1.33519e+06 773738 0 1.32038e+06 769939 0 1.3058e+06 766066 0 1.29143e+06 762124 0 1.27726e+06 758116 0 1.2633e+06 754047 0 1.24955e+06 749921 0 1.23598e+06 745739 0 1.22261e+06 741507 0 1.20943e+06 737228 0 1.19643e+06 732903 0 1.18361e+06 728537 0 1.17097e+06 724131 0 1.15851e+06 719689 0 1.14621e+06 715213 0 1.13408e+06 710705 0 1.12212e+06 706168 0 1.11031e+06 701603 0 1.09867e+06 697013 0 1.08718e+06 692400 0 1.07585e+06 687765 0 1.06466e+06 683110 0 1.05362e+06 678437 0 1.04273e+06 673748 0 1.03198e+06 669044 0 1.02137e+06 664326 0 1.0109e+06 659596 0 1.00057e+06 654856 0 990366 650105 0 980298 645347 0 970359 640581 0 960548 635809 0 950863 631032 0 941302 626252 0 931864 621467 0 922546 616681 0 913346 611893 0 904264 607105 0 895297 602317 0 886443 597530 0 877702 592744 0 869072 587961 0 860551 583181 0 852137 578404 0 843830 573632 0 835627 568864 0 827528 564101 0 819531 559344 0 811635 554593 0 803838 549849 0 796140 545112 0 788538 540382 0 781033 535659 0 773622 530945 0 3.13978e+06 -1.27416e+06 0 3.24024e+06 -1.05653e+06 0 3.28072e+06 -885949 0 3.29789e+06 -733216 0 3.29695e+06 -595391 0 3.28417e+06 -470217 0 3.26247e+06 -356258 0 3.23422e+06 -252371 0 3.20111e+06 -157565 0 3.1644e+06 -70980.8 0 3.12507e+06 8151.29 0 3.08389e+06 80518.5 0 3.04145e+06 146739 0 2.99822e+06 207369 0 2.95457e+06 262911 0 2.9108e+06 313816 0 2.86713e+06 360492 0 2.82374e+06 403308 0 2.78078e+06 442594 0 2.73835e+06 478652 0 2.69653e+06 511753 0 2.65539e+06 542142 0 2.61498e+06 570041 0 2.57531e+06 595653 0 2.53642e+06 619159 0 2.49831e+06 640726 0 2.46098e+06 660505 0 2.42445e+06 678633 0 2.3887e+06 695235 0 2.35372e+06 710426 0 2.31951e+06 724310 0 2.28604e+06 736982 0 2.2533e+06 748529 0 2.22128e+06 759032 0 2.18996e+06 768564 0 2.15932e+06 777192 0 2.12934e+06 784979 0 2.1e+06 791980 0 2.07129e+06 798250 0 2.04319e+06 803836 0 2.01568e+06 808783 0 1.98874e+06 813133 0 1.96236e+06 816924 0 1.93652e+06 820191 0 1.9112e+06 822968 0 1.88638e+06 825285 0 1.86206e+06 827171 0 1.83821e+06 828651 0 1.81483e+06 829751 0 1.79189e+06 830494 0 1.76939e+06 830900 0 1.74731e+06 830990 0 1.72564e+06 830783 0 1.70436e+06 830296 0 1.68348e+06 829545 0 1.66297e+06 828546 0 1.64282e+06 827312 0 1.62303e+06 825859 0 1.60358e+06 824197 0 1.58446e+06 822338 0 1.56568e+06 820295 0 1.5472e+06 818078 0 1.52904e+06 815695 0 1.51118e+06 813158 0 1.49361e+06 810474 0 1.47632e+06 807651 0 1.45931e+06 804698 0 1.44257e+06 801622 0 1.4261e+06 798430 0 1.40988e+06 795128 0 1.39392e+06 791722 0 1.3782e+06 788220 0 1.36272e+06 784625 0 1.34747e+06 780943 0 1.33246e+06 777180 0 1.31766e+06 773340 0 1.30309e+06 769427 0 1.28873e+06 765447 0 1.27457e+06 761402 0 1.26063e+06 757296 0 1.24688e+06 753135 0 1.23333e+06 748919 0 1.21997e+06 744655 0 1.2068e+06 740343 0 1.19381e+06 735987 0 1.18101e+06 731591 0 1.16838e+06 727156 0 1.15593e+06 722686 0 1.14365e+06 718182 0 1.13153e+06 713647 0 1.11958e+06 709084 0 1.10779e+06 704494 0 1.09616e+06 699879 0 1.08469e+06 695242 0 1.07337e+06 690584 0 1.0622e+06 685907 0 1.05118e+06 681212 0 1.0403e+06 676501 0 1.02956e+06 671776 0 1.01897e+06 667038 0 1.00852e+06 662289 0 998198 657529 0 988013 652760 0 977960 647983 0 968037 643199 0 958242 638410 0 948573 633616 0 939029 628819 0 929606 624019 0 920304 619216 0 911120 614413 0 902054 609610 0 893103 604807 0 884266 600006 0 875540 595206 0 866926 590409 0 858420 585616 0 850023 580826 0 841731 576040 0 833544 571260 0 825461 566485 0 817479 561716 0 809598 556953 0 801817 552197 0 794134 547448 0 786548 542707 0 779057 537974 0 771661 533249 0 3.18784e+06 -1.26699e+06 0 3.27182e+06 -1.04921e+06 0 3.30723e+06 -875225 0 3.32017e+06 -720792 0 3.31614e+06 -581921 0 3.30076e+06 -456134 0 3.27685e+06 -341860 0 3.24671e+06 -237859 0 3.21194e+06 -143085 0 3.17378e+06 -56637.2 0 3.13318e+06 22283.7 0 3.09087e+06 94386.6 0 3.04743e+06 160306 0 3.00331e+06 220611 0 2.95887e+06 275812 0 2.91439e+06 326368 0 2.87009e+06 372692 0 2.82613e+06 415157 0 2.78267e+06 454097 0 2.73978e+06 489814 0 2.69755e+06 522583 0 2.65604e+06 552648 0 2.61529e+06 580235 0 2.57533e+06 605543 0 2.53616e+06 628757 0 2.49781e+06 650042 0 2.46026e+06 669550 0 2.42353e+06 687417 0 2.38759e+06 703769 0 2.35245e+06 718720 0 2.31808e+06 732373 0 2.28448e+06 744824 0 2.25162e+06 756160 0 2.21948e+06 766460 0 2.18806e+06 775797 0 2.15732e+06 784239 0 2.12726e+06 791846 0 2.09785e+06 798677 0 2.06907e+06 804782 0 2.0409e+06 810211 0 2.01333e+06 815007 0 1.98634e+06 819212 0 1.95991e+06 822864 0 1.93402e+06 825998 0 1.90866e+06 828647 0 1.88381e+06 830842 0 1.85946e+06 832609 0 1.83558e+06 833976 0 1.81217e+06 834968 0 1.78921e+06 835606 0 1.76669e+06 835912 0 1.74459e+06 835905 0 1.72291e+06 835605 0 1.70162e+06 835028 0 1.68072e+06 834191 0 1.6602e+06 833109 0 1.64005e+06 831796 0 1.62025e+06 830265 0 1.60079e+06 828529 0 1.58167e+06 826600 0 1.56288e+06 824488 0 1.54441e+06 822204 0 1.52625e+06 819758 0 1.50838e+06 817158 0 1.49081e+06 814414 0 1.47353e+06 811534 0 1.45653e+06 808526 0 1.43979e+06 805396 0 1.42332e+06 802152 0 1.40711e+06 798800 0 1.39116e+06 795346 0 1.37544e+06 791796 0 1.35997e+06 788156 0 1.34473e+06 784430 0 1.32972e+06 780625 0 1.31494e+06 776744 0 1.30037e+06 772791 0 1.28602e+06 768772 0 1.27188e+06 764690 0 1.25795e+06 760548 0 1.24421e+06 756351 0 1.23067e+06 752102 0 1.21732e+06 747804 0 1.20417e+06 743460 0 1.19119e+06 739074 0 1.1784e+06 734647 0 1.16579e+06 730183 0 1.15335e+06 725684 0 1.14108e+06 721153 0 1.12898e+06 716591 0 1.11704e+06 712002 0 1.10527e+06 707386 0 1.09365e+06 702747 0 1.08219e+06 698086 0 1.07089e+06 693404 0 1.05973e+06 688704 0 1.04873e+06 683987 0 1.03786e+06 679255 0 1.02714e+06 674509 0 1.01657e+06 669751 0 1.00613e+06 664981 0 995824 660202 0 985654 655414 0 975617 650619 0 965710 645817 0 955931 641010 0 946277 636199 0 936748 631385 0 927341 626569 0 918055 621750 0 908887 616932 0 899837 612113 0 890901 607296 0 882080 602479 0 873370 597666 0 864772 592855 0 856282 588048 0 847899 583245 0 839623 578446 0 831452 573653 0 823384 568866 0 815418 564084 0 807552 559310 0 799786 554542 0 792118 549782 0 784547 545030 0 777072 540285 0 769691 535550 0 3.23334e+06 -1.25813e+06 0 3.30353e+06 -1.04041e+06 0 3.33364e+06 -863760 0 3.34241e+06 -707843 0 3.33527e+06 -568052 0 3.31727e+06 -441738 0 3.29116e+06 -327207 0 3.25911e+06 -223137 0 3.22269e+06 -128431 0 3.18308e+06 -42148.3 0 3.1412e+06 36537.9 0 3.09777e+06 108357 0 3.05333e+06 173960 0 3.00832e+06 233926 0 2.9631e+06 288775 0 2.91792e+06 338972 0 2.87299e+06 384937 0 2.82847e+06 427044 0 2.7845e+06 465631 0 2.74116e+06 501004 0 2.69853e+06 533436 0 2.65666e+06 563175 0 2.61557e+06 590444 0 2.57531e+06 615447 0 2.53588e+06 638366 0 2.49728e+06 659368 0 2.45951e+06 678603 0 2.42258e+06 696209 0 2.38646e+06 712310 0 2.35116e+06 727019 0 2.31664e+06 740442 0 2.2829e+06 752671 0 2.24992e+06 763795 0 2.21767e+06 773891 0 2.18614e+06 783033 0 2.15532e+06 791288 0 2.12517e+06 798717 0 2.09568e+06 805376 0 2.06683e+06 811317 0 2.0386e+06 816588 0 2.01098e+06 821233 0 1.98393e+06 825294 0 1.95745e+06 828807 0 1.93152e+06 831808 0 1.90613e+06 834329 0 1.88124e+06 836400 0 1.85685e+06 838050 0 1.83295e+06 839304 0 1.80951e+06 840187 0 1.78653e+06 840720 0 1.76399e+06 840926 0 1.74188e+06 840823 0 1.72017e+06 840430 0 1.69888e+06 839764 0 1.67797e+06 838841 0 1.65743e+06 837676 0 1.63727e+06 836283 0 1.61747e+06 834675 0 1.59801e+06 832865 0 1.57888e+06 830864 0 1.56009e+06 828684 0 1.54162e+06 826333 0 1.52345e+06 823823 0 1.50559e+06 821162 0 1.48802e+06 818359 0 1.47074e+06 815421 0 1.45374e+06 812357 0 1.43701e+06 809173 0 1.42055e+06 805877 0 1.40434e+06 802475 0 1.38839e+06 798972 0 1.37269e+06 795376 0 1.35722e+06 791690 0 1.34199e+06 787921 0 1.32699e+06 784073 0 1.31222e+06 780150 0 1.29766e+06 776158 0 1.28332e+06 772100 0 1.26919e+06 767980 0 1.25526e+06 763802 0 1.24154e+06 759570 0 1.22801e+06 755287 0 1.21468e+06 750956 0 1.20153e+06 746580 0 1.18857e+06 742162 0 1.17579e+06 737705 0 1.16319e+06 733212 0 1.15077e+06 728684 0 1.13851e+06 724125 0 1.12642e+06 719537 0 1.1145e+06 714921 0 1.10274e+06 710280 0 1.09114e+06 705616 0 1.07969e+06 700930 0 1.0684e+06 696225 0 1.05726e+06 691503 0 1.04627e+06 686763 0 1.03542e+06 682010 0 1.02472e+06 677242 0 1.01416e+06 672463 0 1.00373e+06 667674 0 993444 662875 0 983290 658068 0 973268 653254 0 963377 648434 0 953613 643610 0 943975 638782 0 934462 633950 0 925070 629117 0 915799 624283 0 906647 619449 0 897612 614615 0 888692 609782 0 879886 604951 0 871192 600123 0 862609 595299 0 854135 590478 0 845768 585661 0 837507 580849 0 829351 576043 0 821298 571243 0 813347 566450 0 805497 561663 0 797746 556884 0 790093 552112 0 782537 547348 0 775076 542593 0 767710 537846 0 3.27681e+06 -1.24784e+06 0 3.33522e+06 -1.03032e+06 0 3.35995e+06 -851579 0 3.36458e+06 -694382 0 3.35431e+06 -553792 0 3.3337e+06 -427032 0 3.30537e+06 -312302 0 3.27143e+06 -208209 0 3.23335e+06 -113606 0 3.19229e+06 -27516.2 0 3.14914e+06 50912.4 0 3.10459e+06 122429 0 3.05915e+06 187699 0 3.01327e+06 247313 0 2.96726e+06 301798 0 2.92138e+06 351628 0 2.87583e+06 397225 0 2.83076e+06 438968 0 2.78628e+06 477198 0 2.7425e+06 512220 0 2.69946e+06 544312 0 2.65723e+06 573720 0 2.61582e+06 600671 0 2.57526e+06 625365 0 2.53556e+06 647988 0 2.49672e+06 668704 0 2.45874e+06 687665 0 2.42161e+06 705008 0 2.38531e+06 720856 0 2.34984e+06 735324 0 2.31518e+06 748515 0 2.28131e+06 760522 0 2.2482e+06 771433 0 2.21584e+06 781326 0 2.18422e+06 790273 0 2.1533e+06 798341 0 2.12307e+06 805590 0 2.0935e+06 812078 0 2.06459e+06 817854 0 2.03629e+06 822968 0 2.00861e+06 827462 0 1.98152e+06 831378 0 1.95499e+06 834752 0 1.92902e+06 837620 0 1.90358e+06 840013 0 1.87866e+06 841962 0 1.85425e+06 843494 0 1.83031e+06 844635 0 1.80685e+06 845409 0 1.78385e+06 845838 0 1.76129e+06 845943 0 1.73916e+06 845744 0 1.71744e+06 845258 0 1.69613e+06 844503 0 1.67521e+06 843494 0 1.65467e+06 842246 0 1.6345e+06 840773 0 1.61468e+06 839089 0 1.59522e+06 837205 0 1.57609e+06 835133 0 1.5573e+06 832883 0 1.53882e+06 830466 0 1.52066e+06 827892 0 1.5028e+06 825169 0 1.48523e+06 822306 0 1.46795e+06 819311 0 1.45095e+06 816191 0 1.43423e+06 812954 0 1.41777e+06 809606 0 1.40157e+06 806153 0 1.38563e+06 802602 0 1.36993e+06 798959 0 1.35447e+06 795228 0 1.33925e+06 791414 0 1.32426e+06 787523 0 1.30949e+06 783560 0 1.29495e+06 779527 0 1.28062e+06 775431 0 1.26649e+06 771273 0 1.25258e+06 767059 0 1.23887e+06 762792 0 1.22535e+06 758474 0 1.21203e+06 754110 0 1.19889e+06 749702 0 1.18595e+06 745253 0 1.17318e+06 740765 0 1.16059e+06 736242 0 1.14818e+06 731686 0 1.13594e+06 727099 0 1.12386e+06 722484 0 1.11196e+06 717841 0 1.10021e+06 713175 0 1.08862e+06 708486 0 1.07719e+06 703776 0 1.06591e+06 699048 0 1.05479e+06 694302 0 1.04381e+06 689540 0 1.03298e+06 684764 0 1.02229e+06 679976 0 1.01174e+06 675176 0 1.00133e+06 670366 0 991059 665548 0 980920 660722 0 970914 655889 0 961037 651051 0 951289 646209 0 941666 641363 0 932168 636515 0 922792 631665 0 913537 626815 0 904400 621964 0 895380 617115 0 886476 612267 0 877685 607422 0 869007 602579 0 860438 597740 0 851979 592905 0 843628 588075 0 835382 583250 0 827241 578431 0 819203 573618 0 811267 568812 0 803432 564013 0 795696 559221 0 788057 554438 0 780516 549663 0 773070 544896 0 765718 540138 0 3.31864e+06 -1.23633e+06 0 3.36676e+06 -1.01908e+06 0 3.38613e+06 -838711 0 3.38666e+06 -680422 0 3.37326e+06 -539149 0 3.35003e+06 -412022 0 3.31949e+06 -297150 0 3.28364e+06 -193077 0 3.24392e+06 -98611.4 0 3.20142e+06 -12742.7 0 3.157e+06 65405.4 0 3.11132e+06 136601 0 3.06491e+06 201522 0 3.01815e+06 260770 0 2.97136e+06 314882 0 2.92478e+06 364335 0 2.87861e+06 409556 0 2.83299e+06 450928 0 2.78802e+06 488794 0 2.74379e+06 523462 0 2.70035e+06 555209 0 2.65776e+06 584285 0 2.61603e+06 610913 0 2.57517e+06 635297 0 2.53521e+06 657621 0 2.49613e+06 678051 0 2.45794e+06 696736 0 2.42061e+06 713814 0 2.38414e+06 729409 0 2.34851e+06 743635 0 2.3137e+06 756593 0 2.27969e+06 768377 0 2.24647e+06 779075 0 2.214e+06 788763 0 2.18228e+06 797515 0 2.15127e+06 805396 0 2.12096e+06 812467 0 2.09132e+06 818782 0 2.06233e+06 824394 0 2.03398e+06 829350 0 2.00624e+06 833694 0 1.9791e+06 837464 0 1.95252e+06 840700 0 1.92651e+06 843435 0 1.90104e+06 845700 0 1.87608e+06 847526 0 1.85163e+06 848941 0 1.82768e+06 849969 0 1.80419e+06 850634 0 1.78117e+06 850959 0 1.75858e+06 850963 0 1.73644e+06 850667 0 1.7147e+06 850089 0 1.69338e+06 849244 0 1.67245e+06 848149 0 1.6519e+06 846819 0 1.63172e+06 845267 0 1.6119e+06 843505 0 1.59243e+06 841547 0 1.5733e+06 839404 0 1.5545e+06 837086 0 1.53603e+06 834603 0 1.51786e+06 831965 0 1.5e+06 829180 0 1.48244e+06 826257 0 1.46516e+06 823204 0 1.44817e+06 820029 0 1.43145e+06 816738 0 1.41499e+06 813338 0 1.3988e+06 809835 0 1.38286e+06 806235 0 1.36717e+06 802545 0 1.35172e+06 798768 0 1.33651e+06 794911 0 1.32152e+06 790977 0 1.30677e+06 786972 0 1.29223e+06 782900 0 1.27791e+06 778764 0 1.2638e+06 774569 0 1.24989e+06 770319 0 1.23619e+06 766016 0 1.22269e+06 761664 0 1.20938e+06 757266 0 1.19626e+06 752826 0 1.18332e+06 748345 0 1.17057e+06 743827 0 1.15799e+06 739275 0 1.14559e+06 734690 0 1.13336e+06 730075 0 1.1213e+06 725432 0 1.10941e+06 720763 0 1.09767e+06 716071 0 1.0861e+06 711357 0 1.07468e+06 706623 0 1.06342e+06 701871 0 1.05231e+06 697102 0 1.04135e+06 692317 0 1.03053e+06 687520 0 1.01985e+06 682710 0 1.00932e+06 677889 0 998927 673059 0 988669 668221 0 978545 663375 0 968553 658524 0 958692 653667 0 948959 648807 0 939351 643944 0 929868 639078 0 920507 634212 0 911267 629345 0 902146 624479 0 893141 619613 0 884252 614750 0 875476 609890 0 866813 605032 0 858260 600179 0 849816 595330 0 841479 590486 0 833248 585648 0 825122 580816 0 817099 575990 0 809178 571171 0 801357 566360 0 793636 561556 0 786012 556761 0 778485 551974 0 771053 547196 0 763716 542427 0 3.35912e+06 -1.22375e+06 0 3.39811e+06 -1.00683e+06 0 3.41215e+06 -825181 0 3.40865e+06 -665974 0 3.39211e+06 -524130 0 3.36626e+06 -396711 0 3.33352e+06 -281754 0 3.29577e+06 -177744 0 3.25439e+06 -83449.9 0 3.21045e+06 2170.15 0 3.16477e+06 80015.2 0 3.11798e+06 150871 0 3.07058e+06 215428 0 3.02295e+06 274298 0 2.97539e+06 328025 0 2.92812e+06 377092 0 2.88134e+06 421930 0 2.83516e+06 462925 0 2.7897e+06 500422 0 2.74503e+06 534730 0 2.7012e+06 566129 0 2.65825e+06 594867 0 2.6162e+06 621171 0 2.57506e+06 645242 0 2.53483e+06 667266 0 2.49552e+06 687406 0 2.45711e+06 705815 0 2.41959e+06 722628 0 2.38295e+06 737969 0 2.34716e+06 751950 0 2.3122e+06 764675 0 2.27807e+06 776237 0 2.24472e+06 786721 0 2.21215e+06 796205 0 2.18033e+06 804761 0 2.14923e+06 812454 0 2.11883e+06 819345 0 2.08912e+06 825489 0 2.06007e+06 830937 0 2.03166e+06 835735 0 2.00386e+06 839928 0 1.97667e+06 843554 0 1.95005e+06 846650 0 1.924e+06 849252 0 1.89848e+06 851390 0 1.8735e+06 853093 0 1.84902e+06 854390 0 1.82503e+06 855305 0 1.80153e+06 855862 0 1.77848e+06 856082 0 1.75588e+06 855987 0 1.73371e+06 855594 0 1.71197e+06 854923 0 1.69063e+06 853989 0 1.66969e+06 852808 0 1.64913e+06 851395 0 1.62894e+06 849763 0 1.60912e+06 847926 0 1.58964e+06 845894 0 1.57051e+06 843679 0 1.55171e+06 841292 0 1.53323e+06 838743 0 1.51507e+06 836040 0 1.49721e+06 833194 0 1.47964e+06 830212 0 1.46237e+06 827101 0 1.44538e+06 823870 0 1.42866e+06 820525 0 1.41222e+06 817073 0 1.39603e+06 813520 0 1.38009e+06 809872 0 1.36441e+06 806134 0 1.34897e+06 802312 0 1.33376e+06 798410 0 1.31879e+06 794434 0 1.30404e+06 790388 0 1.28951e+06 786275 0 1.2752e+06 782101 0 1.2611e+06 777868 0 1.24721e+06 773581 0 1.23352e+06 769243 0 1.22002e+06 764856 0 1.20672e+06 760425 0 1.19361e+06 755952 0 1.18069e+06 751440 0 1.16795e+06 746892 0 1.15539e+06 742309 0 1.143e+06 737695 0 1.13078e+06 733052 0 1.11874e+06 728382 0 1.10686e+06 723687 0 1.09514e+06 718969 0 1.08358e+06 714229 0 1.07217e+06 709471 0 1.06092e+06 704694 0 1.04983e+06 699902 0 1.03888e+06 695095 0 1.02807e+06 690276 0 1.01741e+06 685444 0 1.0069e+06 680603 0 996516 675752 0 986273 670894 0 976164 666028 0 966187 661158 0 956341 656283 0 946622 651404 0 937030 646523 0 927562 641641 0 918216 636757 0 908991 631874 0 899884 626991 0 890895 622110 0 882020 617232 0 873260 612356 0 864611 607484 0 856073 602616 0 847644 597753 0 839322 592895 0 831106 588043 0 822994 583197 0 814986 578358 0 807080 573527 0 799273 568703 0 791566 563887 0 783957 559079 0 776444 554281 0 769026 549491 0 761703 544711 0 3.39848e+06 -1.21019e+06 0 3.4292e+06 -993654 0 3.43802e+06 -811018 0 3.43053e+06 -651053 0 3.41086e+06 -508742 0 3.38239e+06 -381106 0 3.34744e+06 -266117 0 3.30779e+06 -162213 0 3.26477e+06 -68123.8 0 3.21939e+06 17220.4 0 3.17245e+06 94740.3 0 3.12456e+06 165237 0 3.07618e+06 229415 0 3.02768e+06 287895 0 2.97935e+06 341226 0 2.9314e+06 389897 0 2.884e+06 434345 0 2.83728e+06 474956 0 2.79134e+06 512079 0 2.74623e+06 546024 0 2.70201e+06 577070 0 2.6587e+06 605468 0 2.61633e+06 631444 0 2.57491e+06 655201 0 2.53442e+06 676921 0 2.49488e+06 696772 0 2.45626e+06 714902 0 2.41855e+06 731448 0 2.38173e+06 746534 0 2.34578e+06 760271 0 2.31069e+06 772762 0 2.27642e+06 784100 0 2.24296e+06 794370 0 2.21028e+06 803649 0 2.17836e+06 812009 0 2.14718e+06 819515 0 2.1167e+06 826227 0 2.08692e+06 832199 0 2.0578e+06 837482 0 2.02933e+06 842123 0 2.00148e+06 846164 0 1.97423e+06 849645 0 1.94757e+06 852603 0 1.92148e+06 855072 0 1.89593e+06 857082 0 1.87091e+06 858663 0 1.8464e+06 859842 0 1.82239e+06 860644 0 1.79886e+06 861092 0 1.77579e+06 861208 0 1.75317e+06 861013 0 1.73099e+06 860524 0 1.70923e+06 859760 0 1.68788e+06 858737 0 1.66692e+06 857471 0 1.64636e+06 855975 0 1.62616e+06 854264 0 1.60633e+06 852349 0 1.58685e+06 850243 0 1.56772e+06 847957 0 1.54891e+06 845501 0 1.53043e+06 842886 0 1.51227e+06 840120 0 1.49441e+06 837211 0 1.47685e+06 834169 0 1.45958e+06 831001 0 1.44259e+06 827715 0 1.42588e+06 824316 0 1.40944e+06 820812 0 1.39326e+06 817208 0 1.37733e+06 813511 0 1.36165e+06 809726 0 1.34622e+06 805859 0 1.33102e+06 801913 0 1.31605e+06 797894 0 1.30131e+06 793806 0 1.28679e+06 789653 0 1.27249e+06 785440 0 1.2584e+06 781170 0 1.24452e+06 776846 0 1.23084e+06 772472 0 1.21736e+06 768051 0 1.20407e+06 763586 0 1.19097e+06 759081 0 1.17806e+06 754537 0 1.16533e+06 749958 0 1.15278e+06 745346 0 1.1404e+06 740703 0 1.1282e+06 736031 0 1.11617e+06 731334 0 1.1043e+06 726612 0 1.09259e+06 721867 0 1.08105e+06 717103 0 1.06966e+06 712320 0 1.05842e+06 707519 0 1.04734e+06 702703 0 1.03641e+06 697874 0 1.02562e+06 693032 0 1.01497e+06 688179 0 1.00447e+06 683316 0 994101 678445 0 983872 673566 0 973778 668681 0 963816 663792 0 953984 658898 0 944280 654001 0 934702 649102 0 925249 644202 0 915918 639301 0 906707 634401 0 897616 629502 0 888641 624605 0 879781 619711 0 871035 614820 0 862401 609933 0 853878 605050 0 845463 600173 0 837156 595301 0 828955 590435 0 820858 585576 0 812864 580724 0 804972 575879 0 797180 571043 0 789487 566214 0 781892 561394 0 774393 556584 0 766989 551782 0 759680 546990 0 3.43687e+06 -1.19576e+06 0 3.46001e+06 -979630 0 3.46371e+06 -796246 0 3.45228e+06 -635670 0 3.42948e+06 -492992 0 3.39841e+06 -365210 0 3.36126e+06 -250243 0 3.31971e+06 -146486 0 3.27505e+06 -52635.4 0 3.22824e+06 32406.1 0 3.18005e+06 109579 0 3.13105e+06 179699 0 3.0817e+06 243483 0 3.03234e+06 301559 0 2.98324e+06 354484 0 2.93461e+06 402751 0 2.88661e+06 446800 0 2.83935e+06 487022 0 2.79292e+06 523765 0 2.74738e+06 557342 0 2.70277e+06 588032 0 2.65911e+06 616087 0 2.61643e+06 641732 0 2.57472e+06 665172 0 2.53399e+06 686588 0 2.49421e+06 706146 0 2.45538e+06 723997 0 2.41748e+06 740275 0 2.38049e+06 755105 0 2.34439e+06 768597 0 2.30916e+06 780854 0 2.27476e+06 791968 0 2.24119e+06 802023 0 2.2084e+06 811097 0 2.17639e+06 819261 0 2.14511e+06 826579 0 2.11456e+06 833111 0 2.0847e+06 838911 0 2.05552e+06 844030 0 2.02699e+06 848513 0 1.99909e+06 852403 0 1.97179e+06 855740 0 1.94509e+06 858559 0 1.91895e+06 860894 0 1.89337e+06 862777 0 1.86832e+06 864235 0 1.84378e+06 865297 0 1.81974e+06 865986 0 1.79619e+06 866326 0 1.7731e+06 866338 0 1.75046e+06 866042 0 1.72826e+06 865457 0 1.70649e+06 864601 0 1.68513e+06 863489 0 1.66416e+06 862136 0 1.64358e+06 860558 0 1.62338e+06 858767 0 1.60355e+06 856776 0 1.58406e+06 854596 0 1.56492e+06 852239 0 1.54612e+06 849714 0 1.52764e+06 847032 0 1.50947e+06 844202 0 1.49162e+06 841232 0 1.47406e+06 838131 0 1.45679e+06 834905 0 1.43981e+06 831562 0 1.4231e+06 828110 0 1.40666e+06 824554 0 1.39048e+06 820900 0 1.37456e+06 817154 0 1.35889e+06 813322 0 1.34346e+06 809409 0 1.32827e+06 805419 0 1.31331e+06 801357 0 1.29858e+06 797227 0 1.28407e+06 793034 0 1.26978e+06 788782 0 1.2557e+06 784474 0 1.24183e+06 780113 0 1.22816e+06 775703 0 1.21469e+06 771248 0 1.20141e+06 766750 0 1.18832e+06 762212 0 1.17542e+06 757636 0 1.16271e+06 753026 0 1.15017e+06 748384 0 1.13781e+06 743712 0 1.12562e+06 739012 0 1.1136e+06 734287 0 1.10174e+06 729538 0 1.09005e+06 724767 0 1.07852e+06 719977 0 1.06714e+06 715169 0 1.05592e+06 710345 0 1.04485e+06 705505 0 1.03393e+06 700653 0 1.02315e+06 695788 0 1.01252e+06 690914 0 1.00203e+06 686029 0 991680 681137 0 981466 676238 0 971386 671334 0 961438 666425 0 951621 661512 0 941932 656597 0 932368 651680 0 922930 646762 0 913613 641844 0 904417 636927 0 895340 632012 0 886379 627099 0 877534 622189 0 868803 617282 0 860184 612380 0 851675 607483 0 843274 602590 0 834982 597704 0 826795 592825 0 818712 587952 0 810732 583086 0 802854 578229 0 795077 573379 0 787398 568538 0 779817 563706 0 772332 558883 0 764942 554069 0 757646 549266 0 3.47443e+06 -1.18052e+06 0 3.49053e+06 -964823 0 3.48921e+06 -780889 0 3.4739e+06 -619838 0 3.44799e+06 -476888 0 3.41432e+06 -349028 0 3.37496e+06 -234136 0 3.33153e+06 -130567 0 3.28523e+06 -36987.2 0 3.237e+06 47725.2 0 3.18756e+06 124529 0 3.13746e+06 194255 0 3.08714e+06 257630 0 3.03692e+06 315290 0 2.98707e+06 367798 0 2.93777e+06 415653 0 2.88916e+06 459296 0 2.84137e+06 499122 0 2.79446e+06 535480 0 2.74849e+06 568684 0 2.70349e+06 599014 0 2.65949e+06 626723 0 2.6165e+06 652036 0 2.57451e+06 675155 0 2.53352e+06 696265 0 2.49351e+06 715530 0 2.45448e+06 733100 0 2.41639e+06 749109 0 2.37924e+06 763682 0 2.34298e+06 776928 0 2.30761e+06 788950 0 2.27309e+06 799839 0 2.2394e+06 809680 0 2.20651e+06 818549 0 2.1744e+06 826516 0 2.14304e+06 833646 0 2.11241e+06 839998 0 2.08248e+06 845626 0 2.05324e+06 850580 0 2.02465e+06 854906 0 1.99669e+06 858645 0 1.96935e+06 861836 0 1.9426e+06 864517 0 1.91643e+06 866719 0 1.89081e+06 868474 0 1.86572e+06 869811 0 1.84116e+06 870755 0 1.81709e+06 871331 0 1.79351e+06 871562 0 1.7704e+06 871470 0 1.74775e+06 871075 0 1.72554e+06 870394 0 1.70375e+06 869444 0 1.68237e+06 868243 0 1.6614e+06 866805 0 1.64081e+06 865144 0 1.6206e+06 863274 0 1.60076e+06 861206 0 1.58127e+06 858952 0 1.56213e+06 856524 0 1.54332e+06 853931 0 1.52484e+06 851183 0 1.50668e+06 848288 0 1.48882e+06 845257 0 1.47126e+06 842095 0 1.454e+06 838812 0 1.43702e+06 835414 0 1.42031e+06 831907 0 1.40388e+06 828299 0 1.38771e+06 824595 0 1.37179e+06 820800 0 1.35613e+06 816921 0 1.34071e+06 812962 0 1.32553e+06 808927 0 1.31058e+06 804823 0 1.29585e+06 800652 0 1.28135e+06 796418 0 1.26707e+06 792127 0 1.253e+06 787780 0 1.23914e+06 783383 0 1.22548e+06 778938 0 1.21202e+06 774447 0 1.19875e+06 769915 0 1.18568e+06 765344 0 1.17279e+06 760737 0 1.16008e+06 756096 0 1.14756e+06 751424 0 1.13521e+06 746722 0 1.12303e+06 741994 0 1.11102e+06 737241 0 1.09918e+06 732465 0 1.0875e+06 727669 0 1.07598e+06 722853 0 1.06462e+06 718020 0 1.05341e+06 713171 0 1.04235e+06 708308 0 1.03145e+06 703432 0 1.02069e+06 698545 0 1.01007e+06 693649 0 999592 688743 0 989255 683830 0 979055 678911 0 968989 673986 0 959055 669058 0 949252 664126 0 939577 659192 0 930028 654257 0 920604 649321 0 911302 644386 0 902120 639452 0 893057 634520 0 884111 629590 0 875280 624664 0 866563 619742 0 857958 614825 0 849463 609912 0 841077 605006 0 832799 600105 0 824626 595211 0 816558 590325 0 808592 585445 0 800728 580574 0 792964 575712 0 785299 570858 0 777732 566013 0 770261 561178 0 762884 556352 0 755602 551537 0 3.51124e+06 -1.16451e+06 0 3.52074e+06 -949283 0 3.51453e+06 -764971 0 3.49537e+06 -603568 0 3.46636e+06 -460437 0 3.4301e+06 -332566 0 3.38856e+06 -217799 0 3.34324e+06 -114459 0 3.29531e+06 -21181.4 0 3.24566e+06 63175.9 0 3.19497e+06 139590 0 3.14379e+06 208904 0 3.0925e+06 271854 0 3.04144e+06 329086 0 2.99083e+06 381168 0 2.94086e+06 428601 0 2.89166e+06 471832 0 2.84333e+06 511255 0 2.79594e+06 547223 0 2.74955e+06 580050 0 2.70417e+06 610017 0 2.65983e+06 637376 0 2.61653e+06 662353 0 2.57426e+06 685151 0 2.53302e+06 705952 0 2.49279e+06 724922 0 2.45355e+06 742210 0 2.41528e+06 757950 0 2.37796e+06 772265 0 2.34156e+06 785265 0 2.30604e+06 797051 0 2.2714e+06 807715 0 2.2376e+06 817340 0 2.20461e+06 826003 0 2.1724e+06 833774 0 2.14096e+06 840716 0 2.11025e+06 846888 0 2.08025e+06 852344 0 2.05094e+06 857133 0 2.0223e+06 861301 0 1.99429e+06 864889 0 1.9669e+06 867936 0 1.94011e+06 870478 0 1.9139e+06 872547 0 1.88824e+06 874175 0 1.86313e+06 875389 0 1.83853e+06 876215 0 1.81444e+06 876679 0 1.79084e+06 876802 0 1.76771e+06 876606 0 1.74504e+06 876110 0 1.72281e+06 875333 0 1.70101e+06 874291 0 1.67962e+06 873001 0 1.65863e+06 871477 0 1.63804e+06 869734 0 1.61782e+06 867784 0 1.59798e+06 865640 0 1.57848e+06 863312 0 1.55934e+06 860813 0 1.54053e+06 858151 0 1.52205e+06 855336 0 1.50388e+06 852378 0 1.48603e+06 849285 0 1.46847e+06 846064 0 1.45121e+06 842723 0 1.43423e+06 839269 0 1.41753e+06 835708 0 1.4011e+06 832048 0 1.38493e+06 828293 0 1.36903e+06 824450 0 1.35337e+06 820523 0 1.33795e+06 816518 0 1.32278e+06 812439 0 1.30784e+06 808292 0 1.29312e+06 804079 0 1.27863e+06 799805 0 1.26436e+06 795474 0 1.2503e+06 791090 0 1.23645e+06 786656 0 1.2228e+06 782174 0 1.20935e+06 777649 0 1.19609e+06 773083 0 1.18303e+06 768480 0 1.17015e+06 763840 0 1.15746e+06 759168 0 1.14494e+06 754466 0 1.13261e+06 749735 0 1.12044e+06 744978 0 1.10844e+06 740197 0 1.09662e+06 735394 0 1.08495e+06 730571 0 1.07344e+06 725730 0 1.06209e+06 720872 0 1.0509e+06 715998 0 1.03986e+06 711111 0 1.02896e+06 706213 0 1.01821e+06 701303 0 1.00761e+06 696384 0 997148 691457 0 986824 686523 0 976638 681583 0 966586 676638 0 956667 671690 0 946877 666739 0 937216 661786 0 927682 656832 0 918271 651879 0 908983 646926 0 899816 641975 0 890767 637026 0 881835 632080 0 873019 627138 0 864316 622200 0 855725 617267 0 847244 612340 0 838872 607418 0 830608 602503 0 822449 597595 0 814394 592694 0 806442 587801 0 798592 582917 0 790842 578041 0 783191 573174 0 775637 568317 0 768179 563469 0 760817 558631 0 753548 553804 0 3.5474e+06 -1.1478e+06 0 3.55064e+06 -933055 0 3.53964e+06 -748510 0 3.5167e+06 -586873 0 3.48461e+06 -443646 0 3.44577e+06 -315829 0 3.40203e+06 -201236 0 3.35484e+06 -98163.3 0 3.30529e+06 -5220.4 0 3.25422e+06 78756.1 0 3.2023e+06 154758 0 3.15003e+06 223643 0 3.09779e+06 286155 0 3.04588e+06 342947 0 2.99452e+06 394592 0 2.94388e+06 441595 0 2.89409e+06 484406 0 2.84524e+06 523421 0 2.79738e+06 558994 0 2.75057e+06 591439 0 2.70481e+06 621040 0 2.66013e+06 648046 0 2.61652e+06 672685 0 2.57398e+06 695159 0 2.5325e+06 715650 0 2.49204e+06 734324 0 2.4526e+06 751328 0 2.41415e+06 766797 0 2.37666e+06 780853 0 2.34011e+06 793606 0 2.30446e+06 805156 0 2.2697e+06 815594 0 2.23578e+06 825004 0 2.20269e+06 833461 0 2.17039e+06 841035 0 2.13887e+06 847789 0 2.10808e+06 853781 0 2.07802e+06 859065 0 2.04864e+06 863689 0 2.01994e+06 867699 0 1.99188e+06 871136 0 1.96445e+06 874038 0 1.93761e+06 876441 0 1.91136e+06 878378 0 1.88567e+06 879878 0 1.86053e+06 880969 0 1.8359e+06 881679 0 1.81179e+06 882030 0 1.78816e+06 882045 0 1.76501e+06 881745 0 1.74232e+06 881149 0 1.72008e+06 880276 0 1.69826e+06 879141 0 1.67686e+06 877762 0 1.65587e+06 876153 0 1.63527e+06 874327 0 1.61504e+06 872298 0 1.59519e+06 870077 0 1.57569e+06 867676 0 1.55655e+06 865105 0 1.53773e+06 862374 0 1.51925e+06 859494 0 1.50109e+06 856471 0 1.48323e+06 853316 0 1.46568e+06 850035 0 1.44842e+06 846637 0 1.43144e+06 843127 0 1.41475e+06 839512 0 1.39832e+06 835800 0 1.38216e+06 831995 0 1.36626e+06 828102 0 1.35061e+06 824128 0 1.3352e+06 820078 0 1.32003e+06 815954 0 1.3051e+06 811764 0 1.29039e+06 807509 0 1.27591e+06 