<?xml version="1.0"?> 
<VTKFile type="StructuredGrid" version="0.1"> 
<StructuredGrid WholeExtent="0 127 0 127 0 0"> 
<Piece Extent="0 127 0 127 0 0"> 
<PointData>
<DataArray type="Float32" Name="|E|" format="ascii" NumberOfComponents="3"> 
-2.02399e+06 0 0 -2.024e+06 1282.42 0 -2.02401e+06 2564.86 0 -2.02403e+06 3847.32 0 -2.02405e+06 5129.81 0 -2.02408e+06 6412.35 0 -2.02412e+06 7694.95 0 -2.02417e+06 8977.61 0 -2.02422e+06 10260.4 0 -2.02428e+06 11543.2 0 -2.02434e+06 12826.1 0 -2.02442e+06 14109.2 0 -2.0245e+06 15392.4 0 -2.02459e+06 16675.7 0 -2.02468e+06 17959.2 0 -2.02478e+06 19242.8 0 -2.02489e+06 20526.6 0 -2.02501e+06 21810.6 0 -2.02513e+06 23094.8 0 -2.02526e+06 24379.2 0 -2.0254e+06 25663.8 0 -2.02554e+06 26948.6 0 -2.02569e+06 28233.7 0 -2.02585e+06 29519 0 -2.02602e+06 30804.6 0 -2.02619e+06 32090.4 0 -2.02637e+06 33376.6 0 -2.02655e+06 34663 0 -2.02675e+06 35949.8 0 -2.02695e+06 37236.8 0 -2.02715e+06 38524.2 0 -2.02737e+06 39812 0 -2.02759e+06 41100.1 0 -2.02782e+06 42388.6 0 -2.02805e+06 43677.4 0 -2.02829e+06 44966.6 0 -2.02854e+06 46256.3 0 -2.0288e+06 47546.3 0 -2.02906e+06 48836.8 0 -2.02933e+06 50127.7 0 -2.02961e+06 51419.1 0 -2.0299e+06 52710.9 0 -2.03019e+06 54003.2 0 -2.03049e+06 55296 0 -2.03079e+06 56589.2 0 -2.03111e+06 57883 0 -2.03143e+06 59177.3 0 -2.03175e+06 60472.1 0 -2.03209e+06 61767.5 0 -2.03243e+06 63063.4 0 -2.03278e+06 64359.9 0 -2.03313e+06 65657 0 -2.03349e+06 66954.6 0 -2.03386e+06 68252.9 0 -2.03424e+06 69551.7 0 -2.03462e+06 70851.2 0 -2.03501e+06 72151.4 0 -2.03541e+06 73452.1 0 -2.03582e+06 74753.6 0 -2.03623e+06 76055.7 0 -2.03665e+06 77358.5 0 -2.03707e+06 78662 0 -2.03751e+06 79966.2 0 -2.03795e+06 81271.1 0 -2.0384e+06 82576.8 0 -2.03885e+06 83883.2 0 -2.03931e+06 85190.4 0 -2.03978e+06 86498.3 0 -2.04026e+06 87807 0 -2.04074e+06 89116.5 0 -2.04123e+06 90426.8 0 -2.04173e+06 91738 0 -2.04223e+06 93050 0 -2.04274e+06 94362.8 0 -2.04326e+06 95676.5 0 -2.04379e+06 96991 0 -2.04432e+06 98306.4 0 -2.04486e+06 99622.7 0 -2.04541e+06 100940 0 -2.04596e+06 102258 0 -2.04652e+06 103577 0 -2.04709e+06 104897 0 -2.04767e+06 106218 0 -2.04825e+06 107540 0 -2.04884e+06 108863 0 -2.04944e+06 110187 0 -2.05004e+06 111512 0 -2.05065e+06 112838 0 -2.05127e+06 114165 0 -2.0519e+06 115493 0 -2.05253e+06 116822 0 -2.05317e+06 118152 0 -2.05382e+06 119484 0 -2.05448e+06 120816 0 -2.05514e+06 122149 0 -2.05581e+06 123484 0 -2.05648e+06 124820 0 -2.05717e+06 126157 0 -2.05786e+06 127495 0 -2.05856e+06 128834 0 -2.05926e+06 130175 0 -2.05997e+06 131516 0 -2.06069e+06 132859 0 -2.06142e+06 134203 0 -2.06216e+06 135549 0 -2.0629e+06 136895 0 -2.06365e+06 138243 0 -2.0644e+06 139592 0 -2.06517e+06 140943 0 -2.06594e+06 142295 0 -2.06672e+06 143648 0 -2.0675e+06 145002 0 -2.06829e+06 146358 0 -2.06909e+06 147715 0 -2.0699e+06 149074 0 -2.07072e+06 150434 0 -2.07154e+06 151796 0 -2.07237e+06 153158 0 -2.0732e+06 154523 0 -2.07405e+06 155889 0 -2.0749e+06 157256 0 -2.07576e+06 158625 0 -2.07662e+06 159995 0 -2.0775e+06 161367 0 -2.07838e+06 162740 0 -2.07927e+06 164115 0 -2.08016e+06 165491 0 -2.08106e+06 166870 0 -2.02287e+06 0 0 -2.02287e+06 1310.12 0 -2.02288e+06 2620.25 0 -2.0229e+06 3930.41 0 -2.02293e+06 5240.61 0 -2.02296e+06 6550.85 0 -2.023e+06 7861.15 0 -2.02305e+06 9171.53 0 -2.0231e+06 10482 0 -2.02316e+06 11792.6 0 -2.02323e+06 13103.2 0 -2.02331e+06 14414 0 -2.02339e+06 15724.9 0 -2.02348e+06 17036 0 -2.02358e+06 18347.2 0 -2.02368e+06 19658.6 0 -2.0238e+06 20970.2 0 -2.02392e+06 22282 0 -2.02404e+06 23593.9 0 -2.02418e+06 24906.1 0 -2.02432e+06 26218.5 0 -2.02447e+06 27531.2 0 -2.02462e+06 28844.1 0 -2.02479e+06 30157.3 0 -2.02496e+06 31470.7 0 -2.02513e+06 32784.5 0 -2.02532e+06 34098.5 0 -2.02551e+06 35412.9 0 -2.02571e+06 36727.6 0 -2.02592e+06 38042.6 0 -2.02613e+06 39358 0 -2.02635e+06 40673.7 0 -2.02658e+06 41989.8 0 -2.02682e+06 43306.3 0 -2.02706e+06 44623.2 0 -2.02731e+06 45940.5 0 -2.02757e+06 47258.2 0 -2.02783e+06 48576.4 0 -2.0281e+06 49895 0 -2.02838e+06 51214.1 0 -2.02867e+06 52533.6 0 -2.02896e+06 53853.7 0 -2.02926e+06 55174.2 0 -2.02957e+06 56495.2 0 -2.02989e+06 57816.8 0 -2.03021e+06 59138.9 0 -2.03054e+06 60461.5 0 -2.03088e+06 61784.7 0 -2.03122e+06 63108.5 0 -2.03158e+06 64432.8 0 -2.03194e+06 65757.8 0 -2.0323e+06 67083.4 0 -2.03268e+06 68409.5 0 -2.03306e+06 69736.4 0 -2.03345e+06 71063.8 0 -2.03384e+06 72391.9 0 -2.03425e+06 73720.7 0 -2.03466e+06 75050.2 0 -2.03507e+06 76380.4 0 -2.0355e+06 77711.3 0 -2.03593e+06 79042.9 0 -2.03637e+06 80375.3 0 -2.03682e+06 81708.3 0 -2.03727e+06 83042.2 0 -2.03774e+06 84376.8 0 -2.03821e+06 85712.3 0 -2.03868e+06 87048.5 0 -2.03917e+06 88385.5 0 -2.03966e+06 89723.4 0 -2.04016e+06 91062.1 0 -2.04066e+06 92401.6 0 -2.04118e+06 93742 0 -2.0417e+06 95083.3 0 -2.04222e+06 96425.5 0 -2.04276e+06 97768.6 0 -2.0433e+06 99112.6 0 -2.04385e+06 100458 0 -2.04441e+06 101803 0 -2.04498e+06 103150 0 -2.04555e+06 104498 0 -2.04613e+06 105847 0 -2.04671e+06 107197 0 -2.04731e+06 108548 0 -2.04791e+06 109899 0 -2.04852e+06 111252 0 -2.04914e+06 112606 0 -2.04976e+06 113961 0 -2.05039e+06 115317 0 -2.05103e+06 116674 0 -2.05168e+06 118033 0 -2.05233e+06 119392 0 -2.05299e+06 120753 0 -2.05366e+06 122114 0 -2.05434e+06 123477 0 -2.05502e+06 124841 0 -2.05571e+06 126206 0 -2.05641e+06 127573 0 -2.05712e+06 128940 0 -2.05783e+06 130309 0 -2.05855e+06 131679 0 -2.05928e+06 133051 0 -2.06002e+06 134423 0 -2.06076e+06 135797 0 -2.06151e+06 137173 0 -2.06227e+06 138549 0 -2.06304e+06 139927 0 -2.06381e+06 141306 0 -2.06459e+06 142687 0 -2.06538e+06 144069 0 -2.06617e+06 145452 0 -2.06698e+06 146837 0 -2.06779e+06 148223 0 -2.06861e+06 149611 0 -2.06943e+06 151000 0 -2.07027e+06 152391 0 -2.07111e+06 153783 0 -2.07196e+06 155176 0 -2.07281e+06 156571 0 -2.07368e+06 157968 0 -2.07455e+06 159366 0 -2.07543e+06 160766 0 -2.07631e+06 162167 0 -2.07721e+06 163570 0 -2.07811e+06 164974 0 -2.07902e+06 166381 0 -2.07994e+06 167788 0 -2.08086e+06 169198 0 -2.08179e+06 170609 0 -2.02174e+06 0 0 -2.02174e+06 1338.01 0 -2.02175e+06 2676.04 0 -2.02177e+06 4014.09 0 -2.0218e+06 5352.19 0 -2.02183e+06 6690.33 0 -2.02187e+06 8028.54 0 -2.02192e+06 9366.82 0 -2.02198e+06 10705.2 0 -2.02204e+06 12043.7 0 -2.02211e+06 13382.3 0 -2.02219e+06 14721 0 -2.02228e+06 16059.8 0 -2.02237e+06 17398.9 0 -2.02247e+06 18738 0 -2.02258e+06 20077.4 0 -2.0227e+06 21416.9 0 -2.02282e+06 22756.7 0 -2.02295e+06 24096.6 0 -2.02309e+06 25436.8 0 -2.02323e+06 26777.3 0 -2.02339e+06 28117.9 0 -2.02355e+06 29458.9 0 -2.02372e+06 30800.1 0 -2.02389e+06 32141.7 0 -2.02407e+06 33483.5 0 -2.02427e+06 34825.6 0 -2.02446e+06 36168.1 0 -2.02467e+06 37510.9 0 -2.02488e+06 38854.1 0 -2.0251e+06 40197.7 0 -2.02533e+06 41541.6 0 -2.02557e+06 42885.9 0 -2.02581e+06 44230.7 0 -2.02606e+06 45575.8 0 -2.02632e+06 46921.4 0 -2.02658e+06 48267.4 0 -2.02686e+06 49613.9 0 -2.02714e+06 50960.9 0 -2.02743e+06 52308.3 0 -2.02772e+06 53656.3 0 -2.02803e+06 55004.7 0 -2.02834e+06 56353.7 0 -2.02865e+06 57703.2 0 -2.02898e+06 59053.3 0 -2.02931e+06 60403.9 0 -2.02965e+06 61755.1 0 -2.03e+06 63106.9 0 -2.03036e+06 64459.3 0 -2.03072e+06 65812.3 0 -2.03109e+06 67166 0 -2.03147e+06 68520.3 0 -2.03186e+06 69875.2 0 -2.03225e+06 71230.8 0 -2.03265e+06 72587.1 0 -2.03306e+06 73944.1 0 -2.03348e+06 75301.8 0 -2.0339e+06 76660.2 0 -2.03433e+06 78019.4 0 -2.03477e+06 79379.3 0 -2.03522e+06 80739.9 0 -2.03567e+06 82101.4 0 -2.03613e+06 83463.6 0 -2.0366e+06 84826.6 0 -2.03708e+06 86190.5 0 -2.03756e+06 87555.2 0 -2.03805e+06 88920.7 0 -2.03855e+06 90287.1 0 -2.03906e+06 91654.3 0 -2.03957e+06 93022.5 0 -2.0401e+06 94391.5 0 -2.04063e+06 95761.4 0 -2.04116e+06 97132.3 0 -2.04171e+06 98504.1 0 -2.04226e+06 99876.9 0 -2.04282e+06 101251 0 -2.04339e+06 102625 0 -2.04396e+06 104001 0 -2.04455e+06 105378 0 -2.04514e+06 106756 0 -2.04574e+06 108134 0 -2.04634e+06 109514 0 -2.04696e+06 110895 0 -2.04758e+06 112277 0 -2.04821e+06 113660 0 -2.04884e+06 115044 0 -2.04949e+06 116430 0 -2.05014e+06 117816 0 -2.0508e+06 119204 0 -2.05146e+06 120593 0 -2.05214e+06 121983 0 -2.05282e+06 123374 0 -2.05351e+06 124766 0 -2.05421e+06 126160 0 -2.05492e+06 127555 0 -2.05563e+06 128951 0 -2.05635e+06 130348 0 -2.05708e+06 131747 0 -2.05781e+06 133147 0 -2.05856e+06 134548 0 -2.05931e+06 135951 0 -2.06007e+06 137355 0 -2.06084e+06 138760 0 -2.06161e+06 140167 0 -2.06239e+06 141575 0 -2.06319e+06 142984 0 -2.06398e+06 144395 0 -2.06479e+06 145808 0 -2.0656e+06 147221 0 -2.06642e+06 148637 0 -2.06725e+06 150054 0 -2.06809e+06 151472 0 -2.06894e+06 152892 0 -2.06979e+06 154313 0 -2.07065e+06 155736 0 -2.07152e+06 157160 0 -2.07239e+06 158586 0 -2.07328e+06 160014 0 -2.07417e+06 161443 0 -2.07507e+06 162874 0 -2.07598e+06 164307 0 -2.07689e+06 165741 0 -2.07781e+06 167177 0 -2.07874e+06 168614 0 -2.07968e+06 170054 0 -2.08063e+06 171495 0 -2.08158e+06 172937 0 -2.08255e+06 174382 0 -2.0206e+06 0 0 -2.02061e+06 1366.1 0 -2.02062e+06 2732.22 0 -2.02064e+06 4098.36 0 -2.02066e+06 5464.55 0 -2.0207e+06 6830.79 0 -2.02074e+06 8197.1 0 -2.02079e+06 9563.48 0 -2.02085e+06 10930 0 -2.02092e+06 12296.6 0 -2.02099e+06 13663.3 0 -2.02107e+06 15030.1 0 -2.02116e+06 16397.1 0 -2.02125e+06 17764.3 0 -2.02136e+06 19131.6 0 -2.02147e+06 20499.1 0 -2.02159e+06 21866.8 0 -2.02172e+06 23234.7 0 -2.02185e+06 24602.9 0 -2.02199e+06 25971.3 0 -2.02214e+06 27339.9 0 -2.0223e+06 28708.9 0 -2.02247e+06 30078.1 0 -2.02264e+06 31447.5 0 -2.02282e+06 32817.3 0 -2.02301e+06 34187.5 0 -2.02321e+06 35557.9 0 -2.02341e+06 36928.7 0 -2.02363e+06 38299.9 0 -2.02385e+06 39671.4 0 -2.02407e+06 41043.4 0 -2.02431e+06 42415.7 0 -2.02455e+06 43788.4 0 -2.0248e+06 45161.6 0 -2.02506e+06 46535.2 0 -2.02533e+06 47909.3 0 -2.0256e+06 49283.9 0 -2.02588e+06 50658.9 0 -2.02617e+06 52034.4 0 -2.02647e+06 53410.4 0 -2.02677e+06 54787 0 -2.02709e+06 56164.1 0 -2.02741e+06 57541.7 0 -2.02773e+06 58920 0 -2.02807e+06 60298.8 0 -2.02841e+06 61678.1 0 -2.02877e+06 63058.1 0 -2.02913e+06 64438.8 0 -2.02949e+06 65820 0 -2.02987e+06 67201.9 0 -2.03025e+06 68584.5 0 -2.03064e+06 69967.7 0 -2.03104e+06 71351.6 0 -2.03144e+06 72736.3 0 -2.03186e+06 74121.6 0 -2.03228e+06 75507.7 0 -2.03271e+06 76894.5 0 -2.03314e+06 78282.1 0 -2.03359e+06 79670.5 0 -2.03404e+06 81059.6 0 -2.0345e+06 82449.6 0 -2.03497e+06 83840.4 0 -2.03545e+06 85232 0 -2.03593e+06 86624.4 0 -2.03642e+06 88017.7 0 -2.03692e+06 89411.9 0 -2.03743e+06 90807 0 -2.03794e+06 92203 0 -2.03847e+06 93599.9 0 -2.039e+06 94997.7 0 -2.03953e+06 96396.5 0 -2.04008e+06 97796.2 0 -2.04064e+06 99196.9 0 -2.0412e+06 100599 0 -2.04177e+06 102001 0 -2.04234e+06 103405 0 -2.04293e+06 104810 0 -2.04352e+06 106216 0 -2.04413e+06 107623 0 -2.04473e+06 109031 0 -2.04535e+06 110440 0 -2.04598e+06 111850 0 -2.04661e+06 113261 0 -2.04725e+06 114673 0 -2.0479e+06 116087 0 -2.04855e+06 117502 0 -2.04922e+06 118918 0 -2.04989e+06 120335 0 -2.05057e+06 121753 0 -2.05126e+06 123173 0 -2.05196e+06 124594 0 -2.05266e+06 126016 0 -2.05337e+06 127439 0 -2.05409e+06 128864 0 -2.05482e+06 130290 0 -2.05555e+06 131717 0 -2.0563e+06 133146 0 -2.05705e+06 134576 0 -2.05781e+06 136007 0 -2.05858e+06 137440 0 -2.05935e+06 138874 0 -2.06013e+06 140310 0 -2.06093e+06 141747 0 -2.06173e+06 143185 0 -2.06253e+06 144625 0 -2.06335e+06 146067 0 -2.06417e+06 147510 0 -2.065e+06 148954 0 -2.06584e+06 150400 0 -2.06669e+06 151848 0 -2.06754e+06 153297 0 -2.06841e+06 154748 0 -2.06928e+06 156200 0 -2.07016e+06 157654 0 -2.07105e+06 159110 0 -2.07194e+06 160567 0 -2.07285e+06 162026 0 -2.07376e+06 163486 0 -2.07468e+06 164949 0 -2.07561e+06 166413 0 -2.07654e+06 167878 0 -2.07749e+06 169346 0 -2.07844e+06 170815 0 -2.0794e+06 172286 0 -2.08037e+06 173759 0 -2.08134e+06 175234 0 -2.08233e+06 176711 0 -2.08332e+06 178189 0 -2.01946e+06 0 0 -2.01947e+06 1394.39 0 -2.01948e+06 2788.79 0 -2.0195e+06 4183.22 0 -2.01953e+06 5577.7 0 -2.01956e+06 6972.23 0 -2.0196e+06 8366.83 0 -2.01966e+06 9761.52 0 -2.01972e+06 11156.3 0 -2.01978e+06 12551.2 0 -2.01986e+06 13946.2 0 -2.01994e+06 15341.4 0 -2.02003e+06 16736.7 0 -2.02013e+06 18132.2 0 -2.02024e+06 19527.9 0 -2.02036e+06 20923.8 0 -2.02048e+06 22319.8 0 -2.02061e+06 23716.1 0 -2.02075e+06 25112.7 0 -2.0209e+06 26509.5 0 -2.02105e+06 27906.6 0 -2.02121e+06 29303.9 0 -2.02138e+06 30701.5 0 -2.02156e+06 32099.5 0 -2.02175e+06 33497.8 0 -2.02195e+06 34896.4 0 -2.02215e+06 36295.4 0 -2.02236e+06 37694.7 0 -2.02258e+06 39094.4 0 -2.0228e+06 40494.5 0 -2.02304e+06 41895 0 -2.02328e+06 43296 0 -2.02353e+06 44697.3 0 -2.02379e+06 46099.2 0 -2.02406e+06 47501.5 0 -2.02433e+06 48904.2 0 -2.02461e+06 50307.5 0 -2.0249e+06 51711.3 0 -2.0252e+06 53115.6 0 -2.02551e+06 54520.4 0 -2.02582e+06 55925.8 0 -2.02614e+06 57331.8 0 -2.02647e+06 58738.3 0 -2.02681e+06 60145.4 0 -2.02716e+06 61553.2 0 -2.02751e+06 62961.5 0 -2.02788e+06 64370.5 0 -2.02825e+06 65780.2 0 -2.02862e+06 67190.5 0 -2.02901e+06 68601.5 0 -2.0294e+06 70013.2 0 -2.02981e+06 71425.6 0 -2.03022e+06 72838.8 0 -2.03064e+06 74252.6 0 -2.03106e+06 75667.3 0 -2.0315e+06 77082.7 0 -2.03194e+06 78498.9 0 -2.03239e+06 79915.9 0 -2.03285e+06 81333.7 0 -2.03331e+06 82752.3 0 -2.03379e+06 84171.8 0 -2.03427e+06 85592.2 0 -2.03476e+06 87013.4 0 -2.03526e+06 88435.5 0 -2.03577e+06 89858.5 0 -2.03628e+06 91282.5 0 -2.0368e+06 92707.3 0 -2.03733e+06 94133.2 0 -2.03787e+06 95560 0 -2.03842e+06 96987.7 0 -2.03898e+06 98416.5 0 -2.03954e+06 99846.3 0 -2.04011e+06 101277 0 -2.04069e+06 102709 0 -2.04128e+06 104142 0 -2.04187e+06 105576 0 -2.04248e+06 107011 0 -2.04309e+06 108447 0 -2.04371e+06 109884 0 -2.04433e+06 111323 0 -2.04497e+06 112763 0 -2.04561e+06 114203 0 -2.04627e+06 115645 0 -2.04693e+06 117088 0 -2.0476e+06 118533 0 -2.04827e+06 119978 0 -2.04896e+06 121425 0 -2.04965e+06 122873 0 -2.05035e+06 124323 0 -2.05106e+06 125774 0 -2.05178e+06 127226 0 -2.0525e+06 128679 0 -2.05324e+06 130134 0 -2.05398e+06 131590 0 -2.05473e+06 133047 0 -2.05549e+06 134506 0 -2.05625e+06 135966 0 -2.05703e+06 137428 0 -2.05781e+06 138891 0 -2.0586e+06 140356 0 -2.0594e+06 141822 0 -2.06021e+06 143289 0 -2.06103e+06 144758 0 -2.06185e+06 146229 0 -2.06268e+06 147701 0 -2.06352e+06 149175 0 -2.06437e+06 150650 0 -2.06523e+06 152127 0 -2.06609e+06 153606 0 -2.06697e+06 155086 0 -2.06785e+06 156568 0 -2.06874e+06 158051 0 -2.06964e+06 159537 0 -2.07055e+06 161023 0 -2.07146e+06 162512 0 -2.07238e+06 164002 0 -2.07332e+06 165495 0 -2.07426e+06 166989 0 -2.0752e+06 168484 0 -2.07616e+06 169982 0 -2.07713e+06 171481 0 -2.0781e+06 172982 0 -2.07908e+06 174486 0 -2.08007e+06 175991 0 -2.08107e+06 177497 0 -2.08208e+06 179006 0 -2.08309e+06 180517 0 -2.08412e+06 182030 0 -2.01832e+06 0 0 -2.01832e+06 1422.87 0 -2.01833e+06 2845.75 0 -2.01835e+06 4268.66 0 -2.01838e+06 5691.62 0 -2.01842e+06 7114.64 0 -2.01846e+06 8537.73 0 -2.01852e+06 9960.91 0 -2.01858e+06 11384.2 0 -2.01865e+06 12807.6 0 -2.01872e+06 14231.1 0 -2.01881e+06 15654.8 0 -2.0189e+06 17078.7 0 -2.01901e+06 18502.7 0 -2.01912e+06 19926.9 0 -2.01924e+06 21351.4 0 -2.01936e+06 22776 0 -2.0195e+06 24200.9 0 -2.01964e+06 25626 0 -2.01979e+06 27051.4 0 -2.01995e+06 28477.1 0 -2.02012e+06 29903.1 0 -2.0203e+06 31329.4 0 -2.02048e+06 32756 0 -2.02067e+06 34182.9 0 -2.02087e+06 35610.3 0 -2.02108e+06 37037.9 0 -2.0213e+06 38466 0 -2.02152e+06 39894.5 0 -2.02176e+06 41323.3 0 -2.022e+06 42752.6 0 -2.02225e+06 44182.4 0 -2.02251e+06 45612.6 0 -2.02277e+06 47043.3 0 -2.02305e+06 48474.5 0 -2.02333e+06 49906.2 0 -2.02362e+06 51338.4 0 -2.02392e+06 52771.1 0 -2.02423e+06 54204.4 0 -2.02454e+06 55638.2 0 -2.02487e+06 57072.7 0 -2.0252e+06 58507.7 0 -2.02554e+06 59943.3 0 -2.02589e+06 61379.6 0 -2.02624e+06 62816.5 0 -2.02661e+06 64254 0 -2.02698e+06 65692.3 0 -2.02736e+06 67131.2 0 -2.02775e+06 68570.8 0 -2.02815e+06 70011.1 0 -2.02856e+06 71452.2 0 -2.02897e+06 72894 0 -2.02939e+06 74336.6 0 -2.02983e+06 75780 0 -2.03026e+06 77224.1 0 -2.03071e+06 78669.1 0 -2.03117e+06 80114.9 0 -2.03163e+06 81561.5 0 -2.0321e+06 83009 0 -2.03258e+06 84457.4 0 -2.03307e+06 85906.7 0 -2.03357e+06 87356.8 0 -2.03408e+06 88807.9 0 -2.03459e+06 90259.9 0 -2.03511e+06 91712.9 0 -2.03564e+06 93166.9 0 -2.03618e+06 94621.8 0 -2.03673e+06 96077.7 0 -2.03728e+06 97534.7 0 -2.03785e+06 98992.6 0 -2.03842e+06 100452 0 -2.039e+06 101912 0 -2.03959e+06 103373 0 -2.04018e+06 104835 0 -2.04079e+06 106299 0 -2.0414e+06 107763 0 -2.04202e+06 109229 0 -2.04265e+06 110696 0 -2.04329e+06 112164 0 -2.04394e+06 113633 0 -2.0446e+06 115103 0 -2.04526e+06 116575 0 -2.04593e+06 118048 0 -2.04661e+06 119522 0 -2.0473e+06 120997 0 -2.048e+06 122474 0 -2.0487e+06 123952 0 -2.04942e+06 125432 0 -2.05014e+06 126912 0 -2.05087e+06 128395 0 -2.05161e+06 129878 0 -2.05236e+06 131363 0 -2.05311e+06 132849 0 -2.05388e+06 134337 0 -2.05465e+06 135826 0 -2.05543e+06 137317 0 -2.05622e+06 138809 0 -2.05702e+06 140303 0 -2.05783e+06 141798 0 -2.05864e+06 143295 0 -2.05947e+06 144793 0 -2.0603e+06 146293 0 -2.06114e+06 147794 0 -2.06199e+06 149297 0 -2.06285e+06 150802 0 -2.06371e+06 152309 0 -2.06459e+06 153817 0 -2.06547e+06 155326 0 -2.06636e+06 156838 0 -2.06726e+06 158351 0 -2.06817e+06 159866 0 -2.06909e+06 161383 0 -2.07001e+06 162901 0 -2.07095e+06 164421 0 -2.07189e+06 165943 0 -2.07284e+06 167467 0 -2.0738e+06 168993 0 -2.07477e+06 170521 0 -2.07575e+06 172050 0 -2.07673e+06 173582 0 -2.07773e+06 175115 0 -2.07873e+06 176650 0 -2.07974e+06 178188 0 -2.08076e+06 179727 0 -2.08179e+06 181268 0 -2.08283e+06 182812 0 -2.08388e+06 184357 0 -2.08493e+06 185905 0 -2.01716e+06 0 0 -2.01717e+06 1451.54 0 -2.01718e+06 2903.1 0 -2.0172e+06 4354.69 0 -2.01723e+06 5806.32 0 -2.01727e+06 7258.02 0 -2.01732e+06 8709.8 0 -2.01737e+06 10161.7 0 -2.01743e+06 11613.7 0 -2.01751e+06 13065.8 0 -2.01759e+06 14518 0 -2.01767e+06 15970.4 0 -2.01777e+06 17423 0 -2.01788e+06 18875.7 0 -2.01799e+06 20328.7 0 -2.01811e+06 21781.9 0 -2.01824e+06 23235.3 0 -2.01838e+06 24688.9 0 -2.01853e+06 26142.9 0 -2.01869e+06 27597.1 0 -2.01885e+06 29051.6 0 -2.01902e+06 30506.4 0 -2.0192e+06 31961.5 0 -2.01939e+06 33417 0 -2.01959e+06 34872.8 0 -2.0198e+06 36329 0 -2.02001e+06 37785.6 0 -2.02024e+06 39242.6 0 -2.02047e+06 40700 0 -2.02071e+06 42157.9 0 -2.02096e+06 43616.2 0 -2.02121e+06 45075 0 -2.02148e+06 46534.2 0 -2.02175e+06 47994 0 -2.02204e+06 49454.3 0 -2.02233e+06 50915.1 0 -2.02263e+06 52376.4 0 -2.02294e+06 53838.3 0 -2.02325e+06 55300.8 0 -2.02358e+06 56763.9 0 -2.02391e+06 58227.6 0 -2.02425e+06 59691.9 0 -2.0246e+06 61156.8 0 -2.02496e+06 62622.4 0 -2.02533e+06 64088.7 0 -2.0257e+06 65555.7 0 -2.02609e+06 67023.4 0 -2.02648e+06 68491.8 0 -2.02688e+06 69960.9 0 -2.02729e+06 71430.8 0 -2.02771e+06 72901.5 0 -2.02814e+06 74372.9 0 -2.02857e+06 75845.2 0 -2.02902e+06 77318.3 0 -2.02947e+06 78792.2 0 -2.02993e+06 80266.9 0 -2.0304e+06 81742.6 0 -2.03088e+06 83219.1 0 -2.03136e+06 84696.5 0 -2.03186e+06 86174.8 0 -2.03236e+06 87654.1 0 -2.03287e+06 89134.3 0 -2.03339e+06 90615.5 0 -2.03392e+06 92097.7 0 -2.03446e+06 93580.9 0 -2.035e+06 95065.1 0 -2.03556e+06 96550.3 0 -2.03612e+06 98036.6 0 -2.03669e+06 99523.9 0 -2.03727e+06 101012 0 -2.03786e+06 102502 0 -2.03846e+06 103993 0 -2.03907e+06 105484 0 -2.03968e+06 106977 0 -2.0403e+06 108471 0 -2.04094e+06 109967 0 -2.04158e+06 111463 0 -2.04223e+06 112961 0 -2.04288e+06 114460 0 -2.04355e+06 115960 0 -2.04422e+06 117462 0 -2.04491e+06 118965 0 -2.0456e+06 120469 0 -2.0463e+06 121974 0 -2.04701e+06 123481 0 -2.04773e+06 124989 0 -2.04845e+06 126499 0 -2.04919e+06 128010 0 -2.04993e+06 129522 0 -2.05069e+06 131036 0 -2.05145e+06 132551 0 -2.05222e+06 134068 0 -2.053e+06 135586 0 -2.05378e+06 137106 0 -2.05458e+06 138627 0 -2.05538e+06 140150 0 -2.0562e+06 141674 0 -2.05702e+06 143200 0 -2.05785e+06 144728 0 -2.05869e+06 146257 0 -2.05954e+06 147788 0 -2.0604e+06 149321 0 -2.06126e+06 150855 0 -2.06214e+06 152391 0 -2.06302e+06 153928 0 -2.06391e+06 155468 0 -2.06481e+06 157009 0 -2.06572e+06 158552 0 -2.06664e+06 160096 0 -2.06757e+06 161643 0 -2.0685e+06 163191 0 -2.06945e+06 164742 0 -2.0704e+06 166294 0 -2.07136e+06 167848 0 -2.07234e+06 169403 0 -2.07332e+06 170961 0 -2.07431e+06 172521 0 -2.0753e+06 174083 0 -2.07631e+06 175647 0 -2.07733e+06 177212 0 -2.07835e+06 178780 0 -2.07938e+06 180350 0 -2.08043e+06 181922 0 -2.08148e+06 183496 0 -2.08254e+06 185072 0 -2.08361e+06 186651 0 -2.08468e+06 188231 0 -2.08577e+06 189814 0 -2.01601e+06 0 0 -2.01601e+06 1480.41 0 -2.01602e+06 2960.83 0 -2.01605e+06 4441.29 0 -2.01608e+06 5921.8 0 -2.01612e+06 7402.38 0 -2.01616e+06 8883.03 0 -2.01622e+06 10363.8 0 -2.01628e+06 11844.7 0 -2.01636e+06 13325.7 0 -2.01644e+06 14806.8 0 -2.01653e+06 16288.1 0 -2.01663e+06 17769.6 0 -2.01674e+06 19251.3 0 -2.01686e+06 20733.2 0 -2.01698e+06 22215.3 0 -2.01712e+06 23697.7 0 -2.01726e+06 25180.3 0 -2.01741e+06 26663.2 0 -2.01757e+06 28146.4 0 -2.01774e+06 29630 0 -2.01792e+06 31113.8 0 -2.01811e+06 32598 0 -2.0183e+06 34082.5 0 -2.01851e+06 35567.4 0 -2.01872e+06 37052.7 0 -2.01894e+06 38538.4 0 -2.01917e+06 40024.6 0 -2.01941e+06 41511.2 0 -2.01965e+06 42998.2 0 -2.01991e+06 44485.7 0 -2.02018e+06 45973.7 0 -2.02045e+06 47462.2 0 -2.02073e+06 48951.2 0 -2.02102e+06 50440.8 0 -2.02132e+06 51930.9 0 -2.02163e+06 53421.6 0 -2.02195e+06 54912.9 0 -2.02227e+06 56404.8 0 -2.02261e+06 57897.3 0 -2.02295e+06 59390.5 0 -2.0233e+06 60884.3 0 -2.02366e+06 62378.8 0 -2.02403e+06 63874 0 -2.02441e+06 65369.9 0 -2.0248e+06 66866.5 0 -2.02519e+06 68363.8 0 -2.0256e+06 69861.9 0 -2.02601e+06 71360.8 0 -2.02643e+06 72860.5 0 -2.02686e+06 74361 0 -2.0273e+06 75862.3 0 -2.02775e+06 77364.4 0 -2.0282e+06 78867.5 0 -2.02867e+06 80371.3 0 -2.02914e+06 81876.1 0 -2.02963e+06 83381.8 0 -2.03012e+06 84888.5 0 -2.03062e+06 86396 0 -2.03113e+06 87904.6 0 -2.03165e+06 89414.1 0 -2.03217e+06 90924.6 0 -2.03271e+06 92436.2 0 -2.03325e+06 93948.7 0 -2.03381e+06 95462.4 0 -2.03437e+06 96977 0 -2.03494e+06 98492.8 0 -2.03552e+06 100010 0 -2.03611e+06 101528 0 -2.0367e+06 103047 0 -2.03731e+06 104567 0 -2.03793e+06 106089 0 -2.03855e+06 107611 0 -2.03918e+06 109135 0 -2.03982e+06 110660 0 -2.04047e+06 112187 0 -2.04113e+06 113714 0 -2.0418e+06 115243 0 -2.04248e+06 116774 0 -2.04316e+06 118305 0 -2.04386e+06 119838 0 -2.04456e+06 121372 0 -2.04527e+06 122908 0 -2.046e+06 124445 0 -2.04673e+06 125983 0 -2.04746e+06 127523 0 -2.04821e+06 129065 0 -2.04897e+06 130608 0 -2.04974e+06 132152 0 -2.05051e+06 133698 0 -2.05129e+06 135245 0 -2.05209e+06 136794 0 -2.05289e+06 138344 0 -2.0537e+06 139897 0 -2.05452e+06 141450 0 -2.05535e+06 143006 0 -2.05618e+06 144562 0 -2.05703e+06 146121 0 -2.05789e+06 147681 0 -2.05875e+06 149243 0 -2.05962e+06 150807 0 -2.06051e+06 152373 0 -2.0614e+06 153940 0 -2.0623e+06 155509 0 -2.06321e+06 157080 0 -2.06412e+06 158653 0 -2.06505e+06 160227 0 -2.06599e+06 161804 0 -2.06693e+06 163382 0 -2.06789e+06 164962 0 -2.06885e+06 166544 0 -2.06982e+06 168128 0 -2.07081e+06 169714 0 -2.0718e+06 171302 0 -2.0728e+06 172893 0 -2.07381e+06 174485 0 -2.07482e+06 176079 0 -2.07585e+06 177675 0 -2.07689e+06 179274 0 -2.07793e+06 180874 0 -2.07899e+06 182477 0 -2.08005e+06 184082 0 -2.08113e+06 185689 0 -2.08221e+06 187298 0 -2.0833e+06 188909 0 -2.0844e+06 190523 0 -2.08551e+06 192139 0 -2.08663e+06 193757 0 -2.01484e+06 0 0 -2.01485e+06 1509.47 0 -2.01486e+06 3018.96 0 -2.01489e+06 4528.48 0 -2.01492e+06 6038.05 0 -2.01496e+06 7547.7 0 -2.01501e+06 9057.43 0 -2.01506e+06 10567.3 0 -2.01513e+06 12077.2 0 -2.01521e+06 13587.3 0 -2.01529e+06 15097.6 0 -2.01538e+06 16608 0 -2.01549e+06 18118.6 0 -2.0156e+06 19629.4 0 -2.01572e+06 21140.4 0 -2.01585e+06 22651.7 0 -2.01599e+06 24163.2 0 -2.01613e+06 25675 0 -2.01629e+06 27187.1 0 -2.01646e+06 28699.5 0 -2.01663e+06 30212.2 0 -2.01681e+06 31725.3 0 -2.017e+06 33238.7 0 -2.0172e+06 34752.5 0 -2.01741e+06 36266.7 0 -2.01763e+06 37781.3 0 -2.01786e+06 39296.4 0 -2.0181e+06 40811.8 0 -2.01834e+06 42327.8 0 -2.0186e+06 43844.2 0 -2.01886e+06 45361.1 0 -2.01913e+06 46878.6 0 -2.01941e+06 48396.5 0 -2.0197e+06 49915 0 -2.02e+06 51434.1 0 -2.02031e+06 52953.8 0 -2.02063e+06 54474 0 -2.02095e+06 55994.9 0 -2.02129e+06 57516.4 0 -2.02163e+06 59038.6 0 -2.02199e+06 60561.4 0 -2.02235e+06 62085 0 -2.02272e+06 63609.2 0 -2.0231e+06 65134.2 0 -2.02349e+06 66659.9 0 -2.02389e+06 68186.3 0 -2.02429e+06 69713.6 0 -2.02471e+06 71241.6 0 -2.02513e+06 72770.5 0 -2.02557e+06 74300.2 0 -2.02601e+06 75830.7 0 -2.02646e+06 77362.1 0 -2.02692e+06 78894.4 0 -2.02739e+06 80427.6 0 -2.02787e+06 81961.7 0 -2.02836e+06 83496.7 0 -2.02886e+06 85032.7 0 -2.02936e+06 86569.7 0 -2.02988e+06 88107.7 0 -2.0304e+06 89646.6 0 -2.03093e+06 91186.7 0 -2.03148e+06 92727.7 0 -2.03203e+06 94269.9 0 -2.03259e+06 95813.1 0 -2.03316e+06 97357.4 0 -2.03373e+06 98902.8 0 -2.03432e+06 100449 0 -2.03492e+06 101997 0 -2.03552e+06 103546 0 -2.03614e+06 105096 0 -2.03676e+06 106648 0 -2.03739e+06 108200 0 -2.03804e+06 109754 0 -2.03869e+06 111309 0 -2.03935e+06 112865 0 -2.04002e+06 114423 0 -2.04069e+06 115982 0 -2.04138e+06 117543 0 -2.04208e+06 119104 0 -2.04278e+06 120668 0 -2.0435e+06 122232 0 -2.04422e+06 123798 0 -2.04495e+06 125366 0 -2.0457e+06 126934 0 -2.04645e+06 128505 0 -2.04721e+06 130077 0 -2.04798e+06 131650 0 -2.04876e+06 133225 0 -2.04954e+06 134802 0 -2.05034e+06 136380 0 -2.05115e+06 137960 0 -2.05196e+06 139541 0 -2.05279e+06 141124 0 -2.05362e+06 142709 0 -2.05446e+06 144295 0 -2.05532e+06 145883 0 -2.05618e+06 147473 0 -2.05705e+06 149065 0 -2.05793e+06 150658 0 -2.05882e+06 152253 0 -2.05972e+06 153850 0 -2.06063e+06 155449 0 -2.06154e+06 157050 0 -2.06247e+06 158652 0 -2.0634e+06 160257 0 -2.06435e+06 161863 0 -2.0653e+06 163471 0 -2.06627e+06 165082 0 -2.06724e+06 166694 0 -2.06822e+06 168308 0 -2.06921e+06 169925 0 -2.07021e+06 171543 0 -2.07123e+06 173163 0 -2.07224e+06 174786 0 -2.07327e+06 176411 0 -2.07431e+06 178038 0 -2.07536e+06 179667 0 -2.07642e+06 181298 0 -2.07748e+06 182931 0 -2.07856e+06 184567 0 -2.07965e+06 186205 0 -2.08074e+06 187845 0 -2.08184e+06 189487 0 -2.08296e+06 191132 0 -2.08408e+06 192779 0 -2.08521e+06 194429 0 -2.08636e+06 196081 0 -2.08751e+06 197735 0 -2.01368e+06 0 0 -2.01368e+06 1538.72 0 -2.0137e+06 3077.47 0 -2.01372e+06 4616.25 0 -2.01375e+06 6155.08 0 -2.01379e+06 7693.99 0 -2.01384e+06 9232.98 0 -2.0139e+06 10772.1 0 -2.01397e+06 12311.3 0 -2.01405e+06 13850.7 0 -2.01414e+06 15390.2 0 -2.01423e+06 16929.9 0 -2.01434e+06 18469.9 0 -2.01445e+06 20010 0 -2.01458e+06 21550.4 0 -2.01471e+06 23091 0 -2.01485e+06 24631.8 0 -2.015e+06 26173 0 -2.01516e+06 27714.5 0 -2.01533e+06 29256.3 0 -2.01551e+06 30798.4 0 -2.0157e+06 32340.9 0 -2.0159e+06 33883.8 0 -2.0161e+06 35427 0 -2.01632e+06 36970.7 0 -2.01654e+06 38514.8 0 -2.01678e+06 40059.4 0 -2.01702e+06 41604.4 0 -2.01727e+06 43149.9 0 -2.01754e+06 44695.9 0 -2.01781e+06 46242.4 0 -2.01809e+06 47789.5 0 -2.01838e+06 49337.1 0 -2.01867e+06 50885.3 0 -2.01898e+06 52434.1 0 -2.0193e+06 53983.5 0 -2.01962e+06 55533.6 0 -2.01996e+06 57084.3 0 -2.0203e+06 58635.6 0 -2.02066e+06 60187.7 0 -2.02102e+06 61740.4 0 -2.02139e+06 63293.9 0 -2.02177e+06 64848.1 0 -2.02216e+06 66403 0 -2.02256e+06 67958.8 0 -2.02297e+06 69515.3 0 -2.02339e+06 71072.7 0 -2.02382e+06 72630.9 0 -2.02426e+06 74189.9 0 -2.0247e+06 75749.8 0 -2.02516e+06 77310.6 0 -2.02562e+06 78872.3 0 -2.0261e+06 80435 0 -2.02658e+06 81998.5 0 -2.02707e+06 83563.1 0 -2.02757e+06 85128.6 0 -2.02808e+06 86695.2 0 -2.0286e+06 88262.7 0 -2.02913e+06 89831.4 0 -2.02967e+06 91401 0 -2.03022e+06 92971.8 0 -2.03078e+06 94543.6 0 -2.03134e+06 96116.6 0 -2.03192e+06 97690.7 0 -2.03251e+06 99266 0 -2.0331e+06 100842 0 -2.0337e+06 102420 0 -2.03432e+06 103999 0 -2.03494e+06 105579 0 -2.03557e+06 107160 0 -2.03621e+06 108743 0 -2.03686e+06 110327 0 -2.03752e+06 111912 0 -2.03819e+06 113499 0 -2.03887e+06 115087 0 -2.03956e+06 116676 0 -2.04026e+06 118267 0 -2.04096e+06 119859 0 -2.04168e+06 121452 0 -2.04241e+06 123047 0 -2.04314e+06 124644 0 -2.04389e+06 126242 0 -2.04464e+06 127842 0 -2.0454e+06 129443 0 -2.04617e+06 131045 0 -2.04696e+06 132649 0 -2.04775e+06 134255 0 -2.04855e+06 135863 0 -2.04936e+06 137472 0 -2.05018e+06 139083 0 -2.05101e+06 140695 0 -2.05185e+06 142309 0 -2.0527e+06 143925 0 -2.05355e+06 145543 0 -2.05442e+06 147162 0 -2.0553e+06 148783 0 -2.05618e+06 150406 0 -2.05708e+06 152031 0 -2.05798e+06 153658 0 -2.0589e+06 155287 0 -2.05982e+06 156917 0 -2.06076e+06 158550 0 -2.0617e+06 160184 0 -2.06265e+06 161821 0 -2.06361e+06 163459 0 -2.06459e+06 165099 0 -2.06557e+06 166742 0 -2.06656e+06 168386 0 -2.06756e+06 170033 0 -2.06857e+06 171682 0 -2.06959e+06 173333 0 -2.07062e+06 174986 0 -2.07166e+06 176641 0 -2.07271e+06 178298 0 -2.07377e+06 179958 0 -2.07483e+06 181620 0 -2.07591e+06 183284 0 -2.077e+06 184951 0 -2.0781e+06 186619 0 -2.0792e+06 188291 0 -2.08032e+06 189964 0 -2.08145e+06 191640 0 -2.08258e+06 193319 0 -2.08373e+06 194999 0 -2.08488e+06 196683 0 -2.08605e+06 198368 0 -2.08722e+06 200057 0 -2.08841e+06 201748 0 -2.0125e+06 0 0 -2.01251e+06 1568.17 0 -2.01252e+06 3136.36 0 -2.01255e+06 4704.59 0 -2.01258e+06 6272.87 0 -2.01262e+06 7841.24 0 -2.01267e+06 9409.69 0 -2.01274e+06 10978.3 0 -2.01281e+06 12547 0 -2.01289e+06 14115.8 0 -2.01298e+06 15684.8 0 -2.01307e+06 17254 0 -2.01318e+06 18823.5 0 -2.0133e+06 20393.1 0 -2.01343e+06 21963 0 -2.01357e+06 23533.1 0 -2.01371e+06 25103.6 0 -2.01387e+06 26674.3 0 -2.01403e+06 28245.3 0 -2.01421e+06 29816.7 0 -2.01439e+06 31388.5 0 -2.01458e+06 32960.6 0 -2.01479e+06 34533.1 0 -2.015e+06 36106 0 -2.01522e+06 37679.4 0 -2.01545e+06 39253.2 0 -2.01569e+06 40827.5 0 -2.01594e+06 42402.2 0 -2.0162e+06 43977.5 0 -2.01647e+06 45553.3 0 -2.01675e+06 47129.7 0 -2.01704e+06 48706.6 0 -2.01733e+06 50284.1 0 -2.01764e+06 51862.2 0 -2.01796e+06 53440.9 0 -2.01828e+06 55020.2 0 -2.01862e+06 56600.3 0 -2.01896e+06 58181 0 -2.01932e+06 59762.4 0 -2.01968e+06 61344.5 0 -2.02005e+06 62927.3 0 -2.02043e+06 64511 0 -2.02083e+06 66095.3 0 -2.02123e+06 67680.5 0 -2.02164e+06 69266.5 0 -2.02206e+06 70853.4 0 -2.02249e+06 72441 0 -2.02293e+06 74029.6 0 -2.02338e+06 75619.1 0 -2.02384e+06 77209.4 0 -2.0243e+06 78800.7 0 -2.02478e+06 80393 0 -2.02527e+06 81986.2 0 -2.02577e+06 83580.4 0 -2.02627e+06 85175.7 0 -2.02