<?xml version="1.0"?> 
<VTKFile type="StructuredGrid" version="0.1"> 
<StructuredGrid WholeExtent="0 127 0 127 0 0"> 
<Piece Extent="0 127 0 127 0 0"> 
<PointData>
<DataArray type="Float32" Name="|E|" format="ascii" NumberOfComponents="3"> 
-1.62638e+06 1.55168e+06 0 -1.63187e+06 1.55956e+06 0 -1.63739e+06 1.56741e+06 0 -1.64296e+06 1.57523e+06 0 -1.64857e+06 1.58302e+06 0 -1.65423e+06 1.59078e+06 0 -1.65994e+06 1.59851e+06 0 -1.6657e+06 1.6062e+06 0 -1.67151e+06 1.61385e+06 0 -1.67737e+06 1.62147e+06 0 -1.68329e+06 1.62906e+06 0 -1.68926e+06 1.6366e+06 0 -1.69529e+06 1.6441e+06 0 -1.70138e+06 1.65156e+06 0 -1.70753e+06 1.65898e+06 0 -1.71374e+06 1.66635e+06 0 -1.72002e+06 1.67368e+06 0 -1.72636e+06 1.68096e+06 0 -1.73277e+06 1.68819e+06 0 -1.73926e+06 1.69537e+06 0 -1.74581e+06 1.7025e+06 0 -1.75245e+06 1.70958e+06 0 -1.75916e+06 1.7166e+06 0 -1.76595e+06 1.72356e+06 0 -1.77283e+06 1.73046e+06 0 -1.7798e+06 1.73731e+06 0 -1.78685e+06 1.74409e+06 0 -1.794e+06 1.75081e+06 0 -1.80124e+06 1.75747e+06 0 -1.80858e+06 1.76406e+06 0 -1.81602e+06 1.77058e+06 0 -1.82356e+06 1.77702e+06 0 -1.83122e+06 1.7834e+06 0 -1.83899e+06 1.78971e+06 0 -1.84687e+06 1.79593e+06 0 -1.85488e+06 1.80208e+06 0 -1.863e+06 1.80815e+06 0 -1.87126e+06 1.81414e+06 0 -1.87965e+06 1.82004e+06 0 -1.88817e+06 1.82586e+06 0 -1.89684e+06 1.83159e+06 0 -1.90565e+06 1.83723e+06 0 -1.91462e+06 1.84278e+06 0 -1.92373e+06 1.84823e+06 0 -1.93301e+06 1.85359e+06 0 -1.94246e+06 1.85884e+06 0 -1.95207e+06 1.864e+06 0 -1.96187e+06 1.86905e+06 0 -1.97185e+06 1.87399e+06 0 -1.98201e+06 1.87883e+06 0 -1.99237e+06 1.88355e+06 0 -2.00293e+06 1.88815e+06 0 -2.0137e+06 1.89264e+06 0 -2.02468e+06 1.89701e+06 0 -2.03589e+06 1.90126e+06 0 -2.04732e+06 1.90537e+06 0 -2.05898e+06 1.90936e+06 0 -2.07089e+06 1.91321e+06 0 -2.08306e+06 1.91692e+06 0 -2.09547e+06 1.9205e+06 0 -2.10816e+06 1.92392e+06 0 -2.12112e+06 1.9272e+06 0 -2.13437e+06 1.93032e+06 0 -2.1479e+06 1.93328e+06 0 -2.16174e+06 1.93608e+06 0 -2.17589e+06 1.9387e+06 0 -2.19037e+06 1.94115e+06 0 -2.20517e+06 1.94342e+06 0 -2.22031e+06 1.9455e+06 0 -2.23581e+06 1.94738e+06 0 -2.25167e+06 1.94906e+06 0 -2.26791e+06 1.95052e+06 0 -2.28453e+06 1.95177e+06 0 -2.30155e+06 1.95279e+06 0 -2.31898e+06 1.95356e+06 0 -2.33684e+06 1.95409e+06 0 -2.35513e+06 1.95435e+06 0 -2.37388e+06 1.95434e+06 0 -2.39309e+06 1.95403e+06 0 -2.41278e+06 1.95343e+06 0 -2.43298e+06 1.9525e+06 0 -2.45368e+06 1.95123e+06 0 -2.47492e+06 1.9496e+06 0 -2.4967e+06 1.9476e+06 0 -2.51906e+06 1.94519e+06 0 -2.54199e+06 1.94236e+06 0 -2.56554e+06 1.93907e+06 0 -2.58971e+06 1.93529e+06 0 -2.61454e+06 1.931e+06 0 -2.64004e+06 1.92615e+06 0 -2.66624e+06 1.92071e+06 0 -2.69316e+06 1.91463e+06 0 -2.72085e+06 1.90786e+06 0 -2.74931e+06 1.90036e+06 0 -2.7786e+06 1.89207e+06 0 -2.80873e+06 1.88292e+06 0 -2.83976e+06 1.87284e+06 0 -2.87171e+06 1.86176e+06 0 -2.90464e+06 1.8496e+06 0 -2.93859e+06 1.83626e+06 0 -2.9736e+06 1.82163e+06 0 -3.00974e+06 1.80562e+06 0 -3.04707e+06 1.78809e+06 0 -3.08564e+06 1.76891e+06 0 -3.12554e+06 1.74793e+06 0 -3.16684e+06 1.72498e+06 0 -3.20963e+06 1.69989e+06 0 -3.254e+06 1.67244e+06 0 -3.30007e+06 1.64243e+06 0 -3.34793e+06 1.6096e+06 0 -3.39773e+06 1.57368e+06 0 -3.44959e+06 1.53437e+06 0 -3.50369e+06 1.49135e+06 0 -3.56017e+06 1.44423e+06 0 -3.61924e+06 1.39261e+06 0 -3.68108e+06 1.33603e+06 0 -3.74593e+06 1.27398e+06 0 -3.81403e+06 1.2059e+06 0 -3.88564e+06 1.13114e+06 0 -3.96104e+06 1.04899e+06 0 -4.04055e+06 958624 0 -4.12449e+06 859134 0 -4.21325e+06 749472 0 -4.30719e+06 628444 0 -4.40673e+06 494685 0 -4.51232e+06 346619 0 -4.62443e+06 182429 0 -4.74354e+06 -2.86102e-06 0 -1.62391e+06 1.55617e+06 0 -1.62942e+06 1.56402e+06 0 -1.63496e+06 1.57185e+06 0 -1.64056e+06 1.57965e+06 0 -1.6462e+06 1.58741e+06 0 -1.65188e+06 1.59515e+06 0 -1.65762e+06 1.60285e+06 0 -1.6634e+06 1.61052e+06 0 -1.66924e+06 1.61815e+06 0 -1.67513e+06 1.62575e+06 0 -1.68107e+06 1.63332e+06 0 -1.68707e+06 1.64084e+06 0 -1.69313e+06 1.64832e+06 0 -1.69925e+06 1.65576e+06 0 -1.70543e+06 1.66316e+06 0 -1.71167e+06 1.67052e+06 0 -1.71798e+06 1.67783e+06 0 -1.72435e+06 1.68509e+06 0 -1.7308e+06 1.69231e+06 0 -1.73732e+06 1.69948e+06 0 -1.74391e+06 1.70659e+06 0 -1.75057e+06 1.71365e+06 0 -1.75732e+06 1.72066e+06 0 -1.76415e+06 1.72762e+06 0 -1.77106e+06 1.73451e+06 0 -1.77806e+06 1.74135e+06 0 -1.78515e+06 1.74812e+06 0 -1.79233e+06 1.75484e+06 0 -1.79961e+06 1.76149e+06 0 -1.80699e+06 1.76807e+06 0 -1.81447e+06 1.77459e+06 0 -1.82205e+06 1.78103e+06 0 -1.82975e+06 1.78741e+06 0 -1.83756e+06 1.79371e+06 0 -1.84548e+06 1.79994e+06 0 -1.85353e+06 1.80609e+06 0 -1.86169e+06 1.81217e+06 0 -1.86999e+06 1.81816e+06 0 -1.87842e+06 1.82407e+06 0 -1.88699e+06 1.8299e+06 0 -1.8957e+06 1.83564e+06 0 -1.90455e+06 1.84129e+06 0 -1.91356e+06 1.84685e+06 0 -1.92272e+06 1.85231e+06 0 -1.93204e+06 1.85768e+06 0 -1.94153e+06 1.86296e+06 0 -1.95119e+06 1.86813e+06 0 -1.96103e+06 1.8732e+06 0 -1.97105e+06 1.87817e+06 0 -1.98127e+06 1.88302e+06 0 -1.99167e+06 1.88777e+06 0 -2.00228e+06 1.8924e+06 0 -2.01309e+06 1.89692e+06 0 -2.02412e+06 1.90132e+06 0 -2.03537e+06 1.9056e+06 0 -2.04685e+06 1.90975e+06 0 -2.05857e+06 1.91377e+06 0 -2.07053e+06 1.91766e+06 0 -2.08274e+06 1.92141e+06 0 -2.09521e+06 1.92503e+06 0 -2.10794e+06 1.9285e+06 0 -2.12095e+06 1.93182e+06 0 -2.13425e+06 1.93499e+06 0 -2.14783e+06 1.938e+06 0 -2.16173e+06 1.94084e+06 0 -2.17593e+06 1.94352e+06 0 -2.19045e+06 1.94603e+06 0 -2.20531e+06 1.94835e+06 0 -2.22051e+06 1.95049e+06 0 -2.23606e+06 1.95244e+06 0 -2.25198e+06 1.95418e+06 0 -2.26827e+06 1.95571e+06 0 -2.28495e+06 1.95703e+06 0 -2.30203e+06 1.95812e+06 0 -2.31952e+06 1.95897e+06 0 -2.33744e+06 1.95957e+06 0 -2.3558e+06 1.95991e+06 0 -2.37461e+06 1.95998e+06 0 -2.39389e+06 1.95976e+06 0 -2.41365e+06 1.95924e+06 0 -2.43392e+06 1.95841e+06 0 -2.4547e+06 1.95723e+06 0 -2.47602e+06 1.95571e+06 0 -2.49788e+06 1.9538e+06 0 -2.52032e+06 1.9515e+06 0 -2.54335e+06 1.94877e+06 0 -2.56699e+06 1.94559e+06 0 -2.59126e+06 1.94193e+06 0 -2.61619e+06 1.93776e+06 0 -2.64181e+06 1.93304e+06 0 -2.66812e+06 1.92772e+06 0 -2.69518e+06 1.92178e+06 0 -2.72299e+06 1.91516e+06 0 -2.7516e+06 1.90781e+06 0 -2.78104e+06 1.89967e+06 0 -2.81134e+06 1.89068e+06 0 -2.84254e+06 1.88077e+06 0 -2.87469e+06 1.86987e+06 0 -2.90782e+06 1.85789e+06 0 -2.94199e+06 1.84475e+06 0 -2.97724e+06 1.83033e+06 0 -3.01364e+06 1.81454e+06 0 -3.05124e+06 1.79725e+06 0 -3.09012e+06 1.77832e+06 0 -3.13034e+06 1.75761e+06 0 -3.17199e+06 1.73495e+06 0 -3.21517e+06 1.71017e+06 0 -3.25995e+06 1.68306e+06 0 -3.30647e+06 1.6534e+06 0 -3.35482e+06 1.62096e+06 0 -3.40515e+06 1.58546e+06 0 -3.4576e+06 1.54661e+06 0 -3.51232e+06 1.50408e+06 0 -3.56949e+06 1.4575e+06 0 -3.6293e+06 1.40646e+06 0 -3.69196e+06 1.35052e+06 0 -3.7577e+06 1.28917e+06 0 -3.82677e+06 1.22185e+06 0 -3.89944e+06 1.14792e+06 0 -3.97601e+06 1.06667e+06 0 -4.0568e+06 977292 0 -4.14216e+06 878883 0 -4.23247e+06 770404 0 -4.32814e+06 650672 0 -4.42961e+06 518331 0 -4.53734e+06 371821 0 -4.65184e+06 209338 0 -4.77365e+06 28786 0 -1.62144e+06 1.56067e+06 0 -1.62697e+06 1.5685e+06 0 -1.63254e+06 1.5763e+06 0 -1.63816e+06 1.58408e+06 0 -1.64382e+06 1.59182e+06 0 -1.64953e+06 1.59953e+06 0 -1.65529e+06 1.60721e+06 0 -1.6611e+06 1.61486e+06 0 -1.66697e+06 1.62247e+06 0 -1.67288e+06 1.63005e+06 0 -1.67886e+06 1.63759e+06 0 -1.68488e+06 1.6451e+06 0 -1.69097e+06 1.65256e+06 0 -1.69712e+06 1.65999e+06 0 -1.70333e+06 1.66737e+06 0 -1.7096e+06 1.67471e+06 0 -1.71594e+06 1.682e+06 0 -1.72235e+06 1.68925e+06 0 -1.72882e+06 1.69645e+06 0 -1.73537e+06 1.70361e+06 0 -1.742e+06 1.71071e+06 0 -1.7487e+06 1.71776e+06 0 -1.75548e+06 1.72476e+06 0 -1.76234e+06 1.7317e+06 0 -1.76929e+06 1.73858e+06 0 -1.77633e+06 1.74541e+06 0 -1.78345e+06 1.75218e+06 0 -1.79067e+06 1.75889e+06 0 -1.79799e+06 1.76553e+06 0 -1.8054e+06 1.77211e+06 0 -1.81292e+06 1.77863e+06 0 -1.82054e+06 1.78507e+06 0 -1.82828e+06 1.79145e+06 0 -1.83612e+06 1.79775e+06 0 -1.84409e+06 1.80398e+06 0 -1.85217e+06 1.81014e+06 0 -1.86038e+06 1.81622e+06 0 -1.86872e+06 1.82221e+06 0 -1.87719e+06 1.82813e+06 0 -1.8858e+06 1.83397e+06 0 -1.89455e+06 1.83972e+06 0 -1.90345e+06 1.84538e+06 0 -1.9125e+06 1.85095e+06 0 -1.9217e+06 1.85643e+06 0 -1.93107e+06 1.86182e+06 0 -1.9406e+06 1.86711e+06 0 -1.95031e+06 1.8723e+06 0 -1.96019e+06 1.87739e+06 0 -1.97026e+06 1.88238e+06 0 -1.98051e+06 1.88726e+06 0 -1.99097e+06 1.89203e+06 0 -2.00162e+06 1.89669e+06 0 -2.01248e+06 1.90124e+06 0 -2.02356e+06 1.90567e+06 0 -2.03486e+06 1.90998e+06 0 -2.04638e+06 1.91416e+06 0 -2.05815e+06 1.91822e+06 0 -2.07015e+06 1.92215e+06 0 -2.08241e+06 1.92594e+06 0 -2.09493e+06 1.9296e+06 0 -2.10771e+06 1.93311e+06 0 -2.12077e+06 1.93648e+06 0 -2.13412e+06 1.93969e+06 0 -2.14776e+06 1.94275e+06 0 -2.1617e+06 1.94565e+06 0 -2.17595e+06 1.94838e+06 0 -2.19053e+06 1.95095e+06 0 -2.20544e+06 1.95333e+06 0 -2.22069e+06 1.95553e+06 0 -2.2363e+06 1.95754e+06 0 -2.25227e+06 1.95934e+06 0 -2.26862e+06 1.96095e+06 0 -2.28536e+06 1.96233e+06 0 -2.3025e+06 1.96349e+06 0 -2.32005e+06 1.96442e+06 0 -2.33803e+06 1.9651e+06 0 -2.35645e+06 1.96552e+06 0 -2.37533e+06 1.96567e+06 0 -2.39468e+06 1.96554e+06 0 -2.41452e+06 1.96511e+06 0 -2.43485e+06 1.96436e+06 0 -2.45571e+06 1.96328e+06 0 -2.4771e+06 1.96185e+06 0 -2.49905e+06 1.96005e+06 0 -2.52158e+06 1.95785e+06 0 -2.54469e+06 1.95523e+06 0 -2.56843e+06 1.95217e+06 0 -2.5928e+06 1.94863e+06 0 -2.61784e+06 1.94457e+06 0 -2.64356e+06 1.93998e+06 0 -2.67e+06 1.9348e+06 0 -2.69718e+06 1.92899e+06 0 -2.72513e+06 1.92251e+06 0 -2.75388e+06 1.91531e+06 0 -2.78347e+06 1.90732e+06 0 -2.81394e+06 1.8985e+06 0 -2.84532e+06 1.88876e+06 0 -2.87765e+06 1.87804e+06 0 -2.91098e+06 1.86626e+06 0 -2.94537e+06 1.85331e+06 0 -2.98086e+06 1.83911e+06 0 -3.01751e+06 1.82354e+06 0 -3.05539e+06 1.80649e+06 0 -3.09457e+06 1.78782e+06 0 -3.13512e+06 1.76738e+06 0 -3.17712e+06 1.74502e+06 0 -3.22067e+06 1.72055e+06 0 -3.26587e+06 1.69378e+06 0 -3.31283e+06 1.66449e+06 0 -3.36167e+06 1.63244e+06 0 -3.41253e+06 1.59737e+06 0 -3.46555e+06 1.55898e+06 0 -3.52089e+06 1.51695e+06 0 -3.57874e+06 1.47091e+06 0 -3.6393e+06 1.42047e+06 0 -3.70276e+06 1.36518e+06 0 -3.76938e+06 1.30453e+06 0 -3.83941e+06 1.23798e+06 0 -3.91314e+06 1.16489e+06 0 -3.99086e+06 1.08456e+06 0 -4.07292e+06 996184 0 -4.15968e+06 898873 0 -4.25154e+06 791595 0 -4.34892e+06 673178 0 -4.45228e+06 542280 0 -4.56213e+06 397352 0 -4.67901e+06 236608 0 -4.80348e+06 57968.1 0 -1.61896e+06 1.56519e+06 0 -1.62451e+06 1.57299e+06 0 -1.63011e+06 1.58077e+06 0 -1.63575e+06 1.58852e+06 0 -1.64144e+06 1.59624e+06 0 -1.64718e+06 1.60393e+06 0 -1.65297e+06 1.61159e+06 0 -1.6588e+06 1.61922e+06 0 -1.66469e+06 1.62681e+06 0 -1.67064e+06 1.63437e+06 0 -1.67664e+06 1.64189e+06 0 -1.68269e+06 1.64938e+06 0 -1.68881e+06 1.65682e+06 0 -1.69499e+06 1.66423e+06 0 -1.70123e+06 1.67159e+06 0 -1.70753e+06 1.67892e+06 0 -1.7139e+06 1.6862e+06 0 -1.72034e+06 1.69343e+06 0 -1.72685e+06 1.70062e+06 0 -1.73343e+06 1.70776e+06 0 -1.74009e+06 1.71485e+06 0 -1.74682e+06 1.72189e+06 0 -1.75364e+06 1.72887e+06 0 -1.76053e+06 1.73581e+06 0 -1.76752e+06 1.74268e+06 0 -1.77459e+06 1.74951e+06 0 -1.78175e+06 1.75627e+06 0 -1.789e+06 1.76297e+06 0 -1.79636e+06 1.76961e+06 0 -1.80381e+06 1.77618e+06 0 -1.81136e+06 1.7827e+06 0 -1.81903e+06 1.78914e+06 0 -1.8268e+06 1.79552e+06 0 -1.83468e+06 1.80182e+06 0 -1.84269e+06 1.80805e+06 0 -1.85081e+06 1.81421e+06 0 -1.85906e+06 1.82029e+06 0 -1.86744e+06 1.8263e+06 0 -1.87595e+06 1.83222e+06 0 -1.8846e+06 1.83807e+06 0 -1.8934e+06 1.84383e+06 0 -1.90234e+06 1.8495e+06 0 -1.91143e+06 1.85509e+06 0 -1.92068e+06 1.86058e+06 0 -1.93009e+06 1.86598e+06 0 -1.93967e+06 1.87129e+06 0 -1.94942e+06 1.8765e+06 0 -1.95934e+06 1.88161e+06 0 -1.96946e+06 1.88662e+06 0 -1.97976e+06 1.89153e+06 0 -1.99025e+06 1.89633e+06 0 -2.00095e+06 1.90102e+06 0 -2.01186e+06 1.90559e+06 0 -2.02298e+06 1.91005e+06 0 -2.03433e+06 1.91439e+06 0 -2.0459e+06 1.91861e+06 0 -2.05771e+06 1.92271e+06 0 -2.06977e+06 1.92667e+06 0 -2.08207e+06 1.93051e+06 0 -2.09464e+06 1.9342e+06 0 -2.10747e+06 1.93776e+06 0 -2.12059e+06 1.94117e+06 0 -2.13398e+06 1.94444e+06 0 -2.14767e+06 1.94755e+06 0 -2.16166e+06 1.9505e+06 0 -2.17597e+06 1.95329e+06 0 -2.1906e+06 1.9559e+06 0 -2.20556e+06 1.95834e+06 0 -2.22087e+06 1.9606e+06 0 -2.23653e+06 1.96268e+06 0 -2.25256e+06 1.96455e+06 0 -2.26896e+06 1.96622e+06 0 -2.28576e+06 1.96767e+06 0 -2.30296e+06 1.96891e+06 0 -2.32057e+06 1.96991e+06 0 -2.33862e+06 1.97067e+06 0 -2.3571e+06 1.97117e+06 0 -2.37605e+06 1.9714e+06 0 -2.39546e+06 1.97136e+06 0 -2.41537e+06 1.97102e+06 0 -2.43578e+06 1.97036e+06 0 -2.45671e+06 1.96938e+06 0 -2.47818e+06 1.96805e+06 0 -2.50021e+06 1.96635e+06 0 -2.52282e+06 1.96426e+06 0 -2.54603e+06 1.96175e+06 0 -2.56986e+06 1.9588e+06 0 -2.59433e+06 1.95537e+06 0 -2.61947e+06 1.95144e+06 0 -2.64531e+06 1.94697e+06 0 -2.67186e+06 1.94193e+06 0 -2.69917e+06 1.93626e+06 0 -2.72725e+06 1.92992e+06 0 -2.75615e+06 1.92287e+06 0 -2.78589e+06 1.91504e+06 0 -2.81652e+06 1.90638e+06 0 -2.84807e+06 1.89682e+06 0 -2.8806e+06 1.88628e+06 0 -2.91413e+06 1.87469e+06 0 -2.94874e+06 1.86195e+06 0 -2.98446e+06 1.84797e+06 0 -3.02137e+06 1.83263e+06 0 -3.05952e+06 1.81582e+06 0 -3.099e+06 1.79741e+06 0 -3.13987e+06 1.77725e+06 0 -3.18222e+06 1.75518e+06 0 -3.22615e+06 1.73103e+06 0 -3.27176e+06 1.7046e+06 0 -3.31916e+06 1.67568e+06 0 -3.36848e+06 1.64404e+06 0 -3.41986e+06 1.6094e+06 0 -3.47345e+06 1.57148e+06 0 -3.52941e+06 1.52995e+06 0 -3.58794e+06 1.48447e+06 0 -3.64922e+06 1.43463e+06 0 -3.71349e+06 1.38e+06 0 -3.78098e+06 1.32007e+06 0 -3.85196e+06 1.25429e+06 0 -3.92673e+06 1.18205e+06 0 -4.00559e+06 1.10265e+06 0 -4.08891e+06 1.0153e+06 0 -4.17705e+06 919101 0 -4.27043e+06 813042 0 -4.36951e+06 695962 0 -4.47475e+06 566529 0 -4.5867e+06 423210 0 -4.70592e+06 264235 0 -4.83303e+06 87543.4 0 -1.61648e+06 1.56972e+06 0 -1.62206e+06 1.5775e+06 0 -1.62768e+06 1.58526e+06 0 -1.63335e+06 1.59298e+06 0 -1.63906e+06 1.60068e+06 0 -1.64482e+06 1.60835e+06 0 -1.65064e+06 1.61599e+06 0 -1.6565e+06 1.62359e+06 0 -1.66242e+06 1.63117e+06 0 -1.66839e+06 1.63871e+06 0 -1.67442e+06 1.64621e+06 0 -1.6805e+06 1.65368e+06 0 -1.68665e+06 1.6611e+06 0 -1.69285e+06 1.66849e+06 0 -1.69912e+06 1.67584e+06 0 -1.70546e+06 1.68315e+06 0 -1.71186e+06 1.69041e+06 0 -1.71833e+06 1.69763e+06 0 -1.72487e+06 1.70481e+06 0 -1.73148e+06 1.71194e+06 0 -1.73817e+06 1.71901e+06 0 -1.74494e+06 1.72604e+06 0 -1.75179e+06 1.73302e+06 0 -1.75872e+06 1.73994e+06 0 -1.76574e+06 1.74681e+06 0 -1.77285e+06 1.75363e+06 0 -1.78004e+06 1.76038e+06 0 -1.78733e+06 1.76708e+06 0 -1.79472e+06 1.77371e+06 0 -1.80221e+06 1.78029e+06 0 -1.80981e+06 1.7868e+06 0 -1.81751e+06 1.79324e+06 0 -1.82532e+06 1.79961e+06 0 -1.83324e+06 1.80592e+06 0 -1.84128e+06 1.81216e+06 0 -1.84945e+06 1.81832e+06 0 -1.85774e+06 1.82441e+06 0 -1.86616e+06 1.83042e+06 0 -1.87471e+06 1.83635e+06 0 -1.88341e+06 1.8422e+06 0 -1.89224e+06 1.84797e+06 0 -1.90122e+06 1.85366e+06 0 -1.91036e+06 1.85926e+06 0 -1.91965e+06 1.86477e+06 0 -1.9291e+06 1.87019e+06 0 -1.93872e+06 1.87551e+06 0 -1.94852e+06 1.88074e+06 0 -1.95849e+06 1.88587e+06 0 -1.96865e+06 1.89091e+06 0 -1.97899e+06 1.89584e+06 0 -1.98954e+06 1.90066e+06 0 -2.00028e+06 1.90538e+06 0 -2.01123e+06 1.90998e+06 0 -2.0224e+06 1.91447e+06 0 -2.03379e+06 1.91885e+06 0 -2.04542e+06 1.9231e+06 0 -2.05727e+06 1.92723e+06 0 -2.06938e+06 1.93123e+06 0 -2.08173e+06 1.93511e+06 0 -2.09435e+06 1.93885e+06 0 -2.10723e+06 1.94245e+06 0 -2.12039e+06 1.94591e+06 0 -2.13383e+06 1.94922e+06 0 -2.14757e+06 1.95238e+06 0 -2.16162e+06 1.95538e+06 0 -2.17598e+06 1.95823e+06 0 -2.19066e+06 1.9609e+06 0 -2.20567e+06 1.9634e+06 0 -2.22104e+06 1.96572e+06 0 -2.23675e+06 1.96786e+06 0 -2.25284e+06 1.96979e+06 0 -2.2693e+06 1.97153e+06 0 -2.28615e+06 1.97306e+06 0 -2.30341e+06 1.97437e+06 0 -2.32108e+06 1.97544e+06 0 -2.33919e+06 1.97628e+06 0 -2.35774e+06 1.97686e+06 0 -2.37675e+06 1.97718e+06 0 -2.39623e+06 1.97722e+06 0 -2.41621e+06 1.97697e+06 0 -2.43669e+06 1.97641e+06 0 -2.4577e+06 1.97552e+06 0 -2.47925e+06 1.97429e+06 0 -2.50136e+06 1.97269e+06 0 -2.52406e+06 1.97071e+06 0 -2.54736e+06 1.96831e+06 0 -2.57128e+06 1.96547e+06 0 -2.59585e+06 1.96217e+06 0 -2.6211e+06 1.95836e+06 0 -2.64705e+06 1.95402e+06 0 -2.67372e+06 1.94911e+06 0 -2.70115e+06 1.94358e+06 0 -2.72937e+06 1.93739e+06 0 -2.7584e+06 1.93049e+06 0 -2.7883e+06 1.92283e+06 0 -2.81909e+06 1.91433e+06 0 -2.85082e+06 1.90495e+06 0 -2.88353e+06 1.8946e+06 0 -2.91727e+06 1.8832e+06 0 -2.95209e+06 1.87066e+06 0 -2.98805e+06 1.8569e+06 0 -3.02521e+06 1.84179e+06 0 -3.06364e+06 1.82523e+06 0 -3.1034e+06 1.80708e+06 0 -3.14459e+06 1.78721e+06 0 -3.18729e+06 1.76544e+06 0 -3.23159e+06 1.74161e+06 0 -3.27761e+06 1.71554e+06 0 -3.32545e+06 1.68699e+06 0 -3.37525e+06 1.65575e+06 0 -3.42715e+06 1.62155e+06 0 -3.4813e+06 1.58411e+06 0 -3.53787e+06 1.5431e+06 0 -3.59706e+06 1.49818e+06 0 -3.65907e+06 1.44895e+06 0 -3.72413e+06 1.39498e+06 0 -3.79248e+06 1.33577e+06 0 -3.86441e+06 1.27079e+06 0 -3.9402e+06 1.19942e+06 0 -4.0202e+06 1.12096e+06 0 -4.10476e+06 1.03464e+06 0 -4.19427e+06 939567 0 -4.28916e+06 834745 0 -4.38991e+06 719021 0 -4.49701e+06 591076 0 -4.61103e+06 449393 0 -4.73256e+06 292217 0 -4.86228e+06 117509 0 -1.614e+06 1.57427e+06 0 -1.6196e+06 1.58203e+06 0 -1.62525e+06 1.58976e+06 0 -1.63094e+06 1.59746e+06 0 -1.63668e+06 1.60514e+06 0 -1.64247e+06 1.61279e+06 0 -1.64831e+06 1.6204e+06 0 -1.6542e+06 1.62799e+06 0 -1.66014e+06 1.63554e+06 0 -1.66614e+06 1.64306e+06 0 -1.6722e+06 1.65055e+06 0 -1.67831e+06 1.658e+06 0 -1.68448e+06 1.66541e+06 0 -1.69072e+06 1.67278e+06 0 -1.69702e+06 1.68011e+06 0 -1.70338e+06 1.68741e+06 0 -1.70981e+06 1.69466e+06 0 -1.71632e+06 1.70186e+06 0 -1.72289e+06 1.70902e+06 0 -1.72954e+06 1.71614e+06 0 -1.73626e+06 1.7232e+06 0 -1.74306e+06 1.73022e+06 0 -1.74994e+06 1.73719e+06 0 -1.75691e+06 1.7441e+06 0 -1.76396e+06 1.75097e+06 0 -1.7711e+06 1.75777e+06 0 -1.77833e+06 1.76452e+06 0 -1.78566e+06 1.77121e+06 0 -1.79309e+06 1.77785e+06 0 -1.80061e+06 1.78442e+06 0 -1.80825e+06 1.79092e+06 0 -1.81598e+06 1.79737e+06 0 -1.82383e+06 1.80374e+06 0 -1.8318e+06 1.81005e+06 0 -1.83988e+06 1.81629e+06 0 -1.84808e+06 1.82246e+06 0 -1.85641e+06 1.82855e+06 0 -1.86487e+06 1.83457e+06 0 -1.87347e+06 1.84051e+06 0 -1.8822e+06 1.84637e+06 0 -1.89108e+06 1.85215e+06 0 -1.9001e+06 1.85785e+06 0 -1.90928e+06 1.86346e+06 0 -1.91861e+06 1.86899e+06 0 -1.92811e+06 1.87442e+06 0 -1.93777e+06 1.87977e+06 0 -1.94761e+06 1.88502e+06 0 -1.95763e+06 1.89017e+06 0 -1.96783e+06 1.89522e+06 0 -1.97822e+06 1.90018e+06 0 -1.98881e+06 1.90503e+06 0 -1.9996e+06 1.90977e+06 0 -2.0106e+06 1.91441e+06 0 -2.02181e+06 1.91893e+06 0 -2.03325e+06 1.92334e+06 0 -2.04492e+06 1.92763e+06 0 -2.05683e+06 1.93179e+06 0 -2.06898e+06 1.93584e+06 0 -2.08138e+06 1.93975e+06 0 -2.09404e+06 1.94353e+06 0 -2.10697e+06 1.94718e+06 0 -2.12018e+06 1.95068e+06 0 -2.13368e+06 1.95404e+06 0 -2.14747e+06 1.95725e+06 0 -2.16156e+06 1.96031e+06 0 -2.17597e+06 1.96321e+06 0 -2.19071e+06 1.96594e+06 0 -2.20578e+06 1.9685e+06 0 -2.22119e+06 1.97088e+06 0 -2.23696e+06 1.97308e+06 0 -2.2531e+06 1.97508e+06 0 -2.26962e+06 1.97689e+06 0 -2.28653e+06 1.97849e+06 0 -2.30385e+06 1.97987e+06 0 -2.32158e+06 1.98102e+06 0 -2.33975e+06 1.98193e+06 0 -2.35837e+06 1.9826e+06 0 -2.37744e+06 1.983e+06 0 -2.39699e+06 1.98313e+06 0 -2.41704e+06 1.98297e+06 0 -2.43759e+06 1.9825e+06 0 -2.45868e+06 1.98171e+06 0 -2.48031e+06 1.98058e+06 0 -2.5025e+06 1.97909e+06 0 -2.52528e+06 1.97721e+06 0 -2.54867e+06 1.97492e+06 0 -2.57269e+06 1.9722e+06 0 -2.59736e+06 1.96902e+06 0 -2.62271e+06 1.96534e+06 0 -2.64877e+06 1.96113e+06 0 -2.67556e+06 1.95635e+06 0 -2.70312e+06 1.95096e+06 0 -2.73147e+06 1.94492e+06 0 -2.76065e+06 1.93818e+06 0 -2.7907e+06 1.93067e+06 0 -2.82165e+06 1.92235e+06 0 -2.85355e+06 1.91314e+06 0 -2.88645e+06 1.90298e+06 0 -2.92039e+06 1.89178e+06 0 -2.95543e+06 1.87945e+06 0 -2.99162e+06 1.86591e+06 0 -3.02903e+06 1.85104e+06 0 -3.06773e+06 1.83473e+06 0 -3.10779e+06 1.81685e+06 0 -3.14929e+06 1.79726e+06 0 -3.19233e+06 1.7758e+06 0 -3.23701e+06 1.7523e+06 0 -3.28342e+06 1.72658e+06 0 -3.3317e+06 1.69841e+06 0 -3.38197e+06 1.66758e+06 0 -3.43438e+06 1.63383e+06 0 -3.48909e+06 1.59687e+06 0 -3.54627e+06 1.55639e+06 0 -3.60612e+06 1.51203e+06 0 -3.66885e+06 1.46342e+06 0 -3.73469e+06 1.41012e+06 0 -3.80389e+06 1.35165e+06 0 -3.87675e+06 1.28747e+06 0 -3.95357e+06 1.21697e+06 0 -4.03468e+06 1.13947e+06 0 -4.12047e+06 1.05419e+06 0 -4.21133e+06 960269 0 -4.30772e+06 856702 0 -4.41012e+06 742354 0 -4.51906e+06 615921 0 -4.63512e+06 475899 0 -4.75895e+06 320552 0 -4.89123e+06 147862 0 -1.61152e+06 1.57883e+06 0 -1.61715e+06 1.58656e+06 0 -1.62282e+06 1.59427e+06 0 -1.62853e+06 1.60196e+06 0 -1.6343e+06 1.60961e+06 0 -1.64011e+06 1.61724e+06 0 -1.64598e+06 1.62484e+06 0 -1.65189e+06 1.6324e+06 0 -1.65786e+06 1.63994e+06 0 -1.66389e+06 1.64744e+06 0 -1.66997e+06 1.65491e+06 0 -1.67612e+06 1.66234e+06 0 -1.68232e+06 1.66973e+06 0 -1.68858e+06 1.67709e+06 0 -1.69491e+06 1.68441e+06 0 -1.70131e+06 1.69168e+06 0 -1.70777e+06 1.69892e+06 0 -1.7143e+06 1.70611e+06 0 -1.72091e+06 1.71326e+06 0 -1.72759e+06 1.72036e+06 0 -1.73434e+06 1.72742e+06 0 -1.74118e+06 1.73443e+06 0 -1.74809e+06 1.74139e+06 0 -1.75509e+06 1.74829e+06 0 -1.76218e+06 1.75515e+06 0 -1.76935e+06 1.76195e+06 0 -1.77662e+06 1.76869e+06 0 -1.78399e+06 1.77538e+06 0 -1.79145e+06 1.78201e+06 0 -1.79901e+06 1.78858e+06 0 -1.80668e+06 1.79508e+06 0 -1.81446e+06 1.80152e+06 0 -1.82234e+06 1.8079e+06 0 -1.83035e+06 1.81421e+06 0 -1.83847e+06 1.82045e+06 0 -1.84671e+06 1.82663e+06 0 -1.85508e+06 1.83273e+06 0 -1.86358e+06 1.83875e+06 0 -1.87222e+06 1.8447e+06 0 -1.88099e+06 1.85057e+06 0 -1.88991e+06 1.85636e+06 0 -1.89898e+06 1.86207e+06 0 -1.9082e+06 1.8677e+06 0 -1.91757e+06 1.87324e+06 0 -1.92711e+06 1.87869e+06 0 -1.93682e+06 1.88406e+06 0 -1.9467e+06 1.88933e+06 0 -1.95676e+06 1.8945e+06 0 -1.96701e+06 1.89958e+06 0 -1.97744e+06 1.90456e+06 0 -1.98808e+06 1.90943e+06 0 -1.99891e+06 1.91421e+06 0 -2.00996e+06 1.91887e+06 0 -2.02122e+06 1.92342e+06 0 -2.0327e+06 1.92786e+06 0 -2.04442e+06 1.93219e+06 0 -2.05637e+06 1.93639e+06 0 -2.06857e+06 1.94047e+06 0 -2.08102e+06 1.94443e+06 0 -2.09373e+06 1.94825e+06 0 -2.10671e+06 1.95194e+06 0 -2.11997e+06 1.9555e+06 0 -2.13351e+06 1.9589e+06 0 -2.14735e+06 1.96217e+06 0 -2.1615e+06 1.96527e+06 0 -2.17596e+06 1.96823e+06 0 -2.19075e+06 1.97101e+06 0 -2.20587e+06 1.97363e+06 0 -2.22134e+06 1.97608e+06 0 -2.23716e+06 1.97834e+06 0 -2.25336e+06 1.98041e+06 0 -2.26993e+06 1.98229e+06 0 -2.2869e+06 1.98395e+06 0 -2.30428e+06 1.98541e+06 0 -2.32207e+06 1.98664e+06 0 -2.3403e+06 1.98763e+06 0 -2.35898e+06 1.98838e+06 0 -2.37812e+06 1.98887e+06 0 -2.39774e+06 1.98908e+06 0 -2.41786e+06 1.98901e+06 0 -2.43849e+06 1.98864e+06 0 -2.45964e+06 1.98795e+06 0 -2.48135e+06 1.98692e+06 0 -2.50363e+06 1.98553e+06 0 -2.5265e+06 1.98376e+06 0 -2.54998e+06 1.98158e+06 0 -2.57409e+06 1.97898e+06 0 -2.59886e+06 1.97592e+06 0 -2.62432e+06 1.97236e+06 0 -2.65049e+06 1.96829e+06 0 -2.67739e+06 1.96364e+06 0 -2.70507e+06 1.9584e+06 0 -2.73356e+06 1.95251e+06 0 -2.76288e+06 1.94592e+06 0 -2.79308e+06 1.93858e+06 0 -2.82419e+06 1.93043e+06 0 -2.85627e+06 1.9214e+06 0 -2.88935e+06 1.91143e+06 0 -2.92349e+06 1.90043e+06 0 -2.95874e+06 1.88832e+06 0 -2.99517e+06 1.875e+06 0 -3.03283e+06 1.86037e+06 0 -3.07179e+06 1.84431e+06 0 -3.11215e+06 1.8267e+06 0 -3.15396e+06 1.8074e+06 0 -3.19734e+06 1.78625e+06 0 -3.24239e+06 1.76309e+06 0 -3.2892e+06 1.73772e+06 0 -3.33791e+06 1.70995e+06 0 -3.38865e+06 1.67954e+06 0 -3.44157e+06 1.64623e+06 0 -3.49683e+06 1.60976e+06 0 -3.55462e+06 1.56981e+06 0 -3.61512e+06 1.52603e+06 0 -3.67855e+06 1.47805e+06 0 -3.74516e+06 1.42543e+06 0 -3.81521e+06 1.36771e+06 0 -3.88899e+06 1.30433e+06 0 -3.96682e+06 1.23472e+06 0 -4.04904e+06 1.15819e+06 0 -4.13604e+06 1.07397e+06 0 -4.22824e+06 981207 0 -4.3261e+06 878912 0 -4.43013e+06 765960 0 -4.54089e+06 641060 0 -4.65897e+06 502726 0 -4.78506e+06 349238 0 -4.91989e+06 178599 0 -1.60904e+06 1.5834e+06 0 -1.61469e+06 1.59112e+06 0 -1.62038e+06 1.59881e+06 0 -1.62612e+06 1.60647e+06 0 -1.63191e+06 1.6141e+06 0 -1.63775e+06 1.62171e+06 0 -1.64364e+06 1.62929e+06 0 -1.64959e+06 1.63684e+06 0 -1.65558e+06 1.64435e+06 0 -1.66164e+06 1.65183e+06 0 -1.66775e+06 1.65928e+06 0 -1.67392e+06 1.6667e+06 0 -1.68015e+06 1.67408e+06 0 -1.68645e+06 1.68142e+06 0 -1.6928e+06 1.68872e+06 0 -1.69923e+06 1.69598e+06 0 -1.70572e+06 1.70321e+06 0 -1.71229e+06 1.71039e+06 0 -1.71892e+06 1.71752e+06 0 -1.72563e+06 1.72462e+06 0 -1.73242e+06 1.73166e+06 0 -1.73929e+06 1.73866e+06 0 -1.74624e+06 1.74561e+06 0 -1.75327e+06 1.75251e+06 0 -1.76039e+06 1.75936e+06 0 -1.76761e+06 1.76615e+06 0 -1.77491e+06 1.77289e+06 0 -1.78231e+06 1.77957e+06 0 -1.78981e+06 1.7862e+06 0 -1.79741e+06 1.79276e+06 0 -1.80511e+06 1.79927e+06 0 -1.81293e+06 1.80571e+06 0 -1.82085e+06 1.81209e+06 0 -1.82889e+06 1.81841e+06 0 -1.83705e+06 1.82465e+06 0 -1.84534e+06 1.83083e+06 0 -1.85375e+06 1.83693e+06 0 -1.86229e+06 1.84297e+06 0 -1.87096e+06 1.84892e+06 0 -1.87978e+06 1.85481e+06 0 -1.88874e+06 1.86061e+06 0 -1.89784e+06 1.86633e+06 0 -1.90711e+06 1.87197e+06 0 -1.91652e+06 1.87753e+06 0 -1.92611e+06 1.883e+06 0 -1.93586e+06 1.88838e+06 0 -1.94578e+06 1.89367e+06 0 -1.95589e+06 1.89887e+06 0 -1.96618e+06 1.90397e+06 0 -1.97666e+06 1.90897e+06 0 -1.98733e+06 1.91388e+06 0 -1.99821e+06 1.91868e+06 0 -2.00931e+06 1.92337e+06 0 -2.02061e+06 1.92796e+06 0 -2.03214e+06 1.93243e+06 0 -2.0439e+06 1.93679e+06 0 -2.0559e+06 1.94103e+06 0 -2.06815e+06 1.94515e+06 0 -2.08065e+06 1.94915e+06 0 -2.09341e+06 1.95301e+06 0 -2.10644e+06 1.95675e+06 0 -2.11974e+06 1.96035e+06 0 -2.13334e+06 1.96381e+06 0 -2.14723e+06 1.96712e+06 0 -2.16143e+06 1.97028e+06 0 -2.17594e+06 1.97329e+06 0 -2.19078e+06 1.97613e+06 0 -2.20595e+06 1.97881e+06 0 -2.22147e+06 1.98132e+06 0 -2.23735e+06 1.98364e+06 0 -2.2536e+06 1.98578e+06 0 -2.27024e+06 1.98772e+06 0 -2.28726e+06 1.98946e+06 0 -2.3047e+06 1.99099e+06 0 -2.32255e+06 1.9923e+06 0 -2.34085e+06 1.99337e+06 0 -2.35959e+06 1.9942e+06 0 -2.37879e+06 1.99478e+06 0 -2.39848e+06 1.99508e+06 0 -2.41867e+06 1.9951e+06 0 -2.43937e+06 1.99482e+06 0 -2.4606e+06 1.99423e+06 0 -2.48239e+06 1.9933e+06 0 -2.50475e+06 1.99202e+06 0 -2.5277e+06 1.99036e+06 0 -2.55127e+06 1.9883e+06 0 -2.57548e+06 1.98581e+06 0 -2.60035e+06 1.98287e+06 0 -2.62591e+06 1.97944e+06 0 -2.65219e+06 1.9755e+06 0 -2.67921e+06 1.971e+06 0 -2.70702e+06 1.9659e+06 0 -2.73563e+06 1.96016e+06 0 -2.7651e+06 1.95373e+06 0 -2.79545e+06 1.94655e+06 0 -2.82672e+06 1.93857e+06 0 -2.85897e+06 1.92973e+06 0 -2.89224e+06 1.91995e+06 0 -2.92658e+06 1.90915e+06 0 -2.96204e+06 1.89726e+06 0 -2.9987e+06 1.88417e+06 0 -3.03661e+06 1.86978e+06 0 -3.07584e+06 1.85398e+06 0 -3.11648e+06 1.83665e+06 0 -3.15861e+06 1.81764e+06 0 -3.20233e+06 1.79681e+06 0 -3.24773e+06 1.77398e+06 0 -3.29494e+06 1.74898e+06 0 -3.34408e+06 1.7216e+06 0 -3.39529e+06 1.69161e+06 0 -3.44871e+06 1.65876e+06 0 -3.50452e+06 1.62278e+06 0 -3.56289e+06 1.58337e+06 0 -3.62404e+06 1.54018e+06 0 -3.68818e+06 1.49283e+06 0 -3.75555e+06 1.4409e+06 0 -3.82644e+06 1.38393e+06 0 -3.90113e+06 1.32138e+06 0 -3.97995e+06 1.25266e+06 0 -4.06326e+06 1.17711e+06 0 -4.15146e+06 1.09397e+06 0 -4.24499e+06 1.00238e+06 0 -4.34431e+06 901374 0 -4.44995e+06 789838 0 -4.5625e+06 666493 0 -4.68258e+06 529871 0 -4.8109e+06 378271 0 -4.94824e+06 209718 0 -1.60655e+06 1.588e+06 0 -1.61222e+06 1.59569e+06 0 -1.61794e+06 1.60336e+06 0 -1.62371e+06 1.611e+06 0 -1.62952e+06 1.61861e+06 0 -1.63539e+06 1.6262e+06 0 -1.64131e+06 1.63376e+06 0 -1.64728e+06 1.64129e+06 0 -1.6533e+06 1.64878e+06 0 -1.65938e+06 1.65625e+06 0 -1.66552e+06 1.66368e+06 0 -1.67172e+06 1.67108e+06 0 -1.67798e+06 1.67844e+06 0 -1.6843e+06 1.68577e+06 0 -1.69069e+06 1.69306e+06 0 -1.69715e+06 1.70031e+06 0 -1.70367e+06 1.70752e+06 0 -1.71027e+06 1.71468e+06 0 -1.71693e+06 1.72181e+06 0 -1.72368e+06 1.72889e+06 0 -1.7305e+06 1.73593e+06 0 -1.7374e+06 1.74292e+06 0 -1.74438e+06 1.74986e+06 0 -1.75145e+06 1.75675e+06 0 -1.75861e+06 1.76359e+06 0 -1.76585e+06 1.77038e+06 0 -1.77319e+06 1.77711e+06 0 -1.78063e+06 1.78379e+06 0 -1.78816e+06 1.79042e+06 0 -1.7958e+06 1.79698e+06 0 -1.80354e+06 1.80349e+06 0 -1.81139e+06 1.80993e+06 0 -1.81935e+06 1.81631e+06 0 -1.82743e+06 1.82263e+06 0 -1.83563e+06 1.82888e+06 0 -1.84395e+06 1.83506e+06 0 -1.8524e+06 1.84117e+06 0 -1.86098e+06 1.84721e+06 0 -1.8697e+06 1.85318e+06 0 -1.87856e+06 1.85907e+06 0 -1.88756e+06 1.86489e+06 0 -1.89671e+06 1.87062e+06 0 -1.90601e+06 1.87628e+06 0 -1.91547e+06 1.88185e+06 0 -1.9251e+06 1.88734e+06 0 -1.93489e+06 1.89274e+06 0 -1.94486e+06 1.89805e+06 0 -1.955e+06 1.90327e+06 0 -1.96534e+06 1.90839e+06 0 -1.97586e+06 1.91342e+06 0 -1.98658e+06 1.91835e+06 0 -1.99751e+06 1.92318e+06 0 -2.00865e+06 1.92791e+06 0 -2.02e+06 1.93252e+06 0 -2.03158e+06 1.93703e+06 0 -2.04338e+06 1.94143e+06 0 -2.05543e+06 1.94571e+06 0 -2.06772e+06 1.94987e+06 0 -2.08027e+06 1.9539e+06 0 -2.09307e+06 1.95781e+06 0 -2.10615e+06 1.96159e+06 0 -2.11951e+06 1.96524e+06 0 -2.13315e+06 1.96875e+06 0 -2.14709e+06 1.97211e+06 0 -2.16134e+06 1.97532e+06 0 -2.17591e+06 1.97839e+06 0 -2.1908e+06 1.98129e+06 0 -2.20602e+06 1.98403e+06 0 -2.2216e+06 1.9866e+06 0 -2.23753e+06 1.98899e+06 0 -2.25384e+06 1.99119e+06 0 -2.27053e+06 1.99321e+06 0 -2.28761e+06 1.99502e+06 0 -2.30511e+06 1.99662e+06 0 -2.32302e+06 1.998e+06 0 -2.34138e+06 1.99916e+06 0 -2.36018e+06 2.00007e+06 0 -2.37945e+06 2.00073e+06 0 -2.39921e+06 2.00112e+06 0 -2.41946e+06 2.00124e+06 0 -2.44024e+06 2.00105e+06 0 -2.46155e+06 2.00056e+06 0 -2.48341e+06 1.99973e+06 0 -2.50585e+06 1.99855e+06 0 -2.52889e+06 1.997e+06 0 -2.55255e+06 1.99506e+06 0 -2.57685e+06 1.99269e+06 0 -2.60182e+06 1.98988e+06 0 -2.62749e+06 1.98658e+06 0 -2.65388e+06 1.98277e+06 0 -2.68102e+06 1.9784e+06 0 -2.70895e+06 1.97345e+06 0 -2.7377e+06 1.96786e+06 0 -2.7673e+06 1.96159e+06 0 -2.7978e+06 1.95459e+06 0 -2.82924e+06 1.94679e+06 0 -2.86166e+06 1.93813e+06 0 -2.89511e+06 1.92854e+06 