<?xml version="1.0"?> 
<VTKFile type="StructuredGrid" version="0.1"> 
<StructuredGrid WholeExtent="0 127 0 127 0 0"> 
<Piece Extent="0 127 0 127 0 0"> 
<PointData>
<DataArray type="Float32" Name="|E|" format="ascii" NumberOfComponents="3"> 
987079 221232 0 979302 219180 0 971604 217125 0 963985 215068 0 956444 213010 0 948982 210951 0 941598 208892 0 934292 206833 0 927063 204775 0 919911 202718 0 912837 200662 0 905839 198609 0 898917 196558 0 892071 194510 0 885301 192465 0 878606 190424 0 871986 188386 0 865440 186353 0 858969 184324 0 852572 182300 0 846249 180281 0 839999 178267 0 833822 176259 0 827718 174256 0 821685 172259 0 815725 170268 0 809837 168284 0 804019 166305 0 798273 164333 0 792597 162368 0 786991 160410 0 781455 158458 0 775989 156513 0 770592 154576 0 765264 152645 0 760004 150722 0 754812 148806 0 749688 146898 0 744632 144996 0 739643 143102 0 734721 141216 0 729865 139337 0 725075 137466 0 720351 135602 0 715692 133746 0 711099 131897 0 706571 130056 0 702107 128222 0 697707 126396 0 693371 124577 0 689099 122766 0 684890 120963 0 680744 119166 0 676661 117377 0 672640 115596 0 668681 113822 0 664784 112055 0 660949 110295 0 657174 108543 0 653461 106797 0 649808 105059 0 646216 103328 0 642683 101604 0 639211 99886.1 0 635798 98175.4 0 632444 96471.4 0 629149 94774.2 0 625914 93083.5 0 622736 91399.3 0 619617 89721.5 0 616556 88050.1 0 613553 86384.9 0 610607 84725.9 0 607719 83073 0 604888 81426.1 0 602113 79785.1 0 599396 78149.9 0 596734 76520.5 0 594129 74896.6 0 591580 73278.3 0 589087 71665.4 0 586649 70057.9 0 584267 68455.6 0 581940 66858.4 0 579668 65266.2 0 577451 63679 0 575288 62096.6 0 573180 60518.9 0 571126 58945.8 0 569126 57377.3 0 567181 55813.1 0 565289 54253.2 0 563451 52697.5 0 561666 51145.9 0 559935 49598.2 0 558257 48054.4 0 556632 46514.4 0 555060 44977.9 0 553540 43445 0 552074 41915.4 0 550660 40389.2 0 549298 38866.1 0 547989 37346.1 0 546732 35829.1 0 545527 34314.9 0 544374 32803.3 0 543273 31294.4 0 542223 29788 0 541226 28283.9 0 540280 26782.1 0 539386 25282.5 0 538543 23784.8 0 537752 22289 0 537012 20795 0 536323 19302.7 0 535685 17812 0 535099 16322.6 0 534564 14834.6 0 534080 13347.7 0 533647 11861.9 0 533265 10377.1 0 532934 8893.12 0 532654 7409.84 0 532425 5927.16 0 532246 4444.95 0 532119 2963.1 0 532042 1481.49 0 532017 0 0 986616 222361 0 978840 220301 0 971144 218237 0 963526 216172 0 955987 214106 0 948527 212038 0 941145 209970 0 933840 207903 0 926613 205836 0 919464 203770 0 912391 201706 0 905395 199644 0 898475 197584 0 891631 195527 0 884863 193474 0 878170 191424 0 871553 189378 0 865010 187336 0 858541 185298 0 852146 183266 0 845825 181238 0 839577 179215 0 833402 177198 0 827300 175187 0 821270 173181 0 815312 171182 0 809426 169188 0 803611 167201 0 797867 165221 0 792193 163247 0 786590 161280 0 781056 159319 0 775592 157366 0 770197 155420 0 764871 153481 0 759614 151549 0 754424 149624 0 749303 147707 0 744249 145797 0 739262 143894 0 734341 141999 0 729488 140112 0 724700 138232 0 719978 136359 0 715322 134494 0 710731 132637 0 706204 130787 0 701743 128944 0 697345 127110 0 693011 125282 0 688741 123463 0 684534 121650 0 680390 119845 0 676309 118048 0 672290 116258 0 668333 114475 0 664437 112699 0 660604 110931 0 656831 109170 0 653119 107416 0 649468 105669 0 645878 103929 0 642347 102196 0 638876 100469 0 635465 98750.1 0 632113 97037.4 0 628820 95331.4 0 625585 93632 0 622410 91939.1 0 619292 90252.6 0 616232 88572.4 0 613231 86898.5 0 610286 85230.8 0 607399 83569.2 0 604570 81913.5 0 601796 80263.7 0 599080 78619.8 0 596420 76981.5 0 593816 75348.9 0 591268 73721.8 0 588776 72100.1 0 586339 70483.7 0 583958 68872.6 0 581632 67266.6 0 579361 65665.6 0 577145 64069.5 0 574983 62478.2 0 572876 60891.6 0 570823 59309.7 0 568824 57732.2 0 566880 56159.1 0 564989 54590.3 0 563151 53025.6 0 561367 51465 0 559636 49908.4 0 557959 48355.5 0 556335 46806.4 0 554763 45260.9 0 553244 43719 0 551778 42180.3 0 550364 40645 0 549003 39112.8 0 547694 37583.7 0 546438 36057.4 0 545233 34534 0 544080 33013.3 0 542980 31495.2 0 541930 29979.5 0 540933 28466.1 0 539987 26955 0 539093 25446 0 538251 23938.9 0 537459 22433.8 0 536719 20930.4 0 536030 19428.6 0 535393 17928.4 0 534806 16429.5 0 534271 14931.9 0 533787 13435.5 0 533354 11940.1 0 532971 10445.6 0 532640 8951.96 0 532359 7458.96 0 532130 5966.53 0 531951 4474.54 0 531823 2982.87 0 531746 1491.39 0 531720 0 0 986150 223490 0 978376 221421 0 970681 219349 0 963066 217276 0 955528 215200 0 948070 213124 0 940689 211048 0 933387 208971 0 926162 206896 0 919014 204821 0 911943 202749 0 904949 200678 0 898032 198610 0 891190 196544 0 884424 194482 0 877733 192423 0 871118 190369 0 864577 188318 0 858110 186272 0 851718 184230 0 845399 182194 0 839153 180163 0 832981 178137 0 826881 176117 0 820853 174103 0 814898 172094 0 809014 170092 0 803201 168097 0 797459 166107 0 791788 164125 0 786187 162149 0 780655 160180 0 775194 158218 0 769801 156263 0 764477 154315 0 759222 152375 0 754035 150441 0 748915 148515 0 743863 146597 0 738879 144685 0 733961 142782 0 729109 140885 0 724324 138997 0 719604 137116 0 714950 135242 0 710361 133376 0 705836 131517 0 701376 129666 0 696981 127823 0 692649 125987 0 688381 124158 0 684176 122337 0 680034 120524 0 675954 118718 0 671937 116919 0 667982 115127 0 664089 113343 0 660257 111566 0 656486 109796 0 652776 108033 0 649127 106278 0 645538 104529 0 642009 102787 0 638540 101052 0 635130 99324.3 0 631780 97603 0 628488 95888.3 0 625255 94180.1 0 622081 92478.5 0 618965 90783.3 0 615907 89094.4 0 612907 87411.8 0 609964 85735.3 0 607078 84064.9 0 604250 82400.5 0 601478 80742 0 598763 79089.3 0 596104 77442.2 0 593501 75800.8 0 590954 74164.9 0 588463 72534.4 0 586028 70909.3 0 583648 69289.3 0 581323 67674.5 0 579053 66064.6 0 576838 64459.7 0 574677 62859.5 0 572571 61264.1 0 570519 59673.2 0 568521 58086.8 0 566577 56504.8 0 564686 54927.1 0 562850 53353.4 0 561066 51783.9 0 559336 50218.2 0 557659 48656.4 0 556036 47098.3 0 554465 45543.8 0 552946 43992.7 0 551481 42445 0 550068 40900.6 0 548707 39359.3 0 547398 37821 0 546142 36285.6 0 544938 34753 0 543785 33223.1 0 542685 31695.7 0 541636 30170.8 0 540639 28648.1 0 539693 27127.7 0 538799 25609.4 0 537956 24093 0 537165 22578.4 0 536425 21065.6 0 535736 19554.4 0 535098 18044.7 0 534512 16536.3 0 533976 15029.2 0 533492 13523.2 0 533058 12018.2 0 532676 10514.1 0 532344 9010.74 0 532063 7508.05 0 531833 6005.87 0 531654 4504.1 0 531525 3002.61 0 531448 1501.29 0 531421 0 0 985683 224619 0 977911 222541 0 970217 220461 0 962603 218379 0 955068 216295 0 947611 214210 0 940232 212125 0 932932 210040 0 925709 207956 0 918563 205873 0 911494 203791 0 904502 201712 0 897587 199635 0 890747 197561 0 883983 195490 0 877295 193423 0 870681 191359 0 864143 189300 0 857678 187245 0 851288 185195 0 844971 183150 0 838728 181110 0 832558 179075 0 826460 177047 0 820435 175024 0 814481 173007 0 808600 170996 0 802789 168992 0 797050 166994 0 791380 165002 0 785782 163018 0 780253 161040 0 774793 159069 0 769403 157106 0 764081 155149 0 758828 153200 0 753643 151258 0 748526 149323 0 743476 147396 0 738494 145476 0 733578 143564 0 728729 141659 0 723945 139761 0 719228 137872 0 714576 135989 0 709989 134115 0 705466 132247 0 701009 130388 0 696615 128535 0 692285 126691 0 688019 124854 0 683816 123024 0 679676 121202 0 675598 119387 0 671583 117579 0 667630 115779 0 663738 113986 0 659908 112201 0 656139 110422 0 652431 108651 0 648784 106886 0 645197 105129 0 641669 103378 0 638202 101635 0 634794 99898.2 0 631445 98168.1 0 628155 96444.7 0 624924 94727.9 0 621751 93017.6 0 618636 91313.6 0 615580 89616 0 612581 87924.7 0 609639 86239.5 0 606755 84560.3 0 603928 82887.2 0 601157 81219.9 0 598443 79558.4 0 595786 77902.6 0 593184 76252.4 0 590639 74607.8 0 588149 72968.5 0 585715 71334.5 0 583336 69705.7 0 581012 68082 0 578743 66463.4 0 576528 64849.6 0 574369 63240.6 0 572263 61636.2 0 570212 60036.5 0 568215 58441.2 0 566272 56850.3 0 564382 55263.6 0 562546 53681 0 560764 52102.5 0 559034 50527.9 0 557358 48957.1 0 555735 47389.9 0 554164 45826.4 0 552647 44266.3 0 551181 42709.5 0 549769 41156 0 548408 39605.6 0 547100 38058.2 0 545844 36513.6 0 544640 34971.9 0 543488 33432.7 0 542388 31896.1 0 541339 30361.9 0 540342 28830 0 539397 27300.3 0 538503 25772.6 0 537660 24246.9 0 536869 22723 0 536129 21200.7 0 535440 19680.1 0 534802 18160.9 0 534215 16643 0 533679 15126.4 0 533195 13610.8 0 532761 12096.2 0 532378 10582.5 0 532046 9069.49 0 531765 7557.09 0 531534 6045.18 0 531355 4533.64 0 531226 3022.35 0 531148 1511.17 0 531120 0 0 985214 225747 0 977443 223661 0 969752 221572 0 962139 219481 0 954606 217389 0 947150 215295 0 939774 213201 0 932475 211108 0 925254 209015 0 918110 206923 0 911043 204833 0 904053 202745 0 897140 200660 0 890302 198577 0 883540 196497 0 876854 194421 0 870243 192349 0 863706 190281 0 857244 188218 0 850856 186159 0 844542 184105 0 838301 182056 0 832133 180013 0 826037 177976 0 820014 175944 0 814063 173918 0 808184 171899 0 802376 169886 0 796638 167879 0 790971 165879 0 785375 163886 0 779848 161900 0 774391 159920 0 769003 157948 0 763684 155983 0 758433 154025 0 753250 152074 0 748135 150131 0 743088 148195 0 738107 146266 0 733194 144345 0 728346 142432 0 723565 140526 0 718850 138627 0 714200 136736 0 709615 134853 0 705095 132977 0 700639 131109 0 696247 129248 0 691920 127394 0 687655 125549 0 683454 123710 0 679316 121879 0 675241 120056 0 671227 118240 0 667276 116431 0 663386 114629 0 659558 112835 0 655791 111048 0 652085 109267 0 648439 107494 0 644853 105728 0 641328 103969 0 637862 102217 0 634455 100472 0 631108 98732.9 0 627820 97000.8 0 624590 95275.2 0 621419 93556.2 0 618306 91843.6 0 615251 90137.2 0 612253 88437.2 0 609313 86743.2 0 606430 85055.4 0 603604 83373.5 0 600835 81697.5 0 598122 80027.2 0 595466 78362.7 0 592866 76703.7 0 590321 75050.2 0 587833 73402.2 0 585399 71759.4 0 583021 70121.8 0 580699 68489.3 0 578431 66861.8 0 576217 65239.2 0 574058 63621.3 0 571954 62008.1 0 569904 60399.5 0 567907 58795.3 0 565965 57195.5 0 564076 55599.9 0 562241 54008.4 0 560459 52420.9 0 558730 50837.3 0 557055 49257.5 0 555432 47681.3 0 553862 46108.8 0 552345 44539.6 0 550880 42973.8 0 549468 41411.2 0 548108 39851.7 0 546800 38295.1 0 545545 36741.5 0 544341 35190.5 0 543189 33642.2 0 542089 32096.4 0 541041 30552.9 0 540044 29011.8 0 539098 27472.8 0 538204 25935.8 0 537362 24400.7 0 536570 22867.4 0 535830 21335.8 0 535141 19805.7 0 534503 18277 0 533917 16749.7 0 533381 15223.5 0 532896 13698.4 0 532462 12174.2 0 532078 10650.8 0 531746 9128.18 0 531464 7606.1 0 531233 6084.46 0 531053 4563.16 0 530924 3042.06 0 530845 1521.05 0 530817 0 0 984744 226875 0 976974 224781 0 969284 222683 0 961673 220583 0 954141 218482 0 946688 216380 0 939313 214278 0 932016 212175 0 924797 210074 0 917655 207973 0 910590 205875 0 903603 203778 0 896691 201684 0 889856 199592 0 883096 197504 0 876412 195419 0 869803 193338 0 863268 191262 0 856809 189190 0 850423 187122 0 844111 185060 0 837872 183002 0 831706 180951 0 825613 178904 0 819592 176864 0 813643 174830 0 807766 172802 0 801960 170780 0 796225 168765 0 790561 166756 0 784966 164754 0 779442 162759 0 773987 160771 0 768601 158790 0 763284 156816 0 758036 154849 0 752855 152890 0 747742 150938 0 742697 148993 0 737719 147056 0 732807 145126 0 727962 143204 0 723183 141289 0 718470 139382 0 713822 137483 0 709239 135590 0 704721 133706 0 700268 131829 0 695878 129959 0 691552 128097 0 687290 126243 0 683091 124396 0 678955 122556 0 674881 120724 0 670870 118899 0 666920 117082 0 663032 115271 0 659206 113468 0 655441 111673 0 651736 109884 0 648092 108102 0 644508 106327 0 640984 104560 0 637520 102799 0 634115 101045 0 630770 99297.2 0 627483 97556.4 0 624255 95822.2 0 621085 94094.4 0 617973 92373.1 0 614920 90658.1 0 611924 88949.3 0 608985 87246.6 0 606103 85550 0 603279 83859.4 0 600511 82174.7 0 597800 80495.7 0 595144 78822.4 0 592545 77154.6 0 590002 75492.4 0 587515 73835.6 0 585082 72184 0 582706 70537.6 0 580384 68896.3 0 578117 67259.9 0 575904 65628.5 0 573747 64001.8 0 571643 62379.7 0 569594 60762.2 0 567598 59149.1 0 565656 57540.4 0 563768 55935.9 0 561934 54335.4 0 560153 52739 0 558425 51146.5 0 556750 49557.7 0 555128 47972.5 0 553558 46390.9 0 552042 44812.8 0 550577 43237.9 0 549166 41666.2 0 547806 40097.6 0 546499 38531.9 0 545243 36969.1 0 544040 35409 0 542888 33851.5 0 541788 32296.5 0 540740 30743.8 0 539743 29193.4 0 538798 27645.1 0 537904 26098.8 0 537062 24554.3 0 536270 23011.7 0 535530 21470.7 0 534841 19931.2 0 534203 18393 0 533616 16856.2 0 533080 15320.5 0 532595 13785.9 0 532160 12252.1 0 531777 10719.1 0 531444 9186.83 0 531162 7655.06 0 530931 6123.71 0 530750 4592.65 0 530620 3061.76 0 530541 1530.92 0 530512 0 0 984271 228003 0 976503 225899 0 968815 223793 0 961206 221685 0 953675 219575 0 946224 217464 0 938851 215353 0 931556 213242 0 924338 211132 0 917199 209023 0 910136 206916 0 903150 204810 0 896241 202707 0 889407 200607 0 882650 198510 0 875968 196417 0 869361 194327 0 862829 192242 0 856371 190161 0 849987 188085 0 843677 186014 0 837441 183948 0 831278 181887 0 825187 179832 0 819168 177783 0 813222 175740 0 807347 173704 0 801543 171673 0 795810 169649 0 790148 167632 0 784556 165621 0 779034 163618 0 773581 161621 0 768198 159631 0 762883 157649 0 757637 155673 0 752458 153705 0 747348 151745 0 742305 149791 0 737329 147845 0 732419 145907 0 727576 143976 0 722800 142053 0 718088 140137 0 713443 138228 0 708862 136328 0 704346 134434 0 699894 132549 0 695507 130671 0 691183 128800 0 686923 126937 0 682726 125081 0 678592 123233 0 674520 121392 0 670510 119559 0 666563 117732 0 662677 115913 0 658852 114102 0 655089 112297 0 651386 110500 0 647744 108709 0 644161 106926 0 640639 105150 0 637177 103380 0 633774 101617 0 630429 99861.1 0 627144 98111.6 0 623918 96368.7 0 620749 94632.3 0 617639 92902.3 0 614587 91178.5 0 611592 89461 0 608655 87749.7 0 605775 86044.4 0 602952 84345 0 600185 82651.5 0 597475 80963.8 0 594821 79281.7 0 592223 77605.2 0 589681 75934.2 0 587195 74268.6 0 584764 72608.2 0 582388 70953.1 0 580067 69302.9 0 577801 67657.8 0 575590 66017.5 0 573433 64381.9 0 571330 62751 0 569282 61124.6 0 567287 59502.7 0 565346 57885.1 0 563459 56271.6 0 561625 54662.3 0 559845 53056.9 0 558117 51455.4 0 556443 49857.6 0 554821 48263.5 0 553253 46672.9 0 551736 45085.7 0 550273 43501.7 0 548861 41921 0 547502 40343.3 0 546195 38768.5 0 544940 37196.6 0 543737 35627.3 0 542585 34060.6 0 541486 32496.4 0 540438 30934.5 0 539441 29374.8 0 538496 27817.2 0 537602 26261.6 0 536760 24707.9 0 535968 23155.9 0 535228 21605.5 0 534539 20056.5 0 533901 18509 0 533314 16962.7 0 532777 15417.5 0 532292 13873.3 0 531857 12329.9 0 531473 10787.4 0 531140 9245.43 0 530858 7703.99 0 530626 6162.92 0 530445 4622.12 0 530314 3081.44 0 530235 1540.78 0 530206 0 0 983797 229130 0 976031 227018 0 968344 224903 0 960736 222786 0 953208 220668 0 945758 218548 0 938387 216429 0 931094 214309 0 923878 212190 0 916740 210072 0 909680 207956 0 902696 205842 0 895788 203731 0 888957 201622 0 882202 199516 0 875522 197414 0 868917 195316 0 862387 193222 0 855932 191132 0 849550 189047 0 843243 186967 0 837008 184893 0 830847 182824 0 824759 180760 0 818742 178702 0 812798 176651 0 806926 174605 0 801124 172566 0 795394 170533 0 789734 168507 0 784144 166488 0 778624 164476 0 773174 162470 0 767792 160472 0 762480 158481 0 757236 156497 0 752060 154520 0 746951 152551 0 741911 150589 0 736937 148634 0 732030 146687 0 727189 144747 0 722414 142815 0 717705 140891 0 713062 138974 0 708483 137064 0 703969 135163 0 699519 133268 0 695134 131381 0 690812 129502 0 686554 127630 0 682359 125766 0 678227 123909 0 674157 122060 0 670149 120217 0 666203 118383 0 662319 116555 0 658497 114735 0 654735 112921 0 651034 111115 0 647393 109316 0 643813 107524 0 640292 105739 0 636831 103961 0 633430 102189 0 630087 100425 0 626804 98666.5 0 623579 96914.9 0 620412 95169.7 0 617303 93431 0 614253 91698.6 0 611259 89972.4 0 608323 88252.3 0 605445 86538.3 0 602623 84830.2 0 599857 83128 0 597149 81431.5 0 594496 79740.7 0 591899 78055.5 0 589358 76375.7 0 586873 74701.3 0 584443 73032.2 0 582068 71368.2 0 579749 69709.3 0 577484 68055.3 0 575273 66406.2 0 573117 64761.8 0 571015 63122 0 568968 61486.8 0 566974 59856 0 565034 58229.4 0 563147 56607.1 0 561314 54988.8 0 559535 53374.5 0 557808 51764.1 0 556134 50157.3 0 554513 48554.2 0 552945 46954.6 0 551429 45358.4 0 549966 43765.4 0 548555 42175.6 0 547196 40588.8 0 545890 39004.9 0 544635 37423.8 0 543432 35845.4 0 542281 34269.6 0 541181 32696.2 0 540133 31125 0 539137 29556.1 0 538192 27989.3 0 537298 26424.4 0 536456 24861.3 0 535664 23299.9 0 534924 21740.1 0 534235 20181.8 0 533596 18624.8 0 533009 17069 0 532473 15514.3 0 531987 13960.6 0 531552 12407.7 0 531168 10855.6 0 530834 9303.98 0 530551 7752.87 0 530319 6202.11 0 530138 4651.56 0 530007 3101.11 0 529926 1550.63 0 529897 0 0 983321 230257 0 975556 228136 0 967871 226013 0 960265 223887 0 952738 221760 0 945290 219632 0 937921 217503 0 930630 215375 0 923416 213247 0 916280 211121 0 909221 208996 0 902240 206873 0 895334 204753 0 888505 202636 0 881752 200521 0 875074 198411 0 868472 196304 0 861944 194201 0 855491 192103 0 849112 190009 0 842806 187921 0 836574 185837 0 830415 183759 0 824329 181687 0 818315 179621 0 812373 177560 0 806503 175506 0 800704 173458 0 794975 171417 0 789318 169382 0 783730 167354 0 778213 165333 0 772764 163319 0 767385 161312 0 762075 159312 0 756833 157319 0 751659 155334 0 746553 153356 0 741515 151385 0 736543 149422 0 731638 147466 0 726800 145518 0 722027 143577 0 717320 141644 0 712679 139719 0 708102 137801 0 703590 135890 0 699143 133987 0 694759 132092 0 690440 130204 0 686183 128323 0 681990 126450 0 677860 124585 0 673792 122726 0 669786 120876 0 665842 119032 0 661960 117196 0 658139 115367 0 654379 113545 0 650680 111730 0 647041 109923 0 643462 108122 0 639944 106328 0 636484 104541 0 633085 102761 0 629744 100988 0 626462 99220.9 0 623238 97460.6 0 620073 95706.8 0 616966 93959.4 0 613916 92218.3 0 610925 90483.4 0 607990 88754.6 0 605113 87031.8 0 602292 85315 0 599528 83604.1 0 596820 81898.9 0 594169 80199.4 0 591574 78505.4 0 589034 76816.9 0 586550 75133.7 0 584121 73455.8 0 581747 71783 0 579428 70115.3 0 577164 68452.5 0 574955 66794.6 0 572800 65141.4 0 570699 63492.8 0 568652 61848.7 0 566659 60209 0 564720 58573.6 0 562834 56942.3 0 561002 55315.1 0 559223 53691.9 0 557497 52072.5 0 555823 50456.8 0 554203 48844.7 0 552635 47236.1 0 551120 45630.8 0 549657 44028.8 0 548247 42430 0 546889 40834.1 0 545582 39241.1 0 544328 37650.9 0 543125 36063.4 0 541974 34478.4 0 540875 32895.8 0 539827 31315.4 0 538831 29737.3 0 537886 28161.2 0 536992 26587 0 536150 25014.6 0 535358 23443.9 0 534618 21874.7 0 533929 20307 0 533290 18740.6 0 532703 17175.3 0 532166 15611.1 0 531680 14047.9 0 531245 12485.4 0 530860 10923.7 0 530526 9362.48 0 530243 7801.72 0 530010 6241.26 0 529828 4680.98 0 529697 3120.76 0 529616 1560.48 0 529586 0 0 982843 231383 0 975080 229254 0 967396 227122 0 959792 224987 0 952267 222851 0 944821 220715 0 937453 218578 0 930164 216441 0 922952 214304 0 915818 212169 0 908762 210036 0 901782 207904 0 894879 205775 0 888052 203649 0 881300 201526 0 874625 199407 0 868024 197291 0 861499 195180 0 855048 193073 0 848671 190970 0 842368 188873 0 836138 186781 0 829981 184694 0 823897 182614 0 817886 180538 0 811946 178469 0 806078 176407 0 800281 174350 0 794555 172300 0 788900 170257 0 783315 168220 0 777799 166190 0 772353 164167 0 766977 162152 0 761669 160143 0 756429 158142 0 751257 156148 0 746154 154161 0 741117 152182 0 736148 150210 0 731245 148245 0 726408 146289 0 721638 144339 0 716933 142397 0 712294 140463 0 707719 138536 0 703210 136617 0 698764 134705 0 694383 132801 0 690065 130905 0 685811 129016 0 681620 127134 0 677491 125260 0 673425 123393 0 669422 121534 0 665480 119681 0 661599 117837 0 657780 115999 0 654022 114168 0 650324 112345 0 646687 110529 0 643110 108719 0 639593 106917 0 636136 105121 0 632737 103332 0 629398 101550 0 626118 99774.9 0 622896 98005.9 0 619732 96243.5 0 616626 94487.4 0 613578 92737.5 0 610588 90994 0 607655 89256.5 0 604779 87525 0 601959 85799.5 0 599197 84079.9 0 596490 82365.9 0 593840 80657.7 0 591246 78954.9 0 588707 77257.7 0 586224 75565.7 0 583797 73879.1 0 581424 72197.5 0 579106 70521 0 576843 68849.4 0 574635 67182.7 0 572481 65520.7 0 570381 63863.2 0 568335 62210.3 0 566343 60561.7 0 564404 58917.4 0 562519 57277.3 0 560687 55641.2 0 558909 54009 0 557184 52380.7 0 555511 50756 0 553891 49135 0 552324 47517.4 0 550809 45903.1 0 549347 44292.1 0 547937 42684.2 0 546579 41079.2 0 545273 39477.2 0 544019 37877.9 0 542817 36281.2 0 541666 34687 0 540567 33095.2 0 539519 31505.7 0 538523 29918.3 0 537578 28332.9 0 536685 26749.5 0 535842 25167.8 0 535051 23587.7 0 534310 22009.2 0 533621 20432.1 0 532982 18856.2 0 532394 17281.5 0 531857 15707.9 0 531371 14135.1 0 530936 12563.1 0 530551 10991.8 0 530217 9420.94 0 529933 7850.52 0 529700 6280.37 0 529517 4710.38 0 529385 3140.4 0 529304 1570.31 0 529273 0 0 982364 232509 0 974602 230371 0 966920 228230 0 959317 226087 0 951794 223943 0 944350 221797 0 936984 219651 0 929696 217506 0 922487 215361 0 915355 213217 0 908300 211075 0 901322 208935 0 894421 206797 0 887596 204662 0 880847 202530 0 874174 200402 0 867575 198278 0 861052 196158 0 854603 194042 0 848229 191931 0 841928 189825 0 835700 187724 0 829546 185629 0 823464 183540 0 817455 181456 0 811517 179378 0 805651 177306 0 799857 175241 0 794133 173182 0 788480 171130 0 782897 169085 0 777384 167047 0 771940 165015 0 766566 162991 0 761260 160974 0 756023 158964 0 750854 156961 0 745752 154965 0 740718 152978 0 735750 150997 0 730850 149024 0 726016 147058 0 721247 145100 0 716545 143150 0 711907 141207 0 707335 139272 0 702827 137344 0 698384 135423 0 694005 133511 0 689689 131605 0 685437 129708 0 681248 127817 0 677121 125935 0 673057 124059 0 669055 122191 0 665115 120330 0 661236 118477 0 657419 116630 0 653663 114791 0 649967 112959 0 646332 111134 0 642756 109316 0 639241 107505 0 635785 105701 0 632388 103903 0 629051 102113 0 625772 100328 0 622551 98550.9 0 619389 96779.7 0 616285 95014.9 0 613239 93256.4 0 610250 91504.2 0 607318 89758 0 604443 88017.9 0 601625 86283.6 0 598864 84555.3 0 596159 82832.6 0 593510 81115.6 0 590917 79404.2 0 588379 77698.1 0 585897 75997.5 0 583471 74302 0 581099 72611.7 0 578782 70926.4 0 576520 69246 0 574313 67570.5 0 572160 65899.6 0 570061 64233.4 0 568015 62571.6 0 566024 60914.2 0 564086 59261 0 562202 57612 0 560371 55967 0 558593 54325.9 0 556869 52688.6 0 555197 51055 0 553578 49425 0 552011 47798.4 0 550497 46175.2 0 549035 44555.1 0 547625 42938.2 0 546268 41324.2 0 544962 39713 0 543708 38104.6 0 542506 36498.8 0 541356 34895.5 0 540257 33294.5 0 539209 31695.8 0 538213 30099.2 0 537268 28504.6 0 536375 26911.8 0 535532 25320.8 0 534741 23731.4 0 534000 22143.6 0 533311 20557.1 0 532672 18971.8 0 532084 17387.6 0 531547 15804.5 0 531060 14222.2 0 530625 12640.7 0 530239 11059.8 0 529905 9479.35 0 529621 7899.28 0 529387 6319.46 0 529204 4739.75 0 529071 3160.02 0 528989 1580.14 0 528958 0 0 981882 233634 0 974122 231488 0 966442 229338 0 958841 227187 0 951319 225033 0 943877 222879 0 936513 220725 0 929227 218570 0 922019 216417 0 914889 214264 0 907836 212113 0 900861 209965 0 893962 207818 0 887139 205675 0 880392 203534 0 873721 201397 0 867125 199264 0 860603 197135 0 854157 195011 0 847784 192891 0 841486 190777 0 835260 188667 0 829108 186563 0 823029 184465 0 817022 182372 0 811087 180286 0 805223 178206 0 799431 176132 0 793709 174064 0 788059 172004 0 782478 169950 0 776967 167903 0 771526 165863 0 766154 163829 0 760850 161804 0 755615 159785 0 750448 157773 0 745349 155769 0 740316 153773 0 735351 151784 0 730453 149802 0 725621 147828 0 720855 145861 0 716154 143902 0 711519 141950 0 706949 140006 0 702443 138070 0 698002 136141 0 693625 134219 0 689311 132306 0 685061 130399 0 680874 128500 0 676749 126609 0 672687 124725 0 668687 122848 0 664749 120978 0 660872 119116 0 657056 117261 0 653302 115414 0 649608 113573 0 645974 111739 0 642401 109913 0 638887 108093 0 635433 106280 0 632038 104474 0 628702 102674 0 625424 100882 0 622205 99095.4 0 619045 97315.6 0 615942 95542.1 0 612897 93774.9 0 609909 92014 0 606979 90259.1 0 604106 88510.3 0 601289 86767.4 0 598529 85030.3 0 595825 83298.9 0 593177 81573.2 0 590585 79853 0 588049 78138.3 0 585568 76428.8 0 583143 74724.6 0 580772 73025.6 0 578457 71331.5 0 576196 69642.3 0 573989 67958 0 571837 66278.3 0 569739 64603.2 0 567694 62932.6 0 565704 61266.3 0 563767 59604.3 0 561883 57946.4 0 560053 56292.5 0 558276 54642.6 0 556552 52996.3 0 554881 51353.8 0 553262 49714.8 0 551696 48079.2 0 550182 46447 0 548721 44817.9 0 547311 43191.9 0 545954 41568.9 0 544649 39948.7 0 543395 38331.2 0 542194 36716.2 0 541044 35103.8 0 539945 33493.6 0 538898 31885.7 0 537902 30279.9 0 536957 28676 0 536063 27074 0 535221 25473.7 0 534429 23875 0 533689 22277.8 0 532999 20681.9 0 532360 19087.3 0 531772 17493.7 0 531235 15901.1 0 530748 14309.3 0 530312 12718.2 0 529926 11127.7 0 529591 9537.7 0 529306 7948.01 0 529072 6358.51 0 528889 4769.09 0 528756 3179.62 0 528673 1589.96 0 528641 0 0 981399 234760 0 973641 232604 0 965962 230446 0 958362 228286 0 950843 226124 0 943402 223961 0 936040 221798 0 928756 219635 0 921550 217472 0 914422 215311 0 907371 213151 0 900397 210994 0 893500 208839 0 886680 206686 0 879935 204537 0 873266 202392 0 866672 200250 0 860153 198113 0 853709 195979 0 847338 193851 0 841042 191728 0 834819 189610 0 828669 187497 0 822592 185390 0 816587 183289 0 810654 181194 0 804793 179105 0 799003 177022 0 793284 174946 0 787635 172876 0 782057 170814 0 776549 168758 0 771109 166709 0 765739 164668 0 760438 162633 0 755205 160606 0 750041 158586 0 744943 156573 0 739914 154568 0 734951 152570 0 730054 150579 0 725225 148596 0 720461 146621 0 715762 144653 0 711129 142693 0 706561 140740 0 702057 138795 0 697618 136858 0 693243 134928 0 688931 133005 0 684683 131090 0 680498 129183 0 676375 127282 0 672315 125390 0 668317 123504 0 664380 121626 0 660506 119756 0 656692 117892 0 652939 116036 0 649247 114186 0 645615 112344 0 642043 110509 0 638531 108680 0 635079 106859 0 631685 105044 0 628351 103236 0 625075 101434 0 621858 99639.5 0 618698 97851 0 615597 96068.9 0 612554 94293.1 0 609567 92523.4 0 606638 90759.9 0 603766 89002.4 0 600951 87250.7 0 598192 85505 0 595490 83764.9 0 592843 82030.5 0 590253 80301.5 0 587717 78578.1 0 585238 76859.9 0 582813 75146.9 0 580444 73439.1 0 578129 71736.3 0 575869 70038.3 0 573664 68345.2 0 571512 66656.7 0 569415 64972.8 0 567371 63293.3 0 565382 61618.2 0 563446 59947.4 0 561563 58280.6 0 559733 56617.8 0 557957 54958.9 0 556233 53303.8 0 554563 51652.3 0 552945 50004.4 0 551379 48359.8 0 549866 46718.6 0 548405 45080.5 0 546996 43445.5 0 545639 41813.4 0 544334 40184.1 0 543081 38557.5 0 541879 36933.5 0 540729 35311.9 0 539631 33692.6 0 538584 32075.5 0 537588 30460.5 0 536643 28847.4 0 535750 27236.1 0 534907 25626.5 0 534116 24018.5 0 533375 22412 0 532685 20806.7 0 532046 19202.6 0 531458 17599.6 0 530920 15997.5 0 530433 14396.3 0 529997 12795.7 0 529611 11195.6 0 529275 9596.01 0 528990 7996.69 0 528756 6397.53 0 528572 4798.41 0 528438 3199.2 0 528354 1599.78 0 528322 0 0 980914 235884 0 973157 233720 0 965480 231553 0 957882 229384 0 950364 227214 0 942925 225042 0 935565 222870 0 928283 220698 0 921079 218527 0 913953 216357 0 906904 214189 0 899933 212023 0 893038 209859 0 886219 207698 0 879476 205540 0 872809 203386 0 866218 201235 0 859701 199089 0 853259 196947 0 846891 194810 0 840597 192678 0 834376 190551 0 828228 188430 0 822153 186314 0 816151 184204 0 810220 182100 0 804361 180003 0 798574 177912 0 792857 175827 0 787210 173749 0 781634 171677 0 776128 169613 0 770691 167555 0 765324 165505 0 760025 163462 0 754794 161426 0 749631 159397 0 744536 157376 0 739509 155362 0 734548 153355 0 729654 151356 0 724826 149365 0 720065 147381 0 715368 145404 0 710737 143435 0 706171 141474 0 701670 139520 0 697233 137574 0 692859 135635 0 688550 133704 0 684303 131781 0 680120 129864 0 676000 127956 0 671941 126054 0 667945 124160 0 664011 122274 0 660137 120394 0 656326 118522 0 652575 116657 0 648884 114799 0 645254 112948 0 641684 111104 0 638174 109267 0 634723 107437 0 631331 105614 0 627998 103797 0 624724 101987 0 621508 100183 0 618350 98386 0 615251 96595.3 0 612208 94810.8 0 609224 93032.5 0 606296 91260.2 0 603425 89494 0 600611 87733.7 0 597854 85979.3 0 595153 84230.5 0 592507 82487.3 0 589918 80749.7 0 587384 79017.5 0 584905 77290.6 0 582482 75568.9 0 580114 73852.3 0 577800 72140.7 0 575541 70434 0 573336 68732.1 0 571186 67034.8 0 569089 65342.1 0 567047 63653.8 0 565058 61969.9 0 563122 60290.1 0 561240 58614.5 0 559412 56942.8 0 557636 55275.1 0 555913 53611 0 554243 51950.6 0 552625 50293.7 0 551060 48640.2 0 549548 46990 0 548087 45342.9 0 546679 43698.9 0 545322 42057.7 0 544017 40419.4 0 542765 38783.7 0 541563 37150.6 0 540414 35519.8 0 539315 33891.4 0 538268 32265.1 0 537273 30640.9 0 536328 29018.6 0 535434 27398.1 0 534592 25779.2 0 533800 24161.9 0 533060 22546 0 532370 20931.4 0 531730 19317.9 0 531142 17705.5 0 530604 16093.9 0 530116 14483.2 0 529680 12873.1 0 529293 11263.5 0 528957 9654.28 0 528672 8045.33 0 528437 6436.52 0 528252 4827.71 0 528118 3218.77 0 528034 1609.58 0 528000 0 0 980428 237008 0 972672 234836 0 964996 232660 0 957400 230482 0 949884 228303 0 942447 226123 0 935088 223942 0 927808 221762 0 920606 219582 0 913482 217403 0 906435 215226 0 899466 213051 0 892573 210879 0 885756 208709 0 879016 206542 0 872351 204379 0 865762 202220 0 859247 200065 0 852807 197915 0 846441 195769 0 840149 193628 0 833931 191493 0 827785 189362 0 821713 187238 0 815713 185119 0 809784 183007 0 803928 180901 0 798142 178801 0 792428 176707 0 78