<?xml version="1.0"?> 
<VTKFile type="StructuredGrid" version="0.1"> 
<StructuredGrid WholeExtent="0 127 0 127 0 0"> 
<Piece Extent="0 127 0 127 0 0"> 
<PointData>
<DataArray type="Float32" Name="|E|" format="ascii" NumberOfComponents="3"> 
-933958 1.00795e+06 0 -935297 1.01639e+06 0 -936646 1.02485e+06 0 -938007 1.03332e+06 0 -939380 1.04179e+06 0 -940764 1.05029e+06 0 -942160 1.05879e+06 0 -943567 1.0673e+06 0 -944986 1.07583e+06 0 -946416 1.08437e+06 0 -947859 1.09292e+06 0 -949313 1.10148e+06 0 -950779 1.11006e+06 0 -952258 1.11865e+06 0 -953748 1.12725e+06 0 -955250 1.13587e+06 0 -956765 1.14449e+06 0 -958292 1.15313e+06 0 -959831 1.16179e+06 0 -961382 1.17046e+06 0 -962946 1.17914e+06 0 -964522 1.18783e+06 0 -966111 1.19654e+06 0 -967713 1.20526e+06 0 -969328 1.214e+06 0 -970955 1.22274e+06 0 -972595 1.23151e+06 0 -974249 1.24029e+06 0 -975915 1.24908e+06 0 -977595 1.25788e+06 0 -979288 1.2667e+06 0 -980994 1.27554e+06 0 -982714 1.28439e+06 0 -984447 1.29326e+06 0 -986194 1.30214e+06 0 -987955 1.31103e+06 0 -989730 1.31994e+06 0 -991519 1.32887e+06 0 -993322 1.33781e+06 0 -995139 1.34677e+06 0 -996970 1.35575e+06 0 -998816 1.36474e+06 0 -1.00068e+06 1.37375e+06 0 -1.00255e+06 1.38277e+06 0 -1.00444e+06 1.39181e+06 0 -1.00635e+06 1.40087e+06 0 -1.00827e+06 1.40994e+06 0 -1.0102e+06 1.41903e+06 0 -1.01215e+06 1.42814e+06 0 -1.01412e+06 1.43727e+06 0 -1.0161e+06 1.44642e+06 0 -1.01809e+06 1.45558e+06 0 -1.02011e+06 1.46476e+06 0 -1.02213e+06 1.47396e+06 0 -1.02418e+06 1.48318e+06 0 -1.02624e+06 1.49242e+06 0 -1.02831e+06 1.50168e+06 0 -1.03041e+06 1.51096e+06 0 -1.03252e+06 1.52025e+06 0 -1.03464e+06 1.52957e+06 0 -1.03679e+06 1.53891e+06 0 -1.03895e+06 1.54827e+06 0 -1.04112e+06 1.55765e+06 0 -1.04332e+06 1.56705e+06 0 -1.04553e+06 1.57647e+06 0 -1.04776e+06 1.58591e+06 0 -1.05001e+06 1.59538e+06 0 -1.05227e+06 1.60487e+06 0 -1.05455e+06 1.61438e+06 0 -1.05686e+06 1.62391e+06 0 -1.05917e+06 1.63347e+06 0 -1.06151e+06 1.64305e+06 0 -1.06387e+06 1.65266e+06 0 -1.06624e+06 1.66229e+06 0 -1.06864e+06 1.67195e+06 0 -1.07105e+06 1.68163e+06 0 -1.07348e+06 1.69134e+06 0 -1.07593e+06 1.70107e+06 0 -1.0784e+06 1.71083e+06 0 -1.08089e+06 1.72062e+06 0 -1.0834e+06 1.73043e+06 0 -1.08592e+06 1.74028e+06 0 -1.08847e+06 1.75015e+06 0 -1.09104e+06 1.76005e+06 0 -1.09363e+06 1.76998e+06 0 -1.09623e+06 1.77994e+06 0 -1.09886e+06 1.78994e+06 0 -1.10151e+06 1.79996e+06 0 -1.10418e+06 1.81002e+06 0 -1.10687e+06 1.8201e+06 0 -1.10957e+06 1.83022e+06 0 -1.1123e+06 1.84038e+06 0 -1.11505e+06 1.85057e+06 0 -1.11782e+06 1.86079e+06 0 -1.12062e+06 1.87105e+06 0 -1.12343e+06 1.88135e+06 0 -1.12626e+06 1.89168e+06 0 -1.12911e+06 1.90205e+06 0 -1.13199e+06 1.91246e+06 0 -1.13488e+06 1.92291e+06 0 -1.1378e+06 1.93339e+06 0 -1.14073e+06 1.94392e+06 0 -1.14369e+06 1.95449e+06 0 -1.14667e+06 1.96511e+06 0 -1.14967e+06 1.97576e+06 0 -1.15268e+06 1.98646e+06 0 -1.15572e+06 1.99721e+06 0 -1.15878e+06 2.008e+06 0 -1.16186e+06 2.01884e+06 0 -1.16496e+06 2.02972e+06 0 -1.16808e+06 2.04066e+06 0 -1.17121e+06 2.05164e+06 0 -1.17437e+06 2.06268e+06 0 -1.17755e+06 2.07377e+06 0 -1.18074e+06 2.0849e+06 0 -1.18396e+06 2.0961e+06 0 -1.18719e+06 2.10735e+06 0 -1.19044e+06 2.11865e+06 0 -1.19371e+06 2.13001e+06 0 -1.19699e+06 2.14143e+06 0 -1.20029e+06 2.15291e+06 0 -1.20361e+06 2.16445e+06 0 -1.20694e+06 2.17606e+06 0 -1.21029e+06 2.18772e+06 0 -1.21366e+06 2.19945e+06 0 -1.21703e+06 2.21125e+06 0 -1.22042e+06 2.22311e+06 0 -1.22383e+06 2.23505e+06 0 -927598 1.01328e+06 0 -928938 1.02177e+06 0 -930289 1.03028e+06 0 -931651 1.03879e+06 0 -933025 1.04732e+06 0 -934411 1.05586e+06 0 -935808 1.06441e+06 0 -937216 1.07298e+06 0 -938637 1.08155e+06 0 -940069 1.09014e+06 0 -941513 1.09874e+06 0 -942969 1.10736e+06 0 -944437 1.11598e+06 0 -945917 1.12462e+06 0 -947409 1.13328e+06 0 -948914 1.14194e+06 0 -950430 1.15062e+06 0 -951959 1.15932e+06 0 -953500 1.16802e+06 0 -955053 1.17674e+06 0 -956619 1.18547e+06 0 -958198 1.19422e+06 0 -959789 1.20298e+06 0 -961393 1.21176e+06 0 -963010 1.22054e+06 0 -964640 1.22935e+06 0 -966282 1.23816e+06 0 -967938 1.247e+06 0 -969607 1.25584e+06 0 -971289 1.2647e+06 0 -972985 1.27358e+06 0 -974694 1.28247e+06 0 -976416 1.29138e+06 0 -978152 1.3003e+06 0 -979902 1.30923e+06 0 -981666 1.31819e+06 0 -983444 1.32716e+06 0 -985235 1.33614e+06 0 -987041 1.34514e+06 0 -988861 1.35416e+06 0 -990696 1.36319e+06 0 -992544 1.37224e+06 0 -994408 1.3813e+06 0 -996286 1.39039e+06 0 -998179 1.39949e+06 0 -1.00009e+06 1.4086e+06 0 -1.00201e+06 1.41774e+06 0 -1.00395e+06 1.42689e+06 0 -1.0059e+06 1.43606e+06 0 -1.00787e+06 1.44525e+06 0 -1.00985e+06 1.45446e+06 0 -1.01185e+06 1.46368e+06 0 -1.01387e+06 1.47293e+06 0 -1.0159e+06 1.48219e+06 0 -1.01795e+06 1.49147e+06 0 -1.02001e+06 1.50078e+06 0 -1.02209e+06 1.5101e+06 0 -1.02419e+06 1.51944e+06 0 -1.0263e+06 1.5288e+06 0 -1.02843e+06 1.53819e+06 0 -1.03058e+06 1.54759e+06 0 -1.03274e+06 1.55701e+06 0 -1.03493e+06 1.56646e+06 0 -1.03712e+06 1.57593e+06 0 -1.03934e+06 1.58542e+06 0 -1.04157e+06 1.59493e+06 0 -1.04382e+06 1.60447e+06 0 -1.04609e+06 1.61402e+06 0 -1.04838e+06 1.62361e+06 0 -1.05068e+06 1.63321e+06 0 -1.053e+06 1.64284e+06 0 -1.05534e+06 1.6525e+06 0 -1.0577e+06 1.66217e+06 0 -1.06008e+06 1.67188e+06 0 -1.06248e+06 1.68161e+06 0 -1.06489e+06 1.69137e+06 0 -1.06732e+06 1.70115e+06 0 -1.06978e+06 1.71096e+06 0 -1.07225e+06 1.72079e+06 0 -1.07474e+06 1.73066e+06 0 -1.07725e+06 1.74055e+06 0 -1.07978e+06 1.75047e+06 0 -1.08233e+06 1.76043e+06 0 -1.0849e+06 1.77041e+06 0 -1.08749e+06 1.78042e+06 0 -1.0901e+06 1.79046e+06 0 -1.09273e+06 1.80054e+06 0 -1.09537e+06 1.81064e+06 0 -1.09804e+06 1.82078e+06 0 -1.10073e+06 1.83096e+06 0 -1.10344e+06 1.84116e+06 0 -1.10617e+06 1.8514e+06 0 -1.10892e+06 1.86168e+06 0 -1.11169e+06 1.87199e+06 0 -1.11448e+06 1.88234e+06 0 -1.11729e+06 1.89273e+06 0 -1.12012e+06 1.90315e+06 0 -1.12297e+06 1.91361e+06 0 -1.12584e+06 1.92411e+06 0 -1.12873e+06 1.93466e+06 0 -1.13164e+06 1.94524e+06 0 -1.13457e+06 1.95586e+06 0 -1.13752e+06 1.96653e+06 0 -1.14049e+06 1.97724e+06 0 -1.14349e+06 1.988e+06 0 -1.1465e+06 1.9988e+06 0 -1.14953e+06 2.00964e+06 0 -1.15258e+06 2.02054e+06 0 -1.15565e+06 2.03148e+06 0 -1.15873e+06 2.04247e+06 0 -1.16184e+06 2.05351e+06 0 -1.16497e+06 2.0646e+06 0 -1.16811e+06 2.07574e+06 0 -1.17127e+06 2.08694e+06 0 -1.17445e+06 2.09819e+06 0 -1.17765e+06 2.10949e+06 0 -1.18087e+06 2.12085e+06 0 -1.1841e+06 2.13227e+06 0 -1.18735e+06 2.14375e+06 0 -1.19061e+06 2.15528e+06 0 -1.19389e+06 2.16688e+06 0 -1.19718e+06 2.17854e+06 0 -1.20049e+06 2.19026e+06 0 -1.20381e+06 2.20205e+06 0 -1.20715e+06 2.2139e+06 0 -1.2105e+06 2.22582e+06 0 -1.21386e+06 2.23781e+06 0 -1.21723e+06 2.24987e+06 0 -921224 1.01861e+06 0 -922564 1.02715e+06 0 -923916 1.03571e+06 0 -925280 1.04427e+06 0 -926655 1.05285e+06 0 -928042 1.06144e+06 0 -929440 1.07004e+06 0 -930850 1.07865e+06 0 -932272 1.08728e+06 0 -933706 1.09592e+06 0 -935152 1.10457e+06 0 -936609 1.11324e+06 0 -938079 1.12192e+06 0 -939560 1.13061e+06 0 -941054 1.13931e+06 0 -942560 1.14803e+06 0 -944078 1.15676e+06 0 -945609 1.1655e+06 0 -947152 1.17426e+06 0 -948707 1.18303e+06 0 -950275 1.19182e+06 0 -951856 1.20062e+06 0 -953449 1.20943e+06 0 -955055 1.21826e+06 0 -956674 1.2271e+06 0 -958306 1.23596e+06 0 -959951 1.24483e+06 0 -961609 1.25372e+06 0 -963280 1.26262e+06 0 -964964 1.27153e+06 0 -966662 1.28046e+06 0 -968374 1.28941e+06 0 -970099 1.29837e+06 0 -971837 1.30735e+06 0 -973590 1.31634e+06 0 -975356 1.32535e+06 0 -977136 1.33438e+06 0 -978931 1.34342e+06 0 -980739 1.35248e+06 0 -982562 1.36155e+06 0 -984399 1.37064e+06 0 -986251 1.37975e+06 0 -988118 1.38887e+06 0 -989999 1.39802e+06 0 -991895 1.40718e+06 0 -993805 1.41635e+06 0 -995731 1.42555e+06 0 -997673 1.43476e+06 0 -999629 1.44399e+06 0 -1.0016e+06 1.45324e+06 0 -1.00359e+06 1.46251e+06 0 -1.00559e+06 1.4718e+06 0 -1.00761e+06 1.48111e+06 0 -1.00965e+06 1.49043e+06 0 -1.0117e+06 1.49978e+06 0 -1.01376e+06 1.50915e+06 0 -1.01585e+06 1.51853e+06 0 -1.01795e+06 1.52794e+06 0 -1.02006e+06 1.53737e+06 0 -1.0222e+06 1.54682e+06 0 -1.02435e+06 1.55629e+06 0 -1.02651e+06 1.56578e+06 0 -1.0287e+06 1.57529e+06 0 -1.0309e+06 1.58483e+06 0 -1.03312e+06 1.59439e+06 0 -1.03535e+06 1.60397e+06 0 -1.03761e+06 1.61357e+06 0 -1.03988e+06 1.6232e+06 0 -1.04217e+06 1.63285e+06 0 -1.04447e+06 1.64253e+06 0 -1.0468e+06 1.65223e+06 0 -1.04914e+06 1.66196e+06 0 -1.0515e+06 1.67171e+06 0 -1.05388e+06 1.68149e+06 0 -1.05628e+06 1.69129e+06 0 -1.0587e+06 1.70112e+06 0 -1.06113e+06 1.71098e+06 0 -1.06359e+06 1.72087e+06 0 -1.06606e+06 1.73078e+06 0 -1.06856e+06 1.74072e+06 0 -1.07107e+06 1.7507e+06 0 -1.0736e+06 1.7607e+06 0 -1.07615e+06 1.77073e+06 0 -1.07872e+06 1.78079e+06 0 -1.08131e+06 1.79088e+06 0 -1.08392e+06 1.80101e+06 0 -1.08655e+06 1.81117e+06 0 -1.08919e+06 1.82136e+06 0 -1.09186e+06 1.83158e+06 0 -1.09455e+06 1.84184e+06 0 -1.09726e+06 1.85213e+06 0 -1.09999e+06 1.86246e+06 0 -1.10273e+06 1.87282e+06 0 -1.1055e+06 1.88322e+06 0 -1.10829e+06 1.89366e+06 0 -1.11109e+06 1.90414e+06 0 -1.11392e+06 1.91465e+06 0 -1.11677e+06 1.92521e+06 0 -1.11963e+06 1.9358e+06 0 -1.12252e+06 1.94644e+06 0 -1.12543e+06 1.95712e+06 0 -1.12835e+06 1.96784e+06 0 -1.13129e+06 1.9786e+06 0 -1.13426e+06 1.98941e+06 0 -1.13724e+06 2.00026e+06 0 -1.14024e+06 2.01116e+06 0 -1.14326e+06 2.02211e+06 0 -1.1463e+06 2.03311e+06 0 -1.14936e+06 2.04415e+06 0 -1.15244e+06 2.05525e+06 0 -1.15553e+06 2.06639e+06 0 -1.15864e+06 2.07759e+06 0 -1.16177e+06 2.08884e+06 0 -1.16492e+06 2.10015e+06 0 -1.16808e+06 2.11151e+06 0 -1.17126e+06 2.12292e+06 0 -1.17446e+06 2.1344e+06 0 -1.17767e+06 2.14593e+06 0 -1.18089e+06 2.15752e+06 0 -1.18413e+06 2.16917e+06 0 -1.18739e+06 2.18089e+06 0 -1.19066e+06 2.19267e+06 0 -1.19394e+06 2.20451e+06 0 -1.19723e+06 2.21642e+06 0 -1.20054e+06 2.22839e+06 0 -1.20385e+06 2.24044e+06 0 -1.20718e+06 2.25255e+06 0 -1.21051e+06 2.26474e+06 0 -914834 1.02395e+06 0 -916176 1.03254e+06 0 -917529 1.04114e+06 0 -918894 1.04976e+06 0 -920270 1.05838e+06 0 -921658 1.06702e+06 0 -923057 1.07567e+06 0 -924469 1.08434e+06 0 -925892 1.09301e+06 0 -927327 1.1017e+06 0 -928774 1.11041e+06 0 -930233 1.11912e+06 0 -931704 1.12785e+06 0 -933187 1.13659e+06 0 -934682 1.14535e+06 0 -936190 1.15412e+06 0 -937709 1.1629e+06 0 -939242 1.1717e+06 0 -940786 1.18051e+06 0 -942343 1.18933e+06 0 -943913 1.19817e+06 0 -945495 1.20702e+06 0 -947091 1.21589e+06 0 -948699 1.22477e+06 0 -950319 1.23367e+06 0 -951953 1.24258e+06 0 -953600 1.2515e+06 0 -955260 1.26044e+06 0 -956934 1.2694e+06 0 -958620 1.27837e+06 0 -960320 1.28736e+06 0 -962034 1.29636e+06 0 -963761 1.30538e+06 0 -965502 1.31441e+06 0 -967257 1.32346e+06 0 -969026 1.33253e+06 0 -970808 1.34161e+06 0 -972605 1.35071e+06 0 -974416 1.35982e+06 0 -976242 1.36896e+06 0 -978081 1.37811e+06 0 -979936 1.38727e+06 0 -981805 1.39646e+06 0 -983688 1.40566e+06 0 -985587 1.41488e+06 0 -987501 1.42412e+06 0 -989429 1.43337e+06 0 -991373 1.44265e+06 0 -993332 1.45194e+06 0 -995307 1.46125e+06 0 -997297 1.47058e+06 0 -999303 1.47993e+06 0 -1.00133e+06 1.4893e+06 0 -1.00336e+06 1.49869e+06 0 -1.00542e+06 1.5081e+06 0 -1.00749e+06 1.51753e+06 0 -1.00957e+06 1.52699e+06 0 -1.01168e+06 1.53646e+06 0 -1.01379e+06 1.54595e+06 0 -1.01593e+06 1.55547e+06 0 -1.01808e+06 1.565e+06 0 -1.02025e+06 1.57456e+06 0 -1.02244e+06 1.58414e+06 0 -1.02464e+06 1.59375e+06 0 -1.02686e+06 1.60338e+06 0 -1.0291e+06 1.61303e+06 0 -1.03136e+06 1.6227e+06 0 -1.03363e+06 1.6324e+06 0 -1.03592e+06 1.64212e+06 0 -1.03823e+06 1.65187e+06 0 -1.04056e+06 1.66165e+06 0 -1.04291e+06 1.67144e+06 0 -1.04527e+06 1.68127e+06 0 -1.04765e+06 1.69112e+06 0 -1.05005e+06 1.701e+06 0 -1.05247e+06 1.71091e+06 0 -1.05491e+06 1.72084e+06 0 -1.05736e+06 1.7308e+06 0 -1.05984e+06 1.74079e+06 0 -1.06233e+06 1.75082e+06 0 -1.06484e+06 1.76087e+06 0 -1.06738e+06 1.77095e+06 0 -1.06993e+06 1.78106e+06 0 -1.0725e+06 1.7912e+06 0 -1.07509e+06 1.80138e+06 0 -1.07769e+06 1.81158e+06 0 -1.08032e+06 1.82182e+06 0 -1.08297e+06 1.8321e+06 0 -1.08564e+06 1.84241e+06 0 -1.08832e+06 1.85275e+06 0 -1.09103e+06 1.86313e+06 0 -1.09375e+06 1.87354e+06 0 -1.0965e+06 1.88399e+06 0 -1.09926e+06 1.89448e+06 0 -1.10204e+06 1.90501e+06 0 -1.10485e+06 1.91558e+06 0 -1.10767e+06 1.92619e+06 0 -1.11051e+06 1.93683e+06 0 -1.11337e+06 1.94752e+06 0 -1.11625e+06 1.95825e+06 0 -1.11915e+06 1.96903e+06 0 -1.12207e+06 1.97984e+06 0 -1.125e+06 1.99071e+06 0 -1.12796e+06 2.00161e+06 0 -1.13093e+06 2.01257e+06 0 -1.13392e+06 2.02357e+06 0 -1.13693e+06 2.03462e+06 0 -1.13996e+06 2.04572e+06 0 -1.143e+06 2.05686e+06 0 -1.14607e+06 2.06806e+06 0 -1.14915e+06 2.07932e+06 0 -1.15224e+06 2.09062e+06 0 -1.15535e+06 2.10198e+06 0 -1.15848e+06 2.11339e+06 0 -1.16163e+06 2.12486e+06 0 -1.16478e+06 2.13639e+06 0 -1.16796e+06 2.14798e+06 0 -1.17115e+06 2.15962e+06 0 -1.17435e+06 2.17133e+06 0 -1.17756e+06 2.1831e+06 0 -1.18079e+06 2.19493e+06 0 -1.18403e+06 2.20683e+06 0 -1.18728e+06 2.21879e+06 0 -1.19054e+06 2.23082e+06 0 -1.19381e+06 2.24292e+06 0 -1.19709e+06 2.25509e+06 0 -1.20038e+06 2.26733e+06 0 -1.20368e+06 2.27964e+06 0 -908430 1.02929e+06 0 -909772 1.03793e+06 0 -911126 1.04658e+06 0 -912492 1.05525e+06 0 -913869 1.06392e+06 0 -915258 1.07261e+06 0 -916659 1.08131e+06 0 -918072 1.09003e+06 0 -919496 1.09875e+06 0 -920932 1.10749e+06 0 -922380 1.11625e+06 0 -923840 1.12501e+06 0 -925313 1.13379e+06 0 -926797 1.14259e+06 0 -928294 1.15139e+06 0 -929802 1.16021e+06 0 -931324 1.16905e+06 0 -932857 1.1779e+06 0 -934403 1.18676e+06 0 -935962 1.19564e+06 0 -937533 1.20453e+06 0 -939117 1.21343e+06 0 -940714 1.22236e+06 0 -942324 1.23129e+06 0 -943946 1.24024e+06 0 -945582 1.24921e+06 0 -947231 1.25819e+06 0 -948893 1.26718e+06 0 -950568 1.27619e+06 0 -952256 1.28522e+06 0 -953959 1.29426e+06 0 -955674 1.30332e+06 0 -957403 1.31239e+06 0 -959147 1.32148e+06 0 -960903 1.33059e+06 0 -962674 1.33971e+06 0 -964459 1.34885e+06 0 -966258 1.35801e+06 0 -968071 1.36718e+06 0 -969899 1.37637e+06 0 -971741 1.38558e+06 0 -973598 1.39481e+06 0 -975469 1.40405e+06 0 -977355 1.41331e+06 0 -979256 1.42259e+06 0 -981172 1.43189e+06 0 -983103 1.44121e+06 0 -985050 1.45054e+06 0 -987011 1.4599e+06 0 -988989 1.46927e+06 0 -990981 1.47867e+06 0 -992990 1.48808e+06 0 -995014 1.49751e+06 0 -997054 1.50697e+06 0 -999110 1.51644e+06 0 -1.00118e+06 1.52594e+06 0 -1.00327e+06 1.53545e+06 0 -1.00538e+06 1.54499e+06 0 -1.0075e+06 1.55455e+06 0 -1.00964e+06 1.56413e+06 0 -1.01179e+06 1.57374e+06 0 -1.01396e+06 1.58336e+06 0 -1.01615e+06 1.59301e+06 0 -1.01836e+06 1.60269e+06 0 -1.02058e+06 1.61238e+06 0 -1.02282e+06 1.6221e+06 0 -1.02508e+06 1.63185e+06 0 -1.02735e+06 1.64162e+06 0 -1.02965e+06 1.65141e+06 0 -1.03196e+06 1.66123e+06 0 -1.03429e+06 1.67108e+06 0 -1.03663e+06 1.68095e+06 0 -1.039e+06 1.69085e+06 0 -1.04138e+06 1.70078e+06 0 -1.04378e+06 1.71073e+06 0 -1.0462e+06 1.72071e+06 0 -1.04864e+06 1.73072e+06 0 -1.0511e+06 1.74076e+06 0 -1.05357e+06 1.75083e+06 0 -1.05607e+06 1.76093e+06 0 -1.05858e+06 1.77106e+06 0 -1.06111e+06 1.78122e+06 0 -1.06366e+06 1.79141e+06 0 -1.06623e+06 1.80164e+06 0 -1.06882e+06 1.81189e+06 0 -1.07143e+06 1.82218e+06 0 -1.07405e+06 1.83251e+06 0 -1.0767e+06 1.84286e+06 0 -1.07936e+06 1.85326e+06 0 -1.08205e+06 1.86369e+06 0 -1.08475e+06 1.87415e+06 0 -1.08747e+06 1.88466e+06 0 -1.09021e+06 1.8952e+06 0 -1.09297e+06 1.90578e+06 0 -1.09575e+06 1.91639e+06 0 -1.09854e+06 1.92705e+06 0 -1.10136e+06 1.93775e+06 0 -1.1042e+06 1.94849e+06 0 -1.10705e+06 1.95927e+06 0 -1.10992e+06 1.9701e+06 0 -1.11281e+06 1.98097e+06 0 -1.11572e+06 1.99188e+06 0 -1.11865e+06 2.00284e+06 0 -1.12159e+06 2.01385e+06 0 -1.12455e+06 2.0249e+06 0 -1.12753e+06 2.036e+06 0 -1.13053e+06 2.04716e+06 0 -1.13354e+06 2.05836e+06 0 -1.13657e+06 2.06961e+06 0 -1.13962e+06 2.08091e+06 0 -1.14268e+06 2.09227e+06 0 -1.14576e+06 2.10368e+06 0 -1.14885e+06 2.11515e+06 0 -1.15196e+06 2.12667e+06 0 -1.15508e+06 2.13826e+06 0 -1.15822e+06 2.1499e+06 0 -1.16137e+06 2.16159e+06 0 -1.16453e+06 2.17335e+06 0 -1.16771e+06 2.18518e+06 0 -1.1709e+06 2.19706e+06 0 -1.17409e+06 2.20901e+06 0 -1.1773e+06 2.22103e+06 0 -1.18052e+06 2.23311e+06 0 -1.18375e+06 2.24526e+06 0 -1.18698e+06 2.25748e+06 0 -1.19023e+06 2.26977e+06 0 -1.19348e+06 2.28213e+06 0 -1.19673e+06 2.29457e+06 0 -902011 1.03464e+06 0 -903354 1.04333e+06 0 -904709 1.05203e+06 0 -906076 1.06074e+06 0 -907454 1.06947e+06 0 -908843 1.0782e+06 0 -910245 1.08696e+06 0 -911658 1.09572e+06 0 -913084 1.1045e+06 0 -914521 1.11329e+06 0 -915970 1.12209e+06 0 -917431 1.13091e+06 0 -918905 1.13974e+06 0 -920390 1.14859e+06 0 -921888 1.15744e+06 0 -923398 1.16632e+06 0 -924921 1.1752e+06 0 -926456 1.18411e+06 0 -928003 1.19302e+06 0 -929563 1.20195e+06 0 -931136 1.21089e+06 0 -932721 1.21985e+06 0 -934319 1.22883e+06 0 -935931 1.23782e+06 0 -937555 1.24682e+06 0 -939192 1.25584e+06 0 -940842 1.26487e+06 0 -942506 1.27393e+06 0 -944183 1.28299e+06 0 -945873 1.29207e+06 0 -947577 1.30117e+06 0 -949294 1.31028e+06 0 -951025 1.31942e+06 0 -952770 1.32856e+06 0 -954529 1.33773e+06 0 -956302 1.34691e+06 0 -958089 1.3561e+06 0 -959890 1.36532e+06 0 -961705 1.37455e+06 0 -963534 1.3838e+06 0 -965379 1.39307e+06 0 -967237 1.40235e+06 0 -969111 1.41166e+06 0 -970999 1.42098e+06 0 -972902 1.43032e+06 0 -974820 1.43968e+06 0 -976753 1.44905e+06 0 -978702 1.45845e+06 0 -980666 1.46787e+06 0 -982645 1.47731e+06 0 -984640 1.48676e+06 0 -986650 1.49624e+06 0 -988677 1.50574e+06 0 -990719 1.51525e+06 0 -992777 1.52479e+06 0 -994852 1.53435e+06 0 -996942 1.54394e+06 0 -999049 1.55354e+06 0 -1.00117e+06 1.56317e+06 0 -1.00331e+06 1.57281e+06 0 -1.00547e+06 1.58249e+06 0 -1.00764e+06 1.59218e+06 0 -1.00983e+06 1.6019e+06 0 -1.01204e+06 1.61164e+06 0 -1.01427e+06 1.62141e+06 0 -1.01651e+06 1.6312e+06 0 -1.01877e+06 1.64101e+06 0 -1.02104e+06 1.65085e+06 0 -1.02334e+06 1.66072e+06 0 -1.02565e+06 1.67061e+06 0 -1.02798e+06 1.68053e+06 0 -1.03033e+06 1.69048e+06 0 -1.03269e+06 1.70045e+06 0 -1.03508e+06 1.71045e+06 0 -1.03748e+06 1.72048e+06 0 -1.0399e+06 1.73054e+06 0 -1.04234e+06 1.74063e+06 0 -1.04479e+06 1.75074e+06 0 -1.04727e+06 1.76089e+06 0 -1.04976e+06 1.77107e+06 0 -1.05227e+06 1.78128e+06 0 -1.0548e+06 1.79152e+06 0 -1.05735e+06 1.80179e+06 0 -1.05992e+06 1.81209e+06 0 -1.06251e+06 1.82243e+06 0 -1.06511e+06 1.83281e+06 0 -1.06774e+06 1.84322e+06 0 -1.07038e+06 1.85366e+06 0 -1.07304e+06 1.86414e+06 0 -1.07572e+06 1.87465e+06 0 -1.07842e+06 1.88521e+06 0 -1.08113e+06 1.8958e+06 0 -1.08387e+06 1.90643e+06 0 -1.08662e+06 1.91709e+06 0 -1.0894e+06 1.9278e+06 0 -1.09219e+06 1.93855e+06 0 -1.095e+06 1.94934e+06 0 -1.09782e+06 1.96018e+06 0 -1.10067e+06 1.97106e+06 0 -1.10353e+06 1.98198e+06 0 -1.10641e+06 1.99294e+06 0 -1.10931e+06 2.00395e+06 0 -1.11222e+06 2.01501e+06 0 -1.11516e+06 2.02612e+06 0 -1.11811e+06 2.03727e+06 0 -1.12107e+06 2.04847e+06 0 -1.12405e+06 2.05973e+06 0 -1.12705e+06 2.07103e+06 0 -1.13007e+06 2.08239e+06 0 -1.13309e+06 2.0938e+06 0 -1.13614e+06 2.10526e+06 0 -1.1392e+06 2.11678e+06 0 -1.14227e+06 2.12836e+06 0 -1.14536e+06 2.13999e+06 0 -1.14846e+06 2.15168e+06 0 -1.15157e+06 2.16343e+06 0 -1.15469e+06 2.17524e+06 0 -1.15783e+06 2.18712e+06 0 -1.16097e+06 2.19906e+06 0 -1.16413e+06 2.21106e+06 0 -1.1673e+06 2.22312e+06 0 -1.17047e+06 2.23526e+06 0 -1.17366e+06 2.24746e+06 0 -1.17685e+06 2.25973e+06 0 -1.18004e+06 2.27207e+06 0 -1.18324e+06 2.28449e+06 0 -1.18645e+06 2.29697e+06 0 -1.18966e+06 2.30953e+06 0 -895577 1.03999e+06 0 -896921 1.04873e+06 0 -898276 1.05748e+06 0 -899644 1.06624e+06 0 -901022 1.07501e+06 0 -902413 1.0838e+06 0 -903815 1.0926e+06 0 -905230 1.10142e+06 0 -906656 1.11025e+06 0 -908094 1.11909e+06 0 -909544 1.12794e+06 0 -911006 1.13681e+06 0 -912480 1.14569e+06 0 -913967 1.15459e+06 0 -915466 1.1635e+06 0 -916977 1.17243e+06 0 -918500 1.18136e+06 0 -920036 1.19032e+06 0 -921585 1.19929e+06 0 -923146 1.20827e+06 0 -924720 1.21727e+06 0 -926307 1.22628e+06 0 -927906 1.23531e+06 0 -929519 1.24435e+06 0 -931144 1.25341e+06 0 -932783 1.26248e+06 0 -934435 1.27157e+06 0 -936100 1.28068e+06 0 -937778 1.2898e+06 0 -939470 1.29894e+06 0 -941175 1.30809e+06 0 -942894 1.31726e+06 0 -944627 1.32645e+06 0 -946373 1.33565e+06 0 -948134 1.34487e+06 0 -949908 1.35411e+06 0 -951697 1.36337e+06 0 -953499 1.37264e+06 0 -955316 1.38193e+06 0 -957148 1.39124e+06 0 -958993 1.40056e+06 0 -960854 1.40991e+06 0 -962729 1.41927e+06 0 -964619 1.42865e+06 0 -966524 1.43805e+06 0 -968444 1.44747e+06 0 -970379 1.45691e+06 0 -972329 1.46637e+06 0 -974295 1.47585e+06 0 -976276 1.48535e+06 0 -978273 1.49487e+06 0 -980285 1.50441e+06 0 -982313 1.51397e+06 0 -984357 1.52356e+06 0 -986417 1.53316e+06 0 -988493 1.54279e+06 0 -990585 1.55243e+06 0 -992694 1.5621e+06 0 -994819 1.5718e+06 0 -996961 1.58151e+06 0 -999119 1.59125e+06 0 -1.00129e+06 1.60101e+06 0 -1.00349e+06 1.6108e+06 0 -1.00569e+06 1.62061e+06 0 -1.00792e+06 1.63045e+06 0 -1.01016e+06 1.64031e+06 0 -1.01242e+06 1.6502e+06 0 -1.0147e+06 1.66011e+06 0 -1.017e+06 1.67005e+06 0 -1.01931e+06 1.68001e+06 0 -1.02164e+06 1.69e+06 0 -1.02399e+06 1.70002e+06 0 -1.02635e+06 1.71007e+06 0 -1.02874e+06 1.72015e+06 0 -1.03114e+06 1.73025e+06 0 -1.03356e+06 1.74039e+06 0 -1.036e+06 1.75055e+06 0 -1.03845e+06 1.76075e+06 0 -1.04092e+06 1.77097e+06 0 -1.04342e+06 1.78123e+06 0 -1.04593e+06 1.79152e+06 0 -1.04846e+06 1.80184e+06 0 -1.051e+06 1.81219e+06 0 -1.05357e+06 1.82258e+06 0 -1.05615e+06 1.833e+06 0 -1.05875e+06 1.84346e+06 0 -1.06137e+06 1.85395e+06 0 -1.06401e+06 1.86448e+06 0 -1.06667e+06 1.87504e+06 0 -1.06934e+06 1.88565e+06 0 -1.07204e+06 1.89629e+06 0 -1.07475e+06 1.90697e+06 0 -1.07748e+06 1.91768e+06 0 -1.08022e+06 1.92844e+06 0 -1.08299e+06 1.93924e+06 0 -1.08577e+06 1.95008e+06 0 -1.08857e+06 1.96097e+06 0 -1.09139e+06 1.9719e+06 0 -1.09422e+06 1.98287e+06 0 -1.09708e+06 1.99388e+06 0 -1.09995e+06 2.00494e+06 0 -1.10283e+06 2.01605e+06 0 -1.10574e+06 2.02721e+06 0 -1.10865e+06 2.03841e+06 0 -1.11159e+06 2.04967e+06 0 -1.11454e+06 2.06097e+06 0 -1.11751e+06 2.07233e+06 0 -1.12049e+06 2.08374e+06 0 -1.12348e+06 2.0952e+06 0 -1.12649e+06 2.10671e+06 0 -1.12952e+06 2.11828e+06 0 -1.13255e+06 2.12991e+06 0 -1.1356e+06 2.14159e+06 0 -1.13867e+06 2.15334e+06 0 -1.14174e+06 2.16514e+06 0 -1.14483e+06 2.177e+06 0 -1.14792e+06 2.18893e+06 0 -1.15103e+06 2.20091e+06 0 -1.15414e+06 2.21296e+06 0 -1.15727e+06 2.22508e+06 0 -1.1604e+06 2.23727e+06 0 -1.16354e+06 2.24952e+06 0 -1.16668e+06 2.26184e+06 0 -1.16983e+06 2.27423e+06 0 -1.17299e+06 2.28669e+06 0 -1.17615e+06 2.29923e+06 0 -1.17931e+06 2.31184e+06 0 -1.18247e+06 2.32452e+06 0 -889128 1.04534e+06 0 -890473 1.05413e+06 0 -891829 1.06293e+06 0 -893196 1.07174e+06 0 -894576 1.08057e+06 0 -895967 1.0894e+06 0 -897370 1.09826e+06 0 -898785 1.10712e+06 0 -900212 1.116e+06 0 -901650 1.12489e+06 0 -903101 1.1338e+06 0 -904564 1.14272e+06 0 -906039 1.15165e+06 0 -907526 1.1606e+06 0 -909026 1.16956e+06 0 -910538 1.17854e+06 0 -912063 1.18753e+06 0 -913600 1.19654e+06 0 -915149 1.20556e+06 0 -916711 1.21459e+06 0 -918286 1.22365e+06 0 -919874 1.23271e+06 0 -921475 1.24179e+06 0 -923088 1.25089e+06 0 -924715 1.26e+06 0 -926355 1.26913e+06 0 -928008 1.27828e+06 0 -929674 1.28744e+06 0 -931353 1.29662e+06 0 -933047 1.30581e+06 0 -934753 1.31502e+06 0 -936474 1.32425e+06 0 -938208 1.33349e+06 0 -939955 1.34275e+06 0 -941717 1.35203e+06 0 -943493 1.36132e+06 0 -945283 1.37064e+06 0 -947087 1.37997e+06 0 -948905 1.38932e+06 0 -950738 1.39869e+06 0 -952586 1.40807e+06 0 -954448 1.41748e+06 0 -956324 1.4269e+06 0 -958216 1.43634e+06 0 -960122 1.4458e+06 0 -962044 1.45529e+06 0 -963980 1.46479e+06 0 -965932 1.47431e+06 0 -967899 1.48385e+06 0 -969881 1.49341e+06 0 -971879 1.503e+06 0 -973893 1.5126e+06 0 -975923 1.52223e+06 0 -977968 1.53187e+06 0 -980029 1.54154e+06 0 -982107 1.55123e+06 0 -984200 1.56095e+06 0 -986310 1.57068e+06 0 -988436 1.58044e+06 0 -990579 1.59023e+06 0 -992738 1.60003e+06 0 -994914 1.60987e+06 0 -997107 1.61972e+06 0 -999316 1.6296e+06 0 -1.00154e+06 1.63951e+06 0 -1.00379e+06 1.64944e+06 0 -1.00605e+06 1.6594e+06 0 -1.00832e+06 1.66938e+06 0 -1.01062e+06 1.67939e+06 0 -1.01293e+06 1.68943e+06 0 -1.01526e+06 1.6995e+06 0 -1.01761e+06 1.70959e+06 0 -1.01998e+06 1.71971e+06 0 -1.02236e+06 1.72986e+06 0 -1.02476e+06 1.74004e+06 0 -1.02718e+06 1.75026e+06 0 -1.02961e+06 1.7605e+06 0 -1.03207e+06 1.77077e+06 0 -1.03454e+06 1.78107e+06 0 -1.03703e+06 1.79141e+06 0 -1.03954e+06 1.80178e+06 0 -1.04206e+06 1.81218e+06 0 -1.04461e+06 1.82262e+06 0 -1.04717e+06 1.83309e+06 0 -1.04975e+06 1.84359e+06 0 -1.05235e+06 1.85413e+06 0 -1.05496e+06 1.86471e+06 0 -1.05759e+06 1.87532e+06 0 -1.06025e+06 1.88597e+06 0 -1.06291e+06 1.89666e+06 0 -1.0656e+06 1.90739e+06 0 -1.06831e+06 1.91816e+06 0 -1.07103e+06 1.92897e+06 0 -1.07377e+06 1.93982e+06 0 -1.07652e+06 1.95071e+06 0 -1.0793e+06 1.96164e+06 0 -1.08209e+06 1.97262e+06 0 -1.0849e+06 1.98364e+06 0 -1.08772e+06 1.99471e+06 0 -1.09056e+06 2.00582e+06 0 -1.09342e+06 2.01698e+06 0 -1.09629e+06 2.02818e+06 0 -1.09918e+06 2.03944e+06 0 -1.10208e+06 2.05074e+06 0 -1.105e+06 2.0621e+06 0 -1.10794e+06 2.0735e+06 0 -1.11088e+06 2.08496e+06 0 -1.11385e+06 2.09647e+06 0 -1.11682e+06 2.10804e+06 0 -1.11981e+06 2.11966e+06 0 -1.12281e+06 2.13133e+06 0 -1.12583e+06 2.14307e+06 0 -1.12885e+06 2.15486e+06 0 -1.13189e+06 2.16671e+06 0 -1.13493e+06 2.17862e+06 0 -1.13799e+06 2.1906e+06 0 -1.14106e+06 2.20263e+06 0 -1.14413e+06 2.21474e+06 0 -1.14721e+06 2.2269e+06 0 -1.1503e+06 2.23913e+06 0 -1.1534e+06 2.25143e+06 0 -1.1565e+06 2.2638e+06 0 -1.1596e+06 2.27624e+06 0 -1.16271e+06 2.28875e+06 0 -1.16582e+06 2.30134e+06 0 -1.16893e+06 2.31399e+06 0 -1.17205e+06 2.32672e+06 0 -1.17516e+06 2.33953e+06 0 -882665 1.0507e+06 0 -884009 1.05954e+06 0 -885366 1.06839e+06 0 -886734 1.07725e+06 0 -888114 1.08612e+06 0 -889505 1.09501e+06 0 -890909 1.10391e+06 0 -892324 1.11283e+06 0 -893751 1.12176e+06 0 -895191 1.1307e+06 0 -896642 1.13966e+06 0 -898106 1.14863e+06 0 -899581 1.15762e+06 0 -901069 1.16662e+06 0 -902570 1.17563e+06 0 -904082 1.18466e+06 0 -905607 1.1937e+06 0 -907145 1.20276e+06 0 -908696 1.21184e+06 0 -910259 1.22093e+06 0 -911834 1.23003e+06 0 -913423 1.23915e+06 0 -915024 1.24829e+06 0 -916639 1.25744e+06 0 -918266 1.26661e+06 0 -919907 1.27579e+06 0 -921561 1.28499e+06 0 -923228 1.29421e+06 0 -924909 1.30344e+06 0 -926603 1.31269e+06 0 -928311 1.32196e+06 0 -930032 1.33124e+06 0 -931767 1.34054e+06 0 -933516 1.34986e+06 0 -935279 1.35919e+06 0 -937056 1.36855e+06 0 -938847 1.37792e+06 0 -940653 1.38731e+06 0 -942472 1.39672e+06 0 -944306 1.40614e+06 0 -946155 1.41559e+06 0 -948018 1.42505e+06 0 -949896 1.43454e+06 0 -951788 1.44404e+06 0 -953696 1.45356e+06 0 -955619 1.46311e+06 0 -957556 1.47267e+06 0 -959509 1.48226e+06 0 -961477 1.49186e+06 0 -963461 1.50149e+06 0 -965460 1.51113e+06 0 -967475 1.5208e+06 0 -969505 1.53049e+06 0 -971552 1.5402e+06 0 -973614 1.54994e+06 0 -975692 1.55969e+06 0 -977786 1.56947e+06 0 -979897 1.57928e+06 0 -982024 1.58911e+06 0 -984167 1.59896e+06 0 -986327 1.60883e+06 0 -988503 1.61873e+06 0 -990696 1.62866e+06 0 -992906 1.63861e+06 0 -995132 1.64858e+06 0 -997376 1.65859e+06 0 -999636 1.66862e+06 0 -1.00191e+06 1.67867e+06 0 -1.00421e+06 1.68876e+06 0 -1.00652e+06 1.69887e+06 0 -1.00885e+06 1.70901e+06 0 -1.0112e+06 1.71918e+06 0 -1.01356e+06 1.72937e+06 0 -1.01594e+06 1.7396e+06 0 -1.01834e+06 1.74986e+06 0 -1.02076e+06 1.76015e+06 0 -1.02319e+06 1.77047e+06 0 -1.02564e+06 1.78082e+06 0 -1.02811e+06 1.7912e+06 0 -1.0306e+06 1.80162e+06 0 -1.0331e+06 1.81206e+06 0 -1.03563e+06 1.82255e+06 0 -1.03817e+06 1.83307e+06 0 -1.04072e+06 1.84362e+06 0 -1.0433e+06 1.85421e+06 0 -1.04589e+06 1.86483e+06 0 -1.0485e+06 1.87549e+06 0 -1.05113e+06 1.88619e+06 0 -1.05377e+06 1.89693e+06 0 -1.05644e+06 1.90771e+06 0 -1.05912e+06 1.91852e+06 0 -1.06181e+06 1.92938e+06 0 -1.06453e+06 1.94028e+06 0 -1.06726e+06 1.95122e+06 0 -1.07e+06 1.9622e+06 0 -1.07277e+06 1.97323e+06 0 -1.07555e+06 1.9843e+06 0 -1.07834e+06 1.99541e+06 0 -1.08115e+06 2.00657e+06 0 -1.08398e+06 2.01778e+06 0 -1.08682e+06 2.02903e+06 0 -1.08968e+06 2.04034e+06 0 -1.09255e+06 2.05169e+06 0 -1.09544e+06 2.0631e+06 0 -1.09834e+06 2.07455e+06 0 -1.10126e+06 2.08606e+06 0 -1.10419e+06 2.09762e+06 0 -1.10713e+06 2.10923e+06 0 -1.11008e+06 2.1209e+06 0 -1.11305e+06 2.13263e+06 0 -1.11603e+06 2.14441e+06 0 -1.11901e+06 2.15625e+06 0 -1.12201e+06 2.16815e+06 0 -1.12502e+06 2.18011e+06 0 -1.12804e+06 2.19214e+06 0 -1.13106e+06 2.20422e+06 0 -1.1341e+06 2.21637e+06 0 -1.13714e+06 2.22858e+06 0 -1.14018e+06 2.24086e+06 0 -1.14324e+06 2.25321e+06 0 -1.14629e+06 2.26563e+06 0 -1.14935e+06 2.27811e+06 0 -1.15241e+06 2.29067e+06 0 -1.15548e+06 2.3033e+06 0 -1.15854e+06 2.316e+06 0 -1.1616e+06 2.32878e+06 0 -1.16467e+06 2.34163e+06 0 -1.16772e+06 2.35456e+06 0 -876186 1.05606e+06 0 -877531 1.06495e+06 0 -878888 1.07385e+06 0 -880256 1.08276e+06 0 -881636 1.09168e+06 0 -883028 1.10062e+06 0 -884432 1.10957e+06 0 -885847 1.11854e+06 0 -887275 1.12752e+06 0 -888715 1.13651e+06 0 -890166 1.14552e+06 0 -891630 1.15455e+06 0 -893106 1.16358e+06 0 -894595 1.17264e+06 0 -896096 1.1817e+06 0 -897609 1.19079e+06 0 -899135 1.19988e+06 0 -900673 1.20899e+06 0 -902224 1.21812e+06 0 -903788 1.22726e+06 0 -905364 1.23642e+06 0 -906953 1.2456e+06 0 -908555 1.25479e+06 0 -910171 1.26399e+06 0 -911799 1.27322e+06 0 -913440 1.28246e+06 0 -915095 1.29171e+06 0 -916763 1.30098e+06 0 -918445 1.31027e+06 0 -920140 1.31958e+06 0 -921848 1.3289e+06 0 -923570 1.33824e+06 0 -925306 1.3476e+06 0 -927056 1.35697e+06 0 -928820 1.36637e+06 0 -930598 1.37578e+06 0 -932390 1.38521e+06 0 -934196 1.39466e+06 0 -936017 1.40413e+06 0 -937852 1.41361e+06 0 -939701 1.42312e+06 0 -941565 1.43264e+06 0 -943444 1.44219e+06 0 -945337 1.45175e+06 0 -947246 1.46134e+06 0 -949169 1.47094e+06 0 -951108 1.48057e+06 0 -953061 1.49021e+06 0 -955030 1.49988e+06 0 -957014 1.50957e+06 0 -959014 1.51928e+06 0 -961030 1.52901e+06 0 -963061 1.53877e+06 0 -965108 1.54855e+06 0 -967170 1.55835e+06 0 -969249 1.56817e+06 0 -971344 1.57802e+06 0 -973454 1.58789e+06 0 -975581 1.59778e+06 0 -977725 1.6077e+06 0 -97988