<?xml version="1.0"?> 
<VTKFile type="StructuredGrid" version="0.1"> 
<StructuredGrid WholeExtent="0 15 0 15 0 0"> 
<Piece Extent="0 15 0 15 0 0"> 
<PointData>
<DataArray type="Float32" Name="|E|" format="ascii" NumberOfComponents="3"> 
-2.10969e+06 0 0 -2.11617e+06 25512.8 0 -2.13502e+06 50991.4 0 -2.1665e+06 76911.1 0 -2.2111e+06 103770 0 -2.26954e+06 132090 0 -2.34279e+06 162478 0 -2.43218e+06 195544 0 -2.53955e+06 231895 0 -2.66727e+06 271944 0 -2.81814e+06 314946 0 -2.997e+06 357048 0 -3.2109e+06 385591 0 -3.45509e+06 366453 0 -3.686e+06 256381 0 -3.83671e+06 -3704.09 0 -2.10775e+06 0 0 -2.11345e+06 24842.9 0 -2.13e+06 49651.8 0 -2.15761e+06 74834.5 0 -2.19665e+06 100834 0 -2.24767e+06 128092 0 -2.3114e+06 157135 0 -2.38882e+06 188527 0 -2.48127e+06 222823 0 -2.59057e+06 260594 0 -2.71888e+06 301963 0 -2.86901e+06 345907 0 -3.0465e+06 390032 0 -3.2582e+06 421077 0 -3.49611e+06 395784 0 -3.71715e+06 274742 0 -2.10572e+06 0 0 -2.11069e+06 24053.2 0 -2.1251e+06 48074.9 0 -2.14911e+06 72407.2 0 -2.183e+06 97442.3 0 -2.22718e+06 123558 0 -2.28219e+06 151191 0 -2.34876e+06 180854 0 -2.42781e+06 213060 0 -2.52066e+06 248344 0 -2.62899e+06 287252 0 -2.7547e+06 329537 0 -2.90064e+06 373768 0 -3.07254e+06 418454 0 -3.27744e+06 443345 0 -3.50425e+06 444633 0 -2.10361e+06 0 0 -2.10789e+06 23144.6 0 -2.12032e+06 46261.3 0 -2.141e+06 69628.5 0 -2.17014e+06 93588 0 -2.20803e+06 118463 0 -2.25509e+06 144606 0 -2.31181e+06 172449 0 -2.37888e+06 202463 0 -2.45715e+06 235117 0 -2.54783e+06 270961 0 -2.65238e+06 310578 0 -2.77252e+06 353566 0 -2.91076e+06 400764 0 -3.07336e+06 443592 0 -3.26427e+06 482316 0 -2.10142e+06 0 0 -2.10506e+06 22117.3 0 -2.11566e+06 44212 0 -2.13328e+06 66502.7 0 -2.15805e+06 89280.8 0 -2.1902e+06 112824 0 -2.23002e+06 137415 0 -2.27786e+06 163398 0 -2.33419e+06 191175 0 -2.3996e+06 221172 0 -2.47485e+06 253826 0 -2.56097e+06 289723 0 -2.65924e+06 329022 0 -2.77092e+06 372858 0 -2.89863e+06 420413 0 -3.0472e+06 467005 0 -2.09914e+06 0 0 -2.1022e+06 20971.7 0 -2.11112e+06 41927.5 0 -2.12593e+06 63032.2 0 -2.14671e+06 84524.6 0 -2.17364e+06 106646 0 -2.20691e+06 129621 0 -2.24678e+06 153714 0 -2.29354e+06 179245 0 -2.34759e+06 206574 0 -2.40942e+06 236083 0 -2.47967e+06 268264 0 -2.55919e+06 303484 0 -2.64895e+06 342119 0 -2.74995e+06 385800 0 -2.86458e+06 431219 0 -2.09678e+06 0 0 -2.09931e+06 19708.4 0 -2.10669e+06 39407.9 0 -2.11895e+06 59219.2 0 -2.13612e+06 79324.8 0 -2.15833e+06 99935.6 0 -2.18572e+06 121231 0 -2.21844e+06 143407 0 -2.2567e+06 166708 0 -2.30076e+06 191415 0 -2.35092e+06 217832 0 -2.40757e+06 246327 0 -2.47119e+06 277361 0 -2.54247e+06 311116 0 -2.62203e+06 348742 0 -2.71092e+06 389036 0 -2.09433e+06 0 0 -2.09639e+06 18327.9 0 -2.10237e+06 36653.4 0 -2.11233e+06 55064.2 0 -2.12627e+06 73685.7 0 -2.14424e+06 92696.2 0 -2.16637e+06 112247 0 -2.19275e+06 132479 0 -2.22352e+06 153568 0 -2.25882e+06 175722 0 -2.29885e+06 199177 0 -2.34385e+06 224183 0 -2.39407e+06 251100 0 -2.4499e+06 280190 0 -2.51175e+06 312098 0 -2.58023e+06 346361 0 -2.0918e+06 0 0 -2.09343e+06 16831.2 0 -2.09817e+06 33663.8 0 -2.10607e+06 50566.2 0 -2.11713e+06 67610 0 -2.13135e+06 84933.7 0 -2.14883e+06 102669 0 -2.16962e+06 120924 0 -2.19382e+06 139814 0 -2.22151e+06 159484 0 -2.2528e+06 180104 0 -2.28782e+06 201853 0 -2.32674e+06 224958 0 -2.36974e+06 249634 0 -2.41704e+06 276343 0 -2.46898e+06 304841 0 -2.08918e+06 0 0 -2.09044e+06 15219.1 0 -2.09408e+06 30439.6 0 -2.10017e+06 45722.5 0 -2.10869e+06 61096.7 0 -2.11964e+06 76652.5 0 -2.13305e+06 92501.9 0 -2.14897e+06 108734 0 -2.16747e+06 125428 0 -2.1886e+06 142671 0 -2.2124e+06 160576 0 -2.23896e+06 179269 0 -2.26835e+06 198895 0 -2.30069e+06 219580 0 -2.33607e+06 241618 0 -2.37467e+06 264900 0 -2.08648e+06 0 0 -2.08741e+06 13492.8 0 -2.09011e+06 26982.3 0 -2.09461e+06 40529.4 0 -2.10094e+06 54139.7 0 -2.10906e+06 67852.2 0 -2.11898e+06 81747.8 0 -2.13074e+06 95904.6 0 -2.14436e+06 110383 0 -2.1599e+06 125236 0 -2.17737e+06 140528 0 -2.19681e+06 156333 0 -2.21826e+06 172746 0 -2.24177e+06 189845 0 -2.2674e+06 207785 0 -2.29522e+06 226500 0 -2.0837e+06 0 0 -2.08436e+06 11653.5 0 -2.08625e+06 23295.1 0 -2.08941e+06 34984.4 0 -2.09386e+06 46726.7 0 -2.0996e+06 58521.1 0 -2.10659e+06 70405 0 -2.11485e+06 82435.2 0 -2.1244e+06 94663.6 0 -2.13526e+06 107131 0 -2.14746e+06 119871 0 -2.16101e+06 132921 0 -2.17593e+06 146331 0 -2.19224e+06 160144 0 -2.20996e+06 174453 0 -2.22913e+06 189194 0 -2.08083e+06 0 0 -2.08127e+06 9702.19 0 -2.08251e+06 19383.4 0 -2.08456e+06 29090.1 0 -2.08746e+06 38843.4 0 -2.09121e+06 48630 0 -2.09581e+06 58447.6 0 -2.10124e+06 68316.2 0 -2.10749e+06 78267.4 0 -2.11456e+06 88332.1 0 -2.12249e+06 98536.2 0 -2.13128e+06 108901 0 -2.14094e+06 119449 0 -2.1515e+06 130198 0 -2.16294e+06 141190 0 -2.17529e+06 152385 0 -2.07789e+06 0 0 -2.07815e+06 7639.2 0 -2.07888e+06 15253.9 0 -2.08007e+06 22860.9 0 -2.08174e+06 30488.3 0 -2.08392e+06 38139.2 0 -2.08661e+06 45801.2 0 -2.0898e+06 53465.1 0 -2.09349e+06 61130.3 0 -2.09765e+06 68802 0 -2.10229e+06 76488 0 -2.10741e+06 84196.9 0 -2.11302e+06 91939.5 0 -2.11913e+06 99726.4 0 -2.12575e+06 107586 0 -2.13288e+06 115505 0 -2.07486e+06 0 0 -2.07498e+06 5463.38 0 -2.07535e+06 10908.2 0 -2.07593e+06 16322.7 0 -2.07673e+06 21708.5 0 -2.07776e+06 27075.6 0 -2.07902e+06 32430 0 -2.08054e+06 37770.1 0 -2.08231e+06 43088.6 0 -2.08433e+06 48373.3 0 -2.08659e+06 53608.3 0 -2.08909e+06 58774.2 0 -2.09182e+06 63848.6 0 -2.09478e+06 68805.4 0 -2.09797e+06 73622.5 0 -2.10139e+06 78257.2 0 -2.07175e+06 0 0 -2.07179e+06 3175.61 0 -2.0719e+06 6332.96 0 -2.0721e+06 9465.13 0 -2.07238e+06 12531.2 0 -2.07273e+06 15460.7 0 -2.07314e+06 18214.2 0 -2.07362e+06 20806.6 0 -2.07415e+06 23288.1 0 -2.07476e+06 25714.9 0 -2.07543e+06 28130.5 0 -2.07619e+06 30556.8 0 -2.07703e+06 32995.7 0 -2.07795e+06 35432.5 0 -2.07896e+06 37847.9 0 -2.08005e+06 40201.2 0 </DataArray> 
</PointData> 
<Points> 
<DataArray type="Float32" NumberOfComponents="3"> 
0 0.01 0 0.005 0.01 0 0.01 0.01 0 0.015 0.01 0 0.02 0.01 0 0.025 0.01 0 0.03 0.01 0 0.035 0.01 0 0.04 0.01 0 0.045 0.01 0 0.05 0.01 0 0.055 0.01 0 0.06 0.01 0 0.065 0.01 0 0.07 0.01 0 0.075 0.01 0 0 0.0104 0 0.00469333 0.0104 0 0.00938667 0.0104 0 0.01408 0.0104 0 0.0187733 0.0104 0 0.0234667 0.0104 0 0.02816 0.0104 0 0.0328533 0.0104 0 0.0375467 0.0104 0 0.04224 0.0104 0 0.0469333 0.0104 0 0.0516267 0.0104 0 0.05632 0.0104 0 0.0610133 0.0104 0 0.0657067 0.0104 0 0.0704 0.0104 0 0 0.0108 0 0.00438667 0.0108 0 0.00877333 0.0108 0 0.01316 0.0108 0 0.0175467 0.0108 0 0.0219333 0.0108 0 0.02632 0.0108 0 0.0307067 0.0108 0 0.0350933 0.0108 0 0.03948 0.0108 0 0.0438667 0.0108 0 0.0482533 0.0108 0 0.05264 0.0108 0 0.0570267 0.0108 0 0.0614133 0.0108 0 0.0658 0.0108 0 0 0.0112 0 0.00408 0.0112 0 0.00816 0.0112 0 0.01224 0.0112 0 0.01632 0.0112 0 0.0204 0.0112 0 0.02448 0.0112 0 0.02856 0.0112 0 0.03264 0.0112 0 0.03672 0.0112 0 0.0408 0.0112 0 0.04488 0.0112 0 0.04896 0.0112 0 0.05304 0.0112 0 0.05712 0.0112 0 0.0612 0.0112 0 0 0.0116 0 0.00377333 0.0116 0 0.00754667 0.0116 0 0.01132 0.0116 0 0.0150933 0.0116 0 0.0188667 0.0116 0 0.02264 0.0116 0 0.0264133 0.0116 0 0.0301867 0.0116 0 0.03396 0.0116 0 0.0377333 0.0116 0 0.0415067 0.0116 0 0.04528 0.0116 0 0.0490533 0.0116 0 0.0528267 0.0116 0 0.0566 0.0116 0 0 0.012 0 0.00346667 0.012 0 0.00693333 0.012 0 0.0104 0.012 0 0.0138667 0.012 0 0.0173333 0.012 0 0.0208 0.012 0 0.0242667 0.012 0 0.0277333 0.012 0 0.0312 0.012 0 0.0346667 0.012 0 0.0381333 0.012 0 0.0416 0.012 0 0.0450667 0.012 0 0.0485333 0.012 0 0.052 0.012 0 0 0.0124 0 0.00316 0.0124 0 0.00632 0.0124 0 0.00948 0.0124 0 0.01264 0.0124 0 0.0158 0.0124 0 0.01896 0.0124 0 0.02212 0.0124 0 0.02528 0.0124 0 0.02844 0.0124 0 0.0316 0.0124 0 0.03476 0.0124 0 0.03792 0.0124 0 0.04108 0.0124 0 0.04424 0.0124 0 0.0474 0.0124 0 0 0.0128 0 0.00285333 0.0128 0 0.00570667 0.0128 0 0.00856 0.0128 0 0.0114133 0.0128 0 0.0142667 0.0128 0 0.01712 0.0128 0 0.0199733 0.0128 0 0.0228267 0.0128 0 0.02568 0.0128 0 0.0285333 0.0128 0 0.0313867 0.0128 0 0.03424 0.0128 0 0.0370933 0.0128 0 0.0399467 0.0128 0 0.0428 0.0128 0 0 0.0132 0 0.00254667 0.0132 0 0.00509333 0.0132 0 0.00764 0.0132 0 0.0101867 0.0132 0 0.0127333 0.0132 0 0.01528 0.0132 0 0.0178267 0.0132 0 0.0203733 0.0132 0 0.02292 0.0132 0 0.0254667 0.0132 0 0.0280133 0.0132 0 0.03056 0.0132 0 0.0331067 0.0132 0 0.0356533 0.0132 0 0.0382 0.0132 0 0 0.0136 0 0.00224 0.0136 0 0.00448 0.0136 0 0.00672 0.0136 0 0.00896 0.0136 0 0.0112 0.0136 0 0.01344 0.0136 0 0.01568 0.0136 0 0.01792 0.0136 0 0.02016 0.0136 0 0.0224 0.0136 0 0.02464 0.0136 0 0.02688 0.0136 0 0.02912 0.0136 0 0.03136 0.0136 0 0.0336 0.0136 0 0 0.014 0 0.00193333 0.014 0 0.00386667 0.014 0 0.0058 0.014 0 0.00773333 0.014 0 0.00966667 0.014 0 0.0116 0.014 0 0.0135333 0.014 0 0.0154667 0.014 0 0.0174 0.014 0 0.0193333 0.014 0 0.0212667 0.014 0 0.0232 0.014 0 0.0251333 0.014 0 0.0270667 0.014 0 0.029 0.014 0 0 0.0144 0 0.00162667 0.0144 0 0.00325333 0.0144 0 0.00488 0.0144 0 0.00650667 0.0144 0 0.00813333 0.0144 0 0.00976 0.0144 0 0.0113867 0.0144 0 0.0130133 0.0144 0 0.01464 0.0144 0 0.0162667 0.0144 0 0.0178933 0.0144 0 0.01952 0.0144 0 0.0211467 0.0144 0 0.0227733 0.0144 0 0.0244 0.0144 0 0 0.0148 0 0.00132 0.0148 0 0.00264 0.0148 0 0.00396 0.0148 0 0.00528 0.0148 0 0.0066 0.0148 0 0.00792 0.0148 0 0.00924 0.0148 0 0.01056 0.0148 0 0.01188 0.0148 0 0.0132 0.0148 0 0.01452 0.0148 0 0.01584 0.0148 0 0.01716 0.0148 0 0.01848 0.0148 0 0.0198 0.0148 0 0 0.0152 0 0.00101333 0.0152 0 0.00202667 0.0152 0 0.00304 0.0152 0 0.00405333 0.0152 0 0.00506667 0.0152 0 0.00608 0.0152 0 0.00709333 0.0152 0 0.00810667 0.0152 0 0.00912 0.0152 0 0.0101333 0.0152 0 0.0111467 0.0152 0 0.01216 0.0152 0 0.0131733 0.0152 0 0.0141867 0.0152 0 0.0152 0.0152 0 0 0.0156 0 0.000706667 0.0156 0 0.00141333 0.0156 0 0.00212 0.0156 0 0.00282667 0.0156 0 0.00353333 0.0156 0 0.00424 0.0156 0 0.00494667 0.0156 0 0.00565333 0.0156 0 0.00636 0.0156 0 0.00706667 0.0156 0 0.00777333 0.0156 0 0.00848 0.0156 0 0.00918667 0.0156 0 0.00989333 0.0156 0 0.0106 0.0156 0 0 0.016 0 0.0004 0.016 0 0.0008 0.016 0 0.0012 0.016 0 0.0016 0.016 0 0.002 0.016 0 0.0024 0.016 0 0.0028 0.016 0 0.0032 0.016 0 0.0036 0.016 0 0.004 0.016 0 0.0044 0.016 0 0.0048 0.016 0 0.0052 0.016 0 0.0056 0.016 0 0.006 0.016 0 
</DataArray>
</Points> 
</Piece> 
</StructuredGrid> 
</VTKFile> 
