<?xml version="1.0"?> 
<VTKFile type="StructuredGrid" version="0.1"> 
<StructuredGrid WholeExtent="0 15 0 15 0 0"> 
<Piece Extent="0 15 0 15 0 0"> 
<PointData>
<DataArray type="Float32" Name="|E|" format="ascii" NumberOfComponents="3"> 
1.49012e-08 0 0 -2.65427e-08 730.18 0 -2.79397e-09 343.923 0 2.79397e-08 166.436 0 -2.23517e-08 84.263 0 1.11759e-08 44.2319 0 -3.72529e-09 24.6118 0 3.72529e-09 13.9837 0 -7.45058e-09 8.13379 0 -7.45058e-09 4.79604 0 2.23517e-08 2.83495 0 -2.98023e-08 1.67439 0 1.49012e-08 0.97067 0 7.45058e-09 0.529318 0 -2.98023e-08 0.230897 0 5.96046e-08 -0.00222141 0 65.7663 -5.96046e-08 0 -21.2288 740.598 0 -11.6157 378.826 0 -9.41242 189.431 0 -5.01227 98.7427 0 -3.24826 53.8655 0 -1.97175 30.2687 0 -1.25472 17.8144 0 -0.819616 10.5882 0 -0.536783 6.42027 0 -0.357465 3.92142 0 -0.238791 2.39956 0 -0.161014 1.46218 0 -0.110718 0.872519 0 -0.0798657 0.488031 0 -0.0635838 0.218082 0 137.572 5.96046e-08 0 -40.1324 753.625 0 -26.8956 414.921 0 -20.717 215.646 0 -12.5427 116.043 0 -7.83954 64.9599 0 -5.06089 37.5817 0 -3.24064 22.442 0 -2.16118 13.7675 0 -1.45147 8.53168 0 -0.984644 5.35914 0 -0.67362 3.38234 0 -0.462742 2.1364 0 -0.320733 1.34162 0 -0.226575 0.825189 0 -0.16725 0.478791 0 216.396 4.76837e-07 0 -56.1218 769.434 0 -45.8313 452.549 0 -34.741 245.385 0 -22.9771 136.365 0 -14.5699 78.337 0 -9.62977 46.4747 0 -6.36459 28.3846 0 -4.2901 17.7587 0 -2.95193 11.3068 0 -2.04495 7.26871 0 -1.42889 4.71356 0 -1.0033 3.06755 0 -0.707723 1.99661 0 -0.503005 1.29219 0 -0.363128 0.823048 0 303.56 -1.19209e-06 0 -68.5299 788.401 0 -68.2707 492.029 0 -52.4201 278.964 0 -36.9081 160.014 0 -24.342 94.4701 0 -16.3537 57.312 0 -11.1305 35.793 0 -7.64796 22.8572 0 -5.35252 14.8598 0 -3.79049 9.78307 0 -2.70397 6.4911 0 -1.94051 4.33339 0 -1.39685 2.90006 0 -1.01024 1.93976 0 -0.734083 1.29386 0 400.889 2.02656e-06 0 -76.6106 811.131 0 -93.8881 533.731 0 -74.7447 316.727 0 -55.2331 187.475 0 -38.1997 113.731 0 -26.2667 70.5432 0 -18.294 44.9237 0 -12.8676 29.26 0 -9.16205 19.3933 0 -6.61514 13.0201 0 -4.81244 8.83055 0 -3.52783 6.01391 0 -2.59552 4.12192 0 -1.91309 2.82537 0 -1.41585 1.93596 0 510.973 -1.90735e-06 0 -79.5535 838.587 0 -122.165 578.169 0 -102.678 359.018 0 -79.2254 219.356 0 -57.4476 136.514 0 -40.7759 86.5344 0 -29.0397 56.0855 0 -20.8838 37.1427 0 -15.1641 25.0395 0 -11.1356 17.1095 0 -8.26884 11.7899 0 -6.16474 8.20816 0 -4.63582 5.69406 0 -3.49202 3.99226 0 -2.63133 2.79213 0 637.609 -2.38419e-07 0 -76.5256 872.248 0 -152.402 626.163 0 -137.063 406.248 0 -110.548 256.329 0 -83.8461 163.333 0 -61.741 105.559 0 -45.1258 69.4804 0 -33.1449 46.6161 0 -24.5506 31.826 0 -18.3436 22.0339 0 -13.8379 15.415 0 -10.5499 10.8092 0 -8.03825 7.70288 0 -6.18936 5.3743 0 -4.76395 3.82735 0 786.582 0 0 -66.7752 914.334 0 -183.788 679.076 0 -178.557 459.067 0 -151.202 299.104 0 -119.823 194.808 0 -91.6938 127.85 0 -69.0523 85.0699 0 -51.8709 57.518 0 -39.1577 39.5205 0 -29.7853 27.5255 0 -22.8171 19.3744 0 -17.6107 13.7589 0 -13.7756 9.6583 0 -10.6999 7.025 0 -8.42432 4.8444 0 967.164 0 0 -49.8787 968.121 0 -215.593 739.105 0 -227.666 518.684 0 -203.449 348.546 0 -168.637 231.622 0 -134.205 153.589 0 -104.385 102.487 0 -80.3873 69.1244 0 -61.8388 47.2458 0 -47.7979 32.7006 0 -37.213 22.8395 0 -29.1303 16.0275 0 -22.8617 11.39 0 -18.3426 7.68547 0 -14.4665 5.59002 0 1195.2 -4.76837e-07 0 -26.3202 1038.38 0 -247.575 809.626 0 -284.998 587.323 0 -269.861 406.02 0 -234.517 274.571 0 -194.338 182.819 0 -156.346 120.851 0 -123.655 79.7827 0 -97.0291 52.8567 0 -76.0458 35.2426 0 -59.8589 23.6265 0 -47.515 15.8168 0 -37.9702 10.3392 0 -29.9935 6.92749 0 -24.6852 3.98241 0 1500.11 0 0 1.19497 1131.7 0 -280.804 895.46 0 -351.936 668.729 0 -353.732 473.961 0 -322.983 324.883 0 -279.23 215.4 0 -232.733 138.427 0 -189.25 86.2207 0 -151.54 51.9678 0 -120.379 30.0892 0 -95.3607 16.421 0 -75.6911 8.05285 0 -60.7045 3.10793 0 -49.8409 -0.324745 0 -39.0182 -3.06075 0 1942.92 -9.53674e-07 0 24.6863 1256.33 0 -319.089 1002.57 0 -431.97 768.395 0 -460.243 556.379 0 -441.79 384.694 0 -399.091 251.135 0 -345.325 152.192 0 -289.173 82.3435 0 -236.18 35.7916 0 -189.586 6.84663 0 -150.714 -9.73547 0 -119.228 -18.3986 0 -93.7492 -22.4299 0 -73.2292 -22.8076 0 -62.6949 -17.3798 0 2670.6 4.76837e-07 0 25.4522 1417.15 0 -370.76 1136.65 0 -532.764 892.522 0 -598.559 658.565 0 -603.017 457.006 0 -569.275 289.626 0 -512.227 157.232 0 -442.932 57.7018 0 -369.64 -12.2872 0 -298.612 -56.7802 0 -234.62 -80.2186 0 -181.143 -87.4969 0 -139.773 -84.4335 0 -108.331 -79.2447 0 -73.1715 -87.4144 0 4120.65 1.43051e-06 0 -35.5632 1601.09 0 -446.706 1298.97 0 -668.142 1045.21 0 -784.063 784.192 0 -825.708 543.635 0 -813.216 328.009 0 -760.951 144.118 0 -681.115 -5.65425 0 -583.831 -120.742 0 -477.469 -202.221 0 -368.932 -251.923 0 -264.367 -271.596 0 -170.871 -261.062 0 -100.208 -215.619 0 -80.8365 -109.819 0 8170.99 2.86102e-06 0 -196.975 1719.95 0 -550.857 1503.93 0 -857.646 1213.57 0 -1036.47 934.281 0 -1137.41 639.996 0 -1165.3 356.785 0 -1132.23 93.2502 0 -1048.96 -140.091 0 -926.56 -336.945 0 -775.533 -493.639 0 -605.076 -609.913 0 -421.488 -689.16 0 -225.387 -744 0 -3.53822 -799.659 0 292.055 -980.653 0 </DataArray> 
</PointData> 
<Points> 
<DataArray type="Float32" NumberOfComponents="3"> 
0.125 0.02 0 0.129 0.02 0 0.133 0.02 0 0.137 0.02 0 0.141 0.02 0 0.145 0.02 0 0.149 0.02 0 0.153 0.02 0 0.157 0.02 0 0.161 0.02 0 0.165 0.02 0 0.169 0.02 0 0.173 0.02 0 0.177 0.02 0 0.181 0.02 0 0.185 0.02 0 0.125 0.0200667 0 0.128756 0.0201289 0 0.132511 0.0201911 0 0.136267 0.0202533 0 0.140022 0.0203156 0 0.143778 0.0203778 0 0.147533 0.02044 0 0.151289 0.0205022 0 0.155044 0.0205644 0 0.1588 0.0206267 0 0.162556 0.0206889 0 0.166311 0.0207511 0 0.170067 0.0208133 0 0.173822 0.0208756 0 0.177578 0.0209378 0 0.181333 0.021 0 0.125 0.0201333 0 0.128511 0.0202578 0 0.132022 0.0203822 0 0.135533 0.0205067 0 0.139044 0.0206311 0 0.142556 0.0207556 0 0.146067 0.02088 0 0.149578 0.0210044 0 0.153089 0.0211289 0 0.1566 0.0212533 0 0.160111 0.0213778 0 0.163622 0.0215022 0 0.167133 0.0216267 0 0.170644 0.0217511 0 0.174156 0.0218756 0 0.177667 0.022 0 0.125 0.0202 0 0.128267 0.0203867 0 0.131533 0.0205733 0 0.1348 0.02076 0 0.138067 0.0209467 0 0.141333 0.0211333 0 0.1446 0.02132 0 0.147867 0.0215067 0 0.151133 0.0216933 0 0.1544 0.02188 0 0.157667 0.0220667 0 0.160933 0.0222533 0 0.1642 0.02244 0 0.167467 0.0226267 0 0.170733 0.0228133 0 0.174 0.023 0 0.125 0.0202667 0 0.128022 0.0205156 0 0.131044 0.0207644 0 0.134067 0.0210133 0 0.137089 0.0212622 0 0.140111 0.0215111 0 0.143133 0.02176 0 0.146156 0.0220089 0 0.149178 0.0222578 0 0.1522 0.0225067 0 0.155222 0.0227556 0 0.158244 0.0230044 0 0.161267 0.0232533 0 0.164289 0.0235022 0 0.167311 0.0237511 0 0.170333 0.024 0 0.125 0.0203333 0 0.127778 0.0206444 0 0.130556 0.0209556 0 0.133333 0.0212667 0 0.136111 0.0215778 0 0.138889 0.0218889 0 0.141667 0.0222 0 0.144444 0.0225111 0 0.147222 0.0228222 0 0.15 0.0231333 0 0.152778 0.0234444 0 0.155556 0.0237556 0 0.158333 0.0240667 0 0.161111 0.0243778 0 0.163889 0.0246889 0 0.166667 0.025 0 0.125 0.0204 0 0.127533 0.0207733 0 0.130067 0.0211467 0 0.1326 0.02152 0 0.135133 0.0218933 0 0.137667 0.0222667 0 0.1402 0.02264 0 0.142733 0.0230133 0 0.145267 0.0233867 0 0.1478 0.02376 0 0.150333 0.0241333 0 0.152867 0.0245067 0 0.1554 0.02488 0 0.157933 0.0252533 0 0.160467 0.0256267 0 0.163 0.026 0 0.125 0.0204667 0 0.127289 0.0209022 0 0.129578 0.0213378 0 0.131867 0.0217733 0 0.134156 0.0222089 0 0.136444 0.0226444 0 0.138733 0.02308 0 0.141022 0.0235156 0 0.143311 0.0239511 0 0.1456 0.0243867 0 0.147889 0.0248222 0 0.150178 0.0252578 0 0.152467 0.0256933 0 0.154756 0.0261289 0 0.157044 0.0265644 0 0.159333 0.027 0 0.125 0.0205333 0 0.127044 0.0210311 0 0.129089 0.0215289 0 0.131133 0.0220267 0 0.133178 0.0225244 0 0.135222 0.0230222 0 0.137267 0.02352 0 0.139311 0.0240178 0 0.141356 0.0245156 0 0.1434 0.0250133 0 0.145444 0.0255111 0 0.147489 0.0260089 0 0.149533 0.0265067 0 0.151578 0.0270044 0 0.153622 0.0275022 0 0.155667 0.028 0 0.125 0.0206 0 0.1268 0.02116 0 0.1286 0.02172 0 0.1304 0.02228 0 0.1322 0.02284 0 0.134 0.0234 0 0.1358 0.02396 0 0.1376 0.02452 0 0.1394 0.02508 0 0.1412 0.02564 0 0.143 0.0262 0 0.1448 0.02676 0 0.1466 0.02732 0 0.1484 0.02788 0 0.1502 0.02844 0 0.152 0.029 0 0.125 0.0206667 0 0.126556 0.0212889 0 0.128111 0.0219111 0 0.129667 0.0225333 0 0.131222 0.0231556 0 0.132778 0.0237778 0 0.134333 0.0244 0 0.135889 0.0250222 0 0.137444 0.0256444 0 0.139 0.0262667 0 0.140556 0.0268889 0 0.142111 0.0275111 0 0.143667 0.0281333 0 0.145222 0.0287556 0 0.146778 0.0293778 0 0.148333 0.03 0 0.125 0.0207333 0 0.126311 0.0214178 0 0.127622 0.0221022 0 0.128933 0.0227867 0 0.130244 0.0234711 0 0.131556 0.0241556 0 0.132867 0.02484 0 0.134178 0.0255244 0 0.135489 0.0262089 0 0.1368 0.0268933 0 0.138111 0.0275778 0 0.139422 0.0282622 0 0.140733 0.0289467 0 0.142044 0.0296311 0 0.143356 0.0303156 0 0.144667 0.031 0 0.125 0.0208 0 0.126067 0.0215467 0 0.127133 0.0222933 0 0.1282 0.02304 0 0.129267 0.0237867 0 0.130333 0.0245333 0 0.1314 0.02528 0 0.132467 0.0260267 0 0.133533 0.0267733 0 0.1346 0.02752 0 0.135667 0.0282667 0 0.136733 0.0290133 0 0.1378 0.02976 0 0.138867 0.0305067 0 0.139933 0.0312533 0 0.141 0.032 0 0.125 0.0208667 0 0.125822 0.0216756 0 0.126644 0.0224844 0 0.127467 0.0232933 0 0.128289 0.0241022 0 0.129111 0.0249111 0 0.129933 0.02572 0 0.130756 0.0265289 0 0.131578 0.0273378 0 0.1324 0.0281467 0 0.133222 0.0289556 0 0.134044 0.0297644 0 0.134867 0.0305733 0 0.135689 0.0313822 0 0.136511 0.0321911 0 0.137333 0.033 0 0.125 0.0209333 0 0.125578 0.0218044 0 0.126156 0.0226756 0 0.126733 0.0235467 0 0.127311 0.0244178 0 0.127889 0.0252889 0 0.128467 0.02616 0 0.129044 0.0270311 0 0.129622 0.0279022 0 0.1302 0.0287733 0 0.130778 0.0296444 0 0.131356 0.0305156 0 0.131933 0.0313867 0 0.132511 0.0322578 0 0.133089 0.0331289 0 0.133667 0.034 0 0.125 0.021 0 0.125333 0.0219333 0 0.125667 0.0228667 0 0.126 0.0238 0 0.126333 0.0247333 0 0.126667 0.0256667 0 0.127 0.0266 0 0.127333 0.0275333 0 0.127667 0.0284667 0 0.128 0.0294 0 0.128333 0.0303333 0 0.128667 0.0312667 0 0.129 0.0322 0 0.129333 0.0331333 0 0.129667 0.0340667 0 0.13 0.035 0 
</DataArray>
</Points> 
</Piece> 
</StructuredGrid> 
</VTKFile> 
