<?xml version="1.0"?> 
<VTKFile type="StructuredGrid" version="0.1"> 
<StructuredGrid WholeExtent="0 15 0 15 0 0"> 
<Piece Extent="0 15 0 15 0 0"> 
<PointData>
<DataArray type="Float32" Name="|E|" format="ascii" NumberOfComponents="3"> 
454740 6.89709e+06 0 381872 5.79189e+06 0 351178 5.32636e+06 0 332870 5.04866e+06 0 320440 4.86014e+06 0 311261 4.72092e+06 0 304171 4.61339e+06 0 298522 4.52771e+06 0 293920 4.45792e+06 0 290112 4.40016e+06 0 286924 4.3518e+06 0 284232 4.31098e+06 0 281950 4.27636e+06 0 280013 4.24699e+06 0 278375 4.22214e+06 0 277002 4.20132e+06 0 -764347 5.71932e+06 0 -285817 5.51272e+06 0 -75996.6 5.22775e+06 0 35862.1 5.00808e+06 0 100522 4.84063e+06 0 141619 4.71114e+06 0 169295 4.60846e+06 0 188879 4.52536e+06 0 203277 4.457e+06 0 214220 4.40001e+06 0 222792 4.35203e+06 0 229706 4.31134e+06 0 235455 4.2767e+06 0 240395 4.24717e+06 0 244792 4.22206e+06 0 248864 4.20089e+06 0 -880987 5.14e+06 0 -578662 5.08176e+06 0 -348383 4.97889e+06 0 -191776 4.85812e+06 0 -84290.6 4.74562e+06 0 -8988.14 4.64756e+06 0 45412.7 4.56399e+06 0 85846.9 4.49308e+06 0 116712 4.43278e+06 0 140857 4.3813e+06 0 160189 4.33714e+06 0 176030 4.29913e+06 0 189320 4.26634e+06 0 200759 4.23805e+06 0 210875 4.21371e+06 0 220105 4.1929e+06 0 -881206 4.74295e+06 0 -660613 4.75966e+06 0 -474590 4.72912e+06 0 -326033 4.67601e+06 0 -210886 4.61358e+06 0 -122391 4.55066e+06 0 -54063.3 4.49147e+06 0 -726.427 4.43764e+06 0 41499.7 4.3895e+06 0 75453.6 4.34678e+06 0 103213 4.30901e+06 0 126314 4.27568e+06 0 145910 4.2463e+06 0 162890 4.22045e+06 0 177950 4.19778e+06 0 191672 4.178e+06 0 -824809 4.47083e+06 0 -664128 4.50819e+06 0 -517557 4.51652e+06 0 -390595 4.50265e+06 0 -284142 4.47548e+06 0 -196471 4.44143e+06 0 -124827 4.40487e+06 0 -66291.2 4.36842e+06 0 -18245.5 4.33354e+06 0 21507.3 4.30092e+06 0 54747 4.27086e+06 0 82897.9 4.24338e+06 0 107100 4.21842e+06 0 128273 4.19585e+06 0 147167 4.17552e+06 0 164430 4.15729e+06 0 -752600 4.2676e+06 0 -630944 4.31585e+06 0 -515456 4.34201e+06 0 -410516 4.35076e+06 0 -317807 4.34652e+06 0 -237611 4.33352e+06 0 -169092 4.31514e+06 0 -110921 4.29382e+06 0 -61596.6 4.27126e+06 0 -19667.5 4.24856e+06 0 16181.5 4.22638e+06 0 47096.7 4.20512e+06 0 74060.3 4.18501e+06 0 97911.3 4.16613e+06 0 119364 4.14852e+06 0 139056 4.13217e+06 0 -674909 4.11327e+06 0 -580364 4.1648e+06 0 -488787 4.20044e+06 0 -402832 4.22209e+06 0 -324280 4.23239e+06 0 -253885 4.23397e+06 0 -191689 4.22917e+06 0 -137230 4.21996e+06 0 -89768.2 4.20785e+06 0 -48444.8 4.19395e+06 0 -12381.5 4.17907e+06 0 19260.7 4.16378e+06 0 47254.4 4.14844e+06 0 72299.3 4.1333e+06 0 95019.2 4.11853e+06 0 115994 4.10421e+06 0 -595729 3.99261e+06 0 -521453 4.04524e+06 0 -448229 4.08558e+06 0 -378158 4.11476e+06 0 -312558 4.13425e+06 0 -252277 4.1457e+06 0 -197653 4.1507e+06 0 -148655 4.15072e+06 0 -104985 4.14695e+06 0 -66182.8 4.14041e+06 0 -31705.2 4.13185e+06 0 -978.081 4.12188e+06 0 26568.7 4.11093e+06 0 51483.1 4.09933e+06 0 74277.3 4.08729e+06 0 95446.2 4.07497e+06 0 -517307 3.8974e+06 0 -458367 3.94981e+06 0 -399786 3.99252e+06 0 -342897 4.02609e+06 0 -288754 4.0514e+06 0 -238078 4.06949e+06 0 -191282 4.08143e+06 0 -148511 4.08828e+06 0 -109701 4.09096e+06 0 -74636.7 4.0903e+06 0 -43002 4.08696e+06 0 -14423.5 4.08152e+06 0 11500.5 4.07439e+06 0 35180.1 4.06592e+06 0 57016.9 4.05637e+06 0 77414 4.04592e+06 0 -440044 3.8219e+06 0 -393441 3.87368e+06 0 -346759 3.91747e+06 0 -300998 3.95361e+06 0 -256916 3.98261e+06 0 -215100 4.00514e+06 0 -175934 4.02195e+06 0 -139618 4.03376e+06 0 -106196 4.04129e+06 0 -75589.4 4.04519e+06 0 -47628.4 4.04602e+06 0 -22079.1 4.04426e+06 0 1332.05 4.04032e+06 0 22901.7 4.03453e+06 0 42933.3 4.02714e+06 0 61742.9 4.01834e+06 0 -364216 3.76242e+06 0 -327764 3.81341e+06 0 -291100 3.85763e+06 0 -254900 3.89524e+06 0 -219729 3.92659e+06 0 -186035 3.95209e+06 0 -154139 3.97226e+06 0 -124238 3.98763e+06 0 -96416.4 3.99874e+06 0 -70666.6 4.00608e+06 0 -46904.2 4.01013e+06 0 -24988.5 4.01129e+06 0 -4738.41 4.00992e+06 0 14054.4 4.00631e+06 0 31612.4 4.00072e+06 0 48174.9 3.99333e+06 0 -289679 3.7164e+06 0 -261936 3.76663e+06 0 -233932 3.81093e+06 0 -206149 3.84938e+06 0 -178987 3.8822e+06 0 -152778 3.90966e+06 0 -127772 3.93214e+06 0 -104137 3.95002e+06 0 -81962.8 3.9637e+06 0 -61270.8 3.97358e+06 0 -42025.5 3.98004e+06 0 -24145.1 3.98343e+06 0 -7513.28 3.98405e+06 0 8012.17 3.98216e+06 0 22588.7 3.978e+06 0 36390.8 3.97174e+06 0 -216257 3.68206e+06 0 -196206 3.73165e+06 0 -175925 3.77589e+06 0 -155733 3.8148e+06 0 -135906 3.84852e+06 0 -116677 3.87727e+06 0 -98227.9 3.90129e+06 0 -80685.9 3.92088e+06 0 -64127.7 3.93635e+06 0 -48582.7 3.94804e+06 0 -34039.8 3.95624e+06 0 -20453.6 3.96124e+06 0 -7751.99 3.96333e+06 0 4157.8 3.96273e+06 0 15382 3.95965e+06 0 26041.3 3.95426e+06 0 -143688 3.65823e+06 0 -130662 3.70734e+06 0 -117465 3.75146e+06 0 -104298 3.79061e+06 0 -91330.6 3.82488e+06 0 -78712 3.85441e+06 0 -66558.9 3.87941e+06 0 -54956.9 3.90011e+06 0 -43960.1 3.91676e+06 0 -33593.4 3.92964e+06 0 -23855.6 3.939e+06 0 -14723.5 3.94511e+06 0 -6155.68 3.94821e+06 0 1903.31 3.9485e+06 0 9518.77 3.94617e+06 0 16766.2 3.94139e+06 0 -71695.8 3.64412e+06 0 -65282.6 3.69293e+06 0 -58779.1 3.73697e+06 0 -52280.9 3.77623e+06 0 -45871.1 3.81078e+06 0 -39621.2 3.84074e+06 0 -33588.7 3.86628e+06 0 -27816.4 3.8876e+06 0 -22331.9 3.90492e+06 0 -17149.1 3.91848e+06 0 -12269.3 3.92852e+06 0 -7682.52 3.93527e+06 0 -3370.23 3.93895e+06 0 693.557 3.93977e+06 0 4539.83 3.93789e+06 0 8204.81 3.93348e+06 0 0 3.6393e+06 0 0 3.688e+06 0 0 3.732e+06 0 0 3.77129e+06 0 0 3.80593e+06 0 0 3.83603e+06 0 0 3.86175e+06 0 0 3.88328e+06 0 0 3.90082e+06 0 0 3.91461e+06 0 0 3.92488e+06 0 0 3.93185e+06 0 0 3.93573e+06 0 0 3.93672e+06 0 0 3.935e+06 0 0 3.93071e+06 0 </DataArray> 
</PointData> 
<Points> 
<DataArray type="Float32" NumberOfComponents="3"> 
0.113 0.065 0 0.115233 0.0648528 0 0.117467 0.0647055 0 0.1197 0.0645583 0 0.121933 0.064411 0 0.124167 0.0642638 0 0.1264 0.0641165 0 0.128633 0.0639693 0 0.130867 0.063822 0 0.1331 0.0636748 0 0.135333 0.0635275 0 0.137567 0.0633803 0 0.1398 0.063233 0 0.142033 0.0630858 0 0.144267 0.0629385 0 0.1465 0.0627913 0 0.113 0.0681333 0 0.115233 0.0679959 0 0.117467 0.0678585 0 0.1197 0.067721 0 0.121933 0.0675836 0 0.124167 0.0674462 0 0.1264 0.0673087 0 0.128633 0.0671713 0 0.130867 0.0670339 0 0.1331 0.0668964 0 0.135333 0.066759 0 0.137567 0.0666216 0 0.1398 0.0664841 0 0.142033 0.0663467 0 0.144267 0.0662093 0 0.1465 0.0660719 0 0.113 0.0712667 0 0.115233 0.0711391 0 0.117467 0.0710114 0 0.1197 0.0708838 0 0.121933 0.0707562 0 0.124167 0.0706286 0 0.1264 0.070501 0 0.128633 0.0703734 0 0.130867 0.0702457 0 0.1331 0.0701181 0 0.135333 0.0699905 0 0.137567 0.0698629 0 0.1398 0.0697353 0 0.142033 0.0696077 0 0.144267 0.0694801 0 0.1465 0.0693524 0 0.113 0.0744 0 0.115233 0.0742822 0 0.117467 0.0741644 0 0.1197 0.0740466 0 0.121933 0.0739288 0 0.124167 0.073811 0 0.1264 0.0736932 0 0.128633 0.0735754 0 0.130867 0.0734576 0 0.1331 0.0733398 0 0.135333 0.073222 0 0.137567 0.0731042 0 0.1398 0.0729864 0 0.142033 0.0728686 0 0.144267 0.0727508 0 0.1465 0.072633 0 0.113 0.0775333 0 0.115233 0.0774254 0 0.117467 0.0773174 0 0.1197 0.0772094 0 0.121933 0.0771014 0 0.124167 0.0769934 0 0.1264 0.0768854 0 0.128633 0.0767775 0 0.130867 0.0766695 0 0.1331 0.0765615 0 0.135333 0.0764535 0 0.137567 0.0763455 0 0.1398 0.0762375 0 0.142033 0.0761296 0 0.144267 0.0760216 0 0.1465 0.0759136 0 0.113 0.0806667 0 0.115233 0.0805685 0 0.117467 0.0804703 0 0.1197 0.0803722 0 0.121933 0.080274 0 0.124167 0.0801758 0 0.1264 0.0800777 0 0.128633 0.0799795 0 0.130867 0.0798813 0 0.1331 0.0797832 0 0.135333 0.079685 0 0.137567 0.0795868 0 0.1398 0.0794887 0 0.142033 0.0793905 0 0.144267 0.0792923 0 0.1465 0.0791942 0 0.113 0.0838 0 0.115233 0.0837117 0 0.117467 0.0836233 0 0.1197 0.083535 0 0.121933 0.0834466 0 0.124167 0.0833583 0 0.1264 0.0832699 0 0.128633 0.0831816 0 0.130867 0.0830932 0 0.1331 0.0830049 0 0.135333 0.0829165 0 0.137567 0.0828282 0 0.1398 0.0827398 0 0.142033 0.0826515 0 0.144267 0.0825631 0 0.1465 0.0824748 0 0.113 0.0869333 0 0.115233 0.0868548 0 0.117467 0.0867763 0 0.1197 0.0866977 0 0.121933 0.0866192 0 0.124167 0.0865407 0 0.1264 0.0864621 0 0.128633 0.0863836 0 0.130867 0.0863051 0 0.1331 0.0862265 0 0.135333 0.086148 0 0.137567 0.0860695 0 0.1398 0.0859909 0 0.142033 0.0859124 0 0.144267 0.0858339 0 0.1465 0.0857553 0 0.113 0.0900667 0 0.115233 0.089998 0 0.117467 0.0899292 0 0.1197 0.0898605 0 0.121933 0.0897918 0 0.124167 0.0897231 0 0.1264 0.0896544 0 0.128633 0.0895857 0 0.130867 0.0895169 0 0.1331 0.0894482 0 0.135333 0.0893795 0 0.137567 0.0893108 0 0.1398 0.0892421 0 0.142033 0.0891734 0 0.144267 0.0891046 0 0.1465 0.0890359 0 0.113 0.0932 0 0.115233 0.0931411 0 0.117467 0.0930822 0 0.1197 0.0930233 0 0.121933 0.0929644 0 0.124167 0.0929055 0 0.1264 0.0928466 0 0.128633 0.0927877 0 0.130867 0.0927288 0 0.1331 0.0926699 0 0.135333 0.092611 0 0.137567 0.0925521 0 0.1398 0.0924932 0 0.142033 0.0924343 0 0.144267 0.0923754 0 0.1465 0.0923165 0 0.113 0.0963333 0 0.115233 0.0962843 0 0.117467 0.0962352 0 0.1197 0.0961861 0 0.121933 0.096137 0 0.124167 0.0960879 0 0.1264 0.0960388 0 0.128633 0.0959898 0 0.130867 0.0959407 0 0.1331 0.0958916 0 0.135333 0.0958425 0 0.137567 0.0957934 0 0.1398 0.0957443 0 0.142033 0.0956953 0 0.144267 0.0956462 0 0.1465 0.0955971 0 0.113 0.0994667 0 0.115233 0.0994274 0 0.117467 0.0993881 0 0.1197 0.0993489 0 0.121933 0.0993096 0 0.124167 0.0992703 0 0.1264 0.0992311 0 0.128633 0.0991918 0 0.130867 0.0991525 0 0.1331 0.0991133 0 0.135333 0.099074 0 0.137567 0.0990347 0 0.1398 0.0989955 0 0.142033 0.0989562 0 0.144267 0.0989169 0 0.1465 0.0988777 0 0.113 0.1026 0 0.115233 0.102571 0 0.117467 0.102541 0 0.1197 0.102512 0 0.121933 0.102482 0 0.124167 0.102453 0 0.1264 0.102423 0 0.128633 0.102394 0 0.130867 0.102364 0 0.1331 0.102335 0 0.135333 0.102306 0 0.137567 0.102276 0 0.1398 0.102247 0 0.142033 0.102217 0 0.144267 0.102188 0 0.1465 0.102158 0 0.113 0.105733 0 0.115233 0.105714 0 0.117467 0.105694 0 0.1197 0.105674 0 0.121933 0.105655 0 0.124167 0.105635 0 0.1264 0.105616 0 0.128633 0.105596 0 0.130867 0.105576 0 0.1331 0.105557 0 0.135333 0.105537 0 0.137567 0.105517 0 0.1398 0.105498 0 0.142033 0.105478 0 0.144267 0.105458 0 0.1465 0.105439 0 0.113 0.108867 0 0.115233 0.108857 0 0.117467 0.108847 0 0.1197 0.108837 0 0.121933 0.108827 0 0.124167 0.108818 0 0.1264 0.108808 0 0.128633 0.108798 0 0.130867 0.108788 0 0.1331 0.108778 0 0.135333 0.108769 0 0.137567 0.108759 0 0.1398 0.108749 0 0.142033 0.108739 0 0.144267 0.108729 0 0.1465 0.108719 0 0.113 0.112 0 0.115233 0.112 0 0.117467 0.112 0 0.1197 0.112 0 0.121933 0.112 0 0.124167 0.112 0 0.1264 0.112 0 0.128633 0.112 0 0.130867 0.112 0 0.1331 0.112 0 0.135333 0.112 0 0.137567 0.112 0 0.1398 0.112 0 0.142033 0.112 0 0.144267 0.112 0 0.1465 0.112 0 
</DataArray>
</Points> 
</Piece> 
</StructuredGrid> 
</VTKFile> 
