<?xml version="1.0"?> 
<VTKFile type="StructuredGrid" version="0.1"> 
<StructuredGrid WholeExtent="0 15 0 15 0 0"> 
<Piece Extent="0 15 0 15 0 0"> 
<PointData>
<DataArray type="Float32" Name="|E|" format="ascii" NumberOfComponents="3"> 
4.47035e-08 4.74377e+06 0 -2.8871e-08 3.5785e+06 0 1.67638e-08 2.63583e+06 0 -1.86265e-09 1.99703e+06 0 -3.72529e-09 1.51247e+06 0 -2.98023e-08 1.1058e+06 0 1.86265e-08 760149 0 2.23517e-08 482237 0 -1.49012e-08 280746 0 -1.49012e-08 151350 0 -1.49012e-08 77074.5 0 5.21541e-08 37898.1 0 -5.21541e-08 18289 0 3.72529e-08 8770.97 0 -5.96046e-08 4150.06 0 1.49012e-07 2918.21 0 -334265 3.977e+06 0 -250299 2.91025e+06 0 -170905 2.20249e+06 0 -133155 1.69949e+06 0 -113141 1.28311e+06 0 -96824.8 923467 0 -78768.5 621049 0 -58310.4 385856 0 -38561.3 221758 0 -22901 119468 0 -12492.2 61528.2 0 -6441.23 30851.5 0 -3212.85 15256 0 -1566.82 7494.25 0 -759.879 3750.08 0 -126.083 1694.63 0 -546199 3.07496e+06 0 -377230 2.36018e+06 0 -283618 1.8498e+06 0 -239463 1.4337e+06 0 -207944 1.06815e+06 0 -175920 751061 0 -138410 491142 0 -98486.5 297516 0 -63048 168319 0 -36803.7 90458.5 0 -20082.1 47051.4 0 -10503.5 24030.5 0 -5357.02 12162.7 0 -2692.78 6140.48 0 -1302.9 3118.88 0 -518.177 1492.26 0 -598015 2.44269e+06 0 -448171 1.95374e+06 0 -374191 1.54747e+06 0 -328431 1.18706e+06 0 -285269 864353 0 -234973 588305 0 -177398 371221 0 -121151 218127 0 -75262.1 121202 0 -43371 64960.3 0 -23765 34136.9 0 -12635.7 17764.6 0 -6600.37 9203.53 0 -3403.87 4768.66 0 -1703.83 2470.19 0 -804.959 1194.75 0 -615037 2.00205e+06 0 -512202 1.61874e+06 0 -452963 1.27403e+06 0 -401632 954939 0 -342311 670502 0 -270856 436224 0 -195144 263075 0 -127949 149172 0 -77463.6 81337.7 0 -44321.1 43534.9 0 -24498.5 23144.7 0 -13276.5 12277.8 0 -7109.15 6511.06 0 -3765.84 3457.71 0 -1955.78 1825.21 0 -998.905 920.865 0 -647844 1.6505e+06 0 -576380 1.3249e+06 0 -520382 1.01801e+06 0 -455459 732211 0 -373764 486654 0 -281105 297641 0 -192702 169484 0 -121669 92206.2 0 -72280 49320.1 0 -41353.7 26405.6 0 -23173 14216.3 0 -12833.7 7687.06 0 -7051.9 4168.85 0 -3841.91 2264.26 0 -2067.9 1217.8 0 -1106.46 628.941 0 -696358 1.34333e+06 0 -637282 1.04971e+06 0 -570446 769353 0 -481336 517443 0 -374200 316738 0 -265595 177477 0 -173361 93520.3 0 -106147 48259.2 0 -62475.5 25210.1 0 -36030.9 13470.3 0 -20567.6 7323.06 0 -11668.6 4021.24 0 -6586.65 2220.4 0 -3694.24 1226 0 -2056.91 666.503 0 -1141.04 348.12 0 -751629 1.05322e+06 0 -683880 777972 0 -589600 524366 0 -469261 315492 0 -341422 168768 0 -228154 81573.8 0 -142721 37357.3 0 -85769.1 17286.4 0 -50611.6 8427.94 0 -29656.8 4327.29 0 -17317.9 2296.48 0 -10084.7 1240.57 0 -5853.68 674.903 0 -3381.99 363.168 0 -1944.85 186.459 0 -1113.87 86.6944 0 -795456 758422 0 -694688 502319 0 -560985 289218 0 -413787 139075 0 -280038 53239.2 0 -177158 14379 0 -107768 1025.87 0 -64639.5 -2082.17 0 -38710.5 -2156.6 0 -23199.1 -1629.88 0 -13902 -1121.35 0 -8322.19 -742.403 0 -4971.4 -484.63 0 -2959.57 -318.454 0 -1755.64 -213.383 0 -1035.69 -144.832 0 -793428 446386 0 -642701 232090 0 -474808 84430.1 0 -321241 6246.48 0 -203113 -21538.8 0 -123856 -23845.4 0 -75011.3 -18198 0 -45732.9 -12300.9 0 -28065.6 -7975.14 0 -17277.4 -5092.51 0 -10646.9 -3229.84 0 -6559.11 -2043.18 0 -4034.79 -1294.05 0 -2475.13 -824.397 0 -1512.89 -529.226 0 -917.299 -340.253 0 -704239 135014 0 -513861 1707.08 0 -342019 -59736.5 0 -213038 -68887.3 0 -128848 -55393.2 0 -78352 -38393.3 0 -48545.4 -25149.2 0 -30492.9 -16237.3 0 -19273.6 -10457.6 0 -12214.9 -6729.69 0 -7750.18 -4329.99 0 -4917.18 -2788.79 0 -3115.92 -1800.96 0 -1969.26 -1168.63 0 -1238.56 -762.053 0 -769.178 -495.909 0 -514479 -113239 0 -331106 -139718 0 -199212 -121964 0 -118266 -88338.5 0 -72080.7 -58926.3 0 -45533.7 -38352.6 0 -29362.2 -25030 0 -19077.1 -16427.1 0 -12433.9 -10808.6 0 -8120.73 -7120.79 0 -5309.13 -4697.62 0 -3470.63 -3105.13 0 -2265.81 -2058.63 0 -1474.49 -1370.87 0 -952.149 -916.957 0 -601.216 -611.292 0 -276367 -221451 0 -157240 -167012 0 -90734.2 -113370 0 -56088.4 -73863.7 0 -36622.5 -48461.1 0 -24443.2 -32287.3 0 -16365.5 -21730.8 0 -10974.8 -14677.7 0 -7378.01 -9931.01 0 -4969.01 -6729.99 0 -3348.81 -4568.73 0 -2255.99 -3108.27 0 -1517.14 -2121.18 0 -1015.43 -1454.24 0 -670.441 -1002.53 0 -422.209 -688.902 0 -91914.4 -180761 0 -51913.9 -118362 0 -34325.9 -77254.9 0 -23982.3 -52305.3 0 -16730.3 -36056.3 0 -11550.3 -25021.9 0 -7963.81 -17402.4 0 -5512.21 -12120 0 -3825.32 -8454.68 0 -2657.59 -5906.97 0 -1846.5 -4133.78 0 -1281.79 -2899.14 0 -887.467 -2039.88 0 -609.492 -1443.26 0 -408.033 -1030.15 0 -240.827 -738.486 0 -17177.8 -95328.2 0 -14151.3 -69159.3 0 -11238.1 -49639.9 0 -8043.6 -35650.3 0 -5662.52 -25470.8 0 -3998.9 -18259.8 0 -2853.62 -13116.9 0 -2043.17 -9436.61 0 -1463.91 -6796.69 0 -1049.02 -4900.82 0 -751.362 -3538.98 0 -537.266 -2561.25 0 -382.65 -1860.62 0 -268.231 -1362.06 0 -179.781 -1013.8 0 -70.2195 -775.844 0 -5.96046e-08 -65429.9 0 1.63913e-07 -45323.5 0 -1.04308e-07 -31123.3 0 5.58794e-08 -22579.1 0 -2.98023e-08 -16829.1 0 4.47035e-08 -12572.5 0 -4.47035e-08 -9365.04 0 5.96046e-08 -6970.75 0 -4.47035e-08 -5190.93 0 1.04308e-07 -3868.56 0 -5.96046e-08 -2886.68 0 1.49012e-08 -2159 0 -2.98023e-08 -1622.06 0 5.96046e-08 -1231.98 0 0 -962.034 0 5.96046e-08 -876.347 0 </DataArray> 
</PointData> 
<Points> 
<DataArray type="Float32" NumberOfComponents="3"> 
0.075 0.021 0 0.0783333 0.021 0 0.0816667 0.021 0 0.085 0.021 0 0.0883333 0.021 0 0.0916667 0.021 0 0.095 0.021 0 0.0983333 0.021 0 0.101667 0.021 0 0.105 0.021 0 0.108333 0.021 0 0.111667 0.021 0 0.115 0.021 0 0.118333 0.021 0 0.121667 0.021 0 0.125 0.021 0 0.0773333 0.0219333 0 0.0805333 0.0219333 0 0.0837333 0.0219333 0 0.0869333 0.0219333 0 0.0901333 0.0219333 0 0.0933333 0.0219333 0 0.0965333 0.0219333 0 0.0997333 0.0219333 0 0.102933 0.0219333 0 0.106133 0.0219333 0 0.109333 0.0219333 0 0.112533 0.0219333 0 0.115733 0.0219333 0 0.118933 0.0219333 0 0.122133 0.0219333 0 0.125333 0.0219333 0 0.0796667 0.0228667 0 0.0827333 0.0228667 0 0.0858 0.0228667 0 0.0888667 0.0228667 0 0.0919333 0.0228667 0 0.095 0.0228667 0 0.0980667 0.0228667 0 0.101133 0.0228667 0 0.1042 0.0228667 0 0.107267 0.0228667 0 0.110333 0.0228667 0 0.1134 0.0228667 0 0.116467 0.0228667 0 0.119533 0.0228667 0 0.1226 0.0228667 0 0.125667 0.0228667 0 0.082 0.0238 0 0.0849333 0.0238 0 0.0878667 0.0238 0 0.0908 0.0238 0 0.0937333 0.0238 0 0.0966667 0.0238 0 0.0996 0.0238 0 0.102533 0.0238 0 0.105467 0.0238 0 0.1084 0.0238 0 0.111333 0.0238 0 0.114267 0.0238 0 0.1172 0.0238 0 0.120133 0.0238 0 0.123067 0.0238 0 0.126 0.0238 0 0.0843333 0.0247333 0 0.0871333 0.0247333 0 0.0899333 0.0247333 0 0.0927333 0.0247333 0 0.0955333 0.0247333 0 0.0983333 0.0247333 0 0.101133 0.0247333 0 0.103933 0.0247333 0 0.106733 0.0247333 0 0.109533 0.0247333 0 0.112333 0.0247333 0 0.115133 0.0247333 0 0.117933 0.0247333 0 0.120733 0.0247333 0 0.123533 0.0247333 0 0.126333 0.0247333 0 0.0866667 0.0256667 0 0.0893333 0.0256667 0 0.092 0.0256667 0 0.0946667 0.0256667 0 0.0973333 0.0256667 0 0.1 0.0256667 0 0.102667 0.0256667 0 0.105333 0.0256667 0 0.108 0.0256667 0 0.110667 0.0256667 0 0.113333 0.0256667 0 0.116 0.0256667 0 0.118667 0.0256667 0 0.121333 0.0256667 0 0.124 0.0256667 0 0.126667 0.0256667 0 0.089 0.0266 0 0.0915333 0.0266 0 0.0940667 0.0266 0 0.0966 0.0266 0 0.0991333 0.0266 0 0.101667 0.0266 0 0.1042 0.0266 0 0.106733 0.0266 0 0.109267 0.0266 0 0.1118 0.0266 0 0.114333 0.0266 0 0.116867 0.0266 0 0.1194 0.0266 0 0.121933 0.0266 0 0.124467 0.0266 0 0.127 0.0266 0 0.0913333 0.0275333 0 0.0937333 0.0275333 0 0.0961333 0.0275333 0 0.0985333 0.0275333 0 0.100933 0.0275333 0 0.103333 0.0275333 0 0.105733 0.0275333 0 0.108133 0.0275333 0 0.110533 0.0275333 0 0.112933 0.0275333 0 0.115333 0.0275333 0 0.117733 0.0275333 0 0.120133 0.0275333 0 0.122533 0.0275333 0 0.124933 0.0275333 0 0.127333 0.0275333 0 0.0936667 0.0284667 0 0.0959333 0.0284667 0 0.0982 0.0284667 0 0.100467 0.0284667 0 0.102733 0.0284667 0 0.105 0.0284667 0 0.107267 0.0284667 0 0.109533 0.0284667 0 0.1118 0.0284667 0 0.114067 0.0284667 0 0.116333 0.0284667 0 0.1186 0.0284667 0 0.120867 0.0284667 0 0.123133 0.0284667 0 0.1254 0.0284667 0 0.127667 0.0284667 0 0.096 0.0294 0 0.0981333 0.0294 0 0.100267 0.0294 0 0.1024 0.0294 0 0.104533 0.0294 0 0.106667 0.0294 0 0.1088 0.0294 0 0.110933 0.0294 0 0.113067 0.0294 0 0.1152 0.0294 0 0.117333 0.0294 0 0.119467 0.0294 0 0.1216 0.0294 0 0.123733 0.0294 0 0.125867 0.0294 0 0.128 0.0294 0 0.0983333 0.0303333 0 0.100333 0.0303333 0 0.102333 0.0303333 0 0.104333 0.0303333 0 0.106333 0.0303333 0 0.108333 0.0303333 0 0.110333 0.0303333 0 0.112333 0.0303333 0 0.114333 0.0303333 0 0.116333 0.0303333 0 0.118333 0.0303333 0 0.120333 0.0303333 0 0.122333 0.0303333 0 0.124333 0.0303333 0 0.126333 0.0303333 0 0.128333 0.0303333 0 0.100667 0.0312667 0 0.102533 0.0312667 0 0.1044 0.0312667 0 0.106267 0.0312667 0 0.108133 0.0312667 0 0.11 0.0312667 0 0.111867 0.0312667 0 0.113733 0.0312667 0 0.1156 0.0312667 0 0.117467 0.0312667 0 0.119333 0.0312667 0 0.1212 0.0312667 0 0.123067 0.0312667 0 0.124933 0.0312667 0 0.1268 0.0312667 0 0.128667 0.0312667 0 0.103 0.0322 0 0.104733 0.0322 0 0.106467 0.0322 0 0.1082 0.0322 0 0.109933 0.0322 0 0.111667 0.0322 0 0.1134 0.0322 0 0.115133 0.0322 0 0.116867 0.0322 0 0.1186 0.0322 0 0.120333 0.0322 0 0.122067 0.0322 0 0.1238 0.0322 0 0.125533 0.0322 0 0.127267 0.0322 0 0.129 0.0322 0 0.105333 0.0331333 0 0.106933 0.0331333 0 0.108533 0.0331333 0 0.110133 0.0331333 0 0.111733 0.0331333 0 0.113333 0.0331333 0 0.114933 0.0331333 0 0.116533 0.0331333 0 0.118133 0.0331333 0 0.119733 0.0331333 0 0.121333 0.0331333 0 0.122933 0.0331333 0 0.124533 0.0331333 0 0.126133 0.0331333 0 0.127733 0.0331333 0 0.129333 0.0331333 0 0.107667 0.0340667 0 0.109133 0.0340667 0 0.1106 0.0340667 0 0.112067 0.0340667 0 0.113533 0.0340667 0 0.115 0.0340667 0 0.116467 0.0340667 0 0.117933 0.0340667 0 0.1194 0.0340667 0 0.120867 0.0340667 0 0.122333 0.0340667 0 0.1238 0.0340667 0 0.125267 0.0340667 0 0.126733 0.0340667 0 0.1282 0.0340667 0 0.129667 0.0340667 0 0.11 0.035 0 0.111333 0.035 0 0.112667 0.035 0 0.114 0.035 0 0.115333 0.035 0 0.116667 0.035 0 0.118 0.035 0 0.119333 0.035 0 0.120667 0.035 0 0.122 0.035 0 0.123333 0.035 0 0.124667 0.035 0 0.126 0.035 0 0.127333 0.035 0 0.128667 0.035 0 0.13 0.035 0 
</DataArray>
</Points> 
</Piece> 
</StructuredGrid> 
</VTKFile> 
