<?xml version="1.0"?> 
<VTKFile type="StructuredGrid" version="0.1"> 
<StructuredGrid WholeExtent="0 15 0 15 0 0"> 
<Piece Extent="0 15 0 15 0 0"> 
<PointData>
<DataArray type="Float32" Name="|E|" format="ascii" NumberOfComponents="3"> 
1.23497e+06 -126017 0 1.58047e+06 -98230.9 0 1.7336e+06 -27817.3 0 1.71631e+06 29944.9 0 1.59768e+06 59209.2 0 1.43683e+06 68383.7 0 1.26923e+06 67085.3 0 1.11253e+06 60627.1 0 974206 52440 0 856640 43805 0 759835 35456.1 0 682839 27568.2 0 624439 20181.6 0 583499 13209.2 0 559131 6530.83 0 550766 0 0 1.23593e+06 -126115 0 1.58258e+06 -106120 0 1.73596e+06 -29076.1 0 1.71721e+06 32092.1 0 1.59792e+06 63184.1 0 1.43658e+06 72915.5 0 1.26884e+06 71471.2 0 1.1121e+06 64591.2 0 973806 55855.3 0 856287 46659 0 759531 37763.3 0 682579 29362.2 0 624214 21494.2 0 583300 14068.2 0 558947 6955.35 0 550587 0 0 1.23604e+06 -126126 0 1.58503e+06 -114062 0 1.73838e+06 -30285.7 0 1.7182e+06 34269.6 0 1.59817e+06 67179.5 0 1.43634e+06 77455.2 0 1.26844e+06 75859.9 0 1.11166e+06 68554.8 0 973392 59269.6 0 855918 49511.4 0 759212 40069.2 0 682305 31155.1 0 623976 22806 0 583088 14926.6 0 558751 7379.6 0 550397 0 0 1.23529e+06 -126050 0 1.58784e+06 -122070 0 1.74086e+06 -31442.1 0 1.71928e+06 36478.7 0 1.59844e+06 71195.8 0 1.43611e+06 82003.6 0 1.26803e+06 80251.3 0 1.1112e+06 72518.4 0 972962 62682.7 0 855535 52362.4 0 758880 42373.8 0 682018 32946.8 0 623726 24117 0 582865 15784.5 0 558544 7803.57 0 550195 0 0 1.23367e+06 -125885 0 1.591e+06 -130156 0 1.74339e+06 -32541.4 0 1.72045e+06 38720.6 0 1.59873e+06 75233.5 0 1.43588e+06 86561.4 0 1.26762e+06 84645.4 0 1.11073e+06 76482 0 972517 66094.6 0 855136 55211.9 0 758533 44676.9 0 681718 34737.3 0 623463 25427.1 0 582629 16641.8 0 558325 8227.25 0 549982 0 0 1.23116e+06 -125628 0 1.59453e+06 -138333 0 1.74598e+06 -33579.5 0 1.72171e+06 40996.6 0 1.59904e+06 79292.9 0 1.43565e+06 91129.6 0 1.26719e+06 89042.1 0 1.11025e+06 80446 0 972057 69505.2 0 854723 58060 0 758172 46978.7 0 681405 36526.7 0 623188 26736.3 0 582382 17498.5 0 558095 8650.64 0 549758 0 0 1.22773e+06 -125279 0 1.59845e+06 -146614 0 1.74861e+06 -34552.3 0 1.72307e+06 43308 0 1.59936e+06 83374.6 0 1.43543e+06 95708.9 0 1.26675e+06 93441.4 0 1.10976e+06 84410.4 0 971582 72914.4 0 854295 60906.7 0 757797 49278.9 0 681078 38315 0 622901 28044.6 0 582123 18354.6 0 557853 9073.73 0 549522 0 0 1.22336e+06 -124833 0 1.60277e+06 -155012 0 1.75129e+06 -35455.2 0 1.72453e+06 45655.8 0 1.59969e+06 87478.7 0 1.43522e+06 100300 0 1.2663e+06 97843 0 1.10925e+06 88375.6 0 971091 76322.1 0 853852 63752 0 757408 51577.6 0 680738 40102 0 622601 29351.9 0 581853 19210.1 0 557600 9496.51 0 549275 0 0 1.21802e+06 -124288 0 1.60752e+06 -163540 0 1.754e+06 -36283.6 0 1.72609e+06 48041.4 0 1.60004e+06 91605.5 0 1.43501e+06 104904 0 1.26584e+06 102247 0 1.10872e+06 92341.8 0 970585 79728.3 0 853393 66596 0 757004 53874.8 0 680384 41887.8 0 622288 30658.3 0 581570 20065 0 557335 9918.98 0 549017 0 0 1.21167e+06 -123639 0 1.61272e+06 -172213 0 1.75674e+06 -37032.9 0 1.72775e+06 50466.2 0 1.6004e+06 95755.4 0 1.4348e+06 109523 0 1.26537e+06 106653 0 1.10819e+06 96309.3 0 970063 83132.8 0 852920 69438.7 0 756586 56170.3 0 680018 43672.4 0 621963 31963.7 0 581275 20919.2 0 557059 10341.1 0 548747 0 0 1.20427e+06 -122884 0 1.6184e+06 -181043 0 1.7595e+06 -37698 0 1.72951e+06 52931.5 0 1.60076e+06 99928.3 0 1.43461e+06 114156 0 1.26489e+06 111060 0 1.10764e+06 100278 0 969526 86535.5 0 852432 72280.1 0 756154 58464.2 0 679638 45455.7 0 621626 33268 0 580969 21772.8 0 556772 10762.9 0 548466 0 0 1.19577e+06 -122017 0 1.62459e+06 -190046 0 1.76226e+06 -38273.9 0 1.73139e+06 55438.5 0 1.60113e+06 104124 0 1.43442e+06 118805 0 1.26439e+06 115469 0 1.10707e+06 104250 0 968974 89936.2 0 851929 75120.4 0 755708 60756.3 0 679244 47237.8 0 621276 34571.4 0 580651 22625.7 0 556473 11184.4 0 548174 0 0 1.18613e+06 -121033 0 1.63132e+06 -199236 0 1.76501e+06 -38755 0 1.73338e+06 57989 0 1.6015e+06 108343 0 1.43423e+06 123471 0 1.26388e+06 119879 0 1.1065e+06 108223 0 968406 93334.8 0 851411 77959.5 0 755248 63046.6 0 678838 49018.7 0 620914 35873.6 0 580321 23478 0 556163 11605.5 0 547870 0 0 1.17528e+06 -119927 0 1.63864e+06 -208628 0 1.76774e+06 -39135.9 0 1.73549e+06 60584.3 0 1.60187e+06 112585 0 1.43406e+06 128156 0 1.26336e+06 124289 0 1.10591e+06 112199 0 967822 96731 0 850878 80797.7 0 754773 65335 0 678418 50798.3 0 620539 37174.8 0 579979 24329.5 0 555841 12026.3 0 547556 0 0 1.16317e+06 -118691 0 1.64658e+06 -218238 0 1.77043e+06 -39410.8 0 1.73774e+06 63226.1 0 1.60224e+06 116849 0 1.43389e+06 132862 0 1.26282e+06 128700 0 1.10531e+06 116179 0 967222 100125 0 850330 83634.9 0 754284 67621.4 0 677984 52576.7 0 620151 38474.8 0 579625 25180.4 0 555508 12446.7 0 547230 0 0 1.14973e+06 -117319 0 1.65519e+06 -228081 0 1.77306e+06 -39573.6 0 1.74012e+06 65916.4 0 1.6026e+06 121134 0 1.43374e+06 137589 0 1.26227e+06 133109 0 1.10469e+06 120162 0 966607 103515 0 849768 86471.3 0 753781 69905.7 0 677538 54353.9 0 619752 39773.7 0 579260 26030.6 0 555163 12866.7 0 546892 0 0 </DataArray> 
</PointData> 
<Points> 
<DataArray type="Float32" NumberOfComponents="3"> 
0.19 0.005 0 0.2022 0.005 0 0.2144 0.005 0 0.2266 0.005 0 0.2388 0.005 0 0.251 0.005 0 0.2632 0.005 0 0.2754 0.005 0 0.2876 0.005 0 0.2998 0.005 0 0.312 0.005 0 0.3242 0.005 0 0.3364 0.005 0 0.3486 0.005 0 0.3608 0.005 0 0.373 0.005 0 0.190033 0.00532667 0 0.202231 0.00532667 0 0.214429 0.00532667 0 0.226627 0.00532667 0 0.238824 0.00532667 0 0.251022 0.00532667 0 0.26322 0.00532667 0 0.275418 0.00532667 0 0.287616 0.00532667 0 0.299813 0.00532667 0 0.312011 0.00532667 0 0.324209 0.00532667 0 0.336407 0.00532667 0 0.348604 0.00532667 0 0.360802 0.00532667 0 0.373 0.00532667 0 0.190067 0.00565333 0 0.202262 0.00565333 0 0.214458 0.00565333 0 0.226653 0.00565333 0 0.238849 0.00565333 0 0.251044 0.00565333 0 0.26324 0.00565333 0 0.275436 0.00565333 0 0.287631 0.00565333 0 0.299827 0.00565333 0 0.312022 0.00565333 0 0.324218 0.00565333 0 0.336413 0.00565333 0 0.348609 0.00565333 0 0.360804 0.00565333 0 0.373 0.00565333 0 0.1901 0.00598 0 0.202293 0.00598 0 0.214487 0.00598 0 0.22668 0.00598 0 0.238873 0.00598 0 0.251067 0.00598 0 0.26326 0.00598 0 0.275453 0.00598 0 0.287647 0.00598 0 0.29984 0.00598 0 0.312033 0.00598 0 0.324227 0.00598 0 0.33642 0.00598 0 0.348613 0.00598 0 0.360807 0.00598 0 0.373 0.00598 0 0.190133 0.00630667 0 0.202324 0.00630667 0 0.214516 0.00630667 0 0.226707 0.00630667 0 0.238898 0.00630667 0 0.251089 0.00630667 0 0.26328 0.00630667 0 0.275471 0.00630667 0 0.287662 0.00630667 0 0.299853 0.00630667 0 0.312044 0.00630667 0 0.324236 0.00630667 0 0.336427 0.00630667 0 0.348618 0.00630667 0 0.360809 0.00630667 0 0.373 0.00630667 0 0.190167 0.00663333 0 0.202356 0.00663333 0 0.214544 0.00663333 0 0.226733 0.00663333 0 0.238922 0.00663333 0 0.251111 0.00663333 0 0.2633 0.00663333 0 0.275489 0.00663333 0 0.287678 0.00663333 0 0.299867 0.00663333 0 0.312056 0.00663333 0 0.324244 0.00663333 0 0.336433 0.00663333 0 0.348622 0.00663333 0 0.360811 0.00663333 0 0.373 0.00663333 0 0.1902 0.00696 0 0.202387 0.00696 0 0.214573 0.00696 0 0.22676 0.00696 0 0.238947 0.00696 0 0.251133 0.00696 0 0.26332 0.00696 0 0.275507 0.00696 0 0.287693 0.00696 0 0.29988 0.00696 0 0.312067 0.00696 0 0.324253 0.00696 0 0.33644 0.00696 0 0.348627 0.00696 0 0.360813 0.00696 0 0.373 0.00696 0 0.190233 0.00728667 0 0.202418 0.00728667 0 0.214602 0.00728667 0 0.226787 0.00728667 0 0.238971 0.00728667 0 0.251156 0.00728667 0 0.26334 0.00728667 0 0.275524 0.00728667 0 0.287709 0.00728667 0 0.299893 0.00728667 0 0.312078 0.00728667 0 0.324262 0.00728667 0 0.336447 0.00728667 0 0.348631 0.00728667 0 0.360816 0.00728667 0 0.373 0.00728667 0 0.190267 0.00761333 0 0.202449 0.00761333 0 0.214631 0.00761333 0 0.226813 0.00761333 0 0.238996 0.00761333 0 0.251178 0.00761333 0 0.26336 0.00761333 0 0.275542 0.00761333 0 0.287724 0.00761333 0 0.299907 0.00761333 0 0.312089 0.00761333 0 0.324271 0.00761333 0 0.336453 0.00761333 0 0.348636 0.00761333 0 0.360818 0.00761333 0 0.373 0.00761333 0 0.1903 0.00794 0 0.20248 0.00794 0 0.21466 0.00794 0 0.22684 0.00794 0 0.23902 0.00794 0 0.2512 0.00794 0 0.26338 0.00794 0 0.27556 0.00794 0 0.28774 0.00794 0 0.29992 0.00794 0 0.3121 0.00794 0 0.32428 0.00794 0 0.33646 0.00794 0 0.34864 0.00794 0 0.36082 0.00794 0 0.373 0.00794 0 0.190333 0.00826667 0 0.202511 0.00826667 0 0.214689 0.00826667 0 0.226867 0.00826667 0 0.239044 0.00826667 0 0.251222 0.00826667 0 0.2634 0.00826667 0 0.275578 0.00826667 0 0.287756 0.00826667 0 0.299933 0.00826667 0 0.312111 0.00826667 0 0.324289 0.00826667 0 0.336467 0.00826667 0 0.348644 0.00826667 0 0.360822 0.00826667 0 0.373 0.00826667 0 0.190367 0.00859333 0 0.202542 0.00859333 0 0.214718 0.00859333 0 0.226893 0.00859333 0 0.239069 0.00859333 0 0.251244 0.00859333 0 0.26342 0.00859333 0 0.275596 0.00859333 0 0.287771 0.00859333 0 0.299947 0.00859333 0 0.312122 0.00859333 0 0.324298 0.00859333 0 0.336473 0.00859333 0 0.348649 0.00859333 0 0.360824 0.00859333 0 0.373 0.00859333 0 0.1904 0.00892 0 0.202573 0.00892 0 0.214747 0.00892 0 0.22692 0.00892 0 0.239093 0.00892 0 0.251267 0.00892 0 0.26344 0.00892 0 0.275613 0.00892 0 0.287787 0.00892 0 0.29996 0.00892 0 0.312133 0.00892 0 0.324307 0.00892 0 0.33648 0.00892 0 0.348653 0.00892 0 0.360827 0.00892 0 0.373 0.00892 0 0.190433 0.00924667 0 0.202604 0.00924667 0 0.214776 0.00924667 0 0.226947 0.00924667 0 0.239118 0.00924667 0 0.251289 0.00924667 0 0.26346 0.00924667 0 0.275631 0.00924667 0 0.287802 0.00924667 0 0.299973 0.00924667 0 0.312144 0.00924667 0 0.324316 0.00924667 0 0.336487 0.00924667 0 0.348658 0.00924667 0 0.360829 0.00924667 0 0.373 0.00924667 0 0.190467 0.00957333 0 0.202636 0.00957333 0 0.214804 0.00957333 0 0.226973 0.00957333 0 0.239142 0.00957333 0 0.251311 0.00957333 0 0.26348 0.00957333 0 0.275649 0.00957333 0 0.287818 0.00957333 0 0.299987 0.00957333 0 0.312156 0.00957333 0 0.324324 0.00957333 0 0.336493 0.00957333 0 0.348662 0.00957333 0 0.360831 0.00957333 0 0.373 0.00957333 0 0.1905 0.0099 0 0.202667 0.0099 0 0.214833 0.0099 0 0.227 0.0099 0 0.239167 0.0099 0 0.251333 0.0099 0 0.2635 0.0099 0 0.275667 0.0099 0 0.287833 0.0099 0 0.3 0.0099 0 0.312167 0.0099 0 0.324333 0.0099 0 0.3365 0.0099 0 0.348667 0.0099 0 0.360833 0.0099 0 0.373 0.0099 0 
</DataArray>
</Points> 
</Piece> 
</StructuredGrid> 
</VTKFile> 
