<?xml version="1.0"?> 
<VTKFile type="StructuredGrid" version="0.1"> 
<StructuredGrid WholeExtent="0 15 0 15 0 0"> 
<Piece Extent="0 15 0 15 0 0"> 
<PointData>
<DataArray type="Float32" Name="|E|" format="ascii" NumberOfComponents="3"> 
1.30744e+06 -7.15256e-07 0 1.55843e+06 0.172503 0 1.72129e+06 -0.0367555 0 1.70688e+06 -0.0195609 0 1.59428e+06 -0.0146844 0 1.43616e+06 -0.0094803 0 1.27016e+06 -0.00299703 0 1.11407e+06 -0.00183125 0 975958 -5.44488e-05 0 858390 0.000116967 0 761503 0.000428967 0 684404 0.000377536 0 625908 0.000340901 0 584893 0.000231925 0 560478 0.000121413 0 552097 0 0 1.30714e+06 -2.75671e-07 0 1.55852e+06 -6927.22 0 1.72135e+06 -1749.05 0 1.70692e+06 1936.09 0 1.59429e+06 3910.12 0 1.43616e+06 4545.77 0 1.27015e+06 4462.25 0 1.11406e+06 4043.03 0 975950 3496.91 0 858382 2923.24 0 761496 2365.72 0 684397 1839.52 0 625901 1346.3 0 584887 880.986 0 560472 435.418 0 552091 0 0 1.30624e+06 2.08616e-07 0 1.55877e+06 -13865.7 0 1.72153e+06 -3495.7 0 1.70704e+06 3873.46 0 1.59434e+06 7821.19 0 1.43617e+06 9092.16 0 1.27014e+06 8924.69 0 1.11404e+06 8086.18 0 975927 6993.83 0 858359 5846.47 0 761474 4731.42 0 684376 3679.02 0 625881 2692.58 0 584869 1761.96 0 560454 870.828 0 552073 0 0 1.30474e+06 1.3411e-07 0 1.55919e+06 -20826.4 0 1.72182e+06 -5237.6 0 1.70724e+06 5813.35 0 1.59442e+06 11734.2 0 1.43619e+06 13639.8 0 1.27012e+06 13387.5 0 1.11401e+06 12129.6 0 975888 10490.7 0 858320 8769.69 0 761437 7097.06 0 684341 5518.46 0 625849 4038.82 0 584838 2642.9 0 560424 1306.22 0 552044 0 0 1.30263e+06 -1.78814e-07 0 1.55979e+06 -27820.1 0 1.72222e+06 -6972.44 0 1.70753e+06 7756.96 0 1.59453e+06 15649.9 0 1.43621e+06 18189.2 0 1.27009e+06 17850.9 0 1.11396e+06 16173.3 0 975834 13987.7 0 858265 11692.9 0 761385 9462.62 0 684293 7357.84 0 625803 5384.99 0 584794 3523.79 0 560382 1741.59 0 552002 0 0 1.2999e+06 -5.96046e-08 0 1.56057e+06 -34857.6 0 1.72274e+06 -8697.86 0 1.70789e+06 9705.54 0 1.59467e+06 19569.3 0 1.43623e+06 22741.1 0 1.27006e+06 22315 0 1.1139e+06 20217.5 0 975764 17484.6 0 858195 14616.1 0 761318 11828.1 0 684230 9197.12 0 625744 6731.07 0 584738 4404.63 0 560328 2176.93 0 551949 0 0 1.29654e+06 2.38419e-07 0 1.56154e+06 -41949.8 0 1.72338e+06 -10411.5 0 1.70834e+06 11660.3 0 1.59484e+06 23493.3 0 1.43626e+06 27295.9 0 1.27001e+06 26780.1 0 1.11382e+06 24262.3 0 975678 20981.6 0 858110 17539.2 0 761236 14193.4 0 684154 11036.3 0 625673 8077.05 0 584670 5285.4 0 560263 2612.24 0 551884 0 0 1.29254e+06 -1.19209e-07 0 1.5627e+06 -49108 0 1.72412e+06 -12110.8 0 1.70887e+06 13622.5 0 1.59505e+06 27422.8 0 1.4363e+06 31854.5 0 1.26996e+06 31246.2 0 1.11373e+06 28307.8 0 975577 24478.5 0 858009 20462.3 0 761140 16558.5 0 684063 12875.3 0 625588 9422.89 0 584590 6166.08 0 560185 3047.49 0 551807 0 0 1.28789e+06 0 0 1.56406e+06 -56343.2 0 1.72497e+06 -13793.3 0 1.70949e+06 15593.5 0 1.59528e+06 31358.5 0 1.43635e+06 36417.3 0 1.2699e+06 35713.5 0 1.11363e+06 32354.2 0 975461 27975.5 0 857892 23385.4 0 761029 18923.5 0 683959 14714.2 0 625490 10768.6 0 584497 7046.65 0 560095 3482.69 0 551718 0 0 1.28256e+06 -3.57628e-07 0 1.56564e+06 -63666.6 0 1.72592e+06 -15456.4 0 1.71019e+06 17574.3 0 1.59554e+06 35301.4 0 1.43639e+06 40985.1 0 1.26983e+06 40182.2 0 1.11351e+06 36401.6 0 975328 31472.4 0 857760 26308.4 0 760903 21288.2 0 683841 16552.8 0 625379 12114.1 0 584391 7927.11 0 559993 3917.84 0 551618 0 0 1.27653e+06 4.17233e-07 0 1.56745e+06 -71089.8 0 1.72698e+06 -17097.4 0 1.71098e+06 19566.4 0 1.59583e+06 39252.2 0 1.43645e+06 45558.5 0 1.26975e+06 44652.4 0 1.11338e+06 40450.1 0 975180 34969.3 0 857612 29231.4 0 760762 23652.7 0 683708 18391.3 0 625255 13459.4 0 584274 8807.44 0 559879 4352.91 0 551505 0 0 1.26978e+06 -1.78814e-07 0 1.5695e+06 -78624.4 0 1.72813e+06 -18713.5 0 1.71186e+06 21571.1 0 1.59615e+06 43211.8 0 1.43651e+06 50138.2 0 1.26966e+06 49124.3 0 1.11324e+06 44499.9 0 975017 38466.1 0 857449 32154.3 0 760606 26016.8 0 683562 20229.5 0 625118 14804.5 0 584144 9687.63 0 559754 4787.9 0 551381 0 0 1.26228e+06 0 0 1.5718e+06 -86282.1 0 1.72938e+06 -20301.9 0 1.71283e+06 23589.5 0 1.5965e+06 47180.9 0 1.43658e+06 54724.9 0 1.26957e+06 53597.8 0 1.11308e+06 48551.1 0 974838 41962.9 0 857270 35077.2 0 760436 28380.7 0 683402 22067.5 0 624967 16149.4 0 584001 10567.7 0 559616 5222.81 0 551245 0 0 1.254e+06 0 0 1.57439e+06 -94075 0 1.73071e+06 -21859.6 0 1.7139e+06 25623.2 0 1.59687e+06 51160.2 0 1.43666e+06 59319.4 0 1.26946e+06 58073 0 1.11291e+06 52604 0 974643 45459.6 0 857076 38000.1 0 760250 30744.2 0 683228 23905.3 0 624804 17494 0 583846 11447.5 0 559466 5657.63 0 551097 0 0 1.24491e+06 2.38419e-07 0 1.57727e+06 -102015 0 1.73212e+06 -23383.4 0 1.71506e+06 27673.4 0 1.59726e+06 55150.4 0 1.43674e+06 63922.5 0 1.26935e+06 62550.1 0 1.11273e+06 56658.6 0 974432 48956.1 0 856866 40923 0 760050 33107.3 0 683041 25742.7 0 624628 18838.3 0 583679 12327.2 0 559305 6092.35 0 550938 0 0 1.23497e+06 -2.38419e-07 0 1.58047e+06 -110116 0 1.7336e+06 -24870 0 1.71631e+06 29741.6 0 1.59768e+06 59152 0 1.43683e+06 68535 0 1.26923e+06 67029.1 0 1.11253e+06 60715.3 0 974206 52452.4 0 856640 43845.9 0 759835 35469.9 0 682839 27579.8 0 624439 20182.3 0 583499 13206.7 0 559131 6526.96 0 550766 0 0 </DataArray> 
</PointData> 
<Points> 
<DataArray type="Float32" NumberOfComponents="3"> 
0.19 0 0 0.2022 0 0 0.2144 0 0 0.2266 0 0 0.2388 0 0 0.251 0 0 0.2632 0 0 0.2754 0 0 0.2876 0 0 0.2998 0 0 0.312 0 0 0.3242 0 0 0.3364 0 0 0.3486 0 0 0.3608 0 0 0.373 0 0 0.19 0.000333333 0 0.2022 0.000333333 0 0.2144 0.000333333 0 0.2266 0.000333333 0 0.2388 0.000333333 0 0.251 0.000333333 0 0.2632 0.000333333 0 0.2754 0.000333333 0 0.2876 0.000333333 0 0.2998 0.000333333 0 0.312 0.000333333 0 0.3242 0.000333333 0 0.3364 0.000333333 0 0.3486 0.000333333 0 0.3608 0.000333333 0 0.373 0.000333333 0 0.19 0.000666667 0 0.2022 0.000666667 0 0.2144 0.000666667 0 0.2266 0.000666667 0 0.2388 0.000666667 0 0.251 0.000666667 0 0.2632 0.000666667 0 0.2754 0.000666667 0 0.2876 0.000666667 0 0.2998 0.000666667 0 0.312 0.000666667 0 0.3242 0.000666667 0 0.3364 0.000666667 0 0.3486 0.000666667 0 0.3608 0.000666667 0 0.373 0.000666667 0 0.19 0.001 0 0.2022 0.001 0 0.2144 0.001 0 0.2266 0.001 0 0.2388 0.001 0 0.251 0.001 0 0.2632 0.001 0 0.2754 0.001 0 0.2876 0.001 0 0.2998 0.001 0 0.312 0.001 0 0.3242 0.001 0 0.3364 0.001 0 0.3486 0.001 0 0.3608 0.001 0 0.373 0.001 0 0.19 0.00133333 0 0.2022 0.00133333 0 0.2144 0.00133333 0 0.2266 0.00133333 0 0.2388 0.00133333 0 0.251 0.00133333 0 0.2632 0.00133333 0 0.2754 0.00133333 0 0.2876 0.00133333 0 0.2998 0.00133333 0 0.312 0.00133333 0 0.3242 0.00133333 0 0.3364 0.00133333 0 0.3486 0.00133333 0 0.3608 0.00133333 0 0.373 0.00133333 0 0.19 0.00166667 0 0.2022 0.00166667 0 0.2144 0.00166667 0 0.2266 0.00166667 0 0.2388 0.00166667 0 0.251 0.00166667 0 0.2632 0.00166667 0 0.2754 0.00166667 0 0.2876 0.00166667 0 0.2998 0.00166667 0 0.312 0.00166667 0 0.3242 0.00166667 0 0.3364 0.00166667 0 0.3486 0.00166667 0 0.3608 0.00166667 0 0.373 0.00166667 0 0.19 0.002 0 0.2022 0.002 0 0.2144 0.002 0 0.2266 0.002 0 0.2388 0.002 0 0.251 0.002 0 0.2632 0.002 0 0.2754 0.002 0 0.2876 0.002 0 0.2998 0.002 0 0.312 0.002 0 0.3242 0.002 0 0.3364 0.002 0 0.3486 0.002 0 0.3608 0.002 0 0.373 0.002 0 0.19 0.00233333 0 0.2022 0.00233333 0 0.2144 0.00233333 0 0.2266 0.00233333 0 0.2388 0.00233333 0 0.251 0.00233333 0 0.2632 0.00233333 0 0.2754 0.00233333 0 0.2876 0.00233333 0 0.2998 0.00233333 0 0.312 0.00233333 0 0.3242 0.00233333 0 0.3364 0.00233333 0 0.3486 0.00233333 0 0.3608 0.00233333 0 0.373 0.00233333 0 0.19 0.00266667 0 0.2022 0.00266667 0 0.2144 0.00266667 0 0.2266 0.00266667 0 0.2388 0.00266667 0 0.251 0.00266667 0 0.2632 0.00266667 0 0.2754 0.00266667 0 0.2876 0.00266667 0 0.2998 0.00266667 0 0.312 0.00266667 0 0.3242 0.00266667 0 0.3364 0.00266667 0 0.3486 0.00266667 0 0.3608 0.00266667 0 0.373 0.00266667 0 0.19 0.003 0 0.2022 0.003 0 0.2144 0.003 0 0.2266 0.003 0 0.2388 0.003 0 0.251 0.003 0 0.2632 0.003 0 0.2754 0.003 0 0.2876 0.003 0 0.2998 0.003 0 0.312 0.003 0 0.3242 0.003 0 0.3364 0.003 0 0.3486 0.003 0 0.3608 0.003 0 0.373 0.003 0 0.19 0.00333333 0 0.2022 0.00333333 0 0.2144 0.00333333 0 0.2266 0.00333333 0 0.2388 0.00333333 0 0.251 0.00333333 0 0.2632 0.00333333 0 0.2754 0.00333333 0 0.2876 0.00333333 0 0.2998 0.00333333 0 0.312 0.00333333 0 0.3242 0.00333333 0 0.3364 0.00333333 0 0.3486 0.00333333 0 0.3608 0.00333333 0 0.373 0.00333333 0 0.19 0.00366667 0 0.2022 0.00366667 0 0.2144 0.00366667 0 0.2266 0.00366667 0 0.2388 0.00366667 0 0.251 0.00366667 0 0.2632 0.00366667 0 0.2754 0.00366667 0 0.2876 0.00366667 0 0.2998 0.00366667 0 0.312 0.00366667 0 0.3242 0.00366667 0 0.3364 0.00366667 0 0.3486 0.00366667 0 0.3608 0.00366667 0 0.373 0.00366667 0 0.19 0.004 0 0.2022 0.004 0 0.2144 0.004 0 0.2266 0.004 0 0.2388 0.004 0 0.251 0.004 0 0.2632 0.004 0 0.2754 0.004 0 0.2876 0.004 0 0.2998 0.004 0 0.312 0.004 0 0.3242 0.004 0 0.3364 0.004 0 0.3486 0.004 0 0.3608 0.004 0 0.373 0.004 0 0.19 0.00433333 0 0.2022 0.00433333 0 0.2144 0.00433333 0 0.2266 0.00433333 0 0.2388 0.00433333 0 0.251 0.00433333 0 0.2632 0.00433333 0 0.2754 0.00433333 0 0.2876 0.00433333 0 0.2998 0.00433333 0 0.312 0.00433333 0 0.3242 0.00433333 0 0.3364 0.00433333 0 0.3486 0.00433333 0 0.3608 0.00433333 0 0.373 0.00433333 0 0.19 0.00466667 0 0.2022 0.00466667 0 0.2144 0.00466667 0 0.2266 0.00466667 0 0.2388 0.00466667 0 0.251 0.00466667 0 0.2632 0.00466667 0 0.2754 0.00466667 0 0.2876 0.00466667 0 0.2998 0.00466667 0 0.312 0.00466667 0 0.3242 0.00466667 0 0.3364 0.00466667 0 0.3486 0.00466667 0 0.3608 0.00466667 0 0.373 0.00466667 0 0.19 0.005 0 0.2022 0.005 0 0.2144 0.005 0 0.2266 0.005 0 0.2388 0.005 0 0.251 0.005 0 0.2632 0.005 0 0.2754 0.005 0 0.2876 0.005 0 0.2998 0.005 0 0.312 0.005 0 0.3242 0.005 0 0.3364 0.005 0 0.3486 0.005 0 0.3608 0.005 0 0.373 0.005 0 
</DataArray>
</Points> 
</Piece> 
</StructuredGrid> 
</VTKFile> 
