<?xml version="1.0"?> 
<VTKFile type="StructuredGrid" version="0.1"> 
<StructuredGrid WholeExtent="0 15 0 15 0 0"> 
<Piece Extent="0 15 0 15 0 0"> 
<PointData>
<DataArray type="Float32" Name="|E|" format="ascii" NumberOfComponents="3"> 
-2.07175e+06 0 0 -2.07179e+06 3159.61 0 -2.0719e+06 6320.34 0 -2.0721e+06 9482.48 0 -2.07238e+06 12651.9 0 -2.07273e+06 15835.2 0 -2.07314e+06 19030.4 0 -2.07362e+06 22228.9 0 -2.07415e+06 25421.9 0 -2.07476e+06 28604.2 0 -2.07543e+06 31774.4 0 -2.07619e+06 34934.7 0 -2.07703e+06 38089.2 0 -2.07795e+06 41241.6 0 -2.07896e+06 44380.6 0 -2.08005e+06 47445.9 0 -2.06908e+06 0 0 -2.06913e+06 3582.64 0 -2.06928e+06 7167.08 0 -2.06952e+06 10755.5 0 -2.06985e+06 14352 0 -2.07027e+06 17958 0 -2.07077e+06 21569.5 0 -2.07135e+06 25179.5 0 -2.07201e+06 28782.6 0 -2.07277e+06 32376.4 0 -2.07362e+06 35961.9 0 -2.07457e+06 39542 0 -2.07562e+06 43119.6 0 -2.07679e+06 46697.8 0 -2.07805e+06 50285.1 0 -2.07943e+06 53914.5 0 -2.06637e+06 0 0 -2.06643e+06 4018.99 0 -2.0666e+06 8040.48 0 -2.06688e+06 12066.8 0 -2.06728e+06 16100.1 0 -2.06778e+06 20139.5 0 -2.06838e+06 24180.8 0 -2.06908e+06 28218.9 0 -2.06989e+06 32250.8 0 -2.07082e+06 36276.3 0 -2.07186e+06 40297.8 0 -2.07302e+06 44319 0 -2.07431e+06 48345.1 0 -2.07572e+06 52384.1 0 -2.07725e+06 56443.1 0 -2.07888e+06 60514.6 0 -2.0636e+06 0 0 -2.06367e+06 4468.47 0 -2.06387e+06 8939.8 0 -2.06421e+06 13416 0 -2.06467e+06 17897.8 0 -2.06526e+06 22383.7 0 -2.06597e+06 26869.7 0 -2.06681e+06 31352.7 0 -2.06778e+06 35831.5 0 -2.06889e+06 40307.7 0 -2.07014e+06 44784.9 0 -2.07153e+06 49268.5 0 -2.07307e+06 53764.5 0 -2.07474e+06 58276.9 0 -2.07653e+06 62803.8 0 -2.07847e+06 67344.1 0 -2.06078e+06 0 0 -2.06086e+06 4930.9 0 -2.0611e+06 9864.84 0 -2.06148e+06 14803.4 0 -2.06202e+06 19746.6 0 -2.06271e+06 24692.7 0 -2.06355e+06 29638.7 0 -2.06454e+06 34583.1 0 -2.06568e+06 39526.3 0 -2.06699e+06 44471.3 0 -2.06846e+06 49422.8 0 -2.07009e+06 54386.2 0 -2.07188e+06 59365.1 0 -2.07383e+06 64359.8 0 -2.07593e+06 69368.5 0 -2.07818e+06 74392.4 0 -2.05791e+06 0 0 -2.058e+06 5406.27 0 -2.05827e+06 10815.7 0 -2.05872e+06 16229.4 0 -2.05934e+06 21647.3 0 -2.06014e+06 27067.9 0 -2.06111e+06 32489.2 0 -2.06226e+06 37911.1 0 -2.06359e+06 43335.5 0 -2.06511e+06 48766.4 0 -2.06681e+06 54208.5 0 -2.0687e+06 59665.9 0 -2.07076e+06 65140.2 0 -2.07301e+06 70631 0 -2.07543e+06 76137.8 0 -2.07803e+06 81661.9 0 -2.05498e+06 0 0 -2.05509e+06 5894.55 0 -2.0554e+06 11792.3 0 -2.05591e+06 17694.4 0 -2.05662e+06 23600.7 0 -2.05753e+06 29510 0 -2.05865e+06 35421.8 0 -2.05997e+06 41336.9 0 -2.0615e+06 47258.6 0 -2.06324e+06 53191 0 -2.06519e+06 59138.5 0 -2.06734e+06 65103.9 0 -2.0697e+06 71087.7 0 -2.07227e+06 77090.5 0 -2.07504e+06 83111.8 0 -2.07801e+06 89153.8 0 -2.05201e+06 0 0 -2.05213e+06 6395.76 0 -2.05248e+06 12794.9 0 -2.05306e+06 19198.6 0 -2.05387e+06 25606.9 0 -2.0549e+06 32019.3 0 -2.05617e+06 38436.4 0 -2.05767e+06 44860.1 0 -2.05941e+06 51294.3 0 -2.06138e+06 57743.3 0 -2.06359e+06 64210.6 0 -2.06604e+06 70698.3 0 -2.06871e+06 77207.3 0 -2.07162e+06 83738.2 0 -2.07475e+06 90291.2 0 -2.07813e+06 96869.5 0 -2.04898e+06 0 0 -2.04912e+06 6909.89 0 -2.04951e+06 13823.5 0 -2.05017e+06 20742 0 -2.05107e+06 27666 0 -2.05224e+06 34595.7 0 -2.05367e+06 41532.7 0 -2.05536e+06 48479.9 0 -2.05732e+06 55441.5 0 -2.05954e+06 62421.6 0 -2.06202e+06 69423.4 0 -2.06477e+06 76448.7 0 -2.06778e+06 83498.6 0 -2.07105e+06 90574.5 0 -2.07457e+06 97677.2 0 -2.07837e+06 104811 0 -2.04591e+06 0 0 -2.04606e+06 7436.93 0 -2.0465e+06 14878 0 -2.04723e+06 22324.6 0 -2.04825e+06 29777.9 0 -2.04955e+06 37239 0 -2.05115e+06 44710.4 0 -2.05304e+06 52195.6 0 -2.05523e+06 59699.2 0 -2.05771e+06 67225 0 -2.06048e+06 74776.1 0 -2.06355e+06 82354.4 0 -2.06691e+06 89961.6 0 -2.07056e+06 97599.9 0 -2.0745e+06 105271 0 -2.07874e+06 112980 0 -2.04278e+06 0 0 -2.04295e+06 7976.83 0 -2.04344e+06 15958.3 0 -2.04425e+06 23946.3 0 -2.04538e+06 31942.5 0 -2.04683e+06 39948.9 0 -2.04861e+06 47968.8 0 -2.05071e+06 56006.4 0 -2.05314e+06 64066.4 0 -2.05589e+06 72152.6 0 -2.05897e+06 80268.1 0 -2.06237e+06 88415.3 0 -2.0661e+06 96596.6 0 -2.07015e+06 104815 0 -2.07452e+06 113073 0 -2.07923e+06 121378 0 -2.03961e+06 0 0 -2.03979e+06 8529.56 0 -2.04033e+06 17064.4 0 -2.04123e+06 25606.9 0 -2.04247e+06 34159.4 0 -2.04408e+06 42725 0 -2.04604e+06 51307.4 0 -2.04836e+06 59911.7 0 -2.05104e+06 68542.5 0 -2.05408e+06 77203.9 0 -2.05748e+06 85899.1 0 -2.06123e+06 94631.3 0 -2.06534e+06 103404 0 -2.06982e+06 112221 0 -2.07465e+06 121086 0 -2.07985e+06 130009 0 -2.03638e+06 0 0 -2.03658e+06 9095.04 0 -2.03718e+06 18196.1 0 -2.03816e+06 27306.2 0 -2.03953e+06 36428.5 0 -2.04129e+06 45566.8 0 -2.04345e+06 54725.8 0 -2.046e+06 63910.8 0 -2.04894e+06 73126.9 0 -2.05228e+06 82378.3 0 -2.05601e+06 91668.8 0 -2.06013e+06 101002 0 -2.06465e+06 110384 0 -2.06956e+06 119818 0 -2.07487e+06 129312 0 -2.08058e+06 138873 0 -2.0331e+06 0 0 -2.03333e+06 9673.21 0 -2.03398e+06 19353.3 0 -2.03505e+06 29044 0 -2.03655e+06 38749.3 0 -2.03848e+06 48473.9 0 -2.04084e+06 58223.3 0 -2.04362e+06 68003.3 0 -2.04684e+06 77819.2 0 -2.05049e+06 87675.5 0 -2.05457e+06 97576.7 0 -2.05907e+06 107528 0 -2.06401e+06 117536 0 -2.06938e+06 127608 0 -2.07518e+06 137751 0 -2.08143e+06 147975 0 -2.02978e+06 0 0 -2.03002e+06 10264 0 -2.03073e+06 20535.8 0 -2.0319e+06 30820.1 0 -2.03353e+06 41121.6 0 -2.03563e+06 51445.9 0 -2.0382e+06 61799.5 0 -2.04123e+06 72188.6 0 -2.04474e+06 82618.7 0 -2.04871e+06 93094.9 0 -2.05315e+06 103622 0 -2.05805e+06 114209 0 -2.06342e+06 124862 0 -2.06927e+06 135592 0 -2.07559e+06 146405 0 -2.0824e+06 157317 0 -2.0264e+06 0 0 -2.02667e+06 10867.3 0 -2.02743e+06 21743.6 0 -2.0287e+06 32634.2 0 -2.03048e+06 43545 0 -2.03275e+06 54482.5 0 -2.03554e+06 65454 0 -2.03883e+06 76466.4 0 -2.04263e+06 87525.3 0 -2.04694e+06 98636.1 0 -2.05175e+06 109806 0 -2.05706e+06 121044 0 -2.06289e+06 132362 0 -2.06923e+06 143771 0 -2.07608e+06 155279 0 -2.08347e+06 166903 0 </DataArray> 
</PointData> 
<Points> 
<DataArray type="Float32" NumberOfComponents="3"> 
0 0.016 0 0.0004 0.016 0 0.0008 0.016 0 0.0012 0.016 0 0.0016 0.016 0 0.002 0.016 0 0.0024 0.016 0 0.0028 0.016 0 0.0032 0.016 0 0.0036 0.016 0 0.004 0.016 0 0.0044 0.016 0 0.0048 0.016 0 0.0052 0.016 0 0.0056 0.016 0 0.006 0.016 0 0 0.0163333 0 0.000444444 0.0163333 0 0.000888889 0.0163333 0 0.00133333 0.0163333 0 0.00177778 0.0163333 0 0.00222222 0.0163333 0 0.00266667 0.0163333 0 0.00311111 0.0163333 0 0.00355556 0.0163333 0 0.004 0.0163333 0 0.00444444 0.0163333 0 0.00488889 0.0163333 0 0.00533333 0.0163333 0 0.00577778 0.0163333 0 0.00622222 0.0163333 0 0.00666667 0.0163333 0 0 0.0166667 0 0.000488889 0.0166667 0 0.000977778 0.0166667 0 0.00146667 0.0166667 0 0.00195556 0.0166667 0 0.00244444 0.0166667 0 0.00293333 0.0166667 0 0.00342222 0.0166667 0 0.00391111 0.0166667 0 0.0044 0.0166667 0 0.00488889 0.0166667 0 0.00537778 0.0166667 0 0.00586667 0.0166667 0 0.00635556 0.0166667 0 0.00684444 0.0166667 0 0.00733333 0.0166667 0 0 0.017 0 0.000533333 0.017 0 0.00106667 0.017 0 0.0016 0.017 0 0.00213333 0.017 0 0.00266667 0.017 0 0.0032 0.017 0 0.00373333 0.017 0 0.00426667 0.017 0 0.0048 0.017 0 0.00533333 0.017 0 0.00586667 0.017 0 0.0064 0.017 0 0.00693333 0.017 0 0.00746667 0.017 0 0.008 0.017 0 0 0.0173333 0 0.000577778 0.0173333 0 0.00115556 0.0173333 0 0.00173333 0.0173333 0 0.00231111 0.0173333 0 0.00288889 0.0173333 0 0.00346667 0.0173333 0 0.00404444 0.0173333 0 0.00462222 0.0173333 0 0.0052 0.0173333 0 0.00577778 0.0173333 0 0.00635556 0.0173333 0 0.00693333 0.0173333 0 0.00751111 0.0173333 0 0.00808889 0.0173333 0 0.00866667 0.0173333 0 0 0.0176667 0 0.000622222 0.0176667 0 0.00124444 0.0176667 0 0.00186667 0.0176667 0 0.00248889 0.0176667 0 0.00311111 0.0176667 0 0.00373333 0.0176667 0 0.00435556 0.0176667 0 0.00497778 0.0176667 0 0.0056 0.0176667 0 0.00622222 0.0176667 0 0.00684444 0.0176667 0 0.00746667 0.0176667 0 0.00808889 0.0176667 0 0.00871111 0.0176667 0 0.00933333 0.0176667 0 0 0.018 0 0.000666667 0.018 0 0.00133333 0.018 0 0.002 0.018 0 0.00266667 0.018 0 0.00333333 0.018 0 0.004 0.018 0 0.00466667 0.018 0 0.00533333 0.018 0 0.006 0.018 0 0.00666667 0.018 0 0.00733333 0.018 0 0.008 0.018 0 0.00866667 0.018 0 0.00933333 0.018 0 0.01 0.018 0 0 0.0183333 0 0.000711111 0.0183333 0 0.00142222 0.0183333 0 0.00213333 0.0183333 0 0.00284444 0.0183333 0 0.00355556 0.0183333 0 0.00426667 0.0183333 0 0.00497778 0.0183333 0 0.00568889 0.0183333 0 0.0064 0.0183333 0 0.00711111 0.0183333 0 0.00782222 0.0183333 0 0.00853333 0.0183333 0 0.00924444 0.0183333 0 0.00995556 0.0183333 0 0.0106667 0.0183333 0 0 0.0186667 0 0.000755556 0.0186667 0 0.00151111 0.0186667 0 0.00226667 0.0186667 0 0.00302222 0.0186667 0 0.00377778 0.0186667 0 0.00453333 0.0186667 0 0.00528889 0.0186667 0 0.00604444 0.0186667 0 0.0068 0.0186667 0 0.00755556 0.0186667 0 0.00831111 0.0186667 0 0.00906667 0.0186667 0 0.00982222 0.0186667 0 0.0105778 0.0186667 0 0.0113333 0.0186667 0 0 0.019 0 0.0008 0.019 0 0.0016 0.019 0 0.0024 0.019 0 0.0032 0.019 0 0.004 0.019 0 0.0048 0.019 0 0.0056 0.019 0 0.0064 0.019 0 0.0072 0.019 0 0.008 0.019 0 0.0088 0.019 0 0.0096 0.019 0 0.0104 0.019 0 0.0112 0.019 0 0.012 0.019 0 0 0.0193333 0 0.000844444 0.0193333 0 0.00168889 0.0193333 0 0.00253333 0.0193333 0 0.00337778 0.0193333 0 0.00422222 0.0193333 0 0.00506667 0.0193333 0 0.00591111 0.0193333 0 0.00675556 0.0193333 0 0.0076 0.0193333 0 0.00844444 0.0193333 0 0.00928889 0.0193333 0 0.0101333 0.0193333 0 0.0109778 0.0193333 0 0.0118222 0.0193333 0 0.0126667 0.0193333 0 0 0.0196667 0 0.000888889 0.0196667 0 0.00177778 0.0196667 0 0.00266667 0.0196667 0 0.00355556 0.0196667 0 0.00444444 0.0196667 0 0.00533333 0.0196667 0 0.00622222 0.0196667 0 0.00711111 0.0196667 0 0.008 0.0196667 0 0.00888889 0.0196667 0 0.00977778 0.0196667 0 0.0106667 0.0196667 0 0.0115556 0.0196667 0 0.0124444 0.0196667 0 0.0133333 0.0196667 0 0 0.02 0 0.000933333 0.02 0 0.00186667 0.02 0 0.0028 0.02 0 0.00373333 0.02 0 0.00466667 0.02 0 0.0056 0.02 0 0.00653333 0.02 0 0.00746667 0.02 0 0.0084 0.02 0 0.00933333 0.02 0 0.0102667 0.02 0 0.0112 0.02 0 0.0121333 0.02 0 0.0130667 0.02 0 0.014 0.02 0 0 0.0203333 0 0.000977778 0.0203333 0 0.00195556 0.0203333 0 0.00293333 0.0203333 0 0.00391111 0.0203333 0 0.00488889 0.0203333 0 0.00586667 0.0203333 0 0.00684444 0.0203333 0 0.00782222 0.0203333 0 0.0088 0.0203333 0 0.00977778 0.0203333 0 0.0107556 0.0203333 0 0.0117333 0.0203333 0 0.0127111 0.0203333 0 0.0136889 0.0203333 0 0.0146667 0.0203333 0 0 0.0206667 0 0.00102222 0.0206667 0 0.00204444 0.0206667 0 0.00306667 0.0206667 0 0.00408889 0.0206667 0 0.00511111 0.0206667 0 0.00613333 0.0206667 0 0.00715556 0.0206667 0 0.00817778 0.0206667 0 0.0092 0.0206667 0 0.0102222 0.0206667 0 0.0112444 0.0206667 0 0.0122667 0.0206667 0 0.0132889 0.0206667 0 0.0143111 0.0206667 0 0.0153333 0.0206667 0 0 0.021 0 0.00106667 0.021 0 0.00213333 0.021 0 0.0032 0.021 0 0.00426667 0.021 0 0.00533333 0.021 0 0.0064 0.021 0 0.00746667 0.021 0 0.00853333 0.021 0 0.0096 0.021 0 0.0106667 0.021 0 0.0117333 0.021 0 0.0128 0.021 0 0.0138667 0.021 0 0.0149333 0.021 0 0.016 0.021 0 
</DataArray>
</Points> 
</Piece> 
</StructuredGrid> 
</VTKFile> 
