<?xml version="1.0"?> 
<VTKFile type="StructuredGrid" version="0.1"> 
<StructuredGrid WholeExtent="0 15 0 15 0 0"> 
<Piece Extent="0 15 0 15 0 0"> 
<PointData>
<DataArray type="Float32" Name="|E|" format="ascii" NumberOfComponents="3"> 
370160 5.43627e+06 0 742694 5.7136e+06 0 1.13593e+06 5.86428e+06 0 1.53912e+06 5.9263e+06 0 1.94306e+06 5.91416e+06 0 2.33906e+06 5.83545e+06 0 2.71896e+06 5.69617e+06 0 3.07564e+06 5.50277e+06 0 3.40343e+06 5.26271e+06 0 3.69839e+06 4.98418e+06 0 3.9582e+06 4.67557e+06 0 4.18208e+06 4.34502e+06 0 4.37044e+06 3.99996e+06 0 4.52461e+06 3.64695e+06 0 4.64658e+06 3.29157e+06 0 4.73873e+06 2.93841e+06 0 906504 4.85596e+06 0 1.17139e+06 4.91816e+06 0 1.48634e+06 4.90675e+06 0 1.80662e+06 4.80817e+06 0 2.10127e+06 4.6339e+06 0 2.35225e+06 4.40307e+06 0 2.55186e+06 4.13576e+06 0 2.69964e+06 3.84998e+06 0 2.79971e+06 3.56037e+06 0 2.85866e+06 3.27795e+06 0 2.88403e+06 3.01037e+06 0 2.88336e+06 2.76242e+06 0 2.86358e+06 2.53659e+06 0 2.8307e+06 2.33365e+06 0 2.78973e+06 2.15316e+06 0 2.74468e+06 1.9937e+06 0 985367 4.48361e+06 0 1.23384e+06 4.45926e+06 0 1.5005e+06 4.35651e+06 0 1.74855e+06 4.17668e+06 0 1.95112e+06 3.93833e+06 0 2.0966e+06 3.66685e+06 0 2.18578e+06 3.3856e+06 0 2.22672e+06 3.11211e+06 0 2.23044e+06 2.8575e+06 0 2.20809e+06 2.62742e+06 0 2.1694e+06 2.42359e+06 0 2.12204e+06 2.2451e+06 0 2.07162e+06 2.08964e+06 0 2.02195e+06 1.95425e+06 0 1.97534e+06 1.83593e+06 0 1.9331e+06 1.73182e+06 0 966632 4.22116e+06 0 1.18954e+06 4.14099e+06 0 1.41374e+06 3.98681e+06 0 1.60449e+06 3.76641e+06 0 1.74124e+06 3.50394e+06 0 1.81993e+06 3.22655e+06 0 1.84818e+06 2.95569e+06 0 1.83855e+06 2.70452e+06 0 1.80384e+06 2.47892e+06 0 1.75464e+06 2.2798e+06 0 1.69864e+06 2.10528e+06 0 1.64081e+06 1.9524e+06 0 1.58407e+06 1.81804e+06 0 1.52997e+06 1.69944e+06 0 1.47923e+06 1.59436e+06 0 1.43218e+06 1.50096e+06 0 908330 4.02887e+06 0 1.1071e+06 3.9106e+06 0 1.29519e+06 3.72271e+06 0 1.44171e+06 3.47909e+06 0 1.53221e+06 3.20641e+06 0 1.56863e+06 2.93087e+06 0 1.56243e+06 2.67047e+06 0 1.52745e+06 2.43418e+06 0 1.47565e+06 2.22443e+06 0 1.41575e+06 2.04e+06 0 1.35345e+06 1.87823e+06 0 1.29228e+06 1.73625e+06 0 1.2344e+06 1.61141e+06 0 1.18119e+06 1.50134e+06 0 1.13352e+06 1.4039e+06 0 1.09186e+06 1.31715e+06 0 833675 3.88277e+06 0 1.00993e+06 3.73577e+06 0 1.16772e+06 3.52406e+06 0 1.27998e+06 3.26532e+06 0 1.3375e+06 2.98713e+06 0 1.34628e+06 2.71371e+06 0 1.31962e+06 2.45989e+06 0 1.27106e+06 2.23175e+06 0 1.21124e+06 2.02995e+06 0 1.14746e+06 1.85258e+06 0 1.08435e+06 1.69684e+06 0 1.02473e+06 1.55984e+06 0 970143 1.43883e+06 0 921140 1.33141e+06 0 877540 1.23567e+06 0 838692 1.15034e+06 0 751818 3.76947e+06 0 907561 3.59937e+06 0 1.03975e+06 3.36901e+06 0 1.12506e+06 3.09866e+06 0 1.15848e+06 2.81583e+06 0 1.1487e+06 2.54272e+06 0 1.10964e+06 2.29169e+06 0 1.05409e+06 2.06706e+06 0 991542 1.86857e+06 0 928215 1.69396e+06 0 867830 1.54025e+06 0 812300 1.40451e+06 0 762308 1.28416e+06 0 717856 1.17714e+06 0 678754 1.0817e+06 0 644912 996109 0 667157 3.68017e+06 0 804052 3.49045e+06 0 914299 3.2442e+06 0 978027 2.96348e+06 0 993558 2.67539e+06 0 971292 2.40042e+06 0 925157 2.14919e+06 0 867093 1.92493e+06 0 805480 1.72684e+06 0 745472 1.55239e+06 0 689800 1.39859e+06 0 639604 1.26261e+06 0 595160 1.14206e+06 0 556362 1.03484e+06 0 522871 939102 0 494007 853640 0 581760 3.60927e+06 0 701094 3.40198e+06 0 792199 3.1411e+06 0 838407 2.85003e+06 0 840669 2.55545e+06 0 810414 2.2766e+06 0 761217 2.02292e+06 0 704006 1.79695e+06 0 645993 1.59755e+06 0 591242 1.42203e+06 0 541643 1.26741e+06 0 497834 1.13091e+06 0 459801 1.01003e+06 0 427156 902616 0 399313 806928 0 375779 721354 0 496635 3.55291e+06 0 599271 3.32919e+06 0 673397 3.05398e+06 0 705300 2.75186e+06 0 697998 2.44935e+06 0 663414 2.16487e+06 0 614427 1.90716e+06 0 560758 1.67829e+06 0 508376 1.47683e+06 0 460322 1.29997e+06 0 417809 1.14461e+06 0 381043 1.00779e+06 0 349705 886889 0 323255 779651 0 301168 684090 0 282898 598614 0 412209 3.50845e+06 0 498626 3.26875e+06 0 557459 2.97882e+06 0 577762 2.66452e+06 0 564114 2.35258e+06 0 528410 2.0611e+06 0 482451 1.7984e+06 0 434539 1.56617e+06 0 389362 1.36266e+06 0 349036 1.18478e+06 0 314181 1.02913e+06 0 284648 892492 0 259960 772014 0 239574 665214 0 222957 569979 0 209632 484543 0 328605 3.47403e+06 0 398918 3.21828e+06 0 443809 2.91269e+06 0 454955 2.58476e+06 0 437959 2.26199e+06 0 404098 1.96254e+06 0 363655 1.69447e+06 0 323318 1.45904e+06 0 286502 1.254e+06 0 254496 1.07575e+06 0 227455 920462 0 205019 784558 0 186679 664879 0 171916 558710 0 160281 463733 0 151406 377994 0 245770 3.44835e+06 0 299742 3.17601e+06 0 331831 2.85335e+06 0 336197 2.51014e+06 0 318809 2.17527e+06 0 289598 1.86735e+06 0 256860 1.59412e+06 0 225518 1.35613e+06 0 197790 1.15037e+06 0 174293 972570 0 154884 818323 0 139142 683625 0 126597 564982 0 116831 459413 0 109515 364370 0 104395 277699 0 163546 3.43054e+06 0 200596 3.14062e+06 0 220917 2.79904e+06 0 220977 2.43872e+06 0 206216 2.09077e+06 0 184327 1.77437e+06 0 161154 1.49665e+06 0 139813 1.25709e+06 0 121487 1.05162e+06 0 106339 875085 0 94111.6 722467 0 84435.4 589294 0 76963.3 471725 0 71414.6 366495 0 67590.2 270807 0 65354.5 182262 0 81711.9 3.41999e+06 0 100901 3.1111e+06 0 110485 2.74827e+06 0 108961 2.36894e+06 0 99960 2.00728e+06 0 87890.4 1.6829e+06 0 75770.5 1.4018e+06 0 65012.3 1.16187e+06 0 56034 957708 0 48790.6 783198 0 43081.8 632659 0 38691.2 501162 0 35438.1 384517 0 33190.6 279155 0 31870.5 181967 0 31413.3 90217.9 0 0 3.41641e+06 0 0 3.08662e+06 0 0 2.6997e+06 0 0 2.29949e+06 0 0 1.92397e+06 0 0 1.59264e+06 0 0 1.30954e+06 0 0 1.07051e+06 0 0 868595 0 0 696695 0 0 548492 0 0 418613 0 0 302511 0 0 196268 0 0 96409.2 0 0 -121.995 0 </DataArray> 
</PointData> 
<Points> 
<DataArray type="Float32" NumberOfComponents="3"> 
0.188 0.0600551 0 0.188983 0.0599578 0 0.189971 0.0597981 0 0.190957 0.0595746 0 0.191937 0.0592868 0 0.192903 0.0589349 0 0.19385 0.0585197 0 0.194771 0.0580433 0 0.19566 0.057508 0 0.196512 0.0569172 0 0.197322 0.056275 0 0.198085 0.0555859 0 0.198798 0.0548549 0 0.199457 0.0540875 0 0.200061 0.0532894 0 0.200607 0.0524662 0 0.188 0.0635181 0 0.189749 0.0634723 0 0.191521 0.063363 0 0.193304 0.0631886 0 0.19509 0.0629483 0 0.196869 0.062642 0 0.198629 0.0622703 0 0.200361 0.0618345 0 0.202054 0.0613368 0 0.203699 0.0607801 0 0.205287 0.0601679 0 0.206808 0.0595044 0 0.208256 0.0587942 0 0.209624 0.0580424 0 0.210907 0.0572542 0 0.2121 0.0564351 0 0.188 0.0669811 0 0.190515 0.0669802 0 0.193065 0.0669155 0 0.19564 0.0667851 0 0.198225 0.066588 0 0.200807 0.0663239 0 0.203373 0.065993 0 0.205909 0.0655966 0 0.2084 0.0651362 0 0.210834 0.0646144 0 0.213197 0.0640343 0 0.215479 0.0633996 0 0.217668 0.0627144 0 0.219755 0.0619835 0 0.221732 0.0612116 0 0.223593 0.0604041 0 0.188 0.0704441 0 0.191278 0.0704817 0 0.194604 0.0704556 0 0.197964 0.0703641 0 0.201341 0.0702059 0 0.204719 0.0699807 0 0.208082 0.0696884 0 0.211414 0.0693299 0 0.214697 0.0689066 0 0.217915 0.0684205 0 0.221054 0.0678745 0 0.224098 0.0672716 0 0.227035 0.0666157 0 0.229852 0.0659109 0 0.232538 0.0651617 0 0.235085 0.064373 0 0.188 0.0739071 0 0.19204 0.0739767 0 0.196138 0.0739835 0 0.200276 0.0739259 0 0.204438 0.0738025 0 0.208604 0.0736127 0 0.212757 0.0733567 0 0.216877 0.0730348 0 0.220946 0.0726482 0 0.224945 0.0721987 0 0.228858 0.0716886 0 0.232667 0.0711206 0 0.236356 0.0704981 0 0.239913 0.0698248 0 0.243324 0.0691046 0 0.246578 0.0683419 0 0.188 0.0773701 0 0.192801 0.0774653 0 0.197667 0.0774993 0 0.202578 0.0774705 0 0.207517 0.0773777 0 0.212463 0.0772203 0 0.217397 0.0769981 0 0.222298 0.0767115 0 0.227147 0.0763614 0 0.231923 0.0759493 0 0.236608 0.0754769 0 0.241184 0.0749469 0 0.245633 0.0743618 0 0.24994 0.0737251 0 0.25409 0.0730401 0 0.258071 0.0723108 0 0.188 0.0808331 0 0.193561 0.0809474 0 0.19919 0.0810029 0 0.204869 0.0809981 0 0.210578 0.0809318 0 0.216296 0.0808035 0 0.222003 0.080613 0 0.227679 0.0803604 0 0.233301 0.0800466 0 0.238851 0.0796725 0 0.244307 0.0792398 0 0.249651 0.0787505 0 0.254865 0.078207 0 0.259932 0.077612 0 0.264836 0.0769685 0 0.269564 0.0762797 0 0.188 0.084296 0 0.194319 0.0844231 0 0.200708 0.0844944 0 0.207148 0.0845087 0 0.21362 0.0844651 0 0.220103 0.0843628 0 0.226576 0.0842017 0 0.233019 0.0839819 0 0.23941 0.0837039 0 0.245728 0.0833687 0 0.251954 0.0829775 0 0.258069 0.0825318 0 0.264053 0.0820338 0 0.269889 0.0814855 0 0.275562 0.0808895 0 0.281057 0.0802487 0 0.188 0.087759 0 0.195075 0.0878924 0 0.202221 0.087974 0 0.209417 0.0880026 0 0.216645 0.0879776 0 0.223885 0.0878982 0 0.231116 0.0877644 0 0.238319 0.0875762 0 0.245472 0.0873339 0 0.252556 0.0870382 0 0.25955 0.0866901 0 0.266437 0.086291 0 0.273197 0.0858422 0 0.279813 0.0853457 0 0.286269 0.0848034 0 0.29255 0.0842176 0 0.188 0.091222 0 0.195831 0.0913554 0 0.203728 0.0914416 0 0.211675 0.0914799 0 0.219653 0.0914695 0 0.227642 0.0914101 0 0.235624 0.0913015 0 0.243579 0.0911436 0 0.251489 0.0909366 0 0.259334 0.0906812 0 0.267096 0.0903781 0 0.274756 0.0900281 0 0.282297 0.0896325 0 0.289702 0.0891926 0 0.296956 0.08871 0 0.304043 0.0881865 0 0.188 0.094685 0 0.196585 0.0948119 0 0.205231 0.0948973 0 0.213922 0.0949406 0 0.222642 0.0949412 0 0.231374 0.0948987 0 0.240099 0.0948131 0 0.2488 0.0946844 0 0.257461 0.0945126 0 0.266064 0.0942981 0 0.274591 0.0940415 0 0.283026 0.0937435 0 0.291354 0.0934048 0 0.299558 0.0930264 0 0.307623 0.0926095 0 0.315536 0.0921554 0 0.188 0.098148 0 0.197337 0.0982622 0 0.206728 0.0983413 0 0.216159 0.0983848 0 0.225615 0.0983926 0 0.235081 0.0983643 0 0.244542 0.0982997 0 0.253983 0.0981989 0 0.263389 0.098062 0 0.272745 0.0978892 0 0.282037 0.0976808 0 0.291249 0.0974372 0 0.300368 0.0971591 0 0.30938 0.0968471 0 0.318271 0.0965019 0 0.327028 0.0961243 0 0.188 0.101611 0 0.198088 0.101706 0 0.20822 0.101773 0 0.218385 0.101813 0 0.22857 0.101824 0 0.238763 0.101807 0 0.248953 0.101761 0 0.259127 0.101687 0 0.269273 0.101585 0 0.279379 0.101455 0 0.289433 0.101296 0 0.299424 0.10111 0 0.309339 0.100896 0 0.319168 0.100655 0 0.328899 0.100387 0 0.338521 0.100093 0 0.188 0.105074 0 0.198838 0.105144 0 0.209708 0.105194 0 0.2206 0.105225 0 0.231508 0.105236 0 0.242422 0.105227 0 0.253333 0.105198 0 0.264233 0.10515 0 0.275114 0.105082 0 0.285966 0.104995 0 0.296781 0.104887 0 0.307552 0.104761 0 0.318268 0.104615 0 0.328923 0.104449 0 0.339508 0.104265 0 0.350014 0.104062 0 0.188 0.108537 0 0.199586 0.108575 0 0.21119 0.108603 0 0.222805 0.10862 0 0.234429 0.108628 0 0.246056 0.108625 0 0.257682 0.108611 0 0.269302 0.108588 0 0.280911 0.108554 0 0.292506 0.10851 0 0.304081 0.108455 0 0.315632 0.108391 0 0.327155 0.108316 0 0.338645 0.108231 0 0.350097 0.108136 0 0.361507 0.108031 0 0.188 0.112 0 0.200333 0.112 0 0.212667 0.112 0 0.225 0.112 0 0.237333 0.112 0 0.249667 0.112 0 0.262 0.112 0 0.274333 0.112 0 0.286667 0.112 0 0.299 0.112 0 0.311333 0.112 0 0.323667 0.112 0 0.336 0.112 0 0.348333 0.112 0 0.360667 0.112 0 0.373 0.112 0 
</DataArray>
</Points> 
</Piece> 
</StructuredGrid> 
</VTKFile> 
