<?xml version="1.0"?> 
<VTKFile type="StructuredGrid" version="0.1"> 
<StructuredGrid WholeExtent="0 16 0 16 0 0"> 
<Piece Extent="0 16 0 16 0 0"> 
<CellData>
<DataArray type="Float32" Name="err_h1" format="ascii" NumberOfComponents="1"> 
2985.55 2923.04 2852.71 2775.62 2784.36 2862.14 3001.29 3192.12 1390.46 974.138 601.929 317.505 336.4 604.361 915.337 1235.07 1492.66 1870.43 2002.06 2047.97 2108.02 2222.9 2393.09 2611.67 1393.63 977.54 603.534 295.891 261.141 516.555 811.939 1111.37 834.469 1149.1 1279.22 1362.09 1457.14 1605.21 1811.12 2064.04 1383.59 968.072 593.521 268.963 185.597 440.343 721.833 999.825 525.048 722.807 774.656 787.344 864.675 1035.9 1282.36 1575.94 1362.03 948.234 574.897 240.102 114.359 383.723 651.998 907.926 404.238 519.794 489.38 376.306 356.213 552.741 853.827 1190.55 1333.87 924.159 555.545 223.683 88.3058 358.304 609.821 842.713 402.925 489.206 445.213 285.295 83.3601 295.767 624.996 972.491 1308.2 906.924 550.471 248.361 163.621 376.68 602.579 810.65 478.722 567.379 565.627 495.239 429.432 485.395 686.807 965.784 1298.22 912.518 580.612 333.784 290.295 444.594 636.132 817.228 607.176 702.699 741.771 738.809 736.026 785.353 915.643 1118.38 1319.38 958.569 663.921 474.248 449.134 559.272 713.658 866.54 601.433 578.103 527.498 484.054 492.302 573.431 708.384 868.246 697.997 668.006 665.653 683.927 715.025 752.907 794.252 838.47 565.319 520.014 434.569 340.563 302.424 376.53 525.706 699.864 524.484 483.261 479.026 501.689 538.335 578.998 618.062 653.623 569.508 508.072 395.713 251.217 131.154 210.313 391.394 582.481 378.546 318.36 311.783 344.841 393.855 442.787 483.956 514.602 618.229 546.434 421.273 259.575 88.4094 147.026 340.006 533.177 271.803 174.69 159.875 215.696 285.553 346.669 392.47 420.906 721.835 642.466 514.938 370.158 259.407 272.236 400.46 564.529 236.894 95.3612 34.7077 139.919 228.331 297.021 345.057 371.706 902.189 809.915 676.629 547.128 464.211 464.253 544.191 668.537 292.388 177.383 132.308 174.372 241.017 299.993 342.65 365.738 1208.58 1075.2 910.641 776.662 698.037 686.287 735.384 825.461 402.8 311.66 270.989 278.577 312.549 351.337 382.759 400.839 1788.7 1462.21 1217.57 1054.61 962.063 933.214 957.259 1018.95 538.313 457.515 415.111 405.989 418.416 439.629 460.067 473.89 
</DataArray> 
</CellData> 
<Points> 
<DataArray type="Float32" NumberOfComponents="3"> 
0.0075 0.05 0 0.00390625 0.05625 0 0.0003125 0.0625 0 -0.00328125 0.06875 0 -0.006875 0.075 0 -0.0104688 0.08125 0 -0.0140625 0.0875 0 -0.0176563 0.09375 0 -0.02125 0.1 0 -0.0248438 0.10625 0 -0.0284375 0.1125 0 -0.0320313 0.11875 0 -0.035625 0.125 0 -0.0392188 0.13125 0 -0.0428125 0.1375 0 -0.0464063 0.14375 0 -0.05 0.15 0 0.0123775 0.05 0 0.00900836 0.05625 0 0.00563922 0.0625 0 0.00227008 0.06875 0 -0.00109906 0.075 0 -0.0044682 0.08125 0 -0.00783734 0.0875 0 -0.0112065 0.09375 0 -0.0145756 0.1 0 -0.0179448 0.10625 0 -0.0213139 0.1125 0 -0.024683 0.11875 0 -0.0280522 0.125 0 -0.0314213 0.13125 0 -0.0347905 0.1375 0 -0.0381596 0.14375 0 -0.0415288 0.15 0 0.017255 0.05 0 0.0141105 0.05625 0 0.0109659 0.0625 0 0.00782141 0.06875 0 0.00467687 0.075 0 0.00153234 0.08125 0 -0.00161219 0.0875 0 -0.00475672 0.09375 0 -0.00790125 0.1 0 -0.0110458 0.10625 0 -0.0141903 0.1125 0 -0.0173348 0.11875 0 -0.0204794 0.125 0 -0.0236239 0.13125 0 -0.0267684 0.1375 0 -0.029913 0.14375 0 -0.0330575 0.15 0 0.0221325 0.05 0 0.0192126 0.05625 0 0.0162927 0.0625 0 0.0133727 0.06875 0 0.0104528 0.075 0 0.00753289 0.08125 0 0.00461297 0.0875 0 0.00169305 0.09375 0 -0.00122688 0.1 0 -0.0041468 0.10625 0 -0.00706672 0.1125 0 -0.00998664 0.11875 0 -0.0129066 0.125 0 -0.0158265 0.13125 0 -0.0187464 0.1375 0 -0.0216663 0.14375 0 -0.0245863 0.15 0 0.02701 0.05 0 0.0243147 0.05625 0 0.0216194 0.0625 0 0.0189241 0.06875 0 0.0162287 0.075 0 0.0135334 0.08125 0 0.0108381 0.0875 0 0.00814281 0.09375 0 0.0054475 0.1 0 0.00275219 0.10625 0 5.6875e-05 0.1125 0 -0.00263844 0.11875 0 -0.00533375 0.125 0 -0.00802906 0.13125 0 -0.0107244 0.1375 0 -0.0134197 0.14375 0 -0.016115 0.15 0 0.0318875 0.05 0 0.0294168 0.05625 0 0.0269461 0.0625 0 0.0244754 0.06875 0 0.0220047 0.075 0 0.019534 0.08125 0 0.0170633 0.0875 0 0.0145926 0.09375 0 0.0121219 0.1 0 0.00965117 0.10625 0 0.00718047 0.1125 0 0.00470977 0.11875 0 0.00223906 0.125 0 -0.000231641 0.13125 0 -0.00270234 0.1375 0 -0.00517305 0.14375 0 -0.00764375 0.15 0 0.036765 0.05 0 0.0345189 0.05625 0 0.0322728 0.0625 0 0.0300267 0.06875 0 0.0277806 0.075 0 0.0255345 0.08125 0 0.0232884 0.0875 0 0.0210423 0.09375 0 0.0187963 0.1 0 0.0165502 0.10625 0 0.0143041 0.1125 0 0.012058 0.11875 0 0.00981188 0.125 0 0.00756578 0.13125 0 0.00531969 0.1375 0 0.00307359 0.14375 0 0.0008275 0.15 0 0.0416425 0.05 0 0.039621 0.05625 0 0.0375995 0.0625 0 0.035578 0.06875 0 0.0335566 0.075 0 0.0315351 0.08125 0 0.0295136 0.0875 0 0.0274921 0.09375 0 0.0254706 0.1 0 0.0234491 0.10625 0 0.0214277 0.1125 0 0.0194062 0.11875 0 0.0173847 0.125 0 0.0153632 0.13125 0 0.0133417 0.1375 0 0.0113202 0.14375 0 0.00929875 0.15 0 0.04652 0.05 0 0.0447231 0.05625 0 0.0429263 0.0625 0 0.0411294 0.06875 0 0.0393325 0.075 0 0.0375356 0.08125 0 0.0357388 0.0875 0 0.0339419 0.09375 0 0.032145 0.1 0 0.0303481 0.10625 0 0.0285513 0.1125 0 0.0267544 0.11875 0 0.0249575 0.125 0 0.0231606 0.13125 0 0.0213638 0.1375 0 0.0195669 0.14375 0 0.01777 0.15 0 0.0513975 0.05 0 0.0498252 0.05625 0 0.048253 0.0625 0 0.0466807 0.06875 0 0.0451084 0.075 0 0.0435362 0.08125 0 0.0419639 0.0875 0 0.0403916 0.09375 0 0.0388194 0.1 0 0.0372471 0.10625 0 0.0356748 0.1125 0 0.0341026 0.11875 0 0.0325303 0.125 0 0.030958 0.13125 0 0.0293858 0.1375 0 0.0278135 0.14375 0 0.0262412 0.15 0 0.056275 0.05 0 0.0549273 0.05625 0 0.0535797 0.0625 0 0.052232 0.06875 0 0.0508844 0.075 0 0.0495367 0.08125 0 0.0481891 0.0875 0 0.0468414 0.09375 0 0.0454937 0.1 0 0.0441461 0.10625 0 0.0427984 0.1125 0 0.0414508 0.11875 0 0.0401031 0.125 0 0.0387555 0.13125 0 0.0374078 0.1375 0 0.0360602 0.14375 0 0.0347125 0.15 0 0.0611525 0.05 0 0.0600295 0.05625 0 0.0589064 0.0625 0 0.0577834 0.06875 0 0.0566603 0.075 0 0.0555373 0.08125 0 0.0544142 0.0875 0 0.0532912 0.09375 0 0.0521681 0.1 0 0.0510451 0.10625 0 0.049922 0.1125 0 0.048799 0.11875 0 0.0476759 0.125 0 0.0465529 0.13125 0 0.0454298 0.1375 0 0.0443068 0.14375 0 0.0431838 0.15 0 0.06603 0.05 0 0.0651316 0.05625 0 0.0642331 0.0625 0 0.0633347 0.06875 0 0.0624363 0.075 0 0.0615378 0.08125 0 0.0606394 0.0875 0 0.0597409 0.09375 0 0.0588425 0.1 0 0.0579441 0.10625 0 0.0570456 0.1125 0 0.0561472 0.11875 0 0.0552488 0.125 0 0.0543503 0.13125 0 0.0534519 0.1375 0 0.0525534 0.14375 0 0.051655 0.15 0 0.0709075 0.05 0 0.0702337 0.05625 0 0.0695598 0.0625 0 0.068886 0.06875 0 0.0682122 0.075 0 0.0675384 0.08125 0 0.0668645 0.0875 0 0.0661907 0.09375 0 0.0655169 0.1 0 0.064843 0.10625 0 0.0641692 0.1125 0 0.0634954 0.11875 0 0.0628216 0.125 0 0.0621477 0.13125 0 0.0614739 0.1375 0 0.0608001 0.14375 0 0.0601262 0.15 0 0.075785 0.05 0 0.0753358 0.05625 0 0.0748866 0.0625 0 0.0744373 0.06875 0 0.0739881 0.075 0 0.0735389 0.08125 0 0.0730897 0.0875 0 0.0726405 0.09375 0 0.0721913 0.1 0 0.071742 0.10625 0 0.0712928 0.1125 0 0.0708436 0.11875 0 0.0703944 0.125 0 0.0699452 0.13125 0 0.0694959 0.1375 0 0.0690467 0.14375 0 0.0685975 0.15 0 0.0806625 0.05 0 0.0804379 0.05625 0 0.0802133 0.0625 0 0.0799887 0.06875 0 0.0797641 0.075 0 0.0795395 0.08125 0 0.0793148 0.0875 0 0.0790902 0.09375 0 0.0788656 0.1 0 0.078641 0.10625 0 0.0784164 0.1125 0 0.0781918 0.11875 0 0.0779672 0.125 0 0.0777426 0.13125 0 0.077518 0.1375 0 0.0772934 0.14375 0 0.0770688 0.15 0 0.08554 0.05 0 0.08554 0.05625 0 0.08554 0.0625 0 0.08554 0.06875 0 0.08554 0.075 0 0.08554 0.08125 0 0.08554 0.0875 0 0.08554 0.09375 0 0.08554 0.1 0 0.08554 0.10625 0 0.08554 0.1125 0 0.08554 0.11875 0 0.08554 0.125 0 0.08554 0.13125 0 0.08554 0.1375 0 0.08554 0.14375 0 0.08554 0.15 0 
</DataArray>
</Points> 
</Piece> 
</StructuredGrid> 
</VTKFile> 
