<?xml version="1.0"?> 
<VTKFile type="StructuredGrid" version="0.1"> 
<StructuredGrid WholeExtent="0 16 0 16 0 0"> 
<Piece Extent="0 16 0 16 0 0"> 
<CellData>
<DataArray type="Float32" Name="err_h1" format="ascii" NumberOfComponents="1"> 
3.65335 2.78224 2.83997 3.03299 3.30107 3.63482 4.02992 4.47412 4.98284 5.36657 5.5614 5.46614 5.04689 4.35394 3.49216 2.60288 0.987223 1.77924 1.85663 1.98084 2.16474 2.38951 2.65284 2.95637 3.33434 3.69973 4.05289 4.34563 4.52668 4.56227 4.4529 4.23875 0.491729 0.651427 0.96881 1.15108 1.2975 1.45615 1.63782 1.84576 2.10576 2.37591 2.67142 2.98274 3.29361 3.58431 3.83832 4.05015 0.262312 0.333975 0.421759 0.561366 0.689805 0.807015 0.928115 1.06314 1.229 1.40823 1.61082 1.83807 2.08929 2.36174 2.65123 2.95409 0.143809 0.176944 0.219123 0.268333 0.334817 0.408031 0.483871 0.565086 0.660292 0.766681 0.888786 1.02919 1.19013 1.37351 1.581 1.81429 0.0788743 0.0946583 0.114448 0.138911 0.167017 0.201209 0.240637 0.28451 0.33384 0.389463 0.453821 0.529183 0.617635 0.721159 0.841791 0.98181 0.0416488 0.0492561 0.0590638 0.0711222 0.0856281 0.102208 0.121266 0.142996 0.166225 0.191617 0.221041 0.255933 0.297788 0.348029 0.408002 0.479078 0.0193158 0.0232181 0.0286734 0.0355537 0.0437121 0.0531134 0.0636317 0.0752721 0.0852127 0.0950998 0.106447 0.120012 0.136691 0.15739 0.182924 0.213981 0.00758466 0.00972681 0.0122094 0.0150184 0.0181569 0.0216267 0.0254752 0.0297504 0.0342183 0.0379074 0.0425011 0.0482822 0.0555524 0.064591 0.0756191 0.0887837 0.00280328 0.00393057 0.00522451 0.00666242 0.00823909 0.00996211 0.0118446 0.0139154 0.0161299 0.0171575 0.0185927 0.0205699 0.0232121 0.0266119 0.0308226 0.0358563 0.000599464 0.00119874 0.0019002 0.00266471 0.00348994 0.00438147 0.00535004 0.00640994 0.00778512 0.00772358 0.00784288 0.00823203 0.00896677 0.010087 0.0115915 0.0134499 0.000800458 0.000749881 0.000892021 0.00117967 0.0015567 0.0019984 0.00249862 0.00305876 0.00418217 0.00377148 0.00340052 0.00312833 0.00303416 0.00318691 0.0036012 0.00423647 0.0010604 0.000991445 0.000975207 0.00101968 0.00112778 0.00129759 0.00152517 0.00180699 0.00272584 0.00234999 0.00196749 0.0015844 0.00121381 0.000888282 0.000693332 0.000751555 0.000958204 0.000929415 0.000931198 0.000964233 0.00102953 0.0011282 0.00126107 0.00142834 0.00201844 0.00176012 0.00151308 0.00127915 0.00106066 0.000860973 0.000685917 0.000546843 0.00065373 0.000663039 0.00070581 0.000776309 0.000869946 0.000983959 0.00111702 0.00126857 0.00152558 0.00132607 0.00114657 0.000988377 0.000852699 0.000740701 0.000653427 0.000591726 0.00027274 0.000342842 0.000453441 0.000581352 0.000719004 0.000864596 0.0010182 0.00118038 0.00120778 0.00101359 0.000837579 0.000680003 0.000541466 0.000423755 0.000331551 0.000274602 
</DataArray> 
</CellData> 
<Points> 
<DataArray type="Float32" NumberOfComponents="3"> 
0.03742 0.02 0 0.036175 0.0209375 0 0.03493 0.021875 0 0.033685 0.0228125 0 0.03244 0.02375 0 0.031195 0.0246875 0 0.02995 0.025625 0 0.028705 0.0265625 0 0.02746 0.0275 0 0.026215 0.0284375 0 0.02497 0.029375 0 0.023725 0.0303125 0 0.02248 0.03125 0 0.021235 0.0321875 0 0.01999 0.033125 0 0.018745 0.0340625 0 0.0175 0.035 0 0.0401288 0.02 0 0.0389616 0.0209375 0 0.0377944 0.021875 0 0.0366272 0.0228125 0 0.03546 0.02375 0 0.0342928 0.0246875 0 0.0331256 0.025625 0 0.0319584 0.0265625 0 0.0307913 0.0275 0 0.0296241 0.0284375 0 0.0284569 0.029375 0 0.0272897 0.0303125 0 0.0261225 0.03125 0 0.0249553 0.0321875 0 0.0237881 0.033125 0 0.0226209 0.0340625 0 0.0214538 0.035 0 0.0428375 0.02 0 0.0417481 0.0209375 0 0.0406588 0.021875 0 0.0395694 0.0228125 0 0.03848 0.02375 0 0.0373906 0.0246875 0 0.0363013 0.025625 0 0.0352119 0.0265625 0 0.0341225 0.0275 0 0.0330331 0.0284375 0 0.0319437 0.029375 0 0.0308544 0.0303125 0 0.029765 0.03125 0 0.0286756 0.0321875 0 0.0275862 0.033125 0 0.0264969 0.0340625 0 0.0254075 0.035 0 0.0455462 0.02 0 0.0445347 0.0209375 0 0.0435231 0.021875 0 0.0425116 0.0228125 0 0.0415 0.02375 0 0.0404884 0.0246875 0 0.0394769 0.025625 0 0.0384653 0.0265625 0 0.0374538 0.0275 0 0.0364422 0.0284375 0 0.0354306 0.029375 0 0.0344191 0.0303125 0 0.0334075 0.03125 0 0.0323959 0.0321875 0 0.0313844 0.033125 0 0.0303728 0.0340625 0 0.0293613 0.035 0 0.048255 0.02 0 0.0473212 0.0209375 0 0.0463875 0.021875 0 0.0454537 0.0228125 0 0.04452 0.02375 0 0.0435862 0.0246875 0 0.0426525 0.025625 0 0.0417187 0.0265625 0 0.040785 0.0275 0 0.0398512 0.0284375 0 0.0389175 0.029375 0 0.0379837 0.0303125 0 0.03705 0.03125 0 0.0361162 0.0321875 0 0.0351825 0.033125 0 0.0342488 0.0340625 0 0.033315 0.035 0 0.0509638 0.02 0 0.0501078 0.0209375 0 0.0492519 0.021875 0 0.0483959 0.0228125 0 0.04754 0.02375 0 0.0466841 0.0246875 0 0.0458281 0.025625 0 0.0449722 0.0265625 0 0.0441163 0.0275 0 0.0432603 0.0284375 0 0.0424044 0.029375 0 0.0415484 0.0303125 0 0.0406925 0.03125 0 0.0398366 0.0321875 0 0.0389806 0.033125 0 0.0381247 0.0340625 0 0.0372688 0.035 0 0.0536725 0.02 0 0.0528944 0.0209375 0 0.0521162 0.021875 0 0.0513381 0.0228125 0 0.05056 0.02375 0 0.0497819 0.0246875 0 0.0490037 0.025625 0 0.0482256 0.0265625 0 0.0474475 0.0275 0 0.0466694 0.0284375 0 0.0458912 0.029375 0 0.0451131 0.0303125 0 0.044335 0.03125 0 0.0435569 0.0321875 0 0.0427788 0.033125 0 0.0420006 0.0340625 0 0.0412225 0.035 0 0.0563813 0.02 0 0.0556809 0.0209375 0 0.0549806 0.021875 0 0.0542803 0.0228125 0 0.05358 0.02375 0 0.0528797 0.0246875 0 0.0521794 0.025625 0 0.0514791 0.0265625 0 0.0507788 0.0275 0 0.0500784 0.0284375 0 0.0493781 0.029375 0 0.0486778 0.0303125 0 0.0479775 0.03125 0 0.0472772 0.0321875 0 0.0465769 0.033125 0 0.0458766 0.0340625 0 0.0451763 0.035 0 0.05909 0.02 0 0.0584675 0.0209375 0 0.057845 0.021875 0 0.0572225 0.0228125 0 0.0566 0.02375 0 0.0559775 0.0246875 0 0.055355 0.025625 0 0.0547325 0.0265625 0 0.05411 0.0275 0 0.0534875 0.0284375 0 0.052865 0.029375 0 0.0522425 0.0303125 0 0.05162 0.03125 0 0.0509975 0.0321875 0 0.050375 0.033125 0 0.0497525 0.0340625 0 0.04913 0.035 0 0.0617987 0.02 0 0.0612541 0.0209375 0 0.0607094 0.021875 0 0.0601647 0.0228125 0 0.05962 0.02375 0 0.0590753 0.0246875 0 0.0585306 0.025625 0 0.0579859 0.0265625 0 0.0574412 0.0275 0 0.0568966 0.0284375 0 0.0563519 0.029375 0 0.0558072 0.0303125 0 0.0552625 0.03125 0 0.0547178 0.0321875 0 0.0541731 0.033125 0 0.0536284 0.0340625 0 0.0530837 0.035 0 0.0645075 0.02 0 0.0640406 0.0209375 0 0.0635737 0.021875 0 0.0631069 0.0228125 0 0.06264 0.02375 0 0.0621731 0.0246875 0 0.0617062 0.025625 0 0.0612394 0.0265625 0 0.0607725 0.0275 0 0.0603056 0.0284375 0 0.0598387 0.029375 0 0.0593719 0.0303125 0 0.058905 0.03125 0 0.0584381 0.0321875 0 0.0579712 0.033125 0 0.0575044 0.0340625 0 0.0570375 0.035 0 0.0672163 0.02 0 0.0668272 0.0209375 0 0.0664381 0.021875 0 0.0660491 0.0228125 0 0.06566 0.02375 0 0.0652709 0.0246875 0 0.0648819 0.025625 0 0.0644928 0.0265625 0 0.0641038 0.0275 0 0.0637147 0.0284375 0 0.0633256 0.029375 0 0.0629366 0.0303125 0 0.0625475 0.03125 0 0.0621584 0.0321875 0 0.0617694 0.033125 0 0.0613803 0.0340625 0 0.0609913 0.035 0 0.069925 0.02 0 0.0696138 0.0209375 0 0.0693025 0.021875 0 0.0689913 0.0228125 0 0.06868 0.02375 0 0.0683688 0.0246875 0 0.0680575 0.025625 0 0.0677463 0.0265625 0 0.067435 0.0275 0 0.0671238 0.0284375 0 0.0668125 0.029375 0 0.0665012 0.0303125 0 0.06619 0.03125 0 0.0658787 0.0321875 0 0.0655675 0.033125 0 0.0652563 0.0340625 0 0.064945 0.035 0 0.0726337 0.02 0 0.0724003 0.0209375 0 0.0721669 0.021875 0 0.0719334 0.0228125 0 0.0717 0.02375 0 0.0714666 0.0246875 0 0.0712331 0.025625 0 0.0709997 0.0265625 0 0.0707663 0.0275 0 0.0705328 0.0284375 0 0.0702994 0.029375 0 0.0700659 0.0303125 0 0.0698325 0.03125 0 0.0695991 0.0321875 0 0.0693656 0.033125 0 0.0691322 0.0340625 0 0.0688987 0.035 0 0.0753425 0.02 0 0.0751869 0.0209375 0 0.0750313 0.021875 0 0.0748756 0.0228125 0 0.07472 0.02375 0 0.0745644 0.0246875 0 0.0744087 0.025625 0 0.0742531 0.0265625 0 0.0740975 0.0275 0 0.0739419 0.0284375 0 0.0737862 0.029375 0 0.0736306 0.0303125 0 0.073475 0.03125 0 0.0733194 0.0321875 0 0.0731637 0.033125 0 0.0730081 0.0340625 0 0.0728525 0.035 0 0.0780513 0.02 0 0.0779734 0.0209375 0 0.0778956 0.021875 0 0.0778178 0.0228125 0 0.07774 0.02375 0 0.0776622 0.0246875 0 0.0775844 0.025625 0 0.0775066 0.0265625 0 0.0774288 0.0275 0 0.0773509 0.0284375 0 0.0772731 0.029375 0 0.0771953 0.0303125 0 0.0771175 0.03125 0 0.0770397 0.0321875 0 0.0769619 0.033125 0 0.0768841 0.0340625 0 0.0768063 0.035 0 0.08076 0.02 0 0.08076 0.0209375 0 0.08076 0.021875 0 0.08076 0.0228125 0 0.08076 0.02375 0 0.08076 0.0246875 0 0.08076 0.025625 0 0.08076 0.0265625 0 0.08076 0.0275 0 0.08076 0.0284375 0 0.08076 0.029375 0 0.08076 0.0303125 0 0.08076 0.03125 0 0.08076 0.0321875 0 0.08076 0.033125 0 0.08076 0.0340625 0 0.08076 0.035 0 
</DataArray>
</Points> 
</Piece> 
</StructuredGrid> 
</VTKFile> 
