<?xml version="1.0"?> 
<VTKFile type="StructuredGrid" version="0.1"> 
<StructuredGrid WholeExtent="0 16 0 16 0 0"> 
<Piece Extent="0 16 0 16 0 0"> 
<CellData>
<DataArray type="Float32" Name="err_h1" format="ascii" NumberOfComponents="1"> 
70.5572 71.1178 71.7172 72.356 73.0349 73.7549 74.5173 75.3235 76.8812 78.8971 80.963 83.0815 85.2556 87.4884 89.7836 92.145 69.8512 70.4182 71.0195 71.6557 72.3278 73.0366 73.7835 74.5703 76.9748 78.9655 81.0024 83.0883 85.226 87.4186 89.6693 91.9815 68.551 69.1279 69.7302 70.3585 71.0138 71.6972 72.4104 73.155 77.2161 79.1502 81.1237 83.1395 85.201 87.3118 89.4757 91.6969 66.8731 67.4579 68.0546 68.6639 69.2871 69.9255 70.5806 71.2545 77.698 79.5314 81.3944 83.2903 85.2227 87.1958 89.2138 91.2814 65.1226 65.7051 66.2821 66.8546 67.4238 67.991 68.5578 69.126 78.5353 80.2092 81.8999 83.6108 85.3457 87.1086 88.9042 90.7379 63.6626 64.2233 64.7595 65.2721 65.7617 66.2295 66.6762 67.103 79.8573 81.3034 82.7499 84.1996 85.6556 87.1218 88.6024 90.1025 62.8607 63.3749 63.8478 64.2797 64.6703 65.0192 65.3257 65.5892 81.8265 82.9803 84.1135 85.2267 86.3214 87.3994 88.4637 89.5191 63.0067 63.4551 63.8545 64.2034 64.4995 64.7399 64.921 65.0391 84.6889 85.5164 86.2958 87.024 87.6984 88.3174 88.8798 89.382 57.1428 57.61 58.1167 58.6646 59.2568 59.8982 60.5954 61.3566 81.4255 82.8061 84.2823 85.8691 87.5837 89.4454 91.4762 93.6999 55.2263 55.6415 56.0557 56.4701 56.8885 57.3174 57.7663 58.2477 73.62 74.6431 75.7266 76.8945 78.1749 79.5988 81.1991 83.0179 53.5958 53.9903 54.2972 54.5159 54.6491 54.7027 54.6869 54.6165 66.273 66.6595 66.9988 67.3237 67.6806 68.1326 68.7556 69.5954 54.0073 54.4263 54.6344 54.6257 54.394 53.9345 53.2446 52.3264 61.4768 60.9466 60.1399 59.0748 57.7767 56.2798 54.6602 53.2173 58.9385 59.4413 59.6687 59.6051 59.2266 58.5012 57.3899 55.8476 63.5619 62.3651 60.522 57.9912 54.7809 50.9932 46.879 43.0631 70.145 70.8197 71.3807 71.8142 72.0978 72.2001 72.0808 71.6917 78.8446 79.3527 79.3073 78.5192 76.6195 72.77 65.0689 50.3156 85.4846 86.4396 87.698 89.2785 91.2091 93.5292 96.2919 99.5686 107.625 113.71 120.752 129.179 139.969 155.495 181.494 230.729 97.2282 98.4492 100.38 103.092 106.699 111.372 117.355 125.001 135.98 149.866 167.723 191.172 222.704 266.24 328.087 418.612 
</DataArray> 
</CellData> 
<Points> 
<DataArray type="Float32" NumberOfComponents="3"> 
-0.05 0 0 -0.05 0.00078125 0 -0.05 0.0015625 0 -0.05 0.00234375 0 -0.05 0.003125 0 -0.05 0.00390625 0 -0.05 0.0046875 0 -0.05 0.00546875 0 -0.05 0.00625 0 -0.05 0.00703125 0 -0.05 0.0078125 0 -0.05 0.00859375 0 -0.05 0.009375 0 -0.05 0.0101563 0 -0.05 0.0109375 0 -0.05 0.0117188 0 -0.05 0.0125 0 -0.0464063 0 0 -0.0464063 0.00078125 0 -0.0464063 0.0015625 0 -0.0464062 0.00234375 0 -0.0464063 0.003125 0 -0.0464063 0.00390625 0 -0.0464063 0.0046875 0 -0.0464063 0.00546875 0 -0.0464063 0.00625 0 -0.0464063 0.00703125 0 -0.0464063 0.0078125 0 -0.0464063 0.00859375 0 -0.0464063 0.009375 0 -0.0464062 0.0101563 0 -0.0464063 0.0109375 0 -0.0464063 0.0117188 0 -0.0464063 0.0125 0 -0.0428125 0 0 -0.0428125 0.00078125 0 -0.0428125 0.0015625 0 -0.0428125 0.00234375 0 -0.0428125 0.003125 0 -0.0428125 0.00390625 0 -0.0428125 0.0046875 0 -0.0428125 0.00546875 0 -0.0428125 0.00625 0 -0.0428125 0.00703125 0 -0.0428125 0.0078125 0 -0.0428125 0.00859375 0 -0.0428125 0.009375 0 -0.0428125 0.0101563 0 -0.0428125 0.0109375 0 -0.0428125 0.0117188 0 -0.0428125 0.0125 0 -0.0392188 0 0 -0.0392188 0.00078125 0 -0.0392188 0.0015625 0 -0.0392188 0.00234375 0 -0.0392188 0.003125 0 -0.0392188 0.00390625 0 -0.0392188 0.0046875 0 -0.0392188 0.00546875 0 -0.0392188 0.00625 0 -0.0392188 0.00703125 0 -0.0392188 0.0078125 0 -0.0392188 0.00859375 0 -0.0392188 0.009375 0 -0.0392188 0.0101563 0 -0.0392188 0.0109375 0 -0.0392188 0.0117188 0 -0.0392188 0.0125 0 -0.035625 0 0 -0.035625 0.00078125 0 -0.035625 0.0015625 0 -0.035625 0.00234375 0 -0.035625 0.003125 0 -0.035625 0.00390625 0 -0.035625 0.0046875 0 -0.035625 0.00546875 0 -0.035625 0.00625 0 -0.035625 0.00703125 0 -0.035625 0.0078125 0 -0.035625 0.00859375 0 -0.035625 0.009375 0 -0.035625 0.0101563 0 -0.035625 0.0109375 0 -0.035625 0.0117188 0 -0.035625 0.0125 0 -0.0320313 0 0 -0.0320313 0.00078125 0 -0.0320313 0.0015625 0 -0.0320313 0.00234375 0 -0.0320313 0.003125 0 -0.0320313 0.00390625 0 -0.0320313 0.0046875 0 -0.0320313 0.00546875 0 -0.0320313 0.00625 0 -0.0320313 0.00703125 0 -0.0320313 0.0078125 0 -0.0320313 0.00859375 0 -0.0320313 0.009375 0 -0.0320313 0.0101563 0 -0.0320313 0.0109375 0 -0.0320313 0.0117188 0 -0.0320313 0.0125 0 -0.0284375 0 0 -0.0284375 0.00078125 0 -0.0284375 0.0015625 0 -0.0284375 0.00234375 0 -0.0284375 0.003125 0 -0.0284375 0.00390625 0 -0.0284375 0.0046875 0 -0.0284375 0.00546875 0 -0.0284375 0.00625 0 -0.0284375 0.00703125 0 -0.0284375 0.0078125 0 -0.0284375 0.00859375 0 -0.0284375 0.009375 0 -0.0284375 0.0101563 0 -0.0284375 0.0109375 0 -0.0284375 0.0117188 0 -0.0284375 0.0125 0 -0.0248438 0 0 -0.0248438 0.00078125 0 -0.0248438 0.0015625 0 -0.0248438 0.00234375 0 -0.0248438 0.003125 0 -0.0248438 0.00390625 0 -0.0248438 0.0046875 0 -0.0248438 0.00546875 0 -0.0248438 0.00625 0 -0.0248438 0.00703125 0 -0.0248438 0.0078125 0 -0.0248438 0.00859375 0 -0.0248438 0.009375 0 -0.0248438 0.0101563 0 -0.0248438 0.0109375 0 -0.0248438 0.0117188 0 -0.0248438 0.0125 0 -0.02125 0 0 -0.02125 0.00078125 0 -0.02125 0.0015625 0 -0.02125 0.00234375 0 -0.02125 0.003125 0 -0.02125 0.00390625 0 -0.02125 0.0046875 0 -0.02125 0.00546875 0 -0.02125 0.00625 0 -0.02125 0.00703125 0 -0.02125 0.0078125 0 -0.02125 0.00859375 0 -0.02125 0.009375 0 -0.02125 0.0101563 0 -0.02125 0.0109375 0 -0.02125 0.0117188 0 -0.02125 0.0125 0 -0.0176563 0 0 -0.0176563 0.00078125 0 -0.0176563 0.0015625 0 -0.0176563 0.00234375 0 -0.0176563 0.003125 0 -0.0176563 0.00390625 0 -0.0176563 0.0046875 0 -0.0176563 0.00546875 0 -0.0176563 0.00625 0 -0.0176563 0.00703125 0 -0.0176563 0.0078125 0 -0.0176563 0.00859375 0 -0.0176563 0.009375 0 -0.0176563 0.0101563 0 -0.0176563 0.0109375 0 -0.0176563 0.0117188 0 -0.0176563 0.0125 0 -0.0140625 0 0 -0.0140625 0.00078125 0 -0.0140625 0.0015625 0 -0.0140625 0.00234375 0 -0.0140625 0.003125 0 -0.0140625 0.00390625 0 -0.0140625 0.0046875 0 -0.0140625 0.00546875 0 -0.0140625 0.00625 0 -0.0140625 0.00703125 0 -0.0140625 0.0078125 0 -0.0140625 0.00859375 0 -0.0140625 0.009375 0 -0.0140625 0.0101563 0 -0.0140625 0.0109375 0 -0.0140625 0.0117188 0 -0.0140625 0.0125 0 -0.0104688 0 0 -0.0104688 0.00078125 0 -0.0104688 0.0015625 0 -0.0104688 0.00234375 0 -0.0104688 0.003125 0 -0.0104688 0.00390625 0 -0.0104688 0.0046875 0 -0.0104688 0.00546875 0 -0.0104688 0.00625 0 -0.0104688 0.00703125 0 -0.0104688 0.0078125 0 -0.0104688 0.00859375 0 -0.0104688 0.009375 0 -0.0104688 0.0101563 0 -0.0104688 0.0109375 0 -0.0104688 0.0117188 0 -0.0104688 0.0125 0 -0.006875 0 0 -0.006875 0.00078125 0 -0.006875 0.0015625 0 -0.006875 0.00234375 0 -0.006875 0.003125 0 -0.006875 0.00390625 0 -0.006875 0.0046875 0 -0.006875 0.00546875 0 -0.006875 0.00625 0 -0.006875 0.00703125 0 -0.006875 0.0078125 0 -0.006875 0.00859375 0 -0.006875 0.009375 0 -0.006875 0.0101563 0 -0.006875 0.0109375 0 -0.006875 0.0117188 0 -0.006875 0.0125 0 -0.00328125 0 0 -0.00328125 0.00078125 0 -0.00328125 0.0015625 0 -0.00328125 0.00234375 0 -0.00328125 0.003125 0 -0.00328125 0.00390625 0 -0.00328125 0.0046875 0 -0.00328125 0.00546875 0 -0.00328125 0.00625 0 -0.00328125 0.00703125 0 -0.00328125 0.0078125 0 -0.00328125 0.00859375 0 -0.00328125 0.009375 0 -0.00328125 0.0101563 0 -0.00328125 0.0109375 0 -0.00328125 0.0117188 0 -0.00328125 0.0125 0 0.0003125 0 0 0.0003125 0.00078125 0 0.0003125 0.0015625 0 0.0003125 0.00234375 0 0.0003125 0.003125 0 0.0003125 0.00390625 0 0.0003125 0.0046875 0 0.0003125 0.00546875 0 0.0003125 0.00625 0 0.0003125 0.00703125 0 0.0003125 0.0078125 0 0.0003125 0.00859375 0 0.0003125 0.009375 0 0.0003125 0.0101563 0 0.0003125 0.0109375 0 0.0003125 0.0117188 0 0.0003125 0.0125 0 0.00390625 0 0 0.00390625 0.00078125 0 0.00390625 0.0015625 0 0.00390625 0.00234375 0 0.00390625 0.003125 0 0.00390625 0.00390625 0 0.00390625 0.0046875 0 0.00390625 0.00546875 0 0.00390625 0.00625 0 0.00390625 0.00703125 0 0.00390625 0.0078125 0 0.00390625 0.00859375 0 0.00390625 0.009375 0 0.00390625 0.0101563 0 0.00390625 0.0109375 0 0.00390625 0.0117188 0 0.00390625 0.0125 0 0.0075 0 0 0.0075 0.00078125 0 0.0075 0.0015625 0 0.0075 0.00234375 0 0.0075 0.003125 0 0.0075 0.00390625 0 0.0075 0.0046875 0 0.0075 0.00546875 0 0.0075 0.00625 0 0.0075 0.00703125 0 0.0075 0.0078125 0 0.0075 0.00859375 0 0.0075 0.009375 0 0.0075 0.0101563 0 0.0075 0.0109375 0 0.0075 0.0117188 0 0.0075 0.0125 0 
</DataArray>
</Points> 
</Piece> 
</StructuredGrid> 
</VTKFile> 
