<?xml version="1.0"?> 
<VTKFile type="StructuredGrid" version="0.1"> 
<StructuredGrid WholeExtent="0 16 0 16 0 0"> 
<Piece Extent="0 16 0 16 0 0"> 
<CellData>
<DataArray type="Float32" Name="err_h1" format="ascii" NumberOfComponents="1"> 
106.628 110.014 113.423 116.854 120.309 123.786 127.287 130.812 134.876 139.18 143.51 147.865 152.245 156.65 161.079 165.53 113.352 116.554 119.791 123.063 126.37 129.713 133.092 136.506 143.026 147.117 151.255 155.44 159.674 163.957 168.293 172.683 125.362 128.295 131.277 134.306 137.383 140.509 143.683 146.905 158.378 162.133 165.952 169.833 173.777 177.782 181.848 185.973 140.396 143.058 145.778 148.557 151.394 154.289 157.243 160.257 178.085 181.513 185.018 188.6 192.258 195.992 199.802 203.689 156.462 158.883 161.37 163.924 166.546 169.235 171.994 174.823 199.634 202.808 206.07 209.421 212.863 216.395 220.018 223.733 171.894 174.093 176.366 178.716 181.144 183.652 186.242 188.915 220.905 223.902 227.001 230.206 233.518 236.937 240.467 244.109 185.151 187.105 189.145 191.276 193.5 195.822 198.245 200.774 239.897 242.775 245.78 248.915 252.184 255.59 259.136 262.826 194.617 196.217 197.927 199.751 201.694 203.764 205.967 208.311 254.358 257.137 260.085 263.208 266.513 270.007 273.696 277.585 230.381 235.699 241.258 247.069 253.136 259.456 266.025 272.839 316.84 324.566 332.561 340.816 349.323 358.071 367.05 376.248 202.186 208.65 215.561 222.873 230.573 238.654 247.115 255.95 291.512 301.586 312.069 322.945 334.201 345.821 357.788 370.084 170.571 179.074 188.029 197.555 207.682 218.408 229.721 241.611 268.449 282.096 296.363 311.235 326.69 342.708 359.263 376.326 138.875 150.117 162.474 175.687 189.686 204.471 220.066 236.493 255.264 274.288 294.282 315.253 337.208 360.146 384.056 408.911 125.599 139.93 155.813 172.995 191.366 210.882 231.56 253.468 267.765 293.476 320.848 350.042 381.224 414.564 450.245 488.481 144.7 171.127 193.435 213.614 233.245 253.423 274.942 298.446 312.463 342.163 375.54 413.14 455.506 503.156 556.526 615.88 335.764 301.505 283.79 276.48 276.719 283.38 296.179 315.23 332.18 364.686 404.84 453.493 511.766 581.152 663.642 761.94 338.177 261.564 207.624 174.562 162.832 171.611 197.131 235.224 280.734 337.917 405.24 484.323 577.58 688.3 820.86 981.078 
</DataArray> 
</CellData> 
<Points> 
<DataArray type="Float32" NumberOfComponents="3"> 
-0.05 0.01875 0 -0.05 0.0191406 0 -0.05 0.0195312 0 -0.05 0.0199219 0 -0.05 0.0203125 0 -0.05 0.0207031 0 -0.05 0.0210938 0 -0.05 0.0214844 0 -0.05 0.021875 0 -0.05 0.0222656 0 -0.05 0.0226562 0 -0.05 0.0230469 0 -0.05 0.0234375 0 -0.05 0.0238281 0 -0.05 0.0242188 0 -0.05 0.0246094 0 -0.05 0.025 0 -0.0464063 0.0191406 0 -0.0464063 0.0195459 0 -0.0464063 0.0199512 0 -0.0464062 0.0203564 0 -0.0464063 0.0207617 0 -0.0464063 0.021167 0 -0.0464063 0.0215723 0 -0.0464063 0.0219775 0 -0.0464063 0.0223828 0 -0.0464063 0.0227881 0 -0.0464063 0.0231934 0 -0.0464063 0.0235986 0 -0.0464063 0.0240039 0 -0.0464062 0.0244092 0 -0.0464063 0.0248145 0 -0.0464063 0.0252197 0 -0.0464063 0.025625 0 -0.0428125 0.0195312 0 -0.0428125 0.0199512 0 -0.0428125 0.0203711 0 -0.0428125 0.020791 0 -0.0428125 0.0212109 0 -0.0428125 0.0216309 0 -0.0428125 0.0220508 0 -0.0428125 0.0224707 0 -0.0428125 0.0228906 0 -0.0428125 0.0233105 0 -0.0428125 0.0237305 0 -0.0428125 0.0241504 0 -0.0428125 0.0245703 0 -0.0428125 0.0249902 0 -0.0428125 0.0254102 0 -0.0428125 0.0258301 0 -0.0428125 0.02625 0 -0.0392188 0.0199219 0 -0.0392188 0.0203564 0 -0.0392188 0.020791 0 -0.0392188 0.0212256 0 -0.0392188 0.0216602 0 -0.0392188 0.0220947 0 -0.0392188 0.0225293 0 -0.0392188 0.0229639 0 -0.0392188 0.0233984 0 -0.0392188 0.023833 0 -0.0392188 0.0242676 0 -0.0392188 0.0247021 0 -0.0392188 0.0251367 0 -0.0392188 0.0255713 0 -0.0392188 0.0260059 0 -0.0392188 0.0264404 0 -0.0392188 0.026875 0 -0.035625 0.0203125 0 -0.035625 0.0207617 0 -0.035625 0.0212109 0 -0.035625 0.0216602 0 -0.035625 0.0221094 0 -0.035625 0.0225586 0 -0.035625 0.0230078 0 -0.035625 0.023457 0 -0.035625 0.0239063 0 -0.035625 0.0243555 0 -0.035625 0.0248047 0 -0.035625 0.0252539 0 -0.035625 0.0257031 0 -0.035625 0.0261523 0 -0.035625 0.0266016 0 -0.035625 0.0270508 0 -0.035625 0.0275 0 -0.0320313 0.0207031 0 -0.0320313 0.021167 0 -0.0320313 0.0216309 0 -0.0320313 0.0220947 0 -0.0320313 0.0225586 0 -0.0320313 0.0230225 0 -0.0320313 0.0234863 0 -0.0320313 0.0239502 0 -0.0320313 0.0244141 0 -0.0320313 0.0248779 0 -0.0320313 0.0253418 0 -0.0320313 0.0258057 0 -0.0320313 0.0262695 0 -0.0320313 0.0267334 0 -0.0320313 0.0271973 0 -0.0320313 0.0276611 0 -0.0320313 0.028125 0 -0.0284375 0.0210938 0 -0.0284375 0.0215723 0 -0.0284375 0.0220508 0 -0.0284375 0.0225293 0 -0.0284375 0.0230078 0 -0.0284375 0.0234863 0 -0.0284375 0.0239648 0 -0.0284375 0.0244434 0 -0.0284375 0.0249219 0 -0.0284375 0.0254004 0 -0.0284375 0.0258789 0 -0.0284375 0.0263574 0 -0.0284375 0.0268359 0 -0.0284375 0.0273145 0 -0.0284375 0.027793 0 -0.0284375 0.0282715 0 -0.0284375 0.02875 0 -0.0248438 0.0214844 0 -0.0248438 0.0219775 0 -0.0248438 0.0224707 0 -0.0248438 0.0229639 0 -0.0248438 0.023457 0 -0.0248438 0.0239502 0 -0.0248438 0.0244434 0 -0.0248438 0.0249365 0 -0.0248438 0.0254297 0 -0.0248438 0.0259229 0 -0.0248438 0.026416 0 -0.0248438 0.0269092 0 -0.0248438 0.0274023 0 -0.0248438 0.0278955 0 -0.0248438 0.0283887 0 -0.0248438 0.0288818 0 -0.0248438 0.029375 0 -0.02125 0.021875 0 -0.02125 0.0223828 0 -0.02125 0.0228906 0 -0.02125 0.0233984 0 -0.02125 0.0239062 0 -0.02125 0.0244141 0 -0.02125 0.0249219 0 -0.02125 0.0254297 0 -0.02125 0.0259375 0 -0.02125 0.0264453 0 -0.02125 0.0269531 0 -0.02125 0.0274609 0 -0.02125 0.0279688 0 -0.02125 0.0284766 0 -0.02125 0.0289844 0 -0.02125 0.0294922 0 -0.02125 0.03 0 -0.0176563 0.0222656 0 -0.0176563 0.0227881 0 -0.0176563 0.0233105 0 -0.0176563 0.023833 0 -0.0176563 0.0243555 0 -0.0176563 0.0248779 0 -0.0176563 0.0254004 0 -0.0176563 0.0259229 0 -0.0176563 0.0264453 0 -0.0176563 0.0269678 0 -0.0176563 0.0274902 0 -0.0176563 0.0280127 0 -0.0176563 0.0285352 0 -0.0176563 0.0290576 0 -0.0176563 0.0295801 0 -0.0176563 0.0301025 0 -0.0176563 0.030625 0 -0.0140625 0.0226562 0 -0.0140625 0.0231934 0 -0.0140625 0.0237305 0 -0.0140625 0.0242676 0 -0.0140625 0.0248047 0 -0.0140625 0.0253418 0 -0.0140625 0.0258789 0 -0.0140625 0.026416 0 -0.0140625 0.0269531 0 -0.0140625 0.0274902 0 -0.0140625 0.0280273 0 -0.0140625 0.0285645 0 -0.0140625 0.0291016 0 -0.0140625 0.0296387 0 -0.0140625 0.0301758 0 -0.0140625 0.0307129 0 -0.0140625 0.03125 0 -0.0104688 0.0230469 0 -0.0104688 0.0235986 0 -0.0104688 0.0241504 0 -0.0104688 0.0247021 0 -0.0104688 0.0252539 0 -0.0104688 0.0258057 0 -0.0104688 0.0263574 0 -0.0104688 0.0269092 0 -0.0104688 0.0274609 0 -0.0104688 0.0280127 0 -0.0104688 0.0285645 0 -0.0104688 0.0291162 0 -0.0104688 0.029668 0 -0.0104688 0.0302197 0 -0.0104688 0.0307715 0 -0.0104688 0.0313232 0 -0.0104688 0.031875 0 -0.006875 0.0234375 0 -0.006875 0.0240039 0 -0.006875 0.0245703 0 -0.006875 0.0251367 0 -0.006875 0.0257031 0 -0.006875 0.0262695 0 -0.006875 0.0268359 0 -0.006875 0.0274023 0 -0.006875 0.0279688 0 -0.006875 0.0285352 0 -0.006875 0.0291016 0 -0.006875 0.029668 0 -0.006875 0.0302344 0 -0.006875 0.0308008 0 -0.006875 0.0313672 0 -0.006875 0.0319336 0 -0.006875 0.0325 0 -0.00328125 0.0238281 0 -0.00328125 0.0244092 0 -0.00328125 0.0249902 0 -0.00328125 0.0255713 0 -0.00328125 0.0261523 0 -0.00328125 0.0267334 0 -0.00328125 0.0273145 0 -0.00328125 0.0278955 0 -0.00328125 0.0284766 0 -0.00328125 0.0290576 0 -0.00328125 0.0296387 0 -0.00328125 0.0302197 0 -0.00328125 0.0308008 0 -0.00328125 0.0313818 0 -0.00328125 0.0319629 0 -0.00328125 0.0325439 0 -0.00328125 0.033125 0 0.0003125 0.0242188 0 0.0003125 0.0248145 0 0.0003125 0.0254102 0 0.0003125 0.0260059 0 0.0003125 0.0266016 0 0.0003125 0.0271973 0 0.0003125 0.027793 0 0.0003125 0.0283887 0 0.0003125 0.0289844 0 0.0003125 0.0295801 0 0.0003125 0.0301758 0 0.0003125 0.0307715 0 0.0003125 0.0313672 0 0.0003125 0.0319629 0 0.0003125 0.0325586 0 0.0003125 0.0331543 0 0.0003125 0.03375 0 0.00390625 0.0246094 0 0.00390625 0.0252197 0 0.00390625 0.0258301 0 0.00390625 0.0264404 0 0.00390625 0.0270508 0 0.00390625 0.0276611 0 0.00390625 0.0282715 0 0.00390625 0.0288818 0 0.00390625 0.0294922 0 0.00390625 0.0301025 0 0.00390625 0.0307129 0 0.00390625 0.0313232 0 0.00390625 0.0319336 0 0.00390625 0.0325439 0 0.00390625 0.0331543 0 0.00390625 0.0337646 0 0.00390625 0.034375 0 0.0075 0.025 0 0.0075 0.025625 0 0.0075 0.02625 0 0.0075 0.026875 0 0.0075 0.0275 0 0.0075 0.028125 0 0.0075 0.02875 0 0.0075 0.029375 0 0.0075 0.03 0 0.0075 0.030625 0 0.0075 0.03125 0 0.0075 0.031875 0 0.0075 0.0325 0 0.0075 0.033125 0 0.0075 0.03375 0 0.0075 0.034375 0 0.0075 0.035 0 
</DataArray>
</Points> 
</Piece> 
</StructuredGrid> 
</VTKFile> 
