<?xml version="1.0"?> 
<VTKFile type="StructuredGrid" version="0.1"> 
<StructuredGrid WholeExtent="0 16 0 16 0 0"> 
<Piece Extent="0 16 0 16 0 0"> 
<CellData>
<DataArray type="Float32" Name="err_h1" format="ascii" NumberOfComponents="1"> 
354.503 287.107 231.633 186.357 151.826 131.302 129.395 147.178 175.041 219.522 273.874 338.95 417.064 512.061 629.83 779.335 306.481 289.968 281.613 281.118 288.227 302.632 324.006 352.092 371.078 411.178 457.861 511.54 572.663 641.641 718.856 805.082 352.932 357.677 365.014 375.449 389.285 406.71 427.856 452.821 451.608 482.887 518.223 557.586 600.752 647.115 695.314 742.521 373.653 377.106 383.282 392.116 403.607 417.78 434.659 454.256 429.965 453.266 479.529 508.577 540.172 574.085 610.327 649.716 334.611 335.057 337.904 343.268 351.227 361.818 375.042 390.867 345.209 364.62 387.204 412.767 441.118 472.073 505.393 540.516 256.741 252.045 250.45 252.175 257.346 265.982 277.993 293.206 229.704 250.471 275.073 302.911 333.467 366.312 401.102 437.664 163.83 150.646 141.941 138.826 141.969 151.291 166.064 185.285 117.029 147.045 179.892 214.625 250.766 288.049 326.317 365.434 111.469 85.1754 60.8888 42.9656 41.7253 58.9017 84.3465 112.977 126.262 150.776 179.522 211.061 244.561 279.531 315.669 352.786 98.3129 88.5382 78.7798 69.0407 59.329 49.661 40.0693 30.6264 134.626 125.291 116.043 106.89 97.8407 88.9017 80.0811 71.3893 94.5451 86.5559 78.921 71.7318 65.1148 59.2406 54.3289 50.638 121.952 113.847 105.951 98.2862 90.8817 83.7722 77.002 70.6264 117.811 112.586 107.884 103.758 100.256 97.4271 95.3132 93.945 131.63 125.337 119.365 113.735 108.474 103.608 99.1658 95.1747 148.002 144.269 140.977 138.139 135.765 133.866 132.448 131.511 150.705 145.703 141.014 136.649 132.617 128.924 125.58 122.588 175.605 172.535 169.817 167.455 165.448 163.798 162.503 161.561 170.401 166.093 162.06 158.303 154.822 151.619 148.692 146.04 197.403 194.609 192.109 189.902 187.987 186.36 185.021 183.965 186.756 182.784 179.052 175.559 172.301 169.277 166.484 163.917 212.258 209.569 207.14 204.968 203.051 201.386 199.97 198.8 198.143 194.316 190.705 187.308 184.123 181.147 178.379 175.819 219.753 217.098 214.685 212.513 210.579 208.88 207.413 206.174 203.929 200.147 196.568 193.187 190 187.003 184.189 181.551 
</DataArray> 
</CellData> 
<Points> 
<DataArray type="Float32" NumberOfComponents="3"> 
0.09021 0.0098 0 0.0907531 0.0110629 0 0.0912962 0.0123258 0 0.0918392 0.0135887 0 0.0923823 0.0148516 0 0.0929254 0.0161145 0 0.0934685 0.0173774 0 0.0940116 0.0186403 0 0.0945546 0.0199032 0 0.0950977 0.0211661 0 0.0956408 0.022429 0 0.0961839 0.0236919 0 0.096727 0.0249548 0 0.0972701 0.0262177 0 0.0978131 0.0274806 0 0.0983562 0.0287435 0 0.0988993 0.0300064 0 0.0970719 0.0098 0 0.097581 0.0110629 0 0.0980902 0.0123258 0 0.0985993 0.0135887 0 0.0991084 0.0148516 0 0.0996176 0.0161145 0 0.100127 0.0173774 0 0.100636 0.0186403 0 0.101145 0.0199032 0 0.101654 0.0211661 0 0.102163 0.022429 0 0.102672 0.0236919 0 0.103182 0.0249548 0 0.103691 0.0262177 0 0.1042 0.0274806 0 0.104709 0.0287435 0 0.105218 0.0300064 0 0.103934 0.0098 0 0.104409 0.0110629 0 0.104884 0.0123258 0 0.105359 0.0135887 0 0.105835 0.0148516 0 0.10631 0.0161145 0 0.106785 0.0173774 0 0.10726 0.0186403 0 0.107735 0.0199032 0 0.108211 0.0211661 0 0.108686 0.022429 0 0.109161 0.0236919 0 0.109636 0.0249548 0 0.110111 0.0262177 0 0.110586 0.0274806 0 0.111062 0.0287435 0 0.111537 0.0300064 0 0.110796 0.0098 0 0.111237 0.0110629 0 0.111678 0.0123258 0 0.112119 0.0135887 0 0.112561 0.0148516 0 0.113002 0.0161145 0 0.113443 0.0173774 0 0.113884 0.0186403 0 0.114326 0.0199032 0 0.114767 0.0211661 0 0.115208 0.022429 0 0.115649 0.0236919 0 0.116091 0.0249548 0 0.116532 0.0262177 0 0.116973 0.0274806 0 0.117414 0.0287435 0 0.117856 0.0300064 0 0.117657 0.0098 0 0.118065 0.0110629 0 0.118472 0.0123258 0 0.118879 0.0135887 0 0.119287 0.0148516 0 0.119694 0.0161145 0 0.120101 0.0173774 0 0.120509 0.0186403 0 0.120916 0.0199032 0 0.121323 0.0211661 0 0.121731 0.022429 0 0.122138 0.0236919 0 0.122545 0.0249548 0 0.122953 0.0262177 0 0.12336 0.0274806 0 0.123767 0.0287435 0 0.124174 0.0300064 0 0.124519 0.0098 0 0.124893 0.0110629 0 0.125266 0.0123258 0 0.125639 0.0135887 0 0.126013 0.0148516 0 0.126386 0.0161145 0 0.12676 0.0173774 0 0.127133 0.0186403 0 0.127506 0.0199032 0 0.12788 0.0211661 0 0.128253 0.022429 0 0.128626 0.0236919 0 0.129 0.0249548 0 0.129373 0.0262177 0 0.129747 0.0274806 0 0.13012 0.0287435 0 0.130493 0.0300064 0 0.131381 0.0098 0 0.131721 0.0110629 0 0.13206 0.0123258 0 0.1324 0.0135887 0 0.132739 0.0148516 0 0.133078 0.0161145 0 0.133418 0.0173774 0 0.133757 0.0186403 0 0.134097 0.0199032 0 0.134436 0.0211661 0 0.134776 0.022429 0 0.135115 0.0236919 0 0.135454 0.0249548 0 0.135794 0.0262177 0 0.136133 0.0274806 0 0.136473 0.0287435 0 0.136812 0.0300064 0 0.138243 0.0098 0 0.138549 0.0110629 0 0.138854 0.0123258 0 0.13916 0.0135887 0 0.139465 0.0148516 0 0.139771 0.0161145 0 0.140076 0.0173774 0 0.140382 0.0186403 0 0.140687 0.0199032 0 0.140992 0.0211661 0 0.141298 0.022429 0 0.141603 0.0236919 0 0.141909 0.0249548 0 0.142214 0.0262177 0 0.14252 0.0274806 0 0.142825 0.0287435 0 0.143131 0.0300064 0 0.145105 0.0098 0 0.145377 0.0110629 0 0.145648 0.0123258 0 0.14592 0.0135887 0 0.146191 0.0148516 0 0.146463 0.0161145 0 0.146734 0.0173774 0 0.147006 0.0186403 0 0.147277 0.0199032 0 0.147549 0.0211661 0 0.14782 0.022429 0 0.148092 0.0236919 0 0.148363 0.0249548 0 0.148635 0.0262177 0 0.148907 0.0274806 0 0.149178 0.0287435 0 0.14945 0.0300064 0 0.151967 0.0098 0 0.152204 0.0110629 0 0.152442 0.0123258 0 0.15268 0.0135887 0 0.152917 0.0148516 0 0.153155 0.0161145 0 0.153392 0.0173774 0 0.15363 0.0186403 0 0.153868 0.0199032 0 0.154105 0.0211661 0 0.154343 0.022429 0 0.15458 0.0236919 0 0.154818 0.0249548 0 0.155056 0.0262177 0 0.155293 0.0274806 0 0.155531 0.0287435 0 0.155768 0.0300064 0 0.158829 0.0098 0 0.159032 0.0110629 0 0.159236 0.0123258 0 0.15944 0.0135887 0 0.159643 0.0148516 0 0.159847 0.0161145 0 0.160051 0.0173774 0 0.160254 0.0186403 0 0.160458 0.0199032 0 0.160662 0.0211661 0 0.160865 0.022429 0 0.161069 0.0236919 0 0.161273 0.0249548 0 0.161476 0.0262177 0 0.16168 0.0274806 0 0.161884 0.0287435 0 0.162087 0.0300064 0 0.165691 0.0098 0 0.16586 0.0110629 0 0.16603 0.0123258 0 0.1662 0.0135887 0 0.166369 0.0148516 0 0.166539 0.0161145 0 0.166709 0.0173774 0 0.166879 0.0186403 0 0.167048 0.0199032 0 0.167218 0.0211661 0 0.167388 0.022429 0 0.167557 0.0236919 0 0.167727 0.0249548 0 0.167897 0.0262177 0 0.168067 0.0274806 0 0.168236 0.0287435 0 0.168406 0.0300064 0 0.172553 0.0098 0 0.172688 0.0110629 0 0.172824 0.0123258 0 0.17296 0.0135887 0 0.173096 0.0148516 0 0.173231 0.0161145 0 0.173367 0.0173774 0 0.173503 0.0186403 0 0.173639 0.0199032 0 0.173774 0.0211661 0 0.17391 0.022429 0 0.174046 0.0236919 0 0.174182 0.0249548 0 0.174318 0.0262177 0 0.174453 0.0274806 0 0.174589 0.0287435 0 0.174725 0.0300064 0 0.179414 0.0098 0 0.179516 0.0110629 0 0.179618 0.0123258 0 0.17972 0.0135887 0 0.179822 0.0148516 0 0.179924 0.0161145 0 0.180025 0.0173774 0 0.180127 0.0186403 0 0.180229 0.0199032 0 0.180331 0.0211661 0 0.180433 0.022429 0 0.180534 0.0236919 0 0.180636 0.0249548 0 0.180738 0.0262177 0 0.18084 0.0274806 0 0.180942 0.0287435 0 0.181044 0.0300064 0 0.186276 0.0098 0 0.186344 0.0110629 0 0.186412 0.0123258 0 0.18648 0.0135887 0 0.186548 0.0148516 0 0.186616 0.0161145 0 0.186684 0.0173774 0 0.186751 0.0186403 0 0.186819 0.0199032 0 0.186887 0.0211661 0 0.186955 0.022429 0 0.187023 0.0236919 0 0.187091 0.0249548 0 0.187159 0.0262177 0 0.187227 0.0274806 0 0.187295 0.0287435 0 0.187362 0.0300064 0 0.193138 0.0098 0 0.193172 0.0110629 0 0.193206 0.0123258 0 0.19324 0.0135887 0 0.193274 0.0148516 0 0.193308 0.0161145 0 0.193342 0.0173774 0 0.193376 0.0186403 0 0.19341 0.0199032 0 0.193444 0.0211661 0 0.193478 0.022429 0 0.193511 0.0236919 0 0.193545 0.0249548 0 0.193579 0.0262177 0 0.193613 0.0274806 0 0.193647 0.0287435 0 0.193681 0.0300064 0 0.2 0.0098 0 0.2 0.0110629 0 0.2 0.0123258 0 0.2 0.0135887 0 0.2 0.0148516 0 0.2 0.0161145 0 0.2 0.0173774 0 0.2 0.0186403 0 0.2 0.0199032 0 0.2 0.0211661 0 0.2 0.022429 0 0.2 0.0236919 0 0.2 0.0249548 0 0.2 0.0262177 0 0.2 0.0274806 0 0.2 0.0287435 0 0.2 0.0300064 0 
</DataArray>
</Points> 
</Piece> 
</StructuredGrid> 
</VTKFile> 
