<?xml version="1.0"?> 
<VTKFile type="StructuredGrid" version="0.1"> 
<StructuredGrid WholeExtent="0 16 0 16 0 0"> 
<Piece Extent="0 16 0 16 0 0"> 
<CellData>
<DataArray type="Float32" Name="err_h1" format="ascii" NumberOfComponents="1"> 
51.1042 52.3012 54.7045 58.2873 63.0273 68.9197 75.9865 84.2813 93.7661 104.785 117.412 131.854 148.368 167.273 188.954 213.884 26.9854 29.329 33.6483 39.4136 46.2399 53.9104 62.3281 71.473 80.8723 91.6096 103.276 116.009 129.981 145.418 162.607 181.921 107.104 107.768 109.098 111.081 113.7 116.933 120.75 125.12 129.683 135.035 140.794 146.887 153.217 159.66 166.053 172.182 150.149 150.485 151.146 152.133 153.441 155.067 157.007 159.258 161.711 164.596 167.788 171.293 175.124 179.304 183.872 188.893 157.226 157.448 157.871 158.495 159.322 160.35 161.581 163.015 164.755 166.639 168.727 171.019 173.512 176.202 179.081 182.138 139.509 139.693 140.027 140.511 141.146 141.93 142.865 143.95 145.527 146.978 148.58 150.33 152.231 154.282 156.483 158.838 107.603 107.798 108.136 108.617 109.238 110.001 110.904 111.945 113.794 115.208 116.755 118.435 120.246 122.187 124.258 126.455 69.5175 69.7869 70.2374 70.8662 71.6702 72.6452 73.7865 75.0889 77.7632 79.5048 81.3836 83.3942 85.531 87.789 90.1631 92.6488 9.89693 11.4294 13.6656 16.3216 19.228 22.2911 25.459 28.7018 34.7127 38.0736 41.4705 44.9003 48.3613 51.8525 55.3737 58.9251 29.5477 30.0569 30.9128 32.0886 33.5522 35.2697 37.208 39.3371 43.3251 45.8621 48.5069 51.2462 54.0688 56.9658 59.9297 62.9546 62.3444 62.5665 62.9478 63.4858 64.177 65.0175 66.0023 67.1261 69.1636 70.6446 72.2423 73.9508 75.7642 77.6771 79.6842 81.7807 90.4523 90.591 90.8304 91.1699 91.6088 92.146 92.7803 93.5104 94.729 95.7151 96.7904 97.9531 99.2012 100.532 101.945 103.437 113.211 113.312 113.485 113.732 114.051 114.443 114.907 115.442 116.253 116.983 117.781 118.649 119.584 120.587 121.656 122.791 130.368 130.448 130.585 130.781 131.035 131.347 131.717 132.145 132.732 133.316 133.958 134.656 135.411 136.221 137.088 138.01 141.826 141.894 142.012 142.18 142.398 142.667 142.985 143.353 143.816 144.32 144.873 145.476 146.129 146.831 147.582 148.382 147.556 147.62 147.729 147.885 148.087 148.335 148.63 148.97 149.378 149.846 150.359 150.919 151.525 152.177 152.876 153.62 
</DataArray> 
</CellData> 
<Points> 
<DataArray type="Float32" NumberOfComponents="3"> 
0.09021 0 0 0.09021 0.0006125 0 0.09021 0.001225 0 0.09021 0.0018375 0 0.09021 0.00245 0 0.09021 0.0030625 0 0.09021 0.003675 0 0.09021 0.0042875 0 0.09021 0.0049 0 0.09021 0.0055125 0 0.09021 0.006125 0 0.09021 0.0067375 0 0.09021 0.00735 0 0.09021 0.0079625 0 0.09021 0.008575 0 0.09021 0.0091875 0 0.09021 0.0098 0 0.0970719 0 0 0.0970719 0.0006125 0 0.0970719 0.001225 0 0.0970719 0.0018375 0 0.0970719 0.00245 0 0.0970719 0.0030625 0 0.0970719 0.003675 0 0.0970719 0.0042875 0 0.0970719 0.0049 0 0.0970719 0.0055125 0 0.0970719 0.006125 0 0.0970719 0.0067375 0 0.0970719 0.00735 0 0.0970719 0.0079625 0 0.0970719 0.008575 0 0.0970719 0.0091875 0 0.0970719 0.0098 0 0.103934 0 0 0.103934 0.0006125 0 0.103934 0.001225 0 0.103934 0.0018375 0 0.103934 0.00245 0 0.103934 0.0030625 0 0.103934 0.003675 0 0.103934 0.0042875 0 0.103934 0.0049 0 0.103934 0.0055125 0 0.103934 0.006125 0 0.103934 0.0067375 0 0.103934 0.00735 0 0.103934 0.0079625 0 0.103934 0.008575 0 0.103934 0.0091875 0 0.103934 0.0098 0 0.110796 0 0 0.110796 0.0006125 0 0.110796 0.001225 0 0.110796 0.0018375 0 0.110796 0.00245 0 0.110796 0.0030625 0 0.110796 0.003675 0 0.110796 0.0042875 0 0.110796 0.0049 0 0.110796 0.0055125 0 0.110796 0.006125 0 0.110796 0.0067375 0 0.110796 0.00735 0 0.110796 0.0079625 0 0.110796 0.008575 0 0.110796 0.0091875 0 0.110796 0.0098 0 0.117657 0 0 0.117657 0.0006125 0 0.117657 0.001225 0 0.117657 0.0018375 0 0.117657 0.00245 0 0.117657 0.0030625 0 0.117657 0.003675 0 0.117657 0.0042875 0 0.117657 0.0049 0 0.117657 0.0055125 0 0.117657 0.006125 0 0.117657 0.0067375 0 0.117657 0.00735 0 0.117657 0.0079625 0 0.117657 0.008575 0 0.117657 0.0091875 0 0.117657 0.0098 0 0.124519 0 0 0.124519 0.0006125 0 0.124519 0.001225 0 0.124519 0.0018375 0 0.124519 0.00245 0 0.124519 0.0030625 0 0.124519 0.003675 0 0.124519 0.0042875 0 0.124519 0.0049 0 0.124519 0.0055125 0 0.124519 0.006125 0 0.124519 0.0067375 0 0.124519 0.00735 0 0.124519 0.0079625 0 0.124519 0.008575 0 0.124519 0.0091875 0 0.124519 0.0098 0 0.131381 0 0 0.131381 0.0006125 0 0.131381 0.001225 0 0.131381 0.0018375 0 0.131381 0.00245 0 0.131381 0.0030625 0 0.131381 0.003675 0 0.131381 0.0042875 0 0.131381 0.0049 0 0.131381 0.0055125 0 0.131381 0.006125 0 0.131381 0.0067375 0 0.131381 0.00735 0 0.131381 0.0079625 0 0.131381 0.008575 0 0.131381 0.0091875 0 0.131381 0.0098 0 0.138243 0 0 0.138243 0.0006125 0 0.138243 0.001225 0 0.138243 0.0018375 0 0.138243 0.00245 0 0.138243 0.0030625 0 0.138243 0.003675 0 0.138243 0.0042875 0 0.138243 0.0049 0 0.138243 0.0055125 0 0.138243 0.006125 0 0.138243 0.0067375 0 0.138243 0.00735 0 0.138243 0.0079625 0 0.138243 0.008575 0 0.138243 0.0091875 0 0.138243 0.0098 0 0.145105 0 0 0.145105 0.0006125 0 0.145105 0.001225 0 0.145105 0.0018375 0 0.145105 0.00245 0 0.145105 0.0030625 0 0.145105 0.003675 0 0.145105 0.0042875 0 0.145105 0.0049 0 0.145105 0.0055125 0 0.145105 0.006125 0 0.145105 0.0067375 0 0.145105 0.00735 0 0.145105 0.0079625 0 0.145105 0.008575 0 0.145105 0.0091875 0 0.145105 0.0098 0 0.151967 0 0 0.151967 0.0006125 0 0.151967 0.001225 0 0.151967 0.0018375 0 0.151967 0.00245 0 0.151967 0.0030625 0 0.151967 0.003675 0 0.151967 0.0042875 0 0.151967 0.0049 0 0.151967 0.0055125 0 0.151967 0.006125 0 0.151967 0.0067375 0 0.151967 0.00735 0 0.151967 0.0079625 0 0.151967 0.008575 0 0.151967 0.0091875 0 0.151967 0.0098 0 0.158829 0 0 0.158829 0.0006125 0 0.158829 0.001225 0 0.158829 0.0018375 0 0.158829 0.00245 0 0.158829 0.0030625 0 0.158829 0.003675 0 0.158829 0.0042875 0 0.158829 0.0049 0 0.158829 0.0055125 0 0.158829 0.006125 0 0.158829 0.0067375 0 0.158829 0.00735 0 0.158829 0.0079625 0 0.158829 0.008575 0 0.158829 0.0091875 0 0.158829 0.0098 0 0.165691 0 0 0.165691 0.0006125 0 0.165691 0.001225 0 0.165691 0.0018375 0 0.165691 0.00245 0 0.165691 0.0030625 0 0.165691 0.003675 0 0.165691 0.0042875 0 0.165691 0.0049 0 0.165691 0.0055125 0 0.165691 0.006125 0 0.165691 0.0067375 0 0.165691 0.00735 0 0.165691 0.0079625 0 0.165691 0.008575 0 0.165691 0.0091875 0 0.165691 0.0098 0 0.172553 0 0 0.172553 0.0006125 0 0.172553 0.001225 0 0.172553 0.0018375 0 0.172553 0.00245 0 0.172553 0.0030625 0 0.172553 0.003675 0 0.172553 0.0042875 0 0.172553 0.0049 0 0.172553 0.0055125 0 0.172553 0.006125 0 0.172553 0.0067375 0 0.172553 0.00735 0 0.172553 0.0079625 0 0.172553 0.008575 0 0.172553 0.0091875 0 0.172553 0.0098 0 0.179414 0 0 0.179414 0.0006125 0 0.179414 0.001225 0 0.179414 0.0018375 0 0.179414 0.00245 0 0.179414 0.0030625 0 0.179414 0.003675 0 0.179414 0.0042875 0 0.179414 0.0049 0 0.179414 0.0055125 0 0.179414 0.006125 0 0.179414 0.0067375 0 0.179414 0.00735 0 0.179414 0.0079625 0 0.179414 0.008575 0 0.179414 0.0091875 0 0.179414 0.0098 0 0.186276 0 0 0.186276 0.0006125 0 0.186276 0.001225 0 0.186276 0.0018375 0 0.186276 0.00245 0 0.186276 0.0030625 0 0.186276 0.003675 0 0.186276 0.0042875 0 0.186276 0.0049 0 0.186276 0.0055125 0 0.186276 0.006125 0 0.186276 0.0067375 0 0.186276 0.00735 0 0.186276 0.0079625 0 0.186276 0.008575 0 0.186276 0.0091875 0 0.186276 0.0098 0 0.193138 0 0 0.193138 0.0006125 0 0.193138 0.001225 0 0.193138 0.0018375 0 0.193138 0.00245 0 0.193138 0.0030625 0 0.193138 0.003675 0 0.193138 0.0042875 0 0.193138 0.0049 0 0.193138 0.0055125 0 0.193138 0.006125 0 0.193138 0.0067375 0 0.193138 0.00735 0 0.193138 0.0079625 0 0.193138 0.008575 0 0.193138 0.0091875 0 0.193138 0.0098 0 0.2 0 0 0.2 0.0006125 0 0.2 0.001225 0 0.2 0.0018375 0 0.2 0.00245 0 0.2 0.0030625 0 0.2 0.003675 0 0.2 0.0042875 0 0.2 0.0049 0 0.2 0.0055125 0 0.2 0.006125 0 0.2 0.0067375 0 0.2 0.00735 0 0.2 0.0079625 0 0.2 0.008575 0 0.2 0.0091875 0 0.2 0.0098 0 
</DataArray>
</Points> 
</Piece> 
</StructuredGrid> 
</VTKFile> 
