<?xml version="1.0"?> 
<VTKFile type="StructuredGrid" version="0.1"> 
<StructuredGrid WholeExtent="0 16 0 16 0 0"> 
<Piece Extent="0 16 0 16 0 0"> 
<CellData>
<DataArray type="Float32" Name="err_h1" format="ascii" NumberOfComponents="1"> 
70.4781 73.5906 76.7229 79.8747 83.0459 86.2363 89.446 92.675 94.1525 95.5757 97.0163 98.4745 99.9508 101.446 102.96 104.493 81.6848 84.4291 87.2133 90.0359 92.8955 95.791 98.7216 101.686 96.9162 98.338 99.7806 101.245 102.731 104.24 105.773 107.33 97.727 100.08 102.484 104.94 107.444 109.998 112.598 115.245 99.5202 100.917 102.339 103.786 105.26 106.761 108.291 109.851 115.389 117.422 119.511 121.653 123.85 126.1 128.403 130.76 101.566 102.902 104.267 105.662 107.088 108.547 110.04 111.569 132.945 134.708 136.526 138.398 140.324 142.305 144.342 146.434 102.674 103.892 105.141 106.425 107.746 109.105 110.506 111.952 149.464 150.958 152.504 154.101 155.75 157.454 159.213 161.028 102.496 103.499 104.536 105.612 106.729 107.894 109.108 110.377 164.459 165.631 166.844 168.103 169.41 170.765 172.174 173.636 100.769 101.401 102.065 102.768 103.516 104.317 105.177 106.106 177.83 178.556 179.314 180.103 180.924 181.782 182.68 183.623 97.5016 97.5138 97.542 97.5961 97.6872 97.8278 98.0314 98.3102 155.945 163.035 171.028 179.853 189.432 199.691 210.566 222.001 193.711 189.856 186.194 182.737 179.493 176.475 173.695 171.167 95.0304 105.482 116.783 128.744 141.264 154.28 167.748 181.638 207.763 204.255 201.022 198.086 195.466 193.18 191.244 189.665 72.2306 84.7982 97.8466 111.291 125.109 139.3 153.876 168.853 213.651 209.492 205.703 202.329 199.419 197.026 195.218 194.088 100.724 111.036 121.339 132.336 144.168 156.832 170.299 184.548 209.396 202.784 196.626 191.023 186.079 181.887 178.51 175.998 145.868 148.046 155.557 165.285 176.289 188.342 201.438 215.619 198.346 186.274 174.455 163.103 152.535 143.237 135.878 131.139 141.003 164.91 177.862 188.205 199.762 213.748 230.276 249.024 197.913 176.146 154.619 133.64 113.191 92.5689 70.0488 49.5509 212.97 137.433 131.067 151.856 185.382 224.391 265.232 306.292 256.381 218.791 182.002 147.034 115.497 89.2528 73.6201 122.234 823.689 485.845 374.039 370.962 404.979 448.804 495.258 543.103 499.828 463.137 431.569 406.556 393.254 408.295 499.395 793.507 
</DataArray> 
</CellData> 
<Points> 
<DataArray type="Float32" NumberOfComponents="3"> 
-0.05 0.0125 0 -0.05 0.0128906 0 -0.05 0.0132813 0 -0.05 0.0136719 0 -0.05 0.0140625 0 -0.05 0.0144531 0 -0.05 0.0148437 0 -0.05 0.0152344 0 -0.05 0.015625 0 -0.05 0.0160156 0 -0.05 0.0164063 0 -0.05 0.0167969 0 -0.05 0.0171875 0 -0.05 0.0175781 0 -0.05 0.0179688 0 -0.05 0.0183594 0 -0.05 0.01875 0 -0.0464063 0.0125 0 -0.0464063 0.012915 0 -0.0464063 0.0133301 0 -0.0464062 0.0137451 0 -0.0464063 0.0141602 0 -0.0464063 0.0145752 0 -0.0464063 0.0149902 0 -0.0464063 0.0154053 0 -0.0464063 0.0158203 0 -0.0464063 0.0162354 0 -0.0464063 0.0166504 0 -0.0464063 0.0170654 0 -0.0464063 0.0174805 0 -0.0464062 0.0178955 0 -0.0464063 0.0183105 0 -0.0464063 0.0187256 0 -0.0464063 0.0191406 0 -0.0428125 0.0125 0 -0.0428125 0.0129395 0 -0.0428125 0.0133789 0 -0.0428125 0.0138184 0 -0.0428125 0.0142578 0 -0.0428125 0.0146973 0 -0.0428125 0.0151367 0 -0.0428125 0.0155762 0 -0.0428125 0.0160156 0 -0.0428125 0.0164551 0 -0.0428125 0.0168945 0 -0.0428125 0.017334 0 -0.0428125 0.0177734 0 -0.0428125 0.0182129 0 -0.0428125 0.0186523 0 -0.0428125 0.0190918 0 -0.0428125 0.0195312 0 -0.0392188 0.0125 0 -0.0392188 0.0129639 0 -0.0392188 0.0134277 0 -0.0392188 0.0138916 0 -0.0392188 0.0143555 0 -0.0392188 0.0148193 0 -0.0392188 0.0152832 0 -0.0392188 0.0157471 0 -0.0392188 0.0162109 0 -0.0392188 0.0166748 0 -0.0392188 0.0171387 0 -0.0392188 0.0176025 0 -0.0392188 0.0180664 0 -0.0392188 0.0185303 0 -0.0392188 0.0189941 0 -0.0392188 0.019458 0 -0.0392188 0.0199219 0 -0.035625 0.0125 0 -0.035625 0.0129883 0 -0.035625 0.0134766 0 -0.035625 0.0139648 0 -0.035625 0.0144531 0 -0.035625 0.0149414 0 -0.035625 0.0154297 0 -0.035625 0.015918 0 -0.035625 0.0164062 0 -0.035625 0.0168945 0 -0.035625 0.0173828 0 -0.035625 0.0178711 0 -0.035625 0.0183594 0 -0.035625 0.0188477 0 -0.035625 0.0193359 0 -0.035625 0.0198242 0 -0.035625 0.0203125 0 -0.0320313 0.0125 0 -0.0320313 0.0130127 0 -0.0320313 0.0135254 0 -0.0320313 0.0140381 0 -0.0320313 0.0145508 0 -0.0320313 0.0150635 0 -0.0320313 0.0155762 0 -0.0320313 0.0160889 0 -0.0320313 0.0166016 0 -0.0320313 0.0171143 0 -0.0320313 0.017627 0 -0.0320313 0.0181396 0 -0.0320313 0.0186523 0 -0.0320313 0.019165 0 -0.0320313 0.0196777 0 -0.0320313 0.0201904 0 -0.0320313 0.0207031 0 -0.0284375 0.0125 0 -0.0284375 0.0130371 0 -0.0284375 0.0135742 0 -0.0284375 0.0141113 0 -0.0284375 0.0146484 0 -0.0284375 0.0151855 0 -0.0284375 0.0157227 0 -0.0284375 0.0162598 0 -0.0284375 0.0167969 0 -0.0284375 0.017334 0 -0.0284375 0.0178711 0 -0.0284375 0.0184082 0 -0.0284375 0.0189453 0 -0.0284375 0.0194824 0 -0.0284375 0.0200195 0 -0.0284375 0.0205566 0 -0.0284375 0.0210938 0 -0.0248438 0.0125 0 -0.0248438 0.0130615 0 -0.0248438 0.013623 0 -0.0248438 0.0141846 0 -0.0248438 0.0147461 0 -0.0248438 0.0153076 0 -0.0248438 0.0158691 0 -0.0248438 0.0164307 0 -0.0248438 0.0169922 0 -0.0248438 0.0175537 0 -0.0248438 0.0181152 0 -0.0248438 0.0186768 0 -0.0248438 0.0192383 0 -0.0248438 0.0197998 0 -0.0248438 0.0203613 0 -0.0248438 0.0209229 0 -0.0248438 0.0214844 0 -0.02125 0.0125 0 -0.02125 0.0130859 0 -0.02125 0.0136719 0 -0.02125 0.0142578 0 -0.02125 0.0148438 0 -0.02125 0.0154297 0 -0.02125 0.0160156 0 -0.02125 0.0166016 0 -0.02125 0.0171875 0 -0.02125 0.0177734 0 -0.02125 0.0183594 0 -0.02125 0.0189453 0 -0.02125 0.0195312 0 -0.02125 0.0201172 0 -0.02125 0.0207031 0 -0.02125 0.0212891 0 -0.02125 0.021875 0 -0.0176563 0.0125 0 -0.0176563 0.0131104 0 -0.0176563 0.0137207 0 -0.0176563 0.0143311 0 -0.0176563 0.0149414 0 -0.0176563 0.0155518 0 -0.0176563 0.0161621 0 -0.0176563 0.0167725 0 -0.0176563 0.0173828 0 -0.0176563 0.0179932 0 -0.0176563 0.0186035 0 -0.0176563 0.0192139 0 -0.0176563 0.0198242 0 -0.0176563 0.0204346 0 -0.0176563 0.0210449 0 -0.0176563 0.0216553 0 -0.0176563 0.0222656 0 -0.0140625 0.0125 0 -0.0140625 0.0131348 0 -0.0140625 0.0137695 0 -0.0140625 0.0144043 0 -0.0140625 0.0150391 0 -0.0140625 0.0156738 0 -0.0140625 0.0163086 0 -0.0140625 0.0169434 0 -0.0140625 0.0175781 0 -0.0140625 0.0182129 0 -0.0140625 0.0188477 0 -0.0140625 0.0194824 0 -0.0140625 0.0201172 0 -0.0140625 0.020752 0 -0.0140625 0.0213867 0 -0.0140625 0.0220215 0 -0.0140625 0.0226562 0 -0.0104688 0.0125 0 -0.0104688 0.0131592 0 -0.0104688 0.0138184 0 -0.0104688 0.0144775 0 -0.0104688 0.0151367 0 -0.0104688 0.0157959 0 -0.0104688 0.0164551 0 -0.0104688 0.0171143 0 -0.0104688 0.0177734 0 -0.0104688 0.0184326 0 -0.0104688 0.0190918 0 -0.0104688 0.019751 0 -0.0104688 0.0204102 0 -0.0104688 0.0210693 0 -0.0104688 0.0217285 0 -0.0104688 0.0223877 0 -0.0104688 0.0230469 0 -0.006875 0.0125 0 -0.006875 0.0131836 0 -0.006875 0.0138672 0 -0.006875 0.0145508 0 -0.006875 0.0152344 0 -0.006875 0.015918 0 -0.006875 0.0166016 0 -0.006875 0.0172852 0 -0.006875 0.0179688 0 -0.006875 0.0186523 0 -0.006875 0.0193359 0 -0.006875 0.0200195 0 -0.006875 0.0207031 0 -0.006875 0.0213867 0 -0.006875 0.0220703 0 -0.006875 0.0227539 0 -0.006875 0.0234375 0 -0.00328125 0.0125 0 -0.00328125 0.013208 0 -0.00328125 0.013916 0 -0.00328125 0.014624 0 -0.00328125 0.015332 0 -0.00328125 0.01604 0 -0.00328125 0.016748 0 -0.00328125 0.0174561 0 -0.00328125 0.0181641 0 -0.00328125 0.0188721 0 -0.00328125 0.0195801 0 -0.00328125 0.0202881 0 -0.00328125 0.0209961 0 -0.00328125 0.0217041 0 -0.00328125 0.0224121 0 -0.00328125 0.0231201 0 -0.00328125 0.0238281 0 0.0003125 0.0125 0 0.0003125 0.0132324 0 0.0003125 0.0139648 0 0.0003125 0.0146973 0 0.0003125 0.0154297 0 0.0003125 0.0161621 0 0.0003125 0.0168945 0 0.0003125 0.017627 0 0.0003125 0.0183594 0 0.0003125 0.0190918 0 0.0003125 0.0198242 0 0.0003125 0.0205566 0 0.0003125 0.0212891 0 0.0003125 0.0220215 0 0.0003125 0.0227539 0 0.0003125 0.0234863 0 0.0003125 0.0242188 0 0.00390625 0.0125 0 0.00390625 0.0132568 0 0.00390625 0.0140137 0 0.00390625 0.0147705 0 0.00390625 0.0155273 0 0.00390625 0.0162842 0 0.00390625 0.017041 0 0.00390625 0.0177979 0 0.00390625 0.0185547 0 0.00390625 0.0193115 0 0.00390625 0.0200684 0 0.00390625 0.0208252 0 0.00390625 0.021582 0 0.00390625 0.0223389 0 0.00390625 0.0230957 0 0.00390625 0.0238525 0 0.00390625 0.0246094 0 0.0075 0.0125 0 0.0075 0.0132812 0 0.0075 0.0140625 0 0.0075 0.0148438 0 0.0075 0.015625 0 0.0075 0.0164063 0 0.0075 0.0171875 0 0.0075 0.0179688 0 0.0075 0.01875 0 0.0075 0.0195312 0 0.0075 0.0203125 0 0.0075 0.0210938 0 0.0075 0.021875 0 0.0075 0.0226563 0 0.0075 0.0234375 0 0.0075 0.0242188 0 0.0075 0.025 0 
</DataArray>
</Points> 
</Piece> 
</StructuredGrid> 
</VTKFile> 
