<?xml version="1.0"?> 
<VTKFile type="StructuredGrid" version="0.1"> 
<StructuredGrid WholeExtent="0 16 0 16 0 0"> 
<Piece Extent="0 16 0 16 0 0"> 
<CellData>
<DataArray type="Float32" Name="err_h1" format="ascii" NumberOfComponents="1"> 
749.042 597.88 527.119 481.966 450.285 428.016 413.146 404.661 382.202 357.727 344.391 343.492 357.099 388.632 445.442 535.897 259.403 285.898 287.099 287.182 287.739 288.446 289.767 292.644 293.314 269.979 257.05 255.883 267.494 292.336 328.993 363.841 111.304 125.808 143.6 157.843 169.177 178.317 186.098 193.747 219.422 195.473 181.808 180.567 192.267 215.165 245.069 273.877 36.588 53.7923 68.5883 81.181 91.0835 98.6965 104.984 111.415 165.696 138.914 122.285 120.196 133.426 157.988 188.167 217.421 6.97218 18.5113 29.5173 37.4647 42.1947 43.9574 43.8701 44.5567 132.791 101.941 79.2462 73.7068 88.8954 116.672 148.857 179.852 5.57605 6.60889 16.2327 22.8579 25.9403 25.1417 20.4953 14.1306 117.09 83.583 53.3083 38.9607 56.0121 87.6139 121.873 154.484 5.0203 16.4747 28.0137 37.8601 45.7297 51.6254 55.997 59.9919 112.209 79.027 44.9618 15.5959 33.4108 68.5377 104.05 137.721 19.9757 33.9057 47.6812 60.6392 72.524 83.2798 93.0795 102.424 112.247 81.3094 48.6371 15.5533 22.9452 58.0044 93.3244 127.39 19.766 22.2032 24.8838 27.8254 31.0613 34.651 38.6941 43.3454 48.879 55.644 63.7485 73.3513 84.3592 96.4701 109.392 122.979 13.4839 15.2723 17.2753 19.5074 21.9921 24.771 27.9153 31.5449 35.8603 41.2856 48.0384 56.5082 66.7596 78.382 90.8306 103.918 9.34277 10.6646 12.1703 13.8724 15.7887 17.9472 20.3952 23.2137 26.5019 30.6871 35.9888 43.0469 52.3378 63.5218 75.613 88.1125 6.53062 7.52627 8.67608 9.99185 11.4886 13.1869 15.1182 17.3343 19.8424 23.0343 27.0029 32.4171 40.3357 51.0415 63.076 75.0482 4.54592 5.32171 6.22421 7.26374 8.45447 9.8144 11.3672 13.1471 15.0989 17.5697 20.5406 24.3985 30.3661 40.1433 52.5759 64.376 3.07405 3.71286 4.45271 5.30073 6.271 7.382 8.6555 10.118 11.6832 13.6442 15.9316 18.7655 22.6196 30.22 43.2867 55.9309 1.9141 2.48442 3.13091 3.8547 4.66988 5.59744 6.66147 7.88736 9.18507 10.7802 12.5967 14.7628 17.5806 21.5802 33.7881 49.8558 0.950273 1.50827 2.11792 2.77048 3.48048 4.27255 5.17578 6.21914 7.32862 8.65219 10.1353 11.8492 13.9688 17.0111 22.1154 46.9874 
</DataArray> 
</CellData> 
<Points> 
<DataArray type="Float32" NumberOfComponents="3"> 
0.0075 0.0125 0 0.0075 0.0132812 0 0.0075 0.0140625 0 0.0075 0.0148438 0 0.0075 0.015625 0 0.0075 0.0164063 0 0.0075 0.0171875 0 0.0075 0.0179688 0 0.0075 0.01875 0 0.0075 0.0195312 0 0.0075 0.0203125 0 0.0075 0.0210938 0 0.0075 0.021875 0 0.0075 0.0226563 0 0.0075 0.0234375 0 0.0075 0.0242188 0 0.0075 0.025 0 0.00937 0.0125 0 0.00929219 0.0132812 0 0.00921438 0.0140625 0 0.00913656 0.0148438 0 0.00905875 0.015625 0 0.00898094 0.0164063 0 0.00890313 0.0171875 0 0.00882531 0.0179688 0 0.0087475 0.01875 0 0.00866969 0.0195312 0 0.00859188 0.0203125 0 0.00851406 0.0210938 0 0.00843625 0.021875 0 0.00835844 0.0226563 0 0.00828062 0.0234375 0 0.00820281 0.0242188 0 0.008125 0.025 0 0.01124 0.0125 0 0.0110844 0.0132812 0 0.0109288 0.0140625 0 0.0107731 0.0148438 0 0.0106175 0.015625 0 0.0104619 0.0164063 0 0.0103062 0.0171875 0 0.0101506 0.0179688 0 0.009995 0.01875 0 0.00983938 0.0195312 0 0.00968375 0.0203125 0 0.00952813 0.0210938 0 0.0093725 0.021875 0 0.00921688 0.0226563 0 0.00906125 0.0234375 0 0.00890563 0.0242188 0 0.00875 0.025 0 0.01311 0.0125 0 0.0128766 0.0132812 0 0.0126431 0.0140625 0 0.0124097 0.0148438 0 0.0121763 0.015625 0 0.0119428 0.0164063 0 0.0117094 0.0171875 0 0.0114759 0.0179688 0 0.0112425 0.01875 0 0.0110091 0.0195312 0 0.0107756 0.0203125 0 0.0105422 0.0210938 0 0.0103088 0.021875 0 0.0100753 0.0226563 0 0.00984188 0.0234375 0 0.00960844 0.0242188 0 0.009375 0.025 0 0.01498 0.0125 0 0.0146688 0.0132812 0 0.0143575 0.0140625 0 0.0140462 0.0148438 0 0.013735 0.015625 0 0.0134238 0.0164063 0 0.0131125 0.0171875 0 0.0128013 0.0179688 0 0.01249 0.01875 0 0.0121788 0.0195312 0 0.0118675 0.0203125 0 0.0115563 0.0210938 0 0.011245 0.021875 0 0.0109338 0.0226563 0 0.0106225 0.0234375 0 0.0103112 0.0242188 0 0.01 0.025 0 0.01685 0.0125 0 0.0164609 0.0132812 0 0.0160719 0.0140625 0 0.0156828 0.0148438 0 0.0152937 0.015625 0 0.0149047 0.0164063 0 0.0145156 0.0171875 0 0.0141266 0.0179688 0 0.0137375 0.01875 0 0.0133484 0.0195312 0 0.0129594 0.0203125 0 0.0125703 0.0210938 0 0.0121813 0.021875 0 0.0117922 0.0226563 0 0.0114031 0.0234375 0 0.0110141 0.0242188 0 0.010625 0.025 0 0.01872 0.0125 0 0.0182531 0.0132812 0 0.0177862 0.0140625 0 0.0173194 0.0148438 0 0.0168525 0.015625 0 0.0163856 0.0164063 0 0.0159188 0.0171875 0 0.0154519 0.0179688 0 0.014985 0.01875 0 0.0145181 0.0195312 0 0.0140512 0.0203125 0 0.0135844 0.0210938 0 0.0131175 0.021875 0 0.0126506 0.0226563 0 0.0121838 0.0234375 0 0.0117169 0.0242188 0 0.01125 0.025 0 0.02059 0.0125 0 0.0200453 0.0132812 0 0.0195006 0.0140625 0 0.0189559 0.0148438 0 0.0184113 0.015625 0 0.0178666 0.0164063 0 0.0173219 0.0171875 0 0.0167772 0.0179688 0 0.0162325 0.01875 0 0.0156878 0.0195312 0 0.0151431 0.0203125 0 0.0145984 0.0210938 0 0.0140538 0.021875 0 0.0135091 0.0226563 0 0.0129644 0.0234375 0 0.0124197 0.0242188 0 0.011875 0.025 0 0.02246 0.0125 0 0.0218375 0.0132812 0 0.021215 0.0140625 0 0.0205925 0.0148438 0 0.01997 0.015625 0 0.0193475 0.0164063 0 0.018725 0.0171875 0 0.0181025 0.0179688 0 0.01748 0.01875 0 0.0168575 0.0195312 0 0.016235 0.0203125 0 0.0156125 0.0210938 0 0.01499 0.021875 0 0.0143675 0.0226563 0 0.013745 0.0234375 0 0.0131225 0.0242188 0 0.0125 0.025 0 0.02433 0.0125 0 0.0236297 0.0132812 0 0.0229294 0.0140625 0 0.0222291 0.0148438 0 0.0215287 0.015625 0 0.0208284 0.0164063 0 0.0201281 0.0171875 0 0.0194278 0.0179688 0 0.0187275 0.01875 0 0.0180272 0.0195312 0 0.0173269 0.0203125 0 0.0166266 0.0210938 0 0.0159263 0.021875 0 0.0152259 0.0226563 0 0.0145256 0.0234375 0 0.0138253 0.0242188 0 0.013125 0.025 0 0.0262 0.0125 0 0.0254219 0.0132812 0 0.0246438 0.0140625 0 0.0238656 0.0148438 0 0.0230875 0.015625 0 0.0223094 0.0164063 0 0.0215313 0.0171875 0 0.0207531 0.0179688 0 0.019975 0.01875 0 0.0191969 0.0195312 0 0.0184188 0.0203125 0 0.0176406 0.0210938 0 0.0168625 0.021875 0 0.0160844 0.0226563 0 0.0153063 0.0234375 0 0.0145281 0.0242188 0 0.01375 0.025 0 0.02807 0.0125 0 0.0272141 0.0132812 0 0.0263581 0.0140625 0 0.0255022 0.0148438 0 0.0246463 0.015625 0 0.0237903 0.0164063 0 0.0229344 0.0171875 0 0.0220784 0.0179688 0 0.0212225 0.01875 0 0.0203666 0.0195312 0 0.0195106 0.0203125 0 0.0186547 0.0210938 0 0.0177988 0.021875 0 0.0169428 0.0226563 0 0.0160869 0.0234375 0 0.0152309 0.0242188 0 0.014375 0.025 0 0.02994 0.0125 0 0.0290063 0.0132812 0 0.0280725 0.0140625 0 0.0271387 0.0148438 0 0.026205 0.015625 0 0.0252713 0.0164063 0 0.0243375 0.0171875 0 0.0234038 0.0179688 0 0.02247 0.01875 0 0.0215362 0.0195312 0 0.0206025 0.0203125 0 0.0196687 0.0210938 0 0.018735 0.021875 0 0.0178013 0.0226563 0 0.0168675 0.0234375 0 0.0159337 0.0242188 0 0.015 0.025 0 0.03181 0.0125 0 0.0307984 0.0132812 0 0.0297869 0.0140625 0 0.0287753 0.0148438 0 0.0277637 0.015625 0 0.0267522 0.0164063 0 0.0257406 0.0171875 0 0.0247291 0.0179688 0 0.0237175 0.01875 0 0.0227059 0.0195312 0 0.0216944 0.0203125 0 0.0206828 0.0210938 0 0.0196713 0.021875 0 0.0186597 0.0226563 0 0.0176481 0.0234375 0 0.0166366 0.0242188 0 0.015625 0.025 0 0.03368 0.0125 0 0.0325906 0.0132812 0 0.0315013 0.0140625 0 0.0304119 0.0148438 0 0.0293225 0.015625 0 0.0282331 0.0164063 0 0.0271438 0.0171875 0 0.0260544 0.0179688 0 0.024965 0.01875 0 0.0238756 0.0195312 0 0.0227863 0.0203125 0 0.0216969 0.0210938 0 0.0206075 0.021875 0 0.0195181 0.0226563 0 0.0184288 0.0234375 0 0.0173394 0.0242188 0 0.01625 0.025 0 0.03555 0.0125 0 0.0343828 0.0132812 0 0.0332156 0.0140625 0 0.0320484 0.0148438 0 0.0308812 0.015625 0 0.0297141 0.0164063 0 0.0285469 0.0171875 0 0.0273797 0.0179688 0 0.0262125 0.01875 0 0.0250453 0.0195312 0 0.0238781 0.0203125 0 0.0227109 0.0210938 0 0.0215438 0.021875 0 0.0203766 0.0226563 0 0.0192094 0.0234375 0 0.0180422 0.0242188 0 0.016875 0.025 0 0.03742 0.0125 0 0.036175 0.0132812 0 0.03493 0.0140625 0 0.033685 0.0148438 0 0.03244 0.015625 0 0.031195 0.0164063 0 0.02995 0.0171875 0 0.028705 0.0179688 0 0.02746 0.01875 0 0.026215 0.0195312 0 0.02497 0.0203125 0 0.023725 0.0210938 0 0.02248 0.021875 0 0.021235 0.0226563 0 0.01999 0.0234375 0 0.018745 0.0242188 0 0.0175 0.025 0 
</DataArray>
</Points> 
</Piece> 
</StructuredGrid> 
</VTKFile> 
