<?xml version="1.0"?> 
<VTKFile type="StructuredGrid" version="0.1"> 
<StructuredGrid WholeExtent="0 15 0 15 0 0"> 
<Piece Extent="0 15 0 15 0 0"> 
<PointData>
<DataArray type="Float32" Name="E" format="ascii" NumberOfComponents="3"> 
1.33031e+06 -526854 0 1.41374e+06 -559895 0 1.48351e+06 -587528 0 1.54304e+06 -611105 0 1.59482e+06 -631611 0 1.64067e+06 -649770 0 1.68194e+06 -666117 0 1.71964e+06 -681046 0 1.75451e+06 -694854 0 1.7871e+06 -707760 0 1.81783e+06 -719932 0 1.84701e+06 -731491 0 1.87488e+06 -742527 0 1.90158e+06 -753100 0 1.9272e+06 -763246 0 1.95175e+06 -772971 0 1.86455e+06 -383179 0 1.87772e+06 -403648 0 1.89319e+06 -423381 0 1.9103e+06 -442272 0 1.92856e+06 -460287 0 1.94763e+06 -477434 0 1.96727e+06 -493747 0 1.98731e+06 -509276 0 2.00765e+06 -524079 0 2.0282e+06 -538215 0 2.04892e+06 -551747 0 2.06978e+06 -564731 0 2.09078e+06 -577224 0 2.11193e+06 -589273 0 2.13325e+06 -600919 0 2.15477e+06 -612189 0 2.07454e+06 -309106 0 2.08881e+06 -323020 0 2.10332e+06 -336234 0 2.1181e+06 -348818 0 2.13321e+06 -360823 0 2.14864e+06 -372284 0 2.1644e+06 -383226 0 2.18049e+06 -393666 0 2.19693e+06 -403616 0 2.21369e+06 -413086 0 2.23079e+06 -422080 0 2.24822e+06 -430601 0 2.26599e+06 -438651 0 2.28409e+06 -446228 0 2.30252e+06 -453334 0 2.3213e+06 -459972 0 2.22725e+06 -239394 0 2.23864e+06 -247075 0 2.25036e+06 -254496 0 2.26241e+06 -261615 0 2.27477e+06 -268399 0 2.28742e+06 -274824 0 2.30036e+06 -280870 0 2.31358e+06 -286520 0 2.32707e+06 -291759 0 2.34083e+06 -296574 0 2.35484e+06 -300952 0 2.36911e+06 -304881 0 2.38364e+06 -308349 0 2.3984e+06 -311342 0 2.41341e+06 -313847 0 2.42866e+06 -315844 0 2.32751e+06 -166374 0 2.33662e+06 -170816 0 2.34593e+06 -174880 0 2.35542e+06 -178565 0 2.36507e+06 -181867 0 2.37489e+06 -184781 0 2.38488e+06 -187301 0 2.39502e+06 -189420 0 2.40531e+06 -191131 0 2.41575e+06 -192423 0 2.42632e+06 -193289 0 2.43701e+06 -193717 0 2.44782e+06 -193697 0 2.45873e+06 -193217 0 2.46974e+06 -192267 0 2.48083e+06 -190838 0 2.38784e+06 -105379 0 2.39434e+06 -107055 0 2.40093e+06 -108405 0 2.4076e+06 -109440 0 2.41437e+06 -110158 0 2.42122e+06 -110555 0 2.42814e+06 -110625 0 2.43511e+06 -110361 0 2.44213e+06 -109756 0 2.44918e+06 -108801 0 2.45626e+06 -107492 0 2.46334e+06 -105821 0 2.47043e+06 -103783 0 2.4775e+06 -101372 0 2.48455e+06 -98582.6 0 2.49157e+06 -95408.9 0 2.41708e+06 -58450.6 0 2.4212e+06 -58408 0 2.42537e+06 -58206.7 0 2.42956e+06 -57790.6 0 2.43373e+06 -57130.7 0 2.43789e+06 -56213.3 0 2.44202e+06 -55031.9 0 2.44612e+06 -53583.8 0 2.45019e+06 -51867.4 0 2.4542e+06 -49881.3 0 2.45817e+06 -47623.9 0 2.46207e+06 -45093.4 0 2.46589e+06 -42287.8 0 2.46962e+06 -39204.9 0 2.47326e+06 -35842.6 0 2.47678e+06 -32199.7 0 2.42654e+06 -27452 0 2.42868e+06 -27068.5 0 2.43071e+06 -26301.3 0 2.43268e+06 -25275.2 0 2.43463e+06 -24051.5 0 2.43653e+06 -22655.9 0 2.43838e+06 -21095.6 0 2.44015e+06 -19369.4 0 2.44185e+06 -17472.7 0 2.44344e+06 -15400.3 0 2.44493e+06 -13147.6 0 2.44631e+06 -10711 0 2.44756e+06 -8087.76 0 2.44868e+06 -5276.07 0 2.44965e+06 -2274.46 0 2.45048e+06 918.364 0 2.42539e+06 -12748.3 0 2.42593e+06 -11498.7 0 2.42652e+06 -10622.3 0 2.42705e+06 -9847.62 0 2.42745e+06 -9033.34 0 2.42773e+06 -8114.37 0 2.42787e+06 -7066.1 0 2.42787e+06 -5883.99 0 2.42773e+06 -4572.29 0 2.42746e+06 -3138.09 0 2.42705e+06 -1588.46 0 2.42648e+06 70.6524 0 2.42576e+06 1834.56 0 2.42487e+06 3699.58 0 2.42381e+06 5662.53 0 2.42255e+06 7720.17 0 2.42302e+06 -9010.03 0 2.42278e+06 -10401 0 2.42221e+06 -10781.4 0 2.42149e+06 -10687.8 0 2.42066e+06 -10408.9 0 2.41976e+06 -10084.8 0 2.41876e+06 -9773.7 0 2.41765e+06 -9490.78 0 2.41639e+06 -9230.82 0 2.41498e+06 -8980.41 0 2.4134e+06 -8724.12 0 2.41163e+06 -8447.21 0 2.40967e+06 -8136.34 0 2.4075e+06 -7779.22 0 2.40513e+06 -7363.64 0 2.40255e+06 -6876.39 0 2.42614e+06 -19134.9 0 2.42534e+06 -17451.5 0 2.42475e+06 -17768.8 0 2.4241e+06 -19088.5 0 2.42326e+06 -20852.5 0 2.42219e+06 -22775.3 0 2.42086e+06 -24725.9 0 2.41927e+06 -26657.8 0 2.41745e+06 -28567.1 0 2.41538e+06 -30469.1 0 2.41307e+06 -32385.6 0 2.4105e+06 -34339 0 2.40767e+06 -36350.1 0 2.40456e+06 -38438.8 0 2.40116e+06 -40625.6 0 2.39745e+06 -42934.3 0 2.44599e+06 -20814.5 0 2.44659e+06 -29705.2 0 2.44654e+06 -35229.2 0 2.44616e+06 -39154.1 0 2.44559e+06 -42502.1 0 2.44485e+06 -45819.6 0 2.44393e+06 -49372.6 0 2.44278e+06 -53266.5 0 2.44137e+06 -57518 0 2.43964e+06 -62098.8 0 2.43757e+06 -66958.8 0 2.43512e+06 -72038.4 0 2.43228e+06 -77273.1 0 2.42901e+06 -82593.3 0 2.42532e+06 -87920.6 0 2.42117e+06 -93163.2 0 2.49562e+06 -36519.3 0 2.49872e+06 -32210.8 0 2.5019e+06 -34850.2 0 2.50476e+06 -41464.9 0 2.50713e+06 -50264.5 0 2.50892e+06 -60232.5 0 2.51009e+06 -70819.4 0 2.51063e+06 -81751.7 0 2.51051e+06 -92914.1 0 2.50972e+06 -104277 0 2.50826e+06 -115855 0 2.50611e+06 -127688 0 2.50325e+06 -139832 0 2.4997e+06 -152361 0 2.49545e+06 -165374 0 2.4905e+06 -179009 0 2.61585e+06 30431.3 0 2.62498e+06 -3995.72 0 2.63384e+06 -29441.2 0 2.64197e+06 -50326.7 0 2.64905e+06 -69292.9 0 2.6548e+06 -87788.7 0 2.65906e+06 -106530 0 2.66175e+06 -125791 0 2.66285e+06 -145596 0 2.66237e+06 -165829 0 2.66038e+06 -186309 0 2.65693e+06 -206822 0 2.65207e+06 -227139 0 2.64584e+06 -247006 0 2.63822e+06 -266129 0 2.62909e+06 -284140 0 2.94784e+06 62875.7 0 2.9816e+06 27847.1 0 2.99837e+06 -18117.8 0 3.00279e+06 -68539.6 0 2.99838e+06 -119343 0 2.98778e+06 -168150 0 2.97303e+06 -213682 0 2.95566e+06 -255368 0 2.93692e+06 -293094 0 2.9178e+06 -327030 0 2.89913e+06 -357530 0 2.88173e+06 -385081 0 2.8664e+06 -410280 0 2.85406e+06 -433850 0 2.84585e+06 -456689 0 2.84328e+06 -479933 0 4.31748e+06 -1.12762e+06 0 3.95537e+06 -1.03305e+06 0 3.68704e+06 -962968 0 3.48523e+06 -910260 0 3.3307e+06 -869899 0 3.20976e+06 -838312 0 3.11263e+06 -812944 0 3.03218e+06 -791932 0 2.96306e+06 -773882 0 2.90108e+06 -757693 0 2.84266e+06 -742435 0 2.78443e+06 -727227 0 2.72285e+06 -711144 0 2.65376e+06 -693100 0 2.5719e+06 -671720 0 2.47025e+06 -645170 0 </DataArray> 
</PointData> 
<Points> 
<DataArray type="Float32" NumberOfComponents="3"> 
0.3075 0.0099 0 0.307701 0.0104067 0 0.307901 0.0109133 0 0.308102 0.01142 0 0.308303 0.0119267 0 0.308503 0.0124333 0 0.308704 0.01294 0 0.308905 0.0134467 0 0.309105 0.0139533 0 0.309306 0.01446 0 0.309507 0.0149667 0 0.309707 0.0154733 0 0.309908 0.01598 0 0.310109 0.0164867 0 0.310309 0.0169933 0 0.31051 0.0175 0 0.313067 0.0101962 0 0.313263 0.0107031 0 0.313459 0.01121 0 0.313655 0.0117169 0 0.313851 0.0122238 0 0.314048 0.0127308 0 0.314244 0.0132377 0 0.31444 0.0137446 0 0.314636 0.0142515 0 0.314832 0.0147585 0 0.315028 0.0152654 0 0.315225 0.0157723 0 0.315421 0.0162792 0 0.315617 0.0167862 0 0.315813 0.0172931 0 0.316009 0.0178 0 0.318633 0.0104923 0 0.318825 0.0109995 0 0.319017 0.0115067 0 0.319208 0.0120138 0 0.3194 0.012521 0 0.319592 0.0130282 0 0.319783 0.0135354 0 0.319975 0.0140426 0 0.320167 0.0145497 0 0.320358 0.0150569 0 0.32055 0.0155641 0 0.320742 0.0160713 0 0.320934 0.0165785 0 0.321125 0.0170856 0 0.321317 0.0175928 0 0.321509 0.0181 0 0.3242 0.0107885 0 0.324387 0.0112959 0 0.324574 0.0118033 0 0.324762 0.0123108 0 0.324949 0.0128182 0 0.325136 0.0133256 0 0.325323 0.0138331 0 0.32551 0.0143405 0 0.325698 0.014848 0 0.325885 0.0153554 0 0.326072 0.0158628 0 0.326259 0.0163703 0 0.326446 0.0168777 0 0.326634 0.0173851 0 0.326821 0.0178926 0 0.327008 0.0184 0 0.329767 0.0110846 0 0.329949 0.0115923 0 0.330132 0.0121 0 0.330315 0.0126077 0 0.330497 0.0131154 0 0.33068 0.0136231 0 0.330863 0.0141308 0 0.331046 0.0146385 0 0.331228 0.0151462 0 0.331411 0.0156538 0 0.331594 0.0161615 0 0.331776 0.0166692 0 0.331959 0.0171769 0 0.332142 0.0176846 0 0.332325 0.0181923 0 0.332507 0.0187 0 0.335333 0.0113808 0 0.335512 0.0118887 0 0.33569 0.0123967 0 0.335868 0.0129046 0 0.336046 0.0134126 0 0.336224 0.0139205 0 0.336403 0.0144285 0 0.336581 0.0149364 0 0.336759 0.0154444 0 0.336937 0.0159523 0 0.337116 0.0164603 0 0.337294 0.0169682 0 0.337472 0.0174762 0 0.33765 0.0179841 0 0.337828 0.0184921 0 0.338007 0.019 0 0.3409 0.0116769 0 0.341074 0.0121851 0 0.341247 0.0126933 0 0.341421 0.0132015 0 0.341595 0.0137098 0 0.341769 0.014218 0 0.341942 0.0147262 0 0.342116 0.0152344 0 0.34229 0.0157426 0 0.342464 0.0162508 0 0.342637 0.016759 0 0.342811 0.0172672 0 0.342985 0.0177754 0 0.343158 0.0182836 0 0.343332 0.0187918 0 0.343506 0.0193 0 0.346467 0.0119731 0 0.346636 0.0124816 0 0.346805 0.01299 0 0.346974 0.0134985 0 0.347144 0.0140069 0 0.347313 0.0145154 0 0.347482 0.0150239 0 0.347651 0.0155323 0 0.347821 0.0160408 0 0.34799 0.0165492 0 0.348159 0.0170577 0 0.348328 0.0175662 0 0.348498 0.0180746 0 0.348667 0.0185831 0 0.348836 0.0190915 0 0.349005 0.0196 0 0.352033 0.0122692 0 0.352198 0.012778 0 0.352363 0.0132867 0 0.352528 0.0137954 0 0.352692 0.0143041 0 0.352857 0.0148128 0 0.353022 0.0153215 0 0.353187 0.0158303 0 0.353351 0.016339 0 0.353516 0.0168477 0 0.353681 0.0173564 0 0.353846 0.0178651 0 0.35401 0.0183738 0 0.354175 0.0188826 0 0.35434 0.0193913 0 0.354505 0.0199 0 0.3576 0.0125654 0 0.35776 0.0130744 0 0.357921 0.0135833 0 0.358081 0.0140923 0 0.358241 0.0146013 0 0.358401 0.0151103 0 0.358562 0.0156192 0 0.358722 0.0161282 0 0.358882 0.0166372 0 0.359042 0.0171462 0 0.359203 0.0176551 0 0.359363 0.0181641 0 0.359523 0.0186731 0 0.359683 0.0191821 0 0.359844 0.019691 0 0.360004 0.0202 0 0.363167 0.0128616 0 0.363322 0.0133708 0 0.363478 0.01388 0 0.363634 0.0143892 0 0.36379 0.0148985 0 0.363946 0.0154077 0 0.364101 0.0159169 0 0.364257 0.0164262 0 0.364413 0.0169354 0 0.364569 0.0174446 0 0.364724 0.0179539 0 0.36488 0.0184631 0 0.365036 0.0189723 0 0.365192 0.0194815 0 0.365348 0.0199908 0 0.365503 0.0205 0 0.368733 0.0131577 0 0.368885 0.0136672 0 0.369036 0.0141767 0 0.369187 0.0146862 0 0.369338 0.0151957 0 0.36949 0.0157051 0 0.369641 0.0162146 0 0.369792 0.0167241 0 0.369944 0.0172336 0 0.370095 0.0177431 0 0.370246 0.0182526 0 0.370397 0.0187621 0 0.370549 0.0192715 0 0.3707 0.019781 0 0.370851 0.0202905 0 0.371003 0.0208 0 0.3743 0.0134539 0 0.374447 0.0139636 0 0.374594 0.0144734 0 0.37474 0.0149831 0 0.374887 0.0154928 0 0.375034 0.0160026 0 0.375181 0.0165123 0 0.375328 0.0170221 0 0.375474 0.0175318 0 0.375621 0.0180415 0 0.375768 0.0185513 0 0.375915 0.019061 0 0.376062 0.0195708 0 0.376208 0.0200805 0 0.376355 0.0205903 0 0.376502 0.0211 0 0.379867 0.01375 0 0.380009 0.01426 0 0.380151 0.01477 0 0.380294 0.01528 0 0.380436 0.01579 0 0.380578 0.0163 0 0.380721 0.01681 0 0.380863 0.01732 0 0.381005 0.01783 0 0.381147 0.01834 0 0.38129 0.01885 0 0.381432 0.01936 0 0.381574 0.01987 0 0.381717 0.02038 0 0.381859 0.02089 0 0.382001 0.0214 0 0.385433 0.0140462 0 0.385571 0.0145564 0 0.385709 0.0150667 0 0.385847 0.0155769 0 0.385985 0.0160872 0 0.386122 0.0165975 0 0.38626 0.0171077 0 0.386398 0.017618 0 0.386536 0.0181282 0 0.386674 0.0186385 0 0.386812 0.0191487 0 0.386949 0.019659 0 0.387087 0.0201692 0 0.387225 0.0206795 0 0.387363 0.0211897 0 0.387501 0.0217 0 0.391 0.0143423 0 0.391133 0.0148528 0 0.391267 0.0153634 0 0.3914 0.0158739 0 0.391533 0.0163844 0 0.391667 0.0168949 0 0.3918 0.0174054 0 0.391933 0.0179159 0 0.392067 0.0184264 0 0.3922 0.0189369 0 0.392333 0.0194474 0 0.392467 0.019958 0 0.3926 0.0204685 0 0.392733 0.020979 0 0.392867 0.0214895 0 0.393 0.022 0 
</DataArray>
</Points> 
</Piece> 
</StructuredGrid> 
</VTKFile> 
