<?xml version="1.0"?> 
<VTKFile type="StructuredGrid" version="0.1"> 
<StructuredGrid WholeExtent="0 15 0 15 0 0"> 
<Piece Extent="0 15 0 15 0 0"> 
<PointData>
<DataArray type="Float32" Name="E" format="ascii" NumberOfComponents="3"> 
-556501 0 0 -556064 0 0 -555568 0 0 -555016 0 0 -554413 0 0 -553766 0 0 -553081 0 0 -552367 0 0 -551632 0 0 -550885 0 0 -550135 0 0 -549390 0 0 -548658 0 0 -547944 0 0 -547254 0 0 -546591 0 0 -556548 509.605 0 -556110 584.579 0 -555611 656.939 0 -555056 724.323 0 -554449 784.831 0 -553796 836.825 0 -553104 879.015 0 -552383 910.518 0 -551641 930.874 0 -550888 940.063 0 -550131 938.506 0 -549380 927.041 0 -548643 906.907 0 -547925 879.69 0 -547233 847.226 0 -546568 811.89 0 -556692 1019.56 0 -556250 1173.66 0 -555744 1321.67 0 -555178 1459.49 0 -554556 1583.09 0 -553885 1689.1 0 -553174 1774.88 0 -552432 1838.6 0 -551669 1879.34 0 -550894 1897.06 0 -550118 1892.62 0 -549349 1867.75 0 -548597 1824.98 0 -547867 1767.59 0 -547167 1699.47 0 -546498 1624.55 0 -556939 1532.02 0 -556492 1771.81 0 -555973 2002.53 0 -555387 2217.06 0 -554739 2409.08 0 -554038 2573.27 0 -553293 2705.48 0 -552514 2802.91 0 -551714 2864.09 0 -550903 2888.99 0 -550092 2878.94 0 -549293 2836.64 0 -548514 2766.09 0 -547764 2672.44 0 -547049 2561.8 0 -546375 2441.15 0 -557302 2046.89 0 -556846 2384.38 0 -556308 2708.9 0 -555692 3010.12 0 -555006 3278.95 0 -554259 3507.83 0 -553463 3690.92 0 -552631 3824.32 0 -551776 3906.02 0 -550910 3935.98 0 -550049 3916.07 0 -549203 3850.08 0 -548385 3743.62 0 -547605 3604.03 0 -546870 3440.13 0 -546184 3261.92 0 -557796 2564.04 0 -557331 3017.7 0 -556766 3451.99 0 -556108 3854.27 0 -555368 4211.87 0 -554558 4514.56 0 -553691 4754.68 0 -552784 4927.15 0 -551852 5029.45 0 -550912 5061.53 0 -549980 5025.84 0 -549070 4927.32 0 -548198 4773.39 0 -547375 4573.96 0 -546611 4341.29 0 -545914 4087.29 0 -558455 3091.12 0 -557971 3678.68 0 -557368 4245.98 0 -556654 4768.99 0 -555841 5231.41 0 -554945 5619.96 0 -553983 5925.01 0 -552976 6140.47 0 -551942 6263.41 0 -550902 6293.83 0 -549874 6234.67 0 -548878 6091.92 0 -547932 5874.97 0 -547051 5596.68 0 -546248 5272.73 0 -545528 4927.37 0 -559298 3605.95 0 -558801 4380 0 -558148 5109.2 0 -557356 5779.59 0 -556444 6367.66 0 -555433 6856.95 0 -554347 7236.4 0 -553209 7499.36 0 -552043 7642.9 0 -550872 7667.14 0 -549719 7575.18 0 -548608 7373.71 0 -547563 7073.56 0 -546603 6690.68 0 -545748 6247.77 0 -545015 5755.45 0 -560406 4170.3 0 -559869 5129.1 0 -559146 6068.45 0 -558248 6920.61 0 -557202 7659.96 0 -556040 8267.21 0 -554791 8730.97 0 -553485 9045.86 0 -552150 9209.81 0 -550812 9223.11 0 -549498 9088.38 0 -548237 8811.27 0 -547058 8403.11 0 -545992 7882.57 0 -545063 7274.05 0 -544281 6648.89 0 -561800 4635.18 0 -561245 5964.62 0 -560421 7161.2 0 -559372 8241.34 0 -558143 9161.71 0 -556780 9903.3 0 -555324 10459.4 0 -553808 10828.8 0 -552263 11012.7 0 -550716 11011.6 0 -549196 10825.5 0 -547736 10456.4 0 -546377 9911.47 0 -545160 9208.99 0 -544129 8390.7 0 -543334 7426.16 0 -563676 5340.78 0 -563030 6886.48 0 -562048 8455.19 0 -560777 9817.3 0 -559292 10946.2 0 -557665 11831.7 0 -555947 12479.7 0 -554176 12901.6 0 -552379 13104.5 0 -550578 13089.3 0 -548801 12850.9 0 -547082 12379.6 0 -545471 11671.1 0 -544037 10735.4 0 -542849 9596.68 0 -541943 8502.46 0 -566091 5548.08 0 -565384 8048.36 0 -564136 10059.2 0 -562510 11769 0 -560659 13117.5 0 -558684 14131.2 0 -556650 14852.6 0 -554584 15313.9 0 -552500 15534.3 0 -550408 15515 0 -548320 15239.7 0 -546263 14679.7 0 -544298 13796.1 0 -542520 12565.2 0 -541071 11044.7 0 -540116 8992.07 0 -569519 6772.24 0 -568581 9452.13 0 -566806 12223.2 0 -564583 14302.2 0 -562198 15813 0 -559789 16886.1 0 -557396 17624.8 0 -555018 18097.4 0 -552638 18333.4 0 -550236 18333.9 0 -547797 18072.6 0 -545320 17486 0 -542844 16479.3 0 -540497 14933.4 0 -538542 12731.5 0 -537331 10717.4 0 -574819 5975.26 0 -573140 11918.5 0 -570129 15449.8 0 -566856 17736.1 0 -563747 19184.7 0 -560856 20145 0 -558114 20803.5 0 -555453 21240 0 -552810 21490 0 -550128 21553.5 0 -547346 21396.1 0 -544402 20942.4 0 -541236 20017.6 0 -537903 18301.1 0 -534800 15435.3 0 -532841 10145.2 0 -583659 7994.48 0 -579915 16928.1 0 -573568 20858.3 0 -568727 22399.6 0 -564951 23254.3 0 -561685 23853 0 -558710 24308.5 0 -555860 24665.5 0 -553045 24929.5 0 -550172 25098.6 0 -547154 25162.9 0 -543836 25074.6 0 -540023 24722.9 0 -535208 23701.1 0 -529039 20423.1 0 -525754 12894.1 0 -634796 42771.2 0 -584364 31650.8 0 -574125 28779.4 0 -569241 27858.4 0 -565333 27658.4 0 -562131 27752.8 0 -559105 27966.8 0 -556229 28230.5 0 -553356 28512 0 -550448 28807 0 -547361 29137.2 0 -544077 29558.1 0 -540086 30219.4 0 -535177 31497.7 0 -525144 34505 0 -475630 45227.7 0 </DataArray> 
</PointData> 
<Points> 
<DataArray type="Float32" NumberOfComponents="3"> 
0 0.052 0 0 0.0526667 0 0 0.0533333 0 0 0.054 0 0 0.0546667 0 0 0.0553333 0 0 0.056 0 0 0.0566667 0 0 0.0573333 0 0 0.058 0 0 0.0586667 0 0 0.0593333 0 0 0.06 0 0 0.0606667 0 0 0.0613333 0 0 0.062 0 0.000833333 0.052 0 0.000833333 0.0526667 0 0.000833333 0.0533333 0 0.000833333 0.054 0 0.000833333 0.0546667 0 0.000833333 0.0553333 0 0.000833333 0.056 0 0.000833333 0.0566667 0 0.000833333 0.0573333 0 0.000833333 0.058 0 0.000833333 0.0586667 0 0.000833333 0.0593333 0 0.000833333 0.06 0 0.000833333 0.0606667 0 0.000833333 0.0613333 0 0.000833333 0.062 0 0.00166667 0.052 0 0.00166667 0.0526667 0 0.00166667 0.0533333 0 0.00166667 0.054 0 0.00166667 0.0546667 0 0.00166667 0.0553333 0 0.00166667 0.056 0 0.00166667 0.0566667 0 0.00166667 0.0573333 0 0.00166667 0.058 0 0.00166667 0.0586667 0 0.00166667 0.0593333 0 0.00166667 0.06 0 0.00166667 0.0606667 0 0.00166667 0.0613333 0 0.00166667 0.062 0 0.0025 0.052 0 0.0025 0.0526667 0 0.0025 0.0533333 0 0.0025 0.054 0 0.0025 0.0546667 0 0.0025 0.0553333 0 0.0025 0.056 0 0.0025 0.0566667 0 0.0025 0.0573333 0 0.0025 0.058 0 0.0025 0.0586667 0 0.0025 0.0593333 0 0.0025 0.06 0 0.0025 0.0606667 0 0.0025 0.0613333 0 0.0025 0.062 0 0.00333333 0.052 0 0.00333333 0.0526667 0 0.00333333 0.0533333 0 0.00333333 0.054 0 0.00333333 0.0546667 0 0.00333333 0.0553333 0 0.00333333 0.056 0 0.00333333 0.0566667 0 0.00333333 0.0573333 0 0.00333333 0.058 0 0.00333333 0.0586667 0 0.00333333 0.0593333 0 0.00333333 0.06 0 0.00333333 0.0606667 0 0.00333333 0.0613333 0 0.00333333 0.062 0 0.00416667 0.052 0 0.00416667 0.0526667 0 0.00416667 0.0533333 0 0.00416667 0.054 0 0.00416667 0.0546667 0 0.00416667 0.0553333 0 0.00416667 0.056 0 0.00416667 0.0566667 0 0.00416667 0.0573333 0 0.00416667 0.058 0 0.00416667 0.0586667 0 0.00416667 0.0593333 0 0.00416667 0.06 0 0.00416667 0.0606667 0 0.00416667 0.0613333 0 0.00416667 0.062 0 0.005 0.052 0 0.005 0.0526667 0 0.005 0.0533333 0 0.005 0.054 0 0.005 0.0546667 0 0.005 0.0553333 0 0.005 0.056 0 0.005 0.0566667 0 0.005 0.0573333 0 0.005 0.058 0 0.005 0.0586667 0 0.005 0.0593333 0 0.005 0.06 0 0.005 0.0606667 0 0.005 0.0613333 0 0.005 0.062 0 0.00583333 0.052 0 0.00583333 0.0526667 0 0.00583333 0.0533333 0 0.00583333 0.054 0 0.00583333 0.0546667 0 0.00583333 0.0553333 0 0.00583333 0.056 0 0.00583333 0.0566667 0 0.00583333 0.0573333 0 0.00583333 0.058 0 0.00583333 0.0586667 0 0.00583333 0.0593333 0 0.00583333 0.06 0 0.00583333 0.0606667 0 0.00583333 0.0613333 0 0.00583333 0.062 0 0.00666667 0.052 0 0.00666667 0.0526667 0 0.00666667 0.0533333 0 0.00666667 0.054 0 0.00666667 0.0546667 0 0.00666667 0.0553333 0 0.00666667 0.056 0 0.00666667 0.0566667 0 0.00666667 0.0573333 0 0.00666667 0.058 0 0.00666667 0.0586667 0 0.00666667 0.0593333 0 0.00666667 0.06 0 0.00666667 0.0606667 0 0.00666667 0.0613333 0 0.00666667 0.062 0 0.0075 0.052 0 0.0075 0.0526667 0 0.0075 0.0533333 0 0.0075 0.054 0 0.0075 0.0546667 0 0.0075 0.0553333 0 0.0075 0.056 0 0.0075 0.0566667 0 0.0075 0.0573333 0 0.0075 0.058 0 0.0075 0.0586667 0 0.0075 0.0593333 0 0.0075 0.06 0 0.0075 0.0606667 0 0.0075 0.0613333 0 0.0075 0.062 0 0.00833333 0.052 0 0.00833333 0.0526667 0 0.00833333 0.0533333 0 0.00833333 0.054 0 0.00833333 0.0546667 0 0.00833333 0.0553333 0 0.00833333 0.056 0 0.00833333 0.0566667 0 0.00833333 0.0573333 0 0.00833333 0.058 0 0.00833333 0.0586667 0 0.00833333 0.0593333 0 0.00833333 0.06 0 0.00833333 0.0606667 0 0.00833333 0.0613333 0 0.00833333 0.062 0 0.00916667 0.052 0 0.00916667 0.0526667 0 0.00916667 0.0533333 0 0.00916667 0.054 0 0.00916667 0.0546667 0 0.00916667 0.0553333 0 0.00916667 0.056 0 0.00916667 0.0566667 0 0.00916667 0.0573333 0 0.00916667 0.058 0 0.00916667 0.0586667 0 0.00916667 0.0593333 0 0.00916667 0.06 0 0.00916667 0.0606667 0 0.00916667 0.0613333 0 0.00916667 0.062 0 0.01 0.052 0 0.01 0.0526667 0 0.01 0.0533333 0 0.01 0.054 0 0.01 0.0546667 0 0.01 0.0553333 0 0.01 0.056 0 0.01 0.0566667 0 0.01 0.0573333 0 0.01 0.058 0 0.01 0.0586667 0 0.01 0.0593333 0 0.01 0.06 0 0.01 0.0606667 0 0.01 0.0613333 0 0.01 0.062 0 0.0108333 0.052 0 0.0108333 0.0526667 0 0.0108333 0.0533333 0 0.0108333 0.054 0 0.0108333 0.0546667 0 0.0108333 0.0553333 0 0.0108333 0.056 0 0.0108333 0.0566667 0 0.0108333 0.0573333 0 0.0108333 0.058 0 0.0108333 0.0586667 0 0.0108333 0.0593333 0 0.0108333 0.06 0 0.0108333 0.0606667 0 0.0108333 0.0613333 0 0.0108333 0.062 0 0.0116667 0.052 0 0.0116667 0.0526667 0 0.0116667 0.0533333 0 0.0116667 0.054 0 0.0116667 0.0546667 0 0.0116667 0.0553333 0 0.0116667 0.056 0 0.0116667 0.0566667 0 0.0116667 0.0573333 0 0.0116667 0.058 0 0.0116667 0.0586667 0 0.0116667 0.0593333 0 0.0116667 0.06 0 0.0116667 0.0606667 0 0.0116667 0.0613333 0 0.0116667 0.062 0 0.0125 0.052 0 0.0125 0.0526667 0 0.0125 0.0533333 0 0.0125 0.054 0 0.0125 0.0546667 0 0.0125 0.0553333 0 0.0125 0.056 0 0.0125 0.0566667 0 0.0125 0.0573333 0 0.0125 0.058 0 0.0125 0.0586667 0 0.0125 0.0593333 0 0.0125 0.06 0 0.0125 0.0606667 0 0.0125 0.0613333 0 0.0125 0.062 0 
</DataArray>
</Points> 
</Piece> 
</StructuredGrid> 
</VTKFile> 
