<?xml version="1.0"?> 
<VTKFile type="StructuredGrid" version="0.1"> 
<StructuredGrid WholeExtent="0 15 0 15 0 0"> 
<Piece Extent="0 15 0 15 0 0"> 
<PointData>
<DataArray type="Float32" Name="E" format="ascii" NumberOfComponents="3"> 
-546591 0 0 -544761 0 0 -542935 0 0 -541111 0 0 -539291 0 0 -537474 0 0 -535660 0 0 -533850 0 0 -532043 0 0 -530240 0 0 -528441 0 0 -526646 0 0 -524855 0 0 -523067 0 0 -521284 0 0 -519505 0 0 -546568 7629.16 0 -544128 7614.37 0 -541692 7597.74 0 -539263 7579.97 0 -536839 7561.18 0 -534422 7541.47 0 -532011 7521.01 0 -529607 7499.9 0 -527210 7478.3 0 -524820 7456.29 0 -522437 7434.01 0 -520062 7411.56 0 -517694 7389.06 0 -515333 7366.6 0 -512979 7344.3 0 -510633 7322.24 0 -546498 15273.8 0 -543440 15233.1 0 -540392 15188.8 0 -537354 15141 0 -534326 15090.4 0 -531310 15037.4 0 -528305 14982.7 0 -525312 14926.6 0 -522331 14869.7 0 -519362 14812.4 0 -516406 14755 0 -513461 14698 0 -510529 14641.6 0 -507607 14586.2 0 -504698 14531.8 0 -501799 14478.8 0 -546375 22945.7 0 -542690 22867.1 0 -539022 22780 0 -535372 22686.2 0 -531740 22587.2 0 -528128 22484.3 0 -524534 22378.9 0 -520960 22272.3 0 -517405 22165.5 0 -513869 22059.6 0 -510351 21955.3 0 -506852 21853.4 0 -503369 21754.4 0 -499903 21658.9 0 -496453 21567.2 0 -493018 21479.6 0 -546184 30660.8 0 -541863 30525.3 0 -537569 30375.1 0 -533304 30214 0 -529070 30045.5 0 -524867 29872.6 0 -520694 29698.2 0 -516550 29524.6 0 -512436 29353.9 0 -508348 29187.9 0 -504286 29027.8 0 -500249 28874.8 0 -496234 28729.4 0 -492240 28592.2 0 -488265 28463.4 0 -484307 28343.1 0 -545914 38435.5 0 -540939 38214.3 0 -536012 37973.1 0 -531134 37717.1 0 -526304 37453.1 0 -521521 37187.1 0 -516784 36924 0 -512089 36668.1 0 -507434 36422.3 0 -502816 36188.9 0 -498229 35969.5 0 -493673 35764.9 0 -489143 35575.4 0 -484636 35400.9 0 -480150 35241.1 0 -475683 35095.3 0 -545528 46274.2 0 -539891 45938.5 0 -534328 45567.4 0 -528842 45180.6 0 -523431 44790.1 0 -518089 44406 0 -512812 44036.3 0 -507591 43686.4 0 -502421 43360.1 0 -497294 43058.9 0 -492205 42783.7 0 -487148 42534.1 0 -482118 42309 0 -477111 42107.2 0 -472124 41926.9 0 -467154 41766.5 0 -545015 54221.9 0 -538686 53694 0 -532487 53142.9 0 -526411 52580.2 0 -520445 52028.1 0 -514577 51502.6 0 -508793 51013.3 0 -503078 50566 0 -497421 50162.3 0 -491810 49801.8 0 -486237 49482.2 0 -480693 49200.6 0 -475174 48953.6 0 -469674 48737.9 0 -464191 48549.9 0 -458720 48386.7 0 -544281 62219.8 0 -537274 61477.6 0 -530459 60671.3 0 -523824 59878.1 0 -517350 59130 0 -511002 58446 0 -504754 57836 0 -498581 57299.4 0 -492465 56833.3 0 -486390 56430.6 0 -480346 56084.9 0 -474325 55788.8 0 -468321 55536 0 -462330 55320.7 0 -456348 55137.6 0 -450374 54982.4 0 -543334 70447.1 0 -535598 69253.8 0 -528198 68106.4 0 -521077 67021.1 0 -514162 66049.1 0 -507398 65208.4 0 -500734 64492.6 0 -494137 63891.6 0 -487582 63388 0 -481056 62968.1 0 -474547 62617.6 0 -468049 62325.8 0 -461559 62082.7 0 -455072 61880.7 0 -448589 61713 0 -442106 61574.2 0 -541943 78576.9 0 -533562 77003.3 0 -525678 75366.1 0 -518176 73933 0 -510927 72740 0 -503814 71768.7 0 -496778 70989 0 -489778 70359.4 0 -482796 69852.7 0 -475820 69441.4 0 -468843 69108.3 0 -461864 68837.1 0 -454881 68616.9 0 -447892 68437.9 0 -440899 68293.1 0 -433901 68176.5 0 -540116 87322.4 0 -531051 84570.6 0 -522866 82325.4 0 -515183 80527.3 0 -507709 79161.9 0 -500315 78134.3 0 -492929 77344.8 0 -485535 76736.4 0 -478120 76257.5 0 -470686 75881.2 0 -463232 75581.9 0 -455762 75344.7 0 -448276 75156.1 0 -440777 75006.9 0 -433267 74889.5 0 -425746 74798.1 0 -537331 95381.9 0 -527885 91847.3 0 -519824 88769.7 0 -512204 86715.3 0 -504618 85323.1 0 -496958 84330.5 0 -489222 83606.8 0 -481415 83055.7 0 -473555 82637.4 0 -465648 82311.5 0 -457705 82060.2 0 -449731 81864.1 0 -441733 81712.9 0 -433714 81596.7 0 -425678 81508.8 0 -417629 81443.8 0 -532841 105320 0 -523874 98092.1 0 -516786 94464.3 0 -509432 92495 0 -501748 91266 0 -493789 90430.9 0 -485666 89813.4 0 -477423 89362 0 -469091 89015 0 -460695 88755.7 0 -452246 88556.2 0 -443758 88406.8 0 -435237 88294.3 0 -426691 88212.3 0 -418123 88154 0 -409539 88115.2 0 -525754 113368 0 -519569 102267 0 -514140 99302 0 -507139 97981.7 0 -499121 97125.2 0 -490824 96481.8 0 -482251 96026.8 0 -473541 95672.9 0 -464716 95418.6 0 -455810 95223.1 0 -446844 95081.9 0 -437829 94977.5 0 -428778 94904.5 0 -419697 94855.3 0 -410592 94825.7 0 -401468 94812.1 0 -475630 93668.9 0 -517199 103437 0 -513364 103860 0 -504891 103465 0 -496955 102976 0 -487939 102569 0 -478999 102258 0 -469738 102024 0 -460417 101852 0 -450980 101727 0 -441484 101639 0 -431934 101580 0 -422345 101543 0 -412724 101526 0 -403077 101523 0 -393410 101534 0 </DataArray> 
</PointData> 
<Points> 
<DataArray type="Float32" NumberOfComponents="3"> 
0 0.062 0 0 0.0622 0 0 0.0624 0 0 0.0626 0 0 0.0628 0 0 0.063 0 0 0.0632 0 0 0.0634 0 0 0.0636 0 0 0.0638 0 0 0.064 0 0 0.0642 0 0 0.0644 0 0 0.0646 0 0 0.0648 0 0 0.065 0 0.000833333 0.062 0 0.000833333 0.0622667 0 0.000833333 0.0625333 0 0.000833333 0.0628 0 0.000833333 0.0630667 0 0.000833333 0.0633333 0 0.000833333 0.0636 0 0.000833333 0.0638667 0 0.000833333 0.0641333 0 0.000833333 0.0644 0 0.000833333 0.0646667 0 0.000833333 0.0649333 0 0.000833333 0.0652 0 0.000833333 0.0654667 0 0.000833333 0.0657333 0 0.000833333 0.066 0 0.00166667 0.062 0 0.00166667 0.0623333 0 0.00166667 0.0626667 0 0.00166667 0.063 0 0.00166667 0.0633333 0 0.00166667 0.0636667 0 0.00166667 0.064 0 0.00166667 0.0643333 0 0.00166667 0.0646667 0 0.00166667 0.065 0 0.00166667 0.0653333 0 0.00166667 0.0656667 0 0.00166667 0.066 0 0.00166667 0.0663333 0 0.00166667 0.0666667 0 0.00166667 0.067 0 0.0025 0.062 0 0.0025 0.0624 0 0.0025 0.0628 0 0.0025 0.0632 0 0.0025 0.0636 0 0.0025 0.064 0 0.0025 0.0644 0 0.0025 0.0648 0 0.0025 0.0652 0 0.0025 0.0656 0 0.0025 0.066 0 0.0025 0.0664 0 0.0025 0.0668 0 0.0025 0.0672 0 0.0025 0.0676 0 0.0025 0.068 0 0.00333333 0.062 0 0.00333333 0.0624667 0 0.00333333 0.0629333 0 0.00333333 0.0634 0 0.00333333 0.0638667 0 0.00333333 0.0643333 0 0.00333333 0.0648 0 0.00333333 0.0652667 0 0.00333333 0.0657333 0 0.00333333 0.0662 0 0.00333333 0.0666667 0 0.00333333 0.0671333 0 0.00333333 0.0676 0 0.00333333 0.0680667 0 0.00333333 0.0685333 0 0.00333333 0.069 0 0.00416667 0.062 0 0.00416667 0.0625333 0 0.00416667 0.0630667 0 0.00416667 0.0636 0 0.00416667 0.0641333 0 0.00416667 0.0646667 0 0.00416667 0.0652 0 0.00416667 0.0657333 0 0.00416667 0.0662667 0 0.00416667 0.0668 0 0.00416667 0.0673333 0 0.00416667 0.0678667 0 0.00416667 0.0684 0 0.00416667 0.0689333 0 0.00416667 0.0694667 0 0.00416667 0.07 0 0.005 0.062 0 0.005 0.0626 0 0.005 0.0632 0 0.005 0.0638 0 0.005 0.0644 0 0.005 0.065 0 0.005 0.0656 0 0.005 0.0662 0 0.005 0.0668 0 0.005 0.0674 0 0.005 0.068 0 0.005 0.0686 0 0.005 0.0692 0 0.005 0.0698 0 0.005 0.0704 0 0.005 0.071 0 0.00583333 0.062 0 0.00583333 0.0626667 0 0.00583333 0.0633333 0 0.00583333 0.064 0 0.00583333 0.0646667 0 0.00583333 0.0653333 0 0.00583333 0.066 0 0.00583333 0.0666667 0 0.00583333 0.0673333 0 0.00583333 0.068 0 0.00583333 0.0686667 0 0.00583333 0.0693333 0 0.00583333 0.07 0 0.00583333 0.0706667 0 0.00583333 0.0713333 0 0.00583333 0.072 0 0.00666667 0.062 0 0.00666667 0.0627333 0 0.00666667 0.0634667 0 0.00666667 0.0642 0 0.00666667 0.0649333 0 0.00666667 0.0656667 0 0.00666667 0.0664 0 0.00666667 0.0671333 0 0.00666667 0.0678667 0 0.00666667 0.0686 0 0.00666667 0.0693333 0 0.00666667 0.0700667 0 0.00666667 0.0708 0 0.00666667 0.0715333 0 0.00666667 0.0722667 0 0.00666667 0.073 0 0.0075 0.062 0 0.0075 0.0628 0 0.0075 0.0636 0 0.0075 0.0644 0 0.0075 0.0652 0 0.0075 0.066 0 0.0075 0.0668 0 0.0075 0.0676 0 0.0075 0.0684 0 0.0075 0.0692 0 0.0075 0.07 0 0.0075 0.0708 0 0.0075 0.0716 0 0.0075 0.0724 0 0.0075 0.0732 0 0.0075 0.074 0 0.00833333 0.062 0 0.00833333 0.0628667 0 0.00833333 0.0637333 0 0.00833333 0.0646 0 0.00833333 0.0654667 0 0.00833333 0.0663333 0 0.00833333 0.0672 0 0.00833333 0.0680667 0 0.00833333 0.0689333 0 0.00833333 0.0698 0 0.00833333 0.0706667 0 0.00833333 0.0715333 0 0.00833333 0.0724 0 0.00833333 0.0732667 0 0.00833333 0.0741333 0 0.00833333 0.075 0 0.00916667 0.062 0 0.00916667 0.0629333 0 0.00916667 0.0638667 0 0.00916667 0.0648 0 0.00916667 0.0657333 0 0.00916667 0.0666667 0 0.00916667 0.0676 0 0.00916667 0.0685333 0 0.00916667 0.0694667 0 0.00916667 0.0704 0 0.00916667 0.0713333 0 0.00916667 0.0722667 0 0.00916667 0.0732 0 0.00916667 0.0741333 0 0.00916667 0.0750667 0 0.00916667 0.076 0 0.01 0.062 0 0.01 0.063 0 0.01 0.064 0 0.01 0.065 0 0.01 0.066 0 0.01 0.067 0 0.01 0.068 0 0.01 0.069 0 0.01 0.07 0 0.01 0.071 0 0.01 0.072 0 0.01 0.073 0 0.01 0.074 0 0.01 0.075 0 0.01 0.076 0 0.01 0.077 0 0.0108333 0.062 0 0.0108333 0.0630667 0 0.0108333 0.0641333 0 0.0108333 0.0652 0 0.0108333 0.0662667 0 0.0108333 0.0673333 0 0.0108333 0.0684 0 0.0108333 0.0694667 0 0.0108333 0.0705333 0 0.0108333 0.0716 0 0.0108333 0.0726667 0 0.0108333 0.0737333 0 0.0108333 0.0748 0 0.0108333 0.0758667 0 0.0108333 0.0769333 0 0.0108333 0.078 0 0.0116667 0.062 0 0.0116667 0.0631333 0 0.0116667 0.0642667 0 0.0116667 0.0654 0 0.0116667 0.0665333 0 0.0116667 0.0676667 0 0.0116667 0.0688 0 0.0116667 0.0699333 0 0.0116667 0.0710667 0 0.0116667 0.0722 0 0.0116667 0.0733333 0 0.0116667 0.0744667 0 0.0116667 0.0756 0 0.0116667 0.0767333 0 0.0116667 0.0778667 0 0.0116667 0.079 0 0.0125 0.062 0 0.0125 0.0632 0 0.0125 0.0644 0 0.0125 0.0656 0 0.0125 0.0668 0 0.0125 0.068 0 0.0125 0.0692 0 0.0125 0.0704 0 0.0125 0.0716 0 0.0125 0.0728 0 0.0125 0.074 0 0.0125 0.0752 0 0.0125 0.0764 0 0.0125 0.0776 0 0.0125 0.0788 0 0.0125 0.08 0 
</DataArray>
</Points> 
</Piece> 
</StructuredGrid> 
</VTKFile> 
