<?xml version="1.0"?> 
<VTKFile type="StructuredGrid" version="0.1"> 
<StructuredGrid WholeExtent="0 15 0 15 0 0"> 
<Piece Extent="0 15 0 15 0 0"> 
<PointData>
<DataArray type="Float32" Name="E" format="ascii" NumberOfComponents="3"> 
391675 4.25247e+06 0 -892144 276128 0 -865472 2261.46 0 -738476 61307.4 0 -664806 81039.5 0 -638822 38830.7 0 -637792 -33901.9 0 -645451 -114415 0 -653884 -191262 0 -660911 -263280 0 -666786 -332844 0 -672698 -404353 0 -679738 -482680 0 -688449 -574649 0 -696887 -694576 0 -692310 -955077 0 38110.9 413775 0 -17468 317700 0 -172574 461858 0 -323035 476152 0 -436228 401765 0 -509902 293330 0 -552246 184621 0 -573358 89179 0 -581736 8693.55 0 -583277 -59873.2 0 -581601 -120829 0 -578641 -178108 0 -575204 -234852 0 -571458 -293560 0 -567172 -356477 0 -562647 -426851 0 2362.95 25654.9 0 9865.68 234694 0 -3237.87 176399 0 -35892 208111 0 -93131.2 269793 0 -166453 310522 0 -243241 313930 0 -313646 284120 0 -372115 232758 0 -416991 170797 0 -449081 106051 0 -470404 42910.1 0 -483284 -16844.7 0 -489806 -73088.8 0 -491578 -126492 0 -489471 -177291 0 14689.4 159485 0 1733.08 79504.2 0 -4536.51 144451 0 -14133.3 144773 0 -24060.7 135250 0 -38237.4 142836 0 -61278.1 165180 0 -94187.9 190596 0 -134940 208185 0 -179803 212351 0 -224893 202007 0 -267039 179032 0 -304135 146543 0 -335104 107771 0 -359687 65377.6 0 -378215 20933.6 0 2374.43 25779.5 0 2766.76 72349.6 0 -375.599 55132.3 0 -3581.88 77232.7 0 -10374.3 97841.2 0 -19217.7 105031 0 -28164.7 105156 0 -37529.1 105811 0 -48738.1 110987 0 -63313.1 120163 0 -82010.8 130616 0 -104672 139095 0 -130387 143027 0 -157828 140911 0 -185564 132326 0 -212276 117770 0 5093.97 55305.9 0 2504.69 41615 0 -197.245 54162.1 0 -3194.31 47866 0 -4908.89 47280.4 0 -7014.25 55213.7 0 -11035.3 65244.9 0 -16805.4 73002.4 0 -23627.3 77254.5 0 -30905.4 79263.7 0 -38544.8 80726.8 0 -46842.4 82862.9 0 -56264.6 86002.7 0 -67212.1 89742.7 0 -79881.4 93223.6 0 -94212.2 95445.8 0 1851.37 20100.6 0 1113.56 28978.4 0 708.927 28392.9 0 -486.233 35978.5 0 -2911.06 39128 0 -5390.65 38477.3 0 -7235.55 38293.7 0 -8918.13 40273.7 0 -11062.5 44171.3 0 -14080.7 48675.1 0 -18013.3 52713.1 0 -22688 55751.1 0 -27883.2 57803.1 0 -33452 59172.2 0 -39361.2 60227.7 0 -45676.5 61240.9 0 2026.58 22002.9 0 1354.21 20528.7 0 54.9547 22274.8 0 -715.486 21147 0 -1144.86 22766.5 0 -1995.96 25889.7 0 -3543.47 28241.1 0 -5388.54 29417.9 0 -7194.13 29911.7 0 -8838.22 30501.8 0 -10433.6 31600.4 0 -12176.6 33252.8 0 -14240.4 35241.1 0 -16716.4 37275.2 0 -19613.9 39108.9 0 -22886.1 40598.2 0 1113.86 12093.4 0 651.799 13798 0 512.673 14605.5 0 -164.491 16300.5 0 -1047.59 16707.7 0 -1745.85 16711.4 0 -2223.96 17315.6 0 -2783.29 18472 0 -3600.25 19819.3 0 -4696.35 20986.1 0 -5972.87 21855 0 -7319.2 22484.3 0 -8668.13 23018.6 0 -10012.9 23587.7 0 -11391.1 24264.4 0 -12860 25055.5 0 908.629 9865.11 0 642.854 9979.29 0 127.928 10316.7 0 -105.995 10480.4 0 -358.879 11172 0 -807.616 11946.7 0 -1418.1 12430.9 0 -2013.7 12727.5 0 -2530.9 13013 0 -2997.51 13421 0 -3491.19 13958.3 0 -4075.06 14566.4 0 -4775.61 15169.4 0 -5584.04 15713.9 0 -6472.74 16179.5 0 -7411.77 16573.4 0 593.596 6444.76 0 364.174 6813.62 0 237.869 7153.73 0 -82.6226 7503.21 0 -391.395 7696.03 0 -627.145 7888.04 0 -835.868 8188.15 0 -1112.16 8539.37 0 -1473.01 8876.93 0 -1889.76 9162.93 0 -2318.99 9404.17 0 -2735.05 9625.76 0 -3135.72 9852.35 0 -3535.73 10096.6 0 -3955.31 10358.1 0 -4411.18 10627.7 0 420.782 4568.49 0 284.269 4717.1 0 81.008 4864.73 0 -36.8861 5024.51 0 -194.165 5202.69 0 -404.811 5381.47 0 -635.734 5541.12 0 -843.609 5690.04 0 -1030.14 5839.92 0 -1216.62 5995.89 0 -1425.35 6156.6 0 -1665.66 6316.27 0 -1934.29 6469.8 0 -2221.28 6614.05 0 -2516.37 6748.55 0 -2813.08 6874.44 0 275.692 2993.22 0 156.909 3087.88 0 61.414 3181.4 0 -83.4549 3272.73 0 -210.101 3385.95 0 -321.39 3486.9 0 -437.317 3570.85 0 -575.544 3654.07 0 -730.983 3741.95 0 -891.5 3835.34 0 -1047.63 3928.09 0 -1197.43 4016.24 0 -1344.72 4097.59 0 -1495.33 4172.77 0 -1654.03 4243.31 0 -1822.99 4310.79 0 161.348 1751.78 0 78.9045 1820.83 0 -16.6741 1893.53 0 -94.5955 1956.41 0 -187.772 1987.03 0 -289.828 2032.63 0 -390.472 2101.31 0 -484.368 2167.11 0 -575.685 2220.42 0 -670.364 2260.13 0 -771.614 2295.29 0 -879.109 2332.17 0 -990.309 2373.81 0 -1102.47 2418.85 0 -1213.81 2464.25 0 -1323.91 2506.88 0 73.9622 803.018 0 2.48953 821.506 0 -67.3364 832.083 0 -141.918 855.416 0 -211.386 908.225 0 -281.036 942.233 0 -354.325 950.017 0 -430.385 959.712 0 -507.24 980.754 0 -583.163 1013.3 0 -658.074 1047.28 0 -732.605 1076.03 0 -807.681 1096.62 0 -883.864 1110.74 0 -961.286 1121.68 0 -1039.7 1132.66 0 1.19209e-07 1.43051e-06 0 -50.6809 1.16415e-07 0 -92.4882 -5.97909e-07 0 -158.859 4.20958e-07 0 -213.352 3.35276e-07 0 -261.988 -1.3411e-07 0 -314.978 5.36442e-07 0 -378.87 -9.53674e-07 0 -447.791 8.34465e-07 0 -515.161 -3.27826e-07 0 -577.505 7.15256e-07 0 -635.778 -8.9407e-07 0 -693.015 7.7486e-07 0 -752.122 -7.15256e-07 0 -814.572 0 0 -880.245 3.8147e-06 0 </DataArray> 
</PointData> 
<Points> 
<DataArray type="Float32" NumberOfComponents="3"> 
0.264 0.021 0 0.263267 0.0214 0 0.262533 0.0218 0 0.2618 0.0222 0 0.261067 0.0226 0 0.260333 0.023 0 0.2596 0.0234 0 0.258867 0.0238 0 0.258133 0.0242 0 0.2574 0.0246 0 0.256667 0.025 0 0.255933 0.0254 0 0.2552 0.0258 0 0.254467 0.0262 0 0.253733 0.0266 0 0.253 0.027 0 0.266533 0.0207667 0 0.265849 0.0211529 0 0.265164 0.0215391 0 0.26448 0.0219253 0 0.263796 0.0223116 0 0.263111 0.0226978 0 0.262427 0.023084 0 0.261742 0.0234702 0 0.261058 0.0238564 0 0.260373 0.0242427 0 0.259689 0.0246289 0 0.259004 0.0250151 0 0.25832 0.0254013 0 0.257636 0.0257876 0 0.256951 0.0261738 0 0.256267 0.02656 0 0.269067 0.0205333 0 0.268431 0.0209058 0 0.267796 0.0212782 0 0.26716 0.0216507 0 0.266524 0.0220231 0 0.265889 0.0223956 0 0.265253 0.022768 0 0.264618 0.0231404 0 0.263982 0.0235129 0 0.263347 0.0238853 0 0.262711 0.0242578 0 0.262076 0.0246302 0 0.26144 0.0250027 0 0.260804 0.0253751 0 0.260169 0.0257476 0 0.259533 0.02612 0 0.2716 0.0203 0 0.271013 0.0206587 0 0.270427 0.0210173 0 0.26984 0.021376 0 0.269253 0.0217347 0 0.268667 0.0220933 0 0.26808 0.022452 0 0.267493 0.0228107 0 0.266907 0.0231693 0 0.26632 0.023528 0 0.265733 0.0238867 0 0.265147 0.0242453 0 0.26456 0.024604 0 0.263973 0.0249627 0 0.263387 0.0253213 0 0.2628 0.02568 0 0.274133 0.0200667 0 0.273596 0.0204116 0 0.273058 0.0207564 0 0.27252 0.0211013 0 0.271982 0.0214462 0 0.271444 0.0217911 0 0.270907 0.022136 0 0.270369 0.0224809 0 0.269831 0.0228258 0 0.269293 0.0231707 0 0.268756 0.0235156 0 0.268218 0.0238604 0 0.26768 0.0242053 0 0.267142 0.0245502 0 0.266604 0.0248951 0 0.266067 0.02524 0 0.276667 0.0198333 0 0.276178 0.0201644 0 0.275689 0.0204956 0 0.2752 0.0208267 0 0.274711 0.0211578 0 0.274222 0.0214889 0 0.273733 0.02182 0 0.273244 0.0221511 0 0.272756 0.0224822 0 0.272267 0.0228133 0 0.271778 0.0231444 0 0.271289 0.0234756 0 0.2708 0.0238067 0 0.270311 0.0241378 0 0.269822 0.0244689 0 0.269333 0.0248 0 0.2792 0.0196 0 0.27876 0.0199173 0 0.27832 0.0202347 0 0.27788 0.020552 0 0.27744 0.0208693 0 0.277 0.0211867 0 0.27656 0.021504 0 0.27612 0.0218213 0 0.27568 0.0221387 0 0.27524 0.022456 0 0.2748 0.0227733 0 0.27436 0.0230907 0 0.27392 0.023408 0 0.27348 0.0237253 0 0.27304 0.0240427 0 0.2726 0.02436 0 0.281733 0.0193667 0 0.281342 0.0196702 0 0.280951 0.0199738 0 0.28056 0.0202773 0 0.280169 0.0205809 0 0.279778 0.0208844 0 0.279387 0.021188 0 0.278996 0.0214916 0 0.278604 0.0217951 0 0.278213 0.0220987 0 0.277822 0.0224022 0 0.277431 0.0227058 0 0.27704 0.0230093 0 0.276649 0.0233129 0 0.276258 0.0236164 0 0.275867 0.02392 0 0.284267 0.0191333 0 0.283924 0.0194231 0 0.283582 0.0197129 0 0.28324 0.0200027 0 0.282898 0.0202924 0 0.282556 0.0205822 0 0.282213 0.020872 0 0.281871 0.0211618 0 0.281529 0.0214516 0 0.281187 0.0217413 0 0.280844 0.0220311 0 0.280502 0.0223209 0 0.28016 0.0226107 0 0.279818 0.0229004 0 0.279476 0.0231902 0 0.279133 0.02348 0 0.2868 0.0189 0 0.286507 0.019176 0 0.286213 0.019452 0 0.28592 0.019728 0 0.285627 0.020004 0 0.285333 0.02028 0 0.28504 0.020556 0 0.284747 0.020832 0 0.284453 0.021108 0 0.28416 0.021384 0 0.283867 0.02166 0 0.283573 0.021936 0 0.28328 0.022212 0 0.282987 0.022488 0 0.282693 0.022764 0 0.2824 0.02304 0 0.289333 0.0186667 0 0.289089 0.0189289 0 0.288844 0.0191911 0 0.2886 0.0194533 0 0.288356 0.0197156 0 0.288111 0.0199778 0 0.287867 0.02024 0 0.287622 0.0205022 0 0.287378 0.0207644 0 0.287133 0.0210267 0 0.286889 0.0212889 0 0.286644 0.0215511 0 0.2864 0.0218133 0 0.286156 0.0220756 0 0.285911 0.0223378 0 0.285667 0.0226 0 0.291867 0.0184333 0 0.291671 0.0186818 0 0.291476 0.0189302 0 0.29128 0.0191787 0 0.291084 0.0194271 0 0.290889 0.0196756 0 0.290693 0.019924 0 0.290498 0.0201724 0 0.290302 0.0204209 0 0.290107 0.0206693 0 0.289911 0.0209178 0 0.289716 0.0211662 0 0.28952 0.0214147 0 0.289324 0.0216631 0 0.289129 0.0219116 0 0.288933 0.02216 0 0.2944 0.0182 0 0.294253 0.0184347 0 0.294107 0.0186693 0 0.29396 0.018904 0 0.293813 0.0191387 0 0.293667 0.0193733 0 0.29352 0.019608 0 0.293373 0.0198427 0 0.293227 0.0200773 0 0.29308 0.020312 0 0.292933 0.0205467 0 0.292787 0.0207813 0 0.29264 0.021016 0 0.292493 0.0212507 0 0.292347 0.0214853 0 0.2922 0.02172 0 0.296933 0.0179667 0 0.296836 0.0181876 0 0.296738 0.0184084 0 0.29664 0.0186293 0 0.296542 0.0188502 0 0.296444 0.0190711 0 0.296347 0.019292 0 0.296249 0.0195129 0 0.296151 0.0197338 0 0.296053 0.0199547 0 0.295956 0.0201756 0 0.295858 0.0203964 0 0.29576 0.0206173 0 0.295662 0.0208382 0 0.295564 0.0210591 0 0.295467 0.02128 0 0.299467 0.0177333 0 0.299418 0.0179404 0 0.299369 0.0181476 0 0.29932 0.0183547 0 0.299271 0.0185618 0 0.299222 0.0187689 0 0.299173 0.018976 0 0.299124 0.0191831 0 0.299076 0.0193902 0 0.299027 0.0195973 0 0.298978 0.0198044 0 0.298929 0.0200116 0 0.29888 0.0202187 0 0.298831 0.0204258 0 0.298782 0.0206329 0 0.298733 0.02084 0 0.302 0.0175 0 0.302 0.0176933 0 0.302 0.0178867 0 0.302 0.01808 0 0.302 0.0182733 0 0.302 0.0184667 0 0.302 0.01866 0 0.302 0.0188533 0 0.302 0.0190467 0 0.302 0.01924 0 0.302 0.0194333 0 0.302 0.0196267 0 0.302 0.01982 0 0.302 0.0200133 0 0.302 0.0202067 0 0.302 0.0204 0 
</DataArray>
</Points> 
</Piece> 
</StructuredGrid> 
</VTKFile> 
