<?xml version="1.0"?> 
<VTKFile type="StructuredGrid" version="0.1"> 
<StructuredGrid WholeExtent="0 15 0 15 0 0"> 
<Piece Extent="0 15 0 15 0 0"> 
<PointData>
<DataArray type="Float32" Name="E" format="ascii" NumberOfComponents="3"> 
1.95175e+06 -772971 0 1.95959e+06 -776077 0 1.96731e+06 -779134 0 1.9749e+06 -782139 0 1.98235e+06 -785090 0 1.98966e+06 -787984 0 1.99681e+06 -790817 0 2.0038e+06 -793583 0 2.0106e+06 -796278 0 2.01721e+06 -798895 0 2.0236e+06 -801427 0 2.02976e+06 -803865 0 2.03565e+06 -806199 0 2.04125e+06 -808417 0 2.04653e+06 -810508 0 2.05145e+06 -812455 0 2.15477e+06 -612181 0 2.16187e+06 -615971 0 2.169e+06 -619721 0 2.17616e+06 -623432 0 2.18336e+06 -627102 0 2.1906e+06 -630730 0 2.19788e+06 -634315 0 2.20521e+06 -637855 0 2.21258e+06 -641346 0 2.22001e+06 -644784 0 2.2275e+06 -648165 0 2.23504e+06 -651482 0 2.24265e+06 -654730 0 2.25034e+06 -657899 0 2.2581e+06 -660980 0 2.26594e+06 -663961 0 2.3213e+06 -459984 0 2.32754e+06 -462332 0 2.33383e+06 -464633 0 2.34015e+06 -466889 0 2.34652e+06 -469100 0 2.35293e+06 -471268 0 2.35938e+06 -473393 0 2.36587e+06 -475479 0 2.37241e+06 -477527 0 2.37899e+06 -479541 0 2.38562e+06 -481524 0 2.39229e+06 -483481 0 2.399e+06 -485417 0 2.40576e+06 -487338 0 2.41257e+06 -489253 0 2.41942e+06 -491171 0 2.42866e+06 -315840 0 2.43378e+06 -316690 0 2.43894e+06 -317483 0 2.44413e+06 -318216 0 2.44935e+06 -318889 0 2.4546e+06 -319500 0 2.45989e+06 -320047 0 2.4652e+06 -320528 0 2.47055e+06 -320940 0 2.47593e+06 -321280 0 2.48134e+06 -321545 0 2.48679e+06 -321732 0 2.49226e+06 -321834 0 2.49776e+06 -321848 0 2.50328e+06 -321766 0 2.50883e+06 -321581 0 2.48083e+06 -190848 0 2.48463e+06 -190548 0 2.48844e+06 -190194 0 2.49227e+06 -189785 0 2.49612e+06 -189323 0 2.49997e+06 -188807 0 2.50385e+06 -188237 0 2.50773e+06 -187613 0 2.51163e+06 -186936 0 2.51554e+06 -186206 0 2.51947e+06 -185426 0 2.52341e+06 -184595 0 2.52737e+06 -183717 0 2.53133e+06 -182792 0 2.53532e+06 -181825 0 2.53932e+06 -180818 0 2.49157e+06 -95449.5 0 2.49404e+06 -94501 0 2.49651e+06 -93508.6 0 2.49899e+06 -92471.4 0 2.50147e+06 -91388.5 0 2.50396e+06 -90259 0 2.50644e+06 -89082 0 2.50893e+06 -87856.4 0 2.51142e+06 -86581.2 0 2.5139e+06 -85255.4 0 2.51638e+06 -83877.5 0 2.51886e+06 -82446.1 0 2.52134e+06 -80959.6 0 2.52381e+06 -79416 0 2.52627e+06 -77813 0 2.52872e+06 -76148.2 0 2.47677e+06 -32095.5 0 2.47812e+06 -30951 0 2.47945e+06 -29763.9 0 2.48077e+06 -28535.3 0 2.48208e+06 -27266.3 0 2.48337e+06 -25957.6 0 2.48466e+06 -24609.9 0 2.48594e+06 -23223.8 0 2.4872e+06 -21799.7 0 2.48846e+06 -20338.3 0 2.4897e+06 -18839.9 0 2.49094e+06 -17305.1 0 2.49216e+06 -15734.6 0 2.49338e+06 -14128.9 0 2.49459e+06 -12488.9 0 2.49578e+06 -10815.5 0 2.4505e+06 617.833 0 2.45085e+06 1797.56 0 2.45121e+06 2987.73 0 2.45156e+06 4191.51 0 2.4519e+06 5411.58 0 2.45223e+06 6650.13 0 2.45255e+06 7908.96 0 2.45286e+06 9189.57 0 2.45316e+06 10493.2 0 2.45344e+06 11820.7 0 2.4537e+06 13173.1 0 2.45395e+06 14550.9 0 2.45417e+06 15954.6 0 2.45438e+06 17384.6 0 2.45457e+06 18841.3 0 2.45474e+06 20324.9 0 2.42251e+06 8441.66 0 2.42222e+06 9096.92 0 2.42189e+06 9807.02 0 2.42153e+06 10565.8 0 2.42114e+06 11368.3 0 2.42072e+06 12210.5 0 2.42027e+06 13089.1 0 2.4198e+06 14001.6 0 2.41931e+06 14946.2 0 2.41879e+06 15921.6 0 2.41825e+06 16927.1 0 2.4177e+06 17962.2 0 2.41712e+06 19026.9 0 2.41652e+06 20121.9 0 2.4159e+06 21247.7 0 2.41527e+06 22405.8 0 2.40264e+06 -8493.86 0 2.40159e+06 -7846.5 0 2.40054e+06 -7255.83 0 2.39949e+06 -6709.39 0 2.39843e+06 -6196.85 0 2.39735e+06 -5709.8 0 2.39626e+06 -5241.53 0 2.39515e+06 -4786.78 0 2.39402e+06 -4341.59 0 2.39286e+06 -3903.15 0 2.39168e+06 -3469.7 0 2.39047e+06 -3040.48 0 2.38922e+06 -2615.68 0 2.38795e+06 -2196.41 0 2.38664e+06 -1784.78 0 2.3853e+06 -1383.83 0 2.39726e+06 -39432.7 0 2.39594e+06 -40573.7 0 2.39454e+06 -41568.2 0 2.39306e+06 -42438.1 0 2.39152e+06 -43201.6 0 2.38993e+06 -43872.9 0 2.38827e+06 -44463.4 0 2.38657e+06 -44981.7 0 2.38482e+06 -45433.7 0 2.38303e+06 -45823.3 0 2.3812e+06 -46152 0 2.37932e+06 -46419.6 0 2.37741e+06 -46623.7 0 2.37546e+06 -46760.1 0 2.37348e+06 -46822.4 0 2.37146e+06 -46802 0 2.42156e+06 -100311 0 2.41933e+06 -100850 0 2.41709e+06 -101627 0 2.41483e+06 -102601 0 2.41255e+06 -103737 0 2.41023e+06 -105010 0 2.40787e+06 -106396 0 2.40546e+06 -107878 0 2.40301e+06 -109446 0 2.4005e+06 -111091 0 2.39794e+06 -112808 0 2.39531e+06 -114599 0 2.39263e+06 -116467 0 2.38989e+06 -118419 0 2.38709e+06 -120469 0 2.38422e+06 -122632 0 2.48973e+06 -164787 0 2.48697e+06 -170954 0 2.48406e+06 -176648 0 2.48102e+06 -181936 0 2.47785e+06 -186872 0 2.47456e+06 -191500 0 2.47115e+06 -195854 0 2.46764e+06 -199957 0 2.46401e+06 -203828 0 2.46027e+06 -207474 0 2.45643e+06 -210897 0 2.45248e+06 -214093 0 2.44842e+06 -217047 0 2.44426e+06 -219740 0 2.43999e+06 -222144 0 2.43561e+06 -224220 0 2.6305e+06 -309889 0 2.62593e+06 -313044 0 2.62119e+06 -316871 0 2.61628e+06 -321263 0 2.61122e+06 -326130 0 2.60602e+06 -331403 0 2.60069e+06 -337026 0 2.59525e+06 -342960 0 2.5897e+06 -349178 0 2.58405e+06 -355666 0 2.57832e+06 -362423 0 2.57252e+06 -369458 0 2.56667e+06 -376794 0 2.56077e+06 -384468 0 2.55486e+06 -392528 0 2.54896e+06 -401040 0 2.84173e+06 -451542 0 2.83291e+06 -461800 0 2.82525e+06 -471444 0 2.81856e+06 -480668 0 2.81265e+06 -489638 0 2.80737e+06 -498491 0 2.80254e+06 -507335 0 2.798e+06 -516257 0 2.79361e+06 -525319 0 2.78919e+06 -534564 0 2.78458e+06 -544012 0 2.77961e+06 -553662 0 2.7741e+06 -563491 0 2.76786e+06 -573455 0 2.76066e+06 -583481 0 2.75228e+06 -593472 0 2.43505e+06 -7.45058e-09 0 2.52014e+06 -3.07409e-10 0 2.60002e+06 1.30967e-10 0 2.67577e+06 -1.60071e-10 0 2.74835e+06 1.92085e-09 0 2.8187e+06 -3.43425e-09 0 2.88768e+06 2.21189e-09 0 2.95611e+06 -3.14321e-09 0 3.02483e+06 3.49246e-09 0 3.09465e+06 -3.0268e-09 0 3.16639e+06 2.09548e-09 0 3.24093e+06 -1.62981e-09 0 3.31915e+06 9.31323e-10 0 3.40202e+06 2.32831e-10 0 3.4906e+06 4.65661e-10 0 3.58602e+06 -7.45058e-09 0 </DataArray> 
</PointData> 
<Points> 
<DataArray type="Float32" NumberOfComponents="3"> 
0.31051 0.0175 0 0.310576 0.0176667 0 0.310642 0.0178333 0 0.310708 0.018 0 0.310774 0.0181667 0 0.31084 0.0183333 0 0.310906 0.0185 0 0.310972 0.0186667 0 0.311038 0.0188333 0 0.311104 0.019 0 0.31117 0.0191667 0 0.311236 0.0193333 0 0.311302 0.0195 0 0.311368 0.0196667 0 0.311434 0.0198333 0 0.3115 0.02 0 0.316009 0.0178 0 0.316071 0.0179689 0 0.316132 0.0181378 0 0.316194 0.0183067 0 0.316256 0.0184756 0 0.316317 0.0186444 0 0.316379 0.0188133 0 0.31644 0.0189822 0 0.316502 0.0191511 0 0.316564 0.01932 0 0.316625 0.0194889 0 0.316687 0.0196578 0 0.316749 0.0198267 0 0.31681 0.0199956 0 0.316872 0.0201644 0 0.316933 0.0203333 0 0.321509 0.0181 0 0.321566 0.0182711 0 0.321623 0.0184422 0 0.32168 0.0186133 0 0.321737 0.0187844 0 0.321795 0.0189556 0 0.321852 0.0191267 0 0.321909 0.0192978 0 0.321966 0.0194689 0 0.322023 0.01964 0 0.322081 0.0198111 0 0.322138 0.0199822 0 0.322195 0.0201533 0 0.322252 0.0203244 0 0.322309 0.0204956 0 0.322367 0.0206667 0 0.327008 0.0184 0 0.327061 0.0185733 0 0.327114 0.0187467 0 0.327166 0.01892 0 0.327219 0.0190933 0 0.327272 0.0192667 0 0.327325 0.01944 0 0.327378 0.0196133 0 0.32743 0.0197867 0 0.327483 0.01996 0 0.327536 0.0201333 0 0.327589 0.0203067 0 0.327642 0.02048 0 0.327694 0.0206533 0 0.327747 0.0208267 0 0.3278 0.021 0 0.332507 0.0187 0 0.332556 0.0188756 0 0.332604 0.0190511 0 0.332652 0.0192267 0 0.332701 0.0194022 0 0.332749 0.0195778 0 0.332798 0.0197533 0 0.332846 0.0199289 0 0.332894 0.0201044 0 0.332943 0.02028 0 0.332991 0.0204556 0 0.33304 0.0206311 0 0.333088 0.0208067 0 0.333137 0.0209822 0 0.333185 0.0211578 0 0.333233 0.0213333 0 0.338007 0.019 0 0.338051 0.0191778 0 0.338095 0.0193556 0 0.338139 0.0195333 0 0.338183 0.0197111 0 0.338227 0.0198889 0 0.338271 0.0200667 0 0.338315 0.0202444 0 0.338359 0.0204222 0 0.338403 0.0206 0 0.338447 0.0207778 0 0.338491 0.0209556 0 0.338535 0.0211333 0 0.338579 0.0213111 0 0.338623 0.0214889 0 0.338667 0.0216667 0 0.343506 0.0193 0 0.343546 0.01948 0 0.343585 0.01966 0 0.343625 0.01984 0 0.343664 0.02002 0 0.343704 0.0202 0 0.343744 0.02038 0 0.343783 0.02056 0 0.343823 0.02074 0 0.343862 0.02092 0 0.343902 0.0211 0 0.343942 0.02128 0 0.343981 0.02146 0 0.344021 0.02164 0 0.34406 0.02182 0 0.3441 0.022 0 0.349005 0.0196 0 0.34904 0.0197822 0 0.349076 0.0199644 0 0.349111 0.0201467 0 0.349146 0.0203289 0 0.349181 0.0205111 0 0.349217 0.0206933 0 0.349252 0.0208756 0 0.349287 0.0210578 0 0.349322 0.02124 0 0.349357 0.0214222 0 0.349393 0.0216044 0 0.349428 0.0217867 0 0.349463 0.0219689 0 0.349498 0.0221511 0 0.349533 0.0223333 0 0.354505 0.0199 0 0.354535 0.0200844 0 0.354566 0.0202689 0 0.354597 0.0204533 0 0.354628 0.0206378 0 0.354659 0.0208222 0 0.354689 0.0210067 0 0.35472 0.0211911 0 0.354751 0.0213756 0 0.354782 0.02156 0 0.354813 0.0217444 0 0.354843 0.0219289 0 0.354874 0.0221133 0 0.354905 0.0222978 0 0.354936 0.0224822 0 0.354967 0.0226667 0 0.360004 0.0202 0 0.36003 0.0203867 0 0.360057 0.0205733 0 0.360083 0.02076 0 0.36011 0.0209467 0 0.360136 0.0211333 0 0.360162 0.02132 0 0.360189 0.0215067 0 0.360215 0.0216933 0 0.360242 0.02188 0 0.360268 0.0220667 0 0.360294 0.0222533 0 0.360321 0.02244 0 0.360347 0.0226267 0 0.360374 0.0228133 0 0.3604 0.023 0 0.365503 0.0205 0 0.365525 0.0206889 0 0.365547 0.0208778 0 0.365569 0.0210667 0 0.365591 0.0212556 0 0.365613 0.0214444 0 0.365635 0.0216333 0 0.365657 0.0218222 0 0.365679 0.0220111 0 0.365701 0.0222 0 0.365723 0.0223889 0 0.365745 0.0225778 0 0.365767 0.0227667 0 0.365789 0.0229556 0 0.365811 0.0231444 0 0.365833 0.0233333 0 0.371003 0.0208 0 0.37102 0.0209911 0 0.371038 0.0211822 0 0.371055 0.0213733 0 0.371073 0.0215644 0 0.371091 0.0217556 0 0.371108 0.0219467 0 0.371126 0.0221378 0 0.371143 0.0223289 0 0.371161 0.02252 0 0.371179 0.0227111 0 0.371196 0.0229022 0 0.371214 0.0230933 0 0.371231 0.0232844 0 0.371249 0.0234756 0 0.371267 0.0236667 0 0.376502 0.0211 0 0.376515 0.0212933 0 0.376528 0.0214867 0 0.376542 0.02168 0 0.376555 0.0218733 0 0.376568 0.0220667 0 0.376581 0.02226 0 0.376594 0.0224533 0 0.376608 0.0226467 0 0.376621 0.02284 0 0.376634 0.0230333 0 0.376647 0.0232267 0 0.37666 0.02342 0 0.376674 0.0236133 0 0.376687 0.0238067 0 0.3767 0.024 0 0.382001 0.0214 0 0.38201 0.0215956 0 0.382019 0.0217911 0 0.382028 0.0219867 0 0.382037 0.0221822 0 0.382045 0.0223778 0 0.382054 0.0225733 0 0.382063 0.0227689 0 0.382072 0.0229644 0 0.382081 0.02316 0 0.382089 0.0233556 0 0.382098 0.0235511 0 0.382107 0.0237467 0 0.382116 0.0239422 0 0.382125 0.0241378 0 0.382133 0.0243333 0 0.387501 0.0217 0 0.387505 0.0218978 0 0.387509 0.0220956 0 0.387514 0.0222933 0 0.387518 0.0224911 0 0.387523 0.0226889 0 0.387527 0.0228867 0 0.387531 0.0230844 0 0.387536 0.0232822 0 0.38754 0.02348 0 0.387545 0.0236778 0 0.387549 0.0238756 0 0.387553 0.0240733 0 0.387558 0.0242711 0 0.387562 0.0244689 0 0.387567 0.0246667 0 0.393 0.022 0 0.393 0.0222 0 0.393 0.0224 0 0.393 0.0226 0 0.393 0.0228 0 0.393 0.023 0 0.393 0.0232 0 0.393 0.0234 0 0.393 0.0236 0 0.393 0.0238 0 0.393 0.024 0 0.393 0.0242 0 0.393 0.0244 0 0.393 0.0246 0 0.393 0.0248 0 0.393 0.025 0 
</DataArray>
</Points> 
</Piece> 
</StructuredGrid> 
</VTKFile> 
