<?xml version="1.0"?> 
<VTKFile type="StructuredGrid" version="0.1"> 
<StructuredGrid WholeExtent="0 15 0 15 0 0"> 
<Piece Extent="0 15 0 15 0 0"> 
<PointData>
<DataArray type="Float32" Name="E" format="ascii" NumberOfComponents="3"> 
3.68285e+06 -1.52549e+06 0 4.03012e+06 -1.38683e+06 0 4.32875e+06 -1.19499e+06 0 4.58787e+06 -961521 0 4.81095e+06 -693927 0 4.99882e+06 -398036 0 5.15127e+06 -79008.7 0 5.26783e+06 258249 0 5.34814e+06 608941 0 5.39219e+06 968369 0 5.4004e+06 1.33196e+06 0 5.37362e+06 1.69533e+06 0 5.31319e+06 2.05435e+06 0 5.22082e+06 2.40517e+06 0 5.09857e+06 2.74432e+06 0 4.94883e+06 3.06868e+06 0 3.52657e+06 -455404 0 3.64865e+06 -324995 0 3.76266e+06 -169231 0 3.86127e+06 10637.6 0 3.93929e+06 211017 0 3.99331e+06 427186 0 4.0215e+06 653968 0 4.0234e+06 886159 0 3.99977e+06 1.11885e+06 0 3.95233e+06 1.34765e+06 0 3.88354e+06 1.56886e+06 0 3.79634e+06 1.77959e+06 0 3.69393e+06 1.9777e+06 0 3.57956e+06 2.16184e+06 0 3.45633e+06 2.33131e+06 0 3.32711e+06 2.48599e+06 0 3.19794e+06 -49831.1 0 3.25945e+06 67529.9 0 3.30951e+06 202196 0 3.34469e+06 351658 0 3.36228e+06 512746 0 3.36056e+06 681690 0 3.33897e+06 854412 0 3.29809e+06 1.02689e+06 0 3.23947e+06 1.19549e+06 0 3.16543e+06 1.35719e+06 0 3.07874e+06 1.5097e+06 0 2.98237e+06 1.65155e+06 0 2.87926e+06 1.78193e+06 0 2.77212e+06 1.9007e+06 0 2.66333e+06 2.00818e+06 0 2.55488e+06 2.10502e+06 0 2.92933e+06 127385 0 2.95645e+06 232153 0 2.9719e+06 348453 0 2.9735e+06 474692 0 2.95965e+06 608325 0 2.92964e+06 746248 0 2.88369e+06 885162 0 2.82296e+06 1.02192e+06 0 2.74932e+06 1.1538e+06 0 2.66516e+06 1.27868e+06 0 2.5731e+06 1.39512e+06 0 2.47577e+06 1.50233e+06 0 2.37563e+06 1.60009e+06 0 2.27483e+06 1.68864e+06 0 2.17515e+06 1.76854e+06 0 2.07804e+06 1.84055e+06 0 2.7208e+06 202839 0 2.72476e+06 293284 0 2.71734e+06 393650 0 2.69701e+06 502010 0 2.66289e+06 615958 0 2.61489e+06 732766 0 2.55375e+06 849640 0 2.4809e+06 963990 0 2.39833e+06 1.07365e+06 0 2.30833e+06 1.17701e+06 0 2.2133e+06 1.27303e+06 0 2.1155e+06 1.36126e+06 0 2.01697e+06 1.44169e+06 0 1.91943e+06 1.51464e+06 0 1.82423e+06 1.58071e+06 0 1.7324e+06 1.64059e+06 0 2.55971e+06 218107 0 2.54556e+06 297087 0 2.52017e+06 384739 0 2.48267e+06 479519 0 2.43277e+06 579291 0 2.37086e+06 681608 0 2.29799e+06 783982 0 2.2158e+06 884126 0 2.12626e+06 980149 0 2.03152e+06 1.07067e+06 0 1.93372e+06 1.15482e+06 0 1.8348e+06 1.23225e+06 0 1.73644e+06 1.30298e+06 0 1.64002e+06 1.36734e+06 0 1.5466e+06 1.42583e+06 0 1.45697e+06 1.47908e+06 0 2.43535e+06 197048 0 2.40468e+06 265277 0 2.36296e+06 342466 0 2.30987e+06 427003 0 2.24572e+06 516860 0 2.17132e+06 609685 0 2.08803e+06 703051 0 1.99757e+06 794724 0 1.90184e+06 882853 0 1.80278e+06 966083 0 1.70223e+06 1.04357e+06 0 1.6018e+06 1.11496e+06 0 1.50284e+06 1.18024e+06 0 1.4064e+06 1.23971e+06 0 1.31328e+06 1.29385e+06 0 1.22402e+06 1.34323e+06 0 2.33996e+06 148557 0 2.29239e+06 207561 0 2.23385e+06 276291 0 2.16486e+06 353637 0 2.0864e+06 437478 0 1.99982e+06 525228 0 1.90668e+06 614213 0 1.80868e+06 701963 0 1.7075e+06 786467 0 1.60473e+06 866267 0 1.50182e+06 940473 0 1.40001e+06 1.00869e+06 0 1.30028e+06 1.07092e+06 0 1.20339e+06 1.12746e+06 0 1.1099e+06 1.17877e+06 0 1.02018e+06 1.22541e+06 0 2.26858e+06 79039.3 0 2.20193e+06 127786 0 2.12415e+06 190093 0 2.0374e+06 263729 0 1.94379e+06 345877 0 1.84507e+06 433150 0 1.74283e+06 522137 0 1.63839e+06 609883 0 1.53296e+06 694077 0 1.42758e+06 773151 0 1.3232e+06 846198 0 1.2206e+06 912873 0 1.12042e+06 973240 0 1.02312e+06 1.02765e+06 0 929039 1.07662e+06 0 838385 1.12077e+06 0 2.22073e+06 -15845.2 0 2.12813e+06 25312.6 0 2.0261e+06 84403.4 0 1.91869e+06 159370 0 1.80896e+06 245447 0 1.6988e+06 337447 0 1.58905e+06 430782 0 1.48015e+06 521839 0 1.37237e+06 608140 0 1.26601e+06 688145 0 1.16142e+06 761118 0 1.05892e+06 826883 0 958815 885675 0 861354 937974 0 766691 984402 0 674923 1.02563e+06 0 2.19156e+06 -134559 0 2.06512e+06 -103962 0 1.9313e+06 -42156.4 0 1.79968e+06 42278 0 1.67417e+06 139905 0 1.55493e+06 242508 0 1.44081e+06 344097 0 1.33043e+06 440881 0 1.22283e+06 530589 0 1.11744e+06 612137 0 1.01402e+06 685173 0 912565 749878 0 813128 806730 0 715798 856396 0 620638 899614 0 527675 937131 0 2.19321e+06 -295894 0 2.0059e+06 -269827 0 1.82777e+06 -192065 0 1.67039e+06 -84187.3 0 1.53279e+06 34811.4 0 1.40979e+06 153536 0 1.29611e+06 266080 0 1.1881e+06 369494 0 1.08344e+06 462668 0 980929 545329 0 879957 617816 0 780332 680730 0 682019 734864 0 585063 781057 0 489503 820156 0 395361 852946 0 2.21082e+06 -533636 0 1.93016e+06 -490099 0 1.69683e+06 -364024 0 1.52018e+06 -211829 0 1.38083e+06 -61799.2 0 1.26261e+06 76371.8 0 1.15543e+06 200045 0 1.0537e+06 309278 0 954495 404666 0 856372 487251 0 758759 558033 0 661478 618123 0 564576 668551 0 468149 710316 0 372300 744309 0 277098 771313 0 2.29096e+06 -897983 0 1.79262e+06 -781880 0 1.51274e+06 -544360 0 1.34193e+06 -325074 0 1.21916e+06 -139943 0 1.11593e+06 15829.7 0 1.02104e+06 148062 0 928752 260445 0 836697 356034 0 743896 436802 0 650082 504553 0 555373 560665 0 459985 606403 0 364184 642807 0 268190 670774 0 172187 691009 0 2.24811e+06 -1.85773e+06 0 1.47071e+06 -1.12496e+06 0 1.25384e+06 -687750 0 1.14211e+06 -402525 0 1.05397e+06 -191785 0 975080 -25356.8 0 895931 109958 0 814874 222209 0 730690 315366 0 643442 392635 0 553486 455962 0 461297 507075 0 367413 547233 0 272301 577501 0 176384 598677 0 80016.8 611345 0 -8675.91 -2.44551e+06 0 900415 -1.23618e+06 0 963184 -734686 0 934160 -430460 0 899044 -214426 0 844237 -48599.5 0 783295 84394.9 0 713050 192517 0 636725 281136 0 554715 353164 0 468325 411001 0 378450 456221 0 285965 490144 0 191624 513699 0 96101.8 527568 0 -0.388327 532146 0 </DataArray> 
</PointData> 
<Points> 
<DataArray type="Float32" NumberOfComponents="3"> 
0.3188 0.0378 0 0.31915 0.0387237 0 0.319446 0.0396795 0 0.319684 0.0406627 0 0.319862 0.0416681 0 0.319976 0.0426901 0 0.320025 0.0437226 0 0.320008 0.0447593 0 0.319924 0.0457937 0 0.319773 0.0468196 0 0.319558 0.0478306 0 0.31928 0.0488206 0 0.318942 0.0497841 0 0.318548 0.0507158 0 0.318101 0.0516112 0 0.317607 0.0524662 0 0.32408 0.03728 0 0.324475 0.0385758 0 0.32481 0.0399108 0 0.325083 0.0412788 0 0.32529 0.0426729 0 0.325427 0.0440857 0 0.325494 0.0455093 0 0.325488 0.0469356 0 0.32541 0.0483565 0 0.325259 0.0497637 0 0.325038 0.0511491 0 0.324748 0.0525053 0 0.324392 0.0538248 0 0.323974 0.0551012 0 0.323497 0.0563286 0 0.322966 0.0575018 0 0.32936 0.03676 0 0.32979 0.0384282 0 0.330156 0.0401413 0 0.330456 0.0418919 0 0.330685 0.0436717 0 0.330841 0.0454717 0 0.330921 0.0472828 0 0.330926 0.0490953 0 0.330854 0.0508995 0 0.330705 0.0526859 0 0.330481 0.054445 0 0.330183 0.0561679 0 0.329816 0.0578459 0 0.329381 0.0594714 0 0.328883 0.0610373 0 0.328326 0.0625374 0 0.33464 0.03624 0 0.335095 0.0382808 0 0.335483 0.040371 0 0.335802 0.0425021 0 0.336048 0.0446645 0 0.336217 0.0468483 0 0.336309 0.0490432 0 0.336322 0.0512384 0 0.336256 0.0534231 0 0.33611 0.0555867 0 0.335886 0.0577186 0 0.335586 0.0598087 0 0.335213 0.0618476 0 0.334769 0.0638264 0 0.334258 0.0657373 0 0.333685 0.067573 0 0.33992 0.03572 0 0.34039 0.0381337 0 0.340792 0.0406 0 0.341123 0.0431093 0 0.341379 0.0456514 0 0.341558 0.0482156 0 0.341658 0.0507907 0 0.341677 0.0533652 0 0.341617 0.0559275 0 0.341476 0.0584661 0 0.341255 0.0609699 0 0.340957 0.0634279 0 0.340584 0.0658299 0 0.340138 0.0681664 0 0.339624 0.0704286 0 0.339045 0.0726086 0 0.3452 0.0352 0 0.345676 0.0379869 0 0.346083 0.0408281 0 0.346418 0.0437135 0 0.346679 0.0466325 0 0.346862 0.0495737 0 0.346967 0.0525255 0 0.346992 0.0554758 0 0.346937 0.0584128 0 0.346802 0.0613246 0 0.346588 0.0641993 0 0.346296 0.0670257 0 0.345929 0.0697931 0 0.345489 0.0724914 0 0.34498 0.0751112 0 0.344405 0.0776442 0 0.35048 0.03468 0 0.350952 0.0378403 0 0.351355 0.0410554 0 0.351688 0.0443149 0 0.351947 0.0476078 0 0.352131 0.0509226 0 0.352237 0.0542476 0 0.352266 0.0575705 0 0.352217 0.0608794 0 0.35209 0.0641622 0 0.351885 0.0674069 0 0.351604 0.0706023 0 0.351249 0.0737373 0 0.350822 0.0768014 0 0.350326 0.0797852 0 0.349764 0.0826797 0 0.35576 0.03416 0 0.356218 0.037694 0 0.356609 0.041282 0 0.356932 0.0449134 0 0.357184 0.0485774 0 0.357364 0.0522625 0 0.35747 0.0559572 0 0.357501 0.0596494 0 0.357457 0.0633274 0 0.357339 0.0669792 0 0.357146 0.0705931 0 0.35688 0.0741578 0 0.356543 0.0776625 0 0.356136 0.0810966 0 0.355662 0.0844506 0 0.355124 0.0877153 0 0.36104 0.03364 0 0.361474 0.037548 0 0.361845 0.0415077 0 0.362152 0.045509 0 0.362391 0.0495413 0 0.362562 0.0535935 0 0.362664 0.0576544 0 0.362696 0.0617127 0 0.362658 0.065757 0 0.36255 0.0697758 0 0.362372 0.073758 0 0.362126 0.0776925 0 0.361812 0.081569 0 0.361432 0.0853771 0 0.360988 0.0891074 0 0.360483 0.0927509 0 0.36632 0.03312 0 0.366721 0.0374022 0 0.367063 0.0417327 0 0.367346 0.0461018 0 0.367567 0.0504995 0 0.367726 0.0549155 0 0.367821 0.0593394 0 0.367853 0.0637606 0 0.36782 0.0681684 0 0.367724 0.0725523 0 0.367564 0.0769017 0 0.367341 0.0812066 0 0.367056 0.0854568 0 0.36671 0.0896429 0 0.366305 0.0937557 0 0.365843 0.0977865 0 0.3716 0.0326 0 0.371958 0.0372568 0 0.372264 0.041957 0 0.372516 0.0466918 0 0.372713 0.0514522 0 0.372855 0.0562288 0 0.372941 0.0610124 0 0.372971 0.0657932 0 0.372944 0.0705619 0 0.37286 0.0753088 0 0.372721 0.0800247 0 0.372525 0.0847001 0 0.372274 0.0893261 0 0.37197 0.093894 0 0.371612 0.0983954 0 0.371202 0.102822 0 0.37688 0.03208 0 0.377186 0.0371115 0 0.377446 0.0421804 0 0.377661 0.0472789 0 0.377829 0.0523993 0 0.377951 0.0575334 0 0.378025 0.0626733 0 0.378051 0.0678108 0 0.37803 0.0729376 0 0.37796 0.0780457 0 0.377843 0.0831269 0 0.377679 0.0881733 0 0.377468 0.0931771 0 0.377211 0.0981307 0 0.376909 0.103027 0 0.376562 0.107858 0 0.38216 0.03156 0 0.382403 0.0369666 0 0.382611 0.0424031 0 0.382782 0.0478633 0 0.382916 0.0533409 0 0.383013 0.0588294 0 0.383072 0.0643224 0 0.383094 0.0698134 0 0.383078 0.0752957 0 0.383024 0.080763 0 0.382932 0.0862087 0 0.382804 0.0916264 0 0.382638 0.0970099 0 0.382435 0.102353 0 0.382196 0.107649 0 0.381921 0.112893 0 0.38744 0.03104 0 0.387612 0.0368219 0 0.387758 0.0426251 0 0.387879 0.048445 0 0.387973 0.0542771 0 0.388041 0.0601169 0 0.388083 0.0659598 0 0.388099 0.0718012 0 0.388088 0.0776365 0 0.388051 0.083461 0 0.387988 0.0892702 0 0.387898 0.0950596 0 0.387783 0.100825 0 0.387641 0.106561 0 0.387474 0.112264 0 0.387281 0.117929 0 0.39272 0.03052 0 0.392811 0.0366775 0 0.392888 0.0428462 0 0.392951 0.0490238 0 0.393001 0.0552079 0 0.393037 0.061396 0 0.393059 0.0675857 0 0.393068 0.0737745 0 0.393062 0.0799601 0 0.393043 0.08614 0 0.39301 0.0923117 0 0.392964 0.0984729 0 0.392903 0.104621 0 0.392829 0.110754 0 0.392742 0.116869 0 0.39264 0.122964 0 0.398 0.03 0 0.398 0.0365333 0 0.398 0.0430667 0 0.398 0.0496 0 0.398 0.0561333 0 0.398 0.0626667 0 0.398 0.0692 0 0.398 0.0757333 0 0.398 0.0822667 0 0.398 0.0888 0 0.398 0.0953333 0 0.398 0.101867 0 0.398 0.1084 0 0.398 0.114933 0 0.398 0.121467 0 0.398 0.128 0 
</DataArray>
</Points> 
</Piece> 
</StructuredGrid> 
</VTKFile> 
