<?xml version="1.0"?> 
<VTKFile type="StructuredGrid" version="0.1"> 
<StructuredGrid WholeExtent="0 15 0 15 0 0"> 
<Piece Extent="0 15 0 15 0 0"> 
<PointData>
<DataArray type="Float32" Name="E" format="ascii" NumberOfComponents="3"> 
193505 -14.5705 0 189359 38182.4 0 177118 74488.3 0 157397 107094 0 131283 134292 0 100365 154659 0 66693.2 167278 0 32619.2 171975 0 372.57 169464 0 -28129.6 161246 0 -52092 149364 0 -70767.2 135917 0 -85752.6 122893 0 -95814 112086 0 -106214 104989 0 -138688 115805 0 175267 -12.9643 0 171565 34277.2 0 160647 66873.2 0 143087 96173.8 0 119871 120700 0 92402.5 139255 0 62443.6 151092 0 31945.9 156090 0 2795.39 154832 0 -23522.7 148547 0 -46077.1 138872 0 -64716.4 127595 0 -79669.6 116378 0 -92109.5 106707 0 -103440 99913.3 0 -118142 93350.9 0 158887 -11.5934 0 155583 30792.3 0 145846 60085.3 0 130199 86453.6 0 109530 108614 0 85068.7 125547 0 58323.6 136637 0 30937.2 141786 0 4472.45 141472 0 -19818.5 136691 0 -41168.8 128788 0 -59361.6 119241 0 -74690.7 109468 0 -87939.6 100677 0 -100474 93523.3 0 -113489 86269.3 0 144168 -10.3503 0 141219 27682.4 0 132530 54032.3 0 118576 77792 0 100145 97843.6 0 78309.5 113315 0 54362.4 123682 0 29688.8 128861 0 5595.39 129238 0 -16869.1 125620 0 -37052.8 119112 0 -54754.3 110940 0 -70210.2 102301 0 -84032 94187 0 -97132.5 87040 0 -109881 80465 0 130931 -9.19749 0 128298 24906.2 0 120539 48630.5 0 108081 70063.4 0 91616.3 88228.1 0 72080.8 102370 0 50580.9 112038 0 28288.4 117149 0 6300.82 118011 0 -14502.1 115277 0 -33567.8 109849 0 -50720.1 102751 0 -66143 94992 0 -80307.4 87415.8 0 -93795.1 80484 0 -106796 74165.2 0 119018 -8.16878 0 116665 22426.1 0 109731 43805 0 98592.2 63157.3 0 83860.2 79626.3 0 66345 92553.5 0 46995.6 101543 0 26806.1 106509 0 6701.29 107690 0 -12579.1 105609 0 -30570.8 101004 0 -47125.3 94723.5 0 -62395.3 87627.5 0 -76742 80469.8 0 -90552.9 73761.5 0 -103949 67769 0 108289 -7.24453 0 106183 20208.6 0 99979.1 39489.3 0 90007.7 56976.9 0 76803.5 71917 0 61069.1 83730.1 0 43618.6 92062.9 0 25297.7 96823.8 0 6888.39 98189.2 0 -10987.1 96575 0 -27940.9 92576.8 0 -43858.1 86897.1 0 -58878.2 80271.8 0 -73304.7 73401.7 0 -87405.3 66871.9 0 -101196 61059.6 0 98617.9 -6.42732 0 96732.5 18223.6 0 91174.6 35624.8 0 82235.8 51437.7 0 70382.4 64995.3 0 56223.1 75783.9 0 40457.4 83483.3 0 23807.2 87993.8 0 6935.69 89438.9 0 -9632.55 88140.1 0 -25577.4 84571.4 0 -40819.3 79306 0 -55509.7 72974.4 0 -69939.5 66243.8 0 -84329.7 59790.6 0 -98575.6 54165.7 0 89895.2 -5.70404 0 88204.8 16444.9 0 83220.1 32160 0 75196.3 46466.1 0 64540.3 58771.1 0 51779.3 68615.9 0 37515.9 75707 0 22368.3 79935.8 0 6901.69 81378.6 0 -8440.43 80275.2 0 -23395.8 76991.6 0 -37922.6 71982.3 0 -52204.7 65776.9 0 -66574.8 59014 0 -81280.6 52493.6 0 -96083.3 47000.9 0 82022.3 -5.07026 0 80505.1 14849.2 0 76029.3 29049.8 0 68818.2 41998 0 59226.4 53166.2 0 47711.5 62141.4 0 34794 68651.3 0 21005.9 72578.6 0 6831.75 73958.3 0 -7350.99 72957.7 0 -21327.4 69844.8 0 -35091.8 64960.1 0 -48875.9 58723.3 0 -63113.2 51725.9 0 -78187.6 44920.9 0 -93766.2 39519.5 0 74912.1 -4.50903 0 73548.9 13416 0 69525.8 26254.7 0 63038.1 37977.9 0 54395.1 48113.3 0 43994.7 56287.4 0 32288.6 62245.5 0 19737.2 65862.1 0 6759.58 67135.7 0 -6318.55 66170.1 0 -19318.8 63142.6 0 -32261.7 58280 0 -45435.1 51869.1 0 -59422.6 44400.4 0 -74932.2 36982.1 0 -91688.7 31493 0 68487.2 -4.0268 0 67261.2 12127.7 0 63641.6 23740.3 0 57799.2 34357 0 50004.5 43553.8 0 40604.7 50990.8 0 29993.5 56428.5 0 18572.5 59734.1 0 6708.77 60875.1 0 -5311.06 59898.9 0 -17331 56900.7 0 -29383.4 51990.9 0 -41795 45293.4 0 -55335 37093.1 0 -71286.8 28529.3 0 -89878.5 22685.5 0 62678.4 -3.58145 0 61574.9 10968.4 0 58315.6 21476.4 0 53050.5 31093.3 0 46016.4 39436.9 0 37517.8 46197 0 27899.8 51147.2 0 17516.5 54149.7 0 6693.65 55144.8 0 -4308.58 54134.1 0 -15341.8 51135.7 0 -26428.3 46152.2 0 -37887 39108.9 0 -50641.2 29937.2 0 -66823.3 19412.6 0 -88456.1 12233.8 0 57424.1 -3.22514 0 56430.3 9924.48 0 53493.5 19436.6 0 48745.8 28149.6 0 42395.7 35718.1 0 34711 41858 0 25997 46355.3 0 16568.2 49068 0 6721.28 49917.8 0 -3304.35 48863.6 0 -13342.9 45867.9 0 -23401.8 40823.8 0 -33672.9 33466.8 0 -45156.6 23235.4 0 -60694.3 9514.22 0 -87581.2 -1100.36 0 52669.3 -2.89391 0 51773.6 8983.89 0 49126.1 17597.8 0 44843.5 25493.3 0 39109.5 32358.5 0 32161.6 37931.2 0 24272.7 42011.7 0 15722.1 44452.3 0 6793.67 45168.4 0 -2304.84 44074.4 0 -11337.1 41112 0 -20348.1 36060.7 0 -29183.2 28536.9 0 -38840.4 17493.2 0 -51407.7 -412.699 0 -87451.4 -23895.8 0 48364.4 -2.24074 0 47556.8 8136.1 0 45170.3 15939.1 0 41305.2 23096.8 0 36127.7 29321.8 0 29851.2 34382.7 0 22703.5 38072.5 0 14996.9 40281.5 0 6842.22 40848.6 0 -1179.38 39787 0 -9646.27 36819 0 -16727.6 31960.7 0 -25713.5 24448.3 0 -29946.2 12966.1 0 -39934.9 -4701.24 0 -98461.4 -91080.5 0 </DataArray> 
</PointData> 
<Points> 
<DataArray type="Float32" NumberOfComponents="3"> 
0.406 0 0 0.406 0.00133333 0 0.406 0.00266667 0 0.406 0.004 0 0.406 0.00533333 0 0.406 0.00666667 0 0.406 0.008 0 0.406 0.00933333 0 0.406 0.0106667 0 0.406 0.012 0 0.406 0.0133333 0 0.406 0.0146667 0 0.406 0.016 0 0.406 0.0173333 0 0.406 0.0186667 0 0.406 0.02 0 0.406667 0 0 0.406667 0.00133333 0 0.406667 0.00266667 0 0.406667 0.004 0 0.406667 0.00533333 0 0.406667 0.00666667 0 0.406667 0.008 0 0.406667 0.00933333 0 0.406667 0.0106667 0 0.406667 0.012 0 0.406667 0.0133333 0 0.406667 0.0146667 0 0.406667 0.016 0 0.406667 0.0173333 0 0.406667 0.0186667 0 0.406667 0.02 0 0.407333 0 0 0.407333 0.00133333 0 0.407333 0.00266667 0 0.407333 0.004 0 0.407333 0.00533333 0 0.407333 0.00666667 0 0.407333 0.008 0 0.407333 0.00933333 0 0.407333 0.0106667 0 0.407333 0.012 0 0.407333 0.0133333 0 0.407333 0.0146667 0 0.407333 0.016 0 0.407333 0.0173333 0 0.407333 0.0186667 0 0.407333 0.02 0 0.408 0 0 0.408 0.00133333 0 0.408 0.00266667 0 0.408 0.004 0 0.408 0.00533333 0 0.408 0.00666667 0 0.408 0.008 0 0.408 0.00933333 0 0.408 0.0106667 0 0.408 0.012 0 0.408 0.0133333 0 0.408 0.0146667 0 0.408 0.016 0 0.408 0.0173333 0 0.408 0.0186667 0 0.408 0.02 0 0.408667 0 0 0.408667 0.00133333 0 0.408667 0.00266667 0 0.408667 0.004 0 0.408667 0.00533333 0 0.408667 0.00666667 0 0.408667 0.008 0 0.408667 0.00933333 0 0.408667 0.0106667 0 0.408667 0.012 0 0.408667 0.0133333 0 0.408667 0.0146667 0 0.408667 0.016 0 0.408667 0.0173333 0 0.408667 0.0186667 0 0.408667 0.02 0 0.409333 0 0 0.409333 0.00133333 0 0.409333 0.00266667 0 0.409333 0.004 0 0.409333 0.00533333 0 0.409333 0.00666667 0 0.409333 0.008 0 0.409333 0.00933333 0 0.409333 0.0106667 0 0.409333 0.012 0 0.409333 0.0133333 0 0.409333 0.0146667 0 0.409333 0.016 0 0.409333 0.0173333 0 0.409333 0.0186667 0 0.409333 0.02 0 0.41 0 0 0.41 0.00133333 0 0.41 0.00266667 0 0.41 0.004 0 0.41 0.00533333 0 0.41 0.00666667 0 0.41 0.008 0 0.41 0.00933333 0 0.41 0.0106667 0 0.41 0.012 0 0.41 0.0133333 0 0.41 0.0146667 0 0.41 0.016 0 0.41 0.0173333 0 0.41 0.0186667 0 0.41 0.02 0 0.410667 0 0 0.410667 0.00133333 0 0.410667 0.00266667 0 0.410667 0.004 0 0.410667 0.00533333 0 0.410667 0.00666667 0 0.410667 0.008 0 0.410667 0.00933333 0 0.410667 0.0106667 0 0.410667 0.012 0 0.410667 0.0133333 0 0.410667 0.0146667 0 0.410667 0.016 0 0.410667 0.0173333 0 0.410667 0.0186667 0 0.410667 0.02 0 0.411333 0 0 0.411333 0.00133333 0 0.411333 0.00266667 0 0.411333 0.004 0 0.411333 0.00533333 0 0.411333 0.00666667 0 0.411333 0.008 0 0.411333 0.00933333 0 0.411333 0.0106667 0 0.411333 0.012 0 0.411333 0.0133333 0 0.411333 0.0146667 0 0.411333 0.016 0 0.411333 0.0173333 0 0.411333 0.0186667 0 0.411333 0.02 0 0.412 0 0 0.412 0.00133333 0 0.412 0.00266667 0 0.412 0.004 0 0.412 0.00533333 0 0.412 0.00666667 0 0.412 0.008 0 0.412 0.00933333 0 0.412 0.0106667 0 0.412 0.012 0 0.412 0.0133333 0 0.412 0.0146667 0 0.412 0.016 0 0.412 0.0173333 0 0.412 0.0186667 0 0.412 0.02 0 0.412667 0 0 0.412667 0.00133333 0 0.412667 0.00266667 0 0.412667 0.004 0 0.412667 0.00533333 0 0.412667 0.00666667 0 0.412667 0.008 0 0.412667 0.00933333 0 0.412667 0.0106667 0 0.412667 0.012 0 0.412667 0.0133333 0 0.412667 0.0146667 0 0.412667 0.016 0 0.412667 0.0173333 0 0.412667 0.0186667 0 0.412667 0.02 0 0.413333 0 0 0.413333 0.00133333 0 0.413333 0.00266667 0 0.413333 0.004 0 0.413333 0.00533333 0 0.413333 0.00666667 0 0.413333 0.008 0 0.413333 0.00933333 0 0.413333 0.0106667 0 0.413333 0.012 0 0.413333 0.0133333 0 0.413333 0.0146667 0 0.413333 0.016 0 0.413333 0.0173333 0 0.413333 0.0186667 0 0.413333 0.02 0 0.414 0 0 0.414 0.00133333 0 0.414 0.00266667 0 0.414 0.004 0 0.414 0.00533333 0 0.414 0.00666667 0 0.414 0.008 0 0.414 0.00933333 0 0.414 0.0106667 0 0.414 0.012 0 0.414 0.0133333 0 0.414 0.0146667 0 0.414 0.016 0 0.414 0.0173333 0 0.414 0.0186667 0 0.414 0.02 0 0.414667 0 0 0.414667 0.00133333 0 0.414667 0.00266667 0 0.414667 0.004 0 0.414667 0.00533333 0 0.414667 0.00666667 0 0.414667 0.008 0 0.414667 0.00933333 0 0.414667 0.0106667 0 0.414667 0.012 0 0.414667 0.0133333 0 0.414667 0.0146667 0 0.414667 0.016 0 0.414667 0.0173333 0 0.414667 0.0186667 0 0.414667 0.02 0 0.415333 0 0 0.415333 0.00133333 0 0.415333 0.00266667 0 0.415333 0.004 0 0.415333 0.00533333 0 0.415333 0.00666667 0 0.415333 0.008 0 0.415333 0.00933333 0 0.415333 0.0106667 0 0.415333 0.012 0 0.415333 0.0133333 0 0.415333 0.0146667 0 0.415333 0.016 0 0.415333 0.0173333 0 0.415333 0.0186667 0 0.415333 0.02 0 0.416 0 0 0.416 0.00133333 0 0.416 0.00266667 0 0.416 0.004 0 0.416 0.00533333 0 0.416 0.00666667 0 0.416 0.008 0 0.416 0.00933333 0 0.416 0.0106667 0 0.416 0.012 0 0.416 0.0133333 0 0.416 0.0146667 0 0.416 0.016 0 0.416 0.0173333 0 0.416 0.0186667 0 0.416 0.02 0 
</DataArray>
</Points> 
</Piece> 
</StructuredGrid> 
</VTKFile> 
