<?xml version="1.0"?> 
<VTKFile type="StructuredGrid" version="0.1"> 
<StructuredGrid WholeExtent="0 15 0 15 0 0"> 
<Piece Extent="0 15 0 15 0 0"> 
<PointData>
<DataArray type="Float32" Name="E" format="ascii" NumberOfComponents="3"> 
216415 3.28239e+06 0 205812 3.27702e+06 0 192860 3.25911e+06 0 178130 3.23037e+06 0 162310 3.19332e+06 0 146030 3.15083e+06 0 129767 3.10572e+06 0 113813 3.06048e+06 0 98312 3.01717e+06 0 83293.8 2.97738e+06 0 68724.2 2.94229e+06 0 54535.4 2.91274e+06 0 40647.6 2.88929e+06 0 26979.8 2.87232e+06 0 13454.9 2.86206e+06 0 0 2.85862e+06 0 216207 3.27924e+06 0 213180 3.27276e+06 0 207042 3.2537e+06 0 197817 3.22393e+06 0 185886 3.18608e+06 0 171825 3.14301e+06 0 156242 3.09752e+06 0 139666 3.05204e+06 0 122507 3.00858e+06 0 105051 2.96871e+06 0 87479.9 2.93356e+06 0 69898 2.90397e+06 0 52354.8 2.8805e+06 0 34864.6 2.86351e+06 0 17419.6 2.85324e+06 0 0 2.8498e+06 0 216298 3.28061e+06 0 221066 3.27277e+06 0 221845 3.25191e+06 0 218116 3.22024e+06 0 209997 3.1806e+06 0 198051 3.13602e+06 0 183043 3.08932e+06 0 165755 3.04293e+06 0 146870 2.99882e+06 0 126927 2.95848e+06 0 106319 2.92301e+06 0 85318.1 2.8932e+06 0 64100.6 2.86958e+06 0 42773.1 2.8525e+06 0 21395.7 2.84218e+06 0 0 2.83872e+06 0 216701 3.28672e+06 0 229740 3.27719e+06 0 237725 3.25383e+06 0 239579 3.21928e+06 0 235202 3.17684e+06 0 225209 3.12978e+06 0 210589 3.08105e+06 0 192411 3.0331e+06 0 171649 2.98783e+06 0 149098 2.94666e+06 0 125363 2.91062e+06 0 100877 2.88042e+06 0 75936.6 2.85654e+06 0 50735.4 2.8393e+06 0 25396.8 2.82889e+06 0 0 2.82541e+06 0 217440 3.29793e+06 0 239521 3.28631e+06 0 255201 3.25959e+06 0 262808 3.22109e+06 0 262089 3.17473e+06 0 253819 3.12419e+06 0 239301 3.07261e+06 0 219957 3.02246e+06 0 197081 2.97554e+06 0 171734 2.9332e+06 0 144729 2.89634e+06 0 116652 2.86559e+06 0 87911.2 2.84135e+06 0 58779.5 2.82389e+06 0 29435.8 2.81336e+06 0 0 2.80984e+06 0 218554 3.31483e+06 0 250798 3.3006e+06 0 274881 3.26944e+06 0 288479 3.22571e+06 0 291289 3.17417e+06 0 284410 3.11909e+06 0 269596 3.06382e+06 0 248704 3.01082e+06 0 223389 2.96182e+06 0 194989 2.91799e+06 0 164519 2.88011e+06 0 132709 2.84867e+06 0 100066 2.82398e+06 0 66929.1 2.80625e+06 0 33523.2 2.79557e+06 0 0 2.792e+06 0 220097 3.33823e+06 0 264073 3.32068e+06 0 297519 3.28372e+06 0 317382 3.23316e+06 0 323500 3.17501e+06 0 317536 3.11424e+06 0 301885 3.05442e+06 0 278944 2.99799e+06 0 250774 2.9465e+06 0 218997 2.90091e+06 0 184821 2.86183e+06 0 149103 2.82959e+06 0 112433 2.80439e+06 0 75201.9 2.78634e+06 0 37667 2.7755e+06 0 0 2.77189e+06 0 222145 3.3693e+06 0 280027 3.34743e+06 0 324078 3.30282e+06 0 350464 3.24345e+06 0 359496 3.17702e+06 0 353771 3.10931e+06 0 336566 3.0441e+06 0 310943 2.98368e+06 0 279408 2.92935e+06 0 243866 2.88179e+06 0 205700 2.84138e+06 0 165872 2.80827e+06 0 125034 2.78253e+06 0 83609.1 2.76415e+06 0 41871.6 2.75314e+06 0 0 2.74947e+06 0 224807 3.40966e+06 0 299616 3.38203e+06 0 355835 3.32721e+06 0 388881 3.25648e+06 0 400146 3.17981e+06 0 393700 3.10386e+06 0 374013 3.03245e+06 0 344929 2.96756e+06 0 309424 2.91011e+06 0 269671 2.86045e+06 0 227196 2.81864e+06 0 183036 2.78464e+06 0 137876 2.75833e+06 0 92153.1 2.73963e+06 0 46137.7 2.72844e+06 0 0 2.72472e+06 0 228234 3.46164e+06 0 324252 3.42609e+06 0 394524 3.35739e+06 0 434053 3.27201e+06 0 446405 3.18282e+06 0 437904 3.09727e+06 0 414552 3.01893e+06 0 381075 2.94922e+06 0 340908 2.8885e+06 0 296447 2.83667e+06 0 249318 2.79347e+06 0 200592 2.75858e+06 0 150954 2.73175e+06 0 100827 2.71274e+06 0 50461.4 2.7014e+06 0 0 2.69763e+06 0 232658 3.52874e+06 0 356100 3.48175e+06 0 442548 3.39377e+06 0 487705 3.28943e+06 0 499296 3.1852e+06 0 486915 3.08877e+06 0 458435 3.00292e+06 0 419479 2.92819e+06 0 373882 2.86417e+06 0 324185 2.81023e+06 0 272043 2.76571e+06 0 218513 2.73002e+06 0 164244 2.70272e+06 0 109616 2.68345e+06 0 54834.1 2.67198e+06 0 0 2.66818e+06 0 238429 3.61628e+06 0 398721 3.55192e+06 0 503264 3.43639e+06 0 551884 3.30765e+06 0 559831 3.1857e+06 0 541162 3.07733e+06 0 505796 2.98368e+06 0 460148 2.90395e+06 0 408299 2.83678e+06 0 352819 2.7809e+06 0 295309 2.73521e+06 0 236747 2.69885e+06 0 177706 2.67118e+06 0 118491 2.65173e+06 0 59242.5 2.64018e+06 0 0 2.63635e+06 0 246167 3.73364e+06 0 458264 3.64034e+06 0 581314 3.48438e+06 0 628857 3.32468e+06 0 628881 3.1826e+06 0 600877 3.0617e+06 0 556611 2.96036e+06 0 502964 2.87594e+06 0 444027 2.80597e+06 0 382228 2.74844e+06 0 319014 2.70183e+06 0 255217 2.665e+06 0 191283 2.6371e+06 0 127417 2.61756e+06 0 63668.6 2.60598e+06 0 0 2.60214e+06 0 257026 3.89833e+06 0 546116 3.75132e+06 0 682705 3.53476e+06 0 720824 3.3373e+06 0 706933 3.17364e+06 0 666001 3.04045e+06 0 610639 2.93206e+06 0 547677 2.84361e+06 0 480840 2.77137e+06 0 412233 2.71265e+06 0 343020 2.66546e+06 0 273817 2.62839e+06 0 204903 2.60045e+06 0 136346 2.58093e+06 0 68089.7 2.56939e+06 0 0 2.56557e+06 0 274094 4.15721e+06 0 683992 3.88585e+06 0 813976 3.58038e+06 0 829321 3.34075e+06 0 793725 3.15608e+06 0 736088 3.01196e+06 0 667361 2.89786e+06 0 593887 2.80639e+06 0 518417 2.73269e+06 0 442595 2.67334e+06 0 367148 2.62598e+06 0 292421 2.58899e+06 0 218476 2.5612e+06 0 145224 2.54186e+06 0 72479.4 2.53044e+06 0 0 2.52666e+06 0 309163 4.6891e+06 0 902074 4.01993e+06 0 983704 3.60862e+06 0 951663 3.32884e+06 0 889228 3.12686e+06 0 809624 2.97473e+06 0 726261 2.85689e+06 0 640935 2.76385e+06 0 556396 2.68966e+06 0 473006 2.63037e+06 0 391194 2.58335e+06 0 310880 2.54677e+06 0 231903 2.51938e+06 0 153989 2.50036e+06 0 76807 2.48914e+06 0 0 2.48544e+06 0 </DataArray> 
</PointData> 
<Points> 
<DataArray type="Float32" NumberOfComponents="3"> 
0.2675 0.0625275 0 0.2675 0.0668924 0 0.2675 0.0712572 0 0.2675 0.075622 0 0.2675 0.0799869 0 0.2675 0.0843517 0 0.2675 0.0887165 0 0.2675 0.0930814 0 0.2675 0.0974462 0 0.2675 0.101811 0 0.2675 0.106176 0 0.2675 0.110541 0 0.2675 0.114906 0 0.2675 0.11927 0 0.2675 0.123635 0 0.2675 0.128 0 0.27 0.0623627 0 0.27 0.0667385 0 0.27 0.0711144 0 0.27 0.0754902 0 0.27 0.079866 0 0.27 0.0842418 0 0.27 0.0886176 0 0.27 0.0929934 0 0.27 0.0973693 0 0.27 0.101745 0 0.27 0.106121 0 0.27 0.110497 0 0.27 0.114873 0 0.27 0.119248 0 0.27 0.123624 0 0.27 0.128 0 0.2725 0.0621979 0 0.2725 0.0665847 0 0.2725 0.0709715 0 0.2725 0.0753583 0 0.2725 0.0797451 0 0.2725 0.0841319 0 0.2725 0.0885187 0 0.2725 0.0929055 0 0.2725 0.0972923 0 0.2725 0.101679 0 0.2725 0.106066 0 0.2725 0.110453 0 0.2725 0.11484 0 0.2725 0.119226 0 0.2725 0.123613 0 0.2725 0.128 0 0.275 0.0620331 0 0.275 0.0664308 0 0.275 0.0708286 0 0.275 0.0752264 0 0.275 0.0796242 0 0.275 0.084022 0 0.275 0.0884198 0 0.275 0.0928176 0 0.275 0.0972154 0 0.275 0.101613 0 0.275 0.106011 0 0.275 0.110409 0 0.275 0.114807 0 0.275 0.119204 0 0.275 0.123602 0 0.275 0.128 0 0.2775 0.0618682 0 0.2775 0.066277 0 0.2775 0.0706858 0 0.2775 0.0750946 0 0.2775 0.0795034 0 0.2775 0.0839121 0 0.2775 0.0883209 0 0.2775 0.0927297 0 0.2775 0.0971385 0 0.2775 0.101547 0 0.2775 0.105956 0 0.2775 0.110365 0 0.2775 0.114774 0 0.2775 0.119182 0 0.2775 0.123591 0 0.2775 0.128 0 0.28 0.0617034 0 0.28 0.0661232 0 0.28 0.0705429 0 0.28 0.0749627 0 0.28 0.0793825 0 0.28 0.0838023 0 0.28 0.088222 0 0.28 0.0926418 0 0.28 0.0970616 0 0.28 0.101481 0 0.28 0.105901 0 0.28 0.110321 0 0.28 0.114741 0 0.28 0.11916 0 0.28 0.12358 0 0.28 0.128 0 0.2825 0.0615386 0 0.2825 0.0659693 0 0.2825 0.0704001 0 0.2825 0.0748308 0 0.2825 0.0792616 0 0.2825 0.0836924 0 0.2825 0.0881231 0 0.2825 0.0925539 0 0.2825 0.0969847 0 0.2825 0.101415 0 0.2825 0.105846 0 0.2825 0.110277 0 0.2825 0.114708 0 0.2825 0.119138 0 0.2825 0.123569 0 0.2825 0.128 0 0.285 0.0613737 0 0.285 0.0658155 0 0.285 0.0702572 0 0.285 0.074699 0 0.285 0.0791407 0 0.285 0.0835825 0 0.285 0.0880242 0 0.285 0.092466 0 0.285 0.0969077 0 0.285 0.101349 0 0.285 0.105791 0 0.285 0.110233 0 0.285 0.114675 0 0.285 0.119116 0 0.285 0.123558 0 0.285 0.128 0 0.2875 0.0612089 0 0.2875 0.0656616 0 0.2875 0.0701144 0 0.2875 0.0745671 0 0.2875 0.0790199 0 0.2875 0.0834726 0 0.2875 0.0879253 0 0.2875 0.0923781 0 0.2875 0.0968308 0 0.2875 0.101284 0 0.2875 0.105736 0 0.2875 0.110189 0 0.2875 0.114642 0 0.2875 0.119095 0 0.2875 0.123547 0 0.2875 0.128 0 0.29 0.0610441 0 0.29 0.0655078 0 0.29 0.0699715 0 0.29 0.0744353 0 0.29 0.078899 0 0.29 0.0833627 0 0.29 0.0878264 0 0.29 0.0922902 0 0.29 0.0967539 0 0.29 0.101218 0 0.29 0.105681 0 0.29 0.110145 0 0.29 0.114609 0 0.29 0.119073 0 0.29 0.123536 0 0.29 0.128 0 0.2925 0.0608792 0 0.2925 0.065354 0 0.2925 0.0698287 0 0.2925 0.0743034 0 0.2925 0.0787781 0 0.2925 0.0832528 0 0.2925 0.0877275 0 0.2925 0.0922023 0 0.2925 0.096677 0 0.2925 0.101152 0 0.2925 0.105626 0 0.2925 0.110101 0 0.2925 0.114576 0 0.2925 0.119051 0 0.2925 0.123525 0 0.2925 0.128 0 0.295 0.0607144 0 0.295 0.0652001 0 0.295 0.0696858 0 0.295 0.0741715 0 0.295 0.0786572 0 0.295 0.0831429 0 0.295 0.0876286 0 0.295 0.0921144 0 0.295 0.0966001 0 0.295 0.101086 0 0.295 0.105571 0 0.295 0.110057 0 0.295 0.114543 0 0.295 0.119029 0 0.295 0.123514 0 0.295 0.128 0 0.2975 0.0605496 0 0.2975 0.0650463 0 0.2975 0.069543 0 0.2975 0.0740397 0 0.2975 0.0785364 0 0.2975 0.0830331 0 0.2975 0.0875297 0 0.2975 0.0920264 0 0.2975 0.0965231 0 0.2975 0.10102 0 0.2975 0.105517 0 0.2975 0.110013 0 0.2975 0.11451 0 0.2975 0.119007 0 0.2975 0.123503 0 0.2975 0.128 0 0.3 0.0603847 0 0.3 0.0648924 0 0.3 0.0694001 0 0.3 0.0739078 0 0.3 0.0784155 0 0.3 0.0829232 0 0.3 0.0874308 0 0.3 0.0919385 0 0.3 0.0964462 0 0.3 0.100954 0 0.3 0.105462 0 0.3 0.109969 0 0.3 0.114477 0 0.3 0.118985 0 0.3 0.123492 0 0.3 0.128 0 0.3025 0.0602199 0 0.3025 0.0647386 0 0.3025 0.0692573 0 0.3025 0.0737759 0 0.3025 0.0782946 0 0.3025 0.0828133 0 0.3025 0.0873319 0 0.3025 0.0918506 0 0.3025 0.0963693 0 0.3025 0.100888 0 0.3025 0.105407 0 0.3025 0.109925 0 0.3025 0.114444 0 0.3025 0.118963 0 0.3025 0.123481 0 0.3025 0.128 0 0.305 0.0600551 0 0.305 0.0645847 0 0.305 0.0691144 0 0.305 0.0736441 0 0.305 0.0781737 0 0.305 0.0827034 0 0.305 0.0872331 0 0.305 0.0917627 0 0.305 0.0962924 0 0.305 0.100822 0 0.305 0.105352 0 0.305 0.109881 0 0.305 0.114411 0 0.305 0.118941 0 0.305 0.12347 0 0.305 0.128 0 
</DataArray>
</Points> 
</Piece> 
</StructuredGrid> 
</VTKFile> 
