<?xml version="1.0"?> 
<VTKFile type="StructuredGrid" version="0.1"> 
<StructuredGrid WholeExtent="0 15 0 15 0 0"> 
<Piece Extent="0 15 0 15 0 0"> 
<PointData>
<DataArray type="Float32" Name="E" format="ascii" NumberOfComponents="3"> 
1.0406e+06 1.66893e-06 0 670039 -1.85566e-07 0 464000 3.3062e-08 0 341111 -4.65661e-08 0 262112 -4.47035e-08 0 207507 1.19209e-07 0 167286 -1.19209e-07 0 136051 2.98023e-08 0 110736 8.19564e-08 0 89486.7 7.45058e-08 0 71112.5 -1.63913e-07 0 54797.4 7.45058e-08 0 39948.6 -4.47035e-08 0 26108.2 -1.49012e-08 0 12901.2 1.19209e-07 0 -2.08616e-07 -7.15256e-07 0 79521.5 -305977 0 121780 -274117 0 133357 -234274 0 130602 -196965 0 121386 -165364 0 109525 -139716 0 96854.9 -119299 0 84240.8 -103193 0 72059.6 -90555.3 0 60443 -80697.3 0 49397.9 -73084.1 0 38868.3 -67314.2 0 28767.6 -63093.5 0 18994.6 -60214.3 0 9442.03 -58538.9 0 3.38478e-08 -57989.2 0 -23269.7 -247449 0 -12484 -214832 0 -1824.67 -193527 0 6835.19 -176836 0 13079.5 -162351 0 17073.1 -149354 0 19171.8 -137698 0 19755.6 -127384 0 19166 -118425 0 17687.2 -110805 0 15546.7 -104486 0 12923.4 -99416.2 0 9956.85 -95541 0 6757.09 -92811.7 0 3412.99 -91190.1 0 -2.1304e-08 -90652.4 0 -69433.4 -132830 0 -57670.3 -138533 0 -47522.1 -137219 0 -38781.5 -133226 0 -31307.9 -128360 0 -24982.9 -123354 0 -19691.9 -118523 0 -15318.5 -114016 0 -11745.9 -109919 0 -8858.22 -106287 0 -6543.58 -103161 0 -4694.83 -100570 0 -3210.39 -98536 0 -1993.89 -97073.8 0 -953.358 -96192.9 0 -1.04774e-08 -95898.7 0 -72266.7 -100246 0 -63962.1 -95650.5 0 -56526.8 -94032.4 0 -49729.2 -93284.3 0 -43484.7 -92638 0 -37753.9 -91874.6 0 -32505.9 -90976.2 0 -27706.8 -89989.9 0 -23317.3 -88976.4 0 -19293.1 -87992.5 0 -15586.3 -87086 0 -12146.4 -86295.7 0 -8921.11 -85651.6 0 -5857.44 -85176 0 -2901.71 -84884.7 0 3.25963e-08 -84786.5 0 -59615.6 -54210.4 0 -54953.2 -58990.1 0 -50101.1 -61633.3 0 -45323.3 -63306.4 0 -40709.1 -64487.9 0 -36282.7 -65371.6 0 -32044.3 -66043.4 0 -27985.3 -66549.8 0 -24093 -66923.1 0 -20352.2 -67190.1 0 -16745.6 -67374.3 0 -13254 -67496 0 -9856.43 -67572.4 0 -6530.56 -67617.2 0 -3253.09 -67640.1 0 -4.14439e-08 -67647 0 -45618.2 -37901.4 0 -42136.1 -38925.9 0 -38900.5 -40536.9 0 -35739.9 -42209.4 0 -32606 -43753.3 0 -29492.7 -45115 0 -26404.9 -46290.1 0 -23348.5 -47290.9 0 -20327.1 -48133.1 0 -17341.6 -48832 0 -14390.8 -49400.8 0 -11471.5 -49851 0 -8578.83 -50191.7 0 -5707.17 -50429.9 0 -2849.92 -50570.9 0 5.12227e-08 -50617.5 0 -31884.2 -22272.7 0 -30186.5 -24693.4 0 -28249.4 -26567 0 -26208.4 -28148.2 0 -24114.1 -29537.5 0 -21986.1 -30772.8 0 -19833.5 -31869.1 0 -17662 -32833.9 0 -15475.9 -33672.1 0 -13279 -34388.1 0 -11074.2 -34986.1 0 -8864.05 -35469.7 0 -6650.39 -35842.2 0 -4434.57 -36106.3 0 -2217.55 -36263.9 0 -1.95578e-08 -36316.3 0 -22286.6 -15404 0 -20962.3 -16505.1 0 -19675 -17676.7 0 -18357.3 -18810.7 0 -16992.2 -19866.3 0 -15579.8 -20829.8 0 -14125.6 -21697.8 0 -12635.6 -22470.3 0 -11115.5 -23148.4 0 -9570.46 -23733.2 0 -8004.9 -24225.9 0 -6422.85 -24627.6 0 -4828.01 -24939.1 0 -3223.79 -25161.1 0 -1613.42 -25294.1 0 3.72529e-09 -25338.4 0 -14907 -9905.07 0 -14228.5 -10920.7 0 -13437.3 -11815.4 0 -12581 -12628.7 0 -11677.6 -13374.6 0 -10735.2 -14057.2 0 -9758.12 -14676.8 0 -8750.22 -15233 0 -7715.04 -15725 0 -6656.15 -16152.3 0 -5577.1 -16514.3 0 -4481.4 -16810.8 0 -3372.5 -17041.6 0 -2253.77 -17206.6 0 -1128.51 -17305.6 0 1.49012e-08 -17338.6 0 -10163.9 -6790.79 0 -9628.35 -7370.92 0 -9088.1 -7936.05 0 -8522.07 -8471.73 0 -7925.45 -8971.55 0 -7299.03 -9432.49 0 -6645.35 -9852.85 0 -5967.29 -10231.5 0 -5267.77 -10567.5 0 -4549.59 -10860.1 0 -3815.5 -11108.8 0 -3068.2 -11312.9 0 -2310.35 -11472.1 0 -1544.62 -11586 0 -773.621 -11654.5 0 -5.02914e-08 -11677.3 0 -6841.43 -4523.21 0 -6532.18 -4916.82 0 -6179.97 -5286.9 0 -5798.98 -5633.63 0 -5394.86 -5956.44 0 -4970.31 -6254.52 0 -4527.22 -6526.99 0 -4067.3 -6773 0 -3592.28 -6991.82 0 -3103.96 -7182.77 0 -2604.2 -7345.29 0 -2094.87 -7478.9 0 -1577.88 -7583.21 0 -1055.12 -7657.93 0 -528.521 -7702.85 0 5.21541e-08 -7717.84 0 -4784.58 -2956.57 0 -4541.8 -3200.77 0 -4290.46 -3428.85 0 -4025.22 -3642.36 0 -3745.16 -3841.33 0 -3450.9 -4025.3 0 -3143.56 -4193.68 0 -2824.38 -4345.89 0 -2494.64 -4481.41 0 -2155.63 -4599.77 0 -1808.64 -4700.58 0 -1454.96 -4783.52 0 -1095.93 -4848.3 0 -732.864 -4894.72 0 -367.106 -4922.64 0 -4.47035e-08 -4931.95 0 -3476.94 -1806.74 0 -3310.99 -1935.22 0 -3128.75 -2061.5 0 -2933.93 -2181.74 0 -2728.23 -2294.35 0 -2512.63 -2398.59 0 -2287.97 -2493.99 0 -2055.05 -2580.23 0 -1814.7 -2657.02 0 -1567.8 -2724.1 0 -1315.23 -2781.25 0 -1057.92 -2828.27 0 -796.792 -2865.01 0 -532.794 -2891.34 0 -266.878 -2907.18 0 2.23517e-08 -2912.46 0 -2781.23 -847.284 0 -2640.4 -914.367 0 -2491.71 -973.149 0 -2334.75 -1026.93 0 -2169.77 -1076.74 0 -1997.25 -1122.75 0 -1817.8 -1164.88 0 -1632.03 -1203 0 -1440.61 -1236.96 0 -1244.19 -1266.63 0 -1043.47 -1291.91 0 -839.14 -1312.71 0 -631.907 -1328.96 0 -422.489 -1340.61 0 -211.61 -1347.61 0 2.23517e-08 -1349.95 0 -2534.75 1.90735e-06 0 -2400.54 -1.61701e-07 0 -2262.86 1.11759e-08 0 -2118.79 -6.89179e-08 0 -1967.84 1.11759e-07 0 -1810.33 8.56817e-08 0 -1646.78 -1.49012e-07 0 -1477.77 6.70552e-08 0 -1303.87 -1.2666e-07 0 -1125.68 0 0 -943.785 1.04308e-07 0 -758.782 -1.04308e-07 0 -571.283 8.9407e-08 0 -381.903 -1.78814e-07 0 -191.266 5.96046e-08 0 -3.57628e-07 -1.90735e-06 0 </DataArray> 
</PointData> 
<Points> 
<DataArray type="Float32" NumberOfComponents="3"> 
0.2525 0.035 0 0.2525 0.0356667 0 0.2525 0.0363333 0 0.2525 0.037 0 0.2525 0.0376667 0 0.2525 0.0383333 0 0.2525 0.039 0 0.2525 0.0396667 0 0.2525 0.0403333 0 0.2525 0.041 0 0.2525 0.0416667 0 0.2525 0.0423333 0 0.2525 0.043 0 0.2525 0.0436667 0 0.2525 0.0443333 0 0.2525 0.045 0 0.2558 0.0351867 0 0.2558 0.0358409 0 0.2558 0.0364951 0 0.2558 0.0371493 0 0.2558 0.0378036 0 0.2558 0.0384578 0 0.2558 0.039112 0 0.2558 0.0397662 0 0.2558 0.0404204 0 0.2558 0.0410747 0 0.2558 0.0417289 0 0.2558 0.0423831 0 0.2558 0.0430373 0 0.2558 0.0436916 0 0.2558 0.0443458 0 0.2558 0.045 0 0.2591 0.0353733 0 0.2591 0.0360151 0 0.2591 0.0366569 0 0.2591 0.0372987 0 0.2591 0.0379404 0 0.2591 0.0385822 0 0.2591 0.039224 0 0.2591 0.0398658 0 0.2591 0.0405076 0 0.2591 0.0411493 0 0.2591 0.0417911 0 0.2591 0.0424329 0 0.2591 0.0430747 0 0.2591 0.0437164 0 0.2591 0.0443582 0 0.2591 0.045 0 0.2624 0.03556 0 0.2624 0.0361893 0 0.2624 0.0368187 0 0.2624 0.037448 0 0.2624 0.0380773 0 0.2624 0.0387067 0 0.2624 0.039336 0 0.2624 0.0399653 0 0.2624 0.0405947 0 0.2624 0.041224 0 0.2624 0.0418533 0 0.2624 0.0424827 0 0.2624 0.043112 0 0.2624 0.0437413 0 0.2624 0.0443707 0 0.2624 0.045 0 0.2657 0.0357467 0 0.2657 0.0363636 0 0.2657 0.0369804 0 0.2657 0.0375973 0 0.2657 0.0382142 0 0.2657 0.0388311 0 0.2657 0.039448 0 0.2657 0.0400649 0 0.2657 0.0406818 0 0.2657 0.0412987 0 0.2657 0.0419156 0 0.2657 0.0425324 0 0.2657 0.0431493 0 0.2657 0.0437662 0 0.2657 0.0443831 0 0.2657 0.045 0 0.269 0.0359333 0 0.269 0.0365378 0 0.269 0.0371422 0 0.269 0.0377467 0 0.269 0.0383511 0 0.269 0.0389556 0 0.269 0.03956 0 0.269 0.0401644 0 0.269 0.0407689 0 0.269 0.0413733 0 0.269 0.0419778 0 0.269 0.0425822 0 0.269 0.0431867 0 0.269 0.0437911 0 0.269 0.0443956 0 0.269 0.045 0 0.2723 0.03612 0 0.2723 0.036712 0 0.2723 0.037304 0 0.2723 0.037896 0 0.2723 0.038488 0 0.2723 0.03908 0 0.2723 0.039672 0 0.2723 0.040264 0 0.2723 0.040856 0 0.2723 0.041448 0 0.2723 0.04204 0 0.2723 0.042632 0 0.2723 0.043224 0 0.2723 0.043816 0 0.2723 0.044408 0 0.2723 0.045 0 0.2756 0.0363067 0 0.2756 0.0368862 0 0.2756 0.0374658 0 0.2756 0.0380453 0 0.2756 0.0386249 0 0.2756 0.0392044 0 0.2756 0.039784 0 0.2756 0.0403636 0 0.2756 0.0409431 0 0.2756 0.0415227 0 0.2756 0.0421022 0 0.2756 0.0426818 0 0.2756 0.0432613 0 0.2756 0.0438409 0 0.2756 0.0444204 0 0.2756 0.045 0 0.2789 0.0364933 0 0.2789 0.0370604 0 0.2789 0.0376276 0 0.2789 0.0381947 0 0.2789 0.0387618 0 0.2789 0.0393289 0 0.2789 0.039896 0 0.2789 0.0404631 0 0.2789 0.0410302 0 0.2789 0.0415973 0 0.2789 0.0421644 0 0.2789 0.0427316 0 0.2789 0.0432987 0 0.2789 0.0438658 0 0.2789 0.0444329 0 0.2789 0.045 0 0.2822 0.03668 0 0.2822 0.0372347 0 0.2822 0.0377893 0 0.2822 0.038344 0 0.2822 0.0388987 0 0.2822 0.0394533 0 0.2822 0.040008 0 0.2822 0.0405627 0 0.2822 0.0411173 0 0.2822 0.041672 0 0.2822 0.0422267 0 0.2822 0.0427813 0 0.2822 0.043336 0 0.2822 0.0438907 0 0.2822 0.0444453 0 0.2822 0.045 0 0.2855 0.0368667 0 0.2855 0.0374089 0 0.2855 0.0379511 0 0.2855 0.0384933 0 0.2855 0.0390356 0 0.2855 0.0395778 0 0.2855 0.04012 0 0.2855 0.0406622 0 0.2855 0.0412044 0 0.2855 0.0417467 0 0.2855 0.0422889 0 0.2855 0.0428311 0 0.2855 0.0433733 0 0.2855 0.0439156 0 0.2855 0.0444578 0 0.2855 0.045 0 0.2888 0.0370533 0 0.2888 0.0375831 0 0.2888 0.0381129 0 0.2888 0.0386427 0 0.2888 0.0391724 0 0.2888 0.0397022 0 0.2888 0.040232 0 0.2888 0.0407618 0 0.2888 0.0412916 0 0.2888 0.0418213 0 0.2888 0.0423511 0 0.2888 0.0428809 0 0.2888 0.0434107 0 0.2888 0.0439404 0 0.2888 0.0444702 0 0.2888 0.045 0 0.2921 0.03724 0 0.2921 0.0377573 0 0.2921 0.0382747 0 0.2921 0.038792 0 0.2921 0.0393093 0 0.2921 0.0398267 0 0.2921 0.040344 0 0.2921 0.0408613 0 0.2921 0.0413787 0 0.2921 0.041896 0 0.2921 0.0424133 0 0.2921 0.0429307 0 0.2921 0.043448 0 0.2921 0.0439653 0 0.2921 0.0444827 0 0.2921 0.045 0 0.2954 0.0374267 0 0.2954 0.0379316 0 0.2954 0.0384364 0 0.2954 0.0389413 0 0.2954 0.0394462 0 0.2954 0.0399511 0 0.2954 0.040456 0 0.2954 0.0409609 0 0.2954 0.0414658 0 0.2954 0.0419707 0 0.2954 0.0424756 0 0.2954 0.0429804 0 0.2954 0.0434853 0 0.2954 0.0439902 0 0.2954 0.0444951 0 0.2954 0.045 0 0.2987 0.0376133 0 0.2987 0.0381058 0 0.2987 0.0385982 0 0.2987 0.0390907 0 0.2987 0.0395831 0 0.2987 0.0400756 0 0.2987 0.040568 0 0.2987 0.0410604 0 0.2987 0.0415529 0 0.2987 0.0420453 0 0.2987 0.0425378 0 0.2987 0.0430302 0 0.2987 0.0435227 0 0.2987 0.0440151 0 0.2987 0.0445076 0 0.2987 0.045 0 0.302 0.0378 0 0.302 0.03828 0 0.302 0.03876 0 0.302 0.03924 0 0.302 0.03972 0 0.302 0.0402 0 0.302 0.04068 0 0.302 0.04116 0 0.302 0.04164 0 0.302 0.04212 0 0.302 0.0426 0 0.302 0.04308 0 0.302 0.04356 0 0.302 0.04404 0 0.302 0.04452 0 0.302 0.045 0 
</DataArray>
</Points> 
</Piece> 
</StructuredGrid> 
</VTKFile> 
