<?xml version="1.0"?> 
<VTKFile type="StructuredGrid" version="0.1"> 
<StructuredGrid WholeExtent="0 127 0 127 0 0"> 
<Piece Extent="0 127 0 127 0 0"> 
<PointData>
<DataArray type="Float32" Name="E" format="ascii" NumberOfComponents="3"> 
-529399 152486 0 -525280 152505 0 -521159 152525 0 -517038 152545 0 -512915 152566 0 -508792 152587 0 -504667 152609 0 -500541 152631 0 -496414 152653 0 -492285 152676 0 -488156 152699 0 -484026 152723 0 -479894 152746 0 -475762 152770 0 -471628 152794 0 -467494 152819 0 -463358 152843 0 -459222 152868 0 -455084 152893 0 -450946 152918 0 -446806 152943 0 -442666 152968 0 -438525 152994 0 -434382 153019 0 -430239 153045 0 -426095 153070 0 -421950 153096 0 -417804 153122 0 -413657 153147 0 -409510 153173 0 -405361 153199 0 -401211 153225 0 -397061 153250 0 -392910 153276 0 -388758 153302 0 -384605 153327 0 -380451 153353 0 -376297 153378 0 -372141 153404 0 -367985 153429 0 -363828 153454 0 -359670 153479 0 -355512 153504 0 -351352 153529 0 -347192 153554 0 -343031 153578 0 -338870 153602 0 -334707 153627 0 -330544 153651 0 -326380 153675 0 -322215 153699 0 -318050 153722 0 -313884 153746 0 -309717 153769 0 -305549 153792 0 -301381 153815 0 -297212 153837 0 -293042 153860 0 -288872 153882 0 -284701 153904 0 -280530 153926 0 -276357 153947 0 -272184 153969 0 -268011 153990 0 -263837 154010 0 -259662 154031 0 -255486 154051 0 -251310 154071 0 -247134 154091 0 -242957 154111 0 -238779 154130 0 -234600 154149 0 -230421 154168 0 -226242 154186 0 -222062 154204 0 -217882 154222 0 -213700 154240 0 -209519 154257 0 -205337 154274 0 -201154 154291 0 -196971 154307 0 -192788 154323 0 -188604 154339 0 -184419 154355 0 -180234 154370 0 -176049 154385 0 -171863 154399 0 -167677 154413 0 -163491 154427 0 -159304 154441 0 -155116 154454 0 -150928 154467 0 -146740 154480 0 -142552 154492 0 -138363 154504 0 -134174 154515 0 -129984 154527 0 -125794 154537 0 -121604 154548 0 -117414 154558 0 -113223 154568 0 -109032 154578 0 -104841 154587 0 -100649 154596 0 -96457.2 154604 0 -92265.2 154612 0 -88072.9 154620 0 -83880.4 154627 0 -79687.7 154635 0 -75494.7 154641 0 -71301.6 154648 0 -67108.3 154654 0 -62914.9 154659 0 -58721.3 154664 0 -54527.5 154669 0 -50333.6 154674 0 -46139.6 154678 0 -41945.5 154682 0 -37751.2 154685 0 -33556.9 154689 0 -29362.4 154691 0 -25167.9 154694 0 -20973.4 154696 0 -16778.8 154697 0 -12584.1 154699 0 -8389.43 154700 0 -4194.72 154700 0 0 154700 0 -531400 168992 0 -527268 169050 0 -523136 169109 0 -519002 169168 0 -514867 169228 0 -510730 169288 0 -506592 169348 0 -502453 169409 0 -498313 169470 0 -494172 169531 0 -490029 169593 0 -485886 169655 0 -481741 169717 0 -477595 169779 0 -473448 169842 0 -469299 169905 0 -465150 169967 0 -461000 170031 0 -456848 170094 0 -452696 170157 0 -448542 170221 0 -444388 170284 0 -440232 170348 0 -436076 170412 0 -431918 170475 0 -427760 170539 0 -423600 170603 0 -419440 170667 0 -415278 170731 0 -411116 170795 0 -406952 170859 0 -402788 170923 0 -398623 170986 0 -394457 171050 0 -390290 171114 0 -386122 171177 0 -381953 171241 0 -377784 171304 0 -373613 171368 0 -369442 171431 0 -365270 171494 0 -361097 171557 0 -356923 171620 0 -352748 171683 0 -348572 171745 0 -344396 171808 0 -340219 171870 0 -336041 171932 0 -331862 171994 0 -327682 172056 0 -323502 172118 0 -319321 172179 0 -315139 172240 0 -310956 172301 0 -306773 172362 0 -302589 172422 0 -298404 172483 0 -294219 172543 0 -290032 172602 0 -285845 172662 0 -281658 172721 0 -277469 172780 0 -273280 172839 0 -269091 172898 0 -264900 172956 0 -260709 173014 0 -256518 173071 0 -252326 173129 0 -248133 173186 0 -243939 173243 0 -239745 173299 0 -235550 173356 0 -231355 173411 0 -227159 173467 0 -222963 173522 0 -218766 173577 0 -214568 173632 0 -210370 173686 0 -206172 173740 0 -201972 173794 0 -197773 173847 0 -193573 173900 0 -189372 173953 0 -185171 174005 0 -180969 174057 0 -176767 174108 0 -172565 174159 0 -168362 174210 0 -164158 174261 0 -159955 174311 0 -155750 174361 0 -151546 174410 0 -147341 174459 0 -143135 174508 0 -138930 174556 0 -134723 174604 0 -130517 174651 0 -126310 174698 0 -122103 174745 0 -117896 174791 0 -113688 174837 0 -109480 174883 0 -105271 174928 0 -101063 174972 0 -96853.8 175017 0 -92644.7 175061 0 -88435.3 175104 0 -84225.6 175147 0 -80015.7 175190 0 -75805.7 175232 0 -71595.4 175274 0 -67384.9 175316 0 -63174.2 175357 0 -58963.4 175397 0 -54752.4 175438 0 -50541.3 175477 0 -46330 175517 0 -42118.6 175556 0 -37907.1 175594 0 -33695.5 175633 0 -29483.8 175670 0 -25272 175708 0 -21060.1 175745 0 -16848.1 175781 0 -12636.2 175817 0 -8424.13 175853 0 -4212.07 175888 0 0 175923 0 -533421 185485 0 -529277 185583 0 -525132 185681 0 -520985 185780 0 -516837 185879 0 -512688 185978 0 -508537 186077 0 -504385 186177 0 -500231 186277 0 -496077 186378 0 -491921 186478 0 -487764 186579 0 -483605 186680 0 -479445 186781 0 -475285 186883 0 -471123 186984 0 -466959 187086 0 -462795 187188 0 -458630 187290 0 -454463 187392 0 -450296 187494 0 -446127 187596 0 -441957 187698 0 -437786 187800 0 -433614 187903 0 -429441 188005 0 -425267 188107 0 -421092 188210 0 -416916 188312 0 -412739 188414 0 -408561 188516 0 -404382 188619 0 -400202 188721 0 -396021 188823 0 -391839 188925 0 -387656 189027 0 -383472 189129 0 -379287 189230 0 -375101 189332 0 -370915 189433 0 -366727 189535 0 -362539 189636 0 -358350 189737 0 -354159 189838 0 -349968 189938 0 -345776 190039 0 -341584 190139 0 -337390 190239 0 -333196 190339 0 -329000 190439 0 -324804 190539 0 -320607 190638 0 -316410 190737 0 -312211 190836 0 -308012 190935 0 -303812 191033 0 -299611 191131 0 -295409 191229 0 -291207 191326 0 -287004 191424 0 -282800 191521 0 -278596 191617 0 -274391 191714 0 -270185 191810 0 -265978 191906 0 -261771 192001 0 -257563 192096 0 -253354 192191 0 -249145 192286 0 -244935 192380 0 -240724 192474 0 -236513 192568 0 -232301 192661 0 -228089 192754 0 -223876 192846 0 -219662 192938 0 -215448 193030 0 -211233 193122 0 -207018 193213 0 -202802 193303 0 -198586 193394 0 -194369 193484 0 -190151 193573 0 -185933 193662 0 -181715 193751 0 -177496 193839 0 -173276 193927 0 -169056 194015 0 -164836 194102 0 -160615 194189 0 -156394 194275 0 -152172 194361 0 -147950 194446 0 -143728 194532 0 -139505 194616 0 -135282 194700 0 -131058 194784 0 -126834 194868 0 -122610 194950 0 -118385 195033 0 -114160 195115 0 -109934 195197 0 -105709 195278 0 -101483 195358 0 -97256.6 195439 0 -93030.1 195518 0 -88803.3 195598 0 -84576.3 195677 0 -80349 195755 0 -76121.5 195833 0 -71893.8 195911 0 -67665.9 195988 0 -63437.8 196064 0 -59209.5 196140 0 -54981 196216 0 -50752.3 196291 0 -46523.6 196366 0 -42294.6 196440 0 -38065.5 196514 0 -33836.4 196587 0 -29607.1 196660 0 -25377.7 196732 0 -21148.2 196804 0 -16918.7 196875 0 -12689.1 196946 0 -8459.41 197017 0 -4229.72 197087 0 0 197156 0 -535464 201967 0 -531308 202105 0 -527150 202243 0 -522990 202382 0 -518829 202520 0 -514666 202659 0 -510502 202798 0 -506337 202937 0 -502170 203077 0 -498002 203217 0 -493832 203357 0 -489661 203497 0 -485489 203637 0 -481316 203777 0 -477141 203918 0 -472965 204058 0 -468788 204199 0 -464610 204340 0 -460430 204480 0 -456249 204621 0 -452067 204762 0 -447884 204903 0 -443700 205044 0 -439515 205186 0 -435328 205327 0 -431141 205468 0 -426952 205609 0 -422762 205750 0 -418572 205891 0 -414380 206032 0 -410187 206173 0 -405993 206313 0 -401798 206454 0 -397602 206595 0 -393405 206735 0 -389207 206876 0 -385008 207016 0 -380808 207156 0 -376607 207296 0 -372405 207436 0 -368202 207576 0 -363998 207715 0 -359793 207855 0 -355587 207994 0 -351381 208133 0 -347173 208272 0 -342965 208410 0 -338756 208549 0 -334545 208687 0 -330334 208825 0 -326122 208963 0 -321910 209100 0 -317696 209237 0 -313481 209374 0 -309266 209511 0 -305050 209647 0 -300833 209783 0 -296615 209919 0 -292397 210055 0 -288178 210190 0 -283958 210325 0 -279737 210459 0 -275515 210593 0 -271293 210727 0 -267070 210861 0 -262846 210994 0 -258622 211127 0 -254396 211260 0 -250171 211392 0 -245944 211524 0 -241717 211655 0 -237489 211786 0 -233260 211917 0 -229031 212047 0 -224802 212177 0 -220571 212306 0 -216340 212436 0 -212108 212564 0 -207876 212693 0 -203643 212820 0 -199410 212948 0 -195176 213075 0 -190942 213202 0 -186707 213328 0 -182471 213454 0 -178235 213579 0 -173998 213704 0 -169761 213828 0 -165524 213952 0 -161286 214076 0 -157047 214199 0 -152808 214321 0 -148569 214443 0 -144329 214565 0 -140089 214686 0 -135848 214807 0 -131607 214927 0 -127366 215047 0 -123124 215166 0 -118882 215285 0 -114639 215403 0 -110396 215521 0 -106153 215638 0 -101910 215755 0 -97665.9 215871 0 -93421.7 215987 0 -89177.4 216102 0 -84932.7 216217 0 -80687.8 216331 0 -76442.6 216445 0 -72197.2 216558 0 -67951.5 216671 0 -63705.7 216783 0 -59459.6 216895 0 -55213.4 217006 0 -50966.9 217116 0 -46720.3 217226 0 -42473.6 217336 0 -38226.7 217445 0 -33979.6 217553 0 -29732.5 217661 0 -25485.2 217769 0 -21237.9 217875 0 -16990.4 217982 0 -12742.9 218087 0 -8495.3 218193 0 -4247.67 218297 0 0 218402 0 -537532 218441 0 -533362 218619 0 -529190 218797 0 -525017 218975 0 -520843 219154 0 -516667 219333 0 -512489 219512 0 -508310 219691 0 -504130 219870 0 -499948 220049 0 -495764 220229 0 -491580 220408 0 -487394 220588 0 -483206 220768 0 -479018 220947 0 -474828 221127 0 -470636 221307 0 -466444 221487 0 -462250 221668 0 -458055 221848 0 -453859 222028 0 -449661 222208 0 -445463 222388 0 -441263 222568 0 -437062 222748 0 -432859 222928 0 -428656 223108 0 -424452 223288 0 -420246 223468 0 -416039 223648 0 -411831 223828 0 -407622 224007 0 -403412 224187 0 -399201 224366 0 -394989 224546 0 -390776 224725 0 -386561 224904 0 -382346 225083 0 -378130 225262 0 -373912 225440 0 -369694 225618 0 -365475 225797 0 -361254 225975 0 -357033 226152 0 -352811 226330 0 -348587 226507 0 -344363 226684 0 -340138 226861 0 -335912 227038 0 -331685 227214 0 -327457 227390 0 -323228 227566 0 -318999 227741 0 -314768 227917 0 -310537 228091 0 -306304 228266 0 -302071 228440 0 -297837 228614 0 -293602 228788 0 -289367 228961 0 -285130 229134 0 -280893 229307 0 -276655 229479 0 -272416 229651 0 -268177 229822 0 -263936 229993 0 -259695 230164 0 -255453 230335 0 -251211 230504 0 -246967 230674 0 -242723 230843 0 -238479 231012 0 -234233 231180 0 -229987 231348 0 -225741 231516 0 -221493 231683 0 -217245 231849 0 -212996 232015 0 -208747 232181 0 -204497 232346 0 -200247 232511 0 -195996 232675 0 -191744 232839 0 -187492 233003 0 -183239 233165 0 -178985 233328 0 -174731 233490 0 -170477 233651 0 -166222 233812 0 -161967 233972 0 -157711 234132 0 -153454 234292 0 -149197 234451 0 -144940 234609 0 -140682 234767 0 -136424 234924 0 -132165 235081 0 -127906 235237 0 -123647 235393 0 -119387 235548 0 -115126 235703 0 -110866 235857 0 -106605 236010 0 -102343 236163 0 -98081.8 236315 0 -93819.8 236467 0 -89557.5 236619 0 -85295 236769 0 -81032.1 236919 0 -76769 237069 0 -72505.6 237218 0 -68241.9 237366 0 -63978.1 237514 0 -59714 237661 0 -55449.7 237808 0 -51185.1 237954 0 -46920.5 238100 0 -42655.6 238245 0 -38390.6 238389 0 -34125.4 238533 0 -29860.1 238676 0 -25594.6 238818 0 -21329.1 238960 0 -17063.4 239101 0 -12797.6 239242 0 -8531.83 239382 0 -4265.94 239522 0 0 239661 0 -539624 234907 0 -535441 235125 0 -531255 235344 0 -527069 235563 0 -522880 235781 0 -518690 236000 0 -514499 236219 0 -510306 236438 0 -506112 236657 0 -501916 236876 0 -497719 237096 0 -493520 237315 0 -489320 237534 0 -485119 237754 0 -480916 237973 0 -476712 238193 0 -472506 238412 0 -468299 238632 0 -464091 238851 0 -459881 239071 0 -455671 239290 0 -451459 239510 0 -447245 239729 0 -443031 239949 0 -438815 240168 0 -434598 240387 0 -430380 240607 0 -426161 240826 0 -421940 241045 0 -417718 241264 0 -413495 241483 0 -409271 241702 0 -405046 241920 0 -400820 242139 0 -396592 242357 0 -392364 242575 0 -388134 242793 0 -383904 243011 0 -379672 243228 0 -375439 243446 0 -371205 243663 0 -366970 243880 0 -362734 244097 0 -358497 244313 0 -354259 244530 0 -350020 244746 0 -345780 244961 0 -341538 245177 0 -337296 245392 0 -333053 245607 0 -328809 245822 0 -324565 246036 0 -320319 246250 0 -316072 246464 0 -311824 246677 0 -307576 246890 0 -303326 247103 0 -299076 247315 0 -294824 247527 0 -290572 247739 0 -286319 247950 0 -282066 248161 0 -277811 248371 0 -273555 248581 0 -269299 248791 0 -265042 249000 0 -260784 249209 0 -256525 249417 0 -252266 249625 0 -248006 249832 0 -243745 250039 0 -239483 250246 0 -235221 250452 0 -230957 250658 0 -226693 250863 0 -222429 251068 0 -218164 251272 0 -213898 251476 0 -209631 251679 0 -205364 251882 0 -201096 252084 0 -196828 252286 0 -192558 252487 0 -188289 252688 0 -184018 252888 0 -179747 253087 0 -175476 253286 0 -171204 253485 0 -166931 253683 0 -162658 253880 0 -158384 254077 0 -154110 254274 0 -149836 254469 0 -145560 254665 0 -141285 254859 0 -137009 255053 0 -132732 255247 0 -128455 255440 0 -124178 255632 0 -119900 255824 0 -115622 256015 0 -111343 256205 0 -107064 256395 0 -102784 256584 0 -98504.7 256773 0 -94224.6 256961 0 -89944.1 257148 0 -85663.3 257335 0 -81382.3 257521 0 -77100.9 257707 0 -72819.2 257892 0 -68537.3 258076 0 -64255.1 258259 0 -59972.7 258442 0 -55690 258625 0 -51407.2 258806 0 -47124.1 258987 0 -42840.8 259168 0 -38557.3 259347 0 -34273.7 259526 0 -29989.9 259705 0 -25705.9 259883 0 -21421.9 260060 0 -17137.7 260236 0 -12853.4 260412 0 -8569 260587 0 -4284.54 260761 0 0 260935 0 -541742 251368 0 -537544 251627 0 -533345 251886 0 -529144 252145 0 -524942 252404 0 -520738 252663 0 -516533 252922 0 -512326 253181 0 -508117 253440 0 -503907 253699 0 -499696 253959 0 -495483 254218 0 -491269 254477 0 -487053 254736 0 -482836 254996 0 -478617 255255 0 -474397 255514 0 -470176 255774 0 -465954 256033 0 -461730 256292 0 -457504 256551 0 -453277 256810 0 -449049 257069 0 -444820 257328 0 -440590 257587 0 -436358 257846 0 -432125 258105 0 -427890 258363 0 -423655 258622 0 -419418 258880 0 -415180 259138 0 -410941 259396 0 -406700 259654 0 -402459 259912 0 -398216 260169 0 -393972 260427 0 -389727 260684 0 -385481 260941 0 -381233 261198 0 -376985 261454 0 -372735 261710 0 -368484 261966 0 -364232 262222 0 -359980 262478 0 -355726 262733 0 -351471 262988 0 -347215 263243 0 -342957 263497 0 -338699 263751 0 -334440 264005 0 -330180 264258 0 -325919 264511 0 -321657 264764 0 -317393 265016 0 -313129 265268 0 -308864 265520 0 -304598 265771 0 -300331 266022 0 -296064 266273 0 -291795 266523 0 -287525 266772 0 -283255 267022 0 -278983 267271 0 -274711 267519 0 -270438 267767 0 -266164 268014 0 -261889 268261 0 -257613 268508 0 -253336 268754 0 -249059 269000 0 -244781 269245 0 -240502 269489 0 -236222 269733 0 -231942 269977 0 -227661 270220 0 -223379 270463 0 -219096 270705 0 -214813 270946 0 -210529 271187 0 -206244 271428 0 -201959 271668 0 -197672 271907 0 -193386 272146 0 -189098 272384 0 -184810 272622 0 -180521 272859 0 -176232 273095 0 -171942 273331 0 -167652 273566 0 -163361 273801 0 -159069 274035 0 -154777 274268 0 -150484 274501 0 -146191 274733 0 -141897 274965 0 -137603 275196 0 -133309 275426 0 -129013 275656 0 -124718 275885 0 -120422 276113 0 -116125 276341 0 -111828 276568 0 -107531 276794 0 -103233 277020 0 -98934.8 277245 0 -94636.2 277469 0 -90337.3 277693 0 -86038.1 277916 0 -81738.5 278138 0 -77438.6 278360 0 -73138.4 278580 0 -68837.9 278801 0 -64537.1 279020 0 -60236 279239 0 -55934.7 279457 0 -51633.1 279674 0 -47331.3 279891 0 -43029.3 280107 0 -38727.1 280322 0 -34424.7 280536 0 -30122.1 280750 0 -25819.3 280963 0 -21516.4 281175 0 -17213.3 281387 0 -12910.2 281598 0 -8606.86 281808 0 -4303.47 282017 0 0 282226 0 -543884 267825 0 -539673 268124 0 -535459 268424 0 -531244 268723 0 -527028 269022 0 -522810 269322 0 -518590 269621 0 -514369 269921 0 -510147 270220 0 -505922 270519 0 -501697 270819 0 -497470 271118 0 -493241 271417 0 -489011 271717 0 -484779 272016 0 -480546 272315 0 -476312 272614 0 -472076 272914 0 -467839 273213 0 -463600 273512 0 -459360 273811 0 -455118 274110 0 -450876 274408 0 -446631 274707 0 -442386 275006 0 -438139 275304 0 -433891 275603 0 -429642 275901 0 -425391 276199 0 -421139 276497 0 -416886 276795 0 -412631 277092 0 -408375 277390 0 -404118 277687 0 -399860 277984 0 -395601 278281 0 -391340 278577 0 -387078 278874 0 -382815 279170 0 -378551 279466 0 -374285 279761 0 -370019 280057 0 -365751 280352 0 -361482 280646 0 -357212 280941 0 -352941 281235 0 -348669 281529 0 -344396 281822 0 -340121 282115 0 -335846 282408 0 -331569 282701 0 -327292 282993 0 -323013 283284 0 -318734 283576 0 -314453 283867 0 -310171 284157 0 -305889 284447 0 -301605 284737 0 -297320 285026 0 -293035 285315 0 -288748 285603 0 -284461 285891 0 -280172 286178 0 -275883 286465 0 -271593 286752 0 -267302 287038 0 -263010 287323 0 -258717 287608 0 -254423 287893 0 -250128 288177 0 -245833 288460 0 -241537 288743 0 -237240 289025 0 -232942 289307 0 -228643 289588 0 -224344 289869 0 -220043 290149 0 -215742 290429 0 -211440 290707 0 -207138 290986 0 -202835 291263 0 -198531 291541 0 -194226 291817 0 -189921 292093 0 -185615 292368 0 -181308 292643 0 -177001 292917 0 -172693 293190 0 -168384 293463 0 -164075 293735 0 -159765 294006 0 -155455 294277 0 -151144 294547 0 -146832 294816 0 -142520 295085 0 -138208 295353 0 -133895 295620 0 -129581 295887 0 -125267 296153 0 -120952 296418 0 -116637 296682 0 -112322 296946 0 -108006 297209 0 -103689 297471 0 -99372.4 297733 0 -95055.1 297993 0 -90737.5 298253 0 -86419.5 298513 0 -82101.1 298771 0 -77782.3 299029 0 -73463.2 299286 0 -69143.8 299542 0 -64824.1 299798 0 -60504.1 300052 0 -56183.8 300306 0 -51863.2 300559 0 -47542.3 300812 0 -43221.3 301063 0 -38899.9 301314 0 -34578.4 301564 0 -30256.7 301813 0 -25934.7 302062 0 -21612.6 302309 0 -17290.4 302556 0 -12968 302802 0 -8645.43 303047 0 -4322.77 303292 0 0 303535 0 -546052 284279 0 -541826 284619 0 -537599 284959 0 -533369 285299 0 -529139 285638 0 -524906 285978 0 -520672 286318 0 -516437 286658 0 -512200 286997 0 -507961 287337 0 -503721 287677 0 -499480 288016 0 -495237 288356 0 -490992 288695 0 -486746 289035 0 -482498 289374 0 -478249 289713 0 -473999 290053 0 -469747 290392 0 -465493 290731 0 -461238 291070 0 -456982 291409 0 -452724 291748 0 -448465 292086 0 -444205 292425 0 -439943 292763 0 -435680 293102 0 -431415 293440 0 -427149 293778 0 -422882 294115 0 -418613 294453 0 -414343 294790 0 -410072 295128 0 -405800 295464 0 -401526 295801 0 -397251 296138 0 -392974 296474 0 -388697 296810 0 -384418 297146 0 -380138 297481 0 -375856 297816 0 -371574 298151 0 -367290 298486 0 -363005 298820 0 -358719 299154 0 -354432 299487 0 -350144 299820 0 -345854 300153 0 -341563 300486 0 -337271 300818 0 -332978 301149 0 -328684 301481 0 -324389 301812 0 -320093 302142 0 -315796 302472 0 -311497 302802 0 -307198 303131 0 -302897 303459 0 -298596 303788 0 -294293 304115 0 -289990 304443 0 -285685 304769 0 -281380 305096 0 -277073 305421 0 -272766 305747 0 -268457 306071 0 -264148 306395 0 -259838 306719 0 -255526 307042 0 -251214 307365 0 -246901 307687 0 -242588 308008 0 -238273 308329 0 -233957 308649 0 -229641 308968 0 -225324 309287 0 -221005 309605 0 -216687 309923 0 -212367 310240 0 -208046 310557 0 -203725 310872 0 -199403 311187 0 -195080 311502 0 -190757 311816 0 -186433 312129 0 -182108 312441 0 -177782 312753 0 -173456 313064 0 -169129 313374 0 -164801 313684 0 -160473 313992 0 -156144 314301 0 -151815 314608 0 -147485 314915 0 -143154 315221 0 -138823 315526 0 -134491 315830 0 -130159 316134 0 -125826 316437 0 -121492 316739 0 -117158 317040 0 -112824 317341 0 -108489 317640 0 -104154 317939 0 -99817.8 318238 0 -95481.5 318535 0 -91144.8 318832 0 -86807.7 319127 0 -82470.2 319422 0 -78132.3 319716 0 -73794 320010 0 -69455.4 320302 0 -65116.4 320594 0 -60777.1 320884 0 -56437.4 321174 0 -52097.5 321463 0 -47757.3 321752 0 -43416.8 322039 0 -39076 322325 0 -34735 322611 0 -30393.8 322896 0 -26052.4 323180 0 -21710.7 323463 0 -17368.9 323745 0 -13026.9 324026 0 -8684.74 324306 0 -4342.44 324586 0 0 324864 0 -548245 300732 0 -544004 301112 0 -539762 301492 0 -535519 301872 0 -531274 302253 0 -527027 302633 0 -522779 303013 0 -518529 303393 0 -514278 303773 0 -510025 304153 0 -505770 304533 0 -501514 304913 0 -497256 305293 0 -492997 305673 0 -488736 306052 0 -484474 306432 0 -480210 306812 0 -475945 307191 0 -471678 307571 0 -467410 307950 0 -463140 308329 0 -458869 308709 0 -454596 309088 0 -450322 309466 0 -446047 309845 0 -441770 310224 0 -437491 310602 0 -433211 310980 0 -428930 311358 0 -424648 311736 0 -420364 312114 0 -416078 312491 0 -411791 312868 0 -407503 313245 0 -403214 313622 0 -398923 313998 0 -394631 314374 0 -390337 314750 0 -386043 315126 0 -381747 315501 0 -377449 315876 0 -373151 316251 0 -368851 316625 0 -364550 316999 0 -360248 317372 0 -355944 317746 0 -351639 318119 0 -347333 318491 0 -343026 318863 0 -338718 319235 0 -334408 319606 0 -330097 319977 0 -325785 320347 0 -321472 320717 0 -317158 321086 0 -312843 321455 0 -308526 321823 0 -304209 322191 0 -299890 322559 0 -295571 322926 0 -291250 323292 0 -286928 323658 0 -282605 324023 0 -278282 324388 0 -273957 324752 0 -269631 325116 0 -265304 325479 0 -260976 325841 0 -256647 326203 0 -252318 326564 0 -247987 326925 0 -243655 327285 0 -239323 327644 0 -234989 328003 0 -230655 328361 0 -226320 328719 0 -221983 329075 0 -217646 329431 0 -213309 329787 0 -208970 330142 0 -204630 330496 0 -200290 330849 0 -195949 331201 0 -191607 331553 0 -187265 331904 0 -182921 332255 0 -178577 332604 0 -174232 332953 0 -169887 333301 0 -165540 333649 0 -161193 333995 0 -156846 334341 0 -152497 334686 0 -148149 335030 0 -143799 335373 0 -139449 335716 0 -135098 336058 0 -130747 336399 0 -126395 336739 0 -122042 337078 0 -117689 337416 0 -113335 337754 0 -108981 338091 0 -104627 338426 0 -100271 338761 0 -95915.7 339096 0 -91559.7 339429 0 -87203.1 339761 0 -82846.1 340093 0 -78488.7 340423 0 -74130.9 340753 0 -69772.7 341082 0 -65414.1 341409 0 -61055.2 341736 0 -56695.9 342062 0 -52336.3 342388 0 -47976.3 342712 0 -43616.1 343035 0 -39255.5 343357 0 -34894.7 343679 0 -30533.6 343999 0 -26172.3 344319 0 -21810.7 344637 0 -17449 344955 0 -13087 345271 0 -8724.82 345587 0 -4362.49 345902 0 0 346215 0 -550462 317182 0 -546207 317603 0 -541951 318024 0 -537693 318444 0 -533434 318865 0 -529173 319286 0 -524910 319706 0 -520646 320127 0 -516380 320548 0 -512113 320968 0 -507844 321389 0 -503573 321809 0 -499301 322229 0 -495027 322650 0 -490752 323070 0 -486475 323490 0 -482196 323910 0 -477916 324330 0 -473634 324750 0 -469351 325170 0 -465067 325590 0 -460780 326009 0 -456493 326429 0 -452203 326848 0 -447913 327267 0 -443621 327686 0 -439327 328105 0 -435032 328523 0 -430735 328942 0 -426437 329360 0 -422137 329778 0 -417836 330195 0 -413534 330613 0 -409230 331030 0 -404925 331447 0 -400618 331863 0 -396310 332280 0 -392001 332696 0 -387690 333111 0 -383378 333527 0 -379065 333942 0 -374750 334356 0 -370434 334771 0 -366117 335185 0 -361798 335598 0 -357478 336011 0 -353157 336424 0 -348834 336836 0 -344510 337248 0 -340185 337659 0 -335859 338070 0 -331531 338481 0 -327202 338891 0 -322872 339300 0 -318541 339709 0 -314209 340118 0 -309875 340526 0 -305541 340933 0 -301205 341340 0 -296868 341747 0 -292530 342152 0 -288191 342558 0 -283850 342962 0 -279509 343366 0 -275167 343770 0 -270823 344172 0 -266479 344575 0 -262133 344976 0 -257786 345377 0 -253439 345777 0 -249090 346177 0 -244740 346576 0 -240390 346974 0 -236038 347372 0 -231686 347769 0 -227332 348165 0 -222978 348560 0 -218622 348955 0 -214266 349349 0 -209909 349742 0 -205551 350134 0 -201192 350526 0 -196833 350917 0 -192472 351307 0 -188111 351696 0 -183749 352085 0 -179386 352473 0 -175022 352860 0 -170657 353246 0 -166292 353631 0 -161926 354015 0 -157560 354399 0 -153192 354782 0 -148824 355164 0 -144455 355545 0 -140086 355925 0 -135716 356304 0 -131345 356682 0 -126974 357060 0 -122602 357436 0 -118229 357812 0 -113856 358187 0 -109482 358561 0 -105108 358934 0 -100733 359306 0 -96358.1 359677 0 -91982.3 360047 0 -87606 360416 0 -83229.2 360784 0 -78852 361151 0 -74474.3 361517 0 -70096.1 361883 0 -65717.6 362247 0 -61338.7 362610 0 -56959.4 362973 0 -52579.7 363334 0 -48199.6 363694 0 -43819.2 364053 0 -39438.5 364412 0 -35057.5 364769 0 -30676.2 365125 0 -26294.6 365480 0 -21912.7 365835 0 -17530.6 366188 0 -13148.3 366540 0 -8765.7 366891 0 -4382.94 367241 0 0 367590 0 -552703 333631 0 -548434 334093 0 -544164 334554 0 -539892 335015 0 -535618 335476 0 -531343 335938 0 -527066 336399 0 -522788 336860 0 -518507 337321 0 -514225 337782 0 -509942 338244 0 -505657 338705 0 -501370 339166 0 -497082 339627 0 -492792 340088 0 -488500 340549 0 -484207 341009 0 -479912 341470 0 -475615 341931 0 -471317 342391 0 -467018 342852 0 -462716 343312 0 -458414 343772 0 -454109 344232 0 -449803 344692 0 -445496 345151 0 -441187 345610 0 -436876 346070 0 -432564 346528 0 -428251 346987 0 -423936 347446 0 -419619 347904 0 -415301 348362 0 -410981 348819 0 -406660 349277 0 -402338 349734 0 -398014 350190 0 -393688 350647 0 -389362 351103 0 -385033 351558 0 -380704 352014 0 -376373 352469 0 -372040 352923 0 -367706 353377 0 -363371 353831 0 -359034 354284 0 -354697 354737 0 -350357 355190 0 -346017 355642 0 -341675 356093 0 -337332 356544 0 -332987 356995 0 -328641 357445 0 -324294 357894 0 -319946 358343 0 -315596 358791 0 -311246 359239 0 -306894 359686 0 -302540 360133 0 -298186 360579 0 -293830 361024 0 -289473 361469 0 -285116 361913 0 -280756 362357 0 -276396 362800 0 -272035 363242 0 -267672 363684 0 -263309 364125 0 -258944 364565 0 -254578 365004 0 -250211 365443 0 -245844 365881 0 -241475 366319 0 -237105 366755 0 -232734 367191 0 -228362 367626 0 -223989 368061 0 -219615 368494 0 -215240 368927 0 -210864 369359 0 -206488 369790 0 -202110 370220 0 -197732 370650 0 -193352 371078 0 -188972 371506 0 -184591 371933 0 -180209 372359 0 -175826 372785 0 -171442 373209 0 -167058 373632 0 -162672 374055 0 -158286 374476 0 -153900 374897 0 -149512 375317 0 -145124 375736 0 -140735 376154 0 -136345 376571 0 -131955 376987 0 -127564 377402 0 -123172 377816 0 -118780 378229 0 -114387 378641 0 -109993 379052 0 -105599 379463 0 -101204 379872 0 -96808.9 380280 0 -92413 380687 0 -88016.6 381093 0 -83619.6 381498 0 -79222.2 381902 0 -74824.3 382305 0 -70425.9 382707 0 -66027 383108 0 -61627.7 383508 0 -57228 383906 0 -52827.9 384304 0 -48427.3 384700 0 -44026.4 385096 0 -39625.1 385490 0 -35223.5 385884 0 -30821.6 386276 0 -26419.3 386667 0 -22016.7 387057 0 -17613.9 387446 0 -13210.8 387833 0 -8807.41 388220 0 -4403.81 388605 0 0 388990 0 -554969 350079 0 -550686 350581 0 -546402 351082 0 -542116 351584 0 -537828 352086 0 -533538 352588 0 -529247 353090 0 -524954 353592 0 -520660 354094 0 -516364 354596 0 -512066 355098 0 -507766 355600 0 -503465 356102 0 -499162 356604 0 -494857 357106 0 -490551 357608 0 -486243 358110 0 -481933 358611 0 -477622 359113 0 -473309 359614 0 -468994 360115 0 -464678 360616 0 -460360 361117 0 -456041 361618 0 -451719 362119 0 -447397 362619 0 -443072 363119 0 -438746 363619 0 -434419 364119 0 -430089 364619 0 -425759 365118 0 -421426 365617 0 -417093 366116 0 -412757 366614 0 -408420 367112 0 -404082 367610 0 -399742 368107 0 -395400 368604 0 -391057 369101 0 -386713 369597 0 -382367 370093 0 -378019 370589 0 -373670 371084 0 -369320 371578 0 -364968 372073 0 -360615 372566 0 -356260 373060 0 -351904 373553 0 -347546 374045 0 -343188 374537 0 -338827 375028 0 -334466 375519 0 -330103 376009 0 -325738 376499 0 -321373 376988 0 -317006 377476 0 -312638 377964 0 -308268 378451 0 -303897 378938 0 -299525 379424 0 -295152 379909 0 -290777 380394 0 -286401 380878 0 -282024 381362 0 -277646 381844 0 -273267 382326 0 -268886 382807 0 -264504 383288 0 -260121 383768 0 -255737 384247 0 -251352 384725 0 -246966 385203 0 -242578 385679 0 -238190 386155 0 -233800 386630 0 -229410 387105 0 -225018 387578 0 -220625 388051 0 -216231 388523 0 -211837 388994 0 -207441 389464 0 -203044 389933 0 -198647 390401 0 -194248 390869 0 -189848 391335 0 -185448 391801 0 -181047 392266 0 -176644 392729 0 -172241 393192 0 -167837 393654 0 -163432 394115 0 -159027 394575 0 -154620 395034 0 -150213 395492 0 -145805 395949 0 -141396 396405 0 -136986 396859 0 -132576 397313 0 -128165 397766 0 -123753 398218 0 -119341 398669 0 -114928 399119 0 -110514 399567 0 -106099 400015 0 -101684 400461 0 -97268.5 400907 0 -92852.1 401351 0 -88435.3 401794 0 -84017.8 402236 0 -79599.8 402677 0 -75181.2 403117 0 -70762.2 403556 0 -66342.6 403993 0 -61922.6 404430 0 -57502 404865 0 -53081.1 405299 0 -48659.6 405732 0 -44237.8 406164 0 -39815.6 406595 0 -35392.9 407024 0 -30969.9 407453 0 -26546.6 407880 0 -22122.9 408305 0 -17698.9 408730 0 -13274.6 409154 0 -8849.99 409576 0 -4425.12 409997 0 0 410417 0 -557259 366524 0 -552963 367067 0 -548665 367609 0 -544365 368152 0 -540063 368695 0 -535759 369238 0 -531454 369781 0 -527147 370324 0 -522838 370867 0 -518528 371410 0 -514216 371953 0 -509902 372496 0 -505586 373039 0 -501268 373582 0 -496949 374125 0 -492628 374668 0 -488305 375211 0 -483981 375754 0 -479655 376296 0 -475327 376839 0 -470997 377381 0 -466666 377924 0 -462333 378466 0 -457998 379008 0 -453662 379549 0 -449324 380091 0 -444984 380632 0 -440642 381173 0 -436299 381714 0 -431954 382255 0 -427608 382795 0 -423260 383335 0 -418910 383875 0 -414559 384415 0 -410206 384954 0 -405851 385492 0 -401495 386031 0 -397137 386569 0 -392778 387107 0 -388417 387644 0 -384055 388181 0 -379691 388717 0 -375325 389253 0 -370958 389788 0 -366589 390323 0 -362219 390858 0 -357848 391392 0 -353475 391926 0 -349100 392459 0 -344724 392991 0 -340347 393523 0 -335968 394054 0 -331587 394585 0 -327206 395115 0 -322823 395645 0 -318438 396174 0 -314052 396702 0 -309665 397229 0 -305276 397756 0 -300887 398283 0 -296495 398808 0 -292103 399333 0 -287709 399857 0 -283314 400381 0 -278917 400904 0 -274519 401426 0 -270121 401947 0 -265720 402467 0 -261319 402987 0 -256916 403506 0 -252512 404024 0 -248107 404541 0 -243701 405057 0 -239294 405573 0 -234886 406088 0 -230476 406601 0 -226065 407