<?xml version="1.0"?> 
<VTKFile type="StructuredGrid" version="0.1"> 
<StructuredGrid WholeExtent="0 127 0 127 0 0"> 
<Piece Extent="0 127 0 127 0 0"> 
<PointData>
<DataArray type="Float32" Name="E" format="ascii" NumberOfComponents="3"> 
564949 8.56863e+06 0 -221910 7.94776e+06 0 -424905 7.69454e+06 0 -613641 7.4464e+06 0 -734572 7.2477e+06 0 -833180 7.06447e+06 0 -906069 6.90174e+06 0 -963471 6.75268e+06 0 -1.0074e+06 6.6166e+06 0 -1.04135e+06 6.49123e+06 0 -1.06709e+06 6.37547e+06 0 -1.08629e+06 6.26812e+06 0 -1.10013e+06 6.16828e+06 0 -1.10958e+06 6.07517e+06 0 -1.11539e+06 5.98811e+06 0 -1.11818e+06 5.90651e+06 0 -1.11845e+06 5.82988e+06 0 -1.1166e+06 5.75775e+06 0 -1.11297e+06 5.68975e+06 0 -1.10784e+06 5.62552e+06 0 -1.10144e+06 5.56475e+06 0 -1.09397e+06 5.50717e+06 0 -1.0856e+06 5.45253e+06 0 -1.07646e+06 5.40061e+06 0 -1.06667e+06 5.3512e+06 0 -1.05634e+06 5.30414e+06 0 -1.04555e+06 5.25925e+06 0 -1.03437e+06 5.21639e+06 0 -1.02287e+06 5.17542e+06 0 -1.01111e+06 5.13622e+06 0 -999129 5.09868e+06 0 -986969 5.06269e+06 0 -974668 5.02816e+06 0 -962256 4.99501e+06 0 -949759 4.96315e+06 0 -937202 4.93251e+06 0 -924603 4.90302e+06 0 -911981 4.87462e+06 0 -899351 4.84725e+06 0 -886726 4.82087e+06 0 -874118 4.7954e+06 0 -861536 4.77082e+06 0 -848990 4.74708e+06 0 -836486 4.72414e+06 0 -824031 4.70196e+06 0 -811630 4.6805e+06 0 -799289 4.65973e+06 0 -787010 4.63962e+06 0 -774799 4.62015e+06 0 -762656 4.60128e+06 0 -750586 4.583e+06 0 -738589 4.56526e+06 0 -726667 4.54807e+06 0 -714821 4.53138e+06 0 -703053 4.51519e+06 0 -691363 4.49947e+06 0 -679751 4.48421e+06 0 -668217 4.46939e+06 0 -656762 4.45499e+06 0 -645386 4.441e+06 0 -634087 4.42741e+06 0 -622867 4.4142e+06 0 -611723 4.40136e+06 0 -600656 4.38888e+06 0 -589665 4.37674e+06 0 -578748 4.36494e+06 0 -567906 4.35346e+06 0 -557138 4.3423e+06 0 -546441 4.33145e+06 0 -535816 4.32089e+06 0 -525261 4.31063e+06 0 -514775 4.30064e+06 0 -504357 4.29093e+06 0 -494006 4.28149e+06 0 -483720 4.27231e+06 0 -473499 4.26338e+06 0 -463342 4.2547e+06 0 -453246 4.24626e+06 0 -443211 4.23806e+06 0 -433236 4.23009e+06 0 -423319 4.22234e+06 0 -413459 4.21482e+06 0 -403655 4.20751e+06 0 -393906 4.20041e+06 0 -384209 4.19352e+06 0 -374565 4.18684e+06 0 -364971 4.18036e+06 0 -355427 4.17407e+06 0 -345931 4.16797e+06 0 -336482 4.16207e+06 0 -327079 4.15635e+06 0 -317720 4.15082e+06 0 -308404 4.14546e+06 0 -299130 4.14029e+06 0 -289897 4.13529e+06 0 -280703 4.13046e+06 0 -271547 4.1258e+06 0 -262428 4.12131e+06 0 -253344 4.11699e+06 0 -244295 4.11283e+06 0 -235280 4.10883e+06 0 -226296 4.10499e+06 0 -217343 4.10131e+06 0 -208419 4.09779e+06 0 -199524 4.09442e+06 0 -190656 4.09121e+06 0 -181814 4.08815e+06 0 -172996 4.08524e+06 0 -164202 4.08247e+06 0 -155430 4.07986e+06 0 -146679 4.0774e+06 0 -137948 4.07508e+06 0 -129236 4.0729e+06 0 -120542 4.07087e+06 0 -111863 4.06899e+06 0 -103200 4.06724e+06 0 -94551.1 4.06564e+06 0 -85914.8 4.06418e+06 0 -77290.2 4.06286e+06 0 -68676 4.06168e+06 0 -60071.2 4.06064e+06 0 -51474.5 4.05974e+06 0 -42884.7 4.05898e+06 0 -34300.8 4.05836e+06 0 -25721.6 4.05788e+06 0 -17145.6 4.05753e+06 0 -8572.38 4.05732e+06 0 0 4.05725e+06 0 525436 7.96933e+06 0 9189.52 7.79956e+06 0 -289112 7.56346e+06 0 -480218 7.36766e+06 0 -623299 7.18395e+06 0 -730356 7.01871e+06 0 -813877 6.86618e+06 0 -878826 6.72605e+06 0 -929881 6.59643e+06 0 -969820 6.47634e+06 0 -1.00094e+06 6.36472e+06 0 -1.02489e+06 6.26074e+06 0 -1.04299e+06 6.16364e+06 0 -1.05626e+06 6.07277e+06 0 -1.06552e+06 5.98755e+06 0 -1.07143e+06 5.90748e+06 0 -1.07453e+06 5.83212e+06 0 -1.07526e+06 5.76105e+06 0 -1.07398e+06 5.69393e+06 0 -1.07101e+06 5.63043e+06 0 -1.0666e+06 5.57028e+06 0 -1.06096e+06 5.51321e+06 0 -1.05427e+06 5.45899e+06 0 -1.04669e+06 5.40743e+06 0 -1.03835e+06 5.35832e+06 0 -1.02936e+06 5.31149e+06 0 -1.01982e+06 5.2668e+06 0 -1.00981e+06 5.2241e+06 0 -999398 5.18326e+06 0 -988651 5.14416e+06 0 -977621 5.10669e+06 0 -966354 5.07076e+06 0 -954892 5.03627e+06 0 -943269 5.00314e+06 0 -931516 4.97129e+06 0 -919659 4.94065e+06 0 -907722 4.91115e+06 0 -895727 4.88273e+06 0 -883689 4.85534e+06 0 -871626 4.82892e+06 0 -859550 4.80342e+06 0 -847474 4.7788e+06 0 -835409 4.75501e+06 0 -823363 4.73202e+06 0 -811344 4.70979e+06 0 -799359 4.68827e+06 0 -787415 4.66745e+06 0 -775516 4.64729e+06 0 -763667 4.62776e+06 0 -751872 4.60884e+06 0 -740134 4.59049e+06 0 -728456 4.5727e+06 0 -716840 4.55544e+06 0 -705289 4.5387e+06 0 -693803 4.52245e+06 0 -682384 4.50667e+06 0 -671034 4.49135e+06 0 -659753 4.47647e+06 0 -648541 4.46202e+06 0 -637399 4.44797e+06 0 -626327 4.43433e+06 0 -615325 4.42106e+06 0 -604393 4.40816e+06 0 -593531 4.39563e+06 0 -582738 4.38344e+06 0 -572014 4.37158e+06 0 -561358 4.36005e+06 0 -550770 4.34884e+06 0 -540249 4.33794e+06 0 -529794 4.32733e+06 0 -519405 4.31702e+06 0 -509080 4.30699e+06 0 -498820 4.29723e+06 0 -488621 4.28774e+06 0 -478485 4.27852e+06 0 -468410 4.26954e+06 0 -458394 4.26082e+06 0 -448437 4.25234e+06 0 -438537 4.24409e+06 0 -428694 4.23608e+06 0 -418907 4.2283e+06 0 -409174 4.22074e+06 0 -399493 4.21339e+06 0 -389865 4.20626e+06 0 -380288 4.19933e+06 0 -370761 4.19262e+06 0 -361282 4.1861e+06 0 -351850 4.17978e+06 0 -342465 4.17365e+06 0 -333125 4.16772e+06 0 -323828 4.16197e+06 0 -314575 4.1564e+06 0 -305362 4.15102e+06 0 -296190 4.14582e+06 0 -287058 4.14079e+06 0 -277963 4.13594e+06 0 -268905 4.13125e+06 0 -259882 4.12674e+06 0 -250894 4.12239e+06 0 -241939 4.11821e+06 0 -233017 4.11419e+06 0 -224125 4.11033e+06 0 -215263 4.10663e+06 0 -206429 4.10309e+06 0 -197623 4.09971e+06 0 -188843 4.09647e+06 0 -180089 4.09339e+06 0 -171358 4.09047e+06 0 -162650 4.08769e+06 0 -153963 4.08506e+06 0 -145297 4.08259e+06 0 -136651 4.08025e+06 0 -128022 4.07807e+06 0 -119411 4.07603e+06 0 -110815 4.07413e+06 0 -102234 4.07238e+06 0 -93667.1 4.07077e+06 0 -85112.3 4.0693e+06 0 -76568.8 4.06797e+06 0 -68035.5 4.06679e+06 0 -59511.3 4.06574e+06 0 -50995 4.06484e+06 0 -42485.5 4.06407e+06 0 -33981.6 4.06344e+06 0 -25482.2 4.06296e+06 0 -16986.2 4.06261e+06 0 -8492.58 4.0624e+06 0 0 4.06233e+06 0 504367 7.64978e+06 0 119494 7.59208e+06 0 -167578 7.43692e+06 0 -369661 7.27379e+06 0 -520467 7.11566e+06 0 -636395 6.96609e+06 0 -727058 6.82598e+06 0 -798776 6.69492e+06 0 -855734 6.5725e+06 0 -901041 6.45805e+06 0 -936964 6.35098e+06 0 -965260 6.25068e+06 0 -987282 6.15659e+06 0 -1.00411e+06 6.0682e+06 0 -1.0166e+06 5.98504e+06 0 -1.02546e+06 5.90668e+06 0 -1.03126e+06 5.83274e+06 0 -1.03445e+06 5.76287e+06 0 -1.03545e+06 5.69676e+06 0 -1.03456e+06 5.63411e+06 0 -1.03207e+06 5.57466e+06 0 -1.0282e+06 5.5182e+06 0 -1.02316e+06 5.46449e+06 0 -1.0171e+06 5.41335e+06 0 -1.01017e+06 5.3646e+06 0 -1.0025e+06 5.31807e+06 0 -994183 5.27363e+06 0 -985316 5.23114e+06 0 -975975 5.19047e+06 0 -966231 5.15151e+06 0 -956141 5.11415e+06 0 -945757 5.07831e+06 0 -935125 5.04389e+06 0 -924283 5.01081e+06 0 -913267 4.979e+06 0 -902105 4.94838e+06 0 -890826 4.91889e+06 0 -879452 4.89048e+06 0 -868004 4.86308e+06 0 -856499 4.83664e+06 0 -844954 4.81112e+06 0 -833382 4.78648e+06 0 -821796 4.76266e+06 0 -810206 4.73963e+06 0 -798623 4.71736e+06 0 -787053 4.69581e+06 0 -775505 4.67494e+06 0 -763985 4.65474e+06 0 -752499 4.63516e+06 0 -741051 4.61618e+06 0 -729645 4.59779e+06 0 -718286 4.57995e+06 0 -706977 4.56264e+06 0 -695719 4.54584e+06 0 -684516 4.52954e+06 0 -673370 4.51371e+06 0 -662281 4.49834e+06 0 -651253 4.48341e+06 0 -640284 4.4689e+06 0 -629377 4.4548e+06 0 -618532 4.4411e+06 0 -607749 4.42779e+06 0 -597030 4.41484e+06 0 -586373 4.40225e+06 0 -575778 4.39001e+06 0 -565247 4.37811e+06 0 -554778 4.36653e+06 0 -544372 4.35527e+06 0 -534027 4.34432e+06 0 -523743 4.33367e+06 0 -513520 4.32331e+06 0 -503358 4.31324e+06 0 -493254 4.30344e+06 0 -483210 4.2939e+06 0 -473223 4.28463e+06 0 -463294 4.27562e+06 0 -453420 4.26685e+06 0 -443602 4.25833e+06 0 -433839 4.25005e+06 0 -424129 4.242e+06 0 -414471 4.23418e+06 0 -404865 4.22658e+06 0 -395310 4.2192e+06 0 -385804 4.21203e+06 0 -376347 4.20507e+06 0 -366936 4.19832e+06 0 -357573 4.19177e+06 0 -348254 4.18542e+06 0 -338980 4.17926e+06 0 -329749 4.1733e+06 0 -320560 4.16752e+06 0 -311412 4.16193e+06 0 -302304 4.15652e+06 0 -293235 4.15129e+06 0 -284203 4.14623e+06 0 -275208 4.14135e+06 0 -266248 4.13665e+06 0 -257323 4.13211e+06 0 -248431 4.12774e+06 0 -239570 4.12354e+06 0 -230741 4.1195e+06 0 -221942 4.11562e+06 0 -213171 4.1119e+06 0 -204428 4.10834e+06 0 -195712 4.10493e+06 0 -187021 4.10168e+06 0 -178354 4.09859e+06 0 -169711 4.09565e+06 0 -161089 4.09286e+06 0 -152488 4.09022e+06 0 -143908 4.08772e+06 0 -135346 4.08538e+06 0 -126801 4.08318e+06 0 -118274 4.08113e+06 0 -109761 4.07922e+06 0 -101263 4.07746e+06 0 -92778 4.07584e+06 0 -84305.2 4.07436e+06 0 -75843.4 4.07303e+06 0 -67391.4 4.07184e+06 0 -58948.3 4.07079e+06 0 -50512.8 4.06988e+06 0 -42083.9 4.06911e+06 0 -33660.5 4.06848e+06 0 -25241.6 4.06799e+06 0 -16825.9 4.06764e+06 0 -8412.39 4.06743e+06 0 0 4.06736e+06 0 489655 7.42664e+06 0 183221 7.40751e+06 0 -76375.5 7.30594e+06 0 -275668 7.17692e+06 0 -429743 7.0421e+06 0 -550558 6.90931e+06 0 -646564 6.78162e+06 0 -723456 6.66016e+06 0 -785343 6.54523e+06 0 -835223 6.43677e+06 0 -875378 6.33453e+06 0 -907562 6.23817e+06 0 -933157 6.14732e+06 0 -953264 6.06161e+06 0 -968769 5.98069e+06 0 -980394 5.9042e+06 0 -988733 5.83183e+06 0 -994276 5.76328e+06 0 -997433 5.69829e+06 0 -998546 5.63659e+06 0 -997904 5.57795e+06 0 -995752 5.52217e+06 0 -992299 5.46904e+06 0 -987721 5.41839e+06 0 -982173 5.37006e+06 0 -975784 5.3239e+06 0 -968668 5.27976e+06 0 -960923 5.23752e+06 0 -952634 5.19706e+06 0 -943875 5.15828e+06 0 -934711 5.12107e+06 0 -925197 5.08535e+06 0 -915385 5.05103e+06 0 -905315 5.01803e+06 0 -895028 4.98628e+06 0 -884556 4.95571e+06 0 -873928 4.92625e+06 0 -863171 4.89786e+06 0 -852307 4.87047e+06 0 -841358 4.84404e+06 0 -830340 4.81852e+06 0 -819269 4.79386e+06 0 -808160 4.77003e+06 0 -797025 4.74698e+06 0 -785875 4.72468e+06 0 -774719 4.7031e+06 0 -763566 4.6822e+06 0 -752424 4.66196e+06 0 -741299 4.64235e+06 0 -730198 4.62333e+06 0 -719124 4.60489e+06 0 -708084 4.58701e+06 0 -697080 4.56966e+06 0 -686117 4.55282e+06 0 -675197 4.53647e+06 0 -664323 4.52059e+06 0 -653496 4.50517e+06 0 -642720 4.49019e+06 0 -631995 4.47564e+06 0 -621324 4.4615e+06 0 -610706 4.44775e+06 0 -600143 4.43439e+06 0 -589635 4.42139e+06 0 -579184 4.40876e+06 0 -568789 4.39647e+06 0 -558451 4.38452e+06 0 -548170 4.3729e+06 0 -537945 4.3616e+06 0 -527777 4.3506e+06 0 -517665 4.33991e+06 0 -507609 4.32951e+06 0 -497608 4.31939e+06 0 -487663 4.30954e+06 0 -477773 4.29997e+06 0 -467936 4.29066e+06 0 -458153 4.28161e+06 0 -448423 4.27281e+06 0 -438745 4.26425e+06 0 -429117 4.25593e+06 0 -419541 4.24784e+06 0 -410014 4.23998e+06 0 -400536 4.23235e+06 0 -391105 4.22493e+06 0 -381722 4.21773e+06 0 -372385 4.21074e+06 0 -363093 4.20396e+06 0 -353845 4.19738e+06 0 -344640 4.19099e+06 0 -335478 4.18481e+06 0 -326356 4.17881e+06 0 -317275 4.17301e+06 0 -308234 4.16739e+06 0 -299230 4.16195e+06 0 -290264 4.15669e+06 0 -281334 4.15161e+06 0 -272439 4.14671e+06 0 -263578 4.14198e+06 0 -254750 4.13742e+06 0 -245954 4.13303e+06 0 -237189 4.1288e+06 0 -228454 4.12474e+06 0 -219747 4.12084e+06 0 -211069 4.11711e+06 0 -202417 4.11353e+06 0 -193790 4.11011e+06 0 -185189 4.10684e+06 0 -176610 4.10373e+06 0 -168054 4.10077e+06 0 -159520 4.09797e+06 0 -151006 4.09531e+06 0 -142511 4.09281e+06 0 -134034 4.09045e+06 0 -125574 4.08824e+06 0 -117130 4.08618e+06 0 -108701 4.08426e+06 0 -100286 4.08249e+06 0 -91884.1 4.08086e+06 0 -83493.7 4.07938e+06 0 -75113.9 4.07804e+06 0 -66743.8 4.07684e+06 0 -58382.1 4.07578e+06 0 -50028 4.07487e+06 0 -41680.2 4.0741e+06 0 -33337.7 4.07346e+06 0 -24999.6 4.07297e+06 0 -16664.6 4.07262e+06 0 -8331.77 4.07241e+06 0 0 4.07234e+06 0 478219 7.25319e+06 0 222675 7.24817e+06 0 -7847.63 7.18039e+06 0 -197775 7.07965e+06 0 -350386 6.96626e+06 0 -473170 6.84956e+06 0 -572435 6.73423e+06 0 -653104 6.62241e+06 0 -718864 6.51516e+06 0 -772546 6.41288e+06 0 -816331 6.31567e+06 0 -851941 6.22344e+06 0 -880742 6.13601e+06 0 -903834 6.05315e+06 0 -922112 5.97461e+06 0 -936311 5.90013e+06 0 -947037 5.82946e+06 0 -954794 5.76235e+06 0 -960006 5.69858e+06 0 -963027 5.63792e+06 0 -964158 5.58017e+06 0 -963657 5.52515e+06 0 -961741 5.47268e+06 0 -958597 5.42259e+06 0 -954386 5.37473e+06 0 -949248 5.32898e+06 0 -943304 5.28519e+06 0 -936656 5.24325e+06 0 -929397 5.20305e+06 0 -921605 5.16448e+06 0 -913351 5.12746e+06 0 -904694 5.09189e+06 0 -895689 5.0577e+06 0 -886382 5.0248e+06 0 -876814 4.99314e+06 0 -867023 4.96264e+06 0 -857040 4.93324e+06 0 -846894 4.90489e+06 0 -836610 4.87753e+06 0 -826211 4.85112e+06 0 -815716 4.82561e+06 0 -805143 4.80096e+06 0 -794509 4.77712e+06 0 -783826 4.75407e+06 0 -773107 4.73175e+06 0 -762363 4.71015e+06 0 -751604 4.68923e+06 0 -740838 4.66896e+06 0 -730074 4.64932e+06 0 -719318 4.63027e+06 0 -708576 4.6118e+06 0 -697854 4.59388e+06 0 -687156 4.5765e+06 0 -676486 4.55962e+06 0 -665849 4.54323e+06 0 -655246 4.52731e+06 0 -644682 4.51185e+06 0 -634158 4.49683e+06 0 -623678 4.48224e+06 0 -613241 4.46805e+06 0 -602851 4.45426e+06 0 -592508 4.44085e+06 0 -582213 4.42782e+06 0 -571968 4.41514e+06 0 -561772 4.40281e+06 0 -551628 4.39082e+06 0 -541534 4.37916e+06 0 -531491 4.36782e+06 0 -521500 4.35678e+06 0 -511560 4.34604e+06 0 -501671 4.3356e+06 0 -491834 4.32544e+06 0 -482047 4.31556e+06 0 -472311 4.30595e+06 0 -462625 4.2966e+06 0 -452989 4.28751e+06 0 -443402 4.27867e+06 0 -433864 4.27007e+06 0 -424374 4.26172e+06 0 -414931 4.2536e+06 0 -405535 4.24571e+06 0 -396185 4.23804e+06 0 -386880 4.23059e+06 0 -377620 4.22336e+06 0 -368404 4.21633e+06 0 -359230 4.20952e+06 0 -350098 4.20291e+06 0 -341008 4.1965e+06 0 -331957 4.19028e+06 0 -322946 4.18426e+06 0 -313974 4.17843e+06 0 -305039 4.17278e+06 0 -296141 4.16732e+06 0 -287278 4.16204e+06 0 -278450 4.15693e+06 0 -269655 4.15201e+06 0 -260893 4.14725e+06 0 -252163 4.14267e+06 0 -243464 4.13826e+06 0 -234795 4.13401e+06 0 -226154 4.12993e+06 0 -217541 4.12602e+06 0 -208955 4.12226e+06 0 -200394 4.11866e+06 0 -191859 4.11523e+06 0 -183347 4.11194e+06 0 -174857 4.10882e+06 0 -166390 4.10585e+06 0 -157942 4.10303e+06 0 -149515 4.10036e+06 0 -141106 4.09784e+06 0 -132715 4.09547e+06 0 -124340 4.09325e+06 0 -115981 4.09118e+06 0 -107636 4.08925e+06 0 -99304.5 4.08747e+06 0 -90985.5 4.08584e+06 0 -82677.9 4.08435e+06 0 -74380.6 4.083e+06 0 -66092.7 4.08179e+06 0 -57813 4.08073e+06 0 -49540.5 4.07981e+06 0 -41274.3 4.07904e+06 0 -33013.2 4.0784e+06 0 -24756.3 4.07791e+06 0 -16502.5 4.07755e+06 0 -8250.72 4.07734e+06 0 0 4.07727e+06 0 468710 7.10897e+06 0 249315 7.11053e+06 0 44005.7 7.06351e+06 0 -133524 6.9849e+06 0 -281653 6.89003e+06 0 -403910 6.78823e+06 0 -504655 6.68473e+06 0 -587760 6.5824e+06 0 -656399 6.48281e+06 0 -713114 6.38678e+06 0 -759937 6.2947e+06 0 -798504 6.20673e+06 0 -830136 6.12285e+06 0 -855912 6.04297e+06 0 -876720 5.96693e+06 0 -893292 5.89458e+06 0 -906239 5.82571e+06 0 -916073 5.76014e+06 0 -923224 5.69768e+06 0 -928057 5.63815e+06 0 -930880 5.58137e+06 0 -931960 5.52718e+06 0 -931522 5.47542e+06 0 -929762 5.42595e+06 0 -926847 5.37863e+06 0 -922924 5.33334e+06 0 -918118 5.28994e+06 0 -912541 5.24834e+06 0 -906288 5.20844e+06 0 -899443 5.17012e+06 0 -892081 5.13332e+06 0 -884265 5.09793e+06 0 -876054 5.0639e+06 0 -867497 5.03113e+06 0 -858639 4.99958e+06 0 -849520 4.96917e+06 0 -840174 4.93985e+06 0 -830632 4.91156e+06 0 -820922 4.88425e+06 0 -811068 4.85788e+06 0 -801092 4.8324e+06 0 -791014 4.80776e+06 0 -780850 4.78394e+06 0 -770616 4.76088e+06 0 -760326 4.73857e+06 0 -749992 4.71696e+06 0 -739624 4.69603e+06 0 -729234 4.67575e+06 0 -718829 4.65608e+06 0 -708417 4.63702e+06 0 -698006 4.61852e+06 0 -687601 4.60057e+06 0 -677207 4.58315e+06 0 -666831 4.56624e+06 0 -656475 4.54982e+06 0 -646145 4.53387e+06 0 -635842 4.51838e+06 0 -625571 4.50332e+06 0 -615334 4.48869e+06 0 -605133 4.47447e+06 0 -594970 4.46064e+06 0 -584846 4.44719e+06 0 -574765 4.43412e+06 0 -564725 4.4214e+06 0 -554730 4.40904e+06 0 -544779 4.39701e+06 0 -534873 4.38531e+06 0 -525013 4.37392e+06 0 -515199 4.36285e+06 0 -505431 4.35208e+06 0 -495710 4.3416e+06 0 -486036 4.3314e+06 0 -476408 4.32148e+06 0 -466827 4.31183e+06 0 -457292 4.30245e+06 0 -447803 4.29332e+06 0 -438360 4.28445e+06 0 -428963 4.27582e+06 0 -419610 4.26743e+06 0 -410301 4.25928e+06 0 -401037 4.25135e+06 0 -391815 4.24365e+06 0 -382636 4.23617e+06 0 -373500 4.22891e+06 0 -364404 4.22186e+06 0 -355349 4.21501e+06 0 -346334 4.20837e+06 0 -337358 4.20193e+06 0 -328421 4.19569e+06 0 -319520 4.18964e+06 0 -310657 4.18378e+06 0 -301829 4.17811e+06 0 -293036 4.17262e+06 0 -284277 4.16732e+06 0 -275552 4.16219e+06 0 -266858 4.15724e+06 0 -258196 4.15247e+06 0 -249565 4.14787e+06 0 -240962 4.14343e+06 0 -232389 4.13917e+06 0 -223843 4.13507e+06 0 -215324 4.13113e+06 0 -206831 4.12736e+06 0 -198362 4.12374e+06 0 -189917 4.12029e+06 0 -181495 4.11699e+06 0 -173095 4.11385e+06 0 -164716 4.11086e+06 0 -156357 4.10803e+06 0 -148017 4.10535e+06 0 -139694 4.10282e+06 0 -131389 4.10044e+06 0 -123100 4.09821e+06 0 -114825 4.09613e+06 0 -106565 4.09419e+06 0 -98317.6 4.0924e+06 0 -90082.3 4.09076e+06 0 -81857.9 4.08926e+06 0 -73643.6 4.08791e+06 0 -65438.3 4.0867e+06 0 -57240.9 4.08563e+06 0 -49050.6 4.08471e+06 0 -40866.3 4.08392e+06 0 -32687.1 4.08329e+06 0 -24511.8 4.08279e+06 0 -16339.5 4.08243e+06 0 -8169.26 4.08222e+06 0 0 4.08215e+06 0 460540 6.98505e+06 0 268171 6.98976e+06 0 84177.3 6.9562e+06 0 -80514.4 6.89423e+06 0 -222320 6.81495e+06 0 -342267 6.72646e+06 0 -442992 6.63401e+06 0 -527358 6.54077e+06 0 -597952 6.44867e+06 0 -656975 6.35885e+06 0 -706260 6.27194e+06 0 -747323 6.18828e+06 0 -781415 6.10803e+06 0 -809573 6.03122e+06 0 -832662 5.95779e+06 0 -851402 5.88764e+06 0 -866401 5.82067e+06 0 -878169 5.75672e+06 0 -887140 5.69566e+06 0 -893683 5.63733e+06 0 -898114 5.58159e+06 0 -900702 5.52829e+06 0 -901681 5.47731e+06 0 -901251 5.42852e+06 0 -899586 5.38178e+06 0 -896838 5.33699e+06 0 -893138 5.29404e+06 0 -888601 5.25282e+06 0 -883329 5.21324e+06 0 -877409 5.17521e+06 0 -870919 5.13866e+06 0 -863928 5.10349e+06 0 -856496 5.06963e+06 0 -848677 5.03703e+06 0 -840518 5.00561e+06 0 -832061 4.97531e+06 0 -823343 4.94609e+06 0 -814398 4.91788e+06 0 -805255 4.89064e+06 0 -795940 4.86432e+06 0 -786478 4.83888e+06 0 -776889 4.81428e+06 0 -767192 4.79048e+06 0 -757403 4.76744e+06 0 -747539 4.74514e+06 0 -737612 4.72353e+06 0 -727634 4.7026e+06 0 -717617 4.68231e+06 0 -707569 4.66264e+06 0 -697500 4.64356e+06 0 -687418 4.62504e+06 0 -677329 4.60708e+06 0 -667239 4.58963e+06 0 -657155 4.5727e+06 0 -647080 4.55625e+06 0 -637021 4.54027e+06 0 -626980 4.52475e+06 0 -616961 4.50966e+06 0 -606967 4.495e+06 0 -597001 4.48074e+06 0 -587065 4.46688e+06 0 -577162 4.4534e+06 0 -567293 4.44029e+06 0 -557459 4.42754e+06 0 -547664 4.41514e+06 0 -537906 4.40308e+06 0 -528189 4.39134e+06 0 -518511 4.37992e+06 0 -508874 4.36881e+06 0 -499279 4.35801e+06 0 -489726 4.34749e+06 0 -480215 4.33726e+06 0 -470747 4.32731e+06 0 -461321 4.31763e+06 0 -451937 4.30821e+06 0 -442596 4.29905e+06 0 -433297 4.29014e+06 0 -424041 4.28148e+06 0 -414825 4.27306e+06 0 -405652 4.26487e+06 0 -396519 4.25692e+06 0 -387426 4.24919e+06 0 -378374 4.24168e+06 0 -369361 4.23439e+06 0 -360387 4.22731e+06 0 -351452 4.22043e+06 0 -342554 4.21377e+06 0 -333693 4.2073e+06 0 -324868 4.20103e+06 0 -316079 4.19496e+06 0 -307324 4.18907e+06 0 -298604 4.18338e+06 0 -289917 4.17787e+06 0 -281263 4.17254e+06 0 -272640 4.16739e+06 0 -264048 4.16242e+06 0 -255486 4.15762e+06 0 -246953 4.153e+06 0 -238449 4.14855e+06 0 -229972 4.14426e+06 0 -221521 4.14014e+06 0 -213096 4.13619e+06 0 -204696 4.1324e+06 0 -196320 4.12877e+06 0 -187967 4.1253e+06 0 -179635 4.12199e+06 0 -171325 4.11883e+06 0 -163035 4.11583e+06 0 -154764 4.11298e+06 0 -146511 4.11029e+06 0 -138276 4.10775e+06 0 -130057 4.10536e+06 0 -121853 4.10312e+06 0 -113664 4.10102e+06 0 -105489 4.09908e+06 0 -97325.9 4.09728e+06 0 -89174.6 4.09563e+06 0 -81033.9 4.09412e+06 0 -72902.9 4.09276e+06 0 -64780.6 4.09155e+06 0 -56666 4.09048e+06 0 -48558.3 4.08955e+06 0 -40456.3 4.08876e+06 0 -32359.2 4.08812e+06 0 -24266 4.08762e+06 0 -16175.7 4.08727e+06 0 -8087.38 4.08705e+06 0 0 4.08698e+06 0 453356 6.8761e+06 0 282080 6.88244e+06 0 115933 6.8579e+06 0 -36481.7 6.80847e+06 0 -171128 6.74199e+06 0 -287551 6.66516e+06 0 -387098 6.58279e+06 0 -471730 6.49811e+06 0 -543457 6.41322e+06 0 -604121 6.32946e+06 0 -655325 6.24767e+06 0 -698441 6.16834e+06 0 -734629 6.09176e+06 0 -764871 6.01806e+06 0 -789993 5.9473e+06 0 -810695 5.87945e+06 0 -827572 5.81444e+06 0 -841130 5.75218e+06 0 -851799 5.69258e+06 0 -859949 5.63552e+06 0 -865898 5.58087e+06 0 -869920 5.52853e+06 0 -872250 5.47838e+06 0 -873095 5.43031e+06 0 -872632 5.3842e+06 0 -871018 5.33996e+06 0 -868388 5.29749e+06 0 -864861 5.25669e+06 0 -860542 5.21748e+06 0 -855523 5.17977e+06 0 -849885 5.14349e+06 0 -843700 5.10856e+06 0 -837031 5.07492e+06 0 -829936 5.0425e+06 0 -822463 5.01123e+06 0 -814657 4.98107e+06 0 -806558 4.95196e+06 0 -798201 4.92385e+06 0 -789617 4.8967e+06 0 -780836 4.87045e+06 0 -771881 4.84506e+06 0 -762777 4.82051e+06 0 -753542 4.79675e+06 0 -744195 4.77374e+06 0 -734753 4.75146e+06 0 -725230 4.72987e+06 0 -715639 4.70894e+06 0 -705992 4.68866e+06 0 -696299 4.66898e+06 0 -686572 4.64989e+06 0 -676816 4.63137e+06 0 -667042 4.61339e+06 0 -657255 4.59594e+06 0 -647462 4.57898e+06 0 -637668 4.56252e+06 0 -627879 4.54652e+06 0 -618098 4.53097e+06 0 -608331 4.51586e+06 0 -598579 4.50116e+06 0 -588848 4.48688e+06 0 -579139 4.47299e+06 0 -569456 4.45948e+06 0 -559799 4.44634e+06 0 -550172 4.43356e+06 0 -540576 4.42113e+06 0 -531013 4.40903e+06 0 -521483 4.39727e+06 0 -511988 4.38582e+06 0 -502529 4.37467e+06 0 -493107 4.36383e+06 0 -483722 4.35329e+06 0 -474375 4.34302e+06 0 -465065 4.33304e+06 0 -455795 4.32333e+06 0 -446563 4.31388e+06 0 -437370 4.30469e+06 0 -428215 4.29575e+06 0 -419100 4.28706e+06 0 -410022 4.27861e+06 0 -400983 4.27039e+06 0 -391983 4.26241e+06 0 -383020 4.25465e+06 0 -374094 4.24711e+06 0 -365206 4.23979e+06 0 -356353 4.23268e+06 0 -347537 4.22578e+06 0 -338757 4.21909e+06 0 -330011 4.2126e+06 0 -321300 4.2063e+06 0 -312622 4.2002e+06 0 -303977 4.1943e+06 0 -295365 4.18858e+06 0 -286784 4.18304e+06 0 -278235 4.17769e+06 0 -269715 4.17252e+06 0 -261225 4.16753e+06 0 -252764 4.16272e+06 0 -244330 4.15807e+06 0 -235924 4.1536e+06 0 -227543 4.1493e+06 0 -219189 4.14516e+06 0 -210858 4.14119e+06 0 -202552 4.13738e+06 0 -194268 4.13374e+06 0 -186007 4.13025e+06 0 -177766 4.12692e+06 0 -169546 4.12375e+06 0 -161345 4.12074e+06 0 -153163 4.11788e+06 0 -144999 4.11518e+06 0 -136851 4.11262e+06 0 -128718 4.11022e+06 0 -120601 4.10797e+06 0 -112498 4.10587e+06 0 -104408 4.10391e+06 0 -96329.5 4.10211e+06 0 -88262.5 4.10045e+06 0 -80205.9 4.09894e+06 0 -72158.6 4.09757e+06 0 -64119.7 4.09635e+06 0 -56088.4 4.09527e+06 0 -48063.6 4.09434e+06 0 -40044.4 4.09355e+06 0 -32029.9 4.09291e+06 0 -24019.1 4.0924e+06 0 -16011.2 4.09205e+06 0 -8005.12 4.09183e+06 0 0 4.09176e+06 0 446942 6.77882e+06 0 292634 6.78599e+06 0 141532 6.76773e+06 0 403.052 6.7278e+06 0 -126857 6.67178e+06 0 -239026 6.605e+06 0 -336542 6.53169e+06 0 -420634 6.45493e+06 0 -492790 6.37688e+06 0 -554495 6.29897e+06 0 -607117 6.22218e+06 0 -651869 6.14713e+06 0 -689807 6.07421e+06 0 -721840 6.00367e+06 0 -748752 5.93561e+06 0 -771213 5.87009e+06 0 -789797 5.8071e+06 0 -804997 5.74659e+06 0 -817240 5.68851e+06 0 -826892 5.63276e+06 0 -834269 5.57927e+06 0 -839646 5.52794e+06 0 -843262 5.47866e+06 0 -845323 5.43136e+06 0 -846013 5.38592e+06 0 -845489 5.34227e+06 0 -843890 5.30032e+06 0 -841340 5.25997e+06 0 -837946 5.22116e+06 0 -833803 5.1838e+06 0 -828995 5.14782e+06 0 -823597 5.11317e+06 0 -817674 5.07976e+06 0 -811287 5.04754e+06 0 -804487 5.01646e+06 0 -797321 4.98645e+06 0 -789830 4.95748e+06 0 -782052 4.92948e+06 0 -774020 4.90242e+06 0 -765764 4.87626e+06 0 -757311 4.85095e+06 0 -748685 4.82646e+06 0 -739908 4.80274e+06 0 -730998 4.77978e+06 0 -721974 4.75753e+06 0 -712851 4.73596e+06 0 -703644 4.71506e+06 0 -694365 4.69479e+06 0 -685025 4.67512e+06 0 -675636 4.65603e+06 0 -666207 4.63751e+06 0 -656745 4.61953e+06 0 -647259 4.60206e+06 0 -637756 4.5851e+06 0 -628242 4.56862e+06 0 -618721 4.5526e+06 0 -609201 4.53703e+06 0 -599684 4.5219e+06 0 -590175 4.50719e+06 0 -580678 4.49288e+06 0 -571196 4.47897e+06 0 -561731 4.46543e+06 0 -552287 4.45227e+06 0 -542866 4.43946e+06 0 -533470 4.427e+06 0 -524100 4.41488e+06 0 -514758 4.40308e+06 0 -505446 4.3916e+06 0 -496164 4.38043e+06 0 -486915 4.36956e+06 0 -477698 4.35898e+06 0 -468514 4.34869e+06 0 -459365 4.33868e+06 0 -450250 4.32894e+06 0 -441170 4.31946e+06 0 -432125 4.31024e+06 0 -423115 4.30127e+06 0 -414140 4.29255e+06 0 -405202 4.28407e+06 0 -396298 4.27583e+06 0 -387430 4.26782e+06 0 -378596 4.26003e+06 0 -369798 4.25247e+06 0 -361034 4.24512e+06 0 -352304 4.23799e+06 0 -343607 4.23106e+06 0 -334945 4.22434e+06 0 -326315 4.21783e+06 0 -317717 4.21151e+06 0 -309151 4.20539e+06 0 -300616 4.19945e+06 0 -292112 4.19371e+06 0 -283639 4.18816e+06 0 -275194 4.18279e+06 0 -266778 4.1776e+06 0 -258390 4.17258e+06 0 -250030 4.16775e+06 0 -241696 4.16308e+06 0 -233387 4.15859e+06 0 -225104 4.15427e+06 0 -216846 4.15012e+06 0 -208611 4.14613e+06 0 -200398 4.14231e+06 0 -192208 4.13865e+06 0 -184038 4.13515e+06 0 -175889 4.13181e+06 0 -167759 4.12862e+06 0 -159648 4.1256e+06 0 -151555 4.12273e+06 0 -143479 4.12001e+06 0 -135419 4.11744e+06 0 -127374 4.11503e+06 0 -119343 4.11277e+06 0 -111326 4.11066e+06 0 -103321 4.1087e+06 0 -95328.4 4.10688e+06 0 -87346.3 4.10522e+06 0 -79374.1 4.1037e+06 0 -71410.9 4.10232e+06 0 -63455.8 4.1011e+06 0 -55508 4.10002e+06 0 -47566.5 4.09908e+06 0 -39630.5 4.09829e+06 0 -31698.9 4.09764e+06 0 -23771 4.09714e+06 0 -15845.8 4.09678e+06 0 -7922.47 4.09656e+06 0 0 4.09649e+06 0 441148 6.69093e+06 0 300825 6.6985e+06 0 162515 6.68475e+06 0 31589.2 6.65211e+06 0 -88425.7 6.60461e+06 0 -195958 6.54642e+06 0 -290855 6.48117e+06 0 -373782 6.41167e+06 0 -445779 6.34001e+06 0 -508004 6.26768e+06 0 -561592 6.19573e+06 0 -607594 6.12487e+06 0 -646953 6.05559e+06 0 -680501 5.98818e+06 0 -708968 5.92284e+06 0 -732986 5.85969e+06 0 -753106 5.79875e+06 0 -769805 5.74003e+06 0 -783498 5.68351e+06 0 -794544 5.62913e+06 0 -803257 5.57683e+06 0 -809911 5.52655e+06 0 -814743 5.47819e+06 0 -817962 5.4317e+06 0 -819752 5.38697e+06 0 -820274 5.34395e+06 0 -819668 5.30254e+06 0 -818060 5.26269e+06 0 -815560 5.2243e+06 0 -812266 5.18732e+06 0 -808265 5.15168e+06 0 -803633 5.11731e+06 0 -798440 5.08416e+06 0 -792745 5.05217e+06 0 -786603 5.02129e+06 0 -780064 4.99146e+06 0 -773171 4.96264e+06 0 -765962 4.93478e+06 0 -758473 4.90783e+06 0 -750735 4.88177e+06 0 -742776 4.85655e+06 0 -734623 4.83213e+06 0 -726297 4.80847e+06 0 -717820 4.78556e+06 0 -709209 4.76336e+06 0 -700483 4.74183e+06 0 -691656 4.72095e+06 0 -682741 4.7007e+06 0 -673752 4.68105e+06 0 -664699 4.66197e+06 0 -655593 4.64346e+06 0 -646442 4.62548e+06 0 -637256 4.60801e+06 0 -628041 4.59104e+06 0 -618805 4.57455e+06 0 -609553 4.55852e+06 0 -600291 4.54294e+06 0 -591024 4.5278e+06 0 -581756 4.51307e+06 0 -572493 4.49874e+06 0 -563236 4.48481e+06 0 -553991 4.47125e+06 0 -544759 4.45807e+06 0 -535543 4.44524e+06 0 -526346 4.43275e+06 0 -517169 4.4206e+06 0 -508016 4.40878e+06 0 -498886 4.39727e+06 0 -489782 4.38608e+06 0 -480705 4.37518e+06 0 -471656 4.36458e+06 0 -462637 4.35426e+06 0 -453647 4.34422e+06 0 -444687 4.33445e+06 0 -435759 4.32495e+06 0 -426862 4.3157e+06 0 -417997 4.30671e+06 0 -409165 4.29796e+06 0 -400364 4.28945e+06 0 -391596 4.28118e+06 0 -382860 4.27315e+06 0 -374157 4.26533e+06 0 -365485 4.25775e+06 0 -356846 4.25037e+06 0 -348239 4.24322e+06 0 -339663 4.23627e+06 0 -331118 4.22953e+06 0 -322604 4.22299e+06 0 -314120 4.21664e+06 0 -305666 4.2105e+06 0 -297242 4.20455e+06 0 -288847 4.19878e+06 0 -280480 4.19321e+06 0 -272141 4.18782e+06 0 -263829 4.1826e+06 0 -255544 4.17757e+06 0 -247284 4.17272e+06 0 -239050 4.16804e+06 0 -230841 4.16353e+06 0 -222655 4.15919e+06 0 -214493 4.15502e+06 0 -206353 4.15102e+06 0 -198235 4.14718e+06 0 -190138 4.1435e+06 0 -182061 4.13999e+06 0 -174004 4.13663e+06 0 -165965 4.13344e+06 0 -157944 4.1304e+06 0 -149940 4.12751e+06 0 -141953 4.12479e+06 0 -133981 4.12221e+06 0 -126023 4.11979e+06 0 -118080 4.11752e+06 0 -110149 4.1154e+06 0 -102230 4.11343e+06 0 -94322.9 4.11161e+06 0 -86425.9 4.10993e+06 0 -78538.5 4.10841e+06 0 -70659.8 4.10703e+06 0 -62789 4.1058e+06 0 -54925.1 4.10471e+06 0 -47067.3 4.10377e+06 0 -39214.7 4.10297e+06 0 -31366.5 4.10232e+06 0 -23521.8 4.10182e+06 0 -15679.8 4.10146e+06 0 -7839.45 4.10124e+06 0 0 4.10117e+06 0 435866 6.61082e+06 0 307292 6.61853e+06 0 179964 6.6081e+06 0 58198.2 6.58115e+06 0 -54904 6.5406e+06 0 -157664 6.48973e+06 0 -249566 6.43158e+06 0 -330860 6.36866e+06 0 -402224 6.30294e+06 0 -464524 6.23588e+06 0 -518678 6.16857e+06 0 -565579 6.10178e+06 0 -606055 6.03605e+06 0 -640856 5.97175e+06 0 -670651 5.90913e+06 0 -696034 5.84834e+06 0 -717524 5.78948e+06 0 -735578 5.73258e+06 0 -750597 5.67765e+06 0 -762931 5.62468e+06 0 -772889 5.57361e+06 0 -780739 5.52441e+06 0 -786718 5.47701e+06 0 -791035 5.43136e+06 0 -793873 5.38738e+06 0 -795393 5.34501e+06 0 -795740 5.30419e+06 0 -795039 5.26485e+06 0 -793403 5.22692e+06 0 -790931 5.19034e+06 0 -787712 5.15506e+06 0 -783825 5.12101e+06 0 -779340 5.08814e+06 0 -774321 5.0564e+06 0 -768823 5.02573e+06 0 -762898 4.9961e+06 0 -756590 4.96745e+06 0 -749940 4.93974e+06 0 -742984 4.91292e+06 0 -735756 4.88698e+06 0 -728284 4.86185e+06 0 -720596 4.83752e+06 0 -712717 4.81394e+06 0 -704666 4.79109e+06 0 -696465 4.76894e+06 0 -688131 4.74746e+06 0 -679680 4.72662e+06 0 -671127 4.7064e+06 0 -662484 4.68677e+06 0 -653765 4.66772e+06 0 -644980 4.64922e+06 0 -636138 4.63124e+06 0 -627249 4.61378e+06 0 -618321 4.59681e+06 0 -609361 4.58032e+06 0 -600375 4.56429e+06 0 -591371 4.5487e+06 0 -582353 4.53355e+06 0 -573326 4.51881e+06 0 -564295 4.50447e+06 0 -555264 4.49052e+06 0 -546237 4.47695e+06 0 -537216 4.46374e+06 0 -528205 4.45089e+06 0 -519207 4.43838e+06 0 -510224 4.42621e+06 0 -501257 4