<?xml version="1.0"?> 
<VTKFile type="StructuredGrid" version="0.1"> 
<StructuredGrid WholeExtent="0 127 0 127 0 0"> 
<Piece Extent="0 127 0 127 0 0"> 
<PointData>
<DataArray type="Float32" Name="E" format="ascii" NumberOfComponents="3"> 
-3.72529e-09 -3.65754e+06 0 595817 -3.33034e+06 0 867483 -3.03054e+06 0 1.04327e+06 -2.7733e+06 0 1.15642e+06 -2.55076e+06 0 1.23585e+06 -2.35718e+06 0 1.29197e+06 -2.18688e+06 0 1.33302e+06 -2.03561e+06 0 1.36327e+06 -1.9e+06 0 1.38582e+06 -1.77742e+06 0 1.40265e+06 -1.66581e+06 0 1.41514e+06 -1.56351e+06 0 1.42428e+06 -1.4692e+06 0 1.43077e+06 -1.3818e+06 0 1.43514e+06 -1.30043e+06 0 1.43778e+06 -1.22436e+06 0 1.43898e+06 -1.15295e+06 0 1.43898e+06 -1.08571e+06 0 1.43796e+06 -1.02218e+06 0 1.43606e+06 -961986 0 1.43339e+06 -904810 0 1.43005e+06 -850370 0 1.42611e+06 -798420 0 1.42163e+06 -748749 0 1.41666e+06 -701169 0 1.41125e+06 -655516 0 1.40544e+06 -611642 0 1.39924e+06 -569420 0 1.39269e+06 -528732 0 1.38581e+06 -489477 0 1.37862e+06 -451560 0 1.37113e+06 -414899 0 1.36336e+06 -379418 0 1.35533e+06 -345049 0 1.34703e+06 -311729 0 1.33849e+06 -279404 0 1.32971e+06 -248020 0 1.3207e+06 -217532 0 1.31146e+06 -187897 0 1.30201e+06 -159075 0 1.29234e+06 -131029 0 1.28247e+06 -103728 0 1.2724e+06 -77138.8 0 1.26213e+06 -51234.1 0 1.25167e+06 -25987.4 0 1.24102e+06 -1374.22 0 1.23019e+06 22628.2 0 1.21917e+06 46041 0 1.20798e+06 68884 0 1.19662e+06 91175.5 0 1.18509e+06 112933 0 1.17339e+06 134172 0 1.16153e+06 154908 0 1.14951e+06 175156 0 1.13733e+06 194928 0 1.125e+06 214238 0 1.11252e+06 233097 0 1.09989e+06 251517 0 1.08712e+06 269508 0 1.0742e+06 287080 0 1.06115e+06 304244 0 1.04796e+06 321007 0 1.03464e+06 337379 0 1.02118e+06 353369 0 1.00761e+06 368983 0 993901 384230 0 980075 399117 0 966131 413651 0 952070 427838 0 937895 441685 0 923610 455198 0 909216 468382 0 894716 481244 0 880114 493789 0 865411 506022 0 850610 517949 0 835714 529573 0 820726 540901 0 805646 551936 0 790479 562683 0 775227 573146 0 759891 583330 0 744475 593239 0 728980 602875 0 713409 612244 0 697765 621349 0 682049 630193 0 666264 638780 0 650412 647113 0 634494 655195 0 618514 663030 0 602474 670621 0 586374 677970 0 570218 685081 0 554008 691955 0 537745 698597 0 521431 705008 0 505068 711190 0 488659 717147 0 472204 722881 0 455707 728394 0 439168 733687 0 422589 738764 0 405973 743626 0 389320 748275 0 372633 752713 0 355914 756941 0 339163 760961 0 322383 764776 0 305575 768385 0 288740 771792 0 271881 774997 0 254999 778001 0 238095 780806 0 221171 783412 0 204229 785821 0 187270 788034 0 170294 790052 0 153305 791875 0 136303 793505 0 119290 794941 0 102267 796185 0 85235 797236 0 68196.4 798096 0 51152.2 798765 0 34103.7 799242 0 17052.6 799529 0 0 799625 0 8.04721e-09 -3.58931e+06 0 567650 -3.30334e+06 0 846107 -3.0126e+06 0 1.02353e+06 -2.76232e+06 0 1.13975e+06 -2.54299e+06 0 1.22104e+06 -2.35179e+06 0 1.27895e+06 -2.18294e+06 0 1.32136e+06 -2.03273e+06 0 1.35278e+06 -1.89784e+06 0 1.3763e+06 -1.77581e+06 0 1.39394e+06 -1.6646e+06 0 1.40714e+06 -1.56261e+06 0 1.41688e+06 -1.46855e+06 0 1.4239e+06 -1.38135e+06 0 1.42873e+06 -1.30014e+06 0 1.43177e+06 -1.22419e+06 0 1.43333e+06 -1.15289e+06 0 1.43365e+06 -1.08574e+06 0 1.43292e+06 -1.02229e+06 0 1.43128e+06 -962164 0 1.42884e+06 -905048 0 1.42571e+06 -850660 0 1.42197e+06 -798757 0 1.41766e+06 -749128 0 1.41286e+06 -701587 0 1.4076e+06 -655968 0 1.40192e+06 -612128 0 1.39586e+06 -569935 0 1.38943e+06 -529276 0 1.38266e+06 -490047 0 1.37558e+06 -452155 0 1.36819e+06 -415518 0 1.36052e+06 -380059 0 1.35257e+06 -345712 0 1.34436e+06 -312413 0 1.33589e+06 -280108 0 1.32719e+06 -248744 0 1.31825e+06 -218274 0 1.30908e+06 -188657 0 1.29969e+06 -159853 0 1.29009e+06 -131824 0 1.28027e+06 -104539 0 1.27026e+06 -77966.8 0 1.26004e+06 -52078.1 0 1.24963e+06 -26847 0 1.23904e+06 -2249.08 0 1.22825e+06 21738.4 0 1.21728e+06 45136.6 0 1.20614e+06 67965.3 0 1.19482e+06 90242.7 0 1.18333e+06 111986 0 1.17168e+06 133212 0 1.15986e+06 153935 0 1.14787e+06 174170 0 1.13574e+06 193930 0 1.12344e+06 213227 0 1.111e+06 232074 0 1.0984e+06 250482 0 1.08566e+06 268461 0 1.07278e+06 286022 0 1.05976e+06 303174 0 1.04661e+06 319926 0 1.03332e+06 336288 0 1.0199e+06 352267 0 1.00635e+06 367871 0 992672 383108 0 978875 397985 0 964959 412509 0 950926 426687 0 936779 440524 0 922520 454028 0 908153 467204 0 893680 480057 0 879103 492594 0 864425 504819 0 849650 516737 0 834778 528354 0 819813 539675 0 804758 550702 0 789614 561442 0 774384 571899 0 759071 582076 0 743677 591978 0 728205 601608 0 712656 610971 0 697033 620070 0 681338 628908 0 665574 637489 0 649742 645817 0 633845 653894 0 617885 661724 0 601864 669310 0 585784 676654 0 569648 683760 0 553456 690631 0 537212 697268 0 520917 703675 0 504573 709853 0 488182 715807 0 471746 721537 0 455266 727046 0 438745 732336 0 422184 737410 0 405585 742269 0 388950 746915 0 372280 751350 0 355577 755575 0 338843 759593 0 322080 763405 0 305288 767013 0 288471 770417 0 271628 773620 0 254762 776622 0 237875 779425 0 220967 782030 0 204041 784438 0 187097 786650 0 170138 788666 0 153164 790489 0 136178 792117 0 119180 793552 0 102173 794795 0 85157 795846 0 68134 796706 0 51105.5 797374 0 34072.6 797851 0 17037 798138 0 0 798234 0 -4.39468e-09 -3.5266e+06 0 541902 -3.27528e+06 0 825106 -2.99475e+06 0 1.00429e+06 -2.75099e+06 0 1.12325e+06 -2.53509e+06 0 1.20641e+06 -2.34623e+06 0 1.26602e+06 -2.17888e+06 0 1.30977e+06 -2.02973e+06 0 1.34233e+06 -1.8956e+06 0 1.36681e+06 -1.77412e+06 0 1.38527e+06 -1.66333e+06 0 1.39916e+06 -1.56166e+06 0 1.4095e+06 -1.46785e+06 0 1.41704e+06 -1.38085e+06 0 1.42232e+06 -1.2998e+06 0 1.42577e+06 -1.22399e+06 0 1.42769e+06 -1.15281e+06 0 1.42833e+06 -1.08575e+06 0 1.42788e+06 -1.02237e+06 0 1.4265e+06 -962322 0 1.4243e+06 -905267 0 1.42138e+06 -850933 0 1.41783e+06 -799079 0 1.4137e+06 -749494 0 1.40906e+06 -701992 0 1.40395e+06 -656409 0 1.39842e+06 -612602 0 1.39248e+06 -570440 0 1.38617e+06 -529810 0 1.37952e+06 -490608 0 1.37254e+06 -452742 0 1.36525e+06 -416129 0 1.35767e+06 -380693 0 1.34981e+06 -346368 0 1.34168e+06 -313091 0 1.3333e+06 -280805 0 1.32467e+06 -249461 0 1.3158e+06 -219011 0 1.3067e+06 -189412 0 1.29737e+06 -160625 0 1.28783e+06 -132615 0 1.27808e+06 -105346 0 1.26812e+06 -78790.4 0 1.25796e+06 -52917.8 0 1.2476e+06 -27702.4 0 1.23705e+06 -3119.88 0 1.22632e+06 20852.6 0 1.2154e+06 44236 0 1.2043e+06 67050.2 0 1.19303e+06 89313.5 0 1.18158e+06 111043 0 1.16996e+06 132255 0 1.15818e+06 152965 0 1.14624e+06 173187 0 1.13414e+06 192934 0 1.12189e+06 212219 0 1.10948e+06 231053 0 1.09692e+06 249449 0 1.08421e+06 267416 0 1.07137e+06 284966 0 1.05838e+06 302107 0 1.04526e+06 318848 0 1.032e+06 335199 0 1.01861e+06 351167 0 1.00509e+06 366761 0 991443 381988 0 977676 396855 0 963788 411369 0 949783 425538 0 935663 439366 0 921432 452861 0 907091 466028 0 892644 478873 0 878093 491401 0 863440 503618 0 848689 515528 0 833842 527138 0 818901 538450 0 803870 549471 0 788749 560204 0 773542 570653 0 758252 580824 0 742880 590719 0 727430 600343 0 711903 609699 0 696301 618792 0 680627 627625 0 664884 636200 0 649073 644523 0 633196 652595 0 617256 660420 0 601255 668000 0 585195 675340 0 569078 682441 0 552905 689307 0 536680 695940 0 520404 702343 0 504078 708518 0 487705 714468 0 471287 720194 0 454825 725700 0 438322 730987 0 421779 736057 0 405197 740913 0 388579 745556 0 371927 749988 0 355241 754211 0 338524 758227 0 321777 762036 0 305002 765642 0 288201 769044 0 271375 772245 0 254525 775245 0 237654 778047 0 220762 780650 0 203852 783056 0 186924 785267 0 169981 787282 0 153024 789103 0 136053 790730 0 119071 792165 0 102079 793407 0 85079.1 794457 0 68071.8 795316 0 51058.8 795984 0 34041.5 796461 0 17021.5 796748 0 0 796844 0 1.74623e-09 -3.46864e+06 0 518287 -3.24656e+06 0 804563 -2.97691e+06 0 985534 -2.73937e+06 0 1.10696e+06 -2.52705e+06 0 1.19194e+06 -2.34052e+06 0 1.25319e+06 -2.17471e+06 0 1.29826e+06 -2.02664e+06 0 1.33195e+06 -1.89328e+06 0 1.35736e+06 -1.77237e+06 0 1.37662e+06 -1.662e+06 0 1.3912e+06 -1.56066e+06 0 1.40214e+06 -1.46711e+06 0 1.41019e+06 -1.38032e+06 0 1.41593e+06 -1.29944e+06 0 1.41978e+06 -1.22376e+06 0 1.42206e+06 -1.15269e+06 0 1.42301e+06 -1.08573e+06 0 1.42285e+06 -1.02244e+06 0 1.42172e+06 -962460 0 1.41975e+06 -905468 0 1.41705e+06 -851190 0 1.41369e+06 -799386 0 1.40974e+06 -749845 0 1.40527e+06 -702384 0 1.40031e+06 -656839 0 1.39491e+06 -613065 0 1.3891e+06 -570936 0 1.38291e+06 -530335 0 1.37637e+06 -491160 0 1.3695e+06 -453321 0 1.36231e+06 -416732 0 1.35482e+06 -381320 0 1.34705e+06 -347017 0 1.33901e+06 -313761 0 1.3307e+06 -281497 0 1.32214e+06 -250172 0 1.31335e+06 -219741 0 1.30431e+06 -190161 0 1.29505e+06 -161393 0 1.28557e+06 -133400 0 1.27588e+06 -106149 0 1.26598e+06 -79609.3 0 1.25587e+06 -53753.1 0 1.24557e+06 -28553.6 0 1.23507e+06 -3986.61 0 1.22439e+06 19970.6 0 1.21351e+06 43339.2 0 1.20246e+06 66138.8 0 1.19123e+06 88387.9 0 1.17983e+06 110104 0 1.16825e+06 131302 0 1.15651e+06 151999 0 1.14461e+06 172207 0 1.13255e+06 191941 0 1.12033e+06 211213 0 1.10796e+06 230036 0 1.09544e+06 248419 0 1.08277e+06 266375 0 1.06995e+06 283913 0 1.057e+06 301042 0 1.04391e+06 317772 0 1.03068e+06 334112 0 1.01732e+06 350070 0 1.00383e+06 365653 0 990215 380870 0 976477 395727 0 962618 410232 0 948641 424391 0 934549 438210 0 920344 451696 0 906030 464854 0 891609 477690 0 877083 490210 0 862456 502419 0 847730 514321 0 832907 525923 0 817990 537228 0 802982 548241 0 787885 558967 0 772701 569409 0 757433 579573 0 742084 589462 0 726655 599079 0 711150 608430 0 695570 617517 0 679917 626343 0 664194 634913 0 648404 643230 0 632547 651297 0 616628 659117 0 600646 666693 0 584606 674027 0 568508 681124 0 552355 687986 0 536148 694615 0 519890 701013 0 503583 707184 0 487229 713130 0 470829 718853 0 454385 724355 0 437899 729639 0 421374 734706 0 404810 739559 0 388209 744199 0 371573 748628 0 354905 752849 0 338205 756862 0 321475 760669 0 304716 764272 0 287932 767672 0 271122 770871 0 254289 773870 0 237434 776669 0 220558 779271 0 203664 781676 0 186752 783885 0 169825 785899 0 152883 787719 0 135928 789345 0 118962 790779 0 101986 792020 0 85001.3 793070 0 68009.5 793928 0 51012.1 794596 0 34010.4 795073 0 17005.9 795359 0 0 795455 0 -5.06407e-09 -3.41478e+06 0 496569 -3.21747e+06 0 784536 -2.95903e+06 0 967222 -2.7275e+06 0 1.09087e+06 -2.51887e+06 0 1.17765e+06 -2.33465e+06 0 1.24046e+06 -2.17043e+06 0 1.28683e+06 -2.02344e+06 0 1.32161e+06 -1.89087e+06 0 1.34795e+06 -1.77054e+06 0 1.36801e+06 -1.66061e+06 0 1.38326e+06 -1.55961e+06 0 1.39479e+06 -1.46632e+06 0 1.40336e+06 -1.37974e+06 0 1.40955e+06 -1.29903e+06 0 1.4138e+06 -1.2235e+06 0 1.41643e+06 -1.15255e+06 0 1.41771e+06 -1.08569e+06 0 1.41783e+06 -1.02248e+06 0 1.41695e+06 -962578 0 1.41522e+06 -905651 0 1.41272e+06 -851431 0 1.40956e+06 -799677 0 1.40579e+06 -750183 0 1.40147e+06 -702763 0 1.39667e+06 -657256 0 1.39141e+06 -613518 0 1.38573e+06 -571420 0 1.37966e+06 -530850 0 1.37323e+06 -491704 0 1.36646e+06 -453891 0 1.35937e+06 -417327 0 1.35198e+06 -381940 0 1.34429e+06 -347659 0 1.33633e+06 -314425 0 1.32811e+06 -282182 0 1.31963e+06 -250878 0 1.3109e+06 -220467 0 1.30193e+06 -190905 0 1.29274e+06 -162155 0 1.28332e+06 -134180 0 1.27369e+06 -106946 0 1.26384e+06 -80423.8 0 1.25379e+06 -54584 0 1.24354e+06 -29400.6 0 1.23309e+06 -4849.28 0 1.22246e+06 19092.6 0 1.21163e+06 42446.2 0 1.20062e+06 65231.1 0 1.18944e+06 87465.8 0 1.17808e+06 109167 0 1.16655e+06 130352 0 1.15485e+06 151035 0 1.14298e+06 171230 0 1.13096e+06 190952 0 1.11878e+06 210211 0 1.10644e+06 229021 0 1.09395e+06 247392 0 1.08132e+06 265336 0 1.06854e+06 282862 0 1.05562e+06 299980 0 1.04256e+06 316699 0 1.02936e+06 333028 0 1.01603e+06 348975 0 1.00257e+06 364548 0 988988 379755 0 975279 394602 0 961448 409097 0 947499 423246 0 933435 437056 0 919257 450533 0 904969 463682 0 890574 476510 0 876074 489021 0 861472 501222 0 846771 513116 0 831972 524710 0 817080 536007 0 802095 547013 0 787021 557732 0 771860 568167 0 756615 578324 0 741288 588206 0 725882 597818 0 710398 607162 0 694839 616243 0 679207 625063 0 663505 633628 0 647735 641939 0 631899 650001 0 615999 657815 0 600038 665386 0 584017 672716 0 567938 679809 0 551804 686666 0 535617 693290 0 519378 699685 0 503089 705852 0 486753 711794 0 470371 717513 0 453945 723012 0 437477 728292 0 420969 733356 0 404422 738206 0 387839 742843 0 371221 747269 0 354569 751487 0 337886 755498 0 321172 759303 0 304431 762904 0 287662 766302 0 270869 769498 0 254052 772495 0 237213 775293 0 220354 777893 0 203476 780297 0 186580 782504 0 169668 784517 0 152742 786336 0 135803 787961 0 118853 789394 0 101893 790635 0 84923.5 791684 0 67947.3 792542 0 50965.5 793209 0 33979.3 793685 0 16990.4 793971 0 0 794067 0 1.28057e-09 -3.36447e+06 0 476542 -3.18827e+06 0 765064 -2.94109e+06 0 949337 -2.71544e+06 0 1.07501e+06 -2.51053e+06 0 1.16352e+06 -2.32865e+06 0 1.22784e+06 -2.16603e+06 0 1.27547e+06 -2.02015e+06 0 1.31133e+06 -1.88838e+06 0 1.33859e+06 -1.76864e+06 0 1.35942e+06 -1.65916e+06 0 1.37536e+06 -1.55851e+06 0 1.38747e+06 -1.46549e+06 0 1.39655e+06 -1.37913e+06 0 1.40319e+06 -1.2986e+06 0 1.40783e+06 -1.22321e+06 0 1.41081e+06 -1.15238e+06 0 1.4124e+06 -1.08562e+06 0 1.41281e+06 -1.02251e+06 0 1.41219e+06 -962676 0 1.41069e+06 -905816 0 1.4084e+06 -851655 0 1.40543e+06 -799954 0 1.40183e+06 -750507 0 1.39768e+06 -703130 0 1.39303e+06 -657661 0 1.3879e+06 -613959 0 1.38236e+06 -571895 0 1.37641e+06 -531355 0 1.37009e+06 -492238 0 1.36343e+06 -454452 0 1.35644e+06 -417915 0 1.34914e+06 -382551 0 1.34154e+06 -348295 0 1.33366e+06 -315083 0 1.32551e+06 -282861 0 1.31711e+06 -251577 0 1.30845e+06 -221186 0 1.29955e+06 -191644 0 1.29042e+06 -162912 0 1.28107e+06 -134955 0 1.27149e+06 -107739 0 1.26171e+06 -81233.6 0 1.25171e+06 -55410.5 0 1.24151e+06 -30243.3 0 1.23111e+06 -5707.89 0 1.22053e+06 18218.5 0 1.20975e+06 41556.9 0 1.19879e+06 64327.1 0 1.18765e+06 86547.3 0 1.17633e+06 108235 0 1.16484e+06 129406 0 1.15318e+06 150075 0 1.14135e+06 170257 0 1.12937e+06 189965 0 1.11722e+06 209212 0 1.10492e+06 228009 0 1.09247e+06 246368 0 1.07987e+06 264300 0 1.06712e+06 281815 0 1.05424e+06 298921 0 1.04121e+06 315629 0 1.02804e+06 331947 0 1.01475e+06 347883 0 1.00132e+06 363446 0 987762 378642 0 974082 393479 0 960280 407964 0 946359 422104 0 932321 435904 0 918171 449372 0 903910 462512 0 889541 475331 0 875066 487834 0 860489 500026 0 845813 511913 0 831039 523499 0 816170 534789 0 801209 545787 0 786158 556498 0 771020 566927 0 755798 577077 0 740493 586953 0 725108 596558 0 709646 605896 0 694108 614970 0 678498 623785 0 662817 632344 0 647067 640650 0 631252 648706 0 615372 656516 0 599430 664082 0 583428 671407 0 567369 678495 0 551254 685347 0 535086 691967 0 518865 698358 0 502595 704521 0 486277 710459 0 469913 716175 0 453505 721670 0 437055 726947 0 420564 732007 0 404035 736854 0 387469 741488 0 370868 745912 0 354233 750127 0 337567 754135 0 320870 757938 0 304145 761536 0 287393 764932 0 270616 768127 0 253816 771122 0 236993 773918 0 220150 776517 0 203287 778919 0 186408 781125 0 169512 783137 0 152602 784954 0 135679 786579 0 118744 788011 0 101799 789250 0 84845.7 790299 0 67885.2 791156 0 50918.9 791823 0 33948.3 792299 0 16974.9 792585 0 0 792681 0 9.19681e-09 -3.31728e+06 0 458027 -3.15912e+06 0 746171 -2.92307e+06 0 931867 -2.70321e+06 0 1.05938e+06 -2.50206e+06 0 1.14955e+06 -2.32252e+06 0 1.21532e+06 -2.16152e+06 0 1.2642e+06 -2.01677e+06 0 1.30111e+06 -1.88582e+06 0 1.32927e+06 -1.76668e+06 0 1.35087e+06 -1.65765e+06 0 1.36747e+06 -1.55735e+06 0 1.38016e+06 -1.46462e+06 0 1.38975e+06 -1.37848e+06 0 1.39684e+06 -1.29812e+06 0 1.40187e+06 -1.22289e+06 0 1.40521e+06 -1.15218e+06 0 1.40711e+06 -1.08553e+06 0 1.4078e+06 -1.02251e+06 0 1.40743e+06 -962755 0 1.40616e+06 -905963 0 1.40409e+06 -851862 0 1.4013e+06 -800215 0 1.39789e+06 -750817 0 1.3939e+06 -703483 0 1.38939e+06 -658055 0 1.38441e+06 -614390 0 1.37899e+06 -572360 0 1.37316e+06 -531852 0 1.36696e+06 -492764 0 1.3604e+06 -455006 0 1.3535e+06 -418495 0 1.3463e+06 -383156 0 1.33879e+06 -348923 0 1.33099e+06 -315734 0 1.32292e+06 -283534 0 1.31459e+06 -252271 0 1.30601e+06 -221900 0 1.29718e+06 -192377 0 1.28811e+06 -163664 0 1.27882e+06 -135725 0 1.2693e+06 -108527 0 1.25957e+06 -82039 0 1.24963e+06 -56232.6 0 1.23948e+06 -31081.9 0 1.22914e+06 -6562.44 0 1.2186e+06 17348.3 0 1.20787e+06 40671.5 0 1.19695e+06 63426.7 0 1.18585e+06 85632.3 0 1.17458e+06 107306 0 1.16313e+06 128462 0 1.15151e+06 149118 0 1.13973e+06 169287 0 1.12778e+06 188982 0 1.11567e+06 208216 0 1.10341e+06 227000 0 1.09099e+06 245347 0 1.07842e+06 263267 0 1.06571e+06 280770 0 1.05286e+06 297865 0 1.03986e+06 314561 0 1.02673e+06 330868 0 1.01346e+06 346794 0 1.00006e+06 362345 0 986537 377531 0 972886 392358 0 959112 406834 0 945219 420964 0 931209 434755 0 917085 448213 0 902851 461345 0 888507 474155 0 874059 486649 0 859507 498833 0 844855 510712 0 830105 522290 0 815260 533572 0 800323 544563 0 785296 555267 0 770181 565689 0 754981 575832 0 739698 585701 0 724335 595299 0 708895 604631 0 693379 613700 0 677789 622509 0 662129 631062 0 646400 639362 0 630604 647413 0 614744 655218 0 598822 662779 0 582840 670099 0 566800 677182 0 550705 684030 0 534555 690646 0 518353 697032 0 502101 703191 0 485802 709126 0 469456 714838 0 453066 720329 0 436633 725603 0 420160 730660 0 403648 735504 0 387100 740135 0 370515 744556 0 353898 748769 0 337248 752774 0 320568 756574 0 303860 760171 0 287125 763565 0 270364 766757 0 253579 769750 0 236773 772545 0 219946 775142 0 203099 777542 0 186236 779747 0 169356 781757 0 152461 783574 0 135554 785197 0 118635 786628 0 101706 787867 0 84768 788915 0 67823.1 789772 0 50872.3 790438 0 33917.2 790914 0 16959.3 791200 0 0 791296 0 -6.98492e-09 -3.27282e+06 0 440866 -3.13018e+06 0 727873 -2.90499e+06 0 914798 -2.69083e+06 0 1.04398e+06 -2.49344e+06 0 1.13574e+06 -2.31626e+06 0 1.20292e+06 -2.1569e+06 0 1.253e+06 -2.01329e+06 0 1.29095e+06 -1.88317e+06 0 1.31999e+06 -1.76464e+06 0 1.34236e+06 -1.65609e+06 0 1.35961e+06 -1.55615e+06 0 1.37288e+06 -1.4637e+06 0 1.38297e+06 -1.37778e+06 0 1.3905e+06 -1.29762e+06 0 1.39593e+06 -1.22253e+06 0 1.39961e+06 -1.15196e+06 0 1.40183e+06 -1.08541e+06 0 1.40279e+06 -1.02248e+06 0 1.40268e+06 -962814 0 1.40164e+06 -906093 0 1.39977e+06 -852054 0 1.39718e+06 -800462 0 1.39394e+06 -751113 0 1.39011e+06 -703825 0 1.38576e+06 -658437 0 1.38091e+06 -614809 0 1.37562e+06 -572814 0 1.36991e+06 -532338 0 1.36382e+06 -493281 0 1.35737e+06 -455551 0 1.35057e+06 -419066 0 1.34346e+06 -383753 0 1.33604e+06 -349544 0 1.32833e+06 -316378 0 1.32033e+06 -284200 0 1.31208e+06 -252959 0 1.30356e+06 -222608 0 1.2948e+06 -193105 0 1.2858e+06 -164411 0 1.27657e+06 -136491 0 1.26711e+06 -109310 0 1.25744e+06 -82839.8 0 1.24755e+06 -57050.4 0 1.23746e+06 -31916.2 0 1.22716e+06 -7412.94 0 1.21667e+06 16482.1 0 1.20599e+06 39789.8 0 1.19512e+06 62530 0 1.18406e+06 84720.9 0 1.17283e+06 106380 0 1.16142e+06 127522 0 1.14985e+06 148164 0 1.1381e+06 168319 0 1.12619e+06 188001 0 1.11412e+06 207222 0 1.10189e+06 225994 0 1.08951e+06 244329 0 1.07698e+06 262237 0 1.0643e+06 279727 0 1.05148e+06 296811 0 1.03851e+06 313496 0 1.02541e+06 329792 0 1.01218e+06 345706 0 998809 361248 0 985312 376423 0 971690 391240 0 957945 405706 0 944080 419826 0 930097 433608 0 916000 447057 0 901792 460179 0 887475 472981 0 873052 485467 0 858525 497642 0 843898 509513 0 829173 521083 0 814352 532357 0 799438 543341 0 784434 554038 0 769342 564452 0 754164 574589 0 738904 584451 0 723563 594043 0 708144 603368 0 692649 612431 0 677081 621234 0 661441 629782 0 645733 638076 0 629957 646122 0 614118 653921 0 598215 661477 0 582253 668793 0 566232 675871 0 550155 682715 0 534024 689326 0 517841 695708 0 501608 701864 0 485327 707794 0 468999 713502 0 452627 718990 0 436212 724260 0 419756 729315 0 403262 734155 0 386730 738784 0 370163 743202 0 353562 747411 0 336930 751414 0 320267 755212 0 303575 758806 0 286856 762198 0 270112 765389 0 253343 768380 0 236553 771173 0 219742 773768 0 202912 776167 0 186064 778370 0 169200 780380 0 152321 782195 0 135429 783817 0 118526 785247 0 101613 786486 0 84690.4 787533 0 67761 788389 0 50825.8 789055 0 33886.2 789531 0 16943.8 789816 0 0 789912 0 2.91038e-09 -3.23077e+06 0 424922 -3.10153e+06 0 710174 -2.88685e+06 0 898122 -2.67832e+06 0 1.02883e+06 -2.48468e+06 0 1.1221e+06 -2.30988e+06 0 1.19062e+06 -2.15218e+06 0 1.24188e+06 -2.00972e+06 0 1.28084e+06 -1.88045e+06 0 1.31075e+06 -1.76255e+06 0 1.33387e+06 -1.65447e+06 0 1.35178e+06 -1.5549e+06 0 1.36562e+06 -1.46273e+06 0 1.37621e+06 -1.37706e+06 0 1.38417e+06 -1.29708e+06 0 1.38999e+06 -1.22215e+06 0 1.39402e+06 -1.15171e+06 0 1.39655e+06 -1.08528e+06 0 1.39779e+06 -1.02244e+06 0 1.39794e+06 -962853 0 1.39712e+06 -906204 0 1.39547e+06 -852229 0 1.39307e+06 -800694 0 1.39e+06 -751395 0 1.38634e+06 -704153 0 1.38213e+06 -658808 0 1.37742e+06 -615218 0 1.37226e+06 -573258 0 1.36667e+06 -532815 0 1.36069e+06 -493789 0 1.35434e+06 -456088 0 1.34765e+06 -419631 0 1.34062e+06 -384343 0 1.33329e+06 -350159 0 1.32566e+06 -317016 0 1.31775e+06 -284860 0 1.30956e+06 -253640 0 1.30112e+06 -223310 0 1.29243e+06 -193827 0 1.28349e+06 -165153 0 1.27432e+06 -137251 0 1.26492e+06 -110089 0 1.25531e+06 -83636 0 1.24547e+06 -57863.8 0 1.23543e+06 -32746.4 0 1.22519e+06 -8259.38 0 1.21474e+06 15619.7 0 1.20411e+06 38912 0 1.19328e+06 61636.9 0 1.18227e+06 83813 0 1.17109e+06 105457 0 1.15972e+06 126586 0 1.14818e+06 147214 0 1.13647e+06 167355 0 1.1246e+06 187024 0 1.11257e+06 206232 0 1.10038e+06 224991 0 1.08803e+06 243314 0 1.07554e+06 261209 0 1.06289e+06 278688 0 1.0501e+06 295760 0 1.03717e+06 312433 0 1.0241e+06 328718 0 1.01089e+06 344622 0 997556 360152 0 984089 375318 0 970495 390124 0 956779 404580 0 942941 418690 0 928986 432463 0 914916 445903 0 900735 459016 0 886443 471809 0 872046 484286 0 857544 496453 0 842942 508316 0 828241 519878 0 813444 531145 0 798553 542121 0 783572 552810 0 768503 563218 0 753348 573347 0 738110 583203 0 722791 592788 0 707394 602107 0 691920 611164 0 676373 619961 0 660754 628503 0 645066 636792 0 629311 644832 0 613491 652626 0 597609 660177 0 581666 667488 0 565664 674562 0 549606 681401 0 533494 688008 0 517330 694386 0 501115 700537 0 484852 706464 0 468542 712168 0 452188 717653 0 435791 722920 0 419353 727971 0 402876 732808 0 386361 737433 0 369811 741849 0 353227 746056 0 336611 750056 0 319965 753851 0 303290 757443 0 286587 760833 0 269859 764022 0 253107 767011 0 236333 769802 0 219538 772395 0 202724 774793 0 185892 776995 0 169044 779003 0 152181 780817 0 135305 782439 0 118417 783868 0 101519 785105 0 84612.8 786152 0 67698.9 787008 0 50779.3 787673 0 33855.2 788148 0 16928.3 788434 0 0 788529 0 -3.95812e-09 -3.19088e+06 0 410075 -3.07325e+06 0 693072 -2.86866e+06 0 881831 -2.66571e+06 0 1.01391e+06 -2.4758e+06 0 1.10862e+06 -2.30339e+06 0 1.17844e+06 -2.14735e+06 0 1.23085e+06 -2.00607e+06 0 1.27079e+06 -1.87765e+06 0 1.30156e+06 -1.76038e+06 0 1.32543e+06 -1.65279e+06 0 1.34398e+06 -1.55359e+06 0 1.35838e+06 -1.46173e+06 0 1.36946e+06 -1.37629e+06 0 1.37786e+06 -1.29651e+06 0 1.38407e+06 -1.22174e+06 0 1.38844e+06 -1.15143e+06 0 1.39128e+06 -1.08511e+06 0 1.3928e+06 -1.02238e+06 0 1.3932e+06 -962872 0 1.39261e+06 -906298 0 1.39117e+06 -852387 0 1.38896e+06 -800911 0 1.38606e+06 -751664 0 1.38256e+06 -704469 0 1.3785e+06 -659166 0 1.37393e+06 -615616 0 1.3689e+06 -573692 0 1.36343e+06 -533283 0 1.35756e+06 -494288 0 1.35132e+06 -456616 0 1.34472e+06 -420187 0 1.33779e+06 -384926 0 1.33054e+06 -350766 0 1.323e+06 -317647 0 1.31516e+06 -285514 0 1.30705e+06 -254316 0 1.29868e+06 -224007 0 1.29006e+06 -194544 0 1.28118e+06 -165890 0 1.27207e+06 -138007 0 1.26274e+06 -110863 0 1.25317e+06 -84427.7 0 1.2434e+06 -58672.9 0 1.23341e+06 -33572.3 0 1.22321e+06 -9101.77 0 1.21282e+06 14761.3 0 1.20223e+06 38037.9 0 1.19145e+06 60747.5 0 1.18049e+06 82908.7 0 1.16934e+06 104538 0 1.15802e+06 125653 0 1.14652e+06 146267 0 1.13485e+06 166395 0 1.12302e+06 186050 0 1.11102e+06 205245 0 1.09887e+06 223991 0 1.08655e+06 242301 0 1.07409e+06 260184 0 1.06148e+06 277651 0 1.04872e+06 294711 0 1.03582e+06 311373 0 1.02279e+06 327647 0 1.00961e+06 343540 0 996303 359060 0 982866 374214 0 969302 389011 0 955613 403456 0 941804 417557 0 927876 431320 0 913833 444750 0 899678 457855 0 885412 470639 0 871040 483108 0 856564 495267 0 841986 507121 0 827309 518675 0 812536 529934 0 797670 540902 0 782712 551585 0 767665 561985 0 752533 572108 0 737317 581957 0 722020 591535 0 706644 600848 0 691192 609899 0 675666 618690 0 660067 627226 0 644400 635510 0 628665 643544 0 612865 651333 0 597002 658879 0 581079 666185 0 565097 673254 0 549058 680089 0 532964 686692 0 516819 693065 0 500622 699212 0 484377 705135 0 468086 710836 0 451749 716317 0 435370 721580 0 418949 726628 0 402490 731462 0 385992 736084 0 369460 740497 0 352893 744701 0 336293 748699 0 319664 752492 0 303005 756082 0 286319 759469 0 269607 762656 0 252872 765643 0 236114 768432 0 219335 771024 0 202536 773420 0 185720 775621 0 168888 777628 0 152041 779441 0 135181 781061 0 118308 782489 0 101426 783726 0 84535.2 784772 0 67636.9 785627 0 50732.8 786292 0 33824.2 786767 0 16912.9 787052 0 0 787148 0 2.56114e-09 -3.15291e+06 0 396218 -3.0454e+06 0 676559 -2.85046e+06 0 865918 -2.65301e+06 0 999238 -2.4668e+06 0 1.09531e+06 -2.29679e+06 0 1.16638e+06 -2.14243e+06 0 1.21989e+06 -2.00233e+06 0 1.26081e+06 -1.87477e+06 0 1.29242e+06 -1.75815e+06 0 1.31701e+06 -1.65105e+06 0 1.3362e+06 -1.55224e+06 0 1.35116e+06 -1.46068e+06 0 1.36273e+06 -1.37548e+06 0 1.37157e+06 -1.2959e+06 0 1.37816e+06 -1.2213e+06 0 1.38288e+06 -1.15113e+06 0 1.38602e+06 -1.08493e+06 0 1.38782e+06 -1.02229e+06 0 1.38847e+06 -962873 0 1.38811e+06 -906373 0 1.38687e+06 -852530 0 1.38485e+06 -801112 0 1.38213e+06 -751919 0 1.37879e+06 -704772 0 1.37488e+06 -659513 0 1.37044e+06 -616003 0 1.36554e+06 -574116 0 1.36019e+06 -533741 0 1.35443e+06 -494778 0 1.34829e+06 -457137 0 1.34179e+06 -420735 0 1.33496e+06 -385501 0 1.3278e+06 -351367 0 1.32033e+06 -318272 0 1.31258e+06 -286162 0 1.30454e+06 -254986 0 1.29624e+06 -224698 0 1.28768e+06 -195256 0 1.27888e+06 -166621 0 1.26983e+06 -138757 0 1.26055e+06 -111632 0 1.25105e+06 -85214.9 0 1.24132e+06 -59477.6 0 1.23139e+06 -34394 0 1.22124e+06 -9940.12 0 1.2109e+06 13906.7 0 1.20036e+06 37167.5 0 1.18962e+06 59861.8 0 1.1787e+06 82007.9 0 1.1676e+06 103623 0 1.15631e+06 124723 0 1.14486e+06 145323 0 1.13323e+06 165437 0 1.12143e+06 185079 0 1.10947e+06 204260 0 1.09735e+06 222994 0 1.08508e+06 241291 0 1.07265e+06 259162 0 1.06007e+06 276617 0 1.04735e+06 293665 0 1.03448e+06 310316 0 1.02147e+06 326578 0 1.00833e+06 342460 0 995052 357969 0 981644 373113 0 968109 387900 0 954449 402335 0 940667 416426 0 926767 430179 0 912750 443601 0 898621 456696 0 884382 469471 0 870035 481931 0 855584 494082 0 841031 505928 0 826378 517474 0 811629 528725 0 796786 539686 0 781852 550361 0 766828 560754 0 751718 570870 0 736525 580712 0 721249 590284 0 705895 599591 0 690464 608635 0 674959 617420 0 659381 625951 0 643734 634229 0 628019 642258 0 612239 650042 0 596396 657582 0 580492 664884 0 564529 671948 0 548510 678778 0 532435 685376 0 516308 691746 0 500130 697889 0 483903 703808 0 467629 709505 0 451311 714982 0 434949 720242 0 418546 725286 0 402104 730117 0 385624 734737 0 369108 739147 0 352558 743348 0 335976 747343 0 319362 751134 0 302720 754721 0 286051 758106 0 269355 761291 0 252636 764277 0 235894 767064 0 219131 769654 0 202349 772049 0 185549 774248 0 168732 776254 0 151901 778065 0 135056 779685 0 118200 781112 0 101333 782348 0 84457.7 783393 0 67574.9 784248 0 50686.3 784913 0 33793.3 785387 0 16897.4 785672 0 0 785768 0 6.98492e-10 -3.11667e+06 0 383258 -3.01802e+06 0 660626 -2.83225e+06 0 850376 -2.64023e+06 0 984807 -2.45768e+06 0 1.08216e+06 -2.29008e+06 0 1.15443e+06 -2.13741e+06 0 1.20902e+06 -1.9985e+06 0 1.25088e+06 -1.87182e+06 0 1.28332e+06 -1.75586e+06 0 1.30863e+06 -1.64926e+06 0 1.32845e+06 -1.55084e+06 0 1.34396e+06 -1.45959e+06 0 1.35602e+06 -1.37464e+06 0 1.36529e+06 -1.29526e+06 0 1.37226e+06 -1.22083e+06 0 1.37732e+06 -1.1508e+06 0 1.38077e+06 -1.08472e+06 0 1.38285e+06 -1.02218e+06 0 1.38374e+06 -962853 0 1.38361e+06 -906431 0 1.38258e+06 -852656 0 1.38075e+06 -801300 0 1.3782e+06 -752161 0 1.37502e+06 -705063 0 1.37126e+06 -659849 0 1.36696e+06 -616379 0 1.36218e+06 -574530 0 1.35695e+06 -534190 0 1.35131e+06 -495260 0 1.34527e+06 -457649 0 1.33887e+06 -421276 0 1.33213e+06 -386069 0 1.32506e+06 -351960 0 1.31767e+06 -318890 0 1.31e+06 -286803 0 1.30204e+06 -255650 0 1.29381e+06 -225383 0 1.28532e+06 -195962 0 1.27657e+06 -167347 0 1.26759e+06 -139503 0 1.25837e+06 -112397 0 1.24892e+06 -85997.5 0 1.23925e+06 -60277.9 0 1.22936e+06 -35211.6 0 1.21927e+06 -10774.4 0 1.20898e+06 13056.1 0 1.19848e+06 36301 0 1.18779e+06 58979.7 0 1.17692e+06 81110.6 0 1.16585e+06 102711 0 1.15461e+06 123796 0 1.14319e+06 144382 0 1.13161e+06 164482 0 1.11985e+06 184110 0 1.10793e+06 203279 0 1.09584e+06 222000 0 1.0836e+06 240284 0 1.07121e+06 258143 0 1.05866e+06 275585 0 1.04597e+06 292622 0 1.03314e+06 309261 0 1.02016e+06 325512 0 1.00705e+06 341383 0 993801 356881 0 980423 372015 0 966916 386791 0 953285 401216 0 939531 415297 0 925658 429041 0 911669 442453 0 897566 455539 0 883353 468305 0 869031 480757 0 854605 492899 0 840077 504736 0 825448 516275 0 810723 527518 0 795904 538472 0 780992 549139 0 765991 559525 0 750904 569634 0 735732 579469 0 720479 589035 0 705146 598335 0 689737 607373 0 674252 616153 0 658695 624677 0 643069 632949 0 627374 640973 0 611614 648752 0 595791 656287 0 579906 663584 0 563962 670643 0 547962 677469 0 531906 684063 0 515797 690428 0 499638 696567 0 483429 702482 0 467173 708175 0 450873 713649 0 434529 718905 0 418143 723946 0 401718 728774 0 385255 733391 0 368757 737798 0 352224 741997 0 335658 745989 0 319062 749777 0 302436 753362 0 285783 756745 0 269104 759928 0 252401 762912 0 235675 765697 0 218928 768286 0 202161 770679 0 185377 772877 0 168576