<?xml version="1.0"?> 
<VTKFile type="StructuredGrid" version="0.1"> 
<StructuredGrid WholeExtent="0 127 0 127 0 0"> 
<Piece Extent="0 127 0 127 0 0"> 
<PointData>
<DataArray type="Float32" Name="E" format="ascii" NumberOfComponents="3"> 
-939622 -0.0168219 0 -939612 604.097 0 -939584 1209.08 0 -939536 1815.87 0 -939469 2425.35 0 -939383 3038.42 0 -939278 3655.96 0 -939152 4278.89 0 -939007 4908.09 0 -938842 5544.46 0 -938656 6188.91 0 -938450 6842.33 0 -938222 7505.62 0 -937973 8179.69 0 -937701 8865.43 0 -937407 9563.76 0 -937089 10275.6 0 -936748 11001.8 0 -936382 11743.2 0 -935991 12500.9 0 -935575 13275.6 0 -935131 14068.3 0 -934660 14879.8 0 -934160 15711.1 0 -933631 16562.9 0 -933071 17436.3 0 -932479 18331.9 0 -931855 19250.7 0 -931196 20193.5 0 -930503 21161 0 -929772 22154.1 0 -929003 23173.6 0 -928195 24220 0 -927345 25294.3 0 -926452 26396.9 0 -925514 27528.6 0 -924529 28690 0 -923496 29881.5 0 -922413 31103.7 0 -921277 32356.9 0 -920085 33641.6 0 -918837 34957.9 0 -917529 36306.3 0 -916159 37686.6 0 -914724 39099 0 -913222 40543.4 0 -911650 42019.6 0 -910005 43527.3 0 -908284 45066 0 -906485 46635.3 0 -904604 48234.4 0 -902637 49862.4 0 -900583 51518.2 0 -898437 53200.8 0 -896197 54908.7 0 -893858 56640.3 0 -891418 58394 0 -888874 60167.6 0 -886221 61959 0 -883456 63765.9 0 -880577 65585.6 0 -877579 67415.2 0 -874459 69251.6 0 -871214 71091.6 0 -867842 72931.5 0 -864338 74767.6 0 -860700 76595.9 0 -856925 78412.1 0 -853010 80211.8 0 -848954 81990.3 0 -844753 83742.7 0 -840405 85463.9 0 -835909 87148.7 0 -831262 88791.8 0 -826464 90387.5 0 -821513 91930.2 0 -816407 93414.2 0 -811147 94833.6 0 -805732 96182.3 0 -800160 97454.6 0 -794433 98644.3 0 -788551 99745.5 0 -782513 100752 0 -776321 101658 0 -769974 102458 0 -763475 103146 0 -756823 103715 0 -750021 104161 0 -743069 104477 0 -735968 104658 0 -728720 104699 0 -721326 104595 0 -713787 104339 0 -706103 103926 0 -698276 103352 0 -690306 102611 0 -682193 101697 0 -673937 100605 0 -665537 99329.3 0 -656992 97864.1 0 -648301 96203.1 0 -639460 94339.6 0 -630467 92266.4 0 -621318 89975.7 0 -612008 87458.9 0 -602529 84706.2 0 -592875 81706.9 0 -583037 78448.4 0 -573003 74916.7 0 -562760 71095 0 -552292 66964.1 0 -541579 62501.1 0 -530600 57678.5 0 -519325 52463.4 0 -507722 46815.4 0 -495748 40684.4 0 -483352 34007.7 0 -470469 26704.2 0 -457013 18669.5 0 -442878 9757.29 0 -427898 -214.199 0 -411916 -11590.1 0 -394448 -24591.7 0 -375460 -40699.9 0 -352889 -58677.9 0 -327162 -89494.8 0 -289753 -116236 0 -140949 -282712 0 -939869 -0.0169414 0 -939860 610.073 0 -939832 1221.04 0 -939786 1833.83 0 -939721 2449.33 0 -939637 3068.44 0 -939534 3692.06 0 -939412 4321.11 0 -939270 4956.49 0 -939109 5599.09 0 -938928 6249.84 0 -938726 6909.63 0 -938504 7579.39 0 -938260 8260.01 0 -937995 8952.41 0 -937708 9657.51 0 -937398 10376.2 0 -937065 11109.4 0 -936708 11858.1 0 -936327 12623.1 0 -935919 13405.3 0 -935486 14205.7 0 -935026 15025.2 0 -934537 15864.6 0 -934020 16724.8 0 -933473 17606.8 0 -932895 18511.4 0 -932284 19439.4 0 -931640 20391.7 0 -930961 21369.1 0 -930246 22372.4 0 -929494 23402.5 0 -928702 24460.1 0 -927870 25545.8 0 -926995 26660.5 0 -926077 27804.7 0 -925112 28979.1 0 -924099 30184.3 0 -923037 31420.8 0 -921922 32688.9 0 -920753 33989.2 0 -919528 35322 0 -918244 36687.5 0 -916898 38085.9 0 -915488 39517.2 0 -914012 40981.4 0 -912466 42478.4 0 -910849 44008 0 -909155 45569.7 0 -907384 47163.1 0 -905532 48787.4 0 -903595 50442 0 -901571 52125.8 0 -899455 53837.6 0 -897246 55576.2 0 -894938 57340 0 -892530 59127.4 0 -890017 60936.4 0 -887396 62764.8 0 -884663 64610.4 0 -881816 66470.5 0 -878850 68342.4 0 -875763 70223 0 -872550 72109 0 -869209 73996.8 0 -865737 75882.9 0 -862130 77763 0 -858386 79633.1 0 -854501 81488.6 0 -850474 83325 0 -846302 85137.3 0 -841982 86920.5 0 -837512 88669.3 0 -832891 90378.3 0 -828117 92042 0 -823189 93654.6 0 -818106 95210.4 0 -812866 96703.4 0 -807469 98127.8 0 -801915 99477.4 0 -796204 100746 0 -790336 101928 0 -784311 103017 0 -778129 104008 0 -771792 104893 0 -765300 105668 0 -758654 106327 0 -751855 106863 0 -744905 107271 0 -737805 107546 0 -730556 107682 0 -723159 107675 0 -715615 107517 0 -707925 107206 0 -700091 106734 0 -692111 106097 0 -683988 105290 0 -675720 104308 0 -667307 103145 0 -658748 101796 0 -650041 100254 0 -641184 98514.2 0 -632174 96569.1 0 -623006 94411.7 0 -613676 92034.3 0 -604177 89427.9 0 -594501 86582.8 0 -584640 83487.9 0 -574582 80130.4 0 -564313 76495.7 0 -553818 72566.4 0 -543077 68322.5 0 -532067 63740 0 -520759 58790.2 0 -509119 53438.1 0 -497105 47641 0 -484662 41345.5 0 -471725 34483.7 0 -458206 26969.9 0 -443993 18683.3 0 -428917 9485.77 0 -412790 -902.825 0 -395195 -12626.5 0 -375790 -26711 0 -353213 -42631.8 0 -326165 -65371.9 0 -287981 -91279.9 0 -216278 -141269 0 -940120 -0.0170665 0 -940111 615.856 0 -940084 1232.62 0 -940039 1851.21 0 -939975 2472.53 0 -939893 3097.49 0 -939793 3727 0 -939674 4361.98 0 -939536 5003.33 0 -939379 5651.96 0 -939202 6308.81 0 -939006 6974.77 0 -938789 7650.78 0 -938552 8337.74 0 -938293 9036.59 0 -938013 9748.24 0 -937711 10473.6 0 -937386 11213.7 0 -937038 11969.3 0 -936665 12741.4 0 -936268 13530.9 0 -935845 14338.8 0 -935395 15165.9 0 -934918 16013.2 0 -934413 16881.5 0 -933879 17771.9 0 -933314 18685.1 0 -932717 19622 0 -932088 20583.6 0 -931424 21570.6 0 -930725 22583.9 0 -929989 23624.4 0 -929214 24692.7 0 -928400 25789.6 0 -927544 26916 0 -926644 28072.4 0 -925699 29259.6 0 -924707 30478 0 -923666 31728.4 0 -922573 33011.2 0 -921427 34326.8 0 -920225 35675.6 0 -918965 37057.9 0 -917644 38473.8 0 -916259 39923.7 0 -914809 41407.4 0 -913290 42924.8 0 -911700 44475.8 0 -910035 46060.1 0 -908293 47677.2 0 -906469 49326.5 0 -904562 51007.2 0 -902568 52718.5 0 -900484 54459.2 0 -898305 56228.1 0 -896030 58023.7 0 -893653 59844.5 0 -891173 61688.4 0 -888585 63553.5 0 -885885 65437.5 0 -883070 67337.8 0 -880138 69251.6 0 -877083 71176 0 -873903 73107.7 0 -870595 75043.3 0 -867155 76979 0 -863580 78910.8 0 -859868 80834.6 0 -856014 82745.9 0 -852017 84640.1 0 -847874 86512.3 0 -843583 88357.4 0 -839141 90170.2 0 -834547 91945.2 0 -829798 93676.9 0 -824894 95359.6 0 -819834 96987.3 0 -814615 98554.2 0 -809239 100054 0 -803704 101481 0 -798009 102830 0 -792156 104093 0 -786145 105265 0 -779975 106340 0 -773648 107311 0 -767164 108174 0 -760525 108922 0 -753731 109549 0 -746784 110050 0 -739685 110419 0 -732436 110650 0 -725037 110740 0 -717490 110681 0 -709795 110470 0 -701954 110101 0 -693967 109569 0 -685835 108870 0 -677556 107997 0 -669132 106946 0 -660560 105712 0 -651840 104289 0 -642968 102672 0 -633943 100854 0 -624759 98828.5 0 -615412 96588.9 0 -605895 94127.1 0 -596202 91434.2 0 -586322 88500.3 0 -576245 85314.1 0 -565957 81862.6 0 -555442 78130.6 0 -544680 74100.7 0 -533649 69752 0 -522319 65059.7 0 -510657 59994.2 0 -498619 54519 0 -486153 48589.8 0 -473191 42150.4 0 -459646 35131.6 0 -445406 27437.4 0 -430307 18959.8 0 -414148 9497.7 0 -396562 -1084.75 0 -377131 -13356.4 0 -354769 -27326.8 0 -328190 -44754.4 0 -292697 -65476.7 0 -238577 -89522.5 0 -940374 -0.0171867 0 -940365 621.446 0 -940339 1243.8 0 -940295 1868 0 -940233 2494.95 0 -940153 3125.57 0 -940055 3760.77 0 -939939 4401.47 0 -939805 5048.6 0 -939652 5703.06 0 -939480 6365.8 0 -939288 7037.73 0 -939077 7719.78 0 -938846 8412.87 0 -938594 9117.95 0 -938321 9835.94 0 -938027 10567.8 0 -937710 11314.4 0 -937370 12076.7 0 -937007 12855.7 0 -936619 13652.3 0 -936207 14467.4 0 -935768 15301.9 0 -935303 16156.8 0 -934810 17033.1 0 -934288 17931.5 0 -933737 18853.1 0 -933154 19798.7 0 -932539 20769.3 0 -931891 21765.6 0 -931207 22788.6 0 -930488 23839 0 -929731 24917.8 0 -928934 26025.6 0 -928097 27163.3 0 -927216 28331.6 0 -926291 29531.2 0 -925320 30762.6 0 -924300 32026.5 0 -923230 33323.5 0 -922106 34654 0 -920928 36018.5 0 -919692 37417.2 0 -918396 38850.4 0 -917037 40318.4 0 -915614 41821.1 0 -914122 43358.6 0 -912559 44930.7 0 -910923 46537.1 0 -909209 48177.5 0 -907416 49851.3 0 -905539 51557.7 0 -903576 53296.1 0 -901523 55065.3 0 -899376 56864.1 0 -897133 58691.2 0 -894789 60544.9 0 -892341 62423.4 0 -889786 64324.8 0 -887120 66246.8 0 -884340 68186.9 0 -881441 70142.4 0 -878420 72110.3 0 -875274 74087.5 0 -871999 76070.5 0 -868592 78055.6 0 -865050 80039 0 -861370 82016.3 0 -857548 83983.2 0 -853583 85935.1 0 -849470 87867.1 0 -845208 89774.1 0 -840795 91650.9 0 -836229 93491.9 0 -831507 95291.7 0 -826628 97044.5 0 -821592 98744.4 0 -816396 100385 0 -811041 101961 0 -805525 103466 0 -799849 104894 0 -794012 106239 0 -788015 107494 0 -781858 108654 0 -775542 109712 0 -769068 110663 0 -762436 111500 0 -755649 112218 0 -748706 112812 0 -741610 113275 0 -734361 113603 0 -726961 113789 0 -719412 113830 0 -711713 113720 0 -703867 113454 0 -695874 113026 0 -687733 112433 0 -679446 111670 0 -671012 110731 0 -662429 109612 0 -653697 108307 0 -644813 106812 0 -635774 105120 0 -626576 103225 0 -617215 101122 0 -607684 98803 0 -597976 96260 0 -588081 93484.5 0 -577990 90466.4 0 -567687 87194.3 0 -557158 83655.2 0 -546383 79833.8 0 -535339 75712.3 0 -523998 71269.5 0 -512326 66480.5 0 -500281 61314.9 0 -487810 55736.2 0 -474847 49698.9 0 -461308 43147.7 0 -447081 36009.3 0 -432015 28199.6 0 -415907 19582.5 0 -398436 10042 0 -379176 -720.336 0 -357293 -12819.6 0 -331526 -26834.7 0 -299188 -42740.8 0 -255070 -58096.2 0 -940631 -0.017304 0 -940622 626.841 0 -940596 1254.6 0 -940553 1884.21 0 -940493 2516.59 0 -940416 3152.67 0 -940321 3793.36 0 -940208 4439.59 0 -940077 5092.29 0 -939928 5752.38 0 -939761 6420.81 0 -939574 7098.49 0 -939369 7786.37 0 -939144 8485.38 0 -938898 9196.47 0 -938632 9920.57 0 -938346 10658.6 0 -938037 11411.6 0 -937706 12180.4 0 -937352 12966.1 0 -936974 13769.4 0 -936572 14591.5 0 -936145 15433.2 0 -935691 16295.5 0 -935210 17179.4 0 -934701 18085.7 0 -934163 19015.3 0 -933594 19969.3 0 -932994 20948.6 0 -932361 21953.9 0 -931694 22986.2 0 -930991 24046.4 0 -930251 25135.3 0 -929473 26253.7 0 -928654 27402.5 0 -927793 28582.3 0 -926888 29793.8 0 -925938 31037.9 0 -924940 32315.1 0 -923891 33625.9 0 -922791 34970.9 0 -921636 36350.6 0 -920425 37765.4 0 -919154 39215.5 0 -917822 40701.2 0 -916425 42222.5 0 -914960 43779.6 0 -913426 45372.4 0 -911818 47000.5 0 -910134 48663.8 0 -908371 50361.6 0 -906525 52093.4 0 -904593 53858.4 0 -902571 55655.7 0 -900457 57484 0 -898247 59342 0 -895936 61228.3 0 -893523 63141.1 0 -891001 65078.4 0 -888370 67038 0 -885623 69017.5 0 -882759 71014.3 0 -879772 73025.5 0 -876661 75047.8 0 -873421 77078 0 -870048 79112.3 0 -866540 81146.9 0 -862893 83177.6 0 -859104 85200 0 -855171 87209.5 0 -851090 89201.2 0 -846859 91170 0 -842475 93110.7 0 -837937 95017.9 0 -833243 96885.8 0 -828391 98708.8 0 -823380 100481 0 -818208 102196 0 -812875 103848 0 -807380 105431 0 -801723 106939 0 -795903 108366 0 -789922 109704 0 -783779 110949 0 -777476 112094 0 -771012 113133 0 -764389 114060 0 -757608 114870 0 -750671 115557 0 -743578 116115 0 -736331 116538 0 -728932 116823 0 -721381 116963 0 -713680 116954 0 -705830 116790 0 -697831 116468 0 -689684 115982 0 -681389 115327 0 -672946 114500 0 -664354 113495 0 -655611 112307 0 -646716 110933 0 -637666 109366 0 -628457 107601 0 -619084 105633 0 -609541 103455 0 -599822 101059 0 -589916 98439.6 0 -579814 95586.3 0 -569501 92489.8 0 -558964 89138.8 0 -548182 85520.3 0 -537133 81619.2 0 -525789 77417.7 0 -514118 72895 0 -502078 68026.2 0 -489619 62781.8 0 -476676 57125.7 0 -463168 51014.8 0 -448990 44394.3 0 -433998 37201.6 0 -418003 29347.5 0 -400722 20747.5 0 -381759 11252.9 0 -360458 780.343 0 -335786 -10767.5 0 -305925 -23251 0 -267780 -34397.3 0 -940890 -0.0174155 0 -940882 632.04 0 -940857 1265 0 -940815 1899.83 0 -940757 2537.45 0 -940681 3178.79 0 -940589 3824.77 0 -940479 4476.32 0 -940352 5134.39 0 -940207 5799.91 0 -940044 6473.81 0 -939863 7157.04 0 -939663 7850.54 0 -939444 8555.26 0 -939205 9272.14 0 -938947 10002.1 0 -938667 10746.2 0 -938367 11505.3 0 -938045 12280.4 0 -937700 13072.4 0 -937333 13882.3 0 -936941 14711.2 0 -936524 15559.8 0 -936082 16429.2 0 -935614 17320.4 0 -935118 18234.2 0 -934593 19171.8 0 -934038 20133.8 0 -933453 21121.5 0 -932835 22135.5 0 -932184 23176.9 0 -931498 24246.5 0 -930776 25345.2 0 -930016 26473.9 0 -929216 27633.3 0 -928374 28824.3 0 -927490 30047.5 0 -926560 31303.9 0 -925584 32593.9 0 -924558 33918.2 0 -923481 35277.4 0 -922351 36671.9 0 -921164 38102.3 0 -919919 39568.9 0 -918612 41071.9 0 -917242 42611.5 0 -915806 44187.8 0 -914300 45800.7 0 -912721 47450.2 0 -911067 49135.8 0 -909334 50857.3 0 -907519 52614 0 -905619 54405.3 0 -903630 56230.1 0 -901549 58087.5 0 -899372 59976.1 0 -897095 61894.5 0 -894716 63841.1 0 -892229 65813.9 0 -889632 67810.7 0 -886921 69829.4 0 -884092 71867.1 0 -881141 73921.1 0 -878065 75988.4 0 -874860 78065.4 0 -871522 80148.7 0 -868049 82234.3 0 -864436 84318.1 0 -860681 86395.8 0 -856781 88462.7 0 -852733 90514 0 -848533 92544.6 0 -844181 94549.3 0 -839673 96522.5 0 -835007 98458.7 0 -830183 100352 0 -825198 102196 0 -820051 103986 0 -814741 105715 0 -809268 107376 0 -803631 108964 0 -797830 110472 0 -791866 111895 0 -785738 113225 0 -779448 114457 0 -772995 115585 0 -766382 116603 0 -759610 117504 0 -752679 118284 0 -745590 118937 0 -738347 119457 0 -730949 119840 0 -723398 120079 0 -715695 120171 0 -707841 120111 0 -699838 119893 0 -691686 119513 0 -683385 118968 0 -674934 118251 0 -666334 117360 0 -657583 116290 0 -648679 115035 0 -639619 113593 0 -630400 111956 0 -621018 110121 0 -611466 108082 0 -601737 105832 0 -591824 103365 0 -581714 100673 0 -571397 97748.2 0 -560855 94580.6 0 -550072 91159.3 0 -539025 87471.7 0 -527687 83503 0 -516027 79236.3 0 -504003 74651.5 0 -491569 69725.2 0 -478663 64429.4 0 -465207 58731.5 0 -451102 52592.1 0 -436218 45966.7 0 -420378 38799.8 0 -403336 31038.4 0 -384743 22619.6 0 -364071 13517.8 0 -340504 3821.31 0 -312824 -6187.24 0 -279005 -14790.2 0 -941153 -0.0175227 0 -941145 637.043 0 -941120 1275.01 0 -941080 1914.87 0 -941023 2557.52 0 -940950 3203.91 0 -940860 3854.98 0 -940753 4511.67 0 -940630 5174.9 0 -940489 5845.64 0 -940331 6524.81 0 -940155 7213.38 0 -939960 7912.28 0 -939747 8622.48 0 -939515 9344.94 0 -939264 10080.6 0 -938992 10830.5 0 -938700 11595.4 0 -938387 12376.5 0 -938052 13174.7 0 -937694 13991 0 -937313 14826.3 0 -936907 15681.6 0 -936477 16557.9 0 -936021 17456.1 0 -935538 18377.2 0 -935026 19322.3 0 -934486 20292.2 0 -933916 21287.9 0 -933313 22310.4 0 -932679 23360.5 0 -932009 24439.2 0 -931305 25547.4 0 -930563 26686 0 -929782 27855.8 0 -928960 29057.6 0 -928096 30292.2 0 -927188 31560.4 0 -926233 32862.9 0 -925230 34200.3 0 -924177 35573.2 0 -923070 36982.3 0 -921908 38427.9 0 -920689 39910.5 0 -919409 41430.4 0 -918067 42987.8 0 -916658 44582.8 0 -915181 46215.5 0 -913632 47885.9 0 -912008 49593.5 0 -910306 51338.2 0 -908523 53119.4 0 -906655 54936.4 0 -904699 56788.4 0 -902651 58674.3 0 -900508 60593.1 0 -898266 62543.3 0 -895921 64523.2 0 -893470 66531 0 -890908 68564.7 0 -888233 70622 0 -885440 72700.4 0 -882525 74796.9 0 -879485 76908.6 0 -876316 79032.3 0 -873014 81164.2 0 -869577 83300.5 0 -865999 85437.3 0 -862279 87570 0 -858413 89694.2 0 -854399 91805 0 -850232 93897.3 0 -845912 95965.9 0 -841435 98005.2 0 -836799 100010 0 -832003 101973 0 -827045 103890 0 -821924 105754 0 -816639 107560 0 -811189 109300 0 -805574 110968 0 -799793 112559 0 -793846 114065 0 -787735 115481 0 -781459 116801 0 -775019 118018 0 -768417 119126 0 -761653 120120 0 -754730 120994 0 -747647 121742 0 -740407 122359 0 -733012 122839 0 -725461 123179 0 -717758 123372 0 -709903 123414 0 -701896 123301 0 -693740 123028 0 -685433 122591 0 -676977 121986 0 -668370 121208 0 -659611 120254 0 -650699 119119 0 -641632 117799 0 -632405 116289 0 -623015 114586 0 -613456 112683 0 -603722 110576 0 -593803 108259 0 -583690 105726 0 -573371 102969 0 -562830 99979.9 0 -552051 96750.1 0 -541011 93269 0 -529686 89524.8 0 -518043 85503.8 0 -506046 81190.2 0 -493649 76565.9 0 -480792 71610 0 -467405 66298.8 0 -453394 60605 0 -438641 54499.6 0 -422986 47951 0 -406213 40933.3 0 -388024 33433.1 0 -367992 25475 0 -345482 17216.2 0 -319630 8994.74 0 -289120 2125.07 0 -941418 -0.017626 0 -941410 641.847 0 -941387 1284.63 0 -941347 1929.3 0 -941292 2576.79 0 -941221 3228.05 0 -941134 3884.01 0 -941030 4545.61 0 -940911 5213.81 0 -940774 5889.55 0 -940620 6573.79 0 -940449 7267.48 0 -940260 7971.58 0 -940054 8687.05 0 -939828 9414.85 0 -939584 10156 0 -939320 10911.4 0 -939036 11682 0 -938732 12468.9 0 -938406 13273 0 -938058 14095.3 0 -937688 14936.9 0 -937293 15798.6 0 -936875 16681.4 0 -936431 17586.5 0 -935961 18514.6 0 -935463 19467 0 -934937 20444.4 0 -934381 21447.9 0 -933795 22478.5 0 -933176 23537 0 -932524 24624.5 0 -931837 25741.9 0 -931113 26890 0 -930351 28069.8 0 -929550 29282.1 0 -928706 30527.7 0 -927819 31807.4 0 -926887 33122 0 -925907 34472.1 0 -924877 35858.4 0 -923795 37281.5 0 -922659 38742 0 -921465 40240.2 0 -920212 41776.5 0 -918897 43351.3 0 -917517 44964.7 0 -916069 46616.7 0 -914549 48307.4 0 -912956 50036.6 0 -911286 51804 0 -909534 53609.2 0 -907699 55451.5 0 -905777 57330.2 0 -903763 59244.3 0 -901654 61192.8 0 -899447 63174.2 0 -897138 65187 0 -894723 67229.5 0 -892198 69299.6 0 -889559 71395.2 0 -886803 73513.7 0 -883925 75652.4 0 -880922 77808.3 0 -877790 79978.1 0 -874525 82158.4 0 -871124 84345.2 0 -867583 86534.7 0 -863899 88722.3 0 -860068 90903.6 0 -856088 93073.7 0 -851956 95227.6 0 -847668 97360 0 -843223 99465.4 0 -838619 101538 0 -833853 103572 0 -828923 105562 0 -823829 107501 0 -818570 109383 0 -813144 111201 0 -807551 112950 0 -801791 114624 0 -795863 116215 0 -789769 117717 0 -783509 119124 0 -777083 120431 0 -770493 121630 0 -763739 122717 0 -756824 123685 0 -749748 124528 0 -742513 125242 0 -735121 125821 0 -727573 126260 0 -719870 126555 0 -712013 126700 0 -704005 126692 0 -695845 126525 0 -687534 126197 0 -679073 125702 0 -670460 125037 0 -661696 124198 0 -652778 123182 0 -643704 121984 0 -634471 120600 0 -625075 119026 0 -615512 117259 0 -605773 115293 0 -595852 113123 0 -585738 110745 0 -575421 108151 0 -564885 105336 0 -554113 102292 0 -543086 99010.8 0 -531779 95482.7 0 -520162 91697.3 0 -508200 87642.4 0 -495847 83304.6 0 -483052 78668.9 0 -469746 73719 0 -455844 68437.4 0 -441238 62807.6 0 -425786 56815.4 0 -409301 50455.7 0 -391528 43744.9 0 -372122 36740.4 0 -350590 29622.1 0 -326309 22731.3 0 -298387 17080.8 0 -941686 -0.0177226 0 -941678 646.454 0 -941656 1293.85 0 -941618 1943.14 0 -941564 2595.27 0 -941495 3251.18 0 -941411 3911.83 0 -941310 4578.15 0 -941194 5251.11 0 -941061 5931.65 0 -940912 6620.74 0 -940746 7319.34 0 -940563 8028.42 0 -940363 8748.93 0 -940144 9481.87 0 -939907 10228.2 0 -939651 10988.9 0 -939375 11765 0 -939080 12557.4 0 -938763 13367.2 0 -938426 14195.4 0 -938066 15042.9 0 -937683 15910.7 0 -937276 16799.9 0 -936844 17711.5 0 -936387 18646.4 0 -935903 19605.7 0 -935391 20590.3 0 -934851 21601.4 0 -934280 22639.7 0 -933678 23706.4 0 -933043 24802.4 0 -932373 25928.6 0 -931668 27085.9 0 -930925 28275.4 0 -930144 29497.8 0 -929321 30754 0 -928455 32044.8 0 -927545 33371.1 0 -926588 34733.5 0 -925582 36132.8 0 -924525 37569.6 0 -923414 39044.5 0 -922247 40557.8 0 -921021 42110.2 0 -919734 43701.9 0 -918382 45333.1 0 -916963 47004.1 0 -915474 48714.7 0 -913912 50465 0 -912273 52254.6 0 -910555 54083.3 0 -908753 55950.4 0 -906864 57855.4 0 -904884 59797.2 0 -902811 61774.8 0 -900640 63787 0 -898367 65832.3 0 -895988 67909 0 -893500 70015.1 0 -890899 72148.5 0 -888180 74306.8 0 -885340 76487.2 0 -882375 78686.9 0 -879280 80902.6 0 -876053 83130.9 0 -872690 85367.9 0 -869186 87609.7 0 -865539 89852 0 -861745 92090.3 0 -857800 94319.6 0 -853703 96535 0 -849450 98731.1 0 -845038 100902 0 -840465 103043 0 -835730 105148 0 -830831 107210 0 -825765 109224 0 -820533 111183 0 -815132 113081 0 -809563 114911 0 -803824 116667 0 -797917 118342 0 -791842 119931 0 -785598 121427 0 -779187 122823 0 -772610 124114 0 -765868 125294 0 -758962 126356 0 -751894 127295 0 -744665 128107 0 -737277 128785 0 -729731 129324 0 -722030 129720 0 -714173 129969 0 -706164 130065 0 -698002 130005 0 -689688 129784 0 -681223 129400 0 -672606 128847 0 -663836 128123 0 -654913 127225 0 -645834 126147 0 -636597 124888 0 -627198 123443 0 -617631 121808 0 -607890 119981 0 -597969 117956 0 -587857 115729 0 -577544 113295 0 -567016 110649 0 -556257 107785 0 -545247 104697 0 -533963 101377 0 -522377 97817.2 0 -510455 94008.9 0 -498156 89942.5 0 -485430 85608.1 0 -472215 80995.5 0 -458433 76095.1 0 -443986 70900.1 0 -428748 65408.9 0 -412558 59631.5 0 -395199 53602.4 0 -376392 47397.7 0 -355752 41198.4 0 -332820 35323.2 0 -306983 30565.8 0 -941957 -0.0178156 0 -941949 650.86 0 -941927 1302.66 0 -941890 1956.38 0 -941839 2612.95 0 -941772 3273.32 0 -941690 3938.44 0 -941593 4609.28 0 -941480 5286.78 0 -941352 5971.92 0 -941207 6665.65 0 -941046 7368.95 0 -940869 8082.78 0 -940675 8808.13 0 -940463 9545.98 0 -940233 10297.3 0 -939985 11063.1 0 -939717 11844.4 0 -939431 12642.1 0 -939124 13457.3 0 -938796 14291.1 0 -938446 15144.3 0 -938075 16018 0 -937680 16913.3 0 -937260 17831.1 0 -936816 18772.5 0 -936346 19738.4 0 -935849 20730 0 -935323 21748.2 0 -934768 22794.1 0 -934182 23868.6 0 -933564 24972.7 0 -932913 26107.4 0 -932226 27273.6 0 -931503 28472.4 0 -930741 29704.5 0 -929940 30971 0 -929096 32272.6 0 -928208 33610.2 0 -927274 34984.5 0 -926292 36396.4 0 -925260 37846.4 0 -924174 39335.2 0 -923034 40863.4 0 -921835 42431.3 0 -920576 44039.5 0 -919253 45688.1 0 -917864 47377.4 0 -916406 49107.6 0 -914875 50878.4 0 -913269 52689.8 0 -911583 54541.5 0 -909815 56433 0 -907960 58363.6 0 -906016 60332.6 0 -903978 62339 0 -901843 64381.5 0 -899607 66458.8 0 -897265 68569.1 0 -894815 70710.8 0 -892252 72881.6 0 -889571 75079.2 0 -886770 77301 0 -883843 79544 0 -880788 81805.3 0 -877600 84081.2 0 -874275 86368.1 0 -870809 88662.1 0 -867200 90958.7 0 -863443 93253.6 0 -859535 95542 0 -855474 97818.7 0 -851256 100078 0 -846879 102316 0 -842340 104525 0 -837637 106700 0 -832768 108835 0 -827732 110924 0 -822528 112960 0 -817153 114937 0 -811609 116848 0 -805894 118687 0 -800009 120448 0 -793953 122124 0 -787727 123708 0 -781332 125195 0 -774769 126577 0 -768039 127850 0 -761143 129007 0 -754084 130043 0 -746862 130952 0 -739479 131729 0 -731938 132369 0 -724238 132867 0 -716383 133218 0 -708373 133419 0 -700210 133466 0 -691894 133353 0 -683426 133079 0 -674805 132638 0 -666032 132029 0 -657106 131247 0 -648023 130289 0 -638783 129153 0 -629381 127835 0 -619812 126331 0 -610072 124640 0 -600153 122757 0 -590045 120678 0 -579739 118400 0 -569222 115919 0 -558477 113230 0 -547488 110328 0 -536231 107208 0 -524681 103864 0 -512805 100291 0 -500566 96481.5 0 -487916 92430.4 0 -474799 88132.6 0 -461143 83584.6 0 -446862 78787.1 0 -431844 73747.6 0 -415949 68486.7 0 -398995 63049.3 0 -380752 57520.2 0 -360921 52072.2 0 -339158 46991.4 0 -315028 42906.9 0 -942230 -0.0179041 0 -942223 655.066 0 -942201 1311.08 0 -942166 1969.02 0 -942116 2629.82 0 -942051 3294.44 0 -941972 3963.84 0 -941878 4638.99 0 -941769 5320.84 0 -941644 6010.36 0 -941505 6708.52 0 -941349 7416.3 0 -941177 8134.67 0 -940989 8864.63 0 -940784 9607.15 0 -940561 10363.2 0 -940321 11133.9 0 -940062 11920.1 0 -939784 12722.9 0 -939486 13543.3 0 -939169 14382.4 0 -938830 15241 0 -938469 16120.4 0 -938086 17021.4 0 -937680 17945.2 0 -937249 18892.8 0 -936792 19865.2 0 -936309 20863.4 0 -935799 21888.5 0 -935260 22941.6 0 -934690 24023.5 0 -934090 25135.4 0 -933456 26278.3 0 -932788 27453 0 -932084 28660.7 0 -931343 29902.3 0 -930562 31178.6 0 -929740 32490.6 0 -928875 33839.1 0 -927964 35225 0 -927007 36649 0 -925999 38111.8 0 -924940 39614.1 0 -923826 41156.6 0 -922655 42739.7 0 -921424 44363.8 0 -920131 46029.4 0 -918772 47736.7 0 -917345 49485.8 0 -915845 51276.7 0 -914271 53109.4 0 -912619 54983.6 0 -910885 56898.9 0 -909065 58854.8 0 -907156 60850.5 0 -905155 62885 0 -903057 64957.3 0 -900858 67066.1 0 -898554 69209.7 0 -896143 71386.4 0 -893618 73594.1 0 -890977 75830.6 0 -888215 78093.2 0 -885328 80379.3 0 -882312 82685.6 0 -879163 85008.9 0 -875878 87345.3 0 -872452 89691.1 0 -868881 92041.9 0 -865163 94393.2 0 -861293 96740.4 0 -857269 99078.3 0 -853088 101402 0 -848746 103705 0 -844242 105982 0 -839572 108228 0 -834735 110436 0 -829730 112600 0 -824555 114713 0 -819208 116769 0 -813690 118762 0 -808000 120685 0 -802137 122531 0 -796102 124294 0 -789895 125967 0 -783517 127544 0 -776969 129019 0 -770252 130386 0 -763368 131638 0 -756319 132770 0 -749105 133777 0 -741728 134654 0 -734192 135394 0 -726496 135994 0 -718642 136449 0 -710633 136755 0 -702470 136908 0 -694153 136903 0 -685682 136738 0 -677060 136410 0 -668284 135914 0 -659354 135248 0 -650270 134409 0 -641027 133394 0 -631624 132202 0 -622056 130828 0 -612317 129270 0 -602401 127526 0 -592300 125592 0 -582003 123467 0 -571499 121146 0 -560773 118626 0 -549807 115904 0 -538581 112976 0 -527070 109839 0 -515245 106490 0 -503069 102924 0 -490500 99139.2 0 -477486 95135.1 0 -463962 90913.1 0 -449850 86479.3 0 -435053 81847.9 0 -419448 77046.3 0 -402884 72125.1 0 -385170 67171.5 0 -366071 62345.7 0 -345326 57899.8 0 -322619 54337.9 0 -942506 -0.0179862 0 -942499 659.07 0 -942478 1319.09 0 -942444 1981.05 0 -942395 2645.88 0 -942333 3314.55 0 -942256 3988.03 0 -942165 4667.27 0 -942060 5353.25 0 -941940 6046.95 0 -941805 6749.32 0 -941654 7461.37 0 -941488 8184.06 0 -941306 8918.41 0 -941107 9665.39 0 -940892 10426 0 -940659 11201.3 0 -940409 11992.2 0 -940140 12799.9 0 -939852 13625.2 0 -939544 14469.3 0 -939216 15333.2 0 -938867 16217.9 0 -938496 17124.5 0 -938102 18053.9 0 -937684 19007.4 0 -937241 19985.9 0 -936773 20990.5 0 -936278 22022.2 0 -935754 23082 0 -935201 24171.2 0 -934618 25290.5 0 -934002 26441.2 0 -933353 27624.2 0 -932669 28840.4 0 -931948 30091 0 -931188 31376.8 0 -930388 32698.8 0 -929546 34057.8 0 -928659 35454.8 0 -927725 36890.5 0 -926743 38365.7 0 -925710 39881.2 0 -924623 41437.5 0 -923480 43035.2 0 -922278 44674.9 0 -921014 46356.9 0 -919686 48081.6 0 -918290 49849.2 0 -916823 51659.7 0 -915281 53513.2 0 -913663 55409.4 0 -911963 57348 0 -910179 59328.6 0 -908306 61350.4 0 -906341 63412.6 0 -904280 65514.2 0 -902120 67653.9 0 -899855 69830.3 0 -897482 72041.5 0 -894997 74285.7 0 -892396 76560.5 0 -889674 78863.7 0 -886827 81192.3 0 -883852 83543.3 0 -880744 85913.4 0 -877499 88299 0 -874113 90696.3 0 -870583 93100.9 0 -866904 95508.5 0 -863074 97914.2 0 -859088 100313 0 -854944 102700 0 -850639 105069 0 -846170 107415 0 -841535 109731 0 -836732 112012 0 -831759 114251 0 -826614 116441 0 -821297 118577 0 -815806 120652 0 -810141 122658 0 -804302 124590 0 -798289 126440 0 -792102 128203 0 -785742 129871 0 -779211 131438 0 -772509 132899 0 -765638 134247 0 -758599 135477 0 -751394 136582 0 -744025 137558 0 -736493 138400 0 -728802 139102 0 -720951 139661 0 -712944 140072 0 -704781 140331 0 -696463 140434 0 -687992 140378 0 -679368 140161 0 -670591 139778 0 -661659 139227 0 -652573 138506 0 -643330 137613 0 -633927 136544 0 -624360 135297 0 -614624 133871 0 -604713 132264 0 -594620 130472 0 -584335 128495 0 -573846 126329 0 -563140 123974 0 -552200 121425 0 -541008 118683 0 -529540 115744 0 -517768 112607 0 -505659 109272 0 -493174 105738 0 -480266 102008 0 -466876 98087.9 0 -452935 93987.3 0 -438356 89725.3 0 -423034 85333.5 0 -406842 80864.9 0 -389621 76405.5 0 -371185 72101.5 0 -351332 68172.8 0 -329830 65027.8 0 -942784 -0.0180663 0 -942777 662.873 0 -942757 1326.7 0 -942724 1992.47 0 -942677 2661.13 0 -942617 3333.65 0 -942543 4010.99 0 -942455 4694.13 0 -942353 5384.03 0 -942237 6081.69 0 -942107 6788.06 0 -941962 7504.16 0 -941801 8230.96 0 -941625 8969.46 0 -941434 9720.67 0 -941226 10485.6 0 -941001 11265.3 0 -940759 12060.7 0 -940499 12872.9 0 -940220 13702.9 0 -939923 14551.8 0 -939605 15420.7 0 -939267 16310.4 0 -938908 17222.3 0 -938526 18157.2 0 -938122 19116.2 0 -937693 20100.5 0 -937239 21111.1 0 -936759 22149.1 0 -936252 23215.5 0 -935715 24311.5 0 -935149 25438 0 -934552 26596.1 0 -933922 27786.9 0 -933257 29011.4 0 -932556 30270.6 0 -931818 31565.5 0 -931040 32897.1 0 -930220 34266.2 0 -929357 35673.9 0 -928449 37120.9 0 -927492 38608 0 -926485 40136.1 0 -925425 41705.8 0 -924310 43317.7 0 -923137 44972.5 0 -921903 46670.5 0 -920605 48412.1 0 -919241 50197.7 0 -917806 52027.3 0 -916298 53901 0 -914714 55818.7 0 -913049 57780.1 0 -911301 59784.8 0 -909465 61832.2 0 -907537 63921.6 0 -905514 66051.9 0 -903392 68222.1 0 -901167 70430.6 0 -898834 72675.8 0 -896389 74955.9 0 -893828 77268.7 0 -891148 79611.8 0 -888342 81982.5 0 -885409 84377.8 0 -882342 86794.4 0 -879138 89228.8 0 -875794 91677.2 0 -872305 94135.3 0 -868667 96598.8 0 -864876 99062.9 0 -860930 101523 0 -856825 103973 0 -852558 106407 0 -848126 108821 0 -843527 111208 0 -838759 113562 0 -833819 115876 0 -828706 118144 0 -823419 120360 0 -817956 122516 0 -812318 124607 0 -806504 126624 0 -800514 128563 0 -794349 130415 0 -788009 132174 0 -781495 133835 0 -774808 135391 0 -767951 136835 0 -760923 138162 0 -753729 139366 0 -746368 140442 0 -738843 141385 0 -731157 142190 0 -723310 142852 0 -715305 143368 0 -707144 143733 0 -698827 143945 0 -690355 143998 0 -681730 143891 0 -672952 143621 0 -664020 143185 0 -654933 142581 0 -645690 141807 0 -636288 140860 0 -626724 139740 0 -616992 138443 0 -607088 136970 0 -597004 135317 0 -586731 133485 0 -576260 131471 0 -565576 129274 0 -554664 126894 0 -543508 124329 0 -532084 121580 0 -520368 118646 0 -508329 115529 0 -495931 112231 0 -483130 108757 0 -469875 105116 0 -456103 101322 0 -441739 97394.9 0 -426691 93369.9 0 -410851 89300.5 0 -394089 85268.8 0 -376254 81407.2 0 -357189 77906.9 0 -336719 75102.5 0 -943064 -0.0181386 0 -943058 666.473 0 -943039 1333.91 0 -943006 2003.29 0 -942961 2675.57 0 -942903 3351.73 0 -942832 4032.73 0 -942748 4719.55 0 -942649 5413.17 0 -942538 6114.57 0 -942412 6824.73 0 -942272 7544.66 0 -942117 8275.34 0 -941947 9017.78 0 -941762 9772.99 0 -941562 10542 0 -941345 11325.8 0 -941111 12125.5 0 -940860 12942 0 -940591 13776.5 0 -940303 14629.9 0 -939997 15503.4 0 -939670 16398 0 -