<?xml version="1.0"?> 
<VTKFile type="StructuredGrid" version="0.1"> 
<StructuredGrid WholeExtent="0 127 0 127 0 0"> 
<Piece Extent="0 127 0 127 0 0"> 
<PointData>
<DataArray type="Float32" Name="E" format="ascii" NumberOfComponents="3"> 
324618 4.92351e+06 0 322938 4.92359e+06 0 321203 4.92339e+06 0 319413 4.92292e+06 0 317568 4.92217e+06 0 315670 4.92114e+06 0 313719 4.91984e+06 0 311715 4.91827e+06 0 309661 4.91643e+06 0 307556 4.91433e+06 0 305402 4.91196e+06 0 303200 4.90933e+06 0 300952 4.90644e+06 0 298658 4.90331e+06 0 296322 4.89992e+06 0 293943 4.8963e+06 0 291523 4.89243e+06 0 289065 4.88834e+06 0 286569 4.88401e+06 0 284038 4.87946e+06 0 281474 4.8747e+06 0 278877 4.86973e+06 0 276249 4.86455e+06 0 273594 4.85918e+06 0 270911 4.85361e+06 0 268203 4.84787e+06 0 265473 4.84194e+06 0 262720 4.83585e+06 0 259948 4.82959e+06 0 257157 4.82317e+06 0 254350 4.81661e+06 0 251527 4.8099e+06 0 248691 4.80306e+06 0 245844 4.79609e+06 0 242985 4.78901e+06 0 240118 4.78181e+06 0 237243 4.7745e+06 0 234362 4.7671e+06 0 231475 4.7596e+06 0 228585 4.75202e+06 0 225692 4.74437e+06 0 222797 4.73664e+06 0 219902 4.72885e+06 0 217007 4.721e+06 0 214113 4.7131e+06 0 211222 4.70516e+06 0 208334 4.69719e+06 0 205449 4.68918e+06 0 202570 4.68115e+06 0 199695 4.6731e+06 0 196826 4.66503e+06 0 193964 4.65696e+06 0 191108 4.64889e+06 0 188260 4.64083e+06 0 185420 4.63277e+06 0 182588 4.62474e+06 0 179765 4.61672e+06 0 176951 4.60872e+06 0 174146 4.60076e+06 0 171350 4.59284e+06 0 168564 4.58495e+06 0 165788 4.57711e+06 0 163022 4.56931e+06 0 160266 4.56157e+06 0 157520 4.55389e+06 0 154784 4.54627e+06 0 152059 4.53871e+06 0 149343 4.53122e+06 0 146639 4.5238e+06 0 143944 4.51646e+06 0 141260 4.5092e+06 0 138586 4.50201e+06 0 135921 4.49492e+06 0 133267 4.48791e+06 0 130623 4.48099e+06 0 127989 4.47417e+06 0 125364 4.46744e+06 0 122749 4.46081e+06 0 120143 4.45428e+06 0 117546 4.44785e+06 0 114959 4.44153e+06 0 112380 4.43531e+06 0 109810 4.42921e+06 0 107248 4.42322e+06 0 104695 4.41734e+06 0 102150 4.41157e+06 0 99613.2 4.40592e+06 0 97083.9 4.40039e+06 0 94562.2 4.39499e+06 0 92047.9 4.3897e+06 0 89540.8 4.38453e+06 0 87040.6 4.37949e+06 0 84547.1 4.37458e+06 0 82060.3 4.36979e+06 0 79579.7 4.36513e+06 0 77105.4 4.3606e+06 0 74637 4.35619e+06 0 72174.3 4.35192e+06 0 69717.1 4.34779e+06 0 67265.3 4.34378e+06 0 64818.6 4.33991e+06 0 62376.9 4.33617e+06 0 59939.9 4.33257e+06 0 57507.4 4.3291e+06 0 55079.3 4.32577e+06 0 52655.3 4.32258e+06 0 50235.3 4.31953e+06 0 47819.1 4.31661e+06 0 45406.4 4.31384e+06 0 42997.1 4.3112e+06 0 40591 4.3087e+06 0 38187.9 4.30635e+06 0 35787.6 4.30413e+06 0 33389.9 4.30206e+06 0 30994.8 4.30012e+06 0 28601.8 4.29833e+06 0 26211 4.29668e+06 0 23822.1 4.29518e+06 0 21435 4.29381e+06 0 19049.4 4.29259e+06 0 16665.2 4.29152e+06 0 14282.2 4.29058e+06 0 11900.3 4.28979e+06 0 9519.17 4.28914e+06 0 7138.78 4.28864e+06 0 4758.9 4.28828e+06 0 2379.36 4.28806e+06 0 0 4.28799e+06 0 324558 4.92261e+06 0 323039 4.92266e+06 0 321464 4.92244e+06 0 319834 4.92195e+06 0 318149 4.92117e+06 0 316409 4.92013e+06 0 314615 4.91881e+06 0 312767 4.91721e+06 0 310866 4.91535e+06 0 308914 4.91323e+06 0 306911 4.91084e+06 0 304858 4.90819e+06 0 302756 4.90529e+06 0 300606 4.90213e+06 0 298411 4.89873e+06 0 296170 4.89509e+06 0 293886 4.89121e+06 0 291560 4.88709e+06 0 289193 4.88275e+06 0 286788 4.87819e+06 0 284345 4.87341e+06 0 281867 4.86843e+06 0 279355 4.86324e+06 0 276810 4.85785e+06 0 274235 4.85227e+06 0 271630 4.84651e+06 0 268999 4.84058e+06 0 266341 4.83447e+06 0 263660 4.82821e+06 0 260956 4.82178e+06 0 258232 4.81521e+06 0 255488 4.8085e+06 0 252726 4.80165e+06 0 249949 4.79468e+06 0 247157 4.78758e+06 0 244351 4.78038e+06 0 241534 4.77307e+06 0 238706 4.76566e+06 0 235869 4.75816e+06 0 233024 4.75058e+06 0 230172 4.74292e+06 0 227315 4.73519e+06 0 224453 4.7274e+06 0 221588 4.71955e+06 0 218720 4.71165e+06 0 215851 4.70371e+06 0 212981 4.69573e+06 0 210111 4.68772e+06 0 207243 4.67969e+06 0 204376 4.67164e+06 0 201511 4.66358e+06 0 198650 4.65551e+06 0 195792 4.64744e+06 0 192939 4.63938e+06 0 190090 4.63132e+06 0 187247 4.62328e+06 0 184410 4.61527e+06 0 181578 4.60728e+06 0 178753 4.59932e+06 0 175935 4.59139e+06 0 173124 4.58351e+06 0 170320 4.57566e+06 0 167523 4.56787e+06 0 164735 4.56013e+06 0 161954 4.55245e+06 0 159181 4.54483e+06 0 156417 4.53728e+06 0 153660 4.52979e+06 0 150912 4.52237e+06 0 148173 4.51503e+06 0 145441 4.50777e+06 0 142719 4.50059e+06 0 140004 4.4935e+06 0 137298 4.48649e+06 0 134600 4.47957e+06 0 131911 4.47275e+06 0 129229 4.46602e+06 0 126556 4.45939e+06 0 123891 4.45286e+06 0 121234 4.44644e+06 0 118584 4.44012e+06 0 115942 4.4339e+06 0 113308 4.4278e+06 0 110682 4.42181e+06 0 108062 4.41593e+06 0 105450 4.41017e+06 0 102845 4.40452e+06 0 100246 4.39899e+06 0 97654.6 4.39359e+06 0 95069.4 4.3883e+06 0 92490.7 4.38313e+06 0 89918.2 4.37809e+06 0 87351.7 4.37318e+06 0 84791.1 4.36839e+06 0 82236.2 4.36373e+06 0 79686.9 4.3592e+06 0 77142.9 4.3548e+06 0 74604.1 4.35053e+06 0 72070.3 4.34639e+06 0 69541.4 4.34239e+06 0 67017.1 4.33852e+06 0 64497.3 4.33478e+06 0 61981.9 4.33118e+06 0 59470.5 4.32771e+06 0 56963.2 4.32438e+06 0 54459.6 4.32119e+06 0 51959.7 4.31814e+06 0 49463.2 4.31522e+06 0 46970 4.31245e+06 0 44479.9 4.30981e+06 0 41992.7 4.30731e+06 0 39508.3 4.30496e+06 0 37026.5 4.30274e+06 0 34547.2 4.30067e+06 0 32070.1 4.29874e+06 0 29595.1 4.29694e+06 0 27122.1 4.2953e+06 0 24650.8 4.29379e+06 0 22181.2 4.29243e+06 0 19712.9 4.29121e+06 0 17246 4.29013e+06 0 14780.2 4.28919e+06 0 12315.4 4.2884e+06 0 9851.34 4.28776e+06 0 7387.95 4.28725e+06 0 4925.03 4.28689e+06 0 2462.43 4.28668e+06 0 0 4.2866e+06 0 324505 4.92179e+06 0 323146 4.92183e+06 0 321732 4.92159e+06 0 320261 4.92107e+06 0 318735 4.92027e+06 0 317154 4.9192e+06 0 315517 4.91786e+06 0 313825 4.91625e+06 0 312079 4.91437e+06 0 310279 4.91222e+06 0 308426 4.90981e+06 0 306521 4.90714e+06 0 304566 4.90422e+06 0 302560 4.90104e+06 0 300505 4.89762e+06 0 298403 4.89396e+06 0 296254 4.89006e+06 0 294060 4.88592e+06 0 291822 4.88157e+06 0 289542 4.87699e+06 0 287221 4.87219e+06 0 284861 4.86719e+06 0 282464 4.86199e+06 0 280030 4.85659e+06 0 277561 4.851e+06 0 275060 4.84522e+06 0 272527 4.83927e+06 0 269965 4.83316e+06 0 267374 4.82688e+06 0 264757 4.82044e+06 0 262115 4.81386e+06 0 259450 4.80714e+06 0 256763 4.80028e+06 0 254055 4.7933e+06 0 251329 4.7862e+06 0 248585 4.77898e+06 0 245825 4.77167e+06 0 243051 4.76425e+06 0 240263 4.75675e+06 0 237463 4.74916e+06 0 234653 4.74149e+06 0 231833 4.73376e+06 0 229004 4.72596e+06 0 226168 4.71811e+06 0 223326 4.71021e+06 0 220479 4.70227e+06 0 217627 4.69428e+06 0 214772 4.68627e+06 0 211915 4.67824e+06 0 209055 4.67019e+06 0 206195 4.66212e+06 0 203335 4.65405e+06 0 200475 4.64598e+06 0 197616 4.63792e+06 0 194759 4.62986e+06 0 191904 4.62183e+06 0 189052 4.61381e+06 0 186204 4.60582e+06 0 183359 4.59786e+06 0 180518 4.58993e+06 0 177681 4.58205e+06 0 174850 4.57421e+06 0 172023 4.56642e+06 0 169202 4.55868e+06 0 166387 4.551e+06 0 163577 4.54338e+06 0 160773 4.53582e+06 0 157976 4.52833e+06 0 155185 4.52092e+06 0 152400 4.51358e+06 0 149622 4.50632e+06 0 146851 4.49914e+06 0 144086 4.49204e+06 0 141328 4.48504e+06 0 138576 4.47812e+06 0 135832 4.4713e+06 0 133094 4.46457e+06 0 130363 4.45794e+06 0 127638 4.45142e+06 0 124920 4.44499e+06 0 122209 4.43867e+06 0 119504 4.43246e+06 0 116806 4.42636e+06 0 114114 4.42037e+06 0 111428 4.41449e+06 0 108749 4.40873e+06 0 106075 4.40308e+06 0 103408 4.39755e+06 0 100746 4.39215e+06 0 98090.5 4.38686e+06 0 95440.2 4.3817e+06 0 92795.3 4.37666e+06 0 90155.9 4.37174e+06 0 87521.6 4.36695e+06 0 84892.3 4.3623e+06 0 82268.1 4.35776e+06 0 79648.5 4.35336e+06 0 77033.7 4.34909e+06 0 74423.3 4.34496e+06 0 71817.2 4.34095e+06 0 69215.4 4.33708e+06 0 66617.6 4.33334e+06 0 64023.6 4.32974e+06 0 61433.5 4.32628e+06 0 58846.9 4.32295e+06 0 56263.8 4.31976e+06 0 53683.9 4.3167e+06 0 51107.2 4.31379e+06 0 48533.5 4.31101e+06 0 45962.6 4.30838e+06 0 43394.4 4.30588e+06 0 40828.7 4.30352e+06 0 38265.4 4.30131e+06 0 35704.4 4.29923e+06 0 33145.4 4.2973e+06 0 30588.3 4.29551e+06 0 28033.1 4.29386e+06 0 25479.4 4.29236e+06 0 22927.3 4.29099e+06 0 20376.4 4.28977e+06 0 17826.8 4.28869e+06 0 15278.2 4.28776e+06 0 12730.5 4.28697e+06 0 10183.5 4.28632e+06 0 7637.1 4.28582e+06 0 5091.16 4.28546e+06 0 2545.5 4.28524e+06 0 0 4.28517e+06 0 324457 4.92107e+06 0 323259 4.92108e+06 0 322005 4.92082e+06 0 320695 4.92028e+06 0 319328 4.91946e+06 0 317905 4.91837e+06 0 316425 4.91701e+06 0 314889 4.91537e+06 0 313298 4.91347e+06 0 311650 4.9113e+06 0 309948 4.90886e+06 0 308192 4.90617e+06 0 306382 4.90323e+06 0 304520 4.90003e+06 0 302606 4.89659e+06 0 300641 4.89291e+06 0 298627 4.88898e+06 0 296565 4.88483e+06 0 294456 4.88045e+06 0 292302 4.87586e+06 0 290102 4.87104e+06 0 287861 4.86602e+06 0 285577 4.8608e+06 0 283254 4.85538e+06 0 280892 4.84978e+06 0 278494 4.84399e+06 0 276060 4.83802e+06 0 273592 4.83189e+06 0 271092 4.8256e+06 0 268562 4.81915e+06 0 266002 4.81256e+06 0 263415 4.80582e+06 0 260801 4.79895e+06 0 258164 4.79196e+06 0 255503 4.78485e+06 0 252821 4.77763e+06 0 250118 4.7703e+06 0 247397 4.76288e+06 0 244658 4.75536e+06 0 241904 4.74777e+06 0 239134 4.74009e+06 0 236351 4.73235e+06 0 233556 4.72455e+06 0 230749 4.71669e+06 0 227933 4.70878e+06 0 225107 4.70083e+06 0 222274 4.69285e+06 0 219433 4.68483e+06 0 216587 4.6768e+06 0 213735 4.66874e+06 0 210879 4.66067e+06 0 208020 4.6526e+06 0 205157 4.64453e+06 0 202293 4.63646e+06 0 199428 4.6284e+06 0 196561 4.62036e+06 0 193695 4.61234e+06 0 190829 4.60435e+06 0 187964 4.59639e+06 0 185101 4.58846e+06 0 182239 4.58057e+06 0 179380 4.57273e+06 0 176523 4.56494e+06 0 173669 4.5572e+06 0 170819 4.54952e+06 0 167972 4.5419e+06 0 165130 4.53434e+06 0 162291 4.52686e+06 0 159457 4.51944e+06 0 156627 4.5121e+06 0 153802 4.50484e+06 0 150982 4.49766e+06 0 148167 4.49056e+06 0 145357 4.48356e+06 0 142552 4.47664e+06 0 139752 4.46982e+06 0 136958 4.46309e+06 0 134169 4.45646e+06 0 131385 4.44994e+06 0 128606 4.44351e+06 0 125833 4.43719e+06 0 123066 4.43098e+06 0 120303 4.42488e+06 0 117546 4.41889e+06 0 114794 4.41301e+06 0 112048 4.40725e+06 0 109306 4.4016e+06 0 106569 4.39607e+06 0 103838 4.39067e+06 0 101111 4.38538e+06 0 98389.4 4.38022e+06 0 95672.3 4.37518e+06 0 92959.8 4.37026e+06 0 90251.8 4.36547e+06 0 87548.3 4.36082e+06 0 84849.1 4.35628e+06 0 82154 4.35188e+06 0 79463.1 4.34761e+06 0 76776.1 4.34348e+06 0 74092.9 4.33947e+06 0 71413.5 4.3356e+06 0 68737.7 4.33186e+06 0 66065.3 4.32826e+06 0 63396.3 4.3248e+06 0 60730.5 4.32147e+06 0 58067.8 4.31828e+06 0 55408.1 4.31522e+06 0 52751.2 4.31231e+06 0 50096.9 4.30953e+06 0 47445.3 4.3069e+06 0 44796 4.3044e+06 0 42149.1 4.30204e+06 0 39504.3 4.29983e+06 0 36861.5 4.29775e+06 0 34220.7 4.29582e+06 0 31581.6 4.29403e+06 0 28944.1 4.29238e+06 0 26308.1 4.29088e+06 0 23673.4 4.28951e+06 0 21040 4.28829e+06 0 18407.6 4.28721e+06 0 15776.2 4.28628e+06 0 13145.6 4.28549e+06 0 10515.7 4.28484e+06 0 7886.27 4.28434e+06 0 5257.29 4.28398e+06 0 2628.57 4.28376e+06 0 0 4.28369e+06 0 324416 4.92044e+06 0 323379 4.92043e+06 0 322286 4.92015e+06 0 321136 4.91959e+06 0 319929 4.91875e+06 0 318664 4.91763e+06 0 317341 4.91624e+06 0 315961 4.91458e+06 0 314524 4.91266e+06 0 313029 4.91046e+06 0 311477 4.90801e+06 0 309869 4.90529e+06 0 308206 4.90232e+06 0 306487 4.89911e+06 0 304714 4.89564e+06 0 302887 4.89193e+06 0 301008 4.88799e+06 0 299078 4.88382e+06 0 297097 4.87942e+06 0 295068 4.8748e+06 0 292990 4.86996e+06 0 290866 4.86492e+06 0 288697 4.85968e+06 0 286484 4.85424e+06 0 284229 4.84862e+06 0 281933 4.84281e+06 0 279597 4.83683e+06 0 277224 4.83068e+06 0 274815 4.82437e+06 0 272371 4.81791e+06 0 269893 4.8113e+06 0 267384 4.80455e+06 0 264844 4.79767e+06 0 262276 4.79066e+06 0 259681 4.78354e+06 0 257060 4.7763e+06 0 254414 4.76896e+06 0 251746 4.76153e+06 0 249056 4.754e+06 0 246346 4.7464e+06 0 243618 4.73872e+06 0 240872 4.73097e+06 0 238109 4.72315e+06 0 235332 4.71529e+06 0 232541 4.70737e+06 0 229737 4.69942e+06 0 226922 4.69142e+06 0 224096 4.6834e+06 0 221260 4.67536e+06 0 218416 4.6673e+06 0 215564 4.65922e+06 0 212705 4.65114e+06 0 209841 4.64307e+06 0 206971 4.63499e+06 0 204097 4.62693e+06 0 201219 4.61889e+06 0 198338 4.61087e+06 0 195455 4.60287e+06 0 192570 4.5949e+06 0 189683 4.58697e+06 0 186797 4.57909e+06 0 183909 4.57124e+06 0 181023 4.56345e+06 0 178136 4.55571e+06 0 175251 4.54802e+06 0 172368 4.5404e+06 0 169486 4.53284e+06 0 166606 4.52535e+06 0 163729 4.51794e+06 0 160854 4.51059e+06 0 157982 4.50333e+06 0 155113 4.49615e+06 0 152248 4.48906e+06 0 149386 4.48205e+06 0 146527 4.47513e+06 0 143672 4.46831e+06 0 140821 4.46158e+06 0 137974 4.45495e+06 0 135131 4.44842e+06 0 132292 4.442e+06 0 129458 4.43568e+06 0 126627 4.42946e+06 0 123800 4.42336e+06 0 120978 4.41737e+06 0 118160 4.41149e+06 0 115346 4.40573e+06 0 112536 4.40008e+06 0 109731 4.39455e+06 0 106929 4.38915e+06 0 104132 4.38386e+06 0 101339 4.3787e+06 0 98549.3 4.37366e+06 0 95763.8 4.36874e+06 0 92982.2 4.36395e+06 0 90204.3 4.35929e+06 0 87430.1 4.35476e+06 0 84659.6 4.35036e+06 0 81892.5 4.34609e+06 0 79129 4.34195e+06 0 76368.7 4.33795e+06 0 73611.7 4.33408e+06 0 70857.9 4.33034e+06 0 68107.1 4.32674e+06 0 65359.3 4.32327e+06 0 62614.3 4.31994e+06 0 59872 4.31675e+06 0 57132.3 4.3137e+06 0 54395.2 4.31078e+06 0 51660.5 4.30801e+06 0 48928 4.30537e+06 0 46197.7 4.30287e+06 0 43469.5 4.30052e+06 0 40743.2 4.2983e+06 0 38018.8 4.29623e+06 0 35296 4.29429e+06 0 32574.8 4.2925e+06 0 29855.1 4.29085e+06 0 27136.7 4.28935e+06 0 24419.6 4.28799e+06 0 21703.5 4.28676e+06 0 18988.4 4.28569e+06 0 16274.2 4.28475e+06 0 13560.7 4.28396e+06 0 10847.8 4.28331e+06 0 8135.44 4.28281e+06 0 5423.42 4.28245e+06 0 2711.65 4.28223e+06 0 0 4.28216e+06 0 324380 4.91991e+06 0 323505 4.91988e+06 0 322573 4.91957e+06 0 321584 4.91898e+06 0 320536 4.91812e+06 0 319430 4.91698e+06 0 318265 4.91557e+06 0 317041 4.91389e+06 0 315758 4.91193e+06 0 314416 4.90972e+06 0 313015 4.90724e+06 0 311555 4.9045e+06 0 310038 4.9015e+06 0 308462 4.89826e+06 0 306830 4.89477e+06 0 305141 4.89104e+06 0 303397 4.88707e+06 0 301598 4.88288e+06 0 299746 4.87845e+06 0 297841 4.87381e+06 0 295885 4.86895e+06 0 293879 4.86389e+06 0 291824 4.85863e+06 0 289721 4.85317e+06 0 287573 4.84752e+06 0 285379 4.8417e+06 0 283142 4.83569e+06 0 280863 4.82953e+06 0 278544 4.8232e+06 0 276185 4.81672e+06 0 273790 4.81009e+06 0 271358 4.80332e+06 0 268892 4.79642e+06 0 266394 4.7894e+06 0 263863 4.78226e+06 0 261303 4.77501e+06 0 258715 4.76766e+06 0 256099 4.76021e+06 0 253458 4.75267e+06 0 250793 4.74505e+06 0 248105 4.73736e+06 0 245396 4.7296e+06 0 242666 4.72178e+06 0 239918 4.7139e+06 0 237152 4.70597e+06 0 234370 4.69801e+06 0 231572 4.69001e+06 0 228760 4.68198e+06 0 225936 4.67392e+06 0 223099 4.66585e+06 0 220251 4.65777e+06 0 217393 4.64969e+06 0 214526 4.64161e+06 0 211650 4.63353e+06 0 208767 4.62546e+06 0 205878 4.61741e+06 0 202982 4.60938e+06 0 200082 4.60138e+06 0 197177 4.59341e+06 0 194268 4.58548e+06 0 191355 4.57758e+06 0 188440 4.56974e+06 0 185523 4.56194e+06 0 182604 4.55419e+06 0 179684 4.54651e+06 0 176764 4.53888e+06 0 173843 4.53132e+06 0 170922 4.52383e+06 0 168001 4.51641e+06 0 165081 4.50906e+06 0 162163 4.5018e+06 0 159245 4.49462e+06 0 156329 4.48752e+06 0 153415 4.48051e+06 0 150503 4.47359e+06 0 147593 4.46676e+06 0 144686 4.46003e+06 0 141781 4.4534e+06 0 138878 4.44687e+06 0 135979 4.44045e+06 0 133082 4.43413e+06 0 130189 4.42791e+06 0 127298 4.42181e+06 0 124411 4.41582e+06 0 121526 4.40994e+06 0 118645 4.40417e+06 0 115767 4.39852e+06 0 112893 4.393e+06 0 110021 4.38759e+06 0 107153 4.3823e+06 0 104288 4.37713e+06 0 101426 4.37209e+06 0 98568 4.36718e+06 0 95712.7 4.36239e+06 0 92860.5 4.35773e+06 0 90011.4 4.3532e+06 0 87165.3 4.3488e+06 0 84322.2 4.34453e+06 0 81482 4.34039e+06 0 78644.7 4.33638e+06 0 75810.1 4.33251e+06 0 72978.3 4.32877e+06 0 70149.1 4.32517e+06 0 67322.4 4.3217e+06 0 64498.1 4.31837e+06 0 61676.3 4.31518e+06 0 58856.8 4.31213e+06 0 56039.4 4.30921e+06 0 53224.2 4.30644e+06 0 50410.9 4.3038e+06 0 47599.6 4.3013e+06 0 44790.1 4.29894e+06 0 41982.3 4.29673e+06 0 39176.1 4.29465e+06 0 36371.5 4.29272e+06 0 33568.2 4.29093e+06 0 30766.2 4.28928e+06 0 27965.5 4.28777e+06 0 25165.8 4.28641e+06 0 22367.1 4.28519e+06 0 19569.3 4.28411e+06 0 16772.3 4.28318e+06 0 13975.9 4.28239e+06 0 11180 4.28174e+06 0 8384.64 4.28124e+06 0 5589.58 4.28088e+06 0 2794.73 4.28066e+06 0 0 4.28059e+06 0 324351 4.91946e+06 0 323638 4.91941e+06 0 322867 4.91908e+06 0 322038 4.91847e+06 0 321151 4.91759e+06 0 320204 4.91642e+06 0 319197 4.91499e+06 0 318129 4.91328e+06 0 317001 4.9113e+06 0 315811 4.90906e+06 0 314561 4.90655e+06 0 313250 4.90379e+06 0 311878 4.90077e+06 0 310447 4.8975e+06 0 308955 4.89398e+06 0 307404 4.89023e+06 0 305795 4.88623e+06 0 304128 4.88201e+06 0 302404 4.87756e+06 0 300624 4.87289e+06 0 298789 4.86801e+06 0 296901 4.86293e+06 0 294960 4.85764e+06 0 292967 4.85216e+06 0 290924 4.84649e+06 0 288833 4.84064e+06 0 286694 4.83461e+06 0 284509 4.82842e+06 0 282280 4.82207e+06 0 280008 4.81557e+06 0 277694 4.80892e+06 0 275340 4.80214e+06 0 272947 4.79522e+06 0 270518 4.78818e+06 0 268052 4.78102e+06 0 265553 4.77375e+06 0 263021 4.76639e+06 0 260458 4.75892e+06 0 257866 4.75137e+06 0 255245 4.74374e+06 0 252598 4.73603e+06 0 249925 4.72825e+06 0 247228 4.72042e+06 0 244509 4.71253e+06 0 241768 4.70459e+06 0 239007 4.69661e+06 0 236227 4.6886e+06 0 233429 4.68056e+06 0 230615 4.6725e+06 0 227785 4.66442e+06 0 224941 4.65633e+06 0 222083 4.64823e+06 0 219214 4.64014e+06 0 216332 4.63206e+06 0 213441 4.62398e+06 0 210539 4.61592e+06 0 207629 4.60789e+06 0 204711 4.59988e+06 0 201786 4.5919e+06 0 198854 4.58396e+06 0 195916 4.57607e+06 0 192973 4.56821e+06 0 190026 4.56041e+06 0 187074 4.55266e+06 0 184119 4.54497e+06 0 181161 4.53734e+06 0 178201 4.52977e+06 0 175239 4.52228e+06 0 172275 4.51485e+06 0 169310 4.50751e+06 0 166344 4.50024e+06 0 163378 4.49305e+06 0 160412 4.48595e+06 0 157446 4.47894e+06 0 154480 4.47202e+06 0 151515 4.46519e+06 0 148551 4.45846e+06 0 145588 4.45182e+06 0 142626 4.44529e+06 0 139666 4.43886e+06 0 136708 4.43254e+06 0 133751 4.42632e+06 0 130796 4.42022e+06 0 127844 4.41422e+06 0 124893 4.40834e+06 0 121945 4.40258e+06 0 118999 4.39693e+06 0 116055 4.3914e+06 0 113114 4.38599e+06 0 110175 4.3807e+06 0 107238 4.37553e+06 0 104304 4.37049e+06 0 101373 4.36557e+06 0 98443.7 4.36078e+06 0 95517.2 4.35612e+06 0 92593.1 4.35159e+06 0 89671.5 4.34719e+06 0 86752.3 4.34292e+06 0 83835.5 4.33878e+06 0 80921.1 4.33477e+06 0 78008.9 4.3309e+06 0 75099 4.32716e+06 0 72191.3 4.32356e+06 0 69285.8 4.32009e+06 0 66382.3 4.31676e+06 0 63480.9 4.31357e+06 0 60581.4 4.31051e+06 0 57683.9 4.3076e+06 0 54788.1 4.30482e+06 0 51894 4.30218e+06 0 49001.7 4.29968e+06 0 46110.9 4.29733e+06 0 43221.5 4.29511e+06 0 40333.6 4.29303e+06 0 37447.1 4.2911e+06 0 34561.7 4.28931e+06 0 31677.5 4.28766e+06 0 28794.4 4.28615e+06 0 25912.2 4.28479e+06 0 23030.8 4.28357e+06 0 20150.3 4.28249e+06 0 17270.4 4.28156e+06 0 14391.1 4.28077e+06 0 11512.3 4.28012e+06 0 8633.88 4.27961e+06 0 5755.76 4.27925e+06 0 2877.83 4.27904e+06 0 0 4.27897e+06 0 324328 4.91912e+06 0 323777 4.91904e+06 0 323168 4.91869e+06 0 322501 4.91806e+06 0 321774 4.91715e+06 0 320986 4.91596e+06 0 320137 4.9145e+06 0 319226 4.91276e+06 0 318252 4.91076e+06 0 317216 4.90849e+06 0 316117 4.90596e+06 0 314955 4.90316e+06 0 313729 4.90012e+06 0 312441 4.89682e+06 0 311090 4.89328e+06 0 309677 4.88949e+06 0 308203 4.88547e+06 0 306668 4.88122e+06 0 305072 4.87674e+06 0 303417 4.87205e+06 0 301703 4.86714e+06 0 299932 4.86203e+06 0 298105 4.85671e+06 0 296223 4.85121e+06 0 294286 4.84551e+06 0 292297 4.83964e+06 0 290256 4.83359e+06 0 288165 4.82737e+06 0 286025 4.821e+06 0 283839 4.81448e+06 0 281606 4.8078e+06 0 279330 4.801e+06 0 277010 4.79406e+06 0 274649 4.787e+06 0 272249 4.77982e+06 0 269810 4.77253e+06 0 267335 4.76515e+06 0 264824 4.75766e+06 0 262280 4.75009e+06 0 259704 4.74244e+06 0 257097 4.73472e+06 0 254460 4.72693e+06 0 251796 4.71908e+06 0 249105 4.71117e+06 0 246389 4.70322e+06 0 243649 4.69523e+06 0 240886 4.6872e+06 0 238102 4.67915e+06 0 235298 4.67108e+06 0 232476 4.66298e+06 0 229635 4.65488e+06 0 226778 4.64678e+06 0 223905 4.63868e+06 0 221018 4.63058e+06 0 218117 4.6225e+06 0 215204 4.61443e+06 0 212279 4.60639e+06 0 209343 4.59837e+06 0 206398 4.59039e+06 0 203443 4.58244e+06 0 200479 4.57453e+06 0 197508 4.56667e+06 0 194530 4.55886e+06 0 191546 4.55111e+06 0 188556 4.54341e+06 0 185561 4.53578e+06 0 182562 4.52821e+06 0 179558 4.5207e+06 0 176551 4.51328e+06 0 173541 4.50592e+06 0 170528 4.49865e+06 0 167513 4.49146e+06 0 164496 4.48436e+06 0 161478 4.47734e+06 0 158458 4.47042e+06 0 155438 4.46358e+06 0 152417 4.45685e+06 0 149396 4.45021e+06 0 146375 4.44368e+06 0 143355 4.43725e+06 0 140334 4.43092e+06 0 137315 4.4247e+06 0 134296 4.41859e+06 0 131278 4.4126e+06 0 128261 4.40671e+06 0 125245 4.40094e+06 0 122231 4.39529e+06 0 119218 4.38976e+06 0 116207 4.38435e+06 0 113197 4.37906e+06 0 110189 4.37389e+06 0 107183 4.36885e+06 0 104178 4.36393e+06 0 101175 4.35914e+06 0 98174.5 4.35447e+06 0 95175.5 4.34994e+06 0 92178.3 4.34554e+06 0 89183 4.34126e+06 0 86189.5 4.33712e+06 0 83197.9 4.33312e+06 0 80208.2 4.32924e+06 0 77220.2 4.3255e+06 0 74234.1 4.3219e+06 0 71249.6 4.31843e+06 0 68266.9 4.3151e+06 0 65285.9 4.31191e+06 0 62306.5 4.30885e+06 0 59328.7 4.30593e+06 0 56352.3 4.30316e+06 0 53377.5 4.30052e+06 0 50404 4.29802e+06 0 47431.9 4.29566e+06 0 44461.1 4.29344e+06 0 41491.4 4.29137e+06 0 38522.9 4.28944e+06 0 35555.4 4.28764e+06 0 32589 4.28599e+06 0 29623.4 4.28449e+06 0 26658.7 4.28312e+06 0 23694.7 4.2819e+06 0 20731.4 4.28082e+06 0 17768.6 4.27989e+06 0 14806.4 4.2791e+06 0 11844.6 4.27845e+06 0 8883.17 4.27795e+06 0 5921.97 4.27759e+06 0 2960.94 4.27737e+06 0 0 4.2773e+06 0 324311 4.91886e+06 0 323923 4.91877e+06 0 323477 4.91839e+06 0 322971 4.91773e+06 0 322405 4.9168e+06 0 321777 4.91559e+06 0 321086 4.9141e+06 0 320332 4.91234e+06 0 319514 4.9103e+06 0 318631 4.90801e+06 0 317683 4.90545e+06 0 316670 4.90262e+06 0 315591 4.89955e+06 0 314446 4.89622e+06 0 313236 4.89265e+06 0 311962 4.88884e+06 0 310622 4.88479e+06 0 309218 4.8805e+06 0 307751 4.876e+06 0 306221 4.87128e+06 0 304629 4.86634e+06 0 302975 4.8612e+06 0 301262 4.85585e+06 0 299489 4.85032e+06 0 297658 4.8446e+06 0 295771 4.83869e+06 0 293828 4.83262e+06 0 291831 4.82638e+06 0 289781 4.81998e+06 0 287680 4.81343e+06 0 285529 4.80673e+06 0 283329 4.7999e+06 0 281083 4.79294e+06 0 278791 4.78585e+06 0 276455 4.77865e+06 0 274076 4.77135e+06 0 271657 4.76394e+06 0 269199 4.75643e+06 0 266703 4.74884e+06 0 264170 4.74117e+06 0 261603 4.73343e+06 0 259002 4.72562e+06 0 256370 4.71775e+06 0 253708 4.70983e+06 0 251016 4.70186e+06 0 248297 4.69386e+06 0 245552 4.68582e+06 0 242782 4.67775e+06 0 239988 4.66966e+06 0 237172 4.66156e+06 0 234335 4.65344e+06 0 231478 4.64533e+06 0 228602 4.63721e+06 0 225709 4.6291e+06 0 222799 4.62101e+06 0 219873 4.61293e+06 0 216933 4.60488e+06 0 213980 4.59685e+06 0 211013 4.58886e+06 0 208035 4.5809e+06 0 205046 4.57299e+06 0 202047 4.56512e+06 0 199039 4.5573e+06 0 196021 4.54954e+06 0 192996 4.54183e+06 0 189964 4.53419e+06 0 186925 4.52661e+06 0 183880 4.51911e+06 0 180829 4.51167e+06 0 177774 4.50432e+06 0 174714 4.49704e+06 0 171650 4.48984e+06 0 168582 4.48273e+06 0 165512 4.47571e+06 0 162439 4.46878e+06 0 159363 4.46195e+06 0 156286 4.45521e+06 0 153207 4.44857e+06 0 150126 4.44203e+06 0 147045 4.43559e+06 0 143962 4.42926e+06 0 140880 4.42304e+06 0 137796 4.41693e+06 0 134713 4.41093e+06 0 131630 4.40504e+06 0 128547 4.39927e+06 0 125464 4.39362e+06 0 122382 4.38808e+06 0 119301 4.38267e+06 0 116220 4.37738e+06 0 113141 4.37221e+06 0 110062 4.36716e+06 0 106984 4.36224e+06 0 103908 4.35745e+06 0 100833 4.35278e+06 0 97758.6 4.34825e+06 0 94685.8 4.34384e+06 0 91614.4 4.33957e+06 0 88544.2 4.33543e+06 0 85475.5 4.33142e+06 0 82408.1 4.32754e+06 0 79342 4.3238e+06 0 76277.4 4.3202e+06 0 73214.1 4.31673e+06 0 70152.1 4.3134e+06 0 67091.4 4.3102e+06 0 64032 4.30714e+06 0 60973.9 4.30423e+06 0 57917 4.30145e+06 0 54861.3 4.29881e+06 0 51806.8 4.29631e+06 0 48753.3 4.29395e+06 0 45700.9 4.29173e+06 0 42649.5 4.28966e+06 0 39599 4.28772e+06 0 36549.4 4.28593e+06 0 33500.7 4.28428e+06 0 30452.7 4.28277e+06 0 27405.4 4.28141e+06 0 24358.7 4.28019e+06 0 21312.6 4.27911e+06 0 18267 4.27817e+06 0 15221.8 4.27738e+06 0 12177 4.27673e+06 0 9132.53 4.27623e+06 0 6088.23 4.27587e+06 0 3044.08 4.27565e+06 0 0 4.27558e+06 0 324301 4.9187e+06 0 324076 4.91858e+06 0 323793 4.91818e+06 0 323449 4.9175e+06 0 323044 4.91654e+06 0 322577 4.9153e+06 0 322045 4.91379e+06 0 321448 4.912e+06 0 320786 4.90994e+06 0 320056 4.90761e+06 0 319260 4.90502e+06 0 318396 4.90217e+06 0 317464 4.89906e+06 0 316463 4.89571e+06 0 315395 4.8921e+06 0 314258 4.88826e+06 0 313054 4.88418e+06 0 311782 4.87987e+06 0 310443 4.87533e+06 0 309037 4.87057e+06 0 307566 4.86561e+06 0 306031 4.86043e+06 0 304431 4.85506e+06 0 302768 4.84949e+06 0 301043 4.84374e+06 0 299257 4.83781e+06 0 297412 4.83171e+06 0 295509 4.82544e+06 0 293548 4.81901e+06 0 291532 4.81243e+06 0 289462 4.80571e+06 0 287340 4.79885e+06 0 285166 4.79186e+06 0 282942 4.78475e+06 0 280671 4.77753e+06 0 278352 4.77019e+06 0 275989 4.76276e+06 0 273583 4.75523e+06 0 271134 4.74762e+06 0 268646 4.73993e+06 0 266118 4.73217e+06 0 263553 4.72434e+06 0 260953 4.71645e+06 0 258319 4.70851e+06 0 255651 4.70052e+06 0 252953 4.6925e+06 0 250225 4.68444e+06 0 247468 4.67635e+06 0 244684 4.66825e+06 0 241875 4.66013e+06 0 239041 4.652e+06 0 236184 4.64387e+06 0 233305 4.63574e+06 0 230405 4.62762e+06 0 227486 4.61951e+06 0 224548 4.61142e+06 0 221593 4.60336e+06 0 218621 4.59532e+06 0 215634 4.58732e+06 0 212633 4.57935e+06 0 209618 4.57143e+06 0 206590 4.56355e+06 0 203551 4.55572e+06 0 200501 4.54795e+06 0 197440 4.54024e+06 0 194370 4.53259e+06 0 191292 4.525e+06 0 188205 4.51749e+06 0 185111 4.51005e+06 0 182010 4.50268e+06 0 178902 4.4954e+06 0 175790 4.4882e+06 0 172671 4.48108e+06 0 169549 4.47405e+06 0 166422 4.46712e+06 0 163291 4.46028e+06 0 160156 4.45353e+06 0 157019 4.44689e+06 0 153879 4.44034e+06 0 150737 4.4339e+06 0 147592 4.42757e+06 0 144446 4.42135e+06 0 141299 4.41523e+06 0 138150 4.40923e+06 0 135001 4.40334e+06 0 131850 4.39756e+06 0 128699 4.39191e+06 0 125548 4.38637e+06 0 122397 4.38095e+06 0 119245 4.37566e+06 0 116094 4.37048e+06 0 112943 4.36543e+06 0 109792 4.36051e+06 0 106642 4.35572e+06 0 103492 4.35105e+06 0 100343 4.34651e+06 0 97194.3 4.34211e+06 0 94046.7 4.33783e+06 0 90899.8 4.33369e+06 0 87753.8 4.32967e+06 0 84608.8 4.3258e+06 0 81464.6 4.32206e+06 0 78321.4 4.31845e+06 0 75179.1 4.31498e+06 0 72037.8 4.31165e+06 0 68897.5 4.30845e+06 0 65758.1 4.30539e+06 0 62619.7 4.30247e+06 0 59482.2 4.29969e+06 0 56345.6 4.29705e+06 0 53210 4.29455e+06 0 50075.1 4.29219e+06 0 46941.1 4.28998e+06 0 43807.9 4.2879e+06 0 40675.5 4.28596e+06 0 37543.7 4.28417e+06 0 34412.6 4.28252e+06 0 31282.2 4.28101e+06 0 28152.3 4.27965e+06 0 25022.9 4.27843e+06 0 21894 4.27735e+06 0 18765.5 4.27641e+06 0 15637.4 4.27562e+06 0 12509.6 4.27497e+06 0 9381.96 4.27447e+06 0 6254.54 4.27411e+06 0 3127.24 4.27389e+06 0 0 4.27382e+06 0 324297 4.91864e+06 0 324236 4.9185e+06 0 324116 4.91807e+06 0 323936 4.91737e+06 0 323693 4.91638e+06 0 323386 4.91511e+06 0 323014 4.91357e+06 0 322575 4.91175e+06 0 322068 4.90966e+06 0 321493 4.90731e+06 0 320849 4.90469e+06 0 320134 4.9018e+06 0 319349 4.89867e+06 0 318493 4.89528e+06 0 317566 4.89164e+06 0 316568 4.88776e+06 0 315498 4.88365e+06 0 314358 4.8793e+06 0 313148 4.87473e+06 0 311868 4.86994e+06 0 310518 4.86494e+06 0 309099 4.85974e+06 0 307613 4.85433e+06 0 306060 4.84873e+06 0 304441 4.84295e+06 0 302757 4.83698e+06 0 301010 4.83085e+06 0 299200 4.82455e+06 0 297329 4.81809e+06 0 295398 4.81148e+06 0 293409 4.80473e+06 0 291363 4.79784e+06 0 289261 4.79082e+06 0 287106 4.78369e+06 0 284898 4.77643e+06 0 282640 4.76907e+06 0 280333 4.76162e+06 0 277978 4.75406e+06 0 275577 4.74643e+06 0 273132 4.73871e+06 0 270644 4.73092e+06 0 268114 4.72307e+06 0 265546 4.71516e+06 0 262939 4.7072e+06 0 260296 4.69919e+06 0 257618 4.69115e+06 0 254906 4.68307e+06 0 252163 4.67497e+06 0 249389 4.66684e+06 0 246585 4.65871e+06 0 243754 4.65056e+06 0 240897 4.64241e+06 0 238014 4.63427e+06 0 235108 4.62613e+06 0 232179 4.61801e+06 0 229229 4.60991e+06 0 226258 4.60183e+06 0 223268 4.59378e+06 0 220260 4.58576e+06 0 217235 4.57779e+06 0 214194 4.56985e+06 0 211138 4.56196e+06 0 208068 4.55412e+06 0 204984 4.54634e+06 0 201888 4.53862e+06 0 198781 4.53096e+06 0 195662 4.52337e+06 0 192534 4.51584e+06 0 189396 4.50839e+06 0 186249 4.50102e+06 0 183095 4.49373e+06 0 179933 4.48652e+06 0 176764 4.4794e+06 0 173588 4.47237e+06 0 170407 4.46542e+06 0 167221 4.45858e+06 0 164030 4.45183e+06 0 160834 4.44518e+06 0 157634 4.43863e+06 0 154431 4.43218e+06 0 151225 4.42584e+06 0 148015 4.41961e+06 0 144803 4.41349e+06 0 141589 4.40749e+06 0 138373 4.40159e+06 0 135155 4.39582e+06 0 131936 4.39016e+06 0 128715 4.38461e+06 0 125494 4.37919e+06 0 122271 4.37389e+06 0 119048 4.36872e+06 0 115825 4.36367e+06 0 112601 4.35874e+06 0 109377 4.35395e+06 0 106152 4.34928e+06 0 102928 4.34474e+06 0 99703.9 4.34033e+06 0 96480 4.33605e+06 0 93256.4 4.3319e+06 0 90033.2 4.32789e+06 0 86810.4 4.32401e+06 0 83588.1 4.32027e+06 0 80366.3 4.31666e+06 0 77145 4.31319e+06 0 73924.4 4.30985e+06 0 70704.3 4.30665e+06 0 67484.9 4.3036e+06 0 64266.2 4.30068e+06 0 61048 4.29789e+06 0 57830.5 4.29525e+06 0 54613.7 4.29275e+06 0 51397.4 4.29039e+06 0 48181.8 4.28817e+06 0 44966.8 4.2861e+06 0 41752.3 4.28416e+06 0 38538.4 4.28237e+06 0 35325 4.28071e+06 0 32112 4.27921e+06 0 28899.5 4.27784e+06 0 25687.4 4.27662e+06 0 22475.6 4.27554e+06 0 19264.2 4.2746e+06 0 16053.1 4.27381e+06 0 12842.2 4.27316e+06 0 9631.47 4.27266e+06 0 6420.9 4.2723e+06 0 3210.43 4.27208e+06 0 0 4.27201e+06 0 324298 4.91866e+06 0 324403 4.9185e+06 0 324447 4.91806e+06 0 324430 4.91733e+06 0 324350 4.