<?xml version="1.0"?> 
<VTKFile type="StructuredGrid" version="0.1"> 
<StructuredGrid WholeExtent="0 127 0 127 0 0"> 
<Piece Extent="0 127 0 127 0 0"> 
<PointData>
<DataArray type="Float32" Name="E" format="ascii" NumberOfComponents="3"> 
1.4904e+06 -590259 0 1.53885e+06 -609447 0 1.58111e+06 -626184 0 1.61829e+06 -640908 0 1.65128e+06 -653971 0 1.68079e+06 -665658 0 1.7074e+06 -676196 0 1.73158e+06 -685773 0 1.75371e+06 -694540 0 1.77412e+06 -702620 0 1.79304e+06 -710115 0 1.8107e+06 -717107 0 1.82726e+06 -723667 0 1.84287e+06 -729851 0 1.85766e+06 -735708 0 1.87172e+06 -741277 0 1.88514e+06 -746592 0 1.898e+06 -751682 0 1.91034e+06 -756572 0 1.92224e+06 -761282 0 1.93372e+06 -765830 0 1.94484e+06 -770232 0 1.95562e+06 -774502 0 1.96609e+06 -778650 0 1.97629e+06 -782689 0 1.98623e+06 -786625 0 1.99593e+06 -790469 0 2.00542e+06 -794226 0 2.01471e+06 -797903 0 2.0238e+06 -801506 0 2.03273e+06 -805041 0 2.04149e+06 -808511 0 2.0501e+06 -811920 0 2.05857e+06 -815274 0 2.0669e+06 -818574 0 2.07511e+06 -821825 0 2.0832e+06 -825029 0 2.09118e+06 -828189 0 2.09905e+06 -831306 0 2.10682e+06 -834385 0 2.1145e+06 -837426 0 2.12209e+06 -840431 0 2.12959e+06 -843403 0 2.13701e+06 -846342 0 2.14436e+06 -849251 0 2.15163e+06 -852131 0 2.15883e+06 -854983 0 2.16597e+06 -857808 0 2.17304e+06 -860608 0 2.18004e+06 -863384 0 2.18699e+06 -866136 0 2.19389e+06 -868867 0 2.20073e+06 -871575 0 2.20752e+06 -874264 0 2.21425e+06 -876932 0 2.22094e+06 -879582 0 2.22759e+06 -882213 0 2.23419e+06 -884827 0 2.24074e+06 -887424 0 2.24726e+06 -890004 0 2.25374e+06 -892569 0 2.26017e+06 -895118 0 2.26657e+06 -897653 0 2.27294e+06 -900174 0 2.27927e+06 -902681 0 2.28557e+06 -905175 0 2.29183e+06 -907656 0 2.29807e+06 -910125 0 2.30427e+06 -912581 0 2.31044e+06 -915026 0 2.31659e+06 -917460 0 2.3227e+06 -919883 0 2.3288e+06 -922295 0 2.33486e+06 -924697 0 2.3409e+06 -927089 0 2.34691e+06 -929471 0 2.35291e+06 -931844 0 2.35887e+06 -934207 0 2.36482e+06 -936562 0 2.37074e+06 -938908 0 2.37664e+06 -941245 0 2.38252e+06 -943574 0 2.38839e+06 -945895 0 2.39423e+06 -948209 0 2.40005e+06 -950515 0 2.40585e+06 -952813 0 2.41164e+06 -955104 0 2.4174e+06 -957388 0 2.42315e+06 -959665 0 2.42889e+06 -961935 0 2.4346e+06 -964199 0 2.4403e+06 -966456 0 2.44599e+06 -968707 0 2.45165e+06 -970952 0 2.45731e+06 -973191 0 2.46295e+06 -975424 0 2.46857e+06 -977651 0 2.47418e+06 -979872 0 2.47977e+06 -982088 0 2.48535e+06 -984299 0 2.49092e+06 -986504 0 2.49648e+06 -988704 0 2.50202e+06 -990899 0 2.50755e+06 -993088 0 2.51306e+06 -995273 0 2.51857e+06 -997453 0 2.52406e+06 -999628 0 2.52954e+06 -1.0018e+06 0 2.53501e+06 -1.00396e+06 0 2.54046e+06 -1.00612e+06 0 2.54591e+06 -1.00828e+06 0 2.55134e+06 -1.01043e+06 0 2.55676e+06 -1.01258e+06 0 2.56217e+06 -1.01472e+06 0 2.56757e+06 -1.01686e+06 0 2.57296e+06 -1.01899e+06 0 2.57834e+06 -1.02112e+06 0 2.58371e+06 -1.02325e+06 0 2.58906e+06 -1.02537e+06 0 2.59441e+06 -1.02749e+06 0 2.59974e+06 -1.0296e+06 0 2.60506e+06 -1.03171e+06 0 2.61038e+06 -1.03381e+06 0 2.61568e+06 -1.03591e+06 0 2.62097e+06 -1.03801e+06 0 2.62625e+06 -1.0401e+06 0 2.63152e+06 -1.04218e+06 0 2.63677e+06 -1.04427e+06 0 1.91878e+06 -497883 0 1.91865e+06 -518776 0 1.92085e+06 -537557 0 1.92484e+06 -554557 0 1.93018e+06 -570019 0 1.93655e+06 -584157 0 1.94367e+06 -597146 0 1.95136e+06 -609133 0 1.95946e+06 -620246 0 1.96783e+06 -630589 0 1.9764e+06 -640254 0 1.98508e+06 -649318 0 1.99382e+06 -657847 0 2.00258e+06 -665900 0 2.01133e+06 -673526 0 2.02005e+06 -680768 0 2.02871e+06 -687663 0 2.0373e+06 -694245 0 2.04582e+06 -700543 0 2.05425e+06 -706583 0 2.0626e+06 -712386 0 2.07086e+06 -717973 0 2.07903e+06 -723362 0 2.08711e+06 -728569 0 2.0951e+06 -733608 0 2.103e+06 -738492 0 2.11082e+06 -743232 0 2.11856e+06 -747839 0 2.12621e+06 -752322 0 2.13379e+06 -756691 0 2.14129e+06 -760951 0 2.14871e+06 -765112 0 2.15607e+06 -769178 0 2.16335e+06 -773157 0 2.17057e+06 -777053 0 2.17772e+06 -780872 0 2.18481e+06 -784617 0 2.19185e+06 -788294 0 2.19882e+06 -791906 0 2.20574e+06 -795456 0 2.2126e+06 -798949 0 2.21941e+06 -802387 0 2.22617e+06 -805772 0 2.23289e+06 -809109 0 2.23955e+06 -812398 0 2.24617e+06 -815643 0 2.25275e+06 -818845 0 2.25928e+06 -822007 0 2.26578e+06 -825130 0 2.27223e+06 -828217 0 2.27865e+06 -831268 0 2.28503e+06 -834286 0 2.29137e+06 -837272 0 2.29768e+06 -840228 0 2.30395e+06 -843153 0 2.3102e+06 -846051 0 2.31641e+06 -848921 0 2.32259e+06 -851766 0 2.32874e+06 -854586 0 2.33486e+06 -857381 0 2.34095e+06 -860154 0 2.34702e+06 -862905 0 2.35306e+06 -865634 0 2.35907e+06 -868342 0 2.36506e+06 -871031 0 2.37103e+06 -873701 0 2.37697e+06 -876352 0 2.38289e+06 -878986 0 2.38879e+06 -881602 0 2.39466e+06 -884202 0 2.40052e+06 -886786 0 2.40635e+06 -889354 0 2.41216e+06 -891908 0 2.41796e+06 -894447 0 2.42373e+06 -896972 0 2.42949e+06 -899483 0 2.43523e+06 -901981 0 2.44095e+06 -904467 0 2.44665e+06 -906940 0 2.45234e+06 -909401 0 2.45801e+06 -911850 0 2.46366e+06 -914289 0 2.4693e+06 -916716 0 2.47492e+06 -919133 0 2.48053e+06 -921539 0 2.48612e+06 -923935 0 2.4917e+06 -926322 0 2.49726e+06 -928699 0 2.50282e+06 -931067 0 2.50835e+06 -933426 0 2.51388e+06 -935777 0 2.51939e+06 -938119 0 2.52489e+06 -940452 0 2.53037e+06 -942778 0 2.53585e+06 -945096 0 2.54131e+06 -947407 0 2.54676e+06 -949710 0 2.5522e+06 -952006 0 2.55762e+06 -954295 0 2.56304e+06 -956577 0 2.56844e+06 -958853 0 2.57383e+06 -961122 0 2.57922e+06 -963385 0 2.58459e+06 -965642 0 2.58995e+06 -967893 0 2.5953e+06 -970138 0 2.60064e+06 -972378 0 2.60597e+06 -974612 0 2.61129e+06 -976841 0 2.6166e+06 -979065 0 2.6219e+06 -981283 0 2.62719e+06 -983497 0 2.63247e+06 -985707 0 2.63774e+06 -987911 0 2.643e+06 -990112 0 2.64825e+06 -992308 0 2.65349e+06 -994500 0 2.65872e+06 -996688 0 2.66394e+06 -998872 0 2.66915e+06 -1.00105e+06 0 2.67435e+06 -1.00323e+06 0 2.67954e+06 -1.0054e+06 0 2.68472e+06 -1.00757e+06 0 2.68989e+06 -1.00974e+06 0 2.69504e+06 -1.01191e+06 0 2.70019e+06 -1.01407e+06 0 2.70533e+06 -1.01623e+06 0 2.71045e+06 -1.01838e+06 0 2.05599e+06 -534638 0 2.06203e+06 -543814 0 2.06797e+06 -552908 0 2.07387e+06 -561861 0 2.07979e+06 -570632 0 2.08575e+06 -579195 0 2.09176e+06 -587532 0 2.09783e+06 -595634 0 2.10398e+06 -603496 0 2.11018e+06 -611121 0 2.11645e+06 -618510 0 2.12277e+06 -625669 0 2.12914e+06 -632606 0 2.13555e+06 -639328 0 2.142e+06 -645844 0 2.14847e+06 -652163 0 2.15497e+06 -658294 0 2.16148e+06 -664245 0 2.168e+06 -670026 0 2.17453e+06 -675646 0 2.18106e+06 -681111 0 2.18758e+06 -686431 0 2.1941e+06 -691613 0 2.20061e+06 -696664 0 2.20711e+06 -701590 0 2.21359e+06 -706399 0 2.22006e+06 -711096 0 2.22651e+06 -715686 0 2.23294e+06 -720176 0 2.23934e+06 -724570 0 2.24573e+06 -728874 0 2.25209e+06 -733091 0 2.25843e+06 -737226 0 2.26475e+06 -741284 0 2.27104e+06 -745266 0 2.27731e+06 -749179 0 2.28356e+06 -753023 0 2.28978e+06 -756804 0 2.29597e+06 -760523 0 2.30214e+06 -764183 0 2.30829e+06 -767788 0 2.31441e+06 -771339 0 2.32051e+06 -774839 0 2.32659e+06 -778290 0 2.33264e+06 -781695 0 2.33867e+06 -785054 0 2.34468e+06 -788371 0 2.35067e+06 -791647 0 2.35663e+06 -794883 0 2.36257e+06 -798081 0 2.36849e+06 -801243 0 2.37439e+06 -804370 0 2.38027e+06 -807464 0 2.38613e+06 -810525 0 2.39197e+06 -813555 0 2.3978e+06 -816555 0 2.4036e+06 -819527 0 2.40938e+06 -822471 0 2.41515e+06 -825388 0 2.4209e+06 -828279 0 2.42663e+06 -831145 0 2.43234e+06 -833988 0 2.43804e+06 -836807 0 2.44372e+06 -839604 0 2.44938e+06 -842380 0 2.45503e+06 -845134 0 2.46066e+06 -847869 0 2.46628e+06 -850584 0 2.47188e+06 -853280 0 2.47747e+06 -855958 0 2.48304e+06 -858618 0 2.4886e+06 -861262 0 2.49415e+06 -863888 0 2.49968e+06 -866499 0 2.5052e+06 -869095 0 2.51071e+06 -871675 0 2.51621e+06 -874241 0 2.52169e+06 -876792 0 2.52716e+06 -879330 0 2.53262e+06 -881855 0 2.53806e+06 -884367 0 2.5435e+06 -886866 0 2.54892e+06 -889353 0 2.55433e+06 -891829 0 2.55973e+06 -894293 0 2.56513e+06 -896746 0 2.57051e+06 -899189 0 2.57588e+06 -901621 0 2.58124e+06 -904043 0 2.58659e+06 -906455 0 2.59193e+06 -908858 0 2.59726e+06 -911252 0 2.60258e+06 -913637 0 2.60789e+06 -916013 0 2.6132e+06 -918380 0 2.61849e+06 -920740 0 2.62377e+06 -923092 0 2.62905e+06 -925436 0 2.63432e+06 -927773 0 2.63958e+06 -930103 0 2.64483e+06 -932426 0 2.65007e+06 -934742 0 2.6553e+06 -937052 0 2.66053e+06 -939356 0 2.66575e+06 -941654 0 2.67095e+06 -943946 0 2.67616e+06 -946233 0 2.68135e+06 -948515 0 2.68653e+06 -950792 0 2.69171e+06 -953064 0 2.69688e+06 -955331 0 2.70204e+06 -957594 0 2.70719e+06 -959854 0 2.71234e+06 -962109 0 2.71748e+06 -964361 0 2.72261e+06 -966610 0 2.72773e+06 -968856 0 2.73284e+06 -971099 0 2.73795e+06 -973340 0 2.74305e+06 -975578 0 2.74814e+06 -977815 0 2.75322e+06 -980051 0 2.75829e+06 -982285 0 2.76336e+06 -984519 0 2.76842e+06 -986752 0 2.77347e+06 -988985 0 2.77851e+06 -991219 0 2.78354e+06 -993453 0 2.18916e+06 -539816 0 2.19275e+06 -547095 0 2.1966e+06 -554216 0 2.20068e+06 -561185 0 2.20496e+06 -568007 0 2.20941e+06 -574685 0 2.21401e+06 -581224 0 2.21875e+06 -587625 0 2.22361e+06 -593892 0 2.22858e+06 -600028 0 2.23363e+06 -606036 0 2.23877e+06 -611918 0 2.24399e+06 -617677 0 2.24926e+06 -623317 0 2.2546e+06 -628840 0 2.25998e+06 -634251 0 2.26541e+06 -639552 0 2.27087e+06 -644746 0 2.27637e+06 -649837 0 2.2819e+06 -654828 0 2.28745e+06 -659723 0 2.29303e+06 -664524 0 2.29862e+06 -669234 0 2.30422e+06 -673858 0 2.30984e+06 -678397 0 2.31547e+06 -682856 0 2.32111e+06 -687236 0 2.32675e+06 -691540 0 2.3324e+06 -695772 0 2.33804e+06 -699934 0 2.34369e+06 -704028 0 2.34934e+06 -708057 0 2.35499e+06 -712024 0 2.36063e+06 -715930 0 2.36627e+06 -719778 0 2.37191e+06 -723570 0 2.37753e+06 -727307 0 2.38316e+06 -730993 0 2.38878e+06 -734628 0 2.39439e+06 -738215 0 2.39999e+06 -741755 0 2.40558e+06 -745250 0 2.41117e+06 -748702 0 2.41674e+06 -752112 0 2.42231e+06 -755481 0 2.42787e+06 -758811 0 2.43342e+06 -762104 0 2.43896e+06 -765360 0 2.44449e+06 -768581 0 2.45001e+06 -771768 0 2.45552e+06 -774923 0 2.46103e+06 -778045 0 2.46652e+06 -781137 0 2.472e+06 -784199 0 2.47747e+06 -787233 0 2.48293e+06 -790239 0 2.48839e+06 -793218 0 2.49383e+06 -796171 0 2.49926e+06 -799098 0 2.50469e+06 -802002 0 2.5101e+06 -804882 0 2.5155e+06 -807739 0 2.5209e+06 -810574 0 2.52628e+06 -813388 0 2.53166e+06 -816180 0 2.53703e+06 -818953 0 2.54239e+06 -821706 0 2.54774e+06 -824440 0 2.55308e+06 -827156 0 2.55841e+06 -829854 0 2.56373e+06 -832535 0 2.56905e+06 -835199 0 2.57435e+06 -837846 0 2.57965e+06 -840478 0 2.58494e+06 -843095 0 2.59022e+06 -845697 0 2.5955e+06 -848284 0 2.60077e+06 -850857 0 2.60602e+06 -853417 0 2.61128e+06 -855964 0 2.61652e+06 -858498 0 2.62176e+06 -861019 0 2.62698e+06 -863528 0 2.63221e+06 -866026 0 2.63742e+06 -868513 0 2.64263e+06 -870988 0 2.64783e+06 -873453 0 2.65302e+06 -875907 0 2.65821e+06 -878352 0 2.66339e+06 -880787 0 2.66857e+06 -883212 0 2.67374e+06 -885629 0 2.6789e+06 -888036 0 2.68405e+06 -890436 0 2.6892e+06 -892827 0 2.69435e+06 -895210 0 2.69948e+06 -897585 0 2.70462e+06 -899953 0 2.70974e+06 -902315 0 2.71486e+06 -904669 0 2.71998e+06 -907017 0 2.72508e+06 -909359 0 2.73019e+06 -911694 0 2.73529e+06 -914024 0 2.74038e+06 -916349 0 2.74547e+06 -918669 0 2.75055e+06 -920983 0 2.75563e+06 -923293 0 2.7607e+06 -925599 0 2.76576e+06 -927901 0 2.77083e+06 -930199 0 2.77588e+06 -932494 0 2.78093e+06 -934786 0 2.78598e+06 -937075 0 2.79102e+06 -939361 0 2.79606e+06 -941646 0 2.80109e+06 -943928 0 2.80612e+06 -946209 0 2.81115e+06 -948489 0 2.81617e+06 -950768 0 2.82118e+06 -953046 0 2.8262e+06 -955325 0 2.8312e+06 -957604 0 2.83621e+06 -959884 0 2.84121e+06 -962165 0 2.8462e+06 -964447 0 2.8512e+06 -966732 0 2.85619e+06 -969019 0 2.29208e+06 -542209 0 2.29623e+06 -547864 0 2.30044e+06 -553462 0 2.30471e+06 -558999 0 2.30903e+06 -564471 0 2.31341e+06 -569877 0 2.31784e+06 -575215 0 2.32233e+06 -580483 0 2.32687e+06 -585681 0 2.33147e+06 -590807 0 2.33611e+06 -595863 0 2.3408e+06 -600848 0 2.34554e+06 -605762 0 2.35031e+06 -610606 0 2.35513e+06 -615380 0 2.35998e+06 -620086 0 2.36487e+06 -624725 0 2.36979e+06 -629297 0 2.37474e+06 -633803 0 2.37971e+06 -638246 0 2.38471e+06 -642625 0 2.38974e+06 -646943 0 2.39478e+06 -651201 0 2.39985e+06 -655400 0 2.40493e+06 -659542 0 2.41002e+06 -663627 0 2.41514e+06 -667658 0 2.42026e+06 -671635 0 2.4254e+06 -675560 0 2.43054e+06 -679435 0 2.4357e+06 -683260 0 2.44086e+06 -687038 0 2.44603e+06 -690768 0 2.45121e+06 -694454 0 2.45639e+06 -698095 0 2.46157e+06 -701693 0 2.46676e+06 -705250 0 2.47196e+06 -708766 0 2.47715e+06 -712242 0 2.48234e+06 -715680 0 2.48754e+06 -719081 0 2.49274e+06 -722446 0 2.49794e+06 -725776 0 2.50313e+06 -729071 0 2.50833e+06 -732333 0 2.51352e+06 -735563 0 2.51871e+06 -738762 0 2.5239e+06 -741930 0 2.52909e+06 -745069 0 2.53428e+06 -748179 0 2.53946e+06 -751261 0 2.54464e+06 -754315 0 2.54982e+06 -757344 0 2.555e+06 -760346 0 2.56017e+06 -763324 0 2.56533e+06 -766278 0 2.5705e+06 -769208 0 2.57566e+06 -772115 0 2.58081e+06 -775000 0 2.58597e+06 -777863 0 2.59112e+06 -780705 0 2.59626e+06 -783527 0 2.6014e+06 -786328 0 2.60654e+06 -789111 0 2.61167e+06 -791874 0 2.6168e+06 -794620 0 2.62192e+06 -797347 0 2.62704e+06 -800057 0 2.63215e+06 -802751 0 2.63727e+06 -805427 0 2.64237e+06 -808088 0 2.64748e+06 -810734 0 2.65257e+06 -813364 0 2.65767e+06 -815980 0 2.66276e+06 -818582 0 2.66784e+06 -821169 0 2.67293e+06 -823744 0 2.678e+06 -826305 0 2.68308e+06 -828853 0 2.68815e+06 -831389 0 2.69321e+06 -833914 0 2.69828e+06 -836426 0 2.70334e+06 -838927 0 2.70839e+06 -841417 0 2.71344e+06 -843897 0 2.71849e+06 -846366 0 2.72353e+06 -848825 0 2.72857e+06 -851275 0 2.73361e+06 -853715 0 2.73864e+06 -856145 0 2.74367e+06 -858568 0 2.7487e+06 -860981 0 2.75372e+06 -863386 0 2.75874e+06 -865784 0 2.76376e+06 -868174 0 2.76877e+06 -870556 0 2.77378e+06 -872931 0 2.77879e+06 -875300 0 2.7838e+06 -877662 0 2.7888e+06 -880017 0 2.7938e+06 -882367 0 2.7988e+06 -884711 0 2.80379e+06 -887049 0 2.80878e+06 -889382 0 2.81377e+06 -891711 0 2.81876e+06 -894034 0 2.82375e+06 -896354 0 2.82873e+06 -898669 0 2.83371e+06 -900980 0 2.83869e+06 -903288 0 2.84367e+06 -905593 0 2.84865e+06 -907895 0 2.85362e+06 -910194 0 2.85859e+06 -912490 0 2.86357e+06 -914785 0 2.86854e+06 -917077 0 2.87351e+06 -919368 0 2.87848e+06 -921658 0 2.88345e+06 -923947 0 2.88842e+06 -926235 0 2.89339e+06 -928523 0 2.89835e+06 -930811 0 2.90332e+06 -933099 0 2.90829e+06 -935387 0 2.91327e+06 -937677 0 2.91824e+06 -939967 0 2.92321e+06 -942259 0 2.92819e+06 -944552 0 2.38852e+06 -539383 0 2.39238e+06 -544227 0 2.39631e+06 -549026 0 2.4003e+06 -553778 0 2.40436e+06 -558483 0 2.40846e+06 -563141 0 2.41262e+06 -567752 0 2.41683e+06 -572315 0 2.42109e+06 -576831 0 2.42539e+06 -581298 0 2.42973e+06 -585719 0 2.43411e+06 -590091 0 2.43853e+06 -594417 0 2.44299e+06 -598696 0 2.44748e+06 -602928 0 2.452e+06 -607114 0 2.45655e+06 -611254 0 2.46112e+06 -615349 0 2.46573e+06 -619399 0 2.47036e+06 -623405 0 2.47501e+06 -627367 0 2.47968e+06 -631287 0 2.48438e+06 -635164 0 2.48909e+06 -638999 0 2.49382e+06 -642794 0 2.49857e+06 -646548 0 2.50333e+06 -650263 0 2.50811e+06 -653938 0 2.5129e+06 -657576 0 2.5177e+06 -661177 0 2.52252e+06 -664741 0 2.52735e+06 -668269 0 2.53218e+06 -671762 0 2.53703e+06 -675220 0 2.54188e+06 -678645 0 2.54675e+06 -682037 0 2.55162e+06 -685397 0 2.55649e+06 -688725 0 2.56138e+06 -692022 0 2.56627e+06 -695289 0 2.57116e+06 -698527 0 2.57606e+06 -701736 0 2.58096e+06 -704916 0 2.58587e+06 -708070 0 2.59078e+06 -711196 0 2.5957e+06 -714296 0 2.60061e+06 -717371 0 2.60553e+06 -720420 0 2.61045e+06 -723445 0 2.61538e+06 -726446 0 2.6203e+06 -729424 0 2.62523e+06 -732379 0 2.63015e+06 -735312 0 2.63508e+06 -738224 0 2.64001e+06 -741114 0 2.64494e+06 -743983 0 2.64987e+06 -746833 0 2.6548e+06 -749662 0 2.65973e+06 -752473 0 2.66466e+06 -755264 0 2.66959e+06 -758038 0 2.67452e+06 -760793 0 2.67945e+06 -763532 0 2.68438e+06 -766253 0 2.6893e+06 -768957 0 2.69423e+06 -771646 0 2.69916e+06 -774319 0 2.70409e+06 -776976 0 2.70901e+06 -779618 0 2.71394e+06 -782246 0 2.71886e+06 -784860 0 2.72378e+06 -787459 0 2.7287e+06 -790045 0 2.73362e+06 -792618 0 2.73855e+06 -795178 0 2.74346e+06 -797726 0 2.74838e+06 -800261 0 2.7533e+06 -802784 0 2.75822e+06 -805296 0 2.76313e+06 -807796 0 2.76805e+06 -810286 0 2.77296e+06 -812765 0 2.77787e+06 -815233 0 2.78278e+06 -817692 0 2.78769e+06 -820140 0 2.7926e+06 -822579 0 2.79751e+06 -825009 0 2.80242e+06 -827430 0 2.80733e+06 -829842 0 2.81224e+06 -832246 0 2.81714e+06 -834641 0 2.82205e+06 -837029 0 2.82695e+06 -839409 0 2.83186e+06 -841781 0 2.83676e+06 -844146 0 2.84167e+06 -846505 0 2.84657e+06 -848857 0 2.85148e+06 -851202 0 2.85638e+06 -853541 0 2.86129e+06 -855874 0 2.86619e+06 -858202 0 2.8711e+06 -860524 0 2.876e+06 -862841 0 2.88091e+06 -865153 0 2.88581e+06 -867460 0 2.89072e+06 -869762 0 2.89563e+06 -872061 0 2.90053e+06 -874355 0 2.90544e+06 -876645 0 2.91035e+06 -878932 0 2.91526e+06 -881216 0 2.92018e+06 -883496 0 2.92509e+06 -885773 0 2.93001e+06 -888048 0 2.93493e+06 -890320 0 2.93985e+06 -892589 0 2.94477e+06 -894857 0 2.9497e+06 -897122 0 2.95463e+06 -899386 0 2.95956e+06 -901648 0 2.96449e+06 -903909 0 2.96943e+06 -906169 0 2.97437e+06 -908428 0 2.97932e+06 -910686 0 2.98427e+06 -912943 0 2.98922e+06 -915200 0 2.99418e+06 -917456 0 2.99915e+06 -919712 0 2.47645e+06 -534200 0 2.48031e+06 -538441 0 2.48422e+06 -542652 0 2.48816e+06 -546831 0 2.49213e+06 -550979 0 2.49614e+06 -555094 0 2.50019e+06 -559177 0 2.50427e+06 -563227 0 2.50838e+06 -567244 0 2.51252e+06 -571228 0 2.5167e+06 -575179 0 2.5209e+06 -579096 0 2.52513e+06 -582981 0 2.52939e+06 -586832 0 2.53367e+06 -590650 0 2.53798e+06 -594436 0 2.54231e+06 -598188 0 2.54666e+06 -601908 0 2.55104e+06 -605596 0 2.55543e+06 -609252 0 2.55985e+06 -612876 0 2.56429e+06 -616469 0 2.56874e+06 -620031 0 2.57321e+06 -623562 0 2.5777e+06 -627062 0 2.5822e+06 -630533 0 2.58672e+06 -633974 0 2.59125e+06 -637386 0 2.5958e+06 -640769 0 2.60036e+06 -644124 0 2.60493e+06 -647451 0 2.60951e+06 -650751 0 2.61411e+06 -654023 0 2.61871e+06 -657269 0 2.62333e+06 -660489 0 2.62795e+06 -663683 0 2.63258e+06 -666851 0 2.63722e+06 -669995 0 2.64187e+06 -673115 0 2.64653e+06 -676210 0 2.6512e+06 -679282 0 2.65587e+06 -682331 0 2.66055e+06 -685357 0 2.66523e+06 -688361 0 2.66992e+06 -691343 0 2.67461e+06 -694304 0 2.67932e+06 -697244 0 2.68402e+06 -700163 0 2.68873e+06 -703062 0 2.69345e+06 -705941 0 2.69816e+06 -708801 0 2.70289e+06 -711642 0 2.70761e+06 -714464 0 2.71234e+06 -717268 0 2.71708e+06 -720054 0 2.72181e+06 -722823 0 2.72655e+06 -725574 0 2.7313e+06 -728309 0 2.73604e+06 -731027 0 2.74079e+06 -733730 0 2.74554e+06 -736416 0 2.75029e+06 -739087 0 2.75505e+06 -741743 0 2.7598e+06 -744384 0 2.76456e+06 -747011 0 2.76932e+06 -749624 0 2.77409e+06 -752223 0 2.77885e+06 -754808 0 2.78362e+06 -757380 0 2.78839e+06 -759939 0 2.79316e+06 -762486 0 2.79793e+06 -765020 0 2.8027e+06 -767542 0 2.80748e+06 -770052 0 2.81225e+06 -772551 0 2.81703e+06 -775039 0 2.82181e+06 -777515 0 2.82659e+06 -779981 0 2.83137e+06 -782436 0 2.83616e+06 -784881 0 2.84094e+06 -787317 0 2.84573e+06 -789742 0 2.85052e+06 -792158 0 2.85531e+06 -794564 0 2.8601e+06 -796962 0 2.86489e+06 -799351 0 2.86969e+06 -801731 0 2.87449e+06 -804103 0 2.87928e+06 -806467 0 2.88408e+06 -808822 0 2.88889e+06 -811171 0 2.89369e+06 -813511 0 2.89849e+06 -815845 0 2.9033e+06 -818171 0 2.90811e+06 -820491 0 2.91292e+06 -822804 0 2.91774e+06 -825110 0 2.92255e+06 -827411 0 2.92737e+06 -829705 0 2.93219e+06 -831993 0 2.93702e+06 -834276 0 2.94184e+06 -836553 0 2.94667e+06 -838825 0 2.9515e+06 -841092 0 2.95634e+06 -843354 0 2.96118e+06 -845611 0 2.96602e+06 -847864 0 2.97086e+06 -850112 0 2.97571e+06 -852356 0 2.98056e+06 -854596 0 2.98542e+06 -856832 0 2.99028e+06 -859064 0 2.99514e+06 -861292 0 3.00001e+06 -863517 0 3.00488e+06 -865739 0 3.00975e+06 -867957 0 3.01464e+06 -870173 0 3.01952e+06 -872385 0 3.02441e+06 -874594 0 3.02931e+06 -876801 0 3.03421e+06 -879005 0 3.03912e+06 -881206 0 3.04403e+06 -883405 0 3.04895e+06 -885601 0 3.05388e+06 -887796 0 3.05881e+06 -889988 0 3.06375e+06 -892177 0 3.06869e+06 -894365 0 2.55947e+06 -527040 0 2.56326e+06 -530852 0 2.56708e+06 -534641 0 2.57093e+06 -538406 0 2.57481e+06 -542146 0 2.57872e+06 -545862 0 2.58266e+06 -549554 0 2.58662e+06 -553221 0 2.59061e+06 -556863 0 2.59463e+06 -560480 0 2.59867e+06 -564072 0 2.60273e+06 -567640 0 2.60682e+06 -571182 0 2.61093e+06 -574700 0 2.61506e+06 -578192 0 2.61921e+06 -581660 0 2.62338e+06 -585103 0 2.62757e+06 -588522 0 2.63178e+06 -591916 0 2.63601e+06 -595286 0 2.64025e+06 -598632 0 2.64451e+06 -601954 0 2.64879e+06 -605252 0 2.65308e+06 -608526 0 2.65739e+06 -611777 0 2.66171e+06 -615005 0 2.66605e+06 -618210 0 2.6704e+06 -621392 0 2.67476e+06 -624552 0 2.67914e+06 -627690 0 2.68353e+06 -630806 0 2.68792e+06 -633900 0 2.69233e+06 -636973 0 2.69675e+06 -640024 0 2.70119e+06 -643055 0 2.70563e+06 -646066 0 2.71008e+06 -649056 0 2.71454e+06 -652026 0 2.719e+06 -654976 0 2.72348e+06 -657907 0 2.72797e+06 -660819 0 2.73246e+06 -663712 0 2.73696e+06 -666587 0 2.74147e+06 -669443 0 2.74598e+06 -672281 0 2.7505e+06 -675102 0 2.75503e+06 -677905 0 2.75957e+06 -680691 0 2.76411e+06 -683461 0 2.76866e+06 -686213 0 2.77321e+06 -688950 0 2.77777e+06 -691670 0 2.78233e+06 -694375 0 2.7869e+06 -697064 0 2.79147e+06 -699739 0 2.79605e+06 -702398 0 2.80064e+06 -705042 0 2.80523e+06 -707673 0 2.80982e+06 -710289 0 2.81442e+06 -712891 0 2.81902e+06 -715479 0 2.82362e+06 -718055 0 2.82824e+06 -720617 0 2.83285e+06 -723166 0 2.83747e+06 -725702 0 2.84209e+06 -728226 0 2.84672e+06 -730738 0 2.85135e+06 -733238 0 2.85598e+06 -735727 0 2.86062e+06 -738203 0 2.86526e+06 -740669 0 2.8699e+06 -743123 0 2.87455e+06 -745567 0 2.8792e+06 -748000 0 2.88385e+06 -750423 0 2.88851e+06 -752835 0 2.89317e+06 -755238 0 2.89784e+06 -757631 0 2.90251e+06 -760014 0 2.90718e+06 -762387 0 2.91185e+06 -764752 0 2.91653e+06 -767108 0 2.92122e+06 -769455 0 2.9259e+06 -771793 0 2.93059e+06 -774123 0 2.93528e+06 -776444 0 2.93998e+06 -778758 0 2.94468e+06 -781063 0 2.94938e+06 -783361 0 2.95409e+06 -785652 0 2.9588e+06 -787935 0 2.96352e+06 -790211 0 2.96824e+06 -792479 0 2.97296e+06 -794741 0 2.97769e+06 -796997 0 2.98242e+06 -799245 0 2.98715e+06 -801487 0 2.99189e+06 -803723 0 2.99664e+06 -805953 0 3.00138e+06 -808177 0 3.00614e+06 -810395 0 3.01089e+06 -812608 0 3.01565e+06 -814814 0 3.02042e+06 -817016 0 3.02519e+06 -819212 0 3.02997e+06 -821403 0 3.03475e+06 -823589 0 3.03953e+06 -825770 0 3.04433e+06 -827946 0 3.04912e+06 -830117 0 3.05393e+06 -832284 0 3.05873e+06 -834446 0 3.06355e+06 -836604 0 3.06837e+06 -838757 0 3.07319e+06 -840906 0 3.07803e+06 -843051 0 3.08286e+06 -845192 0 3.08771e+06 -847329 0 3.09256e+06 -849462 0 3.09742e+06 -851591 0 3.10228e+06 -853716 0 3.10716e+06 -855838 0 3.11204e+06 -857955 0 3.11692e+06 -860069 0 3.12182e+06 -862180 0 3.12672e+06 -864286 0 3.13163e+06 -866390 0 3.13654e+06 -868489 0 2.63808e+06 -518488 0 2.64182e+06 -521964 0 2.64559e+06 -525423 0 2.64937e+06 -528862 0 2.65318e+06 -532282 0 2.65702e+06 -535683 0 2.66087e+06 -539065 0 2.66475e+06 -542428 0 2.66865e+06 -545771 0 2.67257e+06 -549095 0 2.67651e+06 -552399 0 2.68047e+06 -555684 0 2.68444e+06 -558950 0 2.68844e+06 -562196 0 2.69245e+06 -565422 0 2.69648e+06 -568629 0 2.70053e+06 -571816 0 2.7046e+06 -574985 0 2.70868e+06 -578133 0 2.71278e+06 -581263 0 2.71689e+06 -584374 0 2.72101e+06 -587465 0 2.72516e+06 -590538 0 2.72931e+06 -593592 0 2.73348e+06 -596628 0 2.73766e+06 -599645 0 2.74186e+06 -602643 0 2.74606e+06 -605623 0 2.75028e+06 -608586 0 2.75451e+06 -611530 0 2.75875e+06 -614457 0 2.76301e+06 -617366 0 2.76727e+06 -620258 0 2.77155e+06 -623133 0 2.77583e+06 -625990 0 2.78013e+06 -628831 0 2.78443e+06 -631655 0 2.78875e+06 -634463 0 2.79307e+06 -637254 0 2.7974e+06 -640030 0 2.80174e+06 -642789 0 2.80609e+06 -645533 0 2.81045e+06 -648262 0 2.81481e+06 -650975 0 2.81919e+06 -653673 0 2.82357e+06 -656356 0 2.82796e+06 -659025 0 2.83235e+06 -661679 0 2.83675e+06 -664318 0 2.84116e+06 -666944 0 2.84558e+06 -669556 0 2.85e+06 -672154 0 2.85443e+06 -674739 0 2.85887e+06 -677310 0 2.86331e+06 -679868 0 2.86776e+06 -682414 0 2.87221e+06 -684946 0 2.87667e+06 -687466 0 2.88114e+06 -689974 0 2.88561e+06 -692470 0 2.89009e+06 -694953 0 2.89457e+06 -697425 0 2.89906e+06 -699886 0 2.90355e+06 -702335 0 2.90805e+06 -704772 0 2.91255e+06 -707199 0 2.91706e+06 -709615 0 2.92158e+06 -712020 0 2.9261e+06 -714415 0 2.93062e+06 -716799 0 2.93515e+06 -719173 0 2.93969e+06 -721537 0 2.94423e+06 -723891 0 2.94877e+06 -726236 0 2.95332e+06 -728571 0 2.95788e+06 -730896 0 2.96244e+06 -733213 0 2.967e+06 -735520 0 2.97157e+06 -737819 0 2.97615e+06 -740109 0 2.98073e+06 -742390 0 2.98531e+06 -744663 0 2.9899e+06 -746927 0 2.9945e+06 -749183 0 2.9991e+06 -751432 0 3.0037e+06 -753672 0 3.00831e+06 -755905 0 3.01293e+06 -758130 0 3.01755e+06 -760348 0 3.02217e+06 -762558 0 3.0268e+06 -764761 0 3.03144e+06 -766957 0 3.03608e+06 -769146 0 3.04073e+06 -771328 0 3.04538e+06 -773503 0 3.05004e+06 -775672 0 3.0547e+06 -777834 0 3.05937e+06 -779990 0 3.06404e+06 -782140 0 3.06872e+06 -784283 0 3.07341e+06 -786420 0 3.0781e+06 -788552 0 3.0828e+06 -790677 0 3.08751e+06 -792796 0 3.09222e+06 -794910 0 3.09694e+06 -797018 0 3.10166e+06 -799121 0 3.10639e+06 -801218 0 3.11113e+06 -803310 0 3.11587e+06 -805396 0 3.12062e+06 -807477 0 3.12538e+06 -809553 0 3.13014e+06 -811623 0 3.13491e+06 -813689 0 3.13969e+06 -815750 0 3.14448e+06 -817805 0 3.14927e+06 -819856 0 3.15407e+06 -821901 0 3.15888e+06 -823942 0 3.16369e+06 -825978 0 3.16852e+06 -828010 0 3.17335e+06 -830036 0 3.17819e+06 -832058 0 3.18304e+06 -834075 0 3.18789e+06 -836087 0 3.19276e+06 -838095 0 3.19763e+06 -840098 0 3.20251e+06 -842097 0 2.71312e+06 -508825 0 2.71681e+06 -512031 0 2.72052e+06 -515222 0 2.72424e+06 -518397 0 2.72799e+06 -521556 0 2.73175e+06 -524700 0 2.73553e+06 -527828 0 2.73933e+06 -530941 0 2.74315e+06 -534037 0 2.74699e+06 -537118 0 2.75084e+06 -540183 0 2.75471e+06 -543233 0 2.7586e+06 -546266 0 2.7625e+06 -549283 0 2.76641e+06 -552285 0 2.77035e+06 -555271 0 2.77429e+06 -558241 0 2.77826e+06 -561195 0 2.78223e+06 -564133 0 2.78622e+06 -567056 0 2.79022e+06 -569963 0 2.79424e+06 -572855 0 2.79827e+06 -575731 0 2.80231e+06 -578591 0 2.80637e+06 -581437 0 2.81043e+06 -584267 0 2.81451e+06 -587082 0 2.8186e+06 -589881 0 2.82271e+06 -592666 0 2.82682e+06 -595436 0 2.83094e+06 -598192 0 2.83508e+06 -600932 0 2.83922e+06 -603658 0 2.84338e+06 -606370 0 2.84754e+06 -609068 0 2.85172e+06 -611751 0 2.8559e+06 -614420 0 2.8601e+06 -617076 0 2.8643e+06 -619717 0 2.86851e+06 -622345 0 2.87273e+06 -624960 0 2.87696e+06 -627561 0 2.8812e+06 -630149 0 2.88545e+06 -632724 0 2.8897e+06 -635286 0 2.89396e+06 -637835 0 2.89823e+06 -640372 0 2.90251e+06 -642896 0 2.9068e+06 -645408 0 2.91109e+06 -647907 0 2.91539e+06 -650394 0 2.9197e+06 -652870 0 2.92402e+06 -655333 0 2.92834e+06 -657785 0 2.93267e+06 -660226 0 2.93701e+06 -662655 0 2.94135e+06 -665073 0 2.9457e+06 -667479 0 2.95006e+06 -669875 0 2.95442e+06 -672260 0 2.95879e+06 -674634 0 2.96317e+06 -676998 0 2.96755e+06 -679351 0 2.97194e+06 -681694 0 2.97634e+06 -684027 0 2.98074e+06 -686350 0 2.98515e+06 -688663 0 2.98956e+06 -690966 0 2.99398e+06 -693259 0 2.99841e+06 -695543 0 3.00284e+06 -697818 0 3.00728e+06 -700084 0 3.01173e+06 -702340 0 3.01618e+06 -704587 0 3.02064e+06 -706826 0 3.0251e+06 -709055 0 3.02957e+06 -711276 0 3.03405e+06 -713489 0 3.03853e+06 -715693 0 3.04302e+06 -717888 0 3.04751e+06 -720076 0 3.05201e+06 -722255 0 3.05652e+06 -724427 0 3.06103e+06 -726590 0 3.06555e+06 -728746 0 3.07007e+06 -730894 0 3.07461e+06 -733035 0 3.07914e+06 -735168 0 3.08369e+06 -737294 0 3.08824e+06 -739412 0 3.09279e+06 -741524 0 3.09736e+06 -743628 0 3.10193e+06 -745725 0 3.1065e+06 -747815 0 3.11109e+06 -749898 0 3.11568e+06 -751975 0 3.12027e+06 -754045 0 3.12487e+06 -756108 0 3.12948e+06 -758165 0 3.1341e+06 -760215 0 3.13872e+06 -762259 0 3.14336e+06 -764297 0 3.14799e+06 -766328 0 3.15264e+06 -768353 0 3.15729e+06 -770372 0 3.16195e+06 -772385 0 3.16662e+06 -774391 0 3.17129e+06 -776392 0 3.17597e+06 -778387 0 3.18066e+06 -780376 0 3.18536e+06 -782359 0 3.19006e+06 -784336 0 3.19477e+06 -786308 0 3.19949e+06 -788273 0 3.20422e+06 -790234 0 3.20896e+06 -792188 0 3.2137e+06 -794137 0 3.21846e+06 -796080 0 3.22322e+06 -798018 0 3.22799e+06 -799950 0 3.23276e+06 -801876 0 3.23755e+06 -803797 0 3.24234e+06 -805713 0 3.24715e+06 -807623 0 3.25196e+06 -809527 0 3.25678e+06 -811426 0 3.26161e+06 -813320 0 3.26645e+06 -815208 0 2.78499e+06 -498269 0 2.78862e+06 -501247 0 2.79227e+06 -504213 0 2.79594e+06 -507165 0 2.79962e+06 -510104 0 2.80333e+06 -513030 0 2.80704e+06 -515943 0 2.81077e+06 -518842 0 2.81452e+06 -521729 0 2.81828e+06 -524602 0 2.82206e+06 -527461 0 2.82585e+06 -530307 0 2.82966e+06 -533140 0 2.83348e+06 -535960 0 2.83731e+06 -538766 0 2.84116e+06 -541559 0 2.84502e+06 -544339 0 2.84889e+06 -547105 0 2.85277e+06 -549858 0 2.85667e+06 -552598 0 2.86058e+06 -555325 0 2.86451e+06 -558038 0 2.86844e+06 -560738 0 2.87239e+06 -563425 0 2.87634e+06 -566100 0 2.88031e+06 -568761 0 2.88429e+06 -571409 0 2.88829e+06 -574045 0 2.89229e+06 -576668 0 2.8963e+06 -579278 0 2.90032e+06 -581875 0 2.90436e+06 -584460 0 2.9084e+06 -587032 0 2.91245e+06 -589593 0 2.91652e+06 -592140 0 2.92059e+06 -594676 0 2.92467e+06 -597199 0 2.92876e+06 -599711 0 2.93286e+06 -602210 0 2.93697e+06 -604698 0 2.94109e+06 -607174 0 2.94522e+06 -609638 0 2.94935e+06 -612090 0 2.9535e+06 -614531 0 2.95765e+06 -616961 0 2.96181e+06 -619380 0 2.96598e+06 -621787 0 2.97016e+06 -624183 0 2.97434e+06 -626569 0 2.97853e+06 -628943 0 2.98274e+06 -631307 0 2.98694e+06 -633660 0 2.99116e+06 -636002 0 2.99539e+06 -638334 0 2.99962e+06 -640656 0 3.00386e+06 -642967 0 3.0081e+06 -645268 0 3.01236e+06 -647559 0 3.01662e+06 -649840 0 3.02089e+06 -652112 0 3.02516e+06 -654373 0 3.02945e+06 -656625 0 3.03374e+06 -658867 0 3.03804e+06 -661100 0 3.04234e+06 -663323 0 3.04665e+06 -665538 0 3.05097e+06 -667742 0 3.0553e+06 -669938 0 3.05963e+06 -672125 0 3.06397e+06 -674303 0 3.06831e+06 -676472 0 3.07267e+06 -678633 0 3.07703e+06 -680785 0 