<?xml version="1.0"?> 
<VTKFile type="StructuredGrid" version="0.1"> 
<StructuredGrid WholeExtent="0 127 0 127 0 0"> 
<Piece Extent="0 127 0 127 0 0"> 
<PointData>
<DataArray type="Float32" Name="E" format="ascii" NumberOfComponents="3"> 
-528664 152268 0 -524551 152287 0 -520437 152307 0 -516321 152327 0 -512204 152348 0 -508086 152370 0 -503967 152391 0 -499847 152413 0 -495726 152436 0 -491604 152459 0 -487480 152482 0 -483356 152505 0 -479230 152529 0 -475103 152553 0 -470976 152577 0 -466847 152602 0 -462717 152626 0 -458587 152651 0 -454455 152676 0 -450323 152701 0 -446189 152727 0 -442054 152752 0 -437919 152778 0 -433783 152803 0 -429645 152829 0 -425507 152854 0 -421368 152880 0 -417228 152906 0 -413087 152932 0 -408945 152958 0 -404802 152983 0 -400658 153009 0 -396514 153035 0 -392368 153061 0 -388222 153086 0 -384075 153112 0 -379927 153138 0 -375779 153163 0 -371629 153189 0 -367479 153214 0 -363327 153239 0 -359175 153264 0 -355023 153289 0 -350869 153314 0 -346715 153339 0 -342560 153364 0 -338404 153388 0 -334247 153412 0 -330090 153437 0 -325931 153461 0 -321773 153484 0 -317613 153508 0 -313453 153532 0 -309292 153555 0 -305130 153578 0 -300967 153601 0 -296804 153624 0 -292640 153646 0 -288476 153668 0 -284311 153690 0 -280145 153712 0 -275978 153734 0 -271811 153755 0 -267643 153776 0 -263475 153797 0 -259306 153818 0 -255136 153838 0 -250966 153858 0 -246795 153878 0 -242624 153898 0 -238452 153917 0 -234279 153936 0 -230106 153955 0 -225932 153973 0 -221758 153991 0 -217583 154009 0 -213408 154027 0 -209232 154044 0 -205056 154061 0 -200879 154078 0 -196702 154094 0 -192524 154111 0 -188346 154126 0 -184167 154142 0 -179988 154157 0 -175808 154172 0 -171628 154187 0 -167448 154201 0 -163267 154215 0 -159086 154228 0 -154904 154242 0 -150722 154255 0 -146540 154267 0 -142357 154279 0 -138174 154291 0 -133990 154303 0 -129806 154314 0 -125622 154325 0 -121438 154336 0 -117253 154346 0 -113068 154356 0 -108883 154365 0 -104697 154375 0 -100512 154384 0 -96325.4 154392 0 -92139.1 154400 0 -87952.6 154408 0 -83765.8 154415 0 -79578.8 154423 0 -75391.6 154429 0 -71204.2 154436 0 -67016.7 154442 0 -62829 154447 0 -58641.1 154453 0 -54453 154457 0 -50264.9 154462 0 -46076.6 154466 0 -41888.2 154470 0 -37699.7 154474 0 -33511 154477 0 -29322.3 154479 0 -25133.6 154482 0 -20944.7 154484 0 -16755.9 154485 0 -12566.9 154487 0 -8377.97 154488 0 -4188.99 154488 0 0 154488 0 -530663 168750 0 -526537 168808 0 -522411 168867 0 -518283 168926 0 -514153 168986 0 -510023 169046 0 -505891 169106 0 -501758 169167 0 -497623 169228 0 -493488 169290 0 -489351 169351 0 -485213 169413 0 -481074 169476 0 -476934 169538 0 -472793 169601 0 -468651 169663 0 -464507 169726 0 -460363 169790 0 -456217 169853 0 -452071 169916 0 -447923 169980 0 -443774 170044 0 -439625 170107 0 -435474 170171 0 -431322 170235 0 -427170 170299 0 -423016 170363 0 -418861 170427 0 -414706 170490 0 -410549 170554 0 -406392 170618 0 -402233 170682 0 -398074 170746 0 -393914 170810 0 -389753 170874 0 -385591 170937 0 -381428 171001 0 -377264 171064 0 -373099 171128 0 -368934 171191 0 -364767 171254 0 -360600 171317 0 -356432 171380 0 -352263 171443 0 -348093 171506 0 -343923 171568 0 -339751 171630 0 -335579 171692 0 -331406 171754 0 -327233 171816 0 -323058 171878 0 -318883 171939 0 -314707 172000 0 -310530 172061 0 -306352 172122 0 -302174 172183 0 -297995 172243 0 -293815 172303 0 -289635 172363 0 -285454 172422 0 -281272 172482 0 -277089 172541 0 -272906 172599 0 -268722 172658 0 -264537 172716 0 -260352 172774 0 -256166 172832 0 -251980 172889 0 -247793 172946 0 -243605 173003 0 -239417 173060 0 -235228 173116 0 -231038 173172 0 -226848 173227 0 -222658 173283 0 -218466 173338 0 -214275 173392 0 -210082 173447 0 -205890 173500 0 -201696 173554 0 -197502 173607 0 -193308 173660 0 -189113 173713 0 -184918 173765 0 -180722 173817 0 -176526 173869 0 -172329 173920 0 -168132 173971 0 -163934 174021 0 -159736 174071 0 -155538 174121 0 -151339 174170 0 -147140 174219 0 -142940 174268 0 -138740 174316 0 -134540 174364 0 -130339 174411 0 -126138 174458 0 -121936 174505 0 -117735 174551 0 -113533 174597 0 -109330 174643 0 -105128 174688 0 -100925 174732 0 -96721.6 174777 0 -92518.2 174821 0 -88314.6 174864 0 -84110.7 174907 0 -79906.6 174950 0 -75702.2 174992 0 -71497.7 175034 0 -67293 175075 0 -63088.1 175117 0 -58883 175157 0 -54677.7 175197 0 -50472.3 175237 0 -46266.8 175277 0 -42061.2 175315 0 -37855.4 175354 0 -33649.5 175392 0 -29443.5 175430 0 -25237.5 175467 0 -21031.4 175504 0 -16825.2 175540 0 -12618.9 175576 0 -8412.64 175612 0 -4206.33 175647 0 0 175682 0 -532682 185219 0 -528544 185317 0 -524404 185416 0 -520264 185514 0 -516122 185613 0 -511978 185712 0 -507833 185812 0 -503687 185912 0 -499540 186012 0 -495391 186112 0 -491241 186213 0 -487089 186314 0 -482937 186415 0 -478783 186516 0 -474628 186617 0 -470472 186719 0 -466315 186821 0 -462156 186922 0 -457997 187024 0 -453836 187126 0 -449674 187228 0 -445512 187331 0 -441348 187433 0 -437183 187535 0 -433017 187637 0 -428849 187740 0 -424681 187842 0 -420512 187944 0 -416342 188047 0 -412171 188149 0 -407998 188251 0 -403825 188353 0 -399651 188456 0 -395476 188558 0 -391300 188660 0 -387123 188762 0 -382945 188863 0 -378766 188965 0 -374586 189067 0 -370405 189168 0 -366223 189269 0 -362041 189371 0 -357857 189472 0 -353673 189572 0 -349488 189673 0 -345302 189774 0 -341115 189874 0 -336927 189974 0 -332739 190074 0 -328549 190174 0 -324359 190273 0 -320168 190373 0 -315976 190472 0 -311783 190570 0 -307590 190669 0 -303396 190767 0 -299201 190865 0 -295005 190963 0 -290808 191061 0 -286611 191158 0 -282413 191255 0 -278214 191352 0 -274015 191448 0 -269815 191544 0 -265614 191640 0 -261413 191735 0 -257210 191831 0 -253008 191925 0 -248804 192020 0 -244600 192114 0 -240395 192208 0 -236190 192302 0 -231984 192395 0 -227777 192488 0 -223570 192580 0 -219362 192672 0 -215154 192764 0 -210945 192855 0 -206735 192946 0 -202525 193037 0 -198314 193127 0 -194103 193217 0 -189891 193307 0 -185679 193396 0 -181467 193484 0 -177253 193573 0 -173040 193661 0 -168826 193748 0 -164611 193835 0 -160396 193922 0 -156181 194008 0 -151965 194094 0 -147748 194179 0 -143532 194264 0 -139315 194349 0 -135097 194433 0 -130879 194517 0 -126661 194600 0 -122442 194683 0 -118223 194765 0 -114004 194847 0 -109785 194929 0 -105565 195010 0 -101345 195091 0 -97124.1 195171 0 -92903.3 195251 0 -88682.3 195330 0 -84461.1 195409 0 -80239.6 195487 0 -76017.8 195565 0 -71795.9 195642 0 -67573.7 195719 0 -63351.4 195796 0 -59128.8 195872 0 -54906.1 195947 0 -50683.2 196022 0 -46460.2 196097 0 -42237 196171 0 -38013.7 196245 0 -33790.3 196318 0 -29566.7 196391 0 -25343.1 196463 0 -21119.4 196535 0 -16895.6 196606 0 -12671.8 196677 0 -8447.89 196747 0 -4223.96 196817 0 0 196886 0 -534723 201678 0 -530572 201816 0 -526420 201954 0 -522266 202092 0 -518111 202231 0 -513954 202370 0 -509796 202509 0 -505637 202648 0 -501476 202788 0 -497314 202927 0 -493150 203067 0 -488985 203207 0 -484819 203347 0 -480651 203488 0 -476483 203628 0 -472313 203769 0 -468141 203909 0 -463969 204050 0 -459795 204191 0 -455620 204332 0 -451444 204473 0 -447267 204614 0 -443089 204755 0 -438910 204896 0 -434729 205037 0 -430547 205178 0 -426365 205319 0 -422181 205460 0 -417996 205601 0 -413810 205742 0 -409623 205883 0 -405435 206023 0 -401246 206164 0 -397055 206305 0 -392864 206445 0 -388672 206585 0 -384479 206726 0 -380285 206866 0 -376090 207006 0 -371894 207146 0 -367697 207285 0 -363499 207425 0 -359300 207564 0 -355100 207703 0 -350899 207842 0 -346697 207981 0 -342495 208120 0 -338291 208258 0 -334087 208396 0 -329882 208534 0 -325676 208672 0 -321469 208809 0 -317261 208946 0 -313052 209083 0 -308843 209220 0 -304633 209356 0 -300421 209492 0 -296210 209628 0 -291997 209763 0 -287783 209898 0 -283569 210033 0 -279354 210167 0 -275139 210302 0 -270922 210435 0 -266705 210569 0 -262487 210702 0 -258268 210835 0 -254049 210967 0 -249829 211099 0 -245608 211231 0 -241387 211363 0 -237165 211494 0 -232942 211624 0 -228719 211754 0 -224495 211884 0 -220270 212014 0 -216045 212143 0 -211819 212271 0 -207593 212400 0 -203366 212527 0 -199138 212655 0 -194910 212782 0 -190681 212908 0 -186452 213034 0 -182222 213160 0 -177992 213285 0 -173761 213410 0 -169530 213534 0 -165298 213658 0 -161066 213781 0 -156833 213904 0 -152600 214027 0 -148367 214149 0 -144132 214270 0 -139898 214392 0 -135663 214512 0 -131428 214632 0 -127192 214752 0 -122956 214871 0 -118720 214990 0 -114483 215108 0 -110246 215225 0 -106009 215343 0 -101771 215459 0 -97532.9 215575 0 -93294.6 215691 0 -89056 215806 0 -84817.1 215921 0 -80578 216035 0 -76338.6 216149 0 -72098.9 216262 0 -67859.1 216374 0 -63619 216486 0 -59378.7 216598 0 -55138.2 216709 0 -50897.6 216819 0 -46656.8 216929 0 -42415.8 217038 0 -38174.7 217147 0 -33933.4 217256 0 -29692 217363 0 -25450.6 217471 0 -21209 217577 0 -16967.3 217684 0 -12725.6 217789 0 -8483.75 217894 0 -4241.89 217999 0 0 218103 0 -536788 218128 0 -532624 218306 0 -528459 218484 0 -524292 218662 0 -520123 218841 0 -515953 219020 0 -511781 219199 0 -507608 219378 0 -503434 219557 0 -499258 219736 0 -495080 219915 0 -490902 220095 0 -486721 220274 0 -482540 220454 0 -478357 220634 0 -474173 220814 0 -469988 220994 0 -465801 221174 0 -461613 221354 0 -457424 221534 0 -453234 221714 0 -449042 221894 0 -444850 222074 0 -440656 222254 0 -436461 222434 0 -432264 222614 0 -428067 222794 0 -423868 222974 0 -419669 223154 0 -415468 223333 0 -411266 223513 0 -407063 223693 0 -402858 223872 0 -398653 224051 0 -394447 224231 0 -390240 224410 0 -386031 224589 0 -381822 224767 0 -377611 224946 0 -373400 225125 0 -369187 225303 0 -364974 225481 0 -360759 225659 0 -356544 225836 0 -352328 226014 0 -348110 226191 0 -343892 226368 0 -339673 226545 0 -335452 226721 0 -331231 226897 0 -327009 227073 0 -322786 227249 0 -318562 227424 0 -314338 227600 0 -310112 227774 0 -305886 227949 0 -301658 228123 0 -297430 228297 0 -293201 228470 0 -288972 228644 0 -284741 228816 0 -280510 228989 0 -276277 229161 0 -272044 229333 0 -267811 229504 0 -263576 229675 0 -259341 229846 0 -255105 230016 0 -250868 230186 0 -246631 230355 0 -242393 230524 0 -238154 230693 0 -233914 230861 0 -229674 231029 0 -225433 231196 0 -221191 231363 0 -216949 231530 0 -212706 231696 0 -208463 231861 0 -204219 232026 0 -199974 232191 0 -195729 232355 0 -191483 232519 0 -187236 232682 0 -182989 232845 0 -178742 233007 0 -174494 233169 0 -170245 233330 0 -165996 233491 0 -161746 233651 0 -157496 233811 0 -153245 233970 0 -148994 234129 0 -144743 234287 0 -140491 234445 0 -136238 234602 0 -131985 234759 0 -127732 234915 0 -123478 235070 0 -119224 235225 0 -114970 235380 0 -110715 235533 0 -106460 235687 0 -102204 235840 0 -97948.5 235992 0 -93692.3 236144 0 -89435.9 236295 0 -85179.1 236445 0 -80922 236595 0 -76664.7 236745 0 -72407.1 236893 0 -68149.2 237042 0 -63891.2 237189 0 -59632.9 237336 0 -55374.3 237483 0 -51115.6 237629 0 -46856.7 237774 0 -42597.7 237919 0 -38338.4 238063 0 -34079 238206 0 -29819.5 238349 0 -25559.9 238492 0 -21300.1 238633 0 -17040.2 238775 0 -12780.3 238915 0 -8520.24 239055 0 -4260.15 239194 0 0 239333 0 -538878 234571 0 -534701 234789 0 -530522 235007 0 -526341 235226 0 -522158 235445 0 -517975 235663 0 -513789 235882 0 -509602 236101 0 -505414 236320 0 -501224 236539 0 -497033 236758 0 -492840 236977 0 -488646 237197 0 -484450 237416 0 -480253 237635 0 -476055 237855 0 -471856 238074 0 -467655 238294 0 -463453 238513 0 -459249 238733 0 -455044 238952 0 -450838 239171 0 -446631 239391 0 -442422 239610 0 -438212 239829 0 -434001 240048 0 -429789 240268 0 -425576 240487 0 -421361 240706 0 -417145 240924 0 -412928 241143 0 -408710 241362 0 -404491 241580 0 -400270 241799 0 -396049 242017 0 -391826 242235 0 -387603 242453 0 -383378 242670 0 -379152 242888 0 -374925 243105 0 -370697 243322 0 -366468 243539 0 -362238 243756 0 -358006 243972 0 -353774 244188 0 -349541 244404 0 -345307 244620 0 -341072 244835 0 -336836 245050 0 -332598 245265 0 -328360 245479 0 -324121 245694 0 -319881 245907 0 -315640 246121 0 -311399 246334 0 -307156 246547 0 -302912 246760 0 -298668 246972 0 -294422 247184 0 -290176 247395 0 -285929 247606 0 -281681 247817 0 -277432 248027 0 -273183 248237 0 -268932 248446 0 -264681 248655 0 -260429 248864 0 -256176 249072 0 -251922 249280 0 -247668 249487 0 -243413 249694 0 -239157 249901 0 -234900 250107 0 -230643 250312 0 -226385 250517 0 -222126 250722 0 -217867 250926 0 -213607 251129 0 -209346 251332 0 -205085 251535 0 -200823 251737 0 -196560 251939 0 -192297 252140 0 -188033 252340 0 -183768 252540 0 -179503 252740 0 -175238 252939 0 -170971 253137 0 -166705 253335 0 -162437 253532 0 -158169 253729 0 -153901 253925 0 -149632 254120 0 -145363 254315 0 -141093 254510 0 -136823 254704 0 -132552 254897 0 -128281 255090 0 -124009 255282 0 -119737 255473 0 -115465 255664 0 -111192 255854 0 -106919 256044 0 -102645 256233 0 -98371.1 256422 0 -94096.8 256609 0 -89822.1 256797 0 -85547.2 256983 0 -81271.9 257169 0 -76996.4 257354 0 -72720.5 257539 0 -68444.4 257723 0 -64168 257906 0 -59891.4 258089 0 -55614.6 258271 0 -51337.5 258453 0 -47060.2 258633 0 -42782.7 258814 0 -38505.1 258993 0 -34227.2 259172 0 -29949.2 259350 0 -25671.1 259528 0 -21392.8 259704 0 -17114.5 259881 0 -12836 260056 0 -8557.39 260231 0 -4278.73 260405 0 0 260578 0 -540994 251008 0 -536802 251267 0 -532609 251526 0 -528414 251784 0 -524218 252043 0 -520020 252302 0 -515821 252561 0 -511620 252820 0 -507417 253079 0 -503213 253338 0 -499008 253597 0 -494801 253856 0 -490593 254116 0 -486383 254375 0 -482172 254634 0 -477959 254893 0 -473745 255152 0 -469530 255411 0 -465313 255670 0 -461095 255929 0 -456876 256188 0 -452655 256447 0 -448433 256706 0 -444210 256965 0 -439985 257224 0 -435759 257482 0 -431532 257741 0 -427304 257999 0 -423074 258258 0 -418843 258516 0 -414611 258774 0 -410378 259032 0 -406143 259289 0 -401908 259547 0 -397671 259804 0 -393433 260062 0 -389194 260319 0 -384953 260575 0 -380712 260832 0 -376469 261088 0 -372226 261344 0 -367981 261600 0 -363735 261856 0 -359488 262111 0 -355240 262366 0 -350991 262621 0 -346741 262876 0 -342489 263130 0 -338237 263384 0 -333984 263637 0 -329730 263890 0 -325474 264143 0 -321218 264396 0 -316961 264648 0 -312703 264900 0 -308443 265151 0 -304183 265402 0 -299922 265653 0 -295660 265903 0 -291397 266153 0 -287134 266403 0 -282869 266652 0 -278603 266901 0 -274337 267149 0 -270070 267396 0 -265801 267644 0 -261532 267891 0 -257263 268137 0 -252992 268383 0 -248721 268628 0 -244448 268873 0 -240175 269118 0 -235901 269362 0 -231627 269605 0 -227352 269848 0 -223075 270090 0 -218799 270332 0 -214521 270573 0 -210243 270814 0 -205964 271054 0 -201684 271294 0 -197404 271533 0 -193123 271772 0 -188842 272010 0 -184559 272247 0 -180277 272484 0 -175993 272720 0 -171709 272956 0 -167425 273191 0 -163139 273425 0 -158854 273659 0 -154567 273892 0 -150280 274125 0 -145993 274357 0 -141705 274588 0 -137417 274819 0 -133128 275049 0 -128839 275278 0 -124549 275507 0 -120259 275735 0 -115968 275963 0 -111677 276189 0 -107385 276415 0 -103093 276641 0 -98800.8 276866 0 -94508.1 277090 0 -90215.1 277313 0 -85921.6 277536 0 -81627.9 277758 0 -77333.8 277979 0 -73039.4 278200 0 -68744.7 278420 0 -64449.8 278639 0 -60154.5 278857 0 -55859 279075 0 -51563.3 279292 0 -47267.3 279509 0 -42971.1 279724 0 -38674.7 279939 0 -34378.1 280153 0 -30081.3 280367 0 -25784.4 280580 0 -21487.3 280792 0 -17190.1 281003 0 -12892.7 281213 0 -8595.23 281423 0 -4297.66 281632 0 0 281841 0 -543134 267441 0 -538929 267741 0 -534721 268040 0 -530512 268339 0 -526302 268638 0 -522090 268937 0 -517876 269237 0 -513661 269536 0 -509445 269835 0 -505227 270134 0 -501007 270433 0 -496786 270732 0 -492563 271032 0 -488339 271331 0 -484113 271630 0 -479886 271929 0 -475658 272228 0 -471428 272527 0 -467197 272826 0 -462964 273125 0 -458730 273423 0 -454494 273722 0 -450258 274021 0 -446019 274319 0 -441780 274618 0 -437539 274916 0 -433297 275214 0 -429053 275512 0 -424809 275810 0 -420563 276108 0 -416315 276405 0 -412067 276703 0 -407817 277000 0 -403566 277297 0 -399314 277594 0 -395060 277891 0 -390805 278187 0 -386549 278483 0 -382292 278779 0 -378034 279075 0 -373775 279370 0 -369514 279665 0 -365252 279960 0 -360989 280255 0 -356725 280549 0 -352460 280843 0 -348194 281136 0 -343926 281430 0 -339658 281722 0 -335388 282015 0 -331118 282307 0 -326846 282599 0 -322574 282891 0 -318300 283182 0 -314025 283472 0 -309749 283763 0 -305473 284052 0 -301195 284342 0 -296916 284631 0 -292637 284919 0 -288356 285208 0 -284074 285495 0 -279792 285782 0 -275508 286069 0 -271224 286355 0 -266939 286641 0 -262653 286926 0 -258366 287211 0 -254078 287495 0 -249789 287779 0 -245500 288062 0 -241209 288345 0 -236918 288627 0 -232626 288908 0 -228333 289189 0 -224039 289470 0 -219745 289750 0 -215450 290029 0 -211154 290308 0 -206857 290586 0 -202560 290863 0 -198262 291140 0 -193963 291416 0 -189664 291692 0 -185364 291967 0 -181063 292241 0 -176761 292515 0 -172459 292788 0 -168156 293060 0 -163853 293332 0 -159549 293603 0 -155245 293874 0 -150940 294143 0 -146634 294412 0 -142328 294681 0 -138021 294949 0 -133714 295215 0 -129406 295482 0 -125098 295747 0 -120789 296012 0 -116480 296276 0 -112170 296540 0 -107860 296802 0 -103549 297064 0 -99238.2 297326 0 -94926.7 297586 0 -90614.9 297846 0 -86302.8 298105 0 -81990.2 298363 0 -77677.3 298621 0 -73364 298877 0 -69050.5 299133 0 -64736.6 299388 0 -60422.4 299643 0 -56107.9 299896 0 -51793.2 300149 0 -47478.2 300401 0 -43162.9 300653 0 -38847.4 300903 0 -34531.7 301153 0 -30215.8 301402 0 -25899.8 301650 0 -21583.5 301897 0 -17267.1 302143 0 -12950.5 302389 0 -8633.77 302634 0 -4316.94 302878 0 0 303121 0 -545300 283872 0 -541080 284212 0 -536858 284551 0 -532635 284891 0 -528411 285230 0 -524184 285570 0 -519957 285909 0 -515727 286249 0 -511496 286588 0 -507264 286928 0 -503030 287267 0 -498794 287607 0 -494557 287946 0 -490318 288285 0 -486078 288624 0 -481837 288964 0 -477593 289303 0 -473349 289642 0 -469103 289981 0 -464855 290320 0 -460607 290658 0 -456356 290997 0 -452105 291336 0 -447852 291674 0 -443597 292012 0 -439341 292351 0 -435084 292689 0 -430825 293026 0 -426565 293364 0 -422304 293702 0 -418041 294039 0 -413778 294376 0 -409512 294713 0 -405246 295050 0 -400978 295386 0 -396709 295723 0 -392438 296059 0 -388167 296394 0 -383894 296730 0 -379620 297065 0 -375344 297400 0 -371068 297734 0 -366790 298069 0 -362511 298403 0 -358231 298736 0 -353950 299070 0 -349667 299403 0 -345384 299735 0 -341099 300067 0 -336813 300399 0 -332526 300731 0 -328238 301062 0 -323948 301392 0 -319658 301722 0 -315367 302052 0 -311074 302382 0 -306781 302710 0 -302486 303039 0 -298191 303367 0 -293894 303694 0 -289596 304021 0 -285298 304348 0 -280998 304674 0 -276698 304999 0 -272396 305324 0 -268094 305649 0 -263790 305972 0 -259486 306296 0 -255180 306618 0 -250874 306941 0 -246567 307262 0 -242259 307583 0 -237950 307904 0 -233641 308224 0 -229330 308543 0 -225019 308862 0 -220707 309180 0 -216394 309497 0 -212080 309814 0 -207765 310130 0 -203450 310445 0 -199134 310760 0 -194817 311074 0 -190499 311388 0 -186181 311700 0 -181862 312012 0 -177542 312324 0 -173222 312635 0 -168901 312945 0 -164579 313254 0 -160257 313562 0 -155934 313870 0 -151610 314177 0 -147286 314484 0 -142961 314789 0 -138636 315094 0 -134310 315398 0 -129983 315702 0 -125656 316004 0 -121329 316306 0 -117000 316607 0 -112672 316907 0 -108343 317207 0 -104013 317505 0 -99683.3 317803 0 -95352.9 318100 0 -91022 318396 0 -86690.8 318692 0 -82359.1 318986 0 -78027 319280 0 -73694.6 319573 0 -69361.8 319865 0 -65028.7 320156 0 -60695.2 320447 0 -56361.4 320736 0 -52027.4 321025 0 -47693 321313 0 -43358.3 321600 0 -39023.4 321886 0 -34688.3 322171 0 -30352.9 322456 0 -26017.3 322739 0 -21681.5 323022 0 -17345.5 323303 0 -13009.4 323584 0 -8673.05 323864 0 -4336.59 324143 0 0 324422 0 -547490 300301 0 -543256 300681 0 -539020 301061 0 -534783 301441 0 -530544 301821 0 -526303 302201 0 -522061 302580 0 -517817 302960 0 -513572 303340 0 -509325 303720 0 -505077 304100 0 -500826 304479 0 -496575 304859 0 -492322 305239 0 -488067 305618 0 -483811 305998 0 -479553 306377 0 -475294 306756 0 -471033 307135 0 -466771 307514 0 -462507 307893 0 -458242 308272 0 -453975 308651 0 -449707 309030 0 -445438 309408 0 -441167 309786 0 -436894 310164 0 -432620 310542 0 -428345 310920 0 -424068 311298 0 -419790 311675 0 -415511 312052 0 -411230 312429 0 -406948 312806 0 -402665 313182 0 -398380 313558 0 -394094 313934 0 -389806 314310 0 -385517 314685 0 -381227 315060 0 -376936 315435 0 -372643 315809 0 -368350 316183 0 -364054 316557 0 -359758 316930 0 -355460 317303 0 -351162 317675 0 -346862 318047 0 -342560 318419 0 -338258 318791 0 -333954 319161 0 -329650 319532 0 -325344 319902 0 -321036 320271 0 -316728 320641 0 -312419 321009 0 -308108 321377 0 -303797 321745 0 -299484 322112 0 -295171 322479 0 -290856 322845 0 -286540 323210 0 -282223 323575 0 -277905 323940 0 -273586 324304 0 -269266 324667 0 -264945 325030 0 -260623 325392 0 -256300 325753 0 -251977 326114 0 -247652 326475 0 -243326 326834 0 -238999 327193 0 -234672 327552 0 -230343 327910 0 -226014 328267 0 -221684 328623 0 -217353 328979 0 -213021 329334 0 -208688 329688 0 -204354 330042 0 -200020 330395 0 -195685 330747 0 -191349 331098 0 -187012 331449 0 -182675 331799 0 -178336 332148 0 -173997 332497 0 -169658 332845 0 -165317 333192 0 -160976 333538 0 -156635 333883 0 -152292 334228 0 -147949 334572 0 -143605 334915 0 -139261 335257 0 -134916 335598 0 -130571 335939 0 -126225 336279 0 -121878 336618 0 -117531 336956 0 -113183 337293 0 -108835 337629 0 -104486 337965 0 -100137 338299 0 -95786.8 338633 0 -91436.6 338966 0 -87085.9 339298 0 -82734.8 339629 0 -78383.3 339959 0 -74031.3 340288 0 -69679 340617 0 -65326.3 340944 0 -60973.2 341271 0 -56619.8 341596 0 -52266 341921 0 -47911.9 342245 0 -43557.5 342568 0 -39202.8 342890 0 -34847.8 343211 0 -30492.6 343531 0 -26137.2 343850 0 -21781.5 344168 0 -17425.5 344485 0 -13069.4 344801 0 -8713.11 345116 0 -4356.63 345431 0 0 345744 0 -549705 316728 0 -545457 317148 0 -541207 317569 0 -536955 317989 0 -532702 318409 0 -528447 318830 0 -524190 319250 0 -519932 319670 0 -515673 320091 0 -511411 320511 0 -507148 320931 0 -502884 321351 0 -498617 321771 0 -494350 322192 0 -490080 322612 0 -485809 323031 0 -481537 323451 0 -477263 323871 0 -472987 324291 0 -468710 324710 0 -464432 325129 0 -460152 325549 0 -455870 325968 0 -451587 326387 0 -447302 326806 0 -443016 327224 0 -438728 327643 0 -434439 328061 0 -430148 328479 0 -425856 328897 0 -421563 329314 0 -417268 329732 0 -412972 330149 0 -408674 330566 0 -404375 330982 0 -400074 331398 0 -395772 331814 0 -391469 332230 0 -387164 332645 0 -382858 333060 0 -378550 333475 0 -374242 333889 0 -369931 334303 0 -365620 334717 0 -361307 335130 0 -356993 335543 0 -352678 335955 0 -348361 336367 0 -344043 336779 0 -339724 337190 0 -335404 337601 0 -331082 338011 0 -326760 338420 0 -322436 338830 0 -318110 339238 0 -313784 339646 0 -309457 340054 0 -305128 340461 0 -300798 340868 0 -296467 341274 0 -292135 341679 0 -287802 342084 0 -283467 342488 0 -279132 342892 0 -274795 343295 0 -270458 343698 0 -266119 344099 0 -261779 344501 0 -257439 344901 0 -253097 345301 0 -248754 345700 0 -244410 346099 0 -240066 346497 0 -235720 346894 0 -231374 347290 0 -227026 347686 0 -222677 348081 0 -218328 348475 0 -213978 348869 0 -209627 349262 0 -205275 349654 0 -200922 350045 0 -196568 350436 0 -192213 350826 0 -187858 351214 0 -183502 351603 0 -179145 351990 0 -174787 352377 0 -170428 352762 0 -166069 353147 0 -161709 353531 0 -157348 353914 0 -152987 354297 0 -148624 354678 0 -144261 355059 0 -139898 355439 0 -135534 355817 0 -131169 356195 0 -126803 356572 0 -122437 356949 0 -118071 357324 0 -113703 357698 0 -109336 358072 0 -104967 358444 0 -100598 358816 0 -96228.9 359186 0 -91859 359556 0 -87488.6 359925 0 -83117.7 360292 0 -78746.3 360659 0 -74374.5 361025 0 -70002.2 361390 0 -65629.6 361754 0 -61256.5 362117 0 -56883.1 362478 0 -52509.2 362839 0 -48135.1 363199 0 -43760.5 363558 0 -39385.7 363916 0 -35010.5 364273 0 -30635.1 364628 0 -26259.4 364983 0 -21883.4 365337 0 -17507.1 365689 0 -13130.7 366041 0 -8753.97 366392 0 -4377.08 366741 0 0 367090 0 -551945 333153 0 -547682 333614 0 -543418 334075 0 -539152 334536 0 -534885 334997 0 -530615 335458 0 -526345 335919 0 -522072 336380 0 -517798 336841 0 -513522 337301 0 -509245 337762 0 -504966 338223 0 -500685 338684 0 -496403 339144 0 -492119 339605 0 -487833 340066 0 -483546 340526 0 -479257 340987 0 -474967 341447 0 -470675 341907 0 -466381 342367 0 -462086 342827 0 -457789 343287 0 -453491 343746 0 -449191 344205 0 -444890 344665 0 -440587 345124 0 -436282 345582 0 -431976 346041 0 -427669 346499 0 -423360 346957 0 -419049 347415 0 -414737 347873 0 -410423 348330 0 -406108 348787 0 -401792 349244 0 -397474 349700 0 -393155 350156 0 -388834 350612 0 -384512 351067 0 -380188 351522 0 -375863 351977 0 -371536 352431 0 -367209 352885 0 -362879 353338 0 -358549 353791 0 -354217 354244 0 -349884 354696 0 -345549 355147 0 -341213 355598 0 -336876 356049 0 -332537 356499 0 -328198 356949 0 -323856 357398 0 -319514 357846 0 -315171 358294 0 -310826 358742 0 -306480 359188 0 -302132 359635 0 -297784 360080 0 -293434 360525 0 -289083 360970 0 -284731 361414 0 -280378 361857 0 -276024 362299 0 -271669 362741 0 -267312 363182 0 -262954 363623 0 -258596 364063 0 -254236 364502 0 -249875 364940 0 -245513 365378 0 -241150 365815 0 -236786 366251 0 -232421 366687 0 -228055 367121 0 -223688 367555 0 -219320 367988 0 -214951 368421 0 -210581 368852 0 -206211 369283 0 -201839 369713 0 -197466 370142 0 -193093 370570 0 -188718 370998 0 -184343 371424 0 -179967 371850 0 -175590 372275 0 -171212 372698 0 -166834 373122 0 -162455 373544 0 -158074 373965 0 -153694 374385 0 -149312 374804 0 -144930 375223 0 -140546 375640 0 -136163 376057 0 -131778 376473 0 -127393 376887 0 -123007 377301 0 -118621 377713 0 -114234 378125 0 -109846 378536 0 -105458 378946 0 -101069 379354 0 -96679.5 379762 0 -92289.5 380168 0 -87899 380574 0 -83507.9 380979 0 -79116.4 381382 0 -74724.3 381785 0 -70331.8 382186 0 -65938.8 382586 0 -61545.4 382986 0 -57151.6 383384 0 -52757.3 383781 0 -48362.7 384177 0 -43967.6 384572 0 -39572.2 384966 0 -35176.5 385359 0 -30780.4 385751 0 -26384 386141 0 -21987.3 386531 0 -17590.4 386919 0 -13193.1 387306 0 -8795.66 387692 0 -4397.94 388077 0 0 388461 0 -554209 349577 0 -549932 350079 0 -545654 350580 0 -541374 351082 0 -537092 351583 0 -532809 352085 0 -528524 352586 0 -524237 353088 0 -519949 353590 0 -515659 354091 0 -511367 354593 0 -507073 355095 0 -502778 355596 0 -498481 356098 0 -494183 356599 0 -489883 357101 0 -485581 357602 0 -481277 358103 0 -476972 358604 0 -472665 359105 0 -468356 359606 0 -464046 360107 0 -459734 360608 0 -455421 361108 0 -451106 361608 0 -446789 362108 0 -442471 362608 0 -438151 363108 0 -433829 363607 0 -429506 364106 0 -425182 364605 0 -420855 365104 0 -416527 365602 0 -412198 366100 0 -407867 366598 0 -403535 367095 0 -399201 367592 0 -394865 368089 0 -390528 368585 0 -386190 369081 0 -381850 369576 0 -377508 370072 0 -373165 370566 0 -368821 371061 0 -364475 371554 0 -360128 372048 0 -355779 372541 0 -351429 373033 0 -347078 373525 0 -342725 374016 0 -338371 374507 0 -334015 374998 0 -329658 375487 0 -325300 375977 0 -320940 376465 0 -316579 376953 0 -312217 377441 0 -307853 377928 0 -303488 378414 0 -299122 378900 0 -294755 379385 0 -290386 379869 0 -286017 380352 0 -281646 380835 0 -277273 381318 0 -272900 381799 0 -268525 382280 0 -264149 382760 0 -259772 383240 0 -255394 383718 0 -251015 384196 0 -246635 384673 0 -242253 385149 0 -237871 385625 0 -233487 386100 0 -229102 386573 0 -224717 387047 0 -220330 387519 0 -215942 387990 0 -211553 388461 0 -207163 388930 0 -202773 389399 0 -198381 389867 0 -193988 390334 0 -189595 390800 0 -185200 391265 0 -180805 391729 0 -176408 392193 0 -172011 392655 0 -167613 393116 0 -163214 393577 0 -158814 394036 0 -154414 394495 0 -150012 394952 0 -145610 395408 0 -141207 395864 0 -136804 396318 0 -132399 396772 0 -127994 397224 0 -123588 397675 0 -119182 398126 0 -114774 398575 0 -110366 399023 0 -105958 399470 0 -101549 399916 0 -97138.8 400361 0 -92728.4 400805 0 -88317.4 401248 0 -83905.9 401689 0 -79493.8 402130 0 -75081.1 402569 0 -70668 403007 0 -66254.3 403444 0 -61840.1 403880 0 -57425.5 404315 0 -53010.4 404749 0 -48594.9 405181 0 -44178.9 405612 0 -39762.6 406043 0 -35345.9 406471 0 -30928.7 406899 0 -26511.3 407326 0 -22093.5 407751 0 -17675.4 408175 0 -13256.9 408598 0 -8838.22 409020 0 -4419.24 409440 0 0 409859 0 -556497 365999 0 -552207 366541 0 -547915 367083 0 -543621 367626 0 -539325 368168 0 -535028 368710 0 -530729 369253 0 -526428 369796 0 -522126 370338 0 -517821 370881 0 -513515 371424 0 -509207 371966 0 -504898 372509 0 -500586 373052 0 -496273 373594 0 -491958 374137 0 -487642 374679 0 -483323 375222 0 -479003 375764 0 -474682 376306 0 -470358 376848 0 -466033 377390 0 -461706 377932 0 -457377 378473 0 -453047 379014 0 -448715 379556 0 -444381 380097 0 -440046 380637 0 -435709 381178 0 -431370 381718 0 -427029 382258 0 -422687 382797 0 -418344 383337 0 -413998 383876 0 -409652 384415 0 -405303 384953 0 -400953 385491 0 -396601 386028 0 -392248 386566 0 -387893 387102 0 -383537 387639 0 -379179 388175 0 -374819 388710 0 -370458 389245 0 -366096 389780 0 -361732 390314 0 -357366 390848 0 -352999 391381 0 -348630 391913 0 -344261 392445 0 -339889 392977 0 -335516 393508 0 -331142 394038 0 -326766 394568 0 -322389 395097 0 -318011 395625 0 -313631 396153 0 -309250 396680 0 -304867 397207 0 -300483 397733 0 -296098 398258 0 -291711 398782 0 -287323 399306 0 -282934 399829 0 -278544 400351 0 -274152 400873 0 -269759 401393 0 -265365 401913 0 -260969 402433 0 -256573 402951 0 -252175 403469 0 -247776 403985 0 -243376 404501 0 -238974 405016 0 -234572 405531 0 -230168 406044 0 -225763 406556 0