<?xml version="1.0"?> 
<VTKFile type="StructuredGrid" version="0.1"> 
<StructuredGrid WholeExtent="0 127 0 127 0 0"> 
<Piece Extent="0 127 0 127 0 0"> 
<PointData>
<DataArray type="Float32" Name="E" format="ascii" NumberOfComponents="3"> 
849251 -0.00683433 0 849202 7537.03 0 849057 15074.2 0 848814 22611.6 0 848474 30149.5 0 848036 37687.8 0 847501 45226.9 0 846868 52766.7 0 846136 60307.4 0 845307 67849.1 0 844378 75391.9 0 843349 82935.9 0 842221 90481.1 0 840993 98027.8 0 839663 105576 0 838232 113125 0 836699 120677 0 835062 128229 0 833322 135783 0 831477 143339 0 829526 150896 0 827469 158455 0 825305 166015 0 823032 173577 0 820649 181140 0 818156 188704 0 815551 196269 0 812833 203834 0 810000 211400 0 807051 218967 0 803985 226533 0 800800 234099 0 797494 241665 0 794067 249229 0 790516 256792 0 786839 264353 0 783035 271911 0 779102 279466 0 775038 287018 0 770841 294565 0 766509 302106 0 762040 309642 0 757431 317171 0 752680 324691 0 747785 332203 0 742744 339705 0 737553 347196 0 732210 354673 0 726714 362137 0 721060 369586 0 715246 377017 0 709269 384430 0 703127 391822 0 696816 399191 0 690332 406536 0 683674 413854 0 676837 421143 0 669818 428400 0 662614 435622 0 655221 442807 0 647636 449951 0 639855 457052 0 631874 464105 0 623690 471108 0 615298 478056 0 606695 484944 0 597876 491770 0 588838 498527 0 579577 505211 0 570089 511817 0 560369 518339 0 550413 524771 0 540217 531107 0 529777 537340 0 519090 543463 0 508150 549469 0 496953 555350 0 485497 561096 0 473776 566701 0 461788 572154 0 449528 577445 0 436993 582564 0 424179 587500 0 411085 592242 0 397706 596777 0 384041 601092 0 370088 605174 0 355844 609008 0 341309 612580 0 326482 615875 0 311362 618874 0 295951 621562 0 280250 623919 0 264261 625928 0 247988 627568 0 231434 628819 0 214604 629658 0 197507 630065 0 180149 630015 0 162540 629484 0 144692 628448 0 126617 626881 0 108332 624757 0 89853.9 622048 0 71201.8 618727 0 52398.8 614766 0 33470.1 610137 0 14444 604810 0 -4647.83 598757 0 -23770.3 591948 0 -42884.7 584357 0 -61948.4 575953 0 -80914.3 566711 0 -99731.5 556603 0 -118344 545605 0 -136691 533691 0 -154708 520840 0 -172324 507031 0 -189462 492242 0 -206041 476455 0 -221975 459650 0 -237170 441803 0 -251524 422884 0 -264931 402849 0 -277297 381605 0 -288445 358994 0 -299071 334701 0 -306610 306610 0 836983 -0.0013401 0 836934 7505.59 0 836786 15011.3 0 836540 22517.2 0 836195 30023.3 0 835751 37529.9 0 835208 45037 0 834566 52544.6 0 833824 60052.8 0 832983 67561.8 0 832041 75071.5 0 830998 82582.1 0 829854 90093.6 0 828608 97606 0 827259 105119 0 825808 112634 0 824253 120149 0 822593 127665 0 820829 135182 0 818958 142700 0 816980 150219 0 814894 157739 0 812699 165259 0 810395 172779 0 807979 180300 0 805451 187821 0 802810 195342 0 800054 202863 0 797182 210383 0 794193 217902 0 791085 225420 0 787856 232936 0 784506 240450 0 781032 247961 0 777433 255470 0 773707 262975 0 769852 270476 0 765867 277971 0 761749 285462 0 757497 292945 0 753108 300422 0 748580 307890 0 743911 315350 0 739099 322799 0 734142 330236 0 729036 337661 0 723780 345073 0 718370 352469 0 712805 359848 0 707082 367208 0 701197 374549 0 695148 381867 0 688932 389162 0 682546 396430 0 675987 403670 0 669251 410880 0 662336 418056 0 655238 425196 0 647954 432297 0 640480 439357 0 632813 446371 0 624950 453337 0 616886 460250 0 608618 467107 0 600143 473904 0 591456 480636 0 582554 487298 0 573432 493886 0 564088 500395 0 554517 506819 0 544715 513151 0 534678 519387 0 524403 525519 0 513885 531540 0 503121 537443 0 492107 543220 0 480840 548863 0 469315 554364 0 457530 559712 0 445481 564899 0 433165 569915 0 420579 574748 0 407720 579388 0 394586 583822 0 381176 588038 0 367486 592022 0 353517 595762 0 339267 599242 0 324736 602447 0 309925 605361 0 294834 607968 0 279465 610250 0 263821 612189 0 247906 613766 0 231725 614960 0 215282 615752 0 198585 616120 0 181643 616042 0 164466 615495 0 147064 614455 0 129453 612898 0 111646 610800 0 93662.1 608134 0 75520.8 604875 0 57244.5 600996 0 38858.6 596471 0 20390.9 591273 0 1872.88 585376 0 -16661 578752 0 -35172.6 571376 0 -53620 563223 0 -71957.4 554266 0 -90134.6 544484 0 -108097 533853 0 -125786 522352 0 -143136 509962 0 -160079 496666 0 -176539 482447 0 -192436 467291 0 -207680 451182 0 -222176 434107 0 -235816 416044 0 -248475 396965 0 -260009 376814 0 -270188 355498 0 -278726 332862 0 -284168 308569 0 -284023 284023 0 824845 -0.00101102 0 824796 7473.03 0 824646 14946.1 0 824396 22419.4 0 824046 29892.8 0 823597 37366.4 0 823046 44840.4 0 822395 52314.7 0 821643 59789.3 0 820790 67264.4 0 819835 74740 0 818778 82216 0 817618 89692.5 0 816355 97169.5 0 814989 104647 0 813518 112125 0 811941 119603 0 810259 127082 0 808471 134561 0 806574 142040 0 804570 149519 0 802456 156998 0 800232 164476 0 797896 171955 0 795448 179433 0 792887 186909 0 790210 194385 0 787418 201859 0 784508 209332 0 781479 216802 0 778330 224270 0 775059 231734 0 771665 239196 0 768146 246653 0 764501 254106 0 760727 261553 0 756823 268994 0 752787 276429 0 748617 283857 0 744311 291276 0 739867 298685 0 735282 306085 0 730556 313473 0 725685 320848 0 720666 328210 0 715499 335556 0 710179 342887 0 704705 350199 0 699075 357491 0 693284 364762 0 687331 372009 0 681213 379232 0 674926 386427 0 668469 393592 0 661837 400725 0 655028 407824 0 648039 414885 0 640866 421906 0 633506 428885 0 625956 435816 0 618212 442698 0 610271 449526 0 602130 456297 0 593784 463006 0 585230 469649 0 576466 476222 0 567486 482719 0 558288 489136 0 548867 495467 0 539220 501706 0 529344 507847 0 519234 513884 0 508888 519809 0 498301 525616 0 487471 531297 0 476393 536844 0 465065 542248 0 453483 547500 0 441644 552592 0 429546 557512 0 417187 562251 0 404563 566798 0 391672 571140 0 378514 575267 0 365087 579164 0 351389 582819 0 337421 586217 0 323183 589344 0 308675 592185 0 293899 594723 0 278857 596941 0 263552 598822 0 247988 600348 0 232170 601499 0 216105 602256 0 199799 602599 0 183262 602506 0 166503 601956 0 149534 600926 0 132370 599394 0 115025 597335 0 97517.6 594725 0 79867.2 591541 0 62096.1 587758 0 44229.5 583350 0 26295 578294 0 8323.31 572564 0 -9651.53 566136 0 -27592.2 558986 0 -45457.8 551091 0 -63203.4 542429 0 -80780.3 532979 0 -98135.2 522720 0 -115211 511636 0 -131944 499710 0 -148267 486928 0 -164107 473277 0 -179384 458750 0 -194010 443336 0 -207889 427029 0 -220910 409823 0 -232945 391707 0 -243832 372669 0 -253338 352695 0 -261122 331799 0 -266467 310109 0 -268582 288479 0 -268394 268394 0 812838 -0.000366936 0 812787 7439.4 0 812636 14878.8 0 812383 22318.3 0 812028 29757.8 0 811573 37197.5 0 811015 44637.3 0 810355 52077.1 0 809594 59517.2 0 808729 66957.3 0 807762 74397.5 0 806691 81837.9 0 805516 89278.3 0 804236 96718.7 0 802851 104159 0 801361 111599 0 799764 119040 0 798060 126479 0 796248 133919 0 794327 141358 0 792297 148796 0 790155 156233 0 787902 163669 0 785537 171104 0 783057 178537 0 780463 185969 0 777752 193398 0 774924 200824 0 771977 208248 0 768910 215668 0 765721 223084 0 762410 230496 0 758973 237903 0 755410 245305 0 751720 252700 0 747899 260088 0 743947 267469 0 739862 274841 0 735641 282204 0 731283 289557 0 726786 296898 0 722147 304227 0 717365 311542 0 712437 318842 0 707360 326126 0 702133 333393 0 696753 340640 0 691217 347866 0 685523 355070 0 679669 362249 0 673650 369402 0 667466 376526 0 661112 383619 0 654587 390679 0 647886 397704 0 641008 404690 0 633948 411634 0 626704 418535 0 619272 425387 0 611650 432189 0 603834 438936 0 595821 445625 0 587607 452251 0 579189 458810 0 570563 465298 0 561727 471709 0 552676 478039 0 543407 484283 0 533917 490434 0 524202 496486 0 514259 502434 0 504085 508270 0 493676 513987 0 483029 519578 0 472141 525035 0 461010 530350 0 449631 535514 0 438003 540517 0 426122 545351 0 413988 550004 0 401597 554466 0 388948 558726 0 376040 562771 0 362872 566591 0 349443 570170 0 335754 573497 0 321804 576557 0 307595 579334 0 293128 581813 0 278407 583979 0 263434 585813 0 248214 587300 0 232752 588419 0 217055 589154 0 201129 589483 0 184985 589388 0 168632 588847 0 152083 587839 0 135351 586343 0 118452 584335 0 101403 581794 0 84224.2 578697 0 66937.5 575020 0 49567.6 570741 0 32141.8 565837 0 14690.2 560284 0 -2753.96 554060 0 -20154.2 547144 0 -37470.6 539515 0 -54659.6 531152 0 -71673.7 522038 0 -88461.4 512154 0 -104967 501487 0 -121129 490023 0 -136883 477751 0 -152158 464664 0 -166875 450757 0 -180949 436027 0 -194287 420475 0 -206781 404107 0 -218305 386933 0 -228707 368969 0 -237782 350254 0 -245259 330879 0 -250757 311055 0 -253950 291312 0 -255126 272400 0 -254673 254673 0 800961 0.000138458 0 800910 7404.71 0 800756 14809.4 0 800500 22214.1 0 800141 29618.7 0 799679 37023.3 0 799115 44427.8 0 798447 51832.2 0 797675 59236.5 0 796800 66640.6 0 795820 74044.5 0 794735 81448.1 0 793545 88851.3 0 792250 96254.1 0 790847 103656 0 789338 111058 0 787721 118459 0 785996 125859 0 784161 133257 0 782216 140655 0 780160 148051 0 777992 155445 0 775711 162838 0 773316 170228 0 770806 177615 0 768180 185000 0 765436 192381 0 762573 199759 0 759590 207132 0 756486 214501 0 753259 221864 0 749907 229222 0 746430 236574 0 742824 243918 0 739090 251254 0 735225 258582 0 731226 265901 0 727093 273209 0 722824 280506 0 718416 287791 0 713867 295062 0 709176 302319 0 704340 309559 0 699357 316783 0 694224 323987 0 688940 331172 0 683501 338334 0 677906 345473 0 672152 352586 0 666236 359672 0 660156 366728 0 653908 373752 0 647491 380742 0 640901 387696 0 634135 394609 0 627190 401481 0 620064 408307 0 612753 415084 0 605255 421809 0 597565 428479 0 589682 435090 0 581601 441637 0 573320 448116 0 564835 454524 0 556143 460854 0 547241 467102 0 538125 473263 0 528793 479331 0 519240 485301 0 509465 491165 0 499463 496918 0 489233 502551 0 478770 508059 0 468072 513434 0 457136 518666 0 445960 523748 0 434541 528670 0 422877 533424 0 410967 537999 0 398808 542385 0 386399 546570 0 373739 550544 0 360827 554294 0 347663 557808 0 334248 561072 0 320582 564073 0 306667 566797 0 292505 569228 0 278098 571350 0 263450 573149 0 248566 574606 0 233451 575705 0 218112 576428 0 202557 576755 0 186795 576668 0 170836 576147 0 154693 575172 0 138378 573722 0 121909 571777 0 105301 569314 0 88575.1 566314 0 71752.5 562754 0 54857.5 558612 0 37916.9 553867 0 20960.1 548499 0 4019.52 542487 0 -12869.3 535810 0 -29667.6 528451 0 -46333.2 520391 0 -62820.1 511614 0 -79078.5 502106 0 -95054.6 491853 0 -110690 480847 0 -125921 469079 0 -140681 456544 0 -154893 443244 0 -168478 429180 0 -181344 414361 0 -193392 398801 0 -204504 382524 0 -214545 365568 0 -223347 347996 0 -230711 329923 0 -236411 311551 0 -240288 293238 0 -242433 275434 0 -243076 258474 0 -242573 242573 0 789214 0.000701707 0 789162 7369.01 0 789007 14738 0 788747 22106.8 0 788384 29475.5 0 787917 36844 0 787345 44212.3 0 786669 51580.2 0 785888 58947.7 0 785002 66314.7 0 784010 73681.2 0 782912 81046.9 0 781708 88411.9 0 780396 95776 0 778977 103139 0 777450 110501 0 775813 117861 0 774067 125220 0 772210 132577 0 770241 139932 0 768161 147285 0 765967 154635 0 763659 161983 0 761235 169327 0 758695 176668 0 756038 184004 0 753262 191336 0 750366 198664 0 747348 205986 0 744208 213302 0 740943 220611 0 737553 227914 0 734035 235208 0 730389 242494 0 726612 249770 0 722703 257037 0 718660 264292 0 714481 271534 0 710165 278764 0 705709 285979 0 701111 293179 0 696369 300362 0 691481 307526 0 686445 314671 0 681259 321795 0 675920 328896 0 670426 335972 0 664774 343022 0 658962 350043 0 652988 357034 0 646849 363992 0 640541 370915 0 634063 377799 0 627412 384644 0 620584 391445 0 613578 398200 0 606389 404906 0 599016 411558 0 591454 418155 0 583702 424691 0 575756 431163 0 567613 437567 0 559270 443898 0 550724 450152 0 541971 456323 0 533010 462407 0 523836 468397 0 514446 474289 0 504839 480075 0 495011 485750 0 484958 491306 0 474679 496737 0 464171 502034 0 453431 507190 0 442457 512197 0 431246 517046 0 419798 521727 0 408110 526231 0 396180 530548 0 384009 534667 0 371594 538576 0 358935 542265 0 346034 545722 0 332889 548932 0 319503 551884 0 305876 554562 0 292012 556954 0 277913 559044 0 263583 560815 0 249027 562254 0 234251 563341 0 219262 564061 0 204067 564396 0 188675 564327 0 173098 563836 0 157347 562903 0 141436 561509 0 125380 559635 0 109197 557261 0 92906 554365 0 76527.9 550929 0 60086.9 546932 0 43608.9 542355 0 27122.8 537177 0 10660.1 531381 0 -5744.86 524948 0 -22054.4 517861 0 -38227.8 510105 0 -54220.8 501664 0 -69985.4 492528 0 -85469.9 482686 0 -100618 472130 0 -115370 460855 0 -129661 448861 0 -143419 436150 0 -156568 422730 0 -169024 408614 0 -180693 393825 0 -191472 378394 0 -201242 362369 0 -209868 345825 0 -217203 328876 0 -223102 311699 0 -227469 294552 0 -230333 277743 0 -231832 261544 0 -232196 246156 0 -231650 231650 0 777598 0.00125566 0 777545 7332.32 0 777388 14664.6 0 777125 21996.6 0 776758 29328.4 0 776285 36659.8 0 775707 43990.8 0 775023 51321.2 0 774232 58650.9 0 773336 65979.9 0 772332 73307.9 0 771221 80634.8 0 770003 87960.6 0 768676 95284.9 0 767240 102608 0 765695 109929 0 764039 117248 0 762273 124564 0 760394 131879 0 758403 139190 0 756299 146499 0 754079 153804 0 751745 161105 0 749294 168402 0 746725 175695 0 744038 182982 0 741230 190264 0 738301 197540 0 735250 204810 0 732075 212072 0 728774 219326 0 725346 226572 0 721790 233808 0 718104 241034 0 714287 248249 0 710336 255452 0 706250 262643 0 702027 269819 0 697665 276979 0 693162 284124 0 688517 291251 0 683726 298358 0 678789 305446 0 673703 312511 0 668465 319552 0 663074 326568 0 657527 333557 0 651821 340516 0 645955 347444 0 639925 354338 0 633729 361196 0 627365 368015 0 620830 374793 0 614121 381527 0 607236 388215 0 600171 394852 0 592924 401435 0 585492 407962 0 577873 414428 0 570063 420829 0 562059 427161 0 553859 433420 0 545459 439602 0 536857 445700 0 528050 451711 0 519035 457629 0 509810 463447 0 500370 469161 0 490715 474763 0 480841 480247 0 470745 485606 0 460426 490833 0 449881 495919 0 439108 500857 0 428105 505638 0 416870 510254 0 405403 514694 0 393701 518949 0 381764 523008 0 369591 526861 0 357183 530497 0 344539 533903 0 331661 537068 0 318550 539978 0 305207 542620 0 291635 544981 0 277838 547046 0 263819 548799 0 249583 550227 0 235138 551312 0 220488 552038 0 205643 552389 0 190611 552347 0 175403 551894 0 160032 551012 0 144510 549683 0 128853 547888 0 113079 545608 0 97204.6 542825 0 81252.4 539520 0 65245.2 535674 0 49208.5 531268 0 33170.2 526286 0 17160.9 520709 0 1213.89 514521 0 -14634.5 507708 0 -30345 500254 0 -45875.1 492149 0 -61178.7 483381 0 -76206.4 473942 0 -90904.8 463827 0 -105216 453033 0 -119080 441563 0 -132428 429421 0 -145190 416620 0 -157286 403176 0 -168634 389115 0 -179139 374475 0 -188701 359308 0 -197211 343689 0 -204556 327727 0 -210635 311570 0 -215383 295416 0 -218807 279494 0 -220991 264023 0 -222088 249177 0 -222271 235057 0 -221707 221707 0 766111 0.00182313 0 766058 7294.68 0 765899 14589.2 0 765634 21883.5 0 765262 29177.4 0 764784 36470.8 0 764199 43763.6 0 763507 51055.5 0 762708 58346.5 0 761801 65636.4 0 760786 72925 0 759663 80212.1 0 758431 87497.6 0 757089 94781.2 0 755637 102063 0 754074 109342 0 752400 116618 0 750614 123892 0 748715 131163 0 746701 138430 0 744574 145693 0 742330 152951 0 739970 160206 0 737492 167455 0 734895 174698 0 732179 181936 0 729341 189166 0 726380 196390 0 723297 203605 0 720087 210812 0 716752 218010 0 713288 225198 0 709695 232375 0 705971 239540 0 702114 246693 0 698123 253831 0 693995 260955 0 689729 268063 0 685324 275154 0 680777 282226 0 676086 289279 0 671249 296310 0 666265 303319 0 661130 310303 0 655844 317260 0 650403 324190 0 644805 331089 0 639048 337956 0 633130 344789 0 627047 351585 0 620799 358342 0 614382 365057 0 607793 371727 0 601030 378349 0 594090 384921 0 586971 391439 0 579670 397899 0 572184 404298 0 564511 410632 0 556648 416896 0 548591 423088 0 540339 429201 0 531888 435231 0 523236 441174 0 514381 447023 0 505319 452773 0 496048 458419 0 486566 463954 0 476869 469371 0 466957 474664 0 456826 479825 0 446475 484847 0 435902 489722 0 425105 494442 0 414082 498998 0 402833 503380 0 391356 507580 0 379652 511587 0 367718 515390 0 355557 518979 0 343167 522343 0 330551 525469 0 317709 528345 0 304645 530959 0 291360 533296 0 277858 535344 0 264143 537088 0 250220 538512 0 236096 539603 0 221777 540343 0 207272 540718 0 192589 540710 0 177739 540303 0 162735 539479 0 147589 538222 0 132316 536513 0 116934 534335 0 101461 531670 0 85916.5 528501 0 70324.1 524810 0 54708.2 520580 0 39096 515795 0 23517.1 510440 0 8003.7 504499 0 -7409.35 497958 0 -22684.2 490805 0 -37780.1 483030 0 -52653.2 474624 0 -67256 465581 0 -81538 455896 0 -95444.8 445570 0 -108918 434606 0 -121896 423013 0 -134311 410803 0 -146092 397997 0 -157163 384623 0 -167441 370720 0 -176840 356342 0 -185269 341562 0 -192642 326476 0 -198881 311213 0 -203938 295929 0 -207813 280804 0 -210557 266015 0 -212274 251714 0 -213094 238007 0 -213155 224956 0 -212584 212584 0 754755 0.00239543 0 754702 7256.11 0 754541 14512.1 0 754272 21767.7 0 753897 29022.8 0 753413 36277.2 0 752822 43530.8 0 752122 50783.4 0 751314 58034.7 0 750398 65284.6 0 749372 72532.8 0 748236 79779.2 0 746991 87023.4 0 745635 94265.3 0 744167 101505 0 742588 108741 0 740896 115974 0 739090 123204 0 737171 130429 0 735136 137651 0 732986 144867 0 730718 152079 0 728333 159285 0 725830 166485 0 723206 173678 0 720461 180864 0 717594 188043 0 714603 195213 0 711488 202373 0 708246 209524 0 704877 216665 0 701379 223793 0 697750 230910 0 693989 238013 0 690094 245101 0 686064 252175 0 681896 259231 0 677590 266270 0 673143 273290 0 668553 280289 0 663819 287266 0 658938 294219 0 653908 301148 0 648728 308049 0 643394 314922 0 637906 321764 0 632260 328573 0 626455 335347 0 620488 342083 0 614356 348780 0 608058 355434 0 601591 362043 0 594951 368603 0 588138 375113 0 581148 381568 0 573979 387965 0 566628 394300 0 559092 400570 0 551370 406771 0 543458 412898 0 535353 418947 0 527054 424913 0 518558 430791 0 509862 436577 0 500964 442263 0 491861 447846 0 482552 453318 0 473033 458673 0 463303 463905 0 453360 469006 0 443202 473970 0 432827 478788 0 422234 483452 0 411422 487954 0 400389 492284 0 389135 496435 0 377660 500395 0 365963 504155 0 354044 507705 0 341905 511032 0 329546 514127 0 316970 516976 0 304178 519568 0 291174 521889 0 277960 523927 0 264542 525667 0 250925 527096 0 237114 528199 0 223117 528961 0 208942 529366 0 194597 529400 0 180094 529045 0 165445 528286 0 150661 527106 0 135759 525489 0 120755 523417 0 105666 520876 0 90512.3 517847 0 75316.4 514315 0 60102.1 510264 0 44895.7 505679 0 29725.6 500545 0 14622.9 494850 0 -378.873 488580 0 -15243.4 481725 0 -29931.8 474275 0 -44402.1 466224 0 -58609.2 457567 0 -72505.3 448301 0 -86039 438427 0 -99155.6 427952 0 -111797 416884 0 -123901 405239 0 -135403 393037 0 -146233 380309 0 -156318 367095 0 -165585 353445 0 -173957 339428 0 -181364 325132 0 -187744 310664 0 -193060 296157 0 -197307 281755 0 -200516 267604 0 -202761 253835 0 -204139 240553 0 -204760 227825 0 -204735 215692 0 -204165 204165 0 743529 0.00297482 0 743475 7216.66 0 743312 14433.1 0 743041 21649.1 0 742661 28864.6 0 742173 36079.2 0 741575 43292.7 0 740868 50504.9 0 740052 57715.7 0 739126 64924.7 0 738089 72131.6 0 736942 79336.3 0 735684 86538.5 0 734313 93737.8 0 732830 100934 0 731235 108127 0 729525 115315 0 727701 122500 0 725762 129680 0 723707 136855 0 721535 144024 0 719245 151187 0 716836 158344 0 714307 165494 0 711657 172636 0 708885 179770 0 705990 186895 0 702970 194010 0 699824 201115 0 696551 208209 0 693149 215290 0 689617 222359 0 685954 229414 0 682158 236454 0 678227 243477 0 674159 250484 0 669954 257472 0 665608 264440 0 661122 271388 0 656491 278312 0 651715 285213 0 646792 292087 0 641720 298935 0 636496 305752 0 631118 312539 0 625585 319292 0 619894 326009 0 614043 332688 0 608030 339327 0 601852 345923 0 595507 352474 0 588993 358976 0 582307 365426 0 575447 371821 0 568410 378158 0 561195 384433 0 553798 390643 0 546217 396783 0 538450 402850 0 530494 408838 0 522347 414744 0 514006 420562 0 505470 426287 0 496735 431915 0 487801 437438 0 478663 442852 0 469321 448150 0 459773 453326 0 450017 458372 0 440050 463282 0 429873 468048 0 419482 472661 0 408878 477115 0 398060 481400 0 387026 485507 0 375777 489427 0 364312 493150 0 352633 496665 0 340740 499963 0 328635 503032 0 316319 505860 0 303795 508437 0 291065 510748 0 278134 512783 0 265006 514526 0 251686 515966 0 238181 517088 0 224497 517877 0 210642 518319 0 196626 518400 0 182459 518103 0 168152 517414 0 153719 516317 0 139173 514796 0 124532 512836 0 109812 510421 0 95033.3 507536 0 80216.8 504165 0 65385.9 500294 0 50565.9 495910 0 35784.3 490998 0 21071.1 485547 0 6458.24 479545 0 -8019.44 472983 0 -22324.7 465853 0 -36417.7 458149 0 -50255.7 449868 0 -63793.3 441008 0 -76982.1 431572 0 -89771 421566 0 -102106 411002 0 -113929 399894 0 -125181 388265 0 -135799 376145 0 -145720 363572 0 -154876 350596 0 -163205 337279 0 -170647 323700 0 -177152 309954 0 -182688 296149 0 -187247 282407 0 -190851 268852 0 -193549 255597 0 -195416 242740 0 -196539 230351 0 -197012 218477 0 -196924 207144 0 -196358 196358 0 732432 0.00355978 0 732377 7176.35 0 732213 14352.4 0 731939 21528.1 0 731556 28702.9 0 731062 35876.8 0 730459 43049.4 0 729745 50220.5 0 728920 57389.8 0 727985 64557 0 726938 71721.8 0 725779 78884 0 724508 86043.1 0 723124 93198.9 0 721627 100351 0 720016 107499 0 718289 114642 0 716447 121781 0 714489 128914 0 712414 136042 0 710221 143163 0 707909 150277 0 705477 157384 0 702924 164482 0 700248 171572 0 697450 178653 0 694528 185723 0 691479 192783 0 688304 199831 0 685001 206867 0 681568 213889 0 678005 220896 0 674308 227888 0 670478 234864 0 666512 241822 0 662409 248760 0 658167 255679 0 653785 262576 0 649260 269450 0 644591 276299 0 639776 283122 0 634812 289916 0 629699 296681 0 624434 303414 0 619015 310113 0 613440 316776 0 607706 323401 0 601812 329985 0 595756 336525 0 589534 343019 0 583146 349465 0 576589 355859 0 569859 362197 0 562956 368477 0 555877 374695 0 548619 380848 0 541181 386931 0 533559 392940 0 525752 398872 0 517757 404721 0 509572 410483 0 501195 416152 0 492624 421724 0 483856 427193 0 474891 432553 0 465725 437798 0 456358 442922 0 446787 447918 0 437011 452779 0 427028 457497 0 416839 462065 0 406441 466476 0 395834 470720 0 385018 474789 0 373992 478674 0 362757 482365 0 351314 485852 0 339663 489126 0 327807 492175 0 315746 494989 0 303484 497555 0 291023 499863 0 278368 501900 0 265523 503652 0 252494 505108 0 239286 506255 0 225906 507077 0 212362 507562 0 198665 507695 0 184822 507461 0 170847 506847 0 156752 505837 0 142551 504416 0 128259 502571 0 113894 500286 0 99474.2 497546 0 85020.8 494338 0 70556.2 490649 0 56104.6 486465 0 41692.6 481774 0 27348.9 476564 0 13104.3 470827 0 -1008.07 464553 0 -14952.7 457736 0 -28691.7 450371 0 -42184.5 442454 0 -55388.3 433988 0 -68257.5 424974 0 -80744.3 415419 0 -92798.1 405336 0 -104366 394740 0 -115394 383654 0 -125824 372106 0 -135599 360133 0 -144661 347783 0 -152956 335112 0 -160431 322191 0 -167046 309102 0 -172771 295940 0 -177598 282807 0 -181539 269809 0 -184630 257047 0 -186927 244609 0 -188500 232565 0 -189427 220966 0 -189785 209846 0 -189651 199220 0 -189092 189092 0 721465 0.00415007 0 721410 7135.21 0 721244 14270.1 0 720967 21404.5 0 720580 28538 0 720082 35670.3 0 719472 42801.1 0 718752 49930.2 0 717919 57057.3 0 716975 64181.9 0 715918 71303.7 0 714748 78422.5 0 713465 85537.7 0 712068 92649.2 0 710556 99756.3 0 708930 106859 0 707187 113956 0 705328 121048 0 703352 128134 0 701257 135213 0 699044 142284 0 696710 149349 0 694256 156404 0 691679 163451 0 688980 170488 0 686157 177514 0 683208 184530 0 680133 191533 0 676930 198523 0 673597 205499 0 670135 212461 0 666540 219406 0 662813 226335 0 658950 233245 0 654951 240136 0 650814 247006 0 646537 253854 0 642119 260678 0 637558 267478 0 632853 274250 0 628000 280994 0 622999 287708 0 617847 294390 0 612543 301037 0 607085 307648 0 601470 314220 0 595696 320750 0 589762 327238 0 583666 333679 0 577404 340070 0 570976 346410 0 564378 352694 0 557609 358920 0 550667 365084 0 543549 371183 0 536252 377212 0 528776 383167 0 521118 389045 0 513275 394841 0 505246 400550 0 497028 406167 0 488620 411688 0 480020 417106 0 471225 422416 0 462235 427613 0 453047 432689 0 443660 437639 0 434073 442455 0 424285 447131 0 414294 451658 0 404100 456030 0 393702 460239 0 383101 464274 0 372296 468129 0 361287 471794 0 350076 475258 0 338663 478513 0 327051 481547 0 315241 484351 0 303235 486914 0 291038 489223 0 278653 491267 0 266085 493034 0 253338 494512 0 240419 495687 0 227336 496548 0 214095 497079 0 200705 497269 0 187178 497103 0 173524 496568 0 159755 495648 0 145885 494332 0 131930 492603 0 117906 490450 0 103831 487858 0 89725.2 484814 0 75610.7 481306 0 61510.6 477321 0 47450.6 472849 0 33458.1 467879 0 19562.4 462402 0 5795.45 456411 0 -7809.12 449899 0 -21215.2 442863 0 -34384.6 435301 0 -47276.7 427214 0 -59848.8 418607 0 -72055.9 409485 0 -83851.2 399862 0 -95185.8 389753 0 -106009 379180 0 -116270 368172 0 -125916 356762 0 -134896 344995 0 -143161 332923 0 -150668 320609 0 -157378 308127 0 -163267 295557 0 -168325 282989 0 -172558 270515 0 -175992 258224 0 -178670 246195 0 -180646 234498 0 -181987 223184 0 -182758 212290 0 -183026 201840 0 -182857 191845 0 -182307 182307 0 710627 0.00474494 0 710571 7093.28 0 710403 14186.2 0 710124 21278.5 0 709734 28369.8 0 709231 35459.8 0 708616 42548.1 0 707888 49634.4 0 707048 56718.3 0 706095 63799.5 0 705029 70877.6 0 703848 77952.1 0 702553 85022.7 0 701144 92089 0 699618 99150.4 0 697977 106207 0 696219 113257 0 694343 120301 0 692349 127338 0 690236 134368 0 688003 141390 0 685649 148403 0 683173 155407 0 680574 162401 0 677852 169384 0 675004 176355 0 672030 183314 0 668929 190260 0 665699 197191 0 662339 204108 0 658848 211007 0 655224 217890 0 651466 224754 0 647573 231598 0 643542 238421 0 639373 245222 0 635063 251998 0 630612 258749 0 626017 265473 0 621276 272168 0 616388 278833 0 611351 285465 0 606164 292062 0 600823 298622 0 595328 305144 0 589676 311624 0 583865 318060 0 577894 324450 0 571760 330790 0 565461 337079 0 558996 343312 0 552362 349486 0 545556 355599 0 538578 361646 0 531425 367624 0 524095 373529 0 516585 379356 0 508894 385102 0 501021 390762 0 492962 396330 0 484717 401803 0 476282 407174 0 467658 412438 0 458842 417589 0 449833 422622 0 440629 427530 0 431229 432306 0 421633 436943 0 411839 441435 0 401846 445773 0 391656 449950 0 381266 453957 0 370678 457786 0 359892 461428 0 348910 464875 0 337731 468115 0 326358 471140 0 314794 473939 0 303040 476502 0 291101 478817 0 278980 480874 0 266681 482660 0 254210 484164 0 241574 485373 0 228778 486276 0 215831 486859 0 202741 487110 0 189519 487015 0 176174 486561 0 162721 485736 0 149171 484525 0 135540 482916 0 121844 480896 0 108100 478453 0 94327.5 475573 0 80547.9 472245 0 66783.7 468458 0 53059.1 464203 0 39400.6 459468 0 25836.3 454247 0 12396.4 448532 0 -886.92 442318 0 -13979.4 435603 0 -26844.9 428384 0 -39445.2 420665 0 -51740 412448 0 -63687.3 403742 0 -75243.4 394558 0 -86362.9 384913 0 -96999.5 374828 0 -107106 364328 0 -116636 353447 0 -125542 342226 0 -133781 330712 0 -141314 318963 0 -148109 307042 0 -154141 295023 0 -159400 282982 0 -163888 271001 0 -167624 259159 0 -170639 247529 0 -172979 236176 0 -174696 225151 0 -175847 214495 0 -176493 204235 0 -176690 194387 0 -176494 184960 0 -175954 175954 0 699917 0.00534387 0 699861 7050.58 0 699692 14100.8 0 699410 21150.3 0 699016 28198.6 0 698509 35245.5 0 697888 42290.5 0 697155 49333.2 0 696307 56373.3 0 695346 63410.3 0 694270 70443.8 0 693079 77473.3 0 691773 84498.5 0 690351 91518.8 0 688813 98533.7 0 687157 105543 0 685384 112545 0 683492 119541 0 681481 126529 0 679350 133509 0 677098 140480 0 674725 147441 0 672228 154392 0 669608 161333 0 666863 168261 0 663992 175176 0 660994 182078 0 657868 188966 0 654613 195838 0 651226 202693 0 647708 209530 0 644056 216349 0 640270 223148 0 636347 229925 0 632286 236679 0 628086 243409 0 623745 250113 0 619262 256790 0 614635 263438 0 609861 270055 0 604940 276639 0 599870 283188 0 594648 289700 0 589273 296173 0 583744 302604 0 578057 308991 0 572212 315332 0 566207 321624 0 560038 327863 0 553706 334047 0 547207 340173 0 540539 346237 0 533701 352235 0 526691 358165 0 519506 364022 0 512145 369802 0 504607 375501 0 496888 381115 0 488988 386638 0 480905 392065 0 472636 397393 0 464181 402615 0 455538 407725 0 446706 412718 0 437684 417587 0 428470 422327 0 419064 426930 0 409464 431389 0 399672 435697 0 389685 439847 0 379505 443830 0 369131 447638 0 358565 451262 0 347806 454695 0 336858 457926 0 325721 460945 0 314397 463744 0 302890 466311 0 291203 468637 0 279340 470710 0 267304 472519 0 255103 474054 0 242741 475301 0 230225 476250 0 217563 476888 0 204764 477202 0 191837 477181 0 178794 476813 0 165645 476083 0 152404 474981 0 139085 473493 0 125704 471607 0 112278 469312 0 98825.9 466596 0 85367.2 463448 0 71924 459858 0 58519.6 455815 0 45179.2 451312 0 31929.9 446341 0 18800.3 440897 0 5821.07 434973 0 -6975.34 428569 0 -19554.6 421683 0 -31880.8 414318 0 -43916 406477 0 -55620.8 398170 0 -66954.4 389406 0 -77874.9 380203 0 -88339.2 370580 0 -98304.1 360561 0 -107727 350179 0 -116565 339470 0 -124780 328479 0 -132336 317256 0 -139204 305860 0 -145361 294355 0 -150796 282809 0 -155509 271294 0 -159512 259881 0 -162829 248637 0 -165496 237623 0 -167556 226889 0 -169058 216477 0 -170055 206416 0 -170598 196729 0 -170737 187427 0 -170521 178514 0 -169991 169991 0 689336 0.00594628 0 689279 7007.16 0 689109 14013.9 0 688825 21019.8 0 688427 28024.5 0 687916 35027.5 0 687290 42028.5 0 686550 49026.9 0 685696 56022.4 0 684726 63014.5 0 683641 70002.7 0 682441 76986.5 0 681124 83965.4 0 679690 90939 0 678139 97906.7 0 676470 104868 0 674682 111822 0 672775 118768 0 670748 125706 0 668600 132635 0 666330 139555 0 663937 146464 0 661421 15336