<?xml version="1.0"?> 
<VTKFile type="StructuredGrid" version="0.1"> 
<StructuredGrid WholeExtent="0 127 0 127 0 0"> 
<Piece Extent="0 127 0 127 0 0"> 
<PointData>
<DataArray type="Float32" Name="E" format="ascii" NumberOfComponents="3"> 
-834654 0 0 -834581 0 0 -834507 0 0 -834432 0 0 -834355 0 0 -834278 0 0 -834199 0 0 -834118 0 0 -834037 0 0 -833954 0 0 -833870 0 0 -833785 0 0 -833699 0 0 -833611 0 0 -833522 0 0 -833432 0 0 -833341 0 0 -833249 0 0 -833156 0 0 -833061 0 0 -832965 0 0 -832868 0 0 -832771 0 0 -832671 0 0 -832571 0 0 -832470 0 0 -832368 0 0 -832264 0 0 -832160 0 0 -832054 0 0 -831948 0 0 -831841 0 0 -831732 0 0 -831623 0 0 -831512 0 0 -831401 0 0 -831289 0 0 -831176 0 0 -831062 0 0 -830947 0 0 -830832 0 0 -830715 0 0 -830598 0 0 -830480 0 0 -830361 0 0 -830241 0 0 -830121 0 0 -830000 0 0 -829878 0 0 -829756 0 0 -829633 0 0 -829509 0 0 -829385 0 0 -829260 0 0 -829134 0 0 -829008 0 0 -828882 0 0 -828755 0 0 -828627 0 0 -828499 0 0 -828371 0 0 -828242 0 0 -828113 0 0 -827983 0 0 -827853 0 0 -827723 0 0 -827592 0 0 -827461 0 0 -827330 0 0 -827199 0 0 -827067 0 0 -826935 0 0 -826803 0 0 -826671 0 0 -826539 0 0 -826406 0 0 -826274 0 0 -826141 0 0 -826009 0 0 -825876 0 0 -825744 0 0 -825611 0 0 -825478 0 0 -825346 0 0 -825213 0 0 -825081 0 0 -824949 0 0 -824816 0 0 -824684 0 0 -824553 0 0 -824421 0 0 -824289 0 0 -824158 0 0 -824027 0 0 -823897 0 0 -823766 0 0 -823636 0 0 -823506 0 0 -823376 0 0 -823247 0 0 -823118 0 0 -822990 0 0 -822862 0 0 -822734 0 0 -822607 0 0 -822480 0 0 -822353 0 0 -822227 0 0 -822102 0 0 -821977 0 0 -821852 0 0 -821728 0 0 -821604 0 0 -821481 0 0 -821358 0 0 -821236 0 0 -821115 0 0 -820994 0 0 -820873 0 0 -820753 0 0 -820634 0 0 -820515 0 0 -820397 0 0 -820279 0 0 -820162 0 0 -820046 0 0 -819930 0 0 -819815 0 0 -834655 90.2201 0 -834582 91.7839 0 -834508 93.3456 0 -834433 94.9045 0 -834356 96.46 0 -834279 98.0115 0 -834200 99.5583 0 -834119 101.1 0 -834038 102.635 0 -833955 104.164 0 -833871 105.686 0 -833786 107.2 0 -833700 108.706 0 -833612 110.202 0 -833523 111.689 0 -833433 113.165 0 -833342 114.631 0 -833250 116.085 0 -833157 117.527 0 -833062 118.956 0 -832966 120.373 0 -832869 121.775 0 -832771 123.163 0 -832672 124.536 0 -832572 125.894 0 -832471 127.236 0 -832369 128.561 0 -832265 129.869 0 -832161 131.16 0 -832055 132.432 0 -831949 133.687 0 -831841 134.922 0 -831733 136.137 0 -831624 137.333 0 -831513 138.509 0 -831402 139.664 0 -831290 140.797 0 -831177 141.91 0 -831063 143 0 -830948 144.067 0 -830832 145.112 0 -830716 146.134 0 -830598 147.133 0 -830480 148.108 0 -830361 149.059 0 -830242 149.985 0 -830121 150.887 0 -830000 151.764 0 -829879 152.616 0 -829756 153.442 0 -829633 154.243 0 -829509 155.018 0 -829385 155.767 0 -829260 156.49 0 -829135 157.186 0 -829009 157.856 0 -828882 158.499 0 -828755 159.115 0 -828627 159.704 0 -828499 160.266 0 -828371 160.801 0 -828242 161.309 0 -828113 161.79 0 -827983 162.243 0 -827853 162.669 0 -827723 163.068 0 -827592 163.44 0 -827461 163.784 0 -827330 164.101 0 -827199 164.391 0 -827067 164.654 0 -826935 164.889 0 -826803 165.098 0 -826671 165.28 0 -826539 165.435 0 -826407 165.564 0 -826274 165.667 0 -826141 165.743 0 -826009 165.793 0 -825876 165.817 0 -825744 165.816 0 -825611 165.789 0 -825478 165.737 0 -825346 165.661 0 -825213 165.56 0 -825081 165.434 0 -824948 165.284 0 -824816 165.111 0 -824684 164.914 0 -824552 164.695 0 -824421 164.452 0 -824289 164.188 0 -824158 163.901 0 -824027 163.593 0 -823896 163.263 0 -823766 162.913 0 -823636 162.543 0 -823506 162.152 0 -823376 161.743 0 -823247 161.314 0 -823118 160.867 0 -822990 160.401 0 -822861 159.918 0 -822734 159.418 0 -822606 158.902 0 -822479 158.369 0 -822353 157.821 0 -822227 157.259 0 -822101 156.681 0 -821976 156.09 0 -821852 155.485 0 -821727 154.868 0 -821604 154.239 0 -821481 153.597 0 -821358 152.945 0 -821236 152.283 0 -821114 151.61 0 -820993 150.929 0 -820873 150.239 0 -820753 149.54 0 -820634 148.835 0 -820515 148.122 0 -820397 147.404 0 -820279 146.68 0 -820162 145.951 0 -820045 145.217 0 -819930 144.48 0 -819814 143.74 0 -834658 180.443 0 -834585 183.571 0 -834511 186.695 0 -834436 189.814 0 -834359 192.926 0 -834282 196.03 0 -834203 199.125 0 -834122 202.209 0 -834041 205.281 0 -833958 208.34 0 -833874 211.385 0 -833789 214.413 0 -833703 217.425 0 -833615 220.419 0 -833526 223.394 0 -833436 226.348 0 -833345 229.28 0 -833253 232.189 0 -833159 235.074 0 -833065 237.934 0 -832969 240.767 0 -832872 243.572 0 -832774 246.349 0 -832675 249.096 0 -832575 251.813 0 -832473 254.497 0 -832371 257.148 0 -832268 259.765 0 -832163 262.347 0 -832058 264.894 0 -831951 267.403 0 -831844 269.874 0 -831735 272.306 0 -831626 274.699 0 -831515 277.05 0 -831404 279.361 0 -831292 281.629 0 -831179 283.853 0 -831065 286.034 0 -830950 288.17 0 -830834 290.261 0 -830718 292.305 0 -830600 294.303 0 -830482 296.253 0 -830363 298.156 0 -830243 300.009 0 -830123 301.813 0 -830002 303.568 0 -829880 305.272 0 -829758 306.925 0 -829634 308.527 0 -829511 310.077 0 -829386 311.575 0 -829261 313.02 0 -829136 314.413 0 -829010 315.753 0 -828883 317.039 0 -828756 318.272 0 -828628 319.45 0 -828500 320.575 0 -828372 321.645 0 -828243 322.661 0 -828114 323.622 0 -827984 324.529 0 -827854 325.381 0 -827724 326.179 0 -827593 326.922 0 -827462 327.61 0 -827331 328.244 0 -827199 328.824 0 -827068 329.349 0 -826936 329.821 0 -826804 330.238 0 -826672 330.602 0 -826539 330.912 0 -826407 331.169 0 -826274 331.374 0 -826142 331.526 0 -826009 331.626 0 -825876 331.674 0 -825743 331.671 0 -825611 331.618 0 -825478 331.514 0 -825345 331.36 0 -825213 331.157 0 -825081 330.906 0 -824948 330.606 0 -824816 330.259 0 -824684 329.865 0 -824552 329.425 0 -824420 328.94 0 -824289 328.41 0 -824157 327.836 0 -824026 327.219 0 -823896 326.559 0 -823765 325.858 0 -823635 325.117 0 -823505 324.335 0 -823375 323.515 0 -823246 322.657 0 -823117 321.761 0 -822989 320.83 0 -822860 319.863 0 -822733 318.863 0 -822605 317.829 0 -822478 316.763 0 -822352 315.666 0 -822226 314.54 0 -822100 313.384 0 -821975 312.201 0 -821850 310.991 0 -821726 309.755 0 -821603 308.495 0 -821479 307.212 0 -821357 305.907 0 -821235 304.581 0 -821113 303.235 0 -820992 301.871 0 -820872 300.49 0 -820752 299.092 0 -820632 297.68 0 -820513 296.254 0 -820395 294.816 0 -820278 293.367 0 -820161 291.908 0 -820044 290.44 0 -819928 288.965 0 -819813 287.484 0 -834663 270.67 0 -834590 275.365 0 -834516 280.054 0 -834441 284.735 0 -834364 289.405 0 -834286 294.064 0 -834207 298.708 0 -834127 303.337 0 -834046 307.947 0 -833963 312.538 0 -833879 317.107 0 -833794 321.653 0 -833707 326.174 0 -833620 330.667 0 -833531 335.131 0 -833441 339.564 0 -833350 343.964 0 -833257 348.33 0 -833164 352.66 0 -833069 356.952 0 -832973 361.204 0 -832876 365.415 0 -832778 369.582 0 -832679 373.705 0 -832579 377.781 0 -832478 381.81 0 -832375 385.789 0 -832272 389.716 0 -832167 393.592 0 -832062 397.413 0 -831955 401.178 0 -831848 404.887 0 -831739 408.537 0 -831629 412.127 0 -831519 415.657 0 -831408 419.124 0 -831295 422.527 0 -831182 425.866 0 -831068 429.139 0 -830953 432.344 0 -830837 435.482 0 -830721 438.55 0 -830603 441.548 0 -830485 444.474 0 -830366 447.329 0 -830246 450.11 0 -830126 452.817 0 -830005 455.45 0 -829883 458.007 0 -829760 460.487 0 -829637 462.891 0 -829513 465.217 0 -829389 467.465 0 -829264 469.634 0 -829138 471.724 0 -829012 473.734 0 -828885 475.663 0 -828758 477.513 0 -828630 479.281 0 -828502 480.968 0 -828374 482.574 0 -828245 484.098 0 -828115 485.54 0 -827985 486.9 0 -827855 488.179 0 -827725 489.375 0 -827594 490.49 0 -827463 491.522 0 -827332 492.473 0 -827200 493.342 0 -827068 494.13 0 -826937 494.836 0 -826804 495.462 0 -826672 496.007 0 -826540 496.472 0 -826407 496.857 0 -826274 497.163 0 -826142 497.391 0 -826009 497.54 0 -825876 497.612 0 -825743 497.606 0 -825611 497.525 0 -825478 497.368 0 -825345 497.136 0 -825213 496.831 0 -825080 496.452 0 -824948 496.002 0 -824815 495.48 0 -824683 494.888 0 -824551 494.226 0 -824419 493.497 0 -824288 492.7 0 -824157 491.838 0 -824025 490.911 0 -823895 489.92 0 -823764 488.867 0 -823634 487.753 0 -823504 486.579 0 -823374 485.347 0 -823245 484.057 0 -823116 482.712 0 -822987 481.313 0 -822859 479.862 0 -822731 478.359 0 -822604 476.806 0 -822477 475.205 0 -822350 473.558 0 -822224 471.866 0 -822098 470.13 0 -821973 468.353 0 -821849 466.536 0 -821724 464.68 0 -821601 462.788 0 -821477 460.861 0 -821355 458.901 0 -821233 456.91 0 -821111 454.889 0 -820990 452.841 0 -820869 450.766 0 -820749 448.668 0 -820630 446.547 0 -820511 444.406 0 -820393 442.246 0 -820275 440.07 0 -820158 437.879 0 -820042 435.675 0 -819926 433.46 0 -819811 431.236 0 -834670 360.903 0 -834597 367.168 0 -834523 373.425 0 -834448 379.671 0 -834371 385.903 0 -834293 392.119 0 -834214 398.316 0 -834134 404.492 0 -834052 410.644 0 -833969 416.77 0 -833885 422.867 0 -833800 428.933 0 -833714 434.964 0 -833626 440.96 0 -833537 446.916 0 -833447 452.831 0 -833356 458.703 0 -833264 464.529 0 -833170 470.306 0 -833075 476.033 0 -832979 481.706 0 -832882 487.324 0 -832784 492.885 0 -832685 498.386 0 -832585 503.825 0 -832483 509.2 0 -832381 514.509 0 -832277 519.75 0 -832173 524.92 0 -832067 530.019 0 -831961 535.043 0 -831853 539.991 0 -831744 544.861 0 -831635 549.651 0 -831524 554.36 0 -831413 558.986 0 -831300 563.527 0 -831187 567.981 0 -831073 572.348 0 -830958 576.625 0 -830842 580.81 0 -830725 584.904 0 -830608 588.903 0 -830489 592.808 0 -830370 596.616 0 -830250 600.326 0 -830130 603.938 0 -830008 607.45 0 -829886 610.861 0 -829764 614.17 0 -829640 617.377 0 -829516 620.479 0 -829392 623.478 0 -829267 626.371 0 -829141 629.159 0 -829015 631.84 0 -828888 634.414 0 -828761 636.88 0 -828633 639.239 0 -828505 641.489 0 -828376 643.63 0 -828247 645.663 0 -828117 647.586 0 -827987 649.4 0 -827857 651.104 0 -827727 652.7 0 -827596 654.185 0 -827465 655.562 0 -827333 656.829 0 -827201 657.987 0 -827070 659.037 0 -826937 659.978 0 -826805 660.812 0 -826673 661.537 0 -826540 662.156 0 -826408 662.669 0 -826275 663.076 0 -826142 663.378 0 -826009 663.575 0 -825876 663.669 0 -825743 663.66 0 -825610 663.55 0 -825478 663.339 0 -825345 663.028 0 -825212 662.619 0 -825079 662.112 0 -824947 661.508 0 -824815 660.81 0 -824682 660.018 0 -824550 659.134 0 -824418 658.159 0 -824287 657.094 0 -824155 655.941 0 -824024 654.702 0 -823893 653.378 0 -823762 651.971 0 -823632 650.482 0 -823502 648.914 0 -823372 647.267 0 -823243 645.545 0 -823114 643.748 0 -822985 641.879 0 -822857 639.94 0 -822729 637.932 0 -822601 635.858 0 -822474 633.72 0 -822348 631.52 0 -822222 629.26 0 -822096 626.942 0 -821971 624.568 0 -821846 622.141 0 -821722 619.663 0 -821598 617.136 0 -821475 614.562 0 -821352 611.944 0 -821230 609.285 0 -821108 606.586 0 -820987 603.85 0 -820866 601.08 0 -820746 598.277 0 -820627 595.445 0 -820508 592.586 0 -820390 589.702 0 -820272 586.796 0 -820155 583.87 0 -820039 580.927 0 -819923 577.969 0 -819807 574.999 0 -834679 451.146 0 -834606 458.985 0 -834532 466.814 0 -834456 474.628 0 -834380 482.426 0 -834302 490.203 0 -834223 497.958 0 -834143 505.685 0 -834061 513.383 0 -833978 521.047 0 -833894 528.676 0 -833809 536.265 0 -833722 543.812 0 -833635 551.313 0 -833546 558.766 0 -833456 566.167 0 -833364 573.514 0 -833272 580.803 0 -833178 588.031 0 -833083 595.196 0 -832987 602.294 0 -832890 609.324 0 -832792 616.281 0 -832693 623.164 0 -832592 629.969 0 -832491 636.694 0 -832388 643.336 0 -832285 649.893 0 -832180 656.362 0 -832074 662.74 0 -831968 669.026 0 -831860 675.217 0 -831751 681.31 0 -831641 687.303 0 -831531 693.194 0 -831419 698.981 0 -831307 704.662 0 -831193 710.235 0 -831079 715.697 0 -830964 721.047 0 -830848 726.284 0 -830731 731.404 0 -830613 736.408 0 -830495 741.292 0 -830375 746.055 0 -830255 750.697 0 -830135 755.215 0 -830013 759.608 0 -829891 763.874 0 -829768 768.013 0 -829645 772.024 0 -829521 775.905 0 -829396 779.655 0 -829271 783.274 0 -829145 786.76 0 -829018 790.113 0 -828891 793.332 0 -828764 796.417 0 -828636 799.366 0 -828508 802.179 0 -828379 804.857 0 -828250 807.398 0 -828120 809.803 0 -827990 812.07 0 -827859 814.201 0 -827729 816.195 0 -827598 818.052 0 -827466 819.772 0 -827335 821.355 0 -827203 822.802 0 -827071 824.113 0 -826939 825.289 0 -826806 826.329 0 -826674 827.235 0 -826541 828.007 0 -826408 828.646 0 -826275 829.152 0 -826142 829.528 0 -826009 829.772 0 -825876 829.887 0 -825743 829.873 0 -825610 829.733 0 -825477 829.466 0 -825344 829.074 0 -825211 828.559 0 -825079 827.921 0 -824946 827.164 0 -824813 826.287 0 -824681 825.293 0 -824549 824.184 0 -824417 822.96 0 -824285 821.625 0 -824154 820.179 0 -824022 818.626 0 -823891 816.966 0 -823760 815.202 0 -823630 813.336 0 -823500 811.37 0 -823370 809.307 0 -823240 807.148 0 -823111 804.897 0 -822982 802.555 0 -822854 800.125 0 -822726 797.61 0 -822598 795.011 0 -822471 792.332 0 -822345 789.576 0 -822218 786.744 0 -822093 783.84 0 -821967 780.866 0 -821842 777.826 0 -821718 774.721 0 -821594 771.556 0 -821471 768.332 0 -821348 765.053 0 -821226 761.722 0 -821104 758.341 0 -820983 754.914 0 -820862 751.444 0 -820742 747.934 0 -820623 744.386 0 -820504 740.805 0 -820386 737.192 0 -820268 733.552 0 -820151 729.888 0 -820034 726.201 0 -819918 722.497 0 -819803 718.777 0 -834689 541.401 0 -834617 550.818 0 -834543 560.224 0 -834467 569.612 0 -834391 578.981 0 -834313 588.325 0 -834234 597.64 0 -834153 606.924 0 -834071 616.172 0 -833989 625.381 0 -833905 634.546 0 -833819 643.663 0 -833733 652.73 0 -833645 661.742 0 -833556 670.696 0 -833466 679.588 0 -833374 688.414 0 -833282 697.171 0 -833188 705.855 0 -833093 714.463 0 -832997 722.991 0 -832900 731.436 0 -832802 739.794 0 -832702 748.063 0 -832602 756.238 0 -832500 764.317 0 -832397 772.296 0 -832294 780.173 0 -832189 787.945 0 -832083 795.607 0 -831976 803.158 0 -831868 810.595 0 -831759 817.914 0 -831650 825.113 0 -831539 832.19 0 -831427 839.142 0 -831314 845.966 0 -831201 852.66 0 -831086 859.221 0 -830971 865.648 0 -830855 871.938 0 -830738 878.089 0 -830620 884.098 0 -830501 889.964 0 -830382 895.686 0 -830262 901.26 0 -830141 906.687 0 -830019 911.963 0 -829897 917.087 0 -829774 922.058 0 -829650 926.874 0 -829526 931.535 0 -829401 936.038 0 -829276 940.384 0 -829150 944.57 0 -829023 948.596 0 -828896 952.461 0 -828768 956.164 0 -828640 959.705 0 -828511 963.083 0 -828382 966.297 0 -828253 969.347 0 -828123 972.233 0 -827993 974.955 0 -827862 977.512 0 -827731 979.904 0 -827600 982.132 0 -827469 984.195 0 -827337 986.094 0 -827205 987.83 0 -827073 989.401 0 -826940 990.81 0 -826808 992.057 0 -826675 993.142 0 -826542 994.066 0 -826409 994.83 0 -826276 995.435 0 -826143 995.881 0 -826010 996.171 0 -825876 996.306 0 -825743 996.285 0 -825610 996.112 0 -825477 995.787 0 -825344 995.313 0 -825211 994.689 0 -825078 993.92 0 -824945 993.005 0 -824812 991.947 0 -824680 990.749 0 -824547 989.411 0 -824415 987.937 0 -824283 986.328 0 -824151 984.587 0 -824020 982.715 0 -823889 980.716 0 -823758 978.592 0 -823627 976.346 0 -823497 973.979 0 -823367 971.495 0 -823237 968.897 0 -823108 966.187 0 -822979 963.368 0 -822851 960.444 0 -822722 957.417 0 -822595 954.289 0 -822468 951.066 0 -822341 947.748 0 -822214 944.341 0 -822088 940.847 0 -821963 937.269 0 -821838 933.61 0 -821714 929.875 0 -821590 926.066 0 -821466 922.188 0 -821344 918.243 0 -821221 914.235 0 -821099 910.168 0 -820978 906.045 0 -820858 901.871 0 -820738 897.648 0 -820618 893.38 0 -820499 889.072 0 -820381 884.726 0 -820263 880.347 0 -820146 875.939 0 -820029 871.504 0 -819913 867.048 0 -819798 862.573 0 -834702 631.669 0 -834629 642.671 0 -834555 653.659 0 -834480 664.628 0 -834403 675.573 0 -834325 686.49 0 -834246 697.373 0 -834166 708.219 0 -834084 719.024 0 -834001 729.782 0 -833917 740.489 0 -833832 751.141 0 -833745 761.734 0 -833657 772.263 0 -833568 782.723 0 -833478 793.111 0 -833386 803.423 0 -833294 813.653 0 -833200 823.798 0 -833105 833.854 0 -833009 843.817 0 -832911 853.683 0 -832813 863.448 0 -832713 873.107 0 -832613 882.658 0 -832511 892.096 0 -832408 901.417 0 -832304 910.619 0 -832199 919.697 0 -832093 928.648 0 -831986 937.469 0 -831878 946.156 0 -831769 954.706 0 -831659 963.116 0 -831548 971.382 0 -831436 979.503 0 -831324 987.474 0 -831210 995.292 0 -831095 1002.96 0 -830980 1010.46 0 -830863 1017.81 0 -830746 1024.99 0 -830628 1032.01 0 -830509 1038.86 0 -830390 1045.55 0 -830269 1052.06 0 -830148 1058.39 0 -830026 1064.55 0 -829904 1070.54 0 -829781 1076.34 0 -829657 1081.97 0 -829532 1087.41 0 -829407 1092.67 0 -829281 1097.74 0 -829155 1102.63 0 -829028 1107.33 0 -828901 1111.84 0 -828773 1116.17 0 -828645 1120.3 0 -828516 1124.24 0 -828387 1127.99 0 -828257 1131.55 0 -828127 1134.92 0 -827996 1138.1 0 -827866 1141.08 0 -827735 1143.87 0 -827603 1146.47 0 -827471 1148.88 0 -827339 1151.09 0 -827207 1153.11 0 -827075 1154.94 0 -826942 1156.59 0 -826809 1158.04 0 -826676 1159.3 0 -826543 1160.37 0 -826410 1161.26 0 -826277 1161.96 0 -826143 1162.48 0 -826010 1162.81 0 -825876 1162.97 0 -825743 1162.94 0 -825610 1162.73 0 -825476 1162.34 0 -825343 1161.78 0 -825210 1161.05 0 -825077 1160.14 0 -824944 1159.07 0 -824811 1157.83 0 -824678 1156.42 0 -824545 1154.85 0 -824413 1153.12 0 -824281 1151.24 0 -824149 1149.2 0 -824017 1147 0 -823886 1144.66 0 -823755 1142.17 0 -823624 1139.54 0 -823494 1136.77 0 -823363 1133.86 0 -823234 1130.82 0 -823104 1127.65 0 -822975 1124.35 0 -822847 1120.92 0 -822718 1117.38 0 -822590 1113.72 0 -822463 1109.95 0 -822336 1106.06 0 -822210 1102.07 0 -822084 1097.98 0 -821958 1093.8 0 -821833 1089.52 0 -821709 1085.14 0 -821585 1080.69 0 -821461 1076.15 0 -821338 1071.53 0 -821216 1066.84 0 -821094 1062.08 0 -820973 1057.26 0 -820852 1052.37 0 -820732 1047.43 0 -820612 1042.44 0 -820493 1037.4 0 -820375 1032.31 0 -820257 1027.19 0 -820140 1022.03 0 -820023 1016.84 0 -819907 1011.63 0 -819792 1006.39 0 -834717 721.953 0 -834644 734.547 0 -834570 747.125 0 -834495 759.681 0 -834418 772.21 0 -834340 784.706 0 -834261 797.164 0 -834180 809.58 0 -834098 821.948 0 -834015 834.263 0 -833931 846.519 0 -833846 858.713 0 -833759 870.838 0 -833671 882.89 0 -833582 894.864 0 -833492 906.755 0 -833400 918.558 0 -833307 930.268 0 -833213 941.881 0 -833118 953.392 0 -833022 964.796 0 -832925 976.088 0 -832826 987.265 0 -832726 998.322 0 -832625 1009.25 0 -832524 1020.06 0 -832421 1030.73 0 -832317 1041.26 0 -832211 1051.65 0 -832105 1061.89 0 -831998 1071.99 0 -831890 1081.93 0 -831781 1091.72 0 -831670 1101.34 0 -831559 1110.8 0 -831447 1120.1 0 -831334 1129.22 0 -831220 1138.17 0 -831105 1146.94 0 -830990 1155.53 0 -830873 1163.93 0 -830756 1172.16 0 -830637 1180.19 0 -830518 1188.03 0 -830398 1195.67 0 -830278 1203.12 0 -830157 1210.37 0 -830034 1217.42 0 -829912 1224.27 0 -829788 1230.91 0 -829664 1237.35 0 -829539 1243.57 0 -829414 1249.59 0 -829288 1255.39 0 -829162 1260.98 0 -829034 1266.36 0 -828907 1271.52 0 -828779 1276.46 0 -828650 1281.19 0 -828521 1285.7 0 -828392 1289.99 0 -828262 1294.06 0 -828131 1297.91 0 -828001 1301.54 0 -827870 1304.95 0 -827738 1308.14 0 -827606 1311.11 0 -827474 1313.86 0 -827342 1316.38 0 -827210 1318.69 0 -827077 1320.79 0 -826944 1322.66 0 -826811 1324.31 0 -826678 1325.75 0 -826544 1326.98 0 -826411 1327.99 0 -826277 1328.78 0 -826144 1329.37 0 -826010 1329.74 0 -825877 1329.91 0 -825743 1329.87 0 -825609 1329.62 0 -825476 1329.17 0 -825342 1328.52 0 -825209 1327.68 0 -825075 1326.63 0 -824942 1325.4 0 -824809 1323.97 0 -824676 1322.35 0 -824543 1320.54 0 -824411 1318.56 0 -824278 1316.39 0 -824146 1314.05 0 -824014 1311.53 0 -823883 1308.84 0 -823751 1305.98 0 -823620 1302.96 0 -823490 1299.78 0 -823359 1296.44 0 -823230 1292.95 0 -823100 1289.31 0 -822971 1285.52 0 -822842 1281.59 0 -822713 1277.52 0 -822585 1273.32 0 -822458 1269 0 -822331 1264.54 0 -822204 1259.97 0 -822078 1255.27 0 -821952 1250.47 0 -821827 1245.56 0 -821703 1240.55 0 -821579 1235.43 0 -821455 1230.23 0 -821332 1224.93 0 -821209 1219.56 0 -821087 1214.1 0 -820966 1208.57 0 -820845 1202.96 0 -820725 1197.3 0 -820605 1191.57 0 -820486 1185.79 0 -820368 1179.96 0 -820250 1174.08 0 -820133 1168.17 0 -820016 1162.22 0 -819900 1156.24 0 -819785 1150.24 0 -834734 812.255 0 -834661 826.45 0 -834587 840.626 0 -834511 854.777 0 -834435 868.897 0 -834357 882.981 0 -834277 897.022 0 -834197 911.016 0 -834115 924.955 0 -834032 938.834 0 -833947 952.648 0 -833862 966.39 0 -833775 980.056 0 -833687 993.639 0 -833598 1007.13 0 -833507 1020.54 0 -833416 1033.84 0 -833323 1047.04 0 -833229 1060.12 0 -833133 1073.1 0 -833037 1085.95 0 -832939 1098.67 0 -832841 1111.27 0 -832741 1123.73 0 -832640 1136.05 0 -832538 1148.22 0 -832435 1160.25 0 -832330 1172.12 0 -832225 1183.83 0 -832119 1195.37 0 -832011 1206.75 0 -831903 1217.95 0 -831794 1228.98 0 -831683 1239.82 0 -831572 1250.49 0 -831459 1260.96 0 -831346 1271.24 0 -831232 1281.32 0 -831117 1291.2 0 -831001 1300.88 0 -830884 1310.35 0 -830766 1319.61 0 -830648 1328.66 0 -830529 1337.5 0 -830408 1346.11 0 -830288 1354.5 0 -830166 1362.67 0 -830044 1370.61 0 -829921 1378.32 0 -829797 1385.8 0 -829673 1393.05 0 -829548 1400.06 0 -829422 1406.84 0 -829296 1413.37 0 -829169 1419.67 0 -829041 1425.72 0 -828914 1431.53 0 -828785 1437.1 0 -828656 1442.42 0 -828527 1447.5 0 -828397 1452.33 0 -828267 1456.91 0 -828136 1461.24 0 -828005 1465.33 0 -827874 1469.16 0 -827742 1472.75 0 -827610 1476.09 0 -827478 1479.18 0 -827345 1482.02 0 -827213 1484.62 0 -827080 1486.97 0 -826946 1489.07 0 -826813 1490.93 0 -826680 1492.54 0 -826546 1493.91 0 -826412 1495.04 0 -826278 1495.93 0 -826145 1496.58 0 -826011 1496.99 0 -825877 1497.17 0 -825743 1497.12 0 -825609 1496.83 0 -825475 1496.32 0 -825341 1495.58 0 -825207 1494.61 0 -825074 1493.43 0 -824940 1492.02 0 -824807 1490.4 0 -824674 1488.57 0 -824541 1486.52 0 -824408 1484.27 0 -824275 1481.82 0 -824143 1479.17 0 -824011 1476.32 0 -823879 1473.27 0 -823748 1470.04 0 -823616 1466.63 0 -823485 1463.03 0 -823355 1459.26 0 -823225 1455.31 0 -823095 1451.19 0 -822966 1446.91 0 -822837 1442.47 0 -822708 1437.88 0 -822580 1433.13 0 -822452 1428.24 0 -822325 1423.21 0 -822198 1418.04 0 -822072 1412.74 0 -821946 1407.31 0 -821821 1401.77 0 -821696 1396.1 0 -821572 1390.33 0 -821448 1384.45 0 -821325 1378.47 0 -821202 1372.39 0 -821080 1366.23 0 -820959 1359.98 0 -820838 1353.65 0 -820718 1347.26 0 -820598 1340.79 0 -820479 1334.26 0 -820360 1327.68 0 -820242 1321.04 0 -820125 1314.36 0 -820008 1307.64 0 -819892 1300.89 0 -819777 1294.11 0 -834753 902.577 0 -834680 918.382 0 -834605 934.165 0 -834530 949.921 0 -834453 965.642 0 -834375 981.322 0 -834296 996.956 0 -834215 1012.54 0 -834133 1028.05 0 -834050 1043.51 0 -833966 1058.89 0 -833880 1074.19 0 -833793 1089.4 0 -833705 1104.53 0 -833616 1119.55 0 -833525 1134.47 0 -833433 1149.28 0 -833340 1163.97 0 -833246 1178.55 0 -833151 1192.99 0 -833054 1207.3 0 -832956 1221.47 0 -832857 1235.49 0 -832757 1249.36 0 -832656 1263.08 0 -832554 1276.63 0 -832450 1290.01 0 -832346 1303.23 0 -832240 1316.26 0 -832134 1329.11 0 -832026 1341.78 0 -831918 1354.25 0 -831808 1366.52 0 -831697 1378.6 0 -831586 1390.46 0 -831473 1402.12 0 -831360 1413.56 0 -831245 1424.78 0 -831130 1435.78 0 -831014 1446.55 0 -830896 1457.1 0 -830778 1467.4 0 -830660 1477.48 0 -830540 1487.3 0 -830420 1496.89 0 -830299 1506.23 0 -830177 1515.32 0 -830054 1524.16 0 -829931 1532.74 0 -829807 1541.06 0 -829682 1549.12 0 -829557 1556.92 0 -829431 1564.46 0 -829304 1571.73 0 -829177 1578.74 0 -829049 1585.47 0 -828921 1591.93 0 -828792 1598.12 0 -828663 1604.04 0 -828533 1609.68 0 -828403 1615.05 0 -828273 1620.14 0 -828142 1624.96 0 -828010 1629.5 0 -827879 1633.76 0 -827747 1637.75 0 -827614 1641.46 0 -827482 1644.89 0 -827349 1648.05 0 -827216 1650.93 0 -827083 1653.53 0 -826949 1655.86 0 -826815 1657.92 0 -826682 1659.71 0 -826548 1661.23 0 -826414 1662.47 0 -826279 1663.45 0 -826145 1664.16 0 -826011 1664.61 0 -825877 1664.8 0 -825742 1664.73 0 -825608 1664.4 0 -825474 1663.82 0 -825340 1662.98 0 -825206 1661.89 0 -825072 1660.56 0 -824938 1658.98 0 -824805 1657.17 0 -824671 1655.11 0 -824538 1652.82 0 -824405 1650.3 0 -824272 1647.56 0 -824139 1644.59 0 -824007 1641.41 0 -823875 1638.01 0 -823743 1634.39 0 -823612 1630.58 0 -823481 1626.56 0 -823350 1622.34 0 -823219 1617.93 0 -823089 1613.34 0 -822960 1608.56 0 -822831 1603.6 0 -822702 1598.47 0 -822573 1593.17 0 -822446 1587.71 0 -822318 1582.09 0 -822191 1576.32 0 -822065 1570.4 0 -821939 1564.35 0 -821813 1558.15 0 -821688 1551.83 0 -821564 1545.39 0 -821440 1538.83 0 -821317 1532.15 0 -821194 1525.37 0 -821072 1518.49 0 -820950 1511.52 0 -820829 1504.46 0 -820709 1497.32 0 -820589 1490.1 0 -820470 1482.82 0 -820351 1475.47 0 -820233 1468.07 0 -820116 1460.62 0 -819999 1453.12 0 -819883 1445.59 0 -819768 1438.02 0 -834773 992.923 0 -834700 1010.35 0 -834626 1027.75 0 -834551 1045.12 0 -834474 1062.45 0 -834396 1079.74 0 -834316 1096.97 0 -834236 1114.15 0 -834154 1131.26 0 -834070 1148.3 0 -833986 1165.25 0 -833900 1182.12 0 -833813 1198.89 0 -833725 1215.57 0 -833635 1232.13 0 -833545 1248.58 0 -833453 1264.91 0 -833359 1281.1 0 -833265 1297.17 0 -833169 1313.09 0 -833073 1328.86 0 -832975 1344.48 0 -832876 1359.94 0 -832775 1375.23 0 -832674 1390.35 0 -832572 1405.29 0 -832468 1420.05 0 -832363 1434.61 0 -832257 1448.98 0 -832151 1463.15 0 -832043 1477.11 0 -831934 1490.85 0 -831824 1504.38 0 -831713 1517.69 0 -831601 1530.77 0 -831488 1543.62 0 -831374 1556.23 0 -831260 1568.59 0 -831144 1580.72 0 -831028 1592.59 0 -830910 1604.21 0 -830792 1615.57 0 -830673 1626.66 0 -830553 1637.5 0 -830432 1648.06 0 -830311 1658.35 0 -830188 1668.36 0 -830065 1678.1 0 -829942 1687.55 0 -829817 1696.72 0 -829692 1705.61 0 -829567 1714.2 0 -829440 1722.5 0 -829313 1730.51 0 -829186 1738.22 0 -829058 1745.64 0 -828929 1752.75 0 -828800 1759.57 0 -828671 1766.09 0 -828541 1772.3 0 -828410 1778.21 0 -828279 1783.81 0 -828148 1789.11 0 -828016 1794.11 0 -827884 1798.8 0 -827752 1803.18 0 -827619 1807.26 0 -827486 1811.03 0 -827353 1814.5 0 -827220 1817.67 0 -827086 1820.53 0 -826952 1823.09 0 -826818 1825.34 0 -826684 1827.3 0 -826549 1828.96 0 -826415 1830.32 0 -826281 1831.39 0 -826146 1832.16 0 -826011 1832.64 0 -825877 1832.84 0 -825742 1832.74 0 -825608 1832.37 0 -825473 1831.71 0 -825339 1830.77 0 -825204 1829.56 0 -825070 1828.07 0 -824936 1826.32 0 -824802 1824.3 0 -824668 1822.02 0 -824535 1819.48 0 -824401 1816.69 0 -824268 1813.65 0 -824135 1810.36 0 -824003 1806.83 0 -823870 1803.07 0 -823738 1799.07 0 -823607 1794.84 0 -823475 1790.39 0 -823344 1785.73 0 -823214 1780.85 0 -823083 1775.76 0 -822953 1770.48 0 -822824 1764.99 0 -822695 1759.32 0 -822566 1753.46 0 -822438 1747.42 0 -822311 1741.21 0 -822183 1734.83 0 -822057 1728.28 0 -821931 1721.59 0 -821805 1714.74 0 -821680 1707.75 0 -821555 1700.63 0 -821431 1693.38 0 -821308 1686 0 -821185 1678.5 0 -821063 1670.9 0 -820941 1663.19 0 -820820 1655.39 0 -820700 1647.5 0 -820580 1639.52 0 -820460 1631.47 0 -820342 1623.35 0 -820224 1615.17 0 -820106 1606.94 0 -819990 1598.65 0 -819873 1590.33 0 -819758 1581.97 0 -834796 1083.29 0 -834723 1102.35 0 -834649 1121.38 0 -834573 1140.37 0 -834496 1159.33 0 -834418 1178.23 0 -834339 1197.08 0 -834258 1215.87 0 -834176 1234.58 0 -834093 1253.21 0 -834008 1271.75 0 -833922 1290.2 0 -833835 1308.54 0 -833747 1326.77 0 -833657 1344.89 0 -833566 1362.88 0 -833474 1380.73 0 -833380 1398.45 0 -833286 1416.01 0 -833190 1433.42 0 -833093 1450.67 0 -832995 1467.75 0 -832896 1484.66 0 -832795 1501.38 0 -832694 1517.91 0 -832591 1534.25 0 -832487 1550.38 0 -832382 1566.31 0 -832276 1582.02 0 -832169 1597.51 0 -832061 1612.77 0 -831952 1627.8 0 -831842 1642.59 0 -831730 1657.14 0 -831618 1671.44 0 -831505 1685.49 0 -831391 1699.27 0 -831276 1712.79 0 -831160 1726.04 0 -831043 1739.02 0 -830925 1751.72 0 -830807 1764.14 0 -830687 1776.27 0 -830567 1788.11 0 -830446 1799.65 0 -830324 1810.9 0 -830201 1821.84 0 -830078 1832.48 0 -829954 1842.81 0 -829829 1852.83 0 -829704 1862.54 0 -829578 1871.93 0 -829451 1881 0 -829324 1889.75 0 -829196 1898.17 0 -829067 1906.27 0 -828939 1914.05 0 -828809 1921.49 0 -828679 1928.6 0 -828549 1935.39 0 -828418 1941.84 0 -828286 1947.96 0 -828155 1953.74 0 -828023 1959.19 0 -827890 1964.31 0 -827757 1969.09 0 -827624 1973.54 0 -827491 1977.65 0 -827357 1981.43 0 -827223 1984.88 0 -827089 1987.99 0 -826955 1990.78 0 -826821 1993.23 0 -826686 1995.36 0 -826551 1997.16 0 -826417 1998.63 0 -826282 1999.78 0 -826147 2000.61 0 -826012 2001.12 0 -825877 2001.32 0 -825742 2001.2 0 -825607 2000.77 0 -825472 2000.03 0 -825337 1998.99 0 -825203 1997.65 0 -825068 1996.01 0 -824933 1994.07 0 -824799 1991.85 0 -824665 1989.33 0 -824531 1986.54 0 -824397 1983.47 0 -824264 1980.12 0 -824131 1976.51 0 -823998 1972.63 0 -823865 1968.49 0 -823733 1964.1 0 -823601 1959.46 0 -823469 1954.57 0 -823338 1949.45 0 -823207 1944.09 0 -823076 1938.51 0 -822946 1932.7 0 -822817 1926.69 0 -822687 1920.46 0 -822559 1914.03 0 -822430 1907.4 0 -822302 1900.59 0 -822175 1893.59 0 -822048 1886.41 0 -821922 1879.06 0 -821796 1871.55 0 -821671 1863.89 0 -821546 1856.08 0 -821422 1848.12 0 -821298 1840.03 0 -821175 1831.81 0 -821053 1823.47 0 -820931 1815.02 0 -820810 1806.46 0 -820689 1797.81 0 -820569 1789.06 0 -820450 1780.24 0 -820331 1771.33 0 -820213 1762.36 0 -820095 1753.33 0 -819979 1744.25 0 -819862 1735.12 0 -819747 1725.96 0 -834821 1173.69 0 -834748 1194.39 0 -834674 1215.06 0 -834598 1235.69 0 -834521 1256.28 0 -834443 1276.82 0 -834363 1297.29 0 -834282 1317.7 0 -834200 1338.02 0 -834117 1358.26 0 -834032 1378.4 0 -833946 1398.44 0 -833859 1418.36 0 -833770 1438.17 0 -833680 1457.85 0 -833589 1477.38 0 -833497 1496.78 0 -833403 1516.02 0 -833309 1535.1 0 -833213 1554.01 0 -833116 1572.75 0 -833017 1591.3 0 -832918 1609.66 0 -832817 1627.82 0 -832715 1645.77 0 -832612 1663.52 0 -832508 1681.04 0 -832403 1698.34 0 -832297 1715.4 0 -832189 1732.22 0 -832081 1748.8 0 -831971 1765.12 0 -831861 1781.18 0 -831749 1796.98 0 -831637 1812.51 0 -831523 1827.76 0 -831409 1842.73 0 -831293 1857.41 0 -831177 1871.8 0 -831060 1885.89 0 -830942 1899.68 0 -830823 1913.16 0 -830703 19