<?xml version="1.0"?> 
<VTKFile type="StructuredGrid" version="0.1"> 
<StructuredGrid WholeExtent="0 127 0 127 0 0"> 
<Piece Extent="0 127 0 127 0 0"> 
<PointData>
<DataArray type="Float32" Name="E" format="ascii" NumberOfComponents="3"> 
-1.67419e+06 2.30412e+06 0 -1.6762e+06 2.32359e+06 0 -1.67792e+06 2.34344e+06 0 -1.67935e+06 2.36368e+06 0 -1.68047e+06 2.3843e+06 0 -1.68127e+06 2.40528e+06 0 -1.68171e+06 2.42662e+06 0 -1.68179e+06 2.44831e+06 0 -1.68148e+06 2.47034e+06 0 -1.68076e+06 2.4927e+06 0 -1.67963e+06 2.51537e+06 0 -1.67805e+06 2.53834e+06 0 -1.67602e+06 2.56159e+06 0 -1.67351e+06 2.5851e+06 0 -1.67051e+06 2.60886e+06 0 -1.66701e+06 2.63284e+06 0 -1.66299e+06 2.65704e+06 0 -1.65845e+06 2.68141e+06 0 -1.65336e+06 2.70595e+06 0 -1.64772e+06 2.73062e+06 0 -1.64153e+06 2.75541e+06 0 -1.63477e+06 2.78029e+06 0 -1.62743e+06 2.80524e+06 0 -1.61952e+06 2.83022e+06 0 -1.61104e+06 2.85521e+06 0 -1.60197e+06 2.88019e+06 0 -1.59232e+06 2.90513e+06 0 -1.5821e+06 2.93e+06 0 -1.57131e+06 2.95478e+06 0 -1.55995e+06 2.97944e+06 0 -1.54803e+06 3.00395e+06 0 -1.53556e+06 3.02829e+06 0 -1.52255e+06 3.05244e+06 0 -1.50901e+06 3.07637e+06 0 -1.49496e+06 3.10006e+06 0 -1.48041e+06 3.12348e+06 0 -1.46537e+06 3.14662e+06 0 -1.44986e+06 3.16946e+06 0 -1.4339e+06 3.19197e+06 0 -1.41752e+06 3.21414e+06 0 -1.40072e+06 3.23595e+06 0 -1.38353e+06 3.2574e+06 0 -1.36597e+06 3.27845e+06 0 -1.34806e+06 3.29912e+06 0 -1.32983e+06 3.31937e+06 0 -1.31129e+06 3.33921e+06 0 -1.29248e+06 3.35863e+06 0 -1.2734e+06 3.37762e+06 0 -1.25409e+06 3.39617e+06 0 -1.23456e+06 3.41428e+06 0 -1.21485e+06 3.43196e+06 0 -1.19496e+06 3.44919e+06 0 -1.17493e+06 3.46599e+06 0 -1.15477e+06 3.48234e+06 0 -1.13451e+06 3.49826e+06 0 -1.11416e+06 3.51375e+06 0 -1.09375e+06 3.5288e+06 0 -1.07328e+06 3.54344e+06 0 -1.05279e+06 3.55766e+06 0 -1.03229e+06 3.57147e+06 0 -1.01179e+06 3.58487e+06 0 -991315 3.59788e+06 0 -970874 3.61051e+06 0 -950484 3.62276e+06 0 -930157 3.63465e+06 0 -909908 3.64618e+06 0 -889747 3.65737e+06 0 -869686 3.66822e+06 0 -849736 3.67874e+06 0 -829906 3.68896e+06 0 -810206 3.69887e+06 0 -790644 3.70849e+06 0 -771227 3.71783e+06 0 -751963 3.7269e+06 0 -732859 3.73572e+06 0 -713920 3.74428e+06 0 -695152 3.75262e+06 0 -676560 3.76072e+06 0 -658148 3.76861e+06 0 -639920 3.7763e+06 0 -621879 3.7838e+06 0 -604030 3.79111e+06 0 -586373 3.79824e+06 0 -568913 3.80521e+06 0 -551650 3.81203e+06 0 -534587 3.8187e+06 0 -517726 3.82524e+06 0 -501066 3.83164e+06 0 -484610 3.83793e+06 0 -468357 3.8441e+06 0 -452310 3.85017e+06 0 -436467 3.85615e+06 0 -420829 3.86204e+06 0 -405397 3.86784e+06 0 -390170 3.87358e+06 0 -375147 3.87924e+06 0 -360330 3.88485e+06 0 -345717 3.8904e+06 0 -331308 3.89591e+06 0 -317103 3.90137e+06 0 -303101 3.9068e+06 0 -289301 3.9122e+06 0 -275703 3.91757e+06 0 -262307 3.92292e+06 0 -249111 3.92826e+06 0 -236115 3.9336e+06 0 -223319 3.93892e+06 0 -210722 3.94425e+06 0 -198324 3.94958e+06 0 -186123 3.95492e+06 0 -174119 3.96028e+06 0 -162312 3.96565e+06 0 -150702 3.97104e+06 0 -139288 3.97646e+06 0 -128069 3.9819e+06 0 -117046 3.98738e+06 0 -106218 3.9929e+06 0 -95584.5 3.99845e+06 0 -85146 4.00404e+06 0 -74902.2 4.00968e+06 0 -64853.1 4.01537e+06 0 -54998.8 4.02111e+06 0 -45339.4 4.0269e+06 0 -35875.1 4.03274e+06 0 -26606.2 4.03865e+06 0 -17533 4.04462e+06 0 -8656.2 4.05065e+06 0 25.5249 4.05674e+06 0 -1.68313e+06 2.3062e+06 0 -1.68518e+06 2.32571e+06 0 -1.68696e+06 2.3456e+06 0 -1.68845e+06 2.36588e+06 0 -1.68963e+06 2.38654e+06 0 -1.69047e+06 2.40757e+06 0 -1.69097e+06 2.42896e+06 0 -1.69109e+06 2.45071e+06 0 -1.69083e+06 2.47279e+06 0 -1.69016e+06 2.4952e+06 0 -1.68907e+06 2.51792e+06 0 -1.68753e+06 2.54095e+06 0 -1.68553e+06 2.56425e+06 0 -1.68306e+06 2.58783e+06 0 -1.68009e+06 2.61164e+06 0 -1.67662e+06 2.63569e+06 0 -1.67263e+06 2.65994e+06 0 -1.6681e+06 2.68438e+06 0 -1.66304e+06 2.70898e+06 0 -1.65742e+06 2.73372e+06 0 -1.65124e+06 2.75858e+06 0 -1.64449e+06 2.78352e+06 0 -1.63716e+06 2.80853e+06 0 -1.62926e+06 2.83358e+06 0 -1.62078e+06 2.85864e+06 0 -1.61171e+06 2.88368e+06 0 -1.60206e+06 2.90869e+06 0 -1.59184e+06 2.93362e+06 0 -1.58104e+06 2.95846e+06 0 -1.56967e+06 2.98319e+06 0 -1.55774e+06 3.00776e+06 0 -1.54526e+06 3.03217e+06 0 -1.53223e+06 3.05637e+06 0 -1.51867e+06 3.08036e+06 0 -1.5046e+06 3.10411e+06 0 -1.49002e+06 3.12759e+06 0 -1.47496e+06 3.15078e+06 0 -1.45942e+06 3.17367e+06 0 -1.44344e+06 3.19623e+06 0 -1.42702e+06 3.21845e+06 0 -1.41019e+06 3.24031e+06 0 -1.39297e+06 3.2618e+06 0 -1.37537e+06 3.28291e+06 0 -1.35743e+06 3.30361e+06 0 -1.33916e+06 3.3239e+06 0 -1.32059e+06 3.34378e+06 0 -1.30173e+06 3.36323e+06 0 -1.28262e+06 3.38225e+06 0 -1.26327e+06 3.40084e+06 0 -1.2437e+06 3.41898e+06 0 -1.22394e+06 3.43668e+06 0 -1.20402e+06 3.45394e+06 0 -1.18395e+06 3.47075e+06 0 -1.16375e+06 3.48712e+06 0 -1.14344e+06 3.50306e+06 0 -1.12305e+06 3.51856e+06 0 -1.1026e+06 3.53363e+06 0 -1.0821e+06 3.54827e+06 0 -1.06157e+06 3.56249e+06 0 -1.04102e+06 3.5763e+06 0 -1.02049e+06 3.58971e+06 0 -999975 3.60272e+06 0 -979498 3.61535e+06 0 -959072 3.6276e+06 0 -938711 3.63948e+06 0 -918428 3.651e+06 0 -898235 3.66217e+06 0 -878144 3.67301e+06 0 -858164 3.68352e+06 0 -838305 3.69371e+06 0 -818578 3.7036e+06 0 -798989 3.7132e+06 0 -779548 3.72252e+06 0 -760261 3.73157e+06 0 -741135 3.74035e+06 0 -722176 3.74889e+06 0 -703388 3.75719e+06 0 -684778 3.76526e+06 0 -666350 3.77312e+06 0 -648107 3.78077e+06 0 -630053 3.78823e+06 0 -612191 3.7955e+06 0 -594524 3.80259e+06 0 -577055 3.80952e+06 0 -559784 3.81629e+06 0 -542715 3.82291e+06 0 -525848 3.8294e+06 0 -509185 3.83575e+06 0 -492726 3.84199e+06 0 -476472 3.84811e+06 0 -460425 3.85412e+06 0 -444583 3.86004e+06 0 -428948 3.86586e+06 0 -413519 3.87161e+06 0 -398297 3.87728e+06 0 -383281 3.88288e+06 0 -368470 3.88841e+06 0 -353865 3.89389e+06 0 -339465 3.89933e+06 0 -325270 3.90472e+06 0 -311279 3.91007e+06 0 -297490 3.91538e+06 0 -283905 3.92068e+06 0 -270522 3.92595e+06 0 -257340 3.9312e+06 0 -244359 3.93644e+06 0 -231578 3.94168e+06 0 -218997 3.94691e+06 0 -206615 3.95214e+06 0 -194430 3.95738e+06 0 -182444 3.96263e+06 0 -170654 3.9679e+06 0 -159061 3.97318e+06 0 -147664 3.97849e+06 0 -136463 3.98382e+06 0 -125457 3.98918e+06 0 -114646 3.99457e+06 0 -104030 3.99999e+06 0 -93608.3 4.00546e+06 0 -83380.7 4.01096e+06 0 -73347.4 4.01651e+06 0 -63508.3 4.02211e+06 0 -53863.2 4.02776e+06 0 -44412.5 4.03345e+06 0 -35156.1 4.03921e+06 0 -26094.4 4.04501e+06 0 -17227.7 4.05088e+06 0 -8556.06 4.05681e+06 0 -1.69215e+06 2.30825e+06 0 -1.69427e+06 2.3278e+06 0 -1.69611e+06 2.34774e+06 0 -1.69765e+06 2.36806e+06 0 -1.69888e+06 2.38876e+06 0 -1.69978e+06 2.40984e+06 0 -1.70033e+06 2.43128e+06 0 -1.7005e+06 2.45308e+06 0 -1.70029e+06 2.47521e+06 0 -1.69966e+06 2.49768e+06 0 -1.69861e+06 2.52046e+06 0 -1.69711e+06 2.54354e+06 0 -1.69515e+06 2.56691e+06 0 -1.69271e+06 2.59054e+06 0 -1.68977e+06 2.61442e+06 0 -1.68633e+06 2.63853e+06 0 -1.68236e+06 2.66285e+06 0 -1.67786e+06 2.68735e+06 0 -1.67282e+06 2.71202e+06 0 -1.66722e+06 2.73682e+06 0 -1.66105e+06 2.76174e+06 0 -1.65431e+06 2.78676e+06 0 -1.647e+06 2.81183e+06 0 -1.6391e+06 2.83695e+06 0 -1.63062e+06 2.86207e+06 0 -1.62155e+06 2.88718e+06 0 -1.61191e+06 2.91225e+06 0 -1.60168e+06 2.93726e+06 0 -1.59087e+06 2.96216e+06 0 -1.57949e+06 2.98695e+06 0 -1.56755e+06 3.01159e+06 0 -1.55505e+06 3.03606e+06 0 -1.54201e+06 3.06033e+06 0 -1.52843e+06 3.08438e+06 0 -1.51434e+06 3.10818e+06 0 -1.49974e+06 3.13172e+06 0 -1.48465e+06 3.15497e+06 0 -1.46909e+06 3.17791e+06 0 -1.45307e+06 3.20053e+06 0 -1.43662e+06 3.2228e+06 0 -1.41976e+06 3.24471e+06 0 -1.4025e+06 3.26624e+06 0 -1.38487e+06 3.28739e+06 0 -1.36689e+06 3.30814e+06 0 -1.34859e+06 3.32847e+06 0 -1.32997e+06 3.34839e+06 0 -1.31108e+06 3.36788e+06 0 -1.29192e+06 3.38693e+06 0 -1.27253e+06 3.40554e+06 0 -1.25292e+06 3.42372e+06 0 -1.23313e+06 3.44144e+06 0 -1.21316e+06 3.45872e+06 0 -1.19304e+06 3.47556e+06 0 -1.1728e+06 3.49195e+06 0 -1.15246e+06 3.5079e+06 0 -1.13203e+06 3.52341e+06 0 -1.11153e+06 3.53849e+06 0 -1.09099e+06 3.55315e+06 0 -1.07042e+06 3.56738e+06 0 -1.04983e+06 3.58119e+06 0 -1.02926e+06 3.59461e+06 0 -1.00871e+06 3.60762e+06 0 -988193 3.62024e+06 0 -967731 3.63248e+06 0 -947334 3.64435e+06 0 -927017 3.65587e+06 0 -906791 3.66703e+06 0 -886667 3.67785e+06 0 -866656 3.68835e+06 0 -846767 3.69853e+06 0 -827011 3.7084e+06 0 -807396 3.71797e+06 0 -787929 3.72727e+06 0 -768617 3.73629e+06 0 -749468 3.74505e+06 0 -730487 3.75356e+06 0 -711680 3.76183e+06 0 -693051 3.76987e+06 0 -674605 3.77769e+06 0 -656346 3.7853e+06 0 -638278 3.79272e+06 0 -620403 3.79995e+06 0 -602724 3.807e+06 0 -585244 3.81389e+06 0 -567965 3.82061e+06 0 -550888 3.82719e+06 0 -534014 3.83362e+06 0 -517346 3.83993e+06 0 -500884 3.84611e+06 0 -484628 3.85217e+06 0 -468579 3.85813e+06 0 -452738 3.86399e+06 0 -437104 3.86976e+06 0 -421678 3.87544e+06 0 -406460 3.88104e+06 0 -391448 3.88658e+06 0 -376644 3.89205e+06 0 -362046 3.89746e+06 0 -347654 3.90282e+06 0 -333467 3.90813e+06 0 -319485 3.91341e+06 0 -305708 3.91865e+06 0 -292134 3.92386e+06 0 -278763 3.92905e+06 0 -265594 3.93421e+06 0 -252627 3.93937e+06 0 -239860 3.94451e+06 0 -227293 3.94965e+06 0 -214926 3.95479e+06 0 -202757 3.95993e+06 0 -190786 3.96508e+06 0 -179013 3.97024e+06 0 -167436 3.97542e+06 0 -156055 3.98061e+06 0 -144871 3.98583e+06 0 -133881 3.99107e+06 0 -123086 3.99634e+06 0 -112486 4.00164e+06 0 -102080 4.00698e+06 0 -91867.7 4.01236e+06 0 -81849.1 4.01777e+06 0 -72024.1 4.02323e+06 0 -62392.5 4.02873e+06 0 -52954.4 4.03429e+06 0 -43709.7 4.03989e+06 0 -34658.6 4.04554e+06 0 -25801.2 4.05125e+06 0 -17137.6 4.05702e+06 0 -1.70127e+06 2.31027e+06 0 -1.70345e+06 2.32986e+06 0 -1.70535e+06 2.34984e+06 0 -1.70696e+06 2.37021e+06 0 -1.70824e+06 2.39096e+06 0 -1.7092e+06 2.41209e+06 0 -1.7098e+06 2.43358e+06 0 -1.71002e+06 2.45543e+06 0 -1.70985e+06 2.47762e+06 0 -1.70927e+06 2.50014e+06 0 -1.70826e+06 2.52298e+06 0 -1.7068e+06 2.54612e+06 0 -1.70487e+06 2.56955e+06 0 -1.70247e+06 2.59324e+06 0 -1.69956e+06 2.61719e+06 0 -1.69615e+06 2.64136e+06 0 -1.69221e+06 2.66574e+06 0 -1.68773e+06 2.69031e+06 0 -1.6827e+06 2.71505e+06 0 -1.67712e+06 2.73992e+06 0 -1.67097e+06 2.76491e+06 0 -1.66424e+06 2.78999e+06 0 -1.65693e+06 2.81514e+06 0 -1.64904e+06 2.84032e+06 0 -1.64057e+06 2.86551e+06 0 -1.6315e+06 2.89069e+06 0 -1.62185e+06 2.91583e+06 0 -1.61162e+06 2.9409e+06 0 -1.6008e+06 2.96588e+06 0 -1.58942e+06 2.99073e+06 0 -1.57746e+06 3.01543e+06 0 -1.56495e+06 3.03997e+06 0 -1.55189e+06 3.0643e+06 0 -1.53829e+06 3.08841e+06 0 -1.52417e+06 3.11228e+06 0 -1.50955e+06 3.13587e+06 0 -1.49443e+06 3.15918e+06 0 -1.47884e+06 3.18218e+06 0 -1.4628e+06 3.20485e+06 0 -1.44632e+06 3.22717e+06 0 -1.42942e+06 3.24913e+06 0 -1.41213e+06 3.27072e+06 0 -1.39446e+06 3.29191e+06 0 -1.37645e+06 3.3127e+06 0 -1.3581e+06 3.33308e+06 0 -1.33945e+06 3.35303e+06 0 -1.32051e+06 3.37256e+06 0 -1.30132e+06 3.39165e+06 0 -1.28188e+06 3.41029e+06 0 -1.26223e+06 3.42849e+06 0 -1.24239e+06 3.44625e+06 0 -1.22238e+06 3.46355e+06 0 -1.20223e+06 3.48041e+06 0 -1.18194e+06 3.49682e+06 0 -1.16155e+06 3.51279e+06 0 -1.14108e+06 3.52832e+06 0 -1.12054e+06 3.54341e+06 0 -1.09995e+06 3.55808e+06 0 -1.07934e+06 3.57231e+06 0 -1.05872e+06 3.58614e+06 0 -1.03811e+06 3.59955e+06 0 -1.01751e+06 3.61256e+06 0 -996961 3.62518e+06 0 -976461 3.63742e+06 0 -956028 3.64929e+06 0 -935675 3.66079e+06 0 -915414 3.67194e+06 0 -895256 3.68275e+06 0 -875213 3.69323e+06 0 -855294 3.70339e+06 0 -835509 3.71325e+06 0 -815865 3.7228e+06 0 -796371 3.73207e+06 0 -777034 3.74107e+06 0 -757860 3.7498e+06 0 -738856 3.75828e+06 0 -720028 3.76652e+06 0 -701379 3.77453e+06 0 -682914 3.78232e+06 0 -664638 3.7899e+06 0 -646554 3.79728e+06 0 -628665 3.80447e+06 0 -610973 3.81148e+06 0 -593482 3.81832e+06 0 -576193 3.825e+06 0 -559107 3.83153e+06 0 -542226 3.83792e+06 0 -525552 3.84417e+06 0 -509085 3.8503e+06 0 -492826 3.85631e+06 0 -476775 3.86221e+06 0 -460933 3.86801e+06 0 -445300 3.87372e+06 0 -429875 3.87934e+06 0 -414659 3.88488e+06 0 -399651 3.89035e+06 0 -384852 3.89576e+06 0 -370259 3.9011e+06 0 -355874 3.90639e+06 0 -341696 3.91163e+06 0 -327723 3.91683e+06 0 -313955 3.92199e+06 0 -300391 3.92712e+06 0 -287031 3.93223e+06 0 -273874 3.93731e+06 0 -260919 3.94238e+06 0 -248165 3.94743e+06 0 -235612 3.95248e+06 0 -223258 3.95752e+06 0 -211104 3.96257e+06 0 -199147 3.96762e+06 0 -187389 3.97268e+06 0 -175827 3.97775e+06 0 -164462 3.98283e+06 0 -153293 3.98794e+06 0 -142318 3.99307e+06 0 -131539 3.99822e+06 0 -120953 4.0034e+06 0 -110562 4.00861e+06 0 -100364 4.01386e+06 0 -90359.2 4.01914e+06 0 -80547.4 4.02447e+06 0 -70928.3 4.02983e+06 0 -61501.9 4.03524e+06 0 -52268 4.0407e+06 0 -43226.6 4.0462e+06 0 -34377.9 4.05176e+06 0 -25721.7 4.05736e+06 0 -1.7105e+06 2.31225e+06 0 -1.71274e+06 2.33188e+06 0 -1.7147e+06 2.35191e+06 0 -1.71636e+06 2.37233e+06 0 -1.71771e+06 2.39313e+06 0 -1.71872e+06 2.41431e+06 0 -1.71937e+06 2.43585e+06 0 -1.71964e+06 2.45775e+06 0 -1.71952e+06 2.48e+06 0 -1.71898e+06 2.50258e+06 0 -1.71801e+06 2.52548e+06 0 -1.71659e+06 2.54868e+06 0 -1.7147e+06 2.57217e+06 0 -1.71233e+06 2.59593e+06 0 -1.70946e+06 2.61994e+06 0 -1.70607e+06 2.64418e+06 0 -1.70216e+06 2.66863e+06 0 -1.6977e+06 2.69327e+06 0 -1.6927e+06 2.71808e+06 0 -1.68713e+06 2.74302e+06 0 -1.68099e+06 2.76808e+06 0 -1.67428e+06 2.79323e+06 0 -1.66698e+06 2.81844e+06 0 -1.6591e+06 2.8437e+06 0 -1.65062e+06 2.86896e+06 0 -1.64156e+06 2.89421e+06 0 -1.63191e+06 2.91942e+06 0 -1.62167e+06 2.94456e+06 0 -1.61084e+06 2.9696e+06 0 -1.59944e+06 2.99452e+06 0 -1.58748e+06 3.0193e+06 0 -1.57495e+06 3.04389e+06 0 -1.56187e+06 3.06829e+06 0 -1.54825e+06 3.09247e+06 0 -1.53411e+06 3.11639e+06 0 -1.51946e+06 3.14005e+06 0 -1.50432e+06 3.16342e+06 0 -1.4887e+06 3.18647e+06 0 -1.47263e+06 3.2092e+06 0 -1.45611e+06 3.23158e+06 0 -1.43918e+06 3.25359e+06 0 -1.42186e+06 3.27522e+06 0 -1.40415e+06 3.29647e+06 0 -1.3861e+06 3.3173e+06 0 -1.36771e+06 3.33772e+06 0 -1.34902e+06 3.35772e+06 0 -1.33004e+06 3.37728e+06 0 -1.3108e+06 3.3964e+06 0 -1.29133e+06 3.41508e+06 0 -1.27163e+06 3.43332e+06 0 -1.25175e+06 3.4511e+06 0 -1.2317e+06 3.46843e+06 0 -1.21149e+06 3.48531e+06 0 -1.19117e+06 3.50175e+06 0 -1.17073e+06 3.51773e+06 0 -1.15021e+06 3.53328e+06 0 -1.12963e+06 3.54838e+06 0 -1.109e+06 3.56306e+06 0 -1.08835e+06 3.5773e+06 0 -1.06768e+06 3.59113e+06 0 -1.04703e+06 3.60455e+06 0 -1.0264e+06 3.61756e+06 0 -1.0058e+06 3.63018e+06 0 -985264 3.64242e+06 0 -964793 3.65428e+06 0 -944403 3.66577e+06 0 -924106 3.67691e+06 0 -903914 3.68771e+06 0 -883838 3.69818e+06 0 -863887 3.70832e+06 0 -844070 3.71816e+06 0 -824397 3.72769e+06 0 -804875 3.73694e+06 0 -785511 3.74591e+06 0 -766312 3.75462e+06 0 -747284 3.76307e+06 0 -728433 3.77128e+06 0 -709763 3.77926e+06 0 -691279 3.78701e+06 0 -672985 3.79455e+06 0 -654884 3.8019e+06 0 -636979 3.80905e+06 0 -619274 3.81602e+06 0 -601770 3.82282e+06 0 -584469 3.82945e+06 0 -567374 3.83594e+06 0 -550485 3.84228e+06 0 -533803 3.84848e+06 0 -517331 3.85456e+06 0 -501067 3.86052e+06 0 -485013 3.86636e+06 0 -469169 3.87211e+06 0 -453535 3.87776e+06 0 -438110 3.88332e+06 0 -422896 3.8888e+06 0 -407891 3.8942e+06 0 -393095 3.89954e+06 0 -378507 3.90481e+06 0 -364128 3.91003e+06 0 -349956 3.9152e+06 0 -335990 3.92033e+06 0 -322231 3.92541e+06 0 -308677 3.93046e+06 0 -295327 3.93549e+06 0 -282180 3.94049e+06 0 -269236 3.94547e+06 0 -256494 3.95044e+06 0 -243953 3.95539e+06 0 -231613 3.96035e+06 0 -219471 3.96529e+06 0 -207529 3.97025e+06 0 -195784 3.9752e+06 0 -184237 3.98017e+06 0 -172886 3.98515e+06 0 -161730 3.99015e+06 0 -150770 3.99516e+06 0 -140005 4.0002e+06 0 -129433 4.00526e+06 0 -119056 4.01035e+06 0 -108871 4.01548e+06 0 -98878.8 4.02063e+06 0 -89079.2 4.02582e+06 0 -79471.7 4.03105e+06 0 -70056.1 4.03632e+06 0 -60832.1 4.04164e+06 0 -51799.7 4.04699e+06 0 -42958.8 4.0524e+06 0 -34309.2 4.05785e+06 0 -1.71983e+06 2.3142e+06 0 -1.72213e+06 2.33387e+06 0 -1.72416e+06 2.35395e+06 0 -1.72588e+06 2.37441e+06 0 -1.72728e+06 2.39527e+06 0 -1.72834e+06 2.4165e+06 0 -1.72905e+06 2.4381e+06 0 -1.72937e+06 2.46006e+06 0 -1.72929e+06 2.48236e+06 0 -1.7288e+06 2.505e+06 0 -1.72787e+06 2.52797e+06 0 -1.72649e+06 2.55123e+06 0 -1.72464e+06 2.57479e+06 0 -1.72231e+06 2.59861e+06 0 -1.71946e+06 2.62269e+06 0 -1.71611e+06 2.647e+06 0 -1.71222e+06 2.67152e+06 0 -1.70779e+06 2.69623e+06 0 -1.7028e+06 2.7211e+06 0 -1.69725e+06 2.74611e+06 0 -1.69113e+06 2.77125e+06 0 -1.68443e+06 2.79647e+06 0 -1.67714e+06 2.82175e+06 0 -1.66926e+06 2.84708e+06 0 -1.66079e+06 2.87242e+06 0 -1.65172e+06 2.89774e+06 0 -1.64207e+06 2.92302e+06 0 -1.63182e+06 2.94823e+06 0 -1.62099e+06 2.97334e+06 0 -1.60958e+06 2.99833e+06 0 -1.5976e+06 3.02318e+06 0 -1.58505e+06 3.04784e+06 0 -1.57196e+06 3.07231e+06 0 -1.55832e+06 3.09655e+06 0 -1.54416e+06 3.12054e+06 0 -1.52948e+06 3.14426e+06 0 -1.51431e+06 3.16768e+06 0 -1.49866e+06 3.1908e+06 0 -1.48256e+06 3.21358e+06 0 -1.46601e+06 3.23602e+06 0 -1.44904e+06 3.25808e+06 0 -1.43168e+06 3.27977e+06 0 -1.41394e+06 3.30106e+06 0 -1.39584e+06 3.32194e+06 0 -1.37742e+06 3.3424e+06 0 -1.35868e+06 3.36244e+06 0 -1.33966e+06 3.38204e+06 0 -1.32038e+06 3.4012e+06 0 -1.30086e+06 3.41992e+06 0 -1.28112e+06 3.43818e+06 0 -1.2612e+06 3.456e+06 0 -1.2411e+06 3.47335e+06 0 -1.22085e+06 3.49026e+06 0 -1.20048e+06 3.50671e+06 0 -1.18e+06 3.52272e+06 0 -1.15943e+06 3.53828e+06 0 -1.13881e+06 3.5534e+06 0 -1.11813e+06 3.56809e+06 0 -1.09743e+06 3.58234e+06 0 -1.07673e+06 3.59618e+06 0 -1.05603e+06 3.6096e+06 0 -1.03535e+06 3.62261e+06 0 -1.01472e+06 3.63523e+06 0 -994141 3.64747e+06 0 -973631 3.65932e+06 0 -953203 3.67081e+06 0 -932870 3.68194e+06 0 -912642 3.69273e+06 0 -892531 3.70318e+06 0 -872546 3.71331e+06 0 -852698 3.72313e+06 0 -832994 3.73264e+06 0 -813442 3.74187e+06 0 -794051 3.75082e+06 0 -774825 3.7595e+06 0 -755772 3.76792e+06 0 -736897 3.7761e+06 0 -718205 3.78405e+06 0 -699700 3.79177e+06 0 -681386 3.79928e+06 0 -663267 3.80658e+06 0 -645346 3.81369e+06 0 -627626 3.82062e+06 0 -610108 3.82738e+06 0 -592795 3.83397e+06 0 -575689 3.84041e+06 0 -558790 3.8467e+06 0 -542101 3.85286e+06 0 -525621 3.85888e+06 0 -509352 3.86479e+06 0 -493294 3.87058e+06 0 -477446 3.87627e+06 0 -461810 3.88186e+06 0 -446385 3.88737e+06 0 -431171 3.89278e+06 0 -416168 3.89812e+06 0 -401375 3.9034e+06 0 -386791 3.9086e+06 0 -372416 3.91375e+06 0 -358249 3.91885e+06 0 -344290 3.9239e+06 0 -330538 3.92891e+06 0 -316992 3.93389e+06 0 -303651 3.93883e+06 0 -290514 3.94375e+06 0 -277580 3.94865e+06 0 -264849 3.95353e+06 0 -252319 3.9584e+06 0 -239990 3.96326e+06 0 -227861 3.96811e+06 0 -215931 3.97297e+06 0 -204199 3.97783e+06 0 -192665 3.98269e+06 0 -181327 3.98757e+06 0 -170185 3.99246e+06 0 -159238 3.99736e+06 0 -148485 4.00228e+06 0 -137927 4.00723e+06 0 -127562 4.0122e+06 0 -117389 4.0172e+06 0 -107409 4.02223e+06 0 -97620.7 4.0273e+06 0 -88023.9 4.03239e+06 0 -78618.1 4.03753e+06 0 -69403.3 4.0427e+06 0 -60379 4.04791e+06 0 -51545.2 4.05317e+06 0 -42901.5 4.05847e+06 0 -1.72927e+06 2.31611e+06 0 -1.73164e+06 2.33583e+06 0 -1.73372e+06 2.35596e+06 0 -1.7355e+06 2.37647e+06 0 -1.73696e+06 2.39738e+06 0 -1.73808e+06 2.41866e+06 0 -1.73883e+06 2.44032e+06 0 -1.73921e+06 2.46234e+06 0 -1.73918e+06 2.48471e+06 0 -1.73873e+06 2.50741e+06 0 -1.73785e+06 2.53043e+06 0 -1.73651e+06 2.55376e+06 0 -1.7347e+06 2.57739e+06 0 -1.73239e+06 2.60128e+06 0 -1.72958e+06 2.62543e+06 0 -1.72625e+06 2.6498e+06 0 -1.72239e+06 2.67439e+06 0 -1.71798e+06 2.69917e+06 0 -1.71302e+06 2.72412e+06 0 -1.70748e+06 2.74921e+06 0 -1.70138e+06 2.77441e+06 0 -1.69468e+06 2.79971e+06 0 -1.6874e+06 2.82507e+06 0 -1.67953e+06 2.85047e+06 0 -1.67106e+06 2.87588e+06 0 -1.662e+06 2.90128e+06 0 -1.65234e+06 2.92663e+06 0 -1.64209e+06 2.95191e+06 0 -1.63125e+06 2.9771e+06 0 -1.61983e+06 3.00216e+06 0 -1.60783e+06 3.02707e+06 0 -1.59527e+06 3.05181e+06 0 -1.58215e+06 3.07634e+06 0 -1.56849e+06 3.10065e+06 0 -1.55431e+06 3.1247e+06 0 -1.53961e+06 3.14849e+06 0 -1.52441e+06 3.17198e+06 0 -1.50873e+06 3.19515e+06 0 -1.49259e+06 3.218e+06 0 -1.47601e+06 3.24048e+06 0 -1.45901e+06 3.26261e+06 0 -1.44161e+06 3.28434e+06 0 -1.42383e+06 3.30568e+06 0 -1.40569e+06 3.32661e+06 0 -1.38722e+06 3.34712e+06 0 -1.36845e+06 3.3672e+06 0 -1.34938e+06 3.38685e+06 0 -1.33006e+06 3.40605e+06 0 -1.31049e+06 3.4248e+06 0 -1.29071e+06 3.44309e+06 0 -1.27073e+06 3.46094e+06 0 -1.25059e+06 3.47832e+06 0 -1.23029e+06 3.49526e+06 0 -1.20987e+06 3.51173e+06 0 -1.18935e+06 3.52776e+06 0 -1.16874e+06 3.54334e+06 0 -1.14806e+06 3.55847e+06 0 -1.12735e+06 3.57317e+06 0 -1.1066e+06 3.58744e+06 0 -1.08585e+06 3.60128e+06 0 -1.06511e+06 3.61471e+06 0 -1.04439e+06 3.62772e+06 0 -1.02371e+06 3.64034e+06 0 -1.00309e+06 3.65257e+06 0 -982544 3.66443e+06 0 -962077 3.67591e+06 0 -941705 3.68703e+06 0 -921440 3.69781e+06 0 -901293 3.70825e+06 0 -881274 3.71836e+06 0 -861393 3.72816e+06 0 -841657 3.73766e+06 0 -822075 3.74686e+06 0 -802654 3.75579e+06 0 -783401 3.76444e+06 0 -764322 3.77284e+06 0 -745422 3.78099e+06 0 -726706 3.7889e+06 0 -708179 3.79659e+06 0 -689845 3.80406e+06 0 -671707 3.81133e+06 0 -653768 3.81841e+06 0 -636031 3.8253e+06 0 -618498 3.83201e+06 0 -601172 3.83856e+06 0 -584054 3.84495e+06 0 -567145 3.8512e+06 0 -550446 3.85731e+06 0 -533958 3.86328e+06 0 -517682 3.86914e+06 0 -501618 3.87488e+06 0 -485767 3.88051e+06 0 -470128 3.88604e+06 0 -454701 3.89149e+06 0 -439486 3.89684e+06 0 -424483 3.90212e+06 0 -409692 3.90733e+06 0 -395110 3.91247e+06 0 -380739 3.91755e+06 0 -366577 3.92258e+06 0 -352623 3.92756e+06 0 -338877 3.9325e+06 0 -325338 3.93739e+06 0 -312005 3.94226e+06 0 -298876 3.9471e+06 0 -285951 3.95191e+06 0 -273230 3.95671e+06 0 -260711 3.96149e+06 0 -248392 3.96626e+06 0 -236274 3.97102e+06 0 -224356 3.97578e+06 0 -212636 3.98054e+06 0 -201113 3.98531e+06 0 -189787 3.99008e+06 0 -178657 3.99487e+06 0 -167722 3.99966e+06 0 -156982 4.00448e+06 0 -146435 4.00931e+06 0 -136082 4.01416e+06 0 -125920 4.01904e+06 0 -115951 4.02395e+06 0 -106173 4.02889e+06 0 -96585.9 4.03385e+06 0 -87189.2 4.03885e+06 0 -77982.5 4.04389e+06 0 -68965.6 4.04897e+06 0 -60138.1 4.05408e+06 0 -51499.6 4.05923e+06 0 -1.73882e+06 2.31799e+06 0 -1.74125e+06 2.33776e+06 0 -1.7434e+06 2.35793e+06 0 -1.74524e+06 2.3785e+06 0 -1.74676e+06 2.39946e+06 0 -1.74793e+06 2.4208e+06 0 -1.74874e+06 2.44252e+06 0 -1.74916e+06 2.4646e+06 0 -1.74918e+06 2.48702e+06 0 -1.74878e+06 2.50979e+06 0 -1.74794e+06 2.53288e+06 0 -1.74664e+06 2.55628e+06 0 -1.74486e+06 2.57997e+06 0 -1.74259e+06 2.60393e+06 0 -1.73982e+06 2.62815e+06 0 -1.73652e+06 2.6526e+06 0 -1.73268e+06 2.67726e+06 0 -1.72829e+06 2.70212e+06 0 -1.72335e+06 2.72714e+06 0 -1.71783e+06 2.7523e+06 0 -1.71174e+06 2.77758e+06 0 -1.70506e+06 2.80295e+06 0 -1.69779e+06 2.82839e+06 0 -1.68992e+06 2.85386e+06 0 -1.68145e+06 2.87935e+06 0 -1.67239e+06 2.90482e+06 0 -1.66272e+06 2.93025e+06 0 -1.65247e+06 2.95561e+06 0 -1.64162e+06 2.98087e+06 0 -1.63019e+06 3.006e+06 0 -1.61817e+06 3.03099e+06 0 -1.6056e+06 3.05579e+06 0 -1.59246e+06 3.0804e+06 0 -1.57878e+06 3.10477e+06 0 -1.56457e+06 3.1289e+06 0 -1.54984e+06 3.15275e+06 0 -1.53461e+06 3.1763e+06 0 -1.5189e+06 3.19954e+06 0 -1.50273e+06 3.22244e+06 0 -1.48611e+06 3.24499e+06 0 -1.46907e+06 3.26716e+06 0 -1.45163e+06 3.28896e+06 0 -1.43381e+06 3.31035e+06 0 -1.41564e+06 3.33133e+06 0 -1.39713e+06 3.35188e+06 0 -1.37831e+06 3.37201e+06 0 -1.3592e+06 3.39169e+06 0 -1.33983e+06 3.41093e+06 0 -1.32021e+06 3.42972e+06 0 -1.30039e+06 3.44805e+06 0 -1.28036e+06 3.46593e+06 0 -1.26017e+06 3.48334e+06 0 -1.23983e+06 3.5003e+06 0 -1.21936e+06 3.5168e+06 0 -1.19879e+06 3.53285e+06 0 -1.17813e+06 3.54845e+06 0 -1.15741e+06 3.5636e+06 0 -1.13665e+06 3.57831e+06 0 -1.11585e+06 3.59259e+06 0 -1.09506e+06 3.60644e+06 0 -1.07427e+06 3.61987e+06 0 -1.05351e+06 3.63289e+06 0 -1.03279e+06 3.64551e+06 0 -1.01212e+06 3.65774e+06 0 -991533 3.66959e+06 0 -971025 3.68107e+06 0 -950614 3.69218e+06 0 -930311 3.70295e+06 0 -910127 3.71337e+06 0 -890073 3.72347e+06 0 -870156 3.73325e+06 0 -850387 3.74273e+06 0 -830774 3.75192e+06 0 -811322 3.76082e+06 0 -792040 3.76945e+06 0 -772933 3.77782e+06 0 -754007 3.78594e+06 0 -735267 3.79382e+06 0 -716717 3.80148e+06 0 -698361 3.80892e+06 0 -680202 3.81615e+06 0 -662245 3.82319e+06 0 -644490 3.83004e+06 0 -626942 3.83671e+06 0 -609601 3.84322e+06 0 -592469 3.84957e+06 0 -575548 3.85577e+06 0 -558839 3.86183e+06 0 -542342 3.86775e+06 0 -526058 3.87356e+06 0 -509988 3.87924e+06 0 -494131 3.88482e+06 0 -478488 3.8903e+06 0 -463059 3.89568e+06 0 -447842 3.90098e+06 0 -432838 3.9062e+06 0 -418047 3.91134e+06 0 -403467 3.91642e+06 0 -389098 3.92143e+06 0 -374939 3.92639e+06 0 -360990 3.9313e+06 0 -347249 3.93616e+06 0 -333716 3.94098e+06 0 -320389 3.94577e+06 0 -307268 3.95053e+06 0 -294351 3.95526e+06 0 -281638 3.95998e+06 0 -269128 3.96467e+06 0 -256819 3.96935e+06 0 -244711 3.97403e+06 0 -232803 3.97869e+06 0 -221094 3.98336e+06 0 -209582 3.98803e+06 0 -198267 3.9927e+06 0 -187148 3.99738e+06 0 -176224 4.00207e+06 0 -165495 4.00677e+06 0 -154959 4.0115e+06 0 -144616 4.01624e+06 0 -134465 4.021e+06 0 -124506 4.02578e+06 0 -114737 4.0306e+06 0 -105159 4.03544e+06 0 -95770.4 4.04031e+06 0 -86571.1 4.04521e+06 0 -77560.7 4.05015e+06 0 -68738.8 4.05512e+06 0 -60104.8 4.06013e+06 0 -1.74848e+06 2.31983e+06 0 -1.75098e+06 2.33965e+06 0 -1.75319e+06 2.35987e+06 0 -1.75509e+06 2.38049e+06 0 -1.75666e+06 2.40151e+06 0 -1.75789e+06 2.42291e+06 0 -1.75875e+06 2.44469e+06 0 -1.75923e+06 2.46683e+06 0 -1.7593e+06 2.48932e+06 0 -1.75894e+06 2.51215e+06 0 -1.75814e+06 2.53531e+06 0 -1.75688e+06 2.55878e+06 0 -1.75514e+06 2.58254e+06 0 -1.75291e+06 2.60657e+06 0 -1.75016e+06 2.63086e+06 0 -1.74689e+06 2.65539e+06 0 -1.74308e+06 2.68013e+06 0 -1.73872e+06 2.70505e+06 0 -1.7338e+06 2.73015e+06 0 -1.7283e+06 2.75539e+06 0 -1.72222e+06 2.78075e+06 0 -1.71555e+06 2.8062e+06 0 -1.70828e+06 2.83171e+06 0 -1.70042e+06 2.85726e+06 0 -1.69196e+06 2.88283e+06 0 -1.68289e+06 2.90838e+06 0 -1.67323e+06 2.93388e+06 0 -1.66296e+06 2.95932e+06 0 -1.6521e+06 2.98465e+06 0 -1.64066e+06 3.00986e+06 0 -1.62863e+06 3.03492e+06 0 -1.61603e+06 3.0598e+06 0 -1.60288e+06 3.08448e+06 0 -1.58917e+06 3.10892e+06 0 -1.57494e+06 3.13311e+06 0 -1.56018e+06 3.15703e+06 0 -1.54492e+06 3.18065e+06 0 -1.52918e+06 3.20395e+06 0 -1.51298e+06 3.22691e+06 0 -1.49632e+06 3.24952e+06 0 -1.47925e+06 3.27176e+06 0 -1.46177e+06 3.2936e+06 0 -1.44391e+06 3.31505e+06 0 -1.42569e+06 3.33608e+06 0 -1.40713e+06 3.35669e+06 0 -1.38827e+06 3.37686e+06 0 -1.36911e+06 3.39658e+06 0 -1.3497e+06 3.41586e+06 0 -1.33004e+06 3.43469e+06 0 -1.31016e+06 3.45306e+06 0 -1.29009e+06 3.47096e+06 0 -1.26985e+06 3.48841e+06 0 -1.24946e+06 3.5054e+06 0 -1.22894e+06 3.52192e+06 0 -1.20832e+06 3.53799e+06 0 -1.18761e+06 3.55361e+06 0 -1.16684e+06 3.56878e+06 0 -1.14603e+06 3.5835e+06 0 -1.12519e+06 3.59779e+06 0 -1.10435e+06 3.61165e+06 0 -1.08351e+06 3.62509e+06 0 -1.06271e+06 3.63812e+06 0 -1.04194e+06 3.65074e+06 0 -1.02123e+06 3.66297e+06 0 -1.0006e+06 3.67481e+06 0 -980050 3.68628e+06 0 -959598 3.69739e+06 0 -939256 3.70815e+06 0 -919034 3.71856e+06 0 -898942 3.72865e+06 0 -878990 3.73841e+06 0 -859187 3.74787e+06 0 -839540 3.75704e+06 0 -820057 3.76592e+06 0 -800745 3.77452e+06 0 -781609 3.78287e+06 0 -762656 3.79096e+06 0 -743889 3.79881e+06 0 -725315 3.80644e+06 0 -706936 3.81384e+06 0 -688756 3.82104e+06 0 -670778 3.82804e+06 0 -653005 3.83485e+06 0 -635440 3.84149e+06 0 -618083 3.84795e+06 0 -600937 3.85426e+06 0 -584003 3.86041e+06 0 -567282 3.86642e+06 0 -550775 3.8723e+06 0 -534482 3.87805e+06 0 -518404 3.88369e+06 0 -502541 3.88921e+06 0 -486892 3.89463e+06 0 -471459 3.89996e+06 0 -456239 3.9052e+06 0 -441234 3.91035e+06 0 -426442 3.91543e+06 0 -411862 3.92044e+06 0 -397495 3.92539e+06 0 -383338 3.93028e+06 0 -369392 3.93512e+06 0 -355655 3.93991e+06 0 -342126 3.94466e+06 0 -328805 3.94937e+06 0 -315690 3.95405e+06 0 -302780 3.9587e+06 0 -290075 3.96333e+06 0 -277573 3.96794e+06 0 -265273 3.97254e+06 0 -253174 3.97712e+06 0 -241275 3.9817e+06 0 -229575 3.98627e+06 0 -218073 3.99084e+06 0 -206768 3.99541e+06 0 -195659 3.99999e+06 0 -184745 4.00458e+06 0 -174026 4.00918e+06 0 -163500 4.01379e+06 0 -153166 4.01842e+06 0 -143025 4.02307e+06 0 -133074 4.02774e+06 0 -123314 4.03243e+06 0 -113744 4.03714e+06 0 -104363 4.04189e+06 0 -95170.2 4.04666e+06 0 -86165.4 4.05147e+06 0 -77348.3 4.0563e+06 0 -68718.1 4.06117e+06 0 -1.75825e+06 2.32163e+06 0 -1.76082e+06 2.3415e+06 0 -1.76309e+06 2.36178e+06 0 -1.76505e+06 2.38246e+06 0 -1.76669e+06 2.40353e+06 0 -1.76797e+06 2.42499e+06 0 -1.76889e+06 2.44683e+06 0 -1.76941e+06 2.46904e+06 0 -1.76953e+06 2.49159e+06 0 -1.76922e+06 2.51449e+06 0 -1.76847e+06 2.53772e+06 0 -1.76725e+06 2.56126e+06 0 -1.76555e+06 2.58509e+06 0 -1.76335e+06 2.6092e+06 0 -1.76063e+06 2.63356e+06 0 -1.75739e+06 2.65816e+06 0 -1.75361e+06 2.68298e+06 0 -1.74927e+06 2.70799e+06 0 -1.74436e+06 2.73316e+06 0 -1.73888e+06 2.75848e+06 0 -1.73281e+06 2.78391e+06 0 -1.72616e+06 2.80944e+06 0 -1.7189e+06 2.83504e+06 0 -1.71104e+06 2.86067e+06 0 -1.70258e+06 2.88632e+06 0 -1.69351e+06 2.91194e+06 0 -1.68384e+06 2.93753e+06 0 -1.67357e+06 2.96304e+06 0 -1.6627e+06 2.98845e+06 0 -1.65125e+06 3.01374e+06 0 -1.6392e+06 3.03887e+06 0 -1.62659e+06 3.06383e+06 0 -1.61341e+06 3.08858e+06 0 -1.59968e+06 3.11309e+06 0 -1.58542e+06 3.13736e+06 0 -1.57064e+06 3.16134e+06 0 -1.55535e+06 3.18503e+06 0 -1.53957e+06 3.2084e+06 0 -1.52333e+06 3.23142e+06 0 -1.50664e+06 3.25409e+06 0 -1.48953e+06 3.27639e+06 0 -1.47201e+06 3.29829e+06 0 -1.45411e+06 3.31979e+06 0 -1.43584e+06 3.34087e+06 0 -1.41725e+06 3.36153e+06 0 -1.39833e+06 3.38175e+06 0 -1.37913e+06 3.40152e+06 0 -1.35967e+06 3.42084e+06 0 -1.33996e+06 3.4397e+06 0 -1.32003e+06 3.45811e+06 0 -1.29991e+06 3.47605e+06 0 -1.27962e+06 3.49353e+06 0 -1.25918e+06 3.51054e+06 0 -1.23861e+06 3.5271e+06 0 -1.21794e+06 3.54319e+06 0 -1.19719e+06 3.55883e+06 0 -1.17637e+06 3.57401e+06 0 -1.1555e+06 3.58875e+06 0 -1.13462e+06 3.60306e+06 0 -1.11372e+06 3.61693e+06 0 -1.09284e+06 3.63037e+06 0 -1.07199e+06 3.6434e+06 0 -1.05118e+06 3.65603e+06 0 -1.03042e+06 3.66826e+06 0 -1.00975e+06 3.6801