<?xml version="1.0"?> 
<VTKFile type="StructuredGrid" version="0.1"> 
<StructuredGrid WholeExtent="0 127 0 127 0 0"> 
<Piece Extent="0 127 0 127 0 0"> 
<PointData>
<DataArray type="Float32" Name="E" format="ascii" NumberOfComponents="3"> 
479814 7.04668e+06 0 745007 6.88293e+06 0 904803 6.74215e+06 0 1.02548e+06 6.61102e+06 0 1.11865e+06 6.48917e+06 0 1.19321e+06 6.37495e+06 0 1.25329e+06 6.26773e+06 0 1.30213e+06 6.16679e+06 0 1.34186e+06 6.07158e+06 0 1.37412e+06 5.98162e+06 0 1.40016e+06 5.89648e+06 0 1.42096e+06 5.81578e+06 0 1.43732e+06 5.73917e+06 0 1.44986e+06 5.66636e+06 0 1.45911e+06 5.59706e+06 0 1.46552e+06 5.53103e+06 0 1.46945e+06 5.46804e+06 0 1.47121e+06 5.40788e+06 0 1.47107e+06 5.35038e+06 0 1.46925e+06 5.29536e+06 0 1.46596e+06 5.24266e+06 0 1.46135e+06 5.19214e+06 0 1.45558e+06 5.14366e+06 0 1.44878e+06 5.09712e+06 0 1.44107e+06 5.0524e+06 0 1.43253e+06 5.00939e+06 0 1.42325e+06 4.968e+06 0 1.41332e+06 4.92814e+06 0 1.40281e+06 4.88973e+06 0 1.39177e+06 4.8527e+06 0 1.38026e+06 4.81697e+06 0 1.36833e+06 4.78247e+06 0 1.35602e+06 4.74916e+06 0 1.34338e+06 4.71696e+06 0 1.33043e+06 4.68584e+06 0 1.3172e+06 4.65573e+06 0 1.30374e+06 4.62659e+06 0 1.29006e+06 4.59837e+06 0 1.27618e+06 4.57105e+06 0 1.26213e+06 4.54457e+06 0 1.24793e+06 4.5189e+06 0 1.23359e+06 4.49401e+06 0 1.21914e+06 4.46987e+06 0 1.20457e+06 4.44644e+06 0 1.18992e+06 4.4237e+06 0 1.17518e+06 4.40162e+06 0 1.16037e+06 4.38017e+06 0 1.1455e+06 4.35934e+06 0 1.13059e+06 4.33909e+06 0 1.11562e+06 4.31941e+06 0 1.10063e+06 4.30028e+06 0 1.0856e+06 4.28167e+06 0 1.07055e+06 4.26358e+06 0 1.05549e+06 4.24597e+06 0 1.04041e+06 4.22885e+06 0 1.02533e+06 4.21218e+06 0 1.01024e+06 4.19596e+06 0 995155 4.18017e+06 0 980075 4.1648e+06 0 965003 4.14983e+06 0 949943 4.13526e+06 0 934896 4.12107e+06 0 919866 4.10725e+06 0 904855 4.09379e+06 0 889864 4.08068e+06 0 874895 4.06792e+06 0 859950 4.05548e+06 0 845031 4.04337e+06 0 830138 4.03158e+06 0 815273 4.02009e+06 0 800437 4.0089e+06 0 785630 3.99801e+06 0 770853 3.9874e+06 0 756108 3.97707e+06 0 741394 3.96701e+06 0 726712 3.95722e+06 0 712062 3.94769e+06 0 697444 3.93842e+06 0 682859 3.9294e+06 0 668307 3.92063e+06 0 653788 3.91209e+06 0 639301 3.90379e+06 0 624848 3.89573e+06 0 610426 3.88789e+06 0 596038 3.88027e+06 0 581681 3.87288e+06 0 567356 3.8657e+06 0 553063 3.85873e+06 0 538800 3.85198e+06 0 524569 3.84543e+06 0 510368 3.83908e+06 0 496196 3.83293e+06 0 482054 3.82698e+06 0 467940 3.82123e+06 0 453855 3.81566e+06 0 439797 3.81029e+06 0 425767 3.8051e+06 0 411762 3.8001e+06 0 397783 3.79528e+06 0 383829 3.79065e+06 0 369900 3.78619e+06 0 355993 3.7819e+06 0 342110 3.7778e+06 0 328249 3.77386e+06 0 314409 3.7701e+06 0 300589 3.76651e+06 0 286789 3.76309e+06 0 273007 3.75983e+06 0 259244 3.75675e+06 0 245498 3.75382e+06 0 231768 3.75107e+06 0 218054 3.74847e+06 0 204354 3.74604e+06 0 190668 3.74376e+06 0 176995 3.74165e+06 0 163334 3.7397e+06 0 149684 3.73791e+06 0 136044 3.73627e+06 0 122413 3.73479e+06 0 108790 3.73347e+06 0 95175.3 3.73231e+06 0 81566.8 3.7313e+06 0 67963.8 3.73045e+06 0 54365.4 3.72975e+06 0 40770.8 3.72921e+06 0 27179 3.72882e+06 0 13589 3.72859e+06 0 0 3.72851e+06 0 536253 7.11962e+06 0 776342 6.92639e+06 0 936708 6.77568e+06 0 1.05575e+06 6.63743e+06 0 1.14845e+06 6.51086e+06 0 1.22219e+06 6.39285e+06 0 1.28162e+06 6.28263e+06 0 1.32977e+06 6.17916e+06 0 1.36885e+06 6.08183e+06 0 1.40047e+06 5.99003e+06 0 1.4259e+06 5.90328e+06 0 1.4461e+06 5.82115e+06 0 1.46187e+06 5.74328e+06 0 1.47385e+06 5.66933e+06 0 1.48256e+06 5.599e+06 0 1.48844e+06 5.53204e+06 0 1.49186e+06 5.4682e+06 0 1.49314e+06 5.40727e+06 0 1.49252e+06 5.34905e+06 0 1.49025e+06 5.29337e+06 0 1.48651e+06 5.24006e+06 0 1.48148e+06 5.18898e+06 0 1.4753e+06 5.13998e+06 0 1.46811e+06 5.09295e+06 0 1.46e+06 5.04777e+06 0 1.45109e+06 5.00433e+06 0 1.44146e+06 4.96254e+06 0 1.43118e+06 4.9223e+06 0 1.42032e+06 4.88353e+06 0 1.40896e+06 4.84616e+06 0 1.39713e+06 4.81011e+06 0 1.38489e+06 4.77531e+06 0 1.37228e+06 4.74171e+06 0 1.35934e+06 4.70924e+06 0 1.34611e+06 4.67785e+06 0 1.33261e+06 4.64749e+06 0 1.31888e+06 4.61811e+06 0 1.30493e+06 4.58967e+06 0 1.2908e+06 4.56213e+06 0 1.27651e+06 4.53544e+06 0 1.26206e+06 4.50957e+06 0 1.24749e+06 4.48449e+06 0 1.2328e+06 4.46016e+06 0 1.21801e+06 4.43655e+06 0 1.20314e+06 4.41363e+06 0 1.18819e+06 4.39139e+06 0 1.17317e+06 4.36978e+06 0 1.15809e+06 4.34879e+06 0 1.14297e+06 4.32839e+06 0 1.12781e+06 4.30856e+06 0 1.11262e+06 4.28929e+06 0 1.09741e+06 4.27054e+06 0 1.08217e+06 4.25231e+06 0 1.06692e+06 4.23458e+06 0 1.05166e+06 4.21732e+06 0 1.0364e+06 4.20053e+06 0 1.02114e+06 4.18419e+06 0 1.00588e+06 4.16828e+06 0 990635 4.15279e+06 0 975397 4.13771e+06 0 960172 4.12302e+06 0 944963 4.10872e+06 0 929773 4.0948e+06 0 914603 4.08123e+06 0 899455 4.06802e+06 0 884331 4.05515e+06 0 869233 4.04262e+06 0 854162 4.03041e+06 0 839119 4.01852e+06 0 824104 4.00693e+06 0 809120 3.99565e+06 0 794166 3.98466e+06 0 779244 3.97396e+06 0 764354 3.96354e+06 0 749495 3.95339e+06 0 734670 3.94351e+06 0 719877 3.93389e+06 0 705118 3.92453e+06 0 690392 3.91542e+06 0 675699 3.90656e+06 0 661039 3.89794e+06 0 646412 3.88955e+06 0 631819 3.8814e+06 0 617258 3.87347e+06 0 602729 3.86577e+06 0 588233 3.85829e+06 0 573769 3.85103e+06 0 559336 3.84397e+06 0 544934 3.83713e+06 0 530562 3.83049e+06 0 516221 3.82406e+06 0 501909 3.81783e+06 0 487626 3.81179e+06 0 473372 3.80595e+06 0 459145 3.8003e+06 0 444945 3.79484e+06 0 430771 3.78956e+06 0 416623 3.78447e+06 0 402500 3.77956e+06 0 388401 3.77483e+06 0 374326 3.77029e+06 0 360274 3.76591e+06 0 346243 3.76171e+06 0 332233 3.75769e+06 0 318244 3.75383e+06 0 304274 3.75015e+06 0 290322 3.74663e+06 0 276388 3.74328e+06 0 262471 3.74009e+06 0 248570 3.73707e+06 0 234684 3.73422e+06 0 220811 3.73152e+06 0 206952 3.72898e+06 0 193106 3.72661e+06 0 179270 3.72439e+06 0 165445 3.72234e+06 0 151630 3.72044e+06 0 137822 3.71869e+06 0 124023 3.7171e+06 0 110229 3.71567e+06 0 96441.6 3.7144e+06 0 82658.5 3.71327e+06 0 68878.9 3.7123e+06 0 55102 3.71149e+06 0 41326.6 3.71083e+06 0 27551.8 3.71032e+06 0 13776.6 3.70997e+06 0 0 3.70976e+06 0 593062 7.1825e+06 0 812595 6.97015e+06 0 970267 6.80852e+06 0 1.08764e+06 6.66371e+06 0 1.17931e+06 6.53222e+06 0 1.25212e+06 6.4105e+06 0 1.31073e+06 6.29723e+06 0 1.35811e+06 6.19126e+06 0 1.39645e+06 6.09178e+06 0 1.42737e+06 5.99814e+06 0 1.45212e+06 5.90977e+06 0 1.47168e+06 5.82622e+06 0 1.48683e+06 5.74708e+06 0 1.49821e+06 5.672e+06 0 1.50635e+06 5.60065e+06 0 1.51168e+06 5.53276e+06 0 1.51457e+06 5.46807e+06 0 1.51533e+06 5.40637e+06 0 1.51423e+06 5.34744e+06 0 1.51148e+06 5.2911e+06 0 1.50729e+06 5.23719e+06 0 1.50182e+06 5.18554e+06 0 1.49521e+06 5.13602e+06 0 1.48761e+06 5.08851e+06 0 1.4791e+06 5.04287e+06 0 1.46981e+06 4.999e+06 0 1.4598e+06 4.95681e+06 0 1.44917e+06 4.91619e+06 0 1.43797e+06 4.87707e+06 0 1.42626e+06 4.83936e+06 0 1.41411e+06 4.80299e+06 0 1.40155e+06 4.76789e+06 0 1.38864e+06 4.734e+06 0 1.3754e+06 4.70126e+06 0 1.36188e+06 4.66961e+06 0 1.3481e+06 4.63901e+06 0 1.33409e+06 4.60939e+06 0 1.31988e+06 4.58072e+06 0 1.30549e+06 4.55296e+06 0 1.29094e+06 4.52607e+06 0 1.27625e+06 4.5e+06 0 1.26144e+06 4.47472e+06 0 1.24652e+06 4.45021e+06 0 1.2315e+06 4.42642e+06 0 1.2164e+06 4.40334e+06 0 1.20123e+06 4.38092e+06 0 1.186e+06 4.35915e+06 0 1.17071e+06 4.33801e+06 0 1.15539e+06 4.31746e+06 0 1.14003e+06 4.29749e+06 0 1.12464e+06 4.27807e+06 0 1.10923e+06 4.25919e+06 0 1.09381e+06 4.24082e+06 0 1.07837e+06 4.22296e+06 0 1.06293e+06 4.20558e+06 0 1.04749e+06 4.18866e+06 0 1.03205e+06 4.17219e+06 0 1.01662e+06 4.15617e+06 0 1.0012e+06 4.14056e+06 0 985793 4.12537e+06 0 970402 4.11057e+06 0 955029 4.09617e+06 0 939676 4.08213e+06 0 924346 4.06846e+06 0 909040 4.05515e+06 0 893760 4.04218e+06 0 878507 4.02954e+06 0 863282 4.01723e+06 0 848087 4.00524e+06 0 832922 3.99356e+06 0 817788 3.98219e+06 0 802687 3.9711e+06 0 787617 3.96031e+06 0 772581 3.94979e+06 0 757578 3.93956e+06 0 742608 3.92959e+06 0 727672 3.91988e+06 0 712770 3.91043e+06 0 697901 3.90123e+06 0 683066 3.89228e+06 0 668265 3.88357e+06 0 653498 3.8751e+06 0 638764 3.86686e+06 0 624062 3.85884e+06 0 609394 3.85106e+06 0 594757 3.84349e+06 0 580153 3.83614e+06 0 565580 3.829e+06 0 551038 3.82207e+06 0 536526 3.81535e+06 0 522045 3.80883e+06 0 507592 3.80251e+06 0 493168 3.79638e+06 0 478772 3.79045e+06 0 464404 3.78471e+06 0 450061 3.77916e+06 0 435745 3.7738e+06 0 421454 3.76862e+06 0 407187 3.76362e+06 0 392944 3.7588e+06 0 378723 3.75416e+06 0 364524 3.74969e+06 0 350346 3.7454e+06 0 336189 3.74128e+06 0 322051 3.73733e+06 0 307931 3.73355e+06 0 293828 3.72993e+06 0 279742 3.72649e+06 0 265672 3.7232e+06 0 251616 3.72008e+06 0 237575 3.71712e+06 0 223546 3.71432e+06 0 209528 3.71169e+06 0 195522 3.70921e+06 0 181525 3.70688e+06 0 167538 3.70472e+06 0 153558 3.70271e+06 0 139584 3.70085e+06 0 125617 3.69916e+06 0 111655 3.69761e+06 0 97695.7 3.69622e+06 0 83739.5 3.69498e+06 0 69785 3.69389e+06 0 55831 3.69296e+06 0 41876.6 3.69217e+06 0 27920.7 3.69154e+06 0 13962.2 3.69106e+06 0 0 3.69073e+06 0 650293 7.23825e+06 0 852561 7.01285e+06 0 1.0057e+06 6.84077e+06 0 1.12101e+06 6.6896e+06 0 1.21128e+06 6.55324e+06 0 1.28299e+06 6.42782e+06 0 1.34062e+06 6.31152e+06 0 1.38712e+06 6.20304e+06 0 1.42465e+06 6.10142e+06 0 1.4548e+06 6.00593e+06 0 1.47882e+06 5.91595e+06 0 1.49769e+06 5.83098e+06 0 1.51218e+06 5.75058e+06 0 1.52293e+06 5.67436e+06 0 1.53047e+06 5.60198e+06 0 1.53523e+06 5.53317e+06 0 1.53756e+06 5.46764e+06 0 1.5378e+06 5.40516e+06 0 1.53618e+06 5.34553e+06 0 1.53294e+06 5.28854e+06 0 1.52828e+06 5.23402e+06 0 1.52235e+06 5.18182e+06 0 1.51531e+06 5.13178e+06 0 1.50728e+06 5.08377e+06 0 1.49837e+06 5.03768e+06 0 1.48868e+06 4.99339e+06 0 1.47829e+06 4.9508e+06 0 1.46729e+06 4.90981e+06 0 1.45573e+06 4.87033e+06 0 1.44368e+06 4.83229e+06 0 1.4312e+06 4.79561e+06 0 1.41832e+06 4.76021e+06 0 1.40509e+06 4.72604e+06 0 1.39155e+06 4.69302e+06 0 1.37773e+06 4.66112e+06 0 1.36366e+06 4.63027e+06 0 1.34938e+06 4.60042e+06 0 1.33489e+06 4.57153e+06 0 1.32024e+06 4.54355e+06 0 1.30544e+06 4.51645e+06 0 1.2905e+06 4.49019e+06 0 1.27544e+06 4.46472e+06 0 1.26028e+06 4.44002e+06 0 1.24503e+06 4.41606e+06 0 1.2297e+06 4.39281e+06 0 1.21431e+06 4.37023e+06 0 1.19886e+06 4.3483e+06 0 1.18336e+06 4.327e+06 0 1.16783e+06 4.3063e+06 0 1.15226e+06 4.28618e+06 0 1.13668e+06 4.26663e+06 0 1.12107e+06 4.24761e+06 0 1.10546e+06 4.22911e+06 0 1.08983e+06 4.21112e+06 0 1.07421e+06 4.19361e+06 0 1.05858e+06 4.17657e+06 0 1.04297e+06 4.15999e+06 0 1.02736e+06 4.14384e+06 0 1.01177e+06 4.12812e+06 0 996188 4.11282e+06 0 980628 4.09791e+06 0 965089 4.08339e+06 0 949572 4.06925e+06 0 934080 4.05548e+06 0 918614 4.04206e+06 0 903176 4.02899e+06 0 887767 4.01626e+06 0 872387 4.00385e+06 0 857039 3.99176e+06 0 841722 3.97999e+06 0 826438 3.96851e+06 0 811187 3.95734e+06 0 795970 3.94645e+06 0 780786 3.93584e+06 0 765637 3.92551e+06 0 750522 3.91545e+06 0 735441 3.90566e+06 0 720395 3.89612e+06 0 705384 3.88683e+06 0 690407 3.87779e+06 0 675464 3.86899e+06 0 660554 3.86043e+06 0 645679 3.85211e+06 0 630837 3.84401e+06 0 616028 3.83613e+06 0 601251 3.82848e+06 0 586506 3.82104e+06 0 571793 3.81381e+06 0 557110 3.8068e+06 0 542458 3.79999e+06 0 527836 3.79338e+06 0 513242 3.78697e+06 0 498677 3.78075e+06 0 484140 3.77474e+06 0 469630 3.76891e+06 0 455145 3.76327e+06 0 440686 3.75781e+06 0 426252 3.75254e+06 0 411841 3.74745e+06 0 397454 3.74254e+06 0 383088 3.73781e+06 0 368743 3.73325e+06 0 354419 3.72886e+06 0 340114 3.72464e+06 0 325827 3.7206e+06 0 311558 3.71672e+06 0 297306 3.71301e+06 0 283068 3.70946e+06 0 268846 3.70607e+06 0 254637 3.70285e+06 0 240440 3.69979e+06 0 226255 3.69689e+06 0 212081 3.69414e+06 0 197916 3.69155e+06 0 183759 3.68912e+06 0 169610 3.68685e+06 0 155467 3.68473e+06 0 141329 3.68276e+06 0 127196 3.68095e+06 0 113065 3.67929e+06 0 98936.8 3.67778e+06 0 84809.2 3.67642e+06 0 70681.4 3.67521e+06 0 56552.3 3.67415e+06 0 42420.7 3.67324e+06 0 28285.5 3.67249e+06 0 14145.7 3.67188e+06 0 0 3.67142e+06 0 707972 7.28864e+06 0 895446 7.0539e+06 0 1.04302e+06 6.87234e+06 0 1.15581e+06 6.71499e+06 0 1.24435e+06 6.57387e+06 0 1.31477e+06 6.44476e+06 0 1.37129e+06 6.32546e+06 0 1.41681e+06 6.21447e+06 0 1.45344e+06 6.11072e+06 0 1.48276e+06 6.01339e+06 0 1.506e+06 5.9218e+06 0 1.52413e+06 5.83541e+06 0 1.53793e+06 5.75374e+06 0 1.54802e+06 5.67639e+06 0 1.55492e+06 5.603e+06 0 1.55907e+06 5.53326e+06 0 1.56084e+06 5.46689e+06 0 1.56051e+06 5.40365e+06 0 1.55837e+06 5.34331e+06 0 1.55462e+06 5.28567e+06 0 1.54947e+06 5.23055e+06 0 1.54307e+06 5.17779e+06 0 1.53558e+06 5.12724e+06 0 1.52711e+06 5.07875e+06 0 1.51778e+06 5.03221e+06 0 1.50769e+06 4.9875e+06 0 1.49691e+06 4.94451e+06 0 1.48553e+06 4.90315e+06 0 1.47361e+06 4.86332e+06 0 1.46121e+06 4.82495e+06 0 1.44838e+06 4.78795e+06 0 1.43517e+06 4.75226e+06 0 1.42162e+06 4.71781e+06 0 1.40777e+06 4.68453e+06 0 1.39365e+06 4.65237e+06 0 1.37929e+06 4.62127e+06 0 1.36472e+06 4.59119e+06 0 1.34997e+06 4.56208e+06 0 1.33505e+06 4.53389e+06 0 1.31998e+06 4.50659e+06 0 1.30478e+06 4.48013e+06 0 1.28948e+06 4.45448e+06 0 1.27407e+06 4.4296e+06 0 1.25859e+06 4.40546e+06 0 1.24303e+06 4.38204e+06 0 1.22741e+06 4.3593e+06 0 1.21174e+06 4.33721e+06 0 1.19603e+06 4.31576e+06 0 1.18029e+06 4.29491e+06 0 1.16452e+06 4.27465e+06 0 1.14873e+06 4.25496e+06 0 1.13292e+06 4.23581e+06 0 1.11711e+06 4.21718e+06 0 1.1013e+06 4.19905e+06 0 1.08549e+06 4.18142e+06 0 1.06968e+06 4.16426e+06 0 1.05388e+06 4.14756e+06 0 1.0381e+06 4.1313e+06 0 1.02233e+06 4.11546e+06 0 1.00658e+06 4.10005e+06 0 990846 4.08503e+06 0 975139 4.07041e+06 0 959457 4.05616e+06 0 943802 4.04228e+06 0 928174 4.02876e+06 0 912576 4.01559e+06 0 897009 4.00276e+06 0 881474 3.99025e+06 0 865971 3.97807e+06 0 850501 3.9662e+06 0 835065 3.95463e+06 0 819664 3.94336e+06 0 804297 3.93238e+06 0 788966 3.92169e+06 0 773669 3.91126e+06 0 758408 3.90111e+06 0 743182 3.89123e+06 0 727992 3.8816e+06 0 712836 3.87222e+06 0 697716 3.86309e+06 0 682630 3.85421e+06 0 667579 3.84556e+06 0 652562 3.83715e+06 0 637578 3.82896e+06 0 622628 3.821e+06 0 607710 3.81325e+06 0 592825 3.80573e+06 0 577971 3.79841e+06 0 563148 3.79131e+06 0 548355 3.78441e+06 0 533592 3.77771e+06 0 518857 3.77121e+06 0 504151 3.76491e+06 0 489473 3.7588e+06 0 474820 3.75289e+06 0 460194 3.74715e+06 0 445593 3.74161e+06 0 431015 3.73625e+06 0 416461 3.73106e+06 0 401930 3.72606e+06 0 387419 3.72123e+06 0 372929 3.71657e+06 0 358459 3.71209e+06 0 344007 3.70778e+06 0 329573 3.70363e+06 0 315155 3.69966e+06 0 300753 3.69584e+06 0 286365 3.69219e+06 0 271991 3.68871e+06 0 257629 3.68538e+06 0 243279 3.68221e+06 0 228939 3.6792e+06 0 214608 3.67635e+06 0 200286 3.67366e+06 0 185970 3.67112e+06 0 171661 3.66873e+06 0 157356 3.6665e+06 0 143056 3.66441e+06 0 128757 3.66248e+06 0 114461 3.6607e+06 0 100164 3.65907e+06 0 85866.9 3.65759e+06 0 71567.6 3.65626e+06 0 57265.2 3.65508e+06 0 42958.4 3.65404e+06 0 28646.1 3.65315e+06 0 14327 3.65241e+06 0 0 3.65182e+06 0 766106 7.3348e+06 0 940663 7.09304e+06 0 1.08214e+06 6.90309e+06 0 1.19196e+06 6.73978e+06 0 1.27852e+06 6.59403e+06 0 1.34745e+06 6.46128e+06 0 1.40273e+06 6.339e+06 0 1.44717e+06 6.22552e+06 0 1.48282e+06 6.11965e+06 0 1.51124e+06 6.02048e+06 0 1.53365e+06 5.9273e+06 0 1.551e+06 5.8395e+06 0 1.56406e+06 5.75657e+06 0 1.57345e+06 5.67809e+06 0 1.57969e+06 5.60369e+06 0 1.58322e+06 5.53303e+06 0 1.58438e+06 5.46583e+06 0 1.58348e+06 5.40182e+06 0 1.58079e+06 5.34078e+06 0 1.57652e+06 5.28249e+06 0 1.57086e+06 5.22678e+06 0 1.56398e+06 5.17347e+06 0 1.55602e+06 5.1224e+06 0 1.54711e+06 5.07344e+06 0 1.53735e+06 5.02645e+06 0 1.52684e+06 4.98132e+06 0 1.51566e+06 4.93794e+06 0 1.5039e+06 4.89621e+06 0 1.4916e+06 4.85604e+06 0 1.47884e+06 4.81734e+06 0 1.46567e+06 4.78003e+06 0 1.45212e+06 4.74404e+06 0 1.43824e+06 4.70931e+06 0 1.42408e+06 4.67577e+06 0 1.40965e+06 4.64336e+06 0 1.39499e+06 4.61202e+06 0 1.38013e+06 4.58171e+06 0 1.36509e+06 4.55238e+06 0 1.3499e+06 4.52399e+06 0 1.33457e+06 4.49648e+06 0 1.31911e+06 4.46983e+06 0 1.30355e+06 4.44399e+06 0 1.28791e+06 4.41893e+06 0 1.27218e+06 4.39462e+06 0 1.25639e+06 4.37103e+06 0 1.24054e+06 4.34813e+06 0 1.22465e+06 4.32589e+06 0 1.20872e+06 4.30429e+06 0 1.19276e+06 4.2833e+06 0 1.17678e+06 4.2629e+06 0 1.16079e+06 4.24306e+06 0 1.14478e+06 4.22378e+06 0 1.12878e+06 4.20502e+06 0 1.11277e+06 4.18677e+06 0 1.09677e+06 4.16901e+06 0 1.08077e+06 4.15173e+06 0 1.06479e+06 4.13491e+06 0 1.04883e+06 4.11853e+06 0 1.03288e+06 4.10259e+06 0 1.01695e+06 4.08706e+06 0 1.00105e+06 4.07194e+06 0 985176 4.0572e+06 0 969327 4.04285e+06 0 953506 4.02887e+06 0 937716 4.01525e+06 0 921957 4.00198e+06 0 906231 3.98905e+06 0 890538 3.97645e+06 0 874879 3.96417e+06 0 859255 3.9522e+06 0 843667 3.94054e+06 0 828114 3.92918e+06 0 812597 3.91811e+06 0 797116 3.90732e+06 0 781672 3.89681e+06 0 766264 3.88657e+06 0 750892 3.87659e+06 0 735556 3.86687e+06 0 720256 3.85741e+06 0 704992 3.84819e+06 0 689763 3.83922e+06 0 674569 3.83048e+06 0 659409 3.82198e+06 0 644284 3.8137e+06 0 629192 3.80565e+06 0 614133 3.79782e+06 0 599106 3.79021e+06 0 584111 3.7828e+06 0 569147 3.77561e+06 0 554214 3.76862e+06 0 539310 3.76184e+06 0 524434 3.75525e+06 0 509587 3.74886e+06 0 494767 3.74266e+06 0 479973 3.73665e+06 0 465205 3.73082e+06 0 450461 3.72519e+06 0 435741 3.71973e+06 0 421044 3.71445e+06 0 406369 3.70935e+06 0 391714 3.70443e+06 0 377079 3.69968e+06 0 362463 3.6951e+06 0 347865 3.69069e+06 0 333284 3.68644e+06 0 318718 3.68236e+06 0 304167 3.67845e+06 0 289630 3.6747e+06 0 275105 3.67111e+06 0 260592 3.66768e+06 0 246089 3.6644e+06 0 231595 3.66129e+06 0 217110 3.65832e+06 0 202631 3.65552e+06 0 188158 3.65286e+06 0 173690 3.65036e+06 0 159225 3.64801e+06 0 144763 3.64581e+06 0 130301 3.64376e+06 0 115840 3.64186e+06 0 101377 3.64011e+06 0 86912.1 3.63851e+06 0 72443.2 3.63705e+06 0 57969.4 3.63574e+06 0 43489.5 3.63457e+06 0 29002.1 3.63355e+06 0 14506 3.63267e+06 0 0 3.63194e+06 0 824697 7.37748e+06 0 987784 7.13019e+06 0 1.12293e+06 6.93289e+06 0 1.22942e+06 6.76389e+06 0 1.31375e+06 6.61366e+06 0 1.38102e+06 6.47734e+06 0 1.43493e+06 6.35211e+06 0 1.47818e+06 6.23616e+06 0 1.51277e+06 6.12819e+06 0 1.54024e+06 6.02721e+06 0 1.56176e+06 5.93243e+06 0 1.57828e+06 5.84322e+06 0 1.59056e+06 5.75904e+06 0 1.59923e+06 5.67945e+06 0 1.60478e+06 5.60403e+06 0 1.60764e+06 5.53246e+06 0 1.60818e+06 5.46443e+06 0 1.60669e+06 5.39966e+06 0 1.60343e+06 5.33792e+06 0 1.59862e+06 5.279e+06 0 1.59244e+06 5.22269e+06 0 1.58506e+06 5.16883e+06 0 1.57662e+06 5.11725e+06 0 1.56725e+06 5.06782e+06 0 1.55705e+06 5.02039e+06 0 1.54612e+06 4.97485e+06 0 1.53453e+06 4.93108e+06 0 1.52237e+06 4.88898e+06 0 1.5097e+06 4.84847e+06 0 1.49657e+06 4.80944e+06 0 1.48304e+06 4.77183e+06 0 1.46915e+06 4.73556e+06 0 1.45494e+06 4.70055e+06 0 1.44045e+06 4.66674e+06 0 1.42571e+06 4.63408e+06 0 1.41075e+06 4.60251e+06 0 1.39559e+06 4.57198e+06 0 1.38027e+06 4.54243e+06 0 1.3648e+06 4.51382e+06 0 1.34919e+06 4.48612e+06 0 1.33348e+06 4.45928e+06 0 1.31766e+06 4.43325e+06 0 1.30176e+06 4.40802e+06 0 1.2858e+06 4.38354e+06 0 1.26977e+06 4.35979e+06 0 1.25369e+06 4.33673e+06 0 1.23757e+06 4.31433e+06 0 1.22142e+06 4.29258e+06 0 1.20524e+06 4.27145e+06 0 1.18905e+06 4.25091e+06 0 1.17285e+06 4.23094e+06 0 1.15664e+06 4.21152e+06 0 1.14044e+06 4.19263e+06 0 1.12423e+06 4.17426e+06 0 1.10804e+06 4.15638e+06 0 1.09186e+06 4.13898e+06 0 1.07569e+06 4.12204e+06 0 1.05954e+06 4.10555e+06 0 1.04342e+06 4.08949e+06 0 1.02732e+06 4.07386e+06 0 1.01124e+06 4.05863e+06 0 995194 4.04379e+06 0 979176 4.02934e+06 0 963189 4.01525e+06 0 947235 4.00153e+06 0 931313 3.98816e+06 0 915427 3.97513e+06 0 899575 3.96243e+06 0 883760 3.95006e+06 0 867980 3.938e+06 0 852238 3.92624e+06 0 836533 3.91479e+06 0 820864 3.90362e+06 0 805234 3.89274e+06 0 789640 3.88214e+06 0 774084 3.87181e+06 0 758566 3.86174e+06 0 743084 3.85194e+06 0 727639 3.84238e+06 0 712230 3.83308e+06 0 696857 3.82401e+06 0 681520 3.81519e+06 0 666218 3.8066e+06 0 650950 3.79824e+06 0 635716 3.7901e+06 0 620516 3.78218e+06 0 605348 3.77448e+06 0 590212 3.76698e+06 0 575107 3.7597e+06 0 560032 3.75262e+06 0 544987 3.74575e+06 0 529971 3.73907e+06 0 514982 3.73259e+06 0 500021 3.7263e+06 0 485086 3.72019e+06 0 470176 3.71428e+06 0 455290 3.70855e+06 0 440428 3.703e+06 0 425588 3.69763e+06 0 410769 3.69243e+06 0 395971 3.68741e+06 0 381192 3.68256e+06 0 366431 3.67788e+06 0 351687 3.67337e+06 0 336960 3.66903e+06 0 322247 3.66485e+06 0 307548 3.66083e+06 0 292862 3.65697e+06 0 278188 3.65328e+06 0 263524 3.64974e+06 0 248869 3.64636e+06 0 234223 3.64313e+06 0 219583 3.64006e+06 0 204950 3.63714e+06 0 190321 3.63437e+06 0 175695 3.63175e+06 0 161072 3.62928e+06 0 146449 3.62696e+06 0 131827 3.62479e+06 0 117202 3.62277e+06 0 102575 3.62089e+06 0 87944.1 3.61916e+06 0 73307.6 3.61757e+06 0 58664.6 3.61613e+06 0 44013.6 3.61483e+06 0 29353.4 3.61367e+06 0 14682.6 3.61266e+06 0 0 3.61179e+06 0 883735 7.4172e+06 0 1.03649e+06 7.16538e+06 0 1.16526e+06 6.96161e+06 0 1.26812e+06 6.78725e+06 0 1.35001e+06 6.6327e+06 0 1.41544e+06 6.49288e+06 0 1.46786e+06 6.36476e+06 0 1.50983e+06 6.24638e+06 0 1.54329e+06 6.13632e+06 0 1.56973e+06 6.03353e+06 0 1.59032e+06 5.93717e+06 0 1.60597e+06 5.84656e+06 0 1.61744e+06 5.76115e+06 0 1.62534e+06 5.68044e+06 0 1.63017e+06 5.60402e+06 0 1.63235e+06 5.53154e+06 0 1.63224e+06 5.46268e+06 0 1.63014e+06 5.39716e+06 0 1.62629e+06 5.33474e+06 0 1.62092e+06 5.27518e+06 0 1.6142e+06 5.21828e+06 0 1.60631e+06 5.16388e+06 0 1.59739e+06 5.1118e+06 0 1.58754e+06 5.06189e+06 0 1.57689e+06 5.01403e+06 0 1.56552e+06 4.96808e+06 0 1.55352e+06 4.92392e+06 0 1.54095e+06 4.88147e+06 0 1.52789e+06 4.84061e+06 0 1.51439e+06 4.80127e+06 0 1.50049e+06 4.76335e+06 0 1.48625e+06 4.72679e+06 0 1.4717e+06 4.69151e+06 0 1.45688e+06 4.65745e+06 0 1.44182e+06 4.62454e+06 0 1.42656e+06 4.59274e+06 0 1.4111e+06 4.56198e+06 0 1.39549e+06 4.53222e+06 0 1.37973e+06 4.50341e+06 0 1.36386e+06 4.47551e+06 0 1.34787e+06 4.44848e+06 0 1.3318e+06 4.42227e+06 0 1.31565e+06 4.39687e+06 0 1.29943e+06 4.37222e+06 0 1.28316e+06 4.3483e+06 0 1.26685e+06 4.32509e+06 0 1.2505e+06 4.30254e+06 0 1.23412e+06 4.28065e+06 0 1.21773e+06 4.25937e+06 0 1.20133e+06 4.23869e+06 0 1.18491e+06 4.21859e+06 0 1.1685e+06 4.19904e+06 0 1.15209e+06 4.18002e+06 0 1.13569e+06 4.16153e+06 0 1.1193e+06 4.14353e+06 0 1.10293e+06 4.12601e+06 0 1.08658e+06 4.10895e+06 0 1.07025e+06 4.09235e+06 0 1.05394e+06 4.07618e+06 0 1.03766e+06 4.06044e+06 0 1.02141e+06 4.0451e+06 0 1.00519e+06 4.03016e+06 0 989002 4.0156e+06 0 972847 4.00142e+06 0 956727 3.9876e+06 0 940642 3.97413e+06 0 924593 3.961e+06 0 908582 3.94821e+06 0 892608 3.93574e+06 0 876673 3.92358e+06 0 860775 3.91173e+06 0 844917 3.90019e+06 0 829096 3.88893e+06 0 813315 3.87796e+06 0 797572 3.86727e+06 0 781867 3.85685e+06 0 766201 3.84669e+06 0 750573 3.8368e+06 0 734982 3.82715e+06 0 719428 3.81776e+06 0 703911 3.80861e+06 0 688430 3.79969e+06 0 672985 3.79101e+06 0 657574 3.78256e+06 0 642198 3.77434e+06 0 626856 3.76633e+06 0 611546 3.75854e+06 0 596269 3.75096e+06 0 581023 3.74358e+06 0 565807 3.73642e+06 0 550621 3.72945e+06 0 535464 3.72268e+06 0 520335 3.71611e+06 0 505232 3.70972e+06 0 490156 3.70353e+06 0 475105 3.69752e+06 0 460077 3.69169e+06 0 445073 3.68605e+06 0 430091 3.68058e+06 0 415129 3.67529e+06 0 400188 3.67017e+06 0 385265 3.66522e+06 0 370360 3.66044e+06 0 355471 3.65583e+06 0 340598 3.65139e+06 0 325739 3.6471e+06 0 310893 3.64298e+06 0 296059 3.63902e+06 0 281236 3.63521e+06 0 266423 3.63157e+06 0 251618 3.62808e+06 0 236820 3.62474e+06 0 222028 3.62155e+06 0 207241 3.61852e+06 0 192457 3.61563e+06 0 177676 3.6129e+06 0 162896 3.61031e+06 0 148115 3.60787e+06 0 133332 3.60557e+06 0 118547 3.60343e+06 0 103757 3.60142e+06 0 88962.3 3.59956e+06 0 74160.4 3.59784e+06 0 59350.2 3.59626e+06 0 44530.4 3.59483e+06 0 29699.7 3.59353e+06 0 14856.7 3.59238e+06 0 0 3.59137e+06 0 943211 7.45433e+06 0 1.08654e+06 7.19866e+06 0 1.20899e+06 6.98919e+06 0 1.308e+06 6.8098e+06 0 1.38726e+06 6.6511e+06 0 1.4507e+06 6.50787e+06 0 1.50151e+06 6.37692e+06 0 1.54211e+06 6.25613e+06 0 1.57437e+06 6.14401e+06 0 1.59972e+06 6.03943e+06 0 1.61931e+06 5.94151e+06 0 1.63405e+06 5.84952e+06 0 1.64467e+06 5.76287e+06 0 1.65177e+06 5.68106e+06 0 1.65585e+06 5.60365e+06 0 1.65733e+06 5.53027e+06 0 1.65655e+06 5.46059e+06 0 1.65381e+06 5.39433e+06 0 1.64936e+06 5.33121e+06 0 1.64341e+06 5.27102e+06 0 1.63614e+06 5.21355e+06 0 1.62773e+06 5.15861e+06 0 1.6183e+06 5.10603e+06 0 1.60797e+06 5.05566e+06 0 1.59686e+06 5.00736e+06 0 1.58504e+06 4.961e+06 0 1.57261e+06 4.91647e+06 0 1.55963e+06 4.87366e+06 0 1.54617e+06 4.83247e+06 0 1.53228e+06 4.79281e+06 0 1.51802e+06 4.75459e+06 0 1.50342e+06 4.71775e+06 0 1.48853e+06 4.6822e+06 0 1.47337e+06 4.64788e+06 0 1.45799e+06 4.61474e+06 0 1.44241e+06 4.5827e+06 0 1.42665e+06 4.55172e+06 0 1.41074e+06 4.52175e+06 0 1.3947e+06 4.49274e+06 0 1.37854e+06 4.46464e+06 0 1.36229e+06 4.43743e+06 0 1.34595e+06 4.41105e+06 0 1.32954e+06 4.38547e+06 0 1.31308e+06 4.36066e+06 0 1.29656e+06 4.33658e+06 0 1.28001e+06 4.31321e+06 0 1.26343e+06 4.29052e+06 0 1.24683e+06 4.26847e+06 0 1.23022e+06 4.24706e+06 0 1.21359e+06 4.22624e+06 0 1.19697e+06 4.20601e+06 0 1.18035e+06 4.18633e+06 0 1.16374e+06 4.16719e+06 0 1.14714e+06 4.14857e+06 0 1.13055e+06 4.13045e+06 0 1.11399e+06 4.11282e+06 0 1.09745e+06 4.09565e+06 0 1.08093e+06 4.07893e+06 0 1.06444e+06 4.06266e+06 0 1.04798e+06 4.0468e+06 0 1.03155e+06 4.03136e+06 0 1.01516e+06 4.01632e+06 0 998799 4.00166e+06 0 982475 3.98737e+06 0 966188 3.97345e+06 0 949938 3.95989e+06 0 933727 3.94666e+06 0 917555 3.93377e+06 0 901422 3.92121e+06 0 885329 3.90896e+06 0 869275 3.89702e+06 0 853262 3.88538e+06 0 837289 3.87403e+06 0 821356 3.86297e+06 0 805463 3.85219e+06 0 789609 3.84168e+06 0 773794 3.83143e+06 0 758018 3.82145e+06 0 742281 3.81172e+06 0 726582 3.80224e+06 0 710920 3.793e+06 0 695295 3.78399e+06 0 679706 3.77523e+06 0 664153 3.76668e+06 0 648634 3.75837e+06 0 633150 3.75027e+06 0 617699 3.74239e+06 0 602280 3.73472e+06 0 586893 3.72726e+06 0 571536 3.72e+06 0 556209 3.71294e+06 0 540911 3.70608e+06 0 525641 3.69942e+06 0 510398 3.69294e+06 0 495181 3.68665e+06 0 479988 3.68055e+06 0 464820 3.67463e+06 0 449674 3.66889e+06 0 434550 3.66332e+06 0 419446 3.65793e+06 0 404362 3.65272e+06 0 389296 3.64767e+06 0 374247 3.64279e+06 0 359214 3.63807e+06 0 344197 3.63352e+06 0 329192 3.62914e+06 0 314201 3.62491e+06 0 299220 3.62084e+06 0 284250 3.61693e+06 0 269288 3.61317e+06 0 254334 3.60957e+06 0 239386 3.60611e+06 0 224443 3.60281e+06 0 209504 3.59966e+06 0 194567 3.59666e+06 0 179631 3.5938e+06 0 164695 3.59109e+06 0 149758 3.58853e+06 0 134818 3.58611e+06 0 119873 3.58383e+06 0 104923 3.5817e+06 0 89966.2 3.5797e+06 0 75000.9 3.57785e+06 0 60025.8 3.57614e+06 0 45039.6 3.57457e+06 0 30040.9 3.57313e+06 0 15028.2 3.57184e+06 0 0 3.57068e+06 0 1.00311e+06 7.48913e+06 0 1.13775e+06 7.2301e+06 0 1.254e+06 7.01558e+06 0 1.349e+06 6.83148e+06 0 1.42545e+06 6.66882e+06 0 1.48677e+06 6.52228e+06 0 1.53586e+06 6.38855e+06 0 1.575e+06 6.26539e+06 0 1.60598e+06 6.15124e+06 0 1.63019e+06 6.0449e+06 0 1.64874e+06 5.94542e+06 0 1.66252e+06 5.85206e+06 0 1.67225e+06 5.7642e+06 0 1.67852e+06 5.68129e+06 0 1.68182e+06 5.6029e+06 0 1.68257e+06 5.52863e+06 0 1.6811e+06 5.45814e+06 0 1.6777e+06 5.39113e+06 0 1.67262e+06 5.32734e+06 0 1.66608e+06 5.26653e+06 0 1.65825e+06 5.20848e+06 0 1.6493e+06 5.15301e+06 0 1.63935e+06 5.09994e+06 0 1.62853e+06 5.04911e+06 0 1.61694e+06 5.00038e+06 0 1.60467e+06 4.95362e+06 0 1.5918e+06 4.90872e+06 0 1.5784e+06 4.86555e+06 0 1.56454e+06 4.82403e+06 0 1.55026e+06 4.78406e+06 0 1.53562e+06 4.74555e+06 0 1.52065e+06 4.70843e+06 0 1.50541e+06 4.67262e+06 0 1.48991e+06 4.63805e+06 0 1.4742e+06 4.60466e+06 0 1.4583e+06 4.5724e+06 0 1.44224e+06 4.5412e+06 0 1.42603e+06 4.51102e+06 0 1.4097e+06 4.48181e+06 0 1.39326e+06 4.45353e+06 0 1.37673e+06 4.42613e+06 0 1.36012e+06 4.39957e+06 0 1.34345e+06 4.37382e+06 0 1.32673e+06 4.34885e+06 0 1.30997e+06 4.32461e+06 0 1.29318e+06 4.30109e+06 0 1.27637e+06 4.27825e+06 0 1.25953e+06 4.25607e+06 0 1.24269e+06 4.23451e+06 0 1.22585e+06 4.21356e+06 0 1.20901e+06 4.1932e+06 0 1.19218e+06 4.17339e+06 0 1.17536e+06 4.15413e+06 0 1.15856e+06 4.13539e+06 0 1.14178e+06 4.11715e+06 0 1.12502e+06 4.0994e+06 0 1.10829e+06 4.08212e+06 0 1.09159e+06 4.0653e+06 0 1.07491e+06 4.04891e+06 0 1.05827e+06 4.03295e+06 0 1.04167e+06 4.01741e+06 0 1.0251e+06 4.00226e+06 0 1.00856e+06 3.9875e+06 0 992069 3.97312e+06 0 975613 3.9591e+06 0 959198 3.94543e+06 0 942823 3.93211e+06 0 926488 3.91913e+06 0 910195 3.90647e+06 0 893944 3.89413e+06 0 877734 3.8821e+06 0 861566 3.87037e+06 0 845439 3.85893e+06 0 829353 3.84778e+06 0 813309 3.83691e+06 0 797305 3.82631e+06 0 781342 3.81597e+06 0 765418 3.8059e+06 0 749534 3.79608e+06 0 733689 3.78651e+06 0 717882 3.77718e+06 0 702112 3.76809e+06 0 686380 3.75923e+06 0 670683 3.7506e+06 0 655022 3.7422e+06 0 639395 3.73401e+06 0 623802 3.72604e+06 0 608242 3.71828e+06 0 592714 3.71073e+06 0 577216 3.70338e+06 0 561749 3.69623e+06 0 546310 3.68928e+06 0 530900 3.68252e+06 0 515516 3.67595e+06 0 500158 3.66957e+06 0 484825 3.66337e+06 0 469515 3.65735e+06 0 454228 3.65151e+06 0 438963 3.64585e+06 0 423718 3.64036e+06 0 408492 3.63505e+06 0 393283 3.6299e+06 0 378092 3.62492e+06 0 362916 3.6201e+06 0 347754 3.61544e+06 0 332606 3.61095e+06 0 317469 3.60661e+06 0 302343 3.60244e+06 0 287226 3.59841e+06 0 272117 3.59454e+06 0 257015 3.59083e+06 0 241919 3.58726e+06 0 226826 3.58384e+06 0 211736 3.58057e+06 0 196648 3.57745e+06 0 181560 3.57447e+06 0 166470 3.57164e+06 0 151378 3.56895e+06 0 136282 3.5664e+06 0 121180 3.564e+06 0 106072 3.56173e+06 0 90955.2 3.5596e+06 0 75828.7 3.55761e+06 0 60691.2 3.55576e+06 0 45541 3.55405e+06 0 30376.7 3.55247e+06 0 15196.9 3.55103e+06 0 0 3.54972e+06 0 1.06342e+06 7.52181e+06 0 1.18997e+06 7.25979e+06 0 1.30015e+06 7.04074e+06 0 1.39104e+06 6.85226e+06 0 1.46455e+06 6.68581e+06 0 1.52363e+06 6.53607e+06 0 1.57089e+06 6.39962e+06 