<?xml version="1.0"?> 
<VTKFile type="StructuredGrid" version="0.1"> 
<StructuredGrid WholeExtent="0 127 0 127 0 0"> 
<Piece Extent="0 127 0 127 0 0"> 
<PointData>
<DataArray type="Float32" Name="E" format="ascii" NumberOfComponents="3"> 
-163389 1.11759e-08 0 -144836 -2.47383e-09 0 -139263 -4.77303e-09 0 -135850 7.6252e-09 0 -133592 -4.13274e-09 0 -131841 -9.8953e-10 0 -130450 -1.28057e-09 0 -129294 3.37604e-09 0 -128317 -4.30737e-09 0 -127477 4.5402e-09 0 -126747 -2.09548e-09 0 -126108 -1.86265e-09 0 -125544 3.95812e-09 0 -125046 -8.14907e-09 0 -124606 8.61473e-09 0 -124215 -1.21072e-08 0 -123870 4.42378e-09 0 -123565 0 0 -123298 9.31323e-10 0 -123065 -4.65661e-09 0 -122864 -2.32831e-10 0 -122692 -1.39698e-09 0 -122549 0 0 -122431 0 0 -122339 4.65661e-10 0 -122270 -4.65661e-10 0 -122224 9.31323e-10 0 -122201 4.65661e-10 0 -122198 -9.31323e-10 0 -122217 9.31323e-10 0 -122255 -4.65661e-10 0 -122313 2.79397e-09 0 -122391 -1.86265e-09 0 -122487 8.84756e-09 0 -122602 -9.31323e-09 0 -122735 5.58794e-09 0 -122887 -4.65661e-09 0 -123056 2.79397e-09 0 -123244 -3.72529e-09 0 -123450 2.79397e-09 0 -123673 -1.86265e-09 0 -123915 0 0 -124174 -9.31323e-10 0 -124452 9.31323e-10 0 -124747 -1.86265e-09 0 -125061 0 0 -125393 0 0 -125744 0 0 -126114 0 0 -126503 0 0 -126911 0 0 -127338 9.31323e-10 0 -127786 0 0 -128254 9.31323e-10 0 -128742 -9.31323e-10 0 -129251 0 0 -129782 0 0 -130335 0 0 -130910 9.31323e-10 0 -131507 9.31323e-10 0 -132129 0 0 -132774 9.31323e-10 0 -133443 -1.86265e-09 0 -134138 9.31323e-10 0 -134859 0 0 -135607 -9.31323e-10 0 -136382 1.86265e-09 0 -137185 -9.31323e-10 0 -138017 9.31323e-10 0 -138880 -9.31323e-10 0 -139773 0 0 -140698 -9.31323e-10 0 -141656 0 0 -142649 -9.31323e-10 0 -143677 0 0 -144741 -9.31323e-10 0 -145844 0 0 -146986 9.31323e-10 0 -148169 -1.86265e-09 0 -149395 1.86265e-09 0 -150665 3.72529e-09 0 -151982 -3.72529e-09 0 -153347 9.31323e-10 0 -154762 -9.31323e-10 0 -156231 0 0 -157754 1.86265e-09 0 -159335 -1.86265e-09 0 -160977 0 0 -162683 -1.86265e-09 0 -164455 -3.72529e-09 0 -166299 1.86265e-09 0 -168216 -5.58794e-09 0 -170213 1.86265e-09 0 -172292 -3.72529e-09 0 -174460 1.86265e-09 0 -176721 -3.72529e-09 0 -179083 3.72529e-09 0 -181550 -1.86265e-09 0 -184131 1.86265e-09 0 -186834 0 0 -189667 -1.86265e-09 0 -192641 1.86265e-09 0 -195767 0 0 -199057 3.72529e-09 0 -202526 -5.58794e-09 0 -206190 5.58794e-09 0 -210067 0 0 -214180 3.72529e-09 0 -218551 3.72529e-09 0 -223211 0 0 -228193 3.72529e-09 0 -233536 -5.58794e-09 0 -239290 9.31323e-09 0 -245512 -5.58794e-09 0 -252273 1.86265e-09 0 -259663 5.58794e-09 0 -267794 -1.86265e-09 0 -276812 1.86265e-09 0 -286909 0 0 -298349 -1.86265e-09 0 -311494 -1.86265e-09 0 -326912 3.72529e-09 0 -345383 -3.72529e-09 0 -368548 5.58794e-09 0 -398480 -5.58794e-09 0 -443280 5.58794e-09 0 -516210 -1.11759e-08 0 -742223 1.49012e-08 0 -142831 13383.3 0 -142046 5854.24 0 -138144 3642.17 0 -135438 2490.05 0 -133319 1895.23 0 -131678 1503.39 0 -130331 1238.72 0 -129207 1043.12 0 -128249 893.622 0 -127423 774.604 0 -126702 677.323 0 -126070 595.874 0 -125512 526.367 0 -125018 466.064 0 -124580 413.001 0 -124193 365.729 0 -123849 323.159 0 -123547 284.449 0 -123281 248.946 0 -123049 216.128 0 -122849 185.576 0 -122678 156.95 0 -122535 129.969 0 -122419 104.399 0 -122327 80.0438 0 -122259 56.7371 0 -122213 34.3363 0 -122190 12.7186 0 -122188 -8.22263 0 -122207 -28.5807 0 -122245 -48.438 0 -122304 -67.8675 0 -122381 -86.9346 0 -122478 -105.698 0 -122593 -124.211 0 -122726 -142.523 0 -122878 -160.677 0 -123047 -178.715 0 -123235 -196.676 0 -123441 -214.595 0 -123664 -232.506 0 -123906 -250.441 0 -124165 -268.431 0 -124443 -286.506 0 -124738 -304.694 0 -125052 -323.021 0 -125384 -341.517 0 -125735 -360.206 0 -126104 -379.116 0 -126493 -398.272 0 -126901 -417.7 0 -127328 -437.428 0 -127776 -457.48 0 -128243 -477.885 0 -128731 -498.669 0 -129241 -519.86 0 -129771 -541.487 0 -130323 -563.579 0 -130898 -586.166 0 -131496 -609.28 0 -132116 -632.953 0 -132761 -657.22 0 -133431 -682.115 0 -134125 -707.676 0 -134846 -733.943 0 -135593 -760.955 0 -136368 -788.757 0 -137170 -817.393 0 -138002 -846.914 0 -138864 -877.368 0 -139757 -908.813 0 -140681 -941.305 0 -141639 -974.907 0 -142631 -1009.68 0 -143658 -1045.71 0 -144722 -1083.06 0 -145824 -1121.82 0 -146965 -1162.07 0 -148148 -1203.91 0 -149373 -1247.44 0 -150642 -1292.78 0 -151958 -1340.05 0 -153322 -1389.38 0 -154736 -1440.91 0 -156203 -1494.81 0 -157725 -1551.25 0 -159305 -1610.41 0 -160945 -1672.5 0 -162649 -1737.76 0 -164420 -1806.45 0 -166261 -1878.84 0 -168177 -1955.24 0 -170171 -2036.02 0 -172248 -2121.57 0 -174413 -2212.32 0 -176671 -2308.77 0 -179029 -2411.49 0 -181493 -2521.12 0 -184070 -2638.37 0 -186768 -2764.09 0 -189596 -2899.24 0 -192565 -3044.91 0 -195684 -3202.4 0 -198967 -3373.21 0 -202428 -3559.12 0 -206083 -3762.2 0 -209949 -3984.96 0 -214049 -4230.39 0 -218407 -4502.14 0 -223049 -4804.66 0 -228011 -5143.44 0 -233331 -5525.38 0 -239055 -5959.2 0 -245242 -6456.13 0 -251959 -7030.83 0 -259293 -7702.87 0 -267352 -8498.78 0 -276274 -9455.76 0 -286243 -10626.7 0 -297499 -12091.9 0 -310388 -13970.6 0 -325377 -16473.5 0 -343243 -19915.8 0 -364979 -25061.8 0 -392954 -32960.2 0 -429035 -48106.4 0 -481059 -77132.2 0 -504963 -171797 0 -139027 12342.4 0 -137836 8858.56 0 -136204 6147.77 0 -134300 4591.67 0 -132641 3574.78 0 -131212 2897.37 0 -129999 2408.4 0 -128956 2042.7 0 -128052 1757.26 0 -127263 1528.03 0 -126570 1339.05 0 -125958 1179.98 0 -125415 1043.64 0 -124933 924.96 0 -124505 820.259 0 -124125 726.794 0 -123789 642.481 0 -123491 565.712 0 -123230 495.22 0 -123002 429.999 0 -122805 369.234 0 -122637 312.261 0 -122496 258.531 0 -122381 207.587 0 -122291 159.042 0 -122224 112.571 0 -122180 67.8915 0 -122158 24.7624 0 -122157 -17.027 0 -122176 -57.6611 0 -122216 -97.3028 0 -122275 -136.097 0 -122353 -174.172 0 -122450 -211.646 0 -122565 -248.624 0 -122699 -285.202 0 -122850 -321.469 0 -123020 -357.507 0 -123208 -393.393 0 -123414 -429.197 0 -123637 -464.987 0 -123879 -500.827 0 -124138 -536.778 0 -124415 -572.899 0 -124711 -609.247 0 -125024 -645.875 0 -125356 -682.839 0 -125707 -720.192 0 -126076 -757.985 0 -126464 -796.271 0 -126872 -835.102 0 -127299 -874.53 0 -127745 -914.609 0 -128212 -955.391 0 -128700 -996.931 0 -129208 -1039.28 0 -129738 -1082.51 0 -130290 -1126.66 0 -130864 -1171.8 0 -131460 -1218 0 -132080 -1265.31 0 -132724 -1313.81 0 -133393 -1363.56 0 -134086 -1414.65 0 -134806 -1467.14 0 -135552 -1521.12 0 -136325 -1576.68 0 -137127 -1633.9 0 -137957 -1692.89 0 -138817 -1753.75 0 -139709 -1816.58 0 -140632 -1881.5 0 -141588 -1948.64 0 -142578 -2018.12 0 -143603 -2090.1 0 -144665 -2164.71 0 -145764 -2242.14 0 -146903 -2322.54 0 -148083 -2406.12 0 -149306 -2493.08 0 -150572 -2583.64 0 -151885 -2678.04 0 -153246 -2776.56 0 -154657 -2879.47 0 -156120 -2987.09 0 -157638 -3099.77 0 -159214 -3217.88 0 -160849 -3341.84 0 -162548 -3472.11 0 -164314 -3609.19 0 -166149 -3753.66 0 -168059 -3906.12 0 -170046 -4067.29 0 -172115 -4237.94 0 -174272 -4418.94 0 -176522 -4611.29 0 -178870 -4816.09 0 -181323 -5034.61 0 -183888 -5268.29 0 -186572 -5518.78 0 -189386 -5787.97 0 -192337 -6078.03 0 -195438 -6391.52 0 -198700 -6731.38 0 -202137 -7101.1 0 -205764 -7504.78 0 -209599 -7947.32 0 -213662 -8434.58 0 -217977 -8973.67 0 -222570 -9573.24 0 -227473 -10244 0 -232722 -10999.2 0 -238361 -11855.8 0 -244443 -12835.2 0 -251031 -13965.3 0 -258203 -15283.3 0 -266053 -16838.9 0 -274702 -18700.9 0 -284301 -20966.7 0 -295050 -23777.5 0 -307200 -27349.9 0 -321099 -32013.3 0 -337162 -38346.3 0 -356000 -47248.9 0 -377912 -60709.1 0 -403073 -81578.9 0 -425532 -117861 0 -439192 -168257 0 -135345 12644.6 0 -135174 9891.44 0 -134170 7736.27 0 -132952 6116.74 0 -131700 4957.01 0 -130541 4103.53 0 -129496 3461.86 0 -128567 2963.45 0 -127741 2566.28 0 -127009 2241.87 0 -126357 1971.38 0 -125776 1741.65 0 -125258 1543.44 0 -124795 1370.01 0 -124383 1216.37 0 -124015 1078.77 0 -123689 954.309 0 -123400 840.732 0 -123145 736.251 0 -122923 639.434 0 -122731 549.116 0 -122568 464.341 0 -122431 384.318 0 -122319 308.382 0 -122232 235.975 0 -122167 166.617 0 -122126 99.9004 0 -122105 35.4698 0 -122106 -26.9839 0 -122126 -87.7317 0 -122167 -147.013 0 -122227 -205.043 0 -122305 -262.01 0 -122403 -318.089 0 -122519 -373.435 0 -122653 -428.191 0 -122805 -482.49 0 -122975 -536.452 0 -123163 -590.19 0 -123369 -643.812 0 -123593 -697.418 0 -123834 -751.102 0 -124093 -804.956 0 -124370 -859.066 0 -124665 -913.518 0 -124978 -968.394 0 -125310 -1023.77 0 -125660 -1079.74 0 -126028 -1136.36 0 -126416 -1193.72 0 -126823 -1251.91 0 -127249 -1310.98 0 -127695 -1371.03 0 -128161 -1432.14 0 -128647 -1494.38 0 -129155 -1557.84 0 -129684 -1622.6 0 -130234 -1688.76 0 -130807 -1756.39 0 -131402 -1825.6 0 -132021 -1896.49 0 -132663 -1969.15 0 -133330 -2043.68 0 -134022 -2120.21 0 -134739 -2198.85 0 -135483 -2279.71 0 -136255 -2362.93 0 -137054 -2448.65 0 -137882 -2537.01 0 -138740 -2628.15 0 -139629 -2722.25 0 -140549 -2819.48 0 -141502 -2920.02 0 -142489 -3024.07 0 -143511 -3131.84 0 -144570 -3243.56 0 -145666 -3359.48 0 -146801 -3479.85 0 -147977 -3604.96 0 -149195 -3735.11 0 -150457 -3870.65 0 -151765 -4011.93 0 -153120 -4159.34 0 -154525 -4313.31 0 -155982 -4474.32 0 -157494 -4642.86 0 -159062 -4819.51 0 -160691 -5004.88 0 -162381 -5199.65 0 -164138 -5404.57 0 -165964 -5620.48 0 -167863 -5848.31 0 -169839 -6089.08 0 -171896 -6343.96 0 -174039 -6614.24 0 -176274 -6901.36 0 -178606 -7206.99 0 -181041 -7532.98 0 -183586 -7881.44 0 -186248 -8254.81 0 -189037 -8655.86 0 -191961 -9087.8 0 -195031 -9554.33 0 -198258 -10059.8 0 -201655 -10609.2 0 -205237 -11208.6 0 -209021 -11865.1 0 -213025 -12587.2 0 -217270 -13385 0 -221782 -14271 0 -226589 -15260.5 0 -231724 -16372.4 0 -237226 -17630.4 0 -243142 -19064.7 0 -249524 -20713.9 0 -256438 -22628.8 0 -263961 -24876.7 0 -272186 -27548.8 0 -281224 -30771.1 0 -291210 -34722.3 0 -302297 -39659.9 0 -314648 -45971.9 0 -328418 -54235.9 0 -343601 -65382.9 0 -359891 -80743.2 0 -375707 -102409 0 -388276 -131853 0 -390169 -169515 0 -133233 12462.1 0 -132981 10501.4 0 -132414 8686.19 0 -131584 7207.12 0 -130667 6030.04 0 -129748 5106.6 0 -128878 4374.27 0 -128073 3785.53 0 -127339 3303.71 0 -126674 2902.7 0 -126073 2563.45 0 -125532 2272.18 0 -125045 2018.71 0 -124608 1795.44 0 -124215 1596.58 0 -123864 1417.7 0 -123551 1255.32 0 -123274 1106.7 0 -123029 969.656 0 -122815 842.398 0 -122630 723.476 0 -122472 611.687 0 -122340 506.03 0 -122233 405.661 0 -122149 309.865 0 -122088 218.03 0 -122049 129.629 0 -122031 44.2049 0 -122034 -38.6426 0 -122056 -119.265 0 -122098 -197.974 0 -122160 -275.048 0 -122240 -350.735 0 -122338 -425.263 0 -122455 -498.834 0 -122589 -571.638 0 -122742 -643.846 0 -122913 -715.618 0 -123101 -787.104 0 -123306 -858.444 0 -123530 -929.77 0 -123771 -1001.21 0 -124030 -1072.88 0 -124307 -1144.89 0 -124601 -1217.37 0 -124914 -1290.41 0 -125245 -1364.12 0 -125594 -1438.62 0 -125962 -1514 0 -126348 -1590.36 0 -126754 -1667.82 0 -127179 -1746.46 0 -127624 -1826.4 0 -128089 -1907.75 0 -128574 -1990.61 0 -129080 -2075.09 0 -129607 -2161.3 0 -130156 -2249.37 0 -130727 -2339.4 0 -131320 -2431.53 0 -131937 -2525.89 0 -132577 -2622.6 0 -133242 -2721.81 0 -133931 -2823.67 0 -134646 -2928.33 0 -135388 -3035.95 0 -136156 -3146.7 0 -136952 -3260.76 0 -137777 -3378.33 0 -138632 -3499.61 0 -139517 -3624.8 0 -140434 -3754.15 0 -141383 -3887.9 0 -142366 -4026.3 0 -143383 -4169.64 0 -144437 -4318.22 0 -145528 -4472.37 0 -146658 -4632.42 0 -147828 -4798.75 0 -149040 -4971.78 0 -150295 -5151.93 0 -151596 -5339.69 0 -152944 -5535.57 0 -154342 -5740.14 0 -155790 -5954.01 0 -157293 -6177.86 0 -158852 -6412.42 0 -160469 -6658.52 0 -162149 -6917.04 0 -163893 -7188.97 0 -165706 -7475.41 0 -167590 -7777.56 0 -169550 -8096.8 0 -171590 -8434.61 0 -173715 -8792.7 0 -175929 -9172.97 0 -178238 -9577.56 0 -180648 -10008.9 0 -183166 -10469.7 0 -185798 -10963.2 0 -188553 -11492.9 0 -191440 -12063 0 -194467 -12678.3 0 -197646 -13344.3 0 -200990 -14067.5 0 -204510 -14855.6 0 -208223 -15717.6 0 -212146 -16664.3 0 -216297 -17708.5 0 -220700 -18865.8 0 -225378 -20155.3 0 -230361 -21600.4 0 -235681 -23230 0 -241375 -25080.8 0 -247488 -27199.2 0 -254067 -29644.7 0 -261171 -32495.3 0 -268861 -35853.9 0 -277206 -39858.6 0 -286274 -44697.2 0 -296124 -50629.3 0 -306781 -58013 0 -318174 -67350.8 0 -330055 -79304.4 0 -341747 -94740.4 0 -352027 -114401 0 -358518 -138768 0 -359675 -165635 0 -131358 12474.7 0 -131266 10827.3 0 -130878 9311.38 0 -130306 7977.77 0 -129624 6853.27 0 -128905 5918.8 0 -128191 5145.48 0 -127507 4501.92 0 -126867 3961.47 0 -126274 3502.47 0 -125731 3108.07 0 -125235 2765.28 0 -124784 2464.05 0 -124375 2196.63 0 -124006 1956.94 0 -123675 1740.21 0 -123378 1542.64 0 -123115 1361.16 0 -122882 1193.31 0 -122677 1037.06 0 -122501 890.729 0 -122350 752.923 0 -122225 622.471 0 -122123 498.381 0 -122044 379.806 0 -121987 266.018 0 -121952 156.389 0 -121937 50.3692 0 -121942 -52.5213 0 -121967 -152.707 0 -122011 -250.566 0 -122074 -346.436 0 -122155 -440.619 0 -122255 -533.39 0 -122373 -625 0 -122508 -715.678 0 -122661 -805.636 0 -122832 -895.07 0 -123020 -984.164 0 -123226 -1073.09 0 -123450 -1162.01 0 -123691 -1251.08 0 -123949 -1340.45 0 -124225 -1430.26 0 -124519 -1520.65 0 -124831 -1611.75 0 -125161 -1703.7 0 -125510 -1796.62 0 -125876 -1890.65 0 -126262 -1985.91 0 -126666 -2082.53 0 -127090 -2180.64 0 -127533 -2280.37 0 -127997 -2381.85 0 -128480 -2485.22 0 -128984 -2590.61 0 -129509 -2698.16 0 -130056 -2808.01 0 -130624 -2920.32 0 -131215 -3035.24 0 -131829 -3152.93 0 -132467 -3273.56 0 -133129 -3397.3 0 -133815 -3524.33 0 -134527 -3654.85 0 -135265 -3789.05 0 -136030 -3927.15 0 -136822 -4069.37 0 -137643 -4215.95 0 -138494 -4367.14 0 -139374 -4523.2 0 -140286 -4684.43 0 -141230 -4851.12 0 -142207 -5023.6 0 -143219 -5202.21 0 -144267 -5387.33 0 -145352 -5579.35 0 -146475 -5778.7 0 -147637 -5985.86 0 -148842 -6201.31 0 -150089 -6425.61 0 -151381 -6659.33 0 -152719 -6903.11 0 -154107 -7157.66 0 -155545 -7423.73 0 -157036 -7702.15 0 -158582 -7993.82 0 -160186 -8299.75 0 -161851 -8621.03 0 -163580 -8958.88 0 -165376 -9314.63 0 -167242 -9689.76 0 -169182 -10085.9 0 -171200 -10505 0 -173301 -10949 0 -175490 -11420.3 0 -177770 -11921.4 0 -180149 -12455.4 0 -182632 -13025.4 0 -185226 -13635.4 0 -187939 -14289.7 0 -190777 -14993.2 0 -193752 -15751.7 0 -196871 -16571.8 0 -200147 -17461.2 0 -203591 -18428.9 0 -207216 -19485.7 0 -211039 -20644.2 0 -215074 -21919.3 0 -219343 -23329 0 -223864 -24895.3 0 -228661 -26644.7 0 -233761 -28609.9 0 -239192 -30831.3 0 -244985 -33359.7 0 -251175 -36259.1 0 -257796 -39610.9 0 -264883 -43520 0 -272464 -48122.1 0 -280554 -53594 0 -289138 -60165.1 0 -298145 -68131.6 0 -307402 -77860.5 0 -316551 -89785.4 0 -324981 -104319 0 -331690 -121728 0 -335529 -141700 0 -335069 -163339 0 -129882 12425.5 0 -129801 11050.4 0 -129541 9733.05 0 -129128 8537.51 0 -128617 7482.62 0 -128053 6570.28 0 -127472 5787.27 0 -126898 5116.04 0 -126347 4538.43 0 -125826 4038.18 0 -125341 3601.51 0 -124892 3217.11 0 -124479 2875.83 0 -124103 2570.26 0 -123760 2294.49 0 -123451 2043.68 0 -123173 1813.94 0 -122925 1602.06 0 -122705 1405.42 0 -122513 1221.84 0 -122346 1049.49 0 -122204 886.829 0 -122086 732.57 0 -121990 585.601 0 -121917 444.971 0 -121865 309.858 0 -121834 179.547 0 -121822 53.4117 0 -121831 -69.0984 0 -121858 -188.472 0 -121905 -305.145 0 -121970 -419.507 0 -122053 -531.911 0 -122154 -642.676 0 -122272 -752.096 0 -122409 -860.437 0 -122563 -967.949 0 -122734 -1074.86 0 -122923 -1181.39 0 -123129 -1287.74 0 -123352 -1394.1 0 -123593 -1500.65 0 -123851 -1607.58 0 -124126 -1715.04 0 -124420 -1823.21 0 -124731 -1932.24 0 -125060 -2042.29 0 -125407 -2153.52 0 -125772 -2266.07 0 -126157 -2380.1 0 -126559 -2495.76 0 -126981 -2613.21 0 -127423 -2732.59 0 -127884 -2854.07 0 -128365 -2977.81 0 -128867 -3103.96 0 -129390 -3232.7 0 -129934 -3364.2 0 -130499 -3498.63 0 -131088 -3636.18 0 -131698 -3777.04 0 -132333 -3921.41 0 -132991 -4069.49 0 -133674 -4221.51 0 -134381 -4377.68 0 -135115 -4538.25 0 -135876 -4703.48 0 -136664 -4873.62 0 -137480 -5048.96 0 -138325 -5229.79 0 -139200 -5416.44 0 -140106 -5609.24 0 -141044 -5808.56 0 -142015 -6014.76 0 -143020 -6228.27 0 -144060 -6449.53 0 -145137 -6679 0 -146251 -6917.2 0 -147405 -7164.67 0 -148600 -7422.01 0 -149837 -7689.86 0 -151119 -7968.91 0 -152446 -8259.91 0 -153821 -8563.68 0 -155246 -8881.11 0 -156723 -9213.19 0 -158254 -9560.98 0 -159842 -9925.64 0 -161490 -10308.5 0 -163200 -10710.9 0 -164975 -11134.5 0 -166819 -11580.9 0 -168735 -12052.2 0 -170728 -12550.5 0 -172800 -13078.1 0 -174958 -13637.8 0 -177204 -14232.5 0 -179546 -14865.8 0 -181987 -15541.3 0 -184536 -16263.5 0 -187197 -17037.4 0 -189980 -17868.5 0 -192891 -18763.6 0 -195940 -19730 0 -199136 -20776.6 0 -202490 -21913.5 0 -206013 -23152.6 0 -209718 -24507.8 0 -213620 -25995.9 0 -217733 -27636.4 0 -222074 -29453.1 0 -226660 -31474.4 0 -231511 -33734.8 0 -236647 -36276.7 0 -242088 -39151.8 0 -247852 -42424.2 0 -253956 -46173.5 0 -260410 -50498.8 0 -267209 -55523.5 0 -274331 -61400.6 0 -281714 -68317 0 -289237 -76493.8 0 -296688 -86178.9 0 -303725 -97613.9 0 -309835 -110978 0 -314360 -126249 0 -316523 -143132 0 -315826 -160745 0 -128583 12402.7 0 -128540 11195.2 0 -128353 10033.6 0 -128050 8950.8 0 -127660 7967.99 0 -127215 7091.27 0 -126743 6317.25 0 -126265 5636.73 0 -125795 5038.36 0 -125342 4510.64 0 -124914 4042.97 0 -124512 3626.08 0 -124139 3252.06 0 -123796 2914.27 0 -123481 2607.18 0 -123196 2326.17 0 -122938 2067.44 0 -122707 1827.78 0 -122502 1604.53 0 -122322 1395.43 0 -122166 1198.58 0 -122034 1012.36 0 -121924 835.398 0 -121836 666.498 0 -121769 504.633 0 -121722 348.907 0 -121695 198.538 0 -121688 52.8372 0 -121700 -88.8054 0 -121731 -226.932 0 -121780 -362.029 0 -121847 -494.532 0 -121932 -624.837 0 -122035 -753.306 0 -122155 -880.267 0 -122292 -1006.02 0 -122447 -1130.86 0 -122619 -1255.03 0 -122808 -1378.8 0 -123014 -1502.38 0 -123237 -1625.99 0 -123477 -1749.86 0 -123735 -1874.17 0 -124010 -1999.13 0 -124302 -2124.91 0 -124612 -2251.72 0 -124940 -2379.71 0 -125286 -2509.09 0 -125650 -2640.01 0 -126032 -2772.65 0 -126433 -2907.2 0 -126853 -3043.83 0 -127292 -3182.71 0 -127751 -3324.03 0 -128230 -3467.98 0 -128729 -3614.73 0 -129249 -3764.49 0 -129790 -3917.45 0 -130352 -4073.82 0 -130937 -4233.81 0 -131544 -4397.64 0 -132174 -4565.55 0 -132828 -4737.76 0 -133507 -4914.53 0 -134210 -5096.12 0 -134939 -5282.81 0 -135694 -5474.89 0 -136477 -5672.67 0 -137287 -5876.48 0 -138126 -6086.64 0 -138995 -6303.54 0 -139894 -6527.55 0 -140824 -6759.1 0 -141788 -6998.62 0 -142785 -7246.59 0 -143816 -7503.51 0 -144884 -7769.93 0 -145989 -8046.43 0 -147133 -8333.63 0 -148317 -8632.22 0 -149542 -8942.92 0 -150811 -9266.54 0 -152125 -9603.94 0 -153486 -9956.04 0 -154895 -10323.9 0 -156356 -10708.5 0 -157870 -11111.3 0 -159439 -11533.4 0 -161066 -11976.4 0 -162754 -12441.8 0 -164506 -12931.5 0 -166324 -13447.3 0 -168213 -13991.6 0 -170175 -14566.7 0 -172215 -15175.2 0 -174336 -15820.3 0 -176544 -16505.3 0 -178842 -17233.9 0 -181236 -18010.5 0 -183732 -18840 0 -186336 -19727.8 0 -189054 -20680.1 0 -191893 -21704.3 0 -194862 -22808.4 0 -197967 -24002 0 -201220 -25296.1 0 -204628 -26703.5 0 -208202 -28239.1 0 -211954 -29920.5 0 -215896 -31768.3 0 -220038 -33807 0 -224395 -36065.9 0 -228977 -38579.7 0 -233798 -41390.5 0 -238867 -44548.6 0 -244189 -48115.1 0 -249766 -52163.4 0 -255587 -56782.1 0 -261628 -62077 0 -267840 -68172.6 0 -274136 -75211.2 0 -280380 -83347.2 0 -286363 -92732.7 0 -291790 -103489 0 -296275 -115658 0 -299357 -129138 0 -300596 -143618 0 -299620 -158573 0 -127447 12371.2 0 -127419 11297 0 -127285 10251.5 0 -127057 9262.34 0 -126757 8345.3 0 -126404 7508.69 0 -126021 6753.3 0 -125623 6075.19 0 -125225 5467.72 0 -124835 4923.19 0 -124459 4433.83 0 -124104 3992.35 0 -123770 3592.22 0 -123460 3227.71 0 -123174 2893.87 0 -122913 2586.49 0 -122676 2301.94 0 -122463 2037.16 0 -122274 1789.52 0 -122107 1556.8 0 -121963 1337.06 0 -121841 1128.67 0 -121740 930.184 0 -121660 740.378 0 -121600 558.169 0 -121559 382.611 0 -121538 212.872 0 -121535 48.2126 0 -121551 -112.021 0 -121585 -268.417 0 -121637 -421.501 0 -121707 -571.75 0 -121794 -719.598 0 -121898 -865.44 0 -122020 -1009.64 0 -122158 -1152.53 0 -122314 -1294.43 0 -122486 -1435.62 0 -122675 -1576.38 0 -122881 -1716.97 0 -123104 -1857.64 0 -123344 -1998.61 0 -123601 -2140.12 0 -123876 -2282.38 0 -124167 -2425.6 0 -124476 -2570 0 -124802 -2715.76 0 -125147 -2863.11 0 -125509 -3012.22 0 -125889 -3163.31 0 -126288 -3316.57 0 -126706 -3472.2 0 -127143 -3630.4 0 -127599 -3791.38 0 -128075 -3955.34 0 -128570 -4122.5 0 -129087 -4293.08 0 -129624 -4467.3 0 -130183 -4645.4 0 -130764 -4827.61 0 -131367 -5014.18 0 -131993 -5205.37 0 -132642 -5401.46 0 -133315 -5602.72 0 -134013 -5809.46 0 -134737 -6021.98 0 -135486 -6240.62 0 -136262 -6465.71 0 -137066 -6697.63 0 -137898 -6936.76 0 -138759 -7183.52 0 -139650 -7438.33 0 -140573 -7701.68 0 -141527 -7974.04 0 -142515 -8255.97 0 -143537 -8548.01 0 -144594 -8850.79 0 -145688 -9164.95 0 -146820 -9491.2 0 -147991 -9830.31 0 -149203 -10183.1 0 -150458 -10550.4 0 -151757 -10933.3 0 -153101 -11332.7 0 -154494 -11749.8 0 -155936 -12185.8 0 -157430 -12642.2 0 -158978 -13120.3 0 -160582 -13621.8 0 -162245 -14148.5 0 -163970 -14702.3 0 -165760 -15285.4 0 -167617 -15900.2 0 -169545 -16549.4 0 -171548 -17235.8 0 -173629 -17962.9 0 -175792 -18734.3 0 -178042 -19554.2 0 -180383 -20427.1 0 -182821 -21358.3 0 -185360 -22353.7 0 -188006 -23420.1 0 -190766 -24565.1 0 -193646 -25797.4 0 -196653 -27127.2 0 -199794 -28565.8 0 -203077 -30126.6 0 -206509 -31825.1 0 -210100 -33679.2 0 -213857 -35709.8 0 -217789 -37941.6 0 -221903 -40403.3 0 -226206 -43128.9 0 -230701 -46158.3 0 -235391 -49538.9 0 -240270 -53326.1 0 -245328 -57585.1 0 -250542 -62391.6 0 -255872 -67832.1 0 -261256 -74002.9 0 -266600 -81006.8 0 -271769 -88944.9 0 -276578 -97902.8 0 -280788 -107927 0 -284109 -118996 0 -286232 -130979 0 -286867 -143632 0 -285830 -156544 0 -126421 12342.1 0 -126408 11366.3 0 -126311 10412.8 0 -126138 9499.96 0 -125904 8641.11 0 -125624 7844.04 0 -125312 7111.59 0 -124982 6442.78 0 -124646 5834.1 0 -124311 5280.63 0 -123986 4776.89 0 -123673 4317.37 0 -123377 3896.85 0 -123099 3510.56 0 -122842 3154.2 0 -122605 2824.03 0 -122390 2516.73 0 -122196 2229.43 0 -122022 1959.65 0 -121870 1705.21 0 -121739 1464.24 0 -121627 1235.08 0 -121536 1016.31 0 -121464 806.679 0 -121411 605.069 0 -121377 410.509 0 -121361 222.134 0 -121364 39.1713 0 -121384 -139.069 0 -121422 -313.206 0 -121477 -483.803 0 -121549 -651.366 0 -121639 -816.361 0 -121745 -979.213 0 -121868 -1140.31 0 -122007 -1300.03 0 -122164 -1458.7 0 -122337 -1616.63 0 -122526 -1774.14 0 -122732 -1931.5 0 -122955 -2088.97 0 -123195 -2246.83 0 -123451 -2405.31 0 -123724 -2564.67 0 -124015 -2725.12 0 -124322 -2886.9 0 -124647 -3050.24 0 -124989 -3215.35 0 -125350 -3382.46 0 -125728 -3551.79 0 -126124 -3723.56 0 -126539 -3897.99 0 -126973 -4075.31 0 -127426 -4255.73 0 -127899 -4439.5 0 -128391 -4626.85 0 -128904 -4818.03 0 -129437 -5013.28 0 -129992 -5212.86 0 -130568 -5417.04 0 -131166 -5626.09 0 -131787 -5840.31 0 -132431 -6059.99 0 -133099 -6285.45 0 -133791 -6517.02 0 -134508 -6755.04 0 -135251 -6999.88 0 -136020 -7251.92 0 -136816 -7511.57 0 -137640 -7779.26 0 -138493 -8055.44 0 -139376 -8340.59 0 -140289 -8635.23 0 -141233 -8939.92 0 -142211 -9255.22 0 -143222 -9581.78 0 -144267 -9920.26 0 -145349 -10271.4 0 -146467 -10635.9 0 -147625 -11014.7 0 -148822 -11408.7 0 -150061 -11818.8 0 -151343 -12246 0 -152670 -12691.6 0 -154043 -13156.8 0 -155464 -13642.9 0 -156936 -14151.4 0 -158460 -14683.8 0 -160039 -15242.1 0 -161675 -15828 0 -163370 -16443.8 0 -165127 -17091.7 0 -166950 -17774.4 0 -168841 -18494.8 0 -170803 -19255.9 0 -172839 -20061.3 0 -174954 -20915 0 -177151 -21821.4 0 -179434 -22785.3 0 -181808 -23812.4 0 -184277 -24908.8 0 -186846 -26081.6 0 -189520 -27338.7 0 -192304 -28689.3 0 -195204 -30143.6 0 -198226 -31713.5 0 -201376 -33412.4 0 -204658 -35255.8 0 -208079 -37261.8 0 -211644 -39450.9 0 -215358 -41846.9 0 -219223 -44477.6 0 -223241 -47375 0 -227410 -50576.1 0 -231724 -54123.6 0 -236172 -58066.6 0 -240734 -62460.7 0 -245378 -67368.2 0 -250058 -72857.3 0 -254706 -78999.4 0 -259231 -85865.1 0 -263510 -93516.3 0 -267385 -101994 0 -270667 -111304 0 -273145 -121395 0 -274601 -132142 0 -274853 -143343 0 -273774 -154713 0 -125485 12310.4 0 -125482 11413.2 0 -125412 10532.6 0 -125281 9682.79 0 -125098 8874.28 0 -124874 8114.12 0 -124620 7405.81 0 -124348 6749.99 0 -124065 6145.13 0 -123780 5588.28 0 -123498 5075.73 0 -123226 4603.43 0 -122965 4167.32 0 -122719 3763.52 0 -122489 3388.42 0 -122276 3038.74 0 -122082 2711.56 0 -121907 2404.24 0 -121750 2114.47 0 -121613 1840.19 0 -121494 1579.61 0 -121394 1331.13 0 -121312 1093.33 0 -121249 864.968 0 -121204 644.932 0 -121176 432.235 0 -121167 225.993 0 -121174 25.4157 0 -121199 -170.211 0 -121241 -361.532 0 -121299 -549.132 0 -121374 -733.546 0 -121466 -915.263 0 -121574 -1094.73 0 -121699 -1272.38 0 -121840 -1448.58 0 -121997 -1623.7 0 -122171 -1798.08 0 -122361 -1972.04 0 -122567 -2145.9 0 -122789 -2319.93 0 -123028 -2494.42 0 -123284 -2669.64 0 -123556 -2845.85 0 -123845 -3023.3 0 -124151 -3202.25 0 -124474 -3382.94 0 -124814 -3565.6 0 -125172 -3750.49 0 -125548 -3937.84 0 -125942 -4127.9 0 -126354 -4320.9 0 -126785 -4517.1 0 -127235 -4716.75 0 -127703 -4920.09 0 -128192 -5127.38 0 -128701 -5338.9 0 -129230 -5554.92 0 -129779 -5775.72 0 -130350 -6001.59 0 -130943 -6232.84 0 -131559 -6469.78 0 -132197 -6712.74 0 -132858 -6962.07 0 -133544 -7218.13 0 -134254 -7481.29 0 -134989 -7751.95 0 -135750 -8030.53 0 -136538 -8317.49 0 -137354 -8613.27 0 -138198 -8918.39 0 -139071 -9233.36 0 -139973 -9558.76 0 -140907 -9895.17 0 -141873 -10243.2 0 -142872 -10603.6 0 -143904 -10977.1 0 -144972 -11364.4 0 -146077 -11766.4 0 -147219 -12184 0 -148400 -12618.2 0 -149621 -13070 0 -150884 -13540.5 0 -152191 -14031 0 -153543 -14542.9 0 -154942 -15077.5 0 -156389 -15636.5 0 -157888 -16221.6 0 -159439 -16834.7 0 -161044 -17477.8 0 -162707 -18153.2 0 -164430 -18863.4 0 -166215 -19611.1 0 -168065 -20399.4 0 -169983 -21231.7 0 -171971 -22111.5 0 -174034 -23043.2 0 -176174 -24031.1 0 -178395 -25080.6 0 -180700 -26197.3 0 -183094 -27387.6 0 -185580 -28658.9 0 -188163 -30019.1 0 -190846 -31477.6 0 -193634 -33044.8 0 -196531 -34732.4 0 -199541 -36553.8 0 -202668 -38524.5 0 -205915 -40661.7 0 -209283 -42985.3 0 -212775 -45518.1 0 -216390 -48285.9 0 -220124 -51318.1 0 -223972 -54648.2 0 -227922 -58313.7 0 -231958 -62356.7 0 -236054 -66823.4 0 -240175 -71763.5 0 -244270 -77228.8 0 -248275 -83270.3 0 -252104 -89934.1 0 -255649 -97254.4 0 -258780 -105245 0 -261351 -113888 0 -263204 -123124 0 -264188 -132840 0 -264177 -142878 0 -263097 -153019 0 -124618 12277.3 0 -124624 11442.7 0 -124576 10621.2 0 -124476 9823.74 0 -124333 9058.58 0 -124154 8331.85 0 -123948 7647.18 0 -123722 7006 0 -123485 6407.99 0 -123244 5851.57 0 -123002 5334.3 0 -122766 4853.31 0 -122538 4405.5 0 -122322 3987.81 0 -122118 3597.24 0 -121929 3231.01 0 -121756 2886.55 0 -121599 2561.53 0 -121459 2253.81 0 -121336 1961.51 0 -121230 1682.92 0 -121142 1416.51 0 -121070 1160.93 0 -121016 914.946 0 -120979 677.469 0 -120958 447.515 0 -120955 224.198 0 -120968 6.7172 0 -120997 -205.653 0 -121043 -413.571 0 -121105 -617.642 0 -121183 -818.418 0 -121277 -1016.41 0 -121388 -1212.08 0 -121514 -1405.87 0 -121656 -1598.2 0 -121814 -1789.43 0 -121988 -1979.94 0 -122178 -2170.06 0 -122385 -2360.12 0 -122607 -2550.43 0 -122845 -2741.29 0 -123100 -2932.98 0 -123371 -3125.79 0 -123658 -3320 0 -123963 -3515.86 0 -124284 -3713.65 0 -124622 -3913.63 0 -124977 -4116.05 0 -125351 -4321.18 0 -125741 -4529.29 0 -126150 -4740.62 0 -126578 -4955.46 0 -127023 -5174.06 0 -127488 -5396.71 0 -127973 -5623.69 0 -128477 -5855.28 0 -129001 -6091.79 0 -129545 -6333.51 0 -130111 -6580.77 0 -130698 -6833.9 0 -131307 -7093.24 0 -131939 -7359.13 0 -132594 -7631.97 0 -133272 -7912.13 0 -133974 -8200.03 0 -134702 -8496.1 0 -135454 -8800.78 0 -136233 -9114.57 0 -137039 -9437.95 0 -137873 -9771.48 0 -138736 -10115.7 0 -139627 -10471.3 0 -140549 -10838.8 0 -141502 -11218.9 0 -142488 -11612.4 0 -143507 -12020.1 0 -144560 -12442.8 0 -145648 -12881.3 0 -146773 -13336.7 0 -147937 -13810.1 0 -149139 -14302.4 0 -150382 -14815 0 -151668 -15349.1 0 -152997 -15906.2 0 -154371 -16487.9 0 -155792 -17095.7 0 -157263 -17731.5 0 -158783 -18397.3 0 -160357 -19095.3 0 -161985 -19827.8 0 -163671 -20597.5 0 -165415 -21407.3 0 -167222 -22260.2 0 -169092 -23159.9 0 -171030 -24110 0 -173037 -25115 0 -175116 -26179.5 0 -177271 -27308.7 0 -179504 -28508.6 0 -181819 -29785.7 0 -184218 -31147.2 0 -186705 -32601.4 0 -189283 -34157.5 0 -191955 -35825.7 0 -194723 -37617.6 0 -197591 -39546.4 0 -200558 -41626.8 0 -203628 -43875.5 0 -206799 -46311.1 0 -210070 -48954.8 0 -213437 -51830.2 0 -216894 -54963.9 0 -220431 -58385.3 0 -224034 -62126.8 0 -227683 -66223.4 0 -231348 -70712.6 0 -234994 -75633.1 0 -238571 -81022.9 0 -242017 -86916.9 0 -245256 -93343.1 0 -248197 -100317 0 -250734 -107836 0 -252753 -115871 0 -254135 -124363 0 -254774 -133214 0 -254583 -142297 0 -253512 -151448 0 -123809 12242.1 0 -123822 11458.6 0 -123790 10685.7 0 -123716 9931.98 0 -123604 9204.05 0 -123462 8507.17 0 -123294 7844.75 0 -123109 7218.61 0 -122911 6629.12 0 -122707 6075.6 0 -122501 5556.55 0 -122298 5069.97 0 -122101 4613.58 0 -121912 4184.98 0 -121733 3781.74 0 -121567 3401.53 0 -121414 3042.15 0 -121275 2701.52 0 -121151 2377.77 0 -121042 2069.14 0 -120950 1774.06 0 -120872 1491.09 0 -120811 1218.94 0 -120766 956.43 0 -120737 702.494 0 -120724 456.168 0 -120726 216.575 0 -120745 -17.0846 0 -120779 -245.538 0 -120829 -469.454 0 -120895 -689.443 0 -120976 -906.072 0 -121073 -1119.86 0 -121185 -1331.3 0 -121313 -1540.84 0 -121457 -1748.9 0 -121616 -1955.89 0 -121790 -2162.18 0 -121980 -2368.13 0 -122186 -2574.09 0 -122408 -2780.38 0 -122646 -2987.31 0 -122899 -3195.2 0 -123169 -3404.34 0 -123455 -3615.03 0 -123757 -3827.55 0 -124076 -4042.18 0 -124412 -4259.21 0 -124765 -4478.91 0 -125135 -4701.56 0 -125523 -4927.44 0 -12592