<?xml version="1.0"?> 
<VTKFile type="StructuredGrid" version="0.1"> 
<StructuredGrid WholeExtent="0 127 0 127 0 0"> 
<Piece Extent="0 127 0 127 0 0"> 
<PointData>
<DataArray type="Float32" Name="E" format="ascii" NumberOfComponents="3"> 
85268.5 0.0149456 0 85252.2 1504.68 0 85203.3 3008.56 0 85121.9 4510.85 0 85008 6010.75 0 84861.6 7507.46 0 84682.9 9000.22 0 84472 10488.2 0 84228.9 11970.7 0 83954 13446.8 0 83647.3 14915.9 0 83309.1 16377.1 0 82939.5 17829.7 0 82538.8 19273 0 82107.3 20706.1 0 81645.2 22128.4 0 81152.8 23539 0 80630.5 24937.4 0 80078.6 26322.8 0 79497.3 27694.4 0 78887.2 29051.7 0 78248.5 30393.8 0 77581.7 31720.2 0 76887.2 33030.1 0 76165.4 34323 0 75416.8 35598.2 0 74641.9 36855 0 73841 38093 0 73014.8 39311.4 0 72163.7 40509.7 0 71288.2 41687.4 0 70388.9 42843.8 0 69466.4 43978.6 0 68521.1 45091 0 67553.6 46180.7 0 66564.6 47247.2 0 65554.6 48290 0 64524.2 49308.5 0 63474 50302.5 0 62404.7 51271.5 0 61316.8 52215.1 0 60211 53132.8 0 59087.8 54024.4 0 57948.1 54889.4 0 56792.3 55727.6 0 55621.2 56538.6 0 54435.3 57322.1 0 53235.4 58077.8 0 52022.1 58805.5 0 50796.1 59504.9 0 49558 60175.8 0 48308.5 60817.9 0 47048.2 61431.1 0 45777.8 62015.1 0 44497.9 62569.8 0 43209.2 63095 0 41912.4 63590.6 0 40608.1 64056.4 0 39296.9 64492.3 0 37979.5 64898.3 0 36656.6 65274.1 0 35328.6 65619.8 0 33996.3 65935.2 0 32660.3 66220.2 0 31321.2 66474.9 0 29979.5 66699.1 0 28635.9 66892.9 0 27291 67056.1 0 25945.3 67188.7 0 24599.3 67290.8 0 23253.8 67362.2 0 21909.1 67403 0 20565.8 67413 0 19224.4 67392.4 0 17885.5 67341 0 16549.6 67258.8 0 15217.1 67145.7 0 13888.6 67001.8 0 12564.4 66826.8 0 11245 66620.8 0 9930.98 66383.6 0 8622.65 66115.2 0 7320.44 65815.3 0 6024.78 65483.8 0 4736.05 65120.6 0 3454.64 64725.3 0 2180.92 64297.8 0 915.242 63837.6 0 -342.036 63344.6 0 -1590.58 62818.1 0 -2830.06 62257.9 0 -4060.17 61663.3 0 -5280.6 61033.8 0 -6491.05 60368.6 0 -7691.24 59667 0 -8880.89 58928.1 0 -10059.7 58150.8 0 -11227.5 57334 0 -12384 56476.4 0 -13528.9 55576.5 0 -14662 54632.6 0 -15783 53642.7 0 -16891.8 52604.6 0 -17988.1 51515.8 0 -19071.7 50373.4 0 -20142.4 49174 0 -21199.9 47913.6 0 -22244.1 46587.8 0 -23274.8 45191.3 0 -24291.7 43717.8 0 -25294.7 42160.1 0 -26283.5 40509.2 0 -27258 38754.6 0 -28218 36883.6 0 -29163.4 34880.2 0 -30094 32724.7 0 -31009.9 30392.4 0 -31910.9 27849.8 0 -32798.2 25057.4 0 -33669.1 21948.6 0 -34533.1 18464.8 0 -35367.6 14425.6 0 -36240.5 9807.86 0 -36968 3871.38 0 -38046.9 -2793.06 0 -37904.1 -14557.5 0 -39112.1 -26469.3 0 0 -92847.8 0 82975.3 0.0143458 0 82959.6 1455.09 0 82912.5 2909.42 0 82834.1 4362.21 0 82724.4 5812.71 0 82583.4 7260.15 0 82411.3 8703.79 0 82208.2 10142.9 0 81974.2 11576.6 0 81709.4 13004.3 0 81414 14425.2 0 81088.3 15838.6 0 80732.4 17243.7 0 80346.5 18639.8 0 79930.9 20026.2 0 79485.8 21402.2 0 79011.6 22767 0 78508.5 24120.1 0 77976.8 25460.6 0 77417 26788 0 76829.2 28101.5 0 76214 29400.5 0 75571.6 30684.4 0 74902.5 31952.5 0 74207.2 33204.2 0 73485.9 34438.9 0 72739.3 35655.9 0 71967.6 36854.8 0 71171.5 38035 0 70351.3 39195.8 0 69507.7 40336.8 0 68641 41457.4 0 67751.9 42557.1 0 66840.8 43635.3 0 65908.3 44691.7 0 64955 45725.8 0 63981.4 46737 0 62988.1 47725 0 61975.6 48689.3 0 60944.6 49629.5 0 59895.7 50545.2 0 58829.4 51436.1 0 57746.3 52301.8 0 56647.2 53141.9 0 55532.5 53956.1 0 54403 54744.2 0 53259.2 55505.7 0 52101.8 56240.5 0 50931.3 56948.3 0 49748.6 57628.7 0 48554.1 58281.6 0 47348.5 58906.8 0 46132.4 59504 0 44906.5 60073.1 0 43671.5 60613.9 0 42427.8 61126.1 0 41176.3 61609.8 0 39917.5 62064.6 0 38651.9 62490.5 0 37380.4 62887.4 0 36103.3 63255.2 0 34821.5 63593.8 0 33535.4 63903 0 32245.8 64182.8 0 30953 64433.2 0 29657.9 64654 0 28360.9 64845.3 0 27062.6 65006.9 0 25763.6 65138.8 0 24464.5 65241 0 23165.7 65313.4 0 21867.9 65356 0 20571.6 65368.8 0 19277.3 65351.6 0 17985.5 65304.4 0 16696.8 65227.3 0 15411.5 65120 0 14130.4 64982.6 0 12853.7 64814.9 0 11582.1 64616.9 0 10315.9 64388.4 0 9055.61 64129.3 0 7801.74 63839.5 0 6554.7 63518.7 0 5314.93 63166.8 0 4082.87 62783.4 0 2858.96 62368.5 0 1643.62 61921.5 0 437.269 61442.2 0 -759.66 60930.1 0 -1946.75 60384.8 0 -3123.57 59805.8 0 -4289.7 59192.3 0 -5444.7 58543.8 0 -6588.13 57859.4 0 -7719.54 57138.2 0 -8838.46 56379.3 0 -9944.4 55581.4 0 -11036.9 54743.3 0 -12115.3 53863.6 0 -13179.1 52940.4 0 -14227.6 51972 0 -15260.2 50956.2 0 -16276.2 49890.4 0 -17274.6 48771.9 0 -18254.5 47597.3 0 -19214.8 46362.8 0 -20154.2 45064.2 0 -21071.2 43696.2 0 -21964.1 42253 0 -22830.8 40727.4 0 -23668.5 39111.1 0 -24474 37394.1 0 -25243.3 35564.3 0 -25971 33606.9 0 -26650.1 31503.7 0 -27271.3 29231.8 0 -27821.6 26762.4 0 -28282.3 24057.2 0 -28626.8 21068.2 0 -28810.4 17724.2 0 -28770.7 13943.6 0 -28369.3 9563.82 0 -27428.8 4478.08 0 -25339.1 -1819.98 0 -21389.2 -9047.57 0 -11933.9 -19059.8 0 0 -20918.9 0 80757.6 0.0137726 0 80742.4 1407.33 0 80697.1 2813.93 0 80621.6 4219.06 0 80515.9 5621.99 0 80380.1 7021.98 0 80214.4 8418.33 0 80018.8 9810.29 0 79793.4 11197.1 0 79538.3 12578.2 0 79253.9 13952.7 0 78940.1 15320 0 78597.3 16679.3 0 78225.6 18030 0 77825.3 19371.4 0 77396.6 20702.7 0 76939.7 22023.4 0 76455.1 23332.8 0 75943 24630.1 0 75403.6 25914.8 0 74837.4 27186.1 0 74244.6 28443.6 0 73625.8 29686.5 0 72981.1 30914.2 0 72311.1 32126.2 0 71616.2 33321.8 0 70896.7 34500.6 0 70153.1 35661.8 0 69385.9 36805 0 68595.5 37929.6 0 67782.4 39035.2 0 66947.2 40121.1 0 66090.2 41187 0 65212 42232.2 0 64313.1 43256.4 0 63394.1 44259.1 0 62455.5 45239.9 0 61497.9 46198.3 0 60521.7 47133.8 0 59527.7 48046.2 0 58516.2 48935.1 0 57488 49800 0 56443.6 50640.6 0 55383.6 51456.6 0 54308.5 52247.7 0 53219.1 53013.5 0 52115.8 53753.8 0 50999.3 54468.2 0 49870.3 55156.6 0 48729.2 55818.7 0 47576.8 56454.2 0 46413.6 57062.9 0 45240.3 57644.7 0 44057.4 58199.2 0 42865.6 58726.4 0 41665.5 59226.1 0 40457.7 59698.1 0 39242.8 60142.3 0 38021.5 60558.5 0 36794.2 60946.6 0 35561.7 61306.5 0 34324.5 61638.2 0 33083.2 61941.4 0 31838.5 62216.2 0 30590.8 62462.4 0 29340.7 62680 0 28088.9 62868.9 0 26836 63029.1 0 25582.3 63160.4 0 24328.7 63262.8 0 23075.4 63336.3 0 21823.2 63380.9 0 20572.6 63396.4 0 19324.1 63382.8 0 18078.2 63340 0 16835.4 63268 0 15596.3 63166.7 0 14361.3 63036 0 13131.1 62875.9 0 11906 62686.1 0 10686.5 62466.6 0 9473.25 62217.3 0 8266.63 61937.9 0 7067.15 61628.3 0 5875.3 61288.3 0 4691.57 60917.6 0 3516.44 60516 0 2350.41 60083.1 0 1193.98 59618.5 0 47.6588 59122 0 -1088.05 58592.9 0 -2212.6 58030.8 0 -3325.46 57435 0 -4426.07 56805 0 -5513.82 56140 0 -6588.1 55439 0 -7648.25 54701.1 0 -8693.56 53925.3 0 -9723.29 53110.3 0 -10736.6 52254.7 0 -11732.6 51356.9 0 -12710.3 50415.2 0 -13668.5 49427.5 0 -14606 48391.6 0 -15521.5 47304.7 0 -16413.1 46163.9 0 -17279.2 44965.9 0 -18117.3 43706.5 0 -18924.8 42381.3 0 -19698.7 40985.1 0 -20435.1 39511.6 0 -21129.2 37953.6 0 -21775.2 36302.9 0 -22365.9 34549.2 0 -22891.7 32680.9 0 -23340.6 30683.8 0 -23696.2 28540.9 0 -23936.8 26231.6 0 -24032.1 23731.7 0 -23939.2 21011.3 0 -23596.8 18038.2 0 -22909.8 14771.4 0 -21744.3 11189.1 0 -19865.5 7255.51 0 -17009.8 3121.68 0 -12677.3 -1099.86 0 -7279.54 -3991.7 0 0 -6308.31 0 78612.4 0.0132247 0 78597.8 1361.34 0 78554.2 2721.97 0 78481.4 4081.19 0 78379.6 5438.3 0 78248.9 6792.59 0 78089.2 8143.37 0 77900.8 9489.95 0 77683.7 10831.6 0 77438 12167.7 0 77164 13497.5 0 76861.8 14820.4 0 76531.5 16135.6 0 76173.4 17442.6 0 75787.8 18740.6 0 75374.8 20029 0 74934.7 21307.1 0 74467.8 22574.3 0 73974.4 23830 0 73454.7 25073.5 0 72909.2 26304.3 0 72338.1 27521.6 0 71741.8 28725 0 71120.6 29913.8 0 70475 31087.5 0 69805.3 32245.5 0 69112 33387.2 0 68395.4 34512.1 0 67656 35619.6 0 66894.2 36709.4 0 66110.5 37780.7 0 65305.4 38833.2 0 64479.4 39866.4 0 63632.8 40879.7 0 62766.3 41872.8 0 61880.4 42845.3 0 60975.5 43796.5 0 60052.1 44726.3 0 59110.9 45634.1 0 58152.4 46519.6 0 57177.1 47382.4 0 56185.5 48222.2 0 55178.3 49038.6 0 54156 49831.2 0 53119.1 50599.9 0 52068.3 51344.1 0 51004.1 52063.8 0 49927.2 52758.6 0 48838 53428.2 0 47737.2 54072.5 0 46625.4 54691.1 0 45503.1 55283.9 0 44371 55850.6 0 43229.7 56391.1 0 42079.7 56905.1 0 40921.7 57392.6 0 39756.2 57853.3 0 38583.8 58287.1 0 37405.1 58693.9 0 36220.8 59073.5 0 35031.3 59425.9 0 33837.4 59750.8 0 32639.4 60048.3 0 31438.2 60318.2 0 30234.1 60560.5 0 29027.8 60775 0 27819.8 60961.6 0 26610.8 61120.4 0 25401.2 61251.3 0 24191.7 61354.1 0 22982.7 61428.9 0 21774.8 61475.5 0 20568.6 61493.9 0 19364.6 61484 0 18163.3 61445.8 0 16965.2 61379.2 0 15771 61284.1 0 14581.1 61160.4 0 13396 61008 0 12216.2 60826.7 0 11042.4 60616.6 0 9874.89 60377.4 0 8714.35 60108.9 0 7561.26 59811 0 6416.16 59483.5 0 5279.57 59126.1 0 4152.04 58738.6 0 3034.13 58320.6 0 1926.41 57871.8 0 829.445 57391.8 0 -256.149 56880.2 0 -1329.75 56336.5 0 -2390.71 55760.1 0 -3438.33 55150.5 0 -4471.9 54506.8 0 -5490.63 53828.3 0 -6493.7 53114.1 0 -7480.21 52363.3 0 -8449.19 51574.7 0 -9399.56 50747 0 -10330.1 49878.8 0 -11239.6 48968.7 0 -12126.5 48014.6 0 -12989.1 47014.8 0 -13825.5 45966.8 0 -14633.5 44868.1 0 -15410.5 43715.8 0 -16153.7 42506.6 0 -16859.3 41236.8 0 -17523.3 39902.2 0 -18140.5 38497.9 0 -18704.9 37018.4 0 -19208.9 35457.6 0 -19643.1 33808.4 0 -19995.9 32062.9 0 -20252.4 30212.3 0 -20393.6 28247 0 -20394.8 26156.8 0 -20223.5 23931.9 0 -19836.9 21564.3 0 -19177.8 19050.2 0 -18172.4 16398.9 0 -16721.8 13636 0 -14720.9 10844.4 0 -12036.9 8136.84 0 -8661.68 5833.06 0 -4416.24 4014.23 0 0 3760.73 0 76537.2 0.0127006 0 76523.2 1317.03 0 76481.1 2633.39 0 76411 3948.38 0 76313 5261.35 0 76187 6571.62 0 76033.2 7878.51 0 75851.7 9181.37 0 75642.5 10479.5 0 75405.9 11772.3 0 75141.9 13059.1 0 74850.7 14339.1 0 74532.6 15611.9 0 74187.6 16876.7 0 73816 18132.9 0 73418.1 19379.8 0 72994.1 20616.9 0 72544.2 21843.6 0 72068.8 23059.1 0 71568.1 24263 0 71042.4 25454.5 0 70492.1 26633.2 0 69917.5 27798.5 0 69318.9 28949.8 0 68696.7 30086.5 0 68051.3 31208.2 0 67383.1 32314.2 0 66692.4 33404 0 65979.8 34477.2 0 65245.5 35533.2 0 64490.1 36571.5 0 63714 37591.7 0 62917.7 38593.3 0 62101.6 39575.9 0 61266.3 40539 0 60412.1 41482.1 0 59539.6 42405 0 58649.3 43307.1 0 57741.8 44188 0 56817.5 45047.5 0 55877 45885.2 0 54920.7 46700.6 0 53949.3 47493.5 0 52963.3 48263.6 0 51963.3 49010.5 0 50949.7 49734 0 49923.2 50433.7 0 48884.3 51109.4 0 47833.6 51760.9 0 46771.6 52387.8 0 45699 52990.1 0 44616.2 53567.4 0 43524 54119.6 0 42422.7 54646.4 0 41313.1 55147.7 0 40195.7 55623.3 0 39071.1 56073.1 0 37939.8 56496.9 0 36802.5 56894.6 0 35659.6 57266 0 34511.8 57611 0 33359.7 57929.5 0 32203.7 58221.4 0 31044.6 58486.7 0 29882.8 58725.1 0 28718.8 58936.7 0 27553.4 59121.4 0 26386.9 59279 0 25220.1 59409.5 0 24053.3 59512.9 0 22887.2 59589 0 21722.4 59637.9 0 20559.3 59659.3 0 19398.5 59653.4 0 18240.6 59619.9 0 17086 59558.8 0 15935.3 59470.1 0 14789.2 59353.6 0 13648 59209.2 0 12512.3 59036.9 0 11382.8 58836.4 0 10259.9 58607.7 0 9144.17 58350.6 0 8036.21 58064.9 0 6936.56 57750.5 0 5845.81 57407 0 4764.55 57034.3 0 3693.4 56632.1 0 2632.97 56200 0 1583.93 55737.6 0 546.948 55244.7 0 -477.265 54720.7 0 -1487.96 54165.2 0 -2484.35 53577.5 0 -3465.58 52957.1 0 -4430.76 52303.3 0 -5378.9 51615.2 0 -6308.95 50892 0 -7219.74 50132.8 0 -8110.01 49336.4 0 -8978.33 48501.7 0 -9823.13 47627.3 0 -10642.6 46711.8 0 -11434.8 45753.4 0 -12197.5 44750.4 0 -12927.9 43700.7 0 -13623.2 42602.1 0 -14279.7 41452 0 -14893.4 40247.8 0 -15459.5 38986.3 0 -15972.2 37664.2 0 -16424.6 36278.2 0 -16808.6 34824.2 0 -17114 33298.4 0 -17328.6 31697 0 -17437.6 30016.2 0 -17422.3 28253.3 0 -17259.9 26406.8 0 -16922.4 24478.4 0 -16375.1 22474.3 0 -15577 20409.3 0 -14479.9 18310.2 0 -13033.9 16225.7 0 -11188.2 14225.5 0 -8922.25 12430.7 0 -6221.18 10951.5 0 -3251.04 10051 0 0 9584.82 0 74529.4 0.0121993 0 74515.9 1274.35 0 74475.4 2548.05 0 74407.8 3820.44 0 74313.4 5090.89 0 74192 6358.74 0 74043.8 7623.35 0 73868.9 8884.08 0 73667.4 10140.3 0 73439.4 11391.4 0 73185.1 12636.6 0 72904.5 13875.5 0 72598 15107.3 0 72265.6 16331.5 0 71907.6 17547.4 0 71524.2 18754.4 0 71115.6 19951.9 0 70682.1 21139.4 0 70224 22316.3 0 69741.5 23481.9 0 69234.9 24635.7 0 68704.5 25777.2 0 68150.7 26905.7 0 67573.8 28020.8 0 66974.2 29121.9 0 66352.1 30208.4 0 65708 31280 0 65042.3 32336 0 64355.4 33376 0 63647.6 34399.4 0 62919.4 35405.9 0 62171.2 36394.9 0 61403.5 37366.1 0 60616.7 38318.9 0 59811.3 39253 0 58987.8 40167.9 0 58146.5 41063.2 0 57288.1 41938.6 0 56412.9 42793.6 0 55521.6 43628 0 54614.5 44441.3 0 53692.3 45233.2 0 52755.4 46003.4 0 51804.4 46751.6 0 50839.8 47477.5 0 49862.2 48180.8 0 48872 48861.2 0 47869.8 49518.5 0 46856.2 50152.4 0 45831.7 50762.6 0 44796.9 51349 0 43752.2 51911.4 0 42698.4 52449.4 0 41635.9 52963 0 40565.3 53452 0 39487.1 53916.2 0 38402 54355.4 0 37310.4 54769.5 0 36213 55158.3 0 35110.2 55521.8 0 34002.8 55859.8 0 32891.1 56172.1 0 31775.8 56458.7 0 30657.4 56719.5 0 29536.4 56954.4 0 28413.6 57163.2 0 27289.3 57346 0 26164.1 57502.6 0 25038.6 57633 0 23913.4 57737.1 0 22788.9 57814.8 0 21665.7 57866 0 20544.5 57890.7 0 19425.6 57888.8 0 18309.7 57860.3 0 17197.3 57805 0 16089 57722.8 0 14985.2 57613.8 0 13886.7 57477.7 0 12793.9 57314.5 0 11707.3 57124.1 0 10627.6 56906.3 0 9555.38 56661 0 8491.16 56388 0 7435.57 56087.1 0 6389.24 55758.2 0 5352.79 55401 0 4326.89 55015.2 0 3312.2 54600.7 0 2309.45 54157 0 1319.38 53683.8 0 342.762 53180.7 0 -619.573 52647.4 0 -1566.75 52083.2 0 -2497.82 51487.8 0 -3411.77 50860.4 0 -4307.53 50200.5 0 -5183.89 49507.3 0 -6039.55 48780 0 -6873.1 48017.8 0 -7682.93 47219.8 0 -8467.3 46384.8 0 -9224.23 45511.7 0 -9951.5 44599.2 0 -10646.6 43646.1 0 -11306.7 42650.9 0 -11928.4 41611.9 0 -12508.2 40527.5 0 -13041.4 39396 0 -13523.3 38215.6 0 -13947.7 36984.5 0 -14307.8 35700.9 0 -14595.5 34363.3 0 -14801 32970.6 0 -14913.1 31522.2 0 -14918.3 30018.6 0 -14800.6 28462 0 -14541.7 26856.9 0 -14119.9 25211.6 0 -13511.4 23539.5 0 -12689.9 21861.5 0 -11629.5 20208.6 0 -10306.8 18623.5 0 -8709.37 17166 0 -6836.09 15902.7 0 -4725.28 14927.1 0 -2399.28 14273.8 0 0 14101.2 0 72586.5 0.0117195 0 72573.5 1233.22 0 72534.4 2465.83 0 72469.4 3697.17 0 72378.4 4926.65 0 72261.4 6153.63 0 72118.6 7377.5 0 71950.1 8597.65 0 71755.9 9813.45 0 71536.2 11024.3 0 71291.2 12229.6 0 71020.8 13428.7 0 70725.4 14621.1 0 70405.1 15806.1 0 70060.1 16983.2 0 69690.7 18151.7 0 69296.9 19311.1 0 68879.2 20460.9 0 68437.6 21600.4 0 67972.6 22729.2 0 67484.4 23846.6 0 66973.2 24952.1 0 66439.5 26045.2 0 65883.4 27125.4 0 65305.4 28192.1 0 64705.8 29244.8 0 64085 30283.1 0 63443.3 31306.5 0 62781 32314.4 0 62098.7 33306.5 0 61396.7 34282.2 0 60675.4 35241.1 0 59935.2 36182.9 0 59176.6 37107 0 58400 38013 0 57605.9 38900.6 0 56794.7 39769.4 0 55966.9 40618.9 0 55122.9 41448.9 0 54263.3 42258.9 0 53388.6 43048.7 0 52499.1 43817.9 0 51595.5 44566.2 0 50678.2 45293.3 0 49747.8 45998.8 0 48804.7 46682.6 0 47849.6 47344.3 0 46882.8 47983.8 0 45905 48600.6 0 44916.6 49194.7 0 43918.2 49765.8 0 42910.4 50313.6 0 41893.7 50838.1 0 40868.6 51338.9 0 39835.6 51815.9 0 38795.3 52269 0 37748.3 52698 0 36695.1 53102.8 0 35636.3 53483.1 0 34572.3 53838.9 0 33503.8 54170.1 0 32431.2 54476.5 0 31355.2 54758 0 30276.2 55014.6 0 29194.9 55246.1 0 28111.7 55452.4 0 27027.2 55633.5 0 25942 55789.3 0 24856.6 55919.7 0 23771.5 56024.7 0 22687.3 56104.1 0 21604.6 56157.9 0 20523.8 56186 0 19445.6 56188.4 0 18370.4 56164.9 0 17298.9 56115.6 0 16231.5 56040.3 0 15168.9 55938.9 0 14111.7 55811.4 0 13060.3 55657.6 0 12015.3 55477.5 0 10977.5 55271 0 9947.3 55037.8 0 8925.38 54778 0 7912.38 54491.2 0 6908.93 54177.3 0 5915.72 53836.2 0 4933.43 53467.7 0 3962.78 53071.4 0 3004.54 52647.1 0 2059.5 52194.6 0 1128.5 51713.5 0 212.42 51203.5 0 -687.79 50664.1 0 -1571.12 50095 0 -2436.48 49495.7 0 -3282.69 48865.7 0 -4108.47 48204.4 0 -4912.43 47511.2 0 -5693.04 46785.5 0 -6448.61 46026.5 0 -7177.26 45233.6 0 -7876.91 44406 0 -8545.24 43542.7 0 -9179.64 42643 0 -9777.14 41706 0 -10334.4 40730.7 0 -10847.7 39716.2 0 -11312.6 38661.9 0 -11724.2 37566.9 0 -12076.9 36430.9 0 -12364.1 35253.6 0 -12578.4 34035.4 0 -12711.2 32777.2 0 -12752.8 31481 0 -12692 30150 0 -12516.4 28789.5 0 -12212.1 27407.1 0 -11764.4 26013.8 0 -11158 24625.2 0 -10378.1 23262.1 0 -9412.22 21951.6 0 -8252.96 20728.5 0 -6899.85 19632.7 0 -5365.85 18712.2 0 -3671.93 18007.5 0 -1872.04 17576 0 0 17408.7 0 70706.2 0.0112601 0 70693.6 1193.6 0 70656 2386.6 0 70593.3 3578.4 0 70505.6 4768.39 0 70392.9 5956 0 70255.3 7140.61 0 70092.9 8321.64 0 69905.8 9498.49 0 69694.1 10670.6 0 69457.9 11837.4 0 69197.4 12998.2 0 68912.7 14152.5 0 68604 15299.8 0 68271.5 16439.4 0 67915.4 17570.9 0 67535.9 18693.6 0 67133.3 19807 0 66707.8 20910.5 0 66259.6 22003.7 0 65789 23086 0 65296.3 24156.8 0 64781.8 25215.8 0 64245.8 26262.3 0 63688.6 27295.8 0 63110.6 28315.9 0 62512.1 29322.2 0 61893.4 30314 0 61255 31291 0 60597.2 32252.8 0 59920.3 33198.8 0 59224.8 34128.7 0 58511.2 35042 0 57779.7 35938.4 0 57030.8 36817.4 0 56265.1 37678.6 0 55482.8 38521.7 0 54684.5 39346.3 0 53870.6 40152.1 0 53041.5 40938.6 0 52197.8 41705.7 0 51340 42452.9 0 50468.4 43180 0 49583.6 43886.6 0 48686.1 44572.5 0 47776.4 45237.4 0 46855 45881.1 0 45922.3 46503.2 0 44979 47103.6 0 44025.5 47682.1 0 43062.3 48238.3 0 42090 48772.2 0 41109.1 49283.4 0 40120 49771.9 0 39123.4 50237.4 0 38119.8 50679.8 0 37109.6 51098.9 0 36093.4 51494.7 0 35071.8 51866.8 0 34045.3 52215.3 0 33014.4 52539.9 0 31979.7 52840.6 0 30941.6 53117.3 0 29900.8 53369.9 0 28857.7 53598.2 0 27812.9 53802.3 0 26767 53981.9 0 25720.4 54137 0 24673.8 54267.6 0 23627.5 54373.6 0 22582.3 54454.9 0 21538.7 54511.4 0 20497.1 54543.1 0 19458.1 54549.9 0 18422.4 54531.7 0 17390.4 54488.6 0 16362.7 54420.3 0 15339.8 54326.8 0 14322.5 54208.1 0 13311.1 54064 0 12306.4 53894.6 0 11308.9 53699.6 0 10319.3 53478.9 0 9338.21 53232.5 0 8366.23 52960.2 0 7404.06 52661.9 0 6452.41 52337.5 0 5512 51986.6 0 4583.58 51609.3 0 3667.95 51205.2 0 2765.93 50774.1 0 1878.42 50315.8 0 1006.32 49830 0 150.65 49316.5 0 -687.545 48774.9 0 -1507.12 48204.8 0 -2306.85 47606 0 -3085.4 46978 0 -3841.33 46320.4 0 -4573.04 45632.9 0 -5278.81 44914.9 0 -5956.73 44166 0 -6604.68 43385.8 0 -7220.31 42573.9 0 -7801.04 41729.7 0 -8343.95 40853 0 -8845.79 39943.5 0 -9302.93 39000.9 0 -9711.28 38025.4 0 -10066.2 37017.2 0 -10362.7 35976.8 0 -10594.8 34905.2 0 -10756.2 33804.2 0 -10839.7 32676.1 0 -10837.3 31524.4 0 -10740.6 30354.1 0 -10540.1 29171.7 0 -10226.5 27985.9 0 -9790.16 26808.4 0 -9222.16 25653.7 0 -8515.16 24540.1 0 -7664.59 23489.7 0 -6670 22528 0 -5537.17 21683.6 0 -4278.35 20985.3 0 -2916.6 20463.5 0 -1476.16 20135.2 0 0 20030.4 0 68886.1 0.0108201 0 68874 1155.41 0 68837.7 2310.25 0 68777.3 3463.93 0 68692.8 4615.88 0 68584.2 5765.53 0 68451.6 6912.31 0 68295.1 8055.64 0 68114.7 9194.97 0 67910.7 10329.7 0 67683 11459.3 0 67431.9 12583.3 0 67157.6 13700.9 0 66860 14811.8 0 66539.6 15915.4 0 66196.4 17011.1 0 65830.6 18098.3 0 65442.5 19176.7 0 65032.3 20245.5 0 64600.3 21304.4 0 64146.6 22352.8 0 63671.7 23390.3 0 63175.7 24416.2 0 62659 25430.2 0 62121.9 26431.8 0 61564.6 27420.4 0 60987.6 28395.7 0 60391.1 29357.2 0 59775.6 30304.4 0 59141.3 31236.9 0 58488.6 32154.2 0 57818 33056.1 0 57129.9 33942 0 56424.5 34811.6 0 55702.4 35664.4 0 54963.9 36500.2 0 54209.4 37318.5 0 53439.5 38119 0 52654.5 38901.3 0 51854.9 39665.2 0 51041.2 40410.3 0 50213.7 41136.3 0 49373 41842.8 0 48519.5 42529.7 0 47653.8 43196.6 0 46776.2 43843.3 0 45887.3 44469.5 0 44987.6 45075 0 44077.5 45659.4 0 43157.6 46222.8 0 42228.4 46764.7 0 41290.3 47285 0 40343.9 47783.5 0 39389.7 48260 0 38428.1 48714.4 0 37459.8 49146.5 0 36485.2 49556.1 0 35504.8 49943.2 0 34519.2 50307.4 0 33528.9 50648.8 0 32534.3 50967.2 0 31536.1 51262.5 0 30534.7 51534.6 0 29530.7 51783.4 0 28524.6 52008.8 0 27516.9 52210.7 0 26508.2 52389 0 25499 52543.7 0 24489.8 52674.7 0 23481.2 52781.9 0 22473.6 52865.2 0 21467.8 52924.6 0 20464 52960 0 19463.1 52971.4 0 18465.4 52958.7 0 17471.5 52921.8 0 16482.1 52860.8 0 15497.7 52775.4 0 14518.8 52665.7 0 13546.1 52531.5 0 12580.1 52372.9 0 11621.5 52189.7 0 10671 51981.9 0 9729.08 51749.3 0 8796.5 51491.8 0 7873.94 51209.4 0 6962.12 50902 0 6061.78 50569.4 0 5173.69 50211.4 0 4298.67 49828 0 3437.57 49418.9 0 2591.31 48984.1 0 1760.82 48523.3 0 947.146 48036.3 0 151.355 47523 0 -625.385 46983 0 -1381.82 46416.4 0 -2116.61 45822.7 0 -2828.29 45201.8 0 -3515.26 44553.4 0 -4175.81 43877.5 0 -4808.04 43173.7 0 -5409.88 42442 0 -5979.06 41682.3 0 -6513.07 40894.6 0 -7009.15 40079 0 -7464.27 39235.7 0 -7875.05 38365.1 0 -8237.8 37467.8 0 -8548.43 36545 0 -8802.45 35597.8 0 -8994.97 34628.2 0 -9120.64 33638.6 0 -9173.74 32632.4 0 -9148.17 31613.9 0 -9037.59 30588.6 0 -8835.56 29563.4 0 -8535.85 28547.1 0 -8132.75 27550.3 0 -7621.61 26585.8 0 -6999.52 25668.7 0 -6266.04 24815.9 0 -5424.12 24046.6 0 -4480.7 23380.1 0 -3447.84 22836.5 0 -2341.48 22432.5 0 -1184.79 22185.2 0 0 22098.6 0 67124.1 0.0103985 0 67112.5 1118.61 0 67077.5 2236.67 0 67019.3 3353.61 0 66937.8 4468.89 0 66833.1 5581.96 0 66705.3 6692.27 0 66554.5 7799.27 0 66380.6 8902.42 0 66183.9 10001.2 0 65964.5 11095 0 65722.5 12183.3 0 65458 13265.7 0 65171.2 14341.5 0 64862.3 15410.3 0 64531.5 16471.5 0 64178.9 17524.6 0 63804.8 18569.1 0 63409.3 19604.5 0 62992.8 20630.3 0 62555.5 21646.1 0 62097.6 22651.3 0 61619.5 23645.4 0 61121.3 24628.1 0 60603.4 25598.8 0 60066.1 26557.1 0 59509.8 27502.5 0 58934.6 28434.6 0 58341.1 29353 0 57729.5 30257.3 0 57100.2 31147 0 56453.5 32021.8 0 55789.8 32881.2 0 55109.6 33724.9 0 54413.2 34552.5 0 53700.9 35363.7 0 52973.3 36158 0 52230.7 36935.3 0 51473.6 37695 0 50702.3 38437 0 49917.4 39160.8 0 49119.2 39866.3 0 48308.3 40553 0 47485 41220.8 0 46649.8 41869.4 0 45803.2 42498.4 0 44945.7 43107.7 0 44077.7 43697.1 0 43199.7 44266.2 0 42312.2 44814.9 0 41415.7 45342.9 0 40510.6 45850.2 0 39597.5 46336.4 0 38676.9 46801.4 0 37749.2 47245.1 0 36814.9 47667.2 0 35874.6 48067.7 0 34928.8 48446.3 0 33977.9 48803 0 33022.5 49137.6 0 32063 49450.1 0 31100.1 49740.2 0 30134.1 50007.9 0 29165.7 50253.2 0 28195.3 50475.8 0 27223.5 50675.8 0 26250.7 50853 0 25277.6 51007.4 0 24304.5 51138.9 0 23332.2 51247.4 0 22361 51333 0 21391.6 51395.4 0 20424.4 51434.7 0 19460.1 51450.8 0 18499.1 51443.7 0 17542.1 51413.3 0 16589.6 51359.6 0 15642.1 51282.5 0 14700.3 51181.9 0 13764.8 51057.9 0 12836.1 50910.3 0 11914.9 50739.1 0 11001.8 50544.2 0 10097.6 50325.7 0 9202.73 50083.3 0 8318.06 49817.1 0 7444.28 49527 0 6582.13 49212.9 0 5732.42 48874.7 0 4895.96 48512.3 0 4073.62 48125.7 0 3266.31 47714.8 0 2475 47279.4 0 1700.72 46819.4 0 944.542 46334.9 0 207.643 45825.6 0 -508.736 45291.6 0 -1203.26 44732.7 0 -1874.49 44149 0 -2520.87 43540.3 0 -3140.72 42906.8 0 -3732.22 42248.5 0 -4293.4 41565.6 0 -4822.11 40858.2 0 -5316.01 40126.7 0 -5772.56 39371.6 0 -6188.99 38593.5 0 -6562.29 37793.3 0 -6889.22 36972.2 0 -7166.26 36131.5 0 -7389.63 35273.1 0 -7555.32 34399.5 0 -7659.07 33513.6 0 -7696.46 32619.1 0 -7663 31720.6 0 -7554.2 30823.7 0 -7365.81 29935.1 0 -7093.99 29062.7 0 -6735.67 28215.9 0 -6288.91 27405.4 0 -5753.3 26643.2 0 -5130.5 25942.5 0 -4424.62 25317 0 -3642.72 24780.9 0 -2794.8 24347.1 0 -1894.31 24027.9 0 -956.429 23831.6 0 0 23766 0 65418.1 0.0099945 0 65406.9 1083.13 0 65373.2 2165.74 0 65317.1 3247.27 0 65238.5 4327.21 0 65137.6 5405.02 0 65014.4 6480.18 0 64869 7552.16 0 64701.4 8620.43 0 64511.8 9684.48 0 64300.3 10743.8 0 64067 11797.8 0 63812 12846.1 0 63535.6 13888.1 0 63237.8 14923.3 0 62918.8 15951.3 0 62578.9 16971.4 0 62218.2 17983.3 0 61837 18986.5 0 61435.4 19980.4 0 61013.8 20964.7 0 60572.3 21938.8 0 60111.2 22902.3 0 59630.9 23854.7 0 59131.6 24795.6 0 58613.5 25724.6 0 58077 26641.2 0 57522.4 27545 0 56950 28435.6 0 56360.2 29312.6 0 55753.3 30175.7 0 55129.7 31024.3 0 54489.6 31858.1 0 53833.6 32676.9 0 53161.9 33480.1 0 52474.9 34267.5 0 51773.1 35038.8 0 51056.9 35793.5 0 50326.6 36531.4 0 49582.6 37252.2 0 48825.4 37955.6 0 48055.5 38641.2 0 47273.2 39308.8 0 46478.9 39958.1 0 45673.2 40589 0 44856.5 41201 0 44029.2 41794 0 43191.8 42367.7 0 42344.7 42922 0 41488.5 43456.6 0 40623.5 43971.2 0 39750.3 44465.8 0 38869.3 44940.2 0 37981.1 45394.1 0 37086 45827.4 0 36184.6 46239.9 0 35277.4 46631.6 0 34364.9 47002.2 0 33447.5 47351.6 0 32525.8 47679.8 0 31600.2 47986.5 0 30671.3 48271.7 0 29739.5 48535.3 0 28805.4 48777.2 0 27869.5 48997.3 0 26932.2 49195.5 0 25994.2 49371.8 0 25055.8 49526.1 0 24117.7 49658.3 0 23180.3 49768.3 0 22244.2 49856.2 0 21310 49921.8 0 20378 49965.1 0 19449 49986.1 0 18523.4 49984.7 0 17601.8 49960.9 0 16684.8 49914.6 0 15773 49845.9 0 14866.8 49754.6 0 13967 49640.7 0 13074.1 49504.3 0 12188.8 49345.3 0 11311.6 49163.6 0 10443.3 48959.2 0 9584.56 48732.2 0 8736.04 48482.3 0 7898.49 48209.7 0 7072.66 47914.3 0 6259.34 47596.1 0 5459.36 47255 0 4673.58 46891 0 3902.92 46504.2 0 3148.33 46094.4 0 2410.82 45661.7 0 1691.48 45206.2 0 991.437 44727.8 0 311.914 44226.5 0 -345.792 43702.6 0 -980.293 43156 0 -1590.1 42587 0 -2173.62 41995.8 0 -2729.13 41382.6 0 -3254.8 40747.9 0 -3748.64 40092 0 -4208.52 39415.7 0 -4632.16 38719.6 0 -5017.1 38004.7 0 -5360.74 37272.3 0 -5660.28 36523.6 0 -5912.8 35760.7 0 -6115.19 34985.5 0 -6264.26 34200.8 0 -6356.72 33409.7 0 -6389.31 32616 0 -6358.79 31824.3 0 -6262.16 31039.7 0 -6096.75 30268.5 0 -5860.44 29517.6 0 -5551.87 28795 0 -5170.71 28109.4 0 -4717.94 27470.4 0 -4196.13 26888 0 -3609.67 26372.5 0 -2964.94 25933.9 0 -2270.43 25581.5 0 -1536.43 25323.2 0 -775.292 25165.7 0 0 25112.1 0 63766.1 0.00960712 0 63755.3 1048.94 0 63722.8 2097.36 0 63668.7 3144.76 0 63593 4190.63 0 63495.7 5234.45 0 63376.9 6275.72 0 63236.7 7313.93 0 63075.2 8348.58 0 62892.4 9379.17 0 62688.5 10405.2 0 62463.5 11426.2 0 62217.7 12441.6 0 61951.2 13451 0 61664 14453.9 0 61356.5 15449.7 0 61028.8 16438.2 0 60681 17418.6 0 60313.4 18390.7 0 59926.2 19353.8 0 59519.7 20307.7 0 59094 21251.8 0 58649.4 22185.7 0 58186.2 23109 0 57704.7 24021.1 0 57205.1 24921.8 0 56687.7 25810.6 0 56152.9 26687.1 0 55600.9 27550.9 0 55032.1 28401.6 0 54446.7 29238.9 0 53845.2 30062.3 0 53227.9 30871.5 0 52595.1 31666.1 0 51947.3 32445.8 0 51284.7 33210.3 0 50607.7 33959.2 0 49916.8 34692.2 0 49212.3 35409 0 48494.6 36109.4 0 47764.2 36792.9 0 47021.4 37459.4 0 46266.7 38108.5 0 45500.5 38740 0 44723.1 39353.7 0 43935.2 39949.3 0 43137 40526.5 0 42329 41085.2 0 41511.8 41625.1 0 40685.6 42146 0 39851.1 42647.8 0 39008.6 43130.2 0 38158.6 43593.1 0 37301.5 44036.3 0 36438 44459.6 0 35568.3 44862.9 0 34693 45246.1 0 33812.6 45609 0 32927.5 45951.4 0 32038.3 46273.3 0 31145.4 46574.6 0 30249.3 46855.2 0 29350.5 47114.8 0 28449.5 47353.6 0 27546.8 47571.4 0 26642.9 47768 0 25738.3 47943.5 0 24833.5 48097.8 0 23929 48230.9 0 23025.4 48342.5 0 22123.1 48432.8 0 21222.7 48501.7 0 20324.7 48549.2 0 19429.7 48575.1 0 18538.1 48579.5 0 17650.6 48562.4 0 16767.8 48523.7 0 15890.1 48463.4 0 15018.1 48381.4 0 14152.6 48277.9 0 13294 48152.7 0 12442.9 48005.9 0 11600.1 47837.5 0 10766.2 47647.4 0 9941.82 47435.6 0 9127.7 47202.2 0 8324.56 46947.2 0 7533.15 46670.6 0 6754.24 46372.4 0 5988.67 46052.6 0 5237.27 45711.3 0 4500.95 45348.6 0 3780.65 44964.5 0 3077.35 44559 0 2392.1 44132.4 0 1726 43684.7 0 1080.22 43216.1 0 455.998 42726.8 0 -145.342 42217.1 0 -722.403 41687.2 0 -1273.7 41137.6 0 -1797.64 40568.7 0 -2292.54 39981 0 -2756.62 39375.2 0 -3187.96 38752.2 0 -3584.57 38112.9 0 -3944.31 37458.4 0 -4264.96 36790.2 0 -4544.19 36109.9 0 -4779.59 35419.4 0 -4968.72 34721.2 0 -5109.07 34017.8 0 -5198.21 33312.4 0 -5233.75 32608.8 0 -5213.5 31911.1 0 -5135.55 31224.2 0 -4998.38 30553.5 0 -4800.99 29905 0 -4543.14 29285.4 0 -4225.41 28701.7 0 -3849.48 28161.6 0 -3418.22 27672.6 0 -2935.85 27242.6 0 -2407.99 26878.8 0 -1841.64 26588 0 -1245.16 26375.8 0 -627.849 26246.4 0 0 26202.9 0 62166.1 0.00923558 0 62155.7 1015.97 0 62124.4 2031.45 0 62072.2 3045.93 0 61999.2 4058.95 0 61905.4 5070 0 61790.9 6078.59 0 61655.7 7084.25 0 61500 8086.48 0 61323.7 9084.81 0 61127.1 10078.8 0 60910.2 11067.8 0 60673.2 12051.6 0 60416.2 13029.5 0 60139.3 14001.2 0 59842.8 14966.2 0 59526.8 15923.9 0 59191.4 16874.1 0 58836.9 17816.1 0 58463.6 18749.6 0 58071.5 19674.2 0 57661 20589.4 0 57232.3 21494.7 0 56785.6 22389.8 0 56321.2 23274.3 0 55839.4 24147.7 0 55340.4 25009.7 0 54824.6 25859.8 0 54292.2 26697.7 0 53743.5 27523 0 53179 28335.4 0 52598.8 29134.4 0 52003.4 29919.8 0 51393 30691.1 0 50768 31448.1 0 50128.8 32190.4 0 49475.8 32917.8 0 48809.3 33629.8 0 48129.7 34326.3 0 47437.3 35006.9 0 46732.6 35671.3 0 46016 36319.2 0 45287.9 36950.5 0 44548.6 37564.8 0 43798.6 38161.9 0 43038.4 38741.6 0 42268.3 39303.6 0 41488.7 39847.7 0 40700.2 40373.8 0 39903 40881.6 0 39097.8 41370.9 0 38284.9 41841.5 0 37464.7 42293.4 0 36637.8 42726.2 0 35804.5 43139.9 0 34965.4 43534.3 0 34120.9 43909.3 0 33271.5 44264.8 0 32417.6 44600.5 0 31559.7 44916.5 0 30698.3 45212.6 0 29833.8 45488.7 0 28966.8 45744.7 0 28097.7 45980.5 0 27227 46196.1 0 26355.2 46391.4 0 25482.9 46566.3 0 24610.4 46720.7 0 23738.3 46854.7 0 22867.2 46968.1 0 21997.4 47061 0 21129.6 47133.2 0 20264.3 47184.9 0 19401.9 47215.8 0 18543.1 47226.1 0 17688.4 47215.7 0 16838.3 47184.6 0 15993.3 47132.8 0 15154.2 47060.3 0 14321.4 46967.1 0 13495.6 46853.1 0 12677.4 46718.6 0 11867.3 46563.4 0 11066.1 46387.5 0 10274.5 46191.1 0 9493.01 45974.1 0 8722.48 45736.6 0 7963.6 45478.7 0 7217.16 45200.5 0 6483.94 44901.9 0 5764.78 44583.2 0 5060.55 44244.4 0 4372.16 43885.7 0 3700.56 43507.3 0 3046.75 43109.3 0 2411.79 42691.9 0 1796.78 42255.4 0 1202.89 41800.2 0 631.354 41326.5 0 83.4662 40834.9 0 -439.405 40325.8 0 -935.818 39799.8 0 -1404.26 39257.6 0 -1843.13 38700 0 -2250.77 38128 0 -2625.44 37542.6 0 -2965.33 36945.2 0 -3268.57 36337.3 0 -3533.28 35720.7 0 -3757.51 35097.2 0 -3939.35 34469.4 0 -4076.93 33839.7 0 -4168.46 33211.3 0 -4212.28 32587.7 0 -4207 31972.5 0 -4151.47 31370.2 0 -4044.97 30785.5 0 -3887.27 30223.4 0 -3678.77 29689.5 0 -3420.59 29189.5 0 -3114.67 28729.5 0 -2763.89 28315.4 0 -2372.11 27952.9 0 -1944.2 27647.7 0 -1485.99 27404.7 0 -1004.17 27227.8 0 -506.205 27120.3 0 0 27084 0 60616.3 0.00887912 0 60606.3 984.179 0 60576.1 1967.89 0 60525.8 2950.64 0 