<?xml version="1.0"?> 
<VTKFile type="StructuredGrid" version="0.1"> 
<StructuredGrid WholeExtent="0 127 0 127 0 0"> 
<Piece Extent="0 127 0 127 0 0"> 
<PointData>
<DataArray type="Float32" Name="E" format="ascii" NumberOfComponents="3"> 
2.60713e+06 2.67029e-05 0 2.60712e+06 -1.55866e-05 0 2.6071e+06 8.80659e-06 0 2.60705e+06 -4.79817e-06 0 2.60698e+06 4.47035e-06 0 2.6069e+06 1.78814e-07 0 2.60679e+06 -1.96695e-06 0 2.60667e+06 2.14577e-06 0 2.60653e+06 -6.4373e-06 0 2.60637e+06 6.31809e-06 0 2.60619e+06 -2.5034e-06 0 2.60599e+06 9.53674e-07 0 2.60577e+06 5.96046e-07 0 2.60553e+06 3.57628e-07 0 2.60527e+06 0 0 2.605e+06 -3.57628e-07 0 2.6047e+06 2.38419e-07 0 2.60438e+06 2.38419e-07 0 2.60405e+06 4.76837e-07 0 2.60369e+06 0 0 2.60332e+06 -2.38419e-07 0 2.60293e+06 7.15256e-07 0 2.60251e+06 -2.38419e-07 0 2.60208e+06 -1.19209e-06 0 2.60162e+06 2.6226e-06 0 2.60115e+06 -9.53674e-07 0 2.60065e+06 -2.6226e-06 0 2.60014e+06 9.53674e-07 0 2.5996e+06 0 0 2.59904e+06 0 0 2.59847e+06 -2.38419e-07 0 2.59787e+06 4.76837e-07 0 2.59725e+06 -4.76837e-07 0 2.59661e+06 -1.43051e-06 0 2.59594e+06 -1.19209e-06 0 2.59526e+06 2.86102e-06 0 2.59455e+06 -1.90735e-06 0 2.59382e+06 -1.90735e-06 0 2.59307e+06 2.86102e-06 0 2.59229e+06 -3.33786e-06 0 2.5915e+06 3.8147e-06 0 2.59068e+06 -4.29153e-06 0 2.58983e+06 3.8147e-06 0 2.58897e+06 -3.33786e-06 0 2.58808e+06 2.86102e-06 0 2.58716e+06 -3.33786e-06 0 2.58622e+06 2.38419e-06 0 2.58526e+06 -2.38419e-06 0 2.58427e+06 3.8147e-06 0 2.58325e+06 -3.33786e-06 0 2.58221e+06 2.86102e-06 0 2.58115e+06 -2.86102e-06 0 2.58005e+06 1.43051e-06 0 2.57893e+06 -1.43051e-06 0 2.57779e+06 2.38419e-06 0 2.57661e+06 -1.43051e-06 0 2.57541e+06 1.43051e-06 0 2.57418e+06 -9.53674e-07 0 2.57292e+06 1.43051e-06 0 2.57163e+06 -1.43051e-06 0 2.57031e+06 1.90735e-06 0 2.56896e+06 -1.43051e-06 0 2.56757e+06 -4.76837e-07 0 2.56616e+06 9.53674e-07 0 2.56471e+06 0 0 2.56323e+06 -4.76837e-07 0 2.56172e+06 -4.76837e-07 0 2.56017e+06 0 0 2.55858e+06 -4.76837e-07 0 2.55696e+06 0 0 2.5553e+06 -4.76837e-07 0 2.55361e+06 4.76837e-07 0 2.55187e+06 -9.53674e-07 0 2.55009e+06 9.53674e-07 0 2.54828e+06 -9.53674e-07 0 2.54641e+06 9.53674e-07 0 2.54451e+06 -9.53674e-07 0 2.54256e+06 9.53674e-07 0 2.54057e+06 -9.53674e-07 0 2.53852e+06 9.53674e-07 0 2.53643e+06 -9.53674e-07 0 2.53428e+06 9.53674e-07 0 2.53208e+06 -9.53674e-07 0 2.52983e+06 1.90735e-06 0 2.52752e+06 -9.53674e-07 0 2.52515e+06 1.90735e-06 0 2.52272e+06 -1.90735e-06 0 2.52022e+06 9.53674e-07 0 2.51766e+06 -1.90735e-06 0 2.51502e+06 9.53674e-07 0 2.51232e+06 -1.90735e-06 0 2.50953e+06 9.53674e-07 0 2.50666e+06 -2.86102e-06 0 2.50371e+06 1.90735e-06 0 2.50067e+06 -2.86102e-06 0 2.49753e+06 2.86102e-06 0 2.49429e+06 -1.90735e-06 0 2.49095e+06 2.86102e-06 0 2.48749e+06 -2.86102e-06 0 2.4839e+06 2.86102e-06 0 2.48019e+06 0 0 2.47634e+06 -1.90735e-06 0 2.47235e+06 3.8147e-06 0 2.46819e+06 -2.86102e-06 0 2.46385e+06 1.90735e-06 0 2.45933e+06 -9.53674e-07 0 2.45461e+06 1.90735e-06 0 2.44966e+06 -1.90735e-06 0 2.44447e+06 9.53674e-07 0 2.43902e+06 0 0 2.43327e+06 0 0 2.4272e+06 0 0 2.42078e+06 9.53674e-07 0 2.41396e+06 -9.53674e-07 0 2.40671e+06 -9.53674e-07 0 2.39897e+06 1.90735e-06 0 2.39069e+06 -9.53674e-07 0 2.38179e+06 -1.90735e-06 0 2.37221e+06 3.8147e-06 0 2.36186e+06 -2.86102e-06 0 2.35063e+06 0 0 2.3384e+06 1.90735e-06 0 2.32505e+06 -9.53674e-07 0 2.31042e+06 1.90735e-06 0 2.29433e+06 -9.53674e-07 0 2.27656e+06 -1.90735e-06 0 2.25686e+06 5.72205e-06 0 2.23496e+06 -1.14441e-05 0 2.60992e+06 0.00134668 0 2.60991e+06 -321.707 0 2.60988e+06 -643.485 0 2.60984e+06 -965.409 0 2.60977e+06 -1287.55 0 2.60969e+06 -1609.98 0 2.60958e+06 -1932.77 0 2.60946e+06 -2255.99 0 2.60932e+06 -2579.72 0 2.60917e+06 -2904.04 0 2.60899e+06 -3229.01 0 2.60879e+06 -3554.71 0 2.60858e+06 -3881.22 0 2.60834e+06 -4208.61 0 2.60809e+06 -4536.97 0 2.60782e+06 -4866.37 0 2.60753e+06 -5196.89 0 2.60722e+06 -5528.61 0 2.60689e+06 -5861.61 0 2.60654e+06 -6195.98 0 2.60617e+06 -6531.81 0 2.60579e+06 -6869.17 0 2.60538e+06 -7208.17 0 2.60496e+06 -7548.88 0 2.60451e+06 -7891.41 0 2.60404e+06 -8235.83 0 2.60356e+06 -8582.27 0 2.60305e+06 -8930.8 0 2.60253e+06 -9281.53 0 2.60198e+06 -9634.57 0 2.60142e+06 -9990.03 0 2.60083e+06 -10348 0 2.60022e+06 -10708.6 0 2.5996e+06 -11072 0 2.59895e+06 -11438.2 0 2.59828e+06 -11807.4 0 2.59759e+06 -12179.8 0 2.59688e+06 -12555.4 0 2.59614e+06 -12934.4 0 2.59539e+06 -13316.9 0 2.59461e+06 -13703.1 0 2.59381e+06 -14093.1 0 2.59299e+06 -14487.1 0 2.59214e+06 -14885.2 0 2.59128e+06 -15287.6 0 2.59039e+06 -15694.5 0 2.58947e+06 -16106.1 0 2.58854e+06 -16522.5 0 2.58758e+06 -16944 0 2.58659e+06 -17370.7 0 2.58559e+06 -17802.8 0 2.58455e+06 -18240.7 0 2.58349e+06 -18684.5 0 2.58241e+06 -19134.4 0 2.5813e+06 -19590.7 0 2.58017e+06 -20053.7 0 2.57901e+06 -20523.6 0 2.57782e+06 -21000.8 0 2.57661e+06 -21485.5 0 2.57537e+06 -21978 0 2.5741e+06 -22478.8 0 2.57281e+06 -22988.1 0 2.57149e+06 -23506.3 0 2.57013e+06 -24033.8 0 2.56875e+06 -24571 0 2.56734e+06 -25118.3 0 2.5659e+06 -25676.2 0 2.56443e+06 -26245.2 0 2.56293e+06 -26825.8 0 2.56139e+06 -27418.5 0 2.55983e+06 -28023.9 0 2.55823e+06 -28642.6 0 2.5566e+06 -29275.2 0 2.55493e+06 -29922.4 0 2.55323e+06 -30584.8 0 2.5515e+06 -31263.4 0 2.54973e+06 -31958.9 0 2.54792e+06 -32672 0 2.54608e+06 -33403.9 0 2.5442e+06 -34155.4 0 2.54228e+06 -34927.6 0 2.54032e+06 -35721.5 0 2.53832e+06 -36538.5 0 2.53628e+06 -37379.7 0 2.5342e+06 -38246.6 0 2.53208e+06 -39140.6 0 2.52991e+06 -40063.2 0 2.52771e+06 -41016.2 0 2.52545e+06 -42001.3 0 2.52316e+06 -43020.6 0 2.52081e+06 -44076.1 0 2.51842e+06 -45170.2 0 2.51599e+06 -46305.1 0 2.5135e+06 -47483.6 0 2.51097e+06 -48708.6 0 2.50839e+06 -49983.1 0 2.50577e+06 -51310.5 0 2.50309e+06 -52694.4 0 2.50037e+06 -54138.8 0 2.4976e+06 -55647.9 0 2.49478e+06 -57226.4 0 2.49191e+06 -58879.5 0 2.489e+06 -60612.5 0 2.48605e+06 -62431.6 0 2.48306e+06 -64343.4 0 2.48003e+06 -66355 0 2.47697e+06 -68474.3 0 2.47388e+06 -70710 0 2.47077e+06 -73071.5 0 2.46765e+06 -75569.2 0 2.46453e+06 -78214.4 0 2.46142e+06 -81019.7 0 2.45833e+06 -83998.9 0 2.45528e+06 -87167.1 0 2.4523e+06 -90540.9 0 2.44941e+06 -94138.9 0 2.44663e+06 -97981.2 0 2.44401e+06 -102090 0 2.44159e+06 -106491 0 2.43942e+06 -111211 0 2.43756e+06 -116280 0 2.43609e+06 -121731 0 2.4351e+06 -127603 0 2.43468e+06 -133936 0 2.43497e+06 -140775 0 2.43611e+06 -148172 0 2.43828e+06 -156182 0 2.44169e+06 -164870 0 2.61805e+06 0.00238934 0 2.61804e+06 -628.371 0 2.61802e+06 -1256.87 0 2.61797e+06 -1885.62 0 2.61791e+06 -2514.76 0 2.61783e+06 -3144.41 0 2.61774e+06 -3774.69 0 2.61763e+06 -4405.74 0 2.6175e+06 -5037.69 0 2.61735e+06 -5670.66 0 2.61719e+06 -6304.79 0 2.61701e+06 -6940.2 0 2.61681e+06 -7577.04 0 2.6166e+06 -8215.43 0 2.61637e+06 -8855.51 0 2.61612e+06 -9497.43 0 2.61585e+06 -10141.3 0 2.61556e+06 -10787.3 0 2.61526e+06 -11435.5 0 2.61494e+06 -12086.1 0 2.6146e+06 -12739.3 0 2.61425e+06 -13395.1 0 2.61388e+06 -14053.8 0 2.61349e+06 -14715.5 0 2.61308e+06 -15380.3 0 2.61265e+06 -16048.4 0 2.61221e+06 -16720 0 2.61175e+06 -17395.2 0 2.61127e+06 -18074.3 0 2.61077e+06 -18757.2 0 2.61026e+06 -19444.4 0 2.60972e+06 -20135.8 0 2.60917e+06 -20831.8 0 2.6086e+06 -21532.4 0 2.60801e+06 -22238 0 2.6074e+06 -22948.6 0 2.60678e+06 -23664.5 0 2.60613e+06 -24385.9 0 2.60547e+06 -25113 0 2.60479e+06 -25846 0 2.60409e+06 -26585.2 0 2.60337e+06 -27330.8 0 2.60263e+06 -28082.9 0 2.60187e+06 -28841.9 0 2.60109e+06 -29608.1 0 2.60029e+06 -30381.6 0 2.59948e+06 -31162.7 0 2.59864e+06 -31951.7 0 2.59779e+06 -32748.9 0 2.59691e+06 -33554.6 0 2.59602e+06 -34369.1 0 2.5951e+06 -35192.7 0 2.59417e+06 -36025.7 0 2.59321e+06 -36868.4 0 2.59224e+06 -37721.2 0 2.59124e+06 -38584.5 0 2.59023e+06 -39458.6 0 2.58919e+06 -40343.9 0 2.58814e+06 -41240.8 0 2.58706e+06 -42149.7 0 2.58596e+06 -43070.9 0 2.58484e+06 -44005.1 0 2.5837e+06 -44952.5 0 2.58254e+06 -45913.8 0 2.58136e+06 -46889.3 0 2.58016e+06 -47879.5 0 2.57894e+06 -48885.1 0 2.5777e+06 -49906.5 0 2.57643e+06 -50944.3 0 2.57515e+06 -51999.1 0 2.57384e+06 -53071.5 0 2.57251e+06 -54162.1 0 2.57116e+06 -55271.5 0 2.56979e+06 -56400.5 0 2.5684e+06 -57549.8 0 2.56699e+06 -58720 0 2.56556e+06 -59911.9 0 2.56411e+06 -61126.4 0 2.56264e+06 -62364.1 0 2.56115e+06 -63626 0 2.55963e+06 -64912.9 0 2.5581e+06 -66225.7 0 2.55655e+06 -67565.3 0 2.55499e+06 -68932.6 0 2.5534e+06 -70328.7 0 2.5518e+06 -71754.6 0 2.55018e+06 -73211.2 0 2.54854e+06 -74699.7 0 2.54689e+06 -76221.1 0 2.54523e+06 -77776.5 0 2.54355e+06 -79367.1 0 2.54185e+06 -80993.9 0 2.54015e+06 -82658.3 0 2.53844e+06 -84361.2 0 2.53671e+06 -86104 0 2.53498e+06 -87887.6 0 2.53325e+06 -89713.4 0 2.53151e+06 -91582.3 0 2.52977e+06 -93495.5 0 2.52803e+06 -95454 0 2.52629e+06 -97458.7 0 2.52455e+06 -99510.5 0 2.52282e+06 -101610 0 2.5211e+06 -103758 0 2.51939e+06 -105955 0 2.5177e+06 -108201 0 2.51603e+06 -110495 0 2.51437e+06 -112838 0 2.51274e+06 -115229 0 2.51113e+06 -117666 0 2.50955e+06 -120147 0 2.508e+06 -122671 0 2.50648e+06 -125234 0 2.50499e+06 -127831 0 2.50353e+06 -130458 0 2.5021e+06 -133109 0 2.5007e+06 -135775 0 2.49931e+06 -138448 0 2.49794e+06 -141115 0 2.49656e+06 -143764 0 2.49517e+06 -146378 0 2.49374e+06 -148939 0 2.49224e+06 -151424 0 2.49063e+06 -153807 0 2.48886e+06 -156056 0 2.48688e+06 -158135 0 2.4846e+06 -160003 0 2.48194e+06 -161607 0 2.63103e+06 0.00291431 0 2.63102e+06 -904.434 0 2.631e+06 -1809.02 0 2.63096e+06 -2713.92 0 2.63091e+06 -3619.29 0 2.63084e+06 -4525.28 0 2.63076e+06 -5432.05 0 2.63066e+06 -6339.76 0 2.63055e+06 -7248.55 0 2.63042e+06 -8158.6 0 2.63028e+06 -9070.06 0 2.63012e+06 -9983.08 0 2.62995e+06 -10897.8 0 2.62976e+06 -11814.5 0 2.62956e+06 -12733.2 0 2.62934e+06 -13654.1 0 2.62911e+06 -14577.4 0 2.62886e+06 -15503.2 0 2.6286e+06 -16431.8 0 2.62832e+06 -17363.2 0 2.62803e+06 -18297.7 0 2.62772e+06 -19235.4 0 2.6274e+06 -20176.5 0 2.62706e+06 -21121.2 0 2.62671e+06 -22069.7 0 2.62634e+06 -23022.1 0 2.62596e+06 -23978.6 0 2.62556e+06 -24939.4 0 2.62515e+06 -25904.7 0 2.62472e+06 -26874.7 0 2.62427e+06 -27849.6 0 2.62382e+06 -28829.6 0 2.62334e+06 -29814.8 0 2.62285e+06 -30805.5 0 2.62235e+06 -31801.9 0 2.62183e+06 -32804.2 0 2.62129e+06 -33812.6 0 2.62074e+06 -34827.4 0 2.62018e+06 -35848.7 0 2.6196e+06 -36876.7 0 2.619e+06 -37911.7 0 2.61839e+06 -38954 0 2.61777e+06 -40003.7 0 2.61712e+06 -41061.2 0 2.61647e+06 -42126.5 0 2.6158e+06 -43200.1 0 2.61511e+06 -44282.2 0 2.61441e+06 -45372.9 0 2.61369e+06 -46472.6 0 2.61296e+06 -47581.5 0 2.61221e+06 -48700 0 2.61145e+06 -49828.3 0 2.61067e+06 -50966.6 0 2.60988e+06 -52115.3 0 2.60908e+06 -53274.6 0 2.60826e+06 -54444.9 0 2.60742e+06 -55626.5 0 2.60657e+06 -56819.7 0 2.60571e+06 -58024.7 0 2.60483e+06 -59241.9 0 2.60393e+06 -60471.7 0 2.60303e+06 -61714.3 0 2.6021e+06 -62970.2 0 2.60117e+06 -64239.6 0 2.60022e+06 -65522.8 0 2.59925e+06 -66820.4 0 2.59828e+06 -68132.5 0 2.59729e+06 -69459.6 0 2.59628e+06 -70802 0 2.59527e+06 -72160.2 0 2.59424e+06 -73534.4 0 2.5932e+06 -74925 0 2.59214e+06 -76332.5 0 2.59108e+06 -77757.2 0 2.59e+06 -79199.4 0 2.58891e+06 -80659.7 0 2.58781e+06 -82138.3 0 2.5867e+06 -83635.6 0 2.58557e+06 -85152.1 0 2.58444e+06 -86688.1 0 2.5833e+06 -88243.9 0 2.58215e+06 -89820 0 2.58099e+06 -91416.7 0 2.57982e+06 -93034.3 0 2.57864e+06 -94673.2 0 2.57746e+06 -96333.8 0 2.57627e+06 -98016.3 0 2.57507e+06 -99721 0 2.57387e+06 -101448 0 2.57266e+06 -103198 0 2.57144e+06 -104972 0 2.57023e+06 -106768 0 2.569e+06 -108588 0 2.56778e+06 -110431 0 2.56655e+06 -112298 0 2.56532e+06 -114189 0 2.56409e+06 -116104 0 2.56286e+06 -118043 0 2.56163e+06 -120006 0 2.5604e+06 -121993 0 2.55917e+06 -124003 0 2.55795e+06 -126037 0 2.55672e+06 -128094 0 2.5555e+06 -130175 0 2.55429e+06 -132279 0 2.55307e+06 -134405 0 2.55186e+06 -136554 0 2.55066e+06 -138725 0 2.54946e+06 -140918 0 2.54827e+06 -143133 0 2.54709e+06 -145370 0 2.54591e+06 -147628 0 2.54474e+06 -149907 0 2.54358e+06 -152209 0 2.54243e+06 -154533 0 2.54129e+06 -156881 0 2.54017e+06 -159254 0 2.53907e+06 -161653 0 2.53799e+06 -164083 0 2.53694e+06 -166545 0 2.53592e+06 -169046 0 2.53495e+06 -171590 0 2.53405e+06 -174186 0 2.53322e+06 -176844 0 2.53249e+06 -179575 0 2.53189e+06 -182395 0 2.53145e+06 -185322 0 2.53123e+06 -188380 0 2.64818e+06 0.00299205 0 2.64818e+06 -1141.82 0 2.64816e+06 -2283.81 0 2.64813e+06 -3426.11 0 2.64808e+06 -4568.9 0 2.64803e+06 -5712.32 0 2.64796e+06 -6856.54 0 2.64788e+06 -8001.72 0 2.64778e+06 -9148.01 0 2.64768e+06 -10295.6 0 2.64756e+06 -11444.6 0 2.64743e+06 -12595.2 0 2.64728e+06 -13747.6 0 2.64713e+06 -14901.9 0 2.64696e+06 -16058.3 0 2.64678e+06 -17217 0 2.64658e+06 -18378 0 2.64638e+06 -19541.7 0 2.64616e+06 -20708.1 0 2.64593e+06 -21877.4 0 2.64568e+06 -23049.8 0 2.64543e+06 -24225.5 0 2.64516e+06 -25404.6 0 2.64488e+06 -26587.3 0 2.64459e+06 -27773.8 0 2.64428e+06 -28964.2 0 2.64396e+06 -30158.7 0 2.64363e+06 -31357.5 0 2.64329e+06 -32560.8 0 2.64294e+06 -33768.7 0 2.64257e+06 -34981.4 0 2.64219e+06 -36199.2 0 2.6418e+06 -37422.2 0 2.6414e+06 -38650.5 0 2.64098e+06 -39884.4 0 2.64055e+06 -41124 0 2.64012e+06 -42369.6 0 2.63966e+06 -43621.3 0 2.6392e+06 -44879.3 0 2.63873e+06 -46143.8 0 2.63824e+06 -47415 0 2.63774e+06 -48693.2 0 2.63723e+06 -49978.4 0 2.63671e+06 -51270.9 0 2.63618e+06 -52570.9 0 2.63563e+06 -53878.6 0 2.63508e+06 -55194.2 0 2.63451e+06 -56517.9 0 2.63393e+06 -57850 0 2.63334e+06 -59190.5 0 2.63274e+06 -60539.8 0 2.63212e+06 -61898 0 2.6315e+06 -63265.3 0 2.63087e+06 -64642 0 2.63022e+06 -66028.3 0 2.62957e+06 -67424.4 0 2.6289e+06 -68830.4 0 2.62822e+06 -70246.7 0 2.62754e+06 -71673.4 0 2.62684e+06 -73110.7 0 2.62613e+06 -74558.9 0 2.62542e+06 -76018.1 0 2.62469e+06 -77488.7 0 2.62395e+06 -78970.7 0 2.62321e+06 -80464.4 0 2.62245e+06 -81970.1 0 2.62169e+06 -83487.9 0 2.62091e+06 -85018 0 2.62013e+06 -86560.7 0 2.61934e+06 -88116.2 0 2.61854e+06 -89684.6 0 2.61774e+06 -91266.1 0 2.61692e+06 -92861 0 2.6161e+06 -94469.5 0 2.61527e+06 -96091.6 0 2.61443e+06 -97727.7 0 2.61359e+06 -99377.9 0 2.61274e+06 -101042 0 2.61188e+06 -102721 0 2.61102e+06 -104415 0 2.61015e+06 -106123 0 2.60927e+06 -107846 0 2.60839e+06 -109584 0 2.6075e+06 -111337 0 2.60661e+06 -113106 0 2.60572e+06 -114890 0 2.60482e+06 -116690 0 2.60392e+06 -118505 0 2.60301e+06 -120335 0 2.6021e+06 -122182 0 2.60119e+06 -124044 0 2.60027e+06 -125922 0 2.59935e+06 -127817 0 2.59844e+06 -129727 0 2.59751e+06 -131652 0 2.59659e+06 -133594 0 2.59567e+06 -135552 0 2.59475e+06 -137526 0 2.59382e+06 -139515 0 2.5929e+06 -141521 0 2.59198e+06 -143542 0 2.59106e+06 -145578 0 2.59014e+06 -147630 0 2.58922e+06 -149698 0 2.58831e+06 -151781 0 2.5874e+06 -153879 0 2.58649e+06 -155991 0 2.58558e+06 -158119 0 2.58468e+06 -160260 0 2.58379e+06 -162416 0 2.58289e+06 -164585 0 2.58201e+06 -166768 0 2.58113e+06 -168963 0 2.58025e+06 -171170 0 2.57938e+06 -173388 0 2.57852e+06 -175616 0 2.57766e+06 -177852 0 2.5768e+06 -180096 0 2.57595e+06 -182345 0 2.57509e+06 -184596 0 2.57424e+06 -186848 0 2.57337e+06 -189095 0 2.5725e+06 -191334 0 2.5716e+06 -193559 0 2.57067e+06 -195762 0 2.56969e+06 -197936 0 2.56865e+06 -200070 0 2.56752e+06 -202150 0 2.66878e+06 0.00278368 0 2.66877e+06 -1339.19 0 2.66876e+06 -2678.52 0 2.66873e+06 -4018.16 0 2.6687e+06 -5358.24 0 2.66865e+06 -6698.91 0 2.6686e+06 -8040.33 0 2.66853e+06 -9382.63 0 2.66845e+06 -10726 0 2.66837e+06 -12070.5 0 2.66827e+06 -13416.4 0 2.66817e+06 -14763.7 0 2.66805e+06 -16112.7 0 2.66792e+06 -17463.5 0 2.66779e+06 -18816.2 0 2.66764e+06 -20171 0 2.66748e+06 -21528 0 2.66732e+06 -22887.4 0 2.66714e+06 -24249.4 0 2.66695e+06 -25614 0 2.66676e+06 -26981.5 0 2.66655e+06 -28351.9 0 2.66633e+06 -29725.5 0 2.66611e+06 -31102.4 0 2.66587e+06 -32482.7 0 2.66563e+06 -33866.7 0 2.66537e+06 -35254.3 0 2.66511e+06 -36645.9 0 2.66483e+06 -38041.5 0 2.66455e+06 -39441.4 0 2.66425e+06 -40845.6 0 2.66395e+06 -42254.3 0 2.66364e+06 -43667.7 0 2.66331e+06 -45085.9 0 2.66298e+06 -46509.2 0 2.66264e+06 -47937.5 0 2.66229e+06 -49371.1 0 2.66193e+06 -50810.2 0 2.66156e+06 -52254.9 0 2.66118e+06 -53705.4 0 2.6608e+06 -55161.8 0 2.6604e+06 -56624.2 0 2.65999e+06 -58092.9 0 2.65958e+06 -59568 0 2.65916e+06 -61049.6 0 2.65873e+06 -62537.9 0 2.65829e+06 -64033.1 0 2.65784e+06 -65535.3 0 2.65738e+06 -67044.6 0 2.65691e+06 -68561.3 0 2.65644e+06 -70085.4 0 2.65596e+06 -71617.1 0 2.65547e+06 -73156.7 0 2.65497e+06 -74704.1 0 2.65446e+06 -76259.7 0 2.65395e+06 -77823.5 0 2.65343e+06 -79395.6 0 2.6529e+06 -80976.3 0 2.65236e+06 -82565.7 0 2.65181e+06 -84163.9 0 2.65126e+06 -85771 0 2.6507e+06 -87387.3 0 2.65014e+06 -89012.8 0 2.64956e+06 -90647.7 0 2.64898e+06 -92292.1 0 2.6484e+06 -93946.2 0 2.64781e+06 -95610.1 0 2.64721e+06 -97283.8 0 2.6466e+06 -98967.7 0 2.64599e+06 -100662 0 2.64537e+06 -102366 0 2.64475e+06 -104081 0 2.64412e+06 -105806 0 2.64349e+06 -107542 0 2.64285e+06 -109288 0 2.6422e+06 -111046 0 2.64155e+06 -112814 0 2.6409e+06 -114593 0 2.64024e+06 -116384 0 2.63958e+06 -118186 0 2.63891e+06 -119999 0 2.63824e+06 -121823 0 2.63757e+06 -123659 0 2.63689e+06 -125506 0 2.63621e+06 -127365 0 2.63552e+06 -129235 0 2.63483e+06 -131117 0 2.63414e+06 -133011 0 2.63345e+06 -134916 0 2.63275e+06 -136834 0 2.63205e+06 -138762 0 2.63135e+06 -140703 0 2.63065e+06 -142656 0 2.62994e+06 -144620 0 2.62923e+06 -146596 0 2.62853e+06 -148584 0 2.62782e+06 -150584 0 2.62711e+06 -152595 0 2.62639e+06 -154618 0 2.62568e+06 -156652 0 2.62497e+06 -158698 0 2.62426e+06 -160756 0 2.62354e+06 -162825 0 2.62283e+06 -164905 0 2.62211e+06 -166996 0 2.6214e+06 -169099 0 2.62068e+06 -171213 0 2.61997e+06 -173337 0 2.61926e+06 -175473 0 2.61854e+06 -177619 0 2.61783e+06 -179776 0 2.61711e+06 -181944 0 2.6164e+06 -184123 0 2.61568e+06 -186312 0 2.61497e+06 -188512 0 2.61426e+06 -190723 0 2.61355e+06 -192945 0 2.61283e+06 -195179 0 2.61213e+06 -197424 0 2.61142e+06 -199683 0 2.61072e+06 -201956 0 2.61002e+06 -204244 0 2.60933e+06 -206550 0 2.60865e+06 -208875 0 2.60799e+06 -211223 0 2.60736e+06 -213597 0 2.60675e+06 -216003 0 2.60619e+06 -218448 0 2.69212e+06 0.00245696 0 2.69212e+06 -1499.33 0 2.6921e+06 -2998.79 0 2.69208e+06 -4498.52 0 2.69206e+06 -5998.63 0 2.69202e+06 -7499.28 0 2.69198e+06 -9000.57 0 2.69192e+06 -10502.7 0 2.69186e+06 -12005.6 0 2.6918e+06 -13509.7 0 2.69172e+06 -15014.9 0 2.69164e+06 -16521.4 0 2.69155e+06 -18029.4 0 2.69145e+06 -19538.9 0 2.69134e+06 -21050.2 0 2.69122e+06 -22563.2 0 2.6911e+06 -24078.3 0 2.69097e+06 -25595.4 0 2.69083e+06 -27114.7 0 2.69068e+06 -28636.4 0 2.69053e+06 -30160.6 0 2.69037e+06 -31687.3 0 2.6902e+06 -33216.9 0 2.69002e+06 -34749.3 0 2.68983e+06 -36284.7 0 2.68964e+06 -37823.2 0 2.68944e+06 -39365 0 2.68923e+06 -40910.1 0 2.68902e+06 -42458.8 0 2.68879e+06 -44011.2 0 2.68856e+06 -45567.3 0 2.68833e+06 -47127.3 0 2.68808e+06 -48691.4 0 2.68783e+06 -50259.6 0 2.68757e+06 -51832.1 0 2.6873e+06 -53409.1 0 2.68703e+06 -54990.5 0 2.68675e+06 -56576.7 0 2.68646e+06 -58167.6 0 2.68617e+06 -59763.5 0 2.68586e+06 -61364.4 0 2.68556e+06 -62970.5 0 2.68524e+06 -64581.9 0 2.68492e+06 -66198.7 0 2.68459e+06 -67821 0 2.68425e+06 -69449 0 2.68391e+06 -71082.8 0 2.68356e+06 -72722.5 0 2.68321e+06 -74368.3 0 2.68285e+06 -76020.1 0 2.68248e+06 -77678.3 0 2.68211e+06 -79342.8 0 2.68173e+06 -81013.8 0 2.68134e+06 -82691.4 0 2.68095e+06 -84375.8 0 2.68055e+06 -86067 0 2.68015e+06 -87765.1 0 2.67974e+06 -89470.3 0 2.67933e+06 -91182.6 0 2.67891e+06 -92902.3 0 2.67848e+06 -94629.3 0 2.67805e+06 -96363.8 0 2.67762e+06 -98105.8 0 2.67718e+06 -99855.6 0 2.67673e+06 -101613 0 2.67628e+06 -103379 0 2.67583e+06 -105152 0 2.67537e+06 -106933 0 2.6749e+06 -108723 0 2.67444e+06 -110521 0 2.67396e+06 -112327 0 2.67349e+06 -114142 0 2.673e+06 -115965 0 2.67252e+06 -117796 0 2.67203e+06 -119637 0 2.67154e+06 -121486 0 2.67104e+06 -123343 0 2.67054e+06 -125210 0 2.67004e+06 -127086 0 2.66953e+06 -128970 0 2.66902e+06 -130864 0 2.66851e+06 -132767 0 2.66799e+06 -134679 0 2.66748e+06 -136600 0 2.66696e+06 -138530 0 2.66643e+06 -140470 0 2.66591e+06 -142419 0 2.66538e+06 -144377 0 2.66485e+06 -146345 0 2.66431e+06 -148322 0 2.66378e+06 -150309 0 2.66324e+06 -152305 0 2.66271e+06 -154311 0 2.66217e+06 -156326 0 2.66163e+06 -158351 0 2.66108e+06 -160386 0 2.66054e+06 -162430 0 2.65999e+06 -164484 0 2.65945e+06 -166547 0 2.6589e+06 -168620 0 2.65835e+06 -170703 0 2.65781e+06 -172795 0 2.65726e+06 -174897 0 2.65671e+06 -177009 0 2.65616e+06 -179131 0 2.65561e+06 -181262 0 2.65506e+06 -183402 0 2.65451e+06 -185553 0 2.65396e+06 -187713 0 2.65341e+06 -189883 0 2.65286e+06 -192062 0 2.65231e+06 -194251 0 2.65176e+06 -196450 0 2.65121e+06 -198658 0 2.65066e+06 -200876 0 2.65012e+06 -203102 0 2.64957e+06 -205339 0 2.64903e+06 -207583 0 2.64848e+06 -209837 0 2.64794e+06 -212099 0 2.64739e+06 -214369 0 2.64685e+06 -216645 0 2.6463e+06 -218928 0 2.64575e+06 -221216 0 2.6452e+06 -223507 0 2.64463e+06 -225800 0 2.64405e+06 -228091 0 2.64346e+06 -230379 0 2.71759e+06 0.00211018 0 2.71759e+06 -1626.81 0 2.71758e+06 -3253.74 0 2.71757e+06 -4880.89 0 2.71755e+06 -6508.37 0 2.71752e+06 -8136.31 0 2.71748e+06 -9764.81 0 2.71744e+06 -11394 0 2.7174e+06 -13023.9 0 2.71735e+06 -14654.8 0 2.71729e+06 -16286.7 0 2.71722e+06 -17919.7 0 2.71715e+06 -19553.9 0 2.71708e+06 -21189.5 0 2.71699e+06 -22826.5 0 2.71691e+06 -24465.1 0 2.71681e+06 -26105.4 0 2.71671e+06 -27747.5 0 2.7166e+06 -29391.4 0 2.71649e+06 -31037.4 0 2.71637e+06 -32685.5 0 2.71625e+06 -34335.9 0 2.71612e+06 -35988.6 0 2.71598e+06 -37643.7 0 2.71584e+06 -39301.4 0 2.71569e+06 -40961.8 0 2.71554e+06 -42624.9 0 2.71538e+06 -44291 0 2.71522e+06 -45960 0 2.71505e+06 -47632.2 0 2.71487e+06 -49307.5 0 2.71469e+06 -50986.2 0 2.7145e+06 -52668.3 0 2.71431e+06 -54353.9 0 2.71411e+06 -56043.2 0 2.71391e+06 -57736.2 0 2.7137e+06 -59433.1 0 2.71349e+06 -61133.9 0 2.71327e+06 -62838.8 0 2.71304e+06 -64547.8 0 2.71281e+06 -66261.1 0 2.71258e+06 -67978.8 0 2.71234e+06 -69700.9 0 2.71209e+06 -71427.6 0 2.71185e+06 -73158.9 0 2.71159e+06 -74895.1 0 2.71133e+06 -76636 0 2.71107e+06 -78382 0 2.7108e+06 -80133 0 2.71052e+06 -81889.1 0 2.71025e+06 -83650.5 0 2.70996e+06 -85417.2 0 2.70968e+06 -87189.4 0 2.70938e+06 -88967.1 0 2.70909e+06 -90750.4 0 2.70879e+06 -92539.4 0 2.70848e+06 -94334.2 0 2.70818e+06 -96134.9 0 2.70786e+06 -97941.6 0 2.70755e+06 -99754.3 0 2.70723e+06 -101573 0 2.7069e+06 -103398 0 2.70658e+06 -105230 0 2.70624e+06 -107067 0 2.70591e+06 -108912 0 2.70557e+06 -110762 0 2.70523e+06 -112620 0 2.70488e+06 -114484 0 2.70453e+06 -116355 0 2.70418e+06 -118232 0 2.70383e+06 -120117 0 2.70347e+06 -122008 0 2.70311e+06 -123907 0 2.70275e+06 -125813 0 2.70238e+06 -127726 0 2.70201e+06 -129646 0 2.70164e+06 -131573 0 2.70126e+06 -133508 0 2.70089e+06 -135450 0 2.70051e+06 -137400 0 2.70013e+06 -139357 0 2.69975e+06 -141322 0 2.69936e+06 -143294 0 2.69897e+06 -145274 0 2.69858e+06 -147262 0 2.69819e+06 -149258 0 2.6978e+06 -151261 0 2.69741e+06 -153273 0 2.69701e+06 -155292 0 2.69661e+06 -157319 0 2.69622e+06 -159354 0 2.69582e+06 -161397 0 2.69542e+06 -163449 0 2.69501e+06 -165508 0 2.69461e+06 -167576 0 2.69421e+06 -169651 0 2.6938e+06 -171735 0 2.6934e+06 -173827 0 2.69299e+06 -175927 0 2.69259e+06 -178036 0 2.69218e+06 -180153 0 2.69177e+06 -182278 0 2.69136e+06 -184412 0 2.69096e+06 -186554 0 2.69055e+06 -188704 0 2.69014e+06 -190863 0 2.68973e+06 -193030 0 2.68932e+06 -195206 0 2.68892e+06 -197390 0 2.68851e+06 -199582 0 2.6881e+06 -201783 0 2.68769e+06 -203993 0 2.68728e+06 -206211 0 2.68688e+06 -208437 0 2.68647e+06 -210672 0 2.68606e+06 -212916 0 2.68566e+06 -215169 0 2.68525e+06 -217430 0 2.68485e+06 -219701 0 2.68444e+06 -221981 0 2.68404e+06 -224270 0 2.68364e+06 -226568 0 2.68324e+06 -228877 0 2.68284e+06 -231197 0 2.68245e+06 -233528 0 2.68206e+06 -235871 0 2.68168e+06 -238228 0 2.68131e+06 -240600 0 2.74468e+06 0.0017948 0 2.74468e+06 -1726.42 0 2.74467e+06 -3452.94 0 2.74466e+06 -5179.65 0 2.74464e+06 -6906.65 0 2.74462e+06 -8634.03 0 2.7446e+06 -10361.9 0 2.74457e+06 -12090.3 0 2.74454e+06 -13819.4 0 2.7445e+06 -15549.3 0 2.74445e+06 -17280 0 2.74441e+06 -19011.7 0 2.74435e+06 -20744.4 0 2.7443e+06 -22478.3 0 2.74424e+06 -24213.4 0 2.74417e+06 -25949.9 0 2.7441e+06 -27687.8 0 2.74403e+06 -29427.2 0 2.74395e+06 -31168.2 0 2.74386e+06 -32910.9 0 2.74378e+06 -34655.4 0 2.74368e+06 -36401.8 0 2.74359e+06 -38150.2 0 2.74349e+06 -39900.7 0 2.74338e+06 -41653.4 0 2.74327e+06 -43408.3 0 2.74316e+06 -45165.6 0 2.74304e+06 -46925.4 0 2.74292e+06 -48687.7 0 2.7428e+06 -50452.6 0 2.74267e+06 -52220.2 0 2.74253e+06 -53990.6 0 2.74239e+06 -55764 0 2.74225e+06 -57540.3 0 2.74211e+06 -59319.7 0 2.74196e+06 -61102.3 0 2.7418e+06 -62888.1 0 2.74165e+06 -64677.3 0 2.74148e+06 -66469.9 0 2.74132e+06 -68266 0 2.74115e+06 -70065.8 0 2.74098e+06 -71869.2 0 2.7408e+06 -73676.3 0 2.74062e+06 -75487.3 0 2.74044e+06 -77302.3 0 2.74025e+06 -79121.3 0 2.74006e+06 -80944.4 0 2.73987e+06 -82771.6 0 2.73967e+06 -84603.1 0 2.73947e+06 -86439 0 2.73927e+06 -88279.3 0 2.73906e+06 -90124.1 0 2.73885e+06 -91973.4 0 2.73864e+06 -93827.4 0 2.73842e+06 -95686.2 0 2.73821e+06 -97549.7 0 2.73798e+06 -99418.2 0 2.73776e+06 -101292 0 2.73753e+06 -103170 0 2.7373e+06 -105053 0 2.73707e+06 -106942 0 2.73683e+06 -108836 0 2.73659e+06 -110735 0 2.73635e+06 -112640 0 2.73611e+06 -114550 0 2.73587e+06 -116466 0 2.73562e+06 -118387 0 2.73537e+06 -120314 0 2.73512e+06 -122246 0 2.73486e+06 -124184 0 2.73461e+06 -126128 0 2.73435e+06 -128078 0 2.73409e+06 -130034 0 2.73383e+06 -131996 0 2.73356e+06 -133964 0 2.7333e+06 -135938 0 2.73303e+06 -137919 0 2.73276e+06 -139905 0 2.73249e+06 -141898 0 2.73222e+06 -143897 0 2.73195e+06 -145903 0 2.73167e+06 -147915 0 2.7314e+06 -149933 0 2.73112e+06 -151958 0 2.73085e+06 -153990 0 2.73057e+06 -156028 0 2.73029e+06 -158073 0 2.73001e+06 -160125 0 2.72973e+06 -162184 0 2.72945e+06 -164249 0 2.72916e+06 -166321 0 2.72888e+06 -168400 0 2.7286e+06 -170486 0 2.72831e+06 -172579 0 2.72803e+06 -174679 0 2.72774e+06 -176786 0 2.72746e+06 -178900 0 2.72718e+06 -181022 0 2.72689e+06 -183150 0 2.72661e+06 -185286 0 2.72632e+06 -187429 0 2.72604e+06 -189579 0 2.72575e+06 -191737 0 2.72547e+06 -193902 0 2.72518e+06 -196074 0 2.7249e+06 -198254 0 2.72462e+06 -200441 0 2.72434e+06 -202635 0 2.72406e+06 -204838 0 2.72377e+06 -207047 0 2.72349e+06 -209265 0 2.72322e+06 -211490 0 2.72294e+06 -213723 0 2.72266e+06 -215963 0 2.72238e+06 -218211 0 2.72211e+06 -220467 0 2.72184e+06 -222731 0 2.72156e+06 -225002 0 2.72129e+06 -227281 0 2.72103e+06 -229568 0 2.72076e+06 -231862 0 2.72049e+06 -234164 0 2.72023e+06 -236473 0 2.71996e+06 -238790 0 2.7197e+06 -241114 0 2.71943e+06 -243444 0 2.71917e+06 -245780 0 2.7189e+06 -248121 0 2.77295e+06 0.00152607 0 2.77294e+06 -1802.5 0 2.77294e+06 -3605.08 0 2.77293e+06 -5407.83 0 2.77292e+06 -7210.82 0 2.77291e+06 -9014.13 0 2.77289e+06 -10817.9 0 2.77287e+06 -12622.1 0 2.77284e+06 -14426.8 0 2.77282e+06 -16232.3 0 2.77279e+06 -18038.4 0 2.77275e+06 -19845.4 0 2.77272e+06 -21653.2 0 2.77268e+06 -23462.1 0 2.77263e+06 -25272 0 2.77259e+06 -27083 0 2.77254e+06 -28895.2 0 2.77249e+06 -30708.7 0 2.77243e+06 -32523.6 0 2.77237e+06 -34339.9 0 2.77231e+06 -36157.8 0 2.77225e+06 -37977.3 0 2.77218e+06 -39798.5 0 2.77211e+06 -41621.4 0 2.77203e+06 -43446.2 0 2.77196e+06 -45272.9 0 2.77188e+06 -47101.6 0 2.7718e+06 -48932.3 0 2.77171e+06 -50765.3 0 2.77162e+06 -52600.4 0 2.77153e+06 -54437.9 0 2.77144e+06 -56277.8 0 2.77134e+06 -58120.1 0 2.77124e+06 -59964.9 0 2.77114e+06 -61812.4 0 2.77104e+06 -63662.5 0 2.77093e+06 -65515.4 0 2.77082e+06 -67371.2 0 2.77071e+06 -69229.8 0 2.77059e+06 -71091.4 0 2.77048e+06 -72956.1 0 2.77036e+06 -74823.9 0 2.77023e+06 -76694.9 0 2.77011e+06 -78569.2 0 2.76998e+06 -80446.7 0 2.76985e+06 -82327.7 0 2.76972e+06 -84212.2 0 2.76959e+06 -86100.2 0 2.76945e+06 -87991.9 0 2.76931e+06 -89887.2 0 2.76917e+06 -91786.3 0 2.76903e+06 -93689.2 0 2.76889e+06 -95595.9 0 2.76874e+06 -97506.6 0 2.76859e+06 -99421.4 0 2.76844e+06 -101340 0 2.76829e+06 -103263 0 2.76814e+06 -105190 0 2.76798e+06 -107122 0 2.76782e+06 -109057 0 2.76767e+06 -110998 0 2.7675e+06 -112942 0 2.76734e+06 -114891 0 2.76718e+06 -116845 0 2.76701e+06 -118803 0 2.76685e+06 -120766 0 2.76668e+06 -122734 0 2.76651e+06 -124707 0 2.76634e+06 -126684 0 2.76617e+06 -128666 0 2.766e+06 -130654 0 2.76583e+06 -132646 0 2.76565e+06 -134643 0 2.76548e+06 -136646 0 2.7653e+06 -138653 0 2.76512e+06 -140666 0 2.76495e+06 -142685 0 2.76477e+06 -144708 0 2.76459e+06 -146737 0 2.76441e+06 -148771 0 2.76423e+06 -150811 0 2.76405e+06 -152856 0 2.76387e+06 -154907 0 2.76369e+06 -156964 0 2.7635e+06 -159026 0 2.76332e+06 -161094 0 2.76314e+06 -163168 0 2.76296e+06 -165247 0 2.76278e+06 -167332 0 2.76259e+06 -169423 0 2.76241e+06 -171521 0 2.76223e+06 -173624 0 2.76205e+06 -175733 0 2.76187e+06 -177848 0 2.76168e+06 -179969 0 2.7615e+06 -182096 0 2.76132e+06 -184230 0 2.76114e+06 -186369 0 2.76097e+06 -188515 0 2.76079e+06 -190667 0 2.76061e+06 -192826 0 2.76043e+06 -194990 0 2.76026e+06 -197161 0 2.76008e+06 -199339 0 2.75991e+06 -201523 0 2.75973e+06 -203713 0 2.75956e+06 -205910 0 2.75939e+06 -208114 0 2.75922e+06 -210324 0 2.75905e+06 -212541 0 2.75889e+06 -214764 0 2.75872e+06 -216994 0 2.75856e+06 -219230 0 2.75839e+06 -221474 0 2.75823e+06 -223724 0 2.75807e+06 -225981 0 2.75792e+06 -228245 0 2.75776e+06 -230515 0 2.75761e+06 -232793 0 2.75745e+06 -235077 0 2.7573e+06 -237369 0 2.75716e+06 -239667 0 2.75701e+06 -241973 0 2.75687e+06 -244287 0 2.75673e+06 -246607 0 2.75659e+06 -248936 0 2.75646e+06 -251272 0 2.75633e+06 -253617 0 2.80203e+06 0.00129452 0 2.80203e+06 -1858.74 0 2.80202e+06 -3717.55 0 2.80202e+06 -5576.5 0 2.80201e+06 -7435.65 0 2.802e+06 -9295.08 0 2.80199e+06 -11154.9 0 2.80198e+06 -13015.1 0 2.80196e+06 -14875.7 0 2.80195e+06 -16736.9 0 2.80193e+06 -18598.8 0 2.8019e+06 -20461.3 0 2.80188e+06 -22324.6 0 2.80186e+06 -24188.7 0 2.80183e+06 -26053.8 0 2.8018e+06 -27919.7 0 2.80177e+06 -29786.7 0 2.80173e+06 -31654.8 0 2.8017e+06 -33524.1 0 2.80166e+06 -35394.6 0 2.80162e+06 -37266.4 0 2.80158e+06 -39139.6 0 2.80154e+06 -41014.2 0 2.80149e+06 -42890.3 0 2.80144e+06 -44767.9 0 2.8014e+06 -46647.3 0 2.80135e+06 -48528.3 0 2.80129e+06 -50411 0 2.80124e+06 -52295.6 0 2.80118e+06 -54182.1 0 2.80113e+0