<?xml version="1.0"?> 
<VTKFile type="StructuredGrid" version="0.1"> 
<StructuredGrid WholeExtent="0 127 0 127 0 0"> 
<Piece Extent="0 127 0 127 0 0"> 
<PointData>
<DataArray type="Float32" Name="E" format="ascii" NumberOfComponents="3"> 
5.72205e-06 8.32673e+06 0 -3.1438e+06 692352 0 -2.4823e+06 1.00591e+06 0 -2.64823e+06 266433 0 -2.55923e+06 177530 0 -2.59987e+06 -42536.6 0 -2.61519e+06 -141885 0 -2.65329e+06 -235644 0 -2.69172e+06 -294638 0 -2.73496e+06 -336278 0 -2.77905e+06 -359497 0 -2.82361e+06 -368332 0 -2.86752e+06 -364408 0 -2.91019e+06 -349641 0 -2.9511e+06 -325539 0 -2.98983e+06 -293467 0 -3.0261e+06 -254624 0 -3.05966e+06 -210076 0 -3.09037e+06 -160771 0 -3.11812e+06 -107551 0 -3.14285e+06 -51162 0 -3.16455e+06 7733.96 0 -3.18325e+06 68551.8 0 -3.19899e+06 130775 0 -3.21186e+06 193951 0 -3.22194e+06 257681 0 -3.22936e+06 321617 0 -3.23423e+06 385457 0 -3.23668e+06 448940 0 -3.23685e+06 511841 0 -3.23488e+06 573969 0 -3.23091e+06 635161 0 -3.22507e+06 695281 0 -3.2175e+06 754217 0 -3.20833e+06 811878 0 -3.19769e+06 868189 0 -3.18571e+06 923095 0 -3.17249e+06 976553 0 -3.15816e+06 1.02853e+06 0 -3.14281e+06 1.07902e+06 0 -3.12655e+06 1.128e+06 0 -3.10948e+06 1.17547e+06 0 -3.09167e+06 1.22144e+06 0 -3.07321e+06 1.26592e+06 0 -3.05418e+06 1.30892e+06 0 -3.03465e+06 1.35048e+06 0 -3.01469e+06 1.39061e+06 0 -2.99436e+06 1.42935e+06 0 -2.9737e+06 1.46671e+06 0 -2.95279e+06 1.50274e+06 0 -2.93166e+06 1.53746e+06 0 -2.91035e+06 1.57092e+06 0 -2.88892e+06 1.60314e+06 0 -2.86739e+06 1.63417e+06 0 -2.84579e+06 1.66403e+06 0 -2.82417e+06 1.69277e+06 0 -2.80254e+06 1.72041e+06 0 -2.78094e+06 1.74699e+06 0 -2.75938e+06 1.77256e+06 0 -2.73788e+06 1.79714e+06 0 -2.71647e+06 1.82076e+06 0 -2.69516e+06 1.84346e+06 0 -2.67396e+06 1.86527e+06 0 -2.65289e+06 1.88622e+06 0 -2.63196e+06 1.90634e+06 0 -2.61119e+06 1.92567e+06 0 -2.59057e+06 1.94422e+06 0 -2.57012e+06 1.96203e+06 0 -2.54984e+06 1.97913e+06 0 -2.52974e+06 1.99553e+06 0 -2.50983e+06 2.01127e+06 0 -2.49011e+06 2.02636e+06 0 -2.47058e+06 2.04084e+06 0 -2.45124e+06 2.05473e+06 0 -2.43211e+06 2.06804e+06 0 -2.41317e+06 2.08079e+06 0 -2.39444e+06 2.09302e+06 0 -2.37591e+06 2.10473e+06 0 -2.35758e+06 2.11594e+06 0 -2.33945e+06 2.12668e+06 0 -2.32152e+06 2.13696e+06 0 -2.3038e+06 2.1468e+06 0 -2.28628e+06 2.15621e+06 0 -2.26896e+06 2.1652e+06 0 -2.25183e+06 2.1738e+06 0 -2.23491e+06 2.18202e+06 0 -2.21817e+06 2.18986e+06 0 -2.20164e+06 2.19735e+06 0 -2.18529e+06 2.2045e+06 0 -2.16913e+06 2.21131e+06 0 -2.15317e+06 2.21781e+06 0 -2.13738e+06 2.22399e+06 0 -2.12178e+06 2.22988e+06 0 -2.10637e+06 2.23547e+06 0 -2.09113e+06 2.24079e+06 0 -2.07606e+06 2.24584e+06 0 -2.06117e+06 2.25064e+06 0 -2.04645e+06 2.25518e+06 0 -2.0319e+06 2.25947e+06 0 -2.01752e+06 2.26354e+06 0 -2.0033e+06 2.26737e+06 0 -1.98924e+06 2.27099e+06 0 -1.97534e+06 2.2744e+06 0 -1.9616e+06 2.2776e+06 0 -1.94801e+06 2.2806e+06 0 -1.93457e+06 2.28341e+06 0 -1.92129e+06 2.28604e+06 0 -1.90814e+06 2.28849e+06 0 -1.89515e+06 2.29076e+06 0 -1.88229e+06 2.29286e+06 0 -1.86958e+06 2.29481e+06 0 -1.857e+06 2.29659e+06 0 -1.84456e+06 2.29822e+06 0 -1.83225e+06 2.2997e+06 0 -1.82007e+06 2.30104e+06 0 -1.80801e+06 2.30224e+06 0 -1.79609e+06 2.3033e+06 0 -1.78429e+06 2.30423e+06 0 -1.77261e+06 2.30504e+06 0 -1.76105e+06 2.30572e+06 0 -1.74961e+06 2.30629e+06 0 -1.73829e+06 2.30673e+06 0 -1.72708e+06 2.30707e+06 0 -1.71598e+06 2.3073e+06 0 -1.70499e+06 2.30741e+06 0 -1.69411e+06 2.30743e+06 0 -1.68333e+06 2.30735e+06 0 -1.67265e+06 2.30718e+06 0 7.52509e-07 5.71228e+06 0 -2.74103e+06 1.8439e+06 0 -2.59692e+06 725938 0 -2.55095e+06 482708 0 -2.57823e+06 145062 0 -2.57029e+06 8891.29 0 -2.6074e+06 -135030 0 -2.6384e+06 -220321 0 -2.6806e+06 -288764 0 -2.72361e+06 -332294 0 -2.76886e+06 -359231 0 -2.81411e+06 -370590 0 -2.85887e+06 -369094 0 -2.90234e+06 -356389 0 -2.94404e+06 -334109 0 -2.98358e+06 -303622 0 -3.02063e+06 -266155 0 -3.05499e+06 -222794 0 -3.08647e+06 -174503 0 -3.11499e+06 -122141 0 -3.14047e+06 -66468.6 0 -3.16291e+06 -8161.55 0 -3.18233e+06 52182.9 0 -3.19877e+06 114037 0 -3.21231e+06 176937 0 -3.22304e+06 240475 0 -3.23109e+06 304295 0 -3.23655e+06 368086 0 -3.23958e+06 431579 0 -3.24029e+06 494544 0 -3.23883e+06 556782 0 -3.23534e+06 618125 0 -3.22996e+06 678433 0 -3.22282e+06 737587 0 -3.21405e+06 795493 0 -3.20379e+06 852072 0 -3.19215e+06 907266 0 -3.17926e+06 961027 0 -3.16523e+06 1.01332e+06 0 -3.15016e+06 1.06413e+06 0 -3.13415e+06 1.11345e+06 0 -3.11731e+06 1.16126e+06 0 -3.09972e+06 1.20758e+06 0 -3.08146e+06 1.25241e+06 0 -3.06261e+06 1.29576e+06 0 -3.04324e+06 1.33767e+06 0 -3.02343e+06 1.37815e+06 0 -3.00322e+06 1.41723e+06 0 -2.98269e+06 1.45494e+06 0 -2.96188e+06 1.49131e+06 0 -2.94085e+06 1.52638e+06 0 -2.91963e+06 1.56016e+06 0 -2.89826e+06 1.59271e+06 0 -2.8768e+06 1.62406e+06 0 -2.85526e+06 1.65424e+06 0 -2.83368e+06 1.68329e+06 0 -2.8121e+06 1.71123e+06 0 -2.79053e+06 1.73812e+06 0 -2.76899e+06 1.76398e+06 0 -2.74752e+06 1.78884e+06 0 -2.72613e+06 1.81274e+06 0 -2.70483e+06 1.83572e+06 0 -2.68364e+06 1.85779e+06 0 -2.66257e+06 1.87901e+06 0 -2.64164e+06 1.89939e+06 0 -2.62086e+06 1.91896e+06 0 -2.60024e+06 1.93776e+06 0 -2.57978e+06 1.9558e+06 0 -2.55949e+06 1.97313e+06 0 -2.53938e+06 1.98976e+06 0 -2.51945e+06 2.00572e+06 0 -2.49971e+06 2.02103e+06 0 -2.48016e+06 2.03572e+06 0 -2.46081e+06 2.04981e+06 0 -2.44165e+06 2.06332e+06 0 -2.4227e+06 2.07628e+06 0 -2.40394e+06 2.08869e+06 0 -2.38539e+06 2.10059e+06 0 -2.36703e+06 2.11199e+06 0 -2.34888e+06 2.12291e+06 0 -2.33093e+06 2.13336e+06 0 -2.31319e+06 2.14337e+06 0 -2.29564e+06 2.15294e+06 0 -2.2783e+06 2.1621e+06 0 -2.26115e+06 2.17086e+06 0 -2.2442e+06 2.17924e+06 0 -2.22744e+06 2.18724e+06 0 -2.21088e+06 2.19488e+06 0 -2.19451e+06 2.20217e+06 0 -2.17834e+06 2.20913e+06 0 -2.16235e+06 2.21577e+06 0 -2.14654e+06 2.22209e+06 0 -2.13092e+06 2.22811e+06 0 -2.11548e+06 2.23385e+06 0 -2.10022e+06 2.2393e+06 0 -2.08514e+06 2.24448e+06 0 -2.07023e+06 2.2494e+06 0 -2.0555e+06 2.25406e+06 0 -2.04093e+06 2.25849e+06 0 -2.02653e+06 2.26267e+06 0 -2.0123e+06 2.26663e+06 0 -1.99822e+06 2.27037e+06 0 -1.98431e+06 2.27389e+06 0 -1.97056e+06 2.27721e+06 0 -1.95696e+06 2.28032e+06 0 -1.94351e+06 2.28325e+06 0 -1.93021e+06 2.28599e+06 0 -1.91706e+06 2.28854e+06 0 -1.90405e+06 2.29092e+06 0 -1.89119e+06 2.29314e+06 0 -1.87847e+06 2.29518e+06 0 -1.86588e+06 2.29707e+06 0 -1.85343e+06 2.29881e+06 0 -1.84112e+06 2.30039e+06 0 -1.82894e+06 2.30183e+06 0 -1.81688e+06 2.30314e+06 0 -1.80496e+06 2.3043e+06 0 -1.79315e+06 2.30534e+06 0 -1.78148e+06 2.30624e+06 0 -1.76992e+06 2.30702e+06 0 -1.75848e+06 2.30769e+06 0 -1.74716e+06 2.30823e+06 0 -1.73595e+06 2.30867e+06 0 -1.72485e+06 2.30899e+06 0 -1.71387e+06 2.30921e+06 0 -1.70299e+06 2.30932e+06 0 -1.69223e+06 2.30934e+06 0 -1.68156e+06 2.30925e+06 0 -1.3411e-06 3.9468e+06 0 -2.34057e+06 2.42857e+06 0 -2.63467e+06 790781 0 -2.50395e+06 522440 0 -2.56127e+06 205355 0 -2.5583e+06 20537.2 0 -2.58995e+06 -109122 0 -2.62687e+06 -211270 0 -2.66737e+06 -279320 0 -2.71242e+06 -328682 0 -2.75802e+06 -358048 0 -2.8043e+06 -372490 0 -2.84982e+06 -373334 0 -2.89413e+06 -362801 0 -2.93665e+06 -342385 0 -2.977e+06 -313537 0 -3.01487e+06 -277493 0 -3.05002e+06 -235361 0 -3.0823e+06 -188124 0 -3.11159e+06 -136656 0 -3.13784e+06 -81734 0 -3.16103e+06 -24046.2 0 -3.18118e+06 35797.3 0 -3.19833e+06 97257.4 0 -3.21256e+06 159859 0 -3.22396e+06 223185 0 -3.23264e+06 286870 0 -3.23872e+06 350596 0 -3.24233e+06 414085 0 -3.24359e+06 477101 0 -3.24266e+06 539438 0 -3.23967e+06 600923 0 -3.23475e+06 661409 0 -3.22805e+06 720775 0 -3.2197e+06 778920 0 -3.20982e+06 835762 0 -3.19854e+06 891239 0 -3.18598e+06 945301 0 -3.17226e+06 997912 0 -3.15747e+06 1.04905e+06 0 -3.14173e+06 1.0987e+06 0 -3.12513e+06 1.14685e+06 0 -3.10776e+06 1.19351e+06 0 -3.08971e+06 1.23869e+06 0 -3.07104e+06 1.2824e+06 0 -3.05185e+06 1.32466e+06 0 -3.03218e+06 1.36549e+06 0 -3.01212e+06 1.40492e+06 0 -2.99171e+06 1.44298e+06 0 -2.97102e+06 1.47969e+06 0 -2.95008e+06 1.5151e+06 0 -2.92895e+06 1.54922e+06 0 -2.90766e+06 1.5821e+06 0 -2.88627e+06 1.61377e+06 0 -2.86479e+06 1.64427e+06 0 -2.84326e+06 1.67363e+06 0 -2.82172e+06 1.70189e+06 0 -2.80019e+06 1.72908e+06 0 -2.77868e+06 1.75523e+06 0 -2.75723e+06 1.78038e+06 0 -2.73586e+06 1.80457e+06 0 -2.71457e+06 1.82782e+06 0 -2.69339e+06 1.85017e+06 0 -2.67233e+06 1.87165e+06 0 -2.65141e+06 1.89228e+06 0 -2.63062e+06 1.91211e+06 0 -2.60999e+06 1.93115e+06 0 -2.58953e+06 1.94944e+06 0 -2.56923e+06 1.96701e+06 0 -2.5491e+06 1.98387e+06 0 -2.52916e+06 2.00005e+06 0 -2.50941e+06 2.01558e+06 0 -2.48984e+06 2.03049e+06 0 -2.47047e+06 2.04478e+06 0 -2.4513e+06 2.0585e+06 0 -2.43232e+06 2.07165e+06 0 -2.41354e+06 2.08426e+06 0 -2.39496e+06 2.09635e+06 0 -2.37659e+06 2.10793e+06 0 -2.35842e+06 2.11903e+06 0 -2.34044e+06 2.12966e+06 0 -2.32267e+06 2.13985e+06 0 -2.3051e+06 2.14959e+06 0 -2.28773e+06 2.15892e+06 0 -2.27056e+06 2.16784e+06 0 -2.25359e+06 2.17637e+06 0 -2.23681e+06 2.18453e+06 0 -2.22023e+06 2.19232e+06 0 -2.20384e+06 2.19977e+06 0 -2.18764e+06 2.20687e+06 0 -2.17163e+06 2.21365e+06 0 -2.1558e+06 2.22012e+06 0 -2.14016e+06 2.22628e+06 0 -2.1247e+06 2.23215e+06 0 -2.10942e+06 2.23773e+06 0 -2.09432e+06 2.24305e+06 0 -2.0794e+06 2.2481e+06 0 -2.06464e+06 2.25289e+06 0 -2.05006e+06 2.25744e+06 0 -2.03565e+06 2.26175e+06 0 -2.0214e+06 2.26583e+06 0 -2.00731e+06 2.26968e+06 0 -1.99338e+06 2.27332e+06 0 -1.97962e+06 2.27676e+06 0 -1.966e+06 2.27999e+06 0 -1.95254e+06 2.28303e+06 0 -1.93923e+06 2.28588e+06 0 -1.92607e+06 2.28855e+06 0 -1.91306e+06 2.29104e+06 0 -1.90019e+06 2.29336e+06 0 -1.88746e+06 2.29552e+06 0 -1.87487e+06 2.29751e+06 0 -1.86241e+06 2.29935e+06 0 -1.8501e+06 2.30104e+06 0 -1.83791e+06 2.30259e+06 0 -1.82585e+06 2.30399e+06 0 -1.81392e+06 2.30526e+06 0 -1.80212e+06 2.3064e+06 0 -1.79044e+06 2.3074e+06 0 -1.77888e+06 2.30829e+06 0 -1.76744e+06 2.30905e+06 0 -1.75612e+06 2.3097e+06 0 -1.74492e+06 2.31023e+06 0 -1.73383e+06 2.31065e+06 0 -1.72285e+06 2.31097e+06 0 -1.71198e+06 2.31118e+06 0 -1.70122e+06 2.31129e+06 0 -1.69056e+06 2.3113e+06 0 -5.06639e-07 2.7803e+06 0 -1.96669e+06 2.64575e+06 0 -2.59853e+06 1.01016e+06 0 -2.48609e+06 523522 0 -2.52858e+06 273102 0 -2.5486e+06 40019.1 0 -2.57209e+06 -88139.1 0 -2.61362e+06 -197171 0 -2.65445e+06 -271211 0 -2.70027e+06 -323373 0 -2.74699e+06 -356723 0 -2.79398e+06 -373717 0 -2.84042e+06 -377214 0 -2.88555e+06 -368826 0 -2.92892e+06 -350362 0 -2.9701e+06 -323196 0 -3.00879e+06 -288625 0 -3.04476e+06 -247766 0 -3.07784e+06 -201624 0 -3.10793e+06 -151088 0 -3.13496e+06 -96949.5 0 -3.15891e+06 -39912.1 0 -3.17981e+06 19402 0 -3.19768e+06 80441.9 0 -3.21261e+06 142722 0 -3.22469e+06 205815 0 -3.23402e+06 269347 0 -3.24072e+06 332990 0 -3.24492e+06 396461 0 -3.24676e+06 459514 0 -3.24636e+06 521939 0 -3.24388e+06 583555 0 -3.23944e+06 644212 0 -3.23319e+06 703781 0 -3.22526e+06 762159 0 -3.21577e+06 819259 0 -3.20487e+06 875015 0 -3.19265e+06 929373 0 -3.17924e+06 982296 0 -3.16475e+06 1.03376e+06 0 -3.14929e+06 1.08374e+06 0 -3.13294e+06 1.13223e+06 0 -3.1158e+06 1.17924e+06 0 -3.09795e+06 1.22477e+06 0 -3.07948e+06 1.26883e+06 0 -3.06046e+06 1.31145e+06 0 -3.04096e+06 1.35263e+06 0 -3.02104e+06 1.39241e+06 0 -3.00076e+06 1.43082e+06 0 -2.98018e+06 1.46788e+06 0 -2.95935e+06 1.50362e+06 0 -2.93831e+06 1.53809e+06 0 -2.91711e+06 1.5713e+06 0 -2.89579e+06 1.6033e+06 0 -2.87437e+06 1.63413e+06 0 -2.8529e+06 1.6638e+06 0 -2.83141e+06 1.69237e+06 0 -2.80991e+06 1.71986e+06 0 -2.78844e+06 1.74632e+06 0 -2.76702e+06 1.77176e+06 0 -2.74567e+06 1.79624e+06 0 -2.7244e+06 1.81977e+06 0 -2.70323e+06 1.84239e+06 0 -2.68218e+06 1.86414e+06 0 -2.66125e+06 1.88504e+06 0 -2.64047e+06 1.90512e+06 0 -2.61984e+06 1.92441e+06 0 -2.59936e+06 1.94295e+06 0 -2.57906e+06 1.96075e+06 0 -2.55892e+06 1.97784e+06 0 -2.53897e+06 1.99425e+06 0 -2.5192e+06 2.01001e+06 0 -2.49962e+06 2.02513e+06 0 -2.48023e+06 2.03964e+06 0 -2.46103e+06 2.05356e+06 0 -2.44204e+06 2.06691e+06 0 -2.42324e+06 2.07972e+06 0 -2.40464e+06 2.092e+06 0 -2.38624e+06 2.10377e+06 0 -2.36805e+06 2.11506e+06 0 -2.35005e+06 2.12587e+06 0 -2.33226e+06 2.13623e+06 0 -2.31467e+06 2.14614e+06 0 -2.29728e+06 2.15564e+06 0 -2.28008e+06 2.16473e+06 0 -2.26308e+06 2.17342e+06 0 -2.24628e+06 2.18173e+06 0 -2.22968e+06 2.18968e+06 0 -2.21327e+06 2.19728e+06 0 -2.19704e+06 2.20453e+06 0 -2.18101e+06 2.21146e+06 0 -2.16517e+06 2.21807e+06 0 -2.1495e+06 2.22437e+06 0 -2.13403e+06 2.23038e+06 0 -2.11873e+06 2.2361e+06 0 -2.10361e+06 2.24155e+06 0 -2.08867e+06 2.24673e+06 0 -2.07389e+06 2.25165e+06 0 -2.0593e+06 2.25632e+06 0 -2.04486e+06 2.26076e+06 0 -2.0306e+06 2.26496e+06 0 -2.0165e+06 2.26894e+06 0 -2.00256e+06 2.2727e+06 0 -1.98878e+06 2.27625e+06 0 -1.97515e+06 2.2796e+06 0 -1.96168e+06 2.28276e+06 0 -1.94836e+06 2.28572e+06 0 -1.93519e+06 2.2885e+06 0 -1.92217e+06 2.2911e+06 0 -1.90929e+06 2.29354e+06 0 -1.89655e+06 2.2958e+06 0 -1.88396e+06 2.2979e+06 0 -1.8715e+06 2.29985e+06 0 -1.85917e+06 2.30165e+06 0 -1.84698e+06 2.3033e+06 0 -1.83492e+06 2.30481e+06 0 -1.82299e+06 2.30618e+06 0 -1.81119e+06 2.30742e+06 0 -1.79951e+06 2.30853e+06 0 -1.78795e+06 2.30951e+06 0 -1.77651e+06 2.31038e+06 0 -1.76519e+06 2.31112e+06 0 -1.75399e+06 2.31175e+06 0 -1.7429e+06 2.31227e+06 0 -1.73193e+06 2.31269e+06 0 -1.72107e+06 2.313e+06 0 -1.71031e+06 2.31321e+06 0 -1.69966e+06 2.31332e+06 0 3.99351e-06 2.02751e+06 0 -1.63078e+06 2.63953e+06 0 -2.5008e+06 1.26698e+06 0 -2.47766e+06 548377 0 -2.49282e+06 323250 0 -2.53447e+06 73742.5 0 -2.55602e+06 -71078.6 0 -2.5983e+06 -180443 0 -2.64149e+06 -262384 0 -2.68751e+06 -317574 0 -2.73547e+06 -354582 0 -2.78327e+06 -374556 0 -2.83061e+06 -380583 0 -2.87661e+06 -374502 0 -2.92083e+06 -358005 0 -2.96286e+06 -332591 0 -3.00239e+06 -299536 0 -3.03919e+06 -259998 0 -3.0731e+06 -214991 0 -3.10399e+06 -165426 0 -3.13181e+06 -112107 0 -3.15654e+06 -55752.2 0 -3.17819e+06 3003.1 0 -3.19681e+06 63596.3 0 -3.21245e+06 125531 0 -3.22522e+06 188369 0 -3.23522e+06 251728 0 -3.24255e+06 315271 0 -3.24736e+06 378708 0 -3.24978e+06 441785 0 -3.24993e+06 504285 0 -3.24797e+06 566022 0 -3.24402e+06 626840 0 -3.23823e+06 686605 0 -3.23073e+06 745209 0 -3.22166e+06 802561 0 -3.21113e+06 858592 0 -3.19926e+06 913244 0 -3.18618e+06 966476 0 -3.172e+06 1.01826e+06 0 -3.15681e+06 1.06857e+06 0 -3.14072e+06 1.11741e+06 0 -3.12382e+06 1.16476e+06 0 -3.1062e+06 1.21064e+06 0 -3.08793e+06 1.25506e+06 0 -3.06909e+06 1.29803e+06 0 -3.04975e+06 1.33957e+06 0 -3.02998e+06 1.3797e+06 0 -3.00984e+06 1.41846e+06 0 -2.98939e+06 1.45587e+06 0 -2.96866e+06 1.49196e+06 0 -2.94773e+06 1.52676e+06 0 -2.92661e+06 1.56031e+06 0 -2.90536e+06 1.59265e+06 0 -2.88402e+06 1.62379e+06 0 -2.86261e+06 1.65379e+06 0 -2.84116e+06 1.68268e+06 0 -2.81971e+06 1.71048e+06 0 -2.79828e+06 1.73723e+06 0 -2.77688e+06 1.76298e+06 0 -2.75555e+06 1.78774e+06 0 -2.7343e+06 1.81156e+06 0 -2.71315e+06 1.83446e+06 0 -2.69211e+06 1.85648e+06 0 -2.67119e+06 1.87764e+06 0 -2.65041e+06 1.89798e+06 0 -2.62977e+06 1.91753e+06 0 -2.60929e+06 1.93631e+06 0 -2.58898e+06 1.95435e+06 0 -2.56884e+06 1.97168e+06 0 -2.54887e+06 1.98832e+06 0 -2.52909e+06 2.0043e+06 0 -2.50949e+06 2.01964e+06 0 -2.49009e+06 2.03437e+06 0 -2.47087e+06 2.0485e+06 0 -2.45186e+06 2.06206e+06 0 -2.43304e+06 2.07507e+06 0 -2.41442e+06 2.08754e+06 0 -2.396e+06 2.09951e+06 0 -2.37778e+06 2.11098e+06 0 -2.35977e+06 2.12197e+06 0 -2.34195e+06 2.13251e+06 0 -2.32433e+06 2.1426e+06 0 -2.30692e+06 2.15227e+06 0 -2.2897e+06 2.16152e+06 0 -2.27268e+06 2.17038e+06 0 -2.25586e+06 2.17885e+06 0 -2.23923e+06 2.18696e+06 0 -2.2228e+06 2.19471e+06 0 -2.20655e+06 2.20211e+06 0 -2.1905e+06 2.20919e+06 0 -2.17463e+06 2.21594e+06 0 -2.15895e+06 2.22239e+06 0 -2.14345e+06 2.22854e+06 0 -2.12814e+06 2.2344e+06 0 -2.113e+06 2.23998e+06 0 -2.09804e+06 2.24529e+06 0 -2.08325e+06 2.25034e+06 0 -2.06863e+06 2.25515e+06 0 -2.05419e+06 2.25971e+06 0 -2.03991e+06 2.26404e+06 0 -2.02579e+06 2.26814e+06 0 -2.01184e+06 2.27202e+06 0 -1.99804e+06 2.27569e+06 0 -1.98441e+06 2.27916e+06 0 -1.97092e+06 2.28243e+06 0 -1.95759e+06 2.28551e+06 0 -1.94441e+06 2.2884e+06 0 -1.93138e+06 2.29112e+06 0 -1.9185e+06 2.29366e+06 0 -1.90575e+06 2.29604e+06 0 -1.89315e+06 2.29825e+06 0 -1.88068e+06 2.30031e+06 0 -1.86835e+06 2.30221e+06 0 -1.85616e+06 2.30397e+06 0 -1.8441e+06 2.30558e+06 0 -1.83216e+06 2.30706e+06 0 -1.82036e+06 2.3084e+06 0 -1.80868e+06 2.30961e+06 0 -1.79712e+06 2.3107e+06 0 -1.78568e+06 2.31166e+06 0 -1.77437e+06 2.31251e+06 0 -1.76317e+06 2.31324e+06 0 -1.75209e+06 2.31386e+06 0 -1.74111e+06 2.31438e+06 0 -1.73026e+06 2.31478e+06 0 -1.71951e+06 2.31509e+06 0 -1.70887e+06 2.3153e+06 0 -4.73857e-06 1.55319e+06 0 -1.33843e+06 2.50723e+06 0 -2.35589e+06 1.4971e+06 0 -2.46343e+06 615796 0 -2.46018e+06 357094 0 -2.51415e+06 115795 0 -2.54113e+06 -52988.9 0 -2.58175e+06 -163646 0 -2.62784e+06 -251791 0 -2.67442e+06 -311482 0 -2.72338e+06 -351649 0 -2.77218e+06 -374893 0 -2.82037e+06 -383493 0 -2.86729e+06 -379770 0 -2.91238e+06 -365320 0 -2.95528e+06 -341700 0 -2.99567e+06 -310218 0 -3.03331e+06 -272044 0 -3.06805e+06 -228217 0 -3.09976e+06 -179661 0 -3.1284e+06 -127198 0 -3.15392e+06 -71558.7 0 -3.17634e+06 -13392.5 0 -3.1957e+06 46726.4 0 -3.21208e+06 108290 0 -3.22555e+06 170851 0 -3.23622e+06 234016 0 -3.24421e+06 297442 0 -3.24964e+06 360828 0 -3.25264e+06 423914 0 -3.25336e+06 486477 0 -3.25193e+06 548324 0 -3.24848e+06 609293 0 -3.24317e+06 669246 0 -3.23612e+06 728069 0 -3.22746e+06 785668 0 -3.21732e+06 841968 0 -3.20582e+06 896909 0 -3.19308e+06 950448 0 -3.17921e+06 1.00255e+06 0 -3.16431e+06 1.05319e+06 0 -3.14849e+06 1.10237e+06 0 -3.13183e+06 1.15007e+06 0 -3.11443e+06 1.1963e+06 0 -3.09637e+06 1.24107e+06 0 -3.07773e+06 1.28439e+06 0 -3.05856e+06 1.32629e+06 0 -3.03895e+06 1.36678e+06 0 -3.01895e+06 1.40589e+06 0 -2.99862e+06 1.44365e+06 0 -2.97802e+06 1.48009e+06 0 -2.95718e+06 1.51524e+06 0 -2.93616e+06 1.54913e+06 0 -2.91499e+06 1.5818e+06 0 -2.89372e+06 1.61328e+06 0 -2.87237e+06 1.6436e+06 0 -2.85098e+06 1.6728e+06 0 -2.82957e+06 1.70091e+06 0 -2.80818e+06 1.72798e+06 0 -2.78682e+06 1.75402e+06 0 -2.76552e+06 1.77908e+06 0 -2.74429e+06 1.80318e+06 0 -2.72315e+06 1.82636e+06 0 -2.70212e+06 1.84866e+06 0 -2.68121e+06 1.87009e+06 0 -2.66043e+06 1.8907e+06 0 -2.6398e+06 1.9105e+06 0 -2.61932e+06 1.92953e+06 0 -2.599e+06 1.94782e+06 0 -2.57884e+06 1.96539e+06 0 -2.55887e+06 1.98226e+06 0 -2.53907e+06 1.99847e+06 0 -2.51946e+06 2.01404e+06 0 -2.50004e+06 2.02898e+06 0 -2.48081e+06 2.04332e+06 0 -2.46178e+06 2.05709e+06 0 -2.44294e+06 2.0703e+06 0 -2.4243e+06 2.08297e+06 0 -2.40586e+06 2.09513e+06 0 -2.38762e+06 2.10679e+06 0 -2.36958e+06 2.11797e+06 0 -2.35174e+06 2.12869e+06 0 -2.33411e+06 2.13896e+06 0 -2.31667e+06 2.1488e+06 0 -2.29943e+06 2.15822e+06 0 -2.28239e+06 2.16724e+06 0 -2.26554e+06 2.17588e+06 0 -2.24889e+06 2.18415e+06 0 -2.23244e+06 2.19205e+06 0 -2.21617e+06 2.19961e+06 0 -2.2001e+06 2.20684e+06 0 -2.18421e+06 2.21374e+06 0 -2.16851e+06 2.22033e+06 0 -2.15299e+06 2.22662e+06 0 -2.13765e+06 2.23262e+06 0 -2.1225e+06 2.23834e+06 0 -2.10752e+06 2.24378e+06 0 -2.09271e+06 2.24897e+06 0 -2.07808e+06 2.2539e+06 0 -2.06362e+06 2.25859e+06 0 -2.04932e+06 2.26305e+06 0 -2.03519e+06 2.26727e+06 0 -2.02122e+06 2.27128e+06 0 -2.00742e+06 2.27507e+06 0 -1.99377e+06 2.27866e+06 0 -1.98027e+06 2.28205e+06 0 -1.96693e+06 2.28524e+06 0 -1.95374e+06 2.28825e+06 0 -1.9407e+06 2.29108e+06 0 -1.92781e+06 2.29374e+06 0 -1.91506e+06 2.29622e+06 0 -1.90245e+06 2.29855e+06 0 -1.88998e+06 2.30071e+06 0 -1.87764e+06 2.30272e+06 0 -1.86544e+06 2.30459e+06 0 -1.85338e+06 2.30631e+06 0 -1.84144e+06 2.30789e+06 0 -1.82964e+06 2.30933e+06 0 -1.81795e+06 2.31065e+06 0 -1.8064e+06 2.31184e+06 0 -1.79496e+06 2.31291e+06 0 -1.78365e+06 2.31386e+06 0 -1.77245e+06 2.31469e+06 0 -1.76137e+06 2.31541e+06 0 -1.75041e+06 2.31602e+06 0 -1.73955e+06 2.31653e+06 0 -1.72881e+06 2.31694e+06 0 -1.71818e+06 2.31725e+06 0 1.60933e-06 1.26073e+06 0 -1.09033e+06 2.3133e+06 0 -2.17883e+06 1.67031e+06 0 -2.43292e+06 721327 0 -2.432e+06 385536 0 -2.48866e+06 158643 0 -2.52571e+06 -30342.9 0 -2.56486e+06 -147600 0 -2.61312e+06 -239515 0 -2.661e+06 -304767 0 -2.71072e+06 -348101 0 -2.76064e+06 -374610 0 -2.80972e+06 -385954 0 -2.85756e+06 -384609 0 -2.90356e+06 -372285 0 -2.94734e+06 -350513 0 -2.9886e+06 -320655 0 -3.02711e+06 -283893 0 -3.06269e+06 -241289 0 -3.09524e+06 -193783 0 -3.1247e+06 -142213 0 -3.15102e+06 -87323.6 0 -3.17423e+06 -29777.6 0 -3.19436e+06 29838.5 0 -3.21147e+06 91005.6 0 -3.22566e+06 153266 0 -3.23702e+06 216217 0 -3.24567e+06 279506 0 -3.25174e+06 342824 0 -3.25535e+06 405905 0 -3.25664e+06 468517 0 -3.25575e+06 530463 0 -3.25283e+06 591572 0 -3.248e+06 651704 0 -3.2414e+06 710738 0 -3.23317e+06 768578 0 -3.22343e+06 825142 0 -3.21231e+06 880369 0 -3.19992e+06 934210 0 -3.18637e+06 986630 0 -3.17177e+06 1.0376e+06 0 -3.15623e+06 1.08712e+06 0 -3.13983e+06 1.13516e+06 0 -3.12266e+06 1.18175e+06 0 -3.10482e+06 1.22687e+06 0 -3.08637e+06 1.27055e+06 0 -3.06739e+06 1.3128e+06 0 -3.04794e+06 1.35365e+06 0 -3.02809e+06 1.39312e+06 0 -3.00789e+06 1.43123e+06 0 -2.98741e+06 1.46802e+06 0 -2.96668e+06 1.50352e+06 0 -2.94575e+06 1.53775e+06 0 -2.92467e+06 1.57076e+06 0 -2.90347e+06 1.60257e+06 0 -2.88219e+06 1.63322e+06 0 -2.86086e+06 1.66274e+06 0 -2.83951e+06 1.69117e+06 0 -2.81815e+06 1.71854e+06 0 -2.79683e+06 1.74489e+06 0 -2.77556e+06 1.77024e+06 0 -2.75435e+06 1.79464e+06 0 -2.73323e+06 1.81811e+06 0 -2.71222e+06 1.84068e+06 0 -2.69132e+06 1.86239e+06 0 -2.67054e+06 1.88326e+06 0 -2.64991e+06 1.90332e+06 0 -2.62943e+06 1.92261e+06 0 -2.60911e+06 1.94114e+06 0 -2.58895e+06 1.95896e+06 0 -2.56896e+06 1.97607e+06 0 -2.54915e+06 1.99251e+06 0 -2.52953e+06 2.0083e+06 0 -2.51009e+06 2.02346e+06 0 -2.49085e+06 2.03802e+06 0 -2.4718e+06 2.052e+06 0 -2.45294e+06 2.06541e+06 0 -2.43428e+06 2.07829e+06 0 -2.41582e+06 2.09064e+06 0 -2.39756e+06 2.1025e+06 0 -2.3795e+06 2.11386e+06 0 -2.36164e+06 2.12476e+06 0 -2.34398e+06 2.13521e+06 0 -2.32652e+06 2.14523e+06 0 -2.30926e+06 2.15482e+06 0 -2.2922e+06 2.16402e+06 0 -2.27533e+06 2.17282e+06 0 -2.25866e+06 2.18125e+06 0 -2.24218e+06 2.18931e+06 0 -2.2259e+06 2.19702e+06 0 -2.2098e+06 2.2044e+06 0 -2.19389e+06 2.21145e+06 0 -2.17817e+06 2.21819e+06 0 -2.16263e+06 2.22462e+06 0 -2.14728e+06 2.23076e+06 0 -2.1321e+06 2.23662e+06 0 -2.11711e+06 2.24221e+06 0 -2.10228e+06 2.24753e+06 0 -2.08763e+06 2.25259e+06 0 -2.07316e+06 2.25741e+06 0 -2.05885e+06 2.26199e+06 0 -2.0447e+06 2.26635e+06 0 -2.03072e+06 2.27048e+06 0 -2.0169e+06 2.27439e+06 0 -2.00324e+06 2.2781e+06 0 -1.98973e+06 2.28161e+06 0 -1.97638e+06 2.28492e+06 0 -1.96318e+06 2.28805e+06 0 -1.95013e+06 2.29099e+06 0 -1.93723e+06 2.29376e+06 0 -1.92447e+06 2.29636e+06 0 -1.91185e+06 2.29879e+06 0 -1.89938e+06 2.30107e+06 0 -1.88704e+06 2.30319e+06 0 -1.87484e+06 2.30516e+06 0 -1.86277e+06 2.30699e+06 0 -1.85083e+06 2.30867e+06 0 -1.83902e+06 2.31023e+06 0 -1.82734e+06 2.31165e+06 0 -1.81578e+06 2.31294e+06 0 -1.80435e+06 2.31411e+06 0 -1.79304e+06 2.31516e+06 0 -1.78184e+06 2.3161e+06 0 -1.77076e+06 2.31692e+06 0 -1.7598e+06 2.31764e+06 0 -1.74895e+06 2.31825e+06 0 -1.73822e+06 2.31875e+06 0 -1.72759e+06 2.31916e+06 0 -4.17233e-06 1.0827e+06 0 -884233 2.09826e+06 0 -1.98341e+06 1.77787e+06 0 -2.38034e+06 850345 0 -2.40631e+06 419652 0 -2.46003e+06 197916 0 -2.50826e+06 -2549.27 0 -2.54798e+06 -131464 0 -2.59732e+06 -226257 0 -2.6471e+06 -297005 0 -2.69757e+06 -344042 0 -2.74859e+06 -373670 0 -2.79865e+06 -387931 0 -2.84742e+06 -389017 0 -2.89434e+06 -378878 0 -2.93903e+06 -359016 0 -2.98118e+06 -330831 0 -3.02057e+06 -295532 0 -3.05702e+06 -254196 0 -3.09042e+06 -207781 0 -3.12071e+06 -157142 0 -3.14785e+06 -103038 0 -3.17186e+06 -46144.9 0 -3.19277e+06 12939 0 -3.21064e+06 73683 0 -3.22556e+06 135618 0 -3.23762e+06 198333 0 -3.24695e+06 261465 0 -3.25366e+06 324699 0 -3.25789e+06 387758 0 -3.25977e+06 450406 0 -3.25944e+06 512437 0 -3.25704e+06 573678 0 -3.25271e+06 633979 0 -3.24659e+06 693217 0 -3.23879e+06 751290 0 -3.22947e+06 808113 0 -3.21873e+06 863621 0 -3.2067e+06 917761 0 -3.19348e+06 970495 0 -3.1792e+06 1.0218e+06 0 -3.16394e+06 1.07165e+06 0 -3.1478e+06 1.12004e+06 0 -3.13088e+06 1.16697e+06 0 -3.11326e+06 1.21245e+06 0 -3.09501e+06 1.25649e+06 0 -3.07622e+06 1.2991e+06 0 -3.05694e+06 1.34031e+06 0 -3.03725e+06 1.38013e+06 0 -3.01719e+06 1.4186e+06 0 -2.99683e+06 1.45575e+06 0 -2.97622e+06 1.49159e+06 0 -2.9554e+06 1.52617e+06 0 -2.93441e+06 1.55952e+06 0 -2.91329e+06 1.59166e+06 0 -2.89208e+06 1.62264e+06 0 -2.87081e+06 1.65249e+06 0 -2.8495e+06 1.68124e+06 0 -2.8282e+06 1.70893e+06 0 -2.80692e+06 1.73558e+06 0 -2.78567e+06 1.76124e+06 0 -2.7645e+06 1.78593e+06 0 -2.7434e+06 1.80968e+06 0 -2.7224e+06 1.83254e+06 0 -2.70151e+06 1.85452e+06 0 -2.68075e+06 1.87566e+06 0 -2.66012e+06 1.89599e+06 0 -2.63964e+06 1.91553e+06 0 -2.61931e+06 1.93432e+06 0 -2.59915e+06 1.95238e+06 0 -2.57915e+06 1.96973e+06 0 -2.55934e+06 1.98641e+06 0 -2.5397e+06 2.00243e+06 0 -2.52025e+06 2.01781e+06 0 -2.50099e+06 2.03259e+06 0 -2.48192e+06 2.04678e+06 0 -2.46305e+06 2.06041e+06 0 -2.44437e+06 2.07349e+06 0 -2.42589e+06 2.08604e+06 0 -2.40761e+06 2.09809e+06 0 -2.38953e+06 2.10965e+06 0 -2.37165e+06 2.12073e+06 0 -2.35397e+06 2.13136e+06 0 -2.33649e+06 2.14156e+06 0 -2.31921e+06 2.15133e+06 0 -2.30212e+06 2.16069e+06 0 -2.28523e+06 2.16966e+06 0 -2.26854e+06 2.17825e+06 0 -2.25204e+06 2.18648e+06 0 -2.23573e+06 2.19435e+06 0 -2.21962e+06 2.20188e+06 0 -2.20369e+06 2.20908e+06 0 -2.18795e+06 2.21597e+06 0 -2.17239e+06 2.22255e+06 0 -2.15702e+06 2.22883e+06 0 -2.14182e+06 2.23483e+06 0 -2.12681e+06 2.24055e+06 0 -2.11197e+06 2.24601e+06 0 -2.0973e+06 2.25121e+06 0 -2.08281e+06 2.25616e+06 0 -2.06848e+06 2.26087e+06 0 -2.05432e+06 2.26535e+06 0 -2.04033e+06 2.26961e+06 0 -2.02649e+06 2.27365e+06 0 -2.01282e+06 2.27748e+06 0 -1.9993e+06 2.28111e+06 0 -1.98594e+06 2.28454e+06 0 -1.97273e+06 2.28778e+06 0 -1.95967e+06 2.29084e+06 0 -1.94676e+06 2.29373e+06 0 -1.934e+06 2.29644e+06 0 -1.92137e+06 2.29899e+06 0 -1.90889e+06 2.30137e+06 0 -1.89655e+06 2.3036e+06 0 -1.88434e+06 2.30569e+06 0 -1.87227e+06 2.30762e+06 0 -1.86033e+06 2.30942e+06 0 -1.84852e+06 2.31107e+06 0 -1.83683e+06 2.3126e+06 0 -1.82528e+06 2.314e+06 0 -1.81384e+06 2.31527e+06 0 -1.80253e+06 2.31643e+06 0 -1.79134e+06 2.31747e+06 0 -1.78027e+06 2.31839e+06 0 -1.76931e+06 2.31921e+06 0 -1.75847e+06 2.31992e+06 0 -1.74774e+06 2.32053e+06 0 -1.73712e+06 2.32104e+06 0 2.32458e-06 973333 0 -716122 1.8861e+06 0 -1.78137e+06 1.82333e+06 0 -2.30388e+06 985975 0 -2.37943e+06 466666 0 -2.43012e+06 233014 0 -2.48793e+06 28992.7 0 -2.53094e+06 -113879 0 -2.58066e+06 -212565 0 -2.6325e+06 -288043 0 -2.68399e+06 -339391 0 -2.73601e+06 -372116 0 -2.78714e+06 -389364 0 -2.83685e+06 -392988 0 -2.88473e+06 -385078 0 -2.93034e+06 -367193 0 -2.9734e+06 -340734 0 -3.01368e+06 -306948 0 -3.05102e+06 -266926 0 -3.08529e+06 -221646 0 -3.11643e+06 -171977 0 -3.1444e+06 -118694 0 -3.16922e+06 -62486.5 0 -3.19092e+06 -3964.95 0 -3.20956e+06 56328.1 0 -3.22523e+06 117914 0 -3.23801e+06 180370 0 -3.24803e+06 243325 0 -3.2554e+06 306455 0 -3.26026e+06 369477 0 -3.26274e+06 432146 0 -3.26299e+06 494250 0 -3.26113e+06 555610 0 -3.25731e+06 616071 0 -3.25166e+06 675505 0 -3.24432e+06 733804 0 -3.23542e+06 790880 0 -3.22508e+06 846664 0 -3.21342e+06 901099 0 -3.20055e+06 954145 0 -3.18658e+06 1.00577e+06 0 -3.17162e+06 1.05596e+06 0 -3.15576e+06 1.10469e+06 0 -3.13909e+06 1.15198e+06 0 -3.1217e+06 1.19781e+06 0 -3.10366e+06 1.24221e+06 0 -3.08506e+06 1.28518e+06 0 -3.06596e+06 1.32675e+06 0 -3.04643e+06 1.36694e+06 0 -3.02652e+06 1.40576e+06 0 -3.0063e+06 1.44326e+06 0 -2.9858e+06 1.47946e+06 0 -2.96508e+06 1.51439e+06 0 -2.94419e+06 1.54808e+06 0 -2.92316e+06 1.58056e+06 0 -2.90202e+06 1.61188e+06 0 -2.88082e+06 1.64205e+06 0 -2.85957e+06 1.67113e+06 0 -2.83832e+06 1.69913e+06 0 -2.81708e+06 1.72609e+06 0 -2.79587e+06 1.75205e+06 0 -2.77472e+06 1.77704e+06 0 -2.75365e+06 1.80109e+06 0 -2.73267e+06 1.82423e+06 0 -2.71179e+06 1.84649e+06 0 -2.69104e+06 1.86791e+06 0 -2.67042e+06 1.8885e+06 0 -2.64994e+06 1.90831e+06 0 -2.62961e+06 1.92735e+06 0 -2.60944e+06 1.94566e+06 0 -2.58944e+06 1.96325e+06 0 -2.56962e+06 1.98017e+06 0 -2.54997e+06 1.99642e+06 0 -2.53051e+06 2.01203e+06 0 -2.51124e+06 2.02703e+06 0 -2.49215e+06 2.04144e+06 0 -2.47326e+06 2.05528e+06 0 -2.45457e+06 2.06857e+06 0 -2.43607e+06 2.08132e+06 0 -2.41777e+06 2.09357e+06 0 -2.39967e+06 2.10532e+06 0 -2.38177e+06 2.11659e+06 0 -2.36407e+06 2.12741e+06 0 -2.34656e+06 2.13778e+06 0 -2.32926e+06 2.14773e+06 0 -2.31215e+06 2.15727e+06 0 -2.29524e+06 2.16641e+06 0 -2.27853e+06 2.17517e+06 0 -2.26201e+06 2.18355e+06 0 -2.24568e+06 2.19159e+06 0 -2.22954e+06 2.19927e+06 0 -2.21359e+06 2.20663e+06 0 -2.19783e+06 2.21367e+06 0 -2.18226e+06 2.22039e+06 0 -2.16686e+06 2.22682e+06 0 -2.15165e+06 2.23296e+06 0 -2.13662e+06 2.23883e+06 0 -2.12176e+06 2.24442e+06 0 -2.10708e+06 2.24976e+06 0 -2.09257e+06 2.25484e+06 0 -2.07823e+06 2.25969e+06 0 -2.06406e+06 2.2643e+06 0 -2.05005e+06 2.26868e+06 0 -2.0362e+06 2.27284e+06 0 -2.02251e+06 2.2768e+06 0 -2.00899e+06 2.28055e+06 0 -1.99561e+06 2.2841e+06 0 -1.9824e+06 2.28746e+06 0 -1.96933e+06 2.29064e+06 0 -1.95641e+06 2.29364e+06 0 -1.94363e+06 2.29647e+06 0 -1.931e+06 2.29913e+06 0 -1.91852e+06 2.30163e+06 0 -1.90617e+06 2.30397e+06 0 -1.89396e+06 2.30616e+06 0 -1.88188e+06 2.30821e+06 0 -1.86994e+06 2.31011e+06 0 -1.85812e+06 2.31188e+06 0 -1.84644e+06 2.31351e+06 0 -1.83488e+06 2.31501e+06 0 -1.82345e+06 2.31639e+06 0 -1.81214e+06 2.31765e+06 0 -1.80095e+06 2.31879e+06 0 -1.78988e+06 2.31982e+06 0 -1.77893e+06 2.32074e+06 0 -1.76809e+06 2.32155e+06 0 -1.75737e+06 2.32226e+06 0 -1.74675e+06 2.32287e+06 0 1.07288e-06 902608 0 -581106 1.68956e+06 0 -1.58206e+06 1.81646e+06 0 -2.20478e+06 1.11336e+06 0 -2.34721e+06 528989 0 -2.39996e+06 266056 0 -2.46459e+06 62221.9 0 -2.51322e+06 -93809.7 0 -2.56339e+06 -198531 0 -2.61709e+06 -277992 0 -2.66993e+06 -333980 0 -2.72291e+06 -369987 0 -2.77515e+06 -390217 0 -2.82585e+06 -396499 0 -2.8747e+06 -390873 0