<?xml version="1.0"?> 
<VTKFile type="StructuredGrid" version="0.1"> 
<StructuredGrid WholeExtent="0 127 0 127 0 0"> 
<Piece Extent="0 127 0 127 0 0"> 
<PointData>
<DataArray type="Float32" Name="E" format="ascii" NumberOfComponents="3"> 
-759078 146260 0 -761171 158533 0 -764937 159187 0 -767828 159273 0 -769902 158698 0 -771200 158215 0 -771893 157741 0 -772098 157344 0 -771921 156998 0 -771440 156700 0 -770716 156437 0 -769797 156203 0 -768719 155993 0 -767509 155801 0 -766191 155624 0 -764780 155461 0 -763291 155308 0 -761735 155165 0 -760121 155031 0 -758458 154904 0 -756750 154784 0 -755004 154670 0 -753223 154561 0 -751411 154458 0 -749572 154359 0 -747708 154265 0 -745821 154175 0 -743915 154089 0 -741989 154006 0 -740047 153927 0 -738089 153851 0 -736117 153778 0 -734132 153709 0 -732135 153641 0 -730127 153577 0 -728108 153515 0 -726080 153456 0 -724042 153399 0 -721997 153344 0 -719943 153291 0 -717882 153240 0 -715815 153191 0 -713740 153144 0 -711660 153099 0 -709575 153056 0 -707484 153014 0 -705388 152974 0 -703287 152936 0 -701182 152899 0 -699072 152864 0 -696959 152830 0 -694841 152797 0 -692721 152766 0 -690597 152736 0 -688469 152707 0 -686339 152680 0 -684205 152653 0 -682069 152628 0 -679930 152604 0 -677789 152581 0 -675646 152559 0 -673500 152539 0 -671351 152519 0 -669201 152500 0 -667049 152482 0 -664895 152465 0 -662739 152449 0 -660581 152433 0 -658422 152419 0 -656261 152405 0 -654099 152392 0 -651935 152380 0 -649769 152369 0 -647603 152359 0 -645434 152349 0 -643265 152339 0 -641095 152331 0 -638923 152323 0 -636750 152316 0 -634576 152309 0 -632401 152303 0 -630225 152298 0 -628048 152293 0 -625870 152289 0 -623691 152285 0 -621511 152282 0 -619331 152280 0 -617149 152277 0 -614967 152276 0 -612784 152275 0 -610600 152274 0 -608415 152274 0 -606230 152274 0 -604044 152275 0 -601857 152276 0 -599670 152277 0 -597482 152279 0 -595293 152281 0 -593104 152284 0 -590914 152287 0 -588724 152290 0 -586533 152294 0 -584341 152298 0 -582149 152302 0 -579956 152307 0 -577763 152312 0 -575570 152317 0 -573375 152323 0 -571181 152329 0 -568986 152335 0 -566790 152341 0 -564594 152348 0 -562397 152355 0 -560200 152362 0 -558003 152370 0 -555805 152377 0 -553607 152385 0 -551408 152393 0 -549209 152402 0 -547009 152410 0 -544809 152419 0 -542609 152428 0 -540408 152437 0 -538207 152447 0 -536005 152456 0 -533803 152466 0 -531601 152476 0 -529399 152486 0 -798226 153575 0 -794685 154712 0 -791343 157084 0 -788536 159143 0 -786131 160965 0 -784027 162495 0 -782124 163794 0 -780354 164890 0 -778666 165819 0 -777025 166609 0 -775404 167283 0 -773788 167858 0 -772165 168350 0 -770527 168772 0 -768869 169134 0 -767189 169445 0 -765486 169713 0 -763759 169943 0 -762009 170140 0 -760235 170309 0 -758439 170454 0 -756621 170577 0 -754784 170682 0 -752927 170770 0 -751052 170844 0 -749160 170906 0 -747251 170957 0 -745328 170998 0 -743391 171030 0 -741441 171055 0 -739478 171073 0 -737503 171085 0 -735518 171092 0 -733522 171095 0 -731516 171093 0 -729502 171087 0 -727478 171079 0 -725447 171067 0 -723408 171053 0 -721362 171037 0 -719309 171019 0 -717250 170998 0 -715185 170977 0 -713114 170954 0 -711037 170930 0 -708955 170905 0 -706869 170879 0 -704778 170852 0 -702682 170825 0 -700582 170797 0 -698479 170768 0 -696371 170739 0 -694260 170710 0 -692145 170681 0 -690028 170651 0 -687907 170621 0 -685783 170591 0 -683656 170561 0 -681526 170532 0 -679394 170502 0 -677260 170472 0 -675123 170442 0 -672983 170412 0 -670842 170383 0 -668698 170354 0 -666553 170325 0 -664405 170296 0 -662256 170267 0 -660105 170238 0 -657952 170210 0 -655797 170182 0 -653641 170154 0 -651483 170126 0 -649324 170099 0 -647164 170072 0 -645002 170045 0 -642838 170019 0 -640674 169993 0 -638508 169967 0 -636341 169941 0 -634172 169915 0 -632003 169890 0 -629833 169866 0 -627661 169841 0 -625489 169817 0 -623315 169793 0 -621141 169769 0 -618965 169745 0 -616789 169722 0 -614612 169699 0 -612434 169677 0 -610255 169654 0 -608076 169632 0 -605895 169610 0 -603714 169589 0 -601532 169567 0 -599349 169546 0 -597166 169525 0 -594982 169505 0 -592797 169484 0 -590612 169464 0 -588426 169444 0 -586239 169424 0 -584052 169405 0 -581864 169386 0 -579675 169366 0 -577486 169348 0 -575296 169329 0 -573106 169310 0 -570916 169292 0 -568724 169274 0 -566532 169256 0 -564340 169238 0 -562147 169221 0 -559954 169203 0 -557760 169186 0 -555566 169169 0 -553371 169152 0 -551176 169136 0 -548980 169119 0 -546784 169103 0 -544588 169086 0 -542391 169070 0 -540193 169054 0 -537996 169038 0 -535797 169023 0 -533599 169007 0 -531400 168992 0 -805780 179166 0 -803562 179829 0 -801352 180106 0 -799040 180485 0 -796678 180918 0 -794302 181407 0 -791939 181921 0 -789607 182444 0 -787312 182962 0 -785057 183465 0 -782842 183948 0 -780663 184404 0 -778516 184833 0 -776397 185233 0 -774302 185605 0 -772227 185948 0 -770168 186263 0 -768122 186552 0 -766085 186816 0 -764056 187056 0 -762032 187275 0 -760011 187473 0 -757992 187651 0 -755973 187812 0 -753954 187957 0 -751933 188086 0 -749910 188201 0 -747885 188303 0 -745856 188394 0 -743825 188473 0 -741789 188542 0 -739750 188602 0 -737706 188653 0 -735659 188696 0 -733607 188732 0 -731552 188762 0 -729492 188785 0 -727428 188802 0 -725361 188814 0 -723289 188822 0 -721213 188825 0 -719134 188824 0 -717051 188819 0 -714964 188811 0 -712874 188799 0 -710781 188785 0 -708684 188768 0 -706584 188748 0 -704481 188727 0 -702374 188703 0 -700265 188677 0 -698153 188649 0 -696039 188620 0 -693921 188589 0 -691802 188557 0 -689679 188524 0 -687555 188490 0 -685428 188454 0 -683298 188418 0 -681167 188381 0 -679033 188343 0 -676898 188304 0 -674760 188264 0 -672621 188224 0 -670480 188184 0 -668337 188142 0 -666192 188101 0 -664045 188059 0 -661897 188017 0 -659748 187974 0 -657597 187931 0 -655444 187888 0 -653290 187845 0 -651135 187801 0 -648978 187757 0 -646820 187714 0 -644661 187670 0 -642500 187626 0 -640338 187581 0 -638175 187537 0 -636011 187493 0 -633846 187449 0 -631680 187404 0 -629513 187360 0 -627345 187316 0 -625175 187272 0 -623005 187227 0 -620834 187183 0 -618662 187139 0 -616489 187095 0 -614316 187051 0 -612141 187007 0 -609965 186963 0 -607789 186919 0 -605612 186875 0 -603434 186832 0 -601256 186788 0 -599077 186745 0 -596897 186701 0 -594716 186658 0 -592535 186615 0 -590353 186572 0 -588170 186529 0 -585987 186486 0 -583803 186443 0 -581618 186400 0 -579433 186358 0 -577247 186315 0 -575061 186273 0 -572874 186230 0 -570686 186188 0 -568498 186146 0 -566310 186104 0 -564120 186062 0 -561931 186020 0 -559741 185979 0 -557550 185937 0 -555359 185896 0 -553167 185854 0 -550975 185813 0 -548782 185771 0 -546589 185730 0 -544395 185689 0 -542201 185648 0 -540007 185607 0 -537812 185566 0 -535617 185526 0 -533421 185485 0 -812442 201303 0 -809780 201475 0 -807166 201807 0 -804642 202102 0 -802182 202377 0 -799768 202630 0 -797387 202872 0 -795031 203106 0 -792696 203334 0 -790380 203558 0 -788080 203779 0 -785797 203995 0 -783530 204207 0 -781278 204412 0 -779041 204611 0 -776818 204803 0 -774608 204987 0 -772411 205162 0 -770225 205329 0 -768050 205486 0 -765885 205633 0 -763728 205771 0 -761579 205900 0 -759437 206019 0 -757301 206129 0 -755170 206229 0 -753044 206321 0 -750921 206404 0 -748802 206479 0 -746686 206546 0 -744571 206606 0 -742458 206658 0 -740347 206703 0 -738236 206741 0 -736126 206774 0 -734016 206800 0 -731906 206820 0 -729796 206835 0 -727686 206845 0 -725574 206850 0 -723462 206851 0 -721350 206847 0 -719236 206840 0 -717121 206828 0 -715005 206813 0 -712887 206795 0 -710768 206773 0 -708648 206748 0 -706527 206721 0 -704404 206691 0 -702280 206659 0 -700154 206624 0 -698027 206587 0 -695898 206548 0 -693768 206507 0 -691636 206464 0 -689503 206420 0 -687369 206374 0 -685233 206326 0 -683096 206278 0 -680957 206228 0 -678817 206176 0 -676675 206124 0 -674532 206070 0 -672388 206016 0 -670243 205960 0 -668096 205904 0 -665948 205847 0 -663799 205789 0 -661649 205731 0 -659497 205672 0 -657344 205612 0 -655191 205552 0 -653035 205491 0 -650879 205430 0 -648722 205368 0 -646564 205306 0 -644405 205243 0 -642244 205181 0 -640083 205117 0 -637921 205054 0 -635757 204990 0 -633593 204926 0 -631428 204862 0 -629262 204797 0 -627095 204733 0 -624928 204668 0 -622759 204603 0 -620590 204538 0 -618419 204472 0 -616248 204407 0 -614076 204341 0 -611904 204276 0 -609730 204210 0 -607556 204144 0 -605381 204079 0 -603206 204013 0 -601029 203947 0 -598853 203881 0 -596675 203815 0 -594497 203749 0 -592318 203683 0 -590138 203617 0 -587958 203550 0 -585777 203484 0 -583595 203418 0 -581413 203352 0 -579231 203286 0 -577047 203220 0 -574863 203154 0 -572679 203088 0 -570494 203022 0 -568308 202956 0 -566122 202890 0 -563936 202824 0 -561749 202758 0 -559561 202692 0 -557373 202626 0 -555184 202560 0 -552995 202494 0 -550805 202428 0 -548615 202362 0 -546425 202296 0 -544233 202230 0 -542042 202165 0 -539850 202099 0 -537657 202033 0 -535464 201967 0 -815587 224127 0 -813226 224128 0 -810861 224081 0 -808478 224065 0 -806089 224070 0 -803703 224094 0 -801326 224130 0 -798960 224175 0 -796607 224226 0 -794267 224281 0 -791940 224339 0 -789626 224399 0 -787324 224460 0 -785034 224522 0 -782755 224583 0 -780486 224643 0 -778227 224703 0 -775978 224760 0 -773738 224816 0 -771506 224869 0 -769282 224920 0 -767066 224967 0 -764857 225012 0 -762655 225053 0 -760459 225090 0 -758269 225124 0 -756084 225153 0 -753905 225179 0 -751729 225201 0 -749559 225219 0 -747392 225233 0 -745228 225243 0 -743068 225248 0 -740910 225250 0 -738755 225249 0 -736603 225243 0 -734452 225234 0 -732303 225221 0 -730156 225204 0 -728009 225184 0 -725864 225161 0 -723720 225135 0 -721577 225105 0 -719434 225073 0 -717292 225037 0 -715150 224999 0 -713008 224959 0 -710866 224915 0 -708725 224870 0 -706583 224822 0 -704441 224771 0 -702299 224719 0 -700156 224665 0 -698013 224608 0 -695869 224550 0 -693725 224490 0 -691581 224429 0 -689436 224365 0 -687290 224301 0 -685144 224235 0 -682997 224167 0 -680849 224098 0 -678700 224028 0 -676551 223957 0 -674401 223884 0 -672251 223811 0 -670099 223737 0 -667947 223661 0 -665794 223585 0 -663640 223508 0 -661485 223430 0 -659330 223351 0 -657174 223272 0 -655017 223192 0 -652859 223111 0 -650701 223029 0 -648541 222948 0 -646381 222865 0 -644220 222782 0 -642059 222699 0 -639896 222615 0 -637733 222530 0 -635569 222446 0 -633404 222360 0 -631239 222275 0 -629073 222189 0 -626906 222103 0 -624738 222016 0 -622570 221930 0 -620401 221843 0 -618231 221755 0 -616061 221668 0 -613890 221580 0 -611718 221492 0 -609546 221404 0 -607373 221316 0 -605199 221227 0 -603025 221139 0 -600850 221050 0 -598674 220961 0 -596498 220872 0 -594321 220783 0 -592144 220694 0 -589966 220604 0 -587787 220515 0 -585608 220425 0 -583428 220336 0 -581248 220246 0 -579067 220156 0 -576886 220066 0 -574704 219976 0 -572521 219887 0 -570338 219796 0 -568154 219706 0 -565970 219616 0 -563786 219526 0 -561601 219436 0 -559415 219346 0 -557229 219255 0 -555042 219165 0 -552855 219074 0 -550667 218984 0 -548479 218894 0 -546291 218803 0 -544102 218713 0 -541912 218622 0 -539722 218531 0 -537532 218441 0 -818131 245831 0 -815751 245721 0 -813383 245640 0 -811034 245555 0 -808697 245471 0 -806370 245390 0 -804049 245312 0 -801734 245238 0 -799424 245169 0 -797120 245106 0 -794821 245046 0 -792529 244991 0 -790242 244940 0 -787961 244892 0 -785687 244846 0 -783418 244804 0 -781156 244763 0 -778900 244724 0 -776650 244686 0 -774406 244649 0 -772167 244613 0 -769934 244577 0 -767706 244541 0 -765483 244505 0 -763265 244469 0 -761051 244432 0 -758842 244394 0 -756638 244355 0 -754437 244315 0 -752241 244274 0 -750048 244232 0 -747858 244188 0 -745672 244142 0 -743488 244095 0 -741308 244046 0 -739130 243996 0 -736954 243944 0 -734781 243890 0 -732610 243834 0 -730441 243776 0 -728274 243717 0 -726108 243655 0 -723944 243592 0 -721781 243527 0 -719619 243460 0 -717458 243392 0 -715299 243322 0 -713140 243250 0 -710982 243176 0 -708824 243101 0 -706667 243024 0 -704511 242946 0 -702355 242866 0 -700199 242785 0 -698043 242702 0 -695888 242618 0 -693733 242533 0 -691577 242446 0 -689422 242358 0 -687267 242269 0 -685111 242179 0 -682955 242087 0 -680799 241995 0 -678643 241901 0 -676487 241807 0 -674330 241711 0 -672173 241615 0 -670016 241518 0 -667858 241420 0 -665700 241321 0 -663541 241221 0 -661382 241120 0 -659223 241019 0 -657063 240917 0 -654902 240815 0 -652741 240712 0 -650580 240608 0 -648418 240503 0 -646255 240398 0 -644092 240293 0 -641928 240187 0 -639764 240081 0 -637599 239974 0 -635434 239866 0 -633268 239759 0 -631102 239650 0 -628935 239542 0 -626767 239433 0 -624599 239324 0 -622430 239214 0 -620261 239104 0 -618091 238994 0 -615921 238884 0 -613750 238773 0 -611579 238662 0 -609407 238551 0 -607234 238439 0 -605061 238327 0 -602887 238215 0 -600713 238103 0 -598538 237991 0 -596363 237878 0 -594187 237766 0 -592010 237653 0 -589833 237540 0 -587656 237426 0 -585478 237313 0 -583299 237200 0 -581120 237086 0 -578941 236972 0 -576760 236858 0 -574580 236744 0 -572399 236630 0 -570217 236516 0 -568035 236402 0 -565852 236287 0 -563669 236173 0 -561486 236058 0 -559302 235943 0 -557117 235828 0 -554932 235714 0 -552747 235599 0 -550561 235484 0 -548374 235368 0 -546187 235253 0 -544000 235138 0 -541812 235023 0 -539624 234907 0 -819865 267207 0 -817589 267020 0 -815309 266832 0 -813027 266654 0 -810744 266485 0 -808462 266324 0 -806183 266169 0 -803906 266019 0 -801633 265875 0 -799364 265735 0 -797098 265599 0 -794835 265467 0 -792576 265339 0 -790320 265214 0 -788068 265093 0 -785819 264975 0 -783574 264859 0 -781332 264746 0 -779093 264636 0 -776858 264528 0 -774627 264421 0 -772399 264317 0 -770174 264213 0 -767952 264112 0 -765734 264011 0 -763519 263911 0 -761307 263812 0 -759098 263714 0 -756892 263616 0 -754689 263519 0 -752489 263422 0 -750291 263325 0 -748096 263228 0 -745903 263130 0 -743712 263033 0 -741524 262935 0 -739338 262837 0 -737154 262738 0 -734972 262639 0 -732791 262540 0 -730613 262439 0 -728436 262338 0 -726260 262236 0 -724086 262134 0 -721913 262031 0 -719742 261926 0 -717571 261821 0 -715402 261716 0 -713233 261609 0 -711066 261501 0 -708899 261393 0 -706733 261284 0 -704568 261173 0 -702403 261062 0 -700239 260950 0 -698076 260838 0 -695912 260724 0 -693749 260609 0 -691587 260494 0 -689425 260378 0 -687262 260261 0 -685100 260143 0 -682939 260025 0 -680777 259905 0 -678615 259785 0 -676453 259664 0 -674291 259543 0 -672129 259421 0 -669967 259298 0 -667805 259174 0 -665643 259050 0 -663480 258926 0 -661318 258800 0 -659155 258674 0 -656991 258548 0 -654828 258421 0 -652664 258293 0 -650500 258165 0 -648335 258036 0 -646171 257907 0 -644006 257778 0 -641840 257647 0 -639674 257517 0 -637508 257386 0 -635341 257255 0 -633174 257123 0 -631006 256991 0 -628838 256859 0 -626670 256726 0 -624501 256593 0 -622332 256459 0 -620162 256326 0 -617992 256191 0 -615821 256057 0 -613650 255922 0 -611479 255788 0 -609307 255652 0 -607134 255517 0 -604961 255381 0 -602788 255245 0 -600614 255109 0 -598439 254973 0 -596265 254836 0 -594089 254699 0 -591913 254562 0 -589737 254425 0 -587560 254288 0 -585383 254150 0 -583205 254012 0 -581027 253874 0 -578849 253736 0 -576670 253598 0 -574490 253460 0 -572310 253321 0 -570129 253183 0 -567948 253044 0 -565767 252905 0 -563585 252766 0 -561403 252626 0 -559220 252487 0 -557037 252348 0 -554853 252208 0 -552669 252068 0 -550484 251929 0 -548299 251789 0 -546114 251649 0 -543928 251508 0 -541742 251368 0 -821367 288014 0 -819125 287786 0 -816885 287565 0 -814647 287347 0 -812411 287133 0 -810176 286922 0 -807942 286715 0 -805708 286512 0 -803475 286313 0 -801243 286118 0 -799012 285927 0 -796782 285740 0 -794553 285556 0 -792326 285375 0 -790101 285198 0 -787877 285024 0 -785655 284852 0 -783434 284684 0 -781215 284518 0 -778998 284354 0 -776783 284193 0 -774570 284033 0 -772358 283876 0 -770149 283721 0 -767941 283567 0 -765736 283415 0 -763532 283265 0 -761330 283116 0 -759129 282968 0 -756931 282821 0 -754734 282675 0 -752539 282530 0 -750346 282386 0 -748154 282243 0 -745964 282100 0 -743776 281958 0 -741589 281816 0 -739404 281674 0 -737220 281533 0 -735037 281392 0 -732856 281251 0 -730676 281111 0 -728497 280970 0 -726319 280829 0 -724143 280689 0 -721967 280548 0 -719793 280407 0 -717619 280265 0 -715446 280124 0 -713274 279982 0 -711103 279840 0 -708933 279698 0 -706763 279555 0 -704594 279412 0 -702425 279268 0 -700257 279125 0 -698090 278980 0 -695923 278836 0 -693756 278691 0 -691590 278545 0 -689424 278399 0 -687258 278253 0 -685092 278106 0 -682927 277958 0 -680762 277811 0 -678597 277662 0 -676432 277514 0 -674267 277365 0 -672102 277215 0 -669937 277065 0 -667772 276915 0 -665607 276764 0 -663442 276612 0 -661277 276461 0 -659112 276308 0 -656946 276156 0 -654781 276003 0 -652615 275850 0 -650449 275696 0 -648283 275542 0 -646117 275387 0 -643950 275232 0 -641783 275077 0 -639616 274921 0 -637449 274765 0 -635281 274609 0 -633113 274453 0 -630944 274296 0 -628776 274138 0 -626607 273981 0 -624437 273823 0 -622267 273665 0 -620097 273506 0 -617927 273348 0 -615756 273189 0 -613585 273029 0 -611413 272870 0 -609241 272710 0 -607069 272550 0 -604896 272390 0 -602722 272229 0 -600549 272069 0 -598375 271908 0 -596200 271747 0 -594025 271585 0 -591850 271424 0 -589674 271262 0 -587498 271100 0 -585321 270938 0 -583144 270775 0 -580967 270613 0 -578789 270450 0 -576611 270287 0 -574432 270124 0 -572253 269961 0 -570073 269798 0 -567893 269634 0 -565713 269470 0 -563532 269306 0 -561350 269142 0 -559168 268978 0 -556986 268814 0 -554804 268650 0 -552621 268485 0 -550437 268320 0 -548253 268155 0 -546069 267990 0 -543884 267825 0 -822703 308470 0 -820509 308208 0 -818314 307949 0 -816116 307695 0 -813918 307445 0 -811719 307198 0 -809519 306955 0 -807320 306715 0 -805120 306478 0 -802920 306244 0 -800720 306014 0 -798520 305786 0 -796321 305562 0 -794122 305340 0 -791923 305121 0 -789724 304904 0 -787526 304690 0 -785329 304479 0 -783132 304270 0 -780935 304063 0 -778740 303858 0 -776545 303656 0 -774351 303455 0 -772158 303257 0 -769965 303060 0 -767773 302865 0 -765583 302672 0 -763393 302480 0 -761204 302290 0 -759016 302101 0 -756829 301913 0 -754643 301727 0 -752458 301542 0 -750273 301358 0 -748090 301175 0 -745907 300992 0 -743726 300811 0 -741545 300630 0 -739365 300451 0 -737186 300271 0 -735008 300093 0 -732831 299915 0 -730655 299737 0 -728479 299560 0 -726304 299383 0 -724129 299207 0 -721956 299030 0 -719783 298854 0 -717610 298679 0 -715439 298503 0 -713267 298328 0 -711097 298152 0 -708926 297977 0 -706757 297802 0 -704587 297626 0 -702419 297451 0 -700250 297276 0 -698082 297100 0 -695914 296925 0 -693747 296749 0 -691580 296573 0 -689413 296397 0 -687246 296221 0 -685079 296045 0 -682913 295869 0 -680746 295692 0 -678580 295515 0 -676414 295338 0 -674248 295161 0 -672082 294983 0 -669916 294805 0 -667750 294627 0 -665584 294449 0 -663418 294270 0 -661252 294091 0 -659086 293912 0 -656919 293733 0 -654753 293553 0 -652586 293374 0 -650419 293194 0 -648253 293013 0 -646085 292832 0 -643918 292652 0 -641751 292470 0 -639583 292289 0 -637415 292107 0 -635247 291925 0 -633078 291743 0 -630909 291561 0 -628740 291378 0 -626571 291195 0 -624402 291012 0 -622232 290829 0 -620061 290645 0 -617891 290461 0 -615720 290277 0 -613549 290093 0 -611377 289908 0 -609205 289723 0 -607033 289538 0 -604860 289353 0 -602687 289167 0 -600514 288982 0 -598340 288796 0 -596166 288610 0 -593992 288424 0 -591817 288237 0 -589641 288050 0 -587466 287863 0 -585290 287676 0 -583113 287489 0 -580936 287302 0 -578759 287114 0 -576582 286926 0 -574404 286738 0 -572225 286550 0 -570046 286362 0 -567867 286173 0 -565687 285985 0 -563507 285796 0 -561327 285607 0 -559146 285418 0 -556965 285228 0 -554783 285039 0 -552601 284849 0 -550418 284660 0 -548235 284470 0 -546052 284279 0 -824019 328594 0 -821854 328311 0 -819689 328031 0 -817523 327753 0 -815355 327478 0 -813187 327204 0 -811018 326934 0 -808847 326666 0 -806676 326400 0 -804504 326137 0 -802331 325876 0 -800157 325618 0 -797983 325362 0 -795809 325108 0 -793634 324857 0 -791459 324607 0 -789283 324360 0 -787107 324115 0 -784931 323872 0 -782755 323631 0 -780579 323392 0 -778402 323154 0 -776226 322919 0 -774050 322685 0 -771874 322453 0 -769698 322222 0 -767522 321993 0 -765346 321766 0 -763171 321540 0 -760996 321315 0 -758821 321092 0 -756646 320870 0 -754472 320649 0 -752298 320430 0 -750124 320211 0 -747951 319994 0 -745778 319778 0 -743605 319562 0 -741433 319347 0 -739261 319134 0 -737090 318921 0 -734918 318709 0 -732748 318497 0 -730577 318286 0 -728407 318076 0 -726237 317866 0 -724068 317657 0 -721899 317448 0 -719730 317240 0 -717562 317032 0 -715393 316825 0 -713225 316618 0 -711058 316411 0 -708890 316204 0 -706723 315998 0 -704556 315792 0 -702390 315586 0 -700223 315380 0 -698057 315175 0 -695890 314969 0 -693724 314764 0 -691558 314559 0 -689392 314353 0 -687227 314148 0 -685061 313943 0 -682895 313738 0 -680730 313532 0 -678564 313327 0 -676399 313122 0 -674233 312916 0 -672067 312711 0 -669902 312505 0 -667736 312300 0 -665570 312094 0 -663404 311888 0 -661238 311682 0 -659072 311476 0 -656906 311270 0 -654740 311063 0 -652574 310857 0 -650407 310650 0 -648240 310443 0 -646073 310236 0 -643906 310029 0 -641739 309822 0 -639571 309614 0 -637403 309406 0 -635235 309199 0 -633067 308991 0 -630898 308782 0 -628729 308574 0 -626560 308365 0 -624391 308156 0 -622221 307947 0 -620051 307738 0 -617881 307529 0 -615710 307319 0 -613539 307110 0 -611368 306900 0 -609197 306689 0 -607025 306479 0 -604852 306269 0 -602680 306058 0 -600507 305847 0 -598334 305636 0 -596160 305425 0 -593986 305213 0 -591812 305002 0 -589637 304790 0 -587462 304578 0 -585286 304366 0 -583110 304153 0 -580934 303941 0 -578758 303728 0 -576581 303515 0 -574403 303302 0 -572226 303089 0 -570047 302875 0 -567869 302662 0 -565690 302448 0 -563511 302234 0 -561331 302020 0 -559151 301806 0 -556970 301591 0 -554790 301377 0 -552608 301162 0 -550427 300947 0 -548245 300732 0 -825358 348472 0 -823221 348170 0 -821081 347870 0 -818940 347572 0 -816797 347276 0 -814653 346982 0 -812507 346690 0 -810360 346400 0 -808212 346112 0 -806063 345825 0 -803913 345540 0 -801761 345258 0 -799609 344976 0 -797456 344697 0 -795301 344419 0 -793146 344143 0 -790990 343869 0 -788834 343597 0 -786677 343326 0 -784519 343056 0 -782360 342789 0 -780201 342522 0 -778042 342258 0 -775882 341995 0 -773721 341733 0 -771561 341472 0 -769399 341213 0 -767238 340956 0 -765076 340699 0 -762914 340444 0 -760752 340190 0 -758590 339938 0 -756427 339686 0 -754265 339436 0 -752102 339186 0 -749939 338938 0 -747776 338690 0 -745613 338444 0 -743450 338198 0 -741287 337953 0 -739123 337710 0 -736960 337466 0 -734797 337224 0 -732634 336982 0 -730470 336742 0 -728307 336501 0 -726144 336262 0 -723981 336023 0 -721817 335784 0 -719654 335546 0 -717491 335308 0 -715328 335071 0 -713165 334835 0 -711002 334599 0 -708838 334363 0 -706675 334127 0 -704512 333892 0 -702349 333657 0 -700186 333423 0 -698023 333188 0 -695859 332954 0 -693696 332720 0 -691533 332486 0 -689369 332253 0 -687206 332019 0 -685042 331786 0 -682879 331553 0 -680715 331320 0 -678552 331087 0 -676388 330854 0 -674224 330621 0 -672060 330388 0 -669896 330155 0 -667731 329922 0 -665567 329690 0 -663402 329457 0 -661237 329224 0 -659072 328991 0 -656907 328758 0 -654742 328525 0 -652576 328292 0 -650411 328059 0 -648245 327825 0 -646079 327592 0 -643912 327359 0 -641746 327125 0 -639579 326891 0 -637412 326658 0 -635244 326424 0 -633077 326190 0 -630909 325956 0 -628740 325721 0 -626572 325487 0 -624403 325253 0 -622234 325018 0 -620065 324783 0 -617895 324548 0 -615725 324313 0 -613555 324078 0 -611384 323842 0 -609213 323607 0 -607042 323371 0 -604870 323135 0 -602698 322899 0 -600526 322663 0 -598353 322427 0 -596180 322190 0 -594007 321953 0 -591833 321716 0 -589659 321479 0 -587485 321242 0 -585310 321005 0 -583135 320767 0 -580959 320529 0 -578783 320291 0 -576607 320053 0 -574430 319815 0 -572253 319577 0 -570076 319338 0 -567898 319099 0 -565720 318860 0 -563541 318621 0 -561362 318382 0 -559183 318142 0 -557003 317903 0 -554823 317663 0 -552642 317423 0 -550462 317182 0 -826765 368144 0 -824647 367827 0 -822527 367512 0 -820405 367197 0 -818282 366884 0 -816157 366573 0 -814031 366262 0 -811903 365953 0 -809774 365646 0 -807643 365339 0 -805512 365034 0 -803378 364731 0 -801244 364428 0 -799108 364127 0 -796972 363828 0 -794834 363529 0 -792695 363232 0 -790555 362937 0 -788414 362642 0 -786272 362349 0 -784129 362057 0 -781985 361766 0 -779841 361476 0 -777695 361188 0 -775549 360901 0 -773402 360615 0 -771255 360330 0 -769107 360046 0 -766958 359763 0 -764809 359481 0 -762659 359201 0 -760508 358921 0 -758357 358642 0 -756206 358364 0 -754054 358087 0 -751901 357811 0 -749748 357536 0 -747595 357262 0 -745442 356989 0 -743288 356716 0 -741133 356444 0 -738979 356173 0 -736824 355903 0 -734668 355633 0 -732513 355364 0 -730357 355096 0 -728201 354828 0 -726044 354561 0 -723888 354294 0 -721731 354028 0 -719574 353763 0 -717416 353498 0 -715259 353233 0 -713101 352969 0 -710943 352705 0 -708785 352442 0 -706626 352179 0 -704468 351916 0 -702309 351654 0 -700150 351392 0 -697990 351130 0 -695831 350869 0 -693671 350608 0 -691511 350347 0 -689351 350086 0 -687191 349826 0 -685031 349565 0 -682870 349305 0 -680709 349045 0 -678548 348785 0 -676387 348525 0 -674225 348266 0 -672063 348006 0 -669901 347747 0 -667739 347487 0 -665577 347228 0 -663414 346969 0 -661251 346709 0 -659088 346450 0 -656924 346191 0 -654760 345932 0 -652596 345672 0 -650432 345413 0 -648268 345154 0 -646103 344894 0 -643938 344635 0 -641772 344376 0 -639607 344116 0 -637441 343856 0 -635275 343597 0 -633108 343337 0 -630941 343077 0 -628774 342817 0 -626606 342557 0 -624439 342297 0 -622271 342037 0 -620102 341777 0 -617933 341516 0 -615764 341256 0 -613595 340995 0 -611425 340734 0 -609255 340473 0 -607084 340212 0 -604913 339951 0 -602742 339689 0 -600571 339428 0 -598399 339166 0 -596227 338904 0 -594054 338642 0 -591881 338380 0 -589708 338117 0 -587534 337855 0 -585360 337592 0 -583185 337329 0 -581010 337066 0 -578835 336803 0 -576660 336540 0 -574484 336276 0 -572307 336013 0 -570131 335749 0 -567953 335485 0 -565776 335221 0 -563598 334956 0 -561420 334692 0 -559241 334427 0 -557062 334162 0 -554883 333897 0 -552703 333632 0 -828257 387654 0 -826155 387323 0 -824050 386993 0 -821944 386663 0 -819836 386335 0 -817727 386007 0 -815616 385681 0 -813504 385355 0 -811390 385030 0 -809274 384707 0 -807157 384384 0 -805039 384062 0 -802919 383741 0 -800798 383421 0 -798676 383102 0 -796552 382784 0 -794427 382467 0 -792301 382151 0 -790174 381835 0 -788046 381521 0 -785916 381208 0 -783786 380895 0 -781654 380584 0 -779522 380273 0 -777388 379963 0 -775254 379654 0 -773118 379346 0 -770982 379039 0 -768845 378733 0 -766707 378428 0 -764568 378123 0 -762428 377819 0 -760288 377516 0 -758147 377214 0 -756005 376912 0 -753862 376612 0 -751719 376312 0 -749575 376012 0 -747431 375714 0 -745286 375416 0 -743140 375119 0 -740994 374822 0 -738847 374526 0 -736700 374230 0 -734552 373936 0 -732404 373641 0 -730255 373348 0 -728105 373055 0 -725956 372762 0 -723805 372470 0 -721655 372178 0 -719504 371887 0 -717352 371596 0 -715200 371306 0 -713048 371016 0 -710895 370726 0 -708742 370437 0 -706588 370148 0 -704434 369859 0 -702280 369571 0 -700125 369283 0 -697970 368995 0 -695815 368708 0 -693659 368421 0 -691503 368134 0 -689347 367847 0 -687190 367561 0 -685033 367275 0 -682876 366988 0 -680718 366702 0 -678560 366417 0 -676401 366131 0 -674243 365845 0 -672083 365560 0 -669924 365275 0 -667764 364989 0 -665604 364704 0 -663444 364419 0 -661283 364134 0 -659122 363849 0 -656960 363564 0 -654799 363279 0 -652637 362994 0 -650474 362709 0 -648311 362424 0 -646148 362139 0 -643985 361854 0 -641821 361569 0 -639657 361284 0 -637492 360999 0 -635328 360714 0 -633162 360429 0 -630997 360144 0 -628831 359858 0 -626665 359573 0 -624498 359287 0 -622331 359002 0 -620164 358716 0 -617996 358430 0 -615828 358144 0 -613659 357858 0 -611491 357572 0 -609322 357286 0 -607152 356999 0 -604982 356713 0 -602812 356426 0 -600641 356139 0 -598470 355852 0 -596299 355565 0 -594127 355278 0 -591955 354991 0 -589782 354703 0 -587609 354415 0 -585436 354127 0 -583262 353839 0 -581088 353551 0 -578914 353263 0 -576739 352974 0 -574564 352686 0 -572388 352397 0 -570212 352108 0 -568035 351818 0 -565859 351529 0 -563681 351239 0 -561504 350950 0 -559326 350660 0 -557148 350369 0 -554969 350079 0 -829848 407031 0 -827758 406686 0 -825665 406342 0 -823572 405999 0 -821476 405656 0 -819379 405314 0 -817280 404972 0 -815180 404631 0 -813078 404291 0 -810975 403951 0 -808870 403611 0 -806763 403273 0 -804656 402935 0 -802546 402598 0 -800436 402261 0 -798324 401925 0 -796211 401590 0 -794096 401255 0 -791980 400921 0 -789863 400587 0 -787745 400255 0 -785626 399923 0 -783505 399591 0 -781383 399260 0 -779260 398930 0 -777136 398601 0 -775011 398272 0 -772885 397944 0 -770758 397616 0 -768630 397289 0 -766501 396963 0 -764371 396637 0 -762240 396312 0 -760108 395987 0 -757976 395663 0 -755842 395340 0 -753708 395017 0 -751572 394694 0 -749436 394373 0 -747300 394051 0 -745162 393731 0 -743024 393410 0 -740885 393091 0 -738745 392771 0 -736604 392453 0 -734463 392134 0 -732321 391817 0 -730179 391499 0 -728036 391182 0 -725892 390866 0 -723748 390549 0 -721603 390234 0 -719457 389918 0 -717311 389603 0 -715164 389288 0 -713017 388974 0 -710869 388660 0 -708721 388346 0 -706572 388033 0 -704423 387719 0 -702273 387406 0 -700123 387094 0 -697972 386781 0 -695821 386469 0 -693669 386157 0 -691517 385845 0 -689364 385534 0 -687211 385222 0 -685057 384911 0 -682903 384600 0 -680748 384289 0 -678593 383978 0 -676438 383667 0 -674282 383357 0 -672126 383046 0 -669969 382736 0 -667812 382425 0 -665654 382115 0 -663496 381805 0 -661338 381495 0 -659179 381185 0 -657020 380874 0 -654860 380564 0 -652700 380254 0 -650540 379944 0 -648379 379634 0 -646218 379