<?xml version="1.0"?> 
<VTKFile type="StructuredGrid" version="0.1"> 
<StructuredGrid WholeExtent="0 127 0 127 0 0"> 
<Piece Extent="0 127 0 127 0 0"> 
<PointData>
<DataArray type="Float32" Name="E" format="ascii" NumberOfComponents="3"> 
-1.00798e+06 0 0 -1.00673e+06 0 0 -1.00548e+06 0 0 -1.00424e+06 0 0 -1.00299e+06 0 0 -1.00174e+06 0 0 -1.00049e+06 0 0 -999234 0 0 -997982 0 0 -996728 0 0 -995474 0 0 -994218 0 0 -992962 0 0 -991704 0 0 -990446 0 0 -989186 0 0 -987926 0 0 -986665 0 0 -985403 0 0 -984139 0 0 -982875 0 0 -981610 0 0 -980344 0 0 -979076 0 0 -977808 0 0 -976539 0 0 -975269 0 0 -973997 0 0 -972725 0 0 -971452 0 0 -970177 0 0 -968902 0 0 -967625 0 0 -966347 0 0 -965068 0 0 -963789 0 0 -962508 0 0 -961225 0 0 -959942 0 0 -958658 0 0 -957372 0 0 -956085 0 0 -954797 0 0 -953507 0 0 -952216 0 0 -950924 0 0 -949631 0 0 -948336 0 0 -947040 0 0 -945743 0 0 -944443 0 0 -943143 0 0 -941841 0 0 -940537 0 0 -939232 0 0 -937925 0 0 -936616 0 0 -935306 0 0 -933994 0 0 -932680 0 0 -931364 0 0 -930046 0 0 -928726 0 0 -927404 0 0 -926080 0 0 -924754 0 0 -923426 0 0 -922095 0 0 -920761 0 0 -919425 0 0 -918087 0 0 -916746 0 0 -915402 0 0 -914055 0 0 -912705 0 0 -911353 0 0 -909997 0 0 -908637 0 0 -907275 0 0 -905908 0 0 -904539 0 0 -903165 0 0 -901788 0 0 -900406 0 0 -899021 0 0 -897631 0 0 -896237 0 0 -894838 0 0 -893435 0 0 -892026 0 0 -890613 0 0 -889194 0 0 -887771 0 0 -886341 0 0 -884906 0 0 -883465 0 0 -882019 0 0 -880566 0 0 -879107 0 0 -877641 0 0 -876169 0 0 -874690 0 0 -873204 0 0 -871711 0 0 -870211 0 0 -868703 0 0 -867188 0 0 -865665 0 0 -864134 0 0 -862595 0 0 -861049 0 0 -859494 0 0 -857931 0 0 -856359 0 0 -854780 0 0 -853191 0 0 -851595 0 0 -849989 0 0 -848375 0 0 -846753 0 0 -845122 0 0 -843482 0 0 -841834 0 0 -840178 0 0 -838513 0 0 -836840 0 0 -835159 0 0 -833470 0 0 -1.00798e+06 2291.71 0 -1.00673e+06 2280.3 0 -1.00548e+06 2268.88 0 -1.00424e+06 2257.44 0 -1.00299e+06 2245.97 0 -1.00174e+06 2234.49 0 -1.00049e+06 2222.99 0 -999236 2211.48 0 -997983 2199.94 0 -996730 2188.39 0 -995475 2176.82 0 -994219 2165.23 0 -992963 2153.62 0 -991706 2142 0 -990447 2130.37 0 -989188 2118.71 0 -987927 2107.05 0 -986666 2095.36 0 -985404 2083.66 0 -984141 2071.95 0 -982876 2060.23 0 -981611 2048.49 0 -980345 2036.74 0 -979078 2024.98 0 -977809 2013.21 0 -976540 2001.42 0 -975270 1989.63 0 -973999 1977.83 0 -972726 1966.02 0 -971453 1954.2 0 -970178 1942.38 0 -968903 1930.55 0 -967626 1918.71 0 -966349 1906.87 0 -965070 1895.03 0 -963790 1883.18 0 -962509 1871.34 0 -961227 1859.49 0 -959943 1847.64 0 -958659 1835.79 0 -957373 1823.95 0 -956086 1812.11 0 -954798 1800.27 0 -953508 1788.44 0 -952218 1776.62 0 -950926 1764.8 0 -949632 1752.99 0 -948338 1741.2 0 -947041 1729.41 0 -945744 1717.64 0 -944445 1705.88 0 -943144 1694.13 0 -941842 1682.4 0 -940539 1670.69 0 -939233 1659 0 -937926 1647.33 0 -936618 1635.68 0 -935308 1624.06 0 -933995 1612.46 0 -932681 1600.88 0 -931366 1589.34 0 -930048 1577.82 0 -928728 1566.33 0 -927406 1554.87 0 -926082 1543.44 0 -924756 1532.05 0 -923427 1520.7 0 -922096 1509.38 0 -920763 1498.1 0 -919427 1486.85 0 -918089 1475.65 0 -916747 1464.49 0 -915404 1453.37 0 -914057 1442.29 0 -912707 1431.25 0 -911354 1420.26 0 -909998 1409.32 0 -908639 1398.42 0 -907276 1387.56 0 -905910 1376.75 0 -904541 1365.99 0 -903167 1355.27 0 -901790 1344.59 0 -900408 1333.96 0 -899023 1323.38 0 -897633 1312.83 0 -896239 1302.33 0 -894840 1291.87 0 -893437 1281.44 0 -892028 1271.05 0 -890615 1260.7 0 -889196 1250.37 0 -887773 1240.07 0 -886343 1229.8 0 -884908 1219.54 0 -883468 1209.3 0 -882021 1199.07 0 -880568 1188.85 0 -879109 1178.63 0 -877643 1168.4 0 -876171 1158.16 0 -874692 1147.91 0 -873206 1137.62 0 -871713 1127.31 0 -870213 1116.96 0 -868705 1106.56 0 -867190 1096.1 0 -865667 1085.58 0 -864136 1074.98 0 -862597 1064.3 0 -861051 1053.53 0 -859496 1042.65 0 -857933 1031.66 0 -856361 1020.55 0 -854781 1009.3 0 -853193 997.909 0 -851596 986.365 0 -849991 974.658 0 -848377 962.777 0 -846754 950.713 0 -845123 938.456 0 -843484 925.998 0 -841836 913.33 0 -840179 900.443 0 -838514 887.33 0 -836841 873.983 0 -835160 860.397 0 -833471 846.565 0 -1.00798e+06 4583.42 0 -1.00674e+06 4560.6 0 -1.00549e+06 4537.75 0 -1.00424e+06 4514.87 0 -1.00299e+06 4491.94 0 -1.00174e+06 4468.98 0 -1.00049e+06 4445.98 0 -999240 4422.95 0 -997988 4399.87 0 -996734 4376.77 0 -995479 4353.62 0 -994224 4330.45 0 -992967 4307.24 0 -991710 4283.99 0 -990451 4260.72 0 -989192 4237.41 0 -987932 4214.07 0 -986670 4190.71 0 -985408 4167.31 0 -984145 4143.89 0 -982880 4120.44 0 -981615 4096.96 0 -980349 4073.46 0 -979081 4049.93 0 -977813 4026.39 0 -976544 4002.82 0 -975274 3979.23 0 -974002 3955.63 0 -972730 3932.01 0 -971456 3908.37 0 -970182 3884.72 0 -968907 3861.06 0 -967630 3837.38 0 -966352 3813.7 0 -965073 3790.01 0 -963794 3766.32 0 -962512 3742.62 0 -961230 3718.92 0 -959947 3695.23 0 -958662 3671.53 0 -957377 3647.84 0 -956090 3624.16 0 -954802 3600.48 0 -953512 3576.82 0 -952221 3553.17 0 -950929 3529.53 0 -949636 3505.91 0 -948341 3482.32 0 -947045 3458.74 0 -945748 3435.19 0 -944449 3411.67 0 -943148 3388.18 0 -941846 3364.72 0 -940543 3341.3 0 -939237 3317.92 0 -937930 3294.57 0 -936622 3271.27 0 -935312 3248.02 0 -934000 3224.82 0 -932686 3201.67 0 -931370 3178.57 0 -930052 3155.53 0 -928732 3132.55 0 -927410 3109.63 0 -926086 3086.78 0 -924760 3063.99 0 -923432 3041.28 0 -922101 3018.64 0 -920768 2996.08 0 -919432 2973.59 0 -918093 2951.18 0 -916752 2928.85 0 -915409 2906.61 0 -914062 2884.45 0 -912712 2862.38 0 -911359 2840.4 0 -910004 2818.51 0 -908644 2796.71 0 -907282 2775 0 -905916 2753.38 0 -904546 2731.85 0 -903173 2710.41 0 -901795 2689.07 0 -900414 2667.81 0 -899029 2646.64 0 -897639 2625.55 0 -896245 2604.55 0 -894846 2583.62 0 -893443 2562.77 0 -892034 2541.99 0 -890621 2521.28 0 -889203 2500.63 0 -887779 2480.04 0 -886350 2459.49 0 -884915 2438.98 0 -883474 2418.5 0 -882027 2398.05 0 -880574 2377.61 0 -879115 2357.17 0 -877650 2336.72 0 -876177 2316.25 0 -874698 2295.74 0 -873212 2275.18 0 -871719 2254.56 0 -870219 2233.86 0 -868711 2213.06 0 -867196 2192.15 0 -865673 2171.11 0 -864142 2149.92 0 -862603 2128.56 0 -861056 2107.02 0 -859501 2085.27 0 -857938 2063.29 0 -856367 2041.07 0 -854787 2018.58 0 -853198 1995.81 0 -851601 1972.72 0 -849996 1949.31 0 -848382 1925.55 0 -846759 1901.43 0 -845128 1876.92 0 -843488 1852.01 0 -841839 1826.67 0 -840183 1800.9 0 -838518 1774.68 0 -836844 1747.98 0 -835163 1720.81 0 -833474 1693.15 0 -1.00799e+06 6875.11 0 -1.00674e+06 6840.9 0 -1.0055e+06 6806.62 0 -1.00425e+06 6772.29 0 -1.003e+06 6737.9 0 -1.00175e+06 6703.46 0 -1.0005e+06 6668.96 0 -999248 6634.4 0 -997995 6599.79 0 -996741 6565.13 0 -995487 6530.41 0 -994231 6495.65 0 -992974 6460.83 0 -991717 6425.96 0 -990458 6391.04 0 -989199 6356.08 0 -987938 6321.07 0 -986677 6286.02 0 -985415 6250.92 0 -984151 6215.78 0 -982887 6180.6 0 -981622 6145.38 0 -980355 6110.13 0 -979088 6074.83 0 -977820 6039.51 0 -976550 6004.16 0 -975280 5968.77 0 -974009 5933.36 0 -972736 5897.92 0 -971463 5862.46 0 -970188 5826.98 0 -968913 5791.48 0 -967636 5755.97 0 -966358 5720.44 0 -965080 5684.91 0 -963800 5649.36 0 -962519 5613.81 0 -961236 5578.26 0 -959953 5542.7 0 -958669 5507.16 0 -957383 5471.61 0 -956096 5436.08 0 -954808 5400.56 0 -953518 5365.06 0 -952228 5329.58 0 -950936 5294.12 0 -949642 5258.69 0 -948348 5223.29 0 -947052 5187.92 0 -945754 5152.59 0 -944455 5117.31 0 -943155 5082.06 0 -941853 5046.87 0 -940549 5011.73 0 -939244 4976.65 0 -937937 4941.63 0 -936629 4906.68 0 -935319 4871.79 0 -934007 4836.98 0 -932693 4802.25 0 -931377 4767.6 0 -930059 4733.03 0 -928740 4698.56 0 -927418 4664.18 0 -926094 4629.89 0 -924768 4595.71 0 -923439 4561.64 0 -922109 4527.68 0 -920776 4493.82 0 -919440 4460.09 0 -918102 4426.47 0 -916761 4392.98 0 -915417 4359.62 0 -914070 4326.38 0 -912721 4293.27 0 -911368 4260.3 0 -910012 4227.46 0 -908653 4194.76 0 -907291 4162.19 0 -905925 4129.76 0 -904555 4097.47 0 -903182 4065.31 0 -901805 4033.29 0 -900424 4001.41 0 -899038 3969.65 0 -897649 3938.02 0 -896255 3906.52 0 -894856 3875.14 0 -893453 3843.87 0 -892045 3812.71 0 -890631 3781.65 0 -889213 3750.68 0 -887789 3719.79 0 -886360 3688.98 0 -884925 3658.22 0 -883484 3627.51 0 -882038 3596.84 0 -880585 3566.19 0 -879126 3535.54 0 -877660 3504.87 0 -876188 3474.17 0 -874709 3443.42 0 -873223 3412.6 0 -871729 3381.68 0 -870229 3350.64 0 -868721 3319.45 0 -867206 3288.1 0 -865683 3256.55 0 -864152 3224.78 0 -862613 3192.75 0 -861066 3160.45 0 -859511 3127.84 0 -857947 3094.88 0 -856375 3061.56 0 -854795 3027.84 0 -853207 2993.68 0 -851609 2959.07 0 -850003 2923.96 0 -848389 2888.33 0 -846766 2852.15 0 -845135 2815.4 0 -843495 2778.03 0 -841846 2740.04 0 -840189 2701.39 0 -838524 2662.06 0 -836850 2622.02 0 -835168 2581.27 0 -833479 2539.78 0 -1.008e+06 9166.8 0 -1.00676e+06 9121.18 0 -1.00551e+06 9075.48 0 -1.00426e+06 9029.7 0 -1.00301e+06 8983.85 0 -1.00176e+06 8937.92 0 -1.00051e+06 8891.92 0 -999258 8845.84 0 -998005 8799.69 0 -996751 8753.47 0 -995497 8707.18 0 -994241 8660.82 0 -992984 8614.39 0 -991727 8567.89 0 -990468 8521.33 0 -989208 8474.71 0 -987948 8428.02 0 -986686 8381.28 0 -985424 8334.47 0 -984160 8287.61 0 -982896 8240.7 0 -981631 8193.74 0 -980364 8146.72 0 -979097 8099.66 0 -977829 8052.55 0 -976559 8005.41 0 -975289 7958.22 0 -974017 7910.99 0 -972745 7863.74 0 -971471 7816.45 0 -970197 7769.13 0 -968921 7721.79 0 -967645 7674.43 0 -966367 7627.05 0 -965088 7579.66 0 -963808 7532.26 0 -962527 7484.85 0 -961245 7437.43 0 -959962 7390.02 0 -958677 7342.61 0 -957391 7295.21 0 -956104 7247.83 0 -954816 7200.46 0 -953527 7153.12 0 -952236 7105.8 0 -950944 7058.51 0 -949651 7011.26 0 -948356 6964.04 0 -947060 6916.88 0 -945763 6869.76 0 -944464 6822.7 0 -943164 6775.7 0 -941862 6728.77 0 -940558 6681.91 0 -939253 6635.12 0 -937947 6588.42 0 -936638 6541.8 0 -935328 6495.28 0 -934016 6448.85 0 -932703 6402.53 0 -931387 6356.32 0 -930069 6310.23 0 -928750 6264.25 0 -927428 6218.4 0 -926104 6172.68 0 -924778 6127.1 0 -923450 6081.66 0 -922120 6036.37 0 -920787 5991.23 0 -919451 5946.24 0 -918113 5901.41 0 -916772 5856.75 0 -915429 5812.26 0 -914082 5767.94 0 -912733 5723.79 0 -911380 5679.82 0 -910025 5636.04 0 -908666 5592.43 0 -907304 5549.01 0 -905938 5505.77 0 -904568 5462.71 0 -903195 5419.84 0 -901818 5377.15 0 -900437 5334.64 0 -899052 5292.3 0 -897663 5250.14 0 -896269 5208.14 0 -894870 5166.31 0 -893467 5124.62 0 -892059 5083.08 0 -890646 5041.68 0 -889227 5000.4 0 -887804 4959.23 0 -886375 4918.15 0 -884940 4877.16 0 -883499 4836.24 0 -882052 4795.36 0 -880600 4754.5 0 -879140 4713.65 0 -877675 4672.78 0 -876202 4631.87 0 -874723 4590.89 0 -873237 4549.81 0 -871744 4508.6 0 -870243 4467.24 0 -868735 4425.68 0 -867220 4383.9 0 -865696 4341.85 0 -864165 4299.51 0 -862626 4256.83 0 -861079 4213.78 0 -859524 4170.32 0 -857960 4126.4 0 -856388 4081.99 0 -854807 4037.05 0 -853218 3991.53 0 -851621 3945.39 0 -850015 3898.6 0 -848400 3851.11 0 -846776 3802.89 0 -845144 3753.9 0 -843504 3704.09 0 -841855 3653.44 0 -840198 3601.92 0 -838532 3549.49 0 -836858 3496.12 0 -835176 3441.79 0 -833485 3386.47 0 -1.00802e+06 11458.5 0 -1.00677e+06 11401.5 0 -1.00552e+06 11344.3 0 -1.00427e+06 11287.1 0 -1.00302e+06 11229.8 0 -1.00177e+06 11172.4 0 -1.00052e+06 11114.9 0 -999271 11057.3 0 -998018 10999.6 0 -996764 10941.8 0 -995510 10883.9 0 -994254 10825.9 0 -992997 10767.9 0 -991739 10709.8 0 -990480 10651.6 0 -989221 10593.3 0 -987960 10534.9 0 -986698 10476.5 0 -985436 10418 0 -984172 10359.4 0 -982908 10300.7 0 -981642 10242 0 -980376 10183.2 0 -979108 10124.4 0 -977840 10065.5 0 -976570 10006.5 0 -975300 9947.54 0 -974029 9888.5 0 -972756 9829.41 0 -971483 9770.29 0 -970208 9711.13 0 -968932 9651.94 0 -967656 9592.73 0 -966378 9533.49 0 -965099 9474.23 0 -963819 9414.97 0 -962538 9355.69 0 -961256 9296.4 0 -959973 9237.12 0 -958688 9177.85 0 -957402 9118.58 0 -956115 9059.34 0 -954827 9000.11 0 -953538 8940.91 0 -952247 8881.75 0 -950956 8822.62 0 -949662 8763.54 0 -948368 8704.5 0 -947072 8645.53 0 -945774 8586.62 0 -944476 8527.78 0 -943175 8469.01 0 -941874 8410.33 0 -940570 8351.73 0 -939265 8293.23 0 -937959 8234.84 0 -936650 8176.55 0 -935340 8118.38 0 -934029 8060.34 0 -932715 8002.42 0 -931400 7944.64 0 -930082 7887.01 0 -928763 7829.52 0 -927441 7772.2 0 -926118 7715.04 0 -924792 7658.05 0 -923464 7601.23 0 -922134 7544.6 0 -920801 7488.17 0 -919465 7431.92 0 -918128 7375.88 0 -916787 7320.05 0 -915444 7264.42 0 -914097 7209.01 0 -912748 7153.83 0 -911396 7098.86 0 -910041 7044.12 0 -908682 6989.61 0 -907320 6935.33 0 -905954 6881.28 0 -904585 6827.47 0 -903212 6773.88 0 -901835 6720.52 0 -900454 6667.39 0 -899069 6614.47 0 -897680 6561.78 0 -896286 6509.29 0 -894888 6457.01 0 -893485 6404.92 0 -892077 6353.01 0 -890664 6301.27 0 -889246 6249.68 0 -887822 6198.24 0 -886393 6146.92 0 -884959 6095.7 0 -883518 6044.57 0 -882071 5993.5 0 -880618 5942.45 0 -879159 5891.42 0 -877694 5840.37 0 -876221 5789.26 0 -874742 5738.06 0 -873256 5686.74 0 -871762 5635.27 0 -870262 5583.59 0 -868754 5531.68 0 -867238 5479.49 0 -865714 5426.97 0 -864183 5374.08 0 -862643 5320.77 0 -861096 5266.99 0 -859540 5212.69 0 -857976 5157.83 0 -856404 5102.35 0 -854823 5046.2 0 -853233 4989.33 0 -851635 4931.69 0 -850029 4873.23 0 -848413 4813.9 0 -846790 4753.64 0 -845157 4692.42 0 -843516 4630.19 0 -841867 4566.9 0 -840209 4502.51 0 -838542 4436.98 0 -836868 4370.29 0 -835185 4302.39 0 -833494 4233.25 0 -1.00803e+06 13750.2 0 -1.00679e+06 13681.7 0 -1.00554e+06 13613.2 0 -1.00429e+06 13544.5 0 -1.00304e+06 13475.7 0 -1.00179e+06 13406.8 0 -1.00054e+06 13337.8 0 -999288 13268.6 0 -998035 13199.4 0 -996780 13130.1 0 -995525 13060.6 0 -994269 12991 0 -993012 12921.4 0 -991754 12851.6 0 -990496 12781.7 0 -989236 12711.8 0 -987975 12641.7 0 -986713 12571.6 0 -985451 12501.4 0 -984187 12431 0 -982922 12360.6 0 -981657 12290.2 0 -980390 12219.6 0 -979122 12149 0 -977854 12078.3 0 -976584 12007.5 0 -975314 11936.7 0 -974042 11865.8 0 -972770 11794.9 0 -971496 11724 0 -970221 11652.9 0 -968946 11581.9 0 -967669 11510.8 0 -966391 11439.7 0 -965112 11368.6 0 -963832 11297.4 0 -962551 11226.3 0 -961269 11155.1 0 -959986 11084 0 -958701 11012.8 0 -957416 10941.7 0 -956129 10870.5 0 -954841 10799.5 0 -953552 10728.4 0 -952261 10657.4 0 -950969 10586.4 0 -949676 10515.5 0 -948381 10444.6 0 -947086 10373.8 0 -945788 10303.1 0 -944490 10232.5 0 -943189 10161.9 0 -941888 10091.5 0 -940585 10021.1 0 -939280 9950.91 0 -937973 9880.81 0 -936665 9810.84 0 -935355 9741.01 0 -934044 9671.34 0 -932730 9601.81 0 -931415 9532.46 0 -930098 9463.27 0 -928779 9394.27 0 -927458 9325.46 0 -926134 9256.85 0 -924809 9188.44 0 -923481 9120.25 0 -922151 9052.27 0 -920818 8984.53 0 -919483 8917.02 0 -918145 8849.76 0 -916805 8782.74 0 -915462 8715.98 0 -914116 8649.48 0 -912767 8583.25 0 -911415 8517.29 0 -910060 8451.59 0 -908702 8386.18 0 -907340 8321.04 0 -905974 8256.18 0 -904605 8191.6 0 -903233 8127.3 0 -901856 8063.28 0 -900476 7999.52 0 -899091 7936.04 0 -897702 7872.82 0 -896308 7809.85 0 -894910 7747.12 0 -893507 7684.63 0 -892099 7622.36 0 -890687 7560.3 0 -889269 7498.43 0 -887845 7436.72 0 -886416 7375.17 0 -884981 7313.74 0 -883541 7252.42 0 -882094 7191.17 0 -880642 7129.96 0 -879182 7068.76 0 -877717 7007.54 0 -876244 6946.25 0 -874765 6884.86 0 -873279 6823.33 0 -871785 6761.61 0 -870284 6699.65 0 -868776 6637.41 0 -867260 6574.83 0 -865736 6511.85 0 -864204 6448.44 0 -862665 6384.51 0 -861117 6320.03 0 -859561 6254.93 0 -857996 6189.14 0 -856423 6122.62 0 -854842 6055.28 0 -853252 5987.08 0 -851653 5917.96 0 -850046 5847.85 0 -848430 5776.68 0 -846806 5704.42 0 -845173 5630.98 0 -843531 5556.33 0 -841881 5480.41 0 -840222 5403.17 0 -838555 5324.56 0 -836880 5244.55 0 -835196 5163.08 0 -833505 5080.14 0 -1.00805e+06 16041.8 0 -1.00681e+06 15962 0 -1.00556e+06 15882 0 -1.00431e+06 15801.8 0 -1.00306e+06 15721.6 0 -1.00181e+06 15641.2 0 -1.00056e+06 15560.7 0 -999307 15480 0 -998054 15399.2 0 -996799 15318.3 0 -995544 15237.2 0 -994288 15156.1 0 -993031 15074.8 0 -991773 14993.4 0 -990513 14911.8 0 -989253 14830.2 0 -987993 14748.5 0 -986731 14666.6 0 -985468 14584.6 0 -984204 14502.6 0 -982939 14420.4 0 -981673 14338.2 0 -980407 14255.9 0 -979139 14173.4 0 -977870 14090.9 0 -976601 14008.4 0 -975330 13925.7 0 -974058 13843 0 -972786 13760.2 0 -971512 13677.4 0 -970237 13594.5 0 -968962 13511.6 0 -967685 13428.7 0 -966407 13345.7 0 -965128 13262.7 0 -963848 13179.6 0 -962567 13096.6 0 -961285 13013.5 0 -960002 12930.5 0 -958717 12847.4 0 -957431 12764.4 0 -956145 12681.4 0 -954857 12598.4 0 -953567 12515.5 0 -952277 12432.6 0 -950985 12349.8 0 -949692 12267 0 -948398 12184.3 0 -947102 12101.6 0 -945805 12019.1 0 -944506 11936.7 0 -943206 11854.3 0 -941905 11772.1 0 -940602 11690 0 -939297 11608.1 0 -937991 11526.2 0 -936683 11444.6 0 -935373 11363.1 0 -934062 11281.8 0 -932749 11200.6 0 -931433 11119.7 0 -930116 11038.9 0 -928798 10958.4 0 -927477 10878.1 0 -926153 10798 0 -924828 10718.2 0 -923501 10638.6 0 -922171 10559.3 0 -920838 10480.2 0 -919504 10401.4 0 -918166 10322.9 0 -916826 10244.7 0 -915483 10166.8 0 -914138 10089.2 0 -912789 10011.9 0 -911438 9934.97 0 -910083 9858.33 0 -908725 9782 0 -907363 9706 0 -905998 9630.34 0 -904629 9555 0 -903257 9479.98 0 -901881 9405.29 0 -900500 9330.93 0 -899116 9256.88 0 -897727 9183.13 0 -896334 9109.69 0 -894936 9036.53 0 -893533 8963.66 0 -892126 8891.04 0 -890713 8818.66 0 -889295 8746.52 0 -887872 8674.57 0 -886443 8602.8 0 -885009 8531.18 0 -883568 8459.69 0 -882122 8388.28 0 -880669 8316.92 0 -879210 8245.58 0 -877744 8174.21 0 -876271 8102.78 0 -874792 8031.22 0 -873306 7959.5 0 -871812 7887.56 0 -870311 7815.35 0 -868802 7742.8 0 -867286 7669.86 0 -865762 7596.46 0 -864230 7522.54 0 -862690 7448.04 0 -861141 7372.88 0 -859585 7296.99 0 -858020 7220.31 0 -856446 7142.76 0 -854864 7064.27 0 -853274 6984.77 0 -851674 6904.18 0 -850067 6822.44 0 -848450 6739.47 0 -846825 6655.21 0 -845191 6569.59 0 -843549 6482.54 0 -841898 6394 0 -840238 6303.92 0 -838570 6212.25 0 -836894 6118.92 0 -835210 6023.9 0 -833518 5927.15 0 -1.00808e+06 18333.5 0 -1.00683e+06 18242.2 0 -1.00558e+06 18150.8 0 -1.00433e+06 18059.2 0 -1.00308e+06 17967.5 0 -1.00183e+06 17875.6 0 -1.00058e+06 17783.5 0 -999329 17691.3 0 -998076 17599 0 -996821 17506.5 0 -995566 17413.8 0 -994309 17321.1 0 -993052 17228.1 0 -991793 17135.1 0 -990534 17041.9 0 -989274 16948.5 0 -988013 16855.1 0 -986751 16761.5 0 -985488 16667.8 0 -984224 16574 0 -982959 16480.1 0 -981693 16386.1 0 -980426 16291.9 0 -979158 16197.7 0 -977889 16103.4 0 -976619 16009 0 -975349 15914.5 0 -974077 15820 0 -972804 15725.3 0 -971530 15630.6 0 -970256 15535.9 0 -968980 15441.1 0 -967703 15346.2 0 -966425 15251.4 0 -965146 15156.4 0 -963866 15061.5 0 -962585 14966.6 0 -961303 14871.6 0 -960020 14776.6 0 -958735 14681.7 0 -957450 14586.8 0 -956163 14491.9 0 -954875 14397 0 -953586 14302.1 0 -952295 14207.4 0 -951003 14112.6 0 -949710 14018 0 -948416 13923.4 0 -947121 13829 0 -945824 13734.6 0 -944525 13640.3 0 -943225 13546.2 0 -941924 13452.2 0 -940621 13358.3 0 -939316 13264.6 0 -938010 13171 0 -936703 13077.7 0 -935393 12984.5 0 -934082 12891.5 0 -932769 12798.7 0 -931454 12706.2 0 -930138 12613.9 0 -928819 12521.8 0 -927498 12430 0 -926175 12338.4 0 -924850 12247.1 0 -923523 12156.2 0 -922194 12065.5 0 -920862 11975.1 0 -919527 11885 0 -918190 11795.3 0 -916851 11705.9 0 -915508 11616.8 0 -914163 11528.1 0 -912815 11439.8 0 -911463 11351.8 0 -910109 11264.2 0 -908751 11177 0 -907390 11090.1 0 -906025 11003.6 0 -904657 10917.5 0 -903285 10831.8 0 -901909 10746.5 0 -900529 10661.5 0 -899145 10576.9 0 -897756 10492.6 0 -896363 10408.7 0 -894966 10325.1 0 -893563 10241.9 0 -892156 10158.9 0 -890744 10076.2 0 -889326 9993.84 0 -887903 9911.67 0 -886474 9829.7 0 -885040 9747.91 0 -883600 9666.27 0 -882153 9584.73 0 -880700 9503.25 0 -879241 9421.79 0 -877775 9340.31 0 -876303 9258.75 0 -874823 9177.06 0 -873337 9095.18 0 -871843 9013.05 0 -870341 8930.61 0 -868833 8847.79 0 -867316 8764.53 0 -865791 8680.74 0 -864259 8596.36 0 -862718 8511.3 0 -861170 8425.5 0 -859612 8338.86 0 -858047 8251.32 0 -856473 8162.78 0 -854890 8073.16 0 -853299 7982.38 0 -851699 7890.36 0 -850090 7797.02 0 -848473 7702.26 0 -846847 7606.03 0 -845212 7508.24 0 -843569 7408.81 0 -841917 7307.68 0 -840257 7204.78 0 -838588 7100.04 0 -836911 6993.42 0 -835226 6884.86 0 -833533 6774.32 0 -1.00811e+06 20625.1 0 -1.00686e+06 20522.4 0 -1.00561e+06 20419.6 0 -1.00436e+06 20316.5 0 -1.00311e+06 20213.3 0 -1.00186e+06 20109.9 0 -1.00061e+06 20006.4 0 -999355 19902.6 0 -998101 19798.7 0 -996846 19694.6 0 -995590 19590.4 0 -994333 19486 0 -993076 19381.4 0 -991817 19276.7 0 -990557 19171.8 0 -989297 19066.8 0 -988036 18961.6 0 -986773 18856.3 0 -985510 18750.9 0 -984246 18645.3 0 -982981 18539.6 0 -981715 18433.8 0 -980448 18327.9 0 -979180 18221.8 0 -977911 18115.7 0 -976641 18009.4 0 -975370 17903.1 0 -974098 17796.7 0 -972825 17690.2 0 -971551 17583.6 0 -970276 17477 0 -969000 17370.3 0 -967724 17263.5 0 -966446 17156.7 0 -965167 17049.9 0 -963887 16943 0 -962605 16836.2 0 -961323 16729.3 0 -960040 16622.4 0 -958755 16515.5 0 -957470 16408.7 0 -956183 16301.8 0 -954895 16195.1 0 -953606 16088.3 0 -952316 15981.6 0 -951024 15875 0 -949731 15768.5 0 -948437 15662 0 -947142 15555.7 0 -945845 15449.5 0 -944546 15343.4 0 -943247 15237.4 0 -941946 15131.6 0 -940643 15025.9 0 -939339 14920.4 0 -938033 14815.1 0 -936725 14710 0 -935416 14605.2 0 -934105 14500.5 0 -932793 14396.1 0 -931478 14291.9 0 -930162 14188 0 -928843 14084.4 0 -927523 13981 0 -926200 13878 0 -924876 13775.2 0 -923549 13672.8 0 -922220 13570.8 0 -920888 13469 0 -919554 13367.7 0 -918217 13266.7 0 -916878 13166.1 0 -915536 13065.9 0 -914191 12966.1 0 -912843 12866.7 0 -911492 12767.7 0 -910138 12669.1 0 -908781 12570.9 0 -907420 12473.2 0 -906056 12375.9 0 -904688 12279.1 0 -903317 12182.6 0 -901941 12086.6 0 -900561 11991 0 -899178 11895.9 0 -897790 11801.1 0 -896397 11706.8 0 -895000 11612.8 0 -893598 11519.2 0 -892191 11425.9 0 -890778 11332.9 0 -889361 11240.3 0 -887938 11147.9 0 -886510 11055.8 0 -885075 10963.8 0 -883635 10872.1 0 -882189 10780.4 0 -880736 10688.8 0 -879277 10597.3 0 -877811 10505.7 0 -876338 10414.1 0 -874859 10322.3 0 -873372 10230.3 0 -871878 10138 0 -870376 10045.4 0 -868867 9952.33 0 -867350 9858.78 0 -865825 9764.64 0 -864292 9669.83 0 -862751 9574.26 0 -861202 9477.85 0 -859644 9380.51 0 -858078 9282.13 0 -856503 9182.64 0 -854920 9081.92 0 -853328 8979.9 0 -851727 8876.48 0 -850117 8771.56 0 -848499 8665.06 0 -846872 8556.88 0 -845236 8446.94 0 -843592 8335.16 0 -841939 8221.45 0 -840278 8105.75 0 -838608 7987.97 0 -836930 7868.07 0 -835243 7745.98 0 -833549 7621.65 0 -1.00814e+06 22916.8 0 -1.00689e+06 22802.7 0 -1.00564e+06 22688.4 0 -1.00439e+06 22573.9 0 -1.00314e+06 22459.2 0 -1.00189e+06 22344.3 0 -1.00064e+06 22229.2 0 -999383 22113.9 0 -998128 21998.4 0 -996873 21882.7 0 -995617 21766.9 0 -994360 21650.9 0 -993102 21534.6 0 -991843 21418.2 0 -990583 21301.7 0 -989323 21185 0 -988061 21068.1 0 -986799 20951 0 -985535 20833.8 0 -984271 20716.5 0 -983005 20599 0 -981739 20481.4 0 -980472 20363.6 0 -979204 20245.7 0 -977934 20127.7 0 -976664 20009.6 0 -975393 19891.4 0 -974121 19773.1 0 -972848 19654.7 0 -971574 19536.3 0 -970299 19417.7 0 -969023 19299.1 0 -967746 19180.4 0 -966468 19061.7 0 -965189 18942.9 0 -963909 18824.2 0 -962628 18705.3 0 -961346 18586.5 0 -960062 18467.7 0 -958778 18348.9 0 -957493 18230.1 0 -956206 18111.3 0 -954918 17992.6 0 -953629 17873.9 0 -952339 17755.3 0 -951047 17636.8 0 -949754 17518.3 0 -948460 17400 0 -947165 17281.8 0 -945868 17163.7 0 -944570 17045.7 0 -943271 16927.9 0 -941970 16810.2 0 -940667 16692.8 0 -939363 16575.5 0 -938058 16458.4 0 -936750 16341.6 0 -935442 16225 0 -934131 16108.6 0 -932819 15992.5 0 -931504 15876.7 0 -930188 15761.2 0 -928870 15646 0 -927550 15531.1 0 -926228 15416.5 0 -924904 15302.3 0 -923577 15188.5 0 -922249 15075 0 -920917 14962 0 -919584 14849.3 0 -918248 14737.1 0 -916909 14625.2 0 -915567 14513.9 0 -914223 14402.9 0 -912875 14292.4 0 -911525 14182.4 0 -910171 14072.9 0 -908815 13963.8 0 -907454 13855.2 0 -906091 13747.1 0 -904723 13639.5 0 -903352 13532.3 0 -901977 13425.7 0 -900598 13319.5 0 -899214 13213.8 0 -897826 13108.5 0 -896434 13003.7 0 -895037 12899.4 0 -893636 12795.4 0 -892229 12691.8 0 -890817 12588.6 0 -889400 12485.7 0 -887977 12383.2 0 -886549 12280.9 0 -885115 12178.8 0 -883675 12077 0 -882229 11975.3 0 -880776 11873.6 0 -879317 11772 0 -877851 11670.4 0 -876378 11568.7 0 -874898 11466.9 0 -873412 11364.8 0 -871917 11262.4 0 -870415 11159.6 0 -868906 11056.4 0 -867388 10952.6 0 -865863 10848.1 0 -864330 10742.9 0 -862788 10636.9 0 -861238 10529.9 0 -859679 10421.9 0 -858112 10312.7 0 -856537 10202.3 0 -854953 10090.5 0 -853360 9977.32 0 -851758 9862.53 0 -850147 9746.08 0 -848528 9627.85 0 -846900 9507.76 0 -845263 9385.7 0 -843618 9261.59 0 -841964 9135.33 0 -840301 9006.85 0 -838630 8876.06 0 -836951 8742.89 0 -835263 8607.28 0 -833568 8469.18 0 -1.00817e+06 25208.5 0 -1.00692e+06 25083 0 -1.00567e+06 24957.2 0 -1.00442e+06 24831.3 0 -1.00317e+06 24705.1 0 -1.00192e+06 24578.6 0 -1.00067e+06 24452 0 -999414 24325.2 0 -998159 24198.1 0 -996903 24070.8 0 -995647 23943.4 0 -994390 23815.7 0 -993131 23687.8 0 -991872 23559.7 0 -990612 23431.5 0 -989351 23303 0 -988089 23174.4 0 -986826 23045.6 0 -985563 22916.6 0 -984298 22787.5 0 -983032 22658.2 0 -981766 22528.7 0 -980498 22399.1 0 -979230 22269.4 0 -977961 22139.6 0 -976690 22009.6 0 -975419 21879.5 0 -974147 21749.3 0 -972874 21619 0 -971600 21488.6 0 -970325 21358.1 0 -969048 21227.6 0 -967771 21097 0 -966493 20966.3 0 -965214 20835.6 0 -963934 20704.9 0 -962653 20574.1 0 -961371 20443.3 0 -960087 20312.5 0 -958803 20181.7 0 -957517 20051 0 -956231 19920.3 0 -954943 19789.6 0 -953654 19659 0 -952364 19528.4 0 -951072 19397.9 0 -949780 19267.6 0 -948486 19137.3 0 -947191 19007.1 0 -945894 18877.1 0 -944596 18747.3 0 -943297 18617.6 0 -941996 18488.1 0 -940694 18358.8 0 -939390 18229.7 0 -938085 18100.9 0 -936778 17972.3 0 -935469 17843.9 0 -934159 17715.8 0 -932847 17588 0 -931533 17460.6 0 -930218 17333.4 0 -928900 17206.6 0 -927580 17080.2 0 -926259 16954.1 0 -924935 16828.4 0 -923609 16703.1 0 -922280 16578.2 0 -920950 16453.8 0 -919616 16329.8 0 -918281 16206.3 0 -916942 16083.2 0 -915601 15960.6 0 -914257 15838.6 0 -912911 15717 0 -911561 15596 0 -910208 15475.4 0 -908851 15355.4 0 -907492 15236 0 -906128 15117.1 0 -904761 14998.7 0 -903391 14880.8 0 -902016 14763.5 0 -900637 14646.7 0 -899254 14530.5 0 -897867 14414.8 0 -896475 14299.5 0 -895079 14184.8 0 -893678 14070.5 0 -892271 13956.6 0 -890860 13843.1 0 -889443 13730.1 0 -888021 13617.4 0 -886593 13505 0 -885159 13392.8 0 -883719 13280.9 0 -882273 13169.1 0 -880820 13057.5 0 -879361 12945.9 0 -877895 12834.2 0 -876422 12722.5 0 -874942 12610.7 0 -873455 12498.5 0 -871961 12386.1 0 -870458 12273.2 0 -868948 12159.8 0 -867431 12045.8 0 -865905 11931.1 0 -864371 11815.6 0 -862828 11699.1 0 -861278 11581.6 0 -859719 11463 0 -858151 11343.1 0 -856574 11221.8 0 -854989 11099 0 -853395 10974.6 0 -851792 10848.5 0 -850181 10720.6 0 -848560 10590.6 0 -846931 10458.7 0 -845293 10324.5 0 -843646 10188.1 0 -841991 10049.3 0 -840327 9908.09 0 -838655 9764.3 0 -836974 9617.89 0 -835286 9468.78 0 -833589 9316.92 0 -1.00821e+06 27500.2 0 -1.00696e+06 27363.3 0 -1.00571e+06 27226.1 0 -1.00446e+06 27088.6 0 -1.00321e+06 26950.9 0 -1.00195e+06 26813 0 -1.0007e+06 26674.8 0 -999447 26536.4 0 -998192 26397.8 0 -996937 26258.9 0 -995680 26119.8 0 -994422 25980.4 0 -993163 25840.9 0 -991904 25701.1 0 -990643 25561.1 0 -989382 25421 0 -988120 25280.6 0 -986857 25140 0 -985593 24999.3 0 -984328 24858.3 0 -983062 24717.2 0 -981795 24575.9 0 -980527 24434.5 0 -979259 24292.9 0 -977989 24151.2 0 -976719 24009.3 0 -975447 23867.3 0 -974175 23725.2 0 -972902 23583 0 -971627 23440.6 0 -970352 23298.2 0 -969076 23155.7 0 -967799 23013.1 0 -966520 22870.5 0 -965241 22727.8 0 -963961 22585.1 0 -962680 22442.3 0 -961398 22299.6 0 -960114 22156.8 0 -958830 22014 0 -957544 21871.3 0 -956258 21728.6 0 -954970 21585.9 0 -953681 21443.3 0 -952391 21300.8 0 -951100 21158.4 0 -949807 21016 0 -948513 20873.8 0 -947218 20731.8 0 -945922 20589.8 0 -944624 20448.1 0 -943325 20306.5 0 -942025 20165.1 0 -940723 20024 0 -939419 19883 0 -938114 19742.4 0 -936808 19601.9 0 -935500 19461.8 0 -934190 19322 0 -932878 19182.5 0 -931565 19043.3 0 -930249 18904.5 0 -928932 18766.1 0 -927613 18628.1 0 -926292 18490.4 0 -924968 18353.2 0 -923643 18216.5 0 -922315 18080.2 0 -920985 17944.3 0 -919652 17809 0 -918317 17674.2 0 -916979 17539.9 0 -915639 17406.1 0 -914295 17272.9 0 -912949 17140.2 0 -911600 17008.2 0 -910247 16876.6 0 -908891 16745.7 0 -907532 16615.4 0 -906170 16485.6 0 -904803 16356.5 0 -903433 16228 0 -902059 16100 0 -900681 15972.6 0 -899298 15845.8 0 -897912 15719.6 0 -896520 15594 0 -895124 15468.8 0 -893724 15344.2 0 -892318 15220.1 0 -890907 15096.4 0 -889490 14973.2 0 -888068 14850.4 0 -886640 14727.9 0 -885207 14605.7 0 -883767 14483.7 0 -882321 14361.9 0 -880868 14240.3 0 -879409 14118.7 0 -877943 13997.1 0 -876471 13875.5 0 -874990 13753.6 0 -873503 13631.5 0 -872008 13509 0 -870506 13386.1 0 -868995 13262.6 0 -867477 13138.5 0 -865951 13013.5 0 -864416 12887.7 0 -862873 12760.9 0 -861322 12633 0 -859762 12503.7 0 -858193 12373.1 0 -856615 12241 0 -855029 12107.3 0 -853434 11971.8 0 -851830 11834.4 0 -850217 11695 0 -848596 11553.4 0 -846965 11409.6 0 -845326 11263.4 0 -843678 11114.7 0 -842021 10963.5 0 -840356 10809.5 0 -838682 10652.7 0 -837000 10493.1 0 -835310 10330.5 0 -833612 10164.9 0 -1.00825e+06 29792 0 -1.007e+06 29643.6 0 -1.00575e+06 29495 0 -1.0045e+06 29346.1 0 -1.00325e+06 29196.9 0 -1.00199e+06 29047.4 0 -1.00074e+06 28897.7 0 -999484 28747.7 0 -998229 28597.4 0 -996972 28446.9 0 -995715 28296.2 0 -994457 28145.2 0 -993198 27993.9 0 -991938 27842.5 0 -990677 27690.8 0 -989416 27538.8 0 -988153 27386.7 0 -986890 27234.3 0 -985625 27081.8 0 -984360 