<?xml version="1.0"?> 
<VTKFile type="StructuredGrid" version="0.1"> 
<StructuredGrid WholeExtent="0 127 0 127 0 0"> 
<Piece Extent="0 127 0 127 0 0"> 
<PointData>
<DataArray type="Float32" Name="E" format="ascii" NumberOfComponents="3"> 
-532659 40379.2 0 -532387 32526.8 0 -531147 29478.9 0 -529637 27827.9 0 -528044 26958.4 0 -526468 26460.6 0 -524948 26187.4 0 -523502 26042.2 0 -522138 25975.9 0 -520856 25957.5 0 -519652 25968.7 0 -518523 25998 0 -517462 26038.2 0 -516464 26084.8 0 -515524 26134.9 0 -514637 26186.7 0 -513797 26239.2 0 -513001 26291.6 0 -512245 26343.7 0 -511524 26395.2 0 -510836 26445.9 0 -510178 26496 0 -509547 26545.5 0 -508941 26594.3 0 -508357 26642.6 0 -507793 26690.4 0 -507248 26737.7 0 -506721 26784.7 0 -506209 26831.4 0 -505712 26877.8 0 -505228 26923.9 0 -504757 26969.9 0 -504296 27015.7 0 -503846 27061.3 0 -503406 27106.8 0 -502974 27152.2 0 -502551 27197.4 0 -502136 27242.6 0 -501727 27287.7 0 -501325 27332.8 0 -500928 27377.7 0 -500538 27422.6 0 -500152 27467.4 0 -499771 27512.2 0 -499395 27556.9 0 -499022 27601.6 0 -498654 27646.1 0 -498288 27690.7 0 -497926 27735.1 0 -497567 27779.5 0 -497210 27823.8 0 -496855 27868 0 -496503 27912.2 0 -496152 27956.3 0 -495803 28000.3 0 -495456 28044.2 0 -495110 28088.1 0 -494764 28131.9 0 -494420 28175.6 0 -494077 28219.2 0 -493733 28262.7 0 -493391 28306.1 0 -493048 28349.4 0 -492705 28392.6 0 -492362 28435.8 0 -492019 28478.8 0 -491675 28521.7 0 -491331 28564.5 0 -490985 28607.2 0 -490639 28649.8 0 -490291 28692.3 0 -489942 28734.6 0 -489591 28776.9 0 -489239 28819 0 -488884 28861 0 -488528 28902.8 0 -488169 28944.5 0 -487807 28986.1 0 -487443 29027.5 0 -487075 29068.8 0 -486704 29109.9 0 -486330 29150.8 0 -485952 29191.6 0 -485570 29232.2 0 -485184 29272.6 0 -484793 29312.8 0 -484397 29352.8 0 -483996 29392.6 0 -483589 29432.2 0 -483176 29471.5 0 -482756 29510.5 0 -482330 29549.2 0 -481896 29587.6 0 -481454 29625.7 0 -481003 29663.4 0 -480543 29700.6 0 -480074 29737.4 0 -479594 29773.7 0 -479102 29809.5 0 -478598 29844.6 0 -478081 29878.9 0 -477550 29912.5 0 -477003 29945.3 0 -476439 29977 0 -475857 30007.6 0 -475256 30036.9 0 -474632 30064.8 0 -473986 30091.3 0 -473313 30116 0 -472613 30138.9 0 -471882 30159.9 0 -471118 30178.9 0 -470316 30196.1 0 -469474 30211.6 0 -468588 30226.2 0 -467652 30240.8 0 -466664 30257.4 0 -465616 30279.3 0 -464505 30311.8 0 -463324 30363.6 0 -462070 30449.1 0 -460737 30593.1 0 -459325 30835.5 0 -457836 31256.3 0 -456281 31976.3 0 -454686 33348.5 0 -453123 35892.2 0 -451706 42669.1 0 -511102 44320.5 0 -511210 44615.7 0 -511428 44269.4 0 -511631 43769 0 -511791 43203.5 0 -511895 42630.6 0 -511943 42069.6 0 -511938 41532.1 0 -511884 41022.7 0 -511787 40543.3 0 -511651 40094.1 0 -511482 39674.3 0 -511284 39282.8 0 -511061 38918.2 0 -510817 38578.7 0 -510554 38263.1 0 -510277 37969.6 0 -509987 37696.9 0 -509686 37443.5 0 -509376 37208.3 0 -509059 36989.9 0 -508737 36787.4 0 -508410 36599.5 0 -508079 36425.5 0 -507745 36264.3 0 -507410 36115.3 0 -507073 35977.5 0 -506735 35850.4 0 -506397 35733.2 0 -506059 35625.5 0 -505721 35526.5 0 -505383 35435.9 0 -505047 35353.1 0 -504711 35277.7 0 -504377 35209.3 0 -504043 35147.5 0 -503711 35092 0 -503380 35042.4 0 -503050 34998.5 0 -502722 34959.9 0 -502395 34926.5 0 -502069 34897.9 0 -501745 34873.9 0 -501422 34854.4 0 -501100 34839.2 0 -500779 34828 0 -500459 34820.7 0 -500141 34817.2 0 -499823 34817.3 0 -499507 34820.9 0 -499191 34827.8 0 -498876 34838 0 -498562 34851.4 0 -498248 34867.8 0 -497935 34887.2 0 -497623 34909.5 0 -497311 34934.6 0 -496999 34962.5 0 -496688 34993.2 0 -496377 35026.5 0 -496066 35062.4 0 -495755 35100.9 0 -495444 35141.9 0 -495133 35185.5 0 -494822 35231.6 0 -494511 35280.2 0 -494199 35331.3 0 -493887 35384.9 0 -493575 35441 0 -493262 35499.6 0 -492948 35560.8 0 -492634 35624.5 0 -492318 35690.7 0 -492002 35759.6 0 -491686 35831.1 0 -491368 35905.3 0 -491049 35982.2 0 -490729 36061.9 0 -490408 36144.5 0 -490085 36230.1 0 -489761 36318.7 0 -489436 36410.3 0 -489109 36505.3 0 -488781 36603.5 0 -488451 36705.2 0 -488119 36810.4 0 -487786 36919.3 0 -487451 37032.2 0 -487114 37149 0 -486776 37270 0 -486435 37395.5 0 -486093 37525.5 0 -485749 37660.4 0 -485403 37800.4 0 -485055 37945.8 0 -484705 38096.7 0 -484354 38253.7 0 -484000 38416.9 0 -483646 38586.8 0 -483289 38763.8 0 -482932 38948.3 0 -482573 39140.8 0 -482214 39341.8 0 -481854 39551.8 0 -481494 39771.5 0 -481134 40001.6 0 -480775 40242.8 0 -480418 40495.8 0 -480063 40761.5 0 -479711 41041 0 -479363 41335.1 0 -479021 41645.1 0 -478685 41972.1 0 -478357 42317.4 0 -478039 42682.4 0 -477734 43068.5 0 -477443 43477.3 0 -477169 43910.1 0 -476916 44368.4 0 -476686 44853.2 0 -476483 45364.9 0 -476311 45902.7 0 -476174 46463.8 0 -476074 47040 0 -476014 47617.2 0 -475991 48149.2 0 -475993 48565.4 0 -475983 48444.6 0 -509577 44661.4 0 -509479 44297.3 0 -509331 44141.9 0 -509178 44034.4 0 -509029 43946.9 0 -508889 43861.7 0 -508757 43773.6 0 -508632 43680 0 -508512 43580.6 0 -508396 43475.7 0 -508281 43365.9 0 -508166 43252.2 0 -508050 43135.6 0 -507932 43017 0 -507811 42897.2 0 -507686 42777.2 0 -507556 42657.6 0 -507422 42539.1 0 -507283 42422.1 0 -507139 42307.3 0 -506989 42194.9 0 -506835 42085.4 0 -506675 41979.1 0 -506511 41876.2 0 -506341 41776.9 0 -506167 41681.4 0 -505989 41589.9 0 -505806 41502.3 0 -505619 41418.9 0 -505427 41339.6 0 -505233 41264.5 0 -505034 41193.6 0 -504833 41126.9 0 -504628 41064.5 0 -504420 41006.3 0 -504209 40952.2 0 -503996 40902.3 0 -503780 40856.5 0 -503562 40814.8 0 -503342 40777 0 -503120 40743.3 0 -502896 40713.4 0 -502670 40687.5 0 -502442 40665.3 0 -502213 40646.9 0 -501983 40632.2 0 -501751 40621.2 0 -501518 40613.7 0 -501284 40609.8 0 -501048 40609.5 0 -500812 40612.5 0 -500574 40619 0 -500336 40628.8 0 -500097 40642 0 -499857 40658.4 0 -499616 40678.1 0 -499375 40701 0 -499133 40727 0 -498890 40756.2 0 -498647 40788.6 0 -498404 40824 0 -498159 40862.5 0 -497915 40904 0 -497670 40948.6 0 -497424 40996.2 0 -497178 41046.8 0 -496932 41100.5 0 -496685 41157.1 0 -496438 41216.7 0 -496191 41279.3 0 -495944 41344.9 0 -495696 41413.5 0 -495448 41485.2 0 -495200 41559.8 0 -494952 41637.5 0 -494704 41718.2 0 -494456 41802 0 -494208 41888.9 0 -493959 41978.9 0 -493711 42072.1 0 -493463 42168.4 0 -493215 42267.9 0 -492967 42370.7 0 -492719 42476.7 0 -492472 42586 0 -492225 42698.7 0 -491978 42814.8 0 -491732 42934.2 0 -491487 43057.2 0 -491242 43183.7 0 -490998 43313.7 0 -490754 43447.3 0 -490511 43584.6 0 -490270 43725.5 0 -490029 43870.2 0 -489790 44018.6 0 -489551 44170.9 0 -489315 44326.9 0 -489079 44486.8 0 -488846 44650.6 0 -488614 44818.2 0 -488383 44989.8 0 -488155 45165.2 0 -487929 45344.4 0 -487705 45527.4 0 -487484 45714.2 0 -487264 45904.6 0 -487048 46098.5 0 -486833 46295.9 0 -486622 46496.5 0 -486413 46700.1 0 -486206 46906.4 0 -486002 47115.2 0 -485800 47326.2 0 -485600 47538.8 0 -485401 47752.6 0 -485205 47967.2 0 -485008 48182 0 -484812 48396.3 0 -484616 48609.7 0 -484418 48821.8 0 -484217 49032.4 0 -484013 49242 0 -483806 49452.7 0 -483594 49668.5 0 -483379 49903.5 0 -483166 50179.7 0 -482971 50633.5 0 -508853 46121.3 0 -508815 46163.4 0 -508791 46121.1 0 -508764 46059.7 0 -508728 45990.8 0 -508682 45921.6 0 -508627 45854.3 0 -508563 45789.9 0 -508492 45728.8 0 -508414 45670.8 0 -508330 45615.8 0 -508240 45563.6 0 -508146 45513.8 0 -508048 45466.4 0 -507946 45421 0 -507840 45377.5 0 -507731 45335.7 0 -507619 45295.6 0 -507505 45257.1 0 -507387 45220.1 0 -507267 45184.6 0 -507145 45150.6 0 -507020 45118 0 -506893 45087 0 -506763 45057.4 0 -506631 45029.4 0 -506497 45002.9 0 -506360 44978 0 -506221 44954.8 0 -506081 44933.3 0 -505938 44913.5 0 -505792 44895.4 0 -505645 44879.2 0 -505496 44864.8 0 -505345 44852.3 0 -505192 44841.7 0 -505037 44833 0 -504880 44826.4 0 -504721 44821.7 0 -504561 44819.1 0 -504398 44818.6 0 -504235 44820.2 0 -504069 44823.9 0 -503902 44829.7 0 -503733 44837.7 0 -503563 44847.8 0 -503392 44860.2 0 -503219 44874.7 0 -503045 44891.4 0 -502870 44910.4 0 -502693 44931.5 0 -502515 44954.9 0 -502337 44980.6 0 -502157 45008.5 0 -501976 45038.6 0 -501794 45071 0 -501611 45105.6 0 -501428 45142.5 0 -501243 45181.6 0 -501058 45223 0 -500872 45266.6 0 -500686 45312.5 0 -500499 45360.7 0 -500311 45411.1 0 -500123 45463.8 0 -499934 45518.7 0 -499745 45575.9 0 -499555 45635.3 0 -499365 45697 0 -499175 45760.9 0 -498985 45827.1 0 -498794 45895.5 0 -498603 45966.1 0 -498412 46039.1 0 -498221 46114.2 0 -498029 46191.6 0 -497838 46271.3 0 -497647 46353.1 0 -497456 46437.3 0 -497265 46523.6 0 -497074 46612.2 0 -496883 46703 0 -496693 46796 0 -496503 46891.3 0 -496313 46988.8 0 -496124 47088.5 0 -495935 47190.3 0 -495746 47294.5 0 -495558 47400.7 0 -495371 47509.2 0 -495184 47619.9 0 -494998 47732.7 0 -494813 47847.8 0 -494628 47964.9 0 -494444 48084.2 0 -494261 48205.7 0 -494079 48329.2 0 -493898 48454.9 0 -493718 48582.6 0 -493539 48712.5 0 -493361 48844.4 0 -493185 48978.3 0 -493009 49114.3 0 -492835 49252.4 0 -492662 49392.4 0 -492491 49534.5 0 -492321 49678.6 0 -492153 49824.7 0 -491986 49972.8 0 -491821 50122.9 0 -491658 50275.2 0 -491497 50429.5 0 -491338 50585.9 0 -491182 50744.6 0 -491028 50905.5 0 -490877 51068.8 0 -490729 51234.6 0 -490584 51402.9 0 -490443 51574 0 -490306 51747.8 0 -490174 51924.5 0 -490047 52104 0 -489926 52286 0 -489811 52469.4 0 -489702 52652.8 0 -489599 52830.2 0 -489499 52992.8 0 -489397 53086.2 0 -510358 47320.6 0 -510285 47293.7 0 -510204 47301.1 0 -510121 47315.5 0 -510040 47332.4 0 -509959 47348.9 0 -509879 47364.3 0 -509800 47378.3 0 -509721 47391 0 -509641 47402.3 0 -509560 47412.7 0 -509479 47422.3 0 -509396 47431.2 0 -509312 47439.7 0 -509226 47448 0 -509139 47456.3 0 -509049 47464.5 0 -508958 47473 0 -508865 47481.7 0 -508770 47490.8 0 -508673 47500.3 0 -508574 47510.4 0 -508474 47521.1 0 -508371 47532.4 0 -508267 47544.4 0 -508161 47557.2 0 -508053 47570.7 0 -507943 47585.1 0 -507832 47600.3 0 -507719 47616.4 0 -507605 47633.5 0 -507489 47651.4 0 -507371 47670.4 0 -507252 47690.4 0 -507131 47711.4 0 -507009 47733.5 0 -506885 47756.7 0 -506761 47780.9 0 -506634 47806.3 0 -506507 47832.9 0 -506378 47860.6 0 -506248 47889.5 0 -506117 47919.6 0 -505984 47950.9 0 -505850 47983.4 0 -505716 48017.3 0 -505580 48052.3 0 -505443 48088.7 0 -505305 48126.4 0 -505166 48165.4 0 -505026 48205.7 0 -504886 48247.4 0 -504744 48290.4 0 -504602 48334.7 0 -504458 48380.5 0 -504314 48427.6 0 -504170 48476.1 0 -504024 48526 0 -503878 48577.3 0 -503731 48630.1 0 -503583 48684.2 0 -503435 48739.8 0 -503287 48796.8 0 -503137 48855.2 0 -502988 48915.1 0 -502838 48976.4 0 -502687 49039.1 0 -502536 49103.3 0 -502385 49169 0 -502233 49236.1 0 -502081 49304.6 0 -501929 49374.6 0 -501777 49446 0 -501624 49518.9 0 -501471 49593.2 0 -501319 49669 0 -501166 49746.2 0 -501013 49824.8 0 -500860 49904.9 0 -500707 49986.4 0 -500554 50069.3 0 -500401 50153.7 0 -500248 50239.4 0 -500095 50326.6 0 -499943 50415.1 0 -499790 50505.1 0 -499638 50596.4 0 -499487 50689.1 0 -499335 50783.1 0 -499184 50878.5 0 -499033 50975.3 0 -498883 51073.4 0 -498733 51172.7 0 -498584 51273.4 0 -498435 51375.4 0 -498287 51478.7 0 -498139 51583.2 0 -497992 51688.9 0 -497846 51795.9 0 -497700 51904.1 0 -497555 52013.4 0 -497411 52123.9 0 -497267 52235.5 0 -497125 52348.3 0 -496983 52462.1 0 -496842 52576.9 0 -496702 52692.7 0 -496563 52809.6 0 -496425 52927.3 0 -496288 53045.9 0 -496152 53165.3 0 -496016 53285.5 0 -495882 53406.3 0 -495749 53527.8 0 -495616 53649.8 0 -495485 53772.2 0 -495354 53894.9 0 -495224 54017.9 0 -495094 54141 0 -494965 54264 0 -494836 54386.9 0 -494708 54509.7 0 -494579 54632.4 0 -494450 54755.2 0 -494321 54878.8 0 -494191 55005.3 0 -494062 55138.4 0 -493937 55300 0 -512470 48686.3 0 -512406 48738.1 0 -512344 48775.5 0 -512279 48810 0 -512213 48843.5 0 -512144 48877.1 0 -512073 48911.2 0 -512000 48945.9 0 -511925 48981.2 0 -511848 49017.1 0 -511770 49053.5 0 -511690 49090.3 0 -511609 49127.6 0 -511526 49165.2 0 -511443 49203.1 0 -511358 49241.3 0 -511272 49279.7 0 -511185 49318.5 0 -511097 49357.5 0 -511008 49396.7 0 -510918 49436.2 0 -510827 49476.1 0 -510735 49516.2 0 -510641 49556.6 0 -510547 49597.3 0 -510452 49638.4 0 -510355 49679.9 0 -510258 49721.7 0 -510160 49763.9 0 -510060 49806.6 0 -509960 49849.7 0 -509858 49893.3 0 -509756 49937.4 0 -509652 49981.9 0 -509548 50027 0 -509443 50072.7 0 -509336 50118.9 0 -509229 50165.7 0 -509121 50213.1 0 -509012 50261.1 0 -508902 50309.7 0 -508791 50359 0 -508680 50409 0 -508567 50459.6 0 -508454 50510.9 0 -508340 50562.9 0 -508225 50615.6 0 -508109 50669.1 0 -507992 50723.3 0 -507875 50778.2 0 -507757 50834 0 -507639 50890.4 0 -507519 50947.7 0 -507400 51005.8 0 -507279 51064.6 0 -507158 51124.3 0 -507036 51184.8 0 -506914 51246.1 0 -506791 51308.2 0 -506667 51371.2 0 -506543 51435 0 -506419 51499.7 0 -506294 51565.2 0 -506169 51631.6 0 -506043 51698.8 0 -505917 51766.9 0 -505790 51835.9 0 -505663 51905.7 0 -505536 51976.4 0 -505409 52047.9 0 -505281 52120.4 0 -505153 52193.7 0 -505024 52267.9 0 -504896 52342.9 0 -504767 52418.9 0 -504638 52495.6 0 -504509 52573.3 0 -504379 52651.8 0 -504250 52731.2 0 -504120 52811.5 0 -503991 52892.6 0 -503861 52974.5 0 -503731 53057.3 0 -503602 53141 0 -503472 53225.5 0 -503342 53310.8 0 -503213 53396.9 0 -503083 53483.8 0 -502954 53571.6 0 -502824 53660.2 0 -502695 53749.5 0 -502566 53839.6 0 -502437 53930.5 0 -502308 54022.2 0 -502180 54114.6 0 -502051 54207.7 0 -501923 54301.6 0 -501795 54396.2 0 -501668 54491.5 0 -501541 54587.5 0 -501414 54684.2 0 -501287 54781.5 0 -501161 54879.5 0 -501035 54978.2 0 -500910 55077.5 0 -500785 55177.4 0 -500660 55277.9 0 -500536 55379 0 -500412 55480.7 0 -500289 55582.9 0 -500166 55685.8 0 -500044 55789.2 0 -499922 55893.1 0 -499801 55997.6 0 -499680 56102.7 0 -499560 56208.4 0 -499441 56314.6 0 -499323 56421.5 0 -499205 56528.9 0 -499089 56637 0 -498973 56745.7 0 -498858 56855 0 -498745 56964.9 0 -498633 57075.2 0 -498522 57185.8 0 -498413 57295.5 0 -498304 57403 0 -498196 57499.2 0 -515250 50020.5 0 -515179 50074.1 0 -515106 50133.4 0 -515032 50193.7 0 -514958 50254.1 0 -514884 50314.4 0 -514810 50374.3 0 -514735 50433.9 0 -514659 50493.1 0 -514583 50552.1 0 -514507 50610.9 0 -514429 50669.5 0 -514351 50728 0 -514272 50786.5 0 -514192 50844.9 0 -514112 50903.3 0 -514030 50961.8 0 -513948 51020.3 0 -513865 51078.8 0 -513781 51137.5 0 -513696 51196.3 0 -513611 51255.2 0 -513524 51314.3 0 -513437 51373.6 0 -513349 51433 0 -513261 51492.6 0 -513171 51552.4 0 -513081 51612.5 0 -512990 51672.7 0 -512898 51733.2 0 -512806 51794 0 -512712 51855 0 -512618 51916.2 0 -512524 51977.8 0 -512428 52039.6 0 -512332 52101.7 0 -512236 52164.2 0 -512138 52226.9 0 -512040 52290 0 -511941 52353.4 0 -511842 52417.2 0 -511742 52481.3 0 -511641 52545.8 0 -511540 52610.6 0 -511438 52675.8 0 -511336 52741.5 0 -511233 52807.5 0 -511129 52873.9 0 -511025 52940.7 0 -510920 53008 0 -510815 53075.7 0 -510709 53143.8 0 -510603 53212.3 0 -510496 53281.3 0 -510389 53350.7 0 -510281 53420.6 0 -510173 53491 0 -510064 53561.8 0 -509955 53633.1 0 -509845 53704.9 0 -509735 53777.1 0 -509625 53849.8 0 -509514 53923.1 0 -509403 53996.8 0 -509291 54071 0 -509180 54145.7 0 -509067 54220.8 0 -508955 54296.5 0 -508842 54372.7 0 -508729 54449.4 0 -508615 54526.6 0 -508501 54604.3 0 -508387 54682.5 0 -508273 54761.2 0 -508159 54840.4 0 -508044 54920.1 0 -507929 55000.4 0 -507814 55081.1 0 -507699 55162.3 0 -507583 55244 0 -507468 55326.2 0 -507352 55408.9 0 -507236 55492.1 0 -507120 55575.8 0 -507004 55660 0 -506888 55744.6 0 -506772 55829.7 0 -506655 55915.3 0 -506539 56001.4 0 -506423 56087.9 0 -506306 56174.9 0 -506190 56262.4 0 -506074 56350.3 0 -505957 56438.6 0 -505841 56527.4 0 -505725 56616.6 0 -505608 56706.2 0 -505492 56796.2 0 -505376 56886.7 0 -505260 56977.5 0 -505144 57068.8 0 -505029 57160.4 0 -504913 57252.4 0 -504798 57344.7 0 -504682 57437.5 0 -504567 57530.5 0 -504452 57623.9 0 -504337 57717.7 0 -504223 57811.7 0 -504108 57906 0 -503994 58000.7 0 -503880 58095.6 0 -503766 58190.7 0 -503653 58286.1 0 -503539 58381.7 0 -503426 58477.4 0 -503313 58573.4 0 -503200 58669.5 0 -503088 58765.7 0 -502976 58862 0 -502863 58958.3 0 -502751 59054.7 0 -502639 59151.1 0 -502527 59247.6 0 -502415 59344.3 0 -502303 59441.4 0 -502191 59539.6 0 -502080 59642.6 0 -518409 51387 0 -518338 51462.8 0 -518267 51536.2 0 -518195 51609 0 -518123 51681.6 0 -518050 51754.2 0 -517976 51826.9 0 -517901 51899.6 0 -517825 51972.4 0 -517749 52045.3 0 -517672 52118.1 0 -517595 52191 0 -517517 52264 0 -517438 52336.9 0 -517359 52409.9 0 -517279 52482.8 0 -517199 52555.8 0 -517118 52628.8 0 -517036 52701.8 0 -516954 52774.9 0 -516872 52847.9 0 -516788 52921 0 -516705 52994.2 0 -516620 53067.4 0 -516535 53140.7 0 -516450 53214 0 -516364 53287.4 0 -516277 53360.9 0 -516190 53434.5 0 -516103 53508.2 0 -516014 53582 0 -515926 53655.9 0 -515836 53729.9 0 -515747 53804.1 0 -515656 53878.3 0 -515565 53952.8 0 -515474 54027.3 0 -515382 54102.1 0 -515290 54176.9 0 -515197 54252 0 -515103 54327.2 0 -515010 54402.6 0 -514915 54478.2 0 -514820 54553.9 0 -514725 54629.9 0 -514629 54706.1 0 -514533 54782.4 0 -514436 54859 0 -514339 54935.8 0 -514241 55012.8 0 -514143 55090 0 -514045 55167.5 0 -513946 55245.2 0 -513847 55323.1 0 -513747 55401.3 0 -513647 55479.7 0 -513546 55558.3 0 -513446 55637.2 0 -513344 55716.4 0 -513243 55795.8 0 -513141 55875.5 0 -513038 55955.4 0 -512936 56035.6 0 -512833 56116 0 -512729 56196.7 0 -512626 56277.7 0 -512522 56359 0 -512418 56440.5 0 -512313 56522.3 0 -512208 56604.4 0 -512103 56686.7 0 -511998 56769.3 0 -511892 56852.2 0 -511786 56935.4 0 -511680 57018.8 0 -511574 57102.6 0 -511467 57186.6 0 -511360 57270.8 0 -511253 57355.4 0 -511146 57440.2 0 -511038 57525.3 0 -510931 57610.6 0 -510823 57696.2 0 -510715 57782.1 0 -510607 57868.3 0 -510499 57954.7 0 -510390 58041.4 0 -510282 58128.3 0 -510173 58215.5 0 -510064 58302.9 0 -509955 58390.6 0 -509846 58478.6 0 -509737 58566.7 0 -509628 58655.2 0 -509519 58743.8 0 -509409 58832.7 0 -509300 58921.8 0 -509190 59011.2 0 -509081 59100.7 0 -508971 59190.5 0 -508861 59280.5 0 -508752 59370.6 0 -508642 59461 0 -508532 59551.6 0 -508423 59642.4 0 -508313 59733.3 0 -508203 59824.5 0 -508093 59915.8 0 -507984 60007.2 0 -507874 60098.9 0 -507764 60190.7 0 -507655 60282.6 0 -507545 60374.7 0 -507436 60467 0 -507326 60559.4 0 -507217 60651.9 0 -507107 60744.6 0 -506998 60837.4 0 -506889 60930.3 0 -506780 61023.4 0 -506671 61116.6 0 -506562 61210 0 -506454 61303.5 0 -506345 61397 0 -506237 61490.7 0 -506129 61584.2 0 -506021 61677.4 0 -505913 61768.7 0 -521899 52756.9 0 -521826 52841.1 0 -521752 52926.1 0 -521678 53011.2 0 -521604 53096.2 0 -521529 53181.1 0 -521454 53265.8 0 -521378 53350.4 0 -521302 53434.9 0 -521226 53519.3 0 -521149 53603.6 0 -521072 53687.8 0 -520994 53771.9 0 -520916 53856 0 -520837 53940 0 -520758 54024 0 -520678 54107.9 0 -520598 54191.8 0 -520517 54275.6 0 -520436 54359.5 0 -520355 54443.3 0 -520273 54527.1 0 -520190 54611 0 -520107 54694.8 0 -520024 54778.6 0 -519940 54862.4 0 -519856 54946.3 0 -519771 55030.1 0 -519686 55114 0 -519600 55197.9 0 -519514 55281.8 0 -519427 55365.8 0 -519341 55449.8 0 -519253 55533.8 0 -519165 55617.9 0 -519077 55702 0 -518989 55786.2 0 -518900 55870.5 0 -518810 55954.8 0 -518720 56039.1 0 -518630 56123.6 0 -518539 56208.1 0 -518448 56292.6 0 -518357 56377.3 0 -518265 56462 0 -518173 56546.9 0 -518080 56631.8 0 -517987 56716.8 0 -517894 56801.8 0 -517800 56887 0 -517706 56972.3 0 -517611 57057.7 0 -517516 57143.2 0 -517421 57228.8 0 -517326 57314.5 0 -517230 57400.3 0 -517134 57486.2 0 -517037 57572.3 0 -516940 57658.4 0 -516843 57744.7 0 -516745 57831.1 0 -516648 57917.6 0 -516549 58004.3 0 -516451 58091 0 -516352 58177.9 0 -516253 58265 0 -516154 58352.1 0 -516054 58439.4 0 -515954 58526.8 0 -515854 58614.4 0 -515753 58702.1 0 -515653 58789.9 0 -515552 58877.8 0 -515450 58965.9 0 -515349 59054.1 0 -515247 59142.4 0 -515145 59230.9 0 -515043 59319.5 0 -514941 59408.3 0 -514838 59497.2 0 -514735 59586.2 0 -514632 59675.3 0 -514529 59764.6 0 -514425 59854 0 -514321 59943.5 0 -514218 60033.1 0 -514113 60122.9 0 -514009 60212.8 0 -513905 60302.9 0 -513800 60393 0 -513695 60483.3 0 -513590 60573.7 0 -513485 60664.2 0 -513380 60754.8 0 -513275 60845.5 0 -513169 60936.4 0 -513063 61027.3 0 -512958 61118.3 0 -512852 61209.5 0 -512746 61300.8 0 -512639 61392.1 0 -512533 61483.6 0 -512427 61575.1 0 -512320 61666.7 0 -512214 61758.4 0 -512107 61850.2 0 -512000 61942.1 0 -511893 62034 0 -511786 62126 0 -511679 62218.1 0 -511572 62310.3 0 -511465 62402.5 0 -511357 62494.7 0 -511250 62587 0 -511143 62679.4 0 -511035 62771.7 0 -510928 62864.2 0 -510820 62956.6 0 -510712 63049 0 -510605 63141.5 0 -510497 63234 0 -510389 63326.4 0 -510281 63418.9 0 -510173 63511.3 0 -510065 63603.8 0 -509956 63696.3 0 -509848 63789 0 -509740 63882.4 0 -525648 54140.9 0 -525574 54235.5 0 -525500 54329.5 0 -525425 54423.4 0 -525350 54517.2 0 -525274 54610.9 0 -525199 54704.6 0 -525122 54798.2 0 -525045 54891.7 0 -524968 54985.1 0 -524891 55078.5 0 -524813 55171.8 0 -524734 55265 0 -524656 55358.2 0 -524577 55451.3 0 -524497 55544.3 0 -524417 55637.3 0 -524337 55730.2 0 -524256 55823.1 0 -524175 55915.9 0 -524094 56008.6 0 -524012 56101.3 0 -523930 56194 0 -523847 56286.6 0 -523764 56379.1 0 -523681 56471.7 0 -523597 56564.1 0 -523513 56656.6 0 -523429 56749 0 -523344 56841.4 0 -523259 56933.8 0 -523173 57026.2 0 -523087 57118.5 0 -523001 57210.8 0 -522914 57303.1 0 -522827 57395.4 0 -522740 57487.7 0 -522652 57580 0 -522564 57672.3 0 -522475 57764.6 0 -522387 57856.8 0 -522297 57949.1 0 -522208 58041.4 0 -522118 58133.7 0 -522028 58226 0 -521937 58318.3 0 -521847 58410.7 0 -521755 58503 0 -521664 58595.4 0 -521572 58687.8 0 -521480 58780.2 0 -521387 58872.6 0 -521294 58965.1 0 -521201 59057.5 0 -521108 59150 0 -521014 59242.6 0 -520920 59335.1 0 -520825 59427.7 0 -520731 59520.4 0 -520636 59613 0 -520541 59705.7 0 -520445 59798.5 0 -520349 59891.3 0 -520253 59984.1 0 -520156 60076.9 0 -520060 60169.8 0 -519963 60262.8 0 -519865 60355.7 0 -519768 60448.8 0 -519670 60541.8 0 -519572 60634.9 0 -519474 60728.1 0 -519375 60821.3 0 -519276 60914.5 0 -519177 61007.8 0 -519078 61101.1 0 -518978 61194.5 0 -518878 61287.9 0 -518778 61381.4 0 -518678 61474.9 0 -518577 61568.4 0 -518476 61662 0 -518375 61755.7 0 -518274 61849.3 0 -518173 61943.1 0 -518071 62036.8 0 -517969 62130.6 0 -517867 62224.5 0 -517765 62318.4 0 -517662 62412.3 0 -517560 62506.2 0 -517457 62600.2 0 -517354 62694.3 0 -517250 62788.3 0 -517147 62882.4 0 -517043 62976.6 0 -516939 63070.7 0 -516835 63164.9 0 -516731 63259.1 0 -516627 63353.4 0 -516522 63447.7 0 -516418 63541.9 0 -516313 63636.3 0 -516208 63730.6 0 -516102 63824.9 0 -515997 63919.3 0 -515892 64013.7 0 -515786 64108.1 0 -515680 64202.5 0 -515574 64296.9 0 -515468 64391.3 0 -515362 64485.7 0 -515255 64580.2 0 -515149 64674.6 0 -515042 64769 0 -514936 64863.4 0 -514829 64957.8 0 -514722 65052.2 0 -514614 65146.6 0 -514507 65241 0 -514400 65335.4 0 -514292 65429.8 0 -514185 65524.1 0 -514077 65618.5 0 -513969 65712.8 0 -513861 65807 0 -513753 65901.2 0 -513645 65995 0 -529630 55535.9 0 -529554 55638 0 -529479 55740.1 0 -529403 55842.2 0 -529326 55944.1 0 -529250 56046 0 -529173 56147.7 0 -529096 56249.3 0 -529018 56350.8 0 -528940 56452.2 0 -528862 56553.5 0 -528783 56654.7 0 -528704 56755.9 0 -528624 56856.9 0 -528545 56957.8 0 -528465 57058.7 0 -528384 57159.4 0 -528304 57260.1 0 -528222 57360.7 0 -528141 57461.3 0 -528059 57561.7 0 -527977 57662.1 0 -527895 57762.4 0 -527812 57862.6 0 -527729 57962.8 0 -527645 58062.9 0 -527561 58163 0 -527477 58262.9 0 -527393 58362.9 0 -527308 58462.7 0 -527223 58562.5 0 -527137 58662.2 0 -527051 58761.9 0 -526965 58861.6 0 -526879 58961.2 0 -526792 59060.7 0 -526705 59160.2 0 -526617 59259.6 0 -526530 59359 0 -526442 59458.4 0 -526353 59557.7 0 -526264 59657 0 -526175 59756.2 0 -526086 59855.4 0 -525996 59954.5 0 -525906 60053.7 0 -525816 60152.8 0 -525726 60251.8 0 -525635 60350.8 0 -525543 60449.8 0 -525452 60548.8 0 -525360 60647.8 0 -525268 60746.7 0 -525176 60845.6 0 -525083 60944.4 0 -524990 61043.3 0 -524897 61142.1 0 -524803 61240.9 0 -524709 61339.7 0 -524615 61438.4 0 -524521 61537.2 0 -524426 61635.9 0 -524331 61734.6 0 -524236 61833.3 0 -524141 61932 0 -524045 62030.6 0 -523949 62129.2 0 -523852 62227.9 0 -523756 62326.5 0 -523659 62425.1 0 -523562 62523.7 0 -523464 62622.2 0 -523367 62720.8 0 -523269 62819.4 0 -523171 62917.9 0 -523072 63016.4 0 -522974 63114.9 0 -522875 63213.4 0 -522776 63311.9 0 -522676 63410.4 0 -522577 63508.8 0 -522477 63607.3 0 -522377 63705.7 0 -522276 63804.2 0 -522176 63902.6 0 -522075 64001 0 -521974 64099.4 0 -521873 64197.7 0 -521771 64296.1 0 -521670 64394.4 0 -521568 64492.8 0 -521466 64591.1 0 -521363 64689.4 0 -521261 64787.7 0 -521158 64885.9 0 -521055 64984.2 0 -520952 65082.4 0 -520848 65180.6 0 -520745 65278.8 0 -520641 65377 0 -520537 65475.1 0 -520433 65573.2 0 -520328 65671.3 0 -520224 65769.4 0 -520119 65867.5 0 -520014 65965.5 0 -519909 66063.5 0 -519804 66161.4 0 -519698 66259.4 0 -519592 66357.3 0 -519486 66455.1 0 -519380 66552.9 0 -519274 66650.7 0 -519168 66748.5 0 -519061 66846.2 0 -518954 66943.9 0 -518847 67041.5 0 -518740 67139.1 0 -518633 67236.7 0 -518525 67334.2 0 -518418 67431.6 0 -518310 67529 0 -518202 67626.3 0 -518094 67723.6 0 -517985 67820.8 0 -517877 67918 0 -517768 68015.2 0 -517659 68112.4 0 -533822 56944.6 0 -533746 57054.2 0 -533669 57163.5 0 -533592 57272.7 0 -533515 57381.9 0 -533437 57490.9 0 -533359 57599.8 0 -533281 57708.5 0 -533202 57817.2 0 -533123 57925.8 0 -533044 58034.3 0 -532964 58142.6 0 -532884 58250.9 0 -532804 58359.1 0 -532723 58467.1 0 -532642 58575.1 0 -532561 58682.9 0 -532479 58790.7 0 -532397 58898.4 0 -532315 59005.9 0 -532233 59113.4 0 -532150 59220.8 0 -532067 59328.1 0 -531983 59435.3 0 -531899 59542.4 0 -531815 59649.4 0 -531731 59756.4 0 -531646 59863.2 0 -531561 59970 0 -531476 60076.7 0 -531390 60183.3 0 -531304 60289.8 0 -531218 60396.3 0 -531132 60502.7 0 -531045 60609 0 -530958 60715.2 0 -530870 60821.3 0 -530783 60927.4 0 -530694 61033.4 0 -530606 61139.3 0 -530517 61245.2 0 -530429 61350.9 0 -530339 61456.7 0 -530250 61562.3 0 -530160 61667.9 0 -530070 61773.4 0 -529979 61878.8 0 -529889 61984.2 0 -529798 62089.6 0 -529706 62194.8 0 -529615 62300 0 -529523 62405.1 0 -529431 62510.2 0 -529338 62615.2 0 -529246 62720.2 0 -529153 62825.1 0 -529060 62929.9 0 -528966 63034.7 0 -528872 63139.5 0 -528778 63244.1 0 -528684 63348.8 0 -528589 63453.3 0 -528494 63557.8 0 -528399 63662.3 0 -528304 63766.7 0 -528208 63871.1 0 -528112 63975.4 0 -528016 64079.6 0 -527919 64183.8 0 -527822 64288 0 -527725 64392.1 0 -527628 64496.1 0 -527531 64600.1 0 -527433 64704.1 0 -527335 64808 0 -527237 64911.8 0 -527138 65015.6 0 -527039 65119.4 0 -526940 65223.1 0 -526841 65326.8 0 -526741 65430.4 0 -526641 65533.9 0 -526541 65637.4 0 -526441 65740.9 0 -526341 65844.3 0 -526240 65947.7 0 -526139 66051 0 -526038 66154.2 0 -525936 66257.5 0 -525835 66360.6 0 -525733 66463.7 0 -525630 66566.8 0 -525528 66669.8 0 -525425 66772.8 0 -525323 66875.7 0 -525220 66978.6 0 -525116 67081.4 0 -525013 67184.1 0 -524909 67286.8 0 -524805 67389.5 0 -524701 67492.1 0 -524597 67594.6 0 -524492 67697.1 0 -524387 67799.6 0 -524282 67902 0 -524177 68004.3 0 -524071 68106.6 0 -523966 68208.8 0 -523860 68310.9 0 -523754 68413 0 -523647 68515 0 -523541 68617 0 -523434 68718.9 0 -523327 68820.8 0 -523220 68922.6 0 -523113 69024.3 0 -523005 69126 0 -522898 69227.6 0 -522790 69329.1 0 -522682 69430.6 0 -522573 69532 0 -522465 69633.3 0 -522356 69734.6 0 -522247 69835.8 0 -522138 69936.9 0 -522029 70038 0 -521919 70138.9 0 -521810 70239.8 0 -538216 58367.8 0 -538138 58484.1 0 -538060 58600.3 0 -537982 58716.3 0 -537903 58832.2 0 -537824 58948 0 -537745 59063.7 0 -537665 59179.3 0 -537586 59294.7 0 -537505 59410 0 -537425 59525.2 0 -537344 59640.3 0 -537263 59755.2 0 -537182 59870.1 0 -537100 59984.8 0 -537018 60099.5 0 -536936 60214 0 -536853 60328.4 0 -536771 60442.7 0 -536687 60556.9 0 -536604 60670.9 0 -536520 60784.9 0 -536436 60898.8 0 -536352 61012.5 0 -536267 61126.2 0 -536182 61239.7 0 -536097 61353.2 0 -536011 61466.5 0 -535926 61579.8 0 -535839 61692.9 0 -535753 61806 0 -535666 61918.9 0 -535579 62031.8 0 -535492 62144.6 0 -535404 62257.2 0 -535317 62369.8 0 -535228 62482.3 0 -535140 62594.6 0 -535051 62706.9 0 -534962 62819.1 0 -534873 62931.2 0 -534783 63043.3 0 -534693 63155.2 0 -534603 63267 0 -534513 63378.8 0 -534422 63490.4 0 -534331 63602 0 -534240 63713.5 0 -534148 63824.9 0 -534056 63936.2 0 -533964 64047.4 0 -533872 64158.6 0 -533779 64269.7 0 -533686 64380.6 0 -533593 64491.5 0 -533499 64602.4 0 -533406 64713.1 0 -533312 64823.8 0 -533217 64934.3 0 -533123 65044.8 0 -533028 65155.2 0 -532933 65265.6 0 -532837 65375.8 0 -532742 65486 0 -532646 65596.1 0 -532550 65706.2 0 -532453 65816.1 0 -532357 65926 0 -532260 66035.8 0 -532162 66145.5 0 -532065 66255.1 0 -531967 66364.7 0 -531869 66474.2 0 -531771 66583.6 0 -531672 66693 0 -531574 66802.2 0 -531475 66911.4 0 -531375 67020.6 0 -531276 67129.6 0 -531176 67238.6 0 -531076 67347.5 0 -530976 67456.3 0 -530875 67565.1 0 -530774 67673.7 0 -530673 67782.4 0 -530572 67890.9 0 -530471 67999.3 0 -530369 68107.7 0 -530267 68216 0 -530165 68324.3 0 -530062 68432.4 0 -529960 68540.5 0 -529857 68648.6 0 -529753 68756.5 0 -529650 68864.4 0 -529546 68972.2 0 -529442 69079.9 0 -529338 69187.5 0 -529234 69295.1 0 -529129 69402.6 0 -529025 69510 0 -528920 69617.4 0 -528814 69724.6 0 -528709 69831.8 0 -528603 69939 0 -528497 70046 0 -528391 70153 0 -528285 70259.9 0 -528178 70366.7 0 -528071 70473.4 0 -527964 70580.1 0 -527857 70686.6 0 -527749 70793.1 0 -527642 70899.5 0 -527534 71005.9 0 -527425 71112.1 0 -527317 71218.3 0 -527208 71324.4 0 -527100 71430.4 0 -526991 71536.4 0 -526881 71642.2 0 -526772 71748 0 -526662 71853.7 0 -526552 71959.3 0 -526442 72064.8 0 -526332 72170.2 0 -526221 72275.6 0 -526111 72380.9 0 -542803 59806.9 0 -542724 59929.7 0 -542645 60052.4 0 -542565 60175 0 -542485 60297.4 0 -542405 60419.7 0 -542325 60541.8 0 -5422