<?xml version="1.0"?> 
<VTKFile type="StructuredGrid" version="0.1"> 
<StructuredGrid WholeExtent="0 127 0 127 0 0"> 
<Piece Extent="0 127 0 127 0 0"> 
<PointData>
<DataArray type="Float32" Name="E" format="ascii" NumberOfComponents="3"> 
-1.02983e+06 0.00440836 0 -1.02982e+06 -1976.23 0 -1.02979e+06 -3952.77 0 -1.02974e+06 -5929.91 0 -1.02967e+06 -7907.97 0 -1.02958e+06 -9887.23 0 -1.02946e+06 -11868 0 -1.02933e+06 -13850.6 0 -1.02917e+06 -15835.3 0 -1.029e+06 -17822.5 0 -1.0288e+06 -19812.3 0 -1.02858e+06 -21805.2 0 -1.02835e+06 -23801.4 0 -1.02809e+06 -25801.3 0 -1.02781e+06 -27805.1 0 -1.02751e+06 -29813.1 0 -1.02719e+06 -31825.7 0 -1.02685e+06 -33843.1 0 -1.02649e+06 -35865.6 0 -1.0261e+06 -37893.6 0 -1.0257e+06 -39927.3 0 -1.02528e+06 -41967.1 0 -1.02483e+06 -44013.2 0 -1.02437e+06 -46066 0 -1.02388e+06 -48125.8 0 -1.02338e+06 -50192.7 0 -1.02285e+06 -52267.2 0 -1.0223e+06 -54349.6 0 -1.02174e+06 -56440.1 0 -1.02115e+06 -58539.1 0 -1.02054e+06 -60646.8 0 -1.01991e+06 -62763.5 0 -1.01926e+06 -64889.5 0 -1.01859e+06 -67025.1 0 -1.0179e+06 -69170.7 0 -1.01719e+06 -71326.5 0 -1.01645e+06 -73492.7 0 -1.0157e+06 -75669.7 0 -1.01493e+06 -77857.8 0 -1.01414e+06 -80057.1 0 -1.01332e+06 -82268.1 0 -1.01249e+06 -84491 0 -1.01163e+06 -86726.1 0 -1.01076e+06 -88973.6 0 -1.00986e+06 -91233.8 0 -1.00895e+06 -93506.9 0 -1.00801e+06 -95793.3 0 -1.00706e+06 -98093.1 0 -1.00608e+06 -100407 0 -1.00508e+06 -102734 0 -1.00407e+06 -105076 0 -1.00303e+06 -107432 0 -1.00197e+06 -109803 0 -1.0009e+06 -112189 0 -999801 -114590 0 -998685 -117006 0 -997548 -119438 0 -996392 -121886 0 -995216 -124350 0 -994020 -126829 0 -992804 -129325 0 -991569 -131838 0 -990314 -134367 0 -989040 -136913 0 -987746 -139476 0 -986432 -142056 0 -985099 -144653 0 -983746 -147267 0 -982374 -149899 0 -980982 -152548 0 -979571 -155215 0 -978141 -157899 0 -976692 -160601 0 -975223 -163320 0 -973735 -166058 0 -972227 -168813 0 -970701 -171585 0 -969155 -174375 0 -967590 -177183 0 -966006 -180008 0 -964402 -182851 0 -962780 -185710 0 -961138 -188588 0 -959476 -191482 0 -957796 -194393 0 -956096 -197320 0 -954377 -200264 0 -952639 -203225 0 -950881 -206201 0 -949103 -209193 0 -947306 -212201 0 -945489 -215224 0 -943653 -218261 0 -941796 -221313 0 -939920 -224379 0 -938024 -227459 0 -936107 -230551 0 -934170 -233657 0 -932212 -236775 0 -930234 -239904 0 -928235 -243044 0 -926215 -246196 0 -924174 -249357 0 -922112 -252527 0 -920027 -255706 0 -917921 -258893 0 -915793 -262087 0 -913643 -265288 0 -911470 -268494 0 -909274 -271706 0 -907055 -274921 0 -904813 -278140 0 -902547 -281361 0 -900258 -284583 0 -897944 -287806 0 -895605 -291029 0 -893242 -294249 0 -890854 -297468 0 -888440 -300682 0 -886000 -303892 0 -883535 -307097 0 -881043 -310294 0 -878525 -313483 0 -875980 -316663 0 -873408 -319832 0 -870809 -322989 0 -868182 -326133 0 -865539 -329258 0 -1.02735e+06 0.00440969 0 -1.02734e+06 -1963.14 0 -1.02731e+06 -3926.59 0 -1.02726e+06 -5890.64 0 -1.02719e+06 -7855.6 0 -1.02709e+06 -9821.78 0 -1.02698e+06 -11789.5 0 -1.02684e+06 -13759 0 -1.02668e+06 -15730.6 0 -1.02651e+06 -17704.7 0 -1.02631e+06 -19681.4 0 -1.02609e+06 -21661.2 0 -1.02585e+06 -23644.4 0 -1.02559e+06 -25631.1 0 -1.0253e+06 -27621.8 0 -1.025e+06 -29616.8 0 -1.02468e+06 -31616.2 0 -1.02433e+06 -33620.6 0 -1.02396e+06 -35630 0 -1.02358e+06 -37644.9 0 -1.02317e+06 -39665.6 0 -1.02274e+06 -41692.3 0 -1.02229e+06 -43725.4 0 -1.02182e+06 -45765.1 0 -1.02133e+06 -47811.8 0 -1.02082e+06 -49865.7 0 -1.02028e+06 -51927.1 0 -1.01973e+06 -53996.5 0 -1.01916e+06 -56073.9 0 -1.01856e+06 -58159.8 0 -1.01794e+06 -60254.5 0 -1.01731e+06 -62358.2 0 -1.01665e+06 -64471.2 0 -1.01597e+06 -66593.9 0 -1.01527e+06 -68726.4 0 -1.01455e+06 -70869.2 0 -1.01381e+06 -73022.5 0 -1.01305e+06 -75186.5 0 -1.01227e+06 -77361.6 0 -1.01146e+06 -79548.1 0 -1.01064e+06 -81746.2 0 -1.00979e+06 -83956.2 0 -1.00893e+06 -86178.3 0 -1.00804e+06 -88413 0 -1.00714e+06 -90660.3 0 -1.00621e+06 -92920.6 0 -1.00526e+06 -95194.2 0 -1.0043e+06 -97481.2 0 -1.00331e+06 -99782.1 0 -1.0023e+06 -102097 0 -1.00127e+06 -104426 0 -1.00022e+06 -106769 0 -999155 -109128 0 -998066 -111501 0 -996956 -113889 0 -995827 -116293 0 -994677 -118712 0 -993508 -121147 0 -992318 -123599 0 -991108 -126066 0 -989879 -128549 0 -988629 -131049 0 -987360 -133566 0 -986071 -136100 0 -984762 -138650 0 -983434 -141218 0 -982086 -143803 0 -980718 -146405 0 -979331 -149024 0 -977925 -151661 0 -976499 -154316 0 -975053 -156988 0 -973588 -159677 0 -972104 -162385 0 -970601 -165110 0 -969078 -167853 0 -967536 -170613 0 -965975 -173391 0 -964394 -176187 0 -962795 -179000 0 -961176 -181830 0 -959538 -184678 0 -957881 -187543 0 -956204 -190425 0 -954509 -193324 0 -952794 -196239 0 -951060 -199171 0 -949307 -202119 0 -947534 -205084 0 -945742 -208064 0 -943931 -211059 0 -942100 -214069 0 -940250 -217094 0 -938380 -220134 0 -936490 -223187 0 -934581 -226254 0 -932652 -229334 0 -930702 -232427 0 -928733 -235532 0 -926743 -238648 0 -924732 -241776 0 -922702 -244914 0 -920650 -248061 0 -918577 -251218 0 -916483 -254384 0 -914368 -257557 0 -912232 -260738 0 -910073 -263924 0 -907893 -267117 0 -905690 -270314 0 -903465 -273515 0 -901217 -276719 0 -898946 -279925 0 -896652 -283133 0 -894334 -286340 0 -891992 -289548 0 -889627 -292753 0 -887237 -295956 0 -884822 -299154 0 -882382 -302348 0 -879918 -305536 0 -877428 -308717 0 -874912 -311890 0 -872370 -315053 0 -869802 -318205 0 -867207 -321346 0 -864588 -324473 0 -861941 -327588 0 -1.02489e+06 0.00440986 0 -1.02488e+06 -1949.89 0 -1.02485e+06 -3900.08 0 -1.02479e+06 -5850.89 0 -1.02472e+06 -7802.6 0 -1.02462e+06 -9755.52 0 -1.02451e+06 -11710 0 -1.02437e+06 -13666.2 0 -1.02421e+06 -15624.6 0 -1.02403e+06 -17585.4 0 -1.02383e+06 -19548.9 0 -1.02361e+06 -21515.5 0 -1.02337e+06 -23485.4 0 -1.0231e+06 -25458.9 0 -1.02281e+06 -27436.3 0 -1.02251e+06 -29418 0 -1.02218e+06 -31404.3 0 -1.02183e+06 -33395.3 0 -1.02146e+06 -35391.6 0 -1.02107e+06 -37393.3 0 -1.02066e+06 -39400.7 0 -1.02022e+06 -41414.2 0 -1.01977e+06 -43434 0 -1.01929e+06 -45460.5 0 -1.01879e+06 -47493.9 0 -1.01827e+06 -49534.6 0 -1.01774e+06 -51582.9 0 -1.01717e+06 -53639 0 -1.01659e+06 -55703.3 0 -1.01599e+06 -57776 0 -1.01537e+06 -59857.5 0 -1.01472e+06 -61948 0 -1.01406e+06 -64047.9 0 -1.01337e+06 -66157.4 0 -1.01266e+06 -68276.8 0 -1.01193e+06 -70406.4 0 -1.01118e+06 -72546.6 0 -1.01041e+06 -74697.5 0 -1.00962e+06 -76859.5 0 -1.00881e+06 -79032.9 0 -1.00797e+06 -81217.9 0 -1.00712e+06 -83414.9 0 -1.00624e+06 -85624 0 -1.00535e+06 -87845.6 0 -1.00443e+06 -90080 0 -1.00349e+06 -92327.3 0 -1.00253e+06 -94587.9 0 -1.00156e+06 -96862.1 0 -1.00056e+06 -99150 0 -999536 -101452 0 -998495 -103768 0 -997434 -106099 0 -996353 -108444 0 -995251 -110805 0 -994128 -113180 0 -992985 -115571 0 -991822 -117978 0 -990639 -120400 0 -989436 -122839 0 -988212 -125293 0 -986969 -127764 0 -985705 -130252 0 -984422 -132756 0 -983118 -135277 0 -981795 -137815 0 -980452 -140371 0 -979089 -142943 0 -977707 -145533 0 -976305 -148140 0 -974883 -150764 0 -973442 -153407 0 -971981 -156067 0 -970501 -158744 0 -969001 -161439 0 -967482 -164152 0 -965944 -166883 0 -964387 -169631 0 -962810 -172397 0 -961214 -175181 0 -959599 -177982 0 -957965 -180800 0 -956312 -183636 0 -954639 -186489 0 -952948 -189359 0 -951237 -192245 0 -949507 -195149 0 -947758 -198069 0 -945990 -201005 0 -944203 -203957 0 -942397 -206925 0 -940572 -209908 0 -938727 -212906 0 -936863 -215919 0 -934979 -218946 0 -933076 -221987 0 -931154 -225042 0 -929212 -228109 0 -927250 -231189 0 -925269 -234282 0 -923267 -237385 0 -921246 -240500 0 -919204 -243625 0 -917142 -246760 0 -915059 -249904 0 -912956 -253056 0 -910832 -256216 0 -908687 -259383 0 -906520 -262556 0 -904332 -265735 0 -902123 -268918 0 -899891 -272105 0 -897638 -275295 0 -895362 -278487 0 -893063 -281680 0 -890742 -284873 0 -888397 -288065 0 -886029 -291255 0 -883638 -294443 0 -881222 -297626 0 -878783 -300805 0 -876319 -303977 0 -873830 -307142 0 -871317 -310299 0 -868778 -313446 0 -866214 -316582 0 -863625 -319706 0 -861010 -322817 0 -858370 -325914 0 -1.02244e+06 0.00441054 0 -1.02243e+06 -1936.48 0 -1.0224e+06 -3873.26 0 -1.02235e+06 -5810.65 0 -1.02227e+06 -7748.96 0 -1.02217e+06 -9688.47 0 -1.02206e+06 -11629.5 0 -1.02192e+06 -13572.3 0 -1.02176e+06 -15517.3 0 -1.02157e+06 -17464.7 0 -1.02137e+06 -19414.8 0 -1.02115e+06 -21368 0 -1.0209e+06 -23324.4 0 -1.02063e+06 -25284.6 0 -1.02034e+06 -27248.6 0 -1.02003e+06 -29216.9 0 -1.0197e+06 -31189.7 0 -1.01935e+06 -33167.4 0 -1.01897e+06 -35150.2 0 -1.01858e+06 -37138.5 0 -1.01816e+06 -39132.5 0 -1.01772e+06 -41132.6 0 -1.01726e+06 -43139.1 0 -1.01678e+06 -45152.2 0 -1.01627e+06 -47172.3 0 -1.01575e+06 -49199.6 0 -1.0152e+06 -51234.5 0 -1.01464e+06 -53277.2 0 -1.01405e+06 -55328.2 0 -1.01344e+06 -57387.5 0 -1.01281e+06 -59455.7 0 -1.01215e+06 -61532.9 0 -1.01148e+06 -63619.4 0 -1.01078e+06 -65715.6 0 -1.01007e+06 -67821.7 0 -1.00933e+06 -69938.1 0 -1.00857e+06 -72064.9 0 -1.00779e+06 -74202.6 0 -1.00699e+06 -76351.4 0 -1.00617e+06 -78511.5 0 -1.00532e+06 -80683.3 0 -1.00446e+06 -82867.1 0 -1.00357e+06 -85063.1 0 -1.00267e+06 -87271.5 0 -1.00174e+06 -89492.7 0 -1.00079e+06 -91727 0 -999821 -93974.5 0 -998830 -96235.6 0 -997819 -98510.4 0 -996787 -100799 0 -995734 -103103 0 -994661 -105420 0 -993566 -107753 0 -992452 -110100 0 -991316 -112463 0 -990160 -114841 0 -988984 -117235 0 -987787 -119645 0 -986570 -122070 0 -985333 -124512 0 -984075 -126971 0 -982798 -129446 0 -981500 -131937 0 -980182 -134446 0 -978844 -136971 0 -977486 -139514 0 -976109 -142074 0 -974711 -144651 0 -973294 -147246 0 -971857 -149858 0 -970401 -152488 0 -968925 -155136 0 -967429 -157801 0 -965914 -160484 0 -964380 -163185 0 -962826 -165903 0 -961253 -168640 0 -959661 -171393 0 -958050 -174165 0 -956419 -176954 0 -954770 -179760 0 -953101 -182584 0 -951413 -185425 0 -949707 -188283 0 -947981 -191158 0 -946236 -194049 0 -944473 -196957 0 -942690 -199881 0 -940888 -202821 0 -939068 -205777 0 -937228 -208748 0 -935369 -211734 0 -933491 -214735 0 -931595 -217750 0 -929678 -220779 0 -927743 -223821 0 -925789 -226876 0 -923815 -229944 0 -921821 -233024 0 -919808 -236115 0 -917775 -239217 0 -915723 -242330 0 -913650 -245452 0 -911558 -248583 0 -909445 -251722 0 -907312 -254869 0 -905158 -258023 0 -902984 -261183 0 -900789 -264348 0 -898572 -267518 0 -896335 -270691 0 -894075 -273867 0 -891794 -277045 0 -889492 -280224 0 -887167 -283403 0 -884819 -286581 0 -882449 -289756 0 -880056 -292929 0 -877640 -296098 0 -875201 -299261 0 -872738 -302418 0 -870251 -305568 0 -867740 -308709 0 -865205 -311840 0 -862645 -314961 0 -860061 -318069 0 -857452 -321164 0 -854818 -324246 0 -1.02001e+06 0.00441031 0 -1.02e+06 -1922.91 0 -1.01997e+06 -3846.12 0 -1.01992e+06 -5769.94 0 -1.01984e+06 -7694.67 0 -1.01974e+06 -9620.62 0 -1.01962e+06 -11548.1 0 -1.01948e+06 -13477.4 0 -1.01932e+06 -15408.7 0 -1.01913e+06 -17342.6 0 -1.01893e+06 -19279.1 0 -1.0187e+06 -21218.7 0 -1.01845e+06 -23161.6 0 -1.01818e+06 -25108.2 0 -1.01789e+06 -27058.6 0 -1.01757e+06 -29013.4 0 -1.01724e+06 -30972.6 0 -1.01688e+06 -32936.7 0 -1.0165e+06 -34906 0 -1.0161e+06 -36880.7 0 -1.01568e+06 -38861.2 0 -1.01523e+06 -40847.8 0 -1.01477e+06 -42840.7 0 -1.01428e+06 -44840.2 0 -1.01377e+06 -46846.8 0 -1.01324e+06 -48860.5 0 -1.01269e+06 -50881.9 0 -1.01211e+06 -52911.1 0 -1.01152e+06 -54948.6 0 -1.0109e+06 -56994.4 0 -1.01026e+06 -59049.1 0 -1.0096e+06 -61112.8 0 -1.00892e+06 -63185.8 0 -1.00822e+06 -65268.6 0 -1.00749e+06 -67361.2 0 -1.00674e+06 -69464.1 0 -1.00598e+06 -71577.6 0 -1.00519e+06 -73701.8 0 -1.00438e+06 -75837.2 0 -1.00354e+06 -77984 0 -1.00269e+06 -80142.4 0 -1.00182e+06 -82312.9 0 -1.00092e+06 -84495.5 0 -1e+06 -86690.6 0 -999064 -88898.6 0 -998104 -91119.6 0 -997123 -93353.9 0 -996121 -95601.7 0 -995098 -97863.4 0 -994054 -100139 0 -992989 -102429 0 -991903 -104734 0 -990797 -107053 0 -989669 -109388 0 -988521 -111738 0 -987352 -114103 0 -986162 -116484 0 -984952 -118881 0 -983721 -121293 0 -982470 -123723 0 -981198 -126168 0 -979906 -128630 0 -978594 -131109 0 -977262 -133605 0 -975909 -136118 0 -974537 -138648 0 -973144 -141196 0 -971732 -143761 0 -970300 -146343 0 -968848 -148943 0 -967376 -151560 0 -965885 -154196 0 -964374 -156849 0 -962843 -159519 0 -961294 -162208 0 -959724 -164914 0 -958136 -167638 0 -956528 -170380 0 -954902 -173139 0 -953256 -175916 0 -951591 -178711 0 -949907 -181522 0 -948204 -184351 0 -946482 -187197 0 -944741 -190060 0 -942981 -192940 0 -941202 -195836 0 -939405 -198748 0 -937589 -201676 0 -935754 -204620 0 -933900 -207579 0 -932027 -210553 0 -930136 -213542 0 -928225 -216545 0 -926296 -219562 0 -924348 -222593 0 -922381 -225636 0 -920394 -228691 0 -918389 -231759 0 -916364 -234838 0 -914321 -237928 0 -912257 -241028 0 -910175 -244137 0 -908072 -247256 0 -905950 -250383 0 -903808 -253517 0 -901646 -256658 0 -899464 -259805 0 -897261 -262957 0 -895038 -266113 0 -892794 -269273 0 -890530 -272436 0 -888244 -275601 0 -885937 -278766 0 -883609 -281931 0 -881258 -285095 0 -878886 -288256 0 -876492 -291415 0 -874075 -294569 0 -871636 -297718 0 -869174 -300861 0 -866689 -303995 0 -864181 -307122 0 -861649 -310238 0 -859094 -313343 0 -856515 -316436 0 -853912 -319516 0 -851285 -322581 0 -1.0176e+06 0.00441106 0 -1.01759e+06 -1909.18 0 -1.01756e+06 -3818.66 0 -1.0175e+06 -5728.75 0 -1.01742e+06 -7639.75 0 -1.01733e+06 -9551.96 0 -1.01721e+06 -11465.7 0 -1.01706e+06 -13381.2 0 -1.0169e+06 -15298.9 0 -1.01671e+06 -17219 0 -1.0165e+06 -19141.8 0 -1.01627e+06 -21067.7 0 -1.01602e+06 -22996.8 0 -1.01575e+06 -24929.7 0 -1.01545e+06 -26866.4 0 -1.01513e+06 -28807.4 0 -1.01479e+06 -30753 0 -1.01443e+06 -32703.4 0 -1.01405e+06 -34658.9 0 -1.01364e+06 -36619.9 0 -1.01321e+06 -38586.7 0 -1.01276e+06 -40559.5 0 -1.01229e+06 -42538.7 0 -1.0118e+06 -44524.6 0 -1.01128e+06 -46517.4 0 -1.01075e+06 -48517.5 0 -1.01019e+06 -50525.2 0 -1.00961e+06 -52540.7 0 -1.009e+06 -54564.5 0 -1.00838e+06 -56596.7 0 -1.00773e+06 -58637.7 0 -1.00707e+06 -60687.7 0 -1.00638e+06 -62747.2 0 -1.00566e+06 -64816.3 0 -1.00493e+06 -66895.3 0 -1.00418e+06 -68984.6 0 -1.0034e+06 -71084.5 0 -1.0026e+06 -73195.2 0 -1.00178e+06 -75317 0 -1.00094e+06 -77450.3 0 -1.00008e+06 -79595.2 0 -999190 -81752.1 0 -998284 -83921.3 0 -997356 -86103 0 -996406 -88297.5 0 -995435 -90505.1 0 -994443 -92726 0 -993430 -94960.5 0 -992395 -97208.9 0 -991339 -99471.4 0 -990262 -101748 0 -989163 -104040 0 -988044 -106346 0 -986903 -108667 0 -985742 -111004 0 -984560 -113356 0 -983357 -115724 0 -982133 -118108 0 -980888 -120508 0 -979623 -122924 0 -978338 -125357 0 -977031 -127806 0 -975705 -130272 0 -974358 -132755 0 -972991 -135256 0 -971603 -137773 0 -970196 -140308 0 -968769 -142860 0 -967321 -145430 0 -965854 -148018 0 -964367 -150623 0 -962860 -153246 0 -961334 -155886 0 -959788 -158545 0 -958223 -161221 0 -956638 -163915 0 -955034 -166627 0 -953411 -169357 0 -951769 -172104 0 -950108 -174869 0 -948427 -177652 0 -946728 -180451 0 -945009 -183268 0 -943272 -186103 0 -941516 -188954 0 -939742 -191821 0 -937948 -194705 0 -936136 -197606 0 -934305 -200522 0 -932456 -203454 0 -930588 -206402 0 -928701 -209364 0 -926796 -212341 0 -924872 -215332 0 -922930 -218337 0 -920968 -221356 0 -918989 -224387 0 -916990 -227431 0 -914973 -230487 0 -912937 -233554 0 -910882 -236631 0 -908808 -239719 0 -906715 -242817 0 -904603 -245923 0 -902471 -249037 0 -900320 -252159 0 -898150 -255288 0 -895960 -258422 0 -893750 -261561 0 -891521 -264705 0 -889271 -267852 0 -887001 -271002 0 -884710 -274153 0 -882399 -277305 0 -880067 -280457 0 -877714 -283607 0 -875340 -286755 0 -872945 -289900 0 -870528 -293040 0 -868089 -296175 0 -865628 -299304 0 -863145 -302424 0 -860639 -305536 0 -858111 -308638 0 -855560 -311728 0 -852987 -314807 0 -850390 -317871 0 -847769 -320922 0 -1.0152e+06 0.00441161 0 -1.01519e+06 -1895.29 0 -1.01516e+06 -3790.88 0 -1.0151e+06 -5687.08 0 -1.01503e+06 -7584.19 0 -1.01493e+06 -9482.51 0 -1.01481e+06 -11382.3 0 -1.01466e+06 -13284 0 -1.01449e+06 -15187.8 0 -1.01431e+06 -17094 0 -1.0141e+06 -19002.9 0 -1.01386e+06 -20914.9 0 -1.01361e+06 -22830.2 0 -1.01333e+06 -24749.1 0 -1.01303e+06 -26672 0 -1.01271e+06 -28599.1 0 -1.01236e+06 -30530.7 0 -1.012e+06 -32467.3 0 -1.01161e+06 -34408.9 0 -1.0112e+06 -36356.1 0 -1.01077e+06 -38309 0 -1.01031e+06 -40267.9 0 -1.00984e+06 -42233.2 0 -1.00934e+06 -44205.2 0 -1.00882e+06 -46184.2 0 -1.00827e+06 -48170.5 0 -1.00771e+06 -50164.3 0 -1.00712e+06 -52166 0 -1.00651e+06 -54175.9 0 -1.00588e+06 -56194.3 0 -1.00522e+06 -58221.5 0 -1.00455e+06 -60257.7 0 -1.00385e+06 -62303.4 0 -1.00313e+06 -64358.7 0 -1.00239e+06 -66424 0 -1.00162e+06 -68499.6 0 -1.00084e+06 -70585.7 0 -1.00003e+06 -72682.7 0 -999202 -74790.8 0 -998350 -76910.4 0 -997477 -79041.6 0 -996581 -81184.9 0 -995665 -83340.5 0 -994726 -85508.6 0 -993766 -87689.5 0 -992784 -89883.6 0 -991780 -92091 0 -990755 -94312 0 -989708 -96546.9 0 -988640 -98796 0 -987551 -101059 0 -986440 -103338 0 -985308 -105631 0 -984155 -107939 0 -982980 -110262 0 -981785 -112601 0 -980568 -114956 0 -979331 -117326 0 -978072 -119713 0 -976793 -122116 0 -975494 -124536 0 -974173 -126973 0 -972832 -129426 0 -971471 -131896 0 -970089 -134384 0 -968687 -136889 0 -967264 -139411 0 -965822 -141950 0 -964359 -144508 0 -962877 -147083 0 -961375 -149675 0 -959853 -152286 0 -958311 -154914 0 -956750 -157561 0 -955169 -160225 0 -953569 -162907 0 -951949 -165606 0 -950310 -168324 0 -948652 -171059 0 -946975 -173812 0 -945280 -176583 0 -943565 -179371 0 -941831 -182176 0 -940079 -184998 0 -938307 -187837 0 -936518 -190693 0 -934709 -193566 0 -932882 -196454 0 -931037 -199359 0 -929173 -202279 0 -927291 -205215 0 -925391 -208166 0 -923472 -211131 0 -921534 -214111 0 -919579 -217104 0 -917605 -220111 0 -915612 -223131 0 -913601 -226163 0 -911572 -229207 0 -909525 -232262 0 -907459 -235328 0 -905374 -238404 0 -903271 -241490 0 -901149 -244584 0 -899008 -247686 0 -896848 -250796 0 -894670 -253912 0 -892472 -257035 0 -890255 -260162 0 -888019 -263293 0 -885763 -266428 0 -883488 -269565 0 -881193 -272703 0 -878878 -275842 0 -876543 -278981 0 -874187 -282119 0 -871811 -285253 0 -869415 -288385 0 -866997 -291512 0 -864559 -294633 0 -862099 -297748 0 -859618 -300854 0 -857115 -303952 0 -854591 -307040 0 -852044 -310116 0 -849476 -313181 0 -846885 -316231 0 -844272 -319267 0 -1.01283e+06 0.00441053 0 -1.01282e+06 -1881.24 0 -1.01278e+06 -3762.78 0 -1.01273e+06 -5644.92 0 -1.01265e+06 -7527.98 0 -1.01255e+06 -9412.25 0 -1.01242e+06 -11298 0 -1.01228e+06 -13185.6 0 -1.01211e+06 -15075.4 0 -1.01192e+06 -16967.5 0 -1.0117e+06 -18862.4 0 -1.01147e+06 -20760.3 0 -1.01121e+06 -22661.6 0 -1.01093e+06 -24566.4 0 -1.01063e+06 -26475.3 0 -1.0103e+06 -28388.3 0 -1.00995e+06 -30306 0 -1.00958e+06 -32228.4 0 -1.00919e+06 -34156.1 0 -1.00878e+06 -36089.2 0 -1.00834e+06 -38028 0 -1.00788e+06 -39972.9 0 -1.0074e+06 -41924.2 0 -1.00689e+06 -43882.2 0 -1.00636e+06 -45847.2 0 -1.00581e+06 -47819.4 0 -1.00524e+06 -49799.2 0 -1.00465e+06 -51787 0 -1.00403e+06 -53782.9 0 -1.00339e+06 -55787.3 0 -1.00273e+06 -57800.5 0 -1.00205e+06 -59822.8 0 -1.00134e+06 -61854.5 0 -1.00061e+06 -63895.9 0 -999864 -65947.2 0 -999091 -68008.9 0 -998296 -70081.1 0 -997479 -72164.2 0 -996640 -74258.5 0 -995779 -76364.2 0 -994896 -78481.7 0 -993990 -80611.2 0 -993063 -82753 0 -992114 -84907.3 0 -991142 -87074.6 0 -990149 -89254.9 0 -989134 -91448.7 0 -988097 -93656.1 0 -987039 -95877.4 0 -985959 -98112.9 0 -984857 -100363 0 -983734 -102628 0 -982589 -104907 0 -981423 -107202 0 -980235 -109512 0 -979027 -111837 0 -977797 -114179 0 -976546 -116536 0 -975273 -118910 0 -973980 -121300 0 -972666 -123707 0 -971332 -126130 0 -969976 -128571 0 -968600 -131028 0 -967204 -133503 0 -965787 -135995 0 -964349 -138504 0 -962892 -141031 0 -961414 -143576 0 -959916 -146138 0 -958399 -148718 0 -956861 -151317 0 -955304 -153933 0 -953727 -156566 0 -952131 -159218 0 -950515 -161888 0 -948880 -164576 0 -947225 -167281 0 -945552 -170004 0 -943859 -172745 0 -942148 -175504 0 -940418 -178280 0 -938669 -181073 0 -936901 -183884 0 -935115 -186711 0 -933310 -189556 0 -931486 -192417 0 -929645 -195294 0 -927785 -198187 0 -925907 -201096 0 -924010 -204020 0 -922096 -206959 0 -920163 -209913 0 -918212 -212881 0 -916243 -215863 0 -914256 -218859 0 -912251 -221867 0 -910228 -224887 0 -908187 -227920 0 -906128 -230964 0 -904051 -234018 0 -901956 -237083 0 -899842 -240156 0 -897711 -243239 0 -895561 -246330 0 -893392 -249428 0 -891206 -252532 0 -889000 -255643 0 -886776 -258758 0 -884533 -261877 0 -882272 -265000 0 -879991 -268124 0 -877692 -271251 0 -875373 -274377 0 -873034 -277504 0 -870676 -280628 0 -868298 -283750 0 -865901 -286869 0 -863483 -289983 0 -861045 -293091 0 -858586 -296193 0 -856107 -299286 0 -853607 -302371 0 -851087 -305445 0 -848545 -308508 0 -845982 -311558 0 -843397 -314595 0 -840791 -317616 0 -1.01047e+06 0.00441043 0 -1.01046e+06 -1867.02 0 -1.01042e+06 -3734.35 0 -1.01036e+06 -5602.29 0 -1.01029e+06 -7471.14 0 -1.01018e+06 -9341.2 0 -1.01006e+06 -11212.8 0 -1.00991e+06 -13086.2 0 -1.00974e+06 -14961.7 0 -1.00955e+06 -16839.6 0 -1.00933e+06 -18720.3 0 -1.00909e+06 -20604 0 -1.00883e+06 -22491 0 -1.00855e+06 -24381.7 0 -1.00824e+06 -26276.3 0 -1.00791e+06 -28175.2 0 -1.00756e+06 -30078.6 0 -1.00719e+06 -31986.9 0 -1.00679e+06 -33900.3 0 -1.00637e+06 -35819.2 0 -1.00593e+06 -37743.9 0 -1.00546e+06 -39674.6 0 -1.00497e+06 -41611.7 0 -1.00446e+06 -43555.5 0 -1.00393e+06 -45506.3 0 -1.00338e+06 -47464.4 0 -1.0028e+06 -49430 0 -1.0022e+06 -51403.6 0 -1.00157e+06 -53385.3 0 -1.00093e+06 -55375.6 0 -1.00026e+06 -57374.7 0 -999566 -59382.9 0 -998852 -61400.4 0 -998116 -63427.7 0 -997357 -65465 0 -996575 -67512.6 0 -995771 -69570.8 0 -994945 -71639.9 0 -994097 -73720.2 0 -993226 -75811.9 0 -992332 -77915.4 0 -991417 -80030.9 0 -990479 -82158.8 0 -989519 -84299.3 0 -988536 -86452.7 0 -987532 -88619.2 0 -986506 -90799.1 0 -985457 -92992.8 0 -984387 -95200.4 0 -983295 -97422.2 0 -982181 -99658.5 0 -981045 -101910 0 -979888 -104175 0 -978709 -106457 0 -977508 -108753 0 -976286 -111065 0 -975042 -113394 0 -973778 -115738 0 -972492 -118098 0 -971184 -120475 0 -969856 -122868 0 -968507 -125279 0 -967137 -127706 0 -965746 -130151 0 -964335 -132612 0 -962903 -135091 0 -961451 -137588 0 -959978 -140102 0 -958485 -142634 0 -956972 -145184 0 -955439 -147752 0 -953886 -150337 0 -952313 -152941 0 -950721 -155563 0 -949109 -158202 0 -947477 -160860 0 -945827 -163535 0 -944157 -166229 0 -942467 -168940 0 -940759 -171669 0 -939032 -174416 0 -937287 -177180 0 -935522 -179961 0 -933739 -182760 0 -931937 -185576 0 -930117 -188409 0 -928279 -191258 0 -926423 -194124 0 -924548 -197005 0 -922655 -199903 0 -920745 -202816 0 -918816 -205744 0 -916870 -208686 0 -914905 -211643 0 -912923 -214614 0 -910923 -217598 0 -908906 -220595 0 -906871 -223604 0 -904818 -226625 0 -902747 -229658 0 -900659 -232701 0 -898553 -235754 0 -896429 -238817 0 -894288 -241888 0 -892129 -244967 0 -889952 -248054 0 -887757 -251147 0 -885544 -254246 0 -883313 -257349 0 -881064 -260457 0 -878796 -263568 0 -876510 -266681 0 -874206 -269795 0 -871883 -272910 0 -869541 -276024 0 -867181 -279137 0 -864801 -282247 0 -862403 -285353 0 -859985 -288454 0 -857547 -291550 0 -855090 -294639 0 -852613 -297720 0 -850116 -300791 0 -847599 -303853 0 -845062 -306902 0 -842504 -309939 0 -839926 -312963 0 -837327 -315971 0 -1.00813e+06 0.00441085 0 -1.00811e+06 -1852.65 0 -1.00808e+06 -3705.61 0 -1.00802e+06 -5559.18 0 -1.00794e+06 -7413.66 0 -1.00784e+06 -9269.35 0 -1.00771e+06 -11126.6 0 -1.00756e+06 -12985.6 0 -1.00739e+06 -14846.7 0 -1.0072e+06 -16710.3 0 -1.00698e+06 -18576.6 0 -1.00674e+06 -20445.9 0 -1.00647e+06 -22318.6 0 -1.00619e+06 -24194.9 0 -1.00588e+06 -26075.1 0 -1.00554e+06 -27959.6 0 -1.00519e+06 -29848.7 0 -1.00481e+06 -31742.6 0 -1.00441e+06 -33641.7 0 -1.00398e+06 -35546.2 0 -1.00354e+06 -37456.5 0 -1.00306e+06 -39372.9 0 -1.00257e+06 -41295.7 0 -1.00206e+06 -43225.1 0 -1.00152e+06 -45161.6 0 -1.00095e+06 -47105.3 0 -1.00037e+06 -49056.6 0 -999761 -51015.9 0 -999131 -52983.3 0 -998477 -54959.3 0 -997801 -56944.1 0 -997102 -58938 0 -996380 -60941.3 0 -995635 -62954.3 0 -994867 -64977.4 0 -994077 -67010.8 0 -993264 -69054.7 0 -992429 -71109.6 0 -991571 -73175.7 0 -990690 -75253.3 0 -989787 -77342.7 0 -988861 -79444.2 0 -987912 -81558 0 -986942 -83684.4 0 -985948 -85823.8 0 -984933 -87976.3 0 -983895 -90142.3 0 -982835 -92322.1 0 -981753 -94515.8 0 -980648 -96723.8 0 -979522 -98946.3 0 -978374 -101184 0 -977204 -103436 0 -976012 -105703 0 -974798 -107986 0 -973562 -110285 0 -972305 -112600 0 -971027 -114930 0 -969727 -117277 0 -968406 -119641 0 -967063 -122021 0 -965700 -124418 0 -964315 -126832 0 -962910 -129264 0 -961484 -131712 0 -960037 -134179 0 -958569 -136662 0 -957081 -139164 0 -955573 -141683 0 -954045 -144220 0 -952496 -146775 0 -950928 -149348 0 -949339 -151940 0 -947731 -154549 0 -946103 -157176 0 -944456 -159821 0 -942790 -162485 0 -941104 -165166 0 -939399 -167865 0 -937675 -170583 0 -935933 -173317 0 -934171 -176070 0 -932391 -178840 0 -930593 -181627 0 -928776 -184431 0 -926941 -187252 0 -925088 -190090 0 -923216 -192944 0 -921327 -195815 0 -919420 -198701 0 -917495 -201603 0 -915552 -204519 0 -913592 -207451 0 -911614 -210396 0 -909619 -213356 0 -907606 -216329 0 -905576 -219315 0 -903528 -222313 0 -901464 -225324 0 -899382 -228345 0 -897282 -231377 0 -895166 -234419 0 -893032 -237471 0 -890881 -240531 0 -888712 -243600 0 -886526 -246675 0 -884323 -249757 0 -882103 -252844 0 -879865 -255937 0 -877609 -259033 0 -875336 -262133 0 -873045 -265234 0 -870736 -268337 0 -868409 -271440 0 -866064 -274543 0 -863701 -277644 0 -861320 -280742 0 -858921 -283836 0 -856502 -286926 0 -854065 -290010 0 -851610 -293086 0 -849135 -296155 0 -846641 -299214 0 -844128 -302263 0 -841596 -305300 0 -839043 -308325 0 -836472 -311335 0 -833880 -314331 0 -1.0058e+06 0.00441082 0 -1.00579e+06 -1838.12 0 -1.00575e+06 -3676.55 0 -1.0057e+06 -5515.59 0 -1.00562e+06 -7355.53 0 -1.00551e+06 -9196.69 0 -1.00538e+06 -11039.4 0 -1.00523e+06 -12883.9 0 -1.00506e+06 -14730.5 0 -1.00486e+06 -16579.5 0 -1.00464e+06 -18431.3 0 -1.0044e+06 -20286.1 0 -1.00413e+06 -22144.2 0 -1.00384e+06 -24006 0 -1.00353e+06 -25871.7 0 -1.00319e+06 -27741.7 0 -1.00283e+06 -29616.2 0 -1.00245e+06 -31495.6 0 -1.00204e+06 -33380.1 0 -1.00161e+06 -35270.2 0 -1.00116e+06 -37165.9 0 -1.00068e+06 -39067.8 0 -1.00019e+06 -40976.1 0 -999664 -42891 0 -999119 -44813 0 -998551 -46742.2 0 -997959 -48679.1 0 -997345 -50623.8 0 -996707 -52576.8 0 -996046 -54538.3 0 -995362 -56508.6 0 -994655 -58488.1 0 -993925 -60477 0 -993172 -62475.6 0 -992396 -64484.3 0 -991597 -66503.3 0 -990775 -68532.9 0 -989931 -70573.5 0 -989063 -72625.2 0 -988172 -74688.5 0 -987259 -76763.6 0 -986323 -78850.8 0 -985364 -80950.4 0 -984382 -83062.7 0 -983378 -85187.9 0 -982351 -87326.3 0 -981302 -89478.3 0 -980230 -91644 0 -979136 -93823.7 0 -978020 -96017.7 0 -976881 -98226.3 0 -975720 -100450 0 -974537 -102688 0 -973332 -104942 0 -972105 -107211 0 -970856 -109496 0 -969586 -111797 0 -968293 -114114 0 -966980 -116448 0 -965644 -118798 0 -964288 -121165 0 -962910 -123549 0 -961510 -125949 0 -960090 -128368 0 -958649 -130803 0 -957187 -133256 0 -955705 -135727 0 -954201 -138216 0 -952678 -140722 0 -951134 -143247 0 -949570 -145789 0 -947986 -148350 0 -946382 -150928 0 -944758 -153525 0 -943114 -156140 0 -941452 -158773 0 -939769 -161425 0 -938068 -164094 0 -936347 -166781 0 -934608 -169486 0 -932849 -172209 0 -931072 -174950 0 -929277 -177708 0 -927463 -180484 0 -925631 -183277 0 -923780 -186086 0 -921912 -188913 0 -920026 -191756 0 -918122 -194615 0 -916200 -197490 0 -914261 -200380 0 -912304 -203286 0 -910330 -206207 0 -908338 -209141 0 -906330 -212090 0 -904304 -215052 0 -902261 -218027 0 -900201 -221015 0 -898125 -224014 0 -896031 -227025 0 -893921 -230047 0 -891793 -233078 0 -889649 -236119 0 -887489 -239168 0 -885311 -242226 0 -883116 -245291 0 -880905 -248362 0 -878677 -251439 0 -876432 -254520 0 -874170 -257606 0 -871891 -260694 0 -869595 -263785 0 -867281 -266877 0 -864951 -269969 0 -862603 -273060 0 -860237 -276150 0 -857855 -279237 0 -855454 -282320 0 -853036 -285398 0 -850599 -288470 0 -848145 -291535 0 -845673 -294591 0 -843182 -297639 0 -840673 -300676 0 -838145 -303701 0 -835598 -306713 0 -833033 -309712 0 -830449 -312695 0 -1.0035e+06 0.00440988 0 -1.00348e+06 -1823.43 0 -1.00345e+06 -3647.17 0 -1.00339e+06 -5471.51 0 -1.00331e+06 -7296.77 0 -1.0032e+06 -9123.24 0 -1.00307e+06 -10951.2 0 -1.00292e+06 -12781 0 -1.00275e+06 -14612.9 0 -1.00255e+06 -16447.3 0 -1.00232e+06 -18284.4 0 -1.00208e+06 -20124.5 0 -1.00181e+06 -21967.9 0 -1.00151e+06 -23815 0 -1.0012e+06 -25666 0 -1.00086e+06 -27521.3 0 -1.00049e+06 -29381.2 0 -1.00011e+06 -31245.9 0 -999696 -33115.7 0 -999262 -34991.1 0 -998804 -36872.2 0 -998323 -38759.4 0 -997819 -40652.9 0 -997291 -42553.2 0 -996740 -44460.5 0 -996166 -46375.1 0 -995568 -48297.3 0 -994946 -50227.4 0 -994302 -52165.8 0 -993634 -54112.7 0 -992942 -56068.4 0 -992227 -58033.2 0 -991489 -60007.6 0 -990728 -61991.6 0 -989944 -63985.7 0 -989136 -65990.2 0 -988305 -68005.3 0 -987451 -70031.3 0 -986573 -72068.6 0 -985673 -74117.5 0 -984749 -76178.2 0 -983803 -78251 0 -982834 -80336.2 0 -981841 -82434.1 0 -980826 -84545 0 -979788 -86669.2 0 -978727 -88806.9 0 -977644 -90958.4 0 -976538 -93124 0 -975409 -95303.9 0 -974258 -97498.4 0 -973085 -99707.8 0 -971889 -101932 0 -970671 -104172 0 -969430 -106427 0 -968168 -108699 0 -966884 -110986 0 -965578 -113289 0 -964250 -115609 0 -962900 -117946 0 -961529 -120299 0 -960137 -122670 0 -958723 -125057 0 -957288 -127462 0 -955832 -129885 0 -954355 -132325 0 -952857 -134782 0 -951339 -137258 0 -949800 -139752 0 -948240 -142263 0 -946661 -144793 0 -945061 -147341 0 -943441 -149907 0 -941801 -152492 0 -940142 -155094 0 -938463 -157715 0 -936765 -160354 0 -935048 -163011 0 -933311 -165687 0 -931556 -168380 0 -929782 -171091 0 -927989 -173820 0 -926178 -176567 0 -924349 -179331 0 -922501 -182113 0 -920635 -184911 0 -918752 -187726 0 -916851 -190558 0 -914932 -193406 0 -912995 -196270 0 -911042 -199149 0 -909071 -202044 0 -907083 -204954 0 -905078 