<?xml version="1.0"?> 
<VTKFile type="StructuredGrid" version="0.1"> 
<StructuredGrid WholeExtent="0 127 0 127 0 0"> 
<Piece Extent="0 127 0 127 0 0"> 
<PointData>
<DataArray type="Float32" Name="E" format="ascii" NumberOfComponents="3"> 
-1.01866e+06 0 0 -1.01866e+06 0 0 -1.01866e+06 0 0 -1.01866e+06 0 0 -1.01865e+06 0 0 -1.01865e+06 0 0 -1.01864e+06 0 0 -1.01863e+06 0 0 -1.01862e+06 0 0 -1.01861e+06 0 0 -1.0186e+06 0 0 -1.01859e+06 0 0 -1.01858e+06 0 0 -1.01856e+06 0 0 -1.01855e+06 0 0 -1.01853e+06 0 0 -1.01851e+06 0 0 -1.0185e+06 0 0 -1.01848e+06 0 0 -1.01845e+06 0 0 -1.01843e+06 0 0 -1.01841e+06 0 0 -1.01838e+06 0 0 -1.01836e+06 0 0 -1.01833e+06 0 0 -1.0183e+06 0 0 -1.01827e+06 0 0 -1.01824e+06 0 0 -1.01821e+06 0 0 -1.01818e+06 0 0 -1.01815e+06 0 0 -1.01811e+06 0 0 -1.01808e+06 0 0 -1.01804e+06 0 0 -1.018e+06 0 0 -1.01796e+06 0 0 -1.01792e+06 0 0 -1.01788e+06 0 0 -1.01784e+06 0 0 -1.01779e+06 0 0 -1.01775e+06 0 0 -1.0177e+06 0 0 -1.01765e+06 0 0 -1.0176e+06 0 0 -1.01755e+06 0 0 -1.0175e+06 0 0 -1.01745e+06 0 0 -1.0174e+06 0 0 -1.01734e+06 0 0 -1.01729e+06 0 0 -1.01723e+06 0 0 -1.01718e+06 0 0 -1.01712e+06 0 0 -1.01706e+06 0 0 -1.017e+06 0 0 -1.01693e+06 0 0 -1.01687e+06 0 0 -1.01681e+06 0 0 -1.01674e+06 0 0 -1.01667e+06 0 0 -1.01661e+06 0 0 -1.01654e+06 0 0 -1.01647e+06 0 0 -1.0164e+06 0 0 -1.01632e+06 0 0 -1.01625e+06 0 0 -1.01617e+06 0 0 -1.0161e+06 0 0 -1.01602e+06 0 0 -1.01594e+06 0 0 -1.01586e+06 0 0 -1.01578e+06 0 0 -1.0157e+06 0 0 -1.01562e+06 0 0 -1.01554e+06 0 0 -1.01545e+06 0 0 -1.01537e+06 0 0 -1.01528e+06 0 0 -1.01519e+06 0 0 -1.0151e+06 0 0 -1.01501e+06 0 0 -1.01492e+06 0 0 -1.01483e+06 0 0 -1.01473e+06 0 0 -1.01464e+06 0 0 -1.01454e+06 0 0 -1.01445e+06 0 0 -1.01435e+06 0 0 -1.01425e+06 0 0 -1.01415e+06 0 0 -1.01405e+06 0 0 -1.01394e+06 0 0 -1.01384e+06 0 0 -1.01373e+06 0 0 -1.01363e+06 0 0 -1.01352e+06 0 0 -1.01341e+06 0 0 -1.0133e+06 0 0 -1.01319e+06 0 0 -1.01308e+06 0 0 -1.01297e+06 0 0 -1.01285e+06 0 0 -1.01274e+06 0 0 -1.01262e+06 0 0 -1.0125e+06 0 0 -1.01239e+06 0 0 -1.01227e+06 0 0 -1.01215e+06 0 0 -1.01202e+06 0 0 -1.0119e+06 0 0 -1.01178e+06 0 0 -1.01165e+06 0 0 -1.01153e+06 0 0 -1.0114e+06 0 0 -1.01127e+06 0 0 -1.01114e+06 0 0 -1.01101e+06 0 0 -1.01088e+06 0 0 -1.01075e+06 0 0 -1.01061e+06 0 0 -1.01048e+06 0 0 -1.01034e+06 0 0 -1.0102e+06 0 0 -1.01007e+06 0 0 -1.00993e+06 0 0 -1.00978e+06 0 0 -1.00964e+06 0 0 -1.0095e+06 0 0 -1.01866e+06 1.84416e-07 0 -1.01866e+06 1.94817 0 -1.01866e+06 3.89632 0 -1.01866e+06 5.84446 0 -1.01865e+06 7.79256 0 -1.01865e+06 9.74063 0 -1.01864e+06 11.6886 0 -1.01863e+06 13.6366 0 -1.01863e+06 15.5845 0 -1.01862e+06 17.5323 0 -1.01861e+06 19.48 0 -1.01859e+06 21.4276 0 -1.01858e+06 23.3752 0 -1.01857e+06 25.3226 0 -1.01855e+06 27.2698 0 -1.01853e+06 29.217 0 -1.01852e+06 31.1639 0 -1.0185e+06 33.1108 0 -1.01848e+06 35.0574 0 -1.01846e+06 37.0039 0 -1.01843e+06 38.9502 0 -1.01841e+06 40.8963 0 -1.01839e+06 42.8422 0 -1.01836e+06 44.7878 0 -1.01833e+06 46.7333 0 -1.01831e+06 48.6785 0 -1.01828e+06 50.6234 0 -1.01825e+06 52.5681 0 -1.01821e+06 54.5126 0 -1.01818e+06 56.4567 0 -1.01815e+06 58.4006 0 -1.01811e+06 60.3442 0 -1.01808e+06 62.2874 0 -1.01804e+06 64.2304 0 -1.018e+06 66.173 0 -1.01796e+06 68.1153 0 -1.01792e+06 70.0572 0 -1.01788e+06 71.9988 0 -1.01784e+06 73.94 0 -1.01779e+06 75.8808 0 -1.01775e+06 77.8212 0 -1.0177e+06 79.7613 0 -1.01765e+06 81.7009 0 -1.01761e+06 83.6401 0 -1.01756e+06 85.5789 0 -1.01751e+06 87.5173 0 -1.01745e+06 89.4552 0 -1.0174e+06 91.3926 0 -1.01735e+06 93.3296 0 -1.01729e+06 95.266 0 -1.01723e+06 97.202 0 -1.01718e+06 99.1376 0 -1.01712e+06 101.073 0 -1.01706e+06 103.007 0 -1.017e+06 104.941 0 -1.01693e+06 106.874 0 -1.01687e+06 108.807 0 -1.01681e+06 110.74 0 -1.01674e+06 112.671 0 -1.01667e+06 114.602 0 -1.01661e+06 116.533 0 -1.01654e+06 118.463 0 -1.01647e+06 120.392 0 -1.0164e+06 122.321 0 -1.01632e+06 124.249 0 -1.01625e+06 126.177 0 -1.01618e+06 128.104 0 -1.0161e+06 130.03 0 -1.01602e+06 131.955 0 -1.01595e+06 133.88 0 -1.01587e+06 135.804 0 -1.01579e+06 137.728 0 -1.0157e+06 139.651 0 -1.01562e+06 141.573 0 -1.01554e+06 143.494 0 -1.01545e+06 145.415 0 -1.01537e+06 147.335 0 -1.01528e+06 149.254 0 -1.01519e+06 151.173 0 -1.0151e+06 153.09 0 -1.01501e+06 155.007 0 -1.01492e+06 156.924 0 -1.01483e+06 158.839 0 -1.01474e+06 160.754 0 -1.01464e+06 162.668 0 -1.01454e+06 164.581 0 -1.01445e+06 166.493 0 -1.01435e+06 168.405 0 -1.01425e+06 170.316 0 -1.01415e+06 172.226 0 -1.01405e+06 174.135 0 -1.01394e+06 176.044 0 -1.01384e+06 177.951 0 -1.01374e+06 179.858 0 -1.01363e+06 181.764 0 -1.01352e+06 183.67 0 -1.01341e+06 185.574 0 -1.0133e+06 187.478 0 -1.01319e+06 189.381 0 -1.01308e+06 191.283 0 -1.01297e+06 193.184 0 -1.01286e+06 195.085 0 -1.01274e+06 196.985 0 -1.01262e+06 198.884 0 -1.01251e+06 200.782 0 -1.01239e+06 202.68 0 -1.01227e+06 204.577 0 -1.01215e+06 206.473 0 -1.01203e+06 208.369 0 -1.0119e+06 210.264 0 -1.01178e+06 212.158 0 -1.01165e+06 214.052 0 -1.01153e+06 215.945 0 -1.0114e+06 217.837 0 -1.01127e+06 219.729 0 -1.01114e+06 221.621 0 -1.01101e+06 223.512 0 -1.01088e+06 225.402 0 -1.01075e+06 227.292 0 -1.01061e+06 229.182 0 -1.01048e+06 231.071 0 -1.01034e+06 232.96 0 -1.01021e+06 234.849 0 -1.01007e+06 236.738 0 -1.00993e+06 238.626 0 -1.00979e+06 240.515 0 -1.00964e+06 242.403 0 -1.0095e+06 244.292 0 -1.01867e+06 3.69814e-07 0 -1.01867e+06 3.89636 0 -1.01866e+06 7.7927 0 -1.01866e+06 11.689 0 -1.01866e+06 15.5852 0 -1.01865e+06 19.4814 0 -1.01865e+06 23.3775 0 -1.01864e+06 27.2734 0 -1.01863e+06 31.1692 0 -1.01862e+06 35.0649 0 -1.01861e+06 38.9603 0 -1.0186e+06 42.8556 0 -1.01858e+06 46.7507 0 -1.01857e+06 50.6455 0 -1.01856e+06 54.5401 0 -1.01854e+06 58.4343 0 -1.01852e+06 62.3283 0 -1.0185e+06 66.222 0 -1.01848e+06 70.1154 0 -1.01846e+06 74.0084 0 -1.01844e+06 77.901 0 -1.01842e+06 81.7932 0 -1.01839e+06 85.685 0 -1.01836e+06 89.5764 0 -1.01834e+06 93.4673 0 -1.01831e+06 97.3577 0 -1.01828e+06 101.248 0 -1.01825e+06 105.137 0 -1.01822e+06 109.026 0 -1.01819e+06 112.914 0 -1.01815e+06 116.802 0 -1.01812e+06 120.689 0 -1.01808e+06 124.576 0 -1.01804e+06 128.462 0 -1.01801e+06 132.347 0 -1.01797e+06 136.232 0 -1.01793e+06 140.115 0 -1.01788e+06 143.999 0 -1.01784e+06 147.881 0 -1.0178e+06 151.763 0 -1.01775e+06 155.644 0 -1.01771e+06 159.524 0 -1.01766e+06 163.403 0 -1.01761e+06 167.281 0 -1.01756e+06 171.159 0 -1.01751e+06 175.036 0 -1.01746e+06 178.912 0 -1.01741e+06 182.787 0 -1.01735e+06 186.661 0 -1.0173e+06 190.534 0 -1.01724e+06 194.406 0 -1.01718e+06 198.277 0 -1.01712e+06 202.147 0 -1.01706e+06 206.016 0 -1.017e+06 209.883 0 -1.01694e+06 213.75 0 -1.01688e+06 217.616 0 -1.01681e+06 221.481 0 -1.01675e+06 225.344 0 -1.01668e+06 229.207 0 -1.01661e+06 233.068 0 -1.01654e+06 236.928 0 -1.01647e+06 240.786 0 -1.0164e+06 244.644 0 -1.01633e+06 248.5 0 -1.01626e+06 252.355 0 -1.01618e+06 256.209 0 -1.01611e+06 260.061 0 -1.01603e+06 263.913 0 -1.01595e+06 267.762 0 -1.01587e+06 271.611 0 -1.01579e+06 275.458 0 -1.01571e+06 279.304 0 -1.01563e+06 283.148 0 -1.01554e+06 286.991 0 -1.01546e+06 290.832 0 -1.01537e+06 294.672 0 -1.01529e+06 298.511 0 -1.0152e+06 302.348 0 -1.01511e+06 306.183 0 -1.01502e+06 310.017 0 -1.01493e+06 313.85 0 -1.01483e+06 317.681 0 -1.01474e+06 321.51 0 -1.01464e+06 325.338 0 -1.01455e+06 329.164 0 -1.01445e+06 332.989 0 -1.01435e+06 336.812 0 -1.01425e+06 340.634 0 -1.01415e+06 344.454 0 -1.01405e+06 348.273 0 -1.01395e+06 352.09 0 -1.01385e+06 355.905 0 -1.01374e+06 359.719 0 -1.01363e+06 363.531 0 -1.01353e+06 367.342 0 -1.01342e+06 371.151 0 -1.01331e+06 374.958 0 -1.0132e+06 378.764 0 -1.01309e+06 382.568 0 -1.01297e+06 386.371 0 -1.01286e+06 390.172 0 -1.01274e+06 393.972 0 -1.01263e+06 397.77 0 -1.01251e+06 401.567 0 -1.01239e+06 405.362 0 -1.01227e+06 409.156 0 -1.01215e+06 412.949 0 -1.01203e+06 416.74 0 -1.01191e+06 420.53 0 -1.01178e+06 424.318 0 -1.01166e+06 428.106 0 -1.01153e+06 431.892 0 -1.01141e+06 435.676 0 -1.01128e+06 439.46 0 -1.01115e+06 443.243 0 -1.01102e+06 447.025 0 -1.01089e+06 450.806 0 -1.01075e+06 454.586 0 -1.01062e+06 458.365 0 -1.01048e+06 462.144 0 -1.01035e+06 465.922 0 -1.01021e+06 469.699 0 -1.01007e+06 473.476 0 -1.00993e+06 477.253 0 -1.00979e+06 481.03 0 -1.00965e+06 484.806 0 -1.00951e+06 488.583 0 -1.01868e+06 5.52504e-07 0 -1.01868e+06 5.84461 0 -1.01867e+06 11.6892 0 -1.01867e+06 17.5337 0 -1.01867e+06 23.3781 0 -1.01866e+06 29.2225 0 -1.01865e+06 35.0666 0 -1.01865e+06 40.9106 0 -1.01864e+06 46.7544 0 -1.01863e+06 52.5979 0 -1.01862e+06 58.4412 0 -1.01861e+06 64.2842 0 -1.01859e+06 70.1269 0 -1.01858e+06 75.9692 0 -1.01856e+06 81.8111 0 -1.01855e+06 87.6526 0 -1.01853e+06 93.4937 0 -1.01851e+06 99.3342 0 -1.01849e+06 105.174 0 -1.01847e+06 111.014 0 -1.01845e+06 116.853 0 -1.01842e+06 122.691 0 -1.0184e+06 128.529 0 -1.01837e+06 134.366 0 -1.01835e+06 140.203 0 -1.01832e+06 146.038 0 -1.01829e+06 151.873 0 -1.01826e+06 157.708 0 -1.01823e+06 163.541 0 -1.01819e+06 169.374 0 -1.01816e+06 175.205 0 -1.01813e+06 181.036 0 -1.01809e+06 186.866 0 -1.01805e+06 192.695 0 -1.01801e+06 198.523 0 -1.01798e+06 204.35 0 -1.01793e+06 210.176 0 -1.01789e+06 216.001 0 -1.01785e+06 221.824 0 -1.01781e+06 227.647 0 -1.01776e+06 233.468 0 -1.01772e+06 239.289 0 -1.01767e+06 245.108 0 -1.01762e+06 250.925 0 -1.01757e+06 256.742 0 -1.01752e+06 262.557 0 -1.01747e+06 268.371 0 -1.01741e+06 274.183 0 -1.01736e+06 279.994 0 -1.0173e+06 285.804 0 -1.01725e+06 291.612 0 -1.01719e+06 297.419 0 -1.01713e+06 303.224 0 -1.01707e+06 309.027 0 -1.01701e+06 314.829 0 -1.01695e+06 320.629 0 -1.01688e+06 326.428 0 -1.01682e+06 332.225 0 -1.01675e+06 338.021 0 -1.01669e+06 343.814 0 -1.01662e+06 349.606 0 -1.01655e+06 355.396 0 -1.01648e+06 361.184 0 -1.01641e+06 366.971 0 -1.01634e+06 372.755 0 -1.01626e+06 378.538 0 -1.01619e+06 384.318 0 -1.01611e+06 390.097 0 -1.01604e+06 395.874 0 -1.01596e+06 401.648 0 -1.01588e+06 407.421 0 -1.0158e+06 413.192 0 -1.01572e+06 418.96 0 -1.01564e+06 424.727 0 -1.01555e+06 430.491 0 -1.01547e+06 436.253 0 -1.01538e+06 442.013 0 -1.01529e+06 447.771 0 -1.01521e+06 453.527 0 -1.01512e+06 459.28 0 -1.01503e+06 465.031 0 -1.01493e+06 470.78 0 -1.01484e+06 476.527 0 -1.01475e+06 482.271 0 -1.01465e+06 488.013 0 -1.01456e+06 493.752 0 -1.01446e+06 499.49 0 -1.01436e+06 505.224 0 -1.01426e+06 510.957 0 -1.01416e+06 516.687 0 -1.01406e+06 522.415 0 -1.01396e+06 528.14 0 -1.01385e+06 533.863 0 -1.01375e+06 539.584 0 -1.01364e+06 545.302 0 -1.01353e+06 551.018 0 -1.01343e+06 556.732 0 -1.01332e+06 562.443 0 -1.01321e+06 568.151 0 -1.01309e+06 573.858 0 -1.01298e+06 579.562 0 -1.01287e+06 585.264 0 -1.01275e+06 590.963 0 -1.01264e+06 596.661 0 -1.01252e+06 602.356 0 -1.0124e+06 608.049 0 -1.01228e+06 613.739 0 -1.01216e+06 619.428 0 -1.01204e+06 625.115 0 -1.01192e+06 630.799 0 -1.01179e+06 636.482 0 -1.01167e+06 642.163 0 -1.01154e+06 647.842 0 -1.01141e+06 653.519 0 -1.01129e+06 659.194 0 -1.01116e+06 664.868 0 -1.01103e+06 670.541 0 -1.01089e+06 676.212 0 -1.01076e+06 681.881 0 -1.01063e+06 687.55 0 -1.01049e+06 693.218 0 -1.01036e+06 698.884 0 -1.01022e+06 704.55 0 -1.01008e+06 710.215 0 -1.00994e+06 715.88 0 -1.0098e+06 721.545 0 -1.00966e+06 727.209 0 -1.00951e+06 732.874 0 -1.01869e+06 7.38106e-07 0 -1.01869e+06 7.79295 0 -1.01868e+06 15.5859 0 -1.01868e+06 23.3787 0 -1.01868e+06 31.1714 0 -1.01867e+06 38.9639 0 -1.01867e+06 46.7563 0 -1.01866e+06 54.5484 0 -1.01865e+06 62.3403 0 -1.01864e+06 70.1318 0 -1.01863e+06 77.923 0 -1.01862e+06 85.7137 0 -1.0186e+06 93.5041 0 -1.01859e+06 101.294 0 -1.01858e+06 109.083 0 -1.01856e+06 116.872 0 -1.01854e+06 124.66 0 -1.01852e+06 132.448 0 -1.0185e+06 140.235 0 -1.01848e+06 148.021 0 -1.01846e+06 155.807 0 -1.01844e+06 163.591 0 -1.01841e+06 171.375 0 -1.01838e+06 179.158 0 -1.01836e+06 186.94 0 -1.01833e+06 194.721 0 -1.0183e+06 202.501 0 -1.01827e+06 210.28 0 -1.01824e+06 218.058 0 -1.01821e+06 225.835 0 -1.01817e+06 233.611 0 -1.01814e+06 241.386 0 -1.0181e+06 249.159 0 -1.01806e+06 256.931 0 -1.01803e+06 264.702 0 -1.01799e+06 272.471 0 -1.01795e+06 280.239 0 -1.0179e+06 288.006 0 -1.01786e+06 295.771 0 -1.01782e+06 303.534 0 -1.01777e+06 311.297 0 -1.01773e+06 319.057 0 -1.01768e+06 326.816 0 -1.01763e+06 334.573 0 -1.01758e+06 342.328 0 -1.01753e+06 350.082 0 -1.01748e+06 357.834 0 -1.01743e+06 365.584 0 -1.01737e+06 373.332 0 -1.01732e+06 381.078 0 -1.01726e+06 388.823 0 -1.0172e+06 396.565 0 -1.01714e+06 404.305 0 -1.01708e+06 412.043 0 -1.01702e+06 419.78 0 -1.01696e+06 427.513 0 -1.0169e+06 435.245 0 -1.01683e+06 442.975 0 -1.01677e+06 450.702 0 -1.0167e+06 458.427 0 -1.01663e+06 466.149 0 -1.01656e+06 473.869 0 -1.01649e+06 481.587 0 -1.01642e+06 489.303 0 -1.01635e+06 497.015 0 -1.01628e+06 504.726 0 -1.0162e+06 512.433 0 -1.01613e+06 520.138 0 -1.01605e+06 527.841 0 -1.01597e+06 535.54 0 -1.01589e+06 543.238 0 -1.01581e+06 550.932 0 -1.01573e+06 558.623 0 -1.01565e+06 566.312 0 -1.01556e+06 573.998 0 -1.01548e+06 581.681 0 -1.01539e+06 589.361 0 -1.01531e+06 597.038 0 -1.01522e+06 604.712 0 -1.01513e+06 612.384 0 -1.01504e+06 620.052 0 -1.01495e+06 627.717 0 -1.01485e+06 635.379 0 -1.01476e+06 643.038 0 -1.01466e+06 650.694 0 -1.01457e+06 658.347 0 -1.01447e+06 665.997 0 -1.01437e+06 673.643 0 -1.01427e+06 681.287 0 -1.01417e+06 688.927 0 -1.01407e+06 696.564 0 -1.01397e+06 704.198 0 -1.01386e+06 711.828 0 -1.01376e+06 719.456 0 -1.01365e+06 727.08 0 -1.01355e+06 734.701 0 -1.01344e+06 742.319 0 -1.01333e+06 749.934 0 -1.01322e+06 757.546 0 -1.01311e+06 765.154 0 -1.01299e+06 772.76 0 -1.01288e+06 780.362 0 -1.01276e+06 787.961 0 -1.01265e+06 795.558 0 -1.01253e+06 803.151 0 -1.01241e+06 810.741 0 -1.01229e+06 818.329 0 -1.01217e+06 825.913 0 -1.01205e+06 833.495 0 -1.01193e+06 841.075 0 -1.0118e+06 848.651 0 -1.01168e+06 856.225 0 -1.01155e+06 863.797 0 -1.01142e+06 871.366 0 -1.0113e+06 878.933 0 -1.01117e+06 886.498 0 -1.01104e+06 894.06 0 -1.0109e+06 901.621 0 -1.01077e+06 909.18 0 -1.01064e+06 916.738 0 -1.0105e+06 924.294 0 -1.01037e+06 931.849 0 -1.01023e+06 939.403 0 -1.01009e+06 946.956 0 -1.00995e+06 954.508 0 -1.00981e+06 962.06 0 -1.00967e+06 969.612 0 -1.00953e+06 977.164 0 -1.0187e+06 9.21071e-07 0 -1.0187e+06 9.7414 0 -1.0187e+06 19.4827 0 -1.0187e+06 29.224 0 -1.01869e+06 38.9651 0 -1.01869e+06 48.706 0 -1.01868e+06 58.4467 0 -1.01867e+06 68.187 0 -1.01867e+06 77.927 0 -1.01866e+06 87.6667 0 -1.01864e+06 97.4058 0 -1.01863e+06 107.145 0 -1.01862e+06 116.883 0 -1.01861e+06 126.62 0 -1.01859e+06 136.357 0 -1.01857e+06 146.093 0 -1.01856e+06 155.829 0 -1.01854e+06 165.564 0 -1.01852e+06 175.297 0 -1.0185e+06 185.03 0 -1.01847e+06 194.762 0 -1.01845e+06 204.493 0 -1.01843e+06 214.224 0 -1.0184e+06 223.952 0 -1.01837e+06 233.68 0 -1.01834e+06 243.407 0 -1.01832e+06 253.132 0 -1.01829e+06 262.856 0 -1.01825e+06 272.579 0 -1.01822e+06 282.3 0 -1.01819e+06 292.02 0 -1.01815e+06 301.739 0 -1.01812e+06 311.456 0 -1.01808e+06 321.171 0 -1.01804e+06 330.885 0 -1.018e+06 340.597 0 -1.01796e+06 350.307 0 -1.01792e+06 360.015 0 -1.01788e+06 369.722 0 -1.01783e+06 379.427 0 -1.01779e+06 389.129 0 -1.01774e+06 398.83 0 -1.01769e+06 408.529 0 -1.01765e+06 418.226 0 -1.0176e+06 427.92 0 -1.01755e+06 437.612 0 -1.01749e+06 447.302 0 -1.01744e+06 456.99 0 -1.01739e+06 466.676 0 -1.01733e+06 476.359 0 -1.01727e+06 486.039 0 -1.01722e+06 495.717 0 -1.01716e+06 505.393 0 -1.0171e+06 515.066 0 -1.01704e+06 524.736 0 -1.01697e+06 534.404 0 -1.01691e+06 544.069 0 -1.01685e+06 553.731 0 -1.01678e+06 563.39 0 -1.01671e+06 573.046 0 -1.01665e+06 582.7 0 -1.01658e+06 592.35 0 -1.01651e+06 601.997 0 -1.01644e+06 611.642 0 -1.01636e+06 621.283 0 -1.01629e+06 630.921 0 -1.01622e+06 640.556 0 -1.01614e+06 650.187 0 -1.01606e+06 659.815 0 -1.01599e+06 669.44 0 -1.01591e+06 679.062 0 -1.01583e+06 688.68 0 -1.01574e+06 698.294 0 -1.01566e+06 707.906 0 -1.01558e+06 717.513 0 -1.01549e+06 727.117 0 -1.01541e+06 736.717 0 -1.01532e+06 746.314 0 -1.01523e+06 755.907 0 -1.01514e+06 765.496 0 -1.01505e+06 775.081 0 -1.01496e+06 784.663 0 -1.01487e+06 794.241 0 -1.01477e+06 803.815 0 -1.01468e+06 813.385 0 -1.01458e+06 822.951 0 -1.01449e+06 832.513 0 -1.01439e+06 842.071 0 -1.01429e+06 851.625 0 -1.01419e+06 861.176 0 -1.01409e+06 870.722 0 -1.01398e+06 880.265 0 -1.01388e+06 889.803 0 -1.01377e+06 899.337 0 -1.01367e+06 908.868 0 -1.01356e+06 918.394 0 -1.01345e+06 927.916 0 -1.01334e+06 937.435 0 -1.01323e+06 946.949 0 -1.01312e+06 956.46 0 -1.01301e+06 965.966 0 -1.01289e+06 975.469 0 -1.01278e+06 984.968 0 -1.01266e+06 994.463 0 -1.01255e+06 1003.95 0 -1.01243e+06 1013.44 0 -1.01231e+06 1022.93 0 -1.01219e+06 1032.41 0 -1.01206e+06 1041.88 0 -1.01194e+06 1051.36 0 -1.01182e+06 1060.83 0 -1.01169e+06 1070.29 0 -1.01157e+06 1079.76 0 -1.01144e+06 1089.22 0 -1.01131e+06 1098.68 0 -1.01118e+06 1108.13 0 -1.01105e+06 1117.59 0 -1.01092e+06 1127.04 0 -1.01079e+06 1136.48 0 -1.01065e+06 1145.93 0 -1.01052e+06 1155.37 0 -1.01038e+06 1164.82 0 -1.01024e+06 1174.26 0 -1.01011e+06 1183.7 0 -1.00997e+06 1193.14 0 -1.00983e+06 1202.58 0 -1.00968e+06 1212.01 0 -1.00954e+06 1221.45 0 -1.01872e+06 1.10608e-06 0 -1.01872e+06 11.69 0 -1.01872e+06 23.3799 0 -1.01872e+06 35.0697 0 -1.01871e+06 46.7594 0 -1.01871e+06 58.4488 0 -1.0187e+06 70.1379 0 -1.01869e+06 81.8266 0 -1.01868e+06 93.515 0 -1.01867e+06 105.203 0 -1.01866e+06 116.89 0 -1.01865e+06 128.577 0 -1.01864e+06 140.263 0 -1.01862e+06 151.948 0 -1.01861e+06 163.633 0 -1.01859e+06 175.317 0 -1.01857e+06 187 0 -1.01856e+06 198.682 0 -1.01854e+06 210.363 0 -1.01851e+06 222.042 0 -1.01849e+06 233.721 0 -1.01847e+06 245.399 0 -1.01844e+06 257.075 0 -1.01842e+06 268.75 0 -1.01839e+06 280.424 0 -1.01836e+06 292.096 0 -1.01833e+06 303.767 0 -1.0183e+06 315.436 0 -1.01827e+06 327.104 0 -1.01824e+06 338.77 0 -1.01821e+06 350.434 0 -1.01817e+06 362.096 0 -1.01814e+06 373.757 0 -1.0181e+06 385.416 0 -1.01806e+06 397.072 0 -1.01802e+06 408.727 0 -1.01798e+06 420.38 0 -1.01794e+06 432.03 0 -1.0179e+06 443.678 0 -1.01785e+06 455.324 0 -1.01781e+06 466.968 0 -1.01776e+06 478.609 0 -1.01771e+06 490.248 0 -1.01766e+06 501.884 0 -1.01761e+06 513.518 0 -1.01756e+06 525.149 0 -1.01751e+06 536.778 0 -1.01746e+06 548.403 0 -1.0174e+06 560.026 0 -1.01735e+06 571.646 0 -1.01729e+06 583.263 0 -1.01723e+06 594.877 0 -1.01718e+06 606.488 0 -1.01712e+06 618.096 0 -1.01705e+06 629.701 0 -1.01699e+06 641.302 0 -1.01693e+06 652.9 0 -1.01686e+06 664.495 0 -1.0168e+06 676.086 0 -1.01673e+06 687.674 0 -1.01666e+06 699.259 0 -1.0166e+06 710.839 0 -1.01653e+06 722.417 0 -1.01645e+06 733.99 0 -1.01638e+06 745.56 0 -1.01631e+06 757.126 0 -1.01623e+06 768.688 0 -1.01616e+06 780.246 0 -1.01608e+06 791.8 0 -1.016e+06 803.35 0 -1.01592e+06 814.896 0 -1.01584e+06 826.438 0 -1.01576e+06 837.976 0 -1.01568e+06 849.509 0 -1.0156e+06 861.039 0 -1.01551e+06 872.563 0 -1.01543e+06 884.084 0 -1.01534e+06 895.6 0 -1.01525e+06 907.112 0 -1.01516e+06 918.619 0 -1.01507e+06 930.122 0 -1.01498e+06 941.62 0 -1.01489e+06 953.113 0 -1.01479e+06 964.602 0 -1.0147e+06 976.086 0 -1.0146e+06 987.566 0 -1.0145e+06 999.041 0 -1.01441e+06 1010.51 0 -1.01431e+06 1021.98 0 -1.01421e+06 1033.44 0 -1.0141e+06 1044.89 0 -1.014e+06 1056.34 0 -1.0139e+06 1067.79 0 -1.01379e+06 1079.23 0 -1.01369e+06 1090.67 0 -1.01358e+06 1102.1 0 -1.01347e+06 1113.52 0 -1.01336e+06 1124.95 0 -1.01325e+06 1136.36 0 -1.01314e+06 1147.78 0 -1.01303e+06 1159.18 0 -1.01291e+06 1170.59 0 -1.0128e+06 1181.99 0 -1.01268e+06 1193.38 0 -1.01256e+06 1204.77 0 -1.01244e+06 1216.15 0 -1.01233e+06 1227.53 0 -1.0122e+06 1238.91 0 -1.01208e+06 1250.28 0 -1.01196e+06 1261.65 0 -1.01184e+06 1273.01 0 -1.01171e+06 1284.37 0 -1.01158e+06 1295.73 0 -1.01146e+06 1307.08 0 -1.01133e+06 1318.43 0 -1.0112e+06 1329.78 0 -1.01107e+06 1341.12 0 -1.01094e+06 1352.46 0 -1.0108e+06 1363.79 0 -1.01067e+06 1375.13 0 -1.01053e+06 1386.46 0 -1.0104e+06 1397.79 0 -1.01026e+06 1409.12 0 -1.01012e+06 1420.44 0 -1.00998e+06 1431.77 0 -1.00984e+06 1443.09 0 -1.0097e+06 1454.42 0 -1.00956e+06 1465.74 0 -1.01874e+06 1.29505e-06 0 -1.01874e+06 13.6388 0 -1.01874e+06 27.2774 0 -1.01874e+06 40.916 0 -1.01873e+06 54.5543 0 -1.01873e+06 68.1924 0 -1.01872e+06 81.8301 0 -1.01871e+06 95.4674 0 -1.01871e+06 109.104 0 -1.0187e+06 122.741 0 -1.01868e+06 136.376 0 -1.01867e+06 150.011 0 -1.01866e+06 163.645 0 -1.01865e+06 177.279 0 -1.01863e+06 190.911 0 -1.01861e+06 204.543 0 -1.0186e+06 218.173 0 -1.01858e+06 231.803 0 -1.01856e+06 245.431 0 -1.01854e+06 259.058 0 -1.01851e+06 272.683 0 -1.01849e+06 286.308 0 -1.01847e+06 299.931 0 -1.01844e+06 313.552 0 -1.01841e+06 327.172 0 -1.01838e+06 340.79 0 -1.01836e+06 354.406 0 -1.01833e+06 368.02 0 -1.01829e+06 381.633 0 -1.01826e+06 395.244 0 -1.01823e+06 408.853 0 -1.01819e+06 422.459 0 -1.01816e+06 436.064 0 -1.01812e+06 449.666 0 -1.01808e+06 463.266 0 -1.01804e+06 476.863 0 -1.018e+06 490.459 0 -1.01796e+06 504.051 0 -1.01792e+06 517.641 0 -1.01787e+06 531.229 0 -1.01783e+06 544.813 0 -1.01778e+06 558.395 0 -1.01773e+06 571.974 0 -1.01769e+06 585.551 0 -1.01764e+06 599.124 0 -1.01758e+06 612.694 0 -1.01753e+06 626.261 0 -1.01748e+06 639.824 0 -1.01743e+06 653.385 0 -1.01737e+06 666.942 0 -1.01731e+06 680.495 0 -1.01726e+06 694.046 0 -1.0172e+06 707.592 0 -1.01714e+06 721.135 0 -1.01708e+06 734.674 0 -1.01701e+06 748.21 0 -1.01695e+06 761.741 0 -1.01689e+06 775.269 0 -1.01682e+06 788.793 0 -1.01675e+06 802.312 0 -1.01669e+06 815.828 0 -1.01662e+06 829.339 0 -1.01655e+06 842.846 0 -1.01648e+06 856.349 0 -1.0164e+06 869.848 0 -1.01633e+06 883.342 0 -1.01626e+06 896.831 0 -1.01618e+06 910.316 0 -1.0161e+06 923.796 0 -1.01602e+06 937.272 0 -1.01595e+06 950.742 0 -1.01586e+06 964.208 0 -1.01578e+06 977.669 0 -1.0157e+06 991.126 0 -1.01562e+06 1004.58 0 -1.01553e+06 1018.02 0 -1.01545e+06 1031.46 0 -1.01536e+06 1044.9 0 -1.01527e+06 1058.33 0 -1.01518e+06 1071.76 0 -1.01509e+06 1085.18 0 -1.015e+06 1098.59 0 -1.01491e+06 1112 0 -1.01481e+06 1125.4 0 -1.01472e+06 1138.8 0 -1.01462e+06 1152.19 0 -1.01453e+06 1165.58 0 -1.01443e+06 1178.96 0 -1.01433e+06 1192.34 0 -1.01423e+06 1205.71 0 -1.01413e+06 1219.08 0 -1.01402e+06 1232.44 0 -1.01392e+06 1245.79 0 -1.01381e+06 1259.14 0 -1.01371e+06 1272.48 0 -1.0136e+06 1285.82 0 -1.01349e+06 1299.15 0 -1.01338e+06 1312.47 0 -1.01327e+06 1325.79 0 -1.01316e+06 1339.11 0 -1.01305e+06 1352.42 0 -1.01293e+06 1365.72 0 -1.01282e+06 1379.02 0 -1.0127e+06 1392.31 0 -1.01258e+06 1405.6 0 -1.01247e+06 1418.88 0 -1.01235e+06 1432.15 0 -1.01223e+06 1445.43 0 -1.0121e+06 1458.69 0 -1.01198e+06 1471.95 0 -1.01186e+06 1485.21 0 -1.01173e+06 1498.46 0 -1.01161e+06 1511.71 0 -1.01148e+06 1524.95 0 -1.01135e+06 1538.19 0 -1.01122e+06 1551.43 0 -1.01109e+06 1564.66 0 -1.01096e+06 1577.89 0 -1.01082e+06 1591.11 0 -1.01069e+06 1604.33 0 -1.01056e+06 1617.55 0 -1.01042e+06 1630.77 0 -1.01028e+06 1643.98 0 -1.01014e+06 1657.19 0 -1.01e+06 1670.4 0 -1.00986e+06 1683.61 0 -1.00972e+06 1696.82 0 -1.00958e+06 1710.03 0 -1.01877e+06 1.48052e-06 0 -1.01877e+06 15.5877 0 -1.01876e+06 31.1754 0 -1.01876e+06 46.7628 0 -1.01876e+06 62.3501 0 -1.01875e+06 77.937 0 -1.01875e+06 93.5236 0 -1.01874e+06 109.11 0 -1.01873e+06 124.695 0 -1.01872e+06 140.28 0 -1.01871e+06 155.864 0 -1.0187e+06 171.448 0 -1.01868e+06 187.03 0 -1.01867e+06 202.612 0 -1.01865e+06 218.192 0 -1.01864e+06 233.772 0 -1.01862e+06 249.35 0 -1.0186e+06 264.927 0 -1.01858e+06 280.503 0 -1.01856e+06 296.077 0 -1.01854e+06 311.65 0 -1.01851e+06 327.221 0 -1.01849e+06 342.79 0 -1.01846e+06 358.358 0 -1.01844e+06 373.924 0 -1.01841e+06 389.488 0 -1.01838e+06 405.05 0 -1.01835e+06 420.61 0 -1.01832e+06 436.168 0 -1.01829e+06 451.724 0 -1.01825e+06 467.277 0 -1.01822e+06 482.828 0 -1.01818e+06 498.377 0 -1.01814e+06 513.923 0 -1.01811e+06 529.466 0 -1.01807e+06 545.007 0 -1.01803e+06 560.545 0 -1.01798e+06 576.08 0 -1.01794e+06 591.612 0 -1.0179e+06 607.141 0 -1.01785e+06 622.667 0 -1.01781e+06 638.19 0 -1.01776e+06 653.709 0 -1.01771e+06 669.226 0 -1.01766e+06 684.738 0 -1.01761e+06 700.247 0 -1.01756e+06 715.753 0 -1.0175e+06 731.255 0 -1.01745e+06 746.753 0 -1.01739e+06 762.248 0 -1.01734e+06 777.738 0 -1.01728e+06 793.225 0 -1.01722e+06 808.707 0 -1.01716e+06 824.185 0 -1.0171e+06 839.659 0 -1.01704e+06 855.129 0 -1.01698e+06 870.594 0 -1.01691e+06 886.055 0 -1.01685e+06 901.511 0 -1.01678e+06 916.963 0 -1.01671e+06 932.41 0 -1.01664e+06 947.852 0 -1.01657e+06 963.289 0 -1.0165e+06 978.721 0 -1.01643e+06 994.148 0 -1.01635e+06 1009.57 0 -1.01628e+06 1024.99 0 -1.0162e+06 1040.4 0 -1.01613e+06 1055.81 0 -1.01605e+06 1071.21 0 -1.01597e+06 1086.6 0 -1.01589e+06 1101.99 0 -1.01581e+06 1117.38 0 -1.01573e+06 1132.76 0 -1.01564e+06 1148.13 0 -1.01556e+06 1163.5 0 -1.01547e+06 1178.86 0 -1.01538e+06 1194.21 0 -1.0153e+06 1209.56 0 -1.01521e+06 1224.91 0 -1.01512e+06 1240.24 0 -1.01502e+06 1255.58 0 -1.01493e+06 1270.9 0 -1.01484e+06 1286.22 0 -1.01474e+06 1301.53 0 -1.01465e+06 1316.84 0 -1.01455e+06 1332.14 0 -1.01445e+06 1347.43 0 -1.01435e+06 1362.72 0 -1.01425e+06 1378 0 -1.01415e+06 1393.28 0 -1.01405e+06 1408.54 0 -1.01394e+06 1423.81 0 -1.01384e+06 1439.06 0 -1.01373e+06 1454.31 0 -1.01362e+06 1469.55 0 -1.01352e+06 1484.79 0 -1.01341e+06 1500.02 0 -1.0133e+06 1515.24 0 -1.01318e+06 1530.45 0 -1.01307e+06 1545.66 0 -1.01296e+06 1560.87 0 -1.01284e+06 1576.06 0 -1.01273e+06 1591.25 0 -1.01261e+06 1606.44 0 -1.01249e+06 1621.62 0 -1.01237e+06 1636.79 0 -1.01225e+06 1651.96 0 -1.01213e+06 1667.12 0 -1.01201e+06 1682.27 0 -1.01188e+06 1697.42 0 -1.01176e+06 1712.57 0 -1.01163e+06 1727.7 0 -1.0115e+06 1742.84 0 -1.01137e+06 1757.97 0 -1.01124e+06 1773.09 0 -1.01111e+06 1788.21 0 -1.01098e+06 1803.33 0 -1.01085e+06 1818.44 0 -1.01072e+06 1833.54 0 -1.01058e+06 1848.65 0 -1.01044e+06 1863.75 0 -1.01031e+06 1878.85 0 -1.01017e+06 1893.94 0 -1.01003e+06 1909.04 0 -1.00989e+06 1924.13 0 -1.00975e+06 1939.22 0 -1.0096e+06 1954.31 0 -1.0188e+06 1.66257e-06 0 -1.01879e+06 17.5369 0 -1.01879e+06 35.0737 0 -1.01879e+06 52.6104 0 -1.01879e+06 70.1468 0 -1.01878e+06 87.6828 0 -1.01877e+06 105.218 0 -1.01877e+06 122.753 0 -1.01876e+06 140.288 0 -1.01875e+06 157.822 0 -1.01874e+06 175.355 0 -1.01873e+06 192.887 0 -1.01871e+06 210.418 0 -1.0187e+06 227.948 0 -1.01868e+06 245.476 0 -1.01867e+06 263.004 0 -1.01865e+06 280.53 0 -1.01863e+06 298.055 0 -1.01861e+06 315.579 0 -1.01859e+06 333.1 0 -1.01857e+06 350.621 0 -1.01854e+06 368.139 0 -1.01852e+06 385.655 0 -1.01849e+06 403.17 0 -1.01847e+06 420.682 0 -1.01844e+06 438.193 0 -1.01841e+06 455.701 0 -1.01838e+06 473.206 0 -1.01835e+06 490.71 0 -1.01831e+06 508.211 0 -1.01828e+06 525.709 0 -1.01825e+06 543.205 0 -1.01821e+06 560.697 0 -1.01817e+06 578.187 0 -1.01813e+06 595.675 0 -1.01809e+06 613.159 0 -1.01805e+06 630.639 0 -1.01801e+06 648.117 0 -1.01797e+06 665.592 0 -1.01793e+06 683.062 0 -1.01788e+06 700.53 0 -1.01783e+06 717.994 0 -1.01779e+06 735.454 0 -1.01774e+06 752.91 0 -1.01769e+06 770.363 0 -1.01764e+06 787.812 0 -1.01759e+06 805.256 0 -1.01753e+06 822.697 0 -1.01748e+06 840.133 0 -1.01742e+06 857.565 0 -1.01737e+06 874.992 0 -1.01731e+06 892.415 0 -1.01725e+06 909.834 0 -1.01719e+06 927.247 0 -1.01713e+06 944.656 0 -1.01707e+06 962.061 0 -1.017e+06 979.46 0 -1.01694e+06 996.854 0 -1.01687e+06 1014.24 0 -1.01681e+06 1031.63 0 -1.01674e+06 1049.01 0 -1.01667e+06 1066.38 0 -1.0166e+06 1083.75 0 -1.01653e+06 1101.11 0 -1.01646e+06 1118.46 0 -1.01638e+06 1135.81 0 -1.01631e+06 1153.16 0 -1.01623e+06 1170.5 0 -1.01616e+06 1187.83 0 -1.01608e+06 1205.16 0 -1.016e+06 1222.48 0 -1.01592e+06 1239.79 0 -1.01584e+06 1257.1 0 -1.01575e+06 1274.4 0 -1.01567e+06 1291.7 0 -1.01558e+06 1308.99 0 -1.0155e+06 1326.27 0 -1.01541e+06 1343.55 0 -1.01532e+06 1360.81 0 -1.01523e+06 1378.08 0 -1.01514e+06 1395.33 0 -1.01505e+06 1412.58 0 -1.01496e+06 1429.82 0 -1.01487e+06 1447.06 0 -1.01477e+06 1464.28 0 -1.01467e+06 1481.5 0 -1.01458e+06 1498.72 0 -1.01448e+06 1515.92 0 -1.01438e+06 1533.12 0 -1.01428e+06 1550.31 0 -1.01418e+06 1567.5 0 -1.01407e+06 1584.67 0 -1.01397e+06 1601.84 0 -1.01387e+06 1619 0 -1.01376e+06 1636.16 0 -1.01365e+06 1653.3 0 -1.01354e+06 1670.44 0 -1.01343e+06 1687.58 0 -1.01332e+06 1704.7 0 -1.01321e+06 1721.82 0 -1.0131e+06 1738.93 0 -1.01298e+06 1756.03 0 -1.01287e+06 1773.13 0 -1.01275e+06 1790.22 0 -1.01264e+06 1807.3 0 -1.01252e+06 1824.37 0 -1.0124e+06 1841.44 0 -1.01228e+06 1858.5 0 -1.01216e+06 1875.56 0 -1.01203e+06 1892.61 0 -1.01191e+06 1909.65 0 -1.01178e+06 1926.68 0 -1.01166e+06 1943.71 0 -1.01153e+06 1960.74 0 -1.0114e+06 1977.75 0 -1.01127e+06 1994.77 0 -1.01114e+06 2011.77 0 -1.01101e+06 2028.78 0 -1.01088e+06 2045.77 0 -1.01074e+06 2062.77 0 -1.01061e+06 2079.76 0 -1.01047e+06 2096.74 0 -1.01033e+06 2113.72 0 -1.0102e+06 2130.7 0 -1.01006e+06 2147.68 0 -1.00992e+06 2164.65 0 -1.00977e+06 2181.63 0 -1.00963e+06 2198.6 0 -1.01883e+06 1.83936e-06 0 -1.01883e+06 19.4864 0 -1.01882e+06 38.9726 0 -1.01882e+06 58.4587 0 -1.01882e+06 77.9445 0 -1.01881e+06 97.4298 0 -1.01881e+06 116.915 0 -1.0188e+06 136.399 0 -1.01879e+06 155.883 0 -1.01878e+06 175.365 0 -1.01877e+06 194.847 0 -1.01876e+06 214.328 0 -1.01874e+06 233.808 0 -1.01873e+06 253.287 0 -1.01871e+06 272.764 0 -1.0187e+06 292.24 0 -1.01868e+06 311.715 0 -1.01866e+06 331.188 0 -1.01864e+06 350.659 0 -1.01862e+06 370.129 0 -1.0186e+06 389.596 0 -1.01857e+06 409.062 0 -1.01855e+06 428.526 0 -1.01852e+06 447.987 0 -1.0185e+06 467.446 0 -1.01847e+06 486.903 0 -1.01844e+06 506.358 0 -1.01841e+06 525.809 0 -1.01838e+06 545.259 0 -1.01835e+06 564.705 0 -1.01831e+06 584.148 0 -1.01828e+06 603.589 0 -1.01824e+06 623.026 0 -1.0182e+06 642.461 0 -1.01817e+06 661.892 0 -1.01813e+06 681.319 0 -1.01809e+06 700.743 0 -1.01804e+06 720.164 0 -1.018e+06 739.581 0 -1.01796e+06 758.994 0 -1.01791e+06 778.403 0 -1.01787e+06 797.808 0 -1.01782e+06 817.21 0 -1.01777e+06 836.607 0 -1.01772e+06 855.999 0 -1.01767e+06 875.388 0 -1.01762e+06 894.771 0 -1.01756e+06 914.151 0 -1.01751e+06 933.525 0 -1.01745e+06 952.895 0 -1.0174e+06 972.26 0 -1.01734e+06 991.619 0 -1.01728e+06 1010.97 0 -1.01722e+06 1030.32 0 -1.01716e+06 1049.67 0 -1.0171e+06 1069.01 0 -1.01703e+06 1088.34 0 -1.01697e+06 1107.67 0 -1.0169e+06 1