<?xml version="1.0"?> 
<VTKFile type="StructuredGrid" version="0.1"> 
<StructuredGrid WholeExtent="0 127 0 127 0 0"> 
<Piece Extent="0 127 0 127 0 0"> 
<PointData>
<DataArray type="Float32" Name="E" format="ascii" NumberOfComponents="3"> 
-1.03603e+06 303142 0 -1.03436e+06 301559 0 -1.03269e+06 299973 0 -1.03102e+06 298385 0 -1.02936e+06 296793 0 -1.02769e+06 295199 0 -1.02603e+06 293601 0 -1.02436e+06 292001 0 -1.0227e+06 290398 0 -1.02104e+06 288792 0 -1.01938e+06 287183 0 -1.01773e+06 285571 0 -1.01607e+06 283955 0 -1.01441e+06 282337 0 -1.01276e+06 280716 0 -1.01111e+06 279092 0 -1.00946e+06 277465 0 -1.00781e+06 275835 0 -1.00616e+06 274201 0 -1.00452e+06 272565 0 -1.00287e+06 270925 0 -1.00123e+06 269283 0 -999589 267637 0 -997949 265988 0 -996312 264336 0 -994677 262681 0 -993043 261022 0 -991411 259361 0 -989781 257696 0 -988153 256027 0 -986527 254356 0 -984903 252681 0 -983281 251003 0 -981662 249322 0 -980044 247637 0 -978428 245949 0 -976815 244257 0 -975204 242562 0 -973595 240864 0 -971989 239162 0 -970385 237457 0 -968783 235748 0 -967184 234035 0 -965587 232319 0 -963993 230600 0 -962402 228876 0 -960813 227150 0 -959226 225419 0 -957643 223685 0 -956062 221947 0 -954484 220205 0 -952909 218459 0 -951337 216710 0 -949768 214957 0 -948202 213199 0 -946640 211438 0 -945080 209673 0 -943524 207904 0 -941971 206131 0 -940421 204353 0 -938875 202572 0 -937332 200786 0 -935794 198996 0 -934258 197202 0 -932727 195404 0 -931200 193601 0 -929676 191794 0 -928157 189982 0 -926642 188165 0 -925132 186344 0 -923625 184519 0 -922124 182688 0 -920627 180853 0 -919136 179013 0 -917649 177168 0 -916168 175317 0 -914692 173462 0 -913221 171601 0 -911757 169736 0 -910299 167864 0 -908847 165987 0 -907401 164105 0 -905963 162217 0 -904532 160323 0 -903108 158423 0 -901692 156516 0 -900284 154604 0 -898885 152685 0 -897495 150760 0 -896115 148828 0 -894745 146889 0 -893386 144942 0 -892038 142989 0 -890703 141028 0 -889380 139060 0 -888071 137083 0 -886777 135099 0 -885499 133106 0 -884237 131104 0 -882995 129093 0 -881772 127073 0 -880570 125044 0 -879392 123005 0 -878239 120955 0 -877115 118896 0 -876021 116825 0 -874961 114743 0 -873938 112650 0 -872956 110545 0 -872021 108427 0 -871137 106297 0 -870311 104154 0 -869551 101998 0 -868866 99828.7 0 -868267 97645 0 -867768 95446.9 0 -867387 93234.4 0 -867148 91008 0 -867083 88769.4 0 -867237 86523.7 0 -867676 84282.7 0 -868493 82066.2 0 -869830 79931.8 0 -871901 77952.9 0 -875035 76294.1 0 -879753 75500 0 -886828 74879.1 0 -897195 75817.5 0 -1.03785e+06 313445 0 -1.03617e+06 311877 0 -1.0345e+06 310306 0 -1.03283e+06 308733 0 -1.03116e+06 307156 0 -1.02949e+06 305577 0 -1.02783e+06 303995 0 -1.02616e+06 302409 0 -1.02449e+06 300821 0 -1.02283e+06 299230 0 -1.02117e+06 297636 0 -1.0195e+06 296039 0 -1.01784e+06 294439 0 -1.01618e+06 292836 0 -1.01453e+06 291230 0 -1.01287e+06 289620 0 -1.01121e+06 288008 0 -1.00956e+06 286393 0 -1.00791e+06 284775 0 -1.00626e+06 283153 0 -1.00461e+06 281529 0 -1.00296e+06 279901 0 -1.00131e+06 278270 0 -999666 276636 0 -998022 274999 0 -996380 273359 0 -994740 271715 0 -993101 270069 0 -991464 268419 0 -989829 266766 0 -988195 265109 0 -986564 263449 0 -984934 261786 0 -983306 260120 0 -981680 258450 0 -980056 256777 0 -978434 255101 0 -976813 253421 0 -975195 251738 0 -973580 250051 0 -971966 248361 0 -970354 246667 0 -968745 244970 0 -967137 243269 0 -965533 241565 0 -963930 239857 0 -962330 238145 0 -960732 236430 0 -959137 234711 0 -957544 232989 0 -955954 231262 0 -954366 229532 0 -952781 227798 0 -951198 226060 0 -949619 224319 0 -948042 222573 0 -946468 220824 0 -944897 219070 0 -943328 217313 0 -941763 215551 0 -940201 213785 0 -938642 212016 0 -937086 210242 0 -935533 208463 0 -933984 206681 0 -932438 204894 0 -930896 203102 0 -929357 201306 0 -927822 199506 0 -926290 197701 0 -924763 195891 0 -923239 194077 0 -921719 192257 0 -920204 190433 0 -918692 188604 0 -917185 186770 0 -915683 184931 0 -914185 183086 0 -912692 181236 0 -911204 179381 0 -909721 177520 0 -908243 175653 0 -906771 173781 0 -905305 171902 0 -903844 170018 0 -902389 168127 0 -900941 166230 0 -899500 164326 0 -898065 162416 0 -896638 160498 0 -895219 158573 0 -893807 156641 0 -892404 154701 0 -891010 152754 0 -889624 150798 0 -888249 148833 0 -886885 146860 0 -885531 144877 0 -884189 142885 0 -882860 140882 0 -881544 138869 0 -880242 136845 0 -878955 134809 0 -877685 132762 0 -876433 130701 0 -875200 128626 0 -873988 126537 0 -872799 124432 0 -871634 122311 0 -870497 120172 0 -869389 118015 0 -868314 115837 0 -867274 113637 0 -866274 111414 0 -865317 109165 0 -864408 106889 0 -863551 104583 0 -862750 102245 0 -862011 99871.5 0 -861337 97458.6 0 -860732 95001.4 0 -860199 92493.1 0 -859739 89922.6 0 -859355 87279.5 0 -859049 84535.5 0 -858824 81656.7 0 -858713 78695.4 0 -858784 75467.5 0 -1.03972e+06 323748 0 -1.03805e+06 322196 0 -1.03638e+06 320641 0 -1.0347e+06 319083 0 -1.03303e+06 317522 0 -1.03136e+06 315958 0 -1.02969e+06 314391 0 -1.02802e+06 312821 0 -1.02635e+06 311249 0 -1.02468e+06 309673 0 -1.02302e+06 308094 0 -1.02135e+06 306513 0 -1.01969e+06 304928 0 -1.01803e+06 303340 0 -1.01636e+06 301750 0 -1.0147e+06 300156 0 -1.01304e+06 298559 0 -1.01138e+06 296959 0 -1.00973e+06 295356 0 -1.00807e+06 293750 0 -1.00642e+06 292141 0 -1.00476e+06 290529 0 -1.00311e+06 288914 0 -1.00146e+06 287295 0 -999809 285674 0 -998161 284049 0 -996515 282421 0 -994870 280790 0 -993227 279155 0 -991585 277517 0 -989944 275876 0 -988306 274232 0 -986669 272585 0 -985033 270934 0 -983400 269280 0 -981768 267622 0 -980138 265962 0 -978510 264297 0 -976883 262630 0 -975259 260959 0 -973636 259284 0 -972016 257606 0 -970397 255925 0 -968781 254240 0 -967166 252551 0 -965554 250859 0 -963943 249164 0 -962335 247464 0 -960729 245761 0 -959125 244055 0 -957524 242345 0 -955925 240631 0 -954328 238913 0 -952733 237191 0 -951141 235466 0 -949552 233737 0 -947965 232003 0 -946380 230266 0 -944798 228525 0 -943219 226780 0 -941643 225031 0 -940069 223278 0 -938498 221521 0 -936930 219759 0 -935365 217994 0 -933802 216223 0 -932243 214449 0 -930687 212670 0 -929134 210887 0 -927584 209100 0 -926038 207307 0 -924495 205510 0 -922955 203709 0 -921419 201902 0 -919886 200091 0 -918357 198275 0 -916832 196454 0 -915310 194627 0 -913793 192796 0 -912280 190959 0 -910770 189116 0 -909265 187269 0 -907765 185415 0 -906269 183556 0 -904778 181690 0 -903291 179819 0 -901810 177941 0 -900334 176057 0 -898863 174167 0 -897397 172269 0 -895938 170365 0 -894484 168453 0 -893037 166534 0 -891596 164608 0 -890162 162673 0 -888735 160730 0 -887315 158778 0 -885904 156817 0 -884500 154847 0 -883105 152868 0 -881719 150878 0 -880343 148877 0 -878977 146865 0 -877621 144841 0 -876277 142805 0 -874945 140755 0 -873626 138691 0 -872321 136612 0 -871031 134518 0 -869756 132406 0 -868499 130275 0 -867260 128125 0 -866041 125952 0 -864845 123756 0 -863673 121534 0 -862528 119282 0 -861414 116997 0 -860334 114676 0 -859292 112314 0 -858295 109904 0 -857346 107439 0 -856454 104912 0 -855624 102312 0 -854862 99625.7 0 -854173 96839.1 0 -853557 93930.3 0 -853003 90850.4 0 -852489 87602.7 0 -1.04167e+06 334049 0 -1.03999e+06 332513 0 -1.03831e+06 330974 0 -1.03664e+06 329432 0 -1.03497e+06 327887 0 -1.03329e+06 326339 0 -1.03162e+06 324788 0 -1.02995e+06 323234 0 -1.02828e+06 321677 0 -1.02661e+06 320117 0 -1.02494e+06 318554 0 -1.02327e+06 316989 0 -1.0216e+06 315420 0 -1.01993e+06 313848 0 -1.01827e+06 312273 0 -1.0166e+06 310695 0 -1.01494e+06 309115 0 -1.01328e+06 307531 0 -1.01162e+06 305944 0 -1.00996e+06 304353 0 -1.0083e+06 302760 0 -1.00664e+06 301164 0 -1.00498e+06 299564 0 -1.00333e+06 297962 0 -1.00167e+06 296356 0 -1.00002e+06 294747 0 -998367 293135 0 -996717 291520 0 -995068 289901 0 -993420 288279 0 -991774 286654 0 -990129 285026 0 -988486 283395 0 -986844 281760 0 -985203 280122 0 -983565 278480 0 -981927 276835 0 -980292 275187 0 -978658 273536 0 -977026 271881 0 -975395 270223 0 -973767 268561 0 -972140 266896 0 -970515 265227 0 -968891 263555 0 -967270 261879 0 -965651 260200 0 -964033 258517 0 -962417 256830 0 -960804 255140 0 -959192 253447 0 -957583 251749 0 -955975 250048 0 -954370 248343 0 -952767 246635 0 -951166 244922 0 -949568 243206 0 -947971 241486 0 -946377 239762 0 -944786 238034 0 -943196 236302 0 -941610 234567 0 -940025 232827 0 -938443 231083 0 -936864 229335 0 -935287 227582 0 -933713 225826 0 -932142 224065 0 -930573 222300 0 -929007 220530 0 -927444 218756 0 -925884 216978 0 -924327 215195 0 -922773 213407 0 -921222 211615 0 -919674 209818 0 -918129 208016 0 -916587 206209 0 -915049 204397 0 -913514 202580 0 -911983 200758 0 -910455 198930 0 -908931 197097 0 -907410 195259 0 -905893 193415 0 -904380 191565 0 -902871 189709 0 -901367 187847 0 -899866 185979 0 -898370 184105 0 -896878 182224 0 -895391 180336 0 -893908 178441 0 -892430 176539 0 -890958 174630 0 -889490 172713 0 -888029 170788 0 -886572 168855 0 -885122 166913 0 -883677 164962 0 -882239 163002 0 -880807 161033 0 -879382 159053 0 -877964 157062 0 -876554 155060 0 -875152 153047 0 -873757 151021 0 -872371 148982 0 -870995 146930 0 -869627 144863 0 -868270 142780 0 -866922 140681 0 -865586 138564 0 -864261 136429 0 -862947 134273 0 -861646 132097 0 -860357 129897 0 -859080 127674 0 -857817 125424 0 -856568 123145 0 -855332 120836 0 -854111 118493 0 -852906 116113 0 -851718 113693 0 -850548 111227 0 -849400 108710 0 -848280 106144 0 -847193 103502 0 -1.04367e+06 344345 0 -1.04199e+06 342825 0 -1.04032e+06 341302 0 -1.03864e+06 339777 0 -1.03696e+06 338248 0 -1.03529e+06 336716 0 -1.03361e+06 335182 0 -1.03194e+06 333644 0 -1.03027e+06 332104 0 -1.0286e+06 330560 0 -1.02692e+06 329014 0 -1.02525e+06 327464 0 -1.02358e+06 325912 0 -1.02191e+06 324356 0 -1.02024e+06 322797 0 -1.01858e+06 321236 0 -1.01691e+06 319671 0 -1.01524e+06 318104 0 -1.01358e+06 316533 0 -1.01192e+06 314959 0 -1.01025e+06 313382 0 -1.00859e+06 311802 0 -1.00693e+06 310219 0 -1.00527e+06 308632 0 -1.00361e+06 307043 0 -1.00195e+06 305450 0 -1.0003e+06 303854 0 -998641 302255 0 -996987 300653 0 -995334 299048 0 -993683 297439 0 -992032 295827 0 -990383 294212 0 -988735 292594 0 -987089 290972 0 -985444 289347 0 -983801 287719 0 -982159 286087 0 -980518 284452 0 -978879 282814 0 -977242 281172 0 -975606 279527 0 -973971 277878 0 -972339 276226 0 -970707 274571 0 -969078 272912 0 -967450 271249 0 -965824 269583 0 -964200 267914 0 -962578 266241 0 -960957 264564 0 -959339 262884 0 -957722 261200 0 -956107 259512 0 -954494 257821 0 -952883 256125 0 -951274 254427 0 -949667 252724 0 -948062 251018 0 -946459 249307 0 -944859 247593 0 -943260 245875 0 -941664 244153 0 -940070 242427 0 -938478 240697 0 -936888 238963 0 -935301 237225 0 -933717 235482 0 -932134 233736 0 -930554 231985 0 -928977 230230 0 -927402 228470 0 -925829 226706 0 -924260 224938 0 -922692 223165 0 -921128 221388 0 -919566 219606 0 -918007 217819 0 -916451 216027 0 -914898 214231 0 -913348 212429 0 -911800 210623 0 -910256 208812 0 -908715 206995 0 -907176 205173 0 -905642 203345 0 -904110 201512 0 -902582 199673 0 -901057 197829 0 -899535 195978 0 -898017 194122 0 -896503 192259 0 -894992 190390 0 -893485 188514 0 -891982 186631 0 -890483 184742 0 -888988 182845 0 -887497 180941 0 -886011 179029 0 -884528 177109 0 -883051 175181 0 -881578 173245 0 -880109 171299 0 -878646 169344 0 -877188 167380 0 -875734 165405 0 -874287 163420 0 -872844 161423 0 -871408 159415 0 -869978 157394 0 -868553 155361 0 -867136 153313 0 -865725 151251 0 -864321 149172 0 -862925 147078 0 -861537 144965 0 -860157 142832 0 -858785 140679 0 -857423 138504 0 -856069 136304 0 -854726 134078 0 -853392 131823 0 -852068 129538 0 -850753 127218 0 -849447 124863 0 -848150 122468 0 -846860 120027 0 -845576 117545 0 -1.04574e+06 354633 0 -1.04406e+06 353130 0 -1.04238e+06 351624 0 -1.0407e+06 350115 0 -1.03903e+06 348603 0 -1.03735e+06 347088 0 -1.03568e+06 345570 0 -1.034e+06 344049 0 -1.03233e+06 342525 0 -1.03065e+06 340998 0 -1.02898e+06 339468 0 -1.02731e+06 337936 0 -1.02563e+06 336400 0 -1.02396e+06 334861 0 -1.02229e+06 333319 0 -1.02062e+06 331774 0 -1.01895e+06 330226 0 -1.01728e+06 328675 0 -1.01561e+06 327121 0 -1.01395e+06 325564 0 -1.01228e+06 324004 0 -1.01061e+06 322440 0 -1.00895e+06 320874 0 -1.00729e+06 319304 0 -1.00562e+06 317731 0 -1.00396e+06 316155 0 -1.0023e+06 314576 0 -1.00064e+06 312994 0 -998984 311408 0 -997326 309820 0 -995670 308228 0 -994015 306633 0 -992361 305034 0 -990708 303433 0 -989056 301828 0 -987406 300220 0 -985757 298608 0 -984109 296993 0 -982462 295375 0 -980817 293754 0 -979173 292129 0 -977531 290501 0 -975890 288869 0 -974251 287234 0 -972612 285596 0 -970976 283954 0 -969341 282309 0 -967707 280660 0 -966076 279007 0 -964445 277351 0 -962817 275692 0 -961190 274029 0 -959564 272363 0 -957941 270692 0 -956319 269019 0 -954699 267341 0 -953081 265660 0 -951464 263975 0 -949850 262286 0 -948237 260594 0 -946626 258898 0 -945017 257198 0 -943410 255494 0 -941805 253786 0 -940203 252075 0 -938602 250359 0 -937003 248639 0 -935406 246916 0 -933812 245188 0 -932219 243456 0 -930629 241720 0 -929041 239980 0 -927456 238236 0 -925872 236487 0 -924291 234734 0 -922712 232976 0 -921136 231215 0 -919562 229448 0 -917990 227677 0 -916421 225902 0 -914855 224121 0 -913291 222336 0 -911729 220546 0 -910171 218751 0 -908614 216951 0 -907061 215146 0 -905510 213336 0 -903962 211521 0 -902417 209700 0 -900875 207874 0 -899335 206042 0 -897799 204204 0 -896266 202361 0 -894735 200511 0 -893208 198655 0 -891683 196793 0 -890162 194925 0 -888644 193049 0 -887130 191167 0 -885618 189278 0 -884111 187382 0 -882606 185478 0 -881105 183566 0 -879607 181646 0 -878114 179718 0 -876623 177781 0 -875137 175835 0 -873654 173880 0 -872175 171915 0 -870699 169940 0 -869228 167954 0 -867760 165957 0 -866297 163949 0 -864837 161928 0 -863381 159895 0 -861929 157847 0 -860481 155786 0 -859037 153710 0 -857596 151617 0 -856160 149508 0 -854727 147380 0 -853298 145233 0 -851873 143066 0 -850452 140876 0 -849034 138662 0 -847619 136423 0 -846207 134156 0 -844797 131856 0 -1.04787e+06 364910 0 -1.04619e+06 363424 0 -1.04451e+06 361935 0 -1.04283e+06 360443 0 -1.04116e+06 358948 0 -1.03948e+06 357450 0 -1.0378e+06 355949 0 -1.03613e+06 354445 0 -1.03445e+06 352939 0 -1.03277e+06 351429 0 -1.0311e+06 349916 0 -1.02942e+06 348400 0 -1.02775e+06 346882 0 -1.02608e+06 345360 0 -1.0244e+06 343835 0 -1.02273e+06 342307 0 -1.02106e+06 340776 0 -1.01939e+06 339242 0 -1.01772e+06 337705 0 -1.01605e+06 336165 0 -1.01438e+06 334622 0 -1.01271e+06 333076 0 -1.01105e+06 331526 0 -1.00938e+06 329973 0 -1.00771e+06 328418 0 -1.00605e+06 326859 0 -1.00438e+06 325297 0 -1.00272e+06 323732 0 -1.00106e+06 322163 0 -999396 320592 0 -997736 319017 0 -996076 317439 0 -994418 315858 0 -992761 314273 0 -991104 312685 0 -989449 311094 0 -987795 309500 0 -986142 307903 0 -984490 306302 0 -982840 304697 0 -981190 303090 0 -979542 301479 0 -977895 299865 0 -976249 298247 0 -974605 296626 0 -972962 295002 0 -971321 293374 0 -969681 291742 0 -968042 290108 0 -966404 288469 0 -964769 286827 0 -963134 285182 0 -961501 283533 0 -959870 281881 0 -958240 280225 0 -956612 278565 0 -954986 276902 0 -953361 275235 0 -951737 273565 0 -950116 271891 0 -948496 270213 0 -946878 268531 0 -945262 266846 0 -943647 265156 0 -942034 263463 0 -940423 261766 0 -938814 260066 0 -937207 258361 0 -935602 256652 0 -933998 254940 0 -932397 253223 0 -930798 251502 0 -929200 249777 0 -927605 248048 0 -926011 246315 0 -924420 244578 0 -922831 242836 0 -921244 241090 0 -919659 239340 0 -918076 237585 0 -916496 235826 0 -914917 234062 0 -913341 232294 0 -911767 230521 0 -910196 228743 0 -908627 226960 0 -907060 225173 0 -905495 223381 0 -903933 221583 0 -902374 219781 0 -900816 217973 0 -899262 216160 0 -897709 214342 0 -896159 212518 0 -894612 210688 0 -893067 208853 0 -891525 207012 0 -889986 205164 0 -888449 203311 0 -886915 201451 0 -885383 199585 0 -883854 197712 0 -882328 195833 0 -880804 193946 0 -879283 192052 0 -877765 190151 0 -876250 188241 0 -874737 186324 0 -873227 184399 0 -871720 182465 0 -870216 180522 0 -868714 178569 0 -867215 176607 0 -865719 174635 0 -864225 172652 0 -862734 170659 0 -861246 168653 0 -859760 166636 0 -858276 164606 0 -856795 162563 0 -855316 160505 0 -853838 158433 0 -852362 156345 0 -850888 154240 0 -849415 152118 0 -847942 149977 0 -846470 147817 0 -844998 145636 0 -1.05006e+06 375173 0 -1.04838e+06 373705 0 -1.0467e+06 372233 0 -1.04502e+06 370759 0 -1.04335e+06 369281 0 -1.04167e+06 367801 0 -1.03999e+06 366317 0 -1.03832e+06 364831 0 -1.03664e+06 363342 0 -1.03496e+06 361849 0 -1.03329e+06 360354 0 -1.03161e+06 358856 0 -1.02994e+06 357354 0 -1.02826e+06 355850 0 -1.02659e+06 354343 0 -1.02491e+06 352832 0 -1.02324e+06 351319 0 -1.02157e+06 349802 0 -1.0199e+06 348282 0 -1.01822e+06 346760 0 -1.01655e+06 345234 0 -1.01488e+06 343705 0 -1.01321e+06 342173 0 -1.01154e+06 340638 0 -1.00987e+06 339099 0 -1.00821e+06 337558 0 -1.00654e+06 336013 0 -1.00487e+06 334466 0 -1.00321e+06 332915 0 -1.00154e+06 331361 0 -999879 329803 0 -998216 328243 0 -996554 326679 0 -994892 325112 0 -993232 323542 0 -991573 321968 0 -989914 320391 0 -988257 318811 0 -986600 317228 0 -984945 315641 0 -983291 314051 0 -981637 312458 0 -979985 310862 0 -978334 309262 0 -976684 307658 0 -975036 306052 0 -973388 304441 0 -971742 302828 0 -970097 301211 0 -968454 299590 0 -966812 297967 0 -965171 296339 0 -963531 294708 0 -961893 293074 0 -960256 291436 0 -958621 289795 0 -956987 288150 0 -955354 286501 0 -953723 284849 0 -952094 283193 0 -950466 281534 0 -948839 279871 0 -947215 278204 0 -945591 276533 0 -943970 274859 0 -942350 273181 0 -940732 271499 0 -939115 269813 0 -937500 268124 0 -935887 266430 0 -934276 264733 0 -932666 263032 0 -931058 261327 0 -929452 259618 0 -927848 257904 0 -926246 256187 0 -924645 254466 0 -923047 252740 0 -921450 251010 0 -919855 249276 0 -918263 247538 0 -916672 245795 0 -915083 244048 0 -913496 242297 0 -911911 240541 0 -910329 238781 0 -908748 237016 0 -907169 235246 0 -905593 233472 0 -904018 231693 0 -902446 229908 0 -900876 228120 0 -899308 226326 0 -897742 224527 0 -896178 222722 0 -894617 220913 0 -893057 219098 0 -891500 217278 0 -889945 215452 0 -888392 213620 0 -886841 211783 0 -885293 209939 0 -883747 208090 0 -882203 206234 0 -880661 204372 0 -879121 202504 0 -877583 200628 0 -876048 198746 0 -874514 196857 0 -872983 194960 0 -871454 193056 0 -869926 191144 0 -868401 189224 0 -866877 187296 0 -865356 185359 0 -863836 183414 0 -862317 181459 0 -860800 179494 0 -859285 177520 0 -857771 175535 0 -856258 173539 0 -854746 171532 0 -853234 169513 0 -851723 167482 0 -850213 165438 0 -848702 163380 0 -847191 161308 0 -845679 159220 0 -1.05231e+06 385420 0 -1.05063e+06 383969 0 -1.04896e+06 382516 0 -1.04728e+06 381059 0 -1.0456e+06 379599 0 -1.04393e+06 378137 0 -1.04225e+06 376671 0 -1.04057e+06 375203 0 -1.0389e+06 373731 0 -1.03722e+06 372257 0 -1.03554e+06 370779 0 -1.03387e+06 369299 0 -1.03219e+06 367815 0 -1.03052e+06 366328 0 -1.02884e+06 364839 0 -1.02717e+06 363346 0 -1.02549e+06 361850 0 -1.02382e+06 360352 0 -1.02214e+06 358850 0 -1.02047e+06 357345 0 -1.0188e+06 355837 0 -1.01713e+06 354326 0 -1.01545e+06 352811 0 -1.01378e+06 351294 0 -1.01211e+06 349773 0 -1.01044e+06 348250 0 -1.00877e+06 346723 0 -1.0071e+06 345193 0 -1.00543e+06 343660 0 -1.00377e+06 342123 0 -1.0021e+06 340584 0 -1.00043e+06 339041 0 -998768 337495 0 -997103 335946 0 -995439 334394 0 -993776 332838 0 -992114 331279 0 -990453 329717 0 -988792 328151 0 -987133 326583 0 -985474 325011 0 -983816 323435 0 -982160 321857 0 -980504 320275 0 -978849 318689 0 -977196 317101 0 -975543 315509 0 -973892 313913 0 -972241 312314 0 -970592 310712 0 -968944 309106 0 -967297 307497 0 -965652 305885 0 -964007 304268 0 -962364 302649 0 -960722 301026 0 -959082 299399 0 -957443 297769 0 -955805 296136 0 -954168 294498 0 -952533 292858 0 -950899 291213 0 -949267 289565 0 -947636 287913 0 -946007 286258 0 -944379 284599 0 -942752 282936 0 -941127 281270 0 -939504 279599 0 -937882 277925 0 -936262 276248 0 -934643 274566 0 -933026 272880 0 -931411 271191 0 -929797 269498 0 -928185 267800 0 -926574 266099 0 -924966 264394 0 -923359 262685 0 -921753 260971 0 -920150 259254 0 -918548 257532 0 -916948 255806 0 -915350 254076 0 -913754 252342 0 -912159 250603 0 -910566 248860 0 -908975 247113 0 -907386 245361 0 -905799 243605 0 -904214 241844 0 -902630 240078 0 -901049 238308 0 -899469 236533 0 -897892 234753 0 -896316 232969 0 -894742 231179 0 -893170 229385 0 -891600 227585 0 -890031 225780 0 -888465 223970 0 -886901 222154 0 -885338 220333 0 -883777 218506 0 -882218 216674 0 -880661 214835 0 -879106 212991 0 -877553 211141 0 -876001 209284 0 -874451 207422 0 -872903 205552 0 -871356 203676 0 -869811 201793 0 -868267 199903 0 -866725 198006 0 -865185 196102 0 -863645 194189 0 -862107 192269 0 -860570 190341 0 -859033 188404 0 -857498 186458 0 -855963 184504 0 -854429 182540 0 -852895 180566 0 -851361 178583 0 -849827 176588 0 -848292 174583 0 -846757 172567 0 -1.05463e+06 395647 0 -1.05295e+06 394215 0 -1.05128e+06 392779 0 -1.0496e+06 391341 0 -1.04792e+06 389899 0 -1.04625e+06 388455 0 -1.04457e+06 387008 0 -1.04289e+06 385557 0 -1.04122e+06 384104 0 -1.03954e+06 382648 0 -1.03787e+06 381188 0 -1.03619e+06 379726 0 -1.03451e+06 378260 0 -1.03284e+06 376792 0 -1.03116e+06 375321 0 -1.02949e+06 373846 0 -1.02781e+06 372368 0 -1.02614e+06 370888 0 -1.02446e+06 369404 0 -1.02279e+06 367917 0 -1.02111e+06 366427 0 -1.01944e+06 364934 0 -1.01777e+06 363438 0 -1.01609e+06 361939 0 -1.01442e+06 360437 0 -1.01275e+06 358931 0 -1.01108e+06 357422 0 -1.00941e+06 355910 0 -1.00774e+06 354395 0 -1.00607e+06 352877 0 -1.0044e+06 351356 0 -1.00273e+06 349831 0 -1.00106e+06 348303 0 -999392 346772 0 -997725 345238 0 -996059 343701 0 -994394 342160 0 -992729 340616 0 -991065 339069 0 -989402 337518 0 -987740 335964 0 -986078 334407 0 -984417 332847 0 -982758 331283 0 -981099 329716 0 -979441 328146 0 -977784 326572 0 -976128 324995 0 -974472 323415 0 -972818 321831 0 -971165 320243 0 -969513 318653 0 -967862 317059 0 -966212 315461 0 -964564 313860 0 -962916 312256 0 -961270 310648 0 -959624 309036 0 -957980 307421 0 -956337 305803 0 -954696 304181 0 -953055 302555 0 -951416 300926 0 -949779 299294 0 -948142 297657 0 -946507 296017 0 -944873 294374 0 -943241 292727 0 -941610 291076 0 -939980 289421 0 -938352 287763 0 -936725 286101 0 -935100 284435 0 -933476 282765 0 -931854 281092 0 -930233 279415 0 -928614 277734 0 -926996 276049 0 -925380 274360 0 -923765 272667 0 -922152 270970 0 -920541 269269 0 -918931 267564 0 -917323 265856 0 -915716 264143 0 -914111 262425 0 -912508 260704 0 -910906 258979 0 -909306 257249 0 -907708 255515 0 -906111 253776 0 -904516 252034 0 -902923 250287 0 -901332 248535 0 -899742 246779 0 -898154 245018 0 -896567 243253 0 -894983 241483 0 -893400 239708 0 -891818 237928 0 -890239 236144 0 -888661 234355 0 -887085 232560 0 -885510 230761 0 -883937 228956 0 -882366 227146 0 -880796 225331 0 -879228 223510 0 -877661 221684 0 -876096 219852 0 -874533 218014 0 -872970 216171 0 -871409 214321 0 -869850 212466 0 -868292 210604 0 -866735 208736 0 -865179 206861 0 -863624 204979 0 -862070 203091 0 -860517 201196 0 -858965 199293 0 -857413 197383 0 -855862 195466 0 -854311 193540 0 -852760 191607 0 -851209 189665 0 -849658 187715 0 -848106 185755 0 -1.05701e+06 405852 0 -1.05533e+06 404438 0 -1.05366e+06 403021 0 -1.05198e+06 401601 0 -1.05031e+06 400179 0 -1.04863e+06 398753 0 -1.04696e+06 397324 0 -1.04528e+06 395892 0 -1.04361e+06 394457 0 -1.04193e+06 393019 0 -1.04026e+06 391579 0 -1.03858e+06 390135 0 -1.0369e+06 388688 0 -1.03523e+06 387238 0 -1.03355e+06 385785 0 -1.03188e+06 384329 0 -1.0302e+06 382870 0 -1.02853e+06 381408 0 -1.02685e+06 379943 0 -1.02518e+06 378474 0 -1.0235e+06 377003 0 -1.02183e+06 375528 0 -1.02015e+06 374051 0 -1.01848e+06 372570 0 -1.0168e+06 371086 0 -1.01513e+06 369599 0 -1.01346e+06 368109 0 -1.01179e+06 366615 0 -1.01011e+06 365119 0 -1.00844e+06 363619 0 -1.00677e+06 362116 0 -1.0051e+06 360610 0 -1.00343e+06 359101 0 -1.00176e+06 357588 0 -1.00009e+06 356072 0 -998421 354553 0 -996753 353031 0 -995086 351506 0 -993419 349977 0 -991753 348445 0 -990087 346910 0 -988422 345371 0 -986758 343829 0 -985095 342284 0 -983432 340736 0 -981770 339184 0 -980109 337629 0 -978449 336071 0 -976790 334509 0 -975131 332944 0 -973474 331375 0 -971817 329803 0 -970162 328228 0 -968507 326649 0 -966853 325067 0 -965201 323481 0 -963549 321892 0 -961898 320300 0 -960249 318704 0 -958600 317104 0 -956953 315501 0 -955307 313895 0 -953661 312285 0 -952018 310671 0 -950375 309054 0 -948733 307434 0 -947093 305809 0 -945454 304182 0 -943816 302550 0 -942179 300915 0 -940544 299276 0 -938910 297634 0 -937277 295988 0 -935646 294338 0 -934016 292685 0 -932388 291027 0 -930760 289366 0 -929134 287702 0 -927510 286033 0 -925887 284361 0 -924266 282684 0 -922645 281004 0 -921027 279320 0 -919410 277632 0 -917794 275940 0 -916180 274244 0 -914567 272544 0 -912956 270840 0 -911346 269132 0 -909738 267420 0 -908132 265704 0 -906527 263983 0 -904923 262259 0 -903321 260530 0 -901721 258797 0 -900122 257059 0 -898525 255317 0 -896929 253571 0 -895335 251820 0 -893742 250065 0 -892151 248305 0 -890562 246541 0 -888974 244772 0 -887387 242998 0 -885802 241220 0 -884219 239436 0 -882637 237648 0 -881056 235855 0 -879477 234056 0 -877899 232253 0 -876323 230445 0 -874748 228631 0 -873174 226812 0 -871602 224987 0 -870030 223157 0 -868460 221321 0 -866891 219480 0 -865323 217632 0 -863756 215779 0 -862189 213920 0 -860624 212055 0 -859059 210183 0 -857495 208305 0 -855931 206420 0 -854368 204528 0 -852804 202630 0 -851241 200725 0 -849678 198812 0 -1.05945e+06 416032 0 -1.05778e+06 414637 0 -1.0561e+06 413239 0 -1.05443e+06 411838 0 -1.05276e+06 410434 0 -1.05108e+06 409027 0 -1.04941e+06 407617 0 -1.04774e+06 406204 0 -1.04606e+06 404788 0 -1.04439e+06 403369 0 -1.04271e+06 401947 0 -1.04104e+06 400522 0 -1.03936e+06 399094 0 -1.03769e+06 397663 0 -1.03601e+06 396229 0 -1.03434e+06 394792 0 -1.03266e+06 393352 0 -1.03099e+06 391909 0 -1.02931e+06 390462 0 -1.02764e+06 389013 0 -1.02596e+06 387560 0 -1.02429e+06 386105 0 -1.02261e+06 384646 0 -1.02094e+06 383184 0 -1.01926e+06 381719 0 -1.01759e+06 380250 0 -1.01591e+06 378779 0 -1.01424e+06 377305 0 -1.01257e+06 375827 0 -1.01089e+06 374346 0 -1.00922e+06 372862 0 -1.00755e+06 371375 0 -1.00588e+06 369884 0 -1.0042e+06 368390 0 -1.00253e+06 366893 0 -1.00086e+06 365393 0 -999192 363890 0 -997522 362383 0 -995853 360873 0 -994184 359360 0 -992516 357844 0 -990848 356324 0 -989181 354801 0 -987515 353275 0 -985849 351745 0 -984184 350213 0 -982519 348676 0 -980856 347137 0 -979193 345594 0 -977531 344048 0 -975869 342498 0 -974209 340945 0 -972549 339389 0 -970890 337829 0 -969232 336266 0 -967575 334700 0 -965918 333130 0 -964263 331556 0 -962609 329980 0 -960955 328399 0 -959303 326816 0 -957651 325228 0 -956001 323638 0 -954351 322043 0 -952703 320446 0 -951056 318845 0 -949409 317240 0 -947764 315632 0 -946120 314020 0 -944478 312404 0 -942836 310785 0 -941195 309163 0 -939556 307536 0 -937918 305906 0 -936281 304273 0 -934646 302636 0 -933011 300995 0 -931378 299350 0 -929746 297702 0 -928116 296050 0 -926487 294394 0 -924859 292734 0 -923232 291071 0 -921607 289404 0 -919983 287733 0 -918361 286058 0 -916740 284379 0 -915120 282696 0 -913502 281010 0 -911885 279319 0 -910270 277625 0 -908656 275926 0 -907043 274223 0 -905432 272517 0 -903822 270806 0 -902214 269091 0 -900607 267372 0 -899002 265649 0 -897398 263921 0 -895795 262189 0 -894194 260453 0 -892594 258713 0 -890996 256968 0 -889399 255219 0 -887804 253466 0 -886209 251707 0 -884617 249945 0 -883025 248177 0 -881435 246405 0 -879847 244629 0 -878259 242847 0 -876673 241061 0 -875088 239270 0 -873505 237474 0 -871922 235673 0 -870341 233867 0 -868761 232056 0 -867181 230239 0 -865603 228418 0 -864026 226591 0 -862449 224758 0 -860873 222920 0 -859298 221077 0 -857724 219227 0 -856150 217372 0 -854576 215511 0 -853003 213644 0 -851430 211771 0 -1.06195e+06 426183 0 -1.06028e+06 424807 0 -1.05861e+06 423428 0 -1.05694e+06 422047 0 -1.05527e+06 420662 0 -1.0536e+06 419275 0 -1.05193e+06 417884 0 -1.05025e+06 416490 0 -1.04858e+06 415094 0 -1.04691e+06 413694 0 -1.04523e+06 412291 0 -1.04356e+06 410886 0 -1.04189e+06 409477 0 -1.04021e+06 408065 0 -1.03854e+06 406650 0 -1.03686e+06 405232 0 -1.03519e+06 403811 0 -1.03352e+06 402387 0 -1.03184e+06 400960 0 -1.03017e+06 399530 0 -1.02849e+06 398097 0 -1.02682e+06 396660 0 -1.02514e+06 395220 0 -1.02347e+06 393778 0 -1.02179e+06 392332 0 -1.02012e+06 390883 0 -1.01844e+06 389431 0 -1.01677e+06 387975 0 -1.01509e+06 386517 0 -1.01342e+06 385055 0 -1.01175e+06 383590 0 -1.01007e+06 382122 0 -1.0084e+06 380651 0 -1.00673e+06 379176 0 -1.00505e+06 377698 0 -1.00338e+06 376217 0 -1.00171e+06 374733 0 -1.00004e+06 373246 0 -998367 371755 0 -996696 370261 0 -995025 368764 0 -993355 367263 0 -991686 365760 0 -990017 364252 0 -988349 362742 0 -986681 361228 0 -985014 359711 0 -983347 358191 0 -981681 356667 0 -980015 355140 0 -978351 353610 0 -976687 352076 0 -975023 350539 0 -973361 348999 0 -971699 347455 0 -970038 345908 0 -968377 344357 0 -966718 342803 0 -965059 341246 0 -963401 339685 0 -961744 338121 0 -960088 336553 0 -958433 334982 0 -956779 333407 0 -955125 331829 0 -953473 330248 0 -951821 328663 0 -950171 327074 0 -948522 325482 0 -946873 323886 0 -945226 322287 0 -943579 320684 0 -941934 319078 0 -940290 317468 0 -938647 315854 0 -937005 314237 0 -935365 312617 0 -933725 310992 0 -932087 309364 0 -930449 307732 0 -928813 306097 0 -927178 304458 0 -925545 302815 0 -923912 301169 0 -922281 299518 0 -920651 297864 0 -919023 296207 0 -917396 294545 0 -915769 292879 0 -914145 291210 0 -912521 289537 0 -910899 287860 0 -909278 286179 0 -907659 284494 0 -906041 282805 0 -904424 281113 0 -902808 279416 0 -901194 277715 0 -899581 276010 0 -897970 274301 0 -896360 272588 0 -894751 270871 0 -893144 269