<?xml version="1.0"?> 
<VTKFile type="StructuredGrid" version="0.1"> 
<StructuredGrid WholeExtent="0 127 0 127 0 0"> 
<Piece Extent="0 127 0 127 0 0"> 
<PointData>
<DataArray type="Float32" Name="E" format="ascii" NumberOfComponents="3"> 
3.22762e+06 1.90735e-06 0 2.61655e+06 -1.75089e-07 0 2.19967e+06 1.52737e-06 0 1.90413e+06 -1.53482e-06 0 1.68688e+06 -7.59959e-07 0 1.52141e+06 5.96046e-08 0 1.39121e+06 2.17557e-06 0 1.28576e+06 -2.6226e-06 0 1.19821e+06 2.23517e-06 0 1.12396e+06 -3.99351e-06 0 1.05987e+06 2.32458e-06 0 1.00374e+06 -1.01328e-06 0 953956 2.5034e-06 0 909352 -1.78814e-06 0 869037 1.60933e-06 0 832326 -1.3113e-06 0 798684 1.2517e-06 0 767682 -9.53674e-07 0 738974 7.15256e-07 0 712277 -7.15256e-07 0 687354 1.43051e-06 0 664009 -1.3113e-06 0 642075 1.07288e-06 0 621408 -1.3113e-06 0 601887 5.96046e-07 0 583405 -1.43051e-06 0 565870 7.15256e-07 0 549201 -8.34465e-07 0 533326 9.53674e-07 0 518183 -9.53674e-07 0 503714 7.15256e-07 0 489870 -1.19209e-06 0 476606 -7.15256e-07 0 463880 5.96046e-07 0 451657 8.34465e-07 0 439904 -1.54972e-06 0 428589 1.66893e-06 0 417686 -1.43051e-06 0 407170 9.53674e-07 0 397016 -1.19209e-06 0 387206 9.53674e-07 0 377718 -9.53674e-07 0 368534 1.19209e-06 0 359640 -1.19209e-06 0 351018 1.19209e-06 0 342655 -4.76837e-07 0 334537 9.53674e-07 0 326652 -9.53674e-07 0 318989 9.53674e-07 0 311537 -4.76837e-07 0 304285 7.15256e-07 0 297225 -4.76837e-07 0 290348 7.15256e-07 0 283644 -9.53674e-07 0 277107 2.38419e-07 0 270729 -4.76837e-07 0 264504 0 0 258424 -4.76837e-07 0 252483 2.38419e-07 0 246676 -2.38419e-07 0 240997 0 0 235441 2.38419e-07 0 230003 4.76837e-07 0 224678 -4.76837e-07 0 219462 7.15256e-07 0 214350 0 0 209338 0 0 204422 2.38419e-07 0 199600 0 0 194866 2.38419e-07 0 190219 2.38419e-07 0 185654 2.38419e-07 0 181168 0 0 176759 4.76837e-07 0 172424 -4.76837e-07 0 168159 0 0 163963 -4.76837e-07 0 159833 0 0 155766 -4.76837e-07 0 151761 0 0 147814 -4.76837e-07 0 143924 0 0 140089 -4.76837e-07 0 136307 0 0 132575 -4.76837e-07 0 128892 0 0 125256 -4.76837e-07 0 121666 4.76837e-07 0 118119 0 0 114614 4.76837e-07 0 111150 0 0 107724 4.76837e-07 0 104336 -4.76837e-07 0 100984 0 0 97666.3 -4.76837e-07 0 94381.8 0 0 91129.2 -4.76837e-07 0 87907.2 4.76837e-07 0 84714.3 -4.76837e-07 0 81549.6 4.76837e-07 0 78411.6 -4.76837e-07 0 75299.3 9.53674e-07 0 72211.5 -4.76837e-07 0 69147.1 9.53674e-07 0 66104.9 -4.76837e-07 0 63083.9 0 0 60083.1 -4.76837e-07 0 57101.3 9.53674e-07 0 54137.6 -1.90735e-06 0 51190.9 2.38419e-06 0 48260.3 -2.38419e-06 0 45344.8 1.43051e-06 0 42443.4 -1.43051e-06 0 39555.2 9.53674e-07 0 36679.3 -1.43051e-06 0 33814.7 0 0 30960.6 4.76837e-07 0 28115.9 -1.90735e-06 0 25279.9 4.76837e-07 0 22451.6 0 0 19630.2 -4.76837e-07 0 16814.8 1.90735e-06 0 14004.5 -1.43051e-06 0 11198.5 9.53674e-07 0 8395.91 -1.90735e-06 0 5595.85 4.29153e-06 0 2797.5 -6.19888e-06 0 -1.90735e-06 1.04904e-05 0 1.07177e+06 -1.21557e+06 0 1.22118e+06 -964982 0 1.27105e+06 -782734 0 1.26837e+06 -646559 0 1.23865e+06 -543116 0 1.19612e+06 -463027 0 1.14848e+06 -399980 0 1.09987e+06 -349556 0 1.05242e+06 -308639 0 1.00716e+06 -274991 0 964516 -246981 0 924582 -223405 0 887289 -203359 0 852486 -186157 0 819989 -171271 0 789607 -158290 0 761154 -146892 0 734460 -136819 0 709364 -127865 0 685726 -119863 0 663415 -112677 0 642319 -106194 0 622334 -100321 0 603368 -94979 0 585341 -90103.6 0 568177 -85639 0 551811 -81537.8 0 536184 -77759.6 0 521242 -74269.6 0 506937 -71037.6 0 493225 -68037.6 0 480066 -65246.8 0 467424 -62645.1 0 455265 -60215.1 0 443560 -57941.2 0 432281 -55809.8 0 421402 -53808.7 0 410901 -51926.9 0 400755 -50154.9 0 390944 -48483.9 0 381451 -46906 0 372258 -45414.4 0 363349 -44002.5 0 354710 -42664.7 0 346326 -41395.7 0 338186 -40190.8 0 330277 -39045.6 0 322589 -37956.2 0 315110 -36918.9 0 307830 -35930.6 0 300742 -34988 0 293835 -34088.5 0 287102 -33229.5 0 280536 -32408.5 0 274129 -31623.4 0 267874 -30872.2 0 261764 -30153 0 255795 -29464.1 0 249959 -28803.7 0 244251 -28170.5 0 238667 -27563 0 233201 -26980 0 227849 -26420.1 0 222606 -25882.3 0 217468 -25365.5 0 212431 -24868.8 0 207491 -24391.1 0 202644 -23931.6 0 197887 -23489.6 0 193216 -23064.1 0 188629 -22654.6 0 184121 -22260.2 0 179691 -21880.5 0 175336 -21514.7 0 171051 -21162.4 0 166836 -20822.9 0 162688 -20495.8 0 158604 -20180.6 0 154581 -19876.9 0 150618 -19584.2 0 146712 -19302.1 0 142862 -19030.2 0 139065 -18768.2 0 135320 -18515.8 0 131624 -18272.5 0 127975 -18038.2 0 124373 -17812.5 0 120815 -17595.1 0 117300 -17385.8 0 113826 -17184.3 0 110391 -16990.5 0 106995 -16804 0 103635 -16624.7 0 100310 -16452.3 0 97018.7 -16286.7 0 93760.2 -16127.7 0 90532.8 -15975.2 0 87335.4 -15828.9 0 84166.7 -15688.7 0 81025.4 -15554.4 0 77910.4 -15426 0 74820.6 -15303.3 0 71754.8 -15186.1 0 68711.9 -15074.4 0 65690.8 -14968 0 62690.5 -14866.9 0 59710 -14770.9 0 56748.2 -14679.9 0 53804.1 -14593.9 0 50876.7 -14512.8 0 47965.2 -14436.4 0 45068.4 -14364.8 0 42185.5 -14297.9 0 39315.6 -14235.6 0 36457.7 -14177.8 0 33610.9 -14124.4 0 30774.4 -14075.6 0 27947.2 -14031.1 0 25128.5 -13991 0 22317.4 -13955.1 0 19513 -13923.6 0 16714.5 -13896.4 0 13921.1 -13873.3 0 11131.9 -13854.5 0 8345.97 -13839.9 0 5562.59 -13829.4 0 2780.88 -13823.2 0 1.09803e-06 -13821.1 0 946243 -784854 0 912121 -768135 0 901505 -729752 0 897527 -682555 0 893093 -632846 0 885588 -584220 0 874527 -538419 0 860304 -496205 0 843599 -457782 0 825115 -423054 0 805468 -391782 0 785159 -363660 0 764576 -338371 0 744007 -315606 0 723661 -295080 0 703687 -276535 0 684183 -259740 0 665215 -244494 0 646822 -230617 0 629022 -217956 0 611820 -206374 0 595213 -195753 0 579190 -185989 0 563735 -176994 0 548829 -168687 0 534453 -160999 0 520585 -153870 0 507202 -147245 0 494285 -141077 0 481810 -135325 0 469759 -129950 0 458110 -124921 0 446846 -120206 0 435947 -115781 0 425397 -111620 0 415178 -107704 0 405275 -104012 0 395674 -100528 0 386360 -97235.5 0 377320 -94120.9 0 368542 -91171.4 0 360013 -88375.2 0 351723 -85721.8 0 343660 -83201.4 0 335815 -80805.3 0 328179 -78525.3 0 320741 -76354 0 313495 -74284.7 0 306431 -72310.9 0 299542 -70427 0 292820 -68627.6 0 286260 -66907.8 0 279854 -65263.1 0 273596 -63689.1 0 267480 -62182.1 0 261501 -60738.4 0 255653 -59354.5 0 249931 -58027.4 0 244331 -56754.2 0 238847 -55532.1 0 233476 -54358.5 0 228212 -53231.1 0 223053 -52147.7 0 217994 -51106.1 0 213031 -50104.5 0 208161 -49140.9 0 203381 -48213.7 0 198687 -47321.3 0 194076 -46462 0 189546 -45634.6 0 185093 -44837.7 0 180714 -44069.9 0 176408 -43330.1 0 172171 -42617.2 0 168001 -41930.1 0 163896 -41267.8 0 159853 -40629.3 0 155870 -40013.8 0 151946 -39420.4 0 148077 -38848.3 0 144263 -38296.8 0 140501 -37765 0 136789 -37252.4 0 133126 -36758.3 0 129509 -36282.1 0 125938 -35823.1 0 122410 -35380.9 0 118925 -34955 0 115479 -34544.7 0 112073 -34149.7 0 108705 -33769.5 0 105372 -33403.6 0 102075 -33051.7 0 98810.4 -32713.5 0 95578.4 -32388.4 0 92377.5 -32076.2 0 89206.2 -31776.6 0 86063.5 -31489.2 0 82948.2 -31213.7 0 79859.1 -30949.9 0 76795.1 -30697.5 0 73755.2 -30456.3 0 70738.2 -30225.9 0 67743.2 -30006.3 0 64769 -29797.1 0 61814.7 -29598.2 0 58879.4 -29409.3 0 55962 -29230.4 0 53061.5 -29061.2 0 50177.1 -28901.5 0 47307.8 -28751.3 0 44452.8 -28610.4 0 41611 -28478.7 0 38781.7 -28355.9 0 35963.9 -28242.2 0 33156.8 -28137.2 0 30359.5 -28041 0 27571.2 -27953.4 0 24791 -27874.4 0 22018.2 -27803.9 0 19251.8 -27741.8 0 16491.1 -27688.1 0 13735.2 -27642.7 0 10983.3 -27605.7 0 8234.68 -27576.9 0 5488.45 -27556.3 0 2743.82 -27544 0 -7.76723e-07 -27539.8 0 649772 -800479 0 678389 -749897 0 691712 -708256 0 697404 -670899 0 698799 -636015 0 697402 -602791 0 693893 -570990 0 688636 -540592 0 681875 -511651 0 673820 -484223 0 664670 -458342 0 654615 -434009 0 643837 -411199 0 632499 -389863 0 620749 -369938 0 608713 -351348 0 596503 -334015 0 584208 -317856 0 571907 -302790 0 559659 -288737 0 547515 -275623 0 535515 -263377 0 523690 -251931 0 512062 -241223 0 500649 -231197 0 489464 -221800 0 478515 -212983 0 467808 -204702 0 457344 -196916 0 447124 -189587 0 437147 -182683 0 427411 -176171 0 417911 -170023 0 408643 -164213 0 399603 -158717 0 390784 -153513 0 382181 -148582 0 373788 -143904 0 365599 -139464 0 357608 -135244 0 349809 -131232 0 342196 -127414 0 334762 -123778 0 327502 -120312 0 320410 -117006 0 313481 -113852 0 306708 -110839 0 300088 -107960 0 293614 -105207 0 287281 -102573 0 281085 -100051 0 275022 -97636 0 269085 -95321.5 0 263272 -93102.5 0 257578 -90973.9 0 251999 -88931.2 0 246531 -86969.9 0 241171 -85086.2 0 235913 -83276.2 0 230757 -81536.4 0 225696 -79863.4 0 220730 -78254.2 0 215854 -76705.8 0 211065 -75215.5 0 206360 -73780.7 0 201738 -72398.9 0 197194 -71067.9 0 192726 -69785.6 0 188333 -68549.8 0 184010 -67358.7 0 179757 -66210.4 0 175570 -65103.3 0 171448 -64035.7 0 167388 -63006.1 0 163388 -62013 0 159447 -61055.1 0 155562 -60131.1 0 151731 -59239.7 0 147953 -58379.8 0 144227 -57550.3 0 140549 -56750.1 0 136919 -55978.2 0 133335 -55233.7 0 129795 -54515.7 0 126298 -53823.4 0 122843 -53155.8 0 119427 -52512.4 0 116051 -51892.2 0 112711 -51294.7 0 109407 -50719.2 0 106138 -50165 0 102903 -49631.6 0 99699.5 -49118.4 0 96527.1 -48624.8 0 93384.6 -48150.4 0 90270.8 -47694.6 0 87184.5 -47257 0 84124.8 -46837.2 0 81090.4 -46434.7 0 78080.5 -46049.1 0 75094 -45680.1 0 72129.8 -45327.3 0 69187.1 -44990.4 0 66264.8 -44669 0 63362 -44362.9 0 60477.7 -44071.8 0 57611.1 -43795.4 0 54761.3 -43533.4 0 51927.4 -43285.6 0 49108.4 -43051.8 0 46303.6 -42831.8 0 43512.2 -42625.4 0 40733.1 -42432.3 0 37965.8 -42252.5 0 35209.2 -42085.7 0 32462.7 -41931.9 0 29725.3 -41790.9 0 26996.4 -41662.5 0 24275.2 -41546.6 0 21560.7 -41443.3 0 18852.4 -41352.2 0 16149.4 -41273.5 0 13450.9 -41207 0 10756.2 -41152.6 0 8064.49 -41110.4 0 5375.07 -41080.2 0 2687.16 -41062.1 0 5.51343e-07 -41056.1 0 548483 -708613 0 547520 -691258 0 550588 -669661 0 554279 -646347 0 557253 -622430 0 559028 -598531 0 559503 -574973 0 558724 -551948 0 556791 -529571 0 553820 -507921 0 549928 -487049 0 545225 -466990 0 539814 -447765 0 533795 -429380 0 527256 -411833 0 520282 -395114 0 512946 -379205 0 505317 -364084 0 497457 -349723 0 489420 -336093 0 481253 -323162 0 472999 -310897 0 464694 -299266 0 456370 -288237 0 448054 -277776 0 439768 -267853 0 431532 -258437 0 423363 -249500 0 415273 -241014 0 407275 -232953 0 399376 -225292 0 391584 -218008 0 383906 -211079 0 376345 -204483 0 368904 -198202 0 361585 -192218 0 354391 -186512 0 347320 -181071 0 340375 -175877 0 333553 -170918 0 326855 -166180 0 320279 -161651 0 313823 -157320 0 307486 -153176 0 301265 -149209 0 295159 -145409 0 289166 -141768 0 283282 -138278 0 277506 -134930 0 271836 -131718 0 266268 -128634 0 260800 -125674 0 255430 -122829 0 250156 -120096 0 244974 -117468 0 239883 -114940 0 234879 -112509 0 229962 -110169 0 225128 -107917 0 220374 -105748 0 215700 -103659 0 211102 -101646 0 206578 -99706.7 0 202127 -97837.1 0 197745 -96034.6 0 193433 -94296.5 0 189186 -92620 0 185003 -91002.8 0 180883 -89442.5 0 176824 -87936.8 0 172823 -86483.8 0 168879 -85081.3 0 164991 -83727.5 0 161157 -82420.7 0 157374 -81159 0 153642 -79941 0 149959 -78765 0 146323 -77629.7 0 142734 -76533.5 0 139189 -75475.3 0 135687 -74453.8 0 132227 -73467.7 0 128808 -72516 0 125427 -71597.5 0 122085 -70711.3 0 118780 -69856.3 0 115510 -69031.7 0 112274 -68236.6 0 109072 -67470.1 0 105902 -66731.4 0 102762 -66019.7 0 99652.8 -65334.4 0 96572.3 -64674.7 0 93519.7 -64040.1 0 90493.9 -63429.7 0 87493.9 -62843.2 0 84518.7 -62279.8 0 81567.5 -61739.1 0 78639.3 -61220.5 0 75733.2 -60723.6 0 72848.2 -60247.9 0 69983.5 -59792.9 0 67138.3 -59358.3 0 64311.5 -58943.7 0 61502.6 -58548.6 0 58710.5 -58172.8 0 55934.4 -57815.8 0 53173.7 -57477.4 0 50427.4 -57157.3 0 47694.8 -56855.2 0 44975.1 -56570.9 0 42267.5 -56304 0 39571.3 -56054.5 0 36885.8 -55822 0 34210.2 -55606.3 0 31543.7 -55407.3 0 28885.6 -55224.9 0 26235.3 -55058.8 0 23591.9 -54908.9 0 20954.9 -54775.2 0 18323.4 -54657.4 0 15696.7 -54555.5 0 13074.3 -54469.4 0 10455.3 -54399.1 0 7839.03 -54344.4 0 5224.86 -54305.4 0 2612.09 -54281.9 0 -5.96046e-07 -54274.1 0 431288 -682814 0 440571 -661279 0 446632 -641461 0 450991 -622355 0 454235 -603619 0 456593 -585122 0 458149 -566855 0 458946 -548851 0 459013 -531158 0 458385 -513824 0 457102 -496890 0 455208 -480393 0 452752 -464362 0 449781 -448816 0 446344 -433771 0 442490 -419236 0 438263 -405216 0 433709 -391709 0 428867 -378713 0 423777 -366220 0 418474 -354220 0 412991 -342703 0 407358 -331655 0 401602 -321062 0 395749 -310909 0 389820 -301180 0 383836 -291860 0 377814 -282932 0 371770 -274380 0 365719 -266189 0 359672 -258342 0 353641 -250825 0 347635 -243622 0 341661 -236720 0 335728 -230104 0 329842 -223761 0 324007 -217680 0 318227 -211846 0 312508 -206249 0 306851 -200878 0 301258 -195722 0 295733 -190772 0 290277 -186016 0 284890 -181448 0 279574 -177057 0 274328 -172835 0 269154 -168776 0 264051 -164871 0 259018 -161114 0 254057 -157498 0 249165 -154016 0 244343 -150663 0 239590 -147434 0 234904 -144322 0 230285 -141324 0 225732 -138433 0 221243 -135645 0 216818 -132957 0 212456 -130364 0 208155 -127862 0 203914 -125448 0 199732 -123118 0 195607 -120868 0 191539 -118696 0 187526 -116598 0 183567 -114573 0 179660 -112616 0 175805 -110726 0 172000 -108899 0 168244 -107135 0 164535 -105430 0 160874 -103782 0 157257 -102190 0 153685 -100651 0 150156 -99163.3 0 146669 -97726 0 143222 -96336.8 0 139815 -94994.4 0 136447 -93697.2 0 133116 -92443.7 0 129822 -91232.6 0 126563 -90062.6 0 123338 -88932.5 0 120147 -87841.1 0 116989 -86787.1 0 113861 -85769.7 0 110764 -84787.7 0 107697 -83840.2 0 104659 -82926.2 0 101648 -82044.8 0 98663.5 -81195.3 0 95705.3 -80376.7 0 92772.2 -79588.3 0 89863.3 -78829.4 0 86977.7 -78099.2 0 84114.7 -77397.2 0 81273.5 -76722.6 0 78453.2 -76074.9 0 75653.1 -75453.4 0 72872.3 -74857.6 0 70110.2 -74287.1 0 67365.9 -73741.2 0 64638.7 -73219.6 0 61927.9 -72721.8 0 59232.8 -72247.3 0 56552.6 -71795.7 0 53886.6 -71366.8 0 51234.1 -70960 0 48594.4 -70575.2 0 45966.9 -70211.9 0 43350.9 -69869.8 0 40745.6 -69548.8 0 38150.5 -69248.4 0 35564.8 -68968.6 0 32988 -68709 0 30419.3 -68469.4 0 27858.1 -68249.7 0 25303.8 -68049.7 0 22755.7 -67869.2 0 20213.3 -67708 0 17675.8 -67566.1 0 15142.6 -67443.4 0 12613.2 -67339.6 0 10086.8 -67254.9 0 7562.95 -67189 0 5040.94 -67142 0 2520.16 -67113.7 0 7.22706e-07 -67104.3 0 356405 -641903 0 360241 -628264 0 364479 -613774 0 368450 -598965 0 371917 -584060 0 374804 -569182 0 377105 -554400 0 378835 -539759 0 380017 -525296 0 380677 -511042 0 380840 -497022 0 380535 -483262 0 379787 -469781 0 378624 -456597 0 377076 -443726 0 375168 -431178 0 372930 -418964 0 370389 -407089 0 367570 -395557 0 364500 -384370 0 361203 -373529 0 357702 -363031 0 354019 -352873 0 350175 -343050 0 346189 -333558 0 342080 -324389 0 337864 -315536 0 333557 -306991 0 329173 -298747 0 324726 -290794 0 320227 -283123 0 315687 -275727 0 311117 -268595 0 306525 -261720 0 301919 -255091 0 297307 -248701 0 292696 -242540 0 288091 -236600 0 283497 -230873 0 278920 -225351 0 274364 -220025 0 269832 -214890 0 265327 -209936 0 260853 -205157 0 256411 -200547 0 252004 -196099 0 247633 -191805 0 243301 -187662 0 239008 -183662 0 234756 -179800 0 230545 -176070 0 226376 -172469 0 222249 -168990 0 218165 -165629 0 214124 -162381 0 210127 -159243 0 206172 -156210 0 202261 -153279 0 198392 -150445 0 194566 -147704 0 190782 -145055 0 187040 -142492 0 183339 -140014 0 179679 -137617 0 176060 -135298 0 172480 -133055 0 168940 -130885 0 165438 -128785 0 161974 -126753 0 158548 -124788 0 155158 -122885 0 151804 -121045 0 148485 -119264 0 145200 -117540 0 141950 -115873 0 138732 -114259 0 135547 -112699 0 132393 -111188 0 129271 -109728 0 126178 -108315 0 123115 -106949 0 120080 -105627 0 117074 -104350 0 114094 -103115 0 111141 -101922 0 108214 -100769 0 105313 -99656 0 102435 -98580.9 0 99581.3 -97543 0 96750.6 -96541.6 0 93942.2 -95575.6 0 91155.5 -94644.3 0 88389.7 -93746.8 0 85644.3 -92882.4 0 82918.6 -92050.2 0 80211.8 -91249.7 0 77523.4 -90480 0 74852.8 -89740.7 0 72199.2 -89031 0 69562.1 -88350.3 0 66940.8 -87698.2 0 64334.7 -87074 0 61743.2 -86477.4 0 59165.7 -85907.7 0 56601.6 -85364.5 0 54050.2 -84847.4 0 51511.1 -84356.1 0 48983.6 -83890 0 46467.1 -83448.9 0 43961.1 -83032.3 0 41464.9 -82640.1 0 38978.1 -82271.8 0 36499.9 -81927.2 0 34030 -81606.1 0 31567.7 -81308.1 0 29112.4 -81033.1 0 26663.6 -80780.8 0 24220.8 -80551.1 0 21783.4 -80343.8 0 19350.8 -80158.7 0 16922.5 -79995.6 0 14498 -79854.6 0 12076.8 -79735.4 0 9658.2 -79638 0 7241.77 -79562.3 0 4826.95 -79508.3 0 2413.21 -79475.8 0 -6.63102e-07 -79464.9 0 288087 -614389 0 293401 -601571 0 297854 -589051 0 301740 -576639 0 305161 -564285 0 308155 -551978 0 310735 -539731 0 312907 -527564 0 314680 -515500 0 316064 -503557 0 317071 -491757 0 317714 -480117 0 318009 -468652 0 317971 -457378 0 317617 -446305 0 316964 -435446 0 316029 -424809 0 314829 -414401 0 313382 -404229 0 311704 -394297 0 309811 -384609 0 307720 -375165 0 305447 -365969 0 303006 -357019 0 300412 -348314 0 297678 -339853 0 294818 -331633 0 291844 -323652 0 288767 -315905 0 285599 -308389 0 282349 -301099 0 279028 -294031 0 275645 -287179 0 272208 -280539 0 268724 -274105 0 265200 -267872 0 261645 -261835 0 258062 -255987 0 254459 -250324 0 250840 -244839 0 247210 -239529 0 243573 -234386 0 239934 -229407 0 236295 -224586 0 232661 -219918 0 229033 -215398 0 225415 -211021 0 221809 -206783 0 218217 -202678 0 214641 -198704 0 211083 -194854 0 207544 -191126 0 204026 -187516 0 200529 -184018 0 197055 -180630 0 193605 -177348 0 190179 -174169 0 186778 -171089 0 183402 -168105 0 180052 -165214 0 176729 -162412 0 173432 -159697 0 170161 -157067 0 166917 -154518 0 163700 -152048 0 160510 -149654 0 157347 -147334 0 154210 -145087 0 151099 -142908 0 148015 -140797 0 144956 -138752 0 141924 -136770 0 138917 -134849 0 135935 -132989 0 132978 -131186 0 130045 -129440 0 127136 -127749 0 124251 -126111 0 121390 -124524 0 118551 -122988 0 115735 -121502 0 112940 -120062 0 110168 -118670 0 107416 -117322 0 104685 -116019 0 101974 -114759 0 99282.9 -113541 0 96610.9 -112364 0 93957.7 -111227 0 91322.8 -110129 0 88705.7 -109069 0 86105.9 -108046 0 83522.9 -107060 0 80956.2 -106110 0 78405.4 -105194 0 75870 -104313 0 73349.4 -103465 0 70843.2 -102651 0 68351 -101868 0 65872.1 -101117 0 63406.2 -100398 0 60952.8 -99708.6 0 58511.4 -99049.5 0 56081.5 -98420 0 53662.6 -97819.6 0 51254.2 -97247.9 0 48856 -96704.3 0 46467.4 -96188.6 0 44087.9 -95700.3 0 41717 -95239.1 0 39354.4 -94804.6 0 36999.6 -94396.6 0 34652 -94014.8 0 32311.2 -93658.8 0 29976.8 -93328.5 0 27648.3 -93023.5 0 25325.2 -92743.7 0 23007.1 -92488.9 0 20693.5 -92258.9 0 18384 -92053.5 0 16078.1 -91872.7 0 13775.4 -91716.1 0 11475.3 -91583.8 0 9177.57 -91475.7 0 6881.6 -91391.7 0 4586.98 -91331.7 0 2293.27 -91295.7 0 5.1409e-07 -91283.6 0 233897 -586190 0 238048 -576038 0 242052 -565709 0 245780 -555315 0 249191 -544905 0 252275 -534508 0 255034 -524145 0 257474 -513833 0 259601 -503586 0 261422 -493417 0 262946 -483341 0 264182 -473369 0 265138 -463513 0 265825 -453784 0 266252 -444190 0 266431 -434741 0 266373 -425445 0 266087 -416308 0 265587 -407337 0 264882 -398535 0 263985 -389908 0 262905 -381458 0 261655 -373189 0 260245 -365102 0 258685 -357198 0 256986 -349479 0 255156 -341942 0 253207 -334590 0 251147 -327419 0 248984 -320430 0 246727 -313619 0 244384 -306986 0 241963 -300527 0 239470 -294241 0 236912 -288124 0 234296 -282173 0 231627 -276385 0 228912 -270756 0 226155 -265284 0 223362 -259965 0 220537 -254796 0 217684 -249772 0 214807 -244891 0 211911 -240149 0 208998 -235542 0 206072 -231067 0 203136 -226720 0 200192 -222499 0 197243 -218398 0 194291 -214417 0 191339 -210550 0 188388 -206795 0 185440 -203148 0 182497 -199607 0 179560 -196169 0 176630 -192831 0 173710 -189589 0 170799 -186442 0 167899 -183386 0 165011 -180420 0 162136 -177539 0 159274 -174743 0 156425 -172028 0 153591 -169392 0 150772 -166834 0 147968 -164350 0 145179 -161940 0 142407 -159600 0 139650 -157329 0 136910 -155125 0 134186 -152986 0 131479 -150911 0 128788 -148897 0 126113 -146944 0 123455 -145049 0 120814 -143211 0 118189 -141429 0 115580 -139701 0 112987 -138025 0 110411 -136401 0 107850 -134828 0 105305 -133303 0 102775 -131826 0 100260 -130396 0 97760.8 -129012 0 95275.9 -127672 0 92805.6 -126375 0 90349.5 -125121 0 87907.3 -123909 0 85478.7 -122738 0 83063.5 -121606 0 80661.3 -120514 0 78271.9 -119459 0 75894.9 -118443 0 73529.9 -117463 0 71176.8 -116519 0 68835 -115611 0 66504.4 -114737 0 64184.5 -113897 0 61875.1 -113092 0 59575.7 -112319 0 57286.1 -111578 0 55005.8 -110870 0 52734.6 -110193 0 50472 -109547 0 48217.7 -108931 0 45971.4 -108346 0 43732.7 -107791 0 41501.3 -107264 0 39276.7 -106767 0 37058.7 -106299 0 34846.8 -105859 0 32640.8 -105447 0 30440.1 -105063 0 28244.6 -104706 0 26053.8 -104377 0 23867.3 -104075 0 21684.9 -103800 0 19506 -103552 0 17330.5 -103330 0 15157.8 -103134 0 12987.7 -102965 0 10819.7 -102822 0 8653.6 -102705 0 6488.93 -102615 0 4325.35 -102550 0 2162.49 -102511 0 -7.45058e-07 -102498 0 186576 -561670 0 190802 -552702 0 194692 -543772 0 198300 -534849 0 201646 -525932 0 204734 -517027 0 207570 -508142 0 210154 -499288 0 212490 -490475 0 214582 -481714 0 216435 -473014 0 218054 -464384 0 219445 -455832 0 220615 -447368 0 221569 -438998 0 222315 -430729 0 222861 -422567 0 223213 -414519 0 223379 -406589 0 223366 -398782 0 223184 -391102 0 222839 -383552 0 222338 -376136 0 221691 -368856 0 220904 -361715 0 219985 -354712 0 218941 -347850 0 217779 -341130 0 216507 -334552 0 215130 -328115 0 213656 -321820 0 212092 -315666 0 210442 -309651 0 208713 -303776 0 206911 -298039 0 205040 -292438 0 203106 -286971 0 201115 -281637 0 199070 -276434 0 196975 -271360 0 194836 -266413 0 192656 -261591 0 190439 -256890 0 188188 -252310 0 185907 -247847 0 183599 -243500 0 181267 -239266 0 178913 -235142 0 176540 -231126 0 174150 -227216 0 171747 -223409 0 169331 -219703 0 166906 -216096 0 164472 -212585 0 162031 -209168 0 159586 -205843 0 157137 -202608 0 154686 -199460 0 152234 -196397 0 149782 -193418 0 147331 -190520 0 144883 -187701 0 142438 -184959 0 139998 -182293 0 137561 -179700 0 135131 -177180 0 132706 -174729 0 130288 -172346 0 127877 -170030 0 125474 -167779 0 123079 -165592 0 120692 -163467 0 118313 -161402 0 115944 -159396 0 113583 -157447 0 111232 -155555 0 108890 -153718 0 106558 -151935 0 104236 -150205 0 101923 -148525 0 99619.8 -146896 0 97326.7 -145316 0 95043.4 -143785 0 92769.8 -142300 0 90506 -140861 0 88251.8 -139467 0 86007.3 -138117 0 83772.3 -136811 0 81546.7 -135547 0 79330.3 -134325 0 77123.2 -133143 0 74925 -132001 0 72735.7 -130899 0 70555.1 -129835 0 68383 -128808 0 66219.2 -127819 0 64063.6 -126867 0 61915.9 -125950 0 59775.9 -125069 0 57643.5 -124223 0 55518.4 -123411 0 53400.3 -122632 0 51289.1 -121887 0 49184.6 -121175 0 47086.4 -120495 0 44994.3 -119846 0 42908.2 -119230 0 40827.7 -118644 0 38752.6 -118090 0 36682.6 -117565 0 34617.5 -117071 0 32557.1 -116607 0 30501 -116172 0 28449 -115767 0 26400.8 -115390 0 24356.2 -115042 0 22314.9 -114723 0 20276.6 -114432 0 18241.1 -114170 0 16208 -113935 0 14177.2 -113729 0 12148.3 -113550 0 10121 -113399 0 8095.15 -113275 0 6070.4 -113179 0 4046.47 -113111 0 2023.1 -113069 0 3.35276e-07 -113056 0 146322 -538212 0 150197 -530569 0 153895 -522878 0 157391 -515168 0 160679 -507451 0 163757 -499737 0 166628 -492036 0 169294 -484354 0 171756 -476700 0 174018 -469081 0 176083 -461503 0 177955 -453974 0 179638 -446499 0 181136 -439086 0 182452 -431739 0 183593 -424464 0 184564 -417267 0 185368 -410152 0 186011 -403123 0 186499 -396185 0 186838 -389340 0 187032 -382593 0 187088 -375946 0 187010 -369402 0 186805 -362963 0 186478 -356630 0 186035 -350406 0 185480 -344292 0 184820 -338288 0 184059 -332396 0 183202 -326616 0 182255 -320948 0 181223 -315392 0 180109 -309948 0 178919 -304616 0 177658 -299396 0 176328 -294286 0 174935 -289285 0 173482 -284394 0 171974 -279610 0 170413 -274933 0 168804 -270361 0 167150 -265893 0 165453 -261528 0 163717 -257264 0 161945 -253100 0 160139 -249033 0 158303 -245064 0 156438 -241188 0 154547 -237407 0 152633 -233716 0 150697 -230116 0 148740 -226603 0 146767 -223178 0 144777 -219837 0 142772 -216579 0 140755 -213402 0 138726 -210306 0 136688 -207288 0 134640 -204346 0 132585 -201480 0 130524 -198686 0 128458 -195965 0 126387 -193315 0 124312 -190733 0 122235 -188218 0 120157 -185770 0 118077 -183387 0 115997 -181066 0 113917 -178808 0 111838 -176610 0 109761 -174472 0 107685 -172392 0 105611 -170369 0 103541 -168401 0 101473 -166488 0 99408.9 -164629 0 97348.4 -162822 0 95291.9 -161066 0 93239.6 -159360 0 91191.8 -157704 0 89148.5 -156096 0 87110.1 -154536 0 85076.6 -153022 0 83048 -151553 0 81024.7 -150130 0 79006.5 -148750 0 76993.6 -147413 0 74985.9 -146119 0 72983.6 -144866 0 70986.6 -143654 0 68994.9 -142482 0 67008.5 -141350 0 65027.3 -140257 0 63051.4 -139201 0 61080.6 -138184 0 59114.9 -137203 0 57154.2 -136259 0 55198.4 -135350 0 53247.4 -134477 0 51301.2 -133639 0 49359.5 -132835 0 47422.3 -132066 0 45489.5 -131330 0 43560.9 -130626 0 41636.4 -129956 0 39715.9 -129318 0 37799.1 -128712 0 35886 -128138 0 33976.4 -127595 0 32070 -127083 0 30166.9 -126601 0 28266.7 -126151 0 26369.4 -125730 0 24474.6 -125340 0 22582.4 -124979 0 20692.4 -124648 0 18804.6 -124346 0 16918.6 -124073 0 15034.4 -123830 0 13151.7 -123615 0 11270.4 -123429 0 9390.2 -123272 0 7511 -123144 0 5632.57 -123044 0 3754.72 -122973 0 1877.26 -122930 0 -3.35276e-07 -122916 0 111144 -516341 0 114903 -509627 0 118474 -502907 0 121867 -496179 0 125086 -489446 0 128132 -482714 0 131006 -475988 0 133709 -469274 0 136244 -462578 0 138611 -455906 0 140814 -449262 0 142854 -442651 0 144734 -436080 0 146458 -429552 0 148028 -423071 0 149448 -416644 0 150720 -410273 0 151850 -403962 0 152840 -397715 0 153695 -391536 0 154418 -385427 0 155013 -379391 0 155485 -373431 0 155837 -367550 0 156074 -361749 0 156200 -356031 0 156218 -350397 0 156134 -344848 0 155951 -339387 0 155673 -334013 0 155304 -328729 0 154848 -323534 0 154309 -318429 0 153690 -313414 0 152996 -308491 0 152230 -303658 0 151395 -298916 0 150495 -294264 0 149533 -289702 0 148513 -285230 0 147437 -280848 0 146308 -276554 0 145130 -272348 0 143904 -268229 0 142635 -264197 0 141324 -260250 0 139973 -256387 0 138586 -252608 0 137165 -248911 0 135711 -245296 0 134226 -241761 0 132714 -238305 0 131175 -234927 0 129611 -231626 0 128025 -228401 0 126417 -225250 0 124790 -222172 0 123144 -219166 0 121482 -216231 0 119804 -213366 0 118112 -210569 0 116406 -207839 0 114689 -205176 0 112961 -202577 0 111223 -200042 0 109477 -197570 0 107722 -195159 0 105960 -192808 0 104191 -190517 0 102417 -188284 0 100638 -186108 0 98854.6 -183988 0 97067.5 -181923 0 95277.1 -179912 0 93484.2 -177955 0 91689.1 -176049 0 89892.3 -174195 0 88094.3 -172391 0 86295.4 -170636 0 84496 -168930 0 82696.4 -167271 0 80897 -165659 0 79098 -164094 0 77299.6 -162573 0 75502.2 -161097 0 73705.9 -159665 0 71911 -158275 0 70117.5 -156928 0 68325.7 -155623 0 66535.7 -154358 0 64747.6 -153134 0 62961.5 -151950 0 61177.5 -150805 0 59395.6 -149698 0 57616 -148629 0 55838.7 -147597 0 54063.7 -146603 0 52291 -145645 0 50520.7 -144723 0 48752.8 -143836 0 46987.2 -142984 0 45223.9 -142167 0 43463 -141384 0 41704.3 -140635 0 39947.9 -139919 0 38193.7 -139236 0 36441.6 -138586 0 34691.7 -137968 0 32943.7 -137383 0 31197.7 -136829 0 29453.6 -136306 0 27711.3 -135815 0 25970.7 -135355 0 24231.7 -134925 0 22494.3 -134526 0 20758.3 -134158 0 19023.6 -133819 0 17290.2 -133511 0 15557.9 -133232 0 13826.6 -132983 0 12096.2 -132764 0 10366.7 -132574 0 8637.85 -132413 0 6909.58 -132282 0 5181.77 -132180 0 3454.32 -132107 0 1727.1 -132063 0 3.72529e-07 -132048 0 80474.3 -495485 0 84058.2 -489617 0 87500.9 -483729 0 90797.8 -477828 0 93948.1 -471920 0 96952.1 -466010 0 99810.6 -460102 0 102525 -454202 0 105096 -448312 0 107525 -442438 0 109814 -436583 0 111964 -430752 0 113978 -424948 0 115857 -419176 0 117605 -413439 0 119223 -407739 0 120713 -402082 0 122079 -396469 0 123323 -390905 0 124448 -385390 0 125457 -379930 0 126353 -374525 0 127139 -369178 0 127817 -363892 0 128392 -358668 0 128866 -353508 0 129242 -348414 0 129524 -343387 0 129715 -338429 0 129817 -333540 0 129834 -328723 0 129769 -323977 0 129626 -319304 0 129406 -314704 0 129113 -310178 0 128750 -305726 0 128320 -301348 0 127825 -297045 0 127269 -292817 0 126654 -288663 0 125982 -284584 0 125256 -280579 0 124479 -276649 0 123653 -272792 0 122780 -269008 0 121863 -265298 0 120903 -261660 0 119903 -258093 0 118865 -254598 0 117791 -251174 0 116683 -247819 0 115541 -244534 0 114370 -241317 0 113169 -238168 0 111940 -235085 0 110686 -232069 0 109407 -229118 0 108105 -226231 0 106781 -223408 0 105437 -220648 0 104074 -217949 0 102693 -215311 0 101294 -212734 0 99880.5 -210215 0 98451.8 -207755 0 97009.3 -205352 0 95554 -203006 0 94086.6 -200715 0 92608.1 -198480 0 91119.3 -196298 0 89620.8 -194170 0 88113.5 -192093 0 86597.9 -190069 0 85074.7 -188095 0 83544.6 -186171 0 82008 -184296 0 80465.6 -182470 0 78917.8 -180691 0 77365.1 -178960 0 75808 -177274 0 74246.9 -175634 0 72682.1 -174039 0 71114.1 -172488 0 69543.2 -170980 0 67969.7 -169516 0 66393.9 -168093 0 64816.1 -166712 0 63236.6 -165372 0 61655.6 -164072 0 60073.4 -162813 0 58490.1 -161592 0 56905.9 -160411 0 55321 -159267 0 53735.6 -158161 0 52149.9 -157093 0 50563.9 -156061 0 48977.8 -155066 0 47391.6 -154106 0 45805.6 -153182 0 44219.8 -152293 0 42634.2 -151439 0 41048.9 -150619 0 39464 -149833 0 37879.5 -149080 0 36295.5 -148361 0 34712.1 -147675 0 33129.1 -147021 0 31546.7 -146400 0 29964.9 -145810 0 28383.6 -145252 0 26803 -144726 0 25222.9 -144232 0 23643.3 -143768 0 22064.3 -143335 0 20485.9 -142933 0 18907.9 -142561 0 17330.4 -142220 0 15753.4 -141908 0 14176.8 -141627 0 12600.6 -141376 0 11024.7 -141155 0 9449.17 -140963 0 7873.89 -140801 0 6298.83 -140668 0 4723.96 -140565 0 3149.23 -140492 0 1574.59 -140447 0 -3.57628e-07 -140433 0 53508 -475628 0 56967.8 -470453 0 60299 -465266 0 63503.7 -460067 0 66582.6 -454862 0 