<?xml version="1.0"?> 
<VTKFile type="StructuredGrid" version="0.1"> 
<StructuredGrid WholeExtent="0 127 0 127 0 0"> 
<Piece Extent="0 127 0 127 0 0"> 
<PointData>
<DataArray type="Float32" Name="E" format="ascii" NumberOfComponents="3"> 
-1.04424e+06 5.96046e-07 0 -1.04424e+06 253.486 0 -1.04424e+06 506.973 0 -1.04423e+06 760.459 0 -1.04423e+06 1013.95 0 -1.04422e+06 1267.43 0 -1.04422e+06 1520.92 0 -1.04421e+06 1774.4 0 -1.0442e+06 2027.89 0 -1.04419e+06 2281.38 0 -1.04418e+06 2534.86 0 -1.04417e+06 2788.35 0 -1.04415e+06 3041.83 0 -1.04414e+06 3295.32 0 -1.04412e+06 3548.8 0 -1.0441e+06 3802.28 0 -1.04409e+06 4055.77 0 -1.04407e+06 4309.25 0 -1.04404e+06 4562.73 0 -1.04402e+06 4816.22 0 -1.044e+06 5069.7 0 -1.04397e+06 5323.18 0 -1.04395e+06 5576.66 0 -1.04392e+06 5830.14 0 -1.04389e+06 6083.62 0 -1.04386e+06 6337.1 0 -1.04383e+06 6590.58 0 -1.0438e+06 6844.05 0 -1.04377e+06 7097.53 0 -1.04373e+06 7351.01 0 -1.0437e+06 7604.48 0 -1.04366e+06 7857.95 0 -1.04362e+06 8111.43 0 -1.04358e+06 8364.9 0 -1.04354e+06 8618.37 0 -1.0435e+06 8871.84 0 -1.04346e+06 9125.31 0 -1.04341e+06 9378.78 0 -1.04337e+06 9632.25 0 -1.04332e+06 9885.71 0 -1.04328e+06 10139.2 0 -1.04323e+06 10392.6 0 -1.04318e+06 10646.1 0 -1.04312e+06 10899.6 0 -1.04307e+06 11153 0 -1.04302e+06 11406.5 0 -1.04296e+06 11659.9 0 -1.04291e+06 11913.4 0 -1.04285e+06 12166.8 0 -1.04279e+06 12420.3 0 -1.04273e+06 12673.8 0 -1.04267e+06 12927.2 0 -1.04261e+06 13180.6 0 -1.04255e+06 13434.1 0 -1.04248e+06 13687.5 0 -1.04242e+06 13941 0 -1.04235e+06 14194.4 0 -1.04228e+06 14447.9 0 -1.04221e+06 14701.3 0 -1.04214e+06 14954.7 0 -1.04207e+06 15208.1 0 -1.04199e+06 15461.6 0 -1.04192e+06 15715 0 -1.04185e+06 15968.4 0 -1.04177e+06 16221.8 0 -1.04169e+06 16475.3 0 -1.04161e+06 16728.7 0 -1.04153e+06 16982.1 0 -1.04145e+06 17235.5 0 -1.04137e+06 17488.9 0 -1.04128e+06 17742.3 0 -1.0412e+06 17995.7 0 -1.04111e+06 18249.1 0 -1.04102e+06 18502.5 0 -1.04093e+06 18755.9 0 -1.04084e+06 19009.3 0 -1.04075e+06 19262.7 0 -1.04066e+06 19516 0 -1.04057e+06 19769.4 0 -1.04047e+06 20022.8 0 -1.04037e+06 20276.2 0 -1.04028e+06 20529.5 0 -1.04018e+06 20782.9 0 -1.04008e+06 21036.3 0 -1.03998e+06 21289.6 0 -1.03987e+06 21543 0 -1.03977e+06 21796.3 0 -1.03967e+06 22049.7 0 -1.03956e+06 22303 0 -1.03945e+06 22556.3 0 -1.03934e+06 22809.7 0 -1.03923e+06 23063 0 -1.03912e+06 23316.3 0 -1.03901e+06 23569.6 0 -1.0389e+06 23822.9 0 -1.03878e+06 24076.2 0 -1.03867e+06 24329.5 0 -1.03855e+06 24582.8 0 -1.03843e+06 24836.1 0 -1.03831e+06 25089.4 0 -1.03819e+06 25342.7 0 -1.03807e+06 25595.9 0 -1.03794e+06 25849.2 0 -1.03782e+06 26102.5 0 -1.03769e+06 26355.7 0 -1.03757e+06 26609 0 -1.03744e+06 26862.2 0 -1.03731e+06 27115.5 0 -1.03718e+06 27368.7 0 -1.03704e+06 27621.9 0 -1.03691e+06 27875.2 0 -1.03678e+06 28128.4 0 -1.03664e+06 28381.6 0 -1.0365e+06 28634.8 0 -1.03637e+06 28888 0 -1.03623e+06 29141.2 0 -1.03608e+06 29394.4 0 -1.03594e+06 29647.5 0 -1.0358e+06 29900.7 0 -1.03565e+06 30153.9 0 -1.03551e+06 30407 0 -1.03536e+06 30660.2 0 -1.03521e+06 30913.3 0 -1.03506e+06 31166.5 0 -1.03491e+06 31419.6 0 -1.03476e+06 31672.7 0 -1.03461e+06 31925.9 0 -1.03445e+06 32179.1 0 -1.04605e+06 -4.76894e-07 0 -1.04605e+06 261.96 0 -1.04605e+06 523.92 0 -1.04605e+06 785.88 0 -1.04604e+06 1047.84 0 -1.04604e+06 1309.8 0 -1.04603e+06 1571.76 0 -1.04602e+06 1833.72 0 -1.04601e+06 2095.68 0 -1.046e+06 2357.64 0 -1.04599e+06 2619.6 0 -1.04598e+06 2881.56 0 -1.04597e+06 3143.53 0 -1.04595e+06 3405.49 0 -1.04594e+06 3667.45 0 -1.04592e+06 3929.41 0 -1.0459e+06 4191.37 0 -1.04588e+06 4453.34 0 -1.04586e+06 4715.3 0 -1.04584e+06 4977.26 0 -1.04581e+06 5239.23 0 -1.04579e+06 5501.19 0 -1.04576e+06 5763.16 0 -1.04573e+06 6025.13 0 -1.04571e+06 6287.09 0 -1.04568e+06 6549.06 0 -1.04565e+06 6811.03 0 -1.04561e+06 7072.99 0 -1.04558e+06 7334.96 0 -1.04555e+06 7596.93 0 -1.04551e+06 7858.9 0 -1.04547e+06 8120.87 0 -1.04544e+06 8382.84 0 -1.0454e+06 8644.82 0 -1.04536e+06 8906.79 0 -1.04532e+06 9168.76 0 -1.04527e+06 9430.74 0 -1.04523e+06 9692.71 0 -1.04518e+06 9954.69 0 -1.04514e+06 10216.7 0 -1.04509e+06 10478.6 0 -1.04504e+06 10740.6 0 -1.04499e+06 11002.6 0 -1.04494e+06 11264.6 0 -1.04489e+06 11526.6 0 -1.04483e+06 11788.5 0 -1.04478e+06 12050.5 0 -1.04472e+06 12312.5 0 -1.04466e+06 12574.5 0 -1.04461e+06 12836.5 0 -1.04455e+06 13098.4 0 -1.04449e+06 13360.4 0 -1.04442e+06 13622.4 0 -1.04436e+06 13884.4 0 -1.04429e+06 14146.4 0 -1.04423e+06 14408.4 0 -1.04416e+06 14670.4 0 -1.04409e+06 14932.4 0 -1.04402e+06 15194.4 0 -1.04395e+06 15456.3 0 -1.04388e+06 15718.3 0 -1.04381e+06 15980.3 0 -1.04373e+06 16242.3 0 -1.04366e+06 16504.3 0 -1.04358e+06 16766.3 0 -1.0435e+06 17028.3 0 -1.04342e+06 17290.3 0 -1.04334e+06 17552.3 0 -1.04326e+06 17814.3 0 -1.04318e+06 18076.3 0 -1.0431e+06 18338.3 0 -1.04301e+06 18600.3 0 -1.04292e+06 18862.3 0 -1.04284e+06 19124.3 0 -1.04275e+06 19386.3 0 -1.04266e+06 19648.3 0 -1.04257e+06 19910.3 0 -1.04247e+06 20172.3 0 -1.04238e+06 20434.3 0 -1.04228e+06 20696.3 0 -1.04219e+06 20958.3 0 -1.04209e+06 21220.3 0 -1.04199e+06 21482.3 0 -1.04189e+06 21744.3 0 -1.04179e+06 22006.3 0 -1.04169e+06 22268.3 0 -1.04158e+06 22530.3 0 -1.04148e+06 22792.3 0 -1.04137e+06 23054.3 0 -1.04127e+06 23316.3 0 -1.04116e+06 23578.3 0 -1.04105e+06 23840.3 0 -1.04094e+06 24102.3 0 -1.04082e+06 24364.3 0 -1.04071e+06 24626.4 0 -1.0406e+06 24888.4 0 -1.04048e+06 25150.4 0 -1.04036e+06 25412.4 0 -1.04024e+06 25674.4 0 -1.04012e+06 25936.4 0 -1.04e+06 26198.4 0 -1.03988e+06 26460.4 0 -1.03976e+06 26722.4 0 -1.03963e+06 26984.4 0 -1.03951e+06 27246.4 0 -1.03938e+06 27508.4 0 -1.03925e+06 27770.4 0 -1.03912e+06 28032.4 0 -1.03899e+06 28294.4 0 -1.03886e+06 28556.4 0 -1.03872e+06 28818.4 0 -1.03859e+06 29080.4 0 -1.03845e+06 29342.4 0 -1.03832e+06 29604.4 0 -1.03818e+06 29866.4 0 -1.03804e+06 30128.4 0 -1.0379e+06 30390.4 0 -1.03776e+06 30652.4 0 -1.03761e+06 30914.4 0 -1.03747e+06 31176.4 0 -1.03732e+06 31438.4 0 -1.03717e+06 31700.3 0 -1.03703e+06 31962.3 0 -1.03688e+06 32224.3 0 -1.03673e+06 32486.3 0 -1.03657e+06 32748.3 0 -1.03642e+06 33010.3 0 -1.03626e+06 33272.3 0 -1.04793e+06 -1.49049e-06 0 -1.04793e+06 270.432 0 -1.04792e+06 540.864 0 -1.04792e+06 811.296 0 -1.04792e+06 1081.73 0 -1.04791e+06 1352.16 0 -1.0479e+06 1622.59 0 -1.0479e+06 1893.03 0 -1.04789e+06 2163.46 0 -1.04788e+06 2433.9 0 -1.04787e+06 2704.33 0 -1.04785e+06 2974.77 0 -1.04784e+06 3245.2 0 -1.04782e+06 3515.64 0 -1.04781e+06 3786.08 0 -1.04779e+06 4056.52 0 -1.04777e+06 4326.96 0 -1.04775e+06 4597.4 0 -1.04773e+06 4867.85 0 -1.04771e+06 5138.29 0 -1.04769e+06 5408.74 0 -1.04766e+06 5679.19 0 -1.04764e+06 5949.64 0 -1.04761e+06 6220.09 0 -1.04758e+06 6490.54 0 -1.04755e+06 6760.99 0 -1.04752e+06 7031.45 0 -1.04749e+06 7301.91 0 -1.04745e+06 7572.37 0 -1.04742e+06 7842.83 0 -1.04738e+06 8113.29 0 -1.04735e+06 8383.76 0 -1.04731e+06 8654.23 0 -1.04727e+06 8924.7 0 -1.04723e+06 9195.17 0 -1.04719e+06 9465.65 0 -1.04715e+06 9736.13 0 -1.0471e+06 10006.6 0 -1.04706e+06 10277.1 0 -1.04701e+06 10547.6 0 -1.04696e+06 10818.1 0 -1.04691e+06 11088.6 0 -1.04686e+06 11359 0 -1.04681e+06 11629.5 0 -1.04676e+06 11900 0 -1.04671e+06 12170.5 0 -1.04665e+06 12441.1 0 -1.0466e+06 12711.6 0 -1.04654e+06 12982.1 0 -1.04648e+06 13252.6 0 -1.04642e+06 13523.1 0 -1.04636e+06 13793.6 0 -1.0463e+06 14064.2 0 -1.04623e+06 14334.7 0 -1.04617e+06 14605.2 0 -1.0461e+06 14875.8 0 -1.04604e+06 15146.3 0 -1.04597e+06 15416.8 0 -1.0459e+06 15687.4 0 -1.04583e+06 15957.9 0 -1.04576e+06 16228.5 0 -1.04568e+06 16499 0 -1.04561e+06 16769.6 0 -1.04553e+06 17040.2 0 -1.04546e+06 17310.7 0 -1.04538e+06 17581.3 0 -1.0453e+06 17851.9 0 -1.04522e+06 18122.5 0 -1.04514e+06 18393.1 0 -1.04505e+06 18663.6 0 -1.04497e+06 18934.2 0 -1.04488e+06 19204.8 0 -1.0448e+06 19475.4 0 -1.04471e+06 19746 0 -1.04462e+06 20016.7 0 -1.04453e+06 20287.3 0 -1.04444e+06 20557.9 0 -1.04435e+06 20828.5 0 -1.04425e+06 21099.1 0 -1.04416e+06 21369.8 0 -1.04406e+06 21640.4 0 -1.04396e+06 21911.1 0 -1.04387e+06 22181.7 0 -1.04377e+06 22452.3 0 -1.04366e+06 22723 0 -1.04356e+06 22993.7 0 -1.04346e+06 23264.3 0 -1.04335e+06 23535 0 -1.04325e+06 23805.7 0 -1.04314e+06 24076.3 0 -1.04303e+06 24347 0 -1.04292e+06 24617.7 0 -1.04281e+06 24888.4 0 -1.0427e+06 25159.1 0 -1.04258e+06 25429.8 0 -1.04247e+06 25700.5 0 -1.04235e+06 25971.2 0 -1.04224e+06 26241.9 0 -1.04212e+06 26512.6 0 -1.042e+06 26783.4 0 -1.04188e+06 27054.1 0 -1.04176e+06 27324.8 0 -1.04163e+06 27595.6 0 -1.04151e+06 27866.3 0 -1.04138e+06 28137.1 0 -1.04125e+06 28407.8 0 -1.04113e+06 28678.6 0 -1.041e+06 28949.3 0 -1.04086e+06 29220.1 0 -1.04073e+06 29490.9 0 -1.0406e+06 29761.7 0 -1.04046e+06 30032.4 0 -1.04033e+06 30303.2 0 -1.04019e+06 30574 0 -1.04005e+06 30844.8 0 -1.03991e+06 31115.6 0 -1.03977e+06 31386.4 0 -1.03963e+06 31657.2 0 -1.03949e+06 31928.1 0 -1.03934e+06 32198.9 0 -1.0392e+06 32469.7 0 -1.03905e+06 32740.6 0 -1.0389e+06 33011.4 0 -1.03875e+06 33282.3 0 -1.0386e+06 33553.1 0 -1.03845e+06 33824 0 -1.03829e+06 34094.8 0 -1.03814e+06 34365.7 0 -1.04986e+06 -2.47464e-06 0 -1.04986e+06 278.9 0 -1.04986e+06 557.801 0 -1.04985e+06 836.701 0 -1.04985e+06 1115.6 0 -1.04984e+06 1394.5 0 -1.04984e+06 1673.41 0 -1.04983e+06 1952.31 0 -1.04982e+06 2231.21 0 -1.04981e+06 2510.12 0 -1.0498e+06 2789.02 0 -1.04979e+06 3067.93 0 -1.04977e+06 3346.84 0 -1.04976e+06 3625.75 0 -1.04974e+06 3904.66 0 -1.04972e+06 4183.58 0 -1.04971e+06 4462.49 0 -1.04969e+06 4741.41 0 -1.04966e+06 5020.33 0 -1.04964e+06 5299.25 0 -1.04962e+06 5578.17 0 -1.04959e+06 5857.1 0 -1.04957e+06 6136.03 0 -1.04954e+06 6414.96 0 -1.04951e+06 6693.9 0 -1.04948e+06 6972.84 0 -1.04945e+06 7251.78 0 -1.04942e+06 7530.72 0 -1.04939e+06 7809.67 0 -1.04935e+06 8088.62 0 -1.04932e+06 8367.58 0 -1.04928e+06 8646.54 0 -1.04924e+06 8925.5 0 -1.0492e+06 9204.46 0 -1.04916e+06 9483.43 0 -1.04912e+06 9762.41 0 -1.04908e+06 10041.4 0 -1.04904e+06 10320.4 0 -1.04899e+06 10599.4 0 -1.04894e+06 10878.4 0 -1.0489e+06 11157.3 0 -1.04885e+06 11436.4 0 -1.0488e+06 11715.4 0 -1.04875e+06 11994.4 0 -1.04869e+06 12273.4 0 -1.04864e+06 12552.4 0 -1.04859e+06 12831.4 0 -1.04853e+06 13110.5 0 -1.04847e+06 13389.5 0 -1.04841e+06 13668.6 0 -1.04835e+06 13947.6 0 -1.04829e+06 14226.7 0 -1.04823e+06 14505.7 0 -1.04817e+06 14784.8 0 -1.0481e+06 15063.9 0 -1.04804e+06 15343 0 -1.04797e+06 15622 0 -1.0479e+06 15901.1 0 -1.04783e+06 16180.2 0 -1.04776e+06 16459.3 0 -1.04769e+06 16738.5 0 -1.04762e+06 17017.6 0 -1.04754e+06 17296.7 0 -1.04747e+06 17575.8 0 -1.04739e+06 17855 0 -1.04731e+06 18134.1 0 -1.04723e+06 18413.3 0 -1.04715e+06 18692.5 0 -1.04707e+06 18971.6 0 -1.04699e+06 19250.8 0 -1.0469e+06 19530 0 -1.04682e+06 19809.2 0 -1.04673e+06 20088.4 0 -1.04665e+06 20367.6 0 -1.04656e+06 20646.8 0 -1.04647e+06 20926 0 -1.04637e+06 21205.3 0 -1.04628e+06 21484.5 0 -1.04619e+06 21763.8 0 -1.04609e+06 22043 0 -1.046e+06 22322.3 0 -1.0459e+06 22601.6 0 -1.0458e+06 22880.9 0 -1.0457e+06 23160.2 0 -1.0456e+06 23439.5 0 -1.0455e+06 23718.8 0 -1.04539e+06 23998.1 0 -1.04529e+06 24277.4 0 -1.04518e+06 24556.8 0 -1.04508e+06 24836.1 0 -1.04497e+06 25115.5 0 -1.04486e+06 25394.8 0 -1.04475e+06 25674.2 0 -1.04463e+06 25953.6 0 -1.04452e+06 26233 0 -1.04441e+06 26512.4 0 -1.04429e+06 26791.8 0 -1.04417e+06 27071.2 0 -1.04405e+06 27350.7 0 -1.04393e+06 27630.1 0 -1.04381e+06 27909.6 0 -1.04369e+06 28189 0 -1.04357e+06 28468.5 0 -1.04344e+06 28748 0 -1.04332e+06 29027.5 0 -1.04319e+06 29307 0 -1.04306e+06 29586.5 0 -1.04293e+06 29866 0 -1.0428e+06 30145.6 0 -1.04267e+06 30425.1 0 -1.04254e+06 30704.7 0 -1.0424e+06 30984.2 0 -1.04227e+06 31263.8 0 -1.04213e+06 31543.4 0 -1.04199e+06 31823 0 -1.04185e+06 32102.6 0 -1.04171e+06 32382.2 0 -1.04157e+06 32661.9 0 -1.04142e+06 32941.5 0 -1.04128e+06 33221.2 0 -1.04113e+06 33500.8 0 -1.04099e+06 33780.5 0 -1.04084e+06 34060.2 0 -1.04069e+06 34339.9 0 -1.04054e+06 34619.6 0 -1.04039e+06 34899.3 0 -1.04023e+06 35179.1 0 -1.04008e+06 35458.8 0 -1.05185e+06 -3.45957e-06 0 -1.05185e+06 287.362 0 -1.05185e+06 574.725 0 -1.05185e+06 862.088 0 -1.05184e+06 1149.45 0 -1.05184e+06 1436.82 0 -1.05183e+06 1724.18 0 -1.05182e+06 2011.55 0 -1.05181e+06 2298.91 0 -1.0518e+06 2586.28 0 -1.05179e+06 2873.65 0 -1.05178e+06 3161.03 0 -1.05177e+06 3448.4 0 -1.05175e+06 3735.78 0 -1.05173e+06 4023.15 0 -1.05172e+06 4310.54 0 -1.0517e+06 4597.92 0 -1.05168e+06 4885.31 0 -1.05166e+06 5172.7 0 -1.05164e+06 5460.09 0 -1.05161e+06 5747.49 0 -1.05159e+06 6034.89 0 -1.05156e+06 6322.29 0 -1.05153e+06 6609.7 0 -1.05151e+06 6897.11 0 -1.05148e+06 7184.53 0 -1.05145e+06 7471.95 0 -1.05141e+06 7759.37 0 -1.05138e+06 8046.8 0 -1.05135e+06 8334.24 0 -1.05131e+06 8621.68 0 -1.05127e+06 8909.12 0 -1.05124e+06 9196.57 0 -1.0512e+06 9484.03 0 -1.05116e+06 9771.49 0 -1.05112e+06 10059 0 -1.05107e+06 10346.4 0 -1.05103e+06 10633.9 0 -1.05098e+06 10921.4 0 -1.05094e+06 11208.9 0 -1.05089e+06 11496.4 0 -1.05084e+06 11783.9 0 -1.05079e+06 12071.4 0 -1.05074e+06 12358.9 0 -1.05069e+06 12646.5 0 -1.05063e+06 12934 0 -1.05058e+06 13221.6 0 -1.05052e+06 13509.1 0 -1.05047e+06 13796.7 0 -1.05041e+06 14084.2 0 -1.05035e+06 14371.8 0 -1.05029e+06 14659.4 0 -1.05022e+06 14947 0 -1.05016e+06 15234.6 0 -1.0501e+06 15522.2 0 -1.05003e+06 15809.8 0 -1.04996e+06 16097.5 0 -1.0499e+06 16385.1 0 -1.04983e+06 16672.8 0 -1.04976e+06 16960.4 0 -1.04968e+06 17248.1 0 -1.04961e+06 17535.8 0 -1.04954e+06 17823.5 0 -1.04946e+06 18111.2 0 -1.04939e+06 18398.9 0 -1.04931e+06 18686.6 0 -1.04923e+06 18974.3 0 -1.04915e+06 19262.1 0 -1.04907e+06 19549.8 0 -1.04898e+06 19837.6 0 -1.0489e+06 20125.4 0 -1.04881e+06 20413.1 0 -1.04873e+06 20700.9 0 -1.04864e+06 20988.8 0 -1.04855e+06 21276.6 0 -1.04846e+06 21564.4 0 -1.04837e+06 21852.3 0 -1.04828e+06 22140.1 0 -1.04818e+06 22428 0 -1.04809e+06 22715.9 0 -1.04799e+06 23003.8 0 -1.0479e+06 23291.7 0 -1.0478e+06 23579.6 0 -1.0477e+06 23867.5 0 -1.0476e+06 24155.5 0 -1.04749e+06 24443.4 0 -1.04739e+06 24731.4 0 -1.04729e+06 25019.4 0 -1.04718e+06 25307.4 0 -1.04707e+06 25595.4 0 -1.04696e+06 25883.5 0 -1.04685e+06 26171.5 0 -1.04674e+06 26459.6 0 -1.04663e+06 26747.6 0 -1.04652e+06 27035.7 0 -1.0464e+06 27323.8 0 -1.04629e+06 27611.9 0 -1.04617e+06 27900.1 0 -1.04605e+06 28188.2 0 -1.04593e+06 28476.4 0 -1.04581e+06 28764.5 0 -1.04569e+06 29052.7 0 -1.04557e+06 29340.9 0 -1.04544e+06 29629.2 0 -1.04532e+06 29917.4 0 -1.04519e+06 30205.6 0 -1.04506e+06 30493.9 0 -1.04493e+06 30782.2 0 -1.0448e+06 31070.5 0 -1.04467e+06 31358.8 0 -1.04453e+06 31647.1 0 -1.0444e+06 31935.5 0 -1.04426e+06 32223.8 0 -1.04413e+06 32512.2 0 -1.04399e+06 32800.6 0 -1.04385e+06 33089 0 -1.04371e+06 33377.5 0 -1.04357e+06 33665.9 0 -1.04342e+06 33954.4 0 -1.04328e+06 34242.9 0 -1.04313e+06 34531.4 0 -1.04299e+06 34819.9 0 -1.04284e+06 35108.4 0 -1.04269e+06 35397 0 -1.04254e+06 35685.5 0 -1.04239e+06 35974.1 0 -1.04223e+06 36262.7 0 -1.04208e+06 36551.3 0 -1.0539e+06 -4.41528e-06 0 -1.0539e+06 295.815 0 -1.0539e+06 591.631 0 -1.0539e+06 887.447 0 -1.05389e+06 1183.26 0 -1.05389e+06 1479.08 0 -1.05388e+06 1774.9 0 -1.05387e+06 2070.72 0 -1.05387e+06 2366.54 0 -1.05386e+06 2662.37 0 -1.05384e+06 2958.19 0 -1.05383e+06 3254.02 0 -1.05382e+06 3549.85 0 -1.0538e+06 3845.69 0 -1.05379e+06 4141.52 0 -1.05377e+06 4437.36 0 -1.05375e+06 4733.21 0 -1.05373e+06 5029.05 0 -1.05371e+06 5324.9 0 -1.05369e+06 5620.76 0 -1.05366e+06 5916.62 0 -1.05364e+06 6212.48 0 -1.05361e+06 6508.35 0 -1.05359e+06 6804.23 0 -1.05356e+06 7100.11 0 -1.05353e+06 7395.99 0 -1.0535e+06 7691.88 0 -1.05347e+06 7987.78 0 -1.05343e+06 8283.69 0 -1.0534e+06 8579.6 0 -1.05336e+06 8875.51 0 -1.05333e+06 9171.44 0 -1.05329e+06 9467.37 0 -1.05325e+06 9763.3 0 -1.05321e+06 10059.3 0 -1.05317e+06 10355.2 0 -1.05313e+06 10651.2 0 -1.05308e+06 10947.1 0 -1.05304e+06 11243.1 0 -1.05299e+06 11539.1 0 -1.05294e+06 11835.1 0 -1.05289e+06 12131.1 0 -1.05284e+06 12427.1 0 -1.05279e+06 12723.1 0 -1.05274e+06 13019.2 0 -1.05269e+06 13315.2 0 -1.05263e+06 13611.3 0 -1.05258e+06 13907.3 0 -1.05252e+06 14203.4 0 -1.05246e+06 14499.5 0 -1.0524e+06 14795.6 0 -1.05234e+06 15091.7 0 -1.05228e+06 15387.8 0 -1.05222e+06 15683.9 0 -1.05215e+06 15980.1 0 -1.05209e+06 16276.2 0 -1.05202e+06 16572.4 0 -1.05195e+06 16868.6 0 -1.05188e+06 17164.8 0 -1.05181e+06 17461 0 -1.05174e+06 17757.2 0 -1.05167e+06 18053.4 0 -1.05159e+06 18349.7 0 -1.05152e+06 18645.9 0 -1.05144e+06 18942.2 0 -1.05136e+06 19238.5 0 -1.05128e+06 19534.8 0 -1.0512e+06 19831.1 0 -1.05112e+06 20127.4 0 -1.05104e+06 20423.8 0 -1.05096e+06 20720.2 0 -1.05087e+06 21016.5 0 -1.05078e+06 21312.9 0 -1.0507e+06 21609.3 0 -1.05061e+06 21905.7 0 -1.05052e+06 22202.2 0 -1.05043e+06 22498.6 0 -1.05033e+06 22795.1 0 -1.05024e+06 23091.6 0 -1.05015e+06 23388.1 0 -1.05005e+06 23684.6 0 -1.04995e+06 23981.1 0 -1.04985e+06 24277.7 0 -1.04975e+06 24574.3 0 -1.04965e+06 24870.9 0 -1.04955e+06 25167.5 0 -1.04945e+06 25464.1 0 -1.04934e+06 25760.7 0 -1.04924e+06 26057.4 0 -1.04913e+06 26354.1 0 -1.04902e+06 26650.8 0 -1.04891e+06 26947.5 0 -1.0488e+06 27244.2 0 -1.04869e+06 27541 0 -1.04858e+06 27837.7 0 -1.04846e+06 28134.5 0 -1.04835e+06 28431.3 0 -1.04823e+06 28728.2 0 -1.04811e+06 29025 0 -1.04799e+06 29321.9 0 -1.04787e+06 29618.8 0 -1.04775e+06 29915.7 0 -1.04762e+06 30212.6 0 -1.0475e+06 30509.6 0 -1.04737e+06 30806.5 0 -1.04725e+06 31103.5 0 -1.04712e+06 31400.5 0 -1.04699e+06 31697.6 0 -1.04686e+06 31994.6 0 -1.04673e+06 32291.7 0 -1.04659e+06 32588.8 0 -1.04646e+06 32885.9 0 -1.04632e+06 33183.1 0 -1.04619e+06 33480.2 0 -1.04605e+06 33777.4 0 -1.04591e+06 34074.6 0 -1.04577e+06 34371.9 0 -1.04563e+06 34669.1 0 -1.04548e+06 34966.4 0 -1.04534e+06 35263.7 0 -1.04519e+06 35561 0 -1.04505e+06 35858.4 0 -1.0449e+06 36155.7 0 -1.04475e+06 36453.1 0 -1.0446e+06 36750.6 0 -1.04445e+06 37048 0 -1.04429e+06 37345.5 0 -1.04414e+06 37643 0 -1.05602e+06 -5.49154e-06 0 -1.05602e+06 304.257 0 -1.05601e+06 608.514 0 -1.05601e+06 912.772 0 -1.05601e+06 1217.03 0 -1.056e+06 1521.29 0 -1.05599e+06 1825.55 0 -1.05599e+06 2129.81 0 -1.05598e+06 2434.08 0 -1.05597e+06 2738.35 0 -1.05596e+06 3042.62 0 -1.05594e+06 3346.89 0 -1.05593e+06 3651.17 0 -1.05591e+06 3955.45 0 -1.0559e+06 4259.73 0 -1.05588e+06 4564.02 0 -1.05586e+06 4868.31 0 -1.05584e+06 5172.6 0 -1.05582e+06 5476.91 0 -1.0558e+06 5781.21 0 -1.05578e+06 6085.52 0 -1.05575e+06 6389.84 0 -1.05573e+06 6694.16 0 -1.0557e+06 6998.49 0 -1.05567e+06 7302.83 0 -1.05564e+06 7607.17 0 -1.05561e+06 7911.53 0 -1.05558e+06 8215.88 0 -1.05555e+06 8520.25 0 -1.05551e+06 8824.62 0 -1.05548e+06 9129.01 0 -1.05544e+06 9433.4 0 -1.0554e+06 9737.8 0 -1.05536e+06 10042.2 0 -1.05532e+06 10346.6 0 -1.05528e+06 10651.1 0 -1.05524e+06 10955.5 0 -1.05519e+06 11259.9 0 -1.05515e+06 11564.4 0 -1.0551e+06 11868.9 0 -1.05506e+06 12173.3 0 -1.05501e+06 12477.8 0 -1.05496e+06 12782.3 0 -1.05491e+06 13086.9 0 -1.05485e+06 13391.4 0 -1.0548e+06 13695.9 0 -1.05475e+06 14000.5 0 -1.05469e+06 14305 0 -1.05463e+06 14609.6 0 -1.05458e+06 14914.2 0 -1.05452e+06 15218.8 0 -1.05445e+06 15523.4 0 -1.05439e+06 15828.1 0 -1.05433e+06 16132.7 0 -1.05427e+06 16437.4 0 -1.0542e+06 16742.1 0 -1.05413e+06 17046.8 0 -1.05407e+06 17351.5 0 -1.054e+06 17656.2 0 -1.05393e+06 17960.9 0 -1.05385e+06 18265.7 0 -1.05378e+06 18570.5 0 -1.05371e+06 18875.2 0 -1.05363e+06 19180.1 0 -1.05356e+06 19484.9 0 -1.05348e+06 19789.7 0 -1.0534e+06 20094.6 0 -1.05332e+06 20399.5 0 -1.05324e+06 20704.4 0 -1.05316e+06 21009.3 0 -1.05307e+06 21314.2 0 -1.05299e+06 21619.1 0 -1.0529e+06 21924.1 0 -1.05281e+06 22229.1 0 -1.05272e+06 22534.1 0 -1.05263e+06 22839.2 0 -1.05254e+06 23144.2 0 -1.05245e+06 23449.3 0 -1.05236e+06 23754.4 0 -1.05226e+06 24059.5 0 -1.05217e+06 24364.6 0 -1.05207e+06 24669.8 0 -1.05197e+06 24974.9 0 -1.05187e+06 25280.1 0 -1.05177e+06 25585.4 0 -1.05167e+06 25890.6 0 -1.05157e+06 26195.9 0 -1.05146e+06 26501.1 0 -1.05136e+06 26806.4 0 -1.05125e+06 27111.8 0 -1.05114e+06 27417.1 0 -1.05103e+06 27722.5 0 -1.05092e+06 28027.9 0 -1.05081e+06 28333.3 0 -1.05069e+06 28638.8 0 -1.05058e+06 28944.3 0 -1.05046e+06 29249.8 0 -1.05035e+06 29555.3 0 -1.05023e+06 29860.8 0 -1.05011e+06 30166.4 0 -1.04999e+06 30472 0 -1.04987e+06 30777.6 0 -1.04975e+06 31083.3 0 -1.04962e+06 31388.9 0 -1.0495e+06 31694.7 0 -1.04937e+06 32000.4 0 -1.04924e+06 32306.1 0 -1.04911e+06 32611.9 0 -1.04898e+06 32917.7 0 -1.04885e+06 33223.6 0 -1.04872e+06 33529.4 0 -1.04858e+06 33835.3 0 -1.04845e+06 34141.2 0 -1.04831e+06 34447.2 0 -1.04817e+06 34753.1 0 -1.04803e+06 35059.1 0 -1.04789e+06 35365.2 0 -1.04775e+06 35671.2 0 -1.04761e+06 35977.3 0 -1.04746e+06 36283.4 0 -1.04732e+06 36589.6 0 -1.04717e+06 36895.7 0 -1.04702e+06 37201.9 0 -1.04687e+06 37508.2 0 -1.04672e+06 37814.4 0 -1.04657e+06 38120.7 0 -1.04642e+06 38427 0 -1.04626e+06 38733.4 0 -1.05819e+06 -6.5685e-06 0 -1.05819e+06 312.684 0 -1.05818e+06 625.368 0 -1.05818e+06 938.054 0 -1.05818e+06 1250.74 0 -1.05817e+06 1563.43 0 -1.05817e+06 1876.12 0 -1.05816e+06 2188.81 0 -1.05815e+06 2501.5 0 -1.05814e+06 2814.2 0 -1.05813e+06 3126.9 0 -1.05811e+06 3439.6 0 -1.0581e+06 3752.31 0 -1.05809e+06 4065.02 0 -1.05807e+06 4377.73 0 -1.05805e+06 4690.45 0 -1.05803e+06 5003.18 0 -1.05801e+06 5315.91 0 -1.05799e+06 5628.65 0 -1.05797e+06 5941.39 0 -1.05795e+06 6254.14 0 -1.05792e+06 6566.9 0 -1.0579e+06 6879.66 0 -1.05787e+06 7192.43 0 -1.05784e+06 7505.21 0 -1.05781e+06 7818 0 -1.05778e+06 8130.8 0 -1.05775e+06 8443.6 0 -1.05772e+06 8756.42 0 -1.05768e+06 9069.24 0 -1.05765e+06 9382.07 0 -1.05761e+06 9694.92 0 -1.05757e+06 10007.8 0 -1.05753e+06 10320.6 0 -1.05749e+06 10633.5 0 -1.05745e+06 10946.4 0 -1.05741e+06 11259.3 0 -1.05737e+06 11572.2 0 -1.05732e+06 11885.1 0 -1.05728e+06 12198.1 0 -1.05723e+06 12511 0 -1.05718e+06 12824 0 -1.05713e+06 13137 0 -1.05708e+06 13450 0 -1.05703e+06 13763 0 -1.05697e+06 14076 0 -1.05692e+06 14389 0 -1.05686e+06 14702.1 0 -1.05681e+06 15015.2 0 -1.05675e+06 15328.2 0 -1.05669e+06 15641.3 0 -1.05663e+06 15954.5 0 -1.05657e+06 16267.6 0 -1.0565e+06 16580.8 0 -1.05644e+06 16893.9 0 -1.05637e+06 17207.1 0 -1.05631e+06 17520.3 0 -1.05624e+06 17833.5 0 -1.05617e+06 18146.8 0 -1.0561e+06 18460.1 0 -1.05603e+06 18773.3 0 -1.05596e+06 19086.6 0 -1.05588e+06 19400 0 -1.05581e+06 19713.3 0 -1.05573e+06 20026.7 0 -1.05565e+06 20340.1 0 -1.05557e+06 20653.5 0 -1.05549e+06 20966.9 0 -1.05541e+06 21280.3 0 -1.05533e+06 21593.8 0 -1.05525e+06 21907.3 0 -1.05516e+06 22220.8 0 -1.05508e+06 22534.4 0 -1.05499e+06 22847.9 0 -1.0549e+06 23161.5 0 -1.05481e+06 23475.1 0 -1.05472e+06 23788.8 0 -1.05463e+06 24102.4 0 -1.05453e+06 24416.1 0 -1.05444e+06 24729.8 0 -1.05434e+06 25043.6 0 -1.05425e+06 25357.3 0 -1.05415e+06 25671.1 0 -1.05405e+06 25984.9 0 -1.05395e+06 26298.8 0 -1.05385e+06 26612.6 0 -1.05374e+06 26926.5 0 -1.05364e+06 27240.4 0 -1.05353e+06 27554.4 0 -1.05343e+06 27868.4 0 -1.05332e+06 28182.4 0 -1.05321e+06 28496.4 0 -1.0531e+06 28810.4 0 -1.05299e+06 29124.5 0 -1.05287e+06 29438.6 0 -1.05276e+06 29752.8 0 -1.05265e+06 30067 0 -1.05253e+06 30381.2 0 -1.05241e+06 30695.4 0 -1.05229e+06 31009.7 0 -1.05217e+06 31324 0 -1.05205e+06 31638.3 0 -1.05193e+06 31952.7 0 -1.0518e+06 32267 0 -1.05168e+06 32581.5 0 -1.05155e+06 32895.9 0 -1.05142e+06 33210.4 0 -1.05129e+06 33524.9 0 -1.05116e+06 33839.5 0 -1.05103e+06 34154 0 -1.0509e+06 34468.7 0 -1.05077e+06 34783.3 0 -1.05063e+06 35098 0 -1.05049e+06 35412.7 0 -1.05036e+06 35727.4 0 -1.05022e+06 36042.2 0 -1.05008e+06 36357 0 -1.04994e+06 36671.9 0 -1.04979e+06 36986.8 0 -1.04965e+06 37301.7 0 -1.0495e+06 37616.6 0 -1.04936e+06 37931.6 0 -1.04921e+06 38246.6 0 -1.04906e+06 38561.7 0 -1.04891e+06 38876.8 0 -1.04876e+06 39191.9 0 -1.04861e+06 39507.1 0 -1.04845e+06 39822.3 0 -1.06042e+06 -7.58842e-06 0 -1.06042e+06 321.094 0 -1.06041e+06 642.188 0 -1.06041e+06 963.284 0 -1.06041e+06 1284.38 0 -1.0604e+06 1605.48 0 -1.0604e+06 1926.58 0 -1.06039e+06 2247.68 0 -1.06038e+06 2568.79 0 -1.06037e+06 2889.89 0 -1.06036e+06 3211.01 0 -1.06034e+06 3532.12 0 -1.06033e+06 3853.24 0 -1.06032e+06 4174.37 0 -1.0603e+06 4495.5 0 -1.06028e+06 4816.64 0 -1.06026e+06 5137.78 0 -1.06024e+06 5458.93 0 -1.06022e+06 5780.08 0 -1.0602e+06 6101.25 0 -1.06018e+06 6422.42 0 -1.06015e+06 6743.6 0 -1.06013e+06 7064.78 0 -1.0601e+06 7385.98 0 -1.06007e+06 7707.19 0 -1.06004e+06 8028.4 0 -1.06001e+06 8349.63 0 -1.05998e+06 8670.86 0 -1.05995e+06 8992.11 0 -1.05991e+06 9313.36 0 -1.05988e+06 9634.63 0 -1.05984e+06 9955.91 0 -1.05981e+06 10277.2 0 -1.05977e+06 10598.5 0 -1.05973e+06 10919.8 0 -1.05969e+06 11241.2 0 -1.05964e+06 11562.5 0 -1.0596e+06 11883.9 0 -1.05955e+06 12205.3 0 -1.05951e+06 12526.6 0 -1.05946e+06 12848 0 -1.05941e+06 13169.5 0 -1.05936e+06 13490.9 0 -1.05931e+06 13812.4 0 -1.05926e+06 14133.8 0 -1.05921e+06 14455.3 0 -1.05915e+06 14776.8 0 -1.0591e+06 15098.4 0 -1.05904e+06 15419.9 0 -1.05898e+06 15741.5 0 -1.05892e+06 16063 0 -1.05886e+06 16384.6 0 -1.0588e+06 16706.3 0 -1.05874e+06 17027.9 0 -1.05867e+06 17349.6 0 -1.05861e+06 17671.3 0 -1.05854e+06 17993 0 -1.05847e+06 18314.7 0 -1.05841e+06 18636.4 0 -1.05834e+06 18958.2 0 -1.05826e+06 19280 0 -1.05819e+06 19601.8 0 -1.05812e+06 19923.7 0 -1.05804e+06 20245.5 0 -1.05797e+06 20567.4 0 -1.05789e+06 20889.3 0 -1.05781e+06 21211.3 0 -1.05773e+06 21533.2 0 -1.05765e+06 21855.2 0 -1.05757e+06 22177.2 0 -1.05748e+06 22499.3 0 -1.0574e+06 22821.4 0 -1.05731e+06 23143.5 0 -1.05723e+06 23465.6 0 -1.05714e+06 23787.7 0 -1.05705e+06 24109.9 0 -1.05696e+06 24432.1 0 -1.05687e+06 24754.3 0 -1.05677e+06 25076.6 0 -1.05668e+06 25398.9 0 -1.05658e+06 25721.2 0 -1.05649e+06 26043.6 0 -1.05639e+06 26366 0 -1.05629e+06 26688.4 0 -1.05619e+06 27010.8 0 -1.05609e+06 27333.3 0 -1.05598e+06 27655.8 0 -1.05588e+06 27978.4 0 -1.05577e+06 28300.9 0 -1.05567e+06 28623.5 0 -1.05556e+06 28946.2 0 -1.05545e+06 29268.8 0 -1.05534e+06 29591.5 0 -1.05523e+06 29914.3 0 -1.05512e+06 30237.1 0 -1.055e+06 30559.9 0 -1.05489e+06 30882.7 0 -1.05477e+06 31205.6 0 -1.05465e+06 31528.5 0 -1.05453e+06 31851.4 0 -1.05441e+06 32174.4 0 -1.05429e+06 32497.4 0 -1.05417e+06 32820.5 0 -1.05405e+06 33143.6 0 -1.05392e+06 33466.7 0 -1.05379e+06 33789.9 0 -1.05367e+06 34113.1 0 -1.05354e+06 34436.3 0 -1.05341e+06 34759.6 0 -1.05328e+06 35082.9 0 -1.05314e+06 35406.3 0 -1.05301e+06 35729.7 0 -1.05288e+06 36053.1 0 -1.05274e+06 36376.6 0 -1.0526e+06 36700.1 0 -1.05246e+06 37023.6 0 -1.05232e+06 37347.2 0 -1.05218e+06 37670.8 0 -1.05204e+06 37994.5 0 -1.0519e+06 38318.2 0 -1.05175e+06 38642 0 -1.05161e+06 38965.8 0 -1.05146e+06 39289.6 0 -1.05131e+06 39613.5 0 -1.05116e+06 39937.4 0 -1.05101e+06 40261.4 0 -1.05086e+06 40585.4 0 -1.0507e+06 40909.4 0 -1.06271e+06 -8.78773e-06 0 -1.06271e+06 329.484 0 -1.0627e+06 658.968 0 -1.0627e+06 988.454 0 -1.0627e+06 1317.94 0 -1.06269e+06 1647.43 0 -1.06268e+06 1976.92 0 -1.06268e+06 2306.41 0 -1.06267e+06 2635.91 0 -1.06266e+06 2965.41 0 -1.06265e+06 3294.92 0 -1.06263e+06 3624.43 0 -1.06262e+06 3953.94 0 -1.06261e+06 4283.46 0 -1.06259e+06 4612.99 0 -1.06257e+06 4942.52 0 -1.06255e+06 5272.06 0 -1.06253e+06 5601.61 0 -1.06251e+06 5931.16 0 -1.06249e+06 6260.72 0 -1.06247e+06 6590.3 0 -1.06244e+06 6919.88 0 -1.06242e+06 7249.47 0 -1.06239e+06 7579.07 0 -1.06236e+06 7908.68 0 -1.06233e+06 8238.3 0 -1.0623e+06 8567.94 0 -1.06227e+06 8897.58 0 -1.06224e+06 9227.24 0 -1.06221e+06 9556.91 0 -1.06217e+06 9886.6 0 -1.06213e+06 10216.3 0 -1.0621e+06 10546 0 -1.06206e+06 10875.7 0 -1.06202e+06 11205.5 0 -1.06198e+06 11535.2 0 -1.06193e+06 11865 0 -1.06189e+06 12194.8 0 -1.06185e+06 12524.6 0 -1.0618e+06 12854.4 0 -1.06175e+06 13184.3 0 -1.0617e+06 13514.1 0 -1.06165e+06 13844 0 -1.0616e+06 14173.9 0 -1.06155e+06 14503.8 0 -1.0615e+06 14833.8 0 -1.06144e+06 15163.7 0 -1.06139e+06 15493.7 0 -1.06133e+06 15823.7 0 -1.06127e+06 16153.7 0 -1.06122e+06 16483.8 0 -1.06116e+06 16813.8 0 -1.06109e+06 17143.9 0 -1.06103e+06 17474 0 -1.06097e+06 17804.2 0 -1.0609e+06 18134.3 0 -1.06084e+06 18464.5 0 -1.06077e+06 18794.7 0 -1.0607e+06 19125 0 -1.06063e+06 19455.2 0 -1.06056e+06 19785.5 0 -1.06049e+06 20115.8 0 -1.06041e+06 20446.2 0 -1.06034e+06 20776.6 0 -1.06026e+06 21107 0 -1.06018e+06 21437.4 0 -1.06011e+06 21767.8 0 -1.06003e+06 22098.3 0 -1.05995e+06 22428.8 0 -1.05986e+06 22759.4 0 -1.05978e+06 23089.9 0 -1.0597e+06 23420.6 0 -1.05961e+06 23751.2 0 -1.05952e+06 24081.9 0 -1.05944e+06 24412.6 0 -1.05935e+06 24743.3 0 -1.05926e+06 25074 0 -1.05916e+06 25404.8 0 -1.05907e+06 25735.7 0 -1.05898e+06 26066.5 0 -1.05888e+06 26397.4 0 -1.05878e+06 26728.4 0 -1.05869e+06 27059.3 0 -1.05859e+06 27390.3 0 -1.05849e+06 27721.4 0 -1.05839e+06 28052.4 0 -1.05828e+06 28383.6 0 -1.05818e+06 28714.7 0 -1.05807e+06 29045.9 0 -1.05797e+06 29377.1 0 -1.05786e+06 29708.4 0 -1.05775e+06 30039.7 0 -1.05764e+06 30371 0 -1.05753e+06 30702.4 0 -1.05742e+06 31033.8 0 -1.0573e+06 31365.2 0 -1.05719e+06 31696.7 0 -1.05707e+06 32028.2 0 -1.05696e+06 32359.8 0 -1.05684e+06 32691.4 0 -1.05672e+06 33023.1 0 -1.0566e+06 33354.8 0 -1.05647e+06 33686.5 0 -1.05635e+06 34018.3 0 -1.05623e+06 34350.1 0 -1.0561e+06 34682 0 -1.05597e+06 35013.9 0 -1.05584e+06 35345.8 0 -1.05571e+06 35677.8 0 -1.05558e+06 36009.9 0 -1.05545e+06 36342 0 -1.05532e+06 36674.1 0 -1.05518e+06 37006.3 0 -1.05505e+06 37338.5 0 -1.05491e+06 37670.7 0 -1.05477e+06 38003 0 -1.05463e+06 38335.4 0 -1.05449e+06 38667.8 0 -1.05435e+06 39000.2 0 -1.05421e+06 39332.7 0 -1.05406e+06 39665.3 0 -1.05392e+06 39997.9 0 -1.05377e+06 40330.5 0 -1.05362e+06 40663.2 0 -1.05347e+06 40995.9 0 -1.05332e+06 41328.7 0 -1.05317e+06 41661.5 0 -1.05301e+06 41994.4 0 -1.06505e+06 -9.93093e-06 0 -1.06505e+06 337.851 0 -1.06505e+06 675.702 0 -1.06505e+06 1013.55 0 -1.06505e+06 1351.41 0 -1.06504e+06 1689.27 0 -1.06503e+06 2027.12 0 -1.06503e+06 2364.99 0 -1.06502e+06 2702.85 0 -1.06501e+06 3040.72 0 -1.065e+06 3378.6 0 -1.06498e+06 3716.48 0 -1.06497e+06 4054.36 0 -1.06495e+06 4392.25 0 -1.06494e+06 4730.15 0 -1.06492e+06 5068.06 0 -1.0649e+06 5405.97 0 -1.06488e+06 5743.89 0 -1.06486e+06 6081.83 0 -1.06484e+06 6419.77 0 -1.06482e+06 6757.72 0 -1.06479e+06 7095.68 0 -1.06477e+06 7433.65 0 -1.06474e+06 7771.63 0 -1.06471e+06 8109.63 0 -1.06468e+06 8447.64 0 -1.06465e+06 