<?xml version="1.0"?> 
<VTKFile type="StructuredGrid" version="0.1"> 
<StructuredGrid WholeExtent="0 127 0 127 0 0"> 
<Piece Extent="0 127 0 127 0 0"> 
<PointData>
<DataArray type="Float32" Name="E" format="ascii" NumberOfComponents="3"> 
-835827 -2.17015e+06 0 8041.11 -1.75483e+06 0 26696.4 -1.69496e+06 0 158476 -1.59972e+06 0 230780 -1.53381e+06 0 312994 -1.46199e+06 0 379740 -1.39494e+06 0 442447 -1.3275e+06 0 497390 -1.26164e+06 0 546832 -1.19678e+06 0 590590 -1.13348e+06 0 629434 -1.07182e+06 0 663724 -1.012e+06 0 693946 -954134 0 720493 -898301 0 743747 -844533 0 764045 -792837 0 781694 -743190 0 796967 -695556 0 810108 -649880 0 821333 -606101 0 830835 -564150 0 838784 -523954 0 845330 -485440 0 850607 -448533 0 854732 -413160 0 857812 -379249 0 859938 -346732 0 861194 -315541 0 861653 -285613 0 861381 -256888 0 860438 -229307 0 858875 -202815 0 856740 -177362 0 854076 -152899 0 850921 -129378 0 847310 -106758 0 843274 -84997 0 838842 -64056.4 0 834040 -43900.2 0 828891 -24494.2 0 823417 -5806.26 0 817638 12193.9 0 811573 29534.8 0 805237 46243.4 0 798647 62345 0 791818 77863.6 0 784761 92821.8 0 777491 107241 0 770017 121141 0 762352 134542 0 754505 147460 0 746486 159914 0 738304 171920 0 729967 183493 0 721483 194647 0 712860 205397 0 704105 215755 0 695225 225735 0 686225 235348 0 677113 244606 0 667894 253519 0 658575 262098 0 649159 270352 0 639653 278292 0 630061 285926 0 620389 293263 0 610640 300311 0 600820 307079 0 590932 313573 0 580980 319801 0 570970 325771 0 560904 331489 0 550786 336961 0 540620 342193 0 530410 347193 0 520159 351965 0 509869 356515 0 499545 360849 0 489189 364971 0 478805 368887 0 468395 372602 0 457963 376120 0 447511 379446 0 437041 382584 0 426557 385539 0 416061 388314 0 405555 390913 0 395042 393341 0 384525 395601 0 374005 397696 0 363485 399631 0 352967 401408 0 342454 403030 0 331946 404502 0 321448 405825 0 310959 407003 0 300483 408039 0 290020 408935 0 279574 409695 0 269146 410320 0 258737 410814 0 248350 411179 0 237986 411416 0 227646 411529 0 217333 411520 0 207048 411390 0 196792 411142 0 186567 410778 0 176374 410300 0 166216 409710 0 156092 409009 0 146006 408199 0 135957 407282 0 125949 406260 0 115980 405134 0 106054 403905 0 96171.6 402575 0 86333.6 401146 0 76541.5 399619 0 66796.4 397994 0 57099.7 396274 0 47452.5 394460 0 37856 392552 0 28311.4 390552 0 18819.7 388461 0 9382.22 386280 0 0 384010 0 -568624 -2.02019e+06 0 -48403.6 -1.76429e+06 0 37297 -1.67549e+06 0 148607 -1.59399e+06 0 229814 -1.5241e+06 0 308374 -1.45518e+06 0 376482 -1.38804e+06 0 438458 -1.32164e+06 0 493557 -1.25627e+06 0 542838 -1.19206e+06 0 586610 -1.12927e+06 0 625442 -1.0681e+06 0 659767 -1.00871e+06 0 690036 -951244 0 716649 -895764 0 739979 -842314 0 760361 -790902 0 778099 -741511 0 793464 -694106 0 806699 -648636 0 818019 -605042 0 827614 -563258 0 835654 -523213 0 842290 -484834 0 847654 -448051 0 851864 -412790 0 855025 -378981 0 857230 -346557 0 858562 -315451 0 859094 -285601 0 858893 -256947 0 858018 -229432 0 856520 -203001 0 854449 -177605 0 851845 -153193 0 848749 -129721 0 845194 -107146 0 841213 -85426.7 0 836833 -64525.3 0 832081 -44405.7 0 826981 -25034 0 821555 -6378.27 0 815822 11591.6 0 809801 28904.1 0 803508 45585.9 0 796960 61662.2 0 790171 77157 0 783154 92092.6 0 775922 106490 0 768485 120370 0 760857 133752 0 753045 146652 0 745060 159089 0 736912 171079 0 728607 182636 0 720156 193776 0 711564 204512 0 702839 214857 0 693988 224824 0 685018 234425 0 675935 243672 0 666744 252574 0 657452 261143 0 648063 269388 0 638583 277319 0 629018 284944 0 619370 292273 0 609647 299314 0 599851 306074 0 589987 312562 0 580059 318784 0 570072 324748 0 560029 330460 0 549934 335927 0 539790 341155 0 529601 346150 0 519371 350918 0 509103 355464 0 498799 359795 0 488464 363914 0 478100 367828 0 467710 371540 0 457297 375056 0 446864 378380 0 436413 381516 0 425948 384469 0 415470 387243 0 404982 389842 0 394488 392269 0 383988 394528 0 373485 396624 0 362982 398558 0 352482 400335 0 341985 401959 0 331494 403431 0 321011 404755 0 310538 405934 0 300078 406971 0 289631 407869 0 279201 408631 0 268788 409258 0 258394 409754 0 248022 410121 0 237672 410361 0 227347 410476 0 217049 410470 0 206777 410343 0 196536 410098 0 186325 409737 0 176146 409263 0 166001 408676 0 155891 407978 0 145818 407172 0 135783 406259 0 125787 405241 0 115832 404119 0 105919 402895 0 96049 401570 0 86223.7 400145 0 76444.1 398622 0 66711.5 397003 0 57027.2 395288 0 47392.3 393479 0 37808 391576 0 28275.5 389582 0 18795.9 387496 0 9370.34 385321 0 0 383056 0 -494242 -1.92871e+06 0 -71866.4 -1.75889e+06 0 37480.1 -1.66121e+06 0 143150 -1.58596e+06 0 227129 -1.51534e+06 0 304566 -1.44798e+06 0 372972 -1.38133e+06 0 434652 -1.31572e+06 0 489722 -1.25095e+06 0 538911 -1.18733e+06 0 582665 -1.12506e+06 0 621492 -1.06437e+06 0 655845 -1.00543e+06 0 686159 -948347 0 712834 -893219 0 736237 -840086 0 756700 -788958 0 774525 -739823 0 789981 -692647 0 803308 -647383 0 814720 -603974 0 824407 -562356 0 832537 -522462 0 839261 -484220 0 844711 -447560 0 849005 -412411 0 852247 -378705 0 854530 -346374 0 855938 -315353 0 856543 -285582 0 856412 -256999 0 855604 -229550 0 854172 -203181 0 852163 -177841 0 849620 -153481 0 846582 -130058 0 843083 -107528 0 839156 -85851 0 834829 -64988.9 0 830127 -44906.1 0 825076 -25568.9 0 819697 -6945.54 0 814010 10994 0 808033 28277.9 0 801783 44932.7 0 795277 60983.7 0 788528 76454.4 0 781550 91367.4 0 774356 105744 0 766957 119604 0 759364 132966 0 751587 145848 0 743637 158268 0 735522 170241 0 727250 181783 0 718830 192908 0 710270 203630 0 701575 213962 0 692755 223917 0 683814 233506 0 674759 242741 0 665596 251633 0 656331 260191 0 646969 268427 0 637516 276348 0 627976 283965 0 618354 291286 0 608655 298319 0 598884 305073 0 589044 311553 0 579140 317769 0 569176 323727 0 559155 329434 0 549082 334895 0 538961 340119 0 528794 345109 0 518585 349873 0 508338 354416 0 498055 358743 0 487740 362859 0 477396 366770 0 467026 370479 0 456632 373993 0 446218 377315 0 435786 380450 0 425339 383402 0 414880 386174 0 404411 388772 0 393933 391199 0 383451 393458 0 372966 395553 0 362480 397487 0 351996 399265 0 341516 400889 0 331042 402361 0 320575 403687 0 310119 404867 0 299674 405906 0 289243 406805 0 278828 407568 0 268430 408197 0 258052 408695 0 247694 409064 0 237359 409306 0 227049 409425 0 216764 409421 0 206508 409297 0 196280 409055 0 186083 408698 0 175918 408226 0 165787 407643 0 155690 406949 0 145631 406147 0 135609 405238 0 125626 404224 0 115684 403106 0 105784 401886 0 95926.6 400565 0 86113.9 399145 0 76346.9 397628 0 66626.8 396013 0 56954.8 394303 0 47332.2 392499 0 37760.1 390602 0 28239.7 388612 0 18772.1 386532 0 9358.47 384362 0 0 382103 0 -438781 -1.86085e+06 0 -88571.2 -1.74753e+06 0 36025.7 -1.64876e+06 0 138572 -1.57709e+06 0 224196 -1.50692e+06 0 300961 -1.44065e+06 0 369464 -1.37469e+06 0 430925 -1.3098e+06 0 485927 -1.24564e+06 0 535035 -1.18261e+06 0 578761 -1.12086e+06 0 617582 -1.06065e+06 0 651958 -1.00213e+06 0 682315 -945445 0 709048 -890668 0 732521 -837851 0 753064 -787006 0 770974 -738125 0 786518 -691178 0 799935 -646120 0 811437 -602896 0 821214 -561446 0 829434 -521702 0 836245 -483597 0 841780 -447061 0 846157 -412024 0 849479 -378420 0 851840 -346183 0 853322 -315248 0 854000 -285555 0 853939 -257045 0 853198 -229662 0 851830 -203354 0 849884 -178070 0 847401 -153764 0 844420 -130389 0 840978 -107905 0 837104 -86269.9 0 832829 -65447.3 0 828178 -45401.5 0 823175 -26099 0 817843 -7508.08 0 812201 10400.9 0 806268 27656 0 800061 44283.8 0 793596 60309.2 0 786888 75755.9 0 779949 90646.1 0 772793 105001 0 765431 118840 0 757874 132183 0 750133 145047 0 742217 157450 0 734135 169406 0 725896 180933 0 717507 192043 0 708978 202751 0 700314 213070 0 691523 223012 0 682611 232589 0 673585 241813 0 664450 250694 0 655212 259242 0 645877 267468 0 636450 275381 0 626936 282989 0 617339 290302 0 607665 297327 0 597918 304073 0 588102 310547 0 578222 316757 0 568281 322709 0 558283 328410 0 548233 333866 0 538133 339085 0 527988 344071 0 517800 348831 0 507574 353369 0 497312 357693 0 487017 361806 0 476693 365714 0 466342 369421 0 455968 372932 0 445573 376253 0 435160 379386 0 424732 382336 0 414291 385108 0 403840 387704 0 393380 390130 0 382916 392389 0 372448 394484 0 361979 396418 0 351512 398196 0 341048 399820 0 330590 401294 0 320140 402620 0 309700 403801 0 299271 404841 0 288855 405742 0 278456 406507 0 268073 407138 0 257710 407638 0 247367 408009 0 237047 408254 0 226751 408375 0 216481 408373 0 206238 408253 0 196025 408014 0 185841 407660 0 175690 407192 0 165573 406612 0 155490 405922 0 145443 405123 0 135435 404218 0 125465 403208 0 115536 402094 0 105649 400879 0 95804.3 399562 0 86004.3 398147 0 76249.8 396634 0 66542.2 395024 0 56882.6 393319 0 47272.2 391520 0 37712.2 389628 0 28203.9 387644 0 18748.3 385569 0 9346.63 383405 0 0 381152 0 -404178 -1.80851e+06 0 -99364.9 -1.7328e+06 0 33298.7 -1.63722e+06 0 134722 -1.5678e+06 0 221092 -1.49866e+06 0 297524 -1.43327e+06 0 365972 -1.36809e+06 0 427268 -1.30387e+06 0 482175 -1.24035e+06 0 531208 -1.17788e+06 0 574897 -1.11666e+06 0 613712 -1.05692e+06 0 648107 -998838 0 678502 -942538 0 705291 -888111 0 728832 -835608 0 749451 -785046 0 767443 -736419 0 783074 -689700 0 796579 -644848 0 808171 -601809 0 818037 -560526 0 826344 -520933 0 833241 -482965 0 838861 -446553 0 843319 -411629 0 846721 -378128 0 849158 -345984 0 850715 -315135 0 851464 -285521 0 851472 -257083 0 850798 -229767 0 849495 -203521 0 847610 -178294 0 845187 -154040 0 842264 -130715 0 838877 -108276 0 835057 -86683.4 0 830833 -65900.5 0 826232 -45891.9 0 821278 -26624.1 0 815993 -8065.92 0 810396 9812.37 0 804507 27038.6 0 798343 43639.2 0 791919 59639 0 785251 75061.5 0 778351 89928.8 0 771233 104262 0 763908 118081 0 756387 131404 0 748680 144250 0 740799 156635 0 732750 168575 0 724543 180086 0 716187 191181 0 707688 201875 0 699055 212180 0 690293 222110 0 681411 231675 0 672413 240887 0 663306 249758 0 654095 258296 0 644787 266512 0 635386 274416 0 625898 282015 0 616326 289320 0 606677 296338 0 596954 303076 0 587162 309544 0 577305 315747 0 567388 321692 0 557413 327388 0 547384 332839 0 537307 338053 0 527183 343034 0 517017 347790 0 506811 352325 0 496570 356645 0 486295 360755 0 475991 364660 0 465660 368365 0 455306 371874 0 444930 375192 0 434536 378323 0 424126 381272 0 413703 384043 0 403270 386638 0 392828 389064 0 382381 391322 0 371930 393416 0 361479 395351 0 351029 397129 0 340581 398754 0 330140 400228 0 319706 401555 0 309281 402737 0 298868 403779 0 288468 404681 0 278084 405447 0 267717 406080 0 257368 406582 0 247040 406955 0 236735 407203 0 226454 407326 0 216198 407328 0 205969 407210 0 195770 406974 0 185600 406623 0 175463 406158 0 165359 405582 0 155290 404895 0 145257 404101 0 135261 403200 0 125305 402193 0 115388 401084 0 105514 399873 0 95682.3 398561 0 85894.9 397150 0 76152.9 395642 0 66457.7 394037 0 56810.4 392337 0 47212.3 390543 0 37664.5 388656 0 28168.2 386677 0 18724.6 384608 0 9334.8 382449 0 0 380201 0 -376222 -1.76624e+06 0 -107015 -1.71636e+06 0 30234.5 -1.62604e+06 0 131230 -1.55831e+06 0 217976 -1.49046e+06 0 294191 -1.42589e+06 0 362524 -1.3615e+06 0 423671 -1.29796e+06 0 478471 -1.23506e+06 0 527428 -1.17317e+06 0 571076 -1.11246e+06 0 609880 -1.0532e+06 0 644290 -995539 0 674722 -939626 0 701563 -885547 0 725169 -833357 0 745862 -783078 0 763934 -734704 0 779649 -688214 0 793241 -643567 0 804920 -600714 0 814873 -559597 0 823267 -520156 0 830250 -482324 0 835952 -446036 0 840491 -411226 0 843972 -377828 0 846486 -345778 0 848116 -315015 0 848936 -285480 0 849013 -257115 0 848405 -229866 0 847165 -203681 0 845342 -178511 0 842978 -154310 0 840113 -131034 0 836781 -108641 0 833014 -87091.5 0 828842 -66348.6 0 824291 -46377.2 0 819385 -27144.5 0 814146 -8619.06 0 808595 9228.4 0 802750 26425.6 0 796628 42998.9 0 790246 58972.9 0 783617 74371 0 776756 89215.4 0 769676 103527 0 762387 117325 0 754902 130629 0 747231 143456 0 739383 155824 0 731368 167748 0 723194 179242 0 714869 190323 0 706401 201002 0 697798 211294 0 689066 221211 0 680212 230764 0 671243 239965 0 662164 248824 0 652980 257352 0 643699 265559 0 634324 273453 0 624861 281044 0 615315 288340 0 605691 295350 0 595992 302082 0 586224 308542 0 576391 314739 0 566496 320679 0 556543 326368 0 546538 331814 0 536482 337023 0 526380 342000 0 516234 346752 0 506050 351283 0 495829 355599 0 485575 359706 0 475291 363608 0 464979 367310 0 454644 370817 0 444287 374133 0 433912 377263 0 423521 380210 0 413116 382979 0 402701 385574 0 392277 387999 0 381847 390256 0 371414 392351 0 360979 394286 0 350546 396064 0 340115 397689 0 329690 399164 0 319272 400491 0 308863 401675 0 298466 402717 0 288082 403621 0 277713 404389 0 267361 405024 0 257027 405528 0 246714 405904 0 236424 406153 0 226157 406279 0 215915 406283 0 205701 406168 0 195515 405935 0 185360 405587 0 175236 405126 0 165146 404553 0 155090 403870 0 145070 403079 0 135088 402182 0 125144 401180 0 115241 400075 0 105379 398868 0 95560.4 397560 0 85785.6 396154 0 76056.2 394650 0 66373.4 393050 0 56738.4 391355 0 47152.5 389566 0 37616.8 387685 0 28132.5 385711 0 18700.9 383648 0 9322.99 381494 0 0 379252 0 -354311 -1.73124e+06 0 -112154 -1.69912e+06 0 27032.8 -1.615e+06 0 128024 -1.54874e+06 0 214881 -1.4823e+06 0 290947 -1.41852e+06 0 359126 -1.35494e+06 0 420130 -1.29206e+06 0 474814 -1.22979e+06 0 523692 -1.16845e+06 0 567296 -1.10827e+06 0 606086 -1.04947e+06 0 640507 -992238 0 670973 -936709 0 697864 -882977 0 721532 -831100 0 742296 -781102 0 760447 -732981 0 776244 -686718 0 789921 -642277 0 801686 -599609 0 811725 -558660 0 820204 -519370 0 827270 -481675 0 833055 -445512 0 837674 -410814 0 841232 -377519 0 843822 -345564 0 845525 -314888 0 846416 -285431 0 846560 -257139 0 846018 -229957 0 844842 -203835 0 843080 -178723 0 840775 -154575 0 837967 -131348 0 834690 -109001 0 830977 -87494.3 0 826856 -66791.4 0 822354 -46857.6 0 817496 -27660 0 812304 -9167.52 0 806798 8648.95 0 800996 25817 0 794917 42362.8 0 788575 58310.9 0 781987 73684.6 0 775165 88505.9 0 768122 102795 0 760870 116573 0 753421 129858 0 745784 142666 0 737970 155016 0 729988 166923 0 721846 178402 0 713553 189467 0 705117 200133 0 696544 210411 0 687841 220315 0 679016 229856 0 670075 239046 0 661023 247894 0 651867 256412 0 642612 264608 0 633264 272493 0 623827 280075 0 614306 287364 0 604706 294366 0 595032 301090 0 585287 307543 0 575477 313733 0 565606 319667 0 555676 325351 0 545692 330792 0 535658 335996 0 525578 340968 0 515454 345715 0 505290 350243 0 495089 354556 0 484856 358659 0 474591 362558 0 464300 366258 0 453984 369762 0 443646 373076 0 433289 376204 0 422916 379150 0 412530 381918 0 402132 384512 0 391726 386936 0 381314 389193 0 370898 391287 0 360481 393222 0 350064 395000 0 339650 396625 0 329241 398101 0 318839 399430 0 308446 400614 0 298065 401658 0 287696 402563 0 277342 403333 0 267005 403969 0 256687 404475 0 246389 404853 0 236113 405105 0 225860 405233 0 215633 405240 0 205433 405128 0 195261 404898 0 185120 404554 0 175010 404095 0 164933 403526 0 154890 402847 0 144884 402060 0 134915 401166 0 124984 400168 0 115094 399067 0 105245 397864 0 95438.8 396561 0 85676.6 395160 0 75959.6 393661 0 66289.2 392065 0 56666.5 390375 0 47092.8 388591 0 37569.2 386715 0 28096.9 384747 0 18677.2 382689 0 9311.21 380541 0 0 378304 0 -335826 -1.70151e+06 0 -115550 -1.68163e+06 0 23915.9 -1.60397e+06 0 125020 -1.53915e+06 0 211846 -1.47414e+06 0 287779 -1.41117e+06 0 355784 -1.34839e+06 0 416642 -1.28617e+06 0 471206 -1.22453e+06 0 520002 -1.16375e+06 0 563557 -1.10408e+06 0 602329 -1.04575e+06 0 636760 -988935 0 667255 -933788 0 694193 -880402 0 717920 -828836 0 738754 -779118 0 756981 -731250 0 772858 -685215 0 786618 -640978 0 798467 -598495 0 808591 -557714 0 817154 -518575 0 824303 -481017 0 830169 -444979 0 834868 -410395 0 838503 -377203 0 841167 -345343 0 842942 -314753 0 843903 -285376 0 844115 -257157 0 843638 -230043 0 842525 -203982 0 840824 -178928 0 838578 -154833 0 835826 -131656 0 832604 -109355 0 828944 -87891.7 0 824874 -67229.2 0 820422 -47333 0 815612 -28170.6 0 810466 -9711.33 0 805004 8074.01 0 799246 25212.8 0 793209 41731 0 786908 57653.1 0 780359 73002.2 0 773576 87800.3 0 766571 102068 0 759356 115825 0 751942 129090 0 744340 141880 0 736560 154212 0 728611 166102 0 720502 177565 0 712240 188615 0 703834 199267 0 695291 209531 0 686618 219422 0 677822 228951 0 668909 238129 0 659885 246966 0 650756 255474 0 641528 263660 0 632205 271536 0 622794 279109 0 613298 286389 0 603723 293384 0 594073 300100 0 584352 306547 0 574566 312730 0 564717 318658 0 554810 324336 0 544848 329772 0 534836 334970 0 524777 339938 0 514674 344681 0 504531 349205 0 494351 353514 0 484138 357614 0 473893 361510 0 463621 365207 0 453324 368709 0 443005 372021 0 432668 375147 0 422313 378092 0 411945 380858 0 401565 383451 0 391177 385874 0 380782 388131 0 370383 390225 0 359983 392159 0 349583 393938 0 339185 395564 0 328793 397040 0 318407 398369 0 308030 399555 0 297664 400600 0 287311 401507 0 276972 402278 0 266651 402916 0 256347 403424 0 246064 403804 0 235802 404058 0 225564 404189 0 215351 404199 0 205165 404089 0 195008 403863 0 184880 403521 0 174783 403066 0 164720 402500 0 154691 401824 0 144698 401041 0 134742 400152 0 124824 399158 0 114947 398061 0 105111 396862 0 95317.3 395564 0 85567.7 394167 0 75863.2 392672 0 66205.1 391082 0 56594.7 389396 0 47033.1 387618 0 37521.6 385746 0 28061.4 383784 0 18653.6 381731 0 9299.44 379588 0 0 377358 0 -320066 -1.67575e+06 0 -117602 -1.66426e+06 0 20973 -1.59289e+06 0 122188 -1.52958e+06 0 208884 -1.46599e+06 0 284682 -1.40384e+06 0 352499 -1.34185e+06 0 413208 -1.2803e+06 0 467646 -1.21927e+06 0 516357 -1.15905e+06 0 559859 -1.09989e+06 0 598611 -1.04202e+06 0 633047 -985630 0 663569 -930864 0 690550 -877821 0 714335 -826565 0 735236 -777127 0 753536 -729511 0 769491 -683703 0 783333 -639671 0 795265 -597373 0 805472 -556759 0 814118 -517771 0 821349 -480352 0 827294 -444438 0 832071 -409967 0 835782 -376880 0 838520 -345114 0 840368 -314611 0 841398 -285314 0 841678 -257168 0 841265 -230121 0 840215 -204123 0 838574 -179127 0 836387 -155086 0 833691 -131959 0 830523 -109704 0 826915 -88283.9 0 822897 -67661.8 0 818494 -47803.4 0 813731 -28676.5 0 808631 -10250.5 0 803214 7503.57 0 797500 24613 0 791504 41103.4 0 785245 56999.4 0 778736 72323.8 0 771991 87098.5 0 765023 101344 0 757844 115080 0 750466 128325 0 742899 141096 0 735153 153411 0 727237 165284 0 719160 176731 0 710929 187766 0 702554 198403 0 694041 208655 0 685398 218533 0 676630 228049 0 667746 237215 0 658749 246041 0 649647 254538 0 640446 262715 0 631149 270581 0 621763 278146 0 612292 285417 0 602742 292404 0 593116 299113 0 583419 305553 0 573656 311730 0 563830 317651 0 553945 323324 0 544006 328754 0 534015 333947 0 523978 338911 0 513896 343649 0 503774 348169 0 493614 352475 0 483421 356571 0 473196 360465 0 462944 364159 0 452666 367659 0 442366 370968 0 432047 374093 0 421711 377035 0 411361 379801 0 400999 382393 0 390628 384815 0 380251 387071 0 369869 389165 0 359486 391099 0 349102 392878 0 338721 394504 0 328345 395981 0 317975 397311 0 307614 398498 0 297264 399544 0 286926 400452 0 276603 401225 0 266296 401865 0 256008 402375 0 245739 402757 0 235492 403013 0 225269 403146 0 215070 403159 0 204898 403052 0 194754 402828 0 184640 402490 0 174558 402038 0 164508 401476 0 154492 400804 0 144512 400024 0 134569 399138 0 124665 398148 0 114800 397055 0 104977 395861 0 95196.1 394567 0 85459 393175 0 75766.9 391685 0 66121.2 390099 0 56523 388419 0 46973.6 386645 0 37474.2 384779 0 28025.9 382822 0 18630 380774 0 9287.69 378637 0 0 376412 0 -306263 -1.65302e+06 0 -118641 -1.6472e+06 0 18266.5 -1.58177e+06 0 119505 -1.52004e+06 0 206004 -1.45784e+06 0 281652 -1.39653e+06 0 349273 -1.33533e+06 0 409826 -1.27444e+06 0 464134 -1.21403e+06 0 512756 -1.15436e+06 0 556202 -1.0957e+06 0 594929 -1.0383e+06 0 629367 -982324 0 659913 -927936 0 686936 -875235 0 710775 -824288 0 731740 -775129 0 750112 -727764 0 766144 -682183 0 780065 -638356 0 792078 -596243 0 802367 -555796 0 811095 -516960 0 818406 -479677 0 824431 -443888 0 829285 -409532 0 833072 -376548 0 835883 -344878 0 837802 -314462 0 838901 -285245 0 839247 -257173 0 838899 -230194 0 837911 -204258 0 836330 -179320 0 834201 -155333 0 831561 -132256 0 828448 -110048 0 824892 -88670.8 0 820924 -68089.3 0 816570 -48269 0 811855 -29177.7 0 806801 -10785 0 801429 6937.62 0 795757 24017.4 0 789804 40480.1 0 783585 56349.7 0 777115 71649.4 0 770408 86400.7 0 763478 100624 0 756336 114339 0 748993 127564 0 741461 140317 0 733748 152613 0 725865 164470 0 717820 175901 0 709621 186921 0 701276 197543 0 692794 207781 0 684179 217646 0 675441 227150 0 666584 236304 0 657615 245119 0 648540 253606 0 639365 261773 0 630095 269629 0 620734 277185 0 611288 284448 0 601762 291427 0 592160 298128 0 582487 304561 0 572747 310731 0 562944 316647 0 553082 322313 0 543165 327738 0 533196 332927 0 523180 337885 0 513119 342620 0 503018 347135 0 492879 351437 0 482705 355531 0 472500 359421 0 462267 363112 0 452009 366610 0 441728 369917 0 431427 373040 0 421110 375981 0 410778 378745 0 400434 381336 0 390081 383757 0 379721 386013 0 369356 388106 0 358990 390040 0 348623 391819 0 338258 393446 0 327898 394923 0 317545 396254 0 307199 397442 0 296865 398489 0 286542 399398 0 276235 400173 0 265943 400815 0 255669 401326 0 245415 401711 0 235183 401969 0 224974 402105 0 214789 402120 0 204631 402016 0 194501 401795 0 184401 401460 0 174332 401012 0 164296 400453 0 154294 399784 0 144327 399008 0 134397 398126 0 124506 397140 0 114654 396052 0 104843 394862 0 95075 393572 0 85350.4 392184 0 75670.8 390699 0 66037.4 389118 0 56451.4 387443 0 46914.2 385674 0 37426.8 383813 0 27990.5 381861 0 18606.5 379819 0 9275.95 377687 0 0 375468 0 -294017 -1.63266e+06 0 -118900 -1.63058e+06 0 15822.3 -1.57061e+06 0 116961 -1.51055e+06 0 203212 -1.44969e+06 0 278689 -1.38925e+06 0 346105 -1.32883e+06 0 406496 -1.2686e+06 0 460671 -1.20879e+06 0 509198 -1.14968e+06 0 552585 -1.09152e+06 0 591285 -1.03457e+06 0 625722 -979016 0 656289 -925004 0 683350 -872645 0 707241 -822005 0 728268 -773124 0 746709 -726010 0 762816 -680655 0 776815 -637032 0 788908 -595104 0 799277 -554824 0 808085 -516140 0 815476 -478995 0 821579 -443331 0 826510 -409089 0 830371 -376210 0 833255 -344634 0 835244 -314305 0 836411 -285169 0 836823 -257170 0 836540 -230259 0 835613 -204387 0 834092 -179507 0 832020 -155574 0 829437 -132547 0 826377 -110386 0 822873 -89052.5 0 818956 -68511.7 0 814651 -48729.6 0 809983 -29674 0 804974 -11315 0 799646 6376.12 0 794018 23426.3 0 788106 39860.9 0 781928 55704.2 0 775498 70978.9 0 768829 85706.7 0 761936 99907.8 0 754831 113602 0 747523 126807 0 740025 139541 0 732346 151819 0 724496 163659 0 716483 175074 0 708315 186078 0 700001 196686 0 691548 206910 0 682963 216762 0 674253 226253 0 665425 235396 0 656483 244200 0 647436 252676 0 638287 260833 0 629042 268680 0 619707 276227 0 610286 283481 0 600784 290452 0 591207 297146 0 581557 303572 0 571840 309735 0 562060 315644 0 552220 321305 0 542325 326724 0 532378 331908 0 522383 336862 0 512344 341592 0 502263 346104 0 492144 350402 0 481991 354492 0 471806 358379 0 461592 362068 0 451353 365563 0 441091 368868 0 430809 371989 0 420510 374928 0 410196 377691 0 399870 380281 0 389534 382701 0 379191 384956 0 368844 387049 0 358494 388983 0 348144 390762 0 337796 392389 0 327452 393867 0 317114 395199 0 306785 396387 0 296466 397436 0 286159 398347 0 275867 399123 0 265590 399766 0 255331 400280 0 245092 400666 0 234874 400927 0 224679 401065 0 214509 401083 0 204365 400982 0 194249 400764 0 184163 400432 0 174107 399987 0 164084 399431 0 154095 398766 0 144142 397994 0 134225 397116 0 124347 396134 0 114508 395049 0 104710 393863 0 94954.1 392578 0 85242.1 391195 0 75574.8 389714 0 65953.7 388138 0 56380 386467 0 46854.8 384704 0 37379.5 382848 0 27955.2 380901 0 18583 378864 0 9264.24 376739 0 0 374525 0 -283002 -1.61416e+06 0 -118556 -1.61447e+06 0 13650.3 -1.55943e+06 0 114549 -1.50109e+06 0 200510 -1.44156e+06 0 275791 -1.382e+06 0 342995 -1.32234e+06 0 403217 -1.26278e+06 0 457254 -1.20357e+06 0 505684 -1.145e+06 0 549008 -1.08735e+06 0 587677 -1.03085e+06 0 622110 -975707 0 652695 -922070 0 679792 -870049 0 703733 -819717 0 724819 -771112 0 743328 -724249 0 759507 -679119 0 773582 -635701 0 785753 -593957 0 796202 -553845 0 805088 -515312 0 812558 -478305 0 818738 -442766 0 823744 -408639 0 827680 -375863 0 830636 -344383 0 832694 -314142 0 833929 -285086 0 834407 -257161 0 834187 -230319 0 833322 -204509 0 831860 -179688 0 829846 -155809 0 827317 -132833 0 824311 -110718 0 820860 -89429 0 816992 -68929.1 0 812736 -49185.3 0 808115 -30165.7 0 803152 -11840.3 0 797868 5819.08 0 792283 22839.4 0 786413 39245.9 0 780275 55062.7 0 773884 70312.4 0 767254 85016.5 0 760398 99195.3 0 753328 112868 0 746056 126053 0 738592 138768 0 730947 151029 0 723129 162851 0 715148 174250 0 707012 185239 0 698728 195832 0 690305 206042 0 681749 215881 0 673068 225360 0 664267 234491 0 655354 243284 0 646332 251749 0 637210 259896 0 627991 267733 0 618681 275271 0 609285 282517 0 599808 289480 0 590255 296166 0 580629 302585 0 570935 308742 0 561177 314644 0 551360 320299 0 541487 325713 0 531562 330892 0 521588 335841 0 511570 340566 0 501509 345074 0 491411 349368 0 481278 353455 0 471112 357339 0 460918 361025 0 450698 364518 0 440455 367821 0 430191 370939 0 419910 373877 0 409615 376639 0 399306 379227 0 388988 381647 0 378663 383901 0 368333 385994 0 358000 387928 0 347666 389707 0 337334 391334 0 327007 392813 0 316685 394145 0 306372 395335 0 296068 396384 0 285777 397296 0 275499 398074 0 265237 398719 0 254993 399235 0 244769 399623 0 234565 399886 0 224385 400027 0 214229 400047 0 204099 399949 0 193997 399734 0 183924 399405 0 173882 398963 0 163873 398410 0 153897 397749 0 143957 396980 0 134053 396106 0 124188 395128 0 114362 394048 0 104577 392866 0 94833.5 391585 0 85133.9 390206 0 75479 388731 0 65870.2 387159 0 56308.6 385494 0 46795.6 383735 0 37332.3 381884 0 27919.8 379943 0 18559.6 377911 0 9252.55 375791 0 0 373583 0 -272997 -1.59715e+06 0 -117744 -1.59888e+06 0 11747.6 -1.54827e+06 0 112265 -1.49169e+06 0 197898 -1.43344e+06 0 272960 -1.37477e+06 0 339944 -1.31587e+06 0 399989 -1.25697e+06 0 453885 -1.19836e+06 0 502213 -1.14033e+06 0 545471 -1.08318e+06 0 584106 -1.02713e+06 0 618532 -972397 0 649132 -919133 0 676262 -867450 0 700249 -817423 0 721394 -769094 0 739967 -722480 0 756218 -677576 0 770367 -634361 0 782615 -592803 0 793141 -552857 0 802105 -514476 0 809652 -477607 0 815908 -442194 0 820990 -408180 0 824998 -375509 0 828025 -344125 0 830153 -313972 0 831455 -284996 0 831998 -257146 0 831841 -230372 0 831037 -204626 0 829634 -179863 0 827677 -156039 0 825204 -133113 0 822251 -111046 0 818851 -89800.2 0 815033 -69341.5 0 810825 -49636.1 0 806251 -30652.6 0 801334 -12361.1 0 796094 5266.46 0 790551 22256.8 0 784722 38635.2 0 778625 54425.3 0 772273 69649.9 0 765681 84330.2 0 758862 98486.5 0 751828 112138 0 744592 125303 0 737162 137999 0 729550 150241 0 721765 162046 0 713816 173429 0 705711 184402 0 697458 194981 0 689064 205177 0 680538 215003 0 671885 224469 0 663112 233588 0 654226 242370 0 645231 250824 0 636135 258961 0 626942 266789 0 617658 274318 0 608287 281556 0 598834 288510 0 589304 295189 0 579702 301600 0 570031 307750 0 560296 313647 0 550502 319296 0 540651 324704 0 530747 329878 0 520795 334822 0 510797 339543 0 500757 344046 0 490679 348337 0 480566 352421 0 470420 356301 0 460245 359985 0 450044 363474 0 439820 366776 0 429575 369892 0 419312 372828 0 409034 375588 0 398744 378176 0 388444 380595 0 378135 382848 0 367822 384940 0 357506 386874 0 347189 388654 0 336874 390281 0 326562 391760 0 316256 393093 0 305959 394284 0 295671 395334 0 285395 396248 0 275132 397027 0 264886 397674 0 254656 398191 0 244447 398581 0 234258 398847 0 224091 398990 0 213950 399013 0 203834 398917 0 193745 398705 0 183686 398379 0 173658 397941 0 163662 397391 0 153700 396734 0 143772 395969 0 133882 395098 0 124029 394124 0 114216 393048 0 104443 391871 0 94713 390594 0 85025.9 389220 0 75383.4 387748 0 65786.8 386182 0 56237.4 384521 0 46736.4 382767 0 37285.1 380922 0 27884.6 378985 0 18536.1 376959 0 9240.87 374845 0 0 372642 0 -263831 -1.58137e+06 0 -116570 -1.58383e+06 0 10104.6 -1.53715e+06 0 110107 -1.48233e+06 0 195376 -1.42535e+06 0 270194 -1.36757e+06 0 336950 -1.30943e+06 0 396812 -1.25118e+06 0 450562 -1.19316e+06 0 498785 -1.13568e+06 0 541973 -1.07901e+06 0 580571 -1.02341e+06 0 614987 -969087 0 645599 -916193 0 672759 -864846 0 696791 -815123 0 717991 -767070 0 736628 -720704 0 752947 -676026 0 767169 -633015 0 779492 -591640 0 790095 -551861 0 799136 -513632 0 806758 -476901 0 813090 -441613 0 818245 -407715 0 822326 -375148 0 825424 -343860 0 827620 -313794 0 828989 -284899 0 829597 -257124 0 829502 -230418 0 828758 -204736 0 827414 -180032 0 825513 -156262 0 823095 -133387 0 820195 -111367 0 816847 -90166.3 0 813079 -69748.9 0 808919 -50082.2 0 804391 -31134.8 0 799519 -12877.4 0 794323 4718.27 0 788823 21678.5 0 783036 38028.5 0 776978 53791.9 0 770665 68991.3 0 764111 83647.7 0 757329 97781.5 0 750332 111412 0 743130 124556 0 735735 137233 0 728156 149457 0 720404 161245 0 712486 172611 0 704412 183569 0 696189 194133 0 687826 204315 0 679328 214128 0 670704 223582 0 661959 232689 0 653100 241459 0 644132 249903 0 635062 258029 0 625895 265848 0 616636 273367 0 607290 280596 0 597861 287543 0 588356 294214 0 578777 300618 0 569129 306761 0 559417 312651 0 549645 318295 0 539815 323697 0 529933 328865 0 520002 333805 0 510025 338522 0 500006 343021 0 489949 347308 0 479855 351388 0 469729 355266 0 459573 358946 0 449392 362433 0 439186 365732 0 428960 368847 0 418715 371781 0 408455 374540 0 398183 377126 0 387900 379544 0 377609 381797 0 367312 383889 0 357013 385823 0 346713 387602 0 336414 389229 0 326118