<?xml version="1.0"?> 
<VTKFile type="StructuredGrid" version="0.1"> 
<StructuredGrid WholeExtent="0 127 0 127 0 0"> 
<Piece Extent="0 127 0 127 0 0"> 
<PointData>
<DataArray type="Float32" Name="E" format="ascii" NumberOfComponents="3"> 
-819815 0 0 -817330 0 0 -814849 0 0 -812371 0 0 -809898 0 0 -807428 0 0 -804962 0 0 -802500 0 0 -800043 0 0 -797590 0 0 -795141 0 0 -792698 0 0 -790258 0 0 -787824 0 0 -785395 0 0 -782970 0 0 -780551 0 0 -778136 0 0 -775726 0 0 -773321 0 0 -770922 0 0 -768527 0 0 -766137 0 0 -763752 0 0 -761371 0 0 -758996 0 0 -756625 0 0 -754259 0 0 -751897 0 0 -749540 0 0 -747188 0 0 -744840 0 0 -742496 0 0 -740157 0 0 -737822 0 0 -735490 0 0 -733163 0 0 -730840 0 0 -728521 0 0 -726205 0 0 -723893 0 0 -721585 0 0 -719280 0 0 -716978 0 0 -714680 0 0 -712385 0 0 -710093 0 0 -707804 0 0 -705518 0 0 -703234 0 0 -700954 0 0 -698676 0 0 -696401 0 0 -694128 0 0 -691858 0 0 -689590 0 0 -687325 0 0 -685062 0 0 -682800 0 0 -680541 0 0 -678284 0 0 -676029 0 0 -673775 0 0 -671524 0 0 -669274 0 0 -667026 0 0 -664779 0 0 -662534 0 0 -660290 0 0 -658048 0 0 -655807 0 0 -653568 0 0 -651330 0 0 -649093 0 0 -646857 0 0 -644622 0 0 -642389 0 0 -640156 0 0 -637924 0 0 -635694 0 0 -633464 0 0 -631235 0 0 -629008 0 0 -626780 0 0 -624554 0 0 -622328 0 0 -620104 0 0 -617879 0 0 -615656 0 0 -613433 0 0 -611211 0 0 -608989 0 0 -606768 0 0 -604547 0 0 -602327 0 0 -600107 0 0 -597887 0 0 -595669 0 0 -593450 0 0 -591232 0 0 -589014 0 0 -586797 0 0 -584580 0 0 -582363 0 0 -580146 0 0 -577930 0 0 -575714 0 0 -573498 0 0 -571282 0 0 -569067 0 0 -566852 0 0 -564637 0 0 -562422 0 0 -560207 0 0 -557993 0 0 -555778 0 0 -553564 0 0 -551350 0 0 -549136 0 0 -546922 0 0 -544708 0 0 -542494 0 0 -540280 0 0 -538066 0 0 -535853 0 0 -533639 0 0 -531425 0 0 -529212 0 0 -819814 1351.17 0 -817330 1349.4 0 -814849 1347.53 0 -812371 1345.55 0 -809897 1343.47 0 -807427 1341.3 0 -804961 1339.05 0 -802499 1336.73 0 -800042 1334.35 0 -797589 1331.9 0 -795141 1329.4 0 -792697 1326.85 0 -790258 1324.27 0 -787824 1321.65 0 -785394 1319.01 0 -782970 1316.35 0 -780550 1313.67 0 -778135 1310.98 0 -775726 1308.29 0 -773321 1305.61 0 -770921 1302.92 0 -768526 1300.25 0 -766136 1297.6 0 -763751 1294.96 0 -761371 1292.34 0 -758995 1289.75 0 -756624 1287.19 0 -754258 1284.66 0 -751897 1282.17 0 -749540 1279.71 0 -747187 1277.29 0 -744839 1274.91 0 -742496 1272.57 0 -740156 1270.28 0 -737821 1268.03 0 -735490 1265.83 0 -733163 1263.68 0 -730839 1261.57 0 -728520 1259.51 0 -726204 1257.51 0 -723892 1255.55 0 -721584 1253.63 0 -719279 1251.77 0 -716978 1249.96 0 -714679 1248.2 0 -712384 1246.48 0 -710092 1244.82 0 -707803 1243.2 0 -705517 1241.63 0 -703234 1240.1 0 -700954 1238.62 0 -698676 1237.19 0 -696401 1235.8 0 -694128 1234.46 0 -691858 1233.15 0 -689590 1231.89 0 -687325 1230.68 0 -685061 1229.5 0 -682800 1228.36 0 -680541 1227.26 0 -678284 1226.2 0 -676028 1225.18 0 -673775 1224.19 0 -671523 1223.23 0 -669274 1222.31 0 -667025 1221.43 0 -664779 1220.57 0 -662534 1219.75 0 -660290 1218.96 0 -658048 1218.19 0 -655807 1217.46 0 -653568 1216.75 0 -651329 1216.08 0 -649092 1215.42 0 -646857 1214.8 0 -644622 1214.19 0 -642388 1213.61 0 -640156 1213.06 0 -637924 1212.53 0 -635694 1212.01 0 -633464 1211.52 0 -631235 1211.05 0 -629007 1210.6 0 -626780 1210.17 0 -624554 1209.76 0 -622328 1209.37 0 -620103 1208.99 0 -617879 1208.63 0 -615656 1208.28 0 -613433 1207.95 0 -611210 1207.64 0 -608989 1207.34 0 -606767 1207.05 0 -604547 1206.78 0 -602326 1206.52 0 -600107 1206.28 0 -597887 1206.04 0 -595668 1205.82 0 -593450 1205.61 0 -591232 1205.41 0 -589014 1205.22 0 -586797 1205.04 0 -584579 1204.88 0 -582363 1204.72 0 -580146 1204.57 0 -577930 1204.43 0 -575714 1204.3 0 -573498 1204.17 0 -571282 1204.06 0 -569067 1203.95 0 -566852 1203.85 0 -564637 1203.76 0 -562422 1203.67 0 -560207 1203.59 0 -557993 1203.52 0 -555778 1203.45 0 -553564 1203.39 0 -551350 1203.34 0 -549136 1203.29 0 -546922 1203.25 0 -544708 1203.21 0 -542494 1203.18 0 -540280 1203.15 0 -538066 1203.13 0 -535853 1203.11 0 -533639 1203.1 0 -531425 1203.09 0 -529212 1203.08 0 -819813 2702.37 0 -817328 2698.84 0 -814847 2695.08 0 -812369 2691.12 0 -809895 2686.96 0 -807425 2682.63 0 -804959 2678.13 0 -802497 2673.49 0 -800040 2668.71 0 -797587 2663.81 0 -795138 2658.81 0 -792695 2653.72 0 -790256 2648.55 0 -787821 2643.31 0 -785392 2638.02 0 -782967 2632.7 0 -780548 2627.34 0 -778133 2621.97 0 -775723 2616.59 0 -773319 2611.21 0 -770919 2605.84 0 -768524 2600.5 0 -766134 2595.19 0 -763749 2589.91 0 -761368 2584.68 0 -758993 2579.5 0 -756622 2574.37 0 -754256 2569.31 0 -751895 2564.32 0 -749538 2559.41 0 -747185 2554.57 0 -744837 2549.81 0 -742494 2545.14 0 -740154 2540.55 0 -737819 2536.05 0 -735488 2531.65 0 -733161 2527.34 0 -730838 2523.13 0 -728518 2519.01 0 -726203 2515 0 -723891 2511.08 0 -721583 2507.25 0 -719278 2503.53 0 -716976 2499.91 0 -714678 2496.38 0 -712383 2492.95 0 -710091 2489.62 0 -707802 2486.38 0 -705516 2483.24 0 -703233 2480.19 0 -700952 2477.23 0 -698675 2474.36 0 -696400 2471.59 0 -694127 2468.9 0 -691857 2466.29 0 -689589 2463.78 0 -687324 2461.34 0 -685060 2458.99 0 -682799 2456.71 0 -680540 2454.51 0 -678283 2452.39 0 -676028 2450.34 0 -673774 2448.36 0 -671523 2446.46 0 -669273 2444.62 0 -667025 2442.84 0 -664778 2441.13 0 -662533 2439.49 0 -660289 2437.9 0 -658047 2436.38 0 -655806 2434.91 0 -653567 2433.5 0 -651329 2432.14 0 -649092 2430.84 0 -646856 2429.58 0 -644621 2428.38 0 -642388 2427.22 0 -640155 2426.11 0 -637924 2425.04 0 -635693 2424.02 0 -633464 2423.04 0 -631235 2422.1 0 -629007 2421.2 0 -626780 2420.34 0 -624554 2419.52 0 -622328 2418.73 0 -620103 2417.97 0 -617879 2417.25 0 -615655 2416.56 0 -613433 2415.9 0 -611210 2415.27 0 -608988 2414.67 0 -606767 2414.1 0 -604547 2413.56 0 -602326 2413.04 0 -600107 2412.55 0 -597887 2412.08 0 -595668 2411.64 0 -593450 2411.22 0 -591232 2410.82 0 -589014 2410.44 0 -586796 2410.09 0 -584579 2409.75 0 -582363 2409.43 0 -580146 2409.13 0 -577930 2408.85 0 -575714 2408.59 0 -573498 2408.34 0 -571282 2408.11 0 -569067 2407.9 0 -566852 2407.7 0 -564637 2407.51 0 -562422 2407.34 0 -560207 2407.18 0 -557993 2407.04 0 -555778 2406.9 0 -553564 2406.78 0 -551350 2406.68 0 -549136 2406.58 0 -546922 2406.49 0 -544708 2406.42 0 -542494 2406.36 0 -540280 2406.3 0 -538066 2406.26 0 -535853 2406.22 0 -533639 2406.19 0 -531425 2406.17 0 -529212 2406.16 0 -819811 4053.64 0 -817326 4048.34 0 -814844 4042.7 0 -812366 4036.75 0 -809892 4030.51 0 -807422 4024 0 -804956 4017.25 0 -802494 4010.28 0 -800037 4003.11 0 -797584 3995.75 0 -795135 3988.25 0 -792691 3980.6 0 -790252 3972.84 0 -787818 3964.99 0 -785388 3957.05 0 -782964 3949.06 0 -780544 3941.02 0 -778129 3932.95 0 -775720 3924.88 0 -773315 3916.81 0 -770915 3908.76 0 -768520 3900.74 0 -766130 3892.76 0 -763745 3884.85 0 -761365 3877 0 -758989 3869.22 0 -756619 3861.54 0 -754253 3853.95 0 -751891 3846.46 0 -749534 3839.08 0 -747182 3831.82 0 -744834 3824.68 0 -742491 3817.67 0 -740151 3810.79 0 -737816 3804.05 0 -735485 3797.44 0 -733158 3790.98 0 -730835 3784.66 0 -728516 3778.49 0 -726200 3772.46 0 -723888 3766.58 0 -721580 3760.84 0 -719275 3755.26 0 -716974 3749.82 0 -714675 3744.53 0 -712380 3739.39 0 -710089 3734.39 0 -707800 3729.53 0 -705514 3724.82 0 -703231 3720.25 0 -700950 3715.81 0 -698673 3711.51 0 -696398 3707.35 0 -694125 3703.32 0 -691855 3699.41 0 -689587 3695.63 0 -687322 3691.98 0 -685059 3688.45 0 -682798 3685.04 0 -680538 3681.74 0 -678281 3678.56 0 -676026 3675.48 0 -673773 3672.52 0 -671521 3669.66 0 -669272 3666.9 0 -667023 3664.24 0 -664777 3661.68 0 -662532 3659.21 0 -660288 3656.84 0 -658046 3654.55 0 -655805 3652.35 0 -653566 3650.23 0 -651328 3648.19 0 -649091 3646.24 0 -646855 3644.36 0 -644621 3642.55 0 -642387 3640.81 0 -640155 3639.15 0 -637923 3637.55 0 -635693 3636.02 0 -633463 3634.55 0 -631234 3633.14 0 -629006 3631.79 0 -626779 3630.5 0 -624553 3629.26 0 -622328 3628.08 0 -620103 3626.94 0 -617879 3625.86 0 -615655 3624.83 0 -613432 3623.84 0 -611210 3622.9 0 -608988 3622 0 -606767 3621.15 0 -604546 3620.33 0 -602326 3619.55 0 -600106 3618.82 0 -597887 3618.12 0 -595668 3617.45 0 -593450 3616.82 0 -591231 3616.22 0 -589014 3615.66 0 -586796 3615.12 0 -584579 3614.62 0 -582362 3614.14 0 -580146 3613.69 0 -577930 3613.27 0 -575714 3612.88 0 -573498 3612.51 0 -571282 3612.16 0 -569067 3611.84 0 -566852 3611.54 0 -564637 3611.26 0 -562422 3611 0 -560207 3610.77 0 -557993 3610.55 0 -555778 3610.35 0 -553564 3610.17 0 -551350 3610.01 0 -549136 3609.87 0 -546922 3609.74 0 -544708 3609.63 0 -542494 3609.53 0 -540280 3609.45 0 -538066 3609.38 0 -535853 3609.33 0 -533639 3609.29 0 -531425 3609.26 0 -529212 3609.24 0 -819807 5405.02 0 -817322 5397.94 0 -814841 5390.41 0 -812363 5382.47 0 -809888 5374.13 0 -807418 5365.45 0 -804952 5356.44 0 -802490 5347.13 0 -800032 5337.56 0 -797579 5327.75 0 -795130 5317.73 0 -792686 5307.52 0 -790247 5297.17 0 -787813 5286.68 0 -785383 5276.1 0 -782959 5265.43 0 -780539 5254.7 0 -778124 5243.94 0 -775715 5233.17 0 -773310 5222.4 0 -770910 5211.66 0 -768515 5200.96 0 -766125 5190.33 0 -763740 5179.76 0 -761360 5169.29 0 -758984 5158.92 0 -756614 5148.67 0 -754248 5138.55 0 -751887 5128.56 0 -749530 5118.72 0 -747178 5109.04 0 -744830 5099.52 0 -742486 5090.17 0 -740147 5080.99 0 -737812 5072 0 -735481 5063.19 0 -733154 5054.57 0 -730831 5046.15 0 -728512 5037.91 0 -726196 5029.88 0 -723885 5022.03 0 -721576 5014.39 0 -719272 5006.94 0 -716970 4999.7 0 -714672 4992.64 0 -712377 4985.78 0 -710085 4979.12 0 -707797 4972.65 0 -705511 4966.36 0 -703228 4960.27 0 -700948 4954.35 0 -698670 4948.62 0 -696395 4943.07 0 -694123 4937.69 0 -691853 4932.49 0 -689585 4927.46 0 -687320 4922.59 0 -685056 4917.88 0 -682795 4913.33 0 -680536 4908.93 0 -678279 4904.69 0 -676024 4900.59 0 -673771 4896.64 0 -671520 4892.83 0 -669270 4889.15 0 -667022 4885.61 0 -664775 4882.2 0 -662530 4878.91 0 -660287 4875.74 0 -658045 4872.69 0 -655804 4869.76 0 -653565 4866.94 0 -651327 4864.22 0 -649090 4861.61 0 -646854 4859.11 0 -644620 4856.7 0 -642386 4854.39 0 -640154 4852.17 0 -637922 4850.04 0 -635692 4847.99 0 -633462 4846.04 0 -631233 4844.16 0 -629006 4842.36 0 -626779 4840.64 0 -624552 4838.99 0 -622327 4837.41 0 -620102 4835.9 0 -617878 4834.46 0 -615654 4833.08 0 -613432 4831.77 0 -611209 4830.51 0 -608988 4829.32 0 -606766 4828.18 0 -604546 4827.09 0 -602325 4826.06 0 -600106 4825.07 0 -597886 4824.14 0 -595668 4823.25 0 -593449 4822.41 0 -591231 4821.62 0 -589013 4820.86 0 -586796 4820.15 0 -584579 4819.48 0 -582362 4818.84 0 -580146 4818.25 0 -577929 4817.68 0 -575713 4817.16 0 -573498 4816.66 0 -571282 4816.2 0 -569067 4815.77 0 -566852 4815.37 0 -564637 4815 0 -562422 4814.66 0 -560207 4814.35 0 -557993 4814.06 0 -555778 4813.79 0 -553564 4813.56 0 -551350 4813.34 0 -549136 4813.15 0 -546922 4812.98 0 -544708 4812.83 0 -542494 4812.7 0 -540280 4812.59 0 -538066 4812.5 0 -535853 4812.43 0 -533639 4812.37 0 -531425 4812.34 0 -529212 4812.32 0 -819803 6756.54 0 -817318 6747.67 0 -814836 6738.24 0 -812358 6728.3 0 -809883 6717.87 0 -807413 6706.99 0 -804946 6695.71 0 -802484 6684.06 0 -800026 6672.08 0 -797573 6659.8 0 -795124 6647.26 0 -792680 6634.49 0 -790241 6621.53 0 -787806 6608.41 0 -785377 6595.16 0 -782952 6581.82 0 -780532 6568.4 0 -778118 6554.94 0 -775708 6541.46 0 -773303 6527.99 0 -770903 6514.55 0 -768509 6501.17 0 -766119 6487.87 0 -763734 6474.66 0 -761354 6461.56 0 -758978 6448.59 0 -756608 6435.77 0 -754242 6423.11 0 -751880 6410.62 0 -749524 6398.31 0 -747172 6386.21 0 -744824 6374.3 0 -742481 6362.61 0 -740141 6351.14 0 -737806 6339.9 0 -735476 6328.89 0 -733149 6318.11 0 -730826 6307.58 0 -728507 6297.28 0 -726192 6287.24 0 -723880 6277.43 0 -721572 6267.88 0 -719267 6258.57 0 -716966 6249.51 0 -714668 6240.7 0 -712373 6232.12 0 -710081 6223.79 0 -707793 6215.7 0 -705507 6207.85 0 -703224 6200.23 0 -700944 6192.84 0 -698667 6185.68 0 -696392 6178.74 0 -694119 6172.02 0 -691850 6165.52 0 -689582 6159.23 0 -687317 6153.14 0 -685054 6147.26 0 -682793 6141.58 0 -680534 6136.08 0 -678277 6130.78 0 -676022 6125.66 0 -673769 6120.72 0 -671517 6115.96 0 -669268 6111.37 0 -667020 6106.94 0 -664773 6102.68 0 -662528 6098.57 0 -660285 6094.61 0 -658043 6090.8 0 -655802 6087.14 0 -653563 6083.61 0 -651325 6080.22 0 -649088 6076.96 0 -646853 6073.83 0 -644618 6070.82 0 -642385 6067.93 0 -640152 6065.16 0 -637921 6062.5 0 -635690 6059.95 0 -633461 6057.5 0 -631232 6055.15 0 -629005 6052.91 0 -626778 6050.76 0 -624551 6048.7 0 -622326 6046.72 0 -620101 6044.84 0 -617877 6043.04 0 -615654 6041.32 0 -613431 6039.68 0 -611208 6038.11 0 -608987 6036.61 0 -606766 6035.19 0 -604545 6033.83 0 -602325 6032.54 0 -600105 6031.31 0 -597886 6030.15 0 -595667 6029.04 0 -593449 6027.99 0 -591231 6027 0 -589013 6026.05 0 -586795 6025.16 0 -584578 6024.32 0 -582362 6023.53 0 -580145 6022.79 0 -577929 6022.09 0 -575713 6021.43 0 -573497 6020.81 0 -571282 6020.24 0 -569066 6019.7 0 -566851 6019.2 0 -564636 6018.74 0 -562422 6018.31 0 -560207 6017.92 0 -557992 6017.56 0 -555778 6017.23 0 -553564 6016.93 0 -551350 6016.66 0 -549136 6016.42 0 -546922 6016.21 0 -544708 6016.02 0 -542494 6015.86 0 -540280 6015.73 0 -538066 6015.61 0 -535853 6015.53 0 -533639 6015.46 0 -531425 6015.41 0 -529212 6015.39 0 -819798 8108.24 0 -817312 8097.57 0 -814830 8086.23 0 -812352 8074.27 0 -809877 8061.73 0 -807406 8048.65 0 -804939 8035.09 0 -802477 8021.09 0 -800019 8006.68 0 -797565 7991.93 0 -795116 7976.86 0 -792672 7961.52 0 -790233 7945.94 0 -787798 7930.18 0 -785369 7914.26 0 -782944 7898.22 0 -780524 7882.1 0 -778110 7865.93 0 -775700 7849.75 0 -773295 7833.57 0 -770895 7817.43 0 -768501 7801.36 0 -766111 7785.38 0 -763726 7769.51 0 -761346 7753.79 0 -758970 7738.21 0 -756600 7722.82 0 -754234 7707.62 0 -751873 7692.62 0 -749516 7677.85 0 -747164 7663.31 0 -744817 7649.02 0 -742474 7634.99 0 -740135 7621.22 0 -737800 7607.73 0 -735469 7594.51 0 -733142 7581.58 0 -730820 7568.93 0 -728501 7556.58 0 -726186 7544.52 0 -723874 7532.76 0 -721566 7521.3 0 -719262 7510.13 0 -716960 7499.25 0 -714663 7488.68 0 -712368 7478.39 0 -710077 7468.4 0 -707788 7458.69 0 -705502 7449.27 0 -703220 7440.13 0 -700940 7431.26 0 -698662 7422.67 0 -696388 7414.35 0 -694116 7406.29 0 -691846 7398.49 0 -689578 7390.94 0 -687313 7383.64 0 -685050 7376.58 0 -682789 7369.76 0 -680531 7363.18 0 -678274 7356.82 0 -676019 7350.68 0 -673766 7344.76 0 -671514 7339.04 0 -669265 7333.53 0 -667017 7328.22 0 -664771 7323.11 0 -662526 7318.18 0 -660283 7313.44 0 -658041 7308.87 0 -655800 7304.47 0 -653561 7300.24 0 -651323 7296.18 0 -649086 7292.27 0 -646851 7288.52 0 -644616 7284.91 0 -642383 7281.44 0 -640151 7278.12 0 -637919 7274.93 0 -635689 7271.87 0 -633460 7268.93 0 -631231 7266.12 0 -629003 7263.43 0 -626776 7260.85 0 -624550 7258.38 0 -622325 7256.01 0 -620100 7253.75 0 -617876 7251.59 0 -615653 7249.53 0 -613430 7247.56 0 -611208 7245.68 0 -608986 7243.89 0 -606765 7242.18 0 -604544 7240.56 0 -602324 7239.01 0 -600104 7237.54 0 -597885 7236.14 0 -595666 7234.81 0 -593448 7233.55 0 -591230 7232.36 0 -589012 7231.23 0 -586795 7230.17 0 -584578 7229.16 0 -582361 7228.21 0 -580145 7227.31 0 -577929 7226.47 0 -575713 7225.69 0 -573497 7224.95 0 -571281 7224.26 0 -569066 7223.62 0 -566851 7223.02 0 -564636 7222.46 0 -562421 7221.95 0 -560207 7221.48 0 -557992 7221.05 0 -555778 7220.66 0 -553564 7220.3 0 -551349 7219.98 0 -549135 7219.69 0 -546921 7219.43 0 -544708 7219.21 0 -542494 7219.02 0 -540280 7218.86 0 -538066 7218.72 0 -535853 7218.62 0 -533639 7218.54 0 -531425 7218.48 0 -529212 7218.45 0 -819792 9460.14 0 -817306 9447.67 0 -814823 9434.4 0 -812344 9420.41 0 -809869 9405.75 0 -807398 9390.46 0 -804931 9374.6 0 -802468 9358.23 0 -800010 9341.4 0 -797557 9324.15 0 -795108 9306.54 0 -792663 9288.61 0 -790224 9270.41 0 -787789 9251.99 0 -785359 9233.39 0 -782935 9214.66 0 -780515 9195.83 0 -778100 9176.94 0 -775690 9158.03 0 -773286 9139.13 0 -770886 9120.29 0 -768491 9101.52 0 -766101 9082.86 0 -763716 9064.33 0 -761336 9045.97 0 -758961 9027.79 0 -756591 9009.81 0 -754225 8992.06 0 -751864 8974.56 0 -749508 8957.32 0 -747156 8940.35 0 -744808 8923.67 0 -742465 8907.29 0 -740127 8891.22 0 -737792 8875.47 0 -735461 8860.05 0 -733135 8844.96 0 -730812 8830.2 0 -728494 8815.79 0 -726179 8801.72 0 -723867 8788 0 -721559 8774.62 0 -719255 8761.59 0 -716954 8748.91 0 -714657 8736.57 0 -712362 8724.57 0 -710071 8712.91 0 -707782 8701.59 0 -705497 8690.6 0 -703214 8679.94 0 -700935 8669.6 0 -698657 8659.58 0 -696383 8649.87 0 -694111 8640.47 0 -691841 8631.38 0 -689574 8622.58 0 -687309 8614.06 0 -685046 8605.84 0 -682785 8597.89 0 -680527 8590.21 0 -678270 8582.79 0 -676015 8575.63 0 -673762 8568.73 0 -671511 8562.06 0 -669262 8555.64 0 -667014 8549.45 0 -664768 8543.49 0 -662523 8537.74 0 -660280 8532.21 0 -658038 8526.88 0 -655798 8521.76 0 -653559 8516.83 0 -651321 8512.09 0 -649084 8507.54 0 -646849 8503.16 0 -644614 8498.95 0 -642381 8494.91 0 -640149 8491.04 0 -637918 8487.32 0 -635687 8483.75 0 -633458 8480.33 0 -631229 8477.05 0 -629002 8473.91 0 -626775 8470.9 0 -624549 8468.03 0 -622323 8465.27 0 -620099 8462.64 0 -617875 8460.12 0 -615651 8457.72 0 -613429 8455.42 0 -611206 8453.23 0 -608985 8451.14 0 -606764 8449.15 0 -604543 8447.26 0 -602323 8445.45 0 -600104 8443.74 0 -597884 8442.11 0 -595666 8440.56 0 -593447 8439.1 0 -591229 8437.71 0 -589012 8436.39 0 -586794 8435.15 0 -584577 8433.97 0 -582361 8432.87 0 -580144 8431.83 0 -577928 8430.85 0 -575712 8429.93 0 -573496 8429.07 0 -571281 8428.27 0 -569066 8427.52 0 -566851 8426.82 0 -564636 8426.18 0 -562421 8425.58 0 -560206 8425.03 0 -557992 8424.53 0 -555778 8424.07 0 -553563 8423.66 0 -551349 8423.28 0 -549135 8422.95 0 -546921 8422.65 0 -544707 8422.39 0 -542494 8422.17 0 -540280 8421.98 0 -538066 8421.82 0 -535853 8421.7 0 -533639 8421.61 0 -531425 8421.54 0 -529212 8421.51 0 -819785 10812.3 0 -817298 10798 0 -814815 10782.8 0 -812336 10766.8 0 -809860 10750 0 -807389 10732.4 0 -804922 10714.3 0 -802459 10695.5 0 -800000 10676.2 0 -797546 10656.5 0 -795097 10636.3 0 -792653 10615.8 0 -790213 10594.9 0 -787778 10573.9 0 -785348 10552.6 0 -782924 10531.1 0 -780504 10509.6 0 -778089 10487.9 0 -775679 10466.3 0 -773275 10444.7 0 -770875 10423.1 0 -768480 10401.6 0 -766091 10380.3 0 -763706 10359.1 0 -761326 10338.1 0 -758951 10317.3 0 -756581 10296.7 0 -754215 10276.4 0 -751854 10256.4 0 -749498 10236.7 0 -747146 10217.3 0 -744799 10198.2 0 -742456 10179.5 0 -740117 10161.1 0 -737783 10143.1 0 -735453 10125.5 0 -733126 10108.2 0 -730804 10091.4 0 -728485 10074.9 0 -726170 10058.8 0 -723859 10043.1 0 -721552 10027.8 0 -719248 10013 0 -716947 9998.46 0 -714649 9984.36 0 -712355 9970.65 0 -710064 9957.33 0 -707776 9944.4 0 -705491 9931.84 0 -703208 9919.66 0 -700929 9907.85 0 -698652 9896.4 0 -696377 9885.31 0 -694105 9874.57 0 -691836 9864.18 0 -689569 9854.13 0 -687304 9844.41 0 -685041 9835.01 0 -682781 9825.93 0 -680522 9817.15 0 -678266 9808.68 0 -676011 9800.51 0 -673758 9792.62 0 -671507 9785.01 0 -669258 9777.68 0 -667010 9770.61 0 -664764 9763.8 0 -662520 9757.24 0 -660277 9750.92 0 -658035 9744.84 0 -655795 9738.99 0 -653556 9733.36 0 -651318 9727.95 0 -649081 9722.75 0 -646846 9717.75 0 -644612 9712.95 0 -642379 9708.34 0 -640147 9703.91 0 -637915 9699.66 0 -635685 9695.59 0 -633456 9691.69 0 -631227 9687.94 0 -629000 9684.36 0 -626773 9680.93 0 -624547 9677.64 0 -622322 9674.5 0 -620097 9671.49 0 -617873 9668.62 0 -615650 9665.87 0 -613427 9663.25 0 -611205 9660.75 0 -608984 9658.37 0 -606763 9656.09 0 -604542 9653.93 0 -602322 9651.87 0 -600103 9649.91 0 -597884 9648.05 0 -595665 9646.29 0 -593446 9644.62 0 -591229 9643.03 0 -589011 9641.53 0 -586794 9640.11 0 -584577 9638.77 0 -582360 9637.51 0 -580144 9636.32 0 -577928 9635.2 0 -575712 9634.16 0 -573496 9633.18 0 -571281 9632.26 0 -569065 9631.41 0 -566850 9630.61 0 -564635 9629.88 0 -562421 9629.2 0 -560206 9628.57 0 -557992 9628 0 -555777 9627.47 0 -553563 9627 0 -551349 9626.57 0 -549135 9626.19 0 -546921 9625.85 0 -544707 9625.56 0 -542494 9625.3 0 -540280 9625.09 0 -538066 9624.91 0 -535852 9624.77 0 -533639 9624.67 0 -531425 9624.6 0 -529212 9624.56 0 -819777 12164.7 0 -817290 12148.6 0 -814806 12131.4 0 -812326 12113.3 0 -809851 12094.4 0 -807379 12074.6 0 -804911 12054.1 0 -802448 12033 0 -799989 12011.2 0 -797535 11988.9 0 -795085 11966.2 0 -792641 11943 0 -790201 11919.6 0 -787766 11895.8 0 -785336 11871.8 0 -782911 11847.6 0 -780491 11823.3 0 -778077 11799 0 -775667 11774.6 0 -773262 11750.2 0 -770862 11725.9 0 -768468 11701.7 0 -766078 11677.7 0 -763694 11653.8 0 -761314 11630.2 0 -758939 11606.7 0 -756569 11583.6 0 -754203 11560.7 0 -751843 11538.2 0 -749487 11516 0 -747135 11494.2 0 -744788 11472.7 0 -742445 11451.6 0 -740107 11430.9 0 -737773 11410.7 0 -735442 11390.8 0 -733116 11371.4 0 -730794 11352.4 0 -728476 11333.9 0 -726161 11315.8 0 -723850 11298.2 0 -721543 11281 0 -719239 11264.2 0 -716939 11247.9 0 -714641 11232 0 -712347 11216.6 0 -710056 11201.6 0 -707769 11187.1 0 -705484 11173 0 -703201 11159.3 0 -700922 11146 0 -698645 11133.1 0 -696371 11120.6 0 -694099 11108.6 0 -691830 11096.9 0 -689563 11085.6 0 -687299 11074.7 0 -685036 11064.1 0 -682776 11053.9 0 -680517 11044 0 -678261 11034.5 0 -676007 11025.3 0 -673754 11016.4 0 -671503 11007.9 0 -669254 10999.6 0 -667006 10991.7 0 -664760 10984 0 -662516 10976.7 0 -660273 10969.6 0 -658032 10962.7 0 -655791 10956.2 0 -653553 10949.8 0 -651315 10943.7 0 -649079 10937.9 0 -646843 10932.3 0 -644609 10926.9 0 -642376 10921.7 0 -640144 10916.7 0 -637913 10912 0 -635683 10907.4 0 -633454 10903 0 -631225 10898.8 0 -628998 10894.8 0 -626771 10890.9 0 -624545 10887.2 0 -622320 10883.7 0 -620095 10880.3 0 -617872 10877.1 0 -615648 10874 0 -613426 10871 0 -611204 10868.2 0 -608982 10865.6 0 -606761 10863 0 -604541 10860.6 0 -602321 10858.3 0 -600102 10856.1 0 -597882 10854 0 -595664 10852 0 -593446 10850.1 0 -591228 10848.3 0 -589010 10846.6 0 -586793 10845 0 -584576 10843.5 0 -582359 10842.1 0 -580143 10840.8 0 -577927 10839.5 0 -575711 10838.4 0 -573495 10837.3 0 -571280 10836.2 0 -569065 10835.3 0 -566850 10834.4 0 -564635 10833.6 0 -562420 10832.8 0 -560206 10832.1 0 -557991 10831.4 0 -555777 10830.9 0 -553563 10830.3 0 -551349 10829.9 0 -549135 10829.4 0 -546921 10829 0 -544707 10828.7 0 -542493 10828.4 0 -540280 10828.2 0 -538066 10828 0 -535852 10827.8 0 -533639 10827.7 0 -531425 10827.6 0 -529212 10827.6 0 -819768 13517.5 0 -817280 13499.5 0 -814796 13480.3 0 -812316 13460.2 0 -809839 13439 0 -807367 13417 0 -804899 13394.1 0 -802435 13370.6 0 -799976 13346.3 0 -797522 13321.5 0 -795072 13296.2 0 -792627 13270.4 0 -790187 13244.2 0 -787752 13217.8 0 -785322 13191.1 0 -782897 13164.1 0 -780477 13137.1 0 -778063 13110 0 -775653 13082.8 0 -773248 13055.7 0 -770849 13028.7 0 -768454 13001.8 0 -766064 12975 0 -763680 12948.5 0 -761300 12922.1 0 -758925 12896.1 0 -756556 12870.4 0 -754190 12844.9 0 -751830 12819.9 0 -749474 12795.2 0 -747123 12770.9 0 -744776 12747 0 -742433 12723.6 0 -740095 12700.6 0 -737761 12678.1 0 -735431 12656 0 -733105 12634.4 0 -730783 12613.4 0 -728465 12592.8 0 -726151 12572.6 0 -723840 12553 0 -721533 12533.9 0 -719230 12515.3 0 -716929 12497.2 0 -714632 12479.6 0 -712339 12462.5 0 -710048 12445.8 0 -707760 12429.7 0 -705476 12414 0 -703194 12398.8 0 -700914 12384 0 -698638 12369.7 0 -696364 12355.9 0 -694093 12342.5 0 -691824 12329.5 0 -689557 12316.9 0 -687292 12304.8 0 -685030 12293.1 0 -682770 12281.7 0 -680512 12270.8 0 -678256 12260.2 0 -676001 12250 0 -673749 12240.2 0 -671498 12230.7 0 -669249 12221.5 0 -667002 12212.7 0 -664756 12204.2 0 -662512 12196 0 -660269 12188.1 0 -658028 12180.5 0 -655788 12173.2 0 -653549 12166.2 0 -651311 12159.5 0 -649075 12153 0 -646840 12146.7 0 -644606 12140.8 0 -642373 12135 0 -640141 12129.5 0 -637910 12124.2 0 -635680 12119.1 0 -633451 12114.2 0 -631223 12109.6 0 -628996 12105.1 0 -626769 12100.8 0 -624543 12096.7 0 -622318 12092.8 0 -620094 12089.1 0 -617870 12085.5 0 -615647 12082.1 0 -613424 12078.8 0 -611202 12075.7 0 -608981 12072.7 0 -606760 12069.9 0 -604540 12067.2 0 -602320 12064.6 0 -600100 12062.2 0 -597881 12059.9 0 -595663 12057.7 0 -593444 12055.6 0 -591227 12053.6 0 -589009 12051.7 0 -586792 12050 0 -584575 12048.3 0 -582359 12046.7 0 -580142 12045.2 0 -577926 12043.9 0 -575710 12042.5 0 -573495 12041.3 0 -571279 12040.2 0 -569064 12039.1 0 -566849 12038.1 0 -564635 12037.2 0 -562420 12036.4 0 -560205 12035.6 0 -557991 12034.9 0 -555777 12034.2 0 -553563 12033.6 0 -551349 12033.1 0 -549135 12032.6 0 -546921 12032.2 0 -544707 12031.9 0 -542493 12031.5 0 -540280 12031.3 0 -538066 12031.1 0 -535852 12030.9 0 -533639 12030.8 0 -531425 12030.7 0 -529212 12030.6 0 -819758 14870.6 0 -817270 14850.7 0 -814785 14829.6 0 -812304 14807.3 0 -809827 14783.9 0 -807354 14759.6 0 -804886 14734.4 0 -802422 14708.4 0 -799962 14681.6 0 -797508 14654.3 0 -795058 14626.3 0 -792612 14597.9 0 -790172 14569 0 -787737 14539.8 0 -785307 14510.4 0 -782882 14480.7 0 -780462 14450.9 0 -778047 14421 0 -775637 14391.1 0 -773233 14361.2 0 -770833 14331.4 0 -768439 14301.8 0 -766049 14272.3 0 -763665 14243.1 0 -761285 14214.1 0 -758911 14185.4 0 -756541 14157 0 -754176 14129 0 -751816 14101.4 0 -749460 14074.2 0 -747109 14047.5 0 -744762 14021.2 0 -742420 13995.4 0 -740082 13970.1 0 -737748 13945.4 0 -735419 13921.1 0 -733093 13897.3 0 -730771 13874.1 0 -728454 13851.5 0 -726140 13829.4 0 -723829 13807.8 0 -721523 13786.8 0 -719219 13766.3 0 -716919 13746.4 0 -714623 13727 0 -712329 13708.2 0 -710039 13689.8 0 -707751 13672.1 0 -705467 13654.8 0 -703185 13638.1 0 -700906 13621.9 0 -698630 13606.2 0 -696356 13590.9 0 -694085 13576.2 0 -691816 13561.9 0 -689550 13548.1 0 -687286 13534.8 0 -685024 13521.9 0 -682764 13509.5 0 -680506 13497.4 0 -678250 13485.8 0 -675996 13474.6 0 -673743 13463.8 0 -671493 13453.3 0 -669244 13443.3 0 -666997 13433.6 0 -664751 13424.3 0 -662507 13415.3 0 -660265 13406.6 0 -658023 13398.3 0 -655784 13390.2 0 -653545 13382.5 0 -651308 13375.1 0 -649072 13368 0 -646837 13361.1 0 -644603 13354.6 0 -642370 13348.2 0 -640138 13342.2 0 -637907 13336.4 0 -635677 13330.8 0 -633448 13325.4 0 -631220 13320.3 0 -628993 13315.4 0 -626767 13310.7 0 -624541 13306.2 0 -622316 13301.9 0 -620092 13297.8 0 -617868 13293.9 0 -615645 13290.1 0 -613422 13286.5 0 -611201 13283.1 0 -608979 13279.8 0 -606758 13276.7 0 -604538 13273.8 0 -602318 13270.9 0 -600099 13268.3 0 -597880 13265.7 0 -595661 13263.3 0 -593443 13261 0 -591226 13258.8 0 -589008 13256.8 0 -586791 13254.8 0 -584574 13253 0 -582358 13251.3 0 -580141 13249.7 0 -577925 13248.1 0 -575710 13246.7 0 -573494 13245.4 0 -571279 13244.1 0 -569064 13243 0 -566849 13241.9 0 -564634 13240.9 0 -562419 13239.9 0 -560205 13239.1 0 -557991 13238.3 0 -555776 13237.6 0 -553562 13236.9 0 -551348 13236.4 0 -549134 13235.8 0 -546921 13235.4 0 -544707 13235 0 -542493 13234.6 0 -540279 13234.3 0 -538066 13234.1 0 -535852 13233.9 0 -533639 13233.8 0 -531425 13233.7 0 -529212 13233.6 0 -819747 16224.1 0 -817258 16202.3 0 -814773 16179.1 0 -812291 16154.7 0 -809813 16129.1 0 -807340 16102.5 0 -804871 16074.9 0 -802407 16046.4 0 -799947 16017.1 0 -797492 15987.2 0 -795042 15956.6 0 -792596 15925.5 0 -790156 15893.9 0 -787720 15862 0 -785290 15829.8 0 -782865 15797.3 0 -780445 15764.7 0 -778030 15732.1 0 -775620 15699.4 0 -773216 15666.7 0 -770816 15634.1 0 -768422 15601.7 0 -766033 15569.5 0 -763648 15537.6 0 -761269 15505.9 0 -758894 15474.5 0 -756525 15443.6 0 -754160 15413 0 -751800 15382.9 0 -749445 15353.2 0 -747094 15324 0 -744747 15295.3 0 -742405 15267.1 0 -740068 15239.5 0 -737734 15212.5 0 -735405 15186 0 -733080 15160.1 0 -730758 15134.8 0 -728441 15110 0 -726127 15085.9 0 -723817 15062.4 0 -721511 15039.4 0 -719208 15017.1 0 -716908 14995.4 0 -714612 14974.2 0 -712318 14953.7 0 -710028 14933.7 0 -707741 14914.3 0 -705457 14895.5 0 -703176 14877.3 0 -700897 14859.6 0 -698621 14842.5 0 -696348 14825.9 0 -694077 14809.8 0 -691808 14794.3 0 -689542 14779.2 0 -687278 14764.7 0 -685016 14750.6 0 -682757 14737.1 0 -680499 14723.9 0 -678243 14711.3 0 -675989 14699.1 0 -673737 14687.3 0 -671487 14675.9 0 -669239 14665 0 -666992 14654.4 0 -664746 14644.2 0 -662502 14634.4 0 -660260 14625 0 -658019 14615.9 0 -655779 14607.2 0 -653541 14598.8 0 -651304 14590.7 0 -649068 14582.9 0 -646833 14575.5 0 -644599 14568.3 0 -642366 14561.4 0 -640135 14554.8 0 -637904 14548.5 0 -635674 14542.4 0 -633446 14536.6 0 -631218 14531 0 -628990 14525.6 0 -626764 14520.5 0 -624538 14515.6 0 -622313 14510.9 0 -620089 14506.4 0 -617866 14502.2 0 -615643 14498.1 0 -613420 14494.2 0 -611199 14490.4 0 -608977 14486.9 0 -606757 14483.5 0 -604536 14480.3 0 -602317 14477.2 0 -600097 14474.3 0 -597879 14471.5 0 -595660 14468.9 0 -593442 14466.4 0 -591224 14464 0 -589007 14461.8 0 -586790 14459.7 0 -584573 14457.7 0 -582357 14455.8 0 -580141 14454.1 0 -577925 14452.4 0 -575709 14450.8 0 -573493 14449.4 0 -571278 14448 0 -569063 14446.8 0 -566848 14445.6 0 -564634 14444.5 0 -562419 14443.5 0 -560205 14442.5 0 -557990 14441.7 0 -555776 14440.9 0 -553562 14440.2 0 -551348 14439.6 0 -549134 14439 0 -546920 14438.5 0 -544707 14438.1 0 -542493 14437.7 0 -540279 14437.4 0 -538066 14437.2 0 -535852 14436.9 0 -533639 14436.8 0 -531425 14436.7 0 -529212 14436.7 0 -819735 17578 0 -817245 17554.3 0 -814759 17529 0 -812277 17502.5 0 -809799 17474.6 0 -807325 17445.7 0 -804855 17415.6 0 -802390 17384.7 0 -799930 17352.8 0 -797475 17320.3 0 -795024 17287 0 -792578 17253.2 0 -790138 17218.9 0 -787702 17184.2 0 -785272 17149.2 0 -782847 17114 0 -780426 17078.6 0 -778012 17043.1 0 -775602 17007.6 0 -773197 16972.1 0 -770798 16936.8 0 -768404 16901.6 0 -766014 16866.7 0 -763630 16832 0 -761251 16797.6 0 -758877 16763.6 0 -756507 16730 0 -754143 16696.9 0 -751783 16664.2 0 -749428 16632 0 -747077 16600.3 0 -744731 16569.2 0 -742390 16538.7 0 -740052 16508.8 0 -737719 16479.4 0 -735390 16450.7 0 -733065 16422.6 0 -730744 16395.2 0 -728427 16368.4 0 -726114 16342.3 0 -723804 16316.8 0 -721498 16291.9 0 -719195 16267.7 0 -716896 16244.2 0 -714600 16221.3 0 -712307 