<?xml version="1.0"?> 
<VTKFile type="StructuredGrid" version="0.1"> 
<StructuredGrid WholeExtent="0 127 0 127 0 0"> 
<Piece Extent="0 127 0 127 0 0"> 
<PointData>
<DataArray type="Float32" Name="E" format="ascii" NumberOfComponents="3"> 
2.24944e+06 -229534 0 2.2657e+06 -231194 0 2.28038e+06 -232692 0 2.29366e+06 -234047 0 2.30568e+06 -235274 0 2.3166e+06 -236388 0 2.32652e+06 -237400 0 2.33557e+06 -238323 0 2.34382e+06 -239166 0 2.35137e+06 -239936 0 2.35829e+06 -240642 0 2.36463e+06 -241289 0 2.37046e+06 -241884 0 2.37583e+06 -242431 0 2.38077e+06 -242936 0 2.38533e+06 -243401 0 2.38954e+06 -243831 0 2.39343e+06 -244228 0 2.39703e+06 -244595 0 2.40036e+06 -244935 0 2.40344e+06 -245249 0 2.4063e+06 -245540 0 2.40894e+06 -245810 0 2.41138e+06 -246059 0 2.41364e+06 -246289 0 2.41572e+06 -246502 0 2.41764e+06 -246698 0 2.41941e+06 -246879 0 2.42104e+06 -247045 0 2.42253e+06 -247197 0 2.42388e+06 -247335 0 2.42512e+06 -247461 0 2.42624e+06 -247575 0 2.42724e+06 -247678 0 2.42814e+06 -247769 0 2.42893e+06 -247850 0 2.42962e+06 -247920 0 2.43021e+06 -247980 0 2.43071e+06 -248031 0 2.43111e+06 -248073 0 2.43143e+06 -248105 0 2.43166e+06 -248128 0 2.4318e+06 -248143 0 2.43186e+06 -248149 0 2.43183e+06 -248146 0 2.43173e+06 -248136 0 2.43154e+06 -248117 0 2.43128e+06 -248090 0 2.43094e+06 -248055 0 2.43052e+06 -248012 0 2.43002e+06 -247962 0 2.42945e+06 -247903 0 2.4288e+06 -247837 0 2.42808e+06 -247763 0 2.42728e+06 -247681 0 2.4264e+06 -247592 0 2.42545e+06 -247495 0 2.42442e+06 -247390 0 2.42331e+06 -247277 0 2.42213e+06 -247156 0 2.42087e+06 -247028 0 2.41953e+06 -246891 0 2.41811e+06 -246746 0 2.41662e+06 -246593 0 2.41504e+06 -246432 0 2.41337e+06 -246263 0 2.41163e+06 -246085 0 2.4098e+06 -245898 0 2.40788e+06 -245702 0 2.40588e+06 -245498 0 2.40378e+06 -245284 0 2.4016e+06 -245061 0 2.39932e+06 -244828 0 2.39694e+06 -244586 0 2.39447e+06 -244333 0 2.39189e+06 -244070 0 2.38921e+06 -243797 0 2.38642e+06 -243513 0 2.38353e+06 -243217 0 2.38052e+06 -242910 0 2.37739e+06 -242590 0 2.37414e+06 -242259 0 2.37076e+06 -241914 0 2.36725e+06 -241556 0 2.36361e+06 -241184 0 2.35982e+06 -240798 0 2.35589e+06 -240397 0 2.3518e+06 -239980 0 2.34755e+06 -239546 0 2.34313e+06 -239095 0 2.33854e+06 -238626 0 2.33376e+06 -238138 0 2.32878e+06 -237630 0 2.32359e+06 -237101 0 2.31818e+06 -236549 0 2.31254e+06 -235973 0 2.30665e+06 -235372 0 2.30049e+06 -234744 0 2.29405e+06 -234087 0 2.28731e+06 -233399 0 2.28024e+06 -232678 0 2.27282e+06 -231921 0 2.26503e+06 -231125 0 2.25682e+06 -230288 0 2.24817e+06 -229405 0 2.23904e+06 -228474 0 2.22938e+06 -227488 0 2.21914e+06 -226443 0 2.20827e+06 -225334 0 2.1967e+06 -224153 0 2.18436e+06 -222894 0 2.17117e+06 -221548 0 2.15704e+06 -220106 0 2.14185e+06 -218557 0 2.1255e+06 -216887 0 2.10783e+06 -215084 0 2.08869e+06 -213132 0 2.0679e+06 -211010 0 2.04526e+06 -208700 0 2.02052e+06 -206175 0 1.99341e+06 -203409 0 1.96362e+06 -200370 0 1.93079e+06 -197020 0 1.89451e+06 -193317 0 1.8543e+06 -189214 0 1.8096e+06 -184654 0 1.7598e+06 -179572 0 1.70417e+06 -173895 0 2.43976e+06 -134236 0 2.43626e+06 -141685 0 2.43354e+06 -148585 0 2.43147e+06 -154990 0 2.42995e+06 -160944 0 2.4289e+06 -166486 0 2.42823e+06 -171653 0 2.42788e+06 -176479 0 2.4278e+06 -180992 0 2.42794e+06 -185220 0 2.42825e+06 -189187 0 2.4287e+06 -192914 0 2.42926e+06 -196421 0 2.42991e+06 -199727 0 2.43062e+06 -202848 0 2.43137e+06 -205797 0 2.43215e+06 -208590 0 2.43295e+06 -211237 0 2.43374e+06 -213751 0 2.43453e+06 -216142 0 2.4353e+06 -218418 0 2.43605e+06 -220589 0 2.43677e+06 -222662 0 2.43745e+06 -224644 0 2.4381e+06 -226542 0 2.4387e+06 -228363 0 2.43926e+06 -230111 0 2.43977e+06 -231792 0 2.44023e+06 -233410 0 2.44064e+06 -234970 0 2.441e+06 -236477 0 2.4413e+06 -237933 0 2.44155e+06 -239343 0 2.44174e+06 -240710 0 2.44188e+06 -242036 0 2.44195e+06 -243326 0 2.44198e+06 -244580 0 2.44194e+06 -245803 0 2.44184e+06 -246996 0 2.44169e+06 -248161 0 2.44147e+06 -249302 0 2.4412e+06 -250419 0 2.44087e+06 -251515 0 2.44048e+06 -252591 0 2.44002e+06 -253650 0 2.43951e+06 -254692 0 2.43894e+06 -255720 0 2.4383e+06 -256736 0 2.43761e+06 -257740 0 2.43685e+06 -258734 0 2.43603e+06 -259720 0 2.43515e+06 -260698 0 2.4342e+06 -261671 0 2.43319e+06 -262640 0 2.43212e+06 -263606 0 2.43098e+06 -264570 0 2.42978e+06 -265534 0 2.42851e+06 -266499 0 2.42717e+06 -267467 0 2.42577e+06 -268438 0 2.4243e+06 -269414 0 2.42275e+06 -270396 0 2.42114e+06 -271387 0 2.41946e+06 -272386 0 2.4177e+06 -273397 0 2.41587e+06 -274419 0 2.41397e+06 -275455 0 2.41199e+06 -276507 0 2.40993e+06 -277576 0 2.4078e+06 -278663 0 2.40558e+06 -279771 0 2.40328e+06 -280902 0 2.4009e+06 -282057 0 2.39843e+06 -283238 0 2.39588e+06 -284448 0 2.39324e+06 -285689 0 2.39051e+06 -286964 0 2.38768e+06 -288274 0 2.38476e+06 -289623 0 2.38174e+06 -291014 0 2.37863e+06 -292450 0 2.37541e+06 -293933 0 2.37209e+06 -295468 0 2.36866e+06 -297059 0 2.36512e+06 -298708 0 2.36147e+06 -300421 0 2.35771e+06 -302203 0 2.35383e+06 -304058 0 2.34983e+06 -305991 0 2.34571e+06 -308009 0 2.34146e+06 -310117 0 2.33709e+06 -312323 0 2.33258e+06 -314634 0 2.32795e+06 -317057 0 2.32317e+06 -319601 0 2.31826e+06 -322276 0 2.31321e+06 -325091 0 2.30802e+06 -328058 0 2.30269e+06 -331189 0 2.29722e+06 -334496 0 2.29161e+06 -337994 0 2.28586e+06 -341698 0 2.27997e+06 -345625 0 2.27396e+06 -349794 0 2.26782e+06 -354226 0 2.26156e+06 -358942 0 2.2552e+06 -363967 0 2.24874e+06 -369327 0 2.24221e+06 -375052 0 2.23564e+06 -381175 0 2.22904e+06 -387731 0 2.22245e+06 -394758 0 2.21591e+06 -402301 0 2.20948e+06 -410407 0 2.20322e+06 -419127 0 2.19719e+06 -428521 0 2.1915e+06 -438651 0 2.18624e+06 -449589 0 2.18153e+06 -461412 0 2.17754e+06 -474206 0 2.17444e+06 -488068 0 2.17245e+06 -503103 0 2.1718e+06 -519428 0 2.1728e+06 -537173 0 2.1758e+06 -556482 0 2.1812e+06 -577516 0 2.18949e+06 -600450 0 2.20125e+06 -625485 0 2.48258e+06 -171762 0 2.48269e+06 -173629 0 2.48262e+06 -175662 0 2.4824e+06 -177830 0 2.48208e+06 -180105 0 2.48167e+06 -182464 0 2.48122e+06 -184885 0 2.48073e+06 -187353 0 2.48021e+06 -189853 0 2.47969e+06 -192371 0 2.47917e+06 -194899 0 2.47865e+06 -197426 0 2.47814e+06 -199945 0 2.47764e+06 -202451 0 2.47715e+06 -204938 0 2.47668e+06 -207403 0 2.47622e+06 -209842 0 2.47578e+06 -212253 0 2.47534e+06 -214634 0 2.47492e+06 -216983 0 2.47451e+06 -219300 0 2.4741e+06 -221584 0 2.47369e+06 -223835 0 2.47329e+06 -226053 0 2.47289e+06 -228239 0 2.47248e+06 -230392 0 2.47207e+06 -232515 0 2.47165e+06 -234607 0 2.47122e+06 -236669 0 2.47078e+06 -238703 0 2.47033e+06 -240710 0 2.46986e+06 -242691 0 2.46937e+06 -244648 0 2.46887e+06 -246581 0 2.46834e+06 -248492 0 2.46779e+06 -250383 0 2.46722e+06 -252255 0 2.46663e+06 -254109 0 2.466e+06 -255947 0 2.46535e+06 -257771 0 2.46467e+06 -259581 0 2.46396e+06 -261380 0 2.46322e+06 -263169 0 2.46245e+06 -264949 0 2.46164e+06 -266722 0 2.4608e+06 -268489 0 2.45993e+06 -270253 0 2.45902e+06 -272014 0 2.45807e+06 -273774 0 2.45708e+06 -275535 0 2.45606e+06 -277298 0 2.455e+06 -279065 0 2.4539e+06 -280838 0 2.45276e+06 -282617 0 2.45157e+06 -284406 0 2.45035e+06 -286205 0 2.44909e+06 -288016 0 2.44778e+06 -289841 0 2.44643e+06 -291681 0 2.44503e+06 -293540 0 2.44359e+06 -295417 0 2.44211e+06 -297316 0 2.44058e+06 -299237 0 2.43901e+06 -301184 0 2.43739e+06 -303158 0 2.43573e+06 -305161 0 2.43402e+06 -307196 0 2.43226e+06 -309264 0 2.43046e+06 -311367 0 2.42861e+06 -313509 0 2.42672e+06 -315691 0 2.42477e+06 -317917 0 2.42278e+06 -320187 0 2.42075e+06 -322507 0 2.41867e+06 -324877 0 2.41654e+06 -327301 0 2.41437e+06 -329781 0 2.41215e+06 -332322 0 2.40989e+06 -334925 0 2.40758e+06 -337595 0 2.40524e+06 -340334 0 2.40285e+06 -343146 0 2.40042e+06 -346035 0 2.39795e+06 -349004 0 2.39545e+06 -352058 0 2.39291e+06 -355199 0 2.39034e+06 -358433 0 2.38774e+06 -361763 0 2.38511e+06 -365194 0 2.38246e+06 -368731 0 2.37979e+06 -372376 0 2.37711e+06 -376136 0 2.37441e+06 -380014 0 2.3717e+06 -384016 0 2.369e+06 -388146 0 2.3663e+06 -392409 0 2.36361e+06 -396809 0 2.36094e+06 -401351 0 2.3583e+06 -406039 0 2.35569e+06 -410877 0 2.35313e+06 -415870 0 2.35062e+06 -421021 0 2.34818e+06 -426332 0 2.34581e+06 -431807 0 2.34353e+06 -437447 0 2.34134e+06 -443253 0 2.33927e+06 -449224 0 2.33733e+06 -455360 0 2.33552e+06 -461657 0 2.33386e+06 -468110 0 2.33235e+06 -474712 0 2.33102e+06 -481455 0 2.32987e+06 -488324 0 2.32891e+06 -495305 0 2.32813e+06 -502377 0 2.32754e+06 -509515 0 2.32713e+06 -516689 0 2.32689e+06 -523862 0 2.32678e+06 -530990 0 2.32677e+06 -538020 0 2.32682e+06 -544890 0 2.32685e+06 -551525 0 2.32676e+06 -557840 0 2.32644e+06 -563731 0 2.32573e+06 -569081 0 2.32445e+06 -573749 0 2.32233e+06 -577575 0 2.31908e+06 -580368 0 2.53097e+06 -184185 0 2.52948e+06 -186823 0 2.52812e+06 -189391 0 2.52685e+06 -191902 0 2.52567e+06 -194367 0 2.52455e+06 -196794 0 2.52349e+06 -199191 0 2.52248e+06 -201563 0 2.5215e+06 -203914 0 2.52056e+06 -206249 0 2.51965e+06 -208569 0 2.51876e+06 -210877 0 2.51789e+06 -213175 0 2.51704e+06 -215464 0 2.5162e+06 -217744 0 2.51538e+06 -220016 0 2.51457e+06 -222282 0 2.51376e+06 -224541 0 2.51297e+06 -226793 0 2.51218e+06 -229038 0 2.5114e+06 -231277 0 2.51063e+06 -233510 0 2.50986e+06 -235737 0 2.50909e+06 -237957 0 2.50832e+06 -240172 0 2.50755e+06 -242381 0 2.50679e+06 -244584 0 2.50602e+06 -246782 0 2.50525e+06 -248975 0 2.50448e+06 -251163 0 2.5037e+06 -253347 0 2.50292e+06 -255527 0 2.50213e+06 -257704 0 2.50134e+06 -259878 0 2.50054e+06 -262050 0 2.49973e+06 -264220 0 2.49891e+06 -266389 0 2.49809e+06 -268558 0 2.49725e+06 -270728 0 2.4964e+06 -272899 0 2.49553e+06 -275073 0 2.49466e+06 -277250 0 2.49377e+06 -279431 0 2.49287e+06 -281617 0 2.49195e+06 -283810 0 2.49102e+06 -286009 0 2.49007e+06 -288218 0 2.48911e+06 -290435 0 2.48813e+06 -292663 0 2.48713e+06 -294903 0 2.48611e+06 -297156 0 2.48508e+06 -299423 0 2.48403e+06 -301705 0 2.48296e+06 -304005 0 2.48187e+06 -306322 0 2.48077e+06 -308659 0 2.47965e+06 -311017 0 2.4785e+06 -313397 0 2.47734e+06 -315801 0 2.47616e+06 -318230 0 2.47496e+06 -320685 0 2.47375e+06 -323169 0 2.47252e+06 -325683 0 2.47126e+06 -328228 0 2.47e+06 -330805 0 2.46871e+06 -333417 0 2.46741e+06 -336066 0 2.46609e+06 -338752 0 2.46476e+06 -341477 0 2.46342e+06 -344244 0 2.46206e+06 -347053 0 2.46069e+06 -349907 0 2.45931e+06 -352807 0 2.45792e+06 -355755 0 2.45652e+06 -358753 0 2.45511e+06 -361802 0 2.45369e+06 -364904 0 2.45228e+06 -368061 0 2.45086e+06 -371274 0 2.44943e+06 -374546 0 2.44801e+06 -377878 0 2.4466e+06 -381270 0 2.44518e+06 -384726 0 2.44378e+06 -388246 0 2.44239e+06 -391832 0 2.441e+06 -395485 0 2.43964e+06 -399207 0 2.43829e+06 -402998 0 2.43696e+06 -406860 0 2.43566e+06 -410793 0 2.43438e+06 -414798 0 2.43313e+06 -418876 0 2.43192e+06 -423027 0 2.43074e+06 -427252 0 2.42961e+06 -431549 0 2.42852e+06 -435920 0 2.42747e+06 -440364 0 2.42647e+06 -444879 0 2.42553e+06 -449465 0 2.42465e+06 -454120 0 2.42382e+06 -458843 0 2.42306e+06 -463632 0 2.42236e+06 -468484 0 2.42172e+06 -473397 0 2.42116e+06 -478369 0 2.42067e+06 -483396 0 2.42025e+06 -488475 0 2.4199e+06 -493602 0 2.41963e+06 -498775 0 2.41943e+06 -503989 0 2.41931e+06 -509243 0 2.41926e+06 -514532 0 2.41929e+06 -519856 0 2.41939e+06 -525213 0 2.41957e+06 -530602 0 2.41982e+06 -536026 0 2.42016e+06 -541489 0 2.42059e+06 -546997 0 2.42113e+06 -552561 0 2.42177e+06 -558195 0 2.42256e+06 -563919 0 2.42352e+06 -569761 0 2.42468e+06 -575755 0 2.42612e+06 -581946 0 2.42791e+06 -588392 0 2.43013e+06 -595163 0 2.43294e+06 -602348 0 2.43648e+06 -610059 0 2.56763e+06 -203892 0 2.56676e+06 -205756 0 2.56584e+06 -207670 0 2.5649e+06 -209628 0 2.56394e+06 -211620 0 2.56296e+06 -213644 0 2.56198e+06 -215693 0 2.56099e+06 -217764 0 2.56001e+06 -219854 0 2.55902e+06 -221961 0 2.55804e+06 -224083 0 2.55706e+06 -226217 0 2.5561e+06 -228363 0 2.55513e+06 -230519 0 2.55418e+06 -232684 0 2.55323e+06 -234858 0 2.55229e+06 -237040 0 2.55136e+06 -239230 0 2.55043e+06 -241426 0 2.54951e+06 -243629 0 2.5486e+06 -245839 0 2.5477e+06 -248056 0 2.5468e+06 -250278 0 2.54591e+06 -252507 0 2.54502e+06 -254742 0 2.54413e+06 -256984 0 2.54325e+06 -259232 0 2.54238e+06 -261486 0 2.54151e+06 -263747 0 2.54064e+06 -266015 0 2.53977e+06 -268290 0 2.53891e+06 -270572 0 2.53805e+06 -272862 0 2.53719e+06 -275160 0 2.53633e+06 -277467 0 2.53547e+06 -279782 0 2.53461e+06 -282107 0 2.53375e+06 -284441 0 2.53289e+06 -286785 0 2.53203e+06 -289140 0 2.53117e+06 -291506 0 2.53031e+06 -293884 0 2.52945e+06 -296275 0 2.52859e+06 -298679 0 2.52772e+06 -301096 0 2.52686e+06 -303528 0 2.52599e+06 -305974 0 2.52512e+06 -308437 0 2.52424e+06 -310916 0 2.52337e+06 -313413 0 2.52249e+06 -315927 0 2.52161e+06 -318461 0 2.52073e+06 -321014 0 2.51985e+06 -323588 0 2.51897e+06 -326184 0 2.51809e+06 -328801 0 2.5172e+06 -331442 0 2.51632e+06 -334107 0 2.51543e+06 -336797 0 2.51455e+06 -339513 0 2.51366e+06 -342255 0 2.51278e+06 -345025 0 2.5119e+06 -347824 0 2.51102e+06 -350652 0 2.51014e+06 -353510 0 2.50927e+06 -356400 0 2.5084e+06 -359322 0 2.50754e+06 -362277 0 2.50668e+06 -365265 0 2.50583e+06 -368288 0 2.50499e+06 -371347 0 2.50416e+06 -374442 0 2.50334e+06 -377574 0 2.50253e+06 -380744 0 2.50173e+06 -383952 0 2.50094e+06 -387199 0 2.50018e+06 -390486 0 2.49942e+06 -393813 0 2.49869e+06 -397180 0 2.49798e+06 -400589 0 2.49728e+06 -404040 0 2.49661e+06 -407532 0 2.49597e+06 -411067 0 2.49534e+06 -414644 0 2.49475e+06 -418263 0 2.49419e+06 -421925 0 2.49365e+06 -425630 0 2.49315e+06 -429377 0 2.49268e+06 -433165 0 2.49225e+06 -436996 0 2.49186e+06 -440868 0 2.49151e+06 -444781 0 2.49119e+06 -448735 0 2.49092e+06 -452728 0 2.4907e+06 -456760 0 2.49052e+06 -460831 0 2.49039e+06 -464938 0 2.4903e+06 -469082 0 2.49027e+06 -473261 0 2.4903e+06 -477475 0 2.49037e+06 -481721 0 2.4905e+06 -485998 0 2.4907e+06 -490306 0 2.49095e+06 -494644 0 2.49126e+06 -499008 0 2.49163e+06 -503399 0 2.49207e+06 -507815 0 2.49257e+06 -512255 0 2.49315e+06 -516716 0 2.49379e+06 -521197 0 2.49451e+06 -525696 0 2.4953e+06 -530211 0 2.49616e+06 -534740 0 2.49711e+06 -539280 0 2.49813e+06 -543827 0 2.49923e+06 -548377 0 2.50041e+06 -552925 0 2.50167e+06 -557464 0 2.50301e+06 -561986 0 2.50441e+06 -566479 0 2.50587e+06 -570929 0 2.50738e+06 -575318 0 2.50892e+06 -579623 0 2.51046e+06 -583816 0 2.51195e+06 -587858 0 2.51335e+06 -591704 0 2.51458e+06 -595295 0 2.51555e+06 -598557 0 2.60614e+06 -217710 0 2.605e+06 -219781 0 2.6039e+06 -221844 0 2.60281e+06 -223903 0 2.60175e+06 -225961 0 2.6007e+06 -228021 0 2.59967e+06 -230085 0 2.59866e+06 -232154 0 2.59765e+06 -234230 0 2.59665e+06 -236314 0 2.59567e+06 -238407 0 2.59469e+06 -240509 0 2.59372e+06 -242621 0 2.59276e+06 -244743 0 2.5918e+06 -246876 0 2.59086e+06 -249019 0 2.58992e+06 -251173 0 2.58899e+06 -253338 0 2.58806e+06 -255514 0 2.58715e+06 -257701 0 2.58624e+06 -259899 0 2.58533e+06 -262109 0 2.58444e+06 -264330 0 2.58355e+06 -266562 0 2.58267e+06 -268806 0 2.5818e+06 -271061 0 2.58093e+06 -273328 0 2.58008e+06 -275607 0 2.57922e+06 -277898 0 2.57838e+06 -280200 0 2.57754e+06 -282516 0 2.57671e+06 -284843 0 2.57589e+06 -287183 0 2.57507e+06 -289537 0 2.57426e+06 -291903 0 2.57346e+06 -294282 0 2.57266e+06 -296676 0 2.57187e+06 -299083 0 2.57109e+06 -301504 0 2.57032e+06 -303940 0 2.56955e+06 -306391 0 2.56879e+06 -308857 0 2.56803e+06 -311339 0 2.56729e+06 -313837 0 2.56655e+06 -316351 0 2.56581e+06 -318882 0 2.56509e+06 -321429 0 2.56437e+06 -323995 0 2.56366e+06 -326578 0 2.56296e+06 -329180 0 2.56227e+06 -331801 0 2.56159e+06 -334441 0 2.56091e+06 -337101 0 2.56025e+06 -339781 0 2.55959e+06 -342482 0 2.55895e+06 -345204 0 2.55831e+06 -347947 0 2.55769e+06 -350713 0 2.55708e+06 -353501 0 2.55648e+06 -356311 0 2.55589e+06 -359146 0 2.55532e+06 -362003 0 2.55475e+06 -364885 0 2.55421e+06 -367792 0 2.55368e+06 -370723 0 2.55316e+06 -373680 0 2.55266e+06 -376662 0 2.55218e+06 -379670 0 2.55171e+06 -382705 0 2.55126e+06 -385766 0 2.55084e+06 -388853 0 2.55043e+06 -391968 0 2.55005e+06 -395109 0 2.54968e+06 -398278 0 2.54934e+06 -401475 0 2.54903e+06 -404699 0 2.54873e+06 -407950 0 2.54847e+06 -411229 0 2.54823e+06 -414535 0 2.54802e+06 -417869 0 2.54784e+06 -421230 0 2.54769e+06 -424618 0 2.54757e+06 -428033 0 2.54748e+06 -431475 0 2.54742e+06 -434943 0 2.5474e+06 -438437 0 2.54742e+06 -441956 0 2.54747e+06 -445500 0 2.54756e+06 -449069 0 2.54768e+06 -452662 0 2.54785e+06 -456278 0 2.54805e+06 -459916 0 2.5483e+06 -463577 0 2.54859e+06 -467259 0 2.54893e+06 -470960 0 2.5493e+06 -474681 0 2.54973e+06 -478421 0 2.5502e+06 -482178 0 2.55071e+06 -485951 0 2.55128e+06 -489739 0 2.55189e+06 -493541 0 2.55255e+06 -497356 0 2.55326e+06 -501182 0 2.55402e+06 -505019 0 2.55483e+06 -508864 0 2.55569e+06 -512716 0 2.5566e+06 -516573 0 2.55756e+06 -520435 0 2.55857e+06 -524299 0 2.55964e+06 -528163 0 2.56075e+06 -532027 0 2.56191e+06 -535887 0 2.56311e+06 -539744 0 2.56437e+06 -543595 0 2.56567e+06 -547439 0 2.56702e+06 -551276 0 2.56841e+06 -555105 0 2.56984e+06 -558926 0 2.57132e+06 -562741 0 2.57284e+06 -566552 0 2.57441e+06 -570363 0 2.57603e+06 -574182 0 2.57771e+06 -578018 0 2.57947e+06 -581884 0 2.58131e+06 -585799 0 2.58327e+06 -589787 0 2.58539e+06 -593881 0 2.58771e+06 -598124 0 2.64348e+06 -230694 0 2.64248e+06 -232610 0 2.64147e+06 -234548 0 2.64046e+06 -236506 0 2.63946e+06 -238483 0 2.63846e+06 -240476 0 2.63746e+06 -242485 0 2.63647e+06 -244509 0 2.63549e+06 -246547 0 2.63452e+06 -248598 0 2.63355e+06 -250663 0 2.6326e+06 -252741 0 2.63165e+06 -254832 0 2.63071e+06 -256935 0 2.62978e+06 -259051 0 2.62886e+06 -261180 0 2.62795e+06 -263321 0 2.62705e+06 -265474 0 2.62616e+06 -267640 0 2.62527e+06 -269819 0 2.6244e+06 -272010 0 2.62354e+06 -274214 0 2.62269e+06 -276431 0 2.62185e+06 -278661 0 2.62102e+06 -280904 0 2.6202e+06 -283160 0 2.61939e+06 -285429 0 2.61859e+06 -287711 0 2.6178e+06 -290007 0 2.61702e+06 -292316 0 2.61626e+06 -294639 0 2.6155e+06 -296976 0 2.61475e+06 -299327 0 2.61402e+06 -301692 0 2.6133e+06 -304071 0 2.61259e+06 -306465 0 2.61189e+06 -308873 0 2.6112e+06 -311296 0 2.61053e+06 -313735 0 2.60986e+06 -316188 0 2.60921e+06 -318656 0 2.60858e+06 -321141 0 2.60795e+06 -323640 0 2.60734e+06 -326156 0 2.60674e+06 -328688 0 2.60616e+06 -331236 0 2.60559e+06 -333801 0 2.60503e+06 -336383 0 2.60449e+06 -338981 0 2.60396e+06 -341597 0 2.60345e+06 -344230 0 2.60295e+06 -346881 0 2.60247e+06 -349549 0 2.60201e+06 -352235 0 2.60156e+06 -354939 0 2.60113e+06 -357662 0 2.60071e+06 -360403 0 2.60032e+06 -363163 0 2.59994e+06 -365941 0 2.59958e+06 -368739 0 2.59924e+06 -371555 0 2.59892e+06 -374391 0 2.59862e+06 -377246 0 2.59835e+06 -380120 0 2.59809e+06 -383014 0 2.59785e+06 -385927 0 2.59764e+06 -388859 0 2.59745e+06 -391811 0 2.59729e+06 -394783 0 2.59715e+06 -397774 0 2.59703e+06 -400785 0 2.59694e+06 -403814 0 2.59688e+06 -406863 0 2.59685e+06 -409932 0 2.59684e+06 -413019 0 2.59686e+06 -416125 0 2.59691e+06 -419249 0 2.59699e+06 -422392 0 2.5971e+06 -425553 0 2.59724e+06 -428732 0 2.59741e+06 -431928 0 2.59762e+06 -435141 0 2.59785e+06 -438371 0 2.59813e+06 -441617 0 2.59843e+06 -444878 0 2.59877e+06 -448155 0 2.59915e+06 -451447 0 2.59956e+06 -454753 0 2.60001e+06 -458073 0 2.6005e+06 -461406 0 2.60103e+06 -464751 0 2.60159e+06 -468108 0 2.6022e+06 -471476 0 2.60284e+06 -474854 0 2.60352e+06 -478242 0 2.60425e+06 -481639 0 2.60501e+06 -485043 0 2.60582e+06 -488455 0 2.60666e+06 -491873 0 2.60755e+06 -495297 0 2.60848e+06 -498725 0 2.60945e+06 -502157 0 2.61047e+06 -505593 0 2.61153e+06 -509030 0 2.61263e+06 -512469 0 2.61377e+06 -515908 0 2.61496e+06 -519347 0 2.61619e+06 -522784 0 2.61746e+06 -526220 0 2.61877e+06 -529654 0 2.62013e+06 -533084 0 2.62154e+06 -536510 0 2.62299e+06 -539932 0 2.62448e+06 -543348 0 2.62602e+06 -546758 0 2.6276e+06 -550162 0 2.62923e+06 -553557 0 2.63091e+06 -556943 0 2.63263e+06 -560319 0 2.6344e+06 -563680 0 2.63621e+06 -567026 0 2.63806e+06 -570350 0 2.63995e+06 -573647 0 2.64188e+06 -576909 0 2.64383e+06 -580125 0 2.64578e+06 -583280 0 2.64773e+06 -586353 0 2.64963e+06 -589318 0 2.6813e+06 -240471 0 2.68026e+06 -242441 0 2.67924e+06 -244417 0 2.67823e+06 -246400 0 2.67723e+06 -248391 0 2.67624e+06 -250392 0 2.67526e+06 -252402 0 2.6743e+06 -254423 0 2.67334e+06 -256454 0 2.6724e+06 -258497 0 2.67147e+06 -260551 0 2.67055e+06 -262617 0 2.66963e+06 -264695 0 2.66873e+06 -266785 0 2.66784e+06 -268887 0 2.66696e+06 -271001 0 2.6661e+06 -273128 0 2.66524e+06 -275267 0 2.6644e+06 -277418 0 2.66357e+06 -279582 0 2.66275e+06 -281759 0 2.66194e+06 -283948 0 2.66114e+06 -286151 0 2.66036e+06 -288366 0 2.65959e+06 -290594 0 2.65884e+06 -292835 0 2.65809e+06 -295089 0 2.65736e+06 -297357 0 2.65665e+06 -299638 0 2.65594e+06 -301932 0 2.65526e+06 -304239 0 2.65458e+06 -306561 0 2.65392e+06 -308895 0 2.65328e+06 -311244 0 2.65265e+06 -313606 0 2.65203e+06 -315982 0 2.65143e+06 -318372 0 2.65085e+06 -320776 0 2.65028e+06 -323194 0 2.64973e+06 -325627 0 2.64919e+06 -328073 0 2.64867e+06 -330535 0 2.64817e+06 -333010 0 2.64768e+06 -335500 0 2.64722e+06 -338005 0 2.64677e+06 -340524 0 2.64633e+06 -343059 0 2.64592e+06 -345608 0 2.64552e+06 -348172 0 2.64515e+06 -350751 0 2.64479e+06 -353344 0 2.64446e+06 -355953 0 2.64414e+06 -358577 0 2.64384e+06 -361217 0 2.64357e+06 -363871 0 2.64331e+06 -366540 0 2.64308e+06 -369225 0 2.64287e+06 -371924 0 2.64268e+06 -374639 0 2.64252e+06 -377369 0 2.64237e+06 -380114 0 2.64226e+06 -382874 0 2.64216e+06 -385649 0 2.64209e+06 -388439 0 2.64205e+06 -391243 0 2.64203e+06 -394062 0 2.64204e+06 -396896 0 2.64207e+06 -399744 0 2.64213e+06 -402606 0 2.64222e+06 -405483 0 2.64234e+06 -408373 0 2.64248e+06 -411277 0 2.64265e+06 -414194 0 2.64286e+06 -417124 0 2.64309e+06 -420067 0 2.64335e+06 -423023 0 2.64364e+06 -425991 0 2.64397e+06 -428971 0 2.64432e+06 -431963 0 2.64471e+06 -434965 0 2.64513e+06 -437979 0 2.64559e+06 -441003 0 2.64607e+06 -444037 0 2.6466e+06 -447081 0 2.64715e+06 -450134 0 2.64774e+06 -453195 0 2.64837e+06 -456265 0 2.64903e+06 -459342 0 2.64972e+06 -462427 0 2.65045e+06 -465517 0 2.65122e+06 -468614 0 2.65203e+06 -471716 0 2.65287e+06 -474823 0 2.65375e+06 -477935 0 2.65467e+06 -481049 0 2.65562e+06 -484167 0 2.65661e+06 -487287 0 2.65764e+06 -490409 0 2.65871e+06 -493532 0 2.65982e+06 -496655 0 2.66096e+06 -499778 0 2.66215e+06 -502900 0 2.66337e+06 -506020 0 2.66463e+06 -509137 0 2.66594e+06 -512252 0 2.66728e+06 -515363 0 2.66865e+06 -518469 0 2.67007e+06 -521570 0 2.67153e+06 -524665 0 2.67302e+06 -527753 0 2.67456e+06 -530834 0 2.67613e+06 -533906 0 2.67774e+06 -536969 0 2.67938e+06 -540022 0 2.68107e+06 -543064 0 2.68279e+06 -546094 0 2.68454e+06 -549112 0 2.68633e+06 -552117 0 2.68816e+06 -555109 0 2.69001e+06 -558088 0 2.69191e+06 -561053 0 2.69383e+06 -564007 0 2.69579e+06 -566951 0 2.69779e+06 -569888 0 2.69983e+06 -572822 0 2.70191e+06 -575763 0 2.70405e+06 -578718 0 2.70627e+06 -581704 0 2.71891e+06 -248175 0 2.7179e+06 -250110 0 2.7169e+06 -252057 0 2.71591e+06 -254018 0 2.71494e+06 -255990 0 2.71397e+06 -257975 0 2.71301e+06 -259971 0 2.71207e+06 -261978 0 2.71113e+06 -263997 0 2.71021e+06 -266028 0 2.7093e+06 -268069 0 2.70841e+06 -270122 0 2.70753e+06 -272186 0 2.70666e+06 -274262 0 2.7058e+06 -276349 0 2.70496e+06 -278447 0 2.70413e+06 -280557 0 2.70331e+06 -282679 0 2.70251e+06 -284812 0 2.70172e+06 -286957 0 2.70095e+06 -289114 0 2.70019e+06 -291282 0 2.69945e+06 -293463 0 2.69872e+06 -295655 0 2.69801e+06 -297860 0 2.69731e+06 -300077 0 2.69663e+06 -302305 0 2.69596e+06 -304546 0 2.69531e+06 -306800 0 2.69468e+06 -309065 0 2.69406e+06 -311343 0 2.69346e+06 -313633 0 2.69288e+06 -315936 0 2.69231e+06 -318251 0 2.69177e+06 -320579 0 2.69124e+06 -322919 0 2.69072e+06 -325272 0 2.69023e+06 -327637 0 2.68975e+06 -330015 0 2.6893e+06 -332406 0 2.68886e+06 -334809 0 2.68844e+06 -337225 0 2.68805e+06 -339654 0 2.68767e+06 -342095 0 2.68731e+06 -344549 0 2.68697e+06 -347016 0 2.68666e+06 -349495 0 2.68636e+06 -351987 0 2.68609e+06 -354491 0 2.68584e+06 -357008 0 2.68561e+06 -359538 0 2.6854e+06 -362080 0 2.68522e+06 -364635 0 2.68505e+06 -367201 0 2.68492e+06 -369781 0 2.6848e+06 -372372 0 2.68471e+06 -374975 0 2.68465e+06 -377591 0 2.68461e+06 -380218 0 2.6846e+06 -382857 0 2.68461e+06 -385508 0 2.68465e+06 -388170 0 2.68471e+06 -390844 0 2.6848e+06 -393528 0 2.68492e+06 -396224 0 2.68506e+06 -398931 0 2.68524e+06 -401648 0 2.68544e+06 -404375 0 2.68567e+06 -407113 0 2.68592e+06 -409861 0 2.68621e+06 -412618 0 2.68653e+06 -415384 0 2.68688e+06 -418160 0 2.68726e+06 -420945 0 2.68766e+06 -423738 0 2.6881e+06 -426539 0 2.68858e+06 -429348 0 2.68908e+06 -432164 0 2.68961e+06 -434988 0 2.69018e+06 -437819 0 2.69078e+06 -440655 0 2.69141e+06 -443498 0 2.69208e+06 -446346 0 2.69278e+06 -449200 0 2.69351e+06 -452058 0 2.69428e+06 -454920 0 2.69508e+06 -457786 0 2.69591e+06 -460655 0 2.69678e+06 -463527 0 2.69769e+06 -466401 0 2.69863e+06 -469278 0 2.6996e+06 -472155 0 2.70061e+06 -475033 0 2.70166e+06 -477912 0 2.70274e+06 -480790 0 2.70386e+06 -483668 0 2.70501e+06 -486544 0 2.7062e+06 -489418 0 2.70742e+06 -492289 0 2.70868e+06 -495158 0 2.70998e+06 -498023 0 2.71131e+06 -500884 0 2.71268e+06 -503740 0 2.71408e+06 -506591 0 2.71552e+06 -509436 0 2.717e+06 -512275 0 2.71851e+06 -515107 0 2.72006e+06 -517932 0 2.72164e+06 -520748 0 2.72325e+06 -523556 0 2.72491e+06 -526356 0 2.72659e+06 -529145 0 2.72831e+06 -531925 0 2.73007e+06 -534695 0 2.73186e+06 -537454 0 2.73369e+06 -540202 0 2.73555e+06 -542939 0 2.73744e+06 -545664 0 2.73937e+06 -548376 0 2.74133e+06 -551075 0 2.74333e+06 -553761 0 2.74536e+06 -556432 0 2.74743e+06 -559087 0 2.74953e+06 -561723 0 2.75165e+06 -564338 0 2.75381e+06 -566926 0 2.75598e+06 -569482 0 2.75817e+06 -571997 0 2.75633e+06 -253589 0 2.75531e+06 -255532 0 2.75431e+06 -257483 0 2.75332e+06 -259443 0 2.75235e+06 -261412 0 2.75139e+06 -263390 0 2.75044e+06 -265377 0 2.74951e+06 -267374 0 2.7486e+06 -269381 0 2.74769e+06 -271398 0 2.7468e+06 -273425 0 2.74593e+06 -275462 0 2.74507e+06 -277509 0 2.74422e+06 -279567 0 2.74339e+06 -281635 0 2.74258e+06 -283714 0 2.74178e+06 -285803 0 2.741e+06 -287902 0 2.74023e+06 -290012 0 2.73948e+06 -292133 0 2.73875e+06 -294265 0 2.73803e+06 -296407 0 2.73733e+06 -298560 0 2.73664e+06 -300724 0 2.73598e+06 -302899 0 2.73533e+06 -305084 0 2.7347e+06 -307281 0 2.73408e+06 -309488 0 2.73349e+06 -311706 0 2.73291e+06 -313935 0 2.73235e+06 -316175 0 2.73181e+06 -318426 0 2.7313e+06 -320688 0 2.73079e+06 -322961 0 2.73031e+06 -325245 0 2.72985e+06 -327540 0 2.72941e+06 -329846 0 2.72899e+06 -332163 0 2.72859e+06 -334490 0 2.72822e+06 -336829 0 2.72786e+06 -339178 0 2.72752e+06 -341538 0 2.72721e+06 -343909 0 2.72692e+06 -346291 0 2.72665e+06 -348683 0 2.7264e+06 -351086 0 2.72618e+06 -353500 0 2.72598e+06 -355924 0 2.7258e+06 -358358 0 2.72565e+06 -360803 0 2.72552e+06 -363257 0 2.72542e+06 -365722 0 2.72534e+06 -368197 0 2.72529e+06 -370682 0 2.72526e+06 -373176 0 2.72525e+06 -375680 0 2.72528e+06 -378194 0 2.72533e+06 -380717 0 2.7254e+06 -383249 0 2.7255e+06 -385790 0 2.72563e+06 -388340 0 2.72579e+06 -390898 0 2.72598e+06 -393465 0 2.72619e+06 -396040 0 2.72643e+06 -398623 0 2.7267e+06 -401213 0 2.727e+06 -403812 0 2.72733e+06 -406417 0 2.72768e+06 -409029 0 2.72807e+06 -411649 0 2.72849e+06 -414274 0 2.72894e+06 -416906 0 2.72941e+06 -419544 0 2.72992e+06 -422187 0 2.73046e+06 -424836 0 2.73104e+06 -427489 0 2.73164e+06 -430147 0 2.73227e+06 -432809 0 2.73294e+06 -435475 0 2.73364e+06 -438145 0 2.73437e+06 -440818 0 2.73514e+06 -443493 0 2.73593e+06 -446171 0 2.73676e+06 -448851 0 2.73763e+06 -451532 0 2.73852e+06 -454214 0 2.73946e+06 -456897 0 2.74042e+06 -459581 0 2.74142e+06 -462264 0 2.74245e+06 -464947 0 2.74351e+06 -467628 0 2.74461e+06 -470308 0 2.74575e+06 -472986 0 2.74691e+06 -475662 0 2.74812e+06 -478335 0 2.74935e+06 -481005 0 2.75062e+06 -483671 0 2.75193e+06 -486332 0 2.75327e+06 -488989 0 2.75464e+06 -491641 0 2.75605e+06 -494287 0 2.75749e+06 -496927 0 2.75897e+06 -499560 0 2.76048e+06 -502186 0 2.76202e+06 -504805 0 2.7636e+06 -507416 0 2.76521e+06 -510019 0 2.76685e+06 -512612 0 2.76853e+06 -515197 0 2.77024e+06 -517771 0 2.77199e+06 -520335 0 2.77377e+06 -522889 0 2.77558e+06 -525432 0 2.77742e+06 -527962 0 2.7793e+06 -530481 0 2.78121e+06 -532987 0 2.78315e+06 -535480 0 2.78512e+06 -537960 0 2.78713e+06 -540426 0 2.78916e+06 -542877 0 2.79122e+06 -545314 0 2.79332e+06 -547736 0 2.79544e+06 -550143 0 2.7976e+06 -552537 0 2.79978e+06 -554917 0 2.802e+06 -557285 0 2.80424e+06 -559645 0 2.80653e+06 -562001 0 2.7933e+06 -257164 0 2.79228e+06 -259092 0 2.79128e+06 -261029 0 2.79029e+06 -262976 0 2.78931e+06 -264932 0 2.78835e+06 -266897 0 2.78741e+06 -268871 0 2.78648e+06 -270854 0 2.78557e+06 -272846 0 2.78468e+06 -274847 0 2.7838e+06 -276857 0 2.78293e+06 -278876 0 2.78209e+06 -280905 0 2.78126e+06 -282942 0 2.78045e+06 -284989 0 2.77965e+06 -287046 0 2.77887e+06 -289111 0 2.77811e+06 -291186 0 2.77737e+06 -293271 0 2.77664e+06 -295365 0 2.77594e+06 -297468 0 2.77525e+06 -299581 0 2.77458e+06 -301703 0 2.77393e+06 -303835 0 2.7733e+06 -305976 0 2.77269e+06 -308127 0 2.77209e+06 -310287 0 2.77152e+06 -312457 0 2.77097e+06 -314636 0 2.77044e+06 -316825 0 2.76992e+06 -319023 0 2.76943e+06 -321231 0 2.76896e+06 -323448 0 2.76851e+06 -325675 0 2.76808e+06 -327911 0 2.76768e+06 -330156 0 2.76729e+06 -332411 0 2.76693e+06 -334675 0 2.76659e+06 -336948 0 2.76628e+06 -339230 0 2.76598e+06 -341522 0 2.76571e+06 -343822 0 2.76547e+06 -346131 0 2.76524e+06 -348450 0 2.76504e+06 -350776 0 2.76487e+06 -353112 0 2.76472e+06 -355456 0 2.76459e+06 -357809 0 2.76449e+06 -360170 0 2.76442e+06 -362539 0 2.76437e+06 -364917 0 2.76434e+06 -367302 0 2.76435e+06 -369695 0 2.76438e+06 -372096 0 2.76443e+06 -374504 0 2.76451e+06 -376920 0 2.76462e+06 -379343 0 2.76476e+06 -381773 0 2.76492e+06 -384210 0 2.76512e+06 -386653 0 2.76534e+06 -389103 0 2.76559e+06 -391559 0 2.76587e+06 -394021 0 2.76617e+06 -396488 0 2.76651e+06 -398962 0 2.76687e+06 -401440 0 2.76727e+06 -403924 0 2.76769e+06 -406412 0 2.76815e+06 -408905 0 2.76864e+06 -411402 0 2.76915e+06 -413903 0 2.7697e+06 -416408 0 2.77028e+06 -418916 0 2.77088e+06 -421427 0 2.77153e+06 -423941 0 2.7722e+06 -426457 0 2.7729e+06 -428975 0 2.77364e+06 -431495 0 2.7744e+06 -434017 0 2.7752e+