<?xml version="1.0"?> 
<VTKFile type="StructuredGrid" version="0.1"> 
<StructuredGrid WholeExtent="0 127 0 127 0 0"> 
<Piece Extent="0 127 0 127 0 0"> 
<PointData>
<DataArray type="Float32" Name="E" format="ascii" NumberOfComponents="3"> 
-1.87873e+06 2.54094e+06 0 -1.87927e+06 2.5503e+06 0 -1.87946e+06 2.56017e+06 0 -1.8793e+06 2.57053e+06 0 -1.87876e+06 2.58138e+06 0 -1.87782e+06 2.59268e+06 0 -1.87647e+06 2.60443e+06 0 -1.87468e+06 2.61661e+06 0 -1.87242e+06 2.62919e+06 0 -1.86968e+06 2.64216e+06 0 -1.86644e+06 2.65549e+06 0 -1.86267e+06 2.66915e+06 0 -1.85836e+06 2.68313e+06 0 -1.85349e+06 2.6974e+06 0 -1.84805e+06 2.71192e+06 0 -1.84202e+06 2.72667e+06 0 -1.83539e+06 2.74162e+06 0 -1.82814e+06 2.75675e+06 0 -1.82026e+06 2.77201e+06 0 -1.81175e+06 2.78738e+06 0 -1.80261e+06 2.80282e+06 0 -1.79281e+06 2.81831e+06 0 -1.78237e+06 2.8338e+06 0 -1.77127e+06 2.84927e+06 0 -1.75953e+06 2.86469e+06 0 -1.74714e+06 2.88001e+06 0 -1.7341e+06 2.89522e+06 0 -1.72043e+06 2.91026e+06 0 -1.70613e+06 2.92512e+06 0 -1.69121e+06 2.93976e+06 0 -1.67568e+06 2.95415e+06 0 -1.65957e+06 2.96827e+06 0 -1.64287e+06 2.98208e+06 0 -1.62562e+06 2.99556e+06 0 -1.60783e+06 3.00867e+06 0 -1.58951e+06 3.02141e+06 0 -1.5707e+06 3.03374e+06 0 -1.55141e+06 3.04565e+06 0 -1.53167e+06 3.05711e+06 0 -1.5115e+06 3.06811e+06 0 -1.49093e+06 3.07863e+06 0 -1.46998e+06 3.08866e+06 0 -1.44868e+06 3.09818e+06 0 -1.42706e+06 3.10719e+06 0 -1.40514e+06 3.11568e+06 0 -1.38296e+06 3.12364e+06 0 -1.36054e+06 3.13107e+06 0 -1.3379e+06 3.13795e+06 0 -1.31508e+06 3.1443e+06 0 -1.29209e+06 3.15011e+06 0 -1.26898e+06 3.15539e+06 0 -1.24575e+06 3.16013e+06 0 -1.22245e+06 3.16434e+06 0 -1.19909e+06 3.16803e+06 0 -1.17569e+06 3.1712e+06 0 -1.15228e+06 3.17386e+06 0 -1.12888e+06 3.17603e+06 0 -1.10552e+06 3.1777e+06 0 -1.0822e+06 3.1789e+06 0 -1.05896e+06 3.17964e+06 0 -1.0358e+06 3.17991e+06 0 -1.01275e+06 3.17975e+06 0 -989825 3.17916e+06 0 -967034 3.17816e+06 0 -944395 3.17676e+06 0 -921920 3.17498e+06 0 -899621 3.17282e+06 0 -877510 3.17031e+06 0 -855598 3.16746e+06 0 -833892 3.16428e+06 0 -812403 3.16079e+06 0 -791138 3.15701e+06 0 -770104 3.15295e+06 0 -749307 3.14861e+06 0 -728753 3.14403e+06 0 -708447 3.13921e+06 0 -688393 3.13416e+06 0 -668595 3.1289e+06 0 -649055 3.12345e+06 0 -629777 3.1178e+06 0 -610763 3.11199e+06 0 -592014 3.10601e+06 0 -573531 3.09989e+06 0 -555316 3.09363e+06 0 -537369 3.08725e+06 0 -519689 3.08075e+06 0 -502277 3.07414e+06 0 -485133 3.06744e+06 0 -468256 3.06066e+06 0 -451644 3.0538e+06 0 -435297 3.04687e+06 0 -419214 3.03989e+06 0 -403393 3.03286e+06 0 -387832 3.02579e+06 0 -372530 3.01869e+06 0 -357485 3.01156e+06 0 -342695 3.00441e+06 0 -328159 2.99726e+06 0 -313874 2.99009e+06 0 -299837 2.98293e+06 0 -286048 2.97578e+06 0 -272504 2.96864e+06 0 -259203 2.96152e+06 0 -246143 2.95443e+06 0 -233321 2.94736e+06 0 -220736 2.94033e+06 0 -208385 2.93334e+06 0 -196266 2.92639e+06 0 -184378 2.91949e+06 0 -172718 2.91264e+06 0 -161285 2.90585e+06 0 -150076 2.89912e+06 0 -139090 2.89245e+06 0 -128325 2.88585e+06 0 -117778 2.87932e+06 0 -107450 2.87286e+06 0 -97337.4 2.86647e+06 0 -87439.2 2.86017e+06 0 -77754.1 2.85395e+06 0 -68280.6 2.84781e+06 0 -59017.4 2.84175e+06 0 -49963.3 2.83579e+06 0 -41117.1 2.82991e+06 0 -32477.9 2.82413e+06 0 -24044.5 2.81844e+06 0 -15816.2 2.81285e+06 0 -7792.05 2.80735e+06 0 30.0321 2.80195e+06 0 -1.89155e+06 2.5482e+06 0 -1.89213e+06 2.55765e+06 0 -1.89238e+06 2.56762e+06 0 -1.89227e+06 2.57807e+06 0 -1.89178e+06 2.58901e+06 0 -1.89089e+06 2.60042e+06 0 -1.88958e+06 2.61227e+06 0 -1.88782e+06 2.62455e+06 0 -1.8856e+06 2.63723e+06 0 -1.88289e+06 2.65031e+06 0 -1.87967e+06 2.66374e+06 0 -1.87593e+06 2.67751e+06 0 -1.87164e+06 2.6916e+06 0 -1.86679e+06 2.70598e+06 0 -1.86136e+06 2.72061e+06 0 -1.85534e+06 2.73548e+06 0 -1.84871e+06 2.75054e+06 0 -1.84146e+06 2.76578e+06 0 -1.83358e+06 2.78116e+06 0 -1.82506e+06 2.79664e+06 0 -1.8159e+06 2.8122e+06 0 -1.80609e+06 2.8278e+06 0 -1.79562e+06 2.84342e+06 0 -1.7845e+06 2.859e+06 0 -1.77273e+06 2.87453e+06 0 -1.7603e+06 2.88997e+06 0 -1.74723e+06 2.90529e+06 0 -1.73352e+06 2.92045e+06 0 -1.71918e+06 2.93542e+06 0 -1.70421e+06 2.95017e+06 0 -1.68863e+06 2.96467e+06 0 -1.67246e+06 2.97889e+06 0 -1.65571e+06 2.99281e+06 0 -1.6384e+06 3.00639e+06 0 -1.62054e+06 3.01961e+06 0 -1.60216e+06 3.03244e+06 0 -1.58327e+06 3.04487e+06 0 -1.56391e+06 3.05687e+06 0 -1.54409e+06 3.06842e+06 0 -1.52385e+06 3.07951e+06 0 -1.50319e+06 3.09012e+06 0 -1.48216e+06 3.10023e+06 0 -1.46078e+06 3.10984e+06 0 -1.43907e+06 3.11893e+06 0 -1.41707e+06 3.12749e+06 0 -1.3948e+06 3.13552e+06 0 -1.37229e+06 3.14301e+06 0 -1.34956e+06 3.14997e+06 0 -1.32664e+06 3.15638e+06 0 -1.30357e+06 3.16225e+06 0 -1.28036e+06 3.16758e+06 0 -1.25705e+06 3.17237e+06 0 -1.23365e+06 3.17664e+06 0 -1.21019e+06 3.18037e+06 0 -1.1867e+06 3.18359e+06 0 -1.1632e+06 3.18629e+06 0 -1.13971e+06 3.1885e+06 0 -1.11626e+06 3.19021e+06 0 -1.09285e+06 3.19144e+06 0 -1.06952e+06 3.19221e+06 0 -1.04627e+06 3.19251e+06 0 -1.02314e+06 3.19238e+06 0 -1.00012e+06 3.19181e+06 0 -977246 3.19083e+06 0 -954523 3.18945e+06 0 -931965 3.18768e+06 0 -909586 3.18554e+06 0 -887395 3.18304e+06 0 -865405 3.1802e+06 0 -843623 3.17703e+06 0 -822059 3.17355e+06 0 -800722 3.16977e+06 0 -779616 3.1657e+06 0 -758750 3.16137e+06 0 -738129 3.15679e+06 0 -717757 3.15196e+06 0 -697639 3.14691e+06 0 -677778 3.14165e+06 0 -658178 3.13619e+06 0 -638842 3.13054e+06 0 -619771 3.12471e+06 0 -600967 3.11873e+06 0 -582431 3.11259e+06 0 -564165 3.10632e+06 0 -546168 3.09992e+06 0 -528440 3.0934e+06 0 -510982 3.08678e+06 0 -493794 3.08007e+06 0 -476873 3.07327e+06 0 -460221 3.06639e+06 0 -443834 3.05944e+06 0 -427713 3.05244e+06 0 -411855 3.04539e+06 0 -396259 3.0383e+06 0 -380924 3.03117e+06 0 -365847 3.02402e+06 0 -351026 3.01684e+06 0 -336460 3.00966e+06 0 -322147 3.00247e+06 0 -308083 2.99528e+06 0 -294269 2.9881e+06 0 -280700 2.98093e+06 0 -267375 2.97377e+06 0 -254292 2.96665e+06 0 -241448 2.95955e+06 0 -228842 2.95248e+06 0 -216471 2.94545e+06 0 -204333 2.93847e+06 0 -192427 2.93153e+06 0 -180749 2.92464e+06 0 -169298 2.9178e+06 0 -158073 2.91103e+06 0 -147070 2.90432e+06 0 -136289 2.89767e+06 0 -125728 2.89109e+06 0 -115384 2.88458e+06 0 -105256 2.87814e+06 0 -95342.5 2.87178e+06 0 -85642.1 2.8655e+06 0 -76153.3 2.8593e+06 0 -66874.5 2.85319e+06 0 -57804.6 2.84716e+06 0 -48942.2 2.84122e+06 0 -40286.2 2.83538e+06 0 -31835.6 2.82962e+06 0 -23589.2 2.82396e+06 0 -15546.3 2.81839e+06 0 -7705.83 2.81292e+06 0 -1.9045e+06 2.55545e+06 0 -1.90514e+06 2.565e+06 0 -1.90544e+06 2.57506e+06 0 -1.90538e+06 2.58561e+06 0 -1.90494e+06 2.59665e+06 0 -1.9041e+06 2.60816e+06 0 -1.90283e+06 2.62011e+06 0 -1.90112e+06 2.63249e+06 0 -1.89893e+06 2.64529e+06 0 -1.89625e+06 2.65847e+06 0 -1.89307e+06 2.67201e+06 0 -1.88935e+06 2.6859e+06 0 -1.88508e+06 2.7001e+06 0 -1.88024e+06 2.71459e+06 0 -1.87482e+06 2.72933e+06 0 -1.86881e+06 2.74432e+06 0 -1.86218e+06 2.7595e+06 0 -1.85493e+06 2.77485e+06 0 -1.84705e+06 2.79035e+06 0 -1.83852e+06 2.80595e+06 0 -1.82935e+06 2.82163e+06 0 -1.81952e+06 2.83735e+06 0 -1.80903e+06 2.85308e+06 0 -1.79789e+06 2.86879e+06 0 -1.78609e+06 2.88443e+06 0 -1.77363e+06 2.89999e+06 0 -1.76052e+06 2.91542e+06 0 -1.74677e+06 2.93069e+06 0 -1.73238e+06 2.94578e+06 0 -1.71736e+06 2.96064e+06 0 -1.70173e+06 2.97526e+06 0 -1.68551e+06 2.98959e+06 0 -1.6687e+06 3.00361e+06 0 -1.65132e+06 3.0173e+06 0 -1.6334e+06 3.03062e+06 0 -1.61495e+06 3.04356e+06 0 -1.59599e+06 3.05609e+06 0 -1.57656e+06 3.06818e+06 0 -1.55666e+06 3.07983e+06 0 -1.53633e+06 3.09101e+06 0 -1.5156e+06 3.10171e+06 0 -1.49449e+06 3.1119e+06 0 -1.47302e+06 3.12159e+06 0 -1.45123e+06 3.13076e+06 0 -1.42914e+06 3.1394e+06 0 -1.40677e+06 3.14751e+06 0 -1.38417e+06 3.15507e+06 0 -1.36135e+06 3.16209e+06 0 -1.33834e+06 3.16857e+06 0 -1.31517e+06 3.1745e+06 0 -1.29187e+06 3.17989e+06 0 -1.26846e+06 3.18474e+06 0 -1.24497e+06 3.18905e+06 0 -1.22142e+06 3.19284e+06 0 -1.19784e+06 3.1961e+06 0 -1.17424e+06 3.19885e+06 0 -1.15066e+06 3.20109e+06 0 -1.12711e+06 3.20284e+06 0 -1.10361e+06 3.20411e+06 0 -1.08019e+06 3.2049e+06 0 -1.05686e+06 3.20524e+06 0 -1.03363e+06 3.20513e+06 0 -1.01053e+06 3.20459e+06 0 -987565 3.20363e+06 0 -964757 3.20227e+06 0 -942115 3.20051e+06 0 -919653 3.19839e+06 0 -897382 3.1959e+06 0 -875312 3.19307e+06 0 -853452 3.18991e+06 0 -831813 3.18643e+06 0 -810400 3.18266e+06 0 -789222 3.1786e+06 0 -768285 3.17427e+06 0 -747595 3.16969e+06 0 -727156 3.16486e+06 0 -706972 3.1598e+06 0 -687048 3.15454e+06 0 -667387 3.14907e+06 0 -647991 3.14341e+06 0 -628861 3.13758e+06 0 -610001 3.13158e+06 0 -591411 3.12544e+06 0 -573092 3.11915e+06 0 -555044 3.11274e+06 0 -537267 3.10621e+06 0 -519762 3.09957e+06 0 -502528 3.09284e+06 0 -485563 3.08602e+06 0 -468868 3.07913e+06 0 -452441 3.07216e+06 0 -436280 3.06514e+06 0 -420385 3.05807e+06 0 -404753 3.05095e+06 0 -389382 3.0438e+06 0 -374272 3.03662e+06 0 -359419 3.02943e+06 0 -344823 3.02222e+06 0 -330480 3.015e+06 0 -316388 3.00778e+06 0 -302546 3.00057e+06 0 -288952 2.99337e+06 0 -275602 2.98619e+06 0 -262495 2.97903e+06 0 -249629 2.97189e+06 0 -237001 2.96479e+06 0 -224609 2.95773e+06 0 -212451 2.95071e+06 0 -200524 2.94373e+06 0 -188828 2.9368e+06 0 -177359 2.92993e+06 0 -166115 2.92311e+06 0 -155096 2.91635e+06 0 -144297 2.90966e+06 0 -133719 2.90303e+06 0 -123359 2.89647e+06 0 -113215 2.88999e+06 0 -103285 2.88358e+06 0 -93568.7 2.87724e+06 0 -84063.6 2.87099e+06 0 -74768.5 2.86482e+06 0 -65681.8 2.85873e+06 0 -56802.4 2.85273e+06 0 -48128.8 2.84682e+06 0 -39660.1 2.841e+06 0 -31394.9 2.83527e+06 0 -23332.4 2.82963e+06 0 -15471.2 2.82409e+06 0 -1.9176e+06 2.5627e+06 0 -1.9183e+06 2.57234e+06 0 -1.91865e+06 2.5825e+06 0 -1.91865e+06 2.59315e+06 0 -1.91826e+06 2.60429e+06 0 -1.91747e+06 2.6159e+06 0 -1.91624e+06 2.62796e+06 0 -1.91457e+06 2.64045e+06 0 -1.91242e+06 2.65335e+06 0 -1.90977e+06 2.66664e+06 0 -1.90661e+06 2.6803e+06 0 -1.90292e+06 2.6943e+06 0 -1.89867e+06 2.70862e+06 0 -1.89385e+06 2.72322e+06 0 -1.88844e+06 2.73809e+06 0 -1.88244e+06 2.75319e+06 0 -1.87581e+06 2.76849e+06 0 -1.86856e+06 2.78397e+06 0 -1.86067e+06 2.79958e+06 0 -1.85214e+06 2.81531e+06 0 -1.84295e+06 2.83111e+06 0 -1.83311e+06 2.84695e+06 0 -1.8226e+06 2.8628e+06 0 -1.81143e+06 2.87863e+06 0 -1.7996e+06 2.89439e+06 0 -1.78711e+06 2.91007e+06 0 -1.77396e+06 2.92562e+06 0 -1.76017e+06 2.94101e+06 0 -1.74573e+06 2.95621e+06 0 -1.73067e+06 2.97119e+06 0 -1.71499e+06 2.98592e+06 0 -1.6987e+06 3.00036e+06 0 -1.68183e+06 3.01449e+06 0 -1.66439e+06 3.02829e+06 0 -1.6464e+06 3.04172e+06 0 -1.62789e+06 3.05476e+06 0 -1.60886e+06 3.06739e+06 0 -1.58935e+06 3.07959e+06 0 -1.56938e+06 3.09133e+06 0 -1.54897e+06 3.1026e+06 0 -1.52815e+06 3.11339e+06 0 -1.50695e+06 3.12368e+06 0 -1.4854e+06 3.13345e+06 0 -1.46352e+06 3.1427e+06 0 -1.44134e+06 3.15142e+06 0 -1.41889e+06 3.1596e+06 0 -1.39619e+06 3.16724e+06 0 -1.37328e+06 3.17433e+06 0 -1.35018e+06 3.18087e+06 0 -1.32691e+06 3.18687e+06 0 -1.30352e+06 3.19232e+06 0 -1.28001e+06 3.19722e+06 0 -1.25642e+06 3.20159e+06 0 -1.23278e+06 3.20543e+06 0 -1.2091e+06 3.20874e+06 0 -1.18541e+06 3.21153e+06 0 -1.16173e+06 3.21381e+06 0 -1.13809e+06 3.2156e+06 0 -1.1145e+06 3.2169e+06 0 -1.09098e+06 3.21773e+06 0 -1.06755e+06 3.2181e+06 0 -1.04424e+06 3.21802e+06 0 -1.02104e+06 3.2175e+06 0 -997994 3.21656e+06 0 -975099 3.21522e+06 0 -952372 3.21348e+06 0 -929825 3.21137e+06 0 -907472 3.2089e+06 0 -885321 3.20608e+06 0 -863382 3.20293e+06 0 -841665 3.19946e+06 0 -820176 3.19569e+06 0 -798924 3.19164e+06 0 -777915 3.18731e+06 0 -757154 3.18273e+06 0 -736646 3.1779e+06 0 -716396 3.17284e+06 0 -696407 3.16757e+06 0 -676682 3.16209e+06 0 -657225 3.15643e+06 0 -638036 3.15059e+06 0 -619118 3.14459e+06 0 -600472 3.13843e+06 0 -582099 3.13213e+06 0 -563999 3.12571e+06 0 -546172 3.11916e+06 0 -528618 3.11251e+06 0 -511337 3.10577e+06 0 -494327 3.09893e+06 0 -477588 3.09202e+06 0 -461119 3.08503e+06 0 -444917 3.07799e+06 0 -428983 3.0709e+06 0 -413313 3.06376e+06 0 -397907 3.05659e+06 0 -382762 3.04939e+06 0 -367876 3.04217e+06 0 -353248 3.03493e+06 0 -338874 3.02769e+06 0 -324754 3.02044e+06 0 -310883 3.0132e+06 0 -297262 3.00597e+06 0 -283886 2.99876e+06 0 -270754 2.99157e+06 0 -257864 2.9844e+06 0 -245213 2.97727e+06 0 -232799 2.97017e+06 0 -220619 2.96311e+06 0 -208672 2.9561e+06 0 -196956 2.94913e+06 0 -185467 2.94222e+06 0 -174205 2.93536e+06 0 -163167 2.92856e+06 0 -152351 2.92182e+06 0 -141755 2.91515e+06 0 -131377 2.90855e+06 0 -121216 2.90201e+06 0 -111269 2.89555e+06 0 -101535 2.88917e+06 0 -92013.1 2.88286e+06 0 -82700.6 2.87664e+06 0 -73596.3 2.87049e+06 0 -64699 2.86444e+06 0 -56007.1 2.85846e+06 0 -47519.4 2.85258e+06 0 -39234.8 2.84678e+06 0 -31152 2.84108e+06 0 -23269.9 2.83547e+06 0 -1.93085e+06 2.56993e+06 0 -1.93161e+06 2.57967e+06 0 -1.93202e+06 2.58993e+06 0 -1.93207e+06 2.60069e+06 0 -1.93174e+06 2.61193e+06 0 -1.93099e+06 2.62365e+06 0 -1.92981e+06 2.63581e+06 0 -1.92818e+06 2.64842e+06 0 -1.92606e+06 2.66143e+06 0 -1.92345e+06 2.67483e+06 0 -1.92032e+06 2.68861e+06 0 -1.91665e+06 2.70272e+06 0 -1.91242e+06 2.71716e+06 0 -1.90762e+06 2.73188e+06 0 -1.90222e+06 2.74687e+06 0 -1.89622e+06 2.76209e+06 0 -1.88961e+06 2.77752e+06 0 -1.88235e+06 2.79312e+06 0 -1.87446e+06 2.80886e+06 0 -1.86592e+06 2.8247e+06 0 -1.85672e+06 2.84063e+06 0 -1.84686e+06 2.8566e+06 0 -1.83633e+06 2.87257e+06 0 -1.82513e+06 2.88852e+06 0 -1.81327e+06 2.90441e+06 0 -1.80075e+06 2.92021e+06 0 -1.78756e+06 2.93588e+06 0 -1.77373e+06 2.95139e+06 0 -1.75925e+06 2.96671e+06 0 -1.74413e+06 2.98181e+06 0 -1.7284e+06 2.99666e+06 0 -1.71206e+06 3.01121e+06 0 -1.69513e+06 3.02546e+06 0 -1.67762e+06 3.03936e+06 0 -1.65957e+06 3.0529e+06 0 -1.64098e+06 3.06605e+06 0 -1.62188e+06 3.07878e+06 0 -1.60229e+06 3.09108e+06 0 -1.58224e+06 3.10293e+06 0 -1.56175e+06 3.11429e+06 0 -1.54085e+06 3.12517e+06 0 -1.51957e+06 3.13555e+06 0 -1.49793e+06 3.14541e+06 0 -1.47596e+06 3.15475e+06 0 -1.45368e+06 3.16355e+06 0 -1.43114e+06 3.17181e+06 0 -1.40835e+06 3.17952e+06 0 -1.38534e+06 3.18668e+06 0 -1.36214e+06 3.19329e+06 0 -1.33879e+06 3.19935e+06 0 -1.31529e+06 3.20486e+06 0 -1.29169e+06 3.20983e+06 0 -1.268e+06 3.21425e+06 0 -1.24426e+06 3.21814e+06 0 -1.22049e+06 3.2215e+06 0 -1.1967e+06 3.22433e+06 0 -1.17292e+06 3.22666e+06 0 -1.14918e+06 3.22849e+06 0 -1.1255e+06 3.22983e+06 0 -1.10189e+06 3.23069e+06 0 -1.07837e+06 3.23109e+06 0 -1.05496e+06 3.23104e+06 0 -1.03168e+06 3.23055e+06 0 -1.00854e+06 3.22963e+06 0 -985551 3.22831e+06 0 -962737 3.22659e+06 0 -940105 3.2245e+06 0 -917667 3.22204e+06 0 -895433 3.21923e+06 0 -873414 3.21609e+06 0 -851618 3.21263e+06 0 -830052 3.20887e+06 0 -808724 3.20482e+06 0 -787641 3.20049e+06 0 -766808 3.19591e+06 0 -746230 3.19108e+06 0 -725912 3.18602e+06 0 -705856 3.18075e+06 0 -686067 3.17527e+06 0 -666547 3.1696e+06 0 -647297 3.16375e+06 0 -628320 3.15774e+06 0 -609617 3.15157e+06 0 -591188 3.14526e+06 0 -573035 3.13883e+06 0 -555156 3.13227e+06 0 -537552 3.12561e+06 0 -520222 3.11884e+06 0 -503166 3.11199e+06 0 -486382 3.10506e+06 0 -469869 3.09806e+06 0 -453626 3.091e+06 0 -437652 3.08389e+06 0 -421943 3.07673e+06 0 -406500 3.06953e+06 0 -391319 3.06231e+06 0 -376399 3.05507e+06 0 -361737 3.04781e+06 0 -347332 3.04054e+06 0 -333181 3.03327e+06 0 -319281 3.026e+06 0 -305631 3.01874e+06 0 -292229 3.0115e+06 0 -279071 3.00428e+06 0 -266155 2.99708e+06 0 -253480 2.98992e+06 0 -241042 2.98279e+06 0 -228840 2.97569e+06 0 -216872 2.96864e+06 0 -205134 2.96164e+06 0 -193625 2.95469e+06 0 -182343 2.94779e+06 0 -171285 2.94095e+06 0 -160450 2.93417e+06 0 -149836 2.92746e+06 0 -139439 2.92081e+06 0 -129260 2.91423e+06 0 -119295 2.90772e+06 0 -109543 2.90128e+06 0 -100003 2.89493e+06 0 -90672.3 2.88865e+06 0 -81549.6 2.88245e+06 0 -72633.4 2.87634e+06 0 -63922.4 2.87031e+06 0 -55415.1 2.86436e+06 0 -47110.2 2.8585e+06 0 -39006.4 2.85273e+06 0 -31102.6 2.84706e+06 0 -1.94425e+06 2.57715e+06 0 -1.94507e+06 2.58699e+06 0 -1.94555e+06 2.59735e+06 0 -1.94566e+06 2.60822e+06 0 -1.94537e+06 2.61957e+06 0 -1.94467e+06 2.63139e+06 0 -1.94354e+06 2.64367e+06 0 -1.94194e+06 2.65639e+06 0 -1.93987e+06 2.66952e+06 0 -1.93729e+06 2.68304e+06 0 -1.93419e+06 2.69693e+06 0 -1.93054e+06 2.71117e+06 0 -1.92633e+06 2.72572e+06 0 -1.92155e+06 2.74057e+06 0 -1.91617e+06 2.75568e+06 0 -1.91018e+06 2.77103e+06 0 -1.90356e+06 2.78658e+06 0 -1.89631e+06 2.80231e+06 0 -1.88842e+06 2.81817e+06 0 -1.87986e+06 2.83415e+06 0 -1.87065e+06 2.8502e+06 0 -1.86077e+06 2.86629e+06 0 -1.85022e+06 2.8824e+06 0 -1.839e+06 2.89847e+06 0 -1.82711e+06 2.91449e+06 0 -1.81455e+06 2.93041e+06 0 -1.80133e+06 2.94621e+06 0 -1.78745e+06 2.96185e+06 0 -1.77292e+06 2.97729e+06 0 -1.75776e+06 2.99251e+06 0 -1.74197e+06 3.00747e+06 0 -1.72557e+06 3.02214e+06 0 -1.70858e+06 3.03651e+06 0 -1.69101e+06 3.05052e+06 0 -1.67289e+06 3.06417e+06 0 -1.65423e+06 3.07743e+06 0 -1.63505e+06 3.09027e+06 0 -1.61539e+06 3.10267e+06 0 -1.59526e+06 3.11462e+06 0 -1.57469e+06 3.12608e+06 0 -1.5537e+06 3.13706e+06 0 -1.53233e+06 3.14753e+06 0 -1.5106e+06 3.15748e+06 0 -1.48854e+06 3.1669e+06 0 -1.46617e+06 3.17578e+06 0 -1.44354e+06 3.18412e+06 0 -1.42065e+06 3.19191e+06 0 -1.39755e+06 3.19915e+06 0 -1.37425e+06 3.20583e+06 0 -1.3508e+06 3.21195e+06 0 -1.3272e+06 3.21753e+06 0 -1.3035e+06 3.22255e+06 0 -1.27972e+06 3.22703e+06 0 -1.25588e+06 3.23097e+06 0 -1.232e+06 3.23438e+06 0 -1.20812e+06 3.23727e+06 0 -1.18424e+06 3.23964e+06 0 -1.16041e+06 3.24151e+06 0 -1.13662e+06 3.24289e+06 0 -1.11292e+06 3.24378e+06 0 -1.0893e+06 3.24421e+06 0 -1.0658e+06 3.24419e+06 0 -1.04242e+06 3.24373e+06 0 -1.01919e+06 3.24284e+06 0 -996116 3.24154e+06 0 -973213 3.23984e+06 0 -950494 3.23776e+06 0 -927970 3.23532e+06 0 -905652 3.23253e+06 0 -883551 3.2294e+06 0 -861673 3.22594e+06 0 -840029 3.22219e+06 0 -818624 3.21814e+06 0 -797465 3.21382e+06 0 -776559 3.20924e+06 0 -755909 3.20441e+06 0 -735521 3.19935e+06 0 -715397 3.19408e+06 0 -695542 3.18859e+06 0 -675958 3.18292e+06 0 -656646 3.17706e+06 0 -637609 3.17104e+06 0 -618847 3.16487e+06 0 -600361 3.15855e+06 0 -582153 3.1521e+06 0 -564221 3.14553e+06 0 -546565 3.13885e+06 0 -529186 3.13208e+06 0 -512082 3.12521e+06 0 -495251 3.11826e+06 0 -478694 3.11124e+06 0 -462408 3.10417e+06 0 -446392 3.09703e+06 0 -430644 3.08986e+06 0 -415162 3.08264e+06 0 -399944 3.0754e+06 0 -384988 3.06813e+06 0 -370292 3.06084e+06 0 -355854 3.05355e+06 0 -341671 3.04626e+06 0 -327741 3.03896e+06 0 -314062 3.03168e+06 0 -300631 3.02441e+06 0 -287446 3.01716e+06 0 -274504 3.00993e+06 0 -261803 3.00273e+06 0 -249341 2.99557e+06 0 -237116 2.98844e+06 0 -225124 2.98136e+06 0 -213364 2.97432e+06 0 -201834 2.96733e+06 0 -190531 2.9604e+06 0 -179453 2.95352e+06 0 -168597 2.9467e+06 0 -157963 2.93994e+06 0 -147548 2.93325e+06 0 -137349 2.92663e+06 0 -127365 2.92007e+06 0 -117594 2.91359e+06 0 -108035 2.90719e+06 0 -98685 2.90086e+06 0 -89543 2.89461e+06 0 -80607.2 2.88844e+06 0 -71876.2 2.88235e+06 0 -63348.5 2.87635e+06 0 -55022.6 2.87043e+06 0 -46897.2 2.8646e+06 0 -38971 2.85886e+06 0 -1.95781e+06 2.58436e+06 0 -1.9587e+06 2.5943e+06 0 -1.95923e+06 2.60477e+06 0 -1.9594e+06 2.61574e+06 0 -1.95917e+06 2.6272e+06 0 -1.95852e+06 2.63914e+06 0 -1.95743e+06 2.65154e+06 0 -1.95588e+06 2.66437e+06 0 -1.95384e+06 2.67762e+06 0 -1.95129e+06 2.69126e+06 0 -1.94822e+06 2.70527e+06 0 -1.9446e+06 2.71963e+06 0 -1.94042e+06 2.73431e+06 0 -1.93565e+06 2.74929e+06 0 -1.93028e+06 2.76453e+06 0 -1.9243e+06 2.78e+06 0 -1.91769e+06 2.79568e+06 0 -1.91044e+06 2.81154e+06 0 -1.90254e+06 2.82753e+06 0 -1.89398e+06 2.84364e+06 0 -1.88475e+06 2.85982e+06 0 -1.87485e+06 2.87604e+06 0 -1.86428e+06 2.89227e+06 0 -1.85303e+06 2.90848e+06 0 -1.84111e+06 2.92463e+06 0 -1.82852e+06 2.94068e+06 0 -1.81526e+06 2.9566e+06 0 -1.80134e+06 2.97236e+06 0 -1.78676e+06 2.98793e+06 0 -1.77155e+06 3.00327e+06 0 -1.7557e+06 3.01836e+06 0 -1.73925e+06 3.03316e+06 0 -1.72219e+06 3.04763e+06 0 -1.70456e+06 3.06177e+06 0 -1.68637e+06 3.07553e+06 0 -1.66763e+06 3.0889e+06 0 -1.64838e+06 3.10185e+06 0 -1.62864e+06 3.11436e+06 0 -1.60843e+06 3.12641e+06 0 -1.58777e+06 3.13797e+06 0 -1.5667e+06 3.14905e+06 0 -1.54525e+06 3.15961e+06 0 -1.52342e+06 3.16965e+06 0 -1.50127e+06 3.17916e+06 0 -1.47881e+06 3.18813e+06 0 -1.45608e+06 3.19655e+06 0 -1.4331e+06 3.20442e+06 0 -1.40989e+06 3.21173e+06 0 -1.3865e+06 3.21848e+06 0 -1.36295e+06 3.22468e+06 0 -1.33925e+06 3.23032e+06 0 -1.31545e+06 3.2354e+06 0 -1.29157e+06 3.23994e+06 0 -1.26762e+06 3.24394e+06 0 -1.24365e+06 3.2474e+06 0 -1.21966e+06 3.25033e+06 0 -1.19569e+06 3.25275e+06 0 -1.17176e+06 3.25466e+06 0 -1.14787e+06 3.25608e+06 0 -1.12407e+06 3.25701e+06 0 -1.10036e+06 3.25748e+06 0 -1.07676e+06 3.25748e+06 0 -1.05329e+06 3.25705e+06 0 -1.02996e+06 3.25619e+06 0 -1.0068e+06 3.25491e+06 0 -983803 3.25323e+06 0 -960994 3.25117e+06 0 -938383 3.24875e+06 0 -915980 3.24596e+06 0 -893794 3.24285e+06 0 -871834 3.23941e+06 0 -850109 3.23566e+06 0 -828625 3.23162e+06 0 -807390 3.2273e+06 0 -786408 3.22272e+06 0 -765685 3.2179e+06 0 -745226 3.21284e+06 0 -725033 3.20756e+06 0 -705110 3.20207e+06 0 -685460 3.19639e+06 0 -666084 3.19053e+06 0 -646985 3.1845e+06 0 -628163 3.17832e+06 0 -609620 3.17199e+06 0 -591355 3.16553e+06 0 -573368 3.15895e+06 0 -555660 3.15226e+06 0 -538230 3.14547e+06 0 -521076 3.13859e+06 0 -504198 3.13162e+06 0 -487595 3.12459e+06 0 -471265 3.11749e+06 0 -455206 3.11034e+06 0 -439416 3.10315e+06 0 -423895 3.09591e+06 0 -408638 3.08864e+06 0 -393646 3.08135e+06 0 -378914 3.07405e+06 0 -364442 3.06673e+06 0 -350226 3.05941e+06 0 -336264 3.05209e+06 0 -322555 3.04478e+06 0 -309094 3.03749e+06 0 -295881 3.03021e+06 0 -282911 3.02295e+06 0 -270184 3.01573e+06 0 -257697 3.00853e+06 0 -245447 3.00137e+06 0 -233431 2.99426e+06 0 -221648 2.98718e+06 0 -210095 2.98016e+06 0 -198770 2.97319e+06 0 -187670 2.96627e+06 0 -176794 2.95941e+06 0 -166139 2.95262e+06 0 -155703 2.94588e+06 0 -145484 2.93922e+06 0 -135480 2.93262e+06 0 -125690 2.92609e+06 0 -116110 2.91964e+06 0 -106740 2.91326e+06 0 -97578 2.90696e+06 0 -88621.8 2.90074e+06 0 -79870 2.8946e+06 0 -71321.1 2.88854e+06 0 -62973.4 2.88257e+06 0 -54825.8 2.87668e+06 0 -46876.5 2.87088e+06 0 -1.97154e+06 2.59155e+06 0 -1.97248e+06 2.6016e+06 0 -1.97308e+06 2.61218e+06 0 -1.9733e+06 2.62326e+06 0 -1.97313e+06 2.63484e+06 0 -1.97253e+06 2.64689e+06 0 -1.97148e+06 2.6594e+06 0 -1.96997e+06 2.67236e+06 0 -1.96797e+06 2.68573e+06 0 -1.96546e+06 2.69949e+06 0 -1.96242e+06 2.71363e+06 0 -1.95883e+06 2.72812e+06 0 -1.95467e+06 2.74293e+06 0 -1.94992e+06 2.75803e+06 0 -1.94456e+06 2.7734e+06 0 -1.93859e+06 2.789e+06 0 -1.93198e+06 2.80482e+06 0 -1.92473e+06 2.8208e+06 0 -1.91683e+06 2.83693e+06 0 -1.90826e+06 2.85317e+06 0 -1.89902e+06 2.86949e+06 0 -1.88911e+06 2.88584e+06 0 -1.87851e+06 2.90221e+06 0 -1.86724e+06 2.91855e+06 0 -1.85529e+06 2.93482e+06 0 -1.84266e+06 2.95101e+06 0 -1.82936e+06 2.96706e+06 0 -1.81539e+06 2.98295e+06 0 -1.80077e+06 2.99865e+06 0 -1.7855e+06 3.01412e+06 0 -1.76961e+06 3.02933e+06 0 -1.75309e+06 3.04425e+06 0 -1.73597e+06 3.05885e+06 0 -1.71827e+06 3.0731e+06 0 -1.70001e+06 3.08698e+06 0 -1.6812e+06 3.10046e+06 0 -1.66188e+06 3.11352e+06 0 -1.64205e+06 3.12614e+06 0 -1.62176e+06 3.13829e+06 0 -1.60102e+06 3.14997e+06 0 -1.57986e+06 3.16114e+06 0 -1.55831e+06 3.1718e+06 0 -1.5364e+06 3.18194e+06 0 -1.51415e+06 3.19154e+06 0 -1.4916e+06 3.20059e+06 0 -1.46877e+06 3.2091e+06 0 -1.44569e+06 3.21704e+06 0 -1.42239e+06 3.22443e+06 0 -1.3989e+06 3.23126e+06 0 -1.37524e+06 3.23752e+06 0 -1.35144e+06 3.24323e+06 0 -1.32754e+06 3.24838e+06 0 -1.30355e+06 3.25298e+06 0 -1.27951e+06 3.25703e+06 0 -1.25543e+06 3.26054e+06 0 -1.23134e+06 3.26353e+06 0 -1.20727e+06 3.26599e+06 0 -1.18323e+06 3.26795e+06 0 -1.15925e+06 3.26941e+06 0 -1.13535e+06 3.27038e+06 0 -1.11154e+06 3.27088e+06 0 -1.08784e+06 3.27092e+06 0 -1.06427e+06 3.27051e+06 0 -1.04085e+06 3.26968e+06 0 -1.01759e+06 3.26842e+06 0 -994508 3.26677e+06 0 -971609 3.26473e+06 0 -948908 3.26232e+06 0 -926417 3.25955e+06 0 -904146 3.25645e+06 0 -882102 3.25302e+06 0 -860295 3.24928e+06 0 -838731 3.24525e+06 0 -817416 3.24093e+06 0 -796358 3.23636e+06 0 -775560 3.23153e+06 0 -755028 3.22647e+06 0 -734764 3.22119e+06 0 -714772 3.2157e+06 0 -695055 3.21002e+06 0 -675614 3.20415e+06 0 -656451 3.19812e+06 0 -637568 3.19193e+06 0 -618965 3.18559e+06 0 -600642 3.17912e+06 0 -582600 3.17253e+06 0 -564838 3.16583e+06 0 -547355 3.15902e+06 0 -530150 3.15212e+06 0 -513224 3.14515e+06 0 -496573 3.1381e+06 0 -480197 3.13098e+06 0 -464094 3.12382e+06 0 -448262 3.1166e+06 0 -432700 3.10935e+06 0 -417404 3.10206e+06 0 -402373 3.09475e+06 0 -387605 3.08742e+06 0 -373097 3.08008e+06 0 -358847 3.07274e+06 0 -344853 3.0654e+06 0 -331111 3.05806e+06 0 -317620 3.05074e+06 0 -304377 3.04343e+06 0 -291379 3.03615e+06 0 -278625 3.02889e+06 0 -266111 3.02167e+06 0 -253835 3.01448e+06 0 -241794 3.00733e+06 0 -229987 3.00023e+06 0 -218410 2.99317e+06 0 -207062 2.98616e+06 0 -195939 2.97921e+06 0 -185041 2.97231e+06 0 -174364 2.96548e+06 0 -163907 2.95871e+06 0 -153667 2.952e+06 0 -143642 2.94536e+06 0 -133831 2.93879e+06 0 -124230 2.93229e+06 0 -114839 2.92587e+06 0 -105656 2.91952e+06 0 -96678.6 2.91325e+06 0 -87905.3 2.90706e+06 0 -79334.3 2.90095e+06 0 -70964.3 2.89492e+06 0 -62793.6 2.88898e+06 0 -54820.6 2.88312e+06 0 -1.98542e+06 2.59872e+06 0 -1.98644e+06 2.60888e+06 0 -1.98709e+06 2.61957e+06 0 -1.98738e+06 2.63077e+06 0 -1.98725e+06 2.64247e+06 0 -1.98671e+06 2.65464e+06 0 -1.98571e+06 2.66728e+06 0 -1.98424e+06 2.68035e+06 0 -1.98228e+06 2.69385e+06 0 -1.97981e+06 2.70774e+06 0 -1.9768e+06 2.72201e+06 0 -1.97323e+06 2.73662e+06 0 -1.96909e+06 2.75156e+06 0 -1.96436e+06 2.7668e+06 0 -1.95902e+06 2.7823e+06 0 -1.95305e+06 2.79804e+06 0 -1.94645e+06 2.81399e+06 0 -1.9392e+06 2.83011e+06 0 -1.93129e+06 2.84637e+06 0 -1.92272e+06 2.86275e+06 0 -1.91346e+06 2.8792e+06 0 -1.90353e+06 2.89569e+06 0 -1.89292e+06 2.9122e+06 0 -1.88162e+06 2.92867e+06 0 -1.86963e+06 2.94508e+06 0 -1.85697e+06 2.9614e+06 0 -1.84363e+06 2.97759e+06 0 -1.82962e+06 2.99361e+06 0 -1.81495e+06 3.00944e+06 0 -1.79963e+06 3.02504e+06 0 -1.78368e+06 3.04037e+06 0 -1.7671e+06 3.05542e+06 0 -1.74992e+06 3.07014e+06 0 -1.73215e+06 3.08452e+06 0 -1.71382e+06 3.09852e+06 0 -1.69494e+06 3.11212e+06 0 -1.67553e+06 3.12529e+06 0 -1.65563e+06 3.13802e+06 0 -1.63525e+06 3.15028e+06 0 -1.61443e+06 3.16206e+06 0 -1.59318e+06 3.17334e+06 0 -1.57154e+06 3.1841e+06 0 -1.54954e+06 3.19433e+06 0 -1.52719e+06 3.20402e+06 0 -1.50454e+06 3.21317e+06 0 -1.48161e+06 3.22176e+06 0 -1.45843e+06 3.22979e+06 0 -1.43503e+06 3.23726e+06 0 -1.41144e+06 3.24416e+06 0 -1.38768e+06 3.25049e+06 0 -1.36378e+06 3.25627e+06 0 -1.33977e+06 3.26148e+06 0 -1.31568e+06 3.26614e+06 0 -1.29153e+06 3.27026e+06 0 -1.26735e+06 3.27382e+06 0 -1.24316e+06 3.27686e+06 0 -1.21898e+06 3.27938e+06 0 -1.19484e+06 3.28138e+06 0 -1.17076e+06 3.28288e+06 0 -1.14675e+06 3.28389e+06 0 -1.12284e+06 3.28442e+06 0 -1.09905e+06 3.2845e+06 0 -1.07538e+06 3.28412e+06 0 -1.05187e+06 3.28331e+06 0 -1.02851e+06 3.28208e+06 0 -1.00533e+06 3.28045e+06 0 -982339 3.27843e+06 0 -959548 3.27604e+06 0 -936968 3.27329e+06 0 -914609 3.2702e+06 0 -892479 3.26678e+06 0 -870588 3.26305e+06 0 -848942 3.25903e+06 0 -827548 3.25472e+06 0 -806411 3.25015e+06 0 -785537 3.24533e+06 0 -764930 3.24027e+06 0 -744593 3.23498e+06 0 -724531 3.22949e+06 0 -704745 3.2238e+06 0 -685237 3.21793e+06 0 -666010 3.21189e+06 0 -647064 3.2057e+06 0 -628399 3.19935e+06 0 -610017 3.19287e+06 0 -591918 3.18627e+06 0 -574100 3.17955e+06 0 -556563 3.17274e+06 0 -539307 3.16583e+06 0 -522330 3.15884e+06 0 -505631 3.15177e+06 0 -489208 3.14464e+06 0 -473059 3.13746e+06 0 -457184 3.13022e+06 0 -441579 3.12295e+06 0 -426242 3.11565e+06 0 -411172 3.10832e+06 0 -396366 3.10097e+06 0 -381822 3.09361e+06 0 -367536 3.08624e+06 0 -353508 3.07887e+06 0 -339733 3.07151e+06 0 -326210 3.06417e+06 0 -312937 3.05683e+06 0 -299909 3.04952e+06 0 -287126 3.04224e+06 0 -274584 3.03499e+06 0 -262281 3.02777e+06 0 -250214 3.02059e+06 0 -238381 3.01345e+06 0 -226780 3.00636e+06 0 -215408 2.99932e+06 0 -204262 2.99234e+06 0 -193340 2.98541e+06 0 -182641 2.97853e+06 0 -172161 2.97172e+06 0 -161899 2.96498e+06 0 -151852 2.9583e+06 0 -142019 2.95168e+06 0 -132397 2.94514e+06 0 -122984 2.93868e+06 0 -113779 2.93228e+06 0 -104779 2.92597e+06 0 -95983.5 2.91973e+06 0 -87389.8 2.91357e+06 0 -78996.5 2.90749e+06 0 -70802.1 2.90149e+06 0 -62804.8 2.89558e+06 0 -1.99948e+06 2.60587e+06 0 -2.00056e+06 2.61615e+06 0 -2.00128e+06 2.62696e+06 0 -2.00162e+06 2.63828e+06 0 -2.00155e+06 2.65009e+06 0 -2.00106e+06 2.66239e+06 0 -2.00011e+06 2.67515e+06 0 -1.99869e+06 2.68835e+06 0 -1.99677e+06 2.70197e+06 0 -1.99433e+06 2.716e+06 0 -1.99135e+06 2.7304e+06 0 -1.98781e+06 2.74515e+06 0 -1.98369e+06 2.76022e+06 0 -1.97898e+06 2.77559e+06 0 -1.97365e+06 2.79123e+06 0 -1.96769e+06 2.80711e+06 0 -1.9611e+06 2.82319e+06 0 -1.95385e+06 2.83945e+06 0 -1.94594e+06 2.85586e+06 0 -1.93735e+06 2.87237e+06 0 -1.92809e+06 2.88896e+06 0 -1.91814e+06 2.9056e+06 0 -1.9075e+06 2.92224e+06 0 -1.89617e+06 2.93885e+06 0 -1.88416e+06 2.9554e+06 0 -1.87146e+06 2.97186e+06 0 -1.85808e+06 2.98818e+06 0 -1.84402e+06 3.00434e+06 0 -1.8293e+06 3.0203e+06 0 -1.81393e+06 3.03603e+06 0 -1.79792e+06 3.0515e+06 0 -1.78129e+06 3.06667e+06 0 -1.76404e+06 3.08153e+06 0 -1.7462e+06 3.09603e+06 0 -1.7278e+06 3.11015e+06 0 -1.70884e+06 3.12387e+06 0 -1.68936e+06 3.13716e+06 0 -1.66937e+06 3.15e+06 0 -1.64891e+06 3.16237e+06 0 -1.628e+06 3.17426e+06 0 -1.60666e+06 3.18564e+06 0 -1.58493e+06 3.1965e+06 0 -1.56283e+06 3.20683e+06 0 -1.54039e+06 3.21662e+06 0 -1.51764e+06 3.22586e+06 0 -1.49461e+06 3.23454e+06 0 -1.47133e+06 3.24265e+06 0 -1.44783e+06 3.2502e+06 0 -1.42413e+06 3.25718e+06 0 -1.40027e+06 3.26359e+06 0 -1.37626e+06 3.26944e+06 0 -1.35215e+06 3.27472e+06 0 -1.32795e+06 3.27944e+06 0 -1.3037e+06 3.28361e+06 0 -1.27941e+06 3.28724e+06 0 -1.25512e+06 3.29033e+06 0 -1.23083e+06 3.2929e+06 0 -1.20659e+06 3.29494e+06 0 -1.1824e+06 3.29649e+06 0 -1.15829e+06 3.29754e+06 0 -1.13428e+06 3.29811e+06 0 -1.11038e+06 3.29822e+06 0 -1.08662e+06 3.2