<?xml version="1.0"?> 
<VTKFile type="StructuredGrid" version="0.1"> 
<StructuredGrid WholeExtent="0 127 0 127 0 0"> 
<Piece Extent="0 127 0 127 0 0"> 
<PointData>
<DataArray type="Float32" Name="E" format="ascii" NumberOfComponents="3"> 
1.33514e-05 8.35506e+06 0 -3.15456e+06 694380 0 -2.49074e+06 1.00892e+06 0 -2.65716e+06 266805 0 -2.56777e+06 177489 0 -2.60844e+06 -43446.9 0 -2.6237e+06 -143257 0 -2.66181e+06 -237466 0 -2.70023e+06 -296796 0 -2.74347e+06 -338721 0 -2.78755e+06 -362169 0 -2.8321e+06 -371192 0 -2.876e+06 -367418 0 -2.91865e+06 -352772 0 -2.95952e+06 -328765 0 -2.99822e+06 -296767 0 -3.03444e+06 -257981 0 -3.06796e+06 -213476 0 -3.09861e+06 -164201 0 -3.12629e+06 -111002 0 -3.15095e+06 -54626.3 0 -3.17257e+06 4262.73 0 -3.19119e+06 65078.7 0 -3.20684e+06 127304 0 -3.21962e+06 190485 0 -3.22961e+06 254222 0 -3.23693e+06 318166 0 -3.24171e+06 382016 0 -3.24406e+06 445510 0 -3.24413e+06 508422 0 -3.24206e+06 570561 0 -3.23798e+06 631764 0 -3.23204e+06 691895 0 -3.22437e+06 750842 0 -3.2151e+06 808513 0 -3.20436e+06 864834 0 -3.19227e+06 919749 0 -3.17896e+06 973216 0 -3.16452e+06 1.0252e+06 0 -3.14907e+06 1.0757e+06 0 -3.13272e+06 1.12468e+06 0 -3.11554e+06 1.17216e+06 0 -3.09764e+06 1.21813e+06 0 -3.07908e+06 1.26262e+06 0 -3.05996e+06 1.30563e+06 0 -3.04034e+06 1.3472e+06 0 -3.02028e+06 1.38733e+06 0 -2.99986e+06 1.42607e+06 0 -2.97912e+06 1.46344e+06 0 -2.95811e+06 1.49947e+06 0 -2.9369e+06 1.5342e+06 0 -2.91551e+06 1.56766e+06 0 -2.89399e+06 1.59988e+06 0 -2.87237e+06 1.63091e+06 0 -2.8507e+06 1.66077e+06 0 -2.829e+06 1.68951e+06 0 -2.80729e+06 1.71715e+06 0 -2.78561e+06 1.74374e+06 0 -2.76398e+06 1.76931e+06 0 -2.74241e+06 1.79389e+06 0 -2.72092e+06 1.81751e+06 0 -2.69954e+06 1.84021e+06 0 -2.67827e+06 1.86203e+06 0 -2.65713e+06 1.88298e+06 0 -2.63614e+06 1.9031e+06 0 -2.61529e+06 1.92243e+06 0 -2.59461e+06 1.94098e+06 0 -2.57409e+06 1.9588e+06 0 -2.55375e+06 1.97589e+06 0 -2.53359e+06 1.9923e+06 0 -2.51362e+06 2.00804e+06 0 -2.49384e+06 2.02314e+06 0 -2.47425e+06 2.03762e+06 0 -2.45486e+06 2.0515e+06 0 -2.43566e+06 2.06482e+06 0 -2.41667e+06 2.07758e+06 0 -2.39788e+06 2.0898e+06 0 -2.3793e+06 2.10151e+06 0 -2.36091e+06 2.11273e+06 0 -2.34273e+06 2.12347e+06 0 -2.32476e+06 2.13376e+06 0 -2.30698e+06 2.14359e+06 0 -2.28941e+06 2.153e+06 0 -2.27204e+06 2.162e+06 0 -2.25487e+06 2.17061e+06 0 -2.23789e+06 2.17882e+06 0 -2.22111e+06 2.18667e+06 0 -2.20453e+06 2.19417e+06 0 -2.18814e+06 2.20132e+06 0 -2.17194e+06 2.20813e+06 0 -2.15593e+06 2.21463e+06 0 -2.1401e+06 2.22082e+06 0 -2.12446e+06 2.22671e+06 0 -2.109e+06 2.23231e+06 0 -2.09372e+06 2.23763e+06 0 -2.07861e+06 2.24269e+06 0 -2.06368e+06 2.24748e+06 0 -2.04892e+06 2.25203e+06 0 -2.03434e+06 2.25633e+06 0 -2.01991e+06 2.2604e+06 0 -2.00566e+06 2.26424e+06 0 -1.99156e+06 2.26786e+06 0 -1.97763e+06 2.27127e+06 0 -1.96385e+06 2.27448e+06 0 -1.95022e+06 2.27748e+06 0 -1.93675e+06 2.2803e+06 0 -1.92343e+06 2.28293e+06 0 -1.91025e+06 2.28538e+06 0 -1.89722e+06 2.28766e+06 0 -1.88434e+06 2.28977e+06 0 -1.87159e+06 2.29171e+06 0 -1.85898e+06 2.2935e+06 0 -1.8465e+06 2.29514e+06 0 -1.83416e+06 2.29663e+06 0 -1.82195e+06 2.29797e+06 0 -1.80987e+06 2.29917e+06 0 -1.79792e+06 2.30024e+06 0 -1.78609e+06 2.30118e+06 0 -1.77438e+06 2.30199e+06 0 -1.76279e+06 2.30268e+06 0 -1.75132e+06 2.30325e+06 0 -1.73997e+06 2.3037e+06 0 -1.72873e+06 2.30404e+06 0 -1.71761e+06 2.30427e+06 0 -1.70659e+06 2.3044e+06 0 -1.69569e+06 2.30442e+06 0 -1.68488e+06 2.30434e+06 0 -1.67418e+06 2.30417e+06 0 -3.97861e-06 5.73164e+06 0 -2.75041e+06 1.8499e+06 0 -2.60575e+06 728009 0 -2.55956e+06 483846 0 -2.58684e+06 144936 0 -2.57877e+06 8186.64 0 -2.6159e+06 -136347 0 -2.64688e+06 -222055 0 -2.68909e+06 -290865 0 -2.73209e+06 -334684 0 -2.77735e+06 -361860 0 -2.82259e+06 -373413 0 -2.86734e+06 -372074 0 -2.91079e+06 -359495 0 -2.95247e+06 -337314 0 -2.99197e+06 -306905 0 -3.02899e+06 -269498 0 -3.06329e+06 -226182 0 -3.09472e+06 -177924 0 -3.12317e+06 -125584 0 -3.14859e+06 -69926.2 0 -3.17095e+06 -11627.1 0 -3.19029e+06 48714.5 0 -3.20664e+06 110570 0 -3.2201e+06 173474 0 -3.23074e+06 237019 0 -3.23869e+06 300847 0 -3.24406e+06 364648 0 -3.24699e+06 428152 0 -3.2476e+06 491128 0 -3.24604e+06 553377 0 -3.24245e+06 614731 0 -3.23696e+06 675049 0 -3.22972e+06 734214 0 -3.22085e+06 792130 0 -3.21049e+06 848719 0 -3.19875e+06 903922 0 -3.18575e+06 957692 0 -3.17162e+06 1.01e+06 0 -3.15645e+06 1.06082e+06 0 -3.14035e+06 1.11014e+06 0 -3.12341e+06 1.15796e+06 0 -3.10572e+06 1.20428e+06 0 -3.08736e+06 1.24911e+06 0 -3.06842e+06 1.29248e+06 0 -3.04896e+06 1.33439e+06 0 -3.02905e+06 1.37487e+06 0 -3.00876e+06 1.41396e+06 0 -2.98814e+06 1.45167e+06 0 -2.96724e+06 1.48804e+06 0 -2.94612e+06 1.52311e+06 0 -2.92481e+06 1.5569e+06 0 -2.90337e+06 1.58946e+06 0 -2.88182e+06 1.6208e+06 0 -2.8602e+06 1.65099e+06 0 -2.83854e+06 1.68003e+06 0 -2.81688e+06 1.70798e+06 0 -2.79523e+06 1.73487e+06 0 -2.77362e+06 1.76073e+06 0 -2.75207e+06 1.78559e+06 0 -2.73061e+06 1.8095e+06 0 -2.70923e+06 1.83247e+06 0 -2.68798e+06 1.85455e+06 0 -2.66684e+06 1.87577e+06 0 -2.64584e+06 1.89615e+06 0 -2.625e+06 1.91572e+06 0 -2.60431e+06 1.93452e+06 0 -2.58378e+06 1.95257e+06 0 -2.56343e+06 1.9699e+06 0 -2.54325e+06 1.98653e+06 0 -2.52327e+06 2.00249e+06 0 -2.50347e+06 2.01781e+06 0 -2.48386e+06 2.0325e+06 0 -2.46445e+06 2.04659e+06 0 -2.44523e+06 2.06011e+06 0 -2.42622e+06 2.07306e+06 0 -2.40741e+06 2.08548e+06 0 -2.3888e+06 2.09738e+06 0 -2.37039e+06 2.10878e+06 0 -2.35219e+06 2.1197e+06 0 -2.33419e+06 2.13016e+06 0 -2.31639e+06 2.14017e+06 0 -2.2988e+06 2.14975e+06 0 -2.2814e+06 2.15891e+06 0 -2.26421e+06 2.16767e+06 0 -2.24721e+06 2.17605e+06 0 -2.23041e+06 2.18405e+06 0 -2.2138e+06 2.19169e+06 0 -2.19739e+06 2.19899e+06 0 -2.18116e+06 2.20595e+06 0 -2.16513e+06 2.21259e+06 0 -2.14928e+06 2.21892e+06 0 -2.13362e+06 2.22495e+06 0 -2.11814e+06 2.23068e+06 0 -2.10284e+06 2.23614e+06 0 -2.08772e+06 2.24132e+06 0 -2.07277e+06 2.24625e+06 0 -2.05799e+06 2.25092e+06 0 -2.04339e+06 2.25534e+06 0 -2.02895e+06 2.25953e+06 0 -2.01468e+06 2.26349e+06 0 -2.00057e+06 2.26724e+06 0 -1.98662e+06 2.27076e+06 0 -1.97283e+06 2.27408e+06 0 -1.95919e+06 2.27721e+06 0 -1.94571e+06 2.28014e+06 0 -1.93238e+06 2.28288e+06 0 -1.91919e+06 2.28544e+06 0 -1.90615e+06 2.28782e+06 0 -1.89326e+06 2.29004e+06 0 -1.8805e+06 2.29209e+06 0 -1.86788e+06 2.29399e+06 0 -1.85541e+06 2.29573e+06 0 -1.84306e+06 2.29732e+06 0 -1.83085e+06 2.29877e+06 0 -1.81876e+06 2.30007e+06 0 -1.80681e+06 2.30124e+06 0 -1.79497e+06 2.30228e+06 0 -1.78327e+06 2.30319e+06 0 -1.77168e+06 2.30398e+06 0 -1.76021e+06 2.30465e+06 0 -1.74886e+06 2.3052e+06 0 -1.73763e+06 2.30564e+06 0 -1.72651e+06 2.30597e+06 0 -1.7155e+06 2.30619e+06 0 -1.70459e+06 2.30631e+06 0 -1.6938e+06 2.30633e+06 0 -1.68311e+06 2.30625e+06 0 5.31971e-06 3.9601e+06 0 -2.34857e+06 2.4366e+06 0 -2.64364e+06 793095 0 -2.51239e+06 523737 0 -2.56983e+06 205462 0 -2.56675e+06 19901.1 0 -2.5984e+06 -110318 0 -2.63532e+06 -212940 0 -2.67583e+06 -281353 0 -2.72088e+06 -331021 0 -2.7665e+06 -360633 0 -2.81277e+06 -375276 0 -2.85828e+06 -376283 0 -2.90258e+06 -365881 0 -2.94508e+06 -345569 0 -2.9854e+06 -316802 0 -3.02323e+06 -280821 0 -3.05833e+06 -238736 0 -3.09056e+06 -191534 0 -3.11979e+06 -140091 0 -3.14597e+06 -85184.7 0 -3.16909e+06 -27506 0 -3.18916e+06 32333.8 0 -3.20623e+06 93794.3 0 -3.22038e+06 156400 0 -3.23169e+06 219732 0 -3.24027e+06 283425 0 -3.24626e+06 347160 0 -3.24976e+06 410660 0 -3.25093e+06 473687 0 -3.2499e+06 536035 0 -3.24681e+06 597531 0 -3.24179e+06 658028 0 -3.23498e+06 717404 0 -3.22653e+06 775559 0 -3.21655e+06 832412 0 -3.20517e+06 887898 0 -3.19251e+06 941968 0 -3.17868e+06 994588 0 -3.1638e+06 1.04573e+06 0 -3.14796e+06 1.09539e+06 0 -3.13126e+06 1.14355e+06 0 -3.11379e+06 1.19022e+06 0 -3.09564e+06 1.2354e+06 0 -3.07688e+06 1.27912e+06 0 -3.05759e+06 1.32138e+06 0 -3.03784e+06 1.36222e+06 0 -3.01768e+06 1.40165e+06 0 -2.99719e+06 1.43971e+06 0 -2.9764e+06 1.47643e+06 0 -2.95538e+06 1.51183e+06 0 -2.93416e+06 1.54596e+06 0 -2.9128e+06 1.57885e+06 0 -2.89131e+06 1.61052e+06 0 -2.86976e+06 1.64102e+06 0 -2.84815e+06 1.67038e+06 0 -2.82653e+06 1.69864e+06 0 -2.80492e+06 1.72583e+06 0 -2.78334e+06 1.75199e+06 0 -2.76182e+06 1.77714e+06 0 -2.74037e+06 1.80133e+06 0 -2.71901e+06 1.82458e+06 0 -2.69776e+06 1.84693e+06 0 -2.67663e+06 1.86841e+06 0 -2.65564e+06 1.88905e+06 0 -2.63479e+06 1.90888e+06 0 -2.61409e+06 1.92792e+06 0 -2.59356e+06 1.94622e+06 0 -2.57319e+06 1.96378e+06 0 -2.55301e+06 1.98064e+06 0 -2.53301e+06 1.99683e+06 0 -2.51319e+06 2.01236e+06 0 -2.49357e+06 2.02727e+06 0 -2.47414e+06 2.04157e+06 0 -2.4549e+06 2.05528e+06 0 -2.43587e+06 2.06844e+06 0 -2.41704e+06 2.08105e+06 0 -2.3984e+06 2.09314e+06 0 -2.37998e+06 2.10473e+06 0 -2.36175e+06 2.11583e+06 0 -2.34373e+06 2.12646e+06 0 -2.3259e+06 2.13665e+06 0 -2.30829e+06 2.1464e+06 0 -2.29087e+06 2.15572e+06 0 -2.27365e+06 2.16465e+06 0 -2.25663e+06 2.17318e+06 0 -2.2398e+06 2.18134e+06 0 -2.22317e+06 2.18914e+06 0 -2.20674e+06 2.19659e+06 0 -2.19049e+06 2.2037e+06 0 -2.17444e+06 2.21048e+06 0 -2.15857e+06 2.21695e+06 0 -2.14288e+06 2.22311e+06 0 -2.12738e+06 2.22899e+06 0 -2.11206e+06 2.23458e+06 0 -2.09692e+06 2.23989e+06 0 -2.08196e+06 2.24495e+06 0 -2.06716e+06 2.24974e+06 0 -2.05254e+06 2.2543e+06 0 -2.03809e+06 2.25861e+06 0 -2.0238e+06 2.26269e+06 0 -2.00968e+06 2.26655e+06 0 -1.99571e+06 2.2702e+06 0 -1.98191e+06 2.27364e+06 0 -1.96826e+06 2.27688e+06 0 -1.95477e+06 2.27992e+06 0 -1.94142e+06 2.28277e+06 0 -1.92823e+06 2.28545e+06 0 -1.91518e+06 2.28794e+06 0 -1.90228e+06 2.29027e+06 0 -1.88952e+06 2.29243e+06 0 -1.87689e+06 2.29443e+06 0 -1.86441e+06 2.29627e+06 0 -1.85206e+06 2.29797e+06 0 -1.83984e+06 2.29952e+06 0 -1.82775e+06 2.30093e+06 0 -1.81579e+06 2.3022e+06 0 -1.80396e+06 2.30334e+06 0 -1.79225e+06 2.30436e+06 0 -1.78067e+06 2.30524e+06 0 -1.7692e+06 2.30601e+06 0 -1.75785e+06 2.30666e+06 0 -1.74662e+06 2.3072e+06 0 -1.7355e+06 2.30763e+06 0 -1.7245e+06 2.30795e+06 0 -1.7136e+06 2.30817e+06 0 -1.70282e+06 2.30828e+06 0 -1.69213e+06 2.3083e+06 0 -5.27501e-06 2.78961e+06 0 -1.97341e+06 2.65453e+06 0 -2.60737e+06 1.01325e+06 0 -2.49449e+06 524846 0 -2.53704e+06 273467 0 -2.55703e+06 39477.9 0 -2.58049e+06 -89233.2 0 -2.62204e+06 -198760 0 -2.66288e+06 -273180 0 -2.70871e+06 -325656 0 -2.75544e+06 -359262 0 -2.80244e+06 -376464 0 -2.84888e+06 -380131 0 -2.894e+06 -371879 0 -2.93735e+06 -353523 0 -2.9785e+06 -326442 0 -3.01716e+06 -291937 0 -3.05308e+06 -251129 0 -3.08611e+06 -205023 0 -3.11614e+06 -154514 0 -3.14311e+06 -100393 0 -3.16699e+06 -43365.9 0 -3.18781e+06 15943.4 0 -3.2056e+06 76983.1 0 -3.22045e+06 139266 0 -3.23244e+06 202365 0 -3.24168e+06 265905 0 -3.24828e+06 329557 0 -3.25239e+06 393038 0 -3.25412e+06 456102 0 -3.25363e+06 518538 0 -3.25104e+06 580165 0 -3.24651e+06 640833 0 -3.24015e+06 700413 0 -3.23212e+06 758800 0 -3.22253e+06 815911 0 -3.21152e+06 871676 0 -3.19921e+06 926043 0 -3.1857e+06 978975 0 -3.17111e+06 1.03044e+06 0 -3.15555e+06 1.08043e+06 0 -3.1391e+06 1.12893e+06 0 -3.12186e+06 1.17595e+06 0 -3.10392e+06 1.22148e+06 0 -3.08536e+06 1.26555e+06 0 -3.06624e+06 1.30817e+06 0 -3.04665e+06 1.34936e+06 0 -3.02664e+06 1.38914e+06 0 -3.00627e+06 1.42755e+06 0 -2.9856e+06 1.46462e+06 0 -2.96468e+06 1.50037e+06 0 -2.94356e+06 1.53483e+06 0 -2.92228e+06 1.56805e+06 0 -2.90087e+06 1.60005e+06 0 -2.87937e+06 1.63088e+06 0 -2.85782e+06 1.66056e+06 0 -2.83625e+06 1.68913e+06 0 -2.81468e+06 1.71662e+06 0 -2.79313e+06 1.74308e+06 0 -2.77163e+06 1.76852e+06 0 -2.75021e+06 1.793e+06 0 -2.72886e+06 1.81653e+06 0 -2.70763e+06 1.83916e+06 0 -2.6865e+06 1.86091e+06 0 -2.66551e+06 1.88181e+06 0 -2.64466e+06 1.90189e+06 0 -2.62396e+06 1.92119e+06 0 -2.60342e+06 1.93972e+06 0 -2.58305e+06 1.95752e+06 0 -2.56286e+06 1.97462e+06 0 -2.54284e+06 1.99103e+06 0 -2.52301e+06 2.00679e+06 0 -2.50337e+06 2.02191e+06 0 -2.48392e+06 2.03642e+06 0 -2.46467e+06 2.05035e+06 0 -2.44561e+06 2.0637e+06 0 -2.42676e+06 2.07651e+06 0 -2.40811e+06 2.0888e+06 0 -2.38966e+06 2.10057e+06 0 -2.37141e+06 2.11186e+06 0 -2.35336e+06 2.12267e+06 0 -2.33552e+06 2.13303e+06 0 -2.31787e+06 2.14295e+06 0 -2.30043e+06 2.15245e+06 0 -2.28319e+06 2.16154e+06 0 -2.26615e+06 2.17023e+06 0 -2.2493e+06 2.17855e+06 0 -2.23265e+06 2.1865e+06 0 -2.21619e+06 2.1941e+06 0 -2.19992e+06 2.20136e+06 0 -2.18384e+06 2.20829e+06 0 -2.16795e+06 2.2149e+06 0 -2.15225e+06 2.22121e+06 0 -2.13673e+06 2.22722e+06 0 -2.12139e+06 2.23295e+06 0 -2.10623e+06 2.2384e+06 0 -2.09125e+06 2.24358e+06 0 -2.07644e+06 2.24851e+06 0 -2.0618e+06 2.25319e+06 0 -2.04733e+06 2.25762e+06 0 -2.03303e+06 2.26183e+06 0 -2.01889e+06 2.26581e+06 0 -2.00491e+06 2.26958e+06 0 -1.99109e+06 2.27314e+06 0 -1.97743e+06 2.27649e+06 0 -1.96393e+06 2.27965e+06 0 -1.95057e+06 2.28262e+06 0 -1.93737e+06 2.2854e+06 0 -1.92431e+06 2.28801e+06 0 -1.9114e+06 2.29044e+06 0 -1.89863e+06 2.29271e+06 0 -1.886e+06 2.29482e+06 0 -1.87351e+06 2.29677e+06 0 -1.86116e+06 2.29858e+06 0 -1.84894e+06 2.30023e+06 0 -1.83685e+06 2.30175e+06 0 -1.82489e+06 2.30312e+06 0 -1.81305e+06 2.30437e+06 0 -1.80134e+06 2.30548e+06 0 -1.78976e+06 2.30647e+06 0 -1.77829e+06 2.30734e+06 0 -1.76695e+06 2.30809e+06 0 -1.75572e+06 2.30873e+06 0 -1.7446e+06 2.30925e+06 0 -1.7336e+06 2.30967e+06 0 -1.72271e+06 2.30999e+06 0 -1.71193e+06 2.3102e+06 0 -1.70126e+06 2.31032e+06 0 4.97699e-06 2.03424e+06 0 -1.63635e+06 2.64831e+06 0 -2.50931e+06 1.27097e+06 0 -2.48603e+06 549808 0 -2.50116e+06 323812 0 -2.54287e+06 73344.5 0 -2.56438e+06 -72084 0 -2.60669e+06 -181942 0 -2.64989e+06 -264288 0 -2.69593e+06 -319800 0 -2.74391e+06 -357074 0 -2.79172e+06 -377264 0 -2.83906e+06 -383466 0 -2.88506e+06 -377527 0 -2.92926e+06 -361143 0 -2.97127e+06 -335819 0 -3.01076e+06 -302833 0 -3.04752e+06 -263347 0 -3.08138e+06 -218380 0 -3.11222e+06 -168843 0 -3.13998e+06 -115543 0 -3.16464e+06 -59199.8 0 -3.18621e+06 -450.331 0 -3.20475e+06 60141.7 0 -3.22031e+06 122079 0 -3.23299e+06 184922 0 -3.2429e+06 248288 0 -3.25014e+06 311841 0 -3.25485e+06 375287 0 -3.25717e+06 438375 0 -3.25723e+06 500886 0 -3.25516e+06 562634 0 -3.25112e+06 623462 0 -3.24523e+06 683238 0 -3.23763e+06 741852 0 -3.22845e+06 799215 0 -3.21781e+06 855255 0 -3.20585e+06 909916 0 -3.19267e+06 963156 0 -3.17839e+06 1.01495e+06 0 -3.1631e+06 1.06527e+06 0 -3.14692e+06 1.11411e+06 0 -3.12992e+06 1.16147e+06 0 -3.1122e+06 1.20736e+06 0 -3.09383e+06 1.25178e+06 0 -3.0749e+06 1.29475e+06 0 -3.05547e+06 1.3363e+06 0 -3.03561e+06 1.37643e+06 0 -3.01538e+06 1.4152e+06 0 -2.99484e+06 1.45261e+06 0 -2.97403e+06 1.4887e+06 0 -2.953e+06 1.52351e+06 0 -2.9318e+06 1.55706e+06 0 -2.91047e+06 1.5894e+06 0 -2.88905e+06 1.62055e+06 0 -2.86755e+06 1.65055e+06 0 -2.84603e+06 1.67944e+06 0 -2.8245e+06 1.70724e+06 0 -2.80299e+06 1.734e+06 0 -2.78153e+06 1.75974e+06 0 -2.76012e+06 1.78451e+06 0 -2.7388e+06 1.80832e+06 0 -2.71757e+06 1.83123e+06 0 -2.69646e+06 1.85325e+06 0 -2.67547e+06 1.87441e+06 0 -2.65463e+06 1.89476e+06 0 -2.63392e+06 1.91431e+06 0 -2.61338e+06 1.93309e+06 0 -2.593e+06 1.95113e+06 0 -2.5728e+06 1.96846e+06 0 -2.55277e+06 1.98511e+06 0 -2.53292e+06 2.00109e+06 0 -2.51327e+06 2.01643e+06 0 -2.4938e+06 2.03116e+06 0 -2.47453e+06 2.04529e+06 0 -2.45546e+06 2.05885e+06 0 -2.43659e+06 2.07186e+06 0 -2.41791e+06 2.08434e+06 0 -2.39944e+06 2.09631e+06 0 -2.38117e+06 2.10778e+06 0 -2.3631e+06 2.11878e+06 0 -2.34523e+06 2.12931e+06 0 -2.32757e+06 2.13941e+06 0 -2.3101e+06 2.14908e+06 0 -2.29284e+06 2.15833e+06 0 -2.27577e+06 2.1672e+06 0 -2.2589e+06 2.17567e+06 0 -2.24222e+06 2.18378e+06 0 -2.22574e+06 2.19153e+06 0 -2.20946e+06 2.19894e+06 0 -2.19336e+06 2.20602e+06 0 -2.17745e+06 2.21278e+06 0 -2.16172e+06 2.21923e+06 0 -2.14618e+06 2.22538e+06 0 -2.13082e+06 2.23124e+06 0 -2.11565e+06 2.23683e+06 0 -2.10064e+06 2.24214e+06 0 -2.08582e+06 2.2472e+06 0 -2.07116e+06 2.25201e+06 0 -2.05668e+06 2.25658e+06 0 -2.04236e+06 2.26091e+06 0 -2.0282e+06 2.26501e+06 0 -2.01421e+06 2.2689e+06 0 -2.00038e+06 2.27258e+06 0 -1.98671e+06 2.27605e+06 0 -1.97319e+06 2.27932e+06 0 -1.95983e+06 2.28241e+06 0 -1.94662e+06 2.2853e+06 0 -1.93355e+06 2.28802e+06 0 -1.92063e+06 2.29057e+06 0 -1.90785e+06 2.29295e+06 0 -1.89522e+06 2.29517e+06 0 -1.88272e+06 2.29723e+06 0 -1.87036e+06 2.29914e+06 0 -1.85814e+06 2.3009e+06 0 -1.84604e+06 2.30252e+06 0 -1.83408e+06 2.304e+06 0 -1.82225e+06 2.30535e+06 0 -1.81054e+06 2.30656e+06 0 -1.79895e+06 2.30765e+06 0 -1.78749e+06 2.30862e+06 0 -1.77614e+06 2.30948e+06 0 -1.76492e+06 2.31021e+06 0 -1.75381e+06 2.31084e+06 0 -1.74281e+06 2.31136e+06 0 -1.73193e+06 2.31177e+06 0 -1.72115e+06 2.31209e+06 0 -1.71048e+06 2.3123e+06 0 -3.8445e-06 1.55831e+06 0 -1.34299e+06 2.51557e+06 0 -2.3639e+06 1.50189e+06 0 -2.47175e+06 617480 0 -2.46842e+06 357796 0 -2.52248e+06 115569 0 -2.54945e+06 -53902.7 0 -2.5901e+06 -165055 0 -2.63621e+06 -253624 0 -2.68281e+06 -313649 0 -2.73179e+06 -354091 0 -2.78061e+06 -377560 0 -2.82881e+06 -386341 0 -2.87573e+06 -382765 0 -2.92081e+06 -368433 0 -2.96368e+06 -344908 0 -3.00404e+06 -313498 0 -3.04165e+06 -275380 0 -3.07634e+06 -231594 0 -3.108e+06 -183068 0 -3.13657e+06 -130626 0 -3.16203e+06 -75000 0 -3.18438e+06 -16840.6 0 -3.20367e+06 43276.2 0 -3.21996e+06 104842 0 -3.23334e+06 167407 0 -3.24392e+06 230580 0 -3.25182e+06 294014 0 -3.25715e+06 357409 0 -3.26006e+06 420506 0 -3.26068e+06 483080 0 -3.25915e+06 544938 0 -3.25561e+06 605918 0 -3.25019e+06 665881 0 -3.24304e+06 724714 0 -3.23428e+06 782324 0 -3.22404e+06 838633 0 -3.21244e+06 893584 0 -3.1996e+06 947131 0 -3.18563e+06 999241 0 -3.17063e+06 1.04989e+06 0 -3.15471e+06 1.09907e+06 0 -3.13796e+06 1.14678e+06 0 -3.12047e+06 1.19302e+06 0 -3.10231e+06 1.23779e+06 0 -3.08357e+06 1.28112e+06 0 -3.06431e+06 1.32302e+06 0 -3.04461e+06 1.36352e+06 0 -3.02452e+06 1.40263e+06 0 -3.00411e+06 1.4404e+06 0 -2.98341e+06 1.47684e+06 0 -2.96249e+06 1.51199e+06 0 -2.94138e+06 1.54589e+06 0 -2.92013e+06 1.57856e+06 0 -2.89878e+06 1.61004e+06 0 -2.87735e+06 1.64036e+06 0 -2.85588e+06 1.66956e+06 0 -2.8344e+06 1.69768e+06 0 -2.81293e+06 1.72474e+06 0 -2.79149e+06 1.75079e+06 0 -2.77011e+06 1.77585e+06 0 -2.74881e+06 1.79995e+06 0 -2.7276e+06 1.82314e+06 0 -2.7065e+06 1.84543e+06 0 -2.68552e+06 1.86687e+06 0 -2.66468e+06 1.88747e+06 0 -2.64398e+06 1.90728e+06 0 -2.62343e+06 1.92631e+06 0 -2.60305e+06 1.9446e+06 0 -2.58283e+06 1.96217e+06 0 -2.56279e+06 1.97905e+06 0 -2.54294e+06 1.99526e+06 0 -2.52327e+06 2.01083e+06 0 -2.50379e+06 2.02577e+06 0 -2.4845e+06 2.04012e+06 0 -2.46541e+06 2.05388e+06 0 -2.44651e+06 2.0671e+06 0 -2.42782e+06 2.07977e+06 0 -2.40933e+06 2.09193e+06 0 -2.39103e+06 2.1036e+06 0 -2.37294e+06 2.11478e+06 0 -2.35505e+06 2.1255e+06 0 -2.33736e+06 2.13577e+06 0 -2.31988e+06 2.14561e+06 0 -2.30259e+06 2.15504e+06 0 -2.2855e+06 2.16406e+06 0 -2.26861e+06 2.1727e+06 0 -2.25191e+06 2.18097e+06 0 -2.23541e+06 2.18888e+06 0 -2.2191e+06 2.19644e+06 0 -2.20298e+06 2.20367e+06 0 -2.18705e+06 2.21058e+06 0 -2.1713e+06 2.21717e+06 0 -2.15574e+06 2.22346e+06 0 -2.14037e+06 2.22947e+06 0 -2.12517e+06 2.23519e+06 0 -2.11015e+06 2.24064e+06 0 -2.0953e+06 2.24583e+06 0 -2.08063e+06 2.25077e+06 0 -2.06613e+06 2.25546e+06 0 -2.0518e+06 2.25992e+06 0 -2.03763e+06 2.26415e+06 0 -2.02363e+06 2.26816e+06 0 -2.00978e+06 2.27196e+06 0 -1.9961e+06 2.27555e+06 0 -1.98257e+06 2.27894e+06 0 -1.96919e+06 2.28214e+06 0 -1.95597e+06 2.28515e+06 0 -1.9429e+06 2.28799e+06 0 -1.92997e+06 2.29065e+06 0 -1.91718e+06 2.29314e+06 0 -1.90454e+06 2.29547e+06 0 -1.89204e+06 2.29764e+06 0 -1.87967e+06 2.29965e+06 0 -1.86745e+06 2.30152e+06 0 -1.85535e+06 2.30325e+06 0 -1.84338e+06 2.30483e+06 0 -1.83155e+06 2.30628e+06 0 -1.81984e+06 2.3076e+06 0 -1.80825e+06 2.3088e+06 0 -1.79679e+06 2.30987e+06 0 -1.78545e+06 2.31082e+06 0 -1.77422e+06 2.31166e+06 0 -1.76312e+06 2.31239e+06 0 -1.75212e+06 2.31301e+06 0 -1.74124e+06 2.31352e+06 0 -1.73048e+06 2.31394e+06 0 -1.71982e+06 2.31425e+06 0 -1.19209e-07 1.26485e+06 0 -1.09404e+06 2.32098e+06 0 -2.18624e+06 1.67572e+06 0 -2.44114e+06 723395 0 -2.44015e+06 386360 0 -2.49691e+06 158589 0 -2.53399e+06 -31150.1 0 -2.57316e+06 -148922 0 -2.62146e+06 -241271 0 -2.66937e+06 -306874 0 -2.71911e+06 -350491 0 -2.76905e+06 -377234 0 -2.81814e+06 -388767 0 -2.86599e+06 -387575 0 -2.91198e+06 -375374 0 -2.95574e+06 -353699 0 -2.99698e+06 -323917 0 -3.03545e+06 -287214 0 -3.07099e+06 -244655 0 -3.10349e+06 -197181 0 -3.13289e+06 -145633 0 -3.15915e+06 -90758.3 0 -3.18229e+06 -33220.3 0 -3.20234e+06 26392.8 0 -3.21938e+06 87561.1 0 -3.23348e+06 149826 0 -3.24475e+06 212783 0 -3.25331e+06 276080 0 -3.25928e+06 339408 0 -3.2628e+06 402499 0 -3.26399e+06 465122 0 -3.26301e+06 527078 0 -3.25998e+06 588199 0 -3.25505e+06 648341 0 -3.24836e+06 707386 0 -3.24002e+06 765236 0 -3.23018e+06 821810 0 -3.21896e+06 877046 0 -3.20647e+06 930895 0 -3.19282e+06 983323 0 -3.17813e+06 1.0343e+06 0 -3.16248e+06 1.08382e+06 0 -3.14599e+06 1.13188e+06 0 -3.12873e+06 1.17847e+06 0 -3.11079e+06 1.2236e+06 0 -3.09224e+06 1.26728e+06 0 -3.07317e+06 1.30954e+06 0 -3.05363e+06 1.35039e+06 0 -3.03369e+06 1.38986e+06 0 -3.01341e+06 1.42798e+06 0 -2.99283e+06 1.46477e+06 0 -2.97202e+06 1.50027e+06 0 -2.95101e+06 1.53451e+06 0 -2.92985e+06 1.56752e+06 0 -2.90857e+06 1.59933e+06 0 -2.8872e+06 1.62998e+06 0 -2.86579e+06 1.65951e+06 0 -2.84436e+06 1.68794e+06 0 -2.82293e+06 1.71531e+06 0 -2.80153e+06 1.74166e+06 0 -2.78018e+06 1.76702e+06 0 -2.75891e+06 1.79141e+06 0 -2.73772e+06 1.81488e+06 0 -2.71663e+06 1.83746e+06 0 -2.69566e+06 1.85917e+06 0 -2.67482e+06 1.88004e+06 0 -2.65412e+06 1.90011e+06 0 -2.63357e+06 1.91939e+06 0 -2.61318e+06 1.93793e+06 0 -2.59296e+06 1.95574e+06 0 -2.57292e+06 1.97286e+06 0 -2.55305e+06 1.9893e+06 0 -2.53336e+06 2.00509e+06 0 -2.51387e+06 2.02026e+06 0 -2.49456e+06 2.03482e+06 0 -2.47545e+06 2.0488e+06 0 -2.45654e+06 2.06222e+06 0 -2.43783e+06 2.07509e+06 0 -2.41932e+06 2.08745e+06 0 -2.401e+06 2.0993e+06 0 -2.38289e+06 2.11067e+06 0 -2.36498e+06 2.12158e+06 0 -2.34727e+06 2.13203e+06 0 -2.32976e+06 2.14205e+06 0 -2.31245e+06 2.15164e+06 0 -2.29534e+06 2.16084e+06 0 -2.27842e+06 2.16964e+06 0 -2.2617e+06 2.17807e+06 0 -2.24518e+06 2.18614e+06 0 -2.22885e+06 2.19386e+06 0 -2.21271e+06 2.20124e+06 0 -2.19676e+06 2.20829e+06 0 -2.18099e+06 2.21503e+06 0 -2.16541e+06 2.22147e+06 0 -2.15002e+06 2.22762e+06 0 -2.1348e+06 2.23348e+06 0 -2.11976e+06 2.23906e+06 0 -2.1049e+06 2.24439e+06 0 -2.09021e+06 2.24946e+06 0 -2.07569e+06 2.25428e+06 0 -2.06134e+06 2.25887e+06 0 -2.04716e+06 2.26323e+06 0 -2.03314e+06 2.26736e+06 0 -2.01929e+06 2.27128e+06 0 -2.00559e+06 2.27499e+06 0 -1.99205e+06 2.2785e+06 0 -1.97867e+06 2.28182e+06 0 -1.96543e+06 2.28495e+06 0 -1.95235e+06 2.2879e+06 0 -1.93941e+06 2.29067e+06 0 -1.92662e+06 2.29328e+06 0 -1.91397e+06 2.29571e+06 0 -1.90146e+06 2.29799e+06 0 -1.8891e+06 2.30012e+06 0 -1.87686e+06 2.3021e+06 0 -1.86476e+06 2.30393e+06 0 -1.85279e+06 2.30562e+06 0 -1.84096e+06 2.30718e+06 0 -1.82925e+06 2.3086e+06 0 -1.81766e+06 2.3099e+06 0 -1.8062e+06 2.31108e+06 0 -1.79486e+06 2.31213e+06 0 -1.78364e+06 2.31307e+06 0 -1.77253e+06 2.3139e+06 0 -1.76154e+06 2.31462e+06 0 -1.75067e+06 2.31524e+06 0 -1.73991e+06 2.31575e+06 0 -1.72926e+06 2.31616e+06 0 1.43051e-06 1.08622e+06 0 -887238 2.10522e+06 0 -1.99014e+06 1.78366e+06 0 -2.38839e+06 852875 0 -2.41437e+06 420616 0 -2.4682e+06 198023 0 -2.51649e+06 -3232.62 0 -2.55624e+06 -132699 0 -2.60562e+06 -227934 0 -2.65544e+06 -299050 0 -2.70595e+06 -346379 0 -2.75699e+06 -376249 0 -2.80706e+06 -390707 0 -2.85583e+06 -391951 0 -2.90276e+06 -381941 0 -2.94743e+06 -362180 0 -2.98956e+06 -334076 0 -3.02892e+06 -298839 0 -3.06533e+06 -257549 0 -3.09868e+06 -211169 0 -3.12892e+06 -160554 0 -3.156e+06 -106466 0 -3.17994e+06 -49582 0 -3.20077e+06 9498.07 0 -3.21856e+06 70242.3 0 -3.2334e+06 132181 0 -3.24538e+06 194902 0 -3.25461e+06 258042 0 -3.26123e+06 321285 0 -3.26537e+06 384354 0 -3.26715e+06 447013 0 -3.26673e+06 509055 0 -3.26423e+06 570306 0 -3.2598e+06 630618 0 -3.25357e+06 689867 0 -3.24568e+06 747950 0 -3.23625e+06 804783 0 -3.22541e+06 860300 0 -3.21328e+06 914449 0 -3.19997e+06 967191 0 -3.18558e+06 1.0185e+06 0 -3.17023e+06 1.06836e+06 0 -3.154e+06 1.11676e+06 0 -3.13698e+06 1.1637e+06 0 -3.11926e+06 1.20918e+06 0 -3.10092e+06 1.25322e+06 0 -3.08203e+06 1.29584e+06 0 -3.06267e+06 1.33705e+06 0 -3.04288e+06 1.37688e+06 0 -3.02274e+06 1.41536e+06 0 -3.00229e+06 1.4525e+06 0 -2.98159e+06 1.48835e+06 0 -2.96068e+06 1.52293e+06 0 -2.93961e+06 1.55628e+06 0 -2.91841e+06 1.58843e+06 0 -2.89712e+06 1.61941e+06 0 -2.87577e+06 1.64926e+06 0 -2.85439e+06 1.67801e+06 0 -2.83301e+06 1.7057e+06 0 -2.81165e+06 1.73236e+06 0 -2.79033e+06 1.75801e+06 0 -2.76908e+06 1.78271e+06 0 -2.74791e+06 1.80646e+06 0 -2.72684e+06 1.82932e+06 0 -2.70588e+06 1.8513e+06 0 -2.68505e+06 1.87245e+06 0 -2.66436e+06 1.89278e+06 0 -2.64381e+06 1.91232e+06 0 -2.62342e+06 1.93111e+06 0 -2.60319e+06 1.94917e+06 0 -2.58313e+06 1.96653e+06 0 -2.56326e+06 1.9832e+06 0 -2.54356e+06 1.99922e+06 0 -2.52405e+06 2.01461e+06 0 -2.50473e+06 2.02939e+06 0 -2.48561e+06 2.04358e+06 0 -2.46668e+06 2.05721e+06 0 -2.44794e+06 2.07029e+06 0 -2.42941e+06 2.08285e+06 0 -2.41108e+06 2.0949e+06 0 -2.39294e+06 2.10646e+06 0 -2.37501e+06 2.11755e+06 0 -2.35728e+06 2.12818e+06 0 -2.33975e+06 2.13838e+06 0 -2.32242e+06 2.14815e+06 0 -2.30528e+06 2.15752e+06 0 -2.28835e+06 2.16649e+06 0 -2.27161e+06 2.17508e+06 0 -2.25506e+06 2.18331e+06 0 -2.23871e+06 2.19119e+06 0 -2.22255e+06 2.19872e+06 0 -2.20658e+06 2.20593e+06 0 -2.19079e+06 2.21282e+06 0 -2.17519e+06 2.2194e+06 0 -2.15978e+06 2.22569e+06 0 -2.14454e+06 2.23169e+06 0 -2.12949e+06 2.23742e+06 0 -2.11461e+06 2.24288e+06 0 -2.0999e+06 2.24808e+06 0 -2.08537e+06 2.25304e+06 0 -2.071e+06 2.25775e+06 0 -2.05681e+06 2.26223e+06 0 -2.04278e+06 2.26649e+06 0 -2.02891e+06 2.27054e+06 0 -2.0152e+06 2.27437e+06 0 -2.00165e+06 2.27801e+06 0 -1.98825e+06 2.28144e+06 0 -1.97501e+06 2.28469e+06 0 -1.96191e+06 2.28775e+06 0 -1.94897e+06 2.29064e+06 0 -1.93617e+06 2.29336e+06 0 -1.92351e+06 2.29591e+06 0 -1.911e+06 2.2983e+06 0 -1.89863e+06 2.30054e+06 0 -1.88639e+06 2.30262e+06 0 -1.87429e+06 2.30456e+06 0 -1.86232e+06 2.30636e+06 0 -1.85048e+06 2.30803e+06 0 -1.83876e+06 2.30956e+06 0 -1.82718e+06 2.31096e+06 0 -1.81572e+06 2.31224e+06 0 -1.80438e+06 2.3134e+06 0 -1.79316e+06 2.31444e+06 0 -1.78206e+06 2.31537e+06 0 -1.77108e+06 2.3162e+06 0 -1.76021e+06 2.31691e+06 0 -1.74945e+06 2.31752e+06 0 -1.7388e+06 2.31804e+06 0 -3.39746e-06 976496 0 -718551 1.89234e+06 0 -1.78742e+06 1.8293e+06 0 -2.31167e+06 988991 0 -2.38741e+06 467813 0 -2.43819e+06 233267 0 -2.49611e+06 28445.5 0 -2.53915e+06 -115024 0 -2.58893e+06 -214163 0 -2.64081e+06 -290020 0 -2.69233e+06 -341675 0 -2.74439e+06 -374649 0 -2.79554e+06 -392102 0 -2.84526e+06 -395890 0 -2.89314e+06 -388114 0 -2.93874e+06 -370335 0 -2.98178e+06 -343961 0 -3.02204e+06 -310239 0 -3.05933e+06 -270266 0 -3.09356e+06 -225023 0 -3.12465e+06 -175380 0 -3.15256e+06 -122115 0 -3.17732e+06 -65917.8 0 -3.19895e+06 -7401.14 0 -3.21751e+06 52891.5 0 -3.23309e+06 114480 0 -3.24579e+06 176941 0 -3.25572e+06 239904 0 -3.263e+06 303043 0 -3.26777e+06 366075 0 -3.27015e+06 428754 0 -3.2703e+06 490870 0 -3.26834e+06 552240 0 -3.26443e+06 612712 0 -3.25868e+06 672156 0 -3.25124e+06 730466 0 -3.24224e+06 787552 0 -3.2318e+06 843345 0 -3.22003e+06 897789 0 -3.20706e+06 950843 0 -3.193e+06 1.00248e+06 0 -3.17794e+06 1.05267e+06 0 -3.16198e+06 1.10141e+06 0 -3.14522e+06 1.1487e+06 0 -3.12773e+06 1.19454e+06 0 -3.1096e+06 1.23895e+06 0 -3.09091e+06 1.28192e+06 0 -3.07172e+06 1.3235e+06 0 -3.0521e+06 1.36369e+06 0 -3.0321e+06 1.40252e+06 0 -3.01179e+06 1.44002e+06 0 -2.9912e+06 1.47622e+06 0 -2.9704e+06 1.51115e+06 0 -2.94943e+06 1.54484e+06 0 -2.92831e+06 1.57733e+06 0 -2.90709e+06 1.60865e+06 0 -2.88581e+06 1.63883e+06 0 -2.86449e+06 1.6679e+06 0 -2.84316e+06 1.69591e+06 0 -2.82184e+06 1.72287e+06 0 -2.80056e+06 1.74883e+06 0 -2.77934e+06 1.77382e+06 0 -2.75819e+06 1.79787e+06 0 -2.73714e+06 1.82102e+06 0 -2.7162e+06 1.84328e+06 0 -2.69537e+06 1.8647e+06 0 -2.67468e+06 1.88529e+06 0 -2.65414e+06 1.9051e+06 0 -2.63375e+06 1.92414e+06 0 -2.61352e+06 1.94245e+06 0 -2.59345e+06 1.96005e+06 0 -2.57357e+06 1.97696e+06 0 -2.55386e+06 1.99322e+06 0 -2.53434e+06 2.00883e+06 0 -2.51501e+06 2.02384e+06 0 -2.49586e+06 2.03825e+06 0 -2.47692e+06 2.05209e+06 0 -2.45817e+06 2.06538e+06 0 -2.43961e+06 2.07813e+06 0 -2.42126e+06 2.09038e+06 0 -2.40311e+06 2.10213e+06 0 -2.38516e+06 2.11341e+06 0 -2.3674e+06 2.12423e+06 0 -2.34985e+06 2.13461e+06 0 -2.3325e+06 2.14456e+06 0 -2.31534e+06 2.1541e+06 0 -2.29838e+06 2.16324e+06 0 -2.28162e+06 2.172e+06 0 -2.26506e+06 2.18039e+06 0 -2.24868e+06 2.18843e+06 0 -2.2325e+06 2.19612e+06 0 -2.21651e+06 2.20348e+06 0 -2.2007e+06 2.21052e+06 0 -2.18508e+06 2.21725e+06 0 -2.16965e+06 2.22368e+06 0 -2.1544e+06 2.22982e+06 0 -2.13932e+06 2.23569e+06 0 -2.12443e+06 2.24129e+06 0 -2.1097e+06 2.24663e+06 0 -2.09516e+06 2.25172e+06 0 -2.08078e+06 2.25656e+06 0 -2.06657e+06 2.26118e+06 0 -2.05252e+06 2.26557e+06 0 -2.03864e+06 2.26973e+06 0 -2.02492e+06 2.27369e+06 0 -2.01135e+06 2.27745e+06 0 -1.99795e+06 2.281e+06 0 -1.98469e+06 2.28437e+06 0 -1.97159e+06 2.28755e+06 0 -1.95864e+06 2.29056e+06 0 -1.94583e+06 2.29339e+06 0 -1.93317e+06 2.29605e+06 0 -1.92065e+06 2.29856e+06 0 -1.90827e+06 2.30091e+06 0 -1.89603e+06 2.3031e+06 0 -1.88392e+06 2.30515e+06 0 -1.87195e+06 2.30706e+06 0 -1.86011e+06 2.30883e+06 0 -1.8484e+06 2.31047e+06 0 -1.83681e+06 2.31198e+06 0 -1.82535e+06 2.31336e+06 0 -1.81401e+06 2.31462e+06 0 -1.8028e+06 2.31577e+06 0 -1.7917e+06 2.3168e+06 0 -1.78072e+06 2.31773e+06 0 -1.76986e+06 2.31855e+06 0 -1.7591e+06 2.31926e+06 0 -1.74847e+06 2.31988e+06 0 2.92063e-06 905538 0 -583072 1.69514e+06 0 -1.58742e+06 1.82242e+06 0 -2.21224e+06 1.11683e+06 0 -2.35509e+06 530372 0 -2.40794e+06 266447 0 -2.4727e+06 61816 0 -2.52138e+06 -94855.4 0 -2.57161e+06 -200048 0 -2.62536e+06 -279900 0 -2.67825e+06 -336207 0 -2.73127e+06 -372472 0 -2.78353e+06 -392914 0 -2.83425e+06 -399368 0 -2.8831e+06 -393881 0 -2.92966e+06 -378144 0 -2.97363e+06 -3