<?xml version="1.0"?> 
<VTKFile type="StructuredGrid" version="0.1"> 
<StructuredGrid WholeExtent="0 127 0 127 0 0"> 
<Piece Extent="0 127 0 127 0 0"> 
<PointData>
<DataArray type="Float32" Name="E" format="ascii" NumberOfComponents="3"> 
-1.04584e+06 6.55651e-07 0 -1.04584e+06 254.051 0 -1.04584e+06 508.102 0 -1.04584e+06 762.153 0 -1.04583e+06 1016.2 0 -1.04583e+06 1270.25 0 -1.04582e+06 1524.31 0 -1.04581e+06 1778.36 0 -1.0458e+06 2032.41 0 -1.04579e+06 2286.46 0 -1.04578e+06 2540.51 0 -1.04577e+06 2794.56 0 -1.04575e+06 3048.6 0 -1.04574e+06 3302.65 0 -1.04572e+06 3556.7 0 -1.0457e+06 3810.75 0 -1.04569e+06 4064.8 0 -1.04567e+06 4318.84 0 -1.04564e+06 4572.89 0 -1.04562e+06 4826.94 0 -1.0456e+06 5080.98 0 -1.04557e+06 5335.02 0 -1.04555e+06 5589.07 0 -1.04552e+06 5843.11 0 -1.04549e+06 6097.15 0 -1.04546e+06 6351.2 0 -1.04543e+06 6605.24 0 -1.0454e+06 6859.28 0 -1.04537e+06 7113.31 0 -1.04533e+06 7367.35 0 -1.0453e+06 7621.39 0 -1.04526e+06 7875.42 0 -1.04522e+06 8129.46 0 -1.04518e+06 8383.49 0 -1.04514e+06 8637.53 0 -1.0451e+06 8891.56 0 -1.04506e+06 9145.59 0 -1.04501e+06 9399.61 0 -1.04497e+06 9653.64 0 -1.04492e+06 9907.67 0 -1.04487e+06 10161.7 0 -1.04483e+06 10415.7 0 -1.04477e+06 10669.7 0 -1.04472e+06 10923.8 0 -1.04467e+06 11177.8 0 -1.04462e+06 11431.8 0 -1.04456e+06 11685.8 0 -1.04451e+06 11939.8 0 -1.04445e+06 12193.8 0 -1.04439e+06 12447.8 0 -1.04433e+06 12701.8 0 -1.04427e+06 12955.8 0 -1.04421e+06 13209.8 0 -1.04414e+06 13463.9 0 -1.04408e+06 13717.8 0 -1.04401e+06 13971.8 0 -1.04394e+06 14225.8 0 -1.04388e+06 14479.8 0 -1.04381e+06 14733.8 0 -1.04374e+06 14987.8 0 -1.04366e+06 15241.8 0 -1.04359e+06 15495.8 0 -1.04352e+06 15749.7 0 -1.04344e+06 16003.7 0 -1.04336e+06 16257.7 0 -1.04329e+06 16511.7 0 -1.04321e+06 16765.6 0 -1.04313e+06 17019.6 0 -1.04304e+06 17273.5 0 -1.04296e+06 17527.5 0 -1.04288e+06 17781.5 0 -1.04279e+06 18035.4 0 -1.0427e+06 18289.4 0 -1.04262e+06 18543.3 0 -1.04253e+06 18797.2 0 -1.04244e+06 19051.2 0 -1.04234e+06 19305.1 0 -1.04225e+06 19559 0 -1.04216e+06 19812.9 0 -1.04206e+06 20066.9 0 -1.04197e+06 20320.8 0 -1.04187e+06 20574.7 0 -1.04177e+06 20828.6 0 -1.04167e+06 21082.5 0 -1.04157e+06 21336.4 0 -1.04146e+06 21590.3 0 -1.04136e+06 21844.2 0 -1.04126e+06 22098.1 0 -1.04115e+06 22351.9 0 -1.04104e+06 22605.8 0 -1.04093e+06 22859.7 0 -1.04082e+06 23113.5 0 -1.04071e+06 23367.4 0 -1.0406e+06 23621.2 0 -1.04048e+06 23875.1 0 -1.04037e+06 24128.9 0 -1.04025e+06 24382.8 0 -1.04014e+06 24636.6 0 -1.04002e+06 24890.4 0 -1.0399e+06 25144.2 0 -1.03978e+06 25398 0 -1.03965e+06 25651.9 0 -1.03953e+06 25905.6 0 -1.0394e+06 26159.4 0 -1.03928e+06 26413.2 0 -1.03915e+06 26667 0 -1.03902e+06 26920.8 0 -1.03889e+06 27174.6 0 -1.03876e+06 27428.3 0 -1.03863e+06 27682.1 0 -1.03849e+06 27935.8 0 -1.03836e+06 28189.6 0 -1.03822e+06 28443.3 0 -1.03809e+06 28697 0 -1.03795e+06 28950.7 0 -1.03781e+06 29204.4 0 -1.03767e+06 29458.2 0 -1.03752e+06 29711.9 0 -1.03738e+06 29965.5 0 -1.03723e+06 30219.2 0 -1.03709e+06 30472.9 0 -1.03694e+06 30726.6 0 -1.03679e+06 30980.2 0 -1.03664e+06 31233.9 0 -1.03649e+06 31487.5 0 -1.03634e+06 31741.2 0 -1.03618e+06 31994.9 0 -1.03603e+06 32248.6 0 -1.04766e+06 -3.87483e-07 0 -1.04766e+06 262.546 0 -1.04766e+06 525.093 0 -1.04765e+06 787.639 0 -1.04765e+06 1050.19 0 -1.04764e+06 1312.73 0 -1.04764e+06 1575.28 0 -1.04763e+06 1837.83 0 -1.04762e+06 2100.37 0 -1.04761e+06 2362.92 0 -1.0476e+06 2625.47 0 -1.04759e+06 2888.01 0 -1.04757e+06 3150.56 0 -1.04756e+06 3413.11 0 -1.04754e+06 3675.66 0 -1.04752e+06 3938.21 0 -1.0475e+06 4200.75 0 -1.04748e+06 4463.3 0 -1.04746e+06 4725.85 0 -1.04744e+06 4988.4 0 -1.04742e+06 5250.95 0 -1.04739e+06 5513.5 0 -1.04737e+06 5776.05 0 -1.04734e+06 6038.6 0 -1.04731e+06 6301.15 0 -1.04728e+06 6563.7 0 -1.04725e+06 6826.26 0 -1.04722e+06 7088.81 0 -1.04719e+06 7351.36 0 -1.04715e+06 7613.91 0 -1.04711e+06 7876.47 0 -1.04708e+06 8139.02 0 -1.04704e+06 8401.58 0 -1.047e+06 8664.13 0 -1.04696e+06 8926.69 0 -1.04692e+06 9189.24 0 -1.04688e+06 9451.8 0 -1.04683e+06 9714.35 0 -1.04679e+06 9976.91 0 -1.04674e+06 10239.5 0 -1.04669e+06 10502 0 -1.04664e+06 10764.6 0 -1.04659e+06 11027.1 0 -1.04654e+06 11289.7 0 -1.04649e+06 11552.3 0 -1.04643e+06 11814.8 0 -1.04638e+06 12077.4 0 -1.04632e+06 12339.9 0 -1.04627e+06 12602.5 0 -1.04621e+06 12865.1 0 -1.04615e+06 13127.6 0 -1.04609e+06 13390.2 0 -1.04602e+06 13652.8 0 -1.04596e+06 13915.3 0 -1.0459e+06 14177.9 0 -1.04583e+06 14440.5 0 -1.04576e+06 14703 0 -1.04569e+06 14965.6 0 -1.04562e+06 15228.1 0 -1.04555e+06 15490.7 0 -1.04548e+06 15753.3 0 -1.04541e+06 16015.8 0 -1.04533e+06 16278.4 0 -1.04526e+06 16541 0 -1.04518e+06 16803.5 0 -1.0451e+06 17066.1 0 -1.04502e+06 17328.7 0 -1.04494e+06 17591.2 0 -1.04486e+06 17853.8 0 -1.04478e+06 18116.4 0 -1.04469e+06 18379 0 -1.04461e+06 18641.5 0 -1.04452e+06 18904.1 0 -1.04443e+06 19166.7 0 -1.04434e+06 19429.2 0 -1.04425e+06 19691.8 0 -1.04416e+06 19954.4 0 -1.04407e+06 20216.9 0 -1.04398e+06 20479.5 0 -1.04388e+06 20742.1 0 -1.04378e+06 21004.6 0 -1.04369e+06 21267.2 0 -1.04359e+06 21529.8 0 -1.04349e+06 21792.3 0 -1.04338e+06 22054.9 0 -1.04328e+06 22317.5 0 -1.04318e+06 22580 0 -1.04307e+06 22842.6 0 -1.04297e+06 23105.2 0 -1.04286e+06 23367.7 0 -1.04275e+06 23630.3 0 -1.04264e+06 23892.9 0 -1.04253e+06 24155.4 0 -1.04242e+06 24418 0 -1.0423e+06 24680.5 0 -1.04219e+06 24943.1 0 -1.04207e+06 25205.7 0 -1.04195e+06 25468.2 0 -1.04183e+06 25730.8 0 -1.04171e+06 25993.3 0 -1.04159e+06 26255.9 0 -1.04147e+06 26518.4 0 -1.04135e+06 26781 0 -1.04122e+06 27043.6 0 -1.04109e+06 27306.1 0 -1.04097e+06 27568.7 0 -1.04084e+06 27831.2 0 -1.04071e+06 28093.8 0 -1.04058e+06 28356.3 0 -1.04044e+06 28618.9 0 -1.04031e+06 28881.4 0 -1.04018e+06 29143.9 0 -1.04004e+06 29406.5 0 -1.0399e+06 29669 0 -1.03976e+06 29931.6 0 -1.03962e+06 30194.1 0 -1.03948e+06 30456.7 0 -1.03934e+06 30719.2 0 -1.0392e+06 30981.7 0 -1.03905e+06 31244.3 0 -1.0389e+06 31506.8 0 -1.03876e+06 31769.3 0 -1.03861e+06 32031.9 0 -1.03846e+06 32294.4 0 -1.03831e+06 32556.9 0 -1.03815e+06 32819.4 0 -1.038e+06 33081.9 0 -1.03785e+06 33344.4 0 -1.04954e+06 -1.34145e-06 0 -1.04954e+06 271.041 0 -1.04953e+06 542.081 0 -1.04953e+06 813.122 0 -1.04953e+06 1084.16 0 -1.04952e+06 1355.2 0 -1.04951e+06 1626.25 0 -1.04951e+06 1897.29 0 -1.0495e+06 2168.33 0 -1.04949e+06 2439.37 0 -1.04948e+06 2710.42 0 -1.04946e+06 2981.46 0 -1.04945e+06 3252.51 0 -1.04943e+06 3523.55 0 -1.04942e+06 3794.6 0 -1.0494e+06 4065.65 0 -1.04938e+06 4336.7 0 -1.04936e+06 4607.75 0 -1.04934e+06 4878.8 0 -1.04932e+06 5149.85 0 -1.04929e+06 5420.9 0 -1.04927e+06 5691.96 0 -1.04924e+06 5963.02 0 -1.04922e+06 6234.07 0 -1.04919e+06 6505.13 0 -1.04916e+06 6776.19 0 -1.04913e+06 7047.26 0 -1.0491e+06 7318.32 0 -1.04906e+06 7589.39 0 -1.04903e+06 7860.45 0 -1.04899e+06 8131.52 0 -1.04896e+06 8402.6 0 -1.04892e+06 8673.67 0 -1.04888e+06 8944.74 0 -1.04884e+06 9215.82 0 -1.0488e+06 9486.9 0 -1.04875e+06 9757.98 0 -1.04871e+06 10029.1 0 -1.04866e+06 10300.2 0 -1.04862e+06 10571.2 0 -1.04857e+06 10842.3 0 -1.04852e+06 11113.4 0 -1.04847e+06 11384.5 0 -1.04842e+06 11655.6 0 -1.04837e+06 11926.7 0 -1.04831e+06 12197.8 0 -1.04826e+06 12468.9 0 -1.0482e+06 12740.1 0 -1.04814e+06 13011.2 0 -1.04809e+06 13282.3 0 -1.04803e+06 13553.4 0 -1.04796e+06 13824.5 0 -1.0479e+06 14095.6 0 -1.04784e+06 14366.8 0 -1.04777e+06 14637.9 0 -1.04771e+06 14909 0 -1.04764e+06 15180.2 0 -1.04757e+06 15451.3 0 -1.0475e+06 15722.5 0 -1.04743e+06 15993.6 0 -1.04736e+06 16264.8 0 -1.04729e+06 16535.9 0 -1.04721e+06 16807.1 0 -1.04714e+06 17078.2 0 -1.04706e+06 17349.4 0 -1.04698e+06 17620.6 0 -1.0469e+06 17891.7 0 -1.04682e+06 18162.9 0 -1.04674e+06 18434.1 0 -1.04666e+06 18705.3 0 -1.04657e+06 18976.4 0 -1.04649e+06 19247.6 0 -1.0464e+06 19518.8 0 -1.04631e+06 19790 0 -1.04622e+06 20061.2 0 -1.04613e+06 20332.4 0 -1.04604e+06 20603.6 0 -1.04595e+06 20874.8 0 -1.04585e+06 21146.1 0 -1.04576e+06 21417.3 0 -1.04566e+06 21688.5 0 -1.04556e+06 21959.7 0 -1.04546e+06 22231 0 -1.04536e+06 22502.2 0 -1.04526e+06 22773.4 0 -1.04516e+06 23044.7 0 -1.04506e+06 23315.9 0 -1.04495e+06 23587.2 0 -1.04484e+06 23858.4 0 -1.04474e+06 24129.7 0 -1.04463e+06 24400.9 0 -1.04452e+06 24672.2 0 -1.04441e+06 24943.5 0 -1.04429e+06 25214.8 0 -1.04418e+06 25486 0 -1.04407e+06 25757.3 0 -1.04395e+06 26028.6 0 -1.04383e+06 26299.9 0 -1.04371e+06 26571.2 0 -1.04359e+06 26842.5 0 -1.04347e+06 27113.8 0 -1.04335e+06 27385.1 0 -1.04322e+06 27656.4 0 -1.0431e+06 27927.7 0 -1.04297e+06 28199 0 -1.04285e+06 28470.4 0 -1.04272e+06 28741.7 0 -1.04259e+06 29013 0 -1.04246e+06 29284.4 0 -1.04232e+06 29555.7 0 -1.04219e+06 29827.1 0 -1.04205e+06 30098.4 0 -1.04192e+06 30369.8 0 -1.04178e+06 30641.1 0 -1.04164e+06 30912.5 0 -1.0415e+06 31183.8 0 -1.04136e+06 31455.2 0 -1.04122e+06 31726.6 0 -1.04107e+06 31998 0 -1.04093e+06 32269.4 0 -1.04078e+06 32540.8 0 -1.04064e+06 32812.2 0 -1.04049e+06 33083.6 0 -1.04034e+06 33355 0 -1.04019e+06 33626.4 0 -1.04003e+06 33897.8 0 -1.03988e+06 34169.2 0 -1.03972e+06 34440.6 0 -1.05147e+06 -2.2958e-06 0 -1.05147e+06 279.532 0 -1.05147e+06 559.063 0 -1.05147e+06 838.595 0 -1.05146e+06 1118.13 0 -1.05146e+06 1397.66 0 -1.05145e+06 1677.19 0 -1.05144e+06 1956.73 0 -1.05143e+06 2236.26 0 -1.05142e+06 2515.8 0 -1.05141e+06 2795.34 0 -1.0514e+06 3074.87 0 -1.05139e+06 3354.41 0 -1.05137e+06 3633.96 0 -1.05136e+06 3913.5 0 -1.05134e+06 4193.04 0 -1.05132e+06 4472.59 0 -1.0513e+06 4752.14 0 -1.05128e+06 5031.69 0 -1.05126e+06 5311.24 0 -1.05123e+06 5590.79 0 -1.05121e+06 5870.35 0 -1.05118e+06 6149.91 0 -1.05115e+06 6429.47 0 -1.05113e+06 6709.03 0 -1.0511e+06 6988.6 0 -1.05107e+06 7268.17 0 -1.05103e+06 7547.74 0 -1.051e+06 7827.32 0 -1.05097e+06 8106.9 0 -1.05093e+06 8386.48 0 -1.05089e+06 8666.07 0 -1.05086e+06 8945.66 0 -1.05082e+06 9225.25 0 -1.05078e+06 9504.85 0 -1.05073e+06 9784.45 0 -1.05069e+06 10064.1 0 -1.05065e+06 10343.7 0 -1.0506e+06 10623.3 0 -1.05056e+06 10902.9 0 -1.05051e+06 11182.5 0 -1.05046e+06 11462.2 0 -1.05041e+06 11741.8 0 -1.05036e+06 12021.4 0 -1.0503e+06 12301.1 0 -1.05025e+06 12580.7 0 -1.0502e+06 12860.4 0 -1.05014e+06 13140 0 -1.05008e+06 13419.7 0 -1.05002e+06 13699.3 0 -1.04996e+06 13979 0 -1.0499e+06 14258.7 0 -1.04984e+06 14538.4 0 -1.04978e+06 14818.1 0 -1.04971e+06 15097.8 0 -1.04965e+06 15377.5 0 -1.04958e+06 15657.2 0 -1.04951e+06 15936.9 0 -1.04944e+06 16216.6 0 -1.04937e+06 16496.3 0 -1.0493e+06 16776.1 0 -1.04922e+06 17055.8 0 -1.04915e+06 17335.6 0 -1.04907e+06 17615.3 0 -1.049e+06 17895.1 0 -1.04892e+06 18174.8 0 -1.04884e+06 18454.6 0 -1.04876e+06 18734.4 0 -1.04868e+06 19014.2 0 -1.0486e+06 19294 0 -1.04851e+06 19573.8 0 -1.04843e+06 19853.6 0 -1.04834e+06 20133.4 0 -1.04825e+06 20413.2 0 -1.04816e+06 20693 0 -1.04807e+06 20972.9 0 -1.04798e+06 21252.7 0 -1.04789e+06 21532.6 0 -1.04779e+06 21812.4 0 -1.0477e+06 22092.3 0 -1.0476e+06 22372.2 0 -1.0475e+06 22652.1 0 -1.0474e+06 22932 0 -1.0473e+06 23211.9 0 -1.0472e+06 23491.8 0 -1.0471e+06 23771.7 0 -1.047e+06 24051.6 0 -1.04689e+06 24331.5 0 -1.04678e+06 24611.5 0 -1.04668e+06 24891.4 0 -1.04657e+06 25171.4 0 -1.04646e+06 25451.4 0 -1.04635e+06 25731.3 0 -1.04623e+06 26011.3 0 -1.04612e+06 26291.3 0 -1.04601e+06 26571.3 0 -1.04589e+06 26851.3 0 -1.04577e+06 27131.4 0 -1.04565e+06 27411.4 0 -1.04553e+06 27691.4 0 -1.04541e+06 27971.5 0 -1.04529e+06 28251.5 0 -1.04517e+06 28531.6 0 -1.04504e+06 28811.7 0 -1.04491e+06 29091.8 0 -1.04479e+06 29371.9 0 -1.04466e+06 29652 0 -1.04453e+06 29932.1 0 -1.0444e+06 30212.2 0 -1.04426e+06 30492.3 0 -1.04413e+06 30772.5 0 -1.044e+06 31052.6 0 -1.04386e+06 31332.8 0 -1.04372e+06 31613 0 -1.04358e+06 31893.2 0 -1.04344e+06 32173.4 0 -1.0433e+06 32453.6 0 -1.04316e+06 32733.8 0 -1.04302e+06 33014 0 -1.04287e+06 33294.2 0 -1.04272e+06 33574.5 0 -1.04258e+06 33854.7 0 -1.04243e+06 34135 0 -1.04228e+06 34415.3 0 -1.04213e+06 34695.6 0 -1.04197e+06 34975.9 0 -1.04182e+06 35256.2 0 -1.04167e+06 35536.5 0 -1.05347e+06 -3.2807e-06 0 -1.05347e+06 288.017 0 -1.05347e+06 576.034 0 -1.05347e+06 864.051 0 -1.05346e+06 1152.07 0 -1.05346e+06 1440.09 0 -1.05345e+06 1728.11 0 -1.05344e+06 2016.13 0 -1.05343e+06 2304.15 0 -1.05342e+06 2592.17 0 -1.05341e+06 2880.2 0 -1.0534e+06 3168.22 0 -1.05338e+06 3456.25 0 -1.05337e+06 3744.28 0 -1.05335e+06 4032.31 0 -1.05334e+06 4320.35 0 -1.05332e+06 4608.38 0 -1.0533e+06 4896.42 0 -1.05328e+06 5184.47 0 -1.05325e+06 5472.51 0 -1.05323e+06 5760.56 0 -1.0532e+06 6048.61 0 -1.05318e+06 6336.67 0 -1.05315e+06 6624.73 0 -1.05312e+06 6912.8 0 -1.05309e+06 7200.86 0 -1.05306e+06 7488.94 0 -1.05303e+06 7777.01 0 -1.053e+06 8065.09 0 -1.05296e+06 8353.18 0 -1.05293e+06 8641.27 0 -1.05289e+06 8929.37 0 -1.05285e+06 9217.47 0 -1.05281e+06 9505.57 0 -1.05277e+06 9793.69 0 -1.05273e+06 10081.8 0 -1.05269e+06 10369.9 0 -1.05265e+06 10658.1 0 -1.0526e+06 10946.2 0 -1.05255e+06 11234.3 0 -1.05251e+06 11522.5 0 -1.05246e+06 11810.6 0 -1.05241e+06 12098.8 0 -1.05236e+06 12387 0 -1.0523e+06 12675.1 0 -1.05225e+06 12963.3 0 -1.05219e+06 13251.5 0 -1.05214e+06 13539.7 0 -1.05208e+06 13827.9 0 -1.05202e+06 14116.1 0 -1.05196e+06 14404.4 0 -1.0519e+06 14692.6 0 -1.05184e+06 14980.8 0 -1.05178e+06 15269.1 0 -1.05171e+06 15557.3 0 -1.05164e+06 15845.6 0 -1.05158e+06 16133.9 0 -1.05151e+06 16422.2 0 -1.05144e+06 16710.5 0 -1.05137e+06 16998.8 0 -1.0513e+06 17287.1 0 -1.05122e+06 17575.4 0 -1.05115e+06 17863.7 0 -1.05107e+06 18152.1 0 -1.051e+06 18440.4 0 -1.05092e+06 18728.8 0 -1.05084e+06 19017.1 0 -1.05076e+06 19305.5 0 -1.05068e+06 19593.9 0 -1.05059e+06 19882.3 0 -1.05051e+06 20170.7 0 -1.05042e+06 20459.1 0 -1.05034e+06 20747.6 0 -1.05025e+06 21036 0 -1.05016e+06 21324.5 0 -1.05007e+06 21612.9 0 -1.04998e+06 21901.4 0 -1.04989e+06 22189.9 0 -1.04979e+06 22478.4 0 -1.0497e+06 22766.9 0 -1.0496e+06 23055.5 0 -1.0495e+06 23344 0 -1.0494e+06 23632.5 0 -1.0493e+06 23921.1 0 -1.0492e+06 24209.7 0 -1.0491e+06 24498.3 0 -1.049e+06 24786.9 0 -1.04889e+06 25075.5 0 -1.04879e+06 25364.1 0 -1.04868e+06 25652.8 0 -1.04857e+06 25941.4 0 -1.04846e+06 26230.1 0 -1.04835e+06 26518.8 0 -1.04824e+06 26807.5 0 -1.04812e+06 27096.2 0 -1.04801e+06 27384.9 0 -1.04789e+06 27673.6 0 -1.04777e+06 27962.4 0 -1.04765e+06 28251.1 0 -1.04753e+06 28539.9 0 -1.04741e+06 28828.7 0 -1.04729e+06 29117.5 0 -1.04717e+06 29406.3 0 -1.04704e+06 29695.2 0 -1.04692e+06 29984 0 -1.04679e+06 30272.9 0 -1.04666e+06 30561.8 0 -1.04653e+06 30850.6 0 -1.0464e+06 31139.6 0 -1.04627e+06 31428.5 0 -1.04613e+06 31717.4 0 -1.046e+06 32006.4 0 -1.04586e+06 32295.3 0 -1.04572e+06 32584.3 0 -1.04559e+06 32873.3 0 -1.04545e+06 33162.4 0 -1.04531e+06 33451.4 0 -1.04516e+06 33740.4 0 -1.04502e+06 34029.5 0 -1.04487e+06 34318.6 0 -1.04473e+06 34607.7 0 -1.04458e+06 34896.8 0 -1.04443e+06 35185.9 0 -1.04428e+06 35475.1 0 -1.04413e+06 35764.3 0 -1.04398e+06 36053.4 0 -1.04382e+06 36342.6 0 -1.04367e+06 36631.9 0 -1.05553e+06 -4.29584e-06 0 -1.05553e+06 296.493 0 -1.05553e+06 592.986 0 -1.05552e+06 889.48 0 -1.05552e+06 1185.97 0 -1.05551e+06 1482.47 0 -1.05551e+06 1778.97 0 -1.0555e+06 2075.46 0 -1.05549e+06 2371.96 0 -1.05548e+06 2668.47 0 -1.05547e+06 2964.97 0 -1.05545e+06 3261.47 0 -1.05544e+06 3557.98 0 -1.05543e+06 3854.49 0 -1.05541e+06 4151.01 0 -1.05539e+06 4447.52 0 -1.05537e+06 4744.04 0 -1.05535e+06 5040.57 0 -1.05533e+06 5337.1 0 -1.05531e+06 5633.63 0 -1.05529e+06 5930.16 0 -1.05526e+06 6226.7 0 -1.05524e+06 6523.25 0 -1.05521e+06 6819.8 0 -1.05518e+06 7116.35 0 -1.05515e+06 7412.92 0 -1.05512e+06 7709.48 0 -1.05509e+06 8006.05 0 -1.05506e+06 8302.63 0 -1.05502e+06 8599.22 0 -1.05499e+06 8895.81 0 -1.05495e+06 9192.4 0 -1.05491e+06 9489.01 0 -1.05487e+06 9785.62 0 -1.05483e+06 10082.2 0 -1.05479e+06 10378.9 0 -1.05475e+06 10675.5 0 -1.0547e+06 10972.1 0 -1.05466e+06 11268.8 0 -1.05461e+06 11565.5 0 -1.05456e+06 11862.1 0 -1.05451e+06 12158.8 0 -1.05446e+06 12455.5 0 -1.05441e+06 12752.2 0 -1.05436e+06 13048.9 0 -1.05431e+06 13345.6 0 -1.05425e+06 13642.3 0 -1.0542e+06 13939 0 -1.05414e+06 14235.8 0 -1.05408e+06 14532.5 0 -1.05402e+06 14829.3 0 -1.05396e+06 15126.1 0 -1.0539e+06 15422.9 0 -1.05383e+06 15719.7 0 -1.05377e+06 16016.5 0 -1.0537e+06 16313.3 0 -1.05364e+06 16610.1 0 -1.05357e+06 16907 0 -1.0535e+06 17203.8 0 -1.05343e+06 17500.7 0 -1.05336e+06 17797.6 0 -1.05328e+06 18094.5 0 -1.05321e+06 18391.4 0 -1.05313e+06 18688.3 0 -1.05306e+06 18985.2 0 -1.05298e+06 19282.2 0 -1.0529e+06 19579.1 0 -1.05282e+06 19876.1 0 -1.05274e+06 20173.1 0 -1.05265e+06 20470.1 0 -1.05257e+06 20767.1 0 -1.05249e+06 21064.2 0 -1.0524e+06 21361.2 0 -1.05231e+06 21658.3 0 -1.05222e+06 21955.3 0 -1.05213e+06 22252.4 0 -1.05204e+06 22549.5 0 -1.05195e+06 22846.7 0 -1.05185e+06 23143.8 0 -1.05176e+06 23441 0 -1.05166e+06 23738.1 0 -1.05156e+06 24035.3 0 -1.05147e+06 24332.5 0 -1.05137e+06 24629.8 0 -1.05126e+06 24927 0 -1.05116e+06 25224.2 0 -1.05106e+06 25521.5 0 -1.05095e+06 25818.8 0 -1.05085e+06 26116.1 0 -1.05074e+06 26413.4 0 -1.05063e+06 26710.8 0 -1.05052e+06 27008.1 0 -1.05041e+06 27305.5 0 -1.0503e+06 27602.9 0 -1.05018e+06 27900.3 0 -1.05007e+06 28197.8 0 -1.04995e+06 28495.2 0 -1.04984e+06 28792.7 0 -1.04972e+06 29090.2 0 -1.0496e+06 29387.7 0 -1.04948e+06 29685.2 0 -1.04935e+06 29982.8 0 -1.04923e+06 30280.3 0 -1.04911e+06 30577.9 0 -1.04898e+06 30875.5 0 -1.04885e+06 31173.2 0 -1.04872e+06 31470.8 0 -1.04859e+06 31768.5 0 -1.04846e+06 32066.2 0 -1.04833e+06 32363.9 0 -1.0482e+06 32661.6 0 -1.04806e+06 32959.3 0 -1.04793e+06 33257.1 0 -1.04779e+06 33554.9 0 -1.04765e+06 33852.7 0 -1.04751e+06 34150.6 0 -1.04737e+06 34448.4 0 -1.04723e+06 34746.3 0 -1.04708e+06 35044.2 0 -1.04694e+06 35342.1 0 -1.04679e+06 35640.1 0 -1.04665e+06 35938 0 -1.0465e+06 36236 0 -1.04635e+06 36534 0 -1.0462e+06 36832.1 0 -1.04605e+06 37130.1 0 -1.04589e+06 37428.2 0 -1.04574e+06 37726.3 0 -1.05764e+06 -5.25312e-06 0 -1.05764e+06 304.958 0 -1.05764e+06 609.917 0 -1.05764e+06 914.876 0 -1.05763e+06 1219.84 0 -1.05763e+06 1524.8 0 -1.05762e+06 1829.76 0 -1.05761e+06 2134.72 0 -1.05761e+06 2439.69 0 -1.0576e+06 2744.66 0 -1.05758e+06 3049.63 0 -1.05757e+06 3354.6 0 -1.05756e+06 3659.58 0 -1.05754e+06 3964.56 0 -1.05753e+06 4269.55 0 -1.05751e+06 4574.53 0 -1.05749e+06 4879.53 0 -1.05747e+06 5184.52 0 -1.05745e+06 5489.52 0 -1.05743e+06 5794.53 0 -1.0574e+06 6099.54 0 -1.05738e+06 6404.56 0 -1.05735e+06 6709.58 0 -1.05733e+06 7014.61 0 -1.0573e+06 7319.65 0 -1.05727e+06 7624.69 0 -1.05724e+06 7929.74 0 -1.05721e+06 8234.8 0 -1.05717e+06 8539.86 0 -1.05714e+06 8844.93 0 -1.0571e+06 9150.01 0 -1.05707e+06 9455.1 0 -1.05703e+06 9760.2 0 -1.05699e+06 10065.3 0 -1.05695e+06 10370.4 0 -1.05691e+06 10675.5 0 -1.05686e+06 10980.7 0 -1.05682e+06 11285.8 0 -1.05678e+06 11591 0 -1.05673e+06 11896.1 0 -1.05668e+06 12201.3 0 -1.05663e+06 12506.5 0 -1.05658e+06 12811.7 0 -1.05653e+06 13116.9 0 -1.05648e+06 13422.1 0 -1.05643e+06 13727.4 0 -1.05637e+06 14032.6 0 -1.05631e+06 14337.9 0 -1.05626e+06 14643.1 0 -1.0562e+06 14948.4 0 -1.05614e+06 15253.7 0 -1.05608e+06 15559 0 -1.05602e+06 15864.3 0 -1.05595e+06 16169.7 0 -1.05589e+06 16475 0 -1.05582e+06 16780.4 0 -1.05576e+06 17085.8 0 -1.05569e+06 17391.2 0 -1.05562e+06 17696.6 0 -1.05555e+06 18002 0 -1.05548e+06 18307.5 0 -1.0554e+06 18612.9 0 -1.05533e+06 18918.4 0 -1.05525e+06 19223.9 0 -1.05518e+06 19529.4 0 -1.0551e+06 19834.9 0 -1.05502e+06 20140.5 0 -1.05494e+06 20446 0 -1.05486e+06 20751.6 0 -1.05478e+06 21057.2 0 -1.05469e+06 21362.8 0 -1.05461e+06 21668.5 0 -1.05452e+06 21974.1 0 -1.05443e+06 22279.8 0 -1.05434e+06 22585.5 0 -1.05425e+06 22891.2 0 -1.05416e+06 23196.9 0 -1.05407e+06 23502.6 0 -1.05398e+06 23808.4 0 -1.05388e+06 24114.2 0 -1.05378e+06 24420 0 -1.05369e+06 24725.8 0 -1.05359e+06 25031.7 0 -1.05349e+06 25337.6 0 -1.05339e+06 25643.4 0 -1.05328e+06 25949.4 0 -1.05318e+06 26255.3 0 -1.05308e+06 26561.3 0 -1.05297e+06 26867.2 0 -1.05286e+06 27173.2 0 -1.05275e+06 27479.3 0 -1.05264e+06 27785.3 0 -1.05253e+06 28091.4 0 -1.05242e+06 28397.5 0 -1.05231e+06 28703.6 0 -1.05219e+06 29009.7 0 -1.05208e+06 29315.9 0 -1.05196e+06 29622.1 0 -1.05184e+06 29928.3 0 -1.05172e+06 30234.5 0 -1.0516e+06 30540.8 0 -1.05148e+06 30847 0 -1.05136e+06 31153.4 0 -1.05123e+06 31459.7 0 -1.05111e+06 31766 0 -1.05098e+06 32072.4 0 -1.05085e+06 32378.8 0 -1.05072e+06 32685.3 0 -1.05059e+06 32991.7 0 -1.05046e+06 33298.2 0 -1.05032e+06 33604.7 0 -1.05019e+06 33911.3 0 -1.05005e+06 34217.8 0 -1.04992e+06 34524.4 0 -1.04978e+06 34831.1 0 -1.04964e+06 35137.7 0 -1.0495e+06 35444.4 0 -1.04936e+06 35751.1 0 -1.04921e+06 36057.8 0 -1.04907e+06 36364.6 0 -1.04892e+06 36671.4 0 -1.04877e+06 36978.2 0 -1.04863e+06 37285 0 -1.04848e+06 37591.9 0 -1.04833e+06 37898.8 0 -1.04817e+06 38205.7 0 -1.04802e+06 38512.7 0 -1.04787e+06 38819.7 0 -1.05982e+06 -6.32973e-06 0 -1.05982e+06 313.41 0 -1.05982e+06 626.82 0 -1.05981e+06 940.231 0 -1.05981e+06 1253.64 0 -1.0598e+06 1567.06 0 -1.0598e+06 1880.47 0 -1.05979e+06 2193.89 0 -1.05978e+06 2507.31 0 -1.05977e+06 2820.73 0 -1.05976e+06 3134.15 0 -1.05975e+06 3447.58 0 -1.05973e+06 3761.01 0 -1.05972e+06 4074.45 0 -1.0597e+06 4387.89 0 -1.05968e+06 4701.33 0 -1.05967e+06 5014.79 0 -1.05965e+06 5328.24 0 -1.05963e+06 5641.7 0 -1.0596e+06 5955.17 0 -1.05958e+06 6268.64 0 -1.05956e+06 6582.12 0 -1.05953e+06 6895.61 0 -1.0595e+06 7209.11 0 -1.05947e+06 7522.61 0 -1.05944e+06 7836.12 0 -1.05941e+06 8149.64 0 -1.05938e+06 8463.17 0 -1.05935e+06 8776.7 0 -1.05932e+06 9090.25 0 -1.05928e+06 9403.8 0 -1.05924e+06 9717.37 0 -1.05921e+06 10030.9 0 -1.05917e+06 10344.5 0 -1.05913e+06 10658.1 0 -1.05908e+06 10971.7 0 -1.05904e+06 11285.4 0 -1.059e+06 11599 0 -1.05895e+06 11912.6 0 -1.05891e+06 12226.3 0 -1.05886e+06 12540 0 -1.05881e+06 12853.6 0 -1.05876e+06 13167.3 0 -1.05871e+06 13481.1 0 -1.05866e+06 13794.8 0 -1.0586e+06 14108.5 0 -1.05855e+06 14422.3 0 -1.05849e+06 14736 0 -1.05844e+06 15049.8 0 -1.05838e+06 15363.6 0 -1.05832e+06 15677.4 0 -1.05826e+06 15991.3 0 -1.0582e+06 16305.1 0 -1.05813e+06 16619 0 -1.05807e+06 16932.9 0 -1.058e+06 17246.8 0 -1.05794e+06 17560.7 0 -1.05787e+06 17874.6 0 -1.0578e+06 18188.6 0 -1.05773e+06 18502.6 0 -1.05766e+06 18816.6 0 -1.05758e+06 19130.6 0 -1.05751e+06 19444.6 0 -1.05743e+06 19758.7 0 -1.05736e+06 20072.7 0 -1.05728e+06 20386.8 0 -1.0572e+06 20700.9 0 -1.05712e+06 21015.1 0 -1.05704e+06 21329.2 0 -1.05696e+06 21643.4 0 -1.05687e+06 21957.6 0 -1.05679e+06 22271.8 0 -1.0567e+06 22586.1 0 -1.05661e+06 22900.3 0 -1.05652e+06 23214.6 0 -1.05643e+06 23528.9 0 -1.05634e+06 23843.3 0 -1.05625e+06 24157.6 0 -1.05616e+06 24472 0 -1.05606e+06 24786.4 0 -1.05597e+06 25100.9 0 -1.05587e+06 25415.3 0 -1.05577e+06 25729.8 0 -1.05567e+06 26044.3 0 -1.05557e+06 26358.8 0 -1.05547e+06 26673.4 0 -1.05536e+06 26988 0 -1.05526e+06 27302.6 0 -1.05515e+06 27617.2 0 -1.05505e+06 27931.9 0 -1.05494e+06 28246.6 0 -1.05483e+06 28561.3 0 -1.05472e+06 28876.1 0 -1.05461e+06 29190.9 0 -1.05449e+06 29505.7 0 -1.05438e+06 29820.5 0 -1.05426e+06 30135.4 0 -1.05415e+06 30450.2 0 -1.05403e+06 30765.2 0 -1.05391e+06 31080.1 0 -1.05379e+06 31395.1 0 -1.05367e+06 31710.1 0 -1.05354e+06 32025.1 0 -1.05342e+06 32340.2 0 -1.05329e+06 32655.3 0 -1.05317e+06 32970.4 0 -1.05304e+06 33285.6 0 -1.05291e+06 33600.8 0 -1.05278e+06 33916 0 -1.05265e+06 34231.3 0 -1.05251e+06 34546.6 0 -1.05238e+06 34861.9 0 -1.05224e+06 35177.2 0 -1.05211e+06 35492.6 0 -1.05197e+06 35808 0 -1.05183e+06 36123.5 0 -1.05169e+06 36439 0 -1.05155e+06 36754.5 0 -1.0514e+06 37070 0 -1.05126e+06 37385.6 0 -1.05111e+06 37701.2 0 -1.05097e+06 38016.9 0 -1.05082e+06 38332.6 0 -1.05067e+06 38648.3 0 -1.05052e+06 38964.1 0 -1.05037e+06 39279.8 0 -1.05021e+06 39595.7 0 -1.05006e+06 39911.5 0 -1.06206e+06 -7.40914e-06 0 -1.06205e+06 321.844 0 -1.06205e+06 643.689 0 -1.06205e+06 965.535 0 -1.06205e+06 1287.38 0 -1.06204e+06 1609.23 0 -1.06203e+06 1931.08 0 -1.06203e+06 2252.93 0 -1.06202e+06 2574.79 0 -1.06201e+06 2896.65 0 -1.062e+06 3218.51 0 -1.06198e+06 3540.37 0 -1.06197e+06 3862.25 0 -1.06195e+06 4184.12 0 -1.06194e+06 4506 0 -1.06192e+06 4827.89 0 -1.0619e+06 5149.78 0 -1.06188e+06 5471.68 0 -1.06186e+06 5793.58 0 -1.06184e+06 6115.49 0 -1.06182e+06 6437.41 0 -1.06179e+06 6759.34 0 -1.06177e+06 7081.27 0 -1.06174e+06 7403.22 0 -1.06171e+06 7725.17 0 -1.06168e+06 8047.13 0 -1.06165e+06 8369.11 0 -1.06162e+06 8691.09 0 -1.06159e+06 9013.08 0 -1.06155e+06 9335.09 0 -1.06152e+06 9657.1 0 -1.06148e+06 9979.13 0 -1.06144e+06 10301.2 0 -1.0614e+06 10623.2 0 -1.06136e+06 10945.3 0 -1.06132e+06 11267.4 0 -1.06128e+06 11589.5 0 -1.06124e+06 11911.6 0 -1.06119e+06 12233.7 0 -1.06114e+06 12555.8 0 -1.0611e+06 12878 0 -1.06105e+06 13200.1 0 -1.061e+06 13522.3 0 -1.06095e+06 13844.5 0 -1.0609e+06 14166.7 0 -1.06084e+06 14488.9 0 -1.06079e+06 14811.2 0 -1.06073e+06 15133.5 0 -1.06067e+06 15455.7 0 -1.06062e+06 15778.1 0 -1.06056e+06 16100.4 0 -1.0605e+06 16422.7 0 -1.06043e+06 16745.1 0 -1.06037e+06 17067.5 0 -1.06031e+06 17389.9 0 -1.06024e+06 17712.3 0 -1.06017e+06 18034.7 0 -1.06011e+06 18357.2 0 -1.06004e+06 18679.7 0 -1.05997e+06 19002.2 0 -1.0599e+06 19324.7 0 -1.05982e+06 19647.2 0 -1.05975e+06 19969.8 0 -1.05967e+06 20292.4 0 -1.0596e+06 20615 0 -1.05952e+06 20937.7 0 -1.05944e+06 21260.4 0 -1.05936e+06 21583 0 -1.05928e+06 21905.8 0 -1.0592e+06 22228.5 0 -1.05911e+06 22551.3 0 -1.05903e+06 22874.1 0 -1.05894e+06 23196.9 0 -1.05886e+06 23519.8 0 -1.05877e+06 23842.6 0 -1.05868e+06 24165.5 0 -1.05859e+06 24488.5 0 -1.05849e+06 24811.4 0 -1.0584e+06 25134.4 0 -1.05831e+06 25457.4 0 -1.05821e+06 25780.5 0 -1.05811e+06 26103.6 0 -1.05801e+06 26426.7 0 -1.05791e+06 26749.8 0 -1.05781e+06 27073 0 -1.05771e+06 27396.2 0 -1.05761e+06 27719.4 0 -1.0575e+06 28042.6 0 -1.0574e+06 28365.9 0 -1.05729e+06 28689.2 0 -1.05718e+06 29012.6 0 -1.05707e+06 29336 0 -1.05696e+06 29659.4 0 -1.05685e+06 29982.8 0 -1.05674e+06 30306.3 0 -1.05662e+06 30629.8 0 -1.05651e+06 30953.4 0 -1.05639e+06 31277 0 -1.05627e+06 31600.6 0 -1.05616e+06 31924.3 0 -1.05603e+06 32247.9 0 -1.05591e+06 32571.7 0 -1.05579e+06 32895.4 0 -1.05567e+06 33219.2 0 -1.05554e+06 33543 0 -1.05541e+06 33866.9 0 -1.05529e+06 34190.8 0 -1.05516e+06 34514.8 0 -1.05503e+06 34838.7 0 -1.05489e+06 35162.7 0 -1.05476e+06 35486.8 0 -1.05463e+06 35810.9 0 -1.05449e+06 36135 0 -1.05436e+06 36459.2 0 -1.05422e+06 36783.4 0 -1.05408e+06 37107.6 0 -1.05394e+06 37431.9 0 -1.0538e+06 37756.2 0 -1.05365e+06 38080.6 0 -1.05351e+06 38405 0 -1.05336e+06 38729.4 0 -1.05322e+06 39053.9 0 -1.05307e+06 39378.4 0 -1.05292e+06 39703 0 -1.05277e+06 40027.6 0 -1.05262e+06 40352.2 0 -1.05247e+06 40676.9 0 -1.05231e+06 41001.6 0 -1.06435e+06 -8.54908e-06 0 -1.06435e+06 330.259 0 -1.06435e+06 660.519 0 -1.06434e+06 990.78 0 -1.06434e+06 1321.04 0 -1.06434e+06 1651.31 0 -1.06433e+06 1981.57 0 -1.06432e+06 2311.84 0 -1.06431e+06 2642.11 0 -1.0643e+06 2972.39 0 -1.06429e+06 3302.67 0 -1.06428e+06 3632.95 0 -1.06426e+06 3963.24 0 -1.06425e+06 4293.54 0 -1.06423e+06 4623.84 0 -1.06422e+06 4954.15 0 -1.0642e+06 5284.46 0 -1.06418e+06 5614.78 0 -1.06416e+06 5945.11 0 -1.06413e+06 6275.45 0 -1.06411e+06 6605.79 0 -1.06409e+06 6936.15 0 -1.06406e+06 7266.51 0 -1.06403e+06 7596.88 0 -1.06401e+06 7927.27 0 -1.06398e+06 8257.66 0 -1.06395e+06 8588.07 0 -1.06391e+06 8918.49 0 -1.06388e+06 9248.92 0 -1.06385e+06 9579.36 0 -1.06381e+06 9909.82 0 -1.06378e+06 10240.3 0 -1.06374e+06 10570.8 0 -1.0637e+06 10901.3 0 -1.06366e+06 11231.8 0 -1.06362e+06 11562.3 0 -1.06358e+06 11892.9 0 -1.06353e+06 12223.4 0 -1.06349e+06 12554 0 -1.06344e+06 12884.6 0 -1.06339e+06 13215.2 0 -1.06335e+06 13545.8 0 -1.0633e+06 13876.5 0 -1.06324e+06 14207.1 0 -1.06319e+06 14537.8 0 -1.06314e+06 14868.5 0 -1.06308e+06 15199.2 0 -1.06303e+06 15530 0 -1.06297e+06 15860.8 0 -1.06291e+06 16191.5 0 -1.06285e+06 16522.3 0 -1.06279e+06 16853.2 0 -1.06273e+06 17184 0 -1.06267e+06 17514.9 0 -1.06261e+06 17845.8 0 -1.06254e+06 18176.7 0 -1.06247e+06 18507.7 0 -1.06241e+06 18838.6 0 -1.06234e+06 19169.6 0 -1.06227e+06 19500.7 0 -1.0622e+06 19831.7 0 -1.06212e+06 20162.8 0 -1.06205e+06 20493.9 0 -1.06197e+06 20825 0 -1.0619e+06 21156.2 0 -1.06182e+06 21487.3 0 -1.06174e+06 21818.6 0 -1.06166e+06 22149.8 0 -1.06158e+06 22481.1 0 -1.0615e+06 22812.4 0 -1.06142e+06 23143.7 0 -1.06133e+06 23475 0 -1.06124e+06 23806.4 0 -1.06116e+06 24137.8 0 -1.06107e+06 24469.3 0 -1.06098e+06 24800.8 0 -1.06089e+06 25132.3 0 -1.0608e+06 25463.8 0 -1.0607e+06 25795.4 0 -1.06061e+06 26127 0 -1.06051e+06 26458.6 0 -1.06042e+06 26790.3 0 -1.06032e+06 27122 0 -1.06022e+06 27453.8 0 -1.06012e+06 27785.6 0 -1.06002e+06 28117.4 0 -1.05991e+06 28449.2 0 -1.05981e+06 28781.1 0 -1.0597e+06 29113 0 -1.0596e+06 29445 0 -1.05949e+06 29777 0 -1.05938e+06 30109 0 -1.05927e+06 30441.1 0 -1.05916e+06 30773.2 0 -1.05905e+06 31105.3 0 -1.05893e+06 31437.5 0 -1.05882e+06 31769.8 0 -1.0587e+06 32102 0 -1.05858e+06 32434.3 0 -1.05846e+06 32766.7 0 -1.05834e+06 33099.1 0 -1.05822e+06 33431.5 0 -1.0581e+06 33763.9 0 -1.05798e+06 34096.4 0 -1.05785e+06 34429 0 -1.05772e+06 34761.6 0 -1.0576e+06 35094.2 0 -1.05747e+06 35426.9 0 -1.05734e+06 35759.6 0 -1.05721e+06 36092.4 0 -1.05707e+06 36425.2 0 -1.05694e+06 36758 0 -1.0568e+06 37090.9 0 -1.05667e+06 37423.8 0 -1.05653e+06 37756.8 0 -1.05639e+06 38089.8 0 -1.05625e+06 38422.9 0 -1.05611e+06 38756 0 -1.05597e+06 39089.2 0 -1.05582e+06 39422.4 0 -1.05568e+06 39755.6 0 -1.05553e+06 40088.9 0 -1.05539e+06 40422.3 0 -1.05524e+06 40755.6 0 -1.05509e+06 41089.1 0 -1.05494e+06 41422.6 0 -1.05478e+06 41756.1 0 -1.05463e+06 42089.7 0 -1.0667e+06 -9.75118e-06 0 -1.0667e+06 338.652 0 -1.0667e+06 677.304 0 -1.0667e+06 1015.96 0 -1.06669e+06 1354.61 0 -1.06669e+06 1693.27 0 -1.06668e+06 2031.93 0 -1.06667e+06 2370.59 0 -1.06667e+06 2709.26 0 -1.06666e+06 3047.93 0 -1.06664e+06 3386.6 0 -1.06663e+06 3725.28 0 -1.06662e+06 4063.97 0 -1.0666e+06 4402.66 0 -1.06659e+06 4741.36 0 -1.06657e+06 5080.07 0 -1.06655e+06 5418.78 0 -1.06653e+06 5757.5 0 -1.06651e+06 6096.23 0 -1.06649e+06 6434.97 0 -1.06647e+06 6773.72 0 -1.06644e+06 7112.48 0 -1.06642e+06 7451.25 0 -1.06639e+06 7790.04 0 -1.06636e+06 8128.83 0 -1.06633e+06 8467.63 0 -1.0663e+06 8806.45 0 -1.06627e+06 9145.