<?xml version="1.0"?> 
<VTKFile type="StructuredGrid" version="0.1"> 
<StructuredGrid WholeExtent="0 127 0 127 0 0"> 
<Piece Extent="0 127 0 127 0 0"> 
<PointData>
<DataArray type="Float32" Name="E" format="ascii" NumberOfComponents="3"> 
-758006 146039 0 -760095 158296 0 -763857 158949 0 -766744 159035 0 -768814 158461 0 -770111 157979 0 -770803 157506 0 -771008 157110 0 -770831 156764 0 -770351 156466 0 -769629 156204 0 -768711 155971 0 -767635 155761 0 -766427 155569 0 -765110 155393 0 -763701 155230 0 -762215 155078 0 -760661 154935 0 -759050 154801 0 -757389 154674 0 -755684 154554 0 -753940 154440 0 -752162 154332 0 -750353 154229 0 -748516 154130 0 -746655 154036 0 -744771 153947 0 -742868 153861 0 -740945 153778 0 -739006 153699 0 -737051 153624 0 -735082 153551 0 -733100 153481 0 -731106 153414 0 -729100 153350 0 -727085 153289 0 -725059 153229 0 -723025 153172 0 -720982 153117 0 -718932 153065 0 -716874 153014 0 -714809 152966 0 -712738 152919 0 -710661 152874 0 -708579 152831 0 -706491 152789 0 -704398 152749 0 -702300 152711 0 -700198 152674 0 -698092 152639 0 -695981 152605 0 -693867 152573 0 -691749 152542 0 -689628 152512 0 -687504 152483 0 -685377 152456 0 -683247 152430 0 -681114 152405 0 -678978 152381 0 -676840 152358 0 -674699 152336 0 -672557 152315 0 -670412 152296 0 -668264 152277 0 -666115 152259 0 -663965 152242 0 -661812 152226 0 -659657 152211 0 -657501 152196 0 -655343 152183 0 -653184 152170 0 -651023 152158 0 -648861 152147 0 -646697 152136 0 -644532 152127 0 -642366 152118 0 -640199 152109 0 -638030 152101 0 -635861 152094 0 -633690 152088 0 -631518 152082 0 -629345 152077 0 -627171 152072 0 -624996 152068 0 -622821 152064 0 -620644 152061 0 -618467 152059 0 -616288 152057 0 -614109 152055 0 -611929 152054 0 -609749 152053 0 -607567 152053 0 -605385 152053 0 -603202 152054 0 -601019 152055 0 -598834 152057 0 -596650 152059 0 -594464 152061 0 -592278 152064 0 -590091 152067 0 -587904 152070 0 -585716 152074 0 -583528 152078 0 -581339 152083 0 -579149 152087 0 -576959 152092 0 -574769 152098 0 -572578 152103 0 -570386 152109 0 -568194 152116 0 -566002 152122 0 -563809 152129 0 -561615 152136 0 -559421 152143 0 -557227 152151 0 -555032 152158 0 -552837 152166 0 -550642 152175 0 -548446 152183 0 -546249 152192 0 -544052 152201 0 -541855 152210 0 -539658 152219 0 -537460 152228 0 -535261 152238 0 -533063 152248 0 -530863 152258 0 -528664 152268 0 -797098 153344 0 -793562 154479 0 -790225 156848 0 -787423 158904 0 -785022 160723 0 -782920 162252 0 -781020 163548 0 -779253 164643 0 -777568 165572 0 -775929 166360 0 -774311 167033 0 -772697 167607 0 -771076 168099 0 -769440 168520 0 -767785 168882 0 -766108 169193 0 -764408 169460 0 -762684 169690 0 -760936 169887 0 -759164 170056 0 -757371 170200 0 -755556 170324 0 -753721 170428 0 -751867 170517 0 -749995 170591 0 -748106 170653 0 -746200 170703 0 -744280 170744 0 -742346 170777 0 -740398 170802 0 -738438 170820 0 -736466 170832 0 -734484 170839 0 -732491 170842 0 -730488 170840 0 -728477 170835 0 -726457 170826 0 -724428 170815 0 -722392 170801 0 -720349 170785 0 -718299 170766 0 -716243 170746 0 -714181 170725 0 -712113 170702 0 -710039 170678 0 -707961 170653 0 -705877 170627 0 -703789 170601 0 -701697 170573 0 -699600 170545 0 -697500 170517 0 -695395 170488 0 -693287 170459 0 -691176 170430 0 -689061 170401 0 -686943 170371 0 -684822 170341 0 -682699 170311 0 -680572 170282 0 -678443 170252 0 -676312 170222 0 -674178 170193 0 -672042 170163 0 -669904 170134 0 -667763 170105 0 -665621 170076 0 -663476 170047 0 -661330 170018 0 -659182 169990 0 -657032 169961 0 -654881 169934 0 -652728 169906 0 -650573 169878 0 -648417 169851 0 -646260 169824 0 -644101 169798 0 -641941 169771 0 -639779 169745 0 -637616 169719 0 -635453 169694 0 -633287 169668 0 -631121 169643 0 -628954 169619 0 -626786 169594 0 -624616 169570 0 -622446 169546 0 -620275 169523 0 -618103 169499 0 -615929 169476 0 -613755 169453 0 -611581 169431 0 -609405 169409 0 -607228 169387 0 -605051 169365 0 -602873 169343 0 -600694 169322 0 -598515 169301 0 -596334 169280 0 -594154 169260 0 -591972 169239 0 -589790 169219 0 -587607 169199 0 -585423 169180 0 -583239 169160 0 -581054 169141 0 -578869 169122 0 -576683 169103 0 -574497 169085 0 -572310 169067 0 -570122 169048 0 -567934 169030 0 -565745 169013 0 -563556 168995 0 -561366 168978 0 -559176 168960 0 -556986 168943 0 -554794 168926 0 -552603 168909 0 -550411 168893 0 -548218 168876 0 -546025 168860 0 -543832 168844 0 -541638 168828 0 -539444 168812 0 -537249 168796 0 -535054 168781 0 -532859 168765 0 -530663 168750 0 -804642 178897 0 -802428 179559 0 -800222 179836 0 -797913 180215 0 -795554 180647 0 -793181 181135 0 -790823 181648 0 -788494 182171 0 -786202 182688 0 -783951 183191 0 -781739 183673 0 -779563 184129 0 -777419 184557 0 -775304 184957 0 -773212 185328 0 -771140 185671 0 -769084 185986 0 -767040 186274 0 -765007 186538 0 -762981 186778 0 -760959 186996 0 -758941 187194 0 -756925 187373 0 -754910 187533 0 -752893 187678 0 -750876 187807 0 -748856 187922 0 -746834 188024 0 -744808 188114 0 -742779 188194 0 -740747 188263 0 -738711 188323 0 -736670 188374 0 -734626 188417 0 -732577 188453 0 -730525 188483 0 -728468 188506 0 -726407 188523 0 -724343 188536 0 -722274 188543 0 -720202 188546 0 -718125 188545 0 -716045 188541 0 -713962 188532 0 -711875 188521 0 -709784 188507 0 -707690 188490 0 -705594 188471 0 -703493 188449 0 -701390 188425 0 -699284 188400 0 -697176 188372 0 -695064 188343 0 -692950 188313 0 -690833 188281 0 -688714 188248 0 -686592 188213 0 -684468 188178 0 -682342 188142 0 -680214 188105 0 -678084 188067 0 -675951 188028 0 -673817 187989 0 -671681 187949 0 -669542 187908 0 -667402 187867 0 -665261 187826 0 -663118 187784 0 -660973 187742 0 -658826 187700 0 -656678 187657 0 -654529 187614 0 -652378 187571 0 -650226 187527 0 -648072 187484 0 -645917 187440 0 -643761 187396 0 -641604 187352 0 -639445 187308 0 -637285 187264 0 -635124 187220 0 -632962 187176 0 -630799 187132 0 -628635 187088 0 -626470 187044 0 -624304 187000 0 -622137 186956 0 -619969 186912 0 -617800 186868 0 -615631 186824 0 -613460 186780 0 -611289 186736 0 -609116 186692 0 -606943 186648 0 -604769 186605 0 -602595 186561 0 -600419 186518 0 -598243 186475 0 -596066 186431 0 -593889 186388 0 -591711 186345 0 -589532 186302 0 -587352 186259 0 -585172 186217 0 -582991 186174 0 -580810 186131 0 -578628 186089 0 -576445 186047 0 -574262 186004 0 -572078 185962 0 -569894 185920 0 -567709 185878 0 -565523 185836 0 -563337 185795 0 -561151 185753 0 -558964 185711 0 -556776 185670 0 -554588 185629 0 -552400 185587 0 -550211 185546 0 -548021 185505 0 -545831 185464 0 -543641 185423 0 -541450 185382 0 -539258 185341 0 -537067 185301 0 -534874 185260 0 -532682 185219 0 -811296 201001 0 -808638 201173 0 -806028 201505 0 -803508 201799 0 -801051 202074 0 -798641 202327 0 -796263 202569 0 -793911 202802 0 -791579 203030 0 -789266 203254 0 -786971 203474 0 -784691 203691 0 -782427 203902 0 -780179 204107 0 -777945 204306 0 -775725 204498 0 -773519 204682 0 -771325 204857 0 -769142 205023 0 -766970 205180 0 -764808 205327 0 -762654 205465 0 -760509 205594 0 -758370 205713 0 -756237 205823 0 -754109 205923 0 -751986 206015 0 -749867 206098 0 -747751 206173 0 -745637 206240 0 -743526 206300 0 -741416 206352 0 -739308 206397 0 -737200 206435 0 -735093 206468 0 -732986 206494 0 -730880 206514 0 -728773 206530 0 -726665 206540 0 -724557 206545 0 -722448 206546 0 -720339 206542 0 -718228 206535 0 -716116 206523 0 -714003 206508 0 -711889 206490 0 -709773 206469 0 -707656 206444 0 -705538 206417 0 -703418 206387 0 -701297 206355 0 -699174 206320 0 -697050 206283 0 -694925 206244 0 -692798 206204 0 -690669 206161 0 -688539 206117 0 -686408 206071 0 -684275 206024 0 -682141 205975 0 -680005 205925 0 -677868 205874 0 -675730 205822 0 -673590 205769 0 -671449 205714 0 -669307 205659 0 -667163 205603 0 -665019 205546 0 -662873 205489 0 -660725 205430 0 -658577 205372 0 -656427 205312 0 -654276 205252 0 -652125 205191 0 -649972 205130 0 -647818 205069 0 -645662 205007 0 -643506 204945 0 -641349 204882 0 -639191 204819 0 -637032 204756 0 -634872 204692 0 -632711 204628 0 -630549 204564 0 -628386 204500 0 -626222 204435 0 -624057 204371 0 -621892 204306 0 -619726 204241 0 -617559 204176 0 -615391 204111 0 -613222 204045 0 -611052 203980 0 -608882 203914 0 -606711 203849 0 -604540 203783 0 -602367 203718 0 -600194 203652 0 -598020 203586 0 -595846 203520 0 -593670 203454 0 -591495 203388 0 -589318 203323 0 -587141 203257 0 -584963 203191 0 -582785 203125 0 -580606 203059 0 -578426 202993 0 -576246 202927 0 -574066 202861 0 -571884 202795 0 -569702 202729 0 -567520 202664 0 -565337 202598 0 -563154 202532 0 -560970 202466 0 -558785 202400 0 -556600 202335 0 -554414 202269 0 -552228 202203 0 -550042 202137 0 -547855 202072 0 -545667 202006 0 -543479 201941 0 -541291 201875 0 -539102 201809 0 -536913 201744 0 -534723 201678 0 -814437 223791 0 -812080 223792 0 -809719 223745 0 -807339 223730 0 -804954 223735 0 -802571 223759 0 -800198 223795 0 -797835 223840 0 -795486 223891 0 -793149 223946 0 -790826 224004 0 -788515 224064 0 -786217 224125 0 -783930 224187 0 -781654 224248 0 -779389 224309 0 -777133 224368 0 -774887 224426 0 -772650 224481 0 -770422 224535 0 -768201 224585 0 -765989 224633 0 -763783 224677 0 -761584 224718 0 -759391 224756 0 -757204 224789 0 -755023 224819 0 -752847 224845 0 -750675 224867 0 -748507 224885 0 -746343 224899 0 -744183 224909 0 -742026 224915 0 -739871 224917 0 -737720 224915 0 -735570 224910 0 -733423 224901 0 -731277 224888 0 -729133 224871 0 -726990 224852 0 -724848 224829 0 -722707 224802 0 -720567 224773 0 -718427 224741 0 -716288 224706 0 -714149 224668 0 -712010 224627 0 -709872 224584 0 -707733 224539 0 -705595 224491 0 -703456 224441 0 -701317 224389 0 -699177 224334 0 -697037 224278 0 -694897 224220 0 -692756 224161 0 -690615 224099 0 -688473 224036 0 -686330 223972 0 -684187 223906 0 -682043 223838 0 -679898 223770 0 -677753 223700 0 -675607 223629 0 -673460 223557 0 -671313 223484 0 -669164 223409 0 -667015 223334 0 -664865 223258 0 -662715 223181 0 -660563 223104 0 -658411 223025 0 -656258 222946 0 -654104 222866 0 -651949 222785 0 -649794 222704 0 -647638 222623 0 -645481 222540 0 -643323 222458 0 -641165 222374 0 -639005 222291 0 -636845 222207 0 -634684 222122 0 -632523 222037 0 -630361 221952 0 -628198 221866 0 -626034 221780 0 -623869 221694 0 -621704 221608 0 -619538 221521 0 -617372 221434 0 -615205 221347 0 -613037 221259 0 -610868 221171 0 -608699 221084 0 -606529 220996 0 -604358 220907 0 -602187 220819 0 -600015 220730 0 -597843 220642 0 -595670 220553 0 -593496 220464 0 -591322 220375 0 -589147 220286 0 -586972 220197 0 -584795 220107 0 -582619 220018 0 -580442 219929 0 -578264 219839 0 -576086 219749 0 -573907 219660 0 -571727 219570 0 -569547 219480 0 -567367 219390 0 -565186 219300 0 -563005 219210 0 -560822 219120 0 -558640 219030 0 -556457 218940 0 -554273 218850 0 -552089 218760 0 -549905 218670 0 -547720 218580 0 -545535 218489 0 -543349 218399 0 -541162 218309 0 -538975 218218 0 -536788 218128 0 -816979 245463 0 -814602 245353 0 -812238 245272 0 -809893 245187 0 -807559 245104 0 -805235 245023 0 -802918 244945 0 -800606 244872 0 -798300 244803 0 -795999 244739 0 -793704 244680 0 -791415 244625 0 -789131 244574 0 -786854 244526 0 -784583 244481 0 -782318 244439 0 -780059 244398 0 -777806 244359 0 -775559 244322 0 -773318 244285 0 -771083 244249 0 -768853 244213 0 -766628 244178 0 -764409 244142 0 -762194 244106 0 -759984 244069 0 -757778 244031 0 -755577 243993 0 -753380 243953 0 -751186 243912 0 -748997 243870 0 -746810 243826 0 -744627 243781 0 -742447 243734 0 -740270 243685 0 -738095 243635 0 -735923 243583 0 -733753 243529 0 -731585 243473 0 -729419 243416 0 -727255 243357 0 -725092 243295 0 -722931 243233 0 -720771 243168 0 -718613 243101 0 -716455 243033 0 -714299 242963 0 -712143 242891 0 -709988 242818 0 -707834 242743 0 -705680 242667 0 -703527 242589 0 -701374 242509 0 -699221 242428 0 -697069 242346 0 -694916 242262 0 -692764 242177 0 -690612 242090 0 -688460 242003 0 -686308 241914 0 -684155 241824 0 -682003 241733 0 -679850 241640 0 -677697 241547 0 -675544 241453 0 -673390 241358 0 -671236 241262 0 -669082 241165 0 -666927 241067 0 -664772 240968 0 -662617 240869 0 -660461 240768 0 -658305 240667 0 -656148 240566 0 -653990 240463 0 -651833 240361 0 -649674 240257 0 -647515 240153 0 -645356 240048 0 -643196 239943 0 -641035 239837 0 -638874 239731 0 -636713 239625 0 -634551 239518 0 -632388 239410 0 -630225 239302 0 -628061 239194 0 -625896 239085 0 -623731 238976 0 -621566 238867 0 -619400 238758 0 -617233 238648 0 -615066 238537 0 -612898 238427 0 -610730 238316 0 -608561 238205 0 -606391 238094 0 -604221 237983 0 -602051 237871 0 -599879 237759 0 -597708 237647 0 -595535 237535 0 -593363 237422 0 -591189 237310 0 -589016 237197 0 -586841 237084 0 -584666 236971 0 -582491 236858 0 -580315 236744 0 -578138 236631 0 -575962 236517 0 -573784 236403 0 -571606 236290 0 -569428 236176 0 -567249 236062 0 -565069 235947 0 -562889 235833 0 -560709 235719 0 -558528 235604 0 -556346 235490 0 -554164 235375 0 -551982 235261 0 -549799 235146 0 -547616 235031 0 -545432 234916 0 -543248 234801 0 -541063 234686 0 -538878 234571 0 -818712 266807 0 -816438 266620 0 -814163 266432 0 -811883 266255 0 -809604 266086 0 -807325 265925 0 -805049 265771 0 -802777 265622 0 -800507 265477 0 -798241 265338 0 -795978 265202 0 -793719 265071 0 -791463 264943 0 -789211 264819 0 -786962 264698 0 -784716 264580 0 -782474 264465 0 -780236 264352 0 -778000 264242 0 -775769 264134 0 -773541 264028 0 -771316 263923 0 -769094 263820 0 -766876 263719 0 -764661 263619 0 -762449 263519 0 -760241 263421 0 -758035 263323 0 -755832 263225 0 -753632 263128 0 -751435 263031 0 -749240 262934 0 -747048 262838 0 -744859 262741 0 -742672 262643 0 -740487 262546 0 -738304 262448 0 -736123 262350 0 -733944 262251 0 -731767 262152 0 -729591 262052 0 -727417 261951 0 -725245 261849 0 -723074 261747 0 -720905 261644 0 -718736 261540 0 -716569 261436 0 -714403 261330 0 -712238 261224 0 -710073 261116 0 -707910 261008 0 -705747 260899 0 -703585 260789 0 -701423 260679 0 -699263 260567 0 -697102 260454 0 -694942 260341 0 -692782 260227 0 -690623 260112 0 -688464 259996 0 -686305 259879 0 -684146 259762 0 -681987 259644 0 -679828 259525 0 -677670 259405 0 -675511 259284 0 -673352 259163 0 -671194 259041 0 -669035 258919 0 -666876 258796 0 -664717 258672 0 -662557 258547 0 -660398 258422 0 -658238 258297 0 -656078 258170 0 -653917 258044 0 -651757 257916 0 -649596 257789 0 -647434 257660 0 -645273 257531 0 -643111 257402 0 -640948 257273 0 -638786 257142 0 -636622 257012 0 -634459 256881 0 -632295 256750 0 -630130 256618 0 -627966 256486 0 -625800 256353 0 -623635 256220 0 -621468 256087 0 -619302 255954 0 -617135 255820 0 -614967 255686 0 -612799 255552 0 -610631 255417 0 -608462 255282 0 -606293 255147 0 -604123 255012 0 -601952 254876 0 -599782 254740 0 -597610 254604 0 -595439 254468 0 -593266 254331 0 -591094 254195 0 -588921 254058 0 -586747 253921 0 -584573 253784 0 -582398 253646 0 -580223 253509 0 -578048 253371 0 -575872 253233 0 -573695 253095 0 -571518 252957 0 -569341 252818 0 -567163 252680 0 -564985 252541 0 -562806 252402 0 -560627 252264 0 -558447 252125 0 -556267 251985 0 -554086 251846 0 -551905 251707 0 -549724 251567 0 -547542 251428 0 -545360 251288 0 -543177 251148 0 -540994 251008 0 -820213 287582 0 -817974 287354 0 -815737 287135 0 -813503 286917 0 -811270 286703 0 -809039 286493 0 -806807 286286 0 -804577 286084 0 -802347 285885 0 -800118 285691 0 -797891 285500 0 -795664 285313 0 -793439 285130 0 -791215 284950 0 -788993 284773 0 -786772 284599 0 -784553 284428 0 -782336 284260 0 -780121 284094 0 -777907 283931 0 -775695 283770 0 -773485 283611 0 -771277 283454 0 -769071 283299 0 -766866 283146 0 -764664 282994 0 -762463 282844 0 -760264 282695 0 -758067 282548 0 -755872 282401 0 -753679 282256 0 -751487 282112 0 -749297 281968 0 -747108 281825 0 -744922 281682 0 -742736 281540 0 -740553 281399 0 -738371 281258 0 -736190 281117 0 -734010 280976 0 -731832 280836 0 -729656 280696 0 -727480 280555 0 -725305 280415 0 -723132 280274 0 -720960 280134 0 -718788 279993 0 -716618 279852 0 -714448 279711 0 -712280 279570 0 -710112 279428 0 -707945 279286 0 -705778 279144 0 -703612 279001 0 -701447 278858 0 -699282 278714 0 -697118 278570 0 -694954 278426 0 -692790 278281 0 -690627 278136 0 -688464 277991 0 -686301 277845 0 -684139 277698 0 -681977 277551 0 -679815 277404 0 -677653 277256 0 -675491 277108 0 -673329 276959 0 -671167 276810 0 -669006 276660 0 -666844 276510 0 -664682 276359 0 -662520 276208 0 -660358 276057 0 -658196 275905 0 -656034 275753 0 -653872 275600 0 -651709 275447 0 -649546 275294 0 -647383 275140 0 -645220 274986 0 -643056 274832 0 -640893 274677 0 -638729 274522 0 -636564 274366 0 -634400 274210 0 -632235 274054 0 -630070 273897 0 -627904 273740 0 -625738 273583 0 -623572 273426 0 -621405 273268 0 -619238 273110 0 -617071 272951 0 -614903 272793 0 -612735 272634 0 -610566 272475 0 -608397 272315 0 -606228 272156 0 -604058 271996 0 -601888 271836 0 -599718 271675 0 -597547 271515 0 -595375 271354 0 -593204 271193 0 -591031 271032 0 -588859 270871 0 -586686 270709 0 -584512 270547 0 -582338 270385 0 -580164 270223 0 -577989 270061 0 -575814 269898 0 -573638 269735 0 -571462 269573 0 -569286 269410 0 -567109 269246 0 -564931 269083 0 -562754 268920 0 -560575 268756 0 -558397 268592 0 -556218 268428 0 -554038 268264 0 -551858 268100 0 -549678 267935 0 -547497 267771 0 -545316 267606 0 -543134 267442 0 -821548 308008 0 -819358 307747 0 -817165 307488 0 -814971 307234 0 -812776 306984 0 -810580 306738 0 -808384 306495 0 -806187 306256 0 -803991 306020 0 -801794 305787 0 -799598 305557 0 -797401 305330 0 -795205 305105 0 -793009 304884 0 -790814 304665 0 -788618 304449 0 -786424 304236 0 -784229 304025 0 -782036 303816 0 -779843 303610 0 -777650 303406 0 -775459 303204 0 -773268 303004 0 -771078 302806 0 -768888 302610 0 -766700 302415 0 -764512 302222 0 -762326 302031 0 -760140 301841 0 -757955 301653 0 -755772 301465 0 -753589 301280 0 -751407 301095 0 -749226 300911 0 -747046 300728 0 -744866 300547 0 -742688 300366 0 -740510 300186 0 -738334 300006 0 -736158 299827 0 -733983 299649 0 -731809 299472 0 -729636 299294 0 -727463 299118 0 -725291 298941 0 -723120 298765 0 -720950 298589 0 -718780 298414 0 -716611 298239 0 -714442 298063 0 -712274 297888 0 -710107 297713 0 -707940 297539 0 -705773 297364 0 -703607 297189 0 -701441 297014 0 -699276 296839 0 -697111 296664 0 -694946 296489 0 -692782 296314 0 -690618 296138 0 -688454 295963 0 -686290 295787 0 -684127 295611 0 -681964 295435 0 -679801 295259 0 -677638 295082 0 -675475 294906 0 -673312 294729 0 -671149 294552 0 -668986 294374 0 -666823 294197 0 -664660 294019 0 -662497 293841 0 -660334 293662 0 -658171 293484 0 -656008 293305 0 -653845 293125 0 -651681 292946 0 -649518 292766 0 -647354 292586 0 -645190 292406 0 -643026 292226 0 -640861 292045 0 -638697 291864 0 -636532 291683 0 -634367 291501 0 -632202 291319 0 -630036 291137 0 -627870 290955 0 -625704 290773 0 -623537 290590 0 -621371 290407 0 -619203 290224 0 -617036 290040 0 -614868 289856 0 -612700 289672 0 -610532 289488 0 -608363 289304 0 -606194 289119 0 -604024 288934 0 -601854 288749 0 -599684 288564 0 -597513 288379 0 -595342 288193 0 -593171 288007 0 -590999 287821 0 -588827 287635 0 -586655 287448 0 -584482 287262 0 -582308 287075 0 -580135 286888 0 -577960 286701 0 -575786 286513 0 -573611 286326 0 -571436 286138 0 -569260 285950 0 -567084 285762 0 -564907 285574 0 -562730 285385 0 -560553 285197 0 -558375 285008 0 -556197 284819 0 -554018 284630 0 -551839 284441 0 -549660 284251 0 -547480 284062 0 -545300 283872 0 -822863 328101 0 -820702 327819 0 -818540 327539 0 -816377 327262 0 -814213 326987 0 -812048 326715 0 -809881 326445 0 -807714 326177 0 -805546 325912 0 -803377 325649 0 -801208 325389 0 -799037 325131 0 -796867 324876 0 -794695 324623 0 -792524 324372 0 -790351 324123 0 -788179 323876 0 -786006 323632 0 -783834 323389 0 -781661 323149 0 -779488 322910 0 -777315 322673 0 -775142 322438 0 -772969 322205 0 -770796 321973 0 -768623 321743 0 -766450 321515 0 -764278 321288 0 -762106 321062 0 -759934 320838 0 -757762 320616 0 -755591 320394 0 -753419 320174 0 -751249 319955 0 -749078 319737 0 -746908 319520 0 -744738 319304 0 -742569 319089 0 -740400 318875 0 -738231 318662 0 -736063 318449 0 -733895 318238 0 -731727 318027 0 -729560 317816 0 -727393 317606 0 -725226 317397 0 -723060 317189 0 -720894 316980 0 -718729 316773 0 -716563 316565 0 -714398 316358 0 -712234 316152 0 -710069 315945 0 -707905 315739 0 -705741 315533 0 -703577 315328 0 -701414 315122 0 -699250 314917 0 -697087 314712 0 -694924 314507 0 -692761 314302 0 -690598 314097 0 -688435 313892 0 -686273 313688 0 -684110 313483 0 -681948 313278 0 -679785 313073 0 -677623 312869 0 -675460 312664 0 -673298 312459 0 -671136 312254 0 -668973 312049 0 -666810 311843 0 -664648 311638 0 -662485 311433 0 -660322 311227 0 -658159 311022 0 -655996 310816 0 -653833 310610 0 -651670 310404 0 -649506 310198 0 -647343 309991 0 -645179 309785 0 -643015 309578 0 -640851 309371 0 -638686 309164 0 -636521 308957 0 -634356 308749 0 -632191 308542 0 -630026 308334 0 -627860 308126 0 -625694 307918 0 -623528 307709 0 -621361 307501 0 -619194 307292 0 -617027 307083 0 -614860 306874 0 -612692 306665 0 -610524 306455 0 -608355 306246 0 -606187 306036 0 -604017 305826 0 -601848 305616 0 -599678 305405 0 -597508 305195 0 -595338 304984 0 -593167 304773 0 -590995 304562 0 -588824 304350 0 -586652 304139 0 -584479 303927 0 -582307 303715 0 -580134 303503 0 -577960 303291 0 -575786 303078 0 -573612 302866 0 -571437 302653 0 -569262 302440 0 -567087 302227 0 -564911 302014 0 -562735 301800 0 -560558 301586 0 -558381 301373 0 -556204 301159 0 -554026 300944 0 -551848 300730 0 -549669 300516 0 -547490 300301 0 -824202 347949 0 -822068 347648 0 -819932 347349 0 -817793 347051 0 -815654 346756 0 -813513 346463 0 -811370 346171 0 -809227 345882 0 -807082 345594 0 -804936 345308 0 -802789 345024 0 -800640 344742 0 -798491 344461 0 -796341 344182 0 -794190 343905 0 -792038 343630 0 -789886 343356 0 -787732 343084 0 -785578 342814 0 -783423 342545 0 -781268 342278 0 -779112 342012 0 -776956 341748 0 -774799 341486 0 -772642 341224 0 -770485 340965 0 -768327 340706 0 -766168 340449 0 -764010 340193 0 -761851 339939 0 -759692 339685 0 -757533 339433 0 -755374 339182 0 -753214 338932 0 -751055 338683 0 -748895 338436 0 -746735 338189 0 -744575 337943 0 -742415 337698 0 -740255 337453 0 -738095 337210 0 -735935 336968 0 -733775 336726 0 -731615 336485 0 -729455 336244 0 -727295 336005 0 -725135 335765 0 -722975 335527 0 -720815 335289 0 -718655 335051 0 -716495 334814 0 -714334 334578 0 -712174 334342 0 -710014 334106 0 -707854 333871 0 -705694 333636 0 -703534 333401 0 -701374 333167 0 -699214 332933 0 -697054 332699 0 -694894 332465 0 -692734 332232 0 -690574 331999 0 -688414 331766 0 -686254 331533 0 -684093 331300 0 -681933 331067 0 -679772 330835 0 -677612 330602 0 -675451 330370 0 -673290 330137 0 -671129 329905 0 -668968 329673 0 -666807 329440 0 -664646 329208 0 -662484 328976 0 -660323 328743 0 -658161 328511 0 -655999 328279 0 -653837 328046 0 -651674 327813 0 -649512 327581 0 -647349 327348 0 -645186 327115 0 -643022 326882 0 -640859 326649 0 -638695 326416 0 -636531 326183 0 -634367 325950 0 -632202 325716 0 -630038 325483 0 -627873 325249 0 -625707 325015 0 -623542 324781 0 -621376 324547 0 -619209 324312 0 -617043 324078 0 -614876 323843 0 -612709 323609 0 -610541 323374 0 -608373 323139 0 -606205 322904 0 -604037 322668 0 -601868 322433 0 -599699 322197 0 -597529 321961 0 -595359 321725 0 -593189 321489 0 -591018 321252 0 -588847 321016 0 -586676 320779 0 -584504 320542 0 -582332 320305 0 -580160 320068 0 -577987 319830 0 -575814 319593 0 -573640 319355 0 -571466 319117 0 -569292 318879 0 -567117 318641 0 -564942 318402 0 -562766 318164 0 -560591 317925 0 -558414 317686 0 -556238 317447 0 -554061 317207 0 -551883 316968 0 -549705 316728 0 -825609 367591 0 -823493 367275 0 -821377 366960 0 -819258 366647 0 -817138 366334 0 -815017 366023 0 -812894 365714 0 -810769 365405 0 -808643 365098 0 -806516 364793 0 -804387 364488 0 -802257 364185 0 -800126 363884 0 -797993 363583 0 -795860 363284 0 -793725 362987 0 -791589 362690 0 -789452 362395 0 -787314 362101 0 -785176 361809 0 -783036 361517 0 -780895 361227 0 -778754 360938 0 -776612 360650 0 -774469 360364 0 -772325 360078 0 -770181 359794 0 -768036 359511 0 -765890 359228 0 -763744 358947 0 -761597 358667 0 -759450 358388 0 -757302 358110 0 -755154 357833 0 -753005 357557 0 -750856 357281 0 -748706 357007 0 -746556 356733 0 -744406 356460 0 -742255 356188 0 -740104 355917 0 -737952 355647 0 -735800 355377 0 -733648 355108 0 -731496 354839 0 -729343 354572 0 -727190 354304 0 -725037 354038 0 -722883 353772 0 -720730 353506 0 -718576 353241 0 -716421 352977 0 -714267 352713 0 -712112 352449 0 -709957 352186 0 -707802 351923 0 -705647 351661 0 -703492 351399 0 -701336 351137 0 -699180 350876 0 -697024 350615 0 -694868 350354 0 -692711 350093 0 -690554 349833 0 -688397 349573 0 -686240 349313 0 -684083 349053 0 -681925 348794 0 -679768 348534 0 -677610 348275 0 -675451 348016 0 -673293 347757 0 -671134 347498 0 -668976 347239 0 -666816 346980 0 -664657 346721 0 -662497 346462 0 -660338 346204 0 -658178 345945 0 -656017 345686 0 -653857 345428 0 -651696 345169 0 -649535 344910 0 -647373 344651 0 -645211 344393 0 -643049 344134 0 -640887 343875 0 -638725 343616 0 -636562 343357 0 -634399 343098 0 -632235 342839 0 -630071 342579 0 -627907 342320 0 -625743 342060 0 -623578 341801 0 -621413 341541 0 -619248 341281 0 -617082 341021 0 -614916 340761 0 -612750 340501 0 -610583 340241 0 -608416 339981 0 -606249 339720 0 -604081 339459 0 -601913 339198 0 -599745 338937 0 -597576 338676 0 -595407 338415 0 -593237 338153 0 -591067 337892 0 -588897 337630 0 -586726 337368 0 -584555 337106 0 -582384 336844 0 -580212 336581 0 -578040 336319 0 -575868 336056 0 -573695 335793 0 -571521 335530 0 -569348 335266 0 -567174 335003 0 -564999 334739 0 -562825 334475 0 -560649 334211 0 -558474 333947 0 -556298 333683 0 -554122 333418 0 -551945 333154 0 -827100 387072 0 -825001 386741 0 -822900 386412 0 -820797 386083 0 -818692 385755 0 -816586 385429 0 -814478 385103 0 -812369 384778 0 -810258 384454 0 -808146 384131 0 -806032 383809 0 -803917 383487 0 -801800 383167 0 -799682 382848 0 -797563 382530 0 -795443 382212 0 -793321 381896 0 -791198 381580 0 -789074 381266 0 -786949 380952 0 -784823 380639 0 -782695 380328 0 -780567 380017 0 -778437 379707 0 -776307 379398 0 -774176 379090 0 -772043 378782 0 -769910 378476 0 -767776 378170 0 -765641 377865 0 -763506 377561 0 -761369 377258 0 -759232 376956 0 -757094 376654 0 -754955 376353 0 -752816 376053 0 -750676 375754 0 -748535 375455 0 -746394 375157 0 -744252 374860 0 -742109 374563 0 -739966 374267 0 -737823 373972 0 -735678 373677 0 -733534 373383 0 -731389 373090 0 -729243 372796 0 -727097 372504 0 -724950 372212 0 -722803 371920 0 -720655 371629 0 -718507 371339 0 -716359 371048 0 -714210 370759 0 -712061 370469 0 -709911 370180 0 -707761 369892 0 -705611 369604 0 -703460 369316 0 -701309 369028 0 -699157 368741 0 -697006 368454 0 -694853 368167 0 -692701 367880 0 -690548 367594 0 -688395 367308 0 -686241 367022 0 -684087 366737 0 -681933 366451 0 -679778 366166 0 -677623 365881 0 -675468 365596 0 -673312 365311 0 -671156 365026 0 -669000 364741 0 -666843 364456 0 -664686 364172 0 -662529 363887 0 -660371 363603 0 -658213 363319 0 -656055 363034 0 -653896 362750 0 -651737 362466 0 -649578 362181 0 -647418 361897 0 -645258 361613 0 -643098 361328 0 -640937 361044 0 -638776 360759 0 -636615 360475 0 -634453 360190 0 -632291 359906 0 -630129 359621 0 -627966 359336 0 -625803 359051 0 -623639 358766 0 -621475 358481 0 -619311 358196 0 -617146 357911 0 -614981 357626 0 -612816 357340 0 -610650 357055 0 -608484 356769 0 -606318 356483 0 -604151 356197 0 -601984 355911 0 -599816 355625 0 -597648 355339 0 -595480 355052 0 -593311 354766 0 -591142 354479 0 -588973 354192 0 -586803 353905 0 -584633 353618 0 -582462 353330 0 -580291 353042 0 -578120 352755 0 -575948 352467 0 -573776 352179 0 -571603 351890 0 -569430 351602 0 -567257 351313 0 -565083 351024 0 -562909 350735 0 -560735 350446 0 -558560 350157 0 -556384 349867 0 -554209 349577 0 -828691 406419 0 -826604 406075 0 -824514 405732 0 -822424 405390 0 -820331 405047 0 -818237 404706 0 -816142 404365 0 -814044 404025 0 -811946 403685 0 -809845 403346 0 -807744 403007 0 -805641 402669 0 -803536 402332 0 -801430 401996 0 -799322 401660 0 -797214 401324 0 -795104 400990 0 -792992 400656 0 -790880 400322 0 -788766 399990 0 -786651 399658 0 -784534 399326 0 -782417 398996 0 -780298 398665 0 -778178 398336 0 -776058 398007 0 -773936 397679 0 -771813 397352 0 -769689 397025 0 -767564 396698 0 -765438 396373 0 -763311 396048 0 -761183 395723 0 -759055 395399 0 -756925 395076 0 -754795 394753 0 -752663 394431 0 -750531 394109 0 -748398 393788 0 -746265 393468 0 -744130 393148 0 -741995 392828 0 -739859 392509 0 -737722 392191 0 -735585 391873 0 -733447 391555 0 -731308 391238 0 -729169 390921 0 -727029 390605 0 -724888 390289 0 -722747 389973 0 -720605 389658 0 -718463 389344 0 -716320 389029 0 -714176 388715 0 -712032 388401 0 -709888 388088 0 -707742 387775 0 -705597 387462 0 -703451 387150 0 -701304 386837 0 -699157 386525 0 -697009 386213 0 -694861 385902 0 -692712 385591 0 -690563 385279 0 -688413 384969 0 -686263 384658 0 -684113 384347 0 -681962 384037 0 -679810 383726 0 -677658 383416 0 -675506 383106 0 -673353 382796 0 -671200 382486 0 -669047 382177 0 -666893 381867 0 -664738 381557 0 -662583 381248 0 -660428 380938 0 -658272 380629 0 -656116 380319 0 -653960 380010 0 -651803 379701 0 -649645 379391 0 -647488 379082 0 -645329 378