<?xml version="1.0"?> 
<VTKFile type="StructuredGrid" version="0.1"> 
<StructuredGrid WholeExtent="0 127 0 127 0 0"> 
<Piece Extent="0 127 0 127 0 0"> 
<PointData>
<DataArray type="Float32" Name="E" format="ascii" NumberOfComponents="3"> 
302613 0.0874311 0 302527 6742.41 0 302269 13480.2 0 301840 20208.6 0 301239 26923.1 0 300467 33618.9 0 299524 40291.5 0 298412 46936.2 0 297130 53548.4 0 295681 60123.4 0 294064 66656.8 0 292281 73143.7 0 290332 79579.8 0 288221 85960.4 0 285947 92280.9 0 283513 98536.8 0 280920 104724 0 278170 110837 0 275266 116872 0 272209 122825 0 269001 128690 0 265646 134465 0 262145 140144 0 258502 145723 0 254718 151199 0 250798 156566 0 246745 161821 0 242561 166960 0 238251 171978 0 233817 176873 0 229264 181640 0 224595 186276 0 219815 190777 0 214928 195140 0 209939 199362 0 204851 203439 0 199669 207368 0 194399 211148 0 189045 214774 0 183612 218244 0 178106 221557 0 172531 224710 0 166894 227701 0 161199 230529 0 155453 233191 0 149661 235688 0 143828 238017 0 137961 240178 0 132066 242170 0 126148 243994 0 120214 245648 0 114269 247134 0 108320 248452 0 102372 249602 0 96430.6 250586 0 90502.7 251405 0 84593.8 252060 0 78709.5 252553 0 72855.6 252887 0 67037.5 253063 0 61260.7 253085 0 55530.5 252954 0 49851.9 252675 0 44230.1 252250 0 38669.6 251683 0 33175.3 250978 0 27751.4 250139 0 22402.2 249169 0 17131.7 248073 0 11943.6 246855 0 6841.32 245520 0 1828.28 244073 0 -3092.55 242519 0 -7918.39 240862 0 -12646.7 239107 0 -17275.3 237259 0 -21802 235325 0 -26225.2 233307 0 -30543.4 231213 0 -34755.2 229047 0 -38859.7 226813 0 -42856 224519 0 -46743.7 222167 0 -50522.4 219764 0 -54192 217314 0 -57752.5 214823 0 -61204.4 212295 0 -64548.2 209735 0 -67784.4 207148 0 -70914 204538 0 -73937.9 201910 0 -76857.4 199268 0 -79673.8 196617 0 -82388.4 193960 0 -85003 191302 0 -87519.1 188646 0 -89938.6 185997 0 -92263.4 183358 0 -94495.4 180733 0 -96636.6 178125 0 -98689.4 175537 0 -100656 172973 0 -102538 170436 0 -104339 167929 0 -106060 165455 0 -107704 163018 0 -109274 160619 0 -110773 158262 0 -112202 155950 0 -113566 153686 0 -114866 151472 0 -116106 149312 0 -117290 147209 0 -118421 145166 0 -119502 143187 0 -120540 141276 0 -121539 139437 0 -122506 137678 0 -123449 136003 0 -124382 134423 0 -125311 132947 0 -126285 131600 0 -127271 130388 0 -128527 129416 0 -129635 128571 0 -132391 128689 0 -133466 128291 0 -163389 139453 0 299263 0.0862978 0 299178 6657.02 0 298924 13309.5 0 298500 19952.7 0 297907 26582.1 0 297146 33193.1 0 296216 39781.2 0 295119 46341.7 0 293854 52870.1 0 292424 59361.8 0 290829 65812.4 0 289070 72217.1 0 287148 78571.6 0 285066 84871.3 0 282823 91111.7 0 280422 97288.4 0 277864 103397 0 275152 109433 0 272288 115392 0 269273 121269 0 266109 127061 0 262800 132763 0 259348 138370 0 255755 143879 0 252024 149286 0 248159 154586 0 244162 159776 0 240037 164851 0 235787 169807 0 231416 174642 0 226927 179351 0 222325 183931 0 217612 188377 0 212795 192688 0 207876 196860 0 202860 200889 0 197753 204774 0 192558 208510 0 187280 212096 0 181925 215529 0 176498 218806 0 171003 221927 0 165446 224888 0 159833 227689 0 154169 230327 0 148459 232802 0 142710 235113 0 136926 237258 0 131115 239238 0 125281 241051 0 119430 242699 0 113569 244181 0 107703 245498 0 101837 246650 0 95978.4 247639 0 90132 248466 0 84303.8 249131 0 78499.2 249638 0 72723.9 249988 0 66983.2 250183 0 61282.4 250227 0 55626.7 250120 0 50021.2 249868 0 44470.7 249472 0 38979.8 248937 0 33553.1 248265 0 28194.9 247461 0 22909.3 246529 0 17700.3 245473 0 12571.4 244297 0 7526.07 243005 0 2567.63 241603 0 -2301 240095 0 -7077.08 238485 0 -11758.1 236779 0 -16341.9 234981 0 -20826.5 233097 0 -25210 231132 0 -29491 229089 0 -33668.2 226976 0 -37740.6 224796 0 -41707.5 222555 0 -45568.2 220257 0 -49322.4 217908 0 -52969.9 215512 0 -56510.9 213075 0 -59945.6 210600 0 -63274.4 208094 0 -66498.1 205559 0 -69617.3 203002 0 -72633.1 200426 0 -75546.6 197836 0 -78359.1 195235 0 -81071.9 192628 0 -83686.6 190019 0 -86204.8 187412 0 -88628.1 184810 0 -90958.6 182218 0 -93198 179638 0 -95348.5 177074 0 -97412 174529 0 -99390.8 172008 0 -101287 169512 0 -103103 167045 0 -104841 164610 0 -106504 162209 0 -108094 159847 0 -109614 157525 0 -111067 155246 0 -112454 153014 0 -113780 150831 0 -115048 148699 0 -116260 146623 0 -117421 144605 0 -118535 142649 0 -119607 140758 0 -120643 138937 0 -121650 137191 0 -122637 135525 0 -123615 133945 0 -124606 132465 0 -125623 131085 0 -126739 129852 0 -127952 128712 0 -129585 127909 0 -131568 126959 0 -136122 127215 0 -142831 122162 0 295956 0.0852342 0 295872 6572.78 0 295621 13141 0 295203 19700.2 0 294618 26245.7 0 293867 32773 0 292950 39277.7 0 291867 45755.2 0 290620 52201 0 289209 58610.5 0 287635 64979.4 0 285900 71303.1 0 284005 77577.1 0 281950 83797.1 0 279738 89958.6 0 277370 96057.1 0 274847 102088 0 272172 108048 0 269347 113932 0 266374 119735 0 263254 125454 0 259990 131084 0 256586 136621 0 253043 142061 0 249364 147400 0 245553 152634 0 241612 157759 0 237544 162771 0 233354 167667 0 229044 172442 0 224619 177094 0 220081 181618 0 215436 186012 0 210686 190271 0 205837 194394 0 200893 198376 0 195858 202216 0 190737 205910 0 185535 209456 0 180256 212852 0 174906 216095 0 169490 219183 0 164012 222115 0 158479 224889 0 152896 227503 0 147268 229957 0 141600 232249 0 135899 234379 0 130169 236346 0 124418 238150 0 118649 239791 0 112870 241269 0 107085 242585 0 101301 243739 0 95523.1 244733 0 89756.8 245566 0 84007.8 246243 0 78281.5 246762 0 72583.4 247128 0 66918.8 247342 0 61292.8 247406 0 55710.5 247323 0 50176.7 247096 0 44696.3 246729 0 39273.9 246224 0 33913.8 245585 0 28620.2 244816 0 23397.3 243921 0 18248.8 242903 0 13178.2 241767 0 8189.1 240518 0 3284.51 239159 0 -1532.6 237696 0 -6259.55 236133 0 -10893.9 234474 0 -15433.4 232725 0 -19876.1 230890 0 -24220.3 228975 0 -28464.5 226984 0 -32607.4 224922 0 -36648 222794 0 -40585.5 220605 0 -44419.3 218359 0 -48149 216063 0 -51774.5 213720 0 -55295.8 211335 0 -58713.2 208913 0 -62027 206459 0 -65237.8 203977 0 -68346.5 201471 0 -71353.9 198946 0 -74261.1 196405 0 -77069.4 193854 0 -79779.9 191297 0 -82394.3 188736 0 -84914.1 186176 0 -87340.9 183621 0 -89676.6 181074 0 -91923 178538 0 -94082.1 176018 0 -96155.9 173516 0 -98146.6 171036 0 -100056 168580 0 -101887 166152 0 -103642 163755 0 -105323 161392 0 -106932 159065 0 -108472 156777 0 -109947 154531 0 -111358 152330 0 -112709 150176 0 -114002 148073 0 -115243 146023 0 -116433 144029 0 -117579 142095 0 -118684 140224 0 -119755 138418 0 -120799 136684 0 -121826 135024 0 -122849 133445 0 -123885 131951 0 -124962 130551 0 -126121 129247 0 -127440 128051 0 -129049 126940 0 -131253 125835 0 -134675 124329 0 -139027 119534 0 292690 0.0841753 0 292608 6489.68 0 292360 12974.9 0 291948 19451.1 0 291371 25913.8 0 290629 32358.6 0 289724 38781.1 0 288656 45176.6 0 287426 51540.9 0 286035 57869.4 0 284482 64157.7 0 282771 70401.4 0 280901 76596.2 0 278874 82737.5 0 276692 88821.1 0 274356 94842.6 0 271868 100798 0 269230 106682 0 266444 112492 0 263511 118222 0 260434 123869 0 257216 129428 0 253859 134896 0 250365 140268 0 246737 145540 0 242979 150709 0 239093 155771 0 235083 160721 0 230951 165556 0 226702 170273 0 222338 174868 0 217865 179338 0 213285 183679 0 208603 187888 0 203823 191963 0 198949 195899 0 193985 199695 0 188937 203347 0 183809 206854 0 178605 210213 0 173331 213422 0 167992 216479 0 162593 219382 0 157138 222129 0 151634 224720 0 146086 227153 0 140499 229427 0 134878 231541 0 129229 233496 0 123558 235290 0 117871 236924 0 112172 238398 0 106468 239713 0 100764 240868 0 95064.9 241866 0 89377.3 242707 0 83706.1 243393 0 78056.8 243925 0 72434.7 244306 0 66844.8 244537 0 61292.3 244621 0 55782 244561 0 50318.9 244360 0 44907.5 244020 0 39552.4 243544 0 34257.8 242937 0 29027.9 242202 0 23866.7 241343 0 18777.8 240363 0 13764.8 239266 0 8830.99 238058 0 3979.53 236742 0 -786.731 235322 0 -5465.16 233804 0 -10053.3 232192 0 -14549.1 230490 0 -18950.4 228704 0 -23255.7 226837 0 -27463.4 224896 0 -31572.2 222884 0 -35581.2 220807 0 -39489.4 218669 0 -43296.4 216475 0 -47001.7 214230 0 -50605.1 211939 0 -54106.7 209605 0 -57506.6 207235 0 -60805.3 204831 0 -64003.1 202400 0 -67101 199944 0 -70099.8 197469 0 -73000.4 194978 0 -75804 192476 0 -78512 189966 0 -81125.7 187452 0 -83646.6 184939 0 -86076.5 182429 0 -88416.9 179927 0 -90669.8 177435 0 -92837 174958 0 -94920.6 172498 0 -96922.5 170058 0 -98845.1 167642 0 -100690 165252 0 -102461 162893 0 -104159 160565 0 -105787 158273 0 -107347 156018 0 -108843 153804 0 -110277 151634 0 -111651 149509 0 -112971 147433 0 -114238 145409 0 -115457 143439 0 -116632 141525 0 -117769 139672 0 -118873 137882 0 -119952 136158 0 -121016 134504 0 -122078 132922 0 -123156 131416 0 -124275 129986 0 -125478 128630 0 -126827 127333 0 -128443 126043 0 -130485 124605 0 -133210 122481 0 -135345 118167 0 289466 0.0831222 0 289384 6407.69 0 289140 12811 0 288733 19205.3 0 288164 25586.4 0 287433 31949.8 0 286540 38291.1 0 285487 44605.9 0 284273 50889.7 0 282900 57138.3 0 281369 63347.2 0 279681 69512 0 277836 75628.6 0 275837 81692.4 0 273685 87699.2 0 271381 93644.8 0 268927 99524.8 0 266325 105335 0 263577 111071 0 260684 116730 0 257650 122306 0 254476 127795 0 251165 133195 0 247720 138500 0 244143 143706 0 240437 148811 0 236605 153810 0 232651 158699 0 228577 163476 0 224388 168135 0 220086 172675 0 215675 177090 0 211160 181380 0 206544 185539 0 201831 189566 0 197026 193457 0 192133 197209 0 187157 200821 0 182101 204289 0 176972 207612 0 171773 210787 0 166510 213813 0 161187 216687 0 155810 219409 0 150384 221976 0 144914 224388 0 139405 226644 0 133864 228744 0 128295 230686 0 122703 232470 0 117095 234097 0 111476 235567 0 105850 236880 0 100225 238037 0 94604 239038 0 88993.6 239886 0 83399 240581 0 77825.4 241126 0 72277.8 241521 0 66761.4 241769 0 61281.2 241873 0 55841.8 241835 0 50448.2 241658 0 45104.7 241345 0 39815.8 240898 0 34585.7 240322 0 29418.4 239620 0 24317.9 238795 0 19287.8 237851 0 14331.5 236793 0 9452.3 235625 0 4653.25 234350 0 -62.8279 232973 0 -4693.33 231499 0 -9235.89 229932 0 -13688.3 228276 0 -18048.8 226537 0 -22315.5 224718 0 -26487 222825 0 -30562 220863 0 -34539.5 218835 0 -38418.7 216747 0 -42199 214603 0 -45879.9 212409 0 -49461.3 210168 0 -52943 207885 0 -56325.4 205564 0 -59608.7 203211 0 -62793.5 200829 0 -65880.3 198423 0 -68870.1 195996 0 -71763.9 193554 0 -74562.6 191099 0 -77267.6 188636 0 -79880.2 186169 0 -82402 183701 0 -84834.4 181236 0 -87179.1 178777 0 -89438 176329 0 -91612.8 173893 0 -93705.6 171474 0 -95718.4 169074 0 -97653.2 166697 0 -99512.3 164345 0 -101298 162022 0 -103012 159729 0 -104658 157471 0 -106238 155249 0 -107754 153067 0 -109210 150926 0 -110608 148830 0 -111952 146781 0 -113245 144781 0 -114491 142833 0 -115695 140941 0 -116862 139105 0 -117997 137329 0 -119109 135615 0 -120208 133965 0 -121304 132381 0 -122417 130861 0 -123570 129404 0 -124798 127996 0 -126156 126612 0 -127716 125174 0 -129576 123521 0 -131641 121174 0 -133233 117620 0 286282 0.0820744 0 286202 6326.81 0 285961 12649.3 0 285560 18962.9 0 284998 25263.5 0 284277 31546.5 0 283396 37807.8 0 282357 44042.8 0 281160 50247.4 0 279805 56417.1 0 278295 62547.6 0 276629 68634.7 0 274810 74674.1 0 272838 80661.5 0 270715 86592.6 0 268443 92463.3 0 266023 98269.3 0 263456 104006 0 260746 109671 0 257893 115258 0 254901 120764 0 251771 126185 0 248506 131517 0 245108 136756 0 241581 141898 0 237926 146940 0 234148 151877 0 230249 156706 0 226232 161424 0 222102 166027 0 217860 170511 0 213512 174874 0 209060 179113 0 204509 183223 0 199863 187203 0 195126 191049 0 190302 194759 0 185396 198330 0 180413 201761 0 175356 205048 0 170231 208190 0 165042 211185 0 159794 214031 0 154493 216727 0 149144 219271 0 143751 221663 0 138321 223901 0 132857 225985 0 127366 227915 0 121853 229689 0 116322 231309 0 110781 232775 0 105233 234086 0 99684.5 235244 0 94140.4 236249 0 88606.1 237103 0 83086.7 237808 0 77587.4 238363 0 72113.2 238773 0 66669.1 239038 0 61259.8 239161 0 55890.2 239144 0 50564.9 238990 0 45288.2 238703 0 40064.4 238284 0 34897.8 237738 0 29792.3 237068 0 24751.6 236277 0 19779.3 235369 0 14878.9 234348 0 10053.6 233218 0 5306.22 231984 0 639.683 230648 0 -3943.5 229217 0 -8440.98 227694 0 -12850.6 226083 0 -17170.5 224390 0 -21399 222618 0 -25534.6 220772 0 -29576.1 218858 0 -33522.4 216878 0 -37372.7 214839 0 -41126.4 212744 0 -44783 210599 0 -48342.3 208407 0 -51804.2 206173 0 -55169 203902 0 -58436.8 201598 0 -61608.3 199264 0 -64683.9 196906 0 -67664.5 194527 0 -70551.1 192132 0 -73344.6 189724 0 -76046.3 187307 0 -78657.5 184886 0 -81179.6 182462 0 -83614.2 180041 0 -85962.8 177625 0 -88227.2 175219 0 -90409.2 172824 0 -92510.7 170445 0 -94533.7 168085 0 -96480.2 165745 0 -98352.5 163431 0 -100153 161143 0 -101883 158885 0 -103546 156660 0 -105145 154471 0 -106681 152319 0 -108158 150208 0 -109579 148139 0 -110946 146116 0 -112264 144140 0 -113536 142215 0 -114768 140342 0 -115963 138523 0 -117128 136760 0 -118270 135056 0 -119399 133410 0 -120527 131823 0 -121668 130291 0 -122845 128808 0 -124087 127356 0 -125431 125899 0 -126922 124360 0 -128573 122580 0 -130237 120255 0 -131358 117192 0 283139 0.0810326 0 283060 6247.02 0 282822 12489.7 0 282426 18723.8 0 281872 24944.9 0 281160 31148.7 0 280292 37331 0 279266 43487.4 0 278085 49613.7 0 276750 55705.7 0 275260 61758.9 0 273617 67769.3 0 271822 73732.6 0 269877 79644.6 0 267783 85501.1 0 265542 91297.9 0 263155 97031 0 260624 102696 0 257950 108289 0 255137 113806 0 252186 119244 0 249099 124597 0 245879 129863 0 242529 135036 0 239050 140115 0 235447 145094 0 231721 149971 0 227877 154741 0 223916 159401 0 219843 163948 0 215661 168379 0 211374 172690 0 206985 176878 0 202498 180940 0 197918 184873 0 193248 188675 0 188492 192343 0 183655 195875 0 178742 199268 0 173757 202520 0 168704 205629 0 163589 208594 0 158415 211412 0 153189 214083 0 147915 216604 0 142599 218976 0 137244 221196 0 131857 223265 0 126443 225182 0 121006 226947 0 115552 228560 0 110087 230021 0 104616 231331 0 99143.1 232489 0 93674.4 233498 0 88214.8 234358 0 82769.3 235071 0 77343.1 235638 0 71941 236061 0 66567.9 236342 0 61228.6 236483 0 55927.6 236487 0 50669.4 236356 0 45458.4 236094 0 40298.8 235702 0 35194.7 235185 0 30149.9 234546 0 25168.1 233788 0 20252.9 232914 0 15407.6 231930 0 10635.3 230838 0 5939 229642 0 1321.35 228348 0 -3215.09 226958 0 -7668.02 225478 0 -12035.3 223911 0 -16315.2 222262 0 -20505.8 220536 0 -24605.9 218737 0 -28614.1 216869 0 -32529.3 214937 0 -36350.9 212945 0 -40078 210898 0 -43710.3 208801 0 -47247.6 206657 0 -50689.7 204471 0 -54036.8 202248 0 -57289 199991 0 -60447 197706 0 -63511.2 195395 0 -66482.5 193063 0 -69361.6 190714 0 -72149.6 188352 0 -74847.7 185980 0 -77457.1 183603 0 -79979.2 181223 0 -82415.4 178845 0 -84767.5 176471 0 -87036.9 174106 0 -89225.6 171752 0 -91335.3 169412 0 -93368.1 167090 0 -95325.8 164788 0 -97210.7 162509 0 -99025 160257 0 -100771 158033 0 -102451 155841 0 -104067 153683 0 -105622 151561 0 -107120 149478 0 -108562 147437 0 -109953 145439 0 -111294 143487 0 -112592 141583 0 -113849 139729 0 -115071 137927 0 -116264 136177 0 -117434 134482 0 -118591 132841 0 -119746 131251 0 -120911 129709 0 -122105 128204 0 -123350 126716 0 -124670 125206 0 -126082 123601 0 -127561 121775 0 -128941 119542 0 -129882 116877 0 280035 0.0799973 0 279957 6168.3 0 279722 12332.4 0 279332 18487.9 0 278785 24630.6 0 278083 30756.2 0 277226 36860.6 0 276215 42939.5 0 275050 48988.7 0 273732 55003.9 0 272263 60981 0 270642 66915.7 0 268872 72804 0 266954 78641.6 0 264888 84424.5 0 262677 90148.5 0 260323 95809.6 0 257826 101404 0 255190 106927 0 252415 112375 0 249505 117744 0 246461 123031 0 243285 128231 0 239981 133341 0 236551 138356 0 232998 143274 0 229324 148091 0 225533 152803 0 221628 157407 0 217612 161899 0 213489 166276 0 209262 170536 0 204934 174674 0 200511 178689 0 195995 182577 0 191391 186335 0 186702 189962 0 181934 193455 0 177090 196811 0 172175 200028 0 167193 203105 0 162150 206039 0 157050 208830 0 151897 211476 0 146697 213975 0 141455 216326 0 136176 218529 0 130864 220583 0 125525 222488 0 120164 224243 0 114785 225849 0 109396 227305 0 103999 228613 0 98600.8 229772 0 93206.1 230784 0 87819.9 231650 0 82447.2 232371 0 77092.8 232948 0 71761.6 233384 0 66458.4 233681 0 61187.7 233840 0 55954.2 233864 0 50762.1 233755 0 45615.8 233517 0 40519.4 233152 0 35476.8 232663 0 30491.8 232054 0 25568.1 231327 0 20709.1 230488 0 15918.1 229539 0 11198.1 228483 0 6552.1 227326 0 1982.72 226071 0 -2507.56 224722 0 -6916.46 223283 0 -11241.9 221759 0 -15482.1 220154 0 -19635.3 218472 0 -23700.1 216718 0 -27675.2 214896 0 -31559.7 213010 0 -35352.6 211065 0 -39053.4 209065 0 -42661.5 207014 0 -46176.7 204917 0 -49598.9 202779 0 -52928.2 200602 0 -56164.8 198393 0 -59309.2 196153 0 -62361.8 193889 0 -65323.4 191602 0 -68194.8 189299 0 -70977.1 186981 0 -73671.2 184654 0 -76278.5 182320 0 -78800.2 179983 0 -81237.8 177647 0 -83592.8 175315 0 -85866.9 172990 0 -88061.8 170676 0 -90179.3 168374 0 -92221.2 166090 0 -94189.7 163825 0 -96086.6 161582 0 -97914.3 159364 0 -99674.9 157173 0 -101371 155013 0 -103004 152885 0 -104579 150793 0 -106096 148738 0 -107559 146723 0 -108971 144751 0 -110336 142822 0 -111657 140939 0 -112939 139103 0 -114187 137317 0 -115406 135581 0 -116602 133895 0 -117784 132258 0 -118962 130667 0 -120147 129117 0 -121352 127595 0 -122594 126081 0 -123885 124536 0 -125224 122897 0 -126564 121072 0 -127764 118958 0 -128583 116585 0 276970 0.0789688 0 276893 6090.66 0 276662 12177.1 0 276276 18255.1 0 275737 24320.5 0 275045 30369.1 0 274200 36396.7 0 273202 42399.1 0 272053 48372.1 0 270753 54311.7 0 269303 60213.6 0 267705 66073.7 0 265959 71888 0 264067 77652.3 0 262029 83362.6 0 259849 89014.9 0 257527 94605 0 255064 100129 0 252464 105583 0 249728 110963 0 246857 116266 0 243855 121487 0 240724 126622 0 237465 131669 0 234083 136622 0 230579 141480 0 226956 146238 0 223218 150892 0 219367 155440 0 215408 159878 0 211342 164203 0 207174 168412 0 202908 172501 0 198546 176469 0 194094 180312 0 189554 184028 0 184932 187614 0 180231 191068 0 175455 194388 0 170609 197571 0 165698 200616 0 160726 203521 0 155697 206285 0 150617 208905 0 145490 211382 0 140321 213714 0 135115 215899 0 129877 217939 0 124612 219831 0 119325 221577 0 114021 223175 0 108705 224627 0 103383 225932 0 98057.6 227092 0 92735.7 228107 0 87421.7 228978 0 82120.4 229707 0 76836.7 230294 0 71575.2 230743 0 66340.7 231054 0 61137.6 231230 0 55970.4 231273 0 50843.4 231186 0 45760.7 230972 0 40726.4 230632 0 35744.4 230171 0 30818.3 229591 0 25951.8 228896 0 21148.2 228089 0 16410.7 227174 0 11742.4 226154 0 7146.05 225034 0 2624.31 223818 0 -1820.37 222508 0 -6185.77 221110 0 -10469.8 219628 0 -14670.7 218065 0 -18786.8 216427 0 -22816.7 214716 0 -26759 212939 0 -30612.9 211098 0 -34377.4 209198 0 -38051.9 207244 0 -41635.9 205239 0 -45129.1 203188 0 -48531.4 201096 0 -51842.9 198965 0 -55063.7 196801 0 -58194.3 194607 0 -61235.1 192388 0 -64186.9 190146 0 -67050.4 187887 0 -69826.5 185614 0 -72516.4 183330 0 -75121.2 181038 0 -77642.2 178744 0 -80080.8 176449 0 -82438.4 174157 0 -84716.7 171872 0 -86917.3 169596 0 -89042.1 167333 0 -91092.8 165085 0 -93071.4 162856 0 -94979.9 160648 0 -96820.4 158463 0 -98595.2 156306 0 -100307 154177 0 -101957 152079 0 -103549 150016 0 -105085 147989 0 -106568 146000 0 -108001 144051 0 -109388 142145 0 -110733 140282 0 -112038 138466 0 -113310 136695 0 -114553 134972 0 -115773 133295 0 -116978 131664 0 -118176 130074 0 -119377 128518 0 -120590 126984 0 -121826 125452 0 -123088 123887 0 -124363 122239 0 -125599 120443 0 -126681 118448 0 -127447 116304 0 273944 0.0779474 0 273868 6014.06 0 273640 12024 0 273260 18025.6 0 272728 24014.7 0 272045 29987.2 0 271211 35939 0 270227 41865.9 0 269093 47763.9 0 267811 53628.9 0 266381 59456.6 0 264804 65243.2 0 263082 70984.5 0 261216 76676.5 0 259206 82315.3 0 257056 87896.7 0 254765 93416.9 0 252337 98872 0 249772 104258 0 247073 109571 0 244242 114808 0 241282 119964 0 238194 125036 0 234980 130020 0 231645 134913 0 228189 139710 0 224617 144410 0 220931 149008 0 217134 153501 0 213230 157885 0 209221 162159 0 205112 166318 0 200905 170359 0 196605 174281 0 192215 178080 0 187739 181753 0 183181 185299 0 178546 188715 0 173838 191999 0 169060 195149 0 164218 198162 0 159315 201038 0 154357 203775 0 149348 206371 0 144293 208826 0 139196 211138 0 134063 213306 0 128898 215331 0 123706 217211 0 118492 218947 0 113260 220538 0 108017 221985 0 102767 223288 0 97513.7 224448 0 92263.3 225465 0 87020.3 226341 0 81789.2 227077 0 76575 227675 0 71382.1 228136 0 66215.2 228461 0 61078.6 228654 0 55976.6 228716 0 50913.6 228649 0 45893.6 228458 0 40920.4 228143 0 35998 227708 0 31130 227157 0 26319.8 226492 0 21570.8 225717 0 16886.1 224835 0 12268.7 223850 0 7721.34 222767 0 3246.64 221587 0 -1153.01 220317 0 -5475.4 218958 0 -9718.53 217516 0 -13880.6 215995 0 -17959.9 214399 0 -21955.1 212732 0 -25865 210997 0 -29688.5 209200 0 -33424.7 207345 0 -37073 205435 0 -40633 203475 0 -44104.2 201470 0 -47486.6 199422 0 -50780.2 197336 0 -53985.1 195217 0 -57101.8 193068 0 -60130.7 190892 0 -63072.4 188695 0 -65927.7 186479 0 -68697.6 184249 0 -71382.9 182007 0 -73984.9 179757 0 -76504.9 177504 0 -78944 175250 0 -81303.8 172998 0 -83585.9 170751 0 -85791.8 168513 0 -87923.4 166287 0 -89982.3 164076 0 -91970.6 161882 0 -93890.1 159708 0 -95743 157556 0 -97531.4 155431 0 -99257.6 153333 0 -100924 151265 0 -102533 149230 0 -104087 147230 0 -105590 145266 0 -107043 143341 0 -108452 141457 0 -109818 139615 0 -111146 137816 0 -112440 136061 0 -113706 134351 0 -114949 132684 0 -116174 131059 0 -117390 129471 0 -118604 127913 0 -119823 126373 0 -121051 124832 0 -122286 123260 0 -123509 121619 0 -124671 119867 0 -125679 117981 0 -126421 116017 0 270956 0.0769334 0 270881 5938.5 0 270656 11872.9 0 270281 17799.1 0 269756 23713 0 269082 29610.5 0 268260 35487.5 0 267289 41340 0 266171 47164 0 264906 52955.3 0 263496 58710 0 261940 64424 0 260242 70093.3 0 258401 75714.1 0 256419 81282.2 0 254297 86793.8 0 252038 92245.1 0 249643 97632.1 0 247114 102951 0 244452 108198 0 241660 113370 0 238740 118462 0 235695 123471 0 232526 128394 0 229237 133226 0 225829 137966 0 222307 142608 0 218672 147150 0 214928 151589 0 211078 155921 0 207125 160143 0 203073 164253 0 198925 168247 0 194685 172123 0 190357 175879 0 185944 179511 0 181450 183017 0 176880 186395 0 172238 189644 0 167527 192760 0 162753 195743 0 157919 198590 0 153030 201300 0 148091 203872 0 143106 206305 0 138080 208598 0 133018 210749 0 127925 212759 0 122804 214627 0 117662 216353 0 112502 217937 0 107331 219379 0 102151 220680 0 96969.2 221839 0 91789.1 222859 0 86615.8 223740 0 81453.9 224483 0 76308 225090 0 71182.5 225562 0 66082 225902 0 61010.8 226110 0 55973.1 226190 0 50973.1 226144 0 46014.7 225974 0 41101.8 225684 0 36238.1 225275 0 31427.2 224751 0 26672.5 224116 0 21977.3 223371 0 17344.7 222522 0 12777.5 221571 0 8278.46 220523 0 3850.2 219380 0 -504.966 218147 0 -4784.86 216827 0 -8987.5 215425 0 -13111.1 213944 0 -17154.1 212389 0 -21114.9 210764 0 -24992.6 209072 0 -28785.9 207318 0 -32494 205506 0 -36116.3 203639 0 -39652.2 201723 0 -43101.5 199761 0 -46464 197758 0 -49739.6 195716 0 -52928.6 193640 0 -56031.3 191535 0 -59048.1 189403 0 -61979.6 187248 0 -64826.5 185075 0 -67589.8 182886 0 -70270.3 180686 0 -72869.2 178478 0 -75387.7 176264 0 -77827 174050 0 -80188.7 171836 0 -82474.1 169628 0 -84685 167428 0 -86822.8 165238 0 -88889.6 163062 0 -90886.9 160902 0 -92817 158762 0 -94681.6 156643 0 -96483.1 154549 0 -98223.5 152481 0 -99905.3 150442 0 -101531 148435 0 -103103 146461 0 -104624 144522 0 -106097 142621 0 -107525 140759 0 -108912 138936 0 -110262 137155 0 -111578 135416 0 -112865 133719 0 -114128 132063 0 -115373 130445 0 -116605 128861 0 -117830 127304 0 -119053 125762 0 -120274 124218 0 -121487 122649 0 -122670 121027 0 -123780 119325 0 -124744 117539 0 -125485 115719 0 268005 0.075927 0 267931 5863.96 0 267709 11723.9 0 267339 17575.7 0 266822 23415.4 0 266157 29238.9 0 265346 35042.2 0 264388 40821.3 0 263285 46572.2 0 262038 52290.9 0 260646 57973.5 0 259112 63615.9 0 257437 69214.3 0 255621 74764.7 0 253666 80263.3 0 251574 85706.1 0 249345 91089.3 0 246983 96409.2 0 244488 101662 0 241863 106844 0 239110 111951 0 236230 116980 0 233227 121928 0 230102 126790 0 226858 131564 0 223498 136245 0 220024 140831 0 216440 145318 0 212748 149703 0 208952 153983 0 205054 158155 0 201059 162217 0 196969 166165 0 192788 169996 0 188520 173708 0 184169 177299 0 179739 180767 0 175232 184108 0 170655 187321 0 166010 190405 0 161302 193357 0 156536 196176 0 151716 198860 0 146845 201408 0 141930 203820 0 136974 206093 0 131982 208228 0 126958 210223 0 121908 212079 0 116837 213795 0 111747 215372 0 106646 216809 0 101537 218107 0 96424.1 219266 0 91313.2 220288 0 86208.5 221173 0 81114.6 221923 0 76035.8 222538 0 70976.7 223022 0 65941.6 223375 0 60934.7 223599 0 55960.2 223696 0 51022.1 223670 0 46124.4 223521 0 41270.8 223254 0 36464.9 222870 0 31710.3 222373 0 27010.4 221766 0 22368.2 221052 0 17786.9 220235 0 13269.2 219317 0 8817.91 218303 0 4435.49 217195 0 124.263 215999 0 -4113.63 214717 0 -8276.24 213353 0 -12361.8 211912 0 -16368.7 210397 0 -20295.6 208812 0 -24141.2 207162 0 -27904.5 205450 0 -31584.7 203680 0 -35181.1 201856 0 -38693.1 199983 0 -42120.5 198064 0 -45463 196103 0 -48720.7 194104 0 -51893.7 192071 0 -54982.2 190008 0 -57986.7 187918 0 -60907.8 185806 0 -63746.2 183674 0 -66502.6 181527 0 -69178 179367 0 -71773.5 177199 0 -74290.3 175025 0 -76729.5 172849 0 -79092.6 170674 0 -81381 168503 0 -83596.3 166339 0 -85740.1 164185 0 -87814.1 162044 0 -89820.2 159918 0 -91760.2 157811 0 -93636.1 155724 0 -95450 153660 0 -97204.1 151622 0 -98900.7 149612 0 -100542 147632 0 -102131 145684 0 -103670 143770 0 -105161 141891 0 -106609 140050 0 -108016 138248 0 -109386 136484 0 -110722 134761 0 -112030 133077 0 -113312 131432 0 -114574 129822 0 -115821 128244 0 -117057 126690 0 -118283 125151 0 -119498 123611 0 -120694 122053 0 -121849 120455 0 -122925 118805 0 -123866 117106 0 -124618 115406 0 265092 0.0749286 0 265019 5790.43 0 264800 11576.9 0 264435 17355.3 0 263924 23121.8 0 263269 28872.3 0 262468 34602.9 0 261524 40309.6 0 260436 45988.4 0 259205 51635.6 0 257833 57247 0 256319 62818.9 0 254667 68347.3 0 252876 73828.3 0 250947 79258.3 0 248884 84633.2 0 246686 89949.4 0 244356 95203.1 0 241896 100391 0 239307 105508 0 236591 110553 0 233751 115520 0 230789 120406 0 227708 125209 0 224509 129924 0 221195 134548 0 217770 139078 0 214235 143511 0 210595 147844 0 206851 152073 0 203008 156196 0 199068 160209 0 195035 164111 0 190913 167898 0 186705 171568 0 182414 175119 0 178046 178548 0 173602 181853 0 169089 185032 0 164509 188083 0 159867 191005 0 155167 193796 0 150413 196454 0 145611 198979 0 140764 201369 0 135876 203623 0 130953 205741 0 125999 207722 0 121018 209566 0 116016 211272 0 110996 212841 0 105963 214273 0 100923 215568 0 95878.7 216727 0 90835.8 217751 0 85798.6 218640 0 80771.4 219396 0 75758.7 220020 0 70764.9 220514 0 65794.1 220880 0 60850.5 221119 0 55938.2 221233 0 51061.1 221225 0 46223.1 221098 0 41427.9 220853 0 36679 220494 0 31979.8 220023 0 27333.8 219444 0 22743.9 218759 0 18213.1 217972 0 13744.3 217087 0 9340.13 216106 0 5002.98 215033 0 735.158 213872 0 -3461.22 212627 0 -7584.24 211301 0 -11632.1 209898 0 -15603.4 208422 0 -19496.5 206877 0 -23310.4 205267 0 -27044 203596 0 -30696.4 201867 0 -34267 200085 0 -37755.2 198254 0 -41160.7 196376 0 -44483.3 194458 0 -47723 192501 0 -50879.9 190510 0 -53954.2 188488 0 -56946.3 186440 0 -59856.8 184369 0 -62686.3 182278 0 -65435.7 180171 0 -68105.8 178051 0 -70697.6 175922 0 -73212.3 173787 0 -75651 171649 0 -78015.2 169511 0 -80306.2 167377 0 -82525.5 165248 0 -84674.8 163129 0 -86755.7 161022 0 -88769.9 158930 0 -90719.4 156854 0 -92606.1 154799 0 -94431.9 152765 0 -96199.1 150756 0 -97909.9 148774 0 -99566.5 146821 0 -101172 144898 0 -102727 143008 0 -104237 141152 0 -105703 139332 0 -107129 137549 0 -108519 135803 0 -109874 134096 0 -111200 132426 0 -112501 130792 0 -113780 129191 0 -115040 127621 0 -116285 126073 0 -117515 124540 0 -118727 123009 0 -119911 121466 0 -121047 119898 0 -122103 118298 0 -123037 116677 0 -123809 115074 0 262215 0.0739382 0 262143 5717.9 0 261926 11431.9 0 261567 17137.9 0 261063 22832.2 0 260416 28510.7 0 259627 34169.5 0 258695 39804.8 0 257622 45412.6 0 256408 50989.1 0 255054 56530.4 0 253562 62032.7 0 251931 67492.1 0 250165 72904.8 0 248263 78267 0 246227 83575 0 244060 88825.1 0 241762 94013.6 0 239335 99136.8 0 236782 104191 0 234104 109173 0 231303 114079 0 228382 118905 0 225343 123649 0 222188 128307 0 218920 132875 0 215542 137350 0 212057 141730 0 208467 146010 0 204775 150189 0 200986 154263 0 197101 158230 0 193124 162086 0 189059 165830 0 184910 169458 0 180679 172969 0 176371 176360 0 171990 179629 0 167539 182774 0 163023 185793 0 158446 188685 0 153811 191448 0 149124 194081 0 144388 196583 0 139607 198951 0 134787 201187 0 129932 203288 0 125046 205255 0 120133 207087 0 115199 208783 0 110247 210345 0 105282 211771 0 100310 213063 0 95333 214222 0 90357 215247 0 85386.1 216140 0 80424.6 216902 0 75476.9 217534 0 70547.3 218039 0 65639.7 218417 0 60758.4 218670 0 55907.3 218801 0 51090.3 218811 0 46311.1 218704 0 41573.3 218481 0 36880.5 218146 0 32236.1 217700 0 27643.1 217148 0 23104.7 216491 0 18623.9 215734 0 14203.3 214880 0 9845.59 213931 0 5553.13 212892 0 1328.19 211766 0 -2827.16 210557 0 -6911.02 209267 0 -10921.7 207902 0 -14857.5 206464 0 -18717.3 204958 0 -22499.7 203388 0 -26203.7 201756 0 -29828.6 200068 0 -33373.5 198327 0 -36838 196536 0 -40221.7 194700 0 -43524.4 192822 0 -46746 190906 0 -49886.7 188956 0 -52946.7 186975 0 -55926.3 184967 0 -58826 182936 0 -61646.5 180885 0 -64388.6 178817 0 -67053.1 176737 0 -69640.9 174646 0 -72153.2 172549 0 -74591.2 170448 0 -76956.1 168347 0 -79249.3 166248 0 -81472.3 164155 0