<?xml version="1.0"?> 
<VTKFile type="StructuredGrid" version="0.1"> 
<StructuredGrid WholeExtent="0 127 0 127 0 0"> 
<Piece Extent="0 127 0 127 0 0"> 
<PointData>
<DataArray type="Float32" Name="E" format="ascii" NumberOfComponents="3"> 
0 -855936 0 61151.6 -779053 0 69288.9 -786835 0 100160 -780927 0 128184 -780408 0 159830 -776057 0 191044 -771080 0 222716 -764066 0 253951 -755627 0 284740 -745620 0 314805 -734247 0 344045 -721589 0 372340 -707784 0 399619 -692947 0 425823 -677199 0 450918 -660653 0 474880 -643417 0 497701 -625591 0 519379 -607269 0 539923 -588538 0 559348 -569476 0 577673 -550155 0 594923 -530642 0 611124 -510994 0 626304 -491266 0 640494 -471505 0 653725 -451753 0 666029 -432048 0 677437 -412423 0 687982 -392908 0 697693 -373529 0 706601 -354308 0 714736 -335265 0 722127 -316417 0 728802 -297780 0 734787 -279364 0 740107 -261182 0 744789 -243242 0 748855 -225553 0 752328 -208119 0 755230 -190946 0 757582 -174038 0 759403 -157398 0 760712 -141028 0 761528 -124931 0 761867 -109106 0 761746 -93554.2 0 761180 -78275.3 0 760185 -63268.9 0 758774 -48533.9 0 756962 -34069.2 0 754761 -19873.1 0 752184 -5944.02 0 749243 7720.12 0 745948 21121.4 0 742312 34262.2 0 738344 47144.7 0 734054 59771.6 0 729452 72145.4 0 724548 84268.8 0 719350 96144.5 0 713867 107775 0 708108 119164 0 702079 130313 0 695789 141225 0 689245 151903 0 682455 162351 0 675425 172570 0 668162 182563 0 660673 192334 0 652964 201884 0 645041 211218 0 636910 220336 0 628577 229242 0 620047 237939 0 611326 246428 0 602420 254713 0 593333 262796 0 584072 270680 0 574639 278366 0 565042 285857 0 555283 293155 0 545369 300263 0 535304 307182 0 525091 313916 0 514736 320465 0 504242 326832 0 493614 333020 0 482857 339029 0 471973 344862 0 460968 350521 0 449844 356008 0 438607 361323 0 427259 366470 0 415805 371449 0 404248 376263 0 392591 380912 0 380839 385399 0 368995 389724 0 357062 393890 0 345044 397897 0 332944 401747 0 320765 405441 0 308512 408981 0 296186 412367 0 283792 415601 0 271333 418684 0 258811 421616 0 246230 424399 0 233594 427034 0 220904 429521 0 208165 431862 0 195379 434057 0 182549 436107 0 169679 438013 0 156771 439775 0 143828 441394 0 130854 442870 0 117850 444204 0 104821 445397 0 91768.4 446448 0 78695.9 447359 0 65606.2 448129 0 52502.2 448758 0 39386.6 449248 0 26262.5 449598 0 13132.7 449808 0 0 449878 0 0 -818231 0 50193.6 -781133 0 70523.7 -775984 0 98534.5 -773036 0 127606 -770320 0 158225 -766418 0 189194 -761073 0 220264 -754221 0 251066 -745856 0 281387 -736060 0 311044 -724919 0 339902 -712542 0 367857 -699041 0 394831 -684530 0 420768 -669123 0 445628 -652928 0 469389 -636047 0 492037 -618578 0 513572 -600613 0 533998 -582234 0 553329 -563519 0 571582 -544540 0 588779 -525360 0 604945 -506037 0 620106 -486625 0 634291 -467169 0 647529 -447714 0 659852 -428295 0 671289 -408947 0 681871 -389699 0 691627 -370578 0 700587 -351605 0 708780 -332801 0 716234 -314184 0 722975 -295768 0 729031 -277566 0 734426 -259589 0 739184 -241848 0 743329 -224348 0 746883 -207098 0 749867 -190103 0 752302 -173365 0 754208 -156890 0 755602 -140680 0 756503 -124735 0 756927 -109059 0 756892 -93649.9 0 756412 -78509.3 0 755502 -63636.5 0 754176 -49030.8 0 752449 -34691.1 0 750332 -20616.1 0 747838 -6804.18 0 744980 6746.43 0 741767 20037.7 0 738213 33071.8 0 734325 45851 0 730116 58377.6 0 725593 70654.1 0 720767 82683.1 0 715647 94467 0 710241 106009 0 704557 117311 0 698603 128376 0 692387 139206 0 685917 149806 0 679199 160176 0 672240 170320 0 665048 180241 0 657628 189941 0 649988 199423 0 642133 208689 0 634069 217742 0 625803 226585 0 617338 235221 0 608683 243650 0 599840 251877 0 590817 259904 0 581618 267733 0 572247 275365 0 562711 282805 0 553013 290053 0 543158 297112 0 533152 303984 0 522997 310672 0 512700 317176 0 502263 323501 0 491692 329646 0 480990 335615 0 470162 341409 0 459211 347030 0 448142 352479 0 436958 357759 0 425663 362872 0 414261 367818 0 402756 372599 0 391151 377218 0 379450 381675 0 367656 385971 0 355774 390109 0 343805 394090 0 331755 397915 0 319625 401585 0 307420 405101 0 295143 408465 0 282797 411677 0 270385 414740 0 257910 417653 0 245376 420418 0 232786 423035 0 220143 425507 0 207450 427832 0 194710 430013 0 181926 432049 0 169101 433943 0 156238 435693 0 143340 437301 0 130411 438768 0 117452 440093 0 104467 441278 0 91459.3 442323 0 78431.2 443227 0 65385.7 443992 0 52325.8 444618 0 39254.5 445105 0 26174.4 445452 0 13088.7 445661 0 0 445731 0 0 -794312 0 43625.9 -775223 0 69712.4 -767240 0 97408.4 -764150 0 126592 -760792 0 156719 -756733 0 187275 -751302 0 217866 -744491 0 248218 -736245 0 278106 -726629 0 307362 -715717 0 335851 -703605 0 363472 -690399 0 390148 -676203 0 415819 -661126 0 440448 -645270 0 464008 -628735 0 486485 -611615 0 507876 -593997 0 528183 -575963 0 547419 -557589 0 565597 -538945 0 582739 -520092 0 598866 -501089 0 614005 -481987 0 628182 -462834 0 641425 -443671 0 653763 -424535 0 665226 -405461 0 675842 -386478 0 685640 -367612 0 694650 -348885 0 702898 -330319 0 710411 -311930 0 717218 -293734 0 723342 -275745 0 728808 -257973 0 733641 -240429 0 737862 -223120 0 741495 -206053 0 744559 -189233 0 747076 -172667 0 749064 -156356 0 750541 -140304 0 751525 -124513 0 752034 -108984 0 752082 -93718.8 0 751686 -78716.5 0 750860 -63977.4 0 749618 -49501 0 747974 -35286.5 0 745940 -21332.7 0 743529 -7638.2 0 740752 5798.68 0 737621 18979.7 0 734147 31907 0 730339 44582.5 0 726209 57008.6 0 721764 69187.5 0 717016 81121.8 0 711972 92813.8 0 706642 104266 0 701033 115481 0 695153 126462 0 689011 137211 0 682613 147731 0 675966 158024 0 669079 168093 0 661956 177941 0 654606 187570 0 647034 196982 0 639246 206181 0 631249 215170 0 623048 223949 0 614649 232523 0 606058 240893 0 597279 249062 0 588319 257032 0 579181 264805 0 569872 272384 0 560396 279772 0 550758 286969 0 540963 293980 0 531015 300804 0 520918 307446 0 510678 313906 0 500298 320187 0 489783 326290 0 479136 332218 0 468363 337973 0 457466 343555 0 446451 348968 0 435320 354212 0 424078 359290 0 412728 364203 0 401275 368952 0 389721 373539 0 378070 377966 0 366327 382234 0 354494 386345 0 342575 390299 0 330573 394098 0 318492 397743 0 306336 401236 0 294106 404578 0 281808 407769 0 269443 410811 0 257015 413705 0 244528 416451 0 231984 419052 0 219387 421506 0 206740 423816 0 194045 425983 0 181307 428006 0 168527 429887 0 155709 431626 0 142856 433223 0 129971 434680 0 117056 435997 0 104116 437174 0 91152.2 438212 0 78168.1 439110 0 65166.6 439870 0 52150.7 440492 0 39123.1 440975 0 26086.9 441320 0 13044.9 441528 0 0 441597 0 0 -776839 0 39420.6 -766371 0 68263 -758691 0 96297.4 -755076 0 125419 -751425 0 155198 -747157 0 185343 -741681 0 215497 -734903 0 245415 -726772 0 274889 -717328 0 303756 -706635 0 331887 -694779 0 359183 -681855 0 385565 -667965 0 410976 -653207 0 435375 -637681 0 458736 -621483 0 481042 -604702 0 502288 -587423 0 522476 -569727 0 541614 -551687 0 559716 -533370 0 576800 -514839 0 592887 -496150 0 608001 -477355 0 622167 -458499 0 635411 -439625 0 647762 -420770 0 659248 -401966 0 669895 -383245 0 679733 -364631 0 688788 -346149 0 697089 -327818 0 704660 -309657 0 711528 -291680 0 717718 -273902 0 723254 -256334 0 728158 -238986 0 732454 -221866 0 736164 -204982 0 739306 -188339 0 741902 -171943 0 743970 -155796 0 745529 -139903 0 746595 -124265 0 747186 -108884 0 747317 -93761.3 0 747004 -78897.3 0 746260 -64292 0 745101 -49945.1 0 743539 -35855.9 0 741586 -22023.4 0 739256 -8446.43 0 736560 4876.54 0 733509 17947.2 0 730114 30767.3 0 726385 43339 0 722333 55664.3 0 717966 67745.4 0 713294 79584.8 0 708327 91184.6 0 703071 102547 0 697536 113676 0 691730 124572 0 685660 135239 0 679334 145679 0 672758 155894 0 665941 165888 0 658888 175662 0 651606 185220 0 644101 194563 0 636381 203695 0 628449 212618 0 620314 221334 0 611979 229845 0 603452 238155 0 594736 246266 0 585838 254179 0 576762 261897 0 567514 269423 0 558098 276758 0 548519 283905 0 538783 290866 0 528893 297643 0 518854 304238 0 508670 310653 0 498346 316890 0 487887 322952 0 477295 328839 0 466576 334554 0 455734 340098 0 444771 345473 0 433693 350682 0 422503 355725 0 411205 360604 0 399803 365321 0 388300 369877 0 376700 374274 0 365007 378513 0 353223 382596 0 341353 386523 0 329400 390296 0 317367 393917 0 305259 397387 0 293077 400706 0 280825 403875 0 268507 406897 0 256126 409771 0 243686 412499 0 231188 415082 0 218636 417521 0 206035 419815 0 193385 421967 0 180691 423977 0 167956 425845 0 155183 427572 0 142375 429159 0 129534 430606 0 116663 431914 0 103767 433084 0 90847.1 434114 0 77906.8 435007 0 64949 435762 0 51976.7 436379 0 38992.7 436860 0 26000 437202 0 13001.4 437408 0 0 437477 0 0 -762655 0 36625.9 -756484 0 66659.8 -749924 0 95130.3 -745971 0 124157 -742137 0 153649 -737702 0 183408 -732190 0 213152 -725450 0 242657 -717431 0 271733 -708152 0 300224 -697669 0 328007 -686059 0 354984 -673409 0 381079 -659813 0 406233 -645365 0 430406 -630160 0 453569 -614288 0 475705 -597838 0 496806 -580891 0 516873 -563525 0 535913 -545812 0 553936 -527817 0 570961 -509602 0 587005 -491222 0 602091 -472728 0 616243 -454166 0 629487 -435577 0 641848 -416999 0 653353 -398463 0 664030 -380001 0 673904 -361638 0 683003 -343398 0 691353 -325301 0 698979 -307365 0 705906 -289607 0 712160 -272039 0 717762 -254673 0 722737 -237521 0 727105 -220589 0 730889 -203887 0 734108 -187420 0 736781 -171193 0 738928 -155211 0 740567 -139476 0 741713 -123991 0 742385 -108758 0 742597 -93778 0 742365 -79052.2 0 741702 -64580.7 0 740624 -50363.3 0 739142 -36399.5 0 737270 -22688.5 0 735020 -9229.24 0 732404 3979.65 0 729432 16939.7 0 726115 29652.6 0 722464 42120.1 0 718489 54344.4 0 714198 66327.6 0 709602 78071.7 0 704709 89579.1 0 699528 100852 0 694067 111893 0 688333 122705 0 682335 133289 0 676079 143649 0 669574 153787 0 662826 163705 0 655842 173405 0 648628 182892 0 641190 192166 0 633536 201230 0 625670 210087 0 617599 218739 0 609329 227188 0 600864 235438 0 592211 243489 0 583374 251345 0 574360 259008 0 565172 266480 0 555816 273763 0 546296 280859 0 536618 287771 0 526785 294500 0 516803 301048 0 506676 307418 0 496408 313612 0 486004 319631 0 475467 325477 0 464802 331152 0 454013 336657 0 443103 341996 0 432078 347168 0 420940 352176 0 409693 357022 0 398342 361706 0 386889 366231 0 375339 370598 0 363695 374807 0 351961 378862 0 340139 382763 0 328235 386510 0 316250 390106 0 304189 393552 0 292054 396848 0 279850 399997 0 267578 402998 0 255244 405852 0 242849 408562 0 230397 411127 0 217891 413549 0 205334 415828 0 192729 417966 0 180080 419962 0 167390 421817 0 154661 423533 0 141896 425109 0 129099 426547 0 116273 427846 0 103420 429007 0 90544.1 430031 0 77647.3 430918 0 64732.9 431667 0 51803.9 432281 0 38863.1 432758 0 25913.6 433098 0 12958.3 433303 0 0 433371 0 0 -750245 0 34673 -746338 0 65119.5 -740915 0 93909.4 -736865 0 122844 -732908 0 152074 -728359 0 181475 -722822 0 210832 -716126 0 239943 -708215 0 268635 -699097 0 296763 -688817 0 324208 -677444 0 350874 -665058 0 376687 -651746 0 401590 -637598 0 425539 -622705 0 448506 -607152 0 470472 -591024 0 491428 -574401 0 511374 -557358 0 530313 -539964 0 548257 -522286 0 565219 -504381 0 581219 -486305 0 596275 -468109 0 610411 -449836 0 623651 -431529 0 636019 -413223 0 647542 -394953 0 658244 -376747 0 668152 -358633 0 677292 -340633 0 685689 -322768 0 693367 -305056 0 700352 -287514 0 706666 -270154 0 712334 -252991 0 717376 -236033 0 721815 -219290 0 725671 -202769 0 728964 -186477 0 731713 -170420 0 733937 -154601 0 735653 -139024 0 736879 -123691 0 737629 -108606 0 737921 -93769.2 0 737768 -79181.7 0 737186 -64844 0 736187 -50756.2 0 734785 -36917.9 0 732992 -23328.4 0 730821 -9986.99 0 728283 3107.67 0 725389 15956.9 0 722149 28562.3 0 718575 40925.6 0 714676 53048.7 0 710461 64933.6 0 705940 76582.3 0 701121 87997.1 0 696013 99180.1 0 690624 110134 0 684962 120860 0 679035 131362 0 672850 141641 0 666415 151701 0 659735 161543 0 652819 171170 0 645672 180585 0 638301 189789 0 630712 198785 0 622911 207576 0 614905 216164 0 606698 224551 0 598296 232740 0 589704 240733 0 580929 248531 0 571975 256138 0 562847 263556 0 553550 270786 0 544089 277832 0 534468 284694 0 524693 291375 0 514768 297876 0 504696 304201 0 494484 310351 0 484134 316327 0 473651 322132 0 463040 327767 0 452304 333234 0 441447 338534 0 430473 343671 0 419387 348644 0 408191 353455 0 396890 358107 0 385488 362600 0 373988 366937 0 362393 371117 0 350707 375144 0 338934 379017 0 327077 382739 0 315140 386310 0 303126 389732 0 291039 393006 0 278881 396133 0 266655 399113 0 254367 401948 0 242017 404639 0 229611 407187 0 217150 409592 0 204638 411856 0 192078 413978 0 179473 415961 0 166827 417804 0 154142 419507 0 141422 421073 0 128668 422501 0 115885 423791 0 103076 424944 0 90243.1 425961 0 77389.5 426842 0 64518.2 427587 0 51632.2 428196 0 38734.4 428669 0 25827.8 429008 0 12915.4 429211 0 0 429279 0 0 -738876 0 33246.9 -736224 0 63705.5 -731746 0 92665.5 -727762 0 121500 -723737 0 150481 -719118 0 179548 -713571 0 208536 -706925 0 237271 -699121 0 265594 -690158 0 293371 -680074 0 320487 -668930 0 346850 -656799 0 372387 -643763 0 397041 -629907 0 420769 -615315 0 443542 -600073 0 465339 -584260 0 486151 -567953 0 505975 -551226 0 524813 -534146 0 542676 -516777 0 559575 -499177 0 575527 -481401 0 590551 -463497 0 604669 -445510 0 617902 -427480 0 630275 -409445 0 641812 -391436 0 652538 -373485 0 662478 -355616 0 671656 -337854 0 680097 -320219 0 687825 -302730 0 694865 -285402 0 701238 -268251 0 706968 -251288 0 712076 -234524 0 716582 -217968 0 720509 -201628 0 723874 -185511 0 726698 -169622 0 728997 -153966 0 730789 -138547 0 732091 -123367 0 732920 -108430 0 733289 -93735.5 0 733215 -79286.2 0 732711 -65082.3 0 731790 -51124.1 0 730466 -37411.3 0 728752 -23943.5 0 726658 -10720 0 724197 2260.24 0 721380 14998.5 0 718217 27496.3 0 714719 39755.2 0 710895 51776.9 0 706754 63563.3 0 702307 75116.4 0 697562 86438.2 0 692526 97531 0 687209 108397 0 681618 119038 0 675762 129457 0 669646 139656 0 663279 149637 0 656668 159403 0 649819 168956 0 642739 178299 0 635433 187433 0 627910 196361 0 620173 205086 0 612230 213609 0 604086 221934 0 595746 230062 0 587216 237995 0 578502 245737 0 569608 253288 0 560539 260651 0 551300 267829 0 541897 274823 0 532334 281635 0 522616 288267 0 512746 294722 0 502731 301002 0 492573 307107 0 482278 313040 0 471849 318804 0 461290 324398 0 450607 329827 0 439802 335090 0 428880 340189 0 417845 345127 0 406700 349905 0 395449 354524 0 384097 358986 0 372645 363291 0 361099 367443 0 349462 371441 0 337737 375287 0 325928 378983 0 314038 382529 0 302071 385928 0 290030 389178 0 277918 392283 0 265739 395243 0 253496 398058 0 241192 400731 0 228830 403261 0 216414 405649 0 203947 407897 0 191431 410005 0 178871 411974 0 166268 413804 0 153627 415496 0 140950 417051 0 128240 418468 0 115500 419750 0 102734 420895 0 89944.2 421905 0 77133.5 422780 0 64305 423519 0 51461.7 424124 0 38606.6 424595 0 25742.7 424931 0 12872.8 425132 0 0 425200 0 0 -728166 0 32158.5 -726248 0 62428 -722501 0 91424.6 -718667 0 120139 -714626 0 148878 -709973 0 177628 -704430 0 206265 -697841 0 234640 -690144 0 262608 -681332 0 290045 -671438 0 316841 -660515 0 342908 -648631 0 368175 -635862 0 392585 -622289 0 416096 -607992 0 438676 -593051 0 460306 -577545 0 480973 -561547 0 500674 -545129 0 519411 -528356 0 537191 -511292 0 554025 -493992 0 569928 -476509 0 584918 -458893 0 599015 -441187 0 612240 -423432 0 624615 -405663 0 636164 -387914 0 646911 -370213 0 656879 -352588 0 666093 -335062 0 674576 -317655 0 682352 -300387 0 689444 -283273 0 695874 -266328 0 701664 -249565 0 706835 -232994 0 711408 -216624 0 715403 -200465 0 718839 -184522 0 721734 -168801 0 724107 -153308 0 725974 -138046 0 727352 -123019 0 728256 -108229 0 728702 -93677.3 0 728704 -79366.1 0 728277 -65296 0 727434 -51467.4 0 726187 -37880.2 0 724549 -24534.2 0 722532 -11428.8 0 720147 1437.03 0 717406 14064.3 0 714319 26454.2 0 710895 38608.4 0 707145 50528.5 0 703079 62216.3 0 698704 73673.5 0 694031 84902.3 0 689067 95904.6 0 683821 106683 0 678301 117238 0 672514 127574 0 666467 137692 0 660168 147595 0 653625 157285 0 646842 166763 0 639828 176034 0 632588 185097 0 625129 193957 0 617456 202616 0 609576 211075 0 601494 219336 0 593216 227403 0 584747 235277 0 576092 242961 0 567258 250456 0 558248 257765 0 549068 264889 0 539722 271832 0 530216 278594 0 520554 285178 0 510740 291586 0 500779 297819 0 490676 303880 0 480434 309771 0 470059 315492 0 459554 321047 0 448922 326436 0 438169 331661 0 427299 336724 0 416314 341627 0 405219 346371 0 394018 350957 0 382715 355386 0 371313 359662 0 359815 363784 0 348226 367753 0 336549 371573 0 324787 375242 0 312944 378763 0 301023 382137 0 289028 385365 0 276963 388448 0 264829 391387 0 252631 394183 0 240372 396836 0 228055 399349 0 215683 401720 0 203260 403953 0 190789 406046 0 178272 408001 0 165713 409818 0 153115 411498 0 140482 413042 0 127815 414450 0 115118 415722 0 102395 416860 0 89647.4 417863 0 76879.2 418731 0 64093.2 419465 0 51292.4 420066 0 38479.7 420533 0 25658.1 420867 0 12830.5 421067 0 0 421134 0 0 -717907 0 31293.9 -716440 0 61274.8 -713244 0 90204.6 -709595 0 118774 -705576 0 147273 -700918 0 175719 -695394 0 204021 -688868 0 232050 -681278 0 259676 -672614 0 286783 -662904 0 313268 -652196 0 339047 -640551 0 364049 -628042 0 388219 -614743 0 411515 -600732 0 433905 -586086 0 455368 -570879 0 475892 -555183 0 495471 -539067 0 514105 -522596 0 531801 -505830 0 548568 -488824 0 564420 -471631 0 579374 -454298 0 593448 -436870 0 606662 -419385 0 619037 -401879 0 630596 -384386 0 641361 -366935 0 651356 -349551 0 660604 -332258 0 669127 -315078 0 676948 -298029 0 684090 -281127 0 690574 -264388 0 696422 -247823 0 701655 -231443 0 706292 -215260 0 710353 -199279 0 713858 -183510 0 716823 -167957 0 719268 -152627 0 721208 -137522 0 722659 -122647 0 723638 -108004 0 724159 -93595 0 724237 -79421.9 0 723886 -65485.6 0 723118 -51786.5 0 721947 -38325 0 720385 -25100.8 0 718443 -12113.5 0 716133 637.695 0 713467 13153.7 0 710454 25435.7 0 707104 37485.1 0 703427 49303.5 0 699434 60892.3 0 695131 72253.6 0 690530 83389 0 685637 94300.6 0 680461 104990 0 675010 115461 0 669292 125713 0 663314 135750 0 657082 145574 0 650605 155187 0 643889 164591 0 636940 173789 0 629764 182783 0 622369 191574 0 614759 200166 0 606941 208560 0 598921 216758 0 590704 224764 0 582296 232578 0 573701 240204 0 564925 247643 0 555974 254897 0 546851 261968 0 537563 268859 0 528113 275571 0 518507 282106 0 508748 288467 0 498842 294654 0 488793 300671 0 478605 306518 0 468282 312198 0 457829 317712 0 447250 323062 0 436548 328249 0 425728 333276 0 414794 338143 0 403749 342852 0 392598 347405 0 381343 351803 0 369990 356047 0 358540 360140 0 346999 364081 0 335369 367873 0 323654 371516 0 311858 375012 0 299983 378362 0 288034 381567 0 276014 384628 0 263925 387546 0 251772 390322 0 239558 392956 0 227286 395451 0 214958 397806 0 202579 400022 0 190151 402100 0 177678 404041 0 165162 405846 0 152607 407514 0 140017 409047 0 127393 410445 0 114739 411708 0 102058 412838 0 89352.6 413833 0 76626.8 414696 0 63883 415425 0 51124.3 416021 0 38353.6 416485 0 25574.1 416817 0 12788.5 417015 0 0 417082 0 0 -707977 0 30581.4 -706799 0 60228 -704019 0 89015.6 -700559 0 117414 -696591 0 145672 -691950 0 173825 -686460 0 201804 -680002 0 229500 -672519 0 256796 -664002 0 283583 -654471 0 309767 -643970 0 335264 -632558 0 360007 -620300 0 383941 -607269 0 407025 -593536 0 429227 -579177 0 450525 -564262 0 470905 -548861 0 490361 -533042 0 508892 -516865 0 526503 -500391 0 543203 -483675 0 559003 -466767 0 573918 -449713 0 587967 -432558 0 601168 -415340 0 613541 -398095 0 625107 -380855 0 635889 -363649 0 645908 -346504 0 655187 -329443 0 663747 -312488 0 671611 -295656 0 678801 -278965 0 685338 -262430 0 691242 -246062 0 696534 -229874 0 701233 -213875 0 705359 -198073 0 708931 -182477 0 711965 -167092 0 714479 -151923 0 716490 -136975 0 718014 -122252 0 719066 -107756 0 719661 -93489.2 0 719813 -79454 0 719536 -65651.3 0 718842 -52081.9 0 717746 -38746 0 716258 -25643.7 0 714391 -12774.6 0 712155 -138.106 0 709562 12266.6 0 706622 24440.5 0 703345 36385 0 699741 48101.3 0 695819 59591.2 0 691588 70856.2 0 687057 81898.1 0 682235 92718.9 0 677128 103320 0 671746 113705 0 666096 123874 0 660185 133829 0 654021 143574 0 647609 153111 0 640958 162440 0 634074 171565 0 626962 180488 0 619630 189210 0 612083 197735 0 604327 206064 0 596368 214200 0 588212 222144 0 579863 229898 0 571328 237466 0 562610 244848 0 553717 252047 0 544651 259065 0 535420 265904 0 526026 272565 0 516475 279052 0 506771 285365 0 496919 291507 0 486924 297478 0 476789 303282 0 466519 308920 0 456118 314393 0 445590 319704 0 434939 324853 0 424170 329843 0 413285 334674 0 402290 339349 0 391187 343869 0 379982 348234 0 368676 352448 0 357274 356511 0 345780 360423 0 334197 364188 0 322529 367805 0 310779 371275 0 298950 374601 0 287047 377783 0 275072 380822 0 263028 383719 0 250920 386474 0 238750 389090 0 226521 391567 0 214238 393905 0 201902 396105 0 189518 398168 0 177088 400096 0 164615 401887 0 152103 403543 0 139555 405065 0 126973 406453 0 114362 407708 0 101723 408829 0 89060 409818 0 76376.1 410674 0 63674.2 411398 0 50957.3 411990 0 38228.5 412450 0 25490.6 412779 0 12746.8 412977 0 0 413043 0 0 -698304 0 29975.5 -697319 0 59269.4 -694852 0 87862.6 -691571 0 116066 -687673 0 144081 -683067 0 171948 -677622 0 199616 -671238 0 226990 -663865 0 253966 -655491 0 280444 -646135 0 306334 -635837 0 331556 -624650 0 356045 -612637 0 379748 -599864 0 402624 -586403 0 424640 -572323 0 445774 -557693 0 466011 -542581 0 485345 -527051 0 503772 -511164 0 521297 -494978 0 537927 -478545 0 553673 -461917 0 568549 -445138 0 582571 -428252 0 595757 -411298 0 608126 -394309 0 619697 -377319 0 630493 -360357 0 640534 -343449 0 649842 -326618 0 658437 -309885 0 666342 -293270 0 673578 -276788 0 680165 -260455 0 686123 -244283 0 691472 -228285 0 696232 -212470 0 700421 -196846 0 704057 -181422 0 707158 -166204 0 709741 -151197 0 711822 -136406 0 713416 -121834 0 714540 -107484 0 715207 -93360.2 0 715431 -79462.9 0 715227 -65793.8 0 714607 -52353.9 0 713584 -39143.6 0 712169 -26163.2 0 710375 -13412.4 0 708213 -890.71 0 705692 11402.5 0 702825 23468.3 0 699620 35307.6 0 696087 46921.9 0 692236 58312.6 0 688076 69481.2 0 683614 80429.4 0 678861 91159 0 673823 101672 0 668509 111970 0 662926 122055 0 657082 131930 0 650984 141596 0 644638 151055 0 638051 160309 0 631231 169361 0 624183 178213 0 616913 186867 0 609428 195324 0 601734 203588 0 593835 211660 0 585739 219542 0 577449 227237 0 568972 234746 0 560313 242071 0 551477 249215 0 542468 256180 0 533293 262966 0 523954 269578 0 514458 276015 0 504809 282280 0 495011 288376 0 485068 294303 0 474986 300063 0 464768 305659 0 454419 311091 0 443942 316362 0 433342 321473 0 422622 326425 0 411787 331221 0 400841 335861 0 389787 340348 0 378630 344681 0 367372 348864 0 356018 352897 0 344571 356781 0 333034 360517 0 321412 364108 0 309708 367553 0 297925 370854 0 286067 374013 0 274136 377030 0 262138 379905 0 250074 382641 0 237948 385238 0 225763 387696 0 213523 390017 0 201230 392202 0 188889 394250 0 176502 396163 0 164072 397942 0 151602 399586 0 139096 401097 0 126557 402475 0 113987 403721 0 101390 404834 0 88769.4 405815 0 76127.2 406665 0 63467 407384 0 50791.6 407972 0 38104.2 408429 0 25407.8 408755 0 12705.4 408952 0 0 409017 0 0 -688840 0 29445.9 -687989 0 58383.6 -685761 0 86747 -682643 0 114735 -678825 0 142503 -674269 0 170091 -668879 0 197457 -662575 0 224520 -655311 0 251187 -647078 0 277364 -637893 0 302967 -627792 0 327921 -616824 0 352162 -605049 0 375638 -592529 0 398308 -579332 0 420141 -565525 0 441112 -551173 0 461208 -536343 0 480418 -521097 0 498742 -505493 0 516181 -489588 0 532740 -473435 0 548431 -457082 0 563266 -440574 0 577259 -423954 0 590428 -407259 0 602790 -390524 0 614365 -373782 0 625173 -357060 0 635233 -340386 0 644568 -323783 0 653196 -307271 0 661140 -290869 0 668419 -274595 0 675054 -258464 0 681064 -242487 0 686469 -226678 0 691288 -211046 0 695537 -195600 0 699237 -180347 0 702403 -165295 0 705053 -150449 0 707201 -135814 0 708865 -121393 0 710059 -107191 0 710797 -93208.5 0 711093 -79448.8 0 710960 -65913.3 0 710412 -52602.9 0 709461 -39518.3 0 708119 -26659.8 0 706397 -14027.3 0 704306 -1620.45 0 701857 10561.2 0 699061 22518.7 0 695927 34252.8 0 692465 45764.8 0 688684 57056.1 0 684593 68128.2 0 680201 78982.5 0 675516 89620.9 0 670546 100045 0 665299 110257 0 659783 120258 0 654004 130051 0 647971 139637 0 641690 149019 0 635168 158198 0 628411 167177 0 621426 175958 0 614218 184543 0 606794 192933 0 599161 201131 0 591322 209139 0 583285 216960 0 575054 224594 0 566635 232044 0 558034 239313 0 549254 246402 0 540302 253312 0 531182 260047 0 521899 266607 0 512457 272995 0 502861 279213 0 493117 285262 0 483227 291144 0 473197 296860 0 463031 302414 0 452732 307805 0 442306 313036 0 431756 318109 0 421086 323024 0 410301 327784 0 399403 332389 0 388398 336842 0 377288 341143 0 366078 345295 0 354770 349297 0 343370 353153 0 331880 356862 0 320304 360425 0 308645 363845 0 296907 367122 0 285094 370257 0 273208 373252 0 261254 376106 0 249233 378822 0 237151 381400 0 225010 383840 0 212813 386144 0 200564 388312 0 188265 390346 0 175920 392245 0 163533 394010 0 151105 395643 0 138641 397142 0 126144 398510 0 113616 399746 0 101061 400852 0 88481 401826 0 75880.2 402670 0 63261.2 403383 0 50627.1 403967 0 37980.9 404420 0 25325.6 404745 0 12664.3 404939 0 0 405004 0 0 -679554 0 28972.5 -678798 0 57557.5 -676756 0 85668 -673782 0 113425 -670051 0 140943 -665555 0 168256 -660228 0 195328 -654007 0 222090 -646854 0 248456 -638761 0 274342 -629743 0 299666 -619834 0 324358 -609080 0 348356 -597536 0 371609 -585262 0 394077 -572322 0 415728 -558781 0 436538 -544701 0 456492 -530147 0 475581 -515178 0 493801 -499852 0 511152 -484224 0 527640 -468345 0 543275 -452262 0 558066 -436021 0 572029 -419662 0 585179 -403224 0 597533 -386740 0 609109 -370242 0 619927 -353759 0 630005 -337316 0 639364 -320938 0 648024 -304645 0 656005 -288456 0 663326 -272389 0 670007 -256457 0 676067 -240674 0 681525 -225053 0 686400 -209603 0 690709 -194334 0 694470 -179252 0 697700 -164366 0 700415 -149681 0 702630 -135201 0 704361 -120931 0 705624 -106875 0 706431 -93034.5 0 706797 -79412.4 0 706735 -66010.3 0 706258 -52829.3 0 705377 -39870.3 0 704106 -27133.7 0 702455 -14619.6 0 700435 -2327.67 0 698057 9742.42 0 695331 21591.4 0 692267 33220.2 0 688874 44629.9 0 685162 55821.7 0 681140 66797 0 676816 77557.3 0 672199 88104.2 0 667296 98439.4 0 662116 108565 0 656665 118482 0 650952 128193 0 644984 137700 0 638767 147004 0 632308 156108 0 625614 165014 0 618690 173723 0 611544 182238 0 604181 190561 0 596608 198693 0 588829 206638 0 580851 214396 0 572678 221970 0 564317 229361 0 555772 236573 0 547049 243606 0 538153 250462 0 529088 257145 0 519859 263654 0 510471 269993 0 500929 276162 0 491237 282164 0 481400 288001 0 471421 293674 0 461306 299185 0 451059 304535 0 440683 309726 0 430183 314760 0 419562 319638 0 408825 324362 0 397976 328932 0 387019 333352 0 375956 337620 0 364793 341741 0 353533 345713 0 342178 349539 0 330734 353220 0 319204 356757 0 307590 360152 0 295897 363404 0 284128 366516 0 272287 369488 0 260376 372321 0 248400 375017 0 236361 377575 0 224263 379997 0 212108 382284 0 199902 384436 0 187645 386454 0 175343 388339 0 162997 390092 0 150612 391712 0 138190 393201 0 125734 394558 0 113247 395786 0 100733 396882 0 88194.7 397849 0 75634.9 398687 0 63057 399395 0 50463.8 399974 0 37858.5 400425 0 25244 400747 0 12623.5 400940 0 0 401005 0 0 -670423 0 28541.3 -669738 0 56780.8 -667841 0 84624.1 -664996 0 112138 -661352 0 139403 -656924 0 166444 -651667 0 193230 -645533 0 219699 -638491 0 245774 -630537 0 271376 -621683 0 296429 -611961 0 320864 -601415 0 344624 -590096 0 367658 -578061 0 389927 -565372 0 411399 -552090 0 432050 -538277 0 451864 -523992 0 470831 -509295 0 488946 -494242 0 506210 -478885 0 522626 -463275 0 538203 -447459 0 552950 -431480 0 566881 -415379 0 580010 -399193 0 592354 -382956 0 603929 -366700 0 614755 -350453 0 624849 -334240 0 634231 -318085 0 642920 -302009 0 650935 -286031 0 658296 -270168 0 665021 -254435 0 671129 -238846 0 676640 -223411 0 681569 -208143 0 685936 -193049 0 689757 -178138 0 693048 -163417 0 695827 -148891 0 698107 -134567 0 699905 -120448 0 701234 -106537 0 702110 -92838.7 0 702544 -79354 0 702551 -66085.1 0 702144 -53033.5 0 701333 -40200.1 0 700131 -27585.4 0 698550 -15189.6 0 696600 -3012.68 0 694291 8945.71 0 691634 20686.2 0 688639 32209.5 0 685315 43516.7 0 681672 54608.9 0 677718 65487.3 0 673461 76153.4 0 668910 86608.7 0 664074 96854.8 0 658959 106893 0 653574 116726 0 647926 126355 0 642021 135782 0 635868 145009 0 629471 154037 0 622839 162869 0 615977 171507 0 608892 179952 0 601590 188208 0 594075 196274 0 586356 204154 0 578436 211850 0 570321 219363 0 562017 226696 0 553528 233850 0 544861 240828 0 536020 247630 0 527010 254260 0 517835 260718 0 508501 267007 0 499012 273128 0 489372 279084 0 479587 284875 0 469660 290504 0 459595 295972 0 449398 301281 0 439072 306432 0 428621 311427 0 418050 316268 0 407361 320955 0 396560 325491 0 385650 329876 0 374635 334112 0 363518 338201 0 352304 342143 0 340996 345940 0 329597 349594 0 318112 353104 0 306543 356472 0 294894 359700 0 283170 362788 0 271372 365738 0 259505 368550 0 247572 371225 0 235576 373764 0 223521 376168 0 211409 378438 0 199245 380574 0 187031 382577 0 174770 384447 0 162466 386187 0 150122 387795 0 137741 389272 0 125327 390620 0 112881 391838 0 100408 392926 0 87910.5 393886 0 75391.5 394717 0 62854.2 395420 0 50301.7 395995 0 37736.9 396442 0 25163 396762 0 12583 396953 0 0 397018 0 0 -661431 0 28142.7 -660800 0 56045.2 -659020 0 83613 -656288 0 110876 -652732 0 137886 -648376 0 164657 -643194 0 191163 -637150 0 217348 -630221 0 243139 -622402 0 268465 -613709 0 293253 -604170 