<?xml version="1.0"?> 
<VTKFile type="StructuredGrid" version="0.1"> 
<StructuredGrid WholeExtent="0 127 0 127 0 0"> 
<Piece Extent="0 127 0 127 0 0"> 
<PointData>
<DataArray type="Float32" Name="E" format="ascii" NumberOfComponents="3"> 
-7056.8 0.00341089 0 -7061.52 167.146 0 -7075.65 334.055 0 -7099.2 500.495 0 -7132.14 666.233 0 -7174.45 831.034 0 -7226.12 994.668 0 -7287.09 1156.9 0 -7357.34 1317.51 0 -7436.82 1476.25 0 -7525.46 1632.91 0 -7623.23 1787.25 0 -7730.04 1939.06 0 -7845.84 2088.1 0 -7970.55 2234.16 0 -8104.08 2377.01 0 -8246.35 2516.44 0 -8397.27 2652.24 0 -8556.74 2784.19 0 -8724.67 2912.08 0 -8900.93 3035.7 0 -9085.43 3154.84 0 -9278.04 3269.32 0 -9478.65 3378.91 0 -9687.12 3483.44 0 -9903.34 3582.7 0 -10127.2 3676.5 0 -10358.5 3764.65 0 -10597.1 3846.98 0 -10842.9 3923.29 0 -11095.7 3993.42 0 -11355.5 4057.18 0 -11622 4114.4 0 -11895 4164.91 0 -12174.5 4208.55 0 -12460.2 4245.15 0 -12752 4274.55 0 -13049.8 4296.6 0 -13353.3 4311.14 0 -13662.4 4318.01 0 -13977 4317.08 0 -14296.8 4308.18 0 -14621.6 4291.18 0 -14951.4 4265.94 0 -15285.9 4232.31 0 -15625 4190.15 0 -15968.5 4139.33 0 -16316.2 4079.71 0 -16667.9 4011.16 0 -17023.5 3933.54 0 -17382.7 3846.72 0 -17745.5 3750.58 0 -18111.7 3644.96 0 -18481 3529.75 0 -18853.3 3404.81 0 -19228.4 3270 0 -19606.2 3125.2 0 -19986.5 2970.25 0 -20369.1 2805.02 0 -20753.8 2629.38 0 -21140.6 2443.17 0 -21529.1 2246.24 0 -21919.4 2038.44 0 -22311.1 1819.62 0 -22704.2 1589.6 0 -23098.5 1348.22 0 -23493.9 1095.31 0 -23890.1 830.67 0 -24287 554.118 0 -24684.5 265.449 0 -25082.5 -35.5485 0 -25480.7 -349.097 0 -25879 -675.431 0 -26277.4 -1014.8 0 -26675.5 -1367.46 0 -27073.4 -1733.7 0 -27470.8 -2113.81 0 -27867.6 -2508.1 0 -28263.7 -2916.91 0 -28658.9 -3340.59 0 -29053 -3779.53 0 -29446 -4234.12 0 -29837.7 -4704.81 0 -30227.9 -5192.07 0 -30616.5 -5696.38 0 -31003.4 -6218.29 0 -31388.4 -6758.38 0 -31771.4 -7317.28 0 -32152.2 -7895.66 0 -32530.7 -8494.24 0 -32906.7 -9113.83 0 -33280.1 -9755.28 0 -33650.7 -10419.5 0 -34018.4 -11107.6 0 -34383.1 -11820.6 0 -34744.5 -12559.8 0 -35102.6 -13326.5 0 -35457.1 -14122.1 0 -35808 -14948.4 0 -36155.1 -15807.2 0 -36498.3 -16700.4 0 -36837.4 -17630.4 0 -37172.4 -18599.6 0 -37503.1 -19611 0 -37829.4 -20667.9 0 -38151.3 -21773.8 0 -38468.7 -22933.1 0 -38781.7 -24150.7 0 -39090.2 -25432.2 0 -39394.5 -26784.2 0 -39694.7 -28214.8 0 -39991.2 -29733.1 0 -40284.3 -31350.4 0 -40574.7 -33080.4 0 -40863.4 -34939.8 0 -41151.6 -36950 0 -41441.2 -39137.2 0 -41734.2 -41537.8 0 -42035.6 -44193.7 0 -42346.3 -47179.9 0 -42685.4 -50554.8 0 -43032.4 -54532.5 0 -43492.1 -59104.1 0 -43851.6 -65189.2 0 -44806.5 -71914.8 0 -44466 -84802.8 0 -46549.6 -97017.2 0 0 -177103 0 -7552.46 0.0032731 0 -7556.94 152.905 0 -7570.36 305.583 0 -7592.72 457.811 0 -7624.01 609.365 0 -7664.2 760.02 0 -7713.27 909.555 0 -7771.18 1057.75 0 -7837.89 1204.37 0 -7913.37 1349.22 0 -7997.56 1492.05 0 -8090.41 1632.67 0 -8191.85 1770.85 0 -8301.83 1906.38 0 -8420.26 2039.04 0 -8547.07 2168.62 0 -8682.17 2294.92 0 -8825.49 2417.72 0 -8976.93 2536.83 0 -9136.38 2652.03 0 -9303.76 2763.13 0 -9478.95 2869.93 0 -9661.83 2972.24 0 -9852.3 3069.85 0 -10050.2 3162.59 0 -10255.5 3250.26 0 -10468 3332.68 0 -10687.6 3409.66 0 -10914.1 3481.03 0 -11147.4 3546.61 0 -11387.4 3606.23 0 -11634 3659.71 0 -11886.9 3706.89 0 -12146 3747.6 0 -12411.2 3781.69 0 -12682.3 3808.98 0 -12959.1 3829.32 0 -13241.6 3842.56 0 -13529.5 3848.55 0 -13822.7 3847.13 0 -14120.9 3838.16 0 -14424.2 3821.5 0 -14732.1 3796.99 0 -15044.7 3764.51 0 -15361.8 3723.9 0 -15683.1 3675.04 0 -16008.4 3617.78 0 -16337.7 3552 0 -16670.8 3477.55 0 -17007.4 3394.3 0 -17347.4 3302.12 0 -17690.7 3200.88 0 -18037 3090.44 0 -18386.2 2970.67 0 -18738.1 2841.43 0 -19092.6 2702.6 0 -19449.4 2554.03 0 -19808.4 2395.58 0 -20169.5 2227.11 0 -20532.4 2048.49 0 -20897 1859.55 0 -21263.1 1660.16 0 -21630.5 1450.16 0 -21999.1 1229.38 0 -22368.8 997.657 0 -22739.3 754.828 0 -23110.4 500.711 0 -23482.1 235.121 0 -23854.1 -42.1367 0 -24226.3 -331.264 0 -24598.5 -632.473 0 -24970.5 -945.987 0 -25342.2 -1272.04 0 -25713.4 -1610.89 0 -26083.9 -1962.78 0 -26453.6 -2328 0 -26822.3 -2706.85 0 -27189.8 -3099.63 0 -27555.8 -3506.67 0 -27920.4 -3928.34 0 -28283.2 -4365 0 -28644.1 -4817.07 0 -29002.8 -5284.97 0 -29359.2 -5769.16 0 -29713.2 -6270.15 0 -30064.3 -6788.46 0 -30412.6 -7324.66 0 -30757.6 -7879.38 0 -31099.3 -8453.28 0 -31437.2 -9047.08 0 -31771.3 -9661.56 0 -32101.2 -10297.6 0 -32426.7 -10956.1 0 -32747.4 -11638 0 -33063 -12344.5 0 -33373.1 -13076.8 0 -33677.6 -13836.2 0 -33975.8 -14624.1 0 -34267.4 -15442.2 0 -34552 -16292.3 0 -34829 -17176.4 0 -35098 -18096.7 0 -35358.2 -19055.7 0 -35609 -20056.1 0 -35849.6 -21101.4 0 -36079.2 -22194.9 0 -36296.7 -23341 0 -36501.1 -24544.4 0 -36690.8 -25810.6 0 -36864.4 -27146.2 0 -37019.8 -28558.8 0 -37154.7 -30057.3 0 -37266.1 -31652.7 0 -37350.2 -33358 0 -37401.9 -35189.4 0 -37414.9 -37166.6 0 -37380.2 -39314.8 0 -37285.3 -41665.9 0 -37111.8 -44262.4 0 -36833.5 -47158 0 -36403.9 -50434.2 0 -35759.7 -54182.5 0 -34749 -58596.9 0 -33186.4 -63793.6 0 -30363.1 -70405.4 0 -25493.2 -78068.2 0 -14136.7 -89225 0 0 -90551 0 -8005.05 0.00314165 0 -8009.3 139.384 0 -8022.04 278.55 0 -8043.27 417.283 0 -8072.96 555.369 0 -8111.11 692.594 0 -8157.69 828.742 0 -8212.66 963.601 0 -8275.98 1096.96 0 -8347.63 1228.6 0 -8427.54 1358.32 0 -8515.67 1485.91 0 -8611.95 1611.15 0 -8716.33 1733.85 0 -8828.73 1853.79 0 -8949.08 1970.78 0 -9077.31 2084.61 0 -9213.32 2195.08 0 -9357.04 2302 0 -9508.36 2405.17 0 -9667.19 2504.4 0 -9833.42 2599.49 0 -10007 2690.26 0 -10187.7 2776.51 0 -10375.5 2858.07 0 -10570.2 2934.76 0 -10771.8 3006.39 0 -10980.1 3072.79 0 -11195 3133.79 0 -11416.3 3189.21 0 -11643.9 3238.88 0 -11877.7 3282.64 0 -12117.5 3320.32 0 -12363.2 3351.77 0 -12614.6 3376.83 0 -12871.6 3395.33 0 -13134.1 3407.12 0 -13401.8 3412.07 0 -13674.6 3410 0 -13952.4 3400.78 0 -14234.9 3384.27 0 -14522.1 3360.31 0 -14813.8 3328.78 0 -15109.8 3289.52 0 -15409.9 3242.4 0 -15714 3187.29 0 -16021.8 3124.05 0 -16333.3 3052.55 0 -16648.3 2972.65 0 -16966.6 2884.21 0 -17287.9 2787.11 0 -17612.3 2681.22 0 -17939.3 2566.4 0 -18269 2442.51 0 -18601.1 2309.43 0 -18935.5 2167.01 0 -19272 2015.13 0 -19610.3 1853.64 0 -19950.4 1682.39 0 -20292 1501.26 0 -20635 1310.08 0 -20979.3 1108.72 0 -21324.5 897.002 0 -21670.6 674.783 0 -22017.4 441.892 0 -22364.6 198.16 0 -22712.2 -56.5916 0 -23059.9 -322.547 0 -23407.6 -599.898 0 -23755.1 -888.846 0 -24102.1 -1189.6 0 -24448.5 -1502.39 0 -24794.2 -1827.43 0 -25138.8 -2164.99 0 -25482.3 -2515.31 0 -25824.4 -2878.66 0 -26164.9 -3255.35 0 -26503.7 -3645.67 0 -26840.4 -4049.94 0 -27175 -4468.53 0 -27507.1 -4901.79 0 -27836.5 -5350.12 0 -28163 -5813.94 0 -28486.3 -6293.71 0 -28806.2 -6789.89 0 -29122.3 -7303.01 0 -29434.5 -7833.63 0 -29742.4 -8382.35 0 -30045.7 -8949.81 0 -30344 -9536.7 0 -30637 -10143.8 0 -30924.3 -10771.9 0 -31205.5 -11421.9 0 -31480.1 -12094.8 0 -31747.7 -12791.5 0 -32007.7 -13513.4 0 -32259.6 -14261.6 0 -32502.8 -15037.6 0 -32736.5 -15842.8 0 -32959.9 -16679 0 -33172.4 -17548.1 0 -33372.8 -18452.2 0 -33560.1 -19393.5 0 -33733.1 -20374.8 0 -33890.4 -21399.1 0 -34030.3 -22469.6 0 -34151 -23590.2 0 -34250.2 -24765.2 0 -34325.3 -25999.7 0 -34373.1 -27299.5 0 -34389.7 -28671.3 0 -34370.4 -30122.9 0 -34309.3 -31663.6 0 -34198.7 -33304.4 0 -34029.1 -35058.3 0 -33787.7 -36941.1 0 -33457.7 -38971.6 0 -33015.9 -41172.9 0 -32430.2 -43572.6 0 -31653.9 -46205 0 -30620.6 -49107.5 0 -29224.2 -52329.3 0 -27315.6 -55897.2 0 -24624.4 -59862.5 0 -20851.8 -64049.4 0 -15398.5 -68361.8 0 -8789.32 -71090.2 0 0 -73272 0 -8416.84 0.00301607 0 -8420.87 126.553 0 -8432.96 252.896 0 -8453.09 378.825 0 -8481.27 504.132 0 -8517.46 628.611 0 -8561.64 752.057 0 -8613.78 874.266 0 -8673.85 995.032 0 -8741.81 1114.15 0 -8817.62 1231.42 0 -8901.21 1346.65 0 -8992.54 1459.62 0 -9091.54 1570.15 0 -9198.15 1678.03 0 -9312.3 1783.08 0 -9433.92 1885.09 0 -9562.91 1983.87 0 -9699.21 2079.24 0 -9842.71 2171 0 -9993.32 2258.97 0 -10151 2342.96 0 -10315.5 2422.79 0 -10486.9 2498.29 0 -10664.9 2569.27 0 -10849.5 2635.56 0 -11040.6 2696.98 0 -11238.1 2753.37 0 -11441.7 2804.55 0 -11651.5 2850.36 0 -11867.2 2890.63 0 -12088.7 2925.21 0 -12315.9 2953.93 0 -12548.6 2976.64 0 -12786.8 2993.19 0 -13030.2 3003.41 0 -13278.7 3007.16 0 -13532.1 3004.3 0 -13790.4 2994.67 0 -14053.3 2978.13 0 -14320.7 2954.55 0 -14592.4 2923.77 0 -14868.3 2885.67 0 -15148.2 2840.1 0 -15432 2786.93 0 -15719.4 2726.02 0 -16010.3 2657.24 0 -16304.6 2580.46 0 -16602.1 2495.55 0 -16902.6 2402.37 0 -17205.9 2300.79 0 -17511.8 2190.69 0 -17820.3 2071.92 0 -18131 1944.36 0 -18443.9 1807.87 0 -18758.8 1662.32 0 -19075.5 1507.58 0 -19393.8 1343.5 0 -19713.5 1169.94 0 -20034.5 986.766 0 -20356.5 793.827 0 -20679.4 590.975 0 -21003.1 378.055 0 -21327.3 154.91 0 -21651.8 -78.6238 0 -21976.4 -322.714 0 -22301 -577.536 0 -22625.4 -843.272 0 -22949.4 -1120.11 0 -23272.7 -1408.25 0 -23595.2 -1707.89 0 -23916.7 -2019.26 0 -24237 -2342.58 0 -24555.8 -2678.09 0 -24872.9 -3026.04 0 -25188.1 -3386.69 0 -25501.2 -3760.34 0 -25811.9 -4147.26 0 -26120.1 -4547.79 0 -26425.3 -4962.25 0 -26727.5 -5390.99 0 -27026.2 -5834.41 0 -27321.2 -6292.9 0 -27612.3 -6766.88 0 -27899 -7256.83 0 -28181.1 -7763.24 0 -28458.2 -8286.63 0 -28729.9 -8827.58 0 -28995.9 -9386.69 0 -29255.6 -9964.63 0 -29508.7 -10562.1 0 -29754.6 -11179.9 0 -29992.9 -11818.8 0 -30222.8 -12479.8 0 -30443.9 -13163.7 0 -30655.4 -13871.8 0 -30856.6 -14605.2 0 -31046.6 -15365.1 0 -31224.5 -16152.9 0 -31389.2 -16970.3 0 -31539.7 -17818.9 0 -31674.5 -18700.6 0 -31792.3 -19617.5 0 -31891.2 -20571.9 0 -31969.5 -21566.4 0 -32024.7 -22604 0 -32054.4 -23687.9 0 -32055.3 -24821.8 0 -32023.9 -26009.8 0 -31955.8 -27256.6 0 -31845.7 -28567.7 0 -31687.1 -29949 0 -31472.2 -31407.4 0 -31191 -32950.8 0 -30831.2 -34588 0 -30376.7 -36328.9 0 -29807.3 -38184.4 0 -29095.9 -40166.1 0 -28207.3 -42285.7 0 -27094.2 -44552.5 0 -25693.2 -46972.3 0 -23921.6 -49535.6 0 -21667.6 -52216.4 0 -18812.5 -54920.7 0 -15202.2 -57527.1 0 -10835.5 -59661.5 0 -5486.79 -61264.3 0 0 -61032 0 -8789.9 0.00289589 0 -8793.72 114.384 0 -8805.18 228.568 0 -8824.27 342.353 0 -8850.98 455.542 0 -8885.29 567.935 0 -8927.17 679.337 0 -8976.61 789.55 0 -9033.55 898.377 0 -9097.98 1005.62 0 -9169.83 1111.1 0 -9249.07 1214.6 0 -9335.64 1315.95 0 -9429.48 1414.94 0 -9530.53 1511.39 0 -9638.72 1605.12 0 -9753.98 1695.92 0 -9876.23 1783.63 0 -10005.4 1868.05 0 -10141.4 1949.01 0 -10284.1 2026.32 0 -10433.4 2099.81 0 -10589.3 2169.3 0 -10751.7 2234.61 0 -10920.3 2295.58 0 -11095.2 2352.04 0 -11276.2 2403.81 0 -11463.2 2450.73 0 -11656.1 2492.64 0 -11854.7 2529.38 0 -12058.9 2560.79 0 -12268.6 2586.71 0 -12483.7 2606.99 0 -12703.9 2621.47 0 -12929.3 2630 0 -13159.6 2632.44 0 -13394.6 2628.64 0 -13634.4 2618.45 0 -13878.6 2601.74 0 -14127.1 2578.36 0 -14379.9 2548.17 0 -14636.7 2511.03 0 -14897.3 2466.82 0 -15161.7 2415.39 0 -15429.7 2356.61 0 -15701 2290.35 0 -15975.6 2216.48 0 -16253.2 2134.86 0 -16533.7 2045.38 0 -16816.9 1947.89 0 -17102.7 1842.26 0 -17390.9 1728.38 0 -17681.3 1606.1 0 -17973.8 1475.3 0 -18268.1 1335.85 0 -18564 1187.61 0 -18861.5 1030.45 0 -19160.3 864.23 0 -19460.3 688.817 0 -19761.2 504.069 0 -20062.9 309.841 0 -20365.2 105.986 0 -20667.8 -107.645 0 -20970.7 -331.207 0 -21273.6 -564.862 0 -21576.3 -808.772 0 -21878.6 -1063.11 0 -22180.3 -1328.05 0 -22481.2 -1603.78 0 -22781.1 -1890.49 0 -23079.8 -2188.38 0 -23377.1 -2497.66 0 -23672.6 -2818.55 0 -23966.2 -3151.27 0 -24257.7 -3496.08 0 -24546.8 -3853.22 0 -24833.3 -4222.96 0 -25116.8 -4605.59 0 -25397.1 -5001.41 0 -25674 -5410.74 0 -25947 -5833.9 0 -26216 -6271.27 0 -26480.5 -6723.21 0 -26740.3 -7190.14 0 -26994.9 -7672.49 0 -27244 -8170.72 0 -27487.1 -8685.32 0 -27723.8 -9216.81 0 -27953.7 -9765.78 0 -28176.3 -10332.8 0 -28390.9 -10918.6 0 -28597 -11523.8 0 -28794 -12149.2 0 -28981.1 -12795.6 0 -29157.6 -13463.9 0 -29322.7 -14155.1 0 -29475.5 -14870.1 0 -29614.9 -15610.3 0 -29739.8 -16376.6 0 -29849 -17170.7 0 -29941 -17993.8 0 -30014.2 -18847.6 0 -30066.9 -19733.9 0 -30096.9 -20654.6 0 -30102 -21611.9 0 -30079.4 -22608.1 0 -30026 -23645.8 0 -29938.1 -24727.8 0 -29811.3 -25857.2 0 -29640.7 -27037.4 0 -29420 -28272.1 0 -29142 -29565.4 0 -28797.8 -30921.5 0 -28376.8 -32344.9 0 -27865.8 -33839.9 0 -27248.5 -35410.9 0 -26504.8 -37061.1 0 -25609.7 -38792.4 0 -24532.4 -40603.5 0 -23234.8 -42487.8 0 -21671.1 -44429.6 0 -19787.5 -46399.7 0 -17528.6 -48344 0 -14837.1 -50185.7 0 -11691.6 -51787.6 0 -8073.9 -53031.6 0 -4185.01 -53609.6 0 0 -53722.2 0 -9126.26 0.00278072 0 -9129.88 102.852 0 -9140.73 205.512 0 -9158.82 307.79 0 -9184.12 409.494 0 -9216.62 510.435 0 -9256.3 610.423 0 -9303.13 709.269 0 -9357.07 806.785 0 -9418.1 902.784 0 -9486.16 997.078 0 -9561.22 1089.48 0 -9643.22 1179.81 0 -9732.1 1267.88 0 -9827.8 1353.51 0 -9930.26 1436.51 0 -10039.4 1516.72 0 -10155.2 1593.94 0 -10277.5 1668.01 0 -10406.2 1738.74 0 -10541.4 1805.97 0 -10682.8 1869.52 0 -10830.4 1929.23 0 -10984 1984.92 0 -11143.7 2036.44 0 -11309.2 2083.6 0 -11480.5 2126.26 0 -11657.4 2164.26 0 -11839.8 2197.43 0 -12027.7 2225.62 0 -12220.9 2248.68 0 -12419.2 2266.44 0 -12622.6 2278.78 0 -12830.8 2285.52 0 -13043.8 2286.54 0 -13261.5 2281.68 0 -13483.6 2270.8 0 -13710.1 2253.76 0 -13940.8 2230.43 0 -14175.5 2200.66 0 -14414.1 2164.32 0 -14656.5 2121.28 0 -14902.4 2071.4 0 -15151.8 2014.55 0 -15404.5 1950.6 0 -15660.3 1879.43 0 -15919 1800.89 0 -16180.5 1714.87 0 -16444.6 1621.24 0 -16711.2 1519.87 0 -16980.1 1410.62 0 -17251.1 1293.39 0 -17524 1168.03 0 -17798.7 1034.42 0 -18075 892.436 0 -18352.7 741.94 0 -18631.6 582.803 0 -18911.6 414.892 0 -19192.4 238.073 0 -19473.9 52.2072 0 -19755.8 -142.844 0 -20038.1 -347.225 0 -20320.4 -561.082 0 -20602.6 -784.566 0 -20884.5 -1017.83 0 -21165.9 -1261.04 0 -21446.6 -1514.35 0 -21726.3 -1777.93 0 -22004.9 -2051.98 0 -22282.1 -2336.65 0 -22557.7 -2632.16 0 -22831.4 -2938.7 0 -23103 -3256.48 0 -23372.3 -3585.71 0 -23638.9 -3926.63 0 -23902.7 -4279.48 0 -24163.3 -4644.5 0 -24420.5 -5021.98 0 -24674 -5412.18 0 -24923.3 -5815.41 0 -25168.3 -6231.98 0 -25408.5 -6662.22 0 -25643.6 -7106.49 0 -25873.2 -7565.15 0 -26096.8 -8038.61 0 -26314.2 -8527.28 0 -26524.6 -9031.63 0 -26727.8 -9552.12 0 -26923.1 -10089.3 0 -27110 -10643.6 0 -27287.9 -11215.8 0 -27456 -11806.3 0 -27613.6 -12416 0 -27760.1 -13045.4 0 -27894.4 -13695.5 0 -28015.6 -14366.9 0 -28122.8 -15060.7 0 -28214.7 -15777.7 0 -28290 -16519 0 -28347.4 -17285.8 0 -28385.2 -18079.1 0 -28401.7 -18900.4 0 -28394.7 -19751.1 0 -28362 -20632.5 0 -28301.1 -21546.4 0 -28208.8 -22494.4 0 -28081.8 -23478.4 0 -27916 -24500.4 0 -27707 -25562.2 0 -27449.2 -26666.1 0 -27136.4 -27814.1 0 -26761.2 -29008.2 0 -26314.7 -30250.2 0 -25786.8 -31541.6 0 -25164.9 -32883 0 -24434.6 -34274 0 -23578.5 -35712.6 0 -22576.4 -37193.9 0 -21404.9 -38709.1 0 -20037.5 -40243.5 0 -18445.6 -41774.6 0 -16600.6 -43268.1 0 -14477 -44677.2 0 -12062 -45935.6 0 -9355.25 -46970.8 0 -6403.2 -47677.9 0 -3229 -48027.4 0 0 -47834.2 0 -9427.84 0.0026702 0 -9431.26 91.9317 0 -9441.54 183.679 0 -9458.66 275.058 0 -9482.61 365.887 0 -9513.38 455.983 0 -9550.94 545.164 0 -9595.26 633.249 0 -9646.33 720.056 0 -9704.09 805.405 0 -9768.51 889.117 0 -9839.55 971.013 0 -9917.15 1050.92 0 -10001.3 1128.65 0 -10091.8 1204.03 0 -10188.8 1276.9 0 -10292.1 1347.08 0 -10401.6 1414.39 0 -10517.3 1478.66 0 -10639.1 1539.74 0 -10767 1597.44 0 -10900.7 1651.61 0 -11040.3 1702.08 0 -11185.6 1748.69 0 -11336.6 1791.28 0 -11493.1 1829.69 0 -11655 1863.76 0 -11822.3 1893.34 0 -11994.7 1918.28 0 -12172.3 1938.43 0 -12354.8 1953.63 0 -12542.2 1963.74 0 -12734.2 1968.61 0 -12930.9 1968.1 0 -13132.1 1962.08 0 -13337.5 1950.39 0 -13547.2 1932.89 0 -13760.9 1909.47 0 -13978.5 1879.97 0 -14199.9 1844.26 0 -14424.9 1802.22 0 -14653.3 1753.71 0 -14885.1 1698.6 0 -15120 1636.76 0 -15357.9 1568.07 0 -15598.7 1492.41 0 -15842.1 1409.63 0 -16088.1 1319.63 0 -16336.4 1222.27 0 -16586.9 1117.43 0 -16839.5 1004.99 0 -17093.8 884.821 0 -17349.9 756.801 0 -17607.4 620.805 0 -17866.3 476.707 0 -18126.2 324.38 0 -18387.2 163.696 0 -18648.9 -5.47275 0 -18911.2 -183.259 0 -19173.9 -369.795 0 -19436.7 -565.216 0 -19699.6 -769.662 0 -19962.3 -983.272 0 -20224.5 -1206.19 0 -20486.2 -1438.57 0 -20747 -1680.56 0 -21006.7 -1932.33 0 -21265.2 -2194.02 0 -21522.1 -2465.81 0 -21777.3 -2747.89 0 -22030.5 -3040.41 0 -22281.5 -3343.59 0 -22530 -3657.6 0 -22775.8 -3982.67 0 -23018.4 -4319 0 -23257.8 -4666.81 0 -23493.5 -5026.35 0 -23725.3 -5397.85 0 -23952.8 -5781.59 0 -24175.7 -6177.82 0 -24393.7 -6586.85 0 -24606.3 -7008.97 0 -24813.1 -7444.49 0 -25013.7 -7893.77 0 -25207.8 -8357.16 0 -25394.7 -8835.03 0 -25574 -9327.79 0 -25745.1 -9835.85 0 -25907.5 -10359.7 0 -26060.6 -10899.7 0 -26203.5 -11456.5 0 -26335.7 -12030.6 0 -26456.3 -12622.6 0 -26564.5 -13233 0 -26659.2 -13862.5 0 -26739.5 -14511.8 0 -26804.2 -15181.6 0 -26852.1 -15872.8 0 -26881.7 -16586 0 -26891.6 -17322.3 0 -26880 -18082.4 0 -26845 -18867.5 0 -26784.5 -19678.4 0 -26696 -20516.2 0 -26576.8 -21382.1 0 -26423.7 -22277.1 0 -26233.4 -23202.3 0 -26001.8 -24158.8 0 -25724.2 -25147.5 0 -25395.4 -26169.4 0 -25009.3 -27225.1 0 -24559.1 -28314.9 0 -24036.6 -29438.6 0 -23432.7 -30595.2 0 -22736.8 -31782.8 0 -21936.9 -32997.9 0 -21019.6 -34235 0 -19969.7 -35485.8 0 -18771.4 -36738.5 0 -17408 -37976.2 0 -15863.8 -39176.2 0 -14125.5 -40309 0 -12185.6 -41336.8 0 -10044.6 -42216.1 0 -7718.41 -42895 0 -5231.21 -43331.3 0 -2646.25 -43461.7 0 0 -43305.4 0 -9696.49 0.00256397 0 -9699.74 81.5978 0 -9709.46 163.018 0 -9725.65 244.085 0 -9748.3 324.624 0 -9777.4 404.459 0 -9812.93 483.416 0 -9854.85 561.319 0 -9903.15 637.996 0 -9957.77 713.273 0 -10018.7 786.977 0 -10085.9 858.936 0 -10159.3 928.981 0 -10238.8 996.941 0 -10324.4 1062.65 0 -10416.1 1125.93 0 -10513.8 1186.63 0 -10617.3 1244.58 0 -10726.7 1299.61 0 -10841.8 1351.56 0 -10962.6 1400.28 0 -11089 1445.59 0 -11220.9 1487.35 0 -11358.2 1525.4 0 -11500.8 1559.58 0 -11648.7 1589.74 0 -11801.6 1615.72 0 -11959.5 1637.39 0 -12122.4 1654.59 0 -12290 1667.18 0 -12462.3 1675.01 0 -12639.1 1677.94 0 -12820.3 1675.83 0 -13005.8 1668.53 0 -13195.5 1655.92 0 -13389.3 1637.85 0 -13586.9 1614.2 0 -13788.3 1584.83 0 -13993.3 1549.6 0 -14201.8 1508.4 0 -14413.7 1461.08 0 -14628.7 1407.53 0 -14846.8 1347.61 0 -15067.8 1281.21 0 -15291.5 1208.2 0 -15517.8 1128.46 0 -15746.5 1041.86 0 -15977.4 948.277 0 -16210.5 847.601 0 -16445.4 739.706 0 -16682.2 624.473 0 -16920.5 501.779 0 -17160.2 371.506 0 -17401.2 233.531 0 -17643.2 87.7329 0 -17886.1 -66.0105 0 -18129.7 -227.823 0 -18373.8 -397.829 0 -18618.2 -576.155 0 -18862.7 -762.929 0 -19107.2 -958.281 0 -19351.3 -1162.34 0 -19595 -1375.25 0 -19837.9 -1597.15 0 -20080 -1828.17 0 -20320.9 -2068.46 0 -20560.4 -2318.17 0 -20798.3 -2577.45 0 -21034.4 -2846.47 0 -21268.5 -3125.38 0 -21500.1 -3414.36 0 -21729.2 -3713.58 0 -21955.4 -4023.23 0 -22178.5 -4343.49 0 -22398.1 -4674.56 0 -22614 -5016.65 0 -22825.8 -5369.98 0 -23033.2 -5734.76 0 -23235.8 -6111.24 0 -23433.4 -6499.65 0 -23625.4 -6900.27 0 -23811.6 -7313.35 0 -23991.4 -7739.18 0 -24164.5 -8178.06 0 -24330.3 -8630.31 0 -24488.3 -9096.25 0 -24638 -9576.23 0 -24778.9 -10070.6 0 -24910.2 -10579.8 0 -25031.3 -11104.1 0 -25141.5 -11644.1 0 -25239.9 -12200.1 0 -25325.9 -12772.7 0 -25398.4 -13362.3 0 -25456.4 -13969.4 0 -25498.9 -14594.6 0 -25524.6 -15238.4 0 -25532.2 -15901.4 0 -25520.3 -16584.2 0 -25487.3 -17287.5 0 -25431.5 -18011.8 0 -25350.8 -18757.8 0 -25243 -19526.2 0 -25105.9 -20317.5 0 -24936.5 -21132.3 0 -24731.9 -21971.2 0 -24488.7 -22834.6 0 -24203 -23722.8 0 -23870.5 -24635.9 0 -23486.3 -25573.7 0 -23044.9 -26535.9 0 -22540.2 -27521.3 0 -21965.2 -28528.3 0 -21312.3 -29554.3 0 -20573.1 -30595.7 0 -19738.2 -31647.4 0 -18797.9 -32702.3 0 -17741.9 -33750.8 0 -16560.2 -34780.8 0 -15243.3 -35776.4 0 -13783.6 -36717.9 0 -12176.9 -37581.6 0 -10423.3 -38340.2 0 -8530.19 -38963 0 -6512.17 -39420 0 -4396.05 -39679.2 0 -2208.97 -39725.2 0 0 -39526.2 0 -9934.01 0.00246175 0 -9937.07 71.8274 0 -9946.26 143.484 0 -9961.56 214.802 0 -9982.97 285.613 0 -10010.5 355.748 0 -10044 425.039 0 -10083.7 493.319 0 -10129.3 560.421 0 -10180.9 626.179 0 -10238.5 690.426 0 -10302 752.998 0 -10371.3 813.731 0 -10446.4 872.462 0 -10527.3 929.028 0 -10613.9 983.268 0 -10706.1 1035.02 0 -10803.9 1084.13 0 -10907.2 1130.44 0 -11016 1173.79 0 -11130 1214.03 0 -11249.3 1251 0 -11373.9 1284.56 0 -11503.4 1314.54 0 -11638 1340.81 0 -11777.5 1363.21 0 -11921.8 1381.61 0 -12070.8 1395.84 0 -12224.4 1405.78 0 -12382.4 1411.28 0 -12544.8 1412.21 0 -12711.5 1408.41 0 -12882.3 1399.77 0 -13057.1 1386.14 0 -13235.8 1367.39 0 -13418.2 1343.39 0 -13604.3 1314.01 0 -13793.8 1279.12 0 -13986.7 1238.6 0 -14182.9 1192.32 0 -14382 1140.15 0 -14584.2 1081.97 0 -14789.1 1017.66 0 -14996.6 947.105 0 -15206.6 870.175 0 -15418.9 786.756 0 -15633.4 696.728 0 -15849.9 599.975 0 -16068.2 496.38 0 -16288.2 385.825 0 -16509.7 268.194 0 -16732.5 143.371 0 -16956.5 11.2392 0 -17181.5 -128.318 0 -17407.3 -275.417 0 -17633.7 -430.176 0 -17860.6 -592.714 0 -18087.7 -763.15 0 -18314.8 -941.606 0 -18541.8 -1128.2 0 -18768.5 -1323.06 0 -18994.6 -1526.32 0 -19219.9 -1738.09 0 -19444.3 -1958.51 0 -19667.5 -2187.71 0 -19889.2 -2425.84 0 -20109.3 -2673.02 0 -20327.5 -2929.41 0 -20543.5 -3195.15 0 -20757.1 -3470.38 0 -20968.1 -3755.28 0 -21176.1 -4050 0 -21380.9 -4354.71 0 -21582.2 -4669.57 0 -21779.7 -4994.78 0 -21973.1 -5330.51 0 -22162 -5676.97 0 -22346.1 -6034.34 0 -22525 -6402.84 0 -22698.3 -6782.69 0 -22865.7 -7174.11 0 -23026.7 -7577.34 0 -23180.9 -7992.62 0 -23327.8 -8420.21 0 -23466.8 -8860.39 0 -23597.6 -9313.41 0 -23719.4 -9779.59 0 -23831.7 -10259.2 0 -23933.8 -10752.6 0 -24025 -11260.1 0 -24104.6 -11781.9 0 -24171.8 -12318.6 0 -24225.7 -12870.4 0 -24265.3 -13437.7 0 -24289.6 -14020.9 0 -24297.5 -14620.4 0 -24287.8 -15236.6 0 -24259.1 -15869.8 0 -24210 -16520.5 0 -24138.9 -17189 0 -24044 -17875.6 0 -23923.4 -18580.9 0 -23775 -19304.9 0 -23596.4 -20048 0 -23384.9 -20810.2 0 -23137.8 -21591.6 0 -22851.8 -22392.2 0 -22523.3 -23211.5 0 -22148.6 -24048.9 0 -21723.1 -24903.7 0 -21242.4 -25774.3 0 -20701 -26658.9 0 -20093.4 -27555 0 -19413.5 -28459 0 -18654.8 -29366.5 0 -17810.7 -30271.5 0 -16874.4 -31166.7 0 -15839.3 -32042.9 0 -14699.7 -32888.6 0 -13450.9 -33690.3 0 -12090.2 -34431.9 0 -10617.8 -35095.5 0 -9037.66 -35661 0 -7358.12 -36108.2 0 -5593.32 -36416.5 0 -3761.45 -36569.3 0 -1888.84 -36549.9 0 0 -36356.8 0 -10142.1 0.00236325 0 -10145 62.5979 0 -10153.7 125.032 0 -10168.1 187.141 0 -10188.3 248.763 0 -10214.3 309.736 0 -10246 369.899 0 -10283.4 429.092 0 -10326.5 487.153 0 -10375.2 543.923 0 -10429.5 599.244 0 -10489.5 652.955 0 -10554.9 704.901 0 -10625.8 754.924 0 -10702.2 802.868 0 -10783.9 848.579 0 -10870.9 891.902 0 -10963.2 932.686 0 -11060.6 970.778 0 -11163.2 1006.03 0 -11270.7 1038.29 0 -11383.3 1067.41 0 -11500.7 1093.25 0 -11622.9 1115.65 0 -11749.7 1134.49 0 -11881.2 1149.61 0 -12017.2 1160.87 0 -12157.6 1168.14 0 -12302.2 1171.28 0 -12451.1 1170.15 0 -12604 1164.61 0 -12760.9 1154.55 0 -12921.7 1139.81 0 -13086.2 1120.28 0 -13254.2 1095.83 0 -13425.8 1066.32 0 -13600.7 1031.64 0 -13778.9 991.653 0 -13960.1 946.246 0 -14144.3 895.294 0 -14331.3 838.676 0 -14521 776.275 0 -14713.2 707.973 0 -14907.8 633.652 0 -15104.6 553.198 0 -15303.4 466.494 0 -15504.2 373.428 0 -15706.8 273.886 0 -15910.9 167.755 0 -16116.5 54.9223 0 -16323.3 -64.7235 0 -16531.3 -191.294 0 -16740.1 -324.902 0 -16949.7 -465.659 0 -17159.9 -613.676 0 -17370.4 -769.066 0 -17581.1 -931.942 0 -17791.9 -1102.42 0 -18002.4 -1280.61 0 -18212.5 -1466.63 0 -18422.1 -1660.6 0 -18630.8 -1862.63 0 -18838.5 -2072.85 0 -19045 -2291.38 0 -19250 -2518.35 0 -19453.3 -2753.87 0 -19654.7 -2998.08 0 -19853.9 -3251.11 0 -20050.7 -3513.1 0 -20244.8 -3784.19 0 -20435.9 -4064.51 0 -20623.7 -4354.22 0 -20808.1 -4653.46 0 -20988.6 -4962.4 0 -21164.9 -5281.18 0 -21336.8 -5609.98 0 -21503.8 -5948.96 0 -21665.7 -6298.31 0 -21822 -6658.19 0 -21972.4 -7028.81 0 -22116.4 -7410.35 0 -22253.5 -7803.01 0 -22383.5 -8207 0 -22505.6 -8622.53 0 -22619.5 -9049.82 0 -22724.6 -9489.1 0 -22820.3 -9940.61 0 -22905.9 -10404.6 0 -22980.9 -10881.2 0 -23044.4 -11370.8 0 -23095.7 -11873.7 0 -23134 -12389.9 0 -23158.5 -12919.9 0 -23168.1 -13463.9 0 -23161.8 -14022.1 0 -23138.5 -14594.8 0 -23097 -15182.1 0 -23036 -15784.4 0 -22954 -16401.8 0 -22849.5 -17034.5 0 -22720.8 -17682.6 0 -22566.1 -18346.1 0 -22383.2 -19025 0 -22170 -19719.3 0 -21924.1 -20428.6 0 -21642.9 -21152.7 0 -21323.3 -21891 0 -20962.5 -22642.6 0 -20556.8 -23406.4 0 -20102.6 -24181 0 -19596.1 -24964.6 0 -19032.9 -25754.5 0 -18408.6 -26547.9 0 -17718.7 -27340.7 0 -16958.4 -28128.2 0 -16123.1 -28904.6 0 -15208.5 -29662.8 0 -14210.8 -30394.4 0 -13126.9 -31089.5 0 -11955.1 -31737 0 -10695.7 -32324.3 0 -9350.85 -32837.7 0 -7925.75 -33263 0 -6428.73 -33586 0 -4871.3 -33793.6 0 -3268.77 -33874.1 0 -1638.03 -33820.3 0 0 -33625.3 0 -10322.4 0.00226825 0 -10325.1 53.8879 0 -10333.3 107.619 0 -10346.9 161.037 0 -10366 213.988 0 -10390.5 266.316 0 -10420.4 317.867 0 -10455.7 368.486 0 -10496.3 418.02 0 -10542.2 466.314 0 -10593.5 513.216 0 -10650 558.574 0 -10711.7 602.237 0 -10778.5 644.053 0 -10850.5 683.874 0 -10927.6 721.55 0 -11009.6 756.933 0 -11096.5 789.878 0 -11188.4 820.238 0 -11285 847.869 0 -11386.4 872.628 0 -11492.4 894.372 0 -11603 912.961 0 -11718 928.255 0 -11837.5 940.117 0 -11961.3 948.41 0 -12089.2 952.998 0 -12221.3 953.747 0 -12357.4 950.526 0 -12497.5 943.203 0 -12641.3 931.649 0 -12788.8 915.736 0 -12939.9 895.337 0 -13094.5 870.327 0 -13252.4 840.582 0 -13413.5 805.98 0 -13577.7 766.401 0 -13744.9 721.724 0 -13914.9 671.831 0 -14087.6 616.606 0 -14262.9 555.933 0 -14440.6 489.697 0 -14620.5 417.784 0 -14802.7 340.084 0 -14986.8 256.483 0 -15172.7 166.872 0 -15360.3 71.141 0 -15549.4 -30.8187 0 -15739.9 -139.115 0 -15931.6 -253.857 0 -16124.4 -375.15 0 -16317.9 -503.102 0 -16512.2 -637.82 0 -16707 -779.409 0 -16902.1 -927.977 0 -17097.4 -1083.63 0 -17292.6 -1246.48 0 -17487.6 -1416.62 0 -17682.2 -1594.17 0 -17876.1 -1779.24 0 -18069.2 -1971.94 0 -18261.3 -2172.37 0 -18452.1 -2380.65 0 -18641.4 -2596.89 0 -18829 -2821.21 0 -19014.7 -3053.72 0 -19198.1 -3294.55 0 -19379.1 -3543.8 0 -19557.5 -3801.61 0 -19732.8 -4068.11 0 -19905 -4343.4 0 -20073.6 -4627.64 0 -20238.4 -4920.95 0 -20399 -5223.46 0 -20555.2 -5535.33 0 -20706.6 -5856.68 0 -20852.9 -6187.67 0 -20993.7 -6528.44 0 -21128.6 -6879.15 0 -21257.2 -7239.96 0 -21379.1 -7611.03 0 -21493.8 -7992.51 0 -21601 -8384.58 0 -21700 -8787.4 0 -21790.3 -9201.15 0 -21871.4 -9626.01 0 -21942.7 -10062.1 0 -22003.6 -10509.7 0 -22053.4 -10968.9 0 -22091.4 -11440 0 -22116.8 -11922.9 0 -22128.8 -12418.1 0 -22126.5 -12925.5 0 -22108.9 -13445.4 0 -22075.1 -13977.8 0 -22024 -14523 0 -21954.3 -15080.9 0 -21864.9 -15651.6 0 -21754.3 -16235.2 0 -21621 -16831.6 0 -21463.5 -17440.8 0 -21280 -18062.5 0 -21068.7 -18696.4 0 -20827.4 -19342.3 0 -20554.2 -19999.6 0 -20246.5 -20667.5 0 -19901.8 -21345.3 0 -19517.5 -22031.7 0 -19090.7 -22725.3 0 -18618.4 -23424.4 0 -18097.3 -24126.6 0 -17524.1 -24829.4 0 -16895.6 -25529.4 0 -16208.2 -26222.7 0 -15458.9 -26904.7 0 -14644.6 -27569.9 0 -13762.6 -28211.8 0 -12811 -28823.2 0 -11788.8 -29395.9 0 -10695.9 -29920.8 0 -9533.88 -30388.2 0 -8306.02 -30787.8 0 -7017.61 -31109.3 0 -5676.05 -31342.9 0 -4291.05 -31479.6 0 -2874.16 -31512.1 0 -1439.08 -31434.7 0 0 -31245.7 0 -10476.5 0.00217651 0 -10479.1 45.6763 0 -10486.8 91.2018 0 -10499.6 136.428 0 -10517.6 181.205 0 -10540.6 225.385 0 -10568.8 268.819 0 -10602 311.358 0 -10640.3 352.856 0 -10683.6 393.164 0 -10731.9 432.137 0 -10785.1 469.627 0 -10843.2 505.491 0 -10906.2 539.582 0 -10974 571.758 0 -11046.5 601.876 0 -11123.7 629.793 0 -11205.6 655.369 0 -11292 678.463 0 -11383 698.938 0 -11478.4 716.654 0 -11578.1 731.477 0 -11682.1 743.27 0 -11790.4 751.899 0 -11902.7 757.232 0 -12019.1 759.138 0 -12139.4 757.485 0 -12263.5 752.146 0 -12391.4 742.993 0 -12522.9 729.9 0 -12658 712.743 0 -12796.5 691.398 0 -12938.3 665.743 0 -13083.3 635.659 0 -13231.5 601.025 0 -13382.5 561.725 0 -13536.4 517.642 0 -13693.1 468.661 0 -13852.3 414.668 0 -14014 355.552 0 -14178 291.2 0 -14344.2 221.502 0 -14512.4 146.351 0 -14682.6 65.6374 0 -14854.5 -20.7449 0 -15027.9 -112.902 0 -15202.9 -210.938 0 -15379.1 -314.958 0 -15556.5 -425.066 0 -15734.9 -541.363 0 -15914 -663.952 0 -16093.9 -792.934 0 -16274.1 -928.411 0 -16454.7 -1070.48 0 -16635.4 -1219.25 0 -16816 -1374.82 0 -16996.3 -1537.28 0 -17176.2 -1706.75 0 -17355.5 -1883.31 0 -17533.9 -2067.07 0 -17711.2 -2258.13 0 -17887.3 -2456.6 0 -18061.9 -2662.58 0 -18234.7 -2876.17 0 -18405.7 -3097.47 0 -18574.4 -3326.6 0 -18740.7 -3563.66 0 -18904.4 -3808.75 0 -19065.1 -4061.99 0 -19222.6 -4323.49 0 -19376.7 -4593.35 0 -19526.9 -4871.7 0 -19673.1 -5158.65 0 -19814.9 -5454.32 0 -19952 -5758.82 0 -20084 -6072.28 0 -20210.7 -6394.82 0 -20331.5 -6726.55 0 -20446.2 -7067.62 0 -20554.4 -7418.13 0 -20655.5 -7778.23 0 -20749.2 -8148.03 0 -20834.9 -8527.67 0 -20912.3 -8917.27 0 -20980.7 -9316.95 0 -21039.6 -9726.85 0 -21088.4 -10147.1 0 -21126.5 -10577.7 0 -21153.2 -11019 0 -21167.8 -11470.9 0 -21169.5 -11933.5 0 -21157.6 -12407 0 -21131.2 -12891.4 0 -21089.4 -13386.8 0 -21031.1 -13893.1 0 -20955.4 -14410.4 0 -20861.1 -14938.6 0 -20747 -15477.6 0 -20611.8 -16027.4 0 -20454.2 -16587.7 0 -20272.6 -17158.2 0 -20065.5 -17738.6 0 -19831.1 -18328.4 0 -19567.8 -18927.1 0 -19273.4 -19533.8 0 -18946.1 -20147.7 0 -18583.6 -20767.7 0 -18183.6 -21392.4 0 -17743.9 -22020.1 0 -17261.9 -22649 0 -16735.2 -23276.6 0 -16161.3 -23900.1 0 -15537.7 -24516.5 0 -14862 -25121.8 0 -14132.2 -25711.8 0 -13346.4 -26281.6 0 -12503.2 -26825.5 0 -11601.9 -27337.4 0 -10642.7 -27810.5 0 -9626.41 -28237.6 0 -8555.34 -28611.2 0 -7432.99 -28923.6 0 -6264.32 -29167.2 0 -5055.81 -29335.1 0 -3815.35 -29421.1 0 -2552.27 -29420.1 0 -1276.75 -29328.9 0 0 -29145.6 0 -10605.9 0.00208785 0 -10608.3 37.943 0 -10615.6 75.7414 0 -10627.6 113.252 0 -10644.6 150.333 0 -10666.3 186.841 0 -10692.8 222.632 0 -10724.1 257.566 0 -10760.1 291.501 0 -10800.8 324.294 0 -10846.2 355.806 0 -10896.3 385.897 0 -10951 414.426 0 -11010.2 441.255 0 -11074 466.246 0 -11142.2 489