<?xml version="1.0"?> 
<VTKFile type="StructuredGrid" version="0.1"> 
<StructuredGrid WholeExtent="0 127 0 127 0 0"> 
<Piece Extent="0 127 0 127 0 0"> 
<PointData>
<DataArray type="Float32" Name="E" format="ascii" NumberOfComponents="3"> 
2.92671e+06 -1.15909e+06 0 2.92813e+06 -1.15966e+06 0 2.92956e+06 -1.16022e+06 0 2.93098e+06 -1.16078e+06 0 2.9324e+06 -1.16135e+06 0 2.93382e+06 -1.16191e+06 0 2.93524e+06 -1.16247e+06 0 2.93665e+06 -1.16303e+06 0 2.93807e+06 -1.16359e+06 0 2.93948e+06 -1.16415e+06 0 2.94089e+06 -1.16471e+06 0 2.94229e+06 -1.16526e+06 0 2.9437e+06 -1.16582e+06 0 2.9451e+06 -1.16638e+06 0 2.9465e+06 -1.16693e+06 0 2.9479e+06 -1.16749e+06 0 2.9493e+06 -1.16804e+06 0 2.95069e+06 -1.16859e+06 0 2.95209e+06 -1.16914e+06 0 2.95348e+06 -1.16969e+06 0 2.95487e+06 -1.17024e+06 0 2.95625e+06 -1.17079e+06 0 2.95764e+06 -1.17134e+06 0 2.95902e+06 -1.17189e+06 0 2.9604e+06 -1.17244e+06 0 2.96178e+06 -1.17298e+06 0 2.96315e+06 -1.17353e+06 0 2.96453e+06 -1.17407e+06 0 2.9659e+06 -1.17461e+06 0 2.96727e+06 -1.17516e+06 0 2.96864e+06 -1.1757e+06 0 2.97e+06 -1.17624e+06 0 2.97136e+06 -1.17678e+06 0 2.97272e+06 -1.17732e+06 0 2.97408e+06 -1.17785e+06 0 2.97544e+06 -1.17839e+06 0 2.97679e+06 -1.17893e+06 0 2.97814e+06 -1.17946e+06 0 2.97949e+06 -1.18e+06 0 2.98083e+06 -1.18053e+06 0 2.98218e+06 -1.18106e+06 0 2.98352e+06 -1.18159e+06 0 2.98486e+06 -1.18212e+06 0 2.98619e+06 -1.18265e+06 0 2.98752e+06 -1.18318e+06 0 2.98885e+06 -1.1837e+06 0 2.99018e+06 -1.18423e+06 0 2.9915e+06 -1.18475e+06 0 2.99283e+06 -1.18528e+06 0 2.99414e+06 -1.1858e+06 0 2.99546e+06 -1.18632e+06 0 2.99677e+06 -1.18684e+06 0 2.99808e+06 -1.18736e+06 0 2.99939e+06 -1.18788e+06 0 3.00069e+06 -1.18839e+06 0 3.00199e+06 -1.18891e+06 0 3.00329e+06 -1.18942e+06 0 3.00458e+06 -1.18993e+06 0 3.00587e+06 -1.19044e+06 0 3.00715e+06 -1.19095e+06 0 3.00843e+06 -1.19146e+06 0 3.00971e+06 -1.19196e+06 0 3.01098e+06 -1.19247e+06 0 3.01225e+06 -1.19297e+06 0 3.01352e+06 -1.19347e+06 0 3.01478e+06 -1.19397e+06 0 3.01604e+06 -1.19447e+06 0 3.01729e+06 -1.19497e+06 0 3.01853e+06 -1.19546e+06 0 3.01978e+06 -1.19595e+06 0 3.02101e+06 -1.19644e+06 0 3.02224e+06 -1.19693e+06 0 3.02347e+06 -1.19741e+06 0 3.02469e+06 -1.1979e+06 0 3.0259e+06 -1.19838e+06 0 3.02711e+06 -1.19885e+06 0 3.02831e+06 -1.19933e+06 0 3.0295e+06 -1.1998e+06 0 3.03069e+06 -1.20027e+06 0 3.03187e+06 -1.20074e+06 0 3.03304e+06 -1.2012e+06 0 3.0342e+06 -1.20166e+06 0 3.03535e+06 -1.20212e+06 0 3.0365e+06 -1.20257e+06 0 3.03763e+06 -1.20302e+06 0 3.03876e+06 -1.20347e+06 0 3.03987e+06 -1.20391e+06 0 3.04098e+06 -1.20435e+06 0 3.04207e+06 -1.20478e+06 0 3.04315e+06 -1.20521e+06 0 3.04421e+06 -1.20563e+06 0 3.04526e+06 -1.20604e+06 0 3.0463e+06 -1.20645e+06 0 3.04732e+06 -1.20686e+06 0 3.04832e+06 -1.20726e+06 0 3.04931e+06 -1.20765e+06 0 3.05027e+06 -1.20803e+06 0 3.05122e+06 -1.2084e+06 0 3.05214e+06 -1.20877e+06 0 3.05304e+06 -1.20913e+06 0 3.05392e+06 -1.20947e+06 0 3.05477e+06 -1.20981e+06 0 3.05559e+06 -1.21014e+06 0 3.05638e+06 -1.21045e+06 0 3.05714e+06 -1.21075e+06 0 3.05787e+06 -1.21104e+06 0 3.05856e+06 -1.21131e+06 0 3.0592e+06 -1.21157e+06 0 3.05981e+06 -1.21181e+06 0 3.06037e+06 -1.21203e+06 0 3.06088e+06 -1.21223e+06 0 3.06134e+06 -1.21241e+06 0 3.06174e+06 -1.21257e+06 0 3.06208e+06 -1.2127e+06 0 3.06235e+06 -1.21281e+06 0 3.06255e+06 -1.21289e+06 0 3.06268e+06 -1.21294e+06 0 3.06272e+06 -1.21296e+06 0 3.06267e+06 -1.21294e+06 0 3.06253e+06 -1.21288e+06 0 3.06228e+06 -1.21279e+06 0 3.06192e+06 -1.21264e+06 0 3.06144e+06 -1.21245e+06 0 3.06083e+06 -1.21221e+06 0 3.06008e+06 -1.21191e+06 0 3.05917e+06 -1.21155e+06 0 3.0581e+06 -1.21113e+06 0 3.05684e+06 -1.21063e+06 0 2.96116e+06 -1.12742e+06 0 2.96255e+06 -1.12803e+06 0 2.96393e+06 -1.12865e+06 0 2.9653e+06 -1.12926e+06 0 2.96668e+06 -1.12988e+06 0 2.96805e+06 -1.13049e+06 0 2.96942e+06 -1.1311e+06 0 2.97079e+06 -1.13171e+06 0 2.97216e+06 -1.13232e+06 0 2.97352e+06 -1.13293e+06 0 2.97489e+06 -1.13354e+06 0 2.97625e+06 -1.13415e+06 0 2.97761e+06 -1.13476e+06 0 2.97897e+06 -1.13537e+06 0 2.98032e+06 -1.13598e+06 0 2.98167e+06 -1.13659e+06 0 2.98303e+06 -1.1372e+06 0 2.98437e+06 -1.1378e+06 0 2.98572e+06 -1.13841e+06 0 2.98707e+06 -1.13902e+06 0 2.98841e+06 -1.13962e+06 0 2.98975e+06 -1.14023e+06 0 2.99109e+06 -1.14083e+06 0 2.99242e+06 -1.14144e+06 0 2.99376e+06 -1.14205e+06 0 2.99509e+06 -1.14265e+06 0 2.99642e+06 -1.14325e+06 0 2.99774e+06 -1.14386e+06 0 2.99907e+06 -1.14446e+06 0 3.00039e+06 -1.14507e+06 0 3.00171e+06 -1.14567e+06 0 3.00302e+06 -1.14628e+06 0 3.00434e+06 -1.14688e+06 0 3.00565e+06 -1.14748e+06 0 3.00696e+06 -1.14809e+06 0 3.00827e+06 -1.14869e+06 0 3.00957e+06 -1.14929e+06 0 3.01087e+06 -1.1499e+06 0 3.01217e+06 -1.1505e+06 0 3.01347e+06 -1.15111e+06 0 3.01476e+06 -1.15171e+06 0 3.01605e+06 -1.15231e+06 0 3.01734e+06 -1.15292e+06 0 3.01862e+06 -1.15352e+06 0 3.01991e+06 -1.15413e+06 0 3.02119e+06 -1.15473e+06 0 3.02246e+06 -1.15534e+06 0 3.02373e+06 -1.15595e+06 0 3.025e+06 -1.15655e+06 0 3.02627e+06 -1.15716e+06 0 3.02753e+06 -1.15777e+06 0 3.0288e+06 -1.15837e+06 0 3.03005e+06 -1.15898e+06 0 3.03131e+06 -1.15959e+06 0 3.03256e+06 -1.1602e+06 0 3.0338e+06 -1.16081e+06 0 3.03505e+06 -1.16143e+06 0 3.03629e+06 -1.16204e+06 0 3.03752e+06 -1.16265e+06 0 3.03876e+06 -1.16327e+06 0 3.03999e+06 -1.16388e+06 0 3.04121e+06 -1.1645e+06 0 3.04243e+06 -1.16512e+06 0 3.04365e+06 -1.16574e+06 0 3.04486e+06 -1.16636e+06 0 3.04607e+06 -1.16698e+06 0 3.04728e+06 -1.16761e+06 0 3.04848e+06 -1.16824e+06 0 3.04968e+06 -1.16887e+06 0 3.05087e+06 -1.1695e+06 0 3.05206e+06 -1.17013e+06 0 3.05324e+06 -1.17077e+06 0 3.05442e+06 -1.17141e+06 0 3.0556e+06 -1.17205e+06 0 3.05677e+06 -1.17269e+06 0 3.05794e+06 -1.17334e+06 0 3.0591e+06 -1.17399e+06 0 3.06026e+06 -1.17464e+06 0 3.06141e+06 -1.1753e+06 0 3.06256e+06 -1.17596e+06 0 3.0637e+06 -1.17663e+06 0 3.06484e+06 -1.1773e+06 0 3.06598e+06 -1.17797e+06 0 3.06711e+06 -1.17865e+06 0 3.06824e+06 -1.17934e+06 0 3.06936e+06 -1.18003e+06 0 3.07048e+06 -1.18073e+06 0 3.07159e+06 -1.18143e+06 0 3.0727e+06 -1.18214e+06 0 3.0738e+06 -1.18286e+06 0 3.07491e+06 -1.18358e+06 0 3.07601e+06 -1.18432e+06 0 3.0771e+06 -1.18506e+06 0 3.07819e+06 -1.18581e+06 0 3.07928e+06 -1.18657e+06 0 3.08037e+06 -1.18734e+06 0 3.08146e+06 -1.18812e+06 0 3.08254e+06 -1.18892e+06 0 3.08363e+06 -1.18972e+06 0 3.08471e+06 -1.19054e+06 0 3.0858e+06 -1.19137e+06 0 3.08688e+06 -1.19222e+06 0 3.08797e+06 -1.19308e+06 0 3.08906e+06 -1.19396e+06 0 3.09016e+06 -1.19486e+06 0 3.09126e+06 -1.19577e+06 0 3.09237e+06 -1.19671e+06 0 3.09349e+06 -1.19767e+06 0 3.09462e+06 -1.19865e+06 0 3.09577e+06 -1.19965e+06 0 3.09693e+06 -1.20068e+06 0 3.0981e+06 -1.20174e+06 0 3.0993e+06 -1.20282e+06 0 3.10051e+06 -1.20394e+06 0 3.10176e+06 -1.20509e+06 0 3.10303e+06 -1.20627e+06 0 3.10434e+06 -1.20749e+06 0 3.10568e+06 -1.20876e+06 0 3.10707e+06 -1.21006e+06 0 3.10851e+06 -1.21141e+06 0 3.11e+06 -1.21281e+06 0 3.11155e+06 -1.21426e+06 0 3.11317e+06 -1.21576e+06 0 3.11486e+06 -1.21733e+06 0 3.11664e+06 -1.21895e+06 0 3.11851e+06 -1.22064e+06 0 3.12048e+06 -1.22241e+06 0 3.12257e+06 -1.22425e+06 0 2.9964e+06 -1.09739e+06 0 2.99775e+06 -1.09806e+06 0 2.9991e+06 -1.09872e+06 0 3.00044e+06 -1.09938e+06 0 3.00178e+06 -1.10004e+06 0 3.00312e+06 -1.10071e+06 0 3.00446e+06 -1.10137e+06 0 3.0058e+06 -1.10203e+06 0 3.00714e+06 -1.10269e+06 0 3.00847e+06 -1.10336e+06 0 3.00981e+06 -1.10402e+06 0 3.01114e+06 -1.10468e+06 0 3.01247e+06 -1.10534e+06 0 3.0138e+06 -1.10601e+06 0 3.01512e+06 -1.10667e+06 0 3.01645e+06 -1.10733e+06 0 3.01777e+06 -1.10799e+06 0 3.0191e+06 -1.10866e+06 0 3.02042e+06 -1.10932e+06 0 3.02174e+06 -1.10998e+06 0 3.02305e+06 -1.11065e+06 0 3.02437e+06 -1.11131e+06 0 3.02569e+06 -1.11198e+06 0 3.027e+06 -1.11264e+06 0 3.02831e+06 -1.11331e+06 0 3.02962e+06 -1.11397e+06 0 3.03093e+06 -1.11464e+06 0 3.03223e+06 -1.1153e+06 0 3.03354e+06 -1.11597e+06 0 3.03484e+06 -1.11664e+06 0 3.03615e+06 -1.11731e+06 0 3.03745e+06 -1.11798e+06 0 3.03874e+06 -1.11865e+06 0 3.04004e+06 -1.11932e+06 0 3.04134e+06 -1.11999e+06 0 3.04263e+06 -1.12066e+06 0 3.04393e+06 -1.12133e+06 0 3.04522e+06 -1.12201e+06 0 3.04651e+06 -1.12268e+06 0 3.04779e+06 -1.12336e+06 0 3.04908e+06 -1.12404e+06 0 3.05037e+06 -1.12471e+06 0 3.05165e+06 -1.12539e+06 0 3.05293e+06 -1.12607e+06 0 3.05421e+06 -1.12675e+06 0 3.05549e+06 -1.12744e+06 0 3.05677e+06 -1.12812e+06 0 3.05805e+06 -1.12881e+06 0 3.05933e+06 -1.12949e+06 0 3.0606e+06 -1.13018e+06 0 3.06187e+06 -1.13087e+06 0 3.06315e+06 -1.13157e+06 0 3.06442e+06 -1.13226e+06 0 3.06569e+06 -1.13296e+06 0 3.06696e+06 -1.13365e+06 0 3.06822e+06 -1.13435e+06 0 3.06949e+06 -1.13505e+06 0 3.07076e+06 -1.13576e+06 0 3.07202e+06 -1.13646e+06 0 3.07329e+06 -1.13717e+06 0 3.07455e+06 -1.13788e+06 0 3.07581e+06 -1.13859e+06 0 3.07707e+06 -1.13931e+06 0 3.07834e+06 -1.14003e+06 0 3.0796e+06 -1.14075e+06 0 3.08086e+06 -1.14147e+06 0 3.08212e+06 -1.1422e+06 0 3.08338e+06 -1.14292e+06 0 3.08464e+06 -1.14365e+06 0 3.0859e+06 -1.14439e+06 0 3.08716e+06 -1.14513e+06 0 3.08842e+06 -1.14587e+06 0 3.08968e+06 -1.14661e+06 0 3.09094e+06 -1.14736e+06 0 3.09221e+06 -1.14811e+06 0 3.09347e+06 -1.14886e+06 0 3.09474e+06 -1.14962e+06 0 3.096e+06 -1.15038e+06 0 3.09727e+06 -1.15114e+06 0 3.09854e+06 -1.15191e+06 0 3.09981e+06 -1.15268e+06 0 3.10108e+06 -1.15346e+06 0 3.10235e+06 -1.15424e+06 0 3.10363e+06 -1.15502e+06 0 3.10491e+06 -1.15581e+06 0 3.10619e+06 -1.1566e+06 0 3.10747e+06 -1.15739e+06 0 3.10876e+06 -1.15819e+06 0 3.11005e+06 -1.15899e+06 0 3.11134e+06 -1.1598e+06 0 3.11264e+06 -1.16061e+06 0 3.11394e+06 -1.16142e+06 0 3.11525e+06 -1.16224e+06 0 3.11656e+06 -1.16306e+06 0 3.11788e+06 -1.16388e+06 0 3.1192e+06 -1.16471e+06 0 3.12052e+06 -1.16554e+06 0 3.12185e+06 -1.16638e+06 0 3.12319e+06 -1.16721e+06 0 3.12453e+06 -1.16805e+06 0 3.12588e+06 -1.16889e+06 0 3.12723e+06 -1.16973e+06 0 3.12859e+06 -1.17058e+06 0 3.12995e+06 -1.17142e+06 0 3.13132e+06 -1.17227e+06 0 3.1327e+06 -1.17311e+06 0 3.13408e+06 -1.17396e+06 0 3.13546e+06 -1.1748e+06 0 3.13686e+06 -1.17564e+06 0 3.13825e+06 -1.17648e+06 0 3.13965e+06 -1.17731e+06 0 3.14105e+06 -1.17814e+06 0 3.14246e+06 -1.17896e+06 0 3.14387e+06 -1.17978e+06 0 3.14527e+06 -1.18058e+06 0 3.14668e+06 -1.18138e+06 0 3.14808e+06 -1.18216e+06 0 3.14948e+06 -1.18293e+06 0 3.15087e+06 -1.18368e+06 0 3.15225e+06 -1.18441e+06 0 3.15362e+06 -1.18512e+06 0 3.15497e+06 -1.18581e+06 0 3.1563e+06 -1.18646e+06 0 3.15761e+06 -1.18709e+06 0 3.15889e+06 -1.18769e+06 0 3.16013e+06 -1.18824e+06 0 3.16133e+06 -1.18876e+06 0 3.16248e+06 -1.18922e+06 0 3.03245e+06 -1.06856e+06 0 3.03378e+06 -1.06926e+06 0 3.03511e+06 -1.06996e+06 0 3.03643e+06 -1.07066e+06 0 3.03776e+06 -1.07136e+06 0 3.03909e+06 -1.07206e+06 0 3.04041e+06 -1.07276e+06 0 3.04174e+06 -1.07346e+06 0 3.04306e+06 -1.07416e+06 0 3.04438e+06 -1.07487e+06 0 3.0457e+06 -1.07557e+06 0 3.04702e+06 -1.07627e+06 0 3.04834e+06 -1.07697e+06 0 3.04966e+06 -1.07767e+06 0 3.05098e+06 -1.07837e+06 0 3.0523e+06 -1.07908e+06 0 3.05362e+06 -1.07978e+06 0 3.05493e+06 -1.08048e+06 0 3.05625e+06 -1.08119e+06 0 3.05756e+06 -1.08189e+06 0 3.05888e+06 -1.0826e+06 0 3.06019e+06 -1.0833e+06 0 3.06151e+06 -1.08401e+06 0 3.06282e+06 -1.08471e+06 0 3.06413e+06 -1.08542e+06 0 3.06544e+06 -1.08612e+06 0 3.06675e+06 -1.08683e+06 0 3.06806e+06 -1.08754e+06 0 3.06937e+06 -1.08825e+06 0 3.07068e+06 -1.08896e+06 0 3.07199e+06 -1.08967e+06 0 3.0733e+06 -1.09038e+06 0 3.07461e+06 -1.09109e+06 0 3.07592e+06 -1.0918e+06 0 3.07723e+06 -1.09251e+06 0 3.07853e+06 -1.09322e+06 0 3.07984e+06 -1.09394e+06 0 3.08115e+06 -1.09465e+06 0 3.08245e+06 -1.09537e+06 0 3.08376e+06 -1.09608e+06 0 3.08507e+06 -1.0968e+06 0 3.08637e+06 -1.09752e+06 0 3.08768e+06 -1.09823e+06 0 3.08899e+06 -1.09895e+06 0 3.09029e+06 -1.09967e+06 0 3.0916e+06 -1.10039e+06 0 3.09291e+06 -1.10112e+06 0 3.09421e+06 -1.10184e+06 0 3.09552e+06 -1.10256e+06 0 3.09683e+06 -1.10329e+06 0 3.09814e+06 -1.10401e+06 0 3.09944e+06 -1.10474e+06 0 3.10075e+06 -1.10547e+06 0 3.10206e+06 -1.1062e+06 0 3.10337e+06 -1.10693e+06 0 3.10468e+06 -1.10766e+06 0 3.10599e+06 -1.10839e+06 0 3.1073e+06 -1.10912e+06 0 3.10861e+06 -1.10986e+06 0 3.10992e+06 -1.11059e+06 0 3.11124e+06 -1.11133e+06 0 3.11255e+06 -1.11207e+06 0 3.11386e+06 -1.11281e+06 0 3.11518e+06 -1.11355e+06 0 3.11649e+06 -1.11429e+06 0 3.11781e+06 -1.11503e+06 0 3.11913e+06 -1.11577e+06 0 3.12045e+06 -1.11651e+06 0 3.12177e+06 -1.11726e+06 0 3.12309e+06 -1.118e+06 0 3.12441e+06 -1.11875e+06 0 3.12574e+06 -1.1195e+06 0 3.12706e+06 -1.12025e+06 0 3.12839e+06 -1.12099e+06 0 3.12971e+06 -1.12174e+06 0 3.13104e+06 -1.12249e+06 0 3.13237e+06 -1.12325e+06 0 3.1337e+06 -1.124e+06 0 3.13504e+06 -1.12475e+06 0 3.13637e+06 -1.1255e+06 0 3.13771e+06 -1.12626e+06 0 3.13904e+06 -1.12701e+06 0 3.14038e+06 -1.12777e+06 0 3.14172e+06 -1.12852e+06 0 3.14307e+06 -1.12928e+06 0 3.14441e+06 -1.13003e+06 0 3.14575e+06 -1.13079e+06 0 3.1471e+06 -1.13154e+06 0 3.14845e+06 -1.1323e+06 0 3.1498e+06 -1.13305e+06 0 3.15115e+06 -1.13381e+06 0 3.1525e+06 -1.13456e+06 0 3.15385e+06 -1.13532e+06 0 3.1552e+06 -1.13607e+06 0 3.15656e+06 -1.13683e+06 0 3.15791e+06 -1.13758e+06 0 3.15927e+06 -1.13833e+06 0 3.16063e+06 -1.13909e+06 0 3.16199e+06 -1.13984e+06 0 3.16335e+06 -1.14059e+06 0 3.16471e+06 -1.14134e+06 0 3.16607e+06 -1.14209e+06 0 3.16743e+06 -1.14284e+06 0 3.16879e+06 -1.14359e+06 0 3.17015e+06 -1.14434e+06 0 3.17152e+06 -1.14509e+06 0 3.17288e+06 -1.14584e+06 0 3.17424e+06 -1.14659e+06 0 3.17561e+06 -1.14734e+06 0 3.17697e+06 -1.14808e+06 0 3.17834e+06 -1.14883e+06 0 3.17971e+06 -1.14959e+06 0 3.18108e+06 -1.15034e+06 0 3.18245e+06 -1.15109e+06 0 3.18382e+06 -1.15185e+06 0 3.1852e+06 -1.15261e+06 0 3.18657e+06 -1.15338e+06 0 3.18796e+06 -1.15415e+06 0 3.18935e+06 -1.15492e+06 0 3.19074e+06 -1.15571e+06 0 3.19214e+06 -1.1565e+06 0 3.19356e+06 -1.15731e+06 0 3.19498e+06 -1.15812e+06 0 3.19642e+06 -1.15895e+06 0 3.19788e+06 -1.1598e+06 0 3.19935e+06 -1.16067e+06 0 3.20085e+06 -1.16155e+06 0 3.20238e+06 -1.16247e+06 0 3.06903e+06 -1.04038e+06 0 3.07035e+06 -1.04111e+06 0 3.07167e+06 -1.04183e+06 0 3.07299e+06 -1.04255e+06 0 3.07431e+06 -1.04327e+06 0 3.07562e+06 -1.04399e+06 0 3.07694e+06 -1.04471e+06 0 3.07826e+06 -1.04543e+06 0 3.07958e+06 -1.04615e+06 0 3.08089e+06 -1.04687e+06 0 3.08221e+06 -1.04759e+06 0 3.08353e+06 -1.04831e+06 0 3.08484e+06 -1.04903e+06 0 3.08616e+06 -1.04975e+06 0 3.08748e+06 -1.05047e+06 0 3.08879e+06 -1.05119e+06 0 3.09011e+06 -1.05191e+06 0 3.09143e+06 -1.05263e+06 0 3.09274e+06 -1.05335e+06 0 3.09406e+06 -1.05407e+06 0 3.09537e+06 -1.05479e+06 0 3.09669e+06 -1.05551e+06 0 3.09801e+06 -1.05623e+06 0 3.09932e+06 -1.05696e+06 0 3.10064e+06 -1.05768e+06 0 3.10196e+06 -1.0584e+06 0 3.10327e+06 -1.05912e+06 0 3.10459e+06 -1.05984e+06 0 3.10591e+06 -1.06056e+06 0 3.10722e+06 -1.06128e+06 0 3.10854e+06 -1.062e+06 0 3.10986e+06 -1.06272e+06 0 3.11118e+06 -1.06345e+06 0 3.11249e+06 -1.06417e+06 0 3.11381e+06 -1.06489e+06 0 3.11513e+06 -1.06561e+06 0 3.11645e+06 -1.06634e+06 0 3.11777e+06 -1.06706e+06 0 3.11909e+06 -1.06778e+06 0 3.12041e+06 -1.0685e+06 0 3.12173e+06 -1.06923e+06 0 3.12305e+06 -1.06995e+06 0 3.12437e+06 -1.07067e+06 0 3.12569e+06 -1.0714e+06 0 3.12701e+06 -1.07212e+06 0 3.12834e+06 -1.07284e+06 0 3.12966e+06 -1.07357e+06 0 3.13098e+06 -1.07429e+06 0 3.13231e+06 -1.07502e+06 0 3.13363e+06 -1.07574e+06 0 3.13496e+06 -1.07647e+06 0 3.13628e+06 -1.07719e+06 0 3.13761e+06 -1.07792e+06 0 3.13894e+06 -1.07864e+06 0 3.14026e+06 -1.07937e+06 0 3.14159e+06 -1.08009e+06 0 3.14292e+06 -1.08082e+06 0 3.14425e+06 -1.08154e+06 0 3.14558e+06 -1.08227e+06 0 3.14691e+06 -1.08299e+06 0 3.14824e+06 -1.08372e+06 0 3.14958e+06 -1.08445e+06 0 3.15091e+06 -1.08517e+06 0 3.15224e+06 -1.0859e+06 0 3.15358e+06 -1.08662e+06 0 3.15491e+06 -1.08735e+06 0 3.15625e+06 -1.08808e+06 0 3.15759e+06 -1.0888e+06 0 3.15892e+06 -1.08953e+06 0 3.16026e+06 -1.09025e+06 0 3.1616e+06 -1.09098e+06 0 3.16294e+06 -1.09171e+06 0 3.16429e+06 -1.09243e+06 0 3.16563e+06 -1.09316e+06 0 3.16697e+06 -1.09388e+06 0 3.16832e+06 -1.09461e+06 0 3.16966e+06 -1.09533e+06 0 3.17101e+06 -1.09606e+06 0 3.17235e+06 -1.09678e+06 0 3.1737e+06 -1.09751e+06 0 3.17505e+06 -1.09823e+06 0 3.1764e+06 -1.09896e+06 0 3.17775e+06 -1.09968e+06 0 3.1791e+06 -1.10041e+06 0 3.18046e+06 -1.10113e+06 0 3.18181e+06 -1.10186e+06 0 3.18316e+06 -1.10258e+06 0 3.18452e+06 -1.10331e+06 0 3.18588e+06 -1.10403e+06 0 3.18724e+06 -1.10476e+06 0 3.1886e+06 -1.10548e+06 0 3.18996e+06 -1.1062e+06 0 3.19132e+06 -1.10693e+06 0 3.19268e+06 -1.10765e+06 0 3.19404e+06 -1.10837e+06 0 3.19541e+06 -1.1091e+06 0 3.19678e+06 -1.10982e+06 0 3.19815e+06 -1.11054e+06 0 3.19952e+06 -1.11127e+06 0 3.20089e+06 -1.11199e+06 0 3.20226e+06 -1.11271e+06 0 3.20363e+06 -1.11344e+06 0 3.20501e+06 -1.11416e+06 0 3.20639e+06 -1.11488e+06 0 3.20777e+06 -1.1156e+06 0 3.20915e+06 -1.11632e+06 0 3.21053e+06 -1.11705e+06 0 3.21192e+06 -1.11777e+06 0 3.2133e+06 -1.11849e+06 0 3.21469e+06 -1.11921e+06 0 3.21608e+06 -1.11993e+06 0 3.21748e+06 -1.12065e+06 0 3.21887e+06 -1.12136e+06 0 3.22027e+06 -1.12208e+06 0 3.22166e+06 -1.12279e+06 0 3.22306e+06 -1.1235e+06 0 3.22446e+06 -1.12421e+06 0 3.22586e+06 -1.12492e+06 0 3.22726e+06 -1.12562e+06 0 3.22866e+06 -1.12632e+06 0 3.23005e+06 -1.12701e+06 0 3.23145e+06 -1.12769e+06 0 3.23284e+06 -1.12837e+06 0 3.23423e+06 -1.12904e+06 0 3.23561e+06 -1.1297e+06 0 3.23698e+06 -1.13035e+06 0 3.23835e+06 -1.13099e+06 0 3.2397e+06 -1.13161e+06 0 3.1057e+06 -1.01253e+06 0 3.10701e+06 -1.01326e+06 0 3.10832e+06 -1.01398e+06 0 3.10963e+06 -1.0147e+06 0 3.11094e+06 -1.01543e+06 0 3.11225e+06 -1.01615e+06 0 3.11356e+06 -1.01687e+06 0 3.11487e+06 -1.0176e+06 0 3.11618e+06 -1.01832e+06 0 3.11749e+06 -1.01904e+06 0 3.1188e+06 -1.01976e+06 0 3.12011e+06 -1.02049e+06 0 3.12142e+06 -1.02121e+06 0 3.12273e+06 -1.02193e+06 0 3.12404e+06 -1.02265e+06 0 3.12536e+06 -1.02337e+06 0 3.12667e+06 -1.02409e+06 0 3.12798e+06 -1.02481e+06 0 3.12929e+06 -1.02553e+06 0 3.13061e+06 -1.02625e+06 0 3.13192e+06 -1.02697e+06 0 3.13323e+06 -1.02768e+06 0 3.13455e+06 -1.0284e+06 0 3.13586e+06 -1.02912e+06 0 3.13717e+06 -1.02984e+06 0 3.13849e+06 -1.03056e+06 0 3.1398e+06 -1.03127e+06 0 3.14112e+06 -1.03199e+06 0 3.14244e+06 -1.03271e+06 0 3.14375e+06 -1.03342e+06 0 3.14507e+06 -1.03414e+06 0 3.14639e+06 -1.03486e+06 0 3.1477e+06 -1.03557e+06 0 3.14902e+06 -1.03629e+06 0 3.15034e+06 -1.037e+06 0 3.15166e+06 -1.03772e+06 0 3.15298e+06 -1.03843e+06 0 3.1543e+06 -1.03915e+06 0 3.15562e+06 -1.03986e+06 0 3.15694e+06 -1.04057e+06 0 3.15826e+06 -1.04129e+06 0 3.15959e+06 -1.042e+06 0 3.16091e+06 -1.04271e+06 0 3.16223e+06 -1.04343e+06 0 3.16356e+06 -1.04414e+06 0 3.16488e+06 -1.04485e+06 0 3.1662e+06 -1.04556e+06 0 3.16753e+06 -1.04627e+06 0 3.16886e+06 -1.04699e+06 0 3.17018e+06 -1.0477e+06 0 3.17151e+06 -1.04841e+06 0 3.17284e+06 -1.04912e+06 0 3.17417e+06 -1.04983e+06 0 3.1755e+06 -1.05054e+06 0 3.17683e+06 -1.05125e+06 0 3.17816e+06 -1.05196e+06 0 3.17949e+06 -1.05267e+06 0 3.18082e+06 -1.05337e+06 0 3.18215e+06 -1.05408e+06 0 3.18349e+06 -1.05479e+06 0 3.18482e+06 -1.0555e+06 0 3.18616e+06 -1.05621e+06 0 3.18749e+06 -1.05691e+06 0 3.18883e+06 -1.05762e+06 0 3.19017e+06 -1.05833e+06 0 3.19151e+06 -1.05903e+06 0 3.19284e+06 -1.05974e+06 0 3.19418e+06 -1.06044e+06 0 3.19552e+06 -1.06115e+06 0 3.19687e+06 -1.06185e+06 0 3.19821e+06 -1.06256e+06 0 3.19955e+06 -1.06326e+06 0 3.2009e+06 -1.06396e+06 0 3.20224e+06 -1.06467e+06 0 3.20359e+06 -1.06537e+06 0 3.20493e+06 -1.06607e+06 0 3.20628e+06 -1.06677e+06 0 3.20763e+06 -1.06748e+06 0 3.20898e+06 -1.06818e+06 0 3.21033e+06 -1.06888e+06 0 3.21168e+06 -1.06958e+06 0 3.21303e+06 -1.07028e+06 0 3.21438e+06 -1.07098e+06 0 3.21573e+06 -1.07168e+06 0 3.21709e+06 -1.07237e+06 0 3.21844e+06 -1.07307e+06 0 3.2198e+06 -1.07377e+06 0 3.22116e+06 -1.07447e+06 0 3.22252e+06 -1.07516e+06 0 3.22388e+06 -1.07586e+06 0 3.22524e+06 -1.07655e+06 0 3.2266e+06 -1.07725e+06 0 3.22796e+06 -1.07794e+06 0 3.22932e+06 -1.07863e+06 0 3.23068e+06 -1.07933e+06 0 3.23205e+06 -1.08002e+06 0 3.23341e+06 -1.08071e+06 0 3.23478e+06 -1.0814e+06 0 3.23615e+06 -1.08209e+06 0 3.23751e+06 -1.08278e+06 0 3.23888e+06 -1.08347e+06 0 3.24025e+06 -1.08416e+06 0 3.24162e+06 -1.08484e+06 0 3.24299e+06 -1.08553e+06 0 3.24436e+06 -1.08621e+06 0 3.24574e+06 -1.0869e+06 0 3.24711e+06 -1.08758e+06 0 3.24848e+06 -1.08827e+06 0 3.24985e+06 -1.08895e+06 0 3.25123e+06 -1.08963e+06 0 3.2526e+06 -1.09031e+06 0 3.25398e+06 -1.09099e+06 0 3.25535e+06 -1.09167e+06 0 3.25673e+06 -1.09235e+06 0 3.25811e+06 -1.09303e+06 0 3.25949e+06 -1.09371e+06 0 3.26086e+06 -1.09439e+06 0 3.26224e+06 -1.09507e+06 0 3.26362e+06 -1.09574e+06 0 3.26501e+06 -1.09643e+06 0 3.26639e+06 -1.09711e+06 0 3.26778e+06 -1.09779e+06 0 3.26916e+06 -1.09848e+06 0 3.27056e+06 -1.09917e+06 0 3.27195e+06 -1.09986e+06 0 3.27335e+06 -1.10056e+06 0 3.27476e+06 -1.10126e+06 0 3.27617e+06 -1.10197e+06 0 3.14206e+06 -984851 0 3.14336e+06 -985569 0 3.14466e+06 -986285 0 3.14595e+06 -987002 0 3.14725e+06 -987717 0 3.14855e+06 -988433 0 3.14985e+06 -989147 0 3.15115e+06 -989861 0 3.15245e+06 -990575 0 3.15375e+06 -991288 0 3.15505e+06 -992000 0 3.15635e+06 -992712 0 3.15765e+06 -993424 0 3.15895e+06 -994135 0 3.16025e+06 -994845 0 3.16156e+06 -995555 0 3.16286e+06 -996264 0 3.16416e+06 -996973 0 3.16547e+06 -997681 0 3.16677e+06 -998389 0 3.16807e+06 -999096 0 3.16938e+06 -999803 0 3.17069e+06 -1.00051e+06 0 3.17199e+06 -1.00122e+06 0 3.1733e+06 -1.00192e+06 0 3.1746e+06 -1.00263e+06 0 3.17591e+06 -1.00333e+06 0 3.17722e+06 -1.00403e+06 0 3.17853e+06 -1.00474e+06 0 3.17984e+06 -1.00544e+06 0 3.18115e+06 -1.00614e+06 0 3.18246e+06 -1.00684e+06 0 3.18377e+06 -1.00754e+06 0 3.18508e+06 -1.00824e+06 0 3.18639e+06 -1.00894e+06 0 3.1877e+06 -1.00964e+06 0 3.18902e+06 -1.01034e+06 0 3.19033e+06 -1.01104e+06 0 3.19165e+06 -1.01174e+06 0 3.19296e+06 -1.01244e+06 0 3.19428e+06 -1.01313e+06 0 3.19559e+06 -1.01383e+06 0 3.19691e+06 -1.01453e+06 0 3.19823e+06 -1.01522e+06 0 3.19954e+06 -1.01592e+06 0 3.20086e+06 -1.01661e+06 0 3.20218e+06 -1.01731e+06 0 3.2035e+06 -1.018e+06 0 3.20482e+06 -1.01869e+06 0 3.20614e+06 -1.01938e+06 0 3.20746e+06 -1.02008e+06 0 3.20879e+06 -1.02077e+06 0 3.21011e+06 -1.02146e+06 0 3.21143e+06 -1.02215e+06 0 3.21276e+06 -1.02284e+06 0 3.21408e+06 -1.02353e+06 0 3.21541e+06 -1.02422e+06 0 3.21674e+06 -1.0249e+06 0 3.21806e+06 -1.02559e+06 0 3.21939e+06 -1.02628e+06 0 3.22072e+06 -1.02697e+06 0 3.22205e+06 -1.02765e+06 0 3.22338e+06 -1.02834e+06 0 3.22471e+06 -1.02902e+06 0 3.22604e+06 -1.02971e+06 0 3.22737e+06 -1.03039e+06 0 3.22871e+06 -1.03107e+06 0 3.23004e+06 -1.03176e+06 0 3.23137e+06 -1.03244e+06 0 3.23271e+06 -1.03312e+06 0 3.23405e+06 -1.0338e+06 0 3.23538e+06 -1.03448e+06 0 3.23672e+06 -1.03516e+06 0 3.23806e+06 -1.03584e+06 0 3.2394e+06 -1.03652e+06 0 3.24074e+06 -1.03719e+06 0 3.24208e+06 -1.03787e+06 0 3.24342e+06 -1.03855e+06 0 3.24476e+06 -1.03922e+06 0 3.2461e+06 -1.0399e+06 0 3.24745e+06 -1.04057e+06 0 3.24879e+06 -1.04125e+06 0 3.25014e+06 -1.04192e+06 0 3.25148e+06 -1.04259e+06 0 3.25283e+06 -1.04327e+06 0 3.25418e+06 -1.04394e+06 0 3.25553e+06 -1.04461e+06 0 3.25687e+06 -1.04528e+06 0 3.25822e+06 -1.04595e+06 0 3.25958e+06 -1.04662e+06 0 3.26093e+06 -1.04729e+06 0 3.26228e+06 -1.04796e+06 0 3.26363e+06 -1.04862e+06 0 3.26499e+06 -1.04929e+06 0 3.26634e+06 -1.04996e+06 0 3.2677e+06 -1.05062e+06 0 3.26905e+06 -1.05129e+06 0 3.27041e+06 -1.05195e+06 0 3.27177e+06 -1.05261e+06 0 3.27312e+06 -1.05328e+06 0 3.27448e+06 -1.05394e+06 0 3.27584e+06 -1.0546e+06 0 3.27721e+06 -1.05526e+06 0 3.27857e+06 -1.05592e+06 0 3.27993e+06 -1.05659e+06 0 3.2813e+06 -1.05724e+06 0 3.28266e+06 -1.0579e+06 0 3.28403e+06 -1.05856e+06 0 3.28539e+06 -1.05922e+06 0 3.28676e+06 -1.05988e+06 0 3.28813e+06 -1.06054e+06 0 3.2895e+06 -1.06119e+06 0 3.29087e+06 -1.06185e+06 0 3.29224e+06 -1.0625e+06 0 3.29362e+06 -1.06316e+06 0 3.29499e+06 -1.06381e+06 0 3.29637e+06 -1.06446e+06 0 3.29774e+06 -1.06511e+06 0 3.29912e+06 -1.06576e+06 0 3.3005e+06 -1.06641e+06 0 3.30188e+06 -1.06706e+06 0 3.30325e+06 -1.06771e+06 0 3.30463e+06 -1.06835e+06 0 3.30601e+06 -1.06899e+06 0 3.30739e+06 -1.06963e+06 0 3.30877e+06 -1.07026e+06 0 3.31014e+06 -1.07089e+06 0 3.31151e+06 -1.07152e+06 0 3.17783e+06 -957303 0 3.17911e+06 -958006 0 3.1804e+06 -958708 0 3.18168e+06 -959409 0 3.18296e+06 -960110 0 3.18425e+06 -960809 0 3.18553e+06 -961509 0 3.18682e+06 -962207 0 3.18811e+06 -962905 0 3.18939e+06 -963602 0 3.19068e+06 -964299 0 3.19197e+06 -964995 0 3.19325e+06 -965690 0 3.19454e+06 -966384 0 3.19583e+06 -967078 0 3.19712e+06 -967771 0 3.19841e+06 -968464 0 3.1997e+06 -969156 0 3.20099e+06 -969847 0 3.20229e+06 -970537 0 3.20358e+06 -971227 0 3.20487e+06 -971916 0 3.20616e+06 -972605 0 3.20746e+06 -973292 0 3.20875e+06 -973980 0 3.21005e+06 -974666 0 3.21134e+06 -975352 0 3.21264e+06 -976037 0 3.21394e+06 -976722 0 3.21524e+06 -977405 0 3.21653e+06 -978089 0 3.21783e+06 -978771 0 3.21913e+06 -979453 0 3.22043e+06 -980134 0 3.22173e+06 -980815 0 3.22303e+06 -981495 0 3.22434e+06 -982174 0 3.22564e+06 -982852 0 3.22694e+06 -983530 0 3.22825e+06 -984208 0 3.22955e+06 -984884 0 3.23086e+06 -985560 0 3.23216e+06 -986235 0 3.23347e+06 -986910 0 3.23478e+06 -987584 0 3.23608e+06 -988257 0 3.23739e+06 -988930 0 3.2387e+06 -989602 0 3.24001e+06 -990273 0 3.24132e+06 -990944 0 3.24263e+06 -991614 0 3.24395e+06 -992283 0 3.24526e+06 -992952 0 3.24657e+06 -993620 0 3.24789e+06 -994287 0 3.2492e+06 -994954 0 3.25052e+06 -995620 0 3.25183e+06 -996285 0 3.25315e+06 -996949 0 3.25447e+06 -997613 0 3.25579e+06 -998277 0 3.2571e+06 -998939 0 3.25842e+06 -999601 0 3.25974e+06 -1.00026e+06 0 3.26107e+06 -1.00092e+06 0 3.26239e+06 -1.00158e+06 0 3.26371e+06 -1.00224e+06 0 3.26503e+06 -1.0029e+06 0 3.26636e+06 -1.00356e+06 0 3.26768e+06 -1.00422e+06 0 3.26901e+06 -1.00487e+06 0 3.27034e+06 -1.00553e+06 0 3.27166e+06 -1.00618e+06 0 3.27299e+06 -1.00684e+06 0 3.27432e+06 -1.00749e+06 0 3.27565e+06 -1.00815e+06 0 3.27698e+06 -1.0088e+06 0 3.27831e+06 -1.00945e+06 0 3.27964e+06 -1.0101e+06 0 3.28098e+06 -1.01075e+06 0 3.28231e+06 -1.0114e+06 0 3.28364e+06 -1.01205e+06 0 3.28498e+06 -1.0127e+06 0 3.28631e+06 -1.01335e+06 0 3.28765e+06 -1.01399e+06 0 3.28899e+06 -1.01464e+06 0 3.29033e+06 -1.01529e+06 0 3.29167e+06 -1.01593e+06 0 3.29301e+06 -1.01657e+06 0 3.29435e+06 -1.01722e+06 0 3.29569e+06 -1.01786e+06 0 3.29703e+06 -1.0185e+06 0 3.29837e+06 -1.01914e+06 0 3.29972e+06 -1.01979e+06 0 3.30106e+06 -1.02043e+06 0 3.30241e+06 -1.02106e+06 0 3.30375e+06 -1.0217e+06 0 3.3051e+06 -1.02234e+06 0 3.30645e+06 -1.02298e+06 0 3.3078e+06 -1.02362e+06 0 3.30915e+06 -1.02425e+06 0 3.3105e+06 -1.02489e+06 0 3.31185e+06 -1.02552e+06 0 3.3132e+06 -1.02615e+06 0 3.31455e+06 -1.02679e+06 0 3.31591e+06 -1.02742e+06 0 3.31726e+06 -1.02805e+06 0 3.31862e+06 -1.02868e+06 0 3.31997e+06 -1.02931e+06 0 3.32133e+06 -1.02994e+06 0 3.32269e+06 -1.03057e+06 0 3.32404e+06 -1.03119e+06 0 3.3254e+06 -1.03182e+06 0 3.32676e+06 -1.03245e+06 0 3.32812e+06 -1.03307e+06 0 3.32948e+06 -1.0337e+06 0 3.33085e+06 -1.03432e+06 0 3.33221e+06 -1.03494e+06 0 3.33357e+06 -1.03557e+06 0 3.33494e+06 -1.03619e+06 0 3.3363e+06 -1.03681e+06 0 3.33767e+06 -1.03743e+06 0 3.33904e+06 -1.03805e+06 0 3.3404e+06 -1.03868e+06 0 3.34177e+06 -1.0393e+06 0 3.34315e+06 -1.03992e+06 0 3.34452e+06 -1.04054e+06 0 3.3459e+06 -1.04117e+06 0 3.21282e+06 -929875 0 3.21409e+06 -930558 0 3.21536e+06 -931240 0 3.21662e+06 -931922 0 3.21789e+06 -932602 0 3.21916e+06 -933282 0 3.22043e+06 -933962 0 3.2217e+06 -934640 0 3.22297e+06 -935318 0 3.22424e+06 -935995 0 3.22551e+06 -936671 0 3.22678e+06 -937346 0 3.22806e+06 -938021 0 3.22933e+06 -938695 0 3.2306e+06 -939368 0 3.23188e+06 -940040 0 3.23315e+06 -940711 0 3.23443e+06 -941382 0 3.23571e+06 -942052 0 3.23698e+06 -942721 0 3.23826e+06 -943390 0 3.23954e+06 -944058 0 3.24082e+06 -944725 0 3.2421e+06 -945391 0 3.24338e+06 -946056 0 3.24466e+06 -946721 0 3.24594e+06 -947385 0 3.24723e+06 -948048 0 3.24851e+06 -948710 0 3.24979e+06 -949372 0 3.25108e+06 -950033 0 3.25236e+06 -950693 0 3.25365e+06 -951353 0 3.25493e+06 -952011 0 3.25622e+06 -952669 0 3.25751e+06 -953326 0 3.2588e+06 -953983 0 3.26009e+06 -954638 0 3.26138e+06 -955293 0 3.26267e+06 -955948 0 3.26396e+06 -956601 0 3.26525e+06 -957254 0 3.26654e+06 -957906 0 3.26784e+06 -958557 0 3.26913e+06 -959207 0 3.27043e+06 -959857 0 3.27172e+06 -960506 0 3.27302e+06 -961154 0 3.27431e+06 -961801 0 3.27561e+06 -962448 0 3.27691e+06 -963094 0 3.27821e+06 -963739 0 3.27951e+06 -964384 0 3.28081e+06 -965027 0 3.28211e+06 -965670 0 3.28341e+06 -966313 0 3.28472e+06 -966954 0 3.28602e+06 -967595 0 3.28732e+06 -968235 0 3.28863e+06 -968874 0 3.28994e+06 -969512 0 3.29124e+06 -970150 0 3.29255e+06 -970787 0 3.29386e+06 -971423 0 3.29517e+06 -972059 0 3.29648e+06 -972694 0 3.29779e+06 -973328 0 3.2991e+06 -973961 0 3.30041e+06 -974593 0 3.30172e+06 -975225 0 3.30304e+06 -975856 0 3.30435e+06 -976486 0 3.30567e+06 -977116 0 3.30698e+06 -977745 0 3.3083e+06 -978373 0 3.30961e+06 -979000 0 3.31093e+06 -979626 0 3.31225e+06 -980252 0 3.31357e+06 -980877 0 3.31489e+06 -981501 0 3.31621e+06 -982125 0 3.31754e+06 -982748 0 3.31886e+06 -983370 0 3.32018e+06 -983991 0 3.32151e+06 -984611 0 3.32283e+06 -985231 0 3.32416e+06 -985850 0 3.32549e+06 -986468 0 3.32681e+06 -987086 0 3.32814e+06 -987703 0 3.32947e+06 -988318 0 3.3308e+06 -988934 0 3.33213e+06 -989548 0 3.33346e+06 -990162 0 3.3348e+06 -990775 0 3.33613e+06 -991387 0 3.33746e+06 -991999 0 3.3388e+06 -992609 0 3.34014e+06 -993219 0 3.34147e+06 -993828 0 3.34281e+06 -994437 0 3.34415e+06 -995045 0 3.34549e+06 -995652 0 3.34683e+06 -996258 0 3.34817e+06 -996864 0 3.34951e+06 -997468 0 3.35085e+06 -998072 0 3.3522e+06 -998676 0 3.35354e+06 -999278 0 3.35489e+06 -999880 0 3.35623e+06 -1.00048e+06 0 3.35758e+06 -1.00108e+06 0 3.35893e+06 -1.00168e+06 0 3.36028e+06 -1.00228e+06 0 3.36163e+06 -1.00288e+06 0 3.36298e+06 -1.00348e+06 0 3.36433e+06 -1.00407e+06 0 3.36568e+06 -1.00467e+06 0 3.36703e+06 -1.00526e+06 0 3.36839e+06 -1.00586e+06 0 3.36974e+06 -1.00645e+06 0 3.3711e+06 -1.