<?xml version="1.0"?> 
<VTKFile type="StructuredGrid" version="0.1"> 
<StructuredGrid WholeExtent="0 127 0 127 0 0"> 
<Piece Extent="0 127 0 127 0 0"> 
<PointData>
<DataArray type="Float32" Name="E" format="ascii" NumberOfComponents="3"> 
-1.64877e+06 -2.82496e+06 0 -1.19391e+06 -2.25266e+06 0 -987918 -2.00425e+06 0 -879451 -1.86129e+06 0 -817603 -1.77173e+06 0 -778474 -1.70816e+06 0 -751462 -1.66032e+06 0 -731100 -1.62232e+06 0 -714584 -1.59112e+06 0 -700380 -1.56482e+06 0 -687635 -1.54224e+06 0 -675852 -1.52257e+06 0 -664735 -1.50525e+06 0 -654099 -1.48984e+06 0 -643825 -1.47604e+06 0 -633836 -1.46361e+06 0 -624075 -1.45235e+06 0 -614503 -1.4421e+06 0 -605090 -1.43273e+06 0 -595813 -1.42415e+06 0 -586654 -1.41625e+06 0 -577597 -1.40898e+06 0 -568631 -1.40225e+06 0 -559745 -1.39603e+06 0 -550930 -1.39025e+06 0 -542178 -1.38488e+06 0 -533482 -1.37989e+06 0 -524837 -1.37524e+06 0 -516235 -1.37091e+06 0 -507674 -1.36687e+06 0 -499147 -1.3631e+06 0 -490652 -1.35957e+06 0 -482184 -1.35628e+06 0 -473739 -1.3532e+06 0 -465315 -1.35033e+06 0 -456908 -1.34765e+06 0 -448515 -1.34514e+06 0 -440134 -1.3428e+06 0 -431762 -1.34062e+06 0 -423397 -1.33859e+06 0 -415035 -1.3367e+06 0 -406676 -1.33495e+06 0 -398316 -1.33333e+06 0 -389953 -1.33183e+06 0 -381585 -1.33044e+06 0 -373211 -1.32917e+06 0 -364828 -1.328e+06 0 -356433 -1.32694e+06 0 -348026 -1.32598e+06 0 -339604 -1.32511e+06 0 -331164 -1.32434e+06 0 -322706 -1.32366e+06 0 -314227 -1.32307e+06 0 -305724 -1.32256e+06 0 -297197 -1.32214e+06 0 -288642 -1.3218e+06 0 -280058 -1.32154e+06 0 -271443 -1.32136e+06 0 -262794 -1.32126e+06 0 -254109 -1.32124e+06 0 -245386 -1.32129e+06 0 -236622 -1.32143e+06 0 -227815 -1.32163e+06 0 -218962 -1.32192e+06 0 -210062 -1.32228e+06 0 -201110 -1.32272e+06 0 -192105 -1.32323e+06 0 -183043 -1.32383e+06 0 -173922 -1.3245e+06 0 -164737 -1.32525e+06 0 -155486 -1.32609e+06 0 -146166 -1.327e+06 0 -136772 -1.32801e+06 0 -127301 -1.3291e+06 0 -117749 -1.33028e+06 0 -108111 -1.33155e+06 0 -98383 -1.33292e+06 0 -88560.1 -1.33439e+06 0 -78637.2 -1.33596e+06 0 -68608.9 -1.33763e+06 0 -58469.5 -1.33942e+06 0 -48212.8 -1.34132e+06 0 -37832.4 -1.34334e+06 0 -27321.2 -1.34549e+06 0 -16671.7 -1.34777e+06 0 -5875.96 -1.3502e+06 0 5074.8 -1.35277e+06 0 16189.9 -1.3555e+06 0 27479.4 -1.35839e+06 0 38954.2 -1.36146e+06 0 50626.3 -1.36472e+06 0 62508.6 -1.36817e+06 0 74615.2 -1.37185e+06 0 86961.5 -1.37575e+06 0 99564.6 -1.37989e+06 0 112443 -1.38431e+06 0 125618 -1.38901e+06 0 139112 -1.39402e+06 0 152950 -1.39937e+06 0 167161 -1.40508e+06 0 181778 -1.4112e+06 0 196836 -1.41776e+06 0 212376 -1.4248e+06 0 228445 -1.43237e+06 0 245097 -1.44054e+06 0 262394 -1.44937e+06 0 280407 -1.45894e+06 0 299221 -1.46933e+06 0 318937 -1.48066e+06 0 339674 -1.49306e+06 0 361577 -1.50667e+06 0 384824 -1.52169e+06 0 409638 -1.53835e+06 0 436298 -1.55692e+06 0 465170 -1.57776e+06 0 496735 -1.60133e+06 0 531647 -1.62824e+06 0 570824 -1.65929e+06 0 615593 -1.69561e+06 0 667944 -1.73884e+06 0 730991 -1.79149e+06 0 809837 -1.85772e+06 0 913243 -1.94473e+06 0 1.05727e+06 -2.06694e+06 0 1.27267e+06 -2.25252e+06 0 1.62417e+06 -2.57163e+06 0 2.24843e+06 -3.16565e+06 0 3.48098e+06 -4.47901e+06 0 -1.18307e+06 -1.31733e+06 0 -1.19947e+06 -1.44142e+06 0 -1.15874e+06 -1.48792e+06 0 -1.10394e+06 -1.50514e+06 0 -1.04851e+06 -1.50715e+06 0 -997510 -1.50178e+06 0 -952110 -1.49251e+06 0 -912188 -1.48136e+06 0 -877122 -1.46944e+06 0 -846186 -1.45738e+06 0 -818694 -1.44554e+06 0 -794051 -1.43414e+06 0 -771759 -1.42327e+06 0 -751409 -1.413e+06 0 -732670 -1.40331e+06 0 -715275 -1.39422e+06 0 -699007 -1.3857e+06 0 -683688 -1.37772e+06 0 -669177 -1.37025e+06 0 -655354 -1.36325e+06 0 -642122 -1.3567e+06 0 -629402 -1.35057e+06 0 -617125 -1.34483e+06 0 -605236 -1.33944e+06 0 -593685 -1.33439e+06 0 -582433 -1.32965e+06 0 -571444 -1.32521e+06 0 -560688 -1.32103e+06 0 -550140 -1.3171e+06 0 -539776 -1.31341e+06 0 -529576 -1.30994e+06 0 -519524 -1.30668e+06 0 -509603 -1.30362e+06 0 -499799 -1.30073e+06 0 -490101 -1.29802e+06 0 -480498 -1.29547e+06 0 -470978 -1.29307e+06 0 -461533 -1.29081e+06 0 -452155 -1.28869e+06 0 -442837 -1.28671e+06 0 -433571 -1.28484e+06 0 -424350 -1.28309e+06 0 -415170 -1.28145e+06 0 -406023 -1.27992e+06 0 -396906 -1.27849e+06 0 -387813 -1.27716e+06 0 -378739 -1.27592e+06 0 -369680 -1.27477e+06 0 -360632 -1.2737e+06 0 -351591 -1.27272e+06 0 -342553 -1.27181e+06 0 -333514 -1.27099e+06 0 -324471 -1.27023e+06 0 -315419 -1.26955e+06 0 -306356 -1.26894e+06 0 -297278 -1.2684e+06 0 -288181 -1.26792e+06 0 -279062 -1.26751e+06 0 -269918 -1.26717e+06 0 -260745 -1.26688e+06 0 -251539 -1.26666e+06 0 -242298 -1.26649e+06 0 -233018 -1.26639e+06 0 -223695 -1.26634e+06 0 -214325 -1.26636e+06 0 -204906 -1.26643e+06 0 -195431 -1.26656e+06 0 -185899 -1.26674e+06 0 -176305 -1.26699e+06 0 -166643 -1.26729e+06 0 -156911 -1.26765e+06 0 -147103 -1.26806e+06 0 -137214 -1.26854e+06 0 -127240 -1.26908e+06 0 -117175 -1.26968e+06 0 -107012 -1.27033e+06 0 -96747.4 -1.27106e+06 0 -86373.3 -1.27184e+06 0 -75883.5 -1.27269e+06 0 -65270.8 -1.27361e+06 0 -54527.6 -1.27459e+06 0 -43645.7 -1.27565e+06 0 -32616.5 -1.27677e+06 0 -21430.7 -1.27798e+06 0 -10078.2 -1.27926e+06 0 1451.76 -1.28062e+06 0 13170.8 -1.28206e+06 0 25091.6 -1.28359e+06 0 37227.8 -1.28521e+06 0 49594.3 -1.28692e+06 0 62207.3 -1.28872e+06 0 75084.6 -1.29063e+06 0 88245.6 -1.29265e+06 0 101712 -1.29477e+06 0 115506 -1.29701e+06 0 129655 -1.29936e+06 0 144188 -1.30185e+06 0 159136 -1.30446e+06 0 174536 -1.30721e+06 0 190427 -1.3101e+06 0 206855 -1.31314e+06 0 223870 -1.31634e+06 0 241530 -1.31969e+06 0 259901 -1.32321e+06 0 279058 -1.32689e+06 0 299085 -1.33074e+06 0 320084 -1.33476e+06 0 342167 -1.33894e+06 0 365469 -1.34327e+06 0 390145 -1.34775e+06 0 416379 -1.35234e+06 0 444385 -1.357e+06 0 474419 -1.36169e+06 0 506783 -1.3663e+06 0 541835 -1.37073e+06 0 579998 -1.3748e+06 0 621769 -1.37825e+06 0 667725 -1.38071e+06 0 718511 -1.38165e+06 0 774811 -1.38026e+06 0 837256 -1.37533e+06 0 906208 -1.36499e+06 0 981286 -1.34621e+06 0 1.06027e+06 -1.31375e+06 0 1.13676e+06 -1.25852e+06 0 1.19427e+06 -1.16136e+06 0 1.19437e+06 -987006 0 1.03904e+06 -636920 0 -1.12597e+06 -1.25975e+06 0 -1.0843e+06 -1.24321e+06 0 -1.06166e+06 -1.25003e+06 0 -1.04163e+06 -1.2618e+06 0 -1.0204e+06 -1.27387e+06 0 -997337 -1.28408e+06 0 -972962 -1.292e+06 0 -947966 -1.29764e+06 0 -922956 -1.30126e+06 0 -898377 -1.30318e+06 0 -874523 -1.30372e+06 0 -851563 -1.30316e+06 0 -829582 -1.30176e+06 0 -808601 -1.2997e+06 0 -788602 -1.29717e+06 0 -769541 -1.29429e+06 0 -751361 -1.29117e+06 0 -734001 -1.2879e+06 0 -717393 -1.28455e+06 0 -701473 -1.28115e+06 0 -686182 -1.27777e+06 0 -671461 -1.27442e+06 0 -657257 -1.27112e+06 0 -643523 -1.2679e+06 0 -630213 -1.26477e+06 0 -617290 -1.26173e+06 0 -604715 -1.2588e+06 0 -592457 -1.25597e+06 0 -580487 -1.25325e+06 0 -568777 -1.25063e+06 0 -557304 -1.24812e+06 0 -546047 -1.24572e+06 0 -534985 -1.24342e+06 0 -524100 -1.24122e+06 0 -513377 -1.23912e+06 0 -502801 -1.23712e+06 0 -492359 -1.2352e+06 0 -482037 -1.23338e+06 0 -471825 -1.23165e+06 0 -461712 -1.23e+06 0 -451688 -1.22842e+06 0 -441745 -1.22693e+06 0 -431874 -1.22551e+06 0 -422068 -1.22417e+06 0 -412318 -1.22289e+06 0 -402620 -1.22168e+06 0 -392965 -1.22054e+06 0 -383348 -1.21945e+06 0 -373763 -1.21843e+06 0 -364206 -1.21746e+06 0 -354669 -1.21655e+06 0 -345149 -1.2157e+06 0 -335641 -1.21489e+06 0 -326140 -1.21414e+06 0 -316640 -1.21343e+06 0 -307139 -1.21277e+06 0 -297632 -1.21215e+06 0 -288113 -1.21158e+06 0 -278580 -1.21105e+06 0 -269027 -1.21057e+06 0 -259451 -1.21012e+06 0 -249847 -1.20971e+06 0 -240212 -1.20934e+06 0 -230540 -1.209e+06 0 -220829 -1.2087e+06 0 -211072 -1.20843e+06 0 -201266 -1.2082e+06 0 -191407 -1.208e+06 0 -181489 -1.20783e+06 0 -171508 -1.20769e+06 0 -161458 -1.20758e+06 0 -151336 -1.2075e+06 0 -141135 -1.20745e+06 0 -130850 -1.20742e+06 0 -120475 -1.20743e+06 0 -110004 -1.20745e+06 0 -99431.6 -1.20751e+06 0 -88750 -1.20758e+06 0 -77952.5 -1.20768e+06 0 -67031.9 -1.2078e+06 0 -55980.4 -1.20795e+06 0 -44789.7 -1.20811e+06 0 -33451.1 -1.20829e+06 0 -21955.2 -1.20848e+06 0 -10292.2 -1.2087e+06 0 1548.52 -1.20892e+06 0 13578.2 -1.20916e+06 0 25809 -1.2094e+06 0 38253.9 -1.20965e+06 0 50926.6 -1.2099e+06 0 63842.3 -1.21016e+06 0 77016.9 -1.2104e+06 0 90467.8 -1.21064e+06 0 104214 -1.21086e+06 0 118275 -1.21105e+06 0 132673 -1.21121e+06 0 147431 -1.21134e+06 0 162576 -1.21141e+06 0 178135 -1.21142e+06 0 194138 -1.21135e+06 0 210617 -1.21118e+06 0 227607 -1.21089e+06 0 245146 -1.21046e+06 0 263274 -1.20985e+06 0 282036 -1.20904e+06 0 301477 -1.20798e+06 0 321646 -1.20661e+06 0 342594 -1.20489e+06 0 364374 -1.20274e+06 0 387037 -1.20008e+06 0 410635 -1.1968e+06 0 435213 -1.19279e+06 0 460807 -1.1879e+06 0 487437 -1.18196e+06 0 515101 -1.17477e+06 0 543758 -1.16608e+06 0 573317 -1.15563e+06 0 603612 -1.14308e+06 0 634378 -1.12808e+06 0 665224 -1.11024e+06 0 695611 -1.08919e+06 0 724862 -1.06464e+06 0 752245 -1.03655e+06 0 777294 -1.00551e+06 0 800605 -973410 0 826160 -945753 0 866151 -934057 0 956907 -973378 0 -1.05622e+06 -1.08295e+06 0 -1.04729e+06 -1.10802e+06 0 -1.02937e+06 -1.12161e+06 0 -1.00992e+06 -1.13184e+06 0 -990561 -1.14054e+06 0 -971597 -1.14847e+06 0 -952909 -1.15575e+06 0 -934367 -1.16237e+06 0 -915899 -1.16827e+06 0 -897494 -1.17343e+06 0 -879186 -1.17784e+06 0 -861027 -1.18152e+06 0 -843077 -1.18451e+06 0 -825392 -1.18687e+06 0 -808019 -1.18867e+06 0 -790994 -1.18995e+06 0 -774341 -1.19079e+06 0 -758076 -1.19124e+06 0 -742205 -1.19136e+06 0 -726728 -1.1912e+06 0 -711638 -1.1908e+06 0 -696925 -1.19021e+06 0 -682576 -1.18945e+06 0 -668574 -1.18856e+06 0 -654903 -1.18756e+06 0 -641546 -1.18649e+06 0 -628484 -1.18534e+06 0 -615700 -1.18415e+06 0 -603176 -1.18293e+06 0 -590896 -1.18169e+06 0 -578843 -1.18043e+06 0 -567002 -1.17918e+06 0 -555357 -1.17792e+06 0 -543896 -1.17668e+06 0 -532604 -1.17545e+06 0 -521470 -1.17424e+06 0 -510481 -1.17305e+06 0 -499626 -1.17189e+06 0 -488895 -1.17075e+06 0 -478277 -1.16964e+06 0 -467764 -1.16855e+06 0 -457347 -1.16749e+06 0 -447018 -1.16647e+06 0 -436768 -1.16547e+06 0 -426590 -1.1645e+06 0 -416478 -1.16356e+06 0 -406423 -1.16265e+06 0 -396421 -1.16176e+06 0 -386465 -1.16091e+06 0 -376548 -1.16008e+06 0 -366666 -1.15927e+06 0 -356814 -1.15849e+06 0 -346984 -1.15773e+06 0 -337174 -1.157e+06 0 -327377 -1.15629e+06 0 -317590 -1.1556e+06 0 -307807 -1.15493e+06 0 -298023 -1.15427e+06 0 -288235 -1.15364e+06 0 -278438 -1.15302e+06 0 -268627 -1.15242e+06 0 -258797 -1.15183e+06 0 -248946 -1.15125e+06 0 -239068 -1.15069e+06 0 -229158 -1.15013e+06 0 -219213 -1.14958e+06 0 -209228 -1.14905e+06 0 -199199 -1.14851e+06 0 -189120 -1.14798e+06 0 -178987 -1.14746e+06 0 -168796 -1.14693e+06 0 -158541 -1.14641e+06 0 -148218 -1.14588e+06 0 -137821 -1.14535e+06 0 -127345 -1.14481e+06 0 -116784 -1.14426e+06 0 -106134 -1.1437e+06 0 -95387.2 -1.14313e+06 0 -84538.4 -1.14254e+06 0 -73581.1 -1.14194e+06 0 -62508.7 -1.14131e+06 0 -51314.2 -1.14065e+06 0 -39990.5 -1.13996e+06 0 -28530 -1.13924e+06 0 -16925 -1.13848e+06 0 -5167.05 -1.13768e+06 0 6752.3 -1.13682e+06 0 18842.1 -1.13591e+06 0 31111.7 -1.13494e+06 0 43571 -1.1339e+06 0 56230.3 -1.13278e+06 0 69100.2 -1.13157e+06 0 82192 -1.13027e+06 0 95517.3 -1.12886e+06 0 109088 -1.12732e+06 0 122917 -1.12566e+06 0 137016 -1.12384e+06 0 151400 -1.12185e+06 0 166081 -1.11967e+06 0 181072 -1.11728e+06 0 196387 -1.11466e+06 0 212038 -1.11178e+06 0 228039 -1.10861e+06 0 244400 -1.1051e+06 0 261132 -1.10124e+06 0 278242 -1.09696e+06 0 295736 -1.09224e+06 0 313616 -1.087e+06 0 331879 -1.08121e+06 0 350517 -1.07479e+06 0 369514 -1.06767e+06 0 388848 -1.05978e+06 0 408484 -1.05106e+06 0 428380 -1.0414e+06 0 448480 -1.03073e+06 0 468714 -1.01898e+06 0 489006 -1.00605e+06 0 509268 -991896 0 529414 -976447 0 549363 -959673 0 569053 -941557 0 588441 -922084 0 607486 -901208 0 626041 -878706 0 643544 -853944 0 658049 -824909 0 664112 -787179 0 645580 -726368 0 -1.01263e+06 -1.00446e+06 0 -996647 -1.00846e+06 0 -983834 -1.01684e+06 0 -970920 -1.0258e+06 0 -957384 -1.03452e+06 0 -943245 -1.04269e+06 0 -928679 -1.05025e+06 0 -913837 -1.05722e+06 0 -898829 -1.06364e+06 0 -883733 -1.06953e+06 0 -868602 -1.07492e+06 0 -853476 -1.07982e+06 0 -838389 -1.08425e+06 0 -823369 -1.08825e+06 0 -808443 -1.09181e+06 0 -793635 -1.09498e+06 0 -778964 -1.09776e+06 0 -764450 -1.1002e+06 0 -750107 -1.1023e+06 0 -735947 -1.10411e+06 0 -721980 -1.10564e+06 0 -708212 -1.10691e+06 0 -694646 -1.10797e+06 0 -681284 -1.10881e+06 0 -668125 -1.10948e+06 0 -655167 -1.10997e+06 0 -642407 -1.11033e+06 0 -629840 -1.11055e+06 0 -617459 -1.11066e+06 0 -605259 -1.11066e+06 0 -593232 -1.11058e+06 0 -581372 -1.11042e+06 0 -569670 -1.11019e+06 0 -558120 -1.10991e+06 0 -546713 -1.10957e+06 0 -535441 -1.10919e+06 0 -524298 -1.10877e+06 0 -513275 -1.10831e+06 0 -502366 -1.10783e+06 0 -491563 -1.10732e+06 0 -480858 -1.1068e+06 0 -470246 -1.10625e+06 0 -459720 -1.1057e+06 0 -449274 -1.10512e+06 0 -438900 -1.10454e+06 0 -428594 -1.10395e+06 0 -418350 -1.10335e+06 0 -408161 -1.10275e+06 0 -398023 -1.10213e+06 0 -387930 -1.10152e+06 0 -377878 -1.10089e+06 0 -367861 -1.10027e+06 0 -357874 -1.09963e+06 0 -347913 -1.099e+06 0 -337973 -1.09835e+06 0 -328050 -1.0977e+06 0 -318139 -1.09705e+06 0 -308236 -1.09639e+06 0 -298337 -1.09572e+06 0 -288437 -1.09504e+06 0 -278533 -1.09435e+06 0 -268621 -1.09366e+06 0 -258695 -1.09295e+06 0 -248753 -1.09223e+06 0 -238790 -1.09149e+06 0 -228803 -1.09074e+06 0 -218786 -1.08997e+06 0 -208737 -1.08918e+06 0 -198650 -1.08838e+06 0 -188523 -1.08755e+06 0 -178350 -1.08669e+06 0 -168128 -1.08581e+06 0 -157852 -1.0849e+06 0 -147519 -1.08395e+06 0 -137123 -1.08297e+06 0 -126661 -1.08196e+06 0 -116127 -1.0809e+06 0 -105518 -1.0798e+06 0 -94828.6 -1.07865e+06 0 -84053.7 -1.07744e+06 0 -73188.9 -1.07619e+06 0 -62229.2 -1.07487e+06 0 -51169.5 -1.07348e+06 0 -40004.7 -1.07202e+06 0 -28729.7 -1.07049e+06 0 -17339.3 -1.06887e+06 0 -5827.96 -1.06716e+06 0 5809.51 -1.06535e+06 0 17578.5 -1.06344e+06 0 29484.5 -1.06142e+06 0 41532.8 -1.05927e+06 0 53728.7 -1.05698e+06 0 66077.3 -1.05455e+06 0 78583.7 -1.05197e+06 0 91252.7 -1.04921e+06 0 104089 -1.04627e+06 0 117095 -1.04313e+06 0 130276 -1.03978e+06 0 143635 -1.03619e+06 0 157172 -1.03236e+06 0 170890 -1.02824e+06 0 184787 -1.02384e+06 0 198863 -1.01911e+06 0 213113 -1.01405e+06 0 227532 -1.00861e+06 0 242113 -1.00277e+06 0 256844 -996504 0 271713 -989779 0 286702 -982561 0 301792 -974818 0 316956 -966515 0 332166 -957620 0 347386 -948098 0 362579 -937916 0 377697 -927046 0 392690 -915456 0 407499 -903122 0 422056 -890021 0 436282 -876132 0 450086 -861442 0 463354 -845942 0 475956 -829636 0 487743 -812563 0 498597 -794849 0 508553 -776814 0 518230 -759396 0 529775 -744601 0 550196 -738901 0 -973618 -916975 0 -963405 -927396 0 -951480 -935506 0 -939313 -943004 0 -927109 -950184 0 -914861 -957150 0 -902514 -963877 0 -890039 -970339 0 -877430 -976506 0 -864698 -982362 0 -851864 -987897 0 -838951 -993107 0 -825984 -997992 0 -812985 -1.00256e+06 0 -799976 -1.00681e+06 0 -786977 -1.01076e+06 0 -774005 -1.01442e+06 0 -761077 -1.01779e+06 0 -748206 -1.02089e+06 0 -735405 -1.02373e+06 0 -722685 -1.02632e+06 0 -710055 -1.02868e+06 0 -697522 -1.03082e+06 0 -685093 -1.03275e+06 0 -672772 -1.03449e+06 0 -660563 -1.03605e+06 0 -648469 -1.03744e+06 0 -636491 -1.03868e+06 0 -624630 -1.03976e+06 0 -612884 -1.04072e+06 0 -601254 -1.04155e+06 0 -589737 -1.04226e+06 0 -578331 -1.04287e+06 0 -567033 -1.04338e+06 0 -555841 -1.0438e+06 0 -544750 -1.04413e+06 0 -533758 -1.04439e+06 0 -522860 -1.04458e+06 0 -512052 -1.0447e+06 0 -501330 -1.04476e+06 0 -490690 -1.04477e+06 0 -480128 -1.04472e+06 0 -469639 -1.04462e+06 0 -459219 -1.04448e+06 0 -448863 -1.04429e+06 0 -438569 -1.04407e+06 0 -428330 -1.0438e+06 0 -418144 -1.0435e+06 0 -408006 -1.04316e+06 0 -397911 -1.04279e+06 0 -387857 -1.04239e+06 0 -377838 -1.04196e+06 0 -367852 -1.04149e+06 0 -357893 -1.041e+06 0 -347960 -1.04048e+06 0 -338046 -1.03992e+06 0 -328150 -1.03934e+06 0 -318268 -1.03873e+06 0 -308395 -1.03808e+06 0 -298528 -1.03741e+06 0 -288665 -1.0367e+06 0 -278801 -1.03596e+06 0 -268932 -1.03519e+06 0 -259057 -1.03439e+06 0 -249170 -1.03355e+06 0 -239270 -1.03267e+06 0 -229352 -1.03175e+06 0 -219414 -1.0308e+06 0 -209451 -1.0298e+06 0 -199461 -1.02876e+06 0 -189441 -1.02767e+06 0 -179387 -1.02653e+06 0 -169296 -1.02534e+06 0 -159165 -1.0241e+06 0 -148990 -1.0228e+06 0 -138769 -1.02145e+06 0 -128498 -1.02003e+06 0 -118175 -1.01854e+06 0 -107795 -1.01698e+06 0 -97355.5 -1.01535e+06 0 -86854.2 -1.01363e+06 0 -76287.7 -1.01184e+06 0 -65652.9 -1.00995e+06 0 -54947.1 -1.00797e+06 0 -44167.4 -1.0059e+06 0 -33311.1 -1.00371e+06 0 -22375.8 -1.00141e+06 0 -11359 -998996 0 -258.524 -996452 0 10927.6 -993773 0 22201 -990950 0 33563.2 -987976 0 45015.1 -984840 0 56557.4 -981532 0 68190.2 -978042 0 79913.2 -974359 0 91725.1 -970470 0 103624 -966364 0 115608 -962027 0 127674 -957445 0 139816 -952605 0 152029 -947491 0 164306 -942088 0 176638 -936381 0 189017 -930353 0 201430 -923988 0 213864 -917270 0 226304 -910183 0 238732 -902710 0 251129 -894835 0 263472 -886545 0 275739 -877825 0 287902 -868663 0 299932 -859048 0 311799 -848972 0 323469 -838431 0 334909 -827421 0 346084 -815946 0 356961 -804012 0 367509 -791634 0 377707 -778830 0 387541 -765625 0 397009 -752040 0 406109 -738075 0 414785 -723658 0 422749 -708467 0 429061 -691723 0 430601 -670675 0 -941329 -850131 0 -930803 -856362 0 -920713 -863321 0 -910429 -870227 0 -899899 -876948 0 -889159 -883435 0 -878253 -889690 0 -867213 -895718 0 -856061 -901522 0 -844810 -907101 0 -833473 -912455 0 -822059 -917581 0 -810581 -922478 0 -799048 -927146 0 -787474 -931584 0 -775869 -935795 0 -764245 -939781 0 -752613 -943546 0 -740983 -947094 0 -729365 -950431 0 -717768 -953563 0 -706200 -956495 0 -694669 -959236 0 -683180 -961791 0 -671741 -964168 0 -660355 -966375 0 -649027 -968419 0 -637761 -970308 0 -626560 -972048 0 -615425 -973648 0 -604359 -975114 0 -593362 -976452 0 -582435 -977670 0 -571578 -978774 0 -560791 -979769 0 -550073 -980662 0 -539423 -981458 0 -528840 -982161 0 -518322 -982777 0 -507867 -983309 0 -497474 -983763 0 -487139 -984141 0 -476862 -984447 0 -466640 -984685 0 -456469 -984858 0 -446348 -984967 0 -436273 -985016 0 -426243 -985006 0 -416254 -984940 0 -406303 -984819 0 -396388 -984644 0 -386506 -984417 0 -376655 -984139 0 -366830 -983810 0 -357031 -983432 0 -347253 -983005 0 -337494 -982528 0 -327752 -982003 0 -318023 -981429 0 -308305 -980805 0 -298596 -980132 0 -288892 -979409 0 -279191 -978635 0 -269491 -977809 0 -259789 -976931 0 -250082 -975998 0 -240368 -975011 0 -230644 -973967 0 -220909 -972864 0 -211159 -971701 0 -201393 -970476 0 -191607 -969187 0 -181801 -967831 0 -171971 -966406 0 -162116 -964910 0 -152234 -963338 0 -142322 -961689 0 -132379 -959958 0 -122403 -958143 0 -112392 -956240 0 -102344 -954245 0 -92258.4 -952153 0 -82133.6 -949961 0 -71968.4 -947662 0 -61761.6 -945254 0 -51512.6 -942730 0 -41220.6 -940085 0 -30885.4 -937313 0 -20506.7 -934408 0 -10084.8 -931364 0 379.913 -928175 0 10886.5 -924832 0 21433.7 -921330 0 32019.8 -917661 0 42642.8 -913816 0 53299.8 -909789 0 63987.7 -905570 0 74702.5 -901151 0 85439.7 -896524 0 96194 -891680 0 106959 -886609 0 117729 -881303 0 128495 -875753 0 139249 -869950 0 149981 -863885 0 160680 -857550 0 171334 -850935 0 181932 -844035 0 192459 -836841 0 202899 -829347 0 213238 -821547 0 223458 -813437 0 233541 -805014 0 243469 -796275 0 253222 -787221 0 262781 -777850 0 272124 -768168 0 281230 -758176 0 290077 -747881 0 298642 -737289 0 306899 -726408 0 314816 -715247 0 322359 -703819 0 329492 -692148 0 336200 -680289 0 342563 -668409 0 348944 -656870 0 356688 -646913 0 -912452 -786799 0 -903415 -793650 0 -893986 -799991 0 -884448 -806159 0 -874821 -812191 0 -865098 -818096 0 -855268 -823860 0 -845329 -829473 0 -835287 -834926 0 -825149 -840214 0 -814924 -845331 0 -804619 -850276 0 -794245 -855047 0 -783810 -859641 0 -773321 -864059 0 -762788 -868301 0 -752217 -872366 0 -741616 -876255 0 -730993 -879971 0 -720354 -883516 0 -709706 -886890 0 -699056 -890099 0 -688410 -893144 0 -677773 -896029 0 -667149 -898758 0 -656545 -901335 0 -645964 -903764 0 -635409 -906050 0 -624885 -908197 0 -614394 -910209 0 -603939 -912090 0 -593522 -913847 0 -583145 -915481 0 -572808 -916999 0 -562514 -918403 0 -552263 -919699 0 -542055 -920890 0 -531890 -921980 0 -521769 -922972 0 -511691 -923871 0 -501656 -924678 0 -491663 -925398 0 -481711 -926033 0 -471799 -926586 0 -461927 -927060 0 -452091 -927457 0 -442293 -927778 0 -432529 -928027 0 -422798 -928204 0 -413099 -928311 0 -403431 -928350 0 -393790 -928323 0 -384176 -928229 0 -374587 -928070 0 -365021 -927847 0 -355476 -927560 0 -345950 -927210 0 -336442 -926797 0 -326950 -926321 0 -317471 -925782 0 -308004 -925179 0 -298547 -924514 0 -289099 -923784 0 -279657 -922989 0 -270220 -922129 0 -260787 -921203 0 -251354 -920209 0 -241922 -919147 0 -232488 -918014 0 -223051 -916810 0 -213609 -915533 0 -204161 -914180 0 -194706 -912751 0 -185242 -911243 0 -175768 -909654 0 -166283 -907980 0 -156786 -906221 0 -147276 -904372 0 -137752 -902432 0 -128214 -900396 0 -118661 -898263 0 -109093 -896028 0 -99509 -893688 0 -89909.6 -891239 0 -80294.8 -888677 0 -70664.9 -885999 0 -61020.4 -883200 0 -51362.1 -880276 0 -41691 -877222 0 -32008.5 -874033 0 -22316.2 -870706 0 -12616 -867234 0 -2910.24 -863613 0 6798.51 -859837 0 16507.2 -855903 0 26212.4 -851803 0 35910.2 -847533 0 45596.2 -843087 0 55265.7 -838460 0 64913.3 -833647 0 74533.2 -828643 0 84118.9 -823441 0 93663.6 -818039 0 103160 -812429 0 112599 -806609 0 121973 -800574 0 131272 -794321 0 140487 -787846 0 149606 -781146 0 158620 -774220 0 167517 -767065 0 176284 -759682 0 184911 -752070 0 193383 -744231 0 201688 -736166 0 209813 -727879 0 217744 -719373 0 225469 -710654 0 232975 -701729 0 240249 -692606 0 247282 -683294 0 254064 -673806 0 260593 -664154 0 266866 -654347 0 272875 -644387 0 278578 -634227 0 283811 -623742 0 287976 -612422 0 -886771 -730533 0 -878155 -736293 0 -869536 -742117 0 -860796 -747848 0 -851937 -753466 0 -842971 -758961 0 -833908 -764334 0 -824757 -769583 0 -815522 -774706 0 -806208 -779699 0 -796819 -784561 0 -787360 -789289 0 -777836 -793880 0 -768252 -798332 0 -758614 -802643 0 -748927 -806813 0 -739195 -810842 0 -729426 -814727 0 -719623 -818471 0 -709793 -822072 0 -699939 -825532 0 -690068 -828852 0 -680182 -832033 0 -670288 -835076 0 -660388 -837984 0 -650487 -840759 0 -640589 -843401 0 -630697 -845915 0 -620814 -848303 0 -610943 -850566 0 -601087 -852707 0 -591247 -854730 0 -581427 -856637 0 -571628 -858431 0 -561851 -860114 0 -552099 -861690 0 -542372 -863160 0 -532670 -864527 0 -522996 -865795 0 -513349 -866965 0 -503730 -868040 0 -494139 -869022 0 -484576 -869914 0 -475041 -870716 0 -465534 -871433 0 -456054 -872064 0 -446601 -872612 0 -437175 -873079 0 -427775 -873466 0 -418399 -873774 0 -409048 -874005 0 -399720 -874160 0 -390415 -874239 0 -381132 -874243 0 -371869 -874174 0 -362625 -874031 0 -353400 -873815 0 -344193 -873527 0 -335002 -873166 0 -325827 -872733 0 -316665 -872227 0 -307517 -871649 0 -298381 -870998 0 -289256 -870273 0 -280141 -869474 0 -271036 -868601 0 -261938 -867652 0 -252848 -866627 0 -243764 -865524 0 -234686 -864342 0 -225612 -863081 0 -216543 -861738 0 -207477 -860313 0 -198414 -858802 0 -189353 -857206 0 -180295 -855521 0 -171238 -853747 0 -162183 -851880 0 -153129 -849918 0 -144078 -847860 0 -135028 -845702 0 -125980 -843443 0 -116934 -841079 0 -107892 -838608 0 -98853.8 -836027 0 -89820.7 -833333 0 -80793.7 -830522 0 -71774.2 -827593 0 -62763.9 -824542 0 -53764.5 -821365 0 -44778.1 -818059 0 -35807.1 -814621 0 -26854 -811047 0 -17921.6 -807335 0 -9013.13 -803481 0 -132.015 -799481 0 8718 -795333 0 17532.8 -791032 0 26308.1 -786577 0 35039.1 -781963 0 43720.6 -777189 0 52347.4 -772251 0 60913.6 -767147 0 69413.2 -761874 0 77839.7 -756432 0 86186.4 -750817 0 94446.2 -745029 0 102612 -739068 0 110675 -732931 0 118629 -726620 0 126465 -720135 0 134175 -713476 0 141750 -706646 0 149183 -699646 0 156463 -692479 0 163583 -685148 0 170535 -677659 0 177309 -670014 0 183898 -662219 0 190294 -654281 0 196487 -646204 0 202469 -637996 0 208230 -629662 0 213759 -621214 0 219048 -612662 0 224104 -604040 0 228985 -595416 0 233944 -587027 0 -863299 -677955 0 -855304 -683511 0 -847177 -688916 0 -838971 -694231 0 -830688 -699459 0 -822326 -704597 0 -813886 -709640 0 -805368 -714584 0 -796777 -719426 0 -788116 -724161 0 -779389 -728789 0 -770598 -733306 0 -761749 -737711 0 -752845 -742003 0 -743889 -746178 0 -734885 -750237 0 -725838 -754178 0 -716750 -757999 0 -707626 -761702 0 -698469 -765285 0 -689284 -768748 0 -680073 -772091 0 -670840 -775315 0 -661589 -778419 0 -652323 -781406 0 -643045 -784274 0 -633759 -787027 0 -624466 -789663 0 -615170 -792186 0 -605873 -794595 0 -596578 -796894 0 -587287 -799082 0 -578002 -801162 0 -568724 -803135 0 -559457 -805003 0 -550201 -806768 0 -540957 -808431 0 -531728 -809994 0 -522513 -811458 0 -513315 -812826 0 -504134 -814099 0 -494970 -815279 0 -485825 -816366 0 -476698 -817363 0 -467590 -818271 0 -458502 -819091 0 -449433 -819824 0 -440384 -820472 0 -431354 -821036 0 -422344 -821517 0 -413353 -821915 0 -404381 -822233 0 -395428 -822469 0 -386494 -822626 0 -377578 -822703 0 -368680 -822701 0 -359799 -822621 0 -350935 -822462 0 -342087 -822226 0 -333256 -821911 0 -324440 -821518 0 -315639 -821048 0 -306853 -820499 0 -298081 -819871 0 -289323 -819164 0 -280578 -818378 0 -271847 -817512 0 -263128 -816565 0 -254422 -815537 0 -245727 -814426 0 -237045 -813232 0 -228374 -811954 0 -219715 -810590 0 -211068 -809140 0 -202433 -807601 0 -193809 -805974 0 -185198 -804255 0 -176599 -802444 0 -168013 -800539 0 -159440 -798539 0 -150881 -796441 0 -142337 -794244 0 -133809 -791946 0 -125297 -789545 0 -116803 -787039 0 -108328 -784426 0 -99873.6 -781704 0 -91441.4 -778871 0 -83033.1 -775925 0 -74650.7 -772863 0 -66296.3 -769684 0 -57972.3 -766386 0 -49681.1 -762966 0 -41425.5 -759422 0 -33208.5 -755753 0 -25033.1 -751956 0 -16902.7 -748030 0 -8820.87 -743973 0 -791.357 -739783 0 7181.85 -735458 0 15094.5 -730998 0 22942.3 -726401 0 30720.6 -721667 0 38424.5 -716793 0 46049.1 -711780 0 53589.1 -706628 0 61039.3 -701336 0 68394.2 -695905 0 75648.1 -690335 0 82795.4 -684626 0 89830 -678782 0 96746.3 -672802 0 103538 -666688 0 110200 -660444 0 116725 -654072 0 123108 -647575 0 129343 -640957 0 135424 -634221 0 141346 -627372 0 147103 -620416 0 152691 -613356 0 158105 -606200 0 163342 -598954 0 168399 -591624 0 173274 -584215 0 177959 -576725 0 182425 -569137 0 186559 -561363 0 -841689 -629099 0 -834085 -634223 0 -826425 -639305 0 -818689 -644314 0 -810879 -649246 0 -803000 -654098 0 -795055 -658867 0 -787046 -663552 0 -778975 -668151 0 -770845 -672661 0 -762657 -677080 0 -754414 -681406 0 -746118 -685637 0 -737773 -689772 0 -729381 -693809 0 -720945 -697746 0 -712466 -701583 0 -703950 -705319 0 -695397 -708951 0 -686811 -712481 0 -678195 -715907 0 -669551 -719229 0 -660882 -722447 0 -652190 -725560 0 -643479 -728569 0 -634751 -731473 0 -626009 -734274 0 -617254 -736970 0 -608488 -739564 0 -599715 -742055 0 -590937 -744445 0 -582154 -746733 0 -573370 -748921 0 -564585 -751009 0 -555802 -752999 0 -547023 -754891 0 -538248 -756687 0 -529479 -758387 0 -520717 -759993 0 -511964 -761505 0 -503220 -762924 0 -494486 -764252 0 -485764 -765489 0 -477054 -766637 0 -468357 -767696 0 -459673 -768668 0 -451003 -769552 0 -442348 -770351 0 -433707 -771064 0 -425081 -771693 0 -416471 -772237 0 -407877 -772699 0 -399298 -773078 0 -390735 -773375 0 -382189 -773590 0 -373658 -773723 0 -365144 -773776 0 -356646 -773747 0 -348165 -773638 0 -339700 -773449 0 -331251 -773178 0 -322818 -772828 0 -314401 -772396 0 -306001 -771884 0 -297617 -771290 0 -289250 -770615 0 -280899 -769858 0 -272564 -769018 0 -264247 -768096 0 -255945 -767090 0 -247661 -766001 0 -239395 -764826 0 -231145 -763566 0 -222914 -762219 0 -214701 -760785 0 -206507 -759262 0 -198333 -757651 0 -190178 -755949 0 -182044 -754155 0 -173932 -752269 0 -165842 -750289 0 -157776 -748214 0 -149734 -746043 0 -141718 -743775 0 -133728 -741408 0 -125768 -738940 0 -117837 -736372 0 -109938 -733700 0 -102072 -730925 0 -94241.7 -728045 0 -86448.6 -725058 0 -78695 -721963 0 -70983.3 -718760 0 -63315.9 -715446 0 -55695.3 -712022 0 -48124.3 -708485 0 -40605.8 -704836 0 -33142.8 -701073 0 -25738.4 -697195 0 -18396 -693202 0 -11118.8 -689094 0 -3910.59 -684870 0 3225.14 -680530 0 10284.6 -676074 0 17263.8 -671502 0 24158.9 -666814 0 30965.8 -662012 0 37680.4 -657096 0 44298.4 -652067 0 50815.7 -646927 0 57227.9 -641676 0 63530.9 -636316 0 69720.3 -630851 0 75791.9 -625281 0 81741.4 -619610 0 87564.9 -613840 0 93258.1 -607974 0 98817.3 -602016 0 104239 -595969 0 109518 -589838 0 114653 -583626 0 119639 -577337 0 124472 -570977 0 129150 -564548 0 133668 -558058 0 138025 -551515 0 142230 -544933 0 146330 -538359 0 -821509 -583036 0 -814280 -587925 0 -806982 -592739 0 -799627 -597489 0 -792214 -602173 0 -784743 -606789 0 -777216 -611334 0 -769635 -615805 0 -762000 -620202 0 -754314 -624521 0 -746578 -628761 0 -738794 -632921 0 -730965 -636998 0 -723091 -640991 0 -715176 -644899 0 -707220 -648721 0 -699227 -652455 0 -691197 -656100 0 -683134 -659655 0 -675040 -663120 0 -666915 -666493 0 -658764 -669774 0 -650587 -672963 0 -642387 -676058 0 -634166 -679061 0 -625925 -681970 0 -617668 -684785 0 -609395 -687506 0 -601110 -690134 0 -592812 -692669 0 -584505 -695110 0 -576190 -697458 0 -567869 -699714 0 -559543 -701877 0 -551215 -703948 0 -542884 -705927 0 -534553 -707816 0 -526224 -709614 0 -517896 -711322 0 -509572 -712941 0 -501253 -714471 0 -492940 -715913 0 -484633 -717268 0 -476334 -718535 0 -468044 -719716 0 -459762 -720811 0 -451491 -721821 0 -443231 -722746 0 -434982 -723587 0 -426745 -724344 0 -418520 -725017 0 -410309 -725608 0 -402111 -726116 0 -393927 -726542 0 -385758 -726886 0 -377603 -727149 0 -369464 -727330 0 -361341 -727430 0 -353233 -727448 0 -345141 -727386 0 -337066 -727243 0 -329008 -727019 0 -320968 -726714 0 -312944 -726327 0 -304939 -725860 0 -296952 -725311 0 -288984 -724680 0 -281035 -723967 0 