<?xml version="1.0"?> 
<VTKFile type="StructuredGrid" version="0.1"> 
<StructuredGrid WholeExtent="0 127 0 127 0 0"> 
<Piece Extent="0 127 0 127 0 0"> 
<PointData>
<DataArray type="Float32" Name="E" format="ascii" NumberOfComponents="3"> 
-833470 0 0 -833397 0 0 -833323 0 0 -833248 0 0 -833172 0 0 -833094 0 0 -833015 0 0 -832935 0 0 -832854 0 0 -832771 0 0 -832687 0 0 -832602 0 0 -832516 0 0 -832429 0 0 -832340 0 0 -832250 0 0 -832159 0 0 -832067 0 0 -831974 0 0 -831879 0 0 -831784 0 0 -831687 0 0 -831589 0 0 -831490 0 0 -831390 0 0 -831289 0 0 -831187 0 0 -831084 0 0 -830980 0 0 -830874 0 0 -830768 0 0 -830661 0 0 -830553 0 0 -830443 0 0 -830333 0 0 -830222 0 0 -830110 0 0 -829997 0 0 -829884 0 0 -829769 0 0 -829653 0 0 -829537 0 0 -829420 0 0 -829302 0 0 -829183 0 0 -829064 0 0 -828944 0 0 -828823 0 0 -828701 0 0 -828579 0 0 -828456 0 0 -828333 0 0 -828209 0 0 -828084 0 0 -827959 0 0 -827833 0 0 -827707 0 0 -827580 0 0 -827452 0 0 -827325 0 0 -827196 0 0 -827068 0 0 -826939 0 0 -826809 0 0 -826680 0 0 -826550 0 0 -826419 0 0 -826288 0 0 -826158 0 0 -826026 0 0 -825895 0 0 -825763 0 0 -825632 0 0 -825500 0 0 -825368 0 0 -825235 0 0 -825103 0 0 -824971 0 0 -824838 0 0 -824706 0 0 -824573 0 0 -824441 0 0 -824309 0 0 -824176 0 0 -824044 0 0 -823912 0 0 -823780 0 0 -823648 0 0 -823516 0 0 -823384 0 0 -823253 0 0 -823122 0 0 -822991 0 0 -822860 0 0 -822729 0 0 -822599 0 0 -822469 0 0 -822339 0 0 -822210 0 0 -822081 0 0 -821952 0 0 -821824 0 0 -821696 0 0 -821568 0 0 -821441 0 0 -821315 0 0 -821188 0 0 -821062 0 0 -820937 0 0 -820812 0 0 -820688 0 0 -820564 0 0 -820440 0 0 -820317 0 0 -820195 0 0 -820073 0 0 -819952 0 0 -819831 0 0 -819711 0 0 -819591 0 0 -819472 0 0 -819353 0 0 -819235 0 0 -819118 0 0 -819001 0 0 -818884 0 0 -818769 0 0 -818654 0 0 -833471 90.0572 0 -833398 91.6189 0 -833324 93.1786 0 -833249 94.7355 0 -833173 96.2891 0 -833095 97.8386 0 -833016 99.3834 0 -832936 100.923 0 -832855 102.457 0 -832772 103.984 0 -832688 105.503 0 -832603 107.015 0 -832517 108.519 0 -832430 110.014 0 -832341 111.498 0 -832251 112.973 0 -832160 114.437 0 -832068 115.889 0 -831975 117.329 0 -831880 118.757 0 -831785 120.171 0 -831688 121.572 0 -831590 122.958 0 -831491 124.329 0 -831391 125.685 0 -831290 127.025 0 -831188 128.349 0 -831085 129.656 0 -830981 130.945 0 -830875 132.216 0 -830769 133.468 0 -830662 134.702 0 -830553 135.916 0 -830444 137.111 0 -830334 138.285 0 -830223 139.438 0 -830111 140.57 0 -829998 141.681 0 -829884 142.77 0 -829770 143.836 0 -829654 144.88 0 -829538 145.901 0 -829421 146.898 0 -829303 147.872 0 -829184 148.822 0 -829065 149.747 0 -828944 150.648 0 -828824 151.524 0 -828702 152.375 0 -828580 153.2 0 -828457 154 0 -828333 154.774 0 -828209 155.522 0 -828085 156.244 0 -827959 156.939 0 -827833 157.608 0 -827707 158.251 0 -827580 158.866 0 -827453 159.455 0 -827325 160.016 0 -827197 160.551 0 -827068 161.058 0 -826939 161.538 0 -826810 161.991 0 -826680 162.417 0 -826550 162.815 0 -826419 163.187 0 -826289 163.531 0 -826158 163.847 0 -826027 164.137 0 -825895 164.4 0 -825763 164.635 0 -825632 164.844 0 -825500 165.026 0 -825368 165.181 0 -825235 165.31 0 -825103 165.412 0 -824971 165.489 0 -824838 165.539 0 -824706 165.563 0 -824573 165.562 0 -824441 165.536 0 -824309 165.484 0 -824176 165.408 0 -824044 165.307 0 -823912 165.182 0 -823780 165.033 0 -823648 164.86 0 -823516 164.664 0 -823384 164.445 0 -823253 164.203 0 -823121 163.939 0 -822990 163.652 0 -822860 163.345 0 -822729 163.016 0 -822599 162.667 0 -822469 162.297 0 -822339 161.907 0 -822210 161.498 0 -822081 161.07 0 -821952 160.624 0 -821824 160.159 0 -821696 159.677 0 -821568 159.178 0 -821441 158.663 0 -821314 158.131 0 -821188 157.584 0 -821062 157.022 0 -820937 156.446 0 -820812 155.856 0 -820687 155.252 0 -820563 154.636 0 -820440 154.008 0 -820317 153.368 0 -820195 152.717 0 -820073 152.055 0 -819951 151.384 0 -819830 150.704 0 -819710 150.015 0 -819590 149.318 0 -819471 148.613 0 -819353 147.902 0 -819235 147.185 0 -819117 146.462 0 -819000 145.734 0 -818884 145.002 0 -818768 144.266 0 -818653 143.527 0 -833474 180.117 0 -833401 183.241 0 -833327 186.362 0 -833252 189.476 0 -833175 192.584 0 -833098 195.684 0 -833019 198.775 0 -832939 201.855 0 -832857 204.923 0 -832775 207.978 0 -832691 211.019 0 -832606 214.044 0 -832520 217.052 0 -832432 220.042 0 -832344 223.013 0 -832254 225.963 0 -832163 228.891 0 -832071 231.797 0 -831977 234.678 0 -831883 237.534 0 -831787 240.364 0 -831691 243.166 0 -831593 245.939 0 -831494 248.683 0 -831394 251.396 0 -831293 254.077 0 -831190 256.725 0 -831087 259.338 0 -830983 261.917 0 -830878 264.46 0 -830771 266.966 0 -830664 269.434 0 -830556 271.863 0 -830446 274.253 0 -830336 276.602 0 -830225 278.909 0 -830113 281.174 0 -830000 283.396 0 -829886 285.575 0 -829772 287.708 0 -829656 289.796 0 -829540 291.838 0 -829423 293.834 0 -829305 295.781 0 -829186 297.681 0 -829066 299.532 0 -828946 301.334 0 -828825 303.087 0 -828704 304.789 0 -828581 306.44 0 -828458 308.04 0 -828335 309.588 0 -828211 311.085 0 -828086 312.529 0 -827961 313.92 0 -827835 315.258 0 -827708 316.543 0 -827581 317.774 0 -827454 318.951 0 -827326 320.075 0 -827198 321.144 0 -827069 322.159 0 -826940 323.119 0 -826811 324.025 0 -826681 324.877 0 -826551 325.674 0 -826420 326.416 0 -826289 327.104 0 -826158 327.737 0 -826027 328.316 0 -825896 328.841 0 -825764 329.312 0 -825632 329.73 0 -825500 330.093 0 -825368 330.404 0 -825236 330.661 0 -825103 330.865 0 -824971 331.018 0 -824838 331.118 0 -824706 331.167 0 -824573 331.164 0 -824441 331.111 0 -824308 331.008 0 -824176 330.854 0 -824044 330.652 0 -823911 330.401 0 -823779 330.102 0 -823647 329.756 0 -823515 329.363 0 -823384 328.924 0 -823252 328.44 0 -823121 327.911 0 -822990 327.339 0 -822859 326.723 0 -822728 326.065 0 -822598 325.365 0 -822468 324.625 0 -822338 323.845 0 -822209 323.026 0 -822080 322.17 0 -821951 321.276 0 -821823 320.346 0 -821695 319.381 0 -821567 318.383 0 -821440 317.351 0 -821313 316.287 0 -821187 315.192 0 -821061 314.067 0 -820936 312.914 0 -820811 311.732 0 -820686 310.524 0 -820562 309.291 0 -820439 308.033 0 -820316 306.752 0 -820193 305.45 0 -820071 304.126 0 -819950 302.783 0 -819829 301.421 0 -819709 300.042 0 -819589 298.647 0 -819470 297.237 0 -819351 295.813 0 -819233 294.378 0 -819116 292.931 0 -818999 291.474 0 -818883 290.009 0 -818767 288.537 0 -818652 287.058 0 -833479 270.181 0 -833406 274.87 0 -833332 279.553 0 -833257 284.228 0 -833180 288.892 0 -833103 293.545 0 -833024 298.183 0 -832944 302.806 0 -832862 307.411 0 -832780 311.996 0 -832696 316.559 0 -832611 321.099 0 -832524 325.614 0 -832437 330.101 0 -832348 334.559 0 -832258 338.987 0 -832167 343.382 0 -832075 347.742 0 -831982 352.067 0 -831887 356.353 0 -831792 360.6 0 -831695 364.805 0 -831597 368.967 0 -831498 373.085 0 -831398 377.156 0 -831297 381.179 0 -831195 385.153 0 -831091 389.076 0 -830987 392.946 0 -830882 396.763 0 -830775 400.523 0 -830668 404.227 0 -830559 407.873 0 -830450 411.459 0 -830340 414.984 0 -830229 418.446 0 -830117 421.846 0 -830004 425.18 0 -829890 428.449 0 -829775 431.651 0 -829659 434.784 0 -829543 437.849 0 -829426 440.843 0 -829308 443.766 0 -829189 446.617 0 -829069 449.395 0 -828949 452.099 0 -828828 454.728 0 -828706 457.282 0 -828584 459.76 0 -828461 462.161 0 -828337 464.484 0 -828213 466.73 0 -828088 468.896 0 -827963 470.984 0 -827837 472.991 0 -827710 474.919 0 -827583 476.766 0 -827456 478.533 0 -827328 480.218 0 -827199 481.822 0 -827071 483.345 0 -826941 484.785 0 -826812 486.144 0 -826682 487.422 0 -826552 488.617 0 -826421 489.73 0 -826290 490.762 0 -826159 491.712 0 -826028 492.58 0 -825896 493.367 0 -825765 494.074 0 -825633 494.699 0 -825501 495.244 0 -825368 495.709 0 -825236 496.094 0 -825104 496.401 0 -824971 496.628 0 -824839 496.778 0 -824706 496.85 0 -824573 496.845 0 -824441 496.765 0 -824308 496.608 0 -824176 496.378 0 -824043 496.073 0 -823911 495.696 0 -823779 495.246 0 -823647 494.726 0 -823515 494.135 0 -823383 493.475 0 -823251 492.747 0 -823120 491.953 0 -822989 491.092 0 -822858 490.167 0 -822727 489.178 0 -822597 488.127 0 -822467 487.015 0 -822337 485.843 0 -822208 484.613 0 -822078 483.327 0 -821950 481.984 0 -821821 480.588 0 -821693 479.139 0 -821566 477.638 0 -821438 476.089 0 -821312 474.491 0 -821185 472.846 0 -821059 471.157 0 -820934 469.425 0 -820809 467.65 0 -820684 465.836 0 -820560 463.984 0 -820437 462.095 0 -820314 460.172 0 -820191 458.215 0 -820069 456.227 0 -819948 454.21 0 -819827 452.165 0 -819707 450.094 0 -819587 447.999 0 -819468 445.882 0 -819349 443.744 0 -819231 441.588 0 -819113 439.416 0 -818997 437.228 0 -818880 435.028 0 -818765 432.817 0 -818649 430.597 0 -833485 360.252 0 -833413 366.509 0 -833339 372.757 0 -833264 378.995 0 -833187 385.219 0 -833109 391.427 0 -833031 397.616 0 -832950 403.785 0 -832869 409.929 0 -832786 416.047 0 -832702 422.136 0 -832617 428.194 0 -832531 434.218 0 -832444 440.205 0 -832355 446.154 0 -832265 452.062 0 -832174 457.926 0 -832082 463.744 0 -831988 469.514 0 -831894 475.234 0 -831798 480.9 0 -831701 486.511 0 -831603 492.065 0 -831504 497.559 0 -831404 502.991 0 -831303 508.359 0 -831200 513.662 0 -831097 518.896 0 -830993 524.06 0 -830887 529.152 0 -830781 534.169 0 -830673 539.111 0 -830565 543.975 0 -830455 548.76 0 -830345 553.463 0 -830234 558.083 0 -830122 562.618 0 -830008 567.067 0 -829894 571.428 0 -829780 575.7 0 -829664 579.88 0 -829547 583.969 0 -829430 587.963 0 -829312 591.863 0 -829193 595.667 0 -829073 599.373 0 -828953 602.98 0 -828832 606.488 0 -828710 609.895 0 -828587 613.2 0 -828464 616.403 0 -828341 619.502 0 -828216 622.497 0 -828091 625.387 0 -827966 628.172 0 -827840 630.85 0 -827713 633.421 0 -827586 635.885 0 -827458 638.241 0 -827330 640.488 0 -827202 642.628 0 -827073 644.658 0 -826943 646.579 0 -826814 648.391 0 -826684 650.094 0 -826553 651.688 0 -826423 653.172 0 -826292 654.548 0 -826161 655.814 0 -826029 656.971 0 -825897 658.02 0 -825766 658.961 0 -825634 659.794 0 -825501 660.52 0 -825369 661.139 0 -825236 661.651 0 -825104 662.058 0 -824971 662.361 0 -824839 662.559 0 -824706 662.653 0 -824573 662.645 0 -824441 662.536 0 -824308 662.326 0 -824175 662.016 0 -824043 661.608 0 -823910 661.103 0 -823778 660.501 0 -823646 659.805 0 -823514 659.015 0 -823382 658.132 0 -823250 657.159 0 -823119 656.097 0 -822988 654.946 0 -822857 653.71 0 -822726 652.388 0 -822595 650.984 0 -822465 649.498 0 -822335 647.933 0 -822206 646.29 0 -822077 644.57 0 -821948 642.777 0 -821819 640.912 0 -821691 638.976 0 -821563 636.972 0 -821436 634.902 0 -821309 632.767 0 -821183 630.571 0 -821057 628.315 0 -820931 626.001 0 -820806 623.631 0 -820682 621.208 0 -820558 618.734 0 -820434 616.212 0 -820311 613.642 0 -820188 611.029 0 -820066 608.374 0 -819945 605.68 0 -819824 602.949 0 -819704 600.183 0 -819584 597.386 0 -819465 594.558 0 -819346 591.704 0 -819228 588.825 0 -819110 585.923 0 -818993 583.002 0 -818877 580.064 0 -818761 577.111 0 -818646 574.146 0 -833494 450.331 0 -833422 458.16 0 -833348 465.979 0 -833272 473.783 0 -833196 481.571 0 -833118 489.339 0 -833039 497.083 0 -832959 504.8 0 -832878 512.488 0 -832795 520.143 0 -832711 527.762 0 -832626 535.341 0 -832539 542.878 0 -832452 550.37 0 -832363 557.813 0 -832273 565.205 0 -832182 572.542 0 -832090 579.822 0 -831996 587.041 0 -831902 594.197 0 -831806 601.287 0 -831709 608.307 0 -831611 615.256 0 -831512 622.13 0 -831412 628.926 0 -831310 635.643 0 -831208 642.276 0 -831104 648.825 0 -831000 655.286 0 -830894 661.656 0 -830788 667.934 0 -830680 674.117 0 -830572 680.202 0 -830462 686.188 0 -830352 692.072 0 -830240 697.852 0 -830128 703.526 0 -830015 709.091 0 -829900 714.547 0 -829785 719.891 0 -829670 725.121 0 -829553 730.235 0 -829435 735.233 0 -829317 740.111 0 -829198 744.869 0 -829078 749.504 0 -828958 754.017 0 -828837 758.405 0 -828715 762.666 0 -828592 766.801 0 -828469 770.807 0 -828345 774.683 0 -828220 778.429 0 -828095 782.044 0 -827969 785.526 0 -827843 788.875 0 -827716 792.091 0 -827589 795.172 0 -827461 798.118 0 -827333 800.928 0 -827205 803.603 0 -827076 806.142 0 -826946 808.544 0 -826816 810.809 0 -826686 812.938 0 -826556 814.93 0 -826425 816.785 0 -826294 818.504 0 -826162 820.086 0 -826031 821.532 0 -825899 822.842 0 -825767 824.017 0 -825635 825.057 0 -825502 825.963 0 -825370 826.734 0 -825237 827.373 0 -825104 827.88 0 -824972 828.256 0 -824839 828.501 0 -824706 828.617 0 -824573 828.604 0 -824440 828.464 0 -824308 828.199 0 -824175 827.809 0 -824042 827.295 0 -823910 826.66 0 -823777 825.904 0 -823645 825.03 0 -823513 824.038 0 -823381 822.931 0 -823249 821.711 0 -823117 820.378 0 -822986 818.936 0 -822855 817.385 0 -822724 815.729 0 -822593 813.968 0 -822463 812.106 0 -822333 810.144 0 -822203 808.084 0 -822074 805.93 0 -821945 803.683 0 -821816 801.345 0 -821688 798.92 0 -821560 796.409 0 -821433 793.815 0 -821306 791.141 0 -821180 788.389 0 -821054 785.562 0 -820928 782.663 0 -820803 779.695 0 -820678 776.66 0 -820554 773.56 0 -820430 770.4 0 -820307 767.182 0 -820185 763.909 0 -820063 760.583 0 -819941 757.208 0 -819820 753.787 0 -819700 750.323 0 -819580 746.819 0 -819461 743.277 0 -819342 739.702 0 -819224 736.096 0 -819106 732.462 0 -818989 728.803 0 -818873 725.123 0 -818757 721.425 0 -818642 717.711 0 -833505 540.423 0 -833432 549.829 0 -833358 559.222 0 -833283 568.598 0 -833207 577.955 0 -833129 587.287 0 -833050 596.591 0 -832970 605.863 0 -832888 615.099 0 -832805 624.295 0 -832721 633.449 0 -832636 642.555 0 -832550 651.61 0 -832462 660.611 0 -832373 669.553 0 -832283 678.433 0 -832192 687.248 0 -832100 695.994 0 -832006 704.667 0 -831911 713.264 0 -831816 721.781 0 -831719 730.215 0 -831620 738.563 0 -831521 746.821 0 -831421 754.986 0 -831319 763.055 0 -831217 771.024 0 -831113 778.891 0 -831009 786.653 0 -830903 794.306 0 -830796 801.847 0 -830689 809.275 0 -830580 816.585 0 -830470 823.775 0 -830360 830.843 0 -830248 837.786 0 -830136 844.602 0 -830022 851.288 0 -829908 857.841 0 -829793 864.26 0 -829677 870.542 0 -829560 876.685 0 -829442 882.687 0 -829324 888.547 0 -829205 894.261 0 -829085 899.829 0 -828964 905.249 0 -828843 910.518 0 -828720 915.637 0 -828598 920.602 0 -828474 925.413 0 -828350 930.068 0 -828225 934.566 0 -828100 938.907 0 -827974 943.088 0 -827848 947.11 0 -827721 950.97 0 -827593 954.67 0 -827465 958.206 0 -827337 961.581 0 -827208 964.791 0 -827079 967.839 0 -826949 970.722 0 -826819 973.441 0 -826689 975.995 0 -826558 978.386 0 -826427 980.611 0 -826296 982.673 0 -826164 984.571 0 -826033 986.305 0 -825901 987.876 0 -825768 989.284 0 -825636 990.53 0 -825503 991.614 0 -825371 992.538 0 -825238 993.302 0 -825105 993.907 0 -824972 994.355 0 -824839 994.645 0 -824706 994.781 0 -824573 994.762 0 -824440 994.59 0 -824307 994.267 0 -824174 993.794 0 -824041 993.173 0 -823909 992.405 0 -823776 991.493 0 -823644 990.438 0 -823511 989.242 0 -823379 987.908 0 -823247 986.437 0 -823115 984.831 0 -822984 983.094 0 -822853 981.226 0 -822722 979.231 0 -822591 977.111 0 -822460 974.869 0 -822330 972.507 0 -822200 970.028 0 -822071 967.435 0 -821942 964.73 0 -821813 961.916 0 -821685 958.997 0 -821557 955.975 0 -821429 952.854 0 -821302 949.636 0 -821176 946.324 0 -821050 942.923 0 -820924 939.434 0 -820799 935.863 0 -820674 932.211 0 -820550 928.482 0 -820426 924.68 0 -820303 920.808 0 -820180 916.87 0 -820058 912.869 0 -819936 908.809 0 -819815 904.693 0 -819695 900.526 0 -819575 896.31 0 -819456 892.05 0 -819337 887.748 0 -819219 883.41 0 -819101 879.039 0 -818984 874.638 0 -818868 870.211 0 -818752 865.762 0 -818637 861.295 0 -833518 630.528 0 -833445 641.516 0 -833371 652.49 0 -833296 663.445 0 -833219 674.376 0 -833141 685.279 0 -833062 696.148 0 -832982 706.981 0 -832901 717.771 0 -832818 728.516 0 -832734 739.209 0 -832649 749.848 0 -832562 760.427 0 -832474 770.942 0 -832385 781.389 0 -832295 791.764 0 -832204 802.062 0 -832112 812.28 0 -832018 822.412 0 -831923 832.455 0 -831827 842.406 0 -831730 852.259 0 -831632 862.011 0 -831532 871.658 0 -831432 881.197 0 -831330 890.623 0 -831228 899.933 0 -831124 909.123 0 -831019 918.189 0 -830913 927.129 0 -830806 935.939 0 -830699 944.615 0 -830590 953.155 0 -830480 961.554 0 -830369 969.81 0 -830257 977.92 0 -830145 985.881 0 -830031 993.691 0 -829917 1001.35 0 -829801 1008.84 0 -829685 1016.18 0 -829568 1023.36 0 -829450 1030.37 0 -829332 1037.21 0 -829212 1043.88 0 -829092 1050.39 0 -828971 1056.71 0 -828850 1062.87 0 -828727 1068.85 0 -828604 1074.64 0 -828481 1080.26 0 -828356 1085.7 0 -828231 1090.95 0 -828106 1096.02 0 -827980 1100.9 0 -827853 1105.6 0 -827726 1110.1 0 -827598 1114.42 0 -827470 1118.55 0 -827342 1122.49 0 -827212 1126.24 0 -827083 1129.79 0 -826953 1133.16 0 -826823 1136.33 0 -826692 1139.31 0 -826561 1142.1 0 -826430 1144.69 0 -826299 1147.1 0 -826167 1149.31 0 -826035 1151.33 0 -825903 1153.16 0 -825770 1154.8 0 -825638 1156.25 0 -825505 1157.52 0 -825372 1158.59 0 -825239 1159.48 0 -825106 1160.18 0 -824973 1160.7 0 -824839 1161.03 0 -824706 1161.19 0 -824573 1161.16 0 -824440 1160.95 0 -824307 1160.57 0 -824173 1160.01 0 -824040 1159.28 0 -823907 1158.38 0 -823775 1157.3 0 -823642 1156.07 0 -823509 1154.66 0 -823377 1153.1 0 -823245 1151.37 0 -823113 1149.49 0 -822981 1147.45 0 -822850 1145.27 0 -822719 1142.93 0 -822588 1140.45 0 -822457 1137.82 0 -822327 1135.05 0 -822197 1132.15 0 -822067 1129.11 0 -821938 1125.95 0 -821809 1122.65 0 -821681 1119.23 0 -821553 1115.7 0 -821425 1112.04 0 -821298 1108.28 0 -821171 1104.4 0 -821045 1100.42 0 -820919 1096.34 0 -820794 1092.16 0 -820669 1087.88 0 -820545 1083.52 0 -820421 1079.07 0 -820297 1074.54 0 -820175 1069.93 0 -820053 1065.25 0 -819931 1060.5 0 -819810 1055.68 0 -819689 1050.8 0 -819569 1045.87 0 -819450 1040.89 0 -819331 1035.85 0 -819213 1030.78 0 -819095 1025.66 0 -818978 1020.51 0 -818862 1015.33 0 -818746 1010.13 0 -818631 1004.9 0 -833533 720.649 0 -833460 733.227 0 -833386 745.789 0 -833310 758.329 0 -833234 770.842 0 -833156 783.322 0 -833077 795.764 0 -832997 808.164 0 -832915 820.516 0 -832832 832.815 0 -832748 845.056 0 -832663 857.234 0 -832576 869.343 0 -832488 881.38 0 -832399 893.339 0 -832309 905.214 0 -832218 917.002 0 -832125 928.698 0 -832031 940.296 0 -831936 951.792 0 -831840 963.182 0 -831743 974.46 0 -831645 985.622 0 -831545 996.665 0 -831445 1007.58 0 -831343 1018.37 0 -831240 1029.03 0 -831136 1039.55 0 -831031 1049.92 0 -830925 1060.16 0 -830818 1070.24 0 -830710 1080.17 0 -830601 1089.94 0 -830491 1099.56 0 -830380 1109.01 0 -830268 1118.29 0 -830155 1127.4 0 -830042 1136.34 0 -829927 1145.1 0 -829811 1153.68 0 -829695 1162.07 0 -829578 1170.28 0 -829460 1178.3 0 -829341 1186.14 0 -829221 1193.77 0 -829101 1201.21 0 -828980 1208.46 0 -828858 1215.5 0 -828735 1222.33 0 -828612 1228.97 0 -828488 1235.4 0 -828363 1241.61 0 -828238 1247.62 0 -828112 1253.42 0 -827986 1259 0 -827859 1264.37 0 -827732 1269.53 0 -827604 1274.47 0 -827476 1279.19 0 -827347 1283.69 0 -827217 1287.98 0 -827088 1292.04 0 -826958 1295.89 0 -826827 1299.52 0 -826696 1302.92 0 -826565 1306.11 0 -826433 1309.08 0 -826302 1311.82 0 -826170 1314.35 0 -826037 1316.66 0 -825905 1318.75 0 -825772 1320.62 0 -825639 1322.27 0 -825506 1323.71 0 -825373 1324.94 0 -825240 1325.95 0 -825107 1326.74 0 -824973 1327.33 0 -824840 1327.7 0 -824706 1327.87 0 -824573 1327.83 0 -824439 1327.59 0 -824306 1327.14 0 -824173 1326.5 0 -824039 1325.65 0 -823906 1324.61 0 -823773 1323.38 0 -823640 1321.95 0 -823507 1320.34 0 -823375 1318.54 0 -823243 1316.56 0 -823110 1314.39 0 -822979 1312.05 0 -822847 1309.54 0 -822715 1306.86 0 -822584 1304 0 -822454 1300.99 0 -822323 1297.81 0 -822193 1294.48 0 -822063 1291 0 -821934 1287.36 0 -821805 1283.58 0 -821676 1279.66 0 -821548 1275.6 0 -821420 1271.41 0 -821293 1267.09 0 -821166 1262.64 0 -821040 1258.07 0 -820914 1253.39 0 -820788 1248.6 0 -820663 1243.69 0 -820539 1238.69 0 -820415 1233.58 0 -820291 1228.39 0 -820168 1223.1 0 -820046 1217.73 0 -819924 1212.28 0 -819803 1206.76 0 -819683 1201.17 0 -819563 1195.51 0 -819443 1189.8 0 -819324 1184.02 0 -819206 1178.2 0 -819088 1172.34 0 -818971 1166.43 0 -818855 1160.49 0 -818739 1154.53 0 -818624 1148.53 0 -833549 810.788 0 -833476 824.965 0 -833402 839.122 0 -833327 853.255 0 -833251 867.358 0 -833173 881.423 0 -833094 895.447 0 -833013 909.422 0 -832931 923.343 0 -832849 937.205 0 -832764 951.001 0 -832679 964.726 0 -832592 978.374 0 -832504 991.94 0 -832415 1005.42 0 -832325 1018.8 0 -832233 1032.09 0 -832141 1045.27 0 -832047 1058.34 0 -831952 1071.3 0 -831855 1084.13 0 -831758 1096.84 0 -831659 1109.42 0 -831560 1121.87 0 -831459 1134.17 0 -831357 1146.33 0 -831254 1158.34 0 -831150 1170.19 0 -831045 1181.89 0 -830939 1193.42 0 -830831 1204.78 0 -830723 1215.97 0 -830614 1226.98 0 -830504 1237.81 0 -830393 1248.46 0 -830280 1258.92 0 -830167 1269.19 0 -830053 1279.26 0 -829938 1289.13 0 -829823 1298.79 0 -829706 1308.25 0 -829588 1317.51 0 -829470 1326.54 0 -829351 1335.37 0 -829231 1343.97 0 -829110 1352.35 0 -828989 1360.51 0 -828867 1368.44 0 -828744 1376.14 0 -828621 1383.62 0 -828496 1390.85 0 -828372 1397.86 0 -828246 1404.63 0 -828120 1411.15 0 -827993 1417.44 0 -827866 1423.49 0 -827739 1429.3 0 -827610 1434.86 0 -827482 1440.17 0 -827353 1445.24 0 -827223 1450.06 0 -827093 1454.64 0 -826962 1458.97 0 -826832 1463.05 0 -826701 1466.88 0 -826569 1470.47 0 -826437 1473.8 0 -826305 1476.89 0 -826173 1479.73 0 -826040 1482.33 0 -825908 1484.67 0 -825775 1486.78 0 -825641 1488.63 0 -825508 1490.25 0 -825375 1491.62 0 -825241 1492.75 0 -825107 1493.64 0 -824974 1494.29 0 -824840 1494.7 0 -824706 1494.88 0 -824573 1494.83 0 -824439 1494.54 0 -824305 1494.03 0 -824172 1493.29 0 -824038 1492.33 0 -823905 1491.15 0 -823771 1489.75 0 -823638 1488.13 0 -823505 1486.3 0 -823372 1484.26 0 -823240 1482.02 0 -823107 1479.57 0 -822975 1476.92 0 -822843 1474.08 0 -822712 1471.04 0 -822580 1467.82 0 -822449 1464.41 0 -822319 1460.82 0 -822188 1457.05 0 -822059 1453.11 0 -821929 1449 0 -821800 1444.73 0 -821671 1440.3 0 -821542 1435.71 0 -821415 1430.98 0 -821287 1426.09 0 -821160 1421.07 0 -821033 1415.91 0 -820907 1410.62 0 -820782 1405.2 0 -820657 1399.67 0 -820532 1394.01 0 -820408 1388.25 0 -820284 1382.38 0 -820161 1376.41 0 -820039 1370.34 0 -819917 1364.19 0 -819796 1357.95 0 -819675 1351.64 0 -819555 1345.25 0 -819435 1338.79 0 -819317 1332.27 0 -819198 1325.7 0 -819080 1319.08 0 -818963 1312.41 0 -818847 1305.7 0 -818731 1298.96 0 -818616 1292.2 0 -833568 900.947 0 -833495 916.731 0 -833421 932.494 0 -833346 948.23 0 -833269 963.931 0 -833191 979.591 0 -833112 995.205 0 -833032 1010.76 0 -832950 1026.26 0 -832867 1041.7 0 -832783 1057.06 0 -832697 1072.34 0 -832610 1087.53 0 -832522 1102.64 0 -832433 1117.64 0 -832343 1132.54 0 -832251 1147.34 0 -832158 1162.01 0 -832064 1176.56 0 -831969 1190.99 0 -831872 1205.28 0 -831775 1219.43 0 -831676 1233.43 0 -831576 1247.29 0 -831475 1260.98 0 -831373 1274.52 0 -831270 1287.89 0 -831166 1301.09 0 -831060 1314.1 0 -830954 1326.94 0 -830846 1339.59 0 -830738 1352.04 0 -830628 1364.3 0 -830518 1376.36 0 -830406 1388.21 0 -830294 1399.85 0 -830181 1411.28 0 -830066 1422.49 0 -829951 1433.48 0 -829835 1444.24 0 -829718 1454.76 0 -829601 1465.06 0 -829482 1475.12 0 -829363 1484.94 0 -829242 1494.51 0 -829121 1503.84 0 -829000 1512.92 0 -828877 1521.74 0 -828754 1530.31 0 -828630 1538.63 0 -828506 1546.68 0 -828381 1554.47 0 -828255 1562 0 -828129 1569.26 0 -828002 1576.26 0 -827874 1582.99 0 -827746 1589.44 0 -827618 1595.63 0 -827489 1601.54 0 -827359 1607.17 0 -827229 1612.54 0 -827099 1617.62 0 -826968 1622.44 0 -826837 1626.97 0 -826705 1631.23 0 -826574 1635.21 0 -826442 1638.92 0 -826309 1642.35 0 -826176 1645.5 0 -826044 1648.38 0 -825910 1650.98 0 -825777 1653.31 0 -825644 1655.37 0 -825510 1657.16 0 -825376 1658.67 0 -825242 1659.92 0 -825108 1660.9 0 -824974 1661.61 0 -824840 1662.06 0 -824706 1662.25 0 -824572 1662.18 0 -824438 1661.86 0 -824304 1661.27 0 -824170 1660.44 0 -824037 1659.36 0 -823903 1658.03 0 -823769 1656.46 0 -823636 1654.64 0 -823503 1652.59 0 -823370 1650.31 0 -823237 1647.8 0 -823104 1645.06 0 -822972 1642.1 0 -822840 1638.92 0 -822708 1635.53 0 -822576 1631.92 0 -822445 1628.11 0 -822314 1624.1 0 -822183 1619.89 0 -822053 1615.49 0 -821923 1610.9 0 -821794 1606.13 0 -821665 1601.18 0 -821536 1596.06 0 -821408 1590.77 0 -821280 1585.32 0 -821153 1579.71 0 -821026 1573.95 0 -820900 1568.05 0 -820774 1562 0 -820649 1555.82 0 -820524 1549.51 0 -820400 1543.07 0 -820277 1536.52 0 -820153 1529.86 0 -820031 1523.09 0 -819909 1516.22 0 -819788 1509.26 0 -819667 1502.22 0 -819547 1495.09 0 -819427 1487.88 0 -819308 1480.61 0 -819189 1473.28 0 -819072 1465.89 0 -818955 1458.45 0 -818838 1450.96 0 -818722 1443.44 0 -818607 1435.89 0 -833589 991.13 0 -833516 1008.53 0 -833442 1025.91 0 -833366 1043.26 0 -833290 1060.57 0 -833212 1077.83 0 -833132 1095.05 0 -833052 1112.2 0 -832970 1129.29 0 -832887 1146.3 0 -832803 1163.24 0 -832717 1180.08 0 -832630 1196.84 0 -832542 1213.49 0 -832453 1230.03 0 -832362 1246.46 0 -832270 1262.76 0 -832177 1278.94 0 -832083 1294.99 0 -831988 1310.89 0 -831891 1326.64 0 -831793 1342.24 0 -831694 1357.68 0 -831594 1372.95 0 -831493 1388.05 0 -831391 1402.97 0 -831287 1417.71 0 -831183 1432.26 0 -831077 1446.61 0 -830971 1460.76 0 -830863 1474.7 0 -830754 1488.43 0 -830644 1501.94 0 -830534 1515.23 0 -830422 1528.29 0 -830309 1541.12 0 -830196 1553.72 0 -830081 1566.07 0 -829966 1578.18 0 -829849 1590.04 0 -829732 1601.64 0 -829614 1612.99 0 -829495 1624.07 0 -829375 1634.89 0 -829255 1645.44 0 -829133 1655.72 0 -829011 1665.72 0 -828889 1675.44 0 -828765 1684.89 0 -828641 1694.04 0 -828516 1702.92 0 -828391 1711.5 0 -828265 1719.79 0 -828138 1727.79 0 -828011 1735.5 0 -827883 1742.9 0 -827754 1750.01 0 -827625 1756.82 0 -827496 1763.33 0 -827366 1769.54 0 -827236 1775.44 0 -827105 1781.04 0 -826974 1786.33 0 -826843 1791.32 0 -826711 1796.01 0 -826579 1800.39 0 -826446 1804.46 0 -826313 1808.23 0 -826180 1811.7 0 -826047 1814.86 0 -825914 1817.72 0 -825780 1820.28 0 -825646 1822.53 0 -825512 1824.49 0 -825378 1826.15 0 -825244 1827.51 0 -825110 1828.58 0 -824975 1829.35 0 -824841 1829.84 0 -824706 1830.03 0 -824572 1829.94 0 -824438 1829.57 0 -824303 1828.91 0 -824169 1827.98 0 -824035 1826.77 0 -823901 1825.29 0 -823767 1823.54 0 -823633 1821.53 0 -823500 1819.25 0 -823366 1816.72 0 -823233 1813.93 0 -823100 1810.9 0 -822968 1807.62 0 -822835 1804.09 0 -822703 1800.34 0 -822571 1796.35 0 -822440 1792.13 0 -822309 1787.69 0 -822178 1783.03 0 -822047 1778.16 0 -821917 1773.09 0 -821788 1767.81 0 -821658 1762.33 0 -821529 1756.67 0 -821401 1750.82 0 -821273 1744.79 0 -821146 1738.59 0 -821019 1732.22 0 -820892 1725.69 0 -820766 1719.01 0 -820641 1712.17 0 -820516 1705.2 0 -820392 1698.08 0 -820268 1690.84 0 -820145 1683.48 0 -820022 1676 0 -819900 1668.41 0 -819778 1660.71 0 -819657 1652.92 0 -819537 1645.04 0 -819417 1637.08 0 -819298 1629.04 0 -819180 1620.94 0 -819062 1612.77 0 -818945 1604.55 0 -818828 1596.28 0 -818712 1587.97 0 -818597 1579.63 0 -833612 1081.34 0 -833539 1100.37 0 -833465 1119.37 0 -833389 1138.34 0 -833312 1157.27 0 -833234 1176.16 0 -833155 1194.98 0 -833074 1213.74 0 -832992 1232.43 0 -832909 1251.03 0 -832825 1269.55 0 -832739 1287.98 0 -832652 1306.3 0 -832564 1324.51 0 -832474 1342.6 0 -832383 1360.56 0 -832292 1378.39 0 -832198 1396.09 0 -832104 1413.63 0 -832008 1431.02 0 -831912 1448.25 0 -831814 1465.3 0 -831714 1482.19 0 -831614 1498.89 0 -831513 1515.4 0 -831410 1531.71 0 -831306 1547.83 0 -831202 1563.73 0 -831096 1579.42 0 -830989 1594.9 0 -830881 1610.14 0 -830772 1625.15 0 -830662 1639.92 0 -830551 1654.45 0 -830439 1668.74 0 -830326 1682.76 0 -830212 1696.53 0 -830097 1710.04 0 -829981 1723.27 0 -829865 1736.23 0 -829747 1748.92 0 -829629 1761.32 0 -829509 1773.44 0 -829389 1785.26 0 -829268 1796.79 0 -829147 1808.02 0 -829024 1818.96 0 -828901 1829.58 0 -828777 1839.9 0 -828653 1849.91 0 -828528 1859.6 0 -828402 1868.98 0 -828275 1878.04 0 -828148 1886.78 0 -828020 1895.2 0 -827892 1903.29 0 -827763 1911.05 0 -827634 1918.49 0 -827504 1925.6 0 -827374 1932.37 0 -827243 1938.82 0 -827112 1944.93 0 -826981 1950.71 0 -826849 1956.15 0 -826717 1961.26 0 -826584 1966.04 0 -826451 1970.48 0 -826318 1974.59 0 -826185 1978.37 0 -826051 1981.82 0 -825917 1984.93 0 -825783 1987.71 0 -825649 1990.16 0 -825515 1992.29 0 -825380 1994.09 0 -825245 1995.56 0 -825111 1996.72 0 -824976 1997.55 0 -824841 1998.06 0 -824707 1998.26 0 -824572 1998.14 0 -824437 1997.71 0 -824302 1996.98 0 -824168 1995.94 0 -824033 1994.6 0 -823899 1992.97 0 -823765 1991.04 0 -823631 1988.82 0 -823497 1986.31 0 -823363 1983.52 0 -823229 1980.46 0 -823096 1977.12 0 -822963 1973.51 0 -822830 1969.64 0 -822698 1965.51 0 -822566 1961.13 0 -822434 1956.49 0 -822303 1951.62 0 -822171 1946.5 0 -822041 1941.16 0 -821910 1935.58 0 -821780 1929.79 0 -821651 1923.78 0 -821522 1917.57 0 -821393 1911.15 0 -821265 1904.53 0 -821137 1897.73 0 -821010 1890.74 0 -820884 1883.58 0 -820757 1876.25 0 -820632 1868.75 0 -820507 1861.1 0 -820382 1853.3 0 -820258 1845.35 0 -820135 1837.28 0 -820012 1829.07 0 -819890 1820.75 0 -819768 1812.31 0 -819647 1803.77 0 -819527 1795.13 0 -819407 1786.4 0 -819288 1777.59 0 -819169 1768.7 0 -819051 1759.74 0 -818934 1750.73 0 -818817 1741.66 0 -818701 1732.55 0 -818586 1723.4 0 -833636 1171.57 0 -833563 1192.24 0 -833489 1212.89 0 -833414 1233.49 0 -833337 1254.06 0 -833259 1274.57 0 -833179 1295.02 0 -833099 1315.39 0 -833017 1335.69 0 -832933 1355.9 0 -832849 1376.02 0 -832763 1396.03 0 -832676 1415.93 0 -832587 1435.71 0 -832498 1455.36 0 -832407 1474.88 0 -832315 1494.24 0 -832221 1513.46 0 -832127 1532.52 0 -832031 1551.4 0 -831934 1570.12 0 -831836 1588.64 0 -831736 1606.98 0 -831636 1625.12 0 -831534 1643.05 0 -831431 1660.77 0 -831327 1678.27 0 -831222 1695.55 0 -831116 1712.59 0 -831009 1729.39 0 -830901 1745.94 0 -830791 1762.25 0 -830681 1778.29 0 -830570 1794.07 0 -830457 1809.58 0 -830344 1824.81 0 -830230 1839.76 0 -830114 1854.42 0 -829998 1868.79 0 -829881 1882.87 0 -829763 1896.64 0 -829645 1910.1 0 -829