<?xml version="1.0"?> 
<VTKFile type="StructuredGrid" version="0.1"> 
<StructuredGrid WholeExtent="0 127 0 127 0 0"> 
<Piece Extent="0 127 0 127 0 0"> 
<PointData>
<DataArray type="Float32" Name="|E|" format="ascii" NumberOfComponents="3"> 
1.04904e-05 2.5049e+07 0 -1.98273e-06 8.82772e+06 0 5.62286e-08 3.93282e+06 0 -3.20491e-07 3.10768e+06 0 4.63566e-07 3.29508e+06 0 1.43191e-07 3.45336e+06 0 1.4808e-07 3.38561e+06 0 -2.37022e-07 3.1654e+06 0 -1.00397e-06 2.89938e+06 0 1.40257e-06 2.6545e+06 0 -8.56817e-07 2.45456e+06 0 -1.85333e-07 2.29714e+06 0 -5.92321e-07 2.16996e+06 0 9.574e-07 2.06082e+06 0 -9.38773e-07 1.96141e+06 0 3.18512e-07 1.86754e+06 0 3.1665e-08 1.7778e+06 0 1.19954e-06 1.69209e+06 0 -1.51992e-06 1.61063e+06 0 7.33882e-07 1.53353e+06 0 -5.43892e-07 1.46062e+06 0 1.50874e-06 1.39155e+06 0 -2.35066e-06 1.32592e+06 0 1.52364e-06 1.26336e+06 0 -1.17719e-06 1.20354e+06 0 1.3262e-06 1.14624e+06 0 -1.79559e-06 1.09127e+06 0 2.05636e-06 1.03849e+06 0 -1.56462e-06 987764 0 2.04891e-06 938993 0 -2.69711e-06 892073 0 2.12342e-06 846914 0 -1.08778e-06 803434 0 6.85453e-07 761560 0 -8.49366e-07 721231 0 2.68221e-07 682388 0 -1.78814e-07 644982 0 -1.49012e-08 608969 0 1.49012e-07 574308 0 -2.23517e-07 540963 0 -1.78814e-07 508902 0 4.02331e-07 478094 0 -2.38419e-07 448511 0 -4.47035e-08 420129 0 -2.38419e-07 392922 0 2.98023e-07 366868 0 5.96046e-08 341947 0 1.19209e-07 318137 0 -3.57628e-07 295419 0 2.38419e-07 273772 0 -2.38419e-07 253178 0 2.98023e-08 233616 0 -5.96046e-08 215067 0 -1.19209e-07 197511 0 5.96046e-07 180927 0 3.27826e-07 165295 0 -2.38419e-07 150590 0 1.04308e-06 136792 0 -6.85453e-07 123877 0 1.07288e-06 111819 0 -6.85453e-07 100592 0 8.34465e-07 90171.8 0 -9.23872e-07 80528.7 0 3.57628e-07 71634.7 0 -6.25849e-07 63459.9 0 -3.57628e-07 55974 0 2.98023e-08 49145.6 0 1.78814e-07 42942.5 0 1.78814e-07 37332 0 -1.19209e-07 32281 0 1.19209e-07 27755.8 0 -1.19209e-07 23722.7 0 2.98023e-07 20147.9 0 -5.96046e-08 16997.7 0 5.96046e-08 14238.9 0 6.55651e-07 11838.6 0 -6.55651e-07 9764.87 0 5.96046e-07 7986.55 0 -9.53674e-07 6473.6 0 6.55651e-07 5197.27 0 -5.96046e-07 4130.23 0 2.98023e-07 3246.73 0 0 2522.71 0 -6.55651e-07 1935.91 0 3.57628e-07 1465.93 0 1.78814e-07 1094.28 0 -5.96046e-08 804.398 0 -1.2517e-06 581.603 0 2.02656e-06 413.079 0 -3.63588e-06 287.785 0 4.17233e-06 196.355 0 -4.29153e-06 130.975 0 3.51667e-06 85.2408 0 -3.51667e-06 54.0085 0 2.6226e-06 33.2317 0 -1.90735e-06 19.8016 0 1.07288e-06 11.3899 0 -8.34465e-07 6.30116 0 9.53674e-07 3.33864 0 -4.76837e-07 1.68588 0 1.78814e-06 0.806565 0 -1.90735e-06 0.363033 0 2.38419e-06 0.152355 0 -2.02656e-06 0.0589693 0 1.66893e-06 0.0207295 0 -2.02656e-06 0.00644541 0 1.43051e-06 0.00172615 0 -1.43051e-06 0.000354767 0 1.43051e-06 5.76973e-05 0 -1.19209e-06 1.71661e-05 0 7.15256e-07 1.57356e-05 0 -5.96046e-07 -1.43051e-05 0 -3.57628e-07 -2.86102e-05 0 7.15256e-07 1.90735e-06 0 -3.57628e-07 1.23978e-05 0 3.57628e-07 -3.24249e-05 0 -5.96046e-07 -2.28882e-05 0 9.53674e-07 -8.58307e-06 0 -2.38419e-07 -2.67029e-05 0 -1.19209e-07 -3.62396e-05 0 -2.38419e-07 1.14441e-05 0 4.76837e-07 -5.72205e-05 0 -1.19209e-07 2.47955e-05 0 0 3.8147e-06 0 1.19209e-07 -3.43323e-05 0 -4.76837e-07 0.000274658 0 0 -0.000320435 0 -1.90735e-06 1.00663e+08 0 -4.00901e+06 3.14102e+06 0 -4.79269e+06 3.59798e+06 0 -3.97607e+06 4.47173e+06 0 -2.81472e+06 4.96271e+06 0 -1.82887e+06 4.97283e+06 0 -1.14332e+06 4.67454e+06 0 -723724 4.24964e+06 0 -488823 3.82236e+06 0 -363903 3.45102e+06 0 -296248 3.14959e+06 0 -254979 2.90921e+06 0 -224822 2.71396e+06 0 -199660 2.54917e+06 0 -177731 2.40441e+06 0 -158797 2.27338e+06 0 -142824 2.15276e+06 0 -129569 2.04088e+06 0 -118598 1.93678e+06 0 -109412 1.83974e+06 0 -101567 1.74905e+06 0 -94724.2 1.664e+06 0 -88651.3 1.58393e+06 0 -83197.8 1.50824e+06 0 -78264.5 1.43644e+06 0 -73780.6 1.36815e+06 0 -69688.5 1.30304e+06 0 -65937.8 1.24084e+06 0 -62483.5 1.18133e+06 0 -59285.9 1.12433e+06 0 -56311.3 1.06965e+06 0 -53531.1 1.01716e+06 0 -50922 966724 0 -48464.5 918228 0 -46142 871572 0 -43940.5 826668 0 -41848.1 783440 0 -39854.3 741819 0 -37949.9 701744 0 -36127.1 663162 0 -34379.2 626025 0 -32700.2 590288 0 -31085.1 555914 0 -29529.5 522867 0 -28029.7 491115 0 -26582.4 460628 0 -25184.8 431381 0 -23834.6 403347 0 -22529.8 376504 0 -21268.7 350829 0 -20050 326300 0 -18872.4 302897 0 -17735.1 280600 0 -16637.4 259389 0 -15578.7 239244 0 -14558.4 220144 0 -13576.4 202069 0 -12632.3 184998 0 -11726 168909 0 -10857.5 153780 0 -10026.5 139587 0 -9233.14 126306 0 -8477.26 113911 0 -7758.8 102377 0 -7077.64 91676.3 0 -6433.62 81779.5 0 -5826.5 72657.3 0 -5255.99 64279.1 0 -4721.7 56613.4 0 -4223.13 49627.4 0 -3759.71 43288 0 -3330.74 37561 0 -2935.41 32411.9 0 -2572.79 27805.6 0 -2241.85 23707 0 -1941.42 20080.7 0 -1670.25 16891.6 0 -1426.97 14105 0 -1210.11 11686.6 0 -1018.16 9602.97 0 -849.482 7821.61 0 -702.435 6311.2 0 -575.317 5041.77 0 -466.418 3984.9 0 -374.023 3113.83 0 -296.442 2403.62 0 -232.022 1831.26 0 -179.168 1375.7 0 -136.36 1017.96 0 -102.17 741.077 0 -75.2697 530.098 0 -54.4482 372.039 0 -38.6142 255.781 0 -26.8022 171.959 0 -18.1731 112.823 0 -12.0116 72.0794 0 -7.7205 44.728 0 -4.81282 26.8821 0 -2.90096 15.5976 0 -1.68491 8.70457 0 -0.939283 4.65243 0 -0.500323 2.36975 0 -0.253334 1.14365 0 -0.121206 0.519355 0 -0.0544128 0.220091 0 -0.0227275 0.0861805 0 -0.00874852 0.0307826 0 -0.00306627 0.00985899 0 -0.000963179 0.00277533 0 -0.000266807 0.00065037 0 -5.99243e-05 0.000127846 0 -9.51843e-06 2.94616e-05 0 -2.49596e-06 1.35088e-05 0 -3.81131e-06 4.9796e-06 0 2.85181e-07 2.69763e-07 0 1.7104e-06 4.16381e-06 0 -1.69711e-07 4.6589e-06 0 -1.73446e-06 4.04951e-07 0 -4.35346e-07 -6.27541e-06 0 5.71576e-07 -1.27073e-05 0 1.08951e-06 -7.0276e-06 0 3.553e-07 2.50162e-06 0 1.26943e-08 2.98393e-05 0 -3.86545e-07 -7.01731e-06 0 -6.82656e-07 -2.00369e-05 0 -1.54195e-07 -5.699e-06 0 8.8635e-07 -1.36463e-05 0 -3.63383e-07 4.0079e-05 0 -4.68171e-05 -0.0033076 0 -3.77096e+06 1.35022e+06 0 -3.30077e+06 2.54512e+06 0 -3.64983e+06 2.68866e+06 0 -3.82124e+06 2.93063e+06 0 -3.60464e+06 3.35919e+06 0 -3.11159e+06 3.77573e+06 0 -2.51323e+06 4.03308e+06 0 -1.9421e+06 4.08878e+06 0 -1.46765e+06 3.97763e+06 0 -1.10865e+06 3.76356e+06 0 -853552 3.50716e+06 0 -678554 3.25066e+06 0 -559127 3.01629e+06 0 -475504 2.81115e+06 0 -414020 2.63362e+06 0 -366264 2.47857e+06 0 -327503 2.34059e+06 0 -295194 2.2154e+06 0 -267915 2.10012e+06 0 -244746 1.99298e+06 0 -224965 1.8929e+06 0 -207956 1.7991e+06 0 -193189 1.71099e+06 0 -180225 1.628e+06 0 -168719 1.5496e+06 0 -158409 1.47532e+06 0 -149095 1.40474e+06 0 -140625 1.3375e+06 0 -132879 1.27333e+06 0 -125760 1.21197e+06 0 -119184 1.15321e+06 0 -113081 1.09687e+06 0 -107393 1.04281e+06 0 -102068 990881 0 -97064.7 940968 0 -92346.2 892963 0 -87882 846774 0 -83645.8 802320 0 -79615.3 759527 0 -75770.8 718331 0 -72095.8 678677 0 -68575.7 640513 0 -65197.9 603793 0 -61951.7 568478 0 -58827.6 534530 0 -55817.7 501916 0 -52915.1 470605 0 -50113.9 440570 0 -47409.1 411785 0 -44796.3 384225 0 -42272.2 357868 0 -39833.7 332691 0 -37478.3 308674 0 -35204.2 285796 0 -33009.7 264036 0 -30893.7 243375 0 -28855.1 223791 0 -26893.4 205263 0 -25007.9 187771 0 -23198.5 171291 0 -21464.8 155802 0 -19806.7 141278 0 -18224.1 127695 0 -16716.9 115027 0 -15284.9 103247 0 -13928 92325.9 0 -12645.7 82234.7 0 -11437.7 72942.5 0 -10303.4 64417.6 0 -9241.97 56627.1 0 -8252.44 49537 0 -7333.64 43112.7 0 -6484.15 37318.5 0 -5702.31 32118.4 0 -4986.25 27475.8 0 -4333.82 23353.9 0 -3742.66 19715.9 0 -3210.17 16525 0 -2733.56 13745 0 -2309.82 11340.1 0 -1935.8 9275.32 0 -1608.19 7516.96 0 -1323.59 6032.4 0 -1078.52 4790.53 0 -869.483 3761.91 0 -692.974 2918.92 0 -545.55 2235.88 0 -423.853 1689.17 0 -324.656 1257.32 0 -244.893 921.011 0 -181.695 663.097 0 -132.415 468.567 0 -94.6462 324.464 0 -66.2395 219.787 0 -45.3074 145.355 0 -30.224 93.6472 0 -19.6178 58.6301 0 -12.357 35.5703 0 -7.53094 20.8453 0 -4.42573 11.7567 0 -2.4983 6.35465 0 -1.34869 3.27557 0 -0.692751 1.6009 0 -0.336584 0.736803 0 -0.153633 0.316697 0 -0.065347 0.125853 0 -0.0256572 0.0456401 0 -0.00919124 0.0148549 0 -0.00296317 0.00423801 0 -0.000845384 0.00101667 0 -0.000204563 0.000193521 0 -3.71299e-05 3.13291e-05 0 -5.86894e-06 7.903e-06 0 -6.0171e-06 -2.26879e-06 0 -1.32434e-06 3.18306e-06 0 2.02747e-06 2.26416e-06 0 2.45687e-07 6.90459e-07 0 -1.65882e-06 2.96056e-06 0 -2.02608e-06 -1.01932e-05 0 1.96305e-08 -1.3934e-05 0 2.18468e-06 -7.67875e-06 0 1.59978e-06 1.89012e-06 0 -2.47259e-07 1.06758e-05 0 -4.27583e-07 -9.12545e-06 0 3.63831e-07 1.71214e-05 0 4.65661e-08 9.123e-06 0 -3.62706e-07 -3.78583e-06 0 5.42486e-05 0.00234973 0 -3.02335e+06 2.17846e+06 0 -3.34179e+06 1.65777e+06 0 -3.17971e+06 1.98807e+06 0 -3.15671e+06 2.24003e+06 0 -3.26068e+06 2.39953e+06 0 -3.33354e+06 2.59324e+06 0 -3.26951e+06 2.85521e+06 0 -3.04841e+06 3.14006e+06 0 -2.71036e+06 3.3791e+06 0 -2.31759e+06 3.52384e+06 0 -1.92706e+06 3.55939e+06 0 -1.57717e+06 3.49887e+06 0 -1.28605e+06 3.37006e+06 0 -1.05601e+06 3.20304e+06 0 -879879 3.02246e+06 0 -746685 2.84464e+06 0 -645404 2.67808e+06 0 -566889 2.52566e+06 0 -504403 2.38696e+06 0 -453364 2.26022e+06 0 -410784 2.14345e+06 0 -374723 2.03497e+06 0 -343857 1.93354e+06 0 -317215 1.83829e+06 0 -294036 1.74856e+06 0 -273704 1.66383e+06 0 -255714 1.58365e+06 0 -239661 1.50759e+06 0 -225221 1.43529e+06 0 -212140 1.36642e+06 0 -200212 1.30067e+06 0 -189275 1.2378e+06 0 -179194 1.1776e+06 0 -169858 1.11988e+06 0 -161173 1.06449e+06 0 -153059 1.01129e+06 0 -145448 960149 0 -138283 910969 0 -131515 863653 0 -125102 818115 0 -119008 774282 0 -113202 732088 0 -107658 691475 0 -102353 652391 0 -97267.5 614789 0 -92383.5 578627 0 -87686.8 543869 0 -83164.6 510479 0 -78806.1 478427 0 -74602.1 447685 0 -70544.5 418225 0 -66626.7 390025 0 -62843.2 363059 0 -59189.2 337307 0 -55661 312747 0 -52255.5 289358 0 -48970.1 267119 0 -45803.1 246010 0 -42752.9 226010 0 -39818.5 207098 0 -36999.1 189251 0 -34294.3 172446 0 -31703.6 156662 0 -29227 141872 0 -26864.2 128051 0 -24615.1 115172 0 -22479.5 103208 0 -20457.1 92127.9 0 -18547.5 81902.2 0 -16749.9 72498.6 0 -15063.6 63884 0 -13487.2 56024 0 -12019.4 48883.3 0 -10658.3 42425.6 0 -9401.78 36613.7 0 -8247.22 31409.8 0 -7191.74 26775.6 0 -6232.02 22672.8 0 -5364.4 19062.6 0 -4584.88 15906.7 0 -3889.1 13167.3 0 -3272.42 10807 0 -2729.96 8789.56 0 -2256.62 7079.74 0 -1847.14 5643.78 0 -1496.17 4449.53 0 -1198.33 3466.65 0 -948.258 2666.76 0 -740.7 2023.61 0 -570.549 1513.17 0 -432.916 1113.71 0 -323.186 805.804 0 -237.06 572.338 0 -170.6 398.441 0 -120.255 271.399 0 -82.8755 180.527 0 -55.7261 117.007 0 -36.4751 73.7141 0 -23.1798 45.013 0 -14.26 26.5576 0 -8.46403 15.084 0 -4.82866 8.21256 0 -2.63618 4.26521 0 -1.3704 2.10079 0 -0.674409 0.97455 0 -0.312086 0.422241 0 -0.134725 0.169114 0 -0.0537498 0.061781 0 -0.0195951 0.0202306 0 -0.00643982 0.00578994 0 -0.001878 0.00138256 0 -0.000471713 0.000256662 0 -9.31219e-05 3.58119e-05 0 -1.37267e-05 7.03137e-06 0 -7.3023e-06 -2.27685e-06 0 -3.32901e-06 -5.65895e-07 0 1.97041e-06 1.35379e-06 0 1.88265e-06 4.44625e-06 0 -1.6104e-06 6.51681e-06 0 -3.09628e-06 -8.29156e-06 0 -1.07194e-06 -1.6914e-05 0 3.46591e-06 -6.57747e-07 0 1.42174e-06 -1.15847e-05 0 -2.37298e-07 1.36369e-06 0 -8.01199e-07 -3.2871e-06 0 -9.48101e-07 -1.31452e-05 0 3.66126e-08 3.00817e-06 0 -6.30207e-05 -0.00165263 0 -3.09659e+06 1.40172e+06 0 -2.98731e+06 1.78092e+06 0 -3.12004e+06 1.69183e+06 0 -3.12387e+06 1.75846e+06 0 -3.06538e+06 1.91614e+06 0 -3.03576e+06 2.06886e+06 0 -3.04907e+06 2.20661e+06 0 -3.06444e+06 2.35748e+06 0 -3.03081e+06 2.53893e+06 0 -2.91727e+06 2.74057e+06 0 -2.7214e+06 2.93321e+06 0 -2.4631e+06 3.08512e+06 0 -2.17265e+06 3.17484e+06 0 -1.87995e+06 3.19584e+06 0 -1.60772e+06 3.15476e+06 0 -1.3692e+06 3.06612e+06 0 -1.16902e+06 2.94678e+06 0 -1.00567e+06 2.81184e+06 0 -874261 2.67259e+06 0 -768750 2.53616e+06 0 -683381 2.40622e+06 0 -613369 2.28407e+06 0 -555057 2.16965e+06 0 -505783 2.06237e+06 0 -463637 1.96148e+06 0 -427226 1.8663e+06 0 -395504 1.77627e+06 0 -367652 1.69096e+06 0 -343013 1.60996e+06 0 -321052 1.53294e+06 0 -301335 1.45958e+06 0 -283511 1.3896e+06 0 -267295 1.32273e+06 0 -252454 1.25874e+06 0 -238799 1.19743e+06 0 -226172 1.13862e+06 0 -214444 1.08216e+06 0 -203502 1.02791e+06 0 -193254 975749 0 -183619 925576 0 -174529 877296 0 -165926 830824 0 -157759 786088 0 -149987 743022 0 -142572 701567 0 -135482 661671 0 -128690 623289 0 -122172 586378 0 -115907 550900 0 -109879 516823 0 -104071 484114 0 -98472.1 452745 0 -93070.1 422691 0 -87856.3 393926 0 -82822.7 366428 0 -77963.1 340174 0 -73272.2 315144 0 -68745.7 291315 0 -64380.3 268667 0 -60173.4 247181 0 -56122.9 226833 0 -52227.6 207603 0 -48486.4 189469 0 -44898.6 172408 0 -41463.8 156394 0 -38181.9 141403 0 -35052.6 127409 0 -32075.9 114384 0 -29251.4 102298 0 -26578.9 91121.1 0 -24057.6 80821.2 0 -21686.8 71365.1 0 -19465.3 62718 0 -17391.3 54844 0 -15462.9 47706.2 0 -13677.6 41266.4 0 -12032.4 35485.7 0 -10523.7 30324.5 0 -9147.56 25742.6 0 -7899.31 21699.9 0 -6773.92 18155.8 0 -5765.81 15070.3 0 -4868.98 12403.9 0 -4077.03 10117.6 0 -3383.19 8173.8 0 -2780.45 6535.94 0 -2261.59 5169.18 0 -1819.29 4040.39 0 -1446.18 3118.46 0 -1134.99 2374.46 0 -878.587 1781.75 0 -670.085 1316.1 0 -502.934 955.746 0 -370.984 681.392 0 -268.551 476.184 0 -190.467 325.624 0 -132.112 217.457 0 -89.4354 141.511 0 -58.9562 89.5132 0 -37.747 54.8828 0 -23.4046 32.5115 0 -14.0071 18.5387 0 -8.06087 10.132 0 -4.44147 5.28093 0 -2.33143 2.60942 0 -1.15923 1.21368 0 -0.542324 0.526777 0 -0.236853 0.211049 0 -0.0956733 0.0769537 0 -0.0353468 0.0250505 0 -0.011784 0.00707795 0 -0.00348915 0.00165126 0 -0.000896784 0.000282406 0 -0.000185522 3.39079e-05 0 -2.89677e-05 2.02458e-06 0 -9.30984e-06 -4.07442e-06 0 -5.43182e-06 -3.28873e-06 0 1.87039e-06 3.93856e-06 0 1.65432e-06 -1.93482e-06 0 -1.25606e-06 2.82656e-06 0 -3.8584e-06 -2.73343e-07 0 -1.01292e-06 -9.20566e-06 0 3.87969e-06 9.33185e-07 0 1.86838e-06 5.11296e-06 0 -2.21102e-07 -8.92021e-06 0 -2.16963e-06 -1.53445e-05 0 1.51352e-06 3.3997e-05 0 1.81422e-05 0.000392079 0 -2.86051e+06 1.56384e+06 0 -2.93097e+06 1.46421e+06 0 -2.89066e+06 1.61368e+06 0 -2.93596e+06 1.64987e+06 0 -2.98699e+06 1.67268e+06 0 -2.99529e+06 1.74071e+06 0 -2.97112e+06 1.84326e+06 0 -2.94317e+06 1.95526e+06 0 -2.92555e+06 2.06804e+06 0 -2.91015e+06 2.18814e+06 0 -2.87575e+06 2.32328e+06 0 -2.80146e+06 2.47219e+06 0 -2.67624e+06 2.62287e+06 0 -2.5018e+06 2.75742e+06 0 -2.29026e+06 2.85877e+06 0 -2.059e+06 2.91588e+06 0 -1.82568e+06 2.92569e+06 0 -1.60455e+06 2.89226e+06 0 -1.40487e+06 2.82421e+06 0 -1.23092e+06 2.73192e+06 0 -1.08305e+06 2.6252e+06 0 -959115 2.5119e+06 0 -855746 2.39758e+06 0 -769340 2.2856e+06 0 -696608 2.17774e+06 0 -634814 2.07466e+06 0 -581798 1.97649e+06 0 -535896 1.88305e+06 0 -495825 1.79408e+06 0 -460582 1.70929e+06 0 -429367 1.62843e+06 0 -401533 1.55124e+06 0 -376548 1.4775e+06 0 -353977 1.40698e+06 0 -333461 1.33946e+06 0 -314707 1.27475e+06 0 -297470 1.21268e+06 0 -281550 1.15308e+06 0 -266776 1.09581e+06 0 -253008 1.04074e+06 0 -240125 987769 0 -228025 936788 0 -216620 887711 0 -205835 840457 0 -195606 794957 0 -185878 751145 0 -176603 708966 0 -167740 668370 0 -159255 629311 0 -151116 591748 0 -143298 555645 0 -135778 520968 0 -128536 487687 0 -121556 455775 0 -114825 425205 0 -108330 395954 0 -102061 367999 0 -96011.1 341318 0 -90172.7 315890 0 -84540.7 291694 0 -79110.7 268709 0 -73879.7 246915 0 -68845 226290 0 -64005.1 206812 0 -59358.6 188460 0 -54905 171208 0 -50643.6 155033 0 -46574.4 139909 0 -42697.2 125807 0 -39011.8 112700 0 -35518.1 100556 0 -32215.5 89344.3 0 -29103.4 79031.2 0 -26180.6 69581.8 0 -23445.5 60959.7 0 -20896.2 53127.2 0 -18529.9 46045.5 0 -16343.4 39674.6 0 -14332.6 33973.5 0 -12493.2 28900.7 0 -10819.6 24414 0 -9305.94 20471.3 0 -7945.61 17030.1 0 -6731.32 14048.7 0 -5655.24 11485.8 0 -4709.04 9300.94 0 -3883.96 7455 0 -3170.92 5910.34 0 -2560.61 4631.05 0 -2043.62 3583.22 0 -1610.53 2735.17 0 -1252.08 2057.58 0 -959.223 1523.67 0 -723.304 1109.26 0 -536.126 792.8 0 -390.055 555.391 0 -278.096 380.687 0 -193.949 254.807 0 -132.047 166.17 0 -87.564 105.316 0 -56.4114 64.6809 0 -35.2039 38.3676 0 -21.2112 21.8979 0 -12.2929 11.9717 0 -6.82325 6.23674 0 -3.60924 3.07685 0 -1.80899 1.42667 0 -0.853395 0.615976 0 -0.375968 0.244702 0 -0.153254 0.0880324 0 -0.0571618 0.0280347 0 -0.0192476 0.00762682 0 -0.00575859 0.00164826 0 -0.00149836 0.000224737 0 -0.00032114 7.44918e-06 0 -5.14473e-05 -5.5139e-06 0 -1.18747e-05 -8.44663e-06 0 -6.26016e-06 -3.80422e-06 0 1.08009e-06 7.14278e-06 0 2.55645e-06 1.44076e-06 0 -1.18226e-06 1.69827e-06 0 -3.89648e-06 2.73949e-06 0 -5.3097e-07 1.14692e-05 0 3.97477e-06 1.65859e-05 0 2.7513e-06 8.19378e-06 0 -3.53903e-08 -6.90669e-06 0 -2.62144e-06 2.98023e-08 0 -5.88037e-06 -0.000140637 0 -2.84809e+06 1.34437e+06 0 -2.83588e+06 1.43685e+06 0 -2.8678e+06 1.42219e+06 0 -2.85001e+06 1.49151e+06 0 -2.845e+06 1.55635e+06 0 -2.86552e+06 1.59808e+06 0 -2.88996e+06 1.63958e+06 0 -2.89835e+06 1.69927e+06 0 -2.88762e+06 1.77739e+06 0 -2.86592e+06 1.86592e+06 0 -2.84108e+06 1.95945e+06 0 -2.81338e+06 2.05834e+06 0 -2.77518e+06 2.16539e+06 0 -2.71524e+06 2.28093e+06 0 -2.62421e+06 2.4001e+06 0 -2.49835e+06 2.51339e+06 0 -2.34064e+06 2.60937e+06 0 -2.15946e+06 2.6781e+06 0 -1.96601e+06 2.7135e+06 0 -1.77162e+06 2.71423e+06 0 -1.58572e+06 2.68318e+06 0 -1.4148e+06 2.62607e+06 0 -1.26229e+06 2.54975e+06 0 -1.12903e+06 2.46092e+06 0 -1.0141e+06 2.3652e+06 0 -915580 2.26682e+06 0 -831158 2.16864e+06 0 -758572 2.07238e+06 0 -695806 1.97899e+06 0 -641172 1.8889e+06 0 -593293 1.80225e+06 0 -551056 1.71905e+06 0 -513560 1.63921e+06 0 -480069 1.56261e+06 0 -449975 1.48913e+06 0 -422774 1.41861e+06 0 -398050 1.35091e+06 0 -375453 1.28589e+06 0 -354693 1.22339e+06 0 -335528 1.16329e+06 0 -317754 1.10548e+06 0 -301199 1.04983e+06 0 -285718 996247 0 -271185 944642 0 -257496 894934 0 -244558 847049 0 -232294 800921 0 -220637 756492 0 -209529 713707 0 -198919 672519 0 -188764 632886 0 -179029 594769 0 -169680 558132 0 -160690 522945 0 -152035 489178 0 -143697 456804 0 -135657 425800 0 -127901 396140 0 -120418 367805 0 -113198 340772 0 -106233 315020 0 -99515.1 290529 0 -93041 267280 0 -86806.2 245250 0 -80807.9 224419 0 -75044.2 204764 0 -69513.7 186263 0 -64215.8 168891 0 -59149.9 152623 0 -54316 137432 0 -49714 123290 0 -45343.8 110166 0 -41205.2 98028.5 0 -37297.7 86845 0 -33620.3 76580 0 -30171.7 67196.8 0 -26950 58657.2 0 -23952.4 50921.6 0 -21175.7 43948.9 0 -18615.7 37697.1 0 -16267.4 32123 0 -14124.9 27183 0 -12181.6 22832.9 0 -10429.9 19028.2 0 -8861.34 15724.9 0 -7466.89 12879 0 -6236.69 10447.7 0 -5160.29 8389.02 0 -4226.77 6662.54 0 -3424.82 5229.52 0 -2742.93 4053.18 0 -2169.48 3099.03 0 -1692.95 2335.02 0 -1302 1731.74 0 -985.71 1262.51 0 -733.653 903.475 0 -536.051 633.617 0 -383.879 434.689 0 -268.951 291.128 0 -183.977 189.906 0 -122.596 120.338 0 -79.3788 73.8535 0 -49.7947 43.7463 0 -30.1633 24.9096 0 -17.5775 13.5707 0 -9.81169 7.0341 0 -5.22007 3.44551 0 -2.6318 1.58163 0 -1.24899 0.673221 0 -0.553575 0.261997 0 -0.227018 0.0913857 0 -0.0851837 0.0276987 0 -0.0288536 0.00688574 0 -0.00868022 0.00121299 0 -0.00227251 4.27195e-05 0 -0.000494999 -5.51706e-05 0 -8.15229e-05 -1.8701e-05 0 -1.54629e-05 -2.05082e-05 0 -6.96257e-06 -9.51253e-06 0 -5.75383e-08 -1.35042e-07 0 2.34239e-06 1.6233e-06 0 3.72529e-08 -1.5283e-06 0 -4.85242e-06 -1.13379e-05 0 8.29925e-07 2.09678e-05 0 3.62576e-06 1.15652e-05 0 3.61702e-07 5.65872e-06 0 1.03004e-06 -1.79484e-05 0 1.0455e-05 0.000100702 0 -2.76072e+06 1.34644e+06 0 -2.7783e+06 1.34476e+06 0 -2.7802e+06 1.39081e+06 0 -2.80503e+06 1.39565e+06 0 -2.81222e+06 1.4232e+06 0 -2.80605e+06 1.47008e+06 0 -2.80331e+06 1.51743e+06 0 -2.81024e+06 1.5593e+06 0 -2.8204e+06 1.60268e+06 0 -2.82447e+06 1.65522e+06 0 -2.81762e+06 1.71905e+06 0 -2.80053e+06 1.79178e+06 0 -2.77613e+06 1.87041e+06 0 -2.74555e+06 1.95382e+06 0 -2.70633e+06 2.04241e+06 0 -2.65299e+06 2.13627e+06 0 -2.57946e+06 2.23319e+06 0 -2.48157e+06 2.32807e+06 0 -2.35872e+06 2.41374e+06 0 -2.2142e+06 2.48264e+06 0 -2.0543e+06 2.5287e+06 0 -1.88685e+06 2.54851e+06 0 -1.71959e+06 2.54172e+06 0 -1.55904e+06 2.51065e+06 0 -1.40982e+06 2.45936e+06 0 -1.27453e+06 2.39271e+06 0 -1.15406e+06 2.31547e+06 0 -1.04802e+06 2.23179e+06 0 -955259 2.14491e+06 0 -874243 2.05715e+06 0 -803385 1.97008e+06 0 -741195 1.88465e+06 0 -686362 1.80144e+06 0 -637767 1.72075e+06 0 -594475 1.64271e+06 0 -555700 1.56737e+06 0 -520787 1.49472e+06 0 -489186 1.4247e+06 0 -460434 1.35725e+06 0 -434141 1.29228e+06 0 -409979 1.22969e+06 0 -387672 1.16938e+06 0 -366984 1.11126e+06 0 -347718 1.05525e+06 0 -329705 1.00126e+06 0 -312801 949204 0 -296882 899025 0 -281841 850654 0 -267588 804033 0 -254044 759108 0 -241141 715832 0 -228821 674160 0 -217032 634055 0 -205733 595479 0 -194884 558401 0 -184455 522791 0 -174417 488622 0 -164747 455870 0 -155426 424510 0 -146436 394521 0 -137764 365882 0 -129399 338573 0 -121332 312573 0 -113554 287862 0 -106060 264421 0 -98846.2 242228 0 -91909.3 221263 0 -85247.2 201503 0 -78858.4 182924 0 -72742.4 165502 0 -66898.7 149211 0 -61327.4 134022 0 -56028.5 119907 0 -51002.1 106833 0 -46247.8 94767.6 0 -41765.2 83675.8 0 -37553.2 73520.5 0 -33610 64263.2 0 -29933.2 55863.6 0 -26519.5 48279.6 0 -23364.7 41468.1 0 -20463.7 35384.6 0 -17810.2 29983.7 0 -15397 25219.4 0 -13215.7 21045.2 0 -11257.1 17414.5 0 -9510.73 14281.3 0 -7965.44 11599.7 0 -6609.16 9325.27 0 -5429.16 7414.58 0 -4412.15 5826.01 0 -3544.48 4519.9 0 -2812.27 3458.85 0 -2201.62 2608.01 0 -1698.83 1935.25 0 -1290.52 1411.35 0 -963.876 1010.07 0 -706.789 708.213 0 -508.006 485.565 0 -357.252 324.847 0 -245.316 211.547 0 -164.109 133.729 0 -106.68 81.7992 0 -67.1898 48.2353 0 -40.8658 27.3011 0 -23.9114 14.7551 0 -13.4015 7.56697 0 -7.15852 3.65376 0 -3.62324 1.64466 0 -1.72595 0.681015 0 -0.767655 0.25453 0 -0.315805 0.0833124 0 -0.118821 0.0225606 0 -0.0403291 0.00435913 0 -0.0121461 0.000182958 0 -0.0031794 -0.000297532 0 -0.000696145 -0.000147894 0 -0.000117094 -4.05726e-05 0 -1.84514e-05 -1.85641e-05 0 -7.79872e-06 -1.52607e-05 0 -8.3819e-07 -1.81422e-06 0 2.72098e-06 -7.1805e-07 0 6.35977e-07 5.37001e-06 0 -3.68804e-06 3.71598e-06 0 1.87673e-06 3.55951e-05 0 3.86627e-06 2.86531e-05 0 -1.99303e-06 -2.51234e-05 0 -6.70552e-07 1.04606e-05 0 -2.7344e+06 1.27232e+06 0 -2.73752e+06 1.29855e+06 0 -2.74462e+06 1.31093e+06 0 -2.74252e+06 1.34598e+06 0 -2.75297e+06 1.36576e+06 0 -2.76567e+06 1.38348e+06 0 -2.77085e+06 1.41096e+06 0 -2.76908e+06 1.44753e+06 0 -2.76661e+06 1.48674e+06 0 -2.76706e+06 1.52589e+06 0 -2.76905e+06 1.56707e+06 0 -2.76835e+06 1.6138e+06 0 -2.76125e+06 1.668e+06 0 -2.74628e+06 1.72929e+06 0 -2.72369e+06 1.79622e+06 0 -2.69386e+06 1.86759e+06 0 -2.65584e+06 1.94291e+06 0 -2.60696e+06 2.0218e+06 0 -2.54361e+06 2.10293e+06 0 -2.46256e+06 2.18334e+06 0 -2.36225e+06 2.25851e+06 0 -2.24353e+06 2.32307e+06 0 -2.10964e+06 2.37192e+06 0 -1.96555e+06 2.40126e+06 0 -1.81702e+06 2.40925e+06 0 -1.66963e+06 2.39613e+06 0 -1.52804e+06 2.36386e+06 0 -1.39557e+06 2.31556e+06 0 -1.27419e+06 2.25483e+06 0 -1.16464e+06 2.18524e+06 0 -1.06678e+06 2.1099e+06 0 -979842 2.03134e+06 0 -902787 1.95145e+06 0 -834463 1.87157e+06 0 -773745 1.79259e+06 0 -719611 1.71512e+06 0 -671154 1.63951e+06 0 -627593 1.56598e+06 0 -588257 1.49465e+06 0 -552573 1.42557e+06 0 -520050 1.35874e+06 0 -490273 1.29415e+06 0 -462884 1.23175e+06 0 -437581 1.17149e+06 0 -414107 1.1133e+06 0 -392239 1.05712e+06 0 -371791 1.0029e+06 0 -352599 950564 0 -334525 900064 0 -317449 851345 0 -301269 804358 0 -285894 759056 0 -271248 715398 0 -257265 673347 0 -243887 632867 0 -231065 593926 0 -218757 556497 0 -206925 520551 0 -195539 486065 0 -184572 453015 0 -174002 421381 0 -163810 391141 0 -153980 362276 0 -144500 334766 0 -135359 308594 0 -126550 283738 0 -118066 260180 0 -109903 237899 0 -102057 216873 0 -94525.7 197080 0 -87308.8 178496 0 -80405.2 161096 0 -73815 144852 0 -67538.2 129736 0 -61575.1 115716 0 -55925.9 102760 0 -50590.2 90831.9 0 -45567.4 79895.8 0 -40856.2 69912.2 0 -36454.5 60840.3 0 -32359.2 52637.5 0 -28566.3 45259.3 0 -25070.5 38659.9 0 -21865.6 32792.5 0 -18943.8 27609 0 -16296.2 23061.1 0 -13912.7 19099.7 0 -11781.9 15676.3 0 -9891.34 12742.4 0 -8227.35 10250.7 0 -6775.48 8154.95 0 -5520.48 6410.49 0 -4446.55 4974.7 0 -3537.49 3807.21 0 -2776.99 2870.27 0 -2148.79 2128.99 0 -1636.99 1551.51 0 -1226.19 1109.14 0 -901.77 776.429 0 -650.068 531.179 0 -458.519 354.337 0 -315.796 229.882 0 -211.89 144.611 0 -138.148 87.8997 0 -87.2628 51.4133 0 -53.225 28.7953 0 -31.2277 15.35 0 -17.5467 7.72966 0 -9.39453 3.64103 0 -4.76458 1.58303 0 -2.27331 0.622834 0 -1.01219 0.214596 0 -0.416565 0.0605479 0 -0.156649 0.0113916 0 -0.0530802 -0.000392208 0 -0.0159335 -0.00154698 0 -0.00414697 -0.000823531 0 -0.000903754 -0.000276728 0 -0.00015347 -7.02087e-05 0 -2.1598e-05 -1.30553e-05 0 -7.74767e-06 -8.70507e-06 0 -1.49093e-06 2.10106e-06 0 3.43355e-06 -1.24611e-06 0 3.90108e-07 -1.45286e-06 0 -2.94065e-06 1.11759e-08 0 2.28081e-06 3.0037e-05 0 8.53743e-06 9.43765e-05 0 -1.96733e-05 -0.000145495 0 -2.69557e+06 1.25425e+06 0 -2.70273e+06 1.26311e+06 0 -2.70923e+06 1.27772e+06 0 -2.71773e+06 1.28633e+06 0 -2.71831e+06 1.30856e+06 0 -2.7202e+06 1.33131e+06 0 -2.72656e+06 1.3506e+06 0 -2.73379e+06 1.37056e+06 0 -2.73751e+06 1.39583e+06 0 -2.73709e+06 1.42654e+06 0 -2.73463e+06 1.46047e+06 0 -2.73211e+06 1.49615e+06 0 -2.72954e+06 1.53413e+06 0 -2.72514e+06 1.57606e+06 0 -2.71656e+06 1.62327e+06 0 -2.70206e+06 1.67601e+06 0 -2.68088e+06 1.7337e+06 0 -2.65264e+06 1.79545e+06 0 -2.61669e+06 1.86057e+06 0 -2.57154e+06 1.92841e+06 0 -2.51502e+06 1.99792e+06 0 -2.44488e+06 2.06717e+06 0 -2.35958e+06 2.13315e+06 0 -2.25896e+06 2.19207e+06 0 -2.14456e+06 2.2399e+06 0 -2.01942e+06 2.27318e+06 0 -1.88759e+06 2.28957e+06 0 -1.7535e+06 2.28819e+06 0 -1.62128e+06 2.26962e+06 0 -1.49435e+06 2.23561e+06 0 -1.37514e+06 2.18865e+06 0 -1.26513e+06 2.13156e+06 0 -1.16488e+06 2.06705e+06 0 -1.07431e+06 1.99756e+06 0 -992922 1.92507e+06 0 -919937 1.85113e+06 0 -854496 1.77686e+06 0 -795734 1.70308e+06 0 -742838 1.63035e+06 0 -695072 1.55904e+06 0 -651781 1.4894e+06 0 -612396 1.42159e+06 0 -576417 1.3557e+06 0 -543416 1.29176e+06 0 -513019 1.2298e+06 0 -484907 1.1698e+06 0 -458804 1.11175e+06 0 -434472 1.05559e+06 0 -411708 1.0013e+06 0 -390334 948834 0 -370199 898151 0 -351173 849211 0 -333140 801975 0 -316003 756407 0 -299677 712473 0 -284089 670140 0 -269175 629380 0 -254880 590166 0 -241157 552472 0 -227966 516275 0 -215273 481554 0 -203048 448289 0 -191267 416459 0 -179908 386047 0 -168956 357034 0 -158395 329402 0 -148216 303133 0 -138409 278209 0 -128968 254609 0 -119888 232315 0 -111167 211303 0 -102801 191552 0 -94790.4 173038 0 -87134.6 155732 0 -79833.7 139608 0 -72888.1 124635 0 -66298.4 110781 0 -60064.6 98010.2 0 -54186.6 86286.3 0 -48663.5 75570 0 -43493.7 65819.9 0 -38674.6 56992.5 0 -34202.3 49042.6 0 -30071.9 41923.1 0 -26276.9 35585.3 0 -22809.5 29979.7 0 -19660.4 25055.6 0 -16818.7 20761.9 0 -14272.2 17047.3 0 -12007.2 13860.7 0 -10008.7 11152 0 -8260.47 8871.87 0 -6745.33 6972.67 0 -5445.33 5408.67 0 -4341.94 4136.49 0 -3416.32 3115.4 0 -2649.62 2307.63 0 -2023.22 1678.61 0 -1519.02 1197.15 0 -1119.71 835.489 0 -809.031 569.376 0 -571.929 377.966 0 -394.77 243.704 0 -265.44 152.115 0 -173.408 91.5497 0 -109.739 52.8721 0 -67.0454 29.1272 0 -39.3921 15.1909 0 -22.1586 7.42506 0 -11.872 3.35315 0 -6.02221 1.36848 0 -2.87201 0.485078 0 -1.27712 0.136254 0 -0.52436 0.0208051 0 -0.196458 -0.00654556 0 -0.0662094 -0.00752626 0 -0.0197219 -0.00400147 0 -0.00507804 -0.00153556 0 -0.00109348 -0.000448391 0 -0.000183673 -0.000103628 0 -2.43536e-05 -2.21524e-05 0 -7.89471e-06 -8.92207e-06 0 -4.18862e-07 7.96653e-06 0 3.10037e-06 6.238e-06 0 4.2771e-07 4.7572e-06 0 -2.66382e-06 -1.06134e-05 0 3.15858e-06 4.56795e-05 0 6.31437e-06 7.89464e-05 0 -2.67297e+06 1.22652e+06 0 -2.67758e+06 1.23652e+06 0 -2.68163e+06 1.24713e+06 0 -2.68568e+06 1.26069e+06 0 -2.69306e+06 1.26919e+06 0 -2.69739e+06 1.28251e+06 0 -2.69893e+06 1.30041e+06 0 -2.70074e+06 1.31933e+06 0 -2.70429e+06 1.33775e+06 0 -2.70819e+06 1.35747e+06 0 -2.71033e+06 1.38051e+06 0 -2.70979e+06 1.40736e+06 0 -2.70708e+06 1.43729e+06 0 -2.70308e+06 1.46955e+06 0 -2.69801e+06 1.50422e+06 0 -2.69111e+06 1.54205e+06 0 -2.68099e+06 1.58388e+06 0 -2.66626e+06 1.63007e+06 0 -2.64586e+06 1.68044e+06 0 -2.61909e+06 1.73444e+06 0 -2.58524e+06 1.79141e+06 0 -2.54329e+06 1.85065e+06 0 -2.49182e+06 1.91124e+06 0 -2.42928e+06 1.97175e+06 0 -2.35439e+06 2.03003e+06 0 -2.26668e+06 2.08333e+06 0 -2.16681e+06 2.12853e+06 0 -2.05659e+06 2.16266e+06 0 -1.93882e+06 2.18338e+06 0 -1.81687e+06 2.18932e+06 0 -1.69421e+06 2.18022e+06 0 -1.57399e+06 2.15687e+06 0 -1.45875e+06 2.12087e+06 0 -1.35031e+06 2.07429e+06 0 -1.24972e+06 2.01937e+06 0 -1.15741e+06 1.95827e+06 0 -1.07332e+06 1.89292e+06 0 -997055 1.8249e+06 0 -928025 1.75548e+06 0 -865563 1.68562e+06 0 -808984 1.61602e+06 0 -757630 1.5472e+06 0 -710894 1.47951e+06 0 -668229 1.41322e+06 0 -629147 1.34849e+06 0 -593217 1.28543e+06 0 -560062 1.22411e+06 0 -529354 1.16456e+06 0 -500806 1.1068e+06 0 -474168 1.05082e+06 0 -449227 996604 0 -425793 944139 0 -403706 893396 0 -382825 844350 0 -363027 796975 0 -344207 751243 0 -326273 707130 0 -309145 664610 0 -292755 623660 0 -277043 584259 0 -261959 546385 0 -247458 510021 0 -233504 475146 0 -220065 441745 0 -207114 409799 0 -194630 379294 0 -182594 350211 0 -170992 322534 0 -159811 296247 0 -149044 271331 0 -138684 247768 0 -128726 225537 0 -119166 204617 0 -110004 184984 0 -101239 166613 0 -92870.7 149478 0 -84899.7 133547 0 -77326.8 118790 0 -70152.8 105172 0 -63377.8 92655.3 0 -57001.6 81201.9 0 -51023.2 70769.5 0 -45440.4 61314.2 0 -40249.9 52789.6 0 -35447 45147.4 0 -31025.5 38337.7 0 -26977.5 32308.8 0 -23293.4 27008.2 0 -19961.9 22382.3 0 -16970 18377.3 0 -14302.9 14939.5 0 -11944.3 12015.6 0 -9876.28 9553.43 0 -8079.88 7502.14 0 -6534.93 5812.87 0 -5220.55 4439.08 0 -4115.32 3336.98 0 -3197.67 2465.85 0 -2446.16 1788.33 0 -18