<?xml version="1.0"?> 
<VTKFile type="StructuredGrid" version="0.1"> 
<StructuredGrid WholeExtent="0 127 0 127 0 0"> 
<Piece Extent="0 127 0 127 0 0"> 
<PointData>
<DataArray type="Float32" Name="|E|" format="ascii" NumberOfComponents="3"> 
-2.25441e+06 969849 0 -2.25985e+06 981284 0 -2.26527e+06 992844 0 -2.27066e+06 1.00453e+06 0 -2.276e+06 1.01635e+06 0 -2.2813e+06 1.02831e+06 0 -2.28655e+06 1.0404e+06 0 -2.29174e+06 1.05263e+06 0 -2.29687e+06 1.065e+06 0 -2.30193e+06 1.07752e+06 0 -2.30691e+06 1.09018e+06 0 -2.31181e+06 1.10299e+06 0 -2.31662e+06 1.11596e+06 0 -2.32132e+06 1.12908e+06 0 -2.32592e+06 1.14235e+06 0 -2.33039e+06 1.15578e+06 0 -2.33474e+06 1.16938e+06 0 -2.33894e+06 1.18314e+06 0 -2.34299e+06 1.19706e+06 0 -2.34688e+06 1.21114e+06 0 -2.3506e+06 1.22539e+06 0 -2.35412e+06 1.23981e+06 0 -2.35744e+06 1.25439e+06 0 -2.36054e+06 1.26914e+06 0 -2.36341e+06 1.28405e+06 0 -2.36602e+06 1.29912e+06 0 -2.36837e+06 1.31435e+06 0 -2.37044e+06 1.32975e+06 0 -2.3722e+06 1.34529e+06 0 -2.37364e+06 1.36098e+06 0 -2.37473e+06 1.37681e+06 0 -2.37546e+06 1.39277e+06 0 -2.3758e+06 1.40886e+06 0 -2.37573e+06 1.42507e+06 0 -2.37523e+06 1.44137e+06 0 -2.37427e+06 1.45776e+06 0 -2.37283e+06 1.47422e+06 0 -2.37089e+06 1.49074e+06 0 -2.36841e+06 1.50728e+06 0 -2.36538e+06 1.52384e+06 0 -2.36177e+06 1.54038e+06 0 -2.35755e+06 1.55688e+06 0 -2.3527e+06 1.57331e+06 0 -2.3472e+06 1.58962e+06 0 -2.34103e+06 1.6058e+06 0 -2.33416e+06 1.62178e+06 0 -2.32657e+06 1.63754e+06 0 -2.31826e+06 1.65302e+06 0 -2.3092e+06 1.66818e+06 0 -2.29938e+06 1.68297e+06 0 -2.2888e+06 1.69733e+06 0 -2.27746e+06 1.7112e+06 0 -2.26535e+06 1.72453e+06 0 -2.25248e+06 1.73725e+06 0 -2.23886e+06 1.74931e+06 0 -2.2245e+06 1.76064e+06 0 -2.20944e+06 1.77118e+06 0 -2.19368e+06 1.78086e+06 0 -2.17727e+06 1.78964e+06 0 -2.16024e+06 1.79744e+06 0 -2.14263e+06 1.80421e+06 0 -2.1245e+06 1.80991e+06 0 -2.10589e+06 1.81447e+06 0 -2.08687e+06 1.81787e+06 0 -2.06748e+06 1.82005e+06 0 -2.0478e+06 1.82098e+06 0 -2.0279e+06 1.82064e+06 0 -2.00783e+06 1.819e+06 0 -1.98766e+06 1.81604e+06 0 -1.96747e+06 1.81176e+06 0 -1.94733e+06 1.80615e+06 0 -1.92729e+06 1.79921e+06 0 -1.90743e+06 1.79095e+06 0 -1.8878e+06 1.78137e+06 0 -1.86847e+06 1.77051e+06 0 -1.84949e+06 1.75836e+06 0 -1.83092e+06 1.74497e+06 0 -1.81279e+06 1.73035e+06 0 -1.79516e+06 1.71453e+06 0 -1.77806e+06 1.69754e+06 0 -1.76152e+06 1.67942e+06 0 -1.74559e+06 1.66019e+06 0 -1.73028e+06 1.6399e+06 0 -1.71561e+06 1.61856e+06 0 -1.70161e+06 1.59621e+06 0 -1.68828e+06 1.57288e+06 0 -1.67564e+06 1.5486e+06 0 -1.6637e+06 1.5234e+06 0 -1.65246e+06 1.49729e+06 0 -1.64193e+06 1.4703e+06 0 -1.63209e+06 1.44245e+06 0 -1.62295e+06 1.41375e+06 0 -1.61451e+06 1.38422e+06 0 -1.60675e+06 1.35387e+06 0 -1.59967e+06 1.3227e+06 0 -1.59326e+06 1.29071e+06 0 -1.58751e+06 1.25791e+06 0 -1.5824e+06 1.22429e+06 0 -1.57792e+06 1.18983e+06 0 -1.57406e+06 1.15453e+06 0 -1.5708e+06 1.11837e+06 0 -1.56814e+06 1.08132e+06 0 -1.56604e+06 1.04335e+06 0 -1.5645e+06 1.00443e+06 0 -1.56351e+06 964527 0 -1.56305e+06 923579 0 -1.5631e+06 881537 0 -1.56367e+06 838335 0 -1.56473e+06 793900 0 -1.5663e+06 748141 0 -1.56837e+06 700969 0 -1.57096e+06 652244 0 -1.5741e+06 601865 0 -1.57784e+06 549592 0 -1.58225e+06 495361 0 -1.58748e+06 438653 0 -1.59368e+06 379649 0 -1.60112e+06 317006 0 -1.61029e+06 251862 0 -1.62162e+06 180379 0 -1.63644e+06 107059 0 -1.65616e+06 19742.1 0 -1.68232e+06 -63847.6 0 -1.727e+06 -189727 0 -1.77785e+06 -281627 0 -1.9304e+06 -532616 0 -2.07985e+06 -765788 0 -4.75859e+06 1.23978e-05 0 -2.25213e+06 970938 0 -2.25755e+06 982368 0 -2.26295e+06 993922 0 -2.26831e+06 1.0056e+06 0 -2.27362e+06 1.01742e+06 0 -2.2789e+06 1.02936e+06 0 -2.28412e+06 1.04144e+06 0 -2.28928e+06 1.05366e+06 0 -2.29438e+06 1.06602e+06 0 -2.29941e+06 1.07852e+06 0 -2.30437e+06 1.09117e+06 0 -2.30924e+06 1.10396e+06 0 -2.31401e+06 1.1169e+06 0 -2.31868e+06 1.13e+06 0 -2.32325e+06 1.14325e+06 0 -2.32769e+06 1.15666e+06 0 -2.332e+06 1.17023e+06 0 -2.33618e+06 1.18396e+06 0 -2.3402e+06 1.19785e+06 0 -2.34405e+06 1.2119e+06 0 -2.34773e+06 1.22611e+06 0 -2.35122e+06 1.24049e+06 0 -2.35451e+06 1.25503e+06 0 -2.35758e+06 1.26973e+06 0 -2.36041e+06 1.28459e+06 0 -2.363e+06 1.29962e+06 0 -2.36532e+06 1.31479e+06 0 -2.36735e+06 1.33013e+06 0 -2.36908e+06 1.34561e+06 0 -2.37049e+06 1.36123e+06 0 -2.37156e+06 1.37699e+06 0 -2.37226e+06 1.39288e+06 0 -2.37258e+06 1.40889e+06 0 -2.37249e+06 1.42501e+06 0 -2.37197e+06 1.44122e+06 0 -2.371e+06 1.45752e+06 0 -2.36954e+06 1.47388e+06 0 -2.36759e+06 1.49029e+06 0 -2.36511e+06 1.50673e+06 0 -2.36208e+06 1.52318e+06 0 -2.35848e+06 1.5396e+06 0 -2.35427e+06 1.55598e+06 0 -2.34944e+06 1.57228e+06 0 -2.34397e+06 1.58846e+06 0 -2.33782e+06 1.60449e+06 0 -2.33099e+06 1.62034e+06 0 -2.32346e+06 1.63596e+06 0 -2.3152e+06 1.65129e+06 0 -2.30621e+06 1.66631e+06 0 -2.29648e+06 1.68094e+06 0 -2.28599e+06 1.69515e+06 0 -2.27475e+06 1.70887e+06 0 -2.26276e+06 1.72204e+06 0 -2.25001e+06 1.73462e+06 0 -2.23653e+06 1.74653e+06 0 -2.22233e+06 1.75771e+06 0 -2.20743e+06 1.76811e+06 0 -2.19185e+06 1.77766e+06 0 -2.17562e+06 1.78631e+06 0 -2.15879e+06 1.79399e+06 0 -2.1414e+06 1.80066e+06 0 -2.12348e+06 1.80625e+06 0 -2.10511e+06 1.81073e+06 0 -2.08632e+06 1.81405e+06 0 -2.06718e+06 1.81616e+06 0 -2.04775e+06 1.81704e+06 0 -2.0281e+06 1.81666e+06 0 -2.00829e+06 1.815e+06 0 -1.98839e+06 1.81203e+06 0 -1.96846e+06 1.80775e+06 0 -1.94858e+06 1.80216e+06 0 -1.92881e+06 1.79524e+06 0 -1.90921e+06 1.78702e+06 0 -1.88984e+06 1.7775e+06 0 -1.87077e+06 1.7667e+06 0 -1.85204e+06 1.75463e+06 0 -1.83371e+06 1.74132e+06 0 -1.81583e+06 1.72679e+06 0 -1.79843e+06 1.71108e+06 0 -1.78156e+06 1.6942e+06 0 -1.76525e+06 1.67619e+06 0 -1.74953e+06 1.65709e+06 0 -1.73443e+06 1.63692e+06 0 -1.71997e+06 1.61571e+06 0 -1.70616e+06 1.5935e+06 0 -1.69303e+06 1.5703e+06 0 -1.68058e+06 1.54616e+06 0 -1.66882e+06 1.5211e+06 0 -1.65776e+06 1.49513e+06 0 -1.6474e+06 1.46828e+06 0 -1.63773e+06 1.44057e+06 0 -1.62876e+06 1.41201e+06 0 -1.62048e+06 1.38262e+06 0 -1.61289e+06 1.3524e+06 0 -1.60597e+06 1.32137e+06 0 -1.59973e+06 1.28951e+06 0 -1.59414e+06 1.25684e+06 0 -1.58919e+06 1.22334e+06 0 -1.58488e+06 1.18901e+06 0 -1.58119e+06 1.15384e+06 0 -1.57811e+06 1.11779e+06 0 -1.57562e+06 1.08086e+06 0 -1.57372e+06 1.04301e+06 0 -1.57237e+06 1.0042e+06 0 -1.57158e+06 964402 0 -1.57134e+06 923561 0 -1.57162e+06 881622 0 -1.57242e+06 838523 0 -1.57374e+06 794188 0 -1.57558e+06 748535 0 -1.57794e+06 701461 0 -1.58085e+06 652855 0 -1.58434e+06 602576 0 -1.58847e+06 550466 0 -1.59332e+06 496326 0 -1.59902e+06 439913 0 -1.6058e+06 380927 0 -1.61386e+06 318970 0 -1.62387e+06 253513 0 -1.636e+06 183916 0 -1.65238e+06 108957 0 -1.67279e+06 27558 0 -1.70346e+06 -62964.7 0 -1.74597e+06 -167859 0 -1.81571e+06 -286198 0 -1.94657e+06 -460477 0 -2.24598e+06 -677128 0 -3.76719e+06 -3.00744e-07 0 -2.24986e+06 972023 0 -2.25526e+06 983447 0 -2.26062e+06 994995 0 -2.26596e+06 1.00667e+06 0 -2.27125e+06 1.01847e+06 0 -2.27649e+06 1.03041e+06 0 -2.28169e+06 1.04248e+06 0 -2.28683e+06 1.05468e+06 0 -2.2919e+06 1.06703e+06 0 -2.2969e+06 1.07951e+06 0 -2.30182e+06 1.09214e+06 0 -2.30666e+06 1.10492e+06 0 -2.31141e+06 1.11785e+06 0 -2.31605e+06 1.13092e+06 0 -2.32058e+06 1.14415e+06 0 -2.325e+06 1.15754e+06 0 -2.32928e+06 1.17108e+06 0 -2.33342e+06 1.18477e+06 0 -2.33741e+06 1.19863e+06 0 -2.34123e+06 1.21265e+06 0 -2.34488e+06 1.22683e+06 0 -2.34834e+06 1.24116e+06 0 -2.35159e+06 1.25566e+06 0 -2.35463e+06 1.27032e+06 0 -2.35743e+06 1.28513e+06 0 -2.35998e+06 1.3001e+06 0 -2.36227e+06 1.31523e+06 0 -2.36428e+06 1.3305e+06 0 -2.36598e+06 1.34592e+06 0 -2.36736e+06 1.36148e+06 0 -2.3684e+06 1.37717e+06 0 -2.36908e+06 1.39298e+06 0 -2.36937e+06 1.40891e+06 0 -2.36926e+06 1.42495e+06 0 -2.36873e+06 1.44107e+06 0 -2.36774e+06 1.45728e+06 0 -2.36628e+06 1.47354e+06 0 -2.36432e+06 1.48985e+06 0 -2.36183e+06 1.50618e+06 0 -2.35881e+06 1.52252e+06 0 -2.35521e+06 1.53882e+06 0 -2.35101e+06 1.55508e+06 0 -2.3462e+06 1.57125e+06 0 -2.34076e+06 1.5873e+06 0 -2.33465e+06 1.6032e+06 0 -2.32786e+06 1.61891e+06 0 -2.32038e+06 1.63438e+06 0 -2.31218e+06 1.64958e+06 0 -2.30326e+06 1.66444e+06 0 -2.29361e+06 1.67893e+06 0 -2.28321e+06 1.69298e+06 0 -2.27208e+06 1.70655e+06 0 -2.26019e+06 1.71958e+06 0 -2.24758e+06 1.73201e+06 0 -2.23424e+06 1.74377e+06 0 -2.22018e+06 1.75482e+06 0 -2.20544e+06 1.76508e+06 0 -2.19004e+06 1.7745e+06 0 -2.174e+06 1.78302e+06 0 -2.15737e+06 1.79059e+06 0 -2.14018e+06 1.79715e+06 0 -2.12248e+06 1.80265e+06 0 -2.10433e+06 1.80704e+06 0 -2.08578e+06 1.81028e+06 0 -2.06688e+06 1.81233e+06 0 -2.0477e+06 1.81316e+06 0 -2.0283e+06 1.81274e+06 0 -2.00875e+06 1.81105e+06 0 -1.98911e+06 1.80807e+06 0 -1.96945e+06 1.80379e+06 0 -1.94983e+06 1.79821e+06 0 -1.93032e+06 1.79133e+06 0 -1.91098e+06 1.78315e+06 0 -1.89187e+06 1.77368e+06 0 -1.87305e+06 1.76294e+06 0 -1.85457e+06 1.75095e+06 0 -1.83649e+06 1.73772e+06 0 -1.81884e+06 1.72329e+06 0 -1.80168e+06 1.70767e+06 0 -1.78504e+06 1.6909e+06 0 -1.76895e+06 1.67301e+06 0 -1.75345e+06 1.65403e+06 0 -1.73855e+06 1.63398e+06 0 -1.7243e+06 1.6129e+06 0 -1.71069e+06 1.59082e+06 0 -1.69775e+06 1.56776e+06 0 -1.68549e+06 1.54376e+06 0 -1.67391e+06 1.51883e+06 0 -1.66303e+06 1.493e+06 0 -1.65284e+06 1.46629e+06 0 -1.64334e+06 1.43872e+06 0 -1.63454e+06 1.4103e+06 0 -1.62643e+06 1.38105e+06 0 -1.619e+06 1.35097e+06 0 -1.61225e+06 1.32007e+06 0 -1.60617e+06 1.28835e+06 0 -1.60074e+06 1.2558e+06 0 -1.59596e+06 1.22244e+06 0 -1.59182e+06 1.18823e+06 0 -1.5883e+06 1.15318e+06 0 -1.5854e+06 1.11726e+06 0 -1.58309e+06 1.08044e+06 0 -1.58137e+06 1.0427e+06 0 -1.58022e+06 1.00401e+06 0 -1.57964e+06 964320 0 -1.5796e+06 923586 0 -1.58011e+06 881754 0 -1.58115e+06 838760 0 -1.58272e+06 794530 0 -1.58483e+06 748983 0 -1.58749e+06 702018 0 -1.59072e+06 653527 0 -1.59456e+06 603371 0 -1.59907e+06 551404 0 -1.60435e+06 497416 0 -1.61053e+06 441213 0 -1.61784e+06 382440 0 -1.62655e+06 320860 0 -1.63728e+06 255722 0 -1.65037e+06 186939 0 -1.6678e+06 112451 0 -1.68975e+06 33249.6 0 -1.72259e+06 -56928.6 0 -1.76714e+06 -153894 0 -1.84436e+06 -273561 0 -1.97508e+06 -411617 0 -2.30984e+06 -569448 0 -3.21629e+06 -2.49071e-07 0 -2.24759e+06 973103 0 -2.25296e+06 984521 0 -2.2583e+06 996063 0 -2.26361e+06 1.00773e+06 0 -2.26888e+06 1.01952e+06 0 -2.2741e+06 1.03145e+06 0 -2.27926e+06 1.04351e+06 0 -2.28437e+06 1.0557e+06 0 -2.28942e+06 1.06803e+06 0 -2.29439e+06 1.0805e+06 0 -2.29929e+06 1.09312e+06 0 -2.30409e+06 1.10588e+06 0 -2.30881e+06 1.11878e+06 0 -2.31342e+06 1.13184e+06 0 -2.31792e+06 1.14504e+06 0 -2.32231e+06 1.1584e+06 0 -2.32656e+06 1.17192e+06 0 -2.33066e+06 1.18558e+06 0 -2.33462e+06 1.19941e+06 0 -2.33841e+06 1.21339e+06 0 -2.34203e+06 1.22753e+06 0 -2.34546e+06 1.24183e+06 0 -2.34868e+06 1.25629e+06 0 -2.35168e+06 1.2709e+06 0 -2.35446e+06 1.28567e+06 0 -2.35698e+06 1.30058e+06 0 -2.35924e+06 1.31565e+06 0 -2.36121e+06 1.33087e+06 0 -2.36289e+06 1.34622e+06 0 -2.36424e+06 1.36172e+06 0 -2.36526e+06 1.37734e+06 0 -2.36591e+06 1.39308e+06 0 -2.36618e+06 1.40893e+06 0 -2.36606e+06 1.42488e+06 0 -2.3655e+06 1.44092e+06 0 -2.3645e+06 1.45703e+06 0 -2.36303e+06 1.4732e+06 0 -2.36106e+06 1.48941e+06 0 -2.35858e+06 1.50563e+06 0 -2.35555e+06 1.52185e+06 0 -2.35196e+06 1.53805e+06 0 -2.34778e+06 1.55418e+06 0 -2.34299e+06 1.57023e+06 0 -2.33757e+06 1.58615e+06 0 -2.3315e+06 1.60192e+06 0 -2.32476e+06 1.61749e+06 0 -2.31732e+06 1.63282e+06 0 -2.30919e+06 1.64787e+06 0 -2.30034e+06 1.66259e+06 0 -2.29077e+06 1.67693e+06 0 -2.28046e+06 1.69084e+06 0 -2.26943e+06 1.70426e+06 0 -2.25766e+06 1.71714e+06 0 -2.24517e+06 1.72942e+06 0 -2.23197e+06 1.74105e+06 0 -2.21806e+06 1.75195e+06 0 -2.20348e+06 1.76208e+06 0 -2.18825e+06 1.77137e+06 0 -2.1724e+06 1.77977e+06 0 -2.15596e+06 1.78723e+06 0 -2.13898e+06 1.79368e+06 0 -2.1215e+06 1.79908e+06 0 -2.10358e+06 1.80339e+06 0 -2.08526e+06 1.80655e+06 0 -2.0666e+06 1.80854e+06 0 -2.04766e+06 1.80932e+06 0 -2.02852e+06 1.80887e+06 0 -2.00922e+06 1.80715e+06 0 -1.98984e+06 1.80416e+06 0 -1.97043e+06 1.79989e+06 0 -1.95107e+06 1.79432e+06 0 -1.93182e+06 1.78747e+06 0 -1.91274e+06 1.77933e+06 0 -1.89389e+06 1.76991e+06 0 -1.87532e+06 1.75924e+06 0 -1.85709e+06 1.74731e+06 0 -1.83925e+06 1.73417e+06 0 -1.82184e+06 1.71983e+06 0 -1.80491e+06 1.70431e+06 0 -1.78849e+06 1.68765e+06 0 -1.77262e+06 1.66987e+06 0 -1.75734e+06 1.65101e+06 0 -1.74265e+06 1.63109e+06 0 -1.7286e+06 1.61014e+06 0 -1.71519e+06 1.58819e+06 0 -1.70244e+06 1.56526e+06 0 -1.69037e+06 1.54139e+06 0 -1.67897e+06 1.5166e+06 0 -1.66827e+06 1.49091e+06 0 -1.65825e+06 1.46434e+06 0 -1.64893e+06 1.43691e+06 0 -1.6403e+06 1.40863e+06 0 -1.63235e+06 1.37951e+06 0 -1.62509e+06 1.34957e+06 0 -1.6185e+06 1.3188e+06 0 -1.61258e+06 1.28721e+06 0 -1.60732e+06 1.2548e+06 0 -1.60271e+06 1.22156e+06 0 -1.59873e+06 1.18748e+06 0 -1.59539e+06 1.15255e+06 0 -1.59266e+06 1.11675e+06 0 -1.59053e+06 1.08006e+06 0 -1.589e+06 1.04243e+06 0 -1.58805e+06 1.00386e+06 0 -1.58767e+06 964279 0 -1.58784e+06 923655 0 -1.58858e+06 881932 0 -1.58986e+06 839046 0 -1.59169e+06 794925 0 -1.59407e+06 749487 0 -1.59702e+06 702637 0 -1.60057e+06 654265 0 -1.60475e+06 604240 0 -1.60964e+06 552417 0 -1.61534e+06 498603 0 -1.62199e+06 442600 0 -1.62984e+06 384095 0 -1.63917e+06 322833 0 -1.65058e+06 258187 0 -1.66461e+06 189976 0 -1.68296e+06 116544 0 -1.70651e+06 38574.9 0 -1.74077e+06 -49068.6 0 -1.78818e+06 -142035 0 -1.86853e+06 -254596 0 -2.0033e+06 -370583 0 -2.32456e+06 -468847 0 -2.89258e+06 -5.61005e-07 0 -2.24532e+06 974179 0 -2.25066e+06 985591 0 -2.25598e+06 997125 0 -2.26126e+06 1.00878e+06 0 -2.2665e+06 1.02057e+06 0 -2.2717e+06 1.03249e+06 0 -2.27684e+06 1.04453e+06 0 -2.28192e+06 1.05671e+06 0 -2.28694e+06 1.06903e+06 0 -2.29188e+06 1.08149e+06 0 -2.29675e+06 1.09409e+06 0 -2.30153e+06 1.10683e+06 0 -2.30622e+06 1.11971e+06 0 -2.3108e+06 1.13275e+06 0 -2.31527e+06 1.14593e+06 0 -2.31962e+06 1.15926e+06 0 -2.32384e+06 1.17275e+06 0 -2.32792e+06 1.18639e+06 0 -2.33184e+06 1.20018e+06 0 -2.3356e+06 1.21413e+06 0 -2.33919e+06 1.22823e+06 0 -2.34258e+06 1.24249e+06 0 -2.34578e+06 1.25691e+06 0 -2.34875e+06 1.27147e+06 0 -2.35149e+06 1.28619e+06 0 -2.35399e+06 1.30106e+06 0 -2.35621e+06 1.31607e+06 0 -2.35816e+06 1.33123e+06 0 -2.35981e+06 1.34653e+06 0 -2.36114e+06 1.36195e+06 0 -2.36213e+06 1.3775e+06 0 -2.36276e+06 1.39317e+06 0 -2.36301e+06 1.40894e+06 0 -2.36286e+06 1.42481e+06 0 -2.3623e+06 1.44076e+06 0 -2.36128e+06 1.45678e+06 0 -2.3598e+06 1.47286e+06 0 -2.35783e+06 1.48896e+06 0 -2.35534e+06 1.50508e+06 0 -2.35232e+06 1.52119e+06 0 -2.34874e+06 1.53727e+06 0 -2.34458e+06 1.55329e+06 0 -2.33981e+06 1.56921e+06 0 -2.33441e+06 1.585e+06 0 -2.32838e+06 1.60064e+06 0 -2.32168e+06 1.61608e+06 0 -2.3143e+06 1.63127e+06 0 -2.30623e+06 1.64618e+06 0 -2.29745e+06 1.66076e+06 0 -2.28796e+06 1.67495e+06 0 -2.27774e+06 1.68872e+06 0 -2.26681e+06 1.70199e+06 0 -2.25516e+06 1.71473e+06 0 -2.24279e+06 1.72687e+06 0 -2.22973e+06 1.73835e+06 0 -2.21597e+06 1.74912e+06 0 -2.20155e+06 1.75911e+06 0 -2.18649e+06 1.76828e+06 0 -2.17082e+06 1.77656e+06 0 -2.15458e+06 1.7839e+06 0 -2.1378e+06 1.79025e+06 0 -2.12054e+06 1.79556e+06 0 -2.10284e+06 1.79978e+06 0 -2.08475e+06 1.80288e+06 0 -2.06633e+06 1.80481e+06 0 -2.04764e+06 1.80554e+06 0 -2.02874e+06 1.80505e+06 0 -2.00969e+06 1.80331e+06 0 -1.99056e+06 1.80031e+06 0 -1.97142e+06 1.79604e+06 0 -1.95231e+06 1.79049e+06 0 -1.93332e+06 1.78366e+06 0 -1.91449e+06 1.77556e+06 0 -1.89589e+06 1.76619e+06 0 -1.87757e+06 1.75558e+06 0 -1.85959e+06 1.74373e+06 0 -1.84199e+06 1.73067e+06 0 -1.82482e+06 1.71642e+06 0 -1.80812e+06 1.701e+06 0 -1.79193e+06 1.68444e+06 0 -1.77628e+06 1.66678e+06 0 -1.7612e+06 1.64803e+06 0 -1.74673e+06 1.62823e+06 0 -1.73288e+06 1.60741e+06 0 -1.71967e+06 1.58559e+06 0 -1.70711e+06 1.5628e+06 0 -1.69522e+06 1.53907e+06 0 -1.68401e+06 1.51441e+06 0 -1.67348e+06 1.48886e+06 0 -1.66364e+06 1.46243e+06 0 -1.65449e+06 1.43513e+06 0 -1.64602e+06 1.40699e+06 0 -1.63824e+06 1.37801e+06 0 -1.63114e+06 1.3482e+06 0 -1.62472e+06 1.31756e+06 0 -1.61897e+06 1.28611e+06 0 -1.61387e+06 1.25383e+06 0 -1.60942e+06 1.22072e+06 0 -1.60562e+06 1.18677e+06 0 -1.60245e+06 1.15196e+06 0 -1.5999e+06 1.11628e+06 0 -1.59795e+06 1.07971e+06 0 -1.59661e+06 1.04221e+06 0 -1.59585e+06 1.00374e+06 0 -1.59567e+06 964279 0 -1.59607e+06 923769 0 -1.59702e+06 882157 0 -1.59854e+06 839381 0 -1.60063e+06 795372 0 -1.60328e+06 750048 0 -1.60653e+06 703316 0 -1.61039e+06 655069 0 -1.61492e+06 605182 0 -1.62018e+06 553510 0 -1.62629e+06 499878 0 -1.63341e+06 444085 0 -1.64177e+06 385863 0 -1.65171e+06 324934 0 -1.66378e+06 260812 0 -1.67868e+06 193181 0 -1.69791e+06 120903 0 -1.72289e+06 44093.5 0 -1.75832e+06 -40581.2 0 -1.80827e+06 -130283 0 -1.88995e+06 -233641 0 -2.02688e+06 -332369 0 -2.31638e+06 -383267 0 -2.69032e+06 1.95345e-07 0 -2.24305e+06 975249 0 -2.24837e+06 986655 0 -2.25366e+06 998183 0 -2.25892e+06 1.00983e+06 0 -2.26414e+06 1.02161e+06 0 -2.2693e+06 1.03352e+06 0 -2.27442e+06 1.04555e+06 0 -2.27947e+06 1.05772e+06 0 -2.28446e+06 1.07003e+06 0 -2.28938e+06 1.08247e+06 0 -2.29422e+06 1.09505e+06 0 -2.29897e+06 1.10777e+06 0 -2.30363e+06 1.12064e+06 0 -2.30818e+06 1.13365e+06 0 -2.31262e+06 1.14681e+06 0 -2.31694e+06 1.16012e+06 0 -2.32113e+06 1.17358e+06 0 -2.32518e+06 1.18719e+06 0 -2.32907e+06 1.20095e+06 0 -2.3328e+06 1.21486e+06 0 -2.33636e+06 1.22893e+06 0 -2.33972e+06 1.24315e+06 0 -2.34288e+06 1.25752e+06 0 -2.34583e+06 1.27204e+06 0 -2.34854e+06 1.28671e+06 0 -2.351e+06 1.30153e+06 0 -2.3532e+06 1.31649e+06 0 -2.35512e+06 1.33159e+06 0 -2.35674e+06 1.34682e+06 0 -2.35805e+06 1.36218e+06 0 -2.35901e+06 1.37766e+06 0 -2.35962e+06 1.39325e+06 0 -2.35985e+06 1.40895e+06 0 -2.35969e+06 1.42474e+06 0 -2.35911e+06 1.4406e+06 0 -2.35808e+06 1.45653e+06 0 -2.35659e+06 1.47251e+06 0 -2.35461e+06 1.48852e+06 0 -2.35213e+06 1.50453e+06 0 -2.34911e+06 1.52054e+06 0 -2.34554e+06 1.5365e+06 0 -2.34139e+06 1.5524e+06 0 -2.33665e+06 1.5682e+06 0 -2.33128e+06 1.58387e+06 0 -2.32528e+06 1.59937e+06 0 -2.31863e+06 1.61467e+06 0 -2.3113e+06 1.62973e+06 0 -2.30329e+06 1.6445e+06 0 -2.29458e+06 1.65894e+06 0 -2.28517e+06 1.67299e+06 0 -2.27505e+06 1.68661e+06 0 -2.26422e+06 1.69975e+06 0 -2.25268e+06 1.71234e+06 0 -2.24044e+06 1.72434e+06 0 -2.22751e+06 1.73568e+06 0 -2.21391e+06 1.74631e+06 0 -2.19965e+06 1.75618e+06 0 -2.18476e+06 1.76522e+06 0 -2.16927e+06 1.77339e+06 0 -2.15322e+06 1.78062e+06 0 -2.13665e+06 1.78687e+06 0 -2.11959e+06 1.79208e+06 0 -2.10211e+06 1.79622e+06 0 -2.08425e+06 1.79925e+06 0 -2.06606e+06 1.80112e+06 0 -2.04761e+06 1.8018e+06 0 -2.02896e+06 1.80127e+06 0 -2.01017e+06 1.79951e+06 0 -1.99129e+06 1.7965e+06 0 -1.9724e+06 1.79224e+06 0 -1.95355e+06 1.7867e+06 0 -1.93481e+06 1.7799e+06 0 -1.91623e+06 1.77184e+06 0 -1.89788e+06 1.76253e+06 0 -1.87981e+06 1.75197e+06 0 -1.86207e+06 1.74019e+06 0 -1.84471e+06 1.72721e+06 0 -1.82777e+06 1.71305e+06 0 -1.8113e+06 1.69773e+06 0 -1.79534e+06 1.68128e+06 0 -1.77991e+06 1.66373e+06 0 -1.76505e+06 1.6451e+06 0 -1.75078e+06 1.62542e+06 0 -1.73713e+06 1.60472e+06 0 -1.72411e+06 1.58303e+06 0 -1.71175e+06 1.56037e+06 0 -1.70005e+06 1.53677e+06 0 -1.68902e+06 1.51225e+06 0 -1.67867e+06 1.48684e+06 0 -1.669e+06 1.46054e+06 0 -1.66002e+06 1.43339e+06 0 -1.65172e+06 1.40538e+06 0 -1.64411e+06 1.37654e+06 0 -1.63718e+06 1.34686e+06 0 -1.63092e+06 1.31636e+06 0 -1.62533e+06 1.28504e+06 0 -1.6204e+06 1.25289e+06 0 -1.61612e+06 1.21991e+06 0 -1.61248e+06 1.18609e+06 0 -1.60948e+06 1.15141e+06 0 -1.60711e+06 1.11585e+06 0 -1.60535e+06 1.0794e+06 0 -1.60419e+06 1.04202e+06 0 -1.60363e+06 1.00367e+06 0 -1.60366e+06 964322 0 -1.60426e+06 923926 0 -1.60545e+06 882428 0 -1.60721e+06 839766 0 -1.60955e+06 795872 0 -1.61247e+06 750666 0 -1.61601e+06 704056 0 -1.62019e+06 655939 0 -1.62506e+06 606194 0 -1.63069e+06 554681 0 -1.63721e+06 501238 0 -1.64478e+06 445669 0 -1.65364e+06 387737 0 -1.66416e+06 327165 0 -1.67687e+06 263571 0 -1.69257e+06 196579 0 -1.71264e+06 125437 0 -1.73885e+06 49920.5 0 -1.77532e+06 -31844.4 0 -1.82718e+06 -118138 0 -1.90919e+06 -212333 0 -2.04502e+06 -295963 0 -2.29834e+06 -313201 0 -2.55595e+06 -1.2666e-07 0 -2.24078e+06 976315 0 -2.24608e+06 987715 0 -2.25135e+06 999236 0 -2.25658e+06 1.01088e+06 0 -2.26177e+06 1.02265e+06 0 -2.26691e+06 1.03454e+06 0 -2.272e+06 1.04657e+06 0 -2.27703e+06 1.05872e+06 0 -2.28199e+06 1.07101e+06 0 -2.28688e+06 1.08344e+06 0 -2.29169e+06 1.096e+06 0 -2.29641e+06 1.10871e+06 0 -2.30104e+06 1.12156e+06 0 -2.30556e+06 1.13455e+06 0 -2.30998e+06 1.14768e+06 0 -2.31427e+06 1.16097e+06 0 -2.31843e+06 1.1744e+06 0 -2.32244e+06 1.18798e+06 0 -2.32631e+06 1.20171e+06 0 -2.33001e+06 1.21559e+06 0 -2.33353e+06 1.22962e+06 0 -2.33687e+06 1.2438e+06 0 -2.34e+06 1.25813e+06 0 -2.34291e+06 1.27261e+06 0 -2.34559e+06 1.28723e+06 0 -2.34803e+06 1.30199e+06 0 -2.3502e+06 1.3169e+06 0 -2.35209e+06 1.33194e+06 0 -2.35369e+06 1.34711e+06 0 -2.35497e+06 1.36241e+06 0 -2.35591e+06 1.37782e+06 0 -2.3565e+06 1.39334e+06 0 -2.35671e+06 1.40896e+06 0 -2.35653e+06 1.42466e+06 0 -2.35593e+06 1.44044e+06 0 -2.3549e+06 1.45628e+06 0 -2.3534e+06 1.47216e+06 0 -2.35142e+06 1.48807e+06 0 -2.34894e+06 1.50398e+06 0 -2.34593e+06 1.51988e+06 0 -2.34237e+06 1.53573e+06 0 -2.33823e+06 1.55151e+06 0 -2.33351e+06 1.56719e+06 0 -2.32818e+06 1.58273e+06 0 -2.32221e+06 1.59811e+06 0 -2.3156e+06 1.61328e+06 0 -2.30833e+06 1.6282e+06 0 -2.30038e+06 1.64284e+06 0 -2.29175e+06 1.65713e+06 0 -2.28242e+06 1.67105e+06 0 -2.27239e+06 1.68453e+06 0 -2.26166e+06 1.69752e+06 0 -2.25024e+06 1.70997e+06 0 -2.23812e+06 1.72183e+06 0 -2.22533e+06 1.73304e+06 0 -2.21187e+06 1.74354e+06 0 -2.19777e+06 1.75328e+06 0 -2.18305e+06 1.7622e+06 0 -2.16774e+06 1.77025e+06 0 -2.15188e+06 1.77738e+06 0 -2.13551e+06 1.78352e+06 0 -2.11867e+06 1.78865e+06 0 -2.1014e+06 1.79271e+06 0 -2.08376e+06 1.79566e+06 0 -2.06581e+06 1.79748e+06 0 -2.0476e+06 1.79811e+06 0 -2.02919e+06 1.79755e+06 0 -2.01064e+06 1.79577e+06 0 -1.99202e+06 1.79275e+06 0 -1.97338e+06 1.78848e+06 0 -1.95478e+06 1.78297e+06 0 -1.93629e+06 1.77619e+06 0 -1.91797e+06 1.76817e+06 0 -1.89987e+06 1.75891e+06 0 -1.88204e+06 1.74841e+06 0 -1.86454e+06 1.73671e+06 0 -1.84742e+06 1.72381e+06 0 -1.83071e+06 1.70973e+06 0 -1.81447e+06 1.69451e+06 0 -1.79873e+06 1.67816e+06 0 -1.78352e+06 1.66072e+06 0 -1.76887e+06 1.6422e+06 0 -1.75481e+06 1.62265e+06 0 -1.74136e+06 1.60207e+06 0 -1.72854e+06 1.58051e+06 0 -1.71636e+06 1.55798e+06 0 -1.70485e+06 1.53452e+06 0 -1.694e+06 1.51013e+06 0 -1.68383e+06 1.48485e+06 0 -1.67433e+06 1.4587e+06 0 -1.66552e+06 1.43167e+06 0 -1.65739e+06 1.40381e+06 0 -1.64995e+06 1.3751e+06 0 -1.64318e+06 1.34556e+06 0 -1.63709e+06 1.3152e+06 0 -1.63166e+06 1.28401e+06 0 -1.62689e+06 1.25199e+06 0 -1.62278e+06 1.21914e+06 0 -1.61932e+06 1.18544e+06 0 -1.61649e+06 1.15089e+06 0 -1.6143e+06 1.11546e+06 0 -1.61272e+06 1.07913e+06 0 -1.61175e+06 1.04186e+06 0 -1.61139e+06 1.00364e+06 0 -1.61162e+06 964407 0 -1.61244e+06 924127 0 -1.61385e+06 882745 0 -1.61585e+06 840201 0 -1.61844e+06 796425 0 -1.62164e+06 751339 0 -1.62547e+06 704856 0 -1.62996e+06 656873 0 -1.63516e+06 607276 0 -1.64116e+06 555930 0 -1.64808e+06 502682 0 -1.65609e+06 447348 0 -1.66545e+06 389715 0 -1.67652e+06 329521 0 -1.68985e+06 266457 0 -1.70629e+06 200156 0 -1.72714e+06 130122 0 -1.75438e+06 56033.8 0 -1.79175e+06 -22970.6 0 -1.84488e+06 -105608 0 -1.92647e+06 -191324 0 -2.05827e+06 -261536 0 -2.27688e+06 -256683 0 -2.4616e+06 3.80445e-07 0 -2.23851e+06 977375 0 -2.24379e+06 988770 0 -2.24903e+06 1.00028e+06 0 -2.25424e+06 1.01192e+06 0 -2.2594e+06 1.02368e+06 0 -2.26452e+06 1.03556e+06 0 -2.26958e+06 1.04758e+06 0 -2.27458e+06 1.05972e+06 0 -2.27952e+06 1.072e+06 0 -2.28438e+06 1.08441e+06 0 -2.28916e+06 1.09696e+06 0 -2.29386e+06 1.10964e+06 0 -2.29846e+06 1.12247e+06 0 -2.30295e+06 1.13544e+06 0 -2.30734e+06 1.14855e+06 0 -2.3116e+06 1.16181e+06 0 -2.31573e+06 1.17521e+06 0 -2.31972e+06 1.18876e+06 0 -2.32355e+06 1.20246e+06 0 -2.32722e+06 1.21631e+06 0 -2.33071e+06 1.2303e+06 0 -2.33402e+06 1.24444e+06 0 -2.33712e+06 1.25873e+06 0 -2.34001e+06 1.27316e+06 0 -2.34266e+06 1.28774e+06 0 -2.34507e+06 1.30245e+06 0 -2.34721e+06 1.3173e+06 0 -2.34908e+06 1.33229e+06 0 -2.35065e+06 1.3474e+06 0 -2.3519e+06 1.36263e+06 0 -2.35282e+06 1.37797e+06 0 -2.35339e+06 1.39342e+06 0 -2.35359e+06 1.40896e+06 0 -2.35339e+06 1.42458e+06 0 -2.35278e+06 1.44028e+06 0 -2.35173e+06 1.45603e+06 0 -2.35023e+06 1.47182e+06 0 -2.34825e+06 1.48763e+06 0 -2.34577e+06 1.50344e+06 0 -2.34276e+06 1.51922e+06 0 -2.33921e+06 1.53496e+06 0 -2.3351e+06 1.55063e+06 0 -2.3304e+06 1.56619e+06 0 -2.3251e+06 1.58161e+06 0 -2.31917e+06 1.59686e+06 0 -2.3126e+06 1.6119e+06 0 -2.30539e+06 1.62669e+06 0 -2.2975e+06 1.64119e+06 0 -2.28894e+06 1.65535e+06 0 -2.27969e+06 1.66912e+06 0 -2.26975e+06 1.68246e+06 0 -2.25913e+06 1.69532e+06 0 -2.24782e+06 1.70763e+06 0 -2.23583e+06 1.71935e+06 0 -2.22317e+06 1.73043e+06 0 -2.20986e+06 1.7408e+06 0 -2.19591e+06 1.75042e+06 0 -2.18136e+06 1.75922e+06 0 -2.16623e+06 1.76715e+06 0 -2.15056e+06 1.77417e+06 0 -2.13439e+06 1.78022e+06 0 -2.11775e+06 1.78526e+06 0 -2.10071e+06 1.78924e+06 0 -2.08329e+06 1.79213e+06 0 -2.06557e+06 1.79388e+06 0 -2.0476e+06 1.79447e+06 0 -2.02943e+06 1.79388e+06 0 -2.01112e+06 1.79207e+06 0 -1.99275e+06 1.78905e+06 0 -1.97435e+06 1.78478e+06 0 -1.95601e+06 1.77928e+06 0 -1.93777e+06 1.77253e+06 0 -1.91969e+06 1.76455e+06 0 -1.90184e+06 1.75534e+06 0 -1.88425e+06 1.7449e+06 0 -1.86699e+06 1.73327e+06 0 -1.85011e+06 1.72045e+06 0 -1.83363e+06 1.70646e+06 0 -1.81762e+06 1.69133e+06 0 -1.8021e+06 1.67509e+06 0 -1.7871e+06 1.65775e+06 0 -1.77266e+06 1.63935e+06 0 -1.75881e+06 1.61992e+06 0 -1.74556e+06 1.59947e+06 0 -1.73293e+06 1.57803e+06 0 -1.72095e+06 1.55563e+06 0 -1.70962e+06 1.5323e+06 0 -1.69895e+06 1.50805e+06 0 -1.68896e+06 1.4829e+06 0 -1.67964e+06 1.45688e+06 0 -1.671e+06 1.43e+06 0 -1.66304e+06 1.40226e+06 0 -1.65576e+06 1.37369e+06 0 -1.64916e+06 1.34429e+06 0 -1.64323e+06 1.31406e+06 0 -1.63797e+06 1.283e+06 0 -1.63337e+06 1.25112e+06 0 -1.62943e+06 1.2184e+06 0 -1.62613e+06 1.18483e+06 0 -1.62348e+06 1.1504e+06 0 -1.62146e+06 1.1151e+06 0 -1.62006e+06 1.07889e+06 0 -1.61929e+06 1.04175e+06 0 -1.61912e+06 1.00364e+06 0 -1.61956e+06 964533 0 -1.62059e+06 924373 0 -1.62223e+06 883109 0 -1.62447e+06 840684 0 -1.62731e+06 797029 0 -1.63078e+06 752069 0 -1.6349e+06 705716 0 -1.63969e+06 657873 0 -1.64523e+06 608429 0 -1.6516e+06 557256 0 -1.65891e+06 504210 0 -1.66735e+06 449119 0 -1.67718e+06 391793 0 -1.68878e+06 331994 0 -1.70271e+06 269468 0 -1.71982e+06 203893 0 -1.7414e+06 134950 0 -1.7695e+06 62378.7 0 -1.80761e+06 -13999.2 0 -1.86142e+06 -92844.1 0 -1.94191e+06 -170902 0 -2.06757e+06 -229452 0 -2.25516e+06 -211214 0 -2.39221e+06 4.84288e-08 0 -2.23624e+06 978432 0 -2.2415e+06 989820 0 -2.24672e+06 1.00133e+06 0 -2.2519e+06 1.01295e+06 0 -2.25704e+06 1.0247e+06 0 -2.26213e+06 1.03658e+06 0 -2.26717e+06 1.04858e+06 0 -2.27214e+06 1.06071e+06 0 -2.27705e+06 1.07297e+06 0 -2.28189e+06 1.08537e+06 0 -2.28664e+06 1.0979e+06 0 -2.29131e+06 1.11057e+06 0 -2.29588e+06 1.12338e+06 0 -2.30035e+06 1.13632e+06 0 -2.3047e+06 1.14941e+06 0 -2.30894e+06 1.16264e+06 0 -2.31304e+06 1.17602e+06 0 -2.31699e+06 1.18954e+06 0 -2.3208e+06 1.20321e+06 0 -2.32444e+06 1.21702e+06 0 -2.3279e+06 1.23098e+06 0 -2.33118e+06 1.24508e+06 0 -2.33425e+06 1.25933e+06 0 -2.33711e+06 1.27371e+06 0 -2.33974e+06 1.28824e+06 0 -2.34212e+06 1.30291e+06 0 -2.34424e+06 1.3177e+06 0 -2.34608e+06 1.33263e+06 0 -2.34762e+06 1.34768e+06 0 -2.34885e+06 1.36284e+06 0 -2.34975e+06 1.37812e+06 0 -2.3503e+06 1.39349e+06 0 -2.35048e+06 1.40896e+06 0 -2.35027e+06 1.4245e+06 0 -2.34964e+06 1.44011e+06 0 -2.34859e+06 1.45577e+06 0 -2.34708e+06 1.47147e+06 0 -2.3451e+06 1.48718e+06 0 -2.34262e+06 1.50289e+06 0 -2.33962e+06 1.51857e+06 0 -2.33608e+06 1.5342e+06 0 -2.33199e+06 1.54975e+06 0 -2.32731e+06 1.56519e+06 0 -2.32204e+06 1.58049e+06 0 -2.31615e+06 1.59561e+06 0 -2.30963e+06 1.61052e+06 0 -2.30247e+06 1.62518e+06 0 -2.29465e+06 1.63955e+06 0 -2.28616e+06 1.65357e+06 0 -2.27699e+06 1.66721e+06 0 -2.26715e+06 1.68041e+06 0 -2.25662e+06 1.69313e+06 0 -2.24543e+06 1.70531e+06 0 -2.23356e+06 1.7169e+06 0 -2.22103e+06 1.72785e+06 0 -2.20787e+06 1.73809e+06 0 -2.19408e+06 1.74758e+06 0 -2.1797e+06 1.75627e+06 0 -2.16475e+06 1.76409e+06 0 -2.14927e+06 1.771e+06 0 -2.13329e+06 1.77696e+06 0 -2.11686e+06 1.78191e+06 0 -2.10002e+06 1.78581e+06 0 -2.08283e+06 1.78863e+06 0 -2.06534e+06 1.79033e+06 0 -2.0476e+06 1.79088e+06 0 -2.02967e+06 1.79025e+06 0 -2.01161e+06 1.78843e+06 0 -1.99348e+06 1.78539e+06 0 -1.97533e+06 1.78113e+06 0 -1.95723e+06 1.77564e+06 0 -1.93924e+06 1.76893e+06 0 -1.92141e+06 1.76098e+06 0 -1.9038e+06 1.75181e+06 0 -1.88645e+06 1.74144e+06 0 -1.86943e+06 1.72987e+06 0 -1.85278e+06 1.71713e+06 0 -1.83654e+06 1.70323e+06 0 -1.82075e+06 1.6882e+06 0 -1.80545e+06 1.67206e+06 0 -1.79067e+06 1.65483e+06 0 -1.77644e+06 1.63654e+06 0 -1.76279e+06 1.61722e+06 0 -1.74974e+06 1.5969e+06 0 -1.73731e+06 1.57559e+06 0 -1.72551e+06 1.55332e+06 0 -1.71436e+06 1.53012e+06 0 -1.70388e+06 1.506e+06 0 -1.69406e+06 1.48099e+06 0 -1.68491e+06 1.4551e+06 0 -1.67645e+06 1.42835e+06 0 -1.66866e+06 1.40076e+06 0 -1.66154e+06 1.37232e+06 0 -1.65511e+06 1.34305e+06 0 -1.64934e+06 1.31296e+06 0 -1.64425e+06 1.28203e+06 0 -1.63982e+06 1.25028e+06 0 -1.63604e+06 1.21769e+06 0 -1.63292e+06 1.18425e+06 0 -1.63044e+06 1.14996e+06 0 -1.6286e+06 1.11478e+06 0 -1.62739e+06 1.07869e+06 0 -1.6268e+06 1.04167e+06 0 -1.62683e+06 1.00369e+06 0 -1.62747e+06 964702 0 -1.62872e+06 924662 0 -1.63058e+06 883520 0 -1.63306e+06 841217 0 -1.63616e+06 797686 0 -1.6399e+06 752854 0 -1.6443e+06 706635 0 -1.6494e+06 658936 0 -1.65527e+06 609650 0 -1.662e+06 558656 0 -1.6697e+06 505818 0 -1.67856e+06 450981 0 -1.68885e+06 393969 0 -1.70096e+06 334578 0 -1.71545e+06 272597 0 -1.73317e+06 207771 0 -1.75541e+06 139912 0 -1.78422e+06 68901 0 -1.82287e+06 -4959.48 0 -1.87688e+06 -80012.2 0 -1.95566e+06 -151230 0 -2.07389e+06 -199951 0 -2.23468e+06 -174501 0 -2.33933e+06 3.00817e-07 0 -2.2