<?xml version="1.0"?> 
<VTKFile type="StructuredGrid" version="0.1"> 
<StructuredGrid WholeExtent="0 127 0 127 0 0"> 
<Piece Extent="0 127 0 127 0 0"> 
<PointData>
<DataArray type="Float32" Name="|E|" format="ascii" NumberOfComponents="3"> 
-1.44208e+06 1.00081e+06 0 -1.44323e+06 1.00507e+06 0 -1.44438e+06 1.00933e+06 0 -1.44554e+06 1.01359e+06 0 -1.4467e+06 1.01785e+06 0 -1.44787e+06 1.02211e+06 0 -1.44903e+06 1.02638e+06 0 -1.45021e+06 1.03065e+06 0 -1.45138e+06 1.03492e+06 0 -1.45256e+06 1.0392e+06 0 -1.45375e+06 1.04347e+06 0 -1.45493e+06 1.04775e+06 0 -1.45613e+06 1.05204e+06 0 -1.45732e+06 1.05632e+06 0 -1.45852e+06 1.06061e+06 0 -1.45972e+06 1.0649e+06 0 -1.46093e+06 1.06919e+06 0 -1.46214e+06 1.07348e+06 0 -1.46336e+06 1.07778e+06 0 -1.46458e+06 1.08207e+06 0 -1.4658e+06 1.08637e+06 0 -1.46703e+06 1.09068e+06 0 -1.46826e+06 1.09498e+06 0 -1.46949e+06 1.09929e+06 0 -1.47073e+06 1.1036e+06 0 -1.47197e+06 1.10791e+06 0 -1.47322e+06 1.11222e+06 0 -1.47447e+06 1.11654e+06 0 -1.47573e+06 1.12085e+06 0 -1.47698e+06 1.12517e+06 0 -1.47825e+06 1.12949e+06 0 -1.47951e+06 1.13381e+06 0 -1.48078e+06 1.13814e+06 0 -1.48206e+06 1.14247e+06 0 -1.48334e+06 1.14679e+06 0 -1.48462e+06 1.15112e+06 0 -1.48591e+06 1.15546e+06 0 -1.4872e+06 1.15979e+06 0 -1.4885e+06 1.16412e+06 0 -1.4898e+06 1.16846e+06 0 -1.4911e+06 1.1728e+06 0 -1.49241e+06 1.17714e+06 0 -1.49372e+06 1.18148e+06 0 -1.49504e+06 1.18583e+06 0 -1.49636e+06 1.19017e+06 0 -1.49769e+06 1.19452e+06 0 -1.49902e+06 1.19886e+06 0 -1.50035e+06 1.20321e+06 0 -1.50169e+06 1.20756e+06 0 -1.50304e+06 1.21191e+06 0 -1.50438e+06 1.21627e+06 0 -1.50574e+06 1.22062e+06 0 -1.50709e+06 1.22498e+06 0 -1.50846e+06 1.22933e+06 0 -1.50982e+06 1.23369e+06 0 -1.51119e+06 1.23805e+06 0 -1.51257e+06 1.24241e+06 0 -1.51395e+06 1.24677e+06 0 -1.51534e+06 1.25113e+06 0 -1.51673e+06 1.25549e+06 0 -1.51812e+06 1.25985e+06 0 -1.51952e+06 1.26422e+06 0 -1.52093e+06 1.26858e+06 0 -1.52234e+06 1.27295e+06 0 -1.52375e+06 1.27731e+06 0 -1.52517e+06 1.28168e+06 0 -1.5266e+06 1.28605e+06 0 -1.52803e+06 1.29042e+06 0 -1.52947e+06 1.29478e+06 0 -1.53091e+06 1.29915e+06 0 -1.53236e+06 1.30352e+06 0 -1.53381e+06 1.30789e+06 0 -1.53527e+06 1.31226e+06 0 -1.53673e+06 1.31663e+06 0 -1.5382e+06 1.321e+06 0 -1.53968e+06 1.32537e+06 0 -1.54116e+06 1.32974e+06 0 -1.54264e+06 1.33411e+06 0 -1.54414e+06 1.33848e+06 0 -1.54563e+06 1.34285e+06 0 -1.54714e+06 1.34722e+06 0 -1.54865e+06 1.3516e+06 0 -1.55017e+06 1.35597e+06 0 -1.55169e+06 1.36034e+06 0 -1.55322e+06 1.36471e+06 0 -1.55475e+06 1.36907e+06 0 -1.5563e+06 1.37344e+06 0 -1.55784e+06 1.37781e+06 0 -1.5594e+06 1.38218e+06 0 -1.56096e+06 1.38655e+06 0 -1.56253e+06 1.39092e+06 0 -1.56411e+06 1.39528e+06 0 -1.56569e+06 1.39965e+06 0 -1.56728e+06 1.40401e+06 0 -1.56888e+06 1.40838e+06 0 -1.57048e+06 1.41274e+06 0 -1.57209e+06 1.4171e+06 0 -1.57371e+06 1.42146e+06 0 -1.57534e+06 1.42582e+06 0 -1.57697e+06 1.43018e+06 0 -1.57862e+06 1.43454e+06 0 -1.58027e+06 1.4389e+06 0 -1.58193e+06 1.44326e+06 0 -1.58359e+06 1.44761e+06 0 -1.58527e+06 1.45196e+06 0 -1.58695e+06 1.45632e+06 0 -1.58864e+06 1.46067e+06 0 -1.59034e+06 1.46502e+06 0 -1.59205e+06 1.46937e+06 0 -1.59377e+06 1.47371e+06 0 -1.5955e+06 1.47806e+06 0 -1.59723e+06 1.4824e+06 0 -1.59898e+06 1.48674e+06 0 -1.60073e+06 1.49108e+06 0 -1.6025e+06 1.49542e+06 0 -1.60427e+06 1.49976e+06 0 -1.60606e+06 1.50409e+06 0 -1.60785e+06 1.50842e+06 0 -1.60965e+06 1.51275e+06 0 -1.61147e+06 1.51708e+06 0 -1.61329e+06 1.52141e+06 0 -1.61513e+06 1.52573e+06 0 -1.61698e+06 1.53005e+06 0 -1.61883e+06 1.53437e+06 0 -1.6207e+06 1.53869e+06 0 -1.62258e+06 1.54301e+06 0 -1.62447e+06 1.54732e+06 0 -1.62637e+06 1.55163e+06 0 -1.4382e+06 1.00108e+06 0 -1.43936e+06 1.00536e+06 0 -1.44052e+06 1.00965e+06 0 -1.44168e+06 1.01394e+06 0 -1.44284e+06 1.01823e+06 0 -1.44401e+06 1.02253e+06 0 -1.44519e+06 1.02683e+06 0 -1.44637e+06 1.03113e+06 0 -1.44755e+06 1.03543e+06 0 -1.44873e+06 1.03974e+06 0 -1.44992e+06 1.04404e+06 0 -1.45111e+06 1.04835e+06 0 -1.45231e+06 1.05267e+06 0 -1.45351e+06 1.05698e+06 0 -1.45472e+06 1.0613e+06 0 -1.45593e+06 1.06562e+06 0 -1.45714e+06 1.06994e+06 0 -1.45836e+06 1.07427e+06 0 -1.45958e+06 1.07859e+06 0 -1.4608e+06 1.08292e+06 0 -1.46203e+06 1.08726e+06 0 -1.46326e+06 1.09159e+06 0 -1.4645e+06 1.09593e+06 0 -1.46574e+06 1.10026e+06 0 -1.46699e+06 1.1046e+06 0 -1.46823e+06 1.10895e+06 0 -1.46949e+06 1.11329e+06 0 -1.47074e+06 1.11764e+06 0 -1.47201e+06 1.12199e+06 0 -1.47327e+06 1.12634e+06 0 -1.47454e+06 1.13069e+06 0 -1.47581e+06 1.13504e+06 0 -1.47709e+06 1.1394e+06 0 -1.47837e+06 1.14376e+06 0 -1.47966e+06 1.14812e+06 0 -1.48095e+06 1.15248e+06 0 -1.48224e+06 1.15685e+06 0 -1.48354e+06 1.16121e+06 0 -1.48485e+06 1.16558e+06 0 -1.48615e+06 1.16995e+06 0 -1.48747e+06 1.17432e+06 0 -1.48878e+06 1.17869e+06 0 -1.4901e+06 1.18306e+06 0 -1.49143e+06 1.18744e+06 0 -1.49276e+06 1.19182e+06 0 -1.49409e+06 1.19619e+06 0 -1.49543e+06 1.20057e+06 0 -1.49677e+06 1.20496e+06 0 -1.49812e+06 1.20934e+06 0 -1.49947e+06 1.21372e+06 0 -1.50083e+06 1.21811e+06 0 -1.50219e+06 1.22249e+06 0 -1.50355e+06 1.22688e+06 0 -1.50493e+06 1.23127e+06 0 -1.5063e+06 1.23566e+06 0 -1.50768e+06 1.24005e+06 0 -1.50907e+06 1.24444e+06 0 -1.51046e+06 1.24884e+06 0 -1.51185e+06 1.25323e+06 0 -1.51325e+06 1.25763e+06 0 -1.51466e+06 1.26202e+06 0 -1.51607e+06 1.26642e+06 0 -1.51748e+06 1.27082e+06 0 -1.5189e+06 1.27522e+06 0 -1.52033e+06 1.27961e+06 0 -1.52176e+06 1.28401e+06 0 -1.52319e+06 1.28842e+06 0 -1.52463e+06 1.29282e+06 0 -1.52608e+06 1.29722e+06 0 -1.52753e+06 1.30162e+06 0 -1.52899e+06 1.30602e+06 0 -1.53045e+06 1.31043e+06 0 -1.53192e+06 1.31483e+06 0 -1.5334e+06 1.31923e+06 0 -1.53488e+06 1.32364e+06 0 -1.53636e+06 1.32804e+06 0 -1.53786e+06 1.33244e+06 0 -1.53935e+06 1.33685e+06 0 -1.54086e+06 1.34125e+06 0 -1.54237e+06 1.34566e+06 0 -1.54389e+06 1.35006e+06 0 -1.54541e+06 1.35447e+06 0 -1.54694e+06 1.35887e+06 0 -1.54847e+06 1.36327e+06 0 -1.55001e+06 1.36768e+06 0 -1.55156e+06 1.37208e+06 0 -1.55312e+06 1.37648e+06 0 -1.55468e+06 1.38089e+06 0 -1.55625e+06 1.38529e+06 0 -1.55782e+06 1.38969e+06 0 -1.55941e+06 1.39409e+06 0 -1.561e+06 1.39849e+06 0 -1.56259e+06 1.40289e+06 0 -1.5642e+06 1.40729e+06 0 -1.56581e+06 1.41169e+06 0 -1.56743e+06 1.41609e+06 0 -1.56906e+06 1.42049e+06 0 -1.57069e+06 1.42488e+06 0 -1.57233e+06 1.42928e+06 0 -1.57398e+06 1.43367e+06 0 -1.57564e+06 1.43807e+06 0 -1.57731e+06 1.44246e+06 0 -1.57898e+06 1.44685e+06 0 -1.58066e+06 1.45124e+06 0 -1.58235e+06 1.45563e+06 0 -1.58405e+06 1.46001e+06 0 -1.58576e+06 1.4644e+06 0 -1.58748e+06 1.46879e+06 0 -1.58921e+06 1.47317e+06 0 -1.59094e+06 1.47755e+06 0 -1.59269e+06 1.48193e+06 0 -1.59444e+06 1.48631e+06 0 -1.5962e+06 1.49069e+06 0 -1.59798e+06 1.49506e+06 0 -1.59976e+06 1.49944e+06 0 -1.60155e+06 1.50381e+06 0 -1.60336e+06 1.50818e+06 0 -1.60517e+06 1.51255e+06 0 -1.60699e+06 1.51691e+06 0 -1.60883e+06 1.52128e+06 0 -1.61067e+06 1.52564e+06 0 -1.61253e+06 1.53e+06 0 -1.6144e+06 1.53436e+06 0 -1.61627e+06 1.53872e+06 0 -1.61816e+06 1.54307e+06 0 -1.62006e+06 1.54742e+06 0 -1.62198e+06 1.55177e+06 0 -1.6239e+06 1.55612e+06 0 -1.43433e+06 1.00133e+06 0 -1.43549e+06 1.00565e+06 0 -1.43665e+06 1.00997e+06 0 -1.43782e+06 1.01429e+06 0 -1.43899e+06 1.01861e+06 0 -1.44016e+06 1.02294e+06 0 -1.44134e+06 1.02727e+06 0 -1.44252e+06 1.0316e+06 0 -1.44371e+06 1.03593e+06 0 -1.4449e+06 1.04027e+06 0 -1.44609e+06 1.04461e+06 0 -1.44729e+06 1.04895e+06 0 -1.44849e+06 1.0533e+06 0 -1.4497e+06 1.05764e+06 0 -1.45091e+06 1.06199e+06 0 -1.45212e+06 1.06634e+06 0 -1.45334e+06 1.0707e+06 0 -1.45457e+06 1.07505e+06 0 -1.45579e+06 1.07941e+06 0 -1.45702e+06 1.08377e+06 0 -1.45826e+06 1.08814e+06 0 -1.4595e+06 1.0925e+06 0 -1.46074e+06 1.09687e+06 0 -1.46199e+06 1.10124e+06 0 -1.46324e+06 1.10561e+06 0 -1.46449e+06 1.10998e+06 0 -1.46575e+06 1.11436e+06 0 -1.46701e+06 1.11874e+06 0 -1.46828e+06 1.12312e+06 0 -1.46955e+06 1.1275e+06 0 -1.47083e+06 1.13189e+06 0 -1.47211e+06 1.13627e+06 0 -1.47339e+06 1.14066e+06 0 -1.47468e+06 1.14505e+06 0 -1.47598e+06 1.14944e+06 0 -1.47727e+06 1.15384e+06 0 -1.47857e+06 1.15823e+06 0 -1.47988e+06 1.16263e+06 0 -1.48119e+06 1.16703e+06 0 -1.48251e+06 1.17143e+06 0 -1.48383e+06 1.17583e+06 0 -1.48515e+06 1.18024e+06 0 -1.48648e+06 1.18464e+06 0 -1.48781e+06 1.18905e+06 0 -1.48915e+06 1.19346e+06 0 -1.49049e+06 1.19787e+06 0 -1.49183e+06 1.20229e+06 0 -1.49319e+06 1.2067e+06 0 -1.49454e+06 1.21111e+06 0 -1.4959e+06 1.21553e+06 0 -1.49727e+06 1.21995e+06 0 -1.49864e+06 1.22437e+06 0 -1.50001e+06 1.22879e+06 0 -1.50139e+06 1.23321e+06 0 -1.50277e+06 1.23763e+06 0 -1.50416e+06 1.24206e+06 0 -1.50556e+06 1.24648e+06 0 -1.50696e+06 1.25091e+06 0 -1.50836e+06 1.25534e+06 0 -1.50977e+06 1.25976e+06 0 -1.51118e+06 1.26419e+06 0 -1.5126e+06 1.26862e+06 0 -1.51403e+06 1.27305e+06 0 -1.51546e+06 1.27749e+06 0 -1.51689e+06 1.28192e+06 0 -1.51834e+06 1.28635e+06 0 -1.51978e+06 1.29078e+06 0 -1.52123e+06 1.29522e+06 0 -1.52269e+06 1.29965e+06 0 -1.52415e+06 1.30409e+06 0 -1.52562e+06 1.30853e+06 0 -1.5271e+06 1.31296e+06 0 -1.52858e+06 1.3174e+06 0 -1.53006e+06 1.32184e+06 0 -1.53155e+06 1.32627e+06 0 -1.53305e+06 1.33071e+06 0 -1.53455e+06 1.33515e+06 0 -1.53606e+06 1.33959e+06 0 -1.53758e+06 1.34402e+06 0 -1.5391e+06 1.34846e+06 0 -1.54063e+06 1.3529e+06 0 -1.54216e+06 1.35734e+06 0 -1.54371e+06 1.36178e+06 0 -1.54525e+06 1.36622e+06 0 -1.54681e+06 1.37065e+06 0 -1.54837e+06 1.37509e+06 0 -1.54994e+06 1.37953e+06 0 -1.55151e+06 1.38397e+06 0 -1.55309e+06 1.3884e+06 0 -1.55468e+06 1.39284e+06 0 -1.55628e+06 1.39727e+06 0 -1.55788e+06 1.40171e+06 0 -1.55949e+06 1.40614e+06 0 -1.56111e+06 1.41058e+06 0 -1.56274e+06 1.41501e+06 0 -1.56437e+06 1.41944e+06 0 -1.56601e+06 1.42388e+06 0 -1.56766e+06 1.42831e+06 0 -1.56932e+06 1.43274e+06 0 -1.57099e+06 1.43717e+06 0 -1.57266e+06 1.44159e+06 0 -1.57434e+06 1.44602e+06 0 -1.57603e+06 1.45045e+06 0 -1.57773e+06 1.45487e+06 0 -1.57944e+06 1.4593e+06 0 -1.58115e+06 1.46372e+06 0 -1.58288e+06 1.46814e+06 0 -1.58461e+06 1.47256e+06 0 -1.58636e+06 1.47698e+06 0 -1.58811e+06 1.4814e+06 0 -1.58987e+06 1.48581e+06 0 -1.59164e+06 1.49023e+06 0 -1.59343e+06 1.49464e+06 0 -1.59522e+06 1.49905e+06 0 -1.59702e+06 1.50346e+06 0 -1.59883e+06 1.50787e+06 0 -1.60065e+06 1.51228e+06 0 -1.60249e+06 1.51668e+06 0 -1.60433e+06 1.52108e+06 0 -1.60618e+06 1.52549e+06 0 -1.60805e+06 1.52988e+06 0 -1.60993e+06 1.53428e+06 0 -1.61181e+06 1.53868e+06 0 -1.61371e+06 1.54307e+06 0 -1.61562e+06 1.54746e+06 0 -1.61755e+06 1.55185e+06 0 -1.61948e+06 1.55624e+06 0 -1.62143e+06 1.56062e+06 0 -1.43045e+06 1.00159e+06 0 -1.43161e+06 1.00593e+06 0 -1.43278e+06 1.01028e+06 0 -1.43395e+06 1.01464e+06 0 -1.43513e+06 1.01899e+06 0 -1.4363e+06 1.02335e+06 0 -1.43749e+06 1.02771e+06 0 -1.43868e+06 1.03207e+06 0 -1.43987e+06 1.03644e+06 0 -1.44106e+06 1.0408e+06 0 -1.44226e+06 1.04517e+06 0 -1.44347e+06 1.04955e+06 0 -1.44467e+06 1.05392e+06 0 -1.44588e+06 1.0583e+06 0 -1.4471e+06 1.06268e+06 0 -1.44832e+06 1.06706e+06 0 -1.44954e+06 1.07145e+06 0 -1.45077e+06 1.07584e+06 0 -1.452e+06 1.08023e+06 0 -1.45324e+06 1.08462e+06 0 -1.45448e+06 1.08901e+06 0 -1.45573e+06 1.09341e+06 0 -1.45697e+06 1.09781e+06 0 -1.45823e+06 1.10221e+06 0 -1.45948e+06 1.10661e+06 0 -1.46075e+06 1.11102e+06 0 -1.46201e+06 1.11543e+06 0 -1.46328e+06 1.11984e+06 0 -1.46455e+06 1.12425e+06 0 -1.46583e+06 1.12866e+06 0 -1.46712e+06 1.13308e+06 0 -1.4684e+06 1.1375e+06 0 -1.46969e+06 1.14192e+06 0 -1.47099e+06 1.14634e+06 0 -1.47229e+06 1.15077e+06 0 -1.47359e+06 1.15519e+06 0 -1.4749e+06 1.15962e+06 0 -1.47622e+06 1.16405e+06 0 -1.47753e+06 1.16848e+06 0 -1.47886e+06 1.17292e+06 0 -1.48018e+06 1.17735e+06 0 -1.48151e+06 1.18179e+06 0 -1.48285e+06 1.18623e+06 0 -1.48419e+06 1.19067e+06 0 -1.48553e+06 1.19511e+06 0 -1.48688e+06 1.19955e+06 0 -1.48824e+06 1.204e+06 0 -1.4896e+06 1.20844e+06 0 -1.49096e+06 1.21289e+06 0 -1.49233e+06 1.21734e+06 0 -1.4937e+06 1.22179e+06 0 -1.49508e+06 1.22624e+06 0 -1.49646e+06 1.2307e+06 0 -1.49785e+06 1.23515e+06 0 -1.49925e+06 1.23961e+06 0 -1.50064e+06 1.24406e+06 0 -1.50205e+06 1.24852e+06 0 -1.50345e+06 1.25298e+06 0 -1.50487e+06 1.25744e+06 0 -1.50629e+06 1.2619e+06 0 -1.50771e+06 1.26636e+06 0 -1.50914e+06 1.27083e+06 0 -1.51057e+06 1.27529e+06 0 -1.51201e+06 1.27976e+06 0 -1.51346e+06 1.28422e+06 0 -1.51491e+06 1.28869e+06 0 -1.51637e+06 1.29316e+06 0 -1.51783e+06 1.29762e+06 0 -1.5193e+06 1.30209e+06 0 -1.52077e+06 1.30656e+06 0 -1.52225e+06 1.31103e+06 0 -1.52373e+06 1.3155e+06 0 -1.52522e+06 1.31997e+06 0 -1.52672e+06 1.32444e+06 0 -1.52822e+06 1.32891e+06 0 -1.52973e+06 1.33338e+06 0 -1.53125e+06 1.33786e+06 0 -1.53277e+06 1.34233e+06 0 -1.5343e+06 1.3468e+06 0 -1.53583e+06 1.35127e+06 0 -1.53737e+06 1.35575e+06 0 -1.53892e+06 1.36022e+06 0 -1.54047e+06 1.36469e+06 0 -1.54203e+06 1.36916e+06 0 -1.5436e+06 1.37363e+06 0 -1.54517e+06 1.37811e+06 0 -1.54675e+06 1.38258e+06 0 -1.54834e+06 1.38705e+06 0 -1.54994e+06 1.39152e+06 0 -1.55154e+06 1.39599e+06 0 -1.55315e+06 1.40046e+06 0 -1.55477e+06 1.40493e+06 0 -1.55639e+06 1.4094e+06 0 -1.55802e+06 1.41387e+06 0 -1.55966e+06 1.41834e+06 0 -1.56131e+06 1.42281e+06 0 -1.56297e+06 1.42727e+06 0 -1.56463e+06 1.43174e+06 0 -1.5663e+06 1.4362e+06 0 -1.56799e+06 1.44067e+06 0 -1.56967e+06 1.44513e+06 0 -1.57137e+06 1.44959e+06 0 -1.57308e+06 1.45406e+06 0 -1.57479e+06 1.45852e+06 0 -1.57652e+06 1.46298e+06 0 -1.57825e+06 1.46743e+06 0 -1.57999e+06 1.47189e+06 0 -1.58174e+06 1.47635e+06 0 -1.5835e+06 1.4808e+06 0 -1.58527e+06 1.48525e+06 0 -1.58705e+06 1.48971e+06 0 -1.58884e+06 1.49416e+06 0 -1.59064e+06 1.49861e+06 0 -1.59246e+06 1.50305e+06 0 -1.59428e+06 1.5075e+06 0 -1.59611e+06 1.51194e+06 0 -1.59795e+06 1.51639e+06 0 -1.5998e+06 1.52083e+06 0 -1.60166e+06 1.52527e+06 0 -1.60354e+06 1.52971e+06 0 -1.60542e+06 1.53414e+06 0 -1.60732e+06 1.53858e+06 0 -1.60923e+06 1.54301e+06 0 -1.61115e+06 1.54744e+06 0 -1.61308e+06 1.55187e+06 0 -1.61503e+06 1.55629e+06 0 -1.61698e+06 1.56072e+06 0 -1.61895e+06 1.56514e+06 0 -1.42657e+06 1.00184e+06 0 -1.42774e+06 1.00622e+06 0 -1.42891e+06 1.0106e+06 0 -1.43008e+06 1.01498e+06 0 -1.43126e+06 1.01937e+06 0 -1.43245e+06 1.02375e+06 0 -1.43363e+06 1.02815e+06 0 -1.43483e+06 1.03254e+06 0 -1.43602e+06 1.03694e+06 0 -1.43722e+06 1.04133e+06 0 -1.43843e+06 1.04574e+06 0 -1.43964e+06 1.05014e+06 0 -1.44085e+06 1.05455e+06 0 -1.44207e+06 1.05896e+06 0 -1.44329e+06 1.06337e+06 0 -1.44451e+06 1.06778e+06 0 -1.44574e+06 1.0722e+06 0 -1.44698e+06 1.07662e+06 0 -1.44821e+06 1.08104e+06 0 -1.44946e+06 1.08546e+06 0 -1.4507e+06 1.08989e+06 0 -1.45195e+06 1.09432e+06 0 -1.45321e+06 1.09875e+06 0 -1.45447e+06 1.10318e+06 0 -1.45573e+06 1.10762e+06 0 -1.457e+06 1.11205e+06 0 -1.45827e+06 1.11649e+06 0 -1.45954e+06 1.12094e+06 0 -1.46082e+06 1.12538e+06 0 -1.46211e+06 1.12983e+06 0 -1.4634e+06 1.13427e+06 0 -1.46469e+06 1.13872e+06 0 -1.46599e+06 1.14318e+06 0 -1.46729e+06 1.14763e+06 0 -1.4686e+06 1.15209e+06 0 -1.46991e+06 1.15655e+06 0 -1.47123e+06 1.16101e+06 0 -1.47255e+06 1.16547e+06 0 -1.47387e+06 1.16993e+06 0 -1.4752e+06 1.1744e+06 0 -1.47654e+06 1.17887e+06 0 -1.47787e+06 1.18334e+06 0 -1.47922e+06 1.18781e+06 0 -1.48057e+06 1.19228e+06 0 -1.48192e+06 1.19675e+06 0 -1.48328e+06 1.20123e+06 0 -1.48464e+06 1.20571e+06 0 -1.486e+06 1.21019e+06 0 -1.48738e+06 1.21467e+06 0 -1.48875e+06 1.21915e+06 0 -1.49014e+06 1.22363e+06 0 -1.49152e+06 1.22812e+06 0 -1.49291e+06 1.2326e+06 0 -1.49431e+06 1.23709e+06 0 -1.49571e+06 1.24158e+06 0 -1.49712e+06 1.24607e+06 0 -1.49853e+06 1.25056e+06 0 -1.49995e+06 1.25505e+06 0 -1.50137e+06 1.25955e+06 0 -1.5028e+06 1.26404e+06 0 -1.50423e+06 1.26854e+06 0 -1.50567e+06 1.27303e+06 0 -1.50711e+06 1.27753e+06 0 -1.50856e+06 1.28203e+06 0 -1.51002e+06 1.28653e+06 0 -1.51148e+06 1.29103e+06 0 -1.51295e+06 1.29553e+06 0 -1.51442e+06 1.30003e+06 0 -1.5159e+06 1.30453e+06 0 -1.51738e+06 1.30904e+06 0 -1.51887e+06 1.31354e+06 0 -1.52037e+06 1.31804e+06 0 -1.52187e+06 1.32255e+06 0 -1.52337e+06 1.32705e+06 0 -1.52489e+06 1.33156e+06 0 -1.52641e+06 1.33606e+06 0 -1.52794e+06 1.34057e+06 0 -1.52947e+06 1.34507e+06 0 -1.53101e+06 1.34958e+06 0 -1.53255e+06 1.35409e+06 0 -1.53411e+06 1.35859e+06 0 -1.53567e+06 1.3631e+06 0 -1.53723e+06 1.36761e+06 0 -1.5388e+06 1.37211e+06 0 -1.54038e+06 1.37662e+06 0 -1.54197e+06 1.38113e+06 0 -1.54357e+06 1.38563e+06 0 -1.54517e+06 1.39014e+06 0 -1.54678e+06 1.39464e+06 0 -1.54839e+06 1.39915e+06 0 -1.55001e+06 1.40365e+06 0 -1.55165e+06 1.40816e+06 0 -1.55328e+06 1.41266e+06 0 -1.55493e+06 1.41717e+06 0 -1.55659e+06 1.42167e+06 0 -1.55825e+06 1.42617e+06 0 -1.55992e+06 1.43068e+06 0 -1.5616e+06 1.43518e+06 0 -1.56329e+06 1.43968e+06 0 -1.56498e+06 1.44418e+06 0 -1.56669e+06 1.44868e+06 0 -1.5684e+06 1.45317e+06 0 -1.57012e+06 1.45767e+06 0 -1.57185e+06 1.46217e+06 0 -1.57359e+06 1.46666e+06 0 -1.57534e+06 1.47116e+06 0 -1.5771e+06 1.47565e+06 0 -1.57887e+06 1.48014e+06 0 -1.58065e+06 1.48463e+06 0 -1.58244e+06 1.48912e+06 0 -1.58424e+06 1.49361e+06 0 -1.58604e+06 1.4981e+06 0 -1.58786e+06 1.50258e+06 0 -1.58969e+06 1.50707e+06 0 -1.59153e+06 1.51155e+06 0 -1.59338e+06 1.51603e+06 0 -1.59524e+06 1.52051e+06 0 -1.59711e+06 1.52499e+06 0 -1.59899e+06 1.52946e+06 0 -1.60089e+06 1.53394e+06 0 -1.6028e+06 1.53841e+06 0 -1.60471e+06 1.54288e+06 0 -1.60664e+06 1.54735e+06 0 -1.60858e+06 1.55182e+06 0 -1.61054e+06 1.55629e+06 0 -1.6125e+06 1.56075e+06 0 -1.61448e+06 1.56521e+06 0 -1.61648e+06 1.56967e+06 0 -1.42268e+06 1.00209e+06 0 -1.42386e+06 1.0065e+06 0 -1.42503e+06 1.01091e+06 0 -1.42621e+06 1.01532e+06 0 -1.4274e+06 1.01974e+06 0 -1.42859e+06 1.02416e+06 0 -1.42978e+06 1.02858e+06 0 -1.43098e+06 1.03301e+06 0 -1.43218e+06 1.03743e+06 0 -1.43338e+06 1.04186e+06 0 -1.43459e+06 1.0463e+06 0 -1.43581e+06 1.05073e+06 0 -1.43702e+06 1.05517e+06 0 -1.43825e+06 1.05961e+06 0 -1.43947e+06 1.06405e+06 0 -1.4407e+06 1.0685e+06 0 -1.44194e+06 1.07295e+06 0 -1.44318e+06 1.0774e+06 0 -1.44442e+06 1.08185e+06 0 -1.44567e+06 1.0863e+06 0 -1.44692e+06 1.09076e+06 0 -1.44818e+06 1.09522e+06 0 -1.44944e+06 1.09968e+06 0 -1.4507e+06 1.10415e+06 0 -1.45197e+06 1.10862e+06 0 -1.45324e+06 1.11309e+06 0 -1.45452e+06 1.11756e+06 0 -1.45581e+06 1.12203e+06 0 -1.45709e+06 1.12651e+06 0 -1.45838e+06 1.13099e+06 0 -1.45968e+06 1.13547e+06 0 -1.46098e+06 1.13995e+06 0 -1.46228e+06 1.14443e+06 0 -1.46359e+06 1.14892e+06 0 -1.46491e+06 1.15341e+06 0 -1.46622e+06 1.1579e+06 0 -1.46755e+06 1.16239e+06 0 -1.46887e+06 1.16689e+06 0 -1.47021e+06 1.17138e+06 0 -1.47154e+06 1.17588e+06 0 -1.47289e+06 1.18038e+06 0 -1.47423e+06 1.18488e+06 0 -1.47558e+06 1.18939e+06 0 -1.47694e+06 1.19389e+06 0 -1.4783e+06 1.1984e+06 0 -1.47966e+06 1.20291e+06 0 -1.48103e+06 1.20742e+06 0 -1.48241e+06 1.21193e+06 0 -1.48379e+06 1.21644e+06 0 -1.48517e+06 1.22096e+06 0 -1.48656e+06 1.22547e+06 0 -1.48796e+06 1.22999e+06 0 -1.48936e+06 1.23451e+06 0 -1.49076e+06 1.23903e+06 0 -1.49217e+06 1.24355e+06 0 -1.49359e+06 1.24808e+06 0 -1.49501e+06 1.2526e+06 0 -1.49644e+06 1.25713e+06 0 -1.49787e+06 1.26165e+06 0 -1.49931e+06 1.26618e+06 0 -1.50075e+06 1.27071e+06 0 -1.5022e+06 1.27524e+06 0 -1.50365e+06 1.27977e+06 0 -1.50511e+06 1.2843e+06 0 -1.50658e+06 1.28884e+06 0 -1.50805e+06 1.29337e+06 0 -1.50952e+06 1.2979e+06 0 -1.51101e+06 1.30244e+06 0 -1.51249e+06 1.30697e+06 0 -1.51399e+06 1.31151e+06 0 -1.51549e+06 1.31605e+06 0 -1.51699e+06 1.32059e+06 0 -1.51851e+06 1.32512e+06 0 -1.52003e+06 1.32966e+06 0 -1.52155e+06 1.3342e+06 0 -1.52308e+06 1.33874e+06 0 -1.52462e+06 1.34328e+06 0 -1.52616e+06 1.34782e+06 0 -1.52772e+06 1.35236e+06 0 -1.52927e+06 1.3569e+06 0 -1.53084e+06 1.36144e+06 0 -1.53241e+06 1.36599e+06 0 -1.53399e+06 1.37053e+06 0 -1.53557e+06 1.37507e+06 0 -1.53717e+06 1.37961e+06 0 -1.53877e+06 1.38415e+06 0 -1.54037e+06 1.38869e+06 0 -1.54199e+06 1.39323e+06 0 -1.54361e+06 1.39777e+06 0 -1.54524e+06 1.40231e+06 0 -1.54688e+06 1.40685e+06 0 -1.54852e+06 1.41139e+06 0 -1.55017e+06 1.41593e+06 0 -1.55184e+06 1.42047e+06 0 -1.5535e+06 1.42501e+06 0 -1.55518e+06 1.42955e+06 0 -1.55687e+06 1.43408e+06 0 -1.55856e+06 1.43862e+06 0 -1.56026e+06 1.44316e+06 0 -1.56198e+06 1.44769e+06 0 -1.5637e+06 1.45223e+06 0 -1.56542e+06 1.45676e+06 0 -1.56716e+06 1.46129e+06 0 -1.56891e+06 1.46583e+06 0 -1.57067e+06 1.47036e+06 0 -1.57243e+06 1.47489e+06 0 -1.57421e+06 1.47942e+06 0 -1.576e+06 1.48394e+06 0 -1.57779e+06 1.48847e+06 0 -1.5796e+06 1.493e+06 0 -1.58141e+06 1.49752e+06 0 -1.58324e+06 1.50204e+06 0 -1.58507e+06 1.50657e+06 0 -1.58692e+06 1.51109e+06 0 -1.58878e+06 1.51561e+06 0 -1.59065e+06 1.52012e+06 0 -1.59253e+06 1.52464e+06 0 -1.59442e+06 1.52916e+06 0 -1.59632e+06 1.53367e+06 0 -1.59824e+06 1.53818e+06 0 -1.60016e+06 1.54269e+06 0 -1.6021e+06 1.5472e+06 0 -1.60405e+06 1.55171e+06 0 -1.60602e+06 1.55621e+06 0 -1.60799e+06 1.56072e+06 0 -1.60998e+06 1.56522e+06 0 -1.61198e+06 1.56972e+06 0 -1.614e+06 1.57422e+06 0 -1.4188e+06 1.00234e+06 0 -1.41998e+06 1.00677e+06 0 -1.42116e+06 1.01122e+06 0 -1.42234e+06 1.01566e+06 0 -1.42353e+06 1.02011e+06 0 -1.42472e+06 1.02456e+06 0 -1.42592e+06 1.02901e+06 0 -1.42712e+06 1.03347e+06 0 -1.42833e+06 1.03793e+06 0 -1.42954e+06 1.04239e+06 0 -1.43075e+06 1.04685e+06 0 -1.43197e+06 1.05132e+06 0 -1.4332e+06 1.05579e+06 0 -1.43442e+06 1.06026e+06 0 -1.43566e+06 1.06473e+06 0 -1.43689e+06 1.06921e+06 0 -1.43813e+06 1.07369e+06 0 -1.43938e+06 1.07817e+06 0 -1.44062e+06 1.08266e+06 0 -1.44188e+06 1.08714e+06 0 -1.44314e+06 1.09163e+06 0 -1.4444e+06 1.09613e+06 0 -1.44566e+06 1.10062e+06 0 -1.44694e+06 1.10512e+06 0 -1.44821e+06 1.10962e+06 0 -1.44949e+06 1.11412e+06 0 -1.45077e+06 1.11862e+06 0 -1.45206e+06 1.12313e+06 0 -1.45336e+06 1.12763e+06 0 -1.45465e+06 1.13214e+06 0 -1.45596e+06 1.13666e+06 0 -1.45726e+06 1.14117e+06 0 -1.45857e+06 1.14569e+06 0 -1.45989e+06 1.15021e+06 0 -1.46121e+06 1.15473e+06 0 -1.46254e+06 1.15925e+06 0 -1.46386e+06 1.16378e+06 0 -1.4652e+06 1.1683e+06 0 -1.46654e+06 1.17283e+06 0 -1.46788e+06 1.17736e+06 0 -1.46923e+06 1.1819e+06 0 -1.47058e+06 1.18643e+06 0 -1.47194e+06 1.19097e+06 0 -1.47331e+06 1.1955e+06 0 -1.47467e+06 1.20004e+06 0 -1.47605e+06 1.20459e+06 0 -1.47743e+06 1.20913e+06 0 -1.47881e+06 1.21367e+06 0 -1.4802e+06 1.21822e+06 0 -1.48159e+06 1.22277e+06 0 -1.48299e+06 1.22732e+06 0 -1.48439e+06 1.23187e+06 0 -1.4858e+06 1.23642e+06 0 -1.48721e+06 1.24097e+06 0 -1.48863e+06 1.24553e+06 0 -1.49006e+06 1.25009e+06 0 -1.49149e+06 1.25464e+06 0 -1.49292e+06 1.2592e+06 0 -1.49436e+06 1.26376e+06 0 -1.49581e+06 1.26832e+06 0 -1.49726e+06 1.27289e+06 0 -1.49872e+06 1.27745e+06 0 -1.50018e+06 1.28201e+06 0 -1.50165e+06 1.28658e+06 0 -1.50313e+06 1.29115e+06 0 -1.50461e+06 1.29571e+06 0 -1.5061e+06 1.30028e+06 0 -1.50759e+06 1.30485e+06 0 -1.50909e+06 1.30942e+06 0 -1.51059e+06 1.31399e+06 0 -1.5121e+06 1.31856e+06 0 -1.51362e+06 1.32313e+06 0 -1.51514e+06 1.32771e+06 0 -1.51667e+06 1.33228e+06 0 -1.51821e+06 1.33685e+06 0 -1.51975e+06 1.34143e+06 0 -1.5213e+06 1.346e+06 0 -1.52286e+06 1.35057e+06 0 -1.52442e+06 1.35515e+06 0 -1.52599e+06 1.35972e+06 0 -1.52757e+06 1.3643e+06 0 -1.52915e+06 1.36888e+06 0 -1.53074e+06 1.37345e+06 0 -1.53234e+06 1.37803e+06 0 -1.53394e+06 1.3826e+06 0 -1.53556e+06 1.38718e+06 0 -1.53718e+06 1.39176e+06 0 -1.5388e+06 1.39633e+06 0 -1.54044e+06 1.40091e+06 0 -1.54208e+06 1.40548e+06 0 -1.54373e+06 1.41006e+06 0 -1.54539e+06 1.41463e+06 0 -1.54706e+06 1.41921e+06 0 -1.54874e+06 1.42378e+06 0 -1.55042e+06 1.42835e+06 0 -1.55211e+06 1.43293e+06 0 -1.55381e+06 1.4375e+06 0 -1.55552e+06 1.44207e+06 0 -1.55724e+06 1.44664e+06 0 -1.55896e+06 1.45122e+06 0 -1.5607e+06 1.45579e+06 0 -1.56245e+06 1.46036e+06 0 -1.5642e+06 1.46492e+06 0 -1.56596e+06 1.46949e+06 0 -1.56774e+06 1.47406e+06 0 -1.56952e+06 1.47863e+06 0 -1.57131e+06 1.48319e+06 0 -1.57312e+06 1.48776e+06 0 -1.57493e+06 1.49232e+06 0 -1.57675e+06 1.49688e+06 0 -1.57859e+06 1.50144e+06 0 -1.58043e+06 1.506e+06 0 -1.58229e+06 1.51056e+06 0 -1.58415e+06 1.51512e+06 0 -1.58603e+06 1.51968e+06 0 -1.58792e+06 1.52423e+06 0 -1.58982e+06 1.52878e+06 0 -1.59173e+06 1.53334e+06 0 -1.59365e+06 1.53789e+06 0 -1.59558e+06 1.54244e+06 0 -1.59753e+06 1.54699e+06 0 -1.59949e+06 1.55153e+06 0 -1.60146e+06 1.55608e+06 0 -1.60345e+06 1.56062e+06 0 -1.60544e+06 1.56516e+06 0 -1.60745e+06 1.5697e+06 0 -1.60948e+06 1.57424e+06 0 -1.61152e+06 1.57878e+06 0 -1.41491e+06 1.00258e+06 0 -1.41609e+06 1.00705e+06 0 -1.41728e+06 1.01152e+06 0 -1.41847e+06 1.016e+06 0 -1.41966e+06 1.02048e+06 0 -1.42086e+06 1.02496e+06 0 -1.42206e+06 1.02944e+06 0 -1.42327e+06 1.03393e+06 0 -1.42448e+06 1.03842e+06 0 -1.42569e+06 1.04291e+06 0 -1.42691e+06 1.04741e+06 0 -1.42814e+06 1.0519e+06 0 -1.42937e+06 1.05641e+06 0 -1.4306e+06 1.06091e+06 0 -1.43184e+06 1.06541e+06 0 -1.43308e+06 1.06992e+06 0 -1.43432e+06 1.07443e+06 0 -1.43557e+06 1.07895e+06 0 -1.43683e+06 1.08346e+06 0 -1.43809e+06 1.08798e+06 0 -1.43935e+06 1.0925e+06 0 -1.44062e+06 1.09703e+06 0 -1.44189e+06 1.10155e+06 0 -1.44317e+06 1.10608e+06 0 -1.44445e+06 1.11061e+06 0 -1.44573e+06 1.11515e+06 0 -1.44702e+06 1.11968e+06 0 -1.44832e+06 1.12422e+06 0 -1.44962e+06 1.12876e+06 0 -1.45092e+06 1.1333e+06 0 -1.45223e+06 1.13785e+06 0 -1.45354e+06 1.14239e+06 0 -1.45486e+06 1.14694e+06 0 -1.45618e+06 1.15149e+06 0 -1.45751e+06 1.15605e+06 0 -1.45884e+06 1.1606e+06 0 -1.46018e+06 1.16516e+06 0 -1.46152e+06 1.16972e+06 0 -1.46287e+06 1.17428e+06 0 -1.46422e+06 1.17884e+06 0 -1.46557e+06 1.18341e+06 0 -1.46693e+06 1.18798e+06 0 -1.4683e+06 1.19255e+06 0 -1.46967e+06 1.19712e+06 0 -1.47105e+06 1.20169e+06 0 -1.47243e+06 1.20626e+06 0 -1.47381e+06 1.21084e+06 0 -1.47521e+06 1.21542e+06 0 -1.4766e+06 1.22e+06 0 -1.478e+06 1.22458e+06 0 -1.47941e+06 1.22916e+06 0 -1.48082e+06 1.23374e+06 0 -1.48224e+06 1.23833e+06 0 -1.48366e+06 1.24292e+06 0 -1.48509e+06 1.2475e+06 0 -1.48652e+06 1.25209e+06 0 -1.48796e+06 1.25669e+06 0 -1.48941e+06 1.26128e+06 0 -1.49086e+06 1.26587e+06 0 -1.49231e+06 1.27047e+06 0 -1.49377e+06 1.27506e+06 0 -1.49524e+06 1.27966e+06 0 -1.49671e+06 1.28426e+06 0 -1.49819e+06 1.28886e+06 0 -1.49968e+06 1.29346e+06 0 -1.50117e+06 1.29806e+06 0 -1.50266e+06 1.30266e+06 0 -1.50417e+06 1.30726e+06 0 -1.50568e+06 1.31187e+06 0 -1.50719e+06 1.31647e+06 0 -1.50871e+06 1.32108e+06 0 -1.51024e+06 1.32568e+06 0 -1.51177e+06 1.33029e+06 0 -1.51332e+06 1.3349e+06 0 -1.51486e+06 1.3395e+06 0 -1.51642e+06 1.34411e+06 0 -1.51798e+06 1.34872e+06 0 -1.51955e+06 1.35333e+06 0 -1.52112e+06 1.35794e+06 0 -1.5227e+06 1.36255e+06 0 -1.52429e+06 1.36716e+06 0 -1.52589e+06 1.37177e+06 0 -1.52749e+06 1.37638e+06 0 -1.5291e+06 1.38099e+06 0 -1.53072e+06 1.3856e+06 0 -1.53234e+06 1.39021e+06 0 -1.53398e+06 1.39482e+06 0 -1.53562e+06 1.39943e+06 0 -1.53727e+06 1.40405e+06 0 -1.53892e+06 1.40866e+06 0 -1.54059e+06 1.41327e+06 0 -1.54226e+06 1.41788e+06 0 -1.54394e+06 1.42249e+06 0 -1.54563e+06 1.4271e+06 0 -1.54733e+06 1.43171e+06 0 -1.54904e+06 1.43631e+06 0 -1.55075e+06 1.44092e+06 0 -1.55248e+06 1.44553e+06 0 -1.55421e+06 1.45014e+06 0 -1.55595e+06 1.45475e+06 0 -1.5577e+06 1.45935e+06 0 -1.55946e+06 1.46396e+06 0 -1.56123e+06 1.46856e+06 0 -1.56301e+06 1.47317e+06 0 -1.5648e+06 1.47777e+06 0 -1.5666e+06 1.48237e+06 0 -1.56841e+06 1.48698e+06 0 -1.57023e+06 1.49158e+06 0 -1.57206e+06 1.49618e+06 0 -1.5739e+06 1.50078e+06 0 -1.57576e+06 1.50537e+06 0 -1.57762e+06 1.50997e+06 0 -1.57949e+06 1.51457e+06 0 -1.58138e+06 1.51916e+06 0 -1.58327e+06 1.52376e+06 0 -1.58518e+06 1.52835e+06 0 -1.5871e+06 1.53294e+06 0 -1.58903e+06 1.53753e+06 0 -1.59097e+06 1.54212e+06 0 -1.59293e+06 1.54671e+06 0 -1.5949e+06 1.55129e+06 0 -1.59688e+06 1.55588e+06 0 -1.59887e+06 1.56046e+06 0 -1.60087e+06 1.56504e+06 0 -1.60289e+06 1.56962e+06 0 -1.60493e+06 1.5742e+06 0 -1.60697e+06 1.57878e+06 0 -1.60903e+06 1.58336e+06 0 -1.41102e+06 1.00282e+06 0 -1.41221e+06 1.00732e+06 0 -1.4134e+06 1.01182e+06 0 -1.41459e+06 1.01633e+06 0 -1.41579e+06 1.02084e+06 0 -1.41699e+06 1.02535e+06 0 -1.4182e+06 1.02987e+06 0 -1.41941e+06 1.03439e+06 0 -1.42063e+06 1.03891e+06 0 -1.42185e+06 1.04343e+06 0 -1.42307e+06 1.04796e+06 0 -1.4243e+06 1.05249e+06 0 -1.42553e+06 1.05702e+06 0 -1.42677e+06 1.06155e+06 0 -1.42801e+06 1.06609e+06 0 -1.42926e+06 1.07063e+06 0 -1.43051e+06 1.07517e+06 0 -1.43177e+06 1.07972e+06 0 -1.43303e+06 1.08427e+06 0 -1.43429e+06 1.08882e+06 0 -1.43556e+06 1.09337e+06 0 -1.43683e+06 1.09793e+06 0 -1.43811e+06 1.10248e+06 0 -1.43939e+06 1.10705e+06 0 -1.44068e+06 1.11161e+06 0 -1.44197e+06 1.11617e+06 0 -1.44327e+06 1.12074e+06 0 -1.44457e+06 1.12531e+06 0 -1.44587e+06 1.12988e+06 0 -1.44718e+06 1.13446e+06 0 -1.4485e+06 1.13904e+06 0 -1.44982e+06 1.14361e+06 0 -1.45114e+06 1.1482e+06 0 -1.45247e+06 1.15278e+06 0 -1.45381e+06 1.15736e+06 0 -1.45515e+06 1.16195e+06 0 -1.45649e+06 1.16654e+06 0 -1.45784e+06 1.17113e+06 0 -1.45919e+06 1.17573e+06 0 -1.46055e+06 1.18032e+06 0 -1.46191e+06 1.18492e+06 0 -1.46328e+06 1.18952e+06 0 -1.46465e+06 1.19412e+06 0 -1.46603e+06 1.19873e+06 0 -1.46742e+06 1.20333e+06 0 -1.46881e+06 1.20794e+06 0 -1.4702e+06 1.21255e+06 0 -1.4716e+06 1.21716e+06 0 -1.473e+06 1.22177e+06 0 -1.47441e+06 1.22639e+06 0 -1.47583e+06 1.231e+06 0 -1.47725e+06 1.23562e+06 0 -1.47867e+06 1.24024e+06 0 -1.4801e+06 1.24486e+06 0 -1.48154e+06 1.24948e+06 0 -1.48298e+06 1.2541e+06 0 -1.48443e+06 1.25873e+06 0 -1.48588e+06 1.26335e+06 0 -1.48734e+06 1.26798e+06 0 -1.48881e+06 1.27261e+06 0 -1.49028e+06 1.27724e+06 0 -1.49175e+06 1.28187e+06 0 -1.49324e+06 1.2865e+06 0 -1.49473e+06 1.29114e+06 0 -1.49622e+06 1.29577e+06 0 -1.49772e+06 1.30041e+06 0 -1.49923e+06 1.30504e+06 0 -1.50074e+06 1.30968e+06 0 -1.50226e+06 1.31432e+06 0 -1.50379e+06 1.31895e+06 0 -1.50532e+06 1.32359e+06 0 -1.50686e+06 1.32823e+06 0 -1.5084e+06 1.33288e+06 0 -1.50995e+06 1.33752e+06 0 -1.51151e+06 1.34216e+06 0 -1.51308e+06 1.3468e+06 0 -1.51465e+06 1.35145e+06 0 -1.51623e+06 1.35609e+06 0 -1.51782e+06 1.36073e+06 0 -1.51941e+06 1.36538e+06 0 -1.52101e+06 1.37002e+06 0 -1.52262e+06 1.37467e+06 0 -1.52423e+06 1.37931e+06 0 -1.52586e+06 1.38396e+06 0 -1.52749e+06 1.3886e+06 0 -1.52913e+06 1.39325e+0