<?xml version="1.0"?> 
<VTKFile type="StructuredGrid" version="0.1"> 
<StructuredGrid WholeExtent="0 127 0 127 0 0"> 
<Piece Extent="0 127 0 127 0 0"> 
<PointData>
<DataArray type="Float32" Name="|E|" format="ascii" NumberOfComponents="3"> 
-2.02395e+06 0 0 -2.02395e+06 1282.43 0 -2.02396e+06 2564.88 0 -2.02398e+06 3847.35 0 -2.024e+06 5129.85 0 -2.02403e+06 6412.4 0 -2.02407e+06 7695.01 0 -2.02412e+06 8977.68 0 -2.02417e+06 10260.4 0 -2.02423e+06 11543.3 0 -2.0243e+06 12826.2 0 -2.02437e+06 14109.3 0 -2.02445e+06 15392.5 0 -2.02454e+06 16675.8 0 -2.02463e+06 17959.3 0 -2.02473e+06 19242.9 0 -2.02484e+06 20526.7 0 -2.02496e+06 21810.7 0 -2.02508e+06 23094.8 0 -2.02521e+06 24379.2 0 -2.02535e+06 25663.8 0 -2.02549e+06 26948.6 0 -2.02564e+06 28233.7 0 -2.0258e+06 29519 0 -2.02597e+06 30804.6 0 -2.02614e+06 32090.5 0 -2.02632e+06 33376.6 0 -2.0265e+06 34663 0 -2.0267e+06 35949.8 0 -2.0269e+06 37236.8 0 -2.0271e+06 38524.2 0 -2.02732e+06 39811.9 0 -2.02754e+06 41100 0 -2.02777e+06 42388.5 0 -2.028e+06 43677.3 0 -2.02825e+06 44966.5 0 -2.02849e+06 46256.2 0 -2.02875e+06 47546.2 0 -2.02901e+06 48836.7 0 -2.02929e+06 50127.6 0 -2.02956e+06 51418.9 0 -2.02985e+06 52710.7 0 -2.03014e+06 54003 0 -2.03044e+06 55295.7 0 -2.03074e+06 56589 0 -2.03106e+06 57882.7 0 -2.03138e+06 59177 0 -2.0317e+06 60471.8 0 -2.03204e+06 61767.1 0 -2.03238e+06 63063 0 -2.03273e+06 64359.5 0 -2.03308e+06 65656.5 0 -2.03344e+06 66954.2 0 -2.03381e+06 68252.4 0 -2.03419e+06 69551.2 0 -2.03457e+06 70850.7 0 -2.03496e+06 72150.8 0 -2.03536e+06 73451.6 0 -2.03577e+06 74753 0 -2.03618e+06 76055.1 0 -2.0366e+06 77357.8 0 -2.03702e+06 78661.3 0 -2.03746e+06 79965.5 0 -2.0379e+06 81270.4 0 -2.03835e+06 82576 0 -2.0388e+06 83882.4 0 -2.03926e+06 85189.5 0 -2.03973e+06 86497.4 0 -2.04021e+06 87806.1 0 -2.04069e+06 89115.6 0 -2.04118e+06 90425.9 0 -2.04168e+06 91737 0 -2.04218e+06 93048.9 0 -2.04269e+06 94361.7 0 -2.04321e+06 95675.4 0 -2.04374e+06 96989.9 0 -2.04427e+06 98305.3 0 -2.04481e+06 99621.6 0 -2.04536e+06 100939 0 -2.04591e+06 102257 0 -2.04647e+06 103576 0 -2.04704e+06 104896 0 -2.04762e+06 106217 0 -2.0482e+06 107539 0 -2.04879e+06 108862 0 -2.04939e+06 110186 0 -2.04999e+06 111511 0 -2.0506e+06 112836 0 -2.05122e+06 114163 0 -2.05185e+06 115491 0 -2.05248e+06 116821 0 -2.05312e+06 118151 0 -2.05377e+06 119482 0 -2.05443e+06 120814 0 -2.05509e+06 122148 0 -2.05576e+06 123482 0 -2.05643e+06 124818 0 -2.05712e+06 126155 0 -2.05781e+06 127493 0 -2.05851e+06 128832 0 -2.05921e+06 130173 0 -2.05992e+06 131514 0 -2.06064e+06 132857 0 -2.06137e+06 134201 0 -2.06211e+06 135547 0 -2.06285e+06 136893 0 -2.0636e+06 138241 0 -2.06435e+06 139590 0 -2.06512e+06 140941 0 -2.06589e+06 142293 0 -2.06667e+06 143646 0 -2.06745e+06 145000 0 -2.06824e+06 146356 0 -2.06904e+06 147713 0 -2.06985e+06 149072 0 -2.07067e+06 150432 0 -2.07149e+06 151793 0 -2.07232e+06 153156 0 -2.07315e+06 154520 0 -2.074e+06 155886 0 -2.07485e+06 157253 0 -2.07571e+06 158622 0 -2.07657e+06 159992 0 -2.07745e+06 161364 0 -2.07833e+06 162737 0 -2.07922e+06 164112 0 -2.08011e+06 165488 0 -2.08101e+06 166866 0 -2.02282e+06 0 0 -2.02282e+06 1310.13 0 -2.02283e+06 2620.27 0 -2.02285e+06 3930.44 0 -2.02288e+06 5240.64 0 -2.02291e+06 6550.89 0 -2.02295e+06 7861.2 0 -2.023e+06 9171.58 0 -2.02305e+06 10482.1 0 -2.02311e+06 11792.6 0 -2.02318e+06 13103.3 0 -2.02326e+06 14414.1 0 -2.02334e+06 15725 0 -2.02343e+06 17036.1 0 -2.02353e+06 18347.3 0 -2.02364e+06 19658.7 0 -2.02375e+06 20970.2 0 -2.02387e+06 22282 0 -2.02399e+06 23594 0 -2.02413e+06 24906.2 0 -2.02427e+06 26218.6 0 -2.02442e+06 27531.2 0 -2.02457e+06 28844.1 0 -2.02474e+06 30157.3 0 -2.02491e+06 31470.7 0 -2.02508e+06 32784.5 0 -2.02527e+06 34098.5 0 -2.02546e+06 35412.8 0 -2.02566e+06 36727.5 0 -2.02587e+06 38042.5 0 -2.02608e+06 39357.9 0 -2.0263e+06 40673.6 0 -2.02653e+06 41989.7 0 -2.02677e+06 43306.2 0 -2.02701e+06 44623.1 0 -2.02726e+06 45940.3 0 -2.02752e+06 47258.1 0 -2.02778e+06 48576.2 0 -2.02805e+06 49894.8 0 -2.02833e+06 51213.8 0 -2.02862e+06 52533.4 0 -2.02891e+06 53853.4 0 -2.02921e+06 55173.9 0 -2.02952e+06 56494.9 0 -2.02984e+06 57816.4 0 -2.03016e+06 59138.5 0 -2.03049e+06 60461.1 0 -2.03083e+06 61784.3 0 -2.03117e+06 63108.1 0 -2.03153e+06 64432.4 0 -2.03189e+06 65757.3 0 -2.03225e+06 67082.8 0 -2.03263e+06 68409 0 -2.03301e+06 69735.8 0 -2.0334e+06 71063.2 0 -2.03379e+06 72391.3 0 -2.0342e+06 73720.1 0 -2.03461e+06 75049.6 0 -2.03502e+06 76379.7 0 -2.03545e+06 77710.6 0 -2.03588e+06 79042.1 0 -2.03632e+06 80374.5 0 -2.03677e+06 81707.5 0 -2.03722e+06 83041.4 0 -2.03769e+06 84376 0 -2.03816e+06 85711.4 0 -2.03863e+06 87047.5 0 -2.03912e+06 88384.6 0 -2.03961e+06 89722.4 0 -2.04011e+06 91061 0 -2.04061e+06 92400.6 0 -2.04113e+06 93741 0 -2.04165e+06 95082.2 0 -2.04217e+06 96424.4 0 -2.04271e+06 97767.4 0 -2.04325e+06 99111.4 0 -2.0438e+06 100456 0 -2.04436e+06 101802 0 -2.04493e+06 103149 0 -2.0455e+06 104497 0 -2.04608e+06 105846 0 -2.04666e+06 107195 0 -2.04726e+06 108546 0 -2.04786e+06 109898 0 -2.04847e+06 111251 0 -2.04909e+06 112605 0 -2.04971e+06 113960 0 -2.05034e+06 115316 0 -2.05098e+06 116673 0 -2.05163e+06 118031 0 -2.05228e+06 119390 0 -2.05294e+06 120751 0 -2.05361e+06 122113 0 -2.05429e+06 123475 0 -2.05497e+06 124839 0 -2.05566e+06 126205 0 -2.05636e+06 127571 0 -2.05707e+06 128939 0 -2.05778e+06 130307 0 -2.0585e+06 131677 0 -2.05923e+06 133049 0 -2.05997e+06 134421 0 -2.06071e+06 135795 0 -2.06146e+06 137171 0 -2.06222e+06 138547 0 -2.06299e+06 139925 0 -2.06376e+06 141304 0 -2.06454e+06 142685 0 -2.06533e+06 144067 0 -2.06612e+06 145450 0 -2.06693e+06 146835 0 -2.06774e+06 148221 0 -2.06856e+06 149609 0 -2.06938e+06 150998 0 -2.07022e+06 152388 0 -2.07106e+06 153780 0 -2.07191e+06 155174 0 -2.07276e+06 156569 0 -2.07363e+06 157966 0 -2.0745e+06 159364 0 -2.07538e+06 160763 0 -2.07626e+06 162165 0 -2.07716e+06 163567 0 -2.07806e+06 164972 0 -2.07897e+06 166378 0 -2.07989e+06 167786 0 -2.08081e+06 169195 0 -2.08174e+06 170606 0 -2.02169e+06 0 0 -2.02169e+06 1338.02 0 -2.02171e+06 2676.06 0 -2.02172e+06 4014.12 0 -2.02175e+06 5352.22 0 -2.02178e+06 6690.36 0 -2.02182e+06 8028.58 0 -2.02187e+06 9366.86 0 -2.02193e+06 10705.2 0 -2.02199e+06 12043.7 0 -2.02206e+06 13382.3 0 -2.02214e+06 14721 0 -2.02223e+06 16059.9 0 -2.02232e+06 17398.9 0 -2.02242e+06 18738.1 0 -2.02253e+06 20077.4 0 -2.02265e+06 21417 0 -2.02277e+06 22756.7 0 -2.0229e+06 24096.7 0 -2.02304e+06 25436.8 0 -2.02319e+06 26777.3 0 -2.02334e+06 28117.9 0 -2.0235e+06 29458.9 0 -2.02367e+06 30800.1 0 -2.02384e+06 32141.6 0 -2.02403e+06 33483.4 0 -2.02422e+06 34825.6 0 -2.02442e+06 36168 0 -2.02462e+06 37510.8 0 -2.02483e+06 38854 0 -2.02505e+06 40197.5 0 -2.02528e+06 41541.5 0 -2.02552e+06 42885.8 0 -2.02576e+06 44230.5 0 -2.02601e+06 45575.6 0 -2.02627e+06 46921.2 0 -2.02654e+06 48267.2 0 -2.02681e+06 49613.7 0 -2.02709e+06 50960.6 0 -2.02738e+06 52308 0 -2.02767e+06 53655.9 0 -2.02798e+06 55004.4 0 -2.02829e+06 56353.3 0 -2.02861e+06 57702.8 0 -2.02893e+06 59052.9 0 -2.02926e+06 60403.5 0 -2.02961e+06 61754.7 0 -2.02995e+06 63106.4 0 -2.03031e+06 64458.8 0 -2.03067e+06 65811.8 0 -2.03104e+06 67165.4 0 -2.03142e+06 68519.7 0 -2.03181e+06 69874.6 0 -2.0322e+06 71230.2 0 -2.0326e+06 72586.4 0 -2.03301e+06 73943.4 0 -2.03343e+06 75301.1 0 -2.03385e+06 76659.5 0 -2.03428e+06 78018.6 0 -2.03472e+06 79378.5 0 -2.03517e+06 80739.1 0 -2.03562e+06 82100.5 0 -2.03608e+06 83462.7 0 -2.03655e+06 84825.7 0 -2.03703e+06 86189.5 0 -2.03751e+06 87554.2 0 -2.038e+06 88919.7 0 -2.0385e+06 90286 0 -2.03901e+06 91653.2 0 -2.03953e+06 93021.3 0 -2.04005e+06 94390.4 0 -2.04058e+06 95760.3 0 -2.04111e+06 97131.1 0 -2.04166e+06 98502.9 0 -2.04221e+06 99875.6 0 -2.04277e+06 101249 0 -2.04334e+06 102624 0 -2.04392e+06 104000 0 -2.0445e+06 105376 0 -2.04509e+06 106754 0 -2.04569e+06 108133 0 -2.04629e+06 109513 0 -2.04691e+06 110894 0 -2.04753e+06 112276 0 -2.04816e+06 113659 0 -2.04879e+06 115043 0 -2.04944e+06 116428 0 -2.05009e+06 117815 0 -2.05075e+06 119202 0 -2.05142e+06 120591 0 -2.05209e+06 121981 0 -2.05277e+06 123372 0 -2.05346e+06 124764 0 -2.05416e+06 126158 0 -2.05487e+06 127553 0 -2.05558e+06 128949 0 -2.0563e+06 130346 0 -2.05703e+06 131745 0 -2.05776e+06 133145 0 -2.05851e+06 134546 0 -2.05926e+06 135949 0 -2.06002e+06 137353 0 -2.06079e+06 138758 0 -2.06156e+06 140165 0 -2.06234e+06 141573 0 -2.06314e+06 142982 0 -2.06393e+06 144393 0 -2.06474e+06 145805 0 -2.06555e+06 147219 0 -2.06637e+06 148634 0 -2.0672e+06 150051 0 -2.06804e+06 151470 0 -2.06889e+06 152889 0 -2.06974e+06 154311 0 -2.0706e+06 155734 0 -2.07147e+06 157158 0 -2.07234e+06 158584 0 -2.07323e+06 160012 0 -2.07412e+06 161441 0 -2.07502e+06 162872 0 -2.07593e+06 164304 0 -2.07684e+06 165738 0 -2.07776e+06 167174 0 -2.07869e+06 168612 0 -2.07963e+06 170051 0 -2.08058e+06 171492 0 -2.08153e+06 172935 0 -2.0825e+06 174380 0 -2.02055e+06 0 0 -2.02056e+06 1366.11 0 -2.02057e+06 2732.23 0 -2.02059e+06 4098.38 0 -2.02062e+06 5464.57 0 -2.02065e+06 6830.82 0 -2.02069e+06 8197.13 0 -2.02074e+06 9563.52 0 -2.0208e+06 10930 0 -2.02087e+06 12296.6 0 -2.02094e+06 13663.3 0 -2.02102e+06 15030.1 0 -2.02111e+06 16397.1 0 -2.02121e+06 17764.3 0 -2.02131e+06 19131.6 0 -2.02142e+06 20499.1 0 -2.02154e+06 21866.8 0 -2.02167e+06 23234.7 0 -2.0218e+06 24602.9 0 -2.02195e+06 25971.3 0 -2.0221e+06 27339.9 0 -2.02225e+06 28708.8 0 -2.02242e+06 30078 0 -2.02259e+06 31447.5 0 -2.02277e+06 32817.3 0 -2.02296e+06 34187.4 0 -2.02316e+06 35557.8 0 -2.02336e+06 36928.6 0 -2.02358e+06 38299.8 0 -2.0238e+06 39671.3 0 -2.02402e+06 41043.2 0 -2.02426e+06 42415.5 0 -2.0245e+06 43788.2 0 -2.02475e+06 45161.4 0 -2.02501e+06 46535 0 -2.02528e+06 47909 0 -2.02555e+06 49283.6 0 -2.02583e+06 50658.6 0 -2.02612e+06 52034.1 0 -2.02642e+06 53410.1 0 -2.02672e+06 54786.6 0 -2.02704e+06 56163.7 0 -2.02736e+06 57541.3 0 -2.02769e+06 58919.5 0 -2.02802e+06 60298.3 0 -2.02837e+06 61677.6 0 -2.02872e+06 63057.6 0 -2.02908e+06 64438.2 0 -2.02944e+06 65819.4 0 -2.02982e+06 67201.3 0 -2.0302e+06 68583.8 0 -2.03059e+06 69967 0 -2.03099e+06 71350.9 0 -2.03139e+06 72735.5 0 -2.03181e+06 74120.8 0 -2.03223e+06 75506.9 0 -2.03266e+06 76893.7 0 -2.0331e+06 78281.3 0 -2.03354e+06 79669.6 0 -2.03399e+06 81058.7 0 -2.03445e+06 82448.6 0 -2.03492e+06 83839.4 0 -2.0354e+06 85231 0 -2.03588e+06 86623.4 0 -2.03637e+06 88016.7 0 -2.03687e+06 89410.8 0 -2.03738e+06 90805.9 0 -2.03789e+06 92201.8 0 -2.03842e+06 93598.7 0 -2.03895e+06 94996.5 0 -2.03949e+06 96395.2 0 -2.04003e+06 97794.9 0 -2.04059e+06 99195.6 0 -2.04115e+06 100597 0 -2.04172e+06 102000 0 -2.0423e+06 103404 0 -2.04288e+06 104808 0 -2.04347e+06 106214 0 -2.04408e+06 107621 0 -2.04468e+06 109029 0 -2.0453e+06 110438 0 -2.04593e+06 111848 0 -2.04656e+06 113259 0 -2.0472e+06 114672 0 -2.04785e+06 116085 0 -2.0485e+06 117500 0 -2.04917e+06 118916 0 -2.04984e+06 120333 0 -2.05052e+06 121752 0 -2.05121e+06 123171 0 -2.05191e+06 124592 0 -2.05261e+06 126014 0 -2.05332e+06 127437 0 -2.05404e+06 128862 0 -2.05477e+06 130288 0 -2.0555e+06 131715 0 -2.05625e+06 133144 0 -2.057e+06 134574 0 -2.05776e+06 136005 0 -2.05853e+06 137438 0 -2.0593e+06 138872 0 -2.06008e+06 140308 0 -2.06088e+06 141745 0 -2.06168e+06 143183 0 -2.06248e+06 144623 0 -2.0633e+06 146065 0 -2.06412e+06 147508 0 -2.06495e+06 148952 0 -2.06579e+06 150398 0 -2.06664e+06 151846 0 -2.06749e+06 153295 0 -2.06836e+06 154746 0 -2.06923e+06 156198 0 -2.07011e+06 157652 0 -2.071e+06 159107 0 -2.07189e+06 160565 0 -2.0728e+06 162023 0 -2.07371e+06 163484 0 -2.07463e+06 164946 0 -2.07556e+06 166410 0 -2.07649e+06 167876 0 -2.07744e+06 169344 0 -2.07839e+06 170813 0 -2.07935e+06 172284 0 -2.08032e+06 173757 0 -2.08129e+06 175232 0 -2.08228e+06 176708 0 -2.08327e+06 178187 0 -2.01941e+06 0 0 -2.01942e+06 1394.39 0 -2.01943e+06 2788.8 0 -2.01945e+06 4183.24 0 -2.01948e+06 5577.71 0 -2.01951e+06 6972.25 0 -2.01956e+06 8366.85 0 -2.01961e+06 9761.54 0 -2.01967e+06 11156.3 0 -2.01974e+06 12551.2 0 -2.01981e+06 13946.2 0 -2.01989e+06 15341.4 0 -2.01999e+06 16736.7 0 -2.02008e+06 18132.2 0 -2.02019e+06 19527.9 0 -2.02031e+06 20923.7 0 -2.02043e+06 22319.8 0 -2.02056e+06 23716.1 0 -2.0207e+06 25112.6 0 -2.02085e+06 26509.4 0 -2.021e+06 27906.5 0 -2.02117e+06 29303.8 0 -2.02134e+06 30701.5 0 -2.02151e+06 32099.4 0 -2.0217e+06 33497.7 0 -2.0219e+06 34896.3 0 -2.0221e+06 36295.2 0 -2.02231e+06 37694.5 0 -2.02253e+06 39094.2 0 -2.02275e+06 40494.3 0 -2.02299e+06 41894.8 0 -2.02323e+06 43295.7 0 -2.02348e+06 44697.1 0 -2.02374e+06 46098.9 0 -2.02401e+06 47501.1 0 -2.02428e+06 48903.9 0 -2.02456e+06 50307.1 0 -2.02485e+06 51710.9 0 -2.02515e+06 53115.2 0 -2.02546e+06 54520 0 -2.02577e+06 55925.3 0 -2.0261e+06 57331.3 0 -2.02643e+06 58737.8 0 -2.02676e+06 60144.9 0 -2.02711e+06 61552.6 0 -2.02746e+06 62960.9 0 -2.02783e+06 64369.9 0 -2.0282e+06 65779.5 0 -2.02857e+06 67189.8 0 -2.02896e+06 68600.8 0 -2.02935e+06 70012.5 0 -2.02976e+06 71424.9 0 -2.03017e+06 72838 0 -2.03059e+06 74251.8 0 -2.03101e+06 75666.4 0 -2.03145e+06 77081.8 0 -2.03189e+06 78498 0 -2.03234e+06 79915 0 -2.0328e+06 81332.7 0 -2.03326e+06 82751.3 0 -2.03374e+06 84170.8 0 -2.03422e+06 85591.1 0 -2.03471e+06 87012.3 0 -2.03521e+06 88434.4 0 -2.03572e+06 89857.4 0 -2.03623e+06 91281.3 0 -2.03675e+06 92706.1 0 -2.03728e+06 94131.9 0 -2.03782e+06 95558.7 0 -2.03837e+06 96986.5 0 -2.03893e+06 98415.2 0 -2.03949e+06 99845 0 -2.04006e+06 101276 0 -2.04064e+06 102708 0 -2.04123e+06 104140 0 -2.04182e+06 105574 0 -2.04243e+06 107009 0 -2.04304e+06 108446 0 -2.04366e+06 109883 0 -2.04428e+06 111321 0 -2.04492e+06 112761 0 -2.04557e+06 114202 0 -2.04622e+06 115644 0 -2.04688e+06 117087 0 -2.04755e+06 118531 0 -2.04822e+06 119977 0 -2.04891e+06 121423 0 -2.0496e+06 122872 0 -2.0503e+06 124321 0 -2.05101e+06 125772 0 -2.05173e+06 127224 0 -2.05245e+06 128677 0 -2.05319e+06 130132 0 -2.05393e+06 131588 0 -2.05468e+06 133045 0 -2.05544e+06 134504 0 -2.0562e+06 135964 0 -2.05698e+06 137426 0 -2.05776e+06 138889 0 -2.05855e+06 140354 0 -2.05935e+06 141820 0 -2.06016e+06 143287 0 -2.06098e+06 144756 0 -2.0618e+06 146227 0 -2.06263e+06 147699 0 -2.06347e+06 149173 0 -2.06432e+06 150648 0 -2.06518e+06 152125 0 -2.06604e+06 153604 0 -2.06692e+06 155084 0 -2.0678e+06 156566 0 -2.06869e+06 158049 0 -2.06959e+06 159534 0 -2.0705e+06 161021 0 -2.07141e+06 162510 0 -2.07233e+06 164000 0 -2.07327e+06 165492 0 -2.07421e+06 166986 0 -2.07515e+06 168482 0 -2.07611e+06 169980 0 -2.07708e+06 171479 0 -2.07805e+06 172980 0 -2.07903e+06 174483 0 -2.08002e+06 175988 0 -2.08102e+06 177495 0 -2.08203e+06 179004 0 -2.08304e+06 180515 0 -2.08407e+06 182028 0 -2.01827e+06 0 0 -2.01827e+06 1422.87 0 -2.01828e+06 2845.76 0 -2.0183e+06 4268.67 0 -2.01833e+06 5691.63 0 -2.01837e+06 7114.65 0 -2.01841e+06 8537.74 0 -2.01847e+06 9960.93 0 -2.01853e+06 11384.2 0 -2.0186e+06 12807.6 0 -2.01868e+06 14231.1 0 -2.01876e+06 15654.8 0 -2.01886e+06 17078.7 0 -2.01896e+06 18502.7 0 -2.01907e+06 19926.9 0 -2.01919e+06 21351.3 0 -2.01931e+06 22776 0 -2.01945e+06 24200.8 0 -2.01959e+06 25625.9 0 -2.01974e+06 27051.3 0 -2.0199e+06 28477 0 -2.02007e+06 29903 0 -2.02025e+06 31329.2 0 -2.02043e+06 32755.8 0 -2.02062e+06 34182.8 0 -2.02082e+06 35610.1 0 -2.02103e+06 37037.7 0 -2.02125e+06 38465.8 0 -2.02148e+06 39894.2 0 -2.02171e+06 41323.1 0 -2.02195e+06 42752.4 0 -2.0222e+06 44182.1 0 -2.02246e+06 45612.3 0 -2.02272e+06 47043 0 -2.023e+06 48474.1 0 -2.02328e+06 49905.8 0 -2.02357e+06 51337.9 0 -2.02387e+06 52770.7 0 -2.02418e+06 54203.9 0 -2.02449e+06 55637.7 0 -2.02482e+06 57072.1 0 -2.02515e+06 58507.1 0 -2.02549e+06 59942.7 0 -2.02584e+06 61379 0 -2.0262e+06 62815.9 0 -2.02656e+06 64253.4 0 -2.02693e+06 65691.6 0 -2.02731e+06 67130.5 0 -2.0277e+06 68570.1 0 -2.0281e+06 70010.4 0 -2.02851e+06 71451.4 0 -2.02892e+06 72893.2 0 -2.02935e+06 74335.8 0 -2.02978e+06 75779.1 0 -2.03022e+06 77223.2 0 -2.03066e+06 78668.2 0 -2.03112e+06 80113.9 0 -2.03158e+06 81560.5 0 -2.03205e+06 83008 0 -2.03254e+06 84456.3 0 -2.03302e+06 85905.6 0 -2.03352e+06 87355.7 0 -2.03403e+06 88806.7 0 -2.03454e+06 90258.7 0 -2.03506e+06 91711.7 0 -2.03559e+06 93165.6 0 -2.03613e+06 94620.5 0 -2.03668e+06 96076.4 0 -2.03723e+06 97533.3 0 -2.0378e+06 98991.3 0 -2.03837e+06 100450 0 -2.03895e+06 101910 0 -2.03954e+06 103371 0 -2.04013e+06 104834 0 -2.04074e+06 106297 0 -2.04135e+06 107762 0 -2.04197e+06 109227 0 -2.0426e+06 110694 0 -2.04324e+06 112162 0 -2.04389e+06 113631 0 -2.04455e+06 115102 0 -2.04521e+06 116573 0 -2.04588e+06 118046 0 -2.04656e+06 119520 0 -2.04725e+06 120996 0 -2.04795e+06 122472 0 -2.04865e+06 123950 0 -2.04937e+06 125430 0 -2.05009e+06 126910 0 -2.05082e+06 128393 0 -2.05156e+06 129876 0 -2.05231e+06 131361 0 -2.05306e+06 132847 0 -2.05383e+06 134335 0 -2.0546e+06 135824 0 -2.05538e+06 137315 0 -2.05617e+06 138807 0 -2.05697e+06 140301 0 -2.05778e+06 141796 0 -2.05859e+06 143293 0 -2.05942e+06 144791 0 -2.06025e+06 146291 0 -2.06109e+06 147792 0 -2.06194e+06 149295 0 -2.0628e+06 150800 0 -2.06366e+06 152306 0 -2.06454e+06 153814 0 -2.06542e+06 155324 0 -2.06631e+06 156836 0 -2.06721e+06 158349 0 -2.06812e+06 159864 0 -2.06904e+06 161380 0 -2.06996e+06 162899 0 -2.0709e+06 164419 0 -2.07184e+06 165941 0 -2.07279e+06 167465 0 -2.07375e+06 168991 0 -2.07472e+06 170518 0 -2.0757e+06 172048 0 -2.07668e+06 173579 0 -2.07768e+06 175113 0 -2.07868e+06 176648 0 -2.07969e+06 178186 0 -2.08071e+06 179725 0 -2.08174e+06 181266 0 -2.08278e+06 182810 0 -2.08383e+06 184355 0 -2.08488e+06 185903 0 -2.01712e+06 0 0 -2.01712e+06 1451.54 0 -2.01713e+06 2903.1 0 -2.01715e+06 4354.69 0 -2.01718e+06 5806.33 0 -2.01722e+06 7258.03 0 -2.01727e+06 8709.81 0 -2.01732e+06 10161.7 0 -2.01739e+06 11613.7 0 -2.01746e+06 13065.8 0 -2.01754e+06 14518 0 -2.01763e+06 15970.4 0 -2.01772e+06 17422.9 0 -2.01783e+06 18875.7 0 -2.01794e+06 20328.6 0 -2.01806e+06 21781.8 0 -2.01819e+06 23235.2 0 -2.01833e+06 24688.9 0 -2.01848e+06 26142.8 0 -2.01864e+06 27597 0 -2.0188e+06 29051.4 0 -2.01897e+06 30506.2 0 -2.01915e+06 31961.4 0 -2.01934e+06 33416.8 0 -2.01954e+06 34872.6 0 -2.01975e+06 36328.8 0 -2.01996e+06 37785.4 0 -2.02019e+06 39242.4 0 -2.02042e+06 40699.8 0 -2.02066e+06 42157.6 0 -2.02091e+06 43615.9 0 -2.02117e+06 45074.6 0 -2.02143e+06 46533.9 0 -2.02171e+06 47993.6 0 -2.02199e+06 49453.8 0 -2.02228e+06 50914.6 0 -2.02258e+06 52375.9 0 -2.02289e+06 53837.8 0 -2.0232e+06 55300.3 0 -2.02353e+06 56763.3 0 -2.02386e+06 58227 0 -2.0242e+06 59691.3 0 -2.02455e+06 61156.2 0 -2.02491e+06 62621.8 0 -2.02528e+06 64088 0 -2.02565e+06 65555 0 -2.02604e+06 67022.6 0 -2.02643e+06 68491 0 -2.02683e+06 69960.1 0 -2.02724e+06 71430 0 -2.02766e+06 72900.6 0 -2.02809e+06 74372 0 -2.02852e+06 75844.2 0 -2.02897e+06 77317.3 0 -2.02942e+06 78791.2 0 -2.02988e+06 80265.9 0 -2.03035e+06 81741.5 0 -2.03083e+06 83218 0 -2.03131e+06 84695.4 0 -2.03181e+06 86173.7 0 -2.03231e+06 87652.9 0 -2.03282e+06 89133.1 0 -2.03334e+06 90614.2 0 -2.03387e+06 92096.4 0 -2.03441e+06 93579.5 0 -2.03496e+06 95063.7 0 -2.03551e+06 96548.9 0 -2.03607e+06 98035.1 0 -2.03664e+06 99522.5 0 -2.03722e+06 101011 0 -2.03781e+06 102500 0 -2.03841e+06 103991 0 -2.03902e+06 105483 0 -2.03963e+06 106976 0 -2.04025e+06 108470 0 -2.04089e+06 109965 0 -2.04153e+06 111462 0 -2.04218e+06 112959 0 -2.04283e+06 114458 0 -2.0435e+06 115958 0 -2.04417e+06 117460 0 -2.04486e+06 118963 0 -2.04555e+06 120467 0 -2.04625e+06 121972 0 -2.04696e+06 123479 0 -2.04768e+06 124987 0 -2.0484e+06 126497 0 -2.04914e+06 128008 0 -2.04988e+06 129520 0 -2.05064e+06 131034 0 -2.0514e+06 132549 0 -2.05217e+06 134066 0 -2.05295e+06 135584 0 -2.05373e+06 137104 0 -2.05453e+06 138625 0 -2.05533e+06 140148 0 -2.05615e+06 141672 0 -2.05697e+06 143198 0 -2.0578e+06 144726 0 -2.05864e+06 146255 0 -2.05949e+06 147786 0 -2.06035e+06 149318 0 -2.06121e+06 150853 0 -2.06209e+06 152389 0 -2.06297e+06 153926 0 -2.06386e+06 155465 0 -2.06476e+06 157007 0 -2.06567e+06 158549 0 -2.06659e+06 160094 0 -2.06752e+06 161641 0 -2.06845e+06 163189 0 -2.0694e+06 164739 0 -2.07035e+06 166291 0 -2.07131e+06 167845 0 -2.07229e+06 169401 0 -2.07327e+06 170959 0 -2.07426e+06 172519 0 -2.07525e+06 174081 0 -2.07626e+06 175644 0 -2.07728e+06 177210 0 -2.0783e+06 178778 0 -2.07933e+06 180348 0 -2.08038e+06 181920 0 -2.08143e+06 183494 0 -2.08249e+06 185070 0 -2.08356e+06 186649 0 -2.08463e+06 188229 0 -2.08572e+06 189812 0 -2.01596e+06 0 0 -2.01596e+06 1480.41 0 -2.01598e+06 2960.84 0 -2.016e+06 4441.3 0 -2.01603e+06 5921.8 0 -2.01607e+06 7402.38 0 -2.01612e+06 8883.03 0 -2.01617e+06 10363.8 0 -2.01624e+06 11844.6 0 -2.01631e+06 13325.6 0 -2.01639e+06 14806.8 0 -2.01648e+06 16288.1 0 -2.01658e+06 17769.6 0 -2.01669e+06 19251.2 0 -2.01681e+06 20733.1 0 -2.01693e+06 22215.2 0 -2.01707e+06 23697.6 0 -2.01721e+06 25180.2 0 -2.01736e+06 26663.1 0 -2.01752e+06 28146.3 0 -2.01769e+06 29629.8 0 -2.01787e+06 31113.6 0 -2.01806e+06 32597.8 0 -2.01825e+06 34082.3 0 -2.01846e+06 35567.2 0 -2.01867e+06 37052.5 0 -2.01889e+06 38538.2 0 -2.01912e+06 40024.3 0 -2.01936e+06 41510.8 0 -2.01961e+06 42997.8 0 -2.01986e+06 44485.3 0 -2.02013e+06 45973.3 0 -2.0204e+06 47461.8 0 -2.02068e+06 48950.8 0 -2.02097e+06 50440.3 0 -2.02127e+06 51930.4 0 -2.02158e+06 53421.1 0 -2.0219e+06 54912.4 0 -2.02222e+06 56404.2 0 -2.02256e+06 57896.7 0 -2.0229e+06 59389.8 0 -2.02325e+06 60883.6 0 -2.02361e+06 62378.1 0 -2.02398e+06 63873.2 0 -2.02436e+06 65369.1 0 -2.02475e+06 66865.7 0 -2.02514e+06 68363 0 -2.02555e+06 69861.1 0 -2.02596e+06 71359.9 0 -2.02638e+06 72859.6 0 -2.02681e+06 74360 0 -2.02725e+06 75861.3 0 -2.0277e+06 77363.4 0 -2.02816e+06 78866.4 0 -2.02862e+06 80370.3 0 -2.02909e+06 81875 0 -2.02958e+06 83380.7 0 -2.03007e+06 84887.3 0 -2.03057e+06 86394.8 0 -2.03108e+06 87903.3 0 -2.0316e+06 89412.8 0 -2.03212e+06 90923.3 0 -2.03266e+06 92434.8 0 -2.0332e+06 93947.3 0 -2.03376e+06 95460.9 0 -2.03432e+06 96975.6 0 -2.03489e+06 98491.4 0 -2.03547e+06 100008 0 -2.03606e+06 101526 0 -2.03666e+06 103045 0 -2.03726e+06 104566 0 -2.03788e+06 106087 0 -2.0385e+06 107610 0 -2.03913e+06 109134 0 -2.03977e+06 110659 0 -2.04042e+06 112185 0 -2.04108e+06 113713 0 -2.04175e+06 115242 0 -2.04243e+06 116772 0 -2.04311e+06 118303 0 -2.04381e+06 119836 0 -2.04451e+06 121370 0 -2.04522e+06 122906 0 -2.04595e+06 124443 0 -2.04668e+06 125981 0 -2.04741e+06 127521 0 -2.04816e+06 129063 0 -2.04892e+06 130606 0 -2.04969e+06 132150 0 -2.05046e+06 133696 0 -2.05124e+06 135243 0 -2.05204e+06 136792 0 -2.05284e+06 138342 0 -2.05365e+06 139894 0 -2.05447e+06 141448 0 -2.0553e+06 143003 0 -2.05613e+06 144560 0 -2.05698e+06 146119 0 -2.05784e+06 147679 0 -2.0587e+06 149241 0 -2.05957e+06 150805 0 -2.06046e+06 152370 0 -2.06135e+06 153938 0 -2.06225e+06 155507 0 -2.06316e+06 157078 0 -2.06407e+06 158650 0 -2.065e+06 160225 0 -2.06594e+06 161801 0 -2.06688e+06 163380 0 -2.06784e+06 164960 0 -2.0688e+06 166542 0 -2.06977e+06 168126 0 -2.07076e+06 169712 0 -2.07175e+06 171300 0 -2.07275e+06 172890 0 -2.07376e+06 174482 0 -2.07477e+06 176077 0 -2.0758e+06 177673 0 -2.07684e+06 179271 0 -2.07788e+06 180872 0 -2.07894e+06 182475 0 -2.08e+06 184079 0 -2.08108e+06 185686 0 -2.08216e+06 187296 0 -2.08325e+06 188907 0 -2.08435e+06 190521 0 -2.08546e+06 192137 0 -2.08658e+06 193755 0 -2.0148e+06 0 0 -2.0148e+06 1509.47 0 -2.01481e+06 3018.96 0 -2.01484e+06 4528.48 0 -2.01487e+06 6038.05 0 -2.01491e+06 7547.69 0 -2.01496e+06 9057.42 0 -2.01502e+06 10567.2 0 -2.01508e+06 12077.2 0 -2.01516e+06 13587.3 0 -2.01524e+06 15097.5 0 -2.01534e+06 16607.9 0 -2.01544e+06 18118.5 0 -2.01555e+06 19629.3 0 -2.01567e+06 21140.3 0 -2.0158e+06 22651.6 0 -2.01594e+06 24163.1 0 -2.01609e+06 25674.9 0 -2.01624e+06 27187 0 -2.01641e+06 28699.3 0 -2.01658e+06 30212 0 -2.01676e+06 31725.1 0 -2.01696e+06 33238.5 0 -2.01716e+06 34752.3 0 -2.01737e+06 36266.4 0 -2.01758e+06 37781 0 -2.01781e+06 39296 0 -2.01805e+06 40811.5 0 -2.01829e+06 42327.4 0 -2.01855e+06 43843.8 0 -2.01881e+06 45360.7 0 -2.01908e+06 46878.1 0 -2.01937e+06 48396 0 -2.01966e+06 49914.5 0 -2.01995e+06 51433.6 0 -2.02026e+06 52953.2 0 -2.02058e+06 54473.4 0 -2.02091e+06 55994.3 0 -2.02124e+06 57515.8 0 -2.02158e+06 59037.9 0 -2.02194e+06 60560.7 0 -2.0223e+06 62084.2 0 -2.02267e+06 63608.4 0 -2.02305e+06 65133.4 0 -2.02344e+06 66659 0 -2.02384e+06 68185.5 0 -2.02424e+06 69712.7 0 -2.02466e+06 71240.7 0 -2.02508e+06 72769.5 0 -2.02552e+06 74299.2 0 -2.02596e+06 75829.7 0 -2.02641e+06 77361 0 -2.02687e+06 78893.3 0 -2.02734e+06 80426.4 0 -2.02782e+06 81960.5 0 -2.02831e+06 83495.5 0 -2.02881e+06 85031.5 0 -2.02931e+06 86568.4 0 -2.02983e+06 88106.4 0 -2.03035e+06 89645.3 0 -2.03088e+06 91185.3 0 -2.03143e+06 92726.3 0 -2.03198e+06 94268.4 0 -2.03254e+06 95811.6 0 -2.03311e+06 97355.9 0 -2.03368e+06 98901.3 0 -2.03427e+06 100448 0 -2.03487e+06 101996 0 -2.03547e+06 103544 0 -2.03609e+06 105095 0 -2.03671e+06 106646 0 -2.03734e+06 108198 0 -2.03799e+06 109752 0 -2.03864e+06 111307 0 -2.0393e+06 112864 0 -2.03997e+06 114421 0 -2.04064e+06 115980 0 -2.04133e+06 117541 0 -2.04203e+06 119102 0 -2.04273e+06 120666 0 -2.04345e+06 122230 0 -2.04417e+06 123796 0 -2.0449e+06 125364 0 -2.04565e+06 126932 0 -2.0464e+06 128503 0 -2.04716e+06 130075 0 -2.04793e+06 131648 0 -2.04871e+06 133223 0 -2.04949e+06 134800 0 -2.05029e+06 136378 0 -2.0511e+06 137957 0 -2.05191e+06 139539 0 -2.05274e+06 141122 0 -2.05357e+06 142707 0 -2.05441e+06 144293 0 -2.05527e+06 145881 0 -2.05613e+06 147471 0 -2.057e+06 149062 0 -2.05788e+06 150656 0 -2.05877e+06 152251 0 -2.05967e+06 153848 0 -2.06058e+06 155447 0 -2.06149e+06 157047 0 -2.06242e+06 158650 0 -2.06335e+06 160254 0 -2.0643e+06 161861 0 -2.06525e+06 163469 0 -2.06622e+06 165079 0 -2.06719e+06 166692 0 -2.06817e+06 168306 0 -2.06916e+06 169922 0 -2.07016e+06 171541 0 -2.07118e+06 173161 0 -2.07219e+06 174784 0 -2.07322e+06 176408 0 -2.07426e+06 178035 0 -2.07531e+06 179664 0 -2.07637e+06 181296 0 -2.07743e+06 182929 0 -2.07851e+06 184565 0 -2.0796e+06 186203 0 -2.08069e+06 187843 0 -2.08179e+06 189485 0 -2.08291e+06 191130 0 -2.08403e+06 192777 0 -2.08516e+06 194427 0 -2.08631e+06 196079 0 -2.08746e+06 197733 0 -2.01363e+06 0 0 -2.01363e+06 1538.72 0 -2.01365e+06 3077.46 0 -2.01367e+06 4616.24 0 -2.0137e+06 6155.07 0 -2.01374e+06 7693.97 0 -2.01379e+06 9232.96 0 -2.01385e+06 10772.1 0 -2.01392e+06 12311.3 0 -2.014e+06 13850.6 0 -2.01409e+06 15390.2 0 -2.01418e+06 16929.9 0 -2.01429e+06 18469.8 0 -2.0144e+06 20009.9 0 -2.01453e+06 21550.2 0 -2.01466e+06 23090.8 0 -2.0148e+06 24631.7 0 -2.01495e+06 26172.8 0 -2.01511e+06 27714.3 0 -2.01528e+06 29256.1 0 -2.01546e+06 30798.2 0 -2.01565e+06 32340.7 0 -2.01585e+06 33883.5 0 -2.01606e+06 35426.7 0 -2.01627e+06 36970.4 0 -2.0165e+06 38514.5 0 -2.01673e+06 40059 0 -2.01697e+06 41604 0 -2.01723e+06 43149.5 0 -2.01749e+06 44695.5 0 -2.01776e+06 46242 0 -2.01804e+06 47789 0 -2.01833e+06 49336.6 0 -2.01863e+06 50884.8 0 -2.01893e+06 52433.5 0 -2.01925e+06 53982.9 0 -2.01958e+06 55532.9 0 -2.01991e+06 57083.6 0 -2.02026e+06 58634.9 0 -2.02061e+06 60186.9 0 -2.02097e+06 61739.6 0 -2.02134e+06 63293.1 0 -2.02173e+06 64847.2 0 -2.02212e+06 66402.2 0 -2.02252e+06 67957.9 0 -2.02292e+06 69514.4 0 -2.02334e+06 71071.7 0 -2.02377e+06 72629.8 0 -2.02421e+06 74188.9 0 -2.02465e+06 75748.7 0 -2.02511e+06 77309.5 0 -2.02557e+06 78871.2 0 -2.02605e+06 80433.8 0 -2.02653e+06 81997.3 0 -2.02702e+06 83561.8 0 -2.02752e+06 85127.4 0 -2.02803e+06 86693.9 0 -2.02856e+06 88261.4 0 -2.02908e+06 89830 0 -2.02962e+06 91399.6 0 -2.03017e+06 92970.3 0 -2.03073e+06 94542.1 0 -2.0313e+06 96115.1 0 -2.03187e+06 97689.1 0 -2.03246e+06 99264.4 0 -2.03305e+06 100841 0 -2.03365e+06 102418 0 -2.03427e+06 103997 0 -2.03489e+06 105577 0 -2.03552e+06 107159 0 -2.03616e+06 108741 0 -2.03681e+06 110325 0 -2.03747e+06 111910 0 -2.03814e+06 113497 0 -2.03882e+06 115085 0 -2.03951e+06 116674 0 -2.04021e+06 118265 0 -2.04091e+06 119857 0 -2.04163e+06 121450 0 -2.04236e+06 123045 0 -2.04309e+06 124642 0 -2.04384e+06 126240 0 -2.04459e+06 127839 0 -2.04535e+06 129440 0 -2.04612e+06 131043 0 -2.04691e+06 132647 0 -2.0477e+06 134253 0 -2.0485e+06 135861 0 -2.04931e+06 137470 0 -2.05013e+06 139080 0 -2.05096e+06 140693 0 -2.0518e+06 142307 0 -2.05265e+06 143923 0 -2.0535e+06 145540 0 -2.05437e+06 147160 0 -2.05525e+06 148781 0 -2.05613e+06 150404 0 -2.05703e+06 152029 0 -2.05793e+06 153656 0 -2.05885e+06 155284 0 -2.05977e+06 156915 0 -2.06071e+06 158547 0 -2.06165e+06 160182 0 -2.0626e+06 161818 0 -2.06356e+06 163457 0 -2.06454e+06 165097 0 -2.06552e+06 166740 0 -2.06651e+06 168384 0 -2.06751e+06 170031 0 -2.06852e+06 171679 0 -2.06954e+06 173330 0 -2.07057e+06 174983 0 -2.07161e+06 176639 0 -2.07266e+06 178296 0 -2.07372e+06 179956 0 -2.07478e+06 181618 0 -2.07586e+06 183282 0 -2.07695e+06 184948 0 -2.07805e+06 186617 0 -2.07915e+06 188288 0 -2.08027e+06 189962 0 -2.0814e+06 191638 0 -2.08253e+06 193316 0 -2.08368e+06 194997 0 -2.08483e+06 196681 0 -2.086e+06 198367 0 -2.08717e+06 200055 0 -2.08836e+06 201746 0 -2.01246e+06 0 0 -2.01246e+06 1568.17 0 -2.01248e+06 3136.36 0 -2.0125e+06 4704.58 0 -2.01253e+06 6272.86 0 -2.01257e+06 7841.22 0 -2.01263e+06 9409.67 0 -2.01269e+06 10978.2 0 -2.01276e+06 12546.9 0 -2.01284e+06 14115.8 0 -2.01293e+06 15684.8 0 -2.01303e+06 17254 0 -2.01314e+06 18823.4 0 -2.01325e+06 20393 0 -2.01338e+06 21962.9 0 -2.01352e+06 23533 0 -2.01366e+06 25103.4 0 -2.01382e+06 26674.1 0 -2.01398e+06 28245.1 0 -2.01416e+06 29816.5 0 -2.01434e+06 31388.2 0 -2.01453e+06 32960.3 0 -2.01474e+06 34532.8 0 -2.01495e+06 36105.7 0 -2.01517e+06 37679 0 -2.0154e+06 39252.8 0 -2.01564e+06 40827.1 0 -2.01589e+06 42401.8 0 -2.01615e+06 43977.1 0 -2.01642e+06 45552.8 0 -2.0167e+06 47129.1 0 -2.01699e+06 48706 0 -2.01728e+06 50283.5 0 -2.01759e+06 51861.6 0 -2.01791e+06 53440.2 0 -2.01823e+06 55019.6 0 -2.01857e+06 56599.6 0 -2.01891e+06 58180.2 0 -2.01927e+06 59761.6 0 -2.01963e+06 61343.7 0 -2.02e+06 62926.5 0 -2.02039e+06 64510.1 0 -2.02078e+06 66094.4 0 -2.02118e+06 67679.6 0 -2.02159e+06 69265.5 0 -2.02201e+06 70852.3 0 -2.02244e+06 72440 0 -2.02288e+06 74028.5 0 -2.02333e+06 75617.9 0 -2.02379e+06 77208.3 0 -2.02425e+06 78799.5 0 -2.02473e+06 80391.8 0 -2.02522e+06 81984.9 0 -2.02572e+06 83579.1 0 -2.02622