<?xml version="1.0"?> 
<VTKFile type="StructuredGrid" version="0.1"> 
<StructuredGrid WholeExtent="0 127 0 127 0 0"> 
<Piece Extent="0 127 0 127 0 0"> 
<PointData>
<DataArray type="Float32" Name="|E|" format="ascii" NumberOfComponents="3"> 
-933945 1.00793e+06 0 -935283 1.01637e+06 0 -936633 1.02483e+06 0 -937994 1.03329e+06 0 -939366 1.04177e+06 0 -940750 1.05026e+06 0 -942146 1.05876e+06 0 -943553 1.06728e+06 0 -944972 1.07581e+06 0 -946403 1.08434e+06 0 -947846 1.0929e+06 0 -949300 1.10146e+06 0 -950766 1.11004e+06 0 -952245 1.11863e+06 0 -953735 1.12723e+06 0 -955237 1.13584e+06 0 -956752 1.14447e+06 0 -958279 1.15311e+06 0 -959818 1.16176e+06 0 -961369 1.17043e+06 0 -962933 1.17911e+06 0 -964510 1.18781e+06 0 -966099 1.19651e+06 0 -967701 1.20523e+06 0 -969315 1.21397e+06 0 -970943 1.22272e+06 0 -972583 1.23148e+06 0 -974237 1.24026e+06 0 -975903 1.24905e+06 0 -977583 1.25786e+06 0 -979276 1.26668e+06 0 -980983 1.27551e+06 0 -982702 1.28436e+06 0 -984436 1.29323e+06 0 -986183 1.30211e+06 0 -987944 1.31101e+06 0 -989719 1.31992e+06 0 -991508 1.32884e+06 0 -993311 1.33779e+06 0 -995128 1.34674e+06 0 -996959 1.35572e+06 0 -998805 1.36471e+06 0 -1.00067e+06 1.37372e+06 0 -1.00254e+06 1.38274e+06 0 -1.00443e+06 1.39178e+06 0 -1.00634e+06 1.40084e+06 0 -1.00826e+06 1.40991e+06 0 -1.01019e+06 1.41901e+06 0 -1.01214e+06 1.42812e+06 0 -1.01411e+06 1.43724e+06 0 -1.01609e+06 1.44639e+06 0 -1.01808e+06 1.45555e+06 0 -1.0201e+06 1.46473e+06 0 -1.02212e+06 1.47393e+06 0 -1.02417e+06 1.48315e+06 0 -1.02623e+06 1.49239e+06 0 -1.02831e+06 1.50165e+06 0 -1.0304e+06 1.51093e+06 0 -1.03251e+06 1.52022e+06 0 -1.03464e+06 1.52954e+06 0 -1.03678e+06 1.53888e+06 0 -1.03894e+06 1.54824e+06 0 -1.04112e+06 1.55762e+06 0 -1.04331e+06 1.56702e+06 0 -1.04552e+06 1.57644e+06 0 -1.04775e+06 1.58588e+06 0 -1.05e+06 1.59535e+06 0 -1.05227e+06 1.60484e+06 0 -1.05455e+06 1.61435e+06 0 -1.05685e+06 1.62388e+06 0 -1.05917e+06 1.63344e+06 0 -1.06151e+06 1.64302e+06 0 -1.06386e+06 1.65263e+06 0 -1.06624e+06 1.66226e+06 0 -1.06863e+06 1.67192e+06 0 -1.07104e+06 1.6816e+06 0 -1.07347e+06 1.69131e+06 0 -1.07592e+06 1.70104e+06 0 -1.07839e+06 1.7108e+06 0 -1.08088e+06 1.72059e+06 0 -1.08339e+06 1.7304e+06 0 -1.08592e+06 1.74025e+06 0 -1.08847e+06 1.75012e+06 0 -1.09104e+06 1.76002e+06 0 -1.09362e+06 1.76995e+06 0 -1.09623e+06 1.77991e+06 0 -1.09886e+06 1.78991e+06 0 -1.10151e+06 1.79993e+06 0 -1.10417e+06 1.80999e+06 0 -1.10686e+06 1.82007e+06 0 -1.10957e+06 1.83019e+06 0 -1.1123e+06 1.84035e+06 0 -1.11505e+06 1.85054e+06 0 -1.11782e+06 1.86076e+06 0 -1.12061e+06 1.87102e+06 0 -1.12343e+06 1.88132e+06 0 -1.12626e+06 1.89165e+06 0 -1.12911e+06 1.90202e+06 0 -1.13199e+06 1.91243e+06 0 -1.13488e+06 1.92288e+06 0 -1.1378e+06 1.93337e+06 0 -1.14073e+06 1.9439e+06 0 -1.14369e+06 1.95447e+06 0 -1.14667e+06 1.96508e+06 0 -1.14967e+06 1.97574e+06 0 -1.15269e+06 1.98644e+06 0 -1.15572e+06 1.99718e+06 0 -1.15878e+06 2.00797e+06 0 -1.16186e+06 2.01881e+06 0 -1.16496e+06 2.0297e+06 0 -1.16808e+06 2.04063e+06 0 -1.17122e+06 2.05162e+06 0 -1.17438e+06 2.06265e+06 0 -1.17755e+06 2.07374e+06 0 -1.18075e+06 2.08488e+06 0 -1.18396e+06 2.09607e+06 0 -1.18719e+06 2.10732e+06 0 -1.19044e+06 2.11863e+06 0 -1.19371e+06 2.12999e+06 0 -1.197e+06 2.14141e+06 0 -1.2003e+06 2.15289e+06 0 -1.20362e+06 2.16443e+06 0 -1.20695e+06 2.17604e+06 0 -1.2103e+06 2.1877e+06 0 -1.21366e+06 2.19943e+06 0 -1.21704e+06 2.21123e+06 0 -1.22043e+06 2.22309e+06 0 -1.22384e+06 2.23503e+06 0 -927585 1.01326e+06 0 -928924 1.02175e+06 0 -930275 1.03025e+06 0 -931638 1.03877e+06 0 -933012 1.0473e+06 0 -934397 1.05584e+06 0 -935794 1.06439e+06 0 -937203 1.07295e+06 0 -938624 1.08153e+06 0 -940056 1.09012e+06 0 -941500 1.09872e+06 0 -942956 1.10733e+06 0 -944424 1.11596e+06 0 -945904 1.1246e+06 0 -947396 1.13325e+06 0 -948901 1.14192e+06 0 -950417 1.1506e+06 0 -951946 1.15929e+06 0 -953487 1.168e+06 0 -955041 1.17672e+06 0 -956607 1.18545e+06 0 -958186 1.1942e+06 0 -959777 1.20296e+06 0 -961381 1.21173e+06 0 -962998 1.22052e+06 0 -964628 1.22932e+06 0 -966270 1.23814e+06 0 -967926 1.24697e+06 0 -969595 1.25582e+06 0 -971278 1.26468e+06 0 -972973 1.27355e+06 0 -974682 1.28244e+06 0 -976405 1.29135e+06 0 -978141 1.30027e+06 0 -979891 1.30921e+06 0 -981655 1.31816e+06 0 -983433 1.32713e+06 0 -985224 1.33611e+06 0 -987030 1.34511e+06 0 -988851 1.35413e+06 0 -990685 1.36316e+06 0 -992534 1.37221e+06 0 -994398 1.38128e+06 0 -996276 1.39036e+06 0 -998169 1.39946e+06 0 -1.00008e+06 1.40858e+06 0 -1.002e+06 1.41771e+06 0 -1.00394e+06 1.42686e+06 0 -1.00589e+06 1.43603e+06 0 -1.00786e+06 1.44522e+06 0 -1.00985e+06 1.45443e+06 0 -1.01185e+06 1.46365e+06 0 -1.01386e+06 1.4729e+06 0 -1.01589e+06 1.48216e+06 0 -1.01794e+06 1.49144e+06 0 -1.02001e+06 1.50075e+06 0 -1.02209e+06 1.51007e+06 0 -1.02418e+06 1.51941e+06 0 -1.0263e+06 1.52877e+06 0 -1.02843e+06 1.53816e+06 0 -1.03057e+06 1.54756e+06 0 -1.03274e+06 1.55698e+06 0 -1.03492e+06 1.56643e+06 0 -1.03712e+06 1.5759e+06 0 -1.03933e+06 1.58539e+06 0 -1.04156e+06 1.5949e+06 0 -1.04382e+06 1.60444e+06 0 -1.04608e+06 1.61399e+06 0 -1.04837e+06 1.62358e+06 0 -1.05067e+06 1.63318e+06 0 -1.053e+06 1.64281e+06 0 -1.05534e+06 1.65247e+06 0 -1.0577e+06 1.66214e+06 0 -1.06007e+06 1.67185e+06 0 -1.06247e+06 1.68158e+06 0 -1.06489e+06 1.69133e+06 0 -1.06732e+06 1.70112e+06 0 -1.06977e+06 1.71093e+06 0 -1.07225e+06 1.72076e+06 0 -1.07474e+06 1.73063e+06 0 -1.07725e+06 1.74052e+06 0 -1.07978e+06 1.75044e+06 0 -1.08233e+06 1.7604e+06 0 -1.0849e+06 1.77038e+06 0 -1.08749e+06 1.78039e+06 0 -1.09009e+06 1.79043e+06 0 -1.09272e+06 1.80051e+06 0 -1.09537e+06 1.81061e+06 0 -1.09804e+06 1.82075e+06 0 -1.10073e+06 1.83093e+06 0 -1.10344e+06 1.84113e+06 0 -1.10617e+06 1.85137e+06 0 -1.10892e+06 1.86165e+06 0 -1.11169e+06 1.87196e+06 0 -1.11448e+06 1.88231e+06 0 -1.11729e+06 1.8927e+06 0 -1.12012e+06 1.90312e+06 0 -1.12297e+06 1.91358e+06 0 -1.12584e+06 1.92408e+06 0 -1.12873e+06 1.93463e+06 0 -1.13164e+06 1.94521e+06 0 -1.13457e+06 1.95584e+06 0 -1.13753e+06 1.9665e+06 0 -1.1405e+06 1.97721e+06 0 -1.14349e+06 1.98797e+06 0 -1.1465e+06 1.99877e+06 0 -1.14953e+06 2.00962e+06 0 -1.15258e+06 2.02051e+06 0 -1.15565e+06 2.03145e+06 0 -1.15874e+06 2.04244e+06 0 -1.16185e+06 2.05348e+06 0 -1.16497e+06 2.06457e+06 0 -1.16812e+06 2.07572e+06 0 -1.17128e+06 2.08691e+06 0 -1.17446e+06 2.09816e+06 0 -1.17766e+06 2.10947e+06 0 -1.18087e+06 2.12083e+06 0 -1.1841e+06 2.13225e+06 0 -1.18735e+06 2.14372e+06 0 -1.19062e+06 2.15526e+06 0 -1.1939e+06 2.16686e+06 0 -1.19719e+06 2.17852e+06 0 -1.2005e+06 2.19024e+06 0 -1.20382e+06 2.20203e+06 0 -1.20716e+06 2.21388e+06 0 -1.2105e+06 2.2258e+06 0 -1.21386e+06 2.23779e+06 0 -1.21724e+06 2.24985e+06 0 -921210 1.01859e+06 0 -922551 1.02713e+06 0 -923903 1.03568e+06 0 -925267 1.04425e+06 0 -926642 1.05283e+06 0 -928029 1.06142e+06 0 -929427 1.07002e+06 0 -930837 1.07863e+06 0 -932259 1.08726e+06 0 -933693 1.0959e+06 0 -935139 1.10455e+06 0 -936596 1.11321e+06 0 -938066 1.12189e+06 0 -939548 1.13058e+06 0 -941041 1.13929e+06 0 -942547 1.148e+06 0 -944066 1.15673e+06 0 -945596 1.16548e+06 0 -947139 1.17424e+06 0 -948695 1.18301e+06 0 -950263 1.19179e+06 0 -951843 1.20059e+06 0 -953437 1.20941e+06 0 -955043 1.21823e+06 0 -956662 1.22708e+06 0 -958294 1.23593e+06 0 -959939 1.2448e+06 0 -961597 1.25369e+06 0 -963268 1.26259e+06 0 -964953 1.27151e+06 0 -966651 1.28044e+06 0 -968363 1.28938e+06 0 -970088 1.29834e+06 0 -971826 1.30732e+06 0 -973579 1.31632e+06 0 -975345 1.32532e+06 0 -977126 1.33435e+06 0 -978920 1.34339e+06 0 -980729 1.35245e+06 0 -982552 1.36152e+06 0 -984389 1.37061e+06 0 -986241 1.37972e+06 0 -988107 1.38885e+06 0 -989989 1.39799e+06 0 -991885 1.40715e+06 0 -993796 1.41632e+06 0 -995722 1.42552e+06 0 -997663 1.43473e+06 0 -999620 1.44396e+06 0 -1.00159e+06 1.45321e+06 0 -1.00358e+06 1.46248e+06 0 -1.00558e+06 1.47177e+06 0 -1.0076e+06 1.48108e+06 0 -1.00964e+06 1.49041e+06 0 -1.01169e+06 1.49975e+06 0 -1.01376e+06 1.50912e+06 0 -1.01584e+06 1.5185e+06 0 -1.01794e+06 1.52791e+06 0 -1.02006e+06 1.53734e+06 0 -1.02219e+06 1.54679e+06 0 -1.02434e+06 1.55626e+06 0 -1.02651e+06 1.56575e+06 0 -1.02869e+06 1.57526e+06 0 -1.03089e+06 1.5848e+06 0 -1.03311e+06 1.59436e+06 0 -1.03535e+06 1.60394e+06 0 -1.0376e+06 1.61354e+06 0 -1.03987e+06 1.62317e+06 0 -1.04216e+06 1.63282e+06 0 -1.04447e+06 1.6425e+06 0 -1.04679e+06 1.6522e+06 0 -1.04914e+06 1.66193e+06 0 -1.0515e+06 1.67168e+06 0 -1.05388e+06 1.68146e+06 0 -1.05628e+06 1.69126e+06 0 -1.05869e+06 1.70109e+06 0 -1.06113e+06 1.71095e+06 0 -1.06358e+06 1.72084e+06 0 -1.06606e+06 1.73075e+06 0 -1.06855e+06 1.74069e+06 0 -1.07106e+06 1.75067e+06 0 -1.0736e+06 1.76067e+06 0 -1.07615e+06 1.7707e+06 0 -1.07872e+06 1.78076e+06 0 -1.08131e+06 1.79085e+06 0 -1.08392e+06 1.80098e+06 0 -1.08654e+06 1.81114e+06 0 -1.08919e+06 1.82133e+06 0 -1.09186e+06 1.83155e+06 0 -1.09455e+06 1.84181e+06 0 -1.09726e+06 1.8521e+06 0 -1.09998e+06 1.86243e+06 0 -1.10273e+06 1.87279e+06 0 -1.1055e+06 1.88319e+06 0 -1.10829e+06 1.89363e+06 0 -1.11109e+06 1.90411e+06 0 -1.11392e+06 1.91462e+06 0 -1.11677e+06 1.92518e+06 0 -1.11963e+06 1.93577e+06 0 -1.12252e+06 1.94641e+06 0 -1.12543e+06 1.95709e+06 0 -1.12835e+06 1.96781e+06 0 -1.1313e+06 1.97857e+06 0 -1.13426e+06 1.98938e+06 0 -1.13724e+06 2.00024e+06 0 -1.14025e+06 2.01114e+06 0 -1.14327e+06 2.02209e+06 0 -1.14631e+06 2.03308e+06 0 -1.14937e+06 2.04413e+06 0 -1.15244e+06 2.05522e+06 0 -1.15554e+06 2.06637e+06 0 -1.15865e+06 2.07757e+06 0 -1.16178e+06 2.08882e+06 0 -1.16492e+06 2.10012e+06 0 -1.16809e+06 2.11148e+06 0 -1.17127e+06 2.1229e+06 0 -1.17446e+06 2.13437e+06 0 -1.17767e+06 2.1459e+06 0 -1.1809e+06 2.1575e+06 0 -1.18414e+06 2.16915e+06 0 -1.1874e+06 2.18087e+06 0 -1.19066e+06 2.19264e+06 0 -1.19394e+06 2.20449e+06 0 -1.19724e+06 2.2164e+06 0 -1.20054e+06 2.22837e+06 0 -1.20386e+06 2.24042e+06 0 -1.20718e+06 2.25253e+06 0 -1.21052e+06 2.26472e+06 0 -914821 1.02393e+06 0 -916163 1.03252e+06 0 -917516 1.04112e+06 0 -918881 1.04973e+06 0 -920257 1.05836e+06 0 -921645 1.067e+06 0 -923045 1.07565e+06 0 -924456 1.08431e+06 0 -925879 1.09299e+06 0 -927314 1.10168e+06 0 -928761 1.11038e+06 0 -930220 1.1191e+06 0 -931691 1.12783e+06 0 -933175 1.13657e+06 0 -934670 1.14532e+06 0 -936177 1.15409e+06 0 -937697 1.16288e+06 0 -939229 1.17167e+06 0 -940774 1.18048e+06 0 -942331 1.18931e+06 0 -943901 1.19814e+06 0 -945484 1.207e+06 0 -947079 1.21586e+06 0 -948687 1.22475e+06 0 -950308 1.23364e+06 0 -951942 1.24255e+06 0 -953589 1.25148e+06 0 -955249 1.26042e+06 0 -956922 1.26937e+06 0 -958609 1.27834e+06 0 -960309 1.28733e+06 0 -962023 1.29633e+06 0 -963750 1.30535e+06 0 -965491 1.31438e+06 0 -967246 1.32343e+06 0 -969015 1.3325e+06 0 -970798 1.34158e+06 0 -972595 1.35068e+06 0 -974406 1.35979e+06 0 -976231 1.36893e+06 0 -978071 1.37808e+06 0 -979926 1.38724e+06 0 -981795 1.39643e+06 0 -983679 1.40563e+06 0 -985577 1.41485e+06 0 -987491 1.42409e+06 0 -989420 1.43334e+06 0 -991364 1.44262e+06 0 -993323 1.45191e+06 0 -995298 1.46122e+06 0 -997289 1.47055e+06 0 -999295 1.4799e+06 0 -1.00132e+06 1.48927e+06 0 -1.00335e+06 1.49866e+06 0 -1.00541e+06 1.50807e+06 0 -1.00748e+06 1.5175e+06 0 -1.00956e+06 1.52696e+06 0 -1.01167e+06 1.53643e+06 0 -1.01379e+06 1.54592e+06 0 -1.01592e+06 1.55544e+06 0 -1.01808e+06 1.56497e+06 0 -1.02025e+06 1.57453e+06 0 -1.02243e+06 1.58411e+06 0 -1.02464e+06 1.59372e+06 0 -1.02686e+06 1.60335e+06 0 -1.0291e+06 1.613e+06 0 -1.03135e+06 1.62267e+06 0 -1.03363e+06 1.63237e+06 0 -1.03592e+06 1.64209e+06 0 -1.03823e+06 1.65184e+06 0 -1.04055e+06 1.66161e+06 0 -1.0429e+06 1.67141e+06 0 -1.04526e+06 1.68124e+06 0 -1.04765e+06 1.69109e+06 0 -1.05005e+06 1.70097e+06 0 -1.05247e+06 1.71088e+06 0 -1.0549e+06 1.72081e+06 0 -1.05736e+06 1.73077e+06 0 -1.05983e+06 1.74076e+06 0 -1.06233e+06 1.75078e+06 0 -1.06484e+06 1.76083e+06 0 -1.06737e+06 1.77092e+06 0 -1.06992e+06 1.78103e+06 0 -1.07249e+06 1.79117e+06 0 -1.07508e+06 1.80134e+06 0 -1.07769e+06 1.81155e+06 0 -1.08032e+06 1.82179e+06 0 -1.08297e+06 1.83207e+06 0 -1.08563e+06 1.84237e+06 0 -1.08832e+06 1.85272e+06 0 -1.09103e+06 1.8631e+06 0 -1.09375e+06 1.87351e+06 0 -1.0965e+06 1.88396e+06 0 -1.09926e+06 1.89445e+06 0 -1.10204e+06 1.90498e+06 0 -1.10485e+06 1.91555e+06 0 -1.10767e+06 1.92616e+06 0 -1.11051e+06 1.9368e+06 0 -1.11337e+06 1.94749e+06 0 -1.11625e+06 1.95822e+06 0 -1.11915e+06 1.969e+06 0 -1.12207e+06 1.97982e+06 0 -1.125e+06 1.99068e+06 0 -1.12796e+06 2.00158e+06 0 -1.13093e+06 2.01254e+06 0 -1.13392e+06 2.02354e+06 0 -1.13693e+06 2.03459e+06 0 -1.13996e+06 2.04569e+06 0 -1.14301e+06 2.05684e+06 0 -1.14607e+06 2.06804e+06 0 -1.14915e+06 2.07929e+06 0 -1.15225e+06 2.09059e+06 0 -1.15536e+06 2.10195e+06 0 -1.15849e+06 2.11337e+06 0 -1.16163e+06 2.12484e+06 0 -1.16479e+06 2.13637e+06 0 -1.16796e+06 2.14795e+06 0 -1.17115e+06 2.1596e+06 0 -1.17436e+06 2.17131e+06 0 -1.17757e+06 2.18308e+06 0 -1.1808e+06 2.19491e+06 0 -1.18404e+06 2.20681e+06 0 -1.18729e+06 2.21877e+06 0 -1.19055e+06 2.2308e+06 0 -1.19382e+06 2.2429e+06 0 -1.1971e+06 2.25507e+06 0 -1.20039e+06 2.2673e+06 0 -1.20369e+06 2.27962e+06 0 -908417 1.02927e+06 0 -909760 1.03791e+06 0 -911114 1.04656e+06 0 -912479 1.05522e+06 0 -913857 1.0639e+06 0 -915246 1.07259e+06 0 -916646 1.08129e+06 0 -918059 1.09e+06 0 -919483 1.09873e+06 0 -920920 1.10747e+06 0 -922368 1.11622e+06 0 -923828 1.12499e+06 0 -925300 1.13377e+06 0 -926785 1.14256e+06 0 -928281 1.15137e+06 0 -929790 1.16019e+06 0 -931312 1.16902e+06 0 -932845 1.17787e+06 0 -934391 1.18674e+06 0 -935950 1.19561e+06 0 -937522 1.2045e+06 0 -939106 1.21341e+06 0 -940702 1.22233e+06 0 -942312 1.23126e+06 0 -943935 1.24021e+06 0 -945571 1.24918e+06 0 -947219 1.25816e+06 0 -948881 1.26715e+06 0 -950557 1.27616e+06 0 -952245 1.28519e+06 0 -953948 1.29423e+06 0 -955663 1.30329e+06 0 -957393 1.31236e+06 0 -959136 1.32145e+06 0 -960893 1.33056e+06 0 -962664 1.33968e+06 0 -964449 1.34882e+06 0 -966248 1.35798e+06 0 -968061 1.36715e+06 0 -969889 1.37634e+06 0 -971731 1.38555e+06 0 -973588 1.39478e+06 0 -975459 1.40402e+06 0 -977346 1.41328e+06 0 -979247 1.42256e+06 0 -981163 1.43186e+06 0 -983094 1.44118e+06 0 -985041 1.45051e+06 0 -987003 1.45987e+06 0 -988980 1.46924e+06 0 -990973 1.47864e+06 0 -992981 1.48805e+06 0 -995006 1.49748e+06 0 -997046 1.50694e+06 0 -999102 1.51641e+06 0 -1.00117e+06 1.52591e+06 0 -1.00326e+06 1.53542e+06 0 -1.00537e+06 1.54496e+06 0 -1.00749e+06 1.55452e+06 0 -1.00963e+06 1.5641e+06 0 -1.01178e+06 1.57371e+06 0 -1.01396e+06 1.58333e+06 0 -1.01615e+06 1.59298e+06 0 -1.01835e+06 1.60265e+06 0 -1.02057e+06 1.61235e+06 0 -1.02282e+06 1.62207e+06 0 -1.02507e+06 1.63182e+06 0 -1.02735e+06 1.64159e+06 0 -1.02964e+06 1.65138e+06 0 -1.03195e+06 1.6612e+06 0 -1.03428e+06 1.67105e+06 0 -1.03663e+06 1.68092e+06 0 -1.03899e+06 1.69082e+06 0 -1.04138e+06 1.70074e+06 0 -1.04378e+06 1.7107e+06 0 -1.0462e+06 1.72068e+06 0 -1.04864e+06 1.73069e+06 0 -1.05109e+06 1.74073e+06 0 -1.05357e+06 1.7508e+06 0 -1.05606e+06 1.7609e+06 0 -1.05858e+06 1.77103e+06 0 -1.06111e+06 1.78119e+06 0 -1.06366e+06 1.79138e+06 0 -1.06623e+06 1.8016e+06 0 -1.06882e+06 1.81186e+06 0 -1.07142e+06 1.82215e+06 0 -1.07405e+06 1.83248e+06 0 -1.0767e+06 1.84283e+06 0 -1.07936e+06 1.85323e+06 0 -1.08204e+06 1.86366e+06 0 -1.08475e+06 1.87412e+06 0 -1.08747e+06 1.88463e+06 0 -1.09021e+06 1.89517e+06 0 -1.09297e+06 1.90575e+06 0 -1.09575e+06 1.91636e+06 0 -1.09855e+06 1.92702e+06 0 -1.10136e+06 1.93772e+06 0 -1.1042e+06 1.94846e+06 0 -1.10705e+06 1.95924e+06 0 -1.10992e+06 1.97007e+06 0 -1.11281e+06 1.98094e+06 0 -1.11572e+06 1.99185e+06 0 -1.11865e+06 2.00281e+06 0 -1.12159e+06 2.01382e+06 0 -1.12456e+06 2.02487e+06 0 -1.12753e+06 2.03598e+06 0 -1.13053e+06 2.04713e+06 0 -1.13355e+06 2.05833e+06 0 -1.13658e+06 2.06958e+06 0 -1.13962e+06 2.08089e+06 0 -1.14269e+06 2.09225e+06 0 -1.14576e+06 2.10366e+06 0 -1.14886e+06 2.11513e+06 0 -1.15197e+06 2.12665e+06 0 -1.15509e+06 2.13823e+06 0 -1.15823e+06 2.14987e+06 0 -1.16138e+06 2.16157e+06 0 -1.16454e+06 2.17333e+06 0 -1.16772e+06 2.18515e+06 0 -1.1709e+06 2.19704e+06 0 -1.1741e+06 2.20899e+06 0 -1.17731e+06 2.221e+06 0 -1.18053e+06 2.23309e+06 0 -1.18376e+06 2.24524e+06 0 -1.18699e+06 2.25746e+06 0 -1.19023e+06 2.26975e+06 0 -1.19348e+06 2.28211e+06 0 -1.19674e+06 2.29455e+06 0 -901998 1.03462e+06 0 -903341 1.0433e+06 0 -904696 1.052e+06 0 -906063 1.06072e+06 0 -907441 1.06944e+06 0 -908831 1.07818e+06 0 -910233 1.08693e+06 0 -911646 1.0957e+06 0 -913071 1.10447e+06 0 -914509 1.11326e+06 0 -915958 1.12207e+06 0 -917419 1.13089e+06 0 -918893 1.13972e+06 0 -920378 1.14856e+06 0 -921876 1.15742e+06 0 -923386 1.16629e+06 0 -924909 1.17518e+06 0 -926444 1.18408e+06 0 -927991 1.193e+06 0 -929551 1.20192e+06 0 -931124 1.21087e+06 0 -932710 1.21983e+06 0 -934308 1.2288e+06 0 -935919 1.23779e+06 0 -937543 1.24679e+06 0 -939181 1.25581e+06 0 -940831 1.26485e+06 0 -942495 1.2739e+06 0 -944172 1.28296e+06 0 -945862 1.29205e+06 0 -947566 1.30114e+06 0 -949284 1.31026e+06 0 -951015 1.31939e+06 0 -952760 1.32853e+06 0 -954519 1.3377e+06 0 -956292 1.34688e+06 0 -958078 1.35608e+06 0 -959880 1.36529e+06 0 -961695 1.37452e+06 0 -963525 1.38377e+06 0 -965369 1.39304e+06 0 -967228 1.40232e+06 0 -969101 1.41163e+06 0 -970990 1.42095e+06 0 -972893 1.43029e+06 0 -974811 1.43965e+06 0 -976744 1.44903e+06 0 -978693 1.45842e+06 0 -980657 1.46784e+06 0 -982636 1.47728e+06 0 -984631 1.48673e+06 0 -986642 1.49621e+06 0 -988669 1.50571e+06 0 -990711 1.51522e+06 0 -992769 1.52476e+06 0 -994844 1.53432e+06 0 -996935 1.54391e+06 0 -999042 1.55351e+06 0 -1.00117e+06 1.56314e+06 0 -1.00331e+06 1.57278e+06 0 -1.00546e+06 1.58246e+06 0 -1.00764e+06 1.59215e+06 0 -1.00983e+06 1.60187e+06 0 -1.01204e+06 1.61161e+06 0 -1.01426e+06 1.62138e+06 0 -1.0165e+06 1.63117e+06 0 -1.01876e+06 1.64098e+06 0 -1.02104e+06 1.65082e+06 0 -1.02333e+06 1.66069e+06 0 -1.02565e+06 1.67058e+06 0 -1.02798e+06 1.6805e+06 0 -1.03032e+06 1.69045e+06 0 -1.03269e+06 1.70042e+06 0 -1.03507e+06 1.71042e+06 0 -1.03748e+06 1.72045e+06 0 -1.0399e+06 1.73051e+06 0 -1.04233e+06 1.74059e+06 0 -1.04479e+06 1.75071e+06 0 -1.04727e+06 1.76086e+06 0 -1.04976e+06 1.77104e+06 0 -1.05227e+06 1.78124e+06 0 -1.0548e+06 1.79149e+06 0 -1.05735e+06 1.80176e+06 0 -1.05992e+06 1.81206e+06 0 -1.06251e+06 1.8224e+06 0 -1.06511e+06 1.83278e+06 0 -1.06773e+06 1.84318e+06 0 -1.07038e+06 1.85363e+06 0 -1.07304e+06 1.86411e+06 0 -1.07572e+06 1.87462e+06 0 -1.07842e+06 1.88518e+06 0 -1.08113e+06 1.89577e+06 0 -1.08387e+06 1.9064e+06 0 -1.08662e+06 1.91707e+06 0 -1.0894e+06 1.92777e+06 0 -1.09219e+06 1.93852e+06 0 -1.095e+06 1.94932e+06 0 -1.09782e+06 1.96015e+06 0 -1.10067e+06 1.97103e+06 0 -1.10353e+06 1.98195e+06 0 -1.10641e+06 1.99291e+06 0 -1.10931e+06 2.00392e+06 0 -1.11223e+06 2.01498e+06 0 -1.11516e+06 2.02609e+06 0 -1.11811e+06 2.03724e+06 0 -1.12107e+06 2.04845e+06 0 -1.12406e+06 2.0597e+06 0 -1.12706e+06 2.071e+06 0 -1.13007e+06 2.08236e+06 0 -1.1331e+06 2.09377e+06 0 -1.13614e+06 2.10523e+06 0 -1.1392e+06 2.11675e+06 0 -1.14228e+06 2.12833e+06 0 -1.14536e+06 2.13996e+06 0 -1.14846e+06 2.15166e+06 0 -1.15157e+06 2.16341e+06 0 -1.1547e+06 2.17522e+06 0 -1.15783e+06 2.18709e+06 0 -1.16098e+06 2.19903e+06 0 -1.16414e+06 2.21103e+06 0 -1.16731e+06 2.2231e+06 0 -1.17048e+06 2.23523e+06 0 -1.17366e+06 2.24744e+06 0 -1.17685e+06 2.25971e+06 0 -1.18005e+06 2.27205e+06 0 -1.18325e+06 2.28446e+06 0 -1.18646e+06 2.29695e+06 0 -1.18967e+06 2.30951e+06 0 -895564 1.03997e+06 0 -896908 1.0487e+06 0 -898264 1.05745e+06 0 -899631 1.06622e+06 0 -901010 1.07499e+06 0 -902401 1.08378e+06 0 -903803 1.09258e+06 0 -905217 1.10139e+06 0 -906643 1.11022e+06 0 -908082 1.11906e+06 0 -909532 1.12792e+06 0 -910994 1.13679e+06 0 -912468 1.14567e+06 0 -913955 1.15457e+06 0 -915454 1.16348e+06 0 -916965 1.1724e+06 0 -918489 1.18134e+06 0 -920025 1.19029e+06 0 -921573 1.19926e+06 0 -923135 1.20824e+06 0 -924709 1.21724e+06 0 -926295 1.22625e+06 0 -927895 1.23528e+06 0 -929508 1.24432e+06 0 -931133 1.25338e+06 0 -932772 1.26246e+06 0 -934424 1.27155e+06 0 -936089 1.28065e+06 0 -937767 1.28977e+06 0 -939459 1.29891e+06 0 -941165 1.30806e+06 0 -942884 1.31723e+06 0 -944616 1.32642e+06 0 -946363 1.33562e+06 0 -948124 1.34484e+06 0 -949898 1.35408e+06 0 -951687 1.36334e+06 0 -953489 1.37261e+06 0 -955307 1.3819e+06 0 -957138 1.39121e+06 0 -958984 1.40053e+06 0 -960845 1.40988e+06 0 -962720 1.41924e+06 0 -964610 1.42862e+06 0 -966515 1.43803e+06 0 -968435 1.44745e+06 0 -970370 1.45689e+06 0 -972321 1.46634e+06 0 -974286 1.47582e+06 0 -976268 1.48532e+06 0 -978264 1.49484e+06 0 -980277 1.50438e+06 0 -982305 1.51394e+06 0 -984349 1.52353e+06 0 -986409 1.53313e+06 0 -988486 1.54276e+06 0 -990578 1.5524e+06 0 -992687 1.56207e+06 0 -994812 1.57177e+06 0 -996954 1.58148e+06 0 -999112 1.59122e+06 0 -1.00129e+06 1.60098e+06 0 -1.00348e+06 1.61077e+06 0 -1.00569e+06 1.62058e+06 0 -1.00791e+06 1.63042e+06 0 -1.01016e+06 1.64028e+06 0 -1.01242e+06 1.65016e+06 0 -1.0147e+06 1.66008e+06 0 -1.01699e+06 1.67002e+06 0 -1.0193e+06 1.67998e+06 0 -1.02163e+06 1.68997e+06 0 -1.02398e+06 1.69999e+06 0 -1.02635e+06 1.71004e+06 0 -1.02873e+06 1.72012e+06 0 -1.03113e+06 1.73022e+06 0 -1.03355e+06 1.74036e+06 0 -1.03599e+06 1.75052e+06 0 -1.03845e+06 1.76071e+06 0 -1.04092e+06 1.77094e+06 0 -1.04341e+06 1.7812e+06 0 -1.04592e+06 1.79148e+06 0 -1.04845e+06 1.80181e+06 0 -1.051e+06 1.81216e+06 0 -1.05357e+06 1.82255e+06 0 -1.05615e+06 1.83297e+06 0 -1.05875e+06 1.84343e+06 0 -1.06137e+06 1.85392e+06 0 -1.06401e+06 1.86445e+06 0 -1.06667e+06 1.87501e+06 0 -1.06934e+06 1.88562e+06 0 -1.07203e+06 1.89626e+06 0 -1.07475e+06 1.90693e+06 0 -1.07748e+06 1.91765e+06 0 -1.08022e+06 1.92841e+06 0 -1.08299e+06 1.93921e+06 0 -1.08577e+06 1.95005e+06 0 -1.08857e+06 1.96094e+06 0 -1.09139e+06 1.97187e+06 0 -1.09423e+06 1.98284e+06 0 -1.09708e+06 1.99385e+06 0 -1.09995e+06 2.00492e+06 0 -1.10283e+06 2.01602e+06 0 -1.10574e+06 2.02718e+06 0 -1.10866e+06 2.03839e+06 0 -1.11159e+06 2.04964e+06 0 -1.11454e+06 2.06094e+06 0 -1.11751e+06 2.0723e+06 0 -1.12049e+06 2.08371e+06 0 -1.12349e+06 2.09517e+06 0 -1.1265e+06 2.10668e+06 0 -1.12952e+06 2.11826e+06 0 -1.13256e+06 2.12988e+06 0 -1.13561e+06 2.14157e+06 0 -1.13867e+06 2.15331e+06 0 -1.14175e+06 2.16511e+06 0 -1.14483e+06 2.17697e+06 0 -1.14793e+06 2.1889e+06 0 -1.15103e+06 2.20089e+06 0 -1.15415e+06 2.21294e+06 0 -1.15727e+06 2.22506e+06 0 -1.16041e+06 2.23724e+06 0 -1.16355e+06 2.24949e+06 0 -1.16669e+06 2.26181e+06 0 -1.16984e+06 2.2742e+06 0 -1.173e+06 2.28667e+06 0 -1.17616e+06 2.2992e+06 0 -1.17932e+06 2.31181e+06 0 -1.18248e+06 2.3245e+06 0 -889116 1.04532e+06 0 -890460 1.05411e+06 0 -891816 1.06291e+06 0 -893184 1.07172e+06 0 -894564 1.08054e+06 0 -895955 1.08938e+06 0 -897358 1.09823e+06 0 -898773 1.1071e+06 0 -900200 1.11598e+06 0 -901638 1.12487e+06 0 -903089 1.13377e+06 0 -904552 1.14269e+06 0 -906027 1.15163e+06 0 -907515 1.16058e+06 0 -909015 1.16954e+06 0 -910527 1.17851e+06 0 -912051 1.18751e+06 0 -913588 1.19651e+06 0 -915138 1.20553e+06 0 -916700 1.21457e+06 0 -918275 1.22362e+06 0 -919863 1.23269e+06 0 -921464 1.24177e+06 0 -923077 1.25086e+06 0 -924704 1.25998e+06 0 -926344 1.26911e+06 0 -927997 1.27825e+06 0 -929663 1.28741e+06 0 -931343 1.29659e+06 0 -933036 1.30578e+06 0 -934743 1.31499e+06 0 -936463 1.32422e+06 0 -938197 1.33346e+06 0 -939945 1.34272e+06 0 -941707 1.352e+06 0 -943483 1.3613e+06 0 -945273 1.37061e+06 0 -947077 1.37994e+06 0 -948896 1.38929e+06 0 -950729 1.39866e+06 0 -952576 1.40804e+06 0 -954438 1.41745e+06 0 -956315 1.42687e+06 0 -958207 1.43631e+06 0 -960113 1.44577e+06 0 -962035 1.45526e+06 0 -963972 1.46476e+06 0 -965923 1.47428e+06 0 -967891 1.48382e+06 0 -969873 1.49338e+06 0 -971872 1.50297e+06 0 -973885 1.51257e+06 0 -975915 1.5222e+06 0 -977960 1.53184e+06 0 -980022 1.54151e+06 0 -982099 1.5512e+06 0 -984193 1.56092e+06 0 -986303 1.57065e+06 0 -988429 1.58041e+06 0 -990572 1.5902e+06 0 -992732 1.6e+06 0 -994908 1.60983e+06 0 -997101 1.61969e+06 0 -999310 1.62957e+06 0 -1.00154e+06 1.63948e+06 0 -1.00378e+06 1.64941e+06 0 -1.00604e+06 1.65937e+06 0 -1.00832e+06 1.66935e+06 0 -1.01062e+06 1.67936e+06 0 -1.01293e+06 1.6894e+06 0 -1.01526e+06 1.69946e+06 0 -1.01761e+06 1.70956e+06 0 -1.01997e+06 1.71968e+06 0 -1.02235e+06 1.72983e+06 0 -1.02476e+06 1.74001e+06 0 -1.02717e+06 1.75022e+06 0 -1.02961e+06 1.76047e+06 0 -1.03206e+06 1.77074e+06 0 -1.03454e+06 1.78104e+06 0 -1.03703e+06 1.79138e+06 0 -1.03953e+06 1.80175e+06 0 -1.04206e+06 1.81215e+06 0 -1.0446e+06 1.82259e+06 0 -1.04717e+06 1.83306e+06 0 -1.04975e+06 1.84356e+06 0 -1.05234e+06 1.8541e+06 0 -1.05496e+06 1.86468e+06 0 -1.05759e+06 1.87529e+06 0 -1.06025e+06 1.88594e+06 0 -1.06291e+06 1.89663e+06 0 -1.0656e+06 1.90736e+06 0 -1.06831e+06 1.91813e+06 0 -1.07103e+06 1.92894e+06 0 -1.07377e+06 1.93979e+06 0 -1.07652e+06 1.95068e+06 0 -1.0793e+06 1.96161e+06 0 -1.08209e+06 1.97259e+06 0 -1.0849e+06 1.98361e+06 0 -1.08772e+06 1.99468e+06 0 -1.09056e+06 2.00579e+06 0 -1.09342e+06 2.01695e+06 0 -1.09629e+06 2.02815e+06 0 -1.09918e+06 2.03941e+06 0 -1.10209e+06 2.05071e+06 0 -1.10501e+06 2.06207e+06 0 -1.10794e+06 2.07347e+06 0 -1.11089e+06 2.08493e+06 0 -1.11385e+06 2.09644e+06 0 -1.11683e+06 2.10801e+06 0 -1.11981e+06 2.11963e+06 0 -1.12282e+06 2.13131e+06 0 -1.12583e+06 2.14304e+06 0 -1.12886e+06 2.15483e+06 0 -1.13189e+06 2.16668e+06 0 -1.13494e+06 2.1786e+06 0 -1.138e+06 2.19057e+06 0 -1.14106e+06 2.20261e+06 0 -1.14414e+06 2.21471e+06 0 -1.14722e+06 2.22688e+06 0 -1.15031e+06 2.23911e+06 0 -1.15341e+06 2.25141e+06 0 -1.15651e+06 2.26378e+06 0 -1.15961e+06 2.27622e+06 0 -1.16272e+06 2.28873e+06 0 -1.16583e+06 2.30131e+06 0 -1.16894e+06 2.31397e+06 0 -1.17206e+06 2.3267e+06 0 -1.17517e+06 2.33951e+06 0 -882652 1.05068e+06 0 -883997 1.05951e+06 0 -885354 1.06836e+06 0 -886722 1.07722e+06 0 -888102 1.0861e+06 0 -889493 1.09499e+06 0 -890897 1.10389e+06 0 -892312 1.1128e+06 0 -893739 1.12173e+06 0 -895179 1.13068e+06 0 -896630 1.13963e+06 0 -898094 1.14861e+06 0 -899570 1.15759e+06 0 -901058 1.16659e+06 0 -902558 1.17561e+06 0 -904071 1.18463e+06 0 -905596 1.19368e+06 0 -907134 1.20274e+06 0 -908684 1.21181e+06 0 -910247 1.2209e+06 0 -911823 1.23001e+06 0 -913412 1.23913e+06 0 -915014 1.24826e+06 0 -916628 1.25741e+06 0 -918256 1.26658e+06 0 -919897 1.27576e+06 0 -921551 1.28496e+06 0 -923218 1.29418e+06 0 -924899 1.30341e+06 0 -926593 1.31266e+06 0 -928301 1.32193e+06 0 -930022 1.33121e+06 0 -931758 1.34051e+06 0 -933507 1.34983e+06 0 -935270 1.35917e+06 0 -937047 1.36852e+06 0 -938838 1.37789e+06 0 -940643 1.38728e+06 0 -942463 1.39669e+06 0 -944297 1.40612e+06 0 -946146 1.41556e+06 0 -948009 1.42503e+06 0 -949887 1.43451e+06 0 -951780 1.44401e+06 0 -953687 1.45354e+06 0 -955610 1.46308e+06 0 -957548 1.47264e+06 0 -959501 1.48223e+06 0 -961469 1.49183e+06 0 -963453 1.50146e+06 0 -965452 1.5111e+06 0 -967467 1.52077e+06 0 -969498 1.53046e+06 0 -971544 1.54017e+06 0 -973607 1.54991e+06 0 -975685 1.55966e+06 0 -977779 1.56944e+06 0 -979890 1.57925e+06 0 -982017 1.58907e+06 0 -984161 1.59893e+06 0 -986320 1.6088e+06 0 -988497 1.6187e+06 0 -990690 1.62863e+06 0 -992900 1.63858e+06 0 -995127 1.64855e+06 0 -997370 1.65856e+06 0 -999631 1.66858e+06 0 -1.00191e+06 1.67864e+06 0 -1.0042e+06 1.68872e+06 0 -1.00652e+06 1.69884e+06 0 -1.00885e+06 1.70898e+06 0 -1.01119e+06 1.71914e+06 0 -1.01356e+06 1.72934e+06 0 -1.01594e+06 1.73957e+06 0 -1.01834e+06 1.74983e+06 0 -1.02075e+06 1.76011e+06 0 -1.02319e+06 1.77043e+06 0 -1.02564e+06 1.78078e+06 0 -1.02811e+06 1.79117e+06 0 -1.0306e+06 1.80158e+06 0 -1.0331e+06 1.81203e+06 0 -1.03562e+06 1.82252e+06 0 -1.03816e+06 1.83303e+06 0 -1.04072e+06 1.84359e+06 0 -1.0433e+06 1.85418e+06 0 -1.04589e+06 1.8648e+06 0 -1.0485e+06 1.87546e+06 0 -1.05113e+06 1.88616e+06 0 -1.05377e+06 1.8969e+06 0 -1.05644e+06 1.90768e+06 0 -1.05912e+06 1.91849e+06 0 -1.06181e+06 1.92935e+06 0 -1.06453e+06 1.94025e+06 0 -1.06726e+06 1.95119e+06 0 -1.07e+06 1.96217e+06 0 -1.07277e+06 1.9732e+06 0 -1.07555e+06 1.98427e+06 0 -1.07834e+06 1.99538e+06 0 -1.08116e+06 2.00654e+06 0 -1.08398e+06 2.01775e+06 0 -1.08683e+06 2.02901e+06 0 -1.08968e+06 2.04031e+06 0 -1.09256e+06 2.05166e+06 0 -1.09545e+06 2.06307e+06 0 -1.09835e+06 2.07452e+06 0 -1.10126e+06 2.08603e+06 0 -1.10419e+06 2.09759e+06 0 -1.10713e+06 2.1092e+06 0 -1.11009e+06 2.12087e+06 0 -1.11305e+06 2.1326e+06 0 -1.11603e+06 2.14438e+06 0 -1.11902e+06 2.15622e+06 0 -1.12202e+06 2.16812e+06 0 -1.12503e+06 2.18009e+06 0 -1.12804e+06 2.19211e+06 0 -1.13107e+06 2.20419e+06 0 -1.1341e+06 2.21634e+06 0 -1.13714e+06 2.22856e+06 0 -1.14019e+06 2.24084e+06 0 -1.14324e+06 2.25319e+06 0 -1.1463e+06 2.2656e+06 0 -1.14936e+06 2.27809e+06 0 -1.15242e+06 2.29065e+06 0 -1.15549e+06 2.30327e+06 0 -1.15855e+06 2.31598e+06 0 -1.16161e+06 2.32875e+06 0 -1.16467e+06 2.34161e+06 0 -1.16773e+06 2.35454e+06 0 -876174 1.05604e+06 0 -877519 1.06492e+06 0 -878876 1.07382e+06 0 -880244 1.08273e+06 0 -881624 1.09166e+06 0 -883016 1.1006e+06 0 -884420 1.10955e+06 0 -885836 1.11852e+06 0 -887263 1.1275e+06 0 -888703 1.13649e+06 0 -890155 1.1455e+06 0 -891619 1.15452e+06 0 -893095 1.16356e+06 0 -894584 1.17261e+06 0 -896085 1.18168e+06 0 -897598 1.19076e+06 0 -899124 1.19986e+06 0 -900662 1.20897e+06 0 -902213 1.2181e+06 0 -903777 1.22724e+06 0 -905353 1.2364e+06 0 -906943 1.24557e+06 0 -908545 1.25476e+06 0 -910160 1.26397e+06 0 -911789 1.27319e+06 0 -913430 1.28243e+06 0 -915085 1.29168e+06 0 -916753 1.30096e+06 0 -918435 1.31024e+06 0 -920130 1.31955e+06 0 -921838 1.32887e+06 0 -923561 1.33821e+06 0 -925297 1.34757e+06 0 -927047 1.35695e+06 0 -928811 1.36634e+06 0 -930589 1.37575e+06 0 -932381 1.38518e+06 0 -934187 1.39463e+06 0 -936008 1.4041e+06 0 -937843 1.41358e+06 0 -939692 1.42309e+06 0 -941556 1.43261e+06 0 -943435 1.44216e+06 0 -945329 1.45172e+06 0 -947237 1.46131e+06 0 -949161 1.47091e+06 0 -951099 1.48054e+06 0 -953053 1.49018e+06 0 -955022 1.49985e+06 0 -957007 1.50954e+06 0 -959007 1.51925e+06 0 -961022 1.52898e+06 0 -963053 1.53874e+06 0 -965100 1.54852e+06 0 -967163 1.55832e+06 0 -969242 1.56814e+06 0 -971337 1.57799e+06 0 -973448 1.58786e+06 0 -975575 1.59775e+06 0 -977719 1.60767e+06 0 -