<?xml version="1.0"?> 
<VTKFile type="StructuredGrid" version="0.1"> 
<StructuredGrid WholeExtent="0 127 0 127 0 0"> 
<Piece Extent="0 127 0 127 0 0"> 
<PointData>
<DataArray type="Float32" Name="|E|" format="ascii" NumberOfComponents="3"> 
276970 4.20084e+06 0 276818 4.19853e+06 0 276670 4.19628e+06 0 276525 4.19408e+06 0 276384 4.19194e+06 0 276246 4.18985e+06 0 276112 4.18782e+06 0 275981 4.18583e+06 0 275854 4.1839e+06 0 275730 4.18203e+06 0 275610 4.1802e+06 0 275493 4.17843e+06 0 275379 4.17671e+06 0 275269 4.17504e+06 0 275163 4.17342e+06 0 275059 4.17185e+06 0 274959 4.17033e+06 0 274862 4.16886e+06 0 274769 4.16745e+06 0 274679 4.16608e+06 0 274592 4.16477e+06 0 274509 4.1635e+06 0 274429 4.16229e+06 0 274352 4.16113e+06 0 274279 4.16001e+06 0 274209 4.15895e+06 0 274142 4.15794e+06 0 274079 4.15698e+06 0 274019 4.15608e+06 0 273963 4.15522e+06 0 273910 4.15441e+06 0 273860 4.15366e+06 0 273814 4.15296e+06 0 273771 4.15231e+06 0 273732 4.15172e+06 0 273696 4.15118e+06 0 273664 4.15069e+06 0 273635 4.15025e+06 0 273610 4.14987e+06 0 273589 4.14955e+06 0 273571 4.14928e+06 0 273557 4.14907e+06 0 273547 4.14891e+06 0 273540 4.14881e+06 0 273537 4.14877e+06 0 273538 4.14878e+06 0 273543 4.14886e+06 0 273552 4.14899e+06 0 273565 4.14918e+06 0 273582 4.14944e+06 0 273603 4.14976e+06 0 273628 4.15014e+06 0 273657 4.15058e+06 0 273691 4.15109e+06 0 273728 4.15166e+06 0 273771 4.1523e+06 0 273817 4.15301e+06 0 273869 4.15379e+06 0 273924 4.15464e+06 0 273985 4.15555e+06 0 274050 4.15654e+06 0 274120 4.15761e+06 0 274195 4.15874e+06 0 274275 4.15996e+06 0 274360 4.16125e+06 0 274451 4.16262e+06 0 274546 4.16407e+06 0 274648 4.16561e+06 0 274754 4.16722e+06 0 274866 4.16893e+06 0 274985 4.17072e+06 0 275108 4.1726e+06 0 275238 4.17457e+06 0 275375 4.17663e+06 0 275517 4.17879e+06 0 275666 4.18105e+06 0 275821 4.1834e+06 0 275983 4.18586e+06 0 276152 4.18843e+06 0 276328 4.1911e+06 0 276512 4.19388e+06 0 276702 4.19677e+06 0 276901 4.19978e+06 0 277107 4.20291e+06 0 277321 4.20616e+06 0 277544 4.20953e+06 0 277775 4.21303e+06 0 278014 4.21667e+06 0 278263 4.22044e+06 0 278521 4.22435e+06 0 278788 4.2284e+06 0 279065 4.2326e+06 0 279352 4.23696e+06 0 279649 4.24147e+06 0 279957 4.24614e+06 0 280276 4.25098e+06 0 280607 4.25599e+06 0 280949 4.26118e+06 0 281303 4.26655e+06 0 281670 4.27212e+06 0 282050 4.27788e+06 0 282443 4.28384e+06 0 282850 4.29001e+06 0 283272 4.29641e+06 0 283708 4.30302e+06 0 284160 4.30988e+06 0 284628 4.31697e+06 0 285112 4.32432e+06 0 285614 4.33194e+06 0 286134 4.33982e+06 0 286673 4.34799e+06 0 287231 4.35646e+06 0 287810 4.36524e+06 0 288410 4.37434e+06 0 289032 4.38378e+06 0 289678 4.39357e+06 0 290348 4.40373e+06 0 291043 4.41428e+06 0 291766 4.42524e+06 0 292516 4.43662e+06 0 293296 4.44845e+06 0 294107 4.46075e+06 0 294951 4.47355e+06 0 295830 4.48688e+06 0 296745 4.50076e+06 0 297699 4.51523e+06 0 298695 4.53033e+06 0 299734 4.54609e+06 0 273758 4.20173e+06 0 273681 4.19941e+06 0 273607 4.19714e+06 0 273536 4.19492e+06 0 273468 4.19276e+06 0 273403 4.19066e+06 0 273341 4.18861e+06 0 273282 4.18661e+06 0 273226 4.18466e+06 0 273173 4.18276e+06 0 273123 4.18092e+06 0 273076 4.17913e+06 0 273032 4.17739e+06 0 272992 4.1757e+06 0 272954 4.17406e+06 0 272920 4.17247e+06 0 272889 4.17094e+06 0 272862 4.16945e+06 0 272837 4.16802e+06 0 272816 4.16663e+06 0 272798 4.1653e+06 0 272784 4.16401e+06 0 272773 4.16278e+06 0 272765 4.1616e+06 0 272761 4.16046e+06 0 272760 4.15938e+06 0 272763 4.15835e+06 0 272769 4.15737e+06 0 272780 4.15644e+06 0 272793 4.15556e+06 0 272811 4.15473e+06 0 272832 4.15396e+06 0 272858 4.15323e+06 0 272887 4.15256e+06 0 272920 4.15194e+06 0 272957 4.15138e+06 0 272998 4.15086e+06 0 273043 4.1504e+06 0 273093 4.15e+06 0 273146 4.14965e+06 0 273204 4.14935e+06 0 273267 4.14911e+06 0 273334 4.14892e+06 0 273406 4.14879e+06 0 273482 4.14872e+06 0 273563 4.14871e+06 0 273649 4.14875e+06 0 273739 4.14886e+06 0 273835 4.14902e+06 0 273936 4.14924e+06 0 274042 4.14953e+06 0 274153 4.14987e+06 0 274270 4.15028e+06 0 274393 4.15075e+06 0 274521 4.15129e+06 0 274655 4.1519e+06 0 274794 4.15257e+06 0 274940 4.1533e+06 0 275092 4.15411e+06 0 275251 4.15499e+06 0 275415 4.15594e+06 0 275587 4.15696e+06 0 275765 4.15805e+06 0 275950 4.15922e+06 0 276143 4.16047e+06 0 276342 4.16179e+06 0 276549 4.16319e+06 0 276764 4.16467e+06 0 276986 4.16624e+06 0 277217 4.16789e+06 0 277456 4.16963e+06 0 277703 4.17145e+06 0 277959 4.17337e+06 0 278224 4.17537e+06 0 278499 4.17747e+06 0 278783 4.17967e+06 0 279076 4.18196e+06 0 279380 4.18435e+06 0 279694 4.18685e+06 0 280018 4.18945e+06 0 280354 4.19216e+06 0 280701 4.19498e+06 0 281059 4.19791e+06 0 281430 4.20096e+06 0 281813 4.20413e+06 0 282208 4.20742e+06 0 282617 4.21083e+06 0 283040 4.21438e+06 0 283477 4.21805e+06 0 283928 4.22187e+06 0 284395 4.22582e+06 0 284877 4.22992e+06 0 285375 4.23417e+06 0 285890 4.23857e+06 0 286423 4.24313e+06 0 286974 4.24785e+06 0 287544 4.25275e+06 0 288133 4.25781e+06 0 288742 4.26305e+06 0 289373 4.26848e+06 0 290025 4.2741e+06 0 290701 4.27992e+06 0 291400 4.28594e+06 0 292125 4.29217e+06 0 292875 4.29863e+06 0 293653 4.30531e+06 0 294459 4.31223e+06 0 295295 4.31939e+06 0 296162 4.32681e+06 0 297062 4.33449e+06 0 297996 4.34245e+06 0 298967 4.3507e+06 0 299975 4.35925e+06 0 301024 4.36811e+06 0 302114 4.37729e+06 0 303250 4.38681e+06 0 304432 4.3967e+06 0 305665 4.40695e+06 0 306951 4.41759e+06 0 308293 4.42865e+06 0 309695 4.44013e+06 0 311161 4.45207e+06 0 312695 4.46448e+06 0 314302 4.4774e+06 0 315987 4.49084e+06 0 317757 4.50485e+06 0 319618 4.51946e+06 0 321577 4.53469e+06 0 270493 4.20252e+06 0 270491 4.20018e+06 0 270491 4.1979e+06 0 270494 4.19567e+06 0 270499 4.19349e+06 0 270506 4.19137e+06 0 270516 4.1893e+06 0 270529 4.18729e+06 0 270544 4.18532e+06 0 270562 4.18341e+06 0 270582 4.18155e+06 0 270605 4.17974e+06 0 270631 4.17798e+06 0 270660 4.17627e+06 0 270692 4.17462e+06 0 270727 4.17301e+06 0 270765 4.17146e+06 0 270806 4.16995e+06 0 270850 4.1685e+06 0 270897 4.16709e+06 0 270948 4.16574e+06 0 271002 4.16444e+06 0 271059 4.16318e+06 0 271120 4.16198e+06 0 271185 4.16082e+06 0 271253 4.15972e+06 0 271325 4.15867e+06 0 271401 4.15767e+06 0 271480 4.15671e+06 0 271564 4.15581e+06 0 271651 4.15496e+06 0 271743 4.15416e+06 0 271839 4.15342e+06 0 271939 4.15272e+06 0 272043 4.15208e+06 0 272152 4.15148e+06 0 272266 4.15095e+06 0 272384 4.15046e+06 0 272507 4.15003e+06 0 272635 4.14965e+06 0 272768 4.14932e+06 0 272906 4.14906e+06 0 273049 4.14884e+06 0 273198 4.14868e+06 0 273352 4.14858e+06 0 273512 4.14854e+06 0 273677 4.14855e+06 0 273848 4.14862e+06 0 274026 4.14875e+06 0 274209 4.14894e+06 0 274399 4.14919e+06 0 274595 4.1495e+06 0 274798 4.14987e+06 0 275007 4.15031e+06 0 275224 4.15081e+06 0 275448 4.15137e+06 0 275679 4.15201e+06 0 275917 4.1527e+06 0 276163 4.15347e+06 0 276417 4.1543e+06 0 276679 4.15521e+06 0 276950 4.15618e+06 0 277229 4.15723e+06 0 277516 4.15835e+06 0 277813 4.15955e+06 0 278119 4.16082e+06 0 278435 4.16217e+06 0 278760 4.16361e+06 0 279096 4.16512e+06 0 279441 4.16671e+06 0 279798 4.16839e+06 0 280165 4.17016e+06 0 280544 4.17201e+06 0 280934 4.17396e+06 0 281337 4.17599e+06 0 281751 4.17812e+06 0 282179 4.18035e+06 0 282620 4.18267e+06 0 283074 4.18509e+06 0 283542 4.18762e+06 0 284025 4.19025e+06 0 284523 4.193e+06 0 285036 4.19585e+06 0 285565 4.19881e+06 0 286111 4.20189e+06 0 286674 4.2051e+06 0 287255 4.20842e+06 0 287853 4.21187e+06 0 288471 4.21545e+06 0 289109 4.21916e+06 0 289767 4.22301e+06 0 290447 4.227e+06 0 291148 4.23114e+06 0 291872 4.23543e+06 0 292620 4.23986e+06 0 293393 4.24446e+06 0 294192 4.24922e+06 0 295017 4.25415e+06 0 295870 4.25926e+06 0 296753 4.26454e+06 0 297665 4.27001e+06 0 298610 4.27567e+06 0 299588 4.28153e+06 0 300600 4.28759e+06 0 301649 4.29387e+06 0 302736 4.30037e+06 0 303863 4.3071e+06 0 305031 4.31406e+06 0 306244 4.32127e+06 0 307502 4.32874e+06 0 308810 4.33647e+06 0 310168 4.34448e+06 0 311581 4.35277e+06 0 313050 4.36137e+06 0 314581 4.37028e+06 0 316174 4.37951e+06 0 317836 4.38909e+06 0 319570 4.39902e+06 0 321380 4.40933e+06 0 323271 4.42002e+06 0 325250 4.43113e+06 0 327321 4.44267e+06 0 329492 4.45466e+06 0 331769 4.46713e+06 0 334161 4.4801e+06 0 336676 4.4936e+06 0 339326 4.50766e+06 0 342119 4.52231e+06 0 267175 4.20322e+06 0 267248 4.20086e+06 0 267323 4.19856e+06 0 267399 4.19632e+06 0 267477 4.19413e+06 0 267557 4.19199e+06 0 267639 4.1899e+06 0 267723 4.18787e+06 0 267809 4.18589e+06 0 267898 4.18396e+06 0 267988 4.18208e+06 0 268081 4.18026e+06 0 268177 4.17848e+06 0 268275 4.17676e+06 0 268376 4.17508e+06 0 268479 4.17346e+06 0 268586 4.17189e+06 0 268695 4.17036e+06 0 268808 4.16889e+06 0 268923 4.16747e+06 0 269042 4.16609e+06 0 269164 4.16477e+06 0 269289 4.1635e+06 0 269419 4.16227e+06 0 269551 4.1611e+06 0 269688 4.15997e+06 0 269828 4.1589e+06 0 269972 4.15787e+06 0 270120 4.1569e+06 0 270273 4.15598e+06 0 270430 4.1551e+06 0 270591 4.15428e+06 0 270757 4.15351e+06 0 270927 4.15279e+06 0 271102 4.15212e+06 0 271282 4.1515e+06 0 271467 4.15094e+06 0 271658 4.15042e+06 0 271853 4.14996e+06 0 272054 4.14956e+06 0 272261 4.14921e+06 0 272473 4.14891e+06 0 272692 4.14866e+06 0 272916 4.14847e+06 0 273147 4.14834e+06 0 273384 4.14826e+06 0 273628 4.14824e+06 0 273878 4.14828e+06 0 274135 4.14838e+06 0 274400 4.14853e+06 0 274672 4.14875e+06 0 274951 4.14902e+06 0 275238 4.14936e+06 0 275533 4.14976e+06 0 275836 4.15022e+06 0 276148 4.15074e+06 0 276468 4.15133e+06 0 276797 4.15199e+06 0 277135 4.15271e+06 0 277482 4.1535e+06 0 277840 4.15436e+06 0 278207 4.15529e+06 0 278584 4.15629e+06 0 278972 4.15736e+06 0 279370 4.15851e+06 0 279780 4.15973e+06 0 280201 4.16103e+06 0 280634 4.1624e+06 0 281079 4.16386e+06 0 281537 4.1654e+06 0 282007 4.16702e+06 0 282491 4.16872e+06 0 282989 4.17051e+06 0 283501 4.17239e+06 0 284027 4.17436e+06 0 284569 4.17642e+06 0 285126 4.17858e+06 0 285700 4.18083e+06 0 286290 4.18318e+06 0 286897 4.18563e+06 0 287522 4.18818e+06 0 288165 4.19084e+06 0 288828 4.1936e+06 0 289510 4.19648e+06 0 290212 4.19947e+06 0 290936 4.20258e+06 0 291682 4.20581e+06 0 292450 4.20916e+06 0 293242 4.21264e+06 0 294058 4.21624e+06 0 294900 4.21998e+06 0 295768 4.22386e+06 0 296664 4.22788e+06 0 297588 4.23204e+06 0 298542 4.23635e+06 0 299527 4.24082e+06 0 300544 4.24544e+06 0 301594 4.25023e+06 0 302680 4.25519e+06 0 303802 4.26032e+06 0 304962 4.26563e+06 0 306162 4.27112e+06 0 307404 4.27681e+06 0 308689 4.28269e+06 0 310020 4.28879e+06 0 311399 4.29509e+06 0 312828 4.30161e+06 0 314311 4.30836e+06 0 315848 4.31535e+06 0 317444 4.32259e+06 0 319101 4.33008e+06 0 320824 4.33783e+06 0 322614 4.34586e+06 0 324477 4.35418e+06 0 326417 4.36279e+06 0 328437 4.37172e+06 0 330544 4.38097e+06 0 332741 4.39056e+06 0 335036 4.40051e+06 0 337434 4.41083e+06 0 339943 4.42153e+06 0 342569 4.43264e+06 0 345322 4.44418e+06 0 348210 4.45617e+06 0 351244 4.46863e+06 0 354435 4.48159e+06 0 357795 4.49507e+06 0 361339 4.5091e+06 0 263806 4.20381e+06 0 263954 4.20144e+06 0 264103 4.19913e+06 0 264253 4.19687e+06 0 264404 4.19466e+06 0 264557 4.19251e+06 0 264711 4.19041e+06 0 264866 4.18836e+06 0 265023 4.18637e+06 0 265182 4.18442e+06 0 265342 4.18253e+06 0 265505 4.18068e+06 0 265670 4.17889e+06 0 265837 4.17715e+06 0 266006 4.17546e+06 0 266178 4.17382e+06 0 266353 4.17223e+06 0 266530 4.17069e+06 0 266710 4.16919e+06 0 266894 4.16775e+06 0 267080 4.16636e+06 0 267270 4.16502e+06 0 267463 4.16372e+06 0 267660 4.16248e+06 0 267860 4.16128e+06 0 268064 4.16014e+06 0 268272 4.15904e+06 0 268484 4.15799e+06 0 268701 4.157e+06 0 268921 4.15605e+06 0 269147 4.15515e+06 0 269377 4.15431e+06 0 269611 4.15351e+06 0 269851 4.15277e+06 0 270096 4.15207e+06 0 270346 4.15143e+06 0 270602 4.15084e+06 0 270863 4.1503e+06 0 271130 4.14981e+06 0 271404 4.14937e+06 0 271683 4.14899e+06 0 271969 4.14866e+06 0 272261 4.14839e+06 0 272560 4.14817e+06 0 272866 4.14801e+06 0 273179 4.1479e+06 0 273499 4.14784e+06 0 273827 4.14785e+06 0 274163 4.14791e+06 0 274507 4.14803e+06 0 274859 4.14821e+06 0 275220 4.14844e+06 0 275590 4.14874e+06 0 275968 4.1491e+06 0 276356 4.14952e+06 0 276753 4.15e+06 0 277161 4.15055e+06 0 277578 4.15116e+06 0 278006 4.15184e+06 0 278445 4.15258e+06 0 278894 4.1534e+06 0 279356 4.15428e+06 0 279829 4.15523e+06 0 280314 4.15625e+06 0 280811 4.15734e+06 0 281322 4.15851e+06 0 281846 4.15975e+06 0 282383 4.16107e+06 0 282935 4.16247e+06 0 283501 4.16395e+06 0 284082 4.16551e+06 0 284679 4.16715e+06 0 285292 4.16887e+06 0 285922 4.17068e+06 0 286568 4.17258e+06 0 287232 4.17457e+06 0 287915 4.17665e+06 0 288616 4.17883e+06 0 289337 4.1811e+06 0 290078 4.18347e+06 0 290840 4.18594e+06 0 291624 4.18851e+06 0 292430 4.19119e+06 0 293259 4.19398e+06 0 294112 4.19687e+06 0 294991 4.19988e+06 0 295895 4.20301e+06 0 296825 4.20626e+06 0 297784 4.20963e+06 0 298772 4.21312e+06 0 299789 4.21674e+06 0 300838 4.2205e+06 0 301919 4.22439e+06 0 303034 4.22843e+06 0 304184 4.23261e+06 0 305371 4.23694e+06 0 306595 4.24142e+06 0 307860 4.24606e+06 0 309166 4.25086e+06 0 310515 4.25583e+06 0 311909 4.26097e+06 0 313351 4.26629e+06 0 314842 4.2718e+06 0 316385 4.2775e+06 0 317982 4.28339e+06 0 319636 4.28949e+06 0 321350 4.2958e+06 0 323126 4.30233e+06 0 324968 4.30909e+06 0 326879 4.31608e+06 0 328864 4.32332e+06 0 330925 4.3308e+06 0 333067 4.33856e+06 0 335296 4.34658e+06 0 337615 4.35489e+06 0 340030 4.36349e+06 0 342546 4.3724e+06 0 345171 4.38164e+06 0 347911 4.39121e+06 0 350773 4.40112e+06 0 353766 4.41141e+06 0 356898 4.42207e+06 0 360178 4.43314e+06 0 363619 4.44463e+06 0 367231 4.45655e+06 0 371027 4.46894e+06 0 375022 4.48182e+06 0 379232 4.4952e+06 0 260388 4.2043e+06 0 260611 4.20192e+06 0 260834 4.19959e+06 0 261058 4.19732e+06 0 261282 4.1951e+06 0 261506 4.19294e+06 0 261732 4.19082e+06 0 261958 4.18876e+06 0 262186 4.18675e+06 0 262415 4.18479e+06 0 262645 4.18288e+06 0 262877 4.18102e+06 0 263111 4.17921e+06 0 263346 4.17745e+06 0 263584 4.17575e+06 0 263824 4.17409e+06 0 264066 4.17248e+06 0 264311 4.17092e+06 0 264559 4.16941e+06 0 264809 4.16795e+06 0 265063 4.16654e+06 0 265320 4.16517e+06 0 265580 4.16386e+06 0 265843 4.1626e+06 0 266111 4.16138e+06 0 266382 4.16021e+06 0 266657 4.1591e+06 0 266936 4.15803e+06 0 267220 4.15701e+06 0 267509 4.15604e+06 0 267802 4.15512e+06 0 268099 4.15425e+06 0 268402 4.15343e+06 0 268711 4.15266e+06 0 269024 4.15194e+06 0 269344 4.15127e+06 0 269669 4.15065e+06 0 270000 4.15008e+06 0 270338 4.14956e+06 0 270682 4.1491e+06 0 271033 4.14869e+06 0 271391 4.14833e+06 0 271756 4.14803e+06 0 272128 4.14777e+06 0 272508 4.14758e+06 0 272895 4.14743e+06 0 273291 4.14735e+06 0 273695 4.14732e+06 0 274108 4.14734e+06 0 274530 4.14742e+06 0 274961 4.14756e+06 0 275401 4.14776e+06 0 275852 4.14802e+06 0 276312 4.14834e+06 0 276782 4.14872e+06 0 277264 4.14916e+06 0 277756 4.14966e+06 0 278260 4.15023e+06 0 278775 4.15086e+06 0 279302 4.15156e+06 0 279842 4.15232e+06 0 280395 4.15315e+06 0 280961 4.15405e+06 0 281541 4.15502e+06 0 282135 4.15606e+06 0 282743 4.15717e+06 0 283367 4.15836e+06 0 284006 4.15962e+06 0 284661 4.16096e+06 0 285332 4.16237e+06 0 286020 4.16387e+06 0 286727 4.16544e+06 0 287451 4.1671e+06 0 288194 4.16884e+06 0 288956 4.17067e+06 0 289739 4.17258e+06 0 290542 4.17459e+06 0 291367 4.17668e+06 0 292214 4.17887e+06 0 293084 4.18116e+06 0 293978 4.18354e+06 0 294896 4.18603e+06 0 295840 4.18861e+06 0 296811 4.1913e+06 0 297808 4.1941e+06 0 298835 4.19701e+06 0 299890 4.20003e+06 0 300976 4.20317e+06 0 302094 4.20643e+06 0 303245 4.20981e+06 0 304430 4.21331e+06 0 305651 4.21694e+06 0 306909 4.22071e+06 0 308205 4.22461e+06 0 309542 4.22865e+06 0 310920 4.23284e+06 0 312342 4.23717e+06 0 313809 4.24165e+06 0 315323 4.2463e+06 0 316887 4.2511e+06 0 318502 4.25607e+06 0 320172 4.26121e+06 0 321898 4.26653e+06 0 323683 4.27203e+06 0 325530 4.27773e+06 0 327441 4.28361e+06 0 329421 4.2897e+06 0 331472 4.296e+06 0 333598 4.30252e+06 0 335804 4.30926e+06 0 338092 4.31623e+06 0 340468 4.32344e+06 0 342936 4.3309e+06 0 345501 4.33862e+06 0 348170 4.34661e+06 0 350948 4.35488e+06 0 353841 4.36344e+06 0 356856 4.37231e+06 0 360002 4.38148e+06 0 363286 4.39099e+06 0 366717 4.40084e+06 0 370306 4.41104e+06 0 374062 4.42162e+06 0 377997 4.43259e+06 0 382125 4.44397e+06 0 386459 4.45577e+06 0 391016 4.46803e+06 0 395811 4.48075e+06 0 256922 4.20469e+06 0 257220 4.2023e+06 0 257517 4.19996e+06 0 257813 4.19768e+06 0 258110 4.19544e+06 0 258407 4.19326e+06 0 258703 4.19114e+06 0 259001 4.18906e+06 0 259299 4.18703e+06 0 259597 4.18506e+06 0 259897 4.18314e+06 0 260198 4.18126e+06 0 260500 4.17944e+06 0 260804 4.17767e+06 0 261110 4.17594e+06 0 261417 4.17427e+06 0 261727 4.17264e+06 0 262039 4.17106e+06 0 262354 4.16954e+06 0 262671 4.16806e+06 0 262991 4.16663e+06 0 263314 4.16525e+06 0 263641 4.16391e+06 0 263971 4.16263e+06 0 264304 4.16139e+06 0 264642 4.1602e+06 0 264983 4.15906e+06 0 265329 4.15797e+06 0 265680 4.15693e+06 0 266035 4.15594e+06 0 266394 4.15499e+06 0 266759 4.1541e+06 0 267130 4.15325e+06 0 267506 4.15246e+06 0 267887 4.15171e+06 0 268275 4.15102e+06 0 268669 4.15037e+06 0 269069 4.14977e+06 0 269476 4.14923e+06 0 269890 4.14874e+06 0 270311 4.1483e+06 0 270739 4.14791e+06 0 271175 4.14757e+06 0 271620 4.14729e+06 0 272072 4.14706e+06 0 272533 4.14688e+06 0 273003 4.14676e+06 0 273481 4.14669e+06 0 273970 4.14668e+06 0 274468 4.14673e+06 0 274975 4.14683e+06 0 275494 4.14699e+06 0 276023 4.1472e+06 0 276563 4.14748e+06 0 277114 4.14782e+06 0 277677 4.14821e+06 0 278252 4.14867e+06 0 278840 4.14919e+06 0 279441 4.14978e+06 0 280054 4.15043e+06 0 280682 4.15114e+06 0 281324 4.15192e+06 0 281981 4.15277e+06 0 282652 4.15368e+06 0 283339 4.15466e+06 0 284043 4.15572e+06 0 284763 4.15685e+06 0 285500 4.15805e+06 0 286255 4.15932e+06 0 287028 4.16067e+06 0 287820 4.1621e+06 0 288632 4.16361e+06 0 289463 4.1652e+06 0 290316 4.16687e+06 0 291190 4.16862e+06 0 292087 4.17046e+06 0 293007 4.17238e+06 0 293950 4.1744e+06 0 294918 4.1765e+06 0 295912 4.1787e+06 0 296932 4.181e+06 0 297980 4.18339e+06 0 299056 4.18588e+06 0 300162 4.18847e+06 0 301298 4.19117e+06 0 302465 4.19398e+06 0 303666 4.19689e+06 0 304900 4.19992e+06 0 306170 4.20306e+06 0 307476 4.20632e+06 0 308821 4.2097e+06 0 310205 4.2132e+06 0 311631 4.21684e+06 0 313099 4.2206e+06 0 314612 4.2245e+06 0 316172 4.22853e+06 0 317780 4.23271e+06 0 319438 4.23704e+06 0 321149 4.24152e+06 0 322915 4.24615e+06 0 324739 4.25094e+06 0 326622 4.2559e+06 0 328568 4.26102e+06 0 330580 4.26633e+06 0 332660 4.27181e+06 0 334813 4.27748e+06 0 337041 4.28334e+06 0 339347 4.2894e+06 0 341738 4.29567e+06 0 344215 4.30215e+06 0 346784 4.30885e+06 0 349451 4.31578e+06 0 352219 4.32294e+06 0 355094 4.33035e+06 0 358083 4.33801e+06 0 361193 4.34594e+06 0 364429 4.35414e+06 0 367800 4.36262e+06 0 371313 4.3714e+06 0 374978 4.38049e+06 0 378804 4.38989e+06 0 382802 4.39963e+06 0 386982 4.40971e+06 0 391358 4.42016e+06 0 395942 4.43098e+06 0 400751 4.44219e+06 0 405799 4.45381e+06 0 411104 4.46586e+06 0 253409 4.20498e+06 0 253781 4.20258e+06 0 254152 4.20023e+06 0 254522 4.19793e+06 0 254891 4.19569e+06 0 255259 4.19349e+06 0 255627 4.19135e+06 0 255995 4.18927e+06 0 256363 4.18723e+06 0 256731 4.18524e+06 0 257100 4.1833e+06 0 257469 4.18141e+06 0 257840 4.17958e+06 0 258211 4.17779e+06 0 258584 4.17605e+06 0 258959 4.17436e+06 0 259335 4.17271e+06 0 259714 4.17112e+06 0 260095 4.16958e+06 0 260478 4.16808e+06 0 260864 4.16663e+06 0 261253 4.16523e+06 0 261646 4.16388e+06 0 262041 4.16257e+06 0 262441 4.16131e+06 0 262844 4.16011e+06 0 263251 4.15895e+06 0 263663 4.15783e+06 0 264079 4.15677e+06 0 264500 4.15575e+06 0 264925 4.15478e+06 0 265357 4.15387e+06 0 265793 4.153e+06 0 266236 4.15217e+06 0 266684 4.1514e+06 0 267139 4.15068e+06 0 267600 4.15001e+06 0 268068 4.14938e+06 0 268543 4.14881e+06 0 269026 4.14829e+06 0 269516 4.14781e+06 0 270014 4.14739e+06 0 270520 4.14703e+06 0 271035 4.14671e+06 0 271558 4.14645e+06 0 272091 4.14623e+06 0 272633 4.14608e+06 0 273185 4.14597e+06 0 273747 4.14593e+06 0 274319 4.14593e+06 0 274902 4.146e+06 0 275496 4.14611e+06 0 276102 4.14629e+06 0 276720 4.14653e+06 0 277350 4.14682e+06 0 277993 4.14717e+06 0 278649 4.14758e+06 0 279318 4.14806e+06 0 280002 4.14859e+06 0 280700 4.14919e+06 0 281413 4.14985e+06 0 282141 4.15058e+06 0 282885 4.15137e+06 0 283646 4.15223e+06 0 284424 4.15316e+06 0 285219 4.15416e+06 0 286032 4.15522e+06 0 286864 4.15636e+06 0 287716 4.15757e+06 0 288587 4.15886e+06 0 289479 4.16022e+06 0 290393 4.16165e+06 0 291328 4.16317e+06 0 292286 4.16477e+06 0 293268 4.16644e+06 0 294274 4.1682e+06 0 295306 4.17005e+06 0 296363 4.17198e+06 0 297448 4.174e+06 0 298560 4.17611e+06 0 299702 4.17831e+06 0 300873 4.18061e+06 0 302076 4.18301e+06 0 303310 4.1855e+06 0 304578 4.18809e+06 0 305881 4.19079e+06 0 307219 4.19359e+06 0 308595 4.1965e+06 0 310009 4.19953e+06 0 311463 4.20266e+06 0 312959 4.20592e+06 0 314499 4.20929e+06 0 316083 4.21279e+06 0 317714 4.21641e+06 0 319394 4.22016e+06 0 321125 4.22405e+06 0 322908 4.22807e+06 0 324747 4.23223e+06 0 326643 4.23654e+06 0 328599 4.241e+06 0 330617 4.2456e+06 0 332701 4.25037e+06 0 334853 4.2553e+06 0 337076 4.2604e+06 0 339374 4.26567e+06 0 341750 4.27111e+06 0 344208 4.27674e+06 0 346752 4.28256e+06 0 349386 4.28857e+06 0 352115 4.29479e+06 0 354943 4.30121e+06 0 357875 4.30785e+06 0 360918 4.31471e+06 0 364077 4.32181e+06 0 367359 4.32914e+06 0 370769 4.33672e+06 0 374316 4.34455e+06 0 378008 4.35265e+06 0 381853 4.36102e+06 0 385859 4.36968e+06 0 390038 4.37864e+06 0 394400 4.3879e+06 0 398957 4.39748e+06 0 403720 4.4074e+06 0 408706 4.41766e+06 0 413927 4.42828e+06 0 419402 4.43927e+06 0 425147 4.45065e+06 0 249852 4.20516e+06 0 250298 4.20275e+06 0 250743 4.20039e+06 0 251185 4.19809e+06 0 251626 4.19583e+06 0 252066 4.19363e+06 0 252504 4.19148e+06 0 252942 4.18938e+06 0 253379 4.18733e+06 0 253817 4.18533e+06 0 254254 4.18337e+06 0 254691 4.18147e+06 0 255129 4.17962e+06 0 255568 4.17782e+06 0 256008 4.17606e+06 0 256449 4.17436e+06 0 256892 4.1727e+06 0 257337 4.17109e+06 0 257783 4.16953e+06 0 258232 4.16801e+06 0 258684 4.16654e+06 0 259138 4.16513e+06 0 259595 4.16375e+06 0 260056 4.16243e+06 0 260520 4.16115e+06 0 260988 4.15992e+06 0 261460 4.15874e+06 0 261937 4.15761e+06 0 262418 4.15652e+06 0 262904 4.15548e+06 0 263395 4.15449e+06 0 263891 4.15355e+06 0 264393 4.15265e+06 0 264901 4.1518e+06 0 265415 4.15101e+06 0 265936 4.15026e+06 0 266464 4.14956e+06 0 266998 4.1489e+06 0 267541 4.1483e+06 0 268090 4.14775e+06 0 268648 4.14725e+06 0 269214 4.1468e+06 0 269789 4.14639e+06 0 270373 4.14604e+06 0 270966 4.14575e+06 0 271569 4.1455e+06 0 272181 4.14531e+06 0 272805 4.14517e+06 0 273439 4.14508e+06 0 274084 4.14505e+06 0 274740 4.14507e+06 0 275409 4.14515e+06 0 276090 4.14529e+06 0 276783 4.14548e+06 0 277490 4.14572e+06 0 278210 4.14603e+06 0 278945 4.1464e+06 0 279694 4.14682e+06 0 280458 4.14731e+06 0 281237 4.14786e+06 0 282033 4.14847e+06 0 282845 4.14914e+06 0 283674 4.14988e+06 0 284521 4.15068e+06 0 285386 4.15155e+06 0 286271 4.15249e+06 0 287174 4.15349e+06 0 288098 4.15457e+06 0 289043 4.15571e+06 0 290009 4.15693e+06 0 290997 4.15822e+06 0 292009 4.15959e+06 0 293044 4.16103e+06 0 294104 4.16255e+06 0 295189 4.16415e+06 0 296300 4.16583e+06 0 297439 4.16759e+06 0 298606 4.16944e+06 0 299802 4.17137e+06 0 301028 4.17339e+06 0 302285 4.1755e+06 0 303575 4.1777e+06 0 304898 4.17999e+06 0 306255 4.18238e+06 0 307649 4.18487e+06 0 309080 4.18746e+06 0 310549 4.19015e+06 0 312059 4.19294e+06 0 313610 4.19584e+06 0 315205 4.19886e+06 0 316844 4.20198e+06 0 318530 4.20522e+06 0 320264 4.20858e+06 0 322049 4.21205e+06 0 323886 4.21566e+06 0 325778 4.21939e+06 0 327726 4.22325e+06 0 329734 4.22725e+06 0 331803 4.23138e+06 0 333937 4.23566e+06 0 336137 4.24008e+06 0 338408 4.24466e+06 0 340751 4.24938e+06 0 343171 4.25427e+06 0 345671 4.25932e+06 0 348254 4.26454e+06 0 350925 4.26993e+06 0 353687 4.27551e+06 0 356546 4.28126e+06 0 359505 4.28721e+06 0 362571 4.29336e+06 0 365747 4.2997e+06 0 369040 4.30626e+06 0 372457 4.31303e+06 0 376003 4.32003e+06 0 379686 4.32725e+06 0 383513 4.33472e+06 0 387493 4.34243e+06 0 391633 4.3504e+06 0 395945 4.35863e+06 0 400437 4.36714e+06 0 405120 4.37593e+06 0 410007 4.38501e+06 0 415110 4.39439e+06 0 420444 4.4041e+06 0 426023 4.41413e+06 0 431863 4.42449e+06 0 437984 4.43521e+06 0 246252 4.20525e+06 0 246772 4.20283e+06 0 247289 4.20046e+06 0 247804 4.19814e+06 0 248316 4.19588e+06 0 248827 4.19367e+06 0 249336 4.1915e+06 0 249843 4.18939e+06 0 250350 4.18733e+06 0 250855 4.18532e+06 0 251361 4.18335e+06 0 251866 4.18144e+06 0 252371 4.17957e+06 0 252877 4.17776e+06 0 253383 4.17599e+06 0 253890 4.17427e+06 0 254398 4.17259e+06 0 254908 4.17097e+06 0 255420 4.16939e+06 0 255934 4.16786e+06 0 256450 4.16637e+06 0 256969 4.16494e+06 0 257490 4.16355e+06 0 258015 4.1622e+06 0 258544 4.16091e+06 0 259076 4.15966e+06 0 259612 4.15845e+06 0 260152 4.1573e+06 0 260697 4.15619e+06 0 261247 4.15513e+06 0 261802 4.15411e+06 0 262363 4.15314e+06 0 262929 4.15222e+06 0 263502 4.15135e+06 0 264081 4.15053e+06 0 264667 4.14975e+06 0 265259 4.14902e+06 0 265860 4.14834e+06 0 266467 4.14771e+06 0 267083 4.14713e+06 0 267707 4.14659e+06 0 268340 4.14611e+06 0 268982 4.14568e+06 0 269634 4.14529e+06 0 270295 4.14496e+06 0 270966 4.14468e+06 0 271648 4.14445e+06 0 272341 4.14427e+06 0 273045 4.14415e+06 0 273761 4.14408e+06 0 274490 4.14406e+06 0 275230 4.1441e+06 0 275984 4.14419e+06 0 276752 4.14434e+06 0 277533 4.14454e+06 0 278329 4.1448e+06 0 279139 4.14512e+06 0 279965 4.14549e+06 0 280808 4.14593e+06 0 281666 4.14643e+06 0 282542 4.14698e+06 0 283435 4.1476e+06 0 284347 4.14828e+06 0 285277 4.14903e+06 0 286227 4.14984e+06 0 287197 4.15071e+06 0 288188 4.15166e+06 0 289200 4.15267e+06 0 290235 4.15374e+06 0 291292 4.15489e+06 0 292373 4.15611e+06 0 293479 4.15741e+06 0 294610 4.15878e+06 0 295767 4.16022e+06 0 296951 4.16174e+06 0 298164 4.16334e+06 0 299405 4.16502e+06 0 300676 4.16678e+06 0 301979 4.16862e+06 0 303313 4.17055e+06 0 304681 4.17256e+06 0 306083 4.17466e+06 0 307521 4.17685e+06 0 308996 4.17914e+06 0 310509 4.18152e+06 0 312062 4.18399e+06 0 313656 4.18657e+06 0 315292 4.18924e+06 0 316973 4.19202e+06 0 318700 4.19491e+06 0 320475 4.1979e+06 0 322299 4.201e+06 0 324175 4.20422e+06 0 326104 4.20755e+06 0 328089 4.211e+06 0 330131 4.21458e+06 0 332234 4.21827e+06 0 334400 4.2221e+06 0 336631 4.22606e+06 0 338930 4.23016e+06 0 341300 4.23439e+06 0 343744 4.23877e+06 0 346265 4.24329e+06 0 348867 4.24797e+06 0 351554 4.2528e+06 0 354328 4.25779e+06 0 357195 4.26295e+06 0 360158 4.26827e+06 0 363222 4.27377e+06 0 366393 4.27945e+06 0 369674 4.28531e+06 0 373072 4.29136e+06 0 376593 4.29761e+06 0 380242 4.30406e+06 0 384027 4.31072e+06 0 387954 4.31759e+06 0 392032 4.32469e+06 0 396268 4.33202e+06 0 400672 4.33958e+06 0 405252 4.34738e+06 0 410020 4.35544e+06 0 414985 4.36376e+06 0 420160 4.37235e+06 0 425557 4.38121e+06 0 431191 4.39036e+06 0 437075 4.39981e+06 0 443227 4.40956e+06 0 449663 4.41963e+06 0 242611 4.20522e+06 0 243204 4.2028e+06 0 243794 4.20042e+06 0 244381 4.1981e+06 0 244964 4.19583e+06 0 245545 4.1936e+06 0 246124 4.19143e+06 0 246700 4.18931e+06 0 247275 4.18724e+06 0 247849 4.18522e+06 0 248422 4.18324e+06 0 248994 4.18131e+06 0 249565 4.17944e+06 0 250137 4.17761e+06 0 250709 4.17582e+06 0 251281 4.17409e+06 0 251855 4.1724e+06 0 252429 4.17076e+06 0 253006 4.16916e+06 0 253584 4.16762e+06 0 254164 4.16611e+06 0 254746 4.16466e+06 0 255331 4.16325e+06 0 255920 4.16189e+06 0 256511 4.16057e+06 0 257106 4.1593e+06 0 257706 4.15808e+06 0 258309 4.1569e+06 0 258917 4.15577e+06 0 259530 4.15469e+06 0 260149 4.15365e+06 0 260773 4.15266e+06 0 261402 4.15171e+06 0 262038 4.15081e+06 0 262681 4.14996e+06 0 263330 4.14916e+06 0 263987 4.1484e+06 0 264651 4.14769e+06 0 265324 4.14703e+06 0 266004 4.14642e+06 0 266694 4.14586e+06 0 267392 4.14534e+06 0 268100 4.14487e+06 0 268817 4.14446e+06 0 269545 4.14409e+06 0 270284 4.14377e+06 0 271033 4.14351e+06 0 271794 4.14329e+06 0 272567 4.14313e+06 0 273352 4.14302e+06 0 274150 4.14296e+06 0 274961 4.14296e+06 0 275786 4.143e+06 0 276625 4.14311e+06 0 277479 4.14326e+06 0 278348 4.14348e+06 0 279232 4.14375e+06 0 280133 4.14408e+06 0 281051 4.14446e+06 0 281987 4.1449e+06 0 282940 4.14541e+06 0 283912 4.14597e+06 0 284903 4.14659e+06 0 285914 4.14728e+06 0 286945 4.14803e+06 0 287998 4.14884e+06 0 289073 4.14972e+06 0 290170 4.15067e+06 0 291291 4.15168e+06 0 292436 4.15276e+06 0 293606 4.15391e+06 0 294803 4.15513e+06 0 296025 4.15642e+06 0 297276 4.15778e+06 0 298555 4.15922e+06 0 299864 4.16074e+06 0 301204 4.16233e+06 0 302575 4.164e+06 0 303979 4.16575e+06 0 305417 4.16759e+06 0 306889 4.1695e+06 0 308399 4.17151e+06 0 309946 4.1736e+06 0 311532 4.17578e+06 0 313158 4.17805e+06 0 314827 4.18041e+06 0 316538 4.18287e+06 0 318295 4.18542e+06 0 320098 4.18807e+06 0 321950 4.19083e+06 0 323852 4.19369e+06 0 325806 4.19665e+06 0 327815 4.19972e+06 0 329879 4.20291e+06 0 332002 4.20621e+06 0 334186 4.20962e+06 0 336434 4.21316e+06 0 338747 4.21681e+06 0 341128 4.2206e+06 0 343581 4.22451e+06 0 346108 4.22855e+06 0 348713 4.23273e+06 0 351399 4.23705e+06 0 354169 4.24152e+06 0 357027 4.24613e+06 0 359977 4.25089e+06 0 363023 4.2558e+06 0 366170 4.26088e+06 0 369422 4.26611e+06 0 372784 4.27152e+06 0 376261 4.2771e+06 0 379860 4.28286e+06 0 383585 4.2888e+06 0 387444 4.29493e+06 0 391442 4.30125e+06 0 395588 4.30778e+06 0 399889 4.31451e+06 0 404352 4.32145e+06 0 408988 4.32861e+06 0 413804 4.33599e+06 0 418812 4.3436e+06 0 424022 4.35146e+06 0 429445 4.35956e+06 0 435095 4.36791e+06 0 440984 4.37652e+06 0 447127 4.3854e+06 0 453540 4.39455e+06 0 460238 4.40399e+06 0 238931 4.2051e+06 0 239597 4.20266e+06 0 240259 4.20028e+06 0 240917 4.19795e+06 0 241570 4.19567e+06 0 242221 4.19345e+06 0 242869 4.19127e+06 0 243514 4.18914e+06 0 244157 4.18705e+06 0 244798 4.18502e+06 0 245438 4.18304e+06 0 246076 4.1811e+06 0 246714 4.17921e+06 0 247351 4.17737e+06 0 247988 4.17557e+06 0 248625 4.17382e+06 0 249263 4.17212e+06