<?xml version="1.0"?> 
<VTKFile type="StructuredGrid" version="0.1"> 
<StructuredGrid WholeExtent="0 127 0 127 0 0"> 
<Piece Extent="0 127 0 127 0 0"> 
<PointData>
<DataArray type="Float32" Name="|E|" format="ascii" NumberOfComponents="3"> 
-2.07764e+06 47579.9 0 -2.07962e+06 51778 0 -2.08174e+06 55960.9 0 -2.08399e+06 60129.2 0 -2.08639e+06 64283.7 0 -2.08894e+06 68425 0 -2.09162e+06 72553.9 0 -2.09445e+06 76671 0 -2.09742e+06 80777 0 -2.10053e+06 84872.7 0 -2.10379e+06 88958.7 0 -2.10719e+06 93035.8 0 -2.11074e+06 97104.6 0 -2.11444e+06 101166 0 -2.11828e+06 105220 0 -2.12227e+06 109268 0 -2.12641e+06 113311 0 -2.1307e+06 117349 0 -2.13515e+06 121383 0 -2.13974e+06 125414 0 -2.14448e+06 129443 0 -2.14938e+06 133469 0 -2.15444e+06 137495 0 -2.15964e+06 141520 0 -2.16501e+06 145545 0 -2.17053e+06 149572 0 -2.17621e+06 153601 0 -2.18206e+06 157632 0 -2.18806e+06 161667 0 -2.19422e+06 165706 0 -2.20055e+06 169751 0 -2.20705e+06 173801 0 -2.21371e+06 177857 0 -2.22054e+06 181921 0 -2.22754e+06 185994 0 -2.23471e+06 190075 0 -2.24205e+06 194167 0 -2.24956e+06 198269 0 -2.25726e+06 202382 0 -2.26513e+06 206508 0 -2.27318e+06 210647 0 -2.28141e+06 214800 0 -2.28983e+06 218967 0 -2.29843e+06 223151 0 -2.30722e+06 227350 0 -2.3162e+06 231568 0 -2.32537e+06 235803 0 -2.33473e+06 240057 0 -2.3443e+06 244330 0 -2.35406e+06 248624 0 -2.36403e+06 252939 0 -2.3742e+06 257276 0 -2.38457e+06 261635 0 -2.39516e+06 266018 0 -2.40596e+06 270425 0 -2.41698e+06 274855 0 -2.42822e+06 279311 0 -2.43968e+06 283792 0 -2.45137e+06 288299 0 -2.46329e+06 292833 0 -2.47545e+06 297392 0 -2.48784e+06 301978 0 -2.50047e+06 306590 0 -2.51335e+06 311229 0 -2.52648e+06 315894 0 -2.53987e+06 320585 0 -2.55352e+06 325302 0 -2.56743e+06 330042 0 -2.58161e+06 334806 0 -2.59607e+06 339592 0 -2.61081e+06 344399 0 -2.62584e+06 349225 0 -2.64115e+06 354067 0 -2.65677e+06 358923 0 -2.6727e+06 363790 0 -2.68893e+06 368664 0 -2.70549e+06 373542 0 -2.72237e+06 378419 0 -2.73958e+06 383289 0 -2.75714e+06 388146 0 -2.77505e+06 392984 0 -2.79331e+06 397794 0 -2.81195e+06 402568 0 -2.83095e+06 407295 0 -2.85035e+06 411965 0 -2.87013e+06 416565 0 -2.89032e+06 421080 0 -2.91092e+06 425495 0 -2.93195e+06 429791 0 -2.95341e+06 433949 0 -2.97531e+06 437947 0 -2.99765e+06 441760 0 -3.02046e+06 445360 0 -3.04374e+06 448717 0 -3.06749e+06 451796 0 -3.09173e+06 454561 0 -3.11645e+06 456969 0 -3.14166e+06 458974 0 -3.16736e+06 460526 0 -3.19356e+06 461569 0 -3.22023e+06 462043 0 -3.24739e+06 461881 0 -3.275e+06 461011 0 -3.30305e+06 459355 0 -3.33151e+06 456829 0 -3.36034e+06 453343 0 -3.3895e+06 448803 0 -3.41892e+06 443109 0 -3.44853e+06 436156 0 -3.47825e+06 427841 0 -3.50795e+06 418056 0 -3.53752e+06 406699 0 -3.56681e+06 393670 0 -3.59565e+06 378881 0 -3.62384e+06 362256 0 -3.65117e+06 343740 0 -3.67741e+06 323300 0 -3.7023e+06 300934 0 -3.72558e+06 276678 0 -3.74697e+06 250606 0 -3.7662e+06 222838 0 -3.78302e+06 193539 0 -3.79719e+06 162921 0 -3.80849e+06 131237 0 -3.81678e+06 98777.4 0 -3.82192e+06 65860.5 0 -3.82387e+06 32821.4 0 -3.82262e+06 3.8147e-06 0 -2.07755e+06 48321.2 0 -2.07954e+06 52525.2 0 -2.08167e+06 56714.2 0 -2.08395e+06 60889.1 0 -2.08636e+06 65050.5 0 -2.08892e+06 69199 0 -2.09162e+06 73335.4 0 -2.09446e+06 77460.4 0 -2.09744e+06 81574.7 0 -2.10057e+06 85678.9 0 -2.10384e+06 89773.8 0 -2.10725e+06 93860.1 0 -2.11082e+06 97938.5 0 -2.11452e+06 102010 0 -2.11838e+06 106074 0 -2.12238e+06 110133 0 -2.12653e+06 114187 0 -2.13084e+06 118236 0 -2.13529e+06 122282 0 -2.13989e+06 126325 0 -2.14465e+06 130366 0 -2.14955e+06 134405 0 -2.15462e+06 138443 0 -2.15983e+06 142482 0 -2.16521e+06 146521 0 -2.17074e+06 150562 0 -2.17643e+06 154606 0 -2.18228e+06 158652 0 -2.18829e+06 162702 0 -2.19446e+06 166757 0 -2.20079e+06 170818 0 -2.20729e+06 174884 0 -2.21396e+06 178958 0 -2.2208e+06 183039 0 -2.2278e+06 187129 0 -2.23497e+06 191229 0 -2.24232e+06 195339 0 -2.24984e+06 199460 0 -2.25754e+06 203593 0 -2.26541e+06 207738 0 -2.27346e+06 211898 0 -2.2817e+06 216072 0 -2.29012e+06 220261 0 -2.29872e+06 224466 0 -2.30751e+06 228688 0 -2.31649e+06 232928 0 -2.32566e+06 237186 0 -2.33503e+06 241464 0 -2.34459e+06 245761 0 -2.35436e+06 250080 0 -2.36432e+06 254421 0 -2.37449e+06 258783 0 -2.38486e+06 263169 0 -2.39545e+06 267579 0 -2.40625e+06 272013 0 -2.41727e+06 276472 0 -2.4285e+06 280957 0 -2.43996e+06 285468 0 -2.45164e+06 290005 0 -2.46356e+06 294569 0 -2.47571e+06 299160 0 -2.4881e+06 303778 0 -2.50073e+06 308423 0 -2.5136e+06 313096 0 -2.52673e+06 317796 0 -2.54011e+06 322522 0 -2.55375e+06 327274 0 -2.56765e+06 332051 0 -2.58183e+06 336853 0 -2.59628e+06 341677 0 -2.61101e+06 346523 0 -2.62603e+06 351389 0 -2.64134e+06 356273 0 -2.65695e+06 361171 0 -2.67287e+06 366081 0 -2.6891e+06 371000 0 -2.70564e+06 375923 0 -2.72252e+06 380846 0 -2.73973e+06 385764 0 -2.75728e+06 390670 0 -2.77518e+06 395558 0 -2.79344e+06 400419 0 -2.81207e+06 405245 0 -2.83107e+06 410026 0 -2.85046e+06 414751 0 -2.87024e+06 419408 0 -2.89043e+06 423981 0 -2.91104e+06 428455 0 -2.93207e+06 432812 0 -2.95353e+06 437032 0 -2.97544e+06 441094 0 -2.9978e+06 444972 0 -3.02062e+06 448639 0 -3.04392e+06 452063 0 -3.0677e+06 455212 0 -3.09196e+06 458047 0 -3.11671e+06 460526 0 -3.14197e+06 462603 0 -3.16772e+06 464228 0 -3.19396e+06 465344 0 -3.2207e+06 465891 0 -3.24793e+06 465800 0 -3.27562e+06 465000 0 -3.30377e+06 463412 0 -3.33233e+06 460950 0 -3.36128e+06 457524 0 -3.39057e+06 453037 0 -3.42014e+06 447388 0 -3.44992e+06 440472 0 -3.47981e+06 432181 0 -3.50971e+06 422405 0 -3.5395e+06 411040 0 -3.56902e+06 397982 0 -3.5981e+06 383140 0 -3.62655e+06 366436 0 -3.65415e+06 347809 0 -3.68066e+06 327224 0 -3.70583e+06 304677 0 -3.72938e+06 280201 0 -3.75104e+06 253868 0 -3.77053e+06 225799 0 -3.78759e+06 196159 0 -3.80197e+06 165164 0 -3.81345e+06 133070 0 -3.82187e+06 100174 0 -3.82711e+06 66801.4 0 -3.82911e+06 33293.9 0 -3.82786e+06 -1.66049e-06 0 -2.07746e+06 49065.5 0 -2.07947e+06 53275.4 0 -2.08162e+06 57470.7 0 -2.0839e+06 61652.1 0 -2.08633e+06 65820.4 0 -2.0889e+06 69976.2 0 -2.09162e+06 74120.1 0 -2.09447e+06 78253 0 -2.09747e+06 82375.5 0 -2.10061e+06 86488.3 0 -2.10389e+06 90592.2 0 -2.10732e+06 94687.7 0 -2.11089e+06 98775.6 0 -2.11461e+06 102857 0 -2.11848e+06 106932 0 -2.12249e+06 111001 0 -2.12666e+06 115066 0 -2.13097e+06 119127 0 -2.13543e+06 123184 0 -2.14004e+06 127239 0 -2.14481e+06 131292 0 -2.14973e+06 135344 0 -2.1548e+06 139395 0 -2.16002e+06 143448 0 -2.1654e+06 147501 0 -2.17094e+06 151556 0 -2.17664e+06 155614 0 -2.1825e+06 159675 0 -2.18851e+06 163741 0 -2.19469e+06 167811 0 -2.20103e+06 171888 0 -2.20754e+06 175971 0 -2.21421e+06 180062 0 -2.22105e+06 184160 0 -2.22806e+06 188268 0 -2.23524e+06 192386 0 -2.24259e+06 196515 0 -2.25012e+06 200655 0 -2.25782e+06 204807 0 -2.26569e+06 208973 0 -2.27375e+06 213152 0 -2.28199e+06 217347 0 -2.29041e+06 221557 0 -2.29901e+06 225784 0 -2.3078e+06 230028 0 -2.31678e+06 234291 0 -2.32596e+06 238573 0 -2.33532e+06 242874 0 -2.34489e+06 247196 0 -2.35465e+06 251540 0 -2.36461e+06 255906 0 -2.37478e+06 260294 0 -2.38515e+06 264707 0 -2.39574e+06 269144 0 -2.40653e+06 273606 0 -2.41755e+06 278093 0 -2.42878e+06 282606 0 -2.44023e+06 287147 0 -2.45192e+06 291714 0 -2.46383e+06 296309 0 -2.47597e+06 300931 0 -2.48835e+06 305582 0 -2.50098e+06 310260 0 -2.51385e+06 314966 0 -2.52697e+06 319700 0 -2.54034e+06 324461 0 -2.55397e+06 329249 0 -2.56787e+06 334064 0 -2.58204e+06 338903 0 -2.59648e+06 343766 0 -2.61121e+06 348651 0 -2.62622e+06 353558 0 -2.64152e+06 358482 0 -2.65713e+06 363423 0 -2.67303e+06 368377 0 -2.68925e+06 373340 0 -2.70579e+06 378308 0 -2.72266e+06 383278 0 -2.73986e+06 388243 0 -2.75741e+06 393198 0 -2.7753e+06 398136 0 -2.79356e+06 403048 0 -2.81218e+06 407927 0 -2.83118e+06 412762 0 -2.85057e+06 417543 0 -2.87035e+06 422256 0 -2.89054e+06 426887 0 -2.91115e+06 431421 0 -2.93218e+06 435839 0 -2.95365e+06 440122 0 -2.97557e+06 444248 0 -2.99794e+06 448192 0 -3.02078e+06 451925 0 -3.04409e+06 455419 0 -3.06789e+06 458637 0 -3.09218e+06 461543 0 -3.11697e+06 464094 0 -3.14226e+06 466245 0 -3.16806e+06 467943 0 -3.19436e+06 469133 0 -3.22117e+06 469753 0 -3.24846e+06 469736 0 -3.27624e+06 469007 0 -3.30448e+06 467488 0 -3.33315e+06 465092 0 -3.36222e+06 461727 0 -3.39165e+06 457296 0 -3.42136e+06 451695 0 -3.45131e+06 444818 0 -3.48138e+06 436552 0 -3.51148e+06 426789 0 -3.54148e+06 415417 0 -3.57123e+06 402333 0 -3.60056e+06 387441 0 -3.62927e+06 370659 0 -3.65715e+06 351922 0 -3.68394e+06 331194 0 -3.70939e+06 308466 0 -3.73323e+06 283768 0 -3.75517e+06 257174 0 -3.77492e+06 228801 0 -3.79222e+06 198817 0 -3.80681e+06 167440 0 -3.81848e+06 134932 0 -3.82704e+06 101593 0 -3.83238e+06 67757.1 0 -3.83442e+06 33773.9 0 -3.83318e+06 9.8726e-07 0 -2.07737e+06 49812.9 0 -2.0794e+06 54028.7 0 -2.08156e+06 58230.3 0 -2.08386e+06 62418.3 0 -2.08631e+06 66593.5 0 -2.08889e+06 70756.5 0 -2.09162e+06 74908 0 -2.09448e+06 79048.8 0 -2.09749e+06 83179.6 0 -2.10065e+06 87301 0 -2.10394e+06 91413.7 0 -2.10739e+06 95518.5 0 -2.11097e+06 99616 0 -2.1147e+06 103707 0 -2.11858e+06 107792 0 -2.12261e+06 111872 0 -2.12678e+06 115948 0 -2.1311e+06 120020 0 -2.13557e+06 124089 0 -2.1402e+06 128156 0 -2.14497e+06 132221 0 -2.1499e+06 136286 0 -2.15498e+06 140351 0 -2.16021e+06 144416 0 -2.1656e+06 148484 0 -2.17115e+06 152553 0 -2.17685e+06 156625 0 -2.18272e+06 160702 0 -2.18874e+06 164783 0 -2.19493e+06 168869 0 -2.20127e+06 172962 0 -2.20779e+06 177061 0 -2.21446e+06 181169 0 -2.22131e+06 185285 0 -2.22832e+06 189411 0 -2.23551e+06 193547 0 -2.24286e+06 197694 0 -2.25039e+06 201853 0 -2.25809e+06 206025 0 -2.26597e+06 210210 0 -2.27403e+06 214410 0 -2.28227e+06 218626 0 -2.29069e+06 222857 0 -2.2993e+06 227106 0 -2.30809e+06 231373 0 -2.31708e+06 235658 0 -2.32625e+06 239963 0 -2.33562e+06 244288 0 -2.34518e+06 248635 0 -2.35494e+06 253003 0 -2.3649e+06 257394 0 -2.37507e+06 261809 0 -2.38544e+06 266248 0 -2.39602e+06 270712 0 -2.40682e+06 275201 0 -2.41783e+06 279717 0 -2.42905e+06 284259 0 -2.44051e+06 288829 0 -2.45218e+06 293427 0 -2.46409e+06 298052 0 -2.47623e+06 302706 0 -2.48861e+06 307389 0 -2.50122e+06 312100 0 -2.51409e+06 316840 0 -2.5272e+06 321608 0 -2.54057e+06 326405 0 -2.5542e+06 331229 0 -2.56809e+06 336080 0 -2.58225e+06 340957 0 -2.59669e+06 345858 0 -2.6114e+06 350783 0 -2.62641e+06 355730 0 -2.6417e+06 360696 0 -2.6573e+06 365679 0 -2.6732e+06 370676 0 -2.68941e+06 375683 0 -2.70594e+06 380697 0 -2.7228e+06 385713 0 -2.74e+06 390726 0 -2.75753e+06 395730 0 -2.77542e+06 400718 0 -2.79367e+06 405682 0 -2.81229e+06 410614 0 -2.83129e+06 415503 0 -2.85067e+06 420339 0 -2.87045e+06 425109 0 -2.89064e+06 429799 0 -2.91125e+06 434392 0 -2.93229e+06 438872 0 -2.95376e+06 443218 0 -2.97569e+06 447409 0 -2.99807e+06 451419 0 -3.02092e+06 455220 0 -3.04426e+06 458782 0 -3.06808e+06 462071 0 -3.0924e+06 465049 0 -3.11722e+06 467674 0 -3.14255e+06 469898 0 -3.1684e+06 471671 0 -3.19476e+06 472936 0 -3.22162e+06 473631 0 -3.24899e+06 473688 0 -3.27685e+06 473032 0 -3.30518e+06 471584 0 -3.33396e+06 469256 0 -3.36316e+06 465955 0 -3.39271e+06 461582 0 -3.42258e+06 456031 0 -3.45269e+06 449194 0 -3.48295e+06 440957 0 -3.51325e+06 431208 0 -3.54347e+06 419833 0 -3.57346e+06 406725 0 -3.60304e+06 391784 0 -3.63202e+06 374926 0 -3.66017e+06 356081 0 -3.68725e+06 335210 0 -3.71299e+06 312301 0 -3.73712e+06 287382 0 -3.75934e+06 260524 0 -3.77937e+06 231845 0 -3.79691e+06 201514 0 -3.81173e+06 169751 0 -3.82358e+06 136822 0 -3.83229e+06 103035 0 -3.83772e+06 68728.1 0 -3.83982e+06 34261.5 0 -3.83858e+06 -4.00702e-07 0 -2.07729e+06 50563.4 0 -2.07933e+06 54785.1 0 -2.0815e+06 58992.9 0 -2.08382e+06 63187.6 0 -2.08628e+06 67369.7 0 -2.08888e+06 71539.9 0 -2.09162e+06 75699.1 0 -2.0945e+06 79847.8 0 -2.09752e+06 83986.8 0 -2.10069e+06 88116.8 0 -2.104e+06 92238.5 0 -2.10745e+06 96352.6 0 -2.11105e+06 100460 0 -2.11479e+06 104561 0 -2.11868e+06 108656 0 -2.12272e+06 112747 0 -2.1269e+06 116834 0 -2.13124e+06 120917 0 -2.13572e+06 124998 0 -2.14035e+06 129077 0 -2.14513e+06 133154 0 -2.15007e+06 137232 0 -2.15516e+06 141310 0 -2.1604e+06 145389 0 -2.1658e+06 149470 0 -2.17136e+06 153553 0 -2.17707e+06 157640 0 -2.18294e+06 161732 0 -2.18897e+06 165828 0 -2.19516e+06 169930 0 -2.20151e+06 174039 0 -2.20803e+06 178155 0 -2.21472e+06 182280 0 -2.22157e+06 186413 0 -2.22858e+06 190556 0 -2.23577e+06 194711 0 -2.24313e+06 198876 0 -2.25066e+06 203054 0 -2.25837e+06 207246 0 -2.26625e+06 211451 0 -2.27431e+06 215672 0 -2.28256e+06 219908 0 -2.29098e+06 224161 0 -2.29959e+06 228432 0 -2.30838e+06 232720 0 -2.31737e+06 237028 0 -2.32654e+06 241357 0 -2.33591e+06 245706 0 -2.34547e+06 250076 0 -2.35523e+06 254470 0 -2.36519e+06 258886 0 -2.37535e+06 263327 0 -2.38572e+06 267792 0 -2.3963e+06 272283 0 -2.4071e+06 276800 0 -2.4181e+06 281344 0 -2.42933e+06 285916 0 -2.44078e+06 290515 0 -2.45245e+06 295143 0 -2.46435e+06 299799 0 -2.47648e+06 304485 0 -2.48886e+06 309199 0 -2.50147e+06 313944 0 -2.51433e+06 318717 0 -2.52743e+06 323520 0 -2.5408e+06 328352 0 -2.55442e+06 333212 0 -2.5683e+06 338099 0 -2.58245e+06 343014 0 -2.59688e+06 347954 0 -2.61159e+06 352919 0 -2.62659e+06 357906 0 -2.64188e+06 362913 0 -2.65746e+06 367938 0 -2.67335e+06 372979 0 -2.68956e+06 378030 0 -2.70608e+06 383090 0 -2.72294e+06 388153 0 -2.74012e+06 393214 0 -2.75765e+06 398267 0 -2.77554e+06 403305 0 -2.79378e+06 408321 0 -2.81239e+06 413305 0 -2.83138e+06 418249 0 -2.85077e+06 423141 0 -2.87055e+06 427968 0 -2.89074e+06 432716 0 -2.91134e+06 437370 0 -2.93238e+06 441912 0 -2.95387e+06 446321 0 -2.9758e+06 450577 0 -2.99819e+06 454653 0 -3.02106e+06 458523 0 -3.04442e+06 462155 0 -3.06826e+06 465515 0 -3.09261e+06 468566 0 -3.11747e+06 471264 0 -3.14284e+06 473563 0 -3.16873e+06 475412 0 -3.19514e+06 476753 0 -3.22207e+06 477525 0 -3.24951e+06 477657 0 -3.27746e+06 477076 0 -3.30588e+06 475701 0 -3.33477e+06 473442 0 -3.36409e+06 470207 0 -3.39378e+06 465893 0 -3.4238e+06 460395 0 -3.45408e+06 453600 0 -3.48452e+06 445395 0 -3.51503e+06 435662 0 -3.54547e+06 424287 0 -3.5757e+06 411157 0 -3.60553e+06 396171 0 -3.63478e+06 379237 0 -3.66322e+06 360287 0 -3.69059e+06 339274 0 -3.71663e+06 316185 0 -3.74106e+06 291044 0 -3.76357e+06 263921 0 -3.78387e+06 234933 0 -3.80167e+06 204251 0 -3.81671e+06 172097 0 -3.82875e+06 138742 0 -3.83761e+06 104499 0 -3.84315e+06 69714.8 0 -3.84531e+06 34757.1 0 -3.84407e+06 6.10482e-07 0 -2.0772e+06 51316.9 0 -2.07926e+06 55544.6 0 -2.08145e+06 59758.7 0 -2.08378e+06 63960 0 -2.08626e+06 68149 0 -2.08887e+06 72326.6 0 -2.09162e+06 76493.3 0 -2.09452e+06 80650 0 -2.09755e+06 84797.3 0 -2.10073e+06 88935.9 0 -2.10406e+06 93066.5 0 -2.10752e+06 97189.9 0 -2.11113e+06 101307 0 -2.11489e+06 105418 0 -2.11879e+06 109523 0 -2.12283e+06 113625 0 -2.12703e+06 117722 0 -2.13137e+06 121817 0 -2.13586e+06 125910 0 -2.14051e+06 130001 0 -2.1453e+06 134091 0 -2.15024e+06 138181 0 -2.15534e+06 142272 0 -2.16059e+06 146364 0 -2.166e+06 150459 0 -2.17156e+06 154557 0 -2.17728e+06 158659 0 -2.18316e+06 162765 0 -2.1892e+06 166877 0 -2.19539e+06 170995 0 -2.20176e+06 175120 0 -2.20828e+06 179252 0 -2.21497e+06 183394 0 -2.22182e+06 187545 0 -2.22885e+06 191706 0 -2.23604e+06 195878 0 -2.2434e+06 200062 0 -2.25094e+06 204260 0 -2.25865e+06 208470 0 -2.26653e+06 212696 0 -2.2746e+06 216937 0 -2.28284e+06 221194 0 -2.29127e+06 225468 0 -2.29987e+06 229760 0 -2.30867e+06 234072 0 -2.31765e+06 238402 0 -2.32683e+06 242754 0 -2.33619e+06 247127 0 -2.34576e+06 251522 0 -2.35552e+06 255940 0 -2.36548e+06 260382 0 -2.37564e+06 264848 0 -2.38601e+06 269340 0 -2.39658e+06 273858 0 -2.40737e+06 278403 0 -2.41838e+06 282975 0 -2.4296e+06 287576 0 -2.44104e+06 292204 0 -2.45271e+06 296862 0 -2.46461e+06 301549 0 -2.47674e+06 306266 0 -2.4891e+06 311013 0 -2.50171e+06 315791 0 -2.51456e+06 320598 0 -2.52766e+06 325435 0 -2.54102e+06 330302 0 -2.55463e+06 335198 0 -2.56851e+06 340123 0 -2.58266e+06 345075 0 -2.59708e+06 350054 0 -2.61178e+06 355058 0 -2.62677e+06 360085 0 -2.64205e+06 365134 0 -2.65762e+06 370202 0 -2.67351e+06 375285 0 -2.6897e+06 380382 0 -2.70622e+06 385487 0 -2.72307e+06 390597 0 -2.74025e+06 395705 0 -2.75777e+06 400807 0 -2.77564e+06 405896 0 -2.79388e+06 410964 0 -2.81249e+06 416001 0 -2.83148e+06 421000 0 -2.85086e+06 425947 0 -2.87063e+06 430832 0 -2.89082e+06 435639 0 -2.91143e+06 440354 0 -2.93248e+06 444958 0 -2.95396e+06 449431 0 -2.97591e+06 453752 0 -2.99831e+06 457896 0 -3.0212e+06 461834 0 -3.04457e+06 465536 0 -3.06844e+06 468969 0 -3.09281e+06 472092 0 -3.1177e+06 474865 0 -3.14312e+06 477241 0 -3.16905e+06 479166 0 -3.19552e+06 480585 0 -3.22251e+06 481434 0 -3.25003e+06 481643 0 -3.27806e+06 481139 0 -3.30658e+06 479838 0 -3.33558e+06 477651 0 -3.36501e+06 474483 0 -3.39485e+06 470231 0 -3.42502e+06 464787 0 -3.45547e+06 458038 0 -3.4861e+06 449867 0 -3.51681e+06 440153 0 -3.54748e+06 428780 0 -3.57795e+06 415631 0 -3.60804e+06 400600 0 -3.63757e+06 383595 0 -3.66629e+06 364540 0 -3.69396e+06 343387 0 -3.72031e+06 320117 0 -3.74503e+06 294754 0 -3.76784e+06 267364 0 -3.78843e+06 238066 0 -3.80649e+06 207029 0 -3.82176e+06 174480 0 -3.834e+06 140692 0 -3.84302e+06 105987 0 -3.84867e+06 70717.7 0 -3.85088e+06 35260.9 0 -3.84964e+06 -7.39703e-07 0 -2.07712e+06 52073.5 0 -2.07919e+06 56307.2 0 -2.0814e+06 60527.6 0 -2.08375e+06 64735.5 0 -2.08623e+06 68931.5 0 -2.08886e+06 73116.3 0 -2.09163e+06 77290.7 0 -2.09454e+06 81455.4 0 -2.09759e+06 85611 0 -2.10078e+06 89758.2 0 -2.10411e+06 93897.8 0 -2.10759e+06 98030.4 0 -2.11121e+06 102157 0 -2.11498e+06 106278 0 -2.11889e+06 110394 0 -2.12295e+06 114506 0 -2.12715e+06 118615 0 -2.13151e+06 122721 0 -2.13601e+06 126825 0 -2.14066e+06 130928 0 -2.14546e+06 135030 0 -2.15042e+06 139133 0 -2.15552e+06 143238 0 -2.16078e+06 147344 0 -2.1662e+06 151452 0 -2.17177e+06 155564 0 -2.1775e+06 159681 0 -2.18338e+06 163802 0 -2.18942e+06 167929 0 -2.19563e+06 172063 0 -2.202e+06 176204 0 -2.20852e+06 180353 0 -2.21522e+06 184511 0 -2.22208e+06 188679 0 -2.22911e+06 192858 0 -2.2363e+06 197049 0 -2.24367e+06 201252 0 -2.25121e+06 205468 0 -2.25892e+06 209699 0 -2.26681e+06 213944 0 -2.27488e+06 218205 0 -2.28312e+06 222483 0 -2.29155e+06 226779 0 -2.30016e+06 231093 0 -2.30896e+06 235426 0 -2.31794e+06 239780 0 -2.32711e+06 244155 0 -2.33648e+06 248551 0 -2.34604e+06 252970 0 -2.3558e+06 257413 0 -2.36576e+06 261881 0 -2.37592e+06 266373 0 -2.38629e+06 270892 0 -2.39686e+06 275437 0 -2.40765e+06 280009 0 -2.41865e+06 284610 0 -2.42987e+06 289239 0 -2.44131e+06 293897 0 -2.45297e+06 298585 0 -2.46486e+06 303303 0 -2.47699e+06 308052 0 -2.48935e+06 312831 0 -2.50195e+06 317641 0 -2.5148e+06 322482 0 -2.52789e+06 327354 0 -2.54124e+06 332256 0 -2.55484e+06 337188 0 -2.56871e+06 342149 0 -2.58285e+06 347139 0 -2.59727e+06 352157 0 -2.61196e+06 357200 0 -2.62694e+06 362268 0 -2.64221e+06 367358 0 -2.65778e+06 372469 0 -2.67366e+06 377596 0 -2.68985e+06 382737 0 -2.70635e+06 387888 0 -2.72319e+06 393044 0 -2.74036e+06 398201 0 -2.75788e+06 403352 0 -2.77575e+06 408492 0 -2.79398e+06 413611 0 -2.81258e+06 418702 0 -2.83157e+06 423755 0 -2.85094e+06 428759 0 -2.87072e+06 433701 0 -2.8909e+06 438568 0 -2.91152e+06 443343 0 -2.93256e+06 448010 0 -2.95406e+06 452547 0 -2.97601e+06 456934 0 -2.99842e+06 461145 0 -3.02132e+06 465153 0 -3.04471e+06 468927 0 -3.0686e+06 472431 0 -3.09301e+06 475629 0 -3.11793e+06 478478 0 -3.14338e+06 480930 0 -3.16937e+06 482934 0 -3.19589e+06 484431 0 -3.22295e+06 485358 0 -3.25054e+06 485647 0 -3.27865e+06 485220 0 -3.30727e+06 483995 0 -3.33637e+06 481882 0 -3.36593e+06 478783 0 -3.39591e+06 474596 0 -3.42624e+06 469209 0 -3.45686e+06 462508 0 -3.48768e+06 454373 0 -3.5186e+06 444681 0 -3.54949e+06 433312 0 -3.58021e+06 420146 0 -3.61057e+06 405075 0 -3.64037e+06 387999 0 -3.66939e+06 368842 0 -3.69736e+06 347549 0 -3.72402e+06 324100 0 -3.74906e+06 298514 0 -3.77217e+06 270856 0 -3.79304e+06 241244 0 -3.81138e+06 209850 0 -3.82689e+06 176900 0 -3.83933e+06 142674 0 -3.84851e+06 107499 0 -3.85427e+06 71737.3 0 -3.85653e+06 35773.1 0 -3.8553e+06 1.49151e-06 0 -2.07704e+06 52833.1 0 -2.07913e+06 57072.8 0 -2.08135e+06 61299.6 0 -2.08371e+06 65514.1 0 -2.08621e+06 69717.1 0 -2.08886e+06 73909.3 0 -2.09164e+06 78091.3 0 -2.09456e+06 82263.9 0 -2.09762e+06 86427.8 0 -2.10082e+06 90583.7 0 -2.10417e+06 94732.3 0 -2.10766e+06 98874.2 0 -2.1113e+06 103010 0 -2.11507e+06 107141 0 -2.119e+06 111268 0 -2.12307e+06 115390 0 -2.12728e+06 119510 0 -2.13165e+06 123627 0 -2.13616e+06 127743 0 -2.14082e+06 131858 0 -2.14563e+06 135974 0 -2.15059e+06 140089 0 -2.15571e+06 144207 0 -2.16098e+06 148326 0 -2.1664e+06 152449 0 -2.17198e+06 156575 0 -2.17771e+06 160706 0 -2.1836e+06 164842 0 -2.18965e+06 168984 0 -2.19586e+06 173134 0 -2.20223e+06 177291 0 -2.20877e+06 181457 0 -2.21547e+06 185632 0 -2.22233e+06 189818 0 -2.22937e+06 194015 0 -2.23657e+06 198223 0 -2.24394e+06 202445 0 -2.25148e+06 206680 0 -2.2592e+06 210930 0 -2.26709e+06 215195 0 -2.27516e+06 219477 0 -2.2834e+06 223776 0 -2.29183e+06 228093 0 -2.30044e+06 232429 0 -2.30924e+06 236784 0 -2.31823e+06 241161 0 -2.3274e+06 245559 0 -2.33677e+06 249979 0 -2.34633e+06 254423 0 -2.35609e+06 258890 0 -2.36604e+06 263383 0 -2.3762e+06 267902 0 -2.38657e+06 272446 0 -2.39714e+06 277019 0 -2.40792e+06 281619 0 -2.41892e+06 286248 0 -2.43013e+06 290906 0 -2.44157e+06 295593 0 -2.45323e+06 300312 0 -2.46512e+06 305061 0 -2.47724e+06 309841 0 -2.48959e+06 314652 0 -2.50219e+06 319495 0 -2.51502e+06 324370 0 -2.52811e+06 329276 0 -2.54145e+06 334213 0 -2.55505e+06 339181 0 -2.56892e+06 344180 0 -2.58305e+06 349208 0 -2.59745e+06 354264 0 -2.61214e+06 359347 0 -2.62711e+06 364455 0 -2.64237e+06 369587 0 -2.65793e+06 374739 0 -2.6738e+06 379910 0 -2.68998e+06 385096 0 -2.70648e+06 390293 0 -2.72331e+06 395496 0 -2.74047e+06 400701 0 -2.75798e+06 405902 0 -2.77585e+06 411092 0 -2.79407e+06 416263 0 -2.81267e+06 421408 0 -2.83165e+06 426516 0 -2.85102e+06 431576 0 -2.87079e+06 436576 0 -2.89098e+06 441502 0 -2.91159e+06 446339 0 -2.93264e+06 451068 0 -2.95414e+06 455671 0 -2.9761e+06 460124 0 -2.99853e+06 464403 0 -3.02144e+06 468481 0 -3.04485e+06 472326 0 -3.06876e+06 475904 0 -3.0932e+06 479177 0 -3.11815e+06 482102 0 -3.14365e+06 484632 0 -3.16968e+06 486714 0 -3.19625e+06 488291 0 -3.22338e+06 489299 0 -3.25104e+06 489668 0 -3.27924e+06 489320 0 -3.30795e+06 488173 0 -3.33717e+06 486135 0 -3.36685e+06 483108 0 -3.39696e+06 478987 0 -3.42745e+06 473660 0 -3.45824e+06 467010 0 -3.48926e+06 458913 0 -3.52039e+06 449246 0 -3.55151e+06 437884 0 -3.58248e+06 424705 0 -3.61311e+06 409594 0 -3.6432e+06 392451 0 -3.67251e+06 373192 0 -3.7008e+06 351761 0 -3.72777e+06 328133 0 -3.75312e+06 302324 0 -3.77654e+06 274398 0 -3.79772e+06 244470 0 -3.81633e+06 212713 0 -3.83209e+06 179358 0 -3.84474e+06 144688 0 -3.85408e+06 109037 0 -3.85995e+06 72773.9 0 -3.86228e+06 36294 0 -3.86105e+06 -1.01374e-06 0 -2.07696e+06 53595.9 0 -2.07906e+06 57841.6 0 -2.0813e+06 62074.7 0 -2.08368e+06 66295.9 0 -2.0862e+06 70505.9 0 -2.08885e+06 74705.4 0 -2.09164e+06 78895.1 0 -2.09458e+06 83075.7 0 -2.09766e+06 87247.9 0 -2.10087e+06 91412.4 0 -2.10423e+06 95570 0 -2.10773e+06 99721.3 0 -2.11138e+06 103867 0 -2.11517e+06 108008 0 -2.1191e+06 112145 0 -2.12318e+06 116278 0 -2.12741e+06 120409 0 -2.13178e+06 124538 0 -2.1363e+06 128665 0 -2.14098e+06 132792 0 -2.1458e+06 136920 0 -2.15077e+06 141048 0 -2.15589e+06 145179 0 -2.16117e+06 149312 0 -2.1666e+06 153448 0 -2.17218e+06 157589 0 -2.17792e+06 161734 0 -2.18382e+06 165886 0 -2.18988e+06 170043 0 -2.1961e+06 174209 0 -2.20247e+06 178382 0 -2.20901e+06 182564 0 -2.21572e+06 186757 0 -2.22259e+06 190960 0 -2.22963e+06 195174 0 -2.23683e+06 199401 0 -2.2442e+06 203641 0 -2.25175e+06 207896 0 -2.25947e+06 212165 0 -2.26736e+06 216450 0 -2.27543e+06 220752 0 -2.28368e+06 225072 0 -2.29212e+06 229410 0 -2.30073e+06 233768 0 -2.30953e+06 238146 0 -2.31851e+06 242545 0 -2.32769e+06 246966 0 -2.33705e+06 251410 0 -2.34661e+06 255878 0 -2.35637e+06 260371 0 -2.36632e+06 264889 0 -2.37648e+06 269433 0 -2.38684e+06 274005 0 -2.39741e+06 278604 0 -2.40819e+06 283232 0 -2.41919e+06 287889 0 -2.4304e+06 292576 0 -2.44183e+06 297293 0 -2.45348e+06 302042 0 -2.46537e+06 306821 0 -2.47748e+06 311633 0 -2.48983e+06 316477 0 -2.50242e+06 321353 0 -2.51525e+06 326261 0 -2.52833e+06 331202 0 -2.54167e+06 336174 0 -2.55526e+06 341178 0 -2.56911e+06 346214 0 -2.58324e+06 351279 0 -2.59763e+06 356374 0 -2.61231e+06 361497 0 -2.62727e+06 366646 0 -2.64253e+06 371819 0 -2.65808e+06 377014 0 -2.67394e+06 382228 0 -2.69011e+06 387459 0 -2.70661e+06 392701 0 -2.72343e+06 397952 0 -2.74058e+06 403205 0 -2.75808e+06 408455 0 -2.77594e+06 413696 0 -2.79416e+06 418920 0 -2.81275e+06 424118 0 -2.83172e+06 429281 0 -2.85109e+06 434398 0 -2.87086e+06 439456 0 -2.89105e+06 444442 0 -2.91166e+06 449340 0 -2.93272e+06 454133 0 -2.95422e+06 458800 0 -2.97618e+06 463320 0 -2.99862e+06 467668 0 -3.02155e+06 471816 0 -3.04498e+06 475734 0 -3.06892e+06 479386 0 -3.09338e+06 482734 0 -3.11837e+06 485737 0 -3.1439e+06 488346 0 -3.16998e+06 490508 0 -3.19661e+06 492166 0 -3.2238e+06 493256 0 -3.25153e+06 493706 0 -3.27982e+06 493440 0 -3.30863e+06 492372 0 -3.33796e+06 490412 0 -3.36776e+06 487459 0 -3.39802e+06 483406 0 -3.42866e+06 478141 0 -3.45963e+06 471543 0 -3.49084e+06 463489 0 -3.52219e+06 453849 0 -3.55354e+06 442497 0 -3.58476e+06 429306 0 -3.61566e+06 414160 0 -3.64604e+06 396951 0 -3.67566e+06 377593 0 -3.70426e+06 356026 0 -3.73156e+06 332219 0 -3.75723e+06 306187 0 -3.78097e+06 277990 0 -3.80245e+06 247743 0 -3.82134e+06 215621 0 -3.83736e+06 181855 0 -3.85022e+06 146735 0 -3.85973e+06 110600 0 -3.86572e+06 73828.2 0 -3.86812e+06 36823.8 0 -3.8669e+06 5.68107e-08 0 -2.07689e+06 54361.7 0 -2.079e+06 58613.4 0 -2.08126e+06 62852.9 0 -2.08365e+06 67080.8 0 -2.08618e+06 71297.8 0 -2.08885e+06 75504.6 0 -2.09166e+06 79702 0 -2.0946e+06 83890.6 0 -2.09769e+06 88071.2 0 -2.10092e+06 92244.4 0 -2.10429e+06 96411 0 -2.10781e+06 100572 0 -2.11146e+06 104727 0 -2.11526e+06 108878 0 -2.11921e+06 113025 0 -2.1233e+06 117169 0 -2.12754e+06 121311 0 -2.13192e+06 125451 0 -2.13645e+06 129590 0 -2.14113e+06 133730 0 -2.14596e+06 137870 0 -2.15094e+06 142011 0 -2.15607e+06 146155 0 -2.16136e+06 150301 0 -2.1668e+06 154451 0 -2.17239e+06 158606 0 -2.17814e+06 162766 0 -2.18404e+06 166933 0 -2.19011e+06 171106 0 -2.19633e+06 175287 0 -2.20271e+06 179476 0 -2.20926e+06 183675 0 -2.21597e+06 187885 0 -2.22284e+06 192105 0 -2.22988e+06 196337 0 -2.23709e+06 200583 0 -2.24447e+06 204841 0 -2.25202e+06 209115 0 -2.25974e+06 213404 0 -2.26764e+06 217709 0 -2.27571e+06 222031 0 -2.28396e+06 226372 0 -2.2924e+06 230731 0 -2.30101e+06 235111 0 -2.30981e+06 239511 0 -2.31879e+06 243933 0 -2.32797e+06 248377 0 -2.33733e+06 252845 0 -2.34689e+06 257338 0 -2.35665e+06 261855 0 -2.3666e+06 266398 0 -2.37676e+06 270969 0 -2.38712e+06 275567 0 -2.39768e+06 280193 0 -2.40846e+06 284848 0 -2.41945e+06 289534 0 -2.43066e+06 294250 0 -2.44208e+06 298996 0 -2.45374e+06 303775 0 -2.46561e+06 308586 0 -2.47772e+06 313429 0 -2.49007e+06 318305 0 -2.50265e+06 323214 0 -2.51547e+06 328156 0 -2.52855e+06 333131 0 -2.54188e+06 338139 0 -2.55546e+06 343179 0 -2.56931e+06 348251 0 -2.58342e+06 353355 0 -2.59781e+06 358488 0 -2.61248e+06 363650 0 -2.62744e+06 368840 0 -2.64268e+06 374055 0 -2.65823e+06 379292 0 -2.67408e+06 384550 0 -2.69024e+06 389826 0 -2.70672e+06 395114 0 -2.72354e+06 400412 0 -2.74068e+06 405713 0 -2.75818e+06 411013 0 -2.77603e+06 416305 0 -2.79424e+06 421581 0 -2.81282e+06 426833 0 -2.83179e+06 432051 0 -2.85116e+06 437225 0 -2.87093e+06 442342 0 -2.89111e+06 447388 0 -2.91173e+06 452348 0 -2.93278e+06 457204 0 -2.95429e+06 461937 0 -2.97626e+06 466524 0 -2.99871e+06 470941 0 -3.02166e+06 475160 0 -3.0451e+06 479150 0 -3.06906e+06 482877 0 -3.09355e+06 486303 0 -3.11857e+06 489383 0 -3.14415e+06 492072 0 -3.17027e+06 494316 0 -3.19696e+06 496056 0 -3.22421e+06 497228 0 -3.25202e+06 497762 0 -3.28039e+06 497578 0 -3.3093e+06 496592 0 -3.33874e+06 494711 0 -3.36867e+06 491834 0 -3.39907e+06 487853 0 -3.42987e+06 482652 0 -3.46101e+06 476110 0 -3.49242e+06 468100 0 -3.52398e+06 458491 0 -3.55558e+06 447151 0 -3.58705e+06 433952 0 -3.61823e+06 418772 0 -3.6489e+06 401500 0 -3.67883e+06 382046 0 -3.70776e+06 360342 0 -3.73538e+06 336358 0 -3.76139e+06 310102 0 -3.78545e+06 281634 0 -3.80724e+06 251066 0 -3.82643e+06 218574 0 -3.8427e+06 184393 0 -3.85579e+06 148816 0 -3.86547e+06 112190 0 -3.87159e+06 74900.6 0 -3.87404e+06 37362.8 0 -3.87283e+06 -3.1665e-08 0 -2.07681e+06 55130.6 0 -2.07895e+06 59388.3 0 -2.08121e+06 63634.2 0 -2.08362e+06 67868.8 0 -2.08616e+06 72092.8 0 -2.08885e+06 76307.1 0 -2.09167e+06 80512.1 0 -2.09463e+06 84708.8 0 -2.09773e+06 88897.7 0 -2.10097e+06 93079.6 0 -2.10436e+06 97255.2 0 -2.10788e+06 101425 0 -2.11155e+06 105590 0 -2.11536e+06 109751 0 -2.11932e+06 113909 0 -2.12342e+06 118063 0 -2.12767e+06 122216 0 -2.13206e+06 126368 0 -2.1366e+06 130519 0 -2.14129e+06 134670 0 -2.14613e+06 138823 0 -2.15112e+06 142977 0 -2.15626e+06 147134 0 -2.16155e+06 151294 0 -2.167e+06 155458 0 -2.1726e+06 159627 0 -2.17835e+06 163802 0 -2.18426e+06 167983 0 -2.19033e+06 172172 0 -2.19656e+06 176368 0 -2.20295e+06 180574 0 -2.2095e+06 184790 0 -2.21622e+06 189016 0 -2.2231e+06 193254 0 -2.23014e+06 197504 0 -2.23736e+06 201767 0 -2.24474e+06 206045 0 -2.25229e+06 210337 0 -2.26001e+06 214646 0 -2.26791e+06 218971 0 -2.27599e+06 223314 0 -2.28424e+06 227675 0 -2.29268e+06 232056 0 -2.30129e+06 236457 0 -2.31009e+06 240880 0 -2.31908e+06 245324 0 -2.32825e+06 249792 0 -2.33761e+06 254284 0 -2.34717e+06 258800 0 -2.35693e+06 263343 0 -2.36688e+06 267911 0 -2.37703e+06 272508 0 -2.38739e+06 277132 0 -2.39795e+06 281785 0 -2.40873e+06 286469 0 -2.41971e+06 291182 0 -2.43092e+06 295927 0 -2.44234e+06 300703 0 -2.45398e+06 305512 0 -2.46586e+06 310353 0 -2.47796e+06 315228 0 -2.4903e+06 320136 0 -2.50287e+06 325078 0 -2.51569e+06 330054 0 -2.52876e+06 335064 0 -2.54208e+06 340107 0 -2.55566e+06 345183 0 -2.5695e+06 350292 0 -2.58361e+06 355433 0 -2.59799e+06 360606 0 -2.61265e+06 365808 0 