<?xml version="1.0"?> 
<VTKFile type="StructuredGrid" version="0.1"> 
<StructuredGrid WholeExtent="0 127 0 127 0 0"> 
<Piece Extent="0 127 0 127 0 0"> 
<PointData>
<DataArray type="Float32" Name="|E|" format="ascii" NumberOfComponents="3"> 
-2.08101e+06 166866 0 -2.08441e+06 171961 0 -2.0879e+06 177079 0 -2.0915e+06 182220 0 -2.09519e+06 187385 0 -2.09899e+06 192574 0 -2.10289e+06 197789 0 -2.10689e+06 203031 0 -2.111e+06 208299 0 -2.11521e+06 213596 0 -2.11952e+06 218922 0 -2.12394e+06 224278 0 -2.12846e+06 229665 0 -2.13308e+06 235083 0 -2.13782e+06 240534 0 -2.14265e+06 246018 0 -2.1476e+06 251538 0 -2.15265e+06 257092 0 -2.15781e+06 262684 0 -2.16308e+06 268313 0 -2.16845e+06 273981 0 -2.17394e+06 279688 0 -2.17953e+06 285437 0 -2.18524e+06 291228 0 -2.19105e+06 297062 0 -2.19698e+06 302940 0 -2.20302e+06 308865 0 -2.20918e+06 314836 0 -2.21544e+06 320856 0 -2.22183e+06 326925 0 -2.22832e+06 333045 0 -2.23494e+06 339218 0 -2.24167e+06 345444 0 -2.24852e+06 351726 0 -2.25549e+06 358064 0 -2.26258e+06 364461 0 -2.26979e+06 370918 0 -2.27712e+06 377436 0 -2.28458e+06 384018 0 -2.29216e+06 390664 0 -2.29986e+06 397378 0 -2.30769e+06 404160 0 -2.31565e+06 411013 0 -2.32374e+06 417938 0 -2.33196e+06 424939 0 -2.34031e+06 432015 0 -2.3488e+06 439171 0 -2.35742e+06 446408 0 -2.36618e+06 453728 0 -2.37508e+06 461134 0 -2.38411e+06 468629 0 -2.39329e+06 476215 0 -2.40262e+06 483894 0 -2.41209e+06 491669 0 -2.42171e+06 499544 0 -2.43149e+06 507521 0 -2.44141e+06 515604 0 -2.4515e+06 523795 0 -2.46174e+06 532099 0 -2.47215e+06 540517 0 -2.48272e+06 549056 0 -2.49346e+06 557717 0 -2.50438e+06 566505 0 -2.51547e+06 575425 0 -2.52674e+06 584481 0 -2.5382e+06 593677 0 -2.54985e+06 603018 0 -2.56169e+06 612510 0 -2.57374e+06 622158 0 -2.58599e+06 631967 0 -2.59845e+06 641943 0 -2.61113e+06 652093 0 -2.62404e+06 662424 0 -2.63718e+06 672942 0 -2.65056e+06 683655 0 -2.66419e+06 694571 0 -2.67809e+06 705699 0 -2.69225e+06 717047 0 -2.70669e+06 728625 0 -2.72143e+06 740444 0 -2.73647e+06 752514 0 -2.75183e+06 764847 0 -2.76753e+06 777456 0 -2.78357e+06 790355 0 -2.79999e+06 803558 0 -2.8168e+06 817081 0 -2.83401e+06 830941 0 -2.85166e+06 845157 0 -2.86977e+06 859750 0 -2.88837e+06 874740 0 -2.90749e+06 890153 0 -2.92716e+06 906014 0 -2.94742e+06 922353 0 -2.96832e+06 939200 0 -2.98989e+06 956592 0 -3.0122e+06 974566 0 -3.0353e+06 993165 0 -3.05925e+06 1.01244e+06 0 -3.08413e+06 1.03244e+06 0 -3.11001e+06 1.05322e+06 0 -3.137e+06 1.07486e+06 0 -3.1652e+06 1.09742e+06 0 -3.19473e+06 1.121e+06 0 -3.22572e+06 1.14568e+06 0 -3.25833e+06 1.17159e+06 0 -3.29275e+06 1.19885e+06 0 -3.32919e+06 1.22761e+06 0 -3.36789e+06 1.25804e+06 0 -3.40916e+06 1.29034e+06 0 -3.45335e+06 1.32475e+06 0 -3.50086e+06 1.36157e+06 0 -3.55222e+06 1.40111e+06 0 -3.60805e+06 1.44383e+06 0 -3.6691e+06 1.4902e+06 0 -3.73638e+06 1.54087e+06 0 -3.8111e+06 1.59683e+06 0 -3.89487e+06 1.65844e+06 0 -3.98996e+06 1.72882e+06 0 -4.09882e+06 1.80658e+06 0 -4.22689e+06 1.89822e+06 0 -4.37765e+06 2.01036e+06 0 -4.56386e+06 2.11105e+06 0 -4.8005e+06 2.36877e+06 0 -5.0996e+06 2.28965e+06 0 -5.57525e+06 3.30196e+06 0 -6.22844e+06 2.21844e+06 0 -7.72888e+06 4.47604e+06 0 -1.74373e+07 4.52581e+07 0 -2.08174e+06 170606 0 -2.08519e+06 175732 0 -2.08873e+06 180880 0 -2.09237e+06 186053 0 -2.09611e+06 191249 0 -2.09996e+06 196471 0 -2.10391e+06 201719 0 -2.10796e+06 206994 0 -2.11211e+06 212297 0 -2.11637e+06 217628 0 -2.12072e+06 222989 0 -2.12519e+06 228381 0 -2.12976e+06 233803 0 -2.13443e+06 239258 0 -2.1392e+06 244746 0 -2.14409e+06 250269 0 -2.14908e+06 255826 0 -2.15417e+06 261420 0 -2.15938e+06 267051 0 -2.16469e+06 272721 0 -2.17011e+06 278429 0 -2.17564e+06 284179 0 -2.18128e+06 289970 0 -2.18703e+06 295803 0 -2.19289e+06 301681 0 -2.19886e+06 307604 0 -2.20494e+06 313574 0 -2.21114e+06 319591 0 -2.21745e+06 325657 0 -2.22387e+06 331774 0 -2.23041e+06 337942 0 -2.23707e+06 344164 0 -2.24385e+06 350440 0 -2.25074e+06 356773 0 -2.25775e+06 363163 0 -2.26488e+06 369613 0 -2.27213e+06 376123 0 -2.2795e+06 382696 0 -2.287e+06 389334 0 -2.29462e+06 396037 0 -2.30237e+06 402809 0 -2.31024e+06 409650 0 -2.31824e+06 416564 0 -2.32637e+06 423550 0 -2.33463e+06 430613 0 -2.34303e+06 437754 0 -2.35155e+06 444975 0 -2.36021e+06 452279 0 -2.36901e+06 459668 0 -2.37795e+06 467144 0 -2.38703e+06 474710 0 -2.39625e+06 482368 0 -2.40562e+06 490122 0 -2.41513e+06 497974 0 -2.42479e+06 505927 0 -2.43461e+06 513985 0 -2.44458e+06 522150 0 -2.4547e+06 530425 0 -2.46499e+06 538815 0 -2.47544e+06 547323 0 -2.48605e+06 555953 0 -2.49684e+06 564708 0 -2.5078e+06 573593 0 -2.51894e+06 582612 0 -2.53025e+06 591771 0 -2.54176e+06 601072 0 -2.55345e+06 610523 0 -2.56534e+06 620127 0 -2.57744e+06 629891 0 -2.58974e+06 639820 0 -2.60225e+06 649921 0 -2.61498e+06 660200 0 -2.62794e+06 670664 0 -2.64114e+06 681321 0 -2.65458e+06 692178 0 -2.66827e+06 703244 0 -2.68222e+06 714528 0 -2.69645e+06 726038 0 -2.71095e+06 737786 0 -2.72576e+06 749782 0 -2.74087e+06 762038 0 -2.75631e+06 774566 0 -2.77208e+06 787379 0 -2.78821e+06 800492 0 -2.80471e+06 813921 0 -2.82161e+06 827682 0 -2.83892e+06 841794 0 -2.85668e+06 856276 0 -2.8749e+06 871150 0 -2.89361e+06 886440 0 -2.91285e+06 902171 0 -2.93266e+06 918371 0 -2.95306e+06 935072 0 -2.97411e+06 952307 0 -2.99585e+06 970114 0 -3.01834e+06 988535 0 -3.04164e+06 1.00762e+06 0 -3.0658e+06 1.02741e+06 0 -3.09091e+06 1.04797e+06 0 -3.11706e+06 1.06937e+06 0 -3.14433e+06 1.09168e+06 0 -3.17284e+06 1.11497e+06 0 -3.20271e+06 1.13936e+06 0 -3.23408e+06 1.16493e+06 0 -3.26712e+06 1.19182e+06 0 -3.30202e+06 1.22018e+06 0 -3.339e+06 1.25016e+06 0 -3.37832e+06 1.28195e+06 0 -3.42029e+06 1.31581e+06 0 -3.46527e+06 1.35198e+06 0 -3.51371e+06 1.39081e+06 0 -3.56614e+06 1.4327e+06 0 -3.62322e+06 1.47809e+06 0 -3.68576e+06 1.52773e+06 0 -3.75485e+06 1.58208e+06 0 -3.83164e+06 1.64264e+06 0 -3.91825e+06 1.71026e+06 0 -4.01646e+06 1.78606e+06 0 -4.12954e+06 1.87656e+06 0 -4.26482e+06 1.97349e+06 0 -4.41694e+06 2.10552e+06 0 -4.6322e+06 2.25056e+06 0 -4.84276e+06 2.42222e+06 0 -5.25173e+06 2.80237e+06 0 -5.64333e+06 2.85007e+06 0 -6.56804e+06 4.2969e+06 0 -8.48979e+06 6.20174e+06 0 -1.10568e+06 9.86131e+06 0 -2.0825e+06 174380 0 -2.08599e+06 179536 0 -2.08958e+06 184716 0 -2.09327e+06 189920 0 -2.09706e+06 195149 0 -2.10095e+06 200403 0 -2.10495e+06 205684 0 -2.10904e+06 210993 0 -2.11324e+06 216330 0 -2.11754e+06 221696 0 -2.12195e+06 227092 0 -2.12646e+06 232519 0 -2.13107e+06 237979 0 -2.13579e+06 243470 0 -2.14061e+06 248996 0 -2.14554e+06 254557 0 -2.15057e+06 260153 0 -2.15572e+06 265786 0 -2.16096e+06 271457 0 -2.16632e+06 277167 0 -2.17178e+06 282917 0 -2.17736e+06 288708 0 -2.18304e+06 294542 0 -2.18883e+06 300419 0 -2.19473e+06 306341 0 -2.20075e+06 312308 0 -2.20688e+06 318323 0 -2.21312e+06 324387 0 -2.21947e+06 330500 0 -2.22594e+06 336665 0 -2.23252e+06 342882 0 -2.23922e+06 349153 0 -2.24603e+06 355480 0 -2.25297e+06 361864 0 -2.26002e+06 368307 0 -2.26719e+06 374809 0 -2.27449e+06 381374 0 -2.2819e+06 388003 0 -2.28944e+06 394696 0 -2.2971e+06 401457 0 -2.30489e+06 408288 0 -2.3128e+06 415189 0 -2.32084e+06 422163 0 -2.32901e+06 429212 0 -2.33731e+06 436338 0 -2.34575e+06 443544 0 -2.35431e+06 450831 0 -2.36302e+06 458202 0 -2.37186e+06 465660 0 -2.38083e+06 473207 0 -2.38995e+06 480845 0 -2.39922e+06 488577 0 -2.40862e+06 496407 0 -2.41818e+06 504336 0 -2.42788e+06 512369 0 -2.43774e+06 520507 0 -2.44775e+06 528756 0 -2.45791e+06 537117 0 -2.46824e+06 545595 0 -2.47873e+06 554193 0 -2.48939e+06 562915 0 -2.50022e+06 571766 0 -2.51122e+06 580749 0 -2.5224e+06 589870 0 -2.53377e+06 599132 0 -2.54532e+06 608541 0 -2.55706e+06 618102 0 -2.569e+06 627821 0 -2.58114e+06 637703 0 -2.59349e+06 647755 0 -2.60605e+06 657983 0 -2.61883e+06 668393 0 -2.63185e+06 678994 0 -2.6451e+06 689792 0 -2.65859e+06 700797 0 -2.67234e+06 712016 0 -2.68635e+06 723460 0 -2.70064e+06 735137 0 -2.71521e+06 747059 0 -2.73008e+06 759237 0 -2.74527e+06 771684 0 -2.76077e+06 784411 0 -2.77663e+06 797435 0 -2.79284e+06 810769 0 -2.80943e+06 824430 0 -2.82641e+06 838437 0 -2.84382e+06 852808 0 -2.86168e+06 867565 0 -2.88001e+06 882731 0 -2.89884e+06 898330 0 -2.9182e+06 914391 0 -2.93814e+06 930943 0 -2.95869e+06 948020 0 -2.97989e+06 965658 0 -3.0018e+06 983898 0 -3.02447e+06 1.00279e+06 0 -3.04795e+06 1.02237e+06 0 -3.07233e+06 1.04271e+06 0 -3.09768e+06 1.06386e+06 0 -3.12408e+06 1.08591e+06 0 -3.15163e+06 1.10892e+06 0 -3.18045e+06 1.13299e+06 0 -3.21066e+06 1.15822e+06 0 -3.24242e+06 1.18473e+06 0 -3.27588e+06 1.21267e+06 0 -3.31126e+06 1.24218e+06 0 -3.34877e+06 1.27346e+06 0 -3.3887e+06 1.30673e+06 0 -3.43135e+06 1.34225e+06 0 -3.47713e+06 1.38032e+06 0 -3.52647e+06 1.42134e+06 0 -3.57997e+06 1.46571e+06 0 -3.63827e+06 1.51416e+06 0 -3.70233e+06 1.56715e+06 0 -3.77307e+06 1.62585e+06 0 -3.85211e+06 1.69164e+06 0 -3.94136e+06 1.76444e+06 0 -4.04202e+06 1.85161e+06 0 -4.16235e+06 1.94504e+06 0 -4.29464e+06 2.06738e+06 0 -4.47293e+06 2.20808e+06 0 -4.66313e+06 2.36795e+06 0 -4.94189e+06 2.67619e+06 0 -5.31912e+06 2.84846e+06 0 -5.74304e+06 3.69909e+06 0 -6.93977e+06 4.64794e+06 0 -5.95257e+06 8.34388e+06 0 -598470 6.7533e+06 0 -2.08327e+06 178187 0 -2.08681e+06 183374 0 -2.09045e+06 188585 0 -2.09418e+06 193821 0 -2.09802e+06 199082 0 -2.10196e+06 204370 0 -2.106e+06 209685 0 -2.11015e+06 215027 0 -2.11439e+06 220399 0 -2.11874e+06 225800 0 -2.12319e+06 231231 0 -2.12775e+06 236695 0 -2.13241e+06 242190 0 -2.13717e+06 247719 0 -2.14204e+06 253283 0 -2.14701e+06 258882 0 -2.15209e+06 264517 0 -2.15727e+06 270190 0 -2.16257e+06 275901 0 -2.16797e+06 281652 0 -2.17347e+06 287443 0 -2.17909e+06 293277 0 -2.18482e+06 299153 0 -2.19065e+06 305074 0 -2.1966e+06 311040 0 -2.20266e+06 317053 0 -2.20882e+06 323114 0 -2.21511e+06 329224 0 -2.2215e+06 335385 0 -2.22801e+06 341598 0 -2.23464e+06 347864 0 -2.24138e+06 354186 0 -2.24824e+06 360563 0 -2.25521e+06 366999 0 -2.2623e+06 373494 0 -2.26952e+06 380051 0 -2.27685e+06 386671 0 -2.28431e+06 393355 0 -2.29189e+06 400106 0 -2.29959e+06 406925 0 -2.30742e+06 413814 0 -2.31537e+06 420775 0 -2.32345e+06 427811 0 -2.33166e+06 434923 0 -2.34e+06 442113 0 -2.34848e+06 449384 0 -2.35709e+06 456738 0 -2.36583e+06 464178 0 -2.37471e+06 471706 0 -2.38373e+06 479324 0 -2.39289e+06 487035 0 -2.40219e+06 494842 0 -2.41163e+06 502748 0 -2.42123e+06 510756 0 -2.43097e+06 518869 0 -2.44087e+06 527090 0 -2.45092e+06 535423 0 -2.46113e+06 543871 0 -2.4715e+06 552438 0 -2.48203e+06 561128 0 -2.49273e+06 569944 0 -2.5036e+06 578892 0 -2.51465e+06 587975 0 -2.52587e+06 597198 0 -2.53728e+06 606567 0 -2.54888e+06 616085 0 -2.56066e+06 625759 0 -2.57265e+06 635595 0 -2.58484e+06 645597 0 -2.59723e+06 655774 0 -2.60985e+06 666131 0 -2.62268e+06 676676 0 -2.63575e+06 687416 0 -2.64905e+06 698359 0 -2.6626e+06 709514 0 -2.67641e+06 720890 0 -2.69048e+06 732497 0 -2.70483e+06 744345 0 -2.71946e+06 756446 0 -2.7344e+06 768811 0 -2.74965e+06 781453 0 -2.76524e+06 794386 0 -2.78116e+06 807626 0 -2.79745e+06 821187 0 -2.81413e+06 835089 0 -2.83121e+06 849349 0 -2.84871e+06 863988 0 -2.86667e+06 879029 0 -2.8851e+06 894496 0 -2.90405e+06 910416 0 -2.92353e+06 926818 0 -2.9436e+06 943736 0 -2.96429e+06 961204 0 -2.98565e+06 979261 0 -3.00772e+06 997953 0 -3.03057e+06 1.01733e+06 0 -3.05425e+06 1.03744e+06 0 -3.07884e+06 1.05835e+06 0 -3.10441e+06 1.08012e+06 0 -3.13106e+06 1.10284e+06 0 -3.15889e+06 1.12659e+06 0 -3.18802e+06 1.15148e+06 0 -3.21857e+06 1.17761e+06 0 -3.2507e+06 1.20512e+06 0 -3.28458e+06 1.23416e+06 0 -3.32042e+06 1.26491e+06 0 -3.35847e+06 1.29758e+06 0 -3.39899e+06 1.33242e+06 0 -3.44232e+06 1.36971e+06 0 -3.48886e+06 1.40984e+06 0 -3.53911e+06 1.45319e+06 0 -3.59362e+06 1.50038e+06 0 -3.65316e+06 1.55199e+06 0 -3.7186e+06 1.6088e+06 0 -3.791e+06 1.67254e+06 0 -3.8724e+06 1.74276e+06 0 -3.96305e+06 1.82545e+06 0 -4.06947e+06 1.91693e+06 0 -4.18824e+06 2.02773e+06 0 -4.33434e+06 2.16539e+06 0 -4.50839e+06 2.31111e+06 0 -4.71106e+06 2.56799e+06 0 -5.02392e+06 2.78706e+06 0 -5.32194e+06 3.32249e+06 0 -5.95267e+06 4.07838e+06 0 -6.26091e+06 5.89734e+06 0 -3.8509e+06 8.407e+06 0 -1.23582e+06 6.97885e+06 0 -2.08407e+06 182028 0 -2.08765e+06 187246 0 -2.09134e+06 192489 0 -2.09512e+06 197757 0 -2.09901e+06 203051 0 -2.10299e+06 208372 0 -2.10708e+06 213720 0 -2.11127e+06 219097 0 -2.11556e+06 224503 0 -2.11996e+06 229939 0 -2.12445e+06 235407 0 -2.12905e+06 240906 0 -2.13376e+06 246439 0 -2.13857e+06 252005 0 -2.14348e+06 257607 0 -2.1485e+06 263244 0 -2.15362e+06 268919 0 -2.15885e+06 274632 0 -2.16419e+06 280384 0 -2.16963e+06 286176 0 -2.17518e+06 292009 0 -2.18084e+06 297885 0 -2.18661e+06 303805 0 -2.19249e+06 309770 0 -2.19848e+06 315781 0 -2.20458e+06 321839 0 -2.21079e+06 327946 0 -2.21711e+06 334103 0 -2.22355e+06 340312 0 -2.2301e+06 346574 0 -2.23677e+06 352889 0 -2.24355e+06 359261 0 -2.25045e+06 365690 0 -2.25747e+06 372179 0 -2.2646e+06 378727 0 -2.27185e+06 385338 0 -2.27923e+06 392013 0 -2.28673e+06 398754 0 -2.29434e+06 405562 0 -2.30209e+06 412439 0 -2.30995e+06 419388 0 -2.31795e+06 426411 0 -2.32607e+06 433508 0 -2.33432e+06 440684 0 -2.3427e+06 447939 0 -2.35122e+06 455276 0 -2.35986e+06 462698 0 -2.36865e+06 470207 0 -2.37757e+06 477805 0 -2.38662e+06 485495 0 -2.39582e+06 493281 0 -2.40517e+06 501164 0 -2.41465e+06 509147 0 -2.42429e+06 517235 0 -2.43407e+06 525429 0 -2.44401e+06 533734 0 -2.4541e+06 542153 0 -2.46435e+06 550689 0 -2.47476e+06 559346 0 -2.48533e+06 568129 0 -2.49608e+06 577041 0 -2.50699e+06 586087 0 -2.51808e+06 595271 0 -2.52935e+06 604599 0 -2.5408e+06 614075 0 -2.55244e+06 623705 0 -2.56427e+06 633494 0 -2.5763e+06 643448 0 -2.58853e+06 653574 0 -2.60098e+06 663878 0 -2.61364e+06 674367 0 -2.62653e+06 685048 0 -2.63964e+06 695931 0 -2.653e+06 707022 0 -2.6666e+06 718331 0 -2.68047e+06 729868 0 -2.6946e+06 741642 0 -2.70901e+06 753666 0 -2.72371e+06 765949 0 -2.73871e+06 778506 0 -2.75403e+06 791349 0 -2.76969e+06 804494 0 -2.78569e+06 817956 0 -2.80206e+06 831752 0 -2.81882e+06 845900 0 -2.83599e+06 860421 0 -2.85358e+06 875337 0 -2.87164e+06 890672 0 -2.89018e+06 906451 0 -2.90924e+06 922703 0 -2.92885e+06 939460 0 -2.94905e+06 956757 0 -2.96987e+06 974631 0 -2.99138e+06 993126 0 -3.01361e+06 1.01229e+06 0 -3.03664e+06 1.03217e+06 0 -3.06051e+06 1.05283e+06 0 -3.08531e+06 1.07434e+06 0 -3.11111e+06 1.09676e+06 0 -3.13801e+06 1.1202e+06 0 -3.16611e+06 1.14473e+06 0 -3.19553e+06 1.17047e+06 0 -3.22641e+06 1.19755e+06 0 -3.25891e+06 1.22611e+06 0 -3.2932e+06 1.25632e+06 0 -3.3295e+06 1.28839e+06 0 -3.36806e+06 1.32254e+06 0 -3.40916e+06 1.35905e+06 0 -3.45315e+06 1.39828e+06 0 -3.50045e+06 1.44059e+06 0 -3.55154e+06 1.48652e+06 0 -3.60704e+06 1.53671e+06 0 -3.66776e+06 1.59172e+06 0 -3.73442e+06 1.6532e+06 0 -3.80877e+06 1.72112e+06 0 -3.89126e+06 1.79929e+06 0 -3.98559e+06 1.8881e+06 0 -4.09281e+06 1.9904e+06 0 -4.21637e+06 2.11966e+06 0 -4.36818e+06 2.2592e+06 0 -4.5365e+06 2.47041e+06 0 -4.76997e+06 2.70408e+06 0 -5.03797e+06 3.07851e+06 0 -5.37359e+06 3.68736e+06 0 -5.83014e+06 4.72891e+06 0 -5.0688e+06 6.75026e+06 0 -2.64069e+06 7.60841e+06 0 -1.35106e+06 6.64351e+06 0 -2.08488e+06 185903 0 -2.08852e+06 191153 0 -2.09225e+06 196427 0 -2.09608e+06 201728 0 -2.10001e+06 207055 0 -2.10405e+06 212409 0 -2.10818e+06 217791 0 -2.11242e+06 223202 0 -2.11675e+06 228643 0 -2.12119e+06 234115 0 -2.12574e+06 239618 0 -2.13038e+06 245155 0 -2.13513e+06 250724 0 -2.13998e+06 256329 0 -2.14494e+06 261969 0 -2.15e+06 267645 0 -2.15517e+06 273359 0 -2.16044e+06 279112 0 -2.16582e+06 284905 0 -2.17131e+06 290738 0 -2.1769e+06 296614 0 -2.18261e+06 302533 0 -2.18842e+06 308496 0 -2.19434e+06 314506 0 -2.20037e+06 320562 0 -2.20651e+06 326666 0 -2.21277e+06 332820 0 -2.21913e+06 339024 0 -2.22561e+06 345281 0 -2.2322e+06 351592 0 -2.23891e+06 357958 0 -2.24574e+06 364381 0 -2.25268e+06 370862 0 -2.25973e+06 377403 0 -2.26691e+06 384005 0 -2.2742e+06 390671 0 -2.28162e+06 397401 0 -2.28915e+06 404199 0 -2.29681e+06 411065 0 -2.3046e+06 418002 0 -2.3125e+06 425011 0 -2.32054e+06 432095 0 -2.3287e+06 439256 0 -2.33699e+06 446495 0 -2.34541e+06 453816 0 -2.35396e+06 461220 0 -2.36265e+06 468710 0 -2.37147e+06 476289 0 -2.38043e+06 483959 0 -2.38953e+06 491722 0 -2.39877e+06 499582 0 -2.40815e+06 507542 0 -2.41768e+06 515604 0 -2.42735e+06 523772 0 -2.43717e+06 532049 0 -2.44715e+06 540439 0 -2.45728e+06 548944 0 -2.46757e+06 557570 0 -2.47802e+06 566319 0 -2.48864e+06 575196 0 -2.49942e+06 584205 0 -2.51038e+06 593351 0 -2.52151e+06 602639 0 -2.53282e+06 612073 0 -2.54431e+06 621659 0 -2.556e+06 631401 0 -2.56787e+06 641308 0 -2.57995e+06 651383 0 -2.59223e+06 661634 0 -2.60472e+06 672068 0 -2.61743e+06 682691 0 -2.63037e+06 693513 0 -2.64354e+06 704541 0 -2.65694e+06 715783 0 -2.6706e+06 727250 0 -2.68452e+06 738951 0 -2.69871e+06 750897 0 -2.71318e+06 763100 0 -2.72794e+06 775571 0 -2.74301e+06 788325 0 -2.7584e+06 801375 0 -2.77413e+06 814737 0 -2.7902e+06 828428 0 -2.80665e+06 842465 0 -2.82349e+06 856868 0 -2.84075e+06 871659 0 -2.85844e+06 886861 0 -2.87659e+06 902499 0 -2.89524e+06 918601 0 -2.91441e+06 935198 0 -2.93414e+06 952323 0 -2.95446e+06 970013 0 -2.97543e+06 988311 0 -2.99708e+06 1.00726e+06 0 -3.01948e+06 1.02691e+06 0 -3.04267e+06 1.04733e+06 0 -3.06673e+06 1.06856e+06 0 -3.09173e+06 1.09069e+06 0 -3.11775e+06 1.1138e+06 0 -3.14489e+06 1.13798e+06 0 -3.17326e+06 1.16333e+06 0 -3.20298e+06 1.18998e+06 0 -3.23418e+06 1.21806e+06 0 -3.26703e+06 1.24774e+06 0 -3.30172e+06 1.2792e+06 0 -3.33846e+06 1.31266e+06 0 -3.37752e+06 1.34839e+06 0 -3.41917e+06 1.38671e+06 0 -3.46379e+06 1.42799e+06 0 -3.5118e+06 1.47267e+06 0 -3.56369e+06 1.52141e+06 0 -3.62017e+06 1.57471e+06 0 -3.68184e+06 1.63389e+06 0 -3.74996e+06 1.69952e+06 0 -3.8254e+06 1.77371e+06 0 -3.9099e+06 1.85881e+06 0 -4.00613e+06 1.95521e+06 0 -4.11446e+06 2.07403e+06 0 -4.24374e+06 2.20877e+06 0 -4.39145e+06 2.38703e+06 0 -4.56974e+06 2.61097e+06 0 -4.79687e+06 2.90778e+06 0 -5.03272e+06 3.38404e+06 0 -5.35164e+06 4.10407e+06 0 -5.30327e+06 5.42784e+06 0 -3.92104e+06 6.90502e+06 0 -2.03059e+06 6.78594e+06 0 -1.22993e+06 6.05027e+06 0 -2.08572e+06 189812 0 -2.0894e+06 195093 0 -2.09318e+06 200400 0 -2.09706e+06 205733 0 -2.10104e+06 211093 0 -2.10512e+06 216481 0 -2.1093e+06 221897 0 -2.11358e+06 227343 0 -2.11796e+06 232819 0 -2.12245e+06 238327 0 -2.12703e+06 243867 0 -2.13172e+06 249440 0 -2.13652e+06 255047 0 -2.14141e+06 260689 0 -2.14642e+06 266368 0 -2.15152e+06 272084 0 -2.15673e+06 277838 0 -2.16205e+06 283631 0 -2.16747e+06 289465 0 -2.173e+06 295341 0 -2.17864e+06 301259 0 -2.18439e+06 307221 0 -2.19024e+06 313228 0 -2.1962e+06 319282 0 -2.20228e+06 325384 0 -2.20846e+06 331534 0 -2.21476e+06 337735 0 -2.22117e+06 343988 0 -2.22769e+06 350293 0 -2.23432e+06 356654 0 -2.24107e+06 363070 0 -2.24793e+06 369544 0 -2.25491e+06 376077 0 -2.26201e+06 382672 0 -2.26923e+06 389328 0 -2.27656e+06 396049 0 -2.28402e+06 402836 0 -2.29159e+06 409691 0 -2.29929e+06 416616 0 -2.30711e+06 423613 0 -2.31506e+06 430683 0 -2.32314e+06 437829 0 -2.33134e+06 445053 0 -2.33967e+06 452358 0 -2.34813e+06 459745 0 -2.35672e+06 467217 0 -2.36544e+06 474776 0 -2.3743e+06 482425 0 -2.3833e+06 490167 0 -2.39244e+06 498005 0 -2.40172e+06 505941 0 -2.41114e+06 513978 0 -2.4207e+06 522120 0 -2.43042e+06 530370 0 -2.44028e+06 538730 0 -2.4503e+06 547206 0 -2.46047e+06 555800 0 -2.4708e+06 564516 0 -2.48129e+06 573358 0 -2.49195e+06 582331 0 -2.50277e+06 591439 0 -2.51377e+06 600686 0 -2.52494e+06 610079 0 -2.53629e+06 619621 0 -2.54783e+06 629318 0 -2.55955e+06 639176 0 -2.57147e+06 649201 0 -2.5836e+06 659400 0 -2.59592e+06 669779 0 -2.60846e+06 680345 0 -2.62122e+06 691107 0 -2.6342e+06 702071 0 -2.64742e+06 713247 0 -2.66088e+06 724645 0 -2.6746e+06 736273 0 -2.68857e+06 748142 0 -2.70281e+06 760264 0 -2.71734e+06 772651 0 -2.73217e+06 785315 0 -2.7473e+06 798271 0 -2.76276e+06 811534 0 -2.77855e+06 825119 0 -2.7947e+06 839045 0 -2.81123e+06 853331 0 -2.82815e+06 867997 0 -2.84549e+06 883067 0 -2.86327e+06 898564 0 -2.88152e+06 914516 0 -2.90027e+06 930952 0 -2.91955e+06 947906 0 -2.9394e+06 965413 0 -2.95985e+06 983513 0 -2.98095e+06 1.00225e+06 0 -3.00274e+06 1.02167e+06 0 -3.02529e+06 1.04184e+06 0 -3.04866e+06 1.0628e+06 0 -3.0729e+06 1.08464e+06 0 -3.0981e+06 1.10743e+06 0 -3.12433e+06 1.13125e+06 0 -3.15171e+06 1.15622e+06 0 -3.18034e+06 1.18243e+06 0 -3.21033e+06 1.21003e+06 0 -3.24185e+06 1.23917e+06 0 -3.27504e+06 1.27003e+06 0 -3.31011e+06 1.30281e+06 0 -3.34728e+06 1.33777e+06 0 -3.3868e+06 1.37519e+06 0 -3.42898e+06 1.41543e+06 0 -3.47419e+06 1.4589e+06 0 -3.52285e+06 1.5062e+06 0 -3.57552e+06 1.55783e+06 0 -3.63278e+06 1.61482e+06 0 -3.69548e+06 1.67806e+06 0 -3.76463e+06 1.74884e+06 0 -3.84117e+06 1.82974e+06 0 -3.92741e+06 1.92139e+06 0 -4.02414e+06 2.03062e+06 0 -4.13525e+06 2.15865e+06 0 -4.26432e+06 2.31578e+06 0 -4.41089e+06 2.51818e+06 0 -4.5922e+06 2.77433e+06 0 -4.78997e+06 3.14803e+06 0 -5.00154e+06 3.70252e+06 0 -5.13679e+06 4.58501e+06 0 -4.55827e+06 5.88205e+06 0 -3.05478e+06 6.62686e+06 0 -1.71834e+06 6.15526e+06 0 -1.11387e+06 5.547e+06 0 -2.08658e+06 193755 0 -2.09031e+06 199069 0 -2.09413e+06 204408 0 -2.09806e+06 209774 0 -2.10208e+06 215167 0 -2.10621e+06 220589 0 -2.11043e+06 226039 0 -2.11476e+06 231520 0 -2.11919e+06 237032 0 -2.12372e+06 242575 0 -2.12835e+06 248152 0 -2.13309e+06 253762 0 -2.13792e+06 259407 0 -2.14287e+06 265087 0 -2.14791e+06 270805 0 -2.15306e+06 276560 0 -2.15832e+06 282355 0 -2.16368e+06 288189 0 -2.16914e+06 294064 0 -2.17471e+06 299982 0 -2.1804e+06 305943 0 -2.18618e+06 311949 0 -2.19208e+06 318001 0 -2.19809e+06 324100 0 -2.2042e+06 330247 0 -2.21043e+06 336444 0 -2.21676e+06 342692 0 -2.22321e+06 348993 0 -2.22977e+06 355348 0 -2.23645e+06 361759 0 -2.24324e+06 368226 0 -2.25014e+06 374752 0 -2.25716e+06 381338 0 -2.2643e+06 387986 0 -2.27156e+06 394697 0 -2.27893e+06 401474 0 -2.28643e+06 408318 0 -2.29404e+06 415231 0 -2.30178e+06 422215 0 -2.30964e+06 429272 0 -2.31763e+06 436404 0 -2.32574e+06 443613 0 -2.33398e+06 450901 0 -2.34235e+06 458271 0 -2.35085e+06 465725 0 -2.35948e+06 473266 0 -2.36824e+06 480895 0 -2.37714e+06 488616 0 -2.38618e+06 496431 0 -2.39535e+06 504344 0 -2.40467e+06 512357 0 -2.41413e+06 520473 0 -2.42374e+06 528695 0 -2.43349e+06 537027 0 -2.44339e+06 545473 0 -2.45345e+06 554035 0 -2.46366e+06 562719 0 -2.47403e+06 571527 0 -2.48456e+06 580464 0 -2.49525e+06 589534 0 -2.50612e+06 598742 0 -2.51715e+06 608093 0 -2.52837e+06 617592 0 -2.53976e+06 627244 0 -2.55134e+06 637055 0 -2.56311e+06 647030 0 -2.57507e+06 657177 0 -2.58724e+06 667501 0 -2.59961e+06 678010 0 -2.6122e+06 688712 0 -2.625e+06 699614 0 -2.63803e+06 710724 0 -2.6513e+06 722052 0 -2.66481e+06 733608 0 -2.67858e+06 745401 0 -2.69261e+06 757443 0 -2.70691e+06 769745 0 -2.72149e+06 782320 0 -2.73638e+06 795183 0 -2.75158e+06 808346 0 -2.7671e+06 821827 0 -2.78296e+06 835643 0 -2.79919e+06 849812 0 -2.81579e+06 864354 0 -2.83279e+06 879291 0 -2.85021e+06 894648 0 -2.86808e+06 910450 0 -2.88643e+06 926727 0 -2.90528e+06 943510 0 -2.92466e+06 960834 0 -2.94462e+06 978737 0 -2.9652e+06 997262 0 -2.98643e+06 1.01646e+06 0 -3.00836e+06 1.03637e+06 0 -3.03107e+06 1.05707e+06 0 -3.05459e+06 1.07862e+06 0 -3.07901e+06 1.10108e+06 0 -3.1044e+06 1.12456e+06 0 -3.13084e+06 1.14913e+06 0 -3.15845e+06 1.17492e+06 0 -3.18732e+06 1.20205e+06 0 -3.21759e+06 1.23065e+06 0 -3.2494e+06 1.26091e+06 0 -3.28292e+06 1.29302e+06 0 -3.31835e+06 1.32721e+06 0 -3.35591e+06 1.36375e+06 0 -3.39586e+06 1.40298e+06 0 -3.43853e+06 1.44527e+06 0 -3.48427e+06 1.49114e+06 0 -3.53354e+06 1.54115e+06 0 -3.58686e+06 1.59608e+06 0 -3.64485e+06 1.6569e+06 0 -3.70839e+06 1.72464e+06 0 -3.77826e+06 1.80139e+06 0 -3.85592e+06 1.88856e+06 0 -3.94275e+06 1.98995e+06 0 -4.04021e+06 2.10968e+06 0 -4.15216e+06 2.25262e+06 0 -4.27821e+06 2.43241e+06 0 -4.42423e+06 2.65985e+06 0 -4.59106e+06 2.96438e+06 0 -4.75447e+06 3.40617e+06 0 -4.89204e+06 4.04773e+06 0 -4.72564e+06 5.02195e+06 0 -3.80817e+06 6.01348e+06 0 -2.47283e+06 6.20625e+06 0 -1.53589e+06 5.6991e+06 0 -1.04748e+06 5.18445e+06 0 -2.08746e+06 197733 0 -2.09123e+06 203079 0 -2.0951e+06 208451 0 -2.09908e+06 213849 0 -2.10315e+06 219276 0 -2.10732e+06 224732 0 -2.11159e+06 230217 0 -2.11596e+06 235733 0 -2.12044e+06 241281 0 -2.12501e+06 246860 0 -2.12969e+06 252474 0 -2.13447e+06 258121 0 -2.13935e+06 263804 0 -2.14433e+06 269524 0 -2.14942e+06 275280 0 -2.15462e+06 281076 0 -2.15991e+06 286910 0 -2.16532e+06 292786 0 -2.17083e+06 298703 0 -2.17644e+06 304663 0 -2.18216e+06 310668 0 -2.18799e+06 316718 0 -2.19393e+06 322814 0 -2.19998e+06 328958 0 -2.20614e+06 335152 0 -2.2124e+06 341396 0 -2.21878e+06 347692 0 -2.22527e+06 354042 0 -2.23187e+06 360446 0 -2.23859e+06 366907 0 -2.24542e+06 373426 0 -2.25237e+06 380004 0 -2.25943e+06 386643 0 -2.2666e+06 393346 0 -2.2739e+06 400113 0 -2.28131e+06 406946 0 -2.28885e+06 413847 0 -2.2965e+06 420819 0 -2.30428e+06 427862 0 -2.31218e+06 434980 0 -2.32021e+06 442174 0 -2.32836e+06 449447 0 -2.33664e+06 456800 0 -2.34504e+06 464236 0 -2.35358e+06 471758 0 -2.36225e+06 479368 0 -2.37105e+06 487068 0 -2.37999e+06 494861 0 -2.38906e+06 502751 0 -2.39828e+06 510739 0 -2.40763e+06 518830 0 -2.41713e+06 527026 0 -2.42677e+06 535330 0 -2.43656e+06 543746 0 -2.4465e+06 552277 0 -2.4566e+06 560928 0 -2.46685e+06 569702 0 -2.47725e+06 578604 0 -2.48782e+06 587637 0 -2.49856e+06 596806 0 -2.50946e+06 606116 0 -2.52054e+06 615572 0 -2.53179e+06 625179 0 -2.54323e+06 634943 0 -2.55485e+06 644869 0 -2.56666e+06 654964 0 -2.57867e+06 665235 0 -2.59088e+06 675687 0 -2.60329e+06 686330 0 -2.61592e+06 697169 0 -2.62878e+06 708214 0 -2.64186e+06 719474 0 -2.65517e+06 730957 0 -2.66873e+06 742675 0 -2.68255e+06 754637 0 -2.69663e+06 766855 0 -2.71099e+06 779342 0 -2.72563e+06 792111 0 -2.74058e+06 805177 0 -2.75583e+06 818554 0 -2.77142e+06 832260 0 -2.78735e+06 846312 0 -2.80365e+06 860730 0 -2.82032e+06 875537 0 -2.8374e+06 890754 0 -2.85491e+06 906408 0 -2.87287e+06 922526 0 -2.89131e+06 939139 0 -2.91025e+06 956281 0 -2.92974e+06 973989 0 -2.94981e+06 992303 0 -2.9705e+06 1.01127e+06 0 -2.99186e+06 1.03094e+06 0 -3.01393e+06 1.05137e+06 0 -3.03678e+06 1.07263e+06 0 -3.06046e+06 1.09477e+06 0 -3.08505e+06 1.1179e+06 0 -3.11062e+06 1.14209e+06 0 -3.13727e+06 1.16746e+06 0 -3.16508e+06 1.19411e+06 0 -3.19419e+06 1.22219e+06 0 -3.22471e+06 1.25187e+06 0 -3.2568e+06 1.28331e+06 0 -3.29063e+06 1.31674e+06 0 -3.32639e+06 1.35242e+06 0 -3.36431e+06 1.39065e+06 0 -3.40466e+06 1.43179e+06 0 -3.44777e+06 1.4763e+06 0 -3.49398e+06 1.52472e+06 0 -3.54376e+06 1.5777e+06 0 -3.59762e+06 1.63617e+06 0 -3.65622e+06 1.70107e+06 0 -3.72029e+06 1.77401e+06 0 -3.79076e+06 1.85672e+06 0 -3.86893e+06 1.95168e+06 0 -3.95573e+06 2.06297e+06 0 -4.05338e+06 2.19471e+06 0 -4.16319e+06 2.35553e+06 0 -4.28544e+06 2.55785e+06 0 -4.42369e+06 2.81686e+06 0 -4.56266e+06 3.17485e+06 0 -4.67808e+06 3.67569e+06 0 -4.66638e+06 4.39736e+06 0 -4.20337e+06 5.30752e+06 0 -3.17421e+06 5.90828e+06 0 -2.09584e+06 5.7993e+06 0 -1.411e+06 5.34984e+06 0 -1.011e+06 4.91382e+06 0 -2.08836e+06 201746 0 -2.09218e+06 207124 0 -2.0961e+06 212528 0 -2.10011e+06 217960 0 -2.10423e+06 223421 0 -2.10845e+06 228911 0 -2.11277e+06 234431 0 -2.11718e+06 239983 0 -2.1217e+06 245566 0 -2.12632e+06 251182 0 -2.13104e+06 256833 0 -2.13586e+06 262518 0 -2.14079e+06 268239 0 -2.14582e+06 273998 0 -2.15095e+06 279794 0 -2.15619e+06 285629 0 -2.16153e+06 291505 0 -2.16697e+06 297422 0 -2.17253e+06 303381 0 -2.17818e+06 309384 0 -2.18395e+06 315432 0 -2.18982e+06 321527 0 -2.1958e+06 327668 0 -2.20189e+06 333858 0 -2.20809e+06 340099 0 -2.2144e+06 346390 0 -2.22082e+06 352735 0 -2.22735e+06 359133 0 -2.23399e+06 365588 0 -2.24074e+06 372099 0 -2.24761e+06 378670 0 -2.2546e+06 385301 0 -2.2617e+06 391994 0 -2.26892e+06 398751 0 -2.27625e+06 405574 0 -2.2837e+06 412464 0 -2.29128e+06 419424 0 -2.29897e+06 426454 0 -2.30679e+06 433559 0 -2.31473e+06 440738 0 -2.32279e+06 447995 0 -2.33098e+06 455332 0 -2.3393e+06 462751 0 -2.34774e+06 470254 0 -2.35632e+06 477844 0 -2.36502e+06 485524 0 -2.37386e+06 493296 0 -2.38284e+06 501162 0 -2.39195e+06 509127 0 -2.4012e+06 517192 0 -2.4106e+06 525362 0 -2.42013e+06 533638 0 -2.42981e+06 542025 0 -2.43964e+06 550526 0 -2.44962e+06 559145 0 -2.45975e+06 567885 0 -2.47004e+06 576751 0 -2.48048e+06 585748 0 -2.49109e+06 594878 0 -2.50187e+06 604148 0 -2.51281e+06 613561 0 -2.52393e+06 623124 0 -2.53522e+06 632841 0 -2.5467e+06 642719 0 -2.55836e+06 652763 0 -2.57021e+06 662980 0 -2.58226e+06 673377 0 -2.59451e+06 683960 0 -2.60697e+06 694738 0 -2.61965e+06 705718 0 -2.63254e+06 716910 0 -2.64567e+06 728322 0 -2.65903e+06 739964 0 -2.67265e+06 751847 0 -2.68651e+06 763983 0 -2.70065e+06 776382 0 -2.71506e+06 789059 0 -2.72976e+06 802026 0 -2.74476e+06 815300 0 -2.76008e+06 828897 0 -2.77573e+06 842834 0 -2.79172e+06 857130 0 -2.80809e+06 871806 0 -2.82484e+06 886884 0 -2.84199e+06 902391 0 -2.85958e+06 918351 0 -2.87762e+06 934796 0 -2.89615e+06 951757 0 -2.91519e+06 969271 0 -2.93478e+06 987376 0 -2.95495e+06 1.00612e+06 0 -2.97576e+06 1.02554e+06 0 -2.99724e+06 1.04571e+06 0 -3.01944e+06 1.06668e+06 0 -3.04243e+06 1.08851e+06 0 -3.06626e+06 1.11129e+06 0 -3.09101e+06 1.13511e+06 0 -3.11675e+06 1.16005e+06 0 -3.14359e+06 1.18624e+06 0 -3.17161e+06 1.21381e+06 0 -3.20093e+06 1.2429e+06 0 -3.23169e+06 1.27369e+06 0 -3.26403e+06 1.30639e+06 0 -3.29814e+06 1.34122e+06 0 -3.33419e+06 1.37849e+06 0 -3.37244e+06 1.41851e+06 0 -3.41314e+06 1.46171e+06 0 -3.45661e+06 1.50858e+06 0 -3.50322e+06 1.55973e+06 0 -3.5534e+06 1.61594e+06 0 -3.60766e+06 1.67815e+06 0 -3.66665e+06 1.74762e+06 0 -3.73102e+06 1.82604e+06 0 -3.80174e+06 1.91542e+06 0 -3.87969e+06 2.01899e+06 0 -3.96595e+06 2.14081e+06 0 -4.06202e+06 2.28654e+06 0 -4.16746e+06 2.46675e+06 0 -4.28305e+06 2.6929e+06 0 -4.40273e+06 2.99032e+06 0 -4.5038e+06 3.39562e+06 0 -4.53849e+06 3.95207e+06 0 -4.33425e+06 4.69345e+06 0 -3.66818e+06 5.41495e+06 0 -2.68746e+06 5.68484e+06 0 -1.84568e+06 5.45064e+06 0 -1.31666e+06 5.06464e+06 0 -985754 4.69137e+06 0 -2.08928e+06 205793 0 -2.09314e+06 211204 0 -2.09711e+06 216641