<?xml version="1.0"?> 
<VTKFile type="StructuredGrid" version="0.1"> 
<StructuredGrid WholeExtent="0 127 0 127 0 0"> 
<Piece Extent="0 127 0 127 0 0"> 
<PointData>
<DataArray type="Float32" Name="|E|" format="ascii" NumberOfComponents="3"> 
-2.10803e+06 0 0 -2.10812e+06 2963.94 0 -2.10838e+06 5928.51 0 -2.10881e+06 8894.35 0 -2.10941e+06 11862.1 0 -2.11018e+06 14832.4 0 -2.11112e+06 17805.9 0 -2.11224e+06 20783.2 0 -2.11353e+06 23765 0 -2.11499e+06 26752 0 -2.11662e+06 29744.7 0 -2.11843e+06 32743.8 0 -2.1204e+06 35750.1 0 -2.12256e+06 38764.1 0 -2.12489e+06 41786.6 0 -2.12739e+06 44818.1 0 -2.13007e+06 47859.5 0 -2.13292e+06 50911.4 0 -2.13595e+06 53974.5 0 -2.13916e+06 57049.6 0 -2.14255e+06 60137.2 0 -2.14611e+06 63238.3 0 -2.14986e+06 66353.4 0 -2.15378e+06 69483.4 0 -2.15788e+06 72628.9 0 -2.16217e+06 75790.9 0 -2.16664e+06 78970 0 -2.17129e+06 82167.1 0 -2.17613e+06 85382.9 0 -2.18115e+06 88618.3 0 -2.18636e+06 91874.1 0 -2.19176e+06 95151.2 0 -2.19735e+06 98450.4 0 -2.20313e+06 101773 0 -2.2091e+06 105119 0 -2.21526e+06 108489 0 -2.22162e+06 111886 0 -2.22818e+06 115309 0 -2.23493e+06 118759 0 -2.24188e+06 122239 0 -2.24903e+06 125747 0 -2.25639e+06 129286 0 -2.26395e+06 132857 0 -2.27171e+06 136460 0 -2.27968e+06 140096 0 -2.28787e+06 143768 0 -2.29626e+06 147474 0 -2.30487e+06 151218 0 -2.3137e+06 154999 0 -2.32275e+06 158818 0 -2.33201e+06 162678 0 -2.3415e+06 166579 0 -2.35122e+06 170521 0 -2.36116e+06 174507 0 -2.37134e+06 178537 0 -2.38175e+06 182612 0 -2.3924e+06 186733 0 -2.40329e+06 190901 0 -2.41442e+06 195118 0 -2.42579e+06 199384 0 -2.43742e+06 203700 0 -2.4493e+06 208066 0 -2.46144e+06 212485 0 -2.47384e+06 216956 0 -2.4865e+06 221480 0 -2.49943e+06 226057 0 -2.51264e+06 230689 0 -2.52612e+06 235375 0 -2.53988e+06 240116 0 -2.55393e+06 244910 0 -2.56827e+06 249760 0 -2.5829e+06 254662 0 -2.59784e+06 259618 0 -2.61308e+06 264627 0 -2.62863e+06 269685 0 -2.6445e+06 274793 0 -2.6607e+06 279948 0 -2.67722e+06 285147 0 -2.69409e+06 290387 0 -2.71129e+06 295665 0 -2.72884e+06 300976 0 -2.74676e+06 306316 0 -2.76503e+06 311677 0 -2.78368e+06 317053 0 -2.80271e+06 322437 0 -2.82213e+06 327818 0 -2.84194e+06 333188 0 -2.86217e+06 338533 0 -2.8828e+06 343840 0 -2.90386e+06 349093 0 -2.92536e+06 354276 0 -2.9473e+06 359369 0 -2.96969e+06 364348 0 -2.99254e+06 369190 0 -3.01586e+06 373866 0 -3.03966e+06 378345 0 -3.06395e+06 382590 0 -3.08874e+06 386563 0 -3.11402e+06 390220 0 -3.13981e+06 393511 0 -3.16611e+06 396381 0 -3.19292e+06 398770 0 -3.22023e+06 400612 0 -3.24804e+06 401831 0 -3.27633e+06 402348 0 -3.30509e+06 402073 0 -3.33429e+06 400911 0 -3.36389e+06 398756 0 -3.39384e+06 395497 0 -3.42409e+06 391014 0 -3.45456e+06 385184 0 -3.48515e+06 377875 0 -3.51574e+06 368955 0 -3.5462e+06 358293 0 -3.57636e+06 345758 0 -3.60603e+06 331233 0 -3.63498e+06 314613 0 -3.66296e+06 295814 0 -3.68969e+06 274784 0 -3.71487e+06 251507 0 -3.73817e+06 226013 0 -3.75926e+06 198385 0 -3.77781e+06 168767 0 -3.7935e+06 137362 0 -3.80604e+06 104437 0 -3.81519e+06 70314.3 0 -3.82075e+06 35363.6 0 -3.82262e+06 -11.7311 0 -2.1078e+06 0 0 -2.10788e+06 2956.07 0 -2.10813e+06 5912.77 0 -2.10856e+06 8870.72 0 -2.10915e+06 11830.5 0 -2.10991e+06 14792.9 0 -2.11084e+06 17758.3 0 -2.11194e+06 20727.6 0 -2.11321e+06 23701.2 0 -2.11465e+06 26679.9 0 -2.11625e+06 29664.2 0 -2.11803e+06 32654.9 0 -2.11998e+06 35652.5 0 -2.12211e+06 38657.8 0 -2.1244e+06 41671.4 0 -2.12687e+06 44694 0 -2.1295e+06 47726.1 0 -2.13232e+06 50768.6 0 -2.1353e+06 53822.1 0 -2.13846e+06 56887.3 0 -2.1418e+06 59965 0 -2.14531e+06 63055.7 0 -2.149e+06 66160.3 0 -2.15286e+06 69279.5 0 -2.1569e+06 72414 0 -2.16113e+06 75564.5 0 -2.16553e+06 78732 0 -2.17011e+06 81917 0 -2.17488e+06 85120.5 0 -2.17982e+06 88343.1 0 -2.18495e+06 91585.8 0 -2.19027e+06 94849.4 0 -2.19577e+06 98134.6 0 -2.20146e+06 101442 0 -2.20734e+06 104774 0 -2.21341e+06 108129 0 -2.21967e+06 111510 0 -2.22613e+06 114917 0 -2.23277e+06 118350 0 -2.23962e+06 121812 0 -2.24666e+06 125303 0 -2.2539e+06 128824 0 -2.26134e+06 132375 0 -2.26898e+06 135958 0 -2.27683e+06 139574 0 -2.28488e+06 143225 0 -2.29314e+06 146909 0 -2.30162e+06 150630 0 -2.3103e+06 154388 0 -2.3192e+06 158184 0 -2.32832e+06 162019 0 -2.33766e+06 165894 0 -2.34722e+06 169811 0 -2.357e+06 173769 0 -2.36701e+06 177771 0 -2.37725e+06 181817 0 -2.38772e+06 185909 0 -2.39843e+06 190047 0 -2.40937e+06 194232 0 -2.42056e+06 198466 0 -2.43199e+06 202749 0 -2.44367e+06 207082 0 -2.4556e+06 211466 0 -2.46779e+06 215901 0 -2.48023e+06 220389 0 -2.49294e+06 224930 0 -2.50592e+06 229525 0 -2.51916e+06 234173 0 -2.53268e+06 238875 0 -2.54648e+06 243631 0 -2.56057e+06 248441 0 -2.57494e+06 253304 0 -2.58961e+06 258221 0 -2.60458e+06 263190 0 -2.61985e+06 268211 0 -2.63543e+06 273281 0 -2.65133e+06 278398 0 -2.66755e+06 283562 0 -2.6841e+06 288769 0 -2.70098e+06 294015 0 -2.7182e+06 299297 0 -2.73577e+06 304610 0 -2.7537e+06 309949 0 -2.77199e+06 315308 0 -2.79065e+06 320680 0 -2.80969e+06 326055 0 -2.82912e+06 331426 0 -2.84895e+06 336781 0 -2.86917e+06 342108 0 -2.88981e+06 347393 0 -2.91088e+06 352620 0 -2.93237e+06 357772 0 -2.95431e+06 362829 0 -2.9767e+06 367767 0 -2.99955e+06 372561 0 -3.02287e+06 377183 0 -3.04666e+06 381600 0 -3.07094e+06 385777 0 -3.09572e+06 389673 0 -3.12099e+06 393245 0 -3.14677e+06 396441 0 -3.17305e+06 399208 0 -3.19984e+06 401483 0 -3.22713e+06 403199 0 -3.25491e+06 404281 0 -3.28318e+06 404649 0 -3.3119e+06 404213 0 -3.34106e+06 402875 0 -3.37061e+06 400532 0 -3.40051e+06 397071 0 -3.4307e+06 392374 0 -3.46109e+06 386314 0 -3.49159e+06 378764 0 -3.52209e+06 369590 0 -3.55243e+06 358663 0 -3.58246e+06 345855 0 -3.61198e+06 331049 0 -3.64076e+06 314145 0 -3.66855e+06 295063 0 -3.69507e+06 273753 0 -3.72001e+06 250206 0 -3.74306e+06 224456 0 -3.76387e+06 196591 0 -3.78213e+06 166761 0 -3.79752e+06 135172 0 -3.80976e+06 102095 0 -3.8186e+06 67857.8 0 -3.82387e+06 32812.3 0 -2.10756e+06 0 0 -2.10764e+06 2948.01 0 -2.10789e+06 5896.63 0 -2.10831e+06 8846.48 0 -2.10889e+06 11798.2 0 -2.10964e+06 14752.3 0 -2.11055e+06 17709.6 0 -2.11164e+06 20670.5 0 -2.11289e+06 23635.8 0 -2.1143e+06 26606 0 -2.11589e+06 29581.8 0 -2.11764e+06 32563.8 0 -2.11956e+06 35552.6 0 -2.12165e+06 38549 0 -2.12391e+06 41553.5 0 -2.12634e+06 44566.8 0 -2.12894e+06 47589.5 0 -2.13171e+06 50622.4 0 -2.13465e+06 53666.2 0 -2.13777e+06 56721.4 0 -2.14105e+06 59788.8 0 -2.14451e+06 62869 0 -2.14814e+06 65962.9 0 -2.15195e+06 69071.1 0 -2.15593e+06 72194.3 0 -2.16009e+06 75333.3 0 -2.16442e+06 78488.9 0 -2.16894e+06 81661.7 0 -2.17363e+06 84852.6 0 -2.1785e+06 88062.4 0 -2.18355e+06 91291.8 0 -2.18879e+06 94541.7 0 -2.19421e+06 97812.9 0 -2.19981e+06 101106 0 -2.2056e+06 104422 0 -2.21157e+06 107763 0 -2.21774e+06 111127 0 -2.22409e+06 114518 0 -2.23063e+06 117935 0 -2.23737e+06 121379 0 -2.2443e+06 124852 0 -2.25142e+06 128354 0 -2.25875e+06 131886 0 -2.26627e+06 135449 0 -2.27399e+06 139045 0 -2.28192e+06 142674 0 -2.29005e+06 146337 0 -2.29839e+06 150035 0 -2.30693e+06 153770 0 -2.31569e+06 157542 0 -2.32466e+06 161352 0 -2.33384e+06 165202 0 -2.34325e+06 169092 0 -2.35287e+06 173023 0 -2.36271e+06 176997 0 -2.37278e+06 181015 0 -2.38308e+06 185077 0 -2.39361e+06 189184 0 -2.40437e+06 193338 0 -2.41537e+06 197540 0 -2.42661e+06 201790 0 -2.43809e+06 206089 0 -2.44982e+06 210438 0 -2.4618e+06 214839 0 -2.47403e+06 219290 0 -2.48651e+06 223794 0 -2.49926e+06 228351 0 -2.51228e+06 232961 0 -2.52556e+06 237624 0 -2.53912e+06 242341 0 -2.55295e+06 247112 0 -2.56707e+06 251936 0 -2.58147e+06 256813 0 -2.59617e+06 261742 0 -2.61116e+06 266723 0 -2.62646e+06 271754 0 -2.64206e+06 276834 0 -2.65798e+06 281961 0 -2.67422e+06 287132 0 -2.69078e+06 292344 0 -2.70768e+06 297595 0 -2.72492e+06 302879 0 -2.7425e+06 308193 0 -2.76044e+06 313531 0 -2.77874e+06 318886 0 -2.7974e+06 324252 0 -2.81645e+06 329618 0 -2.83588e+06 334977 0 -2.85571e+06 340317 0 -2.87593e+06 345625 0 -2.89657e+06 350887 0 -2.91763e+06 356087 0 -2.93913e+06 361208 0 -2.96106e+06 366228 0 -2.98344e+06 371124 0 -3.00628e+06 375871 0 -3.02958e+06 380439 0 -3.05336e+06 384796 0 -3.07763e+06 388906 0 -3.10239e+06 392728 0 -3.12764e+06 396217 0 -3.1534e+06 399323 0 -3.17966e+06 401989 0 -3.20642e+06 404155 0 -3.23368e+06 405752 0 -3.26143e+06 406705 0 -3.28966e+06 406932 0 -3.31834e+06 406344 0 -3.34745e+06 404843 0 -3.37695e+06 402325 0 -3.4068e+06 398677 0 -3.43691e+06 393781 0 -3.46723e+06 387512 0 -3.49764e+06 379741 0 -3.52804e+06 370337 0 -3.55827e+06 359170 0 -3.58817e+06 346117 0 -3.61754e+06 331061 0 -3.64616e+06 313905 0 -3.67377e+06 294572 0 -3.7001e+06 273016 0 -3.72483e+06 249232 0 -3.74764e+06 223257 0 -3.76822e+06 195186 0 -3.78623e+06 165169 0 -3.80136e+06 133418 0 -3.81334e+06 100210 0 -3.82192e+06 65842.1 0 -2.10732e+06 0 0 -2.1074e+06 2939.74 0 -2.10765e+06 5880.09 0 -2.10806e+06 8821.64 0 -2.10863e+06 11765 0 -2.10937e+06 14710.8 0 -2.11027e+06 17659.6 0 -2.11134e+06 20612 0 -2.11257e+06 23568.7 0 -2.11396e+06 26530.3 0 -2.11553e+06 29497.3 0 -2.11725e+06 32470.4 0 -2.11914e+06 35450.3 0 -2.1212e+06 38437.5 0 -2.12343e+06 41432.7 0 -2.12582e+06 44436.6 0 -2.12838e+06 47449.8 0 -2.13111e+06 50472.9 0 -2.13401e+06 53506.6 0 -2.13707e+06 56551.6 0 -2.14031e+06 59608.6 0 -2.14371e+06 62678.2 0 -2.14729e+06 65761.2 0 -2.15104e+06 68858.2 0 -2.15496e+06 71970 0 -2.15905e+06 75097.3 0 -2.16332e+06 78240.8 0 -2.16777e+06 81401.3 0 -2.17239e+06 84579.5 0 -2.17719e+06 87776.2 0 -2.18216e+06 90992.2 0 -2.18731e+06 94228.2 0 -2.19265e+06 97485.2 0 -2.19816e+06 100764 0 -2.20386e+06 104065 0 -2.20974e+06 107390 0 -2.21581e+06 110738 0 -2.22207e+06 114112 0 -2.22851e+06 117512 0 -2.23514e+06 120939 0 -2.24196e+06 124393 0 -2.24897e+06 127877 0 -2.25618e+06 131390 0 -2.26358e+06 134933 0 -2.27118e+06 138508 0 -2.27898e+06 142116 0 -2.28698e+06 145757 0 -2.29518e+06 149433 0 -2.30359e+06 153144 0 -2.3122e+06 156892 0 -2.32103e+06 160678 0 -2.33006e+06 164502 0 -2.33931e+06 168365 0 -2.34877e+06 172270 0 -2.35845e+06 176216 0 -2.36836e+06 180204 0 -2.37848e+06 184237 0 -2.38884e+06 188314 0 -2.39942e+06 192437 0 -2.41023e+06 196606 0 -2.42128e+06 200823 0 -2.43256e+06 205088 0 -2.44409e+06 209403 0 -2.45586e+06 213767 0 -2.46788e+06 218183 0 -2.48015e+06 222650 0 -2.49268e+06 227169 0 -2.50546e+06 231740 0 -2.51851e+06 236365 0 -2.53182e+06 241042 0 -2.54541e+06 245773 0 -2.55927e+06 250557 0 -2.57341e+06 255393 0 -2.58784e+06 260282 0 -2.60256e+06 265223 0 -2.61758e+06 270214 0 -2.63289e+06 275255 0 -2.64851e+06 280344 0 -2.66445e+06 285478 0 -2.6807e+06 290655 0 -2.69727e+06 295872 0 -2.71418e+06 301126 0 -2.73143e+06 306412 0 -2.74902e+06 311725 0 -2.76696e+06 317060 0 -2.78526e+06 322410 0 -2.80393e+06 327768 0 -2.82297e+06 333125 0 -2.8424e+06 338470 0 -2.86222e+06 343794 0 -2.88244e+06 349082 0 -2.90308e+06 354321 0 -2.92413e+06 359493 0 -2.94561e+06 364582 0 -2.96752e+06 369565 0 -2.98989e+06 374420 0 -3.01271e+06 379120 0 -3.036e+06 383635 0 -3.05976e+06 387934 0 -3.08401e+06 391979 0 -3.10874e+06 395729 0 -3.13397e+06 399138 0 -3.15969e+06 402156 0 -3.18592e+06 404727 0 -3.21265e+06 406789 0 -3.23988e+06 408273 0 -3.26759e+06 409103 0 -3.29577e+06 409198 0 -3.32441e+06 408468 0 -3.35346e+06 406815 0 -3.38291e+06 404135 0 -3.41268e+06 400315 0 -3.44273e+06 395237 0 -3.47297e+06 388776 0 -3.50329e+06 380804 0 -3.53359e+06 371192 0 -3.56371e+06 359812 0 -3.59348e+06 346539 0 -3.62272e+06 331261 0 -3.65119e+06 313882 0 -3.67864e+06 294330 0 -3.70478e+06 272561 0 -3.72932e+06 248572 0 -3.75194e+06 222405 0 -3.77231e+06 194159 0 -3.7901e+06 163984 0 -3.80501e+06 132104 0 -3.81678e+06 98751.2 0 -2.10708e+06 0 0 -2.10716e+06 2931.27 0 -2.1074e+06 5863.14 0 -2.1078e+06 8796.18 0 -2.10837e+06 11731 0 -2.1091e+06 14668.2 0 -2.10998e+06 17608.4 0 -2.11104e+06 20552.1 0 -2.11225e+06 23500 0 -2.11362e+06 26452.7 0 -2.11516e+06 29410.8 0 -2.11686e+06 32374.9 0 -2.11873e+06 35345.5 0 -2.12075e+06 38323.4 0 -2.12294e+06 41309.2 0 -2.1253e+06 44303.4 0 -2.12782e+06 47306.8 0 -2.13051e+06 50320 0 -2.13336e+06 53343.5 0 -2.13638e+06 56378.1 0 -2.13957e+06 59424.5 0 -2.14292e+06 62483.3 0 -2.14644e+06 65555.2 0 -2.15013e+06 68640.9 0 -2.154e+06 71741.1 0 -2.15803e+06 74856.4 0 -2.16223e+06 77987.7 0 -2.16661e+06 81135.7 0 -2.17115e+06 84301 0 -2.17588e+06 87484.5 0 -2.18078e+06 90686.9 0 -2.18585e+06 93909 0 -2.1911e+06 97151.5 0 -2.19653e+06 100415 0 -2.20214e+06 103701 0 -2.20793e+06 107010 0 -2.2139e+06 110343 0 -2.22006e+06 113700 0 -2.2264e+06 117083 0 -2.23292e+06 120492 0 -2.23963e+06 123928 0 -2.24654e+06 127392 0 -2.25363e+06 130886 0 -2.26091e+06 134410 0 -2.26839e+06 137964 0 -2.27606e+06 141550 0 -2.28393e+06 145170 0 -2.292e+06 148823 0 -2.30027e+06 152511 0 -2.30875e+06 156235 0 -2.31742e+06 159995 0 -2.32631e+06 163794 0 -2.33541e+06 167631 0 -2.34471e+06 171508 0 -2.35423e+06 175426 0 -2.36397e+06 179386 0 -2.37393e+06 183389 0 -2.3841e+06 187435 0 -2.39451e+06 191527 0 -2.40513e+06 195664 0 -2.41599e+06 199848 0 -2.42708e+06 204079 0 -2.43841e+06 208359 0 -2.44998e+06 212688 0 -2.46179e+06 217067 0 -2.47385e+06 221497 0 -2.48615e+06 225978 0 -2.49871e+06 230511 0 -2.51153e+06 235096 0 -2.5246e+06 239734 0 -2.53795e+06 244424 0 -2.55156e+06 249168 0 -2.56544e+06 253964 0 -2.57961e+06 258812 0 -2.59406e+06 263712 0 -2.60879e+06 268662 0 -2.62382e+06 273663 0 -2.63915e+06 278712 0 -2.65478e+06 283808 0 -2.67073e+06 288948 0 -2.68699e+06 294130 0 -2.70357e+06 299350 0 -2.72048e+06 304605 0 -2.73773e+06 309891 0 -2.75532e+06 315203 0 -2.77326e+06 320534 0 -2.79156e+06 325878 0 -2.81022e+06 331227 0 -2.82926e+06 336573 0 -2.84868e+06 341904 0 -2.86849e+06 347210 0 -2.8887e+06 352478 0 -2.90931e+06 357693 0 -2.93035e+06 362838 0 -2.95181e+06 367894 0 -2.97371e+06 372841 0 -2.99605e+06 377655 0 -3.01885e+06 382309 0 -3.04211e+06 386773 0 -3.06585e+06 391014 0 -3.09006e+06 394996 0 -3.11476e+06 398676 0 -3.13996e+06 402009 0 -3.16565e+06 404945 0 -3.19184e+06 407425 0 -3.21853e+06 409388 0 -3.24571e+06 410766 0 -3.27337e+06 411482 0 -3.30151e+06 411455 0 -3.33009e+06 410593 0 -3.35909e+06 408801 0 -3.38847e+06 405972 0 -3.41817e+06 401995 0 -3.44814e+06 396753 0 -3.4783e+06 390120 0 -3.50853e+06 381969 0 -3.53873e+06 372173 0 -3.56874e+06 360603 0 -3.5984e+06 347139 0 -3.6275e+06 331669 0 -3.65583e+06 314099 0 -3.68313e+06 294359 0 -3.70912e+06 272409 0 -3.7335e+06 248248 0 -3.75594e+06 221923 0 -3.77613e+06 193529 0 -3.79375e+06 163233 0 -3.8085e+06 131204 0 -2.10684e+06 0 0 -2.10691e+06 2922.6 0 -2.10715e+06 5845.78 0 -2.10755e+06 8770.12 0 -2.10811e+06 11696.2 0 -2.10882e+06 14624.6 0 -2.1097e+06 17556 0 -2.11073e+06 20490.8 0 -2.11193e+06 23429.8 0 -2.11328e+06 26373.4 0 -2.1148e+06 29322.3 0 -2.11647e+06 32277.1 0 -2.11831e+06 35238.4 0 -2.1203e+06 38206.8 0 -2.12246e+06 41182.9 0 -2.12478e+06 44167.3 0 -2.12726e+06 47160.7 0 -2.12991e+06 50163.6 0 -2.13272e+06 53176.8 0 -2.13569e+06 56200.9 0 -2.13883e+06 59236.5 0 -2.14213e+06 62284.3 0 -2.1456e+06 65344.9 0 -2.14923e+06 68419.1 0 -2.15303e+06 71507.5 0 -2.157e+06 74610.8 0 -2.16114e+06 77729.7 0 -2.16545e+06 80864.9 0 -2.16993e+06 84017.2 0 -2.17458e+06 87187.3 0 -2.1794e+06 90376 0 -2.18439e+06 93583.9 0 -2.18956e+06 96811.9 0 -2.19491e+06 100061 0 -2.20043e+06 103331 0 -2.20613e+06 106624 0 -2.212e+06 109941 0 -2.21806e+06 113281 0 -2.2243e+06 116647 0 -2.23072e+06 120038 0 -2.23733e+06 123456 0 -2.24412e+06 126901 0 -2.2511e+06 130375 0 -2.25826e+06 133879 0 -2.26562e+06 137413 0 -2.27317e+06 140978 0 -2.28091e+06 144575 0 -2.28885e+06 148205 0 -2.29698e+06 151870 0 -2.30532e+06 155569 0 -2.31385e+06 159305 0 -2.32259e+06 163078 0 -2.33153e+06 166889 0 -2.34069e+06 170739 0 -2.35005e+06 174629 0 -2.35962e+06 178560 0 -2.36941e+06 182533 0 -2.37941e+06 186549 0 -2.38964e+06 190609 0 -2.40009e+06 194714 0 -2.41076e+06 198865 0 -2.42166e+06 203062 0 -2.43279e+06 207307 0 -2.44416e+06 211601 0 -2.45576e+06 215943 0 -2.4676e+06 220336 0 -2.47969e+06 224779 0 -2.49203e+06 229273 0 -2.50461e+06 233819 0 -2.51746e+06 238417 0 -2.53056e+06 243067 0 -2.54392e+06 247769 0 -2.55755e+06 252524 0 -2.57146e+06 257331 0 -2.58564e+06 262189 0 -2.6001e+06 267099 0 -2.61485e+06 272058 0 -2.62989e+06 277067 0 -2.64523e+06 282123 0 -2.66087e+06 287224 0 -2.67682e+06 292369 0 -2.69308e+06 297554 0 -2.70966e+06 302777 0 -2.72657e+06 308032 0 -2.74382e+06 313317 0 -2.7614e+06 318626 0 -2.77934e+06 323952 0 -2.79762e+06 329288 0 -2.81628e+06 334628 0 -2.8353e+06 339961 0 -2.8547e+06 345278 0 -2.8745e+06 350566 0 -2.89469e+06 355813 0 -2.91528e+06 361003 0 -2.93629e+06 366120 0 -2.95773e+06 371144 0 -2.9796e+06 376055 0 -3.00192e+06 380828 0 -3.02469e+06 385437 0 -3.04792e+06 389851 0 -3.07162e+06 394038 0 -3.09579e+06 397959 0 -3.12046e+06 401573 0 -3.14561e+06 404834 0 -3.17126e+06 407690 0 -3.1974e+06 410085 0 -3.22404e+06 411957 0 -3.25117e+06 413236 0 -3.27878e+06 413846 0 -3.30686e+06 413706 0 -3.33538e+06 412725 0 -3.36431e+06 410805 0 -3.39362e+06 407842 0 -3.42326e+06 403725 0 -3.45315e+06 398336 0 -3.48321e+06 391551 0 -3.51336e+06 383244 0 -3.54345e+06 373288 0 -3.57336e+06 361555 0 -3.60291e+06 347928 0 -3.63189e+06 332295 0 -3.6601e+06 314566 0 -3.68726e+06 294671 0 -3.71312e+06 272574 0 -3.73735e+06 248276 0 -3.75965e+06 221821 0 -3.7797e+06 193321 0 -3.79719e+06 162882 0 -2.10659e+06 0 0 -2.10667e+06 2913.72 0 -2.10691e+06 5828.02 0 -2.1073e+06 8743.46 0 -2.10784e+06 11660.6 0 -2.10855e+06 14580.1 0 -2.10941e+06 17502.4 0 -2.11043e+06 20428.1 0 -2.11161e+06 23357.9 0 -2.11294e+06 26292.2 0 -2.11443e+06 29231.8 0 -2.11608e+06 32177.1 0 -2.11789e+06 35128.8 0 -2.11985e+06 38087.5 0 -2.12198e+06 41053.7 0 -2.12426e+06 44028.1 0 -2.12671e+06 47011.4 0 -2.12931e+06 50004 0 -2.13208e+06 53006.6 0 -2.135e+06 56019.9 0 -2.13809e+06 59044.6 0 -2.14134e+06 62081.1 0 -2.14476e+06 65130.3 0 -2.14834e+06 68192.8 0 -2.15208e+06 71269.2 0 -2.15599e+06 74360.2 0 -2.16006e+06 77466.6 0 -2.1643e+06 80589 0 -2.16871e+06 83728.1 0 -2.17329e+06 86884.6 0 -2.17803e+06 90059.4 0 -2.18295e+06 93253 0 -2.18804e+06 96466.4 0 -2.19329e+06 99700.2 0 -2.19873e+06 102955 0 -2.20434e+06 106232 0 -2.21012e+06 109532 0 -2.21608e+06 112856 0 -2.22222e+06 116204 0 -2.22854e+06 119577 0 -2.23504e+06 122977 0 -2.24172e+06 126403 0 -2.24858e+06 129857 0 -2.25563e+06 133341 0 -2.26287e+06 136854 0 -2.2703e+06 140397 0 -2.27791e+06 143972 0 -2.28572e+06 147580 0 -2.29372e+06 151221 0 -2.30192e+06 154896 0 -2.31031e+06 158607 0 -2.3189e+06 162354 0 -2.3277e+06 166139 0 -2.3367e+06 169962 0 -2.3459e+06 173823 0 -2.35531e+06 177726 0 -2.36493e+06 181669 0 -2.37477e+06 185655 0 -2.38482e+06 189683 0 -2.39508e+06 193756 0 -2.40557e+06 197874 0 -2.41628e+06 202037 0 -2.42722e+06 206247 0 -2.43839e+06 210505 0 -2.44979e+06 214811 0 -2.46142e+06 219167 0 -2.47329e+06 223572 0 -2.48541e+06 228027 0 -2.49777e+06 232534 0 -2.51038e+06 237091 0 -2.52324e+06 241701 0 -2.53637e+06 246362 0 -2.54975e+06 251075 0 -2.5634e+06 255840 0 -2.57731e+06 260656 0 -2.59151e+06 265524 0 -2.60598e+06 270441 0 -2.62073e+06 275408 0 -2.63578e+06 280424 0 -2.65112e+06 285485 0 -2.66676e+06 290591 0 -2.68271e+06 295740 0 -2.69897e+06 300927 0 -2.71555e+06 306150 0 -2.73245e+06 311405 0 -2.74969e+06 316687 0 -2.76726e+06 321991 0 -2.78518e+06 327311 0 -2.80345e+06 332639 0 -2.82209e+06 337968 0 -2.84109e+06 343288 0 -2.86048e+06 348589 0 -2.88024e+06 353859 0 -2.90041e+06 359084 0 -2.92098e+06 364250 0 -2.94196e+06 369339 0 -2.96337e+06 374332 0 -2.9852e+06 379207 0 -3.00748e+06 383941 0 -3.03021e+06 388506 0 -3.0534e+06 392872 0 -3.07706e+06 397005 0 -3.1012e+06 400868 0 -3.12581e+06 404420 0 -3.15092e+06 407612 0 -3.17652e+06 410395 0 -3.20261e+06 412711 0 -3.22919e+06 414498 0 -3.25626e+06 415686 0 -3.28381e+06 416200 0 -3.31182e+06 415957 0 -3.34028e+06 414868 0 -3.36914e+06 412835 0 -3.39837e+06 409753 0 -3.42793e+06 405513 0 -3.45773e+06 399996 0 -3.48771e+06 393080 0 -3.51776e+06 384640 0 -3.54776e+06 374548 0 -3.57757e+06 362680 0 -3.60701e+06 348918 0 -3.63589e+06 333154 0 -3.66398e+06 315297 0 -3.69103e+06 295281 0 -3.71676e+06 273070 0 -3.74088e+06 248665 0 -3.76307e+06 222124 0 -3.78302e+06 193497 0 -2.10635e+06 0 0 -2.10643e+06 2904.65 0 -2.10666e+06 5809.86 0 -2.10704e+06 8716.18 0 -2.10758e+06 11624.2 0 -2.10828e+06 14534.5 0 -2.10912e+06 17447.5 0 -2.11013e+06 20364 0 -2.11128e+06 23284.4 0 -2.1126e+06 26209.3 0 -2.11407e+06 29139.3 0 -2.11569e+06 32074.9 0 -2.11747e+06 35016.9 0 -2.1194e+06 37965.6 0 -2.1215e+06 40921.8 0 -2.12375e+06 43886 0 -2.12615e+06 46858.9 0 -2.12872e+06 49840.9 0 -2.13144e+06 52832.8 0 -2.13432e+06 55835.2 0 -2.13736e+06 58848.7 0 -2.14056e+06 61873.9 0 -2.14392e+06 64911.5 0 -2.14744e+06 67962.1 0 -2.15113e+06 71026.3 0 -2.15498e+06 74104.9 0 -2.15898e+06 77198.6 0 -2.16316e+06 80307.9 0 -2.1675e+06 83433.6 0 -2.172e+06 86576.5 0 -2.17667e+06 89737.2 0 -2.18151e+06 92916.4 0 -2.18652e+06 96114.9 0 -2.19169e+06 99333.5 0 -2.19704e+06 102573 0 -2.20256e+06 105834 0 -2.20825e+06 109117 0 -2.21411e+06 112424 0 -2.22015e+06 115754 0 -2.22637e+06 119109 0 -2.23276e+06 122490 0 -2.23934e+06 125898 0 -2.24609e+06 129332 0 -2.25302e+06 132795 0 -2.26014e+06 136287 0 -2.26745e+06 139810 0 -2.27494e+06 143362 0 -2.28262e+06 146947 0 -2.29048e+06 150565 0 -2.29854e+06 154216 0 -2.3068e+06 157902 0 -2.31525e+06 161623 0 -2.32389e+06 165381 0 -2.33274e+06 169177 0 -2.34179e+06 173010 0 -2.35104e+06 176884 0 -2.36049e+06 180797 0 -2.37016e+06 184752 0 -2.38004e+06 188750 0 -2.39013e+06 192790 0 -2.40043e+06 196875 0 -2.41096e+06 201004 0 -2.4217e+06 205180 0 -2.43267e+06 209402 0 -2.44387e+06 213672 0 -2.4553e+06 217990 0 -2.46696e+06 222357 0 -2.47886e+06 226773 0 -2.491e+06 231240 0 -2.50338e+06 235757 0 -2.51601e+06 240326 0 -2.52889e+06 244945 0 -2.54202e+06 249617 0 -2.55542e+06 254339 0 -2.56908e+06 259113 0 -2.583e+06 263938 0 -2.5972e+06 268813 0 -2.61168e+06 273738 0 -2.62644e+06 278711 0 -2.64148e+06 283732 0 -2.65682e+06 288798 0 -2.67246e+06 293907 0 -2.6884e+06 299058 0 -2.70465e+06 304246 0 -2.72122e+06 309468 0 -2.73811e+06 314721 0 -2.75533e+06 320000 0 -2.77289e+06 325299 0 -2.79079e+06 330611 0 -2.80904e+06 335930 0 -2.82765e+06 341248 0 -2.84663e+06 346554 0 -2.86599e+06 351838 0 -2.88573e+06 357089 0 -2.90586e+06 362293 0 -2.92639e+06 367434 0 -2.94734e+06 372495 0 -2.96871e+06 377456 0 -2.9905e+06 382297 0 -3.01274e+06 386992 0 -3.03543e+06 391515 0 -3.05857e+06 395835 0 -3.08218e+06 399918 0 -3.10626e+06 403726 0 -3.13083e+06 407218 0 -3.15588e+06 410348 0 -3.18142e+06 413062 0 -3.20745e+06 415305 0 -3.23397e+06 417014 0 -3.26097e+06 418120 0 -3.28845e+06 418547 0 -3.31639e+06 418213 0 -3.34477e+06 417028 0 -3.37356e+06 414895 0 -3.40271e+06 411711 0 -3.43218e+06 407365 0 -3.4619e+06 401740 0 -3.49179e+06 394715 0 -3.52175e+06 386164 0 -3.55165e+06 375963 0 -3.58136e+06 363987 0 -3.6107e+06 350120 0 -3.63947e+06 334255 0 -3.66746e+06 316303 0 -3.69442e+06 296201 0 -3.72006e+06 273907 0 -3.74409e+06 249439 0 -3.7662e+06 222793 0 -2.1061e+06 0 0 -2.10618e+06 2895.37 0 -2.10641e+06 5791.29 0 -2.10679e+06 8688.31 0 -2.10732e+06 11587 0 -2.108e+06 14487.9 0 -2.10884e+06 17391.5 0 -2.10982e+06 20298.4 0 -2.11096e+06 23209.3 0 -2.11226e+06 26124.5 0 -2.1137e+06 29044.8 0 -2.1153e+06 31970.6 0 -2.11705e+06 34902.5 0 -2.11896e+06 37841.2 0 -2.12102e+06 40787.1 0 -2.12323e+06 43740.9 0 -2.1256e+06 46703.2 0 -2.12812e+06 49674.5 0 -2.1308e+06 52655.5 0 -2.13364e+06 55646.8 0 -2.13663e+06 58648.9 0 -2.13978e+06 61662.5 0 -2.14309e+06 64688.3 0 -2.14656e+06 67726.8 0 -2.15018e+06 70778.8 0 -2.15397e+06 73844.8 0 -2.15791e+06 76925.5 0 -2.16202e+06 80021.7 0 -2.16629e+06 83133.9 0 -2.17072e+06 86262.9 0 -2.17532e+06 89409.4 0 -2.18008e+06 92574 0 -2.18501e+06 95757.6 0 -2.1901e+06 98960.8 0 -2.19536e+06 102184 0 -2.20079e+06 105429 0 -2.20639e+06 108696 0 -2.21216e+06 111985 0 -2.2181e+06 115298 0 -2.22422e+06 118635 0 -2.23051e+06 121997 0 -2.23697e+06 125385 0 -2.24361e+06 128800 0 -2.25044e+06 132243 0 -2.25744e+06 135714 0 -2.26462e+06 139214 0 -2.27199e+06 142745 0 -2.27954e+06 146307 0 -2.28727e+06 149901 0 -2.2952e+06 153528 0 -2.30331e+06 157189 0 -2.31162e+06 160884 0 -2.32012e+06 164616 0 -2.32882e+06 168384 0 -2.33771e+06 172190 0 -2.3468e+06 176034 0 -2.3561e+06 179918 0 -2.3656e+06 183843 0 -2.3753e+06 187808 0 -2.38522e+06 191817 0 -2.39534e+06 195868 0 -2.40568e+06 199964 0 -2.41624e+06 204104 0 -2.42701e+06 208291 0 -2.43801e+06 212524 0 -2.44924e+06 216805 0 -2.46069e+06 221133 0 -2.47237e+06 225511 0 -2.48429e+06 229938 0 -2.49645e+06 234415 0 -2.50884e+06 238942 0 -2.52149e+06 243520 0 -2.53438e+06 248149 0 -2.54753e+06 252829 0 -2.56093e+06 257560 0 -2.57459e+06 262342 0 -2.58852e+06 267174 0 -2.60272e+06 272056 0 -2.6172e+06 276987 0 -2.63195e+06 281965 0 -2.647e+06 286990 0 -2.66233e+06 292059 0 -2.67795e+06 297170 0 -2.69388e+06 302321 0 -2.71012e+06 307509 0 -2.72667e+06 312730 0 -2.74355e+06 317980 0 -2.76075e+06 323254 0 -2.77828e+06 328546 0 -2.79616e+06 333850 0 -2.81438e+06 339159 0 -2.83296e+06 344464 0 -2.85191e+06 349756 0 -2.87123e+06 355024 0 -2.89094e+06 360255 0 -2.91103e+06 365437 0 -2.93152e+06 370553 0 -2.95243e+06 375586 0 -2.97375e+06 380518 0 -2.9955e+06 385324 0 -3.01769e+06 389983 0 -3.04032e+06 394465 0 -3.06341e+06 398741 0 -3.08696e+06 402776 0 -3.11099e+06 406534 0 -3.13549e+06 409971 0 -3.16048e+06 413041 0 -3.18595e+06 415693 0 -3.21191e+06 417870 0 -3.23836e+06 419509 0 -3.2653e+06 420541 0 -3.2927e+06 420891 0 -3.32056e+06 420477 0 -3.34886e+06 419210 0 -3.37756e+06 416992 0 -3.40663e+06 413722 0 -3.43601e+06 409288 0 -3.46564e+06 403575 0 -3.49544e+06 396462 0 -3.5253e+06 387826 0 -3.55511e+06 377541 0 -3.58472e+06 365486 0 -3.61397e+06 351544 0 -3.64265e+06 335610 0 -3.67056e+06 317598 0 -3.69743e+06 297438 0 -3.723e+06 275108 0 -3.74697e+06 250560 0 -2.10586e+06 0 0 -2.10593e+06 2885.89 0 -2.10616e+06 5772.31 0 -2.10653e+06 8659.82 0 -2.10705e+06 11548.9 0 -2.10772e+06 14440.2 0 -2.10855e+06 17334.2 0 -2.10952e+06 20231.5 0 -2.11064e+06 23132.5 0 -2.11191e+06 26037.9 0 -2.11334e+06 28948.2 0 -2.11491e+06 31864 0 -2.11663e+06 34785.7 0 -2.11851e+06 37714.1 0 -2.12054e+06 40649.6 0 -2.12272e+06 43592.8 0 -2.12505e+06 46544.4 0 -2.12753e+06 49504.8 0 -2.13017e+06 52474.6 0 -2.13296e+06 55454.6 0 -2.13591e+06 58445.2 0 -2.13901e+06 61447.1 0 -2.14226e+06 64460.9 0 -2.14567e+06 67487.2 0 -2.14924e+06 70526.6 0 -2.15297e+06 73579.9 0 -2.15685e+06 76647.5 0 -2.16089e+06 79730.3 0 -2.16509e+06 82828.8 0 -2.16945e+06 85943.8 0 -2.17398e+06 89075.9 0 -2.17866e+06 92225.8 0 -2.18351e+06 95394.3 0 -2.18852e+06 98581.9 0 -2.1937e+06 101790 0 -2.19904e+06 105018 0 -2.20454e+06 108268 0 -2.21022e+06 111540 0 -2.21607e+06 114835 0 -2.22208e+06 118154 0 -2.22827e+06 121497 0 -2.23463e+06 124866 0 -2.24116e+06 128261 0 -2.24787e+06 131683 0 -2.25475e+06 135133 0 -2.26182e+06 138612 0 -2.26906e+06 142120 0 -2.27648e+06 145659 0 -2.28409e+06 149230 0 -2.29188e+06 152832 0 -2.29986e+06 156468 0 -2.30802e+06 160138 0 -2.31638e+06 163843 0 -2.32493e+06 167584 0 -2.33367e+06 171361 0 -2.3426e+06 175177 0 -2.35174e+06 179031 0 -2.36107e+06 182925 0 -2.37061e+06 186859 0 -2.38035e+06 190835 0 -2.3903e+06 194854 0 -2.40046e+06 198915 0 -2.41083e+06 203021 0 -2.42141e+06 207172 0 -2.43221e+06 211369 0 -2.44323e+06 215612 0 -2.45448e+06 219903 0 -2.46595e+06 224241 0 -2.47765e+06 228628 0 -2.48959e+06 233065 0 -2.50175e+06 237551 0 -2.51416e+06 242087 0 -2.52682e+06 246674 0 -2.53972e+06 251311 0 -2.55287e+06 255998 0 -2.56627e+06 260737 0 -2.57994e+06 265525 0 -2.59387e+06 270363 0 -2.60806e+06 275250 0 -2.62253e+06 280185 0 -2.63728e+06 285167 0 -2.65231e+06 290195 0 -2.66763e+06 295266 0 -2.68324e+06 300378 0 -2.69916e+06 305529 0 -2.71538e+06 310715 0 -2.73191e+06 315933 0 -2.74875e+06 321179 0 -2.76593e+06 326447 0 -2.78343e+06 331732 0 -2.80128e+06 337027 0 -2.81947e+06 342324 0 -2.83802e+06 347617 0 -2.85693e+06 352893 0 -2.87621e+06 358144 0 -2.89587e+06 363356 0 -2.91592e+06 368516 0 -2.93637e+06 373607 0 -2.95722e+06 378614 0 -2.97849e+06 383515 0 -3.00019e+06 388289 0 -3.02232e+06 392912 0 -3.04489e+06 397356 0 -3.06792e+06 401591 0 -3.09141e+06 405582 0 -3.11537e+06 409291 0 -3.1398e+06 412678 0 -3.16472e+06 415694 0 -3.19012e+06 418290 0 -3.216e+06 420407 0 -3.24238e+06 421984 0 -3.26923e+06 422952 0 -3.29655e+06 423236 0 -3.32433e+06 422754 0 -3.35254e+06 421418 0 -3.38115e+06 419130 0 -3.41013e+06 415790 0 -3.43941e+06 411287 0 -3.46895e+06 405507 0 -3.49865e+06 398329 0 -3.52842e+06 389631 0 -3.55814e+06 379290 0 -3.58766e+06 367184 0 -3.61682e+06 353197 0 -3.64542e+06 337228 0 -3.67325e+06 319185 0 -3.70006e+06 299014 0 -3.72558e+06 276632 0 -2.10561e+06 0 0 -2.10568e+06 2876.2 0 -2.1059e+06 5752.94 0 -2.10627e+06 8630.73 0 -2.10679e+06 11510.1 0 -2.10745e+06 14391.6 0 -2.10826e+06 17275.8 0 -2.10921e+06 20163.1 0 -2.11032e+06 23054.2 0 -2.11157e+06 25949.5 0 -2.11297e+06 28849.7 0 -2.11452e+06 31755.2 0 -2.11622e+06 34666.6 0 -2.11806e+06 37584.4 0 -2.12006e+06 40509.3 0 -2.1222e+06 43441.8 0 -2.1245e+06 46382.3 0 -2.12694e+06 49331.6 0 -2.12954e+06 52290.2 0 -2.13228e+06 55258.7 0 -2.13518e+06 58237.6 0 -2.13823e+06 61227.5 0 -2.14144e+06 64229.2 0 -2.14479e+06 67243.1 0 -2.1483e+06 70269.8 0 -2.15197e+06 73310.1 0 -2.15579e+06 76364.6 0 -2.15977e+06 79433.8 0 -2.1639e+06 82518.5 0 -2.16819e+06 85619.3 0 -2.17264e+06 88736.9 0 -2.17725e+06 91871.9 0 -2.18202e+06 95025.1 0 -2.18695e+06 98197.1 0 -2.19204e+06 101389 0 -2.19729e+06 104601 0 -2.20271e+06 107833 0 -2.20829e+06 111088 0 -2.21404e+06 114365 0 -2.21996e+06 117666 0 -2.22604e+06 120990 0 -2.2323e+06 124340 0 -2.23872e+06 127715 0 -2.24532e+06 131116 0 -2.25209e+06 134545 0 -2.25903e+06 138002 0 -2.26615e+06 141488 0 -2.27345e+06 145004 0 -2.28093e+06 148551 0 -2.28859e+06 152129 0 -2.29643e+06 155740 0 -2.30446e+06 159384 0 -2.31267e+06 163062 0 -2.32107e+06 166776 0 -2.32966e+06 170525 0 -2.33844e+06 174312 0 -2.34742e+06 178136 0 -2.35659e+06 182000 0 -2.36596e+06 185903 0 -2.37553e+06 189847 0 -2.3853e+06 193832 0 -2.39528e+06 197860 0 -2.40546e+06 201931 0 -2.41586e+06 206046 0 -2.42647e+06 210206 0 -2.43729e+06 214412 0 -2.44833e+06 218664 0 -2.45959e+06 222964 0 -2.47108e+06 2