<?xml version="1.0"?> 
<VTKFile type="StructuredGrid" version="0.1"> 
<StructuredGrid WholeExtent="0 127 0 127 0 0"> 
<Piece Extent="0 127 0 127 0 0"> 
<PointData>
<DataArray type="Float32" Name="|E|" format="ascii" NumberOfComponents="3"> 
773630 530945 0 766312 526239 0 759087 521542 0 751954 516854 0 744910 512175 0 737956 507506 0 731089 502847 0 724310 498197 0 717616 493558 0 711008 488929 0 704483 484310 0 698042 479703 0 691682 475106 0 685404 470520 0 679206 465945 0 673087 461381 0 667047 456829 0 661084 452288 0 655198 447759 0 649389 443241 0 643654 438734 0 637993 434239 0 632406 429756 0 626892 425285 0 621450 420825 0 616079 416376 0 610778 411940 0 605547 407515 0 600386 403102 0 595292 398700 0 590266 394310 0 585307 389932 0 580414 385565 0 575587 381209 0 570825 376865 0 566127 372532 0 561492 368211 0 556921 363900 0 552411 359601 0 547964 355312 0 543578 351035 0 539252 346768 0 534986 342512 0 530780 338266 0 526633 334031 0 522543 329806 0 518512 325591 0 514537 321387 0 510620 317192 0 506758 313007 0 502952 308832 0 499201 304666 0 495504 300509 0 491862 296362 0 488273 292223 0 484737 288094 0 481254 283973 0 477823 279861 0 474443 275757 0 471115 271661 0 467837 267573 0 464610 263493 0 461432 259420 0 458304 255355 0 455225 251297 0 452194 247246 0 449211 243202 0 446277 239165 0 443389 235134 0 440548 231109 0 437754 227090 0 435006 223077 0 432304 219069 0 429647 215067 0 427034 211070 0 424467 207078 0 421944 203091 0 419464 199108 0 417028 195129 0 414635 191154 0 412285 187183 0 409978 183215 0 407712 179251 0 405489 175290 0 403307 171332 0 401166 167376 0 399065 163422 0 397006 159471 0 394986 155521 0 393006 151573 0 391066 147626 0 389166 143681 0 387304 139736 0 385481 135791 0 383696 131847 0 381950 127903 0 380241 123959 0 378570 120014 0 376936 116068 0 375340 112121 0 373780 108173 0 372256 104223 0 370769 100271 0 369318 96316.9 0 367903 92360.4 0 366523 88401.2 0 365179 84438.9 0 363870 80473.3 0 362595 76504 0 361355 72530.9 0 360150 68553.5 0 358979 64571.6 0 357841 60584.9 0 356738 56593.2 0 355668 52596 0 354631 48593.1 0 353627 44584.2 0 352657 40568.9 0 351719 36547.1 0 350813 32518.3 0 349940 28482.2 0 349099 24438.6 0 348290 20387.1 0 347512 16327.4 0 346767 12259.1 0 346052 8182.04 0 345369 4095.77 0 344717 0 0 771669 533249 0 764362 528508 0 757148 523776 0 750024 519054 0 742991 514341 0 736047 509639 0 729191 504946 0 722421 500264 0 715738 495593 0 709140 490932 0 702626 486283 0 696194 481644 0 689845 477017 0 683577 472401 0 677389 467797 0 671281 463204 0 665251 458623 0 659298 454053 0 653422 449496 0 647623 444950 0 641898 440416 0 636247 435894 0 630670 431385 0 625166 426887 0 619734 422401 0 614372 417927 0 609082 413465 0 603860 409016 0 598708 404578 0 593624 400152 0 588608 395738 0 583658 391335 0 578775 386945 0 573957 382566 0 569203 378199 0 564515 373844 0 559889 369500 0 555327 365167 0 550826 360846 0 546388 356536 0 542010 352237 0 537693 347949 0 533436 343672 0 529239 339406 0 525100 335150 0 521019 330905 0 516995 326671 0 513029 322446 0 509120 318232 0 505266 314028 0 501468 309834 0 497725 305649 0 494036 301474 0 490401 297308 0 486820 293152 0 483292 289004 0 479816 284865 0 476392 280736 0 473020 276614 0 469699 272501 0 466428 268396 0 463208 264299 0 460037 260210 0 456916 256129 0 453843 252055 0 450819 247988 0 447843 243928 0 444915 239874 0 442034 235828 0 439199 231788 0 436411 227754 0 433669 223725 0 430973 219703 0 428322 215686 0 425715 211674 0 423153 207668 0 420636 203666 0 418162 199669 0 415731 195676 0 413344 191688 0 410999 187703 0 408697 183722 0 406436 179744 0 404218 175770 0 402040 171798 0 399904 167829 0 397809 163863 0 395754 159898 0 393739 155936 0 391763 151976 0 389828 148016 0 387931 144058 0 386074 140101 0 384255 136145 0 382474 132188 0 380731 128232 0 379026 124276 0 377359 120320 0 375729 116362 0 374136 112404 0 372579 108444 0 371059 104483 0 369576 100520 0 368128 96555.3 0 366716 92587.9 0 365339 88617.8 0 363997 84644.8 0 362691 80668.6 0 361419 76688.8 0 360182 72705.2 0 358979 68717.4 0 357810 64725.3 0 356675 60728.4 0 355574 56726.5 0 354506 52719.3 0 353471 48706.5 0 352469 44687.7 0 351501 40662.7 0 350564 36631.1 0 349661 32592.7 0 348789 28547.1 0 347950 24494 0 347142 20433.1 0 346366 16364 0 345621 12286.5 0 344908 8200.22 0 344226 4104.83 0 343575 0 0 769699 535550 0 762402 530773 0 755198 526007 0 748085 521250 0 741062 516503 0 734128 511767 0 727282 507042 0 720524 502327 0 713851 497624 0 707263 492932 0 700759 488251 0 694338 483582 0 687999 478924 0 681742 474278 0 675564 469644 0 669466 465022 0 663446 460413 0 657504 455815 0 651639 451229 0 645849 446656 0 640134 442095 0 634494 437546 0 628927 433010 0 623433 428486 0 618010 423974 0 612659 419475 0 607378 414987 0 602166 410513 0 597024 406050 0 591949 401600 0 586943 397162 0 582002 392736 0 577128 388322 0 572320 383920 0 567576 379530 0 562896 375152 0 558280 370785 0 553727 366431 0 549235 362088 0 544806 357756 0 540437 353436 0 536129 349127 0 531881 344829 0 527691 340542 0 523561 336267 0 519489 332002 0 515474 327747 0 511516 323503 0 507614 319270 0 503769 315046 0 499979 310833 0 496244 306630 0 492563 302436 0 488936 298252 0 485362 294077 0 481841 289912 0 478373 285756 0 474957 281608 0 471592 277470 0 468278 273340 0 465014 269218 0 461801 265104 0 458637 260998 0 455523 256900 0 452457 252810 0 449440 248727 0 446471 244651 0 443549 240582 0 440674 236520 0 437846 232465 0 435064 228415 0 432328 224372 0 429638 220335 0 426993 216303 0 424392 212277 0 421836 208256 0 419324 204240 0 416856 200229 0 414431 196222 0 412049 192220 0 409709 188221 0 407412 184227 0 405157 180236 0 402943 176248 0 400771 172263 0 398640 168281 0 396549 164302 0 394498 160325 0 392488 156350 0 390517 152377 0 388586 148405 0 386694 144435 0 384840 140465 0 383025 136497 0 381249 132529 0 379510 128561 0 377809 124593 0 376145 120625 0 374519 116656 0 372929 112686 0 371376 108715 0 369859 104743 0 368379 100769 0 366934 96793 0 365525 92814.7 0 364151 88833.9 0 362813 84850.2 0 361509 80863.3 0 360240 76873 0 359006 72879 0 357805 68880.9 0 356639 64878.5 0 355506 60871.4 0 354407 56859.5 0 353341 52842.2 0 352309 48819.5 0 351309 44790.9 0 350342 40756.1 0 349408 36714.9 0 348506 32666.9 0 347636 28611.7 0 346798 24549.2 0 345991 20478.9 0 345217 16400.5 0 344474 12313.8 0 343762 8218.35 0 343081 4113.86 0 342431 0 0 767717 537846 0 760431 533034 0 753238 528233 0 746135 523442 0 739123 518661 0 732200 513892 0 725365 509134 0 718617 504387 0 711954 499651 0 705377 494927 0 698884 490216 0 692473 485516 0 686145 480828 0 679898 476152 0 673731 471489 0 667643 466838 0 661634 462199 0 655702 457573 0 649847 452959 0 644068 448358 0 638363 443770 0 632733 439194 0 627176 434631 0 621692 430081 0 616279 425544 0 610938 421019 0 605667 416506 0 600465 412007 0 595333 407519 0 590268 403045 0 585271 398583 0 580340 394133 0 575476 389696 0 570677 385271 0 565942 380858 0 561272 376457 0 556665 372068 0 552121 367692 0 547639 363327 0 543218 358974 0 538858 354632 0 534559 350302 0 530319 345984 0 526139 341677 0 522017 337380 0 517953 333095 0 513947 328821 0 509997 324558 0 506104 320305 0 502267 316062 0 498485 311830 0 494758 307608 0 491085 303396 0 487465 299194 0 483900 295001 0 480387 290818 0 476926 286644 0 473517 282479 0 470159 278323 0 466853 274176 0 463596 270037 0 460390 265907 0 457234 261784 0 454126 257670 0 451067 253564 0 448057 249465 0 445094 245373 0 442179 241289 0 439310 237211 0 436489 233140 0 433713 229076 0 430983 225017 0 428299 220965 0 425660 216919 0 423065 212878 0 420515 208843 0 418009 204813 0 415546 200787 0 413127 196767 0 410750 192750 0 408416 188738 0 406124 184730 0 403874 180726 0 401665 176725 0 399498 172727 0 397371 168732 0 395285 164740 0 393240 160750 0 391234 156762 0 389268 152777 0 387341 148793 0 385453 144810 0 383604 140829 0 381793 136848 0 380020 132868 0 378285 128888 0 376588 124909 0 374928 120929 0 373305 116949 0 371719 112968 0 370170 108986 0 368657 105002 0 367179 101017 0 365738 97030.1 0 364332 93040.9 0 362961 89049.3 0 361626 85054.9 0 360325 81057.5 0 359058 77056.7 0 357826 73052.2 0 356629 69043.9 0 355465 65031.2 0 354334 61014 0 353238 56992 0 352174 52964.8 0 351144 48932.2 0 350146 44893.8 0 349181 40849.3 0 348248 36798.4 0 347348 32740.8 0 346480 28676.2 0 345643 24604.2 0 344839 20524.6 0 344065 16437 0 343324 12341 0 342613 8236.42 0 341933 4122.86 0 341284 0 0 765726 540138 0 758450 535291 0 751267 530455 0 744176 525629 0 737174 520815 0 730262 516012 0 723437 511221 0 716700 506442 0 710049 501675 0 703482 496919 0 696999 492176 0 690600 487446 0 684282 482727 0 678046 478022 0 671889 473329 0 665812 468649 0 659813 463982 0 653892 459327 0 648047 454686 0 642278 450057 0 636584 445442 0 630964 440839 0 625418 436250 0 619944 431673 0 614542 427110 0 609210 422559 0 603949 418022 0 598758 413497 0 593635 408985 0 588580 404486 0 583593 400000 0 578672 395527 0 573817 391066 0 569027 386618 0 564302 382182 0 559641 377759 0 555044 373348 0 550509 368950 0 546036 364563 0 541624 360188 0 537274 355826 0 532983 351475 0 528752 347136 0 524581 342808 0 520468 338491 0 516412 334186 0 512414 329892 0 508473 325609 0 504588 321337 0 500759 317076 0 496986 312825 0 493266 308584 0 489602 304353 0 485990 300133 0 482432 295922 0 478927 291721 0 475474 287529 0 472072 283347 0 468722 279174 0 465423 275010 0 462174 270854 0 458975 266707 0 455825 262568 0 452725 258438 0 449673 254315 0 446669 250200 0 443713 246093 0 440804 241993 0 437943 237900 0 435127 233814 0 432358 229734 0 429635 225661 0 426957 221594 0 424323 217533 0 421735 213478 0 419190 209428 0 416690 205384 0 414233 201344 0 411819 197310 0 409448 193280 0 407119 189254 0 404832 185232 0 402588 181214 0 400384 177200 0 398222 173189 0 396100 169181 0 394019 165176 0 391978 161174 0 389977 157174 0 388015 153176 0 386092 149179 0 384209 145185 0 382364 141191 0 380557 137198 0 378789 133207 0 377058 129215 0 375364 125224 0 373708 121232 0 372089 117241 0 370507 113248 0 368961 109255 0 367451 105260 0 365977 101264 0 364539 97266.4 0 363136 93266.4 0 361768 89264.1 0 360435 85259.1 0 359137 81251.1 0 357874 77239.8 0 356645 73225 0 355449 69206.3 0 354288 65183.5 0 353160 61156.2 0 352066 57124.2 0 351004 53087.1 0 349976 49044.6 0 348980 44996.4 0 348017 40942.2 0 347086 36881.7 0 346188 32814.6 0 345321 28740.5 0 344486 24659.1 0 343683 20570.1 0 342911 16473.3 0 342171 12368.1 0 341461 8254.44 0 340783 4131.84 0 340135 0 0 763724 542427 0 756459 537544 0 749287 532673 0 742206 527813 0 735216 522965 0 728314 518129 0 721501 513305 0 714774 508493 0 708134 503694 0 701578 498907 0 695106 494133 0 688717 489372 0 682411 484623 0 676185 479888 0 670039 475165 0 663973 470456 0 657985 465760 0 652074 461078 0 646240 456408 0 640481 451752 0 634798 447110 0 629188 442480 0 623652 437864 0 618188 433262 0 612796 428672 0 607475 424096 0 602224 419534 0 597043 414984 0 591930 410448 0 586885 405925 0 581908 401415 0 576997 396918 0 572151 392434 0 567372 387962 0 562656 383504 0 558005 379058 0 553416 374625 0 548891 370204 0 544427 365796 0 540025 361400 0 535683 357016 0 531402 352644 0 527180 348285 0 523017 343936 0 518913 339600 0 514866 335275 0 510877 330961 0 506944 326659 0 503068 322367 0 499247 318086 0 495481 313817 0 491770 309557 0 488114 305308 0 484510 301070 0 480960 296841 0 477462 292622 0 474017 288413 0 470623 284213 0 467281 280023 0 463989 275842 0 460747 271669 0 457555 267506 0 454413 263350 0 451319 259204 0 448274 255065 0 445277 250934 0 442328 246811 0 439426 242695 0 436571 238587 0 433762 234485 0 430999 230391 0 428282 226303 0 425610 222221 0 422983 218145 0 420400 214076 0 417862 210012 0 415367 205953 0 412916 201900 0 410507 197851 0 408142 193807 0 405819 189768 0 403537 185733 0 401298 181702 0 399099 177674 0 396942 173650 0 394825 169630 0 392749 165612 0 390713 161597 0 388716 157584 0 386759 153573 0 384841 149565 0 382962 145558 0 381121 141552 0 379318 137548 0 377554 133544 0 375827 129541 0 374138 125538 0 372485 121535 0 370870 117532 0 369291 113528 0 367749 109524 0 366242 105518 0 364772 101511 0 363337 97502.1 0 361937 93491.3 0 360572 89478.2 0 359243 85462.6 0 357947 81444.1 0 356687 77422.4 0 355460 73397.3 0 354267 69368.4 0 353108 65335.4 0 351983 61298 0 350891 57256 0 349832 53209 0 348805 49156.6 0 347812 45098.7 0 346851 41034.8 0 345922 36964.7 0 345025 32888.1 0 344160 28804.5 0 343327 24713.8 0 342525 20615.6 0 341755 16509.5 0 341016 12395.2 0 340307 8272.4 0 339630 4140.79 0 338983 0 0 761711 544710 0 754457 539793 0 747296 534887 0 740227 529993 0 733247 525111 0 726357 520242 0 719554 515385 0 712839 510541 0 706210 505709 0 699665 500891 0 693204 496086 0 686826 491294 0 680531 486515 0 674316 481750 0 668181 476998 0 662125 472260 0 656148 467535 0 650248 462825 0 644425 458127 0 638677 453444 0 633004 448774 0 627405 444118 0 621879 439475 0 616426 434846 0 611044 430231 0 605733 425630 0 600493 421042 0 595321 416468 0 590219 411907 0 585184 407360 0 580216 402826 0 575315 398305 0 570480 393798 0 565710 389304 0 561004 384822 0 556362 380354 0 551783 375899 0 547267 371456 0 542813 367026 0 538419 362609 0 534087 358204 0 529815 353811 0 525602 349431 0 521448 345062 0 517352 340705 0 513314 336360 0 509334 332027 0 505410 327705 0 501542 323394 0 497730 319095 0 493972 314806 0 490269 310528 0 486621 306261 0 483025 302004 0 479483 297757 0 475993 293521 0 472556 289294 0 469170 285077 0 465835 280869 0 462550 276671 0 459316 272482 0 456131 268302 0 452996 264130 0 449910 259967 0 446872 255812 0 443881 251666 0 440939 247527 0 438044 243396 0 435195 239272 0 432393 235155 0 429636 231045 0 426925 226942 0 424260 222846 0 421639 218756 0 419062 214672 0 416530 210593 0 414041 206521 0 411595 202453 0 409192 198391 0 406832 194334 0 404515 190281 0 402239 186232 0 400004 182188 0 397811 178147 0 395659 174110 0 393547 170077 0 391475 166046 0 389444 162018 0 387452 157993 0 385500 153970 0 383586 149949 0 381711 145930 0 379875 141912 0 378077 137896 0 376316 133880 0 374593 129866 0 372908 125851 0 371259 121837 0 369648 117822 0 368073 113807 0 366534 109792 0 365031 105775 0 363563 101757 0 362132 97737.1 0 360735 93715.5 0 359374 89691.8 0 358047 85665.6 0 356755 81636.6 0 355497 77604.5 0 354273 73569 0 353083 69529.9 0 351926 65486.8 0 350803 61439.4 0 349713 57387.4 0 348657 53330.5 0 347632 49268.3 0 346641 45200.7 0 345682 41127.2 0 344755 37047.5 0 343860 32961.4 0 342997 28868.4 0 342165 24768.4 0 341365 20660.8 0 340596 16545.6 0 339858 12422.1 0 339151 8290.31 0 338475 4149.71 0 337829 0 0 759688 546990 0 752446 542037 0 745296 537097 0 738237 532168 0 731269 527253 0 724390 522350 0 717599 517460 0 710895 512584 0 704276 507721 0 697743 502871 0 691293 498035 0 684927 493212 0 678642 488403 0 672438 483608 0 666314 478827 0 660270 474060 0 654303 469307 0 648414 464568 0 642601 459842 0 636864 455131 0 631202 450434 0 625614 445751 0 620099 441083 0 614656 436428 0 609285 431787 0 603984 427160 0 598754 422547 0 593593 417948 0 588500 413363 0 583476 408791 0 578518 404234 0 573627 399689 0 568802 395159 0 564041 390641 0 559345 386138 0 554713 381647 0 550144 377170 0 545637 372705 0 541192 368254 0 536808 363815 0 532485 359389 0 528222 354975 0 524018 350574 0 519873 346185 0 515787 341808 0 511758 337443 0 507786 333090 0 503870 328749 0 500011 324419 0 496207 320100 0 492458 315793 0 488763 311497 0 485123 307211 0 481536 302936 0 478001 298671 0 474520 294417 0 471090 290173 0 467711 285938 0 464384 281714 0 461107 277499 0 457880 273293 0 454703 269096 0 451575 264908 0 448495 260729 0 445465 256558 0 442481 252395 0 439546 248241 0 436657 244094 0 433815 239955 0 431019 235823 0 428269 231698 0 425565 227581 0 422905 223469 0 420291 219365 0 417720 215266 0 415194 211174 0 412711 207087 0 410271 203006 0 407874 198930 0 405519 194858 0 403207 190792 0 400936 186730 0 398707 182672 0 396519 178619 0 394372 174569 0 392265 170522 0 390199 166479 0 388172 162439 0 386185 158401 0 384237 154366 0 382328 150332 0 380458 146301 0 378626 142272 0 376832 138243 0 375075 134216 0 373357 130189 0 371675 126163 0 370030 122138 0 368423 118112 0 366851 114085 0 365316 110059 0 363816 106031 0 362352 102002 0 360924 97971.3 0 359531 93939.1 0 358172 89904.7 0 356848 85867.9 0 355559 81828.4 0 354304 77786 0 353083 73740.3 0 351895 69691 0 350741 65637.7 0 349621 61580.3 0 348533 57518.4 0 347479 53451.6 0 346457 49379.7 0 345467 45302.4 0 344510 41219.3 0 343585 37130.1 0 342692 33034.5 0 341831 28932.1 0 341001 24822.8 0 340202 20706 0 339434 16581.5 0 338698 12449 0 337992 8308.17 0 337317 4158.6 0 336672 0 0 757654 549266 0 750423 544277 0 743285 539302 0 736238 534340 0 729281 529390 0 722413 524454 0 715634 519532 0 708941 514623 0 702334 509728 0 695812 504847 0 689373 499979 0 683018 495126 0 676744 490287 0 670552 485463 0 664439 480652 0 658406 475856 0 652450 471074 0 646572 466307 0 640770 461554 0 635044 456815 0 629393 452091 0 623815 447382 0 618311 442686 0 612879 438005 0 607518 433339 0 602228 428687 0 597008 424049 0 591858 419425 0 586775 414815 0 581761 410220 0 576814 405638 0 571932 401070 0 567117 396516 0 562367 391976 0 557680 387450 0 553058 382937 0 548498 378437 0 544001 373951 0 539566 369478 0 535192 365018 0 530878 360570 0 526624 356136 0 522429 351714 0 518293 347305 0 514216 342908 0 510195 338523 0 506232 334151 0 502325 329790 0 498475 325441 0 494679 321103 0 490939 316777 0 487253 312462 0 483620 308158 0 480041 303865 0 476515 299583 0 473041 295311 0 469619 291049 0 466248 286798 0 462929 282556 0 459659 278324 0 456440 274101 0 453270 269888 0 450149 265684 0 447077 261488 0 444053 257301 0 441077 253123 0 438148 248953 0 435267 244791 0 432431 240636 0 429642 236489 0 426899 232350 0 424201 228217 0 421547 224091 0 418939 219972 0 416374 215859 0 413854 211752 0 411377 207652 0 408943 203556 0 406552 199466 0 404203 195382 0 401896 191302 0 399631 187227 0 397407 183156 0 395224 179089 0 393082 175026 0 390980 170967 0 388919 166911 0 386897 162858 0 384915 158808 0 382971 154760 0 381067 150715 0 379201 146671 0 377373 142630 0 375583 138589 0 373831 134550 0 372117 130512 0 370439 126475 0 368798 122437 0 367194 118400 0 365627 114363 0 364095 110325 0 362599 106286 0 361138 102246 0 359713 98204.9 0 358323 94161.9 0 356968 90116.9 0 355647 86069.6 0 354361 82019.8 0 353108 77967 0 351890 73911 0 350705 69851.5 0 349554 65788.2 0 348436 61720.8 0 347351 57649 0 346298 53572.4 0 345279 49490.8 0 344291 45403.8 0 343336 41311.1 0 342413 37212.4 0 341522 33107.3 0 340662 28995.6 0 339834 24877 0 339037 20751 0 338271 16617.4 0 337535 12475.8 0 336831 8325.97 0 336157 4167.47 0 335513 0 0 755610 551537 0 748391 546513 0 741264 541503 0 734229 536507 0 727284 531524 0 720427 526554 0 713659 521599 0 706978 516658 0 700382 511731 0 693872 506818 0 687445 501920 0 681101 497036 0 674839 492167 0 668657 487313 0 662556 482473 0 656534 477648 0 650589 472838 0 644722 468042 0 638932 463262 0 633217 458496 0 627576 453744 0 622009 449008 0 616516 444287 0 611095 439580 0 605745 434887 0 600465 430210 0 595256 425547 0 590116 420898 0 585044 416264 0 580040 411645 0 575102 407039 0 570232 402448 0 565426 397871 0 560686 393308 0 556009 388759 0 551397 384223 0 546847 379702 0 542360 375193 0 537934 370699 0 533569 366217 0 529264 361749 0 525020 357294 0 520834 352852 0 516708 348422 0 512639 344005 0 508628 339601 0 504673 335209 0 500776 330829 0 496933 326460 0 493147 322104 0 489415 317759 0 485737 313426 0 482113 309104 0 478542 304792 0 475024 300492 0 471558 296203 0 468144 291923 0 464781 287655 0 461469 283396 0 458207 279147 0 454995 274908 0 451833 270678 0 448719 266457 0 445655 262246 0 442638 258043 0 439669 253849 0 436747 249663 0 433872 245485 0 431043 241316 0 428261 237154 0 425524 232999 0 422832 228852 0 420185 224711 0 417583 220578 0 415025 216450 0 412510 212329 0 410039 208215 0 407611 204105 0 405226 200002 0 402882 195903 0 400581 191810 0 398321 187722 0 396103 183638 0 393926 179558 0 391789 175482 0 389692 171410 0 387636 167341 0 385619 163276 0 383641 159213 0 381702 155153 0 379802 151096 0 377941 147040 0 376118 142987 0 374332 138935 0 372584 134884 0 370874 130834 0 369200 126785 0 367564 122736 0 365963 118688 0 364399 114639 0 362871 110590 0 361379 106541 0 359921 102490 0 358500 98437.8 0 357113 94384.1 0 355761 90328.6 0 354443 86270.8 0 353160 82210.5 0 351910 78147.4 0 350695 74081.2 0 349513 70011.6 0 348364 65938.3 0 347248 61860.9 0 346166 57779.2 0 345116 53692.8 0 344098 49601.5 0 343113 45504.8 0 342160 41402.6 0 341238 37294.4 0 340349 33180 0 339491 29058.9 0 338664 24931 0 337869 20795.9 0 337104 16653.2 0 336370 12502.6 0 335667 8343.72 0 334995 4176.31 0 334352 0 0 753556 553804 0 746348 548745 0 739233 543700 0 732210 538669 0 725276 533653 0 718432 528650 0 711675 523662 0 705005 518689 0 698422 513730 0 691923 508786 0 685507 503857 0 679175 498943 0 672924 494043 0 666754 489159 0 660664 484290 0 654653 479436 0 648720 474597 0 642865 469774 0 637085 464965 0 631381 460172 0 625752 455394 0 620196 450631 0 614713 445883 0 609303 441150 0 603964 436432 0 598695 431729 0 593496 427041 0 588367 422368 0 583305 417710 0 578312 413066 0 573385 408437 0 568524 403822 0 563729 399222 0 558999 394636 0 554332 390064 0 549730 385507 0 545190 380963 0 540712 376433 0 536296 371917 0 531940 367414 0 527646 362925 0 523410 358449 0 519234 353986 0 515117 349537 0 511057 345100 0 507055 340675 0 503110 336264 0 499220 331864 0 495387 327477 0 491609 323102 0 487885 318738 0 484216 314387 0 480600 310046 0 477038 305717 0 473528 301399 0 470070 297092 0 466664 292795 0 463309 288509 0 460005 284233 0 456751 279968 0 453546 275712 0 450391 271466 0 447285 267229 0 444228 263001 0 441218 258782 0 438256 254573 0 435341 250371 0 432473 246178 0 429651 241993 0 426876 237816 0 424145 233647 0 421460 229484 0 418820 225329 0 416224 221181 0 413672 217040 0 411163 212905 0 408698 208776 0 406276 204653 0 403896 200536 0 401559 196424 0 399263 192317 0 397009 188215 0 394796 184118 0 392624 180025 0 390492 175936 0 388401 171852 0 386349 167770 0 384337 163692 0 382364 159617 0 380430 155545 0 378535 151476 0 376678 147408 0 374859 143343 0 373078 139279 0 371334 135216 0 369628 131155 0 367958 127095 0 366326 123035 0 364729 118975 0 363169 114915 0 361644 110855 0 360155 106794 0 358702 102733 0 357283 98670 0 355900 94605.7 0 354551 90539.6 0 353236 86471.3 0 351956 82400.7 0 350709 78327.3 0 349496 74250.9 0 348317 70171.2 0 347171 66087.9 0 346058 62000.6 0 344978 57909 0 343930 53812.9 0 342915 49711.8 0 341932 45605.6 0 340981 41493.8 0 340061 37376.2 0 339174 33252.4 0 338317 29122.1 0 337492 24984.9 0 336699 20840.6 0 335935 16688.8 0 335203 12529.2 0 334501 8361.41 0 333830 4185.12 0 333188 0 0 751491 556066 0 744295 550972 0 737192 545893 0 730181 540828 0 723259 535777 0 716426 530742 0 709682 525721 0 703024 520715 0 696452 515725 0 689965 510749 0 683561 505789 0 677240 500845 0 671001 495915 0 664843 491002 0 658764 486103 0 652765 481220 0 646843 476353 0 640999 471502 0 635231 466665 0 629538 461845 0 623920 457040 0 618375 452250 0 612904 447476 0 607504 442717 0 602176 437973 0 596918 433245 0 591730 428532 0 586611 423835 0 581560 419152 0 576577 414484 0 571661 409831 0 566810 405193 0 562025 400570 0 557305 395961 0 552649 391367 0 548056 386787 0 543526 382221 0 539058 377669 0 534652 373132 0 530306 368608 0 526021 364098 0 521795 359601 0 517629 355118 0 513520 350648 0 509470 346191 0 505477 341747 0 501540 337316 0 497660 332897 0 493836 328491 0 490066 324097 0 486351 319715 0 482690 315345 0 479083 310986 0 475529 306639 0 472027 302303 0 468578 297979 0 465179 293665 0 461832 289361 0 458536 285069 0 455290 280786 0 452093 276514 0 448946 272251 0 445847 267998 0 442797 263754 0 439794 259520 0 436839 255294 0 433932 251077 0 431071 246869 0 428256 242669 0 425486 238477 0 422763 234292 0 420084 230115 0 417450 225946 0 414861 221783 0 412315 217628 0 409813 213479 0 407353 209336 0 404937 205199 0 402563 201068 0 400231 196943 0 397941 192822 0 395693 188707 0 393485 184597 0 391318 180491 0 389192 176390 0 387106 172292 0 385059 168198 0 383052 164108 0 381084 160020 0 379155 155936 0 377264 151854 0 375412 147775 0 373597 143698 0 371821 139622 0 370081 135548 0 368379 131475 0 366714 127403 0 365085 123332 0 363492 119261 0 361936 115190 0 360415 111119 0 358929 107047 0 357479 102975 0 356064 98901.5 0 354684 94826.6 0 353338 90749.9 0 352027 86671.2 0 350749 82590.3 0 349506 78506.6 0 348296 74420.1 0 347119 70330.3 0 345976 66237 0 344865 62139.8 0 343787 58038.4 0 342742 53932.5 0 341729 49821.9 0 340748 45706 0 339799 41584.8 0 338882 37457.7 0 337996 33324.6 0 337141 29185 0 336318 25038.6 0 335526 20885.2 0 334764 16724.4 0 334033 12555.7 0 333333 8379.04 0 332663 4193.91 0 332022 0 0 749415 558324 0 742232 553195 0 735141 548081 0 728142 542982 0 721232 537898 0 714412 532829 0 707679 527775 0 701033 522738 0 694473 517715 0 687998 512709 0 681606 507718 0 675297 502743 0 669070 497783 0 662923 492840 0 656856 487912 0 650868 483001 0 644958 478105 0 639125 473225 0 633369 468361 0 627687 463514 0 622080 458681 0 616547 453865 0 611087 449065 0 605698 444280 0 600381 439511 0 595134 434758 0 589957 430020 0 584849 425297 0 579809 420590 0 574836 415899 0 569930 411222 0 565090 406561 0 560316 401914 0 555606 397283 0 550960 392666 0 546377 388064 0 541857 383476 0 537399 378903 0 533002 374344 0 528666 369799 0 524391 365268 0 520175 360751 0 516017 356247 0 511918 351757 0 507877 347280 0 503893 342816 0 499966 338366 0 496095 333928 0 492279 329502 0 488518 325090 0 484812 320689 0 481160 316300 0 477561 311924 0 474015 307559 0 470522 303205 0 467080 298863 0 463690 294532 0 460351 290211 0 457063 285902 0 453824 281602 0 450635 277313 0 447495 273034 0 444404 268765 0 441361 264505 0 438366 260255 0 435419 256014 0 432518 251782 0 429664 247558 0 426856 243343 0 424093 239135 0 421376 234936 0 418704 230745 0 416077 226561 0 413494 222384 0 410954 218214 0 408458 214051 0 406005 209894 0 403595 205743 0 401227 201599 0 398901 197460 0 396616 193326 0 394373 189198 0 392171 185075 0 390010 180956 0 387889 176842 0 385807 172731 0 383766 168625 0 381764 164522 0 379801 160422 0 377876 156326 0 375990 152232 0 374143 148141 0 372333 144051 0 370560 139964 0 368825 135878 0 367127 131794 0 365466 127711 0 363841 123628 0 362252 119546 0 360699 115464 0 359182 111382 0 357701 107300 0 356254 103216 0 354842 99132.3 0 353465 95046.7 0 352123 90959.6 0 350814 86870.5 0 349540 82779.3 0 348299 78685.4 0 347092 74588.8 0 345918 70488.9 0 344777 66385.7 0 343669 62278.6 0 342594 58167.4 0 341551 54051.8 0 340540 49931.5 0 339562 45806.2 0 338615 41675.4 0 337699 37539 0 336816 33396.5 0 335963 29247.7 0 335141 25092.2 0 334351 20929.7 0 333591 16759.8 0 332861 12582.2 0 332162 8396.62 0 331493 4202.66 0 330854 0 0 747330 560577 0 740159 555413 0 733080 550264 0 726093 545131 0 719195 540013 0 712387 534912 0 705667 529826 0 699033 524756 0 692485 519701 0 686022 514664 0 679642 509642 0 673345 504636 0 667129 499647 0 660995 494674 0 654940 489717 0 648964 484777 0 643065 479853 0 637244 474945 0 631499 470054 0 625829 465178 0 620233 460319 0 614711 455477 0 609262 450650 0 603885 445839 0 598579 441045 0 593343 436266 0 588177 431504 0 583079 426757 0 578050 422025 0 573088 417310 0 568193 412610 0 563363 407925 0 558599 403255 0 553900 398601 0 549264 393962 0 544692 389337 0 540182 384728 0 535734 380133 0 531347 375553 0 527021 370986 0 522755 366435 0 518548 361897 0 514401 357373 0 510311 352863 0 506279 348366 0 502305 343882 0 498386 339412 0 494524 334955 0 490717 330511 0 486966 326079 0 483268 321660 0 479625 317253 0 476034 312859 0 472497 308476 0 469012 304105 0 465579 299745 0 462197 295396 0 458866 291059 0 455585 286732 0 452354 282416 0 449173 278111 0 446041 273816 0 442957 269530 0 439922 265255 0 436934 260988 0 433994 256732 0 431100 252484 0 428253 248245 0 425452 244014 0 422696 239792 0 419986 235578 0 417321 231372 0 414700 227174 0 412123 222982 0 409590 218798 0 407100 214621 0 404653 210451 0 402249 206286 0 399887 202128 0 397566 197976 0 395288 193829 0 393050 189687 0 390854 185551 0 388698 181419 0 386582 177292 0 384506 173169 0 382469 169050 0 380472 164935 0 378514 160823 0 376595 156714 0 374713 152609 0 372870 148505 0 371065 144404 0 369297 140305 0 367566 136208 0 365872 132112 0 364215 128018 0 362594 123924 0 361009 119830 0 359460 115737 0 357947 111644 0 356469 107551 0 355026 103457 0 353618 99362.3 0 352244 95266.3 0 350905 91168.7 0 349599 87069.2 0 348328 82967.7 0 347090 78863.7 0 345886 74756.9 0 344715 70647.1 0 343577 66533.9 0 342471 62417 0 341398 58296 0 340358 54170.8 0 339349 50040.9 0 338373 45906 0 337428 41765.8 0 336515 37620 0 335633 33468.3 0 334782 29310.2 0 333962 25145.6 0 333173 20974 0 332415 16795.1 0 331687 12608.6 0 330989 8414.15 0 330321 4211.39 0 329683 0 0 745234 562826 0 738075 557627 0 731009 552444 0 724034 547276 0 717149 542125 0 710353 536990 0 703645 531871 0 697024 526769 0 690488 521683 0 684037 516614 0 677669 511562 0 671384 506526 0 665181 501507 0 659058 496504 0 653015 491518 0 647051 486549 0 641164 481597 0 635355 476661 0 629621 471742 0 623963 466839 0 618379 461954 0 612868 457084 0 607431 452231 0 602065 447395 0 596770 442575 0 591545 437771 0 586390 432984 0 581303 428212 0 576285 423457 0 571334 418717 0 566449 413994 0 561630 409286 0 556877 404593 0 552188 399916 0 547562 395254 0 543000 390608 0 538500 385977 0 534063 381360 0 529686 376758 0 525370 372171 0 521113 367598 0 516917 363040 0 512778 358496 0 508698 353965 0 504676 349449 0 500711 344946 0 496802 340456 0 492949 335980 0 489151 331517 0 485408 327067 0 481719 322629 0 478084 318204 0 474503 313791 0 470974 309390 0 467497 305002 0 464072 300624 0 460