<?xml version="1.0"?> 
<VTKFile type="StructuredGrid" version="0.1"> 
<StructuredGrid WholeExtent="0 127 0 127 0 0"> 
<Piece Extent="0 127 0 127 0 0"> 
<PointData>
<DataArray type="Float32" Name="|E|" format="ascii" NumberOfComponents="3"> 
1.04006e+06 56697.7 0 1.03192e+06 56206.2 0 1.02385e+06 55711.9 0 1.01585e+06 55215.1 0 1.00793e+06 54715.9 0 1.00007e+06 54214.7 0 992294 53711.7 0 984587 53207.1 0 976954 52701.1 0 969394 52193.8 0 961907 51685.6 0 954494 51176.5 0 947155 50666.8 0 939890 50156.6 0 932699 49646 0 925582 49135.2 0 918539 48624.4 0 911569 48113.6 0 904674 47603 0 897852 47092.8 0 891104 46582.9 0 884429 46073.6 0 877829 45564.9 0 871301 45056.9 0 864847 44549.8 0 858467 44043.5 0 852159 43538.2 0 845924 43033.9 0 839762 42530.7 0 833672 42028.7 0 827655 41528 0 821710 41028.5 0 815837 40530.4 0 810036 40033.6 0 804307 39538.4 0 798649 39044.5 0 793061 38552.3 0 787545 38061.5 0 782100 37572.4 0 776725 37084.8 0 771420 36599 0 766185 36114.7 0 761020 35632.2 0 755924 35151.4 0 750897 34672.3 0 745940 34195 0 741051 33719.4 0 736230 33245.6 0 731478 32773.5 0 726793 32303.3 0 722176 31834.8 0 717627 31368.1 0 713145 30903.2 0 708729 30440.2 0 704380 29978.9 0 700098 29519.4 0 695881 29061.7 0 691731 28605.7 0 687646 28151.6 0 683626 27699.2 0 679671 27248.6 0 675781 26799.8 0 671956 26352.6 0 668195 25907.2 0 664497 25463.6 0 660864 25021.6 0 657294 24581.3 0 653788 24142.7 0 650344 23705.8 0 646963 23270.5 0 643645 22836.8 0 640389 22404.7 0 637196 21974.2 0 634064 21545.3 0 630994 21117.9 0 627985 20692.1 0 625037 20267.7 0 622151 19844.9 0 619325 19423.4 0 616560 19003.5 0 613855 18584.9 0 611210 18167.7 0 608625 17751.9 0 606100 17337.4 0 603635 16924.3 0 601229 16512.4 0 598882 16101.8 0 596594 15692.4 0 594365 15284.2 0 592195 14877.3 0 590083 14471.4 0 588029 14066.7 0 586034 13663.1 0 584097 13260.6 0 582217 12859.1 0 580395 12458.6 0 578631 12059.1 0 576924 11660.6 0 575275 11263 0 573683 10866.3 0 572147 10470.5 0 570669 10075.5 0 569247 9681.28 0 567883 9287.88 0 566574 8895.22 0 565322 8503.28 0 564127 8112.03 0 562988 7721.44 0 561904 7331.47 0 560877 6942.11 0 559906 6553.3 0 558991 6165.04 0 558132 5777.27 0 557329 5389.98 0 556581 5003.14 0 555889 4616.7 0 555252 4230.64 0 554671 3844.93 0 554145 3459.53 0 553675 3074.42 0 553261 2689.57 0 552901 2304.93 0 552597 1920.48 0 552348 1536.2 0 552155 1152.04 0 552017 767.972 0 551934 383.97 0 551906 0 0 1.04001e+06 57134.3 0 1.03187e+06 56638.9 0 1.0238e+06 56140.8 0 1.0158e+06 55640.1 0 1.00788e+06 55137.1 0 1.00003e+06 54632 0 992247 54125.1 0 984540 53616.5 0 976907 53106.6 0 969347 52595.4 0 961861 52083.3 0 954449 51570.2 0 947110 51056.6 0 939845 50542.4 0 932654 50027.9 0 925537 49513.2 0 918494 48998.4 0 911525 48483.7 0 904630 47969.1 0 897809 47454.9 0 891061 46941.1 0 884387 46427.9 0 877786 45915.3 0 871259 45403.4 0 864806 44892.3 0 858425 44382.1 0 852118 43872.9 0 845884 43364.7 0 839722 42857.7 0 833633 42351.8 0 827616 41847.2 0 821671 41343.9 0 815799 40841.9 0 809998 40341.4 0 804269 39842.3 0 798611 39344.7 0 793024 38848.6 0 787508 38354.1 0 782063 37861.2 0 776688 37369.9 0 771384 36880.3 0 766149 36392.3 0 760984 35906.1 0 755889 35421.6 0 750863 34938.8 0 745905 34457.8 0 741017 33978.5 0 736196 33501.1 0 731444 33025.4 0 726760 32551.5 0 722144 32079.4 0 717595 31609.2 0 713113 31140.7 0 708697 30674.1 0 704349 30209.2 0 700067 29746.2 0 695850 29285 0 691700 28825.6 0 687615 28367.9 0 683596 27912.1 0 679641 27458 0 675752 27005.7 0 671926 26555.1 0 668165 26106.3 0 664469 25659.3 0 660835 25213.9 0 657266 24770.2 0 653760 24328.3 0 650316 23888 0 646936 23449.3 0 643618 23012.3 0 640362 22576.9 0 637169 22143.1 0 634037 21710.9 0 630967 21280.2 0 627959 20851.1 0 625011 20423.5 0 622125 19997.4 0 619299 19572.7 0 616534 19149.5 0 613830 18727.7 0 611185 18307.3 0 608600 17888.3 0 606076 17470.7 0 603610 17054.3 0 601204 16639.3 0 598858 16225.5 0 596570 15813 0 594341 15401.7 0 592171 14991.6 0 590059 14582.6 0 588006 14174.8 0 586011 13768.1 0 584074 13362.5 0 582194 12957.9 0 580373 12554.4 0 578609 12151.8 0 576902 11750.2 0 575253 11349.6 0 573660 10949.8 0 572125 10550.9 0 570647 10152.9 0 569226 9755.68 0 567861 9359.25 0 566553 8963.57 0 565301 8568.62 0 564105 8174.37 0 562966 7780.77 0 561883 7387.81 0 560856 6995.45 0 559885 6603.66 0 558970 6212.41 0 558111 5821.67 0 557308 5431.4 0 556560 5041.58 0 555868 4652.17 0 555231 4263.15 0 554650 3874.47 0 554125 3486.12 0 553654 3098.05 0 553240 2710.23 0 552880 2322.64 0 552576 1935.24 0 552328 1548 0 552134 1160.89 0 551996 773.873 0 551913 386.921 0 551886 0 0 1.03996e+06 57570.8 0 1.03182e+06 57071.7 0 1.02375e+06 56569.7 0 1.01576e+06 56065.1 0 1.00783e+06 55558.2 0 999978 55049.2 0 992199 54538.4 0 984493 54025.9 0 976860 53512.1 0 969301 52997 0 961815 52480.9 0 954403 51963.9 0 947064 51446.3 0 939800 50928.2 0 932609 50409.7 0 925493 49891.1 0 918450 49372.3 0 911481 48853.7 0 904586 48335.2 0 897765 47817.1 0 891018 47299.3 0 884344 46782.2 0 877744 46265.6 0 871217 45749.8 0 864764 45234.8 0 858384 44720.7 0 852077 44207.6 0 845843 43695.5 0 839682 43184.6 0 833593 42674.9 0 827576 42166.4 0 821632 41659.3 0 815760 41153.5 0 809959 40649.1 0 804231 40146.2 0 798573 39644.8 0 792987 39144.9 0 787471 38646.6 0 782026 38149.9 0 776652 37654.9 0 771348 37161.5 0 766113 36669.9 0 760949 36179.9 0 755854 35691.7 0 750828 35205.2 0 745871 34720.5 0 740982 34237.6 0 736163 33756.5 0 731411 33277.2 0 726727 32799.7 0 722111 32324.1 0 717562 31850.2 0 713080 31378.2 0 708665 30908 0 704317 30439.6 0 700035 29973 0 695819 29508.3 0 691669 29045.4 0 687585 28584.2 0 683565 28124.9 0 679611 27667.4 0 675722 27211.6 0 671897 26757.6 0 668136 26305.4 0 664440 25854.9 0 660807 25406.2 0 657237 24959.1 0 653731 24513.8 0 650288 24070.1 0 646908 23628.1 0 643590 23187.8 0 640335 22749 0 637142 22311.9 0 634010 21876.4 0 630941 21442.5 0 627932 21010.1 0 624985 20579.2 0 622099 20149.8 0 619274 19721.9 0 616509 19295.5 0 613804 18870.5 0 611160 18446.9 0 608575 18024.7 0 606051 17603.9 0 603586 17184.4 0 601180 16766.2 0 598833 16349.2 0 596546 15933.6 0 594317 15519.1 0 592147 15105.9 0 590036 14693.8 0 587983 14282.9 0 585987 13873.1 0 584050 13464.4 0 582171 13056.7 0 580350 12650.1 0 578586 12244.5 0 576879 11839.8 0 575230 11436.1 0 573638 11033.3 0 572103 10631.4 0 570625 10230.3 0 569203 9830.07 0 567839 9430.61 0 566531 9031.92 0 565279 8633.96 0 564084 8236.7 0 562945 7840.1 0 561862 7444.15 0 560835 7048.79 0 559864 6654.02 0 558949 6259.78 0 558090 5866.06 0 557286 5472.82 0 556539 5080.03 0 555847 4687.65 0 555210 4295.66 0 554629 3904.02 0 554104 3512.7 0 553634 3121.67 0 553219 2730.9 0 552860 2340.35 0 552556 1950 0 552307 1559.81 0 552114 1169.74 0 551975 779.774 0 551893 389.871 0 551865 0 0 1.03991e+06 58007.3 0 1.03177e+06 57504.4 0 1.0237e+06 56998.5 0 1.01571e+06 56490.1 0 1.00778e+06 55979.3 0 999931 55466.4 0 992151 54951.7 0 984446 54435.3 0 976813 53917.6 0 969254 53398.5 0 961768 52878.5 0 954356 52357.6 0 947018 51836.1 0 939754 51314 0 932564 50791.6 0 925448 50269 0 918405 49746.3 0 911437 49223.7 0 904542 48701.3 0 897722 48179.2 0 890975 47657.5 0 884301 47136.4 0 877701 46615.9 0 871175 46096.2 0 864722 45577.3 0 858343 45059.3 0 852036 44542.3 0 845802 44026.3 0 839641 43511.5 0 833553 42998 0 827537 42485.6 0 821593 41974.6 0 815721 41465 0 809921 40956.8 0 804192 40450.1 0 798535 39944.8 0 792949 39441.2 0 787434 38939.1 0 781989 38438.7 0 776615 37939.9 0 771311 37442.8 0 766077 36947.4 0 760913 36453.7 0 755818 35961.8 0 750793 35471.7 0 745836 34983.3 0 740948 34496.8 0 736129 34012 0 731377 33529.1 0 726694 33048 0 722078 32568.7 0 717529 32091.2 0 713048 31615.6 0 708633 31141.9 0 704285 30670 0 700004 30199.9 0 695788 29731.6 0 691638 29265.2 0 687554 28800.5 0 683535 28337.7 0 679581 27876.7 0 675692 27417.5 0 671867 26960.1 0 668107 26504.5 0 664410 26050.6 0 660778 25598.4 0 657209 25148 0 653703 24699.3 0 650260 24252.2 0 646880 23806.9 0 643563 23363.2 0 640308 22921.2 0 637115 22480.8 0 633983 22042 0 630914 21604.7 0 627906 21169.1 0 624959 20734.9 0 622073 20302.3 0 619248 19871.2 0 616483 19441.5 0 613779 19013.3 0 611134 18586.5 0 608550 18161.1 0 606026 17737.1 0 603561 17314.4 0 601155 16893 0 598809 16473 0 596522 16054.1 0 594293 15636.6 0 592123 15220.2 0 590012 14805 0 587959 14391 0 585964 13978.1 0 584027 13566.3 0 582148 13155.5 0 580327 12745.8 0 578563 12337.1 0 576857 11929.4 0 575207 11522.6 0 573615 11116.8 0 572081 10711.8 0 570603 10307.7 0 569181 9904.45 0 567817 9501.98 0 566509 9100.27 0 565257 8699.29 0 564062 8299.02 0 562923 7899.43 0 561840 7500.48 0 560813 7102.13 0 559842 6704.37 0 558927 6307.15 0 558068 5910.45 0 557265 5514.23 0 556517 5118.47 0 555825 4723.12 0 555189 4328.16 0 554608 3933.56 0 554082 3539.28 0 553612 3145.29 0 553198 2751.56 0 552839 2358.06 0 552535 1964.76 0 552286 1571.61 0 552093 1178.59 0 551954 785.675 0 551872 392.821 0 551844 0 0 1.03986e+06 58443.8 0 1.03172e+06 57937 0 1.02366e+06 57427.4 0 1.01566e+06 56915.1 0 1.00773e+06 56400.4 0 999882 55883.6 0 992104 55365 0 984398 54844.7 0 976766 54323 0 969207 53800.1 0 961721 53276.1 0 954310 52751.3 0 946972 52225.8 0 939708 51699.8 0 932519 51173.4 0 925403 50646.8 0 918361 50120.2 0 911392 49593.6 0 904498 49067.3 0 897678 48541.3 0 890931 48015.7 0 884258 47490.6 0 877659 46966.2 0 871133 46442.6 0 864680 45919.7 0 858301 45397.8 0 851994 44877 0 845761 44357.1 0 839600 43838.5 0 833512 43321 0 827497 42804.8 0 821553 42290 0 815682 41776.5 0 809882 41264.5 0 804154 40753.9 0 798497 40244.9 0 792911 39737.4 0 787396 39231.6 0 781952 38727.4 0 776578 38224.9 0 771275 37724 0 766041 37224.9 0 760877 36727.5 0 755783 36231.9 0 750758 35738.1 0 745801 35246.1 0 740914 34755.8 0 736094 34267.4 0 731343 33780.9 0 726660 33296.2 0 722044 32813.3 0 717496 32332.3 0 713015 31853.1 0 708601 31375.8 0 704253 30900.3 0 699972 30426.7 0 695757 29954.9 0 691607 29484.9 0 687523 29016.8 0 683504 28550.6 0 679551 28086.1 0 675662 27623.4 0 671837 27162.6 0 668077 26703.5 0 664381 26246.2 0 660749 25790.6 0 657180 25336.8 0 653674 24884.7 0 650232 24434.4 0 646852 23985.7 0 643535 23538.7 0 640280 23093.3 0 637087 22649.6 0 633956 22207.5 0 630887 21767 0 627879 21328 0 624932 20890.6 0 622047 20454.8 0 619222 20020.4 0 616457 19587.5 0 613753 19156.1 0 611109 18726.1 0 608525 18297.5 0 606001 17870.3 0 603536 17444.4 0 601131 17019.9 0 598784 16596.7 0 596497 16174.7 0 594269 15754 0 592099 15334.5 0 589988 14916.2 0 587935 14499.1 0 585940 14083 0 584004 13668.1 0 582125 13254.3 0 580303 12841.5 0 578540 12429.8 0 576834 12019 0 575185 11609.2 0 573593 11200.3 0 572058 10792.3 0 570580 10385.1 0 569159 9978.83 0 567794 9573.33 0 566486 9168.61 0 565235 8764.62 0 564040 8361.35 0 562901 7958.75 0 561818 7556.8 0 560791 7155.47 0 559821 6754.72 0 558906 6354.52 0 558047 5954.84 0 557243 5555.64 0 556496 5156.9 0 555804 4758.59 0 555167 4360.67 0 554587 3963.1 0 554061 3565.86 0 553591 3168.91 0 553177 2772.23 0 552817 2375.77 0 552513 1979.51 0 552265 1583.41 0 552071 1187.44 0 551933 791.575 0 551850 395.771 0 551823 0 0 1.03982e+06 58880.4 0 1.03167e+06 58369.7 0 1.02361e+06 57856.2 0 1.01561e+06 57340 0 1.00769e+06 56821.5 0 999834 56300.8 0 992056 55778.3 0 984350 55254.1 0 976718 54728.5 0 969159 54201.6 0 961675 53673.7 0 954263 53144.9 0 946926 52615.5 0 939662 52085.5 0 932473 51555.2 0 925357 51024.7 0 918315 50494.1 0 911348 49963.6 0 904454 49433.3 0 897634 48903.3 0 890887 48373.8 0 884215 47844.8 0 877616 47316.5 0 871090 46788.9 0 864638 46262.2 0 858259 45736.4 0 851953 45211.6 0 845720 44687.9 0 839560 44165.3 0 833472 43644 0 827456 43124 0 821513 42605.3 0 815642 42088 0 809843 41572.1 0 804115 41057.8 0 798458 40544.9 0 792873 40033.7 0 787358 39524.1 0 781915 39016.1 0 776541 38509.8 0 771238 38005.2 0 766005 37502.4 0 760841 37001.3 0 755747 36502 0 750722 36004.5 0 745766 35508.8 0 740879 35014.9 0 736060 34522.9 0 731309 34032.7 0 726626 33544.3 0 722011 33057.9 0 717463 32573.3 0 712982 32090.5 0 708568 31609.6 0 704221 31130.6 0 699940 30653.4 0 695725 30178.1 0 691576 29704.7 0 687492 29233.1 0 683474 28763.3 0 679520 28295.4 0 675632 27829.3 0 671807 27365 0 668048 26902.5 0 664352 26441.8 0 660720 25982.9 0 657151 25525.7 0 653646 25070.2 0 650203 24616.5 0 646824 24164.4 0 643507 23714.1 0 640252 23265.4 0 637060 22818.4 0 633929 22373 0 630860 21929.2 0 627852 21487 0 624906 21046.3 0 622020 20607.2 0 619195 20169.6 0 616431 19733.5 0 613727 19298.9 0 611083 18865.7 0 608500 18433.9 0 605975 18003.5 0 603511 17574.4 0 601106 17146.7 0 598760 16720.4 0 596473 16295.2 0 594244 15871.4 0 592075 15448.8 0 589964 15027.4 0 587911 14607.1 0 585917 14188 0 583980 13770 0 582101 13353.1 0 580280 12937.2 0 578517 12522.4 0 576810 12108.6 0 575162 11695.7 0 573570 11283.7 0 572035 10872.7 0 570557 10462.5 0 569136 10053.2 0 567772 9644.68 0 566464 9236.94 0 565213 8829.94 0 564018 8423.66 0 562879 8018.07 0 561796 7613.12 0 560769 7208.8 0 559799 6805.06 0 558884 6401.88 0 558025 5999.22 0 557222 5597.05 0 556474 5195.34 0 555782 4794.06 0 555146 4393.17 0 554565 3992.64 0 554040 3592.44 0 553570 3192.53 0 553155 2792.89 0 552796 2393.48 0 552492 1994.26 0 552243 1595.21 0 552050 1196.29 0 551912 797.475 0 551829 398.721 0 551802 0 0 1.03977e+06 59316.8 0 1.03163e+06 58802.4 0 1.02356e+06 58285 0 1.01556e+06 57765 0 1.00764e+06 57242.6 0 999785 56718 0 992007 56191.6 0 984302 55663.5 0 976670 55133.9 0 969112 54603.1 0 961627 54071.2 0 954216 53538.5 0 946879 53005.1 0 939616 52471.2 0 932427 51937 0 925312 51402.5 0 918270 50868 0 911303 50333.5 0 904409 49799.3 0 897589 49265.4 0 890843 48731.9 0 884171 48199 0 877572 47666.8 0 871047 47135.3 0 864595 46604.6 0 858217 46074.9 0 851911 45546.2 0 845678 45018.6 0 839518 44492.2 0 833431 43967 0 827416 43443.1 0 821473 42920.6 0 815602 42399.4 0 809803 41879.7 0 804076 41361.6 0 798420 40845 0 792835 40329.9 0 787321 39816.5 0 781877 39304.8 0 776504 38794.8 0 771201 38286.4 0 765968 37779.9 0 760805 37275.1 0 755711 36772.1 0 750687 36270.9 0 745731 35771.5 0 740844 35274 0 736025 34778.3 0 731275 34284.5 0 726592 33792.5 0 721977 33302.4 0 717430 32814.2 0 712949 32327.9 0 708535 31843.5 0 704188 31360.9 0 699908 30880.2 0 695693 30401.4 0 691544 29924.4 0 687461 29449.4 0 683442 28976.1 0 679489 28504.7 0 675601 28035.2 0 671777 27567.5 0 668018 27101.5 0 664322 26637.4 0 660690 26175.1 0 657122 25714.5 0 653617 25255.7 0 650175 24798.6 0 646795 24343.2 0 643479 23889.5 0 640224 23437.5 0 637032 22987.2 0 633901 22538.5 0 630833 22091.4 0 627825 21645.9 0 624879 21202 0 621993 20759.6 0 619169 20318.8 0 616405 19879.5 0 613701 19441.6 0 611058 19005.2 0 608474 18570.2 0 605950 18136.6 0 603486 17704.4 0 601081 17273.6 0 598735 16844 0 596448 16415.8 0 594220 15988.8 0 592051 15563.1 0 589940 15138.5 0 587887 14715.2 0 585893 14293 0 583956 13871.9 0 582077 13451.9 0 580256 13032.9 0 578493 12615 0 576787 12198.1 0 575138 11782.2 0 573547 11367.2 0 572012 10953.1 0 570534 10539.9 0 569114 10127.6 0 567749 9716.03 0 566441 9305.27 0 565190 8895.26 0 563995 8485.98 0 562856 8077.38 0 561774 7669.44 0 560747 7262.12 0 559777 6855.4 0 558862 6449.23 0 558003 6043.6 0 557200 5638.45 0 556452 5233.77 0 555761 4829.52 0 555124 4425.66 0 554543 4022.17 0 554018 3619.01 0 553548 3216.15 0 553134 2813.55 0 552774 2411.18 0 552471 2009.02 0 552222 1607.01 0 552029 1205.14 0 551891 803.374 0 551808 401.671 0 551780 0 0 1.03972e+06 59753.3 0 1.03158e+06 59235 0 1.02351e+06 58713.8 0 1.01551e+06 58189.9 0 1.00759e+06 57663.6 0 999737 57135.2 0 991959 56604.8 0 984254 56072.8 0 976622 55539.3 0 969064 55004.6 0 961580 54468.8 0 954169 53932.1 0 946833 53394.8 0 939570 52856.9 0 932381 52318.7 0 925266 51780.3 0 918225 51241.8 0 911258 50703.4 0 904364 50165.3 0 897545 49627.4 0 890799 49090 0 884127 48553.2 0 877529 48017 0 871004 47481.6 0 864553 46947 0 858174 46413.4 0 851869 45880.8 0 845637 45349.4 0 839477 44819 0 833390 44290 0 827375 43762.2 0 821433 43235.8 0 815562 42710.9 0 809764 42187.4 0 804037 41665.4 0 798381 41145 0 792796 40626.1 0 787282 40109 0 781839 39593.5 0 776467 39079.7 0 771164 38567.6 0 765931 38057.3 0 760769 37548.8 0 755675 37042.1 0 750651 36537.2 0 745695 36034.2 0 740809 35533 0 735990 35033.7 0 731240 34536.2 0 726558 34040.7 0 721943 33547 0 717396 33055.2 0 712916 32565.3 0 708503 32077.3 0 704156 31591.2 0 699875 31107 0 695661 30624.6 0 691512 30144.2 0 687429 29665.6 0 683411 29188.9 0 679458 28714 0 675570 28241 0 671747 27769.9 0 667987 27300.5 0 664292 26833 0 660661 26367.3 0 657092 25903.3 0 653588 25441.1 0 650146 24980.7 0 646767 24521.9 0 643450 24064.9 0 640196 23609.6 0 637004 23156 0 633874 22704 0 630805 22253.6 0 627798 21804.9 0 624852 21357.7 0 621967 20912.1 0 619142 20468 0 616378 20025.4 0 613675 19584.4 0 611031 19144.7 0 608448 18706.6 0 605924 18269.8 0 603460 17834.4 0 601055 17400.4 0 598710 16967.7 0 596423 16536.3 0 594195 16106.2 0 592026 15677.3 0 589915 15249.7 0 587863 14823.2 0 585868 14397.9 0 583932 13973.7 0 582054 13550.6 0 580233 13128.6 0 578470 12707.7 0 576764 12287.7 0 575115 11868.7 0 573524 11450.7 0 571989 11033.6 0 570511 10617.3 0 569091 10201.9 0 567726 9787.37 0 566419 9373.59 0 565168 8960.58 0 563973 8548.29 0 562834 8136.69 0 561751 7725.75 0 560725 7315.45 0 559754 6905.74 0 558840 6496.59 0 557981 6087.97 0 557178 5679.85 0 556430 5272.2 0 555739 4864.98 0 555102 4458.16 0 554522 4051.71 0 553996 3645.58 0 553527 3239.76 0 553112 2834.21 0 552753 2428.89 0 552449 2023.77 0 552200 1618.81 0 552007 1213.99 0 551869 809.273 0 551786 404.62 0 551759 0 0 1.03967e+06 60189.8 0 1.03153e+06 59667.7 0 1.02346e+06 59142.6 0 1.01546e+06 58614.8 0 1.00754e+06 58084.7 0 999688 57552.3 0 991910 57018.1 0 984205 56482.1 0 976574 55944.7 0 969016 55406.1 0 961532 54866.3 0 954122 54325.7 0 946786 53784.4 0 939523 53242.6 0 932334 52700.5 0 925220 52158.1 0 918179 51615.7 0 911212 51073.3 0 904319 50531.2 0 897500 49989.4 0 890755 49448.1 0 884083 48907.3 0 877485 48367.2 0 870961 47827.9 0 864510 47289.4 0 858132 46751.9 0 851827 46215.4 0 845595 45680.1 0 839436 45145.9 0 833349 44612.9 0 827335 44081.3 0 821392 43551.1 0 815522 43022.3 0 809724 42494.9 0 803997 41969.2 0 798342 41444.9 0 792757 40922.3 0 787244 40401.4 0 781801 39882.1 0 776429 39364.6 0 771127 38848.8 0 765894 38334.8 0 760732 37822.5 0 755639 37312.1 0 750615 36803.6 0 745660 36296.9 0 740773 35792 0 735955 35289 0 731206 34788 0 726524 34288.8 0 721909 33791.5 0 717362 33296.1 0 712882 32802.7 0 708469 32311.1 0 704123 31821.4 0 699843 31333.7 0 695629 30847.8 0 691480 30363.9 0 687397 29881.8 0 683380 29401.6 0 679427 28923.3 0 675539 28446.9 0 671716 27972.3 0 667957 27499.5 0 664262 27028.6 0 660631 26559.4 0 657063 26092.1 0 653558 25626.5 0 650117 25162.7 0 646738 24700.7 0 643422 24240.3 0 640168 23781.7 0 636976 23324.7 0 633846 22869.5 0 630777 22415.8 0 627770 21963.8 0 624825 21513.3 0 621940 21064.5 0 619115 20617.2 0 616352 20171.4 0 613648 19727.1 0 611005 19284.3 0 608422 18842.9 0 605899 18403 0 603435 17964.4 0 601030 17527.2 0 598684 17091.4 0 596398 16656.8 0 594170 16223.6 0 592001 15791.6 0 589891 15360.8 0 587838 14931.2 0 585844 14502.8 0 583908 14075.6 0 582030 13649.4 0 580209 13224.3 0 578446 12800.3 0 576740 12377.3 0 575092 11955.2 0 573500 11534.1 0 571966 11114 0 570488 10694.7 0 569068 10276.3 0 567704 9858.7 0 566396 9441.91 0 565145 9025.89 0 563950 8610.59 0 562811 8195.99 0 561729 7782.06 0 560703 7368.76 0 559732 6956.07 0 558818 6543.94 0 557959 6132.34 0 557156 5721.25 0 556408 5310.63 0 555717 4900.44 0 555080 4490.65 0 554500 4081.24 0 553974 3672.16 0 553505 3263.38 0 553090 2854.87 0 552731 2446.59 0 552427 2038.52 0 552179 1630.61 0 551985 1222.84 0 551847 815.171 0 551764 407.569 0 551737 0 0 1.03962e+06 60626.3 0 1.03148e+06 60100.3 0 1.02341e+06 59571.4 0 1.01541e+06 59039.8 0 1.00749e+06 58505.7 0 999639 57969.5 0 991861 57431.3 0 984157 56891.4 0 976526 56350.1 0 968968 55807.5 0 961485 55263.8 0 954075 54719.3 0 946738 54174.1 0 939476 53628.3 0 932288 53082.2 0 925174 52535.9 0 918133 51989.5 0 911167 51443.2 0 904274 50897.1 0 897455 50351.4 0 890711 49806.1 0 884039 49261.4 0 877442 48717.4 0 870917 48174.2 0 864467 47631.8 0 858089 47090.4 0 851784 46550 0 845553 46010.7 0 839394 45472.7 0 833308 44935.9 0 827294 44400.4 0 821352 43866.3 0 815482 43333.7 0 809684 42802.5 0 803958 42272.9 0 798302 41744.9 0 792718 41218.5 0 787205 40693.8 0 781763 40170.7 0 776391 39649.5 0 771089 39129.9 0 765857 38612.2 0 760695 38096.2 0 755602 37582.1 0 750579 37069.9 0 745624 36559.5 0 740738 36051 0 735920 35544.4 0 731171 35039.7 0 726489 34536.9 0 721875 34036 0 717328 33537.1 0 712849 33040 0 708436 32544.9 0 704090 32051.7 0 699810 31560.4 0 695596 31071 0 691448 30583.6 0 687366 30098 0 683348 29614.4 0 679396 29132.6 0 675508 28652.7 0 671685 28174.7 0 667927 27698.5 0 664232 27224.1 0 660601 26751.6 0 657033 26280.9 0 653529 25811.9 0 650088 25344.8 0 646709 24879.4 0 643393 24415.7 0 640139 23953.8 0 636948 23493.5 0 633818 23034.9 0 630750 22578 0 627743 22122.7 0 624797 21669 0 621912 21216.9 0 619088 20766.3 0 616325 20317.3 0 613622 19869.8 0 610979 19423.8 0 608396 18979.2 0 605873 18536.1 0 603409 18094.4 0 601004 17654 0 598659 17215 0 596373 16777.4 0 594145 16341 0 591976 15905.8 0 589866 15472 0 587814 15039.3 0 585820 14607.8 0 583884 14177.4 0 582005 13748.2 0 580185 13320 0 578422 12892.9 0 576716 12466.8 0 575068 12041.7 0 573477 11617.6 0 571942 11194.4 0 570465 10772.1 0 569044 10350.6 0 567680 9930.03 0 566373 9510.23 0 565122 9091.19 0 563927 8672.89 0 562789 8255.29 0 561706 7838.37 0 560680 7422.08 0 559710 7006.4 0 558795 6591.28 0 557936 6176.71 0 557133 5762.65 0 556386 5349.05 0 555694 4935.9 0 555058 4523.14 0 554478 4110.77 0 553952 3698.72 0 553483 3286.99 0 553068 2875.52 0 552709 2464.29 0 552405 2053.27 0 552157 1642.41 0 551963 1231.69 0 551825 821.069 0 551742 410.518 0 551715 0 0 1.03956e+06 61062.7 0 1.03143e+06 60532.9 0 1.02336e+06 60000.1 0 1.01536e+06 59464.6 0 1.00744e+06 58926.7 0 999589 58386.6 0 991812 57844.5 0 984108 57300.7 0 976477 56755.5 0 968920 56208.9 0 961437 55661.3 0 954027 55112.8 0 946691 54563.7 0 939429 54014 0 932241 53463.9 0 925127 52913.6 0 918087 52363.3 0 911121 51813.1 0 904229 51263.1 0 897410 50713.4 0 890666 50164.2 0 883995 49615.5 0 877398 49067.6 0 870874 48520.4 0 864423 47974.1 0 858046 47428.8 0 851742 46884.5 0 845510 46341.4 0 839352 45799.5 0 833266 45258.8 0 827252 44719.5 0 821311 44181.5 0 815441 43645 0 809644 43110.1 0 803918 42576.7 0 798263 42044.8 0 792679 41514.6 0 787167 40986.1 0 781725 40459.4 0 776353 39934.3 0 771051 39411 0 765820 38889.6 0 760658 38369.9 0 755565 37852.1 0 750542 37336.2 0 745588 36822.2 0 740702 36310 0 735885 35799.7 0 731136 35291.4 0 726454 34785 0 721841 34280.5 0 717294 33778 0 712815 33277.3 0 708402 32778.7 0 704057 32281.9 0 699777 31787.1 0 695563 31294.2 0 691416 30803.3 0 687333 30314.2 0 683316 29827.1 0 679364 29341.9 0 675477 28858.5 0 671654 28377 0 667896 27897.4 0 664201 27419.7 0 660571 26943.7 0 657003 26469.6 0 653499 25997.3 0 650058 25526.8 0 646680 25058.1 0 643364 24591.1 0 640111 24125.8 0 636919 23662.2 0 633790 23200.4 0 630722 22740.2 0 627715 22281.6 0 624770 21824.6 0 621885 21369.3 0 619061 20915.5 0 616298 20463.3 0 613595 20012.5 0 610952 19563.3 0 608370 19115.6 0 605846 18669.2 0 603383 18224.3 0 600978 17780.8 0 598633 17338.7 0 596347 16897.9 0 594120 16458.3 0 591951 16020.1 0 589841 15583.1 0 587789 15147.3 0 585795 14712.7 0 583859 14279.2 0 581981 13846.9 0 580161 13415.7 0 578398 12985.5 0 576692 12556.4 0 575044 12128.2 0 573453 11701 0 571919 11274.8 0 570442 10849.4 0 569021 10425 0 567657 10001.4 0 566350 9578.53 0 565099 9156.49 0 563904 8735.18 0 562766 8314.59 0 561683 7894.67 0 560657 7475.39 0 559687 7056.72 0 558772 6638.63 0 557914 6221.08 0 557111 5804.04 0 556364 5387.47 0 555672 4971.35 0 555036 4555.63 0 554455 4140.29 0 553930 3725.29 0 553460 3310.6 0 553046 2896.18 0 552687 2481.99 0 552383 2068.01 0 552135 1654.21 0 551941 1240.54 0 551803 826.967 0 551720 413.466 0 551693 0 0 1.03951e+06 61499.1 0 1.03137e+06 60965.5 0 1.02331e+06 60428.9 0 1.01531e+06 59889.5 0 1.00739e+06 59347.7 0 999540 58803.7 0 991763 58257.7 0 984059 57710 0 976428 57160.8 0 968872 56610.4 0 961388 56058.8 0 953979 55506.4 0 946644 54953.2 0 939382 54399.6 0 932194 53845.6 0 925081 53291.4 0 918041 52737.1 0 911075 52182.9 0 904183 51628.9 0 897365 51075.3 0 890621 50522.2 0 883950 49969.6 0 877353 49417.8 0 870830 48866.7 0 864380 48316.5 0 858003 47767.2 0 851699 47219.1 0 845468 46672 0 839310 46126.2 0 833224 45581.7 0 827211 45038.5 0 821270 44496.7 0 815401 43956.4 0 809603 43417.6 0 803878 42880.4 0 798223 42344.8 0 792640 41810.8 0 787128 41278.5 0 781686 40747.9 0 776315 40219.2 0 771013 39692.1 0 765782 39167 0 760621 38643.6 0 755529 38122.1 0 750506 37602.5 0 745552 37084.8 0 740666 36569 0 735849 36055.1 0 731100 35543.1 0 726419 35033.1 0 721806 34525 0 717260 34018.9 0 712781 33514.7 0 708369 33012.4 0 704023 32512.1 0 699744 32013.8 0 695531 31517.4 0 691383 31022.9 0 687301 30530.4 0 683285 30039.8 0 679333 29551.1 0 675446 29064.3 0 671623 28579.4 0 667865 28096.4 0 664171 27615.2 0 660540 27135.9 0 656973 26658.4 0 653469 26182.7 0 650029 25708.9 0 646651 25236.8 0 643335 24766.4 0 640082 24297.8 0 636891 23831 0 633761 23365.8 0 630693 22902.3 0 627687 22440.5 0 624742 21980.3 0 621858 21521.7 0 619034 21064.6 0 616271 20609.2 0 613568 20155.2 0 610926 19702.8 0 608343 19251.9 0 605820 18802.4 0 603357 18354.3 0 600953 17907.6 0 598608 17462.3 0 596322 17018.4 0 594094 16575.7 0 591926 16134.3 0 589816 15694.2 0 587764 15255.3 0 585770 14817.6 0 583834 14381.1 0 581956 13945.6 0 580136 13511.3 0 578373 13078.1 0 576668 12645.9 0 575020 12214.7 0 573429 11784.5 0 571895 11355.2 0 570418 10926.8 0 568997 10499.3 0 567634 10072.7 0 566326 9646.84 0 565076 9221.78 0 563881 8797.47 0 562743 8373.88 0 561660 7950.96 0 560634 7528.69 0 559664 7107.04 0 558750 6685.97 0 557891 6265.44 0 557088 5845.42 0 556341 5425.89 0 555650 5006.8 0 555013 4588.12 0 554433 4169.82 0 553908 3751.86 0 553438 3334.2 0 553024 2916.83 0 552665 2499.69 0 552361 2082.76 0 552112 1666 0 551919 1249.38 0 551781 832.864 0 551698 416.415 0 551671 0 0 1.03946e+06 61935.6 0 1.03132e+06 61398.1 0 1.02326e+06 60857.6 0 1.01526e+06 60314.4 0 1.00734e+06 59768.7 0 999490 59220.8 0 991713 58670.9 0 984010 58119.3 0 976379 57566.2 0 968823 57011.8 0 961340 56456.3 0 953931 55899.9 0 946596 55342.8 0 939334 54785.2 0 932147 54227.2 0 925034 53669.1 0 917994 53110.9 0 911029 52552.7 0 904137 51994.8 0 897320 51437.3 0 890576 50880.2 0 883905 50323.7 0 877309 49767.9 0 870786 49212.9 0 864336 48658.8 0 857959 48105.6 0 851656 47553.6 0 845425 47002.7 0 839267 46453 0 833182 45904.6 0 827169 45357.5 0 821229 44811.9 0 815360 44267.7 0 809563 43725.1 0 803838 43184.1 0 798183 42644.7 0 792601 42106.9 0 787088 41570.8 0 781647 41036.5 0 776276 40504 0 770975 39973.2 0 765744 39444.3 0 760583 38917.3 0 755491 38392.1 0 750469 37868.8 0 745515 37347.4 0 740630 36827.9 0 735813 36310.4 0 731065 35794.8 0 726384 35281.1 0 721771 34769.4 0 717225 34259.7 0 712747 33752 0 708335 33246.2 0 703990 32742.3 0 699711 32240.5 0 695498 31740.5 0 691350 31242.6 0 687269 30746.6 0 683252 30252.5 0 679301 29760.3 0 675414 29270.1 0 671592 28781.7 0 667834 28295.3 0 664140 27810.7 0 660510 27328 0 656943 26847.1 0 653439 26368.1 0 649999 25890.9 0 646621 25415.4 0 643306 24941.8 0 640053 24469.9 0 636862 23999.7 0 633733 23531.2 0 630665 23064.5 0 627659 22599.3 0 624714 22135.9 0 621830 21674 0 619007 21213.8 0 616244 20755.1 0 613541 20297.9 0 610899 19842.3 0 608316 19388.2 0 605794 18935.5 0 603330 18484.2 0 600926 18034.4 0 598582 17586 0 596296 17138.8 0 594069 16693.1 0 591900 16248.6 0 589790 15805.3 0 587739 15363.3 0 585745 14922.5 0 583810 14482.9 0 581932 14044.4 0 580112 13607 0 578349 13170.7 0 576644 12735.4 0 574996 12301.2 0 573405 11867.9 0 571871 11435.6 0 570394 11004.2 0 568974 10573.7 0 567610 10144 0 566303 9715.14 0 565052 9287.07 0 563858 8859.76 0 562719 8433.16 0 561637 8007.25 0 560611 7582 0 559641 7157.36 0 558727 6733.3 0 557868 6309.8 0 557066 5886.81 0 556318 5464.3 0 555627 5042.25 0 554991 4620.6 0 554410 4199.34 0 553885 3778.42 0 553416 3357.81 0 553001 2937.48 0 552642 2517.39 0 552338 2097.51 0 552090 1677.8 0 551897 1258.23 0 551759 838.761 0 551676 419.363 0 551648 0 0 1.03941e+06 62372 0 1.03127e+06 61830.7 0 1.02321e+06 61286.4 0 1.01521e+06 60739.3 0 1.00729e+06 60189.7 0 999440 59637.8 0 991663 59084 0 983960 58528.5 0 976330 57971.5 0 968774 57413.1 0 961291 56853.7 0 953883 56293.4 0 946548 55732.4 0 939287 55170.8 0 932100 54608.9 0 924987 54046.8 0 917948 53484.6 0 910982 52922.5 0 904091 52360.7 0 897274 51799.2 0 890530 51238.2 0 883860 50677.7 0 877264 50118 0 870741 49559.1 0 864292 49001.1 0 857916 48444 0 851613 47888.1 0 845382 47333.3 0 839225 46779.7 0 833140 46227.4 0 827127 45676.5 0 821187 45127.1 0 815319 44579.1 0 809522 44032.6 0 803797 43487.8 0 798143 42944.5 0 792561 42403 0 787049 41863.2 0 781608 41325.1 0 776237 40788.8 0 770937 40254.3 0 765706 39721.7 0 760546 39190.9 0 755454 38662 0 750432 38135 0 745478 37610 0 740594 37086.8 0 735777 36565.6 0 731029 36046.4 0 726349 35529.2 0 721736 35013.9 0 717191 34500.6 0 712712 33989.2 0 708301 33479.9 0 703956 32972.5 0 699677 32467.1 0 695464 31963.7 0 691318 31462.2 0 687236 30962.7 0 683220 30465.1 0 679269 29969.5 0 675382 29475.8 0 671561 28984.1 0 667803 28494.2 0 664109 28006.2 0 660479 27520.1 0 656913 27035.9 0 653409 26553.5 0 649969 26072.9 0 646591 25594.1 0 643276 25117.1 0 640024 24641.9 0 636833 24168.4 0 633704 23696.6 0 630637 23226.6 0 627631 22758.2 0 624686 22291.5 0 621802 21826.4 0 618979 21362.9 0 616216 20901 0 613514 20440.6 0 610872 19981.8 0 608290 19524.5 0 605767 19068.6 0 603304 18614.2 0 600900 18161.2 0 598556 17709.6 0 596270 17259.