<?xml version="1.0"?> 
<VTKFile type="StructuredGrid" version="0.1"> 
<StructuredGrid WholeExtent="0 127 0 127 0 0"> 
<Piece Extent="0 127 0 127 0 0"> 
<PointData>
<DataArray type="Float32" Name="|E|" format="ascii" NumberOfComponents="3"> 
1.04176e+06 -1.90735e-06 0 1.03363e+06 1.10893e-06 0 1.02557e+06 8.30972e-07 0 1.01758e+06 -1.29988e-06 0 1.00966e+06 -2.4943e-06 0 1.00181e+06 1.34559e-06 0 994039 -9.36227e-07 0 986338 -4.26953e-07 0 978709 -1.81058e-06 0 971153 2.58326e-07 0 963670 -1.40315e-06 0 956260 1.2907e-06 0 948923 -2.01666e-06 0 941659 1.46148e-06 0 934469 -3.26766e-06 0 927353 6.30971e-08 0 920309 -2.76743e-06 0 913339 9.42964e-08 0 906443 -1.47335e-06 0 899620 8.9407e-07 0 892871 -2.74088e-06 0 886194 7.41333e-07 0 879591 -1.5758e-06 0 873061 -8.67993e-07 0 866605 -1.49524e-06 0 860221 -6.63102e-07 0 853909 -1.09989e-06 0 847671 1.28709e-06 0 841505 -2.00048e-06 0 835411 -1.24797e-07 0 829390 -2.72691e-06 0 823440 -1.11014e-06 0 817563 -1.12876e-06 0 811757 7.05943e-07 0 806022 -1.04867e-06 0 800359 8.13976e-07 0 794766 -1.53109e-06 0 789245 -1.17347e-06 0 783794 -1.25915e-06 0 778413 -5.21541e-07 0 773103 -2.19047e-06 0 767862 3.5204e-07 0 762691 -1.48267e-06 0 757589 -2.01166e-07 0 752556 -1.35601e-06 0 747593 -8.08388e-07 0 742698 -1.76206e-06 0 737871 -1.3411e-07 0 733113 -6.74278e-07 0 728422 -5.06639e-07 0 723799 -4.17233e-07 0 719243 -2.19792e-07 0 714755 -1.00583e-06 0 710333 -6.51926e-07 0 705978 -1.45659e-06 0 701689 -8.49366e-07 0 697467 -1.04308e-06 0 693310 -1.05053e-06 0 689219 -1.46031e-06 0 685193 -1.3411e-07 0 681232 -5.58794e-07 0 677336 -3.12924e-07 0 673504 -1.07288e-06 0 669737 -8.12113e-07 0 666034 -3.20375e-07 0 662395 -7.22706e-07 0 658819 -8.34465e-07 0 655307 -8.49366e-07 0 651858 -5.43892e-07 0 648471 -1.05053e-06 0 645147 -1.2666e-06 0 641886 -8.34465e-07 0 638687 -8.12113e-07 0 635550 -6.18398e-07 0 632474 -6.78003e-07 0 629460 -5.96046e-07 0 626507 -2.23517e-07 0 623616 -7.15256e-07 0 620785 -6.55651e-07 0 618015 -6.63102e-07 0 615305 -1.78814e-07 0 612655 -6.70552e-07 0 610066 -8.04663e-07 0 607536 -6.03497e-07 0 605066 -4.02331e-07 0 602656 -5.88596e-07 0 600305 -5.66244e-07 0 598013 -6.85453e-07 0 595780 -2.23517e-08 0 593605 -7.82311e-07 0 591489 -4.54485e-07 0 589432 -3.57628e-07 0 587433 3.72529e-08 0 585492 -5.81145e-07 0 583609 -3.50177e-07 0 581784 -8.12113e-07 0 580016 1.41561e-07 0 578306 -6.18398e-07 0 576653 -3.42727e-07 0 575058 -2.90573e-07 0 573520 -2.01166e-07 0 572039 -2.75671e-07 0 570614 -2.98023e-07 0 569247 -3.94881e-07 0 567936 -8.19564e-08 0 566682 -4.17233e-07 0 565484 -7.45058e-08 0 564342 -4.02331e-07 0 563257 2.23517e-08 0 562228 -2.45869e-07 0 561255 -1.63913e-07 0 560338 -1.78814e-07 0 559477 -8.9407e-08 0 558672 -2.68221e-07 0 557923 -2.08616e-07 0 557229 -1.04308e-07 0 556591 -1.49012e-07 0 556009 -1.56462e-07 0 555483 -1.22935e-07 0 555012 -7.82311e-08 0 554596 -1.08033e-07 0 554236 -4.47035e-08 0 553931 -4.47035e-08 0 553682 -3.91155e-08 0 553488 -2.98023e-08 0 553350 -3.25963e-08 0 553267 -1.11759e-08 0 553239 0 0 1.04176e+06 446.239 0 1.03363e+06 442.386 0 1.02557e+06 438.511 0 1.01758e+06 434.615 0 1.00966e+06 430.7 0 1.00181e+06 426.768 0 994039 422.822 0 986338 418.862 0 978709 414.89 0 971153 410.908 0 963670 406.918 0 956260 402.92 0 948923 398.917 0 941659 394.909 0 934469 390.898 0 927352 386.885 0 920309 382.871 0 913339 378.857 0 906443 374.844 0 899620 370.834 0 892870 366.826 0 886194 362.822 0 879591 358.822 0 873061 354.828 0 866604 350.84 0 860220 346.858 0 853909 342.884 0 847671 338.918 0 841505 334.96 0 835411 331.011 0 829390 327.072 0 823440 323.143 0 817563 319.224 0 811757 315.315 0 806022 311.418 0 800359 307.532 0 794766 303.658 0 789245 299.796 0 783794 295.947 0 778413 292.11 0 773102 288.285 0 767862 284.474 0 762691 280.676 0 757589 276.891 0 752556 273.12 0 747593 269.362 0 742698 265.618 0 737871 261.888 0 733112 258.171 0 728422 254.469 0 723799 250.78 0 719243 247.106 0 714755 243.446 0 710333 239.799 0 705978 236.167 0 701689 232.549 0 697467 228.944 0 693310 225.354 0 689218 221.778 0 685193 218.215 0 681232 214.666 0 677336 211.131 0 673504 207.61 0 669737 204.102 0 666034 200.608 0 662395 197.127 0 658819 193.659 0 655307 190.205 0 651858 186.763 0 648471 183.335 0 645147 179.919 0 641886 176.515 0 638687 173.124 0 635550 169.746 0 632474 166.379 0 629460 163.025 0 626507 159.682 0 623616 156.351 0 620785 153.031 0 618015 149.723 0 615305 146.425 0 612655 143.139 0 610066 139.863 0 607536 136.598 0 605066 133.343 0 602656 130.099 0 600305 126.864 0 598013 123.639 0 595779 120.423 0 593605 117.217 0 591489 114.019 0 589432 110.831 0 587433 107.651 0 585492 104.48 0 583609 101.317 0 581784 98.1617 0 580016 95.0143 0 578306 91.8744 0 576653 88.7418 0 575058 85.6163 0 573520 82.4976 0 572039 79.3855 0 570614 76.2798 0 569247 73.1802 0 567936 70.0865 0 566682 66.9984 0 565484 63.9158 0 564342 60.8383 0 563257 57.7658 0 562228 54.698 0 561255 51.6346 0 560338 48.5754 0 559477 45.5202 0 558672 42.4687 0 557923 39.4207 0 557229 36.3759 0 556591 33.3341 0 556009 30.295 0 555483 27.2584 0 555011 24.224 0 554596 21.1917 0 554236 18.1611 0 553931 15.1319 0 553682 12.104 0 553488 9.07716 0 553350 6.05103 0 553267 3.02539 0 553239 0 0 1.04176e+06 892.478 0 1.03363e+06 884.773 0 1.02557e+06 877.023 0 1.01758e+06 869.23 0 1.00966e+06 861.401 0 1.00181e+06 853.537 0 994039 845.643 0 986337 837.723 0 978709 829.779 0 971152 821.816 0 963669 813.835 0 956259 805.84 0 948922 797.834 0 941659 789.818 0 934469 781.796 0 927352 773.77 0 920309 765.742 0 913339 757.714 0 906443 749.689 0 899620 741.667 0 892870 733.652 0 886194 725.644 0 879591 717.645 0 873061 709.656 0 866604 701.68 0 860220 693.717 0 853909 685.769 0 847671 677.836 0 841505 669.92 0 835411 662.023 0 829389 654.144 0 823440 646.285 0 817562 638.447 0 811756 630.631 0 806022 622.836 0 800358 615.065 0 794766 607.317 0 789244 599.593 0 783793 591.893 0 778413 584.219 0 773102 576.571 0 767861 568.948 0 762690 561.352 0 757589 553.782 0 752556 546.239 0 747592 538.724 0 742697 531.236 0 737871 523.775 0 733112 516.343 0 728421 508.938 0 723798 501.561 0 719243 494.212 0 714754 486.891 0 710333 479.598 0 705978 472.334 0 701689 465.097 0 697466 457.889 0 693309 450.708 0 689218 443.555 0 685192 436.43 0 681231 429.333 0 677335 422.263 0 673504 415.22 0 669737 408.205 0 666034 401.216 0 662394 394.254 0 658819 387.319 0 655306 380.41 0 651857 373.526 0 648471 366.669 0 645147 359.837 0 641886 353.03 0 638687 346.248 0 635549 339.491 0 632474 332.758 0 629460 326.049 0 626507 319.364 0 623615 312.701 0 620785 306.062 0 618014 299.445 0 615305 292.851 0 612655 286.278 0 610066 279.727 0 607536 273.196 0 605066 266.687 0 602656 260.197 0 600304 253.727 0 598012 247.277 0 595779 240.846 0 593605 234.433 0 591489 228.039 0 589432 221.662 0 587433 215.303 0 585492 208.96 0 583609 202.634 0 581783 196.323 0 580016 190.029 0 578306 183.749 0 576653 177.484 0 575058 171.233 0 573520 164.995 0 572038 158.771 0 570614 152.56 0 569246 146.36 0 567936 140.173 0 566681 133.997 0 565483 127.832 0 564342 121.677 0 563257 115.532 0 562228 109.396 0 561255 103.269 0 560338 97.1508 0 559477 91.0404 0 558672 84.9374 0 557922 78.8414 0 557229 72.7518 0 556591 66.6681 0 556009 60.59 0 555482 54.5168 0 555011 48.4481 0 554596 42.3833 0 554236 36.3221 0 553931 30.2639 0 553682 24.2081 0 553488 18.1543 0 553350 12.1021 0 553266 6.05078 0 553239 0 0 1.04176e+06 1338.72 0 1.03362e+06 1327.16 0 1.02556e+06 1315.53 0 1.01758e+06 1303.85 0 1.00966e+06 1292.1 0 1.00181e+06 1280.31 0 994038 1268.47 0 986337 1256.58 0 978708 1244.67 0 971152 1232.72 0 963669 1220.75 0 956259 1208.76 0 948922 1196.75 0 941658 1184.73 0 934468 1172.69 0 927352 1160.66 0 920308 1148.61 0 913338 1136.57 0 906442 1124.53 0 899619 1112.5 0 892870 1100.48 0 886193 1088.47 0 879590 1076.47 0 873060 1064.48 0 866604 1052.52 0 860220 1040.58 0 853908 1028.65 0 847670 1016.75 0 841504 1004.88 0 835410 993.034 0 829389 981.216 0 823440 969.428 0 817562 957.671 0 811756 945.946 0 806021 934.254 0 800358 922.597 0 794766 910.975 0 789244 899.389 0 783793 887.84 0 778412 876.329 0 773102 864.856 0 767861 853.422 0 762690 842.028 0 757588 830.673 0 752556 819.359 0 747592 808.086 0 742697 796.854 0 737870 785.663 0 733112 774.514 0 728421 763.406 0 723798 752.341 0 719242 741.318 0 714754 730.336 0 710332 719.397 0 705977 708.5 0 701688 697.646 0 697466 686.833 0 693309 676.062 0 689218 665.333 0 685192 654.645 0 681231 643.999 0 677335 633.394 0 673503 622.83 0 669736 612.307 0 666033 601.824 0 662394 591.381 0 658818 580.978 0 655306 570.614 0 651857 560.289 0 648470 550.003 0 645147 539.755 0 641885 529.545 0 638686 519.373 0 635549 509.237 0 632473 499.137 0 629459 489.074 0 626507 479.045 0 623615 469.052 0 620784 459.093 0 618014 449.168 0 615304 439.276 0 612655 429.417 0 610065 419.59 0 607536 409.794 0 605066 400.03 0 602655 390.296 0 600304 380.591 0 598012 370.916 0 595779 361.269 0 593604 351.65 0 591489 342.058 0 589431 332.493 0 587432 322.954 0 585491 313.44 0 583608 303.95 0 581783 294.485 0 580015 285.043 0 578305 275.623 0 576653 266.225 0 575057 256.849 0 573519 247.493 0 572038 238.156 0 570614 228.839 0 569246 219.541 0 567935 210.259 0 566681 200.995 0 565483 191.747 0 564341 182.515 0 563256 173.297 0 562227 164.094 0 561254 154.904 0 560337 145.726 0 559476 136.561 0 558671 127.406 0 557922 118.262 0 557229 109.128 0 556591 100.002 0 556008 90.8849 0 555482 81.7752 0 555011 72.6721 0 554595 63.575 0 554235 54.4831 0 553931 45.3958 0 553681 36.3121 0 553488 27.2315 0 553349 18.1531 0 553266 9.07616 0 553238 0 0 1.04176e+06 1784.96 0 1.03362e+06 1769.55 0 1.02556e+06 1754.05 0 1.01757e+06 1738.46 0 1.00966e+06 1722.8 0 1.00181e+06 1707.07 0 994037 1691.29 0 986336 1675.45 0 978707 1659.56 0 971151 1643.63 0 963668 1627.67 0 956258 1611.68 0 948921 1595.67 0 941658 1579.64 0 934468 1563.59 0 927351 1547.54 0 920308 1531.48 0 913338 1515.43 0 906441 1499.38 0 899618 1483.33 0 892869 1467.3 0 886193 1451.29 0 879590 1435.29 0 873060 1419.31 0 866603 1403.36 0 860219 1387.43 0 853908 1371.54 0 847669 1355.67 0 841503 1339.84 0 835410 1324.05 0 829388 1308.29 0 823439 1292.57 0 817561 1276.89 0 811755 1261.26 0 806021 1245.67 0 800357 1230.13 0 794765 1214.63 0 789243 1199.19 0 783792 1183.79 0 778411 1168.44 0 773101 1153.14 0 767860 1137.9 0 762689 1122.7 0 757587 1107.56 0 752555 1092.48 0 747591 1077.45 0 742696 1062.47 0 737869 1047.55 0 733111 1032.68 0 728420 1017.88 0 723797 1003.12 0 719242 988.423 0 714753 973.782 0 710331 959.196 0 705976 944.667 0 701688 930.194 0 697465 915.777 0 693308 901.416 0 689217 887.11 0 685191 872.86 0 681230 858.665 0 677334 844.525 0 673503 830.44 0 669736 816.409 0 666033 802.432 0 662393 788.508 0 658818 774.637 0 655305 760.819 0 651856 747.052 0 648470 733.338 0 645146 719.674 0 641885 706.06 0 638685 692.497 0 635548 678.982 0 632473 665.516 0 629459 652.098 0 626506 638.727 0 623614 625.403 0 620783 612.124 0 618013 598.89 0 615304 585.701 0 612654 572.556 0 610065 559.453 0 607535 546.392 0 605065 533.373 0 602655 520.394 0 600303 507.455 0 598011 494.554 0 595778 481.692 0 593604 468.866 0 591488 456.077 0 589431 443.324 0 587432 430.605 0 585491 417.92 0 583608 405.267 0 581782 392.646 0 580015 380.057 0 578305 367.497 0 576652 354.967 0 575057 342.465 0 573519 329.99 0 572037 317.542 0 570613 305.119 0 569245 292.721 0 567935 280.346 0 566680 267.994 0 565482 255.663 0 564341 243.353 0 563256 231.063 0 562227 218.792 0 561254 206.538 0 560337 194.302 0 559476 182.081 0 558671 169.875 0 557921 157.683 0 557228 145.503 0 556590 133.336 0 556008 121.18 0 555481 109.034 0 555010 96.8961 0 554595 84.7667 0 554235 72.6442 0 553930 60.5277 0 553681 48.4162 0 553487 36.3086 0 553349 24.2041 0 553265 12.1015 0 553238 0 0 1.04175e+06 2231.2 0 1.03362e+06 2211.93 0 1.02556e+06 2192.56 0 1.01757e+06 2173.08 0 1.00966e+06 2153.5 0 1.00181e+06 2133.84 0 994036 2114.11 0 986335 2094.31 0 978706 2074.45 0 971150 2054.54 0 963667 2034.59 0 956257 2014.6 0 948920 1994.58 0 941657 1974.55 0 934467 1954.49 0 927350 1934.43 0 920307 1914.36 0 913337 1894.29 0 906440 1874.22 0 899617 1854.17 0 892868 1834.13 0 886192 1814.11 0 879589 1794.11 0 873059 1774.14 0 866602 1754.2 0 860218 1734.29 0 853907 1714.42 0 847668 1694.59 0 841502 1674.8 0 835409 1655.06 0 829387 1635.36 0 823438 1615.71 0 817560 1596.12 0 811754 1576.58 0 806020 1557.09 0 800356 1537.66 0 794764 1518.29 0 789242 1498.98 0 783791 1479.73 0 778411 1460.55 0 773100 1441.43 0 767859 1422.37 0 762688 1403.38 0 757586 1384.45 0 752554 1365.6 0 747590 1346.81 0 742695 1328.09 0 737869 1309.44 0 733110 1290.86 0 728419 1272.34 0 723796 1253.9 0 719241 1235.53 0 714752 1217.23 0 710331 1199 0 705976 1180.83 0 701687 1162.74 0 697464 1144.72 0 693307 1126.77 0 689216 1108.89 0 685190 1091.07 0 681229 1073.33 0 677333 1055.66 0 673502 1038.05 0 669735 1020.51 0 666032 1003.04 0 662392 985.634 0 658817 968.296 0 655304 951.023 0 651855 933.815 0 648469 916.672 0 645145 899.592 0 641884 882.575 0 638685 865.62 0 635547 848.727 0 632472 831.895 0 629458 815.122 0 626505 798.408 0 623613 781.753 0 620783 765.155 0 618012 748.613 0 615303 732.126 0 612653 715.694 0 610064 699.316 0 607534 682.99 0 605064 666.716 0 602654 650.492 0 600303 634.318 0 598011 618.192 0 595777 602.114 0 593603 586.083 0 591487 570.097 0 589430 554.155 0 587431 538.256 0 585490 522.399 0 583607 506.584 0 581782 490.808 0 580014 475.071 0 578304 459.372 0 576651 443.709 0 575056 428.081 0 573518 412.488 0 572037 396.927 0 570612 381.399 0 569245 365.901 0 567934 350.432 0 566679 334.992 0 565482 319.579 0 564340 304.191 0 563255 288.829 0 562226 273.49 0 561253 258.173 0 560336 242.877 0 559475 227.601 0 558670 212.343 0 557921 197.103 0 557227 181.879 0 556589 166.67 0 556007 151.475 0 555481 136.292 0 555009 121.12 0 554594 105.958 0 554234 90.8052 0 553929 75.6596 0 553680 60.5202 0 553486 45.3858 0 553348 30.2551 0 553265 15.1269 0 553237 0 0 1.04175e+06 2677.44 0 1.03362e+06 2654.32 0 1.02556e+06 2631.07 0 1.01757e+06 2607.69 0 1.00965e+06 2584.2 0 1.00181e+06 2560.61 0 994035 2536.93 0 986334 2513.17 0 978705 2489.34 0 971149 2465.45 0 963666 2441.51 0 956256 2417.52 0 948919 2393.5 0 941655 2369.45 0 934465 2345.39 0 927349 2321.31 0 920305 2297.23 0 913336 2273.14 0 906439 2249.07 0 899616 2225 0 892867 2200.95 0 886190 2176.93 0 879587 2152.93 0 873057 2128.97 0 866601 2105.04 0 860217 2081.15 0 853906 2057.3 0 847667 2033.51 0 841501 2009.76 0 835407 1986.07 0 829386 1962.43 0 823437 1938.86 0 817559 1915.34 0 811753 1891.89 0 806018 1868.51 0 800355 1845.19 0 794763 1821.95 0 789241 1798.78 0 783790 1775.68 0 778409 1752.66 0 773099 1729.71 0 767858 1706.84 0 762687 1684.05 0 757585 1661.35 0 752553 1638.72 0 747589 1616.17 0 742694 1593.71 0 737867 1571.32 0 733109 1549.03 0 728418 1526.81 0 723795 1504.68 0 719240 1482.63 0 714751 1460.67 0 710329 1438.79 0 705974 1417 0 701686 1395.29 0 697463 1373.66 0 693306 1352.12 0 689215 1330.66 0 685189 1309.29 0 681228 1288 0 677332 1266.79 0 673501 1245.66 0 669734 1224.61 0 666031 1203.65 0 662391 1182.76 0 658816 1161.95 0 655303 1141.23 0 651854 1120.58 0 648468 1100.01 0 645144 1079.51 0 641883 1059.09 0 638684 1038.74 0 635546 1018.47 0 632471 998.273 0 629457 978.146 0 626504 958.09 0 623612 938.103 0 620782 918.185 0 618011 898.335 0 615302 878.551 0 612652 858.833 0 610063 839.179 0 607533 819.588 0 605063 800.059 0 602653 780.59 0 600302 761.181 0 598010 741.831 0 595776 722.537 0 593602 703.299 0 591486 684.116 0 589429 664.985 0 587430 645.907 0 585489 626.879 0 583606 607.9 0 581781 588.969 0 580013 570.085 0 578303 551.246 0 576650 532.45 0 575055 513.697 0 573517 494.985 0 572036 476.312 0 570611 457.678 0 569244 439.081 0 567933 420.518 0 566679 401.99 0 565481 383.494 0 564339 365.03 0 563254 346.594 0 562225 328.187 0 561252 309.807 0 560335 291.452 0 559474 273.121 0 558669 254.812 0 557920 236.524 0 557226 218.255 0 556588 200.004 0 556006 181.77 0 555480 163.55 0 555009 145.344 0 554593 127.15 0 554233 108.966 0 553928 90.7914 0 553679 72.6242 0 553485 54.4629 0 553347 36.3061 0 553264 18.1523 0 553236 0 0 1.04175e+06 3123.68 0 1.03362e+06 3096.71 0 1.02556e+06 3069.58 0 1.01757e+06 3042.31 0 1.00965e+06 3014.9 0 1.00181e+06 2987.38 0 994034 2959.75 0 986332 2932.03 0 978704 2904.23 0 971148 2876.36 0 963664 2848.42 0 956254 2820.44 0 948918 2792.42 0 941654 2764.36 0 934464 2736.29 0 927347 2708.2 0 920304 2680.1 0 913334 2652 0 906438 2623.91 0 899615 2595.84 0 892865 2567.78 0 886189 2539.75 0 879586 2511.76 0 873056 2483.8 0 866599 2455.88 0 860215 2428.01 0 853904 2400.19 0 847666 2372.42 0 841500 2344.72 0 835406 2317.08 0 829385 2289.5 0 823435 2262 0 817558 2234.56 0 811752 2207.21 0 806017 2179.92 0 800354 2152.72 0 794761 2125.61 0 789240 2098.57 0 783789 2071.62 0 778408 2044.77 0 773097 2018 0 767857 1991.32 0 762686 1964.73 0 757584 1938.24 0 752551 1911.84 0 747588 1885.53 0 742693 1859.32 0 737866 1833.21 0 733108 1807.2 0 728417 1781.28 0 723794 1755.46 0 719238 1729.74 0 714750 1704.12 0 710328 1678.59 0 705973 1653.17 0 701684 1627.84 0 697462 1602.61 0 693305 1577.48 0 689214 1552.44 0 685188 1527.5 0 681227 1502.66 0 677331 1477.92 0 673500 1453.27 0 669732 1428.71 0 666029 1404.25 0 662390 1379.89 0 658815 1355.61 0 655302 1331.43 0 651853 1307.34 0 648467 1283.34 0 645143 1259.43 0 641882 1235.6 0 638682 1211.87 0 635545 1188.22 0 632470 1164.65 0 629456 1141.17 0 626503 1117.77 0 623611 1094.45 0 620780 1071.22 0 618010 1048.06 0 615301 1024.98 0 612651 1001.97 0 610062 979.041 0 607532 956.185 0 605062 933.401 0 602652 910.688 0 600300 888.044 0 598008 865.469 0 595775 842.959 0 593601 820.515 0 591485 798.134 0 589428 775.816 0 587429 753.558 0 585488 731.358 0 583605 709.216 0 581779 687.13 0 580012 665.099 0 578302 643.12 0 576649 621.192 0 575054 599.313 0 573516 577.482 0 572035 555.698 0 570610 533.958 0 569243 512.26 0 567932 490.604 0 566677 468.988 0 565480 447.41 0 564338 425.868 0 563253 404.36 0 562224 382.885 0 561251 361.441 0 560334 340.027 0 559473 318.641 0 558668 297.28 0 557919 275.944 0 557225 254.631 0 556587 233.338 0 556005 212.065 0 555479 190.808 0 555007 169.568 0 554592 148.341 0 554232 127.127 0 553927 105.923 0 553678 84.7282 0 553484 63.54 0 553346 42.3571 0 553263 21.1777 0 553235 0 0 1.04175e+06 3569.92 0 1.03362e+06 3539.1 0 1.02556e+06 3508.1 0 1.01757e+06 3476.93 0 1.00965e+06 3445.61 0 1.00181e+06 3414.15 0 994032 3382.58 0 986331 3350.89 0 978702 3319.12 0 971146 3287.27 0 963663 3255.34 0 956253 3223.36 0 948916 3191.34 0 941652 3159.27 0 934462 3127.19 0 927346 3095.08 0 920302 3062.97 0 913332 3030.86 0 906436 2998.76 0 899613 2966.67 0 892864 2934.61 0 886187 2902.57 0 879584 2870.58 0 873054 2838.62 0 866598 2806.72 0 860214 2774.87 0 853903 2743.07 0 847664 2711.34 0 841498 2679.68 0 835404 2648.09 0 829383 2616.57 0 823434 2585.14 0 817556 2553.79 0 811750 2522.52 0 806015 2491.34 0 800352 2460.26 0 794760 2429.26 0 789238 2398.37 0 783787 2367.57 0 778406 2336.87 0 773096 2306.28 0 767855 2275.79 0 762684 2245.4 0 757582 2215.13 0 752550 2184.95 0 747586 2154.89 0 742691 2124.94 0 737865 2095.1 0 733106 2065.37 0 728415 2035.75 0 723792 2006.24 0 719237 1976.84 0 714748 1947.56 0 710327 1918.39 0 705972 1889.33 0 701683 1860.39 0 697460 1831.55 0 693304 1802.83 0 689212 1774.22 0 685186 1745.72 0 681226 1717.33 0 677330 1689.05 0 673498 1660.88 0 669731 1632.82 0 666028 1604.86 0 662389 1577.01 0 658813 1549.27 0 655301 1521.63 0 651852 1494.1 0 648465 1466.67 0 645142 1439.35 0 641880 1412.12 0 638681 1384.99 0 635544 1357.96 0 632468 1331.03 0 629454 1304.19 0 626502 1277.45 0 623610 1250.8 0 620779 1224.25 0 618009 1197.78 0 615299 1171.4 0 612650 1145.11 0 610060 1118.9 0 607531 1092.78 0 605061 1066.74 0 602650 1040.79 0 600299 1014.91 0 598007 989.106 0 595774 963.382 0 593600 937.731 0 591484 912.153 0 589426 886.646 0 587427 861.208 0 585486 835.838 0 583603 810.533 0 581778 785.291 0 580011 760.112 0 578301 734.993 0 576648 709.933 0 575053 684.929 0 573514 659.979 0 572033 635.083 0 570609 610.237 0 569241 585.44 0 567931 560.69 0 566676 535.986 0 565478 511.325 0 564337 486.705 0 563252 462.125 0 562223 437.583 0 561250 413.076 0 560333 388.602 0 559472 364.161 0 558667 339.749 0 557917 315.365 0 557224 291.006 0 556586 266.672 0 556004 242.359 0 555477 218.067 0 555006 193.792 0 554591 169.533 0 554231 145.288 0 553926 121.055 0 553677 96.8321 0 553483 72.6171 0 553345 48.4081 0 553262 24.203 0 553234 0 0 1.04175e+06 4016.16 0 1.03362e+06 3981.49 0 1.02556e+06 3946.61 0 1.01757e+06 3911.54 0 1.00965e+06 3876.31 0 1.0018e+06 3840.92 0 994030 3805.4 0 986329 3769.76 0 978700 3734.01 0 971144 3698.17 0 963661 3662.26 0 956251 3626.28 0 948914 3590.25 0 941651 3554.18 0 934460 3518.08 0 927344 3481.97 0 920300 3445.84 0 913331 3409.71 0 906434 3373.6 0 899611 3337.5 0 892862 3301.43 0 886185 3265.39 0 879582 3229.4 0 873053 3193.45 0 866596 3157.56 0 860212 3121.72 0 853901 3085.96 0 847662 3050.26 0 841496 3014.64 0 835403 2979.1 0 829381 2943.65 0 823432 2908.28 0 817554 2873.01 0 811748 2837.83 0 806014 2802.76 0 800350 2767.79 0 794758 2732.92 0 789236 2698.16 0 783785 2663.52 0 778405 2628.98 0 773094 2594.56 0 767853 2560.26 0 762682 2526.08 0 757581 2492.02 0 752548 2458.07 0 747584 2424.25 0 742689 2390.56 0 737863 2356.98 0 733104 2323.54 0 728414 2290.21 0 723791 2257.02 0 719235 2223.95 0 714747 2191 0 710325 2158.19 0 705970 2125.5 0 701681 2092.93 0 697459 2060.49 0 693302 2028.18 0 689211 1995.99 0 685185 1963.93 0 681224 1931.99 0 677328 1900.18 0 673497 1868.49 0 669729 1836.92 0 666026 1805.47 0 662387 1774.14 0 658812 1742.93 0 655299 1711.84 0 651850 1680.86 0 648464 1650.01 0 645140 1619.26 0 641879 1588.63 0 638679 1558.11 0 635542 1527.71 0 632467 1497.41 0 629453 1467.22 0 626500 1437.13 0 623608 1407.15 0 620778 1377.28 0 618007 1347.5 0 615298 1317.82 0 612648 1288.25 0 610059 1258.77 0 607529 1229.38 0 605059 1200.09 0 602649 1170.88 0 600298 1141.77 0 598006 1112.74 0 595772 1083.8 0 593598 1054.95 0 591482 1026.17 0 589425 997.476 0 587426 968.859 0 585485 940.317 0 583602 911.849 0 581777 883.452 0 580009 855.126 0 578299 826.867 0 576647 798.674 0 575051 770.544 0 573513 742.476 0 572032 714.467 0 570607 686.516 0 569240 658.62 0 567929 630.776 0 566675 602.984 0 565477 575.24 0 564335 547.543 0 563250 519.891 0 562221 492.28 0 561248 464.71 0 560331 437.177 0 559470 409.681 0 558665 382.217 0 557916 354.785 0 557223 327.382 0 556585 300.006 0 556002 272.654 0 555476 245.325 0 555005 218.016 0 554589 190.724 0 554229 163.449 0 553925 136.187 0 553675 108.936 0 553482 81.6942 0 553343 54.4591 0 553260 27.2284 0 553232 0 0 1.04175e+06 4462.4 0 1.03362e+06 4423.88 0 1.02556e+06 4385.12 0 1.01757e+06 4346.16 0 1.00965e+06 4307.01 0 1.0018e+06 4267.69 0 994028 4228.22 0 986327 4188.62 0 978698 4148.9 0 971142 4109.08 0 963659 4069.18 0 956249 4029.2 0 948912 3989.17 0 941648 3949.09 0 934458 3908.98 0 927342 3868.85 0 920298 3828.71 0 913329 3788.57 0 906432 3748.44 0 899609 3708.34 0 892860 3668.26 0 886183 3628.22 0 879580 3588.22 0 873050 3548.28 0 866594 3508.4 0 860210 3468.58 0 853899 3428.84 0 847660 3389.18 0 841494 3349.6 0 835401 3310.11 0 829379 3270.72 0 823430 3231.42 0 817552 3192.23 0 811746 3153.15 0 806012 3114.18 0 800348 3075.32 0 794756 3036.58 0 789234 2997.96 0 783783 2959.46 0 778403 2921.09 0 773092 2882.85 0 767851 2844.73 0 762680 2806.75 0 757579 2768.9 0 752546 2731.19 0 747583 2693.61 0 742687 2656.17 0 737861 2618.87 0 733102 2581.71 0 728412 2544.68 0 723789 2507.8 0 719233 2471.05 0 714745 2434.45 0 710323 2397.98 0 705968 2361.66 0 701679 2325.48 0 697457 2289.44 0 693300 2253.53 0 689209 2217.77 0 685183 2182.14 0 681222 2146.66 0 677326 2111.31 0 673495 2076.09 0 669728 2041.02 0 666025 2006.07 0 662385 1971.26 0 658810 1936.59 0 655297 1902.04 0 651848 1867.63 0 648462 1833.34 0 645138 1799.18 0 641877 1765.15 0 638678 1731.24 0 635540 1697.45 0 632465 1663.79 0 629451 1630.24 0 626498 1596.81 0 623607 1563.5 0 620776 1530.31 0 618006 1497.22 0 615296 1464.25 0 612647 1431.38 0 610057 1398.63 0 607528 1365.98 0 605058 1333.43 0 602647 1300.98 0 600296 1268.63 0 598004 1236.38 0 595771 1204.23 0 593596 1172.16 0 591481 1140.19 0 589423 1108.31 0 587424 1076.51 0 585483 1044.8 0 583600 1013.16 0 581775 981.613 0 580008 950.139 0 578298 918.74 0 576645 887.415 0 575050 856.16 0 573511 824.973 0 572030 793.852 0 570606 762.795 0 569238 731.799 0 567927 700.862 0 566673 669.982 0 565475 639.155 0 564334 608.381 0 563249 577.656 0 562220 546.978 0 561247 516.344 0 560330 485.752 0 559469 455.2 0 558664 424.685 0 557914 394.205 0 557221 363.757 0 556583 333.339 0 556001 302.949 0 555474 272.583 0 555003 242.239 0 554588 211.916 0 554228 181.61 0 553923 151.319 0 553674 121.04 0 553480 90.7713 0 553342 60.51 0 553259 30.2538 0 553231 0 0 1.04174e+06 4908.64 0 1.03361e+06 4866.27 0 1.02555e+06 4823.64 0 1.01756e+06 4780.78 0 1.00965e+06 4737.71 0 1.0018e+06 4694.46 0 994026 4651.05 0 986325 4607.48 0 978696 4563.79 0 971140 4519.99 0 963657 4476.1 0 956247 4432.12 0 948910 4388.09 0 941646 4344 0 934456 4299.88 0 927339 4255.74 0 920296 4211.58 0 913326 4167.43 0 906430 4123.29 0 899607 4079.17 0 892857 4035.08 0 886181 3991.04 0 879578 3947.04 0 873048 3903.11 0 866591 3859.23 0 860207 3815.44 0 853896 3771.72 0 847658 3728.09 0 841492 3684.56 0 835398 3641.12 0 829377 3597.79 0 823428 3554.56 0 817550 3511.45 0 811744 3468.46 0 806009 3425.59 0 800346 3382.85 0 794754 3340.23 0 789232 3297.75 0 783781 3255.41 0 778400 3213.2 0 773090 3171.13 0 767849 3129.21 0 762678 3087.43 0 757577 3045.79 0 752544 3004.31 0 747580 2962.97 0 742685 2921.79 0 737859 2880.76 0 733100 2839.88 0 728410 2799.15 0 723787 2758.58 0 719231 2718.16 0 714743 2677.89 0 710321 2637.78 0 705966 2597.83 0 701677 2558.03 0 697455 2518.38 0 693298 2478.88 0 689207 2439.54 0 685181 2400.36 0 681220 2361.32 0 677324 2322.44 0 673493 2283.7 0 669726 2245.12 0 666023 2206.68 0 662383 2168.39 0 658808 2130.24 0 655295 2092.24 0 651846 2054.39 0 648460 2016.67 0 645136 1979.1 0 641875 1941.66 0 638676 1904.36 0 635539 1867.19 0 632463 1830.16 0 629449 1793.26 0 626496 1756.49 0 623605 1719.85 0 620774 1683.33 0 618004 1646.94 0 615294 1610.67 0 612645 1574.52 0 610055 1538.49 0 607526 1502.57 0 605056 1466.77 0 602645 1431.08 0 600294 1395.49 0 598002 1360.02 0 595769 1324.65 0 593595 1289.38 0 591479 1254.21 0 589421 1219.14 0 587422 1184.16 0 585481 1149.27 0 583598 1114.48 0 581773 1079.77 0 580006 1045.15 0 578296 1010.61 0 576643 976.155 0 575048 941.775 0 573510 907.469 0 572028 873.236 0 570604 839.074 0 569237 804.978 0 567926 770.948 0 566671 736.979 0 565474 703.07 0 564332 669.219 0 563247 635.421 0 562218 601.675 0 561245 567.978 0 560328 534.327 0 559467 500.72 0 558662 467.154 0 557913 433.625 0 557219 400.133 0 556581 366.673 0 555999 333.243 0 555473 299.841 0 555002 266.463 0 554586 233.107 0 554226 199.771 0 553921 166.45 0 553672 133.144 0 553478 99.8483 0 553340 66.561 0 553257 33.2791 0 553229 0 0 1.04174e+06 5354.89 0 1.03361e+06 5308.66 0 1.02555e+06 5262.15 0 1.01756e+06 5215.4 0 1.00964e+06 5168.42 0 1.0018e+06 5121.23 0 994024 5073.87 0 986322 5026.35 0 978693 4978.69 0 971137 4930.9 0 963654 4883.02 0 956244 4835.05 0 948907 4787 0 941644 4738.91 0 934453 4690.78 0 927337 4642.62 0 920293 4594.45 0 913324 4546.29 0 906427 4498.13 0 899604 4450 0 892855 4401.91 0 886179 4353.86 0 879576 4305.86 0 873046 4257.93 0 866589 4210.07 0 860205 4162.3 0 853894 4114.6 0 847655 4067.01 0 841489 4019.52 0 835396 3972.13 0 829374 3924.86 0 823425 3877.7 0 817547 3830.67 0 811741 3783.77 0 806007 3737.01 0 800344 3690.38 0 794751 3643.89 0 789230 3597.55 0 783779 3551.35 0 778398 3505.3 0 773088 3459.41 0 767847 3413.68 0 762676 3368.1 0 757574 3322.68 0 752542 3277.43 0 747578 3232.33 0 742683 3187.4 0 737856 3142.64 0 733098 3098.04 0 728407 3053.61 0 723784 3009.35 0 719229 2965.26 0 714740 2921.33 0 710319 2877.58 0 705964 2833.99 0 701675 2790.57 0 697452 2747.32 0 693296 2704.24 0 689205 2661.32 0 685179 2618.57 0 681218 2575.98 0 677322 2533.57 0 673490 2491.31 0 669723 2449.22 0 666020 2407.28 0 662381 2365.51 0 658806 2323.9 0 655293 2282.45 0 651844 2241.15 0 648458 2200 0 645134 2159.01 0 641873 2118.17 0 638674 2077.48 0 635536 2036.94 0 632461 1996.54 0 629447 1956.28 0 626494 1916.17 0 623603 1876.2 0 620772 1836.36 0 618002 1796.66 0 615292 1757.1 0 612643 1717.66 0 610053 1678.35 0 607524 1639.17 0 605054 1600.11 0 602643 1561.17 0 600292 1522.36 0 598000 1483.66 0 595767 1445.07 0 593593 1406.59 0 591477 1368.23 0 589419 1329.97 0 587420 1291.81 0 585479 1253.75 0 583596 1215.8 0 581771 1177.93 0 580004 1140.16 0 578294 1102.49 0 576641 1064.9 0 575046 1027.39 0 573508 989.966 0 572026 952.621 0 570602 915.352 0 569235 878.157 0 567924 841.033 0 566669 803.977 0 565472 766.985 0 564330 730.056 0 563245 693.186 0 562216 656.372 0 561243 619.612 0 560326 582.902 0 559465 546.239 0 558660 509.622 0 557911 473.045 0 557217 436.508 0 556579 400.007 0 555997 363.538 0 555471 327.099 0 555000 290.687 0 554584 254.299 0 554224 217.931 0 553919 181.582 0 553670 145.248 0 553476 108.925 0 553338 72.6119 0 553255 36.3044 0 553227 0 0 1.04174e+06 5801.13 0 1.03361e+06 5751.05 0 1.02555e+06 5700.67 0 1.01756e+06 5650.02 0 1.00964e+06 5599.12 0 1.00179e+06 5548.01 0 994021 5496.7 0 986319 5445.21 0 978691 5393.58 0 971134 5341.81 0 963651 5289.94 0 956241 5237.97 0 948904 5185.92 0 941641 5133.82 0 934451 5081.68 0 927334 5029.51 0 920291 4977.32 0 913321 4925.14 0 906425 4872.98 0 899602 4820.83 0 892852 4768.73 0 886176 4716.68 0 879573 4664.68 0 873043 4612.76 0 866586 4560.91 0 860202 4509.15 0 853891 4457.49 0 847653 4405.93 0 841487 4354.47 0 835393 4303.14 0 829372 4251.93 0 823422 4200.84 0 817545 4149.9 0 811739 4099.09 0 806004 4048.42 0 800341 3997.91 0 794749 3947.54 0 789227 3897.34 0 783776 3847.29 0 778395 3797.41 0 773085 3747.7 0 767844 3698.15 0 7626