<?xml version="1.0"?> 
<VTKFile type="StructuredGrid" version="0.1"> 
<StructuredGrid WholeExtent="0 127 0 127 0 0"> 
<Piece Extent="0 127 0 127 0 0"> 
<PointData>
<DataArray type="Float32" Name="|E|" format="ascii" NumberOfComponents="3"> 
1.34048e+06 4.3869e-05 0 1.34211e+06 -0.000352721 0 1.34685e+06 -0.000598851 0 1.35439e+06 -0.000690046 0 1.3643e+06 -0.000676523 0 1.37612e+06 -0.000599878 0 1.38942e+06 -0.000512971 0 1.40382e+06 -0.000420833 0 1.419e+06 -0.000349974 0 1.43471e+06 -0.000289388 0 1.45072e+06 -0.000244242 0 1.46686e+06 -0.00019922 0 1.48298e+06 -0.000169413 0 1.49895e+06 -0.000133489 0 1.51467e+06 -0.000108237 0 1.53006e+06 -9.39635e-05 0 1.54505e+06 -7.63861e-05 0 1.55958e+06 -6.25905e-05 0 1.5736e+06 -4.88274e-05 0 1.58708e+06 -3.80697e-05 0 1.59999e+06 -3.15439e-05 0 1.61231e+06 -2.12528e-05 0 1.62401e+06 -1.75424e-05 0 1.63509e+06 -1.22096e-05 0 1.64554e+06 -5.88782e-06 0 1.65534e+06 -2.7474e-06 0 1.6645e+06 1.37836e-06 0 1.67302e+06 5.33089e-06 0 1.6809e+06 4.09037e-06 0 1.68814e+06 7.17491e-06 0 1.69474e+06 8.2776e-06 0 1.70072e+06 1.22488e-05 0 1.70608e+06 9.65223e-06 0 1.71083e+06 1.32322e-05 0 1.71497e+06 1.52811e-05 0 1.71853e+06 1.99154e-05 0 1.7215e+06 1.61082e-05 0 1.72391e+06 1.9744e-05 0 1.72576e+06 1.86786e-05 0 1.72706e+06 2.1413e-05 0 1.72784e+06 1.88053e-05 0 1.7281e+06 1.97813e-05 0 1.72786e+06 1.92374e-05 0 1.72713e+06 2.08318e-05 0 1.72592e+06 2.01613e-05 0 1.72426e+06 2.08616e-05 0 1.72215e+06 2.10404e-05 0 1.71961e+06 2.33799e-05 0 1.71666e+06 2.28882e-05 0 1.7133e+06 2.06828e-05 0 1.70956e+06 1.93417e-05 0 1.70544e+06 1.72108e-05 0 1.70097e+06 2.16365e-05 0 1.69615e+06 2.12044e-05 0 1.691e+06 2.1413e-05 0 1.68554e+06 2.02358e-05 0 1.67978e+06 1.77622e-05 0 1.67372e+06 2.20537e-05 0 1.6674e+06 2.11298e-05 0 1.6608e+06 2.0802e-05 0 1.65396e+06 1.67787e-05 0 1.64689e+06 1.64807e-05 0 1.63958e+06 1.69575e-05 0 1.63207e+06 1.50502e-05 0 1.62435e+06 1.73151e-05 0 1.61644e+06 1.47521e-05 0 1.60835e+06 1.26064e-05 0 1.60009e+06 1.49906e-05 0 1.59167e+06 1.35601e-05 0 1.58311e+06 1.5527e-05 0 1.5744e+06 1.11759e-05 0 1.56557e+06 1.44839e-05 0 1.55661e+06 1.07586e-05 0 1.54754e+06 7.51019e-06 0 1.53837e+06 1.20401e-05 0 1.52911e+06 9.35793e-06 0 1.51975e+06 9.23872e-06 0 1.51032e+06 9.17912e-06 0 1.50081e+06 8.28505e-06 0 1.49124e+06 8.64267e-06 0 1.48161e+06 9.41753e-06 0 1.47193e+06 7.51019e-06 0 1.46221e+06 9.35793e-06 0 1.45244e+06 6.25849e-06 0 1.44264e+06 8.16584e-06 0 1.43281e+06 8.10623e-06 0 1.42296e+06 6.31809e-06 0 1.41309e+06 5.84126e-06 0 1.40321e+06 5.66244e-06 0 1.39332e+06 5.24521e-06 0 1.38343e+06 5.42402e-06 0 1.37353e+06 2.20537e-06 0 1.36364e+06 7.689e-06 0 1.35377e+06 3.03984e-06 0 1.3439e+06 4.52995e-06 0 1.33405e+06 2.26498e-06 0 1.32422e+06 6.3777e-06 0 1.31441e+06 2.80142e-06 0 1.30463e+06 8.10623e-06 0 1.29487e+06 2.5034e-06 0 1.28515e+06 4.05312e-06 0 1.27546e+06 2.14577e-06 0 1.26581e+06 6.07967e-06 0 1.2562e+06 7.15256e-07 0 1.24663e+06 2.6226e-06 0 1.2371e+06 2.14577e-06 0 1.22762e+06 3.45707e-06 0 1.21819e+06 1.3113e-06 0 1.2088e+06 1.54972e-06 0 1.19947e+06 2.5034e-06 0 1.19019e+06 7.15256e-07 0 1.18096e+06 2.14577e-06 0 1.1718e+06 7.15256e-07 0 1.16268e+06 9.53674e-07 0 1.15363e+06 1.3113e-06 0 1.14464e+06 1.66893e-06 0 1.13571e+06 4.76837e-07 0 1.12684e+06 7.15256e-07 0 1.11803e+06 3.57628e-07 0 1.10929e+06 -1.19209e-07 0 1.10061e+06 1.3113e-06 0 1.092e+06 -8.34465e-07 0 1.08346e+06 3.57628e-07 0 1.07498e+06 1.19209e-06 0 1.06657e+06 -8.34465e-07 0 1.05823e+06 -1.19209e-07 0 1.04996e+06 -4.76837e-07 0 1.04176e+06 -1.90735e-06 0 1.34048e+06 -8.23074e-06 0 1.3421e+06 -175.961 0 1.34684e+06 -339.312 0 1.35439e+06 -481.199 0 1.3643e+06 -597.934 0 1.37612e+06 -689.933 0 1.38942e+06 -759.812 0 1.40382e+06 -810.848 0 1.419e+06 -846.171 0 1.43471e+06 -868.477 0 1.45072e+06 -880.001 0 1.46686e+06 -882.588 0 1.48298e+06 -877.763 0 1.49895e+06 -866.797 0 1.51467e+06 -850.756 0 1.53006e+06 -830.537 0 1.54505e+06 -806.896 0 1.55958e+06 -780.468 0 1.5736e+06 -751.789 0 1.58708e+06 -721.31 0 1.59999e+06 -689.412 0 1.61231e+06 -656.413 0 1.62401e+06 -622.586 0 1.63509e+06 -588.16 0 1.64554e+06 -553.33 0 1.65534e+06 -518.262 0 1.6645e+06 -483.1 0 1.67302e+06 -447.966 0 1.6809e+06 -412.968 0 1.68814e+06 -378.198 0 1.69474e+06 -343.737 0 1.70072e+06 -309.656 0 1.70608e+06 -276.018 0 1.71083e+06 -242.876 0 1.71497e+06 -210.281 0 1.71853e+06 -178.273 0 1.7215e+06 -146.892 0 1.72391e+06 -116.169 0 1.72576e+06 -86.1334 0 1.72706e+06 -56.8096 0 1.72784e+06 -28.2187 0 1.7281e+06 -0.378515 0 1.72786e+06 26.6963 0 1.72713e+06 52.9938 0 1.72592e+06 78.5051 0 1.72426e+06 103.224 0 1.72215e+06 127.145 0 1.71961e+06 150.268 0 1.71666e+06 172.591 0 1.7133e+06 194.118 0 1.70956e+06 214.852 0 1.70544e+06 234.797 0 1.70097e+06 253.962 0 1.69615e+06 272.355 0 1.691e+06 289.985 0 1.68554e+06 306.862 0 1.67978e+06 322.999 0 1.67372e+06 338.409 0 1.6674e+06 353.104 0 1.66081e+06 367.099 0 1.65396e+06 380.408 0 1.64689e+06 393.047 0 1.63958e+06 405.032 0 1.63207e+06 416.379 0 1.62435e+06 427.104 0 1.61644e+06 437.223 0 1.60835e+06 446.754 0 1.60009e+06 455.713 0 1.59167e+06 464.117 0 1.58311e+06 471.983 0 1.5744e+06 479.328 0 1.56557e+06 486.168 0 1.55661e+06 492.52 0 1.54754e+06 498.4 0 1.53837e+06 503.824 0 1.52911e+06 508.808 0 1.51975e+06 513.368 0 1.51032e+06 517.519 0 1.50081e+06 521.275 0 1.49124e+06 524.653 0 1.48161e+06 527.666 0 1.47193e+06 530.328 0 1.46221e+06 532.653 0 1.45244e+06 534.654 0 1.44264e+06 536.344 0 1.43281e+06 537.737 0 1.42296e+06 538.843 0 1.41309e+06 539.676 0 1.40321e+06 540.246 0 1.39332e+06 540.566 0 1.38343e+06 540.645 0 1.37353e+06 540.494 0 1.36364e+06 540.124 0 1.35377e+06 539.544 0 1.3439e+06 538.763 0 1.33405e+06 537.792 0 1.32422e+06 536.639 0 1.31441e+06 535.311 0 1.30463e+06 533.818 0 1.29487e+06 532.168 0 1.28515e+06 530.368 0 1.27546e+06 528.425 0 1.26581e+06 526.347 0 1.2562e+06 524.14 0 1.24663e+06 521.81 0 1.2371e+06 519.365 0 1.22762e+06 516.81 0 1.21819e+06 514.151 0 1.2088e+06 511.393 0 1.19947e+06 508.543 0 1.19019e+06 505.604 0 1.18096e+06 502.582 0 1.1718e+06 499.482 0 1.16268e+06 496.307 0 1.15363e+06 493.064 0 1.14464e+06 489.755 0 1.13571e+06 486.384 0 1.12684e+06 482.956 0 1.11803e+06 479.474 0 1.10929e+06 475.942 0 1.10061e+06 472.363 0 1.092e+06 468.739 0 1.08346e+06 465.075 0 1.07498e+06 461.373 0 1.06657e+06 457.635 0 1.05823e+06 453.866 0 1.04996e+06 450.066 0 1.04176e+06 446.239 0 1.34046e+06 3.31737e-06 0 1.34209e+06 -351.962 0 1.34683e+06 -678.69 0 1.35438e+06 -962.475 0 1.36429e+06 -1195.94 0 1.37612e+06 -1379.93 0 1.38941e+06 -1519.68 0 1.40381e+06 -1621.74 0 1.419e+06 -1692.38 0 1.43471e+06 -1736.99 0 1.45072e+06 -1760.03 0 1.46686e+06 -1765.2 0 1.48298e+06 -1755.54 0 1.49895e+06 -1733.61 0 1.51467e+06 -1701.52 0 1.53006e+06 -1661.09 0 1.54505e+06 -1613.8 0 1.55958e+06 -1560.94 0 1.5736e+06 -1503.58 0 1.58708e+06 -1442.63 0 1.59999e+06 -1378.83 0 1.61231e+06 -1312.83 0 1.62401e+06 -1245.17 0 1.63509e+06 -1176.32 0 1.64554e+06 -1106.66 0 1.65534e+06 -1036.52 0 1.66451e+06 -966.2 0 1.67303e+06 -895.932 0 1.6809e+06 -825.936 0 1.68814e+06 -756.396 0 1.69475e+06 -687.473 0 1.70072e+06 -619.311 0 1.70608e+06 -552.034 0 1.71083e+06 -485.751 0 1.71498e+06 -420.56 0 1.71853e+06 -356.545 0 1.7215e+06 -293.782 0 1.72391e+06 -232.336 0 1.72576e+06 -172.265 0 1.72707e+06 -113.617 0 1.72784e+06 -56.4351 0 1.7281e+06 -0.754735 0 1.72786e+06 53.3948 0 1.72713e+06 105.99 0 1.72593e+06 157.013 0 1.72426e+06 206.45 0 1.72215e+06 254.293 0 1.71961e+06 300.538 0 1.71666e+06 345.185 0 1.7133e+06 388.238 0 1.70956e+06 429.705 0 1.70544e+06 469.597 0 1.70097e+06 507.927 0 1.69615e+06 544.713 0 1.69101e+06 579.972 0 1.68554e+06 613.727 0 1.67978e+06 646.001 0 1.67373e+06 676.82 0 1.6674e+06 706.21 0 1.66081e+06 734.199 0 1.65397e+06 760.818 0 1.64689e+06 786.096 0 1.63958e+06 810.066 0 1.63207e+06 832.76 0 1.62435e+06 854.209 0 1.61644e+06 874.448 0 1.60835e+06 893.51 0 1.60009e+06 911.428 0 1.59167e+06 928.236 0 1.58311e+06 943.968 0 1.5744e+06 958.657 0 1.56557e+06 972.337 0 1.55661e+06 985.041 0 1.54754e+06 996.801 0 1.53837e+06 1007.65 0 1.52911e+06 1017.62 0 1.51975e+06 1026.74 0 1.51032e+06 1035.04 0 1.50081e+06 1042.55 0 1.49124e+06 1049.31 0 1.48161e+06 1055.33 0 1.47193e+06 1060.66 0 1.46221e+06 1065.31 0 1.45244e+06 1069.31 0 1.44264e+06 1072.69 0 1.43281e+06 1075.47 0 1.42296e+06 1077.69 0 1.41309e+06 1079.35 0 1.40321e+06 1080.49 0 1.39332e+06 1081.13 0 1.38343e+06 1081.29 0 1.37353e+06 1080.99 0 1.36364e+06 1080.25 0 1.35377e+06 1079.09 0 1.3439e+06 1077.53 0 1.33405e+06 1075.58 0 1.32422e+06 1073.28 0 1.31441e+06 1070.62 0 1.30463e+06 1067.64 0 1.29487e+06 1064.34 0 1.28515e+06 1060.74 0 1.27546e+06 1056.85 0 1.26581e+06 1052.69 0 1.2562e+06 1048.28 0 1.24663e+06 1043.62 0 1.2371e+06 1038.73 0 1.22762e+06 1033.62 0 1.21818e+06 1028.3 0 1.2088e+06 1022.79 0 1.19947e+06 1017.09 0 1.19019e+06 1011.21 0 1.18096e+06 1005.16 0 1.17179e+06 998.963 0 1.16268e+06 992.615 0 1.15363e+06 986.128 0 1.14464e+06 979.51 0 1.13571e+06 972.769 0 1.12684e+06 965.913 0 1.11803e+06 958.949 0 1.10929e+06 951.884 0 1.10061e+06 944.725 0 1.092e+06 937.478 0 1.08345e+06 930.15 0 1.07498e+06 922.746 0 1.06657e+06 915.271 0 1.05823e+06 907.731 0 1.04996e+06 900.132 0 1.04176e+06 892.478 0 1.34044e+06 1.73948e-06 0 1.34206e+06 -528.039 0 1.34681e+06 -1018.2 0 1.35436e+06 -1443.9 0 1.36428e+06 -1794.1 0 1.3761e+06 -2070.06 0 1.38941e+06 -2279.66 0 1.40381e+06 -2432.73 0 1.41899e+06 -2538.67 0 1.4347e+06 -2605.56 0 1.45072e+06 -2640.11 0 1.46686e+06 -2647.85 0 1.48298e+06 -2633.36 0 1.49895e+06 -2600.45 0 1.51468e+06 -2552.32 0 1.53007e+06 -2491.65 0 1.54506e+06 -2420.72 0 1.55958e+06 -2341.43 0 1.57361e+06 -2255.39 0 1.58709e+06 -2163.95 0 1.6e+06 -2068.25 0 1.61232e+06 -1969.25 0 1.62402e+06 -1867.77 0 1.6351e+06 -1764.48 0 1.64554e+06 -1659.99 0 1.65535e+06 -1554.79 0 1.66451e+06 -1449.3 0 1.67303e+06 -1343.9 0 1.68091e+06 -1238.9 0 1.68815e+06 -1134.59 0 1.69475e+06 -1031.21 0 1.70073e+06 -928.963 0 1.70609e+06 -828.047 0 1.71083e+06 -728.622 0 1.71498e+06 -630.835 0 1.71853e+06 -534.813 0 1.72151e+06 -440.668 0 1.72391e+06 -348.499 0 1.72576e+06 -258.392 0 1.72707e+06 -170.42 0 1.72785e+06 -84.6471 0 1.72811e+06 -1.12639 0 1.72787e+06 80.098 0 1.72713e+06 158.991 0 1.72593e+06 235.525 0 1.72427e+06 309.68 0 1.72216e+06 381.445 0 1.71962e+06 450.812 0 1.71666e+06 517.783 0 1.7133e+06 582.363 0 1.70956e+06 644.564 0 1.70545e+06 704.401 0 1.70097e+06 761.897 0 1.69615e+06 817.074 0 1.69101e+06 869.964 0 1.68555e+06 920.596 0 1.67978e+06 969.007 0 1.67373e+06 1015.23 0 1.6674e+06 1059.32 0 1.66081e+06 1101.3 0 1.65397e+06 1141.23 0 1.64689e+06 1179.15 0 1.63959e+06 1215.1 0 1.63207e+06 1249.14 0 1.62435e+06 1281.32 0 1.61644e+06 1311.68 0 1.60835e+06 1340.27 0 1.60009e+06 1367.15 0 1.59167e+06 1392.36 0 1.58311e+06 1415.96 0 1.5744e+06 1437.99 0 1.56557e+06 1458.51 0 1.55661e+06 1477.56 0 1.54754e+06 1495.2 0 1.53837e+06 1511.48 0 1.52911e+06 1526.43 0 1.51975e+06 1540.11 0 1.51032e+06 1552.56 0 1.50081e+06 1563.83 0 1.49124e+06 1573.96 0 1.48161e+06 1583 0 1.47193e+06 1590.99 0 1.46221e+06 1597.96 0 1.45244e+06 1603.97 0 1.44264e+06 1609.04 0 1.43281e+06 1613.21 0 1.42296e+06 1616.53 0 1.41309e+06 1619.03 0 1.40321e+06 1620.74 0 1.39332e+06 1621.7 0 1.38343e+06 1621.94 0 1.37353e+06 1621.48 0 1.36364e+06 1620.37 0 1.35377e+06 1618.63 0 1.3439e+06 1616.29 0 1.33405e+06 1613.38 0 1.32422e+06 1609.92 0 1.31441e+06 1605.94 0 1.30463e+06 1601.46 0 1.29487e+06 1596.51 0 1.28515e+06 1591.11 0 1.27546e+06 1585.28 0 1.26581e+06 1579.04 0 1.2562e+06 1572.42 0 1.24663e+06 1565.43 0 1.2371e+06 1558.1 0 1.22762e+06 1550.43 0 1.21818e+06 1542.45 0 1.2088e+06 1534.18 0 1.19947e+06 1525.63 0 1.19019e+06 1516.81 0 1.18096e+06 1507.75 0 1.17179e+06 1498.45 0 1.16268e+06 1488.92 0 1.15363e+06 1479.19 0 1.14464e+06 1469.26 0 1.13571e+06 1459.15 0 1.12684e+06 1448.87 0 1.11803e+06 1438.42 0 1.10929e+06 1427.83 0 1.10061e+06 1417.09 0 1.092e+06 1406.22 0 1.08345e+06 1395.23 0 1.07498e+06 1384.12 0 1.06657e+06 1372.91 0 1.05823e+06 1361.6 0 1.04996e+06 1350.2 0 1.04176e+06 1338.72 0 1.34041e+06 -2.468e-06 0 1.34203e+06 -704.233 0 1.34678e+06 -1357.9 0 1.35433e+06 -1925.56 0 1.36426e+06 -2392.48 0 1.37609e+06 -2760.39 0 1.38939e+06 -3039.81 0 1.4038e+06 -3243.86 0 1.41899e+06 -3385.07 0 1.4347e+06 -3474.23 0 1.45072e+06 -3520.27 0 1.46686e+06 -3530.57 0 1.48298e+06 -3511.24 0 1.49896e+06 -3467.34 0 1.51468e+06 -3403.15 0 1.53007e+06 -3322.25 0 1.54506e+06 -3227.67 0 1.55959e+06 -3121.94 0 1.57361e+06 -3007.21 0 1.5871e+06 -2885.28 0 1.60001e+06 -2757.68 0 1.61232e+06 -2625.68 0 1.62403e+06 -2490.36 0 1.63511e+06 -2352.65 0 1.64555e+06 -2213.33 0 1.65536e+06 -2073.05 0 1.66452e+06 -1932.4 0 1.67304e+06 -1791.86 0 1.68091e+06 -1651.87 0 1.68815e+06 -1512.78 0 1.69476e+06 -1374.94 0 1.70074e+06 -1238.61 0 1.70609e+06 -1104.06 0 1.71084e+06 -971.489 0 1.71499e+06 -841.105 0 1.71854e+06 -713.075 0 1.72151e+06 -587.548 0 1.72392e+06 -464.656 0 1.72577e+06 -344.512 0 1.72708e+06 -227.216 0 1.72785e+06 -112.852 0 1.72811e+06 -1.49118 0 1.72787e+06 106.808 0 1.72714e+06 211.999 0 1.72594e+06 314.044 0 1.72427e+06 412.918 0 1.72216e+06 508.604 0 1.71962e+06 601.094 0 1.71667e+06 690.389 0 1.71331e+06 776.495 0 1.70957e+06 859.43 0 1.70545e+06 939.213 0 1.70098e+06 1015.87 0 1.69616e+06 1089.44 0 1.69101e+06 1159.96 0 1.68555e+06 1227.47 0 1.67978e+06 1292.02 0 1.67373e+06 1353.66 0 1.6674e+06 1412.44 0 1.66081e+06 1468.41 0 1.65397e+06 1521.65 0 1.64689e+06 1572.21 0 1.63959e+06 1620.15 0 1.63207e+06 1665.53 0 1.62435e+06 1708.43 0 1.61644e+06 1748.91 0 1.60835e+06 1787.03 0 1.60009e+06 1822.87 0 1.59168e+06 1856.48 0 1.58311e+06 1887.95 0 1.5744e+06 1917.33 0 1.56557e+06 1944.69 0 1.55661e+06 1970.09 0 1.54755e+06 1993.61 0 1.53837e+06 2015.31 0 1.52911e+06 2035.24 0 1.51975e+06 2053.48 0 1.51032e+06 2070.09 0 1.50081e+06 2085.11 0 1.49124e+06 2098.62 0 1.48161e+06 2110.67 0 1.47193e+06 2121.32 0 1.46221e+06 2130.62 0 1.45244e+06 2138.63 0 1.44264e+06 2145.39 0 1.43281e+06 2150.96 0 1.42296e+06 2155.38 0 1.41309e+06 2158.71 0 1.40321e+06 2160.99 0 1.39332e+06 2162.27 0 1.38343e+06 2162.59 0 1.37353e+06 2161.98 0 1.36364e+06 2160.5 0 1.35377e+06 2158.18 0 1.3439e+06 2155.06 0 1.33405e+06 2151.17 0 1.32422e+06 2146.56 0 1.31441e+06 2141.25 0 1.30462e+06 2135.28 0 1.29487e+06 2128.68 0 1.28515e+06 2121.48 0 1.27546e+06 2113.7 0 1.26581e+06 2105.39 0 1.2562e+06 2096.56 0 1.24663e+06 2087.24 0 1.2371e+06 2077.46 0 1.22762e+06 2067.24 0 1.21818e+06 2056.61 0 1.2088e+06 2045.58 0 1.19947e+06 2034.17 0 1.19019e+06 2022.42 0 1.18096e+06 2010.33 0 1.17179e+06 1997.93 0 1.16268e+06 1985.23 0 1.15363e+06 1972.26 0 1.14464e+06 1959.02 0 1.1357e+06 1945.54 0 1.12683e+06 1931.83 0 1.11803e+06 1917.9 0 1.10929e+06 1903.77 0 1.10061e+06 1889.45 0 1.092e+06 1874.96 0 1.08345e+06 1860.3 0 1.07498e+06 1845.49 0 1.06657e+06 1830.54 0 1.05823e+06 1815.46 0 1.04996e+06 1800.26 0 1.04176e+06 1784.96 0 1.34036e+06 -1.20373e-06 0 1.34199e+06 -880.582 0 1.34674e+06 -1697.87 0 1.3543e+06 -2407.52 0 1.36423e+06 -2991.16 0 1.37607e+06 -3450.99 0 1.38938e+06 -3800.19 0 1.40379e+06 -4055.18 0 1.41898e+06 -4231.63 0 1.4347e+06 -4343.03 0 1.45072e+06 -4400.54 0 1.46686e+06 -4413.38 0 1.48298e+06 -4389.18 0 1.49896e+06 -4334.29 0 1.51468e+06 -4254.03 0 1.53008e+06 -4152.89 0 1.54507e+06 -4034.65 0 1.5596e+06 -3902.47 0 1.57362e+06 -3759.05 0 1.5871e+06 -3606.64 0 1.60001e+06 -3447.12 0 1.61233e+06 -3282.12 0 1.62403e+06 -3112.97 0 1.63511e+06 -2940.82 0 1.64556e+06 -2766.66 0 1.65536e+06 -2591.32 0 1.66453e+06 -2415.5 0 1.67305e+06 -2239.82 0 1.68092e+06 -2064.83 0 1.68816e+06 -1890.97 0 1.69477e+06 -1718.66 0 1.70074e+06 -1548.25 0 1.7061e+06 -1380.06 0 1.71085e+06 -1214.35 0 1.71499e+06 -1051.37 0 1.71855e+06 -891.33 0 1.72152e+06 -734.42 0 1.72393e+06 -580.804 0 1.72578e+06 -430.624 0 1.72708e+06 -284.004 0 1.72786e+06 -141.049 0 1.72812e+06 -1.84683 0 1.72788e+06 133.528 0 1.72715e+06 265.016 0 1.72594e+06 392.573 0 1.72428e+06 516.166 0 1.72217e+06 635.773 0 1.71963e+06 751.386 0 1.71667e+06 863.004 0 1.71331e+06 970.637 0 1.70957e+06 1074.3 0 1.70545e+06 1174.03 0 1.70098e+06 1269.86 0 1.69616e+06 1361.82 0 1.69102e+06 1449.97 0 1.68555e+06 1534.36 0 1.67979e+06 1615.04 0 1.67373e+06 1692.09 0 1.66741e+06 1765.56 0 1.66081e+06 1835.53 0 1.65397e+06 1902.08 0 1.64689e+06 1965.28 0 1.63959e+06 2025.2 0 1.63207e+06 2081.93 0 1.62435e+06 2135.55 0 1.61644e+06 2186.15 0 1.60835e+06 2233.8 0 1.6001e+06 2278.6 0 1.59168e+06 2320.62 0 1.58311e+06 2359.95 0 1.57441e+06 2396.67 0 1.56557e+06 2430.87 0 1.55661e+06 2462.63 0 1.54755e+06 2492.03 0 1.53838e+06 2519.14 0 1.52911e+06 2544.06 0 1.51976e+06 2566.86 0 1.51032e+06 2587.62 0 1.50082e+06 2606.4 0 1.49124e+06 2623.29 0 1.48162e+06 2638.35 0 1.47193e+06 2651.66 0 1.46221e+06 2663.28 0 1.45244e+06 2673.29 0 1.44264e+06 2681.74 0 1.43281e+06 2688.7 0 1.42296e+06 2694.23 0 1.41309e+06 2698.4 0 1.40321e+06 2701.25 0 1.39332e+06 2702.84 0 1.38343e+06 2703.24 0 1.37353e+06 2702.48 0 1.36364e+06 2700.63 0 1.35377e+06 2697.73 0 1.3439e+06 2693.83 0 1.33405e+06 2688.97 0 1.32422e+06 2683.2 0 1.31441e+06 2676.57 0 1.30462e+06 2669.1 0 1.29487e+06 2660.85 0 1.28515e+06 2651.85 0 1.27546e+06 2642.13 0 1.26581e+06 2631.74 0 1.2562e+06 2620.71 0 1.24663e+06 2609.06 0 1.2371e+06 2596.83 0 1.22762e+06 2584.06 0 1.21818e+06 2570.76 0 1.2088e+06 2556.97 0 1.19947e+06 2542.72 0 1.19019e+06 2528.02 0 1.18096e+06 2512.91 0 1.17179e+06 2497.41 0 1.16268e+06 2481.54 0 1.15363e+06 2465.32 0 1.14464e+06 2448.78 0 1.1357e+06 2431.93 0 1.12683e+06 2414.78 0 1.11803e+06 2397.37 0 1.10929e+06 2379.71 0 1.10061e+06 2361.82 0 1.092e+06 2343.7 0 1.08345e+06 2325.38 0 1.07498e+06 2306.87 0 1.06657e+06 2288.18 0 1.05823e+06 2269.33 0 1.04996e+06 2250.33 0 1.04175e+06 2231.2 0 1.34031e+06 2.18861e-06 0 1.34194e+06 -1057.13 0 1.3467e+06 -2038.17 0 1.35426e+06 -2889.86 0 1.3642e+06 -3590.21 0 1.37604e+06 -4141.92 0 1.38936e+06 -4560.84 0 1.40378e+06 -4866.73 0 1.41897e+06 -5078.38 0 1.43469e+06 -5211.98 0 1.45071e+06 -5280.94 0 1.46686e+06 -5296.3 0 1.48299e+06 -5267.22 0 1.49896e+06 -5201.31 0 1.51469e+06 -5104.97 0 1.53008e+06 -4983.58 0 1.54507e+06 -4841.67 0 1.5596e+06 -4683.04 0 1.57363e+06 -4510.92 0 1.58711e+06 -4328.01 0 1.60002e+06 -4136.58 0 1.61234e+06 -3938.57 0 1.62404e+06 -3735.58 0 1.63512e+06 -3529 0 1.64557e+06 -3320 0 1.65538e+06 -3109.58 0 1.66454e+06 -2898.6 0 1.67306e+06 -2687.78 0 1.68093e+06 -2477.79 0 1.68817e+06 -2269.16 0 1.69478e+06 -2062.38 0 1.70075e+06 -1857.89 0 1.70611e+06 -1656.05 0 1.71086e+06 -1457.2 0 1.715e+06 -1261.62 0 1.71856e+06 -1069.58 0 1.72153e+06 -881.283 0 1.72394e+06 -696.943 0 1.72579e+06 -516.726 0 1.72709e+06 -340.781 0 1.72787e+06 -169.234 0 1.72813e+06 -2.19104 0 1.72789e+06 160.259 0 1.72715e+06 318.045 0 1.72595e+06 471.114 0 1.72428e+06 619.425 0 1.72217e+06 762.954 0 1.71963e+06 901.689 0 1.71668e+06 1035.63 0 1.71332e+06 1164.79 0 1.70958e+06 1289.19 0 1.70546e+06 1408.87 0 1.70099e+06 1523.86 0 1.69617e+06 1634.21 0 1.69102e+06 1739.99 0 1.68556e+06 1841.25 0 1.67979e+06 1938.07 0 1.67374e+06 2030.53 0 1.66741e+06 2118.7 0 1.66082e+06 2202.66 0 1.65398e+06 2282.52 0 1.6469e+06 2358.35 0 1.63959e+06 2430.26 0 1.63208e+06 2498.34 0 1.62436e+06 2562.68 0 1.61645e+06 2623.4 0 1.60836e+06 2680.58 0 1.6001e+06 2734.34 0 1.59168e+06 2784.76 0 1.58311e+06 2831.95 0 1.57441e+06 2876.02 0 1.56557e+06 2917.06 0 1.55662e+06 2955.17 0 1.54755e+06 2990.45 0 1.53838e+06 3022.99 0 1.52911e+06 3052.89 0 1.51976e+06 3080.25 0 1.51032e+06 3105.15 0 1.50082e+06 3127.69 0 1.49125e+06 3147.96 0 1.48162e+06 3166.03 0 1.47193e+06 3182 0 1.46221e+06 3195.95 0 1.45244e+06 3207.96 0 1.44264e+06 3218.1 0 1.43281e+06 3226.45 0 1.42296e+06 3233.09 0 1.41309e+06 3238.08 0 1.40321e+06 3241.5 0 1.39332e+06 3243.42 0 1.38343e+06 3243.89 0 1.37353e+06 3242.99 0 1.36364e+06 3240.76 0 1.35377e+06 3237.28 0 1.3439e+06 3232.6 0 1.33405e+06 3226.77 0 1.32422e+06 3219.85 0 1.31441e+06 3211.88 0 1.30462e+06 3202.93 0 1.29487e+06 3193.02 0 1.28515e+06 3182.22 0 1.27546e+06 3170.56 0 1.26581e+06 3158.09 0 1.2562e+06 3144.85 0 1.24662e+06 3130.87 0 1.2371e+06 3116.2 0 1.22762e+06 3100.87 0 1.21818e+06 3084.92 0 1.2088e+06 3068.37 0 1.19947e+06 3051.26 0 1.19019e+06 3033.63 0 1.18096e+06 3015.5 0 1.17179e+06 2996.9 0 1.16268e+06 2977.85 0 1.15363e+06 2958.39 0 1.14463e+06 2938.53 0 1.1357e+06 2918.31 0 1.12683e+06 2897.74 0 1.11803e+06 2876.85 0 1.10928e+06 2855.66 0 1.10061e+06 2834.18 0 1.092e+06 2812.44 0 1.08345e+06 2790.45 0 1.07497e+06 2768.24 0 1.06657e+06 2745.82 0 1.05823e+06 2723.2 0 1.04995e+06 2700.4 0 1.04175e+06 2677.44 0 1.34025e+06 -2.27988e-06 0 1.34188e+06 -1233.9 0 1.34664e+06 -2378.86 0 1.35422e+06 -3372.67 0 1.36416e+06 -4189.7 0 1.37602e+06 -4833.24 0 1.38934e+06 -5321.83 0 1.40376e+06 -5678.56 0 1.41896e+06 -5925.37 0 1.43469e+06 -6081.13 0 1.45071e+06 -6161.5 0 1.46686e+06 -6179.35 0 1.48299e+06 -6145.37 0 1.49897e+06 -6068.42 0 1.5147e+06 -5955.99 0 1.53009e+06 -5814.33 0 1.54508e+06 -5648.74 0 1.55961e+06 -5463.65 0 1.57364e+06 -5262.82 0 1.58712e+06 -5049.41 0 1.60003e+06 -4826.06 0 1.61235e+06 -4595.03 0 1.62406e+06 -4358.2 0 1.63514e+06 -4117.19 0 1.64558e+06 -3873.35 0 1.65539e+06 -3627.85 0 1.66455e+06 -3381.69 0 1.67307e+06 -3135.74 0 1.68095e+06 -2890.74 0 1.68818e+06 -2647.34 0 1.69479e+06 -2406.1 0 1.70077e+06 -2167.52 0 1.70612e+06 -1932.04 0 1.71087e+06 -1700.04 0 1.71502e+06 -1471.87 0 1.71857e+06 -1247.81 0 1.72154e+06 -1028.13 0 1.72395e+06 -813.069 0 1.7258e+06 -602.815 0 1.7271e+06 -397.544 0 1.72788e+06 -197.405 0 1.72814e+06 -2.52154 0 1.72789e+06 187.004 0 1.72716e+06 371.088 0 1.72596e+06 549.669 0 1.72429e+06 722.699 0 1.72218e+06 890.15 0 1.71964e+06 1052.01 0 1.71669e+06 1208.27 0 1.71333e+06 1358.96 0 1.70958e+06 1504.09 0 1.70547e+06 1643.71 0 1.70099e+06 1777.87 0 1.69617e+06 1906.61 0 1.69103e+06 2030.02 0 1.68556e+06 2148.16 0 1.6798e+06 2261.12 0 1.67374e+06 2368.98 0 1.66742e+06 2471.84 0 1.66082e+06 2569.8 0 1.65398e+06 2662.97 0 1.6469e+06 2751.44 0 1.6396e+06 2835.33 0 1.63208e+06 2914.76 0 1.62436e+06 2989.83 0 1.61645e+06 3060.66 0 1.60836e+06 3127.37 0 1.6001e+06 3190.08 0 1.59168e+06 3248.91 0 1.58312e+06 3303.97 0 1.57441e+06 3355.38 0 1.56558e+06 3403.26 0 1.55662e+06 3447.72 0 1.54755e+06 3488.87 0 1.53838e+06 3526.84 0 1.52911e+06 3561.73 0 1.51976e+06 3593.64 0 1.51032e+06 3622.7 0 1.50082e+06 3648.99 0 1.49125e+06 3672.63 0 1.48162e+06 3693.72 0 1.47194e+06 3712.35 0 1.46221e+06 3728.62 0 1.45244e+06 3742.63 0 1.44264e+06 3754.46 0 1.43281e+06 3764.21 0 1.42296e+06 3771.95 0 1.41309e+06 3777.78 0 1.40321e+06 3781.77 0 1.39332e+06 3784 0 1.38343e+06 3784.55 0 1.37353e+06 3783.49 0 1.36364e+06 3780.9 0 1.35376e+06 3776.84 0 1.3439e+06 3771.38 0 1.33405e+06 3764.58 0 1.32422e+06 3756.5 0 1.31441e+06 3747.21 0 1.30462e+06 3736.76 0 1.29487e+06 3725.2 0 1.28515e+06 3712.6 0 1.27546e+06 3699 0 1.26581e+06 3684.45 0 1.25619e+06 3669 0 1.24662e+06 3652.69 0 1.2371e+06 3635.57 0 1.22762e+06 3617.69 0 1.21818e+06 3599.07 0 1.2088e+06 3579.77 0 1.19946e+06 3559.81 0 1.19019e+06 3539.24 0 1.18096e+06 3518.09 0 1.17179e+06 3496.38 0 1.16268e+06 3474.16 0 1.15363e+06 3451.46 0 1.14463e+06 3428.29 0 1.1357e+06 3404.7 0 1.12683e+06 3380.7 0 1.11803e+06 3356.33 0 1.10928e+06 3331.6 0 1.10061e+06 3306.54 0 1.09199e+06 3281.18 0 1.08345e+06 3255.53 0 1.07497e+06 3229.61 0 1.06656e+06 3203.45 0 1.05822e+06 3177.06 0 1.04995e+06 3150.47 0 1.04175e+06 3123.68 0 1.34017e+06 2.03773e-06 0 1.34181e+06 -1410.95 0 1.34658e+06 -2720.01 0 1.35416e+06 -3856 0 1.36412e+06 -4789.72 0 1.37598e+06 -5525.03 0 1.38932e+06 -6083.22 0 1.40374e+06 -6490.72 0 1.41895e+06 -6772.63 0 1.43468e+06 -6950.51 0 1.45071e+06 -7042.25 0 1.46686e+06 -7062.56 0 1.48299e+06 -7023.64 0 1.49897e+06 -6935.64 0 1.5147e+06 -6807.09 0 1.5301e+06 -6645.16 0 1.54509e+06 -6455.87 0 1.55963e+06 -6244.31 0 1.57365e+06 -6014.76 0 1.58714e+06 -5770.84 0 1.60005e+06 -5515.57 0 1.61237e+06 -5251.51 0 1.62407e+06 -4980.84 0 1.63515e+06 -4705.38 0 1.6456e+06 -4426.7 0 1.6554e+06 -4146.12 0 1.66456e+06 -3864.79 0 1.67308e+06 -3583.7 0 1.68096e+06 -3303.69 0 1.6882e+06 -3025.51 0 1.6948e+06 -2749.8 0 1.70078e+06 -2477.14 0 1.70614e+06 -2208.02 0 1.71088e+06 -1942.87 0 1.71503e+06 -1682.1 0 1.71858e+06 -1426.03 0 1.72155e+06 -1174.97 0 1.72396e+06 -929.18 0 1.72581e+06 -688.889 0 1.72711e+06 -454.293 0 1.72789e+06 -225.561 0 1.72815e+06 -2.83603 0 1.72791e+06 213.765 0 1.72717e+06 424.148 0 1.72597e+06 628.24 0 1.7243e+06 825.989 0 1.72219e+06 1017.36 0 1.71965e+06 1202.34 0 1.71669e+06 1380.93 0 1.71334e+06 1553.14 0 1.70959e+06 1719.01 0 1.70547e+06 1878.58 0 1.701e+06 2031.89 0 1.69618e+06 2179.03 0 1.69103e+06 2320.07 0 1.68557e+06 2455.08 0 1.6798e+06 2584.18 0 1.67375e+06 2707.45 0 1.66742e+06 2825.01 0 1.66083e+06 2936.96 0 1.65399e+06 3043.43 0 1.64691e+06 3144.54 0 1.6396e+06 3240.42 0 1.63209e+06 3331.19 0 1.62437e+06 3416.98 0 1.61645e+06 3497.93 0 1.60836e+06 3574.17 0 1.60011e+06 3645.84 0 1.59169e+06 3713.07 0 1.58312e+06 3776 0 1.57441e+06 3834.75 0 1.56558e+06 3889.47 0 1.55662e+06 3940.28 0 1.54755e+06 3987.31 0 1.53838e+06 4030.7 0 1.52911e+06 4070.57 0 1.51976e+06 4107.04 0 1.51033e+06 4140.25 0 1.50082e+06 4170.3 0 1.49125e+06 4197.32 0 1.48162e+06 4221.42 0 1.47194e+06 4242.71 0 1.46221e+06 4261.3 0 1.45244e+06 4277.31 0 1.44264e+06 4290.83 0 1.43281e+06 4301.97 0 1.42296e+06 4310.82 0 1.41309e+06 4317.47 0 1.40321e+06 4322.03 0 1.39332e+06 4324.59 0 1.38343e+06 4325.22 0 1.37353e+06 4324.01 0 1.36364e+06 4321.04 0 1.35376e+06 4316.4 0 1.3439e+06 4310.16 0 1.33405e+06 4302.38 0 1.32421e+06 4293.15 0 1.31441e+06 4282.53 0 1.30462e+06 4270.59 0 1.29487e+06 4257.38 0 1.28515e+06 4242.98 0 1.27546e+06 4227.43 0 1.26581e+06 4210.81 0 1.25619e+06 4193.15 0 1.24662e+06 4174.51 0 1.2371e+06 4154.95 0 1.22761e+06 4134.51 0 1.21818e+06 4113.23 0 1.2088e+06 4091.17 0 1.19946e+06 4068.36 0 1.19018e+06 4044.85 0 1.18096e+06 4020.67 0 1.17179e+06 3995.87 0 1.16268e+06 3970.48 0 1.15362e+06 3944.53 0 1.14463e+06 3918.05 0 1.1357e+06 3891.09 0 1.12683e+06 3863.66 0 1.11802e+06 3835.81 0 1.10928e+06 3807.55 0 1.1006e+06 3778.91 0 1.09199e+06 3749.92 0 1.08345e+06 3720.61 0 1.07497e+06 3690.99 0 1.06656e+06 3661.09 0 1.05822e+06 3630.93 0 1.04995e+06 3600.53 0 1.04175e+06 3569.92 0 1.34009e+06 -5.38304e-07 0 1.34173e+06 -1588.31 0 1.34651e+06 -3061.69 0 1.3541e+06 -4339.95 0 1.36407e+06 -5390.34 0 1.37595e+06 -6217.34 0 1.38929e+06 -6845.05 0 1.40372e+06 -7303.25 0 1.41894e+06 -7620.19 0 1.43467e+06 -7820.14 0 1.45071e+06 -7923.21 0 1.46686e+06 -7945.94 0 1.483e+06 -7902.06 0 1.49898e+06 -7802.98 0 1.51471e+06 -7658.3 0 1.53011e+06 -7476.06 0 1.5451e+06 -7263.06 0 1.55964e+06 -7025.02 0 1.57367e+06 -6766.75 0 1.58715e+06 -6492.3 0 1.60006e+06 -6205.1 0 1.61238e+06 -5908.02 0 1.62409e+06 -5603.49 0 1.63517e+06 -5293.58 0 1.64561e+06 -4980.05 0 1.65542e+06 -4664.39 0 1.66458e+06 -4347.89 0 1.6731e+06 -4031.65 0 1.68098e+06 -3716.63 0 1.68821e+06 -3403.67 0 1.69482e+06 -3093.5 0 1.7008e+06 -2786.75 0 1.70615e+06 -2483.98 0 1.7109e+06 -2185.69 0 1.71504e+06 -1892.32 0 1.7186e+06 -1604.24 0 1.72157e+06 -1321.79 0 1.72397e+06 -1045.28 0 1.72582e+06 -774.945 0 1.72713e+06 -511.023 0 1.7279e+06 -253.699 0 1.72816e+06 -3.13223 0 1.72792e+06 240.545 0 1.72719e+06 477.226 0 1.72598e+06 706.83 0 1.72431e+06 929.298 0 1.7222e+06 1144.59 0 1.71966e+06 1352.7 0 1.7167e+06 1553.61 0 1.71335e+06 1747.35 0 1.7096e+06 1933.95 0 1.70548e+06 2113.46 0 1.70101e+06 2285.94 0 1.69619e+06 2451.47 0 1.69104e+06 2610.13 0 1.68558e+06 2762.03 0 1.67981e+06 2907.26 0 1.67376e+06 3045.94 0 1.66743e+06 3178.18 0 1.66084e+06 3304.13 0 1.65399e+06 3423.91 0 1.64691e+06 3537.66 0 1.63961e+06 3645.52 0 1.63209e+06 3747.63 0 1.62437e+06 3844.15 0 1.61646e+06 3935.22 0 1.60837e+06 4020.99 0 1.60011e+06 4101.62 0 1.59169e+06 4177.25 0 1.58312e+06 4248.04 0 1.57442e+06 4314.13 0 1.56558e+06 4375.69 0 1.55662e+06 4432.85 0 1.54756e+06 4485.76 0 1.53838e+06 4534.57 0 1.52912e+06 4579.42 0 1.51976e+06 4620.46 0 1.51033e+06 4657.81 0 1.50082e+06 4691.62 0 1.49125e+06 4722.01 0 1.48162e+06 4749.12 0 1.47194e+06 4773.07 0 1.46221e+06 4793.99 0 1.45244e+06 4812 0 1.44264e+06 4827.21 0 1.43281e+06 4839.73 0 1.42296e+06 4849.69 0 1.41309e+06 4857.18 0 1.40321e+06 4862.31 0 1.39332e+06 4865.18 0 1.38343e+06 4865.88 0 1.37353e+06 4864.52 0 1.36364e+06 4861.19 0 1.35376e+06 4855.96 0 1.3439e+06 4848.94 0 1.33405e+06 4840.19 0 1.32421e+06 4829.81 0 1.31441e+06 4817.86 0 1.30462e+06 4804.42 0 1.29487e+06 4789.57 0 1.28514e+06 4773.36 0 1.27546e+06 4755.87 0 1.2658e+06 4737.17 0 1.25619e+06 4717.3 0 1.24662e+06 4696.33 0 1.23709e+06 4674.33 0 1.22761e+06 4651.33 0 1.21818e+06 4627.39 0 1.2088e+06 4602.57 0 1.19946e+06 4576.91 0 1.19018e+06 4550.46 0 1.18096e+06 4523.26 0 1.17179e+06 4495.36 0 1.16268e+06 4466.79 0 1.15362e+06 4437.6 0 1.14463e+06 4407.81 0 1.1357e+06 4377.48 0 1.12683e+06 4346.63 0 1.11802e+06 4315.29 0 1.10928e+06 4283.49 0 1.1006e+06 4251.28 0 1.09199e+06 4218.67 0 1.08345e+06 4185.69 0 1.07497e+06 4152.37 0 1.06656e+06 4118.73 0 1.05822e+06 4084.8 0 1.04995e+06 4050.6 0 1.04175e+06 4016.16 0 1.34e+06 1.36718e-06 0 1.34164e+06 -1766.03 0 1.34643e+06 -3403.96 0 1.35404e+06 -4824.59 0 1.36402e+06 -5991.62 0 1.3759e+06 -6910.26 0 1.38926e+06 -7607.4 0 1.4037e+06 -8116.2 0 1.41892e+06 -8468.11 0 1.43466e+06 -8690.06 0 1.4507e+06 -8804.4 0 1.46687e+06 -8829.52 0 1.483e+06 -8780.65 0 1.49899e+06 -8670.46 0 1.51472e+06 -8509.61 0 1.53012e+06 -8307.05 0 1.54512e+06 -8070.33 0 1.55965e+06 -7805.79 0 1.57368e+06 -7518.78 0 1.58717e+06 -7213.8 0 1.60008e+06 -6894.66 0 1.6124e+06 -6564.54 0 1.6241e+06 -6226.16 0 1.63518e+06 -5881.8 0 1.64563e+06 -5533.41 0 1.65544e+06 -5182.67 0 1.6646e+06 -4830.98 0 1.67312e+06 -4479.6 0 1.68099e+06 -4129.57 0 1.68823e+06 -3781.83 0 1.69484e+06 -3437.18 0 1.70081e+06 -3096.34 0 1.70617e+06 -2759.93 0 1.71092e+06 -2428.49 0 1.71506e+06 -2102.52 0 1.71861e+06 -1782.43 0 1.72159e+06 -1468.59 0 1.72399e+06 -1161.35 0 1.72584e+06 -860.983 0 1.72714e+06 -567.734 0 1.72792e+06 -281.817 0 1.72818e+06 -3.40785 0 1.72793e+