<?xml version="1.0"?> 
<VTKFile type="StructuredGrid" version="0.1"> 
<StructuredGrid WholeExtent="0 63 0 63 0 0"> 
<Piece Extent="0 63 0 63 0 0"> 
<PointData>
<DataArray type="Float32" Name="|E|" format="ascii" NumberOfComponents="3"> 
988.659 9.53674e-07 0 154.331 -450.235 0 107.497 -264.202 0 13.0405 -241.384 0 -12.5796 -185.791 0 -37.6826 -156.563 0 -48.0821 -127.031 0 -54.8545 -105.162 0 -57.143 -86.3755 0 -57.3421 -71.2418 0 -55.8842 -58.6613 0 -53.5027 -48.3288 0 -50.5275 -39.7889 0 -47.2508 -32.7436 0 -43.8476 -26.9241 0 -40.4468 -22.118 0 -37.1307 -18.1479 0 -33.9542 -14.8686 0 -30.9502 -12.1601 0 -28.1374 -9.92365 0 -25.5237 -8.07746 0 -23.1096 -6.55413 0 -20.8909 -5.29794 0 -18.8599 -4.26283 0 -17.0068 -3.4107 0 -15.3208 -2.71003 0 -13.7903 -2.13475 0 -12.4037 -1.66327 0 -11.1496 -1.27769 0 -10.0168 -0.963203 0 -8.99504 -0.707522 0 -8.07426 -0.500466 0 -7.24529 -0.333586 0 -6.4996 -0.199877 0 -5.82929 -0.093524 0 -5.22715 -0.00970292 0 -4.68655 0.0555898 0 -4.20149 0.105679 0 -3.76649 0.143318 0 -3.37658 0.170792 0 -3.02727 0.189998 0 -2.71451 0.202498 0 -2.43462 0.20959 0 -2.18433 0.212342 0 -1.96066 0.211634 0 -1.76095 0.208187 0 -1.5828 0.202588 0 -1.42409 0.195317 0 -1.28289 0.186758 0 -1.15749 0.177218 0 -1.04637 0.166937 0 -0.948173 0.156103 0 -0.8617 0.144848 0 -0.785884 0.133273 0 -0.719791 0.121437 0 -0.6626 0.109369 0 -0.613597 0.0970747 0 -0.572165 0.0845296 0 -0.53778 0.0716896 0 -0.51 0.0584877 0 -0.488461 0.0448362 0 -0.472875 0.0306275 0 -0.463024 0.015732 0 -0.458755 7.15256e-07 0 772.091 -1.37091e-06 0 224.314 -365.189 0 101.436 -261.811 0 29.704 -227.136 0 -8.29818 -183.423 0 -30.6097 -152.964 0 -43.8076 -126.079 0 -50.7607 -104.483 0 -54.0237 -86.4293 0 -54.6801 -71.5502 0 -53.7309 -59.2089 0 -51.713 -48.991 0 -49.0586 -40.522 0 -46.0376 -33.5032 0 -42.8488 -27.6848 0 -39.6237 -22.8612 0 -36.4533 -18.8619 0 -33.3969 -15.546 0 -30.4924 -12.7968 0 -27.7617 -10.5176 0 -25.2158 -8.62827 0 -22.8578 -7.06256 0 -20.6854 -5.76544 0 -18.6926 -4.69133 0 -16.8711 -3.8024 0 -15.2111 -3.06731 0 -13.7021 -2.46001 0 -12.3331 -1.9589 0 -11.0935 -1.54603 0 -9.97267 -1.20648 0 -8.96063 -0.927849 0 -8.04784 -0.699829 0 -7.2254 -0.513837 0 -6.485 -0.362733 0 -5.81899 -0.240571 0 -5.22032 -0.142397 0 -4.68251 -0.0640867 0 -4.19966 -0.00220077 0 -3.76641 0.0461197 0 -3.37788 0.0832655 0 -3.02963 0.11122 0 -2.71767 0.131635 0 -2.43838 0.145887 0 -2.18852 0.155115 0 -1.96514 0.160267 0 -1.76561 0.162123 0 -1.58757 0.161326 0 -1.42889 0.158408 0 -1.28767 0.153797 0 -1.16222 0.147846 0 -1.05102 0.140832 0 -0.952722 0.132974 0 -0.866141 0.124445 0 -0.790215 0.115368 0 -0.724016 0.105834 0 -0.666728 0.0958973 0 -0.617642 0.085585 0 -0.576144 0.0748983 0 -0.541717 0.063811 0 -0.513921 0.0522786 0 -0.492396 0.0402315 0 -0.47686 0.0275796 0 -0.467099 0.0142139 0 -0.462963 2.32831e-07 0 622.237 1.74344e-06 0 255.62 -299.614 0 105.578 -251.348 0 40.1376 -215.573 0 -2.18771 -179.301 0 -24.8259 -149.722 0 -39.2848 -124.669 0 -46.9608 -103.749 0 -50.8991 -86.3119 0 -52.0933 -71.7692 0 -51.5892 -59.6641 0 -49.9411 -49.5842 0 -47.5912 -41.1959 0 -44.8234 -34.2148 0 -41.8439 -28.4057 0 -38.7925 -23.5716 0 -35.7661 -19.5488 0 -32.8292 -16.2011 0 -30.0236 -13.415 0 -27.3751 -11.0963 0 -24.8973 -9.16659 0 -22.5957 -7.56071 0 -20.4701 -6.22449 0 -18.5161 -5.11289 0 -16.7268 -4.18843 0 -15.0934 -3.41995 0 -13.6063 -2.78149 0 -12.2556 -2.25146 0 -11.031 -1.81188 0 -9.92265 -1.44775 0 -8.92086 -1.14657 0 -8.01652 -0.89791 0 -7.20102 -0.693075 0 -6.46632 -0.524797 0 -5.80497 -0.387004 0 -5.21009 -0.274626 0 -4.67537 -0.183419 0 -4.19503 -0.109836 0 -3.76379 -0.0509094 0 -3.37685 -0.00415827 0 -3.02988 0.0324954 0 -2.71892 0.0607854 0 -2.44041 0.0821657 0 -2.19113 0.0978464 0 -1.96819 0.108839 0 -1.76898 0.115984 0 -1.59115 0.119982 0 -1.43261 0.12141 0 -1.29147 0.120745 0 -1.16605 0.11838 0 -1.05484 0.114631 0 -0.956517 0.109755 0 -0.86989 0.103951 0 -0.793909 0.0973779 0 -0.72765 0.090151 0 -0.670306 0.0823506 0 -0.621171 0.0740288 0 -0.579638 0.0652058 0 -0.545192 0.0558808 0 -0.517399 0.0460265 0 -0.495903 0.0355928 0 -0.480426 0.0245091 0 -0.470758 0.0126834 0 -0.466757 -2.57045e-07 0 515.455 -1.52737e-06 0 265.178 -248.48 0 112.691 -236.762 0 47.6487 -205.178 0 4.17037 -174.271 0 -19.6308 -146.503 0 -34.8461 -122.978 0 -43.3192 -102.904 0 -47.8381 -86.0578 0 -49.5588 -71.892 0 -49.4748 -60.0341 0 -48.185 -50.109 0 -46.13 -41.8124 0 -43.6092 -34.8792 0 -40.8349 -29.0873 0 -37.9545 -24.2495 0 -35.0703 -20.2089 0 -32.2517 -16.8339 0 -29.5447 -14.0148 0 -26.9781 -11.6597 0 -24.5686 -9.69226 0 -22.3238 -8.04841 0 -20.2454 -6.67492 0 -18.3307 -5.52735 0 -16.574 -4.56861 0 -14.9677 -3.76777 0 -13.5033 -3.09902 0 -12.1713 -2.5408 0 -10.9623 -2.0751 0 -9.86688 -1.68687 0 -8.87581 -1.36355 0 -7.98036 -1.09459 0 -7.17221 -0.871187 0 -6.44359 -0.685964 0 -5.78725 -0.532731 0 -5.1965 -0.406302 0 -4.66517 -0.302326 0 -4.1876 -0.217148 0 -3.75862 -0.147704 0 -3.37352 -0.0914148 0 -3.02803 -0.0461186 0 -2.71826 -0.00999772 0 -2.44069 0.0184739 0 -2.19216 0.0405789 0 -1.96981 0.0573901 0 -1.77104 0.0698094 0 -1.59355 0.0785861 0 -1.43525 0.0843512 0 -1.29428 0.0876269 0 -1.16898 0.0888438 0 -1.05784 0.0883589 0 -0.959559 0.0864613 0 -0.872945 0.0833867 0 -0.796961 0.0793186 0 -0.730691 0.0744017 0 -0.673331 0.0687426 0 -0.624184 0.0624146 0 -0.582644 0.0554638 0 -0.548204 0.0479061 0 -0.520432 0.0397368 0 -0.498979 0.0309247 0 -0.48357 0.0214177 0 -0.474 0.0111419 0 -0.470131 -1.3411e-07 0 437.168 8.64267e-07 0 262.684 -208.294 0 119.531 -220.321 0 53.6112 -195.296 0 10.1748 -168.738 0 -14.7926 -143.188 0 -30.5983 -121.083 0 -39.8031 -101.931 0 -44.8614 -85.6832 0 -47.0753 -71.9194 0 -47.3933 -60.323 0 -46.4467 -50.5668 0 -44.6776 -42.3731 0 -42.397 -35.497 0 -39.8234 -29.7303 0 -37.1109 -24.8953 0 -34.3669 -20.8421 0 -31.6656 -17.4444 0 -29.0564 -14.596 0 -26.5716 -12.2078 0 -24.2302 -10.2052 0 -22.0424 -8.52553 0 -20.0116 -7.11658 0 -18.1366 -5.93454 0 -16.413 -4.94278 0 -14.8345 -4.11063 0 -13.3931 -3.41245 0 -12.0804 -2.82675 0 -10.8875 -2.33554 0 -9.80544 -1.92372 0 -8.82556 -1.57866 0 -7.93941 -1.28975 0 -7.13902 -1.04807 0 -6.41685 -0.846137 0 -5.76587 -0.677659 0 -5.17957 -0.537343 0 -4.65192 -0.420732 0 -4.17739 -0.32407 0 -3.75092 -0.244197 0 -3.36789 -0.178446 0 -3.02409 -0.124567 0 -2.7157 -0.0806661 0 -2.43925 -0.045142 0 -2.19162 -0.0166465 0 -1.96999 0.00595776 0 -1.7718 0.0236293 0 -1.59476 0.0371707 0 -1.43681 0.0472613 0 -1.29611 0.0544657 0 -1.17101 0.0592595 0 -1.06002 0.0620339 0 -0.961843 0.063114 0 -0.875305 0.062766 0 -0.799372 0.0612042 0 -0.733137 0.0585994 0 -0.675802 0.0550835 0 -0.626676 0.0507543 0 -0.58516 0.0456778 0 -0.550749 0.0398933 0 -0.523018 0.0334151 0 -0.501622 0.0262312 0 -0.486289 0.0183087 0 -0.47682 0.00959103 0 -0.473084 3.27826e-07 0 378.098 -7.15256e-07 0 253.817 -176.404 0 124.771 -203.471 0 58.5818 -185.626 0 15.6145 -162.937 0 -10.2462 -139.733 0 -26.5728 -119.032 0 -36.4107 -100.831 0 -41.9758 -85.1992 0 -44.646 -71.8548 0 -45.3479 -60.5346 0 -44.7291 -50.9597 0 -43.2363 -42.8794 0 -41.1887 -36.0694 0 -38.8109 -30.3352 0 -36.263 -25.5092 0 -33.6571 -21.4488 0 -31.0716 -18.0328 0 -28.5595 -15.1588 0 -26.156 -12.7405 0 -23.8828 -10.7053 0 -21.7521 -8.99196 0 -19.7691 -7.54934 0 -17.9342 -6.33433 0 -16.2442 -5.31079 0 -14.6937 -4.44838 0 -13.276 -3.72165 0 -11.983 -3.10919 0 -10.8066 -2.59307 0 -9.73845 -2.15817 0 -8.77018 -1.7918 0 -7.89376 -1.48328 0 -7.10151 -1.22362 0 -6.38615 -1.00522 0 -5.74087 -0.8217 0 -5.15933 -0.667665 0 -4.63565 -0.538558 0 -4.16443 -0.43053 0 -3.74072 -0.340326 0 -3.35997 -0.265192 0 -3.01807 -0.202797 0 -2.71124 -0.15117 0 -2.43608 -0.108639 0 -2.18951 -0.0737882 0 -1.96874 -0.0454205 0 -1.77125 -0.0225215 0 -1.59478 -0.00423377 0 -1.43729 0.0101666 0 -1.29695 0.0212898 0 -1.17213 0.02965 0 -1.06138 0.0356772 0 -0.963371 0.0397304 0 -0.876967 0.0421065 0 -0.801139 0.0430494 0 -0.734986 0.0427567 0 -0.677717 0.0413847 0 -0.628647 0.0390557 0 -0.587184 0.0358573 0 -0.552826 0.03185 0 -0.525154 0.0270672 0 -0.503828 0.0215169 0 -0.488581 0.0151844 0 -0.479218 0.00803216 0 -0.475612 -1.49012e-07 0 332.293 7.45058e-07 0 241.846 -150.853 0 128.068 -187.051 0 62.7513 -176.088 0 20.4483 -157.001 0 -5.9892 -136.143 0 -22.7733 -116.85 0 -33.1489 -99.613 0 -39.1841 -84.6139 0 -42.2755 -71.7026 0 -43.3414 -60.6721 0 -43.0348 -51.2899 0 -41.8081 -43.3329 0 -39.9861 -36.5974 0 -37.7991 -30.9028 0 -35.4122 -26.0919 0 -32.942 -22.0293 0 -30.4707 -18.5992 0 -28.0548 -15.7032 0 -25.7321 -13.2578 0 -23.5268 -11.1924 0 -21.4532 -9.4476 0 -19.5183 -7.97308 0 -17.7237 -6.72658 0 -16.0677 -5.67251 0 -14.5458 -4.78088 0 -13.152 -4.02646 0 -11.8793 -3.38799 0 -10.7199 -2.84756 0 -9.666 -2.39009 0 -8.70976 -2.00284 0 -7.84346 -1.67508 0 -7.05973 -1.39772 0 -6.35154 -1.16311 0 -5.71229 -0.964764 0 -5.13581 -0.797187 0 -4.61639 -0.655732 0 -4.14874 -0.53646 0 -3.72802 -0.436026 0 -3.34978 -0.351595 0 -3.00997 -0.280755 0 -2.7049 -0.221461 0 -2.4312 -0.171971 0 -2.18584 -0.130806 0 -1.96607 -0.0967079 0 -1.76941 -0.0686077 0 -1.59362 -0.0455967 0 -1.43669 -0.0269046 0 -1.29681 -0.0118774 0 -1.17236 3.89442e-05 0 -1.0619 0.00930995 0 -0.964141 0.0163295 0 -0.877932 0.0214244 0 -0.802262 0.0248688 0 -0.736237 0.026886 0 -0.679074 0.0276579 0 -0.630095 0.0273294 0 -0.588713 0.02601 0 -0.554433 0.0237822 0 -0.52684 0.020698 0 -0.505597 0.0167852 0 -0.490444 0.0120477 0 -0.48119 0.00646689 0 -0.477714 -2.98023e-08 0 295.862 -2.98023e-07 0 228.638 -130.183 0 129.522 -171.528 0 66.1798 -166.701 0 24.6942 -151.012 0 -2.03286 -132.438 0 -19.1969 -114.557 0 -30.0247 -98.2867 0 -36.4882 -83.9346 0 -39.9677 -71.4679 0 -41.3763 -60.7392 0 -41.3664 -51.5598 0 -40.395 -43.7352 0 -38.7909 -37.082 0 -36.7894 -31.4338 0 -34.5597 -26.6437 0 -32.2226 -22.5838 0 -29.8638 -19.1437 0 -27.5429 -16.2292 0 -25.3004 -13.7596 0 -23.1628 -11.6667 0 -21.1463 -9.89237 0 -19.2595 -8.38769 0 -17.5055 -7.11118 0 -15.8838 -6.02781 0 -14.3908 -5.108 0 -13.0215 -4.32676 0 -11.7693 -3.66301 0 -10.6274 -3.0989 0 -9.58819 -2.61937 0 -8.64438 -2.21168 0 -7.7886 -1.86503 0 -7.01375 -1.5703 0 -6.31307 -1.31973 0 -5.68016 -1.10677 0 -5.10904 -0.925829 0 -4.59415 -0.772179 0 -4.13034 -0.64179 0 -3.71285 -0.531235 0 -3.33734 -0.437596 0 -2.99982 -0.358388 0 -2.69668 -0.29149 0 -2.42461 -0.235094 0 -2.18061 -0.187659 0 -1.96199 -0.147867 0 -1.76628 -0.114597 0 -1.59128 -0.0868877 0 -1.43501 -0.0639244 0 -1.29568 -0.0450099 0 -1.17169 -0.0295519 0 -1.06161 -0.0170475 0 -0.964153 -0.0070714 0 -0.878199 0.000736557 0 -0.802739 0.00667695 0 -0.736889 0.0110004 0 -0.679873 0.013914 0 -0.63102 0.0155845 0 -0.589748 0.0161448 0 -0.555569 0.0156964 0 -0.528072 0.014313 0 -0.506928 0.0120404 0 -0.491877 0.00890142 0 -0.482736 0.00489608 0 -0.479387 2.23517e-07 0 266.218 5.96046e-08 0 215.235 -113.299 0 129.409 -157.13 0 68.8944 -157.526 0 28.3887 -145.029 0 1.61328 -128.646 0 -15.8403 -112.17 0 -27.0432 -96.8641 0 -33.8904 -83.1686 0 -37.7256 -71.1559 0 -39.4549 -60.7391 0 -39.7262 -51.7719 0 -38.999 -44.0882 0 -37.6048 -37.5246 0 -35.7831 -31.9291 0 -33.7066 -27.1652 0 -31.4999 -23.1127 0 -29.2517 -19.6667 0 -27.0245 -16.7369 0 -24.8615 -14.2461 0 -22.7912 -12.1279 0 -20.8317 -10.3262 0 -18.993 -8.7931 0 -17.2799 -7.48803 0 -15.6927 -6.37658 0 -14.229 -5.42962 0 -12.8845 -4.62244 0 -11.6533 -3.93413 0 -10.5292 -3.34696 0 -9.50513 -2.8459 0 -8.57414 -2.4182 0 -7.72924 -2.05304 0 -6.96362 -1.74124 0 -6.27078 -1.47498 0 -5.64453 -1.24763 0 -5.07907 -1.05351 0 -4.56899 -0.887826 0 -4.10925 -0.746455 0 -3.69522 -0.625892 0 -3.32265 -0.523141 0 -2.98763 -0.435643 0 -2.6866 -0.361209 0 -2.41631 -0.297965 0 -2.17383 -0.244307 0 -1.95648 -0.198862 0 -1.76186 -0.160454 0 -1.58777 -0.128076 0 -1.43226 -0.100865 0 -1.29357 -0.0780833 0 -1.17012 -0.0590997 0 -1.06048 -0.0433757 0 -0.963408 -0.0304521 0 -0.877768 -0.0199406 0 -0.802572 -0.0115108 0 -0.736942 -0.00488604 0 -0.680114 0.00016433 0 -0.63142 0.00383154 0 -0.590288 0.00627007 0 -0.556233 0.00760059 0 -0.528852 0.00791772 0 -0.507818 0.00728702 0 -0.492879 0.00574878 0 -0.483854 0.00332173 0 -0.480631 4.47035e-08 0 241.606 5.06639e-07 0 202.197 -99.3779 0 128.046 -143.937 0 70.9258 -148.63 0 31.5706 -139.095 0 4.94589 -124.797 0 -12.7001 -109.706 0 -24.2076 -95.3566 0 -31.3926 -82.3231 0 -35.5519 -70.7717 0 -37.5794 -60.6755 0 -38.1161 -51.9287 0 -37.6217 -44.3935 0 -36.4294 -37.9263 0 -34.7816 -32.3896 0 -32.8541 -27.6571 0 -30.7748 -23.6164 0 -28.6352 -20.1682 0 -26.5005 -17.2266 0 -24.4161 -14.7172 0 -22.4126 -12.5762 0 -20.5098 -10.7491 0 -18.7194 -9.18923 0 -17.0472 -7.85703 0 -15.4948 -6.71872 0 -14.0607 -5.74563 0 -12.7412 -4.91338 0 -11.5315 -4.20125 0 -10.4255 -3.59163 0 -9.41693 -3.06956 0 -8.49912 -2.6223 0 -7.66545 -2.239 0 -6.90941 -1.91045 0 -6.22473 -1.62877 0 -5.60545 -1.38725 0 -5.04593 -1.18016 0 -4.54091 -1.0026 0 -4.0855 -0.850388 0 -3.67516 -0.719934 0 -3.30574 -0.608171 0 -2.9734 -0.512469 0 -2.67466 -0.430571 0 -2.40633 -0.360539 0 -2.16551 -0.300711 0 -1.94958 -0.249656 0 -1.75615 -0.206149 0 -1.58308 -0.169132 0 -1.42844 -0.137699 0 -1.29049 -0.111072 0 -1.16765 -0.0885814 0 -1.05854 -0.0696529 0 -0.961908 -0.0537963 0 -0.876641 -0.0405915 0 -0.80176 -0.0296807 0 -0.736397 -0.020762 0 -0.679796 -0.0135792 0 -0.631296 -0.00791971 0 -0.590332 -0.00360716 0 -0.556425 -0.000498489 0 -0.529177 0.00151827 0 -0.508268 0.00252846 0 -0.493448 0.00259189 0 -0.484543 0.00174481 0 -0.481444 -3.42727e-07 0 220.812 -4.47035e-07 0 189.807 -87.797 0 125.732 -131.945 0 72.3191 -140.075 0 34.2771 -133.248 0 7.96767 -120.917 0 -9.77359 -107.179 0 -21.5193 -93.7757 0 -28.9965 -81.4055 0 -33.4487 -70.3207 0 -35.752 -60.5521 0 -36.5382 -52.0329 0 -36.2649 -44.653 0 -35.2661 -38.2885 0 -33.7861 -32.8161 0 -32.0034 -28.12 0 -30.0483 -24.0953 0 -28.0151 -20.6487 0 -25.9714 -17.6983 0 -23.9646 -15.1731 0 -22.0274 -13.0115 0 -20.1811 -11.1609 0 -18.4388 -9.57602 0 -16.8076 -8.2181 0 -15.2902 -7.05413 0 -13.8859 -6.05593 0 -12.5919 -5.19947 0 -11.4039 -4.46425 0 -10.3164 -3.83281 0 -9.32369 -3.29025 0 -8.41942 -2.82387 0 -7.59732 -2.42283 0 -6.85118 -2.07785 0 -6.17498 -1.78103 0 -5.56296 -1.52558 0 -5.00966 -1.3057 0 -4.50996 -1.11644 0 -4.05912 -0.953525 0 -3.6527 -0.813303 0 -3.28663 -0.692632 0 -2.95717 -0.588815 0 -2.66089 -0.499528 0 -2.39467 -0.422774 0 -2.15566 -0.356829 0 -1.94127 -0.300213 0 -1.74917 -0.251645 0 -1.57723 -0.210024 0 -1.42356 -0.174399 0 -1.28642 -0.143952 0 -1.16429 -0.117974 0 -1.05578 -0.0958598 0 -0.959654 -0.0770841 0 -0.87482 -0.0611981 0 -0.800305 -0.0478182 0 -0.735255 -0.0366138 0 -0.67892 -0.0273067 0 -0.630648 -0.0196599 0 -0.589881 -0.0134772 0 -0.556145 -0.00859453 0 -0.529049 -0.0048805 0 -0.508276 -0.00223035 0 -0.493585 -0.000566043 0 -0.484802 0.000166491 0 -0.481826 4.17233e-07 0 202.979 4.17233e-07 0 178.188 -78.0798 0 122.724 -121.098 0 73.1312 -131.906 0 36.5437 -127.519 0 10.686 -117.033 0 -7.05733 -104.606 0 -18.9787 -92.1323 0 -26.7034 -80.4232 0 -31.4176 -69.8082 0 -33.9743 -60.3725 0 -34.9939 -52.0871 0 -34.9301 -44.8687 0 -34.1163 -38.6127 0 -32.7979 -33.2097 0 -31.1553 -28.5546 0 -29.3213 -24.55 0 -27.3923 -21.1084 0 -25.4379 -18.1523 0 -23.5078 -15.6138 0 -21.6361 -13.4339 0 -19.8459 -11.5618 0 -18.1516 -9.95343 0 -16.5615 -8.57118 0 -15.0792 -7.38273 0 -13.705 -6.36043 0 -12.4367 -5.48061 0 -11.2707 -4.72303 0 -10.2021 -4.07039 0 -9.22553 -3.50788 0 -8.33513 -3.02284 0 -7.52493 -2.60442 0 -6.78901 -2.24335 0 -6.12158 -1.93165 0 -5.5171 -1.66251 0 -4.97029 -1.43006 0 -4.47618 -1.22927 0 -4.03013 -1.0558 0 -3.62784 -0.905938 0 -3.26533 -0.77647 0 -2.93893 -0.66463 0 -2.64529 -0.568036 0 -2.38134 -0.484626 0 -2.14428 -0.412626 0 -1.93157 -0.350497 0 -1.74092 -0.296913 0 -1.57022 -0.250724 0 -1.41761 -0.210939 0 -1.28139 -0.176697 0 -1.16004 -0.147257 0 -1.0522 -0.121976 0 -0.956649 -0.100298 0 -0.872305 -0.0817465 0 -0.798209 -0.0659078 0 -0.733517 -0.0524287 0 -0.677487 -0.0410049 0 -0.629477 -0.0313789 0 -0.588934 -0.0233323 0 -0.555393 -0.0166806 0 -0.528467 -0.0112731 0 -0.507845 -0.00698617 0 -0.493289 -0.00372282 0 -0.484633 -0.00141083 0 -0.481777 -4.47035e-07 0 187.487 -5.66244e-07 0 167.372 -69.86 0 119.232 -111.315 0 73.4268 -124.154 0 38.4046 -121.935 0 13.1118 -113.166 0 -4.54726 -102.001 0 -16.585 -90.437 0 -24.5142 -79.3834 0 -29.46 -69.2392 0 -32.2479 -60.1405 0 -33.4848 -52.094 0 -33.6188 -45.0425 0 -32.9812 -38.9001 0 -31.818 -33.5715 0 -30.311 -28.9616 0 -28.5946 -24.9809 0 -26.7673 -21.5477 0 -24.9007 -18.5887 0 -23.0461 -16.0395 0 -21.2393 -13.8435 0 -19.5048 -11.9516 0 -17.8583 -10.3214 0 -16.3092 -8.91621 0 -14.8621 -7.70445 0 -13.5181 -6.65904 0 -12.2758 -5.75671 0 -11.132 -4.9775 0 -10.0826 -4.30427 0 -9.12256 -3.72234 0 -8.24634 -3.21909 0 -7.44835 -2.78369 0 -6.72295 -2.40685 0 -6.0646 -2.08057 0 -5.46794 -1.79798 0 -4.92788 -1.55316 0 -4.43959 -1.34102 0 -3.99858 -1.15715 0 -3.60064 -0.997783 0 -3.24188 -0.859629 0 -2.91873 -0.739866 0 -2.62789 -0.636046 0 -2.36636 -0.546055 0 -2.1314 -0.468059 0 -1.9205 -0.400472 0 -1.7314 -0.341917 0 -1.56206 -0.291202 0 -1.41061 -0.24729 0 -1.27539 -0.209285 0 -1.15491 -0.176407 0 -1.04781 -0.147981 0 -0.952896 -0.12342 0 -0.8691 -0.102219 0 -0.795474 -0.0839362 0 -0.731184 -0.0681937 0 -0.675499 -0.0546649 0 -0.627784 -0.0430681 0 -0.587494 -0.0331641 0 -0.55417 -0.0247497 0 -0.527432 -0.0176537 0 -0.506973 -0.011734 0 -0.492561 -0.00687549 0 -0.484034 -0.00298685 0 -0.481297 5.96046e-08 0 173.881 2.98023e-07 0 157.343 -62.854 0 115.42 -102.505 0 73.2733 -116.836 0 39.8929 -116.518 0 15.2581 -109.338 0 -2.23838 -99.3779 0 -14.3367 -88.6997 0 -22.429 -78.2933 0 -27.5767 -68.6189 0 -30.5741 -59.8597 0 -32.0123 -52.0563 0 -32.3321 -45.1763 0 -31.8621 -39.1522 0 -30.8476 -33.9023 0 -29.4714 -29.3418 0 -27.8692 -25.3886 0 -26.1411 -21.9669 0 -24.3604 -19.0079 0 -22.58 -16.4503 0 -20.8373 -14.2403 0 -19.158 -12.3305 0 -17.5591 -10.68 0 -16.0509 -9.25315 0 -14.6391 -8.01922 0 -13.3254 -6.95168 0 -12.1093 -6.02769 0 -10.9881 -5.22756 0 -9.95818 -4.53438 0 -9.01488 -3.93355 0 -8.15314 -3.41254 0 -7.36767 -2.96055 0 -6.65309 -2.56828 0 -6.00408 -2.2277 0 -5.41552 -1.93191 0 -4.88246 -1.67493 0 -4.40024 -1.45162 0 -3.96448 -1.25752 0 -3.5711 -1.08878 0 -3.21629 -0.942058 0 -2.89656 -0.814472 0 -2.6087 -0.703516 0 -2.34975 -0.607018 0 -2.11702 -0.523094 0 -1.90806 -0.450105 0 -1.72064 -0.386629 0 -1.55275 -0.331427 0 -1.40256 -0.283427 0 -1.26844 -0.241689 0 -1.14889 -0.205402 0 -1.04261 -0.173855 0 -0.948398 -0.146433 0 -0.865207 -0.122599 0 -0.792102 -0.101888 0 -0.728259 -0.0838966 0 -0.672957 -0.0682735 0 -0.625571 -0.0547164 0 -0.585562 -0.0429647 0 -0.552478 -0.0327949 0 -0.525945 -0.0240171 0 -0.505662 -0.0164704 0 -0.491402 -0.0100206 0 -0.483006 -0.00455947 0 -0.480386 2.98023e-07 0 161.818 -4.76837e-07 0 148.058 -56.8397 0 111.416 -94.5749 0 72.7366 -109.956 0 41.0414 -111.285 0 17.1396 -105.565 0 -0.124776 -96.7496 0 -12.2315 -86.9302 0 -20.4476 -77.1598 0 -25.7684 -67.9525 0 -28.9538 -59.5341 0 -30.5774 -51.9769 0 -31.0712 -45.2723 0 -30.7599 -39.3707 0 -29.8876 -34.2034 0 -28.6373 -29.6959 0 -27.1456 -25.7736 0 -25.5142 -22.3664 0 -23.8175 -19.41 0 -22.1101 -16.8465 0 -20.4305 -14.6244 0 -18.8059 -12.6985 0 -17.2543 -11.0292 0 -15.787 -9.58197 0 -14.4104 -8.32699 0 -13.1273 -7.23829 0 -11.9375 -6.29346 0 -10.8391 -5.47314 0 -9.82886 -4.76061 0 -8.90261 -4.14142 0 -8.05565 -3.60311 0 -7.28297 -3.13492 0 -6.57948 -2.72755 0 -5.9401 -2.37297 0 -5.35988 -2.06423 0 -4.83408 -1.79532 0 -4.35816 -1.56102 0 -3.92788 -1.35685 0 -3.53926 -1.17887 0 -3.18859 -1.0237 0 -2.87247 -0.888401 0 -2.58774 -0.770399 0 -2.33151 -0.667474 0 -2.10115 -0.57769 0 -1.89426 -0.499359 0 -1.70864 -0.431013 0 -1.54231 -0.371373 0 -1.39348 -0.319322 0 -1.26053 -0.273888 0 -1.14201 -0.23422 0 -1.03661 -0.199579 0 -0.943161 -0.169318 0 -0.860632 -0.142872 0 -0.788097 -0.11975 0 -0.724746 -0.0995245 0 -0.669865 -0.0818209 0 -0.62284 -0.0663148 0 -0.583139 -0.0527255 0 -0.550318 -0.0408096 0 -0.524007 -0.0303581 0 -0.503913 -0.0211907 0 -0.489813 -0.0131564 0 -0.481551 -0.0061278 0 -0.479045 5.96046e-08 0 151.036 4.17233e-07 0 139.464 -51.6426 0 107.315 -87.4348 0 71.8786 -103.511 0 41.882 -106.249 0 18.7716 -101.862 0 1.80029 -94.128 0 -10.2666 -85.1373 0 -18.5694 -75.9896 0 -24.0353 -67.2448 0 -27.3879 -59.1671 0 -29.1812 -51.8583 0 -29.8371 -45.3324 0 -29.6757 -39.5568 0 -28.9389 -34.4759 0 -27.8095 -30.0247 0 -26.4248 -26.1365 0 -24.8872 -22.7467 0 -23.2727 -19.7954 0 -21.6369 -17.2281 0 -20.0196 -14.9959 0 -18.449 -13.0555 0 -16.9443 -11.3689 0 -15.5177 -9.90264 0 -14.1764 -8.62771 0 -12.9238 -7.51881 0 -11.7605 -6.55397 0 -10.6851 -5.71416 0 -9.6948 -4.98289 0 -8.78587 -4.34586 0 -7.95394 -3.79071 0 -7.19434 -3.30671 0 -6.50221 -2.88459 0 -5.87271 -2.5163 0 -5.3011 -2.19487 0 -4.78279 -1.91424 0 -4.3134 -1.66916 0 -3.88881 -1.45507 0 -3.50514 -1.268 0 -3.15881 -1.10452 0 -2.84646 -0.961605 0 -2.56502 -0.836653 0 -2.31167 -0.727384 0 -2.08382 -0.631811 0 -1.87912 -0.548201 0 -1.6954 -0.475041 0 -1.53074 -0.411009 0 -1.38336 -0.354951 0 -1.25167 -0.305855 0 -1.13425 -0.26284 0 -1.02981 -0.225133 0 -0.937188 -0.192057 0 -0.855377 -0.163021 0 -0.783463 -0.137508 0 -0.720646 -0.115065 0 -0.666225 -0.0952953 0 -0.619593 -0.0778538 0 -0.580229 -0.0624385 0 -0.547692 -0.0487871 0 -0.521621 -0.0366701 0 -0.501728 -0.0258913 0 -0.487794 -0.0162794 0 -0.47967 -0.00769016 0 -0.477276 1.19209e-07 0 141.331 -3.57628e-07 0 131.506 -47.1239 0 103.19 -81.0009 0 70.7558 -97.4884 0 42.4456 -101.419 0 20.1704 -98.2427 0 3.54425 -91.5242 0 -8.4387 -83.3296 0 -16.7933 -74.7891 0 -22.3775 -66.5008 0 -25.8768 -58.7625 0 -27.8244 -51.7034 0 -28.6308 -45.3588 0 -28.6103 -39.7123 0 -28.0024 -34.7209 0 -26.9889 -30.3292 0 -25.7074 -26.4779 0 -24.2609 -23.1082 0 -22.7265 -20.1644 0 -21.1608 -17.5954 0 -19.6047 -15.355 0 -18.0876 -13.4018 0 -16.6294 -11.6992 0 -15.2432 -10.2152 0 -13.9371 -8.92136 0 -12.7152 -7.79318 0 -11.5785 -6.80914 0 -10.5263 -5.95055 0 -9.55614 -5.20115 0 -8.66477 -4.54681 0 -7.84813 -3.97527 0 -7.10185 -3.47586 0 -6.42134 -3.03933 0 -5.80198 -2.65763 0 -5.23922 -2.32375 0 -4.72863 -2.03163 0 -4.26599 -1.77596 0 -3.8473 -1.55213 0 -3.46879 -1.35612 0 -3.12696 -1.18445 0 -2.81856 -1.03404 0 -2.54057 -0.902234 0 -2.29025 -0.786706 0 -2.06504 -0.685421 0 -1.86264 -0.596598 0 -1.68095 -0.518681 0 -1.51805 -0.450308 0 -1.37222 -0.390286 0 -1.24188 -0.337569 0 -1.12563 -0.29124 0 -1.02221 -0.250497 0 -0.930486 -0.214633 0 -0.849447 -0.183031 0 -0.778203 -0.155147 0 -0.715964 -0.130505 0 -0.66204 -0.108686 0 -0.615834 -0.0893241 0 -0.576832 -0.0720962 0 -0.544602 -0.0567202 0 -0.518789 -0.0429495 0 -0.499108 -0.0305681 0 -0.485349 -0.0193875 0 -0.477365 -0.00924529 0 -0.475081 -1.19209e-07 0 132.541 2.98023e-07 0 124.128 -43.1725 0 99.0918 -75.1967 0 69.4184 -91.8723 0 42.7619 -96.8012 0 21.3518 -94.7161 0 5.11512 -88.9478 0 -6.74394 -81.515 0 -15.1176 -73.5647 0 -20.7946 -65.7251 0 -24.4209 -58.3238 0 -26.5076 -51.5148 0 -27.4529 -45.3533 0 -27.5646 -39.8385 0 -27.0788 -34.9395 0 -26.1762 -30.6102 0 -24.994 -26.7985 0 -23.6359 -23.4513 0 -22.1794 -20.5172 0 -20.6823 -17.9486 0 -19.1865 -15.7017 0 -17.722 -13.7373 0 -16.3098 -12.0202 0 -14.9639 -10.5195 0 -13.693 -9.20789 0 -12.5016 -8.06136 0 -11.3917 -7.05892 0 -10.3628 -6.18223 0 -9.41302 -5.4153 0 -8.53942 -4.74418 0 -7.73831 -4.15671 0 -7.0056 -3.64228 0 -6.33696 -3.19169 0 -5.72798 -2.79687 0 -5.1743 -2.45082 0 -4.67166 -2.14743 0 -4.21598 -1.88137 0 -3.80339 -1.64797 0 -3.43023 -1.44318 0 -3.09309 -1.26344 0 -2.7888 -1.10565 0 -2.51442 -0.9671 0 -2.26725 -0.845402 0 -2.04482 -0.738482 0 -1.84485 -0.644515 0 -1.66529 -0.561901 0 -1.50426 -0.489241 0 -1.36006 -0.425302 0 -1.23116 -0.369004 0 -1.11616 -0.319399 0 -1.01383 -0.275652 0 -0.923059 -0.237029 0 -0.842848 -0.202886 0 -0.772322 -0.172654 0 -0.710704 -0.145833 0 -0.657314 -0.121983 0 -0.611566 -0.100716 0 -0.572953 -0.0816898 0 -0.541052 -0.0646029 0 -0.515513 -0.0491899 0 -0.496057 -0.0352165 0 -0.48248 -0.0224778 0 -0.474638 -0.0107915 0 -0.47246 -1.49012e-07 0 124.537 -3.57628e-07 0 117.276 -39.6989 0 95.0576 -69.9532 0 67.9103 -86.6436 0 42.8589 -92.3975 0 22.3322 -91.2911 0 6.52127 -86.4075 0 -5.17812 -79.7008 0 -13.5406 -72.322 0 -19.2861 -64.9222 0 -23.0203 -57.8545 0 -25.2313 -51.2953 0 -26.3042 -45.3182 0 -26.5392 -39.9372 0 -26.1689 -35.1329 0 -25.372 -30.8685 0 -24.2853 -27.0989 0 -23.0125 -23.7765 0 -21.632 -20.8543 0 -20.2019 -18.2879 0 -18.7652 -16.0363 0 -17.3526 -14.0621 0 -15.986 -12.3318 0 -14.6801 -10.8157 0 -13.4441 -9.48731 0 -12.2833 -8.32331 0 -11.2002 -7.30324 0 -10.1948 -6.40915 0 -9.26555 -5.62529 0 -8.40994 -4.93791 0 -7.62459 -4.33495 0 -6.90568 -3.80591 0 -6.24914 -3.3416 0 -5.65076 -2.93397 0 -5.10639 -2.57601 0 -4.61192 -2.26159 0 -4.16342 -1.98533 0 -3.75712 -1.74254 0 -3.3895 -1.52912 0 -3.05722 -1.34146 0 -2.7572 -1.17641 0 -2.48658 -1.03121 0 -2.24271 -0.903434 0 -2.02318 -0.79096 0 -1.82577 -0.69192 0 -1.64845 -0.604673 0 -1.48938 -0.52778 0 -1.34691 -0.459974 0 -1.21952 -0.400139 0 -1.10585 -0.347296 0 -1.00468 -0.300579 0 -0.914916 -0.259228 0 -0.835586 -0.22257 0 -0.765826 -0.190014 0 -0.70487 -0.161037 0 -0.652052 -0.135175 0 -0.606792 -0.11202 0 -0.568595 -0.0912116 0 -0.537044 -0.072428 0 -0.511795 -0.0553861 0 -0.492578 -0.0398335 0 -0.479189 -0.025547 0 -0.471491 -0.012328 0 -0.469418 -4.17233e-07 0 117.213 2.98023e-07 0 110.902 -36.6304 0 91.1134 -65.2088 0 66.2691 -81.7808 0 42.7626 -88.2077 0 23.1271 -87.9741 0 7.77136 -83.9109 0 -3.73672 -77.8938 0 -12.0601 -71.0666 0 -17.851 -64.0966 0 -21.6749 -57.3581 0 -23.9958 -51.0474 0 -25.185 -45.2554 0 -25.5348 -40.0097 0 -25.2732 -35.3023 0 -24.577 -31.1051 0 -23.5818 -27.3798 0 -22.3915 -24.0843 0 -21.0846 -21.176 0 -19.72 -18.6137 0 -18.3412 -16.3589 0 -16.9798 -14.3764 0 -15.6582 -12.6342 0 -14.3919 -11.1038 0 -13.1907 -9.75958 0 -12.0605 -8.579 0 -11.0043 -7.54208 0 -10.0224 -6.63126 0 -9.11388 -5.83106 0 -8.27644 -5.12792 0 -7.50705 -4.50994 0 -6.80217 -3.96668 0 -6.15794 -3.48899 0 -5.57041 -3.06885 0 -5.03556 -2.69925 0 -4.54947 -2.37403 0 -4.10834 -2.08778 0 -3.70854 -1.83579 0 -3.34663 -1.61389 0 -3.01938 -1.41844 0 -2.72379 -1.24626 0 -2.45707 -1.09452 0 -2.21665 -0.960763 0 -2.00014 -0.842819 0 -1.80539 -0.738781 0 -1.63042 -0.646966 0 -1.47342 -0.565899 0 -1.33276 -0.494277 0 -1.20697 -0.430951 0 -1.09469 -0.37491 0 -0.994751 -0.32526 0 -0.906061 -0.281212 0 -0.827667 -0.242069 0 -0.758719 -0.207215 0 -0.698468 -0.176103 0 -0.646257 -0.148251 0 -0.601518 -0.123228 0 -0.563763 -0.100654 0 -0.532582 -0.0801894 0 -0.507641 -0.0615329 0 -0.488672 -0.0444146 0 -0.475479 -0.0285931 0 -0.467928 -0.013853 0 -0.465957 3.57628e-07 0 110.482 -2.38419e-07 0 104.962 -33.9075 0 87.2764 -60.9086 0 64.527 -77.262 0 42.4974 -84.2293 0 23.7518 -84.7699 0 8.87415 -81.4645 0 -2.41494 -76.1001 0 -10.6736 -69.8037 0 -16.4884 -63.2524 0 -20.3844 -56.8377 0 -22.8014 -50.7738 0 -24.0959 -45.1668 0 -24.5519 -40.0577 0 -24.3924 -35.4489 0 -23.7916 -31.3208 0 -22.8841 -27.6418 0 -21.7732 -24.3753 0 -20.5378 -21.4826 0 -19.237 -18.926 0 -17.9149 -16.6697 0 -16.6038 -14.6802 0 -15.3267 -12.9274 0 -14.0996 -11.3838 0 -12.933 -10.0247 0 -11.8334 -8.82841 0 -10.804 -7.77539 0 -9.84582 -6.84849 0 -8.95814 -6.03254 0 -8.13904 -5.31417 0 -7.38581 -4.68161 0 -6.69515 -4.12452 0 -6.06347 -3.6338 0 -5.48698 -3.20147 0 -4.96186 -2.82049 0 -4.48436 -2.4847 0 -4.0508 -2.18867 0 -3.65767 -1.92765 0 -3.30165 -1.69744 0 -2.9796 -1.49435 0 -2.6886 -1.31515 0 -2.42593 -1.15699 0 -2.18907 -1.01735 0 -1.97572 -0.894026 0 -1.78375 -0.785065 0 -1.61123 -0.688751 0 -1.4564 -0.603571 0 -1.31764 -0.528187 0 -1.19352 -0.461417 0 -1.08272 -0.402221 0 -0.984063 -0.349675 0 -0.896504 -0.302965 0 -0.819097 -0.261367 0 -0.751009 -0.224242 0 -0.691504 -0.191021 0 -0.639936 -0.1612 0 -0.595747 -0.134329 0 -0.558459 -0.110008 0 -0.52767 -0.0878803 0 -0.503052 -0.0676252 0 -0.484343 -0.0489557 0 -0.471353 -0.0316132 0 -0.463952 -0.0153651 0 -0.462079 -1.78814e-07 0 104.271 3.57628e-07 0 99.4153 -31.4812 0 83.5575 -57.0045 0 62.7109 -73.0649 0 42.0853 -80.4581 0 24.2211 -81.6818 0 9.83843 -79.0739 0 -1.20779 -74.3252 0 -9.37856 -68.5381 0 -15.197 -62.3936 0 -19.1484 -56.2967 0 -21.648 -50.4769 0 -23.0372 -45.0546 0 -23.5908 -40.0828 0 -23.5269 -35.5739 0 -23.0164 -31.5165 0 -22.1926 -27.8857 0 -21.1582 -24.6498 0 -19.9919 -21.7745 0 -18.7532 -19.2253 0 -17.4866 -16.9688 0 -16.2249 -14.9738 0 -14.9917 -13.2114 0 -13.8035 -11.6556 0 -12.6714 -10.2827 0 -11.6021 -9.07151 0 -10.5996 -8.00314 0 -9.66517 -7.06082 0 -8.79844 -6.22968 0 -7.99786 -5.49658 0 -7.26096 -4.84989 0 -6.58473 -4.27937 0 -5.96578 -3.77597 0 -5.40054 -3.33174 0 -4.88536 -2.93966 0 -4.41664 -2.59354 0 -3.99084 -2.28795 0 -3.60457 -2.01809 0 -3.25461 -1.77972 0 -2.93792 -1.56914 0 -2.65166 -1.38306 0 -2.39317 -1.21859 0 -2.16002 -1.07316 0 -1.94994 -0.944545 0 -1.76086 -0.830743 0 -1.5909 -0.73 0 -1.43832 -0.640769 0 -1.30155 -0.561678 0 -1.17918 -0.491515 0 -1.06992 -0.429209 0 -0.972623 -0.373807 0 -0.886252 -0.32447 0 -0.809884 -0.280449 0 -0.742702 -0.241083 0 -0.683982 -0.205779 0 -0.633092 -0.174013 0 -0.589484 -0.145315 0 -0.552689 -0.119268 0 -0.522313 -0.0954946 0 -0.498034 -0.0736575 0 -0.479597 -0.0534526 0 -0.466816 -0.034605 0 -0.459565 -0.0168635 0 -0.457789 1.78814e-07 0 98.52 -1.78814e-07 0 94.2259 -29.3107 0 79.9628 -53.4536 0 60.8433 -69.1675 0 41.5465 -76.8887 0 24.5489 -78.712 0 10.6729 -76.7436 0 -0.110166 -72.5741 0 -8.17203 -67.2743 0 -13.9754 -61.524 0 -17.9663 -55.7381 0 -20.5354 -50.1593 0 -22.0089 -44.9206 0 -22.652 -40.0863 0 -22.6771 -35.6785 0 -22.2519 -31.6932 0 -21.5078 -28.1121 0 -20.5469 -24.9085 0 -19.4474 -22.0522 0 -18.2691 -19.5118 0 -17.0567 -17.2565 0 -15.8435 -15.2571 0 -14.6535 -13.4864 0 -13.5038 -11.9195 0 -12.4058 -10.5336 0 -11.3669 -9.3083 0 -10.3913 -8.22529 0 -9.4806 -7.26819 0 -8.63494 -6.42244 0 -7.85299 -5.6751 0 -7.1326 -5.01473 0 -6.47098 -4.43117 0 -5.86496 -3.91544 0 -5.31116 -3.45963 0 -4.80612 -3.05671 0 -4.34636 -2.70051 0 -3.9285 -2.38556 0 -3.54927 -2.10704 0 -3.20554 -1.8607 0 -2.89437 -1.64277 0 -2.61299 -1.44994 0 -2.35883 -1.27926 0 -2.12951 -1.12816 0 -1