<?xml version="1.0"?> 
<VTKFile type="StructuredGrid" version="0.1"> 
<StructuredGrid WholeExtent="0 63 0 63 0 0"> 
<Piece Extent="0 63 0 63 0 0"> 
<PointData>
<DataArray type="Float32" Name="|E|" format="ascii" NumberOfComponents="3"> 
1.14483e+06 -456644 0 1.18457e+06 -406032 0 1.23151e+06 -353598 0 1.27267e+06 -304037 0 1.30756e+06 -256141 0 1.33489e+06 -210445 0 1.35489e+06 -167551 0 1.36806e+06 -128111 0 1.37528e+06 -92560.4 0 1.3775e+06 -61090.9 0 1.37565e+06 -33669.9 0 1.37057e+06 -10100.8 0 1.36297e+06 9916.17 0 1.35344e+06 26733.2 0 1.34245e+06 40717.6 0 1.33037e+06 52227.5 0 1.3175e+06 61597.3 0 1.30407e+06 69130.7 0 1.29026e+06 75097.3 0 1.27623e+06 79733.6 0 1.26207e+06 83244.1 0 1.24787e+06 85804.8 0 1.23372e+06 87565.9 0 1.21965e+06 88654.9 0 1.20572e+06 89180 0 1.19197e+06 89231.9 0 1.17841e+06 88887.3 0 1.16508e+06 88210.4 0 1.15199e+06 87254.6 0 1.13916e+06 86064.8 0 1.1266e+06 84678 0 1.11432e+06 83125 0 1.10234e+06 81431.2 0 1.09065e+06 79617.4 0 1.07926e+06 77700.7 0 1.06819e+06 75694.8 0 1.05743e+06 73610.8 0 1.047e+06 71457.6 0 1.03689e+06 69242.1 0 1.02711e+06 66969.8 0 1.01767e+06 64644.7 0 1.00857e+06 62270.1 0 999811 59848.1 0 991405 57380.4 0 983354 54868.1 0 975665 52312 0 968342 49712.7 0 961392 47070.6 0 954820 44386 0 948633 41659.7 0 942837 38892.1 0 937438 36084.2 0 932442 33237 0 927856 30352.1 0 923685 27431.3 0 919935 24476.7 0 916612 21490.8 0 913721 18476.5 0 911265 15437.2 0 909250 12376.4 0 907678 9298.07 0 906553 6206.29 0 905875 3105.44 0 905647 0 0 1.15071e+06 -458991 0 1.19196e+06 -408390 0 1.23822e+06 -356044 0 1.27904e+06 -305971 0 1.31342e+06 -257469 0 1.34022e+06 -211141 0 1.35962e+06 -167675 0 1.37217e+06 -127753 0 1.37879e+06 -91820.2 0 1.38044e+06 -60062.6 0 1.37807e+06 -32433.6 0 1.37253e+06 -8720.62 0 1.36452e+06 11391 0 1.35464e+06 28266.1 0 1.34335e+06 42281.9 0 1.33102e+06 53804.1 0 1.31794e+06 63172.9 0 1.30434e+06 70695.9 0 1.29039e+06 76645.7 0 1.27624e+06 81260.7 0 1.26198e+06 84746.9 0 1.24771e+06 87281.4 0 1.23349e+06 89014.8 0 1.21938e+06 90075.3 0 1.20541e+06 90571 0 1.19162e+06 90593.3 0 1.17804e+06 90218.7 0 1.1647e+06 89511.5 0 1.15159e+06 88525.3 0 1.13876e+06 87304.9 0 1.12619e+06 85887.4 0 1.11391e+06 84303.5 0 1.10193e+06 82578.7 0 1.09024e+06 80733.7 0 1.07886e+06 78785.6 0 1.06779e+06 76748.1 0 1.05704e+06 74632.2 0 1.04661e+06 72446.9 0 1.03651e+06 70199.1 0 1.02673e+06 67894 0 1.0173e+06 65536 0 1.0082e+06 63127.9 0 999451 60672.1 0 991050 58170.1 0 983005 55623.1 0 975320 53031.8 0 968002 50396.8 0 961056 47718.4 0 954488 44997.1 0 948304 42233.3 0 942511 39427.8 0 937114 36581.4 0 932121 33695.2 0 927536 30770.7 0 923367 27809.7 0 919619 24814.5 0 916297 21787.5 0 913406 18731.7 0 910952 15650.5 0 908937 12547.4 0 907365 9426.56 0 906240 6292.07 0 905563 3148.37 0 905334 0 0 1.15681e+06 -461426 0 1.19925e+06 -410784 0 1.24497e+06 -358432 0 1.28545e+06 -307842 0 1.31933e+06 -258722 0 1.34559e+06 -211758 0 1.36438e+06 -167719 0 1.37631e+06 -127317 0 1.38231e+06 -91008.7 0 1.38339e+06 -58970.5 0 1.38049e+06 -31141.3 0 1.37448e+06 -7292.22 0 1.36607e+06 12906.9 0 1.35584e+06 29833.6 0 1.34425e+06 43875.1 0 1.33167e+06 55404.8 0 1.31838e+06 64768.4 0 1.3046e+06 72277.5 0 1.29051e+06 78207.5 0 1.27624e+06 82798.7 0 1.26189e+06 86258.7 0 1.24754e+06 88765.1 0 1.23326e+06 90469.4 0 1.21909e+06 91500.1 0 1.20509e+06 91965.6 0 1.19127e+06 91957.4 0 1.17767e+06 91552.2 0 1.16431e+06 90814.2 0 1.1512e+06 89797.1 0 1.13835e+06 88545.8 0 1.12578e+06 87097.2 0 1.1135e+06 85482.2 0 1.10151e+06 83726.2 0 1.08983e+06 81849.8 0 1.07845e+06 79870.2 0 1.06739e+06 77801 0 1.05664e+06 75653.3 0 1.04622e+06 73435.8 0 1.03612e+06 71155.6 0 1.02635e+06 68817.8 0 1.01692e+06 66426.7 0 1.00783e+06 63985.2 0 999088 61495.6 0 990692 58959.4 0 982652 56377.7 0 974972 53751.2 0 967658 51080.5 0 960716 48365.8 0 954151 45607.7 0 947971 42806.7 0 942180 39963.3 0 936786 37078.4 0 931795 34153.2 0 927212 31189.1 0 923045 28188 0 919298 25152.1 0 915977 22084 0 913087 18986.8 0 910633 15863.6 0 908619 12718.4 0 907048 9555.02 0 905923 6377.83 0 905246 3191.28 0 905018 0 0 1.1631e+06 -463932 0 1.20648e+06 -413204 0 1.25177e+06 -360766 0 1.2919e+06 -309650 0 1.32529e+06 -259901 0 1.351e+06 -212295 0 1.36918e+06 -167681 0 1.38047e+06 -126804 0 1.38585e+06 -90125.2 0 1.38634e+06 -57814 0 1.38292e+06 -29792.9 0 1.37643e+06 -5815.52 0 1.36761e+06 14463.8 0 1.35703e+06 31435.5 0 1.34514e+06 45497 0 1.33231e+06 57029.3 0 1.31881e+06 66383.6 0 1.30486e+06 73875.3 0 1.29063e+06 79782.6 0 1.27624e+06 84347.6 0 1.26179e+06 87779.2 0 1.24736e+06 90255.9 0 1.23302e+06 91929.7 0 1.21881e+06 92929.4 0 1.20476e+06 93363.7 0 1.19092e+06 93324.2 0 1.1773e+06 92887.6 0 1.16392e+06 92118.3 0 1.15079e+06 91070 0 1.13794e+06 89787.3 0 1.12537e+06 88307.4 0 1.11308e+06 86661.1 0 1.1011e+06 84873.6 0 1.08942e+06 82965.8 0 1.07804e+06 80954.5 0 1.06698e+06 78853.6 0 1.05624e+06 76673.9 0 1.04582e+06 74424.2 0 1.03573e+06 72111.6 0 1.02597e+06 69741.1 0 1.01655e+06 67316.9 0 1.00746e+06 64842.1 0 998721 62318.7 0 990331 59748.2 0 982295 57131.9 0 974620 54470.2 0 967310 51763.8 0 960372 49013 0 953811 46218.1 0 947634 43379.8 0 941846 40498.5 0 936454 37575.2 0 931465 34610.9 0 926885 31607.3 0 922718 28566.2 0 918973 25489.7 0 915653 22380.5 0 912764 19241.8 0 910311 16076.8 0 908297 12889.3 0 906726 9683.45 0 905602 6463.57 0 904924 3234.19 0 904696 0 0 1.16952e+06 -466496 0 1.21366e+06 -415643 0 1.25861e+06 -363049 0 1.2984e+06 -311395 0 1.33131e+06 -261003 0 1.35645e+06 -212750 0 1.37401e+06 -167561 0 1.38466e+06 -126211 0 1.38941e+06 -89169.1 0 1.3893e+06 -56592.7 0 1.38534e+06 -28388 0 1.37838e+06 -4290.44 0 1.36915e+06 16061.6 0 1.35821e+06 33071.8 0 1.34603e+06 47147.6 0 1.33294e+06 58677.6 0 1.31924e+06 68018.4 0 1.30511e+06 75489.2 0 1.29074e+06 81370.8 0 1.27623e+06 85907.2 0 1.26169e+06 89308.4 0 1.24718e+06 91753.7 0 1.23278e+06 93395.5 0 1.21852e+06 94363.1 0 1.20444e+06 94765.3 0 1.19056e+06 94693.7 0 1.17692e+06 94225.1 0 1.16352e+06 93423.9 0 1.15038e+06 92343.8 0 1.13752e+06 91029.5 0 1.12495e+06 89518 0 1.11266e+06 87840.1 0 1.10068e+06 86021 0 1.089e+06 84081.6 0 1.07763e+06 82038.6 0 1.06657e+06 79905.7 0 1.05584e+06 77694.1 0 1.04542e+06 75412.2 0 1.03534e+06 73067.1 0 1.02558e+06 70663.9 0 1.01616e+06 68206.7 0 1.00708e+06 65698.4 0 998350 63141.2 0 989965 60536.6 0 981935 57885.6 0 974264 55188.8 0 966959 52446.8 0 960024 49659.8 0 953467 46828.2 0 947293 43952.6 0 941508 41033.5 0 936118 38071.7 0 931131 35068.6 0 926552 32025.4 0 922388 28944.2 0 918643 25827.1 0 915324 22677 0 912436 19496.7 0 909984 16289.8 0 907971 13060.2 0 906400 9811.85 0 905276 6549.29 0 904599 3277.08 0 904371 0 0 1.17607e+06 -469106 0 1.22082e+06 -418095 0 1.26549e+06 -365285 0 1.30494e+06 -313076 0 1.33738e+06 -262029 0 1.36195e+06 -213123 0 1.37887e+06 -167357 0 1.38886e+06 -125538 0 1.39297e+06 -88139.6 0 1.39227e+06 -55306.3 0 1.38776e+06 -26926.4 0 1.38033e+06 -2716.91 0 1.37068e+06 17700.4 0 1.35939e+06 34742.4 0 1.3469e+06 48826.8 0 1.33357e+06 60349.6 0 1.31965e+06 69672.7 0 1.30536e+06 77119.1 0 1.29084e+06 82972.1 0 1.27621e+06 87477.5 0 1.26158e+06 90846.2 0 1.247e+06 93258.4 0 1.23253e+06 94866.9 0 1.21822e+06 95801.2 0 1.2041e+06 96170.3 0 1.1902e+06 96065.8 0 1.17653e+06 95564.6 0 1.16312e+06 94731 0 1.14997e+06 93618.7 0 1.13711e+06 92272.3 0 1.12453e+06 90728.9 0 1.11224e+06 89019.2 0 1.10026e+06 87168.4 0 1.08858e+06 85197.1 0 1.07721e+06 83122.3 0 1.06616e+06 80957.6 0 1.05543e+06 78713.8 0 1.04502e+06 76399.7 0 1.03494e+06 74022.1 0 1.02519e+06 71586.2 0 1.01578e+06 69095.9 0 1.00671e+06 66554.3 0 997976 63963.3 0 989597 61324.6 0 981571 58638.9 0 973905 55907 0 966603 53129.4 0 959673 50306.3 0 953119 47438 0 946947 44525.2 0 941165 41568.2 0 935778 38568.1 0 930793 35526 0 926216 32443.4 0 922053 29322.1 0 918310 26164.5 0 914992 22973.3 0 912104 19751.6 0 909652 16502.9 0 907640 13231 0 906070 9940.23 0 904945 6634.99 0 904268 3319.97 0 904040 0 0 1.18271e+06 -471756 0 1.22798e+06 -420555 0 1.27242e+06 -367476 0 1.31154e+06 -314695 0 1.3435e+06 -262978 0 1.36749e+06 -213411 0 1.38376e+06 -167068 0 1.39309e+06 -124785 0 1.39654e+06 -87036.1 0 1.39523e+06 -53954.2 0 1.39018e+06 -25408 0 1.38227e+06 -1094.87 0 1.3722e+06 19380.1 0 1.36056e+06 36447.2 0 1.34777e+06 50534.4 0 1.33419e+06 62045.1 0 1.32006e+06 71346.3 0 1.3056e+06 78764.8 0 1.29093e+06 84586.4 0 1.27619e+06 89058.3 0 1.26146e+06 92392.6 0 1.24681e+06 94770 0 1.23228e+06 96343.8 0 1.21793e+06 97243.6 0 1.20377e+06 97578.6 0 1.18983e+06 97440.4 0 1.17615e+06 96906 0 1.16272e+06 96039.4 0 1.14956e+06 94894.5 0 1.13669e+06 93515.8 0 1.1241e+06 91940.2 0 1.11181e+06 90198.5 0 1.09983e+06 88315.7 0 1.08816e+06 86312.5 0 1.07679e+06 84205.8 0 1.06574e+06 82009 0 1.05502e+06 79733.1 0 1.04462e+06 77386.8 0 1.03454e+06 74976.6 0 1.0248e+06 72508 0 1.01539e+06 69984.7 0 1.00632e+06 67409.7 0 997599 64785 0 989224 62112.1 0 981203 59391.8 0 973542 56624.9 0 966244 53811.6 0 959317 50952.4 0 952767 48047.6 0 946599 45097.5 0 940819 42102.8 0 935434 39064.3 0 930451 35983.3 0 925876 32861.1 0 921714 29699.9 0 917972 26501.8 0 914655 23269.5 0 911768 20006.4 0 909316 16715.8 0 907304 13401.8 0 905734 10068.6 0 904610 6720.67 0 903933 3362.85 0 903705 0 0 1.18944e+06 -474440 0 1.23513e+06 -423021 0 1.27939e+06 -369623 0 1.3182e+06 -316249 0 1.34967e+06 -263848 0 1.37308e+06 -213614 0 1.38869e+06 -166693 0 1.39733e+06 -123949 0 1.40013e+06 -85857.9 0 1.3982e+06 -52536.2 0 1.3926e+06 -23832.5 0 1.3842e+06 575.71 0 1.37372e+06 21100.6 0 1.36172e+06 38186.1 0 1.34863e+06 52270.3 0 1.3348e+06 63763.9 0 1.32046e+06 73039.2 0 1.30582e+06 80426.4 0 1.29102e+06 86213.6 0 1.27617e+06 90649.5 0 1.26134e+06 93947.4 0 1.24661e+06 96288.3 0 1.23203e+06 97826.1 0 1.21762e+06 98690.3 0 1.20343e+06 98990.3 0 1.18946e+06 98817.7 0 1.17575e+06 98249.3 0 1.16231e+06 97349.3 0 1.14914e+06 96171.3 0 1.13626e+06 94759.9 0 1.12367e+06 93151.9 0 1.11138e+06 91377.9 0 1.0994e+06 89463 0 1.08773e+06 87427.7 0 1.07637e+06 85288.9 0 1.06533e+06 83060.1 0 1.0546e+06 80752 0 1.04421e+06 78373.3 0 1.03414e+06 75930.7 0 1.0244e+06 73429.3 0 1.015e+06 70873 0 1.00594e+06 68264.6 0 997218 65606.2 0 988848 62899.1 0 980832 60144.3 0 973175 57342.3 0 965881 54493.5 0 958958 51598.3 0 952411 48656.8 0 946246 45669.5 0 940469 42637.1 0 935086 39560.3 0 930105 36440.4 0 925531 33278.8 0 921370 30077.6 0 917629 26838.9 0 914313 23565.7 0 911427 20261.1 0 908976 16928.8 0 906964 13572.6 0 905395 10196.9 0 904271 6806.34 0 903594 3405.72 0 903366 0 0 1.19624e+06 -477153 0 1.24231e+06 -425490 0 1.28642e+06 -371727 0 1.3249e+06 -317739 0 1.3559e+06 -264639 0 1.37871e+06 -213731 0 1.39364e+06 -166231 0 1.4016e+06 -123031 0 1.40372e+06 -84604.3 0 1.40117e+06 -51051.8 0 1.39501e+06 -22199.8 0 1.38613e+06 2294.85 0 1.37522e+06 22861.9 0 1.36287e+06 39959 0 1.34948e+06 54034.4 0 1.3354e+06 65506 0 1.32086e+06 74751.2 0 1.30605e+06 82103.5 0 1.2911e+06 87853.4 0 1.27613e+06 92251.1 0 1.26122e+06 95510.5 0 1.24641e+06 97813.4 0 1.23177e+06 99313.7 0 1.21731e+06 100141 0 1.20308e+06 100405 0 1.18909e+06 100197 0 1.17536e+06 99594.5 0 1.1619e+06 98660.5 0 1.14872e+06 97449.1 0 1.13583e+06 96004.6 0 1.12324e+06 94363.8 0 1.11095e+06 92557.3 0 1.09897e+06 90610.1 0 1.0873e+06 88542.7 0 1.07594e+06 86371.8 0 1.0649e+06 84110.8 0 1.05419e+06 81770.5 0 1.04379e+06 79359.4 0 1.03373e+06 76884.3 0 1.024e+06 74350.1 0 1.0146e+06 71760.8 0 1.00555e+06 69119.1 0 996833 66426.9 0 988468 63685.8 0 980457 60896.4 0 972804 58059.4 0 965515 55175.1 0 958595 52243.8 0 952051 49265.8 0 945889 46241.4 0 940114 43171.2 0 934734 40056.1 0 929755 36897.3 0 925182 33696.3 0 921023 30455.1 0 917283 27176 0 913967 23861.8 0 911082 20515.8 0 908631 17141.6 0 906620 13743.3 0 905051 10325.2 0 903927 6892 0 903250 3448.59 0 903022 0 0 1.20311e+06 -479892 0 1.2495e+06 -427959 0 1.29349e+06 -373789 0 1.33167e+06 -319164 0 1.36218e+06 -265348 0 1.38438e+06 -213758 0 1.39863e+06 -165679 0 1.40588e+06 -122028 0 1.40732e+06 -83274.7 0 1.40414e+06 -49500.6 0 1.39742e+06 -20509.7 0 1.38804e+06 4062.56 0 1.37672e+06 24663.9 0 1.36401e+06 41765.8 0 1.35032e+06 55826.5 0 1.33599e+06 67271.1 0 1.32124e+06 76482.1 0 1.30626e+06 83796.2 0 1.29118e+06 89506 0 1.27609e+06 93863 0 1.26108e+06 97081.9 0 1.2462e+06 99345.1 0 1.2315e+06 100807 0 1.217e+06 101596 0 1.20273e+06 101823 0 1.18871e+06 101580 0 1.17496e+06 100942 0 1.16148e+06 99973.1 0 1.1483e+06 98727.8 0 1.1354e+06 97249.9 0 1.1228e+06 95576.1 0 1.11051e+06 93736.9 0 1.09853e+06 91757.3 0 1.08686e+06 89657.5 0 1.07551e+06 87454.4 0 1.06448e+06 85161.1 0 1.05376e+06 82788.5 0 1.04338e+06 80345.1 0 1.03332e+06 77837.4 0 1.02359e+06 75270.5 0 1.0142e+06 72648.1 0 1.00515e+06 69973 0 996445 67247.2 0 988085 64472 0 980078 61648.1 0 972430 58776.1 0 965144 55856.4 0 958228 52889.1 0 951687 49874.5 0 945528 46812.9 0 939756 43705.1 0 934378 40551.8 0 929400 37354.1 0 924829 34113.8 0 920671 30832.6 0 916932 27513 0 913617 24157.9 0 910732 20770.5 0 908282 17354.5 0 906271 13914 0 904702 10453.5 0 903578 6977.65 0 902902 3491.45 0 902674 0 0 1.21004e+06 -482655 0 1.25673e+06 -430426 0 1.30062e+06 -375810 0 1.3385e+06 -320523 0 1.36852e+06 -265976 0 1.3901e+06 -213696 0 1.40364e+06 -165038 0 1.41017e+06 -120941 0 1.41092e+06 -81868.4 0 1.40711e+06 -47882.3 0 1.39982e+06 -18762.2 0 1.38995e+06 5878.81 0 1.37821e+06 26506.5 0 1.36514e+06 43606.2 0 1.35115e+06 57646.3 0 1.33657e+06 69059.1 0 1.32162e+06 78231.7 0 1.30647e+06 85504.2 0 1.29124e+06 91171 0 1.27605e+06 95485 0 1.26094e+06 98661.6 0 1.24599e+06 100883 0 1.23123e+06 102305 0 1.21668e+06 103056 0 1.20238e+06 103245 0 1.18833e+06 102964 0 1.17456e+06 102290 0 1.16107e+06 101287 0 1.14787e+06 100007 0 1.13496e+06 98495.7 0 1.12236e+06 96788.7 0 1.11007e+06 94916.6 0 1.09809e+06 92904.3 0 1.08643e+06 90772.1 0 1.07508e+06 88536.6 0 1.06405e+06 86211.1 0 1.05334e+06 83806.2 0 1.04296e+06 81330.3 0 1.03291e+06 78790 0 1.02319e+06 76190.3 0 1.0138e+06 73534.9 0 1.00476e+06 70826.6 0 996053 68067.1 0 987698 65257.8 0 979696 62399.4 0 972052 59492.5 0 964770 56537.3 0 957858 53534 0 951320 50482.9 0 945163 47384.3 0 939393 44238.8 0 934017 41047.3 0 929041 37810.8 0 924472 34531.1 0 920315 31210 0 916577 27849.9 0 913263 24453.9 0 910379 21025.1 0 907929 17567.3 0 905918 14084.7 0 904349 10581.8 0 903225 7063.29 0 902549 3534.3 0 902321 0 0 1.21702e+06 -485442 0 1.26399e+06 -432891 0 1.30781e+06 -377790 0 1.34539e+06 -321816 0 1.37492e+06 -266520 0 1.39586e+06 -213542 0 1.40869e+06 -164304 0 1.41448e+06 -119767 0 1.41453e+06 -80384.8 0 1.41007e+06 -46196.6 0 1.40222e+06 -16957.1 0 1.39185e+06 7743.58 0 1.37968e+06 28389.6 0 1.36626e+06 45480.2 0 1.35197e+06 59493.9 0 1.33714e+06 70869.9 0 1.32198e+06 80000 0 1.30666e+06 87227.3 0 1.2913e+06 92848.3 0 1.27599e+06 97116.9 0 1.2608e+06 100249 0 1.24577e+06 102428 0 1.23095e+06 103808 0 1.21636e+06 104519 0 1.20202e+06 104669 0 1.18794e+06 104351 0 1.17415e+06 103641 0 1.16064e+06 102602 0 1.14743e+06 101288 0 1.13452e+06 99742.2 0 1.12192e+06 98001.6 0 1.10963e+06 96096.4 0 1.09765e+06 94051.3 0 1.08598e+06 91886.5 0 1.07464e+06 89618.5 0 1.06361e+06 87260.6 0 1.05291e+06 84823.3 0 1.04254e+06 82315 0 1.03249e+06 79742.2 0 1.02277e+06 77109.7 0 1.01339e+06 74421.3 0 1.00435e+06 71679.6 0 995657 68886.5 0 987307 66043.2 0 979310 63150.3 0 971670 60208.5 0 964392 57217.9 0 957483 54178.7 0 950948 51091.1 0 944794 47955.4 0 939027 44772.3 0 933653 41542.6 0 928678 38267.3 0 924110 34948.2 0 919954 31587.2 0 916217 28186.8 0 912904 24749.8 0 910020 21279.6 0 907571 17780.1 0 905560 14255.4 0 903991 10710 0 902868 7148.91 0 902192 3577.15 0 901964 0 0 1.22406e+06 -488250 0 1.2713e+06 -435353 0 1.31506e+06 -379728 0 1.35234e+06 -323041 0 1.38137e+06 -266978 0 1.40166e+06 -213295 0 1.41376e+06 -163478 0 1.41881e+06 -118506 0 1.41814e+06 -78823.1 0 1.41304e+06 -44443.1 0 1.4046e+06 -15094.2 0 1.39374e+06 9656.82 0 1.38115e+06 30313 0 1.36736e+06 47387.5 0 1.35278e+06 61368.9 0 1.3377e+06 72703.2 0 1.32234e+06 81786.7 0 1.30685e+06 88965.5 0 1.29135e+06 94537.9 0 1.27593e+06 98758.8 0 1.26065e+06 101845 0 1.24555e+06 103979 0 1.23067e+06 105316 0 1.21603e+06 105986 0 1.20165e+06 106097 0 1.18755e+06 105741 0 1.17374e+06 104994 0 1.16022e+06 103919 0 1.147e+06 102569 0 1.13408e+06 100989 0 1.12147e+06 99214.8 0 1.10918e+06 97276.3 0 1.0972e+06 95198.2 0 1.08554e+06 93000.7 0 1.0742e+06 90700.2 0 1.06318e+06 88309.8 0 1.05248e+06 85840.1 0 1.04211e+06 83299.3 0 1.03207e+06 80693.8 0 1.02236e+06 78028.6 0 1.01299e+06 75307.2 0 1.00395e+06 72532.2 0 995258 69705.5 0 986913 66828.1 0 978920 63900.9 0 971284 60924.2 0 964011 57898.2 0 957105 54823 0 950573 51699 0 944422 48526.4 0 938656 45305.6 0 933284 42037.7 0 928311 38723.7 0 923745 35365.3 0 919590 31964.4 0 915853 28523.6 0 912541 25045.7 0 909657 21534.2 0 907208 17992.9 0 905198 14426 0 903629 10838.3 0 902506 7234.54 0 901830 3620 0 901602 0 0 1.23116e+06 -491079 0 1.27866e+06 -437809 0 1.32237e+06 -381625 0 1.35936e+06 -324197 0 1.38788e+06 -267350 0 1.4075e+06 -212952 0 1.41886e+06 -162557 0 1.42314e+06 -117157 0 1.42175e+06 -77182.9 0 1.41599e+06 -42621.6 0 1.40698e+06 -13173.6 0 1.39562e+06 11618.5 0 1.3826e+06 32276.6 0 1.36846e+06 49328 0 1.35358e+06 63271.2 0 1.33825e+06 74558.8 0 1.32268e+06 83591.7 0 1.30703e+06 90718.6 0 1.29139e+06 96239.6 0 1.27586e+06 100410 0 1.26049e+06 103448 0 1.24532e+06 105537 0 1.23038e+06 106830 0 1.21569e+06 107457 0 1.20128e+06 107528 0 1.18715e+06 107133 0 1.17332e+06 106348 0 1.15978e+06 105236 0 1.14655e+06 103851 0 1.13363e+06 102237 0 1.12102e+06 100428 0 1.10873e+06 98456.2 0 1.09675e+06 96344.9 0 1.08509e+06 94114.6 0 1.07375e+06 91781.5 0 1.06274e+06 89358.6 0 1.05205e+06 86856.4 0 1.04168e+06 84283.1 0 1.03164e+06 81645 0 1.02194e+06 78947 0 1.01257e+06 76192.6 0 1.00354e+06 73384.4 0 994855 70524 0 986515 67612.7 0 978527 64651.1 0 970895 61639.5 0 963625 58578.1 0 956723 55467.2 0 950194 52306.7 0 944045 49097.1 0 938282 45838.8 0 932912 42532.7 0 927940 39180 0 923375 35782.3 0 919221 32341.6 0 915485 28860.3 0 912173 25341.5 0 909290 21788.7 0 906841 18205.6 0 904831 14596.7 0 903263 10966.5 0 902139 7320.15 0 901463 3662.85 0 901235 0 0 1.2383e+06 -493930 0 1.28607e+06 -440261 0 1.32976e+06 -383480 0 1.36646e+06 -325283 0 1.39445e+06 -267631 0 1.41339e+06 -212512 0 1.42398e+06 -161540 0 1.42749e+06 -115719 0 1.42537e+06 -75463.5 0 1.41894e+06 -40731.7 0 1.40934e+06 -11195.2 0 1.39748e+06 13628.4 0 1.38404e+06 34280.2 0 1.36954e+06 51301.5 0 1.35436e+06 65200.6 0 1.33879e+06 76436.6 0 1.32302e+06 85414.8 0 1.3072e+06 92486.4 0 1.29143e+06 97953.2 0 1.27578e+06 102072 0 1.26032e+06 105060 0 1.24508e+06 107100 0 1.23008e+06 108348 0 1.21535e+06 108932 0 1.20091e+06 108962 0 1.18675e+06 108527 0 1.1729e+06 107704 0 1.15935e+06 106555 0 1.14611e+06 105134 0 1.13318e+06 103485 0 1.12057e+06 101642 0 1.10827e+06 99636.1 0 1.0963e+06 97491.6 0 1.08464e+06 95228.3 0 1.07331e+06 92862.5 0 1.06229e+06 90407 0 1.05161e+06 87872.3 0 1.04125e+06 85266.5 0 1.03122e+06 82595.8 0 1.02152e+06 79865 0 1.01216e+06 77077.6 0 1.00313e+06 74236.1 0 994449 71342.1 0 986114 68396.9 0 978130 65400.9 0 970502 62354.5 0 963236 59257.8 0 956337 56111 0 949811 52914.1 0 943664 49667.6 0 937903 46371.8 0 932535 43027.6 0 927565 39636.2 0 923001 36199.2 0 918848 32718.6 0 915113 29197 0 911801 25637.3 0 908919 22043.1 0 906470 18418.3 0 904460 14767.3 0 902892 11094.7 0 901768 7405.76 0 901092 3705.69 0 900864 0 0 1.24551e+06 -496803 0 1.29354e+06 -442708 0 1.33721e+06 -385293 0 1.37362e+06 -326297 0 1.40109e+06 -267822 0 1.41932e+06 -211973 0 1.42912e+06 -160424 0 1.43185e+06 -114191 0 1.42898e+06 -73664.2 0 1.42188e+06 -38773.3 0 1.4117e+06 -9158.91 0 1.39933e+06 15686.5 0 1.38546e+06 36323.7 0 1.3706e+06 53307.8 0 1.35513e+06 67156.7 0 1.33931e+06 78336.3 0 1.32334e+06 87255.7 0 1.30735e+06 94268.8 0 1.29145e+06 99678.6 0 1.2757e+06 103743 0 1.26015e+06 106679 0 1.24483e+06 108670 0 1.22978e+06 109871 0 1.21501e+06 110411 0 1.20053e+06 110398 0 1.18635e+06 109923 0 1.17247e+06 109061 0 1.15891e+06 107875 0 1.14566e+06 106418 0 1.13273e+06 104733 0 1.12011e+06 102856 0 1.10782e+06 100816 0 1.09584e+06 98638.1 0 1.08419e+06 96341.8 0 1.07285e+06 93943.1 0 1.06185e+06 91455 0 1.05116e+06 88887.8 0 1.04081e+06 86249.4 0 1.03079e+06 83546 0 1.02109e+06 80782.4 0 1.01174e+06 77962.1 0 1.00272e+06 75087.3 0 994039 72159.8 0 985709 69180.6 0 977729 66150.3 0 970105 63069.1 0 962842 59937.2 0 955947 56754.6 0 949424 53521.4 0 943280 50237.9 0 937521 46904.6 0 932154 43522.3 0 927186 40092.2 0 922622 36616 0 918470 33095.6 0 914736 29533.6 0 911425 25933.1 0 908543 22297.6 0 906094 18631 0 904084 14937.9 0 902516 11223 0 901393 7491.37 0 900716 3748.53 0 900489 0 0 1.25276e+06 -499698 0 1.30107e+06 -445148 0 1.34474e+06 -387062 0 1.38086e+06 -327237 0 1.40778e+06 -267919 0 1.42529e+06 -211332 0 1.43429e+06 -159210 0 1.43622e+06 -112571 0 1.43259e+06 -71784.6 0 1.42482e+06 -36746 0 1.41404e+06 -7064.8 0 1.40116e+06 17792.7 0 1.38687e+06 38406.7 0 1.37166e+06 55346.5 0 1.35589e+06 69139.5 0 1.33983e+06 80257.7 0 1.32365e+06 89114.3 0 1.3075e+06 96065.5 0 1.29146e+06 101416 0 1.2756e+06 105423 0 1.25996e+06 108305 0 1.24458e+06 110246 0 1.22947e+06 111399 0 1.21466e+06 111894 0 1.20014e+06 111838 0 1.18594e+06 111321 0 1.17204e+06 110420 0 1.15846e+06 109197 0 1.14521e+06 107703 0 1.13227e+06 105982 0 1.11965e+06 104070 0 1.10735e+06 101996 0 1.09538e+06 99784.6 0 1.08373e+06 97455 0 1.0724e+06 95023.5 0 1.0614e+06 92502.6 0 1.05072e+06 89902.8 0 1.04037e+06 87231.8 0 1.03035e+06 84495.8 0 1.02066e+06 81699.4 0 1.01131e+06 78846.1 0 1.0023e+06 75938.1 0 993626 72977.1 0 985300 69964 0 977325 66899.4 0 969705 63783.4 0 962446 60616.2 0 955553 57397.9 0 949033 54128.4 0 942891 50808 0 937134 47437.2 0 931769 44016.9 0 926802 40548.2 0 922240 37032.7 0 918088 33472.5 0 914355 29870.2 0 911044 26228.8 0 908162 22552 0 905714 18843.7 0 903704 15108.5 0 902136 11351.2 0 901012 7576.98 0 900336 3791.38 0 900108 0 0 1.26008e+06 -502617 0 1.30867e+06 -447583 0 1.35235e+06 -388788 0 1.38817e+06 -328101 0 1.41453e+06 -267920 0 1.43131e+06 -210588 0 1.43949e+06 -157894 0 1.44059e+06 -110859 0 1.4362e+06 -69824 0 1.42774e+06 -34649.8 0 1.41637e+06 -4912.87 0 1.40298e+06 19946.8 0 1.38826e+06 40529.2 0 1.37269e+06 57417.6 0 1.35663e+06 71148.7 0 1.34033e+06 82200.6 0 1.32395e+06 90990.4 0 1.30764e+06 97876.4 0 1.29147e+06 103164 0 1.2755e+06 107112 0 1.25978e+06 109939 0 1.24432e+06 111828 0 1.22916e+06 112932 0 1.2143e+06 113380 0 1.19975e+06 113280 0 1.18552e+06 112722 0 1.17161e+06 111781 0 1.15802e+06 110519 0 1.14475e+06 108988 0 1.1318e+06 107231 0 1.11918e+06 105284 0 1.10689e+06 103176 0 1.09491e+06 100931 0 1.08327e+06 98568 0 1.07194e+06 96103.4 0 1.06094e+06 93549.9 0 1.05027e+06 90917.3 0 1.03993e+06 88213.7 0 1.02991e+06 85445.1 0 1.02023e+06 82616 0 1.01088e+06 79729.7 0 1.00188e+06 76788.5 0 993209 73794 0 984888 70747 0 976916 67648.1 0 969300 64497.4 0 962045 61295 0 955155 58040.9 0 948638 54735.1 0 942498 51377.9 0 936744 47969.7 0 931380 44511.4 0 926414 41004 0 921853 37449.3 0 917702 33849.4 0 913969 30206.7 0 910659 26524.5 0 907777 22806.4 0 905329 19056.4 0 903319 15279.1 0 901751 11479.4 0 900628 7662.59 0 899952 3834.22 0 899724 0 0 1.26746e+06 -505559 0 1.31635e+06 -450011 0 1.36004e+06 -390469 0 1.39557e+06 -328888 0 1.42135e+06 -267822 0 1.43736e+06 -209738 0 1.4447e+06 -156476 0 1.44497e+06 -109053 0 1.4398e+06 -67781.9 0 1.43065e+06 -32484.3 0 1.41868e+06 -2703.17 0 1.40479e+06 22148.6 0 1.38964e+06 42690.9 0 1.37372e+06 59520.7 0 1.35736e+06 73184 0 1.34081e+06 84164.8 0 1.32424e+06 92883.7 0 1.30777e+06 99701.3 0 1.29146e+06 104924 0 1.27539e+06 108811 0 1.25958e+06 111580 0 1.24406e+06 113415 0 1.22884e+06 114469 0 1.21394e+06 114870 0 1.19936e+06 114725 0 1.1851e+06 114125 0 1.17117e+06 113143 0 1.15756e+06 111842 0 1.14429e+06 110274 0 1.13134e+06 108481 0 1.11871e+06 106499 0 1.10642e+06 104356 0 1.09445e+06 102077 0 1.0828e+06 99680.7 0 1.07148e+06 97183.1 0 1.06049e+06 94596.7 0 1.04982e+06 91931.5 0 1.03948e+06 89195.2 0 1.02947e+06 86393.9 0 1.0198e+06 83532 0 1.01045e+06 80612.8 0 1.00145e+06 77638.4 0 992788 74610.4 0 984471 71529.6 0 976505 68396.5 0 968892 65211.1 0 961640 61973.5 0 954754 58683.7 0 948239 55341.7 0 942102 51947.7 0 936349 48502.1 0 930987 45005.7 0 926022 41459.8 0 921462 37865.9 0 917312 34226.2 0 913579 30543.2 0 910269 26820.2 0 907388 23060.8 0 904940 19269.1 0 902930 15449.7 0 901362 11607.6 0 900239 7748.2 0 899562 3877.07 0 899334 0 0 1.2749e+06 -508526 0 1.3241e+06 -452433 0 1.36783e+06 -392104 0 1.40304e+06 -329594 0 1.42823e+06 -267622 0 1.44346e+06 -208779 0 1.44993e+06 -154953 0 1.44935e+06 -107153 0 1.4434e+06 -65657.8 0 1.43355e+06 -30249.5 0 1.42097e+06 -435.781 0 1.40657e+06 24397.9 0 1.391e+06 44891.5 0 1.37472e+06 61655.5 0 1.35807e+06 75245.1 0 1.34128e+06 86149.9 0 1.32452e+06 94794.1 0 1.30788e+06 101540 0 1.29145e+06 106695 0 1.27527e+06 110519 0 1.25937e+06 113229 0 1.24378e+06 115008 0 1.22851e+06 116010 0 1.21357e+06 116363 0 1.19895e+06 116173 0 1.18467e+06 115530 0 1.17072e+06 114507 0 1.15711e+06 113167 0 1.14382e+06 111561 0 1.13087e+06 109731 0 1.11824e+06 107714 0 1.10594e+06 105536 0 1.09397e+06 103223 0 1.08233e+06 100793 0 1.07101e+06 98262.4 0 1.06002e+06 95643.1 0 1.04936e+06 92945.2 0 1.03903e+06 90176.3 0 1.02903e+06 87342.3 0 1.01936e+06 84447.6 0 1.01002e+06 81495.5 0 1.00102e+06 78487.9 0 992364 75426.4 0 984052 72311.8 0 976089 69144.5 0 968481 65924.5 0 961232 62651.8 0 954348 59326.3 0 947836 55948.1 0 941701 52517.2 0 935950 49034.3 0 930590 45499.9 0 925626 41915.4 0 921067 38282.4 0 916918 34602.9 0 913185 30879.7 0 909875 27115.9 0 906994 23315.2 0 904546 19481.8 0 902536 15620.3 0 900968 11735.8 0 899845 7833.82 0 899168 3919.91 0 898940 0 0 1.2824e+06 -511520 0 1.33194e+06 -454848 0 1.3757e+06 -393691 0 1.4106e+06 -330217 0 1.43517e+06 -267318 0 1.44959e+06 -207709 0 1.45518e+06 -153323 0 1.45373e+06 -105158 0 1.44698e+06 -63451.3 0 1.43643e+06 -27945.3 0 1.42325e+06 1889.19 0 1.40834e+06 26694.6 0 1.39234e+06 47130.7 0 1.37571e+06 63821.7 0 1.35877e+06 77331.7 0 1.34174e+06 88155.8 0 1.32478e+06 96721.3 0 1.30799e+06 103392 0 1.29142e+06 108477 0 1.27514e+06 112235 0 1.25916e+06 114884 0 1.2435e+06 116607 0 1.22818e+06 117557 0 1.21319e+06 117860 0 1.19855e+06 117624 0 1.18424e+06 116936 0 1.17027e+06 115872 0 1.15665e+06 114493 0 1.14335e+06 112848 0 1.13039e+06 110982 0 1.11776e+06 108928 0 1.10547e+06 106716 0 1.0935e+06 104369 0 1.08186e+06 101905 0 1.07054e+06 99341.3 0 1.05956e+06 96689.1 0 1.0489e+06 93958.4 0 1.03858e+06 91156.9 0 1.02858e+06 88290.2 0 1.01891e+06 85362.8 0 1.00958e+06 82377.7 0 1.00059e+06 79337 0 991936 76242.1 0 983628 73093.7 0 975670 69892.2 0 968065 66637.5 0 960820 63329.7 0 953939 59968.6 0 947429 56554.2 0 941297 53086.6 0 935547 49566.3 0 930188 45994.1 0 925226 42371 0 920667 38698.8 0 916519 34979.6 0 912787 31216.2 0 909477 27411.5 0 906596 23569.6 0 904148 19694.4 0 902138 15790.9 0 900570 11864.1 0 899446 7919.44 0 898770 3962.76 0 898542 0 0 1.28998e+06 -514541 0 1.33987e+06 -457257 0 1.38367e+06 -395228 0 1.41825e+06 -330754 0 1.44218e+06 -266907 0 1.45576e+06 -206526 0 1.46045e+06 -151586 0 1.45811e+06 -103066 0 1.45056e+06 -61161.9 0 1.4393e+06 -25571.5 0 1.42551e+06 4271.62 0 1.41009e+06 29038.3 0 1.39366e+06 49408.2 0 1.37668e+06 66019.1 0 1.35945e+06 79443.7 0 1.34219e+06 90182.2 0 1.32503e+06 98665 0 1.30808e+06 105258 0 1.29139e+06 110270 0 1.275e+06 113960 0 1.25894e+06 116547 0 1.24322e+06 118212 0 1.22784e+06 119107 0 1.21281e+06 119360 0 1.19814e+06 119077 0 1.18381e+06 118345 0 1.16982e+06 117239 0 1.15618e+06 115819 0 1.14288e+06 114136 0 1.12991e+06 112233 0 1.11728e+06 110143 0 1.10498e+06 107896 0 1.09302e+06 105514 0 1.08138e+06 103017 0 1.07007e+06 100420 0 1.05909e+06 97734.7 0 1.04844e+06 94971.2 0 1.03812e+06 92137 0 1.02813e+06 89237.6 0 1.01847e+06 86277.4 0 1.00914e+06 83259.4 0 1.00015e+06 80185.6 0 991505 77057.3 0 983201 73875.2 0 975247 70639.5 0 967646 67350.3 0 960404 64007.4 0 953526 60610.7 0 947019 57160.2 0 940888 53655.9 0 935140 50098.3 0 929783 46488.1 0 924821 42826.5 0 920264 39115.2 0 916115 35356.3 0 912384 31552.6 0 909074 27707.2 0 906193 23823.9 0 903745 19907.1 0 901735 15961.5 0 900167 11992.3 0 899043 8005.06 0 898367 4005.62 0 898139 0 0 1.29762e+06 -517591 0 1.34788e+06 -459659 0 1.39174e+06 -396715 0 1.42599e+06 -331203 0 1.44925e+06 -266385 0 1.46197e+06 -205227 0 1.46573e+06 -149739 0 1.4625e+06 -100877 0 1.45412e+06 -58789.2 0 1.44214e+06 -23128.2 0 1.42775e+06 6711.34 0 1.41182e+06 31428.7 0 1.39496e+06 51723.8 0 1.37763e+06 68247.4 0 1.36011e+06 81580.6 0 1.34261e+06 92228.8 0 1.32527e+06 100625 0 1.30816e+06 107137 0 1.29134e+06 112073 0 1.27485e+06 115694 0 1.25871e+06 118216 0 1.24292e+06 119821 0 1.2275e+06 120662 0 1.21243e+06 120864 0 1.19772e+06 120532 0 1.18336e+06 119756 0 1.16936e+06 118607 0 1.15571e+06 117147 0 1.1424e+06 115425 0 1.12943e+06 113484 0 1.1168e+06 111359 0 1.1045e+06 109076 0 1.09253e+06 106660 0 1.0809e+06 104129 0 1.0696e+06 101498 0 1.05862e+06 98779.9 0 1.04797e+06 95983.6 0 1.03766e+06 93116.6 0 1.02767e+06 90184.6 0 1.01802e+06 87191.7 0 1.0087e+06 84140.7 0 999712 81033.8 0 991069 77872.1 0 982771 74656.3 0 974820 71386.5 0 967223 68062.8 0 959984 64684.9 0 953109 61252.6 0 946604 57766 0 940476 54225 0 934730 50630.1 0 929373 46982 0 924413 43282 0 919856 39531.6 0 915708 35733 0 911977 31889 0 908667 28002.8 0 905786 24078.3 0 903338 20119.8 0 901328 16132.1 0 899759 12120.6 0 898636 8090.7 0 897959 4048.48 0 897731 0 0 1.30535e+06 -520672 0 1.356e+06 -462055 0 1.39992e+06 -398149 0 1.43382e+06 -331559 0 1.45639e+06 -265749 0 1.46822e+06 -203809 0 1.47102e+06 -147781 0 1.46687e+06 -98588.7 0 1.45767e+06 -56332.7 0 1.44497e+06 -20615.2 0 1.42997e+06 9208.15 0 1.41352e+06 33865.7 0 1.39624e+06 54077 0 1.37856e+06 70506.2 0 1.36076e+06 83742.1 0 1.34303e+06 94295.3 0 1.32549e+06 102601 0 1.30823e+06 109029 0 1.29129e+06 113887 0 1.2747e+06 117436 0 1.25847e+06 119892 0 1.24262e+06 121437 0 1.22714