<?xml version="1.0"?> 
<VTKFile type="StructuredGrid" version="0.1"> 
<StructuredGrid WholeExtent="0 63 0 63 0 0"> 
<Piece Extent="0 63 0 63 0 0"> 
<PointData>
<DataArray type="Float32" Name="|E|" format="ascii" NumberOfComponents="3"> 
-2.06729e+06 0 0 -2.0673e+06 756.418 0 -2.0673e+06 1512.84 0 -2.06731e+06 2269.28 0 -2.06733e+06 3025.73 0 -2.06735e+06 3782.19 0 -2.06737e+06 4538.68 0 -2.0674e+06 5295.2 0 -2.06743e+06 6051.75 0 -2.06747e+06 6808.33 0 -2.06751e+06 7564.95 0 -2.06755e+06 8321.61 0 -2.0676e+06 9078.32 0 -2.06765e+06 9835.08 0 -2.06771e+06 10591.9 0 -2.06777e+06 11348.8 0 -2.06784e+06 12105.7 0 -2.06791e+06 12862.7 0 -2.06799e+06 13619.8 0 -2.06806e+06 14376.9 0 -2.06815e+06 15134.2 0 -2.06824e+06 15891.5 0 -2.06833e+06 16648.9 0 -2.06842e+06 17406.4 0 -2.06852e+06 18164 0 -2.06863e+06 18921.7 0 -2.06874e+06 19679.4 0 -2.06885e+06 20437.3 0 -2.06897e+06 21195.3 0 -2.06909e+06 21953.5 0 -2.06922e+06 22711.7 0 -2.06935e+06 23470.1 0 -2.06948e+06 24228.6 0 -2.06962e+06 24987.2 0 -2.06976e+06 25746 0 -2.06991e+06 26504.9 0 -2.07006e+06 27264 0 -2.07022e+06 28023.2 0 -2.07038e+06 28782.6 0 -2.07054e+06 29542.2 0 -2.07071e+06 30302 0 -2.07088e+06 31061.9 0 -2.07106e+06 31822 0 -2.07124e+06 32582.2 0 -2.07143e+06 33342.6 0 -2.07162e+06 34103.1 0 -2.07181e+06 34863.8 0 -2.07201e+06 35624.7 0 -2.07221e+06 36385.7 0 -2.07242e+06 37146.8 0 -2.07263e+06 37908 0 -2.07285e+06 38669.4 0 -2.07307e+06 39430.9 0 -2.07329e+06 40192.6 0 -2.07352e+06 40954.5 0 -2.07375e+06 41716.5 0 -2.07399e+06 42478.7 0 -2.07423e+06 43241 0 -2.07448e+06 44003.6 0 -2.07473e+06 44766.5 0 -2.07498e+06 45529.6 0 -2.07524e+06 46292.6 0 -2.07551e+06 47052.5 0 -2.07577e+06 47800.3 0 -2.06666e+06 0 0 -2.06666e+06 780.082 0 -2.06667e+06 1560.17 0 -2.06668e+06 2340.27 0 -2.0667e+06 3120.39 0 -2.06672e+06 3900.52 0 -2.06674e+06 4680.68 0 -2.06677e+06 5460.87 0 -2.06681e+06 6241.09 0 -2.06684e+06 7021.34 0 -2.06689e+06 7801.64 0 -2.06693e+06 8581.99 0 -2.06699e+06 9362.39 0 -2.06704e+06 10142.8 0 -2.0671e+06 10923.3 0 -2.06717e+06 11703.9 0 -2.06724e+06 12484.6 0 -2.06731e+06 13265.3 0 -2.06739e+06 14046.1 0 -2.06747e+06 14827 0 -2.06756e+06 15607.9 0 -2.06765e+06 16389 0 -2.06775e+06 17170.1 0 -2.06785e+06 17951.4 0 -2.06796e+06 18732.7 0 -2.06807e+06 19514.2 0 -2.06818e+06 20295.7 0 -2.0683e+06 21077.4 0 -2.06842e+06 21859.2 0 -2.06855e+06 22641.1 0 -2.06869e+06 23423.2 0 -2.06882e+06 24205.4 0 -2.06896e+06 24987.7 0 -2.06911e+06 25770.2 0 -2.06926e+06 26552.8 0 -2.06942e+06 27335.6 0 -2.06958e+06 28118.6 0 -2.06974e+06 28901.8 0 -2.06991e+06 29685.1 0 -2.07008e+06 30468.6 0 -2.07026e+06 31252.2 0 -2.07044e+06 32036.1 0 -2.07063e+06 32820.1 0 -2.07082e+06 33604.2 0 -2.07101e+06 34388.6 0 -2.07121e+06 35173 0 -2.07142e+06 35957.7 0 -2.07163e+06 36742.5 0 -2.07184e+06 37527.4 0 -2.07206e+06 38312.5 0 -2.07228e+06 39097.8 0 -2.07251e+06 39883.2 0 -2.07274e+06 40668.8 0 -2.07298e+06 41454.6 0 -2.07322e+06 42240.5 0 -2.07346e+06 43026.7 0 -2.07371e+06 43813 0 -2.07397e+06 44599.6 0 -2.07423e+06 45386.3 0 -2.07449e+06 46173.1 0 -2.07476e+06 46959.8 0 -2.07503e+06 47746.4 0 -2.07531e+06 48534.2 0 -2.0756e+06 49329.2 0 -2.06603e+06 0 0 -2.06603e+06 803.931 0 -2.06604e+06 1607.87 0 -2.06605e+06 2411.82 0 -2.06606e+06 3215.78 0 -2.06609e+06 4019.77 0 -2.06611e+06 4823.78 0 -2.06614e+06 5627.83 0 -2.06618e+06 6431.91 0 -2.06622e+06 7236.03 0 -2.06626e+06 8040.19 0 -2.06631e+06 8844.41 0 -2.06637e+06 9648.68 0 -2.06643e+06 10453 0 -2.06649e+06 11257.4 0 -2.06656e+06 12061.9 0 -2.06663e+06 12866.4 0 -2.06671e+06 13671 0 -2.06679e+06 14475.7 0 -2.06688e+06 15280.5 0 -2.06697e+06 16085.4 0 -2.06707e+06 16890.4 0 -2.06717e+06 17695.4 0 -2.06728e+06 18500.6 0 -2.06739e+06 19305.9 0 -2.0675e+06 20111.3 0 -2.06762e+06 20916.9 0 -2.06775e+06 21722.5 0 -2.06788e+06 22528.3 0 -2.06801e+06 23334.2 0 -2.06815e+06 24140.3 0 -2.0683e+06 24946.5 0 -2.06845e+06 25752.9 0 -2.0686e+06 26559.4 0 -2.06876e+06 27366.1 0 -2.06892e+06 28173 0 -2.06909e+06 28980.1 0 -2.06926e+06 29787.3 0 -2.06944e+06 30594.7 0 -2.06962e+06 31402.3 0 -2.06981e+06 32210.1 0 -2.07e+06 33018 0 -2.0702e+06 33826.1 0 -2.0704e+06 34634.4 0 -2.0706e+06 35442.9 0 -2.07081e+06 36251.5 0 -2.07103e+06 37060.3 0 -2.07125e+06 37869.3 0 -2.07147e+06 38678.4 0 -2.0717e+06 39487.8 0 -2.07194e+06 40297.3 0 -2.07218e+06 41107 0 -2.07242e+06 41916.8 0 -2.07267e+06 42726.9 0 -2.07292e+06 43537.2 0 -2.07318e+06 44347.8 0 -2.07344e+06 45158.5 0 -2.07371e+06 45969.4 0 -2.07398e+06 46780.5 0 -2.07426e+06 47591.9 0 -2.07454e+06 48404 0 -2.07483e+06 49217.4 0 -2.07512e+06 50032.6 0 -2.07542e+06 50846.2 0 -2.06539e+06 0 0 -2.06539e+06 827.964 0 -2.0654e+06 1655.94 0 -2.06541e+06 2483.92 0 -2.06543e+06 3311.92 0 -2.06545e+06 4139.95 0 -2.06548e+06 4968 0 -2.06551e+06 5796.09 0 -2.06555e+06 6624.21 0 -2.06559e+06 7452.38 0 -2.06564e+06 8280.6 0 -2.06569e+06 9108.87 0 -2.06575e+06 9937.2 0 -2.06581e+06 10765.6 0 -2.06588e+06 11594.1 0 -2.06595e+06 12422.6 0 -2.06602e+06 13251.2 0 -2.06611e+06 14079.9 0 -2.06619e+06 14908.7 0 -2.06629e+06 15737.6 0 -2.06638e+06 16566.6 0 -2.06648e+06 17395.7 0 -2.06659e+06 18224.9 0 -2.0667e+06 19054.2 0 -2.06682e+06 19883.6 0 -2.06694e+06 20713.2 0 -2.06707e+06 21542.9 0 -2.0672e+06 22372.7 0 -2.06734e+06 23202.7 0 -2.06748e+06 24032.8 0 -2.06762e+06 24863.1 0 -2.06777e+06 25693.5 0 -2.06793e+06 26524.1 0 -2.06809e+06 27354.9 0 -2.06826e+06 28185.8 0 -2.06843e+06 29017 0 -2.06861e+06 29848.3 0 -2.06879e+06 30679.8 0 -2.06897e+06 31511.5 0 -2.06916e+06 32343.4 0 -2.06936e+06 33175.5 0 -2.06956e+06 34007.7 0 -2.06977e+06 34840.1 0 -2.06998e+06 35672.8 0 -2.07019e+06 36505.6 0 -2.07042e+06 37338.6 0 -2.07064e+06 38171.8 0 -2.07087e+06 39005.1 0 -2.07111e+06 39838.7 0 -2.07135e+06 40672.5 0 -2.07159e+06 41506.4 0 -2.07185e+06 42340.6 0 -2.0721e+06 43175 0 -2.07236e+06 44009.7 0 -2.07263e+06 44844.6 0 -2.0729e+06 45679.7 0 -2.07318e+06 46515.1 0 -2.07346e+06 47350.9 0 -2.07375e+06 48187.1 0 -2.07404e+06 49024.1 0 -2.07433e+06 49862.1 0 -2.07464e+06 50700.7 0 -2.07494e+06 51539 0 -2.07525e+06 52377.8 0 -2.06475e+06 0 0 -2.06475e+06 852.182 0 -2.06476e+06 1704.37 0 -2.06477e+06 2556.58 0 -2.06479e+06 3408.8 0 -2.06481e+06 4261.05 0 -2.06484e+06 5113.32 0 -2.06488e+06 5965.64 0 -2.06492e+06 6817.99 0 -2.06496e+06 7670.39 0 -2.06501e+06 8522.85 0 -2.06506e+06 9375.36 0 -2.06512e+06 10227.9 0 -2.06519e+06 11080.6 0 -2.06526e+06 11933.3 0 -2.06533e+06 12786.1 0 -2.06542e+06 13639 0 -2.0655e+06 14492 0 -2.06559e+06 15345 0 -2.06569e+06 16198.2 0 -2.06579e+06 17051.5 0 -2.0659e+06 17904.9 0 -2.06601e+06 18758.4 0 -2.06613e+06 19612 0 -2.06625e+06 20465.8 0 -2.06638e+06 21319.7 0 -2.06651e+06 22173.8 0 -2.06665e+06 23028 0 -2.06679e+06 23882.3 0 -2.06694e+06 24736.8 0 -2.06709e+06 25591.5 0 -2.06725e+06 26446.3 0 -2.06741e+06 27301.3 0 -2.06758e+06 28156.6 0 -2.06776e+06 29011.9 0 -2.06794e+06 29867.5 0 -2.06812e+06 30723.3 0 -2.06831e+06 31579.3 0 -2.06851e+06 32435.5 0 -2.06871e+06 33291.8 0 -2.06891e+06 34148.4 0 -2.06912e+06 35005.2 0 -2.06934e+06 35862.2 0 -2.06956e+06 36719.3 0 -2.06979e+06 37576.7 0 -2.07002e+06 38434.3 0 -2.07026e+06 39292 0 -2.0705e+06 40150 0 -2.07075e+06 41008.2 0 -2.071e+06 41866.7 0 -2.07126e+06 42725.3 0 -2.07152e+06 43584.3 0 -2.07179e+06 44443.5 0 -2.07206e+06 45302.9 0 -2.07234e+06 46162.7 0 -2.07263e+06 47022.8 0 -2.07292e+06 47883.3 0 -2.07321e+06 48744.4 0 -2.07351e+06 49606.1 0 -2.07382e+06 50468.5 0 -2.07413e+06 51331.3 0 -2.07445e+06 52194.2 0 -2.07477e+06 53057.4 0 -2.07509e+06 53920.8 0 -2.0641e+06 0 0 -2.06411e+06 876.584 0 -2.06412e+06 1753.18 0 -2.06413e+06 2629.78 0 -2.06415e+06 3506.41 0 -2.06417e+06 4383.07 0 -2.0642e+06 5259.75 0 -2.06424e+06 6136.48 0 -2.06428e+06 7013.25 0 -2.06433e+06 7890.07 0 -2.06438e+06 8766.95 0 -2.06443e+06 9643.88 0 -2.0645e+06 10520.9 0 -2.06457e+06 11398 0 -2.06464e+06 12275.1 0 -2.06472e+06 13152.4 0 -2.0648e+06 14029.7 0 -2.06489e+06 14907.2 0 -2.06499e+06 15784.7 0 -2.06509e+06 16662.4 0 -2.0652e+06 17540.1 0 -2.06531e+06 18418 0 -2.06542e+06 19296 0 -2.06555e+06 20174.2 0 -2.06568e+06 21052.5 0 -2.06581e+06 21930.9 0 -2.06595e+06 22809.5 0 -2.06609e+06 23688.2 0 -2.06624e+06 24567.2 0 -2.0664e+06 25446.2 0 -2.06656e+06 26325.5 0 -2.06673e+06 27205 0 -2.0669e+06 28084.6 0 -2.06707e+06 28964.4 0 -2.06726e+06 29844.5 0 -2.06745e+06 30724.7 0 -2.06764e+06 31605.1 0 -2.06784e+06 32485.8 0 -2.06804e+06 33366.6 0 -2.06825e+06 34247.7 0 -2.06847e+06 35129 0 -2.06869e+06 36010.5 0 -2.06892e+06 36892.2 0 -2.06915e+06 37774.1 0 -2.06938e+06 38656.2 0 -2.06963e+06 39538.6 0 -2.06988e+06 40421.2 0 -2.07013e+06 41304 0 -2.07039e+06 42187.1 0 -2.07065e+06 43070.4 0 -2.07092e+06 43954 0 -2.0712e+06 44837.9 0 -2.07148e+06 45722.2 0 -2.07177e+06 46606.7 0 -2.07206e+06 47491.6 0 -2.07236e+06 48377.1 0 -2.07266e+06 49263 0 -2.07297e+06 50149.5 0 -2.07329e+06 51036.5 0 -2.07361e+06 51923.9 0 -2.07393e+06 52811.5 0 -2.07426e+06 53699.5 0 -2.0746e+06 54587.7 0 -2.07494e+06 55476.3 0 -2.06346e+06 0 0 -2.06346e+06 901.171 0 -2.06347e+06 1802.35 0 -2.06348e+06 2703.55 0 -2.0635e+06 3604.76 0 -2.06353e+06 4506.01 0 -2.06356e+06 5407.29 0 -2.0636e+06 6308.61 0 -2.06364e+06 7209.98 0 -2.06369e+06 8111.4 0 -2.06374e+06 9012.89 0 -2.0638e+06 9914.44 0 -2.06387e+06 10816.1 0 -2.06394e+06 11717.8 0 -2.06402e+06 12619.6 0 -2.0641e+06 13521.4 0 -2.06419e+06 14423.4 0 -2.06428e+06 15325.5 0 -2.06438e+06 16227.7 0 -2.06449e+06 17130 0 -2.0646e+06 18032.5 0 -2.06472e+06 18935 0 -2.06484e+06 19837.7 0 -2.06497e+06 20740.6 0 -2.0651e+06 21643.6 0 -2.06524e+06 22546.8 0 -2.06539e+06 23450.1 0 -2.06554e+06 24353.6 0 -2.0657e+06 25257.3 0 -2.06586e+06 26161.1 0 -2.06603e+06 27065.2 0 -2.0662e+06 27969.4 0 -2.06638e+06 28873.8 0 -2.06657e+06 29778.5 0 -2.06676e+06 30683.4 0 -2.06695e+06 31588.4 0 -2.06716e+06 32493.7 0 -2.06736e+06 33399.2 0 -2.06758e+06 34305 0 -2.0678e+06 35210.9 0 -2.06802e+06 36117.1 0 -2.06826e+06 37023.5 0 -2.06849e+06 37930.2 0 -2.06873e+06 38837 0 -2.06898e+06 39744.2 0 -2.06924e+06 40651.5 0 -2.0695e+06 41559.2 0 -2.06976e+06 42467.1 0 -2.07003e+06 43375.3 0 -2.07031e+06 44283.7 0 -2.07059e+06 45192.5 0 -2.07088e+06 46101.7 0 -2.07118e+06 47011.2 0 -2.07148e+06 47921.1 0 -2.07179e+06 48831.5 0 -2.0721e+06 49742.4 0 -2.07242e+06 50653.8 0 -2.07274e+06 51565.7 0 -2.07307e+06 52478 0 -2.0734e+06 53390.5 0 -2.07374e+06 54303.5 0 -2.07409e+06 55216.7 0 -2.07444e+06 56130.3 0 -2.0748e+06 57044.2 0 -2.06281e+06 0 0 -2.06281e+06 925.941 0 -2.06282e+06 1851.89 0 -2.06284e+06 2777.86 0 -2.06286e+06 3703.85 0 -2.06288e+06 4629.87 0 -2.06292e+06 5555.93 0 -2.06295e+06 6482.03 0 -2.063e+06 7408.18 0 -2.06305e+06 8334.4 0 -2.06311e+06 9260.67 0 -2.06317e+06 10187 0 -2.06324e+06 11113.4 0 -2.06331e+06 12040 0 -2.06339e+06 12966.6 0 -2.06348e+06 13893.3 0 -2.06357e+06 14820.1 0 -2.06367e+06 15747 0 -2.06378e+06 16674 0 -2.06389e+06 17601.2 0 -2.064e+06 18528.5 0 -2.06412e+06 19456 0 -2.06425e+06 20383.5 0 -2.06439e+06 21311.3 0 -2.06453e+06 22239.2 0 -2.06467e+06 23167.3 0 -2.06482e+06 24095.5 0 -2.06498e+06 25024 0 -2.06515e+06 25952.6 0 -2.06532e+06 26881.4 0 -2.06549e+06 27810.4 0 -2.06568e+06 28739.6 0 -2.06586e+06 29669.1 0 -2.06606e+06 30598.8 0 -2.06626e+06 31528.6 0 -2.06646e+06 32458.8 0 -2.06667e+06 33389.1 0 -2.06689e+06 34319.7 0 -2.06712e+06 35250.5 0 -2.06735e+06 36181.5 0 -2.06758e+06 37112.8 0 -2.06782e+06 38044.4 0 -2.06807e+06 38976.2 0 -2.06832e+06 39908.2 0 -2.06858e+06 40840.6 0 -2.06885e+06 41773.2 0 -2.06912e+06 42706.1 0 -2.0694e+06 43639.3 0 -2.06968e+06 44572.8 0 -2.06997e+06 45506.6 0 -2.07027e+06 46440.9 0 -2.07057e+06 47375.5 0 -2.07088e+06 48310.5 0 -2.07119e+06 49246.1 0 -2.07151e+06 50182.1 0 -2.07184e+06 51118.6 0 -2.07217e+06 52055.5 0 -2.07251e+06 52992.9 0 -2.07285e+06 53930.6 0 -2.0732e+06 54868.6 0 -2.07356e+06 55807.1 0 -2.07392e+06 56745.9 0 -2.07429e+06 57685.1 0 -2.07466e+06 58624.7 0 -2.06216e+06 0 0 -2.06216e+06 950.895 0 -2.06217e+06 1901.8 0 -2.06218e+06 2852.72 0 -2.06221e+06 3803.67 0 -2.06223e+06 4754.65 0 -2.06227e+06 5705.67 0 -2.06231e+06 6656.74 0 -2.06236e+06 7607.86 0 -2.06241e+06 8559.04 0 -2.06247e+06 9510.3 0 -2.06253e+06 10461.6 0 -2.0626e+06 11413 0 -2.06268e+06 12364.5 0 -2.06277e+06 13316.2 0 -2.06286e+06 14267.9 0 -2.06295e+06 15219.7 0 -2.06306e+06 16171.6 0 -2.06317e+06 17123.7 0 -2.06328e+06 18075.9 0 -2.0634e+06 19028.3 0 -2.06353e+06 19980.8 0 -2.06366e+06 20933.4 0 -2.0638e+06 21886.3 0 -2.06395e+06 22839.3 0 -2.0641e+06 23792.4 0 -2.06426e+06 24745.8 0 -2.06443e+06 25699.4 0 -2.0646e+06 26653.1 0 -2.06478e+06 27607.1 0 -2.06496e+06 28561.3 0 -2.06515e+06 29515.7 0 -2.06535e+06 30470.3 0 -2.06555e+06 31425.2 0 -2.06576e+06 32380.3 0 -2.06597e+06 33335.7 0 -2.06619e+06 34291.3 0 -2.06642e+06 35247.1 0 -2.06665e+06 36203.2 0 -2.06689e+06 37159.6 0 -2.06714e+06 38116.2 0 -2.06739e+06 39073.1 0 -2.06765e+06 40030.2 0 -2.06792e+06 40987.7 0 -2.06819e+06 41945.4 0 -2.06847e+06 42903.5 0 -2.06875e+06 43861.9 0 -2.06904e+06 44820.6 0 -2.06934e+06 45779.7 0 -2.06964e+06 46739.1 0 -2.06995e+06 47699 0 -2.07026e+06 48659.4 0 -2.07059e+06 49620.2 0 -2.07091e+06 50581.5 0 -2.07125e+06 51543.2 0 -2.07159e+06 52505.4 0 -2.07194e+06 53468 0 -2.07229e+06 54431 0 -2.07265e+06 55394.5 0 -2.07301e+06 56358.3 0 -2.07338e+06 57322.5 0 -2.07376e+06 58287.1 0 -2.07415e+06 59252.1 0 -2.07454e+06 60217.6 0 -2.0615e+06 0 0 -2.0615e+06 976.032 0 -2.06151e+06 1952.07 0 -2.06153e+06 2928.14 0 -2.06155e+06 3904.22 0 -2.06158e+06 4880.35 0 -2.06162e+06 5856.51 0 -2.06166e+06 6832.73 0 -2.06171e+06 7809 0 -2.06176e+06 8785.35 0 -2.06183e+06 9761.76 0 -2.06189e+06 10738.3 0 -2.06197e+06 11714.8 0 -2.06205e+06 12691.5 0 -2.06214e+06 13668.3 0 -2.06223e+06 14645.2 0 -2.06233e+06 15622.2 0 -2.06244e+06 16599.4 0 -2.06255e+06 17576.7 0 -2.06267e+06 18554.1 0 -2.0628e+06 19531.7 0 -2.06293e+06 20509.5 0 -2.06307e+06 21487.4 0 -2.06322e+06 22465.5 0 -2.06337e+06 23443.8 0 -2.06353e+06 24422.2 0 -2.0637e+06 25400.9 0 -2.06387e+06 26379.8 0 -2.06405e+06 27358.9 0 -2.06423e+06 28338.2 0 -2.06443e+06 29317.8 0 -2.06462e+06 30297.6 0 -2.06483e+06 31277.6 0 -2.06504e+06 32257.9 0 -2.06526e+06 33238.4 0 -2.06548e+06 34219.2 0 -2.06571e+06 35200.2 0 -2.06595e+06 36181.5 0 -2.06619e+06 37163.1 0 -2.06644e+06 38145 0 -2.0667e+06 39127.1 0 -2.06696e+06 40109.6 0 -2.06723e+06 41092.3 0 -2.06751e+06 42075.4 0 -2.06779e+06 43058.8 0 -2.06808e+06 44042.5 0 -2.06838e+06 45026.6 0 -2.06868e+06 46011.1 0 -2.06899e+06 46995.9 0 -2.06931e+06 47981.2 0 -2.06963e+06 48967 0 -2.06996e+06 49953.2 0 -2.0703e+06 50940 0 -2.07064e+06 51927.2 0 -2.07099e+06 52914.8 0 -2.07134e+06 53902.9 0 -2.0717e+06 54891.4 0 -2.07207e+06 55880.3 0 -2.07245e+06 56869.7 0 -2.07283e+06 57859.5 0 -2.07322e+06 58849.7 0 -2.07361e+06 59840.4 0 -2.07401e+06 60831.6 0 -2.07442e+06 61823.2 0 -2.06084e+06 0 0 -2.06085e+06 1001.35 0 -2.06086e+06 2002.72 0 -2.06087e+06 3004.1 0 -2.0609e+06 4005.51 0 -2.06093e+06 5006.96 0 -2.06096e+06 6008.46 0 -2.06101e+06 7010.01 0 -2.06106e+06 8011.62 0 -2.06112e+06 9013.3 0 -2.06118e+06 10015.1 0 -2.06125e+06 11016.9 0 -2.06133e+06 12018.9 0 -2.06141e+06 13020.9 0 -2.06151e+06 14023.1 0 -2.0616e+06 15025.3 0 -2.06171e+06 16027.8 0 -2.06182e+06 17030.3 0 -2.06194e+06 18033 0 -2.06206e+06 19035.9 0 -2.0622e+06 20038.9 0 -2.06234e+06 21042.1 0 -2.06248e+06 22045.4 0 -2.06263e+06 23049 0 -2.06279e+06 24052.7 0 -2.06296e+06 25056.7 0 -2.06313e+06 26060.9 0 -2.06331e+06 27065.3 0 -2.0635e+06 28069.9 0 -2.06369e+06 29074.7 0 -2.06389e+06 30079.8 0 -2.0641e+06 31085.2 0 -2.06431e+06 32090.8 0 -2.06453e+06 33096.7 0 -2.06476e+06 34102.8 0 -2.06499e+06 35109.2 0 -2.06523e+06 36115.9 0 -2.06548e+06 37122.9 0 -2.06573e+06 38130.2 0 -2.066e+06 39137.8 0 -2.06626e+06 40145.7 0 -2.06654e+06 41153.9 0 -2.06682e+06 42162.4 0 -2.06711e+06 43171.3 0 -2.0674e+06 44180.6 0 -2.0677e+06 45190.2 0 -2.06801e+06 46200.2 0 -2.06833e+06 47210.7 0 -2.06865e+06 48221.6 0 -2.06898e+06 49232.9 0 -2.06932e+06 50244.7 0 -2.06966e+06 51257.1 0 -2.07001e+06 52269.9 0 -2.07037e+06 53283.1 0 -2.07073e+06 54296.9 0 -2.0711e+06 55311.1 0 -2.07148e+06 56325.7 0 -2.07186e+06 57340.8 0 -2.07225e+06 58356.4 0 -2.07265e+06 59372.4 0 -2.07305e+06 60388.9 0 -2.07347e+06 61405.9 0 -2.07388e+06 62423.4 0 -2.07431e+06 63441.4 0 -2.06018e+06 0 0 -2.06018e+06 1026.86 0 -2.06019e+06 2053.72 0 -2.06021e+06 3080.61 0 -2.06024e+06 4107.53 0 -2.06027e+06 5134.49 0 -2.06031e+06 6161.5 0 -2.06035e+06 7188.56 0 -2.06041e+06 8215.69 0 -2.06047e+06 9242.9 0 -2.06053e+06 10270.2 0 -2.06061e+06 11297.6 0 -2.06069e+06 12325.1 0 -2.06078e+06 13352.7 0 -2.06087e+06 14380.4 0 -2.06097e+06 15408.2 0 -2.06108e+06 16436.2 0 -2.0612e+06 17464.3 0 -2.06132e+06 18492.6 0 -2.06145e+06 19521.1 0 -2.06159e+06 20549.7 0 -2.06174e+06 21578.5 0 -2.06189e+06 22607.5 0 -2.06205e+06 23636.7 0 -2.06221e+06 24666.2 0 -2.06239e+06 25695.8 0 -2.06257e+06 26725.6 0 -2.06275e+06 27755.7 0 -2.06295e+06 28786.1 0 -2.06315e+06 29816.7 0 -2.06336e+06 30847.5 0 -2.06357e+06 31878.6 0 -2.06379e+06 32910 0 -2.06402e+06 33941.7 0 -2.06426e+06 34973.7 0 -2.0645e+06 36005.9 0 -2.06475e+06 37038.5 0 -2.06501e+06 38071.3 0 -2.06528e+06 39104.5 0 -2.06555e+06 40138 0 -2.06583e+06 41171.8 0 -2.06611e+06 42206 0 -2.06641e+06 43240.6 0 -2.06671e+06 44275.5 0 -2.06701e+06 45310.8 0 -2.06733e+06 46346.6 0 -2.06765e+06 47382.8 0 -2.06798e+06 48419.4 0 -2.06831e+06 49456.5 0 -2.06866e+06 50494.1 0 -2.06901e+06 51532.2 0 -2.06937e+06 52570.8 0 -2.06973e+06 53609.9 0 -2.0701e+06 54649.4 0 -2.07048e+06 55689.4 0 -2.07087e+06 56730 0 -2.07126e+06 57771 0 -2.07166e+06 58812.4 0 -2.07206e+06 59854.4 0 -2.07248e+06 60896.9 0 -2.0729e+06 61939.9 0 -2.07333e+06 62983.5 0 -2.07376e+06 64027.6 0 -2.07421e+06 65072.2 0 -2.05952e+06 0 0 -2.05952e+06 1052.54 0 -2.05953e+06 2105.1 0 -2.05955e+06 3157.67 0 -2.05958e+06 4210.28 0 -2.05961e+06 5262.93 0 -2.05965e+06 6315.64 0 -2.0597e+06 7368.4 0 -2.05975e+06 8421.23 0 -2.05981e+06 9474.15 0 -2.05988e+06 10527.2 0 -2.05996e+06 11580.3 0 -2.06005e+06 12633.5 0 -2.06014e+06 13686.8 0 -2.06024e+06 14740.3 0 -2.06034e+06 15793.9 0 -2.06046e+06 16847.6 0 -2.06058e+06 17901.5 0 -2.06071e+06 18955.6 0 -2.06084e+06 20009.8 0 -2.06098e+06 21064.2 0 -2.06114e+06 22118.9 0 -2.06129e+06 23173.7 0 -2.06146e+06 24228.7 0 -2.06163e+06 25284 0 -2.06181e+06 26339.5 0 -2.062e+06 27395.3 0 -2.06219e+06 28451.2 0 -2.06239e+06 29507.5 0 -2.0626e+06 30564 0 -2.06282e+06 31620.8 0 -2.06304e+06 32677.9 0 -2.06328e+06 33735.2 0 -2.06351e+06 34792.9 0 -2.06376e+06 35850.9 0 -2.06401e+06 36909.2 0 -2.06427e+06 37967.8 0 -2.06454e+06 39026.7 0 -2.06482e+06 40086 0 -2.0651e+06 41145.6 0 -2.06539e+06 42205.6 0 -2.06569e+06 43266 0 -2.06599e+06 44326.8 0 -2.06631e+06 45388 0 -2.06663e+06 46449.6 0 -2.06695e+06 47511.7 0 -2.06729e+06 48574.2 0 -2.06763e+06 49637.2 0 -2.06798e+06 50700.7 0 -2.06834e+06 51764.8 0 -2.0687e+06 52829.3 0 -2.06907e+06 53894.4 0 -2.06945e+06 54959.9 0 -2.06984e+06 56026 0 -2.07023e+06 57092.5 0 -2.07063e+06 58159.6 0 -2.07104e+06 59227.2 0 -2.07146e+06 60295.3 0 -2.07188e+06 61364 0 -2.07231e+06 62433.2 0 -2.07275e+06 63502.9 0 -2.0732e+06 64573.3 0 -2.07365e+06 65644.2 0 -2.07411e+06 66715.7 0 -2.05885e+06 0 0 -2.05885e+06 1078.41 0 -2.05886e+06 2156.83 0 -2.05888e+06 3235.28 0 -2.05891e+06 4313.76 0 -2.05894e+06 5392.29 0 -2.05899e+06 6470.87 0 -2.05904e+06 7549.51 0 -2.05909e+06 8628.23 0 -2.05916e+06 9707.04 0 -2.05923e+06 10785.9 0 -2.05931e+06 11865 0 -2.0594e+06 12944.1 0 -2.05949e+06 14023.3 0 -2.0596e+06 15102.7 0 -2.05971e+06 16182.2 0 -2.05983e+06 17261.9 0 -2.05995e+06 18341.8 0 -2.06009e+06 19421.8 0 -2.06023e+06 20502 0 -2.06038e+06 21582.5 0 -2.06053e+06 22663.1 0 -2.0607e+06 23743.9 0 -2.06087e+06 24825 0 -2.06105e+06 25906.3 0 -2.06123e+06 26987.9 0 -2.06143e+06 28069.7 0 -2.06163e+06 29151.8 0 -2.06184e+06 30234.1 0 -2.06206e+06 31316.7 0 -2.06228e+06 32399.7 0 -2.06252e+06 33482.9 0 -2.06276e+06 34566.4 0 -2.06301e+06 35650.3 0 -2.06326e+06 36734.5 0 -2.06352e+06 37819 0 -2.0638e+06 38903.9 0 -2.06407e+06 39989.1 0 -2.06436e+06 41074.7 0 -2.06466e+06 42160.7 0 -2.06496e+06 43247 0 -2.06527e+06 44333.8 0 -2.06558e+06 45421 0 -2.06591e+06 46508.7 0 -2.06624e+06 47596.8 0 -2.06658e+06 48685.4 0 -2.06693e+06 49774.5 0 -2.06729e+06 50864.1 0 -2.06765e+06 51954.3 0 -2.06802e+06 53044.9 0 -2.0684e+06 54136.1 0 -2.06879e+06 55227.8 0 -2.06918e+06 56320.1 0 -2.06958e+06 57412.9 0 -2.06999e+06 58506.2 0 -2.07041e+06 59600 0 -2.07083e+06 60694.5 0 -2.07127e+06 61789.4 0 -2.07171e+06 62885 0 -2.07216e+06 63981.1 0 -2.07261e+06 65077.9 0 -2.07307e+06 66175.2 0 -2.07355e+06 67273.2 0 -2.07403e+06 68371.9 0 -2.05818e+06 0 0 -2.05818e+06 1104.46 0 -2.05819e+06 2208.93 0 -2.05821e+06 3313.43 0 -2.05824e+06 4417.97 0 -2.05828e+06 5522.55 0 -2.05832e+06 6627.19 0 -2.05837e+06 7731.91 0 -2.05843e+06 8836.7 0 -2.0585e+06 9941.58 0 -2.05858e+06 11046.6 0 -2.05866e+06 12151.7 0 -2.05875e+06 13256.9 0 -2.05885e+06 14362.2 0 -2.05896e+06 15467.7 0 -2.05907e+06 16573.4 0 -2.05919e+06 17679.2 0 -2.05932e+06 18785.2 0 -2.05946e+06 19891.4 0 -2.05961e+06 20997.8 0 -2.05976e+06 22104.4 0 -2.05993e+06 23211.2 0 -2.0601e+06 24318.2 0 -2.06028e+06 25425.5 0 -2.06046e+06 26533 0 -2.06066e+06 27640.8 0 -2.06086e+06 28748.9 0 -2.06107e+06 29857.3 0 -2.06129e+06 30965.9 0 -2.06151e+06 32074.9 0 -2.06175e+06 33184.1 0 -2.06199e+06 34293.7 0 -2.06224e+06 35403.6 0 -2.0625e+06 36513.9 0 -2.06276e+06 37624.5 0 -2.06304e+06 38735.4 0 -2.06332e+06 39846.8 0 -2.06361e+06 40958.5 0 -2.06391e+06 42070.6 0 -2.06421e+06 43183.1 0 -2.06453e+06 44296.1 0 -2.06485e+06 45409.5 0 -2.06518e+06 46523.3 0 -2.06551e+06 47637.6 0 -2.06586e+06 48752.5 0 -2.06621e+06 49867.8 0 -2.06658e+06 50983.7 0 -2.06694e+06 52100.1 0 -2.06732e+06 53217.1 0 -2.06771e+06 54334.6 0 -2.0681e+06 55452.6 0 -2.0685e+06 56571.2 0 -2.06891e+06 57690.4 0 -2.06933e+06 58810.1 0 -2.06976e+06 59930.4 0 -2.07019e+06 61051.3 0 -2.07063e+06 62172.7 0 -2.07108e+06 63294.8 0 -2.07154e+06 64417.5 0 -2.072e+06 65540.8 0 -2.07248e+06 66664.8 0 -2.07296e+06 67789.4 0 -2.07345e+06 68914.7 0 -2.07395e+06 70040.7 0 -2.05751e+06 0 0 -2.05751e+06 1130.69 0 -2.05752e+06 2261.4 0 -2.05754e+06 3392.13 0 -2.05757e+06 4522.91 0 -2.05761e+06 5653.73 0 -2.05765e+06 6784.61 0 -2.05771e+06 7915.57 0 -2.05777e+06 9046.61 0 -2.05784e+06 10177.8 0 -2.05792e+06 11309 0 -2.058e+06 12440.4 0 -2.0581e+06 13571.9 0 -2.0582e+06 14703.5 0 -2.05831e+06 15835.3 0 -2.05843e+06 16967.3 0 -2.05856e+06 18099.4 0 -2.0587e+06 19231.7 0 -2.05884e+06 20364.2 0 -2.05899e+06 21497 0 -2.05915e+06 22629.9 0 -2.05932e+06 23763.1 0 -2.0595e+06 24896.6 0 -2.05968e+06 26030.2 0 -2.05988e+06 27164.2 0 -2.06008e+06 28298.4 0 -2.06029e+06 29433 0 -2.06051e+06 30567.8 0 -2.06073e+06 31702.9 0 -2.06097e+06 32838.4 0 -2.06121e+06 33974.2 0 -2.06146e+06 35110.3 0 -2.06172e+06 36246.8 0 -2.06199e+06 37383.6 0 -2.06226e+06 38520.9 0 -2.06255e+06 39658.4 0 -2.06284e+06 40796.4 0 -2.06314e+06 41934.9 0 -2.06345e+06 43073.7 0 -2.06377e+06 44213 0 -2.06409e+06 45352.7 0 -2.06443e+06 46492.9 0 -2.06477e+06 47633.6 0 -2.06512e+06 48774.8 0 -2.06548e+06 49916.6 0 -2.06585e+06 51058.9 0 -2.06622e+06 52201.7 0 -2.06661e+06 53345.1 0 -2.067e+06 54489.1 0 -2.0674e+06 55633.6 0 -2.06781e+06 56778.8 0 -2.06822e+06 57924.5 0 -2.06865e+06 59070.8 0 -2.06908e+06 60217.7 0 -2.06952e+06 61365.2 0 -2.06997e+06 62513.3 0 -2.07043e+06 63662 0 -2.0709e+06 64811.5 0 -2.07138e+06 65961.5 0 -2.07186e+06 67112.3 0 -2.07235e+06 68263.7 0 -2.07285e+06 69415.8 0 -2.07336e+06 70568.7 0 -2.07388e+06 71722.3 0 -2.05683e+06 0 0 -2.05683e+06 1157.11 0 -2.05685e+06 2314.23 0 -2.05687e+06 3471.38 0 -2.0569e+06 4628.57 0 -2.05694e+06 5785.81 0 -2.05698e+06 6943.12 0 -2.05704e+06 8100.51 0 -2.0571e+06 9257.99 0 -2.05718e+06 10415.6 0 -2.05726e+06 11573.3 0 -2.05735e+06 12731.1 0 -2.05744e+06 13889 0 -2.05755e+06 15047.2 0 -2.05767e+06 16205.4 0 -2.05779e+06 17363.9 0 -2.05792e+06 18522.5 0 -2.05806e+06 19681.3 0 -2.05821e+06 20840.4 0 -2.05837e+06 21999.7 0 -2.05854e+06 23159.2 0 -2.05871e+06 24318.9 0 -2.0589e+06 25478.9 0 -2.05909e+06 26639.2 0 -2.05929e+06 27799.8 0 -2.0595e+06 28960.7 0 -2.05972e+06 30121.8 0 -2.05994e+06 31283.3 0 -2.06018e+06 32445.2 0 -2.06042e+06 33607.3 0 -2.06067e+06 34769.8 0 -2.06093e+06 35932.7 0 -2.0612e+06 37095.9 0 -2.06148e+06 38259.6 0 -2.06177e+06 39423.6 0 -2.06206e+06 40588 0 -2.06236e+06 41752.9 0 -2.06268e+06 42918.2 0 -2.063e+06 44084 0 -2.06333e+06 45250.2 0 -2.06366e+06 46417 0 -2.06401e+06 47584.2 0 -2.06437e+06 48752 0 -2.06473e+06 49920.3 0 -2.0651e+06 51089.1 0 -2.06548e+06 52258.6 0 -2.06587e+06 53428.6 0 -2.06627e+06 54599.2 0 -2.06668e+06 55770.4 0 -2.06709e+06 56942.2 0 -2.06752e+06 58114.6 0 -2.06795e+06 59287.6 0 -2.06839e+06 60461.3 0 -2.06884e+06 61635.6 0 -2.0693e+06 62810.5 0 -2.06977e+06 63986.1 0 -2.07024e+06 65162.4 0 -2.07073e+06 66339.4 0 -2.07122e+06 67517.1 0 -2.07172e+06 68695.5 0 -2.07223e+06 69874.6 0 -2.07275e+06 71054.5 0 -2.07328e+06 72235.1 0 -2.07381e+06 73416.6 0 -2.05615e+06 0 0 -2.05616e+06 1183.7 0 -2.05617e+06 2367.42 0 -2.05619e+06 3551.17 0 -2.05622e+06 4734.96 0 -2.05626e+06 5918.81 0 -2.05631e+06 7102.72 0 -2.05637e+06 8286.72 0 -2.05643e+06 9470.82 0 -2.05651e+06 10655 0 -2.05659e+06 11839.3 0 -2.05669e+06 13023.8 0 -2.05679e+06 14208.4 0 -2.0569e+06 15393.2 0 -2.05702e+06 16578.1 0 -2.05715e+06 17763.2 0 -2.05728e+06 18948.6 0 -2.05743e+06 20134.1 0 -2.05758e+06 21319.8 0 -2.05775e+06 22505.8 0 -2.05792e+06 23692.1 0 -2.0581e+06 24878.6 0 -2.05829e+06 26065.4 0 -2.05849e+06 27252.4 0 -2.0587e+06 28439.8 0 -2.05892e+06 29627.5 0 -2.05914e+06 30815.5 0 -2.05938e+06 32003.9 0 -2.05962e+06 33192.6 0 -2.05987e+06 34381.6 0 -2.06013e+06 35571 0 -2.0604e+06 36760.8 0 -2.06068e+06 37951.1 0 -2.06097e+06 39141.7 0 -2.06127e+06 40332.7 0 -2.06157e+06 41524.2 0 -2.06189e+06 42716.2 0 -2.06221e+06 43908.6 0 -2.06254e+06 45101.5 0 -2.06289e+06 46294.9 0 -2.06324e+06 47488.8 0 -2.0636e+06 48683.3 0 -2.06396e+06 49878.3 0 -2.06434e+06 51073.9 0 -2.06473e+06 52270.1 0 -2.06512e+06 53466.9 0 -2.06553e+06 54664.3 0 -2.06594e+06 55862.3 0 -2.06636e+06 57061 0 -2.06679e+06 58260.2 0 -2.06723e+06 59460.1 0 -2.06768e+06 60660.7 0 -2.06814e+06 61862 0 -2.0686e+06 63063.9 0 -2.06908e+06 64266.5 0 -2.06956e+06 65469.8 0 -2.07005e+06 66673.8 0 -2.07056e+06 67878.6 0 -2.07107e+06 69084.1 0 -2.07159e+06 70290.4 0 -2.07212e+06 71497.5 0 -2.07266e+06 72705.4 0 -2.0732e+06 73914.1 0 -2.07376e+06 75123.6 0 -2.05547e+06 0 0 -2.05547e+06 1210.48 0 -2.05549e+06 2420.97 0 -2.05551e+06 3631.5 0 -2.05554e+06 4842.07 0 -2.05558e+06 6052.7 0 -2.05563e+06 7263.41 0 -2.05569e+06 8474.2 0 -2.05576e+06 9685.1 0 -2.05584e+06 10896.1 0 -2.05593e+06 12107.2 0 -2.05602e+06 13318.5 0 -2.05613e+06 14529.9 0 -2.05624e+06 15741.6 0 -2.05637e+06 16953.3 0 -2.0565e+06 18165.3 0 -2.05664e+06 19377.5 0 -2.05679e+06 20589.9 0 -2.05695e+06 21802.6 0 -2.05712e+06 23015.5 0 -2.0573e+06 24228.7 0 -2.05749e+06 25442.1 0 -2.05769e+06 26655.8 0 -2.05789e+06 27869.9 0 -2.05811e+06 29084.3 0 -2.05833e+06 30298.9 0 -2.05857e+06 31514 0 -2.05881e+06 32729.4 0 -2.05906e+06 33945.1 0 -2.05933e+06 35161.3 0 -2.0596e+06 36377.8 0 -2.05988e+06 37594.8 0 -2.06017e+06 38812.2 0 -2.06046e+06 40030 0 -2.06077e+06 41248.2 0 -2.06109e+06 42467 0 -2.06141e+06 43686.2 0 -2.06175e+06 44905.9 0 -2.06209e+06 46126.1 0 -2.06245e+06 47346.9 0 -2.06281e+06 48568.3 0 -2.06318e+06 49790.2 0 -2.06356e+06 51012.7 0 -2.06395e+06 52235.8 0 -2.06435e+06 53459.5 0 -2.06476e+06 54683.8 0 -2.06518e+06 55908.8 0 -2.06561e+06 57134.5 0 -2.06605e+06 58360.8 0 -2.06649e+06 59587.7 0 -2.06695e+06 60815.4 0 -2.06741e+06 62043.7 0 -2.06789e+06 63272.8 0 -2.06837e+06 64502.6 0 -2.06886e+06 65733.1 0 -2.06936e+06 66964.3 0 -2.06987e+06 68196.4 0 -2.07039e+06 69429.2 0 -2.07092e+06 70662.8 0 -2.07146e+06 71897.2 0 -2.07201e+06 73132.4 0 -2.07257e+06 74368.5 0 -2.07313e+06 75605.5 0 -2.07371e+06 76843.4 0 -2.05478e+06 0 0 -2.05479e+06 1237.43 0 -2.0548e+06 2474.89 0 -2.05483e+06 3712.38 0 -2.05486e+06 4949.91 0 -2.0549e+06 6187.51 0 -2.05496e+06 7425.18 0 -2.05502e+06 8662.95 0 -2.05509e+06 9900.83 0 -2.05517e+06 11138.8 0 -2.05526e+06 12377 0 -2.05536e+06 13615.2 0 -2.05547e+06 14853.7 0 -2.05559e+06 16092.3 0 -2.05571e+06 17331.1 0 -2.05585e+06 18570.1 0 -2.056e+06 19809.4 0 -2.05616e+06 21048.9 0 -2.05632e+06 22288.6 0 -2.0565e+06 23528.6 0 -2.05668e+06 24768.9 0 -2.05688e+06 26009.5 0 -2.05708e+06 27250.4 0 -2.0573e+06 28491.6 0 -2.05752e+06 29733.1 0 -2.05775e+06 30975 0 -2.05799e+06 32217.3 0 -2.05824e+06 33459.9 0 -2.05851e+06 34702.9 0 -2.05878e+06 35946.3 0 -2.05906e+06 37190.2 0 -2.05935e+06 38434.5 0 -2.05965e+06 39679.2 0 -2.05995e+06 40924.4 0 -2.06027e+06 42170.1 0 -2.0606e+06 43416.3 0 -2.06094e+06 44663 0 -2.06129e+06 45910.2 0 -2.06164e+06 47158 0 -2.06201e+06 48406.3 0 -2.06238e+06 49655.3 0 -2.06277e+06 50904.8 0 -2.06316e+06 52155 0 -2.06357e+06 53405.8 0 -2.06398e+06 54657.3 0 -2.06441e+06 55909.4 0 -2.06484e+06 57162.2 0 -2.06528e+06 58415.7 0 -2.06573e+06 59669.9 0 -2.0662e+06 60924.7 0 -2.06667e+06 62180.3 0 -2.06715e+06 63436.7 0 -2.06764e+06 64693.8 0 -2.06814e+06 65951.6 0 -2.06865e+06 67210.3 0 -2.06917e+06 68469.7 0 -2.0697e+06 69730 0 -2.07024e+06 70991 0 -2.07079e+06 72253 0 -2.07134e+06 73515.7 0 -2.07191e+06 74779.4 0 -2.07249e+06 76044 0 -2.07308e+06 77309.5 0 -2.07367e+06 78575.9 0 -2.0541e+06 0 0 -2.0541e+06 1264.57 0 -2.05412e+06 2529.16 0 -2.05414e+06 3793.79 0 -2.05417e+06 5058.47 0 -2.05422e+06 6323.22 0 -2.05427e+06 7588.04 0 -2.05434e+06 8852.97 0 -2.05441e+06 10118 0 -2.05449e+06 11383.2 0 -2.05459e+06 12648.5 0 -2.05469e+06 13913.9 0 -2.0548e+06 15179.6 0 -2.05493e+06 16445.4 0 -2.05506e+06 17711.4 0 -2.0552e+06 18977.7 0 -2.05535e+06 20244.2 0 -2.05552e+06 21510.9 0 -2.05569e+06 22777.9 0 -2.05587e+06 24045.2 0 -2.05606e+06 25312.8 0 -2.05626e+06 26580.7 0 -2.05647e+06 27848.9 0 -2.05669e+06 29117.5 0 -2.05693e+06 30386.4 0 -2.05717e+06 31655.6 0 -2.05742e+06 32925.3 0 -2.05768e+06 34195.4 0 -2.05795e+06 35465.9 0 -2.05823e+06 36736.8 0 -2.05852e+06 38008.1 0 -2.05882e+06 39279.9 0 -2.05913e+06 40552.2 0 -2.05945e+06 41825 0 -2.05978e+06 43098.3 0 -2.06012e+06 44372.2 0