<?xml version="1.0"?> 
<VTKFile type="StructuredGrid" version="0.1"> 
<StructuredGrid WholeExtent="0 63 0 63 0 0"> 
<Piece Extent="0 63 0 63 0 0"> 
<PointData>
<DataArray type="Float32" Name="|E|" format="ascii" NumberOfComponents="3"> 
-1.66893e-06 1.01567e+07 0 4.47035e-07 5.42521e+06 0 -3.09199e-07 3.16364e+06 0 -5.96046e-08 2.11e+06 0 6.92904e-07 1.61233e+06 0 -8.49366e-07 1.35019e+06 0 1.19209e-07 1.17834e+06 0 5.51343e-07 1.0382e+06 0 -1.10269e-06 910284 0 9.83477e-07 790620 0 -8.64267e-07 679974 0 5.66244e-07 579638 0 -6.25849e-07 490191 0 3.57628e-07 411455 0 -4.17233e-07 342765 0 5.96046e-08 283246 0 -2.08616e-07 231995 0 8.9407e-08 188155 0 -2.98023e-07 150945 0 5.36442e-07 119653 0 -5.96046e-07 93615.9 0 7.7486e-07 72213.6 0 0 54857.1 0 -2.98023e-07 40989 0 1.19209e-07 30085.8 0 -2.38419e-07 21662.2 0 1.19209e-07 15276.5 0 -1.78814e-07 10533.7 0 1.19209e-07 7088.41 0 -4.17233e-07 4645.26 0 1.19209e-07 2957.65 0 -1.19209e-07 1824.97 0 1.19209e-07 1088.36 0 2.38419e-07 625.72 0 -2.98023e-07 346.079 0 2.38419e-07 184.003 0 -3.57628e-07 94.1805 0 2.38419e-07 46.5779 0 -2.38419e-07 22.2905 0 2.38419e-07 10.1537 0 -3.57628e-07 4.08785 0 3.57628e-07 1.09445 0 -3.57628e-07 -0.186558 0 3.57628e-07 -0.427013 0 -3.57628e-07 -0.121674 0 0 0.268527 0 1.19209e-07 0.409718 0 0 0.232598 0 1.19209e-07 -0.0684633 0 -2.38419e-07 -0.227868 0 2.38419e-07 -0.150363 0 -3.57628e-07 0.0272579 0 7.15256e-07 0.111684 0 -5.96046e-07 0.0569029 0 1.19209e-07 -0.0274835 0 -1.19209e-07 -0.0425911 0 1.19209e-07 -0.00657892 0 -2.38419e-07 0.0157733 0 1.19209e-07 0.00767326 0 -3.57628e-07 -0.00399208 0 0 -0.00254631 0 7.15256e-07 0.000808716 0 -9.53674e-07 0.000190735 0 1.66893e-06 0 0 -3.80818e+06 699972 0 -2.92596e+06 2.7446e+06 0 -2.12662e+06 3.1822e+06 0 -1.50876e+06 2.97059e+06 0 -1.06276e+06 2.57038e+06 0 -757178 2.16684e+06 0 -553737 1.82078e+06 0 -419727 1.53916e+06 0 -330519 1.31127e+06 0 -269213 1.12366e+06 0 -224954 965426 0 -191140 829074 0 -163922 709880 0 -141119 604941 0 -121503 512415 0 -104368 431015 0 -89283.2 359725 0 -75962.4 297661 0 -64199.4 244006 0 -53835 197989 0 -44740.5 158873 0 -36807.6 125954 0 -29941 98555.3 0 -24053.5 76030.8 0 -19061.6 57762.2 0 -14882.8 43163 0 -11434.6 31683 0 -8634.04 22812.3 0 -6398.45 16086.7 0 -4647.11 11091.1 0 -3302.68 7462.2 0 -2292.97 4889.08 0 -1552.31 3111.96 0 -1022.65 1919.43 0 -654.157 1144.06 0 -405.328 657.169 0 -242.684 362.927 0 -140.098 192.416 0 -77.8684 97.9376 0 -41.6808 47.8962 0 -21.5415 22.4256 0 -10.788 9.81012 0 -5.22135 3.66887 0 -2.37819 0.821634 0 -0.937251 -0.237256 0 -0.250548 -0.312907 0 0.000542548 0.0118664 0 0.0156778 0.284214 0 -0.0444405 0.281254 0 -0.0706765 0.0688752 0 -0.0377469 -0.123722 0 0.0111319 -0.1421 0 0.0285071 -0.0327454 0 0.0118249 0.054184 0 -0.00740994 0.046618 0 -0.00864175 -0.00101772 0 -0.000426267 -0.0192591 0 0.00308791 -0.00661721 0 0.00098647 0.00451291 0 -0.000868339 0.00195649 0 -0.000250065 -0.000538237 0 0.000212684 0.000369772 0 -3.9238e-05 -0.00044319 0 1.08993e-05 0.000159174 0 -2.56601e+06 1.3501e+06 0 -2.84495e+06 1.0042e+06 0 -2.82152e+06 1.42747e+06 0 -2.57547e+06 1.87022e+06 0 -2.22361e+06 2.11198e+06 0 -1.84885e+06 2.15189e+06 0 -1.50277e+06 2.05222e+06 0 -1.20875e+06 1.87779e+06 0 -971875 1.67547e+06 0 -787037 1.47312e+06 0 -644943 1.28437e+06 0 -535713 1.11412e+06 0 -450695 962758 0 -383089 828784 0 -327930 710248 0 -281773 605349 0 -242315 512604 0 -208042 430832 0 -177967 359070 0 -151430 296487 0 -127982 242327 0 -107296 195874 0 -89121.5 156429 0 -73254.3 123306 0 -59514.5 95832.6 0 -47734.9 73349.9 0 -37753 55220.3 0 -29405.9 40833.6 0 -22528.4 29614.7 0 -16953.7 21030.4 0 -12515 14595.9 0 -9048.44 9879.79 0 -6397.32 6506.61 0 -4415.09 4157.65 0 -2968.65 2569.36 0 -1940.58 1529.9 0 -1230.37 873.966 0 -754.689 476.74 0 -446.689 247.172 0 -254.529 121.363 0 -139.427 56.3645 0 -73.458 24.7545 0 -37.3351 10.1215 0 -18.3697 3.46612 0 -8.70305 0.422268 0 -3.83165 -0.821839 0 -1.40994 -0.977774 0 -0.313118 -0.510243 0 0.0279206 0.0747076 0 -0.00210098 0.356718 0 -0.101917 0.239125 0 -0.108375 -0.0354252 0 -0.0305972 -0.168581 0 0.0353488 -0.0942523 0 0.0356172 0.0267544 0 0.00195372 0.052066 0 -0.0135814 0.0100863 0 -0.00547897 -0.0137446 0 0.00307312 -0.0053281 0 0.00246457 0.00438987 0 -0.00089416 -0.00155778 0 -0.000453169 -0.00138587 0 0.000359537 0.00269124 0 -0.000272583 -0.00317824 0 -2.73873e+06 842797 0 -2.59866e+06 1.05361e+06 0 -2.59859e+06 991224 0 -2.61047e+06 1.05283e+06 0 -2.55714e+06 1.22931e+06 0 -2.42105e+06 1.42871e+06 0 -2.21688e+06 1.57944e+06 0 -1.9732e+06 1.65061e+06 0 -1.71834e+06 1.64279e+06 0 -1.47394e+06 1.57274e+06 0 -1.25315e+06 1.46171e+06 0 -1.06171e+06 1.32875e+06 0 -900038 1.18814e+06 0 -765406 1.04924e+06 0 -653710 917475 0 -560624 795511 0 -482259 684353 0 -415432 584095 0 -357701 494395 0 -307278 414733 0 -262888 344527 0 -223635 283179 0 -188888 230079 0 -158190 184605 0 -131192 146118 0 -107610 113962 0 -87194.4 87474.2 0 -69707.9 65989 0 -54915.6 48851.6 0 -42577 35429.5 0 -32444.9 25124.2 0 -24266.5 17381.4 0 -17787.7 11700.4 0 -12758.5 7639.4 0 -8939.25 4818.88 0 -6106.83 2922.01 0 -4059.24 1691.93 0 -2619.33 926.967 0 -1636.62 474.18 0 -987.46 221.819 0 -573.717 91.5211 0 -320.217 30.818 0 -171.509 6.44064 0 -88.28 -1.27213 0 -43.8708 -2.79684 0 -21.1311 -2.79512 0 -9.75298 -2.64222 0 -4.07402 -2.29001 0 -1.30317 -1.51485 0 -0.152496 -0.498483 0 0.0814506 0.254965 0 -0.0560486 0.405584 0 -0.163826 0.116855 0 -0.108593 -0.156032 0 0.00874752 -0.1532 0 0.0546677 -0.00534621 0 0.0211835 0.053118 0 -0.0123494 0.0134952 0 -0.0108341 -0.0138422 0 0.00141178 -0.00278005 0 0.00387943 0.0110815 0 -0.00105588 -0.00584644 0 -0.000718735 -0.00479358 0 0.00143492 0.0149264 0 -2.64216e+06 883407 0 -2.674e+06 846178 0 -2.62647e+06 923232 0 -2.57968e+06 938464 0 -2.5484e+06 946538 0 -2.51345e+06 991763 0 -2.45208e+06 1.07721e+06 0 -2.35065e+06 1.17933e+06 0 -2.20813e+06 1.26937e+06 0 -2.033e+06 1.32628e+06 0 -1.83847e+06 1.34073e+06 0 -1.63817e+06 1.31347e+06 0 -1.44342e+06 1.25157e+06 0 -1.26201e+06 1.16477e+06 0 -1.09817e+06 1.06276e+06 0 -953261 953751 0 -826651 843933 0 -716583 737565 0 -620851 637326 0 -537249 544742 0 -463824 460557 0 -398976 385018 0 -341466 318059 0 -290363 259417 0 -244978 208700 0 -204799 165416 0 -169425 129005 0 -138526 98849.5 0 -111798 74295 0 -88949.2 54667.5 0 -69677.4 39291.7 0 -53666.9 27510 0 -40586.7 18699.2 0 -30094.7 12285.7 0 -21844.8 7756.18 0 -15496.4 4665.36 0 -10723.6 2638.68 0 -7224.45 1371.54 0 -4727.62 624.926 0 -2997.52 218.513 0 -1836.29 21.9721 0 -1083.59 -54.4098 0 -614.074 -69.0159 0 -333.435 -57.3219 0 -173.431 -38.9547 0 -86.7243 -23.1739 0 -42.0088 -12.8761 0 -19.7769 -7.4525 0 -8.81498 -4.87443 0 -3.35347 -3.22006 0 -0.776303 -1.58469 0 0.10227 -0.165995 0 0.0778474 0.474693 0 -0.154892 0.301982 0 -0.195739 -0.104752 0 -0.0543728 -0.202886 0 0.0574163 -0.028747 0 0.0441093 0.0607179 0 -0.00525424 0.0100538 0 -0.0150596 -0.0251266 0 -0.00126276 -0.00488907 0 0.00606723 0.0289469 0 -0.00178416 -0.0126957 0 -0.0020501 -0.0191708 0 -2.69616e+06 816400 0 -2.66696e+06 831042 0 -2.66558e+06 814810 0 -2.6465e+06 838134 0 -2.61132e+06 860359 0 -2.57098e+06 872421 0 -2.52893e+06 885936 0 -2.48022e+06 913787 0 -2.41588e+06 958878 0 -2.32828e+06 1.01389e+06 0 -2.21423e+06 1.06633e+06 0 -2.07559e+06 1.10394e+06 0 -1.91812e+06 1.1183e+06 0 -1.74962e+06 1.10595e+06 0 -1.57806e+06 1.06793e+06 0 -1.41026e+06 1.0083e+06 0 -1.25123e+06 932650 0 -1.10405e+06 846833 0 -970066 756119 0 -849376 664808 0 -741269 576138 0 -644630 492373 0 -558235 414979 0 -480933 344812 0 -411741 282273 0 -349866 227436 0 -294688 180133 0 -245723 140017 0 -202576 106606 0 -164902 79315.6 0 -132372 57494.9 0 -104647 40451.4 0 -81363 27481.5 0 -62128.7 17896.9 0 -46524.9 11047.5 0 -34114.1 6341.49 0 -24452 3258.52 0 -17101.8 1357.85 0 -11648.1 280.428 0 -7708.9 -254.245 0 -4945.1 -455.289 0 -3066.05 -470.48 0 -1831.61 -397.755 0 -1050.64 -296.959 0 -576.829 -200.733 0 -302.546 -123.724 0 -151.849 -69.6493 0 -73.5031 -36.212 0 -34.7261 -18.2696 0 -15.9701 -9.91371 0 -6.71783 -6.00799 0 -2.08549 -3.33877 0 -0.0998882 -1.02465 0 0.259567 0.362612 0 -0.0471637 0.481511 0 -0.255863 -0.0396801 0 -0.145397 -0.264657 0 0.0389923 -0.0362129 0 0.0655722 0.0943995 0 0.00586668 0.00901788 0 -0.0183145 -0.0510654 0 -0.00584179 -0.0241801 0 0.0108774 0.0682352 0 -0.0660019 -0.558754 0 -2.72502e+06 831688 0 -2.71925e+06 817545 0 -2.69967e+06 814939 0 -2.68608e+06 800833 0 -2.67081e+06 798014 0 -2.64715e+06 803875 0 -2.61465e+06 810928 0 -2.57544e+06 816790 0 -2.53046e+06 824857 0 -2.47776e+06 839676 0 -2.41326e+06 862863 0 -2.33268e+06 891748 0 -2.23333e+06 920398 0 -2.11501e+06 941762 0 -1.98015e+06 949736 0 -1.83309e+06 940481 0 -1.67912e+06 912834 0 -1.52356e+06 868019 0 -1.37099e+06 808950 0 -1.22491e+06 739441 0 -1.08763e+06 663512 0 -960338 584903 0 -843433 506786 0 -736728 431659 0 -639726 361354 0 -551813 297112 0 -472374 239676 0 -400866 189387 0 -336829 146267 0 -279878 110089 0 -229675 80429.6 0 -185895 56722.7 0 -148199 38301.2 0 -116211 24440.1 0 -89506.6 14395.4 0 -67612.1 7440.85 0 -50012.4 2897.61 0 -36165.2 158.652 0 -25520.3 -1295.69 0 -17538.9 -1890.32 0 -11713.8 -1955.66 0 -7583.95 -1734.42 0 -4746.62 -1392.95 0 -2862.63 -1035.35 0 -1657.51 -718.488 0 -917.858 -466.27 0 -484.501 -282.01 0 -243.636 -157.927 0 -117.405 -81.5707 0 -55.0716 -39.5234 0 -25.5408 -19.3054 0 -11.3998 -10.5269 0 -4.20994 -5.96308 0 -0.687151 -2.4157 0 0.404743 0.0179516 0 0.164454 0.641925 0 -0.258997 0.00666845 0 -0.25204 -0.39528 0 0.00219288 -0.0327305 0 0.084887 0.178931 0 0.0203977 0.0290807 0 -0.0214893 -0.0918441 0 -0.0183777 -0.100574 0 -0.0590413 -0.455919 0 -2.76199e+06 856482 0 -2.75505e+06 841327 0 -2.74921e+06 824700 0 -2.73631e+06 813600 0 -2.7214e+06 798909 0 -2.70549e+06 785781 0 -2.68617e+06 777493 0 -2.66101e+06 773286 0 -2.62906e+06 770909 0 -2.59042e+06 769512 0 -2.54498e+06 770179 0 -2.49161e+06 774651 0 -2.42809e+06 783676 0 -2.35185e+06 796046 0 -2.26089e+06 808644 0 -2.15449e+06 817255 0 -2.0336e+06 817666 0 -1.90065e+06 806624 0 -1.75914e+06 782407 0 -1.61306e+06 744955 0 -1.46629e+06 695652 0 -1.3222e+06 636904 0 -1.18341e+06 571660 0 -1.05175e+06 502986 0 -928320 433742 0 -813645 366383 0 -707866 302862 0 -610884 244616 0 -522492 192597 0 -442447 147322 0 -370507 108940 0 -306437 77298.4 0 -249988 51998.1 0 -200881 32458.6 0 -158776 17972.7 0 -123262 7761.85 0 -93844.4 1028.32 0 -69958.2 -2999.23 0 -50978.8 -5027.79 0 -36247.3 -5672.41 0 -25098.1 -5440.04 0 -16886.6 -4724.55 0 -11013.2 -3811.49 0 -6942.93 -2890.34 0 -4217.24 -2071.52 0 -2458.84 -1405.42 0 -1370.19 -901.231 0 -726.56 -543.672 0 -365.562 -306.094 0 -175.01 -159.389 0 -80.9506 -76.7867 0 -37.2196 -35.643 0 -17.1264 -17.7658 0 -7.10167 -9.78119 0 -1.76011 -4.43696 0 0.417755 -0.559592 0 0.46218 0.844854 0 -0.191705 0.0201483 0 -0.374201 -0.709937 0 -0.0466037 -0.0393838 0 0.109327 0.356924 0 0.0497666 0.148912 0 0.0612698 0.406212 0 0.0983181 0.695708 0 -2.79204e+06 901253 0 -2.79009e+06 881153 0 -2.7855e+06 861859 0 -2.78058e+06 841878 0 -2.77221e+06 824531 0 -2.76036e+06 806955 0 -2.74598e+06 789190 0 -2.72898e+06 772871 0 -2.70825e+06 759118 0 -2.68247e+06 747774 0 -2.65074e+06 738117 0 -2.61258e+06 729817 0 -2.56747e+06 723260 0 -2.51451e+06 719147 0 -2.45224e+06 717772 0 -2.37894e+06 718447 0 -2.29311e+06 719350 0 -2.19397e+06 717824 0 -2.08179e+06 710948 0 -1.95797e+06 696175 0 -1.82489e+06 671823 0 -1.68551e+06 637343 0 -1.54307e+06 593315 0 -1.40062e+06 541267 0 -1.26082e+06 483370 0 -1.12581e+06 422110 0 -997129 359992 0 -875839 299310 0 -762590 242004 0 -657752 189577 0 -561513 143076 0 -473948 103108 0 -395061 69877.8 0 -324788 43248.4 0 -262994 22798.7 0 -209449 7894.12 0 -163813 -2244.61 0 -125628 -8471.82 0 -94316.4 -11652.4 0 -69200 -12605.6 0 -49527.9 -12060.5 0 -34510.7 -10626.7 0 -23359.8 -8780.35 0 -15322.6 -6864.19 0 -9712.45 -5099.72 0 -5929.98 -3606.92 0 -3474.09 -2428.07 0 -1944.07 -1552.4 0 -1033.74 -938.424 0 -519.838 -532.276 0 -247.025 -280.311 0 -112.25 -135.977 0 -50.5225 -61.8692 0 -23.4339 -28.9786 0 -10.5498 -15.2945 0 -3.32528 -7.25004 0 0.230444 -1.32948 0 0.836898 1.3037 0 -0.0533944 0.0469166 0 -0.551561 -1.46713 0 -0.115533 -0.151119 0 0.227516 1.1011 0 -0.261147 -1.71607 0 0.115323 0.751141 0 -2.81559e+06 956828 0 -2.81697e+06 934685 0 -2.81703e+06 912372 0 -2.81487e+06 890304 0 -2.81151e+06 867706 0 -2.80612e+06 845999 0 -2.79787e+06 824775 0 -2.78668e+06 803539 0 -2.7726e+06 782542 0 -2.75535e+06 762501 0 -2.73422e+06 743937 0 -2.70833e+06 726900 0 -2.67686e+06 711181 0 -2.63916e+06 696675 0 -2.59458e+06 683550 0 -2.54227e+06 672103 0 -2.48112e+06 662422 0 -2.40982e+06 654044 0 -2.3272e+06 645802 0 -2.23249e+06 635925 0 -2.12567e+06 622344 0 -2.00757e+06 603112 0 -1.87982e+06 576784 0 -1.74473e+06 542692 0 -1.60497e+06 501041 0 -1.46329e+06 452851 0 -1.32227e+06 399784 0 -1.18418e+06 343892 0 -1.05086e+06 287374 0 -923747 232342 0 -803920 180657 0 -692154 133808 0 -589010 92855.3 0 -494876 58415 0 -410003 30679 0 -334511 9461.76 0 -268371 -5734.85 0 -211400 -15644.4 0 -163240 -21151.7 0 -123360 -23208.2 0 -91072.5 -22753.9 0 -65562.5 -20651 0 -45930.6 -17635.6 0 -31243.8 -14289.6 0 -20585.8 -11032.8 0 -13100.7 -8132.42 0 -8026.62 -5724.88 0 -4716.32 -3845.34 0 -2645.26 -2459.02 0 -1408.16 -1491.03 0 -707.027 -851.402 0 -333.429 -453.083 0 -148.664 -222.07 0 -64.9447 -100.57 0 -29.8226 -45.387 0 -14.2817 -23.1707 0 -5.31921 -11.1452 0 -0.175929 -2.23909 0 1.35847 2.58424 0 0.16518 0.254953 0 -0.943675 -3.43231 0 -9.45391 -47.862 0 -0.321303 -1.78877 0 -0.3328 -2.00276 0 -2.83165e+06 1.01953e+06 0 -2.83603e+06 996306 0 -2.83927e+06 972724 0 -2.84135e+06 948788 0 -2.84166e+06 924727 0 -2.8404e+06 900182 0 -2.83746e+06 875623 0 -2.83232e+06 851246 0 -2.82457e+06 826914 0 -2.81396e+06 802542 0 -2.8003e+06 778332 0 -2.78324e+06 754659 0 -2.76219e+06 731822 0 -2.73646e+06 709931 0 -2.70531e+06 688963 0 -2.66805e+06 668918 0 -2.62396e+06 649897 0 -2.57222e+06 632041 0 -2.51188e+06 615355 0 -2.44184e+06 599501 0 -2.3611e+06 583679 0 -2.26895e+06 566652 0 -2.1652e+06 546922 0 -2.05034e+06 523010 0 -1.92558e+06 493748 0 -1.79273e+06 458519 0 -1.65407e+06 417393 0 -1.51208e+06 371132 0 -1.36925e+06 321090 0 -1.22792e+06 269034 0 -1.09012e+06 216931 0 -957611 166734 0 -831803 120202 0 -713841 78762.5 0 -604628 43425.1 0 -504853 14745.4 0 -415005 -7169.56 0 -335371 -22618.9 0 -266015 -32236.7 0 -206769 -36901.7 0 -157223 -37635.6 0 -116739 -35501.4 0 -84478.7 -31511.1 0 -59458.8 -26552.6 0 -40610.8 -21341.3 0 -26849.4 -16398.5 0 -17134.1 -12055.6 0 -10519.5 -8476.71 0 -6189.42 -5693.37 0 -3473.43 -3644.62 0 -1848.1 -2215.61 0 -925.518 -1271.36 0 -433.2 -681.987 0 -189.629 -337.475 0 -80.0357 -152.975 0 -35.8967 -67.6674 0 -18.12 -34.1892 0 -7.69219 -16.6148 0 -0.767425 -3.20776 0 2.40745 6.51366 0 0.727629 1.96313 0 1.55209 8.35107 0 0.630877 3.96705 0 -0.614382 -3.42722 0 -2.84025e+06 1.08615e+06 0 -2.84722e+06 1.06267e+06 0 -2.8533e+06 1.03864e+06 0 -2.85835e+06 1.0141e+06 0 -2.86237e+06 989031 0 -2.86498e+06 963566 0 -2.86605e+06 937574 0 -2.86551e+06 911153 0 -2.86313e+06 884484 0 -2.85854e+06 857631 0 -2.85139e+06 830568 0 -2.8414e+06 803320 0 -2.82826e+06 776035 0 -2.81158e+06 748939 0 -2.79084e+06 722235 0 -2.7654e+06 696037 0 -2.73457e+06 670396 0 -2.69765e+06 645360 0 -2.6539e+06 621013 0 -2.60252e+06 597437 0 -2.54259e+06 574614 0 -2.47315e+06 552292 0 -2.39327e+06 529898 0 -2.30227e+06 506541 0 -2.19988e+06 481120 0 -2.08639e+06 452517 0 -1.96272e+06 419828 0 -1.83037e+06 382567 0 -1.69133e+06 340805 0 -1.5479e+06 295207 0 -1.4025e+06 246972 0 -1.25751e+06 197701 0 -1.11515e+06 149207 0 -977421 103317 0 -846054 61687 0 -722527 25647.5 0 -608058 -3896.49 0 -503617 -26517.8 0 -409908 -42266.9 0 -327352 -51625.8 0 -256069 -55423.8 0 -195857 -54727.8 0 -146200 -50718.3 0 -106297 -44570 0 -75117 -37347.1 0 -51475.1 -29928.2 0 -34118.1 -22965.1 0 -21809.5 -16876.2 0 -13400.8 -11867.8 0 -7883.94 -7974.56 0 -4419.79 -5108.68 0 -2346.69 -3109.67 0 -1170.76 -1788.91 0 -543.859 -964.101 0 -234.097 -480.278 0 -95.3077 -217.774 0 -41.3964 -95.2668 0 -22.181 -49.3479 0 -10.5657 -24.6132 0 -1.35246 -3.57575 0 8.74929 33.5355 0 -2.02469 -11.2041 0 2.21609 11.1169 0 0.657258 3.40824 0 -2.84186e+06 1.15424e+06 0 -2.85096e+06 1.1311e+06 0 -2.85941e+06 1.10729e+06 0 -2.86711e+06 1.08281e+06 0 -2.87392e+06 1.05769e+06 0 -2.87977e+06 1.0319e+06 0 -2.88448e+06 1.0055e+06 0 -2.88784e+06 978477 0 -2.88969e+06 950815 0 -2.88989e+06 922593 0 -2.88817e+06 893894 0 -2.88424e+06 864755 0 -2.87776e+06 835193 0 -2.8684e+06 805255 0 -2.85582e+06 775053 0 -2.8396e+06 744743 0 -2.81923e+06 714470 0 -2.79409e+06 684345 0 -2.76352e+06 654446 0 -2.72679e+06 624842 0 -2.68317e+06 595614 0 -2.63182e+06 566830 0 -2.57185e+06 538472 0 -2.50235e+06 510357 0 -2.42244e+06 482069 0 -2.33144e+06 452955 0 -2.22902e+06 422202 0 -2.11534e+06 388982 0 -1.99115e+06 352635 0 -1.85776e+06 312841 0 -1.71697e+06 269754 0 -1.57096e+06 224048 0 -1.42214e+06 176880 0 -1.27295e+06 129778 0 -1.1258e+06 84469.4 0 -982925 42686.3 0 -846365 5976.46 0 -717906 -24458.6 0 -599067 -47876.9 0 -491064 -64052.4 0 -394778 -73270.7 0 -310716 -76268.2 0 -238984 -74125.3 0 -179276 -68128.2 0 -130897 -59621 0 -92819.5 -49866.7 0 -63770.2 -39937.8 0 -42337.6 -30648 0 -27081.9 -22529 0 -16634.2 -15846.9 0 -9771.72 -10648.3 0 -5463.82 -6819.26 0 -2890.06 -4148.75 0 -1434.22 -2385.89 0 -660.784 -1286.67 0 -280.099 -642.557 0 -109.895 -289.75 0 -46.0212 -125.49 0 -27.3389 -71.2299 0 -14.1877 -36.0705 0 -12.9542 -48.0574 0 -8.52743 -39.735 0 -0.0498192 -2.18624 0 2.90737 14.0494 0 -2.83712e+06 1.22204e+06 0 -2.84798e+06 1.19962e+06 0 -2.85837e+06 1.17647e+06 0 -2.86822e+06 1.15258e+06 0 -2.87743e+06 1.12794e+06 0 -2.88588e+06 1.10253e+06 0 -2.89348e+06 1.07635e+06 0 -2.90011e+06 1.04941e+06 0 -2.90559e+06 1.02171e+06 0 -2.90973e+06 993236 0 -2.91238e+06 964000 0 -2.91333e+06 934044 0 -2.91234e+06 903410 0 -2.9091e+06 872125 0 -2.90328e+06 840213 0 -2.89455e+06 807724 0 -2.88252e+06 774743 0 -2.86675e+06 741384 0 -2.84671e+06 707761 0 -2.82179e+06 673974 0 -2.79133e+06 640109 0 -2.75459e+06 606247 0 -2.71078e+06 572471 0 -2.65908e+06 538849 0 -2.59858e+06 505378 0 -2.52836e+06 471933 0 -2.44756e+06 438215 0 -2.35549e+06 403750 0 -2.25179e+06 367950 0 -2.13654e+06 330228 0 -2.01038e+06 290150 0 -1.8745e+06 247587 0 -1.73064e+06 202830 0 -1.58092e+06 156637 0 -1.4278e+06 110207 0 -1.27383e+06 65065.4 0 -1.12163e+06 22901.5 0 -973692 -14628.7 0 -832357 -46100.4 0 -699718 -70488.6 0 -577567 -87285.4 0 -467328 -96550 0 -369994 -98887.1 0 -286079 -95357.7 0 -215580 -87336.4 0 -157991 -76338.8 0 -112347 -63845.9 0 -77327.8 -51154.1 0 -51377.9 -39271.8 0 -32852.3 -28871.9 0 -20146.1 -20300.4 0 -11800.2 -13625.3 0 -6569.73 -8708.32 0 -3455.27 -5282.64 0 -1702.1 -3026.47 0 -776.292 -1624.78 0 -324.101 -808.822 0 -121.732 -357.525 0 -49.1735 -152.957 0 -35.3685 -104.516 0 -97.1732 -350.856 0 -1.12128 2.00307 0 -8.07055 -36.4973 0 0.430028 1.94067 0 -2.82679e+06 1.28827e+06 0 -2.83906e+06 1.26685e+06 0 -2.85103e+06 1.24466e+06 0 -2.86262e+06 1.22168e+06 0 -2.87375e+06 1.1979e+06 0 -2.88436e+06 1.17329e+06 0 -2.89434e+06 1.14784e+06 0 -2.90358e+06 1.12152e+06 0 -2.91198e+06 1.09434e+06 0 -2.91939e+06 1.06628e+06 0 -2.92566e+06 1.03732e+06 0 -2.9306e+06 1.00746e+06 0 -2.93404e+06 976701 0 -2.93575e+06 945062 0 -2.93547e+06 912562 0 -2.93292e+06 879218 0 -2.92774e+06 845052 0 -2.91958e+06 810105 0 -2.90804e+06 774443 0 -2.89263e+06 738152 0 -2.87281e+06 701323 0 -2.84797e+06 664048 0 -2.8174e+06 626412 0 -2.78035e+06 588504 0 -2.73601e+06 550411 0 -2.68349e+06 512207 0 -2.62187e+06 473912 0 -2.55022e+06 435452 0 -2.46764e+06 396625 0 -2.37345e+06 357103 0 -2.26725e+06 316486 0 -2.14909e+06 274402 0 -2.01956e+06 230638 0 -1.87982e+06 185274 0 -1.73158e+06 138782 0 -1.57705e+06 92065.6 0 -1.41875e+06 46421.8 0 -1.25945e+06 3425.74 0 -1.102e+06 -35244 0 -949196 -68013.4 0 -803685 -93620.1 0 -667859 -111287 0 -543744 -120831 0 -432906 -122697 0 -336359 -117896 0 -254503 -107872 0 -187103 -94310.7 0 -133331 -78927.3 0 -91862 -63271 0 -61020.8 -48577.4 0 -38957.8 -35689.8 0 -23818.8 -25053.7 0 -13887.8 -16768.1 0 -7683.7 -10671 0 -4008.59 -6434.51 0 -1954.25 -3655.96 0 -878.492 -1939.45 0 -359.936 -953.91 0 -125.61 -398.295 0 -48.3677 -165.084 0 -106.584 -364.896 0 36.3929 158.735 0 -6.67016 -21.359 0 -9.20923 -38.8855 0 -2.81164e+06 1.35207e+06 0 -2.82504e+06 1.3318e+06 0 -2.83825e+06 1.31076e+06 0 -2.85123e+06 1.28891e+06 0 -2.86391e+06 1.26623e+06 0 -2.87623e+06 1.2427e+06 0 -2.88813e+06 1.21829e+06 0 -2.8995e+06 1.19297e+06 0 -2.91025e+06 1.16672e+06 0 -2.92028e+06 1.13952e+06 0 -2.92948e+06 1.11134e+06 0 -2.93768e+06 1.08217e+06 0 -2.94474e+06 1.05198e+06 0 -2.95047e+06 1.02076e+06 0 -2.95467e+06 988505 0 -2.95711e+06 955207 0 -2.95753e+06 920875 0 -2.95561e+06 885515 0 -2.95101e+06 849141 0 -2.94333e+06 811783 0 -2.93215e+06 773490 0 -2.91697e+06 734328 0 -2.8972e+06 694374 0 -2.87221e+06 653707 0 -2.84125e+06 612412 0 -2.80353e+06 570582 0 -2.7582e+06 528312 0 -2.70431e+06 485686 0 -2.64091e+06 442751 0 -2.56701e+06 399482 0 -2.48171e+06 355764 0 -2.38428e+06 311401 0 -2.27433e+06 266165 0 -2.15189e+06 219891 0 -2.01758e+06 172593 0 -1.87258e+06 124585 0 -1.71869e+06 76559.2 0 -1.55825e+06 29612 0 -1.39398e+06 -14816.4 0 -1.22891e+06 -55075.1 0 -1.06619e+06 -89498.6 0 -908954 -116633 0 -760185 -135454 0 -622538 -145536 0 -498213 -147143 0 -388809 -141211 0 -295219 -129238 0 -217572 -113076 0 -155246 -94692.3 0 -106963 -75915.3 0 -70953.5 -58239.6 0 -45167.1 -42707 0 -27488 -29880.6 0 -15922.8 -19897.6 0 -8733.17 -12570.8 0 -4505.18 -7504.25 0 -2163.67 -4202.55 0 -949.741 -2175.13 0 -376.785 -1038.49 0 -101.502 -341.006 0 -50.1676 -181.461 0 80.4473 304.816 0 31.0792 130.974 0 -12.2295 -48.3941 0 -2.79242e+06 1.41285e+06 0 -2.80669e+06 1.39382e+06 0 -2.82087e+06 1.37403e+06 0 -2.83494e+06 1.35344e+06 0 -2.84884e+06 1.33202e+06 0 -2.86253e+06 1.30974e+06 0 -2.87593e+06 1.28657e+06 0 -2.88899e+06 1.26248e+06 0 -2.90164e+06 1.23743e+06 0 -2.91378e+06 1.2114e+06 0 -2.92531e+06 1.18435e+06 0 -2.93613e+06 1.15625e+06 0 -2.9461e+06 1.12708e+06 0 -2.95509e+06 1.09679e+06 0 -2.96292e+06 1.06537e+06 0 -2.96941e+06 1.03278e+06 0 -2.97434e+06 999010 0 -2.97747e+06 964048 0 -2.97851e+06 927881 0 -2.97716e+06 890504 0 -2.97303e+06 851922 0 -2.96571e+06 812152 0 -2.95475e+06 771229 0 -2.93959e+06 729203 0 -2.91964e+06 686137 0 -2.89419e+06 642103 0 -2.86248e+06 597186 0 -2.82364e+06 551480 0 -2.77677e+06 505090 0 -2.72086e+06 458117 0 -2.65488e+06 410638 0 -2.57781e+06 362681 0 -2.4887e+06 314220 0 -2.38681e+06 265185 0 -2.27175e+06 215523 0 -2.14359e+06 165284 0 -2.00302e+06 114731 0 -1.85134e+06 64441.2 0 -1.69054e+06 15370.4 0 -1.52317e+06 -31156.3 0 -1.35227e+06 -73530.1 0 -1.1812e+06 -110028 0 -1.01351e+06 -139039 0 -852701 -159315 0 -702071 -170194 0 -564492 -171747 0 -442217 -164821 0 -336716 -150953 0 -248565 -132168 0 -177420 -110697 0 -122102 -88677.1 0 -80773.6 -67892.6 0 -51185.4 -49609.2 0 -30947 -34522.1 0 -17767.2 -22809.2 0 -9630.37 -14252.4 0 -4891.54 -8378.37 0 -2297.71 -4583.17 0 -965.52 -2259.06 0 -343.204 -961.26 0 42.5228 115.383 0 -57.0493 -201.553 0 118.603 433.44 0 6.32052 23.4732 0 -2.76982e+06 1.47023e+06 0 -2.78474e+06 1.4525e+06 0 -2.79967e+06 1.43401e+06 0 -2.81457e+06 1.41474e+06 0 -2.82941e+06 1.39466e+06 0 -2.84416e+06 1.37373e+06 0 -2.85875e+06 1.35192e+06 0 -2.87314e+06 1.32919e+06 0 -2.88727e+06 1.30551e+06 0 -2.90108e+06 1.28084e+06 0 -2.91448e+06 1.25514e+06 0 -2.92738e+06 1.22837e+06 0 -2.93968e+06 1.20049e+06 0 -2.95127e+06 1.17147e+06 0 -2.96202e+06 1.14126e+06 0 -2.97177e+06 1.10983e+06 0 -2.98034e+06 1.07713e+06 0 -2.98754e+06 1.04314e+06 0 -2.99315e+06 1.00783e+06 0 -2.9969e+06 971161 0 -2.99849e+06 933117 0 -2.99759e+06 893680 0 -2.9938e+06 852844 0 -2.98668e+06 810613 0 -2.97573e+06 767008 0 -2.96036e+06 722067 0 -2.93991e+06 675842 0 -2.91364e+06 628398 0 -2.88071e+06 579820 0 -2.8402e+06 530208 0 -2.79112e+06 479681 0 -2.73239e+06 428361 0 -2.6629e+06 376362 0 -2.58157e+06 323775 0 -2.4874e+06 270668 0 -2.37966e+06 217114 0 -2.25799e+06 163249 0 -2.12255e+06 109365 0 -1.97417e+06 56006.4 0 -1.81438e+06 4058.03 0 -1.64544e+06 -45225.4 0 -1.47027e+06 -90262.7 0 -1.29233e+06 -129281 0 -1.11544e+06 -160532 0 -943572 -182562 0 -780640 -194475 0 -630205 -196148 0 -495229 -188331 0 -377829 -172598 0 -279103 -151151 0 -199056 -126508 0 -136652 -101144 0 -90005.6 -77161.6 0 -56669.1 -56073.5 0 -33960.5 -38715 0 -19268.8 -25300 0 -10282.1 -15566.2 0 -5112.68 -8949.33 0 -2323.97 -4721.31 0 -894.139 -2103.5 0 -62.7022 -115.993 0 -624.107 -2026.58 0 169.603 563.787 0 92.7511 323.67 0 -2.74446e+06 1.524e+06 0 -2.75986e+06 1.50758e+06 0 -2.77533e+06 1.49042e+06 0 -2.79086e+06 1.4725e+06 0 -2.80641e+06 1.45379e+06 0 -2.82196e+06 1.43426e+06 0 -2.83746e+06 1.41387e+06 0 -2.85288e+06 1.39257e+06 0 -2.86817e+06 1.37034e+06 0 -2.88328e+06 1.34713e+06 0 -2.89814e+06 1.3229e+06 0 -2.91269e+06 1.29761e+06 0 -2.92684e+06 1.27121e+06 0 -2.9405e+06 1.24366e+06 0 -2.95356e+06 1.21491e+06 0 -2.96591e+06 1.18492e+06 0 -2.9774e+06 1.15363e+06 0 -2.98788e+06 1.12099e+06 0 -2.99715e+06 1.08697e+06 0 -3.00502e+06 1.05151e+06 0 -3.01123e+06 1.01458e+06 0 -3.01552e+06 976127 0 -3.01756e+06 936124 0 -3.01698e+06 894539 0 -3.01336e+06 851355 0 -3.00623e+06 806562 0 -2.99502e+06 760171 0 -2.97912e+06 712205 0 -2.9578e+06 662708 0 -2.93024e+06 611742 0 -2.89553e+06 559395 0 -2.85267e+06 505777 0 -2.80057e+06 451023 0 -2.73805e+06 395288 0 -2.66393e+06 338734 0 -2.57704e+06 281529 0 -2.47636e+06 223858 0 -2.36118e+06 165960 0 -2.23121e+06 108197 0 -2.08677e+06 51145 0 -1.92896e+06 -4319.15 0 -1.75963e+06 -56957.9 0 -1.58148e+06 -105184 0 -1.39794e+06 -147162 0 -1.213e+06 -181007 0 -1.03105e+06 -205062 0 -856553 -218206 0 -693770 -220122 0 -546407 -211460 0 -417291 -193837 0 -308110 -169651 0 -219269 -141735 0 -149916 -112933 0 -98129.6 -85699 0 -61251.9 -61805.8 0 -36287.6 -42230.1 0 -20281.6 -27206.1 0 -10607.3 -16405.6 0 -5124.44 -9144.15 0 -2238.37 -4625.68 0 -615.772 -1369 0 548.185 1700.53 0 -101.801 -341.555 0 242.069 794.584 0 -2.71689e+06 1.5741e+06 0 -2.73261e+06 1.55896e+06 0 -2.74847e+06 1.54312e+06 0 -2.76445e+06 1.52655e+06 0 -2.78051e+06 1.50922e+06 0 -2.79666e+06 1.49109e+06 0 -2.81284e+06 1.47213e+06 0 -2.82904e+06 1.45229e+06 0 -2.84521e+06 1.43155e+06 0 -2.86132e+06 1.40985e+06 0 -2.87732e+06 1.38716e+06 0 -2.89315e+06 1.36342e+06 0 -2.90874e+06 1.3386e+06 0 -2.92403e+06 1.31264e+06 0 -2.93893e+06 1.28549e+06 0 -2.95334e+06 1.2571e+06 0 -2.96715e+06 1.22741e+06 0 -2.98024e+06 1.19637e+06 0 -2.99245e+06 1.16392e+06 0 -3.00361e+06 1.13e+06 0 -3.01354e+06 1.09456e+06 0 -3.02201e+06 1.05753e+06 0 -3.02874e+06 1.01887e+06 0 -3.03346e+06 978523 0 -3.03581e+06 936436 0 -3.03538e+06 892571 0 -3.03173e+06 846893 0 -3.02432e+06 799385 0 -3.01256e+06 750041 0 -2.99573e+06 698877 0 -2.97306e+06 645930 0 -2.94363e+06 591262 0 -2.90645e+06 534966 0 -2.86039e+06 477168 0 -2.80427e+06 418032 0 -2.73679e+06 357755 0 -2.65667e+06 296569 0 -2.56267e+06 234742 0 -2.45377e+06 172611 0 -2.3293e+06 110626 0 -2.18914e+06 49428.7 0 -2.03388e+06 -10057.4 0 -1.86498e+06 -66561.3 0 -1.68482e+06 -118447 0 -1.4967e+06 -163788 0 -1.30471e+06 -200547 0 -1.11354e+06 -226860 0 -928191 -241374 0 -753616 -243581 0 -594286 -234040 0 -453787 -214429 0 -334451 -187370 0 -237130 -156050 0 -161174 -123722 0 -104621 -93217.3 0 -64581.3 -66578.7 0 -37714.6 -44911.9 0 -20694.6 -28447.9 0 -10558.7 -16743.1 0 -4933.1 -9020.97 0 -1988.32 -4163.27 0 -167.856 -187.591 0 -848.719 -2517.9 0 134.535 415.754 0 -2.68757e+06 1.6205e+06 0 -2.70351e+06 1.60662e+06 0 -2.71962e+06 1.59208e+06 0 -2.73589e+06 1.57683e+06 0 -2.75232e+06 1.56085e+06 0 -2.76889e+06 1.54411e+06 0 -2.78556e+06 1.52657e+06 0 -2.80233e+06 1.50819e+06 0 -2.81917e+06 1.48894e+06 0 -2.83603e+06 1.46876e+06 0 -2.85289e+06 1.44762e+06 0 -2.8697e+06 1.42547e+06 0 -2.88641e+06 1.40226e+06 0 -2.90296e+06 1.37795e+06 0 -2.9193e+06 1.35247e+06 0 -2.93533e+06 1.32577e+06 0 -2.95097e+06 1.29779e+06 0 -2.96612e+06 1.26848e+06 0 -2.98067e+06 1.23776e+06 0 -2.99447e+06 1.20558e+06 0 -3.00737e+06 1.17187e+06 0 -3.01918e+06 1.13656e+06 0 -3.0297e+06 1.09957e+06 0 -3.03868e+06 1.06085e+06 0 -3.04584e+06 1.02032e+06 0 -3.05085e+06 977912 0 -3.05334e+06 933572 0 -3.05287e+06 887240 0 -3.04892e+06 838870 0 -3.04092e+06 788432 0 -3.02819e+06 735908 0 -3.00996e+06 681306 0 -2.98535e+06 624659 0 -2.95333e+06 566033 0 -2.9128e+06 505534 0 -2.86251e+06 443315 0 -2.80112e+06 379581 0 -2.72724e+06 314593 0 -2.63946e+06 248680 0 -2.5365e+06 182253 0 -2.41735e+06 115851 0 -2.28149e+06 50203.9 0 -2.12905e+06 -13686 0 -1.96105e+06 -74469 0 -1.77952e+06 -130416 0 -1.58756e+06 -179470 0 -1.38927e+06 -219413 0 -1.1896e+06 -248155 0 -994047 -264105 0 -808230 -266563 0 -637421 -256013 0 -486001 -234224 0 -356989 -204087 0 -251713 -169197 0 -169724 -133262 0 -108994 -99511.3 0 -66358.2 -70257.3 0 -38088.5 -46709.7 0 -20455 -29047.9 0 -10159.3 -16699.5 0 -4584.81 -8721.59 0 -1632.88 -3509.22 0 -51.8075 -7.20686 0 -476.969 -1388.69 0 -2.65693e+06 1.66328e+06 0 -2.67297e+06 1.65062e+06 0 -2.68922e+06 1.63733e+06 0 -2.70568e+06 1.62337e+06 0 -2.72234e+06 1.60871e+06 0 -2.73919e+06 1.59333e+06 0 -2.75621e+06 1.57718e+06 0 -2.77338e+06 1.56023e+06 0 -2.79068e+06 1.54244e+06 0 -2.8081e+06 1.52377e+06 0 -2.8256e+06 1.50417e+06 0 -2.84314e+06 1.4836e+06 0 -2.8607e+06 1.46201e+06 0 -2.87822e+06 1.43934e+06 0 -2.89566e+06 1.41555e+06 0 -2.91295e+06 1.39058e+06 0 -2.93003e+06 1.36436e+06 0 -2.9468e+06 1.33684e+06 0 -2.96319e+06 1.30795e+06 0 -2.97908e+06 1.27761e+06 0 -2.99434e+06 1.24576e+06 0 -3.00882e+06 1.21232e+06 0 -3.02237e+06 1.17721e+06 0 -3.03477e+06 1.14036e+06 0 -3.04581e+06 1.10168e+06 0 -3.05521e+06 1.06108e+06 0 -3.06266e+06 1.01849e+06 0 -3.06781e+06 973829 0 -3.07024e+06 927012 0 -3.06946e+06 877973 0 -3.0649e+06 826651 0 -3.0559e+06 773001 0 -3.04172e+06 716999 0 -3.02148e+06 658643 0 -2.99417e+06 597969 0 -2.95867e+06 535053 0 -2.9137e+06 470025 0 -2.85787e+06 403078 0 -2.789