<?xml version="1.0"?> 
<VTKFile type="StructuredGrid" version="0.1"> 
<StructuredGrid WholeExtent="0 63 0 63 0 0"> 
<Piece Extent="0 63 0 63 0 0"> 
<PointData>
<DataArray type="Float32" Name="|E|" format="ascii" NumberOfComponents="3"> 
1.81769e+06 -752912 0 1.88345e+06 -495253 0 1.86213e+06 -322313 0 1.81935e+06 -191007 0 1.76559e+06 -93080.8 0 1.71093e+06 -19836.7 0 1.65839e+06 35049.2 0 1.60964e+06 76376.8 0 1.565e+06 107630 0 1.52436e+06 131324 0 1.48736e+06 149279 0 1.45358e+06 162821 0 1.42263e+06 172932 0 1.39413e+06 180345 0 1.36775e+06 185616 0 1.34321e+06 189171 0 1.32026e+06 191344 0 1.2987e+06 192395 0 1.27836e+06 192531 0 1.25909e+06 191919 0 1.24077e+06 190692 0 1.2233e+06 188958 0 1.20658e+06 186808 0 1.19055e+06 184312 0 1.17514e+06 181530 0 1.1603e+06 178511 0 1.14599e+06 175294 0 1.13216e+06 171913 0 1.11879e+06 168393 0 1.10585e+06 164756 0 1.09332e+06 161018 0 1.08117e+06 157194 0 1.06939e+06 153294 0 1.05797e+06 149326 0 1.0469e+06 145295 0 1.03617e+06 141206 0 1.02576e+06 137060 0 1.01568e+06 132858 0 1.00593e+06 128601 0 996495 124287 0 987379 119915 0 978582 115482 0 970107 110986 0 961955 106424 0 954130 101794 0 946636 97091 0 939480 92313.9 0 932667 87459.7 0 926204 82526.5 0 920098 77512.7 0 914359 72417.4 0 908995 67240.6 0 904014 61983 0 899426 56646.2 0 895240 51232.8 0 891464 45746.6 0 888109 40192.2 0 885181 34575.4 0 882690 28902.9 0 880640 23182.4 0 879039 17422.4 0 877891 11632.1 0 877199 5821.24 0 876966 0 0 1.84795e+06 -748629 0 1.89988e+06 -488933 0 1.87459e+06 -313229 0 1.82796e+06 -181413 0 1.7717e+06 -83704 0 1.71512e+06 -11041.3 0 1.6612e+06 43150.1 0 1.61144e+06 83784.1 0 1.56606e+06 114396 0 1.52485e+06 137517 0 1.48741e+06 154972 0 1.4533e+06 168083 0 1.42208e+06 177823 0 1.39336e+06 184919 0 1.3668e+06 189918 0 1.34211e+06 193242 0 1.31904e+06 195216 0 1.29737e+06 196098 0 1.27695e+06 196089 0 1.2576e+06 195353 0 1.23922e+06 194020 0 1.22169e+06 192196 0 1.20493e+06 189967 0 1.18886e+06 187403 0 1.17342e+06 184562 0 1.15855e+06 181491 0 1.14421e+06 178228 0 1.13037e+06 174806 0 1.11698e+06 171248 0 1.10403e+06 167577 0 1.09148e+06 163807 0 1.07932e+06 159952 0 1.06754e+06 156022 0 1.05611e+06 152023 0 1.04503e+06 147962 0 1.03429e+06 143841 0 1.02388e+06 139661 0 1.0138e+06 135425 0 1.00403e+06 131131 0 994588 126777 0 985462 122363 0 976654 117884 0 968166 113339 0 959999 108723 0 952157 104035 0 944645 99269.3 0 937468 94424.4 0 930633 89497.1 0 924145 84485.1 0 918013 79386.5 0 912246 74200.4 0 906851 68926.2 0 901838 63564.7 0 897217 58117.1 0 892996 52586.2 0 889185 46975.6 0 885793 41289.8 0 882829 35534.9 0 880301 29717.5 0 878215 23845.7 0 876577 17928.2 0 875393 11974.6 0 874667 5995 0 874399 0 0 1.87727e+06 -743399 0 1.91658e+06 -481878 0 1.88693e+06 -303767 0 1.83648e+06 -171547 0 1.77767e+06 -74140.8 0 1.71917e+06 -2117.53 0 1.66389e+06 51339.5 0 1.61313e+06 91253.1 0 1.56701e+06 121205 0 1.52525e+06 143743 0 1.48738e+06 160690 0 1.45294e+06 173364 0 1.42146e+06 182730 0 1.39253e+06 189505 0 1.3658e+06 194232 0 1.34096e+06 197323 0 1.31777e+06 199098 0 1.29601e+06 199810 0 1.2755e+06 199657 0 1.25609e+06 198796 0 1.23764e+06 197357 0 1.22006e+06 195441 0 1.20325e+06 193133 0 1.18715e+06 190500 0 1.17167e+06 187600 0 1.15678e+06 184477 0 1.14242e+06 181168 0 1.12856e+06 177704 0 1.11515e+06 174109 0 1.10219e+06 170403 0 1.08963e+06 166600 0 1.07746e+06 162714 0 1.06567e+06 158753 0 1.05423e+06 154724 0 1.04314e+06 150632 0 1.0324e+06 146479 0 1.02198e+06 142267 0 1.01188e+06 137996 0 1.00211e+06 133665 0 992658 129272 0 983520 124815 0 974699 120290 0 966196 115696 0 958012 111027 0 950151 106280 0 942619 101452 0 935419 96539.9 0 928558 91539.6 0 922043 86449 0 915882 81265.9 0 910083 75989 0 904654 70617.5 0 899607 65152 0 894949 59593.8 0 890690 53945.2 0 886841 48209.8 0 883410 42392.3 0 880406 36498.7 0 877837 30536 0 875712 24512.3 0 874035 18436.6 0 872813 12318.8 0 872049 6169.62 0 871745 0 0 1.90579e+06 -737298 0 1.93346e+06 -474125 0 1.89916e+06 -293923 0 1.84489e+06 -161412 0 1.78349e+06 -64394.6 0 1.72308e+06 6930.74 0 1.66645e+06 59613.7 0 1.6147e+06 98780.5 0 1.56786e+06 128055 0 1.52555e+06 149997 0 1.48728e+06 166430 0 1.45252e+06 178662 0 1.42078e+06 187651 0 1.39165e+06 194104 0 1.36475e+06 198556 0 1.33978e+06 201413 0 1.31647e+06 202990 0 1.29462e+06 203531 0 1.27402e+06 203232 0 1.25454e+06 202247 0 1.23604e+06 200701 0 1.21841e+06 198693 0 1.20156e+06 196306 0 1.18542e+06 193605 0 1.16991e+06 190645 0 1.15499e+06 187469 0 1.14061e+06 184114 0 1.12673e+06 180608 0 1.11331e+06 176975 0 1.10033e+06 173233 0 1.08776e+06 169398 0 1.07558e+06 165480 0 1.06378e+06 161489 0 1.05234e+06 157429 0 1.04124e+06 153306 0 1.03048e+06 149121 0 1.02006e+06 144876 0 1.00995e+06 140570 0 1.00017e+06 136202 0 990704 131770 0 981553 127271 0 972717 122701 0 964196 118057 0 955994 113335 0 948112 108531 0 940556 103641 0 933330 98660.8 0 926442 93587.9 0 919897 88419 0 913703 83151.5 0 907870 77783.9 0 902405 72315.3 0 897319 66745.9 0 892622 61076.8 0 888322 55310.3 0 884431 49449.9 0 880957 43500.4 0 877910 37467.7 0 875299 31359 0 873131 25182.6 0 871412 18947.8 0 870149 12665.1 0 869345 6345.27 0 869003 0 0 1.93363e+06 -730390 0 1.95047e+06 -465702 0 1.91128e+06 -283697 0 1.85317e+06 -151012 0 1.78916e+06 -54469.2 0 1.72685e+06 16099.7 0 1.66887e+06 67969.1 0 1.61616e+06 106363 0 1.5686e+06 134943 0 1.52577e+06 156280 0 1.4871e+06 172190 0 1.45202e+06 183976 0 1.42004e+06 192584 0 1.39071e+06 198714 0 1.36365e+06 202890 0 1.33855e+06 205512 0 1.31514e+06 206889 0 1.29319e+06 207260 0 1.27252e+06 206815 0 1.25297e+06 205705 0 1.23441e+06 204051 0 1.21674e+06 201952 0 1.19985e+06 199485 0 1.18367e+06 196715 0 1.16814e+06 193695 0 1.15319e+06 190466 0 1.13879e+06 187064 0 1.12489e+06 183516 0 1.11146e+06 179845 0 1.09846e+06 176069 0 1.08588e+06 172200 0 1.07369e+06 168251 0 1.06188e+06 164228 0 1.05042e+06 160138 0 1.03932e+06 155984 0 1.02855e+06 151768 0 1.01812e+06 147489 0 1.008e+06 143149 0 998207 138744 0 988727 134273 0 979560 129731 0 970707 125116 0 962168 120423 0 953944 115648 0 946039 110787 0 938457 105835 0 931204 100788 0 924285 95642.6 0 917707 90395.5 0 911478 85044 0 905607 79585.9 0 900103 74020.3 0 894976 68347 0 890235 62567 0 885891 56682.5 0 881955 50696.8 0 878435 44614.8 0 875342 38442.4 0 872684 32187 0 870470 25857.1 0 868707 19462.4 0 867400 13013.6 0 866554 6522.07 0 866171 0 0 1.96088e+06 -722724 0 1.96753e+06 -456634 0 1.92327e+06 -273090 0 1.86131e+06 -140349 0 1.79466e+06 -44368.4 0 1.73046e+06 25385.2 0 1.67116e+06 76402 0 1.61749e+06 113997 0 1.56924e+06 141867 0 1.5259e+06 162586 0 1.48683e+06 177968 0 1.45146e+06 189303 0 1.41924e+06 197528 0 1.38972e+06 203332 0 1.36251e+06 207232 0 1.33729e+06 209619 0 1.31377e+06 210795 0 1.29173e+06 210995 0 1.27099e+06 210404 0 1.25138e+06 209169 0 1.23276e+06 207408 0 1.21504e+06 205216 0 1.19811e+06 202670 0 1.1819e+06 199831 0 1.16634e+06 196750 0 1.15137e+06 193469 0 1.13695e+06 190020 0 1.12303e+06 186430 0 1.10958e+06 182720 0 1.09658e+06 178908 0 1.08398e+06 175006 0 1.07178e+06 171025 0 1.05996e+06 166972 0 1.0485e+06 162851 0 1.03738e+06 158666 0 1.0266e+06 154417 0 1.01616e+06 150106 0 1.00603e+06 145731 0 996221 141290 0 986726 136779 0 977542 132196 0 968670 127536 0 960110 122794 0 951863 117967 0 943933 113048 0 936323 108035 0 929039 102922 0 922086 97704.2 0 915472 92379.4 0 909205 86944 0 903294 81395.7 0 897747 75733.2 0 892575 69956 0 887788 64065.1 0 883397 58062.3 0 879411 51951.1 0 875842 45736.1 0 872700 39423.5 0 869993 33020.6 0 867730 26536.3 0 865919 19980.6 0 864566 13364.6 0 863675 6700.18 0 863250 0 0 1.98763e+06 -714342 0 1.9846e+06 -446944 0 1.93512e+06 -262103 0 1.8693e+06 -129427 0 1.80001e+06 -34096.5 0 1.73393e+06 34783.1 0 1.67331e+06 84908.3 0 1.61871e+06 121680 0 1.56978e+06 148823 0 1.52594e+06 168915 0 1.4865e+06 183761 0 1.45083e+06 194642 0 1.41839e+06 202481 0 1.38869e+06 207959 0 1.36133e+06 211581 0 1.33598e+06 213732 0 1.31236e+06 214707 0 1.29024e+06 214736 0 1.26943e+06 213998 0 1.24975e+06 212638 0 1.23109e+06 210770 0 1.21333e+06 208486 0 1.19636e+06 205860 0 1.18012e+06 202952 0 1.16453e+06 199810 0 1.14954e+06 196476 0 1.1351e+06 192979 0 1.12116e+06 189347 0 1.1077e+06 185599 0 1.09468e+06 181751 0 1.08207e+06 177816 0 1.06986e+06 173803 0 1.05803e+06 169719 0 1.04655e+06 165567 0 1.03543e+06 161351 0 1.02464e+06 157071 0 1.01418e+06 152727 0 1.00404e+06 148318 0 994213 143840 0 984701 139291 0 975499 134666 0 966607 129961 0 958023 125171 0 949751 120291 0 941793 115317 0 934152 110242 0 926835 105062 0 919846 99773.4 0 913194 94371.2 0 906886 88852.3 0 900931 83214 0 895338 77454.7 0 890118 71573.9 0 885281 65571.9 0 880839 59450.8 0 876801 53213.7 0 873179 46865.2 0 869984 40411.6 0 867224 33860.5 0 864910 27220.8 0 863048 20503 0 861646 13718.5 0 860708 6879.76 0 860237 0 0 2.01394e+06 -705274 0 2.00166e+06 -436652 0 1.94683e+06 -250739 0 1.87713e+06 -118250 0 1.80518e+06 -23658 0 1.73723e+06 44288.8 0 1.67532e+06 93484.1 0 1.6198e+06 129408 0 1.57022e+06 155808 0 1.52588e+06 175264 0 1.48608e+06 189569 0 1.45014e+06 199991 0 1.41747e+06 207442 0 1.3876e+06 212591 0 1.3601e+06 215935 0 1.33464e+06 217850 0 1.31092e+06 218624 0 1.28872e+06 218481 0 1.26784e+06 217598 0 1.24811e+06 216113 0 1.2294e+06 214137 0 1.21159e+06 211760 0 1.19459e+06 209054 0 1.17832e+06 206077 0 1.1627e+06 202875 0 1.14769e+06 199487 0 1.13323e+06 195943 0 1.11928e+06 192268 0 1.1058e+06 188482 0 1.09276e+06 184598 0 1.08014e+06 180630 0 1.06792e+06 176585 0 1.05608e+06 172469 0 1.04459e+06 168287 0 1.03345e+06 164040 0 1.02265e+06 159729 0 1.01218e+06 155352 0 1.00202e+06 150909 0 992183 146395 0 982653 141807 0 973431 137141 0 964516 132392 0 955907 127554 0 947608 122622 0 939619 117592 0 931946 112456 0 924592 107211 0 917565 101851 0 910871 96371.7 0 904519 90769.6 0 898517 85041.6 0 892875 79185.8 0 887603 73201.3 0 882713 67088.3 0 878216 60848.6 0 874123 54485.2 0 870445 48002.8 0 867193 41407.6 0 864377 34707.3 0 862008 27911.2 0 860092 21030 0 858638 14075.6 0 857650 7060.97 0 857132 0 0 2.03986e+06 -695546 0 2.01865e+06 -425776 0 1.95838e+06 -239001 0 1.88479e+06 -106823 0 1.81018e+06 -13057.7 0 1.74038e+06 53897.8 0 1.67719e+06 102125 0 1.62077e+06 137177 0 1.57055e+06 162820 0 1.52574e+06 181630 0 1.48559e+06 195388 0 1.44937e+06 205348 0 1.4165e+06 212410 0 1.38646e+06 217229 0 1.35883e+06 220294 0 1.33325e+06 221972 0 1.30944e+06 222545 0 1.28717e+06 222231 0 1.26622e+06 221201 0 1.24644e+06 219591 0 1.22768e+06 217508 0 1.20983e+06 215039 0 1.1928e+06 212252 0 1.1765e+06 209206 0 1.16086e+06 205943 0 1.14583e+06 202502 0 1.13135e+06 198911 0 1.11738e+06 195193 0 1.10388e+06 191368 0 1.09083e+06 187449 0 1.0782e+06 183447 0 1.06597e+06 179370 0 1.05411e+06 175224 0 1.04261e+06 171011 0 1.03146e+06 166733 0 1.02065e+06 162390 0 1.01016e+06 157982 0 999989 153504 0 990131 148954 0 980581 144328 0 971337 139621 0 962398 134828 0 953763 129943 0 945433 124960 0 937412 119874 0 929703 114679 0 922311 109368 0 915242 103937 0 908504 98381.5 0 902104 92696.7 0 896052 86879.4 0 890357 80927.3 0 885031 74839.2 0 880084 68615.2 0 875529 62256.7 0 871376 55766.7 0 867638 49149.7 0 864326 42412.1 0 861451 35561.7 0 859023 28608 0 857050 21562 0 855541 14436.2 0 854500 7244 0 853933 0 0 2.06544e+06 -685180 0 2.03556e+06 -414331 0 1.96977e+06 -226894 0 1.89227e+06 -95150.8 0 1.815e+06 -2300.58 0 1.74337e+06 63605.3 0 1.67892e+06 110828 0 1.62162e+06 144984 0 1.57077e+06 169856 0 1.52551e+06 188011 0 1.48502e+06 201216 0 1.44854e+06 210712 0 1.41547e+06 217382 0 1.38527e+06 221871 0 1.35751e+06 224656 0 1.33183e+06 226097 0 1.30794e+06 226469 0 1.28559e+06 225984 0 1.26458e+06 224808 0 1.24474e+06 223072 0 1.22594e+06 220882 0 1.20806e+06 218320 0 1.19099e+06 215454 0 1.17466e+06 212338 0 1.159e+06 209015 0 1.14395e+06 205520 0 1.12945e+06 201882 0 1.11546e+06 198122 0 1.10195e+06 194258 0 1.08889e+06 190303 0 1.07625e+06 186267 0 1.064e+06 182159 0 1.05213e+06 177981 0 1.04062e+06 173738 0 1.02946e+06 169430 0 1.01863e+06 165056 0 1.00812e+06 160615 0 997935 156104 0 988058 151519 0 978487 146855 0 969219 142108 0 960253 137271 0 951589 132339 0 943228 127306 0 935172 122165 0 927425 116909 0 919991 111534 0 912878 106033 0 906092 100402 0 899642 94634.3 0 893536 88728.1 0 887786 82679.9 0 882401 76488.5 0 877394 70153.4 0 872776 63675.9 0 868560 57058.9 0 864758 50306.8 0 861383 43426 0 858444 36424.4 0 855954 29311.8 0 853921 22099.6 0 852354 14800.6 0 851259 7429.02 0 850639 0 0 2.09071e+06 -674191 0 2.05236e+06 -402332 0 1.98099e+06 -214421 0 1.89956e+06 -83238.4 0 1.81963e+06 8607.95 0 1.74619e+06 73406.2 0 1.68051e+06 119587 0 1.62235e+06 152825 0 1.57089e+06 176912 0 1.52519e+06 194404 0 1.48437e+06 207052 0 1.44765e+06 216080 0 1.41438e+06 222357 0 1.38403e+06 226514 0 1.35615e+06 229020 0 1.33037e+06 230224 0 1.30639e+06 230395 0 1.28397e+06 229738 0 1.26291e+06 228417 0 1.24302e+06 226556 0 1.22418e+06 224259 0 1.20626e+06 221605 0 1.18917e+06 218659 0 1.17281e+06 215473 0 1.15713e+06 212089 0 1.14205e+06 208541 0 1.12753e+06 204855 0 1.11353e+06 201053 0 1.10001e+06 197150 0 1.08693e+06 193160 0 1.07428e+06 189091 0 1.06202e+06 184950 0 1.05014e+06 180742 0 1.03861e+06 176469 0 1.02743e+06 172130 0 1.01659e+06 167725 0 1.00607e+06 163252 0 995861 158708 0 985963 154088 0 976369 149387 0 967076 144600 0 958082 139720 0 949387 134742 0 940991 129659 0 932898 124463 0 925110 119149 0 917633 113710 0 910473 108140 0 903636 102432 0 897132 96583.4 0 890969 90588.6 0 885159 84444.7 0 879712 78150 0 874641 71703.9 0 869958 65107.3 0 865675 58362.8 0 861805 51475 0 858362 44450.1 0 855357 37296.2 0 852801 30023.3 0 850705 22643.2 0 849076 15169.3 0 847923 7616.23 0 847249 0 0 2.1157e+06 -662591 0 2.06904e+06 -389790 0 1.99201e+06 -201587 0 1.90666e+06 -71091.2 0 1.82408e+06 19662.4 0 1.74884e+06 83295.5 0 1.68195e+06 128399 0 1.62296e+06 160697 0 1.57091e+06 183985 0 1.52479e+06 200806 0 1.48365e+06 212894 0 1.44669e+06 221451 0 1.41324e+06 227333 0 1.38274e+06 231159 0 1.35474e+06 233385 0 1.32887e+06 234352 0 1.30482e+06 234322 0 1.28233e+06 233495 0 1.26121e+06 232027 0 1.24128e+06 230042 0 1.2224e+06 227637 0 1.20445e+06 224891 0 1.18732e+06 221865 0 1.17094e+06 218610 0 1.15523e+06 215166 0 1.14014e+06 211565 0 1.12561e+06 207832 0 1.11159e+06 203986 0 1.09805e+06 200045 0 1.08496e+06 196019 0 1.0723e+06 191917 0 1.06002e+06 187745 0 1.04813e+06 183506 0 1.03659e+06 179203 0 1.0254e+06 174834 0 1.01453e+06 170399 0 1.00399e+06 165895 0 993767 161317 0 983847 156663 0 974228 151925 0 964908 147098 0 955884 142177 0 947156 137153 0 938724 132020 0 930591 126771 0 922760 121399 0 915236 115896 0 908026 110257 0 901135 104475 0 894574 98544.7 0 888351 92461.8 0 882478 86222.6 0 876965 79824.8 0 871826 73267.6 0 867073 66551.7 0 862719 59679.5 0 858778 52655.3 0 855263 45485.3 0 852187 38177.9 0 849562 30743.3 0 847399 23193.5 0 845706 15542.6 0 844491 7805.85 0 843761 0 0 2.14044e+06 -650390 0 2.08556e+06 -376717 0 2.00284e+06 -188397 0 1.91355e+06 -58715.1 0 1.82833e+06 30856.9 0 1.75133e+06 93268.1 0 1.68325e+06 137259 0 1.62344e+06 168596 0 1.57082e+06 191073 0 1.52429e+06 207217 0 1.48285e+06 218738 0 1.44567e+06 226823 0 1.41204e+06 232309 0 1.38141e+06 235803 0 1.3533e+06 237749 0 1.32733e+06 238480 0 1.30321e+06 238249 0 1.28066e+06 237251 0 1.25949e+06 235638 0 1.23952e+06 233529 0 1.2206e+06 231017 0 1.20261e+06 228179 0 1.18546e+06 225074 0 1.16906e+06 221750 0 1.15333e+06 218245 0 1.13822e+06 214591 0 1.12367e+06 210810 0 1.10963e+06 206923 0 1.09608e+06 202943 0 1.08298e+06 198881 0 1.0703e+06 194746 0 1.05801e+06 190543 0 1.0461e+06 186274 0 1.03455e+06 181940 0 1.02334e+06 177542 0 1.01246e+06 173076 0 1.0019e+06 168541 0 991653 163931 0 981709 159243 0 972065 154469 0 962716 149604 0 953660 144641 0 944896 139572 0 936426 134390 0 928251 129088 0 920374 123659 0 912801 118094 0 905537 112386 0 898590 106530 0 891968 100519 0 885682 94348.6 0 879742 88014.4 0 874159 81513.9 0 868948 74845.7 0 864121 68010.3 0 859692 61009.9 0 855675 53848.6 0 852085 46532.6 0 848934 39070.4 0 846236 31472.3 0 844002 23751.1 0 842242 15920.9 0 840963 7998.1 0 840173 0 0 2.16493e+06 -637595 0 2.10193e+06 -363122 0 2.01346e+06 -174857 0 1.92022e+06 -46116.2 0 1.83238e+06 42185.5 0 1.75363e+06 103319 0 1.6844e+06 146162 0 1.6238e+06 176518 0 1.57063e+06 198173 0 1.52371e+06 213632 0 1.48198e+06 224584 0 1.44458e+06 232194 0 1.41079e+06 237285 0 1.38003e+06 240446 0 1.35181e+06 242112 0 1.32576e+06 242607 0 1.30157e+06 242176 0 1.27896e+06 241008 0 1.25774e+06 239250 0 1.23773e+06 237016 0 1.21878e+06 234398 0 1.20076e+06 231468 0 1.18358e+06 228284 0 1.16716e+06 224891 0 1.15141e+06 221326 0 1.13628e+06 217618 0 1.12171e+06 213790 0 1.10766e+06 209861 0 1.0941e+06 205843 0 1.08098e+06 201746 0 1.06829e+06 197578 0 1.05599e+06 193343 0 1.04406e+06 189044 0 1.03249e+06 184681 0 1.02127e+06 180253 0 1.01037e+06 175758 0 999790 171192 0 989520 166551 0 979551 161829 0 969879 157019 0 960499 152116 0 951409 147112 0 942608 141999 0 934097 136770 0 925878 131416 0 917953 125929 0 910327 120303 0 903007 114528 0 896000 108598 0 889315 102508 0 882961 96250.1 0 876950 89821.4 0 871294 83218.3 0 866007 76439.2 0 861102 69484.2 0 856593 62355.1 0 852497 55055.9 0 848827 47592.9 0 845597 39974.5 0 842822 32211.4 0 840513 24316.5 0 838682 16304.8 0 837337 8193.21 0 836484 0 0 2.18921e+06 -624211 0 2.11811e+06 -349015 0 2.02386e+06 -160972 0 1.92668e+06 -33301 0 1.83622e+06 53641.9 0 1.75577e+06 113441 0 1.6854e+06 155105 0 1.62404e+06 184460 0 1.57034e+06 205281 0 1.52304e+06 220049 0 1.48104e+06 230428 0 1.44343e+06 237563 0 1.40949e+06 242257 0 1.3786e+06 245086 0 1.35028e+06 246472 0 1.32416e+06 246731 0 1.2999e+06 246101 0 1.27724e+06 244763 0 1.25597e+06 242860 0 1.23592e+06 240503 0 1.21693e+06 237779 0 1.19889e+06 234758 0 1.18169e+06 231494 0 1.16524e+06 228032 0 1.14947e+06 224408 0 1.13432e+06 220647 0 1.11974e+06 216772 0 1.10568e+06 212801 0 1.0921e+06 208744 0 1.07897e+06 204613 0 1.06626e+06 200412 0 1.05395e+06 196147 0 1.04201e+06 191818 0 1.03042e+06 187426 0 1.01918e+06 182969 0 1.00826e+06 178444 0 997662 173848 0 987367 169175 0 977372 164420 0 967671 159576 0 958258 154636 0 949133 149592 0 940293 144436 0 931738 139159 0 923472 133754 0 915496 128212 0 907815 122524 0 900436 116683 0 893366 110681 0 886613 104511 0 880188 98167.2 0 874103 91644.5 0 868370 84939.2 0 863002 78049.3 0 858015 70974.5 0 853423 63716.3 0 849242 56278.5 0 845487 48667.3 0 842174 40891.2 0 839318 32961.1 0 836931 24890.4 0 835025 16694.7 0 833609 8391.45 0 832692 0 0 2.21327e+06 -610243 0 2.1341e+06 -334403 0 2.03402e+06 -146749 0 1.9329e+06 -20276 0 1.83986e+06 65219.9 0 1.75773e+06 123631 0 1.68625e+06 164082 0 1.62415e+06 192418 0 1.56994e+06 212395 0 1.52228e+06 226467 0 1.48002e+06 236271 0 1.44222e+06 242928 0 1.40813e+06 247224 0 1.37712e+06 249721 0 1.34872e+06 250829 0 1.32252e+06 250853 0 1.2982e+06 250023 0 1.27549e+06 248516 0 1.25418e+06 246470 0 1.23409e+06 243989 0 1.21507e+06 241160 0 1.197e+06 238047 0 1.17978e+06 234705 0 1.16331e+06 231175 0 1.14752e+06 227490 0 1.13236e+06 223677 0 1.11776e+06 219756 0 1.10369e+06 215742 0 1.09009e+06 211648 0 1.07695e+06 207481 0 1.06423e+06 203249 0 1.0519e+06 198952 0 1.03994e+06 194594 0 1.02834e+06 190173 0 1.01708e+06 185688 0 1.00614e+06 181134 0 995515 176509 0 985196 171806 0 975173 167018 0 965440 162140 0 955994 157163 0 946831 152080 0 937949 146881 0 929350 141559 0 921033 136104 0 913004 130507 0 905265 124759 0 897824 118853 0 890687 112779 0 883864 106531 0 877364 100101 0 871200 93484.7 0 865385 86677.7 0 859933 79677.1 0 854859 72482.3 0 850179 65094.6 0 845909 57517.5 0 842066 49757 0 838665 41821.6 0 835723 33722.6 0 833254 25473.7 0 831269 17091 0 829780 8593.07 0 828795 0 0 2.23714e+06 -595691 0 2.14989e+06 -319295 0 2.04395e+06 -132194 0 1.93889e+06 -7048.21 0 1.84329e+06 76912.6 0 1.75951e+06 133882 0 1.68696e+06 173090 0 1.62414e+06 200389 0 1.56945e+06 219512 0 1.52145e+06 232882 0 1.47894e+06 242108 0 1.44095e+06 248288 0 1.40672e+06 252186 0 1.3756e+06 254351 0 1.34711e+06 255181 0 1.32084e+06 254970 0 1.29646e+06 253942 0 1.27371e+06 252267 0 1.25236e+06 250077 0 1.23224e+06 247474 0 1.21319e+06 244539 0 1.1951e+06 241336 0 1.17785e+06 237915 0 1.16136e+06 234317 0 1.14556e+06 230573 0 1.13038e+06 226707 0 1.11577e+06 222740 0 1.10168e+06 218685 0 1.08807e+06 214553 0 1.07491e+06 210352 0 1.06217e+06 206087 0 1.04983e+06 201760 0 1.03786e+06 197373 0 1.02624e+06 192924 0 1.01496e+06 188411 0 1.004e+06 183829 0 993351 179175 0 983006 174441 0 972953 169623 0 963188 164711 0 953706 159699 0 944503 154577 0 935578 149337 0 926931 143969 0 918563 138465 0 910477 132814 0 902677 127008 0 895171 121037 0 887964 114893 0 881066 108567 0 874488 102052 0 868242 95343.4 0 862341 88434.9 0 856800 81323.9 0 851634 74009.1 0 846861 66491.4 0 842498 58774.1 0 838561 50863 0 835068 42766.7 0 832036 34496.6 0 829480 26066.9 0 827413 17494.5 0 825847 8798.39 0 824791 0 0 2.2608e+06 -580557 0 2.16546e+06 -303697 0 2.05363e+06 -117313 0 1.94463e+06 6375.07 0 1.8465e+06 88713.4 0 1.76111e+06 144189 0 1.68752e+06 182123 0 1.62401e+06 208369 0 1.56885e+06 226629 0 1.52052e+06 239293 0 1.47778e+06 247939 0 1.43962e+06 253640 0 1.40526e+06 257141 0 1.37404e+06 258975 0 1.34547e+06 259527 0 1.31914e+06 259082 0 1.2947e+06 257857 0 1.27191e+06 256014 0 1.25052e+06 253681 0 1.23037e+06 250956 0 1.21129e+06 247917 0 1.19318e+06 244624 0 1.17591e+06 241125 0 1.1594e+06 237459 0 1.14358e+06 233656 0 1.12839e+06 229738 0 1.11376e+06 225724 0 1.09966e+06 221628 0 1.08604e+06 217459 0 1.07286e+06 213224 0 1.06011e+06 208927 0 1.04775e+06 204571 0 1.03576e+06 200155 0 1.02413e+06 195678 0 1.01282e+06 191137 0 1.00184e+06 186528 0 991170 181845 0 980797 177083 0 970714 172234 0 960915 167290 0 951395 162242 0 942150 157083 0 933180 151803 0 924483 146392 0 916060 140839 0 907915 135136 0 900052 129272 0 892476 123238 0 885196 117024 0 878221 110621 0 871560 104023 0 865228 97221.7 0 859236 90212.3 0 853602 82991 0 848340 75556.1 0 843469 67908 0 839007 60049.6 0 834971 51986.6 0 831382 43727.7 0 828255 35284.3 0 825607 26671.1 0 823454 17905.5 0 821807 9007.7 0 820678 0 0 2.28428e+06 -564842 0 2.1808e+06 -287614 0 2.06304e+06 -102113 0 1.95012e+06 19986.4 0 1.84949e+06 100615 0 1.76253e+06 154545 0 1.68793e+06 191177 0 1.62377e+06 216354 0 1.56816e+06 233743 0 1.51952e+06 245696 0 1.47655e+06 253761 0 1.43824e+06 258983 0 1.40375e+06 262088 0 1.37244e+06 263591 0 1.34379e+06 263866 0 1.3174e+06 263189 0 1.29292e+06 261767 0 1.27008e+06 259757 0 1.24866e+06 257282 0 1.22848e+06 254436 0 1.20938e+06 251292 0 1.19124e+06 247910 0 1.17395e+06 244334 0 1.15743e+06 240600 0 1.14159e+06 236738 0 1.12638e+06 232769 0 1.11174e+06 228709 0 1.09763e+06 224572 0 1.08399e+06 220366 0 1.0708e+06 216097 0 1.05804e+06 211769 0 1.04566e+06 207384 0 1.03365e+06 202940 0 1.022e+06 198436 0 1.01068e+06 193868 0 999671 189232 0 988972 184521 0 978570 179730 0 968455 174851 0 958620 169876 0 949061 164795 0 939773 159600 0 930755 154280 0 922005 148826 0 913526 143227 0 905319 137472 0 897389 131552 0 889742 125455 0 882385 119173 0 875328 112695 0 868581 106013 0 862157 99120.7 0 856071 92011 0 850338 84679.8 0 844976 77124.7 0 840002 69345.7 0 835436 61345.4 0 831297 53129.3 0 827604 44705.8 0 824378 36086.7 0 821634 27287 0 819390 18324.9 0 817660 9221.35 0 816453 0 0 2.30757e+06 -548544 0 2.19589e+06 -271054 0 2.07218e+06 -86600.9 0 1.95535e+06 33777.9 0 1.85227e+06 112611 0 1.76377e+06 164945 0 1.6882e+06 200247 0 1.6234e+06 224340 0 1.56737e+06 240851 0 1.51843e+06 252091 0 1.47526e+06 259573 0 1.43679e+06 264316 0 1.40219e+06 267025 0 1.37079e+06 268198 0 1.34208e+06 268198 0 1.31563e+06 267289 0 1.2911e+06 265671 0 1.26822e+06 263495 0 1.24677e+06 260879 0 1.22656e+06 257912 0 1.20744e+06 254665 0 1.18928e+06 251193 0 1.17198e+06 247540 0 1.15544e+06 243740 0 1.13959e+06 239820 0 1.12437e+06 235799 0 1.10971e+06 231694 0 1.09558e+06 227517 0 1.08193e+06 223274 0 1.06873e+06 218972 0 1.05595e+06 214613 0 1.04356e+06 210199 0 1.03153e+06 205727 0 1.01986e+06 201197 0 1.00851e+06 196602 0 997483 191940 0 986758 187203 0 976326 182384 0 966177 177476 0 956305 172470 0 946704 167357 0 937371 162126 0 928303 156768 0 919499 151273 0 910960 145628 0 902689 139823 0 894689 133848 0 886967 127690 0 879530 121341 0 872387 114789 0 865550 108025 0 859031 101042 0 852845 93832.5 0 847009 86391.6 0 841541 78716.4 0 836459 70806.2 0 831783 62663.1 0 827535 54292.3 0 823735 45702.3 0 820403 36904.9 0 817559 27915.6 0 815220 18753.2 0 813401 9439.71 0 812114 0 0 2.33067e+06 -531661 0 2.21074e+06 -254021 0 2.08104e+06 -70783.6 0 1.96032e+06 47741.8 0 1.85482e+06 124694 0 1.76482e+06 175384 0 1.68831e+06 209329 0 1.62291e+06 232325 0 1.56648e+06 247951 0 1.51727e+06 258474 0 1.4739e+06 265372 0 1.43529e+06 269637 0 1.40058e+06 271950 0 1.3691e+06 272796 0 1.34033e+06 272520 0 1.31383e+06 271381 0 1.28926e+06 269568 0 1.26635e+06 267228 0 1.24487e+06 264471 0 1.22464e+06 261384 0 1.20549e+06 258034 0 1.18731e+06 254474 0 1.16999e+06 250745 0 1.15344e+06 246879 0 1.13758e+06 242900 0 1.12234e+06 238829 0 1.10767e+06 234679 0 1.09353e+06 230461 0 1.07987e+06 226183 0 1.06665e+06 221848 0 1.05385e+06 217459 0 1.04144e+06 213016 0 1.0294e+06 208517 0 1.0177e+06 203960 0 1.00634e+06 199341 0 995281 194653 0 984528 189890 0 974064 185044 0 963880 180108 0 953969 175073 0 944326 169928 0 934945 164663 0 925825 159269 0 916964 153733 0 908363 148044 0 900025 142190 0 891952 136161 0 884152 129944 0 876631 123529 0 869398 116904 0 862467 110059 0 855848 102987 0 849559 95678.1 0 843614 88128.1 0 838034 80332.8 0 832839 72290.9 0 828048 64004.1 0 823685 55477.3 0 819772 46718.6 0 816330 37740.2 0 813379 28557.9 0 810940 19191.2 0 809029 9663.15 0 807658 0 0 2.35359e+06 -514193 0 2.22532e+06 -236521 0 2.08961e+06 -54668.7 0 1.96502e+06 61869.6 0 1.85714e+06 136856 0 1.7657e+06 185854 0 1.68829e+06 218419 0 1.62231e+06 240304 0 1.56549e+06 255039 0 1.51602e+06 264844 0 1.47248e+06 271158 0 1.43373e+06 274944 0 1.39893e+06 276864 0 1.36738e+06 277382 0 1.33854e+06 276833 0 1.312e+06 275464 0 1.28739e+06 273458 0 1.26445e+06 270954 0 1.24294e+06 268058 0 1.22269e+06 264852 0 1.20353e+06 261400 0 1.18533e+06 257752 0 1.16799e+06 253947 0 1.15143e+06 250015 0 1.13555e+06 245979 0 1.1203e+06 241857 0 1.10562e+06 237663 0 1.09146e+06 233406 0 1.07779e+06 229091 0 1.06456e+06 224724 0 1.05174e+06 220305 0 1.03932e+06 215835 0 1.02725e+06 211310 0 1.01554e+06 206728 0 1.00414e+06 202083 0 993064 197370 0 982281 192582 0 971785 187711 0 961565 182748 0 951614 177684 0 941926 172509 0 932496 167212 0 923322 161781 0 914402 156206 0 905736 150475 0 897327 144574 0 889179 138493 0 881297 132218 0 873688 125738 0 866363 119041 0 859332 112117 0 852609 104956 0 846211 97549.5 0 840153 89890.8 0 834456 81975.5 0 829141 73801.6 0 824230 65370.2 0 819746 56685.7 0 815713 47756.3 0 812155 38593.9 0 809093 29215 0 806549 19639.6 0 804540 9892.12 0 803082 0 0 2.37631e+06 -496136 0 2.23962e+06 -218558 0 2.09788e+06 -38263.6 0 1.96945e+06 76153 0 1.85924e+06 149090 0 1.76639e+06 196352 0 1.68812e+06 227511 0 1.62159e+06 248275 0 1.56441e+06 262114 0 1.5147e+06 271198 0 1.47099e+06 276928 0 1.43212e+06 280237 0 1.39723e+06 281764 0 1.36561e+06 281956 0 1.33672e+06 281135 0 1.31014e+06 279538 0 1.2855e+06 277340 0 1.26253e+06 274673 0 1.241e+06 271639 0 1.22072e+06 268315 0 1.20154e+06 264762 0 1.18333e+06 261027 0 1.16598e+06 257146 0 1.1494e+06 253149 0 1.13351e+06 249056 0 1.11825e+06 244885 0 1.10356e+06 240646 0 1.08939e+06 236350 0 1.0757e+06 232001 0 1.06245e+06 227601 0 1.04962e+06 223153 0 1.03718e+06 218655 0 1.0251e+06 214105 0 1.01336e+06 209498 0 1.00194e+06 204829 0 990833 200093 0 980020 195280 0 969489 190385 0 959232 185396 0 949239 180305 0 939504 175100 0 930023 169772 0 920793 164307 0 911811 158695 0 903079 152922 0 894597 146976 0 886370 140844 0 878402 134513 0 870703 127970 0 863280 121203 0 856146 114201 0 849314 106952 0 842802 99448.2 0 836625 91681.4 0 830806 83646.2 0 825365 75340 0 820327 66763.2 0 815716 57919.5 0 811558 48816.9 0 807877 39467.6 0 804698 29888.1 0 802043 20099.5 0 799933 10127.1 0 798383 0 0 2.39884e+06 -477488 0 2.25364e+06 -200138 0 2.10583e+06 -21576.1 0 1.9736e+06 90583.2 0 1.86111e+06 161389 0 1.76691e+06 206869 0 1.6878e+06 236602 0 1.62075e+06 256234 0 1.56324e+06 269172 0 1.51331e+06 277534 0 1.46943e+06 282681 0 1.43046e+06 285514 0 1.39548e+06 286649 0 1.36381e+06 286517 0 1.33487e+06 285426 0 1.30825e+06 283603 0 1.28358e+06 281213 0 1.26059e+06 278385 0 1.23904e+06 275213 0 1.21874e+06 271771 0 1.19955e+06 268118 0 1.18132e+06 264297 0 1.16396e+06 260342 0 1.14736e+06 256280 0 1.13146e+06 252131 0 1.11619e+06 247910 0 1.10148e+06 243629 0 1.0873e+06 239293 0 1.0736e+06 234910 0 1.06034e+06 230479 0 1.04749e+06 226003 0 1.03503e+06 221478 0 1.02293e+06 216903 0 1.01117e+06 212272 0 999725 207580 0 988588 202820 0 977744 197985 0 967178 193065 0 956881 188052 0 946844 182934 0 937062 177702 0 927528 172344 0 918239 166847 0 909194 161198 0 900392 155386 0 891834 149396 0 883525 143215 0 875469 136829 0 867675 130225 0 860150 123390 0 852909 116310 0 845963 108976 0 839331 101376 0 833030 93501.6 0 827082 85346.9 0 821510 76908.1 0 816338 68184.8 0 811594 59180.3 0 807303 49902.2 0 803493 40362.6 0 800191 30578.5 0 797420 20571.6 0 795203 10368.5 0 793558 0 0 2.42118e+06 -458245 0 2.26736e+06 -181265 0 2.11347e+06 -4614.16 0 1.97746e+06 105151 0 1.86275e+06 173744 0 1.76724e+06 217402 0 1.68734e+06 245687 0 1.6198e+06 264177 0 1.56198e+06 276211 0 1.51184e+06 283851 0 1.46782e+06 288415 0 1.42875e+06 290773 0 1.3937e+06 291518 0 1.36197e+06 291064 0 1.33299e+06 289705 0 1.30633e+06 287656 0 1.28164e+06 285077 0 1.25862e+06 282088 0 1.23706e+06 278780 0 1.21675e+06 275222 0 1.19754e+06 271469 0 1.1793e+06 267563 0 1.16192e+06 263534 0 1.14532e+06 259408 0 1.1294e+06 255203 0 1.11412e+06 250934 0 1.0994e+06 246609 0 1.0852e+06 242236 0