<?xml version="1.0"?> 
<VTKFile type="StructuredGrid" version="0.1"> 
<StructuredGrid WholeExtent="0 63 0 63 0 0"> 
<Piece Extent="0 63 0 63 0 0"> 
<PointData>
<DataArray type="Float32" Name="|E|" format="ascii" NumberOfComponents="3"> 
-5.36442e-07 -7.62939e-06 0 3.84171e-07 765.395 0 -3.27826e-07 919.92 0 2.29105e-07 856.128 0 -1.50874e-07 752.453 0 1.11759e-07 643.516 0 -9.68575e-08 544.63 0 5.58794e-08 458.26 0 1.49012e-08 384.699 0 -5.96046e-08 322.755 0 4.47035e-08 270.96 0 -8.19564e-08 227.811 0 2.23517e-08 191.926 0 8.19564e-08 162.091 0 -4.47035e-08 137.267 0 2.23517e-08 116.581 0 0 99.3057 0 1.49012e-08 84.8422 0 7.45058e-09 72.6978 0 7.45058e-09 62.4688 0 1.49012e-08 53.8253 0 1.49012e-08 46.4977 0 4.47035e-08 40.2652 0 -5.96046e-08 34.9471 0 1.04308e-07 30.3952 0 -1.04308e-07 26.4874 0 7.45058e-08 23.123 0 1.49012e-08 20.2187 0 -4.47035e-08 17.7052 0 7.45058e-08 15.5249 0 -4.47035e-08 13.6296 0 1.49012e-08 11.9785 0 -4.47035e-08 10.5377 0 -4.47035e-08 9.27812 0 0 8.17533 0 0 7.20843 0 0 6.35953 0 0 5.61335 0 -1.49012e-08 4.95672 0 0 4.37829 0 0 3.86823 0 0 3.41806 0 0 3.02036 0 0 2.6687 0 -2.98023e-08 2.35745 0 0 2.08169 0 0 1.8371 0 0 1.61991 0 0 1.42676 0 0 1.25472 0 0 1.10118 0 0 0.963836 0 0 0.840619 0 -2.98023e-08 0.729699 0 -2.98023e-08 0.629448 0 0 0.538371 0 2.98023e-08 0.455132 0 0 0.378506 0 2.98023e-08 0.307387 0 0 0.240729 0 2.98023e-08 0.177556 0 -8.9407e-08 0.11696 0 1.19209e-07 0.0580587 0 -1.78814e-07 9.53674e-07 0 19.9828 2.08616e-06 0 6.43087 765.511 0 -0.616608 919.949 0 -1.82068 856.137 0 -2.3657 752.453 0 -2.29636 643.514 0 -2.14342 544.627 0 -1.92198 458.256 0 -1.6973 384.695 0 -1.48268 322.751 0 -1.28673 270.957 0 -1.11232 227.808 0 -0.959321 191.924 0 -0.826582 162.089 0 -0.712191 137.265 0 -0.614092 116.579 0 -0.530203 99.304 0 -0.458581 84.8408 0 -0.397457 72.6965 0 -0.345272 62.4677 0 -0.300667 53.8244 0 -0.262478 46.4969 0 -0.229712 40.2644 0 -0.20153 34.9465 0 -0.177227 30.3946 0 -0.156209 26.4869 0 -0.137981 23.1225 0 -0.122125 20.2183 0 -0.108295 17.7049 0 -0.0961969 15.5246 0 -0.0855856 13.6293 0 -0.0762548 11.9783 0 -0.0680304 10.5374 0 -0.0607653 9.27791 0 -0.0543334 8.17514 0 -0.0486295 7.20825 0 -0.043562 6.35937 0 -0.0390534 5.61321 0 -0.0350365 4.95659 0 -0.0314539 4.37817 0 -0.0282549 3.86813 0 -0.025397 3.41796 0 -0.0228419 3.02027 0 -0.0205569 2.66862 0 -0.0185129 2.35737 0 -0.0166852 2.08162 0 -0.0150507 1.83704 0 -0.0135908 1.61985 0 -0.0122876 1.42671 0 -0.0111265 1.25468 0 -0.010094 1.10114 0 -0.00917886 0.963798 0 -0.00837163 0.840586 0 -0.00766097 0.729675 0 -0.00704237 0.629422 0 -0.00650728 0.538349 0 -0.00605207 0.455111 0 -0.00567056 0.378493 0 -0.00536015 0.307375 0 -0.00511926 0.240716 0 -0.00494485 0.177548 0 -0.00483663 0.116954 0 -0.00479482 0.0580564 0 -0.00482096 -4.02331e-07 0 39.979 -6.97374e-06 0 12.8561 765.857 0 -1.23458 920.034 0 -3.64176 856.161 0 -4.73165 752.454 0 -4.59274 643.506 0 -4.28688 544.617 0 -3.84393 458.245 0 -3.39457 384.684 0 -2.96534 322.74 0 -2.57343 270.947 0 -2.22462 227.8 0 -1.91861 191.916 0 -1.65314 162.082 0 -1.42436 137.259 0 -1.22816 116.573 0 -1.06039 99.2993 0 -0.917143 84.8366 0 -0.794898 72.6929 0 -0.69053 62.4645 0 -0.601321 53.8216 0 -0.524944 46.4944 0 -0.459413 40.2622 0 -0.403051 34.9445 0 -0.354445 30.3929 0 -0.312411 26.4853 0 -0.275955 23.1212 0 -0.244245 20.2171 0 -0.216584 17.7038 0 -0.192389 15.5237 0 -0.171167 13.6284 0 -0.152506 11.9775 0 -0.136057 10.5367 0 -0.121527 9.27728 0 -0.108664 8.17457 0 -0.0972563 7.20774 0 -0.0871216 6.35891 0 -0.0781045 5.61279 0 -0.0700711 4.95621 0 -0.0629058 4.37782 0 -0.0565083 3.86782 0 -0.0507924 3.41768 0 -0.0456823 3.02001 0 -0.0411126 2.66838 0 -0.0370246 2.35716 0 -0.0333694 2.08143 0 -0.0301003 1.83687 0 -0.0271807 1.61969 0 -0.0245744 1.42657 0 -0.0222523 1.25454 0 -0.0201873 1.10102 0 -0.0183574 0.963692 0 -0.0167422 0.84049 0 -0.0153217 0.729589 0 -0.014084 0.629347 0 -0.0130142 0.538282 0 -0.0121035 0.455053 0 -0.0113404 0.378444 0 -0.0107202 0.307334 0 -0.0102379 0.240684 0 -0.00988935 0.177523 0 -0.00967263 0.116937 0 -0.00958932 0.0580478 0 -0.0096414 -2.38419e-07 0 60.0021 6.55651e-06 0 19.27 766.432 0 -1.85526 920.176 0 -5.46365 856.201 0 -7.09808 752.456 0 -6.88914 643.493 0 -6.4304 544.6 0 -5.76584 458.226 0 -5.09181 384.665 0 -4.44794 322.723 0 -3.86008 270.931 0 -3.33686 227.785 0 -2.87785 191.903 0 -2.47964 162.07 0 -2.13647 137.249 0 -1.84219 116.564 0 -1.59053 99.2914 0 -1.37567 84.8297 0 -1.19231 72.6868 0 -1.03576 62.4591 0 -0.901949 53.8169 0 -0.787386 46.4902 0 -0.689094 40.2586 0 -0.604553 34.9413 0 -0.531648 30.39 0 -0.468599 26.4828 0 -0.413917 23.1189 0 -0.366353 20.2151 0 -0.324864 17.702 0 -0.288572 15.5221 0 -0.25674 13.627 0 -0.228749 11.9762 0 -0.204078 10.5356 0 -0.182283 9.27624 0 -0.162989 8.17363 0 -0.145878 7.20688 0 -0.130677 6.35814 0 -0.117152 5.61209 0 -0.105102 4.95558 0 -0.0943541 4.37725 0 -0.0847583 3.86729 0 -0.076185 3.41721 0 -0.06852 3.01958 0 -0.0616658 2.66799 0 -0.055534 2.35681 0 -0.0500515 2.0811 0 -0.0451479 1.83657 0 -0.0407686 1.61943 0 -0.0368595 1.42633 0 -0.0333764 1.25433 0 -0.0302791 1.10083 0 -0.0275345 0.963514 0 -0.0251113 0.840333 0 -0.0229813 0.72945 0 -0.0211245 0.629222 0 -0.0195199 0.538171 0 -0.0181539 0.454959 0 -0.0170092 0.378362 0 -0.0160795 0.307266 0 -0.0153555 0.240629 0 -0.0148329 0.177482 0 -0.0145077 0.11691 0 -0.0143829 0.0580338 0 -0.0144607 2.13087e-06 0 80.0653 -1.07288e-06 0 25.667 767.238 0 -2.48 920.375 0 -7.28675 856.257 0 -9.46525 752.459 0 -9.18558 643.476 0 -8.57401 544.576 0 -7.68769 458.2 0 -6.78899 384.64 0 -5.93045 322.699 0 -5.14663 270.909 0 -4.449 227.765 0 -3.837 191.885 0 -3.30606 162.054 0 -2.84852 137.234 0 -2.45614 116.552 0 -2.12061 99.2803 0 -1.83414 84.8199 0 -1.58966 72.6782 0 -1.38094 62.4516 0 -1.20254 53.8103 0 -1.04979 46.4844 0 -0.918744 40.2535 0 -0.806028 34.9368 0 -0.708825 30.3861 0 -0.624764 26.4793 0 -0.551858 23.1158 0 -0.488444 20.2123 0 -0.433127 17.6995 0 -0.384741 15.5198 0 -0.3423 13.625 0 -0.304981 11.9744 0 -0.272087 10.534 0 -0.24303 9.27478 0 -0.217306 8.17231 0 -0.194492 7.20569 0 -0.174225 6.35706 0 -0.156192 5.61111 0 -0.140127 4.95469 0 -0.125797 4.37645 0 -0.113003 3.86657 0 -0.101573 3.41654 0 -0.0913536 3.01898 0 -0.0822152 2.66745 0 -0.07404 2.35631 0 -0.0667303 2.08065 0 -0.0601926 1.83616 0 -0.0543538 1.61906 0 -0.049142 1.42599 0 -0.0444983 1.25402 0 -0.0403688 1.10055 0 -0.0367095 0.963267 0 -0.0334784 0.840111 0 -0.030639 0.729252 0 -0.0281636 0.629046 0 -0.026024 0.538018 0 -0.0242029 0.454825 0 -0.0226764 0.378249 0 -0.0214374 0.307171 0 -0.0204716 0.240551 0 -0.0197751 0.177424 0 -0.0193415 0.11687 0 -0.019175 0.058013 0 -0.0192789 -2.44379e-06 0 100.182 -6.67572e-06 0 32.0412 768.273 0 -3.11011 920.629 0 -9.11148 856.329 0 -11.8334 752.462 0 -11.4821 643.453 0 -10.7178 544.546 0 -9.60945 458.166 0 -8.4861 384.607 0 -7.41284 322.667 0 -6.43307 270.88 0 -5.56103 227.738 0 -4.79603 191.861 0 -4.13237 162.033 0 -3.56046 137.216 0 -3.07001 116.536 0 -2.65061 99.266 0 -2.29253 84.8074 0 -1.98696 72.6673 0 -1.72607 62.442 0 -1.50307 53.8018 0 -1.31216 46.477 0 -1.14835 40.2469 0 -1.00747 34.931 0 -0.88597 30.3809 0 -0.7809 26.4747 0 -0.689774 23.1117 0 -0.610511 20.2087 0 -0.54137 17.6963 0 -0.480891 15.517 0 -0.427844 13.6224 0 -0.381198 11.9721 0 -0.340084 10.5319 0 -0.303764 9.2729 0 -0.271611 8.17062 0 -0.243096 7.20416 0 -0.217764 6.35567 0 -0.195224 5.60986 0 -0.175144 4.95355 0 -0.157233 4.37541 0 -0.141242 3.86563 0 -0.126955 3.41569 0 -0.114182 3.01821 0 -0.102759 2.66674 0 -0.0925415 2.35567 0 -0.0834047 2.08007 0 -0.0752334 1.83564 0 -0.0679353 1.61858 0 -0.0614211 1.42556 0 -0.0556169 1.25363 0 -0.0504556 1.1002 0 -0.0458817 0.962949 0 -0.0418431 0.839828 0 -0.0382945 0.728998 0 -0.0352002 0.628821 0 -0.032526 0.53782 0 -0.0302497 0.454653 0 -0.0283419 0.378103 0 -0.0267934 0.307048 0 -0.0255859 0.240453 0 -0.0247153 0.17735 0 -0.0241734 0.11682 0 -0.0239652 0.0579875 0 -0.0240951 1.87755e-06 0 120.367 -2.38419e-07 0 38.3869 769.54 0 -3.74689 920.939 0 -10.9383 856.417 0 -14.2028 752.465 0 -13.7786 643.425 0 -12.8617 544.508 0 -11.5311 458.125 0 -10.1831 384.566 0 -8.89509 322.629 0 -7.71936 270.844 0 -6.67291 227.706 0 -5.75493 191.832 0 -4.95855 162.008 0 -4.27228 137.193 0 -3.68376 116.516 0 -3.1805 99.2486 0 -2.75084 84.7922 0 -2.38416 72.6539 0 -2.07112 62.4302 0 -1.80354 53.7915 0 -1.57446 46.4679 0 -1.37791 40.2389 0 -1.20886 34.9239 0 -1.06307 30.3747 0 -0.937 26.4692 0 -0.827657 23.1068 0 -0.732549 20.2043 0 -0.649587 17.6924 0 -0.577017 15.5135 0 -0.513366 13.6193 0 -0.457396 11.9693 0 -0.408063 10.5293 0 -0.364482 9.27061 0 -0.325903 8.16855 0 -0.291687 7.20229 0 -0.261291 6.35398 0 -0.234246 5.60832 0 -0.210151 4.95216 0 -0.18866 4.37415 0 -0.169473 3.86448 0 -0.15233 3.41465 0 -0.137003 3.01726 0 -0.123298 2.66589 0 -0.111037 2.35489 0 -0.100074 2.07937 0 -0.0902693 1.835 0 -0.0815122 1.618 0 -0.073696 1.42503 0 -0.0667317 1.25315 0 -0.0605386 1.09977 0 -0.0550506 0.962562 0 -0.0502045 0.839479 0 -0.045947 0.728689 0 -0.0422339 0.628546 0 -0.0390254 0.537578 0 -0.036294 0.454444 0 -0.0340049 0.377922 0 -0.032147 0.306899 0 -0.0306979 0.240332 0 -0.0296531 0.177259 0 -0.0290032 0.116758 0 -0.028753 0.0579561 0 -0.0289087 -8.34465e-07 0 140.632 1.43051e-06 0 44.6982 771.039 0 -4.3916 921.304 0 -12.7675 856.521 0 -16.5736 752.47 0 -16.0752 643.392 0 -15.0058 544.464 0 -13.4526 458.076 0 -11.88 384.518 0 -10.3772 322.583 0 -9.00548 270.803 0 -7.78461 227.669 0 -6.71365 191.799 0 -5.78457 161.978 0 -4.98395 137.167 0 -4.29737 116.492 0 -3.71027 99.228 0 -3.20903 84.7741 0 -2.78127 72.638 0 -2.41608 62.4164 0 -2.10393 53.7793 0 -1.83669 46.4572 0 -1.6074 40.2295 0 -1.41019 34.9156 0 -1.24013 30.3673 0 -1.09306 26.4626 0 -0.965501 23.101 0 -0.854553 20.1991 0 -0.757772 17.6878 0 -0.673116 15.5093 0 -0.598864 13.6155 0 -0.533571 11.9659 0 -0.476021 10.5263 0 -0.425182 9.2679 0 -0.380177 8.16611 0 -0.340263 7.20008 0 -0.304804 6.35198 0 -0.273254 5.60651 0 -0.245147 4.95052 0 -0.220077 4.37266 0 -0.197693 3.86313 0 -0.177696 3.41342 0 -0.159816 3.01615 0 -0.143828 2.66487 0 -0.129526 2.35397 0 -0.116736 2.07853 0 -0.105299 1.83424 0 -0.0950838 1.61731 0 -0.0859657 1.4244 0 -0.0778417 1.25259 0 -0.0706174 1.09926 0 -0.0642153 0.962104 0 -0.0585621 0.839069 0 -0.0535959 0.728322 0 -0.0492642 0.628221 0 -0.0455216 0.537294 0 -0.0423352 0.454195 0 -0.039665 0.377711 0 -0.0374977 0.306722 0 -0.0358073 0.24019 0 -0.0345881 0.177151 0 -0.0338303 0.116686 0 -0.0335379 0.0579194 0 -0.0337197 1.07288e-06 0 160.993 -3.8147e-06 0 50.9691 772.771 0 -5.04546 921.723 0 -14.5997 856.641 0 -18.946 752.474 0 -18.3719 643.355 0 -17.1501 544.414 0 -15.374 458.02 0 -13.5768 384.463 0 -11.859 322.531 0 -10.2914 270.755 0 -8.8961 227.625 0 -7.67217 191.76 0 -6.6104 161.943 0 -5.69544 137.136 0 -4.91083 116.465 0 -4.2399 99.2043 0 -3.66709 84.7533 0 -3.17827 72.6197 0 -2.76094 62.4003 0 -2.40423 53.7652 0 -2.09884 46.4448 0 -1.83682 40.2186 0 -1.61147 34.906 0 -1.41712 30.3588 0 -1.24906 26.4551 0 -1.1033 23.0943 0 -0.976515 20.1931 0 -0.865921 17.6824 0 -0.769182 15.5045 0 -0.684332 13.6113 0 -0.60972 11.9621 0 -0.543956 10.5229 0 -0.485861 9.26478 0 -0.434432 8.16329 0 -0.388821 7.19753 0 -0.348301 6.34967 0 -0.312248 5.60442 0 -0.280129 4.94862 0 -0.251481 4.37094 0 -0.225903 3.86157 0 -0.203051 3.41201 0 -0.18262 3.01486 0 -0.164349 2.6637 0 -0.148006 2.35291 0 -0.133391 2.07756 0 -0.120322 1.83336 0 -0.108649 1.61651 0 -0.0982293 1.42369 0 -0.0889463 1.25194 0 -0.080691 1.09867 0 -0.0733756 0.961576 0 -0.0669149 0.838593 0 -0.0612408 0.727901 0 -0.0562904 0.627846 0 -0.0520142 0.536963 0 -0.0483726 0.453909 0 -0.0453218 0.377468 0 -0.0428449 0.306519 0 -0.0409134 0.240027 0 -0.0395197 0.177028 0 -0.0386542 0.116603 0 -0.0383196 0.0578777 0 -0.0385273 -1.78814e-07 0 181.462 3.8147e-06 0 57.1935 774.737 0 -5.70965 922.196 0 -16.4352 856.778 0 -21.3204 752.479 0 -20.6687 643.312 0 -19.2947 544.356 0 -17.2952 457.956 0 -15.2734 384.401 0 -13.3407 322.472 0 -11.5771 270.7 0 -10.0074 227.576 0 -8.63047 191.715 0 -7.43602 161.904 0 -6.40674 137.101 0 -5.52411 116.435 0 -4.76937 99.1774 0 -4.12501 84.7297 0 -3.57513 72.599 0 -3.10568 62.3822 0 -2.70443 53.7492 0 -2.3609 46.4307 0 -2.06616 40.2062 0 -1.81266 34.895 0 -1.59406 30.3491 0 -1.40501 26.4465 0 -1.24105 23.0867 0 -1.09843 20.1863 0 -0.974028 17.6764 0 -0.86521 15.4991 0 -0.769766 13.6064 0 -0.685839 11.9577 0 -0.611863 10.5189 0 -0.546514 9.26124 0 -0.488664 8.16009 0 -0.437359 7.19465 0 -0.391779 6.34706 0 -0.351225 5.60205 0 -0.315096 4.94648 0 -0.282871 4.36899 0 -0.254099 3.8598 0 -0.228394 3.4104 0 -0.205412 3.0134 0 -0.184861 2.66237 0 -0.166477 2.3517 0 -0.150038 2.07647 0 -0.135337 1.83237 0 -0.122207 1.61561 0 -0.110486 1.42287 0 -0.100045 1.2512 0 -0.0907586 1.09801 0 -0.0825304 0.960977 0 -0.0752626 0.838057 0 -0.0688809 0.727423 0 -0.0633122 0.627423 0 -0.0585026 0.536592 0 -0.054406 0.453586 0 -0.0509746 0.377191 0 -0.0481885 0.306288 0 -0.0460157 0.239842 0 -0.0444477 0.176887 0 -0.0434744 0.116508 0 -0.0430974 0.0578291 0 -0.0433312 3.57628e-07 0 202.055 -1.43051e-06 0 63.3651 776.939 0 -6.38528 922.721 0 -18.2746 856.93 0 -23.6969 752.484 0 -22.9657 643.264 0 -21.4395 544.292 0 -19.2162 457.885 0 -16.9698 384.331 0 -14.822 322.406 0 -12.8625 270.639 0 -11.1183 227.52 0 -9.58851 191.666 0 -8.26139 161.86 0 -7.11782 137.062 0 -6.13718 116.4 0 -5.29865 99.1473 0 -4.58276 84.7033 0 -3.97184 72.5759 0 -3.45029 62.3619 0 -3.0045 53.7314 0 -2.62285 46.4151 0 -2.29541 40.1924 0 -2.01378 34.8828 0 -1.77091 30.3383 0 -1.56089 26.4369 0 -1.37873 23.0782 0 -1.22029 20.1787 0 -1.08209 17.6696 0 -0.961196 15.4931 0 -0.855162 13.601 0 -0.761923 11.9528 0 -0.67974 10.5146 0 -0.60714 9.25729 0 -0.542872 8.15652 0 -0.485873 7.19142 0 -0.435237 6.34414 0 -0.390183 5.59941 0 -0.350046 4.94408 0 -0.314245 4.36682 0 -0.282281 3.85783 0 -0.253724 3.4086 0 -0.228193 3.01177 0 -0.205361 2.66089 0 -0.184938 2.35036 0 -0.166675 2.07525 0 -0.150343 1.83126 0 -0.135756 1.61461 0 -0.122736 1.42196 0 -0.111136 1.25038 0 -0.10082 1.09726 0 -0.091679 0.960307 0 -0.0836046 0.837457 0 -0.0765156 0.726886 0 -0.0703288 0.626949 0 -0.0649861 0.536175 0 -0.0604347 0.453225 0 -0.0566232 0.376882 0 -0.0535276 0.306029 0 -0.051114 0.239636 0 -0.0493716 0.17673 0 -0.0482903 0.116403 0 -0.0478709 0.0577761 0 -0.048131 -4.17233e-07 0 222.785 1.90735e-06 0 69.4775 779.377 0 -7.07341 923.299 0 -20.1183 857.099 0 -26.0757 752.49 0 -25.2628 643.211 0 -23.5847 544.221 0 -21.137 457.806 0 -18.666 384.254 0 -16.3031 322.333 0 -14.1476 270.572 0 -12.229 227.459 0 -10.5463 191.611 0 -9.0865 161.811 0 -7.82864 137.019 0 -6.75002 116.363 0 -5.82772 99.1141 0 -5.04032 84.6742 0 -4.36839 72.5503 0 -3.79475 62.3394 0 -3.30445 53.7117 0 -2.88469 46.3977 0 -2.52455 40.1771 0 -2.2148 34.8694 0 -1.94769 30.3264 0 -1.71669 26.4264 0 -1.51636 23.0688 0 -1.3421 20.1704 0 -1.1901 17.6621 0 -1.05714 15.4864 0 -0.940517 13.595 0 -0.83797 11.9474 0 -0.747582 10.5097 0 -0.667735 9.25292 0 -0.597051 8.15258 0 -0.534363 7.18785 0 -0.478671 6.34092 0 -0.42912 5.59649 0 -0.384976 4.94143 0 -0.345601 4.36441 0 -0.310447 3.85564 0 -0.279039 3.40662 0 -0.250959 3.00997 0 -0.225849 2.65926 0 -0.203387 2.34887 0 -0.183301 2.0739 0 -0.16534 1.83004 0 -0.149297 1.6135 0 -0.134976 1.42096 0 -0.122219 1.24947 0 -0.110874 1.09644 0 -0.100821 0.959569 0 -0.0919404 0.836795 0 -0.084144 0.726295 0 -0.0773399 0.626426 0 -0.0714643 0.535714 0 -0.0664582 0.452824 0 -0.0622671 0.376541 0 -0.0588619 0.305745 0 -0.0562075 0.239407 0 -0.0542911 0.176557 0 -0.0531014 0.116286 0 -0.0526401 0.0577163 0 -0.0529252 2.14577e-06 0 243.667 9.53674e-07 0 75.5242 782.054 0 -7.77502 923.927 0 -21.9668 857.285 0 -28.457 752.495 0 -27.56 643.154 0 -25.7302 544.143 0 -23.0575 457.72 0 -20.3621 384.169 0 -17.7839 322.252 0 -15.4324 270.498 0 -13.3394 227.393 0 -11.5037 191.551 0 -9.91131 161.758 0 -8.5392 136.972 0 -7.36262 116.321 0 -6.35657 99.0778 0 -5.49768 84.6423 0 -4.76476 72.5224 0 -4.13904 62.3149 0 -3.60425 53.6901 0 -3.14639 46.3788 0 -2.75357 40.1604 0 -2.41572 34.8546 0 -2.12437 30.3133 0 -1.87242 26.4148 0 -1.65391 23.0585 0 -1.46384 20.1612 0 -1.29805 17.6539 0 -1.15302 15.479 0 -1.02582 13.5884 0 -0.913975 11.9416 0 -0.815387 10.5044 0 -0.728295 9.24813 0 -0.651199 8.14826 0 -0.582824 7.18395 0 -0.52208 6.33738 0 -0.468034 5.59329 0 -0.419885 4.93853 0 -0.376938 4.36178 0 -0.338595 3.85325 0 -0.304338 3.40445 0 -0.273711 3.008 0 -0.246322 2.65747 0 -0.221824 2.34724 0 -0.199915 2.07242 0 -0.180326 1.82869 0 -0.162827 1.61228 0 -0.147208 1.41985 0 -0.133294 1.24847 0 -0.12092 1.09554 0 -0.109955 0.958759 0 -0.100269 0.836071 0 -0.091766 0.725647 0 -0.0843447 0.625852 0 -0.0779369 0.535212 0 -0.072476 0.452386 0 -0.0679055 0.376168 0 -0.064191 0.305435 0 -0.061296 0.239156 0 -0.0592053 0.176368 0 -0.0579075 0.116158 0 -0.057404 0.0576521 0 -0.0577147 -2.44379e-06 0 264.716 0 0 81.4984 784.972 0 -8.49103 924.605 0 -23.8206 857.487 0 -30.8411 752.501 0 -29.8574 643.091 0 -27.8761 544.058 0 -24.9778 457.626 0 -22.0579 384.077 0 -19.2643 322.165 0 -16.7169 270.418 0 -14.4494 227.32 0 -12.4608 191.486 0 -10.7358 161.7 0 -9.24946 136.921 0 -7.97494 116.276 0 -6.88517 99.0382 0 -5.95482 84.6076 0 -5.16092 72.4919 0 -4.48317 62.2882 0 -3.90389 53.6667 0 -3.40796 46.3581 0 -2.98248 40.1422 0 -2.61653 34.8386 0 -2.30096 30.2991 0 -2.02806 26.4022 0 -1.79138 23.0473 0 -1.58551 20.1512 0 -1.40594 17.645 0 -1.24886 15.4711 0 -1.11108 13.5813 0 -0.989935 11.9351 0 -0.883151 10.4986 0 -0.788819 9.24293 0 -0.705314 8.14357 0 -0.631254 7.17971 0 -0.565461 6.33355 0 -0.506922 5.58981 0 -0.45477 4.93538 0 -0.408254 4.35892 0 -0.366723 3.85065 0 -0.329619 3.40209 0 -0.296446 3.00585 0 -0.266781 2.65552 0 -0.240247 2.34547 0 -0.216516 2.07081 0 -0.195299 1.82724 0 -0.176346 1.61096 0 -0.15943 1.41866 0 -0.144359 1.24739 0 -0.130957 1.09457 0 -0.119081 0.957881 0 -0.108591 0.835283 0 -0.0993806 0.724944 0 -0.0913427 0.62523 0 -0.084403 0.534663 0 -0.078488 0.451912 0 -0.0735379 0.375761 0 -0.0695145 0.305095 0 -0.066379 0.238884 0 -0.0641141 0.176161 0 -0.0627081 0.116018 0 -0.0621623 0.0575802 0 -0.0624984 2.38419e-07 0 285.948 -9.53674e-07 0 87.393 788.132 0 -9.22226 925.331 0 -25.6804 857.705 0 -33.228 752.505 0 -32.1551 643.023 0 -30.0224 543.966 0 -26.8978 457.525 0 -23.7535 383.978 0 -20.7443 322.071 0 -18.001 270.332 0 -15.559 227.242 0 -13.4175 191.416 0 -11.5599 161.638 0 -9.95939 136.866 0 -8.58697 116.228 0 -7.41351 98.9956 0 -6.41172 84.5701 0 -5.55688 72.4591 0 -4.8271 62.2594 0 -4.20336 53.6414 0 -3.66938 46.3359 0 -3.21124 40.1226 0 -2.81722 34.8212 0 -2.47744 30.2838 0 -2.18361 26.3886 0 -1.92877 23.0352 0 -1.70711 20.1405 0 -1.51376 17.6354 0 -1.34463 15.4625 0 -1.19629 13.5736 0 -1.06585 11.9282 0 -0.95087 10.4924 0 -0.849303 9.23732 0 -0.759392 8.1385 0 -0.679652 7.17513 0 -0.608812 6.3294 0 -0.545782 5.58605 0 -0.489631 4.93197 0 -0.439547 4.35583 0 -0.39483 3.84785 0 -0.35488 3.39955 0 -0.319163 3.00354 0 -0.287223 2.65342 0 -0.258654 2.34357 0 -0.233104 2.06908 0 -0.21026 1.82566 0 -0.189854 1.60953 0 -0.17164 1.41736 0 -0.155414 1.24622 0 -0.140985 1.09351 0 -0.128198 0.956931 0 -0.116904 0.834432 0 -0.106988 0.724186 0 -0.0983335 0.624557 0 -0.0908621 0.534072 0 -0.0844931 0.451398 0 -0.0791641 0.375323 0 -0.0748316 0.304728 0 -0.0714558 0.23859 0 -0.069017 0.175938 0 -0.0675026 0.115868 0 -0.0669148 0.0575033 0 -0.0672751 1.07288e-06 0 307.378 9.53674e-07 0 93.2008 791.536 0 -9.96942 926.104 0 -27.5466 857.941 0 -35.618 752.51 0 -34.453 642.95 0 -32.1691 543.868 0 -28.8175 457.416 0 -25.4487 383.872 0 -22.2239 321.97 0 -19.2846 270.239 0 -16.6682 227.157 0 -14.3739 191.341 0 -12.3837 161.571 0 -10.669 136.807 0 -9.19868 116.176 0 -7.94156 98.9498 0 -6.86836 84.5299 0 -5.9526 72.4238 0 -5.17082 62.2284 0 -4.50265 53.6142 0 -3.93063 46.312 0 -3.43987 40.1015 0 -3.01779 34.8026 0 -2.65381 30.2674 0 -2.33905 26.374 0 -2.06607 23.0222 0 -1.82862 20.1289 0 -1.62151 17.6251 0 -1.44033 15.4533 0 -1.28143 13.5653 0 -1.1417 11.9208 0 -1.01854 10.4857 0 -0.909743 9.23129 0 -0.813431 8.13306 0 -0.728013 7.17021 0 -0.65213 6.32495 0 -0.584614 5.58202 0 -0.524464 4.92831 0 -0.470814 4.35251 0 -0.422915 3.84484 0 -0.380121 3.39681 0 -0.341862 3.00106 0 -0.307648 2.65116 0 -0.277045 2.34151 0 -0.249677 2.06722 0 -0.225207 1.82397 0 -0.203348 1.608 0 -0.183839 1.41598 0 -0.166457 1.24497 0 -0.151002 1.09238 0 -0.137305 0.955912 0 -0.125208 0.833519 0 -0.114586 0.723371 0 -0.105316 0.623834 0 -0.0973139 0.533438 0 -0.090491 0.450847 0 -0.0847836 0.374853 0 -0.0801423 0.304337 0 -0.0765262 0.238274 0 -0.0739136 0.175699 0 -0.0722902 0.115705 0 -0.071661 0.057421 0 -0.072045 -7.15256e-07 0 329.021 0 0 98.9145 795.187 0 -10.7331 926.923 0 -29.42 858.193 0 -38.0112 752.514 0 -36.7511 642.873 0 -34.3163 543.762 0 -30.7369 457.3 0 -27.1438 383.758 0 -23.7031 321.862 0 -20.5679 270.139 0 -17.777 227.067 0 -15.3298 191.26 0 -13.2071 161.499 0 -11.3782 136.744 0 -9.81006 116.12 0 -8.4693 98.9008 0 -7.32473 84.487 0 -6.34807 72.3862 0 -5.51432 62.1954 0 -4.80175 53.5852 0 -4.19171 46.2864 0 -3.66833 40.079 0 -3.21821 34.7828 0 -2.83005 30.2498 0 -2.49438 26.3584 0 -2.20326 23.0084 0 -1.95005 20.1166 0 -1.72918 17.6141 0 -1.53597 15.4434 0 -1.36651 13.5565 0 -1.2175 11.9129 0 -1.08616 10.4786 0 -0.970137 9.22485 0 -0.867428 8.12725 0 -0.776337 7.16495 0 -0.695414 6.32019 0 -0.623413 5.57772 0 -0.559268 4.92441 0 -0.502056 4.34897 0 -0.450975 3.84162 0 -0.405339 3.39389 0 -0.364539 2.9984 0 -0.328054 2.64875 0 -0.295419 2.33932 0 -0.266233 2.06523 0 -0.24014 1.82217 0 -0.216829 1.60636 0 -0.196025 1.41449 0 -0.177489 1.24363 0 -0.161009 1.09117 0 -0.146402 0.954823 0 -0.133502 0.832543 0 -0.122176 0.7225 0 -0.112291 0.623063 0 -0.103758 0.532759 0 -0.0964814 0.450259 0 -0.0903957 0.374349 0 -0.0854457 0.303917 0 -0.0815897 0.237938 0 -0.0788033 0.175444 0 -0.0770711 0.115534 0 -0.0764 0.0573335 0 -0.0768078 0 0 350.894 -4.76837e-07 0 104.526 799.087 0 -11.5139 927.786 0 -31.301 858.463 0 -40.4077 752.517 0 -39.0496 642.79 0 -36.464 543.65 0 -32.6559 457.176 0 -28.8385 383.636 0 -25.1818 321.747 0 -21.8506 270.034 0 -18.8853 226.972 0 -16.2852 191.174 0 -14.03 161.423 0 -12.087 136.676 0 -10.4211 116.061 0 -8.99671 98.8487 0 -7.7808 84.4413 0 -6.74328 72.3461 0 -5.85759 62.1602 0 -5.10063 53.5543 0 -4.4526 46.2592 0 -3.89663 40.0551 0 -3.41849 34.7616 0 -3.00616 30.2311 0 -2.6496 26.3419 0 -2.34036 22.9936 0 -2.07139 20.1035 0 -1.83676 17.6024 0 -1.63153 15.4329 0 -1.45153 13.547 0 -1.29324 11.9044 0 -1.15373 10.471 0 -1.03048 9.218 0 -0.92138 8.12106 0 -0.82462 7.15936 0 -0.73866 6.31514 0 -0.662179 5.57313 0 -0.594042 4.92025 0 -0.533269 4.3452 0 -0.47901 3.8382 0 -0.430534 3.39078 0 -0.387195 2.99558 0 -0.348439 2.64618 0 -0.313774 2.33699 0 -0.282773 2.06311 0 -0.255056 1.82025 0 -0.230295 1.60462 0 -0.208198 1.41292 0 -0.188509 1.2422 0 -0.171004 1.08988 0 -0.155488 0.953665 0 -0.141787 0.831505 0 -0.129756 0.721574 0 -0.119256 0.622242 0 -0.110193 0.532038 0 -0.102464 0.449633 0 -0.0959999 0.373814 0 -0.0907416 0.303472 0 -0.0866459 0.237578 0 -0.0836854 0.175173 0 -0.0818451 0.115349 0 -0.0811311 0.0572385 0 -0.0815631 3.57628e-07 0 373.013 0 0 110.028 803.239 0 -12.3121 928.692 0 -33.1905 858.749 0 -42.8077 752.519 0 -41.3485 642.703 0 -38.6121 543.53 0 -34.5746 457.045 0 -30.5329 383.508 0 -26.66 321.625 0 -23.1329 269.922 0 -19.993 226.87 0 -17.2402 191.083 0 -14.8525 161.342 0 -12.7954 136.605 0 -11.0317 115.998 0 -9.52377 98.7934 0 -8.23656 84.3928 0 -7.13821 72.3035 0 -6.2006 62.1229 0 -5.39929 53.5215 0 -4.71329 46.2304 0 -4.12476 40.0297 0 -3.61861 34.7392 0 -3.18214 30.2112 0 -2.80469 26.3243 0 -2.47735 22.978 0 -2.19262 20.0895 0 -1.94426 17.5899 0 -1.72702 15.4218 0 -1.53647 13.5371 0 -1.36892 11.8954 0 -1.22124 10.4629 0 -1.09077 9.21073 0 -0.975285 8.1145 0 -0.87286 7.15344 0 -0.781867 6.30977 0 -0.700908 5.56827 0 -0.628783 4.91585 0 -0.564452 4.3412 0 -0.507016 3.83457 0 -0.455703 3.38748 0 -0.409828 2.99258 0 -0.368804 2.64346 0 -0.33211 2.33452 0 -0.299294 2.06087 0 -0.269956 1.81821 0 -0.243746 1.60277 0 -0.220356 1.41124 0 -0.199515 1.24069 0 -0.180987 1.08852 0 -0.164563 0.952438 0 -0.150061 0.830404 0 -0.137326 0.720592 0 -0.126213 0.621372 0 -0.116618 0.531272 0 -0.108438 0.448969 0 -0.101596 0.373247 0 -0.0960296 0.303 0 -0.0916943 0.237198 0 -0.0885594 0.174886 0 -0.0866115 0.115155 0 -0.0858541 0.0571402 0 -0.0863103 -3.57628e-07 0 395.396 4.76837e-07 0 115.411 807.646 0 -13.128 929.637 0 -35.0892 859.054 0 -45.2112 752.52 0 -43.6477 642.61 0 -40.7608 543.404 0 -36.4929 456.906 0 -32.2269 383.372 0 -28.1377 321.496 0 -24.4147 269.803 0 -21.1003 226.763 0 -18.1946 190.987 0 -15.6745 161.257 0 -13.5034 136.529 0 -11.6419 115.931 0 -10.0505 98.735 0 -8.69198 84.3415 0 -7.53284 72.2586 0 -6.54336 62.0834 0 -5.69771 53.4869 0 -4.97378 46.2 0 -4.3527 40.0029 0 -3.81856 34.7155 0 -3.35796 30.1903 0 -2.95965 26.3057 0 -2.61421 22.9615 0 -2.31375 20.0748 0 -2.05167 17.5768 0 -1.82241 15.41 0 -1.62134 13.5265 0 -1.44453 11.886 0 -1.28868 10.4544 0 -1.15101 9.20306 0 -1.02914 8.10757 0 -0.921054 7.14717 0 -0.825033 6.3041 0 -0.7396 5.56314 0 -0.663489 4.91119 0 -0.595603 4.33698 0 -0.534994 3.83073 0 -0.480846 3.384 0 -0.432436 2.98942 0 -0.389145 2.64059 0 -0.350425 2.33191 0 -0.315796 2.0585 0 -0.284838 1.81606 0 -0.25718 1.60082 0 -0.232499 1.40948 0 -0.210507 1.23909 0 -0.190956 1.08708 0 -0.173626 0.95114 0 -0.158323 0.829241 0 -0.144884 0.719554 0 -0.133159 0.620453 0 -0.123034 0.530464 0 -0.114403 0.448267 0 -0.107183 0.372648 0 -0.101309 0.3025 0 -0.0967343 0.236796 0 -0.0934253 0.174581 0 -0.0913696 0.11495 0 -0.0905687 0.0570353 0 -0.091049 2.38419e-07 0 418.059 9.53674e-07 0 120.667 812.309 0 -13.9617 930.621 0 -36.9977 859.376 0 -47.6183 752.519 0 -45.9474 642.513 0 -42.91 543.27 0 -38.4107 456.76 0 -33.9206 383.228 0 -29.6148 321.36 0 -25.6959 269.678 0 -22.2069 226.65 0 -19.1486 190.886 0 -16.496 161.167 0 -14.2108 136.45 0 -12.2517 115.861 0 -10.5768 98.6735 0 -9.14706 84.2876 0 -7.92716 72.2112 0 -6.88583 62.0419 0 -5.99589 53.4504 0 -5.23404 46.1679 0 -4.58044 39.9746 0 -4.01834 34.6906 0 -3.53363 30.1682 0 -3.11448 26.2861 0 -2.75096 22.9441 0 -2.43478 20.0593 0 -2.15898 17.563 0 -1.91772 15.3977 0 -1.70613 13.5154 0 -1.52007 11.876 0 -1.35607 10.4454 0 -1.21119 9.19497 0 -1.08294 8.10027 0 -0.9692 7.14057 0 -0.868154 6.29812 0 -0.778252 5.55773 0 -0.698158 4.90628 0 -0.626721 4.33253 0 -0.562942 3.82669 0 -0.50596 3.38033 0 -0.455018 2.98608 0 -0.409463 2.63756 0 -0.368718 2.32916 0 -0.332278 2.056 0 -0.299701 1.81379 0 -0.270597 1.59877 0 -0.244626 1.40761 0 -0.221485 1.23741 0 -0.200912 1.08556 0 -0.182675 0.949773 0 -0.166573 0.828016 0 -0.152432 0.718461 0 -0.140094 0.619484 0 -0.12944 0.529614 0 -0.120358 0.447528 0 -0.11276 0.372016 0 -0.10658 0.301973 0 -0.101765 0.236373 0 -0.0982825 0.174262 0 -0.0961191 0.114733 0 -0.0952743 0.0569252 0 -0.0957785 1.19209e-07 0 441.021 0 0 125.787 817.234 0 -14.813 931.642 0 -38.9171 859.716 0 -50.0291 752.516 0 -48.2477 642.411 0 -45.0597 543.13 0 -40.3281 456.606 0 -35.6139 383.078 0 -31.0913 321.218 0 -26.9765 269.547 0 -23.313 226.531 0 -20.1019 190.779 0 -17.3169 161.072 0 -14.9178 136.366 0 -12.861 115.787 0 -11.1027 98.6088 0 -9.60176 84.2308 0 -8.32115 72.1615 0 -7.22801 61.9982 0 -6.2938 53.412 0 -5.49407 46.1342 0 -4.80798 39.9449 0 -4.21794 34.6643 0 -3.70914 30.145 0 -3.26916 26.2655 0 -2.88758 22.9258 0 -2.55568 20.043 0 -2.26618 17.5484 0 -2.01294 15.3847 0 -1.79083 13.5038 0 -1.59553 11.8655 0 -1.42338 10.436 0 -1.27131 9.18647 0 -1.13669 8.0926 0 -1.0173 7.13364 0 -0.911229 6.29185 0 -0.816861 5.55204 0 -0.732789 4.90113 0 -0.657804 4.32785 0 -0.590856 3.82245 0 -0.531045 3.37647 0 -0.477573 2.98258 0 -0.429756 2.63438 0 -0.386987 2.32627 0 -0.348739 2.05337 0 -0.314545 1.81141 0 -0.283996 1.59661 0 -0.256736 1.40566 0 -0.232446 1.23564 0 -0.210853 1.08396 0 -0.191711 0.948338 0 -0.174811 0.826728 0 -0.159968 0.717314 0 -0.147019 0.618467 0 -0.135836 0.52872 0 -0.126303 0.446751 0 -0.118328 0.371354 0 -0.111841 0.30142 0 -0.106787 0.235929 0 -0.103131 0.173925 0 -0.100859 0.114506 0 -0.0999707 0.0568095 0 -0.100499 -5.96046e-07 0 464.301 0 0 130.761 822.422 0 -15.6818 932.697 0 -40.848 860.074 0 -52.4435 752.511 0 -50.5485 642.304 0 -47.21 542.982 0 -42.2451 456.445 0 -37.3068 382.92 0 -32.5672 321.068 0 -28.2565 269.409 0 -24.4185 226.406 0 -21.0547 190.668 0 -18.1373 160.973 0 -15.6243 136.279 0 -13.4699 115.71 0 -11.6281 98.541 0 -10.0561 84.1713 0 -8.7148 72.1093 0 -7.56988 61.9525 0 -6.59144 53.3718 0 -5.75385 46.0988 0 -5.0353 39.9137 0 -4.41735 34.6368 0 -3.88448 30.1207 0 -3.42368 26.2439 0 -3.02405 22.9066 0 -2.67647 20.026 0 -2.37327 17.5332 0 -2.10806 15.371 0 -1.87545 13.4915 0 -1.67091 11.8545 0 -1.49062 10.4261 0 -1.33136 9.17756 0 -1.19037 8.08455 0 -1.06534 7.12637 0 -0.954256 6.28527 0 -0.855426 5.54608 0 -0.76738 4.89572 0 -0.688849 4.32294 0 -0.618737 3.818 0 -0.556099 3.37243 0 -0.500099 2.97891 0 -0.450022 2.63104 0 -0.405233 2.32324 0 -0.365177 2.05062 0 -0.329368 1.80891 0 -0.297375 1.59434 0 -0.268829 1.40361 0 -0.243391 1.23378 0 -0.220778 1.08229 0 -0.200733 0.946832 0 -0.183035 0.825379 0 -0.167491 0.71611 0 -0.153931 0.6174 0 -0.14222 0.527782 0 -0.132237 0.445937 0 -0.123886 0.370659 0 -0.117092 0.30084 0 -0.111799 0.235463 0 -0.107969 0.173573 0 -0.10559 0.114267 0 -0.104657 0.0566874 0 -0.105208 2.38419e-07 0 487.916 0 0 135.579 827.878 0 -16.5677 933.783 0 -42.7916 860.451 0 -54.8617 752.504 0 -52.85 642.193 0 -49.3609 542.827 0 -44.1616 456.276 0 -38.9993 382.754 0 -34.0424 320.911 0 -29.5359 269.265 0 -25.5232 226.275 0 -22.0068 190.551 0 -18.9571 160.869 0 -16.3302 136.187 0 -14.0783 115.63 0 -12.1532 98.4701 0 -10.51 84.1091 0 -9.10808 72.0547 0 -7.91142 61.9046 0 -6.88879 53.3298 0 -6.01338 46.0618 0 -5.26239 39.8811 0 -4.61655 34.6081 0 -4.05963 30.0952 0 -3.57805 26.2214 0 -3.16039 22.8866 0 -2.79712 20.0081 0 -2.48025 17.5172 0 -2.20308 15.3567 0 -1.95997 13.4787 0 -1.74621 11.8431 0 -1.55779 10.4158 0 -1.39134 9.16823 0 -1.244 8.07614 0 -1.11332 