<?xml version="1.0"?> 
<VTKFile type="StructuredGrid" version="0.1"> 
<StructuredGrid WholeExtent="0 63 0 63 0 0"> 
<Piece Extent="0 63 0 63 0 0"> 
<PointData>
<DataArray type="Float32" Name="|E|" format="ascii" NumberOfComponents="3"> 
840789 -85794.8 0 931078 -67559.4 0 984565 -87730.3 0 1.04366e+06 -85899.5 0 1.09406e+06 -80378.8 0 1.13948e+06 -71133.6 0 1.1781e+06 -61371 0 1.21076e+06 -51416.8 0 1.23749e+06 -41891.3 0 1.25878e+06 -32951.8 0 1.27503e+06 -24749.5 0 1.28672e+06 -17338.5 0 1.29435e+06 -10742.7 0 1.2984e+06 -4950.09 0 1.29934e+06 73.0866 0 1.29761e+06 4376.89 0 1.29361e+06 8021.2 0 1.28772e+06 11070.8 0 1.28024e+06 13591.4 0 1.27148e+06 15646.8 0 1.26168e+06 17297.1 0 1.25105e+06 18597.4 0 1.23979e+06 19597.4 0 1.22804e+06 20341.1 0 1.21595e+06 20867 0 1.20362e+06 21208.6 0 1.19116e+06 21394.6 0 1.17864e+06 21449.6 0 1.16614e+06 21394.4 0 1.1537e+06 21246.8 0 1.14138e+06 21021.3 0 1.12922e+06 20730.6 0 1.11724e+06 20384.8 0 1.10549e+06 19992.5 0 1.09398e+06 19560.8 0 1.08273e+06 19095.5 0 1.07176e+06 18601.3 0 1.06109e+06 18082.2 0 1.05073e+06 17541.1 0 1.04069e+06 16980.5 0 1.03098e+06 16402.6 0 1.02162e+06 15808.7 0 1.0126e+06 15200.2 0 1.00394e+06 14577.9 0 995645 13942.7 0 987725 13295.1 0 980184 12635.4 0 973030 11964.2 0 966269 11281.7 0 959908 10588.2 0 953953 9884.06 0 948410 9169.59 0 943285 8445.17 0 938584 7711.26 0 934312 6968.36 0 930475 6217.06 0 927076 5458.02 0 924121 4691.99 0 921613 3919.81 0 919556 3142.36 0 917952 2360.61 0 916803 1575.59 0 916112 788.356 0 915879 0 0 843345 -86055.6 0 930006 -69712.8 0 984820 -89177.7 0 1.04383e+06 -87398.8 0 1.09444e+06 -81629.2 0 1.13983e+06 -72241.2 0 1.17847e+06 -62298.2 0 1.2111e+06 -52188.2 0 1.2378e+06 -42510.4 0 1.25906e+06 -33432.6 0 1.27527e+06 -25103.6 0 1.28693e+06 -17579.4 0 1.29453e+06 -10883.3 0 1.29855e+06 -5003.12 0 1.29947e+06 95.5618 0 1.29771e+06 4463.71 0 1.29369e+06 8162.21 0 1.28778e+06 11256.9 0 1.28029e+06 13814.6 0 1.27151e+06 15900.1 0 1.2617e+06 17574.4 0 1.25106e+06 18893.6 0 1.23979e+06 19907.9 0 1.22804e+06 20662.1 0 1.21594e+06 21195.2 0 1.20361e+06 21541.4 0 1.19115e+06 21729.6 0 1.17863e+06 21785 0 1.16612e+06 21728.5 0 1.15368e+06 21578.2 0 1.14136e+06 21349 0 1.12919e+06 21053.5 0 1.11722e+06 20702.1 0 1.10546e+06 20303.6 0 1.09395e+06 19865.1 0 1.0827e+06 19392.4 0 1.07173e+06 18890.5 0 1.06106e+06 18363.2 0 1.0507e+06 17813.6 0 1.04066e+06 17244.3 0 1.03096e+06 16657.4 0 1.02159e+06 16054.3 0 1.01257e+06 15436.3 0 1.00391e+06 14804.4 0 995621 14159.3 0 987701 13501.5 0 980160 12831.7 0 973007 12150 0 966246 11456.9 0 959885 10752.6 0 953930 10037.6 0 948388 9312 0 943263 8576.34 0 938562 7831.03 0 934290 7076.59 0 930453 6313.62 0 927055 5542.79 0 924099 4764.87 0 921592 3980.69 0 919534 3191.17 0 917930 2397.28 0 916782 1600.06 0 916091 800.601 0 915858 0 0 845708 -86296.7 0 929001 -71833.2 0 985055 -90648.2 0 1.04401e+06 -88896.4 0 1.09482e+06 -82882.7 0 1.14019e+06 -73347.7 0 1.17883e+06 -63224.9 0 1.21143e+06 -52958.4 0 1.23811e+06 -43128.5 0 1.25933e+06 -33912.3 0 1.27552e+06 -25456.7 0 1.28715e+06 -17819.2 0 1.29471e+06 -11022.9 0 1.29871e+06 -5055.22 0 1.29959e+06 118.861 0 1.29781e+06 4551.25 0 1.29378e+06 8303.86 0 1.28784e+06 11443.6 0 1.28034e+06 14038.3 0 1.27155e+06 16153.8 0 1.26172e+06 17852.1 0 1.25107e+06 19190 0 1.23979e+06 20218.5 0 1.22803e+06 20983.2 0 1.21593e+06 21523.6 0 1.2036e+06 21874.3 0 1.19113e+06 22064.8 0 1.17861e+06 22120.4 0 1.1661e+06 22062.7 0 1.15365e+06 21909.7 0 1.14133e+06 21676.7 0 1.12916e+06 21376.4 0 1.11719e+06 21019.5 0 1.10543e+06 20614.7 0 1.09392e+06 20169.3 0 1.08267e+06 19689.3 0 1.07171e+06 19179.6 0 1.06104e+06 18644.2 0 1.05068e+06 18086.2 0 1.04064e+06 17508.2 0 1.03093e+06 16912.2 0 1.02156e+06 16299.8 0 1.01255e+06 15672.4 0 1.00389e+06 15030.8 0 995597 14375.8 0 987677 13708 0 980137 13027.9 0 972983 12335.8 0 966223 11632.1 0 959862 10917.1 0 953908 10191.1 0 948365 9454.41 0 943241 8707.5 0 938540 7950.79 0 934268 7184.82 0 930431 6410.18 0 927033 5627.57 0 924078 4837.75 0 921570 4041.57 0 919513 3239.98 0 917909 2433.95 0 916760 1624.54 0 916069 812.846 0 915837 0 0 847888 -86519.1 0 928057 -73923.4 0 985273 -92140.5 0 1.0442e+06 -90392.6 0 1.09521e+06 -84139.3 0 1.14056e+06 -74453 0 1.17921e+06 -64151.1 0 1.21178e+06 -53727.4 0 1.23843e+06 -43745.5 0 1.25962e+06 -34390.7 0 1.27576e+06 -25808.6 0 1.28736e+06 -18057.9 0 1.2949e+06 -11161.4 0 1.29886e+06 -5106.4 0 1.29972e+06 142.993 0 1.29792e+06 4639.53 0 1.29386e+06 8446.15 0 1.2879e+06 11630.8 0 1.28038e+06 14262.5 0 1.27158e+06 16408 0 1.26174e+06 18130.1 0 1.25109e+06 19486.7 0 1.2398e+06 20529.4 0 1.22803e+06 21304.5 0 1.21592e+06 21852.2 0 1.20358e+06 22207.3 0 1.19111e+06 22400 0 1.17859e+06 22456 0 1.16607e+06 22396.9 0 1.15363e+06 22241.3 0 1.14131e+06 22004.4 0 1.12914e+06 21699.4 0 1.11716e+06 21336.8 0 1.10541e+06 20925.8 0 1.0939e+06 20473.6 0 1.08265e+06 19986.3 0 1.07168e+06 19468.8 0 1.06101e+06 18925.2 0 1.05065e+06 18358.7 0 1.04061e+06 17772 0 1.03091e+06 17167 0 1.02154e+06 16545.4 0 1.01252e+06 15908.5 0 1.00387e+06 15257.2 0 995573 14592.3 0 987653 13914.5 0 980113 13224.1 0 972960 12521.6 0 966199 11807.3 0 959839 11081.5 0 953885 10344.6 0 948342 9596.81 0 943218 8838.66 0 938517 8070.55 0 934246 7293.04 0 930409 6506.74 0 927011 5712.34 0 924056 4910.62 0 921548 4102.46 0 919491 3288.78 0 917887 2470.61 0 916738 1649.01 0 916047 825.091 0 915815 0 0 849891 -86723.6 0 927167 -75986.1 0 985475 -93653.6 0 1.04441e+06 -91887.8 0 1.09559e+06 -85398.6 0 1.14093e+06 -75557.3 0 1.17958e+06 -65076.8 0 1.21212e+06 -54495.2 0 1.23875e+06 -44361.3 0 1.2599e+06 -34868 0 1.27602e+06 -26159.3 0 1.28758e+06 -18295.5 0 1.29508e+06 -11298.9 0 1.29902e+06 -5156.65 0 1.29985e+06 167.965 0 1.29802e+06 4728.55 0 1.29394e+06 8589.1 0 1.28797e+06 11818.6 0 1.28043e+06 14487.1 0 1.27161e+06 16662.5 0 1.26176e+06 18408.5 0 1.2511e+06 19783.6 0 1.2398e+06 20840.6 0 1.22803e+06 21626 0 1.21591e+06 22180.9 0 1.20357e+06 22540.5 0 1.1911e+06 22735.4 0 1.17857e+06 22791.6 0 1.16605e+06 22731.2 0 1.15361e+06 22572.8 0 1.14128e+06 22332.2 0 1.12911e+06 22022.3 0 1.11714e+06 21654.2 0 1.10538e+06 21236.9 0 1.09387e+06 20777.8 0 1.08262e+06 20283.2 0 1.07165e+06 19758 0 1.06098e+06 19206.2 0 1.05062e+06 18631.3 0 1.04059e+06 18035.8 0 1.03088e+06 17421.8 0 1.02151e+06 16790.9 0 1.0125e+06 16144.5 0 1.00384e+06 15483.6 0 995548 14808.9 0 987628 14121 0 980089 13420.3 0 972936 12707.4 0 966176 11982.5 0 959816 11245.9 0 953861 10498.1 0 948319 9739.21 0 943195 8969.81 0 938495 8190.31 0 934223 7401.27 0 930386 6603.29 0 926988 5797.11 0 924033 4983.49 0 921525 4163.34 0 919468 3337.59 0 917864 2507.28 0 916716 1673.48 0 916025 837.335 0 915792 0 0 851727 -86910.9 0 926327 -78023.9 0 985665 -95186.8 0 1.04463e+06 -93382.4 0 1.09598e+06 -86660.6 0 1.1413e+06 -76660.6 0 1.17996e+06 -66001.9 0 1.21247e+06 -55261.9 0 1.23907e+06 -44976 0 1.26019e+06 -35344.1 0 1.27627e+06 -26508.9 0 1.2878e+06 -18532 0 1.29527e+06 -11435.4 0 1.29918e+06 -5205.95 0 1.29998e+06 193.784 0 1.29813e+06 4818.33 0 1.29403e+06 8732.69 0 1.28803e+06 12007 0 1.28048e+06 14712.3 0 1.27165e+06 16917.4 0 1.26179e+06 18687.2 0 1.25111e+06 20080.9 0 1.2398e+06 21152 0 1.22803e+06 21947.8 0 1.21591e+06 22509.7 0 1.20356e+06 22873.8 0 1.19108e+06 23070.9 0 1.17855e+06 23127.3 0 1.16603e+06 23065.6 0 1.15358e+06 22904.5 0 1.14126e+06 22660 0 1.12909e+06 22345.3 0 1.11711e+06 21971.6 0 1.10535e+06 21548 0 1.09384e+06 21082.1 0 1.08259e+06 20580.1 0 1.07163e+06 20047.1 0 1.06096e+06 19487.2 0 1.0506e+06 18903.8 0 1.04056e+06 18299.6 0 1.03085e+06 17676.6 0 1.02149e+06 17036.5 0 1.01247e+06 16380.6 0 1.00381e+06 15710 0 995523 15025.4 0 987604 14327.4 0 980064 13616.5 0 972911 12893.2 0 966152 12157.7 0 959792 11410.4 0 953838 10651.6 0 948296 9881.61 0 943172 9100.96 0 938472 8310.07 0 934200 7509.48 0 930363 6699.85 0 926965 5881.87 0 924010 5056.36 0 921503 4224.22 0 919446 3386.39 0 917842 2543.94 0 916694 1697.95 0 916003 849.579 0 915770 0 0 853402 -87081.8 0 925531 -80039.1 0 985844 -96739.1 0 1.04487e+06 -94876.8 0 1.09636e+06 -87925 0 1.14169e+06 -77762.9 0 1.18034e+06 -66926.4 0 1.21283e+06 -56027.3 0 1.2394e+06 -45589.6 0 1.26048e+06 -35818.9 0 1.27653e+06 -26857.3 0 1.28803e+06 -18767.3 0 1.29547e+06 -11570.9 0 1.29934e+06 -5254.29 0 1.30012e+06 220.459 0 1.29824e+06 4908.86 0 1.29411e+06 8876.95 0 1.2881e+06 12195.9 0 1.28053e+06 14937.9 0 1.27168e+06 17172.8 0 1.26181e+06 18966.2 0 1.25112e+06 20378.4 0 1.23981e+06 21463.6 0 1.22802e+06 22269.7 0 1.2159e+06 22838.7 0 1.20355e+06 23207.2 0 1.19106e+06 23406.4 0 1.17853e+06 23463.1 0 1.16601e+06 23400 0 1.15356e+06 23236.2 0 1.14123e+06 22987.8 0 1.12906e+06 22668.4 0 1.11708e+06 22289 0 1.10533e+06 21859.2 0 1.09381e+06 21386.4 0 1.08257e+06 20877 0 1.0716e+06 20336.3 0 1.06093e+06 19768.3 0 1.05057e+06 19176.4 0 1.04053e+06 18563.4 0 1.03083e+06 17931.3 0 1.02146e+06 17282 0 1.01245e+06 16616.7 0 1.00379e+06 15936.4 0 995497 15241.9 0 987578 14533.9 0 980039 13812.8 0 972887 13079 0 966127 12332.9 0 959768 11574.8 0 953814 10805 0 948272 10024 0 943148 9232.1 0 938448 8429.82 0 934177 7617.7 0 930340 6796.4 0 926942 5966.64 0 923987 5129.23 0 921480 4285.09 0 919423 3435.2 0 917819 2580.6 0 916671 1722.42 0 915980 861.823 0 915747 0 0 854921 -87236.9 0 924775 -82034.2 0 986015 -98309.8 0 1.04511e+06 -96371.2 0 1.09675e+06 -89191.7 0 1.14208e+06 -78864.4 0 1.18073e+06 -67850.3 0 1.21319e+06 -56791.7 0 1.23973e+06 -46202 0 1.26078e+06 -36292.6 0 1.27679e+06 -27204.6 0 1.28825e+06 -19001.6 0 1.29566e+06 -11705.3 0 1.2995e+06 -5301.68 0 1.30025e+06 247.996 0 1.29835e+06 5000.16 0 1.2942e+06 9021.88 0 1.28817e+06 12385.5 0 1.28058e+06 15164 0 1.27172e+06 17428.6 0 1.26183e+06 19245.6 0 1.25114e+06 20676.3 0 1.23981e+06 21775.4 0 1.22802e+06 22591.8 0 1.21589e+06 23167.9 0 1.20353e+06 23540.8 0 1.19105e+06 23742.1 0 1.17851e+06 23799 0 1.16599e+06 23734.5 0 1.15354e+06 23567.9 0 1.14121e+06 23315.7 0 1.12904e+06 22991.4 0 1.11706e+06 22606.5 0 1.1053e+06 22170.3 0 1.09379e+06 21690.7 0 1.08254e+06 21174 0 1.07157e+06 20625.4 0 1.0609e+06 20049.3 0 1.05054e+06 19448.9 0 1.04051e+06 18827.2 0 1.0308e+06 18186.1 0 1.02143e+06 17527.5 0 1.01242e+06 16852.7 0 1.00376e+06 16162.8 0 995472 15458.4 0 987553 14740.3 0 980014 14009 0 972862 13264.8 0 966103 12508.1 0 959743 11739.2 0 953790 10958.5 0 948248 10166.4 0 943124 9363.25 0 938424 8549.56 0 934153 7725.92 0 930317 6892.95 0 926919 6051.4 0 923964 5202.1 0 921456 4345.97 0 919399 3484 0 917796 2617.26 0 916647 1746.89 0 915956 874.067 0 915724 0 0 856292 -87376.7 0 924054 -84011.7 0 986179 -99898.1 0 1.04537e+06 -97865.9 0 1.09715e+06 -90460.6 0 1.14247e+06 -79965.1 0 1.18112e+06 -68773.6 0 1.21355e+06 -57554.8 0 1.24006e+06 -46813.2 0 1.26108e+06 -36765 0 1.27706e+06 -27550.6 0 1.28848e+06 -19234.7 0 1.29586e+06 -11838.6 0 1.29967e+06 -5348.1 0 1.30039e+06 276.405 0 1.29846e+06 5092.22 0 1.29429e+06 9167.49 0 1.28824e+06 12575.6 0 1.28063e+06 15390.7 0 1.27176e+06 17684.8 0 1.26186e+06 19525.4 0 1.25115e+06 20974.4 0 1.23982e+06 22087.5 0 1.22802e+06 22914.1 0 1.21588e+06 23497.3 0 1.20352e+06 23874.5 0 1.19103e+06 24077.9 0 1.17849e+06 24135 0 1.16596e+06 24069 0 1.15351e+06 23899.7 0 1.14118e+06 23643.6 0 1.12901e+06 23314.5 0 1.11703e+06 22924 0 1.10527e+06 22481.5 0 1.09376e+06 21995 0 1.08251e+06 21470.9 0 1.07154e+06 20914.6 0 1.06087e+06 20330.3 0 1.05052e+06 19721.5 0 1.04048e+06 19090.9 0 1.03077e+06 18440.9 0 1.02141e+06 17773.1 0 1.01239e+06 17088.8 0 1.00374e+06 16389.1 0 995446 15674.9 0 987528 14946.7 0 979989 14205.1 0 972837 13450.5 0 966078 12683.2 0 959719 11903.6 0 953765 11112 0 948224 10308.8 0 943100 9494.38 0 938400 8669.31 0 934130 7834.13 0 930293 6989.49 0 926895 6136.16 0 923940 5274.97 0 921433 4406.85 0 919376 3532.8 0 917772 2653.93 0 916624 1771.36 0 915933 886.311 0 915700 0 0 857518 -87501.9 0 923365 -85973.7 0 986338 -101503 0 1.04563e+06 -99361.2 0 1.09754e+06 -91731.5 0 1.14287e+06 -81064.9 0 1.18152e+06 -69696.1 0 1.21392e+06 -58316.8 0 1.2404e+06 -47423.3 0 1.26138e+06 -37236.1 0 1.27733e+06 -27895.5 0 1.28872e+06 -19466.6 0 1.29606e+06 -11970.9 0 1.29984e+06 -5393.54 0 1.30053e+06 305.692 0 1.29857e+06 5185.07 0 1.29438e+06 9313.77 0 1.28831e+06 12766.2 0 1.28068e+06 15617.8 0 1.27179e+06 17941.4 0 1.26188e+06 19805.5 0 1.25117e+06 21272.8 0 1.23982e+06 22399.9 0 1.22802e+06 23236.6 0 1.21587e+06 23826.8 0 1.20351e+06 24208.3 0 1.19101e+06 24413.8 0 1.17847e+06 24471 0 1.16594e+06 24403.6 0 1.15349e+06 24231.6 0 1.14115e+06 23971.6 0 1.12898e+06 23637.6 0 1.117e+06 23241.4 0 1.10524e+06 22792.7 0 1.09373e+06 22299.3 0 1.08248e+06 21767.8 0 1.07152e+06 21203.7 0 1.06085e+06 20611.3 0 1.05049e+06 19994 0 1.04045e+06 19354.7 0 1.03075e+06 18695.7 0 1.02138e+06 18018.6 0 1.01237e+06 17324.8 0 1.00371e+06 16615.5 0 995420 15891.4 0 987502 15153.2 0 979963 14401.3 0 972812 13636.3 0 966053 12858.4 0 959694 12068 0 953741 11265.5 0 948199 10451.2 0 943076 9625.52 0 938376 8789.05 0 934105 7942.34 0 930269 7086.04 0 926871 6220.92 0 923916 5347.83 0 921409 4467.72 0 919352 3581.6 0 917748 2690.59 0 916600 1795.83 0 915909 898.554 0 915676 0 0 858606 -87612.8 0 922703 -87922.5 0 986493 -103125 0 1.04591e+06 -100857 0 1.09794e+06 -93004.4 0 1.14327e+06 -82164 0 1.18192e+06 -70618 0 1.2143e+06 -59077.5 0 1.24074e+06 -48032.1 0 1.26169e+06 -37706.1 0 1.2776e+06 -28239.1 0 1.28895e+06 -19697.4 0 1.29626e+06 -12102.1 0 1.30001e+06 -5438 0 1.30067e+06 335.865 0 1.29869e+06 5278.7 0 1.29447e+06 9460.74 0 1.28838e+06 12957.5 0 1.28074e+06 15845.4 0 1.27183e+06 18198.5 0 1.26191e+06 20086 0 1.25118e+06 21571.6 0 1.23983e+06 22712.5 0 1.22801e+06 23559.4 0 1.21587e+06 24156.5 0 1.20349e+06 24542.3 0 1.191e+06 24749.8 0 1.17845e+06 24807.2 0 1.16592e+06 24738.3 0 1.15346e+06 24563.5 0 1.14113e+06 24299.6 0 1.12896e+06 23960.8 0 1.11698e+06 23559 0 1.10522e+06 23103.9 0 1.0937e+06 22603.6 0 1.08245e+06 22064.8 0 1.07149e+06 21492.9 0 1.06082e+06 20892.3 0 1.05046e+06 20266.5 0 1.04042e+06 19618.5 0 1.03072e+06 18950.4 0 1.02135e+06 18264.1 0 1.01234e+06 17560.9 0 1.00368e+06 16841.9 0 995393 16107.9 0 987476 15359.6 0 979938 14597.5 0 972786 13822 0 966028 13033.6 0 959669 12232.4 0 953716 11418.9 0 948174 10593.5 0 943051 9756.65 0 938351 8908.79 0 934081 8050.54 0 930244 7182.58 0 926846 6305.68 0 923892 5420.7 0 921384 4528.59 0 919327 3630.4 0 917724 2727.25 0 916576 1820.3 0 915885 910.798 0 915652 0 0 859558 -87710 0 922065 -89860.4 0 986646 -104763 0 1.04619e+06 -102354 0 1.09835e+06 -94279 0 1.14369e+06 -83262.3 0 1.18232e+06 -71539.1 0 1.21467e+06 -59837.1 0 1.24109e+06 -48639.8 0 1.262e+06 -38174.7 0 1.27787e+06 -28581.5 0 1.28919e+06 -19927 0 1.29646e+06 -12232.2 0 1.30018e+06 -5481.46 0 1.30081e+06 366.932 0 1.2988e+06 5373.12 0 1.29456e+06 9608.4 0 1.28845e+06 13149.4 0 1.28079e+06 16073.6 0 1.27187e+06 18455.9 0 1.26193e+06 20366.8 0 1.25119e+06 21870.6 0 1.23984e+06 23025.4 0 1.22801e+06 23882.3 0 1.21586e+06 24486.3 0 1.20348e+06 24876.4 0 1.19098e+06 25085.9 0 1.17843e+06 25143.4 0 1.1659e+06 25073.1 0 1.15344e+06 24895.4 0 1.1411e+06 24627.6 0 1.12893e+06 24284 0 1.11695e+06 23876.5 0 1.10519e+06 23415.1 0 1.09367e+06 22907.9 0 1.08243e+06 22361.7 0 1.07146e+06 21782 0 1.06079e+06 21173.3 0 1.05043e+06 20539.1 0 1.04039e+06 19882.3 0 1.03069e+06 19205.2 0 1.02133e+06 18509.6 0 1.01231e+06 17796.9 0 1.00366e+06 17068.2 0 995367 16324.4 0 987449 15566 0 979911 14793.7 0 972760 14007.8 0 966002 13208.7 0 959643 12396.8 0 953690 11572.4 0 948149 10735.9 0 943026 9887.78 0 938326 9028.53 0 934056 8158.75 0 930219 7279.12 0 926822 6390.44 0 923867 5493.56 0 921360 4589.47 0 919303 3679.2 0 917699 2763.91 0 916551 1844.77 0 915860 923.041 0 915627 0 0 860379 -87793.8 0 921450 -91789.6 0 986798 -106416 0 1.04649e+06 -103853 0 1.09876e+06 -95555.4 0 1.1441e+06 -84359.9 0 1.18273e+06 -72459.4 0 1.21505e+06 -60595.5 0 1.24144e+06 -49246.2 0 1.26231e+06 -38642.1 0 1.27815e+06 -28922.7 0 1.28943e+06 -20155.5 0 1.29667e+06 -12361.2 0 1.30035e+06 -5523.92 0 1.30096e+06 398.901 0 1.29892e+06 5468.34 0 1.29466e+06 9756.77 0 1.28852e+06 13341.9 0 1.28085e+06 16302.3 0 1.27191e+06 18713.9 0 1.26196e+06 20648 0 1.25121e+06 22170 0 1.23984e+06 23338.5 0 1.22801e+06 24205.4 0 1.21585e+06 24816.4 0 1.20347e+06 25210.6 0 1.19096e+06 25422.1 0 1.17841e+06 25479.7 0 1.16587e+06 25407.9 0 1.15341e+06 25227.5 0 1.14108e+06 24955.7 0 1.1289e+06 24607.2 0 1.11692e+06 24194 0 1.10516e+06 23726.3 0 1.09365e+06 23212.2 0 1.0824e+06 22658.7 0 1.07143e+06 22071.2 0 1.06076e+06 21454.3 0 1.0504e+06 20811.6 0 1.04037e+06 20146 0 1.03066e+06 19459.9 0 1.0213e+06 18755.1 0 1.01229e+06 18032.9 0 1.00363e+06 17294.6 0 995340 16540.8 0 987423 15772.4 0 979885 14989.9 0 972734 14193.5 0 965976 13383.9 0 959617 12561.2 0 953665 11725.9 0 948124 10878.3 0 943001 10018.9 0 938301 9148.26 0 934031 8266.95 0 930194 7375.66 0 926797 6475.19 0 923842 5566.42 0 921335 4650.34 0 919278 3728 0 917674 2800.57 0 916526 1869.24 0 915835 935.284 0 915602 0 0 861072 -87864.5 0 920853 -93712.2 0 986950 -108084 0 1.04679e+06 -105352 0 1.09917e+06 -96833.5 0 1.14452e+06 -85456.7 0 1.18314e+06 -73379 0 1.21544e+06 -61352.8 0 1.24179e+06 -49851.5 0 1.26263e+06 -39108.3 0 1.27843e+06 -29262.7 0 1.28968e+06 -20382.7 0 1.29688e+06 -12489.1 0 1.30053e+06 -5565.37 0 1.3011e+06 431.779 0 1.29904e+06 5564.37 0 1.29475e+06 9905.84 0 1.2886e+06 13535 0 1.2809e+06 16531.5 0 1.27195e+06 18972.3 0 1.26199e+06 20929.6 0 1.25123e+06 22469.7 0 1.23985e+06 23651.9 0 1.22801e+06 24528.8 0 1.21584e+06 25146.6 0 1.20346e+06 25545 0 1.19095e+06 25758.5 0 1.17839e+06 25816.1 0 1.16585e+06 25742.8 0 1.15339e+06 25559.5 0 1.14105e+06 25283.8 0 1.12887e+06 24930.4 0 1.11689e+06 24511.6 0 1.10513e+06 24037.5 0 1.09362e+06 23516.6 0 1.08237e+06 22955.7 0 1.0714e+06 22360.4 0 1.06073e+06 21735.3 0 1.05037e+06 21084.1 0 1.04034e+06 20409.8 0 1.03063e+06 19714.7 0 1.02127e+06 19000.6 0 1.01226e+06 18268.9 0 1.0036e+06 17520.9 0 995313 16757.3 0 987396 15978.8 0 979858 15186 0 972707 14379.3 0 965950 13559 0 959591 12725.6 0 953639 11879.3 0 948098 11020.6 0 942975 10150 0 938276 9268 0 934005 8375.15 0 930169 7472.2 0 926771 6559.95 0 923817 5639.28 0 921309 4711.21 0 919253 3776.8 0 917649 2837.23 0 916501 1893.71 0 915810 947.527 0 915577 0 0 861641 -87922.5 0 920272 -95630.3 0 987104 -109766 0 1.0471e+06 -106853 0 1.09959e+06 -98113 0 1.14495e+06 -86552.9 0 1.18356e+06 -74297.7 0 1.21583e+06 -62108.8 0 1.24215e+06 -50455.5 0 1.26295e+06 -39573.1 0 1.27871e+06 -29601.4 0 1.28992e+06 -20608.8 0 1.29709e+06 -12615.9 0 1.30071e+06 -5605.8 0 1.30125e+06 465.574 0 1.29916e+06 5661.21 0 1.29485e+06 10055.6 0 1.28867e+06 13728.7 0 1.28096e+06 16761.2 0 1.27199e+06 19231.1 0 1.26201e+06 21211.6 0 1.25124e+06 22769.7 0 1.23986e+06 23965.5 0 1.22801e+06 24852.4 0 1.21584e+06 25477 0 1.20344e+06 25879.6 0 1.19093e+06 26094.9 0 1.17837e+06 26152.6 0 1.16583e+06 26077.8 0 1.15337e+06 25891.6 0 1.14103e+06 25612 0 1.12885e+06 25253.7 0 1.11686e+06 24829.2 0 1.1051e+06 24348.8 0 1.09359e+06 23820.9 0 1.08234e+06 23252.6 0 1.07137e+06 22649.5 0 1.0607e+06 22016.3 0 1.05035e+06 21356.6 0 1.04031e+06 20673.6 0 1.0306e+06 19969.4 0 1.02124e+06 19246 0 1.01223e+06 18504.9 0 1.00357e+06 17747.2 0 995285 16973.8 0 987368 16185.2 0 979831 15382.2 0 972681 14565 0 965923 13734.2 0 959565 12889.9 0 953612 12032.8 0 948072 11163 0 942949 10281.2 0 938250 9387.73 0 933979 8483.35 0 930143 7568.74 0 926746 6644.7 0 923791 5712.14 0 921284 4772.08 0 919227 3825.6 0 917623 2873.89 0 916475 1918.18 0 915784 959.77 0 915552 0 0 862087 -87968 0 919705 -97546.1 0 987260 -111462 0 1.04742e+06 -108356 0 1.10001e+06 -99394 0 1.14538e+06 -87648.4 0 1.18398e+06 -75215.7 0 1.21622e+06 -62863.6 0 1.24251e+06 -51058.2 0 1.26328e+06 -40036.7 0 1.279e+06 -29938.8 0 1.29017e+06 -20833.7 0 1.2973e+06 -12741.6 0 1.30089e+06 -5645.2 0 1.3014e+06 500.294 0 1.29928e+06 5758.88 0 1.29495e+06 10206.1 0 1.28875e+06 13923.1 0 1.28102e+06 16991.4 0 1.27203e+06 19490.4 0 1.26204e+06 21493.9 0 1.25126e+06 23070 0 1.23986e+06 24279.4 0 1.22801e+06 25176.2 0 1.21583e+06 25807.5 0 1.20343e+06 26214.2 0 1.19091e+06 26431.5 0 1.17835e+06 26489.2 0 1.16581e+06 26412.8 0 1.15334e+06 26223.8 0 1.141e+06 25940.2 0 1.12882e+06 25577 0 1.11684e+06 25146.8 0 1.10507e+06 24660.1 0 1.09356e+06 24125.3 0 1.08231e+06 23549.6 0 1.07134e+06 22938.7 0 1.06067e+06 22297.3 0 1.05032e+06 21629.2 0 1.04028e+06 20937.3 0 1.03058e+06 20224.1 0 1.02121e+06 19491.5 0 1.0122e+06 18741 0 1.00355e+06 17973.6 0 995257 17190.2 0 987341 16391.6 0 979804 15578.3 0 972654 14750.8 0 965896 13909.3 0 959538 13054.3 0 953586 12186.2 0 948045 11305.4 0 942923 10412.3 0 938224 9507.46 0 933953 8591.55 0 930117 7665.27 0 926720 6729.45 0 923765 5785 0 921258 4832.95 0 919201 3874.4 0 917597 2910.54 0 916449 1942.64 0 915758 972.013 0 915526 0 0 862413 -88001.3 0 919151 -99461.6 0 987420 -113172 0 1.04774e+06 -109860 0 1.10044e+06 -100676 0 1.14582e+06 -88743.1 0 1.18441e+06 -76132.8 0 1.21662e+06 -63617.2 0 1.24287e+06 -51659.7 0 1.2636e+06 -40498.9 0 1.27929e+06 -30275 0 1.29042e+06 -21057.3 0 1.29752e+06 -12866.1 0 1.30107e+06 -5683.57 0 1.30155e+06 535.946 0 1.29941e+06 5857.36 0 1.29504e+06 10357.3 0 1.28883e+06 14118 0 1.28107e+06 17222.2 0 1.27207e+06 19750.1 0 1.26207e+06 21776.7 0 1.25128e+06 23370.6 0 1.23987e+06 24593.6 0 1.22801e+06 25500.2 0 1.21582e+06 26138.2 0 1.20342e+06 26549.1 0 1.1909e+06 26768.2 0 1.17833e+06 26825.9 0 1.16578e+06 26748 0 1.15332e+06 26556.1 0 1.14097e+06 26268.4 0 1.12879e+06 25900.3 0 1.11681e+06 25464.5 0 1.10505e+06 24971.4 0 1.09353e+06 24429.7 0 1.08228e+06 23846.6 0 1.07131e+06 23227.9 0 1.06064e+06 22578.3 0 1.05029e+06 21901.7 0 1.04025e+06 21201.1 0 1.03055e+06 20478.9 0 1.02118e+06 19737 0 1.01217e+06 18977 0 1.00352e+06 18199.9 0 995229 17406.7 0 987313 16598 0 979776 15774.5 0 972626 14936.5 0 965869 14084.4 0 959511 13218.7 0 953559 12339.7 0 948019 11447.7 0 942896 10543.4 0 938197 9627.18 0 933927 8699.75 0 930091 7761.81 0 926693 6814.2 0 923739 5857.86 0 921232 4893.82 0 919175 3923.2 0 917571 2947.2 0 916423 1967.11 0 915732 984.255 0 915499 0 0 862620 -88022.5 0 918607 -101379 0 987584 -114895 0 1.04808e+06 -111366 0 1.10087e+06 -101960 0 1.14626e+06 -89837.3 0 1.18484e+06 -77049 0 1.21702e+06 -64369.6 0 1.24324e+06 -52259.9 0 1.26394e+06 -40959.9 0 1.27958e+06 -30609.9 0 1.29068e+06 -21279.8 0 1.29774e+06 -12989.5 0 1.30125e+06 -5720.89 0 1.3017e+06 572.539 0 1.29953e+06 5956.69 0 1.29514e+06 10509.3 0 1.2889e+06 14313.6 0 1.28113e+06 17453.6 0 1.27212e+06 20010.3 0 1.2621e+06 22059.8 0 1.25129e+06 23671.5 0 1.23988e+06 24908 0 1.22801e+06 25824.4 0 1.21581e+06 26469.2 0 1.20341e+06 26884 0 1.19088e+06 27105 0 1.17831e+06 27162.7 0 1.16576e+06 27083.1 0 1.15329e+06 26888.4 0 1.14095e+06 26596.7 0 1.12876e+06 26223.7 0 1.11678e+06 25782.2 0 1.10502e+06 25282.7 0 1.0935e+06 24734.1 0 1.08225e+06 24143.6 0 1.07128e+06 23517.1 0 1.06061e+06 22859.3 0 1.05026e+06 22174.2 0 1.04022e+06 21464.8 0 1.03052e+06 20733.6 0 1.02116e+06 19982.5 0 1.01214e+06 19213 0 1.00349e+06 18426.2 0 995201 17623.1 0 987285 16804.4 0 979749 15970.6 0 972599 15122.2 0 965842 14259.6 0 959484 13383.1 0 953532 12493.1 0 947992 11590.1 0 942869 10674.5 0 938170 9746.91 0 933900 8807.94 0 930064 7858.34 0 926667 6898.95 0 923712 5930.72 0 921205 4954.69 0 919148 3971.99 0 917545 2983.86 0 916397 1991.58 0 915706 996.498 0 915473 0 0 862712 -88031.8 0 918072 -103300 0 987753 -116631 0 1.04842e+06 -112874 0 1.1013e+06 -103245 0 1.14671e+06 -90930.7 0 1.18527e+06 -77964.4 0 1.21743e+06 -65120.8 0 1.24361e+06 -52858.8 0 1.26427e+06 -41419.5 0 1.27988e+06 -30943.5 0 1.29094e+06 -21500.9 0 1.29796e+06 -13111.7 0 1.30144e+06 -5757.15 0 1.30186e+06 610.079 0 1.29966e+06 6056.85 0 1.29525e+06 10662 0 1.28898e+06 14509.8 0 1.28119e+06 17685.5 0 1.27216e+06 20271 0 1.26213e+06 22343.3 0 1.25131e+06 23972.8 0 1.23989e+06 25222.7 0 1.22801e+06 26148.9 0 1.21581e+06 26800.3 0 1.20339e+06 27219.1 0 1.19086e+06 27441.9 0 1.17829e+06 27499.5 0 1.16574e+06 27418.4 0 1.15327e+06 27220.7 0 1.14092e+06 26925.1 0 1.12874e+06 26547.1 0 1.11675e+06 26099.8 0 1.10499e+06 25594 0 1.09347e+06 25038.5 0 1.08222e+06 24440.6 0 1.07125e+06 23806.2 0 1.06058e+06 23140.3 0 1.05023e+06 22446.7 0 1.04019e+06 21728.6 0 1.03049e+06 20988.3 0 1.02113e+06 20227.9 0 1.01211e+06 19448.9 0 1.00346e+06 18652.5 0 995172 17839.6 0 987257 17010.8 0 979721 16166.8 0 972571 15307.9 0 965814 14434.7 0 959456 13547.4 0 953504 12646.5 0 947964 11732.4 0 942842 10805.6 0 938143 9866.63 0 933873 8916.13 0 930037 7954.87 0 926640 6983.7 0 923685 6003.58 0 921178 5015.56 0 919121 4020.79 0 917518 3020.52 0 916370 2016.05 0 915679 1008.74 0 915446 0 0 862687 -88029.3 0 917545 -105227 0 987929 -118379 0 1.04876e+06 -114384 0 1.10175e+06 -104531 0 1.14716e+06 -92023.5 0 1.18571e+06 -78878.9 0 1.21784e+06 -65870.8 0 1.24399e+06 -53456.4 0 1.26461e+06 -41877.8 0 1.28018e+06 -31275.8 0 1.2912e+06 -21720.9 0 1.29818e+06 -13232.8 0 1.30163e+06 -5792.36 0 1.30202e+06 648.575 0 1.29979e+06 6157.86 0 1.29535e+06 10815.4 0 1.28906e+06 14706.7 0 1.28125e+06 17917.9 0 1.27221e+06 20532.1 0 1.26216e+06 22627.2 0 1.25133e+06 24274.4 0 1.23989e+06 25537.7 0 1.22801e+06 26473.6 0 1.2158e+06 27131.6 0 1.20338e+06 27554.4 0 1.19085e+06 27778.9 0 1.17827e+06 27836.5 0 1.16572e+06 27753.8 0 1.15324e+06 27553.1 0 1.14089e+06 27253.5 0 1.12871e+06 26870.6 0 1.11672e+06 26417.6 0 1.10496e+06 25905.3 0 1.09344e+06 25342.9 0 1.08219e+06 24737.6 0 1.07122e+06 24095.4 0 1.06055e+06 23421.3 0 1.0502e+06 22719.2 0 1.04016e+06 21992.3 0 1.03046e+06 21243 0 1.0211e+06 20473.4 0 1.01209e+06 19684.9 0 1.00343e+06 18878.8 0 995144 18056 0 987228 17217.2 0 979692 16362.9 0 972543 15493.6 0 965786 14609.8 0 959428 13711.8 0 953477 12800 0 947937 11874.8 0 942815 10936.7 0 938116 9986.35 0 933846 9024.32 0 930010 8051.4 0 926612 7068.45 0 923658 6076.43 0 921151 5076.42 0 919094 4069.59 0 917491 3057.18 0 916343 2040.52 0 915652 1020.98 0 915419 0 0 862548 -88015.1 0 917024 -107163 0 988111 -120140 0 1.04912e+06 -115896 0 1.10219e+06 -105818 0 1.14761e+06 -93115.5 0 1.18615e+06 -79792.4 0 1.21826e+06 -66619.5 0 1.24437e+06 -54052.8 0 1.26495e+06 -42334.8 0 1.28048e+06 -31606.8 0 1.29146e+06 -21939.6 0 1.29841e+06 -13352.8 0 1.30182e+06 -5826.5 0 1.30217e+06 688.035 0 1.29992e+06 6259.73 0 1.29545e+06 10969.6 0 1.28914e+06 14904.2 0 1.28132e+06 18150.9 0 1.27225e+06 20793.7 0 1.26219e+06 22911.5 0 1.25135e+06 24576.4 0 1.2399e+06 25853 0 1.22801e+06 26798.5 0 1.21579e+06 27463 0 1.20337e+06 27889.8 0 1.19083e+06 28116.1 0 1.17825e+06 28173.6 0 1.16569e+06 28089.2 0 1.15322e+06 27885.6 0 1.14087e+06 27581.9 0 1.12868e+06 27194.1 0 1.11669e+06 26735.3 0 1.10493e+06 26216.7 0 1.09341e+06 25647.3 0 1.08216e+06 25034.6 0 1.07119e+06 24384.6 0 1.06052e+06 23702.3 0 1.05017e+06 22991.8 0 1.04013e+06 22256 0 1.03043e+06 21497.8 0 1.02107e+06 20718.9 0 1.01206e+06 19920.9 0 1.0034e+06 19105.1 0 995115 18272.4 0 987199 17423.5 0 979664 16559 0 972514 15679.4 0 965758 14784.9 0 959400 13876.2 0 953449 12953.4 0 947909 12017.1 0 942787 11067.8 0 938088 10106.1 0 933818 9132.51 0 929982 8147.93 0 926585 7153.2 0 923631 6149.29 0 921123 5137.29 0 919067 4118.38 0 917463 3093.83 0 916315 2064.98 0 915624 1033.23 0 915391 0 0 862294 -87989.2 0 916508 -109108 0 988300 -121912 0 1.04948e+06 -117410 0 1.10265e+06 -107106 0 1.14808e+06 -94207 0 1.1866e+06 -80705.1 0 1.21868e+06 -67366.9 0 1.24475e+06 -54647.8 0 1.2653e+06 -42790.4 0 1.28078e+06 -31936.4 0 1.29173e+06 -22157 0 1.29864e+06 -13471.5 0 1.30201e+06 -5859.56 0 1.30234e+06 728.465 0 1.30005e+06 6362.45 0 1.29556e+06 11124.5 0 1.28923e+06 15102.4 0 1.28138e+06 18384.4 0 1.2723e+06 21055.8 0 1.26222e+06 23196.2 0 1.25137e+06 24878.6 0 1.23991e+06 26168.5 0 1.22801e+06 27123.6 0 1.21579e+06 27794.7 0 1.20336e+06 28225.4 0 1.19081e+06 28453.4 0 1.17823e+06 28510.8 0 1.16567e+06 28424.7 0 1.15319e+06 28218.1 0 1.14084e+06 27910.4 0 1.12865e+06 27517.6 0 1.11666e+06 27053.1 0 1.1049e+06 26528.1 0 1.09338e+06 25951.8 0 1.08213e+06 25331.6 0 1.07116e+06 24673.8 0 1.06049e+06 23983.3 0 1.05014e+06 23264.3 0 1.0401e+06 22519.8 0 1.0304e+06 21752.5 0 1.02104e+06 20964.3 0 1.01203e+06 20156.9 0 1.00337e+06 19331.4 0 995085 18488.9 0 987170 17629.9 0 979635 16755.2 0 972485 15865.1 0 965729 14960.1 0 959372 14040.5 0 953420 13106.8 0 947881 12159.5 0 942759 11198.9 0 938060 10225.8 0 933790 9240.7 0 929954 8244.46 0 926557 7237.94 0 923603 6222.14 0 921096 5198.16 0 919039 4167.18 0 917435 3130.49 0 916287 2089.45 0 915596 1045.47 0 915363 0 0 861927 -87951.7 0 915998 -111066 0 988497 -123696 0 1.04985e+06 -118926 0 1.10311e+06 -108395 0 1.14854e+06 -95297.7 0 1.18705e+06 -81616.8 0 1.2191e+06 -68113.1 0 1.24514e+06 -55241.5 0 1.26564e+06 -43244.6 0 1.28109e+06 -32264.8 0 1.292e+06 -22373.2 0 1.29887e+06 -13589 0 1.30221e+06 -5891.53 0 1.3025e+06 769.874 0 1.30018e+06 6466.05 0 1.29566e+06 11280.2 0 1.28931e+06 15301.2 0 1.28144e+06 18618.5 0 1.27234e+06 21318.3 0 1.26225e+06 23481.3 0 1.25139e+06 25181.2 0 1.23992e+06 26484.3 0 1.22801e+06 27449 0 1.21578e+06 28126.5 0 1.20335e+06 28561.1 0 1.1908e+06 28790.8 0 1.17821e+06 28848 0 1.16565e+06 28760.3 0 1.15317e+06 28550.7 0 1.14081e+06 28238.9 0 1.12862e+06 27841.1 0 1.11663e+06 27370.9 0 1.10487e+06 26839.5 0 1.09335e+06 26256.2 0 1.0821e+06 25628.6 0 1.07113e+06 24963 0 1.06046e+06 24264.4 0 1.05011e+06 23536.8 0 1.04007e+06 22783.5 0 1.03037e+06 22007.2 0 1.02101e+06 21209.8 0 1.012e+06 20392.9 0 1.00334e+06 19557.7 0 995056 18705.3 0 987141 17836.3 0 979605 16951.3 0 972456 16050.8 0 965700 15135.2 0 959343 14204.9 0 953392 13260.3 0 947852 12301.8 0 942730 11330 0 938032 10345.5 0 933762 9348.89 0 929926 8340.99 0 926529 7322.69 0 923575 6295 0 921067 5259.03 0 919011 4215.98 0 917407 3167.15 0 916259 2113.92 0 915568 1057.71 0 915335 0 0 861445 -87902.5 0 915492 -113038 0 988703 -125492 0 1.05023e+06 -120444 0 1.10357e+06 -109685 0 1.14901e+06 -96387.7 0 1.18751e+06 -82527.6 0 1.21953e+06 -68858.1 0 1.24553e+06 -55833.9 0 1.266e+06 -43697.5 0 1.2814e+06 -32591.8 0 1.29227e+06 -