<?xml version="1.0"?> 
<VTKFile type="StructuredGrid" version="0.1"> 
<StructuredGrid WholeExtent="0 7 0 7 0 0"> 
<Piece Extent="0 7 0 7 0 0"> 
<PointData>
<DataArray type="Float32" Name="|E|" format="ascii" NumberOfComponents="3"> 
-1.49012e-08 5.32266e+06 0 2.38924e-08 2.54625e+06 0 -8.52742e-09 1.39935e+06 0 1.4028e-08 638676 0 -9.54606e-09 201268 0 3.25963e-09 47190.4 0 -5.58794e-09 9788.02 0 -1.04308e-07 2572.77 0 -559314 3.00077e+06 0 -291246 1.75536e+06 0 -211684 950994 0 -127840 388110 0 -48607.2 114178 0 -13123.5 28049 0 -3069.52 6554.72 0 -484.864 1445.05 0 -625946 1.912e+06 0 -467297 1.16141e+06 0 -335157 550574 0 -165937 184294 0 -55546.2 49256 0 -15696.7 12702.9 0 -4205.45 3454.58 0 -1041.77 840.289 0 -720824 1.22779e+06 0 -573622 627392 0 -333246 209307 0 -130593 47240.6 0 -41805.3 10829.6 0 -12811.5 3159.81 0 -3993.54 918.91 0 -1323.55 296.467 0 -803640 566242 0 -499041 142122 0 -208363 -5152.9 0 -70300.2 -12620.8 0 -24317.6 -4943.06 0 -8401.15 -1811.93 0 -2864.49 -715.262 0 -934.52 -273.154 0 -585588 -49490.9 0 -225538 -110123 0 -73489 -54746.8 0 -28351.4 -21110.7 0 -10973.9 -8587.35 0 -4395.47 -3556.91 0 -1714.91 -1393.5 0 -630.019 -593.633 0 -112145 -197570 0 -35276.7 -73178.1 0 -17749.7 -34042.4 0 -7589.59 -15705.2 0 -3467.3 -7200.72 0 -1548.83 -3216.97 0 -722.031 -1536.77 0 -300.752 -720.206 0 -1.19209e-06 -115387 0 -1.3924e-07 -15779.9 0 1.01165e-07 -15664.9 0 -3.72529e-08 -8801.51 0 1.86265e-08 -4514.44 0 -7.45058e-09 -2327.25 0 -7.45058e-09 -1300.63 0 3.57628e-07 -911.819 0 </DataArray> 
</PointData> 
<Points> 
<DataArray type="Float32" NumberOfComponents="3"> 
0.075 0.021 0 0.0821429 0.021 0 0.0892857 0.021 0 0.0964286 0.021 0 0.103571 0.021 0 0.110714 0.021 0 0.117857 0.021 0 0.125 0.021 0 0.08 0.023 0 0.0865306 0.023 0 0.0930612 0.023 0 0.0995918 0.023 0 0.106122 0.023 0 0.112653 0.023 0 0.119184 0.023 0 0.125714 0.023 0 0.085 0.025 0 0.0909184 0.025 0 0.0968367 0.025 0 0.102755 0.025 0 0.108673 0.025 0 0.114592 0.025 0 0.12051 0.025 0 0.126429 0.025 0 0.09 0.027 0 0.0953061 0.027 0 0.100612 0.027 0 0.105918 0.027 0 0.111224 0.027 0 0.116531 0.027 0 0.121837 0.027 0 0.127143 0.027 0 0.095 0.029 0 0.0996939 0.029 0 0.104388 0.029 0 0.109082 0.029 0 0.113776 0.029 0 0.118469 0.029 0 0.123163 0.029 0 0.127857 0.029 0 0.1 0.031 0 0.104082 0.031 0 0.108163 0.031 0 0.112245 0.031 0 0.116327 0.031 0 0.120408 0.031 0 0.12449 0.031 0 0.128571 0.031 0 0.105 0.033 0 0.108469 0.033 0 0.111939 0.033 0 0.115408 0.033 0 0.118878 0.033 0 0.122347 0.033 0 0.125816 0.033 0 0.129286 0.033 0 0.11 0.035 0 0.112857 0.035 0 0.115714 0.035 0 0.118571 0.035 0 0.121429 0.035 0 0.124286 0.035 0 0.127143 0.035 0 0.13 0.035 0 
</DataArray>
</Points> 
</Piece> 
</StructuredGrid> 
</VTKFile> 
