<?xml version="1.0"?> 
<VTKFile type="StructuredGrid" version="0.1"> 
<StructuredGrid WholeExtent="0 7 0 7 0 0"> 
<Piece Extent="0 7 0 7 0 0"> 
<PointData>
<DataArray type="Float32" Name="|E|" format="ascii" NumberOfComponents="3"> 
-2.13549e+06 0 0 -2.16479e+06 0.00010317 0 -2.25485e+06 -0.000248268 0 -2.41259e+06 0.000253685 0 -2.65013e+06 -0.00166189 0 -2.97797e+06 -0.00516826 0 -3.35771e+06 0.0148978 0 -3.56034e+06 2.98023e-06 0 -2.13497e+06 0 0 -2.16425e+06 7856.33 0 -2.25425e+06 16310.7 0 -2.41188e+06 26019.6 0 -2.64931e+06 37615.5 0 -2.97735e+06 49457.5 0 -3.35912e+06 46858.6 0 -3.56453e+06 5.56276e-07 0 -2.13342e+06 0 0 -2.16265e+06 15702.5 0 -2.25246e+06 32598.2 0 -2.40976e+06 52005 0 -2.64683e+06 75209.7 0 -2.97545e+06 99118.3 0 -3.36333e+06 94654.6 0 -3.57727e+06 -3.9523e-07 0 -2.13084e+06 0 0 -2.15997e+06 23528.6 0 -2.24948e+06 48839.2 0 -2.40622e+06 77922.9 0 -2.64268e+06 112758 0 -2.97217e+06 149173 0 -3.3702e+06 144357 0 -3.59906e+06 1.96509e-07 0 -2.12724e+06 0 0 -2.15623e+06 31324.8 0 -2.2453e+06 65009 0 -2.40128e+06 103740 0 -2.63686e+06 150227 0 -2.96738e+06 199785 0 -3.37946e+06 196995 0 -3.63081e+06 -5.4948e-08 0 -2.1226e+06 0 0 -2.15142e+06 39081.6 0 -2.23995e+06 81081.4 0 -2.39492e+06 129427 0 -2.62931e+06 187575 0 -2.96087e+06 251078 0 -3.39072e+06 253683 0 -3.67402e+06 2.23517e-08 0 -2.11693e+06 0 0 -2.14556e+06 46789.1 0 -2.23343e+06 97028.7 0 -2.38718e+06 154954 0 -2.62002e+06 224745 0 -2.9524e+06 303119 0 -3.40336e+06 315626 0 -3.73107e+06 -5.96046e-08 0 -2.11021e+06 0 0 -2.13863e+06 54436.1 0 -2.22576e+06 112822 0 -2.37805e+06 180292 0 -2.60893e+06 261668 0 -2.9417e+06 355903 0 -3.41644e+06 384090 0 -3.80582e+06 -7.15256e-07 0 </DataArray> 
</PointData> 
<Points> 
<DataArray type="Float32" NumberOfComponents="3"> 
0 0 0 0.0107143 0 0 0.0214286 0 0 0.0321429 0 0 0.0428571 0 0 0.0535714 0 0 0.0642857 0 0 0.075 0 0 0 0.00142857 0 0.0107143 0.00142857 0 0.0214286 0.00142857 0 0.0321429 0.00142857 0 0.0428571 0.00142857 0 0.0535714 0.00142857 0 0.0642857 0.00142857 0 0.075 0.00142857 0 0 0.00285714 0 0.0107143 0.00285714 0 0.0214286 0.00285714 0 0.0321429 0.00285714 0 0.0428571 0.00285714 0 0.0535714 0.00285714 0 0.0642857 0.00285714 0 0.075 0.00285714 0 0 0.00428571 0 0.0107143 0.00428571 0 0.0214286 0.00428571 0 0.0321429 0.00428571 0 0.0428571 0.00428571 0 0.0535714 0.00428571 0 0.0642857 0.00428571 0 0.075 0.00428571 0 0 0.00571429 0 0.0107143 0.00571429 0 0.0214286 0.00571429 0 0.0321429 0.00571429 0 0.0428571 0.00571429 0 0.0535714 0.00571429 0 0.0642857 0.00571429 0 0.075 0.00571429 0 0 0.00714286 0 0.0107143 0.00714286 0 0.0214286 0.00714286 0 0.0321429 0.00714286 0 0.0428571 0.00714286 0 0.0535714 0.00714286 0 0.0642857 0.00714286 0 0.075 0.00714286 0 0 0.00857143 0 0.0107143 0.00857143 0 0.0214286 0.00857143 0 0.0321429 0.00857143 0 0.0428571 0.00857143 0 0.0535714 0.00857143 0 0.0642857 0.00857143 0 0.075 0.00857143 0 0 0.01 0 0.0107143 0.01 0 0.0214286 0.01 0 0.0321429 0.01 0 0.0428571 0.01 0 0.0535714 0.01 0 0.0642857 0.01 0 0.075 0.01 0 
</DataArray>
</Points> 
</Piece> 
</StructuredGrid> 
</VTKFile> 
