<?xml version="1.0"?> 
<VTKFile type="StructuredGrid" version="0.1"> 
<StructuredGrid WholeExtent="0 7 0 7 0 0"> 
<Piece Extent="0 7 0 7 0 0"> 
<PointData>
<DataArray type="Float32" Name="|E|" format="ascii" NumberOfComponents="3"> 
568.848 -4.41074e-06 0 -47.5552 -39.1744 0 -33.8542 -13.6497 0 -10.7351 -5.53761 0 -4.56765 3.81428 0 -2.06418 -2.09333 0 -0.257674 0.496903 0 0.44688 -2.26498e-06 0 260.672 -9.64297e-07 0 -34.4439 -64.6135 0 -24.2444 -17.1082 0 -11.677 -4.22837 0 -4.21484 -0.765348 0 -1.63288 -0.323168 0 -0.876856 0.0356634 0 -0.807808 -4.60146e-07 0 134.175 6.96164e-07 0 -19.2531 -63.6427 0 -19.5641 -20.1108 0 -10.3223 -5.90202 0 -3.87841 -2.16471 0 -1.55562 -0.431608 0 -0.77726 -0.188515 0 -0.588585 3.36149e-07 0 76.3095 -3.21306e-07 0 -8.9089 -56.088 0 -15.5144 -22.3267 0 -8.42568 -7.76241 0 -3.38466 -2.90512 0 -1.39337 -0.834724 0 -0.627944 -0.308594 0 -0.419699 -1.61584e-07 0 45.6558 -2.04891e-08 0 -3.20922 -48.483 0 -11.4649 -23.7305 0 -6.39148 -9.23021 0 -2.70845 -3.4827 0 -1.12725 -1.18742 0 -0.487063 -0.398142 0 -0.318516 6.33299e-08 0 26.4587 2.30968e-07 0 -0.66119 -42.76 0 -7.50092 -24.5032 0 -4.29598 -10.2422 0 -1.88575 -3.93466 0 -0.788609 -1.43635 0 -0.337982 -0.469182 0 -0.223563 -2.42144e-08 0 12.2591 -3.12924e-07 0 0.0733544 -39.3278 0 -3.69371 -24.8621 0 -2.15926 -10.8301 0 -0.966458 -4.22404 0 -0.405127 -1.58294 0 -0.174017 -0.515865 0 -0.116494 -1.49012e-08 0 1.07288e-06 -2.98023e-06 0 1.7624e-07 -38.1927 0 -1.11773e-07 -24.9634 0 5.65778e-08 -11.0227 0 1.47847e-08 -4.32347 0 -7.86968e-08 -1.63137 0 1.17347e-07 -0.53215 0 4.47035e-07 2.38419e-07 0 </DataArray> 
</PointData> 
<Points> 
<DataArray type="Float32" NumberOfComponents="3"> 
0.13 0.035 0 0.137857 0.0342857 0 0.145714 0.0335714 0 0.153571 0.0328571 0 0.161429 0.0321429 0 0.169286 0.0314286 0 0.177143 0.0307143 0 0.185 0.03 0 0.13 0.0364286 0 0.137857 0.0358163 0 0.145714 0.0352041 0 0.153571 0.0345918 0 0.161429 0.0339796 0 0.169286 0.0333673 0 0.177143 0.0327551 0 0.185 0.0321429 0 0.13 0.0378571 0 0.137857 0.0373469 0 0.145714 0.0368367 0 0.153571 0.0363265 0 0.161429 0.0358163 0 0.169286 0.0353061 0 0.177143 0.0347959 0 0.185 0.0342857 0 0.13 0.0392857 0 0.137857 0.0388776 0 0.145714 0.0384694 0 0.153571 0.0380612 0 0.161429 0.0376531 0 0.169286 0.0372449 0 0.177143 0.0368367 0 0.185 0.0364286 0 0.13 0.0407143 0 0.137857 0.0404082 0 0.145714 0.040102 0 0.153571 0.0397959 0 0.161429 0.0394898 0 0.169286 0.0391837 0 0.177143 0.0388776 0 0.185 0.0385714 0 0.13 0.0421429 0 0.137857 0.0419388 0 0.145714 0.0417347 0 0.153571 0.0415306 0 0.161429 0.0413265 0 0.169286 0.0411224 0 0.177143 0.0409184 0 0.185 0.0407143 0 0.13 0.0435714 0 0.137857 0.0434694 0 0.145714 0.0433673 0 0.153571 0.0432653 0 0.161429 0.0431633 0 0.169286 0.0430612 0 0.177143 0.0429592 0 0.185 0.0428571 0 0.13 0.045 0 0.137857 0.045 0 0.145714 0.045 0 0.153571 0.045 0 0.161429 0.045 0 0.169286 0.045 0 0.177143 0.045 0 0.185 0.045 0 
</DataArray>
</Points> 
</Piece> 
</StructuredGrid> 
</VTKFile> 
