<?xml version="1.0"?> 
<VTKFile type="StructuredGrid" version="0.1"> 
<StructuredGrid WholeExtent="0 7 0 7 0 0"> 
<Piece Extent="0 7 0 7 0 0"> 
<PointData>
<DataArray type="Float32" Name="|E|" format="ascii" NumberOfComponents="3"> 
-2.0261e+06 0 0 -2.02726e+06 23276.4 0 -2.03072e+06 46802 0 -2.03659e+06 69034.3 0 -2.04485e+06 93718.3 0 -2.0547e+06 132093 0 -2.0669e+06 165345 0 -2.08357e+06 163568 0 -2.00482e+06 0 0 -2.00829e+06 44301.7 0 -2.0186e+06 89064 0 -2.03594e+06 134188 0 -2.06152e+06 180366 0 -2.09233e+06 231299 0 -2.12776e+06 286052 0 -2.17554e+06 345043 0 -1.98194e+06 0 0 -1.98873e+06 68276.1 0 -2.00938e+06 137681 0 -2.04435e+06 209628 0 -2.09097e+06 285821 0 -2.15537e+06 365640 0 -2.24145e+06 460786 0 -2.33424e+06 564628 0 -1.95691e+06 0 0 -1.96828e+06 95101.7 0 -2.00264e+06 192526 0 -2.05781e+06 296702 0 -2.14031e+06 409126 0 -2.24872e+06 541789 0 -2.36851e+06 693297 0 -2.53045e+06 849724 0 -1.9304e+06 0 0 -1.94717e+06 124493 0 -1.99693e+06 254304 0 -2.07988e+06 396799 0 -2.2007e+06 558780 0 -2.34261e+06 754629 0 -2.5404e+06 1.00542e+06 0 -2.69932e+06 1.48313e+06 0 -1.90376e+06 0 0 -1.92592e+06 156518 0 -1.99206e+06 323992 0 -2.10776e+06 509474 0 -2.25761e+06 732385 0 -2.45719e+06 1.04159e+06 0 -2.5674e+06 1.56452e+06 0 -2.05695e+06 2.12748e+06 0 -1.87597e+06 0 0 -1.90391e+06 191691 0 -1.9886e+06 398992 0 -2.13344e+06 634817 0 -2.31842e+06 947957 0 -2.47598e+06 1.44934e+06 0 -2.07353e+06 1.94137e+06 0 -1.36138e+06 1.29584e+06 0 -1.84393e+06 0 0 -1.87955e+06 229807 0 -1.98607e+06 476163 0 -2.15523e+06 781649 0 -2.35642e+06 1.2164e+06 0 -2.22666e+06 1.76991e+06 0 -1.60096e+06 1.36644e+06 0 -1.69207e+06 444753 0 </DataArray> 
</PointData> 
<Points> 
<DataArray type="Float32" NumberOfComponents="3"> 
0 0.021 0 0.00228571 0.021 0 0.00457143 0.021 0 0.00685714 0.021 0 0.00914286 0.021 0 0.0114286 0.021 0 0.0137143 0.021 0 0.016 0.021 0 0 0.023 0 0.004 0.023 0 0.008 0.023 0 0.012 0.023 0 0.016 0.023 0 0.02 0.023 0 0.024 0.023 0 0.028 0.023 0 0 0.025 0 0.00571429 0.025 0 0.0114286 0.025 0 0.0171429 0.025 0 0.0228571 0.025 0 0.0285714 0.025 0 0.0342857 0.025 0 0.04 0.025 0 0 0.027 0 0.00742857 0.027 0 0.0148571 0.027 0 0.0222857 0.027 0 0.0297143 0.027 0 0.0371429 0.027 0 0.0445714 0.027 0 0.052 0.027 0 0 0.029 0 0.00914286 0.029 0 0.0182857 0.029 0 0.0274286 0.029 0 0.0365714 0.029 0 0.0457143 0.029 0 0.0548571 0.029 0 0.064 0.029 0 0 0.031 0 0.0108571 0.031 0 0.0217143 0.031 0 0.0325714 0.031 0 0.0434286 0.031 0 0.0542857 0.031 0 0.0651429 0.031 0 0.076 0.031 0 0 0.033 0 0.0125714 0.033 0 0.0251429 0.033 0 0.0377143 0.033 0 0.0502857 0.033 0 0.0628571 0.033 0 0.0754286 0.033 0 0.088 0.033 0 0 0.035 0 0.0142857 0.035 0 0.0285714 0.035 0 0.0428571 0.035 0 0.0571429 0.035 0 0.0714286 0.035 0 0.0857143 0.035 0 0.1 0.035 0 
</DataArray>
</Points> 
</Piece> 
</StructuredGrid> 
</VTKFile> 
