<?xml version="1.0"?> 
<VTKFile type="StructuredGrid" version="0.1"> 
<StructuredGrid WholeExtent="0 7 0 7 0 0"> 
<Piece Extent="0 7 0 7 0 0"> 
<PointData>
<DataArray type="Float32" Name="|E|" format="ascii" NumberOfComponents="3"> 
1.22093e+06 -124585 0 1.73635e+06 -19666.2 0 1.55411e+06 63724.5 0 1.19944e+06 65116.2 0 903749 47142.9 0 702558 30028 0 588590 14156.9 0 551863 0 0 1.22096e+06 -124588 0 1.74071e+06 -19642.6 0 1.55409e+06 72694.7 0 1.19856e+06 73949.1 0 902918 54012.5 0 701952 34023.9 0 588156 16159.9 0 551510 0 0 1.21611e+06 -124093 0 1.74549e+06 -19279.7 0 1.55425e+06 81728.3 0 1.19759e+06 82765.1 0 902026 60899.4 0 701288 37998.5 0 587655 18163.8 0 551075 0 0 1.20615e+06 -123077 0 1.75066e+06 -18466.7 0 1.5546e+06 90825.4 0 1.19653e+06 91551.6 0 901076 67817.8 0 700568 41942.4 0 587086 20169.2 0 550555 0 0 1.19074e+06 -121504 0 1.75622e+06 -17082.6 0 1.55514e+06 99985.6 0 1.19535e+06 100294 0 900069 74783.6 0 699792 45845.2 0 586446 22177.2 0 549944 0 0 1.16943e+06 -119330 0 1.76213e+06 -14992.9 0 1.5559e+06 109208 0 1.19406e+06 108976 0 899006 81814.8 0 698963 49695 0 585732 24188.6 0 549233 0 0 1.14166e+06 -116496 0 1.76835e+06 -12046.2 0 1.5569e+06 118489 0 1.19263e+06 117578 0 897890 88932.5 0 698081 53477.8 0 584939 26204.6 0 548412 0 0 1.10671e+06 -112930 0 1.77483e+06 -8070.38 0 1.55817e+06 127826 0 1.19106e+06 126078 0 896725 96161.1 0 697151 57177.7 0 584063 28226.3 0 547463 0 0 </DataArray> 
</PointData> 
<Points> 
<DataArray type="Float32" NumberOfComponents="3"> 
0.19 0.005 0 0.216143 0.005 0 0.242286 0.005 0 0.268429 0.005 0 0.294571 0.005 0 0.320714 0.005 0 0.346857 0.005 0 0.373 0.005 0 0.190071 0.0057 0 0.216204 0.0057 0 0.242337 0.0057 0 0.268469 0.0057 0 0.294602 0.0057 0 0.320735 0.0057 0 0.346867 0.0057 0 0.373 0.0057 0 0.190143 0.0064 0 0.216265 0.0064 0 0.242388 0.0064 0 0.26851 0.0064 0 0.294633 0.0064 0 0.320755 0.0064 0 0.346878 0.0064 0 0.373 0.0064 0 0.190214 0.0071 0 0.216327 0.0071 0 0.242439 0.0071 0 0.268551 0.0071 0 0.294663 0.0071 0 0.320776 0.0071 0 0.346888 0.0071 0 0.373 0.0071 0 0.190286 0.0078 0 0.216388 0.0078 0 0.24249 0.0078 0 0.268592 0.0078 0 0.294694 0.0078 0 0.320796 0.0078 0 0.346898 0.0078 0 0.373 0.0078 0 0.190357 0.0085 0 0.216449 0.0085 0 0.242541 0.0085 0 0.268633 0.0085 0 0.294724 0.0085 0 0.320816 0.0085 0 0.346908 0.0085 0 0.373 0.0085 0 0.190429 0.0092 0 0.21651 0.0092 0 0.242592 0.0092 0 0.268673 0.0092 0 0.294755 0.0092 0 0.320837 0.0092 0 0.346918 0.0092 0 0.373 0.0092 0 0.1905 0.0099 0 0.216571 0.0099 0 0.242643 0.0099 0 0.268714 0.0099 0 0.294786 0.0099 0 0.320857 0.0099 0 0.346929 0.0099 0 0.373 0.0099 0 
</DataArray>
</Points> 
</Piece> 
</StructuredGrid> 
</VTKFile> 
