<?xml version="1.0"?> 
<VTKFile type="StructuredGrid" version="0.1"> 
<StructuredGrid WholeExtent="0 7 0 7 0 0"> 
<Piece Extent="0 7 0 7 0 0"> 
<PointData>
<DataArray type="Float32" Name="|E|" format="ascii" NumberOfComponents="3"> 
838.228 2273.4 0 -72.2494 367.812 0 -40.8702 59.9345 0 0.919101 8.82273 0 -5.22501 15.3077 0 -1.16324 -4.97529 0 1.30162 2.13305 0 3.26941 -1.90735e-06 0 -564.301 1473.42 0 -155.471 232.228 0 -40.7032 53.2481 0 -7.57839 12.3024 0 -3.99312 7.4799 0 -1.43275 -0.177521 0 0.285241 0.907399 0 0.930551 2.18541e-07 0 -1072.3 851.192 0 -196.99 138.372 0 -44.7767 39.0351 0 -10.966 10.7599 0 -4.10587 5.21576 0 -1.54643 0.612076 0 -0.10283 0.624145 0 0.216608 -1.07801e-07 0 -1161.84 238.716 0 -200.208 55.0241 0 -46.4668 24.6941 0 -12.5727 8.30723 0 -4.38878 3.77849 0 -1.63988 0.801284 0 -0.297022 0.46887 0 -0.0502117 7.35745e-08 0 -992.696 -252.377 0 -174.475 -9.61032 0 -44.9414 11.8326 0 -13.2556 5.47711 0 -4.59493 2.81541 0 -1.71328 0.639247 0 -0.416868 0.39466 0 -0.167603 1.50874e-07 0 -661.569 -582.365 0 -133.028 -49.4101 0 -40.5124 1.13984 0 -13.4978 2.59385 0 -4.60938 2.17713 0 -1.75697 0.236441 0 -0.541021 0.380642 0 -0.326516 -3.72529e-07 0 -234.776 -743.769 0 -90.5875 -66.4335 0 -33.8832 -6.88143 0 -13.5794 0.125784 0 -4.4063 1.44663 0 -1.73893 -0.0892946 0 -0.735578 0.346053 0 -0.681747 6.25849e-07 0 470.674 -1079.92 0 -55.017 -121.254 0 -33.0577 -4.88891 0 -9.78128 4.95402 0 -5.66789 -8.28835 0 -1.28178 6.51313 0 -0.439151 -1.49934 0 0.446881 5.48363e-06 0 </DataArray> 
</PointData> 
<Points> 
<DataArray type="Float32" NumberOfComponents="3"> 
0.125 0.021 0 0.133571 0.0215714 0 0.142143 0.0221429 0 0.150714 0.0227143 0 0.159286 0.0232857 0 0.167857 0.0238571 0 0.176429 0.0244286 0 0.185 0.025 0 0.125714 0.023 0 0.134184 0.0233878 0 0.142653 0.0237755 0 0.151122 0.0241633 0 0.159592 0.024551 0 0.168061 0.0249388 0 0.176531 0.0253265 0 0.185 0.0257143 0 0.126429 0.025 0 0.134796 0.0252041 0 0.143163 0.0254082 0 0.151531 0.0256122 0 0.159898 0.0258163 0 0.168265 0.0260204 0 0.176633 0.0262245 0 0.185 0.0264286 0 0.127143 0.027 0 0.135408 0.0270204 0 0.143673 0.0270408 0 0.151939 0.0270612 0 0.160204 0.0270816 0 0.168469 0.027102 0 0.176735 0.0271224 0 0.185 0.0271429 0 0.127857 0.029 0 0.13602 0.0288367 0 0.144184 0.0286735 0 0.152347 0.0285102 0 0.16051 0.0283469 0 0.168673 0.0281837 0 0.176837 0.0280204 0 0.185 0.0278571 0 0.128571 0.031 0 0.136633 0.0306531 0 0.144694 0.0303061 0 0.152755 0.0299592 0 0.160816 0.0296122 0 0.168878 0.0292653 0 0.176939 0.0289184 0 0.185 0.0285714 0 0.129286 0.033 0 0.137245 0.0324694 0 0.145204 0.0319388 0 0.153163 0.0314082 0 0.161122 0.0308776 0 0.169082 0.0303469 0 0.177041 0.0298163 0 0.185 0.0292857 0 0.13 0.035 0 0.137857 0.0342857 0 0.145714 0.0335714 0 0.153571 0.0328571 0 0.161429 0.0321429 0 0.169286 0.0314286 0 0.177143 0.0307143 0 0.185 0.03 0 
</DataArray>
</Points> 
</Piece> 
</StructuredGrid> 
</VTKFile> 
