<?xml version="1.0"?> 
<VTKFile type="StructuredGrid" version="0.1"> 
<StructuredGrid WholeExtent="0 7 0 7 0 0"> 
<Piece Extent="0 7 0 7 0 0"> 
<PointData>
<DataArray type="Float32" Name="|E|" format="ascii" NumberOfComponents="3"> 
-1.5837e+06 1.781e+06 0 -1.722e+06 1.89616e+06 0 -1.89018e+06 1.99689e+06 0 -2.10775e+06 2.07417e+06 0 -2.40515e+06 2.10704e+06 0 -2.843e+06 2.04174e+06 0 -3.53616e+06 1.67232e+06 0 -4.73544e+06 -4.76837e-07 0 -1.47877e+06 2.09647e+06 0 -1.63706e+06 2.20071e+06 0 -1.82903e+06 2.30215e+06 0 -2.07394e+06 2.39628e+06 0 -2.40832e+06 2.47154e+06 0 -2.91012e+06 2.49227e+06 0 -3.77206e+06 2.31623e+06 0 -5.58317e+06 1.19046e+06 0 -1.31215e+06 2.4598e+06 0 -1.48052e+06 2.56386e+06 0 -1.68306e+06 2.67598e+06 0 -1.93942e+06 2.79806e+06 0 -2.28827e+06 2.93118e+06 0 -2.81714e+06 3.06971e+06 0 -3.76197e+06 3.15945e+06 0 -5.95373e+06 2.75952e+06 0 -1.05637e+06 2.81715e+06 0 -1.22459e+06 2.92348e+06 0 -1.42326e+06 3.04756e+06 0 -1.67002e+06 3.19784e+06 0 -2.0002e+06 3.38914e+06 0 -2.49694e+06 3.64992e+06 0 -3.4006e+06 4.02956e+06 0 -5.68929e+06 4.48139e+06 0 -743017 3.10881e+06 0 -905543 3.21083e+06 0 -1.09124e+06 3.33757e+06 0 -1.31356e+06 3.50228e+06 0 -1.5991e+06 3.73023e+06 0 -2.01141e+06 4.07848e+06 0 -2.74503e+06 4.69734e+06 0 -4.75632e+06 6.03832e+06 0 -436949 3.3234e+06 0 -594976 3.41026e+06 0 -767728 3.52656e+06 0 -964104 3.68757e+06 0 -1.20019e+06 3.92307e+06 0 -1.51134e+06 4.3041e+06 0 -2.00082e+06 5.04461e+06 0 -3.29418e+06 7.10728e+06 0 -183451 3.49018e+06 0 -340156 3.55028e+06 0 -504138 3.64557e+06 0 -680696 3.79036e+06 0 -877262 4.01449e+06 0 -1.1028e+06 4.38665e+06 0 -1.36186e+06 5.12738e+06 0 -1.59053e+06 7.45947e+06 0 -418.912 3.64041e+06 0 -154137 3.66136e+06 0 -310551 3.7279e+06 0 -473203 3.85122e+06 0 -640953 4.0577e+06 0 -805439 4.40382e+06 0 -896375 5.07795e+06 0 4.76837e-07 6.98106e+06 0 </DataArray> 
</PointData> 
<Points> 
<DataArray type="Float32" NumberOfComponents="3"> 
0.0678 0.0673333 0 0.0728286 0.0655714 0 0.0778571 0.0638095 0 0.0828857 0.0620476 0 0.0879143 0.0602857 0 0.0929429 0.0585238 0 0.0979714 0.0567619 0 0.103 0.055 0 0.0742571 0.0737143 0 0.0781377 0.0714863 0 0.0820994 0.0692117 0 0.0861448 0.066889 0 0.0902768 0.0645166 0 0.0944979 0.062093 0 0.0988113 0.0596165 0 0.10322 0.0570854 0 0.0807143 0.0800952 0 0.0836847 0.0774221 0 0.0867602 0.0746543 0 0.0899464 0.071787 0 0.0932494 0.0688145 0 0.0966757 0.065731 0 0.100232 0.0625302 0 0.103927 0.0592052 0 0.0871714 0.0864762 0 0.0894167 0.0833171 0 0.0917579 0.080023 0 0.0942013 0.076585 0 0.0967539 0.0729935 0 0.099423 0.069238 0 0.102217 0.0653069 0 0.105144 0.0611878 0 0.0936286 0.0928571 0 0.0952755 0.0891093 0 0.0969928 0.0852012 0 0.0987852 0.0811224 0 0.100658 0.0768616 0 0.102615 0.0724061 0 0.104665 0.0677425 0 0.106812 0.0628556 0 0.100086 0.0992381 0 0.1012 0.0947382 0 0.102354 0.0900792 0 0.103549 0.0852524 0 0.104789 0.0802487 0 0.106074 0.0750581 0 0.107409 0.06967 0 0.108795 0.0640728 0 0.106543 0.105619 0 0.107129 0.100147 0 0.107727 0.0945611 0 0.108337 0.0888568 0 0.108961 0.0830306 0 0.109598 0.0770785 0 0.110249 0.0709965 0 0.110915 0.0647801 0 0.113 0.112 0 0.113 0.105286 0 0.113 0.0985714 0 0.113 0.0918571 0 0.113 0.0851429 0 0.113 0.0784286 0 0.113 0.0717143 0 0.113 0.065 0 
</DataArray>
</Points> 
</Piece> 
</StructuredGrid> 
</VTKFile> 
