<?xml version="1.0"?> 
<VTKFile type="StructuredGrid" version="0.1"> 
<StructuredGrid WholeExtent="0 15 0 15 0 0"> 
<Piece Extent="0 15 0 15 0 0"> 
<PointData>
<DataArray type="Float32" Name="|E|" format="ascii" NumberOfComponents="3"> 
1.25181e+06 -127735 0 1.60897e+06 -103564 0 1.75833e+06 -18868.1 0 1.73011e+06 34535 0 1.59985e+06 64491 0 1.43079e+06 70615.5 0 1.25876e+06 68431.4 0 1.1002e+06 60953.4 0 961615 52436.3 0 844567 43579.7 0 748646 35177.6 0 672620 27296.5 0 615146 19952.3 0 575015 13048.1 0 551315 6444.65 0 543481 0 0 1.25443e+06 -128003 0 1.61105e+06 -109765 0 1.76054e+06 -20464.2 0 1.73106e+06 37371.6 0 1.59994e+06 68632.9 0 1.43051e+06 75359 0 1.25832e+06 72867.3 0 1.09976e+06 64946.6 0 961202 55842.9 0 844214 46417.9 0 748341 37464.8 0 672362 29071.8 0 614922 21250.1 0 574818 13896.6 0 551133 6864.02 0 543303 0 0 1.25554e+06 -128116 0 1.61342e+06 -116010 0 1.76287e+06 -22006 0 1.73208e+06 40238.9 0 1.60006e+06 72796.3 0 1.43024e+06 80108.7 0 1.25786e+06 77305.8 0 1.09931e+06 68939 0 960774 59248.2 0 843846 49254.6 0 748022 39750.7 0 672091 30846.1 0 614687 22547 0 574608 14744.4 0 550939 7283.1 0 543115 0 0 1.25511e+06 -128073 0 1.61606e+06 -122283 0 1.76531e+06 -23504.2 0 1.73316e+06 43145.3 0 1.6002e+06 76978.4 0 1.42996e+06 84867 0 1.2574e+06 81746.1 0 1.09884e+06 72930.9 0 960332 62652.1 0 843462 52089.7 0 747689 42035.2 0 671806 32619.2 0 614439 23843.1 0 574387 15591.8 0 550734 7701.9 0 542914 0 0 1.25313e+06 -127870 0 1.619e+06 -128569 0 1.76786e+06 -24970.1 0 1.73432e+06 46099.9 0 1.60037e+06 81176 0 1.42968e+06 89636.2 0 1.25693e+06 86187.3 0 1.09836e+06 76922.8 0 959874 66054.3 0 843062 54923.3 0 747342 44318.2 0 671508 34391.1 0 614178 25138.3 0 574155 16438.5 0 550517 8120.4 0 542703 0 0 1.24954e+06 -127505 0 1.62223e+06 -134851 0 1.77052e+06 -26415.6 0 1.73553e+06 49111.8 0 1.60056e+06 85385.6 0 1.42939e+06 94418.9 0 1.25645e+06 90628.5 0 1.09786e+06 80915.4 0 959402 69454.7 0 842647 57755.4 0 746980 46599.6 0 671197 36161.8 0 613905 26432.5 0 573910 17284.6 0 550289 8538.61 0 542481 0 0 1.24431e+06 -126970 0 1.62578e+06 -141109 0 1.7733e+06 -27853.3 0 1.73681e+06 52191 0 1.60078e+06 89603.6 0 1.42911e+06 99217.9 0 1.25596e+06 95068.9 0 1.09734e+06 84909.2 0 958914 72852.9 0 842217 60586.2 0 746605 48879.4 0 670873 37931.3 0 613620 27725.9 0 573654 18130.2 0 550050 8956.53 0 542247 0 0 1.23735e+06 -126260 0 1.62965e+06 -147325 0 1.77618e+06 -29297.2 0 1.73816e+06 55348.2 0 1.60102e+06 93825.7 0 1.42881e+06 104036 0 1.25547e+06 99507.1 0 1.09681e+06 88904.8 0 958412 76248.9 0 841771 63415.7 0 746216 51157.7 0 670535 39699.5 0 613323 29018.3 0 573386 18975 0 549799 9374.16 0 542002 0 0 1.22859e+06 -125366 0 1.63386e+06 -153476 0 1.77917e+06 -30762.3 0 1.73956e+06 58594.7 0 1.60129e+06 98047.4 0 1.42851e+06 108877 0 1.25496e+06 103942 0 1.09626e+06 92903 0 957895 79642.1 0 841309 66243.9 0 745813 53434.2 0 670184 41466.5 0 613013 30309.8 0 573106 19819.2 0 549538 9791.5 0 541746 0 0 1.21792e+06 -124277 0 1.63843e+06 -159537 0 1.78227e+06 -32265.5 0 1.74103e+06 61943.2 0 1.60158e+06 102263 0 1.42821e+06 113743 0 1.25444e+06 108372 0 1.09569e+06 96904.4 0 957363 83032.5 0 840832 69071 0 745396 55708.9 0 669819 43232.2 0 612691 31600.3 0 572814 20662.7 0 549264 10208.6 0 541479 0 0 1.20522e+06 -122982 0 1.64338e+06 -165480 0 1.78547e+06 -33825.7 0 1.74256e+06 65407.4 0 1.6019e+06 106467 0 1.42789e+06 118640 0 1.25392e+06 112796 0 1.09511e+06 100910 0 956817 86419.5 0 840338 71897.2 0 744965 57981.8 0 669441 44996.6 0 612357 32889.9 0 572511 21505.5 0 548980 10625.4 0 541201 0 0 1.19036e+06 -121465 0 1.64875e+06 -171274 0 1.78877e+06 -35463.9 0 1.74415e+06 69002.7 0 1.60224e+06 110653 0 1.42757e+06 123571 0 1.25339e+06 117212 0 1.09451e+06 104921 0 956256 89802.7 0 839829 74722.4 0 744520 60252.8 0 669049 46759.6 0 612010 34178.5 0 572196 22347.5 0 548684 11041.9 0 540912 0 0 1.17317e+06 -119711 0 1.65457e+06 -176883 0 1.79217e+06 -37204.3 0 1.74579e+06 72746 0 1.60261e+06 114812 0 1.42724e+06 128541 0 1.25285e+06 121617 0 1.09389e+06 108938 0 955682 93181.6 0 839303 77547 0 744062 62521.8 0 668644 48521.3 0 611652 35466.1 0 571869 23188.8 0 548377 11458.2 0 540611 0 0 1.15348e+06 -117702 0 1.66086e+06 -182266 0 1.79567e+06 -39073.7 0 1.74749e+06 76656.4 0 1.603e+06 118935 0 1.42689e+06 133556 0 1.25231e+06 126009 0 1.09325e+06 112963 0 955094 96555.8 0 838761 80371 0 743590 64788.7 0 668226 50281.6 0 611281 36752.7 0 571531 24029.2 0 548059 11874.2 0 540300 0 0 1.13107e+06 -115416 0 1.66766e+06 -187378 0 1.79925e+06 -41103.1 0 1.74924e+06 80755.1 0 1.60343e+06 123013 0 1.42654e+06 138622 0 1.25176e+06 130385 0 1.09259e+06 116997 0 954494 99924.5 0 838202 83194.8 0 743105 67053.5 0 667794 52040.4 0 610898 38038.4 0 571180 24868.7 0 547729 12290 0 539977 0 0 1.10572e+06 -112829 0 1.67502e+06 -192166 0 1.80292e+06 -43327 0 1.75104e+06 85065.8 0 1.60389e+06 127033 0 1.42616e+06 143747 0 1.2512e+06 134742 0 1.09191e+06 121042 0 953880 103287 0 837626 86018.5 0 742606 69315.9 0 667348 53797.9 0 610503 39323 0 570818 25707.3 0 547388 12705.7 0 539644 0 0 </DataArray> 
</PointData> 
<Points> 
<DataArray type="Float32" NumberOfComponents="3"> 
0.19 0.005 0 0.2022 0.005 0 0.2144 0.005 0 0.2266 0.005 0 0.2388 0.005 0 0.251 0.005 0 0.2632 0.005 0 0.2754 0.005 0 0.2876 0.005 0 0.2998 0.005 0 0.312 0.005 0 0.3242 0.005 0 0.3364 0.005 0 0.3486 0.005 0 0.3608 0.005 0 0.373 0.005 0 0.190033 0.00532667 0 0.202231 0.00532667 0 0.214429 0.00532667 0 0.226627 0.00532667 0 0.238824 0.00532667 0 0.251022 0.00532667 0 0.26322 0.00532667 0 0.275418 0.00532667 0 0.287616 0.00532667 0 0.299813 0.00532667 0 0.312011 0.00532667 0 0.324209 0.00532667 0 0.336407 0.00532667 0 0.348604 0.00532667 0 0.360802 0.00532667 0 0.373 0.00532667 0 0.190067 0.00565333 0 0.202262 0.00565333 0 0.214458 0.00565333 0 0.226653 0.00565333 0 0.238849 0.00565333 0 0.251044 0.00565333 0 0.26324 0.00565333 0 0.275436 0.00565333 0 0.287631 0.00565333 0 0.299827 0.00565333 0 0.312022 0.00565333 0 0.324218 0.00565333 0 0.336413 0.00565333 0 0.348609 0.00565333 0 0.360804 0.00565333 0 0.373 0.00565333 0 0.1901 0.00598 0 0.202293 0.00598 0 0.214487 0.00598 0 0.22668 0.00598 0 0.238873 0.00598 0 0.251067 0.00598 0 0.26326 0.00598 0 0.275453 0.00598 0 0.287647 0.00598 0 0.29984 0.00598 0 0.312033 0.00598 0 0.324227 0.00598 0 0.33642 0.00598 0 0.348613 0.00598 0 0.360807 0.00598 0 0.373 0.00598 0 0.190133 0.00630667 0 0.202324 0.00630667 0 0.214516 0.00630667 0 0.226707 0.00630667 0 0.238898 0.00630667 0 0.251089 0.00630667 0 0.26328 0.00630667 0 0.275471 0.00630667 0 0.287662 0.00630667 0 0.299853 0.00630667 0 0.312044 0.00630667 0 0.324236 0.00630667 0 0.336427 0.00630667 0 0.348618 0.00630667 0 0.360809 0.00630667 0 0.373 0.00630667 0 0.190167 0.00663333 0 0.202356 0.00663333 0 0.214544 0.00663333 0 0.226733 0.00663333 0 0.238922 0.00663333 0 0.251111 0.00663333 0 0.2633 0.00663333 0 0.275489 0.00663333 0 0.287678 0.00663333 0 0.299867 0.00663333 0 0.312056 0.00663333 0 0.324244 0.00663333 0 0.336433 0.00663333 0 0.348622 0.00663333 0 0.360811 0.00663333 0 0.373 0.00663333 0 0.1902 0.00696 0 0.202387 0.00696 0 0.214573 0.00696 0 0.22676 0.00696 0 0.238947 0.00696 0 0.251133 0.00696 0 0.26332 0.00696 0 0.275507 0.00696 0 0.287693 0.00696 0 0.29988 0.00696 0 0.312067 0.00696 0 0.324253 0.00696 0 0.33644 0.00696 0 0.348627 0.00696 0 0.360813 0.00696 0 0.373 0.00696 0 0.190233 0.00728667 0 0.202418 0.00728667 0 0.214602 0.00728667 0 0.226787 0.00728667 0 0.238971 0.00728667 0 0.251156 0.00728667 0 0.26334 0.00728667 0 0.275524 0.00728667 0 0.287709 0.00728667 0 0.299893 0.00728667 0 0.312078 0.00728667 0 0.324262 0.00728667 0 0.336447 0.00728667 0 0.348631 0.00728667 0 0.360816 0.00728667 0 0.373 0.00728667 0 0.190267 0.00761333 0 0.202449 0.00761333 0 0.214631 0.00761333 0 0.226813 0.00761333 0 0.238996 0.00761333 0 0.251178 0.00761333 0 0.26336 0.00761333 0 0.275542 0.00761333 0 0.287724 0.00761333 0 0.299907 0.00761333 0 0.312089 0.00761333 0 0.324271 0.00761333 0 0.336453 0.00761333 0 0.348636 0.00761333 0 0.360818 0.00761333 0 0.373 0.00761333 0 0.1903 0.00794 0 0.20248 0.00794 0 0.21466 0.00794 0 0.22684 0.00794 0 0.23902 0.00794 0 0.2512 0.00794 0 0.26338 0.00794 0 0.27556 0.00794 0 0.28774 0.00794 0 0.29992 0.00794 0 0.3121 0.00794 0 0.32428 0.00794 0 0.33646 0.00794 0 0.34864 0.00794 0 0.36082 0.00794 0 0.373 0.00794 0 0.190333 0.00826667 0 0.202511 0.00826667 0 0.214689 0.00826667 0 0.226867 0.00826667 0 0.239044 0.00826667 0 0.251222 0.00826667 0 0.2634 0.00826667 0 0.275578 0.00826667 0 0.287756 0.00826667 0 0.299933 0.00826667 0 0.312111 0.00826667 0 0.324289 0.00826667 0 0.336467 0.00826667 0 0.348644 0.00826667 0 0.360822 0.00826667 0 0.373 0.00826667 0 0.190367 0.00859333 0 0.202542 0.00859333 0 0.214718 0.00859333 0 0.226893 0.00859333 0 0.239069 0.00859333 0 0.251244 0.00859333 0 0.26342 0.00859333 0 0.275596 0.00859333 0 0.287771 0.00859333 0 0.299947 0.00859333 0 0.312122 0.00859333 0 0.324298 0.00859333 0 0.336473 0.00859333 0 0.348649 0.00859333 0 0.360824 0.00859333 0 0.373 0.00859333 0 0.1904 0.00892 0 0.202573 0.00892 0 0.214747 0.00892 0 0.22692 0.00892 0 0.239093 0.00892 0 0.251267 0.00892 0 0.26344 0.00892 0 0.275613 0.00892 0 0.287787 0.00892 0 0.29996 0.00892 0 0.312133 0.00892 0 0.324307 0.00892 0 0.33648 0.00892 0 0.348653 0.00892 0 0.360827 0.00892 0 0.373 0.00892 0 0.190433 0.00924667 0 0.202604 0.00924667 0 0.214776 0.00924667 0 0.226947 0.00924667 0 0.239118 0.00924667 0 0.251289 0.00924667 0 0.26346 0.00924667 0 0.275631 0.00924667 0 0.287802 0.00924667 0 0.299973 0.00924667 0 0.312144 0.00924667 0 0.324316 0.00924667 0 0.336487 0.00924667 0 0.348658 0.00924667 0 0.360829 0.00924667 0 0.373 0.00924667 0 0.190467 0.00957333 0 0.202636 0.00957333 0 0.214804 0.00957333 0 0.226973 0.00957333 0 0.239142 0.00957333 0 0.251311 0.00957333 0 0.26348 0.00957333 0 0.275649 0.00957333 0 0.287818 0.00957333 0 0.299987 0.00957333 0 0.312156 0.00957333 0 0.324324 0.00957333 0 0.336493 0.00957333 0 0.348662 0.00957333 0 0.360831 0.00957333 0 0.373 0.00957333 0 0.1905 0.0099 0 0.202667 0.0099 0 0.214833 0.0099 0 0.227 0.0099 0 0.239167 0.0099 0 0.251333 0.0099 0 0.2635 0.0099 0 0.275667 0.0099 0 0.287833 0.0099 0 0.3 0.0099 0 0.312167 0.0099 0 0.324333 0.0099 0 0.3365 0.0099 0 0.348667 0.0099 0 0.360833 0.0099 0 0.373 0.0099 0 
</DataArray>
</Points> 
</Piece> 
</StructuredGrid> 
</VTKFile> 
