<?xml version="1.0"?> 
<VTKFile type="StructuredGrid" version="0.1"> 
<StructuredGrid WholeExtent="0 15 0 15 0 0"> 
<Piece Extent="0 15 0 15 0 0"> 
<PointData>
<DataArray type="Float32" Name="|E|" format="ascii" NumberOfComponents="3"> 
-3.55916e+06 -1.54328e+06 0 -4.26981e+06 -1.08884e+06 0 -4.82474e+06 -459439 0 -5.18314e+06 262351 0 -5.35026e+06 996826 0 -5.35968e+06 1.68803e+06 0 -5.25379e+06 2.3072e+06 0 -5.07084e+06 2.84615e+06 0 -4.83977e+06 3.30836e+06 0 -4.58006e+06 3.70219e+06 0 -4.30359e+06 4.03664e+06 0 -4.0166e+06 4.31903e+06 0 -3.72063e+06 4.5527e+06 0 -3.41153e+06 4.73251e+06 0 -3.07625e+06 4.83444e+06 0 -2.68743e+06 4.79496e+06 0 -3.57232e+06 565456 0 -3.80873e+06 840568 0 -4.0019e+06 1.17721e+06 0 -4.13441e+06 1.56103e+06 0 -4.1938e+06 1.97092e+06 0 -4.17725e+06 2.3827e+06 0 -4.09163e+06 2.77483e+06 0 -3.94987e+06 3.13194e+06 0 -3.76674e+06 3.4451e+06 0 -3.55636e+06 3.70996e+06 0 -3.33174e+06 3.92478e+06 0 -3.10573e+06 4.08958e+06 0 -2.89179e+06 4.20679e+06 0 -2.70318e+06 4.28303e+06 0 -2.54831e+06 4.33088e+06 0 -2.42114e+06 4.36889e+06 0 -3.19695e+06 1.29078e+06 0 -3.33581e+06 1.49781e+06 0 -3.45101e+06 1.74446e+06 0 -3.52693e+06 2.02682e+06 0 -3.55105e+06 2.33247e+06 0 -3.51816e+06 2.64374e+06 0 -3.43142e+06 2.94259e+06 0 -3.30049e+06 3.21443e+06 0 -3.13871e+06 3.44981e+06 0 -2.96066e+06 3.64447e+06 0 -2.7805e+06 3.79905e+06 0 -2.61015e+06 3.91865e+06 0 -2.45718e+06 4.01176e+06 0 -2.32339e+06 4.08762e+06 0 -2.20694e+06 4.15304e+06 0 -2.11107e+06 4.21164e+06 0 -2.89948e+06 1.65128e+06 0 -2.99794e+06 1.81467e+06 0 -3.07676e+06 2.01512e+06 0 -3.12291e+06 2.24705e+06 0 -3.1261e+06 2.49934e+06 0 -3.082e+06 2.75676e+06 0 -2.99361e+06 3.00353e+06 0 -2.87014e+06 3.22699e+06 0 -2.72436e+06 3.41968e+06 0 -2.56957e+06 3.57986e+06 0 -2.41702e+06 3.71061e+06 0 -2.27404e+06 3.81784e+06 0 -2.14404e+06 3.90773e+06 0 -2.0282e+06 3.98514e+06 0 -1.92686e+06 4.05375e+06 0 -1.83617e+06 4.11617e+06 0 -2.67047e+06 1.8418e+06 0 -2.74457e+06 1.98594e+06 0 -2.80051e+06 2.16045e+06 0 -2.82755e+06 2.36222e+06 0 -2.81694e+06 2.58189e+06 0 -2.7653e+06 2.80605e+06 0 -2.67596e+06 3.02085e+06 0 -2.55779e+06 3.21557e+06 0 -2.4224e+06 3.38465e+06 0 -2.281e+06 3.52768e+06 0 -2.14218e+06 3.6478e+06 0 -2.01124e+06 3.74957e+06 0 -1.89084e+06 3.83738e+06 0 -1.78168e+06 3.91483e+06 0 -1.68292e+06 3.98432e+06 0 -1.59513e+06 4.04717e+06 0 -2.49136e+06 1.95857e+06 0 -2.54773e+06 2.08529e+06 0 -2.58701e+06 2.24164e+06 0 -2.59971e+06 2.42333e+06 0 -2.57845e+06 2.62148e+06 0 -2.52072e+06 2.82385e+06 0 -2.43001e+06 3.01813e+06 0 -2.31464e+06 3.19513e+06 0 -2.18491e+06 3.35041e+06 0 -2.05032e+06 3.48391e+06 0 -1.91793e+06 3.59825e+06 0 -1.79206e+06 3.697e+06 0 -1.67487e+06 3.78345e+06 0 -1.56717e+06 3.86009e+06 0 -1.46947e+06 3.92875e+06 0 -1.38138e+06 3.99106e+06 0 -2.34943e+06 2.02466e+06 0 -2.39043e+06 2.14136e+06 0 -2.41555e+06 2.28548e+06 0 -2.41625e+06 2.45339e+06 0 -2.38597e+06 2.6368e+06 0 -2.32271e+06 2.82443e+06 0 -2.22997e+06 3.00514e+06 0 -2.11538e+06 3.17079e+06 0 -1.98813e+06 3.31755e+06 0 -1.85652e+06 3.44533e+06 0 -1.72663e+06 3.55623e+06 0 -1.60229e+06 3.65302e+06 0 -1.48566e+06 3.73825e+06 0 -1.37783e+06 3.81402e+06 0 -1.27911e+06 3.88198e+06 0 -1.18955e+06 3.94313e+06 0 -2.23313e+06 2.06053e+06 0 -2.26067e+06 2.16973e+06 0 -2.27336e+06 2.30547e+06 0 -2.26347e+06 2.4639e+06 0 -2.2251e+06 2.63716e+06 0 -2.15656e+06 2.81472e+06 0 -2.06117e+06 2.98631e+06 0 -1.94595e+06 3.14454e+06 0 -1.8192e+06 3.28589e+06 0 -1.68831e+06 3.41014e+06 0 -1.5588e+06 3.51893e+06 0 -1.43425e+06 3.61448e+06 0 -1.31682e+06 3.69895e+06 0 -1.20766e+06 3.77411e+06 0 -1.10733e+06 3.84128e+06 0 -1.01618e+06 3.90168e+06 0 -2.13662e+06 2.07432e+06 0 -2.15116e+06 2.17905e+06 0 -2.15238e+06 2.30935e+06 0 -2.13282e+06 2.46144e+06 0 -2.08695e+06 2.62779e+06 0 -2.01322e+06 2.7985e+06 0 -1.91475e+06 2.96398e+06 0 -1.79797e+06 3.11735e+06 0 -1.67045e+06 3.25529e+06 0 -1.53897e+06 3.37742e+06 0 -1.40864e+06 3.48502e+06 0 -1.2829e+06 3.57997e+06 0 -1.16393e+06 3.66412e+06 0 -1.05301e+06 3.73903e+06 0 -950884 3.80604e+06 0 -857827 3.86614e+06 0 -2.05402e+06 2.07175e+06 0 -2.05657e+06 2.17451e+06 0 -2.04711e+06 2.30177e+06 0 -2.01857e+06 2.44992e+06 0 -1.96566e+06 2.61179e+06 0 -1.88686e+06 2.77797e+06 0 -1.78502e+06 2.93947e+06 0 -1.66607e+06 3.08977e+06 0 -1.53702e+06 3.22568e+06 0 -1.40414e+06 3.34669e+06 0 -1.27228e+06 3.45384e+06 0 -1.1448e+06 3.54877e+06 0 -1.02391e+06 3.63313e+06 0 -911016 3.70842e+06 0 -806913 3.77584e+06 0 -712086 3.83643e+06 0 -1.98223e+06 2.057e+06 0 -1.97328e+06 2.15967e+06 0 -1.9538e+06 2.2858e+06 0 -1.91686e+06 2.43191e+06 0 -1.85728e+06 2.59112e+06 0 -1.77353e+06 2.75454e+06 0 -1.66815e+06 2.9136e+06 0 -1.54667e+06 3.06214e+06 0 -1.41559e+06 3.19704e+06 0 -1.28082e+06 3.31772e+06 0 -1.147e+06 3.42505e+06 0 -1.01744e+06 3.52052e+06 0 -894409 3.60569e+06 0 -779387 3.68199e+06 0 -673317 3.75066e+06 0 -576739 3.81271e+06 0 -1.91845e+06 2.03251e+06 0 -1.89865e+06 2.13692e+06 0 -1.86976e+06 2.26354e+06 0 -1.82493e+06 2.40911e+06 0 -1.75904e+06 2.56713e+06 0 -1.67046e+06 2.72912e+06 0 -1.56149e+06 2.88694e+06 0 -1.43724e+06 3.0347e+06 0 -1.30381e+06 3.16939e+06 0 -1.16683e+06 3.29037e+06 0 -1.03077e+06 3.39844e+06 0 -898912 3.495e+06 0 -773575 3.58161e+06 0 -656341 3.6597e+06 0 -548257 3.73054e+06 0 -449992 3.7952e+06 0 -1.86076e+06 2.00041e+06 0 -1.83078e+06 2.10802e+06 0 -1.79304e+06 2.23647e+06 0 -1.74079e+06 2.38275e+06 0 -1.66891e+06 2.54073e+06 0 -1.57567e+06 2.70235e+06 0 -1.46309e+06 2.85985e+06 0 -1.33593e+06 3.0076e+06 0 -1.19996e+06 3.14271e+06 0 -1.06054e+06 3.26454e+06 0 -922040 3.37387e+06 0 -787715 3.47209e+06 0 -659932 3.56079e+06 0 -540371 3.64149e+06 0 -430213 3.71557e+06 0 -330263 3.78418e+06 0 -1.80777e+06 1.96217e+06 0 -1.76822e+06 2.07429e+06 0 -1.7222e+06 2.20568e+06 0 -1.66298e+06 2.35371e+06 0 -1.58543e+06 2.51258e+06 0 -1.48767e+06 2.67467e+06 0 -1.37151e+06 2.83259e+06 0 -1.24137e+06 2.98096e+06 0 -1.10271e+06 3.11701e+06 0 -960705 3.24017e+06 0 -819598 3.35124e+06 0 -682643 3.45167e+06 0 -552256 3.54315e+06 0 -430224 3.62736e+06 0 -317867 3.70584e+06 0 -216169 3.77993e+06 0 -1.75837e+06 1.91897e+06 0 -1.7099e+06 2.0367e+06 0 -1.65614e+06 2.17202e+06 0 -1.59037e+06 2.32263e+06 0 -1.50745e+06 2.48317e+06 0 -1.40536e+06 2.64642e+06 0 -1.28565e+06 2.80534e+06 0 -1.15249e+06 2.95484e+06 0 -1.01105e+06 3.09228e+06 0 -866324 3.21719e+06 0 -722461 3.33045e+06 0 -582704 3.43363e+06 0 -449526 3.52862e+06 0 -324818 3.6173e+06 0 -210062 3.70147e+06 0 -106464 3.78279e+06 0 -1.71174e+06 1.87175e+06 0 -1.65501e+06 1.99607e+06 0 -1.59403e+06 2.13611e+06 0 -1.52213e+06 2.29002e+06 0 -1.43411e+06 2.45286e+06 0 -1.32785e+06 2.61782e+06 0 -1.20467e+06 2.77825e+06 0 -1.06846e+06 2.92929e+06 0 -924166 3.0685e+06 0 -776600 3.19554e+06 0 -629828 3.31141e+06 0 -487078 3.4179e+06 0 -350871 3.51712e+06 0 -223210 3.61129e+06 0 -105759 3.70258e+06 0 -0.312145 3.79311e+06 0 </DataArray> 
</PointData> 
<Points> 
<DataArray type="Float32" NumberOfComponents="3"> 
0.099942 0.0500069 0 0.0997698 0.0505122 0 0.0996727 0.0510751 0 0.0996602 0.0516919 0 0.0997399 0.0523565 0 0.099917 0.0530604 0 0.100194 0.053793 0 0.100568 0.0545418 0 0.101036 0.0552935 0 0.101588 0.0560344 0 0.102214 0.0567515 0 0.102899 0.0574328 0 0.103628 0.0580685 0 0.104387 0.0586511 0 0.105161 0.0591753 0 0.105935 0.0596385 0 0.0977992 0.0508398 0 0.0977714 0.0515672 0 0.0978335 0.0523578 0 0.097993 0.0532048 0 0.0982554 0.0540991 0 0.0986231 0.0550289 0 0.0990953 0.0559805 0 0.0996675 0.0569385 0 0.100332 0.0578868 0 0.101077 0.0588096 0 0.101889 0.0596919 0 0.102753 0.0605208 0 0.103652 0.0612854 0 0.104571 0.0619779 0 0.105494 0.0625933 0 0.106406 0.0631293 0 0.0956564 0.0516727 0 0.095783 0.052617 0 0.0960118 0.0536282 0 0.0963485 0.0546971 0 0.0967961 0.0558121 0 0.0973546 0.0569589 0 0.0980204 0.0581213 0 0.0987866 0.0592818 0 0.0996428 0.0604224 0 0.100576 0.0615255 0 0.101571 0.0625749 0 0.10261 0.0635564 0 0.103676 0.0644585 0 0.104753 0.0652728 0 0.105825 0.065994 0 0.106877 0.0666201 0 0.0935136 0.0525055 0 0.0938046 0.0536616 0 0.0942076 0.0548865 0 0.0947262 0.0561692 0 0.0953613 0.0574962 0 0.0961105 0.0588514 0 0.0969682 0.0602169 0 0.0979251 0.0615736 0 0.0989692 0.0629022 0 0.100086 0.0641841 0 0.101258 0.065402 0 0.102469 0.0665409 0 0.1037 0.0675887 0 0.104934 0.0685362 0 0.106155 0.0693778 0 0.107348 0.0701108 0 0.0913708 0.0533384 0 0.091836 0.0547009 0 0.0924204 0.0561328 0 0.0931257 0.0576216 0 0.0939505 0.0591523 0 0.0948904 0.0607077 0 0.0959379 0.0622687 0 0.0970823 0.0638155 0 0.0983102 0.0653281 0 0.0996058 0.0667872 0 0.100952 0.0681749 0 0.10233 0.0694757 0 0.103723 0.0706769 0 0.105113 0.0717686 0 0.106483 0.0727446 0 0.107819 0.0736016 0 0.089228 0.0541713 0 0.0898773 0.055735 0 0.0906502 0.0573673 0 0.0915465 0.0590547 0 0.0925629 0.0607811 0 0.0936935 0.0625286 0 0.094929 0.064278 0 0.0962577 0.0660091 0 0.0976654 0.0677017 0 0.0991357 0.0693363 0 0.100651 0.0708951 0 0.102194 0.072362 0 0.103746 0.0737239 0 0.10529 0.0749705 0 0.106809 0.0760947 0 0.10829 0.0770924 0 0.0870852 0.0550041 0 0.0879282 0.056764 0 0.0888966 0.0585903 0 0.0899882 0.0604687 0 0.0911982 0.0623831 0 0.0925191 0.0643153 0 0.0939407 0.0662463 0 0.0954507 0.068156 0 0.0970343 0.0700247 0 0.0986753 0.0718333 0 0.100357 0.073564 0 0.10206 0.0752009 0 0.103769 0.0767306 0 0.105465 0.0781423 0 0.107134 0.0794281 0 0.108761 0.0805831 0 0.0849424 0.055837 0 0.0859889 0.0577879 0 0.0871595 0.0598018 0 0.0884504 0.0618642 0 0.0898556 0.063959 0 0.0913666 0.0660687 0 0.0929725 0.0681746 0 0.0946607 0.0702576 0 0.0964165 0.0722988 0 0.0982242 0.0742797 0 0.100067 0.0761832 0 0.101928 0.0779937 0 0.103791 0.0796977 0 0.105639 0.0812844 0 0.107457 0.082745 0 0.109232 0.0840739 0 0.0827996 0.0566699 0 0.0840591 0.0588068 0 0.0854385 0.061002 0 0.0869327 0.0632414 0 0.0885347 0.0655095 0 0.0902354 0.0677896 0 0.0920237 0.0700642 0 0.0938871 0.0723154 0 0.0958116 0.0745255 0 0.0977822 0.076677 0 0.0997832 0.078754 0 0.101799 0.0807413 0 0.103813 0.0826261 0 0.105811 0.0843971 0 0.107779 0.0860455 0 0.109703 0.0875646 0 0.0806568 0.0575028 0 0.0821389 0.0598206 0 0.0837335 0.062191 0 0.0854348 0.0646007 0 0.087235 0.0670352 0 0.0891249 0.0694791 0 0.0910937 0.0719164 0 0.0931295 0.0743308 0 0.0952192 0.0767061 0 0.097349 0.0790267 0 0.0995045 0.0812777 0 0.101671 0.083445 0 0.103835 0.0855164 0 0.105982 0.0874811 0 0.108099 0.0893298 0 0.110174 0.0910554 0 0.078514 0.0583356 0 0.0802281 0.0608294 0 0.0820443 0.0633691 0 0.0839561 0.0659425 0 0.0859559 0.0685367 0 0.0880345 0.0711379 0 0.090182 0.0737321 0 0.0923874 0.0763049 0 0.0946389 0.0788423 0 0.0969242 0.0813302 0 0.0992307 0.0837556 0 0.101546 0.0861058 0 0.103857 0.0883695 0 0.106151 0.0905365 0 0.108418 0.0925979 0 0.110645 0.0945462 0 0.0763712 0.0591685 0 0.0783266 0.0618333 0 0.0803705 0.0645363 0 0.0824964 0.0672671 0 0.0846969 0.0700145 0 0.0869638 0.0727669 0 0.0892881 0.0755124 0 0.0916603 0.0782391 0 0.0940704 0.0809352 0 0.0965078 0.0835889 0 0.0989619 0.0861889 0 0.101422 0.0887246 0 0.103878 0.091186 0 0.106319 0.0935638 0 0.108734 0.0958499 0 0.111116 0.0980369 0 0.0742284 0.0600014 0 0.0764345 0.0628322 0 0.0787121 0.0656929 0 0.0810553 0.0685749 0 0.0834576 0.0714692 0 0.0859121 0.0743668 0 0.0884114 0.0772584 0 0.0909478 0.0801346 0 0.0935132 0.0829862 0 0.0960993 0.0858039 0 0.0986979 0.0885789 0 0.1013 0.0913025 0 0.103899 0.0939666 0 0.106484 0.0965635 0 0.10905 0.099086 0 0.111587 0.101528 0 0.0720856 0.0608343 0 0.0745516 0.0638263 0 0.0770688 0.066839 0 0.0796324 0.069866 0 0.0822375 0.0729013 0 0.084879 0.0759385 0 0.0875515 0.078971 0 0.0902494 0.0819925 0 0.0929671 0.0849965 0 0.0956987 0.0879767 0 0.0984385 0.0909267 0 0.101181 0.0938405 0 0.103919 0.0967121 0 0.106649 0.0995358 0 0.109364 0.102306 0 0.112058 0.105018 0 0.0699428 0.0616671 0 0.0726779 0.0648156 0 0.0754404 0.0679746 0 0.0782274 0.071141 0 0.0810363 0.0743114 0 0.083864 0.0774826 0 0.0867078 0.0806513 0 0.0895647 0.083814 0 0.0924317 0.0869674 0 0.0953057 0.0901083 0 0.0981837 0.0932334 0 0.101063 0.0963393 0 0.10394 0.099423 0 0.106812 0.102481 0 0.109676 0.105511 0 0.112529 0.108509 0 0.0678 0.0625 0 0.0708133 0.0658 0 0.0738267 0.0691 0 0.07684 0.0724 0 0.0798533 0.0757 0 0.0828667 0.079 0 0.08588 0.0823 0 0.0888933 0.0856 0 0.0919067 0.0889 0 0.09492 0.0922 0 0.0979333 0.0955 0 0.100947 0.0988 0 0.10396 0.1021 0 0.106973 0.1054 0 0.109987 0.1087 0 0.113 0.112 0 
</DataArray>
</Points> 
</Piece> 
</StructuredGrid> 
</VTKFile> 
