<?xml version="1.0"?> 
<VTKFile type="StructuredGrid" version="0.1"> 
<StructuredGrid WholeExtent="0 15 0 15 0 0"> 
<Piece Extent="0 15 0 15 0 0"> 
<PointData>
<DataArray type="Float32" Name="|E|" format="ascii" NumberOfComponents="3"> 
1.712e+06 -682877 0 1.97863e+06 -273859 0 1.96412e+06 66597.6 0 1.7882e+06 238497 0 1.5787e+06 296085 0 1.37791e+06 296538 0 1.19848e+06 272286 0 1.04301e+06 238749 0 911324 203030 0 801876 168248 0 712937 135548 0 642746 105171 0 589796 76897.9 0 552861 50302.6 0 531057 24859.5 0 523850 0 0 1.76295e+06 -703199 0 2.02517e+06 -269400 0 1.98524e+06 89519.7 0 1.79174e+06 262661 0 1.57457e+06 317827 0 1.37113e+06 315217 0 1.19129e+06 288277 0 1.03632e+06 252265 0 905434 214332 0 796826 177537 0 708649 143009 0 639090 110955 0 586631 81128.2 0 550043 53071.5 0 528445 26228.6 0 521306 0 0 1.81574e+06 -724255 0 2.07393e+06 -261432 0 2.00626e+06 115143 0 1.79469e+06 287969 0 1.56997e+06 339991 0 1.36401e+06 333975 0 1.18382e+06 304231 0 1.02938e+06 265692 0 899334 225539 0 791585 186738 0 704184 150395 0 635270 116680 0 583312 85315.5 0 547077 55812.3 0 525689 27583.9 0 518620 0 0 1.87093e+06 -746270 0 2.12505e+06 -249556 0 2.02691e+06 143518 0 1.79694e+06 314389 0 1.56486e+06 362545 0 1.35654e+06 352795 0 1.17606e+06 320142 0 1.02222e+06 279023 0 893021 236649 0 786153 195848 0 699543 157706 0 631287 122345 0 579838 89458.9 0 543963 58524.4 0 522789 28924.9 0 515791 0 0 1.92924e+06 -769528 0 2.1786e+06 -233265 0 2.04691e+06 174660 0 1.79838e+06 341891 0 1.55918e+06 385450 0 1.34868e+06 371666 0 1.16801e+06 336001 0 1.01481e+06 292256 0 886494 247659 0 780531 204865 0 694728 164940 0 627141 127950 0 576211 93557.4 0 540703 61207.3 0 519747 30251.5 0 512821 0 0 1.99159e+06 -794399 0 2.23461e+06 -211941 0 2.06594e+06 208534 0 1.79891e+06 370445 0 1.55289e+06 408657 0 1.34044e+06 390574 0 1.15965e+06 351797 0 1.00716e+06 305385 0 879752 258566 0 774720 213788 0 689738 172095 0 622834 133492 0 572432 97610.1 0 537297 63860.2 0 516563 31563.3 0 509711 0 0 2.05922e+06 -821374 0 2.29304e+06 -184857 0 2.08364e+06 245050 0 1.79845e+06 400027 0 1.54595e+06 432102 0 1.3318e+06 409514 0 1.15098e+06 367516 0 999266 318408 0 872796 269366 0 768722 222613 0 684574 179169 0 618367 138970 0 568500 101616 0 533745 66482.7 0 513237 32860 0 506460 0 0 2.13381e+06 -851127 0 2.35372e+06 -151172 0 2.09965e+06 284049 0 1.79689e+06 430621 0 1.53834e+06 455707 0 1.32274e+06 428483 0 1.14199e+06 383139 0 991132 331322 0 865625 280054 0 762537 231340 0 679236 186161 0 613740 144384 0 564418 105575 0 530050 69074.2 0 509771 34141.2 0 503069 0 0 2.21775e+06 -884606 0 2.41629e+06 -109963 0 2.11358e+06 325310 0 1.79415e+06 462218 0 1.53003e+06 479378 0 1.31325e+06 447489 0 1.13268e+06 398644 0 982754 344129 0 858239 290626 0 756165 239967 0 673727 193069 0 608956 149732 0 560186 109485 0 526212 71634 0 506165 35406.9 0 499541 0 0 2.31443e+06 -923172 0 2.48014e+06 -60273.6 0 2.12503e+06 368564 0 1.79015e+06 494803 0 1.521e+06 503012 0 1.3033e+06 466544 0 1.12306e+06 414003 0 974125 356830 0 850641 301073 0 749608 248493 0 668048 199890 0 604014 155012 0 555806 113345 0 522231 74161.4 0 502420 36656.6 0 495874 0 0 2.42884e+06 -968808 0 2.54428e+06 -1218.11 0 2.13367e+06 413551 0 1.78481e+06 528325 0 1.51127e+06 526511 0 1.29289e+06 485659 0 1.11313e+06 429185 0 965240 369431 0 842835 311387 0 742864 256917 0 662200 206623 0 598916 160225 0 551277 117156 0 518109 76655.9 0 498537 37890.2 0 492071 0 0 2.56833e+06 -1.02445e+06 0 2.60716e+06 67819.6 0 2.1392e+06 460136 0 1.77805e+06 562629 0 1.50085e+06 549824 0 1.28197e+06 504826 0 1.10291e+06 444167 0 956088 381933 0 834829 321561 0 735931 265239 0 656187 213265 0 593662 165368 0 546603 120915 0 513846 79116.7 0 494518 39107.7 0 488132 0 0 2.74388e+06 -1.09447e+06 0 2.66647e+06 146851 0 2.14147e+06 508534 0 1.76978e+06 597315 0 1.48975e+06 573020 0 1.27051e+06 523979 0 1.09241e+06 458953 0 946657 394326 0 826629 331591 0 728806 273458 0 650012 219814 0 588252 170441 0 541785 124623 0 509443 81543 0 490363 40308.9 0 484058 0 0 2.972e+06 -1.18546e+06 0 2.71878e+06 234708 0 2.14048e+06 559716 0 1.75993e+06 631487 0 1.47799e+06 596445 0 1.25851e+06 542908 0 1.08164e+06 473615 0 936941 406569 0 818244 341488 0 721487 281565 0 643679 226270 0 582686 175441 0 536824 128279 0 504902 83934.4 0 486073 41493.3 0 479851 0 0 3.2777e+06 -1.3074e+06 0 2.75906e+06 328070 0 2.13654e+06 616136 0 1.74846e+06 663277 0 1.46554e+06 621004 0 1.24599e+06 561101 0 1.07059e+06 488380 0 926955 418547 0 809666 351294 0 713979 289541 0 637188 232637 0 576966 180367 0 531721 131880 0 500222 86291.4 0 481649 42659.7 0 475513 0 0 3.69898e+06 -1.47544e+06 0 2.78003e+06 420107 0 2.13025e+06 682837 0 1.73549e+06 689115 0 1.45218e+06 648621 0 1.23314e+06 577477 0 1.05913e+06 503773 0 916775 430000 0 800854 361118 0 706309 297339 0 630526 238926 0 571100 185217 0 526475 135423 0 495408 88617 0 477092 43804.3 0 471041 0 0 </DataArray> 
</PointData> 
<Points> 
<DataArray type="Float32" NumberOfComponents="3"> 
0.1947 0.02 0 0.206587 0.02 0 0.218473 0.02 0 0.23036 0.02 0 0.242247 0.02 0 0.254133 0.02 0 0.26602 0.02 0 0.277907 0.02 0 0.289793 0.02 0 0.30168 0.02 0 0.313567 0.02 0 0.325453 0.02 0 0.33734 0.02 0 0.349227 0.02 0 0.361113 0.02 0 0.373 0.02 0 0.195173 0.0211867 0 0.207028 0.0211867 0 0.218884 0.0211867 0 0.230739 0.0211867 0 0.242594 0.0211867 0 0.254449 0.0211867 0 0.266304 0.0211867 0 0.278159 0.0211867 0 0.290014 0.0211867 0 0.301869 0.0211867 0 0.313724 0.0211867 0 0.32558 0.0211867 0 0.337435 0.0211867 0 0.34929 0.0211867 0 0.361145 0.0211867 0 0.373 0.0211867 0 0.195647 0.0223733 0 0.20747 0.0223733 0 0.219294 0.0223733 0 0.231117 0.0223733 0 0.242941 0.0223733 0 0.254764 0.0223733 0 0.266588 0.0223733 0 0.278412 0.0223733 0 0.290235 0.0223733 0 0.302059 0.0223733 0 0.313882 0.0223733 0 0.325706 0.0223733 0 0.337529 0.0223733 0 0.349353 0.0223733 0 0.361176 0.0223733 0 0.373 0.0223733 0 0.19612 0.02356 0 0.207912 0.02356 0 0.219704 0.02356 0 0.231496 0.02356 0 0.243288 0.02356 0 0.25508 0.02356 0 0.266872 0.02356 0 0.278664 0.02356 0 0.290456 0.02356 0 0.302248 0.02356 0 0.31404 0.02356 0 0.325832 0.02356 0 0.337624 0.02356 0 0.349416 0.02356 0 0.361208 0.02356 0 0.373 0.02356 0 0.196593 0.0247467 0 0.208354 0.0247467 0 0.220114 0.0247467 0 0.231875 0.0247467 0 0.243635 0.0247467 0 0.255396 0.0247467 0 0.267156 0.0247467 0 0.278916 0.0247467 0 0.290677 0.0247467 0 0.302437 0.0247467 0 0.314198 0.0247467 0 0.325958 0.0247467 0 0.337719 0.0247467 0 0.349479 0.0247467 0 0.36124 0.0247467 0 0.373 0.0247467 0 0.197067 0.0259333 0 0.208796 0.0259333 0 0.220524 0.0259333 0 0.232253 0.0259333 0 0.243982 0.0259333 0 0.255711 0.0259333 0 0.26744 0.0259333 0 0.279169 0.0259333 0 0.290898 0.0259333 0 0.302627 0.0259333 0 0.314356 0.0259333 0 0.326084 0.0259333 0 0.337813 0.0259333 0 0.349542 0.0259333 0 0.361271 0.0259333 0 0.373 0.0259333 0 0.19754 0.02712 0 0.209237 0.02712 0 0.220935 0.02712 0 0.232632 0.02712 0 0.244329 0.02712 0 0.256027 0.02712 0 0.267724 0.02712 0 0.279421 0.02712 0 0.291119 0.02712 0 0.302816 0.02712 0 0.314513 0.02712 0 0.326211 0.02712 0 0.337908 0.02712 0 0.349605 0.02712 0 0.361303 0.02712 0 0.373 0.02712 0 0.198013 0.0283067 0 0.209679 0.0283067 0 0.221345 0.0283067 0 0.233011 0.0283067 0 0.244676 0.0283067 0 0.256342 0.0283067 0 0.268008 0.0283067 0 0.279674 0.0283067 0 0.29134 0.0283067 0 0.303005 0.0283067 0 0.314671 0.0283067 0 0.326337 0.0283067 0 0.338003 0.0283067 0 0.349668 0.0283067 0 0.361334 0.0283067 0 0.373 0.0283067 0 0.198487 0.0294933 0 0.210121 0.0294933 0 0.221755 0.0294933 0 0.233389 0.0294933 0 0.245024 0.0294933 0 0.256658 0.0294933 0 0.268292 0.0294933 0 0.279926 0.0294933 0 0.29156 0.0294933 0 0.303195 0.0294933 0 0.314829 0.0294933 0 0.326463 0.0294933 0 0.338097 0.0294933 0 0.349732 0.0294933 0 0.361366 0.0294933 0 0.373 0.0294933 0 0.19896 0.03068 0 0.210563 0.03068 0 0.222165 0.03068 0 0.233768 0.03068 0 0.245371 0.03068 0 0.256973 0.03068 0 0.268576 0.03068 0 0.280179 0.03068 0 0.291781 0.03068 0 0.303384 0.03068 0 0.314987 0.03068 0 0.326589 0.03068 0 0.338192 0.03068 0 0.349795 0.03068 0 0.361397 0.03068 0 0.373 0.03068 0 0.199433 0.0318667 0 0.211004 0.0318667 0 0.222576 0.0318667 0 0.234147 0.0318667 0 0.245718 0.0318667 0 0.257289 0.0318667 0 0.26886 0.0318667 0 0.280431 0.0318667 0 0.292002 0.0318667 0 0.303573 0.0318667 0 0.315144 0.0318667 0 0.326716 0.0318667 0 0.338287 0.0318667 0 0.349858 0.0318667 0 0.361429 0.0318667 0 0.373 0.0318667 0 0.199907 0.0330533 0 0.211446 0.0330533 0 0.222986 0.0330533 0 0.234525 0.0330533 0 0.246065 0.0330533 0 0.257604 0.0330533 0 0.269144 0.0330533 0 0.280684 0.0330533 0 0.292223 0.0330533 0 0.303763 0.0330533 0 0.315302 0.0330533 0 0.326842 0.0330533 0 0.338381 0.0330533 0 0.349921 0.0330533 0 0.36146 0.0330533 0 0.373 0.0330533 0 0.20038 0.03424 0 0.211888 0.03424 0 0.223396 0.03424 0 0.234904 0.03424 0 0.246412 0.03424 0 0.25792 0.03424 0 0.269428 0.03424 0 0.280936 0.03424 0 0.292444 0.03424 0 0.303952 0.03424 0 0.31546 0.03424 0 0.326968 0.03424 0 0.338476 0.03424 0 0.349984 0.03424 0 0.361492 0.03424 0 0.373 0.03424 0 0.200853 0.0354267 0 0.21233 0.0354267 0 0.223806 0.0354267 0 0.235283 0.0354267 0 0.246759 0.0354267 0 0.258236 0.0354267 0 0.269712 0.0354267 0 0.281188 0.0354267 0 0.292665 0.0354267 0 0.304141 0.0354267 0 0.315618 0.0354267 0 0.327094 0.0354267 0 0.338571 0.0354267 0 0.350047 0.0354267 0 0.361524 0.0354267 0 0.373 0.0354267 0 0.201327 0.0366133 0 0.212772 0.0366133 0 0.224216 0.0366133 0 0.235661 0.0366133 0 0.247106 0.0366133 0 0.258551 0.0366133 0 0.269996 0.0366133 0 0.281441 0.0366133 0 0.292886 0.0366133 0 0.304331 0.0366133 0 0.315776 0.0366133 0 0.32722 0.0366133 0 0.338665 0.0366133 0 0.35011 0.0366133 0 0.361555 0.0366133 0 0.373 0.0366133 0 0.2018 0.0378 0 0.213213 0.0378 0 0.224627 0.0378 0 0.23604 0.0378 0 0.247453 0.0378 0 0.258867 0.0378 0 0.27028 0.0378 0 0.281693 0.0378 0 0.293107 0.0378 0 0.30452 0.0378 0 0.315933 0.0378 0 0.327347 0.0378 0 0.33876 0.0378 0 0.350173 0.0378 0 0.361587 0.0378 0 0.373 0.0378 0 
</DataArray>
</Points> 
</Piece> 
</StructuredGrid> 
</VTKFile> 
