<?xml version="1.0"?> 
<VTKFile type="StructuredGrid" version="0.1"> 
<StructuredGrid WholeExtent="0 15 0 15 0 0"> 
<Piece Extent="0 15 0 15 0 0"> 
<PointData>
<DataArray type="Float32" Name="|E|" format="ascii" NumberOfComponents="3"> 
-1.51791e+06 0 0 -1.51314e+06 95598 0 -1.51682e+06 195552 0 -1.52709e+06 301610 0 -1.54171e+06 414693 0 -1.55848e+06 534853 0 -1.57553e+06 661415 0 -1.59153e+06 793203 0 -1.60575e+06 928791 0 -1.618e+06 1.06668e+06 0 -1.62866e+06 1.20539e+06 0 -1.63859e+06 1.34354e+06 0 -1.64926e+06 1.47989e+06 0 -1.66283e+06 1.61352e+06 0 -1.68231e+06 1.74398e+06 0 -1.71172e+06 1.87173e+06 0 -1.4365e+06 0 0 -1.43109e+06 107161 0 -1.43314e+06 217925 0 -1.44112e+06 333826 0 -1.45316e+06 455691 0 -1.46742e+06 583613 0 -1.48237e+06 717063 0 -1.49692e+06 855069 0 -1.51052e+06 996425 0 -1.52316e+06 1.13984e+06 0 -1.53542e+06 1.28408e+06 0 -1.54841e+06 1.42804e+06 0 -1.56391e+06 1.57094e+06 0 -1.58446e+06 1.71252e+06 0 -1.61342e+06 1.85346e+06 0 -1.65496e+06 1.99602e+06 0 -1.34963e+06 0 0 -1.3439e+06 117874 0 -1.34484e+06 238757 0 -1.35115e+06 364008 0 -1.3613e+06 494387 0 -1.37376e+06 630031 0 -1.38726e+06 770537 0 -1.40093e+06 915121 0 -1.41444e+06 1.06279e+06 0 -1.42795e+06 1.21249e+06 0 -1.44221e+06 1.36329e+06 0 -1.45856e+06 1.51449e+06 0 -1.47901e+06 1.66592e+06 0 -1.5062e+06 1.81823e+06 0 -1.5434e+06 1.97352e+06 0 -1.59401e+06 2.13609e+06 0 -1.25833e+06 0 0 -1.25255e+06 127919 0 -1.25275e+06 258378 0 -1.25788e+06 392601 0 -1.26666e+06 531303 0 -1.27783e+06 674666 0 -1.29035e+06 822410 0 -1.30357e+06 973931 0 -1.31731e+06 1.12846e+06 0 -1.33192e+06 1.28522e+06 0 -1.34829e+06 1.44363e+06 0 -1.36789e+06 1.60352e+06 0 -1.39273e+06 1.76542e+06 0 -1.42522e+06 1.93104e+06 0 -1.46784e+06 2.10389e+06 0 -1.52217e+06 2.29005e+06 0 -1.16341e+06 0 0 -1.15776e+06 137432 0 -1.15752e+06 277038 0 -1.16183e+06 419937 0 -1.16963e+06 566820 0 -1.17987e+06 717923 0 -1.19173e+06 873092 0 -1.20474e+06 1.0319e+06 0 -1.21888e+06 1.19382e+06 0 -1.2346e+06 1.35839e+06 0 -1.25289e+06 1.52543e+06 0 -1.27516e+06 1.69532e+06 0 -1.30319e+06 1.86935e+06 0 -1.33874e+06 2.0502e+06 0 -1.3828e+06 2.24245e+06 0 -1.43421e+06 2.45295e+06 0 -1.0655e+06 0 0 -1.06011e+06 146512 0 -1.05966e+06 294912 0 -1.06341e+06 446248 0 -1.07048e+06 601203 0 -1.08004e+06 760079 0 -1.09143e+06 922850 0 -1.10434e+06 1.08928e+06 0 -1.11885e+06 1.25909e+06 0 -1.13549e+06 1.43214e+06 0 -1.1552e+06 1.60867e+06 0 -1.17921e+06 1.7896e+06 0 -1.20878e+06 1.97689e+06 0 -1.24458e+06 2.17389e+06 0 -1.28568e+06 2.38552e+06 0 -1.32798e+06 2.61794e+06 0 -965074 0 0 -960073 155228 0 -959554 312127 0 -962923 471696 0 -969456 634632 0 -978471 801311 0 -989467 971840 0 -1.00224e+06 1.14618e+06 0 -1.01696e+06 1.3243e+06 0 -1.03414e+06 1.50637e+06 0 -1.05458e+06 1.69305e+06 0 -1.07914e+06 1.8857e+06 0 -1.10834e+06 2.08671e+06 0 -1.14155e+06 2.29962e+06 0 -1.17583e+06 2.52882e+06 0 -1.2048e+06 2.77837e+06 0 -862553 0 0 -858014 163628 0 -857540 328762 0 -860641 496382 0 -866727 667213 0 -875249 841712 0 -885826 1.02013e+06 0 -898343 1.20261e+06 0 -912981 1.38937e+06 0 -930189 1.58088e+06 0 -950534 1.7781e+06 0 -974388 1.98271e+06 0 -1.00139e+06 2.1972e+06 0 -1.0296e+06 2.42476e+06 0 -1.05451e+06 2.66841e+06 0 -1.06856e+06 2.92938e+06 0 -758270 0 0 -754250 171740 0 -753888 344869 0 -756781 520366 0 -762449 698999 0 -770457 881318 0 -780515 1.06771e+06 0 -792559 1.2585e+06 0 -806755 1.45413e+06 0 -823421 1.65531e+06 0 -842821 1.86322e+06 0 -864780 2.07962e+06 0 -888086 2.30679e+06 0 -909735 2.54703e+06 0 -924292 2.80151e+06 0 -924230 3.06856e+06 0 -652514 0 0 -649053 179580 0 -648835 360470 0 -651534 543670 0 -656762 730004 0 -664173 920115 0 -673550 1.11453e+06 0 -684852 1.31374e+06 0 -698195 1.51837e+06 0 -713734 1.7293e+06 0 -731406 1.94781e+06 0 -750513 2.17553e+06 0 -769145 2.41419e+06 0 -783624 2.66486e+06 0 -788333 2.9267e+06 0 -776635 3.19557e+06 0 -545540 0 0 -542663 187153 0 -542596 375572 0 -545075 566294 0 -549793 760207 0 -556478 958057 0 -564965 1.16049e+06 0 -575218 1.36816e+06 0 -587286 1.58183e+06 0 -601150 1.80248e+06 0 -616450 2.03134e+06 0 -632063 2.26971e+06 0 -645635 2.51853e+06 0 -653268 2.77748e+06 0 -649768 3.0438e+06 0 -629843 3.31143e+06 0 -437580 0 0 -435298 194455 0 -435362 390165 0 -437565 588214 0 -441666 789569 0 -447459 995074 0 -454814 1.2055e+06 0 -463692 1.42162e+06 0 -474070 1.6443e+06 0 -485785 1.87454e+06 0 -498246 2.11341e+06 0 -510079 2.36172e+06 0 -518780 2.61946e+06 0 -520665 2.88487e+06 0 -511378 3.15351e+06 0 -487083 3.41791e+06 0 -328847 0 0 -327161 201478 0 -327316 404225 0 -329157 609395 0 -332504 818032 0 -337205 1.03108e+06 0 -343163 1.24942e+06 0 -350331 1.47394e+06 0 -358634 1.70556e+06 0 -367809 1.94524e+06 0 -377160 2.19378e+06 0 -385266 2.4514e+06 0 -389795 2.71707e+06 0 -387628 2.98763e+06 0 -375479 3.25717e+06 0 -350870 3.51712e+06 0 -219545 0 0 -218444 208205 0 -218630 417724 0 -219998 629786 0 -222427 845527 0 -225812 1.06599e+06 0 -230089 1.29215e+06 0 -235210 1.52499e+06 0 -241079 1.76546e+06 0 -247415 2.01443e+06 0 -253562 2.27238e+06 0 -258297 2.53888e+06 0 -259767 2.81185e+06 0 -255699 3.08677e+06 0 -243955 3.35643e+06 0 -223207 3.61128e+06 0 -109866 0 0 -109330 214619 0 -109471 430622 0 -110233 649332 0 -111553 871978 0 -113378 1.0997e+06 0 -115674 1.33356e+06 0 -118408 1.57463e+06 0 -121508 1.82387e+06 0 -124773 2.08206e+06 0 -127769 2.34933e+06 0 -129737 2.62456e+06 0 -129601 2.90462e+06 0 -126144 3.18367e+06 0 -118354 3.45316e+06 0 -105758 3.70258e+06 0 0 0 0 0 220695 0 0 442877 0 0 667970 0 0 897303 0 0 1.1321e+06 0 0 1.37354e+06 0 0 1.62274e+06 0 0 1.88071e+06 0 0 2.14814e+06 0 0 2.42484e+06 0 0 2.70903e+06 0 0 2.99646e+06 0 0 3.27989e+06 0 0 3.54932e+06 0 0 3.79311e+06 0 </DataArray> 
</PointData> 
<Points> 
<DataArray type="Float32" NumberOfComponents="3"> 
0 0.0556667 0 0.00452 0.0561222 0 0.00904 0.0565778 0 0.01356 0.0570333 0 0.01808 0.0574889 0 0.0226 0.0579444 0 0.02712 0.0584 0 0.03164 0.0588556 0 0.03616 0.0593111 0 0.04068 0.0597667 0 0.0452 0.0602222 0 0.04972 0.0606778 0 0.05424 0.0611333 0 0.05876 0.0615889 0 0.06328 0.0620444 0 0.0678 0.0625 0 0 0.0594222 0 0.00472089 0.0598474 0 0.00944178 0.0602726 0 0.0141627 0.0606978 0 0.0188836 0.061123 0 0.0236044 0.0615481 0 0.0283253 0.0619733 0 0.0330462 0.0623985 0 0.0377671 0.0628237 0 0.042488 0.0632489 0 0.0472089 0.0636741 0 0.0519298 0.0640993 0 0.0566507 0.0645244 0 0.0613716 0.0649496 0 0.0660924 0.0653748 0 0.0708133 0.0658 0 0 0.0631778 0 0.00492178 0.0635726 0 0.00984356 0.0639674 0 0.0147653 0.0643622 0 0.0196871 0.064757 0 0.0246089 0.0651519 0 0.0295307 0.0655467 0 0.0344524 0.0659415 0 0.0393742 0.0663363 0 0.044296 0.0667311 0 0.0492178 0.0671259 0 0.0541396 0.0675207 0 0.0590613 0.0679156 0 0.0639831 0.0683104 0 0.0689049 0.0687052 0 0.0738267 0.0691 0 0 0.0669333 0 0.00512267 0.0672978 0 0.0102453 0.0676622 0 0.015368 0.0680267 0 0.0204907 0.0683911 0 0.0256133 0.0687556 0 0.030736 0.06912 0 0.0358587 0.0694844 0 0.0409813 0.0698489 0 0.046104 0.0702133 0 0.0512267 0.0705778 0 0.0563493 0.0709422 0 0.061472 0.0713067 0 0.0665947 0.0716711 0 0.0717173 0.0720356 0 0.07684 0.0724 0 0 0.0706889 0 0.00532356 0.071023 0 0.0106471 0.071357 0 0.0159707 0.0716911 0 0.0212942 0.0720252 0 0.0266178 0.0723593 0 0.0319413 0.0726933 0 0.0372649 0.0730274 0 0.0425884 0.0733615 0 0.047912 0.0736956 0 0.0532356 0.0740296 0 0.0585591 0.0743637 0 0.0638827 0.0746978 0 0.0692062 0.0750319 0 0.0745298 0.0753659 0 0.0798533 0.0757 0 0 0.0744444 0 0.00552444 0.0747481 0 0.0110489 0.0750519 0 0.0165733 0.0753556 0 0.0220978 0.0756593 0 0.0276222 0.075963 0 0.0331467 0.0762667 0 0.0386711 0.0765704 0 0.0441956 0.0768741 0 0.04972 0.0771778 0 0.0552444 0.0774815 0 0.0607689 0.0777852 0 0.0662933 0.0780889 0 0.0718178 0.0783926 0 0.0773422 0.0786963 0 0.0828667 0.079 0 0 0.0782 0 0.00572533 0.0784733 0 0.0114507 0.0787467 0 0.017176 0.07902 0 0.0229013 0.0792933 0 0.0286267 0.0795667 0 0.034352 0.07984 0 0.0400773 0.0801133 0 0.0458027 0.0803867 0 0.051528 0.08066 0 0.0572533 0.0809333 0 0.0629787 0.0812067 0 0.068704 0.08148 0 0.0744293 0.0817533 0 0.0801547 0.0820267 0 0.08588 0.0823 0 0 0.0819556 0 0.00592622 0.0821985 0 0.0118524 0.0824415 0 0.0177787 0.0826844 0 0.0237049 0.0829274 0 0.0296311 0.0831704 0 0.0355573 0.0834133 0 0.0414836 0.0836563 0 0.0474098 0.0838993 0 0.053336 0.0841422 0 0.0592622 0.0843852 0 0.0651884 0.0846281 0 0.0711147 0.0848711 0 0.0770409 0.0851141 0 0.0829671 0.085357 0 0.0888933 0.0856 0 0 0.0857111 0 0.00612711 0.0859237 0 0.0122542 0.0861363 0 0.0183813 0.0863489 0 0.0245084 0.0865615 0 0.0306356 0.0867741 0 0.0367627 0.0869867 0 0.0428898 0.0871993 0 0.0490169 0.0874119 0 0.055144 0.0876244 0 0.0612711 0.087837 0 0.0673982 0.0880496 0 0.0735253 0.0882622 0 0.0796524 0.0884748 0 0.0857796 0.0886874 0 0.0919067 0.0889 0 0 0.0894667 0 0.006328 0.0896489 0 0.012656 0.0898311 0 0.018984 0.0900133 0 0.025312 0.0901956 0 0.03164 0.0903778 0 0.037968 0.09056 0 0.044296 0.0907422 0 0.050624 0.0909244 0 0.056952 0.0911067 0 0.06328 0.0912889 0 0.069608 0.0914711 0 0.075936 0.0916533 0 0.082264 0.0918356 0 0.088592 0.0920178 0 0.09492 0.0922 0 0 0.0932222 0 0.00652889 0.0933741 0 0.0130578 0.0935259 0 0.0195867 0.0936778 0 0.0261156 0.0938296 0 0.0326444 0.0939815 0 0.0391733 0.0941333 0 0.0457022 0.0942852 0 0.0522311 0.094437 0 0.05876 0.0945889 0 0.0652889 0.0947407 0 0.0718178 0.0948926 0 0.0783467 0.0950444 0 0.0848756 0.0951963 0 0.0914044 0.0953481 0 0.0979333 0.0955 0 0 0.0969778 0 0.00672978 0.0970993 0 0.0134596 0.0972207 0 0.0201893 0.0973422 0 0.0269191 0.0974637 0 0.0336489 0.0975852 0 0.0403787 0.0977067 0 0.0471084 0.0978281 0 0.0538382 0.0979496 0 0.060568 0.0980711 0 0.0672978 0.0981926 0 0.0740276 0.0983141 0 0.0807573 0.0984356 0 0.0874871 0.098557 0 0.0942169 0.0986785 0 0.100947 0.0988 0 0 0.100733 0 0.00693067 0.100824 0 0.0138613 0.100916 0 0.020792 0.101007 0 0.0277227 0.101098 0 0.0346533 0.101189 0 0.041584 0.10128 0 0.0485147 0.101371 0 0.0554453 0.101462 0 0.062376 0.101553 0 0.0693067 0.101644 0 0.0762373 0.101736 0 0.083168 0.101827 0 0.0900987 0.101918 0 0.0970293 0.102009 0 0.10396 0.1021 0 0 0.104489 0 0.00713156 0.10455 0 0.0142631 0.10461 0 0.0213947 0.104671 0 0.0285262 0.104732 0 0.0356578 0.104793 0 0.0427893 0.104853 0 0.0499209 0.104914 0 0.0570524 0.104975 0 0.064184 0.105036 0 0.0713156 0.105096 0 0.0784471 0.105157 0 0.0855787 0.105218 0 0.0927102 0.105279 0 0.0998418 0.105339 0 0.106973 0.1054 0 0 0.108244 0 0.00733244 0.108275 0 0.0146649 0.108305 0 0.0219973 0.108336 0 0.0293298 0.108366 0 0.0366622 0.108396 0 0.0439947 0.108427 0 0.0513271 0.108457 0 0.0586596 0.108487 0 0.065992 0.108518 0 0.0733244 0.108548 0 0.0806569 0.108579 0 0.0879893 0.108609 0 0.0953218 0.108639 0 0.102654 0.10867 0 0.109987 0.1087 0 0 0.112 0 0.00753333 0.112 0 0.0150667 0.112 0 0.0226 0.112 0 0.0301333 0.112 0 0.0376667 0.112 0 0.0452 0.112 0 0.0527333 0.112 0 0.0602667 0.112 0 0.0678 0.112 0 0.0753333 0.112 0 0.0828667 0.112 0 0.0904 0.112 0 0.0979333 0.112 0 0.105467 0.112 0 0.113 0.112 0 
</DataArray>
</Points> 
</Piece> 
</StructuredGrid> 
</VTKFile> 
