<?xml version="1.0"?> 
<VTKFile type="StructuredGrid" version="0.1"> 
<StructuredGrid WholeExtent="0 15 0 15 0 0"> 
<Piece Extent="0 15 0 15 0 0"> 
<PointData>
<DataArray type="Float32" Name="|E|" format="ascii" NumberOfComponents="3"> 
-1.70525e+06 0 0 -1.7265e+06 92734.1 0 -1.78551e+06 204346 0 -1.86726e+06 349334 0 -1.95139e+06 529843 0 -2.02315e+06 736272 0 -2.07685e+06 956324 0 -2.11123e+06 1.18013e+06 0 -2.12611e+06 1.39775e+06 0 -2.12061e+06 1.59884e+06 0 -2.09651e+06 1.76212e+06 0 -2.06064e+06 1.86376e+06 0 -2.03227e+06 1.85597e+06 0 -2.0339e+06 1.66897e+06 0 -2.06378e+06 1.16234e+06 0 -2.1887e+06 1.24312e+06 0 -1.69545e+06 0 0 -1.71439e+06 95036.7 0 -1.76768e+06 207130 0 -1.84227e+06 348987 0 -1.92047e+06 523027 0 -1.98876e+06 721564 0 -2.04133e+06 933798 0 -2.07655e+06 1.15046e+06 0 -2.09456e+06 1.36267e+06 0 -2.09493e+06 1.5604e+06 0 -2.08036e+06 1.72823e+06 0 -2.05673e+06 1.84148e+06 0 -2.0439e+06 1.87126e+06 0 -2.06573e+06 1.74944e+06 0 -2.16567e+06 1.36788e+06 0 -2.14029e+06 621688 0 -1.68519e+06 0 0 -1.70192e+06 96952.1 0 -1.74991e+06 209315 0 -1.81777e+06 348223 0 -1.89018e+06 516233 0 -1.95487e+06 707247 0 -2.00597e+06 911882 0 -2.04165e+06 1.12156e+06 0 -2.06208e+06 1.32825e+06 0 -2.06733e+06 1.52282e+06 0 -2.06025e+06 1.6928e+06 0 -2.04669e+06 1.818e+06 0 -2.04424e+06 1.87367e+06 0 -2.07877e+06 1.81524e+06 0 -2.20422e+06 1.54807e+06 0 -2.39037e+06 833739 0 -1.67448e+06 0 0 -1.68911e+06 98503 0 -1.73217e+06 210932 0 -1.79373e+06 347039 0 -1.86051e+06 509415 0 -1.92147e+06 693271 0 -1.97084e+06 890530 0 -2.00659e+06 1.09338e+06 0 -2.02882e+06 1.29449e+06 0 -2.03801e+06 1.48578e+06 0 -2.03686e+06 1.65669e+06 0 -2.03126e+06 1.7915e+06 0 -2.03591e+06 1.86887e+06 0 -2.07702e+06 1.85904e+06 0 -2.20388e+06 1.69349e+06 0 -2.48723e+06 1.224e+06 0 -1.66335e+06 0 0 -1.67598e+06 99712.2 0 -1.71444e+06 212012 0 -1.77009e+06 345436 0 -1.83143e+06 502531 0 -1.88857e+06 679582 0 -1.93595e+06 869703 0 -1.97141e+06 1.06585e+06 0 -1.99491e+06 1.26138e+06 0 -2.00718e+06 1.44912e+06 0 -2.01071e+06 1.6202e+06 0 -2.01121e+06 1.76207e+06 0 -2.02085e+06 1.85763e+06 0 -2.06378e+06 1.88518e+06 0 -2.18276e+06 1.8004e+06 0 -2.46618e+06 1.51558e+06 0 -1.65182e+06 0 0 -1.66253e+06 100600 0 -1.69671e+06 212584 0 -1.74682e+06 343413 0 -1.80291e+06 495544 0 -1.85619e+06 666128 0 -1.90135e+06 849349 0 -1.93618e+06 1.03893e+06 0 -1.96046e+06 1.22886e+06 0 -1.97506e+06 1.41283e+06 0 -1.98223e+06 1.58329e+06 0 -1.98728e+06 1.7303e+06 0 -2.00035e+06 1.84024e+06 0 -2.04237e+06 1.89722e+06 0 -2.14896e+06 1.87331e+06 0 -2.39939e+06 1.72118e+06 0 -1.6399e+06 0 0 -1.64878e+06 101187 0 -1.67896e+06 212674 0 -1.72387e+06 340976 0 -1.77492e+06 488421 0 -1.82431e+06 652860 0 -1.86706e+06 829421 0 -1.90094e+06 1.01257e+06 0 -1.92559e+06 1.19691e+06 0 -1.94184e+06 1.37688e+06 0 -1.95176e+06 1.54608e+06 0 -1.96012e+06 1.6965e+06 0 -1.97545e+06 1.81764e+06 0 -2.01506e+06 1.89734e+06 0 -2.10834e+06 1.91873e+06 0 -2.31592e+06 1.85704e+06 0 -1.62761e+06 0 0 -1.63474e+06 101492 0 -1.66118e+06 212307 0 -1.70122e+06 338130 0 -1.74742e+06 481134 0 -1.79293e+06 639730 0 -1.83312e+06 809871 0 -1.86576e+06 986729 0 -1.89037e+06 1.16549e+06 0 -1.9077e+06 1.34125e+06 0 -1.91962e+06 1.5086e+06 0 -1.93029e+06 1.66102e+06 0 -1.94693e+06 1.79047e+06 0 -1.98351e+06 1.88775e+06 0 -2.06382e+06 1.94237e+06 0 -2.23293e+06 1.94212e+06 0 -1.61497e+06 0 0 -1.62042e+06 101530 0 -1.64337e+06 211508 0 -1.67883e+06 334880 0 -1.72039e+06 473658 0 -1.76204e+06 626693 0 -1.79953e+06 790649 0 -1.83069e+06 961355 0 -1.85489e+06 1.13455e+06 0 -1.8728e+06 1.30594e+06 0 -1.88607e+06 1.4709e+06 0 -1.89826e+06 1.62416e+06 0 -1.91547e+06 1.75948e+06 0 -1.94884e+06 1.87002e+06 0 -2.01725e+06 1.9491e+06 0 -2.15389e+06 1.99167e+06 0 -1.60199e+06 0 0 -1.60583e+06 101319 0 -1.6255e+06 210298 0 -1.65666e+06 331236 0 -1.6938e+06 465973 0 -1.73164e+06 613706 0 -1.76633e+06 771708 0 -1.79576e+06 936407 0 -1.81925e+06 1.10406e+06 0 -1.83729e+06 1.27092e+06 0 -1.85134e+06 1.43306e+06 0 -1.86441e+06 1.58613e+06 0 -1.88161e+06 1.72533e+06 0 -1.91179e+06 1.84557e+06 0 -1.96973e+06 1.94252e+06 0 -2.07975e+06 2.01448e+06 0 -1.5887e+06 0 0 -1.59098e+06 100874 0 -1.60757e+06 208699 0 -1.6347e+06 327205 0 -1.66761e+06 458061 0 -1.7017e+06 600729 0 -1.73351e+06 753000 0 -1.76103e+06 911841 0 -1.78351e+06 1.074e+06 0 -1.8013e+06 1.2362e+06 0 -1.81565e+06 1.3951e+06 0 -1.82908e+06 1.54715e+06 0 -1.84583e+06 1.68857e+06 0 -1.87293e+06 1.81562e+06 0 -1.9218e+06 1.92541e+06 0 -2.01044e+06 2.01796e+06 0 -1.5751e+06 0 0 -1.57588e+06 100208 0 -1.58958e+06 206732 0 -1.61291e+06 322797 0 -1.64179e+06 449908 0 -1.67222e+06 587726 0 -1.7011e+06 734478 0 -1.72654e+06 887612 0 -1.74775e+06 1.04432e+06 0 -1.76496e+06 1.20177e+06 0 -1.77919e+06 1.3571e+06 0 -1.79254e+06 1.50739e+06 0 -1.80849e+06 1.64968e+06 0 -1.83264e+06 1.78118e+06 0 -1.87376e+06 1.89996e+06 0 -1.94514e+06 2.00669e+06 0 -1.56121e+06 0 0 -1.56054e+06 99334.9 0 -1.57151e+06 204415 0 -1.59128e+06 318022 0 -1.61632e+06 441500 0 -1.64318e+06 574664 0 -1.6691e+06 716099 0 -1.69231e+06 863676 0 -1.71204e+06 1.01499e+06 0 -1.72836e+06 1.16761e+06 0 -1.74211e+06 1.31909e+06 0 -1.75502e+06 1.46702e+06 0 -1.76993e+06 1.60906e+06 0 -1.79125e+06 1.7431e+06 0 -1.82573e+06 1.86786e+06 0 -1.88321e+06 1.98418e+06 0 -1.54704e+06 0 0 -1.54496e+06 98267.3 0 -1.55337e+06 201766 0 -1.56978e+06 312889 0 -1.59117e+06 432830 0 -1.61455e+06 561513 0 -1.6375e+06 697820 0 -1.65839e+06 839989 0 -1.67643e+06 985986 0 -1.69161e+06 1.13371e+06 0 -1.70458e+06 1.28111e+06 0 -1.71674e+06 1.42618e+06 0 -1.73039e+06 1.56703e+06 0 -1.74902e+06 1.70208e+06 0 -1.7778e+06 1.83046e+06 0 -1.82401e+06 1.953e+06 0 -1.5326e+06 0 0 -1.52916e+06 97016.6 0 -1.53514e+06 198803 0 -1.54839e+06 307410 0 -1.56631e+06 423891 0 -1.58633e+06 548246 0 -1.60631e+06 679600 0 -1.62479e+06 816509 0 -1.64098e+06 957260 0 -1.6548e+06 1.10007e+06 0 -1.66672e+06 1.24319e+06 0 -1.67788e+06 1.38497e+06 0 -1.6901e+06 1.52388e+06 0 -1.70615e+06 1.65871e+06 0 -1.72998e+06 1.78885e+06 0 -1.76699e+06 1.91504e+06 0 -1.51791e+06 0 0 -1.51314e+06 95593.5 0 -1.51682e+06 195541 0 -1.52709e+06 301595 0 -1.54171e+06 414676 0 -1.55848e+06 534839 0 -1.57553e+06 661403 0 -1.59153e+06 793193 0 -1.60574e+06 928781 0 -1.618e+06 1.06666e+06 0 -1.62865e+06 1.20536e+06 0 -1.63859e+06 1.34349e+06 0 -1.64926e+06 1.47984e+06 0 -1.66282e+06 1.61345e+06 0 -1.6823e+06 1.74389e+06 0 -1.71173e+06 1.87176e+06 0 </DataArray> 
</PointData> 
<Points> 
<DataArray type="Float32" NumberOfComponents="3"> 
0 0.045 0 0.00666667 0.045 0 0.0133333 0.045 0 0.02 0.045 0 0.0266667 0.045 0 0.0333333 0.045 0 0.04 0.045 0 0.0466667 0.045 0 0.0533333 0.045 0 0.06 0.045 0 0.0666667 0.045 0 0.0733333 0.045 0 0.08 0.045 0 0.0866667 0.045 0 0.0933333 0.045 0 0.1 0.045 0 0 0.0457111 0 0.00652356 0.0457415 0 0.0130471 0.0457719 0 0.0195707 0.0458022 0 0.0260942 0.0458326 0 0.0326178 0.045863 0 0.0391413 0.0458933 0 0.0456649 0.0459237 0 0.0521884 0.0459541 0 0.058712 0.0459844 0 0.0652356 0.0460148 0 0.0717591 0.0460452 0 0.0782827 0.0460756 0 0.0848062 0.0461059 0 0.0913298 0.0461363 0 0.0978533 0.0461667 0 0 0.0464222 0 0.00638044 0.046483 0 0.0127609 0.0465437 0 0.0191413 0.0466044 0 0.0255218 0.0466652 0 0.0319022 0.0467259 0 0.0382827 0.0467867 0 0.0446631 0.0468474 0 0.0510436 0.0469081 0 0.057424 0.0469689 0 0.0638044 0.0470296 0 0.0701849 0.0470904 0 0.0765653 0.0471511 0 0.0829458 0.0472119 0 0.0893262 0.0472726 0 0.0957067 0.0473333 0 0 0.0471333 0 0.00623733 0.0472244 0 0.0124747 0.0473156 0 0.018712 0.0474067 0 0.0249493 0.0474978 0 0.0311867 0.0475889 0 0.037424 0.04768 0 0.0436613 0.0477711 0 0.0498987 0.0478622 0 0.056136 0.0479533 0 0.0623733 0.0480444 0 0.0686107 0.0481356 0 0.074848 0.0482267 0 0.0810853 0.0483178 0 0.0873227 0.0484089 0 0.09356 0.0485 0 0 0.0478444 0 0.00609422 0.0479659 0 0.0121884 0.0480874 0 0.0182827 0.0482089 0 0.0243769 0.0483304 0 0.0304711 0.0484519 0 0.0365653 0.0485733 0 0.0426596 0.0486948 0 0.0487538 0.0488163 0 0.054848 0.0489378 0 0.0609422 0.0490593 0 0.0670364 0.0491807 0 0.0731307 0.0493022 0 0.0792249 0.0494237 0 0.0853191 0.0495452 0 0.0914133 0.0496667 0 0 0.0485556 0 0.00595111 0.0487074 0 0.0119022 0.0488593 0 0.0178533 0.0490111 0 0.0238044 0.049163 0 0.0297556 0.0493148 0 0.0357067 0.0494667 0 0.0416578 0.0496185 0 0.0476089 0.0497704 0 0.05356 0.0499222 0 0.0595111 0.0500741 0 0.0654622 0.0502259 0 0.0714133 0.0503778 0 0.0773644 0.0505296 0 0.0833156 0.0506815 0 0.0892667 0.0508333 0 0 0.0492667 0 0.005808 0.0494489 0 0.011616 0.0496311 0 0.017424 0.0498133 0 0.023232 0.0499956 0 0.02904 0.0501778 0 0.034848 0.05036 0 0.040656 0.0505422 0 0.046464 0.0507244 0 0.052272 0.0509067 0 0.05808 0.0510889 0 0.063888 0.0512711 0 0.069696 0.0514533 0 0.075504 0.0516356 0 0.081312 0.0518178 0 0.08712 0.052 0 0 0.0499778 0 0.00566489 0.0501904 0 0.0113298 0.050403 0 0.0169947 0.0506156 0 0.0226596 0.0508281 0 0.0283244 0.0510407 0 0.0339893 0.0512533 0 0.0396542 0.0514659 0 0.0453191 0.0516785 0 0.050984 0.0518911 0 0.0566489 0.0521037 0 0.0623138 0.0523163 0 0.0679787 0.0525289 0 0.0736436 0.0527415 0 0.0793084 0.0529541 0 0.0849733 0.0531667 0 0 0.0506889 0 0.00552178 0.0509319 0 0.0110436 0.0511748 0 0.0165653 0.0514178 0 0.0220871 0.0516607 0 0.0276089 0.0519037 0 0.0331307 0.0521467 0 0.0386524 0.0523896 0 0.0441742 0.0526326 0 0.049696 0.0528756 0 0.0552178 0.0531185 0 0.0607396 0.0533615 0 0.0662613 0.0536044 0 0.0717831 0.0538474 0 0.0773049 0.0540904 0 0.0828267 0.0543333 0 0 0.0514 0 0.00537867 0.0516733 0 0.0107573 0.0519467 0 0.016136 0.05222 0 0.0215147 0.0524933 0 0.0268933 0.0527667 0 0.032272 0.05304 0 0.0376507 0.0533133 0 0.0430293 0.0535867 0 0.048408 0.05386 0 0.0537867 0.0541333 0 0.0591653 0.0544067 0 0.064544 0.05468 0 0.0699227 0.0549533 0 0.0753013 0.0552267 0 0.08068 0.0555 0 0 0.0521111 0 0.00523556 0.0524148 0 0.0104711 0.0527185 0 0.0157067 0.0530222 0 0.0209422 0.0533259 0 0.0261778 0.0536296 0 0.0314133 0.0539333 0 0.0366489 0.054237 0 0.0418844 0.0545407 0 0.04712 0.0548444 0 0.0523556 0.0551481 0 0.0575911 0.0554519 0 0.0628267 0.0557556 0 0.0680622 0.0560593 0 0.0732978 0.056363 0 0.0785333 0.0566667 0 0 0.0528222 0 0.00509244 0.0531563 0 0.0101849 0.0534904 0 0.0152773 0.0538244 0 0.0203698 0.0541585 0 0.0254622 0.0544926 0 0.0305547 0.0548267 0 0.0356471 0.0551607 0 0.0407396 0.0554948 0 0.045832 0.0558289 0 0.0509244 0.056163 0 0.0560169 0.056497 0 0.0611093 0.0568311 0 0.0662018 0.0571652 0 0.0712942 0.0574993 0 0.0763867 0.0578333 0 0 0.0535333 0 0.00494933 0.0538978 0 0.00989867 0.0542622 0 0.014848 0.0546267 0 0.0197973 0.0549911 0 0.0247467 0.0553556 0 0.029696 0.05572 0 0.0346453 0.0560844 0 0.0395947 0.0564489 0 0.044544 0.0568133 0 0.0494933 0.0571778 0 0.0544427 0.0575422 0 0.059392 0.0579067 0 0.0643413 0.0582711 0 0.0692907 0.0586356 0 0.07424 0.059 0 0 0.0542444 0 0.00480622 0.0546393 0 0.00961244 0.0550341 0 0.0144187 0.0554289 0 0.0192249 0.0558237 0 0.0240311 0.0562185 0 0.0288373 0.0566133 0 0.0336436 0.0570081 0 0.0384498 0.057403 0 0.043256 0.0577978 0 0.0480622 0.0581926 0 0.0528684 0.0585874 0 0.0576747 0.0589822 0 0.0624809 0.059377 0 0.0672871 0.0597719 0 0.0720933 0.0601667 0 0 0.0549556 0 0.00466311 0.0553807 0 0.00932622 0.0558059 0 0.0139893 0.0562311 0 0.0186524 0.0566563 0 0.0233156 0.0570815 0 0.0279787 0.0575067 0 0.0326418 0.0579319 0 0.0373049 0.058357 0 0.041968 0.0587822 0 0.0466311 0.0592074 0 0.0512942 0.0596326 0 0.0559573 0.0600578 0 0.0606204 0.060483 0 0.0652836 0.0609081 0 0.0699467 0.0613333 0 0 0.0556667 0 0.00452 0.0561222 0 0.00904 0.0565778 0 0.01356 0.0570333 0 0.01808 0.0574889 0 0.0226 0.0579444 0 0.02712 0.0584 0 0.03164 0.0588556 0 0.03616 0.0593111 0 0.04068 0.0597667 0 0.0452 0.0602222 0 0.04972 0.0606778 0 0.05424 0.0611333 0 0.05876 0.0615889 0 0.06328 0.0620444 0 0.0678 0.0625 0 
</DataArray>
</Points> 
</Piece> 
</StructuredGrid> 
</VTKFile> 
