<?xml version="1.0"?> 
<VTKFile type="StructuredGrid" version="0.1"> 
<StructuredGrid WholeExtent="0 15 0 15 0 0"> 
<Piece Extent="0 15 0 15 0 0"> 
<PointData>
<DataArray type="Float32" Name="|E|" format="ascii" NumberOfComponents="3"> 
-1.71221e+06 8.72432 0 -2.31639e+06 2.63005 0 -2.74026e+06 -2.45551 0 -2.9861e+06 -2.4411 0 -3.11964e+06 -1.52003 0 -3.1939e+06 -0.838879 0 -3.24051e+06 -0.447721 0 -3.27674e+06 -0.228783 0 -3.31171e+06 -0.100548 0 -3.34983e+06 -0.0117183 0 -3.39263e+06 0.0702319 0 -3.43933e+06 0.162175 0 -3.4868e+06 0.255627 0 -3.52944e+06 0.299248 0 -3.55979e+06 0.215258 0 -3.57092e+06 3.21865e-06 0 -1.7123e+06 109837 0 -2.31919e+06 89200.2 0 -2.74288e+06 54956.6 0 -2.98769e+06 30248.1 0 -3.12047e+06 16382.7 0 -3.19428e+06 9561.88 0 -3.24064e+06 6654.39 0 -3.27675e+06 5848.15 0 -3.31166e+06 6113.03 0 -3.34976e+06 6849.61 0 -3.39257e+06 7641.43 0 -3.43931e+06 8109.43 0 -3.48686e+06 7836.96 0 -3.52962e+06 6415.68 0 -3.56007e+06 3674.62 0 -3.57125e+06 -3.64031e-07 0 -1.71258e+06 220976 0 -2.32768e+06 178743 0 -2.75075e+06 109576 0 -2.99244e+06 60178 0 -3.12293e+06 32564.5 0 -3.19541e+06 19014.9 0 -3.24106e+06 13249.8 0 -3.27679e+06 11666.6 0 -3.31151e+06 12212.8 0 -3.34955e+06 13697.7 0 -3.3924e+06 15292.1 0 -3.43927e+06 16240.2 0 -3.48706e+06 15707.6 0 -3.53015e+06 12870.9 0 -3.56092e+06 7377.75 0 -3.57223e+06 9.49949e-08 0 -1.71305e+06 334774 0 -2.34215e+06 268947 0 -2.76394e+06 163506 0 -3.00033e+06 89471.1 0 -3.127e+06 48347 0 -3.19728e+06 28252.1 0 -3.24174e+06 19728.3 0 -3.27684e+06 17426.1 0 -3.31126e+06 18286.4 0 -3.3492e+06 20542.9 0 -3.3921e+06 22961 0 -3.43919e+06 24413.3 0 -3.48739e+06 23645.5 0 -3.53103e+06 19405.4 0 -3.56234e+06 11138.3 0 -3.57388e+06 1.76951e-08 0 -1.71372e+06 452778 0 -2.36312e+06 360082 0 -2.78253e+06 216350 0 -3.0113e+06 117804 0 -3.13263e+06 63533.3 0 -3.19987e+06 37168.5 0 -3.24266e+06 26032.7 0 -3.2769e+06 23098.2 0 -3.3109e+06 24320.9 0 -3.34869e+06 27383.6 0 -3.39167e+06 30657.2 0 -3.43907e+06 32650.1 0 -3.48785e+06 31684.7 0 -3.53227e+06 26060.2 0 -3.56433e+06 14986.4 0 -3.5762e+06 -9.31323e-09 0 -1.71462e+06 576738 0 -2.39133e+06 452325 0 -2.80661e+06 267665 0 -3.02527e+06 144847 0 -3.13976e+06 77932.2 0 -3.20312e+06 45662 0 -3.24382e+06 32108.1 0 -3.27697e+06 28655.3 0 -3.31042e+06 30303.9 0 -3.34804e+06 34218.7 0 -3.39112e+06 38389.6 0 -3.43891e+06 40971.5 0 -3.48842e+06 39859.9 0 -3.53387e+06 32877.7 0 -3.56692e+06 18954.1 0 -3.57922e+06 -7.45058e-09 0 -1.7158e+06 708935 0 -2.42781e+06 545705 0 -2.83629e+06 316935 0 -3.04214e+06 170263 0 -3.14829e+06 91359 0 -3.207e+06 53634.7 0 -3.24517e+06 37902 0 -3.27701e+06 34071 0 -3.30982e+06 36223.7 0 -3.34722e+06 41046.7 0 -3.39042e+06 46166.9 0 -3.43869e+06 49398.5 0 -3.4891e+06 48206.2 0 -3.53582e+06 39902.6 0 -3.57012e+06 23075.5 0 -3.58297e+06 1.86265e-08 0 -1.71734e+06 852053 0 -2.47398e+06 639982 0 -2.87163e+06 363591 0 -3.06177e+06 193692 0 -3.15813e+06 103647 0 -3.21144e+06 60989.7 0 -3.24668e+06 43367.1 0 -3.27702e+06 39319.9 0 -3.30908e+06 42069.2 0 -3.34623e+06 47866.5 0 -3.38957e+06 53997.4 0 -3.43841e+06 57951.7 0 -3.48988e+06 56759.5 0 -3.53812e+06 47182 0 -3.57394e+06 27388.4 0 -3.58747e+06 7.45058e-09 0 -1.71962e+06 1.01025e+06 0 -2.53162e+06 734522 0 -2.91261e+06 406999 0 -3.08398e+06 214761 0 -3.16914e+06 114646 0 -3.21637e+06 67632.9 0 -3.24832e+06 48461.2 0 -3.27697e+06 44377.5 0 -3.30819e+06 47830.8 0 -3.34506e+06 54676.6 0 -3.38855e+06 61889.2 0 -3.43804e+06 66651.4 0 -3.49075e+06 65556.6 0 -3.54078e+06 54766.5 0 -3.57842e+06 31934.6 0 -3.59278e+06 8.9407e-08 0 -1.72326e+06 1.18856e+06 0 -2.6031e+06 827997 0 -2.95908e+06 446559 0 -3.10854e+06 233025 0 -3.18118e+06 124261 0 -3.22172e+06 73457.3 0 -3.25004e+06 53155.9 0 -3.27684e+06 49217.4 0 -3.30713e+06 53501.2 0 -3.3437e+06 61475.1 0 -3.38736e+06 69850.2 0 -3.43757e+06 75517.7 0 -3.49168e+06 74635.1 0 -3.54379e+06 62710.8 0 -3.58359e+06 36761.1 0 -3.59893e+06 -2.45869e-07 0 -1.73099e+06 1.39657e+06 0 -2.69126e+06 918149 0 -3.01068e+06 481678 0 -3.13519e+06 248002 0 -3.19411e+06 132441 0 -3.22738e+06 78349.9 0 -3.2518e+06 57435 0 -3.2766e+06 53811.9 0 -3.30589e+06 59075.8 0 -3.34213e+06 68259.7 0 -3.38597e+06 77887.9 0 -3.43698e+06 84569.5 0 -3.49266e+06 84033.4 0 -3.54714e+06 71073.9 0 -3.58947e+06 41921.5 0 -3.606e+06 1.78814e-07 0 -1.74839e+06 1.64808e+06 0 -2.79953e+06 1.00121e+06 0 -3.06675e+06 511989 0 -3.16358e+06 259073 0 -3.20779e+06 139240 0 -3.23322e+06 82159 0 -3.25358e+06 61311.1 0 -3.2762e+06 58124.8 0 -3.30446e+06 64555.7 0 -3.34033e+06 75026.2 0 -3.38438e+06 86009.5 0 -3.43625e+06 93825.3 0 -3.49366e+06 93790.5 0 -3.55083e+06 79920.7 0 -3.59612e+06 47477.5 0 -3.61405e+06 1.49012e-08 0 -1.79656e+06 1.9753e+06 0 -2.93096e+06 1.07196e+06 0 -3.12634e+06 536887 0 -3.19333e+06 265780 0 -3.22208e+06 144684 0 -3.2391e+06 84762.7 0 -3.25535e+06 64796.3 0 -3.2756e+06 62124.1 0 -3.30283e+06 69943.1 0 -3.33828e+06 81770.3 0 -3.38257e+06 94221.4 0 -3.43535e+06 103303 0 -3.49465e+06 103946 0 -3.55485e+06 89322.3 0 -3.60356e+06 53500.9 0 -3.62318e+06 -2.38419e-07 0 -1.93004e+06 2.45613e+06 0 -3.08647e+06 1.12495e+06 0 -3.18826e+06 554022 0 -3.22397e+06 268730 0 -3.23687e+06 148309 0 -3.24482e+06 86290.6 0 -3.25711e+06 67799.6 0 -3.27472e+06 65827.2 0 -3.301e+06 75222.4 0 -3.33595e+06 88495 0 -3.38052e+06 102527 0 -3.43424e+06 113018 0 -3.49561e+06 114539 0 -3.55918e+06 99356.3 0 -3.61187e+06 60076.4 0 -3.63349e+06 1.93715e-07 0 -2.35525e+06 3.33352e+06 0 -3.25429e+06 1.16297e+06 0 -3.25235e+06 551361 0 -3.25505e+06 274169 0 -3.25181e+06 146791 0 -3.25041e+06 88307.2 0 -3.25872e+06 69565.2 0 -3.27358e+06 69555.3 0 -3.29894e+06 80253.6 0 -3.33333e+06 95250.1 0 -3.37821e+06 110914 0 -3.4329e+06 122987 0 -3.49648e+06 125610 0 -3.5638e+06 110105 0 -3.62109e+06 67308 0 -3.64512e+06 -3.27826e-07 0 -3.92091e+06 6.04241e+06 0 -3.36701e+06 1.26137e+06 0 -3.32467e+06 448023 0 -3.28665e+06 327600 0 -3.26494e+06 116364 0 -3.25726e+06 102603 0 -3.25907e+06 64468.5 0 -3.27281e+06 75839.4 0 -3.29622e+06 83967.6 0 -3.33063e+06 102436 0 -3.3755e+06 119264 0 -3.43136e+06 133234 0 -3.4972e+06 137222 0 -3.56869e+06 121630 0 -3.63129e+06 75346 0 -3.65819e+06 1.90735e-06 0 </DataArray> 
</PointData> 
<Points> 
<DataArray type="Float32" NumberOfComponents="3"> 
0.016 0 0 0.0199333 0 0 0.0238667 0 0 0.0278 0 0 0.0317333 0 0 0.0356667 0 0 0.0396 0 0 0.0435333 0 0 0.0474667 0 0 0.0514 0 0 0.0553333 0 0 0.0592667 0 0 0.0632 0 0 0.0671333 0 0 0.0710667 0 0 0.075 0 0 0.016 0.000666667 0 0.0199333 0.000666667 0 0.0238667 0.000666667 0 0.0278 0.000666667 0 0.0317333 0.000666667 0 0.0356667 0.000666667 0 0.0396 0.000666667 0 0.0435333 0.000666667 0 0.0474667 0.000666667 0 0.0514 0.000666667 0 0.0553333 0.000666667 0 0.0592667 0.000666667 0 0.0632 0.000666667 0 0.0671333 0.000666667 0 0.0710667 0.000666667 0 0.075 0.000666667 0 0.016 0.00133333 0 0.0199333 0.00133333 0 0.0238667 0.00133333 0 0.0278 0.00133333 0 0.0317333 0.00133333 0 0.0356667 0.00133333 0 0.0396 0.00133333 0 0.0435333 0.00133333 0 0.0474667 0.00133333 0 0.0514 0.00133333 0 0.0553333 0.00133333 0 0.0592667 0.00133333 0 0.0632 0.00133333 0 0.0671333 0.00133333 0 0.0710667 0.00133333 0 0.075 0.00133333 0 0.016 0.002 0 0.0199333 0.002 0 0.0238667 0.002 0 0.0278 0.002 0 0.0317333 0.002 0 0.0356667 0.002 0 0.0396 0.002 0 0.0435333 0.002 0 0.0474667 0.002 0 0.0514 0.002 0 0.0553333 0.002 0 0.0592667 0.002 0 0.0632 0.002 0 0.0671333 0.002 0 0.0710667 0.002 0 0.075 0.002 0 0.016 0.00266667 0 0.0199333 0.00266667 0 0.0238667 0.00266667 0 0.0278 0.00266667 0 0.0317333 0.00266667 0 0.0356667 0.00266667 0 0.0396 0.00266667 0 0.0435333 0.00266667 0 0.0474667 0.00266667 0 0.0514 0.00266667 0 0.0553333 0.00266667 0 0.0592667 0.00266667 0 0.0632 0.00266667 0 0.0671333 0.00266667 0 0.0710667 0.00266667 0 0.075 0.00266667 0 0.016 0.00333333 0 0.0199333 0.00333333 0 0.0238667 0.00333333 0 0.0278 0.00333333 0 0.0317333 0.00333333 0 0.0356667 0.00333333 0 0.0396 0.00333333 0 0.0435333 0.00333333 0 0.0474667 0.00333333 0 0.0514 0.00333333 0 0.0553333 0.00333333 0 0.0592667 0.00333333 0 0.0632 0.00333333 0 0.0671333 0.00333333 0 0.0710667 0.00333333 0 0.075 0.00333333 0 0.016 0.004 0 0.0199333 0.004 0 0.0238667 0.004 0 0.0278 0.004 0 0.0317333 0.004 0 0.0356667 0.004 0 0.0396 0.004 0 0.0435333 0.004 0 0.0474667 0.004 0 0.0514 0.004 0 0.0553333 0.004 0 0.0592667 0.004 0 0.0632 0.004 0 0.0671333 0.004 0 0.0710667 0.004 0 0.075 0.004 0 0.016 0.00466667 0 0.0199333 0.00466667 0 0.0238667 0.00466667 0 0.0278 0.00466667 0 0.0317333 0.00466667 0 0.0356667 0.00466667 0 0.0396 0.00466667 0 0.0435333 0.00466667 0 0.0474667 0.00466667 0 0.0514 0.00466667 0 0.0553333 0.00466667 0 0.0592667 0.00466667 0 0.0632 0.00466667 0 0.0671333 0.00466667 0 0.0710667 0.00466667 0 0.075 0.00466667 0 0.016 0.00533333 0 0.0199333 0.00533333 0 0.0238667 0.00533333 0 0.0278 0.00533333 0 0.0317333 0.00533333 0 0.0356667 0.00533333 0 0.0396 0.00533333 0 0.0435333 0.00533333 0 0.0474667 0.00533333 0 0.0514 0.00533333 0 0.0553333 0.00533333 0 0.0592667 0.00533333 0 0.0632 0.00533333 0 0.0671333 0.00533333 0 0.0710667 0.00533333 0 0.075 0.00533333 0 0.016 0.006 0 0.0199333 0.006 0 0.0238667 0.006 0 0.0278 0.006 0 0.0317333 0.006 0 0.0356667 0.006 0 0.0396 0.006 0 0.0435333 0.006 0 0.0474667 0.006 0 0.0514 0.006 0 0.0553333 0.006 0 0.0592667 0.006 0 0.0632 0.006 0 0.0671333 0.006 0 0.0710667 0.006 0 0.075 0.006 0 0.016 0.00666667 0 0.0199333 0.00666667 0 0.0238667 0.00666667 0 0.0278 0.00666667 0 0.0317333 0.00666667 0 0.0356667 0.00666667 0 0.0396 0.00666667 0 0.0435333 0.00666667 0 0.0474667 0.00666667 0 0.0514 0.00666667 0 0.0553333 0.00666667 0 0.0592667 0.00666667 0 0.0632 0.00666667 0 0.0671333 0.00666667 0 0.0710667 0.00666667 0 0.075 0.00666667 0 0.016 0.00733333 0 0.0199333 0.00733333 0 0.0238667 0.00733333 0 0.0278 0.00733333 0 0.0317333 0.00733333 0 0.0356667 0.00733333 0 0.0396 0.00733333 0 0.0435333 0.00733333 0 0.0474667 0.00733333 0 0.0514 0.00733333 0 0.0553333 0.00733333 0 0.0592667 0.00733333 0 0.0632 0.00733333 0 0.0671333 0.00733333 0 0.0710667 0.00733333 0 0.075 0.00733333 0 0.016 0.008 0 0.0199333 0.008 0 0.0238667 0.008 0 0.0278 0.008 0 0.0317333 0.008 0 0.0356667 0.008 0 0.0396 0.008 0 0.0435333 0.008 0 0.0474667 0.008 0 0.0514 0.008 0 0.0553333 0.008 0 0.0592667 0.008 0 0.0632 0.008 0 0.0671333 0.008 0 0.0710667 0.008 0 0.075 0.008 0 0.016 0.00866667 0 0.0199333 0.00866667 0 0.0238667 0.00866667 0 0.0278 0.00866667 0 0.0317333 0.00866667 0 0.0356667 0.00866667 0 0.0396 0.00866667 0 0.0435333 0.00866667 0 0.0474667 0.00866667 0 0.0514 0.00866667 0 0.0553333 0.00866667 0 0.0592667 0.00866667 0 0.0632 0.00866667 0 0.0671333 0.00866667 0 0.0710667 0.00866667 0 0.075 0.00866667 0 0.016 0.00933333 0 0.0199333 0.00933333 0 0.0238667 0.00933333 0 0.0278 0.00933333 0 0.0317333 0.00933333 0 0.0356667 0.00933333 0 0.0396 0.00933333 0 0.0435333 0.00933333 0 0.0474667 0.00933333 0 0.0514 0.00933333 0 0.0553333 0.00933333 0 0.0592667 0.00933333 0 0.0632 0.00933333 0 0.0671333 0.00933333 0 0.0710667 0.00933333 0 0.075 0.00933333 0 0.016 0.01 0 0.0199333 0.01 0 0.0238667 0.01 0 0.0278 0.01 0 0.0317333 0.01 0 0.0356667 0.01 0 0.0396 0.01 0 0.0435333 0.01 0 0.0474667 0.01 0 0.0514 0.01 0 0.0553333 0.01 0 0.0592667 0.01 0 0.0632 0.01 0 0.0671333 0.01 0 0.0710667 0.01 0 0.075 0.01 0 
</DataArray>
</Points> 
</Piece> 
</StructuredGrid> 
</VTKFile> 
