<?xml version="1.0"?> 
<VTKFile type="StructuredGrid" version="0.1"> 
<StructuredGrid WholeExtent="0 15 0 15 0 0"> 
<Piece Extent="0 15 0 15 0 0"> 
<PointData>
<DataArray type="Float32" Name="|E|" format="ascii" NumberOfComponents="3"> 
-1.66833e+06 0 0 -1.69502e+06 -59840.1 0 -1.77714e+06 -105575 0 -1.89386e+06 -109191 0 -2.00054e+06 -71112 0 -2.07975e+06 -18767.4 0 -2.1347e+06 35233.3 0 -2.16919e+06 88768.9 0 -2.18356e+06 142966 0 -2.175e+06 198147 0 -2.13724e+06 250309 0 -2.06642e+06 278720 0 -1.98861e+06 254211 0 -1.93955e+06 184707 0 -1.93917e+06 75091.5 0 -1.98084e+06 4.05312e-06 0 -1.67422e+06 0 0 -1.70045e+06 -54512 0 -1.77975e+06 -95172.5 0 -1.89176e+06 -97528.5 0 -1.99582e+06 -61885.1 0 -2.07446e+06 -12144.9 0 -2.12944e+06 39667.9 0 -2.16392e+06 91230.7 0 -2.17819e+06 143326 0 -2.16965e+06 195986 0 -2.13286e+06 244885 0 -2.06592e+06 270718 0 -1.99347e+06 247996 0 -1.94859e+06 181674 0 -1.9498e+06 78334.5 0 -1.98443e+06 -3.65078e-07 0 -1.67958e+06 0 0 -1.70532e+06 -49297.9 0 -1.78201e+06 -85182.3 0 -1.88978e+06 -86273 0 -1.99138e+06 -52779.7 0 -2.06941e+06 -5537.42 0 -2.12438e+06 44108.2 0 -2.15885e+06 93686.4 0 -2.17305e+06 143677 0 -2.16457e+06 193850 0 -2.12881e+06 239672 0 -2.06549e+06 263253 0 -1.99801e+06 242185 0 -1.95717e+06 179085 0 -1.95994e+06 81311.8 0 -1.98957e+06 -5.40167e-08 0 -1.68442e+06 0 0 -1.70967e+06 -44199.1 0 -1.78394e+06 -75565.5 0 -1.88788e+06 -75386.9 0 -1.98718e+06 -43796.1 0 -2.0646e+06 1052 0 -2.11952e+06 48551.9 0 -2.15399e+06 96137.1 0 -2.16813e+06 144022 0 -2.15977e+06 191747 0 -2.12506e+06 234668 0 -2.06513e+06 256277 0 -2.00226e+06 236770 0 -1.96532e+06 176909 0 -1.9697e+06 84092.7 0 -1.99595e+06 4.19095e-08 0 -1.68875e+06 0 0 -1.71352e+06 -39214.1 0 -1.78555e+06 -66285.6 0 -1.88605e+06 -64835.3 0 -1.98321e+06 -34932.4 0 -2.06001e+06 7620.75 0 -2.11487e+06 52997.4 0 -2.14932e+06 98584.1 0 -2.16344e+06 144367 0 -2.15523e+06 189683 0 -2.12158e+06 229865 0 -2.0648e+06 249748 0 -2.00623e+06 231740 0 -1.97304e+06 175120 0 -1.97916e+06 86747.7 0 -2.00338e+06 -7.63685e-08 0 -1.69258e+06 0 0 -1.71687e+06 -34339.6 0 -1.78686e+06 -57309.5 0 -1.88428e+06 -54585.9 0 -1.97945e+06 -26185.2 0 -2.05564e+06 14166.8 0 -2.11041e+06 57443 0 -2.14486e+06 101029 0 -2.15897e+06 144712 0 -2.15095e+06 187661 0 -2.11836e+06 225256 0 -2.06451e+06 243627 0 -2.00992e+06 227082 0 -1.98036e+06 173700 0 -1.98835e+06 89344.5 0 -2.01174e+06 5.58794e-08 0 -1.69592e+06 0 0 -1.71976e+06 -29570.3 0 -1.78789e+06 -48606.1 0 -1.88255e+06 -44608.5 0 -1.9759e+06 -17549.6 0 -2.05148e+06 20688.9 0 -2.10616e+06 61887.6 0 -2.1406e+06 103471 0 -2.15471e+06 145063 0 -2.14692e+06 185684 0 -2.11536e+06 220833 0 -2.06423e+06 237880 0 -2.01334e+06 222780 0 -1.98728e+06 172634 0 -1.99734e+06 91945.5 0 -2.02098e+06 -7.45058e-08 0 -1.69878e+06 0 0 -1.72219e+06 -24900.2 0 -1.78864e+06 -40146.6 0 -1.88084e+06 -34874.9 0 -1.97254e+06 -9019.42 0 -2.04754e+06 27186.1 0 -2.10211e+06 66330.1 0 -2.13654e+06 105914 0 -2.15068e+06 145419 0 -2.14313e+06 183755 0 -2.11257e+06 216584 0 -2.06396e+06 232475 0 -2.01651e+06 218816 0 -1.99382e+06 171918 0 -2.00612e+06 94606.3 0 -2.03114e+06 1.63913e-07 0 -1.70117e+06 0 0 -1.72418e+06 -20321.8 0 -1.78912e+06 -31903.8 0 -1.87915e+06 -25358.4 0 -1.96936e+06 -587.812 0 -2.04381e+06 33658.2 0 -2.09826e+06 70769.8 0 -2.13268e+06 108357 0 -2.14686e+06 145785 0 -2.13957e+06 181876 0 -2.10998e+06 212498 0 -2.06368e+06 227385 0 -2.01941e+06 215169 0 -1.99999e+06 171553 0 -2.0147e+06 97372.2 0 -2.04233e+06 -1.04308e-07 0 -1.7031e+06 0 0 -1.72574e+06 -15827.4 0 -1.78934e+06 -23852.2 0 -1.87747e+06 -16033.7 0 -1.96634e+06 7752.88 0 -2.04028e+06 40105.4 0 -2.0946e+06 75206 0 -2.12902e+06 110801 0 -2.14326e+06 146160 0 -2.13624e+06 180048 0 -2.10758e+06 208561 0 -2.06339e+06 222589 0 -2.02204e+06 211811 0 -2.00581e+06 171553 0 -2.02307e+06 100275 0 -2.05474e+06 8.19564e-08 0 -1.70457e+06 0 0 -1.72687e+06 -11408.5 0 -1.7893e+06 -15967.3 0 -1.87579e+06 -6876.73 0 -1.96349e+06 16010.8 0 -2.03694e+06 46528.5 0 -2.09115e+06 79638.2 0 -2.12557e+06 113249 0 -2.13987e+06 146547 0 -2.13313e+06 178274 0 -2.10534e+06 204757 0 -2.06307e+06 218068 0 -2.02442e+06 208710 0 -2.01127e+06 171945 0 -2.03119e+06 103324 0 -2.06868e+06 -1.04308e-07 0 -1.70559e+06 0 0 -1.7276e+06 -7056.47 0 -1.78902e+06 -8225.79 0 -1.87411e+06 2135.47 0 -1.96079e+06 24194.7 0 -2.03381e+06 52928.5 0 -2.0879e+06 84066 0 -2.12231e+06 115700 0 -2.13669e+06 146943 0 -2.13024e+06 176555 0 -2.10326e+06 201067 0 -2.06271e+06 213812 0 -2.02653e+06 205819 0 -2.0164e+06 172777 0 -2.03899e+06 106498 0 -2.08463e+06 1.19209e-07 0 -1.70616e+06 0 0 -1.72792e+06 -2762.2 0 -1.7885e+06 -605.175 0 -1.87242e+06 11025.1 0 -1.95823e+06 32313.3 0 -2.03086e+06 59307.1 0 -2.08484e+06 88488.7 0 -2.11925e+06 118157 0 -2.13372e+06 147349 0 -2.12755e+06 174896 0 -2.10134e+06 197467 0 -2.06231e+06 209820 0 -2.02837e+06 203076 0 -2.02121e+06 174130 0 -2.04637e+06 109726 0 -2.10331e+06 -2.98023e-08 0 -1.70629e+06 0 0 -1.72784e+06 1483.42 0 -1.78774e+06 6916.35 0 -1.87072e+06 19813.8 0 -1.95581e+06 40376 0 -2.02811e+06 65665.9 0 -2.08198e+06 92905.7 0 -2.11639e+06 120623 0 -2.13097e+06 147760 0 -2.12506e+06 173306 0 -2.09957e+06 193923 0 -2.06184e+06 206108 0 -2.02994e+06 200389 0 -2.02571e+06 176134 0 -2.05315e+06 112861 0 -2.12574e+06 -1.3411e-07 0 -1.70599e+06 0 0 -1.72736e+06 5689.61 0 -1.78674e+06 14360.1 0 -1.869e+06 28522.3 0 -1.95353e+06 48391.9 0 -2.02554e+06 72007.2 0 -2.07932e+06 97315.7 0 -2.11372e+06 123102 0 -2.12843e+06 148169 0 -2.12275e+06 171798 0 -2.09796e+06 190389 0 -2.0613e+06 202717 0 -2.03124e+06 197622 0 -2.02992e+06 178993 0 -2.05908e+06 115638 0 -2.15345e+06 8.9407e-08 0 -1.70525e+06 0 0 -1.7265e+06 9865.42 0 -1.78551e+06 21747 0 -1.86726e+06 37171 0 -1.95139e+06 56370.5 0 -2.02315e+06 78333.5 0 -2.07685e+06 101717 0 -2.11123e+06 125599 0 -2.12611e+06 148564 0 -2.12061e+06 170397 0 -2.09651e+06 186801 0 -2.06064e+06 199722 0 -2.03227e+06 194575 0 -2.0339e+06 183024 0 -2.06378e+06 117620 0 -2.1887e+06 -4.76837e-07 0 </DataArray> 
</PointData> 
<Points> 
<DataArray type="Float32" NumberOfComponents="3"> 
0 0.035 0 0.00666667 0.035 0 0.0133333 0.035 0 0.02 0.035 0 0.0266667 0.035 0 0.0333333 0.035 0 0.04 0.035 0 0.0466667 0.035 0 0.0533333 0.035 0 0.06 0.035 0 0.0666667 0.035 0 0.0733333 0.035 0 0.08 0.035 0 0.0866667 0.035 0 0.0933333 0.035 0 0.1 0.035 0 0 0.0356667 0 0.00666667 0.0356667 0 0.0133333 0.0356667 0 0.02 0.0356667 0 0.0266667 0.0356667 0 0.0333333 0.0356667 0 0.04 0.0356667 0 0.0466667 0.0356667 0 0.0533333 0.0356667 0 0.06 0.0356667 0 0.0666667 0.0356667 0 0.0733333 0.0356667 0 0.08 0.0356667 0 0.0866667 0.0356667 0 0.0933333 0.0356667 0 0.1 0.0356667 0 0 0.0363333 0 0.00666667 0.0363333 0 0.0133333 0.0363333 0 0.02 0.0363333 0 0.0266667 0.0363333 0 0.0333333 0.0363333 0 0.04 0.0363333 0 0.0466667 0.0363333 0 0.0533333 0.0363333 0 0.06 0.0363333 0 0.0666667 0.0363333 0 0.0733333 0.0363333 0 0.08 0.0363333 0 0.0866667 0.0363333 0 0.0933333 0.0363333 0 0.1 0.0363333 0 0 0.037 0 0.00666667 0.037 0 0.0133333 0.037 0 0.02 0.037 0 0.0266667 0.037 0 0.0333333 0.037 0 0.04 0.037 0 0.0466667 0.037 0 0.0533333 0.037 0 0.06 0.037 0 0.0666667 0.037 0 0.0733333 0.037 0 0.08 0.037 0 0.0866667 0.037 0 0.0933333 0.037 0 0.1 0.037 0 0 0.0376667 0 0.00666667 0.0376667 0 0.0133333 0.0376667 0 0.02 0.0376667 0 0.0266667 0.0376667 0 0.0333333 0.0376667 0 0.04 0.0376667 0 0.0466667 0.0376667 0 0.0533333 0.0376667 0 0.06 0.0376667 0 0.0666667 0.0376667 0 0.0733333 0.0376667 0 0.08 0.0376667 0 0.0866667 0.0376667 0 0.0933333 0.0376667 0 0.1 0.0376667 0 0 0.0383333 0 0.00666667 0.0383333 0 0.0133333 0.0383333 0 0.02 0.0383333 0 0.0266667 0.0383333 0 0.0333333 0.0383333 0 0.04 0.0383333 0 0.0466667 0.0383333 0 0.0533333 0.0383333 0 0.06 0.0383333 0 0.0666667 0.0383333 0 0.0733333 0.0383333 0 0.08 0.0383333 0 0.0866667 0.0383333 0 0.0933333 0.0383333 0 0.1 0.0383333 0 0 0.039 0 0.00666667 0.039 0 0.0133333 0.039 0 0.02 0.039 0 0.0266667 0.039 0 0.0333333 0.039 0 0.04 0.039 0 0.0466667 0.039 0 0.0533333 0.039 0 0.06 0.039 0 0.0666667 0.039 0 0.0733333 0.039 0 0.08 0.039 0 0.0866667 0.039 0 0.0933333 0.039 0 0.1 0.039 0 0 0.0396667 0 0.00666667 0.0396667 0 0.0133333 0.0396667 0 0.02 0.0396667 0 0.0266667 0.0396667 0 0.0333333 0.0396667 0 0.04 0.0396667 0 0.0466667 0.0396667 0 0.0533333 0.0396667 0 0.06 0.0396667 0 0.0666667 0.0396667 0 0.0733333 0.0396667 0 0.08 0.0396667 0 0.0866667 0.0396667 0 0.0933333 0.0396667 0 0.1 0.0396667 0 0 0.0403333 0 0.00666667 0.0403333 0 0.0133333 0.0403333 0 0.02 0.0403333 0 0.0266667 0.0403333 0 0.0333333 0.0403333 0 0.04 0.0403333 0 0.0466667 0.0403333 0 0.0533333 0.0403333 0 0.06 0.0403333 0 0.0666667 0.0403333 0 0.0733333 0.0403333 0 0.08 0.0403333 0 0.0866667 0.0403333 0 0.0933333 0.0403333 0 0.1 0.0403333 0 0 0.041 0 0.00666667 0.041 0 0.0133333 0.041 0 0.02 0.041 0 0.0266667 0.041 0 0.0333333 0.041 0 0.04 0.041 0 0.0466667 0.041 0 0.0533333 0.041 0 0.06 0.041 0 0.0666667 0.041 0 0.0733333 0.041 0 0.08 0.041 0 0.0866667 0.041 0 0.0933333 0.041 0 0.1 0.041 0 0 0.0416667 0 0.00666667 0.0416667 0 0.0133333 0.0416667 0 0.02 0.0416667 0 0.0266667 0.0416667 0 0.0333333 0.0416667 0 0.04 0.0416667 0 0.0466667 0.0416667 0 0.0533333 0.0416667 0 0.06 0.0416667 0 0.0666667 0.0416667 0 0.0733333 0.0416667 0 0.08 0.0416667 0 0.0866667 0.0416667 0 0.0933333 0.0416667 0 0.1 0.0416667 0 0 0.0423333 0 0.00666667 0.0423333 0 0.0133333 0.0423333 0 0.02 0.0423333 0 0.0266667 0.0423333 0 0.0333333 0.0423333 0 0.04 0.0423333 0 0.0466667 0.0423333 0 0.0533333 0.0423333 0 0.06 0.0423333 0 0.0666667 0.0423333 0 0.0733333 0.0423333 0 0.08 0.0423333 0 0.0866667 0.0423333 0 0.0933333 0.0423333 0 0.1 0.0423333 0 0 0.043 0 0.00666667 0.043 0 0.0133333 0.043 0 0.02 0.043 0 0.0266667 0.043 0 0.0333333 0.043 0 0.04 0.043 0 0.0466667 0.043 0 0.0533333 0.043 0 0.06 0.043 0 0.0666667 0.043 0 0.0733333 0.043 0 0.08 0.043 0 0.0866667 0.043 0 0.0933333 0.043 0 0.1 0.043 0 0 0.0436667 0 0.00666667 0.0436667 0 0.0133333 0.0436667 0 0.02 0.0436667 0 0.0266667 0.0436667 0 0.0333333 0.0436667 0 0.04 0.0436667 0 0.0466667 0.0436667 0 0.0533333 0.0436667 0 0.06 0.0436667 0 0.0666667 0.0436667 0 0.0733333 0.0436667 0 0.08 0.0436667 0 0.0866667 0.0436667 0 0.0933333 0.0436667 0 0.1 0.0436667 0 0 0.0443333 0 0.00666667 0.0443333 0 0.0133333 0.0443333 0 0.02 0.0443333 0 0.0266667 0.0443333 0 0.0333333 0.0443333 0 0.04 0.0443333 0 0.0466667 0.0443333 0 0.0533333 0.0443333 0 0.06 0.0443333 0 0.0666667 0.0443333 0 0.0733333 0.0443333 0 0.08 0.0443333 0 0.0866667 0.0443333 0 0.0933333 0.0443333 0 0.1 0.0443333 0 0 0.045 0 0.00666667 0.045 0 0.0133333 0.045 0 0.02 0.045 0 0.0266667 0.045 0 0.0333333 0.045 0 0.04 0.045 0 0.0466667 0.045 0 0.0533333 0.045 0 0.06 0.045 0 0.0666667 0.045 0 0.0733333 0.045 0 0.08 0.045 0 0.0866667 0.045 0 0.0933333 0.045 0 0.1 0.045 0 
</DataArray>
</Points> 
</Piece> 
</StructuredGrid> 
</VTKFile> 
