<?xml version="1.0"?> 
<VTKFile type="StructuredGrid" version="0.1"> 
<StructuredGrid WholeExtent="0 7 0 7 0 0"> 
<Piece Extent="0 7 0 7 0 0"> 
<PointData>
<DataArray type="Float32" Name="|E|" format="ascii" NumberOfComponents="3"> 
1.14144e+06 -474658 0 1.77492e+06 -29466.3 0 1.55482e+06 134693 0 1.19111e+06 126346 0 896877 94411.9 0 696750 58710.3 0 584381 27762.6 0 548285 0 0 1.2231e+06 -508615 0 1.79019e+06 -22537.7 0 1.55146e+06 154627 0 1.18527e+06 145136 0 892066 107595 0 693894 66963.4 0 582387 31742.7 0 546570 0 0 1.29912e+06 -540226 0 1.80731e+06 -13486.8 0 1.54804e+06 175345 0 1.1791e+06 163821 0 886989 120681 0 690767 75141.7 0 580168 35672.6 0 544653 0 0 1.37115e+06 -570182 0 1.82604e+06 -2093.3 0 1.54448e+06 196801 0 1.1726e+06 182416 0 881640 133662 0 687375 83242.5 0 577723 39553.5 0 542527 0 0 1.44073e+06 -599115 0 1.84613e+06 11837 0 1.5407e+06 218957 0 1.16577e+06 200935 0 876011 146532 0 683721 91263.3 0 575052 43385.7 0 540189 0 0 1.50929e+06 -627626 0 1.86735e+06 28472 0 1.53662e+06 241781 0 1.15859e+06 219383 0 870097 159287 0 679810 99202 0 572154 47168.6 0 537636 0 0 1.57828e+06 -656315 0 1.88946e+06 47950.3 0 1.53214e+06 265252 0 1.15105e+06 237756 0 863892 171922 0 675645 107057 0 569030 50900.3 0 534862 0 0 1.64921e+06 -685811 0 1.9122e+06 70374.4 0 1.52719e+06 289361 0 1.14316e+06 256041 0 857392 184437 0 671231 114826 0 565680 54577.6 0 531866 0 0 </DataArray> 
</PointData> 
<Points> 
<DataArray type="Float32" NumberOfComponents="3"> 
0.1905 0.0099 0 0.216571 0.0099 0 0.242643 0.0099 0 0.268714 0.0099 0 0.294786 0.0099 0 0.320857 0.0099 0 0.346929 0.0099 0 0.373 0.0099 0 0.1911 0.0113429 0 0.217086 0.0113429 0 0.243071 0.0113429 0 0.269057 0.0113429 0 0.295043 0.0113429 0 0.321029 0.0113429 0 0.347014 0.0113429 0 0.373 0.0113429 0 0.1917 0.0127857 0 0.2176 0.0127857 0 0.2435 0.0127857 0 0.2694 0.0127857 0 0.2953 0.0127857 0 0.3212 0.0127857 0 0.3471 0.0127857 0 0.373 0.0127857 0 0.1923 0.0142286 0 0.218114 0.0142286 0 0.243929 0.0142286 0 0.269743 0.0142286 0 0.295557 0.0142286 0 0.321371 0.0142286 0 0.347186 0.0142286 0 0.373 0.0142286 0 0.1929 0.0156714 0 0.218629 0.0156714 0 0.244357 0.0156714 0 0.270086 0.0156714 0 0.295814 0.0156714 0 0.321543 0.0156714 0 0.347271 0.0156714 0 0.373 0.0156714 0 0.1935 0.0171143 0 0.219143 0.0171143 0 0.244786 0.0171143 0 0.270429 0.0171143 0 0.296071 0.0171143 0 0.321714 0.0171143 0 0.347357 0.0171143 0 0.373 0.0171143 0 0.1941 0.0185571 0 0.219657 0.0185571 0 0.245214 0.0185571 0 0.270771 0.0185571 0 0.296329 0.0185571 0 0.321886 0.0185571 0 0.347443 0.0185571 0 0.373 0.0185571 0 0.1947 0.02 0 0.220171 0.02 0 0.245643 0.02 0 0.271114 0.02 0 0.296586 0.02 0 0.322057 0.02 0 0.347529 0.02 0 0.373 0.02 0 
</DataArray>
</Points> 
</Piece> 
</StructuredGrid> 
</VTKFile> 
