<?xml version="1.0"?> 
<VTKFile type="StructuredGrid" version="0.1"> 
<StructuredGrid WholeExtent="0 7 0 7 0 0"> 
<Piece Extent="0 7 0 7 0 0"> 
<PointData>
<DataArray type="Float32" Name="|E|" format="ascii" NumberOfComponents="3"> 
-1.5826e+06 1.78165e+06 0 -1.72132e+06 1.89784e+06 0 -1.89035e+06 1.99902e+06 0 -2.10627e+06 2.07644e+06 0 -2.40406e+06 2.1091e+06 0 -2.84064e+06 2.04465e+06 0 -3.53543e+06 1.67428e+06 0 -4.73571e+06 2.98023e-07 0 -1.47857e+06 2.09756e+06 0 -1.63668e+06 2.2019e+06 0 -1.82835e+06 2.30345e+06 0 -2.07299e+06 2.39765e+06 0 -2.40721e+06 2.47293e+06 0 -2.90865e+06 2.49373e+06 0 -3.77154e+06 2.31743e+06 0 -5.57979e+06 1.18974e+06 0 -1.31172e+06 2.46095e+06 0 -1.47978e+06 2.56495e+06 0 -1.68206e+06 2.6771e+06 0 -1.93826e+06 2.79928e+06 0 -2.28704e+06 2.93254e+06 0 -2.8159e+06 3.07116e+06 0 -3.76186e+06 3.16087e+06 0 -5.94544e+06 2.75567e+06 0 -1.05584e+06 2.81802e+06 0 -1.2238e+06 2.92425e+06 0 -1.42227e+06 3.04829e+06 0 -1.66893e+06 3.19867e+06 0 -1.99918e+06 3.39019e+06 0 -2.49612e+06 3.65121e+06 0 -3.40109e+06 4.031e+06 0 -5.67538e+06 4.47044e+06 0 -742696 3.10939e+06 0 -905010 3.21126e+06 0 -1.09055e+06 3.33794e+06 0 -1.3128e+06 3.50272e+06 0 -1.59852e+06 3.73102e+06 0 -2.01106e+06 4.07972e+06 0 -2.74584e+06 4.69824e+06 0 -4.73619e+06 6.01276e+06 0 -436739 3.32387e+06 0 -594564 3.41054e+06 0 -767190 3.52681e+06 0 -963432 3.68785e+06 0 -1.19972e+06 3.92376e+06 0 -1.5106e+06 4.30567e+06 0 -2.00051e+06 5.04365e+06 0 -3.27129e+06 7.05789e+06 0 -183258 3.49049e+06 0 -339834 3.55051e+06 0 -503702 3.64572e+06 0 -679897 3.79057e+06 0 -877168 4.01503e+06 0 -1.10138e+06 4.38851e+06 0 -1.35913e+06 5.12253e+06 0 -1.57438e+06 7.38372e+06 0 206.429 3.63978e+06 0 -154101 3.66118e+06 0 -310977 3.7285e+06 0 -472993 3.8509e+06 0 -641242 4.05829e+06 0 -807876 4.40608e+06 0 -890622 5.07138e+06 0 3.57628e-07 6.90564e+06 0 </DataArray> 
</PointData> 
<Points> 
<DataArray type="Float32" NumberOfComponents="3"> 
0.0678 0.0673333 0 0.0728286 0.0655714 0 0.0778571 0.0638095 0 0.0828857 0.0620476 0 0.0879143 0.0602857 0 0.0929429 0.0585238 0 0.0979714 0.0567619 0 0.103 0.055 0 0.0742571 0.0737143 0 0.0781377 0.0714863 0 0.0820994 0.0692117 0 0.0861448 0.066889 0 0.0902768 0.0645166 0 0.0944979 0.062093 0 0.0988113 0.0596165 0 0.10322 0.0570854 0 0.0807143 0.0800952 0 0.0836847 0.0774221 0 0.0867602 0.0746543 0 0.0899464 0.071787 0 0.0932494 0.0688145 0 0.0966757 0.065731 0 0.100232 0.0625302 0 0.103927 0.0592052 0 0.0871714 0.0864762 0 0.0894167 0.0833171 0 0.0917579 0.080023 0 0.0942013 0.076585 0 0.0967539 0.0729935 0 0.099423 0.069238 0 0.102217 0.0653069 0 0.105144 0.0611878 0 0.0936286 0.0928571 0 0.0952755 0.0891093 0 0.0969928 0.0852012 0 0.0987852 0.0811224 0 0.100658 0.0768616 0 0.102615 0.0724061 0 0.104665 0.0677425 0 0.106812 0.0628556 0 0.100086 0.0992381 0 0.1012 0.0947382 0 0.102354 0.0900792 0 0.103549 0.0852524 0 0.104789 0.0802487 0 0.106074 0.0750581 0 0.107409 0.06967 0 0.108795 0.0640728 0 0.106543 0.105619 0 0.107129 0.100147 0 0.107727 0.0945611 0 0.108337 0.0888568 0 0.108961 0.0830306 0 0.109598 0.0770785 0 0.110249 0.0709965 0 0.110915 0.0647801 0 0.113 0.112 0 0.113 0.105286 0 0.113 0.0985714 0 0.113 0.0918571 0 0.113 0.0851429 0 0.113 0.0784286 0 0.113 0.0717143 0 0.113 0.065 0 
</DataArray>
</Points> 
</Piece> 
</StructuredGrid> 
</VTKFile> 
