<?xml version="1.0"?> 
<VTKFile type="StructuredGrid" version="0.1"> 
<StructuredGrid WholeExtent="0 7 0 7 0 0"> 
<Piece Extent="0 7 0 7 0 0"> 
<PointData>
<DataArray type="Float32" Name="|E|" format="ascii" NumberOfComponents="3"> 
370734 5.44469e+06 0 1.19556e+06 5.88999e+06 0 2.0638e+06 5.91658e+06 0 2.88614e+06 5.64121e+06 0 3.59031e+06 5.1279e+06 0 4.13586e+06 4.45642e+06 0 4.51616e+06 3.70712e+06 0 4.74657e+06 2.94327e+06 0 986101 4.44406e+06 0 1.52981e+06 4.27562e+06 0 1.96903e+06 3.79646e+06 0 2.15823e+06 3.20701e+06 0 2.1536e+06 2.67743e+06 0 2.05666e+06 2.2611e+06 0 1.93815e+06 1.94727e+06 0 1.83226e+06 1.70849e+06 0 887732 3.98338e+06 0 1.28208e+06 3.62771e+06 0 1.48795e+06 3.05781e+06 0 1.47334e+06 2.50124e+06 0 1.35761e+06 2.06051e+06 0 1.22752e+06 1.72496e+06 0 1.11293e+06 1.46208e+06 0 1.01773e+06 1.2517e+06 0 712778 3.72808e+06 0 998857 3.27429e+06 0 1.08436e+06 2.67189e+06 0 1.00395e+06 2.12858e+06 0 873465 1.70242e+06 0 749140 1.37527e+06 0 647744 1.12629e+06 0 573886 939135 0 529906 3.575e+06 0 730735 3.04814e+06 0 750103 2.41067e+06 0 652012 1.85428e+06 0 534854 1.4223e+06 0 438197 1.09569e+06 0 369355 845114 0 320610 644179 0 349337 3.48271e+06 0 478694 2.88571e+06 0 464158 2.20021e+06 0 377570 1.61912e+06 0 293555 1.17934e+06 0 232854 851403 0 191861 600884 0 166977 405967 0 173091 3.43274e+06 0 236934 2.7565e+06 0 215435 2.0097e+06 0 163776 1.4039e+06 0 121877 961960 0 94319.4 638882 0 78180.3 393877 0 70471.7 195668 0 0 3.41668e+06 0 0 2.64287e+06 0 0 1.82468e+06 0 0 1.20358e+06 0 0 768733 0 0 456207 0 0 211833 0 0 956.425 0 </DataArray> 
</PointData> 
<Points> 
<DataArray type="Float32" NumberOfComponents="3"> 
0.188 0.0600551 0 0.190112 0.0597701 0 0.192215 0.0591928 0 0.194248 0.0583229 0 0.196152 0.0571769 0 0.197872 0.0557873 0 0.199367 0.0541992 0 0.200607 0.0524662 0 0.188 0.0674758 0 0.193668 0.0674082 0 0.199442 0.0670392 0 0.205188 0.066363 0 0.210765 0.0653887 0 0.21604 0.0641397 0 0.220894 0.062652 0 0.225234 0.0609711 0 0.188 0.0748965 0 0.197196 0.0749862 0 0.206574 0.0747814 0 0.215953 0.0742742 0 0.225144 0.0734688 0 0.233966 0.0723811 0 0.242252 0.0710383 0 0.249862 0.0694759 0 0.188 0.0823172 0 0.200697 0.0825049 0 0.213611 0.0824215 0 0.226546 0.0820595 0 0.239295 0.0814202 0 0.251656 0.0805139 0 0.263442 0.0793589 0 0.27449 0.0779807 0 0.188 0.0897379 0 0.20417 0.089965 0 0.220557 0.0899614 0 0.236972 0.0897218 0 0.253222 0.0892462 0 0.269114 0.0885402 0 0.284468 0.0876147 0 0.299117 0.0864855 0 0.188 0.0971586 0 0.207616 0.0973671 0 0.227412 0.0974033 0 0.247235 0.0972642 0 0.266931 0.0969496 0 0.286345 0.0964619 0 0.30533 0.0958063 0 0.323745 0.0949904 0 0.188 0.104579 0 0.211035 0.104712 0 0.234178 0.104749 0 0.257338 0.104689 0 0.280427 0.104533 0 0.303353 0.104281 0 0.32603 0.103934 0 0.348372 0.103495 0 0.188 0.112 0 0.214429 0.112 0 0.240857 0.112 0 0.267286 0.112 0 0.293714 0.112 0 0.320143 0.112 0 0.346571 0.112 0 0.373 0.112 0 
</DataArray>
</Points> 
</Piece> 
</StructuredGrid> 
</VTKFile> 
