<?xml version="1.0"?> 
<VTKFile type="StructuredGrid" version="0.1"> 
<StructuredGrid WholeExtent="0 7 0 7 0 0"> 
<Piece Extent="0 7 0 7 0 0"> 
<PointData>
<DataArray type="Float32" Name="|E|" format="ascii" NumberOfComponents="3"> 
543.286 2154.65 0 -122.311 350.076 0 -27.053 32.1416 0 -0.751881 30.8671 0 -6.98473 1.43003 0 1.52386 1.93023 0 -1.38709 1.86717 0 -1.81394 -7.15256e-07 0 -546.007 1464.22 0 -165.989 240.307 0 -38.7888 41.1176 0 -6.5173 19.3533 0 -5.53718 3.42665 0 0.131871 1.53994 0 -0.96997 1.02227 0 -1.04023 1.80677e-07 0 -1019.4 841.697 0 -196.805 143.908 0 -44.6995 32.9775 0 -9.96671 13.8595 0 -5.07652 3.4146 0 -0.593454 1.30406 0 -0.811137 0.708897 0 -0.712997 -1.88127e-07 0 -1119.17 228.751 0 -197.101 57.39 0 -46.2036 21.431 0 -12.0116 9.80774 0 -4.89536 2.89999 0 -1.05156 1.08911 0 -0.73593 0.524896 0 -0.545016 2.6077e-07 0 -951.349 -266.11 0 -170.662 -10.0309 0 -44.3692 9.86614 0 -13.011 6.53017 0 -4.79472 2.15523 0 -1.3509 0.878327 0 -0.699728 0.408904 0 -0.460008 -2.83122e-07 0 -628.251 -580.28 0 -127.936 -51.5451 0 -40.1873 -0.687412 0 -13.3888 4.0966 0 -4.56259 1.18943 0 -1.61259 0.679623 0 -0.654319 0.383619 0 -0.36574 2.98023e-07 0 -215.082 -746.685 0 -84.5715 -71.2774 0 -34.478 -5.72399 0 -13.3096 0.551586 0 -4.20544 0.737851 0 -1.83109 0.427958 0 -0.61149 0.217672 0 -0.261018 2.98023e-08 0 357.637 -954.896 0 -67.6676 -103.473 0 -27.6303 17.3009 0 -11.3918 -15.3163 0 -5.06942 4.9779 0 -1.12779 -0.309677 0 -1.0372 -1.52163 0 -0.852515 -2.6226e-06 0 </DataArray> 
</PointData> 
<Points> 
<DataArray type="Float32" NumberOfComponents="3"> 
0.125 0.021 0 0.133571 0.0215714 0 0.142143 0.0221429 0 0.150714 0.0227143 0 0.159286 0.0232857 0 0.167857 0.0238571 0 0.176429 0.0244286 0 0.185 0.025 0 0.125714 0.023 0 0.134184 0.0233878 0 0.142653 0.0237755 0 0.151122 0.0241633 0 0.159592 0.024551 0 0.168061 0.0249388 0 0.176531 0.0253265 0 0.185 0.0257143 0 0.126429 0.025 0 0.134796 0.0252041 0 0.143163 0.0254082 0 0.151531 0.0256122 0 0.159898 0.0258163 0 0.168265 0.0260204 0 0.176633 0.0262245 0 0.185 0.0264286 0 0.127143 0.027 0 0.135408 0.0270204 0 0.143673 0.0270408 0 0.151939 0.0270612 0 0.160204 0.0270816 0 0.168469 0.027102 0 0.176735 0.0271224 0 0.185 0.0271429 0 0.127857 0.029 0 0.13602 0.0288367 0 0.144184 0.0286735 0 0.152347 0.0285102 0 0.16051 0.0283469 0 0.168673 0.0281837 0 0.176837 0.0280204 0 0.185 0.0278571 0 0.128571 0.031 0 0.136633 0.0306531 0 0.144694 0.0303061 0 0.152755 0.0299592 0 0.160816 0.0296122 0 0.168878 0.0292653 0 0.176939 0.0289184 0 0.185 0.0285714 0 0.129286 0.033 0 0.137245 0.0324694 0 0.145204 0.0319388 0 0.153163 0.0314082 0 0.161122 0.0308776 0 0.169082 0.0303469 0 0.177041 0.0298163 0 0.185 0.0292857 0 0.13 0.035 0 0.137857 0.0342857 0 0.145714 0.0335714 0 0.153571 0.0328571 0 0.161429 0.0321429 0 0.169286 0.0314286 0 0.177143 0.0307143 0 0.185 0.03 0 
</DataArray>
</Points> 
</Piece> 
</StructuredGrid> 
</VTKFile> 
