<?xml version="1.0"?> 
<VTKFile type="StructuredGrid" version="0.1"> 
<StructuredGrid WholeExtent="0 7 0 7 0 0"> 
<Piece Extent="0 7 0 7 0 0"> 
<PointData>
<DataArray type="Float32" Name="|E|" format="ascii" NumberOfComponents="3"> 
-2.11166e+06 0 0 -2.13995e+06 54359.8 0 -2.22701e+06 112911 0 -2.37952e+06 181159 0 -2.61032e+06 257836 0 -2.94295e+06 348673 0 -3.41599e+06 399687 0 -3.8209e+06 -51941.8 0 -2.10708e+06 0 0 -2.1283e+06 51023.8 0 -2.19332e+06 104933 0 -2.30502e+06 165380 0 -2.47188e+06 234638 0 -2.70215e+06 315496 0 -3.02531e+06 403775 0 -3.46948e+06 387236 0 -2.10217e+06 0 0 -2.1174e+06 46609.5 0 -2.16368e+06 94909.4 0 -2.24238e+06 147254 0 -2.35733e+06 206036 0 -2.51401e+06 272996 0 -2.71821e+06 353688 0 -2.99423e+06 442048 0 -2.09698e+06 0 0 -2.10722e+06 40959.2 0 -2.13801e+06 82824 0 -2.1903e+06 127036 0 -2.26497e+06 174901 0 -2.36523e+06 227018 0 -2.49335e+06 287850 0 -2.65258e+06 363247 0 -2.09146e+06 0 0 -2.09769e+06 34106.2 0 -2.11634e+06 68668.7 0 -2.14782e+06 104335 0 -2.19249e+06 142028 0 -2.25099e+06 181778 0 -2.32481e+06 223777 0 -2.41513e+06 270667 0 -2.08556e+06 0 0 -2.08878e+06 26122.6 0 -2.09847e+06 52445.5 0 -2.11462e+06 79086.7 0 -2.13745e+06 106489 0 -2.16709e+06 135038 0 -2.20373e+06 164701 0 -2.24782e+06 195276 0 -2.0793e+06 0 0 -2.08051e+06 17013.3 0 -2.08416e+06 34106.5 0 -2.09028e+06 51232.3 0 -2.09881e+06 68423.2 0 -2.10979e+06 85864.3 0 -2.12328e+06 103598 0 -2.13933e+06 121437 0 -2.07269e+06 0 0 -2.07287e+06 6788.94 0 -2.07339e+06 13518.1 0 -2.07423e+06 20135.6 0 -2.07542e+06 26944.8 0 -2.07697e+06 34094.4 0 -2.07891e+06 41163.4 0 -2.0812e+06 47716.9 0 </DataArray> 
</PointData> 
<Points> 
<DataArray type="Float32" NumberOfComponents="3"> 
0 0.01 0 0.0107143 0.01 0 0.0214286 0.01 0 0.0321429 0.01 0 0.0428571 0.01 0 0.0535714 0.01 0 0.0642857 0.01 0 0.075 0.01 0 0 0.0108571 0 0.00930612 0.0108571 0 0.0186122 0.0108571 0 0.0279184 0.0108571 0 0.0372245 0.0108571 0 0.0465306 0.0108571 0 0.0558367 0.0108571 0 0.0651429 0.0108571 0 0 0.0117143 0 0.00789796 0.0117143 0 0.0157959 0.0117143 0 0.0236939 0.0117143 0 0.0315918 0.0117143 0 0.0394898 0.0117143 0 0.0473878 0.0117143 0 0.0552857 0.0117143 0 0 0.0125714 0 0.0064898 0.0125714 0 0.0129796 0.0125714 0 0.0194694 0.0125714 0 0.0259592 0.0125714 0 0.032449 0.0125714 0 0.0389388 0.0125714 0 0.0454286 0.0125714 0 0 0.0134286 0 0.00508163 0.0134286 0 0.0101633 0.0134286 0 0.0152449 0.0134286 0 0.0203265 0.0134286 0 0.0254082 0.0134286 0 0.0304898 0.0134286 0 0.0355714 0.0134286 0 0 0.0142857 0 0.00367347 0.0142857 0 0.00734694 0.0142857 0 0.0110204 0.0142857 0 0.0146939 0.0142857 0 0.0183673 0.0142857 0 0.0220408 0.0142857 0 0.0257143 0.0142857 0 0 0.0151429 0 0.00226531 0.0151429 0 0.00453061 0.0151429 0 0.00679592 0.0151429 0 0.00906122 0.0151429 0 0.0113265 0.0151429 0 0.0135918 0.0151429 0 0.0158571 0.0151429 0 0 0.016 0 0.000857143 0.016 0 0.00171429 0.016 0 0.00257143 0.016 0 0.00342857 0.016 0 0.00428571 0.016 0 0.00514286 0.016 0 0.006 0.016 0 
</DataArray>
</Points> 
</Piece> 
</StructuredGrid> 
</VTKFile> 
