<?xml version="1.0"?> 
<VTKFile type="StructuredGrid" version="0.1"> 
<StructuredGrid WholeExtent="0 7 0 7 0 0"> 
<Piece Extent="0 7 0 7 0 0"> 
<PointData>
<DataArray type="Float32" Name="|E|" format="ascii" NumberOfComponents="3"> 
1.34297e+06 -2.38419e-07 0 1.75708e+06 0.0876616 0 1.5678e+06 -0.066303 0 1.19594e+06 -0.0767644 0 896686 0.0376148 0 693257 -0.0135281 0 577391 0.00875318 0 537694 0 0 1.34222e+06 -5.96046e-08 0 1.75751e+06 -3552.95 0 1.56782e+06 9470.76 0 1.19592e+06 9593.46 0 896647 6767.19 0 693224 4266.38 0 577363 1994.54 0 537667 0 0 1.33999e+06 2.98023e-08 0 1.75881e+06 -7113 0 1.56787e+06 18946.9 0 1.19585e+06 19193.2 0 896529 13531.3 0 693126 8533.87 0 577279 3988.36 0 537585 0 0 1.33624e+06 -5.96046e-08 0 1.76099e+06 -10686.6 0 1.56796e+06 28433.2 0 1.19575e+06 28805 0 896333 20289.4 0 692961 12803.5 0 577138 5980.8 0 537450 0 0 1.33097e+06 2.98023e-08 0 1.76405e+06 -14280 0 1.56808e+06 37934.3 0 1.19561e+06 38435 0 896058 27038.6 0 692731 17076.4 0 576942 7971.16 0 537259 0 0 1.32414e+06 5.96046e-08 0 1.76802e+06 -17899.3 0 1.56823e+06 47454.6 0 1.19543e+06 48089.1 0 895704 33775.8 0 692435 21353.8 0 576691 9958.73 0 537015 0 0 1.3157e+06 -1.19209e-07 0 1.77293e+06 -21550.2 0 1.56838e+06 56998.2 0 1.19521e+06 57774 0 895270 40497.5 0 692072 25636.8 0 576383 11942.7 0 536715 0 0 1.3056e+06 0 0 1.77881e+06 -25238.3 0 1.56854e+06 66568.8 0 1.19496e+06 67496.7 0 894756 47200.2 0 691644 29927.1 0 576021 13922.4 0 536360 0 0 </DataArray> 
</PointData> 
<Points> 
<DataArray type="Float32" NumberOfComponents="3"> 
0.19 0 0 0.216143 0 0 0.242286 0 0 0.268429 0 0 0.294571 0 0 0.320714 0 0 0.346857 0 0 0.373 0 0 0.19 0.000714286 0 0.216143 0.000714286 0 0.242286 0.000714286 0 0.268429 0.000714286 0 0.294571 0.000714286 0 0.320714 0.000714286 0 0.346857 0.000714286 0 0.373 0.000714286 0 0.19 0.00142857 0 0.216143 0.00142857 0 0.242286 0.00142857 0 0.268429 0.00142857 0 0.294571 0.00142857 0 0.320714 0.00142857 0 0.346857 0.00142857 0 0.373 0.00142857 0 0.19 0.00214286 0 0.216143 0.00214286 0 0.242286 0.00214286 0 0.268429 0.00214286 0 0.294571 0.00214286 0 0.320714 0.00214286 0 0.346857 0.00214286 0 0.373 0.00214286 0 0.19 0.00285714 0 0.216143 0.00285714 0 0.242286 0.00285714 0 0.268429 0.00285714 0 0.294571 0.00285714 0 0.320714 0.00285714 0 0.346857 0.00285714 0 0.373 0.00285714 0 0.19 0.00357143 0 0.216143 0.00357143 0 0.242286 0.00357143 0 0.268429 0.00357143 0 0.294571 0.00357143 0 0.320714 0.00357143 0 0.346857 0.00357143 0 0.373 0.00357143 0 0.19 0.00428571 0 0.216143 0.00428571 0 0.242286 0.00428571 0 0.268429 0.00428571 0 0.294571 0.00428571 0 0.320714 0.00428571 0 0.346857 0.00428571 0 0.373 0.00428571 0 0.19 0.005 0 0.216143 0.005 0 0.242286 0.005 0 0.268429 0.005 0 0.294571 0.005 0 0.320714 0.005 0 0.346857 0.005 0 0.373 0.005 0 
</DataArray>
</Points> 
</Piece> 
</StructuredGrid> 
</VTKFile> 
