<?xml version="1.0"?> 
<VTKFile type="StructuredGrid" version="0.1"> 
<StructuredGrid WholeExtent="0 7 0 7 0 0"> 
<Piece Extent="0 7 0 7 0 0"> 
<PointData>
<DataArray type="Float32" Name="|E|" format="ascii" NumberOfComponents="3"> 
-2.16265e+06 0 0 -2.19325e+06 0.12341 0 -2.28105e+06 0.227631 0 -2.43207e+06 0.508958 0 -2.65801e+06 0.0353468 0 -2.96686e+06 -3.00432 0 -3.31787e+06 -9.61274 0 -3.52274e+06 -2.38419e-07 0 -2.16216e+06 0 0 -2.19274e+06 7501.18 0 -2.28049e+06 15524.7 0 -2.4314e+06 24636.2 0 -2.65723e+06 35752.3 0 -2.96642e+06 45985 0 -3.31919e+06 41741.5 0 -3.52708e+06 9.31323e-08 0 -2.16068e+06 0 0 -2.19121e+06 14992.4 0 -2.2788e+06 31030.8 0 -2.42938e+06 49231.5 0 -2.65489e+06 71499.2 0 -2.96506e+06 92212.8 0 -3.3231e+06 84271.2 0 -3.5403e+06 -1.04308e-07 0 -2.15822e+06 0 0 -2.18866e+06 22464.6 0 -2.27598e+06 46500.7 0 -2.42602e+06 73749 0 -2.65096e+06 107228 0 -2.96273e+06 138906 0 -3.32941e+06 128339 0 -3.56301e+06 8.9407e-08 0 -2.15477e+06 0 0 -2.1851e+06 29909.5 0 -2.27204e+06 61915.7 0 -2.42132e+06 98155.9 0 -2.64539e+06 142911 0 -2.95935e+06 186279 0 -3.33778e+06 174719 0 -3.59628e+06 -4.47035e-08 0 -2.15035e+06 0 0 -2.18052e+06 37320 0 -2.26699e+06 77253.9 0 -2.4153e+06 122426 0 -2.6381e+06 178495 0 -2.95482e+06 234550 0 -3.34763e+06 224245 0 -3.64179e+06 1.49012e-08 0 -2.14496e+06 0 0 -2.17494e+06 44691.5 0 -2.26083e+06 92486.9 0 -2.40798e+06 146550 0 -2.62899e+06 213881 0 -2.94909e+06 283943 0 -3.35803e+06 277805 0 -3.70205e+06 2.98023e-08 0 -2.1386e+06 0 0 -2.16835e+06 52025.7 0 -2.25357e+06 107569 0 -2.39939e+06 170551 0 -2.61786e+06 248891 0 -2.94219e+06 334723 0 -3.36751e+06 336383 0 -3.78066e+06 1.19209e-07 0 </DataArray> 
</PointData> 
<Points> 
<DataArray type="Float32" NumberOfComponents="3"> 
0 0 0 0.0107143 0 0 0.0214286 0 0 0.0321429 0 0 0.0428571 0 0 0.0535714 0 0 0.0642857 0 0 0.075 0 0 0 0.00142857 0 0.0107143 0.00142857 0 0.0214286 0.00142857 0 0.0321429 0.00142857 0 0.0428571 0.00142857 0 0.0535714 0.00142857 0 0.0642857 0.00142857 0 0.075 0.00142857 0 0 0.00285714 0 0.0107143 0.00285714 0 0.0214286 0.00285714 0 0.0321429 0.00285714 0 0.0428571 0.00285714 0 0.0535714 0.00285714 0 0.0642857 0.00285714 0 0.075 0.00285714 0 0 0.00428571 0 0.0107143 0.00428571 0 0.0214286 0.00428571 0 0.0321429 0.00428571 0 0.0428571 0.00428571 0 0.0535714 0.00428571 0 0.0642857 0.00428571 0 0.075 0.00428571 0 0 0.00571429 0 0.0107143 0.00571429 0 0.0214286 0.00571429 0 0.0321429 0.00571429 0 0.0428571 0.00571429 0 0.0535714 0.00571429 0 0.0642857 0.00571429 0 0.075 0.00571429 0 0 0.00714286 0 0.0107143 0.00714286 0 0.0214286 0.00714286 0 0.0321429 0.00714286 0 0.0428571 0.00714286 0 0.0535714 0.00714286 0 0.0642857 0.00714286 0 0.075 0.00714286 0 0 0.00857143 0 0.0107143 0.00857143 0 0.0214286 0.00857143 0 0.0321429 0.00857143 0 0.0428571 0.00857143 0 0.0535714 0.00857143 0 0.0642857 0.00857143 0 0.075 0.00857143 0 0 0.01 0 0.0107143 0.01 0 0.0214286 0.01 0 0.0321429 0.01 0 0.0428571 0.01 0 0.0535714 0.01 0 0.0642857 0.01 0 0.075 0.01 0 
</DataArray>
</Points> 
</Piece> 
</StructuredGrid> 
</VTKFile> 
