<?xml version="1.0"?> 
<VTKFile type="StructuredGrid" version="0.1"> 
<StructuredGrid WholeExtent="0 7 0 7 0 0"> 
<Piece Extent="0 7 0 7 0 0"> 
<PointData>
<DataArray type="Float32" Name="|E|" format="ascii" NumberOfComponents="3"> 
-1.78814e-07 3.96638e+06 0 1.00583e-07 2.15343e+06 0 -7.45058e-08 1.47883e+06 0 -1.49012e-08 1.02982e+06 0 5.96046e-08 682976 0 -2.98023e-08 403163 0 -1.49012e-08 168901 0 5.96046e-08 0.03125 0 -1.28923e+06 2.62209e+06 0 -550426 2.07109e+06 0 -301934 1.49669e+06 0 -180948 1.0663e+06 0 -109543 722441 0 -61079 431915 0 -25307.4 187212 0 4649.13 21798 0 -1.54079e+06 1.96958e+06 0 -974214 1.79226e+06 0 -595415 1.43321e+06 0 -372992 1.06814e+06 0 -230147 739347 0 -129603 451420 0 -54784.1 199845 0 5314.28 11464.7 0 -1.63151e+06 1.57231e+06 0 -1.22165e+06 1.52305e+06 0 -842311 1.31577e+06 0 -556926 1.03035e+06 0 -352050 735207 0 -201178 457108 0 -86381.6 206928 0 2614.02 3318.53 0 -1.69716e+06 1.31024e+06 0 -1.37921e+06 1.29757e+06 0 -1.03059e+06 1.17744e+06 0 -716771 964874 0 -465101 709484 0 -269398 450048 0 -117339 207314 0 -2003.07 -1577.82 0 -1.76711e+06 1.12204e+06 0 -1.49563e+06 1.11507e+06 0 -1.17169e+06 1.03994e+06 0 -846376 881979 0 -561449 666310 0 -329010 430339 0 -144908 201022 0 -6734.31 -3121.44 0 -1.84809e+06 979284 0 -1.5928e+06 965930 0 -1.28007e+06 911988 0 -946966 791115 0 -638132 610088 0 -377105 399540 0 -167610 188225 0 -10213.8 -2177.95 0 -1.94038e+06 866361 0 -1.68075e+06 840943 0 -1.36558e+06 795663 0 -1.02261e+06 699235 0 -695274 546494 0 -412861 360984 0 -184937 170445 0 -11832.7 7.62939e-06 0 </DataArray> 
</PointData> 
<Points> 
<DataArray type="Float32" NumberOfComponents="3"> 
0.1 0.045 0 0.101857 0.045 0 0.103714 0.045 0 0.105571 0.045 0 0.107429 0.045 0 0.109286 0.045 0 0.111143 0.045 0 0.113 0.045 0 0.1 0.0464286 0 0.101736 0.0462377 0 0.103509 0.0460429 0 0.105319 0.045844 0 0.107168 0.0456408 0 0.109056 0.0454332 0 0.110986 0.0452211 0 0.112959 0.0450043 0 0.1 0.0478571 0 0.101653 0.0474939 0 0.103364 0.0471177 0 0.105137 0.0467281 0 0.106975 0.0463241 0 0.108882 0.0459051 0 0.110861 0.0454701 0 0.112917 0.0450183 0 0.1 0.0492857 0 0.101609 0.0487556 0 0.103286 0.0482028 0 0.105037 0.0476259 0 0.106866 0.0470233 0 0.108779 0.0463931 0 0.11078 0.0457334 0 0.112878 0.0450422 0 0.1 0.0507143 0 0.101605 0.0500098 0 0.103278 0.0492752 0 0.105024 0.0485086 0 0.106849 0.0477077 0 0.108756 0.0468702 0 0.110753 0.0459936 0 0.112845 0.0450751 0 0.1 0.0521429 0 0.101641 0.0512434 0 0.103339 0.0503122 0 0.105099 0.0493474 0 0.106924 0.0483473 0 0.108816 0.0473098 0 0.110781 0.0462329 0 0.112821 0.0451141 0 0.1 0.0535714 0 0.101716 0.0524439 0 0.103468 0.0512928 0 0.105257 0.0501173 0 0.107084 0.0489167 0 0.108951 0.0476902 0 0.110858 0.0464368 0 0.112807 0.0451559 0 0.1 0.055 0 0.101829 0.0535996 0 0.103658 0.0521991 0 0.105487 0.0507987 0 0.107316 0.0493982 0 0.109145 0.0479978 0 0.110974 0.0465974 0 0.112803 0.0451969 0 
</DataArray>
</Points> 
</Piece> 
</StructuredGrid> 
</VTKFile> 
