<?xml version="1.0"?> 
<VTKFile type="StructuredGrid" version="0.1"> 
<StructuredGrid WholeExtent="0 7 0 7 0 0"> 
<Piece Extent="0 7 0 7 0 0"> 
<PointData>
<DataArray type="Float32" Name="|E|" format="ascii" NumberOfComponents="3"> 
148606 2.25392e+06 0 9980.06 2.30419e+06 0 5411.69 2.41681e+06 0 3858.83 2.55571e+06 0 3073.08 2.69821e+06 0 2592.55 2.83554e+06 0 2267.22 2.96878e+06 0 2027.66 3.09248e+06 0 411971 2.48774e+06 0 372451 2.52319e+06 0 316149 2.58664e+06 0 256283 2.67357e+06 0 204422 2.77359e+06 0 166705 2.87854e+06 0 146279 2.98843e+06 0 140413 3.12143e+06 0 580868 2.73749e+06 0 526158 2.75842e+06 0 459162 2.79056e+06 0 389502 2.8323e+06 0 327326 2.88223e+06 0 282084 2.93919e+06 0 262262 3.00485e+06 0 282558 3.08933e+06 0 616734 2.98208e+06 0 554435 2.97667e+06 0 487682 2.97377e+06 0 423123 2.97473e+06 0 368162 2.9801e+06 0 330502 2.9898e+06 0 318617 3.00329e+06 0 346143 3.01825e+06 0 539675 3.18843e+06 0 483260 3.15134e+06 0 427717 3.11537e+06 0 377526 3.08172e+06 0 337051 3.0508e+06 0 310989 3.02179e+06 0 304526 2.9922e+06 0 324216 2.95646e+06 0 387043 3.33203e+06 0 346379 3.26696e+06 0 308792 3.20509e+06 0 276491 3.14657e+06 0 251681 3.09078e+06 0 236561 3.0361e+06 0 233267 2.97968e+06 0 243913 2.91691e+06 0 198596 3.41048e+06 0 177732 3.32527e+06 0 159151 3.24637e+06 0 143929 3.17296e+06 0 132845 3.1036e+06 0 126509 3.03624e+06 0 125367 2.96825e+06 0 129658 2.89642e+06 0 0 3.43575e+06 0 0 3.33662e+06 0 0 3.24827e+06 0 0 3.16873e+06 0 0 3.09562e+06 0 0 3.02642e+06 0 0 2.95863e+06 0 0 2.88988e+06 0 </DataArray> 
</PointData> 
<Points> 
<DataArray type="Float32" NumberOfComponents="3"> 
0.1465 0.0453504 0 0.147299 0.0453439 0 0.149498 0.0453374 0 0.153097 0.0453309 0 0.158097 0.0453244 0 0.164498 0.0453179 0 0.172299 0.0453114 0 0.1815 0.0453049 0 0.1465 0.0548717 0 0.147899 0.0548662 0 0.150498 0.0548606 0 0.154298 0.0548551 0 0.159298 0.0548495 0 0.165498 0.0548439 0 0.172899 0.0548384 0 0.1815 0.0548328 0 0.1465 0.0643931 0 0.148499 0.0643885 0 0.151498 0.0643838 0 0.155498 0.0643792 0 0.160498 0.0643746 0 0.166498 0.0643699 0 0.173499 0.0643653 0 0.1815 0.0643607 0 0.1465 0.0739145 0 0.149099 0.0739108 0 0.152499 0.0739071 0 0.156698 0.0739034 0 0.161698 0.0738997 0 0.167499 0.0738959 0 0.174099 0.0738922 0 0.1815 0.0738885 0 0.1465 0.0834359 0 0.149699 0.0834331 0 0.153499 0.0834303 0 0.157899 0.0834275 0 0.162899 0.0834247 0 0.168499 0.083422 0 0.174699 0.0834192 0 0.1815 0.0834164 0 0.1465 0.0929572 0 0.1503 0.0929554 0 0.154499 0.0929535 0 0.159099 0.0929517 0 0.164099 0.0929498 0 0.169499 0.092948 0 0.1753 0.0929461 0 0.1815 0.0929443 0 0.1465 0.102479 0 0.1509 0.102478 0 0.1555 0.102477 0 0.1603 0.102476 0 0.1653 0.102475 0 0.1705 0.102474 0 0.1759 0.102473 0 0.1815 0.102472 0 0.1465 0.112 0 0.1515 0.112 0 0.1565 0.112 0 0.1615 0.112 0 0.1665 0.112 0 0.1715 0.112 0 0.1765 0.112 0 0.1815 0.112 0 
</DataArray>
</Points> 
</Piece> 
</StructuredGrid> 
</VTKFile> 
