<?xml version="1.0"?> 
<VTKFile type="StructuredGrid" version="0.1"> 
<StructuredGrid WholeExtent="0 7 0 7 0 0"> 
<Piece Extent="0 7 0 7 0 0"> 
<PointData>
<DataArray type="Float32" Name="|E|" format="ascii" NumberOfComponents="3"> 
-817828 0 0 -946285 381022 0 -1.11523e+06 750510 0 -1.3359e+06 1.10666e+06 0 -1.61726e+06 1.42329e+06 0 -1.9631e+06 1.60618e+06 0 -2.32033e+06 1.42907e+06 0 -2.06916e+06 865083 0 -706026 0 0 -843583 390047 0 -1.01987e+06 769701 0 -1.2494e+06 1.13758e+06 0 -1.54733e+06 1.46799e+06 0 -1.93518e+06 1.67023e+06 0 -2.37907e+06 1.48299e+06 0 -2.21441e+06 744480 0 -591946 0 0 -738500 398233 0 -921823 787728 0 -1.15952e+06 1.16794e+06 0 -1.47239e+06 1.51428e+06 0 -1.89865e+06 1.74188e+06 0 -2.44122e+06 1.55602e+06 0 -2.39427e+06 650134 0 -475920 0 0 -631258 405502 0 -821230 804393 0 -1.06617e+06 1.19731e+06 0 -1.39209e+06 1.56135e+06 0 -1.85148e+06 1.81961e+06 0 -2.50315e+06 1.65155e+06 0 -2.61048e+06 576417 0 -358313 0 0 -522106 411771 0 -718261 819531 0 -969342 1.22518e+06 0 -1.30637e+06 1.60851e+06 0 -1.79181e+06 1.90134e+06 0 -2.5596e+06 1.77226e+06 0 -2.86847e+06 521747 0 -239516 0 0 -411324 416938 0 -613118 833049 0 -869174 1.25094e+06 0 -1.21533e+06 1.65523e+06 0 -1.71827e+06 1.98446e+06 0 -2.60329e+06 1.91994e+06 0 -3.17639e+06 488010 0 -119910 0 0 -299266 420859 0 -505974 844973 0 -765937 1.27383e+06 0 -1.11925e+06 1.70116e+06 0 -1.63033e+06 2.06599e+06 0 -2.62462e+06 2.09504e+06 0 -3.54368e+06 481458 0 268.227 0 0 -186488 423286 0 -396830 855578 0 -660178 1.29289e+06 0 -1.01837e+06 1.7462e+06 0 -1.52884e+06 2.14283e+06 0 -2.61193e+06 2.29523e+06 0 -3.97399e+06 521872 0 </DataArray> 
</PointData> 
<Points> 
<DataArray type="Float32" NumberOfComponents="3"> 
0 0.0835 0 0.0142857 0.0794286 0 0.0285714 0.0753571 0 0.0428571 0.0712857 0 0.0571429 0.0672143 0 0.0714286 0.0631429 0 0.0857143 0.0590714 0 0.1 0.055 0 0 0.0875714 0 0.0142857 0.083198 0 0.0285714 0.0788245 0 0.0428571 0.074451 0 0.0571429 0.0700776 0 0.0714286 0.0657041 0 0.0857143 0.0613306 0 0.1 0.0569571 0 0 0.0916429 0 0.0142857 0.0869673 0 0.0285714 0.0822918 0 0.0428571 0.0776163 0 0.0571429 0.0729408 0 0.0714286 0.0682653 0 0.0857143 0.0635898 0 0.1 0.0589143 0 0 0.0957143 0 0.0142857 0.0907367 0 0.0285714 0.0857592 0 0.0428571 0.0807816 0 0.0571429 0.0758041 0 0.0714286 0.0708265 0 0.0857143 0.065849 0 0.1 0.0608714 0 0 0.0997857 0 0.0142857 0.0945061 0 0.0285714 0.0892265 0 0.0428571 0.0839469 0 0.0571429 0.0786673 0 0.0714286 0.0733878 0 0.0857143 0.0681082 0 0.1 0.0628286 0 0 0.103857 0 0.0142857 0.0982755 0 0.0285714 0.0926939 0 0.0428571 0.0871122 0 0.0571429 0.0815306 0 0.0714286 0.075949 0 0.0857143 0.0703673 0 0.1 0.0647857 0 0 0.107929 0 0.0142857 0.102045 0 0.0285714 0.0961612 0 0.0428571 0.0902776 0 0.0571429 0.0843939 0 0.0714286 0.0785102 0 0.0857143 0.0726265 0 0.1 0.0667429 0 0 0.112 0 0.0142857 0.105814 0 0.0285714 0.0996286 0 0.0428571 0.0934429 0 0.0571429 0.0872571 0 0.0714286 0.0810714 0 0.0857143 0.0748857 0 0.1 0.0687 0 
</DataArray>
</Points> 
</Piece> 
</StructuredGrid> 
</VTKFile> 
