<?xml version="1.0"?> 
<VTKFile type="StructuredGrid" version="0.1"> 
<StructuredGrid WholeExtent="0 7 0 7 0 0"> 
<Piece Extent="0 7 0 7 0 0"> 
<PointData>
<DataArray type="Float32" Name="|E|" format="ascii" NumberOfComponents="3"> 
1.28695e+06 -535166 0 1.83518e+06 -27601.2 0 1.5671e+06 135658 0 1.18758e+06 129689 0 887147 94462.7 0 686087 57846.8 0 571811 27746.7 0 532523 0 0 1.35741e+06 -564466 0 1.84978e+06 -23510.4 0 1.56414e+06 157555 0 1.1808e+06 148789 0 882470 107660 0 683104 66092.9 0 569867 31624.4 0 530972 0 0 1.42645e+06 -593176 0 1.86665e+06 -16756.9 0 1.56084e+06 180129 0 1.17375e+06 167793 0 877484 120754 0 679862 74248.4 0 567699 35468.5 0 529202 0 0 1.49492e+06 -621650 0 1.88551e+06 -7241.39 0 1.55712e+06 203382 0 1.16641e+06 186706 0 872191 133738 0 676363 82313.3 0 565305 39276.9 0 527216 0 0 1.56368e+06 -650245 0 1.9061e+06 5156.88 0 1.55291e+06 227310 0 1.15877e+06 205532 0 866589 146606 0 672609 90286.4 0 562686 43047.9 0 525015 0 0 1.63361e+06 -679324 0 1.92813e+06 20579.8 0 1.54811e+06 251906 0 1.15081e+06 224268 0 860680 159351 0 668601 98166.5 0 559843 46780.1 0 522600 0 0 1.70562e+06 -709268 0 1.95132e+06 39192 0 1.54264e+06 277154 0 1.14253e+06 242908 0 854461 171971 0 664340 105951 0 556777 50472.4 0 519973 0 0 1.78069e+06 -740483 0 1.97533e+06 61184.2 0 1.53643e+06 303031 0 1.1339e+06 261440 0 847932 184463 0 659830 113636 0 553487 54124.1 0 517135 0 0 </DataArray> 
</PointData> 
<Points> 
<DataArray type="Float32" NumberOfComponents="3"> 
0.1905 0.0099 0 0.216571 0.0099 0 0.242643 0.0099 0 0.268714 0.0099 0 0.294786 0.0099 0 0.320857 0.0099 0 0.346929 0.0099 0 0.373 0.0099 0 0.1911 0.0113429 0 0.217086 0.0113429 0 0.243071 0.0113429 0 0.269057 0.0113429 0 0.295043 0.0113429 0 0.321029 0.0113429 0 0.347014 0.0113429 0 0.373 0.0113429 0 0.1917 0.0127857 0 0.2176 0.0127857 0 0.2435 0.0127857 0 0.2694 0.0127857 0 0.2953 0.0127857 0 0.3212 0.0127857 0 0.3471 0.0127857 0 0.373 0.0127857 0 0.1923 0.0142286 0 0.218114 0.0142286 0 0.243929 0.0142286 0 0.269743 0.0142286 0 0.295557 0.0142286 0 0.321371 0.0142286 0 0.347186 0.0142286 0 0.373 0.0142286 0 0.1929 0.0156714 0 0.218629 0.0156714 0 0.244357 0.0156714 0 0.270086 0.0156714 0 0.295814 0.0156714 0 0.321543 0.0156714 0 0.347271 0.0156714 0 0.373 0.0156714 0 0.1935 0.0171143 0 0.219143 0.0171143 0 0.244786 0.0171143 0 0.270429 0.0171143 0 0.296071 0.0171143 0 0.321714 0.0171143 0 0.347357 0.0171143 0 0.373 0.0171143 0 0.1941 0.0185571 0 0.219657 0.0185571 0 0.245214 0.0185571 0 0.270771 0.0185571 0 0.296329 0.0185571 0 0.321886 0.0185571 0 0.347443 0.0185571 0 0.373 0.0185571 0 0.1947 0.02 0 0.220171 0.02 0 0.245643 0.02 0 0.271114 0.02 0 0.296586 0.02 0 0.322057 0.02 0 0.347529 0.02 0 0.373 0.02 0 
</DataArray>
</Points> 
</Piece> 
</StructuredGrid> 
</VTKFile> 
