<?xml version="1.0"?> 
<VTKFile type="StructuredGrid" version="0.1"> 
<StructuredGrid WholeExtent="0 15 0 15 0 0"> 
<Piece Extent="0 15 0 15 0 0"> 
<PointData>
<DataArray type="Float32" Name="|E|" format="ascii" NumberOfComponents="3"> 
475.955 -8.34465e-07 0 -52.8214 -215.588 0 -36.06 -73.0034 0 -45.0135 -40.8217 0 -29.1375 -20.3924 0 -21.0685 -10.5841 0 -13.5706 -6.29135 0 -8.91916 -3.41745 0 -5.6965 -2.15521 0 -3.64702 -1.24635 0 -2.32459 -0.789166 0 -1.49129 -0.470845 0 -0.975093 -0.287403 0 -0.668246 -0.160074 0 -0.506609 -0.0725593 0 -0.454358 0 0 340.533 3.76254e-07 0 -2.82282 -171.199 0 -35.2994 -75.3816 0 -36.9354 -41.7471 0 -27.872 -21.9847 0 -19.4518 -12.2711 0 -13.0363 -7.13807 0 -8.50852 -4.19833 0 -5.49419 -2.55685 0 -3.51654 -1.55853 0 -2.24749 -0.963243 0 -1.44318 -0.590642 0 -0.944015 -0.355974 0 -0.647479 -0.20076 0 -0.490788 -0.0904061 0 -0.440395 -8.19564e-08 0 250.284 -4.09782e-07 0 22.8141 -137.263 0 -29.678 -74.5236 0 -31.3558 -42.2554 0 -25.7463 -23.4794 0 -18.0678 -13.6198 0 -12.3319 -8.04074 0 -8.08318 -4.86777 0 -5.24697 -2.97403 0 -3.36572 -1.84032 0 -2.15488 -1.13818 0 -1.38506 -0.702449 0 -0.906609 -0.423461 0 -0.622066 -0.239404 0 -0.471645 -0.107806 0 -0.423258 8.19564e-08 0 188.449 3.35276e-07 0 34.6962 -111.18 0 -22.8516 -71.7438 0 -26.9367 -42.4292 0 -23.3446 -24.7445 0 -16.7264 -14.7731 0 -11.541 -8.90585 0 -7.6219 -5.47515 0 -4.96514 -3.37714 0 -3.19378 -2.10344 0 -2.04778 -1.30656 0 -1.31751 -0.808327 0 -0.862974 -0.488201 0 -0.592326 -0.27622 0 -0.449223 -0.124473 0 -0.403157 0 0 144.887 -1.19209e-07 0 38.8445 -91.0841 0 -16.4367 -67.9239 0 -23.1286 -42.3106 0 -20.9114 -25.7671 0 -15.3675 -15.7785 0 -10.6974 -9.70492 0 -7.12085 -6.03355 0 -4.65357 -3.75662 0 -3.00149 -2.34997 0 -1.92712 -1.46576 0 -1.24107 -0.908262 0 -0.8134 -0.5495 0 -0.558492 -0.311064 0 -0.423667 -0.140262 0 -0.380247 -5.96046e-08 0 113.291 -1.49012e-08 0 38.7298 -75.5361 0 -11.059 -63.6785 0 -19.7201 -41.949 0 -18.5465 -26.5662 0 -13.9798 -16.6575 0 -9.81585 -10.4279 0 -6.58221 -6.54659 0 -4.31528 -4.10812 0 -2.79021 -2.57967 0 -1.79383 -1.61436 0 -1.15627 -1.00181 0 -0.758246 -0.606882 0 -0.520802 -0.343727 0 -0.39516 -0.155057 0 -0.354689 7.45058e-08 0 89.6877 0 0 36.334 -63.4662 0 -6.85664 -59.4064 0 -16.6418 -41.4015 0 -16.2849 -27.1737 0 -12.5701 -17.4205 0 -8.90405 -11.0737 0 -6.01015 -7.0138 0 -3.95276 -4.42979 0 -2.5615 -2.79141 0 -1.64887 -1.75143 0 -1.06371 -1.08837 0 -0.697909 -0.659979 0 -0.479518 -0.373989 0 -0.363903 -0.168762 0 -0.326659 -4.47035e-08 0 71.5306 5.96046e-08 0 32.7825 -54.0736 0 -3.75155 -55.3574 0 -13.8722 -40.7295 0 -14.1354 -27.6227 0 -11.1491 -18.075 0 -7.96713 -11.6436 0 -5.4091 -7.434 0 -3.5684 -4.72046 0 -2.31702 -2.98399 0 -1.49326 -1.87622 0 -0.96405 -1.16737 0 -0.632817 -0.708455 0 -0.434927 -0.401644 0 -0.33012 -0.181287 0 -0.296354 8.9407e-08 0 57.1514 5.96046e-08 0 28.7043 -46.7622 0 -1.58425 -51.6796 0 -11.399 -39.9935 0 -12.0957 -27.9444 0 -9.72629 -18.6286 0 -7.00937 -12.14 0 -4.78327 -7.80612 0 -3.1646 -4.9792 0 -2.05845 -3.15632 0 -1.32805 -1.98806 0 -0.857971 -1.23832 0 -0.563423 -0.752006 0 -0.38734 -0.426506 0 -0.294045 -0.192548 0 -0.263986 0 0 45.4333 -1.19209e-07 0 24.4413 -41.0884 0 -0.178679 -48.4537 0 -9.20443 -39.2484 0 -10.1584 -28.1664 0 -8.30845 -19.0889 0 -6.03467 -12.565 0 -4.13654 -8.12939 0 -2.74382 -5.20521 0 -1.7875 -3.3075 0 -1.15435 -2.08634 0 -0.746201 -1.30075 0 -0.490208 -0.790357 0 -0.337087 -0.448409 0 -0.255932 -0.20247 0 -0.229781 -8.9407e-08 0 35.609 2.98023e-08 0 20.1695 -36.7233 0 0.629602 -45.7184 0 -7.26222 -38.542 0 -8.31361 -28.3131 0 -6.89978 -19.4635 0 -5.04656 -12.9207 0 -3.47245 -8.40339 0 -2.30853 -5.39779 0 -1.50592 -3.43675 0 -0.973315 -2.17052 0 -0.629495 -1.35428 0 -0.413673 -0.823261 0 -0.284517 -0.467208 0 -0.216044 -0.210989 0 -0.193978 1.19209e-07 0 27.1353 0 0 15.9691 -33.4244 0 0.983539 -43.4872 0 -5.53855 -37.9132 0 -6.54919 -28.4048 0 -5.50209 -19.7593 0 -4.04815 -13.2092 0 -2.7943 -8.62788 0 -1.86119 -5.55635 0 -1.21544 -3.54346 0 -0.786113 -2.24012 0 -0.508637 -1.39858 0 -0.334341 -0.85051 0 -0.229993 -0.482781 0 -0.174659 -0.218047 0 -0.156825 -5.96046e-08 0 19.6145 5.96046e-08 0 11.8655 -31.0156 0 1.0036 -41.7598 0 -3.99411 -37.3929 0 -4.85141 -28.4585 0 -4.11527 -19.9828 0 -3.04215 -13.4321 0 -2.10514 -8.80278 0 -1.40425 -5.68039 0 -0.917836 -3.62712 0 -0.593951 -2.29477 0 -0.384431 -1.43339 0 -0.25275 -0.871929 0 -0.17389 -0.495024 0 -0.132064 -0.223597 0 -0.118583 5.96046e-08 0 12.7425 -5.96046e-08 0 7.853 -29.3723 0 0.790732 -40.5299 0 -2.58616 -37.0041 0 -3.20505 -28.4874 0 -2.7378 -20.1391 0 -2.03086 -13.5908 0 -1.40787 -8.92809 0 -0.940143 -5.76956 0 -0.614872 -3.68735 0 -0.398052 -2.33415 0 -0.257698 -1.45848 0 -0.169453 -0.887379 0 -0.116594 -0.503858 0 -0.0885542 -0.227601 0 -0.0795162 5.96046e-08 0 6.27423 0 0 3.9085 -28.4112 0 0.43089 -39.7902 0 -1.27001 -36.7626 0 -1.59366 -28.5009 0 -1.36712 -20.2319 0 -1.01623 -13.6862 0 -0.705259 -9.00385 0 -0.471263 -5.82358 0 -0.308332 -3.72389 0 -0.199653 -2.35805 0 -0.129274 -1.47372 0 -0.0850136 -0.896763 0 -0.0584977 -0.509223 0 -0.0444311 -0.230034 0 -0.0398969 -2.98023e-07 0 1.49012e-07 -4.76837e-07 0 -7.59028e-08 -28.0842 0 5.40167e-08 -39.5349 0 -4.47035e-08 -36.6779 0 4.28408e-08 -28.5048 0 -3.72529e-09 -20.2637 0 -3.72529e-09 -13.7192 0 3.72529e-09 -9.03006 0 0 -5.84229 0 0 -3.73655 0 2.23517e-08 -2.36635 0 -5.21541e-08 -1.47901 0 5.21541e-08 -0.900019 0 -2.98023e-08 -0.511085 0 -1.49012e-08 -0.230878 0 5.96046e-08 3.57628e-07 0 </DataArray> 
</PointData> 
<Points> 
<DataArray type="Float32" NumberOfComponents="3"> 
0.13 0.035 0 0.133667 0.035 0 0.137333 0.035 0 0.141 0.035 0 0.144667 0.035 0 0.148333 0.035 0 0.152 0.035 0 0.155667 0.035 0 0.159333 0.035 0 0.163 0.035 0 0.166667 0.035 0 0.170333 0.035 0 0.174 0.035 0 0.177667 0.035 0 0.181333 0.035 0 0.185 0.035 0 0.13 0.0356667 0 0.133667 0.0356667 0 0.137333 0.0356667 0 0.141 0.0356667 0 0.144667 0.0356667 0 0.148333 0.0356667 0 0.152 0.0356667 0 0.155667 0.0356667 0 0.159333 0.0356667 0 0.163 0.0356667 0 0.166667 0.0356667 0 0.170333 0.0356667 0 0.174 0.0356667 0 0.177667 0.0356667 0 0.181333 0.0356667 0 0.185 0.0356667 0 0.13 0.0363333 0 0.133667 0.0363333 0 0.137333 0.0363333 0 0.141 0.0363333 0 0.144667 0.0363333 0 0.148333 0.0363333 0 0.152 0.0363333 0 0.155667 0.0363333 0 0.159333 0.0363333 0 0.163 0.0363333 0 0.166667 0.0363333 0 0.170333 0.0363333 0 0.174 0.0363333 0 0.177667 0.0363333 0 0.181333 0.0363333 0 0.185 0.0363333 0 0.13 0.037 0 0.133667 0.037 0 0.137333 0.037 0 0.141 0.037 0 0.144667 0.037 0 0.148333 0.037 0 0.152 0.037 0 0.155667 0.037 0 0.159333 0.037 0 0.163 0.037 0 0.166667 0.037 0 0.170333 0.037 0 0.174 0.037 0 0.177667 0.037 0 0.181333 0.037 0 0.185 0.037 0 0.13 0.0376667 0 0.133667 0.0376667 0 0.137333 0.0376667 0 0.141 0.0376667 0 0.144667 0.0376667 0 0.148333 0.0376667 0 0.152 0.0376667 0 0.155667 0.0376667 0 0.159333 0.0376667 0 0.163 0.0376667 0 0.166667 0.0376667 0 0.170333 0.0376667 0 0.174 0.0376667 0 0.177667 0.0376667 0 0.181333 0.0376667 0 0.185 0.0376667 0 0.13 0.0383333 0 0.133667 0.0383333 0 0.137333 0.0383333 0 0.141 0.0383333 0 0.144667 0.0383333 0 0.148333 0.0383333 0 0.152 0.0383333 0 0.155667 0.0383333 0 0.159333 0.0383333 0 0.163 0.0383333 0 0.166667 0.0383333 0 0.170333 0.0383333 0 0.174 0.0383333 0 0.177667 0.0383333 0 0.181333 0.0383333 0 0.185 0.0383333 0 0.13 0.039 0 0.133667 0.039 0 0.137333 0.039 0 0.141 0.039 0 0.144667 0.039 0 0.148333 0.039 0 0.152 0.039 0 0.155667 0.039 0 0.159333 0.039 0 0.163 0.039 0 0.166667 0.039 0 0.170333 0.039 0 0.174 0.039 0 0.177667 0.039 0 0.181333 0.039 0 0.185 0.039 0 0.13 0.0396667 0 0.133667 0.0396667 0 0.137333 0.0396667 0 0.141 0.0396667 0 0.144667 0.0396667 0 0.148333 0.0396667 0 0.152 0.0396667 0 0.155667 0.0396667 0 0.159333 0.0396667 0 0.163 0.0396667 0 0.166667 0.0396667 0 0.170333 0.0396667 0 0.174 0.0396667 0 0.177667 0.0396667 0 0.181333 0.0396667 0 0.185 0.0396667 0 0.13 0.0403333 0 0.133667 0.0403333 0 0.137333 0.0403333 0 0.141 0.0403333 0 0.144667 0.0403333 0 0.148333 0.0403333 0 0.152 0.0403333 0 0.155667 0.0403333 0 0.159333 0.0403333 0 0.163 0.0403333 0 0.166667 0.0403333 0 0.170333 0.0403333 0 0.174 0.0403333 0 0.177667 0.0403333 0 0.181333 0.0403333 0 0.185 0.0403333 0 0.13 0.041 0 0.133667 0.041 0 0.137333 0.041 0 0.141 0.041 0 0.144667 0.041 0 0.148333 0.041 0 0.152 0.041 0 0.155667 0.041 0 0.159333 0.041 0 0.163 0.041 0 0.166667 0.041 0 0.170333 0.041 0 0.174 0.041 0 0.177667 0.041 0 0.181333 0.041 0 0.185 0.041 0 0.13 0.0416667 0 0.133667 0.0416667 0 0.137333 0.0416667 0 0.141 0.0416667 0 0.144667 0.0416667 0 0.148333 0.0416667 0 0.152 0.0416667 0 0.155667 0.0416667 0 0.159333 0.0416667 0 0.163 0.0416667 0 0.166667 0.0416667 0 0.170333 0.0416667 0 0.174 0.0416667 0 0.177667 0.0416667 0 0.181333 0.0416667 0 0.185 0.0416667 0 0.13 0.0423333 0 0.133667 0.0423333 0 0.137333 0.0423333 0 0.141 0.0423333 0 0.144667 0.0423333 0 0.148333 0.0423333 0 0.152 0.0423333 0 0.155667 0.0423333 0 0.159333 0.0423333 0 0.163 0.0423333 0 0.166667 0.0423333 0 0.170333 0.0423333 0 0.174 0.0423333 0 0.177667 0.0423333 0 0.181333 0.0423333 0 0.185 0.0423333 0 0.13 0.043 0 0.133667 0.043 0 0.137333 0.043 0 0.141 0.043 0 0.144667 0.043 0 0.148333 0.043 0 0.152 0.043 0 0.155667 0.043 0 0.159333 0.043 0 0.163 0.043 0 0.166667 0.043 0 0.170333 0.043 0 0.174 0.043 0 0.177667 0.043 0 0.181333 0.043 0 0.185 0.043 0 0.13 0.0436667 0 0.133667 0.0436667 0 0.137333 0.0436667 0 0.141 0.0436667 0 0.144667 0.0436667 0 0.148333 0.0436667 0 0.152 0.0436667 0 0.155667 0.0436667 0 0.159333 0.0436667 0 0.163 0.0436667 0 0.166667 0.0436667 0 0.170333 0.0436667 0 0.174 0.0436667 0 0.177667 0.0436667 0 0.181333 0.0436667 0 0.185 0.0436667 0 0.13 0.0443333 0 0.133667 0.0443333 0 0.137333 0.0443333 0 0.141 0.0443333 0 0.144667 0.0443333 0 0.148333 0.0443333 0 0.152 0.0443333 0 0.155667 0.0443333 0 0.159333 0.0443333 0 0.163 0.0443333 0 0.166667 0.0443333 0 0.170333 0.0443333 0 0.174 0.0443333 0 0.177667 0.0443333 0 0.181333 0.0443333 0 0.185 0.0443333 0 0.13 0.045 0 0.133667 0.045 0 0.137333 0.045 0 0.141 0.045 0 0.144667 0.045 0 0.148333 0.045 0 0.152 0.045 0 0.155667 0.045 0 0.159333 0.045 0 0.163 0.045 0 0.166667 0.045 0 0.170333 0.045 0 0.174 0.045 0 0.177667 0.045 0 0.181333 0.045 0 0.185 0.045 0 
</DataArray>
</Points> 
</Piece> 
</StructuredGrid> 
</VTKFile> 
