<?xml version="1.0"?> 
<VTKFile type="StructuredGrid" version="0.1"> 
<StructuredGrid WholeExtent="0 15 0 15 0 0"> 
<Piece Extent="0 15 0 15 0 0"> 
<PointData>
<DataArray type="Float32" Name="|E|" format="ascii" NumberOfComponents="3"> 
1.03182e+06 112136 0 965566 103654 0 904641 95042 0 849044 86486.4 0 798669 78091.9 0 753383 69920.2 0 713026 62001.3 0 677435 54342.7 0 646447 46937.1 0 619910 39766.5 0 597687 32805.7 0 579655 26024.6 0 565713 19389.8 0 555781 12865.7 0 549801 6415.02 0 547735 0 0 1.02928e+06 119582 0 963216 110511 0 902496 101318 0 847098 92190.5 0 796914 83239.3 0 751806 74527.8 0 711611 66086.9 0 676165 57924.1 0 645305 50031 0 618878 42388.3 0 596747 34969 0 578790 27741 0 564906 20668.7 0 555016 13714.2 0 549060 6838.09 0 547003 0 0 1.02668e+06 127004 0 960803 117344 0 900287 107569 0 845090 97871.3 0 795099 88364.8 0 750170 79115.5 0 710139 70154.7 0 674839 61489.8 0 644108 53111.3 0 617793 44998.6 0 595755 37122.8 0 577875 29449.9 0 564050 21942 0 554202 14559.1 0 548272 7259.33 0 546223 0 0 1.024e+06 134403 0 958325 124153 0 898015 113796 0 843020 103528 0 793224 93468.2 0 748475 83682.9 0 708610 74204.4 0 673459 65039.5 0 642859 56177.9 0 616656 47597.2 0 594714 39267 0 576910 31151.2 0 563146 23209.7 0 553340 15400.3 0 547435 7678.72 0 545395 0 0 1.02127e+06 141778 0 955783 130937 0 895679 119998 0 840889 109162 0 791288 98549.3 0 746723 88230 0 707025 78235.8 0 672024 68573.1 0 641556 59230.5 0 615468 50184.1 0 593621 41401.6 0 575896 32844.8 0 562192 24471.8 0 552429 16237.7 0 546551 8096.24 0 544520 0 0 1.01846e+06 149130 0 953175 137696 0 893279 126175 0 838695 114771 0 789292 103608 0 744911 92756.4 0 705382 82248.6 0 670534 72090.3 0 640200 62268.9 0 614227 52758.9 0 592478 43526.2 0 574832 34530.7 0 561189 25728 0 551471 17071.3 0 545618 8511.85 0 543597 0 0 1.01559e+06 156459 0 950503 144431 0 890816 132327 0 836440 120356 0 787236 108644 0 743042 97261.9 0 703684 86242.7 0 668989 75591 0 638790 65293 0 612935 55321.7 0 591284 45640.9 0 573718 36208.6 0 560138 26978.3 0 550464 17901 0 544638 8925.53 0 542626 0 0 1.01265e+06 163764 0 947765 151140 0 888288 138454 0 834122 125916 0 785120 113657 0 741114 101746 0 701929 90217.8 0 667389 79075 0 637328 68302.6 0 611591 57872.1 0 590040 47745.5 0 572556 37878.5 0 559038 28222.7 0 549409 18726.7 0 543610 9337.24 0 541608 0 0 1.00965e+06 171045 0 944961 157824 0 885697 144555 0 831742 131452 0 782944 118646 0 739128 106209 0 700118 94173.7 0 665735 82542 0 635812 71297.5 0 610195 60410.1 0 588745 49839.8 0 571343 39540.4 0 557890 29461.1 0 548306 19548.5 0 542535 9746.95 0 540542 0 0 1.00657e+06 178303 0 942090 164482 0 883042 150629 0 829301 136962 0 780707 123612 0 737085 110651 0 698250 98110.2 0 664026 85991.8 0 634244 74277.6 0 608748 62935.5 0 587400 51923.7 0 570082 41193.9 0 556693 30693.3 0 547155 20366.2 0 541412 10154.7 0 539428 0 0 1.00343e+06 185536 0 939154 171114 0 880322 156678 0 826797 142447 0 778411 128554 0 734983 115071 0 696327 102027 0 662263 89424.2 0 632623 77242.5 0 607249 65448.1 0 586005 53997.1 0 568771 42839.2 0 555448 31919.4 0 545957 21179.7 0 540241 10560.3 0 538267 0 0 1.00022e+06 192743 0 936151 177719 0 877538 162700 0 824231 147907 0 776055 133472 0 732823 119468 0 694347 105924 0 660446 92839.1 0 630949 80192.3 0 605700 67947.7 0 584560 56059.7 0 567411 44475.9 0 554154 33139.1 0 544710 21989.2 0 539024 10963.9 0 537059 0 0 996939 199926 0 933081 184298 0 874690 168695 0 821603 153340 0 773639 138366 0 730605 123843 0 692312 109801 0 658575 96236.1 0 629223 83126.5 0 604099 70434.2 0 583065 58111.6 0 566003 46104.1 0 552812 34352.5 0 543416 22794.3 0 537758 11365.3 0 535804 0 0 993588 207083 0 929944 190849 0 871777 174662 0 818913 158747 0 771163 143235 0 728330 128196 0 690221 113657 0 656650 99615.2 0 627444 86045.1 0 602447 72907.5 0 581520 60152.5 0 564545 47723.6 0 551422 35559.4 0 542075 23595.3 0 536446 11764.7 0 534502 0 0 990168 214213 0 926739 197373 0 868800 180602 0 816161 164127 0 768627 148079 0 725997 132525 0 688074 117493 0 654671 102976 0 625613 88948 0 600744 75367.3 0 579926 62182.4 0 563039 49334.3 0 549984 36759.7 0 540686 24391.8 0 535086 12161.8 0 533153 0 0 986678 221315 0 923467 203868 0 865758 186514 0 813347 169481 0 766032 152897 0 723607 136832 0 685872 121308 0 652638 106318 0 623730 91834.8 0 598991 77813.5 0 578281 64201 0 561484 50936.2 0 548499 37953.4 0 539249 25184 0 533680 12556.8 0 531757 0 0 </DataArray> 
</PointData> 
<Points> 
<DataArray type="Float32" NumberOfComponents="3"> 
0.28175 0.0099 0 0.287833 0.0099 0 0.293917 0.0099 0 0.3 0.0099 0 0.306083 0.0099 0 0.312167 0.0099 0 0.31825 0.0099 0 0.324333 0.0099 0 0.330417 0.0099 0 0.3365 0.0099 0 0.342583 0.0099 0 0.348667 0.0099 0 0.35475 0.0099 0 0.360833 0.0099 0 0.366917 0.0099 0 0.373 0.0099 0 0.28189 0.0105733 0 0.287964 0.0105733 0 0.294038 0.0105733 0 0.300112 0.0105733 0 0.306186 0.0105733 0 0.31226 0.0105733 0 0.318334 0.0105733 0 0.324408 0.0105733 0 0.330482 0.0105733 0 0.336556 0.0105733 0 0.34263 0.0105733 0 0.348704 0.0105733 0 0.354778 0.0105733 0 0.360852 0.0105733 0 0.366926 0.0105733 0 0.373 0.0105733 0 0.28203 0.0112467 0 0.288095 0.0112467 0 0.294159 0.0112467 0 0.300224 0.0112467 0 0.306289 0.0112467 0 0.312353 0.0112467 0 0.318418 0.0112467 0 0.324483 0.0112467 0 0.330547 0.0112467 0 0.336612 0.0112467 0 0.342677 0.0112467 0 0.348741 0.0112467 0 0.354806 0.0112467 0 0.360871 0.0112467 0 0.366935 0.0112467 0 0.373 0.0112467 0 0.28217 0.01192 0 0.288225 0.01192 0 0.294281 0.01192 0 0.300336 0.01192 0 0.306391 0.01192 0 0.312447 0.01192 0 0.318502 0.01192 0 0.324557 0.01192 0 0.330613 0.01192 0 0.336668 0.01192 0 0.342723 0.01192 0 0.348779 0.01192 0 0.354834 0.01192 0 0.360889 0.01192 0 0.366945 0.01192 0 0.373 0.01192 0 0.28231 0.0125933 0 0.288356 0.0125933 0 0.294402 0.0125933 0 0.300448 0.0125933 0 0.306494 0.0125933 0 0.31254 0.0125933 0 0.318586 0.0125933 0 0.324632 0.0125933 0 0.330678 0.0125933 0 0.336724 0.0125933 0 0.34277 0.0125933 0 0.348816 0.0125933 0 0.354862 0.0125933 0 0.360908 0.0125933 0 0.366954 0.0125933 0 0.373 0.0125933 0 0.28245 0.0132667 0 0.288487 0.0132667 0 0.294523 0.0132667 0 0.30056 0.0132667 0 0.306597 0.0132667 0 0.312633 0.0132667 0 0.31867 0.0132667 0 0.324707 0.0132667 0 0.330743 0.0132667 0 0.33678 0.0132667 0 0.342817 0.0132667 0 0.348853 0.0132667 0 0.35489 0.0132667 0 0.360927 0.0132667 0 0.366963 0.0132667 0 0.373 0.0132667 0 0.28259 0.01394 0 0.288617 0.01394 0 0.294645 0.01394 0 0.300672 0.01394 0 0.306699 0.01394 0 0.312727 0.01394 0 0.318754 0.01394 0 0.324781 0.01394 0 0.330809 0.01394 0 0.336836 0.01394 0 0.342863 0.01394 0 0.348891 0.01394 0 0.354918 0.01394 0 0.360945 0.01394 0 0.366973 0.01394 0 0.373 0.01394 0 0.28273 0.0146133 0 0.288748 0.0146133 0 0.294766 0.0146133 0 0.300784 0.0146133 0 0.306802 0.0146133 0 0.31282 0.0146133 0 0.318838 0.0146133 0 0.324856 0.0146133 0 0.330874 0.0146133 0 0.336892 0.0146133 0 0.34291 0.0146133 0 0.348928 0.0146133 0 0.354946 0.0146133 0 0.360964 0.0146133 0 0.366982 0.0146133 0 0.373 0.0146133 0 0.28287 0.0152867 0 0.288879 0.0152867 0 0.294887 0.0152867 0 0.300896 0.0152867 0 0.306905 0.0152867 0 0.312913 0.0152867 0 0.318922 0.0152867 0 0.324931 0.0152867 0 0.330939 0.0152867 0 0.336948 0.0152867 0 0.342957 0.0152867 0 0.348965 0.0152867 0 0.354974 0.0152867 0 0.360983 0.0152867 0 0.366991 0.0152867 0 0.373 0.0152867 0 0.28301 0.01596 0 0.289009 0.01596 0 0.295009 0.01596 0 0.301008 0.01596 0 0.307007 0.01596 0 0.313007 0.01596 0 0.319006 0.01596 0 0.325005 0.01596 0 0.331005 0.01596 0 0.337004 0.01596 0 0.343003 0.01596 0 0.349003 0.01596 0 0.355002 0.01596 0 0.361001 0.01596 0 0.367001 0.01596 0 0.373 0.01596 0 0.28315 0.0166333 0 0.28914 0.0166333 0 0.29513 0.0166333 0 0.30112 0.0166333 0 0.30711 0.0166333 0 0.3131 0.0166333 0 0.31909 0.0166333 0 0.32508 0.0166333 0 0.33107 0.0166333 0 0.33706 0.0166333 0 0.34305 0.0166333 0 0.34904 0.0166333 0 0.35503 0.0166333 0 0.36102 0.0166333 0 0.36701 0.0166333 0 0.373 0.0166333 0 0.28329 0.0173067 0 0.289271 0.0173067 0 0.295251 0.0173067 0 0.301232 0.0173067 0 0.307213 0.0173067 0 0.313193 0.0173067 0 0.319174 0.0173067 0 0.325155 0.0173067 0 0.331135 0.0173067 0 0.337116 0.0173067 0 0.343097 0.0173067 0 0.349077 0.0173067 0 0.355058 0.0173067 0 0.361039 0.0173067 0 0.367019 0.0173067 0 0.373 0.0173067 0 0.28343 0.01798 0 0.289401 0.01798 0 0.295373 0.01798 0 0.301344 0.01798 0 0.307315 0.01798 0 0.313287 0.01798 0 0.319258 0.01798 0 0.325229 0.01798 0 0.331201 0.01798 0 0.337172 0.01798 0 0.343143 0.01798 0 0.349115 0.01798 0 0.355086 0.01798 0 0.361057 0.01798 0 0.367029 0.01798 0 0.373 0.01798 0 0.28357 0.0186533 0 0.289532 0.0186533 0 0.295494 0.0186533 0 0.301456 0.0186533 0 0.307418 0.0186533 0 0.31338 0.0186533 0 0.319342 0.0186533 0 0.325304 0.0186533 0 0.331266 0.0186533 0 0.337228 0.0186533 0 0.34319 0.0186533 0 0.349152 0.0186533 0 0.355114 0.0186533 0 0.361076 0.0186533 0 0.367038 0.0186533 0 0.373 0.0186533 0 0.28371 0.0193267 0 0.289663 0.0193267 0 0.295615 0.0193267 0 0.301568 0.0193267 0 0.307521 0.0193267 0 0.313473 0.0193267 0 0.319426 0.0193267 0 0.325379 0.0193267 0 0.331331 0.0193267 0 0.337284 0.0193267 0 0.343237 0.0193267 0 0.349189 0.0193267 0 0.355142 0.0193267 0 0.361095 0.0193267 0 0.367047 0.0193267 0 0.373 0.0193267 0 0.28385 0.02 0 0.289793 0.02 0 0.295737 0.02 0 0.30168 0.02 0 0.307623 0.02 0 0.313567 0.02 0 0.31951 0.02 0 0.325453 0.02 0 0.331397 0.02 0 0.33734 0.02 0 0.343283 0.02 0 0.349227 0.02 0 0.35517 0.02 0 0.361113 0.02 0 0.367057 0.02 0 0.373 0.02 0 
</DataArray>
</Points> 
</Piece> 
</StructuredGrid> 
</VTKFile> 
