<?xml version="1.0"?> 
<VTKFile type="StructuredGrid" version="0.1"> 
<StructuredGrid WholeExtent="0 15 0 15 0 0"> 
<Piece Extent="0 15 0 15 0 0"> 
<PointData>
<DataArray type="Float32" Name="|E|" format="ascii" NumberOfComponents="3"> 
1.32593e+06 -7.15256e-07 0 1.42267e+06 0.443669 0 1.55977e+06 0.0456539 0 1.65912e+06 0.00537433 0 1.71403e+06 -0.0168343 0 1.72691e+06 -0.0227875 0 1.70553e+06 -0.0221967 0 1.65839e+06 -0.01972 0 1.59354e+06 -0.0155311 0 1.51767e+06 -0.0116885 0 1.43602e+06 -0.00832111 0 1.35244e+06 -0.00571966 0 1.26964e+06 -0.00377432 0 1.18948e+06 -0.00237966 0 1.11314e+06 -0.00139049 0 1.0414e+06 -0.000759423 0 1.32555e+06 -2.75671e-07 0 1.42263e+06 -7258.12 0 1.55982e+06 -6619.46 0 1.65919e+06 -4264.56 0 1.7141e+06 -1814.65 0 1.72696e+06 301.112 0 1.70557e+06 1955.26 0 1.65842e+06 3138.71 0 1.59355e+06 3911.36 0 1.51768e+06 4354.12 0 1.43602e+06 4549.58 0 1.35244e+06 4567.68 0 1.26964e+06 4463.84 0 1.18947e+06 4279.27 0 1.11314e+06 4043.74 0 1.04139e+06 3778.19 0 1.32441e+06 2.08616e-07 0 1.42254e+06 -14545.3 0 1.56e+06 -13241.9 0 1.65939e+06 -8529.48 0 1.71429e+06 -3628.2 0 1.72712e+06 603.714 0 1.70568e+06 3911.97 0 1.6585e+06 6278.71 0 1.5936e+06 7823.73 0 1.5177e+06 8709.01 0 1.43603e+06 9099.7 0 1.35243e+06 9135.74 0 1.26963e+06 8927.93 0 1.18945e+06 8558.7 0 1.11312e+06 8087.57 0 1.04137e+06 7556.44 0 1.3225e+06 1.3411e-07 0 1.42238e+06 -21889.8 0 1.56029e+06 -19870 0 1.65974e+06 -12795.1 0 1.71461e+06 -5439.6 0 1.72737e+06 909.259 0 1.70588e+06 5871.53 0 1.65863e+06 9421.25 0 1.59368e+06 11738.1 0 1.51775e+06 13065.4 0 1.43604e+06 13650.9 0 1.35243e+06 13704.5 0 1.2696e+06 13392.5 0 1.18942e+06 12838.4 0 1.11308e+06 12131.6 0 1.04133e+06 11334.8 0 1.31979e+06 -1.78814e-07 0 1.42218e+06 -29319.7 0 1.56069e+06 -26506.3 0 1.66022e+06 -17061.7 0 1.71505e+06 -7247.81 0 1.72774e+06 1219.18 0 1.70615e+06 7835.3 0 1.65882e+06 12567.6 0 1.5938e+06 15655.4 0 1.51781e+06 17424 0 1.43606e+06 18203.7 0 1.35242e+06 18274.4 0 1.26958e+06 17857.8 0 1.18938e+06 17118.6 0 1.11303e+06 16175.8 0 1.04127e+06 15113.3 0 1.31626e+06 -5.96046e-08 0 1.42194e+06 -36864.1 0 1.56121e+06 -33153.2 0 1.66084e+06 -21329.6 0 1.71563e+06 -9051.83 0 1.7282e+06 1534.96 0 1.7065e+06 9804.63 0 1.65906e+06 15718.9 0 1.59394e+06 19576.7 0 1.51788e+06 21785.6 0 1.43609e+06 22758.5 0 1.3524e+06 22845.7 0 1.26954e+06 22324 0 1.18933e+06 21399.4 0 1.11297e+06 20220.5 0 1.04121e+06 18891.9 0 1.31188e+06 2.38419e-07 0 1.42168e+06 -44552.4 0 1.56184e+06 -39812.5 0 1.6616e+06 -25599.1 0 1.71633e+06 -10850.7 0 1.72877e+06 1858.09 0 1.70692e+06 11780.9 0 1.65935e+06 18876.5 0 1.59412e+06 23502.7 0 1.51797e+06 26150.9 0 1.43612e+06 27316 0 1.35239e+06 27418.9 0 1.26949e+06 26791.5 0 1.18927e+06 25680.9 0 1.11289e+06 24265.5 0 1.04112e+06 22670.9 0 1.30659e+06 -1.19209e-07 0 1.42142e+06 -52415.2 0 1.56258e+06 -46485.7 0 1.6625e+06 -29870.4 0 1.71715e+06 -12643.3 0 1.72944e+06 2190.14 0 1.70742e+06 13765.3 0 1.65969e+06 22041.6 0 1.59433e+06 27434.7 0 1.51808e+06 30520.6 0 1.43615e+06 31876.6 0 1.35237e+06 31994.2 0 1.26944e+06 31260.3 0 1.18919e+06 29963.4 0 1.1128e+06 28311.1 0 1.04103e+06 26450.1 0 1.30035e+06 0 0 1.4212e+06 -60484.1 0 1.56342e+06 -53173.8 0 1.66355e+06 -34143.9 0 1.7181e+06 -14429 0 1.73022e+06 2532.72 0 1.708e+06 15759.3 0 1.66009e+06 25215.6 0 1.59458e+06 31373.3 0 1.51821e+06 34895.5 0 1.43619e+06 36440.9 0 1.35235e+06 36572 0 1.26938e+06 35730.8 0 1.1891e+06 34246.8 0 1.1127e+06 32357.3 0 1.04091e+06 30229.6 0 1.29307e+06 -3.57628e-07 0 1.42105e+06 -68792.2 0 1.56436e+06 -59877 0 1.66475e+06 -38419.5 0 1.71918e+06 -16206.8 0 1.7311e+06 2887.53 0 1.70866e+06 17764 0 1.66053e+06 28399.8 0 1.59485e+06 35319.6 0 1.51835e+06 39276.3 0 1.43623e+06 41009.3 0 1.35233e+06 41152.7 0 1.26931e+06 40203.2 0 1.189e+06 38531.5 0 1.11258e+06 36404.2 0 1.04078e+06 34009.6 0 1.28468e+06 4.17233e-07 0 1.421e+06 -77374 0 1.5654e+06 -66595 0 1.66611e+06 -42697.5 0 1.72038e+06 -17976 0 1.73209e+06 3256.39 0 1.70939e+06 19780.7 0 1.66104e+06 31595.6 0 1.59516e+06 39274.5 0 1.51851e+06 43663.8 0 1.43628e+06 45582.3 0 1.3523e+06 45736.6 0 1.26923e+06 44677.7 0 1.18889e+06 42817.5 0 1.11245e+06 40451.8 0 1.04064e+06 37790 0 1.27509e+06 -1.78814e-07 0 1.42112e+06 -86265.6 0 1.56652e+06 -73326.6 0 1.66762e+06 -46977.7 0 1.7217e+06 -19736 0 1.73319e+06 3641.26 0 1.7102e+06 21810.3 0 1.66159e+06 34804.3 0 1.5955e+06 43238.8 0 1.51868e+06 48058.7 0 1.43634e+06 50160.4 0 1.35227e+06 50324.1 0 1.26914e+06 49154.5 0 1.18877e+06 47105 0 1.1123e+06 44500.3 0 1.04048e+06 41570.9 0 1.26417e+06 0 0 1.42145e+06 -95505.2 0 1.56771e+06 -80069.5 0 1.66931e+06 -51260.1 0 1.72315e+06 -21486.4 0 1.73439e+06 4044.27 0 1.71108e+06 23853.9 0 1.6622e+06 38027.4 0 1.59587e+06 47213.4 0 1.51887e+06 52461.9 0 1.4364e+06 54744.2 0 1.35223e+06 54915.6 0 1.26905e+06 53633.9 0 1.18863e+06 51394.1 0 1.11214e+06 48549.8 0 1.04031e+06 45352.4 0 1.2518e+06 0 0 1.42208e+06 -105133 0 1.56895e+06 -86820.6 0 1.67117e+06 -55544.2 0 1.7247e+06 -23227.2 0 1.7357e+06 4467.81 0 1.71204e+06 25912.3 0 1.66285e+06 41266.7 0 1.59627e+06 51199 0 1.51908e+06 56874.2 0 1.43646e+06 59334 0 1.3522e+06 59511.4 0 1.26894e+06 58116.1 0 1.18848e+06 55685 0 1.11197e+06 52600.2 0 1.04012e+06 49134.5 0 1.23783e+06 2.38419e-07 0 1.4231e+06 -115192 0 1.57021e+06 -93575.8 0 1.67323e+06 -59829.5 0 1.72638e+06 -24958.5 0 1.73712e+06 4914.54 0 1.71308e+06 27986.1 0 1.66357e+06 44523.6 0 1.59671e+06 55196.4 0 1.5193e+06 61296.4 0 1.43653e+06 63930.3 0 1.35216e+06 64111.9 0 1.26883e+06 62601.3 0 1.18832e+06 59977.9 0 1.11178e+06 56651.7 0 1.03992e+06 52917.3 0 1.22206e+06 -2.38419e-07 0 1.42459e+06 -125729 0 1.57148e+06 -100329 0 1.67548e+06 -64114.8 0 1.72815e+06 -26680.9 0 1.73865e+06 5387.65 0 1.71419e+06 30075.8 0 1.66433e+06 47800.3 0 1.59717e+06 59206.2 0 1.51954e+06 65729.3 0 1.4366e+06 68533.6 0 1.35211e+06 68717.5 0 1.26871e+06 67089.6 0 1.18815e+06 64272.8 0 1.11158e+06 60704.4 0 1.0397e+06 56700.9 0 </DataArray> 
</PointData> 
<Points> 
<DataArray type="Float32" NumberOfComponents="3"> 
0.19 0 0 0.1961 0 0 0.2022 0 0 0.2083 0 0 0.2144 0 0 0.2205 0 0 0.2266 0 0 0.2327 0 0 0.2388 0 0 0.2449 0 0 0.251 0 0 0.2571 0 0 0.2632 0 0 0.2693 0 0 0.2754 0 0 0.2815 0 0 0.19 0.000333333 0 0.1961 0.000333333 0 0.2022 0.000333333 0 0.2083 0.000333333 0 0.2144 0.000333333 0 0.2205 0.000333333 0 0.2266 0.000333333 0 0.2327 0.000333333 0 0.2388 0.000333333 0 0.2449 0.000333333 0 0.251 0.000333333 0 0.2571 0.000333333 0 0.2632 0.000333333 0 0.2693 0.000333333 0 0.2754 0.000333333 0 0.2815 0.000333333 0 0.19 0.000666667 0 0.1961 0.000666667 0 0.2022 0.000666667 0 0.2083 0.000666667 0 0.2144 0.000666667 0 0.2205 0.000666667 0 0.2266 0.000666667 0 0.2327 0.000666667 0 0.2388 0.000666667 0 0.2449 0.000666667 0 0.251 0.000666667 0 0.2571 0.000666667 0 0.2632 0.000666667 0 0.2693 0.000666667 0 0.2754 0.000666667 0 0.2815 0.000666667 0 0.19 0.001 0 0.1961 0.001 0 0.2022 0.001 0 0.2083 0.001 0 0.2144 0.001 0 0.2205 0.001 0 0.2266 0.001 0 0.2327 0.001 0 0.2388 0.001 0 0.2449 0.001 0 0.251 0.001 0 0.2571 0.001 0 0.2632 0.001 0 0.2693 0.001 0 0.2754 0.001 0 0.2815 0.001 0 0.19 0.00133333 0 0.1961 0.00133333 0 0.2022 0.00133333 0 0.2083 0.00133333 0 0.2144 0.00133333 0 0.2205 0.00133333 0 0.2266 0.00133333 0 0.2327 0.00133333 0 0.2388 0.00133333 0 0.2449 0.00133333 0 0.251 0.00133333 0 0.2571 0.00133333 0 0.2632 0.00133333 0 0.2693 0.00133333 0 0.2754 0.00133333 0 0.2815 0.00133333 0 0.19 0.00166667 0 0.1961 0.00166667 0 0.2022 0.00166667 0 0.2083 0.00166667 0 0.2144 0.00166667 0 0.2205 0.00166667 0 0.2266 0.00166667 0 0.2327 0.00166667 0 0.2388 0.00166667 0 0.2449 0.00166667 0 0.251 0.00166667 0 0.2571 0.00166667 0 0.2632 0.00166667 0 0.2693 0.00166667 0 0.2754 0.00166667 0 0.2815 0.00166667 0 0.19 0.002 0 0.1961 0.002 0 0.2022 0.002 0 0.2083 0.002 0 0.2144 0.002 0 0.2205 0.002 0 0.2266 0.002 0 0.2327 0.002 0 0.2388 0.002 0 0.2449 0.002 0 0.251 0.002 0 0.2571 0.002 0 0.2632 0.002 0 0.2693 0.002 0 0.2754 0.002 0 0.2815 0.002 0 0.19 0.00233333 0 0.1961 0.00233333 0 0.2022 0.00233333 0 0.2083 0.00233333 0 0.2144 0.00233333 0 0.2205 0.00233333 0 0.2266 0.00233333 0 0.2327 0.00233333 0 0.2388 0.00233333 0 0.2449 0.00233333 0 0.251 0.00233333 0 0.2571 0.00233333 0 0.2632 0.00233333 0 0.2693 0.00233333 0 0.2754 0.00233333 0 0.2815 0.00233333 0 0.19 0.00266667 0 0.1961 0.00266667 0 0.2022 0.00266667 0 0.2083 0.00266667 0 0.2144 0.00266667 0 0.2205 0.00266667 0 0.2266 0.00266667 0 0.2327 0.00266667 0 0.2388 0.00266667 0 0.2449 0.00266667 0 0.251 0.00266667 0 0.2571 0.00266667 0 0.2632 0.00266667 0 0.2693 0.00266667 0 0.2754 0.00266667 0 0.2815 0.00266667 0 0.19 0.003 0 0.1961 0.003 0 0.2022 0.003 0 0.2083 0.003 0 0.2144 0.003 0 0.2205 0.003 0 0.2266 0.003 0 0.2327 0.003 0 0.2388 0.003 0 0.2449 0.003 0 0.251 0.003 0 0.2571 0.003 0 0.2632 0.003 0 0.2693 0.003 0 0.2754 0.003 0 0.2815 0.003 0 0.19 0.00333333 0 0.1961 0.00333333 0 0.2022 0.00333333 0 0.2083 0.00333333 0 0.2144 0.00333333 0 0.2205 0.00333333 0 0.2266 0.00333333 0 0.2327 0.00333333 0 0.2388 0.00333333 0 0.2449 0.00333333 0 0.251 0.00333333 0 0.2571 0.00333333 0 0.2632 0.00333333 0 0.2693 0.00333333 0 0.2754 0.00333333 0 0.2815 0.00333333 0 0.19 0.00366667 0 0.1961 0.00366667 0 0.2022 0.00366667 0 0.2083 0.00366667 0 0.2144 0.00366667 0 0.2205 0.00366667 0 0.2266 0.00366667 0 0.2327 0.00366667 0 0.2388 0.00366667 0 0.2449 0.00366667 0 0.251 0.00366667 0 0.2571 0.00366667 0 0.2632 0.00366667 0 0.2693 0.00366667 0 0.2754 0.00366667 0 0.2815 0.00366667 0 0.19 0.004 0 0.1961 0.004 0 0.2022 0.004 0 0.2083 0.004 0 0.2144 0.004 0 0.2205 0.004 0 0.2266 0.004 0 0.2327 0.004 0 0.2388 0.004 0 0.2449 0.004 0 0.251 0.004 0 0.2571 0.004 0 0.2632 0.004 0 0.2693 0.004 0 0.2754 0.004 0 0.2815 0.004 0 0.19 0.00433333 0 0.1961 0.00433333 0 0.2022 0.00433333 0 0.2083 0.00433333 0 0.2144 0.00433333 0 0.2205 0.00433333 0 0.2266 0.00433333 0 0.2327 0.00433333 0 0.2388 0.00433333 0 0.2449 0.00433333 0 0.251 0.00433333 0 0.2571 0.00433333 0 0.2632 0.00433333 0 0.2693 0.00433333 0 0.2754 0.00433333 0 0.2815 0.00433333 0 0.19 0.00466667 0 0.1961 0.00466667 0 0.2022 0.00466667 0 0.2083 0.00466667 0 0.2144 0.00466667 0 0.2205 0.00466667 0 0.2266 0.00466667 0 0.2327 0.00466667 0 0.2388 0.00466667 0 0.2449 0.00466667 0 0.251 0.00466667 0 0.2571 0.00466667 0 0.2632 0.00466667 0 0.2693 0.00466667 0 0.2754 0.00466667 0 0.2815 0.00466667 0 0.19 0.005 0 0.1961 0.005 0 0.2022 0.005 0 0.2083 0.005 0 0.2144 0.005 0 0.2205 0.005 0 0.2266 0.005 0 0.2327 0.005 0 0.2388 0.005 0 0.2449 0.005 0 0.251 0.005 0 0.2571 0.005 0 0.2632 0.005 0 0.2693 0.005 0 0.2754 0.005 0 0.2815 0.005 0 
</DataArray>
</Points> 
</Piece> 
</StructuredGrid> 
</VTKFile> 
