<?xml version="1.0"?> 
<VTKFile type="StructuredGrid" version="0.1"> 
<StructuredGrid WholeExtent="0 15 0 15 0 0"> 
<Piece Extent="0 15 0 15 0 0"> 
<PointData>
<DataArray type="Float32" Name="|E|" format="ascii" NumberOfComponents="3"> 
-1.97899e+06 1.0819e+06 0 -2.0084e+06 1.17166e+06 0 -2.03397e+06 1.26241e+06 0 -2.0539e+06 1.35204e+06 0 -2.06668e+06 1.43712e+06 0 -2.07161e+06 1.51256e+06 0 -2.06978e+06 1.57171e+06 0 -2.06493e+06 1.60712e+06 0 -2.06368e+06 1.61196e+06 0 -2.07502e+06 1.5813e+06 0 -2.10883e+06 1.51352e+06 0 -2.17383e+06 1.40956e+06 0 -2.28184e+06 1.2775e+06 0 -2.44594e+06 1.11945e+06 0 -2.69325e+06 1.19737e+06 0 -4.32904e+06 1.55177e+06 0 -1.94201e+06 1.0773e+06 0 -1.97025e+06 1.16239e+06 0 -1.99576e+06 1.24816e+06 0 -2.01729e+06 1.33299e+06 0 -2.03379e+06 1.41427e+06 0 -2.0448e+06 1.48826e+06 0 -2.05103e+06 1.55009e+06 0 -2.05496e+06 1.59412e+06 0 -2.06119e+06 1.61479e+06 0 -2.07621e+06 1.60752e+06 0 -2.1078e+06 1.56967e+06 0 -2.16398e+06 1.49971e+06 0 -2.24794e+06 1.40586e+06 0 -2.38519e+06 1.26349e+06 0 -2.49182e+06 1.19382e+06 0 -2.84117e+06 1.27716e+06 0 -1.90543e+06 1.07274e+06 0 -1.93247e+06 1.1535e+06 0 -1.95766e+06 1.23476e+06 0 -1.98011e+06 1.31524e+06 0 -1.99913e+06 1.393e+06 0 -2.01443e+06 1.46527e+06 0 -2.0265e+06 1.5285e+06 0 -2.03702e+06 1.5785e+06 0 -2.04916e+06 1.61092e+06 0 -2.06763e+06 1.6218e+06 0 -2.09808e+06 1.60848e+06 0 -2.14802e+06 1.56798e+06 0 -2.21866e+06 1.50593e+06 0 -2.32782e+06 1.40978e+06 0 -2.45004e+06 1.30683e+06 0 -2.55935e+06 1.17584e+06 0 -1.86917e+06 1.06817e+06 0 -1.89498e+06 1.14487e+06 0 -1.9196e+06 1.22197e+06 0 -1.94243e+06 1.29848e+06 0 -1.96301e+06 1.37291e+06 0 -1.98119e+06 1.44327e+06 0 -1.99732e+06 1.50696e+06 0 -2.01256e+06 1.56091e+06 0 -2.02909e+06 1.60181e+06 0 -2.05031e+06 1.62643e+06 0 -2.08031e+06 1.63235e+06 0 -2.12493e+06 1.61668e+06 0 -2.18749e+06 1.58063e+06 0 -2.2741e+06 1.52065e+06 0 -2.3901e+06 1.44155e+06 0 -2.51688e+06 1.33735e+06 0 -1.83316e+06 1.06356e+06 0 -1.8577e+06 1.13643e+06 0 -1.88156e+06 1.20964e+06 0 -1.90432e+06 1.28242e+06 0 -1.92571e+06 1.35368e+06 0 -1.94566e+06 1.42194e+06 0 -1.96442e+06 1.48534e+06 0 -1.98283e+06 1.54164e+06 0 -2.00239e+06 1.58841e+06 0 -2.02549e+06 1.62311e+06 0 -2.0552e+06 1.64365e+06 0 -2.09554e+06 1.64785e+06 0 -2.15076e+06 1.63482e+06 0 -2.22413e+06 1.60332e+06 0 -2.32034e+06 1.55237e+06 0 -2.44043e+06 1.48674e+06 0 -1.79735e+06 1.05888e+06 0 -1.82059e+06 1.1281e+06 0 -1.84351e+06 1.19762e+06 0 -1.86586e+06 1.26687e+06 0 -1.88746e+06 1.33503e+06 0 -1.9083e+06 1.40103e+06 0 -1.92858e+06 1.46354e+06 0 -1.9489e+06 1.52095e+06 0 -1.97032e+06 1.57148e+06 0 -1.99448e+06 1.61327e+06 0 -2.02365e+06 1.64456e+06 0 -2.06065e+06 1.66374e+06 0 -2.10896e+06 1.66953e+06 0 -2.17202e+06 1.66099e+06 0 -2.25302e+06 1.63644e+06 0 -2.35433e+06 1.59566e+06 0 -1.76169e+06 1.05409e+06 0 -1.78359e+06 1.11979e+06 0 -1.80544e+06 1.18578e+06 0 -1.8271e+06 1.25162e+06 0 -1.84845e+06 1.31673e+06 0 -1.8695e+06 1.38032e+06 0 -1.89044e+06 1.44145e+06 0 -1.91169e+06 1.49898e+06 0 -1.93399e+06 1.55164e+06 0 -1.95848e+06 1.59807e+06 0 -1.98677e+06 1.63694e+06 0 -2.0209e+06 1.667e+06 0 -2.0634e+06 1.68715e+06 0 -2.11715e+06 1.69656e+06 0 -2.18525e+06 1.69423e+06 0 -2.27061e+06 1.67821e+06 0 -1.72614e+06 1.04916e+06 0 -1.74668e+06 1.11145e+06 0 -1.76736e+06 1.17402e+06 0 -1.7881e+06 1.23655e+06 0 -1.80884e+06 1.2986e+06 0 -1.8296e+06 1.35964e+06 0 -1.85053e+06 1.41899e+06 0 -1.87194e+06 1.47585e+06 0 -1.89435e+06 1.52934e+06 0 -1.91856e+06 1.57849e+06 0 -1.94566e+06 1.62231e+06 0 -1.97712e+06 1.65989e+06 0 -2.01474e+06 1.69036e+06 0 -2.06065e+06 1.71302e+06 0 -2.11729e+06 1.72738e+06 0 -2.1876e+06 1.73237e+06 0 -1.69067e+06 1.04406e+06 0 -1.70983e+06 1.10301e+06 0 -1.72927e+06 1.16224e+06 0 -1.74892e+06 1.22151e+06 0 -1.76877e+06 1.28051e+06 0 -1.78885e+06 1.33887e+06 0 -1.80928e+06 1.3961e+06 0 -1.83028e+06 1.45167e+06 0 -1.85221e+06 1.50496e+06 0 -1.87563e+06 1.5553e+06 0 -1.90129e+06 1.60199e+06 0 -1.93019e+06 1.64437e+06 0 -1.9636e+06 1.68181e+06 0 -2.00306e+06 1.71374e+06 0 -2.0503e+06 1.73979e+06 0 -2.10753e+06 1.75935e+06 0 -1.65526e+06 1.03878e+06 0 -1.67304e+06 1.09444e+06 0 -1.69117e+06 1.15038e+06 0 -1.70961e+06 1.20641e+06 0 -1.72838e+06 1.26234e+06 0 -1.7475e+06 1.31789e+06 0 -1.76705e+06 1.37273e+06 0 -1.78721e+06 1.42651e+06 0 -1.80824e+06 1.47879e+06 0 -1.83049e+06 1.52913e+06 0 -1.8545e+06 1.57706e+06 0 -1.88093e+06 1.62209e+06 0 -1.91064e+06 1.66379e+06 0 -1.9447e+06 1.70174e+06 0 -1.98433e+06 1.73568e+06 0 -2.03113e+06 1.7651e+06 0 -1.61987e+06 1.03328e+06 0 -1.63628e+06 1.08569e+06 0 -1.65306e+06 1.13836e+06 0 -1.67022e+06 1.19117e+06 0 -1.68776e+06 1.24399e+06 0 -1.70571e+06 1.29662e+06 0 -1.72414e+06 1.34885e+06 0 -1.74316e+06 1.40043e+06 0 -1.76296e+06 1.45108e+06 0 -1.78379e+06 1.5005e+06 0 -1.806e+06 1.54838e+06 0 -1.83002e+06 1.59439e+06 0 -1.85644e+06 1.63822e+06 0 -1.88595e+06 1.6796e+06 0 -1.91938e+06 1.71834e+06 0 -1.95784e+06 1.75409e+06 0 -1.5845e+06 1.02755e+06 0 -1.59954e+06 1.07671e+06 0 -1.61497e+06 1.12613e+06 0 -1.63079e+06 1.17572e+06 0 -1.64701e+06 1.22539e+06 0 -1.66365e+06 1.275e+06 0 -1.68078e+06 1.32442e+06 0 -1.69846e+06 1.37348e+06 0 -1.71684e+06 1.42201e+06 0 -1.73606e+06 1.46981e+06 0 -1.75637e+06 1.51667e+06 0 -1.77806e+06 1.56237e+06 0 -1.80149e+06 1.60672e+06 0 -1.82713e+06 1.64952e+06 0 -1.8555e+06 1.69064e+06 0 -1.88732e+06 1.72985e+06 0 -1.54914e+06 1.02157e+06 0 -1.56284e+06 1.06749e+06 0 -1.57691e+06 1.11366e+06 0 -1.59136e+06 1.16001e+06 0 -1.6062e+06 1.20648e+06 0 -1.62146e+06 1.25298e+06 0 -1.63717e+06 1.29944e+06 0 -1.65339e+06 1.34574e+06 0 -1.67021e+06 1.39176e+06 0 -1.68773e+06 1.43739e+06 0 -1.70611e+06 1.48249e+06 0 -1.72553e+06 1.52693e+06 0 -1.74624e+06 1.57057e+06 0 -1.76851e+06 1.61328e+06 0 -1.79269e+06 1.65497e+06 0 -1.81922e+06 1.69549e+06 0 -1.51377e+06 1.01531e+06 0 -1.52615e+06 1.05799e+06 0 -1.53888e+06 1.1009e+06 0 -1.55196e+06 1.14399e+06 0 -1.5654e+06 1.18722e+06 0 -1.57923e+06 1.23054e+06 0 -1.59347e+06 1.2739e+06 0 -1.60816e+06 1.31723e+06 0 -1.62336e+06 1.36046e+06 0 -1.63914e+06 1.40351e+06 0 -1.65559e+06 1.4463e+06 0 -1.67284e+06 1.48874e+06 0 -1.69102e+06 1.53076e+06 0 -1.71033e+06 1.57227e+06 0 -1.73097e+06 1.61321e+06 0 -1.7532e+06 1.65346e+06 0 -1.4784e+06 1.00877e+06 0 -1.48949e+06 1.0482e+06 0 -1.50089e+06 1.08782e+06 0 -1.51262e+06 1.12762e+06 0 -1.52467e+06 1.16757e+06 0 -1.53706e+06 1.20764e+06 0 -1.54981e+06 1.2478e+06 0 -1.56295e+06 1.288e+06 0 -1.57651e+06 1.32821e+06 0 -1.59055e+06 1.36837e+06 0 -1.60512e+06 1.40844e+06 0 -1.62029e+06 1.44837e+06 0 -1.63615e+06 1.48811e+06 0 -1.65281e+06 1.52759e+06 0 -1.67039e+06 1.5668e+06 0 -1.68907e+06 1.60569e+06 0 -1.443e+06 1.00194e+06 0 -1.45285e+06 1.03809e+06 0 -1.46297e+06 1.07441e+06 0 -1.47336e+06 1.11089e+06 0 -1.48404e+06 1.14752e+06 0 -1.49501e+06 1.18428e+06 0 -1.50629e+06 1.22115e+06 0 -1.5179e+06 1.2581e+06 0 -1.52985e+06 1.29512e+06 0 -1.54218e+06 1.33217e+06 0 -1.55492e+06 1.36922e+06 0 -1.56812e+06 1.40626e+06 0 -1.58183e+06 1.44324e+06 0 -1.59612e+06 1.48012e+06 0 -1.61105e+06 1.5169e+06 0 -1.62675e+06 1.55338e+06 0 </DataArray> 
</PointData> 
<Points> 
<DataArray type="Float32" NumberOfComponents="3"> 
0.05 0.045 0 0.0533333 0.045 0 0.0566667 0.045 0 0.06 0.045 0 0.0633333 0.045 0 0.0666667 0.045 0 0.07 0.045 0 0.0733333 0.045 0 0.0766667 0.045 0 0.08 0.045 0 0.0833333 0.045 0 0.0866667 0.045 0 0.09 0.045 0 0.0933333 0.045 0 0.0966667 0.045 0 0.1 0.045 0 0.0494133 0.0461905 0 0.052616 0.0461905 0 0.0558187 0.0461905 0 0.0590213 0.0461905 0 0.062224 0.0461905 0 0.0654267 0.0461905 0 0.0686293 0.0461905 0 0.071832 0.0461905 0 0.0750347 0.0461905 0 0.0782373 0.0461905 0 0.08144 0.0461905 0 0.0846427 0.0461905 0 0.0878453 0.0461905 0 0.091048 0.0461905 0 0.0942507 0.0461905 0 0.0974533 0.0461905 0 0.0488267 0.047381 0 0.0518987 0.047381 0 0.0549707 0.047381 0 0.0580427 0.047381 0 0.0611147 0.047381 0 0.0641867 0.047381 0 0.0672587 0.047381 0 0.0703307 0.047381 0 0.0734027 0.047381 0 0.0764747 0.047381 0 0.0795467 0.047381 0 0.0826187 0.047381 0 0.0856907 0.047381 0 0.0887627 0.047381 0 0.0918347 0.047381 0 0.0949067 0.047381 0 0.04824 0.0485714 0 0.0511813 0.0485714 0 0.0541227 0.0485714 0 0.057064 0.0485714 0 0.0600053 0.0485714 0 0.0629467 0.0485714 0 0.065888 0.0485714 0 0.0688293 0.0485714 0 0.0717707 0.0485714 0 0.074712 0.0485714 0 0.0776533 0.0485714 0 0.0805947 0.0485714 0 0.083536 0.0485714 0 0.0864773 0.0485714 0 0.0894187 0.0485714 0 0.09236 0.0485714 0 0.0476533 0.0497619 0 0.050464 0.0497619 0 0.0532747 0.0497619 0 0.0560853 0.0497619 0 0.058896 0.0497619 0 0.0617067 0.0497619 0 0.0645173 0.0497619 0 0.067328 0.0497619 0 0.0701387 0.0497619 0 0.0729493 0.0497619 0 0.07576 0.0497619 0 0.0785707 0.0497619 0 0.0813813 0.0497619 0 0.084192 0.0497619 0 0.0870027 0.0497619 0 0.0898133 0.0497619 0 0.0470667 0.0509524 0 0.0497467 0.0509524 0 0.0524267 0.0509524 0 0.0551067 0.0509524 0 0.0577867 0.0509524 0 0.0604667 0.0509524 0 0.0631467 0.0509524 0 0.0658267 0.0509524 0 0.0685067 0.0509524 0 0.0711867 0.0509524 0 0.0738667 0.0509524 0 0.0765467 0.0509524 0 0.0792267 0.0509524 0 0.0819067 0.0509524 0 0.0845867 0.0509524 0 0.0872667 0.0509524 0 0.04648 0.0521429 0 0.0490293 0.0521429 0 0.0515787 0.0521429 0 0.054128 0.0521429 0 0.0566773 0.0521429 0 0.0592267 0.0521429 0 0.061776 0.0521429 0 0.0643253 0.0521429 0 0.0668747 0.0521429 0 0.069424 0.0521429 0 0.0719733 0.0521429 0 0.0745227 0.0521429 0 0.077072 0.0521429 0 0.0796213 0.0521429 0 0.0821707 0.0521429 0 0.08472 0.0521429 0 0.0458933 0.0533333 0 0.048312 0.0533333 0 0.0507307 0.0533333 0 0.0531493 0.0533333 0 0.055568 0.0533333 0 0.0579867 0.0533333 0 0.0604053 0.0533333 0 0.062824 0.0533333 0 0.0652427 0.0533333 0 0.0676613 0.0533333 0 0.07008 0.0533333 0 0.0724987 0.0533333 0 0.0749173 0.0533333 0 0.077336 0.0533333 0 0.0797547 0.0533333 0 0.0821733 0.0533333 0 0.0453067 0.0545238 0 0.0475947 0.0545238 0 0.0498827 0.0545238 0 0.0521707 0.0545238 0 0.0544587 0.0545238 0 0.0567467 0.0545238 0 0.0590347 0.0545238 0 0.0613227 0.0545238 0 0.0636107 0.0545238 0 0.0658987 0.0545238 0 0.0681867 0.0545238 0 0.0704747 0.0545238 0 0.0727627 0.0545238 0 0.0750507 0.0545238 0 0.0773387 0.0545238 0 0.0796267 0.0545238 0 0.04472 0.0557143 0 0.0468773 0.0557143 0 0.0490347 0.0557143 0 0.051192 0.0557143 0 0.0533493 0.0557143 0 0.0555067 0.0557143 0 0.057664 0.0557143 0 0.0598213 0.0557143 0 0.0619787 0.0557143 0 0.064136 0.0557143 0 0.0662933 0.0557143 0 0.0684507 0.0557143 0 0.070608 0.0557143 0 0.0727653 0.0557143 0 0.0749227 0.0557143 0 0.07708 0.0557143 0 0.0441333 0.0569048 0 0.04616 0.0569048 0 0.0481867 0.0569048 0 0.0502133 0.0569048 0 0.05224 0.0569048 0 0.0542667 0.0569048 0 0.0562933 0.0569048 0 0.05832 0.0569048 0 0.0603467 0.0569048 0 0.0623733 0.0569048 0 0.0644 0.0569048 0 0.0664267 0.0569048 0 0.0684533 0.0569048 0 0.07048 0.0569048 0 0.0725067 0.0569048 0 0.0745333 0.0569048 0 0.0435467 0.0580952 0 0.0454427 0.0580952 0 0.0473387 0.0580952 0 0.0492347 0.0580952 0 0.0511307 0.0580952 0 0.0530267 0.0580952 0 0.0549227 0.0580952 0 0.0568187 0.0580952 0 0.0587147 0.0580952 0 0.0606107 0.0580952 0 0.0625067 0.0580952 0 0.0644027 0.0580952 0 0.0662987 0.0580952 0 0.0681947 0.0580952 0 0.0700907 0.0580952 0 0.0719867 0.0580952 0 0.04296 0.0592857 0 0.0447253 0.0592857 0 0.0464907 0.0592857 0 0.048256 0.0592857 0 0.0500213 0.0592857 0 0.0517867 0.0592857 0 0.053552 0.0592857 0 0.0553173 0.0592857 0 0.0570827 0.0592857 0 0.058848 0.0592857 0 0.0606133 0.0592857 0 0.0623787 0.0592857 0 0.064144 0.0592857 0 0.0659093 0.0592857 0 0.0676747 0.0592857 0 0.06944 0.0592857 0 0.0423733 0.0604762 0 0.044008 0.0604762 0 0.0456427 0.0604762 0 0.0472773 0.0604762 0 0.048912 0.0604762 0 0.0505467 0.0604762 0 0.0521813 0.0604762 0 0.053816 0.0604762 0 0.0554507 0.0604762 0 0.0570853 0.0604762 0 0.05872 0.0604762 0 0.0603547 0.0604762 0 0.0619893 0.0604762 0 0.063624 0.0604762 0 0.0652587 0.0604762 0 0.0668933 0.0604762 0 0.0417867 0.0616667 0 0.0432907 0.0616667 0 0.0447947 0.0616667 0 0.0462987 0.0616667 0 0.0478027 0.0616667 0 0.0493067 0.0616667 0 0.0508107 0.0616667 0 0.0523147 0.0616667 0 0.0538187 0.0616667 0 0.0553227 0.0616667 0 0.0568267 0.0616667 0 0.0583307 0.0616667 0 0.0598347 0.0616667 0 0.0613387 0.0616667 0 0.0628427 0.0616667 0 0.0643467 0.0616667 0 0.0412 0.0628571 0 0.0425733 0.0628571 0 0.0439467 0.0628571 0 0.04532 0.0628571 0 0.0466933 0.0628571 0 0.0480667 0.0628571 0 0.04944 0.0628571 0 0.0508133 0.0628571 0 0.0521867 0.0628571 0 0.05356 0.0628571 0 0.0549333 0.0628571 0 0.0563067 0.0628571 0 0.05768 0.0628571 0 0.0590533 0.0628571 0 0.0604267 0.0628571 0 0.0618 0.0628571 0 
</DataArray>
</Points> 
</Piece> 
</StructuredGrid> 
</VTKFile> 
