<?xml version="1.0"?> 
<VTKFile type="StructuredGrid" version="0.1"> 
<StructuredGrid WholeExtent="0 15 0 15 0 0"> 
<Piece Extent="0 15 0 15 0 0"> 
<PointData>
<DataArray type="Float32" Name="|E|" format="ascii" NumberOfComponents="3"> 
-2.10886e+06 0 0 -2.11534e+06 25509.7 0 -2.13419e+06 50984.9 0 -2.16566e+06 76900.3 0 -2.21025e+06 103758 0 -2.26868e+06 132088 0 -2.34192e+06 162497 0 -2.43131e+06 195602 0 -2.5387e+06 232026 0 -2.66646e+06 272207 0 -2.81742e+06 315454 0 -2.99647e+06 358015 0 -3.21088e+06 387374 0 -3.45648e+06 369305 0 -3.69019e+06 259686 0 -3.84454e+06 -2604.28 0 -2.10692e+06 0 0 -2.11262e+06 24839.8 0 -2.12917e+06 49645.5 0 -2.15678e+06 74824 0 -2.19581e+06 100821 0 -2.24681e+06 128086 0 -2.31054e+06 157144 0 -2.38796e+06 188565 0 -2.48041e+06 222915 0 -2.58973e+06 260779 0 -2.71808e+06 302312 0 -2.8683e+06 346544 0 -3.04599e+06 391197 0 -3.25827e+06 423261 0 -3.49771e+06 399459 0 -3.72161e+06 280207 0 -2.1049e+06 0 0 -2.10986e+06 24050.2 0 -2.12427e+06 48068.9 0 -2.14828e+06 72397.1 0 -2.18216e+06 97428.8 0 -2.22633e+06 123547 0 -2.28133e+06 151192 0 -2.34789e+06 180877 0 -2.42694e+06 213122 0 -2.51979e+06 248473 0 -2.62814e+06 287494 0 -2.7539e+06 329976 0 -2.89992e+06 374546 0 -3.07201e+06 419840 0 -3.27749e+06 445748 0 -3.50576e+06 448682 0 -2.10279e+06 0 0 -2.10706e+06 23141.7 0 -2.11949e+06 46255.6 0 -2.14017e+06 69619 0 -2.1693e+06 93574.3 0 -2.20719e+06 118449 0 -2.25423e+06 144600 0 -2.31095e+06 172459 0 -2.378e+06 202500 0 -2.45627e+06 235201 0 -2.54695e+06 271120 0 -2.65153e+06 310862 0 -2.7717e+06 354061 0 -2.91001e+06 401642 0 -3.07277e+06 445191 0 -3.26419e+06 484797 0 -2.10059e+06 0 0 -2.10424e+06 22114.5 0 -2.11483e+06 44206.6 0 -2.13245e+06 66493.9 0 -2.15721e+06 89267.5 0 -2.18935e+06 112809 0 -2.22916e+06 137403 0 -2.277e+06 163399 0 -2.33332e+06 191194 0 -2.39872e+06 221222 0 -2.47397e+06 253928 0 -2.56009e+06 289905 0 -2.65837e+06 329328 0 -2.77008e+06 373354 0 -2.89782e+06 421328 0 -3.04652e+06 468519 0 -2.09831e+06 0 0 -2.10138e+06 20969.1 0 -2.11029e+06 41922.4 0 -2.1251e+06 63024.2 0 -2.14588e+06 84512.2 0 -2.1728e+06 106630 0 -2.20606e+06 129605 0 -2.24591e+06 153705 0 -2.29267e+06 179250 0 -2.34671e+06 206600 0 -2.40853e+06 236141 0 -2.47877e+06 268375 0 -2.55829e+06 303677 0 -2.64806e+06 342417 0 -2.74907e+06 386282 0 -2.86372e+06 431987 0 -2.09595e+06 0 0 -2.09849e+06 19705.8 0 -2.10586e+06 39403.2 0 -2.11812e+06 59212 0 -2.13529e+06 79313.7 0 -2.1575e+06 99920 0 -2.18487e+06 121213 0 -2.21759e+06 143392 0 -2.25584e+06 166702 0 -2.29989e+06 191423 0 -2.35004e+06 217860 0 -2.40668e+06 246385 0 -2.47029e+06 277470 0 -2.54156e+06 311297 0 -2.62113e+06 349021 0 -2.71002e+06 389453 0 -2.0935e+06 0 0 -2.09556e+06 18325.5 0 -2.10155e+06 36648.9 0 -2.1115e+06 55057.7 0 -2.12544e+06 73676 0 -2.14341e+06 92682 0 -2.16553e+06 112228 0 -2.19191e+06 132460 0 -2.22266e+06 153553 0 -2.25795e+06 175717 0 -2.29798e+06 199184 0 -2.34296e+06 224208 0 -2.39318e+06 251152 0 -2.44899e+06 280283 0 -2.51084e+06 312252 0 -2.57931e+06 346594 0 -2.09097e+06 0 0 -2.0926e+06 16828.9 0 -2.09734e+06 33659.6 0 -2.10524e+06 50560.3 0 -2.1163e+06 67601.7 0 -2.13053e+06 84921.5 0 -2.14799e+06 102653 0 -2.16878e+06 120904 0 -2.19297e+06 139794 0 -2.22065e+06 159468 0 -2.25193e+06 180097 0 -2.28694e+06 201857 0 -2.32585e+06 224976 0 -2.36884e+06 249672 0 -2.41613e+06 276413 0 -2.46807e+06 304957 0 -2.08836e+06 0 0 -2.08961e+06 15217 0 -2.09326e+06 30435.7 0 -2.09934e+06 45717.2 0 -2.10786e+06 61089.6 0 -2.11881e+06 76642.6 0 -2.13222e+06 92487.9 0 -2.14814e+06 108716 0 -2.16663e+06 125406 0 -2.18775e+06 142650 0 -2.21154e+06 160559 0 -2.23809e+06 179258 0 -2.26747e+06 198892 0 -2.2998e+06 219586 0 -2.33518e+06 241638 0 -2.37377e+06 264940 0 -2.08566e+06 0 0 -2.08659e+06 13490.9 0 -2.08929e+06 26978.7 0 -2.09379e+06 40524.6 0 -2.10011e+06 54133.6 0 -2.10824e+06 67844.3 0 -2.11816e+06 81736.9 0 -2.12991e+06 95889.7 0 -2.14353e+06 110364 0 -2.15906e+06 125214 0 -2.17652e+06 140505 0 -2.19595e+06 156312 0 -2.2174e+06 172730 0 -2.2409e+06 189834 0 -2.26652e+06 207781 0 -2.29433e+06 226503 0 -2.08287e+06 0 0 -2.08354e+06 11651.8 0 -2.08543e+06 23291.8 0 -2.08858e+06 34980 0 -2.09303e+06 46721.3 0 -2.09877e+06 58514.7 0 -2.10577e+06 70396.9 0 -2.11403e+06 82424.4 0 -2.12357e+06 94649.4 0 -2.13443e+06 107112 0 -2.14662e+06 119849 0 -2.16017e+06 132897 0 -2.17508e+06 146306 0 -2.19138e+06 160122 0 -2.2091e+06 174434 0 -2.22826e+06 189180 0 -2.08001e+06 0 0 -2.08045e+06 9700.74 0 -2.08169e+06 19380.5 0 -2.08374e+06 29086.1 0 -2.08663e+06 38838.5 0 -2.09039e+06 48624.5 0 -2.09499e+06 58441.3 0 -2.10041e+06 68308.7 0 -2.10666e+06 78258.1 0 -2.11374e+06 88320.2 0 -2.12166e+06 98521.1 0 -2.13045e+06 108883 0 -2.14011e+06 119428 0 -2.15066e+06 130174 0 -2.1621e+06 141166 0 -2.17445e+06 152361 0 -2.07707e+06 0 0 -2.07732e+06 7638.03 0 -2.07806e+06 15251.5 0 -2.07925e+06 22857.4 0 -2.08092e+06 30483.9 0 -2.0831e+06 38134.2 0 -2.08579e+06 45795.7 0 -2.08898e+06 53459.1 0 -2.09266e+06 61123.7 0 -2.09682e+06 68794.5 0 -2.10146e+06 76479.3 0 -2.10658e+06 84186.6 0 -2.11219e+06 91927.4 0 -2.1183e+06 99712.8 0 -2.12492e+06 107571 0 -2.13205e+06 115491 0 -2.07404e+06 0 0 -2.07416e+06 5462.51 0 -2.07452e+06 10906.5 0 -2.07511e+06 16320.2 0 -2.07591e+06 21705.1 0 -2.07693e+06 27071.4 0 -2.0782e+06 32425 0 -2.07971e+06 37764.5 0 -2.08148e+06 43082.5 0 -2.0835e+06 48366.7 0 -2.08577e+06 53601.3 0 -2.08827e+06 58766.6 0 -2.091e+06 63840.4 0 -2.09396e+06 68796.4 0 -2.09715e+06 73612.8 0 -2.10056e+06 78246.8 0 -2.07092e+06 0 0 -2.07097e+06 3175.09 0 -2.07108e+06 6331.92 0 -2.07128e+06 9463.67 0 -2.07155e+06 12529.5 0 -2.07191e+06 15458.7 0 -2.07232e+06 18211.5 0 -2.07279e+06 20802.8 0 -2.07333e+06 23282.5 0 -2.07393e+06 25707.3 0 -2.07461e+06 28120.7 0 -2.07536e+06 30545 0 -2.0762e+06 32982.4 0 -2.07713e+06 35418.5 0 -2.07813e+06 37834.2 0 -2.07922e+06 40189.1 0 </DataArray> 
</PointData> 
<Points> 
<DataArray type="Float32" NumberOfComponents="3"> 
0 0.01 0 0.005 0.01 0 0.01 0.01 0 0.015 0.01 0 0.02 0.01 0 0.025 0.01 0 0.03 0.01 0 0.035 0.01 0 0.04 0.01 0 0.045 0.01 0 0.05 0.01 0 0.055 0.01 0 0.06 0.01 0 0.065 0.01 0 0.07 0.01 0 0.075 0.01 0 0 0.0104 0 0.00469333 0.0104 0 0.00938667 0.0104 0 0.01408 0.0104 0 0.0187733 0.0104 0 0.0234667 0.0104 0 0.02816 0.0104 0 0.0328533 0.0104 0 0.0375467 0.0104 0 0.04224 0.0104 0 0.0469333 0.0104 0 0.0516267 0.0104 0 0.05632 0.0104 0 0.0610133 0.0104 0 0.0657067 0.0104 0 0.0704 0.0104 0 0 0.0108 0 0.00438667 0.0108 0 0.00877333 0.0108 0 0.01316 0.0108 0 0.0175467 0.0108 0 0.0219333 0.0108 0 0.02632 0.0108 0 0.0307067 0.0108 0 0.0350933 0.0108 0 0.03948 0.0108 0 0.0438667 0.0108 0 0.0482533 0.0108 0 0.05264 0.0108 0 0.0570267 0.0108 0 0.0614133 0.0108 0 0.0658 0.0108 0 0 0.0112 0 0.00408 0.0112 0 0.00816 0.0112 0 0.01224 0.0112 0 0.01632 0.0112 0 0.0204 0.0112 0 0.02448 0.0112 0 0.02856 0.0112 0 0.03264 0.0112 0 0.03672 0.0112 0 0.0408 0.0112 0 0.04488 0.0112 0 0.04896 0.0112 0 0.05304 0.0112 0 0.05712 0.0112 0 0.0612 0.0112 0 0 0.0116 0 0.00377333 0.0116 0 0.00754667 0.0116 0 0.01132 0.0116 0 0.0150933 0.0116 0 0.0188667 0.0116 0 0.02264 0.0116 0 0.0264133 0.0116 0 0.0301867 0.0116 0 0.03396 0.0116 0 0.0377333 0.0116 0 0.0415067 0.0116 0 0.04528 0.0116 0 0.0490533 0.0116 0 0.0528267 0.0116 0 0.0566 0.0116 0 0 0.012 0 0.00346667 0.012 0 0.00693333 0.012 0 0.0104 0.012 0 0.0138667 0.012 0 0.0173333 0.012 0 0.0208 0.012 0 0.0242667 0.012 0 0.0277333 0.012 0 0.0312 0.012 0 0.0346667 0.012 0 0.0381333 0.012 0 0.0416 0.012 0 0.0450667 0.012 0 0.0485333 0.012 0 0.052 0.012 0 0 0.0124 0 0.00316 0.0124 0 0.00632 0.0124 0 0.00948 0.0124 0 0.01264 0.0124 0 0.0158 0.0124 0 0.01896 0.0124 0 0.02212 0.0124 0 0.02528 0.0124 0 0.02844 0.0124 0 0.0316 0.0124 0 0.03476 0.0124 0 0.03792 0.0124 0 0.04108 0.0124 0 0.04424 0.0124 0 0.0474 0.0124 0 0 0.0128 0 0.00285333 0.0128 0 0.00570667 0.0128 0 0.00856 0.0128 0 0.0114133 0.0128 0 0.0142667 0.0128 0 0.01712 0.0128 0 0.0199733 0.0128 0 0.0228267 0.0128 0 0.02568 0.0128 0 0.0285333 0.0128 0 0.0313867 0.0128 0 0.03424 0.0128 0 0.0370933 0.0128 0 0.0399467 0.0128 0 0.0428 0.0128 0 0 0.0132 0 0.00254667 0.0132 0 0.00509333 0.0132 0 0.00764 0.0132 0 0.0101867 0.0132 0 0.0127333 0.0132 0 0.01528 0.0132 0 0.0178267 0.0132 0 0.0203733 0.0132 0 0.02292 0.0132 0 0.0254667 0.0132 0 0.0280133 0.0132 0 0.03056 0.0132 0 0.0331067 0.0132 0 0.0356533 0.0132 0 0.0382 0.0132 0 0 0.0136 0 0.00224 0.0136 0 0.00448 0.0136 0 0.00672 0.0136 0 0.00896 0.0136 0 0.0112 0.0136 0 0.01344 0.0136 0 0.01568 0.0136 0 0.01792 0.0136 0 0.02016 0.0136 0 0.0224 0.0136 0 0.02464 0.0136 0 0.02688 0.0136 0 0.02912 0.0136 0 0.03136 0.0136 0 0.0336 0.0136 0 0 0.014 0 0.00193333 0.014 0 0.00386667 0.014 0 0.0058 0.014 0 0.00773333 0.014 0 0.00966667 0.014 0 0.0116 0.014 0 0.0135333 0.014 0 0.0154667 0.014 0 0.0174 0.014 0 0.0193333 0.014 0 0.0212667 0.014 0 0.0232 0.014 0 0.0251333 0.014 0 0.0270667 0.014 0 0.029 0.014 0 0 0.0144 0 0.00162667 0.0144 0 0.00325333 0.0144 0 0.00488 0.0144 0 0.00650667 0.0144 0 0.00813333 0.0144 0 0.00976 0.0144 0 0.0113867 0.0144 0 0.0130133 0.0144 0 0.01464 0.0144 0 0.0162667 0.0144 0 0.0178933 0.0144 0 0.01952 0.0144 0 0.0211467 0.0144 0 0.0227733 0.0144 0 0.0244 0.0144 0 0 0.0148 0 0.00132 0.0148 0 0.00264 0.0148 0 0.00396 0.0148 0 0.00528 0.0148 0 0.0066 0.0148 0 0.00792 0.0148 0 0.00924 0.0148 0 0.01056 0.0148 0 0.01188 0.0148 0 0.0132 0.0148 0 0.01452 0.0148 0 0.01584 0.0148 0 0.01716 0.0148 0 0.01848 0.0148 0 0.0198 0.0148 0 0 0.0152 0 0.00101333 0.0152 0 0.00202667 0.0152 0 0.00304 0.0152 0 0.00405333 0.0152 0 0.00506667 0.0152 0 0.00608 0.0152 0 0.00709333 0.0152 0 0.00810667 0.0152 0 0.00912 0.0152 0 0.0101333 0.0152 0 0.0111467 0.0152 0 0.01216 0.0152 0 0.0131733 0.0152 0 0.0141867 0.0152 0 0.0152 0.0152 0 0 0.0156 0 0.000706667 0.0156 0 0.00141333 0.0156 0 0.00212 0.0156 0 0.00282667 0.0156 0 0.00353333 0.0156 0 0.00424 0.0156 0 0.00494667 0.0156 0 0.00565333 0.0156 0 0.00636 0.0156 0 0.00706667 0.0156 0 0.00777333 0.0156 0 0.00848 0.0156 0 0.00918667 0.0156 0 0.00989333 0.0156 0 0.0106 0.0156 0 0 0.016 0 0.0004 0.016 0 0.0008 0.016 0 0.0012 0.016 0 0.0016 0.016 0 0.002 0.016 0 0.0024 0.016 0 0.0028 0.016 0 0.0032 0.016 0 0.0036 0.016 0 0.004 0.016 0 0.0044 0.016 0 0.0048 0.016 0 0.0052 0.016 0 0.0056 0.016 0 0.006 0.016 0 
</DataArray>
</Points> 
</Piece> 
</StructuredGrid> 
</VTKFile> 
