<?xml version="1.0"?> 
<VTKFile type="StructuredGrid" version="0.1"> 
<StructuredGrid WholeExtent="0 15 0 15 0 0"> 
<Piece Extent="0 15 0 15 0 0"> 
<PointData>
<DataArray type="Float32" Name="|E|" format="ascii" NumberOfComponents="3"> 
-2.07092e+06 0 0 -2.07097e+06 3159.1 0 -2.07108e+06 6319.32 0 -2.07128e+06 9480.93 0 -2.07155e+06 12649.9 0 -2.07191e+06 15832.7 0 -2.07232e+06 19027.4 0 -2.07279e+06 22225.6 0 -2.07333e+06 25418.3 0 -2.07393e+06 28600.3 0 -2.07461e+06 31770.2 0 -2.07536e+06 34930.1 0 -2.0762e+06 38084.2 0 -2.07713e+06 41236.2 0 -2.07813e+06 44374.5 0 -2.07922e+06 47438 0 -2.06826e+06 0 0 -2.06831e+06 3582.04 0 -2.06846e+06 7165.88 0 -2.06869e+06 10753.7 0 -2.06903e+06 14349.6 0 -2.06944e+06 17955.1 0 -2.06994e+06 21566.1 0 -2.07052e+06 25175.7 0 -2.07119e+06 28778.4 0 -2.07195e+06 32371.8 0 -2.0728e+06 35956.9 0 -2.07375e+06 39536.5 0 -2.0748e+06 43113.7 0 -2.07596e+06 46691.3 0 -2.07723e+06 50278.2 0 -2.0786e+06 53907.6 0 -2.06555e+06 0 0 -2.06561e+06 4018.29 0 -2.06578e+06 8039.09 0 -2.06606e+06 12064.7 0 -2.06646e+06 16097.4 0 -2.06695e+06 20136.2 0 -2.06755e+06 24177 0 -2.06826e+06 28214.6 0 -2.06907e+06 32246 0 -2.06999e+06 36271 0 -2.07104e+06 40292 0 -2.0722e+06 44312.7 0 -2.07349e+06 48338.4 0 -2.0749e+06 52377.1 0 -2.07642e+06 56436 0 -2.07805e+06 60507.6 0 -2.06278e+06 0 0 -2.06285e+06 4467.66 0 -2.06305e+06 8938.21 0 -2.06339e+06 13413.6 0 -2.06385e+06 17894.7 0 -2.06443e+06 22379.9 0 -2.06515e+06 26865.3 0 -2.06599e+06 31347.7 0 -2.06696e+06 35826 0 -2.06807e+06 40301.7 0 -2.06932e+06 44778.5 0 -2.07071e+06 49261.6 0 -2.07224e+06 53757.4 0 -2.07391e+06 58269.7 0 -2.07571e+06 62796.7 0 -2.07764e+06 67337.1 0 -2.05996e+06 0 0 -2.06004e+06 4929.98 0 -2.06028e+06 9863.02 0 -2.06066e+06 14800.7 0 -2.0612e+06 19743.1 0 -2.06189e+06 24688.4 0 -2.06273e+06 29633.8 0 -2.06371e+06 34577.5 0 -2.06486e+06 39520.1 0 -2.06617e+06 44464.7 0 -2.06764e+06 49415.8 0 -2.06927e+06 54379 0 -2.07106e+06 59357.8 0 -2.073e+06 64352.6 0 -2.0751e+06 69361.5 0 -2.07736e+06 74385.7 0 -2.05709e+06 0 0 -2.05718e+06 5405.21 0 -2.05745e+06 10813.6 0 -2.0579e+06 16226.3 0 -2.05852e+06 21643.4 0 -2.05932e+06 27063 0 -2.06029e+06 32483.6 0 -2.06143e+06 37904.9 0 -2.06277e+06 43328.7 0 -2.06428e+06 48759.1 0 -2.06599e+06 54201 0 -2.06787e+06 59658.4 0 -2.06994e+06 65132.8 0 -2.07218e+06 70623.9 0 -2.0746e+06 76131.2 0 -2.07721e+06 81655.7 0 -2.05416e+06 0 0 -2.05427e+06 5893.35 0 -2.05458e+06 11790 0 -2.05509e+06 17690.9 0 -2.0558e+06 23596.2 0 -2.05671e+06 29504.6 0 -2.05783e+06 35415.5 0 -2.05915e+06 41330 0 -2.06068e+06 47251.1 0 -2.06241e+06 53183.2 0 -2.06436e+06 59130.7 0 -2.06652e+06 65096.2 0 -2.06888e+06 71080.5 0 -2.07144e+06 77083.8 0 -2.07421e+06 83105.8 0 -2.07719e+06 89148.4 0 -2.05119e+06 0 0 -2.05131e+06 6394.4 0 -2.05166e+06 12792.2 0 -2.05224e+06 19194.7 0 -2.05305e+06 25601.8 0 -2.05408e+06 32013.2 0 -2.05535e+06 38429.4 0 -2.05685e+06 44852.5 0 -2.05859e+06 51286.2 0 -2.06056e+06 57735 0 -2.06277e+06 64202.5 0 -2.06521e+06 70690.7 0 -2.06788e+06 77200.4 0 -2.07079e+06 83732.3 0 -2.07393e+06 90286.3 0 -2.0773e+06 96865.3 0 -2.04817e+06 0 0 -2.0483e+06 6908.35 0 -2.0487e+06 13820.4 0 -2.04935e+06 20737.6 0 -2.05026e+06 27660.2 0 -2.05142e+06 34588.9 0 -2.05285e+06 41525 0 -2.05454e+06 48471.6 0 -2.0565e+06 55432.8 0 -2.05872e+06 62413 0 -2.0612e+06 69415.2 0 -2.06394e+06 76441.4 0 -2.06695e+06 83492.5 0 -2.07022e+06 90569.8 0 -2.07375e+06 97673.7 0 -2.07755e+06 104808 0 -2.04509e+06 0 0 -2.04524e+06 7435.19 0 -2.04568e+06 14874.5 0 -2.04641e+06 22319.6 0 -2.04743e+06 29771.5 0 -2.04873e+06 37231.4 0 -2.05033e+06 44701.9 0 -2.05222e+06 52186.5 0 -2.0544e+06 59689.9 0 -2.05688e+06 67216.1 0 -2.05966e+06 74768.1 0 -2.06272e+06 82347.8 0 -2.06608e+06 89956.9 0 -2.06973e+06 97597 0 -2.07368e+06 105269 0 -2.07792e+06 112979 0 -2.04197e+06 0 0 -2.04213e+06 7974.87 0 -2.04262e+06 15954.4 0 -2.04343e+06 23940.6 0 -2.04456e+06 31935.3 0 -2.04601e+06 39940.5 0 -2.04778e+06 47959.4 0 -2.04988e+06 55996.6 0 -2.05231e+06 64056.6 0 -2.05506e+06 72143.6 0 -2.05814e+06 80260.6 0 -2.06154e+06 88410 0 -2.06527e+06 96593.9 0 -2.06932e+06 104815 0 -2.0737e+06 113074 0 -2.07842e+06 121378 0 -2.03879e+06 0 0 -2.03898e+06 8527.34 0 -2.03952e+06 17060 0 -2.04041e+06 25600.6 0 -2.04165e+06 34151.4 0 -2.04326e+06 42715.6 0 -2.04522e+06 51297.2 0 -2.04754e+06 59901.1 0 -2.05021e+06 68532.2 0 -2.05325e+06 77194.9 0 -2.05665e+06 85892.5 0 -2.0604e+06 94627.9 0 -2.06452e+06 103404 0 -2.06899e+06 112224 0 -2.07383e+06 121090 0 -2.07904e+06 130009 0 -2.03556e+06 0 0 -2.03577e+06 9092.54 0 -2.03636e+06 18191.2 0 -2.03734e+06 27299.1 0 -2.03871e+06 36419.6 0 -2.04047e+06 45556.4 0 -2.04263e+06 54714.6 0 -2.04517e+06 63899.4 0 -2.04811e+06 73116.2 0 -2.05145e+06 82369.7 0 -2.05518e+06 91663.6 0 -2.0593e+06 101002 0 -2.06382e+06 110387 0 -2.06874e+06 119825 0 -2.07406e+06 129317 0 -2.07978e+06 138873 0 -2.03229e+06 0 0 -2.03251e+06 9670.41 0 -2.03316e+06 19347.8 0 -2.03423e+06 29036.1 0 -2.03573e+06 38739.4 0 -2.03766e+06 48462.5 0 -2.04001e+06 58211 0 -2.0428e+06 67991 0 -2.04601e+06 77808.1 0 -2.04966e+06 87667.6 0 -2.05373e+06 97573.8 0 -2.05824e+06 107531 0 -2.06319e+06 117545 0 -2.06857e+06 127619 0 -2.07439e+06 137758 0 -2.08065e+06 147971 0 -2.02896e+06 0 0 -2.02921e+06 10260.8 0 -2.02991e+06 20529.7 0 -2.03108e+06 30811.3 0 -2.03271e+06 41110.6 0 -2.03481e+06 51433.4 0 -2.03737e+06 61786.1 0 -2.04041e+06 72175.3 0 -2.04391e+06 82607.5 0 -2.04787e+06 93088.3 0 -2.05231e+06 103623 0 -2.05722e+06 114217 0 -2.06261e+06 124876 0 -2.06847e+06 135606 0 -2.07481e+06 146412 0 -2.08163e+06 157306 0 -2.02559e+06 0 0 -2.02585e+06 10863.8 0 -2.02662e+06 21736.7 0 -2.02789e+06 32624.4 0 -2.02966e+06 43532.9 0 -2.03193e+06 54468.8 0 -2.03471e+06 65439.4 0 -2.038e+06 76452.1 0 -2.04179e+06 87514.1 0 -2.0461e+06 98631.7 0 -2.05091e+06 109811 0 -2.05624e+06 121060 0 -2.06208e+06 132383 0 -2.06844e+06 143789 0 -2.07532e+06 155283 0 -2.08273e+06 166879 0 </DataArray> 
</PointData> 
<Points> 
<DataArray type="Float32" NumberOfComponents="3"> 
0 0.016 0 0.0004 0.016 0 0.0008 0.016 0 0.0012 0.016 0 0.0016 0.016 0 0.002 0.016 0 0.0024 0.016 0 0.0028 0.016 0 0.0032 0.016 0 0.0036 0.016 0 0.004 0.016 0 0.0044 0.016 0 0.0048 0.016 0 0.0052 0.016 0 0.0056 0.016 0 0.006 0.016 0 0 0.0163333 0 0.000444444 0.0163333 0 0.000888889 0.0163333 0 0.00133333 0.0163333 0 0.00177778 0.0163333 0 0.00222222 0.0163333 0 0.00266667 0.0163333 0 0.00311111 0.0163333 0 0.00355556 0.0163333 0 0.004 0.0163333 0 0.00444444 0.0163333 0 0.00488889 0.0163333 0 0.00533333 0.0163333 0 0.00577778 0.0163333 0 0.00622222 0.0163333 0 0.00666667 0.0163333 0 0 0.0166667 0 0.000488889 0.0166667 0 0.000977778 0.0166667 0 0.00146667 0.0166667 0 0.00195556 0.0166667 0 0.00244444 0.0166667 0 0.00293333 0.0166667 0 0.00342222 0.0166667 0 0.00391111 0.0166667 0 0.0044 0.0166667 0 0.00488889 0.0166667 0 0.00537778 0.0166667 0 0.00586667 0.0166667 0 0.00635556 0.0166667 0 0.00684444 0.0166667 0 0.00733333 0.0166667 0 0 0.017 0 0.000533333 0.017 0 0.00106667 0.017 0 0.0016 0.017 0 0.00213333 0.017 0 0.00266667 0.017 0 0.0032 0.017 0 0.00373333 0.017 0 0.00426667 0.017 0 0.0048 0.017 0 0.00533333 0.017 0 0.00586667 0.017 0 0.0064 0.017 0 0.00693333 0.017 0 0.00746667 0.017 0 0.008 0.017 0 0 0.0173333 0 0.000577778 0.0173333 0 0.00115556 0.0173333 0 0.00173333 0.0173333 0 0.00231111 0.0173333 0 0.00288889 0.0173333 0 0.00346667 0.0173333 0 0.00404444 0.0173333 0 0.00462222 0.0173333 0 0.0052 0.0173333 0 0.00577778 0.0173333 0 0.00635556 0.0173333 0 0.00693333 0.0173333 0 0.00751111 0.0173333 0 0.00808889 0.0173333 0 0.00866667 0.0173333 0 0 0.0176667 0 0.000622222 0.0176667 0 0.00124444 0.0176667 0 0.00186667 0.0176667 0 0.00248889 0.0176667 0 0.00311111 0.0176667 0 0.00373333 0.0176667 0 0.00435556 0.0176667 0 0.00497778 0.0176667 0 0.0056 0.0176667 0 0.00622222 0.0176667 0 0.00684444 0.0176667 0 0.00746667 0.0176667 0 0.00808889 0.0176667 0 0.00871111 0.0176667 0 0.00933333 0.0176667 0 0 0.018 0 0.000666667 0.018 0 0.00133333 0.018 0 0.002 0.018 0 0.00266667 0.018 0 0.00333333 0.018 0 0.004 0.018 0 0.00466667 0.018 0 0.00533333 0.018 0 0.006 0.018 0 0.00666667 0.018 0 0.00733333 0.018 0 0.008 0.018 0 0.00866667 0.018 0 0.00933333 0.018 0 0.01 0.018 0 0 0.0183333 0 0.000711111 0.0183333 0 0.00142222 0.0183333 0 0.00213333 0.0183333 0 0.00284444 0.0183333 0 0.00355556 0.0183333 0 0.00426667 0.0183333 0 0.00497778 0.0183333 0 0.00568889 0.0183333 0 0.0064 0.0183333 0 0.00711111 0.0183333 0 0.00782222 0.0183333 0 0.00853333 0.0183333 0 0.00924444 0.0183333 0 0.00995556 0.0183333 0 0.0106667 0.0183333 0 0 0.0186667 0 0.000755556 0.0186667 0 0.00151111 0.0186667 0 0.00226667 0.0186667 0 0.00302222 0.0186667 0 0.00377778 0.0186667 0 0.00453333 0.0186667 0 0.00528889 0.0186667 0 0.00604444 0.0186667 0 0.0068 0.0186667 0 0.00755556 0.0186667 0 0.00831111 0.0186667 0 0.00906667 0.0186667 0 0.00982222 0.0186667 0 0.0105778 0.0186667 0 0.0113333 0.0186667 0 0 0.019 0 0.0008 0.019 0 0.0016 0.019 0 0.0024 0.019 0 0.0032 0.019 0 0.004 0.019 0 0.0048 0.019 0 0.0056 0.019 0 0.0064 0.019 0 0.0072 0.019 0 0.008 0.019 0 0.0088 0.019 0 0.0096 0.019 0 0.0104 0.019 0 0.0112 0.019 0 0.012 0.019 0 0 0.0193333 0 0.000844444 0.0193333 0 0.00168889 0.0193333 0 0.00253333 0.0193333 0 0.00337778 0.0193333 0 0.00422222 0.0193333 0 0.00506667 0.0193333 0 0.00591111 0.0193333 0 0.00675556 0.0193333 0 0.0076 0.0193333 0 0.00844444 0.0193333 0 0.00928889 0.0193333 0 0.0101333 0.0193333 0 0.0109778 0.0193333 0 0.0118222 0.0193333 0 0.0126667 0.0193333 0 0 0.0196667 0 0.000888889 0.0196667 0 0.00177778 0.0196667 0 0.00266667 0.0196667 0 0.00355556 0.0196667 0 0.00444444 0.0196667 0 0.00533333 0.0196667 0 0.00622222 0.0196667 0 0.00711111 0.0196667 0 0.008 0.0196667 0 0.00888889 0.0196667 0 0.00977778 0.0196667 0 0.0106667 0.0196667 0 0.0115556 0.0196667 0 0.0124444 0.0196667 0 0.0133333 0.0196667 0 0 0.02 0 0.000933333 0.02 0 0.00186667 0.02 0 0.0028 0.02 0 0.00373333 0.02 0 0.00466667 0.02 0 0.0056 0.02 0 0.00653333 0.02 0 0.00746667 0.02 0 0.0084 0.02 0 0.00933333 0.02 0 0.0102667 0.02 0 0.0112 0.02 0 0.0121333 0.02 0 0.0130667 0.02 0 0.014 0.02 0 0 0.0203333 0 0.000977778 0.0203333 0 0.00195556 0.0203333 0 0.00293333 0.0203333 0 0.00391111 0.0203333 0 0.00488889 0.0203333 0 0.00586667 0.0203333 0 0.00684444 0.0203333 0 0.00782222 0.0203333 0 0.0088 0.0203333 0 0.00977778 0.0203333 0 0.0107556 0.0203333 0 0.0117333 0.0203333 0 0.0127111 0.0203333 0 0.0136889 0.0203333 0 0.0146667 0.0203333 0 0 0.0206667 0 0.00102222 0.0206667 0 0.00204444 0.0206667 0 0.00306667 0.0206667 0 0.00408889 0.0206667 0 0.00511111 0.0206667 0 0.00613333 0.0206667 0 0.00715556 0.0206667 0 0.00817778 0.0206667 0 0.0092 0.0206667 0 0.0102222 0.0206667 0 0.0112444 0.0206667 0 0.0122667 0.0206667 0 0.0132889 0.0206667 0 0.0143111 0.0206667 0 0.0153333 0.0206667 0 0 0.021 0 0.00106667 0.021 0 0.00213333 0.021 0 0.0032 0.021 0 0.00426667 0.021 0 0.00533333 0.021 0 0.0064 0.021 0 0.00746667 0.021 0 0.00853333 0.021 0 0.0096 0.021 0 0.0106667 0.021 0 0.0117333 0.021 0 0.0128 0.021 0 0.0138667 0.021 0 0.0149333 0.021 0 0.016 0.021 0 
</DataArray>
</Points> 
</Piece> 
</StructuredGrid> 
</VTKFile> 
