<?xml version="1.0"?> 
<VTKFile type="StructuredGrid" version="0.1"> 
<StructuredGrid WholeExtent="0 15 0 15 0 0"> 
<Piece Extent="0 15 0 15 0 0"> 
<PointData>
<DataArray type="Float32" Name="|E|" format="ascii" NumberOfComponents="3"> 
-1.66808e+06 0 0 -1.66976e+06 63230 0 -1.6746e+06 126687 0 -1.68259e+06 190604 0 -1.69369e+06 255218 0 -1.70786e+06 320771 0 -1.72502e+06 387511 0 -1.74508e+06 455692 0 -1.76792e+06 525573 0 -1.79334e+06 597420 0 -1.82111e+06 671493 0 -1.8509e+06 748041 0 -1.88227e+06 827281 0 -1.91464e+06 909361 0 -1.94721e+06 994298 0 -1.97895e+06 1.08192e+06 0 -1.64533e+06 0 0 -1.64692e+06 63593.5 0 -1.65153e+06 127402 0 -1.65913e+06 191646 0 -1.66969e+06 256549 0 -1.68316e+06 322339 0 -1.69948e+06 389245 0 -1.71856e+06 457502 0 -1.74026e+06 527347 0 -1.76443e+06 599016 0 -1.79083e+06 672738 0 -1.81917e+06 748723 0 -1.84905e+06 827142 0 -1.87996e+06 908098 0 -1.91123e+06 991562 0 -1.94197e+06 1.07732e+06 0 -1.62217e+06 0 0 -1.62369e+06 63902.9 0 -1.62808e+06 128009 0 -1.6353e+06 192527 0 -1.64534e+06 257668 0 -1.65816e+06 323643 0 -1.67367e+06 390668 0 -1.6918e+06 458959 0 -1.71243e+06 528731 0 -1.7354e+06 600196 0 -1.76051e+06 673553 0 -1.78748e+06 748982 0 -1.81598e+06 826618 0 -1.84554e+06 906526 0 -1.87559e+06 988649 0 -1.9054e+06 1.07275e+06 0 -1.59864e+06 0 0 -1.60008e+06 64159.8 0 -1.60425e+06 128512 0 -1.61112e+06 193252 0 -1.62066e+06 258580 0 -1.63284e+06 324693 0 -1.64759e+06 391792 0 -1.66482e+06 460076 0 -1.68443e+06 529741 0 -1.70627e+06 600977 0 -1.73015e+06 673959 0 -1.75584e+06 748839 0 -1.78303e+06 825725 0 -1.81131e+06 904654 0 -1.84023e+06 985552 0 -1.86915e+06 1.06818e+06 0 -1.57472e+06 0 0 -1.5761e+06 64365.5 0 -1.58005e+06 128912 0 -1.58658e+06 193826 0 -1.59566e+06 259292 0 -1.60723e+06 325497 0 -1.62124e+06 392627 0 -1.63761e+06 460865 0 -1.65625e+06 530391 0 -1.67702e+06 601375 0 -1.69974e+06 673971 0 -1.72422e+06 748309 0 -1.75017e+06 824475 0 -1.77726e+06 902488 0 -1.80509e+06 982263 0 -1.83315e+06 1.06357e+06 0 -1.55044e+06 0 0 -1.55175e+06 64521.8 0 -1.55551e+06 129214 0 -1.56171e+06 194252 0 -1.57033e+06 259811 0 -1.58132e+06 326063 0 -1.59463e+06 393183 0 -1.61019e+06 461338 0 -1.6279e+06 530694 0 -1.64765e+06 601404 0 -1.66928e+06 673605 0 -1.6926e+06 747407 0 -1.71738e+06 822880 0 -1.74334e+06 900031 0 -1.77013e+06 978771 0 -1.79734e+06 1.05889e+06 0 -1.52581e+06 0 0 -1.52705e+06 64629.9 0 -1.53062e+06 129421 0 -1.53651e+06 194537 0 -1.54469e+06 260142 0 -1.55512e+06 326399 0 -1.56777e+06 393468 0 -1.58255e+06 461506 0 -1.59938e+06 530663 0 -1.61816e+06 601079 0 -1.63874e+06 672874 0 -1.66097e+06 746145 0 -1.68465e+06 820949 0 -1.70952e+06 897284 0 -1.73531e+06 975065 0 -1.76168e+06 1.05409e+06 0 -1.50083e+06 0 0 -1.502e+06 64691.4 0 -1.50539e+06 129534 0 -1.51098e+06 194683 0 -1.51875e+06 260291 0 -1.52865e+06 326511 0 -1.54066e+06 393492 0 -1.55469e+06 461379 0 -1.57069e+06 530309 0 -1.58854e+06 600410 0 -1.60814e+06 671789 0 -1.62933e+06 744533 0 -1.65194e+06 818687 0 -1.67577e+06 894247 0 -1.70059e+06 971133 0 -1.72612e+06 1.04917e+06 0 -1.47551e+06 0 0 -1.47662e+06 64707.8 0 -1.47984e+06 129558 0 -1.48514e+06 194695 0 -1.49251e+06 260264 0 -1.50191e+06 326407 0 -1.5133e+06 393263 0 -1.52663e+06 460966 0 -1.54182e+06 529643 0 -1.5588e+06 599409 0 -1.57745e+06 670363 0 -1.59765e+06 742580 0 -1.61925e+06 816100 0 -1.64208e+06 890919 0 -1.66595e+06 966963 0 -1.69065e+06 1.04408e+06 0 -1.44986e+06 0 0 -1.45091e+06 64680.3 0 -1.45396e+06 129494 0 -1.45899e+06 194578 0 -1.46598e+06 260068 0 -1.4749e+06 326095 0 -1.48571e+06 392790 0 -1.49836e+06 460278 0 -1.51279e+06 528675 0 -1.52893e+06 598087 0 -1.54667e+06 668604 0 -1.56592e+06 740294 0 -1.58655e+06 813193 0 -1.60841e+06 887298 0 -1.63136e+06 962543 0 -1.65523e+06 1.03879e+06 0 -1.42389e+06 0 0 -1.42489e+06 64610.3 0 -1.42778e+06 129346 0 -1.43255e+06 194336 0 -1.43917e+06 259706 0 -1.44763e+06 325580 0 -1.45788e+06 392081 0 -1.46989e+06 459322 0 -1.48359e+06 527414 0 -1.49892e+06 596452 0 -1.51581e+06 666521 0 -1.53415e+06 737682 0 -1.55384e+06 809969 0 -1.57477e+06 883381 0 -1.59681e+06 957863 0 -1.61984e+06 1.0333e+06 0 -1.39761e+06 0 0 -1.39856e+06 64499.2 0 -1.40129e+06 129116 0 -1.40581e+06 193972 0 -1.41209e+06 259184 0 -1.4201e+06 324869 0 -1.42983e+06 391142 0 -1.44122e+06 458108 0 -1.45422e+06 525869 0 -1.46879e+06 594515 0 -1.48484e+06 664123 0 -1.50231e+06 734750 0 -1.5211e+06 806431 0 -1.54113e+06 879165 0 -1.56228e+06 952911 0 -1.58446e+06 1.02757e+06 0 -1.37102e+06 0 0 -1.37192e+06 64348.1 0 -1.37451e+06 128807 0 -1.37879e+06 193490 0 -1.38474e+06 258507 0 -1.39233e+06 323969 0 -1.40155e+06 389980 0 -1.41235e+06 456642 0 -1.42469e+06 524047 0 -1.43852e+06 592282 0 -1.45378e+06 661416 0 -1.47041e+06 731505 0 -1.48833e+06 802581 0 -1.50747e+06 874650 0 -1.52775e+06 947678 0 -1.5491e+06 1.02159e+06 0 -1.34415e+06 0 0 -1.345e+06 64158.4 0 -1.34745e+06 128421 0 -1.3515e+06 192893 0 -1.35713e+06 257680 0 -1.36432e+06 322884 0 -1.37305e+06 388603 0 -1.38328e+06 454932 0 -1.39499e+06 521958 0 -1.40811e+06 589761 0 -1.42262e+06 658407 0 -1.43844e+06 727950 0 -1.45552e+06 798422 0 -1.4738e+06 869831 0 -1.49322e+06 942156 0 -1.51372e+06 1.01534e+06 0 -1.31698e+06 0 0 -1.31778e+06 63931.2 0 -1.32011e+06 127960 0 -1.32393e+06 192186 0 -1.32926e+06 256708 0 -1.33607e+06 321620 0 -1.34433e+06 387016 0 -1.35403e+06 452985 0 -1.36512e+06 519608 0 -1.37757e+06 586959 0 -1.39135e+06 655103 0 -1.40639e+06 724090 0 -1.42266e+06 793955 0 -1.4401e+06 864708 0 -1.45868e+06 936339 0 -1.47834e+06 1.0088e+06 0 -1.28954e+06 0 0 -1.2903e+06 63667.7 0 -1.29249e+06 127427 0 -1.29611e+06 191372 0 -1.30115e+06 255594 0 -1.30759e+06 320183 0 -1.3154e+06 385227 0 -1.32458e+06 450808 0 -1.33509e+06 517003 0 -1.3469e+06 583884 0 -1.35997e+06 651510 0 -1.37427e+06 719931 0 -1.38975e+06 789182 0 -1.40637e+06 859279 0 -1.42411e+06 930219 0 -1.44295e+06 1.00196e+06 0 </DataArray> 
</PointData> 
<Points> 
<DataArray type="Float32" NumberOfComponents="3"> 
0 0.045 0 0.00333333 0.045 0 0.00666667 0.045 0 0.01 0.045 0 0.0133333 0.045 0 0.0166667 0.045 0 0.02 0.045 0 0.0233333 0.045 0 0.0266667 0.045 0 0.03 0.045 0 0.0333333 0.045 0 0.0366667 0.045 0 0.04 0.045 0 0.0433333 0.045 0 0.0466667 0.045 0 0.05 0.045 0 0 0.0461905 0 0.00329422 0.0461905 0 0.00658844 0.0461905 0 0.00988267 0.0461905 0 0.0131769 0.0461905 0 0.0164711 0.0461905 0 0.0197653 0.0461905 0 0.0230596 0.0461905 0 0.0263538 0.0461905 0 0.029648 0.0461905 0 0.0329422 0.0461905 0 0.0362364 0.0461905 0 0.0395307 0.0461905 0 0.0428249 0.0461905 0 0.0461191 0.0461905 0 0.0494133 0.0461905 0 0 0.047381 0 0.00325511 0.047381 0 0.00651022 0.047381 0 0.00976533 0.047381 0 0.0130204 0.047381 0 0.0162756 0.047381 0 0.0195307 0.047381 0 0.0227858 0.047381 0 0.0260409 0.047381 0 0.029296 0.047381 0 0.0325511 0.047381 0 0.0358062 0.047381 0 0.0390613 0.047381 0 0.0423164 0.047381 0 0.0455716 0.047381 0 0.0488267 0.047381 0 0 0.0485714 0 0.003216 0.0485714 0 0.006432 0.0485714 0 0.009648 0.0485714 0 0.012864 0.0485714 0 0.01608 0.0485714 0 0.019296 0.0485714 0 0.022512 0.0485714 0 0.025728 0.0485714 0 0.028944 0.0485714 0 0.03216 0.0485714 0 0.035376 0.0485714 0 0.038592 0.0485714 0 0.041808 0.0485714 0 0.045024 0.0485714 0 0.04824 0.0485714 0 0 0.0497619 0 0.00317689 0.0497619 0 0.00635378 0.0497619 0 0.00953067 0.0497619 0 0.0127076 0.0497619 0 0.0158844 0.0497619 0 0.0190613 0.0497619 0 0.0222382 0.0497619 0 0.0254151 0.0497619 0 0.028592 0.0497619 0 0.0317689 0.0497619 0 0.0349458 0.0497619 0 0.0381227 0.0497619 0 0.0412996 0.0497619 0 0.0444764 0.0497619 0 0.0476533 0.0497619 0 0 0.0509524 0 0.00313778 0.0509524 0 0.00627556 0.0509524 0 0.00941333 0.0509524 0 0.0125511 0.0509524 0 0.0156889 0.0509524 0 0.0188267 0.0509524 0 0.0219644 0.0509524 0 0.0251022 0.0509524 0 0.02824 0.0509524 0 0.0313778 0.0509524 0 0.0345156 0.0509524 0 0.0376533 0.0509524 0 0.0407911 0.0509524 0 0.0439289 0.0509524 0 0.0470667 0.0509524 0 0 0.0521429 0 0.00309867 0.0521429 0 0.00619733 0.0521429 0 0.009296 0.0521429 0 0.0123947 0.0521429 0 0.0154933 0.0521429 0 0.018592 0.0521429 0 0.0216907 0.0521429 0 0.0247893 0.0521429 0 0.027888 0.0521429 0 0.0309867 0.0521429 0 0.0340853 0.0521429 0 0.037184 0.0521429 0 0.0402827 0.0521429 0 0.0433813 0.0521429 0 0.04648 0.0521429 0 0 0.0533333 0 0.00305956 0.0533333 0 0.00611911 0.0533333 0 0.00917867 0.0533333 0 0.0122382 0.0533333 0 0.0152978 0.0533333 0 0.0183573 0.0533333 0 0.0214169 0.0533333 0 0.0244764 0.0533333 0 0.027536 0.0533333 0 0.0305956 0.0533333 0 0.0336551 0.0533333 0 0.0367147 0.0533333 0 0.0397742 0.0533333 0 0.0428338 0.0533333 0 0.0458933 0.0533333 0 0 0.0545238 0 0.00302044 0.0545238 0 0.00604089 0.0545238 0 0.00906133 0.0545238 0 0.0120818 0.0545238 0 0.0151022 0.0545238 0 0.0181227 0.0545238 0 0.0211431 0.0545238 0 0.0241636 0.0545238 0 0.027184 0.0545238 0 0.0302044 0.0545238 0 0.0332249 0.0545238 0 0.0362453 0.0545238 0 0.0392658 0.0545238 0 0.0422862 0.0545238 0 0.0453067 0.0545238 0 0 0.0557143 0 0.00298133 0.0557143 0 0.00596267 0.0557143 0 0.008944 0.0557143 0 0.0119253 0.0557143 0 0.0149067 0.0557143 0 0.017888 0.0557143 0 0.0208693 0.0557143 0 0.0238507 0.0557143 0 0.026832 0.0557143 0 0.0298133 0.0557143 0 0.0327947 0.0557143 0 0.035776 0.0557143 0 0.0387573 0.0557143 0 0.0417387 0.0557143 0 0.04472 0.0557143 0 0 0.0569048 0 0.00294222 0.0569048 0 0.00588444 0.0569048 0 0.00882667 0.0569048 0 0.0117689 0.0569048 0 0.0147111 0.0569048 0 0.0176533 0.0569048 0 0.0205956 0.0569048 0 0.0235378 0.0569048 0 0.02648 0.0569048 0 0.0294222 0.0569048 0 0.0323644 0.0569048 0 0.0353067 0.0569048 0 0.0382489 0.0569048 0 0.0411911 0.0569048 0 0.0441333 0.0569048 0 0 0.0580952 0 0.00290311 0.0580952 0 0.00580622 0.0580952 0 0.00870933 0.0580952 0 0.0116124 0.0580952 0 0.0145156 0.0580952 0 0.0174187 0.0580952 0 0.0203218 0.0580952 0 0.0232249 0.0580952 0 0.026128 0.0580952 0 0.0290311 0.0580952 0 0.0319342 0.0580952 0 0.0348373 0.0580952 0 0.0377404 0.0580952 0 0.0406436 0.0580952 0 0.0435467 0.0580952 0 0 0.0592857 0 0.002864 0.0592857 0 0.005728 0.0592857 0 0.008592 0.0592857 0 0.011456 0.0592857 0 0.01432 0.0592857 0 0.017184 0.0592857 0 0.020048 0.0592857 0 0.022912 0.0592857 0 0.025776 0.0592857 0 0.02864 0.0592857 0 0.031504 0.0592857 0 0.034368 0.0592857 0 0.037232 0.0592857 0 0.040096 0.0592857 0 0.04296 0.0592857 0 0 0.0604762 0 0.00282489 0.0604762 0 0.00564978 0.0604762 0 0.00847467 0.0604762 0 0.0112996 0.0604762 0 0.0141244 0.0604762 0 0.0169493 0.0604762 0 0.0197742 0.0604762 0 0.0225991 0.0604762 0 0.025424 0.0604762 0 0.0282489 0.0604762 0 0.0310738 0.0604762 0 0.0338987 0.0604762 0 0.0367236 0.0604762 0 0.0395484 0.0604762 0 0.0423733 0.0604762 0 0 0.0616667 0 0.00278578 0.0616667 0 0.00557156 0.0616667 0 0.00835733 0.0616667 0 0.0111431 0.0616667 0 0.0139289 0.0616667 0 0.0167147 0.0616667 0 0.0195004 0.0616667 0 0.0222862 0.0616667 0 0.025072 0.0616667 0 0.0278578 0.0616667 0 0.0306436 0.0616667 0 0.0334293 0.0616667 0 0.0362151 0.0616667 0 0.0390009 0.0616667 0 0.0417867 0.0616667 0 0 0.0628571 0 0.00274667 0.0628571 0 0.00549333 0.0628571 0 0.00824 0.0628571 0 0.0109867 0.0628571 0 0.0137333 0.0628571 0 0.01648 0.0628571 0 0.0192267 0.0628571 0 0.0219733 0.0628571 0 0.02472 0.0628571 0 0.0274667 0.0628571 0 0.0302133 0.0628571 0 0.03296 0.0628571 0 0.0357067 0.0628571 0 0.0384533 0.0628571 0 0.0412 0.0628571 0 
</DataArray>
</Points> 
</Piece> 
</StructuredGrid> 
</VTKFile> 
