<?xml version="1.0"?> 
<VTKFile type="StructuredGrid" version="0.1"> 
<StructuredGrid WholeExtent="0 15 0 15 0 0"> 
<Piece Extent="0 15 0 15 0 0"> 
<PointData>
<DataArray type="Float32" Name="|E|" format="ascii" NumberOfComponents="3"> 
299848 4.54783e+06 0 301646 4.57509e+06 0 303583 4.60447e+06 0 305677 4.63623e+06 0 307949 4.6707e+06 0 310427 4.70827e+06 0 313142 4.74945e+06 0 316137 4.79488e+06 0 319467 4.84538e+06 0 323203 4.90204e+06 0 327441 4.96633e+06 0 332313 5.04022e+06 0 338000 5.12648e+06 0 344758 5.22897e+06 0 352945 5.35315e+06 0 363078 5.50683e+06 0 443271 4.4276e+06 0 457729 4.45053e+06 0 473742 4.47505e+06 0 491558 4.50128e+06 0 511468 4.52932e+06 0 533826 4.55926e+06 0 559056 4.59116e+06 0 587674 4.62507e+06 0 620296 4.66092e+06 0 657663 4.69853e+06 0 700648 4.73753e+06 0 750255 4.7772e+06 0 807605 4.81634e+06 0 873861 4.85296e+06 0 950109 4.88394e+06 0 1.03707e+06 4.90442e+06 0 507409 4.29695e+06 0 528580 4.31179e+06 0 551789 4.32732e+06 0 577276 4.34344e+06 0 605303 4.36006e+06 0 636153 4.377e+06 0 670125 4.39405e+06 0 707528 4.4109e+06 0 748660 4.42715e+06 0 793784 4.44231e+06 0 843099 4.45575e+06 0 896685 4.46677e+06 0 954462 4.47461e+06 0 1.01615e+06 4.4786e+06 0 1.08125e+06 4.47836e+06 0 1.14917e+06 4.47427e+06 0 520480 4.18296e+06 0 544365 4.19019e+06 0 570267 4.19743e+06 0 598359 4.20453e+06 0 628809 4.21131e+06 0 661781 4.21754e+06 0 697422 4.22293e+06 0 735854 4.22718e+06 0 777159 4.2299e+06 0 821365 4.23069e+06 0 868434 4.22909e+06 0 918246 4.22464e+06 0 970601 4.21689e+06 0 1.02521e+06 4.20535e+06 0 1.08168e+06 4.18948e+06 0 1.13942e+06 4.16857e+06 0 503907 4.08876e+06 0 528427 4.08946e+06 0 554792 4.08972e+06 0 583114 4.08938e+06 0 613488 4.08822e+06 0 645995 4.08601e+06 0 680685 4.08249e+06 0 717579 4.07733e+06 0 756649 4.07024e+06 0 797818 4.06084e+06 0 840945 4.0488e+06 0 885822 4.03376e+06 0 932166 4.01537e+06 0 979623 3.99335e+06 0 1.02778e+06 3.96747e+06 0 1.07625e+06 3.93772e+06 0 470233 4.01285e+06 0 494310 4.00806e+06 0 520019 4.00254e+06 0 547428 3.99611e+06 0 576582 3.98855e+06 0 607506 3.97966e+06 0 640193 3.96917e+06 0 674602 3.95683e+06 0 710646 3.94236e+06 0 748195 3.92549e+06 0 787065 3.90594e+06 0 827021 3.88346e+06 0 867780 3.85785e+06 0 909014 3.82892e+06 0 950363 3.79655e+06 0 991375 3.76064e+06 0 426785 3.95236e+06 0 449816 3.94297e+06 0 474268 3.93262e+06 0 500175 3.92115e+06 0 527550 3.90836e+06 0 556384 3.89404e+06 0 586633 3.87797e+06 0 618221 3.85992e+06 0 651034 3.83966e+06 0 684916 3.81698e+06 0 719668 3.79167e+06 0 755051 3.76354e+06 0 790788 3.73245e+06 0 826568 3.69828e+06 0 862059 3.66099e+06 0 896930 3.62059e+06 0 377984 3.90468e+06 0 399593 3.89142e+06 0 422421 3.87702e+06 0 446483 3.86133e+06 0 471771 3.84416e+06 0 498253 3.82534e+06 0 525865 3.80465e+06 0 554515 3.78191e+06 0 584073 3.75694e+06 0 614374 3.72954e+06 0 645218 3.69957e+06 0 676372 3.66689e+06 0 707577 3.63141e+06 0 738550 3.59308e+06 0 769001 3.5519e+06 0 798607 3.5079e+06 0 326624 3.86768e+06 0 346532 3.85115e+06 0 367471 3.83334e+06 0 389444 3.81407e+06 0 412431 3.7932e+06 0 436389 3.77056e+06 0 461245 3.74596e+06 0 486897 3.71925e+06 0 513213 3.69028e+06 0 540027 3.65889e+06 0 567146 3.62498e+06 0 594352 3.58845e+06 0 621403 3.54925e+06 0 648043 3.50736e+06 0 674010 3.46282e+06 0 699040 3.4157e+06 0 274561 3.83971e+06 0 292516 3.82045e+06 0 311328 3.79974e+06 0 330995 3.77744e+06 0 351492 3.75339e+06 0 372770 3.72745e+06 0 394755 3.69947e+06 0 417344 3.66931e+06 0 440406 3.63684e+06 0 463786 3.60195e+06 0 487300 3.56456e+06 0 510747 3.52461e+06 0 533907 3.48208e+06 0 556551 3.43698e+06 0 578451 3.38938e+06 0 599371 3.33938e+06 0 223082 3.81955e+06 0 238826 3.79802e+06 0 255266 3.77487e+06 0 272399 3.74997e+06 0 290201 3.72317e+06 0 308624 3.69435e+06 0 327595 3.66338e+06 0 347018 3.63014e+06 0 366769 3.59453e+06 0 386705 3.55647e+06 0 406659 3.51589e+06 0 426448 3.47277e+06 0 445877 3.42713e+06 0 464743 3.37899e+06 0 482849 3.32844e+06 0 499993 3.2756e+06 0 173118 3.80628e+06 0 186368 3.78292e+06 0 200166 3.75774e+06 0 214512 3.73061e+06 0 229382 3.70142e+06 0 244735 3.67005e+06 0 260506 3.6364e+06 0 276607 3.60036e+06 0 292929 3.56185e+06 0 309344 3.52082e+06 0 325705 3.47723e+06 0 341851 3.43107e+06 0 357613 3.38239e+06 0 372819 3.33123e+06 0 387300 3.27771e+06 0 400888 3.22197e+06 0 125360 3.79929e+06 0 135807 3.77447e+06 0 146663 3.74761e+06 0 157930 3.7186e+06 0 169593 3.68733e+06 0 181617 3.65369e+06 0 193948 3.6176e+06 0 206513 3.57897e+06 0 219222 3.53773e+06 0 231965 3.49385e+06 0 244620 3.44732e+06 0 257054 3.39815e+06 0 269128 3.34639e+06 0 280701 3.29214e+06 0 291635 3.23552e+06 0 301798 3.17669e+06 0 80336.8 3.79809e+06 0 87645.9 3.77218e+06 0 95230.6 3.74398e+06 0 103097 3.7134e+06 0 111235 3.68032e+06 0 119621 3.64466e+06 0 128217 3.60633e+06 0 136967 3.56526e+06 0 145805 3.52141e+06 0 154647 3.47474e+06 0 163402 3.42526e+06 0 171971 3.37301e+06 0 180249 3.31807e+06 0 188132 3.26055e+06 0 195519 3.2006e+06 0 202315 3.13839e+06 0 38448.8 3.80235e+06 0 42273.5 3.77569e+06 0 46240 3.74648e+06 0 50354.8 3.71462e+06 0 54614.6 3.68001e+06 0 59007.7 3.64255e+06 0 63513.1 3.60217e+06 0 68100.6 3.55879e+06 0 72731.3 3.51239e+06 0 77358.9 3.46293e+06 0 81930.4 3.41045e+06 0 86388.9 3.355e+06 0 90674.8 3.29667e+06 0 94729.2 3.23561e+06 0 98495.6 3.17199e+06 0 101922 3.10602e+06 0 0 3.81181e+06 0 0 3.78473e+06 0 0 3.75482e+06 0 0 3.72198e+06 0 0 3.68611e+06 0 0 3.6471e+06 0 0 3.60486e+06 0 0 3.5593e+06 0 0 3.5104e+06 0 0 3.45813e+06 0 0 3.40252e+06 0 0 3.34366e+06 0 0 3.28165e+06 0 0 3.21667e+06 0 0 3.14894e+06 0 0 3.0787e+06 0 </DataArray> 
</PointData> 
<Points> 
<DataArray type="Float32" NumberOfComponents="3"> 
0.1815 0.0604836 0 0.181933 0.0604551 0 0.182367 0.0604265 0 0.1828 0.0603979 0 0.183233 0.0603694 0 0.183667 0.0603408 0 0.1841 0.0603122 0 0.184533 0.0602836 0 0.184967 0.0602551 0 0.1854 0.0602265 0 0.185833 0.0601979 0 0.186267 0.0601694 0 0.1867 0.0601408 0 0.187133 0.0601122 0 0.187567 0.0600837 0 0.188 0.0600551 0 0.180369 0.0639181 0 0.180934 0.0638914 0 0.181499 0.0638647 0 0.182063 0.0638381 0 0.182628 0.0638114 0 0.183193 0.0637847 0 0.183758 0.0637581 0 0.184322 0.0637314 0 0.184887 0.0637047 0 0.185452 0.0636781 0 0.186017 0.0636514 0 0.186581 0.0636247 0 0.187146 0.0635981 0 0.187711 0.0635714 0 0.188276 0.0635447 0 0.18884 0.0635181 0 0.179238 0.0673525 0 0.179934 0.0673277 0 0.18063 0.067303 0 0.181327 0.0672782 0 0.182023 0.0672534 0 0.182719 0.0672287 0 0.183415 0.0672039 0 0.184111 0.0671792 0 0.184808 0.0671544 0 0.185504 0.0671296 0 0.1862 0.0671049 0 0.186896 0.0670801 0 0.187592 0.0670554 0 0.188289 0.0670306 0 0.188985 0.0670058 0 0.189681 0.0669811 0 0.178107 0.0707869 0 0.178935 0.0707641 0 0.179762 0.0707412 0 0.18059 0.0707183 0 0.181418 0.0706955 0 0.182245 0.0706726 0 0.183073 0.0706498 0 0.1839 0.0706269 0 0.184728 0.0706041 0 0.185556 0.0705812 0 0.186383 0.0705583 0 0.187211 0.0705355 0 0.188039 0.0705126 0 0.188866 0.0704898 0 0.189694 0.0704669 0 0.190521 0.0704441 0 0.176976 0.0742213 0 0.177935 0.0742004 0 0.178894 0.0741794 0 0.179853 0.0741585 0 0.180812 0.0741375 0 0.181771 0.0741166 0 0.18273 0.0740956 0 0.183689 0.0740747 0 0.184649 0.0740537 0 0.185608 0.0740328 0 0.186567 0.0740118 0 0.187526 0.0739909 0 0.188485 0.0739699 0 0.189444 0.073949 0 0.190403 0.073928 0 0.191362 0.0739071 0 0.175845 0.0776558 0 0.176936 0.0776367 0 0.178026 0.0776177 0 0.179117 0.0775986 0 0.180207 0.0775796 0 0.181298 0.0775605 0 0.182388 0.0775415 0 0.183478 0.0775224 0 0.184569 0.0775034 0 0.185659 0.0774843 0 0.18675 0.0774653 0 0.18784 0.0774462 0 0.188931 0.0774272 0 0.190021 0.0774082 0 0.191112 0.0773891 0 0.192202 0.0773701 0 0.174714 0.0810902 0 0.175936 0.081073 0 0.177158 0.0810559 0 0.17838 0.0810388 0 0.179602 0.0810216 0 0.180824 0.0810045 0 0.182046 0.0809873 0 0.183268 0.0809702 0 0.184489 0.080953 0 0.185711 0.0809359 0 0.186933 0.0809188 0 0.188155 0.0809016 0 0.189377 0.0808845 0 0.190599 0.0808673 0 0.191821 0.0808502 0 0.193043 0.0808331 0 0.173583 0.0845246 0 0.174937 0.0845094 0 0.17629 0.0844941 0 0.177643 0.0844789 0 0.178997 0.0844637 0 0.18035 0.0844484 0 0.181703 0.0844332 0 0.183057 0.0844179 0 0.18441 0.0844027 0 0.185763 0.0843875 0 0.187117 0.0843722 0 0.18847 0.084357 0 0.189823 0.0843418 0 0.191177 0.0843265 0 0.19253 0.0843113 0 0.193883 0.084296 0 0.172452 0.087959 0 0.173937 0.0879457 0 0.175422 0.0879324 0 0.176907 0.087919 0 0.178391 0.0879057 0 0.179876 0.0878924 0 0.181361 0.087879 0 0.182846 0.0878657 0 0.18433 0.0878524 0 0.185815 0.087839 0 0.1873 0.0878257 0 0.188785 0.0878124 0 0.190269 0.087799 0 0.191754 0.0877857 0 0.193239 0.0877724 0 0.194724 0.087759 0 0.171321 0.0913935 0 0.172938 0.091382 0 0.174554 0.0913706 0 0.17617 0.0913592 0 0.177786 0.0913477 0 0.179402 0.0913363 0 0.181018 0.0913249 0 0.182635 0.0913135 0 0.184251 0.091302 0 0.185867 0.0912906 0 0.187483 0.0912792 0 0.189099 0.0912677 0 0.190716 0.0912563 0 0.192332 0.0912449 0 0.193948 0.0912335 0 0.195564 0.091222 0 0.17019 0.0948279 0 0.171938 0.0948184 0 0.173686 0.0948088 0 0.175433 0.0947993 0 0.177181 0.0947898 0 0.178928 0.0947803 0 0.180676 0.0947707 0 0.182424 0.0947612 0 0.184171 0.0947517 0 0.185919 0.0947422 0 0.187666 0.0947326 0 0.189414 0.0947231 0 0.191162 0.0947136 0 0.192909 0.0947041 0 0.194657 0.0946946 0 0.196405 0.094685 0 0.169059 0.0982623 0 0.170938 0.0982547 0 0.172818 0.0982471 0 0.174697 0.0982394 0 0.176576 0.0982318 0 0.178455 0.0982242 0 0.180334 0.0982166 0 0.182213 0.098209 0 0.184092 0.0982014 0 0.185971 0.0981937 0 0.18785 0.0981861 0 0.189729 0.0981785 0 0.191608 0.0981709 0 0.193487 0.0981633 0 0.195366 0.0981556 0 0.197245 0.098148 0 0.167928 0.101697 0 0.169939 0.101691 0 0.171949 0.101685 0 0.17396 0.10168 0 0.17597 0.101674 0 0.177981 0.101668 0 0.179991 0.101662 0 0.182002 0.101657 0 0.184012 0.101651 0 0.186023 0.101645 0 0.188033 0.10164 0 0.190044 0.101634 0 0.192054 0.101628 0 0.194065 0.101622 0 0.196075 0.101617 0 0.198085 0.101611 0 0.166798 0.105131 0 0.168939 0.105127 0 0.171081 0.105124 0 0.173223 0.10512 0 0.175365 0.105116 0 0.177507 0.105112 0 0.179649 0.105108 0 0.181791 0.105104 0 0.183933 0.105101 0 0.186075 0.105097 0 0.188216 0.105093 0 0.190358 0.105089 0 0.1925 0.105085 0 0.194642 0.105082 0 0.196784 0.105078 0 0.198926 0.105074 0 0.165667 0.108566 0 0.16794 0.108564 0 0.170213 0.108562 0 0.172487 0.10856 0 0.17476 0.108558 0 0.177033 0.108556 0 0.179306 0.108554 0 0.18158 0.108552 0 0.183853 0.10855 0 0.186126 0.108548 0 0.1884 0.108547 0 0.190673 0.108545 0 0.192946 0.108543 0 0.19522 0.108541 0 0.197493 0.108539 0 0.199766 0.108537 0 0.164536 0.112 0 0.16694 0.112 0 0.169345 0.112 0 0.17175 0.112 0 0.174155 0.112 0 0.176559 0.112 0 0.178964 0.112 0 0.181369 0.112 0 0.183774 0.112 0 0.186178 0.112 0 0.188583 0.112 0 0.190988 0.112 0 0.193393 0.112 0 0.195797 0.112 0 0.198202 0.112 0 0.200607 0.112 0 
</DataArray>
</Points> 
</Piece> 
</StructuredGrid> 
</VTKFile> 
