<?xml version="1.0"?> 
<VTKFile type="StructuredGrid" version="0.1"> 
<StructuredGrid WholeExtent="0 127 0 127 0 0"> 
<Piece Extent="0 127 0 127 0 0"> 
<PointData>
<DataArray type="Float32" Name="E" format="ascii" NumberOfComponents="3"> 
1.33514e-05 1.0566e+07 0 -3.97705e+06 891345 0 -3.13966e+06 1.28322e+06 0 -3.35036e+06 346858 0 -3.24053e+06 234546 0 -3.2954e+06 -41189.1 0 -3.31948e+06 -163385 0 -3.37312e+06 -277185 0 -3.42795e+06 -346156 0 -3.48944e+06 -392304 0 -3.55247e+06 -414438 0 -3.61644e+06 -417733 0 -3.67982e+06 -404337 0 -3.74173e+06 -376756 0 -3.80138e+06 -336975 0 -3.85818e+06 -286801 0 -3.91163e+06 -227830 0 -3.96137e+06 -161489 0 -4.00712e+06 -89050.7 0 -4.04869e+06 -11653.9 0 -4.08595e+06 69686.4 0 -4.11886e+06 154066 0 -4.1474e+06 240682 0 -4.17162e+06 328823 0 -4.19161e+06 417862 0 -4.20748e+06 507247 0 -4.21937e+06 596495 0 -4.22746e+06 685187 0 -4.23191e+06 772959 0 -4.23291e+06 859501 0 -4.23067e+06 944548 0 -4.22537e+06 1.02788e+06 0 -4.21722e+06 1.1093e+06 0 -4.20642e+06 1.18868e+06 0 -4.19315e+06 1.26587e+06 0 -4.17762e+06 1.3408e+06 0 -4.15999e+06 1.41339e+06 0 -4.14046e+06 1.48359e+06 0 -4.11918e+06 1.55137e+06 0 -4.09632e+06 1.61671e+06 0 -4.07202e+06 1.67962e+06 0 -4.04645e+06 1.7401e+06 0 -4.01971e+06 1.79817e+06 0 -3.99196e+06 1.85387e+06 0 -3.96329e+06 1.90722e+06 0 -3.93384e+06 1.95828e+06 0 -3.90368e+06 2.00708e+06 0 -3.87293e+06 2.05369e+06 0 -3.84168e+06 2.09815e+06 0 -3.80999e+06 2.14053e+06 0 -3.77795e+06 2.18088e+06 0 -3.74563e+06 2.21926e+06 0 -3.71308e+06 2.25573e+06 0 -3.68038e+06 2.29036e+06 0 -3.64756e+06 2.3232e+06 0 -3.61469e+06 2.35432e+06 0 -3.5818e+06 2.38377e+06 0 -3.54893e+06 2.41162e+06 0 -3.51613e+06 2.43793e+06 0 -3.48341e+06 2.46274e+06 0 -3.45082e+06 2.48612e+06 0 -3.41838e+06 2.50812e+06 0 -3.38611e+06 2.5288e+06 0 -3.35403e+06 2.5482e+06 0 -3.32217e+06 2.56638e+06 0 -3.29053e+06 2.58339e+06 0 -3.25914e+06 2.59926e+06 0 -3.22801e+06 2.61406e+06 0 -3.19715e+06 2.62781e+06 0 -3.16656e+06 2.64057e+06 0 -3.13626e+06 2.65237e+06 0 -3.10626e+06 2.66325e+06 0 -3.07656e+06 2.67326e+06 0 -3.04716e+06 2.68243e+06 0 -3.01807e+06 2.69078e+06 0 -2.98929e+06 2.69837e+06 0 -2.96082e+06 2.70521e+06 0 -2.93267e+06 2.71135e+06 0 -2.90484e+06 2.7168e+06 0 -2.87733e+06 2.72161e+06 0 -2.85013e+06 2.72579e+06 0 -2.82325e+06 2.72937e+06 0 -2.79669e+06 2.73238e+06 0 -2.77044e+06 2.73485e+06 0 -2.7445e+06 2.73679e+06 0 -2.71887e+06 2.73823e+06 0 -2.69355e+06 2.73919e+06 0 -2.66854e+06 2.73969e+06 0 -2.64383e+06 2.73975e+06 0 -2.61941e+06 2.73939e+06 0 -2.5953e+06 2.73863e+06 0 -2.57148e+06 2.73748e+06 0 -2.54794e+06 2.73596e+06 0 -2.5247e+06 2.73409e+06 0 -2.50174e+06 2.73189e+06 0 -2.47905e+06 2.72936e+06 0 -2.45665e+06 2.72652e+06 0 -2.43451e+06 2.72339e+06 0 -2.41264e+06 2.71997e+06 0 -2.39104e+06 2.71629e+06 0 -2.3697e+06 2.71235e+06 0 -2.34861e+06 2.70816e+06 0 -2.32778e+06 2.70373e+06 0 -2.3072e+06 2.69908e+06 0 -2.28686e+06 2.69422e+06 0 -2.26676e+06 2.68915e+06 0 -2.24691e+06 2.68388e+06 0 -2.22728e+06 2.67843e+06 0 -2.20789e+06 2.6728e+06 0 -2.18873e+06 2.667e+06 0 -2.16978e+06 2.66103e+06 0 -2.15106e+06 2.65491e+06 0 -2.13256e+06 2.64864e+06 0 -2.11427e+06 2.64224e+06 0 -2.09618e+06 2.63569e+06 0 -2.07831e+06 2.62902e+06 0 -2.06064e+06 2.62223e+06 0 -2.04316e+06 2.61532e+06 0 -2.02589e+06 2.6083e+06 0 -2.0088e+06 2.60117e+06 0 -1.99191e+06 2.59395e+06 0 -1.9752e+06 2.58663e+06 0 -1.95868e+06 2.57922e+06 0 -1.94234e+06 2.57173e+06 0 -1.92618e+06 2.56415e+06 0 -1.91019e+06 2.5565e+06 0 -1.89437e+06 2.54878e+06 0 -1.87871e+06 2.54099e+06 0 -3.97861e-06 7.25827e+06 0 -3.4675e+06 2.3486e+06 0 -3.28454e+06 929422 0 -3.22733e+06 619651 0 -3.26403e+06 193220 0 -3.25757e+06 22854.3 0 -3.30892e+06 -155671 0 -3.35352e+06 -259106 0 -3.41297e+06 -340175 0 -3.47407e+06 -388931 0 -3.5385e+06 -415939 0 -3.60329e+06 -422598 0 -3.6677e+06 -412427 0 -3.73059e+06 -387593 0 -3.79127e+06 -350239 0 -3.84909e+06 -302175 0 -3.90359e+06 -245032 0 -3.95438e+06 -180259 0 -4.00119e+06 -109153 0 -4.04382e+06 -32871.5 0 -4.08213e+06 47550.4 0 -4.11608e+06 131191 0 -4.14565e+06 217232 0 -4.17088e+06 304947 0 -4.19185e+06 393693 0 -4.20867e+06 482906 0 -4.2215e+06 572091 0 -4.23047e+06 660817 0 -4.23578e+06 748710 0 -4.2376e+06 835450 0 -4.23613e+06 920763 0 -4.23157e+06 1.00442e+06 0 -4.22412e+06 1.08622e+06 0 -4.21397e+06 1.16602e+06 0 -4.20133e+06 1.24367e+06 0 -4.18637e+06 1.3191e+06 0 -4.16929e+06 1.3922e+06 0 -4.15026e+06 1.46295e+06 0 -4.12945e+06 1.53129e+06 0 -4.10702e+06 1.5972e+06 0 -4.08313e+06 1.66069e+06 0 -4.05793e+06 1.72176e+06 0 -4.03154e+06 1.78043e+06 0 -4.00409e+06 1.83673e+06 0 -3.97572e+06 1.89068e+06 0 -3.94652e+06 1.94233e+06 0 -3.9166e+06 1.99173e+06 0 -3.88606e+06 2.03892e+06 0 -3.855e+06 2.08396e+06 0 -3.82348e+06 2.12691e+06 0 -3.7916e+06 2.16782e+06 0 -3.75941e+06 2.20676e+06 0 -3.72699e+06 2.24378e+06 0 -3.69439e+06 2.27894e+06 0 -3.66167e+06 2.3123e+06 0 -3.62887e+06 2.34394e+06 0 -3.59605e+06 2.37389e+06 0 -3.56323e+06 2.40223e+06 0 -3.53047e+06 2.42902e+06 0 -3.49779e+06 2.4543e+06 0 -3.46523e+06 2.47813e+06 0 -3.43281e+06 2.50058e+06 0 -3.40055e+06 2.52169e+06 0 -3.36848e+06 2.54152e+06 0 -3.33661e+06 2.56011e+06 0 -3.30497e+06 2.57751e+06 0 -3.27357e+06 2.59378e+06 0 -3.24243e+06 2.60895e+06 0 -3.21154e+06 2.62308e+06 0 -3.18094e+06 2.6362e+06 0 -3.15061e+06 2.64835e+06 0 -3.12058e+06 2.65958e+06 0 -3.09084e+06 2.66992e+06 0 -3.06141e+06 2.67941e+06 0 -3.03229e+06 2.68808e+06 0 -3.00347e+06 2.69597e+06 0 -2.97497e+06 2.70311e+06 0 -2.94678e+06 2.70954e+06 0 -2.91891e+06 2.71528e+06 0 -2.89136e+06 2.72036e+06 0 -2.86412e+06 2.72481e+06 0 -2.8372e+06 2.72866e+06 0 -2.81059e+06 2.73193e+06 0 -2.7843e+06 2.73464e+06 0 -2.75832e+06 2.73683e+06 0 -2.73265e+06 2.73851e+06 0 -2.70729e+06 2.7397e+06 0 -2.68223e+06 2.74043e+06 0 -2.65748e+06 2.74071e+06 0 -2.63302e+06 2.74057e+06 0 -2.60887e+06 2.74002e+06 0 -2.58501e+06 2.73908e+06 0 -2.56144e+06 2.73777e+06 0 -2.53815e+06 2.7361e+06 0 -2.51515e+06 2.73409e+06 0 -2.49243e+06 2.73175e+06 0 -2.46999e+06 2.7291e+06 0 -2.44782e+06 2.72615e+06 0 -2.42592e+06 2.72292e+06 0 -2.40428e+06 2.71941e+06 0 -2.38291e+06 2.71564e+06 0 -2.3618e+06 2.71163e+06 0 -2.34093e+06 2.70737e+06 0 -2.32032e+06 2.70289e+06 0 -2.29996e+06 2.69819e+06 0 -2.27984e+06 2.69328e+06 0 -2.25996e+06 2.68817e+06 0 -2.24031e+06 2.68288e+06 0 -2.22089e+06 2.6774e+06 0 -2.20171e+06 2.67175e+06 0 -2.18275e+06 2.66594e+06 0 -2.16401e+06 2.65997e+06 0 -2.14548e+06 2.65385e+06 0 -2.12718e+06 2.64758e+06 0 -2.10908e+06 2.64119e+06 0 -2.09119e+06 2.63466e+06 0 -2.0735e+06 2.62801e+06 0 -2.05602e+06 2.62124e+06 0 -2.03873e+06 2.61436e+06 0 -2.02164e+06 2.60737e+06 0 -2.00474e+06 2.60028e+06 0 -1.98803e+06 2.5931e+06 0 -1.9715e+06 2.58583e+06 0 -1.95515e+06 2.57846e+06 0 -1.93899e+06 2.57102e+06 0 -1.923e+06 2.5635e+06 0 -1.90718e+06 2.55591e+06 0 -1.89153e+06 2.54825e+06 0 5.31971e-06 5.02362e+06 0 -2.96114e+06 3.08902e+06 0 -3.33217e+06 1.01127e+06 0 -3.1678e+06 669738 0 -3.24222e+06 268807 0 -3.24189e+06 36898.1 0 -3.28623e+06 -123978 0 -3.33813e+06 -248847 0 -3.39534e+06 -329679 0 -3.45891e+06 -385979 0 -3.52371e+06 -416256 0 -3.58973e+06 -426980 0 -3.65506e+06 -419929 0 -3.719e+06 -397982 0 -3.78071e+06 -363113 0 -3.83958e+06 -317232 0 -3.89514e+06 -261979 0 -3.947e+06 -198834 0 -3.99488e+06 -129115 0 -4.03858e+06 -54000.5 0 -4.07796e+06 25456.1 0 -4.11297e+06 108316 0 -4.14358e+06 193742 0 -4.16983e+06 280994 0 -4.1918e+06 369415 0 -4.2096e+06 458426 0 -4.22336e+06 547522 0 -4.23324e+06 636258 0 -4.23942e+06 724252 0 -4.24208e+06 811171 0 -4.2414e+06 896734 0 -4.2376e+06 980700 0 -4.23086e+06 1.06287e+06 0 -4.22139e+06 1.14308e+06 0 -4.20938e+06 1.22119e+06 0 -4.19502e+06 1.29709e+06 0 -4.17849e+06 1.37072e+06 0 -4.15998e+06 1.442e+06 0 -4.13966e+06 1.51089e+06 0 -4.11768e+06 1.57738e+06 0 -4.09421e+06 1.64146e+06 0 -4.06938e+06 1.70312e+06 0 -4.04334e+06 1.76238e+06 0 -4.01622e+06 1.81928e+06 0 -3.98814e+06 1.87383e+06 0 -3.95921e+06 1.92608e+06 0 -3.92954e+06 1.97607e+06 0 -3.89923e+06 2.02386e+06 0 -3.86836e+06 2.06948e+06 0 -3.83703e+06 2.11301e+06 0 -3.8053e+06 2.15449e+06 0 -3.77326e+06 2.19399e+06 0 -3.74096e+06 2.23155e+06 0 -3.70848e+06 2.26726e+06 0 -3.67585e+06 2.30115e+06 0 -3.64314e+06 2.3333e+06 0 -3.61039e+06 2.36377e+06 0 -3.57764e+06 2.3926e+06 0 -3.54492e+06 2.41987e+06 0 -3.51228e+06 2.44563e+06 0 -3.47975e+06 2.46992e+06 0 -3.44735e+06 2.49282e+06 0 -3.41511e+06 2.51437e+06 0 -3.38305e+06 2.53463e+06 0 -3.35119e+06 2.55364e+06 0 -3.31954e+06 2.57145e+06 0 -3.28813e+06 2.58811e+06 0 -3.25697e+06 2.60367e+06 0 -3.22607e+06 2.61817e+06 0 -3.19545e+06 2.63165e+06 0 -3.1651e+06 2.64416e+06 0 -3.13504e+06 2.65574e+06 0 -3.10527e+06 2.66642e+06 0 -3.07581e+06 2.67623e+06 0 -3.04665e+06 2.68523e+06 0 -3.0178e+06 2.69343e+06 0 -2.98926e+06 2.70088e+06 0 -2.96103e+06 2.7076e+06 0 -2.93312e+06 2.71363e+06 0 -2.90553e+06 2.71899e+06 0 -2.87825e+06 2.72371e+06 0 -2.85129e+06 2.72783e+06 0 -2.82464e+06 2.73136e+06 0 -2.7983e+06 2.73433e+06 0 -2.77228e+06 2.73676e+06 0 -2.74657e+06 2.73868e+06 0 -2.72117e+06 2.74011e+06 0 -2.69607e+06 2.74107e+06 0 -2.67128e+06 2.74158e+06 0 -2.64678e+06 2.74166e+06 0 -2.62259e+06 2.74133e+06 0 -2.59869e+06 2.7406e+06 0 -2.57508e+06 2.73949e+06 0 -2.55176e+06 2.73803e+06 0 -2.52872e+06 2.73621e+06 0 -2.50596e+06 2.73407e+06 0 -2.48349e+06 2.73161e+06 0 -2.46128e+06 2.72885e+06 0 -2.43935e+06 2.7258e+06 0 -2.41768e+06 2.72248e+06 0 -2.39628e+06 2.71889e+06 0 -2.37513e+06 2.71504e+06 0 -2.35424e+06 2.71096e+06 0 -2.3336e+06 2.70665e+06 0 -2.31321e+06 2.70211e+06 0 -2.29306e+06 2.69737e+06 0 -2.27315e+06 2.69242e+06 0 -2.25348e+06 2.68729e+06 0 -2.23405e+06 2.68197e+06 0 -2.21484e+06 2.67647e+06 0 -2.19586e+06 2.67081e+06 0 -2.1771e+06 2.66499e+06 0 -2.15856e+06 2.65902e+06 0 -2.14023e+06 2.6529e+06 0 -2.12212e+06 2.64665e+06 0 -2.10422e+06 2.64027e+06 0 -2.08652e+06 2.63376e+06 0 -2.06902e+06 2.62713e+06 0 -2.05172e+06 2.62039e+06 0 -2.03462e+06 2.61354e+06 0 -2.01771e+06 2.6066e+06 0 -2.00099e+06 2.59955e+06 0 -1.98446e+06 2.59241e+06 0 -1.96811e+06 2.58519e+06 0 -1.95194e+06 2.57788e+06 0 -1.93595e+06 2.57049e+06 0 -1.92013e+06 2.56304e+06 0 -1.90449e+06 2.55551e+06 0 -5.27501e-06 3.54625e+06 0 -2.48853e+06 3.36452e+06 0 -3.28643e+06 1.28848e+06 0 -3.14506e+06 671031 0 -3.20061e+06 353864 0 -3.22908e+06 60832.9 0 -3.26302e+06 -98420.1 0 -3.32058e+06 -232211 0 -3.3781e+06 -320808 0 -3.44254e+06 -380861 0 -3.50866e+06 -416351 0 -3.57552e+06 -430483 0 -3.64197e+06 -426945 0 -3.70692e+06 -407861 0 -3.7697e+06 -375589 0 -3.82963e+06 -331950 0 -3.88627e+06 -278656 0 -3.93921e+06 -217199 0 -3.98818e+06 -148923 0 -4.03297e+06 -75027.5 0 -4.07343e+06 3415.71 0 -4.10951e+06 85449.3 0 -4.14118e+06 170221 0 -4.16847e+06 256973 0 -4.19146e+06 345034 0 -4.21024e+06 433815 0 -4.22496e+06 522793 0 -4.23577e+06 611516 0 -4.24284e+06 699587 0 -4.24634e+06 786667 0 -4.24648e+06 872462 0 -4.24345e+06 956725 0 -4.23744e+06 1.03925e+06 0 -4.22866e+06 1.11985e+06 0 -4.2173e+06 1.19841e+06 0 -4.20355e+06 1.27479e+06 0 -4.1876e+06 1.34893e+06 0 -4.16962e+06 1.42074e+06 0 -4.14979e+06 1.49019e+06 0 -4.12828e+06 1.55725e+06 0 -4.10523e+06 1.62191e+06 0 -4.0808e+06 1.68416e+06 0 -4.05513e+06 1.74403e+06 0 -4.02835e+06 1.80152e+06 0 -4.00057e+06 1.85667e+06 0 -3.97192e+06 1.90953e+06 0 -3.94251e+06 1.96012e+06 0 -3.91243e+06 2.0085e+06 0 -3.88177e+06 2.05471e+06 0 -3.85062e+06 2.09882e+06 0 -3.81907e+06 2.14087e+06 0 -3.78717e+06 2.18093e+06 0 -3.75501e+06 2.21906e+06 0 -3.72264e+06 2.2553e+06 0 -3.69012e+06 2.28974e+06 0 -3.6575e+06 2.32241e+06 0 -3.62482e+06 2.35339e+06 0 -3.59213e+06 2.38273e+06 0 -3.55948e+06 2.41049e+06 0 -3.52688e+06 2.43672e+06 0 -3.49438e+06 2.46149e+06 0 -3.46201e+06 2.48484e+06 0 -3.42979e+06 2.50684e+06 0 -3.39774e+06 2.52753e+06 0 -3.36588e+06 2.54696e+06 0 -3.33424e+06 2.56519e+06 0 -3.30282e+06 2.58225e+06 0 -3.27165e+06 2.5982e+06 0 -3.24074e+06 2.61308e+06 0 -3.21009e+06 2.62694e+06 0 -3.17972e+06 2.63981e+06 0 -3.14964e+06 2.65173e+06 0 -3.11984e+06 2.66275e+06 0 -3.09035e+06 2.67291e+06 0 -3.06116e+06 2.68222e+06 0 -3.03227e+06 2.69074e+06 0 -3.0037e+06 2.6985e+06 0 -2.97543e+06 2.70552e+06 0 -2.94749e+06 2.71184e+06 0 -2.91985e+06 2.71749e+06 0 -2.89253e+06 2.72249e+06 0 -2.86553e+06 2.72688e+06 0 -2.83884e+06 2.73067e+06 0 -2.81246e+06 2.7339e+06 0 -2.7864e+06 2.73659e+06 0 -2.76065e+06 2.73876e+06 0 -2.7352e+06 2.74042e+06 0 -2.71006e+06 2.74162e+06 0 -2.68523e+06 2.74236e+06 0 -2.6607e+06 2.74266e+06 0 -2.63646e+06 2.74255e+06 0 -2.61252e+06 2.74203e+06 0 -2.58887e+06 2.74114e+06 0 -2.56552e+06 2.73988e+06 0 -2.54244e+06 2.73827e+06 0 -2.51965e+06 2.73632e+06 0 -2.49714e+06 2.73406e+06 0 -2.4749e+06 2.73148e+06 0 -2.45293e+06 2.72862e+06 0 -2.43123e+06 2.72548e+06 0 -2.40979e+06 2.72207e+06 0 -2.38862e+06 2.7184e+06 0 -2.3677e+06 2.71449e+06 0 -2.34703e+06 2.71035e+06 0 -2.32661e+06 2.70598e+06 0 -2.30644e+06 2.70141e+06 0 -2.28651e+06 2.69662e+06 0 -2.26681e+06 2.69165e+06 0 -2.24735e+06 2.68649e+06 0 -2.22812e+06 2.68115e+06 0 -2.20912e+06 2.67564e+06 0 -2.19034e+06 2.66998e+06 0 -2.17178e+06 2.66416e+06 0 -2.15344e+06 2.65819e+06 0 -2.13531e+06 2.65209e+06 0 -2.1174e+06 2.64585e+06 0 -2.09968e+06 2.63949e+06 0 -2.08218e+06 2.633e+06 0 -2.06487e+06 2.6264e+06 0 -2.04776e+06 2.6197e+06 0 -2.03084e+06 2.61289e+06 0 -2.01411e+06 2.60598e+06 0 -1.99757e+06 2.59898e+06 0 -1.98122e+06 2.59189e+06 0 -1.96504e+06 2.58472e+06 0 -1.94905e+06 2.57747e+06 0 -1.93323e+06 2.57015e+06 0 -1.91758e+06 2.56275e+06 0 4.97699e-06 2.59203e+06 0 -2.06399e+06 3.35725e+06 0 -3.16294e+06 1.61317e+06 0 -3.1342e+06 702286 0 -3.15514e+06 416812 0 -3.21071e+06 102728 0 -3.24208e+06 -77743.8 0 -3.30045e+06 -212228 0 -3.36081e+06 -310992 0 -3.42541e+06 -375084 0 -3.493e+06 -415386 0 -3.56081e+06 -433463 0 -3.62834e+06 -433289 0 -3.69437e+06 -417271 0 -3.75821e+06 -387624 0 -3.81924e+06 -346318 0 -3.87696e+06 -295043 0 -3.93101e+06 -235339 0 -3.98108e+06 -168563 0 -4.02697e+06 -95940 0 -4.06853e+06 -18559.5 0 -4.1057e+06 62602.6 0 -4.13844e+06 146677 0 -4.16679e+06 232891 0 -4.19081e+06 320559 0 -4.2106e+06 409076 0 -4.22629e+06 497910 0 -4.23804e+06 586593 0 -4.24601e+06 674720 0 -4.25039e+06 761939 0 -4.25135e+06 847950 0 -4.24911e+06 932494 0 -4.24385e+06 1.01535e+06 0 -4.23578e+06 1.09635e+06 0 -4.22508e+06 1.17534e+06 0 -4.21196e+06 1.2522e+06 0 -4.1966e+06 1.32683e+06 0 -4.17917e+06 1.39918e+06 0 -4.15985e+06 1.46918e+06 0 -4.13882e+06 1.5368e+06 0 -4.11621e+06 1.60204e+06 0 -4.09219e+06 1.66489e+06 0 -4.06689e+06 1.72535e+06 0 -4.04046e+06 1.78345e+06 0 -4.013e+06 1.83921e+06 0 -3.98464e+06 1.89266e+06 0 -3.95549e+06 1.94386e+06 0 -3.92565e+06 1.99283e+06 0 -3.89521e+06 2.03964e+06 0 -3.86426e+06 2.08433e+06 0 -3.83289e+06 2.12697e+06 0 -3.80115e+06 2.1676e+06 0 -3.76913e+06 2.20628e+06 0 -3.73688e+06 2.24308e+06 0 -3.70447e+06 2.27805e+06 0 -3.67194e+06 2.31126e+06 0 -3.63935e+06 2.34275e+06 0 -3.60673e+06 2.3726e+06 0 -3.57413e+06 2.40086e+06 0 -3.54159e+06 2.42758e+06 0 -3.50913e+06 2.45282e+06 0 -3.47679e+06 2.47664e+06 0 -3.44459e+06 2.49909e+06 0 -3.41255e+06 2.52021e+06 0 -3.3807e+06 2.54008e+06 0 -3.34906e+06 2.55872e+06 0 -3.31765e+06 2.57619e+06 0 -3.28647e+06 2.59254e+06 0 -3.25554e+06 2.60781e+06 0 -3.22488e+06 2.62204e+06 0 -3.19449e+06 2.63528e+06 0 -3.16438e+06 2.64756e+06 0 -3.13456e+06 2.65893e+06 0 -3.10503e+06 2.66942e+06 0 -3.07581e+06 2.67907e+06 0 -3.04689e+06 2.68791e+06 0 -3.01828e+06 2.69598e+06 0 -2.98998e+06 2.70331e+06 0 -2.962e+06 2.70992e+06 0 -2.93432e+06 2.71586e+06 0 -2.90697e+06 2.72115e+06 0 -2.87992e+06 2.72581e+06 0 -2.85319e+06 2.72987e+06 0 -2.82678e+06 2.73336e+06 0 -2.80067e+06 2.7363e+06 0 -2.77488e+06 2.73872e+06 0 -2.74939e+06 2.74063e+06 0 -2.72421e+06 2.74207e+06 0 -2.69934e+06 2.74304e+06 0 -2.67477e+06 2.74357e+06 0 -2.65049e+06 2.74368e+06 0 -2.62651e+06 2.74338e+06 0 -2.60283e+06 2.7427e+06 0 -2.57943e+06 2.74165e+06 0 -2.55632e+06 2.74024e+06 0 -2.53349e+06 2.7385e+06 0 -2.51094e+06 2.73643e+06 0 -2.48867e+06 2.73405e+06 0 -2.46667e+06 2.73138e+06 0 -2.44493e+06 2.72842e+06 0 -2.42347e+06 2.72519e+06 0 -2.40226e+06 2.72171e+06 0 -2.38131e+06 2.71797e+06 0 -2.36061e+06 2.714e+06 0 -2.34017e+06 2.70981e+06 0 -2.31997e+06 2.7054e+06 0 -2.30001e+06 2.70078e+06 0 -2.28029e+06 2.69597e+06 0 -2.26081e+06 2.69097e+06 0 -2.24156e+06 2.68579e+06 0 -2.22254e+06 2.68044e+06 0 -2.20374e+06 2.67493e+06 0 -2.18516e+06 2.66926e+06 0 -2.16681e+06 2.66345e+06 0 -2.14866e+06 2.65749e+06 0 -2.13073e+06 2.6514e+06 0 -2.113e+06 2.64518e+06 0 -2.09548e+06 2.63885e+06 0 -2.07816e+06 2.63239e+06 0 -2.06104e+06 2.62583e+06 0 -2.04412e+06 2.61916e+06 0 -2.02738e+06 2.61239e+06 0 -2.01084e+06 2.60553e+06 0 -1.99448e+06 2.59858e+06 0 -1.9783e+06 2.59155e+06 0 -1.9623e+06 2.58443e+06 0 -1.94648e+06 2.57724e+06 0 -1.93083e+06 2.56998e+06 0 -3.8445e-06 1.9901e+06 0 -1.69451e+06 3.19022e+06 0 -2.97991e+06 1.90424e+06 0 -3.11602e+06 787252 0 -3.11364e+06 459253 0 -3.18455e+06 155159 0 -3.2226e+06 -55733.5 0 -3.27878e+06 -192107 0 -3.34265e+06 -298916 0 -3.40785e+06 -368894 0 -3.4766e+06 -413387 0 -3.54561e+06 -435775 0 -3.61416e+06 -439024 0 -3.68132e+06 -426141 0 -3.74624e+06 -399221 0 -3.80838e+06 -360307 0 -3.86722e+06 -311127 0 -3.92238e+06 -253235 0 -3.97357e+06 -188021 0 -4.02057e+06 -116724 0 -4.06325e+06 -40457.5 0 -4.10152e+06 39786.3 0 -4.13535e+06 123121 0 -4.16477e+06 208758 0 -4.18984e+06 295996 0 -4.21065e+06 384217 0 -4.22734e+06 472876 0 -4.24005e+06 561493 0 -4.24894e+06 649652 0 -4.2542e+06 736991 0 -4.25601e+06 823198 0 -4.25458e+06 908007 0 -4.25008e+06 991193 0 -4.24273e+06 1.07257e+06 0 -4.23272e+06 1.15198e+06 0 -4.22024e+06 1.2293e+06 0 -4.20548e+06 1.30443e+06 0 -4.18862e+06 1.3773e+06 0 -4.16983e+06 1.44785e+06 0 -4.14928e+06 1.51604e+06 0 -4.12713e+06 1.58186e+06 0 -4.10354e+06 1.64529e+06 0 -4.07863e+06 1.70635e+06 0 -4.05255e+06 1.76506e+06 0 -4.02542e+06 1.82142e+06 0 -3.99737e+06 1.87548e+06 0 -3.96849e+06 1.92728e+06 0 -3.9389e+06 1.97686e+06 0 -3.90869e+06 2.02427e+06 0 -3.87795e+06 2.06955e+06 0 -3.84676e+06 2.11277e+06 0 -3.81519e+06 2.15397e+06 0 -3.78331e+06 2.19322e+06 0 -3.7512e+06 2.23058e+06 0 -3.7189e+06 2.2661e+06 0 -3.68648e+06 2.29984e+06 0 -3.65397e+06 2.33186e+06 0 -3.62143e+06 2.36222e+06 0 -3.5889e+06 2.39098e+06 0 -3.5564e+06 2.41819e+06 0 -3.52399e+06 2.44391e+06 0 -3.49168e+06 2.4682e+06 0 -3.4595e+06 2.49111e+06 0 -3.42749e+06 2.51268e+06 0 -3.39565e+06 2.53298e+06 0 -3.36402e+06 2.55204e+06 0 -3.3326e+06 2.56993e+06 0 -3.30142e+06 2.58668e+06 0 -3.27048e+06 2.60234e+06 0 -3.2398e+06 2.61696e+06 0 -3.20939e+06 2.63056e+06 0 -3.17926e+06 2.64321e+06 0 -3.14942e+06 2.65493e+06 0 -3.11987e+06 2.66577e+06 0 -3.09061e+06 2.67575e+06 0 -3.06166e+06 2.68492e+06 0 -3.03302e+06 2.69331e+06 0 -3.00469e+06 2.70094e+06 0 -2.97666e+06 2.70786e+06 0 -2.94895e+06 2.7141e+06 0 -2.92155e+06 2.71967e+06 0 -2.89447e+06 2.72461e+06 0 -2.8677e+06 2.72895e+06 0 -2.84125e+06 2.7327e+06 0 -2.8151e+06 2.7359e+06 0 -2.78927e+06 2.73857e+06 0 -2.76374e+06 2.74074e+06 0 -2.73852e+06 2.74241e+06 0 -2.71361e+06 2.74362e+06 0 -2.68899e+06 2.74438e+06 0 -2.66468e+06 2.74471e+06 0 -2.64066e+06 2.74464e+06 0 -2.61694e+06 2.74417e+06 0 -2.5935e+06 2.74333e+06 0 -2.57035e+06 2.74214e+06 0 -2.54749e+06 2.7406e+06 0 -2.52491e+06 2.73873e+06 0 -2.5026e+06 2.73654e+06 0 -2.48056e+06 2.73406e+06 0 -2.4588e+06 2.73129e+06 0 -2.4373e+06 2.72825e+06 0 -2.41606e+06 2.72495e+06 0 -2.39508e+06 2.72139e+06 0 -2.37436e+06 2.7176e+06 0 -2.35388e+06 2.71358e+06 0 -2.33366e+06 2.70934e+06 0 -2.31368e+06 2.70489e+06 0 -2.29393e+06 2.70024e+06 0 -2.27443e+06 2.6954e+06 0 -2.25516e+06 2.69039e+06 0 -2.23611e+06 2.6852e+06 0 -2.2173e+06 2.67984e+06 0 -2.1987e+06 2.67433e+06 0 -2.18033e+06 2.66867e+06 0 -2.16217e+06 2.66286e+06 0 -2.14422e+06 2.65692e+06 0 -2.12648e+06 2.65085e+06 0 -2.10895e+06 2.64466e+06 0 -2.09162e+06 2.63835e+06 0 -2.07448e+06 2.63193e+06 0 -2.05755e+06 2.62541e+06 0 -2.04081e+06 2.61878e+06 0 -2.02425e+06 2.61206e+06 0 -2.00789e+06 2.60525e+06 0 -1.99171e+06 2.59836e+06 0 -1.97571e+06 2.59138e+06 0 -1.95989e+06 2.58433e+06 0 -1.94424e+06 2.5772e+06 0 -1.19209e-07 1.6183e+06 0 -1.38096e+06 2.94495e+06 0 -2.75632e+06 2.12347e+06 0 -3.07732e+06 920350 0 -3.07776e+06 494906 0 -3.15191e+06 208650 0 -3.20248e+06 -27955.9 0 -3.25668e+06 -172880 0 -3.32315e+06 -284685 0 -3.38988e+06 -361878 0 -3.4595e+06 -410574 0 -3.52984e+06 -437271 0 -3.59946e+06 -444162 0 -3.66774e+06 -434442 0 -3.73379e+06 -410354 0 -3.79704e+06 -373903 0 -3.85701e+06 -326887 0 -3.91331e+06 -270874 0 -3.96563e+06 -207280 0 -4.01377e+06 -137367 0 -4.05758e+06 -62265.6 0 -4.09697e+06 17011.8 0 -4.1319e+06 99562.2 0 -4.16241e+06 184581 0 -4.18855e+06 271353 0 -4.2104e+06 359245 0 -4.2281e+06 447698 0 -4.24178e+06 536222 0 -4.25161e+06 624388 0 -4.25778e+06 711823 0 -4.26045e+06 798208 0 -4.25984e+06 883265 0 -4.25613e+06 966762 0 -4.24952e+06 1.0485e+06 0 -4.24021e+06 1.12833e+06 0 -4.22839e+06 1.2061e+06 0 -4.21425e+06 1.28172e+06 0 -4.19797e+06 1.35511e+06 0 -4.17972e+06 1.4262e+06 0 -4.15968e+06 1.49495e+06 0 -4.138e+06 1.56135e+06 0 -4.11484e+06 1.62537e+06 0 -4.09033e+06 1.68703e+06 0 -4.06462e+06 1.74634e+06 0 -4.03784e+06 1.80331e+06 0 -4.0101e+06 1.85799e+06 0 -3.98151e+06 1.91039e+06 0 -3.95218e+06 1.96058e+06 0 -3.92221e+06 2.00858e+06 0 -3.89168e+06 2.05446e+06 0 -3.86068e+06 2.09827e+06 0 -3.82928e+06 2.14005e+06 0 -3.79757e+06 2.17987e+06 0 -3.76559e+06 2.21779e+06 0 -3.73342e+06 2.25386e+06 0 -3.7011e+06 2.28815e+06 0 -3.66868e+06 2.3207e+06 0 -3.63622e+06 2.35158e+06 0 -3.60376e+06 2.38085e+06 0 -3.57133e+06 2.40856e+06 0 -3.53896e+06 2.43477e+06 0 -3.50669e+06 2.45953e+06 0 -3.47454e+06 2.4829e+06 0 -3.44255e+06 2.50492e+06 0 -3.41073e+06 2.52566e+06 0 -3.3791e+06 2.54516e+06 0 -3.34769e+06 2.56346e+06 0 -3.3165e+06 2.58062e+06 0 -3.28556e+06 2.59668e+06 0 -3.25487e+06 2.61168e+06 0 -3.22444e+06 2.62567e+06 0 -3.19429e+06 2.63868e+06 0 -3.16443e+06 2.65076e+06 0 -3.13485e+06 2.66195e+06 0 -3.10557e+06 2.67227e+06 0 -3.07659e+06 2.68177e+06 0 -3.04791e+06 2.69048e+06 0 -3.01954e+06 2.69843e+06 0 -2.99148e+06 2.70566e+06 0 -2.96373e+06 2.71219e+06 0 -2.9363e+06 2.71806e+06 0 -2.90918e+06 2.72328e+06 0 -2.88237e+06 2.72789e+06 0 -2.85587e+06 2.73192e+06 0 -2.82969e+06 2.73539e+06 0 -2.80381e+06 2.73831e+06 0 -2.77825e+06 2.74073e+06 0 -2.75299e+06 2.74265e+06 0 -2.72803e+06 2.7441e+06 0 -2.70338e+06 2.74509e+06 0 -2.67903e+06 2.74566e+06 0 -2.65497e+06 2.74581e+06 0 -2.63121e+06 2.74556e+06 0 -2.60774e+06 2.74494e+06 0 -2.58455e+06 2.74395e+06 0 -2.56165e+06 2.74261e+06 0 -2.53903e+06 2.74095e+06 0 -2.51669e+06 2.73896e+06 0 -2.49462e+06 2.73668e+06 0 -2.47282e+06 2.7341e+06 0 -2.45129e+06 2.73125e+06 0 -2.43002e+06 2.72813e+06 0 -2.40901e+06 2.72475e+06 0 -2.38826e+06 2.72114e+06 0 -2.36776e+06 2.71729e+06 0 -2.34751e+06 2.71322e+06 0 -2.3275e+06 2.70895e+06 0 -2.30773e+06 2.70447e+06 0 -2.28821e+06 2.69979e+06 0 -2.26891e+06 2.69494e+06 0 -2.24985e+06 2.68991e+06 0 -2.23101e+06 2.68471e+06 0 -2.2124e+06 2.67936e+06 0 -2.19401e+06 2.67385e+06 0 -2.17583e+06 2.6682e+06 0 -2.15787e+06 2.66241e+06 0 -2.14011e+06 2.65649e+06 0 -2.12257e+06 2.65045e+06 0 -2.10523e+06 2.64429e+06 0 -2.08808e+06 2.63801e+06 0 -2.07114e+06 2.63163e+06 0 -2.05439e+06 2.62515e+06 0 -2.03783e+06 2.61857e+06 0 -2.02146e+06 2.6119e+06 0 -2.00527e+06 2.60514e+06 0 -1.98927e+06 2.59831e+06 0 -1.97345e+06 2.59139e+06 0 -1.9578e+06 2.58441e+06 0 1.43051e-06 1.39139e+06 0 -1.12049e+06 2.67275e+06 0 -2.50956e+06 2.25976e+06 0 -3.01082e+06 1.08315e+06 0 -3.04502e+06 537722 0 -3.11534e+06 257696 0 -3.17982e+06 6337.01 0 -3.2346e+06 -153493 0 -3.3023e+06 -269173 0 -3.3713e+06 -353507 0 -3.44178e+06 -407077 0 -3.51342e+06 -437905 0 -3.58421e+06 -448654 0 -3.65362e+06 -442171 0 -3.72083e+06 -420991 0 -3.78522e+06 -387087 0 -3.84634e+06 -342302 0 -3.90378e+06 -288236 0 -3.95726e+06 -226324 0 -4.00655e+06 -157852 0 -4.0515e+06 -83970.6 0 -4.09203e+06 -5709.14 0 -4.12809e+06 76011.5 0 -4.1597e+06 160370 0 -4.18692e+06 246637 0 -4.20983e+06 334165 0 -4.22855e+06 422381 0 -4.24323e+06 510783 0 -4.25402e+06 598930 0 -4.2611e+06 686440 0 -4.26466e+06 772982 0 -4.26489e+06 858269 0 -4.26198e+06 942061 0 -4.25613e+06 1.02415e+06 0 -4.24754e+06 1.10438e+06 0 -4.2364e+06 1.1826e+06 0 -4.22289e+06 1.2587e+06 0 -4.20721e+06 1.3326e+06 0 -4.18952e+06 1.40422e+06 0 -4.17e+06 1.47354e+06 0 -4.1488e+06 1.54051e+06 0 -4.12609e+06 1.60513e+06 0 -4.102e+06 1.66738e+06 0 -4.07667e+06 1.7273e+06 0 -4.05024e+06 1.78488e+06 0 -4.02282e+06 1.84016e+06 0 -3.99453e+06 1.89318e+06 0 -3.96548e+06 1.94397e+06 0 -3.93575e+06 1.99258e+06 0 -3.90545e+06 2.03906e+06 0 -3.87465e+06 2.08346e+06 0 -3.84344e+06 2.12583e+06 0 -3.81188e+06 2.16623e+06 0 -3.78005e+06 2.20472e+06 0 -3.74801e+06 2.24134e+06 0 -3.7158e+06 2.27617e+06 0 -3.68349e+06 2.30927e+06 0 -3.65112e+06 2.34067e+06 0 -3.61873e+06 2.37046e+06 0 -3.58636e+06 2.39867e+06 0 -3.55404e+06 2.42537e+06 0 -3.52181e+06 2.45061e+06 0 -3.4897e+06 2.47445e+06 0 -3.45774e+06 2.49694e+06 0 -3.42594e+06 2.51812e+06 0 -3.39432e+06 2.53805e+06 0 -3.36291e+06 2.55678e+06 0 -3.33173e+06 2.57436e+06 0 -3.30078e+06 2.59082e+06 0 -3.27008e+06 2.60621e+06 0 -3.23964e+06 2.62059e+06 0 -3.20947e+06 2.63397e+06 0 -3.17958e+06 2.64642e+06 0 -3.14998e+06 2.65796e+06 0 -3.12067e+06 2.66862e+06 0 -3.09166e+06 2.67846e+06 0 -3.06295e+06 2.6875e+06 0 -3.03455e+06 2.69577e+06 0 -3.00646e+06 2.70331e+06 0 -2.97868e+06 2.71014e+06 0 -2.9512e+06 2.7163e+06 0 -2.92404e+06 2.72182e+06 0 -2.8972e+06 2.72671e+06 0 -2.87066e+06 2.73101e+06 0 -2.84444e+06 2.73475e+06 0 -2.81852e+06 2.73794e+06 0 -2.79292e+06 2.74061e+06 0 -2.76762e+06 2.74278e+06 0 -2.74262e+06 2.74447e+06 0 -2.71793e+06 2.7457e+06 0 -2.69354e+06 2.7465e+06 0 -2.66944e+06 2.74688e+06 0 -2.64564e+06 2.74686e+06 0 -2.62213e+06 2.74645e+06 0 -2.59891e+06 2.74568e+06 0 -2.57598e+06 2.74455e+06 0 -2.55332e+06 2.74309e+06 0 -2.53095e+06 2.74131e+06 0 -2.50884e+06 2.73922e+06 0 -2.48701e+06 2.73684e+06 0 -2.46545e+06 2.73417e+06 0 -2.44415e+06 2.73124e+06 0 -2.42311e+06 2.72805e+06 0 -2.40233e+06 2.72462e+06 0 -2.3818e+06 2.72095e+06 0 -2.36152e+06 2.71706e+06 0 -2.34149e+06 2.71295e+06 0 -2.3217e+06 2.70864e+06 0 -2.30215e+06 2.70414e+06 0 -2.28283e+06 2.69945e+06 0 -2.26375e+06 2.69458e+06 0 -2.24489e+06 2.68954e+06 0 -2.22626e+06 2.68435e+06 0 -2.20785e+06 2.679e+06 0 -2.18966e+06 2.6735e+06 0 -2.17168e+06 2.66786e+06 0 -2.15391e+06 2.6621e+06 0 -2.13635e+06 2.6562e+06 0 -2.119e+06 2.65019e+06 0 -2.10185e+06 2.64406e+06 0 -2.08489e+06 2.63783e+06 0 -2.06814e+06 2.63149e+06 0 -2.05157e+06 2.62506e+06 0 -2.03519e+06 2.61853e+06 0 -2.019e+06 2.61191e+06 0 -2.003e+06 2.60522e+06 0 -1.98717e+06 2.59844e+06 0 -1.97152e+06 2.59159e+06 0 -3.39746e-06 1.25149e+06 0 -907997 2.40399e+06 0 -2.25448e+06 2.31753e+06 0 -2.9142e+06 1.25436e+06 0 -3.01079e+06 596808 0 -3.07716e+06 301536 0 -3.15355e+06 45391.2 0 -3.21232e+06 -132242 0 -3.28038e+06 -253068 0 -3.35185e+06 -343584 0 -3.4235e+06 -402795 0 -3.49632e+06 -437727 0 -3.5684e+06 -452428 0 -3.63895e+06 -449318 0 -3.70734e+06 -431107 0 -3.7729e+06 -399839 0 -3.83518e+06 -357355 0 -3.8938e+06 -305304 0 -3.94844e+06 -245138 0 -3.9989e+06 -178166 0 -4.04501e+06 -105559 0 -4.08669e+06 -28364.2 0 -4.12389e+06 52479.6 0 -4.15662e+06 136135 0 -4.18494e+06 221858 0 -4.20892e+06 308985 0 -4.22869e+06 396931 0 -4.24438e+06 485182 0 -4.25615e+06 573284 0 -4.26418e+06 660845 0 -4.26864e+06 747522 0 -4.26972e+06 833021 0 -4.26763e+06 917092 0 -4.26256e+06 999523 0 -4.2547e+06 1.08014e+06 0 -4.24425e+06 1.15879e+06 0 -4.2314e+06 1.23536e+06 0 -4.21633e+06 1.30977e+06 0 -4.19921e+06 1.38193e+06 0 -4.18023e+06 1.4518e+06 0 -4.15953e+06 1.51934e+06 0 -4.13728e+06 1.58454e+06 0 -4.11362e+06 1.6474e+06 0 -4.08869e+06 1.70792e+06 0 -4.06263e+06 1.76611e+06 0 -4.03555e+06 1.82201e+06 0 -4.00757e+06 1.87564e+06 0 -3.97879e+06 1.92704e+06 0 -3.94932e+06 1.97626e+06 0 -3.91925e+06 2.02335e+06 0 -3.88867e+06 2.06834e+06 0 -3.85764e+06 2.1113e+06 0 -3.82626e+06 2.15228e+06 0 -3.79459e+06 2.19134e+06 0 -3.76268e+06 2.22853e+06 0 -3.73059e+06 2.26392e+06 0 -3.69839e+06 2.29755e+06 0 -3.66611e+06 2.32949e+06 0 -3.6338e+06 2.3598e+06 0 -3.60149e+06 2.38852e+06 0 -3.56924e+06 2.41572e+06 0 -3.53706e+06 2.44145e+06 0 -3.50499e+06 2.46576e+06 0 -3.47305e+06 2.48871e+06 0 -3.44127e+06 2.51035e+06 0 -3.40967e+06 2.53073e+06 0 -3.37827e+06 2.54989e+06 0 -3.34709e+06 2.56788e+06 0 -3.31614e+06 2.58475e+06 0 -3.28543e+06 2.60055e+06 0 -3.25498e+06 2.61531e+06 0 -3.22479e+06 2.62907e+06 0 -3.19489e+06 2.64189e+06 0 -3.16526e+06 2.65379e+06 0 -3.13593e+06 2.66481e+06 0 -3.10689e+06 2.67498e+06 0 -3.07816e+06 2.68436e+06 0 -3.04972e+06 2.69295e+06 0 -3.0216e+06 2.70081e+06 0 -2.99378e+06 2.70795e+06 0 -2.96627e+06 2.71441e+06 0 -2.93907e+06 2.72022e+06 0 -2.91219e+06 2.7254e+06 0 -2.88561e+06 2.72998e+06 0 -2.85935e+06 2.73399e+06 0 -2.8334e+06 2.73744e+06 0 -2.80775e+06 2.74037e+06 0 -2.78241e+06 2.74279e+06 0 -2.75738e+06 2.74473e+06 0 -2.73265e+06 2.74621e+06 0 -2.70822e+06 2.74724e+06 0 -2.68409e+06 2.74785e+06 0 -2.66025e+06 2.74806e+06 0 -2.6367e+06 2.74787e+06 0 -2.61344e+06 2.74732e+06 0 -2.59047e+06 2.74641e+06 0 -2.56778e+06 2.74515e+06 0 -2.54537e+06 2.74358e+06 0 -2.52323e+06 2.74169e+06 0 -2.50137e+06 2.7395e+06 0 -2.47978e+06 2.73703e+06 0 -2.45845e+06 2.73429e+06 0 -2.43738e+06 2.73129e+06 0 -2.41657e+06 2.72803e+06 0 -2.39601e+06 2.72455e+06 0 -2.3757e+06 2.72083e+06 0 -2.35565e+06 2.7169e+06 0 -2.33583e+06 2.71276e+06 0 -2.31626e+06 2.70843e+06 0 -2.29692e+06 2.70391e+06 0 -2.27781e+06 2.6992e+06 0 -2.25894e+06 2.69433e+06 0 -2.24029e+06 2.68929e+06 0 -2.22186e+06 2.6841e+06 0 -2.20365e+06 2.67876e+06 0 -2.18566e+06 2.67328e+06 0 -2.16788e+06 2.66767e+06 0 -2.1503e+06 2.66193e+06 0 -2.13294e+06 2.65606e+06 0 -2.11578e+06 2.65009e+06 0 -2.09881e+06 2.644e+06 0 -2.08205e+06 2.63781e+06 0 -2.06547e+06 2.63152e+06 0 -2.04909e+06 2.62513e+06 0 -2.0329e+06 2.61866e+06 0 -2.01689e+06 2.61211e+06 0 -2.00106e+06 2.60547e+06 0 -1.98541e+06 2.59876e+06 0 2.92063e-06 1.16061e+06 0 -737308 2.15485e+06 0 -2.00282e+06 2.30909e