<?xml version="1.0"?> 
<VTKFile type="StructuredGrid" version="0.1"> 
<StructuredGrid WholeExtent="0 127 0 127 0 0"> 
<Piece Extent="0 127 0 127 0 0"> 
<PointData>
<DataArray type="Float32" Name="E" format="ascii" NumberOfComponents="3"> 
0 -1.02588e+06 0 80291.6 -893876 0 83286.6 -878872 0 115032 -848975 0 142013 -828178 0 172961 -804415 0 202748 -781568 0 232620 -757790 0 261539 -733756 0 289577 -709236 0 316468 -684415 0 342159 -659334 0 366570 -634102 0 389673 -608801 0 411452 -583517 0 431912 -558328 0 451067 -533304 0 468944 -508509 0 485576 -483996 0 501001 -459815 0 515260 -436006 0 528398 -412603 0 540460 -389635 0 551492 -367125 0 561541 -345092 0 570651 -323548 0 578867 -302505 0 586232 -281968 0 592787 -261942 0 598574 -242428 0 603630 -223425 0 607991 -204930 0 611694 -186939 0 614771 -169447 0 617254 -152447 0 619172 -135931 0 620554 -119891 0 621427 -104318 0 621816 -89202.8 0 621744 -74536.1 0 621236 -60307.9 0 620310 -46508.3 0 618989 -33127.4 0 617291 -20155 0 615234 -7581.18 0 612835 4603.91 0 610109 16410.1 0 607073 27847 0 603741 38924.1 0 600125 49650.7 0 596241 60036 0 592098 70088.7 0 587710 79817.6 0 583087 89231.1 0 578240 98337.5 0 573179 107145 0 567913 115661 0 562451 123893 0 556803 131848 0 550977 139535 0 544980 146959 0 538821 154127 0 532505 161046 0 526042 167722 0 519436 174161 0 512696 180369 0 505826 186352 0 498833 192115 0 491723 197664 0 484501 203003 0 477172 208139 0 469742 213075 0 462216 217817 0 454598 222369 0 446893 226735 0 439106 230920 0 431241 234928 0 423302 238763 0 415294 242430 0 407220 245930 0 399084 249269 0 390890 252450 0 382642 255477 0 374343 258352 0 365996 261079 0 357606 263662 0 349175 266102 0 340706 268404 0 332202 270570 0 323667 272603 0 315104 274505 0 306515 276280 0 297903 277929 0 289271 279456 0 280622 280862 0 271957 282150 0 263281 283322 0 254594 284381 0 245901 285328 0 237202 286166 0 228501 286896 0 219800 287521 0 211100 288043 0 202405 288462 0 193715 288782 0 185035 289003 0 176364 289128 0 167706 289157 0 159063 289094 0 150436 288938 0 141827 288692 0 133239 288357 0 124672 287934 0 116130 287424 0 107613 286830 0 99123.7 286151 0 90663.5 285390 0 82234.2 284548 0 73837.5 283625 0 65475 282622 0 57148.4 281542 0 48859.3 280384 0 40609.3 279149 0 32399.9 277840 0 24232.8 276455 0 16109.4 274997 0 8031.32 273467 0 0 271864 0 0 -974870 0 64328.4 -898591 0 84317.8 -867189 0 112651 -841500 0 141332 -818148 0 171220 -795161 0 200934 -772029 0 230262 -748595 0 258837 -724773 0 286478 -700606 0 313037 -676140 0 338418 -651454 0 362559 -626625 0 385426 -601737 0 407003 -576867 0 427292 -552088 0 446306 -527469 0 464069 -503069 0 480611 -478941 0 495967 -455132 0 510178 -431681 0 523286 -408623 0 535333 -385986 0 546364 -363793 0 556423 -342061 0 565555 -320806 0 573801 -300037 0 581205 -279762 0 587806 -259984 0 593644 -240706 0 598756 -221928 0 603179 -203646 0 606946 -185858 0 610089 -168559 0 612641 -151741 0 614631 -135399 0 616086 -119524 0 617032 -104108 0 617496 -89141.8 0 617500 -74616.9 0 617066 -60523.7 0 616217 -46852.5 0 614971 -33593.8 0 613348 -20737.8 0 611366 -8274.96 0 609041 3804.44 0 606390 15509.9 0 603427 26850.7 0 600167 37836.1 0 596624 48475.3 0 592810 58777 0 588738 68750 0 584419 78402.8 0 579865 87743.7 0 575086 96780.6 0 570091 105521 0 564891 113974 0 559495 122146 0 553911 130043 0 548148 137674 0 542214 145045 0 536116 152163 0 529861 159034 0 523458 165664 0 516911 172059 0 510229 178225 0 503416 184168 0 496480 189893 0 489425 195405 0 482258 200710 0 474983 205813 0 467606 210718 0 460133 215430 0 452567 219953 0 444913 224293 0 437177 228452 0 429361 232436 0 421472 236249 0 413511 239893 0 405485 243374 0 397396 246694 0 389249 249857 0 381046 252867 0 372792 255726 0 364490 258439 0 356144 261008 0 347756 263436 0 339330 265727 0 330869 267882 0 322376 269905 0 313853 271799 0 305305 273566 0 296733 275208 0 288141 276728 0 279531 278129 0 270906 279413 0 262267 280582 0 253619 281638 0 244963 282583 0 236301 283420 0 227637 284149 0 218971 284775 0 210308 285297 0 201647 285718 0 192993 286040 0 184347 286264 0 175711 286392 0 167087 286426 0 158477 286367 0 149884 286217 0 141308 285977 0 132752 285648 0 124218 285232 0 115707 284731 0 107222 284145 0 98764.5 283475 0 90335.5 282724 0 81937.2 281891 0 73571.2 280979 0 65239.2 279987 0 56942.8 278918 0 48683.7 277772 0 40463.4 276551 0 32283.6 275254 0 24145.9 273883 0 16051.6 272439 0 8002.52 270923 0 0 269335 0 0 -943118 0 54693.2 -892486 0 82705.1 -858138 0 110972 -832633 0 140090 -808747 0 169601 -785775 0 199017 -762717 0 227950 -739481 0 256156 -715928 0 283438 -692080 0 309668 -667970 0 334752 -643662 0 358630 -619228 0 381265 -594741 0 402643 -570275 0 422763 -545898 0 441637 -521674 0 459285 -497661 0 475736 -473910 0 491023 -450467 0 505184 -427369 0 518258 -404651 0 530288 -382340 0 541316 -360459 0 551383 -339026 0 560534 -318056 0 568808 -297559 0 576248 -277542 0 582892 -258011 0 588779 -238968 0 593945 -220413 0 598426 -202343 0 602254 -184757 0 605463 -167649 0 608082 -151013 0 610141 -134844 0 611667 -119134 0 612685 -103874 0 613222 -89057.3 0 613299 -74674.2 0 612939 -60715.8 0 612164 -47173.1 0 610992 -34036.6 0 609443 -21297.1 0 607535 -8945.29 0 605283 3028.27 0 602705 14632.7 0 599814 25877.3 0 596626 36770.8 0 593153 47322.3 0 589410 57540.3 0 585407 67433.4 0 581157 77009.8 0 576670 86277.6 0 571958 95244.9 0 567030 103919 0 561895 112308 0 556563 120419 0 551043 128258 0 545343 135834 0 539470 143152 0 533433 150219 0 527238 157041 0 520894 163624 0 514406 169975 0 507781 176099 0 501025 182002 0 494144 187688 0 487145 193164 0 480032 198434 0 472811 203504 0 465487 208377 0 458066 213059 0 450551 217554 0 442948 221866 0 435262 226000 0 427496 229960 0 419654 233749 0 411742 237372 0 403763 240832 0 395721 244133 0 387620 247278 0 379463 250271 0 371253 253115 0 362996 255813 0 354693 258368 0 346348 260783 0 337964 263062 0 329545 265207 0 321094 267220 0 312612 269105 0 304104 270864 0 295573 272499 0 287020 274014 0 278449 275409 0 269862 276689 0 261261 277854 0 252651 278907 0 244032 279850 0 235407 280685 0 226778 281414 0 218149 282039 0 209521 282562 0 200896 282985 0 192276 283309 0 183665 283536 0 175063 283668 0 166472 283706 0 157896 283651 0 149335 283507 0 140792 283272 0 132269 282950 0 123767 282542 0 115288 282048 0 106835 281470 0 98408 280809 0 90010 280067 0 81642.4 279244 0 73306.8 278342 0 65005 277362 0 56738.7 276304 0 48509.3 275171 0 40318.6 273961 0 32168.2 272678 0 24059.6 271320 0 15994.3 269891 0 7973.94 268389 0 0 266816 0 0 -920469 0 48490.2 -882421 0 80348.1 -849227 0 109355 -823433 0 138655 -799469 0 167960 -776455 0 197071 -753525 0 225655 -730483 0 253506 -707197 0 280449 -683661 0 306362 -659897 0 331158 -635958 0 354779 -611908 0 377188 -587812 0 398370 -563740 0 418323 -539756 0 437057 -515919 0 454590 -492286 0 470949 -468906 0 486166 -445821 0 500275 -423071 0 513315 -400687 0 525325 -378698 0 536346 -357125 0 546420 -335987 0 555586 -315299 0 563887 -295071 0 571360 -275311 0 578045 -256025 0 583978 -237214 0 589196 -218880 0 593732 -201022 0 597620 -183636 0 600892 -166718 0 603576 -150264 0 605702 -134268 0 607296 -118722 0 608385 -103618 0 608993 -88950 0 609142 -74708.4 0 608855 -60884.8 0 608152 -47470.4 0 607053 -34456.2 0 605577 -21833.3 0 603740 -9592.58 0 601561 2275 0 599054 13778.4 0 596234 24926.4 0 593117 35727.9 0 589714 46191.5 0 586040 56325.5 0 582106 66138.4 0 577923 75638.2 0 573504 84832.8 0 568857 93730 0 563994 102337 0 558924 110662 0 553656 118712 0 548198 126493 0 542560 134013 0 536748 141277 0 530772 148293 0 524637 155067 0 518351 161604 0 511921 167910 0 505353 173992 0 498653 179854 0 491828 185502 0 484883 190941 0 477824 196175 0 470656 201211 0 463385 206053 0 456015 210704 0 448551 215171 0 440999 219456 0 433361 223564 0 425644 227499 0 417851 231265 0 409987 234866 0 402055 238305 0 394059 241587 0 386003 244714 0 377891 247689 0 369726 250517 0 361512 253200 0 353253 255742 0 344950 258144 0 336609 260411 0 328232 262545 0 319821 264548 0 311380 266424 0 302913 268175 0 294420 269803 0 285907 271311 0 277374 272701 0 268825 273976 0 260263 275137 0 251689 276187 0 243107 277128 0 234519 277962 0 225927 278690 0 217333 279315 0 208740 279839 0 200150 280263 0 191565 280589 0 182987 280819 0 174419 280954 0 165862 280996 0 157319 280946 0 148791 280806 0 140280 280578 0 131789 280262 0 123319 279861 0 114872 279375 0 106450 278805 0 98054 278153 0 89686.8 277420 0 81349.7 276607 0 73044.4 275716 0 64772.6 274746 0 56536 273700 0 48336.2 272578 0 40174.9 271381 0 32053.6 270111 0 23973.9 268767 0 15937.4 267351 0 7945.56 265863 0 0 264305 0 0 -902519 0 44354 -870980 0 77885 -839939 0 107705 -814113 0 137120 -790214 0 166282 -767220 0 195111 -744435 0 223372 -721594 0 250888 -698574 0 277507 -675343 0 303116 -651918 0 327633 -628339 0 351003 -604663 0 373192 -580950 0 394181 -557263 0 413969 -533662 0 432564 -510205 0 449983 -486944 0 466249 -463926 0 481394 -441195 0 495450 -418786 0 508453 -396732 0 520441 -375060 0 531454 -353791 0 541532 -332945 0 550712 -312535 0 559036 -292574 0 566540 -273068 0 573263 -254024 0 579240 -235445 0 584507 -217331 0 589097 -199682 0 593043 -182496 0 596375 -165768 0 599122 -149495 0 601313 -133670 0 602975 -118288 0 604132 -103340 0 604809 -88820.3 0 605029 -74720 0 604813 -61031 0 604181 -47744.9 0 603153 -34853.1 0 601748 -22346.7 0 599983 -10217.2 0 597874 1544.28 0 595438 12946.4 0 592688 23997.9 0 589640 34707.1 0 586306 45082.5 0 582700 55132.4 0 578833 64864.8 0 574718 74287.7 0 570364 83408.9 0 565783 92235.9 0 560985 100776 0 555978 109037 0 550773 117025 0 545378 124748 0 539801 132211 0 534050 139422 0 528132 146387 0 522056 153111 0 515828 159601 0 509455 165863 0 502944 171902 0 496300 177723 0 489530 183332 0 482639 188734 0 475633 193934 0 468518 198936 0 461299 203745 0 453980 208366 0 446567 212803 0 439064 217061 0 431476 221143 0 423807 225053 0 416062 228796 0 408245 232375 0 400359 235793 0 392409 239055 0 384398 242163 0 376331 245122 0 368210 247933 0 360040 250601 0 351823 253129 0 343564 255518 0 335264 257773 0 326928 259896 0 318558 261889 0 310158 263756 0 301730 265499 0 293277 267120 0 284802 268621 0 276308 270006 0 267797 271276 0 259272 272433 0 250735 273479 0 242190 274418 0 233638 275250 0 225081 275977 0 216523 276602 0 207965 277127 0 199409 277552 0 190859 277880 0 182315 278112 0 173780 278250 0 165257 278296 0 156746 278251 0 148251 278117 0 139772 277894 0 131313 277585 0 122874 277190 0 114459 276711 0 106068 276150 0 97702.7 275506 0 89366 274783 0 81059.1 273980 0 72783.9 273098 0 64541.9 272140 0 56334.9 271105 0 48164.4 269995 0 40032.2 268810 0 31939.8 267553 0 23888.8 266222 0 15880.8 264820 0 7917.39 263347 0 0 261804 0 0 -887134 0 41464.3 -859217 0 75591.1 -830265 0 106026 -804720 0 135537 -780965 0 164571 -758063 0 193144 -735438 0 221104 -712810 0 248303 -690053 0 274612 -667124 0 299928 -644030 0 324175 -620803 0 347302 -597492 0 369274 -574152 0 390074 -550841 0 409699 -527616 0 428156 -504530 0 445460 -481634 0 461634 -458973 0 476706 -436589 0 490707 -414516 0 503672 -392787 0 515637 -371427 0 526639 -350458 0 536718 -329900 0 545910 -309766 0 554254 -290068 0 561787 -270815 0 568546 -252011 0 574565 -233661 0 579879 -215766 0 584521 -198325 0 588522 -181337 0 591912 -164798 0 594721 -148705 0 596975 -133052 0 598702 -117832 0 599926 -103040 0 600671 -88668.7 0 600959 -74709.5 0 600812 -61155 0 600250 -47997.2 0 599293 -35227.6 0 597957 -22837.9 0 596262 -10819.6 0 594223 835.722 0 591856 12136.5 0 589175 23091.1 0 586195 33707.9 0 582930 43995 0 579391 53960.5 0 575591 63612.3 0 571541 72958.1 0 567253 82005.6 0 562736 90762.2 0 558001 99235 0 553058 107431 0 547915 115358 0 542581 123021 0 537064 130429 0 531373 137586 0 525515 144499 0 519497 151174 0 513327 157617 0 507010 163834 0 500555 169830 0 493966 175610 0 487250 181180 0 480413 186544 0 473460 191708 0 466397 196676 0 459229 201454 0 451961 206044 0 444598 210452 0 437145 214682 0 429605 218737 0 421985 222623 0 414287 226342 0 406516 229898 0 398676 233296 0 390772 236538 0 382806 239627 0 374783 242568 0 366706 245364 0 358579 248016 0 350405 250529 0 342187 252906 0 333929 255148 0 325634 257260 0 317305 259243 0 308944 261101 0 300556 262835 0 292142 264448 0 283706 265943 0 275249 267322 0 266776 268587 0 258288 269740 0 249788 270783 0 241279 271719 0 232763 272549 0 224242 273276 0 215719 273901 0 207195 274425 0 198674 274851 0 190158 275181 0 181647 275416 0 173146 275557 0 164655 275607 0 156177 275566 0 147714 275437 0 139268 275220 0 130840 274917 0 122433 274529 0 114049 274058 0 105688 273504 0 97354 272870 0 89047.6 272155 0 80770.8 271362 0 72525.3 270491 0 64312.9 269543 0 56135.2 268519 0 47993.9 267421 0 39890.6 266249 0 31826.9 265004 0 23804.4 263687 0 15824.8 262298 0 7889.43 260840 0 0 259311 0 0 -873267 0 39363.6 -847520 0 73536.6 -820333 0 104356 -795267 0 133929 -771726 0 162840 -748973 0 191176 -726528 0 218852 -704123 0 245751 -681630 0 271762 -658999 0 296796 -636229 0 320782 -613347 0 343672 -590393 0 365432 -567418 0 386047 -544475 0 405511 -521617 0 423831 -498895 0 441021 -476357 0 457102 -454046 0 472100 -432002 0 486045 -410261 0 498970 -388851 0 510910 -367799 0 521900 -347127 0 531977 -326854 0 541179 -306993 0 549542 -287556 0 557101 -268552 0 563893 -249986 0 569952 -231864 0 575311 -214185 0 580002 -196952 0 584056 -180161 0 587503 -163810 0 590371 -147896 0 592687 -132413 0 594478 -117357 0 595767 -102720 0 596578 -88495.8 0 596933 -74677.4 0 596854 -61257.3 0 596360 -48227.5 0 595471 -35580.2 0 594205 -23307.1 0 592578 -11400.1 0 590607 148.963 0 588308 11348.3 0 585695 22206 0 582783 32730.2 0 579584 42928.8 0 576112 52809.7 0 572377 62380.7 0 568393 71649.2 0 564169 80622.7 0 559716 89308.6 0 555044 97713.8 0 550163 105845 0 545081 113710 0 539808 121315 0 534351 128665 0 528719 135768 0 522920 142629 0 516959 149255 0 510846 155651 0 504586 161822 0 498185 167775 0 491651 173514 0 484989 179044 0 478205 184371 0 471305 189499 0 464293 194434 0 457176 199178 0 449959 203738 0 442645 208116 0 435240 212318 0 427749 216347 0 420176 220207 0 412525 223903 0 404801 227437 0 397007 230813 0 389148 234035 0 381227 237105 0 373247 240029 0 365214 242807 0 357129 245444 0 348998 247943 0 340822 250306 0 332605 252537 0 324350 254637 0 316061 256610 0 307740 258458 0 299391 260183 0 291016 261789 0 282618 263277 0 274199 264650 0 265763 265910 0 257312 267059 0 248849 268099 0 240376 269032 0 231895 269860 0 223409 270586 0 214921 271210 0 206432 271735 0 197945 272162 0 189462 272493 0 180985 272731 0 172517 272875 0 164059 272928 0 155613 272892 0 147182 272767 0 138768 272556 0 130371 272259 0 121995 271878 0 113642 271414 0 105312 270868 0 97007.9 270242 0 88731.6 269537 0 80484.6 268753 0 72268.7 267892 0 64085.6 266955 0 55937.1 265943 0 47824.6 264856 0 39750 263696 0 31714.8 262464 0 23720.7 261160 0 15769.1 259786 0 7861.68 258341 0 0 256827 0 0 -860367 0 37775 -836025 0 71722.1 -810264 0 102725 -785770 0 132317 -762504 0 161099 -739945 0 189211 -717701 0 216618 -695528 0 243230 -673300 0 268958 -650964 0 293719 -628514 0 317452 -605968 0 340111 -583364 0 361664 -560746 0 382096 -538163 0 401402 -515664 0 419586 -493299 0 436663 -471112 0 452651 -449145 0 467574 -427437 0 481463 -406020 0 494346 -384926 0 506259 -364178 0 517234 -343798 0 527309 -323806 0 536518 -304214 0 544897 -285036 0 552481 -266279 0 559305 -247950 0 565401 -230053 0 570803 -212590 0 575541 -195562 0 579646 -178967 0 583148 -162804 0 586073 -147068 0 588449 -131755 0 590302 -116861 0 591654 -102379 0 592530 -88302 0 592951 -74624.3 0 592938 -61338.3 0 592511 -48436.5 0 591689 -35911.2 0 590490 -23754.8 0 588930 -11959.1 0 587027 -516.363 0 584795 10581.4 0 582249 21342.1 0 579403 31773.5 0 576270 41883.5 0 572863 51679.7 0 569193 61169.5 0 565273 70360.6 0 561112 79260 0 556722 87874.9 0 552113 96212.3 0 547293 104279 0 542272 112082 0 537059 119627 0 531662 126920 0 526088 133969 0 520346 140778 0 514443 147354 0 508386 153702 0 502181 159828 0 495835 165738 0 489355 171435 0 482747 176926 0 476015 182215 0 469167 187307 0 462207 192207 0 455140 196919 0 447972 201447 0 440708 205796 0 433352 209969 0 425908 213972 0 418382 217807 0 410778 221478 0 403100 224989 0 395351 228344 0 387536 231546 0 379659 234597 0 371724 237503 0 363733 240265 0 355691 242886 0 347601 245370 0 339467 247720 0 331291 249938 0 323076 252026 0 314827 253989 0 306546 255827 0 298235 257544 0 289898 259142 0 281538 260623 0 273157 261990 0 264758 263245 0 256344 264389 0 247916 265426 0 239479 266356 0 231034 267182 0 222583 267906 0 214129 268530 0 205674 269055 0 197221 269483 0 188772 269816 0 180328 270056 0 171892 270203 0 163467 270260 0 155053 270228 0 146654 270108 0 138271 269902 0 129906 269611 0 121561 269237 0 113238 268780 0 104938 268242 0 96664.4 267625 0 88417.9 266928 0 80200.6 266154 0 72014 265303 0 63860.1 264376 0 55740.4 263375 0 47656.7 262300 0 39610.5 261153 0 31603.6 259933 0 23637.5 258642 0 15713.8 257281 0 7834.14 255851 0 0 254352 0 0 -848126 0 36530.1 -824766 0 70120.3 -800150 0 101153 -776253 0 130714 -753306 0 159358 -730977 0 187255 -708953 0 214404 -687020 0 240743 -665059 0 266197 -643017 0 290696 -620881 0 314183 -598666 0 336617 -576404 0 357968 -554135 0 378221 -531904 0 397370 -509758 0 415421 -487742 0 432384 -465900 0 448279 -444271 0 463128 -422892 0 476958 -401796 0 489799 -381011 0 501682 -360563 0 512642 -340473 0 522712 -320758 0 531927 -301433 0 540320 -282510 0 547927 -263998 0 554779 -245903 0 560911 -228230 0 566353 -210981 0 571137 -194157 0 575291 -177758 0 578846 -161780 0 581827 -146222 0 584261 -131079 0 586173 -116346 0 587587 -102017 0 588526 -88087.8 0 589011 -74550.4 0 589063 -61398.4 0 588702 -48624.4 0 587945 -36221.3 0 586812 -24181.3 0 585319 -12497 0 583482 -1160.62 0 581316 9835.51 0 578835 20499 0 576055 30837.6 0 572987 40858.8 0 569644 50570.1 0 566038 59978.7 0 562181 69092 0 558084 77917.1 0 553756 86460.9 0 549208 94730.2 0 544449 102732 0 539488 110472 0 534334 117957 0 528995 125194 0 523479 132188 0 517795 138945 0 511948 145471 0 505946 151771 0 499796 157852 0 493505 163717 0 487078 169373 0 480523 174824 0 473843 180075 0 467046 185131 0 460137 189996 0 453120 194675 0 446002 199172 0 438786 203491 0 431478 207636 0 424082 211611 0 416603 215421 0 409045 219068 0 401412 222556 0 393708 225889 0 385938 229070 0 378105 232103 0 370212 234990 0 362264 237735 0 354264 240341 0 346216 242811 0 338122 245146 0 329987 247352 0 321813 249429 0 313603 251380 0 305360 253209 0 297088 254917 0 288789 256507 0 280467 257981 0 272123 259342 0 263761 260591 0 255383 261731 0 246991 262764 0 238589 263691 0 230179 264515 0 221763 265238 0 213343 265861 0 204922 266386 0 196503 266815 0 188086 267149 0 179676 267391 0 171273 267541 0 162879 267601 0 154498 267573 0 146130 267458 0 137778 267258 0 129444 266973 0 121130 266605 0 112837 266156 0 104568 265626 0 96323.6 265016 0 88106.7 264329 0 79918.7 263564 0 71761.3 262723 0 63636.3 261807 0 55545.3 260817 0 47490 259753 0 39472.1 258618 0 31493.2 257411 0 23555 256133 0 15659 254786 0 7806.81 253370 0 0 251886 0 0 -836365 0 35522.1 -813740 0 68698.2 -790050 0 99650 -766738 0 129133 -744140 0 157627 -722068 0 185312 -700281 0 212213 -678596 0 238289 -656905 0 263479 -635153 0 287724 -613327 0 310974 -591437 0 333188 -569510 0 354342 -547583 0 374419 -525698 0 393414 -503898 0 411332 -482225 0 428183 -460721 0 443985 -439423 0 458758 -418368 0 472529 -397587 0 485326 -377108 0 497180 -356956 0 508122 -337150 0 518186 -317710 0 527404 -298649 0 535810 -279979 0 543436 -261709 0 550316 -243846 0 556481 -226395 0 561962 -209359 0 566789 -192738 0 570991 -176532 0 574596 -160739 0 577631 -145358 0 580122 -130383 0 582092 -115811 0 583566 -101637 0 584567 -87853.8 0 585114 -74456.4 0 585230 -61438.1 0 584932 -48791.8 0 584241 -36510.6 0 583173 -24587.1 0 581744 -13014.1 0 579972 -1784.16 0 577871 9110.27 0 575455 19676.6 0 572739 29922.2 0 569735 39854.4 0 566455 49480.6 0 562913 58807.9 0 559118 67843.3 0 555082 76593.8 0 550816 85066.3 0 546328 93267.3 0 541629 101204 0 536728 108881 0 531633 116307 0 526352 123486 0 520893 130425 0 515265 137130 0 509474 143605 0 503527 149858 0 497432 155892 0 491195 161714 0 484821 167328 0 478317 172739 0 471690 177952 0 464943 182971 0 458084 187801 0 451117 192447 0 444048 196912 0 436880 201201 0 429620 205318 0 422271 209266 0 414838 213050 0 407326 216672 0 399738 220137 0 392079 223449 0 384352 226609 0 376562 229623 0 368713 232492 0 360807 235220 0 352849 237809 0 344842 240264 0 336789 242586 0 328693 244778 0 320559 246843 0 312388 248784 0 304184 250603 0 295950 252302 0 287689 253884 0 279404 255351 0 271097 256705 0 262771 257949 0 254429 259084 0 246073 260113 0 237707 261037 0 229331 261859 0 220949 262580 0 212564 263203 0 204177 263728 0 195790 264157 0 187407 264493 0 179029 264737 0 170658 264889 0 162296 264953 0 153946 264929 0 145610 264819 0 137289 264624 0 128986 264345 0 120702 263983 0 112439 263541 0 104200 263018 0 95985.4 262417 0 87797.9 261738 0 79639 260983 0 71510.5 260152 0 63414.2 259246 0 55351.6 258267 0 47324.6 257216 0 39334.7 256092 0 31383.7 254898 0 23473.1 253633 0 15604.6 252300 0 7779.69 250898 0 0 249428 0 0 -824972 0 34681.8 -802931 0 67424.7 -780004 0 98217.8 -757246 0 127581 -735013 0 155911 -713219 0 183386 -691682 0 210046 -670253 0 235869 -648832 0 260805 -627370 0 284804 -605850 0 307822 -584279 0 329823 -562682 0 350783 -541091 0 370688 -519544 0 389532 -498082 0 407318 -476746 0 424058 -455573 0 439766 -434602 0 454464 -413866 0 468175 -393395 0 480928 -373217 0 492750 -353356 0 503673 -333832 0 513728 -314662 0 522948 -295862 0 531364 -277442 0 539009 -259413 0 545915 -241780 0 552111 -224550 0 557629 -207724 0 562498 -191304 0 566745 -175291 0 570399 -159683 0 573486 -144477 0 576031 -129670 0 578059 -115258 0 579591 -101237 0 580652 -87600.3 0 581260 -74342.7 0 581438 -61457.8 0 581203 -48939 0 580575 -36779.6 0 579571 -24972.6 0 578206 -13510.9 0 576498 -2387.34 0 574460 8405.34 0 572108 18874.3 0 569455 29026.9 0 566514 38870.1 0 563297 48411 0 559817 57656.7 0 556084 66614.1 0 552109 75289.9 0 547903 83690.8 0 543475 91823.4 0 538835 99694 0 533993 107309 0 528955 114674 0 523732 121796 0 518330 128680 0 512757 135332 0 507022 141757 0 501130 147962 0 495088 153950 0 488904 159727 0 482582 165299 0 476131 170670 0 469554 175844 0 462858 180827 0 456049 185622 0 449131 190234 0 442110 194668 0 434990 198926 0 427777 203014 0 420474 206935 0 413088 210693 0 405620 214291 0 398077 217733 0 390462 221022 0 382780 224162 0 375033 227156 0 367226 230006 0 359362 232717 0 351445 235291 0 343478 237730 0 335466 240038 0 327410 242217 0 319315 244271 0 311183 246200 0 303018 248009 0 294822 249699 0 286598 251273 0 278350 252732 0 270079 254080 0 261790 255318 0 253483 256449 0 245163 257474 0 236831 258395 0 228490 259214 0 220142 259934 0 211790 260555 0 203436 261080 0 195083 261510 0 186732 261847 0 178387 262092 0 170048 262248 0 161718 262315 0 153399 262295 0 145094 262189 0 136804 261999 0 128531 261726 0 120277 261371 0 112045 260935 0 103835 260421 0 95649.9 259828 0 87491.5 259157 0 79361.6 258411 0 71261.7 257590 0 63193.8 256695 0 55159.5 255727 0 47160.5 254687 0 39198.5 253575 0 31275.1 252393 0 23391.9 251142 0 15550.6 249822 0 7752.79 248434 0 0 246978 0 0 -813872 0 33963.1 -792320 0 66272.9 -770036 0 96854.8 -747796 0 126062 -725934 0 154216 -704430 0 181480 -683155 0 207906 -661987 0 233483 -640840 0 258173 -619665 0 281934 -598447 0 304727 -577191 0 326521 -555917 0 347291 -534655 0 367026 -513441 0 385721 -492311 0 403378 -471305 0 420007 -450459 0 435622 -429808 0 450244 -409385 0 463895 -389220 0 476602 -369338 0 488391 -349764 0 499294 -330518 0 509339 -311616 0 518559 -293074 0 526984 -274902 0 534646 -257110 0 541574 -239705 0 547800 -222693 0 553353 -206077 0 558262 -189857 0 562553 -174035 0 566255 -158610 0 569392 -143579 0 571990 -128939 0 574072 -114687 0 575662 -100819 0 576781 -87327.9 0 577449 -74209.7 0 577687 -61457.9 0 577514 -49066.5 0 576948 -37028.8 0 576006 -25338.1 0 574704 -13987.7 0 573058 -2970.51 0 571083 7720.39 0 568794 18092 0 566203 28151.4 0 563324 37905.4 0 560169 47361 0 556750 56525 0 553077 65404.2 0 549163 74005.1 0 545017 82334.3 0 540648 90398.2 0 536067 98203.1 0 531282 105755 0 526302 113060 0 521135 120124 0 515789 126953 0 510272 133552 0 504591 139927 0 498753 146082 0 492764 152024 0 486632 157758 0 480363 163287 0 473963 168617 0 467437 173753 0 460791 178698 0 454031 183458 0 447161 188037 0 440188 192438 0 433116 196667 0 425949 200726 0 418693 204619 0 411351 208350 0 403929 211924 0 396431 215342 0 388859 218609 0 381220 221728 0 373515 224702 0 365750 227534 0 357928 230227 0 350052 232785 0 342126 235209 0 334154 237503 0 326138 239669 0 318081 241710 0 309988 243629 0 301861 245427 0 293702 247108 0 285516 248673 0 277304 250125 0 269070 251467 0 260816 252699 0 252545 253825 0 244259 254845 0 235962 255763 0 227655 256580 0 219341 257298 0 211023 257918 0 202702 258442 0 194382 258873 0 186063 259211 0 177750 259458 0 169442 259616 0 161144 259687 0 152857 259670 0 144582 259569 0 136323 259384 0 128080 259116 0 119856 258768 0 111653 258339 0 103473 257832 0 95317 257247 0 87187.6 256586 0 79086.3 255849 0 71014.9 255037 0 62975.2 254153 0 54968.9 253195 0 46997.7 252166 0 39063.3 251067 0 31167.3 249897 0 23311.3 248659 0 15497.1 247352 0 7726.1 245978 0 0 244537 0 0 -803018 0 33334.7 -781889 0 65220.8 -760159 0 95557.1 -738400 0 124581 -716907 0 152545 -695703 0 179599 -674700 0 205795 -653798 0 231132 -632925 0 255584 -612037 0 279114 -591117 0 301688 -570171 0 323278 -549215 0 343864 -528276 0 363433 -507387 0 381980 -486584 0 399509 -465901 0 416028 -445376 0 431551 -425040 0 446097 -404925 0 459687 -385061 0 472347 -365472 0 484103 -346181 0 494983 -327209 0 505017 -308572 0 514236 -290284 0 522668 -272357 0 530344 -254801 0 537295 -237622 0 543548 -220827 0 549134 -204418 0 554081 -188397 0 558414 -172765 0 562161 -157522 0 565347 -142665 0 567997 -128192 0 570133 -114099 0 571778 -100382 0 572954 -87037 0 573680 -74057.8 0 573978 -61439 0 573865 -49174.6 0 573360 -37258.5 0 572479 -25684.1 0 571238 -14444.8 0 569654 -3534.02 0 567741 7055.08 0 565513 17329.3 0 562983 27295.4 0 560165 36960.2 0 557071 46330.3 0 553712 55412.5 0 550100 64213.3 0 546245 72739.1 0 542157 80996.5 0 537847 88991.5 0 533324 96730.4 0 528596 104219 0 523672 111464 0 518561 118470 0 513271 125243 0 507808 131789 0 502181 138113 0 496396 144220 0 490461 150115 0 484381 155804 0 478163 161291 0 471813 166580 0 465337 171677 0 458741 176586 0 452029 181310 0 445208 185855 0 438283 190224 0 431257 194422 0 424137 198451 0 416926 202317 0 409630 206022 0 402252 209571 0 394798 212965 0 387270 216210 0 379673 219308 0 372011 222262 0 364287 225075 0 356506 227751 0 348671 230292 0 340785 232700 0 332852 234980 0 324875 237133 0 316858 239162 0 308802 241069 0 300713 242857 0 292592 244528 0 284442 246085 0 276267 247530 0 268068 248864 0 259850 250091 0 251614 251211 0 243363 252228 0 235100 253142 0 226827 253956 0 218547 254672 0 210262 255291 0 201974 255815 0 193686 256246 0 185400 256585 0 177118 256835 0 168842 256995 0 160575 257068 0 152318 257056 0 144074 256959 0 135845 256779 0 127632 256517 0 119438 256174 0 111265 255753 0 103114 255253 0 94986.8 254676 0 86886 254023 0 78813.2 253295 0 70770 252494 0 62758.3 251619 0 54779.8 250673 0 46836.2 249655 0 38929.1 248567 0 31060.3 247410 0 23231.4 246185 0 15443.9 244891 0 7699.61 243531 0 0 242105 0 0 -792373 0 32774.7 -771624 0 64250.9 -750381 0 94319.7 -729068 0 123138 -707940 0 150903 -687040 0 177743 -666314 0 203712 -645683 0 228817 -625085 0 253036 -604482 0 276341 -583858 0 298703 -563216 0 320095 -542573 0 340500 -521952 0 359906 -501383 0 378308 -480900 0 395711 -460536 0 412121 -440325 0 427552 -420299 0 442021 -400488 0 455550 -380919 0 468162 -361618 0 479883 -342607 0 490740 -323906 0 500762 -305530 0 509977 -287494 0 518415 -269810 0 526104 -252486 0 533075 -235532 0 539355 -218951 0 544972 -202748 0 549954 -186925 0 554328 -171482 0 558119 -156419 0 561353 -141735 0 564052 -127428 0 566240 -113494 0 567939 -99928.5 0 569170 -86728.1 0 569954 -73887.5 0 570310 -61401.4 0 570256 -49263.9 0 569810 -37469.1 0 568988 -26010.8 0 567808 -14882.7 0 566285 -4078.22 0 564432 6409.09 0 562264 16585.8 0 559795 26458.6 0 557037 36034 0 554003 45318.6 0 550704 54318.8 0 547150 63041.1 0 543354 71491.8 0 539325 79677.1 0 535072 87603.1 0 530606 95275.9 0 525934 102701 0 521067 109885 0 516011 116833 0 510775 123551 0 505367 130043 0 499793 136316 0 494061 142374 0 488178 148223 0 482149 153867 0 475982 159311 0 469682 164559 0 463256 169617 0 456709 174488 0 450045 179177 0 443272 183688 0 436393 188025 0 429414 192192 0 422340 196192 0 415175 200030 0 407923 203708 0 400589 207231 0 393178 210602 0 385693 213824 0 378139 216901 0 370519 219835 0 362837 222629 0 355096 225287 0 347301 227811 0 339455 230205 0 331562 232470 0 323623 234609 0 315644 236625 0 307627 238521 0 299574 240299 0 291490 241961 0 283377 243509 0 275238 244946 0 267075 246273 0 258892 247494 0 250691 248609 0 242475 249621 0 234246 250532 0 226006 251343 0 217759 252057 0 209507 252675 0 201252 253199 0 192996 253630 0 184742 253970 0 176491 254221 0 168247 254383 0 160010 254459 0 151784 254450 0 143571 254358 0 135371 254183 0 127188 253926 0 119024 253590 0 110880 253175 0 102757 252683 0 94659.2 252114 0 86586.9 251469 0 78542.3 250751 0 70527.1 249959 0 62543.2 249094 0 54592.3 248158 0 46676 247152 0 38796.1 246076 0 30954.2 244932 0 23152.1 243719 0 15391.2 242439 0 7673.35 241093 0 0 239681 0 0 -781913 0 32267.7 -761512 0 63348.9 -740705 0 93137.3 -719808 0 121734 -699036 0 149290 -678444 0 175915 -657998 0 201660 -637640 0 226537 -617318 0 250531 -596998 0 273617 -576667 0 295771 -556327 0 316970 -535990 0 337197 -515681 0 