<?xml version="1.0"?> 
<VTKFile type="StructuredGrid" version="0.1"> 
<StructuredGrid WholeExtent="0 127 0 127 0 0"> 
<Piece Extent="0 127 0 127 0 0"> 
<PointData>
<DataArray type="Float32" Name="E" format="ascii" NumberOfComponents="3"> 
-278099 95392.4 0 -275518 95101.3 0 -272944 94812.4 0 -270377 94525.8 0 -267817 94241.3 0 -265265 93959 0 -262721 93678.8 0 -260183 93400.6 0 -257653 93124.4 0 -255130 92850.2 0 -252614 92577.8 0 -250105 92307.4 0 -247603 92038.8 0 -245108 91772 0 -242620 91507 0 -240139 91243.7 0 -237665 90982.2 0 -235198 90722.2 0 -232738 90464 0 -230284 90207.3 0 -227838 89952.2 0 -225398 89698.7 0 -222965 89446.7 0 -220538 89196.1 0 -218118 88947 0 -215705 88699.4 0 -213298 88453.2 0 -210898 88208.3 0 -208505 87964.8 0 -206118 87722.6 0 -203737 87481.8 0 -201363 87242.2 0 -198995 87003.9 0 -196633 86766.8 0 -194278 86531 0 -191929 86296.3 0 -189587 86062.8 0 -187250 85830.5 0 -184920 85599.3 0 -182596 85369.2 0 -180279 85140.2 0 -177967 84912.2 0 -175662 84685.3 0 -173362 84459.5 0 -171069 84234.7 0 -168782 84010.9 0 -166500 83788 0 -164225 83566.2 0 -161956 83345.3 0 -159692 83125.3 0 -157435 82906.2 0 -155183 82688 0 -152937 82470.8 0 -150698 82254.4 0 -148464 82038.8 0 -146235 81824.1 0 -144013 81610.2 0 -141796 81397.2 0 -139585 81184.9 0 -137380 80973.4 0 -135181 80762.8 0 -132987 80552.8 0 -130799 80343.6 0 -128616 80135.2 0 -126439 79927.4 0 -124268 79720.4 0 -122102 79514.1 0 -119942 79308.5 0 -117787 79103.5 0 -115638 78899.2 0 -113495 78695.6 0 -111357 78492.6 0 -109224 78290.2 0 -107097 78088.5 0 -104976 77887.4 0 -102860 77686.8 0 -100749 77486.9 0 -98643.6 77287.6 0 -96543.7 77088.8 0 -94449.2 76890.6 0 -92360 76692.9 0 -90276.1 76495.8 0 -88197.7 76299.2 0 -86124.5 76103.1 0 -84056.6 75907.6 0 -81994.1 75712.5 0 -79936.8 75518 0 -77884.8 75324 0 -75838 75130.4 0 -73796.5 74937.3 0 -71760.2 74744.7 0 -69729.2 74552.6 0 -67703.3 74360.9 0 -65682.7 74169.6 0 -63667.2 73978.8 0 -61656.9 73788.4 0 -59651.8 73598.5 0 -57651.8 73408.9 0 -55656.9 73219.8 0 -53667.2 73031.1 0 -51682.6 72842.8 0 -49703.2 72654.8 0 -47728.8 72467.3 0 -45759.5 72280.1 0 -43795.3 72093.3 0 -41836.1 71906.8 0 -39882 71720.8 0 -37933 71535.1 0 -35989 71349.7 0 -34050.1 71164.7 0 -32116.1 70980 0 -30187.2 70795.6 0 -28263.3 70611.6 0 -26344.4 70427.9 0 -24430.5 70244.5 0 -22521.5 70061.4 0 -20617.5 69878.6 0 -18718.5 69696.1 0 -16824.5 69514 0 -14935.4 69332.1 0 -13051.3 69150.5 0 -11172 68969.2 0 -9297.76 68788.1 0 -7428.39 68607.4 0 -5563.94 68426.9 0 -3704.4 68246.7 0 -1849.75 68066.7 0 0 67887 0 -279678 105917 0 -277083 105615 0 -274495 105316 0 -271914 105018 0 -269341 104723 0 -266775 104430 0 -264216 104140 0 -261665 103851 0 -259121 103565 0 -256584 103280 0 -254054 102998 0 -251531 102717 0 -249016 102438 0 -246507 102161 0 -244005 101886 0 -241511 101613 0 -239023 101342 0 -236542 101072 0 -234068 100804 0 -231601 100538 0 -229141 100273 0 -226687 100010 0 -224240 99748.2 0 -221800 99488.1 0 -219367 99229.6 0 -216940 98972.6 0 -214520 98717 0 -212106 98462.8 0 -209699 98210.1 0 -207298 97958.7 0 -204904 97708.6 0 -202517 97459.9 0 -200135 97212.5 0 -197761 96966.4 0 -195392 96721.5 0 -193030 96477.8 0 -190674 96235.4 0 -188324 95994.1 0 -185981 95754 0 -183644 95515 0 -181313 95277.2 0 -178988 95040.4 0 -176670 94804.8 0 -174357 94570.2 0 -172051 94336.6 0 -169750 94104.1 0 -167456 93872.6 0 -165168 93642 0 -162885 93412.4 0 -160609 93183.8 0 -158339 92956.1 0 -156074 92729.3 0 -153816 92503.5 0 -151563 92278.5 0 -149316 92054.4 0 -147075 91831.1 0 -144840 91608.7 0 -142611 91387.1 0 -140387 91166.2 0 -138169 90946.2 0 -135957 90727 0 -133751 90508.5 0 -131550 90290.8 0 -129355 90073.8 0 -127165 89857.6 0 -124982 89642 0 -122804 89427.2 0 -120631 89213 0 -118464 88999.5 0 -116303 88786.7 0 -114147 88574.5 0 -111997 88362.9 0 -109852 88152 0 -107713 87941.6 0 -105579 87731.9 0 -103451 87522.8 0 -101328 87314.2 0 -99210.2 87106.3 0 -97098.2 86898.8 0 -94991.6 86692 0 -92890.4 86485.6 0 -90794.6 86279.8 0 -88704.2 86074.5 0 -86619.1 85869.7 0 -84539.3 85665.4 0 -82464.9 85461.6 0 -80395.8 85258.3 0 -78331.9 85055.5 0 -76273.4 84853.1 0 -74220.1 84651.1 0 -72172.1 84449.7 0 -70129.4 84248.6 0 -68091.9 84048 0 -66059.6 83847.8 0 -64032.5 83648 0 -62010.7 83448.6 0 -59994 83249.6 0 -57982.5 83051 0 -55976.2 82852.7 0 -53975 82654.9 0 -51979 82457.4 0 -49988.2 82260.3 0 -48002.4 82063.5 0 -46021.8 81867.1 0 -44046.3 81671 0 -42075.9 81475.2 0 -40110.6 81279.8 0 -38150.4 81084.7 0 -36195.2 80889.9 0 -34245.1 80695.4 0 -32300.1 80501.2 0 -30360.1 80307.3 0 -28425.1 80113.7 0 -26495.2 79920.3 0 -24570.3 79727.3 0 -22650.4 79534.5 0 -20735.5 79342 0 -18825.6 79149.7 0 -16920.7 78957.7 0 -15020.8 78766 0 -13125.9 78574.5 0 -11235.9 78383.2 0 -9350.9 78192.2 0 -7470.84 78001.4 0 -5595.73 77810.9 0 -3725.55 77620.5 0 -1860.31 77430.4 0 0 77240.5 0 -281308 116478 0 -278698 116165 0 -276096 115855 0 -273501 115547 0 -270914 115241 0 -268333 114938 0 -265761 114637 0 -263195 114338 0 -260637 114041 0 -258085 113746 0 -255541 113453 0 -253005 113162 0 -250475 112873 0 -247952 112586 0 -245436 112301 0 -242928 112018 0 -240426 111737 0 -237931 111457 0 -235443 111179 0 -232962 110903 0 -230488 110628 0 -228020 110356 0 -225559 110084 0 -223105 109815 0 -220658 109547 0 -218217 109280 0 -215783 109015 0 -213356 108751 0 -210935 108489 0 -208520 108228 0 -206113 107969 0 -203711 107711 0 -201316 107454 0 -198928 107199 0 -196545 106945 0 -194170 106692 0 -191800 106441 0 -189437 106190 0 -187080 105941 0 -184729 105693 0 -182385 105447 0 -180047 105201 0 -177715 104956 0 -175389 104713 0 -173069 104470 0 -170755 104229 0 -168447 103989 0 -166146 103749 0 -163850 103511 0 -161561 103274 0 -159277 103037 0 -156999 102802 0 -154727 102567 0 -152462 102333 0 -150202 102101 0 -147947 101869 0 -145699 101637 0 -143457 101407 0 -141220 101178 0 -138989 100949 0 -136764 100721 0 -134545 100494 0 -132331 100268 0 -130123 100042 0 -127921 99817 0 -125724 99592.8 0 -123533 99369.3 0 -121348 99146.4 0 -119168 98924.3 0 -116994 98702.7 0 -114826 98481.9 0 -112663 98261.6 0 -110505 98042 0 -108353 97822.9 0 -106207 97604.5 0 -104066 97386.6 0 -101931 97169.3 0 -99800.7 96952.6 0 -97676.2 96736.4 0 -95557.1 96520.7 0 -93443.5 96305.6 0 -91335.2 96090.9 0 -89232.4 95876.8 0 -87134.9 95663.1 0 -85042.9 95450 0 -82956.1 95237.3 0 -80874.7 95025 0 -78798.6 94813.2 0 -76727.9 94601.9 0 -74662.4 94390.9 0 -72602.3 94180.4 0 -70547.4 93970.3 0 -68497.7 93760.6 0 -66453.4 93551.3 0 -64414.3 93342.4 0 -62380.4 93133.9 0 -60351.7 92925.7 0 -58328.2 92717.9 0 -56310 92510.4 0 -54296.9 92303.3 0 -52289 92096.5 0 -50286.3 91890 0 -48288.7 91683.9 0 -46296.3 91478.1 0 -44309 91272.5 0 -42326.9 91067.3 0 -40349.8 90862.4 0 -38377.9 90657.7 0 -36411.1 90453.3 0 -34449.4 90249.2 0 -32492.7 90045.4 0 -30541.2 89841.8 0 -28594.7 89638.4 0 -26653.2 89435.3 0 -24716.8 89232.5 0 -22785.5 89029.9 0 -20859.2 88827.5 0 -18937.9 88625.3 0 -17021.7 88423.3 0 -15110.4 88221.5 0 -13204.2 88020 0 -11302.9 87818.6 0 -9406.66 87617.4 0 -7515.39 87416.4 0 -5629.09 87215.6 0 -3747.77 87015 0 -1871.4 86814.5 0 0 86614.3 0 -282990 127078 0 -280365 126754 0 -277748 126433 0 -275139 126114 0 -272537 125798 0 -269942 125484 0 -267355 125172 0 -264775 124862 0 -262202 124555 0 -259636 124249 0 -257077 123946 0 -254526 123645 0 -251982 123346 0 -249445 123049 0 -246914 122753 0 -244391 122460 0 -241875 122168 0 -239366 121879 0 -236864 121591 0 -234368 121305 0 -231879 121020 0 -229398 120738 0 -226923 120457 0 -224454 120177 0 -221993 119900 0 -219538 119623 0 -217090 119349 0 -214648 119076 0 -212213 118804 0 -209784 118534 0 -207362 118265 0 -204947 117998 0 -202538 117732 0 -200135 117467 0 -197739 117204 0 -195349 116942 0 -192966 116681 0 -190589 116422 0 -188218 116163 0 -185854 115906 0 -183495 115650 0 -181143 115396 0 -178797 115142 0 -176458 114889 0 -174124 114638 0 -171797 114388 0 -169475 114138 0 -167160 113890 0 -164851 113643 0 -162547 113397 0 -160250 113151 0 -157959 112907 0 -155673 112663 0 -153394 112421 0 -151121 112179 0 -148853 111938 0 -146591 111699 0 -144335 111459 0 -142085 111221 0 -139841 110984 0 -137603 110747 0 -135370 110511 0 -133143 110276 0 -130922 110042 0 -128706 109808 0 -126496 109575 0 -124292 109343 0 -122093 109111 0 -119901 108880 0 -117713 108650 0 -115532 108420 0 -113356 108191 0 -111185 107962 0 -109020 107734 0 -106861 107507 0 -104707 107280 0 -102558 107054 0 -100415 106829 0 -98278.1 106604 0 -96146.1 106379 0 -94019.6 106155 0 -91898.5 105931 0 -89782.8 105708 0 -87672.6 105486 0 -85567.7 105263 0 -83468.2 105042 0 -81374.1 104820 0 -79285.3 104599 0 -77201.8 104379 0 -75123.7 104159 0 -73050.9 103939 0 -70983.4 103720 0 -68921.2 103501 0 -66864.3 103283 0 -64812.7 103064 0 -62766.3 102847 0 -60725.1 102629 0 -58689.2 102412 0 -56658.5 102195 0 -54633.1 101979 0 -52612.8 101762 0 -50597.7 101546 0 -48587.9 101331 0 -46583.1 101115 0 -44583.6 100900 0 -42589.2 100686 0 -40600 100471 0 -38615.9 100257 0 -36636.9 100042 0 -34663 99828.6 0 -32694.3 99615 0 -30730.6 99401.6 0 -28772.1 99188.3 0 -26818.6 98975.3 0 -24870.2 98762.5 0 -22926.9 98549.9 0 -20988.7 98337.4 0 -19055.5 98125.2 0 -17127.3 97913.1 0 -15204.2 97701.1 0 -13286.2 97489.4 0 -11373.1 97277.7 0 -9465.09 97066.3 0 -7562.08 96854.9 0 -5664.06 96643.7 0 -3771.05 96432.6 0 -1883.03 96221.7 0 0 96010.9 0 -284726 137718 0 -282086 137384 0 -279454 137052 0 -276829 136722 0 -274212 136395 0 -271602 136070 0 -269000 135747 0 -266405 135427 0 -263817 135109 0 -261236 134793 0 -258663 134479 0 -256097 134167 0 -253538 133858 0 -250986 133550 0 -248441 133245 0 -245903 132941 0 -243372 132639 0 -240848 132340 0 -238331 132042 0 -235821 131745 0 -233318 131451 0 -230821 131159 0 -228331 130868 0 -225849 130578 0 -223372 130291 0 -220903 130005 0 -218440 129721 0 -215984 129438 0 -213535 129156 0 -211092 128877 0 -208655 128598 0 -206225 128322 0 -203802 128046 0 -201385 127772 0 -198975 127499 0 -196570 127228 0 -194173 126958 0 -191781 126689 0 -189396 126422 0 -187018 126155 0 -184645 125890 0 -182279 125626 0 -179919 125364 0 -177565 125102 0 -175217 124841 0 -172876 124582 0 -170540 124324 0 -168211 124066 0 -165887 123810 0 -163570 123555 0 -161259 123300 0 -158954 123047 0 -156654 122795 0 -154361 122543 0 -152074 122293 0 -149792 122043 0 -147517 121794 0 -145247 121546 0 -142983 121299 0 -140725 121053 0 -138473 120807 0 -136226 120562 0 -133986 120318 0 -131751 120075 0 -129522 119832 0 -127298 119590 0 -125080 119349 0 -122868 119108 0 -120662 118869 0 -118461 118629 0 -116266 118391 0 -114076 118153 0 -111892 117915 0 -109713 117678 0 -107541 117442 0 -105373 117207 0 -103211 116971 0 -101055 116737 0 -98904.4 116503 0 -96759 116269 0 -94619.2 116036 0 -92484.8 115803 0 -90355.9 115571 0 -88232.3 115339 0 -86114.2 115108 0 -84001.5 114877 0 -81894.2 114647 0 -79792.3 114417 0 -77695.7 114187 0 -75604.5 113958 0 -73518.6 113729 0 -71438 113500 0 -69362.7 113272 0 -67292.8 113044 0 -65228.1 112816 0 -63168.8 112589 0 -61114.7 112362 0 -59065.8 112136 0 -57022.2 111909 0 -54983.9 111683 0 -52950.7 111457 0 -50922.8 111232 0 -48900.1 111007 0 -46882.6 110782 0 -44870.3 110557 0 -42863.2 110332 0 -40861.2 110108 0 -38864.4 109884 0 -36872.8 109660 0 -34886.3 109436 0 -32904.9 109212 0 -30928.7 108989 0 -28957.6 108766 0 -26991.5 108543 0 -25030.6 108320 0 -23074.8 108097 0 -21124.1 107874 0 -19178.5 107652 0 -17237.9 107430 0 -15302.4 107207 0 -13372 106985 0 -11446.6 106763 0 -9526.25 106541 0 -7610.95 106319 0 -5700.68 106098 0 -3795.44 105876 0 -1895.21 105654 0 0 105433 0 -286517 148402 0 -283862 148057 0 -281214 147713 0 -278574 147373 0 -275941 147034 0 -273316 146699 0 -270698 146365 0 -268088 146034 0 -265484 145705 0 -262888 145378 0 -260300 145054 0 -257718 144732 0 -255144 144411 0 -252577 144093 0 -250017 143777 0 -247463 143463 0 -244917 143151 0 -242378 142841 0 -239846 142533 0 -237321 142227 0 -234803 141922 0 -232291 141620 0 -229787 141319 0 -227289 141020 0 -224798 140722 0 -222314 140426 0 -219836 140132 0 -217365 139840 0 -214901 139548 0 -212443 139259 0 -209992 138971 0 -207547 138685 0 -205109 138400 0 -202677 138116 0 -200252 137834 0 -197834 137553 0 -195421 137273 0 -193015 136995 0 -190615 136718 0 -188222 136443 0 -185835 136168 0 -183454 135895 0 -181080 135623 0 -178711 135352 0 -176349 135083 0 -173993 134814 0 -171643 134546 0 -169299 134280 0 -166962 134015 0 -164630 133750 0 -162304 133487 0 -159985 133224 0 -157671 132963 0 -155364 132702 0 -153062 132443 0 -150766 132184 0 -148476 131926 0 -146192 131669 0 -143914 131413 0 -141642 131157 0 -139376 130903 0 -137115 130649 0 -134860 130396 0 -132611 130144 0 -130368 129892 0 -128130 129641 0 -125899 129391 0 -123672 129141 0 -121452 128892 0 -119237 128644 0 -117028 128397 0 -114824 128149 0 -112626 127903 0 -110434 127657 0 -108247 127412 0 -106066 127167 0 -103890 126923 0 -101720 126679 0 -99555.6 126436 0 -97396.5 126193 0 -95242.8 125951 0 -93094.7 125709 0 -90952 125467 0 -88814.8 125227 0 -86683 124986 0 -84556.6 124746 0 -82435.6 124506 0 -80320 124267 0 -78209.8 124028 0 -76105 123789 0 -74005.5 123551 0 -71911.4 123313 0 -69822.6 123075 0 -67739.2 122838 0 -65661 122601 0 -63588.2 122364 0 -61520.6 122128 0 -59458.3 121891 0 -57401.3 121655 0 -55349.6 121420 0 -53303.1 121184 0 -51261.8 120949 0 -49225.8 120714 0 -47195 120479 0 -45169.4 120244 0 -43149 120010 0 -41133.8 119776 0 -39123.8 119542 0 -37119 119308 0 -35119.3 119074 0 -33124.8 118840 0 -31135.4 118607 0 -29151.2 118373 0 -27172.1 118140 0 -25198.2 117907 0 -23229.3 117674 0 -21265.6 117441 0 -19307 117208 0 -17353.5 116975 0 -15405 116743 0 -13461.7 116510 0 -11523.4 116277 0 -9590.2 116045 0 -7662.06 115812 0 -5738.98 115580 0 -3820.94 115348 0 -1907.95 115115 0 0 114883 0 -288364 159133 0 -285693 158776 0 -283029 158421 0 -280373 158069 0 -277725 157720 0 -275084 157373 0 -272450 157028 0 -269823 156686 0 -267205 156346 0 -264593 156008 0 -261988 155673 0 -259391 155340 0 -256801 155009 0 -254219 154680 0 -251643 154354 0 -249074 154029 0 -246513 153707 0 -243958 153386 0 -241411 153067 0 -238870 152751 0 -236337 152436 0 -233810 152123 0 -231290 151812 0 -228777 151503 0 -226271 151195 0 -223771 150890 0 -221278 150585 0 -218792 150283 0 -216312 149982 0 -213840 149683 0 -211373 149385 0 -208914 149089 0 -206460 148794 0 -204014 148501 0 -201573 148209 0 -199140 147919 0 -196712 147630 0 -194291 147342 0 -191877 147056 0 -189468 146770 0 -187066 146487 0 -184670 146204 0 -182281 145923 0 -179898 145642 0 -177521 145363 0 -175150 145086 0 -172785 144809 0 -170427 144533 0 -168074 144258 0 -165728 143985 0 -163387 143712 0 -161053 143441 0 -158725 143170 0 -156402 142900 0 -154086 142631 0 -151776 142364 0 -149471 142097 0 -147173 141830 0 -144880 141565 0 -142593 141301 0 -140312 141037 0 -138037 140774 0 -135767 140512 0 -133504 140250 0 -131246 139990 0 -128994 139730 0 -126748 139470 0 -124507 139212 0 -122272 138954 0 -120043 138696 0 -117819 138439 0 -115601 138183 0 -113389 137928 0 -111182 137673 0 -108981 137418 0 -106786 137164 0 -104596 136911 0 -102411 136658 0 -100232 136405 0 -98058.9 136153 0 -95891 135902 0 -93728.6 135651 0 -91571.8 135400 0 -89420.3 135150 0 -87274.3 134900 0 -85133.8 134650 0 -82998.7 134401 0 -80869 134152 0 -78744.7 133904 0 -76625.8 133656 0 -74512.3 133408 0 -72404.1 133161 0 -70301.3 132913 0 -68203.8 132666 0 -66111.7 132420 0 -64024.8 132173 0 -61943.3 131927 0 -59867.1 131681 0 -57796.2 131436 0 -55730.6 131190 0 -53670.2 130945 0 -51615.1 130700 0 -49565.2 130455 0 -47520.6 130210 0 -45481.2 129966 0 -43447 129721 0 -41418 129477 0 -39394.3 129233 0 -37375.7 128989 0 -35362.3 128745 0 -33354.1 128501 0 -31351.1 128257 0 -29353.3 128014 0 -27360.6 127770 0 -25373 127526 0 -23390.6 127283 0 -21413.3 127040 0 -19441.1 126796 0 -17474.1 126553 0 -15512.2 126310 0 -13555.4 126066 0 -11603.6 125823 0 -9657 125580 0 -7715.45 125337 0 -5778.98 125093 0 -3847.59 124850 0 -1921.26 124607 0 0 124363 0 -290269 169912 0 -287581 169543 0 -284901 169177 0 -282229 168813 0 -279564 168452 0 -276906 168094 0 -274256 167738 0 -271614 167384 0 -268979 167033 0 -266351 166685 0 -263730 166338 0 -261117 165994 0 -258511 165652 0 -255913 165313 0 -253321 164975 0 -250737 164640 0 -248159 164307 0 -245589 163976 0 -243026 163647 0 -240469 163320 0 -237920 162995 0 -235377 162671 0 -232842 162350 0 -230313 162030 0 -227791 161713 0 -225276 161397 0 -222767 161083 0 -220266 160770 0 -217771 160459 0 -215282 160150 0 -212800 159842 0 -210325 159536 0 -207857 159232 0 -205394 158929 0 -202939 158627 0 -200490 158327 0 -198047 158028 0 -195610 157731 0 -193180 157435 0 -190757 157141 0 -188339 156847 0 -185928 156555 0 -183524 156264 0 -181125 155975 0 -178733 155686 0 -176347 155399 0 -173967 155113 0 -171593 154828 0 -169225 154544 0 -166864 154261 0 -164508 153979 0 -162159 153698 0 -159815 153418 0 -157478 153139 0 -155147 152861 0 -152821 152584 0 -150501 152308 0 -148188 152032 0 -145880 151758 0 -143578 151484 0 -141282 151211 0 -138992 150939 0 -136708 150668 0 -134429 150397 0 -132156 150127 0 -129889 149858 0 -127628 149590 0 -125373 149322 0 -123123 149054 0 -120879 148788 0 -118640 148522 0 -116407 148256 0 -114180 147992 0 -111959 147727 0 -109743 147464 0 -107533 147200 0 -105328 146938 0 -103129 146675 0 -100935 146414 0 -98746.8 146152 0 -96564.3 145891 0 -94387.2 145631 0 -92215.6 145371 0 -90049.5 145111 0 -87888.9 144852 0 -85733.7 144593 0 -83584 144334 0 -81439.6 144076 0 -79300.8 143818 0 -77167.3 143560 0 -75039.2 143303 0 -72916.5 143046 0 -70799.1 142789 0 -68687.1 142532 0 -66580.5 142276 0 -64479.2 142020 0 -62383.2 141764 0 -60292.5 141508 0 -58207.2 141253 0 -56127.1 140997 0 -54052.3 140742 0 -51982.8 140487 0 -49918.6 140232 0 -47859.6 139977 0 -45805.9 139723 0 -43757.4 139468 0 -41714.1 139214 0 -39676.1 138960 0 -37643.2 138705 0 -35615.6 138451 0 -33593.2 138197 0 -31575.9 137943 0 -29563.9 137689 0 -27557 137435 0 -25555.3 137181 0 -23558.7 136927 0 -21567.3 136673 0 -19581.1 136419 0 -17599.9 136165 0 -15623.9 135911 0 -13653.1 135657 0 -11687.3 135403 0 -9726.7 135149 0 -7771.17 134895 0 -5820.74 134640 0 -3875.41 134386 0 -1935.16 134132 0 0 133877 0 -292232 180743 0 -289527 180362 0 -286830 179984 0 -284141 179608 0 -281459 179235 0 -278785 178865 0 -276118 178497 0 -273459 178132 0 -270808 177770 0 -268163 177410 0 -265526 177052 0 -262897 176697 0 -260275 176344 0 -257659 175993 0 -255052 175645 0 -252451 175299 0 -249857 174955 0 -247271 174613 0 -244691 174273 0 -242119 173935 0 -239553 173600 0 -236995 173266 0 -234443 172934 0 -231898 172604 0 -229361 172276 0 -226829 171950 0 -224305 171626 0 -221787 171303 0 -219276 170982 0 -216772 170663 0 -214274 170345 0 -211783 170029 0 -209299 169715 0 -206821 169402 0 -204349 169090 0 -201884 168780 0 -199426 168472 0 -196974 168165 0 -194528 167859 0 -192089 167555 0 -189656 167252 0 -187229 166950 0 -184808 166650 0 -182394 166351 0 -179986 166053 0 -177585 165756 0 -175189 165460 0 -172800 165166 0 -170416 164872 0 -168039 164580 0 -165668 164289 0 -163303 163999 0 -160944 163709 0 -158591 163421 0 -156244 163134 0 -153903 162847 0 -151568 162562 0 -149239 162277 0 -146916 161993 0 -144599 161710 0 -142287 161428 0 -139982 161147 0 -137682 160866 0 -135388 160586 0 -133100 160307 0 -130818 160029 0 -128541 159751 0 -126270 159474 0 -124005 159197 0 -121745 158921 0 -119492 158646 0 -117244 158371 0 -115001 158097 0 -112764 157823 0 -110533 157550 0 -108307 157278 0 -106087 157006 0 -103873 156734 0 -101664 156463 0 -99460.9 156192 0 -97263.1 155922 0 -95070.9 155652 0 -92884.1 155382 0 -90702.8 155113 0 -88527.1 154844 0 -86356.7 154576 0 -84191.9 154307 0 -82032.5 154040 0 -79878.5 153772 0 -77729.9 153505 0 -75586.7 153238 0 -73448.9 152971 0 -71316.5 152704 0 -69189.5 152438 0 -67067.8 152172 0 -64951.5 151906 0 -62840.5 151640 0 -60734.9 151374 0 -58634.6 151109 0 -56539.5 150844 0 -54449.8 150578 0 -52365.4 150313 0 -50286.2 150048 0 -48212.4 149784 0 -46143.7 149519 0 -44080.4 149254 0 -42022.3 148989 0 -39969.4 148725 0 -37921.7 148460 0 -35879.3 148196 0 -33842.1 147931 0 -31810.1 147667 0 -29783.2 147402 0 -27761.6 147137 0 -25745.2 146873 0 -23733.9 146608 0 -21727.8 146344 0 -19726.9 146079 0 -17731.1 145814 0 -15740.4 145549 0 -13755 145284 0 -11774.6 145019 0 -9799.37 144754 0 -7829.27 144489 0 -5864.29 144224 0 -3904.42 143958 0 -1949.66 143693 0 0 143427 0 -294253 191627 0 -291531 191233 0 -288817 190843 0 -286110 190455 0 -283411 190070 0 -280720 189688 0 -278037 189309 0 -275361 188932 0 -272692 188558 0 -270031 188186 0 -267377 187817 0 -264731 187450 0 -262092 187086 0 -259460 186724 0 -256836 186364 0 -254218 186007 0 -251608 185652 0 -249005 185299 0 -246409 184949 0 -243820 184600 0 -241238 184254 0 -238663 183909 0 -236095 183567 0 -233534 183226 0 -230980 182888 0 -228432 182551 0 -225892 182217 0 -223358 181884 0 -220830 181552 0 -218310 181223 0 -215796 180895 0 -213289 180569 0 -210788 180245 0 -208294 179922 0 -205806 179600 0 -203325 179281 0 -200850 178962 0 -198382 178645 0 -195920 178330 0 -193465 178016 0 -191016 177703 0 -188573 177392 0 -186136 177082 0 -183706 176773 0 -181282 176465 0 -178864 176159 0 -176453 175854 0 -174047 175550 0 -171648 175247 0 -169255 174945 0 -166868 174644 0 -164487 174345 0 -162112 174046 0 -159743 173748 0 -157380 173452 0 -155024 173156 0 -152673 172861 0 -150328 172567 0 -147988 172274 0 -145655 171981 0 -143328 171690 0 -141007 171399 0 -138691 171109 0 -136381 170820 0 -134077 170531 0 -131779 170243 0 -129486 169956 0 -127200 169670 0 -124919 169384 0 -122644 169099 0 -120374 168814 0 -118110 168530 0 -115852 168246 0 -113599 167963 0 -111352 167681 0 -109111 167399 0 -106875 167117 0 -104645 166836 0 -102421 166555 0 -100202 166275 0 -97988.1 165995 0 -95780.2 165716 0 -93577.8 165437 0 -91380.8 165158 0 -89189.4 164880 0 -87003.4 164601 0 -84822.9 164324 0 -82647.9 164046 0 -80478.3 163769 0 -78314.1 163492 0 -76155.3 163215 0 -74002 162938 0 -71854 162662 0 -69711.4 162386 0 -67574.2 162110 0 -65442.3 161834 0 -63315.8 161558 0 -61194.6 161282 0 -59078.8 161007 0 -56968.3 160732 0 -54863.1 160456 0 -52763.2 160181 0 -50668.5 159906 0 -48579.2 159631 0 -46495.1 159356 0 -44416.3 159081 0 -42342.8 158806 0 -40274.5 158531 0 -38211.5 158256 0 -36153.7 157981 0 -34101.1 157706 0 -32053.7 157431 0 -30011.6 157156 0 -27974.6 156880 0 -25942.8 156605 0 -23916.3 156330 0 -21894.9 156054 0 -19878.7 155779 0 -17867.7 155503 0 -15861.8 155227 0 -13861.1 154951 0 -11865.5 154675 0 -9875.09 154399 0 -7889.81 154123 0 -5909.67 153846 0 -3934.66 153569 0 -1964.77 153292 0 0 153015 0 -296333 202566 0 -293594 202160 0 -290862 201757 0 -288138 201357 0 -285422 200960 0 -282713 200565 0 -280012 200173 0 -277319 199785 0 -274633 199398 0 -271955 199015 0 -269284 198634 0 -266621 198256 0 -263965 197880 0 -261316 197507 0 -258674 197136 0 -256040 196767 0 -253413 196401 0 -250793 196037 0 -248180 195675 0 -245574 195316 0 -242976 194959 0 -240384 194603 0 -237799 194250 0 -235221 193899 0 -232650 193550 0 -230086 193203 0 -227528 192858 0 -224978 192514 0 -222434 192173 0 -219897 191833 0 -217366 191495 0 -214842 191159 0 -212325 190824 0 -209814 190491 0 -207310 190160 0 -204812 189830 0 -202321 189501 0 -199836 189175 0 -197358 188849 0 -194886 188525 0 -192420 188203 0 -189961 187882 0 -187508 187562 0 -185062 187244 0 -182621 186926 0 -180187 186610 0 -177759 186295 0 -175337 185982 0 -172922 185669 0 -170512 185358 0 -168109 185048 0 -165711 184739 0 -163320 184430 0 -160935 184123 0 -158555 183817 0 -156182 183512 0 -153815 183207 0 -151453 182904 0 -149098 182601 0 -146749 182299 0 -144405 181998 0 -142067 181698 0 -139735 181399 0 -137409 181100 0 -135089 180802 0 -132774 180505 0 -130466 180209 0 -128163 179913 0 -125865 179617 0 -123574 179323 0 -121288 179028 0 -119008 178735 0 -116733 178442 0 -114465 178149 0 -112201 177857 0 -109944 177566 0 -107692 177275 0 -105446 176984 0 -103205 176694 0 -100970 176404 0 -98739.9 176115 0 -96515.8 175826 0 -94297.2 175537 0 -92084.1 175248 0 -89876.5 174960 0 -87674.3 174673 0 -85477.7 174385 0 -83286.5 174098 0 -81100.7 173811 0 -78920.4 173524 0 -76745.5 173237 0 -74576 172951 0 -72411.9 172664 0 -70253.2 172378 0 -68099.9 172092 0 -65952 171806 0 -63809.4 171521 0 -61672.1 171235 0 -59540.2 170949 0 -57413.6 170664 0 -55292.4 170378 0 -53176.4 170093 0 -51065.8 169808 0 -48960.4 169522 0 -46860.3 169237 0 -44765.5 168951 0 -42676 168666 0 -40591.8 168380 0 -38512.7 168095 0 -36439 167809 0 -34370.4 167524 0 -32307.1 167238 0 -30249 166952 0 -28196.2 166666 0 -26148.5 166380 0 -24106 166094 0 -22068.8 165808 0 -20036.7 165521 0 -18009.8 165234 0 -15988.1 164947 0 -13971.5 164660 0 -11960.1 164373 0 -9953.92 164086 0 -7952.85 163798 0 -5956.93 163510 0 -3966.15 163222 0 -1980.51 162934 0 0 162645 0 -298473 213563 0 -295716 213144 0 -292966 212728 0 -290224 212315 0 -287490 211905 0 -284764 211498 0 -282046 211094 0 -279335 210693 0 -276632 210294 0 -273936 209899 0 -271247 209506 0 -268567 209116 0 -265893 208728 0 -263227 208343 0 -260568 207961 0 -257917 207581 0 -255272 207203 0 -252635 206828 0 -250005 206455 0 -247382 206085 0 -244766 205716 0 -242157 205350 0 -239555 204986 0 -236960 204624 0 -234372 204264 0 -231791 203906 0 -229216 203551 0 -226649 203197 0 -224088 202845 0 -221534 202494 0 -218986 202146 0 -216445 201800 0 -213911 201455 0 -211383 201111 0 -208862 200770 0 -206347 200430 0 -203839 200092 0 -201338 199755 0 -198842 199420 0 -196353 199086 0 -193871 198753 0 -191395 198422 0 -188925 198093 0 -186462 197764 0 -184004 197438 0 -181553 197112 0 -179108 196787 0 -176670 196464 0 -174237 196142 0 -171811 195821 0 -169391 195501 0 -166976 195182 0 -164568 194864 0 -162166 194548 0 -159770 194232 0 -157380 193917 0 -154996 193603 0 -152618 193290 0 -150246 192978 0 -147879 192667 0 -145519 192356 0 -143164 192047 0 -140816 191738 0 -138473 191430 0 -136136 191122 0 -133805 190816 0 -131479 190510 0 -129159 190204 0 -126845 189899 0 -124537 189595 0 -122234 189292 0 -119938 188989 0 -117646 188686 0 -115361 188384 0 -113081 188083 0 -110807 187781 0 -108538 187481 0 -106275 187181 0 -104017 186881 0 -101765 186581 0 -99519.1 186282 0 -97278.2 185983 0 -95042.9 185685 0 -92813.1 185387 0 -90588.8 185089 0 -88370 184791 0 -86156.6 184494 0 -83948.7 184197 0 -81746.3 183900 0 -79549.3 183603 0 -77357.7 183307 0 -75171.6 183010 0 -72990.8 182714 0 -70815.4 182418 0 -68645.5 182122 0 -66480.9 181826 0 -64321.6 181530 0 -62167.8 181234 0 -60019.2 180939 0 -57876 180643 0 -55738.1 180347 0 -53605.6 180052 0 -51478.3 179756 0 -49356.3 179460 0 -47239.7 179164 0 -45128.3 178868 0 -43022.2 178572 0 -40921.3 178276 0 -38825.8 177980 0 -36735.4 177684 0 -34650.3 177388 0 -32570.5 177091 0 -30495.9 176794 0 -28426.5 176498 0 -26362.3 176201 0 -24303.3 175904 0 -22249.6 175606 0 -20201 175309 0 -18157.6 175011 0 -16119.4 174713 0 -14086.4 174415 0 -12058.6 174116 0 -10035.9 173817 0 -8018.43 173518 0 -6006.1 173219 0 -3998.91 172919 0 -1996.88 172619 0 0 172319 0 -300674 224619 0 -297898 224187 0 -295130 223757 0 -292371 223331 0 -289619 222908 0 -286874 222489 0 -284138 222072 0 -281409 221658 0 -278688 221248 0 -275974 220840 0 -273268 220435 0 -270570 220032 0 -267879 219633 0 -265195 219236 0 -262518 218842 0 -259849 218450 0 -257187 218061 0 -254532 217674 0 -251885 217290 0 -249244 216908 0 -246611 216529 0 -243984 216152 0 -241365 215777 0 -238753 215404 0 -236147 215033 0 -233548 214664 0 -230956 214298 0 -228371 213933 0 -225793 213571 0 -223221 213210 0 -220656 212851 0 -218098 212494 0 -215547 212139 0 -213002 211785 0 -210463 211434 0 -207931 211084 0 -205406 210735 0 -202887 210388 0 -200374 210043 0 -197868 209699 0 -195368 209357 0 -192875 209016 0 -190388 208676 0 -187907 208338 0 -185432 208001 0 -182964 207666 0 -180502 207332 0 -178046 206998 0 -175596 206667 0 -173153 206336 0 -170715 206006 0 -168284 205678 0 -165858 205351 0 -163439 205024 0 -161026 204699 0 -158618 204374 0 -156217 204051 0 -153822 203728 0 -151432 203407 0 -149049 203086 0 -146671 202766 0 -144299 202447 0 -141933 202129 0 -139573 201811 0 -137219 201494 0 -134870 201178 0 -132528 200862 0 -130191 200547 0 -127859 200233 0 -125534 199919 0 -123214 199606 0 -120900 199293 0 -118591 198981 0 -116289 198670 0 -113992 198359 0 -111700 198048 0 -109414 197738 0 -107134 197428 0 -104859 197118 0 -102590 196809 0 -100326 196500 0 -98068.1 196192 0 -95815.5 195884 0 -93568.5 195576 0 -91326.9 195268 0 -89090.9 194961 0 -86860.3 194654 0 -84635.2 194347 0 -82415.5 194040 0 -80201.3 193733 0 -77992.5 193427 0 -75789.1 193120 0 -73591.1 192814 0 -71398.5 192508 0 -69211.3 192202 0 -67029.5 191896 0 -64853 191590 0 -62681.9 191284 0 -60516.2 190978 0 -58355.8 190672 0 -56200.7 190366 0 -54050.9 190059 0 -51906.5 189753 0 -49767.3 189447 0 -47633.5 189141 0 -45504.9 188834 0 -43381.6 188528 0 -41263.6 188221 0 -39150.8 187914 0 -37043.3 187607 0 -34941.1 187300 0 -32844.1 186993 0 -30752.3 186685 0 -28665.7 186378 0 -26584.4 186070 0 -24508.3 185761 0 -22437.4 185453 0 -20371.7 185144 0 -18311.2 184835 0 -16256 184526 0 -14205.9 184216 0 -12160.9 183907 0 -10121.2 183596 0 -8086.63 183286 0 -6057.23 182975 0 -4032.99 182664 0 -2013.92 182352 0 0 182040 0 -302935 235736 0 -300141 235290 0 -297355 234847 0 -294577 234408 0 -291807 233972 0 -289045 233539 0 -286290 233109 0 -283543 232683 0 -280804 232259 0 -278072 231839 0 -275348 231422 0 -272631 231007 0 -269922 230596 0 -267220 230187 0 -264526 229781 0 -261839 229377 0 -259159 228976 0 -256486 228578 0 -253821 228182 0 -251162 227789 0 -248511 227398 0 -245867 227010 0 -243229 226624 0 -240599 226240 0 -237976 225858 0 -235359 225479 0 -232749 225101 0 -230147 224726 0 -227551 224353 0 -224961 223981 0 -222379 223612 0 -219803 223244 0 -217233 222879 0 -214670 222515 0 -212114 222153 0 -209565 221792 0 -207021 221434 0 -204485 221077 0 -201954 220721 0 -199431 220367 0 -196913 220015 0 -194402 219664 0 -191897 219315 0 -189399 218967 0 -186906 218620 0 -184420 218274 0 -