<?xml version="1.0"?> 
<VTKFile type="StructuredGrid" version="0.1"> 
<StructuredGrid WholeExtent="0 127 0 127 0 0"> 
<Piece Extent="0 127 0 127 0 0"> 
<PointData>
<DataArray type="Float32" Name="E" format="ascii" NumberOfComponents="3"> 
-1.11759e-08 -3.898e+06 0 596267 -3.46757e+06 0 850002 -3.08963e+06 0 1.00672e+06 -2.77103e+06 0 1.10137e+06 -2.49933e+06 0 1.16393e+06 -2.26565e+06 0 1.20481e+06 -2.06227e+06 0 1.23217e+06 -1.8835e+06 0 1.2501e+06 -1.7249e+06 0 1.26155e+06 -1.58307e+06 0 1.26832e+06 -1.45535e+06 0 1.27167e+06 -1.3396e+06 0 1.27246e+06 -1.23413e+06 0 1.27129e+06 -1.13754e+06 0 1.26861e+06 -1.0487e+06 0 1.26473e+06 -966658 0 1.2599e+06 -890618 0 1.25429e+06 -819909 0 1.24803e+06 -753963 0 1.24124e+06 -692288 0 1.23399e+06 -634465 0 1.22635e+06 -580127 0 1.21837e+06 -528957 0 1.2101e+06 -480675 0 1.20155e+06 -435037 0 1.19277e+06 -391825 0 1.18378e+06 -350848 0 1.17458e+06 -311935 0 1.16521e+06 -274933 0 1.15566e+06 -239705 0 1.14596e+06 -206129 0 1.1361e+06 -174092 0 1.12611e+06 -143496 0 1.11598e+06 -114249 0 1.10573e+06 -86268.6 0 1.09535e+06 -59479.5 0 1.08485e+06 -33813.1 0 1.07424e+06 -9206.64 0 1.06353e+06 14397.5 0 1.05271e+06 37052.4 0 1.04179e+06 58806.6 0 1.03077e+06 79705.1 0 1.01966e+06 99789.4 0 1.00845e+06 119098 0 997163 137667 0 985789 155528 0 974334 172714 0 962801 189251 0 951192 205169 0 939511 220490 0 927760 235240 0 915943 249439 0 904062 263108 0 892119 276268 0 880119 288936 0 868062 301129 0 855953 312863 0 843794 324155 0 831588 335018 0 819337 345467 0 807044 355514 0 794711 365172 0 782343 374453 0 769940 383368 0 757506 391928 0 745044 400143 0 732555 408023 0 720043 415578 0 707509 422816 0 694957 429745 0 682389 436375 0 669807 442714 0 657214 448768 0 644612 454545 0 632003 460052 0 619390 465297 0 606774 470285 0 594159 475023 0 581545 479517 0 568936 483773 0 556333 487796 0 543739 491593 0 531155 495167 0 518583 498526 0 506025 501673 0 493483 504613 0 480959 507352 0 468454 509893 0 455971 512241 0 443511 514400 0 431075 516374 0 418666 518168 0 406285 519785 0 393932 521228 0 381611 522502 0 369321 523610 0 357066 524556 0 344845 525342 0 332661 525972 0 320514 526449 0 308406 526776 0 296338 526956 0 284312 526992 0 272328 526886 0 260387 526641 0 248491 526260 0 236641 525745 0 224838 525099 0 213082 524323 0 201376 523420 0 189719 522392 0 178112 521242 0 166557 519970 0 155055 518580 0 143606 517073 0 132212 515451 0 120872 513715 0 109589 511867 0 98361.9 509909 0 87192.6 507842 0 76081.5 505668 0 65029.6 503388 0 54037.4 501003 0 43105.9 498515 0 32235.6 495925 0 21427.4 493233 0 10681.8 490442 0 0 487552 0 1.36642e-08 -3.82839e+06 0 567703 -3.4419e+06 0 829188 -3.07321e+06 0 987868 -2.76162e+06 0 1.08583e+06 -2.493e+06 0 1.15035e+06 -2.26157e+06 0 1.19308e+06 -2.05951e+06 0 1.2218e+06 -1.88167e+06 0 1.24089e+06 -1.7237e+06 0 1.25328e+06 -1.58232e+06 0 1.26084e+06 -1.45492e+06 0 1.26486e+06 -1.33942e+06 0 1.26621e+06 -1.23413e+06 0 1.26553e+06 -1.13769e+06 0 1.26327e+06 -1.04896e+06 0 1.25976e+06 -967003 0 1.25524e+06 -891034 0 1.24991e+06 -820385 0 1.24391e+06 -754487 0 1.23734e+06 -692854 0 1.2303e+06 -635066 0 1.22284e+06 -580758 0 1.21503e+06 -529615 0 1.2069e+06 -481356 0 1.1985e+06 -435739 0 1.18984e+06 -392546 0 1.18096e+06 -351587 0 1.17188e+06 -312689 0 1.1626e+06 -275702 0 1.15314e+06 -240488 0 1.14353e+06 -206924 0 1.13375e+06 -174899 0 1.12383e+06 -144315 0 1.11378e+06 -115078 0 1.10359e+06 -87108.2 0 1.09327e+06 -60329 0 1.08284e+06 -34672.1 0 1.07229e+06 -10074.8 0 1.06163e+06 13520.6 0 1.05086e+06 36167 0 1.03998e+06 57913 0 1.02901e+06 78803.7 0 1.01795e+06 98880.4 0 1.00679e+06 118182 0 995542 136743 0 984209 154598 0 972793 171777 0 961297 188308 0 949725 204219 0 938080 219535 0 926364 234279 0 914580 248473 0 902731 262137 0 890821 275292 0 878851 287955 0 866825 300143 0 854745 311874 0 842615 323161 0 830436 334021 0 818213 344466 0 805947 354510 0 793641 364165 0 781298 373443 0 768920 382356 0 756511 390913 0 744073 399126 0 731608 407004 0 719119 414557 0 706609 421793 0 694079 428721 0 681533 435350 0 668973 441687 0 656402 447740 0 643820 453517 0 631232 459024 0 618639 464268 0 606044 469256 0 593448 473994 0 580854 478488 0 568264 482744 0 555680 486768 0 543104 490566 0 530538 494141 0 517984 497501 0 505443 500649 0 492919 503591 0 480412 506331 0 467925 508874 0 455458 511223 0 443014 513384 0 430595 515361 0 418202 517157 0 405836 518776 0 393499 520222 0 381193 521498 0 368919 522609 0 356678 523557 0 344472 524346 0 332302 524980 0 320170 525460 0 308076 525790 0 296022 525973 0 284009 526013 0 272039 525910 0 260112 525669 0 248229 525292 0 236393 524780 0 224602 524137 0 212860 523366 0 201166 522467 0 189521 521443 0 177927 520297 0 166385 519030 0 154895 517644 0 143458 516141 0 132076 514523 0 120748 512792 0 109476 510949 0 98261 508995 0 87103.2 506933 0 76003.6 504764 0 64963 502488 0 53982.2 500108 0 43061.8 497625 0 32202.7 495040 0 21405.5 492354 0 10670.9 489568 0 0 486683 0 -4.51109e-09 -3.76448e+06 0 541624 -3.41504e+06 0 808711 -3.05685e+06 0 969510 -2.75182e+06 0 1.07045e+06 -2.48653e+06 0 1.13694e+06 -2.25732e+06 0 1.18141e+06 -2.05663e+06 0 1.21149e+06 -1.87973e+06 0 1.23172e+06 -1.72241e+06 0 1.24504e+06 -1.5815e+06 0 1.25338e+06 -1.45444e+06 0 1.25806e+06 -1.33919e+06 0 1.25997e+06 -1.23409e+06 0 1.25978e+06 -1.1378e+06 0 1.25793e+06 -1.04918e+06 0 1.25479e+06 -967321 0 1.25059e+06 -891427 0 1.24555e+06 -820839 0 1.2398e+06 -754992 0 1.23345e+06 -693402 0 1.22661e+06 -635651 0 1.21933e+06 -581375 0 1.21168e+06 -530259 0 1.20371e+06 -482026 0 1.19544e+06 -436430 0 1.18691e+06 -393257 0 1.17815e+06 -352316 0 1.16917e+06 -313435 0 1.15999e+06 -276463 0 1.15063e+06 -241263 0 1.1411e+06 -207712 0 1.1314e+06 -175700 0 1.12156e+06 -145127 0 1.11158e+06 -115902 0 1.10145e+06 -87942.5 0 1.0912e+06 -61173.5 0 1.08083e+06 -35526.4 0 1.07033e+06 -10938.4 0 1.05972e+06 12648 0 1.04901e+06 35285.7 0 1.03819e+06 57023.4 0 1.02726e+06 77906.1 0 1.01624e+06 97975.1 0 1.00513e+06 117269 0 993922 135823 0 982629 153671 0 971253 170843 0 959795 187368 0 948260 203273 0 936650 218583 0 924968 233321 0 913218 247510 0 901402 261169 0 889523 274318 0 877584 286977 0 865588 299161 0 853538 310887 0 841436 322170 0 829286 333026 0 817090 343468 0 804851 353508 0 792571 363160 0 780254 372435 0 767902 381345 0 755517 389900 0 743103 398110 0 730662 405986 0 718197 413537 0 705709 420772 0 693202 427698 0 680678 434326 0 668140 440662 0 655590 446714 0 643029 452490 0 630462 457997 0 617889 463241 0 605314 468228 0 592738 472966 0 580163 477461 0 567592 481717 0 555027 485742 0 542469 489540 0 529921 493117 0 517385 496477 0 504863 499627 0 492356 502570 0 479866 505312 0 467395 507856 0 454945 510207 0 442518 512370 0 430115 514349 0 417737 516147 0 405387 517768 0 393066 519217 0 380775 520496 0 368516 521609 0 356290 522560 0 344099 523352 0 331944 523988 0 319826 524472 0 307746 524805 0 295706 524992 0 283707 525034 0 271751 524935 0 259837 524698 0 247968 524324 0 236144 523816 0 224367 523177 0 212637 522409 0 200956 521515 0 189324 520495 0 177743 519353 0 166213 518090 0 154735 516709 0 143310 515210 0 131939 513597 0 120624 511870 0 109364 510031 0 98160.1 508082 0 87013.9 506025 0 75925.8 503860 0 64896.5 501590 0 53927 499215 0 43017.8 496737 0 32169.8 494157 0 21383.6 491476 0 10660 488695 0 0 485815 0 -9.1386e-09 -3.70548e+06 0 517733 -3.38742e+06 0 788665 -3.04048e+06 0 951605 -2.7417e+06 0 1.05523e+06 -2.47991e+06 0 1.12367e+06 -2.2529e+06 0 1.16983e+06 -2.05363e+06 0 1.20125e+06 -1.8777e+06 0 1.2226e+06 -1.72104e+06 0 1.23684e+06 -1.58061e+06 0 1.24595e+06 -1.4539e+06 0 1.25128e+06 -1.33891e+06 0 1.25375e+06 -1.23401e+06 0 1.25403e+06 -1.13787e+06 0 1.25261e+06 -1.04938e+06 0 1.24982e+06 -967610 0 1.24595e+06 -891794 0 1.24119e+06 -821271 0 1.23568e+06 -755478 0 1.22956e+06 -693933 0 1.22292e+06 -636220 0 1.21583e+06 -581978 0 1.20834e+06 -530891 0 1.20052e+06 -482683 0 1.19239e+06 -437111 0 1.18398e+06 -393958 0 1.17534e+06 -353036 0 1.16646e+06 -314172 0 1.15738e+06 -277216 0 1.14812e+06 -242030 0 1.13867e+06 -208493 0 1.12906e+06 -176494 0 1.11929e+06 -145934 0 1.10937e+06 -116720 0 1.09932e+06 -88771.5 0 1.08913e+06 -62013 0 1.07882e+06 -36375.9 0 1.06838e+06 -11797.5 0 1.05783e+06 11779.7 0 1.04716e+06 34408.6 0 1.03639e+06 56137.8 0 1.02551e+06 77012.2 0 1.01454e+06 97073.4 0 1.00347e+06 116360 0 992303 134907 0 981051 152747 0 969714 169913 0 958294 186431 0 946796 202330 0 935222 217634 0 923574 232366 0 911858 246549 0 900074 260203 0 888227 273348 0 876319 286001 0 864353 298180 0 852332 309902 0 840259 321182 0 828137 332033 0 815968 342471 0 803756 352508 0 791502 362157 0 779211 371429 0 766884 380336 0 754524 388889 0 742134 397097 0 729717 404971 0 717275 412519 0 704810 419752 0 692326 426678 0 679824 433304 0 667307 439639 0 654778 445690 0 642239 451465 0 629692 456971 0 617140 462215 0 604585 467203 0 592028 471941 0 579473 476435 0 566921 480692 0 554374 484717 0 541835 488516 0 529305 492094 0 516787 495455 0 504282 498606 0 491793 501550 0 479320 504293 0 466866 506839 0 454433 509193 0 442022 511357 0 429635 513338 0 417274 515138 0 404939 516762 0 392634 518213 0 380358 519494 0 368114 520610 0 355903 521564 0 343727 522359 0 331586 522998 0 319482 523484 0 307417 523821 0 295391 524011 0 283406 524057 0 271463 523962 0 259562 523727 0 247707 523357 0 235896 522854 0 224132 522218 0 212415 521454 0 200746 520564 0 189127 519548 0 177558 518410 0 166040 517152 0 154575 515774 0 143162 514280 0 131803 512671 0 120500 510949 0 109251 509115 0 98059.3 507171 0 86924.7 505118 0 75848 502958 0 64830.1 500692 0 53871.8 498322 0 42973.8 495849 0 32136.9 493274 0 21361.8 490598 0 10649.1 487823 0 0 484948 0 1.50758e-08 -3.6507e+06 0 495789 -3.35935e+06 0 769107 -3.02403e+06 0 934127 -2.73132e+06 0 1.04021e+06 -2.47312e+06 0 1.11056e+06 -2.24832e+06 0 1.15834e+06 -2.05051e+06 0 1.19107e+06 -1.87556e+06 0 1.21351e+06 -1.71959e+06 0 1.22866e+06 -1.57965e+06 0 1.23854e+06 -1.4533e+06 0 1.24452e+06 -1.33858e+06 0 1.24754e+06 -1.23389e+06 0 1.2483e+06 -1.1379e+06 0 1.24729e+06 -1.04954e+06 0 1.24487e+06 -967871 0 1.24131e+06 -892137 0 1.23683e+06 -821681 0 1.23158e+06 -755944 0 1.22568e+06 -694446 0 1.21924e+06 -636774 0 1.21233e+06 -582567 0 1.20501e+06 -531510 0 1.19733e+06 -483329 0 1.18934e+06 -437781 0 1.18106e+06 -394650 0 1.17253e+06 -353746 0 1.16376e+06 -314901 0 1.15478e+06 -277961 0 1.1456e+06 -242791 0 1.13624e+06 -209268 0 1.12671e+06 -177282 0 1.11702e+06 -146734 0 1.10718e+06 -117532 0 1.09719e+06 -89595.2 0 1.08706e+06 -62847.4 0 1.07681e+06 -37220.6 0 1.06643e+06 -12652 0 1.05593e+06 10915.8 0 1.04532e+06 33535.6 0 1.03459e+06 55256.2 0 1.02376e+06 76122.2 0 1.01283e+06 96175.3 0 1.00181e+06 115454 0 990686 133993 0 979475 151827 0 968177 168985 0 956795 185497 0 945333 201390 0 933794 216687 0 922182 231414 0 910498 245591 0 898747 259240 0 886932 272379 0 875055 285028 0 863119 297203 0 851127 308920 0 839083 320195 0 826989 331043 0 814847 341477 0 802662 351511 0 790435 361156 0 778169 370425 0 765867 379330 0 753532 387879 0 741167 396085 0 728773 403957 0 716354 411504 0 703912 418735 0 691450 425659 0 678971 432284 0 666476 438617 0 653968 444668 0 641450 450442 0 628924 455948 0 616392 461191 0 603856 466178 0 591319 470916 0 578783 475411 0 566250 479669 0 553722 483694 0 541202 487494 0 528690 491072 0 516190 494435 0 503703 497587 0 491230 500532 0 478775 503277 0 466338 505824 0 453921 508179 0 441527 510346 0 429156 512328 0 416811 514131 0 404492 515757 0 392202 517210 0 379941 518494 0 367713 519613 0 355516 520569 0 343355 521367 0 331228 522009 0 319139 522499 0 307088 522838 0 295076 523032 0 283104 523081 0 271175 522989 0 259288 522758 0 247446 522392 0 235648 521892 0 223897 521261 0 212193 520500 0 200537 519614 0 188930 518602 0 177374 517468 0 165868 516214 0 154415 514841 0 143014 513351 0 131668 511747 0 120376 510029 0 109139 508199 0 97958.7 506260 0 86835.5 504212 0 75770.3 502057 0 64763.7 499796 0 53816.7 497431 0 42929.9 494963 0 32104.1 492392 0 21340 489722 0 10638.3 486951 0 0 484082 0 -2.08383e-08 -3.59958e+06 0 475576 -3.33109e+06 0 750083 -3.00748e+06 0 917057 -2.72071e+06 0 1.02539e+06 -2.46618e+06 0 1.09758e+06 -2.2436e+06 0 1.14694e+06 -2.04728e+06 0 1.18096e+06 -1.87333e+06 0 1.20447e+06 -1.71806e+06 0 1.22052e+06 -1.57863e+06 0 1.23116e+06 -1.45265e+06 0 1.23777e+06 -1.3382e+06 0 1.24135e+06 -1.23372e+06 0 1.24258e+06 -1.1379e+06 0 1.24198e+06 -1.04967e+06 0 1.23992e+06 -968106 0 1.23668e+06 -892456 0 1.23248e+06 -822070 0 1.22748e+06 -756391 0 1.2218e+06 -694943 0 1.21556e+06 -637312 0 1.20883e+06 -583141 0 1.20167e+06 -532117 0 1.19415e+06 -483964 0 1.18629e+06 -438440 0 1.17814e+06 -395331 0 1.16972e+06 -354448 0 1.16106e+06 -315621 0 1.15218e+06 -278698 0 1.14309e+06 -243544 0 1.13382e+06 -210036 0 1.12437e+06 -178064 0 1.11475e+06 -147529 0 1.10498e+06 -118339 0 1.09506e+06 -90413.6 0 1.085e+06 -63676.8 0 1.0748e+06 -38060.5 0 1.06448e+06 -13502 0 1.05403e+06 10056.2 0 1.04347e+06 32666.8 0 1.0328e+06 54378.4 0 1.02202e+06 75236 0 1.01113e+06 95280.9 0 1.00015e+06 114551 0 989071 133083 0 977900 150910 0 966641 168061 0 955297 184566 0 943872 200452 0 932369 215744 0 920790 230464 0 909141 244636 0 897422 258279 0 885638 271413 0 873792 284057 0 861886 296227 0 849924 307940 0 837908 319211 0 825842 330055 0 813728 340485 0 801569 350515 0 789368 360158 0 777128 369424 0 764852 378325 0 752541 386872 0 740200 395076 0 727830 402945 0 715434 410490 0 703015 417719 0 690576 424642 0 678118 431265 0 665645 437598 0 653159 443647 0 640661 449421 0 628156 454926 0 615644 460169 0 603128 465156 0 590611 469894 0 578094 474389 0 565580 478646 0 553071 482673 0 540569 486473 0 528076 490052 0 515593 493416 0 503124 496568 0 490669 499516 0 478230 502261 0 465810 504810 0 453410 507167 0 441032 509336 0 428677 511320 0 416348 513125 0 404045 514753 0 391770 516208 0 379525 517495 0 367311 518616 0 355130 519576 0 342983 520376 0 330871 521021 0 318796 521514 0 306759 521857 0 294761 522053 0 282803 522106 0 270887 522017 0 259014 521790 0 247185 521428 0 235400 520931 0 223662 520304 0 211971 519547 0 200328 518665 0 188733 517657 0 177189 516528 0 165696 515277 0 154255 513909 0 142867 512423 0 131532 510823 0 120252 509110 0 109027 507285 0 97858.1 505350 0 86746.4 503307 0 75692.6 501156 0 64697.4 498900 0 53761.6 496540 0 42886 494077 0 32071.2 491512 0 21318.1 488846 0 10627.4 486081 0 0 483217 0 2.22353e-08 -3.55167e+06 0 456910 -3.30282e+06 0 731619 -2.99082e+06 0 900380 -2.70992e+06 0 1.01078e+06 -2.45908e+06 0 1.08476e+06 -2.23874e+06 0 1.13563e+06 -2.04394e+06 0 1.17092e+06 -1.871e+06 0 1.19548e+06 -1.71646e+06 0 1.21241e+06 -1.57754e+06 0 1.2238e+06 -1.45193e+06 0 1.23105e+06 -1.33778e+06 0 1.23517e+06 -1.23352e+06 0 1.23688e+06 -1.13787e+06 0 1.23668e+06 -1.04976e+06 0 1.23498e+06 -968312 0 1.23206e+06 -892751 0 1.22813e+06 -822437 0 1.22338e+06 -756819 0 1.21793e+06 -695422 0 1.21189e+06 -637835 0 1.20534e+06 -583702 0 1.19834e+06 -532710 0 1.19097e+06 -484586 0 1.18324e+06 -439088 0 1.17522e+06 -396003 0 1.16692e+06 -355141 0 1.15836e+06 -316333 0 1.14958e+06 -279428 0 1.14059e+06 -244290 0 1.1314e+06 -210797 0 1.12203e+06 -178839 0 1.11249e+06 -148317 0 1.10278e+06 -119140 0 1.09293e+06 -91226.6 0 1.08293e+06 -64501.2 0 1.0728e+06 -38895.6 0 1.06253e+06 -14347.4 0 1.05214e+06 9200.91 0 1.04163e+06 31802.1 0 1.03101e+06 53504.7 0 1.02027e+06 74353.5 0 1.00943e+06 94390.1 0 998494 113653 0 987457 132177 0 976327 149996 0 965107 167140 0 953801 183639 0 942412 199518 0 930944 214803 0 919400 229518 0 907784 243683 0 896098 257321 0 884346 270450 0 872530 283089 0 860655 295254 0 848722 306962 0 836735 318229 0 824696 329069 0 812610 339496 0 800478 349522 0 788303 359161 0 776088 368424 0 763837 377322 0 751551 385867 0 739234 394068 0 726888 401935 0 714515 409478 0 702119 416706 0 689702 423626 0 677267 430248 0 664815 436580 0 652350 442628 0 639874 448401 0 627389 453905 0 614897 459148 0 602401 464135 0 589904 468873 0 577406 473368 0 564911 477626 0 552421 481652 0 539937 485453 0 527462 489033 0 514997 492398 0 502545 495552 0 490108 498500 0 477686 501247 0 465283 503798 0 452900 506156 0 440538 508327 0 428199 510313 0 415885 512120 0 403598 513750 0 391339 515208 0 379109 516497 0 366910 517621 0 354744 518583 0 342611 519387 0 330514 520035 0 318453 520530 0 306430 520876 0 294446 521076 0 282502 521132 0 270600 521047 0 258740 520823 0 246924 520464 0 235153 519972 0 223427 519348 0 211749 518596 0 200119 517717 0 188537 516713 0 177005 515588 0 165524 514342 0 154095 512977 0 142719 511496 0 131396 509901 0 120128 508192 0 108915 506371 0 97757.6 504441 0 86657.5 502402 0 75615.1 500257 0 64631.2 498006 0 53706.6 495650 0 42842.1 493192 0 32038.5 490632 0 21296.4 487971 0 10616.6 485211 0 0 482352 0 -8.96398e-09 -3.50657e+06 0 439628 -3.27469e+06 0 713732 -2.97406e+06 0 884085 -2.69895e+06 0 996379 -2.45182e+06 0 1.07208e+06 -2.23375e+06 0 1.12441e+06 -2.04048e+06 0 1.16094e+06 -1.86858e+06 0 1.18654e+06 -1.71477e+06 0 1.20434e+06 -1.57638e+06 0 1.21646e+06 -1.45117e+06 0 1.22435e+06 -1.3373e+06 0 1.22901e+06 -1.23327e+06 0 1.23118e+06 -1.1378e+06 0 1.2314e+06 -1.04983e+06 0 1.23005e+06 -968492 0 1.22744e+06 -893022 0 1.2238e+06 -822783 0 1.21929e+06 -757228 0 1.21406e+06 -695884 0 1.20822e+06 -638343 0 1.20185e+06 -584249 0 1.19502e+06 -533291 0 1.18779e+06 -485197 0 1.1802e+06 -439726 0 1.1723e+06 -396665 0 1.16411e+06 -355825 0 1.15567e+06 -317037 0 1.14698e+06 -280150 0 1.13808e+06 -245028 0 1.12898e+06 -211551 0 1.11969e+06 -179608 0 1.11022e+06 -149100 0 1.10059e+06 -119936 0 1.0908e+06 -92034.4 0 1.08087e+06 -65320.5 0 1.07079e+06 -39726 0 1.06058e+06 -15188.3 0 1.05025e+06 8349.94 0 1.03979e+06 30941.5 0 1.02922e+06 52634.9 0 1.01853e+06 73474.9 0 1.00774e+06 93502.9 0 996840 112757 0 985845 131274 0 974755 149085 0 963574 166222 0 952306 182714 0 940954 198586 0 929521 213865 0 918012 228574 0 906429 242734 0 894775 256366 0 883055 269489 0 871270 282123 0 859424 294283 0 847521 305987 0 835562 317250 0 823552 328086 0 811492 338508 0 799387 348531 0 787239 358167 0 775050 367426 0 762823 376322 0 750562 384864 0 738269 393062 0 725946 400927 0 713597 408468 0 701224 415694 0 688829 422613 0 676416 429233 0 663986 435564 0 651542 441611 0 639087 447383 0 626622 452887 0 614151 458129 0 601675 463115 0 589197 467853 0 576719 472348 0 564243 476607 0 551771 480634 0 539306 484435 0 526849 488016 0 514402 491381 0 501967 494537 0 489547 497486 0 477143 500235 0 464756 502787 0 452389 505147 0 440044 507319 0 427721 509308 0 415424 511116 0 403152 512749 0 390908 514209 0 378694 515501 0 366510 516627 0 354358 517592 0 342240 518398 0 330158 519049 0 318111 519548 0 306102 519897 0 294132 520100 0 282202 520159 0 270313 520078 0 258467 519858 0 246664 519502 0 234906 519013 0 223193 518393 0 211528 517645 0 199910 516770 0 188341 515770 0 176821 514649 0 165353 513407 0 153936 512047 0 142572 510570 0 131261 508979 0 120004 507275 0 108803 505459 0 97657.2 503533 0 86568.6 501499 0 75537.6 499358 0 64565 497112 0 53651.7 494761 0 42798.3 492308 0 32005.7 489753 0 21274.6 487097 0 10605.7 484342 0 0 481488 0 1.04774e-09 -3.46396e+06 0 423589 -3.24682e+06 0 696429 -2.9572e+06 0 868162 -2.68783e+06 0 982200 -2.44442e+06 0 1.05954e+06 -2.22863e+06 0 1.1133e+06 -2.03691e+06 0 1.15102e+06 -1.86607e+06 0 1.17764e+06 -1.71301e+06 0 1.19631e+06 -1.57515e+06 0 1.20916e+06 -1.45034e+06 0 1.21766e+06 -1.33678e+06 0 1.22286e+06 -1.23298e+06 0 1.2255e+06 -1.13769e+06 0 1.22612e+06 -1.04987e+06 0 1.22513e+06 -968644 0 1.22283e+06 -893268 0 1.21946e+06 -823108 0 1.2152e+06 -757618 0 1.21019e+06 -696329 0 1.20455e+06 -638835 0 1.19836e+06 -584782 0 1.19169e+06 -533860 0 1.18461e+06 -485797 0 1.17716e+06 -440354 0 1.16939e+06 -397318 0 1.16131e+06 -356500 0 1.15297e+06 -317732 0 1.14439e+06 -280864 0 1.13558e+06 -245760 0 1.12656e+06 -212299 0 1.11735e+06 -180371 0 1.10796e+06 -149876 0 1.0984e+06 -120726 0 1.08868e+06 -92836.8 0 1.07881e+06 -66134.9 0 1.06879e+06 -40551.6 0 1.05864e+06 -16024.7 0 1.04836e+06 7503.3 0 1.03795e+06 30085 0 1.02743e+06 51769 0 1.01679e+06 72600 0 1.00604e+06 92619.4 0 995187 111866 0 984234 130374 0 973184 148178 0 962043 165307 0 950812 181792 0 939497 197658 0 928100 212930 0 916625 227632 0 905075 241787 0 893454 255413 0 881765 268531 0 870011 281160 0 858195 293315 0 846321 305014 0 834391 316273 0 822408 327104 0 810376 337523 0 798298 347542 0 786175 357174 0 774012 366431 0 761811 375323 0 749574 383862 0 737305 392058 0 725006 399921 0 712680 407460 0 700330 414684 0 687958 421601 0 675566 428220 0 663158 434549 0 650735 440596 0 638301 446367 0 625857 451870 0 613405 457111 0 600949 462098 0 588491 466835 0 576032 471331 0 563575 475589 0 551122 479617 0 538675 483419 0 526236 487000 0 513807 490367 0 501390 493523 0 488987 496474 0 476600 499224 0 464230 501777 0 451880 504139 0 439551 506313 0 427244 508303 0 414962 510114 0 402706 511749 0 390478 513212 0 378278 514506 0 366110 515635 0 353973 516602 0 341870 517411 0 329801 518065 0 317769 518566 0 305774 518919 0 293818 519125 0 281901 519187 0 270026 519109 0 258193 518893 0 246404 518541 0 234659 518056 0 222959 517439 0 211306 516695 0 199701 515824 0 188145 514829 0 176638 513711 0 165181 512474 0 153777 511118 0 142424 509645 0 131125 508058 0 119880 506358 0 108691 504547 0 97556.9 502626 0 86479.7 500597 0 75460.2 498460 0 64498.9 496219 0 53596.8 493873 0 42754.5 491425 0 31973 488875 0 21252.9 486224 0 10594.9 483474 0 0 480626 0 -2.32831e-09 -3.42355e+06 0 408668 -3.21927e+06 0 679709 -2.94027e+06 0 852605 -2.67658e+06 0 968241 -2.43687e+06 0 1.04716e+06 -2.22339e+06 0 1.10228e+06 -2.03324e+06 0 1.14118e+06 -1.86346e+06 0 1.16879e+06 -1.71117e+06 0 1.1883e+06 -1.57387e+06 0 1.20188e+06 -1.44947e+06 0 1.211e+06 -1.33622e+06 0 1.21673e+06 -1.23265e+06 0 1.21983e+06 -1.13755e+06 0 1.22085e+06 -1.04987e+06 0 1.22022e+06 -968769 0 1.21823e+06 -893491 0 1.21514e+06 -823411 0 1.21112e+06 -757988 0 1.20633e+06 -696757 0 1.20089e+06 -639311 0 1.19488e+06 -585300 0 1.18837e+06 -534415 0 1.18144e+06 -486385 0 1.17413e+06 -440970 0 1.16647e+06 -397960 0 1.15852e+06 -357165 0 1.15028e+06 -318419 0 1.1418e+06 -281570 0 1.13308e+06 -246484 0 1.12415e+06 -213040 0 1.11502e+06 -181127 0 1.1057e+06 -150647 0 1.09621e+06 -121510 0 1.08656e+06 -93634 0 1.07675e+06 -66944.2 0 1.06679e+06 -41372.5 0 1.0567e+06 -16856.5 0 1.04647e+06 6660.97 0 1.03611e+06 29232.7 0 1.02564e+06 50907.1 0 1.01505e+06 71728.9 0 1.00434e+06 91739.5 0 993536 110977 0 982624 129478 0 971616 147274 0 960513 164396 0 949320 180873 0 938041 196732 0 926679 211998 0 915239 226694 0 903722 240842 0 892134 254463 0 880476 267576 0 868753 280199 0 856967 292350 0 845122 304044 0 833221 315298 0 821266 326125 0 809261 336540 0 797209 346555 0 785113 356184 0 772975 365437 0 760799 374327 0 748587 382863 0 736342 391057 0 724067 398917 0 711764 406454 0 699437 413675 0 687087 420591 0 674717 427209 0 662330 433537 0 649929 439582 0 637515 445352 0 625092 450854 0 612661 456095 0 600225 461082 0 587786 465819 0 575346 470314 0 562908 474573 0 550473 478601 0 538045 482404 0 525624 485986 0 513213 489353 0 500813 492510 0 488427 495462 0 476057 498214 0 463704 500769 0 451371 503132 0 439058 505308 0 426767 507300 0 414501 509113 0 402261 510750 0 390048 512215 0 377864 513512 0 365710 514643 0 353588 515613 0 341499 516425 0 329445 517082 0 317427 517586 0 305446 517942 0 293504 518151 0 281601 518217 0 269740 518142 0 257920 517929 0 246144 517581 0 234412 517099 0 222725 516487 0 211085 515746 0 199493 514879 0 187949 513888 0 176454 512774 0 165010 511541 0 153617 510189 0 142277 508721 0 130990 507139 0 119757 505443 0 108579 503636 0 97456.7 501720 0 86391 499695 0 75382.8 497564 0 64432.8 495327 0 53541.9 492986 0 42710.8 490543 0 31940.3 487998 0 21231.1 485352 0 10584.1 482607 0 0 479764 0 -3.49246e-09 -3.38512e+06 0 394757 -3.19212e+06 0 663567 -2.92328e+06 0 837407 -2.66522e+06 0 954506 -2.4292e+06 0 1.03491e+06 -2.21804e+06 0 1.09136e+06 -2.02947e+06 0 1.13141e+06 -1.86078e+06 0 1.16e+06 -1.70925e+06 0 1.18034e+06 -1.57252e+06 0 1.19462e+06 -1.44854e+06 0 1.20436e+06 -1.3356e+06 0 1.21062e+06 -1.23228e+06 0 1.21418e+06 -1.13737e+06 0 1.2156e+06 -1.04985e+06 0 1.21531e+06 -968867 0 1.21363e+06 -893690 0 1.21082e+06 -823693 0 1.20705e+06 -758340 0 1.20248e+06 -697167 0 1.19723e+06 -639773 0 1.1914e+06 -585805 0 1.18506e+06 -534958 0 1.17827e+06 -486961 0 1.17109e+06 -441577 0 1.16357e+06 -398593 0 1.15572e+06 -357822 0 1.14759e+06 -319097 0 1.13921e+06 -282269 0 1.13058e+06 -247201 0 1.12173e+06 -213774 0 1.11268e+06 -181877 0 1.10344e+06 -151412 0 1.09402e+06 -122289 0 1.08444e+06 -94425.8 0 1.07469e+06 -67748.5 0 1.06479e+06 -42188.6 0 1.05476e+06 -17683.9 0 1.04458e+06 5822.95 0 1.03428e+06 28384.4 0 1.02385e+06 50049.1 0 1.01331e+06 70861.5 0 1.00265e+06 90863.2 0 991886 110092 0 981017 128584 0 970048 146373 0 958984 163487 0 947829 179957 0 936587 195810 0 925261 211069 0 913854 225758 0 902371 239900 0 890815 253515 0 879189 266623 0 867496 279240 0 855741 291386 0 843925 303076 0 832052 314325 0 820125 325148 0 808148 335559 0 796122 345571 0 784052 355196 0 771940 364446 0 759789 373332 0 747601 381866 0 735380 390057 0 723129 397915 0 710849 405449 0 698544 412669 0 686217 419583 0 673869 426199 0 661504 432526 0 649124 438570 0 636731 444339 0 624328 449841 0 611917 455081 0 599501 460067 0 587081 464805 0 574661 469300 0 562241 473559 0 549826 477587 0 537415 481390 0 525012 484973 0 512619 488341 0 500237 491499 0 487869 494453 0 475515 497205 0 463179 499762 0 450862 502127 0 438565 504305 0 426291 506299 0 414041 508114 0 401816 509753 0 389618 511220 0 377449 512519 0 365311 513653 0 353204 514626 0 341130 515440 0 329090 516100 0 317086 516607 0 305119 516966 0 293191 517178 0 281302 517247 0 269454 517176 0 257647 516967 0 245884 516622 0 234165 516144 0 222492 515535 0 210864 514798 0 199284 513935 0 187753 512948 0 176271 511839 0 164839 510609 0 153458 509262 0 142130 507798 0 130855 506220 0 119634 504529 0 108467 502727 0 97356.5 500815 0 86302.4 498795 0 75305.5 496668 0 64366.8 494436 0 53487.1 492100 0 42667.1 489661 0 31907.6 487121 0 21209.4 484481 0 10573.3 481741 0 0 478903 0 3.25963e-09 -3.34846e+06 0 381758 -3.1654e+06 0 647992 -2.90626e+06 0 822561 -2.65376e+06 0 940995 -2.42139e+06 0 1.02282e+06 -2.21257e+06 0 1.08054e+06 -2.02559e+06 0 1.1217e+06 -1.858e+06 0 1.15125e+06 -1.70727e+06 0 1.17241e+06 -1.5711e+06 0 1.1874e+06 -1.44755e+06 0 1.19774e+06 -1.33494e+06 0 1.20452e+06 -1.23187e+06 0 1.20854e+06 -1.13716e+06 0 1.21036e+06 -1.04979e+06 0 1.21042e+06 -968938 0 1.20905e+06 -893865 0 1.2065e+06 -823954 0 1.20298e+06 -758673 0 1.19863e+06 -697561 0 1.19358e+06 -640219 0 1.18792e+06 -586296 0 1.18175e+06 -535488 0 1.17511e+06 -487526 0 1.16806e+06 -442172 0 1.16066e+06 -399216 0 1.15293e+06 -358470 0 1.14491e+06 -319768 0 1.13662e+06 -282959 0 1.12808e+06 -247911 0 1.11932e+06 -214501 0 1.11035e+06 -182620 0 1.10119e+06 -152171 0 1.09184e+06 -123062 0 1.08232e+06 -95212.4 0 1.07264e+06 -68547.8 0 1.0628e+06 -42999.9 0 1.05282e+06 -18506.7 0 1.0427e+06 4989.24 0 1.03245e+06 27540.3 0 1.02207e+06 49195 0 1.01157e+06 69998 0 1.00096e+06 89990.6 0 990238 109211 0 979410 127695 0 968482 145475 0 957457 162582 0 946340 179045 0 935134 194890 0 923843 210142 0 912471 224825 0 901021 238961 0 889497 252570 0 877903 265672 0 866241 278285 0 854515 290425 0 842729 302110 0 830884 313355 0 818985 324174 0 807035 334580 0 795036 344588 0 782992 354210 0 770905 363457 0 758779 372340 0 746616 380871 0 734419 389059 0 722191 396914 0 709935 404447 0 697653 411665 0 685347 418577 0 673022 425191 0 660678 431517 0 648319 437560 0 635947 443328 0 623564 448829 0 611174 454069 0 598777 459054 0 586377 463791 0 573976 468287 0 561576 472546 0 549178 476574 0 536786 480378 0 524401 483962 0 512026 487331 0 499661 490490 0 487310 493444 0 474974 496198 0 462655 498756 0 450354 501123 0 438074 503302 0 425815 505298 0 413581 507115 0 401372 508756 0 389189 510226 0 377036 511527 0 364912 512664 0 352819 513639 0 340760 514457 0 328735 515119 0 316745 515629 0 304792 515991 0 292878 516207 0 281002 516279 0 269168 516211 0 257375 516005 0 245625 515664 0 233919 515190 0 222258 514585 0 210644 513852 0 199076 512992 0 187557 512009 0 176088 510904 0 164668 509679 0 153300 508335 0 141983 506876 0 130720 505302 0 119510 503615 0 108356 501818 0 97256.5 499910 0 86213.8 497895 0 75228.3 495773 0 64300.9 493546 0 53432.4 491215 0 42623.5 488781 0 31875 486246 0 21187.8 483610 0 10562.5 480876 0 0 478043 0 5.82077e-09 -3.31339e+06 0 369588 -3.13914e+06 0 632971 -2.88922e+06 0 808064 -2.64221e+06 0 927707 -2.41347e+06 0 1.01087e+06 -2.207e+06 0 1.06982e+06 -2.02162e+06 0 1.11207e+06 -1.85515e+06 0 1.14256e+06 -1.70521e+06 0 1.16453e+06 -1.56963e+06 0 1.18021e+06 -1.44651e+06 0 1.19115e+06 -1.33424e+06 0 1.19845e+06 -1.23142e+06 0 1.20291e+06 -1.13691e+06 0 1.20512e+06 -1.04971e+06 0 1.20553e+06 -968983 0 1.20447e+06 -894016 0 1.2022e+06 -824194 0 1.19892e+06 -758987 0 1.19479e+06 -697938 0 1.18993e+06 -640649 0 1.18445e+06 -586773 0 1.17844e+06 -536006 0 1.17195e+06 -488079 0 1.16504e+06 -442757 0 1.15776e+06 -399829 0 1.15014e+06 -359109 0 1.14223e+06 -320430 0 1.13403e+06 -283643 0 1.12559e+06 -248613 0 1.11692e+06 -215221 0 1.10802e+06 -183358 0 1.09893e+06 -152924 0 1.08966e+06 -123829 0 1.0802e+06 -95993.7 0 1.07058e+06 -69342 0 1.06081e+06 -43806.5 0 1.05088e+06 -19324.9 0 1.04081e+06 4159.84 0 1.03061e+06 26700.3 0 1.02029e+06 48344.9 0 1.00984e+06 69138.2 0 999270 89121.5 0 988591 108333 0 977806 126808 0 966918 144580 0 955932 161680 0 944852 178135 0 933683 193973 0 922427 209219 0 911089 223895 0 899673 238025 0 888181 251628 0 876618 264724 0 864987 277331 0 853291 289467 0 841534 301147 0 829718 312387 0 817847 323201 0 805923 333604 0 793951 343608 0 781933 353226 0 769872 362469 0 757771 371350 0 745632 379877 0 733459 388063 0 721255 395916 0 709022 403446 