<?xml version="1.0"?> 
<VTKFile type="StructuredGrid" version="0.1"> 
<StructuredGrid WholeExtent="0 127 0 127 0 0"> 
<Piece Extent="0 127 0 127 0 0"> 
<PointData>
<DataArray type="Float32" Name="E" format="ascii" NumberOfComponents="3"> 
-143897 0 0 -130469 6.8685e-09 0 -126859 -6.69388e-09 0 -124798 2.03727e-09 0 -123554 -4.07454e-10 0 -122649 -2.85218e-09 0 -121984 -1.39698e-09 0 -121471 1.5134e-09 0 -121074 -8.14907e-10 0 -120763 -9.31323e-10 0 -120522 1.28057e-09 0 -120338 -5.82077e-09 0 -120202 9.31323e-09 0 -120107 -8.3819e-09 0 -120049 8.61473e-09 0 -120024 -1.04774e-08 0 -120027 2.32831e-09 0 -120058 -2.32831e-10 0 -120113 9.31323e-10 0 -120191 -2.79397e-09 0 -120292 -2.32831e-10 0 -120413 -1.39698e-09 0 -120553 0 0 -120713 0 0 -120891 4.65661e-10 0 -121087 -4.65661e-10 0 -121300 9.31323e-10 0 -121530 4.65661e-10 0 -121777 -1.39698e-09 0 -122041 0 0 -122321 1.39698e-09 0 -122618 3.72529e-09 0 -122930 -1.39698e-09 0 -123259 3.72529e-09 0 -123604 4.65661e-10 0 -123965 -4.65661e-10 0 -124342 9.31323e-10 0 -124736 -9.31323e-10 0 -125146 -4.65661e-10 0 -125573 0 0 -126017 -1.86265e-09 0 -126477 0 0 -126955 -9.31323e-10 0 -127451 9.31323e-10 0 -127964 -1.86265e-09 0 -128495 0 0 -129044 0 0 -129613 0 0 -130200 0 0 -130807 0 0 -131433 0 0 -132080 9.31323e-10 0 -132747 0 0 -133436 9.31323e-10 0 -134146 -9.31323e-10 0 -134879 0 0 -135634 0 0 -136413 0 0 -137215 9.31323e-10 0 -138043 9.31323e-10 0 -138895 0 0 -139774 -9.31323e-10 0 -140679 9.31323e-10 0 -141612 0 0 -142573 -1.86265e-09 0 -143564 1.86265e-09 0 -144585 -9.31323e-10 0 -145637 0 0 -146721 0 0 -147838 -9.31323e-10 0 -148990 0 0 -150178 0 0 -151402 0 0 -152664 9.31323e-10 0 -153966 0 0 -155309 0 0 -156695 -9.31323e-10 0 -158125 1.86265e-09 0 -159601 -3.72529e-09 0 -161125 2.79397e-09 0 -162699 9.31323e-10 0 -164325 -1.86265e-09 0 -166006 1.86265e-09 0 -167743 0 0 -169540 -1.86265e-09 0 -171399 3.72529e-09 0 -173323 -3.72529e-09 0 -175315 3.72529e-09 0 -177380 -1.86265e-09 0 -179520 0 0 -181740 -1.86265e-09 0 -184043 0 0 -186436 -1.86265e-09 0 -188923 0 0 -191509 -1.86265e-09 0 -194201 0 0 -197006 0 0 -199930 3.72529e-09 0 -202983 0 0 -206173 3.72529e-09 0 -209511 -7.45058e-09 0 -213008 1.86265e-09 0 -216676 -1.86265e-09 0 -220529 3.72529e-09 0 -224585 -5.58794e-09 0 -228860 7.45058e-09 0 -233376 -7.45058e-09 0 -238158 1.30385e-08 0 -243232 -7.45058e-09 0 -248631 5.58794e-09 0 -254393 1.86265e-09 0 -260563 0 0 -267196 -7.45058e-09 0 -274357 5.58794e-09 0 -282126 -3.72529e-09 0 -290604 3.72529e-09 0 -299918 -1.86265e-09 0 -310231 1.86265e-09 0 -321759 -9.31323e-09 0 -334802 1.67638e-08 0 -349766 -1.86265e-08 0 -367291 1.30385e-08 0 -388256 -7.45058e-09 0 -414510 3.72529e-09 0 -448383 0 0 -499004 1.86265e-09 0 -581298 -5.58794e-09 0 -835827 1.11759e-08 0 -128223 9362.74 0 -128423 3785.74 0 -126056 2206.66 0 -124519 1400.58 0 -123371 998.364 0 -122543 737.822 0 -121908 565.479 0 -121417 439.67 0 -121031 344.54 0 -120729 269.268 0 -120494 207.942 0 -120314 156.597 0 -120181 112.662 0 -120089 74.3431 0 -120033 40.3716 0 -120009 9.81952 0 -120014 -18.0054 0 -120045 -43.6306 0 -120101 -67.4648 0 -120180 -89.83 0 -120281 -110.984 0 -120402 -131.134 0 -120543 -150.452 0 -120703 -169.079 0 -120882 -187.135 0 -121078 -204.719 0 -121291 -221.918 0 -121522 -238.807 0 -121769 -255.449 0 -122032 -271.903 0 -122312 -288.219 0 -122609 -304.442 0 -122921 -320.614 0 -123250 -336.771 0 -123595 -352.948 0 -123956 -369.176 0 -124333 -385.487 0 -124727 -401.907 0 -125137 -418.463 0 -125564 -435.18 0 -126007 -452.084 0 -126468 -469.198 0 -126946 -486.544 0 -127441 -504.147 0 -127954 -522.028 0 -128485 -540.211 0 -129034 -558.717 0 -129602 -577.569 0 -130189 -596.79 0 -130796 -616.404 0 -131422 -636.433 0 -132068 -656.902 0 -132735 -677.836 0 -133424 -699.26 0 -134134 -721.201 0 -134866 -743.686 0 -135621 -766.743 0 -136399 -790.401 0 -137202 -814.692 0 -138028 -839.648 0 -138881 -865.302 0 -139759 -891.69 0 -140664 -918.849 0 -141596 -946.818 0 -142557 -975.639 0 -143547 -1005.36 0 -144568 -1036.02 0 -145619 -1067.67 0 -146703 -1100.36 0 -147819 -1134.16 0 -148971 -1169.12 0 -150157 -1205.3 0 -151381 -1242.77 0 -152642 -1281.61 0 -153944 -1321.89 0 -155286 -1363.71 0 -156671 -1407.14 0 -158100 -1452.29 0 -159575 -1499.27 0 -161098 -1548.19 0 -162670 -1599.17 0 -164295 -1652.36 0 -165974 -1707.89 0 -167710 -1765.94 0 -169506 -1826.68 0 -171363 -1890.3 0 -173285 -1957.01 0 -175276 -2027.06 0 -177339 -2100.7 0 -179477 -2178.21 0 -181694 -2259.92 0 -183995 -2346.18 0 -186385 -2437.38 0 -188869 -2533.98 0 -191452 -2636.45 0 -194140 -2745.37 0 -196941 -2861.36 0 -199861 -2985.15 0 -202910 -3117.55 0 -206095 -3259.5 0 -209426 -3412.09 0 -212916 -3576.55 0 -216577 -3754.34 0 -220422 -3947.14 0 -224468 -4156.96 0 -228733 -4386.15 0 -233237 -4637.52 0 -238004 -4914.45 0 -243061 -5221.03 0 -248441 -5562.27 0 -254180 -5944.39 0 -260323 -6375.13 0 -266922 -6864.33 0 -274042 -7424.63 0 -281761 -8072.54 0 -290174 -8830.1 0 -299405 -9727.21 0 -309609 -10805.7 0 -320992 -12125.3 0 -333826 -13776.2 0 -348498 -15892.8 0 -365536 -18712.4 0 -385815 -22589.6 0 -410450 -28385.1 0 -442109 -37278.1 0 -482887 -54329.5 0 -541594 -86990.8 0 -568624 -193456 0 -125776 7823.33 0 -125426 5466.51 0 -124717 3583.71 0 -123747 2527 0 -122924 1846.12 0 -122242 1401.51 0 -121697 1084.86 0 -121258 850.955 0 -120908 669.873 0 -120630 525.244 0 -120412 406.277 0 -120244 306.086 0 -120121 219.933 0 -120036 144.523 0 -119985 77.4769 0 -119965 17.0431 0 -119974 -38.096 0 -120008 -88.95 0 -120066 -136.306 0 -120147 -180.787 0 -120249 -222.892 0 -120372 -263.026 0 -120514 -301.525 0 -120675 -338.664 0 -120854 -374.677 0 -121050 -409.762 0 -121264 -444.088 0 -121495 -477.801 0 -121742 -511.031 0 -122006 -543.889 0 -122287 -576.477 0 -122583 -608.883 0 -122895 -641.188 0 -123224 -673.469 0 -123569 -705.791 0 -123930 -738.219 0 -124307 -770.812 0 -124700 -803.625 0 -125110 -836.711 0 -125536 -870.122 0 -125979 -903.905 0 -126439 -938.109 0 -126917 -972.779 0 -127412 -1007.96 0 -127924 -1043.7 0 -128454 -1080.04 0 -129003 -1117.03 0 -129571 -1154.71 0 -130157 -1193.13 0 -130763 -1232.33 0 -131388 -1272.37 0 -132034 -1313.28 0 -132700 -1355.12 0 -133388 -1397.94 0 -134097 -1441.79 0 -134828 -1486.73 0 -135582 -1532.82 0 -136359 -1580.1 0 -137161 -1628.65 0 -137986 -1678.53 0 -138837 -1729.8 0 -139714 -1782.53 0 -140618 -1836.81 0 -141549 -1892.7 0 -142509 -1950.3 0 -143497 -2009.69 0 -144516 -2070.95 0 -145566 -2134.2 0 -146647 -2199.53 0 -147762 -2267.07 0 -148912 -2336.91 0 -150096 -2409.2 0 -151318 -2484.07 0 -152577 -2561.67 0 -153876 -2642.15 0 -155215 -2725.68 0 -156598 -2812.44 0 -158024 -2902.63 0 -159496 -2996.47 0 -161016 -3094.17 0 -162585 -3196 0 -164206 -3302.22 0 -165882 -3413.12 0 -167613 -3529.03 0 -169404 -3650.3 0 -171257 -3777.32 0 -173174 -3910.51 0 -175159 -4050.34 0 -177216 -4197.32 0 -179347 -4352.02 0 -181558 -4515.08 0 -183852 -4687.19 0 -186234 -4869.14 0 -188708 -5061.81 0 -191282 -5266.18 0 -193960 -5483.37 0 -196749 -5714.62 0 -199656 -5961.35 0 -202690 -6225.2 0 -205860 -6508.01 0 -209174 -6811.9 0 -212645 -7139.35 0 -216283 -7493.2 0 -220104 -7876.79 0 -224122 -8294.04 0 -228355 -8749.57 0 -232822 -9248.88 0 -237547 -9798.59 0 -242555 -10406.7 0 -247877 -11082.9 0 -253548 -11839.4 0 -259610 -12691 0 -266111 -13656.7 0 -273112 -14760.8 0 -280682 -16034.8 0 -288910 -17520.1 0 -297902 -19273.2 0 -307793 -21371.1 0 -318756 -23923.8 0 -331011 -27090 0 -344844 -31113.6 0 -360644 -36364.9 0 -378878 -43495.3 0 -400229 -53516.1 0 -425032 -68663.7 0 -453473 -92139 0 -478835 -132932 0 -494242 -189527 0 -123345 7546.95 0 -123674 5743.73 0 -123358 4320.87 0 -122861 3250.03 0 -122314 2491.31 0 -121813 1938.67 0 -121379 1527.7 0 -121015 1211.15 0 -120715 960.5 0 -120472 756.508 0 -120280 586.597 0 -120131 442.081 0 -120022 316.9 0 -119949 206.695 0 -119907 108.268 0 -119894 19.2285 0 -119908 -62.2457 0 -119946 -137.565 0 -120008 -207.839 0 -120092 -273.951 0 -120197 -336.613 0 -120322 -396.409 0 -120466 -453.818 0 -120628 -509.242 0 -120808 -563.021 0 -121005 -615.441 0 -121220 -666.751 0 -121451 -717.166 0 -121699 -766.872 0 -121963 -816.037 0 -122243 -864.807 0 -122540 -913.316 0 -122852 -961.684 0 -123181 -1010.02 0 -123525 -1058.42 0 -123886 -1106.99 0 -124262 -1155.81 0 -124655 -1204.97 0 -125065 -1254.53 0 -125490 -1304.59 0 -125933 -1355.2 0 -126392 -1406.45 0 -126869 -1458.39 0 -127363 -1511.11 0 -127875 -1564.66 0 -128404 -1619.12 0 -128952 -1674.54 0 -129518 -1731 0 -130103 -1788.57 0 -130708 -1847.31 0 -131332 -1907.3 0 -131977 -1968.61 0 -132642 -2031.3 0 -133328 -2095.46 0 -134035 -2161.17 0 -134765 -2228.51 0 -135518 -2297.55 0 -136293 -2368.4 0 -137093 -2441.14 0 -137916 -2515.86 0 -138765 -2592.68 0 -139640 -2671.68 0 -140542 -2753 0 -141471 -2836.73 0 -142428 -2923.01 0 -143414 -3011.97 0 -144430 -3103.74 0 -145477 -3198.47 0 -146556 -3296.32 0 -147668 -3397.46 0 -148814 -3502.07 0 -149995 -3610.32 0 -151213 -3722.44 0 -152468 -3838.63 0 -153763 -3959.12 0 -155099 -4084.18 0 -156476 -4214.07 0 -157898 -4349.08 0 -159365 -4489.53 0 -160879 -4635.77 0 -162443 -4788.15 0 -164058 -4947.1 0 -165727 -5113.03 0 -167452 -5286.45 0 -169235 -5467.86 0 -171080 -5657.84 0 -172989 -5857.02 0 -174965 -6066.09 0 -177012 -6285.82 0 -179133 -6517.06 0 -181332 -6760.73 0 -183614 -7017.89 0 -185982 -7289.69 0 -188442 -7577.43 0 -191000 -7882.56 0 -193660 -8206.73 0 -196430 -8551.78 0 -199317 -8919.81 0 -202327 -9313.2 0 -205471 -9734.68 0 -208757 -10187.4 0 -212195 -10674.9 0 -215798 -11201.4 0 -219578 -11771.8 0 -223550 -12391.8 0 -227730 -13068.1 0 -232138 -13808.7 0 -236793 -14623.1 0 -241722 -15522.8 0 -246950 -16522 0 -252511 -17637.6 0 -258442 -18891.1 0 -264786 -20309.1 0 -271595 -21925.5 0 -278929 -23783.9 0 -286862 -25941.4 0 -295480 -28473.7 0 -304888 -31483.3 0 -315210 -35112 0 -326596 -39560.7 0 -339220 -45118.9 0 -353262 -52222.6 0 -368895 -61520.6 0 -386107 -74058.2 0 -404549 -91327.2 0 -422433 -115672 0 -436628 -148726 0 -438781 -190950 0 -122099 6996.81 0 -122282 5786.82 0 -122237 4630.05 0 -121987 3683.12 0 -121659 2929.97 0 -121315 2342.33 0 -120994 1878.93 0 -120709 1508.34 0 -120467 1206.13 0 -120266 955.018 0 -120104 742.474 0 -119980 559.499 0 -119889 399.499 0 -119830 257.591 0 -119799 130.101 0 -119796 14.2216 0 -119817 -92.22 0 -119862 -190.93 0 -119929 -283.265 0 -120017 -370.315 0 -120125 -452.97 0 -120252 -531.959 0 -120398 -607.889 0 -120562 -681.27 0 -120744 -752.534 0 -120942 -822.049 0 -121158 -890.134 0 -121390 -957.066 0 -121638 -1023.09 0 -121903 -1088.41 0 -122183 -1153.24 0 -122480 -1217.73 0 -122792 -1282.05 0 -123120 -1346.34 0 -123464 -1410.74 0 -123824 -1475.36 0 -124201 -1540.32 0 -124593 -1605.74 0 -125001 -1671.71 0 -125427 -1738.33 0 -125868 -1805.71 0 -126327 -1873.93 0 -126802 -1943.08 0 -127295 -2013.26 0 -127805 -2084.56 0 -128334 -2157.06 0 -128880 -2230.85 0 -129445 -2306.02 0 -130029 -2382.67 0 -130632 -2460.87 0 -131254 -2540.74 0 -131897 -2622.36 0 -132560 -2705.83 0 -133244 -2791.25 0 -133950 -2878.73 0 -134677 -2968.37 0 -135427 -3060.29 0 -136200 -3154.6 0 -136997 -3251.43 0 -137819 -3350.9 0 -138665 -3453.14 0 -139537 -3558.31 0 -140435 -3666.53 0 -141361 -3777.97 0 -142315 -3892.8 0 -143297 -4011.18 0 -144310 -4133.3 0 -145353 -4259.36 0 -146428 -4389.55 0 -147536 -4524.12 0 -148677 -4663.28 0 -149854 -4807.29 0 -151066 -4956.42 0 -152317 -5110.95 0 -153606 -5271.21 0 -154936 -5437.51 0 -156307 -5610.22 0 -157722 -5789.72 0 -159182 -5976.43 0 -160689 -6170.81 0 -162245 -6373.34 0 -163852 -6584.55 0 -165512 -6805.02 0 -167227 -7035.39 0 -169000 -7276.34 0 -170834 -7528.63 0 -172731 -7793.09 0 -174695 -8070.62 0 -176728 -8362.23 0 -178835 -8669.03 0 -181018 -8992.26 0 -183282 -9333.26 0 -185632 -9693.57 0 -188072 -10074.9 0 -190607 -10479.1 0 -193244 -10908.3 0 -195987 -11365.1 0 -198844 -11851.9 0 -201823 -12372.1 0 -204931 -12929.1 0 -208177 -13526.9 0 -211571 -14170.2 0 -215125 -14864.5 0 -218849 -15615.9 0 -222758 -16431.7 0 -226867 -17320.6 0 -231193 -18292.8 0 -235755 -19360.3 0 -240575 -20537.6 0 -245677 -21842.3 0 -251090 -23295.7 0 -256845 -24924.2 0 -262979 -26760.4 0 -269535 -28845.5 0 -276560 -31231.5 0 -284111 -33985.6 0 -292249 -37195.3 0 -301046 -40976.1 0 -310578 -45483.3 0 -320920 -50927.7 0 -332137 -57600.6 0 -344254 -65903.7 0 -357191 -76400.4 0 -370663 -89831.1 0 -383903 -107164 0 -395530 -129223 0 -402866 -156533 0 -404178 -186590 0 -120993 6666.83 0 -121248 5675.06 0 -121289 4742.8 0 -121194 3911.79 0 -121011 3208.39 0 -120793 2623.69 0 -120570 2140.61 0 -120362 1739.25 0 -120177 1402.49 0 -120020 1116.32 0 -119893 869.886 0 -119795 654.829 0 -119725 464.744 0 -119682 294.696 0 -119665 140.864 0 -119672 0.252912 0 -119702 -129.501 0 -119754 -250.285 0 -119827 -363.621 0 -119920 -470.749 0 -120032 -572.687 0 -120163 -670.281 0 -120312 -764.237 0 -120478 -855.156 0 -120662 -943.547 0 -120862 -1029.85 0 -121078 -1114.44 0 -121311 -1197.65 0 -121560 -1279.77 0 -121825 -1361.07 0 -122106 -1441.78 0 -122402 -1522.11 0 -122715 -1602.24 0 -123043 -1682.36 0 -123386 -1762.62 0 -123746 -1843.18 0 -124121 -1924.18 0 -124513 -2005.75 0 -124920 -2088.02 0 -125345 -2171.12 0 -125785 -2255.16 0 -126242 -2340.26 0 -126716 -2426.53 0 -127208 -2514.08 0 -127717 -2603.03 0 -128243 -2693.48 0 -128788 -2785.55 0 -129351 -2879.34 0 -129933 -2974.97 0 -130534 -3072.54 0 -131154 -3172.19 0 -131794 -3274.02 0 -132455 -3378.16 0 -133137 -3484.73 0 -133840 -3593.87 0 -134564 -3705.7 0 -135311 -3820.37 0 -136082 -3938.02 0 -136875 -4058.8 0 -137693 -4182.87 0 -138536 -4310.4 0 -139404 -4441.56 0 -140299 -4576.53 0 -141220 -4715.51 0 -142170 -4858.7 0 -143148 -5006.31 0 -144156 -5158.58 0 -145194 -5315.74 0 -146264 -5478.05 0 -147366 -5645.79 0 -148502 -5819.24 0 -149672 -5998.73 0 -150879 -6184.57 0 -152122 -6377.13 0 -153404 -6576.79 0 -154726 -6783.97 0 -156090 -6999.09 0 -157496 -7222.65 0 -158948 -7455.16 0 -160445 -7697.17 0 -161991 -7949.28 0 -163587 -8212.16 0 -165236 -8486.52 0 -166939 -8773.12 0 -168699 -9072.83 0 -170519 -9386.57 0 -172401 -9715.36 0 -174349 -10060.3 0 -176365 -10422.7 0 -178453 -10803.8 0 -180616 -11205.1 0 -182859 -11628.4 0 -185185 -12075.5 0 -187599 -12548.4 0 -190107 -13049.5 0 -192712 -13581.4 0 -195422 -14146.9 0 -198243 -14749.5 0 -201181 -15392.8 0 -204244 -16081.1 0 -207440 -16819.3 0 -210779 -17613 0 -214271 -18468.6 0 -217925 -19393.5 0 -221756 -20396.5 0 -225776 -21487.8 0 -230001 -22679.3 0 -234447 -23985.1 0 -239133 -25422.2 0 -244080 -27010.8 0 -249312 -28775.5 0 -254854 -30746.2 0 -260735 -32959.4 0 -266988 -35460.8 0 -273648 -38307.2 0 -280752 -41570.5 0 -288339 -45342.2 0 -296447 -49739.8 0 -305108 -54915.7 0 -314335 -61067.7 0 -324113 -68453 0 -334358 -77402.7 0 -344871 -88327 0 -355248 -101709 0 -364797 -118006 0 -372390 -137507 0 -376732 -159848 0 -376222 -184009 0 -120167 6333.77 0 -120390 5531.57 0 -120491 4741.73 0 -120482 4014.62 0 -120400 3367.59 0 -120275 2805.71 0 -120132 2322.42 0 -119990 1907.53 0 -119859 1549.86 0 -119745 1239.26 0 -119652 967.072 0 -119582 726.163 0 -119534 510.782 0 -119509 316.31 0 -119507 139.04 0 -119526 -24.0072 0 -119566 -175.241 0 -119626 -316.623 0 -119706 -449.758 0 -119804 -575.974 0 -119921 -696.375 0 -120056 -811.886 0 -120208 -923.288 0 -120377 -1031.25 0 -120562 -1136.34 0 -120764 -1239.06 0 -120982 -1339.83 0 -121216 -1439.03 0 -121466 -1537.01 0 -121731 -1634.06 0 -122012 -1730.44 0 -122308 -1826.41 0 -122620 -1922.18 0 -122948 -2017.96 0 -123291 -2113.94 0 -123650 -2210.3 0 -124025 -2307.2 0 -124415 -2404.8 0 -124822 -2503.25 0 -125245 -2602.71 0 -125684 -2703.29 0 -126139 -2805.16 0 -126612 -2908.43 0 -127102 -3013.24 0 -127608 -3119.73 0 -128133 -3228.02 0 -128676 -3338.25 0 -129236 -3450.54 0 -129816 -3565.03 0 -130414 -3681.86 0 -131032 -3801.16 0 -131669 -3923.07 0 -132327 -4047.75 0 -133006 -4175.34 0 -133705 -4305.99 0 -134427 -4439.86 0 -135170 -4577.13 0 -135937 -4717.96 0 -136726 -4862.53 0 -137540 -5011.03 0 -138379 -5163.66 0 -139242 -5320.63 0 -140132 -5482.15 0 -141049 -5648.45 0 -141993 -5819.77 0 -142966 -5996.38 0 -143968 -6178.54 0 -145000 -6366.53 0 -146064 -6560.67 0 -147159 -6761.28 0 -148288 -6968.7 0 -149451 -7183.3 0 -150650 -7405.49 0 -151885 -7635.67 0 -153159 -7874.32 0 -154472 -8121.9 0 -155826 -8378.94 0 -157222 -8646.02 0 -158662 -8923.74 0 -160149 -9212.75 0 -161682 -9513.77 0 -163265 -9827.58 0 -164900 -10155 0 -166589 -10497 0 -168333 -10854.5 0 -170136 -11228.6 0 -172000 -11620.6 0 -173929 -12031.7 0 -175924 -12463.4 0 -177989 -12917.2 0 -180128 -13395 0 -182345 -13898.7 0 -184643 -14430.4 0 -187026 -14992.5 0 -189500 -15587.8 0 -192069 -16219.3 0 -194739 -16890.3 0 -197516 -17604.7 0 -200405 -18366.8 0 -203415 -19181.5 0 -206552 -20054.3 0 -209825 -20991.8 0 -213243 -22001.1 0 -216816 -23090.8 0 -220554 -24270.6 0 -224470 -25552.1 0 -228576 -26948.4 0 -232886 -28475.5 0 -237417 -30151.9 0 -242185 -31999.7 0 -247209 -34045.5 0 -252508 -36321.2 0 -258104 -38865.6 0 -264019 -41726.1 0 -270274 -44960.8 0 -276891 -48641.5 0 -283887 -52857.4 0 -291272 -57719.4 0 -299042 -63365.6 0 -307168 -69967.1 0 -315579 -77732.4 0 -324138 -86908.1 0 -332603 -97769.6 0 -340588 -110584 0 -347512 -125546 0 -352637 -142622 0 -355088 -161472 0 -354311 -181094 0 -119451 6055.47 0 -119674 5363.51 0 -119800 4681.92 0 -119845 4035.78 0 -119829 3442.94 0 -119773 2910.24 0 -119694 2437.53 0 -119608 2020.16 0 -119524 1651.65 0 -119450 1325.13 0 -119389 1034.14 0 -119346 772.99 0 -119321 536.811 0 -119314 321.515 0 -119327 123.704 0 -119359 -59.4384 0 -119409 -230.249 0 -119478 -390.668 0 -119565 -542.315 0 -119670 -686.549 0 -119792 -824.514 0 -119931 -957.183 0 -120086 -1085.38 0 -120258 -1209.83 0 -120446 -1331.14 0 -120649 -1449.85 0 -120869 -1566.44 0 -121104 -1681.31 0 -121354 -1794.85 0 -121620 -1907.38 0 -121901 -2019.2 0 -122198 -2130.59 0 -122510 -2241.8 0 -122837 -2353.06 0 -123179 -2464.58 0 -123537 -2576.57 0 -123911 -2689.21 0 -124300 -2802.69 0 -124705 -2917.18 0 -125127 -3032.84 0 -125564 -3149.84 0 -126018 -3268.33 0 -126489 -3388.47 0 -126976 -3510.41 0 -127481 -3634.3 0 -128003 -3760.29 0 -128543 -3888.54 0 -129101 -4019.2 0 -129678 -4152.41 0 -130273 -4288.34 0 -130888 -4427.15 0 -131522 -4569 0 -132176 -4714.06 0 -132851 -4862.5 0 -133547 -5014.5 0 -134264 -5170.25 0 -135004 -5329.93 0 -135766 -5493.75 0 -136551 -5661.91 0 -137360 -5834.63 0 -138193 -6012.15 0 -139052 -6194.69 0 -139936 -6382.51 0 -140847 -6575.88 0 -141785 -6775.08 0 -142752 -6980.39 0 -143747 -7192.14 0 -144772 -7410.65 0 -145828 -7636.27 0 -146916 -7869.39 0 -148037 -8110.39 0 -149191 -8359.7 0 -150381 -8617.79 0 -151607 -8885.12 0 -152870 -9162.23 0 -154173 -9449.68 0 -155515 -9748.05 0 -156899 -10058 0 -158327 -10380.3 0 -159800 -10715.5 0 -161319 -11064.6 0 -162887 -11428.5 0 -164506 -11808.1 0 -166177 -12204.4 0 -167903 -12618.5 0 -169687 -13051.8 0 -171530 -13505.6 0 -173436 -13981.3 0 -175407 -14480.7 0 -177446 -15005.5 0 -179557 -15557.7 0 -181743 -16139.5 0 -184008 -16753.4 0 -186356 -17402 0 -188791 -18088.4 0 -191318 -18816 0 -193942 -19588.6 0 -196668 -20410.4 0 -199502 -21286.2 0 -202450 -22221.6 0 -205519 -23222.6 0 -208717 -24296.2 0 -212051 -25450.7 0 -215531 -26695.1 0 -219164 -28040.1 0 -222962 -29498.1 0 -226934 -31083.5 0 -231094 -32812.9 0 -235452 -34706.1 0 -240022 -36786.2 0 -244817 -39080.8 0 -249852 -41622.4 0 -255139 -44450.2 0 -260692 -47611.2 0 -266521 -51161.7 0 -272632 -55170 0 -279025 -59718.3 0 -285689 -64905.5 0 -292594 -70849.6 0 -299683 -77689.3 0 -306859 -85582.6 0 -313965 -94701 0 -320766 -105212 0 -326927 -117248 0 -332013 -130848 0 -335508 -145894 0 -336916 -162029 0 -335826 -178656 0 -118840 5796.73 0 -119049 5190.65 0 -119191 4586.47 0 -119270 4004.96 0 -119299 3458.95 0 -119293 2956.11 0 -119263 2498.66 0 -119222 2085.37 0 -119179 1712.83 0 -119140 1376.73 0 -119110 1072.53 0 -119092 795.893 0 -119088 542.897 0 -119100 310.087 0 -119128 94.4742 0 -119172 -106.495 0 -119234 -294.997 0 -119312 -472.882 0 -119406 -641.723 0 -119517 -802.863 0 -119645 -957.45 0 -119788 -1106.47 0 -119947 -1250.78 0 -120122 -1391.11 0 -120313 -1528.12 0 -120518 -1662.37 0 -120739 -1794.36 0 -120976 -1924.54 0 -121227 -2053.31 0 -121493 -2181.03 0 -121774 -2308.02 0 -122071 -2434.59 0 -122382 -2561.01 0 -122709 -2687.53 0 -123051 -2814.39 0 -123408 -2941.82 0 -123780 -3070.03 0 -124168 -3199.21 0 -124572 -3329.57 0 -124991 -3461.28 0 -125427 -3594.53 0 -125879 -3729.49 0 -126347 -3866.34 0 -126832 -4005.25 0 -127334 -4146.39 0 -127854 -4289.93 0 -128391 -4436.05 0 -128946 -4584.9 0 -129519 -4736.68 0 -130111 -4891.55 0 -130722 -5049.7 0 -131352 -5211.3 0 -132003 -5376.56 0 -132673 -5545.67 0 -133365 -5718.83 0 -134078 -5896.24 0 -134812 -6078.13 0 -135569 -6264.72 0 -136349 -6456.24 0 -137153 -6652.95 0 -137980 -6855.09 0 -138833 -7062.95 0 -139711 -7276.8 0 -140615 -7496.94 0 -141546 -7723.7 0 -142505 -7957.39 0 -143493 -8198.38 0 -144510 -8447.03 0 -145558 -8703.75 0 -146636 -8968.95 0 -147748 -9243.09 0 -148892 -9526.64 0 -150072 -9820.11 0 -151287 -10124.1 0 -152539 -10439 0 -153829 -10765.7 0 -155159 -11104.8 0 -156529 -11456.9 0 -157943 -11822.8 0 -159400 -12203.5 0 -160903 -12599.8 0 -162454 -13012.7 0 -164054 -13443.3 0 -165706 -13892.8 0 -167411 -14362.3 0 -169173 -14853.4 0 -170992 -15367.4 0 -172872 -15906.1 0 -174816 -16471.3 0 -176826 -17065 0 -178905 -17689.3 0 -181057 -18346.7 0 -183284 -19039.9 0 -185592 -19771.9 0 -187983 -20546 0 -190463 -21365.8 0 -193035 -22235.6 0 -195704 -23159.9 0 -198475 -24143.9 0 -201355 -25193.5 0 -204349 -26315.5 0 -207464 -27517.2 0 -210705 -28807.3 0 -214081 -30195.5 0 -217600 -31693.2 0 -221268 -33313.2 0 -225096 -35070.5 0 -229091 -36982.3 0 -233263 -39068.7 0 -237620 -41353.3 0 -242173 -43863.5 0 -246928 -46631.4 0 -251894 -49695.2 0 -257073 -53099.5 0 -262468 -56896.9 0 -268072 -61149.7 0 -273873 -65930.3 0 -279843 -71322.9 0 -285938 -77423.8 0 -292085 -84339.9 0 -298178 -92184.5 0 -304064 -101069 0 -309533 -111086 0 -314315 -122284 0 -318085 -134634 0 -320496 -147984 0 -321224 -162054 0 -320066 -176380 0 -118294 5561.29 0 -118495 5015.76 0 -118644 4470.69 0 -118745 3939.66 0 -118805 3433.13 0 -118835 2957.83 0 -118843 2517.01 0 -118839 2111.16 0 -118830 1738.89 0 -118822 1397.67 0 -118818 1084.5 0 -118824 796.218 0 -118840 529.775 0 -118869 282.355 0 -118912 51.4251 0 -118969 -165.257 0 -119041 -369.655 0 -119128 -563.478 0 -119231 -748.211 0 -119348 -925.143 0 -119481 -1095.39 0 -119629 -1259.94 0 -119793 -1419.64 0 -119971 -1575.23 0 -120164 -1727.38 0 -120371 -1876.68 0 -120594 -2023.64 0 -120831 -2168.74 0 -121083 -2312.39 0 -121350 -2454.98 0 -121632 -2596.85 0 -121928 -2738.32 0 -122239 -2879.7 0 -122565 -3021.25 0 -122905 -3163.23 0 -123261 -3305.9 0 -123632 -3449.46 0 -124019 -3594.16 0 -124421 -3740.19 0 -124838 -3887.77 0 -125271 -4037.09 0 -125721 -4188.34 0 -126187 -4341.73 0 -126669 -4497.44 0 -127168 -4655.65 0 -127685 -4816.56 0 -128219 -4980.36 0 -128770 -5147.24 0 -129340 -5317.39 0 -129928 -5491.02 0 -130535 -5668.31 0 -131161 -5849.48 0 -131807 -6034.73 0 -132473 -6224.29 0 -133159 -6418.39 0 -133867 -6617.24 0 -134596 -6821.1 0 -135347 -7030.21 0 -136121 -7244.84 0 -136919 -7465.25 0 -137740 -7691.75 0 -138585 -7924.62 0 -139456 -8164.18 0 -140353 -8410.77 0 -141276 -8664.73 0 -142227 -8926.43 0 -143206 -9196.27 0 -144214 -9474.65 0 -145252 -9762.02 0 -146321 -10058.8 0 -147422 -10365.6 0 -148556 -10682.9 0 -149723 -11011.1 0 -150926 -11351.1 0 -152165 -11703.3 0 -153442 -12068.5 0 -154757 -12447.4 0 -156112 -12840.9 0 -157509 -13249.7 0 -158950 -13674.9 0 -160435 -14117.3 0 -161966 -14578.2 0 -163546 -15058.6 0 -165176 -15559.9 0 -166858 -16083.3 0 -168595 -16630.6 0 -170388 -17203.2 0 -172239 -17803 0 -174152 -18431.9 0 -176130 -19092.2 0 -178174 -19786.1 0 -180287 -20516.4 0 -182474 -21285.9 0 -184737 -22097.8 0 -187081 -22955.7 0 -189508 -23863.5 0 -192023 -24825.7 0 -194630 -25847.1 0 -197333 -26933.3 0 -200139 -28090.5 0 -203050 -29325.6 0 -206074 -30646.6 0 -209216 -32062.3 0 -212481 -33583 0 -215875 -35220.1 0 -219406 -36986.9 0 -223079 -38898.5 0 -226900 -40972.2 0 -230876 -43228.1 0 -235012 -45689.2 0 -239313 -48382.2 0 -243782 -51338 0 -248420 -54592.2 0 -253225 -58186.3 0 -258189 -62167.8 0 -263300 -66591.2 0 -268533 -71518.3 0 -273853 -77018.4 0 -279206 -83166.5 0 -284517 -90041.8 0 -289679 -97721.3 0 -294553 -106272 0 -298963 -115738 0 -302696 -126121 0 -305512 -137359 0 -307171 -149309 0 -307467 -161740 0 -306263 -174328 0 -117800 5341.59 0 -117992 4842.69 0 -118145 4342.48 0 -118260 3851.42 0 -118342 3377.46 0 -118399 2926.44 0 -118436 2501.73 0 -118461 2104.71 0 -118480 1735.16 0 -118498 1391.8 0 -118518 1072.74 0 -118544 775.778 0 -118579 498.629 0 -118625 239.065 0 -118681 -5.00501 0 -118751 -235.495 0 -118833 -454.13 0 -118930 -662.451 0 -119040 -861.826 0 -119164 -1053.46 0 -119302 -1238.43 0 -119455 -1417.68 0 -119622 -1592.03 0 -119803 -1762.24 0 -119999 -1928.97 0 -120209 -2092.81 0 -120433 -2254.29 0 -120672 -2413.89 0 -120924 -2572.05 0 -121191 -2729.16 0 -121473 -2885.6 0 -121769 -3041.69 0 -122079 -3197.75 0 -122404 -3354.08 0 -122744 -3510.94 0 -123098 -3668.6 0 -123468 -3827.31 0 -123853 -3987.31 0 -124252 -4148.81 0 -124668 -4312.05 0 -125099 -4477.24 0 -125546 -4644.6 0 -126008 -4814.33 0 -126488 -4986.63 0 -126984 -5161.73 0 -127497 -5339.82 0 -128027 -5521.11 0 -128574 -5705.81 0 -129140 -5894.13 0 -129724 -6086.29 0 -130326 -6282.52 0 -130948 -6483.02 0 -131589 -6688.05 0 -132249 -6897.83 0 -132930 -7112.61 0 -133632 -7332.65 0 -134355 -7558.22 0 -135100 -7789.58 0 -135868 -8027.02 0 -136658 -8270.85 0 -137472 -8521.38 0 -138310 -8778.93 0 -139173 -9043.86 0 -140061 -9316.52 0 -140976 -9597.3 0 -141918 -9886.6 0 -142887 -10184.8 0 -143885 -10492.5 0 -144913 -10810 0 -145971 -11137.9 0 -147060 -11476.8 0 -148181 -11827.2 0 -149336 -12189.6 0 -150525 -12564.9 0 -151750 -12953.6 0 -153011 -13356.6 0 -154311 -13774.6 0 -155650 -14208.5 0 -157029 -14659.2 0 -158451 -15127.7 0 -159916 -15615.2 0 -161426 -16122.8 0 -162983 -16651.7 0 -164589 -17203.3 0 -166246 -17779.2 0 -167955 -18380.9 0 -169719 -19010.2 0 -171540 -19669 0 -173420 -20359.5 0 -175361 -21083.9 0 -177367 -21844.8 0 -179439 -22644.9 0 -181581 -23487.4 0 -183796 -24375.6 0 -186087 -25313.2 0 -188458 -26304.5 0 -190911 -27354 0 -193451 -28466.9 0 -196082 -29648.9 0 -198807 -30906.5 0 -201631 -32246.7 0 -204559 -33677.8 0 -207594 -35208.8 0 -210741 -36850.1 0 -214005 -38613.1 0 -217391 -40511.3 0 -220903 -42559.4 0 -224544 -44774.7 0 -228318 -47176.4 0 -232227 -49786.9 0 -236273 -52631.3 0 -240454 -55738.6 0 -244766 -59141.4 0 -249203 -62876.8 0 -253750 -66986.7 0 -258389 -71517.6 0 -263090 -76520.6 0 -267812 -82050.7 0 -272500 -88164.7 0 -277077 -94918.4 0 -281447 -102362 0 -285489 -110530 0 -289056 -119437 0 -291983 -129060 0 -294093 -139327 0 -295219 -150110 0 -295220 -161227 0 -294017 -172431 0 -117345 5135.92 0 -117529 4672.39 0 -117683 4207.06 0 -117807 3747.61 0 -117905 3300.35 0 -117981 2870.12 0 -118041 2460.14 0 -118089 2072.11 0 -118131 1706.5 0 -118170 1362.83 0 -118211 1040.03 0 -118256 736.613 0 -118308 450.921 0 -118368 181.241 0 -118438 -74.1121 0 -118519 -316.736 0 -118611 -548.115 0 -118716 -769.611 0 -118834 -982.456 0 -118965 -1187.76 0 -119108 -1386.53 0 -119266 -1579.66 0 -119437 -1767.96 0 -119621 -1952.15 0 -119819 -2132.88 0 -120031 -2310.74 0 -120257 -2486.27 0 -120497 -2659.95 0 -120750 -2832.23 0 -121017 -3003.51 0 -121299 -3174.18 0 -121594 -3344.58 0 -121904 -3515.04 0 -122228 -3685.86 0 -122567 -3857.35 0 -122920 -4029.76 0 -123287 -4203.37 0 -123670 -4378.43 0 -124067 -4555.19 0 -124480 -4733.87 0 -124908 -4914.72 0 -125352 -5097.96 0 -125812 -5283.82 0 -126288 -5472.52 0 -126781 -5664.28 0 -127290 -5859.33 0 -127816 -6057.89 0 -128359 -6260.19 0 -128920 -6466.46 0 -129499 -6676.94 0 -130097 -6891.86 0 -130713 -7111.46 0 -131348 -7336 0 -132003 -7565.75 0 -132678 -7800.95 0 -133374 -8041.9 0 -134090 -8288.88 0 -134829 -8542.19 0 -135589 -8802.13 0 -136371 -9069.04 0 -137177 -9343.26 0 -138007 -9625.13 0 -138861 -9915.04 0 -139741 -10213.4 0 -140646 -10520.5 0 -141578 -10837 0 -142537 -11163.2 0 -143524 -11499.6 0 -144540 -11846.8 0 -145586 -12205.2 0 -146662 -12575.5 0 -147770 -12958.3 0 -148911 -13354.3 0 -150085 -13764.2 0 -151295 -14188.6 0 -152540 -14628.5 0 -153822 -15084.6 0 -155142 -15558 0 -156502 -16049.5 0 -157903 -16560.4 0 -159347 -17091.7 0 -160834 -17644.6 0 -162367 -18220.6 0 -163947 -18821.1 0 -165576 -19447.7 0 -167256 -20102 0 -168988 -20786 0 -170776 -21501.7 0 -172620 -22251.2 0 -174522 -23037.2 0 -176487 -23862.1 0 -178515 -24728.9 0 -180609 -25640.9 0 -182773 -26601.5 0 -185008 -27614.6 0 -187318 -28684.6 0 -189706 -29816.2 0 -192175 -31014.6 0 -194728 -32285.9 0 -197369 -33636.4 0 -200101 -35073.5 0 -202927 -36605.4 0 -205851 -38241.1 0 -208876 -39991 0 -212005 -41866.5 0 -215241 -43880.7 0 -218587 -46048 0 -222044 -48384.9 0 -225614 -50909.9 0 -229295 -53644 0 -233086 -56610.5 0 -236982 -59835.7 0 -240976 -63349.1 0 -245056 -67183.2 0 -249206 -71373.8 0 -253401 -75959.8 0 -257611 -80982.2 0 -261791 -86483.5 0 -265887 -92505.1 0 -269829 -99084.7 0 -273529 -106252 0 -276885 -114022 0 -279779 -122389 0 -282080 -131319 0 -283659 -140742 0 -284396 -150546 0 -284195 -160586 0 -283002 -170675 0 -116920 4941.62 0 -117097 4505.64 0 -117250 4067.52 0 -117380 3633.22 0 -117488 3207.69 0 -117579 2794.98 0 -117656 2397.95 0 -117723 2018.41 0 -117784 1657.15 0 -117842 1314.23 0 -117900 989.093 0 -117961 680.821 0 -118028 388.245 0 -118102 110.077 0 -118183 -155.013 0 -118275 -408.334 0 -118377 -651.142 0 -118490 -884.618 0 -118615 -1109.86 0 -118751 -1327.87 0 -118901 -1539.57 0 -119062 -1745.81 0 -119237 -1947.34 0 -119425 -2144.87 0 -119625 -2339.03 0 -119839 -2530.4 0 -120066 -2719.5 0 -120307 -2906.83 0 -120561 -3092.82 0 -120828 -3277.9 0 -121110 -3462.46 0 -121405 -3646.84 0 -121713 -3831.4 0 -122036 -4016.44 0 -122373 -4202.26 0 -122725 -4389.17 0 -123090 -4577.43 0 -123471 -4767.32 0 -123866 -4959.08 0 -124276 -5152.98 0 -124701 -5349.25 0 -125142 -5548.14 0 -125598 -5749.9 0 -126071 -5954.76 0 -126559 -6162.96 0 -127064 -6374.74 0 -127586 -6590.34 0 -12812