<?xml version="1.0"?> 
<VTKFile type="StructuredGrid" version="0.1"> 
<StructuredGrid WholeExtent="0 15 0 15 0 0"> 
<Piece Extent="0 15 0 15 0 0"> 
<PointData>
<DataArray type="Float32" Name="|E|" format="ascii" NumberOfComponents="3"> 
-1.66763e+06 0 0 -1.67397e+06 126603 0 -1.69292e+06 255099 0 -1.72419e+06 387251 0 -1.76705e+06 525337 0 -1.8202e+06 670980 0 -1.88153e+06 826767 0 -1.9459e+06 993608 0 -2.00823e+06 1.17025e+06 0 -2.05128e+06 1.35193e+06 0 -2.07568e+06 1.50735e+06 0 -2.05719e+06 1.61006e+06 0 -2.09047e+06 1.5733e+06 0 -2.1478e+06 1.40205e+06 0 -2.45415e+06 1.22516e+06 0 -5.00721e+06 3.48965e+06 0 -1.65409e+06 0 0 -1.65907e+06 125283 0 -1.67588e+06 252498 0 -1.70425e+06 383296 0 -1.74343e+06 519633 0 -1.79222e+06 663134 0 -1.84879e+06 815574 0 -1.90869e+06 978325 0 -1.96812e+06 1.14881e+06 0 -2.01359e+06 1.32494e+06 0 -2.04603e+06 1.4796e+06 0 -2.04945e+06 1.59581e+06 0 -2.08514e+06 1.60087e+06 0 -2.1614e+06 1.50384e+06 0 -2.40711e+06 1.29202e+06 0 -2.70205e+06 1.30228e+06 0 -1.6404e+06 0 0 -1.64402e+06 123880 0 -1.65872e+06 249725 0 -1.68426e+06 379073 0 -1.71986e+06 513617 0 -1.76447e+06 654908 0 -1.81641e+06 804204 0 -1.87202e+06 962950 0 -1.92814e+06 1.12825e+06 0 -1.97486e+06 1.29898e+06 0 -2.01228e+06 1.45336e+06 0 -2.03172e+06 1.57841e+06 0 -2.07163e+06 1.61913e+06 0 -2.15736e+06 1.57419e+06 0 -2.36274e+06 1.4108e+06 0 -2.60908e+06 1.23046e+06 0 -1.62658e+06 0 0 -1.62881e+06 122395 0 -1.64145e+06 246781 0 -1.66421e+06 374595 0 -1.69634e+06 507278 0 -1.73692e+06 646335 0 -1.78437e+06 792591 0 -1.83579e+06 947508 0 -1.88838e+06 1.10822e+06 0 -1.93526e+06 1.27394e+06 0 -1.97549e+06 1.42791e+06 0 -2.00594e+06 1.559e+06 0 -2.05012e+06 1.6282e+06 0 -2.139e+06 1.62502e+06 0 -2.3222e+06 1.52438e+06 0 -2.59041e+06 1.33721e+06 0 -1.61261e+06 0 0 -1.61347e+06 120830 0 -1.62406e+06 243673 0 -1.6441e+06 369862 0 -1.67287e+06 500637 0 -1.70953e+06 637399 0 -1.75266e+06 780741 0 -1.79995e+06 931925 0 -1.8489e+06 1.08854e+06 0 -1.89491e+06 1.24958e+06 0 -1.93647e+06 1.40284e+06 0 -1.97372e+06 1.53819e+06 0 -2.02151e+06 1.62894e+06 0 -2.10922e+06 1.66117e+06 0 -2.27597e+06 1.61711e+06 0 -2.55378e+06 1.48313e+06 0 -1.5985e+06 0 0 -1.59798e+06 119186 0 -1.60655e+06 240405 0 -1.62393e+06 364879 0 -1.64943e+06 493698 0 -1.68231e+06 628114 0 -1.72124e+06 768621 0 -1.76446e+06 916196 0 -1.80972e+06 1.069e+06 0 -1.854e+06 1.22576e+06 0 -1.89575e+06 1.37782e+06 0 -1.93655e+06 1.51621e+06 0 -1.98672e+06 1.62287e+06 0 -2.07069e+06 1.68398e+06 0 -2.22213e+06 1.68825e+06 0 -2.48103e+06 1.62312e+06 0 -1.58426e+06 0 0 -1.58235e+06 117465 0 -1.58893e+06 236980 0 -1.60371e+06 359655 0 -1.62603e+06 486462 0 -1.65522e+06 618494 0 -1.69011e+06 756203 0 -1.72928e+06 900304 0 -1.77083e+06 1.04947e+06 0 -1.81273e+06 1.20229e+06 0 -1.85372e+06 1.3527e+06 0 -1.89576e+06 1.49311e+06 0 -1.94666e+06 1.6112e+06 0 -2.02568e+06 1.69536e+06 0 -2.16138e+06 1.73813e+06 0 -2.39274e+06 1.73023e+06 0 -1.56989e+06 0 0 -1.56658e+06 115669 0 -1.5712e+06 233400 0 -1.58342e+06 354197 0 -1.60265e+06 478932 0 -1.62827e+06 608545 0 -1.65924e+06 743474 0 -1.69442e+06 884214 0 -1.73222e+06 1.02986e+06 0 -1.77127e+06 1.17899e+06 0 -1.81067e+06 1.32738e+06 0 -1.8523e+06 1.46889e+06 0 -1.90242e+06 1.59497e+06 0 -1.97577e+06 1.69683e+06 0 -2.09581e+06 1.76948e+06 0 -2.29603e+06 1.81089e+06 0 -1.55539e+06 0 0 -1.55068e+06 113800 0 -1.55335e+06 229669 0 -1.56307e+06 348511 0 -1.57929e+06 471111 0 -1.60144e+06 598274 0 -1.62861e+06 730422 0 -1.65985e+06 867898 0 -1.6939e+06 1.01009e+06 0 -1.72976e+06 1.15573e+06 0 -1.7669e+06 1.30179e+06 0 -1.80695e+06 1.44356e+06 0 -1.85499e+06 1.57502e+06 0 -1.92224e+06 1.68989e+06 0 -2.0273e+06 1.7851e+06 0 -2.19693e+06 1.86136e+06 0 -1.54076e+06 0 0 -1.53465e+06 111859 0 -1.53539e+06 225790 0 -1.54266e+06 342603 0 -1.55594e+06 463006 0 -1.57472e+06 587685 0 -1.59819e+06 717042 0 -1.62557e+06 851324 0 -1.65585e+06 990119 0 -1.6883e+06 1.13237e+06 0 -1.72264e+06 1.27589e+06 0 -1.76025e+06 1.41716e+06 0 -1.80524e+06 1.55194e+06 0 -1.86614e+06 1.676e+06 0 -1.95723e+06 1.78758e+06 0 -2.09949e+06 1.88939e+06 0 -1.52601e+06 0 0 -1.51849e+06 109847 0 -1.51732e+06 221767 0 -1.52218e+06 336479 0 -1.53261e+06 454620 0 -1.5481e+06 576780 0 -1.56798e+06 703333 0 -1.59157e+06 834467 0 -1.61808e+06 969910 0 -1.64696e+06 1.10883e+06 0 -1.67811e+06 1.24961e+06 0 -1.71267e+06 1.38975e+06 0 -1.75391e+06 1.52624e+06 0 -1.80831e+06 1.65635e+06 0 -1.88664e+06 1.77935e+06 0 -2.00445e+06 1.89857e+06 0 -1.51113e+06 0 0 -1.5022e+06 107767 0 -1.49914e+06 217601 0 -1.50164e+06 330143 0 -1.50927e+06 445960 0 -1.52157e+06 565562 0 -1.53796e+06 689291 0 -1.55784e+06 817304 0 -1.5806e+06 949425 0 -1.60581e+06 1.08502e+06 0 -1.63347e+06 1.22293e+06 0 -1.66454e+06 1.36137e+06 0 -1.70156e+06 1.49829e+06 0 -1.74945e+06 1.63201e+06 0 -1.81618e+06 1.76246e+06 0 -1.91327e+06 1.89294e+06 0 -1.49614e+06 0 0 -1.48578e+06 105620 0 -1.48085e+06 213298 0 -1.48104e+06 323600 0 -1.48594e+06 437031 0 -1.49514e+06 554034 0 -1.50812e+06 674916 0 -1.52437e+06 799820 0 -1.5434e+06 928637 0 -1.56489e+06 1.06091e+06 0 -1.58888e+06 1.1958e+06 0 -1.61614e+06 1.33209e+06 0 -1.64866e+06 1.46841e+06 0 -1.69011e+06 1.60381e+06 0 -1.74634e+06 1.73863e+06 0 -1.82554e+06 1.87593e+06 0 -1.48102e+06 0 0 -1.46924e+06 103408 0 -1.46245e+06 208859 0 -1.46036e+06 316854 0 -1.4626e+06 427839 0 -1.46878e+06 542199 0 -1.47844e+06 660209 0 -1.49115e+06 782002 0 -1.5065e+06 907521 0 -1.52425e+06 1.03645e+06 0 -1.54444e+06 1.1682e+06 0 -1.56771e+06 1.30196e+06 0 -1.59556e+06 1.43687e+06 0 -1.63072e+06 1.57244e+06 0 -1.67743e+06 1.70925e+06 0 -1.74149e+06 1.84998e+06 0 -1.46579e+06 0 0 -1.45257e+06 101132 0 -1.44395e+06 204288 0 -1.43963e+06 309909 0 -1.43926e+06 418389 0 -1.44249e+06 530060 0 -1.44892e+06 645168 0 -1.45817e+06 763840 0 -1.4699e+06 886058 0 -1.4839e+06 1.01161e+06 0 -1.50025e+06 1.14011e+06 0 -1.51941e+06 1.27104e+06 0 -1.54253e+06 1.40388e+06 0 -1.5716e+06 1.53846e+06 0 -1.60966e+06 1.67547e+06 0 -1.66071e+06 1.81714e+06 0 -1.45044e+06 0 0 -1.43578e+06 98793.1 0 -1.42534e+06 199588 0 -1.41882e+06 302771 0 -1.41591e+06 408686 0 -1.41627e+06 517621 0 -1.41955e+06 629795 0 -1.42542e+06 745329 0 -1.43359e+06 864233 0 -1.44389e+06 986382 0 -1.45636e+06 1.11153e+06 0 -1.47138e+06 1.23937e+06 0 -1.48977e+06 1.36962e+06 0 -1.51299e+06 1.50232e+06 0 -1.54317e+06 1.63816e+06 0 -1.58303e+06 1.77899e+06 0 </DataArray> 
</PointData> 
<Points> 
<DataArray type="Float32" NumberOfComponents="3"> 
0 0.045 0 0.00666667 0.045 0 0.0133333 0.045 0 0.02 0.045 0 0.0266667 0.045 0 0.0333333 0.045 0 0.04 0.045 0 0.0466667 0.045 0 0.0533333 0.045 0 0.06 0.045 0 0.0666667 0.045 0 0.0733333 0.045 0 0.08 0.045 0 0.0866667 0.045 0 0.0933333 0.045 0 0.1 0.045 0 0 0.0457111 0 0.00652356 0.045763 0 0.0130471 0.0458148 0 0.0195707 0.0458667 0 0.0260942 0.0459185 0 0.0326178 0.0459704 0 0.0391413 0.0460222 0 0.0456649 0.0460741 0 0.0521884 0.0461259 0 0.058712 0.0461778 0 0.0652356 0.0462296 0 0.0717591 0.0462815 0 0.0782827 0.0463333 0 0.0848062 0.0463852 0 0.0913298 0.046437 0 0.0978533 0.0464889 0 0 0.0464222 0 0.00638044 0.0465259 0 0.0127609 0.0466296 0 0.0191413 0.0467333 0 0.0255218 0.046837 0 0.0319022 0.0469407 0 0.0382827 0.0470444 0 0.0446631 0.0471481 0 0.0510436 0.0472519 0 0.057424 0.0473556 0 0.0638044 0.0474593 0 0.0701849 0.047563 0 0.0765653 0.0476667 0 0.0829458 0.0477704 0 0.0893262 0.0478741 0 0.0957067 0.0479778 0 0 0.0471333 0 0.00623733 0.0472889 0 0.0124747 0.0474444 0 0.018712 0.0476 0 0.0249493 0.0477556 0 0.0311867 0.0479111 0 0.037424 0.0480667 0 0.0436613 0.0482222 0 0.0498987 0.0483778 0 0.056136 0.0485333 0 0.0623733 0.0486889 0 0.0686107 0.0488444 0 0.074848 0.049 0 0.0810853 0.0491556 0 0.0873227 0.0493111 0 0.09356 0.0494667 0 0 0.0478444 0 0.00609422 0.0480519 0 0.0121884 0.0482593 0 0.0182827 0.0484667 0 0.0243769 0.0486741 0 0.0304711 0.0488815 0 0.0365653 0.0490889 0 0.0426596 0.0492963 0 0.0487538 0.0495037 0 0.054848 0.0497111 0 0.0609422 0.0499185 0 0.0670364 0.0501259 0 0.0731307 0.0503333 0 0.0792249 0.0505407 0 0.0853191 0.0507481 0 0.0914133 0.0509556 0 0 0.0485556 0 0.00595111 0.0488148 0 0.0119022 0.0490741 0 0.0178533 0.0493333 0 0.0238044 0.0495926 0 0.0297556 0.0498519 0 0.0357067 0.0501111 0 0.0416578 0.0503704 0 0.0476089 0.0506296 0 0.05356 0.0508889 0 0.0595111 0.0511481 0 0.0654622 0.0514074 0 0.0714133 0.0516667 0 0.0773644 0.0519259 0 0.0833156 0.0521852 0 0.0892667 0.0524444 0 0 0.0492667 0 0.005808 0.0495778 0 0.011616 0.0498889 0 0.017424 0.0502 0 0.023232 0.0505111 0 0.02904 0.0508222 0 0.034848 0.0511333 0 0.040656 0.0514444 0 0.046464 0.0517556 0 0.052272 0.0520667 0 0.05808 0.0523778 0 0.063888 0.0526889 0 0.069696 0.053 0 0.075504 0.0533111 0 0.081312 0.0536222 0 0.08712 0.0539333 0 0 0.0499778 0 0.00566489 0.0503407 0 0.0113298 0.0507037 0 0.0169947 0.0510667 0 0.0226596 0.0514296 0 0.0283244 0.0517926 0 0.0339893 0.0521556 0 0.0396542 0.0525185 0 0.0453191 0.0528815 0 0.050984 0.0532444 0 0.0566489 0.0536074 0 0.0623138 0.0539704 0 0.0679787 0.0543333 0 0.0736436 0.0546963 0 0.0793084 0.0550593 0 0.0849733 0.0554222 0 0 0.0506889 0 0.00552178 0.0511037 0 0.0110436 0.0515185 0 0.0165653 0.0519333 0 0.0220871 0.0523481 0 0.0276089 0.052763 0 0.0331307 0.0531778 0 0.0386524 0.0535926 0 0.0441742 0.0540074 0 0.049696 0.0544222 0 0.0552178 0.054837 0 0.0607396 0.0552519 0 0.0662613 0.0556667 0 0.0717831 0.0560815 0 0.0773049 0.0564963 0 0.0828267 0.0569111 0 0 0.0514 0 0.00537867 0.0518667 0 0.0107573 0.0523333 0 0.016136 0.0528 0 0.0215147 0.0532667 0 0.0268933 0.0537333 0 0.032272 0.0542 0 0.0376507 0.0546667 0 0.0430293 0.0551333 0 0.048408 0.0556 0 0.0537867 0.0560667 0 0.0591653 0.0565333 0 0.064544 0.057 0 0.0699227 0.0574667 0 0.0753013 0.0579333 0 0.08068 0.0584 0 0 0.0521111 0 0.00523556 0.0526296 0 0.0104711 0.0531481 0 0.0157067 0.0536667 0 0.0209422 0.0541852 0 0.0261778 0.0547037 0 0.0314133 0.0552222 0 0.0366489 0.0557407 0 0.0418844 0.0562593 0 0.04712 0.0567778 0 0.0523556 0.0572963 0 0.0575911 0.0578148 0 0.0628267 0.0583333 0 0.0680622 0.0588519 0 0.0732978 0.0593704 0 0.0785333 0.0598889 0 0 0.0528222 0 0.00509244 0.0533926 0 0.0101849 0.053963 0 0.0152773 0.0545333 0 0.0203698 0.0551037 0 0.0254622 0.0556741 0 0.0305547 0.0562444 0 0.0356471 0.0568148 0 0.0407396 0.0573852 0 0.045832 0.0579556 0 0.0509244 0.0585259 0 0.0560169 0.0590963 0 0.0611093 0.0596667 0 0.0662018 0.060237 0 0.0712942 0.0608074 0 0.0763867 0.0613778 0 0 0.0535333 0 0.00494933 0.0541556 0 0.00989867 0.0547778 0 0.014848 0.0554 0 0.0197973 0.0560222 0 0.0247467 0.0566444 0 0.029696 0.0572667 0 0.0346453 0.0578889 0 0.0395947 0.0585111 0 0.044544 0.0591333 0 0.0494933 0.0597556 0 0.0544427 0.0603778 0 0.059392 0.061 0 0.0643413 0.0616222 0 0.0692907 0.0622444 0 0.07424 0.0628667 0 0 0.0542444 0 0.00480622 0.0549185 0 0.00961244 0.0555926 0 0.0144187 0.0562667 0 0.0192249 0.0569407 0 0.0240311 0.0576148 0 0.0288373 0.0582889 0 0.0336436 0.058963 0 0.0384498 0.059637 0 0.043256 0.0603111 0 0.0480622 0.0609852 0 0.0528684 0.0616593 0 0.0576747 0.0623333 0 0.0624809 0.0630074 0 0.0672871 0.0636815 0 0.0720933 0.0643556 0 0 0.0549556 0 0.00466311 0.0556815 0 0.00932622 0.0564074 0 0.0139893 0.0571333 0 0.0186524 0.0578593 0 0.0233156 0.0585852 0 0.0279787 0.0593111 0 0.0326418 0.060037 0 0.0373049 0.060763 0 0.041968 0.0614889 0 0.0466311 0.0622148 0 0.0512942 0.0629407 0 0.0559573 0.0636667 0 0.0606204 0.0643926 0 0.0652836 0.0651185 0 0.0699467 0.0658444 0 0 0.0556667 0 0.00452 0.0564444 0 0.00904 0.0572222 0 0.01356 0.058 0 0.01808 0.0587778 0 0.0226 0.0595556 0 0.02712 0.0603333 0 0.03164 0.0611111 0 0.03616 0.0618889 0 0.04068 0.0626667 0 0.0452 0.0634444 0 0.04972 0.0642222 0 0.05424 0.065 0 0.05876 0.0657778 0 0.06328 0.0665556 0 0.0678 0.0673333 0 
</DataArray>
</Points> 
</Piece> 
</StructuredGrid> 
</VTKFile> 
