<?xml version="1.0"?> 
<VTKFile type="StructuredGrid" version="0.1"> 
<StructuredGrid WholeExtent="0 15 0 15 0 0"> 
<Piece Extent="0 15 0 15 0 0"> 
<PointData>
<DataArray type="Float32" Name="|E|" format="ascii" NumberOfComponents="3"> 
-1.58303e+06 1.779e+06 0 -1.64493e+06 1.83434e+06 0 -1.71187e+06 1.88729e+06 0 -1.78501e+06 1.93718e+06 0 -1.86592e+06 1.98325e+06 0 -1.95654e+06 2.02448e+06 0 -2.05947e+06 2.05953e+06 0 -2.17799e+06 2.08649e+06 0 -2.31647e+06 2.10247e+06 0 -2.48057e+06 2.10277e+06 0 -2.67795e+06 2.07913e+06 0 -2.91912e+06 2.01628e+06 0 -3.21941e+06 1.88421e+06 0 -3.60167e+06 1.62137e+06 0 -4.09925e+06 1.09507e+06 0 -4.73941e+06 2.86102e-06 0 -1.53911e+06 1.9191e+06 0 -1.6055e+06 1.97052e+06 0 -1.67738e+06 2.02055e+06 0 -1.75593e+06 2.06875e+06 0 -1.84269e+06 2.11454e+06 0 -1.93964e+06 2.15715e+06 0 -2.04941e+06 2.1955e+06 0 -2.17549e+06 2.22799e+06 0 -2.32258e+06 2.25212e+06 0 -2.49718e+06 2.26376e+06 0 -2.70853e+06 2.25566e+06 0 -2.97025e+06 2.21444e+06 0 -3.30345e+06 2.11399e+06 0 -3.74205e+06 1.90054e+06 0 -4.34138e+06 1.45615e+06 0 -5.18083e+06 499335 0 -1.48731e+06 2.07236e+06 0 -1.55745e+06 2.1214e+06 0 -1.63338e+06 2.17001e+06 0 -1.71629e+06 2.2179e+06 0 -1.80775e+06 2.26473e+06 0 -1.9098e+06 2.30999e+06 0 -2.02514e+06 2.35292e+06 0 -2.15745e+06 2.39234e+06 0 -2.31181e+06 2.42636e+06 0 -2.49541e+06 2.45175e+06 0 -2.71884e+06 2.46272e+06 0 -2.99824e+06 2.44845e+06 0 -3.3594e+06 2.38751e+06 0 -3.84545e+06 2.23492e+06 0 -4.53097e+06 1.88914e+06 0 -5.54209e+06 1.09807e+06 0 -1.42242e+06 2.23712e+06 0 -1.49541e+06 2.28503e+06 0 -1.57435e+06 2.33339e+06 0 -1.66046e+06 2.38214e+06 0 -1.75531e+06 2.43113e+06 0 -1.86098e+06 2.48016e+06 0 -1.98026e+06 2.52885e+06 0 -2.11697e+06 2.57657e+06 0 -2.27646e+06 2.62219e+06 0 -2.46649e+06 2.66362e+06 0 -2.69864e+06 2.6969e+06 0 -2.99095e+06 2.71428e+06 0 -3.37291e+06 2.69967e+06 0 -3.89515e+06 2.61784e+06 0 -4.64885e+06 2.38529e+06 0 -5.8019e+06 1.78338e+06 0 -1.33982e+06 2.40921e+06 0 -1.41468e+06 2.45685e+06 0 -1.4955e+06 2.50581e+06 0 -1.5835e+06 2.55619e+06 0 -1.68024e+06 2.60813e+06 0 -1.78781e+06 2.66172e+06 0 -1.90902e+06 2.71704e+06 0 -2.04775e+06 2.77406e+06 0 -2.20951e+06 2.83251e+06 0 -2.40236e+06 2.89165e+06 0 -2.6385e+06 2.94961e+06 0 -2.93726e+06 3.00209e+06 0 -3.3308e+06 3.03896e+06 0 -3.87564e+06 3.03568e+06 0 -4.67708e+06 2.92859e+06 0 -5.94087e+06 2.53637e+06 0 -1.23694e+06 2.58225e+06 0 -1.31267e+06 2.63004e+06 0 -1.39421e+06 2.67996e+06 0 -1.48273e+06 2.73232e+06 0 -1.57976e+06 2.78749e+06 0 -1.68734e+06 2.84592e+06 0 -1.80823e+06 2.90812e+06 0 -1.94625e+06 2.9747e+06 0 -2.1069e+06 3.04637e+06 0 -2.29825e+06 3.12379e+06 0 -2.5327e+06 3.20738e+06 0 -2.83017e+06 3.29656e+06 0 -3.22437e+06 3.3877e+06 0 -3.77605e+06 3.46798e+06 0 -4.60215e+06 3.49584e+06 0 -5.94336e+06 3.3322e+06 0 -1.11437e+06 2.74881e+06 0 -1.19008e+06 2.7967e+06 0 -1.27128e+06 2.84746e+06 0 -1.35907e+06 2.9016e+06 0 -1.45489e+06 2.95971e+06 0 -1.56066e+06 3.02256e+06 0 -1.67901e+06 3.09113e+06 0 -1.81358e+06 3.16667e+06 0 -1.96964e+06 3.2508e+06 0 -2.15498e+06 3.34566e+06 0 -2.38172e+06 3.45398e+06 0 -2.66956e+06 3.57911e+06 0 -3.05251e+06 3.7243e+06 0 -3.5935e+06 3.88958e+06 0 -4.41822e+06 4.0583e+06 0 -5.79932e+06 4.14098e+06 0 -976146 2.90231e+06 0 -1.05121e+06 2.9498e+06 0 -1.13128e+06 3.00082e+06 0 -1.21735e+06 3.05603e+06 0 -1.31075e+06 3.11623e+06 0 -1.41323e+06 3.18248e+06 0 -1.52719e+06 3.25617e+06 0 -1.65597e+06 3.33912e+06 0 -1.80439e+06 3.43384e+06 0 -1.97969e+06 3.54384e+06 0 -2.19313e+06 3.6741e+06 0 -2.46336e+06 3.83183e+06 0 -2.82317e+06 4.02739e+06 0 -3.33513e+06 4.27461e+06 0 -4.12948e+06 4.58508e+06 0 -5.506e+06 4.92924e+06 0 -828769 3.03864e+06 0 -902883 3.08491e+06 0 -981393 3.13526e+06 0 -1.06519e+06 3.19045e+06 0 -1.15544e+06 3.25149e+06 0 -1.25369e+06 3.31967e+06 0 -1.36204e+06 3.39668e+06 0 -1.48343e+06 3.48487e+06 0 -1.62207e+06 3.58747e+06 0 -1.78433e+06 3.70917e+06 0 -1.98016e+06 3.85694e+06 0 -2.22623e+06 4.0416e+06 0 -2.5524e+06 4.28036e+06 0 -3.0176e+06 4.60131e+06 0 -3.75057e+06 5.04748e+06 0 -5.06902e+06 5.66214e+06 0 -679514 3.15683e+06 0 -752709 3.20085e+06 0 -829619 3.2494e+06 0 -911017 3.30335e+06 0 -997900 3.3638e+06 0 -1.09158e+06 3.43224e+06 0 -1.19384e+06 3.5106e+06 0 -1.30712e+06 3.60157e+06 0 -1.43496e+06 3.70897e+06 0 -1.58261e+06 3.83838e+06 0 -1.75832e+06 3.99836e+06 0 -1.97597e+06 4.2027e+06 0 -2.26077e+06 4.47467e+06 0 -2.66414e+06 4.85603e+06 0 -3.30495e+06 5.4232e+06 0 -4.50275e+06 6.30597e+06 0 -534863 3.2586e+06 0 -607421 3.29925e+06 0 -682978 3.34483e+06 0 -762192 3.39627e+06 0 -845901 3.45477e+06 0 -935190 3.52188e+06 0 -1.0315e+06 3.59971e+06 0 -1.13679e+06 3.69118e+06 0 -1.25383e+06 3.80043e+06 0 -1.3867e+06 3.93367e+06 0 -1.54171e+06 4.10052e+06 0 -1.72938e+06 4.31686e+06 0 -1.96878e+06 4.61057e+06 0 -2.29993e+06 5.03504e+06 0 -2.82132e+06 5.69921e+06 0 -3.82968e+06 6.83066e+06 0 -399671 3.34727e+06 0 -471980 3.38337e+06 0 -546567 3.42483e+06 0 -623997 3.47261e+06 0 -704965 3.52792e+06 0 -790345 3.59236e+06 0 -881264 3.66812e+06 0 -979218 3.75819e+06 0 -1.08625e+06 3.86691e+06 0 -1.20525e+06 4.00073e+06 0 -1.34056e+06 4.16982e+06 0 -1.49911e+06 4.39119e+06 0 -1.693e+06 4.69539e+06 0 -1.94762e+06 5.14375e+06 0 -2.3296e+06 5.87257e+06 0 -3.07903e+06 7.21194e+06 0 -277096 3.42661e+06 0 -349488 3.45693e+06 0 -423466 3.49316e+06 0 -499522 3.53622e+06 0 -578234 3.58733e+06 0 -660294 3.64807e+06 0 -746555 3.72059e+06 0 -838088 3.80791e+06 0 -936271 3.91434e+06 0 -1.04293e+06 4.0464e+06 0 -1.16051e+06 4.21427e+06 0 -1.29252e+06 4.43521e+06 0 -1.44396e+06 4.7403e+06 0 -1.62407e+06 5.19409e+06 0 -1.85725e+06 5.94945e+06 0 -2.28462e+06 7.43258e+06 0 -168989 3.50011e+06 0 -241582 3.52331e+06 0 -315141 3.5532e+06 0 -390101 3.59063e+06 0 -466947 3.63671e+06 0 -546215 3.69296e+06 0 -628519 3.76147e+06 0 -714568 3.84516e+06 0 -805149 3.94823e+06 0 -901154 4.07704e+06 0 -1.00336e+06 4.24143e+06 0 -1.11223e+06 4.45825e+06 0 -1.22628e+06 4.75716e+06 0 -1.33905e+06 5.20107e+06 0 -1.42715e+06 5.94307e+06 0 -1.48258e+06 7.48276e+06 0 -76402.6 3.5705e+06 0 -148947 3.58516e+06 0 -221981 3.6076e+06 0 -295890 3.63853e+06 0 -371066 3.67891e+06 0 -447902 3.73014e+06 0 -526818 3.79416e+06 0 -608170 3.87377e+06 0 -692291 3.97291e+06 0 -779203 4.09774e+06 0 -868356 4.25742e+06 0 -957494 4.46795e+06 0 -1.04007e+06 4.75642e+06 0 -1.09529e+06 5.17937e+06 0 -1.05727e+06 5.87187e+06 0 -709418 7.36054e+06 0 -4.16066 3.63966e+06 0 -71730.9 3.64424e+06 0 -143734 3.65814e+06 0 -216373 3.6818e+06 0 -289759 3.71596e+06 0 -364440 3.76181e+06 0 -440147 3.82115e+06 0 -517680 3.89643e+06 0 -595899 3.99167e+06 0 -675482 4.1119e+06 0 -753120 4.26714e+06 0 -825970 4.46912e+06 0 -882750 4.7472e+06 0 -889369 5.13955e+06 0 -763247 5.75984e+06 0 7.15256e-06 7.07905e+06 0 </DataArray> 
</PointData> 
<Points> 
<DataArray type="Float32" NumberOfComponents="3"> 
0.0678 0.0673333 0 0.0701467 0.0665111 0 0.0724933 0.0656889 0 0.07484 0.0648667 0 0.0771867 0.0640444 0 0.0795333 0.0632222 0 0.08188 0.0624 0 0.0842267 0.0615778 0 0.0865733 0.0607556 0 0.08892 0.0599333 0 0.0912667 0.0591111 0 0.0936133 0.0582889 0 0.09596 0.0574667 0 0.0983067 0.0566444 0 0.100653 0.0558222 0 0.103 0.055 0 0.0708133 0.0703111 0 0.0728889 0.069387 0 0.0749746 0.0684583 0 0.0770705 0.0675251 0 0.0791767 0.0665873 0 0.0812933 0.0656449 0 0.0834203 0.0646978 0 0.0855578 0.0637461 0 0.087706 0.0627896 0 0.0898647 0.0618284 0 0.0920343 0.0608624 0 0.0942147 0.0598916 0 0.0964059 0.0589159 0 0.0986082 0.0579354 0 0.100822 0.0569498 0 0.103046 0.0559594 0 0.0738267 0.0732889 0 0.07566 0.0722684 0 0.0775101 0.0712385 0 0.0793771 0.0701993 0 0.0812612 0.0691505 0 0.0831628 0.068092 0 0.085082 0.0670237 0 0.087019 0.0659454 0 0.0889742 0.0648571 0 0.0909478 0.0637585 0 0.0929401 0.0626495 0 0.0949513 0.06153 0 0.0969816 0.0603998 0 0.0990315 0.0592587 0 0.101101 0.0581067 0 0.103191 0.0569435 0 0.07684 0.0762667 0 0.0784573 0.0751523 0 0.0800951 0.0740239 0 0.0817537 0.0728811 0 0.0834336 0.0717236 0 0.0851352 0.0705512 0 0.0868589 0.0693636 0 0.088605 0.0681605 0 0.0903742 0.0669415 0 0.0921668 0.0657064 0 0.0939833 0.0644548 0 0.0958241 0.0631865 0 0.0976898 0.061901 0 0.0995809 0.060598 0 0.101498 0.0592772 0 0.103441 0.0579381 0 0.0798533 0.0792444 0 0.081278 0.0780359 0 0.0827247 0.0768085 0 0.084194 0.075562 0 0.0856865 0.0742958 0 0.0872027 0.0730095 0 0.0887432 0.0717027 0 0.0903085 0.0703747 0 0.0918993 0.0690252 0 0.0935162 0.0676535 0 0.0951598 0.0662591 0 0.0968308 0.0648415 0 0.0985299 0.0634 0 0.100258 0.0619341 0 0.102015 0.0604432 0 0.103803 0.0589265 0 0.0828667 0.0822222 0 0.0841191 0.0809159 0 0.0853937 0.0795865 0 0.086691 0.0782334 0 0.0880116 0.076856 0 0.0893561 0.0754536 0 0.0907253 0.0740255 0 0.0921198 0.072571 0 0.0935403 0.0710894 0 0.0949875 0.0695799 0 0.0964623 0.0680418 0 0.0979653 0.066474 0 0.0994975 0.064876 0 0.10106 0.0632466 0 0.102653 0.0615851 0 0.104277 0.0598904 0 0.08588 0.0852 0 0.0869778 0.0837894 0 0.0880966 0.0823519 0 0.089237 0.0808867 0 0.0903996 0.0793929 0 0.0915851 0.0778698 0 0.0927941 0.0763164 0 0.0940273 0.0747318 0 0.0952856 0.0731151 0 0.0965696 0.0714654 0 0.0978801 0.0697815 0 0.0992181 0.0680624 0 0.100584 0.066307 0 0.10198 0.0645141 0 0.103405 0.0626826 0 0.104862 0.0608111 0 0.0888933 0.0881778 0 0.0898512 0.0866534 0 0.090828 0.0850989 0 0.0918243 0.0835132 0 0.0928409 0.0818954 0 0.0938782 0.0802446 0 0.0949369 0.0785597 0 0.0960177 0.0768396 0 0.0971213 0.0750833 0 0.0982483 0.0732896 0 0.0993997 0.0714573 0 0.100576 0.069585 0 0.101778 0.0676716 0 0.103007 0.0657156 0 0.104264 0.0637156 0 0.105549 0.0616701 0 0.0919067 0.0911556 0 0.0927361 0.0895048 0 0.093582 0.0878214 0 0.0944448 0.0861043 0 0.095325 0.0843524 0 0.0962233 0.0825647 0 0.09714 0.0807402 0 0.0980759 0.0788775 0 0.0990316 0.0769756 0 0.100008 0.0750332 0 0.101005 0.073049 0 0.102023 0.0710216 0 0.103064 0.0689496 0 0.104129 0.0668314 0 0.105217 0.0646656 0 0.10633 0.0624505 0 0.09492 0.0941333 0 0.0956296 0.0923407 0 0.0963527 0.0905138 0 0.0970898 0.0886517 0 0.0978413 0.0867533 0 0.0986075 0.0848176 0 0.0993889 0.0828434 0 0.100186 0.0808297 0 0.100999 0.0787751 0 0.101829 0.0766784 0 0.102676 0.0745384 0 0.103541 0.0723537 0 0.104424 0.0701228 0 0.105326 0.0678443 0 0.106247 0.0655167 0 0.107189 0.0631383 0 0.0979333 0.0971111 0 0.0985286 0.095158 0 0.0991344 0.0931704 0 0.099751 0.0911474 0 0.100379 0.089088 0 0.101018 0.0869913 0 0.101668 0.0848561 0 0.102331 0.0826815 0 0.103006 0.0804664 0 0.103694 0.0782095 0 0.104395 0.0759097 0 0.10511 0.0735659 0 0.105838 0.0711766 0 0.10658 0.0687405 0 0.107337 0.0662563 0 0.10811 0.0637226 0 0.100947 0.100089 0 0.10143 0.0979539 0 0.101921 0.0957858 0 0.10242 0.0935838 0 0.102926 0.0913471 0 0.103441 0.0890748 0 0.103963 0.0867663 0 0.104494 0.0844204 0 0.105034 0.0820364 0 0.105583 0.0796133 0 0.106141 0.0771501 0 0.106708 0.0746459 0 0.107284 0.0720995 0 0.107871 0.06951 0 0.108467 0.0668761 0 0.109074 0.0641969 0 0.10396 0.103067 0 0.104331 0.100725 0 0.104707 0.0983546 0 0.105087 0.0959536 0 0.105472 0.0935217 0 0.105863 0.0910586 0 0.106258 0.0885634 0 0.106659 0.0860356 0 0.107065 0.0834746 0 0.107476 0.0808797 0 0.107892 0.0782501 0 0.108315 0.0755853 0 0.108743 0.0728845 0 0.109176 0.070147 0 0.109616 0.0673719 0 0.110062 0.0645586 0 0.106973 0.106044 0 0.107228 0.10347 0 0.107486 0.100872 0 0.107745 0.0982501 0 0.108007 0.0956043 0 0.108272 0.092934 0 0.108538 0.0902389 0 0.108808 0.0875188 0 0.10908 0.0847731 0 0.109354 0.0820016 0 0.109631 0.0792039 0 0.109911 0.0763797 0 0.110193 0.0735285 0 0.110478 0.07065 0 0.110766 0.0677437 0 0.111056 0.0648093 0 0.109987 0.109022 0 0.110119 0.106185 0 0.110252 0.103333 0 0.110385 0.100467 0 0.11052 0.0975879 0 0.110654 0.0946941 0 0.11079 0.0917861 0 0.110926 0.0888637 0 0.111063 0.0859268 0 0.111201 0.0829753 0 0.111339 0.0800092 0 0.111478 0.0770282 0 0.111618 0.0740323 0 0.111758 0.0710213 0 0.111899 0.0679952 0 0.112041 0.0649539 0 0.113 0.112 0 0.113 0.108867 0 0.113 0.105733 0 0.113 0.1026 0 0.113 0.0994667 0 0.113 0.0963333 0 0.113 0.0932 0 0.113 0.0900667 0 0.113 0.0869333 0 0.113 0.0838 0 0.113 0.0806667 0 0.113 0.0775333 0 0.113 0.0744 0 0.113 0.0712667 0 0.113 0.0681333 0 0.113 0.065 0 
</DataArray>
</Points> 
</Piece> 
</StructuredGrid> 
</VTKFile> 
