<?xml version="1.0"?> 
<VTKFile type="StructuredGrid" version="0.1"> 
<StructuredGrid WholeExtent="0 15 0 15 0 0"> 
<Piece Extent="0 15 0 15 0 0"> 
<PointData>
<DataArray type="Float32" Name="|E|" format="ascii" NumberOfComponents="3"> 
-2.0819e+06 167164 0 -2.11379e+06 210753 0 -2.15319e+06 256702 0 -2.20032e+06 305369 0 -2.25549e+06 356447 0 -2.31928e+06 415309 0 -2.39275e+06 471903 0 -2.47557e+06 545315 0 -2.57313e+06 620605 0 -2.67993e+06 690307 0 -2.81737e+06 867207 0 -2.96916e+06 806734 0 -3.18871e+06 1.42365e+06 0 -3.52289e+06 523135 0 -4.16424e+06 4.13916e+06 0 -9.41286e+06 3.03427e+07 0 -2.11844e+06 239147 0 -2.158e+06 285199 0 -2.20434e+06 333583 0 -2.25776e+06 385855 0 -2.31895e+06 441556 0 -2.38847e+06 502896 0 -2.46627e+06 571046 0 -2.55693e+06 646167 0 -2.65403e+06 732483 0 -2.78123e+06 836314 0 -2.90728e+06 972088 0 -3.10161e+06 1.0812e+06 0 -3.35699e+06 1.51812e+06 0 -3.72261e+06 1.46323e+06 0 -4.43112e+06 4.00869e+06 0 16329.2 2.73899e+06 0 -2.16827e+06 321189 0 -2.21416e+06 369854 0 -2.26644e+06 422076 0 -2.32568e+06 478424 0 -2.39207e+06 539580 0 -2.46581e+06 607140 0 -2.55006e+06 683316 0 -2.64145e+06 767600 0 -2.75468e+06 878723 0 -2.86952e+06 985928 0 -3.03915e+06 1.17118e+06 0 -3.22471e+06 1.4074e+06 0 -3.49484e+06 1.72259e+06 0 -3.85656e+06 3.04451e+06 0 -2.01847e+06 4.48184e+06 0 -864671 3.71653e+06 0 -2.23038e+06 414052 0 -2.28219e+06 467318 0 -2.33994e+06 524470 0 -2.40357e+06 585848 0 -2.47377e+06 654087 0 -2.55283e+06 731486 0 -2.63919e+06 816946 0 -2.74055e+06 926238 0 -2.84804e+06 1.03793e+06 0 -2.98821e+06 1.22829e+06 0 -3.13998e+06 1.42808e+06 0 -3.3314e+06 1.82756e+06 0 -3.46698e+06 2.68872e+06 0 -2.41479e+06 3.70541e+06 0 -975099 3.15194e+06 0 -553634 2.35934e+06 0 -2.3061e+06 525426 0 -2.36197e+06 581939 0 -2.42302e+06 643995 0 -2.49036e+06 713785 0 -2.56531e+06 792723 0 -2.64651e+06 880628 0 -2.73769e+06 990199 0 -2.83563e+06 1.11271e+06 0 -2.95192e+06 1.2969e+06 0 -3.075e+06 1.50518e+06 0 -3.19585e+06 1.91295e+06 0 -3.16856e+06 2.5641e+06 0 -2.42307e+06 3.23834e+06 0 -1.3509e+06 3.1197e+06 0 -851604 2.53705e+06 0 -617294 2.02286e+06 0 -2.3915e+06 649014 0 -2.45122e+06 715792 0 -2.51639e+06 788512 0 -2.58707e+06 870778 0 -2.66164e+06 963316 0 -2.74278e+06 1.07686e+06 0 -2.82961e+06 1.20973e+06 0 -2.92474e+06 1.39195e+06 0 -3.01353e+06 1.62316e+06 0 -3.05484e+06 2.02012e+06 0 -2.9018e+06 2.5336e+06 0 -2.29227e+06 2.9541e+06 0 -1.50857e+06 2.90846e+06 0 -1.03114e+06 2.47636e+06 0 -788104 2.0595e+06 0 -658784 1.67668e+06 0 -2.49013e+06 812392 0 -2.55095e+06 885044 0 -2.6152e+06 972601 0 -2.68143e+06 1.07024e+06 0 -2.75278e+06 1.18971e+06 0 -2.82619e+06 1.33354e+06 0 -2.89423e+06 1.52535e+06 0 -2.93126e+06 1.78289e+06 0 -2.87888e+06 2.15101e+06 0 -2.6292e+06 2.53118e+06 0 -2.10349e+06 2.74992e+06 0 -1.53022e+06 2.67409e+06 0 -1.14697e+06 2.35143e+06 0 -920731 2.00582e+06 0 -784842 1.66891e+06 0 -693455 1.34942e+06 0 -2.58841e+06 999986 0 -2.64591e+06 1.10037e+06 0 -2.70322e+06 1.20371e+06 0 -2.76208e+06 1.33624e+06 0 -2.81079e+06 1.49921e+06 0 -2.83201e+06 1.71045e+06 0 -2.79348e+06 1.97669e+06 0 -2.64407e+06 2.27693e+06 0 -2.33576e+06 2.50535e+06 0 -1.89273e+06 2.5621e+06 0 -1.48308e+06 2.44395e+06 0 -1.20139e+06 2.18655e+06 0 -1.01493e+06 1.90078e+06 0 -892877 1.61413e+06 0 -804606 1.33141e+06 0 -737839 1.06229e+06 0 -2.67626e+06 1.27537e+06 0 -2.71587e+06 1.38381e+06 0 -2.74595e+06 1.54221e+06 0 -2.74411e+06 1.72333e+06 0 -2.69327e+06 1.93468e+06 0 -2.56838e+06 2.1576e+06 0 -2.34533e+06 2.33946e+06 0 -2.03075e+06 2.41314e+06 0 -1.68677e+06 2.35788e+06 0 -1.41143e+06 2.21672e+06 0 -1.21842e+06 1.99826e+06 0 -1.07809e+06 1.75449e+06 0 -977235 1.50822e+06 0 -897903 1.26144e+06 0 -836656 1.02235e+06 0 -780063 778239 0 -2.67298e+06 1.61795e+06 0 -2.64702e+06 1.80165e+06 0 -2.57027e+06 1.96047e+06 0 -2.44243e+06 2.11884e+06 0 -2.25329e+06 2.24159e+06 0 -2.00868e+06 2.28745e+06 0 -1.74458e+06 2.24451e+06 0 -1.51305e+06 2.1336e+06 0 -1.347e+06 1.98519e+06 0 -1.22289e+06 1.78583e+06 0 -1.12171e+06 1.57053e+06 0 -1.04086e+06 1.35949e+06 0 -974430 1.1479e+06 0 -925047 936696 0 -877349 710684 0 -802663 475767 0 -2.40574e+06 2.04544e+06 0 -2.26088e+06 2.11379e+06 0 -2.09139e+06 2.17981e+06 0 -1.89383e+06 2.18494e+06 0 -1.69411e+06 2.12209e+06 0 -1.52512e+06 2.01313e+06 0 -1.4017e+06 1.87717e+06 0 -1.31168e+06 1.7204e+06 0 -1.22814e+06 1.53318e+06 0 -1.15056e+06 1.35046e+06 0 -1.08728e+06 1.17826e+06 0 -1.04102e+06 998482 0 -1.01019e+06 804167 0 -968810 583422 0 -884690 351944 0 -744946 146682 0 -1.87362e+06 2.07963e+06 0 -1.73225e+06 2.04568e+06 0 -1.59462e+06 1.94996e+06 0 -1.49007e+06 1.82449e+06 0 -1.4176e+06 1.69114e+06 0 -1.35766e+06 1.55323e+06 0 -1.29263e+06 1.40987e+06 0 -1.22218e+06 1.2619e+06 0 -1.16639e+06 1.12672e+06 0 -1.13513e+06 983179 0 -1.12194e+06 807183 0 -1.10524e+06 598880 0 -1.04783e+06 365128 0 -926466 140421 0 -748663 -33254 0 -549866 -130632 0 -1.50664e+06 1.6508e+06 0 -1.45564e+06 1.57496e+06 0 -1.42009e+06 1.45342e+06 0 -1.3732e+06 1.33785e+06 0 -1.3132e+06 1.23441e+06 0 -1.25756e+06 1.13458e+06 0 -1.22728e+06 1.02392e+06 0 -1.22964e+06 889476 0 -1.24473e+06 706122 0 -1.23962e+06 477923 0 -1.18075e+06 234663 0 -1.0476e+06 7802.79 0 -851948 -162556 0 -630943 -253247 0 -428666 -268411 0 -275299 -233604 0 -1.43395e+06 1.3936e+06 0 -1.3618e+06 1.03392e+06 0 -1.31595e+06 951993 0 -1.31369e+06 922071 0 -1.34909e+06 834915 0 -1.39445e+06 658929 0 -1.4102e+06 411301 0 -1.36023e+06 131067 0 -1.22962e+06 -124841 0 -1.02714e+06 -312751 0 -783993 -415711 0 -545149 -433248 0 -348314 -387888 0 -211762 -312490 0 -131620 -235703 0 -89659.3 -174204 0 -1.33589e+06 -252977 0 -1.56103e+06 676328 0 -1.64656e+06 648524 0 -1.59511e+06 208246 0 -1.42599e+06 -288756 0 -1.17438e+06 -650528 0 -885810 -813509 0 -606296 -799346 0 -372197 -673999 0 -204430 -510739 0 -104418 -363213 0 -57259.9 -256985 0 -41383.8 -192341 0 -37248.6 -155233 0 -33513.9 -130337 0 -27416.4 -108689 0 -3.09944e-06 -1.15432e+07 0 -3.39223e-07 -3.51539e+06 0 3.40966e-07 132191 0 -2.79222e-07 1.14388e+06 0 7.57864e-08 857415 0 8.61473e-08 182919 0 1.92318e-07 -372905 0 -7.91624e-08 -623665 0 -2.23517e-07 -591466 0 3.42727e-07 -410338 0 -3.44589e-07 -217640 0 3.68804e-07 -90455.7 0 -2.79397e-07 -42947.2 0 -7.45058e-09 -45196.1 0 5.96046e-08 -59147.6 0 6.19888e-06 -62989.2 0 </DataArray> 
</PointData> 
<Points> 
<DataArray type="Float32" NumberOfComponents="3"> 
0.016 0.021 0 0.0199333 0.021 0 0.0238667 0.021 0 0.0278 0.021 0 0.0317333 0.021 0 0.0356667 0.021 0 0.0396 0.021 0 0.0435333 0.021 0 0.0474667 0.021 0 0.0514 0.021 0 0.0553333 0.021 0 0.0592667 0.021 0 0.0632 0.021 0 0.0671333 0.021 0 0.0710667 0.021 0 0.075 0.021 0 0.0216 0.0219333 0 0.0253156 0.0219333 0 0.0290311 0.0219333 0 0.0327467 0.0219333 0 0.0364622 0.0219333 0 0.0401778 0.0219333 0 0.0438933 0.0219333 0 0.0476089 0.0219333 0 0.0513244 0.0219333 0 0.05504 0.0219333 0 0.0587556 0.0219333 0 0.0624711 0.0219333 0 0.0661867 0.0219333 0 0.0699022 0.0219333 0 0.0736178 0.0219333 0 0.0773333 0.0219333 0 0.0272 0.0228667 0 0.0306978 0.0228667 0 0.0341956 0.0228667 0 0.0376933 0.0228667 0 0.0411911 0.0228667 0 0.0446889 0.0228667 0 0.0481867 0.0228667 0 0.0516844 0.0228667 0 0.0551822 0.0228667 0 0.05868 0.0228667 0 0.0621778 0.0228667 0 0.0656756 0.0228667 0 0.0691733 0.0228667 0 0.0726711 0.0228667 0 0.0761689 0.0228667 0 0.0796667 0.0228667 0 0.0328 0.0238 0 0.03608 0.0238 0 0.03936 0.0238 0 0.04264 0.0238 0 0.04592 0.0238 0 0.0492 0.0238 0 0.05248 0.0238 0 0.05576 0.0238 0 0.05904 0.0238 0 0.06232 0.0238 0 0.0656 0.0238 0 0.06888 0.0238 0 0.07216 0.0238 0 0.07544 0.0238 0 0.07872 0.0238 0 0.082 0.0238 0 0.0384 0.0247333 0 0.0414622 0.0247333 0 0.0445244 0.0247333 0 0.0475867 0.0247333 0 0.0506489 0.0247333 0 0.0537111 0.0247333 0 0.0567733 0.0247333 0 0.0598356 0.0247333 0 0.0628978 0.0247333 0 0.06596 0.0247333 0 0.0690222 0.0247333 0 0.0720844 0.0247333 0 0.0751467 0.0247333 0 0.0782089 0.0247333 0 0.0812711 0.0247333 0 0.0843333 0.0247333 0 0.044 0.0256667 0 0.0468444 0.0256667 0 0.0496889 0.0256667 0 0.0525333 0.0256667 0 0.0553778 0.0256667 0 0.0582222 0.0256667 0 0.0610667 0.0256667 0 0.0639111 0.0256667 0 0.0667556 0.0256667 0 0.0696 0.0256667 0 0.0724444 0.0256667 0 0.0752889 0.0256667 0 0.0781333 0.0256667 0 0.0809778 0.0256667 0 0.0838222 0.0256667 0 0.0866667 0.0256667 0 0.0496 0.0266 0 0.0522267 0.0266 0 0.0548533 0.0266 0 0.05748 0.0266 0 0.0601067 0.0266 0 0.0627333 0.0266 0 0.06536 0.0266 0 0.0679867 0.0266 0 0.0706133 0.0266 0 0.07324 0.0266 0 0.0758667 0.0266 0 0.0784933 0.0266 0 0.08112 0.0266 0 0.0837467 0.0266 0 0.0863733 0.0266 0 0.089 0.0266 0 0.0552 0.0275333 0 0.0576089 0.0275333 0 0.0600178 0.0275333 0 0.0624267 0.0275333 0 0.0648356 0.0275333 0 0.0672444 0.0275333 0 0.0696533 0.0275333 0 0.0720622 0.0275333 0 0.0744711 0.0275333 0 0.07688 0.0275333 0 0.0792889 0.0275333 0 0.0816978 0.0275333 0 0.0841067 0.0275333 0 0.0865156 0.0275333 0 0.0889244 0.0275333 0 0.0913333 0.0275333 0 0.0608 0.0284667 0 0.0629911 0.0284667 0 0.0651822 0.0284667 0 0.0673733 0.0284667 0 0.0695644 0.0284667 0 0.0717556 0.0284667 0 0.0739467 0.0284667 0 0.0761378 0.0284667 0 0.0783289 0.0284667 0 0.08052 0.0284667 0 0.0827111 0.0284667 0 0.0849022 0.0284667 0 0.0870933 0.0284667 0 0.0892844 0.0284667 0 0.0914756 0.0284667 0 0.0936667 0.0284667 0 0.0664 0.0294 0 0.0683733 0.0294 0 0.0703467 0.0294 0 0.07232 0.0294 0 0.0742933 0.0294 0 0.0762667 0.0294 0 0.07824 0.0294 0 0.0802133 0.0294 0 0.0821867 0.0294 0 0.08416 0.0294 0 0.0861333 0.0294 0 0.0881067 0.0294 0 0.09008 0.0294 0 0.0920533 0.0294 0 0.0940267 0.0294 0 0.096 0.0294 0 0.072 0.0303333 0 0.0737556 0.0303333 0 0.0755111 0.0303333 0 0.0772667 0.0303333 0 0.0790222 0.0303333 0 0.0807778 0.0303333 0 0.0825333 0.0303333 0 0.0842889 0.0303333 0 0.0860444 0.0303333 0 0.0878 0.0303333 0 0.0895556 0.0303333 0 0.0913111 0.0303333 0 0.0930667 0.0303333 0 0.0948222 0.0303333 0 0.0965778 0.0303333 0 0.0983333 0.0303333 0 0.0776 0.0312667 0 0.0791378 0.0312667 0 0.0806756 0.0312667 0 0.0822133 0.0312667 0 0.0837511 0.0312667 0 0.0852889 0.0312667 0 0.0868267 0.0312667 0 0.0883644 0.0312667 0 0.0899022 0.0312667 0 0.09144 0.0312667 0 0.0929778 0.0312667 0 0.0945156 0.0312667 0 0.0960533 0.0312667 0 0.0975911 0.0312667 0 0.0991289 0.0312667 0 0.100667 0.0312667 0 0.0832 0.0322 0 0.08452 0.0322 0 0.08584 0.0322 0 0.08716 0.0322 0 0.08848 0.0322 0 0.0898 0.0322 0 0.09112 0.0322 0 0.09244 0.0322 0 0.09376 0.0322 0 0.09508 0.0322 0 0.0964 0.0322 0 0.09772 0.0322 0 0.09904 0.0322 0 0.10036 0.0322 0 0.10168 0.0322 0 0.103 0.0322 0 0.0888 0.0331333 0 0.0899022 0.0331333 0 0.0910044 0.0331333 0 0.0921067 0.0331333 0 0.0932089 0.0331333 0 0.0943111 0.0331333 0 0.0954133 0.0331333 0 0.0965156 0.0331333 0 0.0976178 0.0331333 0 0.09872 0.0331333 0 0.0998222 0.0331333 0 0.100924 0.0331333 0 0.102027 0.0331333 0 0.103129 0.0331333 0 0.104231 0.0331333 0 0.105333 0.0331333 0 0.0944 0.0340667 0 0.0952844 0.0340667 0 0.0961689 0.0340667 0 0.0970533 0.0340667 0 0.0979378 0.0340667 0 0.0988222 0.0340667 0 0.0997067 0.0340667 0 0.100591 0.0340667 0 0.101476 0.0340667 0 0.10236 0.0340667 0 0.103244 0.0340667 0 0.104129 0.0340667 0 0.105013 0.0340667 0 0.105898 0.0340667 0 0.106782 0.0340667 0 0.107667 0.0340667 0 0.1 0.035 0 0.100667 0.035 0 0.101333 0.035 0 0.102 0.035 0 0.102667 0.035 0 0.103333 0.035 0 0.104 0.035 0 0.104667 0.035 0 0.105333 0.035 0 0.106 0.035 0 0.106667 0.035 0 0.107333 0.035 0 0.108 0.035 0 0.108667 0.035 0 0.109333 0.035 0 0.11 0.035 0 
</DataArray>
</Points> 
</Piece> 
</StructuredGrid> 
</VTKFile> 
