<?xml version="1.0"?> 
<VTKFile type="StructuredGrid" version="0.1"> 
<StructuredGrid WholeExtent="0 15 0 15 0 0"> 
<Piece Extent="0 15 0 15 0 0"> 
<PointData>
<DataArray type="Float32" Name="|E|" format="ascii" NumberOfComponents="3"> 
-2.02476e+06 0 0 -2.02501e+06 10862 0 -2.02576e+06 21730.9 0 -2.02702e+06 32613.6 0 -2.02879e+06 43517.1 0 -2.03105e+06 54447.9 0 -2.03383e+06 65414.8 0 -2.03711e+06 76427.5 0 -2.0409e+06 87481 0 -2.0452e+06 98562.9 0 -2.05001e+06 109705 0 -2.05534e+06 120990 0 -2.06118e+06 132455 0 -2.06754e+06 144025 0 -2.07444e+06 155551 0 -2.08187e+06 166963 0 -2.01506e+06 0 0 -2.01552e+06 15255.9 0 -2.01687e+06 30529.2 0 -2.01914e+06 45837.5 0 -2.02232e+06 61198.4 0 -2.02641e+06 76629.8 0 -2.03141e+06 92150.4 0 -2.03733e+06 107780 0 -2.04417e+06 123536 0 -2.05194e+06 139428 0 -2.06066e+06 155476 0 -2.07032e+06 171724 0 -2.08092e+06 188218 0 -2.09246e+06 204983 0 -2.10496e+06 222011 0 -2.11846e+06 239292 0 -2.00499e+06 0 0 -2.0057e+06 19948.2 0 -2.00782e+06 39932.1 0 -2.01138e+06 59987.7 0 -2.01635e+06 80151.6 0 -2.02276e+06 100461 0 -2.03061e+06 120954 0 -2.0399e+06 141670 0 -2.05066e+06 162652 0 -2.06289e+06 183950 0 -2.07659e+06 205608 0 -2.09179e+06 227666 0 -2.10853e+06 250180 0 -2.12686e+06 273215 0 -2.14678e+06 296808 0 -2.16823e+06 320940 0 -1.99454e+06 0 0 -1.99555e+06 24933.3 0 -1.99861e+06 49930.8 0 -2.00371e+06 75057.1 0 -2.01085e+06 100378 0 -2.02006e+06 125963 0 -2.03135e+06 151881 0 -2.04473e+06 178213 0 -2.06022e+06 205037 0 -2.07784e+06 232426 0 -2.09765e+06 260474 0 -2.1197e+06 289306 0 -2.14398e+06 319041 0 -2.17048e+06 349746 0 -2.19925e+06 381517 0 -2.23048e+06 414671 0 -1.98371e+06 0 0 -1.98509e+06 30205.6 0 -1.98922e+06 60516.2 0 -1.99612e+06 91038.3 0 -2.00579e+06 121882 0 -2.01826e+06 153160 0 -2.03355e+06 184998 0 -2.05168e+06 217524 0 -2.0727e+06 250867 0 -2.09668e+06 285195 0 -2.12365e+06 320710 0 -2.15361e+06 357588 0 -2.18662e+06 395977 0 -2.2229e+06 436168 0 -2.26265e+06 478694 0 -2.30585e+06 523983 0 -1.97252e+06 0 0 -1.97431e+06 35759.1 0 -1.97966e+06 71679.2 0 -1.98859e+06 107924 0 -2.00112e+06 144664 0 -2.01728e+06 182080 0 -2.03711e+06 220366 0 -2.06065e+06 259727 0 -2.08798e+06 300409 0 -2.11914e+06 342705 0 -2.15417e+06 386883 0 -2.19321e+06 433253 0 -2.23651e+06 482363 0 -2.28413e+06 534937 0 -2.3359e+06 591402 0 -2.39198e+06 651903 0 -1.96098e+06 0 0 -1.96321e+06 41587.9 0 -1.96991e+06 83410 0 -1.9811e+06 125707 0 -1.9968e+06 168729 0 -2.01706e+06 212748 0 -2.04193e+06 258056 0 -2.07149e+06 304988 0 -2.10579e+06 353944 0 -2.1449e+06 405333 0 -2.18899e+06 459663 0 -2.23826e+06 517725 0 -2.29266e+06 580402 0 -2.35215e+06 648386 0 -2.4174e+06 722877 0 -2.48929e+06 807343 0 -1.94907e+06 0 0 -1.95179e+06 47685.8 0 -1.95997e+06 95699.2 0 -1.97363e+06 144378 0 -1.9928e+06 194078 0 -2.01754e+06 245192 0 -2.04792e+06 298150 0 -2.08401e+06 353470 0 -2.1259e+06 411725 0 -2.17371e+06 473611 0 -2.22762e+06 540163 0 -2.28758e+06 612505 0 -2.35358e+06 691985 0 -2.42637e+06 781121 0 -2.50585e+06 884612 0 -2.58972e+06 1.00789e+06 0 -1.93682e+06 0 0 -1.94007e+06 54046.6 0 -1.94984e+06 108537 0 -1.96616e+06 163929 0 -1.98906e+06 220716 0 -2.01862e+06 279441 0 -2.05492e+06 340732 0 -2.09802e+06 405325 0 -2.14802e+06 474093 0 -2.20506e+06 548287 0 -2.26909e+06 629362 0 -2.3399e+06 719237 0 -2.418e+06 821512 0 -2.50216e+06 941237 0 -2.58877e+06 1.08553e+06 0 -2.67445e+06 1.26453e+06 0 -1.92422e+06 0 0 -1.92804e+06 60664.1 0 -1.93951e+06 121912 0 -1.95866e+06 184352 0 -1.98555e+06 248641 0 -2.02024e+06 315525 0 -2.06281e+06 385879 0 -2.11329e+06 460724 0 -2.17177e+06 541510 0 -2.23822e+06 629968 0 -2.31213e+06 728452 0 -2.39355e+06 841279 0 -2.48056e+06 974307 0 -2.56728e+06 1.13671e+06 0 -2.64543e+06 1.34575e+06 0 -2.67558e+06 1.63352e+06 0 -1.91128e+06 0 0 -1.9157e+06 67531.9 0 -1.92897e+06 135815 0 -1.95112e+06 205637 0 -1.98221e+06 277851 0 -2.02229e+06 353483 0 -2.07141e+06 433637 0 -2.12952e+06 519939 0 -2.19664e+06 614318 0 -2.27206e+06 719334 0 -2.35517e+06 839673 0 -2.44395e+06 981907 0 -2.52983e+06 1.15565e+06 0 -2.59966e+06 1.38116e+06 0 -2.59864e+06 1.68042e+06 0 -2.40193e+06 2.0226e+06 0 -1.89801e+06 0 0 -1.90305e+06 74643.6 0 -1.91821e+06 150237 0 -1.94351e+06 227763 0 -1.97899e+06 308366 0 -2.02469e+06 393296 0 -2.08052e+06 484135 0 -2.14641e+06 583175 0 -2.2218e+06 692732 0 -2.30527e+06 817746 0 -2.3951e+06 964844 0 -2.48148e+06 1.14341e+06 0 -2.54747e+06 1.37267e+06 0 -2.53613e+06 1.6715e+06 0 -2.32149e+06 1.98847e+06 0 -1.8758e+06 2.09274e+06 0 -1.88441e+06 0 0 -1.89011e+06 81993.1 0 -1.90724e+06 165163 0 -1.93582e+06 250729 0 -1.97584e+06 340175 0 -2.02731e+06 434962 0 -2.08993e+06 537557 0 -2.16349e+06 650351 0 -2.24617e+06 777507 0 -2.33615e+06 926244 0 -2.42494e+06 1.10427e+06 0 -2.4932e+06 1.32878e+06 0 -2.49166e+06 1.61788e+06 0 -2.2984e+06 1.91384e+06 0 -1.88965e+06 1.9993e+06 0 -1.51285e+06 1.68809e+06 0 -1.87048e+06 0 0 -1.87687e+06 89573.6 0 -1.89604e+06 180566 0 -1.928e+06 274558 0 -1.97271e+06 373190 0 -2.02999e+06 478639 0 -2.09947e+06 593762 0 -2.18001e+06 721720 0 -2.26886e+06 869346 0 -2.36069e+06 1.04425e+06 0 -2.43597e+06 1.25851e+06 0 -2.45621e+06 1.5328e+06 0 -2.31345e+06 1.82096e+06 0 -1.95478e+06 1.92909e+06 0 -1.59398e+06 1.66833e+06 0 -1.40151e+06 1.19894e+06 0 -1.85622e+06 0 0 -1.86332e+06 97377.3 0 -1.88462e+06 196461 0 -1.92003e+06 299194 0 -1.96954e+06 407448 0 -2.03265e+06 524337 0 -2.10878e+06 652595 0 -2.1953e+06 797885 0 -2.28823e+06 967604 0 -2.37308e+06 1.17129e+06 0 -2.41749e+06 1.42531e+06 0 -2.34055e+06 1.71333e+06 0 -2.04909e+06 1.86827e+06 0 -1.70156e+06 1.70228e+06 0 -1.50065e+06 1.24994e+06 0 -1.46207e+06 504116 0 -1.84166e+06 0 0 -1.84949e+06 105398 0 -1.87295e+06 212864 0 -1.91192e+06 324543 0 -1.96623e+06 443101 0 -2.03519e+06 571737 0 -2.11736e+06 714492 0 -2.20886e+06 878477 0 -2.30107e+06 1.07147e+06 0 -2.36818e+06 1.30641e+06 0 -2.35399e+06 1.58486e+06 0 -2.15325e+06 1.80019e+06 0 -1.82582e+06 1.7327e+06 0 -1.6091e+06 1.37242e+06 0 -1.57598e+06 680324 0 -1.94582e+06 131698 0 </DataArray> 
</PointData> 
<Points> 
<DataArray type="Float32" NumberOfComponents="3"> 
0 0.021 0 0.00106667 0.021 0 0.00213333 0.021 0 0.0032 0.021 0 0.00426667 0.021 0 0.00533333 0.021 0 0.0064 0.021 0 0.00746667 0.021 0 0.00853333 0.021 0 0.0096 0.021 0 0.0106667 0.021 0 0.0117333 0.021 0 0.0128 0.021 0 0.0138667 0.021 0 0.0149333 0.021 0 0.016 0.021 0 0 0.0219333 0 0.00144 0.0219333 0 0.00288 0.0219333 0 0.00432 0.0219333 0 0.00576 0.0219333 0 0.0072 0.0219333 0 0.00864 0.0219333 0 0.01008 0.0219333 0 0.01152 0.0219333 0 0.01296 0.0219333 0 0.0144 0.0219333 0 0.01584 0.0219333 0 0.01728 0.0219333 0 0.01872 0.0219333 0 0.02016 0.0219333 0 0.0216 0.0219333 0 0 0.0228667 0 0.00181333 0.0228667 0 0.00362667 0.0228667 0 0.00544 0.0228667 0 0.00725333 0.0228667 0 0.00906667 0.0228667 0 0.01088 0.0228667 0 0.0126933 0.0228667 0 0.0145067 0.0228667 0 0.01632 0.0228667 0 0.0181333 0.0228667 0 0.0199467 0.0228667 0 0.02176 0.0228667 0 0.0235733 0.0228667 0 0.0253867 0.0228667 0 0.0272 0.0228667 0 0 0.0238 0 0.00218667 0.0238 0 0.00437333 0.0238 0 0.00656 0.0238 0 0.00874667 0.0238 0 0.0109333 0.0238 0 0.01312 0.0238 0 0.0153067 0.0238 0 0.0174933 0.0238 0 0.01968 0.0238 0 0.0218667 0.0238 0 0.0240533 0.0238 0 0.02624 0.0238 0 0.0284267 0.0238 0 0.0306133 0.0238 0 0.0328 0.0238 0 0 0.0247333 0 0.00256 0.0247333 0 0.00512 0.0247333 0 0.00768 0.0247333 0 0.01024 0.0247333 0 0.0128 0.0247333 0 0.01536 0.0247333 0 0.01792 0.0247333 0 0.02048 0.0247333 0 0.02304 0.0247333 0 0.0256 0.0247333 0 0.02816 0.0247333 0 0.03072 0.0247333 0 0.03328 0.0247333 0 0.03584 0.0247333 0 0.0384 0.0247333 0 0 0.0256667 0 0.00293333 0.0256667 0 0.00586667 0.0256667 0 0.0088 0.0256667 0 0.0117333 0.0256667 0 0.0146667 0.0256667 0 0.0176 0.0256667 0 0.0205333 0.0256667 0 0.0234667 0.0256667 0 0.0264 0.0256667 0 0.0293333 0.0256667 0 0.0322667 0.0256667 0 0.0352 0.0256667 0 0.0381333 0.0256667 0 0.0410667 0.0256667 0 0.044 0.0256667 0 0 0.0266 0 0.00330667 0.0266 0 0.00661333 0.0266 0 0.00992 0.0266 0 0.0132267 0.0266 0 0.0165333 0.0266 0 0.01984 0.0266 0 0.0231467 0.0266 0 0.0264533 0.0266 0 0.02976 0.0266 0 0.0330667 0.0266 0 0.0363733 0.0266 0 0.03968 0.0266 0 0.0429867 0.0266 0 0.0462933 0.0266 0 0.0496 0.0266 0 0 0.0275333 0 0.00368 0.0275333 0 0.00736 0.0275333 0 0.01104 0.0275333 0 0.01472 0.0275333 0 0.0184 0.0275333 0 0.02208 0.0275333 0 0.02576 0.0275333 0 0.02944 0.0275333 0 0.03312 0.0275333 0 0.0368 0.0275333 0 0.04048 0.0275333 0 0.04416 0.0275333 0 0.04784 0.0275333 0 0.05152 0.0275333 0 0.0552 0.0275333 0 0 0.0284667 0 0.00405333 0.0284667 0 0.00810667 0.0284667 0 0.01216 0.0284667 0 0.0162133 0.0284667 0 0.0202667 0.0284667 0 0.02432 0.0284667 0 0.0283733 0.0284667 0 0.0324267 0.0284667 0 0.03648 0.0284667 0 0.0405333 0.0284667 0 0.0445867 0.0284667 0 0.04864 0.0284667 0 0.0526933 0.0284667 0 0.0567467 0.0284667 0 0.0608 0.0284667 0 0 0.0294 0 0.00442667 0.0294 0 0.00885333 0.0294 0 0.01328 0.0294 0 0.0177067 0.0294 0 0.0221333 0.0294 0 0.02656 0.0294 0 0.0309867 0.0294 0 0.0354133 0.0294 0 0.03984 0.0294 0 0.0442667 0.0294 0 0.0486933 0.0294 0 0.05312 0.0294 0 0.0575467 0.0294 0 0.0619733 0.0294 0 0.0664 0.0294 0 0 0.0303333 0 0.0048 0.0303333 0 0.0096 0.0303333 0 0.0144 0.0303333 0 0.0192 0.0303333 0 0.024 0.0303333 0 0.0288 0.0303333 0 0.0336 0.0303333 0 0.0384 0.0303333 0 0.0432 0.0303333 0 0.048 0.0303333 0 0.0528 0.0303333 0 0.0576 0.0303333 0 0.0624 0.0303333 0 0.0672 0.0303333 0 0.072 0.0303333 0 0 0.0312667 0 0.00517333 0.0312667 0 0.0103467 0.0312667 0 0.01552 0.0312667 0 0.0206933 0.0312667 0 0.0258667 0.0312667 0 0.03104 0.0312667 0 0.0362133 0.0312667 0 0.0413867 0.0312667 0 0.04656 0.0312667 0 0.0517333 0.0312667 0 0.0569067 0.0312667 0 0.06208 0.0312667 0 0.0672533 0.0312667 0 0.0724267 0.0312667 0 0.0776 0.0312667 0 0 0.0322 0 0.00554667 0.0322 0 0.0110933 0.0322 0 0.01664 0.0322 0 0.0221867 0.0322 0 0.0277333 0.0322 0 0.03328 0.0322 0 0.0388267 0.0322 0 0.0443733 0.0322 0 0.04992 0.0322 0 0.0554667 0.0322 0 0.0610133 0.0322 0 0.06656 0.0322 0 0.0721067 0.0322 0 0.0776533 0.0322 0 0.0832 0.0322 0 0 0.0331333 0 0.00592 0.0331333 0 0.01184 0.0331333 0 0.01776 0.0331333 0 0.02368 0.0331333 0 0.0296 0.0331333 0 0.03552 0.0331333 0 0.04144 0.0331333 0 0.04736 0.0331333 0 0.05328 0.0331333 0 0.0592 0.0331333 0 0.06512 0.0331333 0 0.07104 0.0331333 0 0.07696 0.0331333 0 0.08288 0.0331333 0 0.0888 0.0331333 0 0 0.0340667 0 0.00629333 0.0340667 0 0.0125867 0.0340667 0 0.01888 0.0340667 0 0.0251733 0.0340667 0 0.0314667 0.0340667 0 0.03776 0.0340667 0 0.0440533 0.0340667 0 0.0503467 0.0340667 0 0.05664 0.0340667 0 0.0629333 0.0340667 0 0.0692267 0.0340667 0 0.07552 0.0340667 0 0.0818133 0.0340667 0 0.0881067 0.0340667 0 0.0944 0.0340667 0 0 0.035 0 0.00666667 0.035 0 0.0133333 0.035 0 0.02 0.035 0 0.0266667 0.035 0 0.0333333 0.035 0 0.04 0.035 0 0.0466667 0.035 0 0.0533333 0.035 0 0.06 0.035 0 0.0666667 0.035 0 0.0733333 0.035 0 0.08 0.035 0 0.0866667 0.035 0 0.0933333 0.035 0 0.1 0.035 0 
</DataArray>
</Points> 
</Piece> 
</StructuredGrid> 
</VTKFile> 
