<?xml version="1.0"?> 
<VTKFile type="StructuredGrid" version="0.1"> 
<StructuredGrid WholeExtent="0 15 0 15 0 0"> 
<Piece Extent="0 15 0 15 0 0"> 
<PointData>
<DataArray type="Float32" Name="|E|" format="ascii" NumberOfComponents="3"> 
299726 4.54598e+06 0 301455 4.57219e+06 0 303310 4.60034e+06 0 305309 4.63065e+06 0 307469 4.6634e+06 0 309810 4.69892e+06 0 312362 4.73762e+06 0 315157 4.78002e+06 0 318242 4.82681e+06 0 321680 4.87895e+06 0 325559 4.93778e+06 0 330013 5.00534e+06 0 335255 5.08484e+06 0 341632 5.18156e+06 0 349739 5.30453e+06 0 360628 5.46968e+06 0 476304 4.47305e+06 0 489632 4.49278e+06 0 504134 4.51354e+06 0 519962 4.53539e+06 0 537291 4.55835e+06 0 556328 4.58247e+06 0 577312 4.60775e+06 0 600524 4.63418e+06 0 626285 4.66173e+06 0 654962 4.69031e+06 0 686956 4.71975e+06 0 722676 4.74982e+06 0 762477 4.78016e+06 0 806513 4.81028e+06 0 854447 4.83956e+06 0 904858 4.86727e+06 0 585817 4.34511e+06 0 603146 4.35566e+06 0 621542 4.36638e+06 0 641079 4.37725e+06 0 661831 4.38819e+06 0 683875 4.39916e+06 0 707287 4.41009e+06 0 732143 4.42087e+06 0 758511 4.43143e+06 0 786455 4.44164e+06 0 816029 4.45138e+06 0 847287 4.4605e+06 0 880284 4.46885e+06 0 915117 4.47621e+06 0 951989 4.48227e+06 0 991359 4.4865e+06 0 632595 4.20848e+06 0 649546 4.21208e+06 0 667220 4.21552e+06 0 685640 4.21876e+06 0 704829 4.22175e+06 0 724804 4.22445e+06 0 745585 4.2268e+06 0 767183 4.22874e+06 0 789609 4.23021e+06 0 812868 4.23114e+06 0 836959 4.23146e+06 0 861873 4.23109e+06 0 887589 4.22996e+06 0 914065 4.228e+06 0 941224 4.22523e+06 0 968921 4.22177e+06 0 636215 4.08311e+06 0 651313 4.08216e+06 0 666871 4.08096e+06 0 682892 4.07947e+06 0 699379 4.07768e+06 0 716333 4.07554e+06 0 733753 4.07303e+06 0 751635 4.07011e+06 0 769974 4.06677e+06 0 788761 4.06296e+06 0 807987 4.05866e+06 0 827638 4.05383e+06 0 847698 4.04845e+06 0 868147 4.04246e+06 0 888960 4.03581e+06 0 910101 4.02833e+06 0 612449 3.97445e+06 0 625412 3.97064e+06 0 638663 3.96657e+06 0 652200 3.96222e+06 0 666021 3.95758e+06 0 680121 3.95263e+06 0 694495 3.94734e+06 0 709135 3.94171e+06 0 724034 3.93571e+06 0 739182 3.92932e+06 0 754569 3.92253e+06 0 770182 3.91531e+06 0 786009 3.90765e+06 0 802041 3.89953e+06 0 818279 3.89095e+06 0 834743 3.88198e+06 0 571622 3.88247e+06 0 582565 3.87685e+06 0 593689 3.87099e+06 0 604991 3.86489e+06 0 616466 3.85853e+06 0 628110 3.8519e+06 0 639918 3.84499e+06 0 651883 3.83779e+06 0 663998 3.83029e+06 0 676257 3.82249e+06 0 688651 3.81437e+06 0 701171 3.80592e+06 0 713806 3.79714e+06 0 726539 3.78802e+06 0 739343 3.77852e+06 0 752165 3.76863e+06 0 520187 3.80553e+06 0 529331 3.79876e+06 0 538590 3.79179e+06 0 547959 3.78461e+06 0 557435 3.7772e+06 0 567013 3.76957e+06 0 576689 3.76171e+06 0 586456 3.7536e+06 0 596310 3.74525e+06 0 606244 3.73664e+06 0 616250 3.72778e+06 0 626324 3.71865e+06 0 636458 3.70925e+06 0 646650 3.69958e+06 0 656905 3.68963e+06 0 667249 3.67943e+06 0 462163 3.74172e+06 0 469730 3.73424e+06 0 477368 3.72657e+06 0 485075 3.71872e+06 0 492848 3.71068e+06 0 500682 3.70244e+06 0 508574 3.69401e+06 0 516521 3.68537e+06 0 524517 3.67653e+06 0 532560 3.66749e+06 0 540643 3.65823e+06 0 548763 3.64875e+06 0 556913 3.63906e+06 0 565085 3.62915e+06 0 573262 3.61902e+06 0 581416 3.60865e+06 0 400075 3.68937e+06 0 406255 3.68143e+06 0 412480 3.67333e+06 0 418746 3.66507e+06 0 425052 3.65664e+06 0 431395 3.64805e+06 0 437772 3.63928e+06 0 444179 3.63035e+06 0 450613 3.62124e+06 0 457071 3.61195e+06 0 463550 3.60248e+06 0 470044 3.59284e+06 0 476552 3.58301e+06 0 483072 3.573e+06 0 489606 3.56281e+06 0 496166 3.55243e+06 0 335513 3.64708e+06 0 340459 3.63885e+06 0 345432 3.63049e+06 0 350430 3.62198e+06 0 355452 3.61332e+06 0 360495 3.60452e+06 0 365557 3.59557e+06 0 370636 3.58646e+06 0 375730 3.57721e+06 0 380836 3.5678e+06 0 385952 3.55824e+06 0 391074 3.54853e+06 0 396201 3.53866e+06 0 401328 3.52863e+06 0 406447 3.51845e+06 0 411546 3.50811e+06 0 269479 3.61376e+06 0 273309 3.60537e+06 0 277155 3.59684e+06 0 281016 3.58819e+06 0 284891 3.5794e+06 0 288777 3.57048e+06 0 292673 3.56142e+06 0 296579 3.55223e+06 0 300490 3.54291e+06 0 304407 3.53345e+06 0 308327 3.52385e+06 0 312248 3.51412e+06 0 316168 3.50425e+06 0 320087 3.49425e+06 0 324005 3.4841e+06 0 327925 3.47382e+06 0 202599 3.58862e+06 0 205400 3.58012e+06 0 208211 3.5715e+06 0 211031 3.56276e+06 0 213858 3.55389e+06 0 216690 3.54491e+06 0 219529 3.5358e+06 0 222371 3.52657e+06 0 225216 3.51722e+06 0 228062 3.50774e+06 0 230909 3.49814e+06 0 233755 3.48842e+06 0 236599 3.47857e+06 0 239439 3.4686e+06 0 242272 3.4585e+06 0 245093 3.44829e+06 0 135254 3.57104e+06 0 137090 3.56249e+06 0 138930 3.55381e+06 0 140775 3.54503e+06 0 142623 3.53613e+06 0 144475 3.52711e+06 0 146328 3.51798e+06 0 148183 3.50873e+06 0 150039 3.49937e+06 0 151896 3.48989e+06 0 153751 3.4803e+06 0 155605 3.47059e+06 0 157456 3.46077e+06 0 159304 3.45083e+06 0 161150 3.44078e+06 0 162993 3.43061e+06 0 67675.4 3.56065e+06 0 68583.5 3.55206e+06 0 69493.8 3.54337e+06 0 70405.9 3.53456e+06 0 71319.6 3.52564e+06 0 72234.4 3.51661e+06 0 73150.1 3.50747e+06 0 74066.2 3.49822e+06 0 74982.5 3.48885e+06 0 75898.6 3.47938e+06 0 76814 3.4698e+06 0 77728.4 3.4601e+06 0 78641.5 3.4503e+06 0 79552.7 3.44038e+06 0 80461.6 3.43035e+06 0 81368.1 3.42022e+06 0 0 3.55721e+06 0 0 3.54862e+06 0 0 3.53991e+06 0 0 3.5311e+06 0 0 3.52217e+06 0 0 3.51314e+06 0 0 3.504e+06 0 0 3.49474e+06 0 0 3.48538e+06 0 0 3.47591e+06 0 0 3.46633e+06 0 0 3.45664e+06 0 0 3.44684e+06 0 0 3.43693e+06 0 0 3.42691e+06 0 0 3.41679e+06 0 </DataArray> 
</PointData> 
<Points> 
<DataArray type="Float32" NumberOfComponents="3"> 
0.1815 0.0604836 0 0.181933 0.0604551 0 0.182367 0.0604265 0 0.1828 0.0603979 0 0.183233 0.0603694 0 0.183667 0.0603408 0 0.1841 0.0603122 0 0.184533 0.0602836 0 0.184967 0.0602551 0 0.1854 0.0602265 0 0.185833 0.0601979 0 0.186267 0.0601694 0 0.1867 0.0601408 0 0.187133 0.0601122 0 0.187567 0.0600837 0 0.188 0.0600551 0 0.1815 0.0639181 0 0.181933 0.0638914 0 0.182367 0.0638647 0 0.1828 0.0638381 0 0.183233 0.0638114 0 0.183667 0.0637847 0 0.1841 0.0637581 0 0.184533 0.0637314 0 0.184967 0.0637047 0 0.1854 0.0636781 0 0.185833 0.0636514 0 0.186267 0.0636247 0 0.1867 0.0635981 0 0.187133 0.0635714 0 0.187567 0.0635447 0 0.188 0.0635181 0 0.1815 0.0673525 0 0.181933 0.0673277 0 0.182367 0.067303 0 0.1828 0.0672782 0 0.183233 0.0672534 0 0.183667 0.0672287 0 0.1841 0.0672039 0 0.184533 0.0671792 0 0.184967 0.0671544 0 0.1854 0.0671296 0 0.185833 0.0671049 0 0.186267 0.0670801 0 0.1867 0.0670554 0 0.187133 0.0670306 0 0.187567 0.0670058 0 0.188 0.0669811 0 0.1815 0.0707869 0 0.181933 0.0707641 0 0.182367 0.0707412 0 0.1828 0.0707183 0 0.183233 0.0706955 0 0.183667 0.0706726 0 0.1841 0.0706498 0 0.184533 0.0706269 0 0.184967 0.0706041 0 0.1854 0.0705812 0 0.185833 0.0705583 0 0.186267 0.0705355 0 0.1867 0.0705126 0 0.187133 0.0704898 0 0.187567 0.0704669 0 0.188 0.0704441 0 0.1815 0.0742213 0 0.181933 0.0742004 0 0.182367 0.0741794 0 0.1828 0.0741585 0 0.183233 0.0741375 0 0.183667 0.0741166 0 0.1841 0.0740956 0 0.184533 0.0740747 0 0.184967 0.0740537 0 0.1854 0.0740328 0 0.185833 0.0740118 0 0.186267 0.0739909 0 0.1867 0.0739699 0 0.187133 0.073949 0 0.187567 0.073928 0 0.188 0.0739071 0 0.1815 0.0776558 0 0.181933 0.0776367 0 0.182367 0.0776177 0 0.1828 0.0775986 0 0.183233 0.0775796 0 0.183667 0.0775605 0 0.1841 0.0775415 0 0.184533 0.0775224 0 0.184967 0.0775034 0 0.1854 0.0774843 0 0.185833 0.0774653 0 0.186267 0.0774462 0 0.1867 0.0774272 0 0.187133 0.0774082 0 0.187567 0.0773891 0 0.188 0.0773701 0 0.1815 0.0810902 0 0.181933 0.081073 0 0.182367 0.0810559 0 0.1828 0.0810388 0 0.183233 0.0810216 0 0.183667 0.0810045 0 0.1841 0.0809873 0 0.184533 0.0809702 0 0.184967 0.080953 0 0.1854 0.0809359 0 0.185833 0.0809188 0 0.186267 0.0809016 0 0.1867 0.0808845 0 0.187133 0.0808673 0 0.187567 0.0808502 0 0.188 0.0808331 0 0.1815 0.0845246 0 0.181933 0.0845094 0 0.182367 0.0844941 0 0.1828 0.0844789 0 0.183233 0.0844637 0 0.183667 0.0844484 0 0.1841 0.0844332 0 0.184533 0.0844179 0 0.184967 0.0844027 0 0.1854 0.0843875 0 0.185833 0.0843722 0 0.186267 0.084357 0 0.1867 0.0843418 0 0.187133 0.0843265 0 0.187567 0.0843113 0 0.188 0.084296 0 0.1815 0.087959 0 0.181933 0.0879457 0 0.182367 0.0879324 0 0.1828 0.087919 0 0.183233 0.0879057 0 0.183667 0.0878924 0 0.1841 0.087879 0 0.184533 0.0878657 0 0.184967 0.0878524 0 0.1854 0.087839 0 0.185833 0.0878257 0 0.186267 0.0878124 0 0.1867 0.087799 0 0.187133 0.0877857 0 0.187567 0.0877724 0 0.188 0.087759 0 0.1815 0.0913935 0 0.181933 0.091382 0 0.182367 0.0913706 0 0.1828 0.0913592 0 0.183233 0.0913477 0 0.183667 0.0913363 0 0.1841 0.0913249 0 0.184533 0.0913135 0 0.184967 0.091302 0 0.1854 0.0912906 0 0.185833 0.0912792 0 0.186267 0.0912677 0 0.1867 0.0912563 0 0.187133 0.0912449 0 0.187567 0.0912335 0 0.188 0.091222 0 0.1815 0.0948279 0 0.181933 0.0948184 0 0.182367 0.0948088 0 0.1828 0.0947993 0 0.183233 0.0947898 0 0.183667 0.0947803 0 0.1841 0.0947707 0 0.184533 0.0947612 0 0.184967 0.0947517 0 0.1854 0.0947422 0 0.185833 0.0947326 0 0.186267 0.0947231 0 0.1867 0.0947136 0 0.187133 0.0947041 0 0.187567 0.0946946 0 0.188 0.094685 0 0.1815 0.0982623 0 0.181933 0.0982547 0 0.182367 0.0982471 0 0.1828 0.0982394 0 0.183233 0.0982318 0 0.183667 0.0982242 0 0.1841 0.0982166 0 0.184533 0.098209 0 0.184967 0.0982014 0 0.1854 0.0981937 0 0.185833 0.0981861 0 0.186267 0.0981785 0 0.1867 0.0981709 0 0.187133 0.0981633 0 0.187567 0.0981556 0 0.188 0.098148 0 0.1815 0.101697 0 0.181933 0.101691 0 0.182367 0.101685 0 0.1828 0.10168 0 0.183233 0.101674 0 0.183667 0.101668 0 0.1841 0.101662 0 0.184533 0.101657 0 0.184967 0.101651 0 0.1854 0.101645 0 0.185833 0.10164 0 0.186267 0.101634 0 0.1867 0.101628 0 0.187133 0.101622 0 0.187567 0.101617 0 0.188 0.101611 0 0.1815 0.105131 0 0.181933 0.105127 0 0.182367 0.105124 0 0.1828 0.10512 0 0.183233 0.105116 0 0.183667 0.105112 0 0.1841 0.105108 0 0.184533 0.105104 0 0.184967 0.105101 0 0.1854 0.105097 0 0.185833 0.105093 0 0.186267 0.105089 0 0.1867 0.105085 0 0.187133 0.105082 0 0.187567 0.105078 0 0.188 0.105074 0 0.1815 0.108566 0 0.181933 0.108564 0 0.182367 0.108562 0 0.1828 0.10856 0 0.183233 0.108558 0 0.183667 0.108556 0 0.1841 0.108554 0 0.184533 0.108552 0 0.184967 0.10855 0 0.1854 0.108548 0 0.185833 0.108547 0 0.186267 0.108545 0 0.1867 0.108543 0 0.187133 0.108541 0 0.187567 0.108539 0 0.188 0.108537 0 0.1815 0.112 0 0.181933 0.112 0 0.182367 0.112 0 0.1828 0.112 0 0.183233 0.112 0 0.183667 0.112 0 0.1841 0.112 0 0.184533 0.112 0 0.184967 0.112 0 0.1854 0.112 0 0.185833 0.112 0 0.186267 0.112 0 0.1867 0.112 0 0.187133 0.112 0 0.187567 0.112 0 0.188 0.112 0 
</DataArray>
</Points> 
</Piece> 
</StructuredGrid> 
</VTKFile> 
