<?xml version="1.0"?> 
<VTKFile type="StructuredGrid" version="0.1"> 
<StructuredGrid WholeExtent="0 15 0 15 0 0"> 
<Piece Extent="0 15 0 15 0 0"> 
<PointData>
<DataArray type="Float32" Name="|E|" format="ascii" NumberOfComponents="3"> 
1.07288e-06 1.0709e+07 0 5.33462e-07 2.4003e+06 0 -4.64104e-07 1.24921e+06 0 5.29166e-07 1.13467e+06 0 -4.34811e-07 842204 0 2.08383e-07 472854 0 -2.19326e-07 212421 0 2.52388e-07 86102.9 0 -1.32248e-07 36558.4 0 -5.96046e-08 14324.5 0 2.17929e-07 2399.12 0 -3.65078e-07 -1124.79 0 3.50177e-07 257.65 0 -2.45869e-07 557.344 0 1.63913e-07 -403.641 0 1.43051e-06 3.14573e+07 0 -2.2751e+06 1.91785e+06 0 -2.85256e+06 1.4535e+06 0 -2.2011e+06 2.0307e+06 0 -1.44036e+06 2.0241e+06 0 -887057 1.5848e+06 0 -549793 1.07456e+06 0 -351773 668956 0 -223611 386047 0 -129673 195888 0 -61555.5 77929.3 0 -20691.7 20026.5 0 -3871.93 2446.34 0 -315.294 500.319 0 -33.8105 78.9789 0 14.8526 -137.624 0 -125.503 -1302.15 0 -2.7578e+06 1.01604e+06 0 -2.53977e+06 1.25947e+06 0 -2.61726e+06 1.17292e+06 0 -2.52736e+06 1.34705e+06 0 -2.19219e+06 1.50707e+06 0 -1.71507e+06 1.45322e+06 0 -1.23326e+06 1.19533e+06 0 -833998 845339 0 -535436 511299 0 -316877 254923 0 -158581 95383.1 0 -57427.2 21637.5 0 -11409.9 1313.92 0 -800.169 -429.434 0 -103.903 -178 0 -452.41 -2283.38 0 -2.54913e+06 1.39672e+06 0 -2.63838e+06 1.29868e+06 0 -2.617e+06 1.26855e+06 0 -2.60513e+06 1.1814e+06 0 -2.58406e+06 1.1697e+06 0 -2.45873e+06 1.22588e+06 0 -2.17096e+06 1.24149e+06 0 -1.75128e+06 1.12837e+06 0 -1.28996e+06 880814 0 -869024 567324 0 -524901 281082 0 -263915 90668.6 0 -93746.5 9512.18 0 -17022.6 -3946.39 0 -1109.01 -1640.99 0 -98.9163 -321.806 0 -2.55762e+06 1.4776e+06 0 -2.58358e+06 1.42082e+06 0 -2.63021e+06 1.37677e+06 0 -2.66187e+06 1.32666e+06 0 -2.65821e+06 1.24586e+06 0 -2.63759e+06 1.17068e+06 0 -2.57573e+06 1.13437e+06 0 -2.40413e+06 1.11158e+06 0 -2.07861e+06 1.03192e+06 0 -1.63155e+06 840203 0 -1.14747e+06 552716 0 -702777 257110 0 -343850 55734.5 0 -109895 -14618.9 0 -14412.4 -8942.46 0 781.964 1831.57 0 -2.48807e+06 1.61297e+06 0 -2.5385e+06 1.57909e+06 0 -2.58116e+06 1.51356e+06 0 -2.6221e+06 1.45729e+06 0 -2.67276e+06 1.39452e+06 0 -2.69904e+06 1.31438e+06 0 -2.69315e+06 1.21976e+06 0 -2.65303e+06 1.13065e+06 0 -2.53513e+06 1.05347e+06 0 -2.27379e+06 950888 0 -1.85334e+06 762482 0 -1.33485e+06 476156 0 -810101 174616 0 -365893 -13348.2 0 -90010.5 -41846.2 0 -4447.52 -7932.65 0 -2.38393e+06 1.74293e+06 0 -2.44188e+06 1.69969e+06 0 -2.50794e+06 1.65843e+06 0 -2.56958e+06 1.59789e+06 0 -2.61844e+06 1.53502e+06 0 -2.67537e+06 1.46213e+06 0 -2.72309e+06 1.3758e+06 0 -2.73922e+06 1.27078e+06 0 -2.71573e+06 1.15094e+06 0 -2.62148e+06 1.0258e+06 0 -2.38911e+06 876513 0 -1.97652e+06 650877 0 -1.42181e+06 334360 0 -819588 29059.4 0 -305559 -105081 0 -39715 -55619.7 0 -2.30312e+06 1.80068e+06 0 -2.35844e+06 1.78303e+06 0 -2.41123e+06 1.75816e+06 0 -2.47812e+06 1.72194e+06 0 -2.55238e+06 1.66807e+06 0 -2.61652e+06 1.60383e+06 0 -2.68228e+06 1.52388e+06 0 -2.74453e+06 1.42784e+06 0 -2.78031e+06 1.30987e+06 0 -2.77214e+06 1.16405e+06 0 -2.68701e+06 992856 0 -2.45444e+06 780554 0 -2.01953e+06 482710 0 -1.40225e+06 110902 0 -705314 -173873 0 -156401 -174701 0 -2.1923e+06 1.86803e+06 0 -2.25147e+06 1.85571e+06 0 -2.32149e+06 1.8317e+06 0 -2.38556e+06 1.80737e+06 0 -2.45702e+06 1.77332e+06 0 -2.53969e+06 1.72406e+06 0 -2.61936e+06 1.66016e+06 0 -2.69859e+06 1.57504e+06 0 -2.77473e+06 1.46745e+06 0 -2.82695e+06 1.3307e+06 0 -2.8308e+06 1.15255e+06 0 -2.74271e+06 925044 0 -2.48297e+06 624035 0 -1.98567e+06 217097 0 -1.25134e+06 -214898 0 -423239 -378904 0 -2.10207e+06 1.88568e+06 0 -2.15942e+06 1.88733e+06 0 -2.21807e+06 1.88733e+06 0 -2.29151e+06 1.87195e+06 0 -2.36652e+06 1.85043e+06 0 -2.44724e+06 1.81753e+06 0 -2.53926e+06 1.76987e+06 0 -2.63402e+06 1.70456e+06 0 -2.72993e+06 1.613e+06 0 -2.82215e+06 1.49044e+06 0 -2.88968e+06 1.32575e+06 0 -2.90088e+06 1.09908e+06 0 -2.79492e+06 787377 0 -2.47596e+06 351538 0 -1.84921e+06 -202881 0 -880348 -628608 0 -2.00329e+06 1.90025e+06 0 -2.06152e+06 1.91076e+06 0 -2.12731e+06 1.91377e+06 0 -2.1942e+06 1.91558e+06 0 -2.27306e+06 1.90635e+06 0 -2.35853e+06 1.88842e+06 0 -2.45164e+06 1.85678e+06 0 -2.55641e+06 1.80861e+06 0 -2.66813e+06 1.73859e+06 0 -2.78408e+06 1.63611e+06 0 -2.89579e+06 1.49074e+06 0 -2.97965e+06 1.28172e+06 0 -2.99218e+06 975486 0 -2.84877e+06 523155 0 -2.41441e+06 -122215 0 -1.5004e+06 -841215 0 -1.91366e+06 1.89237e+06 0 -1.97151e+06 1.91268e+06 0 -2.03405e+06 1.92989e+06 0 -2.10545e+06 1.93962e+06 0 -2.1817e+06 1.94428e+06 0 -2.26906e+06 1.93924e+06 0 -2.36634e+06 1.92384e+06 0 -2.47474e+06 1.89266e+06 0 -2.59671e+06 1.8417e+06 0 -2.72988e+06 1.76248e+06 0 -2.87103e+06 1.64108e+06 0 -3.00806e+06 1.45727e+06 0 -3.11173e+06 1.17327e+06 0 -3.11973e+06 726938 0 -2.90473e+06 30009 0 -2.20862e+06 -942939 0 -1.82548e+06 1.87601e+06 0 -1.88384e+06 1.90525e+06 0 -1.94782e+06 1.93061e+06 0 -2.01765e+06 1.952e+06 0 -2.09645e+06 1.96731e+06 0 -2.18345e+06 1.97544e+06 0 -2.28259e+06 1.97361e+06 0 -2.39488e+06 1.95929e+06 0 -2.52259e+06 1.92667e+06 0 -2.66775e+06 1.86922e+06 0 -2.82993e+06 1.77387e+06 0 -3.00532e+06 1.61943e+06 0 -3.17908e+06 1.36785e+06 0 -3.31247e+06 949136 0 -3.31093e+06 243773 0 -2.92938e+06 -900428 0 -1.74145e+06 1.85003e+06 0 -1.80056e+06 1.88779e+06 0 -1.86499e+06 1.92269e+06 0 -1.93589e+06 1.95384e+06 0 -2.01448e+06 1.97976e+06 0 -2.10309e+06 1.99965e+06 0 -2.20314e+06 2.01104e+06 0 -2.31791e+06 2.01141e+06 0 -2.45011e+06 1.99652e+06 0 -2.60335e+06 1.9595e+06 0 -2.78084e+06 1.88949e+06 0 -2.98448e+06 1.76613e+06 0 -3.21185e+06 1.55252e+06 0 -3.44722e+06 1.17712e+06 0 -3.63862e+06 502713 0 -3.60967e+06 -715191 0 -1.66072e+06 1.81712e+06 0 -1.72098e+06 1.86372e+06 0 -1.78641e+06 1.90762e+06 0 -1.85829e+06 1.94798e+06 0 -1.93787e+06 1.98453e+06 0 -2.02726e+06 2.01507e+06 0 -2.12876e+06 2.03883e+06 0 -2.24541e+06 2.05289e+06 0 -2.38103e+06 2.05409e+06 0 -2.5403e+06 2.03646e+06 0 -2.72906e+06 1.99031e+06 0 -2.95394e+06 1.89782e+06 0 -3.22244e+06 1.72469e+06 0 -3.53967e+06 1.40266e+06 0 -3.89789e+06 790752 0 -4.21846e+06 -406581 0 -1.58303e+06 1.77898e+06 0 -1.64491e+06 1.8344e+06 0 -1.71187e+06 1.8873e+06 0 -1.78507e+06 1.93702e+06 0 -1.86585e+06 1.98344e+06 0 -1.95658e+06 2.02437e+06 0 -2.05944e+06 2.05959e+06 0 -2.17801e+06 2.08645e+06 0 -2.31646e+06 2.1025e+06 0 -2.48057e+06 2.10276e+06 0 -2.67795e+06 2.07914e+06 0 -2.91912e+06 2.01628e+06 0 -3.21941e+06 1.88422e+06 0 -3.60167e+06 1.62138e+06 0 -4.09924e+06 1.09511e+06 0 -4.73941e+06 -3.09944e-06 0 </DataArray> 
</PointData> 
<Points> 
<DataArray type="Float32" NumberOfComponents="3"> 
0.1 0.045 0 0.100867 0.045 0 0.101733 0.045 0 0.1026 0.045 0 0.103467 0.045 0 0.104333 0.045 0 0.1052 0.045 0 0.106067 0.045 0 0.106933 0.045 0 0.1078 0.045 0 0.108667 0.045 0 0.109533 0.045 0 0.1104 0.045 0 0.111267 0.045 0 0.112133 0.045 0 0.113 0.045 0 0.0978533 0.0464889 0 0.0987669 0.046396 0 0.0996849 0.0463026 0 0.100607 0.0462088 0 0.101534 0.0461145 0 0.102466 0.0460198 0 0.103402 0.0459246 0 0.104343 0.0458289 0 0.105289 0.0457328 0 0.106239 0.0456361 0 0.107194 0.045539 0 0.108153 0.0454414 0 0.109118 0.0453433 0 0.110087 0.0452448 0 0.111062 0.0451457 0 0.112041 0.0450461 0 0.0957067 0.0479778 0 0.096665 0.0478038 0 0.0976321 0.0476282 0 0.0986081 0.047451 0 0.099593 0.0472721 0 0.100587 0.0470916 0 0.10159 0.0469095 0 0.102603 0.0467256 0 0.103625 0.04654 0 0.104657 0.0463527 0 0.105698 0.0461636 0 0.106749 0.0459727 0 0.107811 0.04578 0 0.108882 0.0455855 0 0.109964 0.045389 0 0.111056 0.0451907 0 0.09356 0.0494667 0 0.0945633 0.0492219 0 0.0955793 0.0489741 0 0.0966082 0.0487231 0 0.0976503 0.0484689 0 0.0987058 0.0482114 0 0.0997751 0.0479506 0 0.100858 0.0476864 0 0.101956 0.0474187 0 0.103068 0.0471474 0 0.104195 0.0468726 0 0.105337 0.046594 0 0.106494 0.0463117 0 0.107667 0.0460255 0 0.108856 0.0457354 0 0.110062 0.0454414 0 0.0914133 0.0509556 0 0.0924638 0.0506491 0 0.0935306 0.0503378 0 0.0946141 0.0500217 0 0.0957146 0.0497006 0 0.0968327 0.0493744 0 0.0979686 0.049043 0 0.0991228 0.0487063 0 0.100296 0.048364 0 0.101488 0.0480162 0 0.1027 0.0476626 0 0.103932 0.0473031 0 0.105185 0.0469376 0 0.106459 0.0465658 0 0.107755 0.0461877 0 0.109074 0.0458031 0 0.0892667 0.0524444 0 0.0903689 0.0520837 0 0.0914906 0.0517166 0 0.0926323 0.0513429 0 0.0937945 0.0509625 0 0.0949778 0.0505753 0 0.0961828 0.0501809 0 0.0974101 0.0497792 0 0.0986602 0.0493701 0 0.0999339 0.0489532 0 0.101232 0.0485284 0 0.102555 0.0480955 0 0.103903 0.0476542 0 0.105278 0.0472042 0 0.10668 0.0467454 0 0.10811 0.0462774 0 0.08712 0.0539333 0 0.0882807 0.0535243 0 0.0894636 0.0531075 0 0.0906693 0.0526827 0 0.0918985 0.0522496 0 0.0931518 0.0518079 0 0.0944301 0.0513575 0 0.095734 0.0508981 0 0.0970643 0.0504293 0 0.0984218 0.049951 0 0.0998074 0.0494627 0 0.101222 0.0489643 0 0.102666 0.0484553 0 0.104142 0.0479354 0 0.105649 0.0474044 0 0.107189 0.0468617 0 0.0849733 0.0554222 0 0.0862015 0.0549695 0 0.0874539 0.0545078 0 0.0887315 0.0540368 0 0.0900349 0.0535564 0 0.0913649 0.0530661 0 0.0927224 0.0525657 0 0.0941082 0.0520548 0 0.0955232 0.0515332 0 0.0969684 0.0510005 0 0.0984446 0.0504563 0 0.099953 0.0499002 0 0.101495 0.0493319 0 0.103071 0.048751 0 0.104682 0.048157 0 0.10633 0.0475495 0 0.0828267 0.0569111 0 0.0841334 0.0564176 0 0.085466 0.0559144 0 0.0868252 0.0554011 0 0.088212 0.0548774 0 0.0896271 0.0543429 0 0.0910715 0.0537975 0 0.0925459 0.0532407 0 0.0940514 0.0526721 0 0.095589 0.0520915 0 0.0971598 0.0514983 0 0.0987647 0.0508922 0 0.100405 0.0502728 0 0.102082 0.0496396 0 0.103796 0.0489921 0 0.105549 0.0483299 0 0.08068 0.0584 0 0.0820786 0.0578673 0 0.0835039 0.0573244 0 0.0849567 0.056771 0 0.0864377 0.0562068 0 0.087948 0.0556316 0 0.0894882 0.0550449 0 0.0910593 0.0544464 0 0.0926622 0.0538359 0 0.094298 0.0532128 0 0.0959675 0.0525768 0 0.097672 0.0519276 0 0.0994125 0.0512646 0 0.10119 0.0505875 0 0.103006 0.0498957 0 0.104862 0.0491889 0 0.0785333 0.0598889 0 0.0800393 0.0593168 0 0.0815718 0.0587347 0 0.0831316 0.0581422 0 0.0847195 0.057539 0 0.0863362 0.0569248 0 0.0879825 0.0562995 0 0.0896592 0.0556625 0 0.0913672 0.0550137 0 0.0931073 0.0543527 0 0.0948806 0.0536791 0 0.0966878 0.0529926 0 0.0985301 0.0522928 0 0.100408 0.0515793 0 0.102324 0.0508517 0 0.104277 0.0501096 0 0.0763867 0.0613778 0 0.0780175 0.0607648 0 0.0796736 0.0601424 0 0.0813557 0.0595102 0 0.0830642 0.0588681 0 0.0847998 0.0582157 0 0.0865633 0.057553 0 0.0883552 0.0568795 0 0.0901762 0.0561951 0 0.0920271 0.0554994 0 0.0939087 0.0547923 0 0.0958216 0.0540733 0 0.0977666 0.0533423 0 0.0997447 0.0525989 0 0.101757 0.0518427 0 0.103803 0.0510735 0 0.07424 0.0628667 0 0.0760154 0.0622098 0 0.0778132 0.0615445 0 0.079634 0.0608708 0 0.0814781 0.0601885 0 0.083346 0.0594974 0 0.0852381 0.0587973 0 0.087155 0.058088 0 0.089097 0.0573694 0 0.0910648 0.0566413 0 0.0930588 0.0559035 0 0.0950796 0.0551558 0 0.0971277 0.054398 0 0.0992036 0.0536299 0 0.101308 0.0528513 0 0.103441 0.0520619 0 0.0720933 0.0643556 0 0.0740349 0.0636501 0 0.0759942 0.0629382 0 0.0779714 0.0622198 0 0.0799667 0.0614948 0 0.0819805 0.0607631 0 0.084013 0.0600246 0 0.0860644 0.0592792 0 0.0881351 0.0585269 0 0.0902252 0.0577674 0 0.092335 0.0570008 0 0.0944649 0.0562269 0 0.0966151 0.0554457 0 0.098786 0.0546569 0 0.100978 0.0538605 0 0.103191 0.0530565 0 0.0699467 0.0658444 0 0.072078 0.0650844 0 0.0742198 0.0643206 0 0.0763721 0.063553 0 0.0785349 0.0627817 0 0.0807084 0.0620066 0 0.0828926 0.0612277 0 0.0850876 0.0604449 0 0.0872935 0.0596583 0 0.0895103 0.0588677 0 0.0917382 0.0580732 0 0.0939772 0.0572748 0 0.0962274 0.0564723 0 0.0984889 0.0556658 0 0.100762 0.0548553 0 0.103046 0.0540406 0 0.0678 0.0673333 0 0.0701467 0.0665111 0 0.0724933 0.0656889 0 0.07484 0.0648667 0 0.0771867 0.0640444 0 0.0795333 0.0632222 0 0.08188 0.0624 0 0.0842267 0.0615778 0 0.0865733 0.0607556 0 0.08892 0.0599333 0 0.0912667 0.0591111 0 0.0936133 0.0582889 0 0.09596 0.0574667 0 0.0983067 0.0566444 0 0.100653 0.0558222 0 0.103 0.055 0 
</DataArray>
</Points> 
</Piece> 
</StructuredGrid> 
</VTKFile> 
