<?xml version="1.0"?> 
<VTKFile type="StructuredGrid" version="0.1"> 
<StructuredGrid WholeExtent="0 7 0 7 0 0"> 
<Piece Extent="0 7 0 7 0 0"> 
<PointData>
<DataArray type="Float32" Name="|E|" format="ascii" NumberOfComponents="3"> 
203894 3.09248e+06 0 -12536.4 3.09513e+06 0 -16938.7 3.10518e+06 0 -18525 3.12088e+06 0 -19395.2 3.13907e+06 0 -19942.3 3.15286e+06 0 -20201.1 3.14504e+06 0 -19903.8 3.06528e+06 0 140260 3.12143e+06 0 141181 3.12737e+06 0 141076 3.14007e+06 0 140532 3.16064e+06 0 139359 3.19118e+06 0 136557 3.23601e+06 0 129784 3.30537e+06 0 111999 3.42797e+06 0 287479 3.08933e+06 0 290620 3.09451e+06 0 296272 3.10391e+06 0 305468 3.11787e+06 0 319462 3.13698e+06 0 340294 3.16206e+06 0 370988 3.1935e+06 0 416746 3.22835e+06 0 350549 3.01825e+06 0 354574 3.01907e+06 0 361343 3.02023e+06 0 371207 3.0216e+06 0 384953 3.02297e+06 0 403709 3.02391e+06 0 429014 3.02384e+06 0 463821 3.02252e+06 0 326295 2.95646e+06 0 330108 2.95258e+06 0 335152 2.9474e+06 0 341857 2.94078e+06 0 350567 2.93246e+06 0 361635 2.92212e+06 0 375335 2.90924e+06 0 391326 2.89291e+06 0 244864 2.91691e+06 0 247211 2.90903e+06 0 250208 2.89963e+06 0 253921 2.88862e+06 0 258463 2.87588e+06 0 263971 2.86124e+06 0 270642 2.8445e+06 0 279039 2.82545e+06 0 129917 2.89642e+06 0 131103 2.88545e+06 0 132465 2.87351e+06 0 134040 2.86055e+06 0 135847 2.84654e+06 0 137896 2.83141e+06 0 140169 2.81511e+06 0 142487 2.79758e+06 0 0 2.88988e+06 0 0 2.87684e+06 0 0 2.86368e+06 0 0 2.85038e+06 0 0 2.83692e+06 0 0 2.8233e+06 0 0 2.8095e+06 0 0 2.79545e+06 0 </DataArray> 
</PointData> 
<Points> 
<DataArray type="Float32" NumberOfComponents="3"> 
0.1815 0.0453049 0 0.181741 0.0453053 0 0.182429 0.0453087 0 0.183564 0.0453152 0 0.185144 0.0453248 0 0.187172 0.0453375 0 0.189645 0.0453533 0 0.192565 0.0453721 0 0.1815 0.0548328 0 0.18184 0.0548331 0 0.182562 0.054836 0 0.183667 0.0548416 0 0.185154 0.0548498 0 0.187025 0.0548607 0 0.189277 0.0548742 0 0.191913 0.0548904 0 0.1815 0.0643607 0 0.181938 0.0643609 0 0.182694 0.0643634 0 0.18377 0.064368 0 0.185164 0.0643749 0 0.186878 0.0643839 0 0.18891 0.0643952 0 0.191261 0.0644087 0 0.1815 0.0738885 0 0.182036 0.0738887 0 0.182827 0.0738907 0 0.183873 0.0738944 0 0.185174 0.0738999 0 0.186731 0.0739071 0 0.188542 0.0739162 0 0.190609 0.0739269 0 0.1815 0.0834164 0 0.182134 0.0834165 0 0.18296 0.083418 0 0.183976 0.0834208 0 0.185184 0.0834249 0 0.186584 0.0834304 0 0.188174 0.0834371 0 0.189956 0.0834452 0 0.1815 0.0929443 0 0.182232 0.0929444 0 0.183092 0.0929453 0 0.184079 0.0929472 0 0.185194 0.0929499 0 0.186437 0.0929536 0 0.187807 0.0929581 0 0.189304 0.0929635 0 0.1815 0.102472 0 0.18233 0.102472 0 0.183225 0.102473 0 0.184183 0.102474 0 0.185204 0.102475 0 0.18629 0.102477 0 0.187439 0.102479 0 0.188652 0.102482 0 0.1815 0.112 0 0.182429 0.112 0 0.183357 0.112 0 0.184286 0.112 0 0.185214 0.112 0 0.186143 0.112 0 0.187071 0.112 0 0.188 0.112 0 
</DataArray>
</Points> 
</Piece> 
</StructuredGrid> 
</VTKFile> 
