<?xml version="1.0"?> 
<VTKFile type="StructuredGrid" version="0.1"> 
<StructuredGrid WholeExtent="0 7 0 7 0 0"> 
<Piece Extent="0 7 0 7 0 0"> 
<PointData>
<DataArray type="Float32" Name="|E|" format="ascii" NumberOfComponents="3"> 
-2.10998e+06 40763.5 0 -2.16852e+06 115407 0 -2.27349e+06 186494 0 -2.43192e+06 260355 0 -2.66084e+06 336712 0 -2.99289e+06 408860 0 -3.41631e+06 375775 0 -3.7866e+06 -1.19209e-07 0 -2.10896e+06 53810.4 0 -2.17123e+06 131665 0 -2.27813e+06 207018 0 -2.43633e+06 289032 0 -2.66574e+06 375242 0 -2.98968e+06 464670 0 -3.45924e+06 447598 0 -3.86996e+06 2.6077e-08 0 -2.10837e+06 67850 0 -2.17423e+06 148854 0 -2.28246e+06 228820 0 -2.44017e+06 318484 0 -2.66887e+06 415494 0 -2.98488e+06 522470 0 -3.50166e+06 531425 0 -3.9865e+06 0 0 -2.10823e+06 82963.3 0 -2.17754e+06 167068 0 -2.28646e+06 251721 0 -2.44332e+06 349018 0 -2.67043e+06 457107 0 -2.97695e+06 582560 0 -3.54278e+06 630902 0 -4.14451e+06 -3.72529e-08 0 -2.10861e+06 99326.5 0 -2.18115e+06 186309 0 -2.29003e+06 275650 0 -2.44569e+06 380838 0 -2.67048e+06 499762 0 -2.96444e+06 644979 0 -3.57953e+06 750804 0 -4.35819e+06 2.98023e-08 0 -2.10964e+06 117271 0 -2.185e+06 206520 0 -2.2931e+06 300591 0 -2.44725e+06 414137 0 -2.66896e+06 543043 0 -2.94614e+06 709524 0 -3.60518e+06 897567 0 -4.65095e+06 0 0 -2.11154e+06 137209 0 -2.18901e+06 227591 0 -2.29557e+06 326547 0 -2.44806e+06 449168 0 -2.66555e+06 586295 0 -2.92148e+06 775755 0 -3.60649e+06 1.07964e+06 0 -5.06132e+06 2.98023e-08 0 -2.11464e+06 159327 0 -2.19299e+06 249398 0 -2.29731e+06 353549 0 -2.44832e+06 486301 0 -2.6595e+06 628381 0 -2.8918e+06 842855 0 -3.55807e+06 1.30936e+06 0 -5.65426e+06 -2.38419e-07 0 </DataArray> 
</PointData> 
<Points> 
<DataArray type="Float32" NumberOfComponents="3"> 
0.006 0.016 0 0.0158571 0.0151429 0 0.0257143 0.0142857 0 0.0355714 0.0134286 0 0.0454286 0.0125714 0 0.0552857 0.0117143 0 0.0651429 0.0108571 0 0.075 0.01 0 0.00742857 0.0167143 0 0.0170816 0.0159796 0 0.0267347 0.0152449 0 0.0363878 0.0145102 0 0.0460408 0.0137755 0 0.0556939 0.0130408 0 0.0653469 0.0123061 0 0.075 0.0115714 0 0.00885714 0.0174286 0 0.0183061 0.0168163 0 0.0277551 0.0162041 0 0.0372041 0.0155918 0 0.0466531 0.0149796 0 0.056102 0.0143673 0 0.065551 0.0137551 0 0.075 0.0131429 0 0.0102857 0.0181429 0 0.0195306 0.0176531 0 0.0287755 0.0171633 0 0.0380204 0.0166735 0 0.0472653 0.0161837 0 0.0565102 0.0156939 0 0.0657551 0.0152041 0 0.075 0.0147143 0 0.0117143 0.0188571 0 0.0207551 0.0184898 0 0.0297959 0.0181224 0 0.0388367 0.0177551 0 0.0478776 0.0173878 0 0.0569184 0.0170204 0 0.0659592 0.0166531 0 0.075 0.0162857 0 0.0131429 0.0195714 0 0.0219796 0.0193265 0 0.0308163 0.0190816 0 0.0396531 0.0188367 0 0.0484898 0.0185918 0 0.0573265 0.0183469 0 0.0661633 0.018102 0 0.075 0.0178571 0 0.0145714 0.0202857 0 0.0232041 0.0201633 0 0.0318367 0.0200408 0 0.0404694 0.0199184 0 0.049102 0.0197959 0 0.0577347 0.0196735 0 0.0663673 0.019551 0 0.075 0.0194286 0 0.016 0.021 0 0.0244286 0.021 0 0.0328571 0.021 0 0.0412857 0.021 0 0.0497143 0.021 0 0.0581429 0.021 0 0.0665714 0.021 0 0.075 0.021 0 
</DataArray>
</Points> 
</Piece> 
</StructuredGrid> 
</VTKFile> 
