<?xml version="1.0"?> 
<VTKFile type="StructuredGrid" version="0.1"> 
<StructuredGrid WholeExtent="0 7 0 7 0 0"> 
<Piece Extent="0 7 0 7 0 0"> 
<PointData>
<DataArray type="Float32" Name="|E|" format="ascii" NumberOfComponents="3"> 
-1.94136e+06 865083 0 -1.68072e+06 840987 0 -1.36277e+06 799327 0 -1.01726e+06 706229 0 -689974 553416 0 -410589 363952 0 -183618 172167 0 -11832.7 -2.98023e-07 0 -2.08521e+06 744480 0 -1.87414e+06 682211 0 -1.62292e+06 619315 0 -1.33998e+06 538368 0 -1.04493e+06 426103 0 -760069 282467 0 -496969 121839 0 -270848 -35120.8 0 -2.25161e+06 650134 0 -2.08708e+06 554857 0 -1.89459e+06 461704 0 -1.67676e+06 364765 0 -1.43991e+06 257575 0 -1.19375e+06 136389 0 -952248 438.534 0 -701906 -141747 0 -2.44147e+06 576417 0 -2.33022e+06 455410 0 -2.19784e+06 332604 0 -2.04602e+06 207608 0 -1.87737e+06 79464.5 0 -1.69374e+06 -52710.9 0 -1.4953e+06 -188618 0 -1.32105e+06 -331588 0 -2.6587e+06 521747 0 -2.61447e+06 382674 0 -2.55536e+06 234164 0 -2.4797e+06 77958.5 0 -2.38772e+06 -83581.9 0 -2.28273e+06 -248060 0 -2.16834e+06 -411153 0 -1.99517e+06 -576831 0 -2.90824e+06 488010 0 -2.95619e+06 344064 0 -2.99889e+06 178241 0 -3.03234e+06 -11114.8 0 -3.05068e+06 -224804 0 -3.04626e+06 -462696 0 -3.01118e+06 -730976 0 -2.99004e+06 -962823 0 -3.19502e+06 481458 0 -3.37819e+06 349188 0 -3.57273e+06 183278 0 -3.78937e+06 -20966 0 -4.03479e+06 -276490 0 -4.2874e+06 -597784 0 -4.52941e+06 -955459 0 -4.95816e+06 -1.75032e+06 0 -3.63955e+06 521872 0 -3.90474e+06 430390 0 -4.33408e+06 348668 0 -4.89342e+06 229262 0 -5.72249e+06 -31774.6 0 -6.69e+06 -595784 0 -9.78211e+06 -2.98036e+06 0 -4.175e+06 -1.60557e+06 0 </DataArray> 
</PointData> 
<Points> 
<DataArray type="Float32" NumberOfComponents="3"> 
0.1 0.055 0 0.101829 0.0535996 0 0.103658 0.0521991 0 0.105487 0.0507987 0 0.107316 0.0493982 0 0.109145 0.0479978 0 0.110974 0.0465974 0 0.112803 0.0451969 0 0.1 0.0569571 0 0.101688 0.0557312 0 0.103412 0.0544795 0 0.105172 0.0532014 0 0.10697 0.051896 0 0.108807 0.0505624 0 0.110683 0.0491996 0 0.112601 0.0478068 0 0.1 0.0589143 0 0.101529 0.0579801 0 0.103113 0.057013 0 0.104754 0.0560109 0 0.106454 0.0549722 0 0.108219 0.0538947 0 0.11005 0.0527761 0 0.111952 0.0516142 0 0.1 0.0608714 0 0.101354 0.0603254 0 0.102765 0.0597561 0 0.104238 0.0591619 0 0.105777 0.0585412 0 0.107386 0.0578921 0 0.109071 0.0572127 0 0.110836 0.0565008 0 0.1 0.0628286 0 0.101162 0.0627435 0 0.102375 0.0626549 0 0.10364 0.0625623 0 0.104961 0.0624656 0 0.106343 0.0623645 0 0.10779 0.0622587 0 0.109305 0.0621478 0 0.1 0.0647857 0 0.100958 0.0652092 0 0.10195 0.0656477 0 0.102977 0.0661019 0 0.104043 0.0665728 0 0.105148 0.0670613 0 0.106295 0.0675684 0 0.107486 0.0680952 0 0.1 0.0667429 0 0.100742 0.0676964 0 0.1015 0.06867 0 0.102274 0.0696641 0 0.103065 0.0706795 0 0.103873 0.0717168 0 0.104698 0.0727768 0 0.105541 0.0738601 0 0.1 0.0687 0 0.100518 0.0701793 0 0.101037 0.0716586 0 0.101555 0.073138 0 0.102073 0.0746173 0 0.102591 0.0760966 0 0.10311 0.0775759 0 0.103628 0.0790553 0 
</DataArray>
</Points> 
</Piece> 
</StructuredGrid> 
</VTKFile> 
