<?xml version="1.0"?> 
<VTKFile type="StructuredGrid" version="0.1"> 
<StructuredGrid WholeExtent="0 7 0 7 0 0"> 
<Piece Extent="0 7 0 7 0 0"> 
<PointData>
<DataArray type="Float32" Name="|E|" format="ascii" NumberOfComponents="3"> 
3.38849e+06 -1.40356e+06 0 2.15575e+06 689054 0 1.38183e+06 650985 0 998352 476384 0 743152 325745 0 584621 200205 0 495495 95191.2 0 464962 0 0 3.78989e+06 -1.00991e+06 0 2.098e+06 848435 0 1.32248e+06 733014 0 935484 536786 0 689336 371859 0 537481 232722 0 452115 112696 0 419944 0 0 4.12942e+06 -519158 0 2.03529e+06 1.00769e+06 0 1.26049e+06 818108 0 871121 597251 0 632296 416884 0 484866 263312 0 401190 128684 0 365473 0 0 4.39209e+06 53643 0 1.97298e+06 1.16747e+06 0 1.1952e+06 905185 0 806069 658072 0 572153 460959 0 427262 292248 0 343518 143356 0 302747 0 0 4.56501e+06 690604 0 1.91666e+06 1.33069e+06 0 1.12576e+06 992505 0 741389 719968 0 509189 504170 0 365395 319791 0 280144 156851 0 233166 0 0 4.6375e+06 1.37088e+06 0 1.87146e+06 1.50289e+06 0 1.05143e+06 1.07749e+06 0 678239 784163 0 443840 546494 0 300164 346232 0 212299 169249 0 158316 0 0 4.6011e+06 2.07009e+06 0 1.84153e+06 1.69234e+06 0 971798 1.15654e+06 0 617668 852370 0 376698 587765 0 232514 371911 0 141332 180533 0 79928.4 0 0 4.44972e+06 2.75919e+06 0 1.82958e+06 1.91031e+06 0 886939 1.22494e+06 0 560430 926678 0 308560 627632 0 163273 397220 0 68706.5 190544 0 -220.686 0 0 </DataArray> 
</PointData> 
<Points> 
<DataArray type="Float32" NumberOfComponents="3"> 
0.2018 0.0378 0 0.226257 0.0378 0 0.250714 0.0378 0 0.275171 0.0378 0 0.299629 0.0378 0 0.324086 0.0378 0 0.348543 0.0378 0 0.373 0.0378 0 0.202484 0.0398184 0 0.22742 0.0410734 0 0.25216 0.0423185 0 0.276707 0.0435538 0 0.301062 0.0447796 0 0.325227 0.0459958 0 0.349206 0.0472025 0 0.373 0.0484 0 0.202901 0.0419587 0 0.228176 0.0444908 0 0.253114 0.0469893 0 0.277724 0.0494548 0 0.302011 0.051888 0 0.325982 0.0542895 0 0.349643 0.05666 0 0.373 0.059 0 0.203026 0.0441667 0 0.228486 0.0479763 0 0.253537 0.0517247 0 0.27819 0.0554136 0 0.302454 0.0590442 0 0.326338 0.0626179 0 0.34985 0.0661361 0 0.373 0.0696 0 0.202846 0.0463814 0 0.228333 0.051447 0 0.253411 0.0564313 0 0.27809 0.0613363 0 0.302379 0.0661639 0 0.326288 0.0709159 0 0.349826 0.075594 0 0.373 0.0802 0 0.202366 0.0485402 0 0.22772 0.0548194 0 0.252737 0.0610152 0 0.277424 0.0671293 0 0.301788 0.0731633 0 0.325834 0.0791187 0 0.34957 0.0849971 0 0.373 0.0908 0 0.201608 0.0505849 0 0.226672 0.0580161 0 0.251539 0.0653888 0 0.276212 0.0727039 0 0.300692 0.0799618 0 0.324982 0.0871634 0 0.349084 0.0943093 0 0.373 0.1014 0 0.200607 0.0524662 0 0.225234 0.0609711 0 0.249862 0.0694759 0 0.27449 0.0779807 0 0.299117 0.0864855 0 0.323745 0.0949904 0 0.348372 0.103495 0 0.373 0.112 0 
</DataArray>
</Points> 
</Piece> 
</StructuredGrid> 
</VTKFile> 
