<?xml version="1.0"?> 
<VTKFile type="StructuredGrid" version="0.1"> 
<StructuredGrid WholeExtent="0 7 0 7 0 0"> 
<Piece Extent="0 7 0 7 0 0"> 
<PointData>
<DataArray type="Float32" Name="|E|" format="ascii" NumberOfComponents="3"> 
1.3056e+06 -133225 0 1.77881e+06 -19679.3 0 1.56854e+06 66882.5 0 1.19496e+06 66051.1 0 894756 47829.8 0 691644 29502.3 0 576021 14054.6 0 536360 0 0 1.30796e+06 -133466 0 1.78379e+06 -22960.5 0 1.56851e+06 76361.1 0 1.19398e+06 75595.4 0 893908 54350.6 0 691041 33699 0 575575 15983.2 0 535974 0 0 1.30872e+06 -133543 0 1.78974e+06 -26154.3 0 1.56845e+06 85905.7 0 1.19298e+06 85164.6 0 892982 60850.3 0 690374 37896.4 0 575077 17906.6 0 535534 0 0 1.30783e+06 -133452 0 1.79669e+06 -29263.3 0 1.56835e+06 95517 0 1.19194e+06 94767.3 0 891977 67324.1 0 689644 42096.7 0 574527 19823.5 0 535041 0 0 1.30527e+06 -133191 0 1.80466e+06 -32289.9 0 1.56818e+06 105196 0 1.19088e+06 104412 0 890892 73766.9 0 688850 46302.1 0 573924 21732.9 0 534494 0 0 1.30098e+06 -132753 0 1.81371e+06 -35235.5 0 1.56793e+06 114941 0 1.1898e+06 114108 0 889727 80173 0 687993 50515.1 0 573271 23633.6 0 533892 0 0 1.2949e+06 -132133 0 1.82386e+06 -38101.2 0 1.56758e+06 124751 0 1.1887e+06 123867 0 888479 86536.1 0 687072 54738.5 0 572566 25524.1 0 533235 0 0 1.28695e+06 -131321 0 1.83518e+06 -40886.7 0 1.5671e+06 134624 0 1.18758e+06 133698 0 887147 92849.2 0 686087 58975.6 0 571811 27402.8 0 532523 0 0 </DataArray> 
</PointData> 
<Points> 
<DataArray type="Float32" NumberOfComponents="3"> 
0.19 0.005 0 0.216143 0.005 0 0.242286 0.005 0 0.268429 0.005 0 0.294571 0.005 0 0.320714 0.005 0 0.346857 0.005 0 0.373 0.005 0 0.190071 0.0057 0 0.216204 0.0057 0 0.242337 0.0057 0 0.268469 0.0057 0 0.294602 0.0057 0 0.320735 0.0057 0 0.346867 0.0057 0 0.373 0.0057 0 0.190143 0.0064 0 0.216265 0.0064 0 0.242388 0.0064 0 0.26851 0.0064 0 0.294633 0.0064 0 0.320755 0.0064 0 0.346878 0.0064 0 0.373 0.0064 0 0.190214 0.0071 0 0.216327 0.0071 0 0.242439 0.0071 0 0.268551 0.0071 0 0.294663 0.0071 0 0.320776 0.0071 0 0.346888 0.0071 0 0.373 0.0071 0 0.190286 0.0078 0 0.216388 0.0078 0 0.24249 0.0078 0 0.268592 0.0078 0 0.294694 0.0078 0 0.320796 0.0078 0 0.346898 0.0078 0 0.373 0.0078 0 0.190357 0.0085 0 0.216449 0.0085 0 0.242541 0.0085 0 0.268633 0.0085 0 0.294724 0.0085 0 0.320816 0.0085 0 0.346908 0.0085 0 0.373 0.0085 0 0.190429 0.0092 0 0.21651 0.0092 0 0.242592 0.0092 0 0.268673 0.0092 0 0.294755 0.0092 0 0.320837 0.0092 0 0.346918 0.0092 0 0.373 0.0092 0 0.1905 0.0099 0 0.216571 0.0099 0 0.242643 0.0099 0 0.268714 0.0099 0 0.294786 0.0099 0 0.320857 0.0099 0 0.346929 0.0099 0 0.373 0.0099 0 
</DataArray>
</Points> 
</Piece> 
</StructuredGrid> 
</VTKFile> 
