<?xml version="1.0"?> 
<VTKFile type="StructuredGrid" version="0.1"> 
<StructuredGrid WholeExtent="0 7 0 7 0 0"> 
<Piece Extent="0 7 0 7 0 0"> 
<PointData>
<DataArray type="Float32" Name="|E|" format="ascii" NumberOfComponents="3"> 
-2.10516e+06 0 0 -2.10546e+06 6447.95 0 -2.10611e+06 13170.9 0 -2.1068e+06 19982.2 0 -2.10763e+06 26602.5 0 -2.10881e+06 33005.6 0 -2.11045e+06 39316 0 -2.11257e+06 45940.9 0 -2.09965e+06 0 0 -2.09997e+06 8447.81 0 -2.10071e+06 17017 0 -2.10179e+06 25548.9 0 -2.10332e+06 33920.2 0 -2.10541e+06 42175.5 0 -2.1081e+06 50402.5 0 -2.11136e+06 58600.5 0 -2.09385e+06 0 0 -2.09424e+06 10493.5 0 -2.09525e+06 21028 0 -2.09687e+06 31489.3 0 -2.0992e+06 41832.4 0 -2.10231e+06 52117.3 0 -2.10621e+06 62417.5 0 -2.11086e+06 72817.4 0 -2.08781e+06 0 0 -2.08831e+06 12634.3 0 -2.08968e+06 25273.3 0 -2.09195e+06 37837 0 -2.0952e+06 50319.5 0 -2.09945e+06 62792 0 -2.10466e+06 75340.5 0 -2.11078e+06 88060.4 0 -2.08155e+06 0 0 -2.0822e+06 14889 0 -2.084e+06 29771.1 0 -2.087e+06 44588.8 0 -2.09126e+06 59351.3 0 -2.09674e+06 74147.6 0 -2.10336e+06 89093.5 0 -2.11111e+06 104321 0 -2.07507e+06 0 0 -2.07588e+06 17264.8 0 -2.07818e+06 34527.8 0 -2.08201e+06 51736.3 0 -2.08737e+06 68895.7 0 -2.09416e+06 86134 0 -2.10225e+06 103650 0 -2.11183e+06 121660 0 -2.06837e+06 0 0 -2.06938e+06 19763.9 0 -2.07222e+06 39545 0 -2.07697e+06 59269 0 -2.08351e+06 78909.7 0 -2.09162e+06 98703.9 0 -2.10126e+06 119070 0 -2.11306e+06 140254 0 -2.06146e+06 0 0 -2.06267e+06 22386.7 0 -2.06611e+06 44827.3 0 -2.07188e+06 67170.7 0 -2.07966e+06 89337.1 0 -2.08903e+06 111857 0 -2.10039e+06 135524 0 -2.11514e+06 160330 0 </DataArray> 
</PointData> 
<Points> 
<DataArray type="Float32" NumberOfComponents="3"> 
0 0.016 0 0.000857143 0.016 0 0.00171429 0.016 0 0.00257143 0.016 0 0.00342857 0.016 0 0.00428571 0.016 0 0.00514286 0.016 0 0.006 0.016 0 0 0.0167143 0 0.00106122 0.0167143 0 0.00212245 0.0167143 0 0.00318367 0.0167143 0 0.0042449 0.0167143 0 0.00530612 0.0167143 0 0.00636735 0.0167143 0 0.00742857 0.0167143 0 0 0.0174286 0 0.00126531 0.0174286 0 0.00253061 0.0174286 0 0.00379592 0.0174286 0 0.00506122 0.0174286 0 0.00632653 0.0174286 0 0.00759184 0.0174286 0 0.00885714 0.0174286 0 0 0.0181429 0 0.00146939 0.0181429 0 0.00293878 0.0181429 0 0.00440816 0.0181429 0 0.00587755 0.0181429 0 0.00734694 0.0181429 0 0.00881633 0.0181429 0 0.0102857 0.0181429 0 0 0.0188571 0 0.00167347 0.0188571 0 0.00334694 0.0188571 0 0.00502041 0.0188571 0 0.00669388 0.0188571 0 0.00836735 0.0188571 0 0.0100408 0.0188571 0 0.0117143 0.0188571 0 0 0.0195714 0 0.00187755 0.0195714 0 0.0037551 0.0195714 0 0.00563265 0.0195714 0 0.0075102 0.0195714 0 0.00938776 0.0195714 0 0.0112653 0.0195714 0 0.0131429 0.0195714 0 0 0.0202857 0 0.00208163 0.0202857 0 0.00416327 0.0202857 0 0.0062449 0.0202857 0 0.00832653 0.0202857 0 0.0104082 0.0202857 0 0.0124898 0.0202857 0 0.0145714 0.0202857 0 0 0.021 0 0.00228571 0.021 0 0.00457143 0.021 0 0.00685714 0.021 0 0.00914286 0.021 0 0.0114286 0.021 0 0.0137143 0.021 0 0.016 0.021 0 
</DataArray>
</Points> 
</Piece> 
</StructuredGrid> 
</VTKFile> 
