<?xml version="1.0"?> 
<VTKFile type="StructuredGrid" version="0.1"> 
<StructuredGrid WholeExtent="0 7 0 7 0 0"> 
<Piece Extent="0 7 0 7 0 0"> 
<PointData>
<DataArray type="Float32" Name="|E|" format="ascii" NumberOfComponents="3"> 
-1.71274e+06 0 0 -1.74518e+06 265437 0 -1.83527e+06 550343 0 -1.97052e+06 845997 0 -2.07217e+06 1.21368e+06 0 -2.1027e+06 1.41728e+06 0 -1.87921e+06 1.18431e+06 0 -3.20882e+06 3.96638e+06 0 -1.60641e+06 0 0 -1.64897e+06 286382 0 -1.7446e+06 580626 0 -1.88245e+06 890210 0 -2.01174e+06 1.21697e+06 0 -2.05811e+06 1.42446e+06 0 -2.03712e+06 1.25994e+06 0 -2.44495e+06 2.62209e+06 0 -1.49231e+06 0 0 -1.54587e+06 305037 0 -1.64999e+06 611638 0 -1.79571e+06 926960 0 -1.94894e+06 1.23612e+06 0 -2.03741e+06 1.43112e+06 0 -2.11229e+06 1.30236e+06 0 -2.10251e+06 1.96958e+06 0 -1.37052e+06 0 0 -1.43674e+06 322375 0 -1.55135e+06 641608 0 -1.70866e+06 962176 0 -1.88607e+06 1.26311e+06 0 -2.02452e+06 1.44619e+06 0 -2.15721e+06 1.32978e+06 0 -1.9562e+06 1.57231e+06 0 -1.2416e+06 0 0 -1.32193e+06 338621 0 -1.44864e+06 670469 0 -1.62007e+06 997449 0 -1.82272e+06 1.29608e+06 0 -2.01314e+06 1.47125e+06 0 -2.19345e+06 1.35068e+06 0 -1.91353e+06 1.31024e+06 0 -1.10613e+06 0 0 -1.20172e+06 353845 0 -1.34179e+06 698276 0 -1.52893e+06 1.03334e+06 0 -1.7577e+06 1.33418e+06 0 -2.00028e+06 1.50656e+06 0 -2.23051e+06 1.37148e+06 0 -1.93104e+06 1.12204e+06 0 -964670 0 0 -1.07639e+06 368019 0 -1.23067e+06 725017 0 -1.43443e+06 1.06984e+06 0 -1.68965e+06 1.37684e+06 0 -1.98407e+06 1.55191e+06 0 -2.27225e+06 1.39699e+06 0 -1.98658e+06 979284 0 -817828 0 0 -946276 381051 0 -1.11522e+06 750529 0 -1.33589e+06 1.10667e+06 0 -1.61726e+06 1.42331e+06 0 -1.9629e+06 1.60688e+06 0 -2.31973e+06 1.43117e+06 0 -2.0688e+06 866361 0 </DataArray> 
</PointData> 
<Points> 
<DataArray type="Float32" NumberOfComponents="3"> 
0 0.045 0 0.0142857 0.045 0 0.0285714 0.045 0 0.0428571 0.045 0 0.0571429 0.045 0 0.0714286 0.045 0 0.0857143 0.045 0 0.1 0.045 0 0 0.0505 0 0.0142857 0.0499184 0 0.0285714 0.0493367 0 0.0428571 0.0487551 0 0.0571429 0.0481735 0 0.0714286 0.0475918 0 0.0857143 0.0470102 0 0.1 0.0464286 0 0 0.056 0 0.0142857 0.0548367 0 0.0285714 0.0536735 0 0.0428571 0.0525102 0 0.0571429 0.0513469 0 0.0714286 0.0501837 0 0.0857143 0.0490204 0 0.1 0.0478571 0 0 0.0615 0 0.0142857 0.0597551 0 0.0285714 0.0580102 0 0.0428571 0.0562653 0 0.0571429 0.0545204 0 0.0714286 0.0527755 0 0.0857143 0.0510306 0 0.1 0.0492857 0 0 0.067 0 0.0142857 0.0646735 0 0.0285714 0.0623469 0 0.0428571 0.0600204 0 0.0571429 0.0576939 0 0.0714286 0.0553673 0 0.0857143 0.0530408 0 0.1 0.0507143 0 0 0.0725 0 0.0142857 0.0695918 0 0.0285714 0.0666837 0 0.0428571 0.0637755 0 0.0571429 0.0608673 0 0.0714286 0.0579592 0 0.0857143 0.055051 0 0.1 0.0521429 0 0 0.078 0 0.0142857 0.0745102 0 0.0285714 0.0710204 0 0.0428571 0.0675306 0 0.0571429 0.0640408 0 0.0714286 0.060551 0 0.0857143 0.0570612 0 0.1 0.0535714 0 0 0.0835 0 0.0142857 0.0794286 0 0.0285714 0.0753571 0 0.0428571 0.0712857 0 0.0571429 0.0672143 0 0.0714286 0.0631429 0 0.0857143 0.0590714 0 0.1 0.055 0 
</DataArray>
</Points> 
</Piece> 
</StructuredGrid> 
</VTKFile> 
