<?xml version="1.0"?> 
<VTKFile type="StructuredGrid" version="0.1"> 
<StructuredGrid WholeExtent="0 7 0 7 0 0"> 
<Piece Extent="0 7 0 7 0 0"> 
<PointData>
<DataArray type="Float32" Name="|E|" format="ascii" NumberOfComponents="3"> 
-2.06146e+06 0 0 -2.06267e+06 22149.6 0 -2.06611e+06 44703.8 0 -2.07188e+06 69130.4 0 -2.07966e+06 97973.7 0 -2.08903e+06 129230 0 -2.10039e+06 154469 0 -2.11514e+06 169832 0 -2.04076e+06 0 0 -2.04439e+06 42495.4 0 -2.0544e+06 85741.9 0 -2.07091e+06 129621 0 -2.09511e+06 174261 0 -2.12777e+06 221442 0 -2.1663e+06 269086 0 -2.20754e+06 311784 0 -2.01827e+06 0 0 -2.02545e+06 65607.4 0 -2.04565e+06 132669 0 -2.08031e+06 201373 0 -2.12927e+06 274741 0 -2.18741e+06 351328 0 -2.25397e+06 421515 0 -2.34215e+06 491426 0 -1.9941e+06 0 0 -2.0058e+06 91459.7 0 -2.0398e+06 185859 0 -2.09668e+06 285069 0 -2.17029e+06 393572 0 -2.26236e+06 502225 0 -2.40181e+06 629655 0 -2.58555e+06 842851 0 -1.96834e+06 0 0 -1.98539e+06 120078 0 -2.03604e+06 244818 0 -2.11563e+06 380335 0 -2.22184e+06 532788 0 -2.38773e+06 708298 0 -2.59454e+06 1.03865e+06 0 -2.66153e+06 1.74127e+06 0 -1.94101e+06 0 0 -1.96416e+06 151110 0 -2.03313e+06 309162 0 -2.13742e+06 491331 0 -2.2992e+06 702463 0 -2.5072e+06 1.02093e+06 0 -2.50513e+06 1.64417e+06 0 -2.05261e+06 2.39518e+06 0 -1.91181e+06 0 0 -1.94233e+06 183539 0 -2.02989e+06 382086 0 -2.16726e+06 616477 0 -2.37286e+06 899918 0 -2.4313e+06 1.36352e+06 0 -2.01668e+06 1.79878e+06 0 -1.39655e+06 1.01552e+06 0 -1.88052e+06 0 0 -1.92002e+06 217810 0 -2.02647e+06 465158 0 -2.20133e+06 744746 0 -2.36789e+06 1.10048e+06 0 -2.14341e+06 1.52692e+06 0 -1.63404e+06 1.43353e+06 0 -1.43545e+06 169262 0 </DataArray> 
</PointData> 
<Points> 
<DataArray type="Float32" NumberOfComponents="3"> 
0 0.021 0 0.00228571 0.021 0 0.00457143 0.021 0 0.00685714 0.021 0 0.00914286 0.021 0 0.0114286 0.021 0 0.0137143 0.021 0 0.016 0.021 0 0 0.023 0 0.004 0.023 0 0.008 0.023 0 0.012 0.023 0 0.016 0.023 0 0.02 0.023 0 0.024 0.023 0 0.028 0.023 0 0 0.025 0 0.00571429 0.025 0 0.0114286 0.025 0 0.0171429 0.025 0 0.0228571 0.025 0 0.0285714 0.025 0 0.0342857 0.025 0 0.04 0.025 0 0 0.027 0 0.00742857 0.027 0 0.0148571 0.027 0 0.0222857 0.027 0 0.0297143 0.027 0 0.0371429 0.027 0 0.0445714 0.027 0 0.052 0.027 0 0 0.029 0 0.00914286 0.029 0 0.0182857 0.029 0 0.0274286 0.029 0 0.0365714 0.029 0 0.0457143 0.029 0 0.0548571 0.029 0 0.064 0.029 0 0 0.031 0 0.0108571 0.031 0 0.0217143 0.031 0 0.0325714 0.031 0 0.0434286 0.031 0 0.0542857 0.031 0 0.0651429 0.031 0 0.076 0.031 0 0 0.033 0 0.0125714 0.033 0 0.0251429 0.033 0 0.0377143 0.033 0 0.0502857 0.033 0 0.0628571 0.033 0 0.0754286 0.033 0 0.088 0.033 0 0 0.035 0 0.0142857 0.035 0 0.0285714 0.035 0 0.0428571 0.035 0 0.0571429 0.035 0 0.0714286 0.035 0 0.0857143 0.035 0 0.1 0.035 0 
</DataArray>
</Points> 
</Piece> 
</StructuredGrid> 
</VTKFile> 
