<?xml version="1.0"?> 
<VTKFile type="StructuredGrid" version="0.1"> 
<StructuredGrid WholeExtent="0 7 0 7 0 0"> 
<Piece Extent="0 7 0 7 0 0"> 
<PointData>
<DataArray type="Float32" Name="|E|" format="ascii" NumberOfComponents="3"> 
1.78069e+06 -710274 0 1.97533e+06 59376.3 0 1.53643e+06 302884 0 1.1339e+06 261752 0 847932 184354 0 659830 113737 0 553487 54104.4 0 517135 0 0 1.9116e+06 -762491 0 2.02112e+06 106053 0 1.5234e+06 349774 0 1.11833e+06 294461 0 835808 205849 0 651343 127138 0 547176 60397.4 0 511609 0 0 2.05891e+06 -821252 0 2.06742e+06 164763 0 1.50708e+06 398119 0 1.10173e+06 326935 0 822692 226799 0 642089 140284 0 540192 66530.1 0 505428 0 0 2.22981e+06 -889417 0 2.11155e+06 237167 0 1.4871e+06 447566 0 1.08407e+06 359063 0 808580 247191 0 632075 153160 0 532548 72494.5 0 498593 0 0 2.43355e+06 -970684 0 2.14959e+06 325224 0 1.46346e+06 497749 0 1.06527e+06 390611 0 793488 267087 0 621310 165718 0 524258 78295.4 0 491104 0 0 2.68244e+06 -1.06996e+06 0 2.17585e+06 431206 0 1.43672e+06 548371 0 1.04511e+06 421105 0 777461 286702 0 609801 177834 0 515331 83965.6 0 482972 0 0 2.99314e+06 -1.19389e+06 0 2.182e+06 557733 0 1.40844e+06 599326 0 1.02312e+06 449681 0 760609 306518 0 597561 189246 0 505760 89590.4 0 474229 0 0 3.38849e+06 -1.35159e+06 0 2.15575e+06 707511 0 1.38183e+06 651172 0 998352 474576 0 743152 327631 0 584621 199370 0 495495 95384 0 464962 0 0 </DataArray> 
</PointData> 
<Points> 
<DataArray type="Float32" NumberOfComponents="3"> 
0.1947 0.02 0 0.220171 0.02 0 0.245643 0.02 0 0.271114 0.02 0 0.296586 0.02 0 0.322057 0.02 0 0.347529 0.02 0 0.373 0.02 0 0.195714 0.0225429 0 0.221041 0.0225429 0 0.246367 0.0225429 0 0.271694 0.0225429 0 0.29702 0.0225429 0 0.322347 0.0225429 0 0.347673 0.0225429 0 0.373 0.0225429 0 0.196729 0.0250857 0 0.22191 0.0250857 0 0.247092 0.0250857 0 0.272273 0.0250857 0 0.297455 0.0250857 0 0.322637 0.0250857 0 0.347818 0.0250857 0 0.373 0.0250857 0 0.197743 0.0276286 0 0.22278 0.0276286 0 0.247816 0.0276286 0 0.272853 0.0276286 0 0.29789 0.0276286 0 0.322927 0.0276286 0 0.347963 0.0276286 0 0.373 0.0276286 0 0.198757 0.0301714 0 0.223649 0.0301714 0 0.248541 0.0301714 0 0.273433 0.0301714 0 0.298324 0.0301714 0 0.323216 0.0301714 0 0.348108 0.0301714 0 0.373 0.0301714 0 0.199771 0.0327143 0 0.224518 0.0327143 0 0.249265 0.0327143 0 0.274012 0.0327143 0 0.298759 0.0327143 0 0.323506 0.0327143 0 0.348253 0.0327143 0 0.373 0.0327143 0 0.200786 0.0352571 0 0.225388 0.0352571 0 0.24999 0.0352571 0 0.274592 0.0352571 0 0.299194 0.0352571 0 0.323796 0.0352571 0 0.348398 0.0352571 0 0.373 0.0352571 0 0.2018 0.0378 0 0.226257 0.0378 0 0.250714 0.0378 0 0.275171 0.0378 0 0.299629 0.0378 0 0.324086 0.0378 0 0.348543 0.0378 0 0.373 0.0378 0 
</DataArray>
</Points> 
</Piece> 
</StructuredGrid> 
</VTKFile> 
