<?xml version="1.0"?> 
<VTKFile type="StructuredGrid" version="0.1"> 
<StructuredGrid WholeExtent="0 127 0 127 0 0"> 
<Piece Extent="0 127 0 127 0 0"> 
<PointData>
<DataArray type="Float32" Name="|E|" format="ascii" NumberOfComponents="3"> 
-776218 0 0 -782131 20619 0 -788106 41201.2 0 -794146 61748.1 0 -800253 82261.2 0 -806426 102742 0 -812669 123191 0 -818983 143611 0 -825368 164002 0 -831827 184367 0 -838362 204706 0 -844972 225021 0 -851661 245314 0 -858430 265585 0 -865280 285837 0 -872212 306070 0 -879228 326286 0 -886329 346487 0 -893518 366673 0 -900795 386846 0 -908161 407008 0 -915618 427160 0 -923168 447303 0 -930812 467439 0 -938551 487568 0 -946387 507693 0 -954321 527814 0 -962354 547933 0 -970487 568051 0 -978722 588170 0 -987061 608289 0 -995503 628412 0 -1.00405e+06 648538 0 -1.01271e+06 668669 0 -1.02147e+06 688806 0 -1.03034e+06 708949 0 -1.03933e+06 729101 0 -1.04842e+06 749261 0 -1.05763e+06 769431 0 -1.06695e+06 789611 0 -1.07639e+06 809803 0 -1.08594e+06 830006 0 -1.09562e+06 850222 0 -1.10541e+06 870451 0 -1.11532e+06 890693 0 -1.12535e+06 910948 0 -1.1355e+06 931218 0 -1.14578e+06 951501 0 -1.15618e+06 971798 0 -1.16671e+06 992109 0 -1.17736e+06 1.01243e+06 0 -1.18815e+06 1.03277e+06 0 -1.19906e+06 1.05312e+06 0 -1.2101e+06 1.07348e+06 0 -1.22128e+06 1.09385e+06 0 -1.23259e+06 1.11423e+06 0 -1.24404e+06 1.13462e+06 0 -1.25563e+06 1.15501e+06 0 -1.26735e+06 1.17541e+06 0 -1.27922e+06 1.19581e+06 0 -1.29123e+06 1.21621e+06 0 -1.30339e+06 1.23661e+06 0 -1.31569e+06 1.257e+06 0 -1.32815e+06 1.27738e+06 0 -1.34076e+06 1.29774e+06 0 -1.35353e+06 1.31809e+06 0 -1.36646e+06 1.33842e+06 0 -1.37956e+06 1.35871e+06 0 -1.39282e+06 1.37897e+06 0 -1.40627e+06 1.3992e+06 0 -1.41989e+06 1.41937e+06 0 -1.4337e+06 1.4395e+06 0 -1.4477e+06 1.45956e+06 0 -1.4619e+06 1.47954e+06 0 -1.47631e+06 1.49945e+06 0 -1.49094e+06 1.51927e+06 0 -1.5058e+06 1.53899e+06 0 -1.52089e+06 1.5586e+06 0 -1.53624e+06 1.57809e+06 0 -1.55185e+06 1.59743e+06 0 -1.56773e+06 1.61663e+06 0 -1.58392e+06 1.63565e+06 0 -1.60041e+06 1.6545e+06 0 -1.61724e+06 1.67315e+06 0 -1.63443e+06 1.69157e+06 0 -1.65199e+06 1.70976e+06 0 -1.66996e+06 1.7277e+06 0 -1.68837e+06 1.74535e+06 0 -1.70723e+06 1.7627e+06 0 -1.7266e+06 1.77973e+06 0 -1.7465e+06 1.7964e+06 0 -1.76699e+06 1.81269e+06 0 -1.78809e+06 1.82858e+06 0 -1.80987e+06 1.84402e+06 0 -1.83237e+06 1.85899e+06 0 -1.85566e+06 1.87345e+06 0 -1.87978e+06 1.88737e+06 0 -1.90482e+06 1.9007e+06 0 -1.93084e+06 1.9134e+06 0 -1.95793e+06 1.92543e+06 0 -1.98616e+06 1.93672e+06 0 -2.01564e+06 1.94723e+06 0 -2.04645e+06 1.9569e+06 0 -2.07871e+06 1.96564e+06 0 -2.11253e+06 1.97339e+06 0 -2.14803e+06 1.98006e+06 0 -2.18535e+06 1.98554e+06 0 -2.22463e+06 1.98971e+06 0 -2.26602e+06 1.99245e+06 0 -2.30968e+06 1.99359e+06 0 -2.35579e+06 1.99295e+06 0 -2.40454e+06 1.99029e+06 0 -2.45612e+06 1.98535e+06 0 -2.51075e+06 1.97781e+06 0 -2.56865e+06 1.96726e+06 0 -2.63008e+06 1.95321e+06 0 -2.69528e+06 1.93506e+06 0 -2.76453e+06 1.91206e+06 0 -2.83813e+06 1.88326e+06 0 -2.91638e+06 1.8475e+06 0 -2.99962e+06 1.80327e+06 0 -3.08819e+06 1.74868e+06 0 -3.18249e+06 1.68135e+06 0 -3.2829e+06 1.59819e+06 0 -3.38982e+06 1.4953e+06 0 -3.50361e+06 1.36765e+06 0 -3.62453e+06 1.20879e+06 0 -3.75254e+06 1.01041e+06 0 -770333 0 0 -776275 20638 0 -782280 41239.4 0 -788348 61805.7 0 -794482 82338.2 0 -800683 102838 0 -806952 123308 0 -813292 143747 0 -819703 164159 0 -826187 184543 0 -832746 204903 0 -839382 225238 0 -846094 245551 0 -852886 265843 0 -859759 286115 0 -866713 306368 0 -873751 326605 0 -880875 346826 0 -888084 367033 0 -895382 387228 0 -902768 407410 0 -910246 427583 0 -917816 447747 0 -925479 467904 0 -933237 488054 0 -941091 508200 0 -949043 528343 0 -957093 548483 0 -965244 568622 0 -973497 588761 0 -981852 608902 0 -990312 629045 0 -998876 649193 0 -1.00755e+06 669344 0 -1.01633e+06 689502 0 -1.02522e+06 709667 0 -1.03421e+06 729840 0 -1.04332e+06 750021 0 -1.05255e+06 770212 0 -1.06189e+06 790413 0 -1.07134e+06 810625 0 -1.08091e+06 830850 0 -1.09059e+06 851086 0 -1.1004e+06 871336 0 -1.11032e+06 891599 0 -1.12037e+06 911875 0 -1.13054e+06 932165 0 -1.14083e+06 952469 0 -1.15124e+06 972787 0 -1.16179e+06 993119 0 -1.17246e+06 1.01346e+06 0 -1.18325e+06 1.03382e+06 0 -1.19418e+06 1.05419e+06 0 -1.20524e+06 1.07457e+06 0 -1.21644e+06 1.09497e+06 0 -1.22776e+06 1.11537e+06 0 -1.23923e+06 1.13578e+06 0 -1.25083e+06 1.15619e+06 0 -1.26257e+06 1.17661e+06 0 -1.27446e+06 1.19704e+06 0 -1.28648e+06 1.21746e+06 0 -1.29866e+06 1.23788e+06 0 -1.31098e+06 1.25829e+06 0 -1.32346e+06 1.27869e+06 0 -1.33609e+06 1.29908e+06 0 -1.34888e+06 1.31945e+06 0 -1.36183e+06 1.3398e+06 0 -1.37495e+06 1.36013e+06 0 -1.38824e+06 1.38042e+06 0 -1.40171e+06 1.40067e+06 0 -1.41536e+06 1.42087e+06 0 -1.42919e+06 1.44102e+06 0 -1.44322e+06 1.46112e+06 0 -1.45745e+06 1.48114e+06 0 -1.47189e+06 1.50108e+06 0 -1.48655e+06 1.52094e+06 0 -1.50144e+06 1.5407e+06 0 -1.51657e+06 1.56034e+06 0 -1.53195e+06 1.57987e+06 0 -1.5476e+06 1.59926e+06 0 -1.56353e+06 1.6185e+06 0 -1.57975e+06 1.63758e+06 0 -1.59629e+06 1.65648e+06 0 -1.61317e+06 1.67519e+06 0 -1.6304e+06 1.69368e+06 0 -1.64801e+06 1.71193e+06 0 -1.66603e+06 1.72994e+06 0 -1.68448e+06 1.74767e+06 0 -1.7034e+06 1.7651e+06 0 -1.72283e+06 1.78222e+06 0 -1.74279e+06 1.79898e+06 0 -1.76333e+06 1.81538e+06 0 -1.7845e+06 1.83137e+06 0 -1.80634e+06 1.84693e+06 0 -1.82891e+06 1.86202e+06 0 -1.85226e+06 1.87662e+06 0 -1.87646e+06 1.89068e+06 0 -1.90158e+06 1.90417e+06 0 -1.92768e+06 1.91704e+06 0 -1.95485e+06 1.92924e+06 0 -1.98316e+06 1.94073e+06 0 -2.01273e+06 1.95145e+06 0 -2.04363e+06 1.96134e+06 0 -2.07599e+06 1.97032e+06 0 -2.10992e+06 1.97833e+06 0 -2.14553e+06 1.98527e+06 0 -2.18297e+06 1.99105e+06 0 -2.22238e+06 1.99554e+06 0 -2.26391e+06 1.99863e+06 0 -2.30774e+06 2.00014e+06 0 -2.35403e+06 1.99989e+06 0 -2.40298e+06 1.99767e+06 0 -2.4548e+06 1.9932e+06 0 -2.5097e+06 1.98615e+06 0 -2.56793e+06 1.97615e+06 0 -2.62974e+06 1.9627e+06 0 -2.6954e+06 1.9452e+06 0 -2.7652e+06 1.9229e+06 0 -2.83947e+06 1.89489e+06 0 -2.91855e+06 1.85999e+06 0 -3.00282e+06 1.81672e+06 0 -3.09267e+06 1.76322e+06 0 -3.18856e+06 1.6971e+06 0 -3.29097e+06 1.61533e+06 0 -3.40041e+06 1.51402e+06 0 -3.5174e+06 1.38818e+06 0 -3.64238e+06 1.2314e+06 0 -3.77558e+06 1.03539e+06 0 -764444 0 0 -770415 20656.9 0 -776448 41277.4 0 -782544 61862.8 0 -788706 82414.7 0 -794934 102934 0 -801230 123423 0 -807596 143882 0 -814033 164314 0 -820542 184718 0 -827126 205098 0 -833785 225453 0 -840522 245786 0 -847337 266098 0 -854233 286391 0 -861210 306665 0 -868270 326922 0 -875415 347164 0 -882645 367392 0 -889964 387607 0 -897371 407810 0 -904868 428004 0 -912458 448189 0 -920140 468366 0 -927917 488538 0 -935789 508704 0 -943759 528868 0 -951828 549029 0 -959996 569189 0 -968266 589349 0 -976638 609511 0 -985115 629676 0 -993696 649844 0 -1.00238e+06 670017 0 -1.01118e+06 690196 0 -1.02008e+06 710381 0 -1.0291e+06 730575 0 -1.03822e+06 750777 0 -1.04746e+06 770989 0 -1.05681e+06 791211 0 -1.06628e+06 811444 0 -1.07586e+06 831689 0 -1.08556e+06 851947 0 -1.09538e+06 872217 0 -1.10532e+06 892501 0 -1.11538e+06 912798 0 -1.12557e+06 933109 0 -1.13587e+06 953434 0 -1.1463e+06 973772 0 -1.15686e+06 994125 0 -1.16754e+06 1.01449e+06 0 -1.17836e+06 1.03487e+06 0 -1.1893e+06 1.05526e+06 0 -1.20038e+06 1.07566e+06 0 -1.21158e+06 1.09608e+06 0 -1.22293e+06 1.1165e+06 0 -1.23441e+06 1.13693e+06 0 -1.24603e+06 1.15737e+06 0 -1.25779e+06 1.17781e+06 0 -1.26969e+06 1.19826e+06 0 -1.28173e+06 1.2187e+06 0 -1.29393e+06 1.23914e+06 0 -1.30627e+06 1.25958e+06 0 -1.31877e+06 1.28e+06 0 -1.33142e+06 1.30042e+06 0 -1.34423e+06 1.32082e+06 0 -1.3572e+06 1.34119e+06 0 -1.37034e+06 1.36154e+06 0 -1.38366e+06 1.38186e+06 0 -1.39715e+06 1.40214e+06 0 -1.41082e+06 1.42237e+06 0 -1.42468e+06 1.44255e+06 0 -1.43874e+06 1.46267e+06 0 -1.453e+06 1.48273e+06 0 -1.46747e+06 1.50271e+06 0 -1.48216e+06 1.5226e+06 0 -1.49708e+06 1.5424e+06 0 -1.51224e+06 1.56208e+06 0 -1.52766e+06 1.58165e+06 0 -1.54334e+06 1.60109e+06 0 -1.55931e+06 1.62038e+06 0 -1.57557e+06 1.63951e+06 0 -1.59216e+06 1.65846e+06 0 -1.60907e+06 1.67723e+06 0 -1.62635e+06 1.69578e+06 0 -1.64401e+06 1.7141e+06 0 -1.66208e+06 1.73218e+06 0 -1.68058e+06 1.74999e+06 0 -1.69956e+06 1.7675e+06 0 -1.71903e+06 1.7847e+06 0 -1.73905e+06 1.80156e+06 0 -1.75966e+06 1.81806e+06 0 -1.78088e+06 1.83416e+06 0 -1.80279e+06 1.84984e+06 0 -1.82542e+06 1.86506e+06 0 -1.84885e+06 1.87979e+06 0 -1.87312e+06 1.894e+06 0 -1.8983e+06 1.90764e+06 0 -1.92448e+06 1.92067e+06 0 -1.95172e+06 1.93306e+06 0 -1.98013e+06 1.94474e+06 0 -2.00978e+06 1.95567e+06 0 -2.04077e+06 1.96577e+06 0 -2.07323e+06 1.975e+06 0 -2.10725e+06 1.98326e+06 0 -2.14298e+06 1.99048e+06 0 -2.18053e+06 1.99656e+06 0 -2.22007e+06 2.00137e+06 0 -2.26174e+06 2.0048e+06 0 -2.30572e+06 2.00669e+06 0 -2.35219e+06 2.00684e+06 0 -2.40134e+06 2.00505e+06 0 -2.45339e+06 2.00105e+06 0 -2.50856e+06 1.99452e+06 0 -2.5671e+06 1.98506e+06 0 -2.62928e+06 1.97221e+06 0 -2.69539e+06 1.95537e+06 0 -2.76573e+06 1.9338e+06 0 -2.84067e+06 1.90659e+06 0 -2.92056e+06 1.87257e+06 0 -3.00582e+06 1.83029e+06 0 -3.09693e+06 1.7779e+06 0 -3.19438e+06 1.71305e+06 0 -3.29875e+06 1.63271e+06 0 -3.41066e+06 1.53305e+06 0 -3.53078e+06 1.40911e+06 0 -3.65975e+06 1.25453e+06 0 -3.79805e+06 1.06103e+06 0 -758548 0 0 -764549 20675.7 0 -770611 41315 0 -776735 61919.5 0 -782924 82490.5 0 -789180 103029 0 -795503 123538 0 -801894 144016 0 -808357 164467 0 -814892 184892 0 -821500 205291 0 -828184 225667 0 -834944 246020 0 -841783 266352 0 -848701 286665 0 -855701 306959 0 -862783 327237 0 -869949 347499 0 -877201 367748 0 -884540 387983 0 -891968 408207 0 -899485 428422 0 -907094 448627 0 -914796 468826 0 -922592 489018 0 -930483 509206 0 -938471 529390 0 -946558 549572 0 -954744 569753 0 -963031 589934 0 -971420 610117 0 -979913 630303 0 -988510 650492 0 -997214 670685 0 -1.00603e+06 690885 0 -1.01495e+06 711092 0 -1.02398e+06 731306 0 -1.03312e+06 751529 0 -1.04237e+06 771762 0 -1.05174e+06 792005 0 -1.06122e+06 812259 0 -1.07082e+06 832525 0 -1.08053e+06 852803 0 -1.09037e+06 873095 0 -1.10032e+06 893399 0 -1.11039e+06 913717 0 -1.12059e+06 934049 0 -1.13091e+06 954394 0 -1.14136e+06 974754 0 -1.15193e+06 995127 0 -1.16263e+06 1.01551e+06 0 -1.17346e+06 1.03591e+06 0 -1.18442e+06 1.05633e+06 0 -1.19551e+06 1.07675e+06 0 -1.20673e+06 1.09719e+06 0 -1.21809e+06 1.11763e+06 0 -1.22958e+06 1.13808e+06 0 -1.24122e+06 1.15854e+06 0 -1.25299e+06 1.17901e+06 0 -1.26491e+06 1.19947e+06 0 -1.27698e+06 1.21994e+06 0 -1.28919e+06 1.2404e+06 0 -1.30155e+06 1.26086e+06 0 -1.31407e+06 1.28131e+06 0 -1.32674e+06 1.30175e+06 0 -1.33957e+06 1.32217e+06 0 -1.35256e+06 1.34258e+06 0 -1.36573e+06 1.36295e+06 0 -1.37906e+06 1.38329e+06 0 -1.39258e+06 1.4036e+06 0 -1.40628e+06 1.42386e+06 0 -1.42016e+06 1.44408e+06 0 -1.43425e+06 1.46423e+06 0 -1.44854e+06 1.48432e+06 0 -1.46304e+06 1.50433e+06 0 -1.47776e+06 1.52426e+06 0 -1.49271e+06 1.5441e+06 0 -1.50791e+06 1.56382e+06 0 -1.52336e+06 1.58344e+06 0 -1.53908e+06 1.60292e+06 0 -1.55508e+06 1.62226e+06 0 -1.57138e+06 1.64144e+06 0 -1.58801e+06 1.66045e+06 0 -1.60497e+06 1.67927e+06 0 -1.62229e+06 1.69788e+06 0 -1.63999e+06 1.71627e+06 0 -1.65811e+06 1.73442e+06 0 -1.67666e+06 1.7523e+06 0 -1.69569e+06 1.7699e+06 0 -1.71522e+06 1.78719e+06 0 -1.7353e+06 1.80414e+06 0 -1.75596e+06 1.82074e+06 0 -1.77725e+06 1.83695e+06 0 -1.79921e+06 1.85274e+06 0 -1.82191e+06 1.86809e+06 0 -1.8454e+06 1.88296e+06 0 -1.86974e+06 1.89731e+06 0 -1.89499e+06 1.91111e+06 0 -1.92124e+06 1.92431e+06 0 -1.94857e+06 1.93687e+06 0 -1.97705e+06 1.94875e+06 0 -2.00678e+06 1.95988e+06 0 -2.03787e+06 1.97021e+06 0 -2.07041e+06 1.97968e+06 0 -2.10454e+06 1.9882e+06 0 -2.14037e+06 1.9957e+06 0 -2.17804e+06 2.00207e+06 0 -2.2177e+06 2.00721e+06 0 -2.25951e+06 2.01098e+06 0 -2.30364e+06 2.01324e+06 0 -2.35028e+06 2.0138e+06 0 -2.39962e+06 2.01244e+06 0 -2.45189e+06 2.00891e+06 0 -2.50732e+06 2.00289e+06 0 -2.56617e+06 1.994e+06 0 -2.62871e+06 1.98175e+06 0 -2.69525e+06 1.96558e+06 0 -2.76613e+06 1.94475e+06 0 -2.8417e+06 1.91835e+06 0 -2.92238e+06 1.88524e+06 0 -3.00863e+06 1.84397e+06 0 -3.10095e+06 1.79272e+06 0 -3.19993e+06 1.72916e+06 0 -3.30621e+06 1.65032e+06 0 -3.42054e+06 1.55237e+06 0 -3.54373e+06 1.43042e+06 0 -3.67661e+06 1.27814e+06 0 -3.81992e+06 1.08732e+06 0 -752648 0 0 -758677 20694.3 0 -764768 41352.4 0 -770921 61975.8 0 -777138 82565.8 0 -783420 103124 0 -789770 123651 0 -796188 144150 0 -802676 164620 0 -809236 185064 0 -815869 205483 0 -822577 225879 0 -829361 246252 0 -836223 266604 0 -843165 286937 0 -850187 307252 0 -857291 327550 0 -864479 347832 0 -871752 368101 0 -879112 388357 0 -886560 408602 0 -894097 428837 0 -901726 449063 0 -909447 469283 0 -917262 489496 0 -925171 509704 0 -933178 529909 0 -941282 550112 0 -949486 570314 0 -957790 590516 0 -966196 610720 0 -974706 630926 0 -983320 651136 0 -992040 671351 0 -1.00087e+06 691571 0 -1.0098e+06 711799 0 -1.01885e+06 732034 0 -1.028e+06 752278 0 -1.03727e+06 772532 0 -1.04666e+06 792796 0 -1.05615e+06 813071 0 -1.06576e+06 833357 0 -1.07549e+06 853656 0 -1.08534e+06 873968 0 -1.09531e+06 894293 0 -1.1054e+06 914632 0 -1.11561e+06 934985 0 -1.12595e+06 955351 0 -1.13641e+06 975732 0 -1.14699e+06 996126 0 -1.15771e+06 1.01653e+06 0 -1.16855e+06 1.03695e+06 0 -1.17952e+06 1.05739e+06 0 -1.19063e+06 1.07783e+06 0 -1.20187e+06 1.09829e+06 0 -1.21324e+06 1.11875e+06 0 -1.22476e+06 1.13923e+06 0 -1.23641e+06 1.15971e+06 0 -1.2482e+06 1.1802e+06 0 -1.26013e+06 1.20069e+06 0 -1.27222e+06 1.22117e+06 0 -1.28444e+06 1.24166e+06 0 -1.29683e+06 1.26215e+06 0 -1.30936e+06 1.28262e+06 0 -1.32205e+06 1.30308e+06 0 -1.3349e+06 1.32353e+06 0 -1.34792e+06 1.34396e+06 0 -1.36111e+06 1.36436e+06 0 -1.37446e+06 1.38473e+06 0 -1.388e+06 1.40506e+06 0 -1.40172e+06 1.42536e+06 0 -1.41564e+06 1.4456e+06 0 -1.42975e+06 1.46578e+06 0 -1.44406e+06 1.48591e+06 0 -1.45859e+06 1.50595e+06 0 -1.47334e+06 1.52592e+06 0 -1.48833e+06 1.54579e+06 0 -1.50356e+06 1.56556e+06 0 -1.51904e+06 1.58522e+06 0 -1.5348e+06 1.60474e+06 0 -1.55084e+06 1.62413e+06 0 -1.56718e+06 1.64336e+06 0 -1.58384e+06 1.66243e+06 0 -1.60085e+06 1.68131e+06 0 -1.61821e+06 1.69998e+06 0 -1.63596e+06 1.71844e+06 0 -1.65412e+06 1.73666e+06 0 -1.67273e+06 1.75462e+06 0 -1.69181e+06 1.7723e+06 0 -1.71139e+06 1.78967e+06 0 -1.73152e+06 1.80672e+06 0 -1.75224e+06 1.82342e+06 0 -1.77358e+06 1.83974e+06 0 -1.79561e+06 1.85565e+06 0 -1.81837e+06 1.87112e+06 0 -1.84192e+06 1.88612e+06 0 -1.86633e+06 1.90062e+06 0 -1.89166e+06 1.91457e+06 0 -1.91798e+06 1.92794e+06 0 -1.94538e+06 1.94069e+06 0 -1.97393e+06 1.95276e+06 0 -2.00375e+06 1.9641e+06 0 -2.03492e+06 1.97465e+06 0 -2.06756e+06 1.98435e+06 0 -2.10178e+06 1.99314e+06 0 -2.13771e+06 2.00091e+06 0 -2.17549e+06 2.00758e+06 0 -2.21527e+06 2.01304e+06 0 -2.25721e+06 2.01716e+06 0 -2.30149e+06 2.01979e+06 0 -2.34829e+06 2.02076e+06 0 -2.39782e+06 2.01984e+06 0 -2.4503e+06 2.01678e+06 0 -2.50599e+06 2.01128e+06 0 -2.56513e+06 2.00295e+06 0 -2.62802e+06 1.99132e+06 0 -2.69499e+06 1.97582e+06 0 -2.76638e+06 1.95574e+06 0 -2.84258e+06 1.93016e+06 0 -2.92403e+06 1.89798e+06 0 -3.01123e+06 1.85775e+06 0 -3.10474e+06 1.80767e+06 0 -3.20521e+06 1.74545e+06 0 -3.31336e+06 1.66814e+06 0 -3.43006e+06 1.57198e+06 0 -3.55625e+06 1.4521e+06 0 -3.69295e+06 1.30223e+06 0 -3.84118e+06 1.11422e+06 0 -746742 0 0 -752801 20712.7 0 -758920 41389.5 0 -765101 62031.6 0 -771346 82640.5 0 -777655 103218 0 -784032 123764 0 -790476 144282 0 -796990 164772 0 -803575 185235 0 -810233 205674 0 -816965 226089 0 -823773 246482 0 -830659 266854 0 -837623 287207 0 -844667 307542 0 -851794 327860 0 -859003 348163 0 -866298 368453 0 -873678 388729 0 -881147 408994 0 -888704 429250 0 -896353 449497 0 -904093 469737 0 -911926 489970 0 -919855 510199 0 -927879 530425 0 -936002 550649 0 -944223 570872 0 -952545 591095 0 -960968 611319 0 -969494 631546 0 -978125 651777 0 -986861 672013 0 -995704 692254 0 -1.00466e+06 712502 0 -1.01372e+06 732758 0 -1.02289e+06 753023 0 -1.03217e+06 773298 0 -1.04157e+06 793582 0 -1.05108e+06 813878 0 -1.06071e+06 834186 0 -1.07045e+06 854505 0 -1.08032e+06 874838 0 -1.0903e+06 895184 0 -1.1004e+06 915544 0 -1.11063e+06 935917 0 -1.12098e+06 956304 0 -1.13145e+06 976706 0 -1.14205e+06 997121 0 -1.15278e+06 1.01755e+06 0 -1.16364e+06 1.03799e+06 0 -1.17463e+06 1.05845e+06 0 -1.18575e+06 1.07891e+06 0 -1.197e+06 1.09939e+06 0 -1.20839e+06 1.11988e+06 0 -1.21992e+06 1.14037e+06 0 -1.23159e+06 1.16088e+06 0 -1.2434e+06 1.18138e+06 0 -1.25535e+06 1.2019e+06 0 -1.26745e+06 1.22241e+06 0 -1.2797e+06 1.24292e+06 0 -1.29209e+06 1.26342e+06 0 -1.30465e+06 1.28392e+06 0 -1.31736e+06 1.30441e+06 0 -1.33023e+06 1.32488e+06 0 -1.34327e+06 1.34533e+06 0 -1.35648e+06 1.36576e+06 0 -1.36986e+06 1.38616e+06 0 -1.38342e+06 1.40652e+06 0 -1.39717e+06 1.42685e+06 0 -1.4111e+06 1.44712e+06 0 -1.42524e+06 1.46734e+06 0 -1.43958e+06 1.48749e+06 0 -1.45414e+06 1.50758e+06 0 -1.46892e+06 1.52758e+06 0 -1.48394e+06 1.54749e+06 0 -1.4992e+06 1.5673e+06 0 -1.51472e+06 1.587e+06 0 -1.53051e+06 1.60657e+06 0 -1.54659e+06 1.62601e+06 0 -1.56297e+06 1.64529e+06 0 -1.57967e+06 1.66441e+06 0 -1.59671e+06 1.68335e+06 0 -1.61412e+06 1.70208e+06 0 -1.63192e+06 1.72061e+06 0 -1.65012e+06 1.7389e+06 0 -1.66878e+06 1.75693e+06 0 -1.6879e+06 1.7747e+06 0 -1.70754e+06 1.79216e+06 0 -1.72772e+06 1.8093e+06 0 -1.74849e+06 1.8261e+06 0 -1.7699e+06 1.84253e+06 0 -1.79198e+06 1.85856e+06 0 -1.81481e+06 1.87415e+06 0 -1.83842e+06 1.88929e+06 0 -1.86289e+06 1.90393e+06 0 -1.88828e+06 1.91804e+06 0 -1.91468e+06 1.93158e+06 0 -1.94215e+06 1.9445e+06 0 -1.97078e+06 1.95676e+06 0 -2.00067e+06 1.96831e+06 0 -2.03193e+06 1.97909e+06 0 -2.06465e+06 1.98903e+06 0 -2.09896e+06 1.99807e+06 0 -2.13499e+06 2.00612e+06 0 -2.17288e+06 2.01309e+06 0 -2.21278e+06 2.01887e+06 0 -2.25485e+06 2.02334e+06 0 -2.29926e+06 2.02635e+06 0 -2.34622e+06 2.02772e+06 0 -2.39594e+06 2.02724e+06 0 -2.44863e+06 2.02466e+06 0 -2.50456e+06 2.01968e+06 0 -2.56399e+06 2.01192e+06 0 -2.62722e+06 2.00091e+06 0 -2.6946e+06 1.9861e+06 0 -2.76648e+06 1.96677e+06 0 -2.84329e+06 1.94204e+06 0 -2.9255e+06 1.91079e+06 0 -3.01363e+06 1.87162e+06 0 -3.1083e+06 1.82275e+06 0 -3.21021e+06 1.7619e+06 0 -3.3202e+06 1.68618e+06 0 -3.4392e+06 1.59185e+06 0 -3.56832e+06 1.47412e+06 0 -3.70877e+06 1.32678e+06 0 -3.86181e+06 1.14171e+06 0 -740831 0 0 -746919 20731 0 -753067 41426.2 0 -759276 62087 0 -765549 82714.6 0 -771885 103311 0 -778288 123876 0 -784759 144413 0 -791298 164922 0 -797909 185405 0 -804592 205863 0 -811348 226298 0 -818180 246711 0 -825089 267103 0 -832076 287476 0 -839143 307831 0 -846291 328169 0 -853523 348492 0 -860838 368802 0 -868240 389098 0 -875729 409384 0 -883306 429660 0 -890974 449928 0 -898734 470188 0 -906586 490442 0 -914533 510692 0 -922576 530938 0 -930716 551183 0 -938955 571426 0 -947294 591670 0 -955734 611915 0 -964277 632163 0 -972924 652414 0 -981677 672671 0 -990536 692933 0 -999503 713202 0 -1.00858e+06 733479 0 -1.01777e+06 753765 0 -1.02707e+06 774060 0 -1.03648e+06 794365 0 -1.046e+06 814682 0 -1.05565e+06 835010 0 -1.06541e+06 855351 0 -1.07528e+06 875704 0 -1.08528e+06 896071 0 -1.0954e+06 916451 0 -1.10564e+06 936845 0 -1.116e+06 957254 0 -1.12649e+06 977676 0 -1.13711e+06 998112 0 -1.14785e+06 1.01856e+06 0 -1.15872e+06 1.03902e+06 0 -1.16973e+06 1.0595e+06 0 -1.18086e+06 1.07999e+06 0 -1.19213e+06 1.10049e+06 0 -1.20354e+06 1.121e+06 0 -1.21508e+06 1.14151e+06 0 -1.22677e+06 1.16204e+06 0 -1.23859e+06 1.18257e+06 0 -1.25056e+06 1.2031e+06 0 -1.26268e+06 1.22364e+06 0 -1.27494e+06 1.24417e+06 0 -1.28736e+06 1.2647e+06 0 -1.29993e+06 1.28522e+06 0 -1.31266e+06 1.30573e+06 0 -1.32555e+06 1.32623e+06 0 -1.33861e+06 1.34671e+06 0 -1.35184e+06 1.36716e+06 0 -1.36524e+06 1.38759e+06 0 -1.37883e+06 1.40798e+06 0 -1.3926e+06 1.42833e+06 0 -1.40656e+06 1.44864e+06 0 -1.42073e+06 1.46889e+06 0 -1.4351e+06 1.48908e+06 0 -1.44968e+06 1.50919e+06 0 -1.46449e+06 1.52923e+06 0 -1.47954e+06 1.54918e+06 0 -1.49483e+06 1.56903e+06 0 -1.51039e+06 1.58878e+06 0 -1.52621e+06 1.60839e+06 0 -1.54232e+06 1.62788e+06 0 -1.55874e+06 1.64721e+06 0 -1.57548e+06 1.66639e+06 0 -1.59257e+06 1.68538e+06 0 -1.61002e+06 1.70419e+06 0 -1.62785e+06 1.72278e+06 0 -1.64611e+06 1.74114e+06 0 -1.66481e+06 1.75925e+06 0 -1.68398e+06 1.77709e+06 0 -1.70367e+06 1.79464e+06 0 -1.7239e+06 1.81188e+06 0 -1.74473e+06 1.82878e+06 0 -1.76619e+06 1.84532e+06 0 -1.78833e+06 1.86146e+06 0 -1.81121e+06 1.87719e+06 0 -1.83489e+06 1.89246e+06 0 -1.85942e+06 1.90724e+06 0 -1.88488e+06 1.92151e+06 0 -1.91134e+06 1.93521e+06 0 -1.93888e+06 1.94831e+06 0 -1.96759e+06 1.96077e+06 0 -1.99756e+06 1.97252e+06 0 -2.02889e+06 1.98352e+06 0 -2.0617e+06 1.9937e+06 0 -2.0961e+06 2.003e+06 0 -2.13223e+06 2.01133e+06 0 -2.17022e+06 2.0186e+06 0 -2.21023e+06 2.0247e+06 0 -2.25242e+06 2.02952e+06 0 -2.29697e+06 2.0329e+06 0 -2.34409e+06 2.03468e+06 0 -2.39397e+06 2.03465e+06 0 -2.44687e+06 2.03255e+06 0 -2.50303e+06 2.02809e+06 0 -2.56274e+06 2.0209e+06 0 -2.6263e+06 2.01052e+06 0 -2.69408e+06 1.9964e+06 0 -2.76645e+06 1.97784e+06 0 -2.84385e+06 1.95396e+06 0 -2.92678e+06 1.92367e+06 0 -3.01582e+06 1.88558e+06 0 -3.11162e+06 1.83794e+06 0 -3.21494e+06 1.7785e+06 0 -3.3267e+06 1.70441e+06 0 -3.44796e+06 1.61198e+06 0 -3.57994e+06 1.49649e+06 0 -3.72405e+06 1.35176e+06 0 -3.88179e+06 1.16979e+06 0 -734915 0 0 -741032 20749.2 0 -747209 41462.7 0 -753446 62141.9 0 -759746 82788.2 0 -766110 103403 0 -772540 123987 0 -779036 144543 0 -785602 165072 0 -792237 185574 0 -798945 206051 0 -805726 226506 0 -812581 246938 0 -819514 267350 0 -826524 287742 0 -833613 308117 0 -840784 328476 0 -848037 348819 0 -855374 369148 0 -862796 389465 0 -870305 409771 0 -877903 430068 0 -885591 450356 0 -893369 470636 0 -901241 490911 0 -909207 511181 0 -917268 531448 0 -925426 551713 0 -933682 571977 0 -942039 592242 0 -950496 612508 0 -959056 632776 0 -967719 653049 0 -976488 673326 0 -985363 693609 0 -994346 713898 0 -1.00344e+06 734196 0 -1.01264e+06 754502 0 -1.02195e+06 774818 0 -1.03138e+06 795144 0 -1.04092e+06 815482 0 -1.05058e+06 835831 0 -1.06035e+06 856192 0 -1.07025e+06 876566 0 -1.08026e+06 896954 0 -1.09039e+06 917355 0 -1.10065e+06 937770 0 -1.11102e+06 958199 0 -1.12153e+06 978642 0 -1.13216e+06 999099 0 -1.14292e+06 1.01957e+06 0 -1.1538e+06 1.04005e+06 0 -1.16482e+06 1.06055e+06 0 -1.17597e+06 1.08106e+06 0 -1.18726e+06 1.10158e+06 0 -1.19868e+06 1.12211e+06 0 -1.21024e+06 1.14265e+06 0 -1.22194e+06 1.1632e+06 0 -1.23378e+06 1.18375e+06 0 -1.24577e+06 1.2043e+06 0 -1.2579e+06 1.22486e+06 0 -1.27018e+06 1.24542e+06 0 -1.28262e+06 1.26597e+06 0 -1.29521e+06 1.28652e+06 0 -1.30796e+06 1.30706e+06 0 -1.32087e+06 1.32758e+06 0 -1.33395e+06 1.34808e+06 0 -1.3472e+06 1.36856e+06 0 -1.36063e+06 1.38902e+06 0 -1.37423e+06 1.40944e+06 0 -1.38803e+06 1.42982e+06 0 -1.40202e+06 1.45015e+06 0 -1.4162e+06 1.47044e+06 0 -1.4306e+06 1.49066e+06 0 -1.44521e+06 1.51081e+06 0 -1.46005e+06 1.53089e+06 0 -1.47513e+06 1.55088e+06 0 -1.49046e+06 1.57077e+06 0 -1.50604e+06 1.59055e+06 0 -1.5219e+06 1.61022e+06 0 -1.53805e+06 1.62975e+06 0 -1.5545e+06 1.64914e+06 0 -1.57128e+06 1.66837e+06 0 -1.58841e+06 1.68742e+06 0 -1.6059e+06 1.70628e+06 0 -1.62378e+06 1.72494e+06 0 -1.64208e+06 1.74337e+06 0 -1.66082e+06 1.76156e+06 0 -1.68004e+06 1.77949e+06 0 -1.69978e+06 1.79713e+06 0 -1.72007e+06 1.81446e+06 0 -1.74094e+06 1.83146e+06 0 -1.76246e+06 1.84811e+06 0 -1.78466e+06 1.86437e+06 0 -1.8076e+06 1.88021e+06 0 -1.83133e+06 1.89562e+06 0 -1.85593e+06 1.91055e+06 0 -1.88145e+06 1.92497e+06 0 -1.90798e+06 1.93884e+06 0 -1.93558e+06 1.95212e+06 0 -1.96436e+06 1.96477e+06 0 -1.99441e+06 1.97673e+06 0 -2.02582e+06 1.98795e+06 0 -2.0587e+06 1.99837e+06 0 -2.09319e+06 2.00793e+06 0 -2.12941e+06 2.01654e+06 0 -2.1675e+06 2.0241e+06 0 -2.20762e+06 2.03053e+06 0 -2.24992e+06 2.0357e+06 0 -2.29461e+06 2.03946e+06 0 -2.34187e+06 2.04165e+06 0 -2.39193e+06 2.04205e+06 0 -2.44502e+06 2.04044e+06 0 -2.50141e+06 2.03651e+06 0 -2.56138e+06 2.0299e+06 0 -2.62527e+06 2.02015e+06 0 -2.69343e+06 2.00673e+06 0 -2.76627e+06 1.98895e+06 0 -2.84425e+06 1.96594e+06 0 -2.92789e+06 1.93662e+06 0 -3.0178e+06 1.89963e+06 0 -3.11469e+06 1.85324e+06 0 -3.21939e+06 1.79525e+06 0 -3.33288e+06 1.72283e+06 0 -3.45633e+06 1.63237e+06 0 -3.5911e+06 1.51917e+06 0 -3.73877e+06 1.37717e+06 0 -3.90111e+06 1.19841e+06 0 -728994 0 0 -735140 20767.2 0 -741345 41498.9 0 -747611 62196.4 0 -753939 82861.1 0 -760330 103494 0 -766786 124098 0 -773309 144672 0 -779900 165220 0 -786561 185741 0 -793293 206238 0 -800098 226712 0 -806978 247164 0 -813933 267595 0 -820967 288007 0 -828079 308402 0 -835271 328780 0 -842546 349143 0 -849904 369493 0 -857347 389830 0 -864877 410156 0 -872495 430473 0 -880202 450781 0 -888000 471082 0 -895891 491377 0 -903875 511668 0 -911955 531956 0 -920131 552241 0 -928405 572526 0 -936778 592811 0 -945253 613097 0 -953829 633386 0 -962509 653679 0 -971294 673977 0 -980185 694281 0 -989184 714591 0 -998292 734909 0 -1.00751e+06 755236 0 -1.01684e+06 775573 0 -1.02628e+06 795920 0 -1.03584e+06 816278 0 -1.04551e+06 836648 0 -1.0553e+06 857030 0 -1.0652e+06 877425 0 -1.07523e+06 897833 0 -1.08538e+06 918255 0 -1.09565e+06 938690 0 -1.10604e+06 959140 0 -1.11656e+06 979604 0 -1.1272e+06 1.00008e+06 0 -1.13798e+06 1.02057e+06 0 -1.14888e+06 1.04108e+06 0 -1.15991e+06 1.0616e+06 0 -1.17108e+06 1.08213e+06 0 -1.18238e+06 1.10267e+06 0 -1.19381e+06 1.12322e+06 0 -1.20539e+06 1.14378e+06 0 -1.2171e+06 1.16435e+06 0 -1.22896e+06 1.18493e+06 0 -1.24096e+06 1.2055e+06 0 -1.25312e+06 1.22609e+06 0 -1.26542e+06 1.24667e+06 0 -1.27787e+06 1.26724e+06 0 -1.29048e+06 1.28781e+06 0 -1.30325e+06 1.30837e+06 0 -1.31618e+06 1.32892e+06 0 -1.32928e+06 1.34945e+06 0 -1.34255e+06 1.36996e+06 0 -1.356e+06 1.39044e+06 0 -1.36963e+06 1.41089e+06 0 -1.38345e+06 1.4313e+06 0 -1.39746e+06 1.45167e+06 0 -1.41167e+06 1.47198e+06 0 -1.4261e+06 1.49224e+06 0 -1.44074e+06 1.51243e+06 0 -1.45561e+06 1.53254e+06 0 -1.47071e+06 1.55257e+06 0 -1.48607e+06 1.5725e+06 0 -1.50169e+06 1.59233e+06 0 -1.51758e+06 1.61204e+06 0 -1.53376e+06 1.63162e+06 0 -1.55025e+06 1.65106e+06 0 -1.56707e+06 1.67034e+06 0 -1.58423e+06 1.68946e+06 0 -1.60176e+06 1.70838e+06 0 -1.61969e+06 1.72711e+06 0 -1.63803e+06 1.74561e+06 0 -1.65682e+06 1.76388e+06 0 -1.67609e+06 1.78188e+06 0 -1.69587e+06 1.79961e+06 0 -1.71621e+06 1.81704e+06 0 -1.73714e+06 1.83414e+06 0 -1.7587e+06 1.85089e+06 0 -1.78096e+06 1.86727e+06 0 -1.80395e+06 1.88324e+06 0 -1.82775e+06 1.89878e+06 0 -1.8524e+06 1.91386e+06 0 -1.87799e+06 1.92843e+06 0 -1.90458e+06 1.94247e+06 0 -1.93225e+06 1.95593e+06 0 -1.9611e+06 1.96877e+06 0 -1.99121e+06 1.98093e+06 0 -2.0227e+06 1.99238e+06 0 -2.05566e+06 2.00304e+06 0 -2.09023e+06 2.01285e+06 0 -2.12654e+06 2.02174e+06 0 -2.16472e+06 2.02961e+06 0 -2.20494e+06 2.03636e+06 0 -2.24737e+06 2.04187e+06 0 -2.29218e+06 2.04601e+06 0 -2.33958e+06 2.04861e+06 0 -2.3898e+06 2.04946e+06 0 -2.44308e+06 2.04834e+06 0 -2.49969e+06 2.04493e+06 0 -2.55992e+06 2.0389e+06 0 -2.62412e+06 2.0298e+06 0 -2.69265e+06 2.01709e+06 0 -2.76594e+06 2.00009e+06 0 -2.84448e+06 1.97795e+06 0 -2.9288e+06 1.94962e+06 0 -3.01957e+06 1.91376e+06 0 -3.11752e+06 1.86865e+06 0 -3.22355e+06 1.81214e+06 0 -3.33873e+06 1.74144e+06 0 -3.4643e+06 1.65298e+06 0 -3.60178e+06 1.54216e+06 0 -3.75293e+06 1.40297e+06 0 -3.91975e+06 1.22756e+06 0 -723067 0 0 -729243 20785 0 -735477 41534.7 0 -741771 62250.4 0 -748126 82933.5 0 -754544 103585 0 -761027 124207 0 -767576 144801 0 -774193 165367 0 -780879 185907 0 -787636 206423 0 -794466 226916 0 -801369 247387 0 -808348 267838 0 -815404 288270 0 -822539 308684 0 -829754 329082 0 -837050 349466 0 -844429 369835 0 -851894 390192 0 -859444 410539 0 -867082 430875 0 -874809 451204 0 -882626 471525 0 -890536 491841 0 -898539 512152 0 -906636 532460 0 -914830 552765 0 -923122 573071 0 -931513 593376 0 -940005 613683 0 -948598 633993 0 -957294 654306 0 -966096 674625 0 -975003 694949 0 -984017 715280 0 -993140 735619 0 -1.00237e+06 755967 0 -1.01172e+06 776324 0 -1.02118e+06 796691 0 -1.03075e+06 817070 0 -1.04043e+06 837461 0 -1.05024e+06 857863 0 -1.06016e+06 878279 0 -1.0702e+06 898708 0 -1.08036e+06 919151 0 -1.09064e+06 939607 0 -1.10105e+06 960078 0 -1.11158e+06 980563 0 -1.12224e+06 1.00106e+06 0 -1.13303e+06 1.02157e+06 0 -1.14395e+06 1.0421e+06 0 -1.15499e+06 1.06264e+06 0 -1.16618e+06 1.08319e+06 0 -1.17749e+06 1.10375e+06 0 -1.18894e+06 1.12433e+06 0 -1.20053e+06 1.14491e+06 0 -1.21227e+06 1.1655e+06 0 -1.22414e+06 1.1861e+06 0 -1.23616e+06 1.2067e+06 0 -1.24833e+06 1.2273e+06 0 -1.26064e+06 1.24791e+06 0 -1.27312e+06 1.26851e+06 0 -1.28574e+06 1.2891e+06 0 -1.29853e+06 1.30969e+06 0 -1.31148e+06 1.33026e+06 0 -1.3246e+06 1.35082e+06 0 -1.3379e+06 1.37135e+06 0 -1.35137e+06 1.39186e+06 0 -1.36502e+06 1.41234e+06 0 -1.37886e+06 1.43278e+06 0 -1.3929e+06 1.45318e+06 0 -1.40714e+06 1.47353e+06 0 -1.42159e+06 1.49381e+06 0 -1.43625e+06 1.51404e+06 0 -1.45115e+06 1.53419e+06 0 -1.46629e+06 1.55426e+06 0 -1.48167e+06 1.57423e+06 0 -1.49732e+06 1.5941e+06 0 -1.51325e+06 1.61386e+06 0 -1.52946e+06 1.63349e+06 0 -1.54599e+06 1.65298e+06 0 -1.56284e+06 1.67232e+06 0 -1.58005e+06 1.69149e+06 0 -1.59762e+06 1.71048e+06 0 -1.61558e+06 1.72927e+06 0 -1.63397e+06 1.74785e+06 0 -1.6528e+06 1.76619e+06 0 -1.67211e+06 1.78428e+06 0 -1.69194e+06 1.80209e+06 0 -1.71233e+06 1.81961e+06 0 -1.73331e+06 1.83682e+06 0 -1.75493e+06 1.85368e+06 0 -1.77723e+06 1.87017e+06 0 -1.80028e+06 1.88627e+06 0 -1.82413e+06 1.90194e+06 0 -1.84885e+06 1.91716e+06 0 -1.87449e+06 1.93189e+06 0 -1.90114e+06 1.94609e+06 0 -1.92888e+06 1.95973e+06 0 -1.95779e+06 1.97276e+06 0 -1.98798e+06 1.98514e+06 0 -2.01953e+06 1.9968e+06 0 -2.05258e+06 2.00771e+06 0 -2.08723e+06 2.01778e+06 0 -2.12362e+06 2.02694e+06 0 -2.16189e+06 2.03511e+06 0 -2.20221e+06 2.04218e+06 0 -2.24475e+06 2.04805e+06 0 -2.28968e+06 2.05257e+06 0 -2.33722e+06 2.05557e+06 0 -2.3876e+06 2.05687e+06 0 -2.44105e+06 2.05623e+06 0 -2.49787e+06 2.05337e+06 0 -2.55836e+06 2.04792e+06 