<?xml version="1.0"?> 
<VTKFile type="StructuredGrid" version="0.1"> 
<StructuredGrid WholeExtent="0 127 0 127 0 0"> 
<Piece Extent="0 127 0 127 0 0"> 
<PointData>
<DataArray type="Float32" Name="|E|" format="ascii" NumberOfComponents="3"> 
1.14328e+06 -116662 0 1.28169e+06 -88932.5 0 1.32771e+06 -100401 0 1.36883e+06 -114952 0 1.41073e+06 -119021 0 1.45034e+06 -120416 0 1.48858e+06 -117091 0 1.52405e+06 -112051 0 1.55714e+06 -105017 0 1.58734e+06 -97167.8 0 1.61482e+06 -88537.8 0 1.63941e+06 -79605.6 0 1.66121e+06 -70451.7 0 1.68019e+06 -61287.5 0 1.69643e+06 -52184.1 0 1.70996e+06 -43247.3 0 1.72089e+06 -34530.7 0 1.72928e+06 -26093.4 0 1.73524e+06 -17973.2 0 1.73888e+06 -10204.4 0 1.7403e+06 -2810.65 0 1.73964e+06 4189.47 0 1.737e+06 10784.3 0 1.73252e+06 16967.1 0 1.72631e+06 22735.9 0 1.71851e+06 28092.9 0 1.70923e+06 33043.9 0 1.69859e+06 37597.4 0 1.6867e+06 41764.9 0 1.67369e+06 45559.5 0 1.65965e+06 48996 0 1.64469e+06 52090.4 0 1.62891e+06 54859.6 0 1.61239e+06 57320.7 0 1.59523e+06 59491.2 0 1.5775e+06 61388.8 0 1.55928e+06 63030.5 0 1.54064e+06 64433.4 0 1.52164e+06 65613.8 0 1.50236e+06 66587.7 0 1.48284e+06 67370.3 0 1.46313e+06 67976 0 1.4433e+06 68418.7 0 1.42337e+06 68711.4 0 1.40338e+06 68866.4 0 1.38339e+06 68895.2 0 1.36342e+06 68808.7 0 1.3435e+06 68616.9 0 1.32365e+06 68329.4 0 1.30392e+06 67954.8 0 1.28431e+06 67501.4 0 1.26485e+06 66976.6 0 1.24556e+06 66387.4 0 1.22646e+06 65740.4 0 1.20756e+06 65041.4 0 1.18887e+06 64295.9 0 1.1704e+06 63509 0 1.15218e+06 62685.3 0 1.1342e+06 61829.1 0 1.11648e+06 60944.3 0 1.09902e+06 60034.4 0 1.08183e+06 59102.8 0 1.06491e+06 58152.5 0 1.04827e+06 57186.1 0 1.03192e+06 56206.2 0 1.01585e+06 55215.1 0 1.00007e+06 54214.7 0 984587 53207.1 0 969394 52193.8 0 954494 51176.5 0 939890 50156.6 0 925582 49135.2 0 911569 48113.6 0 897852 47092.8 0 884429 46073.6 0 871301 45056.9 0 858467 44043.5 0 845924 43033.9 0 833672 42028.7 0 821710 41028.5 0 810036 40033.6 0 798649 39044.6 0 787545 38061.5 0 776725 37084.8 0 766185 36114.7 0 755924 35151.4 0 745940 34195 0 736230 33245.6 0 726793 32303.3 0 717627 31368.1 0 708729 30440.2 0 700098 29519.4 0 691731 28605.7 0 683626 27699.2 0 675781 26799.8 0 668195 25907.2 0 660864 25021.6 0 653788 24142.7 0 646963 23270.5 0 640389 22404.7 0 634064 21545.3 0 627985 20692.1 0 622151 19844.9 0 616560 19003.5 0 611210 18167.7 0 606100 17337.4 0 601229 16512.4 0 596594 15692.4 0 592195 14877.3 0 588029 14066.7 0 584097 13260.6 0 580395 12458.6 0 576924 11660.6 0 573683 10866.3 0 570669 10075.5 0 567883 9287.88 0 565322 8503.28 0 562988 7721.44 0 560877 6942.11 0 558991 6165.04 0 557329 5389.98 0 555889 4616.7 0 554671 3844.93 0 553675 3074.42 0 552901 2304.93 0 552348 1536.2 0 552017 767.972 0 551906 0 0 1.15327e+06 -117680 0 1.28122e+06 -89630.9 0 1.32732e+06 -101931 0 1.3688e+06 -115930 0 1.41071e+06 -120207 0 1.45051e+06 -121412 0 1.48877e+06 -118095 0 1.52432e+06 -112939 0 1.55741e+06 -105854 0 1.58764e+06 -97914.3 0 1.61512e+06 -89215.5 0 1.63972e+06 -80202.3 0 1.66151e+06 -70975.5 0 1.68048e+06 -61735.6 0 1.69671e+06 -52560.5 0 1.71023e+06 -43552.7 0 1.72114e+06 -34768.1 0 1.72952e+06 -26265.2 0 1.73547e+06 -18082.3 0 1.73909e+06 -10253.8 0 1.7405e+06 -2803.46 0 1.73982e+06 4250.01 0 1.73716e+06 10894.9 0 1.73267e+06 17124.4 0 1.72645e+06 22936.6 0 1.71863e+06 28333.8 0 1.70933e+06 33321.6 0 1.69868e+06 37909 0 1.68678e+06 42107.3 0 1.67376e+06 45929.9 0 1.65971e+06 49391.6 0 1.64474e+06 52508.6 0 1.62895e+06 55297.9 0 1.61242e+06 57776.8 0 1.59525e+06 59963 0 1.57751e+06 61874 0 1.55928e+06 63527.4 0 1.54063e+06 64940.1 0 1.52164e+06 66128.7 0 1.50235e+06 67109.2 0 1.48282e+06 67897 0 1.46311e+06 68506.7 0 1.44327e+06 68952 0 1.42333e+06 69246.3 0 1.40335e+06 69401.9 0 1.38335e+06 69430.4 0 1.36338e+06 69342.7 0 1.34346e+06 69149 0 1.32361e+06 68858.8 0 1.30387e+06 68481 0 1.28427e+06 68023.7 0 1.26481e+06 67494.5 0 1.24552e+06 66900.5 0 1.22641e+06 66248.2 0 1.20751e+06 65543.6 0 1.18882e+06 64792.1 0 1.17035e+06 63999 0 1.15213e+06 63168.8 0 1.13415e+06 62305.8 0 1.11643e+06 61414 0 1.09897e+06 60497 0 1.08178e+06 59558.2 0 1.06486e+06 58600.4 0 1.04822e+06 57626.5 0 1.03187e+06 56638.9 0 1.0158e+06 55640.1 0 1.00003e+06 54632 0 984540 53616.5 0 969347 52595.4 0 954449 51570.2 0 939845 50542.4 0 925537 49513.2 0 911525 48483.7 0 897809 47454.9 0 884387 46427.9 0 871259 45403.4 0 858425 44382.1 0 845884 43364.7 0 833633 42351.8 0 821671 41343.9 0 809998 40341.4 0 798611 39344.7 0 787508 38354.1 0 776688 37369.9 0 766149 36392.3 0 755889 35421.6 0 745905 34457.8 0 736196 33501.1 0 726760 32551.5 0 717595 31609.2 0 708697 30674.1 0 700067 29746.2 0 691700 28825.6 0 683596 27912.1 0 675752 27005.7 0 668165 26106.3 0 660835 25213.9 0 653760 24328.3 0 646936 23449.3 0 640362 22576.9 0 634037 21710.9 0 627959 20851.1 0 622125 19997.4 0 616534 19149.5 0 611185 18307.3 0 606076 17470.7 0 601204 16639.3 0 596570 15813 0 592171 14991.6 0 588006 14174.8 0 584074 13362.5 0 580373 12554.4 0 576902 11750.2 0 573660 10949.8 0 570647 10152.9 0 567861 9359.25 0 565301 8568.62 0 562966 7780.77 0 560856 6995.45 0 558970 6212.41 0 557308 5431.4 0 555868 4652.17 0 554650 3874.47 0 553654 3098.05 0 552880 2322.64 0 552328 1548 0 551996 773.873 0 551886 0 0 1.16225e+06 -118597 0 1.28079e+06 -90451.9 0 1.32694e+06 -103411 0 1.36876e+06 -116938 0 1.4107e+06 -121384 0 1.45068e+06 -122419 0 1.48896e+06 -119095 0 1.52459e+06 -113831 0 1.55769e+06 -106690 0 1.58794e+06 -98661.7 0 1.61542e+06 -89892.7 0 1.64002e+06 -80799 0 1.66181e+06 -71498.8 0 1.68077e+06 -62183.3 0 1.69699e+06 -52936.4 0 1.7105e+06 -43857.6 0 1.7214e+06 -35005.1 0 1.72976e+06 -26436.5 0 1.73569e+06 -18190.9 0 1.7393e+06 -10302.6 0 1.74069e+06 -2795.72 0 1.74e+06 4311.07 0 1.73733e+06 11006 0 1.73282e+06 17282.2 0 1.72658e+06 23137.8 0 1.71875e+06 28575.1 0 1.70944e+06 33599.9 0 1.69877e+06 38221.1 0 1.68687e+06 42450.2 0 1.67383e+06 46300.7 0 1.65977e+06 49787.6 0 1.64479e+06 52927.2 0 1.62898e+06 55736.5 0 1.61245e+06 58233.2 0 1.59527e+06 60434.9 0 1.57752e+06 62359.5 0 1.55929e+06 64024.4 0 1.54063e+06 65447 0 1.52163e+06 66643.8 0 1.50233e+06 67630.9 0 1.4828e+06 68423.9 0 1.46309e+06 69037.4 0 1.44324e+06 69485.5 0 1.4233e+06 69781.4 0 1.40332e+06 69937.5 0 1.38332e+06 69965.7 0 1.36334e+06 69876.8 0 1.34341e+06 69681.1 0 1.32357e+06 69388.3 0 1.30383e+06 69007.2 0 1.28422e+06 68546 0 1.26476e+06 68012.5 0 1.24547e+06 67413.7 0 1.22636e+06 66756.1 0 1.20746e+06 66045.8 0 1.18877e+06 65288.4 0 1.1703e+06 64489 0 1.15208e+06 63652.2 0 1.1341e+06 62782.5 0 1.11638e+06 61883.8 0 1.09892e+06 60959.6 0 1.08173e+06 60013.5 0 1.06481e+06 59048.3 0 1.04818e+06 58066.8 0 1.03182e+06 57071.7 0 1.01576e+06 56065.1 0 999978 55049.2 0 984493 54025.9 0 969301 52997 0 954403 51963.9 0 939800 50928.2 0 925493 49891.1 0 911481 48853.7 0 897765 47817.1 0 884344 46782.2 0 871217 45749.8 0 858384 44720.7 0 845843 43695.5 0 833593 42674.9 0 821632 41659.3 0 809959 40649.1 0 798573 39644.8 0 787471 38646.6 0 776652 37654.9 0 766113 36669.9 0 755854 35691.7 0 745871 34720.5 0 736163 33756.5 0 726727 32799.7 0 717562 31850.2 0 708665 30908 0 700035 29973 0 691669 29045.4 0 683566 28124.9 0 675722 27211.6 0 668136 26305.4 0 660807 25406.2 0 653731 24513.8 0 646908 23628.1 0 640335 22749 0 634010 21876.4 0 627932 21010.1 0 622099 20149.8 0 616509 19295.5 0 611160 18446.9 0 606051 17603.9 0 601180 16766.2 0 596546 15933.6 0 592147 15105.9 0 587983 14282.9 0 584050 13464.4 0 580350 12650.1 0 576879 11839.8 0 573638 11033.3 0 570625 10230.3 0 567839 9430.61 0 565279 8633.96 0 562945 7840.1 0 560835 7048.79 0 558949 6259.78 0 557286 5472.82 0 555847 4687.65 0 554629 3904.02 0 553634 3121.67 0 552860 2340.35 0 552307 1559.81 0 551975 779.774 0 551865 0 0 1.17033e+06 -119422 0 1.28039e+06 -91375.1 0 1.32659e+06 -104850 0 1.3687e+06 -117971 0 1.4107e+06 -122552 0 1.45084e+06 -123433 0 1.48917e+06 -120094 0 1.52486e+06 -114725 0 1.55797e+06 -107526 0 1.58825e+06 -99409.8 0 1.61573e+06 -90569.3 0 1.64033e+06 -81395.7 0 1.66211e+06 -72021.6 0 1.68107e+06 -62630.7 0 1.69727e+06 -53311.7 0 1.71077e+06 -44162 0 1.72165e+06 -35241.5 0 1.73e+06 -26607.2 0 1.73592e+06 -18298.9 0 1.73951e+06 -10350.9 0 1.74089e+06 -2787.45 0 1.74018e+06 4372.68 0 1.7375e+06 11117.6 0 1.73297e+06 17440.5 0 1.72672e+06 23339.4 0 1.71887e+06 28816.8 0 1.70955e+06 33878.5 0 1.69887e+06 38533.5 0 1.68695e+06 42793.5 0 1.6739e+06 46671.9 0 1.65983e+06 50183.9 0 1.64484e+06 53346.1 0 1.62902e+06 56175.5 0 1.61248e+06 58689.9 0 1.59529e+06 60907.2 0 1.57753e+06 62845.2 0 1.55929e+06 64521.7 0 1.54063e+06 65954.1 0 1.52162e+06 67159 0 1.50232e+06 68152.7 0 1.48278e+06 68950.9 0 1.46307e+06 69568.3 0 1.44322e+06 70019.1 0 1.42327e+06 70316.5 0 1.40328e+06 70473.3 0 1.38328e+06 70501 0 1.3633e+06 70411 0 1.34337e+06 70213.4 0 1.32353e+06 69917.9 0 1.30379e+06 69533.4 0 1.28417e+06 69068.4 0 1.26471e+06 68530.5 0 1.24542e+06 67926.8 0 1.22631e+06 67264 0 1.20741e+06 66548.1 0 1.18872e+06 65784.7 0 1.17025e+06 64979 0 1.15203e+06 64135.7 0 1.13405e+06 63259.2 0 1.11633e+06 62353.5 0 1.09887e+06 61422.2 0 1.08168e+06 60468.8 0 1.06476e+06 59496.1 0 1.04813e+06 58507.2 0 1.03177e+06 57504.4 0 1.01571e+06 56490.1 0 999931 55466.4 0 984446 54435.3 0 969254 53398.5 0 954356 52357.6 0 939754 51314 0 925448 50269 0 911437 49223.7 0 897722 48179.2 0 884301 47136.4 0 871175 46096.2 0 858343 45059.3 0 845802 44026.3 0 833553 42998 0 821593 41974.6 0 809921 40956.8 0 798535 39944.8 0 787434 38939.1 0 776615 37939.9 0 766077 36947.4 0 755818 35961.8 0 745836 34983.3 0 736129 34012 0 726694 33048 0 717529 32091.2 0 708633 31141.9 0 700004 30199.9 0 691638 29265.2 0 683535 28337.7 0 675692 27417.5 0 668107 26504.5 0 660778 25598.4 0 653703 24699.3 0 646880 23806.9 0 640308 22921.2 0 633983 22042 0 627906 21169.1 0 622073 20302.3 0 616483 19441.5 0 611134 18586.5 0 606026 17737.1 0 601155 16893 0 596522 16054.1 0 592123 15220.2 0 587959 14391 0 584027 13566.3 0 580327 12745.8 0 576857 11929.4 0 573615 11116.8 0 570603 10307.7 0 567817 9501.98 0 565257 8699.29 0 562923 7899.43 0 560813 7102.13 0 558927 6307.15 0 557265 5514.23 0 555825 4723.12 0 554608 3933.56 0 553612 3145.29 0 552839 2358.06 0 552286 1571.61 0 551954 785.675 0 551844 0 0 1.17762e+06 -120166 0 1.28002e+06 -92382.9 0 1.32625e+06 -106252 0 1.36864e+06 -119027 0 1.41071e+06 -123715 0 1.45101e+06 -124455 0 1.48937e+06 -121091 0 1.52512e+06 -115622 0 1.55826e+06 -108360 0 1.58855e+06 -100159 0 1.61603e+06 -91245.5 0 1.64064e+06 -81992.3 0 1.66241e+06 -72543.9 0 1.68136e+06 -63077.7 0 1.69755e+06 -53686.6 0 1.71104e+06 -44466 0 1.72191e+06 -35477.4 0 1.73025e+06 -26777.4 0 1.73615e+06 -18406.4 0 1.73973e+06 -10398.6 0 1.74109e+06 -2778.62 0 1.74036e+06 4434.81 0 1.73766e+06 11229.7 0 1.73312e+06 17599.3 0 1.72685e+06 23541.6 0 1.71899e+06 29059 0 1.70966e+06 34157.6 0 1.69896e+06 38846.4 0 1.68703e+06 43137.1 0 1.67397e+06 47043.4 0 1.65989e+06 50580.6 0 1.64488e+06 53765.3 0 1.62906e+06 56614.8 0 1.61251e+06 59146.9 0 1.59531e+06 61379.7 0 1.57755e+06 63331.2 0 1.5593e+06 65019.3 0 1.54063e+06 66461.3 0 1.52161e+06 67674.4 0 1.50231e+06 68674.7 0 1.48277e+06 69478.1 0 1.46304e+06 70099.3 0 1.44319e+06 70552.8 0 1.42324e+06 70851.8 0 1.40325e+06 71009.1 0 1.38325e+06 71036.5 0 1.36326e+06 70945.2 0 1.34333e+06 70745.6 0 1.32348e+06 70447.5 0 1.30374e+06 70059.7 0 1.28413e+06 69590.8 0 1.26467e+06 69048.5 0 1.24537e+06 68440 0 1.22626e+06 67771.9 0 1.20736e+06 67050.3 0 1.18867e+06 66280.9 0 1.1702e+06 65469 0 1.15198e+06 64619.2 0 1.134e+06 63735.9 0 1.11628e+06 62823.3 0 1.09882e+06 61884.8 0 1.08163e+06 60924.1 0 1.06471e+06 59944 0 1.04808e+06 58947.5 0 1.03172e+06 57937 0 1.01566e+06 56915.1 0 999882 55883.6 0 984398 54844.7 0 969207 53800.1 0 954310 52751.3 0 939708 51699.8 0 925403 50646.8 0 911392 49593.6 0 897678 48541.3 0 884258 47490.6 0 871133 46442.6 0 858301 45397.8 0 845761 44357.1 0 833512 43321 0 821553 42290 0 809882 41264.5 0 798497 40244.9 0 787396 39231.6 0 776578 38224.9 0 766041 37224.9 0 755783 36231.9 0 745801 35246.1 0 736094 34267.4 0 726660 33296.2 0 717496 32332.3 0 708601 31375.8 0 699972 30426.7 0 691607 29484.9 0 683504 28550.6 0 675662 27623.4 0 668077 26703.5 0 660749 25790.6 0 653674 24884.7 0 646852 23985.7 0 640280 23093.3 0 633956 22207.5 0 627879 21328 0 622047 20454.8 0 616457 19587.5 0 611109 18726.1 0 606001 17870.3 0 601131 17019.9 0 596497 16174.7 0 592099 15334.5 0 587935 14499.1 0 584004 13668.1 0 580303 12841.5 0 576834 12019 0 573593 11200.3 0 570580 10385.1 0 567794 9573.33 0 565235 8764.62 0 562901 7958.75 0 560791 7155.47 0 558906 6354.52 0 557243 5555.64 0 555804 4758.59 0 554587 3963.1 0 553591 3168.91 0 552817 2375.77 0 552265 1583.41 0 551933 791.575 0 551823 0 0 1.18421e+06 -120838 0 1.27969e+06 -93460.2 0 1.32592e+06 -107624 0 1.36857e+06 -120102 0 1.41073e+06 -124872 0 1.45117e+06 -125484 0 1.48958e+06 -122087 0 1.52539e+06 -116520 0 1.55855e+06 -109195 0 1.58886e+06 -100908 0 1.61634e+06 -91921.3 0 1.64095e+06 -82588.8 0 1.66271e+06 -73065.8 0 1.68166e+06 -63524.3 0 1.69784e+06 -54060.9 0 1.71132e+06 -44769.4 0 1.72217e+06 -35712.7 0 1.73049e+06 -26947 0 1.73638e+06 -18513.3 0 1.73994e+06 -10445.8 0 1.74129e+06 -2769.25 0 1.74055e+06 4497.49 0 1.73783e+06 11342.4 0 1.73327e+06 17758.6 0 1.72699e+06 23744.2 0 1.71912e+06 29301.7 0 1.70977e+06 34437.2 0 1.69906e+06 39159.8 0 1.68711e+06 43481.2 0 1.67404e+06 47415.3 0 1.65995e+06 50977.7 0 1.64493e+06 54184.8 0 1.6291e+06 57054.3 0 1.61254e+06 59604.1 0 1.59533e+06 61852.4 0 1.57756e+06 63817.4 0 1.5593e+06 65517 0 1.54063e+06 66968.8 0 1.52161e+06 68190 0 1.50229e+06 69196.9 0 1.48275e+06 70005.4 0 1.46302e+06 70630.5 0 1.44316e+06 71086.6 0 1.42321e+06 71387.2 0 1.40322e+06 71545 0 1.38321e+06 71572 0 1.36322e+06 71479.5 0 1.34329e+06 71278 0 1.32344e+06 70977.1 0 1.3037e+06 70586.1 0 1.28408e+06 70113.3 0 1.26462e+06 69566.6 0 1.24532e+06 68953.2 0 1.22622e+06 68279.8 0 1.20731e+06 67552.6 0 1.18862e+06 66777.2 0 1.17015e+06 65959 0 1.15193e+06 65102.7 0 1.13395e+06 64212.6 0 1.11623e+06 63293 0 1.09877e+06 62347.4 0 1.08158e+06 61379.3 0 1.06466e+06 60391.9 0 1.04803e+06 59387.8 0 1.03167e+06 58369.7 0 1.01561e+06 57340 0 999834 56300.8 0 984350 55254.1 0 969159 54201.6 0 954263 53144.9 0 939662 52085.5 0 925357 51024.7 0 911348 49963.6 0 897634 48903.3 0 884215 47844.8 0 871090 46788.9 0 858259 45736.4 0 845720 44687.9 0 833472 43644 0 821513 42605.3 0 809843 41572.1 0 798458 40544.9 0 787358 39524.1 0 776541 38509.8 0 766005 37502.4 0 755747 36502 0 745766 35508.8 0 736060 34522.9 0 726626 33544.3 0 717463 32573.3 0 708568 31609.6 0 699940 30653.4 0 691576 29704.7 0 683474 28763.3 0 675632 27829.3 0 668048 26902.5 0 660720 25982.9 0 653646 25070.2 0 646824 24164.4 0 640252 23265.4 0 633929 22373 0 627852 21487 0 622020 20607.2 0 616431 19733.5 0 611083 18865.7 0 605975 18003.5 0 601106 17146.7 0 596473 16295.2 0 592075 15448.8 0 587911 14607.1 0 583980 13770 0 580280 12937.2 0 576810 12108.6 0 573570 11283.7 0 570557 10462.5 0 567772 9644.68 0 565213 8829.94 0 562879 8018.07 0 560769 7208.8 0 558884 6401.88 0 557222 5597.05 0 555782 4794.06 0 554565 3992.64 0 553570 3192.53 0 552796 2393.48 0 552243 1595.21 0 551912 797.475 0 551802 0 0 1.19017e+06 -121446 0 1.27937e+06 -94593.9 0 1.32561e+06 -108971 0 1.36849e+06 -121196 0 1.41075e+06 -126026 0 1.45133e+06 -126518 0 1.4898e+06 -123082 0 1.52566e+06 -117421 0 1.55884e+06 -110028 0 1.58917e+06 -101658 0 1.61665e+06 -92596.7 0 1.64126e+06 -83185.2 0 1.66302e+06 -73587.3 0 1.68196e+06 -63970.6 0 1.69813e+06 -54434.8 0 1.71159e+06 -45072.4 0 1.72244e+06 -35947.5 0 1.73074e+06 -27116.1 0 1.73661e+06 -18619.7 0 1.74016e+06 -10492.4 0 1.74149e+06 -2759.33 0 1.74073e+06 4560.71 0 1.738e+06 11455.6 0 1.73343e+06 17918.4 0 1.72713e+06 23947.4 0 1.71924e+06 29544.9 0 1.70988e+06 34717.2 0 1.69916e+06 39473.5 0 1.6872e+06 43825.7 0 1.67411e+06 47787.6 0 1.66001e+06 51375.1 0 1.64498e+06 54604.7 0 1.62914e+06 57494.2 0 1.61257e+06 60061.7 0 1.59535e+06 62325.4 0 1.57757e+06 64303.8 0 1.55931e+06 66015 0 1.54063e+06 67476.5 0 1.5216e+06 68705.7 0 1.50228e+06 69719.2 0 1.48273e+06 70532.8 0 1.463e+06 71161.8 0 1.44314e+06 71620.5 0 1.42318e+06 71922.6 0 1.40318e+06 72081 0 1.38317e+06 72107.6 0 1.36319e+06 72013.9 0 1.34325e+06 71810.3 0 1.3234e+06 71506.8 0 1.30365e+06 71112.5 0 1.28404e+06 70635.8 0 1.26457e+06 70084.7 0 1.24528e+06 69466.4 0 1.22617e+06 68787.7 0 1.20726e+06 68054.9 0 1.18857e+06 67273.6 0 1.1701e+06 66449 0 1.15188e+06 65586.1 0 1.1339e+06 64689.3 0 1.11618e+06 63762.7 0 1.09872e+06 62810 0 1.08153e+06 61834.6 0 1.06461e+06 60839.7 0 1.04798e+06 59828.1 0 1.03163e+06 58802.4 0 1.01556e+06 57765 0 999786 56718 0 984302 55663.5 0 969112 54603.1 0 954216 53538.5 0 939616 52471.2 0 925312 51402.5 0 911303 50333.5 0 897589 49265.4 0 884171 48199 0 871047 47135.3 0 858217 46074.9 0 845678 45018.6 0 833431 43967 0 821473 42920.6 0 809803 41879.7 0 798420 40845 0 787321 39816.5 0 776504 38794.8 0 765968 37779.9 0 755711 36772.1 0 745731 35771.5 0 736025 34778.3 0 726592 33792.5 0 717430 32814.2 0 708535 31843.5 0 699908 30880.2 0 691544 29924.4 0 683442 28976.1 0 675601 28035.2 0 668018 27101.5 0 660690 26175.1 0 653617 25255.7 0 646795 24343.2 0 640224 23437.5 0 633901 22538.5 0 627825 21645.9 0 621993 20759.6 0 616405 19879.5 0 611058 19005.2 0 605950 18136.6 0 601081 17273.6 0 596448 16415.8 0 592051 15563.1 0 587887 14715.2 0 583956 13871.9 0 580257 13032.9 0 576787 12198.1 0 573547 11367.2 0 570534 10539.9 0 567749 9716.03 0 565190 8895.26 0 562856 8077.38 0 560747 7262.12 0 558862 6449.23 0 557200 5638.45 0 555761 4829.52 0 554543 4022.17 0 553548 3216.15 0 552774 2411.18 0 552222 1607.01 0 551891 803.374 0 551780 0 0 1.19557e+06 -121997 0 1.27909e+06 -95772.7 0 1.32531e+06 -110298 0 1.36841e+06 -122305 0 1.41078e+06 -127177 0 1.45149e+06 -127559 0 1.49002e+06 -124076 0 1.52594e+06 -118324 0 1.55913e+06 -110862 0 1.58948e+06 -102408 0 1.61697e+06 -93271.8 0 1.64158e+06 -83781.4 0 1.66333e+06 -74108.4 0 1.68226e+06 -64416.5 0 1.69842e+06 -54808.1 0 1.71187e+06 -45374.9 0 1.7227e+06 -36181.8 0 1.73099e+06 -27284.7 0 1.73685e+06 -18725.5 0 1.74038e+06 -10538.4 0 1.74169e+06 -2748.85 0 1.74092e+06 4624.47 0 1.73817e+06 11569.3 0 1.73358e+06 18078.7 0 1.72727e+06 24151 0 1.71937e+06 29788.6 0 1.70999e+06 34997.7 0 1.69925e+06 39787.7 0 1.68728e+06 44170.5 0 1.67418e+06 48160.3 0 1.66007e+06 51772.8 0 1.64503e+06 55024.9 0 1.62918e+06 57934.4 0 1.6126e+06 60519.5 0 1.59537e+06 62798.7 0 1.57759e+06 64790.5 0 1.55931e+06 66513.1 0 1.54063e+06 67984.4 0 1.52159e+06 69221.7 0 1.50227e+06 70241.7 0 1.48271e+06 71060.5 0 1.46298e+06 71693.2 0 1.44311e+06 72154.6 0 1.42315e+06 72458.2 0 1.40315e+06 72617.1 0 1.38314e+06 72643.3 0 1.36315e+06 72548.4 0 1.34321e+06 72342.8 0 1.32335e+06 72036.6 0 1.30361e+06 71638.9 0 1.28399e+06 71158.3 0 1.26452e+06 70602.8 0 1.24523e+06 69979.7 0 1.22612e+06 69295.7 0 1.20721e+06 68557.2 0 1.18852e+06 67769.9 0 1.17005e+06 66939.1 0 1.15183e+06 66069.6 0 1.13385e+06 65166.1 0 1.11613e+06 64232.5 0 1.09867e+06 63272.6 0 1.08148e+06 62289.9 0 1.06456e+06 61287.5 0 1.04793e+06 60268.4 0 1.03158e+06 59235 0 1.01551e+06 58189.9 0 999737 57135.2 0 984254 56072.8 0 969064 55004.6 0 954169 53932.1 0 939570 52856.9 0 925266 51780.3 0 911258 50703.4 0 897545 49627.4 0 884127 48553.2 0 871004 47481.6 0 858174 46413.4 0 845637 45349.4 0 833390 44290 0 821433 43235.8 0 809764 42187.4 0 798381 41145 0 787282 40109 0 776467 39079.7 0 765931 38057.3 0 755675 37042.1 0 745695 36034.2 0 735990 35033.7 0 726558 34040.7 0 717396 33055.2 0 708503 32077.3 0 699875 31107 0 691512 30144.2 0 683411 29188.9 0 675570 28241 0 667987 27300.5 0 660661 26367.3 0 653588 25441.1 0 646767 24521.9 0 640196 23609.6 0 633874 22704 0 627798 21804.9 0 621967 20912.1 0 616378 20025.4 0 611031 19144.7 0 605924 18269.8 0 601055 17400.4 0 596423 16536.3 0 592026 15677.3 0 587863 14823.2 0 583932 13973.7 0 580233 13128.6 0 576764 12287.7 0 573524 11450.7 0 570511 10617.3 0 567726 9787.37 0 565168 8960.58 0 562834 8136.69 0 560725 7315.45 0 558840 6496.59 0 557178 5679.85 0 555739 4864.98 0 554522 4051.71 0 553527 3239.76 0 552753 2428.89 0 552200 1618.81 0 551869 809.273 0 551759 0 0 1.20046e+06 -122496 0 1.27882e+06 -96987 0 1.32502e+06 -111607 0 1.36832e+06 -123428 0 1.41082e+06 -128327 0 1.45165e+06 -128604 0 1.49024e+06 -125071 0 1.52621e+06 -119228 0 1.55943e+06 -111695 0 1.58979e+06 -103158 0 1.61728e+06 -93946.6 0 1.64189e+06 -84377.5 0 1.66364e+06 -74629 0 1.68256e+06 -64862 0 1.69871e+06 -55181 0 1.71215e+06 -45676.8 0 1.72297e+06 -36415.5 0 1.73124e+06 -27452.7 0 1.73708e+06 -18830.8 0 1.7406e+06 -10583.9 0 1.7419e+06 -2737.82 0 1.74111e+06 4688.78 0 1.73835e+06 11683.5 0 1.73374e+06 18239.6 0 1.72741e+06 24355.1 0 1.71949e+06 30032.7 0 1.7101e+06 35278.6 0 1.69935e+06 40102.3 0 1.68737e+06 44515.8 0 1.67426e+06 48533.4 0 1.66013e+06 52170.9 0 1.64508e+06 55445.5 0 1.62922e+06 58374.9 0 1.61263e+06 60977.6 0 1.59539e+06 63272.2 0 1.5776e+06 65277.4 0 1.55932e+06 67011.5 0 1.54063e+06 68492.5 0 1.52159e+06 69737.8 0 1.50226e+06 70764.4 0 1.4827e+06 71588.2 0 1.46296e+06 72224.8 0 1.44308e+06 72688.8 0 1.42312e+06 72993.9 0 1.40312e+06 73153.3 0 1.3831e+06 73179.1 0 1.36311e+06 73082.9 0 1.34317e+06 72875.3 0 1.32331e+06 72566.4 0 1.30356e+06 72165.4 0 1.28394e+06 71680.9 0 1.26448e+06 71121 0 1.24518e+06 70493 0 1.22607e+06 69803.7 0 1.20716e+06 69059.5 0 1.18847e+06 68266.2 0 1.17e+06 67429.1 0 1.15178e+06 66553.1 0 1.1338e+06 65642.8 0 1.11607e+06 64702.2 0 1.09861e+06 63735.2 0 1.08143e+06 62745.2 0 1.06451e+06 61735.4 0 1.04788e+06 60708.7 0 1.03153e+06 59667.7 0 1.01546e+06 58614.8 0 999688 57552.3 0 984205 56482.1 0 969017 55406.1 0 954122 54325.7 0 939523 53242.6 0 925220 52158.1 0 911212 51073.3 0 897500 49989.4 0 884083 48907.3 0 870961 47827.9 0 858132 46751.9 0 845595 45680.1 0 833349 44612.9 0 821392 43551.1 0 809724 42494.9 0 798342 41444.9 0 787244 40401.4 0 776429 39364.6 0 765894 38334.8 0 755639 37312.1 0 745660 36296.9 0 735955 35289 0 726524 34288.8 0 717362 33296.1 0 708469 32311.1 0 699843 31333.7 0 691480 30363.9 0 683380 29401.6 0 675540 28446.9 0 667957 27499.5 0 660631 26559.4 0 653558 25626.5 0 646738 24700.7 0 640168 23781.7 0 633846 22869.5 0 627770 21963.8 0 621940 21064.5 0 616352 20171.4 0 611005 19284.3 0 605899 18403 0 601030 17527.2 0 596398 16656.8 0 592001 15791.6 0 587838 14931.2 0 583908 14075.6 0 580209 13224.3 0 576740 12377.3 0 573500 11534.1 0 570488 10694.7 0 567704 9858.7 0 565145 9025.89 0 562811 8195.99 0 560703 7368.76 0 558818 6543.94 0 557156 5721.25 0 555717 4900.44 0 554500 4081.24 0 553505 3263.38 0 552731 2446.59 0 552179 1630.61 0 551847 815.171 0 551737 0 0 1.20491e+06 -122950 0 1.27857e+06 -98228.8 0 1.32473e+06 -112901 0 1.36823e+06 -124564 0 1.41085e+06 -129475 0 1.45181e+06 -129654 0 1.49046e+06 -126065 0 1.52648e+06 -120134 0 1.55973e+06 -112528 0 1.59011e+06 -103909 0 1.6176e+06 -94621.2 0 1.64221e+06 -84973.3 0 1.66395e+06 -75149.2 0 1.68287e+06 -65307.1 0 1.699e+06 -55553.3 0 1.71243e+06 -45978.3 0 1.72323e+06 -36648.7 0 1.7315e+06 -27620.2 0 1.73732e+06 -18935.5 0 1.74082e+06 -10628.9 0 1.7421e+06 -2726.23 0 1.7413e+06 4753.63 0 1.73852e+06 11798.3 0 1.7339e+06 18400.9 0 1.72756e+06 24559.8 0 1.71962e+06 30277.3 0 1.71021e+06 35560 0 1.69945e+06 40417.3 0 1.68745e+06 44861.5 0 1.67433e+06 48906.9 0 1.66019e+06 52569.4 0 1.64514e+06 55866.3 0 1.62926e+06 58815.7 0 1.61266e+06 61436 0 1.59542e+06 63746.1 0 1.57761e+06 65764.6 0 1.55933e+06 67510.2 0 1.54063e+06 69000.8 0 1.52158e+06 70254.2 0 1.50224e+06 71287.2 0 1.48268e+06 72116.1 0 1.46293e+06 72756.5 0 1.44306e+06 73223.1 0 1.42309e+06 73529.7 0 1.40308e+06 73689.6 0 1.38307e+06 73715 0 1.36307e+06 73617.5 0 1.34313e+06 73407.9 0 1.32327e+06 73096.3 0 1.30352e+06 72691.9 0 1.2839e+06 72203.5 0 1.26443e+06 71639.2 0 1.24513e+06 71006.3 0 1.22602e+06 70311.7 0 1.20711e+06 69561.9 0 1.18842e+06 68762.5 0 1.16995e+06 67919.1 0 1.15172e+06 67036.6 0 1.13375e+06 66119.5 0 1.11602e+06 65171.9 0 1.09856e+06 64197.7 0 1.08137e+06 63200.4 0 1.06446e+06 62183.2 0 1.04783e+06 61148.9 0 1.03148e+06 60100.3 0 1.01541e+06 59039.8 0 999639 57969.5 0 984157 56891.4 0 968968 55807.5 0 954075 54719.3 0 939476 53628.3 0 925174 52535.9 0 911167 51443.2 0 897455 50351.4 0 884039 49261.4 0 870917 48174.2 0 858089 47090.4 0 845553 46010.7 0 833308 44935.9 0 821352 43866.3 0 809684 42802.5 0 798302 41744.9 0 787205 40693.8 0 776391 39649.5 0 765857 38612.2 0 755602 37582.1 0 745624 36559.5 0 735920 35544.4 0 726489 34536.9 0 717328 33537.1 0 708436 32544.9 0 699810 31560.4 0 691448 30583.6 0 683348 29614.4 0 675508 28652.7 0 667927 27698.5 0 660601 26751.6 0 653529 25811.9 0 646709 24879.4 0 640139 23953.8 0 633818 23034.9 0 627743 22122.7 0 621912 21216.9 0 616325 20317.3 0 610979 19423.8 0 605873 18536.1 0 601004 17654 0 596373 16777.4 0 591976 15905.8 0 587814 15039.3 0 583884 14177.4 0 580185 13320 0 576716 12466.8 0 573477 11617.6 0 570465 10772.1 0 567680 9930.03 0 565122 9091.19 0 562789 8255.29 0 560680 7422.08 0 558795 6591.28 0 557133 5762.65 0 555694 4935.9 0 554478 4110.77 0 553483 3286.99 0 552709 2464.29 0 552157 1642.41 0 551825 821.069 0 551715 0 0 1.20896e+06 -123364 0 1.27834e+06 -99491 0 1.32445e+06 -114185 0 1.36814e+06 -125712 0 1.4109e+06 -130623 0 1.45197e+06 -130708 0 1.49069e+06 -127059 0 1.52676e+06 -121042 0 1.56003e+06 -113362 0 1.59042e+06 -104661 0 1.61792e+06 -95295.4 0 1.64253e+06 -85569 0 1.66427e+06 -75669.1 0 1.68317e+06 -65751.7 0 1.6993e+06 -55925.2 0 1.71272e+06 -46279.3 0 1.7235e+06 -36881.3 0 1.73175e+06 -27787.1 0 1.73756e+06 -19039.6 0 1.74104e+06 -10673.3 0 1.74231e+06 -2714.09 0 1.74149e+06 4819.04 0 1.73869e+06 11913.6 0 1.73406e+06 18562.8 0 1.7277e+06 24764.9 0 1.71975e+06 30522.4 0 1.71033e+06 35841.8 0 1.69955e+06 40732.8 0 1.68754e+06 45207.6 0 1.67441e+06 49280.7 0 1.66025e+06 52968.3 0 1.64519e+06 56287.5 0 1.6293e+06 59256.8 0 1.61269e+06 61894.7 0 1.59544e+06 64220.1 0 1.57763e+06 66252 0 1.55934e+06 68009 0 1.54063e+06 69509.3 0 1.52157e+06 70770.7 0 1.50223e+06 71810.2 0 1.48266e+06 72644.2 0 1.46291e+06 73288.3 0 1.44303e+06 73757.5 0 1.42306e+06 74065.6 0 1.40305e+06 74226 0 1.38303e+06 74250.9 0 1.36303e+06 74152.2 0 1.34309e+06 73940.6 0 1.32323e+06 73626.2 0 1.30347e+06 73218.5 0 1.28385e+06 72726.2 0 1.26438e+06 72157.4 0 1.24508e+06 71519.6 0 1.22597e+06 70819.8 0 1.20706e+06 70064.2 0 1.18837e+06 69258.9 0 1.1699e+06 68409.2 0 1.15167e+06 67520.1 0 1.13369e+06 66596.2 0 1.11597e+06 65641.6 0 1.09851e+06 64660.3 0 1.08132e+06 63655.7 0 1.06441e+06 62631 0 1.04778e+06 61589.2 0 1.03143e+06 60532.9 0 1.01536e+06 59464.6 0 999589 58386.6 0 984108 57300.7 0 968920 56208.9 0 954027 55112.8 0 939429 54014 0 925127 52913.6 0 911121 51813.1 0 897410 50713.4 0 883995 49615.5 0 870874 48520.4 0 858046 47428.8 0 845510 46341.4 0 833266 45258.8 0 821311 44181.5 0 809644 43110.1 0 798263 42044.8 0 787167 40986.1 0 776353 39934.3 0 765820 38889.6 0 755565 37852.1 0 745588 36822.2 0 735885 35799.7 0 726454 34785 0 717294 33778 0 708402 32778.7 0 699777 31787.1 0 691416 30803.3 0 683316 29827.1 0 675477 28858.5 0 667896 27897.4 0 660571 26943.7 0 653499 25997.3 0 646680 25058.1 0 640111 24125.8 0 633790 23200.4 0 627715 22281.6 0 621885 21369.3 0 616298 20463.3 0 610952 19563.3 0 605846 18669.2 0 600978 17780.8 0 596347 16897.9 0 591951 16020.1 0 587789 15147.3 0 583859 14279.2 0 580161 13415.7 0 576692 12556.4 0 573453 11701 0 570442 10849.4 0 567657 10001.4 0 565099 9156.49 0 562766 8314.59 0 560657 7475.39 0 558772 6638.63 0 557111 5804.04 0 555672 4971.35 0 554455 4140.29 0 553460 3310.6 0 552687 2481.99 0 552135 1654.21 0 551803 826.967 0 551693 0 0 1.21265e+06 -123740 0 1.27812e+06 -100768 0 1.32418e+06 -115458 0 1.36805e+06 -126869 0 1.41094e+06 -131772 0 1.45214e+06 -131766 0 1.49092e+06 -128054 0 1.52704e+06 -121950 0 1.56033e+06 -114195 0 1.59074e+06 -105412 0 1.61825e+06 -95969.5 0 1.64285e+06 -86164.5 0 1.66459e+06 -76188.5 0 1.68348e+06 -66196 0 1.6996e+06 -56296.6 0 1.713e+06 -46579.7 0 1.72377e+06 -37113.4 0 1.73201e+06 -27953.4 0 1.7378e+06 -19143.1 0 1.74127e+06 -10717.1 0 1.74252e+06 -2701.38 0 1.74168e+06 4885 0 1.73887e+06 12029.5 0 1.73422e+06 18725.3 0 1.72785e+06 24970.5 0 1.71988e+06 30768 0 1.71044e+06 36124.1 0 1.69965e+06 41048.7 0 1.68763e+06 45554.1 0 1.67448e+06 49655 0 1.66032e+06 53367.5 0 1.64524e+06 56709.1 0 1.62934e+06 59698.2 0 1.61272e+06 62353.7 0 1.59546e+06 64694.5 0 1.57764e+06 66739.7 0 1.55934e+06 68508.1 0 1.54063e+06 70018 0 1.52157e+06 71287.4 0 1.50222e+06 72333.3 0 1.48264e+06 73172.4 0 1.46289e+06 73820.3 0 1.44301e+06 74292 0 1.42303e+06 74601.6 0 1.40302e+06 74762.4 0 1.38299e+06 74787 0 1.36299e+06 74686.9 0 1.34304e+06 74473.3 0 1.32318e+06 74156.2 0 1.30343e+06 73745.1 0 1.2838e+06 73248.9 0 1.26433e+06 72675.7 0 1.24503e+06 72033 0 1.22592e+06 71327.8 0 1.20701e+06 70566.6 0 1.18831e+06 69755.3 0 1.16985e+06 68899.3 0 1.15162e+06 68003.6 0 1.13364e+06 67072.9 0 1.11592e+06 66111.4 0 1.09846e+06 65122.9 0 1.08127e+06 64110.9 0 1.06436e+06 63078.8 0 1.04772e+06 62029.4 0 1.03137e+06 60965.5 0 1.01531e+06 59889.5 0 999540 58803.7 0 984059 57710 0 968872 56610.4 0 953979 55506.4 0 939382 54399.6 0 925081 53291.4 0 911075 52182.9 0 897365 51075.3 0 883950 49969.6 0 870830 48866.7 0 858003 47767.2 0 845468 46672 0 833224 45581.7 0 821270 44496.7 0 809603 43417.6 0 798223 42344.8 0 787128 41278.5 0 776315 40219.2 0 765782 39167 0 755529 38122.1 0 745552 37084.8 0 735849 36055.1 0 726419 35033.1 0 717260 34018.9 0 708369 33012.4 0 699744 32013.8 0 691383 31022.9 0 683285 30039.8 0 675446 29064.3 0 667865 28096.4 0 660540 27135.9 0 653469 26182.7 0 646651 25236.8 0 640082 24297.8 0 633761 23365.8 0 627687 22440.5 0 621858 21521.7 0 616271 20609.2 0 610926 19702.8 0 605820 18802.4 0 600953 17907.6 0 596322 17018.4 0 591926 16134.3 0 587764 15255.3 0 583834 14381.1 0 580136 13511.3 0 576668 12645.9 0 573429 11784.5 0 570418 10926.8 0 567634 10072.7 0 565076 9221.78 0 562743 8373.88 0 560634 7528.69 0 558750 6685.97 0 557088 5845.42 0 555650 5006.8 0 554433 4169.82 0 55