<?xml version="1.0"?> 
<VTKFile type="StructuredGrid" version="0.1"> 
<StructuredGrid WholeExtent="0 127 0 127 0 0"> 
<Piece Extent="0 127 0 127 0 0"> 
<PointData>
<DataArray type="Float32" Name="|E|" format="ascii" NumberOfComponents="3"> 
6.91414e-06 1.40575e+07 0 9.12333e-07 8.74184e+06 0 -1.2099e-06 6.8486e+06 0 1.10406e-06 5.88714e+06 0 -9.76915e-07 5.2673e+06 0 4.05381e-07 4.8174e+06 0 -2.5726e-07 4.46726e+06 0 3.93298e-07 4.18237e+06 0 -7.07438e-07 3.94302e+06 0 9.46005e-07 3.73697e+06 0 -3.928e-07 3.55631e+06 0 -5.50062e-08 3.39545e+06 0 2.96699e-07 3.25047e+06 0 -7.34639e-07 3.11844e+06 0 1.06025e-06 2.99715e+06 0 -1.11014e-06 2.88488e+06 0 7.92817e-07 2.78027e+06 0 -5.2026e-07 2.68224e+06 0 3.71016e-07 2.5899e+06 0 -7.53207e-08 2.50254e+06 0 -1.40863e-08 2.41954e+06 0 -5.30272e-08 2.34041e+06 0 -2.00467e-07 2.26471e+06 0 2.72761e-07 2.19208e+06 0 -4.19095e-08 2.12221e+06 0 1.58674e-07 2.05482e+06 0 -3.30503e-07 1.98969e+06 0 -2.12924e-07 1.92661e+06 0 5.83823e-07 1.8654e+06 0 -2.91271e-07 1.8059e+06 0 3.28291e-08 1.748e+06 0 -2.69618e-07 1.69155e+06 0 3.83705e-07 1.63646e+06 0 -2.61236e-07 1.58264e+06 0 3.40864e-07 1.53001e+06 0 -5.72996e-07 1.4785e+06 0 3.49013e-07 1.42804e+06 0 -3.07336e-07 1.3786e+06 0 3.241e-07 1.33011e+06 0 -3.07802e-07 1.28255e+06 0 3.97209e-07 1.23589e+06 0 -3.28291e-07 1.19009e+06 0 1.42492e-07 1.14515e+06 0 -3.72529e-09 1.10104e+06 0 9.91859e-08 1.05777e+06 0 -2.56114e-08 1.01532e+06 0 -7.91624e-08 973688 0 -4.00469e-08 932886 0 1.44355e-07 892917 0 -2.42144e-07 853791 0 3.53903e-07 815520 0 -2.75671e-07 778118 0 1.21072e-07 741602 0 8.3819e-09 705988 0 -8.10251e-08 671296 0 2.51457e-08 637545 0 1.8999e-07 604753 0 -3.3062e-07 572939 0 1.87196e-07 542122 0 2.23517e-08 512316 0 -7.26432e-08 483537 0 1.65775e-07 455796 0 -5.58794e-08 429104 0 -1.60187e-07 403467 0 1.22935e-07 378888 0 -7.26432e-08 355368 0 1.50874e-07 332904 0 -1.99303e-07 311487 0 4.65661e-08 291109 0 1.93715e-07 271753 0 -2.6077e-07 253405 0 1.56462e-07 236041 0 -9.31323e-08 219640 0 4.28408e-08 204174 0 -3.72529e-08 189615 0 5.96046e-08 175932 0 -7.82311e-08 163094 0 4.09782e-08 151066 0 -4.84288e-08 139814 0 4.84288e-08 129303 0 -1.37836e-07 119497 0 3.72529e-09 110361 0 -1.86265e-08 101858 0 7.07805e-08 93954.9 0 -4.09782e-08 86616.5 0 -5.21541e-08 79809.6 0 2.98023e-08 73501.8 0 -9.68575e-08 67661.7 0 1.93715e-07 62259.2 0 -2.04891e-07 57265.5 0 1.45286e-07 52653 0 6.33299e-08 48395.6 0 -3.8743e-07 44468.4 0 6.74278e-07 40848 0 -7.00355e-07 37512.2 0 4.54485e-07 34440.3 0 1.78814e-07 31612.7 0 -8.27014e-07 29011.2 0 1.07288e-06 26618.6 0 -9.61125e-07 24419.1 0 7.07805e-07 22397.7 0 -4.09782e-07 20540.6 0 2.23517e-07 18835 0 -7.45058e-08 17269 0 5.21541e-08 15831.6 0 -2.38419e-07 14512.5 0 2.83122e-07 13302.3 0 -2.98023e-08 12192.2 0 -3.27826e-07 11174.3 0 1.71363e-07 10241 0 -2.98023e-07 9385.55 0 4.84288e-07 8601.57 0 -3.94881e-07 7883.47 0 3.50177e-07 7225.57 0 -3.35276e-07 6623.66 0 1.86265e-07 6072.17 0 2.38419e-07 5569.04 0 -4.99189e-07 5107.18 0 7.45058e-07 4689.39 0 -8.34465e-07 4302.38 0 7.45058e-07 3961.95 0 -7.89762e-07 3635.24 0 7.30157e-07 3375.51 0 -8.64267e-07 3090.5 0 9.08971e-07 2952.1 0 -8.9407e-07 2667.51 0 8.04663e-07 2947.63 0 9.05991e-06 6640.32 0 -1.07182e+06 9.58163e+06 0 -431636 7.23396e+06 0 -238950 6.11946e+06 0 -160507 5.43118e+06 0 -119024 4.94338e+06 0 -93844.5 4.56935e+06 0 -76984 4.26817e+06 0 -65108.2 4.01713e+06 0 -56291.3 3.80232e+06 0 -49548.4 3.61489e+06 0 -44240.7 3.44867e+06 0 -39968.2 3.29935e+06 0 -36471.4 3.16376e+06 0 -33560.7 3.03949e+06 0 -31109.7 2.92471e+06 0 -29021 2.81797e+06 0 -27224.6 2.71811e+06 0 -25666.1 2.62419e+06 0 -24303.9 2.53545e+06 0 -23105.2 2.45125e+06 0 -22044 2.37106e+06 0 -21099.2 2.29442e+06 0 -20253.9 2.22096e+06 0 -19493.9 2.15035e+06 0 -18807.6 2.0823e+06 0 -18185.2 2.01658e+06 0 -17618.5 1.95297e+06 0 -17100.2 1.89128e+06 0 -16624.5 1.83136e+06 0 -16186.1 1.77306e+06 0 -15780.4 1.71625e+06 0 -15403.3 1.66084e+06 0 -15051.4 1.60673e+06 0 -14721.5 1.55382e+06 0 -14410.7 1.50205e+06 0 -14116.5 1.45136e+06 0 -13836.5 1.40168e+06 0 -13568.7 1.35298e+06 0 -13311.1 1.30521e+06 0 -13061.9 1.25834e+06 0 -12819.5 1.21234e+06 0 -12582.3 1.1672e+06 0 -12348.9 1.12289e+06 0 -12118 1.07941e+06 0 -11888.4 1.03674e+06 0 -11659 994891 0 -11428.6 953857 0 -11196.5 913645 0 -10961.8 874263 0 -10723.7 835720 0 -10481.7 798030 0 -10235.1 761209 0 -9983.71 725273 0 -9727.17 690239 0 -9465.34 656126 0 -9198.23 622954 0 -8925.94 590740 0 -8648.73 559504 0 -8366.96 529260 0 -8081.15 500026 0 -7791.89 471814 0 -7499.89 444635 0 -7205.96 418498 0 -6910.96 393408 0 -6615.84 369368 0 -6321.57 346375 0 -6029.12 324425 0 -5739.5 303510 0 -5453.67 283619 0 -5172.58 264735 0 -4897.11 246840 0 -4628.09 229914 0 -4366.26 213932 0 -4112.29 198866 0 -3866.74 184689 0 -3630.08 171368 0 -3402.71 158873 0 -3184.89 147168 0 -2976.84 136221 0 -2778.64 125996 0 -2590.33 116458 0 -2411.85 107571 0 -2243.09 99301.8 0 -2083.88 91615.2 0 -1933.99 84477.9 0 -1793.16 77857.2 0 -1661.07 71721.5 0 -1537.42 66040.1 0 -1421.84 60783.7 0 -1313.98 55924.3 0 -1213.46 51435.1 0 -1119.92 47290.7 0 -1032.96 43467 0 -952.226 39941.1 0 -877.347 36691.6 0 -807.969 33698.4 0 -743.745 30942.6 0 -684.343 28406.3 0 -629.443 26073 0 -578.741 23927.3 0 -531.947 21954.8 0 -488.785 20142 0 -448.996 18476.6 0 -412.334 16946.9 0 -378.57 15542.4 0 -347.485 14253 0 -318.88 13069.6 0 -292.561 11983.7 0 -268.358 10987.6 0 -246.094 10074 0 -225.634 9236.31 0 -206.803 8468.35 0 -189.519 7764.56 0 -173.568 7119.74 0 -158.976 6529.23 0 -145.395 5988.66 0 -133.092 5494.15 0 -121.358 5042.22 0 -111.021 4629.5 0 -100.499 4253.98 0 -91.8348 3911.82 0 -81.523 3604.97 0 -73.9063 3325.97 0 -61.4981 3090.06 0 -51.1073 2876.86 0 -23.4709 2760.29 0 56.8162 2716.56 0 1312.59 2560.47 0 -1.042e+06 7.53738e+06 0 -544657 6.33199e+06 0 -354331 5.58695e+06 0 -257657 5.0647e+06 0 -200538 4.6685e+06 0 -163003 4.35177e+06 0 -136852 4.08955e+06 0 -117684 3.86628e+06 0 -103111 3.67228e+06 0 -91730.3 3.50085e+06 0 -82612.1 3.34731e+06 0 -75183 3.20824e+06 0 -69024.1 3.08107e+06 0 -63853.1 2.96385e+06 0 -59460.1 2.85502e+06 0 -55690.2 2.75337e+06 0 -52427.3 2.6579e+06 0 -49580.5 2.56781e+06 0 -47079.9 2.48243e+06 0 -44869.5 2.40119e+06 0 -42904.6 2.32364e+06 0 -41148.9 2.24937e+06 0 -39572.4 2.17803e+06 0 -38150.5 2.10934e+06 0 -36862.6 2.04304e+06 0 -35691.1 1.97891e+06 0 -34621.3 1.91675e+06 0 -33640.5 1.85641e+06 0 -32737.7 1.79773e+06 0 -31903.3 1.74058e+06 0 -31129.1 1.68485e+06 0 -30407.6 1.63044e+06 0 -29732.3 1.57727e+06 0 -29097.4 1.52525e+06 0 -28497.5 1.47432e+06 0 -27927.9 1.42443e+06 0 -27384.2 1.37552e+06 0 -26862.5 1.32755e+06 0 -26359.1 1.28048e+06 0 -25870.6 1.23429e+06 0 -25393.9 1.18896e+06 0 -24926.1 1.14446e+06 0 -24464.4 1.10078e+06 0 -24006.5 1.05791e+06 0 -23550 1.01585e+06 0 -23092.8 974597 0 -22632.9 934155 0 -22168.6 894530 0 -21698.4 855731 0 -21220.9 817769 0 -20735.1 780659 0 -20240 744417 0 -19734.9 709059 0 -19219.5 674603 0 -18693.6 641069 0 -18157.3 608474 0 -17610.9 576836 0 -17055 546174 0 -16490.5 516503 0 -15918.4 487837 0 -15340.1 460190 0 -14757 433570 0 -14170.8 407985 0 -13583.2 383438 0 -12996.1 359932 0 -12411.5 337462 0 -11831.3 316023 0 -11257.4 295605 0 -10691.8 276196 0 -10136.2 257779 0 -9592.47 240334 0 -9062.04 223841 0 -8546.36 208273 0 -8046.68 193603 0 -7564.05 179802 0 -7099.35 166840 0 -6653.25 154683 0 -6226.25 143299 0 -5818.67 132653 0 -5430.67 122710 0 -5062.23 113436 0 -4713.23 104797 0 -4383.39 96758.5 0 -4072.33 89286.3 0 -3779.59 82347.9 0 -3504.61 75911.5 0 -3246.79 69946.1 0 -3005.46 64421.9 0 -2779.93 59310.4 0 -2569.48 54584.2 0 -2373.37 50217.3 0 -2190.85 46185.1 0 -2021.2 42464 0 -1863.68 39032.1 0 -1717.57 35868.5 0 -1582.17 32953.6 0 -1456.82 30269.2 0 -1340.86 27797.9 0 -1233.67 25523.7 0 -1134.66 23431.8 0 -1043.25 21508.1 0 -958.923 19739.6 0 -881.161 18114.3 0 -809.492 16621 0 -743.466 15249.4 0 -682.664 13989.8 0 -626.69 12833.3 0 -575.179 11771.8 0 -527.781 10797.6 0 -484.183 9903.86 0 -444.073 9084.02 0 -407.189 8332.18 0 -373.243 7642.9 0 -342.027 7011.16 0 -313.258 6432.42 0 -286.774 5902.43 0 -262.301 5417.54 0 -239.66 4974.03 0 -218.661 4569.43 0 -198.83 4200.14 0 -180.433 3865.76 0 -161.665 3561.97 0 -144.367 3293.09 0 -121.723 3053.18 0 -98.2205 2860.21 0 -42.8245 2712.37 0 122.339 2685.92 0 806.207 2276.18 0 -918691 6.49322e+06 0 -583834 5.72425e+06 0 -417420 5.1771e+06 0 -320818 4.76217e+06 0 -258573 4.4318e+06 0 -215548 4.15928e+06 0 -184390 3.9282e+06 0 -160843 3.72801e+06 0 -142574 3.55165e+06 0 -128014 3.39407e+06 0 -116195 3.25168e+06 0 -106438 3.12172e+06 0 -98267.8 3.00214e+06 0 -91347.2 2.8913e+06 0 -85421.6 2.78791e+06 0 -80303.6 2.69094e+06 0 -75846.7 2.59954e+06 0 -71938.3 2.51301e+06 0 -68488.8 2.43077e+06 0 -65426.6 2.35232e+06 0 -62693.9 2.27726e+06 0 -60243.2 2.20522e+06 0 -58035.4 2.1359e+06 0 -56037.8 2.06904e+06 0 -54222.9 2.0044e+06 0 -52567.4 1.94179e+06 0 -51051.4 1.88104e+06 0 -49657.6 1.82199e+06 0 -48371.2 1.7645e+06 0 -47179 1.70847e+06 0 -46069.8 1.65378e+06 0 -45033.1 1.60034e+06 0 -44060.1 1.54809e+06 0 -43142.5 1.49693e+06 0 -42273 1.44683e+06 0 -41444.8 1.39772e+06 0 -40651.9 1.34956e+06 0 -39888.6 1.30231e+06 0 -39149.8 1.25593e+06 0 -38430.6 1.21042e+06 0 -37726.7 1.16573e+06 0 -37033.8 1.12187e+06 0 -36348.1 1.07881e+06 0 -35666.2 1.03655e+06 0 -34984.8 995092 0 -34300.7 954433 0 -33611.5 914580 0 -32914.5 875539 0 -32207.7 837321 0 -31489.3 799939 0 -30757.7 763407 0 -30011.8 727742 0 -29250.8 692960 0 -28474.2 659081 0 -27682 626123 0 -26874.5 594103 0 -26052.4 563040 0 -25216.6 532950 0 -24368.7 503849 0 -23510.3 475750 0 -22643.5 448664 0 -21770.6 422600 0 -20894.1 397563 0 -20016.7 373557 0 -19141.2 350580 0 -18270.6 328629 0 -17407.6 307697 0 -16555.2 287772 0 -15716.1 268841 0 -14892.9 250886 0 -14088.2 233887 0 -13304.2 217822 0 -12542.8 202664 0 -11805.7 188386 0 -11094.6 174958 0 -10410.4 162349 0 -9754.22 150527 0 -9126.62 139459 0 -8528 129110 0 -7958.49 119447 0 -7418.03 110435 0 -6906.34 102041 0 -6422.96 94229.6 0 -5967.29 86969.5 0 -5538.6 80227.9 0 -5136.04 73973.8 0 -4758.69 68177 0 -4405.54 62808.5 0 -4075.56 57840.4 0 -3767.66 53246.2 0 -3480.76 49000.6 0 -3213.76 45079.7 0 -2965.57 41460.6 0 -2735.11 38122 0 -2521.33 35043.7 0 -2323.21 32206.7 0 -2139.75 29593.2 0 -1970.02 27186.7 0 -1813.09 24971.5 0 -1668.09 22933.1 0 -1534.21 21058.1 0 -1410.67 19333.8 0 -1296.71 17748.6 0 -1191.66 16291.7 0 -1094.84 14953 0 -1005.66 13723.3 0 -923.538 12593.8 0 -847.932 11556.7 0 -778.344 10604.6 0 -714.305 9730.74 0 -655.376 8928.88 0 -601.153 8193.27 0 -551.244 7518.62 0 -505.307 6900.08 0 -462.969 6333.21 0 -423.965 5813.97 0 -387.876 5338.63 0 -354.549 4903.95 0 -323.385 4506.94 0 -294.391 4145.07 0 -266.504 3816.44 0 -239.748 3519.2 0 -211.902 3254.07 0 -181.244 3020.04 0 -140.175 2826.71 0 -65.5095 2675.88 0 139.845 2577.13 0 535.982 2106.51 0 -847853 5.829e+06 0 -598280 5.2751e+06 0 -455100 4.84777e+06 0 -363868 4.50647e+06 0 -301420 4.22535e+06 0 -256514 3.98731e+06 0 -222851 3.78157e+06 0 -196838 3.60066e+06 0 -176228 3.43936e+06 0 -159550 3.29383e+06 0 -145833 3.16125e+06 0 -134380 3.03943e+06 0 -124702 2.92667e+06 0 -116436 2.82163e+06 0 -109309 2.72322e+06 0 -103114 2.63057e+06 0 -97690.2 2.54294e+06 0 -92910 2.45972e+06 0 -88672.2 2.38042e+06 0 -84895.1 2.30459e+06 0 -81511.6 2.23187e+06 0 -78466.9 2.16195e+06 0 -75714.9 2.09454e+06 0 -73217.3 2.02942e+06 0 -70941.5 1.96637e+06 0 -68859.7 1.90522e+06 0 -66947.9 1.84581e+06 0 -65185.4 1.788e+06 0 -63554.2 1.73167e+06 0 -62038.5 1.67671e+06 0 -60624.1 1.62303e+06 0 -59298.6 1.57054e+06 0 -58050.8 1.51917e+06 0 -56870.6 1.46887e+06 0 -55748.8 1.41957e+06 0 -54677 1.37122e+06 0 -53647.7 1.32379e+06 0 -52653.6 1.27725e+06 0 -51688.4 1.23156e+06 0 -50746 1.1867e+06 0 -49820.7 1.14266e+06 0 -48907.3 1.09942e+06 0 -48001 1.05698e+06 0 -47097.4 1.01533e+06 0 -46192.2 974468 0 -45281.9 934400 0 -44362.9 895132 0 -43432.2 856672 0 -42487.4 819033 0 -41526.1 782228 0 -40546.7 746272 0 -39547.7 711182 0 -38528.4 676976 0 -37488.4 643672 0 -36427.9 611288 0 -35347.4 579843 0 -34248.1 549352 0 -33131.5 519833 0 -31999.8 491300 0 -30855.4 463764 0 -29701.1 437237 0 -28540 411726 0 -27375.7 387235 0 -26211.6 363765 0 -25051.7 341315 0 -23899.6 319879 0 -22759.2 299449 0 -21634.2 280013 0 -20528.3 261555 0 -19444.7 244058 0 -18386.6 227500 0 -17356.9 211859 0 -16358 197106 0 -15392 183215 0 -14460.9 170156 0 -13565.9 157897 0 -12708.3 146406 0 -11888.6 135651 0 -11107.3 125596 0 -10364.5 116209 0 -9660.04 107455 0 -8993.38 99302.5 0 -8363.89 91716.8 0 -7770.72 84666.2 0 -7212.85 78119.3 0 -6689.14 72045.5 0 -6198.32 66415.5 0 -5739.08 61201 0 -5310.02 56375 0 -4909.71 51911.6 0 -4536.72 47786.2 0 -4189.6 43975.5 0 -3866.93 40457.6 0 -3567.29 37211.6 0 -3289.32 34217.9 0 -3031.67 31458.3 0 -2793.07 28915.5 0 -2572.27 26573.3 0 -2368.09 24416.8 0 -2179.4 22431.8 0 -2005.13 20605.3 0 -1844.28 18925.1 0 -1695.87 17380 0 -1559.01 15959.5 0 -1432.86 14653.7 0 -1316.61 13453.8 0 -1209.53 12351.4 0 -1110.91 11338.7 0 -1020.11 10408.7 0 -936.525 9554.89 0 -859.578 8771.1 0 -788.742 8051.81 0 -723.523 7391.89 0 -663.452 6786.64 0 -608.086 6231.75 0 -557.008 5723.31 0 -509.78 5257.7 0 -466.041 4831.8 0 -425.225 4442.63 0 -387.043 4087.92 0 -350.418 3765.44 0 -315.06 3474.1 0 -278.082 3213.1 0 -237.725 2983.44 0 -182.463 2788.44 0 -89.8834 2628.51 0 115.814 2463.42 0 343.402 2049.01 0 -798058 5.35252e+06 0 -602907 4.92184e+06 0 -478843 4.57383e+06 0 -394415 4.28642e+06 0 -334100 4.04283e+06 0 -289135 3.83236e+06 0 -254555 3.64748e+06 0 -227264 3.48281e+06 0 -205265 3.33446e+06 0 -187222 3.19945e+06 0 -172200 3.07556e+06 0 -159535 2.96101e+06 0 -148740 2.85441e+06 0 -139450 2.75465e+06 0 -131388 2.66081e+06 0 -124340 2.57213e+06 0 -118137 2.48799e+06 0 -112645 2.40787e+06 0 -107756 2.33131e+06 0 -103380 2.25795e+06 0 -99447.2 2.18744e+06 0 -95895.9 2.11951e+06 0 -92676.1 2.05392e+06 0 -89745 1.99046e+06 0 -87066.4 1.92893e+06 0 -84609.3 1.86917e+06 0 -82346.6 1.81105e+06 0 -80254.9 1.75444e+06 0 -78313.6 1.69922e+06 0 -76504.7 1.6453e+06 0 -74812.1 1.5926e+06 0 -73221.1 1.54103e+06 0 -71719.1 1.49053e+06 0 -70294 1.44105e+06 0 -68935.3 1.39253e+06 0 -67633.2 1.34493e+06 0 -66378.6 1.29823e+06 0 -65163.3 1.25238e+06 0 -63979.5 1.20736e+06 0 -62820 1.16315e+06 0 -61678.2 1.11975e+06 0 -60548 1.07713e+06 0 -59423.6 1.0353e+06 0 -58299.8 994247 0 -57171.6 953978 0 -56034.8 914496 0 -54885.3 875810 0 -53719.7 837930 0 -52535 800867 0 -51328.8 764637 0 -50099.2 729255 0 -48844.8 694739 0 -47564.9 661107 0 -46259.3 628376 0 -44928.4 596565 0 -43573.3 565692 0 -42195.7 535772 0 -40797.7 506821 0 -39382.2 478854 0 -37952.3 451880 0 -36511.8 425909 0 -35064.6 400947 0 -33615.2 376998 0 -32168.1 354062 0 -30728 332135 0 -29299.6 311210 0 -27887.5 291279 0 -26496.3 272327 0 -25130.3 254339 0 -23793.7 237296 0 -22490 221175 0 -21222.6 205952 0 -19994.5 191601 0 -18808.2 178093 0 -17665.7 165399 0 -16568.6 153486 0 -15518 142322 0 -14514.8 131875 0 -13559.2 122111 0 -12651.3 112996 0 -11790.6 104499 0 -10976.5 96584.3 0 -10208.2 89221.3 0 -9484.55 82377.8 0 -8804.14 76023.2 0 -8165.56 70127.8 0 -7567.24 64662.8 0 -7007.49 59600.7 0 -6484.6 54915.2 0 -5996.79 50581.2 0 -5542.29 46574.9 0 -5119.33 42873.5 0 -4726.13 39455.8 0 -4360.99 36301.7 0 -4022.21 33392.1 0 -3708.17 30709.3 0 -3417.3 28236.6 0 -3148.08 25958.5 0 -2899.08 23860.2 0 -2668.93 21928.4 0 -2456.32 20150.3 0 -2260.02 18514.1 0 -2078.86 17008.9 0 -1911.76 15624.6 0 -1757.68 14351.8 0 -1615.65 13181.7 0 -1484.78 12106.3 0 -1364.22 11118.1 0 -1253.17 10210.3 0 -1150.9 9376.55 0 -1056.73 8610.9 0 -969.994 7908 0 -890.107 7262.88 0 -816.487 6671 0 -748.608 6128.17 0 -685.935 5630.6 0 -627.981 5174.81 0 -574.206 4757.72 0 -524.079 4376.48 0 -476.959 4028.87 0 -431.956 3712.65 0 -388.011 3426.85 0 -342.562 3169.99 0 -292.187 2943.45 0 -225.358 2745.65 0 -119.918 2572.99 0 65.682 2360.26 0 216.094 1973.75 0 -762829 4.98047e+06 0 -602924 4.63177e+06 0 -494274 4.34129e+06 0 -417001 4.09384e+06 0 -359636 3.87975e+06 0 -315678 3.69162e+06 0 -281107 3.5241e+06 0 -253323 3.37327e+06 0 -230597 3.23611e+06 0 -211721 3.11035e+06 0 -195841 2.99416e+06 0 -182330 2.88614e+06 0 -170724 2.78512e+06 0 -160668 2.69017e+06 0 -151888 2.60052e+06 0 -144170 2.51551e+06 0 -137345 2.43462e+06 0 -131275 2.35738e+06 0 -125849 2.2834e+06 0 -120976 2.21234e+06 0 -116581 2.14392e+06 0 -112599 2.07789e+06 0 -108978 2.01402e+06 0 -105671 1.95213e+06 0 -102641 1.89206e+06 0 -99854.1 1.83364e+06 0 -97280.3 1.77676e+06 0 -94894.4 1.7213e+06 0 -92674 1.66715e+06 0 -90599.1 1.61424e+06 0 -88651.9 1.56248e+06 0 -86816.5 1.5118e+06 0 -85078.3 1.46215e+06 0 -83424.2 1.41347e+06 0 -81842.2 1.36572e+06 0 -80321.3 1.31886e+06 0 -78851.3 1.27285e+06 0 -77422.7 1.22769e+06 0 -76026.8 1.18333e+06 0 -74655.5 1.13977e+06 0 -73301.2 1.09699e+06 0 -71957 1.05499e+06 0 -70616.2 1.01376e+06 0 -69273 973302 0 -67921.9 933621 0 -66557.9 894722 0 -65176.7 856615 0 -63774.5 819310 0 -62348 782822 0 -60894.6 747165 0 -59412.4 712356 0 -57900.1 678412 0 -56357.3 645352 0 -54783.9 613193 0 -53180.9 581953 0 -51549.8 551650 0 -49893 522300 0 -48213.3 493916 0 -46514.2 466511 0 -44799.9 440097 0 -43074.8 414680 0 -41344.1 390265 0 -39612.8 366856 0 -37886.6 344449 0 -36171 323041 0 -34471.6 302624 0 -32793.9 283187 0 -31143.1 264716 0 -29524.2 247194 0 -27942 230600 0 -26400.6 214912 0 -24903.9 200104 0 -23455.1 186150 0 -22057 173021 0 -20711.7 160687 0 -19421.1 149116 0 -18186.2 138275 0 -17007.8 128133 0 -15886.1 118656 0 -14821 109811 0 -13812 101566 0 -12858 93887.6 0 -11958.1 86744.4 0 -11110.7 80105.7 0 -10314.3 73941.2 0 -9567 68222 0 -8866.97 62920.1 0 -8212.19 58008.7 0 -7600.6 53462.2 0 -7030.08 49256.3 0 -6498.55 45367.7 0 -6003.89 41774.6 0 -5544.04 38456.3 0 -5116.96 35393.1 0 -4720.69 32566.9 0 -4353.31 29960.3 0 -4012.97 27557.3 0 -3697.93 25342.7 0 -3406.49 23302.5 0 -3137.05 21423.5 0 -2888.08 19693.4 0 -2658.16 18101 0 -2445.92 16635.7 0 -2250.09 15287.5 0 -2069.47 14047.5 0 -1902.92 12907.2 0 -1749.41 11858.9 0 -1607.94 10895.2 0 -1477.59 10009.6 0 -1357.5 9195.93 0 -1246.87 8448.46 0 -1144.95 7762 0 -1051.03 7131.76 0 -964.435 6553.3 0 -884.552 6022.61 0 -810.76 5535.97 0 -742.476 5090.05 0 -679.068 4681.81 0 -619.923 4308.57 0 -564.219 3967.99 0 -511.043 3658.1 0 -458.853 3377.46 0 -405.227 3124.87 0 -345.454 2899.9 0 -269.194 2699.57 0 -157.164 2511.37 0 2.61127 2275 0 102.484 1933.03 0 -735017 4.67841e+06 0 -600397 4.38857e+06 0 -504927 4.13941e+06 0 -434169 3.92307e+06 0 -380097 3.73261e+06 0 -337679 3.56286e+06 0 -303674 3.40999e+06 0 -275920 3.271e+06 0 -252917 3.14361e+06 0 -233600 3.02599e+06 0 -217193 2.91668e+06 0 -203120 2.81453e+06 0 -190943 2.71857e+06 0 -180325 2.62802e+06 0 -171002 2.54222e+06 0 -162766 2.46061e+06 0 -155449 2.38273e+06 0 -148915 2.30818e+06 0 -143051 2.23661e+06 0 -137767 2.16773e+06 0 -132984 2.10128e+06 0 -128637 2.03704e+06 0 -124673 1.97481e+06 0 -121043 1.91443e+06 0 -117706 1.85574e+06 0 -114629 1.7986e+06 0 -111779 1.74291e+06 0 -109130 1.68855e+06 0 -106658 1.63545e+06 0 -104341 1.58351e+06 0 -102160 1.53266e+06 0 -100099 1.48285e+06 0 -98140.7 1.43402e+06 0 -96271.4 1.38612e+06 0 -94478 1.33912e+06 0 -92748.3 1.29298e+06 0 -91071.1 1.24767e+06 0 -89436.2 1.20318e+06 0 -87833.7 1.15947e+06 0 -86254.7 1.11654e+06 0 -84691 1.07438e+06 0 -83134.6 1.03299e+06 0 -81578.6 992358 0 -80016.2 952492 0 -78441.6 913395 0 -76849.4 875076 0 -75234.9 837545 0 -73594 800814 0 -71923.4 764897 0 -70220.4 729811 0 -68483.2 695573 0 -66710.6 662200 0 -64902.6 629711 0 -63059.5 598122 0 -61182.7 567453 0 -59274.5 537718 0 -57337.8 508935 0 -55376.3 481116 0 -53394.4 454273 0 -51397 428416 0 -49389.5 403550 0 -47378 379680 0 -45368.6 356807 0 -43367.7 334927 0 -41381.6 314035 0 -39417 294123 0 -37479.9 275177 0 -35576.3 257182 0 -33712 240121 0 -31892 223972 0 -30121.1 208712 0 -28403.4 194316 0 -26742.4 180755 0 -25141 168001 0 -23601.7 156022 0 -22126.1 144789 0 -20715.4 134268 0 -19370.2 124427 0 -18090.7 115234 0 -16876.3 106655 0 -15726.5 98659.2 0 -14640.1 91213.6 0 -13615.5 84287.7 0 -12651.2 77851 0 -11745.1 71874.3 0 -10895.1 66329.2 0 -10099.1 61188.5 0 -9354.59 56426 0 -8659.3 52017 0 -8010.76 47937.7 0 -7406.55 44165.7 0 -6844.26 40679.7 0 -6321.51 37459.7 0 -5835.99 34486.7 0 -5385.44 31743.1 0 -4967.69 29212.1 0 -4580.65 26878.1 0 -4222.29 24726.6 0 -3890.72 22744 0 -3584.12 20917.5 0 -3300.75 19235.3 0 -3038.99 17686.4 0 -2797.29 16260.7 0 -2574.22 14948.6 0 -2368.4 13741.4 0 -2178.58 12630.8 0 -2003.54 11609.4 0 -1842.19 10670.3 0 -1693.46 9806.84 0 -1556.4 9013.25 0 -1430.08 8283.99 0 -1313.65 7614.02 0 -1206.32 6998.68 0 -1107.32 6433.7 0 -1015.94 5915.18 0 -931.491 5439.54 0 -853.288 5003.52 0 -780.628 4604.18 0 -712.781 4238.92 0 -648.836 3905.42 0 -587.722 3601.72 0 -527.696 3326.2 0 -466.176 3077.38 0 -398.074 2853.69 0 -314.301 2649.83 0 -201.246 2449.13 0 -65.7809 2201.86 0 9.64571 1888.49 0 -711822 4.42671e+06 0 -597365 4.17853e+06 0 -512434 3.96168e+06 0 -447613 3.76995e+06 0 -396854 3.5987e+06 0 -356227 3.44432e+06 0 -323129 3.30389e+06 0 -295740 3.17516e+06 0 -272776 3.05632e+06 0 -253299 2.94591e+06 0 -236614 2.84276e+06 0 -222195 2.74591e+06 0 -209637 2.65456e+06 0 -198621 2.56803e+06 0 -188899 2.48578e+06 0 -180270 2.40731e+06 0 -172569 2.33224e+06 0 -165666 2.2602e+06 0 -159448 2.19089e+06 0 -153826 2.12406e+06 0 -148720 2.05948e+06 0 -144067 1.99694e+06 0 -139809 1.93627e+06 0 -135900 1.87732e+06 0 -132297 1.81995e+06 0 -128964 1.76405e+06 0 -125870 1.70949e+06 0 -122985 1.65621e+06 0 -120285 1.6041e+06 0 -117748 1.5531e+06 0 -115353 1.50314e+06 0 -113081 1.45417e+06 0 -110917 1.40614e+06 0 -108845 1.35901e+06 0 -106850 1.31275e+06 0 -104920 1.26731e+06 0 -103043 1.22268e+06 0 -101207 1.17884e+06 0 -99402.7 1.13578e+06 0 -97619.3 1.09348e+06 0 -95848.2 1.05193e+06 0 -94081 1.01114e+06 0 -92310 971098 0 -90528.2 931817 0 -88729.1 893301 0 -86907.2 855558 0 -85057.4 818599 0 -83175.6 782439 0 -81258.4 747093 0 -79303.2 712576 0 -77308.4 678907 0 -75273.2 646104 0 -73197.8 614183 0 -71083.1 583164 0 -68931.2 553063 0 -66745 523897 0 -64528.2 495679 0 -62285.2 468423 0 -60021.4 442140 0 -57742.7 416838 0 -55455.4 392521 0 -53166.4 369193 0 -50882.8 346853 0 -48611.8 325497 0 -46360.8 305118 0 -44137 285706 0 -41947.2 267247 0 -39798.1 249726 0 -37695.9 233122 0 -35646.1 217414 0 -33653.9 202578 0 -31723.6 188589 0 -29859 175416 0 -28063.1 163033 0 -26338.4 151407 0 -24686.4 140507 0 -23108.4 130302 0 -21604.7 120759 0 -20175.3 111845 0 -18819.6 103530 0 -17536.6 95779.5 0 -16324.9 88563.9 0 -15182.6 81852.3 0 -14107.9 75615.2 0 -13098.3 69823.9 0 -12151.6 64450.7 0 -11265.1 59469.1 0 -10436.1 54853.8 0 -9662 50580.6 0 -8939.99 46626.4 0 -8267.36 42969.7 0 -7641.38 39589.6 0 -7059.41 36466.9 0 -6518.84 33583.2 0 -6017.16 30921.3 0 -5551.94 28465.2 0 -5120.85 26199.8 0 -4721.65 24110.8 0 -4352.21 22185.3 0 -4010.51 20411 0 -3694.63 18776.3 0 -3402.77 17270.8 0 -3133.21 15884.4 0 -2884.34 14608.2 0 -2654.66 13433.6 0 -2442.76 12352.7 0 -2247.31 11358.2 0 -2067.06 10443.5 0 -1900.87 9602.22 0 -1747.66 8828.72 0 -1606.4 8117.68 0 -1476.15 7464.2 0 -1356.02 6863.8 0 -1245.17 6312.33 0 -1142.8 5806.03 0 -1048.14 5341.4 0 -960.435 4915.32 0 -878.894 4524.92 0 -802.685 4167.64 0 -730.819 3841.19 0 -662.072 3543.62 0 -594.59 3273.05 0 -525.648 3027.77 0 -450.278 2804.88 0 -361.06 2597.79 0 -250.47 2387.59 0 -135.12 2139.56 0 -76.2356 1854.31 0 -693619 4.21045e+06 0 -593977 3.99497e+06 0 -517953 3.80315e+06 0 -458438 3.63125e+06 0 -410851 3.47597e+06 0 -372125 3.33454e+06 0 -340118 3.20481e+06 0 -313313 3.085e+06 0 -290606 2.97369e+06 0 -271174 2.86971e+06 0 -254399 2.7721e+06 0 -239801 2.68005e+06 0 -227009 2.59289e+06 0 -215729 2.51006e+06 0 -205723 2.43108e+06 0 -196803 2.35553e+06 0 -188810 2.28307e+06 0 -181618 2.21338e+06 0 -175118 2.1462e+06 0 -169220 2.0813e+06 0 -163848 2.01847e+06 0 -158937 1.95755e+06 0 -154431 1.89836e+06 0 -150282 1.84078e+06 0 -146447 1.78468e+06 0 -142890 1.72995e+06 0 -139578 1.6765e+06 0 -136482 1.62424e+06 0 -133576 1.5731e+06 0 -130836 1.52301e+06 0 -128243 1.47392e+06 0 -125776 1.42577e+06 0 -123418 1.37852e+06 0 -121153 1.33213e+06 0 -118966 1.28658e+06 0 -116843 1.24183e+06 0 -114772 1.19787e+06 0 -112740 1.15468e+06 0 -110736 1.11225e+06 0 -108751 1.07057e+06 0 -106773 1.02962e+06 0 -104796 989428 0 -102810 949977 0 -100807 911277 0 -98782.4 873336 0 -96728.7 836166 0 -94641.4 799778 0 -92516.2 764186 0 -90349.8 729408 0 -88139.8 695459 0 -85884.9 662358 0 -83584.7 630122 0 -81239.9 598770 0 -78852 568318 0 -76423.8 538785 0 -73959 510185 0 -71462 482532 0 -68938.3 455838 0 -66394.1 430112 0 -63836.2 405363 0 -61271.9 381593 0 -58709.1 358804 0 -56155.8 336995 0 -53620 316160 0 -51109.8 296291 0 -48633.2 277376 0 -46197.6 259400 0 -43810.4 242348 0 -41478.1 226198 0 -39206.7 210927 0 -37001.6 196511 0 -34867.3 182924 0 -32807.8 170136 0 -30826.1 158119 0 -28924.6 146841 0 -27104.9 136272 0 -25367.9 126378 0 -23713.9 117129 0 -22142.7 108492 0 -20653.3 100436 0 -19244.5 92928.3 0 -17914.6 85939.6 0 -16661.4 79439.6 0 -15482.7 73399.4 0 -14375.8 67791 0 -13338.1 62587.5 0 -12366.5 57763.1 0 -11458.2 53293 0 -10610 49153.9 0 -9818.96 45323.5 0 -9082.04 41780.6 0 -8396.23 38505.2 0 -7758.6 35478.7 0 -7166.3 32683.3 0 -6616.54 30102.4 0 -6106.68 27720.4 0 -5634.14 25522.8 0 -5196.48 23495.9 0 -4791.38 21627 0 -4416.6 19904.4 0 -4070.07 18316.9 0 -3749.8 16854.4 0 -3453.92 15507.2 0 -3180.68 14266.7 0 -2928.43 13124.5 0 -2695.63 12073.1 0 -2480.83 11105.5 0 -2282.69 10215.1 0 -2099.92 9395.98 0 -1931.36 8642.56 0 -1775.89 7949.72 0 -1632.49 7312.74 0 -1500.17 6727.28 0 -1378.02 6189.34 0 -1265.16 5695.27 0 -1160.74 5241.69 0 -1063.94 4825.56 0 -973.884 4444.1 0 -889.659 4094.8 0 -810.198 3775.39 0 -734.151 3483.83 0 -659.62 3218.14 0 -583.81 2976.09 0 -502.276 2754.03 0 -409.418 2544.04 0 -303.162 2328.48 0 -203.272 2084.09 0 -152.33 1820.11 0 -678212 4.02227e+06 0 -590737 3.83172e+06 0 -522180 3.66015e+06 0 -467362 3.50465e+06 0 -422777 3.36272e+06 0 -385952 3.23236e+06 0 -355137 3.11188e+06 0 -329054 2.9999e+06 0 -306753 2.89526e+06 0 -287515 2.79703e+06 0 -270788 2.7044e+06 0 -256141 2.61671e+06 0 -243233 2.5334e+06 0 -231793 2.45396e+06 0 -221599 2.37801e+06 0 -212473 2.30517e+06 0 -204264 2.23514e+06 0 -196850 2.16765e+06 0 -190128 2.10247e+06 0 -184009 2.0394e+06 0 -178419 1.97824e+06 0 -173293 1.91884e+06 0 -168577 1.86107e+06 0 -164222 1.8048e+06 0 -160186 1.74991e+06 0 -156431 1.69631e+06 0 -152925 1.64391e+06 0 -149639 1.59264e+06 0 -146545 1.54244e+06 0 -143620 1.49323e+06 0 -140843 1.44497e+06 0 -138193 1.39762e+06 0 -135651 1.35113e+06 0 -133203 1.30547e+06 0 -130830 1.26062e+06 0 -128521 1.21655e+06 0 -126260 1.17325e+06 0 -124035 1.1307e+06 0 -121835 1.08889e+06 0 -119649 1.04781e+06 0 -117466 1.00747e+06 0 -115278 967861 0 -113076 928992 0 -110852 890869 0 -108599 853501 0 -106311 816900 0 -103984 781079 0 -101613 746055 0 -99194.5 711842 0 -96727 678460 0 -94209.5 645925 0 -91642 614255 0 -89025.9 583470 0 -86363.4 553586 0 -83658 524618 0 -80914.2 496583 0 -78137.4 469493 0 -75334.1 443360 0 -72511.3 418191 0 -69676.8 393992 0 -66839 370767 0 -64006.5 348515 0 -61188.2 327234 0 -58393 306917 0 -55629.8 287554 0 -52907.1 269133 0 -50233.1 251638 0 -47615.4 235051 0 -45061.1 219350 0 -42576.4 204512 0 -40166.9 190513 0 -37837.4 177324 0 -35591.7 164916 0 -33432.9 153261 0 -31363.2 142328 0 -29384.3 132084 0 -27496.7 122498 0 -25700.6 113539 0 -23995.3 105175 0 -22379.9 97374.6 0 -20852.6 90106.9 0 -19411.4 83342 0 -18054 77050.8 0 -16777.6 71204.9 0 -15579.4 65777 0 -14456.3 60740.8 0 -13404.9 56071.4 0 -12422.1 51744.7 0 -11504.6 47738 0 -10648.8 44029.6 0 -9851.66 40599.2 0 -9109.76 37427.3 0 -8419.96 34495.9 0 -7779.13 31787.7 0 -7184.28 29286.9 0 -6632.52 26978.2 0 -6121.07 24847.7 0 -5647.28 22882.3 0 -5208.65 21069.6 0 -4802.77 19398.2 0 -4427.39 17857.5 0 -4080.36 16437.7 0 -3759.68 15129.5 0 -3463.45 13924.4 0 -3189.89 12814.5 0 -2937.35 11792.4 0 -2704.26 10851.5 0 -2489.17 9985.42 0 -2290.7 9188.35 0 -2107.59 8454.96 0 -1938.64 7780.29 0 -1782.74 7159.79 0 -1638.82 6589.27 0 -1505.91 6064.87 0 -1383.04 5583.03 0 -1269.32 5140.51 0 -1163.82 4734.34 0 -1065.62 4361.82 0 -973.732 4020.48 0 -887.007 3708.07 0 -804.024 3422.47 0 -722.862 3161.52 0 -640.822 2922.63 0 -554.135 2701.41 0 -459.159 2489.58 0 -357.738 2271.74 0 -269.202 2034.11 0 -223.07 1788.73 0 -665501 3.85526e+06 0 -587753 3.68507e+06 0 -525535 3.53009e+06 0 -474920 3.3882e+06 0 -433118 3.25763e+06 0 -398152 3.1368e+06 0 -368570 3.02439e+06 0 -343290 2.91931e+06 0 -321496 2.82062e+06 0 -302558 2.72755e+06 0 -285984 2.63944e+06 0 -271386 2.55572e+06 0 -258456 2.47592e+06 0 -246940 2.39962e+06 0 -236636 2.32646e+06 0 -227373 2.25615e+06 0 -219011 2.18839e+06 0 -211433 2.12297e+06 0 -204540 2.05967e+06 0 -198246 1.99831e+06 0 -192478 1.93874e+06 0 -187175 1.8808e+06 0 -182282 1.82437e+06 0 -177751 1.76934e+06 0 -173540 1.71561e+06 0 -169612 1.6631e+06 0 -165933 1.61172e+06 0 -162475 1.56141e+06 0 -159210 1.5121e+06 0 -156114 1.46375e+06 0 -153164 1.4163e+06 0 -150341 1.36972e+06 0 -147626 1.32398e+06 0 -145000 1.27903e+06 0 -142449 1.23487e+06 0 -139957 1.19146e+06 0 -137511 1.14881e+06 0 -135096 1.10688e+06 0 -132701 1.06568e+06 0 -130315 1.02521e+06 0 -127927 985458 0 -125527 946434 0 -123108 908142 0 -120660 870592 0 -118177 833793 0 -115653 797758 0 -113082 762503 0 -110462 728043 0 -107789 694395 0 -105061 661577 0 -102279 629607 0 -99442 598504 0 -96552.8 568284 0 -93614.4 538966 0 -90631.2 510564 0 -87608.5 483093 0 -84552.7 456565 0 -81471.2 430990 0 -78372 406376 0 -75264 382727 0 -72156.3 360044 0 -69058.6 338328 0 -65980.6 317572 0 -62932 297770 0 -59922.3 278911 0 -56960.6 260980 0 -54055.7 243961 0 -51215.5 227835 0 -48447.4 212580 0 -45757.9 198172 0 -43152.7 184584 0 -40636.6 171789 0 -38213.5 159758 0 -35886.3 148461 0 -33657.2 137867 0 -31527.4 127945 0 -29497.5 118664 0 -27567.3 109991 0 -25735.8 101896 0 -24001.8 94348 0 -22363.2 87316.6 0 -20817.6 80772.5 0 -19362.5 74687.1 0 -17994.6 69032.7 0 -16710.9 6378