<?xml version="1.0"?> 
<VTKFile type="StructuredGrid" version="0.1"> 
<StructuredGrid WholeExtent="0 15 0 15 0 0"> 
<Piece Extent="0 15 0 15 0 0"> 
<PointData>
<DataArray type="Float32" Name="E" format="ascii" NumberOfComponents="3"> 
0 0 0 0 0 0 0 0 0 0 0 0 0 0 0 0 0 0 0 0 0 0 0 0 0 0 0 0 0 0 0 0 0 0 0 0 0 0 0 0 0 0 0 0 0 0 0 0 0 0 0 0 0 0 0 0 0 0 0 0 0 0 0 0 0 0 0 0 0 0 0 0 0 0 0 0 0 0 0 0 0 0 0 0 0 0 0 0 0 0 0 0 0 0 0 0 0 0 0 0 0 0 0 0 0 0 0 0 0 0 0 0 0 0 0 0 0 0 0 0 0 0 0 0 0 0 0 0 0 0 0 0 0 0 0 0 0 0 0 0 0 0 0 0 0 0 0 0 0 0 0 0 0 0 0 0 0 0 0 0 0 0 0 0 0 0 0 0 0 0 0 0 0 0 0 0 0 0 0 0 0 0 0 0 0 0 0 0 0 0 0 0 0 0 0 0 0 0 0 0 0 0 0 0 0 0 0 0 0 0 0 0 0 0 0 0 0 0 0 0 0 0 0 0 0 0 0 0 0 0 0 0 0 0 0 0 0 0 0 0 0 0 0 0 0 0 0 0 0 0 0 0 0 0 0 0 0 0 0 0 0 0 0 0 0 0 0 0 0 0 0 0 0 0 0 0 0 0 0 0 0 0 0 0 0 0 0 0 0 0 0 0 0 0 0 0 0 0 0 0 0 0 0 0 0 0 0 0 0 0 0 0 0 0 0 0 0 0 0 0 0 0 0 0 0 0 0 0 0 0 0 0 0 0 0 0 0 0 0 0 0 0 0 0 0 0 0 0 0 0 0 0 0 0 0 0 0 0 0 0 0 0 0 0 0 0 0 0 0 0 0 0 0 0 0 0 0 0 0 0 0 0 0 0 0 0 0 0 0 0 0 0 0 0 0 0 0 0 0 0 0 0 0 0 0 0 0 0 0 0 0 0 0 0 0 0 0 0 0 0 0 0 0 0 0 0 0 0 0 0 0 0 0 0 0 0 0 0 0 0 0 0 0 0 0 0 0 0 0 0 0 0 0 0 0 0 0 0 0 0 0 0 0 0 0 0 0 0 0 0 0 0 0 0 0 0 0 0 0 0 0 0 0 0 0 0 0 0 0 0 0 0 0 0 0 0 0 0 0 0 0 0 0 0 0 0 0 0 0 0 0 0 0 0 0 0 0 0 0 0 0 0 0 0 0 0 0 0 0 0 0 0 0 0 0 0 0 0 0 0 0 0 0 0 0 0 0 0 0 0 0 0 0 0 0 0 0 0 0 0 0 0 0 0 0 0 0 0 0 0 0 0 0 0 0 0 0 0 0 0 0 0 0 0 0 0 0 0 0 0 0 0 0 0 0 0 0 0 0 0 0 0 0 0 0 0 0 0 0 0 0 0 0 0 0 0 0 0 0 0 0 0 0 0 0 0 0 0 0 0 0 0 0 0 0 0 0 0 0 0 0 0 0 0 0 0 0 0 0 0 0 0 0 0 0 0 0 0 0 0 0 0 0 0 0 0 0 0 0 0 0 0 0 0 0 0 0 0 0 0 0 0 0 0 0 0 0 0 0 0 0 0 0 0 0 0 0 0 0 0 0 0 0 0 0 0 0 0 0 0 0 0 0 0 0 0 0 0 0 0 0 0 0 0 0 0 0 0 0 0 0 0 0 0 0 0 0 0 0 0 0 0 0 0 0 0 0 0 0 0 0 0 0 0 0 0 0 0 0 0 0 0 0 0 0 0 0 0 </DataArray> 
</PointData> 
<Points> 
<DataArray type="Float32" NumberOfComponents="3"> 
0.006 0.01 0 0.00666667 0.01 0 0.00733333 0.01 0 0.008 0.01 0 0.00866667 0.01 0 0.00933333 0.01 0 0.01 0.01 0 0.0106667 0.01 0 0.0113333 0.01 0 0.012 0.01 0 0.0126667 0.01 0 0.0133333 0.01 0 0.014 0.01 0 0.0146667 0.01 0 0.0153333 0.01 0 0.016 0.01 0 0.006 0.0104 0 0.00666667 0.0104222 0 0.00733333 0.0104444 0 0.008 0.0104667 0 0.00866667 0.0104889 0 0.00933333 0.0105111 0 0.01 0.0105333 0 0.0106667 0.0105556 0 0.0113333 0.0105778 0 0.012 0.0106 0 0.0126667 0.0106222 0 0.0133333 0.0106444 0 0.014 0.0106667 0 0.0146667 0.0106889 0 0.0153333 0.0107111 0 0.016 0.0107333 0 0.006 0.0108 0 0.00666667 0.0108444 0 0.00733333 0.0108889 0 0.008 0.0109333 0 0.00866667 0.0109778 0 0.00933333 0.0110222 0 0.01 0.0110667 0 0.0106667 0.0111111 0 0.0113333 0.0111556 0 0.012 0.0112 0 0.0126667 0.0112444 0 0.0133333 0.0112889 0 0.014 0.0113333 0 0.0146667 0.0113778 0 0.0153333 0.0114222 0 0.016 0.0114667 0 0.006 0.0112 0 0.00666667 0.0112667 0 0.00733333 0.0113333 0 0.008 0.0114 0 0.00866667 0.0114667 0 0.00933333 0.0115333 0 0.01 0.0116 0 0.0106667 0.0116667 0 0.0113333 0.0117333 0 0.012 0.0118 0 0.0126667 0.0118667 0 0.0133333 0.0119333 0 0.014 0.012 0 0.0146667 0.0120667 0 0.0153333 0.0121333 0 0.016 0.0122 0 0.006 0.0116 0 0.00666667 0.0116889 0 0.00733333 0.0117778 0 0.008 0.0118667 0 0.00866667 0.0119556 0 0.00933333 0.0120444 0 0.01 0.0121333 0 0.0106667 0.0122222 0 0.0113333 0.0123111 0 0.012 0.0124 0 0.0126667 0.0124889 0 0.0133333 0.0125778 0 0.014 0.0126667 0 0.0146667 0.0127556 0 0.0153333 0.0128444 0 0.016 0.0129333 0 0.006 0.012 0 0.00666667 0.0121111 0 0.00733333 0.0122222 0 0.008 0.0123333 0 0.00866667 0.0124444 0 0.00933333 0.0125556 0 0.01 0.0126667 0 0.0106667 0.0127778 0 0.0113333 0.0128889 0 0.012 0.013 0 0.0126667 0.0131111 0 0.0133333 0.0132222 0 0.014 0.0133333 0 0.0146667 0.0134444 0 0.0153333 0.0135556 0 0.016 0.0136667 0 0.006 0.0124 0 0.00666667 0.0125333 0 0.00733333 0.0126667 0 0.008 0.0128 0 0.00866667 0.0129333 0 0.00933333 0.0130667 0 0.01 0.0132 0 0.0106667 0.0133333 0 0.0113333 0.0134667 0 0.012 0.0136 0 0.0126667 0.0137333 0 0.0133333 0.0138667 0 0.014 0.014 0 0.0146667 0.0141333 0 0.0153333 0.0142667 0 0.016 0.0144 0 0.006 0.0128 0 0.00666667 0.0129556 0 0.00733333 0.0131111 0 0.008 0.0132667 0 0.00866667 0.0134222 0 0.00933333 0.0135778 0 0.01 0.0137333 0 0.0106667 0.0138889 0 0.0113333 0.0140444 0 0.012 0.0142 0 0.0126667 0.0143556 0 0.0133333 0.0145111 0 0.014 0.0146667 0 0.0146667 0.0148222 0 0.0153333 0.0149778 0 0.016 0.0151333 0 0.006 0.0132 0 0.00666667 0.0133778 0 0.00733333 0.0135556 0 0.008 0.0137333 0 0.00866667 0.0139111 0 0.00933333 0.0140889 0 0.01 0.0142667 0 0.0106667 0.0144444 0 0.0113333 0.0146222 0 0.012 0.0148 0 0.0126667 0.0149778 0 0.0133333 0.0151556 0 0.014 0.0153333 0 0.0146667 0.0155111 0 0.0153333 0.0156889 0 0.016 0.0158667 0 0.006 0.0136 0 0.00666667 0.0138 0 0.00733333 0.014 0 0.008 0.0142 0 0.00866667 0.0144 0 0.00933333 0.0146 0 0.01 0.0148 0 0.0106667 0.015 0 0.0113333 0.0152 0 0.012 0.0154 0 0.0126667 0.0156 0 0.0133333 0.0158 0 0.014 0.016 0 0.0146667 0.0162 0 0.0153333 0.0164 0 0.016 0.0166 0 0.006 0.014 0 0.00666667 0.0142222 0 0.00733333 0.0144444 0 0.008 0.0146667 0 0.00866667 0.0148889 0 0.00933333 0.0151111 0 0.01 0.0153333 0 0.0106667 0.0155556 0 0.0113333 0.0157778 0 0.012 0.016 0 0.0126667 0.0162222 0 0.0133333 0.0164444 0 0.014 0.0166667 0 0.0146667 0.0168889 0 0.0153333 0.0171111 0 0.016 0.0173333 0 0.006 0.0144 0 0.00666667 0.0146444 0 0.00733333 0.0148889 0 0.008 0.0151333 0 0.00866667 0.0153778 0 0.00933333 0.0156222 0 0.01 0.0158667 0 0.0106667 0.0161111 0 0.0113333 0.0163556 0 0.012 0.0166 0 0.0126667 0.0168444 0 0.0133333 0.0170889 0 0.014 0.0173333 0 0.0146667 0.0175778 0 0.0153333 0.0178222 0 0.016 0.0180667 0 0.006 0.0148 0 0.00666667 0.0150667 0 0.00733333 0.0153333 0 0.008 0.0156 0 0.00866667 0.0158667 0 0.00933333 0.0161333 0 0.01 0.0164 0 0.0106667 0.0166667 0 0.0113333 0.0169333 0 0.012 0.0172 0 0.0126667 0.0174667 0 0.0133333 0.0177333 0 0.014 0.018 0 0.0146667 0.0182667 0 0.0153333 0.0185333 0 0.016 0.0188 0 0.006 0.0152 0 0.00666667 0.0154889 0 0.00733333 0.0157778 0 0.008 0.0160667 0 0.00866667 0.0163556 0 0.00933333 0.0166444 0 0.01 0.0169333 0 0.0106667 0.0172222 0 0.0113333 0.0175111 0 0.012 0.0178 0 0.0126667 0.0180889 0 0.0133333 0.0183778 0 0.014 0.0186667 0 0.0146667 0.0189556 0 0.0153333 0.0192444 0 0.016 0.0195333 0 0.006 0.0156 0 0.00666667 0.0159111 0 0.00733333 0.0162222 0 0.008 0.0165333 0 0.00866667 0.0168444 0 0.00933333 0.0171556 0 0.01 0.0174667 0 0.0106667 0.0177778 0 0.0113333 0.0180889 0 0.012 0.0184 0 0.0126667 0.0187111 0 0.0133333 0.0190222 0 0.014 0.0193333 0 0.0146667 0.0196444 0 0.0153333 0.0199556 0 0.016 0.0202667 0 0.006 0.016 0 0.00666667 0.0163333 0 0.00733333 0.0166667 0 0.008 0.017 0 0.00866667 0.0173333 0 0.00933333 0.0176667 0 0.01 0.018 0 0.0106667 0.0183333 0 0.0113333 0.0186667 0 0.012 0.019 0 0.0126667 0.0193333 0 0.0133333 0.0196667 0 0.014 0.02 0 0.0146667 0.0203333 0 0.0153333 0.0206667 0 0.016 0.021 0 
</DataArray>
</Points> 
</Piece> 
</StructuredGrid> 
</VTKFile> 
