<?xml version="1.0"?> 
<VTKFile type="StructuredGrid" version="0.1"> 
<StructuredGrid WholeExtent="0 15 0 15 0 0"> 
<Piece Extent="0 15 0 15 0 0"> 
<PointData>
<DataArray type="Float32" Name="E" format="ascii" NumberOfComponents="3"> 
-353209 0 0 -353894 -0.159869 0 -355951 -0.319308 0 -359386 -0.477857 0 -364211 -0.634986 0 -370442 -0.790067 0 -378099 -0.942332 0 -387206 -1.09084 0 -397793 -1.23442 0 -409891 -1.37166 0 -423539 -1.50081 0 -438777 -1.61979 0 -455649 -1.72611 0 -474202 -1.81679 0 -494488 -1.88841 0 -516558 -1.93702 0 -351309 0 0 -351991 2279.88 0 -354038 4567.32 0 -357457 6869.85 0 -362261 9194.95 0 -368464 11550.1 0 -376086 13942.5 0 -385153 16379.6 0 -395694 18868.2 0 -407741 21415.3 0 -421333 24027.4 0 -436509 26710.6 0 -453314 29470.7 0 -471798 32312.8 0 -492010 35241.3 0 -514004 38259.8 0 -345626 0 0 -346298 4538.71 0 -348317 9092.57 0 -351689 13676.7 0 -356427 18306.2 0 -362545 22995.9 0 -370065 27760.7 0 -379012 32615.1 0 -389414 37573.3 0 -401306 42649.2 0 -414727 47856.1 0 -429716 53206.5 0 -446322 58712.3 0 -464593 64384 0 -484583 70231 0 -506346 76260.8 0 -336212 0 0 -336869 6755.39 0 -338840 13533.6 0 -342133 20357.5 0 -346760 27249.8 0 -352737 34233.1 0 -360085 41329.7 0 -368829 48561.8 0 -379000 55951.1 0 -390631 63518.7 0 -403763 71285.1 0 -418439 79269.9 0 -434707 87491.6 0 -452618 95966.9 0 -472229 104711 0 -493600 113736 0 -323156 0 0 -323790 8908.54 0 -325695 17847.7 0 -328877 26848.2 0 -333348 35940.5 0 -339126 45155 0 -346230 54521.9 0 -354688 64071.3 0 -364530 73832.6 0 -375792 83834.8 0 -388515 94106.2 0 -402743 104674 0 -418528 115564 0 -435924 126801 0 -454992 138406 0 -475794 150399 0 -306582 0 0 -307187 10976.5 0 -309005 21991.6 0 -312043 33083.7 0 -316313 44291.4 0 -321832 55653.1 0 -328621 67207.1 0 -336707 78991.5 0 -346121 91044.1 0 -356901 103402 0 -369088 116103 0 -382729 129181 0 -397878 142672 0 -414592 156608 0 -432936 171021 0 -452979 185937 0 -286649 0 0 -287219 12937.4 0 -288931 25921.2 0 -291792 38998 0 -295814 52214.4 0 -301014 65616.8 0 -307413 79251.8 0 -315039 93166.1 0 -323924 107406 0 -334105 122018 0 -345625 137048 0 -358533 152540 0 -372883 168541 0 -388738 185091 0 -406166 202233 0 -425239 220004 0 -263555 0 0 -264083 14769.1 0 -265669 29592.6 0 -268319 44524.9 0 -272047 59620.5 0 -276867 74934.1 0 -282803 90520.8 0 -289880 106436 0 -298132 122735 0 -307594 139473 0 -318311 156706 0 -330333 174489 0 -343716 192879 0 -358523 211928 0 -374826 231692 0 -392702 252220 0 -237533 0 0 -238012 16450 0 -239452 32962 0 -241860 49598.2 0 -245247 66421 0 -249629 83493.2 0 -255026 100878 0 -261466 118640 0 -268980 136843 0 -277603 155552 0 -287380 174834 0 -298360 194755 0 -310598 215381 0 -324161 236782 0 -339119 259023 0 -355554 282171 0 -208852 0 0 -209276 17958.7 0 -210552 35986.6 0 -212685 54153.5 0 -215687 72529.1 0 -219572 91184.1 0 -224360 110190 0 -230076 129619 0 -236749 149545 0 -244415 170042 0 -253114 191187 0 -262895 213059 0 -273812 235736 0 -285928 259299 0 -299315 283832 0 -314054 309418 0 -177816 0 0 -178180 19275 0 -179274 38626 0 -181103 58129.3 0 -183678 77862 0 -187011 97901.6 0 -191121 118327 0 -196031 139219 0 -201766 160660 0 -208360 182733 0 -215850 205526 0 -224281 229127 0 -233703 253629 0 -244175 279126 0 -255765 305717 0 -268550 333504 0 -144761 0 0 -145059 20380.4 0 -145955 40842.6 0 -147454 61469.2 0 -149564 82343 0 -152297 103548 0 -155667 125171 0 -159695 147298 0 -164404 170020 0 -169821 193429 0 -175980 217622 0 -182919 242697 0 -190683 268760 0 -199324 295917 0 -208902 324284 0 -219487 353979 0 -110053 0 0 -110281 21258.5 0 -110965 42603.8 0 -112111 64123.1 0 -113723 85904.7 0 -115813 108038 0 -118391 130614 0 -121473 153727 0 -125078 177473 0 -129228 201952 0 -133949 227269 0 -139273 253531 0 -145235 280853 0 -151878 309355 0 -159252 339166 0 -167412 370420 0 -74081 0 0 -74234.9 21895.9 0 -74697.6 43882.3 0 -75471.7 66050 0 -76561.8 88491.1 0 -77974.3 111299 0 -79717.6 134569 0 -81802.4 158400 0 -84241.7 182894 0 -87051.1 208154 0 -90248.9 234293 0 -93857.1 261426 0 -97901.1 289674 0 -102411 319168 0 -107421 350046 0 -112973 382457 0 -37255.6 0 0 -37333.2 22282.5 0 -37566.5 44657.7 0 -37956.7 67218.9 0 -38506.3 90060.3 0 -39218.5 113278 0 -40097.7 136970 0 -41149.4 161238 0 -42380.1 186186 0 -43797.9 211923 0 -45412.3 238563 0 -47234.6 266227 0 -49277.9 295042 0 -51557.8 325144 0 -54092.3 356678 0 -56902.6 389802 0 0 0 0 0 22412.1 0 0 44917.7 0 0 67610.7 0 0 90586.4 0 0 113941 0 0 137775 0 0 162189 0 0 187290 0 0 213187 0 0 239996 0 0 267839 0 0 296845 0 0 327152 0 0 358907 0 0 392272 0 </DataArray> 
</PointData> 
<Points> 
<DataArray type="Float32" NumberOfComponents="3"> 
0 0 0 0.0004 0 0 0.0008 0 0 0.0012 0 0 0.0016 0 0 0.002 0 0 0.0024 0 0 0.0028 0 0 0.0032 0 0 0.0036 0 0 0.004 0 0 0.0044 0 0 0.0048 0 0 0.0052 0 0 0.0056 0 0 0.006 0 0 0 0.000666667 0 0.0004 0.000666667 0 0.0008 0.000666667 0 0.0012 0.000666667 0 0.0016 0.000666667 0 0.002 0.000666667 0 0.0024 0.000666667 0 0.0028 0.000666667 0 0.0032 0.000666667 0 0.0036 0.000666667 0 0.004 0.000666667 0 0.0044 0.000666667 0 0.0048 0.000666667 0 0.0052 0.000666667 0 0.0056 0.000666667 0 0.006 0.000666667 0 0 0.00133333 0 0.0004 0.00133333 0 0.0008 0.00133333 0 0.0012 0.00133333 0 0.0016 0.00133333 0 0.002 0.00133333 0 0.0024 0.00133333 0 0.0028 0.00133333 0 0.0032 0.00133333 0 0.0036 0.00133333 0 0.004 0.00133333 0 0.0044 0.00133333 0 0.0048 0.00133333 0 0.0052 0.00133333 0 0.0056 0.00133333 0 0.006 0.00133333 0 0 0.002 0 0.0004 0.002 0 0.0008 0.002 0 0.0012 0.002 0 0.0016 0.002 0 0.002 0.002 0 0.0024 0.002 0 0.0028 0.002 0 0.0032 0.002 0 0.0036 0.002 0 0.004 0.002 0 0.0044 0.002 0 0.0048 0.002 0 0.0052 0.002 0 0.0056 0.002 0 0.006 0.002 0 0 0.00266667 0 0.0004 0.00266667 0 0.0008 0.00266667 0 0.0012 0.00266667 0 0.0016 0.00266667 0 0.002 0.00266667 0 0.0024 0.00266667 0 0.0028 0.00266667 0 0.0032 0.00266667 0 0.0036 0.00266667 0 0.004 0.00266667 0 0.0044 0.00266667 0 0.0048 0.00266667 0 0.0052 0.00266667 0 0.0056 0.00266667 0 0.006 0.00266667 0 0 0.00333333 0 0.0004 0.00333333 0 0.0008 0.00333333 0 0.0012 0.00333333 0 0.0016 0.00333333 0 0.002 0.00333333 0 0.0024 0.00333333 0 0.0028 0.00333333 0 0.0032 0.00333333 0 0.0036 0.00333333 0 0.004 0.00333333 0 0.0044 0.00333333 0 0.0048 0.00333333 0 0.0052 0.00333333 0 0.0056 0.00333333 0 0.006 0.00333333 0 0 0.004 0 0.0004 0.004 0 0.0008 0.004 0 0.0012 0.004 0 0.0016 0.004 0 0.002 0.004 0 0.0024 0.004 0 0.0028 0.004 0 0.0032 0.004 0 0.0036 0.004 0 0.004 0.004 0 0.0044 0.004 0 0.0048 0.004 0 0.0052 0.004 0 0.0056 0.004 0 0.006 0.004 0 0 0.00466667 0 0.0004 0.00466667 0 0.0008 0.00466667 0 0.0012 0.00466667 0 0.0016 0.00466667 0 0.002 0.00466667 0 0.0024 0.00466667 0 0.0028 0.00466667 0 0.0032 0.00466667 0 0.0036 0.00466667 0 0.004 0.00466667 0 0.0044 0.00466667 0 0.0048 0.00466667 0 0.0052 0.00466667 0 0.0056 0.00466667 0 0.006 0.00466667 0 0 0.00533333 0 0.0004 0.00533333 0 0.0008 0.00533333 0 0.0012 0.00533333 0 0.0016 0.00533333 0 0.002 0.00533333 0 0.0024 0.00533333 0 0.0028 0.00533333 0 0.0032 0.00533333 0 0.0036 0.00533333 0 0.004 0.00533333 0 0.0044 0.00533333 0 0.0048 0.00533333 0 0.0052 0.00533333 0 0.0056 0.00533333 0 0.006 0.00533333 0 0 0.006 0 0.0004 0.006 0 0.0008 0.006 0 0.0012 0.006 0 0.0016 0.006 0 0.002 0.006 0 0.0024 0.006 0 0.0028 0.006 0 0.0032 0.006 0 0.0036 0.006 0 0.004 0.006 0 0.0044 0.006 0 0.0048 0.006 0 0.0052 0.006 0 0.0056 0.006 0 0.006 0.006 0 0 0.00666667 0 0.0004 0.00666667 0 0.0008 0.00666667 0 0.0012 0.00666667 0 0.0016 0.00666667 0 0.002 0.00666667 0 0.0024 0.00666667 0 0.0028 0.00666667 0 0.0032 0.00666667 0 0.0036 0.00666667 0 0.004 0.00666667 0 0.0044 0.00666667 0 0.0048 0.00666667 0 0.0052 0.00666667 0 0.0056 0.00666667 0 0.006 0.00666667 0 0 0.00733333 0 0.0004 0.00733333 0 0.0008 0.00733333 0 0.0012 0.00733333 0 0.0016 0.00733333 0 0.002 0.00733333 0 0.0024 0.00733333 0 0.0028 0.00733333 0 0.0032 0.00733333 0 0.0036 0.00733333 0 0.004 0.00733333 0 0.0044 0.00733333 0 0.0048 0.00733333 0 0.0052 0.00733333 0 0.0056 0.00733333 0 0.006 0.00733333 0 0 0.008 0 0.0004 0.008 0 0.0008 0.008 0 0.0012 0.008 0 0.0016 0.008 0 0.002 0.008 0 0.0024 0.008 0 0.0028 0.008 0 0.0032 0.008 0 0.0036 0.008 0 0.004 0.008 0 0.0044 0.008 0 0.0048 0.008 0 0.0052 0.008 0 0.0056 0.008 0 0.006 0.008 0 0 0.00866667 0 0.0004 0.00866667 0 0.0008 0.00866667 0 0.0012 0.00866667 0 0.0016 0.00866667 0 0.002 0.00866667 0 0.0024 0.00866667 0 0.0028 0.00866667 0 0.0032 0.00866667 0 0.0036 0.00866667 0 0.004 0.00866667 0 0.0044 0.00866667 0 0.0048 0.00866667 0 0.0052 0.00866667 0 0.0056 0.00866667 0 0.006 0.00866667 0 0 0.00933333 0 0.0004 0.00933333 0 0.0008 0.00933333 0 0.0012 0.00933333 0 0.0016 0.00933333 0 0.002 0.00933333 0 0.0024 0.00933333 0 0.0028 0.00933333 0 0.0032 0.00933333 0 0.0036 0.00933333 0 0.004 0.00933333 0 0.0044 0.00933333 0 0.0048 0.00933333 0 0.0052 0.00933333 0 0.0056 0.00933333 0 0.006 0.00933333 0 0 0.01 0 0.0004 0.01 0 0.0008 0.01 0 0.0012 0.01 0 0.0016 0.01 0 0.002 0.01 0 0.0024 0.01 0 0.0028 0.01 0 0.0032 0.01 0 0.0036 0.01 0 0.004 0.01 0 0.0044 0.01 0 0.0048 0.01 0 0.0052 0.01 0 0.0056 0.01 0 0.006 0.01 0 
</DataArray>
</Points> 
</Piece> 
</StructuredGrid> 
</VTKFile> 
