<?xml version="1.0"?> 
<VTKFile type="StructuredGrid" version="0.1"> 
<StructuredGrid WholeExtent="0 15 0 15 0 0"> 
<Piece Extent="0 15 0 15 0 0"> 
<PointData>
<DataArray type="Float32" Name="E" format="ascii" NumberOfComponents="3"> 
-2.68743e+06 4.79496e+06 0 -2.25118e+06 4.68659e+06 0 -1.9488e+06 4.82227e+06 0 -1.65669e+06 4.99704e+06 0 -1.35413e+06 5.16222e+06 0 -1.03976e+06 5.29831e+06 0 -717781 5.39251e+06 0 -395465 5.43865e+06 0 -80918.9 5.43478e+06 0 218151 5.38282e+06 0 495460 5.28871e+06 0 746779 5.16042e+06 0 970972 5.01166e+06 0 1.1698e+06 4.85623e+06 0 1.3535e+06 4.72833e+06 0 1.56592e+06 4.74606e+06 0 -2.41742e+06 4.36839e+06 0 -2.03498e+06 4.5388e+06 0 -1.73901e+06 4.71123e+06 0 -1.45999e+06 4.87958e+06 0 -1.1803e+06 5.02884e+06 0 -896304 5.14753e+06 0 -610101 5.22837e+06 0 -326368 5.2672e+06 0 -50482.7 5.26298e+06 0 212410 5.21753e+06 0 458319 5.13523e+06 0 685114 5.02317e+06 0 893321 4.89038e+06 0 1.08819e+06 4.75007e+06 0 1.28489e+06 4.61886e+06 0 1.54164e+06 4.51225e+06 0 -2.11023e+06 4.21153e+06 0 -1.80439e+06 4.42293e+06 0 -1.53648e+06 4.60574e+06 0 -1.28054e+06 4.76765e+06 0 -1.02633e+06 4.90469e+06 0 -771474 5.01109e+06 0 -517315 5.0825e+06 0 -266997 5.11631e+06 0 -24177.8 5.11206e+06 0 207766 5.07134e+06 0 426454 4.99775e+06 0 631166 4.89665e+06 0 823687 4.77505e+06 0 1.01007e+06 4.64115e+06 0 1.20504e+06 4.50236e+06 0 1.43906e+06 4.35135e+06 0 -1.83576e+06 4.11611e+06 0 -1.5846e+06 4.32951e+06 0 -1.34799e+06 4.50989e+06 0 -1.11771e+06 4.66419e+06 0 -889326 4.79144e+06 0 -661885 4.88868e+06 0 -436567 4.95319e+06 0 -215630 4.98336e+06 0 -1604.67 4.97906e+06 0 203333 4.94169e+06 0 397905 4.87415e+06 0 582289 4.78055e+06 0 758808 4.66587e+06 0 933076 4.53493e+06 0 1.11583e+06 4.38967e+06 0 1.32139e+06 4.22083e+06 0 -1.59512e+06 4.04717e+06 0 -1.38299e+06 4.25085e+06 0 -1.17534e+06 4.42406e+06 0 -970431 4.57044e+06 0 -766956 4.68959e+06 0 -565031 4.77968e+06 0 -365828 4.83891e+06 0 -171076 4.86624e+06 0 17452 4.86171e+06 0 198383 4.82653e+06 0 371165 4.76302e+06 0 536467 4.67431e+06 0 696646 4.56384e+06 0 856240 4.43427e+06 0 1.02213e+06 4.28528e+06 0 1.20074e+06 4.10989e+06 0 -1.38124e+06 3.99104e+06 0 -1.19977e+06 4.18307e+06 0 -1.0182e+06 4.34785e+06 0 -837263 4.48672e+06 0 -657286 4.59902e+06 0 -479012 4.68335e+06 0 -303623 4.73834e+06 0 -132498 4.76327e+06 0 33096.3 4.75824e+06 0 192326 4.7243e+06 0 345083 4.6633e+06 0 492248 4.57762e+06 0 635912 4.46964e+06 0 779437 4.34085e+06 0 926920 4.19042e+06 0 1.08096e+06 4.01381e+06 0 -1.18954e+06 3.94313e+06 0 -1.03346e+06 4.12417e+06 0 -875295 4.28084e+06 0 -716684 4.41293e+06 0 -558684 4.5194e+06 0 -402355 4.59891e+06 0 -248851 4.65034e+06 0 -99303.8 4.67308e+06 0 45370.6 4.66727e+06 0 184690 4.63379e+06 0 318796 4.57414e+06 0 448596 4.49019e+06 0 575805 4.38365e+06 0 702763 4.2555e+06 0 831759 4.10512e+06 0 963532 3.93002e+06 0 -1.01612e+06 3.90167e+06 0 -881966 4.07323e+06 0 -745064 4.22267e+06 0 -607217 4.34881e+06 0 -469771 4.45027e+06 0 -333896 4.52567e+06 0 -200680 4.57395e+06 0 -71064.8 4.59459e+06 0 54280.9 4.5877e+06 0 175099 4.55405e+06 0 291654 4.49489e+06 0 404776 4.41174e+06 0 515798 4.30598e+06 0 626275 4.17845e+06 0 737386 4.02902e+06 0 849004 3.85668e+06 0 -857806 3.86613e+06 0 -743289 4.02982e+06 0 -625944 4.17306e+06 0 -507515 4.29407e+06 0 -389380 4.39119e+06 0 -272702 4.46297e+06 0 -158470 4.50838e+06 0 -47467.4 4.52691e+06 0 59814.6 4.51866e+06 0 163257 4.48432e+06 0 263166 4.42499e+06 0 360253 4.34198e+06 0 455511 4.23655e+06 0 549934 4.10961e+06 0 644053 3.96158e+06 0 737375 3.79251e+06 0 -712058 3.83642e+06 0 -615566 3.99376e+06 0 -516487 4.13181e+06 0 -416377 4.24843e+06 0 -316530 4.34176e+06 0 -218021 4.41028e+06 0 -121724 4.45297e+06 0 -28281.6 4.46932e+06 0 61945.8 4.45945e+06 0 148924 4.42399e+06 0 232952 4.36395e+06 0 314613 4.2806e+06 0 394626 4.17516e+06 0 473604 4.04874e+06 0 551718 3.90221e+06 0 628374 3.73643e+06 0 -576721 3.81271e+06 0 -497160 3.96501e+06 0 -415395 4.09879e+06 0 -332759 4.21167e+06 0 -250394 4.30164e+06 0 -169246 4.36716e+06 0 -90056 4.40718e+06 0 -13341.7 4.42126e+06 0 60637.3 4.4095e+06 0 131895 4.37253e+06 0 200703 4.31137e+06 0 267518 4.22726e+06 0 332852 4.12152e+06 0 397069 3.99545e+06 0 460160 3.85034e+06 0 521558 3.6876e+06 0 -449978 3.7952e+06 0 -386629 3.94364e+06 0 -321524 4.07396e+06 0 -255755 4.18363e+06 0 -190280 4.27059e+06 0 -125884 4.33325e+06 0 -63168.9 4.37061e+06 0 -2535.05 4.38225e+06 0 55837.8 4.36833e+06 0 111989 4.32951e+06 0 166150 4.26685e+06 0 218668 4.18163e+06 0 269898 4.0753e+06 0 320050 3.94936e+06 0 369039 3.80543e+06 0 416393 3.6453e+06 0 -330255 3.78418e+06 0 -282708 3.92976e+06 0 -233872 4.05731e+06 0 -184592 4.16422e+06 0 -135613 4.2484e+06 0 -87544 4.30828e+06 0 -40842.1 4.3429e+06 0 4203.83 4.35192e+06 0 47478.6 4.33556e+06 0 89032.2 4.29455e+06 0 129047 4.23003e+06 0 167779 4.14337e+06 0 205463 4.03614e+06 0 242216 3.91004e+06 0 277942 3.76694e+06 0 312287 3.60891e+06 0 -216165 3.77993e+06 0 -184278 3.92354e+06 0 -151563 4.04891e+06 0 -118604 4.15343e+06 0 -85917.7 4.23498e+06 0 -53921.8 4.29207e+06 0 -22922.2 4.32381e+06 0 6895.77 4.32996e+06 0 35469 4.31085e+06 0 62845 4.26732e+06 0 89154.7 4.20059e+06 0 114567 4.11215e+06 0 139228 4.0037e+06 0 163200 3.8771e+06 0 186407 3.7344e+06 0 208618 3.57787e+06 0 -106462 3.78279e+06 0 -90342.3 3.92521e+06 0 -73830.1 4.04891e+06 0 -57230.8 4.15129e+06 0 -40812.9 4.23029e+06 0 -24791.1 4.2845e+06 0 -9318.27 4.31316e+06 0 5517.38 4.31615e+06 0 19691.9 4.29395e+06 0 33237.3 4.24753e+06 0 46225.2 4.17822e+06 0 58742.1 4.08764e+06 0 70859.5 3.97761e+06 0 82603.6 3.85012e+06 0 93934.4 3.70734e+06 0 104741 3.55167e+06 0 0 3.79311e+06 0 0 3.93504e+06 0 0 4.0575e+06 0 0 4.15792e+06 0 0 4.23435e+06 0 0 4.28551e+06 0 0 4.3108e+06 0 0 4.31029e+06 0 0 4.28461e+06 0 0 4.2349e+06 0 0 4.16263e+06 0 0 4.06953e+06 0 0 3.95753e+06 0 0 3.82872e+06 0 0 3.68535e+06 0 0 3.52987e+06 0 </DataArray> 
</PointData> 
<Points> 
<DataArray type="Float32" NumberOfComponents="3"> 
0.105935 0.0596385 0 0.110061 0.0617833 0 0.11429 0.0636518 0 0.118624 0.065244 0 0.123063 0.0665601 0 0.127605 0.0675999 0 0.132253 0.0683636 0 0.137004 0.068851 0 0.14186 0.0690622 0 0.14682 0.0689971 0 0.151885 0.0686559 0 0.157054 0.0680384 0 0.162327 0.0671447 0 0.167705 0.0659748 0 0.173187 0.0645287 0 0.178774 0.0628063 0 0.106406 0.0631293 0 0.11059 0.065131 0 0.114871 0.066875 0 0.119249 0.0683611 0 0.123725 0.0695894 0 0.128298 0.0705599 0 0.132969 0.0712727 0 0.137737 0.0717276 0 0.142603 0.0719247 0 0.147566 0.071864 0 0.152626 0.0715455 0 0.157784 0.0709692 0 0.163039 0.0701351 0 0.168392 0.0690432 0 0.173842 0.0676934 0 0.179389 0.0660859 0 0.106877 0.0666201 0 0.111119 0.0684788 0 0.115452 0.0700982 0 0.119874 0.0714782 0 0.124388 0.0726188 0 0.128991 0.07352 0 0.133686 0.0741818 0 0.13847 0.0746042 0 0.143345 0.0747872 0 0.148311 0.0747308 0 0.153367 0.0744351 0 0.158514 0.0739 0 0.16375 0.0731254 0 0.169078 0.0721115 0 0.174496 0.0708582 0 0.180004 0.0693655 0 0.107348 0.0701108 0 0.111649 0.0718266 0 0.116032 0.0733214 0 0.120499 0.0745952 0 0.12505 0.0756481 0 0.129684 0.07648 0 0.134402 0.0770909 0 0.139203 0.0774808 0 0.144088 0.0776497 0 0.149056 0.0775977 0 0.154108 0.0773247 0 0.159243 0.0768307 0 0.164462 0.0761158 0 0.169764 0.0751798 0 0.17515 0.0740229 0 0.180619 0.0726451 0 0.107819 0.0736016 0 0.112178 0.0751744 0 0.116613 0.0765446 0 0.121124 0.0777123 0 0.125713 0.0786774 0 0.130377 0.07944 0 0.135119 0.08 0 0.139936 0.0803574 0 0.144831 0.0805123 0 0.149802 0.0804646 0 0.154849 0.0802143 0 0.159973 0.0797615 0 0.165173 0.0791061 0 0.170451 0.0782482 0 0.175804 0.0771877 0 0.181234 0.0759246 0 0.10829 0.0770924 0 0.112707 0.0785222 0 0.117194 0.0797678 0 0.12175 0.0808294 0 0.126375 0.0817067 0 0.13107 0.0824 0 0.135835 0.082909 0 0.140669 0.083234 0 0.145573 0.0833748 0 0.150547 0.0833314 0 0.15559 0.0831039 0 0.160703 0.0826923 0 0.165885 0.0820965 0 0.171137 0.0813165 0 0.176458 0.0803525 0 0.181849 0.0792042 0 0.108761 0.0805831 0 0.113236 0.08187 0 0.117774 0.0829911 0 0.122375 0.0839464 0 0.127038 0.0847361 0 0.131763 0.08536 0 0.136552 0.0858181 0 0.141402 0.0861106 0 0.146316 0.0862373 0 0.151292 0.0861983 0 0.156331 0.0859935 0 0.161432 0.085623 0 0.166596 0.0850868 0 0.171823 0.0843849 0 0.177112 0.0835172 0 0.182464 0.0824838 0 0.109232 0.0840739 0 0.113766 0.0852177 0 0.118355 0.0862143 0 0.123 0.0870635 0 0.1277 0.0877654 0 0.132456 0.08832 0 0.137268 0.0887272 0 0.142136 0.0889872 0 0.147059 0.0890998 0 0.152038 0.0890651 0 0.157072 0.0888831 0 0.162162 0.0885538 0 0.167308 0.0880772 0 0.172509 0.0874532 0 0.177767 0.086682 0 0.183079 0.0857634 0 0.109703 0.0875646 0 0.114295 0.0885655 0 0.118935 0.0894375 0 0.123625 0.0901806 0 0.128363 0.0907947 0 0.133149 0.09128 0 0.137985 0.0916363 0 0.142869 0.0918638 0 0.147801 0.0919623 0 0.152783 0.091932 0 0.157813 0.0917727 0 0.162892 0.0914846 0 0.168019 0.0910675 0 0.173196 0.0905216 0 0.178421 0.0898467 0 0.183695 0.089043 0 0.110174 0.0910554 0 0.114824 0.0919133 0 0.119516 0.0926607 0 0.12425 0.0932976 0 0.129025 0.093824 0 0.133842 0.09424 0 0.138701 0.0945454 0 0.143602 0.0947404 0 0.148544 0.0948249 0 0.153528 0.0947989 0 0.158554 0.0946624 0 0.163622 0.0944154 0 0.168731 0.0940579 0 0.173882 0.0935899 0 0.179075 0.0930115 0 0.18431 0.0923225 0 0.110645 0.0945462 0 0.115354 0.0952611 0 0.120097 0.0958839 0 0.124875 0.0964147 0 0.129688 0.0968534 0 0.134535 0.0972 0 0.139418 0.0974545 0 0.144335 0.097617 0 0.149287 0.0976874 0 0.154273 0.0976657 0 0.159295 0.097552 0 0.164351 0.0973461 0 0.169442 0.0970482 0 0.174568 0.0966583 0 0.179729 0.0961762 0 0.184925 0.0956021 0 0.111116 0.0980369 0 0.115883 0.0986089 0 0.120677 0.0991071 0 0.1255 0.0995317 0 0.13035 0.0998827 0 0.135228 0.10016 0 0.140134 0.100364 0 0.145068 0.100494 0 0.150029 0.10055 0 0.155019 0.100533 0 0.160036 0.100442 0 0.165081 0.100277 0 0.170154 0.100039 0 0.175255 0.0997266 0 0.180383 0.099341 0 0.18554 0.0988817 0 0.111587 0.101528 0 0.116412 0.101957 0 0.121258 0.10233 0 0.126125 0.102649 0 0.131013 0.102912 0 0.135921 0.10312 0 0.140851 0.103273 0 0.145801 0.10337 0 0.150772 0.103412 0 0.155764 0.103399 0 0.160777 0.103331 0 0.165811 0.103208 0 0.170865 0.103029 0 0.175941 0.102795 0 0.181037 0.102506 0 0.186155 0.102161 0 0.112058 0.105018 0 0.116941 0.105304 0 0.121839 0.105554 0 0.12675 0.105766 0 0.131675 0.105941 0 0.136614 0.10608 0 0.141567 0.106182 0 0.146534 0.106247 0 0.151515 0.106275 0 0.156509 0.106266 0 0.161518 0.106221 0 0.166541 0.106138 0 0.171577 0.106019 0 0.176627 0.105863 0 0.181692 0.10567 0 0.18677 0.105441 0 0.112529 0.108509 0 0.117471 0.108652 0 0.122419 0.108777 0 0.127375 0.108883 0 0.132338 0.108971 0 0.137307 0.10904 0 0.142284 0.109091 0 0.147267 0.109123 0 0.152257 0.109137 0 0.157255 0.109133 0 0.162259 0.10911 0 0.16727 0.109069 0 0.172288 0.10901 0 0.177314 0.108932 0 0.182346 0.108835 0 0.187385 0.10872 0 0.113 0.112 0 0.118 0.112 0 0.123 0.112 0 0.128 0.112 0 0.133 0.112 0 0.138 0.112 0 0.143 0.112 0 0.148 0.112 0 0.153 0.112 0 0.158 0.112 0 0.163 0.112 0 0.168 0.112 0 0.173 0.112 0 0.178 0.112 0 0.183 0.112 0 0.188 0.112 0 
</DataArray>
</Points> 
</Piece> 
</StructuredGrid> 
</VTKFile> 
