<?xml version="1.0"?> 
<VTKFile type="StructuredGrid" version="0.1"> 
<StructuredGrid WholeExtent="0 15 0 15 0 0"> 
<Piece Extent="0 15 0 15 0 0"> 
<PointData>
<DataArray type="Float32" Name="E" format="ascii" NumberOfComponents="3"> 
723.143 1.19209e-06 0 -26.8068 -176.62 0 -48.5874 -107.89 0 -46.0921 -33.6295 0 -33.904 -27.5535 0 -22.6989 -9.55973 0 -15.3247 -7.90282 0 -9.71107 -3.40557 0 -6.36001 -2.54199 0 -3.99139 -1.33436 0 -2.58555 -0.888114 0 -1.64277 -0.525657 0 -1.08677 -0.313832 0 -0.743738 -0.183893 0 -0.568663 -0.0753653 0 -0.515158 3.09944e-06 0 454.658 -2.15136e-07 0 16.2856 -165.713 0 -39.6338 -92.4815 0 -40.674 -42.9388 0 -30.8548 -25.6448 0 -21.6888 -13.0976 0 -14.3548 -8.12296 0 -9.45266 -4.57997 0 -6.03955 -2.87076 0 -3.89766 -1.72117 0 -2.4756 -1.07392 0 -1.60181 -0.656277 0 -1.04647 -0.39559 0 -0.723117 -0.223754 0 -0.550308 -0.100147 0 -0.496442 -2.45171e-07 0 303.436 1.20606e-07 0 36.3491 -144.454 0 -30.3661 -84.6991 0 -35.4392 -46.4619 0 -28.1488 -26.1038 0 -20.2799 -15.1259 0 -13.5346 -8.90981 0 -9.00102 -5.41646 0 -5.7617 -3.30001 0 -3.73358 -2.04714 0 -2.37288 -1.26542 0 -1.53762 -0.780845 0 -1.00497 -0.471519 0 -0.694738 -0.265882 0 -0.528836 -0.120348 0 -0.477254 6.14673e-08 0 213.907 -1.85333e-07 0 44.2365 -122.105 0 -22.0606 -79.3862 0 -30.5635 -47.5196 0 -25.5386 -27.2373 0 -18.7398 -16.5232 0 -12.7002 -9.83531 0 -8.47023 -6.10806 0 -5.46435 -3.74353 0 -3.53703 -2.3421 0 -2.25844 -1.45216 0 -1.46098 -0.89905 0 -0.957461 -0.54345 0 -0.661147 -0.307 0 -0.503795 -0.138811 0 -0.454986 -2.18861e-07 0 157.837 3.31551e-07 0 45.6942 -102.145 0 -15.173 -74.6759 0 -26.1078 -47.5184 0 -22.9726 -28.3952 0 -17.1593 -17.634 0 -11.81 -10.737 0 -7.89606 -6.72515 0 -5.13244 -4.16841 0 -3.31918 -2.6159 0 -2.12818 -1.62949 0 -1.37495 -1.01051 0 -0.903089 -0.611495 0 -0.623116 -0.346011 0 -0.475212 -0.156219 0 -0.429334 2.47732e-07 0 120.578 -2.90573e-07 0 43.8028 -85.4856 0 -9.75525 -70.0729 0 -22.0886 -47.0351 0 -20.4601 -29.3703 0 -15.5673 -18.5808 0 -10.863 -11.5616 0 -7.28851 -7.28902 0 -4.76602 -4.56309 0 -3.08292 -2.87056 0 -1.98253 -1.7952 0 -1.28038 -1.11471 0 -0.842165 -0.675287 0 -0.580941 -0.382503 0 -0.443276 -0.172598 0 -0.400529 -1.08033e-07 0 94.3595 7.07805e-08 0 40.2231 -72.031 0 -5.67725 -65.5698 0 -18.501 -46.3166 0 -18.0225 -30.1253 0 -13.9738 -19.4041 0 -9.86869 -12.296 0 -6.65058 -7.80379 0 -4.369 -4.92364 0 -2.82923 -3.10546 0 -1.82301 -1.94804 0 -1.17768 -1.21105 0 -0.775264 -0.734377 0 -0.534851 -0.416243 0 -0.408227 -0.187824 0 -0.368866 8.56817e-08 0 74.915 8.19564e-08 0 35.8542 -61.3516 0 -2.74238 -61.2917 0 -15.326 -45.4839 0 -15.6765 -30.6812 0 -12.3835 -20.117 0 -8.83764 -12.9403 0 -5.98433 -8.26846 0 -3.94561 -5.24864 0 -2.55904 -3.31931 0 -1.65119 -2.08711 0 -1.06732 -1.29896 0 -0.702978 -0.788346 0 -0.485113 -0.447037 0 -0.37033 -0.201763 0 -0.334621 -3.72529e-08 0 59.8132 -9.68575e-08 0 31.1782 -52.9641 0 -0.74418 -57.3677 0 -12.5337 -44.6104 0 -13.4309 -31.075 0 -10.7997 -20.7257 0 -7.77857 -13.4984 0 -5.29229 -8.68112 0 -3.49968 -5.5373 0 -2.27363 -3.5108 0 -1.46855 -2.21164 0 -0.949929 -1.37786 0 -0.62588 -0.836823 0 -0.432045 -0.474699 0 -0.329858 -0.214302 0 -0.298052 1.41561e-07 0 47.6044 8.9407e-08 0 26.4458 -46.4362 0 0.507978 -53.8915 0 -10.0861 -43.7508 0 -11.2871 -31.3435 0 -9.22545 -21.2355 0 -6.69828 -13.9742 0 -4.57754 -9.04021 0 -3.03452 -5.78901 0 -1.97461 -3.67881 0 -1.27646 -2.32098 0 -0.826235 -1.44727 0 -0.544532 -0.879489 0 -0.376003 -0.499054 0 -0.287098 -0.225347 0 -0.259419 -2.98023e-07 0 37.3803 1.04308e-07 0 21.7789 -41.415 0 1.17976 -50.9206 0 -7.93949 -42.9501 0 -9.23991 -31.5189 0 -7.6625 -21.6523 0 -5.60204 -14.3714 0 -3.84343 -9.34475 0 -2.55316 -6.00316 0 -1.66375 -3.82241 0 -1.07625 -2.41453 0 -0.697055 -1.50674 0 -0.459502 -0.916064 0 -0.31737 -0.519942 0 -0.242349 -0.23482 0 -0.21899 1.93715e-07 0 28.5405 -2.38419e-07 0 17.2257 -37.6274 0 1.41079 -48.4837 0 -6.04613 -42.2454 0 -7.27951 -31.6279 0 -6.11154 -21.9824 0 -4.49394 -14.6926 0 -3.09339 -9.59418 0 -2.05843 -6.17919 0 -1.34297 -3.94085 0 -0.869237 -2.49178 0 -0.563253 -1.55591 0 -0.371373 -0.946314 0 -0.256554 -0.537225 0 -0.195923 -0.242658 0 -0.177043 -1.19209e-07 0 20.6652 1.49012e-07 0 12.7935 -34.8694 0 1.31744 -46.5914 0 -4.35631 -41.6669 0 -5.39237 -31.6915 0 -4.57199 -22.232 0 -3.37724 -14.9402 0 -2.33081 -9.78825 0 -1.55307 -6.31662 0 -1.01422 -4.03354 0 -0.656748 -2.55231 0 -0.425725 -1.59447 0 -0.28074 -0.970044 0 -0.193973 -0.550789 0 -0.148141 -0.248809 0 -0.133868 7.45058e-08 0 13.4422 -1.93715e-07 0 8.46583 -32.9953 0 0.997167 -45.244 0 -2.81934 -41.2377 0 -3.5623 -31.7258 0 -3.04211 -22.4062 0 -2.25458 -15.1158 0 -1.55896 -9.92687 0 -1.03978 -6.41507 0 -0.679477 -4.10006 0 -0.440133 -2.59578 0 -0.285385 -1.62218 0 -0.188217 -0.987104 0 -0.13006 -0.560542 0 -0.0993334 -0.253232 0 -0.0897651 -5.96046e-08 0 6.62402 1.78814e-07 0 4.21338 -31.9078 0 0.533329 -44.4381 0 -1.38423 -40.9738 0 -1.77125 -31.7419 0 -1.51922 -22.5091 0 -1.12819 -15.2207 0 -0.780995 -10.01 0 -0.521209 -6.47425 0 -0.340738 -4.14009 0 -0.220758 -2.62196 0 -0.143164 -1.63887 0 -0.0944264 -0.997383 0 -0.0652539 -0.566419 0 -0.0498391 -0.255897 0 -0.045039 8.9407e-08 0 3.57628e-07 -1.19209e-06 0 2.6921e-09 -31.5515 0 -4.7381e-08 -44.1699 0 4.51691e-08 -40.8848 0 -2.84053e-08 -31.7465 0 -1.86265e-09 -22.5431 0 4.09782e-08 -15.2556 0 -3.35276e-08 -10.0378 0 9.31323e-09 -6.49399 0 -1.86265e-09 -4.15345 0 -1.11759e-08 -2.6307 0 3.72529e-09 -1.64444 0 7.45058e-09 -1.00082 0 -1.11759e-08 -0.568384 0 -2.23517e-08 -0.256788 0 1.78814e-07 -5.96046e-07 0 </DataArray> 
</PointData> 
<Points> 
<DataArray type="Float32" NumberOfComponents="3"> 
0.13 0.035 0 0.133667 0.035 0 0.137333 0.035 0 0.141 0.035 0 0.144667 0.035 0 0.148333 0.035 0 0.152 0.035 0 0.155667 0.035 0 0.159333 0.035 0 0.163 0.035 0 0.166667 0.035 0 0.170333 0.035 0 0.174 0.035 0 0.177667 0.035 0 0.181333 0.035 0 0.185 0.035 0 0.13 0.0356667 0 0.133667 0.0356667 0 0.137333 0.0356667 0 0.141 0.0356667 0 0.144667 0.0356667 0 0.148333 0.0356667 0 0.152 0.0356667 0 0.155667 0.0356667 0 0.159333 0.0356667 0 0.163 0.0356667 0 0.166667 0.0356667 0 0.170333 0.0356667 0 0.174 0.0356667 0 0.177667 0.0356667 0 0.181333 0.0356667 0 0.185 0.0356667 0 0.13 0.0363333 0 0.133667 0.0363333 0 0.137333 0.0363333 0 0.141 0.0363333 0 0.144667 0.0363333 0 0.148333 0.0363333 0 0.152 0.0363333 0 0.155667 0.0363333 0 0.159333 0.0363333 0 0.163 0.0363333 0 0.166667 0.0363333 0 0.170333 0.0363333 0 0.174 0.0363333 0 0.177667 0.0363333 0 0.181333 0.0363333 0 0.185 0.0363333 0 0.13 0.037 0 0.133667 0.037 0 0.137333 0.037 0 0.141 0.037 0 0.144667 0.037 0 0.148333 0.037 0 0.152 0.037 0 0.155667 0.037 0 0.159333 0.037 0 0.163 0.037 0 0.166667 0.037 0 0.170333 0.037 0 0.174 0.037 0 0.177667 0.037 0 0.181333 0.037 0 0.185 0.037 0 0.13 0.0376667 0 0.133667 0.0376667 0 0.137333 0.0376667 0 0.141 0.0376667 0 0.144667 0.0376667 0 0.148333 0.0376667 0 0.152 0.0376667 0 0.155667 0.0376667 0 0.159333 0.0376667 0 0.163 0.0376667 0 0.166667 0.0376667 0 0.170333 0.0376667 0 0.174 0.0376667 0 0.177667 0.0376667 0 0.181333 0.0376667 0 0.185 0.0376667 0 0.13 0.0383333 0 0.133667 0.0383333 0 0.137333 0.0383333 0 0.141 0.0383333 0 0.144667 0.0383333 0 0.148333 0.0383333 0 0.152 0.0383333 0 0.155667 0.0383333 0 0.159333 0.0383333 0 0.163 0.0383333 0 0.166667 0.0383333 0 0.170333 0.0383333 0 0.174 0.0383333 0 0.177667 0.0383333 0 0.181333 0.0383333 0 0.185 0.0383333 0 0.13 0.039 0 0.133667 0.039 0 0.137333 0.039 0 0.141 0.039 0 0.144667 0.039 0 0.148333 0.039 0 0.152 0.039 0 0.155667 0.039 0 0.159333 0.039 0 0.163 0.039 0 0.166667 0.039 0 0.170333 0.039 0 0.174 0.039 0 0.177667 0.039 0 0.181333 0.039 0 0.185 0.039 0 0.13 0.0396667 0 0.133667 0.0396667 0 0.137333 0.0396667 0 0.141 0.0396667 0 0.144667 0.0396667 0 0.148333 0.0396667 0 0.152 0.0396667 0 0.155667 0.0396667 0 0.159333 0.0396667 0 0.163 0.0396667 0 0.166667 0.0396667 0 0.170333 0.0396667 0 0.174 0.0396667 0 0.177667 0.0396667 0 0.181333 0.0396667 0 0.185 0.0396667 0 0.13 0.0403333 0 0.133667 0.0403333 0 0.137333 0.0403333 0 0.141 0.0403333 0 0.144667 0.0403333 0 0.148333 0.0403333 0 0.152 0.0403333 0 0.155667 0.0403333 0 0.159333 0.0403333 0 0.163 0.0403333 0 0.166667 0.0403333 0 0.170333 0.0403333 0 0.174 0.0403333 0 0.177667 0.0403333 0 0.181333 0.0403333 0 0.185 0.0403333 0 0.13 0.041 0 0.133667 0.041 0 0.137333 0.041 0 0.141 0.041 0 0.144667 0.041 0 0.148333 0.041 0 0.152 0.041 0 0.155667 0.041 0 0.159333 0.041 0 0.163 0.041 0 0.166667 0.041 0 0.170333 0.041 0 0.174 0.041 0 0.177667 0.041 0 0.181333 0.041 0 0.185 0.041 0 0.13 0.0416667 0 0.133667 0.0416667 0 0.137333 0.0416667 0 0.141 0.0416667 0 0.144667 0.0416667 0 0.148333 0.0416667 0 0.152 0.0416667 0 0.155667 0.0416667 0 0.159333 0.0416667 0 0.163 0.0416667 0 0.166667 0.0416667 0 0.170333 0.0416667 0 0.174 0.0416667 0 0.177667 0.0416667 0 0.181333 0.0416667 0 0.185 0.0416667 0 0.13 0.0423333 0 0.133667 0.0423333 0 0.137333 0.0423333 0 0.141 0.0423333 0 0.144667 0.0423333 0 0.148333 0.0423333 0 0.152 0.0423333 0 0.155667 0.0423333 0 0.159333 0.0423333 0 0.163 0.0423333 0 0.166667 0.0423333 0 0.170333 0.0423333 0 0.174 0.0423333 0 0.177667 0.0423333 0 0.181333 0.0423333 0 0.185 0.0423333 0 0.13 0.043 0 0.133667 0.043 0 0.137333 0.043 0 0.141 0.043 0 0.144667 0.043 0 0.148333 0.043 0 0.152 0.043 0 0.155667 0.043 0 0.159333 0.043 0 0.163 0.043 0 0.166667 0.043 0 0.170333 0.043 0 0.174 0.043 0 0.177667 0.043 0 0.181333 0.043 0 0.185 0.043 0 0.13 0.0436667 0 0.133667 0.0436667 0 0.137333 0.0436667 0 0.141 0.0436667 0 0.144667 0.0436667 0 0.148333 0.0436667 0 0.152 0.0436667 0 0.155667 0.0436667 0 0.159333 0.0436667 0 0.163 0.0436667 0 0.166667 0.0436667 0 0.170333 0.0436667 0 0.174 0.0436667 0 0.177667 0.0436667 0 0.181333 0.0436667 0 0.185 0.0436667 0 0.13 0.0443333 0 0.133667 0.0443333 0 0.137333 0.0443333 0 0.141 0.0443333 0 0.144667 0.0443333 0 0.148333 0.0443333 0 0.152 0.0443333 0 0.155667 0.0443333 0 0.159333 0.0443333 0 0.163 0.0443333 0 0.166667 0.0443333 0 0.170333 0.0443333 0 0.174 0.0443333 0 0.177667 0.0443333 0 0.181333 0.0443333 0 0.185 0.0443333 0 0.13 0.045 0 0.133667 0.045 0 0.137333 0.045 0 0.141 0.045 0 0.144667 0.045 0 0.148333 0.045 0 0.152 0.045 0 0.155667 0.045 0 0.159333 0.045 0 0.163 0.045 0 0.166667 0.045 0 0.170333 0.045 0 0.174 0.045 0 0.177667 0.045 0 0.181333 0.045 0 0.185 0.045 0 
</DataArray>
</Points> 
</Piece> 
</StructuredGrid> 
</VTKFile> 
