<?xml version="1.0"?> 
<VTKFile type="StructuredGrid" version="0.1"> 
<StructuredGrid WholeExtent="0 15 0 15 0 0"> 
<Piece Extent="0 15 0 15 0 0"> 
<PointData>
<DataArray type="Float32" Name="E" format="ascii" NumberOfComponents="3"> 
1.35531e+06 2.38419e-06 0 1.59237e+06 -0.0119058 0 1.74368e+06 -0.0144393 0 1.72158e+06 0.0254685 0 1.59657e+06 0.000554437 0 1.43061e+06 0.00726037 0 1.25987e+06 -3.58531e-05 0 1.1019e+06 0.00125848 0 963416 -0.000262439 0 846348 -3.77316e-05 0 750314 -0.000245286 0 674179 -0.000199702 0 616601 -0.000161713 0 576395 -0.000123722 0 552647 -5.17583e-05 0 544797 0 0 1.35491e+06 -3.10363e-07 0 1.59243e+06 -6537.74 0 1.74375e+06 -1523.2 0 1.72162e+06 2360.24 0 1.59659e+06 4199.87 0 1.43061e+06 4718.5 0 1.25987e+06 4540.04 0 1.1019e+06 4067.21 0 963408 3492.92 0 846340 2907.02 0 750307 2345.89 0 674172 1820.78 0 616595 1331.01 0 576389 870.371 0 552641 429.998 0 544791 0 0 1.3537e+06 7.35745e-08 0 1.59262e+06 -13077 0 1.74395e+06 -3048.32 0 1.72173e+06 4723.85 0 1.59663e+06 8399.8 0 1.43061e+06 9437.97 0 1.25985e+06 9080.08 0 1.10187e+06 8134.6 0 963384 6985.8 0 846316 5814.04 0 750285 4691.76 0 674151 3641.54 0 616575 2662 0 576370 1740.73 0 552624 859.99 0 544773 0 0 1.35168e+06 1.52737e-07 0 1.59293e+06 -19619.1 0 1.74427e+06 -4577.35 0 1.72192e+06 7094.2 0 1.5967e+06 12599.8 0 1.43062e+06 14159.4 0 1.25983e+06 13620.1 0 1.10184e+06 12202.3 0 963343 10478.6 0 846277 8721.05 0 750247 7037.56 0 674117 5462.24 0 616543 3992.95 0 576340 2611.05 0 552594 1289.97 0 544744 0 0 1.34884e+06 -1.9744e-07 0 1.59337e+06 -26165.3 0 1.74473e+06 -6112.41 0 1.72219e+06 9474.78 0 1.59681e+06 16800 0 1.43062e+06 18883.6 0 1.25979e+06 18160.1 0 1.10178e+06 16270.5 0 963287 13971.3 0 846222 11628 0 750195 9383.26 0 674068 7282.86 0 616498 5323.83 0 576297 3481.32 0 552553 1719.93 0 544703 0 0 1.34514e+06 2.01166e-07 0 1.59395e+06 -32716.3 0 1.74533e+06 -7655.85 0 1.72253e+06 11869.2 0 1.59694e+06 21000.1 0 1.43063e+06 23611.9 0 1.25975e+06 22700 0 1.10172e+06 20339.4 0 963215 17463.9 0 846151 14535 0 750129 11728.8 0 674006 9103.38 0 616439 6654.63 0 576242 4351.53 0 552499 2149.86 0 544650 0 0 1.34057e+06 3.57628e-07 0 1.59466e+06 -39272.3 0 1.74605e+06 -9210.28 0 1.72295e+06 14281.2 0 1.59709e+06 25200.2 0 1.43064e+06 28345.1 0 1.25969e+06 27239.7 0 1.10163e+06 24409.2 0 963126 20956.2 0 846064 17442 0 750047 14074.2 0 673930 10923.8 0 616368 7985.32 0 576174 5221.66 0 552434 2579.76 0 544586 0 0 1.33509e+06 -6.4075e-07 0 1.59552e+06 -45833.1 0 1.7469e+06 -10778.7 0 1.72345e+06 16714.9 0 1.59728e+06 29399.8 0 1.43066e+06 33084.5 0 1.25962e+06 31779.2 0 1.10154e+06 28480.1 0 963022 24448.3 0 845962 20349 0 749950 16419.4 0 673840 12744 0 616284 9315.89 0 576094 6091.68 0 552357 3009.62 0 544510 0 0 1.32866e+06 4.32134e-07 0 1.59654e+06 -52397.3 0 1.74788e+06 -12364.5 0 1.72402e+06 19174.4 0 1.5975e+06 33598.5 0 1.43067e+06 37831.3 0 1.25955e+06 36318.3 0 1.10143e+06 32552.3 0 962901 27940.1 0 845843 23255.9 0 749839 18764.4 0 673736 14564.1 0 616187 10646.3 0 576002 6961.59 0 552268 3439.43 0 544422 0 0 1.32122e+06 -3.42727e-07 0 1.59771e+06 -58963 0 1.74899e+06 -13971.7 0 1.72466e+06 21664.4 0 1.59775e+06 37795.8 0 1.43069e+06 42586.6 0 1.25946e+06 40856.8 0 1.1013e+06 36626.1 0 962765 31431.5 0 845709 26162.8 0 749713 21109.1 0 673618 16383.9 0 616077 11976.6 0 575898 7831.37 0 552168 3869.2 0 544323 0 0 1.31273e+06 1.19209e-07 0 1.59907e+06 -65526.7 0 1.75023e+06 -15604.9 0 1.72538e+06 24189.9 0 1.59802e+06 41990.7 0 1.43071e+06 47352.1 0 1.25937e+06 45394.5 0 1.10115e+06 40701.7 0 962612 34922.5 0 845559 29069.8 0 749572 23453.5 0 673487 18203.5 0 615954 13306.6 0 575782 8700.99 0 552055 4298.91 0 544212 0 0 1.30312e+06 -2.38419e-07 0 1.60061e+06 -72084.1 0 1.7516e+06 -17269.6 0 1.72618e+06 26756.4 0 1.59833e+06 46182.4 0 1.43072e+06 52129.1 0 1.25927e+06 49931.1 0 1.101e+06 44779.4 0 962444 38412.8 0 845393 31976.8 0 749416 25797.6 0 673341 20022.8 0 615818 14636.5 0 575653 9570.45 0 551931 4728.56 0 544089 0 0 1.29231e+06 2.68221e-07 0 1.60235e+06 -78628.8 0 1.7531e+06 -18971.9 0 1.72705e+06 29369.8 0 1.59866e+06 50369.3 0 1.43074e+06 56919.4 0 1.25915e+06 54466.2 0 1.10082e+06 48859.5 0 962260 41902.6 0 845210 34883.8 0 749246 28141.3 0 673182 21841.9 0 615669 15966.1 0 575512 10439.7 0 551795 5158.15 0 543954 0 0 1.28022e+06 -8.9407e-08 0 1.60431e+06 -85153.1 0 1.75472e+06 -20719.2 0 1.72799e+06 32036.7 0 1.59903e+06 54549.7 0 1.43076e+06 61724.8 0 1.25903e+06 58999.4 0 1.10063e+06 52942.5 0 962061 45391.5 0 845012 37790.9 0 749061 30484.5 0 673008 23660.6 0 615508 17295.6 0 575359 11308.8 0 551647 5587.68 0 543808 0 0 1.26676e+06 -3.57628e-07 0 1.60651e+06 -91647 0 1.75646e+06 -22520 0 1.72901e+06 34764.5 0 1.59942e+06 58721.7 0 1.43077e+06 66547.4 0 1.2589e+06 63530.1 0 1.10042e+06 57028.8 0 961845 48879.5 0 844798 40698.2 0 748861 32827.3 0 672821 25479 0 615333 18624.7 0 575193 12177.6 0 551487 6017.14 0 543651 0 0 1.25181e+06 1.43051e-06 0 1.60897e+06 -98098.5 0 1.75833e+06 -24384 0 1.73011e+06 37561.2 0 1.59985e+06 62882.7 0 1.43079e+06 71389.4 0 1.25876e+06 68057.5 0 1.1002e+06 61118.7 0 961615 52366.3 0 844567 43605.6 0 748646 35169.5 0 672620 27297.1 0 615146 19953.6 0 575015 13046.1 0 551315 6446.53 0 543481 0 0 </DataArray> 
</PointData> 
<Points> 
<DataArray type="Float32" NumberOfComponents="3"> 
0.19 0 0 0.2022 0 0 0.2144 0 0 0.2266 0 0 0.2388 0 0 0.251 0 0 0.2632 0 0 0.2754 0 0 0.2876 0 0 0.2998 0 0 0.312 0 0 0.3242 0 0 0.3364 0 0 0.3486 0 0 0.3608 0 0 0.373 0 0 0.19 0.000333333 0 0.2022 0.000333333 0 0.2144 0.000333333 0 0.2266 0.000333333 0 0.2388 0.000333333 0 0.251 0.000333333 0 0.2632 0.000333333 0 0.2754 0.000333333 0 0.2876 0.000333333 0 0.2998 0.000333333 0 0.312 0.000333333 0 0.3242 0.000333333 0 0.3364 0.000333333 0 0.3486 0.000333333 0 0.3608 0.000333333 0 0.373 0.000333333 0 0.19 0.000666667 0 0.2022 0.000666667 0 0.2144 0.000666667 0 0.2266 0.000666667 0 0.2388 0.000666667 0 0.251 0.000666667 0 0.2632 0.000666667 0 0.2754 0.000666667 0 0.2876 0.000666667 0 0.2998 0.000666667 0 0.312 0.000666667 0 0.3242 0.000666667 0 0.3364 0.000666667 0 0.3486 0.000666667 0 0.3608 0.000666667 0 0.373 0.000666667 0 0.19 0.001 0 0.2022 0.001 0 0.2144 0.001 0 0.2266 0.001 0 0.2388 0.001 0 0.251 0.001 0 0.2632 0.001 0 0.2754 0.001 0 0.2876 0.001 0 0.2998 0.001 0 0.312 0.001 0 0.3242 0.001 0 0.3364 0.001 0 0.3486 0.001 0 0.3608 0.001 0 0.373 0.001 0 0.19 0.00133333 0 0.2022 0.00133333 0 0.2144 0.00133333 0 0.2266 0.00133333 0 0.2388 0.00133333 0 0.251 0.00133333 0 0.2632 0.00133333 0 0.2754 0.00133333 0 0.2876 0.00133333 0 0.2998 0.00133333 0 0.312 0.00133333 0 0.3242 0.00133333 0 0.3364 0.00133333 0 0.3486 0.00133333 0 0.3608 0.00133333 0 0.373 0.00133333 0 0.19 0.00166667 0 0.2022 0.00166667 0 0.2144 0.00166667 0 0.2266 0.00166667 0 0.2388 0.00166667 0 0.251 0.00166667 0 0.2632 0.00166667 0 0.2754 0.00166667 0 0.2876 0.00166667 0 0.2998 0.00166667 0 0.312 0.00166667 0 0.3242 0.00166667 0 0.3364 0.00166667 0 0.3486 0.00166667 0 0.3608 0.00166667 0 0.373 0.00166667 0 0.19 0.002 0 0.2022 0.002 0 0.2144 0.002 0 0.2266 0.002 0 0.2388 0.002 0 0.251 0.002 0 0.2632 0.002 0 0.2754 0.002 0 0.2876 0.002 0 0.2998 0.002 0 0.312 0.002 0 0.3242 0.002 0 0.3364 0.002 0 0.3486 0.002 0 0.3608 0.002 0 0.373 0.002 0 0.19 0.00233333 0 0.2022 0.00233333 0 0.2144 0.00233333 0 0.2266 0.00233333 0 0.2388 0.00233333 0 0.251 0.00233333 0 0.2632 0.00233333 0 0.2754 0.00233333 0 0.2876 0.00233333 0 0.2998 0.00233333 0 0.312 0.00233333 0 0.3242 0.00233333 0 0.3364 0.00233333 0 0.3486 0.00233333 0 0.3608 0.00233333 0 0.373 0.00233333 0 0.19 0.00266667 0 0.2022 0.00266667 0 0.2144 0.00266667 0 0.2266 0.00266667 0 0.2388 0.00266667 0 0.251 0.00266667 0 0.2632 0.00266667 0 0.2754 0.00266667 0 0.2876 0.00266667 0 0.2998 0.00266667 0 0.312 0.00266667 0 0.3242 0.00266667 0 0.3364 0.00266667 0 0.3486 0.00266667 0 0.3608 0.00266667 0 0.373 0.00266667 0 0.19 0.003 0 0.2022 0.003 0 0.2144 0.003 0 0.2266 0.003 0 0.2388 0.003 0 0.251 0.003 0 0.2632 0.003 0 0.2754 0.003 0 0.2876 0.003 0 0.2998 0.003 0 0.312 0.003 0 0.3242 0.003 0 0.3364 0.003 0 0.3486 0.003 0 0.3608 0.003 0 0.373 0.003 0 0.19 0.00333333 0 0.2022 0.00333333 0 0.2144 0.00333333 0 0.2266 0.00333333 0 0.2388 0.00333333 0 0.251 0.00333333 0 0.2632 0.00333333 0 0.2754 0.00333333 0 0.2876 0.00333333 0 0.2998 0.00333333 0 0.312 0.00333333 0 0.3242 0.00333333 0 0.3364 0.00333333 0 0.3486 0.00333333 0 0.3608 0.00333333 0 0.373 0.00333333 0 0.19 0.00366667 0 0.2022 0.00366667 0 0.2144 0.00366667 0 0.2266 0.00366667 0 0.2388 0.00366667 0 0.251 0.00366667 0 0.2632 0.00366667 0 0.2754 0.00366667 0 0.2876 0.00366667 0 0.2998 0.00366667 0 0.312 0.00366667 0 0.3242 0.00366667 0 0.3364 0.00366667 0 0.3486 0.00366667 0 0.3608 0.00366667 0 0.373 0.00366667 0 0.19 0.004 0 0.2022 0.004 0 0.2144 0.004 0 0.2266 0.004 0 0.2388 0.004 0 0.251 0.004 0 0.2632 0.004 0 0.2754 0.004 0 0.2876 0.004 0 0.2998 0.004 0 0.312 0.004 0 0.3242 0.004 0 0.3364 0.004 0 0.3486 0.004 0 0.3608 0.004 0 0.373 0.004 0 0.19 0.00433333 0 0.2022 0.00433333 0 0.2144 0.00433333 0 0.2266 0.00433333 0 0.2388 0.00433333 0 0.251 0.00433333 0 0.2632 0.00433333 0 0.2754 0.00433333 0 0.2876 0.00433333 0 0.2998 0.00433333 0 0.312 0.00433333 0 0.3242 0.00433333 0 0.3364 0.00433333 0 0.3486 0.00433333 0 0.3608 0.00433333 0 0.373 0.00433333 0 0.19 0.00466667 0 0.2022 0.00466667 0 0.2144 0.00466667 0 0.2266 0.00466667 0 0.2388 0.00466667 0 0.251 0.00466667 0 0.2632 0.00466667 0 0.2754 0.00466667 0 0.2876 0.00466667 0 0.2998 0.00466667 0 0.312 0.00466667 0 0.3242 0.00466667 0 0.3364 0.00466667 0 0.3486 0.00466667 0 0.3608 0.00466667 0 0.373 0.00466667 0 0.19 0.005 0 0.2022 0.005 0 0.2144 0.005 0 0.2266 0.005 0 0.2388 0.005 0 0.251 0.005 0 0.2632 0.005 0 0.2754 0.005 0 0.2876 0.005 0 0.2998 0.005 0 0.312 0.005 0 0.3242 0.005 0 0.3364 0.005 0 0.3486 0.005 0 0.3608 0.005 0 0.373 0.005 0 
</DataArray>
</Points> 
</Piece> 
</StructuredGrid> 
</VTKFile> 
