<?xml version="1.0"?> 
<VTKFile type="StructuredGrid" version="0.1"> 
<StructuredGrid WholeExtent="0 15 0 15 0 0"> 
<Piece Extent="0 15 0 15 0 0"> 
<PointData>
<DataArray type="Float32" Name="E" format="ascii" NumberOfComponents="3"> 
3.69898e+06 -1.53217e+06 0 2.78003e+06 418432 0 2.13025e+06 681356 0 1.73549e+06 690613 0 1.45218e+06 647613 0 1.23314e+06 578034 0 1.05913e+06 503484 0 916775 430137 0 800854 361060 0 706309 297363 0 630526 238920 0 571100 185219 0 526475 135425 0 495408 88615.7 0 477092 43805.9 0 471041 0 0 4.09569e+06 -1.24726e+06 0 2.78363e+06 530246 0 2.11571e+06 747689 0 1.71149e+06 738226 0 1.42503e+06 687050 0 1.20503e+06 611207 0 1.03119e+06 533035 0 889923 456358 0 775460 384465 0 682553 317935 0 608347 256623 0 550285 199895 0 506672 146873 0 476149 96577.6 0 457795 47972.5 0 451008 0 0 4.43336e+06 -879035 0 2.78534e+06 643732 0 2.10072e+06 813860 0 1.68789e+06 787254 0 1.39808e+06 727104 0 1.17718e+06 645151 0 1.00324e+06 562994 0 862896 482785 0 749600 407844 0 658078 338312 0 585169 274012 0 528209 214197 0 485351 157944 0 455133 104222 0 436518 51944.9 0 428795 0 0 4.70278e+06 -445386 0 2.78613e+06 758956 0 2.08562e+06 880146 0 1.66477e+06 837820 0 1.37149e+06 767809 0 1.1496e+06 679935 0 975312 593380 0 835674 509463 0 723265 431233 0 632875 358537 0 560998 291127 0 504892 228162 0 462553 168673 0 432419 111576 0 413341 55740.1 0 404498 0 0 4.89778e+06 33661.7 0 2.78676e+06 876141 0 2.07067e+06 946998 0 1.6422e+06 889955 0 1.34539e+06 809273 0 1.12228e+06 715611 0 947428 624237 0 808238 536438 0 696456 454674 0 606943 378653 0 535849 308010 0 480367 241831 0 438330 179094 0 408080 118668 0 388355 59374.2 0 378227 0 0 5.01588e+06 537280 0 2.78767e+06 995594 0 2.05606e+06 1.01499e+06 0 1.62026e+06 943604 0 1.31989e+06 851663 0 1.09523e+06 752206 0 919625 655629 0 780578 563755 0 669182 478214 0 580289 398705 0 509751 324702 0 454678 255240 0 412747 189239 0 382202 125520 0 361665 62861.4 0 350103 0 0 5.05846e+06 1.04534e+06 0 2.78895e+06 1.11767e+06 0 2.04195e+06 1.08473e+06 0 1.59903e+06 998669 0 1.29508e+06 895182 0 1.06845e+06 789732 0 891928 687636 0 752694 591458 0 641457 501905 0 552933 418737 0 482743 341245 0 427880 268425 0 385880 199137 0 354881 132156 0 333388 66213.7 0 320256 0 0 5.03041e+06 1.53979e+06 0 2.79027e+06 1.24272e+06 0 2.02839e+06 1.15678e+06 0 1.57862e+06 1.05507e+06 0 1.27099e+06 940035 0 1.04199e+06 828200 0 864354 720345 0 724598 619591 0 613302 525801 0 524903 438790 0 454870 357675 0 400039 281417 0 357818 208812 0 326225 138593 0 303648 69440.7 0 288827 0 0 4.93947e+06 2.00577e+06 0 2.79093e+06 1.37105e+06 0 2.01543e+06 1.23157e+06 0 1.55912e+06 1.11277e+06 0 1.24763e+06 986392 0 1.01589e+06 867638 0 836912 753840 0 696312 648198 0 584737 549956 0 496237 458906 0 426186 374029 0 371231 294243 0 328657 218286 0 296351 144843 0 272582 72549.2 0 255966 0 0 4.79523e+06 2.43218e+06 0 2.79e+06 1.50286e+06 0 2.00305e+06 1.30938e+06 0 1.54063e+06 1.17184e+06 0 1.22501e+06 1.03437e+06 0 990216 908096 0 809605 788192 0 667871 677332 0 555788 574418 0 466981 479122 0 396753 390338 0 341537 306926 0 298501 227573 0 265386 150917 0 240335 75543.1 0 221830 0 0 4.6082e+06 2.81179e+06 0 2.78634e+06 1.63815e+06 0 1.99121e+06 1.39031e+06 0 1.52322e+06 1.23242e+06 0 1.2031e+06 1.08403e+06 0 965026 949650 0 782443 823462 0 639312 707048 0 526483 599235 0 437184 499476 0 366635 406628 0 311046 319483 0 267460 236684 0 233462 156818 0 207059 78423.1 0 186588 0 0 4.38879e+06 3.14091e+06 0 2.77881e+06 1.7767e+06 0 1.97986e+06 1.47431e+06 0 1.5069e+06 1.2947e+06 0 1.18193e+06 1.13539e+06 0 940371 992393 0 755438 859696 0 610674 737405 0 496857 624447 0 406903 520000 0 335901 422920 0 279851 331926 0 235650 245622 0 200718 162545 0 172912 81186.8 0 150411 0 0 4.1466e+06 3.41869e+06 0 2.76636e+06 1.91802e+06 0 1.96893e+06 1.56125e+06 0 1.49165e+06 1.35888e+06 0 1.16149e+06 1.18843e+06 0 916288 1.03642e+06 0 728617 896933 0 581994 768461 0 466946 650092 0 376191 540725 0 304622 439232 0 248046 344262 0 203188 254387 0 167295 168093 0 138058 83828.3 0 113481 0 0 3.88983e+06 3.6463e+06 0 2.74817e+06 2.06133e+06 0 1.95832e+06 1.65094e+06 0 1.4774e+06 1.42515e+06 0 1.14184e+06 1.24313e+06 0 892807 1.08182e+06 0 702012 935211 0 553309 800270 0 436792 676205 0 345104 561676 0 272872 455575 0 215727 356492 0 170194 262970 0 133338 173451 0 102663 86338.3 0 75980.3 0 0 3.625e+06 3.8259e+06 0 2.72378e+06 2.20564e+06 0 1.94786e+06 1.74315e+06 0 1.46407e+06 1.49361e+06 0 1.123e+06 1.29946e+06 0 869951 1.12866e+06 0 675661 974568 0 524655 832883 0 406435 702820 0 313698 582878 0 240720 471957 0 182986 368612 0 136786 271359 0 98990.3 178602 0 66894.7 88704.5 0 38097.8 0 0 3.35681e+06 3.9598e+06 0 2.69315e+06 2.34973e+06 0 1.93733e+06 1.83766e+06 0 1.45159e+06 1.56429e+06 0 1.105e+06 1.35745e+06 0 847748 1.17698e+06 0 649600 1.01504e+06 0 496073 866346 0 375915 729969 0 282025 604351 0 208233 488383 0 149916 380615 0 103080 279538 0 64395 183528 0 30922 90911.1 0 22.9 0 0 </DataArray> 
</PointData> 
<Points> 
<DataArray type="Float32" NumberOfComponents="3"> 
0.2018 0.0378 0 0.213213 0.0378 0 0.224627 0.0378 0 0.23604 0.0378 0 0.247453 0.0378 0 0.258867 0.0378 0 0.27028 0.0378 0 0.281693 0.0378 0 0.293107 0.0378 0 0.30452 0.0378 0 0.315933 0.0378 0 0.327347 0.0378 0 0.33876 0.0378 0 0.350173 0.0378 0 0.361587 0.0378 0 0.373 0.0378 0 0.202132 0.0387243 0 0.21367 0.0389959 0 0.225188 0.039267 0 0.236684 0.0395377 0 0.248159 0.0398078 0 0.259613 0.0400774 0 0.271046 0.0403466 0 0.282458 0.0406152 0 0.293848 0.0408834 0 0.305218 0.041151 0 0.316567 0.0414182 0 0.327895 0.0416849 0 0.339202 0.041951 0 0.350489 0.0422167 0 0.361755 0.0424819 0 0.373 0.0427467 0 0.202372 0.0396816 0 0.214024 0.0402288 0 0.225636 0.040774 0 0.237207 0.0413173 0 0.248739 0.0418588 0 0.26023 0.0423983 0 0.271682 0.0429361 0 0.283095 0.0434719 0 0.294468 0.0440059 0 0.305802 0.0445381 0 0.317098 0.0450685 0 0.328355 0.0455971 0 0.339573 0.0461238 0 0.350753 0.0466488 0 0.361896 0.0471719 0 0.373 0.0476933 0 0.202516 0.0406675 0 0.214268 0.0414929 0 0.225964 0.0423142 0 0.237602 0.0431315 0 0.249185 0.0439449 0 0.260712 0.0447544 0 0.272183 0.04556 0 0.2836 0.0463618 0 0.294962 0.0471597 0 0.30627 0.0479538 0 0.317524 0.0487441 0 0.328724 0.0495307 0 0.339872 0.0503135 0 0.350967 0.0510927 0 0.362009 0.0518682 0 0.373 0.05264 0 0.20256 0.0416768 0 0.214399 0.0427819 0 0.226167 0.0438804 0 0.237865 0.0449724 0 0.249494 0.0460579 0 0.261054 0.047137 0 0.272546 0.0482097 0 0.28397 0.0492761 0 0.295327 0.0503362 0 0.306618 0.0513902 0 0.317843 0.052438 0 0.329002 0.0534797 0 0.340097 0.0545154 0 0.351128 0.055545 0 0.362096 0.0565688 0 0.373 0.0575867 0 0.202501 0.0427037 0 0.214412 0.044089 0 0.226242 0.0454648 0 0.237991 0.0468313 0 0.249661 0.0481886 0 0.261252 0.0495366 0 0.272765 0.0508757 0 0.284201 0.0522057 0 0.295561 0.0535269 0 0.306844 0.0548392 0 0.318053 0.0561428 0 0.329188 0.0574379 0 0.340249 0.0587243 0 0.351238 0.0600023 0 0.362155 0.061272 0 0.373 0.0625333 0 0.202338 0.0437422 0 0.214306 0.0454069 0 0.226186 0.0470593 0 0.237978 0.0486995 0 0.249684 0.0503277 0 0.261305 0.051944 0 0.27284 0.0535485 0 0.284292 0.0551414 0 0.295661 0.0567228 0 0.306948 0.0582927 0 0.318155 0.0598514 0 0.329281 0.061399 0 0.340327 0.0629355 0 0.351296 0.0644611 0 0.362186 0.0659759 0 0.373 0.06748 0 0.20207 0.044786 0 0.214081 0.0467281 0 0.225998 0.0486554 0 0.237825 0.0505679 0 0.249562 0.0524658 0 0.26121 0.0543493 0 0.272769 0.0562185 0 0.284241 0.0580737 0 0.295628 0.059915 0 0.306929 0.0617424 0 0.318146 0.0635563 0 0.329279 0.0653567 0 0.340331 0.0671438 0 0.351301 0.0689177 0 0.36219 0.0706786 0 0.373 0.0724267 0 0.201699 0.0458287 0 0.213735 0.0480451 0 0.225679 0.0502446 0 0.237532 0.0524272 0 0.249294 0.0545931 0 0.260967 0.0567427 0 0.272551 0.0588759 0 0.284049 0.0609932 0 0.29546 0.0630945 0 0.306785 0.0651801 0 0.318027 0.0672501 0 0.329185 0.0693048 0 0.34026 0.0713443 0 0.351254 0.0733688 0 0.362167 0.0753784 0 0.373 0.0773733 0 0.201227 0.0468638 0 0.213273 0.0493503 0 0.22523 0.0518184 0 0.237099 0.0542683 0 0.248881 0.0567003 0 0.260577 0.0591145 0 0.272188 0.0615111 0 0.283715 0.0638903 0 0.295158 0.0662523 0 0.306518 0.0685973 0 0.317798 0.0709255 0 0.328996 0.073237 0 0.340115 0.075532 0 0.351154 0.0778108 0 0.362116 0.0800734 0 0.373 0.08232 0 0.200657 0.0478849 0 0.212697 0.0506361 0 0.224654 0.0533685 0 0.236531 0.0560824 0 0.248327 0.0587779 0 0.260043 0.0614552 0 0.271681 0.0641145 0 0.283241 0.0667559 0 0.294723 0.0693798 0 0.306129 0.0719861 0 0.317459 0.0745751 0 0.328714 0.077147 0 0.339895 0.079702 0 0.351003 0.0822401 0 0.362037 0.0847616 0 0.373 0.0872667 0 0.199993 0.0488859 0 0.212011 0.0518954 0 0.223956 0.054887 0 0.23583 0.0578608 0 0.247634 0.060817 0 0.259368 0.0637556 0 0.271033 0.0666769 0 0.282629 0.0695811 0 0.294157 0.0724682 0 0.305618 0.0753384 0 0.317012 0.0781919 0 0.32834 0.0810288 0 0.339602 0.0838492 0 0.350799 0.0866534 0 0.361932 0.0894414 0 0.373 0.0922133 0 0.199243 0.0498611 0 0.211221 0.0531217 0 0.223141 0.0563664 0 0.235003 0.0595955 0 0.246808 0.062809 0 0.258556 0.066007 0 0.270248 0.0691896 0 0.281884 0.072357 0 0.293464 0.0755092 0 0.304989 0.0786465 0 0.316459 0.0817688 0 0.327874 0.0848762 0 0.339236 0.087969 0 0.350544 0.0910471 0 0.361798 0.0941108 0 0.373 0.09716 0 0.198412 0.0508053 0 0.210335 0.0543087 0 0.222216 0.0577999 0 0.234056 0.061279 0 0.245855 0.064746 0 0.257613 0.0682011 0 0.269331 0.0716443 0 0.281008 0.0750756 0 0.292646 0.0784951 0 0.304243 0.0819029 0 0.3158 0.085299 0 0.327319 0.0886835 0 0.338797 0.0920565 0 0.350237 0.095418 0 0.361638 0.098768 0 0.373 0.102107 0 0.197508 0.0517137 0 0.209359 0.0554509 0 0.221188 0.0591811 0 0.232995 0.0629044 0 0.244781 0.0666209 0 0.256545 0.0703305 0 0.268287 0.0740332 0 0.280007 0.0777291 0 0.291706 0.0814183 0 0.303384 0.0851006 0 0.31504 0.0887762 0 0.326674 0.0924451 0 0.338288 0.0961072 0 0.34988 0.0997626 0 0.36145 0.103411 0 0.373 0.107053 0 0.196538 0.0525823 0 0.208302 0.0565435 0 0.220066 0.0605047 0 0.23183 0.0644659 0 0.243594 0.068427 0 0.255359 0.0723882 0 0.267123 0.0763494 0 0.278887 0.0803106 0 0.290651 0.0842717 0 0.302415 0.0882329 0 0.314179 0.0921941 0 0.325943 0.0961553 0 0.337708 0.100116 0 0.349472 0.104078 0 0.361236 0.108039 0 0.373 0.112 0 
</DataArray>
</Points> 
</Piece> 
</StructuredGrid> 
</VTKFile> 
