<?xml version="1.0"?> 
<VTKFile type="StructuredGrid" version="0.1"> 
<StructuredGrid WholeExtent="0 63 0 63 0 0"> 
<Piece Extent="0 63 0 63 0 0"> 
<PointData>
<DataArray type="Float32" Name="|E|" format="ascii" NumberOfComponents="3"> 
932620 -387822 0 1.2225e+06 -306131 0 1.30492e+06 -312327 0 1.3855e+06 -298962 0 1.4431e+06 -284507 0 1.49533e+06 -267404 0 1.53986e+06 -249218 0 1.57962e+06 -230192 0 1.61472e+06 -210668 0 1.64583e+06 -190873 0 1.67317e+06 -170989 0 1.69699e+06 -151179 0 1.71744e+06 -131578 0 1.73466e+06 -112312 0 1.74878e+06 -93489.8 0 1.75994e+06 -75210.8 0 1.76825e+06 -57560 0 1.77387e+06 -40610.2 0 1.77693e+06 -24421.4 0 1.77757e+06 -9040.72 0 1.77596e+06 5497.28 0 1.77223e+06 19169.7 0 1.76654e+06 31964.8 0 1.75905e+06 43880.6 0 1.74989e+06 54924.1 0 1.73921e+06 65109.7 0 1.72715e+06 74458.4 0 1.71385e+06 82996.3 0 1.69941e+06 90753.6 0 1.68397e+06 97763.6 0 1.66763e+06 104062 0 1.65051e+06 109686 0 1.63269e+06 114673 0 1.61426e+06 119061 0 1.59532e+06 122888 0 1.57594e+06 126190 0 1.55619e+06 129005 0 1.53613e+06 131366 0 1.51584e+06 133306 0 1.49536e+06 134859 0 1.47475e+06 136053 0 1.45405e+06 136919 0 1.4333e+06 137481 0 1.41255e+06 137767 0 1.39183e+06 137799 0 1.37116e+06 137600 0 1.35059e+06 137191 0 1.33014e+06 136590 0 1.30982e+06 135815 0 1.28967e+06 134884 0 1.2697e+06 133811 0 1.24992e+06 132610 0 1.23036e+06 131294 0 1.21103e+06 129875 0 1.19193e+06 128365 0 1.17308e+06 126773 0 1.15449e+06 125109 0 1.13617e+06 123381 0 1.11813e+06 121597 0 1.10036e+06 119764 0 1.08288e+06 117889 0 1.06569e+06 115977 0 1.04879e+06 114035 0 1.03219e+06 112065 0 975360 -405595 0 1.22323e+06 -324107 0 1.31137e+06 -320815 0 1.3895e+06 -305764 0 1.44758e+06 -289859 0 1.49937e+06 -271913 0 1.54383e+06 -253045 0 1.5834e+06 -233467 0 1.61835e+06 -213465 0 1.64929e+06 -193239 0 1.67647e+06 -172961 0 1.70012e+06 -152782 0 1.72039e+06 -132835 0 1.73743e+06 -113242 0 1.75137e+06 -94111.7 0 1.76233e+06 -75541.8 0 1.77046e+06 -57617.9 0 1.77589e+06 -40412.7 0 1.77876e+06 -23986.1 0 1.77922e+06 -8385.16 0 1.77742e+06 6355.76 0 1.77352e+06 20214.2 0 1.76766e+06 33178.9 0 1.76001e+06 45248.7 0 1.7507e+06 56431 0 1.73988e+06 66741.2 0 1.72768e+06 76201.1 0 1.71425e+06 84837.6 0 1.6997e+06 92681.7 0 1.68414e+06 99767.7 0 1.66771e+06 106132 0 1.65049e+06 111812 0 1.63258e+06 116847 0 1.61408e+06 121275 0 1.59507e+06 125135 0 1.57563e+06 128463 0 1.55582e+06 131298 0 1.53572e+06 133673 0 1.51538e+06 135623 0 1.49486e+06 137180 0 1.47421e+06 138375 0 1.45348e+06 139237 0 1.43271e+06 139793 0 1.41194e+06 140069 0 1.3912e+06 140089 0 1.37052e+06 139874 0 1.34994e+06 139447 0 1.32947e+06 138827 0 1.30915e+06 138031 0 1.28899e+06 137077 0 1.26902e+06 135979 0 1.24924e+06 134752 0 1.22968e+06 133410 0 1.21035e+06 131963 0 1.19126e+06 130424 0 1.17241e+06 128802 0 1.15383e+06 127108 0 1.13552e+06 125349 0 1.11748e+06 123533 0 1.09972e+06 121669 0 1.08225e+06 119761 0 1.06507e+06 117817 0 1.04818e+06 115842 0 1.03159e+06 113840 0 1.0118e+06 -420749 0 1.22651e+06 -340143 0 1.31766e+06 -329245 0 1.39381e+06 -312420 0 1.45212e+06 -295150 0 1.5035e+06 -276367 0 1.54785e+06 -256830 0 1.58723e+06 -236704 0 1.62202e+06 -216225 0 1.6528e+06 -195571 0 1.67981e+06 -174899 0 1.70328e+06 -154352 0 1.72337e+06 -134059 0 1.74023e+06 -114139 0 1.75398e+06 -94700.7 0 1.76475e+06 -75840.5 0 1.77269e+06 -57644.1 0 1.77792e+06 -40184.3 0 1.7806e+06 -23520.9 0 1.78088e+06 -7700.82 0 1.7789e+06 7241.79 0 1.77482e+06 21285 0 1.7688e+06 34417.9 0 1.76098e+06 46640.1 0 1.75152e+06 57959.8 0 1.74055e+06 68393.2 0 1.72822e+06 77962.8 0 1.71466e+06 86696.5 0 1.69998e+06 94626.1 0 1.68432e+06 101787 0 1.66778e+06 108216 0 1.65047e+06 113951 0 1.63248e+06 119033 0 1.6139e+06 123499 0 1.59482e+06 127391 0 1.57531e+06 130744 0 1.55545e+06 133598 0 1.5353e+06 135987 0 1.51491e+06 137945 0 1.49436e+06 139506 0 1.47367e+06 140701 0 1.45291e+06 141559 0 1.43212e+06 142108 0 1.41132e+06 142374 0 1.39056e+06 142380 0 1.36987e+06 142150 0 1.34928e+06 141706 0 1.3288e+06 141065 0 1.30848e+06 140248 0 1.28831e+06 139270 0 1.26834e+06 138148 0 1.24856e+06 136895 0 1.229e+06 135525 0 1.20967e+06 134050 0 1.19058e+06 132482 0 1.17174e+06 130831 0 1.15317e+06 129106 0 1.13486e+06 127316 0 1.11683e+06 125469 0 1.09908e+06 123572 0 1.08162e+06 121632 0 1.06445e+06 119656 0 1.04757e+06 117648 0 1.03099e+06 115613 0 1.0433e+06 -433848 0 1.23164e+06 -354580 0 1.3239e+06 -337540 0 1.39838e+06 -318934 0 1.45672e+06 -300375 0 1.50773e+06 -280766 0 1.55192e+06 -260569 0 1.59111e+06 -239901 0 1.62574e+06 -218948 0 1.65634e+06 -197867 0 1.68318e+06 -176802 0 1.70647e+06 -155888 0 1.72638e+06 -135249 0 1.74305e+06 -115003 0 1.75661e+06 -95256.5 0 1.7672e+06 -76106.6 0 1.77494e+06 -57638.4 0 1.77998e+06 -39924.8 0 1.78247e+06 -23025.6 0 1.78256e+06 -6987.52 0 1.78039e+06 8155.54 0 1.77614e+06 22382.1 0 1.76994e+06 35681.9 0 1.76196e+06 48055 0 1.75234e+06 59510.7 0 1.74123e+06 70065.8 0 1.72876e+06 79743.7 0 1.71507e+06 88573.1 0 1.70028e+06 96586.8 0 1.68451e+06 103821 0 1.66787e+06 110313 0 1.65046e+06 116102 0 1.63238e+06 121229 0 1.61373e+06 125734 0 1.59457e+06 129656 0 1.575e+06 133034 0 1.55508e+06 135905 0 1.53488e+06 138307 0 1.51445e+06 140273 0 1.49385e+06 141838 0 1.47314e+06 143032 0 1.45234e+06 143885 0 1.43152e+06 144426 0 1.4107e+06 144681 0 1.38993e+06 144674 0 1.36922e+06 144428 0 1.34861e+06 143965 0 1.32813e+06 143305 0 1.3078e+06 142465 0 1.28763e+06 141464 0 1.26765e+06 140317 0 1.24787e+06 139038 0 1.22831e+06 137640 0 1.20899e+06 136137 0 1.1899e+06 134540 0 1.17107e+06 132859 0 1.1525e+06 131103 0 1.1342e+06 129282 0 1.11617e+06 127403 0 1.09843e+06 125475 0 1.08098e+06 123503 0 1.06382e+06 121493 0 1.04695e+06 119452 0 1.03038e+06 117385 0 1.0709e+06 -445323 0 1.23808e+06 -367660 0 1.33015e+06 -345653 0 1.40317e+06 -325309 0 1.46138e+06 -305529 0 1.51203e+06 -285108 0 1.55605e+06 -264264 0 1.59504e+06 -243057 0 1.6295e+06 -221633 0 1.65992e+06 -200127 0 1.68659e+06 -178670 0 1.7097e+06 -157389 0 1.72943e+06 -136405 0 1.74591e+06 -115833 0 1.75928e+06 -95779.1 0 1.76967e+06 -76339.9 0 1.77721e+06 -57600.5 0 1.78206e+06 -39634 0 1.78436e+06 -22500 0 1.78425e+06 -6245.1 0 1.7819e+06 9097.16 0 1.77747e+06 23505.7 0 1.7711e+06 36970.9 0 1.76296e+06 49493.6 0 1.75318e+06 61083.7 0 1.74192e+06 71759 0 1.72931e+06 81543.7 0 1.71549e+06 90467.4 0 1.70058e+06 98563.8 0 1.68469e+06 105870 0 1.66795e+06 112424 0 1.65045e+06 118266 0 1.63228e+06 123437 0 1.61355e+06 127979 0 1.59433e+06 131930 0 1.57469e+06 135331 0 1.55471e+06 138220 0 1.53446e+06 140633 0 1.51398e+06 142607 0 1.49335e+06 144174 0 1.47259e+06 145367 0 1.45177e+06 146215 0 1.43092e+06 146748 0 1.41009e+06 146991 0 1.38929e+06 146970 0 1.36857e+06 146708 0 1.34795e+06 146226 0 1.32746e+06 145545 0 1.30712e+06 144684 0 1.28694e+06 143659 0 1.26696e+06 142486 0 1.24718e+06 141180 0 1.22763e+06 139755 0 1.2083e+06 138224 0 1.18922e+06 136597 0 1.17039e+06 134886 0 1.15183e+06 133100 0 1.13353e+06 131247 0 1.11552e+06 129337 0 1.09778e+06 127376 0 1.08034e+06 125371 0 1.06319e+06 123329 0 1.04633e+06 121256 0 1.02977e+06 119155 0 1.09538e+06 -455503 0 1.24544e+06 -379589 0 1.33646e+06 -353554 0 1.40815e+06 -331547 0 1.46612e+06 -310609 0 1.51641e+06 -289393 0 1.56024e+06 -267912 0 1.59902e+06 -246173 0 1.6333e+06 -224281 0 1.66355e+06 -202351 0 1.69003e+06 -180503 0 1.71296e+06 -158855 0 1.7325e+06 -137526 0 1.74879e+06 -116629 0 1.76197e+06 -96268 0 1.77216e+06 -76540.1 0 1.77951e+06 -57530.4 0 1.78416e+06 -39311.7 0 1.78626e+06 -21943.9 0 1.78596e+06 -5473.37 0 1.78343e+06 10066.8 0 1.77881e+06 24656 0 1.77227e+06 38285.2 0 1.76396e+06 50955.9 0 1.75403e+06 62679 0 1.74262e+06 73473 0 1.72987e+06 83363 0 1.71591e+06 92379.6 0 1.70088e+06 100557 0 1.68488e+06 107934 0 1.66803e+06 114548 0 1.65044e+06 120442 0 1.63219e+06 125657 0 1.61337e+06 130234 0 1.59408e+06 134214 0 1.57438e+06 137637 0 1.55434e+06 140542 0 1.53404e+06 142966 0 1.51352e+06 144946 0 1.49284e+06 146515 0 1.47205e+06 147706 0 1.4512e+06 148549 0 1.43033e+06 149072 0 1.40946e+06 149304 0 1.38865e+06 149269 0 1.36791e+06 148990 0 1.34728e+06 148489 0 1.32678e+06 147787 0 1.30643e+06 146903 0 1.28626e+06 145853 0 1.26627e+06 144655 0 1.24649e+06 143323 0 1.22693e+06 141870 0 1.20761e+06 140310 0 1.18853e+06 138654 0 1.16971e+06 136913 0 1.15115e+06 135095 0 1.13286e+06 133212 0 1.11486e+06 131269 0 1.09713e+06 129276 0 1.0797e+06 127239 0 1.06255e+06 125165 0 1.04571e+06 123058 0 1.02916e+06 120924 0 1.11735e+06 -464640 0 1.25343e+06 -390535 0 1.34284e+06 -361227 0 1.41329e+06 -337649 0 1.47093e+06 -315612 0 1.52087e+06 -293619 0 1.56447e+06 -271513 0 1.60305e+06 -249247 0 1.63714e+06 -226891 0 1.66721e+06 -204539 0 1.69351e+06 -182300 0 1.71626e+06 -160287 0 1.73561e+06 -138613 0 1.75171e+06 -117391 0 1.76468e+06 -96723.1 0 1.77468e+06 -76707 0 1.78182e+06 -57427.6 0 1.78628e+06 -38957.8 0 1.78818e+06 -21357.2 0 1.78769e+06 -4672.18 0 1.78497e+06 11064.6 0 1.78017e+06 25833 0 1.77345e+06 39624.8 0 1.76497e+06 52442.1 0 1.75488e+06 64296.6 0 1.74332e+06 75207.8 0 1.73043e+06 85201.7 0 1.71634e+06 94309.6 0 1.70119e+06 102567 0 1.68508e+06 110013 0 1.66812e+06 116687 0 1.65043e+06 122631 0 1.63209e+06 127888 0 1.6132e+06 132499 0 1.59383e+06 136506 0 1.57407e+06 139951 0 1.55397e+06 142871 0 1.53361e+06 145306 0 1.51305e+06 147291 0 1.49233e+06 148862 0 1.47151e+06 150049 0 1.45063e+06 150886 0 1.42972e+06 151400 0 1.40884e+06 151620 0 1.38801e+06 151569 0 1.36725e+06 151273 0 1.34661e+06 150753 0 1.3261e+06 150030 0 1.30574e+06 149123 0 1.28556e+06 148049 0 1.26557e+06 146825 0 1.24579e+06 145466 0 1.22624e+06 143985 0 1.20692e+06 142396 0 1.18784e+06 140710 0 1.16902e+06 138938 0 1.15047e+06 137090 0 1.13219e+06 135175 0 1.11419e+06 133201 0 1.09647e+06 131176 0 1.07905e+06 129106 0 1.06192e+06 126998 0 1.04508e+06 124859 0 1.02854e+06 122692 0 1.13729e+06 -472931 0 1.26185e+06 -400635 0 1.34931e+06 -368662 0 1.41857e+06 -343617 0 1.4758e+06 -320537 0 1.52539e+06 -297787 0 1.56877e+06 -275066 0 1.60712e+06 -252279 0 1.64103e+06 -229461 0 1.67091e+06 -206690 0 1.69702e+06 -184061 0 1.71958e+06 -161683 0 1.73874e+06 -139665 0 1.75464e+06 -118118 0 1.76742e+06 -97144.1 0 1.77722e+06 -76840.5 0 1.78416e+06 -57292.1 0 1.78841e+06 -38572 0 1.79012e+06 -20739.7 0 1.78943e+06 -3841.34 0 1.78652e+06 12090.8 0 1.78154e+06 27037.1 0 1.77464e+06 40989.9 0 1.76599e+06 53952.3 0 1.75574e+06 65936.7 0 1.74403e+06 76963.5 0 1.731e+06 87059.7 0 1.71678e+06 96257.6 0 1.7015e+06 104594 0 1.68527e+06 112107 0 1.66821e+06 118839 0 1.65042e+06 124832 0 1.632e+06 130130 0 1.61303e+06 134774 0 1.59359e+06 138808 0 1.57376e+06 142273 0 1.5536e+06 145208 0 1.53319e+06 147652 0 1.51258e+06 149642 0 1.49182e+06 151213 0 1.47096e+06 152397 0 1.45005e+06 153227 0 1.42912e+06 153731 0 1.40821e+06 153938 0 1.38736e+06 153872 0 1.36659e+06 153558 0 1.34594e+06 153018 0 1.32542e+06 152274 0 1.30505e+06 151343 0 1.28487e+06 150245 0 1.26488e+06 148995 0 1.2451e+06 147609 0 1.22554e+06 146100 0 1.20622e+06 144482 0 1.18715e+06 142766 0 1.16834e+06 140964 0 1.14979e+06 139084 0 1.13152e+06 137138 0 1.11352e+06 135131 0 1.09581e+06 133074 0 1.0784e+06 130972 0 1.06127e+06 128831 0 1.04445e+06 126658 0 1.02792e+06 124459 0 1.15556e+06 -480529 0 1.27055e+06 -410004 0 1.35586e+06 -375858 0 1.42398e+06 -349451 0 1.48076e+06 -325381 0 1.52998e+06 -301894 0 1.57311e+06 -278570 0 1.61125e+06 -255268 0 1.64496e+06 -231993 0 1.67465e+06 -208803 0 1.70057e+06 -185786 0 1.72294e+06 -163044 0 1.74191e+06 -140682 0 1.75761e+06 -118810 0 1.77019e+06 -97530.8 0 1.77978e+06 -76940.2 0 1.78652e+06 -57123.6 0 1.79057e+06 -38154.1 0 1.79207e+06 -20091.2 0 1.79119e+06 -2980.7 0 1.78809e+06 13145.4 0 1.78292e+06 28268.1 0 1.77584e+06 42380.6 0 1.76702e+06 55486.5 0 1.75661e+06 67599.3 0 1.74474e+06 78740.3 0 1.73157e+06 88937.3 0 1.71722e+06 98223.7 0 1.70181e+06 106637 0 1.68547e+06 114216 0 1.66831e+06 121005 0 1.65042e+06 127046 0 1.63191e+06 132383 0 1.61285e+06 137060 0 1.59334e+06 141120 0 1.57344e+06 144604 0 1.55323e+06 147552 0 1.53277e+06 150005 0 1.51211e+06 151999 0 1.49131e+06 153569 0 1.47041e+06 154750 0 1.44947e+06 155572 0 1.42852e+06 156066 0 1.40759e+06 156259 0 1.38671e+06 156177 0 1.36593e+06 155845 0 1.34526e+06 155285 0 1.32473e+06 154519 0 1.30436e+06 153565 0 1.28417e+06 152441 0 1.26417e+06 151165 0 1.24439e+06 149752 0 1.22484e+06 148215 0 1.20552e+06 146567 0 1.18645e+06 144821 0 1.16764e+06 142988 0 1.1491e+06 141078 0 1.13084e+06 139099 0 1.11285e+06 137061 0 1.09515e+06 134971 0 1.07774e+06 132836 0 1.06063e+06 130663 0 1.04381e+06 128457 0 1.0273e+06 126224 0 1.17245e+06 -487555 0 1.27942e+06 -418738 0 1.3625e+06 -382818 0 1.42949e+06 -355154 0 1.48577e+06 -330144 0 1.53463e+06 -305940 0 1.5775e+06 -282026 0 1.61542e+06 -258215 0 1.64893e+06 -234485 0 1.67842e+06 -210880 0 1.70416e+06 -187475 0 1.72633e+06 -164368 0 1.7451e+06 -141664 0 1.76061e+06 -119467 0 1.77298e+06 -97882.9 0 1.78237e+06 -77005.9 0 1.7889e+06 -56921.9 0 1.79274e+06 -37703.9 0 1.79405e+06 -19411.5 0 1.79296e+06 -2090.06 0 1.78967e+06 14228.7 0 1.78431e+06 29526.5 0 1.77706e+06 43797 0 1.76807e+06 57045 0 1.75749e+06 69284.6 0 1.74547e+06 80538.1 0 1.73215e+06 90834.5 0 1.71766e+06 100208 0 1.70213e+06 108696 0 1.68567e+06 116341 0 1.6684e+06 123185 0 1.65042e+06 129273 0 1.63181e+06 134649 0 1.61268e+06 139356 0 1.59309e+06 143440 0 1.57313e+06 146942 0 1.55286e+06 149904 0 1.53234e+06 152364 0 1.51164e+06 154361 0 1.4908e+06 155931 0 1.46987e+06 157107 0 1.44889e+06 157921 0 1.42791e+06 158403 0 1.40695e+06 158583 0 1.38606e+06 158485 0 1.36526e+06 158134 0 1.34458e+06 157554 0 1.32404e+06 156765 0 1.30366e+06 155787 0 1.28347e+06 154638 0 1.26347e+06 153336 0 1.24369e+06 151894 0 1.22413e+06 150329 0 1.20482e+06 148652 0 1.18575e+06 146876 0 1.16695e+06 145012 0 1.14841e+06 143070 0 1.13015e+06 141060 0 1.11217e+06 138990 0 1.09448e+06 136867 0 1.07708e+06 134699 0 1.05998e+06 132493 0 1.04317e+06 130254 0 1.02667e+06 127988 0 1.1882e+06 -494102 0 1.28837e+06 -426916 0 1.36921e+06 -389548 0 1.4351e+06 -360727 0 1.49086e+06 -334825 0 1.53934e+06 -309926 0 1.58195e+06 -285432 0 1.61963e+06 -261119 0 1.65294e+06 -236938 0 1.68223e+06 -212918 0 1.70778e+06 -189127 0 1.72976e+06 -165657 0 1.74833e+06 -142609 0 1.76363e+06 -120089 0 1.7758e+06 -98200.2 0 1.78498e+06 -77037.4 0 1.79131e+06 -56686.7 0 1.79494e+06 -37221.2 0 1.79604e+06 -18700.3 0 1.79475e+06 -1169.27 0 1.79126e+06 15340.8 0 1.78571e+06 30812.1 0 1.77828e+06 45239.3 0 1.76911e+06 58627.7 0 1.75837e+06 70992.6 0 1.7462e+06 82357.2 0 1.73273e+06 92751.3 0 1.71811e+06 102210 0 1.70245e+06 110773 0 1.68588e+06 118481 0 1.6685e+06 125379 0 1.65042e+06 131512 0 1.63172e+06 136925 0 1.61251e+06 141663 0 1.59285e+06 145770 0 1.57282e+06 149290 0 1.55249e+06 152263 0 1.53192e+06 154730 0 1.51116e+06 156730 0 1.49028e+06 158297 0 1.46931e+06 159468 0 1.44831e+06 160273 0 1.4273e+06 160744 0 1.40632e+06 160909 0 1.38541e+06 160794 0 1.36459e+06 160425 0 1.3439e+06 159824 0 1.32335e+06 159012 0 1.30296e+06 158010 0 1.28276e+06 156836 0 1.26276e+06 155507 0 1.24298e+06 154037 0 1.22342e+06 152443 0 1.20411e+06 150737 0 1.18505e+06 148930 0 1.16625e+06 147036 0 1.14772e+06 145062 0 1.12947e+06 143020 0 1.1115e+06 140917 0 1.09381e+06 138762 0 1.07642e+06 136561 0 1.05933e+06 134322 0 1.04253e+06 132050 0 1.02603e+06 129750 0 1.20298e+06 -500248 0 1.29735e+06 -434607 0 1.37598e+06 -396054 0 1.4408e+06 -366172 0 1.49601e+06 -339424 0 1.54411e+06 -313850 0 1.58644e+06 -288788 0 1.62389e+06 -263978 0 1.65699e+06 -239350 0 1.68608e+06 -214918 0 1.71143e+06 -190742 0 1.73321e+06 -166909 0 1.75158e+06 -143519 0 1.76668e+06 -120676 0 1.77864e+06 -98482.4 0 1.78761e+06 -77034.5 0 1.79373e+06 -56417.9 0 1.79715e+06 -36705.8 0 1.79804e+06 -17957.6 0 1.79656e+06 -218.145 0 1.79287e+06 16481.9 0 1.78713e+06 32125.3 0 1.77951e+06 46707.5 0 1.77017e+06 60234.9 0 1.75926e+06 72723.4 0 1.74693e+06 84197.5 0 1.73332e+06 94687.8 0 1.71856e+06 104230 0 1.70278e+06 112866 0 1.68609e+06 120636 0 1.6686e+06 127587 0 1.65042e+06 133764 0 1.63163e+06 139213 0 1.61233e+06 143980 0 1.5926e+06 148109 0 1.5725e+06 151645 0 1.55211e+06 154629 0 1.53149e+06 157103 0 1.51069e+06 159104 0 1.48976e+06 160669 0 1.46876e+06 161833 0 1.44772e+06 162630 0 1.42668e+06 163088 0 1.40568e+06 163238 0 1.38475e+06 163106 0 1.36392e+06 162717 0 1.34321e+06 162095 0 1.32265e+06 161261 0 1.30226e+06 160234 0 1.28205e+06 159034 0 1.26205e+06 157678 0 1.24226e+06 156180 0 1.22271e+06 154557 0 1.2034e+06 152821 0 1.18434e+06 150984 0 1.16555e+06 149058 0 1.14702e+06 147053 0 1.12878e+06 144979 0 1.11081e+06 142844 0 1.09314e+06 140656 0 1.07576e+06 138422 0 1.05867e+06 136150 0 1.04188e+06 133845 0 1.0254e+06 131512 0 1.21693e+06 -506052 0 1.30632e+06 -441869 0 1.38281e+06 -402346 0 1.44657e+06 -371492 0 1.50122e+06 -343941 0 1.54893e+06 -317713 0 1.59098e+06 -292094 0 1.6282e+06 -266794 0 1.66108e+06 -241722 0 1.68997e+06 -216880 0 1.71512e+06 -192320 0 1.7367e+06 -168125 0 1.75487e+06 -144393 0 1.76976e+06 -121227 0 1.78151e+06 -98729.3 0 1.79027e+06 -76996.9 0 1.79617e+06 -56115.2 0 1.79939e+06 -36157.5 0 1.80007e+06 -17183.1 0 1.79838e+06 763.489 0 1.79449e+06 17652 0 1.78856e+06 33466.1 0 1.78075e+06 48201.8 0 1.77124e+06 61866.5 0 1.76016e+06 74477.2 0 1.74767e+06 86059.1 0 1.73392e+06 96644.1 0 1.71902e+06 106269 0 1.70311e+06 114976 0 1.6863e+06 122807 0 1.6687e+06 129809 0 1.65042e+06 136029 0 1.63154e+06 141513 0 1.61216e+06 146307 0 1.59235e+06 150458 0 1.57219e+06 154009 0 1.55174e+06 157003 0 1.53106e+06 159482 0 1.51021e+06 161484 0 1.48924e+06 163046 0 1.4682e+06 164203 0 1.44713e+06 164990 0 1.42607e+06 165436 0 1.40505e+06 165570 0 1.3841e+06 165420 0 1.36325e+06 165012 0 1.34253e+06 164368 0 1.32195e+06 163510 0 1.30155e+06 162459 0 1.28134e+06 161233 0 1.26133e+06 159849 0 1.24155e+06 158323 0 1.22199e+06 156671 0 1.20268e+06 154905 0 1.18363e+06 153038 0 1.16484e+06 151080 0 1.14632e+06 149044 0 1.12808e+06 146937 0 1.11013e+06 144770 0 1.09246e+06 142549 0 1.07509e+06 140282 0 1.05801e+06 137977 0 1.04123e+06 135638 0 1.02476e+06 133272 0 1.23019e+06 -511563 0 1.31525e+06 -448748 0 1.38968e+06 -408433 0 1.45241e+06 -376689 0 1.50649e+06 -348377 0 1.55381e+06 -321515 0 1.59557e+06 -295349 0 1.63254e+06 -269566 0 1.66521e+06 -244053 0 1.6939e+06 -218803 0 1.71884e+06 -193860 0 1.74022e+06 -169303 0 1.75818e+06 -145230 0 1.77286e+06 -121741 0 1.7844e+06 -98940.7 0 1.79295e+06 -76924.4 0 1.79864e+06 -55778.4 0 1.80164e+06 -35576.1 0 1.80211e+06 -16376.6 0 1.80021e+06 1775.81 0 1.79612e+06 18851.5 0 1.79e+06 34834.7 0 1.78201e+06 49722.4 0 1.77231e+06 63522.8 0 1.76107e+06 76254 0 1.74842e+06 87942.2 0 1.73451e+06 98620.2 0 1.71948e+06 108326 0 1.70344e+06 117102 0 1.68651e+06 124993 0 1.6688e+06 132046 0 1.65042e+06 138307 0 1.63145e+06 143824 0 1.61199e+06 148645 0 1.5921e+06 152816 0 1.57187e+06 156381 0 1.55136e+06 159385 0 1.53063e+06 161867 0 1.50973e+06 163869 0 1.48872e+06 165427 0 1.46765e+06 166578 0 1.44654e+06 167354 0 1.42545e+06 167786 0 1.4044e+06 167905 0 1.38343e+06 167737 0 1.36257e+06 167308 0 1.34183e+06 166642 0 1.32125e+06 165761 0 1.30084e+06 164684 0 1.28063e+06 163432 0 1.26062e+06 162021 0 1.24083e+06 160467 0 1.22127e+06 158785 0 1.20197e+06 156988 0 1.18292e+06 155090 0 1.16413e+06 153102 0 1.14562e+06 151033 0 1.12738e+06 148894 0 1.10944e+06 146694 0 1.09178e+06 144441 0 1.07441e+06 142141 0 1.05735e+06 139802 0 1.04058e+06 137430 0 1.02411e+06 135031 0 1.24283e+06 -516822 0 1.32413e+06 -455289 0 1.39659e+06 -414325 0 1.45831e+06 -381767 0 1.51182e+06 -352731 0 1.55874e+06 -325254 0 1.60021e+06 -298554 0 1.63693e+06 -272293 0 1.66937e+06 -246344 0 1.69786e+06 -220687 0 1.7226e+06 -195362 0 1.74377e+06 -170445 0 1.76153e+06 -146030 0 1.776e+06 -122220 0 1.78732e+06 -99116.3 0 1.79565e+06 -76816.7 0 1.80112e+06 -55407.3 0 1.80391e+06 -34961.4 0 1.80416e+06 -15538 0 1.80206e+06 2818.98 0 1.79776e+06 20080.4 0 1.79144e+06 36231.2 0 1.78327e+06 51269.3 0 1.7734e+06 65203.9 0 1.76198e+06 78053.9 0 1.74918e+06 89846.7 0 1.73512e+06 100616 0 1.71994e+06 110402 0 1.70377e+06 119246 0 1.68672e+06 127195 0 1.66891e+06 134296 0 1.65043e+06 140597 0 1.63137e+06 146147 0 1.61182e+06 150994 0 1.59186e+06 155183 0 1.57156e+06 158762 0 1.55098e+06 161774 0 1.5302e+06 164260 0 1.50925e+06 166261 0 1.4882e+06 167814 0 1.46709e+06 168957 0 1.44595e+06 169721 0 1.42483e+06 170140 0 1.40376e+06 170242 0 1.38277e+06 170056 0 1.36189e+06 169606 0 1.34114e+06 168918 0 1.32055e+06 168012 0 1.30013e+06 166911 0 1.27991e+06 165631 0 1.25989e+06 164192 0 1.2401e+06 162610 0 1.22055e+06 160898 0 1.20125e+06 159072 0 1.1822e+06 157143 0 1.16342e+06 155122 0 1.14491e+06 153022 0 1.12668e+06 150851 0 1.10874e+06 148618 0 1.09109e+06 146331 0 1.07374e+06 143999 0 1.05668e+06 141627 0 1.03992e+06 139221 0 1.02347e+06 136788 0 1.25495e+06 -521861 0 1.33293e+06 -461526 0 1.40354e+06 -420032 0 1.46427e+06 -386728 0 1.51719e+06 -357005 0 1.56373e+06 -328933 0 1.60489e+06 -301708 0 1.64136e+06 -274975 0 1.67358e+06 -248593 0 1.70185e+06 -222532 0 1.72639e+06 -196826 0 1.74735e+06 -171549 0 1.7649e+06 -146793 0 1.77916e+06 -122661 0 1.79027e+06 -99255.8 0 1.79837e+06 -76673.7 0 1.80363e+06 -55001.6 0 1.80619e+06 -34313.1 0 1.80624e+06 -14667 0 1.80392e+06 3893.19 0 1.79942e+06 21338.9 0 1.7929e+06 37655.8 0 1.78454e+06 52842.7 0 1.77449e+06 66909.7 0 1.7629e+06 79877 0 1.74993e+06 91772.9 0 1.73573e+06 102632 0 1.72041e+06 112495 0 1.70411e+06 121406 0 1.68694e+06 129412 0 1.66901e+06 136560 0 1.65043e+06 142900 0 1.63128e+06 148482 0 1.61164e+06 153352 0 1.59161e+06 157560 0 1.57124e+06 161151 0 1.5506e+06 164170 0 1.52976e+06 166659 0 1.50877e+06 168658 0 1.48768e+06 170206 0 1.46652e+06 171340 0 1.44535e+06 172093 0 1.42421e+06 172497 0 1.40311e+06 172582 0 1.3821e+06 172377 0 1.3612e+06 171906 0 1.34044e+06 171195 0 1.31984e+06 170265 0 1.29941e+06 169138 0 1.27918e+06 167832 0 1.25917e+06 166365 0 1.23938e+06 164753 0 1.21982e+06 163012 0 1.20052e+06 161155 0 1.18148e+06 159194 0 1.1627e+06 157143 0 1.1442e+06 155010 0 1.12598e+06 152806 0 1.10804e+06 150541 0 1.0904e+06 148221 0 1.07306e+06 145855 0 1.05601e+06 143450 0 1.03926e+06 141011 0 1.02282e+06 138544 0 1.26661e+06 -526707 0 1.34165e+06 -467491 0 1.4105e+06 -425564 0 1.47028e+06 -391575 0 1.52262e+06 -361200 0 1.56875e+06 -332549 0 1.60962e+06 -304811 0 1.64583e+06 -277612 0 1.67783e+06 -250800 0 1.70589e+06 -224337 0 1.73021e+06 -198252 0 1.75097e+06 -172615 0 1.7683e+06 -147519 0 1.78234e+06 -123066 0 1.79323e+06 -99359 0 1.80112e+06 -76495 0 1.80615e+06 -54561.1 0 1.8085e+06 -33631 0 1.80832e+06 -13763.4 0 1.8058e+06 4998.62 0 1.80109e+06 22627.1 0 1.79437e+06 39108.6 0 1.78582e+06 54442.6 0 1.77558e+06 68640.6 0 1.76383e+06 81723.4 0 1.7507e+06 93720.7 0 1.73634e+06 104668 0 1.72088e+06 114608 0 1.70445e+06 123584 0 1.68716e+06 131645 0 1.66912e+06 138839 0 1.65043e+06 145217 0 1.63119e+06 150828 0 1.61147e+06 155722 0 1.59136e+06 159946 0 1.57092e+06 163549 0 1.55022e+06 166574 0 1.52933e+06 169064 0 1.50829e+06 171061 0 1.48715e+06 172604 0 1.46596e+06 173728 0 1.44476e+06 174468 0 1.42358e+06 174857 0 1.40246e+06 174925 0 1.38143e+06 174700 0 1.36052e+06 174208 0 1.33974e+06 173474 0 1.31913e+06 172519 0 1.29869e+06 171366 0 1.27846e+06 170032 0 1.25844e+06 168537 0 1.23865e+06 166896 0 1.21909e+06 165125 0 1.19979e+06 163237 0 1.18075e+06 161246 0 1.16198e+06 159162 0 1.14348e+06 156997 0 1.12527e+06 154761 0 1.10734e+06 152462 0 1.08971e+06 150110 0 1.07237e+06 147711 0 1.05533e+06 145272 0 1.0386e+06 142799 0 1.02216e+06 140299 0 1.27785e+06 -531384 0 1.35029e+06 -473211 0 1.41749e+06 -430930 0 1.47634e+06 -396312 0 1.5281e+06 -365315 0 1.57383e+06 -336105 0 1.61438e+06 -307863 0 1.65035e+06 -280205 0 1.68211e+06 -252967 0 1.70995e+06 -226103 0 1.73407e+06 -199639 0 1.75461e+06 -173644 0 1.77173e+06 -148208 0 1.78555e+06 -123434 0 1.79622e+06 -99425.6 0 1.80389e+06 -76280.4 0 1.8087e+06 -54085.6 0 1.81082e+06 -32915 0 1.81043e+06 -12827.1 0 1.80769e+06 6135.43 0 1.80277e+06 23945.2 0 1.79586e+06 40589.7 0 1.78711e+06 56069.3 0 1.77669e+06 70396.4 0 1.76476e+06 83593.2 0 1.75147e+06 95690.2 0 1.73695e+06 106725 0 1.72135e+06 116739 0 1.70479e+06 125779 0 1.68738e+06 133893 0 1.66923e+06 141132 0 1.65044e+06 147546 0 1.6311e+06 153186 0 1.6113e+06 158101 0 1.59111e+06 162342 0 1.5706e+06 165955 0 1.54984e+06 168985 0 1.52889e+06 171477 0 1.5078e+06 173470 0 1.48662e+06 175006 0 1.46539e+06 176120 0 1.44415e+06 176848 0 1.42295e+06 177221 0 1.40181e+06 177271 0 1.38076e+06 177026 0 1.35982e+06 176512 0 1.33904e+06 175754 0 1.31841e+06 174774 0 1.29797e+06 173595 0 1.27773e+06 172234 0 1.25771e+06 170710 0 1.23791e+06 169039 0 1.21836e+06 167238 0 1.19906e+06 165319 0 1.18002e+06 163296 0 1.16125e+06 161181 0 1.14276e+06 158984 0 1.12456e+06 156715 0 1.10664e+06 154383 0 1.08901e+06 151997 0 1.07168e+06 149565 0 1.05465e+06 147092 0 1.03793e+06 144586 0 1.0215e+06 142053 0 1.28874e+06 -535910 0 1.35884e+06 -478709 0 1.42449e+06 -436139 0 1.48243e+06 -400942 0 1.53362e+06 -369353 0 1.57895e+06 -339600 0 1.6192e+06 -310864 0 1.6549e+06 -282752 0 1.68644e+06 -255091 0 1.71406e+06 -227829 0 1.73796e+06 -200988 0 1.75829e+06 -174634 0 1.77519e+06 -148859 0 1.78879e+06 -123764 0 1.79924e+06 -99455.4 0 1.80668e+06 -76029.6 0 1.81126e+06 -53574.8 0 1.81316e+06 -32164.8 0 1.81255e+06 -11857.8 0 1.80959e+06 7303.81 0 1.80446e+06 25293.4 0 1.79735e+06 42099.2 0 1.7884e+06 57722.8 0 1.7778e+06 72177.4 0 1.7657e+06 85486.5 0 1.75224e+06 97681.6 0 1.73757e+06 108801 0 1.72183e+06 118888 0 1.70513e+06 127990 0 1.6876e+06 136157 0 1.66934e+06 143438 0 1.65044e+06 149887 0 1.63101e+06 155555 0 1.61112e+06 160492 0 1.59085e+06 164747 0 1.57028e+06 168369 0 1.54946e+06 171404 0 1.52845e+06 173895 0 1.50731e+06 175885 0 1.48608e+06 177413 0 1.46482e+06 178517 0 1.44355e+06 179231 0 1.42232e+06 179588 0 1.40115e+06 179620 0 1.38008e+06 179354 0 1.35913e+06 178818 0 1.33833e+06 178036 0 1.31769e+06 177031 0 1.29724e+06 175824 0 1.277e+06 174435 0 1.25697e+06 172883 0 1.23717e+06 171183 0 1.21762e+06 169351 0 1.19832e+06 167401 0 1.17929e+06 165346 0 1.16052e+06 163199 0 1.14204e+06 160969 0 1.12384e+06 158668 0 1.10593e+06 156303 0 1.08831e+06 153884 0 1.07099e+06 151418 0 1.05397e+06 148912 0 1.03725e+06 146372 0 1.02084e+06 143805 0 1.2993e+06 -540302 0 1.36731e+06 -484006 0 1.4315e+06 -441200 0 1.48857e+06 -405468 0 1.53919e+06 -373315 0 1.58411e+06 -343034 0 1.62405e+06 -313814 0 1.65949e+06 -285254 0 1.69079e+06 -257173 0 1.7182e+06 -229515 0 1.74188e+06 -202297 0 1.762e+06 -175586 0 1.77868e+06 -149471 0 1.79206e+06 -124057 0 1.80228e+06 -99448.1 0 1.80949e+06 -75742.5 0 1.81385e+06 -53028.6 0 1.81552e+06 -31380.2 0 1.81468e+06 -10855.4 0 1.81151e+06 8503.93 0 1.80617e+06 26671.9 0 1.79885e+06 43637.4 0 1.78971e+06 59403.2 0 1.77892e+06 73983.7 0 1.76664e+06 87403.3 0 1.75302e+06 99694.8 0 1.73819e+06 110898 0 1.72231e+06 121056 0 1.70548e+06 130219 0 1.68782e+06 138436 0 1.66944e+06 145760 0 1.65045e+06 152242 0 1.63092e+06 157936 0 1.61094e+06 162893 0 1.5906e+06 167162 0 1.56995e+06 170792 0 1.54907e+06 173830 0 1.52801e+06 176321 0 1.50682e+06 178306 0 1.48555e+06 179826 0 1.46425e+06 180918 0 1.44294e+06 181618 0 1.42168e+06 181958 0 1.40049e+06 181971 0 1.3794e+06 181684 0 1.35843e+06 181125 0 1.33762e+06 180319 0 1.31697e+06 179288 0 1.29651e+06 178055 0 1.27626e+06 176638 0 1.25623e+06 175056 0 1.23643e+06 173326 0 1.21688e+06 171464 0 1.19758e+06 169483 0 1.17855e+06 167396 0 1.15979e+06 165216 0 1.14131e+06 162954 0 1.12312e+06 160619 0 1.10522e+06 158222 0 1.08761e+06 155769 0 1.07029e+06 153270 0 1.05328e+06 150730 0 1.03658e+06 148157 0 1.02018e+06 145556 0 1.30957e+06 -544573 0 1.3757e+06 -489120 0 1.43851e+06 -446121 0 1.49474e+06 -409893 0 1.5448e+06 -377201 0 1.58932e+06 -346408 0 1.62894e+06 -316713 0 1.66412e+06 -287711 0 1.69519e+06 -259214 0 1.72237e+06 -231160 0 1.74584e+06 -203567 0 1.76574e+06 -176498 0 1.7822e+06 -150046 0 1.79535e+06 -124312 0 1.80535e+06 -99403.4 0 1.81233e+06 -75418.8 0 1.81645e+06 -52446.6 0 1.8179e+06 -30560.9 0 1.81683e+06 -9819.6 0 1.81344e+06 9735.98 0 1.80789e+06 28080.6 0 1.80036e+06 45204.4 0 1.79102e+06 61110.8 0 1.78004e+06 75815.3 0 1.76759e+06 89343.7 0 1.7538e+06 101730 0 1.73882e+06 113015 0 1.72279e+06 123243 0 1.70582e+06 132465 0 1.68804e+06 140731 0 1.66955e+06 148095 0 1.65045e+06 154610 0 1.63083e+06 160329 0 1.61077e+06 165304 0 1.59034e+06 169586 0 1.56963e+06 173224 0 1.54868e+06 176264 0 1.52756e+06 178753 0 1.50632e+06 180733 0 1.48501e+06 182243 0 1.46367e+06 183323 0 1.44233e+06 184008 0 1.42104e+06 184332 0 1.39983e+06 184325 0 1.37872e+06 184017 0 1.35773e+06 183435 0 1.3369e+06 182603 0 1.31624e+06 181547 0 1.29578e+06 180286 0 1.27552e+06 178841 0 1.25549e+06 177230 0 1.23569e+06 175470 0 1.21613e+06 173576 0 1.19684e+06 171564 0 1.17781e+06 169445 0 1.15906e+06 167233 0 1.14058e+06 164938 0 1.1224e+06 162570 0 1.1045e+06 160139 0 1.0869e+06 157654 0 1.0696e+06 155120 0 1.05259e+06 152547 0 1.0359e+06 149940 0 1.01951e+06 147306 0 1.31958e+06 -548737 0 1.384e+06 -494067 0 1.44553e+06 -450909 0 1.50094e+06 -414220 0 1.55045e+06 -381012 0 1.59457e+06 -349722 0 1.63388e+06 -319561 0 1.66879e+06 -290122 0 1.69962e+06 -261212 0 1.72658e+06 -232766 0 1.74983e+06 -204798 0 1.76951e+06 -177372 0 1.78574e+06 -150581 0 1.79867e+06 -124529 0 1.80843e+06 -99321.1 0 1.81518e+06 -75058.1 0 1.81908e+06 -51828.6 0 1.82029e+06 -29706.8 0 1.819e+06 -8750.28 0 1.81538e+06 11000.1 0 1.80961e+06 29520 0 1.80188e+06 46800.2 0 1.79234e+06 62845.4 0 1.78118e+06 77672.4 0 1.76854e+06 91307.9 0 1.75458e+06 103787 0 1.73945e+06 115152 0 1.72327e+06 125449 0 1.70617e+06 134728 0 1.68827e+06 143042 0 1.66966e+06 150445 0 1.65045e+06 156991 0 1.63074e+06 162734 0 1.61059e+06 167726 0 1.59009e+06 172019 0 1.5693e+06 175663 0 1.54829e+06 178706 0 1.52712e+06 181192 0 1.50583e+06 183165 0 1.48447e+06 184666 0 1.46309e+06 185733 0 1.44172e+06 186403 0 1.4204e+06 186708 0 1.39916e+06 186682 0 1.37803e+06 186352 0 1.35703e+06 185746 0 1.33618e+06 184890 0 1.31552e+06 183806 0 1.29504e+06 182518 0 1.274