<?xml version="1.0"?> 
<VTKFile type="StructuredGrid" version="0.1"> 
<StructuredGrid WholeExtent="0 63 0 63 0 0"> 
<Piece Extent="0 63 0 63 0 0"> 
<PointData>
<DataArray type="Float32" Name="|E|" format="ascii" NumberOfComponents="3"> 
1.03219e+06 112066 0 1.0159e+06 110075 0 999907 108066 0 984217 106044 0 968831 104012 0 953750 101972 0 938974 99928.2 0 924502 97882.1 0 910334 95836.3 0 896470 93792.7 0 882909 91753.1 0 869649 89719.2 0 856689 87692.3 0 844027 85673.8 0 831663 83664.8 0 819594 81666.1 0 807818 79678.7 0 796333 77703.3 0 785138 75740.5 0 774230 73790.9 0 763608 71854.8 0 753268 69932.6 0 743209 68024.7 0 733428 66131.1 0 723924 64252.1 0 714693 62387.7 0 705734 60538 0 697045 58703 0 688622 56882.5 0 680465 55076.5 0 672570 53284.9 0 664937 51507.4 0 657561 49743.9 0 650442 47994.1 0 643577 46257.7 0 636965 44534.5 0 630603 42824.2 0 624489 41126.4 0 618623 39440.8 0 613001 37767 0 607622 36104.6 0 602484 34453.3 0 597587 32812.6 0 592928 31182 0 588505 29561.3 0 584318 27949.9 0 580365 26347.4 0 576645 24753.3 0 573156 23167.2 0 569898 21588.6 0 566869 20017 0 564068 18451.9 0 561494 16892.9 0 559148 15339.4 0 557026 13791 0 555130 12247.1 0 553459 10707.3 0 552011 9171.1 0 550786 7637.93 0 549785 6107.29 0 549005 4578.69 0 548449 3051.62 0 548114 1525.56 0 548001 0 0 1.03159e+06 113840 0 1.01531e+06 111816 0 999329 109775 0 983650 107719 0 968276 105654 0 953206 103581 0 938441 101504 0 923981 99424.7 0 909824 97346 0 895972 95269.7 0 882422 93197.5 0 869173 91131.2 0 856224 89072.1 0 843574 87021.5 0 831221 84980.6 0 819162 82950.2 0 807397 80931.4 0 795923 78924.8 0 784738 76931 0 773841 74950.6 0 763228 72984.1 0 752898 71031.6 0 742848 69093.6 0 733077 67170.3 0 723581 65261.8 0 714360 63368.1 0 705409 61489.3 0 696728 59625.4 0 688314 57776.4 0 680165 55942 0 672278 54122.3 0 664651 52316.9 0 657283 50525.7 0 650171 48748.4 0 643313 46984.8 0 636707 45234.6 0 630351 43497.4 0 624244 41772.9 0 618383 40060.9 0 612766 38360.8 0 607393 36672.3 0 602260 34995 0 597368 33328.5 0 592713 31672.4 0 588295 30026.2 0 584112 28389.5 0 580163 26761.8 0 576446 25142.7 0 572961 23531.6 0 569706 21928.2 0 566680 20331.9 0 563882 18742.2 0 561311 17158.6 0 558966 15580.7 0 556847 14007.9 0 554953 12439.8 0 553283 10875.8 0 551837 9315.41 0 550613 7758.11 0 549613 6203.39 0 548834 4650.74 0 548278 3099.64 0 547944 1549.56 0 547831 0 0 1.03099e+06 115613 0 1.01472e+06 113556 0 998747 111481 0 983080 109393 0 967716 107294 0 952658 105188 0 937905 103078 0 923456 100966 0 909311 98854.4 0 895470 96745.3 0 881931 94640.5 0 868694 92541.8 0 855756 90450.4 0 843117 88367.8 0 830775 86295 0 818727 84233.1 0 806973 82182.9 0 795510 80145.1 0 784335 78120.4 0 773448 76109.2 0 762845 74112.2 0 752524 72129.5 0 742484 70161.5 0 732722 68208.4 0 723236 66270.4 0 714023 64347.4 0 705081 62439.6 0 696409 60547 0 688003 58669.3 0 679861 56806.7 0 671982 54958.8 0 664363 53125.5 0 657002 51306.7 0 649897 49502 0 643045 47711.1 0 636446 45933.9 0 630097 44169.9 0 623995 42418.8 0 618140 40680.3 0 612529 38954 0 607161 37239.4 0 602033 35536.2 0 597146 33844 0 592496 32162.3 0 588082 30490.6 0 583903 28828.6 0 579958 27175.8 0 576245 25531.6 0 572763 23895.7 0 569511 22267.4 0 566488 20646.4 0 563693 19032.2 0 561125 17424.1 0 558782 15821.8 0 556666 14224.7 0 554773 12632.3 0 553105 11044.1 0 551660 9459.56 0 550438 7878.17 0 549438 6299.39 0 548660 4722.71 0 548105 3147.61 0 547771 1573.55 0 547658 0 0 1.03038e+06 117385 0 1.01412e+06 115295 0 998162 113187 0 982506 111065 0 967154 108933 0 952107 106794 0 937365 104651 0 922927 102506 0 908794 100361 0 894965 98219.5 0 881437 96082.2 0 868211 93951 0 855285 91827.5 0 842657 89712.8 0 830326 87608.2 0 818289 85514.7 0 806545 83433.1 0 795093 81364.1 0 783928 79308.5 0 773051 77266.7 0 762458 75239.1 0 752148 73226.2 0 742117 71228.3 0 732364 69245.5 0 722887 67277.9 0 713683 65325.7 0 704750 63388.9 0 696086 61467.5 0 687688 59561.4 0 679555 57670.4 0 671683 55794.5 0 664071 53933.3 0 656718 52086.9 0 649620 50254.7 0 642775 48436.7 0 636182 46632.5 0 629839 44841.7 0 623744 43064 0 617894 41299.1 0 612289 39546.5 0 606926 37805.9 0 601804 36076.8 0 596921 34358.9 0 592275 32651.6 0 587866 30954.6 0 583691 29267.3 0 579750 27589.3 0 576041 25920.2 0 572562 24259.3 0 569314 22606.3 0 566294 20960.7 0 563501 19321.8 0 560936 17689.3 0 558596 16062.6 0 556481 14441.2 0 554590 12824.6 0 552924 11212.2 0 551480 9603.57 0 550259 7998.1 0 549261 6395.29 0 548484 4794.61 0 547929 3195.53 0 547595 1597.5 0 547483 0 0 1.02977e+06 119155 0 1.01352e+06 117032 0 997573 114891 0 981928 112736 0 966587 110571 0 951552 108399 0 936821 106222 0 922395 104044 0 908274 101867 0 894456 99692.4 0 880940 97522.5 0 867725 95359 0 854810 93203.2 0 842193 91056.5 0 829873 88920.1 0 817847 86795 0 806114 84682 0 794672 82581.9 0 783518 80495.4 0 772651 78422.9 0 762068 76364.9 0 751768 74321.9 0 741747 72294 0 732003 70281.4 0 722535 68284.4 0 713340 66303 0 704416 64337.3 0 695760 62387.1 0 687370 60452.4 0 679245 58533.2 0 671381 56629.2 0 663777 54740.3 0 656430 52866.2 0 649339 51006.7 0 642502 49161.5 0 635915 47330.3 0 629578 45512.8 0 623489 43708.5 0 617645 41917.2 0 612046 40138.5 0 606688 38371.8 0 601571 36616.9 0 596693 34873.3 0 592052 33140.5 0 587647 31418.1 0 583477 29705.5 0 579539 28002.5 0 575834 26308.3 0 572359 24622.6 0 569114 22944.9 0 566097 21274.6 0 563307 19611.2 0 560744 17954.3 0 558406 16303.2 0 556294 14657.6 0 554405 13016.7 0 552740 11380.2 0 551298 9747.43 0 550078 8117.92 0 549080 6491.1 0 548304 4866.44 0 547750 3243.4 0 547416 1621.43 0 547304 0 0 1.02916e+06 120924 0 1.01292e+06 118768 0 996981 116593 0 981346 114405 0 966017 112207 0 950993 110002 0 936274 107792 0 921860 105581 0 907750 103371 0 893943 101164 0 880439 98961.5 0 867235 96765.5 0 854332 94577.6 0 841726 92398.9 0 829417 90230.7 0 817402 88074 0 805680 85929.7 0 794248 83798.5 0 783105 81681 0 772248 79577.9 0 761675 77489.6 0 751384 75416.3 0 741373 73358.5 0 731639 71316.3 0 722180 69289.9 0 712994 67279.3 0 704078 65284.6 0 695431 63305.7 0 687049 61342.6 0 678932 59395.1 0 671076 57463.1 0 663479 55546.4 0 656140 53644.8 0 649056 51757.9 0 642225 49885.6 0 635645 48027.4 0 629315 46183.2 0 623231 44352.4 0 617394 42534.7 0 611800 40729.8 0 606447 38937.2 0 601335 37156.4 0 596462 35387.1 0 591826 33628.8 0 587426 31881 0 583259 30143.3 0 579326 28415.2 0 575624 26696.1 0 572153 24985.5 0 568911 23283.1 0 565897 21588.2 0 563110 19900.3 0 560549 18219 0 558214 16543.6 0 556104 14873.7 0 554217 13208.6 0 552553 11548 0 551113 9891.15 0 549894 8237.61 0 548898 6586.81 0 548122 4938.19 0 547568 3291.22 0 547235 1645.34 0 547123 0 0 1.02854e+06 122692 0 1.01231e+06 120502 0 996384 118295 0 980761 116074 0 965443 113842 0 950431 111604 0 935723 109361 0 921320 107117 0 907222 104874 0 893427 102634 0 879934 100399 0 866742 98170.7 0 853850 95950.6 0 841255 93739.9 0 828957 91540 0 816953 89351.7 0 805242 87176.1 0 793821 85013.8 0 782688 82865.5 0 771841 80731.8 0 761279 78613 0 750997 76509.7 0 740996 74422 0 731271 72350.1 0 721821 70294.3 0 712644 68254.6 0 703737 66230.9 0 695098 64223.4 0 686725 62231.8 0 678616 60256.1 0 670768 58296.2 0 663179 56351.7 0 655847 54422.5 0 648770 52508.3 0 641946 50608.9 0 635372 48723.8 0 629048 46852.8 0 622971 44995.5 0 617139 43151.6 0 611551 41320.5 0 606204 39501.9 0 601097 37695.4 0 596229 35900.4 0 591597 34116.6 0 587201 32343.5 0 583039 30580.6 0 579110 28827.4 0 575412 27083.4 0 571944 25348.1 0 568705 23620.9 0 565694 21901.5 0 562910 20189.1 0 560352 18483.4 0 558019 16783.7 0 555911 15089.5 0 554026 13400.3 0 552364 11715.6 0 550925 10034.7 0 549708 8357.17 0 548712 6682.41 0 547938 5009.87 0 547384 3338.99 0 547051 1669.22 0 546939 0 0 1.02792e+06 124459 0 1.0117e+06 122236 0 995785 119995 0 980173 117740 0 964866 115476 0 949865 113204 0 935169 110928 0 920777 108651 0 906691 106375 0 892907 104103 0 879426 101835 0 866245 99574.5 0 853364 97322.2 0 840781 95079.7 0 828494 92848 0 816501 90628.2 0 804801 88421.2 0 793390 86227.9 0 782268 84048.7 0 771431 81884.4 0 760879 79735.3 0 750607 77601.9 0 740615 75484.3 0 730900 73382.9 0 721460 71297.7 0 712291 69228.8 0 703393 67176.3 0 694763 65140.1 0 686398 63120.1 0 678297 61116.2 0 670456 59128.3 0 662875 57156.1 0 655550 55199.4 0 648480 53257.9 0 641663 51331.4 0 635096 49419.5 0 628779 47521.8 0 622708 45638 0 616882 43767.8 0 611299 41910.6 0 605957 40066 0 600856 38233.7 0 595992 36413.2 0 591365 34604 0 586974 32805.6 0 582816 31017.5 0 578891 29239.2 0 575196 27470.3 0 571732 25710.2 0 568496 23958.4 0 565488 22214.4 0 562707 20477.6 0 560152 18747.5 0 557821 17023.5 0 555715 15305.2 0 553832 13591.8 0 552172 11883 0 550734 10178.1 0 549518 8476.62 0 548524 6777.92 0 547750 5081.47 0 547197 3386.72 0 546865 1693.08 0 546753 0 0 1.0273e+06 126224 0 1.01109e+06 123968 0 995181 121694 0 979580 119406 0 964285 117108 0 949295 114803 0 934611 112494 0 920231 110184 0 906156 107875 0 892384 105570 0 878914 103270 0 865745 100977 0 852875 98692.6 0 840304 96418 0 828028 94154.6 0 816046 91903.3 0 804356 89665.1 0 792956 87440.7 0 781844 85230.8 0 771018 83035.9 0 760475 80856.5 0 750214 78692.9 0 740232 76545.5 0 730526 74414.5 0 721095 72300 0 711935 70202 0 703046 68120.6 0 694424 66055.8 0 686068 64007.4 0 677974 61975.4 0 670142 59959.5 0 662568 57959.7 0 655251 55975.5 0 648188 54006.8 0 641377 52053.2 0 634818 50114.4 0 628506 48190.1 0 622441 46279.8 0 616621 44383.3 0 611044 42500 0 605708 40629.6 0 600611 38771.5 0 595753 36925.4 0 591131 35090.8 0 586744 33267.1 0 582590 31453.9 0 578669 29650.6 0 574978 27856.9 0 571517 26072 0 568285 24295.6 0 565280 22527 0 562502 20765.8 0 559949 19011.3 0 557621 17263.1 0 555517 15520.6 0 553636 13783.2 0 551977 12050.3 0 550541 10321.4 0 549326 8595.94 0 548333 6873.33 0 547560 5153 0 547007 3434.39 0 546675 1716.91 0 546564 0 0 1.02667e+06 127988 0 1.01047e+06 125698 0 994574 123391 0 978984 121070 0 963700 118738 0 948722 116400 0 934049 114059 0 919681 111716 0 905617 109374 0 891857 107036 0 878399 104703 0 865241 102378 0 852383 100062 0 839822 97755.1 0 827557 95459.9 0 815587 93177.2 0 803908 90907.7 0 792518 88652.3 0 781417 86411.5 0 770601 84186.1 0 760069 81976.4 0 749817 79782.8 0 739845 77605.6 0 730148 75445 0 720726 73301.2 0 711576 71174.1 0 702696 69063.9 0 694082 66970.5 0 685734 64893.8 0 677649 62833.7 0 669824 60789.9 0 662258 58762.3 0 654948 56750.7 0 647892 54754.8 0 641089 52774.1 0 634536 50808.6 0 628230 48857.6 0 622172 46921 0 616358 44998.2 0 610786 43088.8 0 605455 41192.5 0 600364 39308.8 0 595511 37437.1 0 590893 35577 0 586511 33728.1 0 582361 31889.8 0 578444 30061.6 0 574757 28243 0 571300 26433.4 0 568071 24632.4 0 565069 22839.3 0 562294 21053.7 0 559743 19274.9 0 557418 17502.5 0 555316 15735.8 0 553437 13974.3 0 551780 12217.4 0 550345 10464.5 0 549132 8715.13 0 548139 6968.64 0 547367 5224.46 0 546815 3482.01 0 546483 1740.72 0 546372 0 0 1.02603e+06 129750 0 1.00985e+06 127428 0 993963 125087 0 978385 122732 0 963112 120368 0 948145 117997 0 933484 115622 0 919127 113246 0 905075 110871 0 891326 108501 0 877880 106136 0 864734 103778 0 851887 101429 0 839338 99090.8 0 827084 96764 0 815124 94449.7 0 803456 92149 0 792078 89862.6 0 780987 87591.1 0 770181 85335.2 0 759659 83095.2 0 749417 80871.6 0 739454 78664.6 0 729768 76474.5 0 720355 74301.4 0 711214 72145.3 0 702342 70006.3 0 693737 67884.3 0 685398 65779.2 0 677320 63691 0 669504 61619.4 0 661945 59564.2 0 654642 57525.1 0 647594 55502 0 640797 53494.4 0 634251 51502 0 627952 49524.5 0 621899 47561.4 0 616091 45612.4 0 610525 43677 0 605200 41754.9 0 600114 39845.4 0 595266 37948.2 0 590653 36062.8 0 586275 34188.7 0 582130 32325.3 0 578216 30472.1 0 574533 28628.7 0 571080 26794.4 0 567854 24968.8 0 564855 23151.3 0 562083 21341.3 0 559535 19538.2 0 557212 17741.6 0 555112 15950.7 0 553235 14165.2 0 551580 12384.3 0 550146 10607.5 0 548934 8834.2 0 547943 7063.84 0 547171 5295.84 0 546620 3529.59 0 546289 1764.5 0 546177 0 0 1.0254e+06 131512 0 1.00922e+06 129156 0 993348 126781 0 977781 124394 0 962520 121996 0 947564 119591 0 932915 117183 0 918570 114774 0 904529 112367 0 890792 109964 0 877357 107566 0 864223 105176 0 851387 102795 0 838849 100425 0 826607 98066.7 0 814658 95721 0 803001 93389 0 791633 91071.6 0 780553 88769.4 0 769758 86483 0 759246 84212.8 0 749014 81959.2 0 739061 79722.5 0 729384 77502.8 0 719980 75300.4 0 710848 73115.3 0 701985 70947.6 0 693389 68797 0 685058 66663.7 0 676989 64547.4 0 669180 62448 0 661629 60365.1 0 654334 58298.7 0 647292 56248.4 0 640503 54213.8 0 633963 52194.7 0 627670 50190.6 0 621624 48201.1 0 615822 46226 0 610262 44264.6 0 604942 42316.6 0 599861 40381.5 0 595018 38458.8 0 590410 36548.1 0 586036 34648.7 0 581895 32760.3 0 577986 30882.2 0 574307 29014 0 570856 27155.1 0 567634 25304.9 0 564639 23462.9 0 561869 21628.5 0 559324 19801.2 0 557003 17980.4 0 554905 16165.5 0 553030 14355.9 0 551377 12551 0 549945 10750.3 0 548734 8953.14 0 547743 7158.95 0 546973 5367.14 0 546422 3577.11 0 546091 1788.26 0 545980 0 0 1.02476e+06 133272 0 1.00859e+06 130882 0 992730 128475 0 977174 126053 0 961924 123622 0 946980 121185 0 932342 118743 0 918009 116302 0 903980 113862 0 890255 111425 0 876831 108995 0 863708 106573 0 850884 104160 0 838358 101758 0 826126 99368 0 814189 96990.9 0 802542 94627.8 0 791185 92279.4 0 780116 89946.5 0 769331 87629.6 0 758829 85329.2 0 748607 83045.6 0 738664 80779.2 0 728996 78530.1 0 719602 76298.5 0 710479 74084.4 0 701625 71887.8 0 693038 69708.8 0 684715 67547.2 0 676654 65402.9 0 668853 63275.6 0 661310 61165.2 0 654022 59071.4 0 646988 56994 0 640205 54932.5 0 633672 52886.6 0 627386 50856 0 621346 48840.2 0 615549 46838.9 0 609995 44851.5 0 604681 42877.7 0 599605 40917 0 594767 38968.9 0 590164 37032.8 0 585795 35108.3 0 581658 33194.8 0 577753 31291.9 0 574077 29398.9 0 570631 27515.3 0 567412 25640.6 0 564419 23774.2 0 561652 21915.5 0 559110 20064 0 556791 18219 0 554696 16380 0 552823 14546.4 0 551171 12717.6 0 549741 10893 0 548531 9071.95 0 547541 7253.96 0 546772 5438.37 0 546222 3624.58 0 545891 1811.99 0 545780 0 0 1.02411e+06 135031 0 1.00796e+06 132608 0 992108 130167 0 976564 127712 0 961325 125248 0 946392 122777 0 931766 120302 0 917444 117827 0 903427 115355 0 889713 112886 0 876301 110423 0 863190 107969 0 850378 105524 0 837862 103090 0 825642 100668 0 813716 98259.5 0 802080 95865.3 0 790734 93486 0 779675 91122.4 0 768901 88775 0 758409 86444.4 0 748197 84130.9 0 738264 81834.8 0 728606 79556.2 0 719221 77295.4 0 710107 75052.4 0 701262 72827.1 0 692683 70619.6 0 684369 68429.8 0 676316 66257.4 0 668523 64102.4 0 660987 61964.5 0 653707 59843.3 0 646680 57738.7 0 639904 55650.3 0 633378 53577.7 0 627099 51520.6 0 621065 49478.5 0 615274 47451.1 0 609726 45437.8 0 604417 43438.2 0 599347 41451.9 0 594513 39478.3 0 589915 37517 0 585550 35567.3 0 581418 33628.9 0 577517 31701.1 0 573845 29783.4 0 570402 27875.2 0 567186 25976 0 564197 24085.2 0 561433 22202.2 0 558893 20326.4 0 556577 18457.3 0 554484 16594.3 0 552613 14736.7 0 550963 12883.9 0 549534 11035.5 0 548325 9190.64 0 547337 7348.86 0 546568 5509.52 0 546019 3672 0 545688 1835.7 0 545577 0 0 1.02347e+06 136788 0 1.00732e+06 134332 0 991483 131857 0 975949 129369 0 960722 126871 0 945801 124367 0 931186 121860 0 916876 119352 0 902871 116846 0 889168 114345 0 875768 111850 0 862668 109363 0 849867 106886 0 837364 104420 0 825155 101967 0 813239 99526.9 0 801615 97101.4 0 790280 94691.2 0 779231 92297 0 768467 89919.2 0 757986 87558.5 0 747784 85215 0 737860 82889.2 0 728212 80581.3 0 718836 78291.3 0 709732 76019.3 0 700896 73765.4 0 692326 71529.4 0 684019 69311.4 0 675975 67111.1 0 668190 64928.3 0 660662 62762.8 0 653389 60614.4 0 646369 58482.7 0 639601 56367.4 0 633081 54268.2 0 626808 52184.6 0 620780 50116.2 0 614996 48062.7 0 609453 46023.5 0 604150 43998.2 0 599085 41986.3 0 594256 39987.3 0 589663 38000.7 0 585303 36025.9 0 581175 34062.5 0 577278 32109.8 0 573610 30167.4 0 570171 28234.6 0 566958 26311 0 563972 24395.8 0 561211 22488.5 0 558674 20588.6 0 556360 18695.4 0 554269 16808.3 0 552400 14926.8 0 550752 13050.1 0 549324 11177.8 0 548117 9309.2 0 547130 7443.66 0 546361 5580.59 0 545813 3719.37 0 545483 1859.38 0 545372 0 0 1.02282e+06 138544 0 1.00668e+06 136054 0 990853 133546 0 975331 131025 0 960115 128494 0 945206 125956 0 930602 123416 0 916304 120875 0 902311 118336 0 888620 115802 0 875231 113275 0 862143 110756 0 849354 108247 0 836861 105749 0 824664 103264 0 812760 100793 0 801146 98336.3 0 789822 95895.2 0 778784 93470.4 0 768030 91062.2 0 757559 88671.3 0 747367 86298 0 737453 83942.5 0 727815 81605.2 0 718449 79286 0 709353 76985.2 0 700526 74702.6 0 691965 72438.3 0 683667 70192 0 675631 67963.8 0 667854 65753.3 0 660333 63560.3 0 653068 61384.6 0 646056 59225.9 0 639294 57083.7 0 632781 54957.8 0 626515 52847.8 0 620493 50753.2 0 614715 48673.6 0 609178 46608.5 0 603880 44557.5 0 598820 42520 0 593997 40495.6 0 589408 38483.8 0 585053 36484 0 580929 34495.6 0 577036 32518.2 0 573372 30551 0 569936 28593.7 0 566727 26645.6 0 563744 24706.1 0 560986 22774.6 0 558452 20850.5 0 556141 18933.2 0 554052 17022.1 0 552184 15116.6 0 550538 13216.1 0 549112 11320 0 547906 9427.63 0 546920 7538.36 0 546152 5651.59 0 545604 3766.69 0 545274 1883.04 0 545163 0 0 1.02216e+06 140299 0 1.00604e+06 137776 0 990220 135234 0 974709 132679 0 959505 130115 0 944607 127544 0 930015 124970 0 915729 122396 0 901747 119825 0 888068 117258 0 874691 114699 0 861615 112147 0 848837 109606 0 836356 107077 0 824169 104560 0 812276 102058 0 800674 99569.9 0 789360 97098 0 778333 94642.5 0 767590 92204 0 757129 89782.9 0 746948 87379.8 0 737043 84994.7 0 727414 82628 0 718058 80279.7 0 708971 77950 0 700153 75638.8 0 691601 73346.1 0 683311 71071.7 0 675283 68815.5 0 667514 66577.3 0 660002 64356.9 0 652744 62154 0 645739 59968.2 0 638984 57799.2 0 632478 55646.7 0 626218 53510.3 0 620203 51389.4 0 614431 49283.8 0 608900 47192.8 0 603607 45116.1 0 598553 43053.2 0 593735 41003.5 0 589151 38966.4 0 584800 36941.5 0 580681 34928.3 0 576792 32926 0 573132 30934.3 0 569699 28952.4 0 566494 26979.8 0 563514 25016 0 560758 23060.3 0 558227 21112.1 0 555918 19170.7 0 553831 17235.7 0 551966 15306.3 0 550321 13382 0 548897 11462.1 0 547692 9545.93 0 546707 7632.96 0 545940 5722.51 0 545393 3813.96 0 545063 1906.67 0 544952 0 0 1.0215e+06 142053 0 1.00539e+06 139496 0 989584 136921 0 974084 134332 0 958891 131734 0 944004 129130 0 929424 126523 0 915150 123917 0 901179 121312 0 887512 118713 0 874147 116121 0 861082 113537 0 848316 110964 0 835846 108403 0 823671 105855 0 811790 103321 0 800198 100802 0 788895 98299.4 0 777879 95813.3 0 767146 93344.5 0 756696 90893.4 0 746524 88460.4 0 736630 86045.7 0 727011 83649.7 0 717664 81272.3 0 708587 78913.8 0 699777 76574 0 691233 74252.9 0 682953 71950.4 0 674933 69666.3 0 667172 67400.5 0 659667 65152.6 0 652417 62922.5 0 645419 60709.7 0 638671 58514 0 632172 56334.9 0 625919 54172 0 619910 52025 0 614144 49893.3 0 608618 47776.6 0 603332 45674.2 0 598283 43585.8 0 593469 41510.7 0 588890 39448.5 0 584544 37398.6 0 580429 35360.4 0 576544 33333.4 0 572888 31317.1 0 569460 29310.7 0 566257 27313.7 0 563281 25325.6 0 560528 23345.7 0 557999 21373.4 0 555693 19408 0 553608 17449 0 551745 15495.8 0 550102 13547.6 0 548679 11604 0 547476 9664.11 0 546491 7727.45 0 545726 5793.36 0 545179 3861.18 0 544850 1930.27 0 544739 0 0 1.02084e+06 143805 0 1.00474e+06 141214 0 988943 138606 0 973455 135984 0 958273 133352 0 943398 130715 0 928830 128075 0 914567 125435 0 900608 122798 0 886953 120166 0 873600 117542 0 860546 114926 0 847792 112321 0 835334 109728 0 823170 107148 0 811299 104583 0 799719 102033 0 788427 99499.6 0 777421 96982.9 0 766699 94483.8 0 756259 92002.6 0 746098 89539.8 0 736214 87095.6 0 726604 84670.3 0 717266 82263.9 0 708198 79876.5 0 699398 77508.1 0 690863 75158.7 0 682591 72828.1 0 674579 70516.2 0 666826 68222.7 0 659330 65947.5 0 652087 63690.1 0 645096 61450.4 0 638356 59227.9 0 631863 57022.2 0 625617 54833 0 619614 52659.8 0 613854 50502.2 0 608334 48359.6 0 603053 46231.7 0 598010 44117.8 0 593201 42017.4 0 588627 39930 0 584285 37855.1 0 580175 35792.1 0 576294 33740.4 0 572642 31699.4 0 569217 29668.6 0 566018 27647.3 0 563045 25634.9 0 560295 23630.8 0 557769 21634.4 0 555465 19645.1 0 553383 17662.2 0 551521 15685.1 0 549880 13713.1 0 548459 11745.7 0 547257 9782.15 0 546273 7821.85 0 545508 5864.13 0 544962 3908.34 0 544633 1953.85 0 544523 0 0 1.02018e+06 145556 0 1.00408e+06 142931 0 988299 140289 0 972822 137634 0 957651 134969 0 942788 132299 0 928232 129625 0 913980 126953 0 900034 124283 0 886390 121618 0 873049 118961 0 860007 116313 0 847264 113676 0 834817 111051 0 822665 108440 0 810806 105844 0 799237 103263 0 787956 100698 0 776961 98151.3 0 766249 95621.9 0 755819 93110.7 0 745668 90618.1 0 735794 88144.3 0 726194 85689.7 0 716865 83254.3 0 707807 80838.1 0 699016 78441.2 0 690489 76063.5 0 682226 73704.9 0 674223 71365.1 0 666478 69044.1 0 658989 66741.4 0 651754 64456.9 0 644771 62190.3 0 638037 59941 0 631551 57708.9 0 625311 55493.3 0 619315 53294 0 613561 51110.4 0 608047 48942.1 0 602772 46788.5 0 597734 44649.2 0 592930 42523.5 0 588361 40411.1 0 584024 38311.2 0 579918 36223.3 0 576041 34146.9 0 572393 32081.4 0 568972 30026.1 0 565776 27980.4 0 562806 25943.8 0 560059 23915.6 0 557536 21895.1 0 555234 19881.8 0 553154 17875 0 551295 15874.1 0 549655 13878.4 0 548235 11887.3 0 547035 9900.07 0 546052 7916.13 0 545288 5934.81 0 544742 3955.46 0 544414 1977.41 0 544304 0 0 1.01951e+06 147306 0 1.00342e+06 144647 0 987651 141972 0 972185 139283 0 957026 136585 0 942175 133881 0 927630 131174 0 913390 128469 0 899456 125766 0 885824 123069 0 872494 120379 0 859464 117699 0 846733 115030 0 834297 112373 0 822157 109731 0 810309 107103 0 798751 104491 0 787481 101896 0 776496 99318.4 0 765795 96758.7 0 755376 94217.5 0 745235 91695.1 0 735371 89191.9 0 725780 86708 0 716462 84243.6 0 707412 81798.7 0 698630 79373.3 0 690113 76967.3 0 681858 74580.6 0 673863 72213.1 0 666126 69864.5 0 658645 67534.5 0 651418 65222.9 0 644442 62929.3 0 637715 60653.4 0 631236 58394.7 0 625003 56152.9 0 619013 53927.4 0 613265 51717.9 0 607757 49523.8 0 602488 47344.7 0 597455 45180 0 592657 43029.1 0 588092 40891.5 0 583760 38766.7 0 579658 36654.1 0 575785 34553 0 572141 32462.9 0 568723 30383.2 0 565531 28313.2 0 562564 26252.4 0 559821 24200.1 0 557300 22155.6 0 555001 20118.3 0 552923 18087.7 0 551065 16063 0 549428 14043.5 0 548010 12028.7 0 546810 10017.9 0 545829 8010.32 0 545066 6005.42 0 544520 4002.52 0 544192 2000.93 0 544082 0 0 1.01883e+06 149054 0 1.00276e+06 146362 0 986999 143653 0 971545 140930 0 956397 138198 0 941558 135461 0 927024 132722 0 912797 129983 0 898874 127248 0 885254 124518 0 871936 121796 0 858918 119083 0 846198 116382 0 833774 113694 0 821645 111020 0 809808 108361 0 798261 105718 0 787002 103092 0 776029 100484 0 765338 97894.3 0 754929 95323.1 0 744799 92771 0 734944 90238.3 0 725364 87725.2 0 716054 85231.8 0 707015 82758.2 0 698241 80304.3 0 689733 77870.1 0 681486 75455.4 0 673500 73060.1 0 665771 70684 0 658298 68326.7 0 651078 65988 0 644110 63667.5 0 637390 61364.9 0 630918 59079.8 0 624692 56811.7 0 618708 54560.1 0 612966 52324.8 0 607464 50105 0 602200 47900.3 0 597173 45710.2 0 592380 43534.1 0 587820 41371.5 0 583493 39221.8 0 579395 37084.3 0 575527 34958.6 0 571886 32844 0 568472 30739.9 0 565284 28645.6 0 562320 26560.6 0 559579 24484.2 0 557061 22415.7 0 554765 20354.6 0 552689 18300.1 0 550834 16251.6 0 549198 14208.4 0 547781 12170 0 546583 10135.5 0 545602 8104.39 0 544840 6075.96 0 544295 4049.53 0 543968 2024.43 0 543857 0 0 1.01815e+06 150801 0 1.0021e+06 148075 0 986344 145332 0 970901 142576 0 955765 139811 0 940937 137040 0 926415 134268 0 912199 131496 0 898288 128728 0 884680 125965 0 871374 123211 0 858368 120467 0 845659 117734 0 833247 115014 0 821130 112308 0 809304 109618 0 797768 106944 0 786520 104287 0 775558 101649 0 764878 99028.6 0 754479 96427.5 0 744359 93845.7 0 734514 91283.6 0 724944 88741.3 0 715644 86219 0 706614 83716.6 0 697850 81234.3 0 689350 78771.9 0 681112 76329.2 0 673134 73906.2 0 665413 71502.5 0 657948 69118 0 650736 66752.2 0 643775 64404.9 0 637063 62075.6 0 630598 59764.1 0 624377 57469.7 0 618400 55192.2 0 612665 52930.9 0 607169 50685.4 0 601910 48455.2 0 596888 46239.8 0 592100 44038.5 0 587546 41850.9 0 583223 39676.3 0 579130 37514.1 0 575265 35363.8 0 571629 33224.7 0 568219 31096.2 0 565034 28977.7 0 562073 26868.5 0 559335 24768 0 556820 22675.6 0 554526 20590.6 0 552452 18512.3 0 550599 16440 0 548965 14373.2 0 547549 12311.1 0 546352 10253 0 545373 8198.37 0 544612 6146.41 0 544068 4096.48 0 543740 2047.91 0 543630 0 0 1.01747e+06 152547 0 1.00143e+06 149787 0 985685 147010 0 970253 144221 0 955129 141422 0 940312 138618 0 925802 135812 0 911598 133008 0 897699 130207 0 884103 127412 0 870809 124625 0 857814 121848 0 845117 119083 0 832717 116332 0 820611 113595 0 808796 110873 0 797272 108168 0 786035 105481 0 775083 102812 0 764414 100162 0 754026 97530.7 0 743916 94919.2 0 734081 92327.7 0 724520 89756.2 0 715231 87205 0 706209 84674 0 697454 82163.2 0 688964 79672.6 0 680735 77202 0 672765 74751.3 0 665052 72320.1 0 657595 69908.3 0 650391 67515.5 0 643437 65141.4 0 636732 62785.5 0 630274 60447.6 0 624060 58127 0 618090 55823.5 0 612360 53536.4 0 606870 51265.2 0 601617 49009.6 0 596600 46768.8 0 591818 44542.4 0 587268 42329.7 0 582950 40130.3 0 578861 37943.4 0 575001 35768.5 0 571369 33604.9 0 567962 31452.1 0 564780 29309.4 0 561823 27176.1 0 559088 25051.6 0 556575 22935.2 0 554284 20826.3 0 552213 18724.2 0 550361 16628.2 0 548729 14537.7 0 547315 12452 0 546120 10370.4 0 545142 8292.23 0 544381 6216.79 0 543837 4143.39 0 543510 2071.36 0 543400 0 0 1.01679e+06 154291 0 1.00075e+06 151498 0 985022 148687 0 969601 145864 0 954489 143032 0 939684 140194 0 925186 137355 0 910994 134518 0 897106 131684 0 883522 128856 0 870240 126037 0 857257 123228 0 844572 120432 0 832183 117648 0 820089 114880 0 808286 112127 0 796772 109391 0 785546 106674 0 774605 103974 0 763947 101294 0 753569 98632.6 0 743469 95991.5 0 733645 93370.6 0 724094 90770 0 714814 88189.9 0 705802 85630.2 0 697056 83091.1 0 688574 80572.4 0 680354 78073.9 0 672393 75595.4 0 664688 73136.9 0 657239 70697.8 0 650042 68278 0 643096 65877.1 0 636398 63494.7 0 629947 61130.3 0 623740 58783.6 0 617776 56454 0 612053 54141.1 0 606568 51844.4 0 601321 49563.3 0 596310 47297.2 0 591533 45045.7 0 586988 42808.1 0 582674 40583.8 0 578590 38372.2 0 574734 36172.7 0 571106 33984.8 0 567703 31807.6 0 564525 29640.7 0 561570 27483.3 0 558838 25334.8 0 556328 23194.5 0 554039 21061.7 0 551971 18935.9 0 550121 16816.2 0 548491 14702.1 0 547079 12592.8 0 545884 10487.7 0 544907 8386 0 544147 6287.08 0 543604 4190.24 0 543278 2094.78 0 543168 0 0 1.0161e+06 156034 0 1.00007e+06 153207 0 984355 150363 0 968946 147505 0 953845 144640 0 939052 141769 0 924566 138897 0 910386 136026 0 896510 133160 0 882938 130300 0 869667 127448 0 856696 124607 0 844023 121778 0 831646 118963 0 819563 116164 0 807771 113380 0 796269 110613 0 785054 107865 0 774124 105135 0 763477 102424 0 753109 99733.3 0 743020 97062.6 0 733206 94412.3 0 723664 91782.6 0 714394 89173.7 0 705391 86585.4 0 696655 84017.9 0 688182 81471.1 0 679970 78944.7 0 672017 76438.6 0 664321 73952.6 0 656880 71486.4 0 649691 69039.6 0 642752 66611.9 0 636061 64203 0 629617 61812.3 0 623417 59439.4 0 617459 57083.9 0 611742 54745.2 0 606264 52422.9 0 601023 50116.3 0 596017 47825 0 591245 45548.4 0 586705 43285.8 0 582396 41036.7 0 578316 38800.5 0 574465 36576.5 0 570840 34364.1 0 567441 32162.7 0 564266 29971.6 0 561315 27790.1 0 558586 25617.6 0 556079 23453.5 0 553792 21296.9 0 551726 19147.3 0 549878 17004 0 548250 14866.3 0 546839 12733.5 0 545646 10604.8 0 544670 8479.65 0 543911 6357.3 0 543369 4237.04 0 543043 2118.17 0 542933 0 0 1.01541e+06 157776 0 999392 154915 0 983685 152037 0 968287 149146 0 953198 146247 0 938416 143343 0 923942 140437 0 909774 137534 0 895910 134634 0 882350 131741 0 869091 128858 0 856132 125984 0 843471 123124 0 831105 120277 0 819033 117446 0 807253 114631 0 795763 111834 0 784559 109054 0 773640 106294 0 763003 103553 0 752646 100833 0 742567 98132.5 0 732763 95452.9 0 723231 92794.1 0 713970 90156.3 0 704977 87539.5 0 696250 84943.7 0 687786 82368.8 0 679583 79814.5 0 671639 77280.9 0 663951 74767.5 0 656518 72274.1 0 649336 69800.4 0 642405 67345.9 0 635722 64910.5 0 629284 62493.4 0 623091 60094.4 0 617140 57713 0 611429 55348.6 0 605956 53000.7 0 600721 50668.8 0 595720 48352.2 0 590954 46050.5 0 586419 43763.1 0 582114 41489.2 0 578039 39228.3 0 574192 36979.8 0 570571 34743.1 0 567176 32517.4 0 564005 30302.1 0 561057 28096.6 0 558331 25900.2 0 555826 23712.2 0 553542 21531.8 0 551478 19358.6 0 549633 17191.6 0 548006 15030.3 0 546597 12873.9 0 545405 10721.8 0 544430 8573.2 0 543672 6427.43 0 543130 4283.78 0 542804 2141.54 0 542695 0 0 1.01471e+06 159516 0 998706 156621 0 983011 153709 0 967624 150785 0 952546 147852 0 937777 144915 0 923314 141976 0 909158 139039 0 895306 136107 0 881758 133182 0 868511 130266 0 855564 127360 0 842915 124468 0 830561 121590 0 818501 118727 0 806732 115881 0 795253 113053 0 784060 110243 0 773152 107452 0 762526 104682 0 752179 101931 0 742111 99201.2 0 732317 96492.3 0 722795 93804.5 0 713544 91137.9 0 704560 88492.5 0 695842 85868.4 0 687387 83265.4 0 679193 80683.4 0 671257 78122.1 0 663578 75581.4 0 656152 73060.8 0 648979 70560.2 0 642055 68079.1 0 635379 65617.1 0 628948 63173.8 0 622762 60748.7 0 616817 58341.4 0 611113 55951.3 0 605646 53577.9 0 600416 51220.6 0 595421 48878.8 0 590660 46552.1 0 586130 44239.7 0 581830 41941.1 0 577760 39655.7 0 573916 37382.7 0 570300 35121.6 0 566908 32871.7 0 563740 30632.3 0 560796 28402.8 0 558073 26182.4 0 555571 23970.5 0 553290 21766.5 0 551228 19569.5 0 549385 17379 0 547759 15194.1 0 5463