<?xml version="1.0"?> 
<VTKFile type="StructuredGrid" version="0.1"> 
<StructuredGrid WholeExtent="0 63 0 63 0 0"> 
<Piece Extent="0 63 0 63 0 0"> 
<PointData>
<DataArray type="Float32" Name="|E|" format="ascii" NumberOfComponents="3"> 
-2.0812e+06 166804 0 -2.08815e+06 177105 0 -2.09551e+06 187500 0 -2.10328e+06 197996 0 -2.11146e+06 208599 0 -2.12007e+06 219317 0 -2.1291e+06 230155 0 -2.13856e+06 241123 0 -2.14845e+06 252228 0 -2.15878e+06 263477 0 -2.16954e+06 274880 0 -2.18075e+06 286446 0 -2.19241e+06 298183 0 -2.20452e+06 310101 0 -2.2171e+06 322212 0 -2.23014e+06 334525 0 -2.24365e+06 347051 0 -2.25765e+06 359804 0 -2.27213e+06 372795 0 -2.28712e+06 386039 0 -2.30261e+06 399548 0 -2.31861e+06 413338 0 -2.33515e+06 427426 0 -2.35222e+06 441829 0 -2.36985e+06 456564 0 -2.38804e+06 471651 0 -2.40682e+06 487112 0 -2.4262e+06 502969 0 -2.4462e+06 519247 0 -2.46685e+06 535971 0 -2.48816e+06 553172 0 -2.51017e+06 570880 0 -2.53291e+06 589130 0 -2.55641e+06 607960 0 -2.58072e+06 627411 0 -2.60588e+06 647530 0 -2.63195e+06 668369 0 -2.65899e+06 689986 0 -2.68707e+06 712446 0 -2.71628e+06 735824 0 -2.74671e+06 760204 0 -2.77848e+06 785684 0 -2.81174e+06 812375 0 -2.84664e+06 840409 0 -2.88338e+06 869940 0 -2.92221e+06 901151 0 -2.9634e+06 934258 0 -3.00731e+06 969526 0 -3.05439e+06 1.00728e+06 0 -3.10519e+06 1.0479e+06 0 -3.1604e+06 1.0919e+06 0 -3.22094e+06 1.13992e+06 0 -3.28799e+06 1.19273e+06 0 -3.36315e+06 1.25149e+06 0 -3.44862e+06 1.3176e+06 0 -3.54751e+06 1.39262e+06 0 -3.66404e+06 1.48189e+06 0 -3.80728e+06 1.58311e+06 0 -3.9828e+06 1.70862e+06 0 -4.21858e+06 1.92328e+06 0 -4.5821e+06 1.85084e+06 0 -4.99444e+06 3.36073e+06 0 -6.28078e+06 -1.12903e+06 0 -1.17394e+07 3.02487e+07 0 -2.0827e+06 174377 0 -2.08984e+06 184804 0 -2.09739e+06 195329 0 -2.10535e+06 205958 0 -2.11373e+06 216699 0 -2.12253e+06 227558 0 -2.13175e+06 238543 0 -2.14139e+06 249662 0 -2.15146e+06 260922 0 -2.16197e+06 272333 0 -2.17291e+06 283902 0 -2.1843e+06 295639 0 -2.19614e+06 307553 0 -2.20843e+06 319655 0 -2.22117e+06 331955 0 -2.23439e+06 344464 0 -2.24807e+06 357194 0 -2.26224e+06 370158 0 -2.27689e+06 383367 0 -2.29204e+06 396838 0 -2.3077e+06 410583 0 -2.32387e+06 424619 0 -2.34057e+06 438963 0 -2.35781e+06 453632 0 -2.37561e+06 468645 0 -2.39397e+06 484024 0 -2.41291e+06 499789 0 -2.43246e+06 515966 0 -2.45263e+06 532580 0 -2.47345e+06 549659 0 -2.49493e+06 567233 0 -2.51712e+06 585337 0 -2.54004e+06 604007 0 -2.56374e+06 623284 0 -2.58824e+06 643213 0 -2.61361e+06 663844 0 -2.63989e+06 685233 0 -2.66716e+06 707444 0 -2.69549e+06 730549 0 -2.72496e+06 754630 0 -2.75569e+06 779780 0 -2.78778e+06 806108 0 -2.8214e+06 833739 0 -2.8567e+06 862823 0 -2.89389e+06 893533 0 -2.93323e+06 926079 0 -2.97502e+06 960711 0 -3.01963e+06 997735 0 -3.06754e+06 1.03753e+06 0 -3.11932e+06 1.08056e+06 0 -3.17572e+06 1.12744e+06 0 -3.23773e+06 1.17891e+06 0 -3.3066e+06 1.23599e+06 0 -3.38407e+06 1.30008e+06 0 -3.47269e+06 1.37287e+06 0 -3.57497e+06 1.45767e+06 0 -3.69856e+06 1.55669e+06 0 -3.84884e+06 1.67908e+06 0 -4.02586e+06 1.84209e+06 0 -4.3388e+06 1.98009e+06 0 -4.57502e+06 2.5877e+06 0 -5.31341e+06 2.0038e+06 0 -7.21637e+06 6.92178e+06 0 -2.61911e+06 1.08804e+07 0 -2.08428e+06 182088 0 -2.09162e+06 192642 0 -2.09936e+06 203298 0 -2.10751e+06 214062 0 -2.11608e+06 224943 0 -2.12506e+06 235946 0 -2.13447e+06 247080 0 -2.14429e+06 258352 0 -2.15455e+06 269770 0 -2.16523e+06 281344 0 -2.17635e+06 293081 0 -2.18792e+06 304993 0 -2.19993e+06 317087 0 -2.21239e+06 329376 0 -2.22531e+06 341868 0 -2.23869e+06 354577 0 -2.25255e+06 367514 0 -2.26688e+06 380692 0 -2.2817e+06 394125 0 -2.29702e+06 407827 0 -2.31284e+06 421813 0 -2.32917e+06 436099 0 -2.34604e+06 450704 0 -2.36344e+06 465646 0 -2.3814e+06 480944 0 -2.39992e+06 496621 0 -2.41903e+06 512699 0 -2.43874e+06 529204 0 -2.45908e+06 546164 0 -2.48006e+06 563607 0 -2.50172e+06 581568 0 -2.52408e+06 600080 0 -2.54718e+06 619185 0 -2.57106e+06 638925 0 -2.59576e+06 659349 0 -2.62133e+06 680513 0 -2.64783e+06 702476 0 -2.67532e+06 725309 0 -2.70389e+06 749091 0 -2.73363e+06 773910 0 -2.76464e+06 799873 0 -2.79705e+06 827099 0 -2.83101e+06 855730 0 -2.8667e+06 885933 0 -2.90434e+06 917906 0 -2.94419e+06 951889 0 -2.98656e+06 988169 0 -3.03186e+06 1.0271e+06 0 -3.08057e+06 1.06913e+06 0 -3.13332e+06 1.11482e+06 0 -3.19089e+06 1.16487e+06 0 -3.25432e+06 1.22021e+06 0 -3.32494e+06 1.28212e+06 0 -3.40482e+06 1.35221e+06 0 -3.49583e+06 1.4332e+06 0 -3.60268e+06 1.52771e+06 0 -3.73287e+06 1.64255e+06 0 -3.87822e+06 1.7921e+06 0 -4.10866e+06 1.94047e+06 0 -4.3547e+06 2.35607e+06 0 -4.65417e+06 2.38317e+06 0 -5.85427e+06 3.98214e+06 0 -4.95062e+06 7.55855e+06 0 -688174 5.67013e+06 0 -2.08595e+06 189937 0 -2.09348e+06 200620 0 -2.10141e+06 211409 0 -2.10975e+06 222311 0 -2.11851e+06 233333 0 -2.12767e+06 244482 0 -2.13726e+06 255766 0 -2.14727e+06 267194 0 -2.1577e+06 278773 0 -2.16856e+06 290513 0 -2.17986e+06 302422 0 -2.1916e+06 314510 0 -2.20378e+06 326788 0 -2.21641e+06 339265 0 -2.2295e+06 351955 0 -2.24305e+06 364867 0 -2.25707e+06 378015 0 -2.27157e+06 391411 0 -2.28655e+06 405071 0 -2.30203e+06 419009 0 -2.31801e+06 433240 0 -2.33451e+06 447783 0 -2.35154e+06 462655 0 -2.3691e+06 477875 0 -2.38721e+06 493465 0 -2.4059e+06 509448 0 -2.42516e+06 525847 0 -2.44504e+06 542690 0 -2.46554e+06 560005 0 -2.48669e+06 577824 0 -2.50851e+06 596182 0 -2.53105e+06 615117 0 -2.55432e+06 634671 0 -2.57838e+06 654892 0 -2.60327e+06 675832 0 -2.62903e+06 697551 0 -2.65574e+06 720114 0 -2.68345e+06 743598 0 -2.71226e+06 768090 0 -2.74225e+06 793688 0 -2.77354e+06 820509 0 -2.80626e+06 848688 0 -2.84056e+06 878383 0 -2.87663e+06 909782 0 -2.9147e+06 943111 0 -2.95504e+06 978642 0 -2.99799e+06 1.01671e+06 0 -3.04395e+06 1.05772e+06 0 -3.09343e+06 1.1022e+06 0 -3.1471e+06 1.15081e+06 0 -3.20579e+06 1.20438e+06 0 -3.27054e+06 1.26408e+06 0 -3.34295e+06 1.33139e+06 0 -3.42467e+06 1.4086e+06 0 -3.51829e+06 1.49838e+06 0 -3.63075e+06 1.60547e+06 0 -3.75683e+06 1.74282e+06 0 -3.92688e+06 1.8914e+06 0 -4.15065e+06 2.18354e+06 0 -4.33891e+06 2.43599e+06 0 -4.945e+06 3.044e+06 0 -5.21844e+06 5.26514e+06 0 -3.10155e+06 6.57235e+06 0 -612964 4.70504e+06 0 -2.0877e+06 197925 0 -2.09542e+06 208739 0 -2.10354e+06 219663 0 -2.11207e+06 230704 0 -2.12101e+06 241870 0 -2.13036e+06 253168 0 -2.14012e+06 264605 0 -2.15031e+06 276190 0 -2.16092e+06 287933 0 -2.17196e+06 299841 0 -2.18343e+06 311924 0 -2.19534e+06 324192 0 -2.20769e+06 336656 0 -2.22049e+06 349327 0 -2.23374e+06 362216 0 -2.24746e+06 375335 0 -2.26164e+06 388697 0 -2.2763e+06 402317 0 -2.29145e+06 416208 0 -2.30709e+06 430387 0 -2.32323e+06 444869 0 -2.33988e+06 459673 0 -2.35706e+06 474818 0 -2.37478e+06 490324 0 -2.39305e+06 506213 0 -2.41189e+06 522509 0 -2.43132e+06 539237 0 -2.45135e+06 556427 0 -2.47201e+06 574108 0 -2.49332e+06 592314 0 -2.51531e+06 611083 0 -2.53801e+06 630455 0 -2.56145e+06 650476 0 -2.58569e+06 671196 0 -2.61076e+06 692673 0 -2.63672e+06 714970 0 -2.66362e+06 738160 0 -2.69155e+06 762327 0 -2.72059e+06 787565 0 -2.75082e+06 813985 0 -2.78238e+06 841714 0 -2.81539e+06 870904 0 -2.85002e+06 901733 0 -2.88646e+06 934411 0 -2.92494e+06 969196 0 -2.96575e+06 1.0064e+06 0 -3.00924e+06 1.0464e+06 0 -3.05582e+06 1.08968e+06 0 -3.10604e+06 1.13685e+06 0 -3.16057e+06 1.18867e+06 0 -3.22025e+06 1.24618e+06 0 -3.28629e+06 1.31073e+06 0 -3.36015e+06 1.38426e+06 0 -3.44333e+06 1.46932e+06 0 -3.5408e+06 1.56944e+06 0 -3.65186e+06 1.6946e+06 0 -3.78536e+06 1.83959e+06 0 -3.9672e+06 2.05889e+06 0 -4.13716e+06 2.3484e+06 0 -4.43433e+06 2.71971e+06 0 -4.84977e+06 3.89582e+06 0 -4.14019e+06 5.57273e+06 0 -2.0711e+06 5.67355e+06 0 -781578 4.50138e+06 0 -2.08954e+06 206054 0 -2.09745e+06 217001 0 -2.10576e+06 228062 0 -2.11447e+06 239245 0 -2.12359e+06 250556 0 -2.13312e+06 262004 0 -2.14306e+06 273597 0 -2.15342e+06 285343 0 -2.16421e+06 297251 0 -2.17542e+06 309330 0 -2.18706e+06 321590 0 -2.19913e+06 334042 0 -2.21165e+06 346695 0 -2.22462e+06 359562 0 -2.23804e+06 372654 0 -2.25192e+06 385983 0 -2.26626e+06 399565 0 -2.28108e+06 413412 0 -2.29638e+06 427539 0 -2.31218e+06 441964 0 -2.32848e+06 456702 0 -2.34529e+06 471774 0 -2.36262e+06 487198 0 -2.38049e+06 502996 0 -2.39892e+06 519191 0 -2.41791e+06 535808 0 -2.43749e+06 552876 0 -2.45767e+06 570422 0 -2.47848e+06 588480 0 -2.49995e+06 607086 0 -2.5221e+06 626279 0 -2.54496e+06 646104 0 -2.56857e+06 666608 0 -2.59298e+06 687847 0 -2.61822e+06 709882 0 -2.64436e+06 732784 0 -2.67147e+06 756630 0 -2.6996e+06 781513 0 -2.72885e+06 807537 0 -2.75933e+06 834824 0 -2.79114e+06 863515 0 -2.82443e+06 893780 0 -2.85937e+06 925816 0 -2.89616e+06 959865 0 -2.93503e+06 996214 0 -2.97627e+06 1.03522e+06 0 -3.02025e+06 1.07732e+06 0 -3.0674e+06 1.12308e+06 0 -3.11829e+06 1.17319e+06 0 -3.17357e+06 1.22857e+06 0 -3.23416e+06 1.29045e+06 0 -3.30127e+06 1.36047e+06 0 -3.37601e+06 1.44096e+06 0 -3.4614e+06 1.53484e+06 0 -3.55915e+06 1.64909e+06 0 -3.67065e+06 1.78623e+06 0 -3.81393e+06 1.96681e+06 0 -3.96947e+06 2.22462e+06 0 -4.14808e+06 2.54359e+06 0 -4.44081e+06 3.1937e+06 0 -4.36763e+06 4.47052e+06 0 -3.15465e+06 5.38598e+06 0 -1.57863e+06 5.03772e+06 0 -876935 4.33045e+06 0 -2.09146e+06 214326 0 -2.09955e+06 225407 0 -2.10805e+06 236607 0 -2.11694e+06 247933 0 -2.12624e+06 259393 0 -2.13594e+06 270994 0 -2.14606e+06 282744 0 -2.1566e+06 294653 0 -2.16756e+06 306729 0 -2.17894e+06 318982 0 -2.19075e+06 331422 0 -2.20299e+06 344060 0 -2.21567e+06 356906 0 -2.2288e+06 369972 0 -2.24238e+06 383271 0 -2.25642e+06 396816 0 -2.27092e+06 410620 0 -2.2859e+06 424698 0 -2.30136e+06 439067 0 -2.31731e+06 453742 0 -2.33376e+06 468743 0 -2.35072e+06 484087 0 -2.3682e+06 499797 0 -2.38622e+06 515895 0 -2.40479e+06 532404 0 -2.42393e+06 549352 0 -2.44366e+06 566767 0 -2.46399e+06 584680 0 -2.48496e+06 603127 0 -2.50657e+06 622146 0 -2.52888e+06 641778 0 -2.55189e+06 662071 0 -2.57567e+06 683077 0 -2.60024e+06 704856 0 -2.62565e+06 727473 0 -2.65197e+06 751006 0 -2.67925e+06 775540 0 -2.70758e+06 801175 0 -2.73705e+06 828027 0 -2.76774e+06 856229 0 -2.7998e+06 885940 0 -2.83335e+06 917347 0 -2.86858e+06 950674 0 -2.90568e+06 986190 0 -2.9449e+06 1.02422e+06 0 -2.98654e+06 1.06518e+06 0 -3.03096e+06 1.10956e+06 0 -3.07861e+06 1.15802e+06 0 -3.13005e+06 1.21136e+06 0 -3.18596e+06 1.27067e+06 0 -3.24729e+06 1.3374e+06 0 -3.31498e+06 1.41357e+06 0 -3.39078e+06 1.50175e+06 0 -3.47684e+06 1.60678e+06 0 -3.57335e+06 1.73382e+06 0 -3.68872e+06 1.89214e+06 0 -3.82276e+06 2.10964e+06 0 -3.95969e+06 2.3946e+06 0 -4.1428e+06 2.8268e+06 0 -4.24782e+06 3.66676e+06 0 -3.71349e+06 4.69837e+06 0 -2.44128e+06 5.0335e+06 0 -1.35014e+06 4.59489e+06 0 -894795 4.10109e+06 0 -2.09346e+06 222740 0 -2.10174e+06 233959 0 -2.11041e+06 245300 0 -2.11948e+06 256771 0 -2.12896e+06 268381 0 -2.13884e+06 280137 0 -2.14914e+06 292048 0 -2.15984e+06 304122 0 -2.17097e+06 316369 0 -2.18252e+06 328799 0 -2.19449e+06 341422 0 -2.2069e+06 354249 0 -2.21975e+06 367291 0 -2.23303e+06 380561 0 -2.24677e+06 394070 0 -2.26097e+06 407833 0 -2.27563e+06 421865 0 -2.29076e+06 436179 0 -2.30637e+06 450794 0 -2.32246e+06 465726 0 -2.33906e+06 480994 0 -2.35617e+06 496618 0 -2.3738e+06 512621 0 -2.39197e+06 529025 0 -2.41069e+06 545857 0 -2.42997e+06 563144 0 -2.44984e+06 580917 0 -2.47032e+06 599208 0 -2.49143e+06 618056 0 -2.51319e+06 637501 0 -2.53564e+06 657587 0 -2.55881e+06 678366 0 -2.58273e+06 699893 0 -2.60746e+06 722234 0 -2.63303e+06 745459 0 -2.65952e+06 769652 0 -2.68698e+06 794907 0 -2.71549e+06 821332 0 -2.74515e+06 849056 0 -2.77605e+06 878227 0 -2.80832e+06 909020 0 -2.84212e+06 941643 0 -2.8776e+06 976347 0 -2.91498e+06 1.01344e+06 0 -2.95451e+06 1.05328e+06 0 -2.99649e+06 1.09634e+06 0 -3.04127e+06 1.1432e+06 0 -3.08933e+06 1.1946e+06 0 -3.14118e+06 1.25149e+06 0 -3.19756e+06 1.31514e+06 0 -3.25926e+06 1.38728e+06 0 -3.32734e+06 1.47021e+06 0 -3.40353e+06 1.56748e+06 0 -3.48837e+06 1.68423e+06 0 -3.58482e+06 1.82682e+06 0 -3.69686e+06 2.01241e+06 0 -3.81334e+06 2.25988e+06 0 -3.93849e+06 2.59646e+06 0 -4.05378e+06 3.15783e+06 0 -3.87919e+06 4.00351e+06 0 -3.08065e+06 4.67394e+06 0 -1.97866e+06 4.67273e+06 0 -1.23026e+06 4.25999e+06 0 -880130 3.85823e+06 0 -2.09555e+06 231300 0 -2.104e+06 242657 0 -2.11285e+06 254141 0 -2.1221e+06 265761 0 -2.13175e+06 277523 0 -2.14181e+06 289436 0 -2.15227e+06 301510 0 -2.16315e+06 313752 0 -2.17444e+06 326173 0 -2.18616e+06 338783 0 -2.19829e+06 351592 0 -2.21086e+06 364611 0 -2.22387e+06 377853 0 -2.23731e+06 391329 0 -2.25121e+06 405053 0 -2.26556e+06 419039 0 -2.28037e+06 433302 0 -2.29565e+06 447858 0 -2.31141e+06 462724 0 -2.32765e+06 477918 0 -2.3444e+06 493460 0 -2.36165e+06 509370 0 -2.37942e+06 525672 0 -2.39773e+06 542391 0 -2.41659e+06 559554 0 -2.43601e+06 577190 0 -2.45602e+06 595331 0 -2.47664e+06 614012 0 -2.49788e+06 633274 0 -2.51979e+06 653159 0 -2.54238e+06 673716 0 -2.56569e+06 694998 0 -2.58976e+06 717068 0 -2.61463e+06 739993 0 -2.64036e+06 763853 0 -2.667e+06 788736 0 -2.69462e+06 814747 0 -2.7233e+06 842005 0 -2.75313e+06 870649 0 -2.78422e+06 900844 0 -2.81669e+06 932784 0 -2.85069e+06 966702 0 -2.8864e+06 1.00288e+06 0 -2.92402e+06 1.04165e+06 0 -2.96379e+06 1.08345e+06 0 -3.00603e+06 1.12879e+06 0 -3.05109e+06 1.17834e+06 0 -3.09941e+06 1.23295e+06 0 -3.15152e+06 1.29373e+06 0 -3.20808e+06 1.36216e+06 0 -3.26981e+06 1.44026e+06 0 -3.33787e+06 1.53085e+06 0 -3.41305e+06 1.63821e+06 0 -3.4962e+06 1.76779e+06 0 -3.5901e+06 1.93009e+06 0 -3.69042e+06 2.14259e+06 0 -3.78864e+06 2.42326e+06 0 -3.88039e+06 2.83189e+06 0 -3.85182e+06 3.46152e+06 0 -3.42727e+06 4.16731e+06 0 -2.56244e+06 4.51438e+06 0 -1.68854e+06 4.3521e+06 0 -1.1526e+06 3.98664e+06 0 -859566 3.6348e+06 0 -2.09771e+06 240005 0 -2.10634e+06 251503 0 -2.11537e+06 263133 0 -2.12479e+06 274902 0 -2.13462e+06 286819 0 -2.14484e+06 298893 0 -2.15548e+06 311131 0 -2.16652e+06 323545 0 -2.17798e+06 336142 0 -2.18985e+06 348935 0 -2.20215e+06 361933 0 -2.21488e+06 375148 0 -2.22804e+06 388593 0 -2.24164e+06 402280 0 -2.25569e+06 416223 0 -2.27019e+06 430436 0 -2.28515e+06 444936 0 -2.30057e+06 459738 0 -2.31648e+06 474860 0 -2.33286e+06 490321 0 -2.34975e+06 506143 0 -2.36714e+06 522347 0 -2.38505e+06 538956 0 -2.4035e+06 555998 0 -2.42249e+06 573500 0 -2.44205e+06 591495 0 -2.46219e+06 610015 0 -2.48294e+06 629098 0 -2.50432e+06 648787 0 -2.52636e+06 669128 0 -2.54908e+06 690172 0 -2.57253e+06 711978 0 -2.59673e+06 734611 0 -2.62174e+06 758147 0 -2.64761e+06 782669 0 -2.67439e+06 808276 0 -2.70216e+06 835081 0 -2.73099e+06 863214 0 -2.76098e+06 892830 0 -2.79223e+06 924109 0 -2.82487e+06 957268 0 -2.85904e+06 992565 0 -2.89492e+06 1.03031e+06 0 -2.93272e+06 1.0709e+06 0 -2.97268e+06 1.11479e+06 0 -3.01509e+06 1.1626e+06 0 -3.06029e+06 1.21506e+06 0 -3.10871e+06 1.27317e+06 0 -3.16084e+06 1.33821e+06 0 -3.21723e+06 1.4119e+06 0 -3.27861e+06 1.49659e+06 0 -3.34571e+06 1.59574e+06 0 -3.41881e+06 1.71402e+06 0 -3.499e+06 1.85865e+06 0 -3.58507e+06 2.04255e+06 0 -3.66865e+06 2.28153e+06 0 -3.74161e+06 2.60412e+06 0 -3.75952e+06 3.07355e+06 0 -3.55817e+06 3.68237e+06 0 -2.97925e+06 4.18618e+06 0 -2.17431e+06 4.30166e+06 0 -1.50208e+06 4.07689e+06 0 -1.09381e+06 3.75362e+06 0 -842486 3.43932e+06 0 -2.09994e+06 248858 0 -2.10875e+06 260499 0 -2.11796e+06 272276 0 -2.12755e+06 284198 0 -2.13755e+06 296272 0 -2.14794e+06 308508 0 -2.15874e+06 320915 0 -2.16995e+06 333502 0 -2.18157e+06 346279 0 -2.1936e+06 359258 0 -2.20606e+06 372448 0 -2.21894e+06 385863 0 -2.23226e+06 399515 0 -2.24601e+06 413416 0 -2.26021e+06 427582 0 -2.27485e+06 442027 0 -2.28996e+06 456767 0 -2.30553e+06 471820 0 -2.32157e+06 487205 0 -2.3381e+06 502940 0 -2.35512e+06 519048 0 -2.37265e+06 535552 0 -2.39069e+06 552476 0 -2.40927e+06 569850 0 -2.4284e+06 587701 0 -2.44808e+06 606064 0 -2.46836e+06 624975 0 -2.48923e+06 644473 0 -2.51074e+06 664604 0 -2.5329e+06 685416 0 -2.55575e+06 706965 0 -2.57931e+06 729315 0 -2.60364e+06 752535 0 -2.62878e+06 776707 0 -2.65477e+06 801922 0 -2.68168e+06 828287 0 -2.70958e+06 855926 0 -2.73854e+06 884981 0 -2.76866e+06 915623 0 -2.80004e+06 948050 0 -2.83281e+06 982503 0 -2.86711e+06 1.01927e+06 0 -2.90312e+06 1.0587e+06 0 -2.94102e+06 1.10122e+06 0 -2.98107e+06 1.14738e+06 0 -3.02353e+06 1.19784e+06 0 -3.06872e+06 1.25347e+06 0 -3.11703e+06 1.31538e+06 0 -3.16887e+06 1.38507e+06 0 -3.22471e+06 1.46451e+06 0 -3.28508e+06 1.55651e+06 0 -3.35014e+06 1.66496e+06 0 -3.42003e+06 1.79538e+06 0 -3.49422e+06 1.95689e+06 0 -3.56721e+06 2.16257e+06 0 -3.62925e+06 2.43002e+06 0 -3.65865e+06 2.79492e+06 0 -3.5703e+06 3.28522e+06 0 -3.21934e+06 3.802e+06 0 -2.58684e+06 4.10848e+06 0 -1.89476e+06 4.08035e+06 0 -1.37481e+06 3.84009e+06 0 -1.04686e+06 3.55079e+06 0 -830119 3.26909e+06 0 -2.10225e+06 257860 0 -2.11124e+06 269646 0 -2.12062e+06 281573 0 -2.13038e+06 293649 0 -2.14054e+06 305884 0 -2.1511e+06 318285 0 -2.16207e+06 330862 0 -2.17343e+06 343625 0 -2.18521e+06 356585 0 -2.1974e+06 369753 0 -2.21002e+06 383139 0 -2.22305e+06 396757 0 -2.23652e+06 410619 0 -2.25042e+06 424739 0 -2.26476e+06 439132 0 -2.27955e+06 453814 0 -2.2948e+06 468800 0 -2.31051e+06 484110 0 -2.32669e+06 499762 0 -2.34335e+06 515777 0 -2.36051e+06 532179 0 -2.37816e+06 548990 0 -2.39634e+06 566238 0 -2.41504e+06 583951 0 -2.43429e+06 602162 0 -2.4541e+06 620905 0 -2.4745e+06 640218 0 -2.49549e+06 660144 0 -2.51712e+06 680731 0 -2.5394e+06 702032 0 -2.56236e+06 724106 0 -2.58604e+06 747020 0 -2.61048e+06 770852 0 -2.63573e+06 795687 0 -2.66184e+06 821627 0 -2.68886e+06 848787 0 -2.71686e+06 877302 0 -2.74593e+06 907329 0 -2.77615e+06 939054 0 -2.80763e+06 972698 0 -2.84048e+06 1.00853e+06 0 -2.87486e+06 1.04686e+06 0 -2.91092e+06 1.08808e+06 0 -2.94885e+06 1.13269e+06 0 -2.98887e+06 1.18127e+06 0 -3.03124e+06 1.23459e+06 0 -3.07623e+06 1.29364e+06 0 -3.12415e+06 1.35969e+06 0 -3.17533e+06 1.43443e+06 0 -3.23009e+06 1.52017e+06 0 -3.28854e+06 1.62011e+06 0 -3.35046e+06 1.73867e+06 0 -3.4152e+06 1.8825e+06 0 -3.47937e+06 2.06164e+06 0 -3.53463e+06 2.28915e+06 0 -3.56625e+06 2.58569e+06 0 -3.53045e+06 2.97789e+06 0 -3.3284e+06 3.44058e+06 0 -2.88053e+06 3.83027e+06 0 -2.26743e+06 3.97766e+06 0 -1.69405e+06 3.8699e+06 0 -1.28218e+06 3.63374e+06 0 -1.00927e+06 3.37214e+06 0 -821386 3.11862e+06 0 -2.10464e+06 267012 0 -2.1138e+06 278945 0 -2.12334e+06 291025 0 -2.13328e+06 303258 0 -2.1436e+06 315655 0 -2.15433e+06 328224 0 -2.16545e+06 340974 0 -2.17698e+06 353917 0 -2.18891e+06 367063 0 -2.20126e+06 380423 0 -2.21402e+06 394008 0 -2.22721e+06 407833 0 -2.24082e+06 421909 0 -2.25486e+06 436252 0 -2.26935e+06 450877 0 -2.28428e+06 465799 0 -2.29966e+06 481037 0 -2.31551e+06 496609 0 -2.33182e+06 512535 0 -2.34862e+06 528837 0 -2.3659e+06 545538 0 -2.38369e+06 562665 0 -2.40198e+06 580244 0 -2.42081e+06 598307 0 -2.44018e+06 616887 0 -2.46011e+06 636021 0 -2.48061e+06 655750 0 -2.50172e+06 676118 0 -2.52346e+06 697178 0 -2.54584e+06 718984 0 -2.56891e+06 741603 0 -2.5927e+06 765105 0 -2.61724e+06 789573 0 -2.64258e+06 815102 0 -2.66878e+06 841800 0 -2.69589e+06 869794 0 -2.72398e+06 899230 0 -2.75312e+06 930281 0 -2.78341e+06 963151 0 -2.81494e+06 998083 0 -2.84783e+06 1.03537e+06 0 -2.88222e+06 1.07537e+06 0 -2.91825e+06 1.11851e+06 0 -2.9561e+06 1.16534e+06 0 -2.99597e+06 1.21653e+06 0 -3.03806e+06 1.27294e+06 0 -3.0826e+06 1.33568e+06 0 -3.1298e+06 1.4062e+06 0 -3.17986e+06 1.48642e+06 0 -3.23282e+06 1.57897e+06 0 -3.28835e+06 1.68746e+06 0 -3.34566e+06 1.81696e+06 0 -3.40244e+06 1.97499e+06 0 -3.4525e+06 2.1717e+06 0 -3.48442e+06 2.42065e+06 0 -3.47314e+06 2.74058e+06 0 -3.35845e+06 3.13355e+06 0 -3.06025e+06 3.52988e+06 0 -2.57201e+06 3.79001e+06 0 -2.01733e+06 3.82394e+06 0 -1.54707e+06 3.6766e+06 0 -1.2115e+06 3.45155e+06 0 -979429 3.21316e+06 0 -815185 2.98331e+06 0 -2.1071e+06 276316 0 -2.11643e+06 288399 0 -2.12614e+06 300633 0 -2.13624e+06 313026 0 -2.14673e+06 325587 0 -2.15761e+06 338327 0 -2.16889e+06 351254 0 -2.18057e+06 364379 0 -2.19266e+06 377714 0 -2.20516e+06 391269 0 -2.21807e+06 405058 0 -2.2314e+06 419093 0 -2.24516e+06 433388 0 -2.25935e+06 447958 0 -2.27397e+06 462819 0 -2.28904e+06 477987 0 -2.30455e+06 493481 0 -2.32053e+06 509321 0 -2.33697e+06 525527 0 -2.35389e+06 542123 0 -2.3713e+06 559132 0 -2.38921e+06 576581 0 -2.40762e+06 594501 0 -2.42656e+06 612924 0 -2.44604e+06 631884 0 -2.46608e+06 651420 0 -2.4867e+06 671577 0 -2.50791e+06 692403 0 -2.52974e+06 713951 0 -2.55222e+06 736283 0 -2.57539e+06 759466 0 -2.59926e+06 783580 0 -2.62389e+06 808712 0 -2.64931e+06 834965 0 -2.67558e+06 862458 0 -2.70276e+06 891326 0 -2.7309e+06 921731 0 -2.76009e+06 953861 0 -2.7904e+06 987940 0 -2.82193e+06 1.02424e+06 0 -2.8548e+06 1.06307e+06 0 -2.88912e+06 1.10484e+06 0 -2.92503e+06 1.15003e+06 0 -2.96267e+06 1.19924e+06 0 -3.00221e+06 1.25323e+06 0 -3.04381e+06 1.31295e+06 0 -3.08761e+06 1.37966e+06 0 -3.13369e+06 1.45498e+06 0 -3.18203e+06 1.5411e+06 0 -3.23231e+06 1.64095e+06 0 -3.28371e+06 1.75856e+06 0 -3.33441e+06 1.89962e+06 0 -3.37998e+06 2.07197e+06 0 -3.41162e+06 2.28555e+06 0 -3.41282e+06 2.55309e+06 0 -3.34733e+06 2.88309e+06 0 -3.15411e+06 3.24807e+06 0 -2.79167e+06 3.5574e+06 0 -2.30747e+06 3.7053e+06 0 -1.82416e+06 3.66515e+06 0 -1.43629e+06 3.50094e+06 0 -1.15606e+06 3.2889e+06 0 -955872 3.07023e+06 0 -810854 2.85994e+06 0 -2.10963e+06 285773 0 -2.11912e+06 298008 0 -2.129e+06 310399 0 -2.13926e+06 322954 0 -2.14991e+06 335683 0 -2.16095e+06 348596 0 -2.17239e+06 361702 0 -2.18422e+06 375013 0 -2.19646e+06 388540 0 -2.20911e+06 402294 0 -2.22216e+06 416289 0 -2.23564e+06 430539 0 -2.24953e+06 445057 0 -2.26386e+06 459858 0 -2.27862e+06 474960 0 -2.29382e+06 490380 0 -2.30947e+06 506136 0 -2.32557e+06 522250 0 -2.34214e+06 538742 0 -2.35918e+06 555638 0 -2.3767e+06 572962 0 -2.39472e+06 590744 0 -2.41325e+06 609014 0 -2.4323e+06 627805 0 -2.45189e+06 647156 0 -2.47203e+06 667109 0 -2.49274e+06 687708 0 -2.51404e+06 709006 0 -2.53597e+06 731060 0 -2.55853e+06 753936 0 -2.58178e+06 777707 0 -2.60572e+06 802457 0 -2.63042e+06 828282 0 -2.6559e+06 855292 0 -2.68222e+06 883616 0 -2.70943e+06 913402 0 -2.7376e+06 944825 0 -2.76679e+06 978093 0 -2.79708e+06 1.01345e+06 0 -2.82856e+06 1.05119e+06 0 -2.86133e+06 1.09167e+06 0 -2.89549e+06 1.13533e+06 0 -2.93115e+06 1.1827e+06 0 -2.96844e+06 1.23444e+06 0 -3.00746e+06 1.29142e+06 0 -3.0483e+06 1.35468e+06 0 -3.09098e+06 1.42564e+06 0 -3.13544e+06 1.5061e+06 0 -3.18134e+06 1.5985e+06 0 -3.22793e+06 1.70608e+06 0 -3.27367e+06 1.83325e+06 0 -3.31529e+06 1.98607e+06 0 -3.34619e+06 2.17217e+06 0 -3.35447e+06 2.4007e+06 0 -3.31712e+06 2.67992e+06 0 -3.19222e+06 3.00186e+06 0 -2.93378e+06 3.31613e+06 0 -2.54134e+06 3.53514e+06 0 -2.08863e+06 3.59568e+06 0 -1.67454e+06 3.51041e+06 0 -1.35047e+06 3.34143e+06 0 -1.11196e+06 3.1423e+06 0 -937323 2.94045e+06 0 -808057 2.74635e+06 0 -2.11222e+06 295385 0 -2.12188e+06 307774 0 -2.13192e+06 320324 0 -2.14234e+06 333044 0 -2.15315e+06 345944 0 -2.16434e+06 359033 0 -2.17593e+06 372321 0 -2.18792e+06 385821 0 -2.2003e+06 399543 0 -2.21309e+06 413501 0 -2.22629e+06 427706 0 -2.23991e+06 442174 0 -2.25394e+06 456918 0 -2.2684e+06 471956 0 -2.28329e+06 487304 0 -2.29862e+06 502980 0 -2.31439e+06 519005 0 -2.33062e+06 535398 0 -2.3473e+06 552184 0 -2.36446e+06 569387 0 -2.3821e+06 587035 0 -2.40023e+06 605157 0 -2.41886e+06 623786 0 -2.43801e+06 642958 0 -2.4577e+06 662712 0 -2.47793e+06 683092 0 -2.49873e+06 704149 0 -2.52012e+06 725935 0 -2.54212e+06 748514 0 -2.56476e+06 771954 0 -2.58806e+06 796336 0 -2.61207e+06 821748 0 -2.63681e+06 848295 0 -2.66233e+06 876097 0 -2.68867e+06 905291 0 -2.71589e+06 936040 0 -2.74404e+06 968535 0 -2.77319e+06 1.003e+06 0 -2.8034e+06 1.03971e+06 0 -2.83476e+06 1.07897e+06 0 -2.86734e+06 1.1212e+06 0 -2.90123e+06 1.16685e+06 0 -2.93652e+06 1.21654e+06 0 -2.97327e+06 1.27099e+06 0 -3.01153e+06 1.33114e+06 0 -3.05129e+06 1.39818e+06 0 -3.09243e+06 1.47366e+06 0 -3.13465e+06 1.55957e+06 0 -3.17725e+06 1.65858e+06 0 -3.21892e+06 1.7742e+06 0 -3.25713e+06 1.91113e+06 0 -3.28694e+06 2.07533e+06 0 -3.29948e+06 2.27378e+06 0 -3.27905e+06 2.51324e+06 0 -3.19748e+06 2.79334e+06 0 -3.01625e+06 3.08908e+06 0 -2.71338e+06 3.34e+06 0 -2.31928e+06 3.47723e+06 0 -1.91077e+06 3.47471e+06 0 -1.55729e+06 3.3637e+06 0 -1.28255e+06 3.19605e+06 0 -1.07663e+06 3.00903e+06 0 -922774 2.82156e+06 0 -806612 2.64101e+06 0 -2.11489e+06 305153 0 -2.12471e+06 317699 0 -2.13491e+06 330411 0 -2.14548e+06 343299 0 -2.15645e+06 356371 0 -2.16779e+06 369639 0 -2.17953e+06 383113 0 -2.19166e+06 396805 0 -2.20419e+06 410726 0 -2.21712e+06 424890 0 -2.23046e+06 439310 0 -2.24421e+06 454000 0 -2.25838e+06 468976 0 -2.27297e+06 484255 0 -2.28799e+06 499854 0 -2.30344e+06 515792 0 -2.31933e+06 532090 0 -2.33567e+06 548770 0 -2.35247e+06 565856 0 -2.36974e+06 583374 0 -2.38748e+06 601354 0 -2.40572e+06 619825 0 -2.42445e+06 638823 0 -2.44369e+06 658386 0 -2.46346e+06 678555 0 -2.48378e+06 699378 0 -2.50466e+06 720906 0 -2.52612e+06 743198 0 -2.54819e+06 766320 0 -2.57088e+06 790347 0 -2.59424e+06 815363 0 -2.61828e+06 841466 0 -2.64305e+06 868767 0 -2.66858e+06 897395 0 -2.69491e+06 927501 0 -2.7221e+06 959261 0 -2.75019e+06 992881 0 -2.77924e+06 1.02861e+06 0 -2.80931e+06 1.06673e+06 0 -2.84046e+06 1.10762e+06 0 -2.87276e+06 1.15168e+06 0 -2.90625e+06 1.19946e+06 0 -2.941e+06 1.2516e+06 0 -2.97699e+06 1.30892e+06 0 -3.01421e+06 1.37244e+06 0 -3.05251e+06 1.44348e+06 0 -3.09159e+06 1.52372e+06 0 -3.13085e+06 1.61535e+06 0 -3.16914e+06 1.72121e+06 0 -3.20443e+06 1.84502e+06 0 -3.23297e+06 1.99147e+06 0 -3.24808e+06 2.16606e+06 0 -3.2384e+06 2.37422e+06 0 -3.18458e+06 2.61807e+06 0 -3.05756e+06 2.88637e+06 0 -2.83024e+06 3.14183e+06 0 -2.50498e+06 3.32666e+06 0 -2.12851e+06 3.39638e+06 0 -1.76694e+06 3.35086e+06 0 -1.46406e+06 3.22625e+06 0 -1.22803e+06 3.06291e+06 0 -1.0482e+06 2.88694e+06 0 -911474 2.71179e+06 0 -806391 2.54273e+06 0 -2.11762e+06 315079 0 -2.1276e+06 327784 0 -2.13795e+06 340661 0 -2.14868e+06 353719 0 -2.1598e+06 366967 0 -2.17129e+06 380417 0 -2.18318e+06 394080 0 -2.19545e+06 407967 0 -2.20812e+06 422091 0 -2.22119e+06 436465 0 -2.23467e+06 451103 0 -2.24855e+06 466020 0 -2.26284e+06 481232 0 -2.27756e+06 496756 0 -2.2927e+06 512612 0 -2.30827e+06 528817 0 -2.32428e+06 545395 0 -2.34073e+06 562368 0 -2.35764e+06 579762 0 -2.37501e+06 597603 0 -2.39285e+06 615923 0 -2.41118e+06 634754 0 -2.43e+06 654131 0 -2.44933e+06 674097 0 -2.46918e+06 694694 0 -2.48957e+06 715973 0 -2.51052e+06 737989 0 -2.53204e+06 760804 0 -2.55416e+06 784489 0 -2.57689e+06 809125 0 -2.60027e+06 834801 0 -2.62433e+06 861622 0 -2.6491e+06 889710 0 -2.67461e+06 919202 0 -2.7009e+06 950263 0 -2.72801e+06 983081 0 -2.75599e+06 1.01788e+06 0 -2.78489e+06 1.05494e+06 0 -2.81474e+06 1.09456e+06 0 -2.84559e+06 1.13715e+06 0 -2.87749e+06 1.18316e+06 0 -2.91044e+06 1.23318e+06 0 -2.94444e+06 1.28791e+06 0 -2.97944e+06 1.34826e+06 0 -3.01528e+06 1.41534e+06 0 -3.05168e+06 1.49057e+06 0 -3.08809e+06 1.57579e+06 0 -3.12353e+06 1.67331e+06 0 -3.15634e+06 1.78613e+06 0 -3.18358e+06 1.91798e+06 0 -3.20015e+06 2.07325e+06 0 -3.19759e+06 2.25638e+06 0 -3.16208e+06 2.47008e+06 0 -3.07237e+06 2.70987e+06 0 -2.90373e+06 2.95439e+06 0 -2.64459e+06 3.16155e+06 0 -2.31583e+06 3.28486e+06 0 -1.96764e+06 3.30245e+06 0 -1.65034e+06 3.22888e+06 0 -1.38894e+06 3.09805e+06 0 -1.18384e+06 2.94031e+06 0 -1.02532e+06 2.77429e+06 0 -902871 2.60976e+06 0 -807289 2.45055e+06 0 -2.12041e+06 325164 0 -2.13055e+06 338032 0 -2.14105e+06 351076 0 -2.15194e+06 364306 0 -2.1632e+06 377734 0 -2.17484e+06 391369 0 -2.18687e+06 405224 0 -2.19928e+06 419310 0 -2.21209e+06 433640 0 -2.22529e+06 448228 0 -2.2389e+06 463088 0 -2.25291e+06 478236 0 -2.26733e+06 493689 0 -2.28216e+06 509464 0 -2.29742e+06 525581 0 -2.31311e+06 542061 0 -2.32923e+06 558925 0 -2.34579e+06 576198 0 -2.3628e+06 593906 0 -2.38026e+06 612079 0 -2.3982e+06 630748 0 -2.41662e+06 649947 0 -2.43552e+06 669715 0 -2.45492e+06 690095 0 -2.47485e+06 711134 0 -2.4953e+06 732883 0 -2.5163e+06 755403 0 -2.53786e+06 778761 0 -2.56001e+06 803030 0 -2.58277e+06 828297 0 -2.60616e+06 854659 0 -2.63021e+06 882230 0 -2.65495e+06 911137 0 -2.6804e+06 941533 0 -2.70661e+06 973592 0 -2.7336e+06 1.00752e+06 0 -2.76141e+06 1.04356e+06 0 -2.79008e+06 1.08201e+06 0 -2.81962e+06 1.12321e+06 0 -2.85007e+06 1.16759e+06 0 -2.88143e+06 1.21565e+06 0 -2.91366e+06 1.26803e+06 0 -2.9467e+06 1.32549e+06 0 -2.9804e+06 1.38902e+06 0 -3.01448e+06 1.45982e+06 0 -3.04845e+06 1.53942e+06 0 -3.08148e+06 1.62976e+06 0 -3.11216e+06 1.73326e+06 0 -3.13814e+06 1.85294e+06 0 -3.15549e+06 1.99232e+06 0 -3.15775e+06 2.15509e+06 0 -3.1347e+06 2.34393e+06 0 -3.07078e+06 2.55751e+06 0 -2.94577e+06 2.78416e+06 0 -2.74347e+06 2.99578e+06 0 -2.46746e+06 3.15264e+06 0 -2.14894e+06 3.22308e+06 0 -1.83321e+06 3.20233e+06 0 -1.55521e+06 3.11121e+06 0 -1.32776e+06 2.97851e+06 0 -1.14781e+06 2.82682e+06 0 -1.00693e+06 2.6697e+06 0 -896551 2.51437e+06 0 -809210 2.36368e+06 0 -2.12327e+06 335411 0 -2.13355e+06 348443 0 -2.14421e+06 361657 0 -2.15524e+06 375063 0 -2.16665e+06 388673 0 -2.17843e+06 402497 0 -2.1906e+06 416546 0 -2.20315e+06 430834 0 -2.21609e+06 445374 0 -2.22943e+06 460180 0 -2.24316e+06 475267 0 -2.25729e+06 490651 0 -2.27183e+06 506350 0 -2.28679e+06 522381 0 -2.30216e+06 538765 0 -2.31795e+06 555524 0 -2.33417e+06 572681 0 -2.35083e+06 590261 0 -2.36794e+06 608292 0 -2.3855e+06 626805 0 -2.40352e+06 645832 0 -2.42201e+06 665410 0 -2.44099e+06 685581 0 -2.46046e+06 706387 0 -2.48044e+06 727881 0 -2.50094e+06 750117 0 -2.52198e+06 773158 0 -2.54357e+06 797076 0 -2.56574e+06 821951 0 -2.5885e+06 847874 0 -2.61187e+06 874950 0 -2.63588e+06 903300 0 -2.66056e+06 933063 0 -2.68592e+06 964402 0 -2.712e+06 997505 0 -2.73881e+06 1.0326e+06 0 -2.76639e+06 1.06994e+06 0 -2.79475e+06 1.10985e+06 0 -2.82389e+06 1.15271e+06 0 -2.8538e+06 1.19896e+06 0 -2.88446e+06 1.24918e+06 0 -2.91577e+06 1.30403e+06 0 -2.94759e+06 1.36435e+06 0 -2.97966e+06 1.43119e+06 0 -3.01153e+06 1.50585e+06 0 -3.04247e+06 1.58993e+06 0 -3.07131e+06 1.68545e+06 0 -3.09613e+06 1.79485e+06 0 -3.11382e+06 1.92102e+06 0 -3.11939e+06 2.06698e+06 0 -3.10508e+06 2.23524e+06 0 -3.0