<?xml version="1.0"?> 
<VTKFile type="StructuredGrid" version="0.1"> 
<StructuredGrid WholeExtent="0 63 0 63 0 0"> 
<Piece Extent="0 63 0 63 0 0"> 
<PointData>
<DataArray type="Float32" Name="|E|" format="ascii" NumberOfComponents="3"> 
987060 221235 0 971465 217095 0 956191 212947 0 941235 208796 0 926594 204646 0 912268 200501 0 898252 196364 0 884545 192239 0 871144 188129 0 858046 184035 0 845249 179962 0 832749 175909 0 820543 171880 0 808630 167875 0 797006 163896 0 785668 159944 0 774614 156021 0 763841 152126 0 753345 148260 0 743125 144424 0 733177 140619 0 723498 136843 0 714087 133099 0 704940 129385 0 696054 125702 0 687428 122049 0 679059 118427 0 670943 114834 0 663079 111272 0 655465 107738 0 648097 104234 0 640974 100757 0 634094 97308.8 0 627454 93887.5 0 621053 90492.8 0 614888 87124 0 608956 83780.5 0 603258 80461.5 0 597790 77166.2 0 592550 73894 0 587538 70644 0 582751 67415.4 0 578188 64207.4 0 573847 61019.2 0 569727 57849.8 0 565827 54698.4 0 562145 51564.2 0 558680 48446.2 0 555430 45343.4 0 552395 42255.1 0 549574 39180.2 0 546966 36117.9 0 544569 33067.1 0 542384 30027 0 540409 26996.6 0 538643 23974.9 0 537086 20961 0 535738 17953.9 0 534598 14952.7 0 533665 11956.3 0 532939 8963.82 0 532421 5974.26 0 532109 2986.64 0 532004 0 0 986124 223511 0 970535 219337 0 955268 215154 0 940319 210968 0 925686 206783 0 911368 202602 0 897361 198430 0 883662 194270 0 870270 190125 0 857181 185996 0 844392 181887 0 831902 177799 0 819706 173735 0 807802 169695 0 796187 165680 0 784858 161693 0 773813 157734 0 763049 153804 0 752563 149903 0 742351 146032 0 732412 142191 0 722742 138381 0 713340 134601 0 704201 130852 0 695324 127133 0 686706 123445 0 678344 119788 0 670236 116160 0 662380 112562 0 654773 108993 0 647412 105453 0 640297 101942 0 633423 98457.9 0 626790 95001.2 0 620394 91571.1 0 614235 88166.8 0 608309 84787.8 0 602616 81433.2 0 597153 78102.3 0 591919 74794.4 0 586911 71508.7 0 582128 68244.2 0 577569 65000.3 0 573233 61776 0 569116 58570.4 0 565219 55382.8 0 561540 52212.1 0 558077 49057.5 0 554830 45918.1 0 551798 42792.9 0 548978 39681.1 0 546372 36581.6 0 543976 33493.5 0 541792 30415.8 0 539817 27347.6 0 538051 24288 0 536495 21235.9 0 535146 18190.3 0 534005 15150.4 0 533071 12115 0 532345 9083.31 0 531825 6054.22 0 531511 3026.78 0 531404 0 0 985180 225786 0 969598 221577 0 954337 217359 0 939396 213138 0 924771 208917 0 910461 204702 0 896462 200495 0 882772 196299 0 869389 192118 0 856309 187955 0 843529 183810 0 831047 179687 0 818861 175587 0 806966 171512 0 795360 167462 0 784041 163440 0 773006 159446 0 762250 155480 0 751773 151544 0 741571 147638 0 731640 143762 0 721979 139916 0 712585 136101 0 703455 132317 0 694586 128563 0 685976 124840 0 677622 121147 0 669522 117484 0 661673 113851 0 654074 110247 0 646720 106671 0 639611 103125 0 632744 99605.3 0 626117 96113.3 0 619728 92647.8 0 613575 89208.1 0 607655 85793.6 0 601967 82403.5 0 596509 79037.1 0 591280 75693.5 0 586277 72372 0 581498 69071.7 0 576944 65791.9 0 572610 62531.6 0 568498 59289.9 0 564604 56066 0 560927 52859 0 557468 49668 0 554223 46491.9 0 551192 43330 0 548375 40181.1 0 545769 37044.5 0 543375 33919.1 0 541191 30804 0 539217 27698.1 0 537452 24600.5 0 535895 21510.2 0 534546 18426.3 0 533405 15347.7 0 532470 12273.5 0 531742 9202.6 0 531220 6134.05 0 530905 3066.85 0 530795 0 0 984229 228059 0 968653 223815 0 953400 219562 0 938466 215306 0 923849 211050 0 909546 206799 0 895556 202557 0 881875 198326 0 868500 194110 0 855429 189911 0 842658 185731 0 830186 181573 0 818008 177438 0 806123 173327 0 794527 169242 0 783217 165185 0 772190 161155 0 761444 157154 0 750976 153183 0 740783 149241 0 730861 145330 0 721209 141449 0 711823 137599 0 702702 133779 0 693841 129990 0 685239 126232 0 676893 122504 0 668801 118806 0 660960 115137 0 653367 111498 0 646021 107888 0 638919 104306 0 632059 100751 0 625438 97223.8 0 619055 93722.9 0 612907 90247.9 0 606993 86797.9 0 601311 83372.4 0 595858 79970.4 0 590633 76591.2 0 585635 73234 0 580861 69898 0 576310 66582.3 0 571981 63286 0 567872 60008.3 0 563981 56748.2 0 560307 53504.9 0 556850 50277.4 0 553608 47064.8 0 550579 43866.1 0 547764 40680.4 0 545160 37506.7 0 542767 34344.1 0 540584 31191.5 0 538610 28048 0 536845 24912.5 0 535288 21784.2 0 533939 18661.9 0 532796 15544.8 0 531861 12431.7 0 531131 9321.7 0 530608 6213.76 0 530290 3106.86 0 530178 0 0 983271 230331 0 967702 226052 0 952455 221764 0 937528 217472 0 922919 213181 0 908625 208895 0 894643 204617 0 880970 200351 0 867604 196100 0 854542 191865 0 841781 187650 0 829317 183457 0 817149 179286 0 805273 175140 0 793686 171020 0 782385 166927 0 771368 162862 0 760631 158826 0 750172 154820 0 739988 150843 0 730075 146896 0 720432 142980 0 711055 139095 0 701941 135240 0 693089 131416 0 684495 127622 0 676157 123859 0 668073 120126 0 660239 116422 0 652654 112748 0 645315 109102 0 638219 105485 0 631366 101895 0 624751 98332.6 0 618374 94796.5 0 612233 91286.1 0 606324 87800.8 0 600647 84339.7 0 595200 80902.2 0 589980 77487.5 0 584986 74094.7 0 580216 70722.9 0 575670 67371.4 0 571344 64039.3 0 567238 60725.5 0 563351 57429.4 0 559680 54149.8 0 556225 50885.9 0 552985 47636.8 0 549959 44401.4 0 547145 41178.9 0 544542 37968.2 0 542150 34768.4 0 539968 31578.4 0 537995 28397.3 0 536230 25224 0 534673 22057.7 0 533323 18897.2 0 532180 15741.5 0 531243 12589.7 0 530512 9440.61 0 529987 6293.33 0 529668 3146.8 0 529553 0 0 982306 232601 0 966743 228286 0 951503 223963 0 936584 219636 0 921982 215310 0 907696 210989 0 893722 206676 0 880058 202374 0 866701 198087 0 853648 193818 0 840896 189567 0 828442 185338 0 816283 181132 0 804416 176951 0 792838 172796 0 781547 168668 0 770539 164567 0 759811 160496 0 749361 156454 0 739185 152442 0 729282 148460 0 719647 144509 0 710278 140589 0 701174 136699 0 692330 132840 0 683744 129011 0 675414 125212 0 667337 121444 0 659511 117705 0 651933 113996 0 644601 110315 0 637512 106662 0 630665 103038 0 624057 99439.8 0 617687 95868.4 0 611551 92322.7 0 605648 88802 0 599976 85305.6 0 594534 81832.7 0 589319 78382.4 0 584330 74954 0 579564 71546.6 0 575021 68159.4 0 570700 64791.3 0 566597 61441.7 0 562713 58109.4 0 559045 54793.7 0 555593 51493.5 0 552355 48207.9 0 549331 44935.9 0 546518 41676.6 0 543917 38428.9 0 541526 35191.9 0 539345 31964.7 0 537372 28746 0 535608 25535.1 0 534050 22330.7 0 532700 19132 0 531556 15937.9 0 530618 12747.3 0 529886 9559.31 0 529359 6372.77 0 529037 3186.68 0 528920 0 0 981334 234869 0 965777 230520 0 950544 226161 0 935632 221799 0 921038 217437 0 906760 213080 0 892795 208732 0 879139 204395 0 865791 200073 0 852747 195768 0 840003 191482 0 827558 187218 0 815409 182976 0 803551 178760 0 791983 174569 0 780701 170406 0 769702 166270 0 758983 162164 0 748542 158087 0 738376 154039 0 728481 150022 0 718855 146036 0 709495 142080 0 700399 138155 0 691563 134261 0 682985 130397 0 674663 126564 0 666594 122760 0 658775 118986 0 651205 115242 0 643880 111526 0 636798 107838 0 629958 104178 0 623356 100545 0 616992 96938.7 0 610862 93357.7 0 604965 89801.8 0 599298 86270 0 593861 82761.7 0 588651 79276 0 583666 75812 0 578905 72369 0 574366 68946.1 0 570048 65542.2 0 565949 62156.7 0 562068 58788.4 0 558403 55436.5 0 554953 52100 0 551718 48778 0 548695 45469.5 0 545885 42173.4 0 543285 38888.9 0 540895 35614.9 0 538714 32350.3 0 536742 29094.2 0 534977 25845.6 0 533420 22603.3 0 532069 19366.5 0 530924 16134 0 529985 12904.8 0 529251 9677.82 0 528722 6452.08 0 528398 3226.49 0 528279 0 0 980354 237136 0 964804 232751 0 949577 228357 0 934673 223959 0 920087 219562 0 905817 215170 0 891860 210786 0 878213 206414 0 864873 202056 0 851838 197716 0 839104 193395 0 826668 189095 0 814528 184818 0 802679 180566 0 791120 176340 0 779847 172142 0 768858 167971 0 758149 163829 0 747717 159717 0 737559 155634 0 727673 151582 0 718056 147561 0 708705 143570 0 699617 139610 0 690789 135681 0 682220 131782 0 673906 127913 0 665844 124075 0 658033 120266 0 650470 116486 0 643152 112735 0 636077 109012 0 629243 105317 0 622648 101649 0 616289 98007.3 0 610165 94391.2 0 604274 90800 0 598613 87232.9 0 593180 83689.3 0 587975 80168.1 0 582995 76668.7 0 578238 73190.1 0 573703 69731.5 0 569389 66291.9 0 565293 62870.5 0 561415 59466.3 0 557753 56078.3 0 554306 52705.6 0 551073 49347.2 0 548052 46002.2 0 545243 42669.5 0 542645 39348.1 0 540256 36037.1 0 538076 32735.3 0 536104 29441.8 0 534339 26155.5 0 532781 22875.5 0 531430 19600.5 0 530284 16329.7 0 529344 13061.9 0 528608 9796.13 0 528077 6531.25 0 527751 3266.23 0 527629 0 0 979367 239401 0 963823 234980 0 948604 230551 0 933706 226118 0 919128 221685 0 904866 217257 0 890917 212838 0 877279 208430 0 863949 204037 0 850922 199661 0 838197 195305 0 825771 190970 0 813639 186658 0 801800 182371 0 790251 178109 0 778987 173875 0 768007 169670 0 757307 165493 0 746884 161345 0 736735 157227 0 726858 153140 0 717250 149084 0 707907 145058 0 698827 141063 0 690008 137098 0 681447 133164 0 673141 129261 0 665087 125387 0 657283 121543 0 649727 117728 0 642416 113942 0 635348 110185 0 628521 106454 0 621932 102751 0 615580 99074.3 0 609462 95423.1 0 603576 91796.6 0 597920 88194.4 0 592493 84615.4 0 587292 81058.9 0 582317 77524 0 577564 74009.9 0 573033 70515.7 0 568722 67040.4 0 564630 63583.2 0 560755 60143 0 557096 56719 0 553651 53310.2 0 550420 49915.5 0 547402 46534 0 544594 43164.7 0 541997 39806.6 0 539609 36458.6 0 537429 33119.6 0 535458 29788.8 0 533693 26465 0 532135 23147.1 0 530783 19834.2 0 529636 16525.1 0 528694 13218.8 0 527957 9914.23 0 527424 6610.28 0 527096 3305.9 0 526971 0 0 978372 241664 0 962835 237208 0 947623 232743 0 932733 228274 0 918162 223806 0 903908 219343 0 889968 214888 0 876338 210445 0 863017 206016 0 849999 201605 0 837283 197213 0 824866 192843 0 812744 188495 0 800914 184173 0 789374 179876 0 778120 175607 0 767148 171366 0 756457 167154 0 746044 162971 0 735904 158818 0 726036 154696 0 716436 150604 0 707102 146543 0 698031 142513 0 689220 138514 0 680667 134545 0 672368 130606 0 664322 126698 0 656526 122819 0 648977 118969 0 641674 115148 0 634613 111355 0 627792 107590 0 621210 103852 0 614863 100140 0 608751 96453.3 0 602870 92791.7 0 597220 89154.2 0 591798 85540 0 586602 81948.2 0 581631 78377.9 0 576883 74828.4 0 572356 71298.6 0 568049 67787.7 0 563960 64294.7 0 560088 60818.7 0 556431 57358.7 0 552989 53913.8 0 549760 50482.9 0 546743 47065 0 543937 43659.1 0 541341 40264.2 0 538954 36879.3 0 536776 33503.4 0 534804 30135.2 0 533040 26773.9 0 531481 23418.4 0 530128 20067.5 0 528980 16720.2 0 528037 13375.4 0 527298 10032.1 0 526763 6689.18 0 526432 3345.5 0 526305 0 0 977371 243926 0 961840 239434 0 946634 234933 0 931752 230429 0 917189 225925 0 902943 221426 0 889011 216936 0 875390 212457 0 862077 207993 0 849069 203546 0 836362 199119 0 823954 194713 0 811841 190330 0 800021 185973 0 788490 181641 0 777245 177336 0 766283 173060 0 755601 168813 0 745196 164595 0 735066 160407 0 725206 156250 0 715615 152123 0 706290 148027 0 697227 143962 0 688425 139927 0 679880 135923 0 671589 131950 0 663551 128006 0 655762 124092 0 648221 120208 0 640924 116352 0 633870 112524 0 627056 108724 0 620480 104950 0 614139 101203 0 608033 97481.9 0 602158 93785.2 0 596513 90112.6 0 591096 86463.1 0 585905 82836.1 0 580938 79230.5 0 576194 75645.5 0 571671 72080.2 0 567367 68533.7 0 563282 65005 0 559413 61493.2 0 555759 57997.3 0 552320 54516.3 0 549093 51049.2 0 546078 47595 0 543273 44152.7 0 540678 40721.2 0 538292 37299.4 0 536114 33886.4 0 534143 30481.1 0 532378 27082.3 0 530819 23689.1 0 529466 20300.3 0 528317 16914.9 0 527372 13531.8 0 526632 10149.8 0 526095 6767.94 0 525761 3385.04 0 525631 0 0 976362 246185 0 960837 241658 0 945639 237121 0 930763 232581 0 916208 228042 0 901971 223508 0 888047 218982 0 874435 214467 0 861131 209968 0 848131 205486 0 835434 201023 0 823035 196581 0 810931 192163 0 799120 187770 0 787598 183403 0 776363 179063 0 765410 174752 0 754737 170469 0 744342 166216 0 734220 161993 0 724370 157801 0 714788 153639 0 705471 149508 0 696417 145408 0 687622 141339 0 679085 137300 0 670803 133291 0 662772 129313 0 654991 125364 0 647457 121444 0 640167 117553 0 633120 113691 0 626312 109856 0 619742 106047 0 613408 102265 0 607307 98508.9 0 601438 94777.2 0 595798 91069.4 0 590386 87384.8 0 585200 83722.5 0 580238 80081.6 0 575498 76461.3 0 570979 72860.6 0 566679 69278.5 0 562597 65714.2 0 558731 62166.7 0 555080 58634.9 0 551643 55117.9 0 548418 51614.7 0 545405 48124.2 0 542602 44645.4 0 540008 41177.3 0 537623 37718.8 0 535445 34268.8 0 533474 30826.3 0 531709 27390.2 0 530150 23959.4 0 528795 20532.8 0 527645 17109.3 0 526699 13687.9 0 525957 10267.3 0 525418 6846.57 0 525082 3424.5 0 524949 0 0 975345 248443 0 959827 243880 0 944636 239308 0 929768 234732 0 915221 230157 0 900991 225587 0 887076 221025 0 873472 216475 0 860177 211940 0 847187 207422 0 834498 202924 0 822109 198447 0 810014 193994 0 798213 189566 0 786700 185163 0 775474 180788 0 764530 176441 0 753867 172124 0 743480 167836 0 733368 163578 0 723526 159350 0 713953 155153 0 704644 150987 0 695599 146852 0 686813 142748 0 678284 138674 0 670009 134631 0 661986 130617 0 654212 126634 0 646685 122679 0 639403 118753 0 632362 114856 0 625561 110986 0 618998 107143 0 612670 103326 0 606575 99534.2 0 600711 95767.5 0 595077 92024.7 0 589670 88305 0 584488 84607.5 0 579530 80931.4 0 574795 77275.7 0 570279 73639.6 0 565983 70022.1 0 561904 66422.2 0 558041 62839 0 554393 59271.4 0 550958 55718.5 0 547736 52179.2 0 544724 48652.5 0 541922 45137.3 0 539330 41632.6 0 536945 38137.4 0 534768 34650.5 0 532797 31170.9 0 531032 27697.5 0 529473 24229.2 0 528117 20764.8 0 526966 17303.4 0 526018 13843.7 0 525274 10384.6 0 524733 6925.05 0 524394 3463.89 0 524258 0 0 974322 250699 0 958810 246100 0 943625 241492 0 928765 236880 0 914225 232270 0 900004 227664 0 886097 223067 0 872502 218481 0 859216 213910 0 846235 209357 0 833555 204823 0 821175 200311 0 809090 195822 0 797297 191359 0 785794 186921 0 774577 182511 0 763643 178129 0 752989 173776 0 742611 169453 0 732508 165160 0 722675 160897 0 713110 156665 0 703811 152464 0 694774 148294 0 685996 144155 0 677475 140046 0 669208 135968 0 661193 131920 0 653427 127901 0 645907 123912 0 638632 119952 0 631598 116019 0 624803 112114 0 618246 108236 0 611924 104384 0 605835 100558 0 599977 96756.2 0 594348 92978.4 0 588946 89223.6 0 583769 85491 0 578816 81779.7 0 574084 78088.8 0 569573 74417.4 0 565280 70764.4 0 561204 67129 0 557344 63510.1 0 553699 59906.8 0 550266 56318 0 547046 52742.7 0 544036 49179.8 0 541236 45628.3 0 538644 42087.2 0 536261 38555.3 0 534084 35031.6 0 532113 31515 0 530348 28004.3 0 528787 24498.5 0 527431 20996.5 0 526279 17497.1 0 525330 13999.2 0 524583 10501.7 0 524040 7003.39 0 523698 3503.22 0 523560 0 0 973290 252953 0 957785 248318 0 942608 243674 0 927755 239027 0 913223 234380 0 899010 229739 0 885112 225106 0 871525 220485 0 858248 215878 0 845275 211289 0 832605 206720 0 820234 202173 0 808158 197648 0 796375 193149 0 784881 188676 0 773673 184231 0 762749 179814 0 752104 175426 0 741735 171067 0 731641 166739 0 721817 162442 0 712261 158175 0 702970 153939 0 693941 149734 0 685172 145560 0 676659 141417 0 668400 137304 0 660393 133221 0 652634 129167 0 645122 125143 0 637853 121148 0 630826 117181 0 624038 113241 0 617487 109328 0 611171 105441 0 605088 101580 0 599236 97743.4 0 593612 93930.6 0 588215 90140.8 0 583043 86373.1 0 578094 82626.7 0 573366 78900.6 0 568859 75193.8 0 564569 71505.5 0 560497 67834.6 0 556640 64180.1 0 552997 60541.1 0 549567 56916.5 0 546348 53305.2 0 543340 49706.2 0 540541 46118.5 0 537951 42541 0 535568 38972.5 0 533392 35412 0 531421 31858.4 0 529656 28310.6 0 528095 24767.4 0 526737 21227.7 0 525584 17690.4 0 524633 14154.4 0 523885 10618.5 0 523339 7081.59 0 522995 3542.47 0 522853 0 0 972252 255206 0 956753 250534 0 941582 245855 0 926737 241171 0 912213 236489 0 898008 231811 0 884118 227143 0 870541 222486 0 857272 217844 0 844309 213220 0 831648 208615 0 819286 204032 0 807220 199472 0 795446 194938 0 783961 190430 0 772763 185949 0 761847 181497 0 751211 177073 0 740852 172680 0 730767 168317 0 720952 163984 0 711405 159683 0 702122 155412 0 693102 151172 0 684341 146963 0 675836 142785 0 667585 138637 0 659585 134519 0 651834 130431 0 644329 126372 0 637067 122342 0 630047 118340 0 623266 114366 0 616721 110418 0 610412 106496 0 604334 102600 0 598487 98728.8 0 592868 94881.1 0 587476 91056.4 0 582309 87253.7 0 577364 83472.2 0 572641 79710.9 0 568137 75968.9 0 563852 72245.3 0 559782 68539 0 555928 64849 0 552288 61174.3 0 548860 57513.9 0 545644 53866.7 0 542637 50231.7 0 539840 46607.8 0 537250 42993.9 0 534868 39388.9 0 532692 35791.7 0 530722 32201.2 0 528956 28616.2 0 527394 25035.7 0 526036 21458.5 0 524881 17883.4 0 523928 14309.4 0 523178 10735.2 0 522630 7159.65 0 522283 3581.65 0 522138 0 0 971206 257456 0 955714 252749 0 940550 248033 0 925712 243314 0 911196 238595 0 896999 233882 0 883118 229178 0 869549 224485 0 856289 219807 0 843335 215147 0 830683 210507 0 818331 205889 0 806274 201294 0 794509 196724 0 783034 192180 0 771845 187664 0 760938 183177 0 750312 178719 0 739962 174290 0 729885 169892 0 720079 165525 0 710541 161188 0 701267 156883 0 692255 152608 0 683502 148364 0 675006 144151 0 666763 139968 0 658771 135816 0 651027 131693 0 643529 127599 0 636275 123535 0 629261 119498 0 622486 115489 0 615948 111506 0 609644 107550 0 603573 103619 0 597731 99712.7 0 592118 95830.1 0 586731 91970.5 0 581568 88132.8 0 576628 84316.3 0 571909 80519.9 0 567409 76742.7 0 563126 72983.8 0 559061 69242.1 0 555209 65516.7 0 551572 61806.4 0 548146 58110.3 0 544931 54427.3 0 541927 50756.3 0 539131 47096.3 0 536542 43446.1 0 534161 39804.6 0 531985 36170.8 0 530014 32543.4 0 528248 28921.4 0 526686 25303.6 0 525327 21688.9 0 524170 18076.1 0 523216 14464.1 0 522463 10851.6 0 521913 7237.56 0 521563 3620.75 0 521415 0 0 970153 259705 0 954667 254961 0 939510 250209 0 924680 245454 0 910172 240699 0 895983 235950 0 882110 231210 0 868550 226482 0 855299 221769 0 842354 217073 0 829711 212397 0 817368 207743 0 805320 203113 0 793565 198508 0 782099 193929 0 770919 189378 0 760022 184855 0 749405 180362 0 739064 175898 0 728997 171465 0 719200 167063 0 709670 162691 0 700405 158351 0 691401 154041 0 682657 149763 0 674168 145515 0 665933 141298 0 657949 137110 0 650213 132953 0 642722 128825 0 635475 124725 0 628468 120654 0 621700 116610 0 615168 112593 0 608870 108602 0 602804 104636 0 596968 100695 0 591360 96777.5 0 585978 92883 0 580820 89010.4 0 575884 85158.9 0 571169 81327.5 0 566673 77515.2 0 562394 73721 0 558331 69944.1 0 554483 66183.2 0 550848 62437.4 0 547425 58705.7 0 544212 54986.9 0 541209 51280 0 538414 47583.9 0 535826 43897.4 0 533445 40219.5 0 531270 36549.1 0 529299 32885 0 527533 29226 0 525970 25571 0 524610 21918.9 0 523452 18268.4 0 522496 14618.5 0 521741 10967.8 0 521188 7315.33 0 520835 3659.79 0 520684 0 0 969092 261952 0 953613 257172 0 938463 252383 0 923640 247592 0 909140 242802 0 894959 238017 0 881095 233240 0 867544 228476 0 854302 223727 0 841366 218996 0 828732 214285 0 816398 209595 0 804360 204930 0 792614 200289 0 781158 195675 0 769987 191089 0 759099 186531 0 748491 182003 0 738159 177504 0 728101 173036 0 718313 168599 0 708792 164192 0 699536 159817 0 690541 155473 0 681804 151159 0 673324 146877 0 665097 142625 0 657120 138403 0 649391 134211 0 641908 130048 0 634667 125914 0 627668 121808 0 620906 117729 0 614380 113677 0 608089 109652 0 602028 105651 0 596198 101675 0 590595 97723.3 0 585218 93794 0 580064 89886.5 0 575133 86000.1 0 570422 82133.7 0 565930 78286.3 0 561654 74457 0 557595 70644.8 0 553749 66848.5 0 550117 63067.3 0 546696 59300 0 543485 55545.4 0 540483 51802.7 0 537690 48070.6 0 535103 44347.9 0 532723 40633.7 0 530548 36926.8 0 528577 33225.9 0 526810 29530 0 525246 25837.9 0 523885 22148.4 0 522725 18460.4 0 521767 14772.6 0 521011 11083.8 0 520455 7392.95 0 520099 3698.75 0 519945 0 0 968024 264196 0 952551 259380 0 937409 254556 0 922593 249728 0 908101 244902 0 893928 240081 0 880073 235268 0 866530 230469 0 853297 225684 0 840370 220917 0 827746 216170 0 815421 211445 0 803392 206744 0 791656 202068 0 780209 197419 0 769047 192797 0 758169 188204 0 747570 183641 0 737247 179107 0 727198 174604 0 717419 170132 0 707907 165691 0 698659 161281 0 689672 156902 0 680944 152554 0 672472 148237 0 664253 143950 0 656284 139693 0 648563 135467 0 641086 131269 0 633853 127100 0 626860 122960 0 620105 118846 0 613586 114760 0 607300 110700 0 601246 106665 0 595421 102654 0 589823 98667.5 0 584450 94703.4 0 579302 90761.1 0 574375 86839.8 0 569668 82938.4 0 565179 79056.1 0 560907 75191.7 0 556851 71344.2 0 553008 67512.7 0 549378 63696 0 545959 59893.2 0 542750 56103 0 539750 52324.4 0 536958 48556.4 0 534372 44797.6 0 531993 41047.2 0 529818 37303.7 0 527847 33566.2 0 526079 29833.5 0 524515 26104.3 0 523152 22377.5 0 521991 18651.9 0 521031 14926.4 0 520272 11199.6 0 519714 7470.43 0 519355 3737.63 0 519197 0 0 966948 266439 0 951482 261587 0 936347 256726 0 921539 251862 0 907054 246999 0 892890 242142 0 879043 237294 0 865509 232459 0 852285 227638 0 839367 222835 0 826752 218053 0 814437 213293 0 802417 208556 0 790690 203845 0 779252 199160 0 768101 194504 0 757231 189876 0 746642 185277 0 736328 180708 0 726288 176171 0 716518 171663 0 707014 167187 0 697775 162743 0 688797 158329 0 680078 153946 0 671613 149594 0 663402 145273 0 655441 140982 0 647727 136720 0 640258 132488 0 633032 128285 0 626045 124110 0 619297 119962 0 612784 115841 0 606504 111746 0 600456 107677 0 594636 103632 0 589043 99610 0 583676 95611.2 0 578532 91634.2 0 573609 87678 0 568906 83741.8 0 564421 79824.5 0 560153 75925 0 556100 72042.4 0 552260 68175.7 0 548632 64323.7 0 545216 60485.3 0 542009 56659.6 0 539010 52845.3 0 536219 49041.3 0 533634 45246.5 0 531255 41459.8 0 529080 37680 0 527109 33905.9 0 525341 30136.4 0 523776 26370.2 0 522412 22606.2 0 521249 18843.2 0 520287 15079.9 0 519526 11315.2 0 518965 7547.76 0 518604 3776.45 0 518442 0 0 965865 268680 0 950405 263791 0 935277 258894 0 920477 253994 0 906000 249095 0 891845 244202 0 878006 239318 0 864481 234446 0 851266 229590 0 838357 224752 0 825751 219933 0 813445 215138 0 801435 210366 0 789717 205619 0 778289 200899 0 767147 196207 0 756287 191544 0 745706 186911 0 735402 182307 0 725371 177734 0 715609 173192 0 706115 168682 0 696884 164202 0 687915 159753 0 679204 155336 0 670747 150950 0 662544 146594 0 654590 142268 0 646884 137972 0 639422 133705 0 632203 129468 0 625224 125258 0 618482 121076 0 611975 116920 0 605701 112791 0 599658 108687 0 593844 104607 0 588257 100551 0 582894 96517.5 0 577755 92505.7 0 572837 88514.8 0 568138 84543.7 0 563656 80591.5 0 559392 76657 0 555341 72739.4 0 551504 68837.4 0 547879 64950.1 0 544465 61076.4 0 541259 57215.1 0 538262 53365.1 0 535472 49525.3 0 532888 45694.6 0 530510 41871.7 0 528335 38055.6 0 526364 34245 0 524595 30438.7 0 523029 26635.6 0 521664 22834.4 0 520499 19034 0 519536 15233.1 0 518772 11430.5 0 518208 7624.93 0 517844 3815.18 0 517679 0 0 964774 270919 0 949321 265993 0 934200 261060 0 919407 256123 0 904939 251188 0 890792 246259 0 876962 241339 0 863445 236431 0 850239 231539 0 837340 226665 0 824743 221812 0 812446 216980 0 800445 212173 0 788737 207391 0 777318 202636 0 766185 197909 0 755335 193211 0 744764 188542 0 734469 183904 0 724446 179296 0 714694 174719 0 705208 170173 0 695986 165659 0 687025 161176 0 678322 156724 0 669874 152303 0 661679 147912 0 653733 143552 0 646034 139222 0 638580 134921 0 631367 130648 0 624395 126404 0 617659 122188 0 611159 117998 0 604891 113834 0 598854 109695 0 593045 105581 0 587463 101490 0 582106 97422.1 0 576971 93375.7 0 572057 89350.1 0 567362 85344.2 0 562884 81357.1 0 558623 77387.8 0 554576 73435.1 0 550741 69498 0 547119 65575.5 0 543706 61666.4 0 540503 57769.6 0 537507 53884 0 534718 50008.4 0 532135 46141.8 0 529757 42282.8 0 527582 38430.4 0 525611 34583.4 0 523842 30740.4 0 522274 26900.5 0 520908 23062.2 0 519742 19224.5 0 518776 15386 0 518010 11545.6 0 517443 7701.96 0 517076 3853.84 0 516907 0 0 963676 273156 0 948230 268194 0 933116 263223 0 918331 258250 0 903870 253279 0 889731 248314 0 875910 243358 0 862402 238414 0 849205 233486 0 836315 228577 0 823728 223687 0 811440 218820 0 799449 213978 0 787750 209160 0 776341 204370 0 765217 199608 0 754376 194874 0 743814 190171 0 733528 185498 0 723515 180855 0 713771 176243 0 704295 171663 0 695081 167114 0 686129 162596 0 677434 158110 0 668994 153654 0 660807 149229 0 652868 144834 0 645177 140469 0 637730 136134 0 630525 131827 0 623559 127549 0 616830 123297 0 610336 119073 0 604074 114875 0 598042 110702 0 592239 106553 0 586662 102428 0 581310 98325.2 0 576179 94244.2 0 571269 90183.9 0 566579 86143.3 0 562105 82121.4 0 557847 78117.1 0 553803 74129.5 0 549971 70157.3 0 546351 66199.6 0 542940 62255.2 0 539739 58323 0 536745 54401.9 0 533957 50490.6 0 531374 46588.1 0 528996 42693.1 0 526822 38804.5 0 524850 34921.1 0 523081 31041.6 0 521512 27164.9 0 520144 23289.6 0 518977 19414.6 0 518009 15538.7 0 517240 11660.5 0 516671 7778.84 0 516300 3892.43 0 516128 0 0 962570 275391 0 947131 270392 0 932024 265385 0 917247 260376 0 902794 255368 0 888664 250366 0 874851 245374 0 861352 240395 0 848164 235431 0 835283 230486 0 822705 225561 0 810427 220658 0 798445 215780 0 786756 210927 0 775356 206102 0 764241 201304 0 753409 196536 0 742857 191797 0 732580 187089 0 722576 182412 0 712842 177765 0 703374 173150 0 694169 168567 0 685225 164014 0 676539 159493 0 668107 155003 0 659927 150543 0 651997 146114 0 644313 141715 0 636873 137345 0 629675 133004 0 622716 128691 0 615993 124405 0 609505 120147 0 603250 115914 0 597224 111707 0 591426 107523 0 585854 103364 0 580506 99226.6 0 575381 95111.1 0 570475 91016.2 0 565788 86940.9 0 561318 82884.3 0 557063 78845.2 0 553022 74822.6 0 549194 70815.5 0 545576 66822.6 0 542167 62843 0 538967 58875.5 0 535975 54918.8 0 533188 50971.9 0 530606 47033.6 0 528229 43102.7 0 526054 39178 0 524082 35258.2 0 522312 31342.2 0 520742 27428.7 0 519373 23516.5 0 518204 19604.4 0 517234 15691 0 516463 11775.2 0 515890 7855.56 0 515516 3930.94 0 515340 0 0 961457 277624 0 946024 272588 0 930925 267545 0 916155 262499 0 901711 257455 0 887589 252417 0 873784 247388 0 860295 242373 0 847116 237373 0 834244 232392 0 821675 227431 0 809406 222493 0 797434 217580 0 785754 212692 0 774363 207831 0 763258 202999 0 752436 198195 0 741893 193421 0 731625 188678 0 721630 183966 0 711905 179285 0 702446 174635 0 693250 170017 0 684314 165430 0 675636 160874 0 667212 156350 0 659041 151856 0 651118 147392 0 643442 142958 0 636009 138554 0 628818 134179 0 621865 129831 0 615150 125512 0 608668 121219 0 602418 116952 0 596398 112710 0 590606 108492 0 585039 104298 0 579696 100126 0 574575 95976.4 0 569674 91846.9 0 564991 87737 0 560524 83645.7 0 556273 79571.9 0 552235 75514.5 0 548409 71472.4 0 544793 67444.5 0 541387 63429.7 0 538189 59426.8 0 535197 55434.8 0 532412 51452.3 0 529831 47478.3 0 527453 43511.5 0 525279 39550.7 0 523307 35594.7 0 521535 31642.2 0 519965 27692.1 0 518594 23743 0 517423 19793.8 0 516451 15843 0 515677 11889.6 0 515102 7932.14 0 514724 3969.37 0 514545 0 0 960336 279855 0 944910 274782 0 929818 269702 0 915056 264619 0 900620 259539 0 886506 254465 0 872711 249400 0 859230 244349 0 846060 239313 0 833197 234296 0 820638 229300 0 808378 224326 0 796415 219377 0 784745 214454 0 773364 209558 0 762268 204690 0 751455 199852 0 740921 195043 0 730663 190265 0 720677 185518 0 710961 180802 0 701510 176118 0 692323 171465 0 683396 166843 0 674726 162253 0 666311 157694 0 658147 153166 0 650232 148668 0 642563 144200 0 635138 139761 0 627954 135351 0 621008 130970 0 614299 126616 0 607823 122288 0 601579 117987 0 595565 113711 0 589778 109459 0 584217 105231 0 578879 101025 0 573762 96840.1 0 568865 92676.2 0 564186 88531.7 0 559723 84405.8 0 555475 80297.2 0 551440 76205 0 547617 72128 0 544003 68065.1 0 540599 64015.2 0 537403 59977.2 0 534413 55949.7 0 531628 51931.8 0 529048 47922.1 0 526671 43919.4 0 524496 39922.6 0 522523 35930.4 0 520751 31941.6 0 519180 27954.9 0 517808 23969 0 516635 19982.8 0 515660 15994.8 0 514884 12003.8 0 514305 8008.55 0 513924 4007.72 0 513741 0 0 959208 282084 0 943789 276974 0 928704 271857 0 913950 266738 0 899522 261621 0 885416 256510 0 871629 251409 0 858157 246322 0 844997 241251 0 832143 236198 0 819593 231166 0 807343 226157 0 795390 221172 0 783729 216213 0 772357 211282 0 761271 206379 0 750468 201506 0 739943 196662 0 729694 191849 0 719717 187068 0 710010 182317 0 700568 177598 0 691390 172910 0 682471 168254 0 673810 163630 0 665402 159036 0 657246 154474 0 649339 149941 0 641678 145439 0 634260 140966 0 627082 136522 0 620144 132106 0 613441 127718 0 606972 123356 0 600734 119021 0 594725 114710 0 588944 110424 0 583387 106161 0 578054 101921 0 572942 97702.3 0 568049 93503.9 0 563374 89324.9 0 558915 85164.4 0 554670 81021.2 0 550638 76894.2 0 546817 72782.4 0 543206 68684.6 0 539804 64599.7 0 536609 60526.4 0 533621 56463.7 0 530837 52410.3 0 528257 48365 0 525881 44326.6 0 523706 40293.9 0 521733 36265.6 0 519960 32240.4 0 518387 28217.2 0 517013 24194.6 0 515838 20171.4 0 514862 16146.2 0 514083 12117.8 0 513501 8084.82 0 513117 4046 0 512929 0 0 958072 284311 0 942660 279164 0 927583 274010 0 912836 268854 0 898416 263700 0 884319 258553 0 870541 253416 0 857078 248293 0 843926 243185 0 831082 238097 0 818541 233029 0 806301 227984 0 794357 222964 0 782706 217971 0 771343 213004 0 760267 208066 0 749473 203158 0 738957 198279 0 728718 193431 0 718750 188615 0 709051 183829 0 699619 179076 0 690449 174354 0 681539 169663 0 672886 165004 0 664487 160376 0 656339 155779 0 648439 151213 0 640785 146676 0 633374 142169 0 626204 137691 0 619272 133241 0 612576 128818 0 606113 124422 0 599881 120053 0 593878 115708 0 588102 111388 0 582551 107091 0 577222 102816 0 572115 98562.8 0