<?xml version="1.0"?> 
<VTKFile type="StructuredGrid" version="0.1"> 
<StructuredGrid WholeExtent="0 63 0 63 0 0"> 
<Piece Extent="0 63 0 63 0 0"> 
<PointData>
<DataArray type="Float32" Name="|E|" format="ascii" NumberOfComponents="3"> 
1.67861e+06 -669556 0 1.7027e+06 -628457 0 1.74085e+06 -580935 0 1.77702e+06 -535029 0 1.81183e+06 -489030 0 1.84363e+06 -443068 0 1.87207e+06 -397103 0 1.8967e+06 -351309 0 1.91729e+06 -305918 0 1.93376e+06 -261215 0 1.9461e+06 -217501 0 1.95443e+06 -175070 0 1.95891e+06 -134187 0 1.95978e+06 -95080.5 0 1.95731e+06 -57929.8 0 1.95178e+06 -22866.5 0 1.94349e+06 10024.2 0 1.93274e+06 40700 0 1.9198e+06 69155.1 0 1.90494e+06 95414.7 0 1.88842e+06 119529 0 1.87045e+06 141567 0 1.85125e+06 161612 0 1.83101e+06 179757 0 1.80989e+06 196103 0 1.78804e+06 210752 0 1.7656e+06 223808 0 1.74268e+06 235375 0 1.71938e+06 245555 0 1.69581e+06 254445 0 1.67203e+06 262140 0 1.64812e+06 268730 0 1.62414e+06 274301 0 1.60015e+06 278933 0 1.57619e+06 282702 0 1.55231e+06 285679 0 1.52853e+06 287930 0 1.5049e+06 289517 0 1.48145e+06 290497 0 1.45818e+06 290925 0 1.43514e+06 290848 0 1.41233e+06 290313 0 1.38977e+06 289362 0 1.36747e+06 288033 0 1.34545e+06 286364 0 1.32372e+06 284386 0 1.30229e+06 282130 0 1.28116e+06 279624 0 1.26033e+06 276894 0 1.23983e+06 273963 0 1.21964e+06 270853 0 1.19978e+06 267584 0 1.18024e+06 264174 0 1.16103e+06 260639 0 1.14215e+06 256996 0 1.1236e+06 253257 0 1.10538e+06 249435 0 1.08749e+06 245543 0 1.06993e+06 241591 0 1.0527e+06 237588 0 1.0358e+06 233543 0 1.01923e+06 229464 0 1.00298e+06 225359 0 987059 221235 0 1.68232e+06 -671038 0 1.70921e+06 -629893 0 1.7469e+06 -582904 0 1.78315e+06 -536879 0 1.81786e+06 -490685 0 1.84958e+06 -444431 0 1.8779e+06 -398127 0 1.90238e+06 -351963 0 1.92279e+06 -306187 0 1.93904e+06 -261100 0 1.95114e+06 -217011 0 1.9592e+06 -174224 0 1.96339e+06 -133011 0 1.96396e+06 -93602.2 0 1.96118e+06 -56179.4 0 1.95534e+06 -20874.6 0 1.94674e+06 12227.9 0 1.93568e+06 43087.2 0 1.92245e+06 71699.7 0 1.9073e+06 98093 0 1.89051e+06 122319 0 1.87228e+06 144450 0 1.85284e+06 164571 0 1.83237e+06 182778 0 1.81103e+06 199172 0 1.78899e+06 213859 0 1.76636e+06 226943 0 1.74327e+06 238529 0 1.71981e+06 248721 0 1.69609e+06 257618 0 1.67218e+06 265314 0 1.64815e+06 271900 0 1.62406e+06 277463 0 1.59997e+06 282084 0 1.57592e+06 285839 0 1.55195e+06 288799 0 1.5281e+06 291032 0 1.5044e+06 292598 0 1.48088e+06 293556 0 1.45756e+06 293960 0 1.43447e+06 293858 0 1.41161e+06 293297 0 1.38901e+06 292319 0 1.36668e+06 290963 0 1.34464e+06 289264 0 1.32288e+06 287257 0 1.30142e+06 284971 0 1.28027e+06 282435 0 1.25943e+06 279673 0 1.23891e+06 276711 0 1.21871e+06 273569 0 1.19884e+06 270268 0 1.17929e+06 266825 0 1.16008e+06 263257 0 1.14119e+06 259580 0 1.12264e+06 255808 0 1.10442e+06 251953 0 1.08653e+06 248027 0 1.06897e+06 244040 0 1.05175e+06 240003 0 1.03485e+06 235923 0 1.01828e+06 231810 0 1.00204e+06 227671 0 986123 223511 0 1.68642e+06 -672673 0 1.71555e+06 -631438 0 1.75298e+06 -584857 0 1.78929e+06 -538717 0 1.82391e+06 -492318 0 1.85556e+06 -445768 0 1.88376e+06 -399119 0 1.90809e+06 -352580 0 1.92833e+06 -306417 0 1.94436e+06 -260941 0 1.95621e+06 -216476 0 1.964e+06 -173332 0 1.9679e+06 -131787 0 1.96817e+06 -92075.9 0 1.96507e+06 -54381.5 0 1.95891e+06 -18836.2 0 1.95e+06 14476.6 0 1.93863e+06 45517.7 0 1.9251e+06 74285.6 0 1.90967e+06 100810 0 1.8926e+06 125146 0 1.87411e+06 147368 0 1.85443e+06 167563 0 1.83372e+06 185829 0 1.81217e+06 202270 0 1.78993e+06 216991 0 1.76711e+06 230101 0 1.74385e+06 241705 0 1.72024e+06 251908 0 1.69637e+06 260809 0 1.67233e+06 268504 0 1.64818e+06 275085 0 1.62398e+06 280639 0 1.59978e+06 285248 0 1.57564e+06 288988 0 1.55159e+06 291930 0 1.52766e+06 294143 0 1.5039e+06 295688 0 1.48031e+06 296623 0 1.45694e+06 297002 0 1.43379e+06 296875 0 1.41089e+06 296287 0 1.38825e+06 295281 0 1.36589e+06 293896 0 1.34381e+06 292168 0 1.32203e+06 290131 0 1.30055e+06 287815 0 1.27937e+06 285247 0 1.25852e+06 282454 0 1.23799e+06 279460 0 1.21777e+06 276286 0 1.19789e+06 272952 0 1.17834e+06 269476 0 1.15912e+06 265875 0 1.14023e+06 262165 0 1.12167e+06 258359 0 1.10345e+06 254470 0 1.08556e+06 250509 0 1.06801e+06 246488 0 1.05078e+06 242417 0 1.03389e+06 238303 0 1.01733e+06 234155 0 1.00109e+06 229980 0 985180 225786 0 1.69083e+06 -674431 0 1.72179e+06 -633073 0 1.75908e+06 -586800 0 1.79545e+06 -540542 0 1.83e+06 -493929 0 1.86157e+06 -447078 0 1.88966e+06 -400080 0 1.91384e+06 -353161 0 1.9339e+06 -306606 0 1.94971e+06 -260739 0 1.96132e+06 -215895 0 1.96883e+06 -172392 0 1.97244e+06 -130515 0 1.97239e+06 -90501 0 1.96898e+06 -52535.6 0 1.9625e+06 -16751 0 1.95327e+06 16770.6 0 1.94159e+06 47991.6 0 1.92776e+06 76912.8 0 1.91204e+06 103567 0 1.89469e+06 128010 0 1.87594e+06 150320 0 1.85601e+06 170587 0 1.83508e+06 188910 0 1.81331e+06 205395 0 1.79086e+06 220150 0 1.76786e+06 233283 0 1.74443e+06 244903 0 1.72066e+06 255114 0 1.69665e+06 264018 0 1.67247e+06 271711 0 1.6482e+06 278285 0 1.62388e+06 283829 0 1.59959e+06 288424 0 1.57535e+06 292148 0 1.55122e+06 295072 0 1.52722e+06 297264 0 1.50338e+06 298786 0 1.47974e+06 299697 0 1.45631e+06 300051 0 1.43311e+06 299897 0 1.41017e+06 299282 0 1.38749e+06 298247 0 1.36509e+06 296833 0 1.34298e+06 295076 0 1.32117e+06 293008 0 1.29966e+06 290661 0 1.27847e+06 288062 0 1.2576e+06 285237 0 1.23705e+06 282210 0 1.21683e+06 279004 0 1.19694e+06 275637 0 1.17738e+06 272128 0 1.15815e+06 268493 0 1.13926e+06 264749 0 1.1207e+06 260909 0 1.10248e+06 256986 0 1.08459e+06 252991 0 1.06704e+06 248936 0 1.04982e+06 244829 0 1.03293e+06 240681 0 1.01637e+06 236498 0 1.00013e+06 232289 0 984229 228059 0 1.69549e+06 -676289 0 1.72796e+06 -634784 0 1.7652e+06 -588735 0 1.80162e+06 -542355 0 1.83611e+06 -495519 0 1.86762e+06 -448361 0 1.8956e+06 -401009 0 1.91963e+06 -353706 0 1.9395e+06 -306754 0 1.9551e+06 -260493 0 1.96645e+06 -215267 0 1.97368e+06 -171404 0 1.97699e+06 -129194 0 1.97663e+06 -88877.2 0 1.9729e+06 -50641.4 0 1.9661e+06 -14618.5 0 1.95655e+06 19110.2 0 1.94456e+06 50509.3 0 1.93042e+06 79581.7 0 1.91441e+06 106362 0 1.89678e+06 130911 0 1.87777e+06 153308 0 1.85759e+06 173644 0 1.83643e+06 192021 0 1.81444e+06 208548 0 1.79179e+06 223334 0 1.76861e+06 236489 0 1.745e+06 248123 0 1.72107e+06 258341 0 1.69692e+06 267246 0 1.67261e+06 274935 0 1.64821e+06 281501 0 1.62378e+06 287033 0 1.59939e+06 291613 0 1.57506e+06 295319 0 1.55084e+06 298223 0 1.52676e+06 300393 0 1.50286e+06 301892 0 1.47915e+06 302779 0 1.45567e+06 303106 0 1.43242e+06 302925 0 1.40943e+06 302281 0 1.38672e+06 301218 0 1.36428e+06 299774 0 1.34214e+06 297987 0 1.3203e+06 295888 0 1.29878e+06 293509 0 1.27756e+06 290878 0 1.25668e+06 288021 0 1.23611e+06 284962 0 1.21588e+06 281722 0 1.19598e+06 278322 0 1.17641e+06 274779 0 1.15718e+06 271111 0 1.13828e+06 267333 0 1.11972e+06 263459 0 1.1015e+06 259501 0 1.08361e+06 255472 0 1.06606e+06 251382 0 1.04884e+06 247241 0 1.03195e+06 243058 0 1.0154e+06 238840 0 999170 234596 0 983271 230331 0 1.70035e+06 -678228 0 1.73407e+06 -636561 0 1.77134e+06 -590666 0 1.8078e+06 -544157 0 1.84226e+06 -497088 0 1.8737e+06 -449618 0 1.90157e+06 -401905 0 1.92546e+06 -354214 0 1.94514e+06 -306861 0 1.96052e+06 -260202 0 1.97162e+06 -214592 0 1.97857e+06 -170367 0 1.98157e+06 -127823 0 1.9809e+06 -87203.9 0 1.97684e+06 -48698.4 0 1.96971e+06 -12438.5 0 1.95984e+06 21495.9 0 1.94753e+06 53071 0 1.93308e+06 82292.5 0 1.91678e+06 109198 0 1.89887e+06 133850 0 1.8796e+06 156330 0 1.85917e+06 176732 0 1.83777e+06 195162 0 1.81557e+06 211729 0 1.79272e+06 226544 0 1.76935e+06 239719 0 1.74557e+06 251365 0 1.72148e+06 261588 0 1.69718e+06 270492 0 1.67273e+06 278175 0 1.64821e+06 284732 0 1.62368e+06 290251 0 1.59918e+06 294814 0 1.57475e+06 298502 0 1.55045e+06 301385 0 1.5263e+06 303532 0 1.50233e+06 305007 0 1.47856e+06 305867 0 1.45502e+06 306168 0 1.43172e+06 305959 0 1.40869e+06 305286 0 1.38593e+06 304193 0 1.36347e+06 302719 0 1.34129e+06 300901 0 1.31943e+06 298770 0 1.29788e+06 296360 0 1.27665e+06 293696 0 1.25574e+06 290807 0 1.23517e+06 287714 0 1.21492e+06 284441 0 1.19501e+06 281007 0 1.17543e+06 277431 0 1.1562e+06 273729 0 1.1373e+06 269916 0 1.11873e+06 266008 0 1.10051e+06 262016 0 1.08262e+06 257952 0 1.06507e+06 253827 0 1.04785e+06 249651 0 1.03097e+06 245433 0 1.01442e+06 241180 0 998199 236901 0 982306 232601 0 1.70538e+06 -680235 0 1.74014e+06 -638395 0 1.7775e+06 -592595 0 1.81401e+06 -545947 0 1.84843e+06 -498637 0 1.87981e+06 -450848 0 1.90758e+06 -402770 0 1.93133e+06 -354684 0 1.95082e+06 -306927 0 1.96598e+06 -259867 0 1.97682e+06 -213870 0 1.98348e+06 -169281 0 1.98618e+06 -126402 0 1.98518e+06 -85480.7 0 1.98079e+06 -46706.1 0 1.97334e+06 -10210.4 0 1.96314e+06 23927.8 0 1.95051e+06 55677.1 0 1.93575e+06 85045.4 0 1.91915e+06 112073 0 1.90097e+06 136825 0 1.88143e+06 159386 0 1.86074e+06 179854 0 1.83911e+06 198334 0 1.81669e+06 214938 0 1.79364e+06 229780 0 1.77008e+06 242973 0 1.74613e+06 254628 0 1.72188e+06 264854 0 1.69743e+06 273756 0 1.67285e+06 281432 0 1.64821e+06 287978 0 1.62356e+06 293482 0 1.59896e+06 298028 0 1.57444e+06 301696 0 1.55006e+06 304557 0 1.52583e+06 306680 0 1.50179e+06 308130 0 1.47796e+06 308964 0 1.45436e+06 309236 0 1.43102e+06 308998 0 1.40794e+06 308296 0 1.38515e+06 307173 0 1.36264e+06 305668 0 1.34044e+06 303818 0 1.31855e+06 301656 0 1.29698e+06 299212 0 1.27573e+06 296516 0 1.2548e+06 293594 0 1.23421e+06 290468 0 1.21395e+06 287161 0 1.19403e+06 283693 0 1.17445e+06 280083 0 1.15521e+06 276346 0 1.1363e+06 272500 0 1.11774e+06 268556 0 1.09951e+06 264530 0 1.08163e+06 260431 0 1.06408e+06 256271 0 1.04686e+06 252060 0 1.02998e+06 247807 0 1.01344e+06 243519 0 997221 239204 0 981334 234869 0 1.71055e+06 -682297 0 1.7462e+06 -640277 0 1.78368e+06 -594524 0 1.82024e+06 -547726 0 1.85464e+06 -500166 0 1.88596e+06 -452052 0 1.91363e+06 -403602 0 1.93723e+06 -355118 0 1.95654e+06 -306952 0 1.97147e+06 -259486 0 1.98204e+06 -213100 0 1.98842e+06 -168146 0 1.99081e+06 -124931 0 1.98948e+06 -83707 0 1.98477e+06 -44664.1 0 1.97698e+06 -7933.96 0 1.96645e+06 26406.4 0 1.95349e+06 58327.7 0 1.93843e+06 87840.6 0 1.92153e+06 114988 0 1.90306e+06 139838 0 1.88325e+06 162478 0 1.86232e+06 183008 0 1.84045e+06 201536 0 1.81781e+06 218175 0 1.79455e+06 233041 0 1.77081e+06 246250 0 1.74668e+06 257913 0 1.72227e+06 268141 0 1.69768e+06 277038 0 1.67296e+06 284706 0 1.6482e+06 291239 0 1.62344e+06 296727 0 1.59873e+06 301255 0 1.57413e+06 304901 0 1.54965e+06 307739 0 1.52535e+06 309838 0 1.50124e+06 311261 0 1.47735e+06 312067 0 1.4537e+06 312311 0 1.4303e+06 312044 0 1.40718e+06 311311 0 1.38435e+06 310157 0 1.36181e+06 308621 0 1.33958e+06 306738 0 1.31766e+06 304544 0 1.29606e+06 302068 0 1.27479e+06 299338 0 1.25385e+06 296382 0 1.23325e+06 293223 0 1.21298e+06 289882 0 1.19305e+06 286380 0 1.17346e+06 282735 0 1.15421e+06 278964 0 1.1353e+06 275083 0 1.11674e+06 271104 0 1.09851e+06 267043 0 1.08062e+06 262909 0 1.06308e+06 258714 0 1.04586e+06 254468 0 1.02899e+06 250180 0 1.01245e+06 245856 0 996236 241506 0 980354 237136 0 1.71584e+06 -684408 0 1.75226e+06 -642201 0 1.78988e+06 -596454 0 1.8265e+06 -549494 0 1.86088e+06 -501675 0 1.89215e+06 -453229 0 1.91972e+06 -404402 0 1.94318e+06 -355513 0 1.9623e+06 -306933 0 1.97699e+06 -259059 0 1.9873e+06 -212281 0 1.99338e+06 -166960 0 1.99546e+06 -123409 0 1.99381e+06 -81882.5 0 1.98875e+06 -42572.1 0 1.98062e+06 -5608.76 0 1.96976e+06 28932 0 1.95648e+06 61023.2 0 1.9411e+06 90678.3 0 1.9239e+06 117943 0 1.90515e+06 142889 0 1.88507e+06 165605 0 1.86388e+06 186194 0 1.84178e+06 204767 0 1.81892e+06 221440 0 1.79546e+06 236329 0 1.77152e+06 249551 0 1.74722e+06 261220 0 1.72266e+06 271448 0 1.69791e+06 280339 0 1.67307e+06 287997 0 1.64818e+06 294516 0 1.62331e+06 299986 0 1.5985e+06 304494 0 1.5738e+06 308118 0 1.54924e+06 310931 0 1.52486e+06 313004 0 1.50068e+06 314400 0 1.47673e+06 315178 0 1.45303e+06 315392 0 1.42958e+06 315095 0 1.40642e+06 314331 0 1.38354e+06 313146 0 1.36097e+06 311577 0 1.33871e+06 309662 0 1.31677e+06 307434 0 1.29515e+06 304925 0 1.27386e+06 302162 0 1.2529e+06 299172 0 1.23228e+06 295978 0 1.212e+06 292603 0 1.19206e+06 289067 0 1.17246e+06 285387 0 1.15321e+06 281581 0 1.1343e+06 277665 0 1.11573e+06 273652 0 1.0975e+06 269555 0 1.07961e+06 265386 0 1.06207e+06 261156 0 1.04486e+06 256875 0 1.02799e+06 252551 0 1.01145e+06 248192 0 995243 243807 0 979367 239401 0 1.72123e+06 -686559 0 1.75831e+06 -644162 0 1.79609e+06 -598384 0 1.83278e+06 -551251 0 1.86716e+06 -503164 0 1.89838e+06 -454380 0 1.92584e+06 -405169 0 1.94916e+06 -355870 0 1.96809e+06 -306872 0 1.98255e+06 -258586 0 1.9926e+06 -211413 0 1.99838e+06 -165723 0 2.00013e+06 -121835 0 1.99815e+06 -80006.5 0 1.99275e+06 -40429.4 0 1.98428e+06 -3234.42 0 1.97308e+06 31504.8 0 1.95948e+06 63763.8 0 1.94378e+06 93558.8 0 1.92628e+06 120939 0 1.90724e+06 145977 0 1.88689e+06 168767 0 1.86545e+06 189414 0 1.84311e+06 208030 0 1.82003e+06 224733 0 1.79636e+06 239642 0 1.77224e+06 252875 0 1.74776e+06 264549 0 1.72303e+06 274774 0 1.69814e+06 283658 0 1.67316e+06 291304 0 1.64815e+06 297807 0 1.62317e+06 303259 0 1.59826e+06 307745 0 1.57346e+06 311345 0 1.54882e+06 314134 0 1.52437e+06 316180 0 1.50012e+06 317547 0 1.47611e+06 318296 0 1.45235e+06 318480 0 1.42885e+06 318151 0 1.40565e+06 317356 0 1.38273e+06 316138 0 1.36012e+06 314537 0 1.33783e+06 312589 0 1.31586e+06 310328 0 1.29422e+06 307784 0 1.27291e+06 304987 0 1.25194e+06 301963 0 1.2313e+06 298735 0 1.21101e+06 295325 0 1.19106e+06 291754 0 1.17146e+06 288039 0 1.1522e+06 284199 0 1.13328e+06 280247 0 1.11471e+06 276199 0 1.09648e+06 272067 0 1.0786e+06 267862 0 1.06105e+06 263597 0 1.04385e+06 259280 0 1.02698e+06 254920 0 1.01044e+06 250527 0 994243 246106 0 978372 241664 0 1.72671e+06 -688745 0 1.76437e+06 -646156 0 1.80233e+06 -600317 0 1.83908e+06 -552998 0 1.87347e+06 -504635 0 1.90464e+06 -455505 0 1.93201e+06 -405904 0 1.95518e+06 -356189 0 1.97392e+06 -306768 0 1.98815e+06 -258065 0 1.99792e+06 -210495 0 2.0034e+06 -164435 0 2.00483e+06 -120210 0 2.00251e+06 -78078.7 0 1.99677e+06 -38235.8 0 1.98796e+06 -810.551 0 1.97641e+06 34125.3 0 1.96248e+06 66549.8 0 1.94646e+06 96482.2 0 1.92865e+06 123975 0 1.90932e+06 149104 0 1.8887e+06 171965 0 1.86701e+06 192666 0 1.84443e+06 211322 0 1.82113e+06 228054 0 1.79726e+06 242981 0 1.77294e+06 256224 0 1.74829e+06 267899 0 1.7234e+06 278121 0 1.69837e+06 286996 0 1.67325e+06 294627 0 1.64811e+06 301114 0 1.62302e+06 306545 0 1.59801e+06 311009 0 1.57312e+06 314584 0 1.5484e+06 317346 0 1.52387e+06 319364 0 1.49955e+06 320702 0 1.47547e+06 321421 0 1.45166e+06 321574 0 1.42812e+06 321214 0 1.40486e+06 320386 0 1.38191e+06 319135 0 1.35927e+06 317500 0 1.33695e+06 315519 0 1.31495e+06 313223 0 1.29328e+06 310646 0 1.27196e+06 307815 0 1.25096e+06 304755 0 1.23032e+06 301492 0 1.21001e+06 298048 0 1.19005e+06 294441 0 1.17044e+06 290692 0 1.15118e+06 286816 0 1.13226e+06 282829 0 1.11369e+06 278745 0 1.09546e+06 274577 0 1.07757e+06 270338 0 1.06003e+06 266037 0 1.04282e+06 261684 0 1.02596e+06 257289 0 1.00943e+06 252859 0 993235 248403 0 977371 243926 0 1.73227e+06 -690962 0 1.77044e+06 -648178 0 1.80859e+06 -602252 0 1.84542e+06 -554736 0 1.87981e+06 -506086 0 1.91094e+06 -456603 0 1.93822e+06 -406605 0 1.96124e+06 -356469 0 1.97979e+06 -306620 0 1.99378e+06 -257498 0 2.00328e+06 -209527 0 2.00845e+06 -163095 0 2.00955e+06 -118531 0 2.00689e+06 -76098.4 0 2.0008e+06 -35990.7 0 1.99164e+06 1663.23 0 1.97975e+06 36793.7 0 1.96548e+06 69381.4 0 1.94914e+06 99448.8 0 1.93103e+06 127051 0 1.91141e+06 152268 0 1.89051e+06 175198 0 1.86856e+06 195951 0 1.84574e+06 214645 0 1.82222e+06 231403 0 1.79814e+06 246346 0 1.77364e+06 259596 0 1.74881e+06 271272 0 1.72376e+06 281487 0 1.69858e+06 290351 0 1.67332e+06 297968 0 1.64807e+06 304435 0 1.62286e+06 309845 0 1.59775e+06 314285 0 1.57277e+06 317834 0 1.54796e+06 320569 0 1.52335e+06 322558 0 1.49897e+06 323866 0 1.47483e+06 324553 0 1.45096e+06 324674 0 1.42737e+06 324281 0 1.40407e+06 323421 0 1.38108e+06 322136 0 1.35841e+06 320468 0 1.33605e+06 318452 0 1.31403e+06 316122 0 1.29234e+06 313510 0 1.27099e+06 310643 0 1.24999e+06 307549 0 1.22932e+06 304251 0 1.20901e+06 300771 0 1.18904e+06 297129 0 1.16942e+06 293344 0 1.15015e+06 289432 0 1.13123e+06 285410 0 1.11265e+06 281290 0 1.09442e+06 277087 0 1.07654e+06 272812 0 1.059e+06 268475 0 1.0418e+06 264087 0 1.02494e+06 259656 0 1.00841e+06 255190 0 992220 250698 0 976362 246185 0 1.7379e+06 -693207 0 1.77654e+06 -650225 0 1.81487e+06 -604188 0 1.85179e+06 -556463 0 1.8862e+06 -507517 0 1.91729e+06 -457675 0 1.94447e+06 -407273 0 1.96735e+06 -356710 0 1.9857e+06 -306428 0 1.99944e+06 -256882 0 2.00866e+06 -208508 0 2.01352e+06 -161702 0 2.01429e+06 -116800 0 2.01128e+06 -74065.2 0 2.00484e+06 -33693.7 0 1.99533e+06 4187.3 0 1.9831e+06 39510.3 0 1.96849e+06 72259 0 1.95183e+06 102459 0 1.9334e+06 130168 0 1.91349e+06 155470 0 1.89232e+06 178466 0 1.87011e+06 199269 0 1.84705e+06 217999 0 1.8233e+06 234780 0 1.79902e+06 249737 0 1.77432e+06 262992 0 1.74932e+06 274666 0 1.72412e+06 284873 0 1.69878e+06 293724 0 1.67339e+06 301324 0 1.64801e+06 307772 0 1.62269e+06 313159 0 1.59748e+06 317573 0 1.57241e+06 321096 0 1.54752e+06 323801 0 1.52283e+06 325760 0 1.49838e+06 327037 0 1.47418e+06 327692 0 1.45026e+06 327781 0 1.42662e+06 327355 0 1.40328e+06 326460 0 1.38025e+06 325142 0 1.35754e+06 323439 0 1.33515e+06 321388 0 1.3131e+06 319023 0 1.29139e+06 316376 0 1.27002e+06 313474 0 1.249e+06 310344 0 1.22832e+06 307011 0 1.208e+06 303495 0 1.18802e+06 299817 0 1.16839e+06 295996 0 1.14912e+06 292049 0 1.13019e+06 287990 0 1.11161e+06 283835 0 1.09338e+06 279596 0 1.0755e+06 275285 0 1.05796e+06 270912 0 1.04076e+06 266488 0 1.0239e+06 262021 0 1.00738e+06 257520 0 991198 252992 0 975345 248443 0 1.74359e+06 -695476 0 1.78265e+06 -652296 0 1.82118e+06 -606127 0 1.85819e+06 -558180 0 1.89261e+06 -508930 0 1.92367e+06 -458719 0 1.95076e+06 -407907 0 1.97349e+06 -356911 0 1.99164e+06 -306191 0 2.00515e+06 -256217 0 2.01408e+06 -207437 0 2.01863e+06 -160257 0 2.01906e+06 -115014 0 2.0157e+06 -71978.5 0 2.0089e+06 -31344.3 0 1.99903e+06 6762.06 0 1.98645e+06 42275.5 0 1.9715e+06 75182.7 0 1.95451e+06 105512 0 1.93578e+06 133326 0 1.91556e+06 158711 0 1.89412e+06 181770 0 1.87165e+06 202620 0 1.84835e+06 221383 0 1.82438e+06 238185 0 1.79989e+06 253153 0 1.775e+06 266411 0 1.74983e+06 278081 0 1.72446e+06 288279 0 1.69898e+06 297116 0 1.67345e+06 304698 0 1.64795e+06 311123 0 1.62252e+06 316486 0 1.5972e+06 320874 0 1.57204e+06 324368 0 1.54706e+06 327043 0 1.5223e+06 328971 0 1.49778e+06 330216 0 1.47352e+06 330838 0 1.44954e+06 330894 0 1.42585e+06 330433 0 1.40247e+06 329505 0 1.3794e+06 328151 0 1.35666e+06 326413 0 1.33424e+06 324327 0 1.31217e+06 321927 0 1.29043e+06 319244 0 1.26905e+06 316306 0 1.24801e+06 313141 0 1.22732e+06 309771 0 1.20698e+06 306219 0 1.18699e+06 302506 0 1.16736e+06 298649 0 1.14808e+06 294665 0 1.12915e+06 290571 0 1.11057e+06 286379 0 1.09234e+06 282104 0 1.07445e+06 277757 0 1.05691e+06 273348 0 1.03972e+06 268888 0 1.02286e+06 264385 0 1.00635e+06 259848 0 990169 255284 0 974322 250699 0 1.74933e+06 -697768 0 1.78879e+06 -654387 0 1.82752e+06 -608068 0 1.86462e+06 -559888 0 1.89907e+06 -510324 0 1.93009e+06 -459737 0 1.9571e+06 -408507 0 1.97968e+06 -357072 0 1.99763e+06 -305909 0 2.01089e+06 -255503 0 2.01953e+06 -206315 0 2.02376e+06 -158757 0 2.02385e+06 -113174 0 2.02013e+06 -69837.8 0 2.01297e+06 -28942.1 0 2.00274e+06 9387.89 0 1.9898e+06 45089.6 0 1.97451e+06 78152.8 0 1.95719e+06 108610 0 1.93815e+06 136525 0 1.91764e+06 161990 0 1.89591e+06 185109 0 1.87319e+06 206003 0 1.84964e+06 224797 0 1.82545e+06 241618 0 1.80075e+06 256595 0 1.77567e+06 269855 0 1.75032e+06 281519 0 1.72479e+06 291705 0 1.69916e+06 300525 0 1.6735e+06 308087 0 1.64788e+06 314489 0 1.62233e+06 319827 0 1.59691e+06 324187 0 1.57166e+06 327651 0 1.5466e+06 330296 0 1.52177e+06 332191 0 1.49718e+06 333403 0 1.47286e+06 333992 0 1.44882e+06 334013 0 1.42508e+06 333518 0 1.40166e+06 332554 0 1.37855e+06 331165 0 1.35577e+06 329391 0 1.33333e+06 327269 0 1.31122e+06 324833 0 1.28947e+06 322113 0 1.26806e+06 319140 0 1.247e+06 315938 0 1.2263e+06 312532 0 1.20595e+06 308944 0 1.18595e+06 305194 0 1.16631e+06 301301 0 1.14703e+06 297281 0 1.12809e+06 293150 0 1.10951e+06 288923 0 1.09128e+06 284611 0 1.0734e+06 280228 0 1.05586e+06 275783 0 1.03867e+06 271286 0 1.02182e+06 266747 0 1.00531e+06 262174 0 989132 257574 0 973290 252953 0 1.75513e+06 -700081 0 1.79496e+06 -656497 0 1.83389e+06 -610012 0 1.87109e+06 -561586 0 1.90557e+06 -511699 0 1.93656e+06 -460728 0 1.96347e+06 -409073 0 1.98591e+06 -357192 0 2.00366e+06 -305580 0 2.01666e+06 -254738 0 2.02501e+06 -205139 0 2.02891e+06 -157203 0 2.02866e+06 -111280 0 2.02458e+06 -67642.6 0 2.01705e+06 -26486.6 0 2.00646e+06 12065.2 0 1.99317e+06 47952.9 0 1.97753e+06 81169.6 0 1.95988e+06 111751 0 1.94051e+06 139766 0 1.91971e+06 165307 0 1.8977e+06 188484 0 1.87471e+06 209420 0 1.85093e+06 228242 0 1.82651e+06 245079 0 1.80161e+06 260063 0 1.77633e+06 273321 0 1.75081e+06 284977 0 1.72511e+06 295150 0 1.69934e+06 303953 0 1.67354e+06 311493 0 1.64779e+06 317871 0 1.62214e+06 323181 0 1.59662e+06 327511 0 1.57127e+06 330945 0 1.54613e+06 333558 0 1.52122e+06 335420 0 1.49656e+06 336598 0 1.47218e+06 337152 0 1.44809e+06 337138 0 1.4243e+06 336607 0 1.40083e+06 335608 0 1.37769e+06 334182 0 1.35487e+06 332372 0 1.3324e+06 330214 0 1.31027e+06 327741 0 1.28849e+06 324985 0 1.26707e+06 321975 0 1.24599e+06 318737 0 1.22528e+06 315294 0 1.20491e+06 311670 0 1.18491e+06 307883 0 1.16526e+06 303953 0 1.14597e+06 299897 0 1.12703e+06 295729 0 1.10845e+06 291465 0 1.09022e+06 287117 0 1.07233e+06 282697 0 1.0548e+06 278216 0 1.03761e+06 273683 0 1.02076e+06 269108 0 1.00426e+06 264499 0 988087 259862 0 972252 255206 0 1.76098e+06 -702414 0 1.80115e+06 -658624 0 1.84028e+06 -611957 0 1.87759e+06 -563274 0 1.91211e+06 -513055 0 1.94307e+06 -461691 0 1.96989e+06 -409604 0 1.99218e+06 -357271 0 2.00972e+06 -305205 0 2.02247e+06 -253923 0 2.03053e+06 -203910 0 2.0341e+06 -155593 0 2.03349e+06 -109329 0 2.02905e+06 -65392.4 0 2.02115e+06 -23977.4 0 2.01019e+06 14794.3 0 1.99653e+06 50865.8 0 1.98055e+06 84233.4 0 1.96256e+06 114937 0 1.94288e+06 143047 0 1.92177e+06 168663 0 1.89949e+06 191895 0 1.87624e+06 212870 0 1.85221e+06 231717 0 1.82756e+06 248569 0 1.80245e+06 263557 0 1.77699e+06 276812 0 1.75128e+06 288458 0 1.72543e+06 298615 0 1.6995e+06 307398 0 1.67358e+06 314915 0 1.6477e+06 321267 0 1.62193e+06 326548 0 1.59631e+06 330848 0 1.57087e+06 334250 0 1.54565e+06 336829 0 1.52066e+06 338658 0 1.49594e+06 339801 0 1.4715e+06 340319 0 1.44735e+06 340269 0 1.42351e+06 339702 0 1.4e+06 338666 0 1.37682e+06 337204 0 1.35397e+06 335357 0 1.33147e+06 333162 0 1.30931e+06 330652 0 1.28751e+06 327859 0 1.26606e+06 324812 0 1.24497e+06 321537 0 1.22424e+06 318057 0 1.20387e+06 314395 0 1.18386e+06 310572 0 1.1642e+06 306605 0 1.14491e+06 302512 0 1.12597e+06 298308 0 1.10738e+06 294007 0 1.08915e+06 289623 0 1.07126e+06 285166 0 1.05373e+06 280648 0 1.03654e+06 276079 0 1.0197e+06 271467 0 1.0032e+06 266822 0 987035 262149 0 971206 257456 0 1.76688e+06 -704765 0 1.80737e+06 -660767 0 1.84671e+06 -613904 0 1.88413e+06 -564954 0 1.91869e+06 -514392 0 1.94963e+06 -462627 0 1.97636e+06 -410100 0 1.9985e+06 -357308 0 2.01583e+06 -304783 0 2.02832e+06 -253057 0 2.03607e+06 -202626 0 2.03931e+06 -153928 0 2.03834e+06 -107323 0 2.03353e+06 -63086.5 0 2.02526e+06 -21414 0 2.01392e+06 17575.7 0 1.9999e+06 53828.4 0 1.98356e+06 87344.3 0 1.96524e+06 118166 0 1.94524e+06 146371 0 1.92383e+06 172057 0 1.90127e+06 195342 0 1.87775e+06 216353 0 1.85348e+06 235223 0 1.82861e+06 252086 0 1.80328e+06 267076 0 1.77763e+06 280326 0 1.75175e+06 291960 0 1.72573e+06 302100 0 1.69966e+06 310862 0 1.6736e+06 318353 0 1.6476e+06 324677 0 1.62172e+06 329929 0 1.596e+06 334197 0 1.57046e+06 337565 0 1.54516e+06 340111 0 1.5201e+06 341904 0 1.4953e+06 343011 0 1.4708e+06 343493 0 1.4466e+06 343406 0 1.42272e+06 342802 0 1.39916e+06 341729 0 1.37594e+06 340230 0 1.35306e+06 338345 0 1.33052e+06 336113 0 1.30834e+06 333565 0 1.28652e+06 330735 0 1.26505e+06 327650 0 1.24395e+06 324338 0 1.2232e+06 320821 0 1.20282e+06 317122 0 1.1828e+06 313261 0 1.16314e+06 309257 0 1.14383e+06 305127 0 1.12489e+06 300886 0 1.1063e+06 296548 0 1.08807e+06 292127 0 1.07019e+06 287633 0 1.05266e+06 283079 0 1.03547e+06 278473 0 1.01863e+06 273825 0 1.00213e+06 269143 0 985976 264434 0 970153 259705 0 1.77282e+06 -707134 0 1.81363e+06 -662925 0 1.85317e+06 -615853 0 1.89071e+06 -566623 0 1.92531e+06 -515710 0 1.95623e+06 -463535 0 1.98287e+06 -410560 0 2.00486e+06 -357302 0 2.02198e+06 -304313 0 2.0342e+06 -252138 0 2.04165e+06 -201287 0 2.04454e+06 -152206 0 2.04321e+06 -105259 0 2.03803e+06 -60724.5 0 2.02938e+06 -18795.9 0 2.01766e+06 20409.7 0 2.00328e+06 56841.3 0 1.98658e+06 90502.6 0 1.96792e+06 121441 0 1.9476e+06 149735 0 1.92589e+06 175490 0 1.90304e+06 198825 0 1.87926e+06 219869 0 1.85474e+06 238759 0 1.82964e+06 255631 0 1.80411e+06 270622 0 1.77826e+06 283863 0 1.7522e+06 295483 0 1.72603e+06 305604 0 1.69981e+06 314343 0 1.67361e+06 321808 0 1.64749e+06 328102 0 1.6215e+06 333323 0 1.59567e+06 337558 0 1.57005e+06 340892 0 1.54466e+06 343402 0 1.51952e+06 345159 0 1.49466e+06 346229 0 1.4701e+06 346674 0 1.44584e+06 346550 0 1.42191e+06 345908 0 1.39831e+06 344797 0 1.37505e+06 343259 0 1.35214e+06 341337 0 1.32957e+06 339066 0 1.30737e+06 336481 0 1.28552e+06 333613 0 1.26404e+06 330490 0 1.24291e+06 327140 0 1.22216e+06 323585 0 1.20176e+06 319849 0 1.18173e+06 315950 0 1.16206e+06 311909 0 1.14275e+06 307742 0 1.12381e+06 303463 0 1.10522e+06 299088 0 1.08698e+06 294630 0 1.0691e+06 290100 0 1.05157e+06 285509 0 1.03439e+06 280866 0 1.01756e+06 276181 0 1.00106e+06 271463 0 984909 266717 0 969092 261952 0 1.7788e+06 -709520 0 1.81992e+06 -665096 0 1.85967e+06 -617803 0 1.89732e+06 -568284 0 1.93197e+06 -517009 0 1.96287e+06 -464415 0 1.98943e+06 -410984 0 2.01126e+06 -357254 0 2.02817e+06 -303794 0 2.04012e+06 -251166 0 2.04725e+06 -199893 0 2.04981e+06 -150427 0 2.04811e+06 -103138 0 2.04254e+06 -58305.9 0 2.03351e+06 -16122.6 0 2.02141e+06 23296.7 0 2.00666e+06 59904.6 0 1.9896e+06 93708.6 0 1.9706e+06 124760 0 1.94995e+06 153142 0 1.92794e+06 178962 0 1.9048e+06 202343 0 1.88076e+06 223418 0 1.85599e+06 242326 0 1.83067e+06 259204 0 1.80492e+06 274192 0 1.77888e+06 287424 0 1.75265e+06 299028 0 1.72631e+06 309128 0 1.69994e+06 317841 0 1.67361e+06 325278 0 1.64737e+06 331542 0 1.62126e+06 336730 0 1.59533e+06 340931 0 1.56962e+06 344229 0 1.54414e+06 346702 0 1.51893e+06 348422 0 1.49401e+06 349455 0 1.46938e+06 349862 0 1.44508e+06 349699 0 1.42109e+06 349019 0 1.39745e+06 347869 0 1.37415e+06 346293 0 1.3512e+06 344332 0 1.32861e+06 342022 0 1.30638e+06 339399 0 1.28451e+06 336492 0 1.26301e+06 333332 0 1.24187e+06 329943 0 1.2211e+06 326350 0 1.20069e+06 322576 0 1.18065e+06 318640 0 1.16098e+06 314561 0 1.14167e+06 310356 0 1.12271e+06 306040 0 1.10412e+06 301628 0 1.08589e+06 297132 0 1.06801e+06 292565 0 1.05048e+06 287937 0 1.0333e+06 283257 0 1.01647e+06 278536 0 999983 273780 0 983835 268998 0 968024 264196 0 1.78482e+06 -711923 0 1.82624e+06 -667281 0 1.86621e+06 -619755 0 1.90398e+06 -569934 0 1.93869e+06 -518288 0 1.96956e+06 -465267 0 1.99603e+06 -411372 0 2.01771e+06 -357162 0 2.0344e+06 -303225 0 2.04608e+06 -250141 0 2.05289e+06 -198442 0 2.0551e+06 -148591 0 2.05302e+06 -100960 0 2.04707e+06 -55830 0 2.03765e+06 -13393.7 0 2.02517e+06 26237.1 0 2.01004e+06 63018.6 0 1.99262e+06 96962.6 0 1.97327e+06 128124 0 1.9523e+06 156590 0 1.92998e+06 182473 0 1.90656e+06 205897 0 1.88225e+06 227001 0 1.85723e+06 245923 0 1.83168e+06 262806 0 1.80573e+06 277789 0 1.77949e+06 291008 0 1.75308e+06 302594 0 1.72658e+06 312671 0 1.70007e+06 321358 0 1.6736e+06 328765 0 1.64723e+06 334996 0 1.62102e+06 340150 0 1.59499e+06 344315 0 1.56918e+06 347577 0 1.54362e+06 350012 0 1.51834e+06 351694 0 1.49335e+06 352688 0 1.46866e+06 353056 0 1.4443e+06 352854 0 1.42027e+06 352135 0 1.39658e+06 350945 0 1.37325e+06 349330 0 1.35027e+06 347330 0 1.32765e+06 344982 0 1.30539e+06 342319 0 1.2835e+06 339374 0 1.26197e+06 336174 0 1.24082e+06 332747 0 1.22004e+06 329116 0 1.19962e+06 325303 0 1.17957e+06 321329 0 1.15989e+06 317212 0 1.14057e+06 312969 0 1.12162e+06 308616 0 1.10302e+06 304166 0 1.08479e+06 299633 0 1.06691e+06 295029 0 1.04938e+06 290363 0 1.03221e+06 285647 0 1.01538e+06 280889 0 998896 276096 0 982753 271278 0 966948 266439 0 1.79089e+06 -714342 0 1.8326e+06 -669478 0 1.87278e+06 -621708 0 1.91068e+06 -571576 0 1.94544e+06 -519548 0 1.9763e+06 -466090 0 2.00269e+06 -411723 0 2.02421e+06 -357026 0 2.04067e+06 -302607 0 2.05208e+06 -249061 0 2.05857e+06 -196934 0 2.06041e+06 -146695 0 2.05796e+06 -98721.9 0 2.05161e+06 -53296.2 0 2.0418e+06 -10608.8 0 2.02893e+06 29231.3 0 2.01342e+06 66183.8 0 1.99564e+06 100265 0 1.97595e+06 131533 0 1.95465e+06 160081 0 1.93202e+06 186022 0 1.90831e+06 209488 0 1.88373e+06 230616 0 1.85847e+06 249551 0 1.83269e+06 266435 0 1.80652e+06 281411 0 1.7801e+06 294616 0 1.75351e+06 306181 0 1.72684e+06 316234 0 1.70018e+06 324892 0 1.67358e+06 332267 0 1.64709e+06 338465 0 1.62076e+06 343583 0 1.59463e+06 347711 0 1.56873e+06 350935 0 1.54309e+06 353332 0 1.51773e+06 354974 0 1.49267e+06 355929 0 1.46793e+06 356257 0 1.44351e+06 356015 0 1.41944e+06 355255 0 1.39571e+06 354026 0 1.37233e+06 352372 0 1.34932e+06 350332 0 1.32667e+06 347943 0 1.30439e+06 345241 0 1.28247e+06 342257 0 1.26093e+06 339018 0 1.23976e+06 335552 0 1.21896e+06 331882 0 1.19854e+06 328031 0 1.17848e+06 324019 0 1.15879e+06 319864 0 1.13947e+06 315583 0 1.12051e+06 311191 0 1.10191e+06 306704 0 1.08368e+06 302133 0 1.0658e+06 297491 0 1.04828e+06 292789 0 1.0311e+06 288035 0 1.01428e+06 283240 0 997802 278411 0 981664 273555 0 965865 268680 0 1.79699e+06 -716777 0 1.83899e+06 -671687 0 1.87939e+06 -623662 0 1.91743e+06 -573207 0 1.95225e+06 -520788 0 1.98309e+06 -466884 