<?xml version="1.0"?> 
<VTKFile type="StructuredGrid" version="0.1"> 
<StructuredGrid WholeExtent="0 63 0 63 0 0"> 
<Piece Extent="0 63 0 63 0 0"> 
<PointData>
<DataArray type="Float32" Name="|E|" format="ascii" NumberOfComponents="3"> 
470302 7.13312e+06 0 427335 6.48143e+06 0 406141 6.15998e+06 0 391622 5.93976e+06 0 380590 5.77244e+06 0 371596 5.63603e+06 0 364026 5.52121e+06 0 357496 5.42218e+06 0 351772 5.33537e+06 0 346691 5.25829e+06 0 342134 5.18917e+06 0 338014 5.12669e+06 0 334264 5.06982e+06 0 330832 5.01777e+06 0 327675 4.96988e+06 0 324759 4.92565e+06 0 322055 4.88464e+06 0 319539 4.84648e+06 0 317192 4.81087e+06 0 314995 4.77756e+06 0 312935 4.74632e+06 0 310999 4.71695e+06 0 309176 4.6893e+06 0 307455 4.6632e+06 0 305829 4.63854e+06 0 304290 4.61519e+06 0 302831 4.59306e+06 0 301446 4.57206e+06 0 300129 4.55209e+06 0 298877 4.53309e+06 0 297684 4.515e+06 0 296546 4.49775e+06 0 295461 4.48128e+06 0 294424 4.46555e+06 0 293433 4.45052e+06 0 292484 4.43614e+06 0 291576 4.42237e+06 0 290707 4.40918e+06 0 289873 4.39654e+06 0 289074 4.38441e+06 0 288307 4.37278e+06 0 287571 4.36161e+06 0 286864 4.35089e+06 0 286184 4.34058e+06 0 285532 4.33068e+06 0 284904 4.32117e+06 0 284301 4.31202e+06 0 283721 4.30322e+06 0 283162 4.29475e+06 0 282626 4.28661e+06 0 282109 4.27878e+06 0 281613 4.27125e+06 0 281135 4.264e+06 0 280676 4.25703e+06 0 280234 4.25033e+06 0 279809 4.24389e+06 0 279401 4.2377e+06 0 279009 4.23176e+06 0 278633 4.22605e+06 0 278271 4.22057e+06 0 277925 4.21532e+06 0 277593 4.21028e+06 0 277276 4.20547e+06 0 276972 4.20086e+06 0 -287527 6.5372e+06 0 -33647.1 6.35123e+06 0 76391.9 6.12019e+06 0 137689 5.92975e+06 0 174356 5.77216e+06 0 198670 5.64036e+06 0 215582 5.52759e+06 0 227886 5.42957e+06 0 237103 5.3432e+06 0 244173 5.26627e+06 0 249695 5.19714e+06 0 254069 5.13454e+06 0 257573 5.0775e+06 0 260405 5.02524e+06 0 262710 4.97714e+06 0 264596 4.93269e+06 0 266144 4.89146e+06 0 267419 4.85308e+06 0 268468 4.81726e+06 0 269333 4.78375e+06 0 270044 4.75231e+06 0 270626 4.72275e+06 0 271101 4.69491e+06 0 271484 4.66865e+06 0 271791 4.64382e+06 0 272032 4.62031e+06 0 272218 4.59803e+06 0 272357 4.57687e+06 0 272456 4.55677e+06 0 272521 4.53763e+06 0 272556 4.51941e+06 0 272567 4.50203e+06 0 272557 4.48545e+06 0 272528 4.46961e+06 0 272485 4.45446e+06 0 272429 4.43997e+06 0 272363 4.4261e+06 0 272288 4.41281e+06 0 272206 4.40007e+06 0 272118 4.38786e+06 0 272027 4.37613e+06 0 271932 4.36488e+06 0 271835 4.35407e+06 0 271738 4.34368e+06 0 271639 4.3337e+06 0 271542 4.3241e+06 0 271445 4.31488e+06 0 271350 4.306e+06 0 271258 4.29746e+06 0 271168 4.28925e+06 0 271082 4.28135e+06 0 271000 4.27374e+06 0 270921 4.26643e+06 0 270848 4.25939e+06 0 270779 4.25262e+06 0 270715 4.24611e+06 0 270658 4.23986e+06 0 270606 4.23385e+06 0 270561 4.22807e+06 0 270523 4.22253e+06 0 270491 4.21721e+06 0 270467 4.21211e+06 0 270451 4.20723e+06 0 270443 4.20256e+06 0 -489327 6.25928e+06 0 -318582 6.12327e+06 0 -180855 5.98617e+06 0 -84899.4 5.84771e+06 0 -16292.9 5.72043e+06 0 33693.7 5.60615e+06 0 71345 5.50439e+06 0 100431 5.41355e+06 0 123433 5.33209e+06 0 141973 5.25861e+06 0 157162 5.19197e+06 0 169780 5.13122e+06 0 180386 5.07557e+06 0 189392 5.02437e+06 0 197108 4.97709e+06 0 203770 4.93327e+06 0 209563 4.89253e+06 0 214630 4.85455e+06 0 219087 4.81904e+06 0 223027 4.78576e+06 0 226526 4.75451e+06 0 229645 4.72511e+06 0 232437 4.69738e+06 0 234945 4.6712e+06 0 237204 4.64644e+06 0 239246 4.62298e+06 0 241097 4.60072e+06 0 242778 4.57959e+06 0 244310 4.55949e+06 0 245709 4.54036e+06 0 246989 4.52212e+06 0 248163 4.50473e+06 0 249243 4.48813e+06 0 250237 4.47226e+06 0 251155 4.45709e+06 0 252004 4.44257e+06 0 252791 4.42867e+06 0 253522 4.41534e+06 0 254202 4.40257e+06 0 254837 4.39031e+06 0 255430 4.37855e+06 0 255986 4.36725e+06 0 256508 4.3564e+06 0 257000 4.34597e+06 0 257464 4.33595e+06 0 257903 4.32631e+06 0 258320 4.31703e+06 0 258717 4.30811e+06 0 259096 4.29953e+06 0 259459 4.29127e+06 0 259808 4.28332e+06 0 260144 4.27566e+06 0 260469 4.2683e+06 0 260785 4.26122e+06 0 261093 4.2544e+06 0 261395 4.24784e+06 0 261690 4.24153e+06 0 261982 4.23547e+06 0 262270 4.22964e+06 0 262557 4.22404e+06 0 262842 4.21867e+06 0 263127 4.21352e+06 0 263413 4.20858e+06 0 263701 4.20385e+06 0 -646408 6.00216e+06 0 -488915 5.92614e+06 0 -361405 5.83172e+06 0 -258012 5.7335e+06 0 -176285 5.6361e+06 0 -111567 5.54342e+06 0 -59971.2 5.45696e+06 0 -18319.2 5.37715e+06 0 15736.5 5.30376e+06 0 43936.1 5.23633e+06 0 67559.7 5.17428e+06 0 87560.7 5.11708e+06 0 104656 5.06422e+06 0 119394 5.01525e+06 0 132197 4.96975e+06 0 143395 4.92738e+06 0 153251 4.88783e+06 0 161975 4.85083e+06 0 169736 4.81614e+06 0 176673 4.78354e+06 0 182899 4.75287e+06 0 188511 4.72395e+06 0 193585 4.69663e+06 0 198191 4.6708e+06 0 202383 4.64633e+06 0 206211 4.62313e+06 0 209716 4.60109e+06 0 212933 4.58014e+06 0 215893 4.5602e+06 0 218623 4.54121e+06 0 221147 4.52309e+06 0 223485 4.5058e+06 0 225656 4.48928e+06 0 227675 4.47348e+06 0 229556 4.45837e+06 0 231313 4.4439e+06 0 232957 4.43003e+06 0 234497 4.41674e+06 0 235943 4.40399e+06 0 237304 4.39175e+06 0 238586 4.38e+06 0 239796 4.36871e+06 0 240941 4.35786e+06 0 242025 4.34743e+06 0 243055 4.3374e+06 0 244035 4.32775e+06 0 244969 4.31847e+06 0 245860 4.30953e+06 0 246714 4.30093e+06 0 247532 4.29265e+06 0 248318 4.28467e+06 0 249076 4.277e+06 0 249807 4.26961e+06 0 250515 4.26249e+06 0 251201 4.25564e+06 0 251869 4.24905e+06 0 252519 4.24271e+06 0 253155 4.23661e+06 0 253778 4.23074e+06 0 254390 4.2251e+06 0 254992 4.21969e+06 0 255586 4.21449e+06 0 256175 4.2095e+06 0 256759 4.20473e+06 0 -737886 5.7968e+06 0 -606433 5.74316e+06 0 -489047 5.68017e+06 0 -388746 5.60979e+06 0 -304029 5.5367e+06 0 -233159 5.46376e+06 0 -173926 5.39297e+06 0 -124285 5.32541e+06 0 -82450.3 5.26161e+06 0 -46954.7 5.20171e+06 0 -16618.6 5.14564e+06 0 9495.61 5.09323e+06 0 32132.5 5.04424e+06 0 51884.2 4.99842e+06 0 69224.3 4.95552e+06 0 84534 4.9153e+06 0 98122.2 4.87755e+06 0 110241 4.84206e+06 0 121098 4.80865e+06 0 130866 4.77715e+06 0 139686 4.74741e+06 0 147681 4.71929e+06 0 154951 4.69267e+06 0 161582 4.66744e+06 0 167649 4.6435e+06 0 173214 4.62075e+06 0 178333 4.59911e+06 0 183053 4.57852e+06 0 187414 4.55888e+06 0 191454 4.54016e+06 0 195203 4.52228e+06 0 198689 4.5052e+06 0 201938 4.48886e+06 0 204972 4.47323e+06 0 207808 4.45826e+06 0 210466 4.44392e+06 0 212961 4.43017e+06 0 215306 4.41697e+06 0 217515 4.40431e+06 0 219598 4.39214e+06 0 221567 4.38046e+06 0 223430 4.36923e+06 0 225196 4.35843e+06 0 226873 4.34804e+06 0 228468 4.33804e+06 0 229987 4.32842e+06 0 231437 4.31916e+06 0 232824 4.31024e+06 0 234151 4.30165e+06 0 235425 4.29337e+06 0 236649 4.2854e+06 0 237828 4.27773e+06 0 238965 4.27033e+06 0 240064 4.26321e+06 0 241129 4.25635e+06 0 242162 4.24974e+06 0 243167 4.24338e+06 0 244147 4.23726e+06 0 245103 4.23137e+06 0 246040 4.2257e+06 0 246958 4.22026e+06 0 247861 4.21503e+06 0 248750 4.21e+06 0 249629 4.20519e+06 0 -803176 5.61415e+06 0 -686423 5.58069e+06 0 -580953 5.53702e+06 0 -486793 5.4868e+06 0 -404098 5.43233e+06 0 -332118 5.3759e+06 0 -269801 5.3192e+06 0 -215933 5.26344e+06 0 -169324 5.20941e+06 0 -128887 5.15756e+06 0 -93673.7 5.10813e+06 0 -62876 5.0612e+06 0 -35816.3 5.01677e+06 0 -11930 4.97475e+06 0 9251.46 4.93505e+06 0 28117.6 4.89753e+06 0 44992.4 4.86208e+06 0 60146.7 4.82855e+06 0 73807.5 4.79682e+06 0 86165.9 4.76677e+06 0 97383.7 4.73828e+06 0 107598 4.71125e+06 0 116927 4.68559e+06 0 125471 4.66119e+06 0 133317 4.63798e+06 0 140540 4.61588e+06 0 147206 4.59482e+06 0 153371 4.57472e+06 0 159084 4.55554e+06 0 164391 4.53722e+06 0 169330 4.5197e+06 0 173935 4.50293e+06 0 178236 4.48688e+06 0 182261 4.47151e+06 0 186034 4.45677e+06 0 189576 4.44263e+06 0 192907 4.42906e+06 0 196045 4.41603e+06 0 199005 4.40352e+06 0 201802 4.39149e+06 0 204449 4.37992e+06 0 206957 4.36879e+06 0 209338 4.35809e+06 0 211602 4.34778e+06 0 213757 4.33786e+06 0 215812 4.3283e+06 0 217775 4.31909e+06 0 219652 4.31022e+06 0 221451 4.30168e+06 0 223177 4.29344e+06 0 224836 4.2855e+06 0 226434 4.27784e+06 0 227974 4.27047e+06 0 229463 4.26336e+06 0 230904 4.2565e+06 0 232301 4.2499e+06 0 233658 4.24354e+06 0 234979 4.23741e+06 0 236267 4.23151e+06 0 237526 4.22584e+06 0 238758 4.22037e+06 0 239967 4.21512e+06 0 241155 4.21008e+06 0 242325 4.20523e+06 0 -844861 5.45557e+06 0 -742490 5.4339e+06 0 -647254 5.40452e+06 0 -560281 5.36878e+06 0 -481712 5.32855e+06 0 -411408 5.2854e+06 0 -348883 5.24069e+06 0 -293485 5.19549e+06 0 -244477 5.15061e+06 0 -201119 5.10662e+06 0 -162710 5.06391e+06 0 -128613 5.02271e+06 0 -98264.4 4.98316e+06 0 -71171 4.94532e+06 0 -46907.5 4.9092e+06 0 -25108.2 4.87475e+06 0 -5459.91 4.84195e+06 0 12305.4 4.81071e+06 0 28417.3 4.78098e+06 0 43072.8 4.75266e+06 0 56441.5 4.7257e+06 0 68669.3 4.70001e+06 0 79882.6 4.67552e+06 0 90191 4.65216e+06 0 99690 4.62987e+06 0 108463 4.60859e+06 0 116582 4.58826e+06 0 124113 4.56881e+06 0 131110 4.55022e+06 0 137625 4.53241e+06 0 143702 4.51536e+06 0 149381 4.49902e+06 0 154695 4.48335e+06 0 159678 4.46832e+06 0 164356 4.45389e+06 0 168756 4.44003e+06 0 172901 4.42672e+06 0 176810 4.41392e+06 0 180504 4.40161e+06 0 183998 4.38977e+06 0 187309 4.37837e+06 0 190450 4.3674e+06 0 193435 4.35683e+06 0 196275 4.34665e+06 0 198981 4.33684e+06 0 201563 4.32739e+06 0 204031 4.31827e+06 0 206393 4.30948e+06 0 208656 4.30101e+06 0 210829 4.29283e+06 0 212918 4.28495e+06 0 214929 4.27734e+06 0 216869 4.27001e+06 0 218743 4.26293e+06 0 220555 4.25611e+06 0 222312 4.24953e+06 0 224018 4.24318e+06 0 225676 4.23707e+06 0 227292 4.23117e+06 0 228869 4.2255e+06 0 230412 4.22003e+06 0 231922 4.21477e+06 0 233405 4.20971e+06 0 234863 4.20485e+06 0 -872069 5.31426e+06 0 -780848 5.30178e+06 0 -695000 5.28243e+06 0 -615091 5.25751e+06 0 -541491 5.22817e+06 0 -474256 5.19559e+06 0 -413228 5.1608e+06 0 -358083 5.12469e+06 0 -308396 5.088e+06 0 -263692 5.0513e+06 0 -223486 5.015e+06 0 -187306 4.97943e+06 0 -154711 4.94481e+06 0 -125297 4.91126e+06 0 -98702.6 4.87889e+06 0 -74605 4.84773e+06 0 -52720.1 4.81779e+06 0 -32798 4.78907e+06 0 -14619.9 4.76155e+06 0 2005.88 4.73519e+06 0 17246.9 4.70996e+06 0 31249.9 4.6858e+06 0 44143.6 4.66267e+06 0 56041.2 4.64052e+06 0 67042.1 4.61931e+06 0 77234 4.599e+06 0 86694.4 4.57953e+06 0 95492 4.56087e+06 0 103688 4.54297e+06 0 111336 4.52581e+06 0 118486 4.50933e+06 0 125179 4.4935e+06 0 131456 4.4783e+06 0 137351 4.4637e+06 0 142896 4.44965e+06 0 148119 4.43615e+06 0 153046 4.42315e+06 0 157699 4.41065e+06 0 162101 4.3986e+06 0 166270 4.387e+06 0 170225 4.37583e+06 0 173981 4.36505e+06 0 177553 4.35467e+06 0 180955 4.34466e+06 0 184198 4.335e+06 0 187296 4.32568e+06 0 190258 4.31669e+06 0 193094 4.30801e+06 0 195813 4.29964e+06 0 198424 4.29155e+06 0 200934 4.28375e+06 0 203352 4.27622e+06 0 205683 4.26895e+06 0 207935 4.26193e+06 0 210114 4.25515e+06 0 212224 4.24861e+06 0 214272 4.2423e+06 0 216263 4.23622e+06 0 218202 4.23035e+06 0 220092 4.22469e+06 0 221939 4.21923e+06 0 223747 4.21398e+06 0 225519 4.20892e+06 0 227260 4.20405e+06 0 -887970 5.18823e+06 0 -806481 5.18212e+06 0 -728809 5.17029e+06 0 -655577 5.15348e+06 0 -587113 5.13255e+06 0 -523586 5.10836e+06 0 -464999 5.08169e+06 0 -411221 5.05326e+06 0 -362028 5.0237e+06 0 -317135 4.99351e+06 0 -276221 4.96312e+06 0 -238954 4.93286e+06 0 -205006 4.90298e+06 0 -174062 4.87367e+06 0 -145830 4.84505e+06 0 -120037 4.81723e+06 0 -96439.4 4.79027e+06 0 -74814 4.7642e+06 0 -54962.1 4.73903e+06 0 -36705.9 4.71476e+06 0 -19886.9 4.6914e+06 0 -4364.03 4.66891e+06 0 9988.38 4.64728e+06 0 23282 4.62648e+06 0 35616.4 4.60648e+06 0 47080.2 4.58726e+06 0 57752.6 4.56877e+06 0 67704.2 4.551e+06 0 76998.6 4.53391e+06 0 85692.3 4.51747e+06 0 93836.5 4.50165e+06 0 101477 4.48643e+06 0 108655 4.47178e+06 0 115409 4.45768e+06 0 121771 4.44409e+06 0 127773 4.431e+06 0 133443 4.41839e+06 0 138806 4.40623e+06 0 143885 4.39451e+06 0 148701 4.3832e+06 0 153274 4.37229e+06 0 157622 4.36176e+06 0 161760 4.3516e+06 0 165705 4.3418e+06 0 169469 4.33233e+06 0 173066 4.32318e+06 0 176507 4.31435e+06 0 179803 4.30581e+06 0 182966 4.29757e+06 0 186003 4.28961e+06 0 188925 4.28191e+06 0 191739 4.27448e+06 0 194453 4.26729e+06 0 197075 4.26035e+06 0 199610 4.25364e+06 0 202067 4.24717e+06 0 204450 4.24091e+06 0 206766 4.23487e+06 0 209020 4.22903e+06 0 211218 4.2234e+06 0 213363 4.21797e+06 0 215461 4.21274e+06 0 217517 4.20769e+06 0 219535 4.20282e+06 0 -895785 5.07475e+06 0 -822483 5.07347e+06 0 -752042 5.06723e+06 0 -684928 5.05661e+06 0 -621467 5.04223e+06 0 -561859 5.02471e+06 0 -506187 5.00467e+06 0 -454433 4.98266e+06 0 -406498 4.9592e+06 0 -362223 4.93473e+06 0 -321409 4.90965e+06 0 -283832 4.88426e+06 0 -249260 4.85882e+06 0 -217456 4.83353e+06 0 -188191 4.80857e+06 0 -161248 4.78404e+06 0 -136421 4.76005e+06 0 -113523 4.73665e+06 0 -92376.8 4.71389e+06 0 -72825.3 4.69179e+06 0 -54723.7 4.67038e+06 0 -37941.1 4.64966e+06 0 -22359.3 4.62963e+06 0 -7871.82 4.61027e+06 0 5617.57 4.59158e+06 0 18195.5 4.57354e+06 0 29940.2 4.55613e+06 0 40922.1 4.53934e+06 0 51205 4.52313e+06 0 60846.3 4.50751e+06 0 69898.1 4.49243e+06 0 78407.7 4.47789e+06 0 86417.7 4.46386e+06 0 93967.2 4.45032e+06 0 101091 4.43725e+06 0 107823 4.42464e+06 0 114191 4.41246e+06 0 120222 4.40071e+06 0 125941 4.38935e+06 0 131371 4.37838e+06 0 136532 4.36779e+06 0 141443 4.35755e+06 0 146123 4.34765e+06 0 150587 4.33809e+06 0 154850 4.32884e+06 0 158927 4.3199e+06 0 162830 4.31126e+06 0 166571 4.3029e+06 0 170161 4.29481e+06 0 173611 4.287e+06 0 176931 4.27943e+06 0 180129 4.27212e+06 0 183214 4.26504e+06 0 186194 4.2582e+06 0 189077 4.25158e+06 0 191870 4.24518e+06 0 194580 4.239e+06 0 197212 4.23302e+06 0 199773 4.22724e+06 0 202269 4.22165e+06 0 204705 4.21626e+06 0 207086 4.21105e+06 0 209418 4.20603e+06 0 211705 4.20118e+06 0 -897412 4.97213e+06 0 -831191 4.97441e+06 0 -767097 4.97243e+06 0 -705537 4.96658e+06 0 -646798 4.95734e+06 0 -591087 4.94515e+06 0 -538523 4.9305e+06 0 -489147 4.91382e+06 0 -442939 4.89554e+06 0 -399823 4.87603e+06 0 -359685 4.85563e+06 0 -322383 4.83462e+06 0 -287755 4.81325e+06 0 -255634 4.79173e+06 0 -225847 4.77021e+06 0 -198224 4.74885e+06 0 -172600 4.72775e+06 0 -148818 4.70698e+06 0 -126731 4.68662e+06 0 -106202 4.66671e+06 0 -87101.9 4.64729e+06 0 -69314.2 4.62839e+06 0 -52730.7 4.61e+06 0 -37252.8 4.59215e+06 0 -22790.1 4.57483e+06 0 -9260.44 4.55804e+06 0 3411.28 4.54178e+06 0 15293.4 4.52603e+06 0 26448.3 4.51078e+06 0 36932.7 4.49603e+06 0 46798.3 4.48176e+06 0 56092.5 4.46796e+06 0 64858.4 4.45461e+06 0 73135.3 4.44169e+06 0 80959.5 4.4292e+06 0 88364 4.41712e+06 0 95379 4.40543e+06 0 102032 4.39412e+06 0 108350 4.38318e+06 0 114355 4.37259e+06 0 120070 4.36235e+06 0 125513 4.35244e+06 0 130705 4.34284e+06 0 135662 4.33356e+06 0 140400 4.32457e+06 0 144934 4.31586e+06 0 149278 4.30744e+06 0 153444 4.29928e+06 0 157444 4.29138e+06 0 161290 4.28373e+06 0 164992 4.27632e+06 0 168560 4.26915e+06 0 172002 4.26221e+06 0 175329 4.25548e+06 0 178547 4.24897e+06 0 181665 4.24267e+06 0 184689 4.23657e+06 0 187627 4.23067e+06 0 190486 4.22496e+06 0 193271 4.21944e+06 0 195988 4.2141e+06 0 198643 4.20893e+06 0 201242 4.20395e+06 0 203790 4.19913e+06 0 -894360 4.87882e+06 0 -834260 4.8838e+06 0 -775767 4.88507e+06 0 -719217 4.88294e+06 0 -664863 4.87774e+06 0 -612902 4.86984e+06 0 -563467 4.85959e+06 0 -516630 4.84734e+06 0 -472416 4.83343e+06 0 -430804 4.81817e+06 0 -391736 4.80186e+06 0 -355129 4.78475e+06 0 -320879 4.76705e+06 0 -288869 4.74897e+06 0 -258973 4.73067e+06 0 -231064 4.71228e+06 0 -205011 4.69393e+06 0 -180690 4.67571e+06 0 -157979 4.65769e+06 0 -136762 4.63994e+06 0 -116929 4.6225e+06 0 -98376.7 4.60541e+06 0 -81010.1 4.58869e+06 0 -64739.6 4.57237e+06 0 -49482.8 4.55646e+06 0 -35163.3 4.54097e+06 0 -21710.9 4.52589e+06 0 -9060.75 4.51124e+06 0 2846.56 4.497e+06 0 14065.8 4.48318e+06 0 24647.4 4.46976e+06 0 34637.5 4.45675e+06 0 44078.7 4.44412e+06 0 53010.2 4.43188e+06 0 61467.9 4.42e+06 0 69485.1 4.40849e+06 0 77092.4 4.39733e+06 0 84318 4.38652e+06 0 91188 4.37603e+06 0 97726.5 4.36587e+06 0 103956 4.35601e+06 0 109897 4.34646e+06 0 115568 4.3372e+06 0 120988 4.32822e+06 0 126174 4.31952e+06 0 131139 4.31108e+06 0 135900 4.3029e+06 0 140469 4.29497e+06 0 144859 4.28728e+06 0 149082 4.27982e+06 0 153149 4.2726e+06 0 157070 4.26559e+06 0 160854 4.2588e+06 0 164512 4.25221e+06 0 168052 4.24583e+06 0 171481 4.23964e+06 0 174808 4.23365e+06 0 178041 4.22784e+06 0 181185 4.22221e+06 0 184248 4.21676e+06 0 187236 4.21149e+06 0 190156 4.20638e+06 0 193012 4.20145e+06 0 195811 4.19667e+06 0 -887698 4.79362e+06 0 -832939 4.80063e+06 0 -779399 4.80441e+06 0 -727358 4.80518e+06 0 -677039 4.80321e+06 0 -628621 4.79876e+06 0 -582236 4.7921e+06 0 -537975 4.78352e+06 0 -495886 4.7733e+06 0 -455980 4.76168e+06 0 -418240 4.74892e+06 0 -382623 4.73523e+06 0 -349067 4.72081e+06 0 -317494 4.70585e+06 0 -287817 4.69049e+06 0 -259941 4.67487e+06 0 -233769 4.6591e+06 0 -209203 4.64329e+06 0 -186144 4.62752e+06 0 -164497 4.61186e+06 0 -144170 4.59635e+06 0 -125076 4.58105e+06 0 -107130 4.56599e+06 0 -90254.6 4.55121e+06 0 -74375.2 4.53672e+06 0 -59422.8 4.52253e+06 0 -45333.1 4.50867e+06 0 -32046 4.49514e+06 0 -19505.7 4.48194e+06 0 -7660.52 4.46908e+06 0 3537.45 4.45655e+06 0 14132.7 4.44436e+06 0 24166.3 4.4325e+06 0 33676.4 4.42096e+06 0 42698.4 4.40974e+06 0 51264.9 4.39884e+06 0 59406.3 4.38825e+06 0 67150.7 4.37796e+06 0 74524.2 4.36796e+06 0 81551.1 4.35825e+06 0 88253.8 4.34882e+06 0 94653.5 4.33965e+06 0 100770 4.33076e+06 0 106620 4.32212e+06 0 112222 4.31373e+06 0 117592 4.30558e+06 0 122744 4.29767e+06 0 127692 4.28999e+06 0 132450 4.28254e+06 0 137028 4.2753e+06 0 141440 4.26827e+06 0 145695 4.26145e+06 0 149805 4.25482e+06 0 153778 4.2484e+06 0 157623 4.24216e+06 0 161350 4.2361e+06 0 164966 4.23023e+06 0 168479 4.22453e+06 0 171897 4.219e+06 0 175226 4.21364e+06 0 178473 4.20845e+06 0 181645 4.20341e+06 0 184748 4.19853e+06 0 187788 4.19381e+06 0 -878241 4.7155e+06 0 -828168 4.72406e+06 0 -779022 4.72978e+06 0 -731040 4.73285e+06 0 -684414 4.73344e+06 0 -639305 4.73178e+06 0 -595841 4.72807e+06 0 -554115 4.72254e+06 0 -514188 4.71542e+06 0 -476093 4.7069e+06 0 -439838 4.6972e+06 0 -405408 4.68651e+06 0 -372769 4.675e+06 0 -341875 4.66282e+06 0 -312667 4.65013e+06 0 -285080 4.63705e+06 0 -259040 4.62369e+06 0 -234472 4.61014e+06 0 -211301 4.59649e+06 0 -189450 4.58281e+06 0 -168842 4.56917e+06 0 -149404 4.55561e+06 0 -131066 4.54218e+06 0 -113758 4.5289e+06 0 -97417.3 4.51582e+06 0 -81980.9 4.50294e+06 0 -67391.2 4.4903e+06 0 -53593.7 4.4779e+06 0 -40537.1 4.46576e+06 0 -28173.4 4.45387e+06 0 -16457.8 4.44226e+06 0 -5348.4 4.43092e+06 0 5194 4.41984e+06 0 15205.9 4.40904e+06 0 24721.2 4.39851e+06 0 33771.8 4.38825e+06 0 42387.2 4.37825e+06 0 50595 4.36851e+06 0 58420.9 4.35903e+06 0 65888.9 4.34979e+06 0 73021.5 4.34081e+06 0 79839.5 4.33207e+06 0 86362.6 4.32356e+06 0 92609 4.31528e+06 0 98596 4.30723e+06 0 104340 4.2994e+06 0 109855 4.29179e+06 0 115156 4.28438e+06 0 120256 4.27718e+06 0 125168 4.27017e+06 0 129903 4.26336e+06 0 134473 4.25674e+06 0 138888 4.25031e+06 0 143158 4.24405e+06 0 147293 4.23798e+06 0 151300 4.23207e+06 0 155190 4.22633e+06 0 158970 4.22076e+06 0 162647 4.21534e+06 0 166229 4.21008e+06 0 169723 4.20498e+06 0 173135 4.20003e+06 0 176473 4.19522e+06 0 179741 4.19056e+06 0 -866607 4.64362e+06 0 -820669 4.65336e+06 0 -775436 4.6606e+06 0 -731109 4.66547e+06 0 -687855 4.66812e+06 0 -645817 4.66872e+06 0 -605114 4.66744e+06 0 -565836 4.66445e+06 0 -528052 4.65992e+06 0 -491805 4.65405e+06 0 -457119 4.64699e+06 0 -423997 4.63891e+06 0 -392427 4.62995e+06 0 -362386 4.62027e+06 0 -333835 4.60998e+06 0 -306732 4.5992e+06 0 -281024 4.58804e+06 0 -256656 4.57659e+06 0 -233569 4.56493e+06 0 -211704 4.55313e+06 0 -190998 4.54126e+06 0 -171393 4.52936e+06 0 -152828 4.51749e+06 0 -135246 4.50569e+06 0 -118590 4.49398e+06 0 -102808 4.4824e+06 0 -87847.1 4.47096e+06 0 -73659.3 4.45969e+06 0 -60198.1 4.4486e+06 0 -47419.7 4.43771e+06 0 -35282.7 4.42702e+06 0 -23748.3 4.41653e+06 0 -12779.8 4.40627e+06 0 -2342.82 4.39622e+06 0 7594.99 4.38639e+06 0 17063.9 4.37679e+06 0 26092.4 4.3674e+06 0 34707 4.35824e+06 0 42932.9 4.34929e+06 0 50793.4 4.34056e+06 0 58310.6 4.33205e+06 0 65505 4.32375e+06 0 72396 4.31565e+06 0 79001.9 4.30776e+06 0 85339.6 4.30007e+06 0 91425.4 4.29257e+06 0 97274.3 4.28527e+06 0 102901 4.27815e+06 0 108318 4.27122e+06 0 113538 4.26447e+06 0 118574 4.2579e+06 0 123437 4.2515e+06 0 128137 4.24527e+06 0 132685 4.23921e+06 0 137091 4.2333e+06 0 141362 4.22756e+06 0 145509 4.22197e+06 0 149539 4.21653e+06 0 153461 4.21125e+06 0 157281 4.2061e+06 0 161008 4.2011e+06 0 164648 4.19624e+06 0 168207 4.19152e+06 0 171693 4.18694e+06 0 -853271 4.57728e+06 0 -810999 4.5879e+06 0 -769264 4.59632e+06 0 -728235 4.60262e+06 0 -688058 4.60693e+06 0 -648858 4.60938e+06 0 -610744 4.61008e+06 0 -573803 4.6092e+06 0 -538104 4.60688e+06 0 -503695 4.60325e+06 0 -470609 4.59845e+06 0 -438863 4.59264e+06 0 -408460 4.58593e+06 0 -379389 4.57844e+06 0 -351632 4.5703e+06 0 -325161 4.56161e+06 0 -299940 4.55246e+06 0 -275931 4.54293e+06 0 -253090 4.53311e+06 0 -231370 4.52307e+06 0 -210723 4.51287e+06 0 -191102 4.50256e+06 0 -172456 4.49219e+06 0 -154739 4.48179e+06 0 -137902 4.47142e+06 0 -121899 4.46109e+06 0 -106687 4.45084e+06 0 -92220.3 4.44068e+06 0 -78459.5 4.43064e+06 0 -65364.8 4.42072e+06 0 -52898.5 4.41095e+06 0 -41025.2 4.40134e+06 0 -29711 4.39188e+06 0 -18923.8 4.38259e+06 0 -8633.52 4.37348e+06 0 1188.53 4.36455e+06 0 10569.3 4.35579e+06 0 19534.2 4.34722e+06 0 28107.2 4.33883e+06 0 36310.9 4.33062e+06 0 44166.6 4.32259e+06 0 51694.4 4.31474e+06 0 58913.3 4.30708e+06 0 65841 4.29959e+06 0 72494.5 4.29227e+06 0 78889.6 4.28513e+06 0 85041.3 4.27815e+06 0 90963.8 4.27135e+06 0 96670.6 4.26471e+06 0 102174 4.25823e+06 0 107487 4.25191e+06 0 112620 4.24575e+06 0 117584 4.23973e+06 0 122390 4.23387e+06 0 127046 4.22816e+06 0 131564 4.22259e+06 0 135950 4.21717e+06 0 140214 4.21188e+06 0 144365 4.20673e+06 0 148408 4.20171e+06 0 152353 4.19683e+06 0 156206 4.19208e+06 0 159974 4.18745e+06 0 163663 4.18295e+06 0 -838601 4.51586e+06 0 -799597 4.52715e+06 0 -760999 4.53648e+06 0 -722952 4.54393e+06 0 -685582 4.54957e+06 0 -649000 4.55351e+06 0 -613304 4.55587e+06 0 -578575 4.55675e+06 0 -544879 4.55626e+06 0 -512268 4.55454e+06 0 -480780 4.5517e+06 0 -450438 4.54785e+06 0 -421254 4.5431e+06 0 -393231 4.53756e+06 0 -366362 4.53134e+06 0 -340631 4.52451e+06 0 -316016 4.51718e+06 0 -292490 4.50942e+06 0 -270023 4.50129e+06 0 -248579 4.49288e+06 0 -228122 4.48424e+06 0 -208613 4.47541e+06 0 -190013 4.46646e+06 0 -172282 4.45741e+06 0 -155382 4.44832e+06 0 -139272 4.4392e+06 0 -123915 4.43009e+06 0 -109273 4.42102e+06 0 -95309.9 4.412e+06 0 -81990.8 4.40305e+06 0 -69282.2 4.39419e+06 0 -57151.7 4.38544e+06 0 -45568.7 4.37679e+06 0 -34503.7 4.36827e+06 0 -23928.8 4.35988e+06 0 -13817.3 4.35162e+06 0 -4143.96 4.3435e+06 0 5115.15 4.33553e+06 0 13982.8 4.3277e+06 0 22480.5 4.32002e+06 0 30628.6 4.31249e+06 0 38446.6 4.30512e+06 0 45952.6 4.29789e+06 0 53164.1 4.29081e+06 0 60097.4 4.28389e+06 0 66768.2 4.27711e+06 0 73191 4.27048e+06 0 79380 4.264e+06 0 85348.3 4.25766e+06 0 91108.6 4.25147e+06 0 96672.7 4.24542e+06 0 102052 4.2395e+06 0 107258 4.23372e+06 0 112299 4.22808e+06 0 117187 4.22257e+06 0 121931 4.21719e+06 0 126539 4.21194e+06 0 131020 4.20681e+06 0 135382 4.20181e+06 0 139633 4.19693e+06 0 143780 4.19217e+06 0 147831 4.18754e+06 0 151793 4.18301e+06 0 155672 4.17861e+06 0 -822887 4.45885e+06 0 -786807 4.47064e+06 0 -751033 4.48068e+06 0 -715689 4.48902e+06 0 -680883 4.49574e+06 0 -646713 4.50091e+06 0 -613268 4.50463e+06 0 -580621 4.50697e+06 0 -548836 4.50805e+06 0 -517963 4.50795e+06 0 -488043 4.50678e+06 0 -459104 4.50463e+06 0 -431164 4.5016e+06 0 -404234 4.49777e+06 0 -378314 4.49324e+06 0 -353398 4.48809e+06 0 -329476 4.4824e+06 0 -306529 4.47623e+06 0 -284537 4.46967e+06 0 -263474 4.46275e+06 0 -243313 4.45555e+06 0 -224024 4.44812e+06 0 -205576 4.4405e+06 0 -187938 4.43273e+06 0 -171077 4.42485e+06 0 -154960 4.41689e+06 0 -139555 4.40889e+06 0 -124830 4.40086e+06 0 -110754 4.39283e+06 0 -97295 4.38483e+06 0 -84424.6 4.37687e+06 0 -72113.7 4.36895e+06 0 -60334.5 4.36111e+06 0 -49060.5 4.35334e+06 0 -38265.9 4.34567e+06 0 -27926.4 4.33809e+06 0 -18018.4 4.33061e+06 0 -8519.7 4.32324e+06 0 591.075 4.31598e+06 0 9334.23 4.30884e+06 0 17729.1 4.30182e+06 0 25794.1 4.29492e+06 0 33546.8 4.28815e+06 0 41003.7 4.2815e+06 0 48180.8 4.27497e+06 0 55093.1 4.26857e+06 0 61754.9 4.2623e+06 0 68179.9 4.25615e+06 0 74381 4.25013e+06 0 80370.7 4.24423e+06 0 86160.7 4.23845e+06 0 91762.1 4.2328e+06 0 97185.8 4.22726e+06 0 102442 4.22185e+06 0 107540 4.21655e+06 0 112490 4.21137e+06 0 117300 4.2063e+06 0 121979 4.20135e+06 0 126536 4.19651e+06 0 130977 4.19178e+06 0 135311 4.18716e+06 0 139545 4.18264e+06 0 143686 4.17824e+06 0 147740 4.17393e+06 0 -806355 4.4058e+06 0 -772905 4.41796e+06 0 -739683 4.42854e+06 0 -706793 4.4376e+06 0 -674332 4.44518e+06 0 -642385 4.45136e+06 0 -611031 4.45619e+06 0 -580337 4.45977e+06 0 -550364 4.46216e+06 0 -521159 4.46344e+06 0 -492762 4.46371e+06 0 -465205 4.46303e+06 0 -438510 4.46149e+06 0 -412691 4.45917e+06 0 -387757 4.45614e+06 0 -363707 4.45249e+06 0 -340538 4.44827e+06 0 -318241 4.44355e+06 0 -296801 4.43839e+06 0 -276201 4.43286e+06 0 -256423 4.42699e+06 0 -237443 4.42085e+06 0 -219237 4.41447e+06 0 -201781 4.4079e+06 0 -185048 4.40117e+06 0 -169011 4.39431e+06 0 -153643 4.38736e+06 0 -138918 4.38034e+06 0 -124808 4.37327e+06 0 -111287 4.36618e+06 0 -98329.1 4.35908e+06 0 -85908.7 4.352e+06 0 -74001.2 4.34494e+06 0 -62582.7 4.33792e+06 0 -51630 4.33095e+06 0 -41120.8 4.32404e+06 0 -31033.8 4.31719e+06 0 -21348.1 4.31043e+06 0 -12044.1 4.30374e+06 0 -3102.7 4.29714e+06 0 5494.14 4.29063e+06 0 13763.8 4.28421e+06 0 21722.9 4.2779e+06 0 29387.4 4.27168e+06 0 36772.3 4.26556e+06 0 43892 4.25955e+06 0 50760.6 4.25364e+06 0 57391 4.24783e+06 0 63796 4.24213e+06 0 69987.5 4.23654e+06 0 75977 4.23105e+06 0 81775.7 4.22566e+06 0 87393.8 4.22038e+06 0 92841.6 4.21521e+06 0 98128.6 4.21013e+06 0 103264 4.20516e+06 0 108257 4.20029e+06 0 113116 4.19552e+06 0 117849 4.19085e+06 0 122463 4.18627e+06 0 126967 4.1818e+06 0 131368 4.17742e+06 0 135672 4.17313e+06 0 139887 4.16894e+06 0 -789187 4.35633e+06 0 -758111 4.36875e+06 0 -727200 4.37975e+06 0 -696547 4.38936e+06 0 -666234 4.39764e+06 0 -636336 4.40464e+06 0 -606924 4.41041e+06 0 -578059 4.41501e+06 0 -549796 4.41851e+06 0 -522181 4.42097e+06 0 -495253 4.42246e+06 0 -469044 4.42306e+06 0 -443578 4.42282e+06 0 -418873 4.42182e+06 0 -394940 4.42012e+06 0 -371786 4.41779e+06 0 -349411 4.41489e+06 0 -327813 4.41148e+06 0 -306983 4.4076e+06 0 -286911 4.40333e+06 0 -267583 4.39869e+06 0 -248983 4.39374e+06 0 -231093 4.38852e+06 0 -213894 4.38306e+06 0 -197364 4.37741e+06 0 -181482 4.37159e+06 0 -166226 4.36564e+06 0 -151574 4.35957e+06 0 -137502 4.35342e+06 0 -123988 4.34721e+06 0 -111010 4.34095e+06 0 -98544.6 4.33467e+06 0 -86571.3 4.32838e+06 0 -75068.3 4.32208e+06 0 -64015 4.31581e+06 0 -53391.4 4.30956e+06 0 -43177.7 4.30334e+06 0 -33355.3 4.29717e+06 0 -23905.8 4.29105e+06 0 -14811.8 4.28499e+06 0 -6056.37 4.27899e+06 0 2376.75 4.27306e+06 0 10503.1 4.2672e+06 0 18337.7 4.26142e+06 0 25895 4.25571e+06 0 33188.6 4.25009e+06 0 40231.7 4.24455e+06 0 47037.1 4.23909e+06 0 53616.9 4.23372e+06 0 59982.6 4.22844e+06 0 66145.5 4.22324e+06 0 72116.1 4.21814e+06 0 77904.9 4.21312e+06 0 83521.5 4.20819e+06 0 88975.5 4.20334e+06 0 94275.9 4.19859e+06 0 99431.5 4.19392e+06 0 104451 4.18934e+06 0 109341 4.18484e+06 0 114111 4.18044e+06 0 118768 4.17611e+06 0 123319 4.17187e+06 0 127771 4.16772e+06 0 132132 4.16365e+06 0 -771527 4.31011e+06 0 -742602 4.3227e+06 0 -713793 4.33401e+06 0 -685182 4.34407e+06 0 -656839 4.35291e+06 0 -628833 4.36058e+06 0 -601224 4.36711e+06 0 -574069 4.37257e+06 0 -547417 4.377e+06 0 -521313 4.38047e+06 0 -495793 4.38301e+06 0 -470888 4.38471e+06 0 -446624 4.3856e+06 0 -423020 4.38576e+06 0 -400091 4.38524e+06 0 -377846 4.38409e+06 0 -356291 4.38237e+06 0 -335425 4.38012e+06 0 -315246 4.37741e+06 0 -295749 4.37427e+06 0 -276924 4.37076e+06 0 -258761 4.3669e+06 0 -241247 4.36275e+06 0 -224366 4.35834e+06 0 -208103 4.35369e+06 0 -192440 4.34885e+06 0 -177360 4.34384e+06 0 -162844 4.33868e+06 0 -148872 4.33341e+06 0 -135427 4.32803e+06 0 -122489 4.32258e+06 0 -110038 4.31707e+06 0 -98055.8 4.31151e+06 0 -86523.6 4.30593e+06 0 -75423.1 4.30033e+06 0 -64736.1 4.29472e+06 0 -54445.3 4.28912e+06 0 -44533.4 4.28354e+06 0 -34983.9 4.27798e+06 0 -25780.8 4.27245e+06 0 -16908.3 4.26696e+06 0 -8351.52 4.26151e+06 0 -95.8567 4.25611e+06 0 7872.69 4.25076e+06 0 15567.6 4.24547e+06 0 23002 4.24024e+06 0 30188.2 4.23507e+06 0 37138.4 4.22997e+06 0 43864.2 4.22494e+06 0 50376.7 4.21997e+06 0 56686.6 4.21507e+06 0 62804.3 4.21025e+06 0 68739.6 4.2055e+06 0 74502.2 4.20082e+06 0 80101.1 4.19621e+06 0 85545.3 4.19168e+06 0 90843.3 4.18722e+06 0 96003.3 4.18284e+06 0 101033 4.17853e+06 0 105941 4.17429e+06 0 110733 4.17013e+06 0 115418 4.16604e+06 0 120002 4.16202e+06 0 124491 4.15808e+06 0 -753490 4.26685e+06 0 -726520 4.27954e+06 0 -699630 4.29108e+06 0 -672888 4.30148e+06 0 -646357 4.31077e+06 0 -620097 4.31898e+06 0 -594164 4.32615e+06 0 -568606 4.33233e+06 0 -543471 4.33755e+06 0 -518797 4.34186e+06 0 -494621 4.34532e+06 0 -470971 4.34796e+06 0 -447875 4.34984e+06 0 -425351 4.35101e+06 0 -403417 4.35152e+06 0 -382083 4.35142e+06 0 -361357 4.35075e+06 0 -341244 4.34956e+06 0 -321745 4.34789e+06 0 -302857 4.34579e+06 0 -284575 4.3433e+06 0 -266893 4.34045e+06 0 -249801 4.33728e+06 0 -233289 4.33383e+06 0 -217344 4.33012e+06 0 -201954 4.32619e+06 0 -187104 4.32206e+06 0 -172779 4.31776e+06 0 -158963 4.31332e+06 0 -145641 4.30874e+06 0 -132796 4.30406e+06 0 -120412 4.29929e+06 0 -108473 4.29444e+06 0 -96961.9 4.28954e+06 0 -85863 4.28459e+06 0 -75160.2 4.27961e+06 0 -64838 4.27461e+06 0 -54881 4.2696e+06 0 -45274.2 4.26459e+06 0 -36003 4.25959e+06 0 -27053 4.2546e+06 0 -18410.5 4.24963e+06 0 -10062 4.24468e+06 0 -1994.54 4.23977e+