<?xml version="1.0"?> 
<VTKFile type="StructuredGrid" version="0.1"> 
<StructuredGrid WholeExtent="0 63 0 63 0 0"> 
<Piece Extent="0 63 0 63 0 0"> 
<PointData>
<DataArray type="Float32" Name="|E|" format="ascii" NumberOfComponents="3"> 
373512 5.48551e+06 0 460926 5.57444e+06 0 549774 5.6465e+06 0 639917 5.70664e+06 0 731228 5.75762e+06 0 823583 5.80111e+06 0 916861 5.83819e+06 0 1.01094e+06 5.86956e+06 0 1.10572e+06 5.89573e+06 0 1.20106e+06 5.9171e+06 0 1.29687e+06 5.93395e+06 0 1.39304e+06 5.9465e+06 0 1.48946e+06 5.95497e+06 0 1.58603e+06 5.9595e+06 0 1.68264e+06 5.96023e+06 0 1.7792e+06 5.95729e+06 0 1.87561e+06 5.9508e+06 0 1.97178e+06 5.94085e+06 0 2.06761e+06 5.92753e+06 0 2.16302e+06 5.91094e+06 0 2.25792e+06 5.89116e+06 0 2.35221e+06 5.86827e+06 0 2.44582e+06 5.84235e+06 0 2.53867e+06 5.81348e+06 0 2.63068e+06 5.78174e+06 0 2.72176e+06 5.7472e+06 0 2.81186e+06 5.70994e+06 0 2.90089e+06 5.67004e+06 0 2.98879e+06 5.62756e+06 0 3.07548e+06 5.58259e+06 0 3.16092e+06 5.5352e+06 0 3.24503e+06 5.48547e+06 0 3.32776e+06 5.43346e+06 0 3.40906e+06 5.37927e+06 0 3.48886e+06 5.32296e+06 0 3.56713e+06 5.26461e+06 0 3.64381e+06 5.20431e+06 0 3.71886e+06 5.14212e+06 0 3.79224e+06 5.07812e+06 0 3.8639e+06 5.01239e+06 0 3.93382e+06 4.94501e+06 0 4.00196e+06 4.87606e+06 0 4.06829e+06 4.80561e+06 0 4.13278e+06 4.73374e+06 0 4.19541e+06 4.66053e+06 0 4.25616e+06 4.58604e+06 0 4.31499e+06 4.51037e+06 0 4.37191e+06 4.43357e+06 0 4.42689e+06 4.35573e+06 0 4.47992e+06 4.27692e+06 0 4.53099e+06 4.19721e+06 0 4.5801e+06 4.11668e+06 0 4.62723e+06 4.03539e+06 0 4.67239e+06 3.95341e+06 0 4.71557e+06 3.87082e+06 0 4.75678e+06 3.78767e+06 0 4.79601e+06 3.70404e+06 0 4.83327e+06 3.61999e+06 0 4.86857e+06 3.53557e+06 0 4.90189e+06 3.45086e+06 0 4.93326e+06 3.3659e+06 0 4.96267e+06 3.28075e+06 0 4.9901e+06 3.19545e+06 0 5.01554e+06 3.11005e+06 0 671213 5.33429e+06 0 724532 5.37966e+06 0 785357 5.42269e+06 0 851382 5.46191e+06 0 921273 5.49681e+06 0 994093 5.52732e+06 0 1.06919e+06 5.55352e+06 0 1.14609e+06 5.57558e+06 0 1.22442e+06 5.59364e+06 0 1.30389e+06 5.60787e+06 0 1.38426e+06 5.61841e+06 0 1.46531e+06 5.62539e+06 0 1.54688e+06 5.62895e+06 0 1.62881e+06 5.62918e+06 0 1.71095e+06 5.6262e+06 0 1.79319e+06 5.6201e+06 0 1.87539e+06 5.61097e+06 0 1.95745e+06 5.5989e+06 0 2.03927e+06 5.58397e+06 0 2.12075e+06 5.56627e+06 0 2.20181e+06 5.54587e+06 0 2.28235e+06 5.52284e+06 0 2.36229e+06 5.49727e+06 0 2.44157e+06 5.46923e+06 0 2.52011e+06 5.43878e+06 0 2.59783e+06 5.40601e+06 0 2.67468e+06 5.37098e+06 0 2.7506e+06 5.33376e+06 0 2.82552e+06 5.29444e+06 0 2.89939e+06 5.25307e+06 0 2.97217e+06 5.20972e+06 0 3.04379e+06 5.16448e+06 0 3.11422e+06 5.1174e+06 0 3.18342e+06 5.06857e+06 0 3.25134e+06 5.01803e+06 0 3.31796e+06 4.96588e+06 0 3.38322e+06 4.91217e+06 0 3.44712e+06 4.85697e+06 0 3.5096e+06 4.80036e+06 0 3.57066e+06 4.74239e+06 0 3.63027e+06 4.68313e+06 0 3.6884e+06 4.62265e+06 0 3.74504e+06 4.56102e+06 0 3.80016e+06 4.4983e+06 0 3.85377e+06 4.43455e+06 0 3.90584e+06 4.36983e+06 0 3.95637e+06 4.30421e+06 0 4.00534e+06 4.23774e+06 0 4.05275e+06 4.17049e+06 0 4.0986e+06 4.10252e+06 0 4.14289e+06 4.03388e+06 0 4.18561e+06 3.96462e+06 0 4.22676e+06 3.89481e+06 0 4.26635e+06 3.8245e+06 0 4.30439e+06 3.75374e+06 0 4.34087e+06 3.68258e+06 0 4.3758e+06 3.61107e+06 0 4.4092e+06 3.53927e+06 0 4.44106e+06 3.46722e+06 0 4.47141e+06 3.39498e+06 0 4.50026e+06 3.32259e+06 0 4.52762e+06 3.25011e+06 0 4.55352e+06 3.17759e+06 0 4.57798e+06 3.1051e+06 0 831234 5.18956e+06 0 882172 5.21882e+06 0 936085 5.24557e+06 0 992894 5.26981e+06 0 1.05231e+06 5.29139e+06 0 1.114e+06 5.31019e+06 0 1.17763e+06 5.32611e+06 0 1.24291e+06 5.33912e+06 0 1.30955e+06 5.34921e+06 0 1.37732e+06 5.35639e+06 0 1.446e+06 5.36071e+06 0 1.51541e+06 5.3622e+06 0 1.58536e+06 5.36093e+06 0 1.65572e+06 5.35694e+06 0 1.72633e+06 5.3503e+06 0 1.79707e+06 5.34108e+06 0 1.86782e+06 5.32933e+06 0 1.93849e+06 5.31512e+06 0 2.00896e+06 5.29852e+06 0 2.07914e+06 5.27959e+06 0 2.14896e+06 5.2584e+06 0 2.21832e+06 5.23501e+06 0 2.28716e+06 5.20949e+06 0 2.35541e+06 5.1819e+06 0 2.423e+06 5.15231e+06 0 2.48987e+06 5.12078e+06 0 2.55596e+06 5.08738e+06 0 2.62122e+06 5.05217e+06 0 2.68561e+06 5.01522e+06 0 2.74907e+06 4.97659e+06 0 2.81157e+06 4.93635e+06 0 2.87307e+06 4.89455e+06 0 2.93352e+06 4.85127e+06 0 2.99291e+06 4.80656e+06 0 3.05119e+06 4.76049e+06 0 3.10834e+06 4.71312e+06 0 3.16434e+06 4.66451e+06 0 3.21916e+06 4.61472e+06 0 3.27279e+06 4.5638e+06 0 3.32521e+06 4.51182e+06 0 3.37639e+06 4.45884e+06 0 3.42634e+06 4.4049e+06 0 3.47504e+06 4.35007e+06 0 3.52247e+06 4.2944e+06 0 3.56864e+06 4.23795e+06 0 3.61354e+06 4.18076e+06 0 3.65716e+06 4.12289e+06 0 3.6995e+06 4.06438e+06 0 3.74056e+06 4.00529e+06 0 3.78035e+06 3.94567e+06 0 3.81886e+06 3.88555e+06 0 3.8561e+06 3.82499e+06 0 3.89208e+06 3.76403e+06 0 3.9268e+06 3.70271e+06 0 3.96026e+06 3.64107e+06 0 3.99248e+06 3.57916e+06 0 4.02346e+06 3.51701e+06 0 4.05322e+06 3.45466e+06 0 4.08176e+06 3.39214e+06 0 4.10909e+06 3.3295e+06 0 4.13524e+06 3.26675e+06 0 4.16021e+06 3.20394e+06 0 4.184e+06 3.14109e+06 0 4.20664e+06 3.07822e+06 0 941576 5.05431e+06 0 988109 5.07219e+06 0 1.03698e+06 5.08854e+06 0 1.08793e+06 5.10307e+06 0 1.14073e+06 5.1156e+06 0 1.19517e+06 5.12602e+06 0 1.25106e+06 5.13423e+06 0 1.30821e+06 5.1402e+06 0 1.36644e+06 5.14388e+06 0 1.42557e+06 5.14527e+06 0 1.48544e+06 5.14437e+06 0 1.54591e+06 5.1412e+06 0 1.60684e+06 5.13577e+06 0 1.6681e+06 5.12811e+06 0 1.72957e+06 5.11827e+06 0 1.79114e+06 5.10629e+06 0 1.85271e+06 5.09221e+06 0 1.91418e+06 5.07607e+06 0 1.97547e+06 5.05793e+06 0 2.03649e+06 5.03784e+06 0 2.09716e+06 5.01586e+06 0 2.15742e+06 4.99204e+06 0 2.21721e+06 4.96643e+06 0 2.27645e+06 4.93909e+06 0 2.3351e+06 4.91009e+06 0 2.39309e+06 4.87947e+06 0 2.45039e+06 4.84729e+06 0 2.50695e+06 4.81362e+06 0 2.56272e+06 4.7785e+06 0 2.61767e+06 4.74201e+06 0 2.67177e+06 4.70419e+06 0 2.72498e+06 4.6651e+06 0 2.77727e+06 4.62479e+06 0 2.82862e+06 4.58334e+06 0 2.87901e+06 4.54078e+06 0 2.92842e+06 4.49717e+06 0 2.97682e+06 4.45257e+06 0 3.02421e+06 4.40703e+06 0 3.07057e+06 4.3606e+06 0 3.11588e+06 4.31334e+06 0 3.16015e+06 4.26529e+06 0 3.20335e+06 4.21649e+06 0 3.2455e+06 4.16701e+06 0 3.28657e+06 4.11689e+06 0 3.32658e+06 4.06616e+06 0 3.36552e+06 4.01488e+06 0 3.40339e+06 3.96309e+06 0 3.44019e+06 3.91083e+06 0 3.47592e+06 3.85814e+06 0 3.5106e+06 3.80507e+06 0 3.54422e+06 3.75164e+06 0 3.5768e+06 3.6979e+06 0 3.60833e+06 3.64388e+06 0 3.63883e+06 3.58962e+06 0 3.66831e+06 3.53514e+06 0 3.69678e+06 3.48049e+06 0 3.72423e+06 3.42569e+06 0 3.7507e+06 3.37078e+06 0 3.77618e+06 3.31577e+06 0 3.8007e+06 3.26071e+06 0 3.82425e+06 3.2056e+06 0 3.84686e+06 3.15049e+06 0 3.86853e+06 3.09539e+06 0 3.88928e+06 3.04034e+06 0 1.01768e+06 4.92819e+06 0 1.06116e+06 4.93882e+06 0 1.10616e+06 4.94795e+06 0 1.15259e+06 4.95552e+06 0 1.20035e+06 4.96144e+06 0 1.24931e+06 4.96563e+06 0 1.29933e+06 4.96803e+06 0 1.35028e+06 4.9686e+06 0 1.40203e+06 4.96731e+06 0 1.45447e+06 4.96414e+06 0 1.50746e+06 4.95909e+06 0 1.56089e+06 4.95215e+06 0 1.61466e+06 4.94334e+06 0 1.66866e+06 4.93269e+06 0 1.72279e+06 4.9202e+06 0 1.77697e+06 4.90593e+06 0 1.83109e+06 4.88989e+06 0 1.8851e+06 4.87213e+06 0 1.93891e+06 4.85269e+06 0 1.99244e+06 4.83161e+06 0 2.04564e+06 4.80893e+06 0 2.09845e+06 4.78471e+06 0 2.1508e+06 4.75899e+06 0 2.20265e+06 4.73182e+06 0 2.25395e+06 4.70326e+06 0 2.30465e+06 4.67334e+06 0 2.35471e+06 4.64213e+06 0 2.4041e+06 4.60968e+06 0 2.45278e+06 4.57603e+06 0 2.50072e+06 4.54124e+06 0 2.54789e+06 4.50535e+06 0 2.59427e+06 4.46843e+06 0 2.63984e+06 4.43051e+06 0 2.68457e+06 4.39166e+06 0 2.72845e+06 4.35191e+06 0 2.77146e+06 4.31132e+06 0 2.8136e+06 4.26993e+06 0 2.85484e+06 4.22779e+06 0 2.89519e+06 4.18495e+06 0 2.93463e+06 4.14146e+06 0 2.97316e+06 4.09734e+06 0 3.01078e+06 4.05266e+06 0 3.04749e+06 4.00744e+06 0 3.08327e+06 3.96173e+06 0 3.11815e+06 3.91557e+06 0 3.15211e+06 3.869e+06 0 3.18516e+06 3.82205e+06 0 3.21731e+06 3.77476e+06 0 3.24856e+06 3.72716e+06 0 3.27892e+06 3.67929e+06 0 3.3084e+06 3.63118e+06 0 3.337e+06 3.58286e+06 0 3.36473e+06 3.53435e+06 0 3.3916e+06 3.4857e+06 0 3.41762e+06 3.43692e+06 0 3.44281e+06 3.38804e+06 0 3.46716e+06 3.33908e+06 0 3.4907e+06 3.29008e+06 0 3.51344e+06 3.24104e+06 0 3.53538e+06 3.19201e+06 0 3.55654e+06 3.14298e+06 0 3.57693e+06 3.09399e+06 0 3.59657e+06 3.04506e+06 0 3.61546e+06 2.99619e+06 0 1.0713e+06 4.81165e+06 0 1.1117e+06 4.81672e+06 0 1.15327e+06 4.82052e+06 0 1.19591e+06 4.82296e+06 0 1.23953e+06 4.82397e+06 0 1.28402e+06 4.8235e+06 0 1.3293e+06 4.8215e+06 0 1.37526e+06 4.81795e+06 0 1.4218e+06 4.81282e+06 0 1.46883e+06 4.80611e+06 0 1.51626e+06 4.7978e+06 0 1.56399e+06 4.7879e+06 0 1.61194e+06 4.77641e+06 0 1.66002e+06 4.76336e+06 0 1.70816e+06 4.74877e+06 0 1.75627e+06 4.73265e+06 0 1.80429e+06 4.71505e+06 0 1.85216e+06 4.69598e+06 0 1.8998e+06 4.67549e+06 0 1.94716e+06 4.65361e+06 0 1.99419e+06 4.63038e+06 0 2.04082e+06 4.60584e+06 0 2.08703e+06 4.58004e+06 0 2.13275e+06 4.55302e+06 0 2.17796e+06 4.52482e+06 0 2.22261e+06 4.4955e+06 0 2.26667e+06 4.46508e+06 0 2.31011e+06 4.43363e+06 0 2.3529e+06 4.40118e+06 0 2.39502e+06 4.36779e+06 0 2.43645e+06 4.3335e+06 0 2.47715e+06 4.29834e+06 0 2.51713e+06 4.26238e+06 0 2.55636e+06 4.22565e+06 0 2.59483e+06 4.1882e+06 0 2.63253e+06 4.15006e+06 0 2.66944e+06 4.11129e+06 0 2.70557e+06 4.07193e+06 0 2.74091e+06 4.032e+06 0 2.77546e+06 3.99156e+06 0 2.80921e+06 3.95064e+06 0 2.84216e+06 3.90928e+06 0 2.87432e+06 3.86752e+06 0 2.90568e+06 3.82538e+06 0 2.93625e+06 3.78291e+06 0 2.96603e+06 3.74014e+06 0 2.99503e+06 3.6971e+06 0 3.02326e+06 3.65382e+06 0 3.05072e+06 3.61033e+06 0 3.07742e+06 3.56665e+06 0 3.10337e+06 3.52282e+06 0 3.12858e+06 3.47886e+06 0 3.15305e+06 3.4348e+06 0 3.1768e+06 3.39066e+06 0 3.19984e+06 3.34646e+06 0 3.22217e+06 3.30222e+06 0 3.24382e+06 3.25797e+06 0 3.26478e+06 3.21372e+06 0 3.28508e+06 3.16949e+06 0 3.30472e+06 3.1253e+06 0 3.32371e+06 3.08117e+06 0 3.34208e+06 3.03712e+06 0 3.35982e+06 2.99315e+06 0 3.37695e+06 2.94928e+06 0 1.10817e+06 4.70395e+06 0 1.14585e+06 4.70486e+06 0 1.1844e+06 4.70458e+06 0 1.22374e+06 4.70309e+06 0 1.26381e+06 4.70033e+06 0 1.30452e+06 4.69627e+06 0 1.34581e+06 4.69087e+06 0 1.3876e+06 4.68413e+06 0 1.42979e+06 4.67602e+06 0 1.47233e+06 4.66654e+06 0 1.51514e+06 4.65568e+06 0 1.55813e+06 4.64346e+06 0 1.60124e+06 4.62987e+06 0 1.6444e+06 4.61494e+06 0 1.68755e+06 4.59868e+06 0 1.73062e+06 4.58112e+06 0 1.77356e+06 4.56228e+06 0 1.8163e+06 4.54219e+06 0 1.8588e+06 4.52088e+06 0 1.90101e+06 4.49838e+06 0 1.94288e+06 4.47474e+06 0 1.98436e+06 4.44998e+06 0 2.02542e+06 4.42415e+06 0 2.06603e+06 4.39729e+06 0 2.10614e+06 4.36943e+06 0 2.14573e+06 4.34062e+06 0 2.18477e+06 4.31089e+06 0 2.22323e+06 4.28029e+06 0 2.26109e+06 4.24887e+06 0 2.29834e+06 4.21665e+06 0 2.33495e+06 4.18369e+06 0 2.3709e+06 4.15002e+06 0 2.4062e+06 4.11568e+06 0 2.44082e+06 4.08072e+06 0 2.47475e+06 4.04517e+06 0 2.50799e+06 4.00908e+06 0 2.54053e+06 3.97247e+06 0 2.57237e+06 3.93539e+06 0 2.60351e+06 3.89787e+06 0 2.63394e+06 3.85994e+06 0 2.66367e+06 3.82165e+06 0 2.6927e+06 3.78303e+06 0 2.72102e+06 3.7441e+06 0 2.74865e+06 3.70489e+06 0 2.77559e+06 3.66545e+06 0 2.80185e+06 3.62579e+06 0 2.82742e+06 3.58594e+06 0 2.85232e+06 3.54593e+06 0 2.87656e+06 3.50579e+06 0 2.90015e+06 3.46554e+06 0 2.92309e+06 3.4252e+06 0 2.94539e+06 3.3848e+06 0 2.96707e+06 3.34436e+06 0 2.98813e+06 3.30389e+06 0 3.00859e+06 3.26341e+06 0 3.02845e+06 3.22296e+06 0 3.04773e+06 3.18253e+06 0 3.06643e+06 3.14215e+06 0 3.08458e+06 3.10183e+06 0 3.10217e+06 3.06159e+06 0 3.11923e+06 3.02144e+06 0 3.13576e+06 2.98139e+06 0 3.15178e+06 2.94146e+06 0 3.16729e+06 2.90165e+06 0 1.13257e+06 4.6045e+06 0 1.16773e+06 4.60211e+06 0 1.20355e+06 4.59865e+06 0 1.23997e+06 4.59408e+06 0 1.27694e+06 4.58838e+06 0 1.31438e+06 4.58151e+06 0 1.35224e+06 4.57346e+06 0 1.39045e+06 4.56421e+06 0 1.42895e+06 4.55377e+06 0 1.46767e+06 4.54211e+06 0 1.50655e+06 4.52926e+06 0 1.54553e+06 4.51521e+06 0 1.58456e+06 4.49997e+06 0 1.62356e+06 4.48356e+06 0 1.6625e+06 4.466e+06 0 1.70131e+06 4.44731e+06 0 1.73995e+06 4.42752e+06 0 1.77837e+06 4.40664e+06 0 1.81653e+06 4.38471e+06 0 1.85438e+06 4.36177e+06 0 1.89189e+06 4.33783e+06 0 1.92902e+06 4.31294e+06 0 1.96574e+06 4.28714e+06 0 2.00202e+06 4.26045e+06 0 2.03783e+06 4.23291e+06 0 2.07315e+06 4.20457e+06 0 2.10794e+06 4.17546e+06 0 2.1422e+06 4.14561e+06 0 2.1759e+06 4.11506e+06 0 2.20903e+06 4.08386e+06 0 2.24157e+06 4.05204e+06 0 2.27352e+06 4.01963e+06 0 2.30486e+06 3.98667e+06 0 2.33558e+06 3.95321e+06 0 2.36568e+06 3.91926e+06 0 2.39516e+06 3.88488e+06 0 2.424e+06 3.85009e+06 0 2.45222e+06 3.81492e+06 0 2.4798e+06 3.77941e+06 0 2.50675e+06 3.74359e+06 0 2.53308e+06 3.70749e+06 0 2.55878e+06 3.67114e+06 0 2.58386e+06 3.63456e+06 0 2.60832e+06 3.59779e+06 0 2.63217e+06 3.56086e+06 0 2.65543e+06 3.52377e+06 0 2.67808e+06 3.48657e+06 0 2.70015e+06 3.44927e+06 0 2.72164e+06 3.4119e+06 0 2.74256e+06 3.37448e+06 0 2.76292e+06 3.33702e+06 0 2.78273e+06 3.29955e+06 0 2.802e+06 3.26208e+06 0 2.82074e+06 3.22464e+06 0 2.83896e+06 3.18724e+06 0 2.85667e+06 3.14988e+06 0 2.87389e+06 3.1126e+06 0 2.89061e+06 3.0754e+06 0 2.90687e+06 3.0383e+06 0 2.92265e+06 3.0013e+06 0 2.93799e+06 2.96442e+06 0 2.95288e+06 2.92766e+06 0 2.96734e+06 2.89105e+06 0 2.98137e+06 2.85458e+06 0 1.14735e+06 4.51255e+06 0 1.1802e+06 4.50754e+06 0 1.21356e+06 4.50154e+06 0 1.24738e+06 4.49453e+06 0 1.28159e+06 4.48649e+06 0 1.31616e+06 4.47739e+06 0 1.35103e+06 4.46723e+06 0 1.38613e+06 4.45601e+06 0 1.42142e+06 4.44371e+06 0 1.45684e+06 4.43034e+06 0 1.49235e+06 4.41591e+06 0 1.52788e+06 4.40042e+06 0 1.56339e+06 4.38389e+06 0 1.59883e+06 4.36632e+06 0 1.63416e+06 4.34775e+06 0 1.66933e+06 4.32819e+06 0 1.7043e+06 4.30766e+06 0 1.73903e+06 4.28619e+06 0 1.77348e+06 4.2638e+06 0 1.80762e+06 4.24054e+06 0 1.84141e+06 4.21641e+06 0 1.87483e+06 4.19147e+06 0 1.90785e+06 4.16574e+06 0 1.94044e+06 4.13924e+06 0 1.97258e+06 4.11203e+06 0 2.00425e+06 4.08412e+06 0 2.03544e+06 4.05557e+06 0 2.06611e+06 4.02639e+06 0 2.09627e+06 3.99662e+06 0 2.12589e+06 3.9663e+06 0 2.15497e+06 3.93547e+06 0 2.1835e+06 3.90415e+06 0 2.21147e+06 3.87238e+06 0 2.23888e+06 3.8402e+06 0 2.26572e+06 3.80763e+06 0 2.29198e+06 3.7747e+06 0 2.31768e+06 3.74145e+06 0 2.3428e+06 3.70791e+06 0 2.36736e+06 3.6741e+06 0 2.39134e+06 3.64006e+06 0 2.41476e+06 3.6058e+06 0 2.43763e+06 3.57137e+06 0 2.45993e+06 3.53677e+06 0 2.48169e+06 3.50205e+06 0 2.50291e+06 3.46721e+06 0 2.52359e+06 3.43229e+06 0 2.54375e+06 3.3973e+06 0 2.56339e+06 3.36226e+06 0 2.58252e+06 3.3272e+06 0 2.60114e+06 3.29214e+06 0 2.61928e+06 3.25708e+06 0 2.63694e+06 3.22205e+06 0 2.65413e+06 3.18707e+06 0 2.67086e+06 3.15214e+06 0 2.68713e+06 3.11729e+06 0 2.70297e+06 3.08252e+06 0 2.71838e+06 3.04785e+06 0 2.73337e+06 3.01329e+06 0 2.74796e+06 2.97885e+06 0 2.76215e+06 2.94454e+06 0 2.77595e+06 2.91037e+06 0 2.78938e+06 2.87635e+06 0 2.80244e+06 2.84248e+06 0 2.81515e+06 2.80878e+06 0 1.15462e+06 4.42745e+06 0 1.18535e+06 4.42031e+06 0 1.21648e+06 4.41226e+06 0 1.24795e+06 4.40328e+06 0 1.27971e+06 4.39335e+06 0 1.31172e+06 4.38247e+06 0 1.34394e+06 4.37062e+06 0 1.37631e+06 4.35781e+06 0 1.40879e+06 4.34404e+06 0 1.44133e+06 4.3293e+06 0 1.47389e+06 4.31362e+06 0 1.50643e+06 4.29699e+06 0 1.53889e+06 4.27943e+06 0 1.57124e+06 4.26096e+06 0 1.60345e+06 4.2416e+06 0 1.63547e+06 4.22137e+06 0 1.66727e+06 4.20028e+06 0 1.69881e+06 4.17837e+06 0 1.73006e+06 4.15566e+06 0 1.761e+06 4.13218e+06 0 1.79159e+06 4.10795e+06 0 1.82182e+06 4.08301e+06 0 1.85165e+06 4.05739e+06 0 1.88107e+06 4.03111e+06 0 1.91006e+06 4.00421e+06 0 1.9386e+06 3.97672e+06 0 1.96667e+06 3.94867e+06 0 1.99427e+06 3.9201e+06 0 2.02139e+06 3.89103e+06 0 2.048e+06 3.8615e+06 0 2.07411e+06 3.83154e+06 0 2.0997e+06 3.80117e+06 0 2.12478e+06 3.77044e+06 0 2.14934e+06 3.73936e+06 0 2.17338e+06 3.70798e+06 0 2.1969e+06 3.67631e+06 0 2.21989e+06 3.64438e+06 0 2.24236e+06 3.61223e+06 0 2.26432e+06 3.57988e+06 0 2.28575e+06 3.54735e+06 0 2.30668e+06 3.51467e+06 0 2.32711e+06 3.48187e+06 0 2.34703e+06 3.44895e+06 0 2.36646e+06 3.41596e+06 0 2.38541e+06 3.3829e+06 0 2.40388e+06 3.34981e+06 0 2.42188e+06 3.31669e+06 0 2.43942e+06 3.28357e+06 0 2.45651e+06 3.25046e+06 0 2.47316e+06 3.21738e+06 0 2.48937e+06 3.18434e+06 0 2.50516e+06 3.15137e+06 0 2.52054e+06 3.11847e+06 0 2.53552e+06 3.08565e+06 0 2.5501e+06 3.05294e+06 0 2.5643e+06 3.02034e+06 0 2.57813e+06 2.98786e+06 0 2.5916e+06 2.95551e+06 0 2.60472e+06 2.9233e+06 0 2.61749e+06 2.89124e+06 0 2.62994e+06 2.85933e+06 0 2.64206e+06 2.8276e+06 0 2.65387e+06 2.79603e+06 0 2.66538e+06 2.76464e+06 0 1.15594e+06 4.34855e+06 0 1.18474e+06 4.33967e+06 0 1.21383e+06 4.32995e+06 0 1.24317e+06 4.31936e+06 0 1.27273e+06 4.3079e+06 0 1.30245e+06 4.29556e+06 0 1.33231e+06 4.28235e+06 0 1.36226e+06 4.26826e+06 0 1.39225e+06 4.2533e+06 0 1.42225e+06 4.23747e+06 0 1.45222e+06 4.22078e+06 0 1.48212e+06 4.20325e+06 0 1.51192e+06 4.18489e+06 0 1.54157e+06 4.16571e+06 0 1.57105e+06 4.14573e+06 0 1.60031e+06 4.12498e+06 0 1.62935e+06 4.10348e+06 0 1.65811e+06 4.08125e+06 0 1.68658e+06 4.05831e+06 0 1.71474e+06 4.0347e+06 0 1.74255e+06 4.01043e+06 0 1.77e+06 3.98554e+06 0 1.79707e+06 3.96006e+06 0 1.82374e+06 3.93401e+06 0 1.85e+06 3.90742e+06 0 1.87583e+06 3.88032e+06 0 1.90121e+06 3.85275e+06 0 1.92615e+06 3.82473e+06 0 1.95063e+06 3.79629e+06 0 1.97464e+06 3.76746e+06 0 1.99817e+06 3.73827e+06 0 2.02123e+06 3.70875e+06 0 2.04382e+06 3.67892e+06 0 2.06592e+06 3.64882e+06 0 2.08753e+06 3.61847e+06 0 2.10867e+06 3.58789e+06 0 2.12932e+06 3.55712e+06 0 2.1495e+06 3.52617e+06 0 2.16921e+06 3.49507e+06 0 2.18845e+06 3.46385e+06 0 2.20722e+06 3.43252e+06 0 2.22553e+06 3.40112e+06 0 2.2434e+06 3.36965e+06 0 2.26081e+06 3.33814e+06 0 2.27779e+06 3.3066e+06 0 2.29435e+06 3.27507e+06 0 2.31048e+06 3.24354e+06 0 2.3262e+06 3.21204e+06 0 2.34151e+06 3.18059e+06 0 2.35644e+06 3.1492e+06 0 2.37097e+06 3.11788e+06 0 2.38514e+06 3.08665e+06 0 2.39894e+06 3.05552e+06 0 2.41238e+06 3.02449e+06 0 2.42548e+06 2.99359e+06 0 2.43825e+06 2.96282e+06 0 2.45069e+06 2.93219e+06 0 2.46281e+06 2.90171e+06 0 2.47463e+06 2.87138e+06 0 2.48615e+06 2.84122e+06 0 2.49739e+06 2.81123e+06 0 2.50835e+06 2.78141e+06 0 2.51904e+06 2.75178e+06 0 2.52948e+06 2.72233e+06 0 1.15252e+06 4.27528e+06 0 1.17954e+06 4.26496e+06 0 1.20677e+06 4.25385e+06 0 1.23418e+06 4.24194e+06 0 1.26174e+06 4.22922e+06 0 1.28941e+06 4.2157e+06 0 1.31715e+06 4.20137e+06 0 1.34493e+06 4.18624e+06 0 1.3727e+06 4.17032e+06 0 1.40045e+06 4.15361e+06 0 1.42812e+06 4.13612e+06 0 1.45569e+06 4.11786e+06 0 1.48312e+06 4.09886e+06 0 1.51039e+06 4.07913e+06 0 1.53747e+06 4.05868e+06 0 1.56432e+06 4.03754e+06 0 1.59092e+06 4.01573e+06 0 1.61725e+06 3.99327e+06 0 1.64328e+06 3.97018e+06 0 1.669e+06 3.9465e+06 0 1.69438e+06 3.92224e+06 0 1.7194e+06 3.89744e+06 0 1.74405e+06 3.87211e+06 0 1.76832e+06 3.84629e+06 0 1.79219e+06 3.82001e+06 0 1.81565e+06 3.79329e+06 0 1.83869e+06 3.76616e+06 0 1.86131e+06 3.73864e+06 0 1.88349e+06 3.71077e+06 0 1.90523e+06 3.68257e+06 0 1.92653e+06 3.65408e+06 0 1.94738e+06 3.6253e+06 0 1.96779e+06 3.59628e+06 0 1.98774e+06 3.56704e+06 0 2.00725e+06 3.53759e+06 0 2.02632e+06 3.50798e+06 0 2.04494e+06 3.47821e+06 0 2.06313e+06 3.44831e+06 0 2.08088e+06 3.41831e+06 0 2.0982e+06 3.38822e+06 0 2.11509e+06 3.35807e+06 0 2.13157e+06 3.32787e+06 0 2.14763e+06 3.29764e+06 0 2.1633e+06 3.26741e+06 0 2.17856e+06 3.23719e+06 0 2.19344e+06 3.20699e+06 0 2.20794e+06 3.17684e+06 0 2.22207e+06 3.14674e+06 0 2.23584e+06 3.11671e+06 0 2.24926e+06 3.08676e+06 0 2.26233e+06 3.05691e+06 0 2.27507e+06 3.02717e+06 0 2.28748e+06 2.99755e+06 0 2.29958e+06 2.96805e+06 0 2.31137e+06 2.93869e+06 0 2.32287e+06 2.90948e+06 0 2.33408e+06 2.88042e+06 0 2.34502e+06 2.85153e+06 0 2.35569e+06 2.82281e+06 0 2.3661e+06 2.79426e+06 0 2.37626e+06 2.76589e+06 0 2.38618e+06 2.73771e+06 0 2.39587e+06 2.70972e+06 0 2.40534e+06 2.68193e+06 0 1.14529e+06 4.2071e+06 0 1.17066e+06 4.19558e+06 0 1.19619e+06 4.18332e+06 0 1.22184e+06 4.17031e+06 0 1.24759e+06 4.15656e+06 0 1.27339e+06 4.14206e+06 0 1.29923e+06 4.12682e+06 0 1.32505e+06 4.11084e+06 0 1.35084e+06 4.09413e+06 0 1.37656e+06 4.0767e+06 0 1.40218e+06 4.05857e+06 0 1.42767e+06 4.03974e+06 0 1.45301e+06 4.02023e+06 0 1.47816e+06 4.00006e+06 0 1.5031e+06 3.97924e+06 0 1.52781e+06 3.95781e+06 0 1.55227e+06 3.93577e+06 0 1.57644e+06 3.91315e+06 0 1.60032e+06 3.88998e+06 0 1.62389e+06 3.86628e+06 0 1.64712e+06 3.84206e+06 0 1.67001e+06 3.81737e+06 0 1.69253e+06 3.79222e+06 0 1.71469e+06 3.76663e+06 0 1.73646e+06 3.74064e+06 0 1.75784e+06 3.71428e+06 0 1.77882e+06 3.68756e+06 0 1.7994e+06 3.66051e+06 0 1.81956e+06 3.63316e+06 0 1.83931e+06 3.60554e+06 0 1.85865e+06 3.57766e+06 0 1.87756e+06 3.54956e+06 0 1.89606e+06 3.52125e+06 0 1.91414e+06 3.49277e+06 0 1.93181e+06 3.46413e+06 0 1.94906e+06 3.43536e+06 0 1.9659e+06 3.40647e+06 0 1.98234e+06 3.3775e+06 0 1.99838e+06 3.34845e+06 0 2.01402e+06 3.31935e+06 0 2.02927e+06 3.29022e+06 0 2.04414e+06 3.26108e+06 0 2.05863e+06 3.23194e+06 0 2.07275e+06 3.20282e+06 0 2.08652e+06 3.17374e+06 0 2.09993e+06 3.1447e+06 0 2.113e+06 3.11573e+06 0 2.12573e+06 3.08684e+06 0 2.13814e+06 3.05804e+06 0 2.15023e+06 3.02934e+06 0 2.16201e+06 3.00075e+06 0 2.17349e+06 2.97229e+06 0 2.18468e+06 2.94396e+06 0 2.19559e+06 2.91578e+06 0 2.20623e+06 2.88775e+06 0 2.21661e+06 2.85987e+06 0 2.22674e+06 2.83217e+06 0 2.23662e+06 2.80463e+06 0 2.24626e+06 2.77728e+06 0 2.25568e+06 2.75011e+06 0 2.26488e+06 2.72313e+06 0 2.27388e+06 2.69635e+06 0 2.28267e+06 2.66976e+06 0 2.29127e+06 2.64338e+06 0 1.13496e+06 4.14357e+06 0 1.15881e+06 4.13103e+06 0 1.18278e+06 4.11781e+06 0 1.20682e+06 4.10388e+06 0 1.23092e+06 4.08926e+06 0 1.25503e+06 4.07395e+06 0 1.27914e+06 4.05795e+06 0 1.3032e+06 4.04127e+06 0 1.3272e+06 4.02392e+06 0 1.3511e+06 4.00591e+06 0 1.37488e+06 3.98725e+06 0 1.39851e+06 3.96796e+06 0 1.42196e+06 3.94805e+06 0 1.44522e+06 3.92754e+06 0 1.46826e+06 3.90644e+06 0 1.49106e+06 3.88479e+06 0 1.5136e+06 3.86259e+06 0 1.53586e+06 3.83987e+06 0 1.55783e+06 3.81665e+06 0 1.57948e+06 3.79296e+06 0 1.60081e+06 3.76882e+06 0 1.6218e+06 3.74425e+06 0 1.64245e+06 3.71928e+06 0 1.66273e+06 3.69393e+06 0 1.68265e+06 3.66823e+06 0 1.70219e+06 3.6422e+06 0 1.72135e+06 3.61586e+06 0 1.74012e+06 3.58924e+06 0 1.75851e+06 3.56237e+06 0 1.7765e+06 3.53526e+06 0 1.79411e+06 3.50795e+06 0 1.81131e+06 3.48045e+06 0 1.82813e+06 3.45279e+06 0 1.84456e+06 3.42498e+06 0 1.8606e+06 3.39706e+06 0 1.87625e+06 3.36904e+06 0 1.89153e+06 3.34093e+06 0 1.90642e+06 3.31277e+06 0 1.92095e+06 3.28457e+06 0 1.93511e+06 3.25634e+06 0 1.94891e+06 3.22811e+06 0 1.96236e+06 3.19989e+06 0 1.97547e+06 3.1717e+06 0 1.98824e+06 3.14355e+06 0 2.00067e+06 3.11546e+06 0 2.01279e+06 3.08743e+06 0 2.0246e+06 3.05949e+06 0 2.0361e+06 3.03165e+06 0 2.0473e+06 3.00391e+06 0 2.05822e+06 2.9763e+06 0 2.06886e+06 2.94881e+06 0 2.07923e+06 2.92145e+06 0 2.08934e+06 2.89425e+06 0 2.09919e+06 2.8672e+06 0 2.10881e+06 2.84031e+06 0 2.11819e+06 2.81359e+06 0 2.12735e+06 2.78705e+06 0 2.13629e+06 2.76069e+06 0 2.14502e+06 2.73452e+06 0 2.15355e+06 2.70854e+06 0 2.16189e+06 2.68275e+06 0 2.17005e+06 2.65717e+06 0 2.17803e+06 2.63179e+06 0 2.18585e+06 2.60661e+06 0 1.12212e+06 4.08424e+06 0 1.14457e+06 4.07085e+06 0 1.1671e+06 4.05681e+06 0 1.18967e+06 4.04212e+06 0 1.21225e+06 4.02677e+06 0 1.23482e+06 4.01078e+06 0 1.25735e+06 3.99415e+06 0 1.27981e+06 3.9769e+06 0 1.30219e+06 3.95902e+06 0 1.32444e+06 3.94053e+06 0 1.34656e+06 3.92144e+06 0 1.36851e+06 3.90178e+06 0 1.39027e+06 3.88155e+06 0 1.41183e+06 3.86077e+06 0 1.43317e+06 3.83946e+06 0 1.45425e+06 3.81764e+06 0 1.47508e+06 3.79533e+06 0 1.49563e+06 3.77255e+06 0 1.51588e+06 3.74933e+06 0 1.53583e+06 3.72568e+06 0 1.55546e+06 3.70163e+06 0 1.57477e+06 3.6772e+06 0 1.59373e+06 3.65241e+06 0 1.61235e+06 3.62729e+06 0 1.63061e+06 3.60186e+06 0 1.64852e+06 3.57614e+06 0 1.66606e+06 3.55016e+06 0 1.68323e+06 3.52394e+06 0 1.70004e+06 3.4975e+06 0 1.71648e+06 3.47087e+06 0 1.73254e+06 3.44406e+06 0 1.74824e+06 3.41711e+06 0 1.76356e+06 3.39002e+06 0 1.77852e+06 3.36282e+06 0 1.79312e+06 3.33554e+06 0 1.80736e+06 3.30818e+06 0 1.82124e+06 3.28077e+06 0 1.83477e+06 3.25333e+06 0 1.84796e+06 3.22588e+06 0 1.86081e+06 3.19842e+06 0 1.87333e+06 3.17098e+06 0 1.88552e+06 3.14358e+06 0 1.8974e+06 3.11622e+06 0 1.90897e+06 3.08892e+06 0 1.92023e+06 3.06169e+06 0 1.9312e+06 3.03456e+06 0 1.94188e+06 3.00752e+06 0 1.95229e+06 2.98059e+06 0 1.96242e+06 2.95379e+06 0 1.9723e+06 2.92711e+06 0 1.98192e+06 2.90058e+06 0 1.9913e+06 2.87419e+06 0 2.00045e+06 2.84796e+06 0 2.00937e+06 2.82189e+06 0 2.01807e+06 2.796e+06 0 2.02656e+06 2.77028e+06 0 2.03485e+06 2.74475e+06 0 2.04295e+06 2.71941e+06 0 2.05086e+06 2.69425e+06 0 2.0586e+06 2.6693e+06 0 2.06617e+06 2.64455e+06 0 2.07357e+06 2.62e+06 0 2.08083e+06 2.59566e+06 0 2.08793e+06 2.57153e+06 0 1.10722e+06 4.02875e+06 0 1.12838e+06 4.01464e+06 0 1.14958e+06 3.9999e+06 0 1.17079e+06 3.98456e+06 0 1.19199e+06 3.9686e+06 0 1.21314e+06 3.95204e+06 0 1.23423e+06 3.93489e+06 0 1.25524e+06 3.91714e+06 0 1.27613e+06 3.89883e+06 0 1.2969e+06 3.87995e+06 0 1.3175e+06 3.86051e+06 0 1.33794e+06 3.84055e+06 0 1.35817e+06 3.82006e+06 0 1.3782e+06 3.79908e+06 0 1.39799e+06 3.77761e+06 0 1.41753e+06 3.75567e+06 0 1.43682e+06 3.73329e+06 0 1.45582e+06 3.71048e+06 0 1.47454e+06 3.68728e+06 0 1.49296e+06 3.66368e+06 0 1.51107e+06 3.63973e+06 0 1.52886e+06 3.61544e+06 0 1.54632e+06 3.59084e+06 0 1.56344e+06 3.56594e+06 0 1.58023e+06 3.54077e+06 0 1.59667e+06 3.51534e+06 0 1.61277e+06 3.4897e+06 0 1.62852e+06 3.46384e+06 0 1.64391e+06 3.4378e+06 0 1.65896e+06 3.4116e+06 0 1.67365e+06 3.38526e+06 0 1.688e+06 3.35879e+06 0 1.70199e+06 3.33223e+06 0 1.71565e+06 3.30557e+06 0 1.72896e+06 3.27886e+06 0 1.74194e+06 3.2521e+06 0 1.75458e+06 3.22531e+06 0 1.7669e+06 3.19851e+06 0 1.77889e+06 3.17172e+06 0 1.79058e+06 3.14495e+06 0 1.80195e+06 3.11821e+06 0 1.81303e+06 3.09152e+06 0 1.82381e+06 3.0649e+06 0 1.8343e+06 3.03835e+06 0 1.84452e+06 3.01189e+06 0 1.85446e+06 2.98553e+06 0 1.86415e+06 2.95929e+06 0 1.87358e+06 2.93316e+06 0 1.88276e+06 2.90717e+06 0 1.8917e+06 2.88132e+06 0 1.90042e+06 2.85562e+06 0 1.90892e+06 2.83008e+06 0 1.9172e+06 2.8047e+06 0 1.92528e+06 2.7795e+06 0 1.93316e+06 2.75447e+06 0 1.94085e+06 2.72963e+06 0 1.94837e+06 2.70497e+06 0 1.95571e+06 2.68051e+06 0 1.96289e+06 2.65625e+06 0 1.96991e+06 2.63219e+06 0 1.97678e+06 2.60833e+06 0 1.9835e+06 2.58468e+06 0 1.9901e+06 2.56125e+06 0 1.99656e+06 2.53802e+06 0 1.09064e+06 3.97677e+06 0 1.11061e+06 3.96202e+06 0 1.13058e+06 3.9467e+06 0 1.15053e+06 3.9308e+06 0 1.17045e+06 3.91432e+06 0 1.19031e+06 3.89728e+06 0 1.21008e+06 3.87968e+06 0 1.22975e+06 3.86154e+06 0 1.2493e+06 3.84286e+06 0 1.2687e+06 3.82365e+06 0 1.28793e+06 3.80394e+06 0 1.30698e+06 3.78373e+06 0 1.32583e+06 3.76304e+06 0 1.34446e+06 3.74189e+06 0 1.36286e+06 3.7203e+06 0 1.38101e+06 3.69828e+06 0 1.3989e+06 3.67586e+06 0 1.41651e+06 3.65305e+06 0 1.43384e+06 3.62987e+06 0 1.45088e+06 3.60635e+06 0 1.46762e+06 3.58251e+06 0 1.48404e+06 3.55836e+06 0 1.50015e+06 3.53394e+06 0 1.51593e+06 3.50925e+06 0 1.53139e+06 3.48432e+06 0 1.54652e+06 3.45918e+06 0 1.56132e+06 3.43384e+06 0 1.57578e+06 3.40832e+06 0 1.58991e+06 3.38265e+06 0 1.60371e+06 3.35684e+06 0 1.61718e+06 3.33091e+06 0 1.63031e+06 3.30489e+06 0 1.64312e+06 3.27879e+06 0 1.6556e+06 3.25263e+06 0 1.66776e+06 3.22643e+06 0 1.67961e+06 3.20021e+06 0 1.69114e+06 3.17397e+06 0 1.70237e+06 3.14774e+06 0 1.7133e+06 3.12154e+06 0 1.72394e+06 3.09537e+06 0 1.73429e+06 3.06926e+06 0 1.74436e+06 3.04321e+06 0 1.75416e+06 3.01724e+06 0 1.7637e+06 2.99135e+06 0 1.77298e+06 2.96557e+06 0 1.78201e+06 2.9399e+06 0 1.79079e+06 2.91435e+06 0 1.79935e+06 2.88894e+06 0 1.80768e+06 2.86367e+06 0 1.81579e+06 2.83854e+06 0 1.82369e+06 2.81357e+06 0 1.83139e+06 2.78877e+06 0 1.8389e+06 2.76414e+06 0 1.84622e+06 2.73969e+06 0 1.85337e+06 2.71542e+06 0 1.86034e+06 2.69134e+06 0 1.86716e+06 2.66745e+06 0 1.87382e+06 2.64376e+06 0 1.88033e+06 2.62027e+06 0 1.8867e+06 2.59699e+06 0 1.89294e+06 2.57392e+06 0 1.89905e+06 2.55105e+06 0 1.90504e+06 2.5284e+06 0 1.91093e+06 2.50597e+06 0 1.07269e+06 3.92798e+06 0 1.09153e+06 3.9127e+06 0 1.11037e+06 3.89687e+06 0 1.12916e+06 3.88049e+06 0 1.1479e+06 3.86357e+06 0 1.16656e+06 3.84612e+06 0 1.18513e+06 3.82815e+06 0 1.20357e+06 3.80966e+06 0 1.22188e+06 3.79068e+06 0 1.24003e+06 3.7712e+06 0 1.25801e+06 3.75125e+06 0 1.2758e+06 3.73085e+06 0 1.29338e+06 3.71e+06 0 1.31074e+06 3.68872e+06 0 1.32787e+06 3.66704e+06 0 1.34475e+06 3.64497e+06 0 1.36138e+06 3.62252e+06 0 1.37773e+06 3.59973e+06 0 1.3938e+06 3.5766e+06 0 1.40959e+06 3.55316e+06 0 1.42508e+06 3.52943e+06 0 1.44027e+06 3.50542e+06 0 1.45516e+06 3.48117e+06 0 1.46973e+06 3.45668e+06 0 1.48399e+06 3.43198e+06 0 1.49794e+06 3.4071e+06 0 1.51156e+06 3.38204e+06 0 1.52487e+06 3.35683e+06 0 1.53786e+06 3.33149e+06 0 1.55053e+06 3.30604e+06 0 1.56289e+06 3.2805e+06 0 1.57494e+06 3.25488e+06 0 1.58667e+06 3.22921e+06 0 1.5981e+06 3.20349e+06 0 1.60923e+06 3.17775e+06 0 1.62006e+06 3.152e+06 0 1.63059e+06 3.12626e+06 0 1.64085e+06 3.10055e+06 0 1.65082e+06 3.07487e+06 0 1.66052e+06 3.04925e+06 0 1.66995e+06 3.02368e+06 0 1.67912e+06 2.9982e+06 0 1.68804e+06 2.97281e+06 0 1.69671e+06 2.94751e+06 0 1.70514e+06 2.92233e+06 0 1.71335e+06 2.89727e+06 0 1.72133e+06 2.87234e+06 0 1.7291e+06 2.84755e+06 0 1.73665e+06 2.82291e+06 0 1.74401e+06 2.79842e+06 0 1.75118e+06 2.7741e+06 0 1.75817e+06 2.74995e+06 0 1.76498e+06 2.72598e+06 0 1.77162e+06 2.70219e+06 0 1.7781e+06 2.67858e+06 0 1.78442e+06 2.65517e+06 0 1.7906e+06 2.63196e+06 0 1.79664e+06 2.60894e+06 0 1.80255e+06 2.58614e+06 0 1.80833e+06 2.56354e+06 0 1.814e+06 2.54114e+06 0 1.81955e+06 2.51897e+06 0 1.825e+06 2.497e+06 0 1.83035e+06 2.47526e+06 0 1.0536e+06 3.88213e+06 0 1.07141e+06 3.86638e+06 0 1.08918e+06 3.85011e+06 0 1.1069e+06 3.83332e+06 0 1.12455e+06 3.81602e+06 0 1.14211e+06 3.79822e+06 0 1.15956e+06 3.77993e