<?xml version="1.0"?> 
<VTKFile type="StructuredGrid" version="0.1"> 
<StructuredGrid WholeExtent="0 63 0 63 0 0"> 
<Piece Extent="0 63 0 63 0 0"> 
<PointData>
<DataArray type="Float32" Name="|E|" format="ascii" NumberOfComponents="3"> 
5.00663e+06 3.11783e+06 0 4.57568e+06 2.87997e+06 0 4.21332e+06 2.69365e+06 0 3.90638e+06 2.54488e+06 0 3.64221e+06 2.42352e+06 0 3.41264e+06 2.3223e+06 0 3.21101e+06 2.23633e+06 0 3.0323e+06 2.16202e+06 0 2.87258e+06 2.09682e+06 0 2.72874e+06 2.0388e+06 0 2.59832e+06 1.98653e+06 0 2.47934e+06 1.93894e+06 0 2.37016e+06 1.89517e+06 0 2.26949e+06 1.85458e+06 0 2.17622e+06 1.81664e+06 0 2.08945e+06 1.78094e+06 0 2.00842e+06 1.74716e+06 0 1.93248e+06 1.71501e+06 0 1.86109e+06 1.68427e+06 0 1.79379e+06 1.65477e+06 0 1.73016e+06 1.62634e+06 0 1.66987e+06 1.59887e+06 0 1.61262e+06 1.57224e+06 0 1.55814e+06 1.54636e+06 0 1.50621e+06 1.52116e+06 0 1.45661e+06 1.49656e+06 0 1.40917e+06 1.47251e+06 0 1.36374e+06 1.44896e+06 0 1.32017e+06 1.42587e+06 0 1.27834e+06 1.40319e+06 0 1.23813e+06 1.38091e+06 0 1.19944e+06 1.35899e+06 0 1.16218e+06 1.3374e+06 0 1.12627e+06 1.31612e+06 0 1.09163e+06 1.29514e+06 0 1.05819e+06 1.27444e+06 0 1.02589e+06 1.25401e+06 0 994675 1.23382e+06 0 964490 1.21387e+06 0 935287 1.19415e+06 0 907022 1.17466e+06 0 879653 1.15537e+06 0 853143 1.13629e+06 0 827455 1.11741e+06 0 802556 1.09873e+06 0 778415 1.08023e+06 0 755004 1.06192e+06 0 732296 1.04378e+06 0 710264 1.02583e+06 0 688884 1.00804e+06 0 668134 990432 0 647992 972987 0 628438 955708 0 609453 938592 0 591016 921636 0 573112 904839 0 555724 888199 0 538834 871715 0 522427 855383 0 506490 839204 0 491007 823174 0 475964 807293 0 461349 791560 0 447150 775969 0 4.5725e+06 3.10989e+06 0 4.21953e+06 2.88647e+06 0 3.9186e+06 2.70843e+06 0 3.65817e+06 2.56413e+06 0 3.43066e+06 2.44466e+06 0 3.23017e+06 2.34394e+06 0 3.05196e+06 2.25763e+06 0 2.89235e+06 2.18253e+06 0 2.74836e+06 2.11628e+06 0 2.61765e+06 2.0571e+06 0 2.49827e+06 2.00365e+06 0 2.38866e+06 1.95489e+06 0 2.28752e+06 1.91e+06 0 2.19378e+06 1.86835e+06 0 2.10654e+06 1.82941e+06 0 2.02505e+06 1.79279e+06 0 1.94868e+06 1.75815e+06 0 1.87687e+06 1.7252e+06 0 1.80916e+06 1.69374e+06 0 1.74515e+06 1.66356e+06 0 1.6845e+06 1.63451e+06 0 1.62691e+06 1.60647e+06 0 1.5721e+06 1.57931e+06 0 1.51985e+06 1.55294e+06 0 1.46996e+06 1.52729e+06 0 1.42224e+06 1.50228e+06 0 1.37654e+06 1.47785e+06 0 1.33272e+06 1.45395e+06 0 1.29064e+06 1.43053e+06 0 1.25019e+06 1.40756e+06 0 1.21127e+06 1.385e+06 0 1.1738e+06 1.36283e+06 0 1.13768e+06 1.34101e+06 0 1.10283e+06 1.31952e+06 0 1.0692e+06 1.29834e+06 0 1.03671e+06 1.27746e+06 0 1.00531e+06 1.25686e+06 0 974943 1.23652e+06 0 945565 1.21643e+06 0 917129 1.19659e+06 0 889593 1.17698e+06 0 862919 1.15759e+06 0 837070 1.13841e+06 0 812014 1.11945e+06 0 787719 1.10068e+06 0 764156 1.08212e+06 0 741298 1.06374e+06 0 719118 1.04555e+06 0 697593 1.02755e+06 0 676699 1.00973e+06 0 656416 992077 0 636722 974603 0 617598 957299 0 599025 940163 0 580986 923192 0 563463 906384 0 546441 889737 0 529904 873250 0 513837 856919 0 498226 840743 0 483057 824720 0 468317 808849 0 453993 793128 0 440072 777554 0 4.20284e+06 3.08154e+06 0 3.912e+06 2.87567e+06 0 3.65925e+06 2.70829e+06 0 3.43665e+06 2.57046e+06 0 3.23946e+06 2.45479e+06 0 3.06343e+06 2.35622e+06 0 2.90523e+06 2.27096e+06 0 2.76215e+06 2.19623e+06 0 2.63196e+06 2.12991e+06 0 2.51286e+06 2.0704e+06 0 2.40336e+06 2.01645e+06 0 2.30221e+06 1.9671e+06 0 2.20837e+06 1.92157e+06 0 2.12099e+06 1.87927e+06 0 2.03931e+06 1.83969e+06 0 1.96273e+06 1.80244e+06 0 1.89069e+06 1.76718e+06 0 1.82275e+06 1.73367e+06 0 1.75851e+06 1.70165e+06 0 1.69763e+06 1.67096e+06 0 1.6398e+06 1.64144e+06 0 1.58477e+06 1.61294e+06 0 1.5323e+06 1.58536e+06 0 1.48219e+06 1.55861e+06 0 1.43426e+06 1.53259e+06 0 1.38836e+06 1.50724e+06 0 1.34433e+06 1.4825e+06 0 1.30206e+06 1.4583e+06 0 1.26143e+06 1.43462e+06 0 1.22233e+06 1.4114e+06 0 1.18468e+06 1.38861e+06 0 1.14838e+06 1.36622e+06 0 1.11337e+06 1.3442e+06 0 1.07957e+06 1.32253e+06 0 1.04692e+06 1.30118e+06 0 1.01537e+06 1.28015e+06 0 984851 1.2594e+06 0 955323 1.23893e+06 0 926740 1.21873e+06 0 899059 1.19877e+06 0 872242 1.17906e+06 0 846254 1.15958e+06 0 821059 1.14033e+06 0 796627 1.12129e+06 0 772929 1.10246e+06 0 749937 1.08384e+06 0 727626 1.06541e+06 0 705970 1.04718e+06 0 684948 1.02914e+06 0 664536 1.01128e+06 0 644716 993603 0 625466 976106 0 606768 958784 0 588606 941635 0 570961 924655 0 553817 907842 0 537160 891194 0 520973 874708 0 505244 858383 0 489957 842216 0 475101 826204 0 460661 810347 0 446627 794642 0 432985 779088 0 3.88654e+06 3.04273e+06 0 3.64421e+06 2.85398e+06 0 3.42977e+06 2.698e+06 0 3.23807e+06 2.56764e+06 0 3.06602e+06 2.45684e+06 0 2.91063e+06 2.3614e+06 0 2.76955e+06 2.2781e+06 0 2.64079e+06 2.20453e+06 0 2.52271e+06 2.13883e+06 0 2.41391e+06 2.07957e+06 0 2.31324e+06 2.02564e+06 0 2.21973e+06 1.97613e+06 0 2.13254e+06 1.93035e+06 0 2.05098e+06 1.88772e+06 0 1.97443e+06 1.84777e+06 0 1.90239e+06 1.81013e+06 0 1.83441e+06 1.77448e+06 0 1.7701e+06 1.74057e+06 0 1.70912e+06 1.70817e+06 0 1.65118e+06 1.67711e+06 0 1.59603e+06 1.64723e+06 0 1.54344e+06 1.61839e+06 0 1.4932e+06 1.59048e+06 0 1.44515e+06 1.56342e+06 0 1.39911e+06 1.53711e+06 0 1.35495e+06 1.51149e+06 0 1.31255e+06 1.48649e+06 0 1.27178e+06 1.46206e+06 0 1.23255e+06 1.43815e+06 0 1.19476e+06 1.41473e+06 0 1.15834e+06 1.39174e+06 0 1.1232e+06 1.36917e+06 0 1.08927e+06 1.34699e+06 0 1.0565e+06 1.32516e+06 0 1.02482e+06 1.30368e+06 0 994175 1.28251e+06 0 964524 1.26164e+06 0 935818 1.24107e+06 0 908017 1.22076e+06 0 881080 1.20071e+06 0 854972 1.18092e+06 0 829659 1.16137e+06 0 805110 1.14204e+06 0 781296 1.12294e+06 0 758188 1.10406e+06 0 735761 1.08539e+06 0 713991 1.06693e+06 0 692854 1.04866e+06 0 672330 1.03059e+06 0 652396 1.0127e+06 0 633034 995010 0 614225 977498 0 595951 960165 0 578195 943009 0 560942 926026 0 544175 909214 0 527880 892570 0 512042 876092 0 496648 859776 0 481684 843622 0 467139 827626 0 452999 811788 0 439253 796103 0 425888 780571 0 3.61344e+06 2.99795e+06 0 3.4092e+06 2.82557e+06 0 3.22554e+06 2.68097e+06 0 3.05918e+06 2.55838e+06 0 2.90807e+06 2.45294e+06 0 2.77015e+06 2.36118e+06 0 2.64377e+06 2.28038e+06 0 2.52746e+06 2.20849e+06 0 2.42001e+06 2.1439e+06 0 2.32035e+06 2.08533e+06 0 2.2276e+06 2.03178e+06 0 2.14099e+06 1.98246e+06 0 2.05985e+06 1.93671e+06 0 1.98361e+06 1.89401e+06 0 1.9118e+06 1.85392e+06 0 1.84397e+06 1.81609e+06 0 1.77976e+06 1.78022e+06 0 1.71885e+06 1.74607e+06 0 1.66095e+06 1.71342e+06 0 1.6058e+06 1.6821e+06 0 1.55319e+06 1.65196e+06 0 1.50292e+06 1.62288e+06 0 1.45482e+06 1.59473e+06 0 1.40872e+06 1.56744e+06 0 1.3645e+06 1.54091e+06 0 1.32202e+06 1.51507e+06 0 1.28118e+06 1.48987e+06 0 1.24187e+06 1.46525e+06 0 1.204e+06 1.44116e+06 0 1.16749e+06 1.41757e+06 0 1.13226e+06 1.39443e+06 0 1.09825e+06 1.37171e+06 0 1.06538e+06 1.34939e+06 0 1.03361e+06 1.32744e+06 0 1.00287e+06 1.30584e+06 0 973128 1.28456e+06 0 944328 1.2636e+06 0 916431 1.24293e+06 0 889398 1.22254e+06 0 863194 1.20242e+06 0 837785 1.18256e+06 0 813139 1.16294e+06 0 789227 1.14356e+06 0 766022 1.12442e+06 0 743497 1.10549e+06 0 721629 1.08679e+06 0 700395 1.06829e+06 0 679772 1.05e+06 0 659740 1.0319e+06 0 640280 1.01401e+06 0 621372 996299 0 603000 978779 0 585147 961443 0 567795 944286 0 550930 927306 0 534537 910501 0 518602 893866 0 503111 877400 0 488050 861099 0 473408 844963 0 459172 828987 0 445330 813170 0 431870 797510 0 418782 782004 0 3.37542e+06 2.95062e+06 0 3.20138e+06 2.79332e+06 0 3.04266e+06 2.65953e+06 0 2.89719e+06 2.54461e+06 0 2.76362e+06 2.44467e+06 0 2.64056e+06 2.35685e+06 0 2.52683e+06 2.27888e+06 0 2.42137e+06 2.209e+06 0 2.32328e+06 2.14582e+06 0 2.23176e+06 2.08823e+06 0 2.14611e+06 2.03536e+06 0 2.06573e+06 1.98646e+06 0 1.9901e+06 1.94097e+06 0 1.91876e+06 1.8984e+06 0 1.8513e+06 1.85836e+06 0 1.78739e+06 1.8205e+06 0 1.7267e+06 1.78455e+06 0 1.66897e+06 1.75029e+06 0 1.61396e+06 1.7175e+06 0 1.56144e+06 1.68603e+06 0 1.51124e+06 1.65573e+06 0 1.46319e+06 1.62648e+06 0 1.41712e+06 1.59817e+06 0 1.37291e+06 1.5707e+06 0 1.33043e+06 1.54401e+06 0 1.28957e+06 1.51802e+06 0 1.25024e+06 1.49266e+06 0 1.21234e+06 1.4679e+06 0 1.17579e+06 1.44367e+06 0 1.14052e+06 1.41994e+06 0 1.10645e+06 1.39668e+06 0 1.07353e+06 1.37385e+06 0 1.0417e+06 1.35142e+06 0 1.01091e+06 1.32937e+06 0 981097 1.30767e+06 0 952231 1.28631e+06 0 924266 1.26526e+06 0 897163 1.24452e+06 0 870886 1.22407e+06 0 845403 1.20389e+06 0 820682 1.18397e+06 0 796693 1.16431e+06 0 773410 1.14489e+06 0 750807 1.12571e+06 0 728859 1.10676e+06 0 707543 1.08802e+06 0 686838 1.0695e+06 0 666724 1.0512e+06 0 647180 1.03309e+06 0 628189 1.01518e+06 0 609732 997473 0 591794 979952 0 574357 962618 0 557406 945467 0 540927 928496 0 524906 911702 0 509328 895082 0 494181 878633 0 479452 862352 0 465129 846237 0 451201 830286 0 437655 814495 0 424481 798863 0 411668 783387 0 3.16609e+06 2.9027e+06 0 3.01625e+06 2.75907e+06 0 2.8779e+06 2.63531e+06 0 2.74976e+06 2.52774e+06 0 2.63098e+06 2.43323e+06 0 2.5206e+06 2.34941e+06 0 2.41781e+06 2.27441e+06 0 2.32184e+06 2.20672e+06 0 2.23201e+06 2.14516e+06 0 2.14773e+06 2.08877e+06 0 2.06846e+06 2.03676e+06 0 1.99373e+06 1.98848e+06 0 1.92312e+06 1.94343e+06 0 1.85626e+06 1.90115e+06 0 1.79284e+06 1.86128e+06 0 1.73255e+06 1.82352e+06 0 1.67515e+06 1.78762e+06 0 1.62041e+06 1.75335e+06 0 1.56811e+06 1.72052e+06 0 1.51809e+06 1.68899e+06 0 1.47018e+06 1.6586e+06 0 1.42422e+06 1.62926e+06 0 1.3801e+06 1.60084e+06 0 1.33769e+06 1.57327e+06 0 1.29689e+06 1.54647e+06 0 1.25759e+06 1.52036e+06 0 1.21971e+06 1.4949e+06 0 1.18318e+06 1.47003e+06 0 1.14791e+06 1.4457e+06 0 1.11384e+06 1.42188e+06 0 1.0809e+06 1.39852e+06 0 1.04905e+06 1.3756e+06 0 1.01823e+06 1.35308e+06 0 988391 1.33096e+06 0 959490 1.30919e+06 0 931485 1.28776e+06 0 904339 1.26666e+06 0 878016 1.24586e+06 0 852483 1.22536e+06 0 827709 1.20513e+06 0 803665 1.18518e+06 0 780325 1.16548e+06 0 757662 1.14603e+06 0 735652 1.12683e+06 0 714274 1.10785e+06 0 693504 1.0891e+06 0 673323 1.07057e+06 0 653712 1.05226e+06 0 634652 1.03415e+06 0 616125 1.01624e+06 0 598115 998530 0 580606 981016 0 563582 963691 0 547029 946552 0 530933 929596 0 515280 912819 0 500058 896219 0 485253 879792 0 470854 863535 0 456848 847447 0 443226 831523 0 429974 815763 0 417085 800162 0 404545 784720 0 2.98041e+06 2.85542e+06 0 2.85014e+06 2.72401e+06 0 2.72856e+06 2.60945e+06 0 2.61491e+06 2.50878e+06 0 2.50866e+06 2.41948e+06 0 2.40917e+06 2.33961e+06 0 2.31587e+06 2.26761e+06 0 2.22822e+06 2.20222e+06 0 2.14571e+06 2.1424e+06 0 2.0679e+06 2.08733e+06 0 1.99437e+06 2.03631e+06 0 1.92476e+06 1.98879e+06 0 1.85874e+06 1.9443e+06 0 1.79601e+06 1.90243e+06 0 1.7363e+06 1.86287e+06 0 1.67939e+06 1.82532e+06 0 1.62505e+06 1.78955e+06 0 1.57311e+06 1.75536e+06 0 1.52338e+06 1.72258e+06 0 1.47571e+06 1.69105e+06 0 1.42996e+06 1.66065e+06 0 1.38601e+06 1.63127e+06 0 1.34375e+06 1.60281e+06 0 1.30307e+06 1.57518e+06 0 1.26387e+06 1.54831e+06 0 1.22607e+06 1.52214e+06 0 1.1896e+06 1.49661e+06 0 1.15438e+06 1.47167e+06 0 1.12035e+06 1.44727e+06 0 1.08745e+06 1.42338e+06 0 1.05562e+06 1.39996e+06 0 1.02481e+06 1.37698e+06 0 994972 1.3544e+06 0 966067 1.33222e+06 0 938053 1.3104e+06 0 910892 1.28893e+06 0 884549 1.26778e+06 0 858992 1.24694e+06 0 834189 1.22641e+06 0 810114 1.20615e+06 0 786737 1.18617e+06 0 764036 1.16646e+06 0 741984 1.14699e+06 0 720561 1.12777e+06 0 699744 1.10878e+06 0 679514 1.09003e+06 0 659851 1.0715e+06 0 640737 1.05318e+06 0 622155 1.03507e+06 0 604089 1.01717e+06 0 586521 999474 0 569438 981972 0 552824 964662 0 536665 947542 0 520949 930606 0 505663 913852 0 490793 897276 0 476327 880876 0 462256 864649 0 448566 848591 0 435247 832700 0 422289 816973 0 409682 801408 0 397415 786003 0 2.81436e+06 2.80947e+06 0 2.70007e+06 2.68894e+06 0 2.59242e+06 2.58272e+06 0 2.49097e+06 2.48844e+06 0 2.3954e+06 2.40408e+06 0 2.3053e+06 2.32804e+06 0 2.22027e+06 2.259e+06 0 2.13994e+06 2.19591e+06 0 2.06394e+06 2.13789e+06 0 1.99192e+06 2.08422e+06 0 1.92358e+06 2.03431e+06 0 1.85862e+06 1.98764e+06 0 1.79679e+06 1.9438e+06 0 1.73786e+06 1.90244e+06 0 1.6816e+06 1.86326e+06 0 1.62782e+06 1.826e+06 0 1.57635e+06 1.79045e+06 0 1.52702e+06 1.75642e+06 0 1.47971e+06 1.72375e+06 0 1.43426e+06 1.69229e+06 0 1.39058e+06 1.66194e+06 0 1.34854e+06 1.63257e+06 0 1.30805e+06 1.60411e+06 0 1.26902e+06 1.57647e+06 0 1.23136e+06 1.54959e+06 0 1.19501e+06 1.52339e+06 0 1.1599e+06 1.49782e+06 0 1.12596e+06 1.47284e+06 0 1.09313e+06 1.44841e+06 0 1.06136e+06 1.42448e+06 0 1.0306e+06 1.40102e+06 0 1.0008e+06 1.37799e+06 0 971925 1.35539e+06 0 943933 1.33317e+06 0 916787 1.31132e+06 0 890453 1.28981e+06 0 864898 1.26864e+06 0 840092 1.24778e+06 0 816008 1.22723e+06 0 792619 1.20696e+06 0 769899 1.18696e+06 0 747827 1.16724e+06 0 726378 1.14776e+06 0 705533 1.12854e+06 0 685271 1.10956e+06 0 665574 1.0908e+06 0 646423 1.07228e+06 0 627802 1.05397e+06 0 609693 1.03587e+06 0 592081 1.01799e+06 0 574952 1.00031e+06 0 558290 982822 0 542083 965534 0 526316 948437 0 510977 931527 0 496053 914801 0 481533 898256 0 467405 881887 0 453659 865693 0 440283 849670 0 427266 833815 0 414600 818127 0 402274 802601 0 390278 787236 0 2.66472e+06 2.76521e+06 0 2.56363e+06 2.65434e+06 0 2.46764e+06 2.55565e+06 0 2.37652e+06 2.46726e+06 0 2.29011e+06 2.38752e+06 0 2.20815e+06 2.31512e+06 0 2.13038e+06 2.24897e+06 0 2.05652e+06 2.18816e+06 0 1.98631e+06 2.13196e+06 0 1.91949e+06 2.07973e+06 0 1.85584e+06 2.03096e+06 0 1.79512e+06 1.98521e+06 0 1.73713e+06 1.9421e+06 0 1.68169e+06 1.90132e+06 0 1.62862e+06 1.86259e+06 0 1.57776e+06 1.82569e+06 0 1.52896e+06 1.79042e+06 0 1.48211e+06 1.75661e+06 0 1.43707e+06 1.7241e+06 0 1.39373e+06 1.69277e+06 0 1.352e+06 1.66251e+06 0 1.31177e+06 1.63321e+06 0 1.27298e+06 1.6048e+06 0 1.23553e+06 1.57719e+06 0 1.19936e+06 1.55032e+06 0 1.16441e+06 1.52413e+06 0 1.1306e+06 1.49856e+06 0 1.09789e+06 1.47357e+06 0 1.06622e+06 1.44913e+06 0 1.03555e+06 1.42518e+06 0 1.00583e+06 1.40171e+06 0 977027 1.37867e+06 0 949091 1.35605e+06 0 921991 1.33381e+06 0 895694 1.31195e+06 0 870169 1.29043e+06 0 845386 1.26925e+06 0 821318 1.24838e+06 0 797940 1.22782e+06 0 775225 1.20755e+06 0 753152 1.18755e+06 0 731699 1.16783e+06 0 710845 1.14836e+06 0 690571 1.12914e+06 0 670857 1.11017e+06 0 651686 1.09143e+06 0 633041 1.07291e+06 0 614906 1.05462e+06 0 597265 1.03655e+06 0 580105 1.01868e+06 0 563409 1.00102e+06 0 547165 983567 0 531360 966307 0 515981 949239 0 501016 932361 0 486453 915668 0 472280 899157 0 458487 882825 0 445064 866668 0 431999 850684 0 419284 834870 0 406907 819223 0 394861 803740 0 383134 788419 0 2.52891e+06 2.72283e+06 0 2.43881e+06 2.6205e+06 0 2.35266e+06 2.5286e+06 0 2.27037e+06 2.4456e+06 0 2.19186e+06 2.37017e+06 0 2.117e+06 2.30121e+06 0 2.0456e+06 2.23783e+06 0 1.97748e+06 2.17925e+06 0 1.91245e+06 2.12485e+06 0 1.85033e+06 2.07408e+06 0 1.79092e+06 2.02648e+06 0 1.73407e+06 1.98168e+06 0 1.67961e+06 1.93935e+06 0 1.62739e+06 1.89919e+06 0 1.57728e+06 1.86098e+06 0 1.52914e+06 1.82449e+06 0 1.48285e+06 1.78955e+06 0 1.43831e+06 1.756e+06 0 1.39542e+06 1.72371e+06 0 1.35407e+06 1.69255e+06 0 1.3142e+06 1.66243e+06 0 1.27571e+06 1.63324e+06 0 1.23853e+06 1.60491e+06 0 1.2026e+06 1.57736e+06 0 1.16786e+06 1.55054e+06 0 1.13424e+06 1.52438e+06 0 1.1017e+06 1.49885e+06 0 1.07018e+06 1.47388e+06 0 1.03964e+06 1.44945e+06 0 1.01004e+06 1.42551e+06 0 981335 1.40204e+06 0 953489 1.37901e+06 0 926468 1.35639e+06 0 900240 1.33416e+06 0 874773 1.3123e+06 0 850041 1.29079e+06 0 826015 1.26961e+06 0 802671 1.24875e+06 0 779985 1.2282e+06 0 757935 1.20793e+06 0 736498 1.18795e+06 0 715655 1.16823e+06 0 695387 1.14878e+06 0 675675 1.12958e+06 0 656501 1.11062e+06 0 637850 1.0919e+06 0 619705 1.07341e+06 0 602051 1.05515e+06 0 584874 1.0371e+06 0 568159 1.01926e+06 0 551893 1.00163e+06 0 536063 984208 0 520657 966981 0 505662 949949 0 491068 933107 0 476862 916452 0 463035 899981 0 449574 883689 0 436472 867575 0 423716 851634 0 411299 835864 0 399211 820263 0 387443 804826 0 375984 789552 0 2.40486e+06 2.68235e+06 0 2.32399e+06 2.5876e+06 0 2.2462e+06 2.50181e+06 0 2.1715e+06 2.42374e+06 0 2.09986e+06 2.35229e+06 0 2.03121e+06 2.28657e+06 0 1.96545e+06 2.22582e+06 0 1.90244e+06 2.1694e+06 0 1.84206e+06 2.11676e+06 0 1.78416e+06 2.06743e+06 0 1.72862e+06 2.02103e+06 0 1.67531e+06 1.9772e+06 0 1.62409e+06 1.93567e+06 0 1.57485e+06 1.89618e+06 0 1.52748e+06 1.85851e+06 0 1.48188e+06 1.82248e+06 0 1.43794e+06 1.78791e+06 0 1.39558e+06 1.75468e+06 0 1.35472e+06 1.72264e+06 0 1.31526e+06 1.69169e+06 0 1.27715e+06 1.66173e+06 0 1.24031e+06 1.63269e+06 0 1.20469e+06 1.60447e+06 0 1.17021e+06 1.57702e+06 0 1.13684e+06 1.55028e+06 0 1.10451e+06 1.52419e+06 0 1.07319e+06 1.4987e+06 0 1.04283e+06 1.47378e+06 0 1.01338e+06 1.44939e+06 0 984816 1.42548e+06 0 957095 1.40204e+06 0 930186 1.37903e+06 0 904057 1.35643e+06 0 878680 1.33422e+06 0 854026 1.31238e+06 0 830069 1.29089e+06 0 806786 1.26973e+06 0 784152 1.24889e+06 0 762147 1.22835e+06 0 740748 1.20811e+06 0 719938 1.18815e+06 0 699696 1.16846e+06 0 680004 1.14903e+06 0 660847 1.12986e+06 0 642207 1.11093e+06 0 624069 1.09224e+06 0 606418 1.07378e+06 0 589239 1.05554e+06 0 572520 1.03753e+06 0 556246 1.01972e+06 0 540405 1.00213e+06 0 524985 984745 0 509974 967558 0 495361 950566 0 481134 933766 0 467283 917154 0 453797 900727 0 440667 884481 0 427883 868413 0 415435 852520 0 403314 836798 0 391512 821246 0 380020 805859 0 368829 790636 0 2.29084e+06 2.64375e+06 0 2.21781e+06 2.55573e+06 0 2.14719e+06 2.47544e+06 0 2.07905e+06 2.40185e+06 0 2.0134e+06 2.33409e+06 0 1.95023e+06 2.2714e+06 0 1.88946e+06 2.21315e+06 0 1.83102e+06 2.15879e+06 0 1.77483e+06 2.10786e+06 0 1.72077e+06 2.05995e+06 0 1.66875e+06 2.01473e+06 0 1.61867e+06 1.9719e+06 0 1.57045e+06 1.93119e+06 0 1.52397e+06 1.89239e+06 0 1.47916e+06 1.85529e+06 0 1.43592e+06 1.81974e+06 0 1.39419e+06 1.78558e+06 0 1.35388e+06 1.75268e+06 0 1.31493e+06 1.72093e+06 0 1.27727e+06 1.69022e+06 0 1.24084e+06 1.66047e+06 0 1.20557e+06 1.63159e+06 0 1.17143e+06 1.60352e+06 0 1.13835e+06 1.5762e+06 0 1.10629e+06 1.54956e+06 0 1.07521e+06 1.52356e+06 0 1.04507e+06 1.49815e+06 0 1.01582e+06 1.47329e+06 0 987434 1.44896e+06 0 959875 1.42511e+06 0 933112 1.40171e+06 0 907116 1.37874e+06 0 881858 1.35618e+06 0 857311 1.33401e+06 0 833451 1.3122e+06 0 810254 1.29074e+06 0 787698 1.26962e+06 0 765762 1.24881e+06 0 744424 1.2283e+06 0 723667 1.20809e+06 0 703472 1.18816e+06 0 683821 1.16851e+06 0 664699 1.14911e+06 0 646088 1.12997e+06 0 627974 1.11108e+06 0 610343 1.09242e+06 0 593179 1.074e+06 0 576471 1.05581e+06 0 560204 1.03783e+06 0 544366 1.02007e+06 0 528946 1.00252e+06 0 513932 985181 0 499312 968038 0 485077 951092 0 471214 934339 0 457714 917776 0 444568 901397 0 431766 885201 0 419298 869184 0 407155 853342 0 395329 837672 0 383812 822173 0 372594 806839 0 361668 791670 0 2.18548e+06 2.60694e+06 0 2.11914e+06 2.52491e+06 0 2.05471e+06 2.44957e+06 0 1.99228e+06 2.38007e+06 0 1.9319e+06 2.31571e+06 0 1.87357e+06 2.25585e+06 0 1.81726e+06 2.19995e+06 0 1.76292e+06 2.14757e+06 0 1.7105e+06 2.09829e+06 0 1.65993e+06 2.05177e+06 0 1.61113e+06 2.00771e+06 0 1.56403e+06 1.96586e+06 0 1.51856e+06 1.92598e+06 0 1.47465e+06 1.88789e+06 0 1.43222e+06 1.85139e+06 0 1.3912e+06 1.81634e+06 0 1.35154e+06 1.78261e+06 0 1.31317e+06 1.75008e+06 0 1.27603e+06 1.71864e+06 0 1.24007e+06 1.6882e+06 0 1.20523e+06 1.65868e+06 0 1.17147e+06 1.63e+06 0 1.13874e+06 1.6021e+06 0 1.10701e+06 1.57492e+06 0 1.07621e+06 1.54841e+06 0 1.04633e+06 1.52252e+06 0 1.01732e+06 1.49721e+06 0 989157 1.47244e+06 0 961797 1.44818e+06 0 935216 1.4244e+06 0 909385 1.40106e+06 0 884278 1.37816e+06 0 859868 1.35565e+06 0 836133 1.33353e+06 0 813050 1.31177e+06 0 790597 1.29035e+06 0 768754 1.26927e+06 0 747500 1.24851e+06 0 726819 1.22805e+06 0 706692 1.20788e+06 0 687102 1.18799e+06 0 668034 1.16838e+06 0 649471 1.14903e+06 0 631399 1.12993e+06 0 613804 1.11108e+06 0 596673 1.09247e+06 0 579991 1.0741e+06 0 563746 1.05595e+06 0 547927 1.03802e+06 0 532521 1.02031e+06 0 517518 1.00281e+06 0 502905 985514 0 488673 968422 0 474811 951528 0 461309 934827 0 448158 918316 0 435349 901991 0 422871 885849 0 410717 869887 0 398878 854100 0 387344 838487 0 376110 823043 0 365165 807767 0 354503 792654 0 2.08761e+06 2.57182e+06 0 2.02704e+06 2.49514e+06 0 1.96799e+06 2.42425e+06 0 1.91057e+06 2.3585e+06 0 1.85483e+06 2.29726e+06 0 1.80081e+06 2.24003e+06 0 1.74848e+06 2.18636e+06 0 1.69784e+06 2.13585e+06 0 1.64885e+06 2.08815e+06 0 1.60145e+06 2.04298e+06 0 1.5556e+06 2.00007e+06 0 1.51125e+06 1.95919e+06 0 1.46833e+06 1.92015e+06 0 1.4268e+06 1.88276e+06 0 1.38659e+06 1.84687e+06 0 1.34765e+06 1.81234e+06 0 1.30994e+06 1.77906e+06 0 1.27339e+06 1.74692e+06 0 1.23797e+06 1.71581e+06 0 1.20362e+06 1.68566e+06 0 1.17031e+06 1.65639e+06 0 1.13798e+06 1.62793e+06 0 1.10662e+06 1.60022e+06 0 1.07616e+06 1.57321e+06 0 1.04659e+06 1.54684e+06 0 1.01786e+06 1.52109e+06 0 989954 1.49589e+06 0 962831 1.47123e+06 0 936468 1.44706e+06 0 910836 1.42337e+06 0 885911 1.40011e+06 0 861670 1.37728e+06 0 838088 1.35484e+06 0 815146 1.33278e+06 0 792822 1.31109e+06 0 771097 1.28973e+06 0 749952 1.2687e+06 0 729369 1.24799e+06 0 709332 1.22759e+06 0 689824 1.20747e+06 0 670830 1.18764e+06 0 652334 1.16808e+06 0 634323 1.14878e+06 0 616782 1.12973e+06 0 599699 1.11094e+06 0 583060 1.09238e+06 0 566854 1.07406e+06 0 551068 1.05596e+06 0 535691 1.03809e+06 0 520712 1.02043e+06 0 506120 1.00299e+06 0 491905 985748 0 478056 968712 0 464565 951874 0 451421 935230 0 438616 918777 0 426140 902510 0 413985 886426 0 402142 870522 0 390603 854795 0 379361 839241 0 368407 823858 0 357734 808641 0 347333 793590 0 1.99627e+06 2.53828e+06 0 1.94071e+06 2.46637e+06 0 1.88638e+06 2.39952e+06 0 1.83337e+06 2.33717e+06 0 1.78175e+06 2.27883e+06 0 1.73157e+06 2.22405e+06 0 1.68284e+06 2.17246e+06 0 1.63554e+06 2.12373e+06 0 1.58966e+06 2.07755e+06 0 1.54516e+06 2.03368e+06 0 1.50203e+06 1.99188e+06 0 1.4602e+06 1.95196e+06 0 1.41965e+06 1.91374e+06 0 1.38033e+06 1.87706e+06 0 1.3422e+06 1.84179e+06 0 1.30522e+06 1.8078e+06 0 1.26934e+06 1.77498e+06 0 1.23452e+06 1.74323e+06 0 1.20072e+06 1.71248e+06 0 1.16791e+06 1.68264e+06 0 1.13604e+06 1.65364e+06 0 1.1051e+06 1.62541e+06 0 1.07503e+06 1.59791e+06 0 1.04581e+06 1.57109e+06 0 1.01741e+06 1.54489e+06 0 989797 1.51928e+06 0 962949 1.49422e+06 0 936839 1.46968e+06 0 911441 1.44563e+06 0 886731 1.42203e+06 0 862688 1.39887e+06 0 839290 1.37613e+06 0 816517 1.35377e+06 0 794348 1.33179e+06 0 772767 1.31016e+06 0 751754 1.28888e+06 0 731293 1.26792e+06 0 711368 1.24728e+06 0 691963 1.22693e+06 0 673063 1.20688e+06 0 654654 1.18711e+06 0 636722 1.16761e+06 0 619254 1.14837e+06 0 602237 1.12939e+06 0 585658 1.11065e+06 0 569506 1.09215e+06 0 553769 1.07389e+06 0 538435 1.05585e+06 0 523495 1.03804e+06 0 508938 1.02044e+06 0 494754 1.00306e+06 0 480932 985882 0 467463 968907 0 454339 952131 0 441550 935549 0 429087 919158 0 416942 902953 0 405106 886932 0 393572 871091 0 382332 855427 0 371378 839936 0 360703 824616 0 350300 809463 0 340160 794476 0 1.91067e+06 2.5062e+06 0 1.85949e+06 2.43857e+06 0 1.80931e+06 2.37538e+06 0 1.76021e+06 2.31614e+06 0 1.71227e+06 2.26046e+06 0 1.66554e+06 2.20797e+06 0 1.62004e+06 2.15834e+06 0 1.57577e+06 2.11128e+06 0 1.53273e+06 2.06656e+06 0 1.4909e+06 2.02393e+06 0 1.45026e+06 1.98322e+06 0 1.41078e+06 1.94424e+06 0 1.37243e+06 1.90683e+06 0 1.33518e+06 1.87086e+06 0 1.299e+06 1.8362e+06 0 1.26384e+06 1.80275e+06 0 1.22969e+06 1.7704e+06 0 1.1965e+06 1.73907e+06 0 1.16425e+06 1.70869e+06 0 1.1329e+06 1.67916e+06 0 1.10242e+06 1.65045e+06 0 1.07279e+06 1.62248e+06 0 1.04396e+06 1.59521e+06 0 1.01593e+06 1.56858e+06 0 988660 1.54257e+06 0 962126 1.51712e+06 0 936305 1.49221e+06 0 911174 1.46781e+06 0 886713 1.44388e+06 0 862899 1.4204e+06 0 839714 1.39735e+06 0 817137 1.3747e+06 0 795152 1.35244e+06 0 773739 1.33055e+06 0 752884 1.30901e+06 0 732568 1.28781e+06 0 712778 1.26693e+06 0 693498 1.24636e+06 0 674713 1.22609e+06 0 656411 1.20611e+06 0 638578 1.18641e+06 0 621200 1.16697e+06 0 604267 1.14781e+06 0 587765 1.12889e+06 0 571683 1.11022e+06 0 556011 1.09179e+06 0 540737 1.07359e+06 0 525851 1.05562e+06 0 511343 1.03788e+06 0 497202 1.02035e+06 0 483420 1.00303e+06 0 469988 985918 0 456895 969010 0 444134 952300 0 431696 935784 0 419572 919460 0 407755 903322 0 396237 887368 0 385009 871594 0 374066 855996 0 363398 840572 0 353000 825319 0 342864 810233 0 332983 795312 0 1.83012e+06 2.47546e+06 0 1.78281e+06 2.41169e+06 0 1.73629e+06 2.35181e+06 0 1.69068e+06 2.29543e+06 0 1.64604e+06 2.2422e+06 0 1.60242e+06 2.19183e+06 0 1.55985e+06 2.14404e+06 0 1.51835e+06 2.09857e+06 0 1.47791e+06 2.05523e+06 0 1.43853e+06 2.01381e+06 0 1.40019e+06 1.97414e+06 0 1.36288e+06 1.93607e+06 0 1.32658e+06 1.89946e+06 0 1.29127e+06 1.86419e+06 0 1.25691e+06 1.83015e+06 0 1.22348e+06 1.79724e+06 0 1.19096e+06 1.76538e+06 0 1.15932e+06 1.73447e+06 0 1.12853e+06 1.70446e+06 0 1.09857e+06 1.67527e+06 0 1.06941e+06 1.64685e+06 0 1.04104e+06 1.61915e+06 0 1.01341e+06 1.59212e+06 0 986520 1.56571e+06 0 960337 1.53989e+06 0 934841 1.51463e+06 0 910013 1.48988e+06 0 885832 1.46563e+06 0 862279 1.44183e+06 0 839336 1.41848e+06 0 816985 1.39555e+06 0 795210 1.37302e+06 0 773993 1.35086e+06 0 753319 1.32907e+06 0 733173 1.30763e+06 0 713540 1.28651e+06 0 694406 1.26572e+06 0 675758 1.24524e+06 0 657583 1.22505e+06 0 639868 1.20516e+06 0 622600 1.18553e+06 0 605768 1.16618e+06 0 589361 1.14709e+06 0 573367 1.12825e+06 0 557775 1.10965e+06 0 542576 1.09129e+06 0 527759 1.07317e+06 0 513315 1.05528e+06 0 499233 1.0376e+06 0 485504 1.02014e+06 0 472121 1.0029e+06 0 459073 985857 0 446352 969020 0 433951 952381 0 421860 935937 0 410073 919683 0 398581 903617 0 387377 887733 0 376454 872030 0 365804 856503 0 355421 841150 0 345298 825967 0 335428 810951 0 325804 796100 0 1.75405e+06 2.44596e+06 0 1.71016e+06 2.38566e+06 0 1.66692e+06 2.32879e+06 0 1.62443e+06 2.27503e+06 0 1.58276e+06 2.22408e+06 0 1.54196e+06 2.17568e+06 0 1.50206e+06 2.12961e+06 0 1.46308e+06 2.08565e+06 0 1.42503e+06 2.04362e+06 0 1.3879e+06 2.00335e+06 0 1.3517e+06 1.9647e+06 0 1.31642e+06 1.92752e+06 0 1.28203e+06 1.89169e+06 0 1.24852e+06 1.85711e+06 0 1.21588e+06 1.82368e+06 0 1.18408e+06 1.79132e+06 0 1.1531e+06 1.75993e+06 0 1.12293e+06 1.72945e+06 0 1.09353e+06 1.69982e+06 0 1.0649e+06 1.67098e+06 0 1.03701e+06 1.64287e+06 0 1.00983e+06 1.61545e+06 0 983358 1.58867e+06 0 957563 1.56249e+06 0 932429 1.53688e+06 0 907936 1.51181e+06 0 884068 1.48724e+06 0 860807 1.46314e+06 0 838136 1.4395e+06 0 816039 1.41629e+06 0 794500 1.39349e+06 0 773505 1.37108e+06 0 753038 1.34904e+06 0 733085 1.32736e+06 0 713633 1.30602e+06 0 694668 1.28501e+06 0 676178 1.26432e+06 0 658150 1.24393e+06 0 640573 1.22384e+06 0 623434 1.20403e+06 0 606722 1.18449e+06 0 590427 1.16522e+06 0 574537 1.14622e+06 0 559043 1.12746e+06 0 543935 1.10894e+06 0 529203 1.09067e+06 0 514836 1.07262e+06 0 500827 1.05481e+06 0 487167 1.03721e+06 0 473846 1.01983e+06 0 460856 1.00266e+06 0 448188 985699 0 435836 968939 0 423790 952376 0 412044 936007 0 400590 919829 0 389420 903838 0 378528 888029 0 367906 872400 0 357548 856948 0 347447 841668 0 337596 826559 0 327990 811617 0 318622 796839 0 1.68198e+06 2.41758e+06 0 1.64114e+06 2.36043e+06 0 1.60084e+06 2.30631e+06 0 1.56116e+06 2.25495e+06 0 1.52217e+06 2.2061e+06 0 1.48393e+06 2.15954e+06 0 1.44647e+06 2.11509e+06 0 1.4098e+06 2.07255e+06 0 1.37395e+06 2.03177e+06 0 1.33891e+06 1.99261e+06 0 1.3047e+06 1.95493e+06 0 1.27129e+06 1.91861e+06 0 1.23869e+06 1.88355e+06 0 1.20688e+06 1.84965e+06 0 1.17585e+06 1.81683e+06 0 1.14559e+06 1.785e+06 0 1.11607e+06 1.7541e+06 0 1.08729e+06 1.72405e+06 0 1.05923e+06 1.69481e+06 0 1.03186e+06 1.66632e+06 0 1.00518e+06 1.63853e+06 0 979157 1.6114e+06 0 953787 1.58488e+06 0 929048 1.55894e+06 0 904925 1.53355e+06 0 881402 1.50868e+06 0 858463 1.48429e+06 0 836094 1.46037e+06 0 814279 1.43689e+06 0 793004 1.41383e+06 0 772256 1.39117e+06 0 752021 1.3689e+06 0 732286 1.34699e+06 0 713037 1.32543e+06 0 694264 1.30421e+06 0 675953 1.28331e+06 0 658093 1.26272e+06 0 640673 1.24244e+06 0 623682 1.22244e+06 0 607109 1.20273e+06 0 590944 1.18329e+06 0 575177 1.16411e+06 0 559797 1.1452e+06 0 544796 1.12653e+06 0 530163 1.1081e+06 0 515891 1.08991e+06 0 501969 1.07196e+06 0 488391 1.05422e+06 0 475146 1.03671e+06 0 462227 1.01941e+06 0 449626 1.00233e+06 0 437335 985446 0 425346 968767 0 413653 952285 0 402248 935996 0 391123 919898 0 380272 903985 0 369689 888256 0 359366 872705 0 349297 857330 0 339476 842128 0 329897 827096 0 320553 812231 0 311439 797529 0 1.61348e+06 2.39023e+06 0 1.57538e+06 2.33594e+06 0 1.53772e+06 2.28433e+06 0 1.50058e+06 2.23518e+06 0 1.46404e+06 2.18827e+06 0 1.42814e+06 2.14344e+06 0 1.3929e+06 2.1005e+06 0 1.35837e+06 2.05931e+06 0 1.32455e+06 2.01972e+06 0 1.29145e+06 1.98161e+06 0 1.25908e+06 1.94487e+06 0 1.22743e+06 1.90939e+06 0 1.1965e+06 1.87507e+06 0 1.16629e+06 1.84184e+06 0 1.13679e+06 1.80961e+06 0 1.10798e+06 1.77832e+06 0 1.07985e+06 1.7479e+06 0 1.05239e+06 1.71829e+06 0 1.02559e+06 1.68945e+06 0 999432 1.66131e+06 0 973905 1.63385e+06 0 948994 1.60701e+06 0 924685 1.58076e+06 0 900964 1.55507e+06 0 877817 1.52991e+06 0 855231 1.50525e+06 0 833192 1.48106e+06 0 811687 1.45732e+06 0 790704 1.43402e+06 0 770229 1.41112e+06 0 750250 1.38861e+06 0 730756 1.36648e+06 0 711735 1.34471e+06 0 693175 1.32328e+06 0 675065 1.30218e+06 0 657394 1.2814e+06 0 640152 1.26093e+06 0 623328 1.24076e+06 0 606913 1.22087e+06 0 590896 1.20126e+06 0 575267 1.18192e+06 0 560019 1.16285e+06 0 545141 1.14403e+06 0 530624 1.12546e+06 0 516461 1.10713e+06 0 502642 1.08903e+06 0 489159 1.07117e+06 0 476004 1.05352e+06 0 463170 1.0361e+06 0 450648 1.01889e+06 0 438432 1.00189e+06 0 426513 985099 0 414885 968505 0 403540 952108 0 392472 935905 0 381674 919890 0 371139 904061 0 360862 888413 0 350835 872945 0 341053 857651 0 331510 842530 0 322199 827579 0 313116 812793 0 304254 798170 0 1.5482e+06 2.36383e+06 0 1.51256e+06 2.31213e+