<?xml version="1.0"?> 
<VTKFile type="StructuredGrid" version="0.1"> 
<StructuredGrid WholeExtent="0 63 0 63 0 0"> 
<Piece Extent="0 63 0 63 0 0"> 
<PointData>
<DataArray type="Float32" Name="|E|" format="ascii" NumberOfComponents="3"> 
1738.18 3196.6 0 2.85022 1102.98 0 -48.3638 1096.47 0 -199.894 903.946 0 -193.516 771.59 0 -201.794 641.707 0 -186.055 533.386 0 -171.191 441.385 0 -153.16 364.986 0 -136 301.876 0 -119.604 249.999 0 -104.687 207.476 0 -91.2822 172.648 0 -79.4383 144.117 0 -69.0649 120.711 0 -60.0473 101.467 0 -52.2442 85.5962 0 -45.5128 72.4629 0 -39.7146 61.5529 0 -34.7224 52.4532 0 -30.4218 44.8319 0 -26.7125 38.4227 0 -23.5073 33.0112 0 -20.7317 28.4246 0 -18.322 24.5231 0 -16.2245 21.1931 0 -14.3935 18.3422 0 -12.7909 15.8947 0 -11.3844 13.788 0 -10.1465 11.9707 0 -9.05452 10.3999 0 -8.08887 9.03974 0 -7.23311 7.86027 0 -6.47324 6.83614 0 -5.79731 5.94594 0 -5.19512 5.17145 0 -4.65787 4.49714 0 -4.17801 3.90969 0 -3.74898 3.39769 0 -3.36511 2.95128 0 -3.02143 2.56198 0 -2.71361 2.2224 0 -2.43786 1.92618 0 -2.19082 1.66775 0 -1.96955 1.4423 0 -1.77145 1.2456 0 -1.59421 1.074 0 -1.43578 0.924276 0 -1.29437 0.793632 0 -1.16836 0.679616 0 -1.05633 0.580086 0 -0.957026 0.493159 0 -0.86934 0.417202 0 -0.792302 0.350775 0 -0.725059 0.292625 0 -0.666876 0.241648 0 -0.617123 0.196891 0 -0.575271 0.157519 0 -0.540878 0.122807 0 -0.513601 0.0921247 0 -0.493165 0.064929 0 -0.479408 0.040761 0 -0.472217 0.0192261 0 -0.471594 0 0 858.316 2375.59 0 7.60421 1266.61 0 -129.456 1085.07 0 -225.27 900.793 0 -226.04 756.171 0 -223.558 627.288 0 -204.937 519.39 0 -185.762 428.972 0 -164.911 354.18 0 -145.269 292.64 0 -126.971 242.189 0 -110.524 200.918 0 -95.9217 167.169 0 -83.1336 139.554 0 -72.0195 116.917 0 -62.4198 98.3131 0 -54.1586 82.9742 0 -47.0655 70.2804 0 -40.9806 59.733 0 -35.7601 50.9322 0 -31.2767 43.5576 0 -27.4201 37.3521 0 -24.0957 32.109 0 -21.2229 27.6621 0 -18.7337 23.8768 0 -16.5705 20.6437 0 -14.6853 17.8739 0 -13.0376 15.4944 0 -11.5932 13.4451 0 -10.3238 11.6762 0 -9.20514 10.1465 0 -8.21701 8.82127 0 -7.34223 7.67159 0 -6.56623 6.67295 0 -5.87661 5.8046 0 -5.26276 5.0489 0 -4.71559 4.39078 0 -4.22727 3.81731 0 -3.79103 3.31741 0 -3.401 2.88148 0 -3.05207 2.50126 0 -2.73977 2.16959 0 -2.4602 1.88024 0 -2.2099 1.6278 0 -1.98586 1.40757 0 -1.78539 1.21543 0 -1.60614 1.04781 0 -1.446 0.901563 0 -1.30314 0.773963 0 -1.1759 0.662618 0 -1.06283 0.565426 0 -0.962643 0.480559 0 -0.874215 0.406413 0 -0.796551 0.341584 0 -0.728783 0.284845 0 -0.670158 0.235125 0 -0.620034 0.191485 0 -0.57787 0.153114 0 -0.543215 0.119301 0 -0.515717 0.0894372 0 -0.495094 0.0629925 0 -0.481173 0.0395134 0 -0.473839 0.0186204 0 -0.473083 1.2666e-07 0 407.292 2084.33 0 -55.6916 1326.75 0 -194.294 1079.59 0 -257.344 891.025 0 -256.318 740.04 0 -245.334 611.654 0 -222.955 504.755 0 -199.756 416.062 0 -176.079 343.02 0 -154.06 283.145 0 -133.932 234.189 0 -116.028 194.222 0 -100.288 161.59 0 -86.6077 134.918 0 -74.7958 113.069 0 -64.6488 95.1205 0 -55.9578 80.3236 0 -48.5257 68.0766 0 -42.1724 57.8971 0 -36.7381 49.3992 0 -32.0835 42.274 0 -28.089 36.2741 0 -24.6527 31.2012 0 -21.6886 26.8951 0 -19.1245 23.2268 0 -16.8996 20.0914 0 -14.9631 17.4032 0 -13.2727 15.0921 0 -11.7926 13.1005 0 -10.4931 11.3803 0 -9.34917 9.89186 0 -8.33966 8.60177 0 -7.44676 7.48203 0 -6.65538 6.50901 0 -5.95268 5.66263 0 -5.32768 4.92582 0 -4.77102 4.28397 0 -4.2746 3.72455 0 -3.83144 3.23679 0 -3.43551 2.81139 0 -3.08154 2.44031 0 -2.76494 2.11658 0 -2.48169 1.83413 0 -2.22827 1.58771 0 -2.00155 1.37272 0 -1.79882 1.18516 0 -1.61763 1.02153 0 -1.45585 0.878779 0 -1.31159 0.754238 0 -1.18317 0.64557 0 -1.06909 0.550729 0 -0.968064 0.467926 0 -0.878922 0.395597 0 -0.800656 0.33237 0 -0.732382 0.277049 0 -0.673332 0.228586 0 -0.622851 0.186068 0 -0.580387 0.1487 0 -0.54548 0.115794 0 -0.517768 0.0867488 0 -0.496963 0.0610527 0 -0.482883 0.0382645 0 -0.47541 0.0180147 0 -0.474525 -7.15256e-07 0 130.849 1941.7 0 -139.427 1344.81 0 -252.716 1071.23 0 -292.082 876.907 0 -285.182 722.683 0 -266.722 594.926 0 -240.152 489.489 0 -213.125 402.682 0 -186.657 331.532 0 -162.365 273.412 0 -140.483 226.019 0 -121.196 187.404 0 -104.382 155.923 0 -89.8607 130.218 0 -77.3938 109.176 0 -66.7347 91.8953 0 -57.6422 77.6492 0 -49.894 65.8554 0 -43.2904 56.0483 0 -37.6568 47.8564 0 -32.8425 40.9829 0 -28.7192 35.1904 0 -25.1784 30.2887 0 -22.1289 26.1244 0 -19.4946 22.5738 0 -17.2116 19.5365 0 -15.227 16.9303 0 -13.4963 14.6881 0 -11.9825 12.7544 0 -10.6546 11.0832 0 -9.48666 9.6362 0 -8.45685 8.38137 0 -7.54673 7.29172 0 -6.7407 6.34442 0 -6.02553 5.52011 0 -5.38991 4.80226 0 -4.82417 4.17675 0 -4.32 3.63144 0 -3.87023 3.15589 0 -3.46864 2.74106 0 -3.10985 2.37915 0 -2.78912 2.06339 0 -2.50235 1.78787 0 -2.24592 1.54749 0 -2.01665 1.33776 0 -1.81173 1.15479 0 -1.62868 0.995175 0 -1.46533 0.85593 0 -1.31973 0.734457 0 -1.19017 0.628477 0 -1.07513 0.535994 0 -0.973289 0.455262 0 -0.883461 0.384756 0 -0.804617 0.323137 0 -0.735856 0.269237 0 -0.676398 0.222036 0 -0.625575 0.180642 0 -0.582822 0.144281 0 -0.547672 0.112279 0 -0.519754 0.0840566 0 -0.498773 0.0591111 0 -0.48454 0.0370142 0 -0.47693 0.0174085 0 -0.47592 -4.91738e-07 0 -65.5888 1856.56 0 -226.444 1340.27 0 -307.868 1057.82 0 -327.559 859.453 0 -312.913 703.867 0 -287.48 577.213 0 -256.532 473.597 0 -225.829 388.868 0 -196.637 319.74 0 -170.174 263.465 0 -146.621 217.697 0 -126.028 180.479 0 -108.201 150.181 0 -92.8927 125.465 0 -79.8142 105.245 0 -68.6783 88.6433 0 -59.2127 74.9556 0 -51.1709 63.6203 0 -44.3352 54.1893 0 -38.5167 46.306 0 -33.5542 39.686 0 -29.3112 34.1022 0 -25.6731 29.3726 0 -22.544 25.3508 0 -19.8441 21.9185 0 -17.5069 18.9796 0 -15.477 16.4558 0 -13.7085 14.2827 0 -12.1629 12.4071 0 -10.8082 10.785 0 -9.61764 9.37964 0 -8.56861 8.16021 0 -7.64215 7.10075 0 -6.82222 6.17927 0 -6.09518 5.3771 0 -5.44943 4.67829 0 -4.87504 4.06918 0 -4.36348 3.53803 0 -3.90739 3.07472 0 -3.5004 2.6705 0 -3.13699 2.3178 0 -2.81231 2.01003 0 -2.52217 1.74148 0 -2.26287 1.50715 0 -2.03114 1.30271 0 -1.82413 1.12434 0 -1.6393 0.96875 0 -1.47443 0.833025 0 -1.32754 0.714628 0 -1.1969 0.611345 0 -1.08094 0.521227 0 -0.978316 0.442572 0 -0.887831 0.373893 0 -0.808433 0.313886 0 -0.739206 0.261412 0 -0.679356 0.215476 0 -0.628204 0.175208 0 -0.585174 0.139854 0 -0.549791 0.108763 0 -0.521674 0.0813613 0 -0.500524 0.0571667 0 -0.486143 0.0357639 0 -0.4784 0.0168025 0 -0.477268 1.46031e-06 0 -220.112 1788.69 0 -310.618 1322.4 0 -360.566 1039.27 0 -362.769 839.089 0 -339.544 683.594 0 -307.456 558.57 0 -272.077 457.112 0 -237.839 374.651 0 -206.011 307.672 0 -177.482 253.327 0 -152.343 209.242 0 -130.521 173.462 0 -111.746 144.374 0 -95.7044 120.669 0 -82.0579 101.284 0 -70.4804 85.3705 0 -60.67 72.2476 0 -52.3573 61.3749 0 -45.3074 52.3229 0 -39.3183 44.7501 0 -34.219 38.3849 0 -29.8654 33.0107 0 -26.1372 28.4539 0 -22.9342 24.5751 0 -20.1733 21.2614 0 -17.7855 18.4213 0 -15.7134 15.98 0 -13.9094 13.8761 0 -12.334 12.0588 0 -10.9541 10.486 0 -9.74216 9.12235 0 -8.67498 7.93841 0 -7.73306 6.90922 0 -6.89994 6.01363 0 -6.16164 5.23367 0 -5.50627 4.55395 0 -4.92365 3.96129 0 -4.40505 3.44434 0 -3.94293 2.99332 0 -3.53079 2.59975 0 -3.16296 2.25628 0 -2.83452 1.95654 0 -2.54116 1.69496 0 -2.2791 1.46671 0 -2.04502 1.26756 0 -1.83601 1.09382 0 -1.64948 0.942265 0 -1.48316 0.810065 0 -1.33505 0.694756 0 -1.20335 0.594176 0 -1.08652 0.506429 0 -0.983147 0.429856 0 -0.892032 0.36301 0 -0.812104 0.304619 0 -0.74243 0.253573 0 -0.682206 0.208905 0 -0.630739 0.169766 0 -0.587443 0.135424 0 -0.551836 0.10524 0 -0.52353 0.078665 0 -0.502216 0.0552231 0 -0.487691 0.0345121 0 -0.47982 0.016197 0 -0.478567 -1.54972e-06 0 -349.473 1726.47 0 -389.844 1295.52 0 -410.909 1016 0 -397.103 816.141 0 -365.029 661.915 0 -326.535 539.058 0 -286.761 440.071 0 -249.131 360.064 0 -214.769 295.353 0 -184.282 243.019 0 -157.649 200.673 0 -134.676 166.368 0 -115.018 138.517 0 -98.2969 115.838 0 -84.1261 97.3009 0 -72.1423 82.0827 0 -62.0152 69.5295 0 -53.4542 59.1228 0 -46.2079 50.4517 0 -40.0624 43.1908 0 -34.8374 37.0813 0 -30.3821 31.9173 0 -26.5709 27.5337 0 -23.2997 23.798 0 -20.4824 20.6031 0 -18.0476 17.8619 0 -15.9362 15.5033 0 -14.0991 13.4688 0 -12.4958 11.7098 0 -11.0923 10.1863 0 -9.86026 8.86448 0 -8.77598 7.7161 0 -7.81947 6.71723 0 -6.97389 5.84759 0 -6.22493 5.08988 0 -5.56044 4.4293 0 -4.97001 3.85313 0 -4.44471 3.35043 0 -3.97686 2.91172 0 -3.55981 2.52882 0 -3.18778 2.19461 0 -2.85574 1.90291 0 -2.55931 1.64833 0 -2.29462 1.42618 0 -2.0583 1.23234 0 -1.84738 1.06323 0 -1.65923 0.915721 0 -1.49153 0.787058 0 -1.34223 0.674845 0 -1.20954 0.576973 0 -1.09186 0.491603 0 -0.987781 0.417119 0 -0.896065 0.352109 0 -0.815629 0.295337 0 -0.74553 0.245724 0 -0.684947 0.202325 0 -0.633179 0.164319 0 -0.58963 0.130988 0 -0.553809 0.101716 0 -0.525319 0.0759649 0 -0.503848 0.0532766 0 -0.489185 0.0332596 0 -0.481189 0.0155898 0 -0.47982 1.84774e-06 0 -461.773 1665.08 0 -463.556 1262 0 -458.779 988.623 0 -430.164 790.871 0 -389.291 638.919 0 -344.631 518.738 0 -300.559 422.519 0 -259.684 345.143 0 -222.905 282.815 0 -190.57 232.567 0 -162.536 192.008 0 -138.493 159.212 0 -118.018 132.62 0 -100.672 110.983 0 -86.0203 93.3022 0 -73.6653 78.7856 0 -63.2496 66.8058 0 -54.4625 56.8673 0 -47.0375 48.5785 0 -40.7496 41.6302 0 -35.4101 35.7768 0 -30.8618 30.8231 0 -26.9746 26.6128 0 -23.6409 23.0203 0 -20.7716 19.9442 0 -18.2934 17.302 0 -16.1455 15.0261 0 -14.2778 13.0609 0 -12.6484 11.3603 0 -11.2228 9.88615 0 -9.972 8.60618 0 -8.87165 7.49339 0 -7.90142 6.52489 0 -7.04409 5.68124 0 -6.28507 4.94582 0 -5.61194 4.3044 0 -5.01411 3.74475 0 -4.48247 3.25631 0 -4.00918 2.82995 0 -3.58747 2.45774 0 -3.21144 2.13281 0 -2.87598 1.84918 0 -2.57662 1.60161 0 -2.30944 1.38556 0 -2.07098 1.19705 0 -1.85824 1.03258 0 -1.66853 0.889129 0 -1.49951 0.764011 0 -1.3491 0.654897 0 -1.21546 0.559743 0 -1.09698 0.476754 0 -0.992217 0.404361 0 -0.899928 0.341192 0 -0.81901 0.286043 0 -0.748504 0.237865 0 -0.687579 0.195738 0 -0.635524 0.158864 0 -0.591733 0.126548 0 -0.555707 0.0981876 0 -0.527042 0.0732642 0 -0.50542 0.05133 0 -0.490624 0.0320082 0 -0.482507 0.0149849 0 -0.481023 -2.563e-06 0 -561.332 1602.84 0 -531.747 1223.33 0 -504.024 957.69 0 -461.677 763.525 0 -412.245 614.711 0 -361.671 497.678 0 -313.445 404.501 0 -269.482 329.926 0 -230.412 270.086 0 -196.345 221.993 0 -167.006 183.268 0 -141.973 152.01 0 -120.748 126.696 0 -102.83 106.112 0 -87.7423 89.2955 0 -75.051 75.4849 0 -64.3746 64.0809 0 -55.3834 54.6117 0 -47.7973 46.7058 0 -41.3808 40.0703 0 -35.9376 34.4729 0 -31.3051 29.7294 0 -27.3488 25.6921 0 -23.9579 22.2428 0 -21.0411 19.2854 0 -18.523 16.742 0 -16.3416 14.5487 0 -14.4454 12.6528 0 -12.792 11.0106 0 -11.3458 9.58574 0 -10.0774 8.34761 0 -8.96205 7.27041 0 -7.97894 6.3323 0 -7.11057 5.51464 0 -6.34207 4.80153 0 -5.66081 4.17931 0 -5.05598 3.6362 0 -4.51834 3.16204 0 -4.0399 2.74804 0 -3.61376 2.38654 0 -3.23395 2.07091 0 -2.89525 1.79535 0 -2.59311 1.55481 0 -2.32354 1.34488 0 -2.08306 1.1617 0 -1.86859 1.00189 0 -1.67741 0.862492 0 -1.50713 0.740927 0 -1.35566 0.63492 0 -1.22111 0.542486 0 -1.10186 0.461884 0 -0.996457 0.391587 0 -0.903622 0.33026 0 -0.822245 0.276737 0 -0.751353 0.229995 0 -0.690103 0.189144 0 -0.637775 0.153406 0 -0.593753 0.122105 0 -0.557531 0.0946584 0 -0.528699 0.0705619 0 -0.506933 0.0493823 0 -0.492008 0.0307562 0 -0.483775 0.0143787 0 -0.48218 3.57628e-06 0 -650.651 1539.1 0 -594.604 1180.53 0 -546.515 923.715 0 -491.448 734.332 0 -433.816 589.403 0 -377.6 475.949 0 -325.397 386.07 0 -278.511 314.45 0 -237.285 257.197 0 -201.605 211.322 0 -171.058 174.47 0 -145.118 144.776 0 -123.21 120.756 0 -104.775 101.235 0 -89.2941 85.2877 0 -76.3014 72.1858 0 -65.3918 61.3588 0 -56.2184 52.3593 0 -48.4882 44.8361 0 -41.9567 38.5128 0 -36.4207 33.1711 0 -31.7125 28.6372 0 -27.6939 24.7727 0 -24.2512 21.4661 0 -21.2911 18.6271 0 -18.7367 16.1823 0 -16.5245 14.0714 0 -14.6022 12.2447 0 -12.9265 10.6608 0 -11.4613 9.28523 0 -10.1766 8.0889 0 -9.0472 7.04728 0 -8.05206 6.13954 0 -7.17335 5.34788 0 -6.39595 4.65709 0 -5.70704 4.05406 0 -5.09563 3.5275 0 -4.55233 3.06765 0 -4.06902 2.66601 0 -3.63871 2.31524 0 -3.25531 2.00892 0 -2.91353 1.74145 0 -2.60876 1.50794 0 -2.33695 1.30414 0 -2.09454 1.1263 0 -1.87842 0.971146 0 -1.68584 0.835821 0 -1.51438 0.717812 0 -1.36189 0.614917 0 -1.22649 0.525207 0 -1.10652 0.446995 0 -1.0005 0.378798 0 -0.907147 0.319317 0 -0.825334 0.267423 0 -0.754076 0.22212 0 -0.692517 0.182546 0 -0.63993 0.147944 0 -0.595689 0.117659 0 -0.559282 0.0911275 0 -0.53029 0.0678577 0 -0.508386 0.0474355 0 -0.493336 0.0295034 0 -0.484992 0.0137733 0 -0.483288 -3.15905e-06 0 -731.293 1473.67 0 -652.36 1134.35 0 -586.156 887.145 0 -519.336 703.515 0 -453.935 563.112 0 -392.372 453.625 0 -336.394 367.275 0 -286.761 298.755 0 -243.521 244.178 0 -206.35 200.577 0 -174.696 165.635 0 -147.931 137.526 0 -125.407 114.812 0 -106.509 96.361 0 -90.6783 81.286 0 -77.4185 68.8939 0 -66.3029 58.6438 0 -56.9687 50.1132 0 -49.1115 42.9718 0 -42.4784 36.9599 0 -36.8601 31.8727 0 -32.0845 27.5478 0 -28.0102 23.8553 0 -24.5212 20.6909 0 -21.5221 17.9699 0 -18.9346 15.6233 0 -16.6944 13.5947 0 -14.7483 11.8369 0 -13.0521 10.3112 0 -11.5693 8.9848 0 -10.2695 7.83021 0 -9.12715 6.82412 0 -8.12082 5.94671 0 -7.23246 5.18104 0 -6.44674 4.51256 0 -5.75065 3.92872 0 -5.13307 3.41872 0 -4.58445 2.97316 0 -4.09656 2.58391 0 -3.66231 2.24387 0 -3.27553 1.94686 0 -2.93085 1.68748 0 -2.62359 1.46102 0 -2.34965 1.26335 0 -2.10542 1.09086 0 -1.88775 0.940369 0 -1.69385 0.809119 0 -1.52126 0.69467 0 -1.36782 0.594892 0 -1.23161 0.507912 0 -1.11094 0.432092 0 -1.00434 0.365996 0 -0.910503 0.308364 0 -0.828278 0.2581 0 -0.756673 0.214238 0 -0.694823 0.175941 0 -0.64199 0.142477 0 -0.597541 0.113212 0 -0.560958 0.0875951 0 -0.531814 0.0651552 0 -0.509778 0.0454867 0 -0.494611 0.028253 0 -0.486157 0.0131661 0 -0.484349 2.44379e-06 0 -804.288 1406.56 0 -705.243 1085.37 0 -622.886 848.374 0 -545.242 671.283 0 -472.546 535.957 0 -405.951 430.78 0 -346.421 348.171 0 -294.224 282.881 0 -249.12 231.06 0 -210.58 189.783 0 -177.921 156.78 0 -150.414 130.274 0 -127.342 108.875 0 -108.036 91.4982 0 -91.8974 77.2968 0 -78.4046 65.6141 0 -67.1098 55.9396 0 -57.6359 47.8765 0 -49.6683 41.1151 0 -42.9467 35.4131 0 -37.2565 30.5793 0 -32.4218 26.4622 0 -28.2983 22.9409 0 -24.7681 19.9179 0 -21.7341 17.3143 0 -19.1171 15.0656 0 -16.8516 13.1187 0 -14.8837 11.4298 0 -13.1689 9.96199 0 -11.67 8.68462 0 -10.3563 7.57166 0 -9.20195 6.60103 0 -8.18525 5.75392 0 -7.28792 5.01419 0 -6.49445 4.36799 0 -5.79167 3.80334 0 -5.16831 3.30988 0 -4.6147 2.87863 0 -4.12252 2.50175 0 -3.68457 2.17244 0 -3.29461 1.88475 0 -2.9472 1.63347 0 -2.63759 1.41406 0 -2.36164 1.22253 0 -2.11571 1.05538 0 -1.89657 0.909567 0 -1.70142 0.782394 0 -1.52777 0.67151 0 -1.37342 0.57485 0 -1.23645 0.490601 0 -1.11514 0.417177 0 -1.00799 0.353183 0 -0.91369 0.297404 0 -0.831077 0.248771 0 -0.759145 0.206351 0 -0.697019 0.169334 0 -0.643955 0.137009 0 -0.59931 0.108762 0 -0.56256 0.0840618 0 -0.533272 0.0624508 0 -0.511111 0.0435405 0 -0.495829 0.0270011 0 -0.487271 0.0125621 0 -0.485361 -1.84774e-06 0 -870.355 1337.88 0 -753.461 1034.07 0 -656.667 807.748 0 -569.094 637.834 0 -489.605 508.055 0 -418.309 407.493 0 -355.466 328.813 0 -300.896 266.868 0 -254.08 217.874 0 -214.298 178.964 0 -180.737 147.924 0 -152.573 123.034 0 -129.018 102.957 0 -109.357 86.6553 0 -92.9545 73.3269 0 -79.2621 62.3515 0 -67.8145 53.2502 0 -58.2217 45.652 0 -50.1601 39.2684 0 -43.3627 33.8742 0 -37.6107 29.2921 0 -32.7249 25.3815 0 -28.5587 22.0301 0 -24.9923 19.1477 0 -21.9276 16.6608 0 -19.2843 14.5094 0 -16.9961 12.644 0 -15.0087 11.0234 0 -13.2769 9.61338 0 -11.7634 8.38486 0 -10.437 7.31339 0 -9.27166 6.37813 0 -8.2454 5.56124 0 -7.33977 4.84741 0 -6.53912 4.22346 0 -5.83011 3.67797 0 -5.20136 3.20104 0 -4.6431 2.78407 0 -4.1469 2.41957 0 -3.70549 2.10099 0 -3.31255 1.82262 0 -2.96258 1.57944 0 -2.65078 1.36707 0 -2.37294 1.18168 0 -2.12539 1.01989 0 -1.90488 0.878745 0 -1.70856 0.755652 0 -1.53391 0.648334 0 -1.37872 0.554796 0 -1.24102 0.473279 0 -1.1191 0.402253 0 -1.01144 0.340365 0 -0.916708 0.286438 0 -0.833729 0.239437 0 -0.76149 0.198462 0 -0.699107 0.162725 0 -0.645825 0.131539 0 -0.600995 0.104312 0 -0.564088 0.0805275 0 -0.534664 0.0597469 0 -0.512383 0.0415932 0 -0.496993 0.0257499 0 -0.488333 0.0119562 0 -0.486325 1.54972e-06 0 -930.018 1267.79 0 -797.194 980.864 0 -687.488 765.573 0 -590.845 603.357 0 -505.078 479.524 0 -429.425 383.839 0 -363.52 309.254 0 -306.773 250.756 0 -258.403 204.652 0 -217.509 168.144 0 -183.149 139.087 0 -154.41 115.821 0 -130.441 97.0677 0 -110.478 81.8408 0 -93.8526 69.3825 0 -79.9937 59.111 0 -68.4192 50.5792 0 -58.7278 43.4425 0 -50.588 37.4338 0 -43.7276 32.345 0 -37.9237 28.0124 0 -32.9946 24.3065 0 -28.7919 21.1239 0 -25.1943 18.3809 0 -22.1029 16.0099 0 -19.4364 13.9552 0 -17.1282 12.1707 0 -15.1234 10.6182 0 -13.3764 9.26556 0 -11.8497 8.08568 0 -10.5118 7.05555 0 -9.33632 6.15552 0 -8.30129 5.36876 0 -7.38804 4.68077 0 -6.58075 4.07902 0 -5.86599 3.55265 0 -5.23225 3.09223 0 -4.66966 2.68954 0 -4.16973 2.3374 0 -3.72509 2.02954 0 -3.32936 1.76047 0 -2.977 1.52539 0 -2.66314 1.32007 0 -2.38355 1.14082 0 -2.13449 0.984383 0 -1.91269 0.847911 0 -1.71527 0.728899 0 -1.53968 0.62515 0 -1.38369 0.534732 0 -1.24533 0.455952 0 -1.12284 0.387322 0 -1.0147 0.327542 0 -0.919556 0.275467 0 -0.836237 0.230101 0 -0.76371 0.19057 0 -0.701085 0.156114 0 -0.647598 0.126069 0 -0.602596 0.0998621 0 -0.565541 0.0769944 0 -0.535989 0.057044 0 -0.513594 0.0396462 0 -0.498101 0.0244998 0 -0.489344 0.0113514 0 -0.48724 -3.57628e-07 0 -983.674 1196.51 0 -836.604 926.101 0 -715.351 722.127 0 -610.467 568.028 0 -518.942 450.477 0 -439.286 359.897 0 -370.578 289.549 0 -311.858 234.587 0 -262.095 191.423 0 -220.216 157.346 0 -185.162 130.285 0 -155.932 108.648 0 -131.615 91.2184 0 -111.402 77.0626 0 -94.5953 65.4696 0 -80.6022 55.8971 0 -68.9262 47.9302 0 -59.1561 41.2508 0 -50.9537 35.6134 0 -44.0423 30.8269 0 -38.1963 26.7415 0 -33.2316 23.2384 0 -28.9984 20.2229 0 -25.3745 17.6182 0 -22.2602 15.3621 0 -19.5738 13.4033 0 -17.2481 11.6992 0 -15.2279 10.2143 0 -13.4674 8.91874 0 -11.9289 7.78724 0 -10.5805 6.79825 0 -9.39598 5.93332 0 -8.35298 5.17658 0 -7.43276 4.51433 0 -6.61939 3.93472 0 -5.89933 3.42743 0 -5.26098 2.98349 0 -4.6944 2.59505 0 -4.191 2.25525 0 -3.74337 1.9581 0 -3.34506 1.69834 0 -2.99047 1.47135 0 -2.6747 1.27307 0 -2.39346 1.09996 0 -2.14299 0.948874 0 -1.91999 0.817074 0 -1.72155 0.702143 0 -1.54509 0.601961 0 -1.38836 0.514665 0 -1.24936 0.43862 0 -1.12634 0.37239 0 -1.01776 0.314716 0 -0.922236 0.264495 0 -0.838598 0.220763 0 -0.765803 0.182678 0 -0.702953 0.149503 0 -0.649276 0.120598 0 -0.604113 0.0954111 0 -0.566919 0.0734613 0 -0.537246 0.0543416 0 -0.514745 0.0377009 0 -0.499153 0.0232495 0 -0.490304 0.0107468 0 -0.488107 -2.26498e-06 0 -1031.64 1124.23 0 -871.833 870.094 0 -740.276 677.66 0 -627.945 532.017 0 -531.183 421.025 0 -447.886 335.741 0 -376.641 269.754 0 -316.152 218.401 0 -265.158 178.219 0 -222.426 146.594 0 -186.782 121.537 0 -157.145 101.53 0 -132.544 85.4191 0 -112.134 72.3284 0 -95.1862 61.5943 0 -81.0906 52.7143 0 -69.3378 45.3065 0 -59.5083 39.0795 0 -51.2586 33.8091 0 -44.3082 29.3216 0 -38.4294 25.4805 0 -33.4365 22.178 0 -29.1787 19.3278 0 -25.5333 16.8601 0 -22.4 14.7179 0 -19.6966 12.8541 0 -17.3559 11.2297 0 -15.3224 9.81193 0 -13.5501 8.5731 0 -12.001 7.4897 0 -10.6434 6.54163 0 -9.45071 5.71162 0 -8.40051 4.98477 0 -7.47396 4.34818 0 -6.65505 3.79064 0 -5.93015 3.30237 0 -5.28758 2.87486 0 -4.71732 2.50064 0 -4.21073 2.17317 0 -3.76033 1.88671 0 -3.35963 1.63624 0 -3.00298 1.41733 0 -2.68544 1.22609 0 -2.40268 1.05911 0 -2.15091 0.913371 0 -1.92679 0.78624 0 -1.7274 0.675389 0 -1.55013 0.578774 0 -1.39271 0.494599 0 -1.25313 0.421288 0 -1.12962 0.357457 0 -1.02062 0.30189 0 -0.924747 0.253523 0 -0.840814 0.211426 0 -0.767771 0.174785 0 -0.704712 0.142892 0 -0.650858 0.115128 0 -0.605545 0.0909626 0 -0.568222 0.0699297 0 -0.538437 0.0516399 0 -0.515835 0.0357563 0 -0.50015 0.0220008 0 -0.491212 0.0101414 0 -0.488925 3.21865e-06 0 -1074.18 1051.17 0 -903.01 813.126 0 -762.29 632.401 0 -643.278 495.481 0 -541.798 391.275 0 -455.222 311.447 0 -381.71 249.922 0 -319.661 202.238 0 -267.602 165.069 0 -224.147 135.91 0 -188.017 112.859 0 -158.054 94.4784 0 -133.236 79.6798 0 -112.678 67.6459 0 -95.6293 57.7622 0 -81.4622 49.5668 0 -69.6567 42.7113 0 -59.7867 36.9309 0 -51.5042 32.0229 0 -44.5265 27.8304 0 -38.6239 24.2306 0 -33.6101 21.1263 0 -29.3336 18.4395 0 -25.6712 16.1072 0 -22.5225 14.0776 0 -19.8052 12.308 0 -17.4519 10.7626 0 -15.407 9.41137 0 -13.6245 8.22883 0 -12.0663 7.1932 0 -10.7005 6.2858 0 -9.50055 5.49052 0 -8.44392 4.79342 0 -7.51168 4.18238 0 -6.68777 3.64682 0 -5.95847 3.17752 0 -5.31205 2.76639 0 -4.73844 2.40634 0 -4.22892 2.09116 0 -3.77599 1.81538 0 -3.3731 1.57418 0 -3.01455 1.36334 0 -2.69537 1.17913 0 -2.41121 1.01828 0 -2.15824 0.877883 0 -1.93309 0.755418 0 -1.73282 0.648642 0 -1.5548 0.555592 0 -1.39675 0.474538 0 -1.25664 0.403961 0 -1.13267 0.342526 0 -1.02328 0.289066 0 -0.927089 0.242553 0 -0.842885 0.20209 0 -0.769613 0.166896 0 -0.706362 0.136284 0 -0.652344 0.109661 0 -0.606893 0.0865141 0 -0.56945 0.0664005 0 -0.539561 0.0489407 0 -0.516864 0.0338133 0 -0.501091 0.0207524 0 -0.492068 0.00953871 0 -0.489694 -2.5034e-06 0 -1111.51 977.574 0 -930.257 755.455 0 -781.433 586.561 0 -656.475 458.569 0 -550.787 361.331 0 -461.299 287.087 0 -385.792 230.105 0 -322.394 186.136 0 -269.433 152.004 0 -225.386 125.317 0 -188.873 104.27 0 -158.667 87.5069 0 -133.694 74.0101 0 -113.039 63.0221 0 -95.9287 53.9786 0 -81.7201 46.4589 0 -69.8854 40.1478 0 -59.9931 34.8075 0 -51.6923 30.2565 0 -44.6983 26.3548 0 -38.7809 22.9928 0 -33.7531 20.0839 0 -29.4634 17.5585 0 -25.7885 15.3599 0 -22.628 13.4417 0 -19.8998 11.7652 0 -17.5362 10.2981 0 -15.4819 9.01282 0 -13.6908 7.8861 0 -12.1248 6.89788 0 -10.7519 6.03088 0 -9.54558 5.27013 0 -8.48326 4.60262 0 -7.54596 4.01699 0 -6.71757 3.50332 0 -5.98432 3.0529 0 -5.33442 2.6581 0 -4.75776 2.31219 0 -4.2456 2.00928 0 -3.79035 1.74414 0 -3.38546 1.5122 0 -3.02518 1.30941 0 -2.70451 1.13222 0 -2.41906 0.977475 0 -2.16498 0.84242 0 -1.9389 0.724614 0 -1.73781 0.621912 0 -1.55912 0.532422 0 -1.40048 0.454486 0 -1.25987 0.386641 0 -1.13549 0.327602 0 -1.02575 0.276247 0 -0.929263 0.231587 0 -0.84481 0.192759 0 -0.771329 0.159009 0 -0.707902 0.129678 0 -0.653735 0.104196 0 -0.608157 0.0820697 0 -0.570604 0.0628732 0 -0.540617 0.0462427 0 -0.517832 0.0318717 0 -0.501976 0.0195057 0 -0.492872 0.00893563 0 -0.490415 1.07288e-06 0 -1143.82 903.647 0 -953.689 697.319 0 -797.75 540.333 0 -667.554 421.424 0 -558.162 331.293 0 -466.124 262.734 0 -388.896 210.357 0 -324.359 170.136 0 -270.663 139.052 0 -226.154 114.837 0 -189.361 95.7856 0 -158.991 80.6276 0 -133.927 68.4192 0 -113.224 58.464 0 -96.0886 50.2487 0 -81.8679 43.3943 0 -70.0267 37.6189 0 -60.1298 32.7115 0 -51.8244 28.5117 0 -44.8251 24.8961 0 -38.9013 21.7682 0 -33.8664 19.0519 0 -29.5689 16.6854 0 -25.8858 14.6188 0 -22.7171 12.8106 0 -19.9806 11.2262 0 -17.6092 9.83643 0 -15.5473 8.61649 0 -13.7492 7.5451 0 -12.1766 6.6039 0 -10.7977 5.777 0 -9.58585 5.05054 0 -8.51857 4.41243 0 -7.57684 3.85208 0 -6.74448 3.36019 0 -6.00771 2.92858 0 -5.35471 2.55004 0 -4.77532 2.21822 0 -4.26076 1.92753 0 -3.80343 1.67301 0 -3.39672 1.4503 0 -3.03487 1.25555 0 -2.71284 1.08535 0 -2.42623 0.936717 0 -2.17115 0.806989 0 -1.9442 0.693838 0 -1.74239 0.595201 0 -1.56306 0.509269 0 -1.4039 0.434447 0 -1.26284 0.369331 0 -1.13808 0.312687 0 -1.02802 0.263436 0 -0.931268 0.220628 0 -0.846589 0.183432 0 -0.772919 0.151126 0 -0.709332 0.123077 0 -0.65503 0.098735 0 -0.609336 0.0776278 0 -0.571682 0.0593476 0 -0.541607 0.0435475 0 -0.518739 0.0299315 0 -0.502805 0.0182602 0 -0.493624 0.00833422 0 -0.491087 1.19209e-07 0 -1171.31 829.611 0 -973.417 638.937 0 -811.294 493.899 0 -676.541 384.178 0 -563.937 301.257 0 -469.712 238.456 0 -391.035 190.727 0 -325.57 154.274 0 -271.302 126.242 0 -226.461 104.49 0 -189.489 87.4211 0 -159.034 73.8524 0 -133.941 62.9159 0 -113.237 53.9781 0 -96.1136 46.5774 0 -81.9092 40.3766 0 -70.0834 35.1274 0 -60.1989 30.645 0 -51.9022 26.79 0 -44.9081 23.4554 0 -38.9862 20.5578 0 -33.9507 18.0308 0 -29.6506 15.8209 0 -25.9636 13.8843 0 -22.7899 12.1846 0 -20.048 10.6912 0 -17.6709 9.3779 0 -15.6034 8.22259 0 -13.7996 7.20598 0 -12.2217 6.31139 0 -10.8379 5.52426 0 -9.62142 4.83184 0 -8.54992 4.22294 0 -7.60434 3.68772 0 -6.76853 3.21749 0 -6.02867 2.80459 0 -5.37293 2.44224 0 -4.79111 2.12446 0 -4.27442 1.84594 0 -3.81523 1.602 0 -3.4069 1.3885 0 -3.04363 1.20176 0 -2.72038 1.03856 0 -2.43272 0.896011 0 -2.17673 0.771601 0 -1.94901 0.663093 0 -1.74654 0.568517 0 -1.56665 0.486137 0 -1.40701 0.414426 0 -1.26555 0.352035 0 -1.14045 0.297785 0 -1.0301 0.250634 0 -0.933105 0.209677 0 -0.848224 0.174112 0 -0.774384 0.143248 0 -0.710653 0.116479 0 -0.656229 0.0932772 0 -0.610431 0.0731894 0 -0.572686 0.0558261 0 -0.542528 0.0408545 0 -0.519585 0.027994 0 -0.503579 0.0170158 0 -0.494324 0.00773239 0 -0.49171 3.57628e-07 0 -1194.13 755.678 0 -989.549 580.516 0 -822.122 447.427 0 -683.468 346.959 0 -568.135 271.315 0 -472.079 214.32 0 -392.224 171.266 0 -326.04 138.587 0 -271.365 113.6 0 -226.319 94.2981 0 -189.268 79.1922 0 -158.806 67.1926 0 -133.743 57.5085 0 -113.084 49.5706 0 -96.0084 42.9694 0 -81.8476 37.4094 0 -70.0584 32.6757 0 -60.2028 28.6099 0 -51.9276 25.093 0 -44.9486 22.0341 0 -39.0367 19.3624 0 -34.0068 17.0214 0 -29.7091 14.9656 0 -26.0222 13.157 0 -22.847 11.5642 0 -20.1023 10.1604 0 -17.7217 8.92274 0 -15.6502 7.83131 0 -13.8424 6.86891 0 -12.2604 6.02048 0 -10.8726 5.27277 0 -9.65236 4.61412 0 -8.57733 4.03422 0 -7.62852 3.52397 0 -6.78975 3.07527 0 -6.04723 2.68098 0 -5.3891 2.33475 0 -4.80517 2.03094 0 -4.2866 1.76455 0 -3.82576 1.53115 0 -3.41599 1.32682 0 -3.05147 1.14808 0 -2.72714 0.991834 0 -2.43853 0.855367 0 -2.18174 0.736263 0 -1.95333 0.63239 0 -1.75027 0.541867 0 -1.56988 0.463033 0 -1.40981 0.394426 0 -1.26799 0.334757 0 -1.14259 0.282896 0 -1.03199 0.237844 0 -0.934775 0.198735 0 -0.849714 0.164802 0 -0.775722 0.13538 0 -0.711865 0.109888 0 -0.657333 0.0878255 0 -0.611441 0.0687554 0 -0.573614 0.0523074 0 -0.543383 0.0381646 0 -0.52037 0.0260578 0 -0.504296 0.0157736 0 -0.494972 0.00713193 0 -0.492284 -5.96046e-07 0 -1212.44 682.055 0 -1002.19 522.248 0 -830.297 401.075 0 -688.373 309.885 0 -570.78 241.554 0 -473.245 190.391 0 -392.481 152.02 0 -325.785 123.111 0 -270.864 101.155 0 -225.74 84.2804 0 -188.708 71.1135 0 -158.316 60.659 0 -133.341 52.2052 0 -112.771 45.2474 0 -95.7778 39.4288 0 -81.6869 34.4958 0 -69.9547 30.2665 0 -60.1437 26.6081 0 -51.9023 23.422 0 -44.9481 20.6331 0 -39.0537 18.1829 0 -34.0355 16.0245 0 -29.7452 14.1199 0 -26.0623 12.4372 0 -22.8886 10.9497 0 -20.1438 9.63432 0 -17.7617 8.47117 0 -15.6881 7.44283 0 -13.8776 6.53404 0 -12.2927 5.73129 0 -10.9019 5.02264 0 -9.67873 4.39747 0 -8.60088 3.84635 0 -7.6494 3.36088 0 -6.80818 2.93358 0 -6.06341 2.5578 0 -5.40324 2.22759 0 -4.81749 1.93768 0 -4.2973 1.68337 0 -3.83503 1.46047 0 -3.424 1.26528 0 -3.05839 1.0945 0 -2.7331 0.945204 0 -2.44367 0.814797 0 -2.18618 0.700983 0 -1.95716 0.601735 0 -1.75357 0.515256 0 -1.57275 0.43996 0 -1.41231 0.374453 0 -1.27017 0.317501 0 -1.1445 0.268024 0 -1.03368 0.225069 0 -0.936277 0.187805 0 -0.851059 0.1555 0 -0.776936 0.127518 0 -0.712967 0.103304 0 -0.65834 0.0823788 0 -0.612367 0.0643268 0 -0.574466 0.0487922 0 -0.54417 0.0354776 0 -0.521094 0.0241254 0 -0.504956 0.0145329 0 -0.495568 0.00653237 0 -0.492809 8.34465e-07 0 -1226.4 608.939 0 -1011.46 464.312 0 -835.888 354.989 0 -691.301 273.069 0 -571.904 212.059 0 -473.236 166.732 0 -391.826 133.038 0 -324.824 107.882 0 -269.817 88.9311 0 -224.739 74.4562 0 -187.822 63.1992 0 -157.572 54.2619 0 -132.742 47.0132 0 -112.305 41.014 0 -95.4268 35.9599 0 -81.431 31.639 0 -69.7752 27.9018 0 -60.0239 24.6413 0 -51.8282 21.7784 0 -44.908 19.2535 0 -39.0384 17.0201 0 -34.0378 15.0406 0 -29.7594 13.2843 0 -26.0843 11.7254 0 -22.9152 10.3414 0 -20.1726 9.11306 0 -17.7913 8.0234 0 -15.7171 7.05735 0 -13.9054 6.20152 0 -12.3187 5.44395 0 -10.9259 4.77397 0 -9.7006 4.18197 0 -8.62061 3.65939 0 -7.66705 3.19852 0 -6.82384 2.79247 0 -6.07723 2.43507 0 -5.41538 2.1208 0 -4.8281 1.84472 0 -4.30654 1.60243 0 -3.84306 1.38999 0 -3.43095 1.2039 0 -3.0644 1.04105 0 -2.73829 0.898675 0 -2.44815 0.774309 0 -2.19004 0.665771 0 -1.9605 0.571134 0 -1.75647 0.488688 0 -1.57526 0.416923 0 -1.41449 0.354509 0 -1.27209 0.30027 0 -1.14619 0.253173 0 -1.03517 0.212311 0 -0.937612 0.176889 0 -0.85226 0.14621 0 -0.778023 0.119666 0 -0.71396 0.0967276 0 -0.659251 0.076939 0 -0.613208 0.0599035 0 -0.575244 0.0452825 0 -0.544889 0.0327937 0 -0.521756 0.0221952 0 -0.505561 0.0132939 0 -0.496111 0.00593394 0 -0.493285 1.19209e-07 0 -1236.16 536.52 0 -1017.45 406.878 0 -838.965 309.308 0 -692.298 236.618 0 -571.541 182.91 0 -472.077 143.402 0 -390.283 114.363 0 -323.176 92.9316 0 -268.24 76.9537 0 -223.33 64.8437 0 -186.622 55.4624 0 -156.586 48.011 0 -131.955 41.9397 0 -111.693 36.8755 0 -94.9604 32.5663 0 -81.0839 28.8415 0 -69.523 25.5839 0 -59.8458 22.711 0 -51.7069 20.1634 0 -44.8296 17.8963 0 -38.9918 15.8747 0 -34.0143 14.0703 0 -29.7524 12.4595 0 -26.0887 11.0218 0 -22.9271 9.73959 0 -20.1892 8.59692 0 -17.8105 7.57965 0 -15.7375 6.67502 0 -13.9258 5.87149 0 -12.3386 5.15859 0 -10.9447 4.52686 0 -9.71805 3.96772 0 -8.63657 3.47342 0 -7.68148 3.03695 0 -6.83677 2.65199 0 -6.08872 2.31285 0 -5.42553 2.01442 0 -4.83701 1.75209 0 -4.31434 1.52175 0 -3.84984 1.31971 0 -3.43684 1.14269 0 -3.0695 0.987745 0 -2.7427 0.852262 0 -2.45197 0.733914 0 -2.19334 0.630636 0 -1.96335 0.540597 0 -1.75894 0.462173 0 -1.57741 0.393929 0 -1.41638 0.334599 0 -1.27374 0.283066 0 -1.14765 0.238345 0 -1.03647 0.199572 0 -0.93878 0.165989 0 -0.853316 0.136933 0 -0.778986 0.111825 0 -0.714843 0.0901607 0 -0.660067 0.0715066 0 -0.613964 0.0554854 0 -0.575947 0.0417782 0 -0.545541 0.0301142 0 -0.522358 0.020268 0 