<?xml version="1.0"?> 
<VTKFile type="StructuredGrid" version="0.1"> 
<StructuredGrid WholeExtent="0 63 0 63 0 0"> 
<Piece Extent="0 63 0 63 0 0"> 
<PointData>
<DataArray type="Float32" Name="|E|" format="ascii" NumberOfComponents="3"> 
299748 4.5463e+06 0 300150 4.5524e+06 0 300558 4.5586e+06 0 300974 4.5649e+06 0 301397 4.57132e+06 0 301827 4.57784e+06 0 302264 4.58447e+06 0 302710 4.59122e+06 0 303163 4.5981e+06 0 303624 4.60509e+06 0 304093 4.61221e+06 0 304571 4.61946e+06 0 305058 4.62684e+06 0 305553 4.63435e+06 0 306058 4.64201e+06 0 306573 4.64982e+06 0 307097 4.65777e+06 0 307632 4.66588e+06 0 308177 4.67415e+06 0 308733 4.68258e+06 0 309300 4.69118e+06 0 309878 4.69996e+06 0 310469 4.70891e+06 0 311072 4.71806e+06 0 311688 4.7274e+06 0 312317 4.73694e+06 0 312959 4.74669e+06 0 313617 4.75665e+06 0 314288 4.76684e+06 0 314976 4.77727e+06 0 315679 4.78794e+06 0 316399 4.79886e+06 0 317137 4.81005e+06 0 317893 4.82151e+06 0 318668 4.83326e+06 0 319463 4.84532e+06 0 320278 4.85769e+06 0 321116 4.8704e+06 0 321977 4.88345e+06 0 322862 4.89688e+06 0 323773 4.9107e+06 0 324711 4.92493e+06 0 325678 4.93959e+06 0 326676 4.95473e+06 0 327707 4.97036e+06 0 328772 4.98652e+06 0 329875 5.00325e+06 0 331019 5.0206e+06 0 332207 5.03861e+06 0 333442 5.05735e+06 0 334730 5.07689e+06 0 336076 5.0973e+06 0 337486 5.11868e+06 0 338968 5.14116e+06 0 340531 5.16487e+06 0 342188 5.18999e+06 0 343952 5.21675e+06 0 345843 5.24543e+06 0 347884 5.27638e+06 0 350106 5.31009e+06 0 352550 5.34717e+06 0 355271 5.38843e+06 0 358341 5.43499e+06 0 361858 5.48833e+06 0 342440 4.52224e+06 0 343644 4.52832e+06 0 344876 4.53451e+06 0 346136 4.54081e+06 0 347425 4.54722e+06 0 348745 4.55373e+06 0 350097 4.56037e+06 0 351482 4.56712e+06 0 352901 4.574e+06 0 354355 4.581e+06 0 355846 4.58813e+06 0 357376 4.5954e+06 0 358945 4.60279e+06 0 360556 4.61033e+06 0 362211 4.61801e+06 0 363910 4.62584e+06 0 365657 4.63382e+06 0 367454 4.64196e+06 0 369301 4.65026e+06 0 371203 4.65873e+06 0 373162 4.66737e+06 0 375180 4.67619e+06 0 377260 4.68519e+06 0 379405 4.69438e+06 0 381619 4.70376e+06 0 383906 4.71335e+06 0 386270 4.72315e+06 0 388714 4.73317e+06 0 391243 4.74341e+06 0 393863 4.75388e+06 0 396578 4.7646e+06 0 399395 4.77557e+06 0 402320 4.7868e+06 0 405360 4.7983e+06 0 408523 4.81009e+06 0 411817 4.82217e+06 0 415252 4.83456e+06 0 418838 4.84727e+06 0 422586 4.86031e+06 0 426510 4.87371e+06 0 430622 4.88747e+06 0 434940 4.90162e+06 0 439481 4.91617e+06 0 444264 4.93114e+06 0 449313 4.94655e+06 0 454652 4.96243e+06 0 460312 4.97879e+06 0 466325 4.99566e+06 0 472730 5.01307e+06 0 479571 5.03104e+06 0 486898 5.04959e+06 0 494770 5.06876e+06 0 503256 5.08855e+06 0 512434 5.10898e+06 0 522400 5.13007e+06 0 533260 5.1518e+06 0 545144 5.17415e+06 0 558198 5.19707e+06 0 572598 5.22045e+06 0 588546 5.24412e+06 0 606273 5.26782e+06 0 626047 5.29114e+06 0 648162 5.31346e+06 0 672959 5.33387e+06 0 379777 4.49478e+06 0 381727 4.50071e+06 0 383723 4.50674e+06 0 385768 4.51288e+06 0 387863 4.51912e+06 0 390011 4.52547e+06 0 392213 4.53193e+06 0 394471 4.53851e+06 0 396787 4.5452e+06 0 399164 4.55202e+06 0 401604 4.55895e+06 0 404110 4.56602e+06 0 406685 4.57321e+06 0 409331 4.58054e+06 0 412051 4.588e+06 0 414848 4.5956e+06 0 417727 4.60335e+06 0 420690 4.61124e+06 0 423742 4.61929e+06 0 426886 4.62749e+06 0 430128 4.63584e+06 0 433470 4.64437e+06 0 436920 4.65306e+06 0 440480 4.66192e+06 0 444159 4.67096e+06 0 447961 4.68018e+06 0 451892 4.68959e+06 0 455961 4.6992e+06 0 460174 4.709e+06 0 464539 4.719e+06 0 469065 4.72922e+06 0 473761 4.73965e+06 0 478638 4.7503e+06 0 483705 4.76118e+06 0 488975 4.77229e+06 0 494461 4.78364e+06 0 500175 4.79524e+06 0 506133 4.80709e+06 0 512351 4.81919e+06 0 518846 4.83156e+06 0 525637 4.84419e+06 0 532744 4.8571e+06 0 540191 4.87028e+06 0 548000 4.88375e+06 0 556199 4.89749e+06 0 564816 4.91151e+06 0 573880 4.92581e+06 0 583426 4.94039e+06 0 593489 4.95523e+06 0 604107 4.97033e+06 0 615318 4.98566e+06 0 627166 5.00122e+06 0 639694 5.01696e+06 0 652945 5.03286e+06 0 666962 5.04887e+06 0 681787 5.06495e+06 0 697455 5.08102e+06 0 713996 5.09704e+06 0 731426 5.11292e+06 0 749744 5.12862e+06 0 768928 5.14408e+06 0 788922 5.15933e+06 0 809635 5.17443e+06 0 830919 5.18964e+06 0 411797 4.46512e+06 0 414414 4.47079e+06 0 417095 4.47655e+06 0 419842 4.4824e+06 0 422657 4.48836e+06 0 425543 4.49442e+06 0 428502 4.50058e+06 0 431537 4.50684e+06 0 434651 4.51322e+06 0 437847 4.5197e+06 0 441128 4.5263e+06 0 444497 4.53301e+06 0 447958 4.53983e+06 0 451515 4.54678e+06 0 455171 4.55385e+06 0 458931 4.56104e+06 0 462799 4.56836e+06 0 466779 4.57581e+06 0 470876 4.58339e+06 0 475096 4.59111e+06 0 479444 4.59896e+06 0 483926 4.60695e+06 0 488547 4.61509e+06 0 493314 4.62337e+06 0 498233 4.6318e+06 0 503313 4.64038e+06 0 508560 4.64912e+06 0 513982 4.65801e+06 0 519589 4.66705e+06 0 525389 4.67626e+06 0 531392 4.68563e+06 0 537608 4.69517e+06 0 544047 4.70487e+06 0 550722 4.71473e+06 0 557645 4.72477e+06 0 564828 4.73497e+06 0 572284 4.74535e+06 0 580030 4.75589e+06 0 588079 4.7666e+06 0 596447 4.77747e+06 0 605153 4.7885e+06 0 614212 4.79969e+06 0 623644 4.81104e+06 0 633469 4.82253e+06 0 643705 4.83415e+06 0 654374 4.84591e+06 0 665496 4.85778e+06 0 677093 4.86974e+06 0 689187 4.8818e+06 0 701798 4.89392e+06 0 714947 4.90608e+06 0 728654 4.91826e+06 0 742938 4.93044e+06 0 757816 4.94258e+06 0 773303 4.95466e+06 0 789411 4.96665e+06 0 806150 4.9785e+06 0 823530 4.9902e+06 0 841557 5.0017e+06 0 860237 5.01296e+06 0 879579 5.02393e+06 0 899598 5.03456e+06 0 920317 5.04473e+06 0 941779 5.05426e+06 0 438752 4.43418e+06 0 441953 4.4395e+06 0 445230 4.44491e+06 0 448588 4.45041e+06 0 452028 4.45599e+06 0 455553 4.46167e+06 0 459167 4.46744e+06 0 462873 4.4733e+06 0 466673 4.47926e+06 0 470572 4.48532e+06 0 474572 4.49147e+06 0 478678 4.49772e+06 0 482894 4.50408e+06 0 487224 4.51053e+06 0 491672 4.51709e+06 0 496243 4.52376e+06 0 500941 4.53053e+06 0 505771 4.53741e+06 0 510739 4.5444e+06 0 515851 4.5515e+06 0 521111 4.55871e+06 0 526527 4.56604e+06 0 532104 4.57348e+06 0 537848 4.58103e+06 0 543768 4.5887e+06 0 549870 4.59648e+06 0 556162 4.60439e+06 0 562652 4.6124e+06 0 569348 4.62053e+06 0 576260 4.62878e+06 0 583395 4.63714e+06 0 590765 4.64562e+06 0 598378 4.65421e+06 0 606246 4.6629e+06 0 614379 4.67171e+06 0 622788 4.68061e+06 0 631484 4.68962e+06 0 640481 4.69872e+06 0 649790 4.70791e+06 0 659424 4.71719e+06 0 669396 4.72654e+06 0 679719 4.73596e+06 0 690407 4.74545e+06 0 701472 4.75497e+06 0 712928 4.76454e+06 0 724789 4.77413e+06 0 737068 4.78373e+06 0 749777 4.79333e+06 0 762927 4.8029e+06 0 776532 4.81243e+06 0 790601 4.8219e+06 0 805143 4.83128e+06 0 820167 4.84056e+06 0 835680 4.84971e+06 0 851687 4.85871e+06 0 868192 4.86752e+06 0 885197 4.87612e+06 0 902700 4.88448e+06 0 920697 4.89257e+06 0 939183 4.90036e+06 0 958143 4.90783e+06 0 977561 4.91495e+06 0 997408 4.92173e+06 0 1.01764e+06 4.9282e+06 0 461023 4.40268e+06 0 464723 4.40761e+06 0 468510 4.41262e+06 0 472388 4.41771e+06 0 476359 4.42287e+06 0 480427 4.42811e+06 0 484594 4.43344e+06 0 488865 4.43884e+06 0 493243 4.44432e+06 0 497731 4.44989e+06 0 502333 4.45554e+06 0 507053 4.46127e+06 0 511896 4.46709e+06 0 516865 4.47299e+06 0 521964 4.47897e+06 0 527200 4.48505e+06 0 532576 4.4912e+06 0 538098 4.49745e+06 0 543770 4.50378e+06 0 549598 4.51019e+06 0 555589 4.51669e+06 0 561747 4.52328e+06 0 568078 4.52996e+06 0 574591 4.53671e+06 0 581290 4.54355e+06 0 588182 4.55048e+06 0 595276 4.55748e+06 0 602577 4.56456e+06 0 610095 4.57172e+06 0 617836 4.57896e+06 0 625808 4.58626e+06 0 634020 4.59363e+06 0 642481 4.60107e+06 0 651199 4.60857e+06 0 660183 4.61613e+06 0 669442 4.62373e+06 0 678985 4.63138e+06 0 688822 4.63907e+06 0 698962 4.64678e+06 0 709414 4.65452e+06 0 720187 4.66228e+06 0 731292 4.67003e+06 0 742737 4.67778e+06 0 754530 4.68552e+06 0 766681 4.69322e+06 0 779197 4.70087e+06 0 792087 4.70847e+06 0 805356 4.716e+06 0 819012 4.72344e+06 0 833060 4.73077e+06 0 847505 4.73798e+06 0 862350 4.74505e+06 0 877597 4.75196e+06 0 893248 4.75868e+06 0 909302 4.76521e+06 0 925759 4.77152e+06 0 942615 4.77759e+06 0 959866 4.7834e+06 0 977506 4.78893e+06 0 995528 4.79416e+06 0 1.01393e+06 4.79908e+06 0 1.03269e+06 4.80365e+06 0 1.05183e+06 4.80786e+06 0 1.07132e+06 4.81165e+06 0 479045 4.37119e+06 0 483165 4.3757e+06 0 487380 4.38028e+06 0 491694 4.38492e+06 0 496110 4.38963e+06 0 500630 4.39441e+06 0 505258 4.39925e+06 0 509998 4.40416e+06 0 514853 4.40914e+06 0 519826 4.41419e+06 0 524922 4.4193e+06 0 530145 4.42448e+06 0 535497 4.42973e+06 0 540985 4.43504e+06 0 546611 4.44042e+06 0 552381 4.44587e+06 0 558300 4.45138e+06 0 564371 4.45696e+06 0 570600 4.4626e+06 0 576993 4.46831e+06 0 583554 4.47407e+06 0 590289 4.4799e+06 0 597203 4.48579e+06 0 604303 4.49173e+06 0 611595 4.49773e+06 0 619083 4.50378e+06 0 626776 4.50988e+06 0 634678 4.51603e+06 0 642798 4.52222e+06 0 651141 4.52845e+06 0 659713 4.53471e+06 0 668523 4.54101e+06 0 677577 4.54733e+06 0 686882 4.55367e+06 0 696444 4.56002e+06 0 706272 4.56639e+06 0 716371 4.57275e+06 0 726750 4.57911e+06 0 737414 4.58546e+06 0 748370 4.59178e+06 0 759626 4.59807e+06 0 771186 4.60431e+06 0 783058 4.61051e+06 0 795245 4.61663e+06 0 807755 4.62268e+06 0 820590 4.62865e+06 0 833756 4.63451e+06 0 847256 4.64025e+06 0 861091 4.64587e+06 0 875266 4.65134e+06 0 889780 4.65665e+06 0 904633 4.66179e+06 0 919827 4.66674e+06 0 935358 4.67148e+06 0 951224 4.676e+06 0 967422 4.68027e+06 0 983947 4.6843e+06 0 1.00079e+06 4.68805e+06 0 1.01796e+06 4.69151e+06 0 1.03543e+06 4.69466e+06 0 1.05319e+06 4.6975e+06 0 1.07125e+06 4.7e+06 0 1.08957e+06 4.70215e+06 0 1.10815e+06 4.70395e+06 0 493260 4.34011e+06 0 497730 4.34419e+06 0 502301 4.34832e+06 0 506977 4.35251e+06 0 511759 4.35675e+06 0 516652 4.36105e+06 0 521658 4.3654e+06 0 526782 4.3698e+06 0 532025 4.37426e+06 0 537393 4.37877e+06 0 542888 4.38334e+06 0 548515 4.38795e+06 0 554277 4.39262e+06 0 560178 4.39734e+06 0 566222 4.40211e+06 0 572415 4.40692e+06 0 578759 4.41179e+06 0 585260 4.4167e+06 0 591922 4.42165e+06 0 598750 4.42665e+06 0 605749 4.43168e+06 0 612923 4.43675e+06 0 620278 4.44186e+06 0 627818 4.447e+06 0 635550 4.45218e+06 0 643477 4.45737e+06 0 651607 4.46259e+06 0 659943 4.46783e+06 0 668492 4.47309e+06 0 677259 4.47835e+06 0 686249 4.48363e+06 0 695469 4.4889e+06 0 704923 4.49416e+06 0 714617 4.49942e+06 0 724557 4.50465e+06 0 734747 4.50987e+06 0 745193 4.51504e+06 0 755900 4.52018e+06 0 766873 4.52527e+06 0 778115 4.53031e+06 0 789633 4.53528e+06 0 801428 4.54017e+06 0 813506 4.54497e+06 0 825868 4.54968e+06 0 838518 4.55428e+06 0 851459 4.55876e+06 0 864691 4.56311e+06 0 878216 4.56732e+06 0 892034 4.57137e+06 0 906145 4.57525e+06 0 920549 4.57895e+06 0 935243 4.58246e+06 0 950225 4.58575e+06 0 965492 4.58883e+06 0 981040 4.59167e+06 0 996864 4.59426e+06 0 1.01296e+06 4.59659e+06 0 1.02932e+06 4.59864e+06 0 1.04593e+06 4.60041e+06 0 1.0628e+06 4.60188e+06 0 1.0799e+06 4.60303e+06 0 1.09724e+06 4.60386e+06 0 1.11479e+06 4.60436e+06 0 1.13256e+06 4.6045e+06 0 504095 4.30974e+06 0 508854 4.31338e+06 0 513717 4.31706e+06 0 518688 4.32078e+06 0 523770 4.32455e+06 0 528966 4.32837e+06 0 534278 4.33222e+06 0 539711 4.33612e+06 0 545267 4.34006e+06 0 550951 4.34404e+06 0 556764 4.34806e+06 0 562712 4.35211e+06 0 568797 4.35621e+06 0 575023 4.36033e+06 0 581395 4.3645e+06 0 587915 4.36869e+06 0 594589 4.37292e+06 0 601419 4.37717e+06 0 608411 4.38145e+06 0 615569 4.38575e+06 0 622896 4.39007e+06 0 630397 4.39442e+06 0 638077 4.39877e+06 0 645939 4.40314e+06 0 653989 4.40752e+06 0 662231 4.4119e+06 0 670669 4.41628e+06 0 679308 4.42066e+06 0 688153 4.42503e+06 0 697207 4.42939e+06 0 706476 4.43373e+06 0 715963 4.43804e+06 0 725673 4.44232e+06 0 735610 4.44657e+06 0 745777 4.45077e+06 0 756180 4.45493e+06 0 766821 4.45902e+06 0 777704 4.46305e+06 0 788833 4.467e+06 0 800209 4.47088e+06 0 811835 4.47466e+06 0 823715 4.47834e+06 0 835849 4.48191e+06 0 848240 4.48536e+06 0 860888 4.48868e+06 0 873793 4.49187e+06 0 886956 4.4949e+06 0 900377 4.49777e+06 0 914054 4.50046e+06 0 927985 4.50298e+06 0 942169 4.50529e+06 0 956602 4.5074e+06 0 971281 4.50929e+06 0 986202 4.51096e+06 0 1.00136e+06 4.51238e+06 0 1.01675e+06 4.51355e+06 0 1.03237e+06 4.51445e+06 0 1.0482e+06 4.51509e+06 0 1.06424e+06 4.51543e+06 0 1.08049e+06 4.51549e+06 0 1.09693e+06 4.51523e+06 0 1.11356e+06 4.51467e+06 0 1.13036e+06 4.51378e+06 0 1.14733e+06 4.51256e+06 0 511945 4.28026e+06 0 516938 4.28346e+06 0 522039 4.2867e+06 0 527249 4.28997e+06 0 532572 4.29327e+06 0 538011 4.29661e+06 0 543569 4.29998e+06 0 549248 4.30337e+06 0 555052 4.3068e+06 0 560984 4.31026e+06 0 567048 4.31374e+06 0 573246 4.31725e+06 0 579582 4.32078e+06 0 586059 4.32433e+06 0 592681 4.3279e+06 0 599452 4.33149e+06 0 606374 4.3351e+06 0 613452 4.33872e+06 0 620690 4.34235e+06 0 628090 4.34598e+06 0 635658 4.34962e+06 0 643396 4.35327e+06 0 651308 4.35691e+06 0 659398 4.36054e+06 0 667670 4.36416e+06 0 676128 4.36777e+06 0 684775 4.37137e+06 0 693615 4.37493e+06 0 702651 4.37848e+06 0 711888 4.38198e+06 0 721328 4.38545e+06 0 730975 4.38888e+06 0 740832 4.39225e+06 0 750902 4.39557e+06 0 761189 4.39882e+06 0 771694 4.40201e+06 0 782420 4.40511e+06 0 793369 4.40813e+06 0 804544 4.41106e+06 0 815945 4.41389e+06 0 827575 4.41661e+06 0 839434 4.41921e+06 0 851523 4.42168e+06 0 863842 4.42401e+06 0 876391 4.42621e+06 0 889169 4.42824e+06 0 902175 4.43011e+06 0 915407 4.43181e+06 0 928864 4.43333e+06 0 942543 4.43465e+06 0 956441 4.43577e+06 0 970553 4.43667e+06 0 984876 4.43735e+06 0 999406 4.4378e+06 0 1.01414e+06 4.438e+06 0 1.02906e+06 4.43796e+06 0 1.04417e+06 4.43765e+06 0 1.05947e+06 4.43707e+06 0 1.07494e+06 4.43621e+06 0 1.09057e+06 4.43507e+06 0 1.10636e+06 4.43363e+06 0 1.12231e+06 4.43188e+06 0 1.13839e+06 4.42983e+06 0 1.1546e+06 4.42745e+06 0 517167 4.25182e+06 0 522349 4.25459e+06 0 527639 4.25739e+06 0 533041 4.26021e+06 0 538555 4.26306e+06 0 544187 4.26593e+06 0 549937 4.26882e+06 0 555809 4.27173e+06 0 561806 4.27466e+06 0 567931 4.2776e+06 0 574187 4.28057e+06 0 580577 4.28354e+06 0 587104 4.28653e+06 0 593770 4.28953e+06 0 600580 4.29253e+06 0 607536 4.29554e+06 0 614642 4.29855e+06 0 621900 4.30156e+06 0 629315 4.30457e+06 0 636888 4.30757e+06 0 644625 4.31056e+06 0 652526 4.31354e+06 0 660597 4.3165e+06 0 668840 4.31944e+06 0 677257 4.32235e+06 0 685853 4.32524e+06 0 694631 4.32809e+06 0 703592 4.3309e+06 0 712741 4.33367e+06 0 722079 4.33639e+06 0 731610 4.33905e+06 0 741335 4.34165e+06 0 751258 4.34419e+06 0 761380 4.34665e+06 0 771703 4.34904e+06 0 782229 4.35134e+06 0 792959 4.35354e+06 0 803896 4.35565e+06 0 815038 4.35765e+06 0 826389 4.35953e+06 0 837946 4.36129e+06 0 849712 4.36292e+06 0 861684 4.36441e+06 0 873864 4.36575e+06 0 886249 4.36694e+06 0 898837 4.36796e+06 0 911628 4.36881e+06 0 924619 4.36947e+06 0 937806 4.36995e+06 0 951187 4.37023e+06 0 964758 4.37029e+06 0 978515 4.37015e+06 0 992452 4.36977e+06 0 1.00657e+06 4.36917e+06 0 1.02085e+06 4.36832e+06 0 1.0353e+06 4.36722e+06 0 1.0499e+06 4.36586e+06 0 1.06466e+06 4.36424e+06 0 1.07956e+06 4.36235e+06 0 1.09459e+06 4.36017e+06 0 1.10976e+06 4.35771e+06 0 1.12504e+06 4.35496e+06 0 1.14043e+06 4.35191e+06 0 1.15592e+06 4.34855e+06 0 520082 4.22449e+06 0 525413 4.22684e+06 0 530852 4.22921e+06 0 536403 4.2316e+06 0 542067 4.234e+06 0 547848 4.23641e+06 0 553746 4.23884e+06 0 559767 4.24128e+06 0 565911 4.24373e+06 0 572181 4.24619e+06 0 578582 4.24865e+06 0 585114 4.25111e+06 0 591781 4.25358e+06 0 598586 4.25604e+06 0 605531 4.2585e+06 0 612620 4.26095e+06 0 619855 4.2634e+06 0 627239 4.26583e+06 0 634774 4.26824e+06 0 642464 4.27064e+06 0 650312 4.27302e+06 0 658319 4.27537e+06 0 666489 4.27769e+06 0 674824 4.27997e+06 0 683327 4.28222e+06 0 692001 4.28443e+06 0 700847 4.28658e+06 0 709868 4.28869e+06 0 719067 4.29074e+06 0 728445 4.29272e+06 0 738003 4.29464e+06 0 747745 4.29649e+06 0 757672 4.29825e+06 0 767784 4.29993e+06 0 778083 4.30152e+06 0 788570 4.30301e+06 0 799246 4.3044e+06 0 810111 4.30567e+06 0 821165 4.30683e+06 0 832409 4.30786e+06 0 843841 4.30875e+06 0 855461 4.30951e+06 0 867269 4.31011e+06 0 879262 4.31056e+06 0 891439 4.31085e+06 0 903797 4.31097e+06 0 916335 4.31091e+06 0 929049 4.31066e+06 0 941936 4.31021e+06 0 954992 4.30957e+06 0 968213 4.30871e+06 0 981595 4.30764e+06 0 995132 4.30634e+06 0 1.00882e+06 4.30481e+06 0 1.02265e+06 4.30304e+06 0 1.03662e+06 4.30102e+06 0 1.05072e+06 4.29875e+06 0 1.06495e+06 4.29622e+06 0 1.07929e+06 4.29343e+06 0 1.09375e+06 4.29036e+06 0 1.1083e+06 4.28702e+06 0 1.12295e+06 4.2834e+06 0 1.13769e+06 4.27948e+06 0 1.1525e+06 4.27528e+06 0 520970 4.19831e+06 0 526417 4.20025e+06 0 531972 4.20221e+06 0 537637 4.20417e+06 0 543415 4.20614e+06 0 549307 4.20812e+06 0 555318 4.2101e+06 0 561448 4.21209e+06 0 567700 4.21407e+06 0 574077 4.21606e+06 0 580581 4.21804e+06 0 587215 4.22001e+06 0 593981 4.22198e+06 0 600882 4.22393e+06 0 607920 4.22587e+06 0 615097 4.2278e+06 0 622417 4.2297e+06 0 629881 4.23158e+06 0 637492 4.23344e+06 0 645253 4.23527e+06 0 653165 4.23706e+06 0 661231 4.23882e+06 0 669453 4.24054e+06 0 677833 4.24221e+06 0 686374 4.24383e+06 0 695077 4.2454e+06 0 703944 4.24691e+06 0 712976 4.24836e+06 0 722176 4.24974e+06 0 731546 4.25105e+06 0 741085 4.25228e+06 0 750796 4.25342e+06 0 760678 4.25448e+06 0 770734 4.25543e+06 0 780964 4.25629e+06 0 791368 4.25704e+06 0 801945 4.25768e+06 0 812696 4.25819e+06 0 823621 4.25858e+06 0 834719 4.25883e+06 0 845988 4.25895e+06 0 857427 4.25891e+06 0 869036 4.25872e+06 0 880811 4.25837e+06 0 892750 4.25785e+06 0 904852 4.25716e+06 0 917112 4.25628e+06 0 929528 4.25521e+06 0 942096 4.25395e+06 0 954812 4.25248e+06 0 967672 4.25081e+06 0 980669 4.24891e+06 0 993801 4.2468e+06 0 1.00706e+06 4.24445e+06 0 1.02044e+06 4.24187e+06 0 1.03394e+06 4.23904e+06 0 1.04755e+06 4.23597e+06 0 1.06126e+06 4.23264e+06 0 1.07507e+06 4.22906e+06 0 1.08896e+06 4.22521e+06 0 1.10294e+06 4.2211e+06 0 1.11698e+06 4.21671e+06 0 1.1311e+06 4.21205e+06 0 1.14527e+06 4.20711e+06 0 520083 4.17329e+06 0 525616 4.17484e+06 0 531257 4.1764e+06 0 537006 4.17795e+06 0 542867 4.17951e+06 0 548841 4.18107e+06 0 554931 4.18262e+06 0 561139 4.18417e+06 0 567467 4.18571e+06 0 573917 4.18724e+06 0 580492 4.18876e+06 0 587193 4.19027e+06 0 594024 4.19176e+06 0 600985 4.19323e+06 0 608080 4.19467e+06 0 615311 4.1961e+06 0 622679 4.19749e+06 0 630187 4.19885e+06 0 637836 4.20018e+06 0 645630 4.20147e+06 0 653569 4.20271e+06 0 661656 4.20391e+06 0 669892 4.20506e+06 0 678279 4.20616e+06 0 686819 4.2072e+06 0 695513 4.20817e+06 0 704362 4.20908e+06 0 713369 4.20992e+06 0 722533 4.21067e+06 0 731856 4.21135e+06 0 741339 4.21194e+06 0 750982 4.21244e+06 0 760786 4.21283e+06 0 770751 4.21313e+06 0 780877 4.21331e+06 0 791163 4.21338e+06 0 801610 4.21333e+06 0 812217 4.21315e+06 0 822983 4.21284e+06 0 833906 4.21239e+06 0 844985 4.21179e+06 0 856219 4.21104e+06 0 867605 4.21012e+06 0 879141 4.20905e+06 0 890824 4.2078e+06 0 902651 4.20638e+06 0 914619 4.20476e+06 0 926725 4.20296e+06 0 938964 4.20097e+06 0 951333 4.19876e+06 0 963826 4.19635e+06 0 976438 4.19373e+06 0 989165 4.19088e+06 0 1.002e+06 4.18781e+06 0 1.01494e+06 4.1845e+06 0 1.02798e+06 4.18096e+06 0 1.0411e+06 4.17718e+06 0 1.05431e+06 4.17315e+06 0 1.0676e+06 4.16887e+06 0 1.08096e+06 4.16433e+06 0 1.09438e+06 4.15954e+06 0 1.10786e+06 4.15448e+06 0 1.12138e+06 4.14916e+06 0 1.13494e+06 4.14357e+06 0 517637 4.14943e+06 0 523233 4.1506e+06 0 528934 4.15178e+06 0 534742 4.15294e+06 0 540661 4.1541e+06 0 546690 4.15526e+06 0 552833 4.1564e+06 0 559091 4.15753e+06 0 565467 4.15864e+06 0 571963 4.15974e+06 0 578580 4.16082e+06 0 585320 4.16188e+06 0 592186 4.16292e+06 0 599179 4.16392e+06 0 606302 4.1649e+06 0 613556 4.16585e+06 0 620942 4.16675e+06 0 628464 4.16762e+06 0 636122 4.16845e+06 0 643918 4.16923e+06 0 651853 4.16996e+06 0 659930 4.17063e+06 0 668150 4.17125e+06 0 676513 4.17181e+06 0 685022 4.1723e+06 0 693677 4.17271e+06 0 702479 4.17306e+06 0 711429 4.17332e+06 0 720528 4.1735e+06 0 729776 4.17359e+06 0 739174 4.17359e+06 0 748722 4.17348e+06 0 758420 4.17327e+06 0 768267 4.17296e+06 0 778264 4.17252e+06 0 788409 4.17196e+06 0 798702 4.17128e+06 0 809141 4.17046e+06 0 819726 4.16951e+06 0 830455 4.16841e+06 0 841326 4.16716e+06 0 852336 4.16576e+06 0 863484 4.16419e+06 0 874767 4.16245e+06 0 886181 4.16055e+06 0 897725 4.15846e+06 0 909393 4.15618e+06 0 921182 4.15372e+06 0 933088 4.15106e+06 0 945107 4.1482e+06 0 957234 4.14513e+06 0 969464 4.14184e+06 0 981792 4.13834e+06 0 994212 4.13462e+06 0 1.00672e+06 4.13067e+06 0 1.01931e+06 4.12649e+06 0 1.03197e+06 4.12207e+06 0 1.0447e+06 4.11741e+06 0 1.05749e+06 4.11251e+06 0 1.07033e+06 4.10736e+06 0 1.08322e+06 4.10197e+06 0 1.09615e+06 4.09632e+06 0 1.10911e+06 4.09041e+06 0 1.1221e+06 4.08425e+06 0 513825 4.12671e+06 0 519461 4.12752e+06 0 525202 4.12833e+06 0 531048 4.12912e+06 0 537001 4.1299e+06 0 543064 4.13066e+06 0 549237 4.13141e+06 0 555523 4.13214e+06 0 561924 4.13285e+06 0 568442 4.13353e+06 0 575077 4.1342e+06 0 581833 4.13483e+06 0 588710 4.13543e+06 0 595711 4.136e+06 0 602836 4.13653e+06 0 610089 4.13702e+06 0 617469 4.13747e+06 0 624979 4.13787e+06 0 632620 4.13822e+06 0 640394 4.13852e+06 0 648302 4.13877e+06 0 656344 4.13895e+06 0 664522 4.13906e+06 0 672838 4.13911e+06 0 681291 4.13909e+06 0 689883 4.13898e+06 0 698614 4.1388e+06 0 707484 4.13853e+06 0 716495 4.13817e+06 0 725646 4.13771e+06 0 734936 4.13716e+06 0 744367 4.1365e+06 0 753938 4.13572e+06 0 763648 4.13484e+06 0 773496 4.13383e+06 0 783481 4.13269e+06 0 793602 4.13143e+06 0 803859 4.13003e+06 0 814248 4.12848e+06 0 824768 4.12679e+06 0 835418 4.12494e+06 0 846194 4.12294e+06 0 857094 4.12077e+06 0 868115 4.11844e+06 0 879254 4.11592e+06 0 890507 4.11323e+06 0 901872 4.11036e+06 0 913343 4.10729e+06 0 924916 4.10403e+06 0 936588 4.10057e+06 0 948353 4.0969e+06 0 960206 4.09302e+06 0 972142 4.08893e+06 0 984156 4.08463e+06 0 996242 4.08009e+06 0 1.00839e+06 4.07534e+06 0 1.0206e+06 4.07035e+06 0 1.03287e+06 4.06513e+06 0 1.04518e+06 4.05967e+06 0 1.05753e+06 4.05398e+06 0 1.06992e+06 4.04804e+06 0 1.08233e+06 4.04186e+06 0 1.09476e+06 4.03543e+06 0 1.1072e+06 4.02876e+06 0 508813 4.10511e+06 0 514473 4.10557e+06 0 520235 4.10602e+06 0 526099 4.10645e+06 0 532069 4.10686e+06 0 538146 4.10725e+06 0 544330 4.10763e+06 0 550625 4.10797e+06 0 557031 4.10829e+06 0 563551 4.10859e+06 0 570185 4.10885e+06 0 576936 4.10907e+06 0 583804 4.10926e+06 0 590792 4.10941e+06 0 597900 4.10952e+06 0 605131 4.10958e+06 0 612485 4.1096e+06 0 619963 4.10956e+06 0 627567 4.10946e+06 0 635298 4.10931e+06 0 643157 4.10909e+06 0 651145 4.10881e+06 0 659262 4.10845e+06 0 667510 4.10802e+06 0 675888 4.10751e+06 0 684397 4.10692e+06 0 693038 4.10625e+06 0 701810 4.10548e+06 0 710715 4.10461e+06 0 719750 4.10364e+06 0 728917 4.10257e+06 0 738215 4.10139e+06 0 747643 4.1001e+06 0 757200 4.09868e+06 0 766885 4.09714e+06 0 776697 4.09547e+06 0 786634 4.09367e+06 0 796695 4.09172e+06 0 806878 4.08963e+06 0 817181 4.0874e+06 0 827601 4.085e+06 0 838135 4.08245e+06 0 848781 4.07973e+06 0 859536 4.07684e+06 0 870397 4.07378e+06 0 881359 4.07054e+06 0 892419 4.06711e+06 0 903573 4.0635e+06 0 914816 4.05969e+06 0 926145 4.05568e+06 0 937554 4.05147e+06 0 949038 4.04706e+06 0 960592 4.04243e+06 0 972211 4.03759e+06 0 983888 4.03253e+06 0 995619 4.02726e+06 0 1.0074e+06 4.02176e+06 0 1.01922e+06 4.01603e+06 0 1.03107e+06 4.01007e+06 0 1.04295e+06 4.00388e+06 0 1.05486e+06 3.99746e+06 0 1.06677e+06 3.9908e+06 0 1.0787e+06 3.9839e+06 0 1.09063e+06 3.97677e+06 0 502751 4.08459e+06 0 508418 4.08471e+06 0 514185 4.08482e+06 0 520052 4.0849e+06 0 526022 4.08496e+06 0 532096 4.085e+06 0 538276 4.08501e+06 0 544562 4.08499e+06 0 550957 4.08494e+06 0 557462 4.08486e+06 0 564078 4.08474e+06 0 570807 4.08458e+06 0 577650 4.08438e+06 0 584608 4.08413e+06 0 591682 4.08384e+06 0 598874 4.08349e+06 0 606184 4.08309e+06 0 613614 4.08263e+06 0 621164 4.08211e+06 0 628836 4.08153e+06 0 636630 4.08088e+06 0 644547 4.08015e+06 0 652586 4.07935e+06 0 660750 4.07847e+06 0 669037 4.07751e+06 0 677449 4.07646e+06 0 685985 4.07532e+06 0 694645 4.07408e+06 0 703428 4.07275e+06 0 712335 4.0713e+06 0 721365 4.06975e+06 0 730517 4.06809e+06 0 739790 4.0663e+06 0 749183 4.06439e+06 0 758695 4.06236e+06 0 768324 4.06019e+06 0 778068 4.05789e+06 0 787926 4.05544e+06 0 797895 4.05285e+06 0 807974 4.05011e+06 0 818159 4.04721e+06 0 828448 4.04415e+06 0 838837 4.04092e+06 0 849324 4.03753e+06 0 859905 4.03396e+06 0 870577 4.03021e+06 0 881334 4.02628e+06 0 892174 4.02216e+06 0 903093 4.01785e+06 0 914084 4.01334e+06 0 925144 4.00864e+06 0 936268 4.00373e+06 0 947450 3.99862e+06 0 958685 3.99329e+06 0 969968 3.98776e+06 0 981293 3.98201e+06 0 992654 3.97604e+06 0 1.00405e+06 3.96985e+06 0 1.01546e+06 3.96344e+06 0 1.02689e+06 3.9568e+06 0 1.03834e+06 3.94994e+06 0 1.04979e+06 3.94285e+06 0 1.06123e+06 3.93553e+06 0 1.07267e+06 3.92799e+06 0 495766 4.06511e+06 0 501427 4.06491e+06 0 507185 4.06469e+06 0 513042 4.06444e+06 0 518999 4.06417e+06 0 525056 4.06386e+06 0 531217 4.06353e+06 0 537481 4.06316e+06 0 543851 4.06276e+06 0 550327 4.06231e+06 0 556911 4.06183e+06 0 563603 4.0613e+06 0 570406 4.06073e+06 0 577320 4.0601e+06 0 584345 4.05942e+06 0 591484 4.05869e+06 0 598737 4.0579e+06 0 606104 4.05704e+06 0 613587 4.05612e+06 0 621185 4.05513e+06 0 628900 4.05407e+06 0 636732 4.05293e+06 0 644682 4.05171e+06 0 652748 4.05041e+06 0 660933 4.04902e+06 0 669234 4.04753e+06 0 677653 4.04596e+06 0 686188 4.04428e+06 0 694840 4.0425e+06 0 703608 4.04061e+06 0 712491 4.03861e+06 0 721487 4.03649e+06 0 730597 4.03425e+06 0 739817 4.03188e+06 0 749148 4.02939e+06 0 758587 4.02676e+06 0 768132 4.02399e+06 0 777782 4.02107e+06 0 787533 4.01801e+06 0 797384 4.0148e+06 0 807331 4.01143e+06 0 817372 4.0079e+06 0 827504 4.00421e+06 0 837724 4.00034e+06 0 848026 3.9963e+06 0 858409 3.99209e+06 0 868868 3.98769e+06 0 879399 3.98311e+06 0 889998 3.97834e+06 0 900659 3.97338e+06 0 911379 3.96822e+06 0 922152 3.96286e+06 0 932973 3.9573e+06 0 943837 3.95153e+06 0 954738 3.94556e+06 0 965672 3.93938e+06 0 976632 3.93298e+06 0 987612 3.92637e+06 0 998607 3.91955e+06 0 1.00961e+06 3.9125e+06 0 1.02062e+06 3.90524e+06 0 1.03162e+06 3.89776e+06 0 1.04261e+06 3.89006e+06 0 1.05358e+06 3.88213e+06 0 487972 4.04663e+06 0 493616 4.04612e+06 0 499354 4.04558e+06 0 505188 4.04502e+06 0 511119 4.04442e+06 0 517149 4.0438e+06 0 523278 4.04313e+06 0 529508 4.04243e+06 0 535840 4.04169e+06 0 542275 4.0409e+06 0 548814 4.04007e+06 0 555459 4.03919e+06 0 562209 4.03826e+06 0 569067 4.03727e+06 0 576032 4.03623e+06 0 583106 4.03513e+06 0 590289 4.03396e+06 0 597582 4.03273e+06 0 604985 4.03143e+06 0 612499 4.03005e+06 0 620125 4.0286e+06 0 627861 4.02707e+06 0 635709 4.02545e+06 0 643669 4.02375e+06 0 651739 4.02196e+06 0 659921 4.02007e+06 0 668213 4.01808e+06 0 676615 4.01599e+06 0 685127 4.01379e+06 0 693747 4.01148e+06 0 702475 4.00905e+06 0 711309 4.00651e+06 0 720248 4.00384e+06 0 729290 4.00105e+06 0 738434 3.99812e+06 0 747678 3.99506e+06 0 757020 3.99185e+06 0 766458 3.98851e+06 0 775988 3.98501e+06 0 785610 3.98136e+06 0 795318 3.97756e+06 0 805112 3.97359e+06 0 814987 3.96946e+06 0 824940 3.96516e+06 0 834968 3.96069e+06 0 845066 3.95604e+06 0 855231 3.95121e+06 0 865458 3.9462e+06 0 875743 3.94101e+06 0 886082 3.93562e+06 0 896470 3.93004e+06 0 906902 3.92427e+06 0 917373 3.9183e+06 0 927877 3.91212e+06 0 938411 3.90575e+06 0 948967 3.89917e+06 0 959541 3.89238e+06 0 970127 3.88539e+06 0 980719 3.87818e+06 0 991311 3.87076e+06 0 1.0019e+06 3.86314e+06 0 1.01247e+06 3.8553e+06 0 1.02303e+06 3.84724e+06 0 1.03356e+06 3.83897e+06 0 479470 4.02911e+06 0 485086 4.02831e+06 0 490793 4.02747e+06 0 496594 4.0266e+06 0 502490 4.0257e+06 0 508481 4.02476e+06 0 514569 4.02377e+06 0 520754 4.02275e+06 0 527038 4.02169e+06 0 533422 4.02057e+06 0 539906 4.01941e+06 0 546492 4.01819e+06 0 553180 4.01692e+06 0 559971 4.01559e+06 0 566866 4.0142e+06 0 573865 4.01275e+06 0 580968 4.01123e+06 0 588177 4.00964e+06 0 595492 4.00798e+06 0 602912 4.00624e+06 0 610438 4.00442e+06 0 618070 4.00251e+06 0 625808 4.00052e+06 0 633651 3.99844e+06 0 641600 3.99626e+06 0 649654 3.99399e+06 0 657812 3.99161e+06 0 666074 3.98913e+06 0 674439 3.98654e+06 0 682905 3.98383e+06 0 691472 3.98101e+06 0 700137 3.97807e+06 0 708901 3.975e+06 0 717761 3.9718e+06 0 726715 3.96847e+06 0 735761 3.965e+06 0 744897 3.96139e+06 0 754121 3.95764e+06 0 763430 3.95373e+06 0 772821 3.94968e+06 0 782291 3.94546e+06 0 791838 3.94109e+06 0 801458 3.93655e+06 0 811148 3.93185e+06 0 820903 3.92697e+06 0 830721 3.92192e+06 0 840597 3.9167e+06 0 850526 3.91129e+06 0 860506 3.9057e+06 0 870530 3.89992e+06 0 880595 3.89395e+06 0 890696 3.88779e+06 0 900827 3.88144e+06 0 910984 3.87489e+06 0 921162 3.86815e+06 0 931355 3.8612e+06 0 941557 3.85405e+06 0 951764 3.8467e+06 0 961970 3.83915e+06 0 972169 3.83139e+06 0 982356 3.82342e+06 0 992524 3.81525e+06 0 1.00267e+06 3.80687e+06 0 1.01278e+06 3.79829e+06 0 470348 4.01251e+06 0 475927 4.01142e+06 0 481595 4.0103e+06 0 487354 4.00914e+06 0 493205 4.00794e+06 0 499149 4.0067e+06 0 505186 4.00542e+06 0 511317 4.00409e+06 0 517545 4.00271e+06 0 523868 4.00128e+06 0 530288 3.9998e+06 0 536807 3.99827e+06 0 543424 3.99667e+06 0 550139 3.99502e+06 0 556955 3.9933e+06 0 563870 3.99151e+06 0 570886 3.98965e+06 0 578003 3.98772e+06 0 585220 3.98571e+06 0 592538 3.98363e+06 0 599958 3.98145e+06 0 607478 3.9792e+06 0 615098 3.97685e+06 0 622819 3.97441e+06 0 630640 3.97187e+06 0 638559 3.96923e+06 0 646577 3.96649e+06 0 654693 3.96364e+06 0 662905 3.96067e+06 0 671213 3.9576e+06 0 679614 3.9544e+06 0 688108 3.95108e+06 0 696693 3.94763e+06 0 705367 3.94405e+06 0 714128 3.94034e+06 0 722974 3.93649e+06 0 731903 3.9325e+06 0 740912 3.92837e+06 0 749999 3.92408e+06 0 759161 3.91964e+06 0 768394 3.91505e+06 0 777696 3.91029e+06 0 787064 3.90538e+06 0 796493 3.90029e+06 0 805981 3.89504e+06 0 815523 3.88962e+06 0 825115 3.88402e+06 0 834754 3.87824e+06 0 844434 3.87228e+06 0 854152 3.86614e+06 0 863903 3.85981e+06 0 873682 3.8532