<?xml version="1.0"?> 
<VTKFile type="StructuredGrid" version="0.1"> 
<StructuredGrid WholeExtent="0 63 0 63 0 0"> 
<Piece Extent="0 63 0 63 0 0"> 
<PointData>
<DataArray type="Float32" Name="|E|" format="ascii" NumberOfComponents="3"> 
-1.28875e+06 0 0 -1.28879e+06 15141.8 0 -1.28891e+06 30284.9 0 -1.28912e+06 45430.6 0 -1.2894e+06 60580 0 -1.28977e+06 75734.4 0 -1.29022e+06 90895.1 0 -1.29075e+06 106063 0 -1.29137e+06 121241 0 -1.29206e+06 136428 0 -1.29283e+06 151626 0 -1.29369e+06 166837 0 -1.29463e+06 182062 0 -1.29564e+06 197302 0 -1.29674e+06 212558 0 -1.29792e+06 227831 0 -1.29918e+06 243123 0 -1.30052e+06 258435 0 -1.30193e+06 273768 0 -1.30343e+06 289123 0 -1.30501e+06 304502 0 -1.30666e+06 319905 0 -1.3084e+06 335334 0 -1.31021e+06 350789 0 -1.3121e+06 366273 0 -1.31407e+06 381786 0 -1.31612e+06 397328 0 -1.31824e+06 412902 0 -1.32044e+06 428509 0 -1.32271e+06 444148 0 -1.32507e+06 459822 0 -1.32749e+06 475532 0 -1.33e+06 491277 0 -1.33257e+06 507060 0 -1.33522e+06 522881 0 -1.33795e+06 538741 0 -1.34075e+06 554640 0 -1.34362e+06 570581 0 -1.34656e+06 586563 0 -1.34958e+06 602587 0 -1.35267e+06 618654 0 -1.35582e+06 634765 0 -1.35905e+06 650920 0 -1.36235e+06 667120 0 -1.36572e+06 683366 0 -1.36915e+06 699657 0 -1.37266e+06 715995 0 -1.37623e+06 732379 0 -1.37987e+06 748811 0 -1.38357e+06 765290 0 -1.38734e+06 781816 0 -1.39118e+06 798391 0 -1.39508e+06 815013 0 -1.39905e+06 831683 0 -1.40308e+06 848400 0 -1.40718e+06 865165 0 -1.41134e+06 881978 0 -1.41556e+06 898838 0 -1.41984e+06 915744 0 -1.42419e+06 932696 0 -1.4286e+06 949694 0 -1.43307e+06 966737 0 -1.4376e+06 983824 0 -1.44219e+06 1.00095e+06 0 -1.28244e+06 0 0 -1.28248e+06 15155.1 0 -1.2826e+06 30311.5 0 -1.2828e+06 45470.4 0 -1.28308e+06 60633.1 0 -1.28344e+06 75800.8 0 -1.28388e+06 90974.8 0 -1.2844e+06 106156 0 -1.285e+06 121347 0 -1.28569e+06 136547 0 -1.28645e+06 151759 0 -1.28729e+06 166983 0 -1.28822e+06 182220 0 -1.28922e+06 197473 0 -1.29031e+06 212742 0 -1.29147e+06 228028 0 -1.29271e+06 243333 0 -1.29403e+06 258657 0 -1.29544e+06 274002 0 -1.29692e+06 289370 0 -1.29847e+06 304760 0 -1.30011e+06 320175 0 -1.30182e+06 335616 0 -1.30362e+06 351083 0 -1.30549e+06 366578 0 -1.30743e+06 382101 0 -1.30946e+06 397655 0 -1.31156e+06 413240 0 -1.31373e+06 428856 0 -1.31599e+06 444506 0 -1.31831e+06 460190 0 -1.32071e+06 475909 0 -1.32319e+06 491663 0 -1.32574e+06 507455 0 -1.32837e+06 523285 0 -1.33106e+06 539153 0 -1.33383e+06 555061 0 -1.33668e+06 571009 0 -1.33959e+06 586999 0 -1.34258e+06 603030 0 -1.34563e+06 619104 0 -1.34876e+06 635221 0 -1.35195e+06 651382 0 -1.35522e+06 667588 0 -1.35856e+06 683839 0 -1.36196e+06 700136 0 -1.36543e+06 716478 0 -1.36897e+06 732867 0 -1.37257e+06 749303 0 -1.37625e+06 765785 0 -1.37998e+06 782315 0 -1.38379e+06 798893 0 -1.38765e+06 815518 0 -1.39159e+06 832190 0 -1.39558e+06 848910 0 -1.39964e+06 865677 0 -1.40376e+06 882492 0 -1.40795e+06 899353 0 -1.4122e+06 916261 0 -1.41651e+06 933215 0 -1.42088e+06 950214 0 -1.42532e+06 967258 0 -1.42982e+06 984346 0 -1.43438e+06 1.00148e+06 0 -1.27612e+06 0 0 -1.27615e+06 15168 0 -1.27627e+06 30337.4 0 -1.27646e+06 45509.2 0 -1.27673e+06 60684.9 0 -1.27709e+06 75865.7 0 -1.27752e+06 91052.7 0 -1.27803e+06 106247 0 -1.27863e+06 121450 0 -1.2793e+06 136664 0 -1.28005e+06 151888 0 -1.28088e+06 167125 0 -1.2818e+06 182375 0 -1.28279e+06 197641 0 -1.28386e+06 212922 0 -1.28501e+06 228220 0 -1.28623e+06 243537 0 -1.28754e+06 258874 0 -1.28892e+06 274231 0 -1.29039e+06 289610 0 -1.29193e+06 305013 0 -1.29354e+06 320439 0 -1.29524e+06 335891 0 -1.29701e+06 351369 0 -1.29886e+06 366875 0 -1.30079e+06 382410 0 -1.30279e+06 397974 0 -1.30486e+06 413569 0 -1.30702e+06 429196 0 -1.30924e+06 444855 0 -1.31155e+06 460548 0 -1.31392e+06 476277 0 -1.31637e+06 492040 0 -1.3189e+06 507841 0 -1.32149e+06 523679 0 -1.32416e+06 539555 0 -1.32691e+06 555471 0 -1.32972e+06 571427 0 -1.3326e+06 587424 0 -1.33556e+06 603462 0 -1.33859e+06 619542 0 -1.34168e+06 635666 0 -1.34485e+06 651833 0 -1.34808e+06 668045 0 -1.35138e+06 684301 0 -1.35476e+06 700602 0 -1.35819e+06 716950 0 -1.3617e+06 733343 0 -1.36527e+06 749782 0 -1.36891e+06 766269 0 -1.37261e+06 782802 0 -1.37638e+06 799383 0 -1.38021e+06 816011 0 -1.38411e+06 832686 0 -1.38807e+06 849408 0 -1.3921e+06 866177 0 -1.39619e+06 882993 0 -1.40034e+06 899856 0 -1.40455e+06 916765 0 -1.40883e+06 933720 0 -1.41317e+06 950721 0 -1.41757e+06 967766 0 -1.42203e+06 984855 0 -1.42656e+06 1.00199e+06 0 -1.26978e+06 0 0 -1.26981e+06 15180.6 0 -1.26992e+06 30362.6 0 -1.27011e+06 45547.2 0 -1.27038e+06 60735.6 0 -1.27072e+06 75929 0 -1.27115e+06 91128.7 0 -1.27165e+06 106336 0 -1.27224e+06 121552 0 -1.2729e+06 136778 0 -1.27364e+06 152014 0 -1.27446e+06 167264 0 -1.27536e+06 182527 0 -1.27634e+06 197804 0 -1.27739e+06 213098 0 -1.27853e+06 228408 0 -1.27974e+06 243737 0 -1.28103e+06 259086 0 -1.2824e+06 274455 0 -1.28384e+06 289845 0 -1.28537e+06 305259 0 -1.28697e+06 320697 0 -1.28864e+06 336160 0 -1.29039e+06 351649 0 -1.29222e+06 367165 0 -1.29413e+06 382710 0 -1.2961e+06 398285 0 -1.29816e+06 413890 0 -1.30029e+06 429526 0 -1.30249e+06 445196 0 -1.30477e+06 460898 0 -1.30712e+06 476635 0 -1.30954e+06 492408 0 -1.31204e+06 508217 0 -1.31461e+06 524063 0 -1.31725e+06 539948 0 -1.31997e+06 555871 0 -1.32275e+06 571834 0 -1.32561e+06 587838 0 -1.32853e+06 603883 0 -1.33153e+06 619970 0 -1.33459e+06 636100 0 -1.33773e+06 652273 0 -1.34093e+06 668490 0 -1.3442e+06 684751 0 -1.34754e+06 701057 0 -1.35095e+06 717409 0 -1.35442e+06 733807 0 -1.35796e+06 750250 0 -1.36156e+06 766740 0 -1.36523e+06 783277 0 -1.36897e+06 799860 0 -1.37276e+06 816491 0 -1.37663e+06 833168 0 -1.38055e+06 849893 0 -1.38454e+06 866664 0 -1.3886e+06 883482 0 -1.39271e+06 900347 0 -1.39689e+06 917257 0 -1.40113e+06 934214 0 -1.40544e+06 951215 0 -1.40981e+06 968261 0 -1.41423e+06 985352 0 -1.41873e+06 1.00249e+06 0 -1.26344e+06 0 0 -1.26346e+06 15193 0 -1.26356e+06 30387.3 0 -1.26374e+06 45584.2 0 -1.26401e+06 60785 0 -1.26434e+06 75990.8 0 -1.26476e+06 91202.8 0 -1.26526e+06 106422 0 -1.26583e+06 121651 0 -1.26648e+06 136889 0 -1.26722e+06 152138 0 -1.26802e+06 167399 0 -1.26891e+06 182674 0 -1.26988e+06 197964 0 -1.27092e+06 213269 0 -1.27204e+06 228591 0 -1.27324e+06 243932 0 -1.27451e+06 259292 0 -1.27586e+06 274673 0 -1.27729e+06 290075 0 -1.27879e+06 305499 0 -1.28037e+06 320948 0 -1.28203e+06 336422 0 -1.28376e+06 351922 0 -1.28557e+06 367449 0 -1.28745e+06 383004 0 -1.28941e+06 398588 0 -1.29144e+06 414203 0 -1.29355e+06 429849 0 -1.29573e+06 445528 0 -1.29798e+06 461239 0 -1.3003e+06 476985 0 -1.3027e+06 492767 0 -1.30517e+06 508584 0 -1.30772e+06 524438 0 -1.31033e+06 540330 0 -1.31302e+06 556261 0 -1.31577e+06 572231 0 -1.3186e+06 588242 0 -1.3215e+06 604294 0 -1.32446e+06 620387 0 -1.3275e+06 636523 0 -1.3306e+06 652701 0 -1.33377e+06 668923 0 -1.33701e+06 685190 0 -1.34032e+06 701501 0 -1.34369e+06 717857 0 -1.34713e+06 734258 0 -1.35064e+06 750706 0 -1.35421e+06 767199 0 -1.35784e+06 783739 0 -1.36154e+06 800326 0 -1.36531e+06 816959 0 -1.36914e+06 833639 0 -1.37303e+06 850365 0 -1.37698e+06 867138 0 -1.381e+06 883958 0 -1.38508e+06 900824 0 -1.38923e+06 917736 0 -1.39343e+06 934694 0 -1.3977e+06 951697 0 -1.40204e+06 968745 0 -1.40643e+06 985836 0 -1.41089e+06 1.00297e+06 0 -1.25707e+06 0 0 -1.25709e+06 15205 0 -1.25719e+06 30411.4 0 -1.25737e+06 45620.4 0 -1.25762e+06 60833.2 0 -1.25795e+06 76051.1 0 -1.25836e+06 91275.2 0 -1.25885e+06 106507 0 -1.25941e+06 121747 0 -1.26006e+06 136997 0 -1.26078e+06 152258 0 -1.26157e+06 167531 0 -1.26245e+06 182818 0 -1.2634e+06 198119 0 -1.26443e+06 213436 0 -1.26553e+06 228770 0 -1.26672e+06 244122 0 -1.26798e+06 259493 0 -1.26931e+06 274885 0 -1.27072e+06 290298 0 -1.27221e+06 305734 0 -1.27377e+06 321193 0 -1.27541e+06 336677 0 -1.27712e+06 352187 0 -1.2789e+06 367725 0 -1.28077e+06 383290 0 -1.2827e+06 398884 0 -1.28471e+06 414508 0 -1.28679e+06 430164 0 -1.28895e+06 445851 0 -1.29118e+06 461572 0 -1.29348e+06 477326 0 -1.29585e+06 493116 0 -1.2983e+06 508941 0 -1.30081e+06 524803 0 -1.3034e+06 540703 0 -1.30606e+06 556641 0 -1.30878e+06 572618 0 -1.31158e+06 588635 0 -1.31445e+06 604693 0 -1.31739e+06 620793 0 -1.32039e+06 636934 0 -1.32346e+06 653118 0 -1.3266e+06 669346 0 -1.32981e+06 685617 0 -1.33308e+06 701932 0 -1.33642e+06 718293 0 -1.33983e+06 734698 0 -1.3433e+06 751149 0 -1.34684e+06 767646 0 -1.35044e+06 784189 0 -1.35411e+06 800778 0 -1.35784e+06 817414 0 -1.36163e+06 834096 0 -1.36549e+06 850825 0 -1.36941e+06 867600 0 -1.3734e+06 884422 0 -1.37744e+06 901290 0 -1.38155e+06 918203 0 -1.38573e+06 935162 0 -1.38996e+06 952167 0 -1.39426e+06 969215 0 -1.39862e+06 986308 0 -1.40304e+06 1.00344e+06 0 -1.2507e+06 0 0 -1.25071e+06 15216.7 0 -1.2508e+06 30434.8 0 -1.25097e+06 45655.6 0 -1.25122e+06 60880.2 0 -1.25155e+06 76109.8 0 -1.25195e+06 91345.7 0 -1.25243e+06 106589 0 -1.25298e+06 121841 0 -1.25362e+06 137103 0 -1.25432e+06 152375 0 -1.25511e+06 167660 0 -1.25597e+06 182958 0 -1.25691e+06 198271 0 -1.25793e+06 213599 0 -1.25902e+06 228944 0 -1.26018e+06 244307 0 -1.26143e+06 259690 0 -1.26275e+06 275092 0 -1.26414e+06 290516 0 -1.26561e+06 305962 0 -1.26715e+06 321432 0 -1.26877e+06 336926 0 -1.27046e+06 352447 0 -1.27223e+06 367994 0 -1.27407e+06 383568 0 -1.27598e+06 399172 0 -1.27797e+06 414806 0 -1.28003e+06 430470 0 -1.28216e+06 446166 0 -1.28436e+06 461895 0 -1.28664e+06 477658 0 -1.28899e+06 493456 0 -1.29141e+06 509289 0 -1.2939e+06 525159 0 -1.29646e+06 541066 0 -1.29909e+06 557011 0 -1.30178e+06 572995 0 -1.30455e+06 589019 0 -1.30739e+06 605083 0 -1.3103e+06 621188 0 -1.31327e+06 637335 0 -1.31631e+06 653524 0 -1.31942e+06 669757 0 -1.3226e+06 686032 0 -1.32584e+06 702352 0 -1.32915e+06 718717 0 -1.33252e+06 735126 0 -1.33596e+06 751581 0 -1.33947e+06 768081 0 -1.34304e+06 784627 0 -1.34667e+06 801219 0 -1.35037e+06 817857 0 -1.35413e+06 834542 0 -1.35795e+06 851273 0 -1.36184e+06 868050 0 -1.36578e+06 884873 0 -1.3698e+06 901742 0 -1.37387e+06 918657 0 -1.37801e+06 935618 0 -1.38221e+06 952623 0 -1.38647e+06 969674 0 -1.3908e+06 986768 0 -1.39518e+06 1.00391e+06 0 -1.24431e+06 0 0 -1.24432e+06 15228.1 0 -1.24441e+06 30457.7 0 -1.24457e+06 45689.9 0 -1.24481e+06 60926 0 -1.24513e+06 76167.1 0 -1.24552e+06 91414.4 0 -1.24599e+06 106669 0 -1.24654e+06 121932 0 -1.24716e+06 137205 0 -1.24786e+06 152489 0 -1.24863e+06 167786 0 -1.24948e+06 183095 0 -1.25041e+06 198419 0 -1.25141e+06 213758 0 -1.25249e+06 229114 0 -1.25364e+06 244488 0 -1.25487e+06 259881 0 -1.25617e+06 275294 0 -1.25754e+06 290728 0 -1.259e+06 306185 0 -1.26052e+06 321664 0 -1.26212e+06 337169 0 -1.26379e+06 352699 0 -1.26554e+06 368255 0 -1.26736e+06 383840 0 -1.26925e+06 399452 0 -1.27121e+06 415095 0 -1.27325e+06 430768 0 -1.27536e+06 446473 0 -1.27754e+06 462211 0 -1.27979e+06 477982 0 -1.28211e+06 493787 0 -1.2845e+06 509628 0 -1.28697e+06 525505 0 -1.2895e+06 541419 0 -1.2921e+06 557371 0 -1.29477e+06 573361 0 -1.29751e+06 589391 0 -1.30032e+06 605461 0 -1.3032e+06 621572 0 -1.30614e+06 637724 0 -1.30916e+06 653919 0 -1.31223e+06 670156 0 -1.31538e+06 686437 0 -1.31859e+06 702761 0 -1.32186e+06 719129 0 -1.32521e+06 735542 0 -1.32861e+06 752000 0 -1.33208e+06 768504 0 -1.33562e+06 785053 0 -1.33922e+06 801647 0 -1.34288e+06 818288 0 -1.34661e+06 834975 0 -1.3504e+06 851708 0 -1.35425e+06 868487 0 -1.35816e+06 885312 0 -1.36214e+06 902183 0 -1.36618e+06 919099 0 -1.37028e+06 936061 0 -1.37445e+06 953068 0 -1.37868e+06 970119 0 -1.38297e+06 987215 0 -1.38732e+06 1.00435e+06 0 -1.2379e+06 0 0 -1.23791e+06 15239.2 0 -1.23799e+06 30479.9 0 -1.23815e+06 45723.3 0 -1.23838e+06 60970.6 0 -1.23869e+06 76222.8 0 -1.23908e+06 91481.3 0 -1.23954e+06 106747 0 -1.24008e+06 122022 0 -1.24069e+06 137306 0 -1.24138e+06 152601 0 -1.24214e+06 167908 0 -1.24298e+06 183228 0 -1.24389e+06 198563 0 -1.24488e+06 213913 0 -1.24594e+06 229279 0 -1.24708e+06 244664 0 -1.24829e+06 260067 0 -1.24958e+06 275490 0 -1.25094e+06 290935 0 -1.25237e+06 306401 0 -1.25388e+06 321891 0 -1.25546e+06 337405 0 -1.25711e+06 352944 0 -1.25883e+06 368510 0 -1.26063e+06 384104 0 -1.2625e+06 399725 0 -1.26445e+06 415377 0 -1.26646e+06 431058 0 -1.26854e+06 446772 0 -1.2707e+06 462517 0 -1.27293e+06 478296 0 -1.27522e+06 494109 0 -1.27759e+06 509957 0 -1.28003e+06 525841 0 -1.28253e+06 541762 0 -1.28511e+06 557721 0 -1.28775e+06 573717 0 -1.29046e+06 589753 0 -1.29324e+06 605829 0 -1.29609e+06 621946 0 -1.29901e+06 638103 0 -1.30199e+06 654303 0 -1.30503e+06 670545 0 -1.30815e+06 686829 0 -1.31133e+06 703158 0 -1.31457e+06 719530 0 -1.31788e+06 735947 0 -1.32125e+06 752408 0 -1.32469e+06 768914 0 -1.32819e+06 785466 0 -1.33176e+06 802063 0 -1.33539e+06 818706 0 -1.33908e+06 835395 0 -1.34284e+06 852130 0 -1.34665e+06 868911 0 -1.35053e+06 885738 0 -1.35448e+06 902610 0 -1.35848e+06 919528 0 -1.36255e+06 936491 0 -1.36668e+06 953499 0 -1.37087e+06 970552 0 -1.37513e+06 987649 0 -1.37945e+06 1.00479e+06 0 -1.23149e+06 0 0 -1.23149e+06 15250 0 -1.23157e+06 30501.6 0 -1.23172e+06 45755.8 0 -1.23195e+06 61013.9 0 -1.23225e+06 76277.1 0 -1.23263e+06 91546.4 0 -1.23308e+06 106823 0 -1.23361e+06 122108 0 -1.23421e+06 137403 0 -1.23489e+06 152709 0 -1.23564e+06 168027 0 -1.23646e+06 183357 0 -1.23736e+06 198703 0 -1.23834e+06 214063 0 -1.23939e+06 229440 0 -1.24051e+06 244835 0 -1.2417e+06 260248 0 -1.24297e+06 275681 0 -1.24432e+06 291135 0 -1.24573e+06 306612 0 -1.24722e+06 322111 0 -1.24878e+06 337634 0 -1.25041e+06 353183 0 -1.25212e+06 368758 0 -1.2539e+06 384360 0 -1.25575e+06 399991 0 -1.25767e+06 415651 0 -1.25966e+06 431341 0 -1.26172e+06 447062 0 -1.26385e+06 462815 0 -1.26605e+06 478602 0 -1.26833e+06 494422 0 -1.27067e+06 510277 0 -1.27308e+06 526168 0 -1.27556e+06 542096 0 -1.2781e+06 558061 0 -1.28072e+06 574064 0 -1.2834e+06 590105 0 -1.28615e+06 606187 0 -1.28897e+06 622309 0 -1.29186e+06 638471 0 -1.29481e+06 654675 0 -1.29782e+06 670922 0 -1.30091e+06 687211 0 -1.30405e+06 703543 0 -1.30727e+06 719919 0 -1.31054e+06 736339 0 -1.31389e+06 752804 0 -1.31729e+06 769313 0 -1.32076e+06 785867 0 -1.32429e+06 802467 0 -1.32789e+06 819113 0 -1.33155e+06 835804 0 -1.33527e+06 852540 0 -1.33905e+06 869323 0 -1.3429e+06 886151 0 -1.3468e+06 903025 0 -1.35078e+06 919944 0 -1.35481e+06 936909 0 -1.3589e+06 953918 0 -1.36306e+06 970973 0 -1.36728e+06 988071 0 -1.37157e+06 1.00521e+06 0 -1.22505e+06 0 0 -1.22505e+06 15260.6 0 -1.22513e+06 30522.7 0 -1.22527e+06 45787.5 0 -1.22549e+06 61056.2 0 -1.22579e+06 76329.9 0 -1.22616e+06 91609.8 0 -1.2266e+06 106897 0 -1.22712e+06 122193 0 -1.22771e+06 137498 0 -1.22838e+06 152814 0 -1.22912e+06 168142 0 -1.22993e+06 183483 0 -1.23082e+06 198839 0 -1.23178e+06 214209 0 -1.23282e+06 229596 0 -1.23392e+06 245001 0 -1.2351e+06 260424 0 -1.23636e+06 275867 0 -1.23768e+06 291331 0 -1.23908e+06 306816 0 -1.24055e+06 322325 0 -1.24209e+06 337858 0 -1.24371e+06 353415 0 -1.24539e+06 368999 0 -1.24715e+06 384610 0 -1.24898e+06 400249 0 -1.25087e+06 415917 0 -1.25284e+06 431615 0 -1.25488e+06 447344 0 -1.25699e+06 463105 0 -1.25917e+06 478899 0 -1.26141e+06 494726 0 -1.26373e+06 510588 0 -1.26612e+06 526486 0 -1.26857e+06 542420 0 -1.27109e+06 558391 0 -1.27368e+06 574400 0 -1.27633e+06 590447 0 -1.27905e+06 606534 0 -1.28184e+06 622661 0 -1.2847e+06 638828 0 -1.28762e+06 655037 0 -1.2906e+06 671288 0 -1.29366e+06 687581 0 -1.29677e+06 703917 0 -1.29995e+06 720296 0 -1.3032e+06 736720 0 -1.30651e+06 753187 0 -1.30988e+06 769700 0 -1.31332e+06 786257 0 -1.31681e+06 802859 0 -1.32038e+06 819506 0 -1.324e+06 836199 0 -1.32769e+06 852938 0 -1.33144e+06 869722 0 -1.33525e+06 886552 0 -1.33912e+06 903427 0 -1.34306e+06 920348 0 -1.34706e+06 937314 0 -1.35112e+06 954325 0 -1.35524e+06 971380 0 -1.35943e+06 988480 0 -1.36368e+06 1.00562e+06 0 -1.21861e+06 0 0 -1.2186e+06 15270.8 0 -1.21867e+06 30543.1 0 -1.21881e+06 45818.2 0 -1.21903e+06 61097.2 0 -1.21932e+06 76381.2 0 -1.21968e+06 91671.3 0 -1.22011e+06 106969 0 -1.22062e+06 122275 0 -1.22121e+06 137590 0 -1.22186e+06 152917 0 -1.22259e+06 168255 0 -1.22339e+06 183606 0 -1.22427e+06 198971 0 -1.22521e+06 214352 0 -1.22623e+06 229748 0 -1.22733e+06 245163 0 -1.22849e+06 260595 0 -1.22973e+06 276048 0 -1.23104e+06 291521 0 -1.23242e+06 307016 0 -1.23387e+06 322533 0 -1.23539e+06 338075 0 -1.23699e+06 353641 0 -1.23865e+06 369233 0 -1.24039e+06 384852 0 -1.2422e+06 400499 0 -1.24407e+06 416175 0 -1.24602e+06 431881 0 -1.24803e+06 447618 0 -1.25012e+06 463386 0 -1.25227e+06 479187 0 -1.25449e+06 495021 0 -1.25678e+06 510890 0 -1.25914e+06 526794 0 -1.26157e+06 542734 0 -1.26406e+06 558711 0 -1.26662e+06 574726 0 -1.26925e+06 590779 0 -1.27194e+06 606871 0 -1.2747e+06 623003 0 -1.27753e+06 639175 0 -1.28042e+06 655388 0 -1.28338e+06 671643 0 -1.2864e+06 687940 0 -1.28948e+06 704279 0 -1.29263e+06 720662 0 -1.29584e+06 737089 0 -1.29912e+06 753559 0 -1.30246e+06 770074 0 -1.30586e+06 786634 0 -1.30933e+06 803238 0 -1.31286e+06 819888 0 -1.31645e+06 836583 0 -1.3201e+06 853323 0 -1.32382e+06 870109 0 -1.32759e+06 886941 0 -1.33143e+06 903817 0 -1.33534e+06 920739 0 -1.3393e+06 937706 0 -1.34333e+06 954718 0 -1.34741e+06 971775 0 -1.35157e+06 988876 0 -1.35578e+06 1.00602e+06 0 -1.21215e+06 0 0 -1.21214e+06 15280.7 0 -1.21221e+06 30563 0 -1.21234e+06 45848.1 0 -1.21255e+06 61137.1 0 -1.21283e+06 76431 0 -1.21318e+06 91731.2 0 -1.21361e+06 107039 0 -1.21411e+06 122354 0 -1.21468e+06 137680 0 -1.21533e+06 153016 0 -1.21605e+06 168364 0 -1.21684e+06 183725 0 -1.2177e+06 199100 0 -1.21863e+06 214490 0 -1.21964e+06 229896 0 -1.22072e+06 245319 0 -1.22187e+06 260761 0 -1.22309e+06 276223 0 -1.22438e+06 291705 0 -1.22574e+06 307209 0 -1.22718e+06 322735 0 -1.22868e+06 338285 0 -1.23026e+06 353860 0 -1.2319e+06 369460 0 -1.23362e+06 385088 0 -1.2354e+06 400743 0 -1.23726e+06 416426 0 -1.23918e+06 432140 0 -1.24117e+06 447883 0 -1.24323e+06 463659 0 -1.24536e+06 479467 0 -1.24756e+06 495308 0 -1.24983e+06 511183 0 -1.25216e+06 527093 0 -1.25456e+06 543039 0 -1.25703e+06 559022 0 -1.25956e+06 575042 0 -1.26216e+06 591100 0 -1.26482e+06 607197 0 -1.26755e+06 623334 0 -1.27035e+06 639510 0 -1.27321e+06 655728 0 -1.27614e+06 671987 0 -1.27913e+06 688287 0 -1.28218e+06 704631 0 -1.2853e+06 721017 0 -1.28848e+06 737446 0 -1.29172e+06 753920 0 -1.29503e+06 770437 0 -1.2984e+06 786999 0 -1.30183e+06 803606 0 -1.30533e+06 820257 0 -1.30889e+06 836954 0 -1.31251e+06 853696 0 -1.31619e+06 870484 0 -1.31993e+06 887316 0 -1.32374e+06 904194 0 -1.3276e+06 921118 0 -1.33153e+06 938086 0 -1.33552e+06 955099 0 -1.33958e+06 972157 0 -1.34369e+06 989260 0 -1.34787e+06 1.00641e+06 0 -1.20568e+06 0 0 -1.20567e+06 15290.4 0 -1.20573e+06 30582.4 0 -1.20586e+06 45877.1 0 -1.20606e+06 61175.8 0 -1.20633e+06 76479.4 0 -1.20668e+06 91789.2 0 -1.2071e+06 107106 0 -1.20759e+06 122432 0 -1.20815e+06 137767 0 -1.20878e+06 153112 0 -1.20949e+06 168470 0 -1.21027e+06 183840 0 -1.21112e+06 199224 0 -1.21204e+06 214624 0 -1.21303e+06 230039 0 -1.21409e+06 245472 0 -1.21523e+06 260923 0 -1.21643e+06 276393 0 -1.21771e+06 291884 0 -1.21905e+06 307396 0 -1.22047e+06 322931 0 -1.22196e+06 338489 0 -1.22351e+06 354072 0 -1.22514e+06 369681 0 -1.22683e+06 385316 0 -1.2286e+06 400978 0 -1.23043e+06 416670 0 -1.23233e+06 432390 0 -1.2343e+06 448141 0 -1.23634e+06 463923 0 -1.23844e+06 479738 0 -1.24062e+06 495585 0 -1.24286e+06 511467 0 -1.24516e+06 527383 0 -1.24754e+06 543335 0 -1.24998e+06 559323 0 -1.25248e+06 575348 0 -1.25505e+06 591412 0 -1.25769e+06 607513 0 -1.26039e+06 623654 0 -1.26316e+06 639835 0 -1.26599e+06 656057 0 -1.26889e+06 672319 0 -1.27185e+06 688624 0 -1.27487e+06 704970 0 -1.27796e+06 721360 0 -1.28111e+06 737792 0 -1.28432e+06 754268 0 -1.28759e+06 770788 0 -1.29093e+06 787352 0 -1.29433e+06 803961 0 -1.29779e+06 820615 0 -1.30132e+06 837313 0 -1.3049e+06 854057 0 -1.30855e+06 870846 0 -1.31226e+06 887680 0 -1.31603e+06 904559 0 -1.31986e+06 921484 0 -1.32376e+06 938453 0 -1.32771e+06 955468 0 -1.33173e+06 972527 0 -1.33581e+06 989630 0 -1.33996e+06 1.00678e+06 0 -1.1992e+06 0 0 -1.19918e+06 15299.7 0 -1.19923e+06 30601.1 0 -1.19936e+06 45905.3 0 -1.19955e+06 61213.3 0 -1.19982e+06 76526.4 0 -1.20016e+06 91845.6 0 -1.20057e+06 107172 0 -1.20105e+06 122507 0 -1.2016e+06 137851 0 -1.20223e+06 153206 0 -1.20292e+06 168573 0 -1.20369e+06 183952 0 -1.20452e+06 199345 0 -1.20543e+06 214754 0 -1.20641e+06 230178 0 -1.20746e+06 245620 0 -1.20858e+06 261079 0 -1.20977e+06 276558 0 -1.21103e+06 292057 0 -1.21235e+06 307578 0 -1.21375e+06 323121 0 -1.21522e+06 338687 0 -1.21676e+06 354278 0 -1.21836e+06 369894 0 -1.22004e+06 385537 0 -1.22178e+06 401207 0 -1.22359e+06 416905 0 -1.22547e+06 432633 0 -1.22742e+06 448391 0 -1.22943e+06 464180 0 -1.23151e+06 480000 0 -1.23366e+06 495854 0 -1.23588e+06 511742 0 -1.23816e+06 527664 0 -1.24051e+06 543621 0 -1.24292e+06 559614 0 -1.2454e+06 575645 0 -1.24794e+06 591713 0 -1.25055e+06 607819 0 -1.25322e+06 623965 0 -1.25596e+06 640150 0 -1.25876e+06 656375 0 -1.26163e+06 672641 0 -1.26456e+06 688949 0 -1.26755e+06 705299 0 -1.27061e+06 721691 0 -1.27372e+06 738126 0 -1.2769e+06 754605 0 -1.28015e+06 771127 0 -1.28345e+06 787694 0 -1.28682e+06 804304 0 -1.29025e+06 820960 0 -1.29374e+06 837660 0 -1.29729e+06 854405 0 -1.3009e+06 871195 0 -1.30458e+06 888030 0 -1.30832e+06 904911 0 -1.31211e+06 921837 0 -1.31597e+06 938807 0 -1.3199e+06 955823 0 -1.32388e+06 972883 0 -1.32793e+06 989988 0 -1.33204e+06 1.00714e+06 0 -1.19271e+06 0 0 -1.19268e+06 15308.8 0 -1.19273e+06 30619.3 0 -1.19285e+06 45932.5 0 -1.19303e+06 61249.7 0 -1.19329e+06 76571.9 0 -1.19362e+06 91900.2 0 -1.19403e+06 107236 0 -1.1945e+06 122580 0 -1.19504e+06 137933 0 -1.19565e+06 153297 0 -1.19634e+06 168672 0 -1.19709e+06 184061 0 -1.19792e+06 199463 0 -1.19881e+06 214880 0 -1.19978e+06 230313 0 -1.20081e+06 245763 0 -1.20191e+06 261231 0 -1.20309e+06 276718 0 -1.20433e+06 292225 0 -1.20564e+06 307754 0 -1.20702e+06 323305 0 -1.20847e+06 338879 0 -1.20999e+06 354478 0 -1.21158e+06 370101 0 -1.21323e+06 385751 0 -1.21495e+06 401428 0 -1.21674e+06 417134 0 -1.2186e+06 432868 0 -1.22052e+06 448632 0 -1.22251e+06 464428 0 -1.22457e+06 480255 0 -1.2267e+06 496114 0 -1.22889e+06 512007 0 -1.23114e+06 527935 0 -1.23346e+06 543898 0 -1.23585e+06 559896 0 -1.2383e+06 575931 0 -1.24082e+06 592004 0 -1.2434e+06 608115 0 -1.24604e+06 624264 0 -1.24875e+06 640453 0 -1.25152e+06 656683 0 -1.25436e+06 672952 0 -1.25726e+06 689263 0 -1.26022e+06 705616 0 -1.26325e+06 722011 0 -1.26633e+06 738449 0 -1.26948e+06 754930 0 -1.27269e+06 771454 0 -1.27596e+06 788023 0 -1.2793e+06 804635 0 -1.28269e+06 821292 0 -1.28615e+06 837994 0 -1.28967e+06 854741 0 -1.29325e+06 871532 0 -1.29689e+06 888369 0 -1.30059e+06 905250 0 -1.30436e+06 922177 0 -1.30818e+06 939149 0 -1.31207e+06 956165 0 -1.31602e+06 973227 0 -1.32003e+06 990333 0 -1.3241e+06 1.00748e+06 0 -1.1862e+06 0 0 -1.18617e+06 15317.6 0 -1.18621e+06 30636.9 0 -1.18632e+06 45958.9 0 -1.1865e+06 61284.9 0 -1.18676e+06 76615.9 0 -1.18708e+06 91953.1 0 -1.18747e+06 107297 0 -1.18794e+06 122650 0 -1.18847e+06 138012 0 -1.18907e+06 153385 0 -1.18974e+06 168769 0 -1.19049e+06 184166 0 -1.1913e+06 199576 0 -1.19218e+06 215002 0 -1.19313e+06 230443 0 -1.19415e+06 245901 0 -1.19524e+06 261378 0 -1.1964e+06 276873 0 -1.19762e+06 292388 0 -1.19892e+06 307925 0 -1.20028e+06 323483 0 -1.20171e+06 339065 0 -1.20321e+06 354671 0 -1.20478e+06 370302 0 -1.20641e+06 385959 0 -1.20811e+06 401642 0 -1.20988e+06 417354 0 -1.21171e+06 433095 0 -1.21362e+06 448866 0 -1.21558e+06 464667 0 -1.21762e+06 480500 0 -1.21972e+06 496366 0 -1.22188e+06 512264 0 -1.22411e+06 528197 0 -1.22641e+06 544165 0 -1.22877e+06 560168 0 -1.23119e+06 576208 0 -1.23368e+06 592285 0 -1.23624e+06 608400 0 -1.23885e+06 624554 0 -1.24153e+06 640747 0 -1.24428e+06 656979 0 -1.24708e+06 673252 0 -1.24995e+06 689566 0 -1.25288e+06 705922 0 -1.25588e+06 722320 0 -1.25893e+06 738760 0 -1.26205e+06 755243 0 -1.26523e+06 771770 0 -1.26847e+06 788340 0 -1.27177e+06 804954 0 -1.27513e+06 821613 0 -1.27856e+06 838316 0 -1.28204e+06 855064 0 -1.28559e+06 871857 0 -1.28919e+06 888694 0 -1.29286e+06 905577 0 -1.29659e+06 922505 0 -1.30038e+06 939477 0 -1.30423e+06 956495 0 -1.30815e+06 973558 0 -1.31212e+06 990665 0 -1.31616e+06 1.00782e+06 0 -1.17967e+06 0 0 -1.17964e+06 15326.1 0 -1.17968e+06 30653.9 0 -1.17978e+06 45984.5 0 -1.17996e+06 61319 0 -1.18021e+06 76658.6 0 -1.18052e+06 92004.3 0 -1.18091e+06 107357 0 -1.18136e+06 122718 0 -1.18188e+06 138089 0 -1.18247e+06 153470 0 -1.18314e+06 168862 0 -1.18387e+06 184267 0 -1.18467e+06 199686 0 -1.18553e+06 215120 0 -1.18647e+06 230569 0 -1.18748e+06 246035 0 -1.18855e+06 261519 0 -1.18969e+06 277023 0 -1.1909e+06 292546 0 -1.19218e+06 308089 0 -1.19352e+06 323655 0 -1.19494e+06 339244 0 -1.19642e+06 354857 0 -1.19796e+06 370495 0 -1.19958e+06 386159 0 -1.20126e+06 401849 0 -1.20301e+06 417568 0 -1.20482e+06 433315 0 -1.2067e+06 449092 0 -1.20864e+06 464899 0 -1.21065e+06 480738 0 -1.21273e+06 496608 0 -1.21487e+06 512512 0 -1.21708e+06 528450 0 -1.21935e+06 544423 0 -1.22168e+06 560431 0 -1.22408e+06 576475 0 -1.22654e+06 592557 0 -1.22906e+06 608676 0 -1.23165e+06 624833 0 -1.2343e+06 641029 0 -1.23702e+06 657265 0 -1.23979e+06 673542 0 -1.24263e+06 689859 0 -1.24553e+06 706217 0 -1.2485e+06 722617 0 -1.25152e+06 739060 0 -1.25461e+06 755545 0 -1.25775e+06 772073 0 -1.26096e+06 788645 0 -1.26423e+06 805261 0 -1.26756e+06 821921 0 -1.27095e+06 838626 0 -1.2744e+06 855375 0 -1.27791e+06 872169 0 -1.28149e+06 889007 0 -1.28512e+06 905891 0 -1.28882e+06 922820 0 -1.29257e+06 939793 0 -1.29639e+06 956812 0 -1.30027e+06 973875 0 -1.30421e+06 990984 0 -1.30821e+06 1.00814e+06 0 -1.17314e+06 0 0 -1.1731e+06 15334.3 0 -1.17313e+06 30670.3 0 -1.17323e+06 46009.2 0 -1.1734e+06 61352 0 -1.17364e+06 76699.8 0 -1.17395e+06 92053.7 0 -1.17433e+06 107415 0 -1.17477e+06 122784 0 -1.17528e+06 138163 0 -1.17587e+06 153552 0 -1.17652e+06 168953 0 -1.17723e+06 184366 0 -1.17802e+06 199792 0 -1.17888e+06 215234 0 -1.1798e+06 230691 0 -1.18079e+06 246165 0 -1.18185e+06 261657 0 -1.18298e+06 277167 0 -1.18417e+06 292698 0 -1.18543e+06 308249 0 -1.18676e+06 323822 0 -1.18815e+06 339418 0 -1.18961e+06 355037 0 -1.19114e+06 370682 0 -1.19274e+06 386352 0 -1.1944e+06 402049 0 -1.19612e+06 417774 0 -1.19791e+06 433527 0 -1.19977e+06 449309 0 -1.20169e+06 465122 0 -1.20368e+06 480966 0 -1.20573e+06 496843 0 -1.20785e+06 512752 0 -1.21003e+06 528694 0 -1.21227e+06 544672 0 -1.21458e+06 560684 0 -1.21695e+06 576733 0 -1.21938e+06 592818 0 -1.22188e+06 608941 0 -1.22444e+06 625102 0 -1.22706e+06 641302 0 -1.22975e+06 657541 0 -1.2325e+06 673820 0 -1.23531e+06 690140 0 -1.23818e+06 706501 0 -1.24111e+06 722903 0 -1.2441e+06 739348 0 -1.24715e+06 755835 0 -1.25027e+06 772365 0 -1.25345e+06 788939 0 -1.25668e+06 805556 0 -1.25998e+06 822218 0 -1.26334e+06 838923 0 -1.26676e+06 855673 0 -1.27023e+06 872468 0 -1.27377e+06 889308 0 -1.27737e+06 906192 0 -1.28103e+06 923122 0 -1.28476e+06 940096 0 -1.28854e+06 957116 0 -1.29238e+06 974180 0 -1.29629e+06 991289 0 -1.30026e+06 1.00844e+06 0 -1.16659e+06 0 0 -1.16655e+06 15342.2 0 -1.16658e+06 30686.2 0 -1.16667e+06 46033.1 0 -1.16684e+06 61383.9 0 -1.16707e+06 76739.7 0 -1.16737e+06 92101.5 0 -1.16773e+06 107471 0 -1.16817e+06 122848 0 -1.16867e+06 138234 0 -1.16924e+06 153631 0 -1.16988e+06 169040 0 -1.17059e+06 184461 0 -1.17137e+06 199895 0 -1.17221e+06 215344 0 -1.17312e+06 230809 0 -1.17409e+06 246290 0 -1.17514e+06 261789 0 -1.17625e+06 277307 0 -1.17743e+06 292844 0 -1.17867e+06 308402 0 -1.17998e+06 323982 0 -1.18136e+06 339585 0 -1.1828e+06 355211 0 -1.18431e+06 370862 0 -1.18588e+06 386539 0 -1.18752e+06 402242 0 -1.18923e+06 417972 0 -1.191e+06 433731 0 -1.19283e+06 449519 0 -1.19473e+06 465338 0 -1.19669e+06 481187 0 -1.19872e+06 497068 0 -1.20081e+06 512982 0 -1.20297e+06 528930 0 -1.20519e+06 544911 0 -1.20747e+06 560928 0 -1.20981e+06 576981 0 -1.21222e+06 593070 0 -1.21469e+06 609196 0 -1.21722e+06 625360 0 -1.21982e+06 641563 0 -1.22247e+06 657805 0 -1.22519e+06 674087 0 -1.22797e+06 690410 0 -1.23081e+06 706773 0 -1.23371e+06 723178 0 -1.23667e+06 739625 0 -1.23969e+06 756114 0 -1.24278e+06 772646 0 -1.24592e+06 789221 0 -1.24913e+06 805839 0 -1.25239e+06 822502 0 -1.25572e+06 839209 0 -1.2591e+06 855960 0 -1.26254e+06 872755 0 -1.26605e+06 889596 0 -1.26962e+06 906481 0 -1.27324e+06 923411 0 -1.27693e+06 940386 0 -1.28068e+06 957407 0 -1.28449e+06 974472 0 -1.28836e+06 991582 0 -1.29229e+06 1.00874e+06 0 -1.16003e+06 0 0 -1.15999e+06 15349.9 0 -1.16001e+06 30701.6 0 -1.1601e+06 46056.1 0 -1.16025e+06 61414.6 0 -1.16048e+06 76778.1 0 -1.16077e+06 92147.7 0 -1.16113e+06 107524 0 -1.16156e+06 122909 0 -1.16205e+06 138303 0 -1.16261e+06 153708 0 -1.16324e+06 169124 0 -1.16393e+06 184552 0 -1.1647e+06 199994 0 -1.16553e+06 215450 0 -1.16642e+06 230922 0 -1.16738e+06 246411 0 -1.16841e+06 261917 0 -1.16951e+06 277441 0 -1.17067e+06 292986 0 -1.1719e+06 308551 0 -1.17319e+06 324137 0 -1.17455e+06 339746 0 -1.17597e+06 355379 0 -1.17746e+06 371036 0 -1.17902e+06 386718 0 -1.18063e+06 402427 0 -1.18232e+06 418164 0 -1.18407e+06 433928 0 -1.18588e+06 449722 0 -1.18776e+06 465545 0 -1.1897e+06 481399 0 -1.1917e+06 497285 0 -1.19377e+06 513204 0 -1.1959e+06 529156 0 -1.19809e+06 545142 0 -1.20035e+06 561162 0 -1.20266e+06 577219 0 -1.20504e+06 593312 0 -1.20749e+06 609441 0 -1.20999e+06 625609 0 -1.21256e+06 641815 0 -1.21518e+06 658060 0 -1.21787e+06 674344 0 -1.22062e+06 690669 0 -1.22343e+06 707034 0 -1.2263e+06 723441 0 -1.22923e+06 739890 0 -1.23223e+06 756381 0 -1.23528e+06 772914 0 -1.23839e+06 789490 0 -1.24156e+06 806110 0 -1.24479e+06 822774 0 -1.24808e+06 839482 0 -1.25144e+06 856233 0 -1.25485e+06 873030 0 -1.25832e+06 889871 0 -1.26185e+06 906757 0 -1.26544e+06 923688 0 -1.2691e+06 940664 0 -1.27281e+06 957685 0 -1.27658e+06 974751 0 -1.28042e+06 991862 0 -1.28432e+06 1.00902e+06 0 -1.15346e+06 0 0 -1.15341e+06 15357.3 0 -1.15343e+06 30716.4 0 -1.15351e+06 46078.3 0 -1.15366e+06 61444.2 0 -1.15388e+06 76815.1 0 -1.15416e+06 92192.1 0 -1.15451e+06 107576 0 -1.15493e+06 122968 0 -1.15541e+06 138370 0 -