<?xml version="1.0"?> 
<VTKFile type="StructuredGrid" version="0.1"> 
<StructuredGrid WholeExtent="0 127 0 127 0 0"> 
<Piece Extent="0 127 0 127 0 0"> 
<PointData>
<DataArray type="Float32" Name="E" format="ascii" NumberOfComponents="3"> 
3.14365e+06 -1.30214e+06 0 3.25963e+06 -893508 0 3.24314e+06 -611658 0 3.1916e+06 -382540 0 3.11628e+06 -197510 0 3.03209e+06 -46315 0 2.94406e+06 77716.3 0 2.85612e+06 180066 0 2.7701e+06 264937 0 2.68707e+06 335625 0 2.60752e+06 394710 0 2.53163e+06 444224 0 2.45939e+06 485779 0 2.39069e+06 520663 0 2.32536e+06 549913 0 2.2632e+06 574372 0 2.20402e+06 594731 0 2.14761e+06 611561 0 2.09377e+06 625337 0 2.04233e+06 636456 0 1.99312e+06 645254 0 1.94598e+06 652018 0 1.90077e+06 656991 0 1.85736e+06 660386 0 1.81562e+06 662382 0 1.77545e+06 663140 0 1.73674e+06 662797 0 1.6994e+06 661476 0 1.66336e+06 659282 0 1.62853e+06 656311 0 1.59484e+06 652648 0 1.56222e+06 648367 0 1.53063e+06 643534 0 1.50001e+06 638212 0 1.4703e+06 632452 0 1.44146e+06 626304 0 1.41345e+06 619811 0 1.38623e+06 613014 0 1.35976e+06 605947 0 1.33402e+06 598644 0 1.30896e+06 591134 0 1.28457e+06 583442 0 1.26081e+06 575595 0 1.23767e+06 567614 0 1.21511e+06 559519 0 1.19312e+06 551328 0 1.17167e+06 543058 0 1.15076e+06 534725 0 1.13036e+06 526342 0 1.11045e+06 517922 0 1.09102e+06 509476 0 1.07206e+06 501015 0 1.05355e+06 492549 0 1.03548e+06 484085 0 1.01783e+06 475633 0 1.0006e+06 467199 0 983779 458789 0 967350 450410 0 951306 442066 0 935638 433762 0 920337 425504 0 905395 417293 0 890803 409134 0 876555 401030 0 862642 392984 0 849059 384996 0 835797 377071 0 822852 369209 0 810216 361412 0 797883 353680 0 785849 346016 0 774108 338420 0 762654 330891 0 751483 323432 0 740589 316042 0 729969 308721 0 719616 301468 0 709528 294285 0 699700 287170 0 690127 280124 0 680806 273145 0 671734 266234 0 662906 259388 0 654319 252609 0 645969 245894 0 637854 239243 0 629969 232655 0 622313 226128 0 614881 219663 0 607672 213257 0 600682 206910 0 593909 200619 0 587350 194385 0 581002 188206 0 574864 182079 0 568932 176005 0 563205 169981 0 557681 164006 0 552357 158079 0 547231 152198 0 542302 146362 0 537567 140569 0 533026 134818 0 528676 129108 0 524515 123436 0 520542 117801 0 516756 112201 0 513155 106636 0 509739 101103 0 506504 95600.6 0 503451 90127.8 0 500579 84682.6 0 497886 79263.4 0 495371 73868.7 0 493033 68496.8 0 490872 63146.1 0 488887 57815 0 487076 52501.9 0 485440 47205.1 0 483978 41923 0 482689 36654 0 481573 31396.5 0 480629 26148.7 0 479857 20909.2 0 479257 15676.2 0 478828 10448.1 0 478570 5223.21 0 478484 0 0 3.19133e+06 -1.29508e+06 0 3.2853e+06 -885210 0 3.26365e+06 -599225 0 3.20691e+06 -369012 0 3.12824e+06 -183665 0 3.04129e+06 -32679 0 2.95116e+06 90907 0 2.86155e+06 192698 0 2.7742e+06 276972 0 2.6901e+06 347064 0 2.60968e+06 405575 0 2.53307e+06 454548 0 2.46023e+06 495598 0 2.39103e+06 530014 0 2.32526e+06 558832 0 2.26274e+06 582894 0 2.20324e+06 602888 0 2.14655e+06 619381 0 2.09247e+06 632845 0 2.04082e+06 643677 0 1.99142e+06 652211 0 1.94411e+06 658730 0 1.89875e+06 663476 0 1.8552e+06 666660 0 1.81334e+06 668461 0 1.77305e+06 669037 0 1.73424e+06 668524 0 1.69682e+06 667043 0 1.66069e+06 664702 0 1.62579e+06 661592 0 1.59203e+06 657798 0 1.55936e+06 653394 0 1.52772e+06 648447 0 1.49704e+06 643016 0 1.46729e+06 637154 0 1.43841e+06 630909 0 1.41036e+06 624325 0 1.38311e+06 617440 0 1.35662e+06 610291 0 1.33085e+06 602909 0 1.30578e+06 595324 0 1.28137e+06 587561 0 1.25759e+06 579646 0 1.23444e+06 571599 0 1.21187e+06 563441 0 1.18987e+06 555189 0 1.16843e+06 546861 0 1.14751e+06 538472 0 1.12711e+06 530034 0 1.1072e+06 521561 0 1.08778e+06 513064 0 1.06882e+06 504553 0 1.05032e+06 496038 0 1.03225e+06 487528 0 1.01462e+06 479029 0 997401 470549 0 980590 462095 0 964175 453672 0 948146 445285 0 932494 436939 0 917210 428638 0 902285 420386 0 887712 412187 0 873483 404042 0 859590 395955 0 846027 387928 0 832786 379962 0 819862 372061 0 807248 364224 0 794938 356453 0 782926 348749 0 771208 341114 0 759777 333546 0 748629 326047 0 737759 318618 0 727161 311257 0 716832 303965 0 706767 296742 0 696962 289588 0 687413 282501 0 678115 275482 0 669066 268530 0 660260 261644 0 651696 254824 0 643368 248068 0 635275 241376 0 627412 234746 0 619777 228178 0 612366 221670 0 605177 215221 0 598208 208831 0 591454 202498 0 584914 196220 0 578585 189996 0 572464 183826 0 566550 177706 0 560840 171637 0 555331 165617 0 550023 159644 0 544912 153717 0 539997 147834 0 535276 141994 0 530747 136195 0 526408 130436 0 522258 124716 0 518296 119031 0 514519 113382 0 510927 107767 0 507517 102183 0 504290 96629.8 0 501243 91105.1 0 498375 85607.5 0 495685 80135.4 0 493173 74687.2 0 490837 69261.1 0 488677 63855.7 0 486691 58469.2 0 484879 53100.1 0 483240 47746.7 0 481774 42407.3 0 480480 37080.3 0 479358 31764 0 478406 26456.9 0 477625 21157.2 0 477015 15863.3 0 476575 10573.6 0 476305 5286.38 0 476204 0 0 3.23736e+06 -1.28667e+06 0 3.31143e+06 -875910 0 3.28409e+06 -586355 0 3.22221e+06 -355162 0 3.14012e+06 -169592 0 3.05041e+06 -18873.4 0 2.95819e+06 104226 0 2.86692e+06 205429 0 2.77825e+06 289084 0 2.69308e+06 358564 0 2.61179e+06 416490 0 2.53446e+06 464912 0 2.46103e+06 505451 0 2.39132e+06 539394 0 2.32513e+06 567777 0 2.26224e+06 591439 0 2.20243e+06 611064 0 2.14546e+06 627218 0 2.09114e+06 640371 0 2.03928e+06 650915 0 1.98969e+06 659183 0 1.94222e+06 665456 0 1.8967e+06 669975 0 1.85302e+06 672948 0 1.81104e+06 674553 0 1.77065e+06 674946 0 1.73174e+06 674263 0 1.69423e+06 672624 0 1.65802e+06 670133 0 1.62304e+06 666884 0 1.58922e+06 662960 0 1.55649e+06 658434 0 1.52479e+06 653371 0 1.49407e+06 647831 0 1.46427e+06 641866 0 1.43535e+06 635524 0 1.40727e+06 628848 0 1.37999e+06 621877 0 1.35347e+06 614644 0 1.32768e+06 607184 0 1.30258e+06 599523 0 1.27816e+06 591688 0 1.25437e+06 583704 0 1.2312e+06 575591 0 1.20863e+06 567370 0 1.18662e+06 559057 0 1.16517e+06 550670 0 1.14425e+06 542224 0 1.12385e+06 533732 0 1.10395e+06 525206 0 1.08453e+06 516657 0 1.06558e+06 508096 0 1.04708e+06 499532 0 1.02902e+06 490973 0 1.0114e+06 482428 0 994195 473902 0 977396 465403 0 960995 456936 0 944981 448506 0 929344 440117 0 914076 431774 0 899169 423480 0 884614 415239 0 870404 407053 0 856531 398925 0 842987 390858 0 829767 382852 0 816864 374911 0 804271 367034 0 791983 359224 0 779994 351480 0 768298 343805 0 756890 336198 0 745764 328659 0 734917 321190 0 724342 313790 0 714036 306458 0 703994 299195 0 694212 292001 0 684686 284874 0 675411 277815 0 666384 270822 0 657601 263895 0 649058 257034 0 640753 250237 0 632681 243503 0 624839 236831 0 617225 230221 0 609835 223671 0 602666 217180 0 595716 210746 0 588981 204370 0 582459 198048 0 576148 191781 0 570045 185566 0 564148 179402 0 558454 173288 0 552962 167222 0 547668 161203 0 542571 155230 0 537670 149300 0 532962 143413 0 528445 137566 0 524118 131759 0 519979 125990 0 516026 120257 0 512258 114558 0 508674 108892 0 505272 103258 0 502050 97653.6 0 499008 92077.3 0 496145 86527.6 0 493459 81002.7 0 490949 75501.1 0 488614 70021.2 0 486454 64561.3 0 484467 59119.7 0 482653 53694.8 0 481011 48285 0 479541 42888.6 0 478242 37503.9 0 477112 32129.3 0 476153 26763.1 0 475363 21403.6 0 474742 16049.3 0 474291 10698.3 0 474007 5349.13 0 473893 0 0 3.28198e+06 -1.27704e+06 0 3.3379e+06 -865674 0 3.30447e+06 -573044 0 3.23749e+06 -340994 0 3.15193e+06 -155292 0 3.05947e+06 -4899.3 0 2.96515e+06 117672 0 2.87221e+06 218257 0 2.78223e+06 301271 0 2.696e+06 370124 0 2.61385e+06 427453 0 2.53581e+06 475316 0 2.46178e+06 515337 0 2.39158e+06 548803 0 2.32497e+06 576747 0 2.26172e+06 600005 0 2.20159e+06 619260 0 2.14435e+06 635074 0 2.08979e+06 647913 0 2.03772e+06 658169 0 1.98795e+06 666170 0 1.94031e+06 672197 0 1.89465e+06 676488 0 1.85083e+06 679249 0 1.80873e+06 680657 0 1.76823e+06 680867 0 1.72923e+06 680014 0 1.69162e+06 678216 0 1.65534e+06 675576 0 1.62029e+06 672188 0 1.5864e+06 668133 0 1.55361e+06 663484 0 1.52186e+06 658306 0 1.49109e+06 652656 0 1.46125e+06 646589 0 1.43229e+06 640149 0 1.40418e+06 633381 0 1.37687e+06 626322 0 1.35032e+06 619007 0 1.3245e+06 611467 0 1.29939e+06 603730 0 1.27495e+06 595824 0 1.25115e+06 587770 0 1.22797e+06 579591 0 1.20538e+06 571306 0 1.18337e+06 562932 0 1.16192e+06 554486 0 1.141e+06 545983 0 1.12059e+06 537435 0 1.10069e+06 528855 0 1.08127e+06 520254 0 1.06233e+06 511643 0 1.04384e+06 503029 0 1.02579e+06 494423 0 1.00818e+06 485830 0 990983 477258 0 974197 468714 0 957809 460202 0 941809 451728 0 926188 443296 0 910937 434910 0 896046 426574 0 881509 418291 0 867318 410064 0 853463 401896 0 839940 393787 0 826740 385741 0 813858 377759 0 801286 369843 0 789020 361992 0 777052 354209 0 765378 346493 0 753992 338846 0 742889 331268 0 732064 323759 0 721512 316319 0 711229 308947 0 701209 301644 0 691450 294409 0 681946 287242 0 672693 280142 0 663688 273109 0 654927 266141 0 646406 259238 0 638122 252400 0 630071 245624 0 622250 238911 0 614657 232258 0 607287 225666 0 600137 219132 0 593206 212656 0 586490 206236 0 579987 199870 0 573693 193559 0 567608 187299 0 561727 181091 0 556049 174932 0 550572 168820 0 545293 162756 0 540210 156736 0 535322 150760 0 530626 144825 0 526121 138931 0 521805 133076 0 517676 127258 0 513732 121476 0 509973 115728 0 506396 110012 0 503001 104328 0 499785 98672.3 0 496748 93044.5 0 493889 87442.8 0 491205 81865.3 0 488697 76310.7 0 486364 70777 0 484203 65262.9 0 482215 59766.4 0 480399 54286.1 0 478754 48820.2 0 477279 43367 0 475974 37924.9 0 474837 32492.3 0 473870 27067.4 0 473070 21648.5 0 472439 16234 0 471975 10822.2 0 471679 5411.46 0 471549 0 0 3.32538e+06 -1.2663e+06 0 3.36461e+06 -854552 0 3.32479e+06 -559289 0 3.25273e+06 -326509 0 3.16366e+06 -140767 0 3.06845e+06 9242.03 0 2.97203e+06 131243 0 2.87744e+06 231181 0 2.78614e+06 313533 0 2.69886e+06 381743 0 2.61585e+06 438463 0 2.53711e+06 485760 0 2.4625e+06 525256 0 2.3918e+06 558240 0 2.32477e+06 585741 0 2.26116e+06 608593 0 2.20072e+06 627476 0 2.14322e+06 642947 0 2.08842e+06 655472 0 2.03614e+06 665438 0 1.98618e+06 673172 0 1.93838e+06 678952 0 1.89257e+06 683014 0 1.84863e+06 685563 0 1.80641e+06 686775 0 1.7658e+06 686802 0 1.7267e+06 685778 0 1.68901e+06 683820 0 1.65265e+06 681032 0 1.61752e+06 677504 0 1.58357e+06 673318 0 1.55072e+06 668545 0 1.51892e+06 663251 0 1.4881e+06 657493 0 1.45822e+06 651322 0 1.42923e+06 644785 0 1.40108e+06 637924 0 1.37374e+06 630777 0 1.34716e+06 623378 0 1.32132e+06 615758 0 1.29619e+06 607946 0 1.27173e+06 599967 0 1.24792e+06 591844 0 1.22472e+06 583598 0 1.20213e+06 575249 0 1.18011e+06 566813 0 1.15866e+06 558308 0 1.13773e+06 549747 0 1.11733e+06 541143 0 1.09743e+06 532510 0 1.07802e+06 523857 0 1.05908e+06 515194 0 1.04059e+06 506531 0 1.02256e+06 497875 0 1.00495e+06 489235 0 987766 480617 0 970992 472027 0 954617 463470 0 938632 454952 0 923026 446476 0 907790 438047 0 892917 429669 0 878398 421344 0 864224 413075 0 850389 404865 0 836885 396716 0 823705 388629 0 810843 380606 0 798292 372649 0 786047 364758 0 774101 356935 0 762448 349179 0 751084 341492 0 740003 333874 0 729200 326324 0 718671 318844 0 708409 311432 0 698412 304088 0 688675 296813 0 679193 289605 0 669962 282465 0 660979 275390 0 652239 268382 0 643740 261438 0 635476 254558 0 627446 247740 0 619646 240985 0 612072 234290 0 604722 227655 0 597592 221079 0 590679 214559 0 583982 208096 0 577496 201687 0 571220 195331 0 565151 189027 0 559286 182774 0 553624 176570 0 548161 170413 0 542896 164302 0 537827 158236 0 532952 152213 0 528268 146232 0 523775 140290 0 519469 134387 0 515350 128521 0 511415 122690 0 507664 116892 0 504095 111127 0 500705 105392 0 497495 99685.8 0 494463 94006.7 0 491607 88353.1 0 488926 82723.4 0 486419 77115.8 0 484086 71528.7 0 481925 65960.5 0 479936 60409.4 0 478117 54873.9 0 476468 49352.1 0 474988 43842.5 0 473676 38343.4 0 472533 32853 0 471557 27369.7 0 470747 21891.8 0 470105 16417.6 0 469629 10945.3 0 469318 5473.37 0 469174 0 0 3.36771e+06 -1.25454e+06 0 3.39149e+06 -842589 0 3.34504e+06 -545090 0 3.26793e+06 -311708 0 3.17531e+06 -126017 0 3.07735e+06 23549.4 0 2.97883e+06 144939 0 2.88259e+06 244200 0 2.78999e+06 325869 0 2.70166e+06 393420 0 2.6178e+06 449520 0 2.53836e+06 496241 0 2.46317e+06 535207 0 2.39198e+06 567704 0 2.32454e+06 594759 0 2.26058e+06 617203 0 2.19983e+06 635710 0 2.14206e+06 650838 0 2.08703e+06 663047 0 2.03454e+06 672722 0 1.9844e+06 680189 0 1.93644e+06 685721 0 1.89049e+06 689554 0 1.84641e+06 691891 0 1.80407e+06 692905 0 1.76336e+06 692749 0 1.72416e+06 691554 0 1.68639e+06 689436 0 1.64995e+06 686498 0 1.61475e+06 682831 0 1.58074e+06 678513 0 1.54783e+06 673618 0 1.51597e+06 668207 0 1.48511e+06 662339 0 1.45519e+06 656065 0 1.42615e+06 649430 0 1.39797e+06 642476 0 1.3706e+06 635241 0 1.344e+06 627758 0 1.31814e+06 620059 0 1.29299e+06 612170 0 1.26851e+06 604118 0 1.24468e+06 595925 0 1.22148e+06 587612 0 1.19888e+06 579198 0 1.17685e+06 570701 0 1.15539e+06 562136 0 1.13447e+06 553517 0 1.11406e+06 544857 0 1.09416e+06 536169 0 1.07475e+06 527463 0 1.05582e+06 518749 0 1.03734e+06 510036 0 1.01931e+06 501332 0 1.00172e+06 492644 0 984545 483978 0 967782 475342 0 951420 466740 0 935448 458177 0 919857 449658 0 904638 441185 0 889781 432764 0 875279 424397 0 861123 416086 0 847307 407834 0 833822 399644 0 820662 391516 0 807820 383452 0 795290 375454 0 783065 367523 0 771140 359659 0 759509 351863 0 748166 344135 0 737107 336476 0 726326 328886 0 715818 321365 0 705578 313913 0 695603 306529 0 685887 299213 0 676427 291964 0 667218 284783 0 658256 277667 0 649537 270617 0 641059 263632 0 632816 256710 0 624806 249851 0 617026 243053 0 609472 236316 0 602141 229639 0 595029 223019 0 588135 216456 0 581455 209949 0 574987 203497 0 568728 197097 0 562675 190749 0 556826 184451 0 551179 178201 0 545731 171999 0 540480 165842 0 535424 159730 0 530561 153661 0 525889 147632 0 521406 141643 0 517110 135692 0 513001 129778 0 509075 123898 0 505331 118051 0 501769 112236 0 498385 106451 0 495180 100694 0 492152 94964 0 489299 89258.7 0 486620 83576.8 0 484115 77916.5 0 481782 72276.2 0 479620 66654.2 0 477628 61048.7 0 475806 55458.2 0 474153 49881 0 472668 44315.2 0 471350 38759.3 0 470199 33211.5 0 469214 27670.2 0 468394 22133.6 0 467740 16599.9 0 467251 11067.6 0 466927 5534.87 0 466767 0 0 3.40912e+06 -1.24182e+06 0 3.41846e+06 -829825 0 3.36523e+06 -530448 0 3.28306e+06 -296594 0 3.18687e+06 -111044 0 3.08616e+06 38021.3 0 2.98555e+06 158759 0 2.88767e+06 257312 0 2.79377e+06 338278 0 2.7044e+06 405155 0 2.6197e+06 460624 0 2.53957e+06 506761 0 2.4638e+06 545190 0 2.39213e+06 577195 0 2.32428e+06 603801 0 2.25996e+06 625833 0 2.19891e+06 643964 0 2.14088e+06 658747 0 2.08562e+06 670639 0 2.03293e+06 680022 0 1.98261e+06 687220 0 1.93448e+06 692504 0 1.88838e+06 696108 0 1.84418e+06 698232 0 1.80172e+06 699048 0 1.76091e+06 698708 0 1.72162e+06 697342 0 1.68376e+06 695064 0 1.64724e+06 691977 0 1.61197e+06 688169 0 1.5779e+06 683720 0 1.54493e+06 678701 0 1.51302e+06 673174 0 1.48211e+06 667196 0 1.45215e+06 660818 0 1.42308e+06 654085 0 1.39486e+06 647038 0 1.36746e+06 639714 0 1.34083e+06 632148 0 1.31495e+06 624368 0 1.28978e+06 616403 0 1.26528e+06 608277 0 1.24144e+06 600014 0 1.21823e+06 591634 0 1.19562e+06 583155 0 1.17359e+06 574595 0 1.15212e+06 565970 0 1.1312e+06 557293 0 1.11079e+06 548577 0 1.0909e+06 539834 0 1.07149e+06 531075 0 1.05256e+06 522309 0 1.03409e+06 513545 0 1.01607e+06 504791 0 998480 496055 0 981317 487343 0 964567 478660 0 948217 470012 0 932259 461404 0 916683 452840 0 901479 444324 0 886639 435860 0 872153 427450 0 858016 419097 0 844217 410803 0 830751 402570 0 817610 394401 0 804788 386296 0 792278 378257 0 780074 370285 0 768169 362380 0 756559 354543 0 745238 346775 0 734200 339076 0 723440 331445 0 712954 323883 0 702736 316390 0 692782 308965 0 683087 301608 0 673648 294319 0 664460 287096 0 655519 279939 0 646821 272848 0 638363 265821 0 630141 258857 0 622151 251956 0 614390 245116 0 606855 238337 0 599543 231616 0 592450 224954 0 585574 218348 0 578911 211797 0 572460 205301 0 566217 198857 0 560180 192464 0 554347 186121 0 548714 179827 0 543280 173579 0 538042 167377 0 532999 161218 0 528148 155102 0 523487 149026 0 519015 142990 0 514729 136991 0 510629 131029 0 506711 125100 0 502975 119205 0 499418 113340 0 496041 107505 0 492840 101697 0 489815 95916.3 0 486965 90159.6 0 484288 84425.7 0 481784 78712.9 0 479451 73019.6 0 477287 67344 0 475294 61684.4 0 473468 56039.2 0 471810 50406.7 0 470319 44785.1 0 468994 39172.7 0 467835 33567.8 0 466841 27968.8 0 466011 22373.8 0 465345 16781.1 0 464843 11189.1 0 464504 5595.97 0 464329 0 0 3.4497e+06 -1.22821e+06 0 3.44548e+06 -816297 0 3.38534e+06 -515363 0 3.29813e+06 -281169 0 3.19835e+06 -95849.1 0 3.0949e+06 52656.5 0 2.99218e+06 172700 0 2.89267e+06 270518 0 2.79748e+06 350759 0 2.70708e+06 416946 0 2.62154e+06 471773 0 2.54072e+06 517317 0 2.46438e+06 555204 0 2.39224e+06 586713 0 2.32398e+06 612866 0 2.25931e+06 634484 0 2.19797e+06 652237 0 2.13967e+06 666672 0 2.08418e+06 678246 0 2.03129e+06 687337 0 1.98079e+06 694265 0 1.93251e+06 699301 0 1.88627e+06 702675 0 1.84193e+06 704585 0 1.79937e+06 705204 0 1.75845e+06 704680 0 1.71906e+06 703142 0 1.68112e+06 700704 0 1.64452e+06 697467 0 1.60919e+06 693519 0 1.57505e+06 688938 0 1.54203e+06 683795 0 1.51007e+06 678152 0 1.47911e+06 672064 0 1.4491e+06 665581 0 1.41999e+06 658750 0 1.39175e+06 651609 0 1.36432e+06 644197 0 1.33766e+06 636546 0 1.31176e+06 628685 0 1.28656e+06 620643 0 1.26205e+06 612444 0 1.2382e+06 604111 0 1.21498e+06 595663 0 1.19236e+06 587119 0 1.17032e+06 578496 0 1.14885e+06 569810 0 1.12792e+06 561074 0 1.10752e+06 552302 0 1.08762e+06 543504 0 1.06822e+06 534691 0 1.04929e+06 525873 0 1.03083e+06 517058 0 1.01282e+06 508255 0 995238 499470 0 978085 490709 0 961346 481980 0 945009 473286 0 929065 464633 0 913503 456024 0 898314 447464 0 883489 438956 0 869021 430503 0 854900 422107 0 841120 413771 0 827673 405496 0 814551 397285 0 801748 389139 0 789258 381058 0 777073 373045 0 765190 365099 0 753600 357221 0 742299 349412 0 731282 341672 0 720543 334000 0 710078 326398 0 699881 318863 0 689948 311398 0 680275 304000 0 670856 296669 0 661689 289405 0 652769 282207 0 644091 275074 0 635653 268005 0 627451 260999 0 619480 254056 0 611739 247174 0 604222 240352 0 596928 233588 0 589854 226883 0 582995 220233 0 576350 213639 0 569915 207099 0 563688 200611 0 557667 194174 0 551848 187786 0 546229 181446 0 540809 175153 0 535584 168905 0 530553 162700 0 525714 156537 0 521064 150415 0 516602 144331 0 512326 138285 0 508233 132274 0 504323 126297 0 500594 120352 0 497044 114438 0 493671 108553 0 490475 102696 0 487454 96863.7 0 484606 91055.7 0 481931 85270.1 0 479427 79505 0 477093 73758.8 0 474928 68029.9 0 472931 62316.5 0 471102 56616.8 0 469439 50929.3 0 467942 45252.1 0 466610 39583.6 0 465442 33921.9 0 464438 28265.5 0 463597 22612.5 0 462920 16961.1 0 462404 11309.8 0 462051 5656.66 0 461859 0 0 3.48956e+06 -1.21376e+06 0 3.47251e+06 -802034 0 3.40538e+06 -499839 0 3.31313e+06 -265434 0 3.20974e+06 -80434.4 0 3.10354e+06 67453.3 0 2.99874e+06 186762 0 2.8976e+06 283815 0 2.80112e+06 363310 0 2.7097e+06 428793 0 2.62333e+06 482966 0 2.54183e+06 527911 0 2.46493e+06 565249 0 2.39231e+06 596258 0 2.32365e+06 621954 0 2.25864e+06 643155 0 2.19699e+06 660528 0 2.13844e+06 674615 0 2.08273e+06 685870 0 2.02964e+06 694667 0 1.97896e+06 701325 0 1.93052e+06 706111 0 1.88414e+06 709255 0 1.83968e+06 710952 0 1.797e+06 711373 0 1.75597e+06 710664 0 1.7165e+06 708954 0 1.67847e+06 706356 0 1.6418e+06 702969 0 1.60639e+06 698880 0 1.57219e+06 694168 0 1.53911e+06 688900 0 1.5071e+06 683140 0 1.4761e+06 676941 0 1.44605e+06 670355 0 1.41691e+06 663424 0 1.38863e+06 656190 0 1.36117e+06 648689 0 1.33449e+06 640953 0 1.30856e+06 633012 0 1.28335e+06 624892 0 1.25882e+06 616619 0 1.23495e+06 608215 0 1.21172e+06 599699 0 1.18909e+06 591089 0 1.16705e+06 582404 0 1.14557e+06 573656 0 1.12464e+06 564862 0 1.10424e+06 556032 0 1.08434e+06 547178 0 1.06494e+06 538311 0 1.04602e+06 529441 0 1.02757e+06 520575 0 1.00956e+06 511721 0 991991 502887 0 974848 494079 0 958120 485302 0 941795 476562 0 925864 467863 0 910316 459209 0 895142 450605 0 880334 442053 0 865882 433556 0 851778 425117 0 838015 416738 0 824586 408422 0 811483 400168 0 798699 391980 0 786228 383858 0 774064 375803 0 762200 367816 0 750631 359897 0 739350 352046 0 728354 344265 0 717636 336552 0 707191 328908 0 697015 321333 0 687102 313826 0 677450 306387 0 668052 299014 0 658905 291709 0 650004 284469 0 641347 277294 0 632929 270183 0 624745 263136 0 616794 256150 0 609071 249226 0 601574 242361 0 594298 235555 0 587240 228806 0 580399 222113 0 573770 215475 0 567352 208891 0 561140 202359 0 555134 195877 0 549330 189444 0 543725 183060 0 538318 176721 0 533106 170427 0 528087 164176 0 523259 157967 0 518620 151798 0 514167 145667 0 509900 139573 0 505816 133514 0 501913 127488 0 498190 121495 0 494646 115532 0 491278 109597 0 488085 103689 0 485067 97806.3 0 482221 91947.2 0 479547 86110 0 477043 80292.8 0 474708 74494.1 0 472541 68712 0 470541 62944.9 0 468708 57191.1 0 467040 51448.9 0 465536 45716.4 0 464197 39992 0 463020 34273.9 0 462006 28560.3 0 461154 22849.6 0 460464 17140 0 459935 11429.7 0 459566 5716.95 0 459358 0 0 3.52877e+06 -1.1985e+06 0 3.4995e+06 -787064 0 3.42532e+06 -483878 0 3.32805e+06 -249393 0 3.22104e+06 -64801.2 0 3.11209e+06 82410.1 0 3.00521e+06 200943 0 2.90245e+06 297203 0 2.8047e+06 375931 0 2.71226e+06 440695 0 2.62507e+06 494204 0 2.54289e+06 538541 0 2.46543e+06 575324 0 2.39234e+06 605828 0 2.32328e+06 631064 0 2.25794e+06 651847 0 2.196e+06 668837 0 2.13719e+06 682575 0 2.08125e+06 693509 0 2.02796e+06 702012 0 1.97711e+06 708399 0 1.92851e+06 712935 0 1.88199e+06 715848 0 1.83741e+06 717331 0 1.79461e+06 717553 0 1.75349e+06 716660 0 1.71392e+06 714778 0 1.67581e+06 712019 0 1.63906e+06 708482 0 1.60359e+06 704252 0 1.56933e+06 699408 0 1.53619e+06 694016 0 1.50413e+06 688138 0 1.47308e+06 681829 0 1.44299e+06 675138 0 1.41382e+06 668109 0 1.3855e+06 660781 0 1.35801e+06 653190 0 1.33131e+06 645369 0 1.30536e+06 637346 0 1.28013e+06 629149 0 1.25559e+06 620802 0 1.2317e+06 612326 0 1.20846e+06 603742 0 1.18582e+06 595067 0 1.16377e+06 586317 0 1.14229e+06 577509 0 1.12136e+06 568655 0 1.10096e+06 559767 0 1.08106e+06 550858 0 1.06167e+06 541937 0 1.04275e+06 533013 0 1.0243e+06 524095 0 1.0063e+06 515191 0 988739 506308 0 971606 497451 0 954889 488626 0 938576 479840 0 922658 471095 0 907124 462396 0 891964 453746 0 877171 445150 0 862735 436610 0 848649 428127 0 834903 419706 0 821492 411346 0 808407 403050 0 795642 394820 0 783190 386656 0 771045 378559 0 759201 370530 0 747652 362569 0 736391 354678 0 725415 346855 0 714717 339101 0 704293 331415 0 694137 323799 0 684245 316250 0 674612 308769 0 665234 301356 0 656107 294008 0 647227 286727 0 638589 279510 0 630189 272357 0 622025 265267 0 614093 258239 0 606388 251272 0 598909 244364 0 591650 237515 0 584610 230723 0 577785 223987 0 571173 217306 0 564770 210677 0 558574 204101 0 552582 197574 0 546792 191097 0 541201 184667 0 535807 178283 0 530607 171943 0 525600 165646 0 520782 159391 0 516153 153174 0 511710 146996 0 507451 140855 0 503375 134748 0 499479 128674 0 495762 122632 0 492223 116619 0 488860 110635 0 485671 104677 0 482655 98744.1 0 479811 92834.1 0 477137 86945.4 0 474633 81076.4 0 472297 75225.3 0 470127 69390.3 0 468124 63569.9 0 466286 57762.1 0 464612 51965.4 0 463102 46177.9 0 461755 40397.9 0 460569 34623.6 0 459545 28853.4 0 458681 23085.3 0 457978 17317.7 0 457435 11548.8 0 457051 5776.84 0 456826 0 0 3.5674e+06 -1.18247e+06 0 3.52643e+06 -771413 0 3.44518e+06 -467484 0 3.34287e+06 -233048 0 3.23223e+06 -48951.6 0 3.12055e+06 97525.4 0 3.01159e+06 215241 0 2.90722e+06 310679 0 2.80821e+06 388621 0 2.71476e+06 452651 0 2.62675e+06 505485 0 2.54391e+06 549206 0 2.46589e+06 585429 0 2.39234e+06 615423 0 2.32289e+06 640197 0 2.2572e+06 660558 0 2.19497e+06 677164 0 2.13591e+06 690551 0 2.07975e+06 701163 0 2.02627e+06 709371 0 1.97525e+06 715487 0 1.92649e+06 719773 0 1.87984e+06 722454 0 1.83513e+06 723723 0 1.79222e+06 723746 0 1.751e+06 722668 0 1.71134e+06 720614 0 1.67314e+06 717694 0 1.63632e+06 714006 0 1.60078e+06 709636 0 1.56646e+06 704659 0 1.53327e+06 699142 0 1.50116e+06 693147 0 1.47006e+06 686727 0 1.43993e+06 679931 0 1.41072e+06 672803 0 1.38237e+06 665380 0 1.35486e+06 657700 0 1.32813e+06 649793 0 1.30216e+06 641689 0 1.27691e+06 633415 0 1.25235e+06 624993 0 1.22845e+06 616445 0 1.20519e+06 607792 0 1.18255e+06 599051 0 1.16049e+06 590237 0 1.13901e+06 581367 0 1.11807e+06 572453 0 1.09767e+06 563508 0 1.07778e+06 554542 0 1.05838e+06 545566 0 1.03947e+06 536589 0 1.02102e+06 527620 0 1.00303e+06 518665 0 985481 509731 0 968358 500826 0 951652 491953 0 935351 483119 0 919445 474328 0 903925 465583 0 888780 456889 0 874002 448248 0 859582 439663 0 845512 431137 0 831784 422672 0 818390 414270 0 805323 405931 0 792576 397658 0 780143 389452 0 768017 381313 0 756192 373242 0 744662 365240 0 733422 357306 0 722465 349442 0 711787 341646 0 701383 333919 0 691247 326261 0 681375 318671 0 671762 311148 0 662404 303693 0 653296 296303 0 644435 288980 0 635816 281721 0 627436 274526 0 619291 267394 0 611376 260323 0 603690 253313 0 596228 246363 0 588986 239470 0 581963 232635 0 575155 225855 0 568558 219130 0 562171 212458 0 555990 205837 0 550012 199266 0 544235 192744 0 538658 186269 0 533276 179839 0 528088 173454 0 523091 167111 0 518284 160808 0 513665 154546 0 509231 148320 0 504980 142131 0 500911 135976 0 497022 129855 0 493311 123764 0 489777 117702 0 486418 111668 0 483232 105661 0 480218 99677.2 0 477375 93716.4 0 474702 87776.5 0 472197 81855.7 0 469859 75952.5 0 467687 70064.9 0 465680 64191.3 0 463837 58329.9 0 462157 52478.9 0 460640 46636.7 0 459284 40801.4 0 458089 34971.3 0 457054 29144.6 0 456179 23319.5 0 455463 17494.3 0 454905 11667.2 0 454505 5836.35 0 454264 0 0 3.6055e+06 -1.16571e+06 0 3.55328e+06 -755102 0 3.46493e+06 -450660 0 3.3576e+06 -216401 0 3.24332e+06 -32887.3 0 3.12892e+06 112797 0 3.01789e+06 229656 0 2.91191e+06 324243 0 2.81165e+06 401378 0 2.7172e+06 464660 0 2.62838e+06 516809 0 2.54488e+06 559906 0 2.46631e+06 595563 0 2.3923e+06 625044 0 2.32246e+06 649351 0 2.25644e+06 669289 0 2.19392e+06 685509 0 2.13461e+06 698543 0 2.07824e+06 708833 0 2.02456e+06 716745 0 1.97336e+06 722589 0 1.92446e+06 726624 0 1.87767e+06 729073 0 1.83283e+06 730128 0 1.78982e+06 729952 0 1.74849e+06 728688 0 1.70875e+06 726462 0 1.67047e+06 723381 0 1.63357e+06 719542 0 1.59797e+06 715030 0 1.56358e+06 709920 0 1.53034e+06 704279 0 1.49818e+06 698167 0 1.46704e+06 691636 0 1.43687e+06 684735 0 1.40762e+06 677506 0 1.37924e+06 669989 0 1.35169e+06 662219 0 1.32494e+06 654227 0 1.29895e+06 646041 0 1.27368e+06 637688 0 1.2491e+06 629191 0 1.22519e+06 620572 0 1.20192e+06 611849 0 1.17927e+06 603041 0 1.15721e+06 594164 0 1.13572e+06 585231 0 1.11478e+06 576257 0 1.09438e+06 567254 0 1.07449e+06 558232 0 1.0551e+06 549201 0 1.03619e+06 540170 0 1.01775e+06 531148 0 999763 522142 0 982220 513158 0 965106 504203 0 948410 495282 0 932121 486401 0 916227 477563 0 900720 468772 0 885590 460032 0 870826 451346 0 856422 442717 0 842368 434147 0 828656 425638 0 815280 417192 0 802230 408811 0 789502 400495 0 777087 392246 0 764980 384065 0 753174 375952 0 741663 367907 0 730442 359932 0 719505 352025 0 708847 344188 0 698462 336419 0 688345 328719 0 678492 321087 0 668899 313523 0 659560 306025 0 650472 298594 0 641630 291228 0 633030 283927 0 624668 276690 0 616541 269515 0 608644 262402 0 600975 255349 0 593531 248355 0 586306 241420 0 579299 234541 0 572507 227718 0 565926 220949 0 559553 214232 0 553387 207567 0 547423 200952 0 541660 194385 0 536094 187864 0 530725 181389 0 525548 174958 0 520562 168569 0 515765 162220 0 511155 155911 0 506730 149639 0 502487 143402 0 498425 137200 0 494542 131029 0 490837 124890 0 487307 118780 0 483951 112697 0 480768 106639 0 477756 100606 0 474914 94594.1 0 472241 88603.2 0 469735 82631 0 467395 76675.7 0 465220 70735.7 0 463209 64809.1 0 461360 58894.3 0 459674 52989.4 0 458149 47092.7 0 456785 41202.5 0 455580 35316.8 0 454534 29434 0 453647 23552.3 0 452917 17669.8 0 452345 11784.8 0 451929 5895.46 0 451670 0 0 3.64313e+06 -1.14822e+06 0 3.58001e+06 -738150 0 3.48457e+06 -433411 0 3.37222e+06 -199456 0 3.25431e+06 -16610.4 0 3.13719e+06 128224 0 3.02409e+06 244186 0 2.91653e+06 337894 0 2.81501e+06 414202 0 2.71957e+06 476721 0 2.62996e+06 528174 0 2.5458e+06 570640 0 2.46669e+06 605726 0 2.39222e+06 634689 0 2.322e+06 658527 0 2.25565e+06 678039 0 2.19285e+06 693871 0 2.13329e+06 706551 0 2.0767e+06 716518 0 2.02283e+06 724133 0 1.97147e+06 729704 0 1.92241e+06 733488 0 1.87548e+06 735705 0 1.83053e+06 736545 0 1.78741e+06 736169 0 1.74598e+06 734721 0 1.70615e+06 732321 0 1.66779e+06 729079 0 1.63082e+06 725089 0 1.59515e+06 720436 0 1.5607e+06 715193 0 1.5274e+06 709427 0 1.49519e+06 703196 0 1.46401e+06 696554 0 1.4338e+06 689548 0 1.40451e+06 682219 0 1.3761e+06 674608 0 1.34853e+06 666747 0 1.32175e+06 658669 0 1.29574e+06 650401 0 1.27045e+06 641969 0 1.24586e+06 633397 0 1.22193e+06 624706 0 1.19865e+06 615914 0 1.17599e+06 607039 0 1.15392e+06 598097 0 1.13243e+06 589102 0 1.11149e+06 580067 0 1.09108e+06 571005 0 1.07119e+06 561926 0 1.0518e+06 552839 0 1.0329e+06 543754 0 1.01447e+06 534680 0 996488 525622 0 978953 516588 0 961848 507583 0 945163 498614 0 928885 489684 0 913004 480799 0 897509 471962 0 882393 463176 0 867644 454445 0 853255 445771 0 839217 437157 0 825521 428604 0 812162 420114 0 799130 411689 0 786419 403331 0 774022 395039 0 761934 386815 0 750146 378660 0 738654 370573 0 727452 362555 0 716534 354606 0 705895 346727 0 695529 338916 0 685432 331174 0 675598 323500 0 666024 315893 0 656704 308353 0 647634 300880 0 638811 293472 0 630229 286129 0 621885 278849 0 613776 271631 0 605897 264475 0 598246 257379 0 590817 250343 0 583609 243364 0 576619 236442 0 569842 229575 0 563276 222762 0 5