<?xml version="1.0"?> 
<VTKFile type="StructuredGrid" version="0.1"> 
<StructuredGrid WholeExtent="0 127 0 127 0 0"> 
<Piece Extent="0 127 0 127 0 0"> 
<PointData>
<DataArray type="Float32" Name="E" format="ascii" NumberOfComponents="3"> 
-353524 0 0 -353534 7.67265e-05 0 -353562 0.00015345 0 -353610 0.000230168 0 -353677 0.000306879 0 -353763 0.000383578 0 -353868 0.000460263 0 -353993 0.000536933 0 -354136 0.000613583 0 -354299 0.00069021 0 -354481 0.000766812 0 -354682 0.000843387 0 -354902 0.000919933 0 -355141 0.000996444 0 -355400 0.00107292 0 -355677 0.00114935 0 -355974 0.00122575 0 -356290 0.00130209 0 -356626 0.00137839 0 -356980 0.00145464 0 -357354 0.00153083 0 -357748 0.00160696 0 -358160 0.00168303 0 -358592 0.00175904 0 -359043 0.00183498 0 -359514 0.00191084 0 -360004 0.00198663 0 -360513 0.00206234 0 -361042 0.00213796 0 -361590 0.0022135 0 -362158 0.00228894 0 -362745 0.0023643 0 -363352 0.00243955 0 -363978 0.0025147 0 -364624 0.00258974 0 -365290 0.00266466 0 -365975 0.00273947 0 -366680 0.00281416 0 -367405 0.00288873 0 -368149 0.00296315 0 -368913 0.00303744 0 -369697 0.0031116 0 -370501 0.00318561 0 -371325 0.00325945 0 -372168 0.00333316 0 -373032 0.00340668 0 -373916 0.00348003 0 -374819 0.00355322 0 -375743 0.00362623 0 -376687 0.00369905 0 -377651 0.00377166 0 -378635 0.00384408 0 -379640 0.00391629 0 -380665 0.00398828 0 -381710 0.00406006 0 -382775 0.00413161 0 -383861 0.00420293 0 -384968 0.00427398 0 -386095 0.00434479 0 -387242 0.00441535 0 -388410 0.00448562 0 -389599 0.00455563 0 -390809 0.00462533 0 -392039 0.00469477 0 -393291 0.0047639 0 -394563 0.0048327 0 -395856 0.00490118 0 -397170 0.00496933 0 -398505 0.00503714 0 -399861 0.00510459 0 -401239 0.00517167 0 -402637 0.00523839 0 -404057 0.00530473 0 -405499 0.00537066 0 -406962 0.00543618 0 -408446 0.0055013 0 -409952 0.00556596 0 -411479 0.00563019 0 -413028 0.00569397 0 -414599 0.00575726 0 -416192 0.00582008 0 -417806 0.00588241 0 -419443 0.00594422 0 -421101 0.00600549 0 -422782 0.00606624 0 -424484 0.00612643 0 -426209 0.00618606 0 -427956 0.00624509 0 -429726 0.00630355 0 -431518 0.00636137 0 -433332 0.00641855 0 -435169 0.00647508 0 -437029 0.00653098 0 -438911 0.00658616 0 -440816 0.00664064 0 -442744 0.0066944 0 -444695 0.00674744 0 -446670 0.00679971 0 -448667 0.00685121 0 -450687 0.00690191 0 -452731 0.00695179 0 -454798 0.00700084 0 -456888 0.00704905 0 -459002 0.00709634 0 -461139 0.00714278 0 -463300 0.00718826 0 -465485 0.0072328 0 -467694 0.00727637 0 -469926 0.00731897 0 -472183 0.00736055 0 -474464 0.00740107 0 -476769 0.00744057 0 -479098 0.00747894 0 -481451 0.00751624 0 -483829 0.00755234 0 -486231 0.00758734 0 -488658 0.00762113 0 -491110 0.00765367 0 -493587 0.00768498 0 -496088 0.00771503 0 -498614 0.00774379 0 -501165 0.00777119 0 -503742 0.00779723 0 -506343 0.0078219 0 -508970 0.00784513 0 -511623 0.0078669 0 -514301 0.00788722 0 -517004 0.007906 0 -353497 0 0 -353507 31.8611 0 -353536 63.7237 0 -353584 95.5892 0 -353651 127.459 0 -353737 159.335 0 -353842 191.218 0 -353966 223.11 0 -354110 255.012 0 -354272 286.926 0 -354454 318.853 0 -354655 350.795 0 -354875 382.753 0 -355115 414.729 0 -355373 446.724 0 -355651 478.739 0 -355948 510.776 0 -356264 542.837 0 -356599 574.923 0 -356954 607.035 0 -357328 639.175 0 -357721 671.344 0 -358133 703.544 0 -358565 735.777 0 -359016 768.043 0 -359487 800.344 0 -359977 832.682 0 -360486 865.057 0 -361015 897.473 0 -361563 929.929 0 -362131 962.428 0 -362718 994.97 0 -363325 1027.56 0 -363951 1060.19 0 -364597 1092.87 0 -365263 1125.61 0 -365948 1158.39 0 -366653 1191.23 0 -367377 1224.12 0 -368122 1257.06 0 -368886 1290.06 0 -369670 1323.12 0 -370473 1356.24 0 -371297 1389.42 0 -372141 1422.67 0 -373004 1455.97 0 -373888 1489.34 0 -374791 1522.78 0 -375715 1556.29 0 -376659 1589.87 0 -377623 1623.51 0 -378607 1657.23 0 -379612 1691.02 0 -380636 1724.89 0 -381681 1758.84 0 -382747 1792.86 0 -383833 1826.96 0 -384939 1861.14 0 -386066 1895.4 0 -387214 1929.75 0 -388382 1964.18 0 -389570 1998.7 0 -390780 2033.3 0 -392010 2068 0 -393262 2102.78 0 -394534 2137.65 0 -395827 2172.62 0 -397141 2207.68 0 -398476 2242.84 0 -399832 2278.09 0 -401209 2313.44 0 -402608 2348.89 0 -404028 2384.44 0 -405469 2420.09 0 -406932 2455.84 0 -408416 2491.7 0 -409922 2527.66 0 -411449 2563.73 0 -412998 2599.91 0 -414569 2636.2 0 -416161 2672.59 0 -417776 2709.1 0 -419412 2745.72 0 -421070 2782.46 0 -422751 2819.31 0 -424453 2856.28 0 -426178 2893.36 0 -427925 2930.56 0 -429695 2967.88 0 -431486 3005.33 0 -433301 3042.89 0 -435138 3080.58 0 -436997 3118.39 0 -438880 3156.32 0 -440785 3194.39 0 -442713 3232.58 0 -444663 3270.89 0 -446637 3309.34 0 -448634 3347.92 0 -450655 3386.63 0 -452698 3425.47 0 -454765 3464.44 0 -456855 3503.55 0 -458969 3542.79 0 -461106 3582.17 0 -463267 3621.69 0 -465452 3661.34 0 -467661 3701.13 0 -469893 3741.06 0 -472150 3781.13 0 -474430 3821.35 0 -476735 3861.7 0 -479064 3902.2 0 -481417 3942.84 0 -483795 3983.62 0 -486197 4024.55 0 -488624 4065.62 0 -491076 4106.84 0 -493552 4148.21 0 -496053 4189.72 0 -498579 4231.38 0 -501130 4273.19 0 -503707 4315.15 0 -506308 4357.26 0 -508935 4399.52 0 -511587 4441.93 0 -514265 4484.48 0 -516968 4527.19 0 -353418 0 0 -353427 63.7181 0 -353456 127.439 0 -353504 191.166 0 -353571 254.902 0 -353657 318.649 0 -353762 382.412 0 -353887 446.192 0 -354030 509.992 0 -354193 573.816 0 -354374 637.666 0 -354575 701.546 0 -354795 765.458 0 -355035 829.405 0 -355293 893.391 0 -355571 957.417 0 -355867 1021.49 0 -356184 1085.61 0 -356519 1149.77 0 -356873 1213.99 0 -357247 1278.27 0 -357640 1342.6 0 -358053 1407 0 -358484 1471.46 0 -358936 1535.99 0 -359406 1600.59 0 -359896 1665.26 0 -360405 1730.01 0 -360934 1794.83 0 -361482 1859.74 0 -362049 1924.73 0 -362637 1989.81 0 -363243 2054.99 0 -363869 2120.25 0 -364515 2185.61 0 -365181 2251.07 0 -365866 2316.64 0 -366570 2382.3 0 -367295 2448.08 0 -368039 2513.96 0 -368803 2579.96 0 -369587 2646.08 0 -370391 2712.31 0 -371214 2778.67 0 -372058 2845.15 0 -372921 2911.76 0 -373804 2978.5 0 -374708 3045.38 0 -375631 3112.39 0 -376575 3179.53 0 -377539 3246.82 0 -378523 3314.26 0 -379527 3381.84 0 -380552 3449.57 0 -381596 3517.46 0 -382662 3585.5 0 -383747 3653.7 0 -384854 3722.06 0 -385980 3790.58 0 -387128 3859.27 0 -388295 3928.13 0 -389484 3997.16 0 -390693 4066.36 0 -391923 4135.75 0 -393174 4205.31 0 -394446 4275.05 0 -395739 4344.98 0 -397053 4415.1 0 -398388 4485.41 0 -399744 4555.91 0 -401121 4626.6 0 -402519 4697.5 0 -403939 4768.59 0 -405380 4839.89 0 -406842 4911.4 0 -408326 4983.11 0 -409832 5055.03 0 -411359 5127.17 0 -412907 5199.52 0 -414478 5272.09 0 -416070 5344.88 0 -417684 5417.9 0 -419320 5491.13 0 -420978 5564.6 0 -422659 5638.3 0 -424361 5712.23 0 -426085 5786.39 0 -427832 5860.79 0 -429601 5935.43 0 -431393 6010.31 0 -433207 6085.44 0 -435043 6160.81 0 -436903 6236.43 0 -438785 6312.3 0 -440689 6388.42 0 -442617 6464.8 0 -444568 6541.43 0 -446541 6618.32 0 -448538 6695.47 0 -450558 6772.89 0 -452601 6850.57 0 -454667 6928.51 0 -456757 7006.72 0 -458871 7085.21 0 -461008 7163.96 0 -463168 7242.99 0 -465353 7322.3 0 -467561 7401.88 0 -469793 7481.74 0 -472049 7561.88 0 -474329 7642.3 0 -476634 7723.01 0 -478962 7804 0 -481315 7885.28 0 -483693 7966.84 0 -486095 8048.7 0 -488521 8130.84 0 -490972 8213.28 0 -493448 8296.01 0 -495949 8379.04 0 -498475 8462.36 0 -501026 8545.97 0 -503602 8629.89 0 -506203 8714.1 0 -508829 8798.62 0 -511481 8883.43 0 -514158 8968.55 0 -516861 9053.97 0 -353285 0 0 -353295 95.567 0 -353323 191.138 0 -353371 286.718 0 -353438 382.312 0 -353524 477.923 0 -353629 573.556 0 -353754 669.216 0 -353897 764.906 0 -354060 860.632 0 -354241 956.397 0 -354442 1052.21 0 -354662 1148.06 0 -354901 1243.97 0 -355160 1339.94 0 -355437 1435.97 0 -355734 1532.07 0 -356050 1628.23 0 -356385 1724.48 0 -356740 1820.8 0 -357113 1917.2 0 -357506 2013.69 0 -357918 2110.27 0 -358350 2206.96 0 -358801 2303.74 0 -359271 2400.62 0 -359761 2497.62 0 -360270 2594.73 0 -360799 2691.96 0 -361347 2789.31 0 -361914 2886.79 0 -362501 2984.41 0 -363107 3082.15 0 -363733 3180.04 0 -364379 3278.07 0 -365044 3376.25 0 -365729 3474.59 0 -366434 3573.08 0 -367158 3671.73 0 -367902 3770.55 0 -368665 3869.54 0 -369449 3968.7 0 -370252 4068.05 0 -371076 4167.57 0 -371919 4267.28 0 -372782 4367.19 0 -373665 4467.29 0 -374568 4567.59 0 -375492 4668.09 0 -376435 4768.81 0 -377398 4869.73 0 -378382 4970.87 0 -379386 5072.24 0 -380410 5173.83 0 -381455 5275.64 0 -382520 5377.69 0 -383605 5479.98 0 -384711 5582.51 0 -385837 5685.29 0 -386984 5788.31 0 -388152 5891.59 0 -389340 5995.13 0 -390549 6098.93 0 -391779 6202.99 0 -393029 6307.32 0 -394301 6411.93 0 -395593 6516.82 0 -396907 6621.98 0 -398241 6727.44 0 -399597 6833.18 0 -400973 6939.21 0 -402371 7045.55 0 -403790 7152.18 0 -405231 7259.12 0 -406693 7366.37 0 -408177 7473.93 0 -409682 7581.8 0 -411208 7690 0 -412756 7798.52 0 -414326 7907.37 0 -415918 8016.54 0 -417532 8126.06 0 -419168 8235.91 0 -420825 8346.1 0 -422505 8456.64 0 -424207 8567.52 0 -425931 8678.76 0 -427677 8790.35 0 -429445 8902.31 0 -431236 9014.62 0 -433050 9127.3 0 -434886 9240.35 0 -436745 9353.77 0 -438626 9467.57 0 -440530 9581.74 0 -442458 9696.3 0 -444408 9811.24 0 -446381 9926.57 0 -448377 10042.3 0 -450396 10158.4 0 -452439 10274.9 0 -454505 10391.8 0 -456594 10509.1 0 -458707 10626.9 0 -460843 10745 0 -463003 10863.5 0 -465187 10982.5 0 -467395 11101.8 0 -469626 11221.6 0 -471882 11341.8 0 -474162 11462.5 0 -476465 11583.5 0 -478793 11705 0 -481146 11826.9 0 -483523 11949.3 0 -485924 12072 0 -488350 12195.2 0 -490800 12318.9 0 -493276 12443 0 -495776 12567.5 0 -498301 12692.5 0 -500851 12817.9 0 -503427 12943.8 0 -506027 13070.1 0 -508653 13196.9 0 -511304 13324.1 0 -513981 13451.8 0 -516683 13579.9 0 -353099 0 0 -353109 127.403 0 -353137 254.813 0 -353185 382.234 0 -353252 509.673 0 -353338 637.135 0 -353443 764.627 0 -353568 892.154 0 -353711 1019.72 0 -353873 1147.34 0 -354055 1275 0 -354256 1402.73 0 -354476 1530.52 0 -354715 1658.38 0 -354973 1786.32 0 -355250 1914.34 0 -355547 2042.45 0 -355863 2170.65 0 -356198 2298.96 0 -356552 2427.36 0 -356926 2555.88 0 -357319 2684.52 0 -357731 2813.28 0 -358162 2942.17 0 -358613 3071.19 0 -359083 3200.36 0 -359572 3329.67 0 -360081 3459.13 0 -360609 3588.75 0 -361157 3718.54 0 -361724 3848.49 0 -362311 3978.62 0 -362917 4108.93 0 -363543 4239.43 0 -364188 4370.12 0 -364853 4501.01 0 -365538 4632.1 0 -366242 4763.4 0 -366966 4894.92 0 -367709 5026.66 0 -368473 5158.63 0 -369256 5290.83 0 -370059 5423.27 0 -370882 5555.95 0 -371725 5688.88 0 -372588 5822.07 0 -373470 5955.52 0 -374373 6089.23 0 -375296 6223.22 0 -376239 6357.49 0 -377202 6492.04 0 -378185 6626.88 0 -379189 6762.01 0 -380213 6897.44 0 -381257 7033.18 0 -382321 7169.23 0 -383406 7305.6 0 -384511 7442.28 0 -385637 7579.3 0 -386784 7716.65 0 -387951 7854.34 0 -389139 7992.37 0 -390347 8130.75 0 -391576 8269.48 0 -392826 8408.58 0 -394097 8548.04 0 -395389 8687.87 0 -396702 8828.07 0 -398036 8968.66 0 -399391 9109.63 0 -400767 9251 0 -402164 9392.76 0 -403583 9534.92 0 -405023 9677.49 0 -406484 9820.47 0 -407967 9963.87 0 -409472 10107.7 0 -410998 10251.9 0 -412545 10396.6 0 -414115 10541.7 0 -415706 10687.3 0 -417319 10833.3 0 -418954 10979.7 0 -420611 11126.6 0 -422289 11274 0 -423991 11421.8 0 -425714 11570.1 0 -427459 11718.9 0 -429227 11868.2 0 -431018 12017.9 0 -432831 12168.1 0 -434666 12318.9 0 -436524 12470.1 0 -438405 12621.8 0 -440308 12774 0 -442234 12926.7 0 -444184 13080 0 -446156 13233.7 0 -448151 13388 0 -450170 13542.8 0 -452212 13698.2 0 -454277 13854 0 -456366 14010.4 0 -458478 14167.4 0 -460613 14324.9 0 -462773 14482.9 0 -464956 14641.5 0 -467162 14800.6 0 -469393 14960.3 0 -471648 15120.6 0 -473927 15281.4 0 -476230 15442.8 0 -478557 15604.8 0 -480908 15767.3 0 -483284 15930.5 0 -485685 16094.1 0 -488110 16258.4 0 -490560 16423.3 0 -493034 16588.7 0 -495533 16754.8 0 -498058 16921.4 0 -500607 17088.6 0 -503181 17256.4 0 -505781 17424.9 0 -508406 17593.9 0 -511056 17763.5 0 -513732 17933.7 0 -516434 18104.6 0 -352860 0 0 -352870 159.224 0 -352899 318.455 0 -352946 477.7 0 -353013 636.968 0 -353099 796.265 0 -353204 955.599 0 -353328 1114.98 0 -353472 1274.41 0 -353634 1433.9 0 -353816 1593.45 0 -354016 1753.08 0 -354236 1912.79 0 -354475 2072.58 0 -354733 2232.47 0 -355010 2392.47 0 -355307 2552.57 0 -355622 2712.8 0 -355957 2873.14 0 -356311 3033.62 0 -356685 3194.24 0 -357077 3355.01 0 -357489 3515.93 0 -357920 3677.01 0 -358371 3838.26 0 -358841 3999.68 0 -359330 4161.29 0 -359838 4323.09 0 -360366 4485.08 0 -360914 4647.28 0 -361481 4809.7 0 -362067 4972.33 0 -362673 5135.19 0 -363298 5298.28 0 -363943 5461.61 0 -364608 5625.19 0 -365292 5789.03 0 -365996 5953.13 0 -366719 6117.5 0 -367462 6282.14 0 -368225 6447.07 0 -369008 6612.29 0 -369811 6777.81 0 -370633 6943.63 0 -371475 7109.77 0 -372338 7276.23 0 -373220 7443.01 0 -374122 7610.12 0 -375044 7777.58 0 -375987 7945.38 0 -376949 8113.54 0 -377932 8282.06 0 -378935 8450.94 0 -379958 8620.21 0 -381002 8789.85 0 -382066 8959.88 0 -383150 9130.31 0 -384255 9301.15 0 -385380 9472.39 0 -386526 9644.05 0 -387692 9816.13 0 -388879 9988.64 0 -390087 10161.6 0 -391316 10335 0 -392565 10508.8 0 -393835 10683.1 0 -395126 10857.9 0 -396439 11033.1 0 -397772 11208.8 0 -399126 11385 0 -400501 11561.7 0 -401898 11738.9 0 -403316 11916.5 0 -404755 12094.7 0 -406216 12273.4 0 -407698 12452.6 0 -409201 12632.4 0 -410727 12812.7 0 -412273 12993.5 0 -413842 13174.8 0 -415432 13356.8 0 -417045 13539.2 0 -418679 13722.3 0 -420335 13905.9 0 -422013 14090.1 0 -423713 14274.8 0 -425435 14460.2 0 -427180 14646.1 0 -428947 14832.7 0 -430737 15019.8 0 -432548 15207.6 0 -434383 15396 0 -436240 15585 0 -438120 15774.6 0 -440022 15964.8 0 -441948 16155.7 0 -443896 16347.3 0 -445867 16539.4 0 -447862 16732.3 0 -449879 16925.8 0 -451920 17119.9 0 -453984 17314.7 0 -456072 17510.2 0 -458183 17706.4 0 -460317 17903.2 0 -462476 18100.8 0 -464658 18299 0 -466863 18497.9 0 -469093 18697.5 0 -471347 18897.8 0 -473625 19098.8 0 -475926 19300.6 0 -478253 19503 0 -480603 19706.2 0 -482978 19910 0 -485377 20114.6 0 -487801 20320 0 -490250 20526 0 -492723 20732.8 0 -495221 20940.4 0 -497745 21148.7 0 -500293 21357.7 0 -502866 21567.4 0 -505465 21777.9 0 -508089 21989.2 0 -510738 22201.2 0 -513412 22414 0 -516113 22627.5 0 -352568 0 0 -352578 191.023 0 -352607 382.056 0 -352654 573.106 0 -352721 764.182 0 -352807 955.294 0 -352912 1146.45 0 -353036 1337.66 0 -353179 1528.93 0 -353342 1720.27 0 -353523 1911.69 0 -353724 2103.2 0 -353943 2294.8 0 -354182 2486.51 0 -354440 2678.34 0 -354717 2870.29 0 -355013 3062.37 0 -355329 3254.59 0 -355663 3446.97 0 -356017 3639.5 0 -356390 3832.19 0 -356782 4025.07 0 -357194 4218.13 0 -357625 4411.38 0 -358075 4604.83 0 -358544 4798.5 0 -359033 4992.38 0 -359542 5186.5 0 -360069 5380.85 0 -360616 5575.44 0 -361183 5770.29 0 -361769 5965.41 0 -362374 6160.79 0 -362999 6356.46 0 -363643 6552.42 0 -364307 6748.67 0 -364991 6945.23 0 -365694 7142.1 0 -366417 7339.3 0 -367160 7536.83 0 -367923 7734.7 0 -368705 7932.93 0 -369507 8131.5 0 -370329 8330.45 0 -371171 8529.77 0 -372032 8729.47 0 -372914 8929.57 0 -373816 9130.06 0 -374737 9330.97 0 -375679 9532.29 0 -376641 9734.03 0 -377623 9936.21 0 -378625 10138.8 0 -379648 10341.9 0 -380691 10545.4 0 -381754 10749.4 0 -382837 10953.9 0 -383941 11158.9 0 -385066 11364.3 0 -386211 11570.3 0 -387376 11776.7 0 -388563 11983.7 0 -389770 12191.2 0 -390997 12399.2 0 -392246 12607.8 0 -393515 12816.9 0 -394806 13026.6 0 -396117 13236.8 0 -397449 13447.6 0 -398803 13659 0 -400177 13871 0 -401573 14083.5 0 -402990 14296.7 0 -404428 14510.5 0 -405888 14724.9 0 -407369 14939.9 0 -408871 15155.6 0 -410396 15371.9 0 -411942 15588.8 0 -413509 15806.4 0 -415098 16024.7 0 -416709 16243.6 0 -418343 16463.2 0 -419998 16683.5 0 -421675 16904.5 0 -423374 17126.2 0 -425095 17348.6 0 -426839 17571.7 0 -428605 17795.5 0 -430393 18020.1 0 -432204 18245.4 0 -434037 18471.4 0 -435893 18698.1 0 -437771 18925.6 0 -439673 19153.9 0 -441597 19383 0 -443544 19612.8 0 -445514 19843.3 0 -447508 20074.7 0 -449524 20306.9 0 -451564 20539.8 0 -453627 20773.6 0 -455713 21008.1 0 -457823 21243.5 0 -459956 21479.7 0 -462113 21716.7 0 -464294 21954.5 0 -466498 22193.2 0 -468727 22432.7 0 -470979 22673.1 0 -473255 22914.3 0 -475556 23156.3 0 -477881 23399.2 0 -480230 23643 0 -482604 23887.6 0 -485002 24133.1 0 -487424 24379.5 0 -489871 24626.8 0 -492343 24874.9 0 -494840 25123.9 0 -497362 25373.8 0 -499909 25624.6 0 -502481 25876.3 0 -505078 26128.9 0 -507701 26382.4 0 -510348 26636.9 0 -513022 26892.2 0 -515721 27148.4 0 -352224 0 0 -352233 222.799 0 -352262 445.608 0 -352310 668.437 0 -352376 891.297 0 -352462 1114.2 0 -352567 1337.15 0 -352691 1560.17 0 -352834 1783.25 0 -352996 2006.42 0 -353177 2229.68 0 -353378 2453.05 0 -353597 2676.53 0 -353836 2900.13 0 -354093 3123.86 0 -354370 3347.74 0 -354666 3571.77 0 -354981 3795.97 0 -355316 4020.34 0 -355669 4244.9 0 -356042 4469.65 0 -356434 4694.61 0 -356845 4919.79 0 -357276 5145.18 0 -357726 5370.82 0 -358195 5596.7 0 -358683 5822.84 0 -359191 6049.24 0 -359718 6275.92 0 -360265 6502.89 0 -360831 6730.16 0 -361416 6957.73 0 -362021 7185.62 0 -362645 7413.84 0 -363289 7642.39 0 -363953 7871.29 0 -364636 8100.55 0 -365339 8330.18 0 -366061 8560.18 0 -366803 8790.58 0 -367565 9021.37 0 -368347 9252.56 0 -369148 9484.18 0 -369969 9716.22 0 -370810 9948.7 0 -371671 10181.6 0 -372552 10415 0 -373453 10648.9 0 -374374 10883.2 0 -375315 11118 0 -376276 11353.3 0 -377258 11589.1 0 -378259 11825.5 0 -379281 12062.3 0 -380323 12299.7 0 -381385 12537.7 0 -382468 12776.2 0 -383571 13015.2 0 -384694 13254.9 0 -385839 13495.1 0 -387003 13735.9 0 -388189 13977.3 0 -389395 14219.3 0 -390621 14462 0 -391869 14705.2 0 -393137 14949.1 0 -394427 15193.7 0 -395737 15438.9 0 -397068 15684.8 0 -398420 15931.4 0 -399794 16178.6 0 -401189 16426.6 0 -402604 16675.2 0 -404042 16924.6 0 -405500 17174.7 0 -406980 17425.5 0 -408482 17677 0 -410005 17929.3 0 -411549 18182.4 0 -413116 18436.2 0 -414704 18690.8 0 -416314 18946.2 0 -417945 19202.3 0 -419599 19459.3 0 -421275 19717 0 -422973 19975.6 0 -424693 20235 0 -426435 20495.3 0 -428200 20756.4 0 -429987 21018.3 0 -431796 21281.1 0 -433628 21544.7 0 -435483 21809.2 0 -437360 22074.6 0 -439260 22340.9 0 -441183 22608 0 -443129 22876.1 0 -445097 23145.1 0 -447089 23415 0 -449104 23685.8 0 -451142 23957.5 0 -453204 24230.2 0 -455289 24503.8 0 -457397 24778.3 0 -459529 25053.9 0 -461684 25330.3 0 -463864 25607.8 0 -466067 25886.2 0 -468293 26165.6 0 -470544 26445.9 0 -472819 26727.3 0 -475118 27009.7 0 -477442 27293 0 -479789 27577.4 0 -482161 27862.8 0 -484558 28149.2 0 -486979 28436.6 0 -489424 28725 0 -491895 29014.5 0 -494390 29305 0 -496910 29596.5 0 -499455 29889.1 0 -502026 30182.8 0 -504621 30477.4 0 -507242 30773.2 0 -509888 31070 0 -512560 31367.8 0 -515257 31666.7 0 -351826 0 0 -351835 254.545 0 -351864 509.102 0 -351912 763.683 0 -351978 1018.3 0 -352064 1272.96 0 -352169 1527.68 0 -352293 1782.48 0 -352436 2037.35 0 -352598 2292.32 0 -352779 2547.39 0 -352979 2802.59 0 -353198 3057.91 0 -353436 3313.37 0 -353694 3568.99 0 -353970 3824.77 0 -354266 4080.72 0 -354581 4336.87 0 -354915 4593.21 0 -355268 4849.77 0 -355641 5106.54 0 -356032 5363.56 0 -356443 5620.82 0 -356873 5878.34 0 -357322 6136.12 0 -357791 6394.19 0 -358279 6652.56 0 -358786 6911.22 0 -359313 7170.21 0 -359859 7429.52 0 -360425 7689.17 0 -361009 7949.17 0 -361614 8209.54 0 -362238 8470.28 0 -362881 8731.4 0 -363544 8992.92 0 -364226 9254.85 0 -364928 9517.2 0 -365650 9779.99 0 -366392 10043.2 0 -367153 10306.9 0 -367934 10571 0 -368734 10835.7 0 -369555 11100.8 0 -370395 11366.4 0 -371255 11632.5 0 -372135 11899.2 0 -373035 12166.3 0 -373955 12434.1 0 -374895 12702.4 0 -375856 12971.2 0 -376836 13240.6 0 -377837 13510.7 0 -378857 13781.3 0 -379898 14052.5 0 -380960 14324.4 0 -382041 14596.8 0 -383144 14870 0 -384266 15143.8 0 -385409 15418.2 0 -386573 15693.4 0 -387757 15969.2 0 -388962 16245.7 0 -390188 16522.9 0 -391434 16800.9 0 -392701 17079.6 0 -393989 17359 0 -395298 17639.2 0 -396628 17920.1 0 -397980 18201.8 0 -399352 18484.3 0 -400745 18767.6 0 -402160 19051.7 0 -403596 19336.6 0 -405053 19622.4 0 -406532 19909 0 -408032 20196.4 0 -409553 20484.6 0 -411097 20773.8 0 -412662 21063.8 0 -414248 21354.7 0 -415857 21646.5 0 -417487 21939.2 0 -419140 22232.8 0 -420814 22527.3 0 -422510 22822.8 0 -424229 23119.2 0 -425970 23416.5 0 -427733 23714.8 0 -429518 24014.1 0 -431326 24314.4 0 -433157 24615.6 0 -435010 24917.8 0 -436885 25221.1 0 -438784 25525.3 0 -440705 25830.6 0 -442649 26136.9 0 -444616 26444.3 0 -446606 26752.6 0 -448620 27062.1 0 -450656 27372.6 0 -452716 27684.1 0 -454799 27996.8 0 -456906 28310.5 0 -459036 28625.3 0 -461190 28941.3 0 -463367 29258.3 0 -465569 29576.4 0 -467794 29895.7 0 -470043 30216.1 0 -472316 30537.6 0 -474613 30860.2 0 -476935 31184 0 -479280 31509 0 -481651 31835.1 0 -484045 32162.4 0 -486464 32490.8 0 -488908 32820.4 0 -491377 33151.2 0 -493870 33483.2 0 -496389 33816.3 0 -498932 34150.7 0 -501500 34486.2 0 -504094 34823 0 -506713 35161 0 -509357 35500.1 0 -512027 35840.5 0 -514722 36182.1 0 -351375 0 0 -351385 286.259 0 -351413 572.531 0 -351461 858.83 0 -351528 1145.17 0 -351613 1431.56 0 -351718 1718.02 0 -351842 2004.56 0 -351984 2291.18 0 -352146 2577.92 0 -352327 2864.78 0 -352527 3151.76 0 -352746 3438.9 0 -352984 3726.19 0 -353241 4013.65 0 -353517 4301.3 0 -353813 4589.15 0 -354127 4877.2 0 -354461 5165.49 0 -354814 5454.01 0 -355186 5742.78 0 -355577 6031.82 0 -355987 6321.13 0 -356417 6610.74 0 -356866 6900.65 0 -357334 7190.87 0 -357821 7481.42 0 -358328 7772.32 0 -358854 8063.58 0 -359400 8355.2 0 -359965 8647.2 0 -360549 8939.6 0 -361152 9232.41 0 -361776 9525.64 0 -362418 9819.3 0 -363080 10113.4 0 -363762 10408 0 -364464 10703 0 -365185 10998.6 0 -365925 11294.6 0 -366685 11591.1 0 -367465 11888.2 0 -368265 12185.8 0 -369085 12483.9 0 -369924 12782.7 0 -370783 13081.9 0 -371663 13381.8 0 -372562 13682.3 0 -373481 13983.4 0 -374420 14285.1 0 -375379 14587.5 0 -376358 14890.5 0 -377358 15194.2 0 -378378 15498.5 0 -379418 15803.5 0 -380478 16109.3 0 -381558 16415.7 0 -382659 16722.9 0 -383781 17030.8 0 -384923 17339.5 0 -386085 17648.9 0 -387268 17959.1 0 -388472 18270.1 0 -389696 18581.9 0 -390941 18894.5 0 -392207 19208 0 -393494 19522.2 0 -394802 19837.3 0 -396130 20153.3 0 -397480 20470.1 0 -398851 20787.9 0 -400243 21106.5 0 -401656 21426 0 -403091 21746.4 0 -404546 22067.8 0 -406023 22390.1 0 -407522 22713.3 0 -409042 23037.6 0 -410584 23362.8 0 -412147 23688.9 0 -413733 24016.1 0 -415340 24344.3 0 -416968 24673.5 0 -418619 25003.7 0 -420292 25335 0 -421986 25667.3 0 -423703 26000.6 0 -425442 26335.1 0 -427204 26670.6 0 -428988 27007.2 0 -430794 27344.9 0 -432622 27683.7 0 -434474 28023.7 0 -436348 28364.7 0 -438244 28707 0 -440164 29050.3 0 -442106 29394.8 0 -444071 29740.5 0 -446059 30087.4 0 -448071 30435.4 0 -450106 30784.7 0 -452163 31135.1 0 -454245 31486.8 0 -456349 31839.7 0 -458478 32193.8 0 -460629 32549.1 0 -462805 32905.7 0 -465004 33263.6 0 -467227 33622.7 0 -469474 33983.1 0 -471746 34344.7 0 -474041 34707.6 0 -476360 35071.9 0 -478704 35437.4 0 -481072 35804.2 0 -483465 36172.3 0 -485882 36541.8 0 -488324 36912.5 0 -490790 37284.6 0 -493281 37658.1 0 -495798 38032.8 0 -498339 38408.9 0 -500905 38786.4 0 -503497 39165.2 0 -506113 39545.4 0 -508756 39926.9 0 -511423 40309.8 0 -514116 40694.1 0 -350872 0 0 -350881 317.936 0 -350910 635.887 0 -350957 953.867 0 -351024 1271.89 0 -351109 1589.98 0 -351214 1908.13 0 -351338 2226.38 0 -351480 2544.73 0 -351642 2863.19 0 -351822 3181.79 0 -352022 3500.53 0 -352241 3819.44 0 -352479 4138.53 0 -352735 4457.8 0 -353011 4777.28 0 -353306 5096.98 0 -353620 5416.92 0 -353954 5737.1 0 -354306 6057.56 0 -354678 6378.28 0 -355068 6699.31 0 -355478 7020.64 0 -355907 7342.29 0 -356356 7664.29 0 -356823 7986.63 0 -357310 8309.34 0 -357816 8632.43 0 -358342 8955.92 0 -358886 9279.82 0 -359451 9604.14 0 -360034 9928.9 0 -360637 10254.1 0 -361260 10579.8 0 -361901 10906 0 -362563 11232.6 0 -363244 11559.8 0 -363944 11887.5 0 -364664 12215.7 0 -365404 12544.5 0 -366163 12873.9 0 -366942 13203.8 0 -367741 13534.4 0 -368560 13865.5 0 -369398 14197.3 0 -370256 14529.7 0 -371135 14862.8 0 -372033 15196.6 0 -372951 15531 0 -373889 15866.1 0 -374847 16201.9 0 -375825 16538.5 0 -376823 16875.8 0 -377842 17213.8 0 -378880 17552.6 0 -379939 17892.2 0 -381019 18232.6 0 -382118 18573.8 0 -383238 18915.8 0 -384379 19258.7 0 -385540 19602.4 0 -386722 19946.9 0 -387924 20292.3 0 -389147 20638.7 0 -390391 20985.9 0 -391655 21334 0 -392940 21683.1 0 -394247 22033.1 0 -395574 22384 0 -396922 22736 0 -398291 23088.9 0 -399682 23442.8 0 -401093 23797.7 0 -402526 24153.6 0 -403980 24510.6 0 -405456 24868.6 0 -406953 25227.6 0 -408471 25587.8 0 -410011 25949 0 -411573 26311.3 0 -413156 26674.7 0 -414761 27039.3 0 -416388 27404.9 0 -418037 27771.7 0 -419708 28139.7 0 -421401 28508.8 0 -423116 28879.1 0 -424853 29250.6 0 -426613 29623.3 0 -428395 29997.2 0 -430199 30372.4 0 -432025 30748.8 0 -433875 31126.4 0 -435747 31505.2 0 -437641 31885.4 0 -439559 32266.8 0 -441499 32649.5 0 -443462 33033.5 0 -445448 33418.8 0 -447458 33805.5 0 -449490 34193.4 0 -451546 34582.8 0 -453625 34973.4 0 -455728 35365.4 0 -457854 35758.8 0 -460003 36153.5 0 -462177 36549.7 0 -464374 36947.2 0 -466595 37346.2 0 -468839 37746.5 0 -471108 38148.3 0 -473401 38551.5 0 -475718 38956.1 0 -478060 39362.1 0 -480426 39769.7 0 -482816 40178.6 0 -485231 40589.1 0 -487670 41001 0 -490134 41414.4 0 -492623 41829.2 0 -495137 42245.6 0 -497676 42663.4 0 -500240 43082.8 0 -502829 43503.6 0 -505444 43926 0 -508083 44349.9 0 -510748 44775.3 0 -513439 45202.2 0 -350315 0 0 -350325 349.572 0 -350353 699.161 0 -350401 1048.78 0 -350467 1398.45 0 -350553 1748.19 0 -350657 2098 0 -350781 2447.91 0 -350923 2797.94 0 -351084 3148.09 0 -351265 3498.39 0 -351464 3848.86 0 -351683 4199.5 0 -351920 4550.33 0 -352177 4901.38 0 -352452 5252.65 0 -352747 5604.16 0 -353060 5955.94 0 -353393 6307.99 0 -353745 6660.33 0 -354116 7012.97 0 -354506 7365.94 0 -354916 7719.25 0 -355344 8072.91 0 -355792 8426.95 0 -356259 8781.37 0 -356745 9136.2 0 -357251 9491.44 0 -357775 9847.12 0 -358319 10203.3 0 -358883 10559.9 0 -359466 10916.9 0 -360068 11274.5 0 -360689 11632.6 0 -361330 11991.2 0 -361991 12350.4 0 -362671 12710.2 0 -363370 13070.5 0 -364089 13431.4 0 -364828 13792.9 0 -365587 14155.1 0 -366365 14517.8 0 -367162 14881.3 0 -367980 15245.4 0 -368817 15610.2 0 -369674 15975.7 0 -370551 16342 0 -371448 16708.9 0 -372365 17076.6 0 -373302 17445.1 0 -374259 17814.4 0 -375235 18184.4 0 -376232 18555.3 0 -377250 18927 0 -378287 19299.6 0 -379345 19673 0 -380422 20047.2 0 -381521 20422.4 0 -382639 20798.5 0 -383778 21175.5 0 -384938 21553.4 0 -386118 21932.2 0 -387319 22312.1 0 -388540 22692.9 0 -389782 23074.7 0 -391045 23457.5 0 -392329 23841.3 0 -393633 24226.2 0 -394959 24612.1 0 -396305 24999.1 0 -397673 25387.1 0 -399062 25776.3 0 -400471 26166.6 0 -401902 26557.9 0 -403355 26950.5 0 -404828 27344.1 0 -406323 27739 0 -407840 28135 0 -409378 28532.2 0 -410938 28930.6 0 -412519 29330.2 0 -414123 29731.1 0 -415748 30133.2 0 -417394 30536.6 0 -419063 30941.2 0 -420754 31347.1 0 -422467 31754.3 0 -424202 32162.9 0 -425960 32572.7 0 -427739 32983.9 0 -429541 33396.4 0 -431366 33810.3 0 -433213 34225.6 0 -435083 34642.2 0 -436975 35060.3 0 -438890 35479.7 0 -440828 35900.6 0 -442789 36322.9 0 -444773 36746.6 0 -446780 37171.8 0 -448810 37598.5 0 -450864 38026.6 0 -452940 38456.2 0 -455040 38887.4 0 -457164 39320 0 -459311 39754.1 0 -461482 40189.8 0 -463677 40627 0 -465895 41065.7 0 -468138 41506 0 -470404 41947.8 0 -472694 42391.3 0 -475009 42836.3 0 -477348 43282.9 0 -479711 43731.1 0 -482099 44180.9 0 -484511 44632.3 0 -486948 45085.3 0 -489410 45540 0 -491896 45996.3 0 -494407 46454.2 0 -496944 46913.8 0 -499505 47375 0 -502091 47837.9 0 -504703 48302.4 0 -507340 48768.7 0 -510003 49236.6 0 -512691 49706.1 0 -349706 0 0 -349716 381.163 0 -349744 762.345 0 -349792 1143.56 0 -349858 1524.83 0 -349944 1906.17 0 -350048 2287.6 0 -350171 2669.13 0 -350313 3050.79 0 -350474 3432.59 0 -350654 3814.55 0 -350854 4196.69 0 -351072 4579.01 0 -351309 4961.56 0 -351565 5344.33 0 -351840 5727.35 0 -352134 6110.63 0 -352447 6494.19 0 -352780 6878.06 0 -353131 7262.24 0 -353502 7646.76 0 -353891 8031.63 0 -354300 8416.87 0 -354728 8802.5 0 -355175 9188.53 0 -355641 9574.99 0 -356127 9961.89 0 -356631 10349.2 0 -357155 10737.1 0 -357699 11125.4 0 -358261 11514.2 0 -358843 11903.6 0 -359444 12293.5 0 -360065 12684 0 -360705 13075 0 -361365 13466.7 0 -362044 13858.9 0 -362742 14251.8 0 -363460 14645.3 0 -364198 15039.5 0 -364955 15434.4 0 -365732 15830 0 -366529 16226.3 0 -367345 16623.4 0 -368181 17021.1 0 -369037 17419.7 0 -369913 17819.1 0 -370808 18219.2 0 -371724 18620.2 0 -372659 19022 0 -373615 19424.6 0 -374590 19828.1 0 -375586 20232.6 0 -376601 20637.9 0 -377637 21044.1 0 -378693 21451.3 0 -379770 21859.4 0 -380866 22268.5 0 -381983 22678.6 0 -383121 23089.7 0 -384279 23501.8 0 -385457 23914.9 0 -386656 24329.1 0 -387876 24744.3 0 -389116 25160.7 0 -390377 25578.1 0 -391659 25996.7 0 -392962 26416.4 0 -394286 26837.2 0 -395630 27259.2 0 -396996 27682.4 0 -398383 28106.7 0 -399791 28532.3 0 -401220 28959.1 0 -402670 29387.2 0 -404142 29816.5 0 -405635 30247 0 -407149 30678.9 0 -408685 31112 0 -410243 31546.5 0 -411822 31982.3 0 -413423 32419.5 0 -415046 32858 0 -416691 33297.9 0 -418357 33739.1 0 -420046 34181.8 0 -421756 34625.9 0 -423489 35071.4 0 -425244 35518.4 0 -427022 35966.8 0 -428821 36416.7 0 -430644 36868.1 0 -432488 37320.9 0 -434356 37775.3 0 -436245 38231.2 0 -438158 38688.7 0 -440094 39147.7 0 -442052 39608.3 0 -444033 40070.4 0 -446038 40534.1 0 -448066 40999.4 0 -450116 41466.4 0 -452190 41934.9 0 -454288 42405.1 0 -456409 42876.9 0 -458554 43350.4 0 -460722 43825.6 0 -462914 44302.4 0 -465130 44780.9 0 -467369 45261.1 0 -469633 45743.1 0 -471921 46226.7 0 -474232 46712.1 0 -476569 47199.2 0 -47892