<?xml version="1.0"?> 
<VTKFile type="StructuredGrid" version="0.1"> 
<StructuredGrid WholeExtent="0 127 0 127 0 0"> 
<Piece Extent="0 127 0 127 0 0"> 
<PointData>
<DataArray type="Float32" Name="E" format="ascii" NumberOfComponents="3"> 
2.26143e+06 4.72525e+06 0 2.28947e+06 4.72852e+06 0 2.31395e+06 4.72618e+06 0 2.33611e+06 4.72077e+06 0 2.35661e+06 4.71356e+06 0 2.37583e+06 4.70526e+06 0 2.39401e+06 4.69626e+06 0 2.41132e+06 4.68681e+06 0 2.42789e+06 4.67707e+06 0 2.44382e+06 4.66717e+06 0 2.4592e+06 4.65718e+06 0 2.4741e+06 4.64716e+06 0 2.48857e+06 4.63716e+06 0 2.50268e+06 4.62723e+06 0 2.51647e+06 4.61738e+06 0 2.52999e+06 4.60764e+06 0 2.54328e+06 4.59802e+06 0 2.55638e+06 4.58855e+06 0 2.56932e+06 4.57923e+06 0 2.58212e+06 4.57007e+06 0 2.59484e+06 4.56107e+06 0 2.60747e+06 4.55224e+06 0 2.62006e+06 4.54357e+06 0 2.63263e+06 4.53507e+06 0 2.64519e+06 4.52673e+06 0 2.65777e+06 4.51855e+06 0 2.67038e+06 4.51052e+06 0 2.68305e+06 4.50265e+06 0 2.69579e+06 4.49492e+06 0 2.70861e+06 4.48733e+06 0 2.72153e+06 4.47986e+06 0 2.73456e+06 4.47251e+06 0 2.74771e+06 4.46528e+06 0 2.761e+06 4.45814e+06 0 2.77444e+06 4.4511e+06 0 2.78803e+06 4.44413e+06 0 2.80179e+06 4.43722e+06 0 2.81571e+06 4.43037e+06 0 2.82982e+06 4.42356e+06 0 2.84411e+06 4.41678e+06 0 2.8586e+06 4.41001e+06 0 2.87328e+06 4.40323e+06 0 2.88815e+06 4.39644e+06 0 2.90323e+06 4.38961e+06 0 2.91851e+06 4.38272e+06 0 2.934e+06 4.37577e+06 0 2.94969e+06 4.36873e+06 0 2.96558e+06 4.36159e+06 0 2.98168e+06 4.35433e+06 0 2.99796e+06 4.34692e+06 0 3.01444e+06 4.33935e+06 0 3.03111e+06 4.3316e+06 0 3.04795e+06 4.32365e+06 0 3.06495e+06 4.31548e+06 0 3.08212e+06 4.30706e+06 0 3.09943e+06 4.29839e+06 0 3.11687e+06 4.28944e+06 0 3.13443e+06 4.28018e+06 0 3.15209e+06 4.2706e+06 0 3.16983e+06 4.26068e+06 0 3.18763e+06 4.2504e+06 0 3.20547e+06 4.23975e+06 0 3.22332e+06 4.2287e+06 0 3.24117e+06 4.21724e+06 0 3.25898e+06 4.20535e+06 0 3.27673e+06 4.19302e+06 0 3.29438e+06 4.18025e+06 0 3.3119e+06 4.16701e+06 0 3.32927e+06 4.1533e+06 0 3.34644e+06 4.13912e+06 0 3.36339e+06 4.12447e+06 0 3.38008e+06 4.10933e+06 0 3.39647e+06 4.09372e+06 0 3.41252e+06 4.07764e+06 0 3.4282e+06 4.0611e+06 0 3.44348e+06 4.04411e+06 0 3.45831e+06 4.02668e+06 0 3.47266e+06 4.00885e+06 0 3.4865e+06 3.99062e+06 0 3.49979e+06 3.97203e+06 0 3.5125e+06 3.95311e+06 0 3.52461e+06 3.93389e+06 0 3.53608e+06 3.91441e+06 0 3.54688e+06 3.8947e+06 0 3.55701e+06 3.87482e+06 0 3.56642e+06 3.85481e+06 0 3.57512e+06 3.83471e+06 0 3.58309e+06 3.81459e+06 0 3.59031e+06 3.79449e+06 0 3.59679e+06 3.77447e+06 0 3.60251e+06 3.75459e+06 0 3.60749e+06 3.73491e+06 0 3.61172e+06 3.71548e+06 0 3.61523e+06 3.69636e+06 0 3.61802e+06 3.67761e+06 0 3.62011e+06 3.6593e+06 0 3.62153e+06 3.64147e+06 0 3.6223e+06 3.6242e+06 0 3.62246e+06 3.60753e+06 0 3.62205e+06 3.59152e+06 0 3.62109e+06 3.57623e+06 0 3.61964e+06 3.56171e+06 0 3.61775e+06 3.54802e+06 0 3.61546e+06 3.53519e+06 0 3.61284e+06 3.5233e+06 0 3.60995e+06 3.51238e+06 0 3.60684e+06 3.5025e+06 0 3.6036e+06 3.49369e+06 0 3.6003e+06 3.48603e+06 0 3.59702e+06 3.47955e+06 0 3.59385e+06 3.47433e+06 0 3.59088e+06 3.47043e+06 0 3.58824e+06 3.46793e+06 0 3.58603e+06 3.46691e+06 0 3.5844e+06 3.46746e+06 0 3.58349e+06 3.46972e+06 0 3.58349e+06 3.47381e+06 0 3.5846e+06 3.47991e+06 0 3.58707e+06 3.48822e+06 0 3.5912e+06 3.49901e+06 0 3.59733e+06 3.51259e+06 0 3.60591e+06 3.52938e+06 0 3.61748e+06 3.54989e+06 0 3.63272e+06 3.57478e+06 0 3.65248e+06 3.6049e+06 0 3.67787e+06 3.64134e+06 0 3.71028e+06 3.68552e+06 0 3.75153e+06 3.73931e+06 0 2.2474e+06 4.67293e+06 0 2.26208e+06 4.67122e+06 0 2.27895e+06 4.66911e+06 0 2.29676e+06 4.66569e+06 0 2.31482e+06 4.66087e+06 0 2.33277e+06 4.65481e+06 0 2.35041e+06 4.64772e+06 0 2.36765e+06 4.63983e+06 0 2.38445e+06 4.63131e+06 0 2.40082e+06 4.62232e+06 0 2.41677e+06 4.61298e+06 0 2.43234e+06 4.60338e+06 0 2.44755e+06 4.59361e+06 0 2.46244e+06 4.58371e+06 0 2.47705e+06 4.57375e+06 0 2.4914e+06 4.56375e+06 0 2.50553e+06 4.55376e+06 0 2.51947e+06 4.54378e+06 0 2.53326e+06 4.53386e+06 0 2.54692e+06 4.52398e+06 0 2.56047e+06 4.51418e+06 0 2.57395e+06 4.50445e+06 0 2.58737e+06 4.4948e+06 0 2.60076e+06 4.48523e+06 0 2.61414e+06 4.47574e+06 0 2.62752e+06 4.46633e+06 0 2.64093e+06 4.457e+06 0 2.65437e+06 4.44773e+06 0 2.66786e+06 4.43853e+06 0 2.68143e+06 4.42939e+06 0 2.69507e+06 4.42029e+06 0 2.7088e+06 4.41124e+06 0 2.72262e+06 4.40221e+06 0 2.73656e+06 4.39319e+06 0 2.7506e+06 4.38418e+06 0 2.76477e+06 4.37517e+06 0 2.77906e+06 4.36613e+06 0 2.79347e+06 4.35706e+06 0 2.80802e+06 4.34794e+06 0 2.82269e+06 4.33876e+06 0 2.83749e+06 4.3295e+06 0 2.85242e+06 4.32015e+06 0 2.86748e+06 4.31069e+06 0 2.88265e+06 4.30111e+06 0 2.89794e+06 4.29139e+06 0 2.91333e+06 4.28152e+06 0 2.92882e+06 4.27148e+06 0 2.9444e+06 4.26126e+06 0 2.96006e+06 4.25084e+06 0 2.97578e+06 4.24021e+06 0 2.99156e+06 4.22936e+06 0 3.00736e+06 4.21827e+06 0 3.02319e+06 4.20694e+06 0 3.03902e+06 4.19535e+06 0 3.05483e+06 4.18349e+06 0 3.07061e+06 4.17136e+06 0 3.08632e+06 4.15895e+06 0 3.10196e+06 4.14625e+06 0 3.1175e+06 4.13326e+06 0 3.13292e+06 4.11998e+06 0 3.14818e+06 4.1064e+06 0 3.16328e+06 4.09254e+06 0 3.17819e+06 4.07839e+06 0 3.19288e+06 4.06395e+06 0 3.20733e+06 4.04924e+06 0 3.22152e+06 4.03427e+06 0 3.23544e+06 4.01904e+06 0 3.24904e+06 4.00357e+06 0 3.26233e+06 3.98788e+06 0 3.27528e+06 3.97198e+06 0 3.28787e+06 3.95589e+06 0 3.30009e+06 3.93964e+06 0 3.31193e+06 3.92324e+06 0 3.32337e+06 3.90671e+06 0 3.33441e+06 3.89009e+06 0 3.34504e+06 3.8734e+06 0 3.35525e+06 3.85666e+06 0 3.36504e+06 3.8399e+06 0 3.37441e+06 3.82315e+06 0 3.38337e+06 3.80644e+06 0 3.39191e+06 3.78979e+06 0 3.40004e+06 3.77323e+06 0 3.40778e+06 3.75679e+06 0 3.41512e+06 3.7405e+06 0 3.42209e+06 3.72438e+06 0 3.4287e+06 3.70845e+06 0 3.43497e+06 3.69275e+06 0 3.44091e+06 3.67729e+06 0 3.44654e+06 3.6621e+06 0 3.45189e+06 3.6472e+06 0 3.45697e+06 3.63261e+06 0 3.46182e+06 3.61835e+06 0 3.46647e+06 3.60444e+06 0 3.47093e+06 3.5909e+06 0 3.47524e+06 3.57773e+06 0 3.47944e+06 3.56496e+06 0 3.48355e+06 3.5526e+06 0 3.48761e+06 3.54065e+06 0 3.49166e+06 3.52914e+06 0 3.49574e+06 3.51808e+06 0 3.49988e+06 3.50746e+06 0 3.50414e+06 3.4973e+06 0 3.50856e+06 3.48761e+06 0 3.51319e+06 3.47839e+06 0 3.51808e+06 3.46963e+06 0 3.52328e+06 3.46135e+06 0 3.52887e+06 3.45355e+06 0 3.5349e+06 3.44621e+06 0 3.54144e+06 3.43933e+06 0 3.54857e+06 3.43291e+06 0 3.55636e+06 3.42692e+06 0 3.5649e+06 3.42134e+06 0 3.57429e+06 3.41615e+06 0 3.58461e+06 3.41131e+06 0 3.59598e+06 3.40676e+06 0 3.60849e+06 3.40243e+06 0 3.62227e+06 3.39825e+06 0 3.63743e+06 3.3941e+06 0 3.65407e+06 3.38983e+06 0 3.67231e+06 3.38526e+06 0 3.69224e+06 3.38014e+06 0 3.71393e+06 3.37416e+06 0 3.73741e+06 3.36692e+06 0 3.76264e+06 3.35788e+06 0 3.7895e+06 3.34636e+06 0 3.81773e+06 3.33145e+06 0 3.84686e+06 3.31198e+06 0 3.87615e+06 3.28639e+06 0 2.22282e+06 4.63497e+06 0 2.23725e+06 4.63098e+06 0 2.25199e+06 4.62647e+06 0 2.26733e+06 4.62152e+06 0 2.28315e+06 4.61599e+06 0 2.29931e+06 4.60977e+06 0 2.31561e+06 4.60285e+06 0 2.33192e+06 4.59527e+06 0 2.34814e+06 4.58708e+06 0 2.36419e+06 4.57838e+06 0 2.38004e+06 4.56924e+06 0 2.39567e+06 4.55974e+06 0 2.41107e+06 4.54995e+06 0 2.42625e+06 4.53994e+06 0 2.44121e+06 4.52974e+06 0 2.45598e+06 4.5194e+06 0 2.47058e+06 4.50897e+06 0 2.48502e+06 4.49846e+06 0 2.49932e+06 4.4879e+06 0 2.51351e+06 4.4773e+06 0 2.52761e+06 4.46669e+06 0 2.54163e+06 4.45608e+06 0 2.55559e+06 4.44546e+06 0 2.56952e+06 4.43484e+06 0 2.58343e+06 4.42423e+06 0 2.59733e+06 4.41362e+06 0 2.61123e+06 4.40301e+06 0 2.62516e+06 4.3924e+06 0 2.63912e+06 4.38178e+06 0 2.65311e+06 4.37114e+06 0 2.66716e+06 4.36048e+06 0 2.68126e+06 4.34979e+06 0 2.69543e+06 4.33906e+06 0 2.70966e+06 4.32828e+06 0 2.72396e+06 4.31743e+06 0 2.73833e+06 4.3065e+06 0 2.75277e+06 4.29549e+06 0 2.76727e+06 4.28438e+06 0 2.78185e+06 4.27316e+06 0 2.79648e+06 4.26182e+06 0 2.81117e+06 4.25034e+06 0 2.8259e+06 4.23872e+06 0 2.84068e+06 4.22693e+06 0 2.85549e+06 4.21498e+06 0 2.87031e+06 4.20285e+06 0 2.88514e+06 4.19053e+06 0 2.89997e+06 4.17801e+06 0 2.91477e+06 4.16529e+06 0 2.92954e+06 4.15236e+06 0 2.94425e+06 4.13921e+06 0 2.9589e+06 4.12584e+06 0 2.97345e+06 4.11225e+06 0 2.98791e+06 4.09844e+06 0 3.00224e+06 4.0844e+06 0 3.01643e+06 4.07015e+06 0 3.03046e+06 4.05567e+06 0 3.04431e+06 4.04099e+06 0 3.05797e+06 4.0261e+06 0 3.07142e+06 4.01101e+06 0 3.08463e+06 3.99574e+06 0 3.09761e+06 3.9803e+06 0 3.11033e+06 3.9647e+06 0 3.12277e+06 3.94895e+06 0 3.13494e+06 3.93307e+06 0 3.14681e+06 3.91709e+06 0 3.15839e+06 3.901e+06 0 3.16966e+06 3.88485e+06 0 3.18061e+06 3.86863e+06 0 3.19126e+06 3.85238e+06 0 3.20158e+06 3.83612e+06 0 3.21159e+06 3.81986e+06 0 3.22129e+06 3.80362e+06 0 3.23069e+06 3.78742e+06 0 3.23978e+06 3.77129e+06 0 3.24858e+06 3.75524e+06 0 3.25709e+06 3.73928e+06 0 3.26533e+06 3.72344e+06 0 3.27331e+06 3.70773e+06 0 3.28104e+06 3.69217e+06 0 3.28854e+06 3.67676e+06 0 3.29582e+06 3.66153e+06 0 3.3029e+06 3.64647e+06 0 3.30981e+06 3.63161e+06 0 3.31654e+06 3.61695e+06 0 3.32314e+06 3.60249e+06 0 3.32961e+06 3.58824e+06 0 3.33598e+06 3.5742e+06 0 3.34226e+06 3.56038e+06 0 3.34849e+06 3.54678e+06 0 3.35467e+06 3.5334e+06 0 3.36084e+06 3.52023e+06 0 3.36702e+06 3.50728e+06 0 3.37323e+06 3.49454e+06 0 3.37949e+06 3.48199e+06 0 3.38583e+06 3.46965e+06 0 3.39227e+06 3.45749e+06 0 3.39884e+06 3.44551e+06 0 3.40556e+06 3.43369e+06 0 3.41246e+06 3.42203e+06 0 3.41956e+06 3.4105e+06 0 3.42689e+06 3.39909e+06 0 3.43448e+06 3.38777e+06 0 3.44235e+06 3.37654e+06 0 3.45053e+06 3.36535e+06 0 3.45904e+06 3.35419e+06 0 3.46791e+06 3.34302e+06 0 3.47717e+06 3.33181e+06 0 3.48685e+06 3.32051e+06 0 3.49696e+06 3.30908e+06 0 3.50752e+06 3.29748e+06 0 3.51856e+06 3.28565e+06 0 3.53008e+06 3.27352e+06 0 3.54211e+06 3.26104e+06 0 3.55464e+06 3.24812e+06 0 3.56767e+06 3.23468e+06 0 3.5812e+06 3.22065e+06 0 3.59521e+06 3.20592e+06 0 3.60966e+06 3.19041e+06 0 3.62451e+06 3.174e+06 0 3.63971e+06 3.15661e+06 0 3.65519e+06 3.13814e+06 0 3.67087e+06 3.11853e+06 0 3.68666e+06 3.09773e+06 0 3.70247e+06 3.07575e+06 0 3.71822e+06 3.05268e+06 0 3.73387e+06 3.02872e+06 0 3.74946e+06 3.00426e+06 0 3.76513e+06 2.97995e+06 0 2.19685e+06 4.60158e+06 0 2.21052e+06 4.59614e+06 0 2.22474e+06 4.59039e+06 0 2.23935e+06 4.58422e+06 0 2.25429e+06 4.5776e+06 0 2.2695e+06 4.57049e+06 0 2.28492e+06 4.56289e+06 0 2.30046e+06 4.55479e+06 0 2.31606e+06 4.54621e+06 0 2.33165e+06 4.53718e+06 0 2.34717e+06 4.52774e+06 0 2.36261e+06 4.51794e+06 0 2.37792e+06 4.50781e+06 0 2.39311e+06 4.49741e+06 0 2.40816e+06 4.48677e+06 0 2.42308e+06 4.47593e+06 0 2.43788e+06 4.46492e+06 0 2.45255e+06 4.45377e+06 0 2.46712e+06 4.44251e+06 0 2.4816e+06 4.43114e+06 0 2.49599e+06 4.41968e+06 0 2.51032e+06 4.40815e+06 0 2.52459e+06 4.39656e+06 0 2.53882e+06 4.38489e+06 0 2.55302e+06 4.37317e+06 0 2.5672e+06 4.36139e+06 0 2.58138e+06 4.34955e+06 0 2.59554e+06 4.33764e+06 0 2.60972e+06 4.32566e+06 0 2.62391e+06 4.31361e+06 0 2.63811e+06 4.30148e+06 0 2.65233e+06 4.28926e+06 0 2.66657e+06 4.27694e+06 0 2.68083e+06 4.26452e+06 0 2.69511e+06 4.25199e+06 0 2.70941e+06 4.23933e+06 0 2.72372e+06 4.22654e+06 0 2.73804e+06 4.21361e+06 0 2.75236e+06 4.20053e+06 0 2.76667e+06 4.18729e+06 0 2.78096e+06 4.17389e+06 0 2.79523e+06 4.16032e+06 0 2.80946e+06 4.14656e+06 0 2.82364e+06 4.13263e+06 0 2.83775e+06 4.11851e+06 0 2.85178e+06 4.1042e+06 0 2.86573e+06 4.0897e+06 0 2.87956e+06 4.07501e+06 0 2.89328e+06 4.06013e+06 0 2.90686e+06 4.04507e+06 0 2.92028e+06 4.02982e+06 0 2.93354e+06 4.01439e+06 0 2.94661e+06 3.99879e+06 0 2.95949e+06 3.98303e+06 0 2.97216e+06 3.96712e+06 0 2.98461e+06 3.95106e+06 0 2.99683e+06 3.93488e+06 0 3.0088e+06 3.91858e+06 0 3.02052e+06 3.90218e+06 0 3.03198e+06 3.88569e+06 0 3.04318e+06 3.86913e+06 0 3.05411e+06 3.85252e+06 0 3.06477e+06 3.83586e+06 0 3.07516e+06 3.81919e+06 0 3.08527e+06 3.80251e+06 0 3.09511e+06 3.78584e+06 0 3.10469e+06 3.76919e+06 0 3.114e+06 3.75259e+06 0 3.12306e+06 3.73605e+06 0 3.13187e+06 3.71957e+06 0 3.14045e+06 3.70318e+06 0 3.1488e+06 3.68688e+06 0 3.15693e+06 3.6707e+06 0 3.16486e+06 3.65462e+06 0 3.17259e+06 3.63867e+06 0 3.18016e+06 3.62286e+06 0 3.18755e+06 3.60717e+06 0 3.1948e+06 3.59164e+06 0 3.20192e+06 3.57624e+06 0 3.20892e+06 3.56099e+06 0 3.21582e+06 3.54589e+06 0 3.22264e+06 3.53094e+06 0 3.22939e+06 3.51613e+06 0 3.23608e+06 3.50145e+06 0 3.24273e+06 3.48692e+06 0 3.24936e+06 3.47251e+06 0 3.25598e+06 3.45823e+06 0 3.26262e+06 3.44406e+06 0 3.26927e+06 3.43e+06 0 3.27596e+06 3.41603e+06 0 3.2827e+06 3.40215e+06 0 3.2895e+06 3.38833e+06 0 3.29639e+06 3.37458e+06 0 3.30336e+06 3.36086e+06 0 3.31043e+06 3.34717e+06 0 3.31762e+06 3.33349e+06 0 3.32493e+06 3.3198e+06 0 3.33237e+06 3.30608e+06 0 3.33996e+06 3.2923e+06 0 3.3477e+06 3.27846e+06 0 3.35559e+06 3.26452e+06 0 3.36365e+06 3.25046e+06 0 3.37188e+06 3.23626e+06 0 3.38029e+06 3.22189e+06 0 3.38886e+06 3.20731e+06 0 3.39762e+06 3.19251e+06 0 3.40654e+06 3.17745e+06 0 3.41564e+06 3.1621e+06 0 3.42491e+06 3.14642e+06 0 3.43433e+06 3.1304e+06 0 3.4439e+06 3.11399e+06 0 3.45362e+06 3.09716e+06 0 3.46345e+06 3.07989e+06 0 3.47339e+06 3.06214e+06 0 3.48342e+06 3.04388e+06 0 3.49353e+06 3.0251e+06 0 3.50368e+06 3.00576e+06 0 3.51387e+06 2.98586e+06 0 3.52407e+06 2.96537e+06 0 3.53426e+06 2.94428e+06 0 3.54443e+06 2.92259e+06 0 3.55456e+06 2.90028e+06 0 3.56465e+06 2.87735e+06 0 3.57467e+06 2.85375e+06 0 3.58462e+06 2.82943e+06 0 3.59446e+06 2.80426e+06 0 3.60413e+06 2.77804e+06 0 3.61347e+06 2.7504e+06 0 2.17008e+06 4.57166e+06 0 2.18364e+06 4.56496e+06 0 2.19749e+06 4.55798e+06 0 2.21168e+06 4.55068e+06 0 2.22617e+06 4.54303e+06 0 2.2409e+06 4.53499e+06 0 2.25583e+06 4.52655e+06 0 2.27091e+06 4.51769e+06 0 2.28608e+06 4.50842e+06 0 2.3013e+06 4.49876e+06 0 2.31653e+06 4.48873e+06 0 2.33174e+06 4.47834e+06 0 2.34689e+06 4.46764e+06 0 2.36198e+06 4.45665e+06 0 2.37699e+06 4.44539e+06 0 2.39192e+06 4.43391e+06 0 2.40675e+06 4.42221e+06 0 2.4215e+06 4.41033e+06 0 2.43617e+06 4.39828e+06 0 2.45076e+06 4.38608e+06 0 2.46528e+06 4.37374e+06 0 2.47974e+06 4.36128e+06 0 2.49414e+06 4.34869e+06 0 2.5085e+06 4.33599e+06 0 2.52282e+06 4.32318e+06 0 2.5371e+06 4.31025e+06 0 2.55135e+06 4.29722e+06 0 2.56557e+06 4.28407e+06 0 2.57978e+06 4.2708e+06 0 2.59396e+06 4.25742e+06 0 2.60813e+06 4.24391e+06 0 2.62227e+06 4.23027e+06 0 2.6364e+06 4.21649e+06 0 2.6505e+06 4.20258e+06 0 2.66457e+06 4.18851e+06 0 2.6786e+06 4.17429e+06 0 2.69259e+06 4.15992e+06 0 2.70654e+06 4.14538e+06 0 2.72042e+06 4.13067e+06 0 2.73424e+06 4.11579e+06 0 2.74798e+06 4.10074e+06 0 2.76162e+06 4.08551e+06 0 2.77516e+06 4.07011e+06 0 2.78859e+06 4.05453e+06 0 2.80189e+06 4.03877e+06 0 2.81505e+06 4.02285e+06 0 2.82805e+06 4.00676e+06 0 2.84089e+06 3.9905e+06 0 2.85354e+06 3.97409e+06 0 2.86601e+06 3.95754e+06 0 2.87827e+06 3.94084e+06 0 2.89032e+06 3.92402e+06 0 2.90215e+06 3.90709e+06 0 2.91375e+06 3.89005e+06 0 2.92511e+06 3.87291e+06 0 2.93623e+06 3.8557e+06 0 2.94709e+06 3.83843e+06 0 2.95771e+06 3.82111e+06 0 2.96807e+06 3.80375e+06 0 2.97818e+06 3.78637e+06 0 2.98804e+06 3.76899e+06 0 2.99765e+06 3.75161e+06 0 3.00701e+06 3.73425e+06 0 3.01613e+06 3.71693e+06 0 3.02501e+06 3.69965e+06 0 3.03367e+06 3.68244e+06 0 3.0421e+06 3.66529e+06 0 3.05033e+06 3.64821e+06 0 3.05836e+06 3.63123e+06 0 3.06619e+06 3.61433e+06 0 3.07385e+06 3.59754e+06 0 3.08134e+06 3.58085e+06 0 3.08868e+06 3.56426e+06 0 3.09587e+06 3.54779e+06 0 3.10293e+06 3.53142e+06 0 3.10988e+06 3.51517e+06 0 3.11671e+06 3.49902e+06 0 3.12346e+06 3.48299e+06 0 3.13012e+06 3.46705e+06 0 3.13671e+06 3.45122e+06 0 3.14324e+06 3.43548e+06 0 3.14973e+06 3.41982e+06 0 3.15617e+06 3.40425e+06 0 3.16259e+06 3.38874e+06 0 3.16899e+06 3.3733e+06 0 3.17538e+06 3.35792e+06 0 3.18176e+06 3.34257e+06 0 3.18815e+06 3.32726e+06 0 3.19456e+06 3.31196e+06 0 3.20098e+06 3.29668e+06 0 3.20743e+06 3.28138e+06 0 3.21391e+06 3.26607e+06 0 3.22042e+06 3.25073e+06 0 3.22697e+06 3.23533e+06 0 3.23356e+06 3.21988e+06 0 3.24019e+06 3.20435e+06 0 3.24686e+06 3.18872e+06 0 3.25358e+06 3.17299e+06 0 3.26034e+06 3.15713e+06 0 3.26714e+06 3.14113e+06 0 3.27399e+06 3.12498e+06 0 3.28087e+06 3.10865e+06 0 3.28779e+06 3.09213e+06 0 3.29474e+06 3.0754e+06 0 3.30172e+06 3.05846e+06 0 3.30871e+06 3.04127e+06 0 3.31572e+06 3.02383e+06 0 3.32274e+06 3.00611e+06 0 3.32975e+06 2.98811e+06 0 3.33675e+06 2.96981e+06 0 3.34374e+06 2.9512e+06 0 3.35069e+06 2.93225e+06 0 3.35761e+06 2.91295e+06 0 3.36447e+06 2.89329e+06 0 3.37127e+06 2.87326e+06 0 3.37799e+06 2.85284e+06 0 3.38462e+06 2.83201e+06 0 3.39114e+06 2.81076e+06 0 3.39753e+06 2.78907e+06 0 3.40378e+06 2.76692e+06 0 3.40986e+06 2.74428e+06 0 3.41574e+06 2.72115e+06 0 3.42139e+06 2.6975e+06 0 3.42678e+06 2.67331e+06 0 3.43186e+06 2.6486e+06 0 3.43659e+06 2.6234e+06 0 3.44096e+06 2.59778e+06 0 3.44498e+06 2.57194e+06 0 2.14306e+06 4.54396e+06 0 2.15649e+06 4.53622e+06 0 2.17022e+06 4.5282e+06 0 2.18421e+06 4.51988e+06 0 2.19845e+06 4.51124e+06 0 2.21291e+06 4.50226e+06 0 2.22754e+06 4.49292e+06 0 2.24232e+06 4.48322e+06 0 2.2572e+06 4.47316e+06 0 2.27216e+06 4.46274e+06 0 2.28715e+06 4.45197e+06 0 2.30216e+06 4.44087e+06 0 2.31715e+06 4.42945e+06 0 2.33211e+06 4.41775e+06 0 2.34702e+06 4.40577e+06 0 2.36188e+06 4.39354e+06 0 2.37668e+06 4.38107e+06 0 2.3914e+06 4.36839e+06 0 2.40606e+06 4.35551e+06 0 2.42066e+06 4.34244e+06 0 2.43518e+06 4.32919e+06 0 2.44965e+06 4.31578e+06 0 2.46406e+06 4.3022e+06 0 2.47841e+06 4.28848e+06 0 2.4927e+06 4.27459e+06 0 2.50695e+06 4.26056e+06 0 2.52114e+06 4.24638e+06 0 2.53528e+06 4.23205e+06 0 2.54938e+06 4.21757e+06 0 2.56342e+06 4.20294e+06 0 2.57741e+06 4.18814e+06 0 2.59134e+06 4.17319e+06 0 2.60521e+06 4.15808e+06 0 2.61901e+06 4.1428e+06 0 2.63274e+06 4.12736e+06 0 2.64639e+06 4.11174e+06 0 2.65994e+06 4.09596e+06 0 2.6734e+06 4.08e+06 0 2.68675e+06 4.06387e+06 0 2.69998e+06 4.04757e+06 0 2.71307e+06 4.0311e+06 0 2.72603e+06 4.01446e+06 0 2.73883e+06 3.99765e+06 0 2.75147e+06 3.98069e+06 0 2.76393e+06 3.96357e+06 0 2.77621e+06 3.94631e+06 0 2.78829e+06 3.92891e+06 0 2.80016e+06 3.91138e+06 0 2.81182e+06 3.89373e+06 0 2.82326e+06 3.87597e+06 0 2.83447e+06 3.85812e+06 0 2.84545e+06 3.84018e+06 0 2.85618e+06 3.82217e+06 0 2.86668e+06 3.8041e+06 0 2.87692e+06 3.78598e+06 0 2.88692e+06 3.76783e+06 0 2.89668e+06 3.74966e+06 0 2.90619e+06 3.73148e+06 0 2.91546e+06 3.71331e+06 0 2.92449e+06 3.69515e+06 0 2.93328e+06 3.67703e+06 0 2.94185e+06 3.65894e+06 0 2.9502e+06 3.64089e+06 0 2.95834e+06 3.62291e+06 0 2.96627e+06 3.60498e+06 0 2.974e+06 3.58713e+06 0 2.98155e+06 3.56935e+06 0 2.98892e+06 3.55166e+06 0 2.99612e+06 3.53404e+06 0 3.00316e+06 3.51652e+06 0 3.01006e+06 3.49908e+06 0 3.01681e+06 3.48173e+06 0 3.02344e+06 3.46446e+06 0 3.02995e+06 3.44728e+06 0 3.03634e+06 3.43019e+06 0 3.04264e+06 3.41317e+06 0 3.04884e+06 3.39623e+06 0 3.05496e+06 3.37935e+06 0 3.061e+06 3.36254e+06 0 3.06697e+06 3.34579e+06 0 3.07287e+06 3.32909e+06 0 3.07872e+06 3.31244e+06 0 3.08452e+06 3.29582e+06 0 3.09027e+06 3.27923e+06 0 3.09597e+06 3.26265e+06 0 3.10163e+06 3.24609e+06 0 3.10726e+06 3.22953e+06 0 3.11286e+06 3.21295e+06 0 3.11842e+06 3.19636e+06 0 3.12395e+06 3.17975e+06 0 3.12946e+06 3.16309e+06 0 3.13493e+06 3.14639e+06 0 3.14038e+06 3.12962e+06 0 3.14579e+06 3.11279e+06 0 3.15118e+06 3.09588e+06 0 3.15654e+06 3.07888e+06 0 3.16186e+06 3.06179e+06 0 3.16715e+06 3.04458e+06 0 3.1724e+06 3.02726e+06 0 3.17761e+06 3.0098e+06 0 3.18277e+06 2.99221e+06 0 3.18789e+06 2.97447e+06 0 3.19295e+06 2.95656e+06 0 3.19795e+06 2.93849e+06 0 3.2029e+06 2.92025e+06 0 3.20777e+06 2.90181e+06 0 3.21257e+06 2.88317e+06 0 3.21729e+06 2.86433e+06 0 3.22191e+06 2.84527e+06 0 3.22645e+06 2.82599e+06 0 3.23088e+06 2.80647e+06 0 3.23519e+06 2.7867e+06 0 3.23939e+06 2.76668e+06 0 3.24345e+06 2.7464e+06 0 3.24736e+06 2.72585e+06 0 3.25113e+06 2.70501e+06 0 3.25472e+06 2.68389e+06 0 3.25813e+06 2.66248e+06 0 3.26135e+06 2.64077e+06 0 3.26436e+06 2.61876e+06 0 3.26715e+06 2.59645e+06 0 3.2697e+06 2.57384e+06 0 3.27202e+06 2.55094e+06 0 3.27408e+06 2.52775e+06 0 3.27589e+06 2.50427e+06 0 3.27743e+06 2.48048e+06 0 3.2787e+06 2.45635e+06 0 3.27967e+06 2.43179e+06 0 2.11593e+06 4.51806e+06 0 2.12933e+06 4.50934e+06 0 2.14298e+06 4.50036e+06 0 2.15687e+06 4.49109e+06 0 2.17097e+06 4.48152e+06 0 2.18525e+06 4.47163e+06 0 2.1997e+06 4.46141e+06 0 2.21428e+06 4.45086e+06 0 2.22897e+06 4.43996e+06 0 2.24373e+06 4.42873e+06 0 2.25854e+06 4.41717e+06 0 2.27338e+06 4.40529e+06 0 2.28822e+06 4.3931e+06 0 2.30304e+06 4.38061e+06 0 2.31783e+06 4.36785e+06 0 2.33258e+06 4.35482e+06 0 2.34729e+06 4.34154e+06 0 2.36193e+06 4.32802e+06 0 2.37651e+06 4.31427e+06 0 2.39103e+06 4.30032e+06 0 2.40549e+06 4.28615e+06 0 2.41987e+06 4.27179e+06 0 2.43419e+06 4.25725e+06 0 2.44844e+06 4.24251e+06 0 2.46262e+06 4.22759e+06 0 2.47672e+06 4.2125e+06 0 2.49076e+06 4.19723e+06 0 2.50472e+06 4.18178e+06 0 2.5186e+06 4.16615e+06 0 2.5324e+06 4.15035e+06 0 2.54612e+06 4.13436e+06 0 2.55974e+06 4.11821e+06 0 2.57326e+06 4.10187e+06 0 2.58668e+06 4.08536e+06 0 2.59998e+06 4.06867e+06 0 2.61316e+06 4.0518e+06 0 2.62621e+06 4.03476e+06 0 2.63912e+06 4.01754e+06 0 2.65187e+06 4.00016e+06 0 2.66447e+06 3.98261e+06 0 2.67689e+06 3.9649e+06 0 2.68913e+06 3.94704e+06 0 2.70118e+06 3.92903e+06 0 2.71304e+06 3.91088e+06 0 2.72468e+06 3.8926e+06 0 2.73611e+06 3.8742e+06 0 2.74732e+06 3.85569e+06 0 2.75829e+06 3.83708e+06 0 2.76903e+06 3.81839e+06 0 2.77953e+06 3.79961e+06 0 2.78979e+06 3.78077e+06 0 2.79981e+06 3.76188e+06 0 2.80958e+06 3.74295e+06 0 2.8191e+06 3.72398e+06 0 2.82838e+06 3.705e+06 0 2.83741e+06 3.68602e+06 0 2.84621e+06 3.66704e+06 0 2.85477e+06 3.64808e+06 0 2.8631e+06 3.62914e+06 0 2.8712e+06 3.61024e+06 0 2.87909e+06 3.59138e+06 0 2.88676e+06 3.57256e+06 0 2.89423e+06 3.55381e+06 0 2.90151e+06 3.53511e+06 0 2.90859e+06 3.51648e+06 0 2.91549e+06 3.49791e+06 0 2.92222e+06 3.47942e+06 0 2.92878e+06 3.461e+06 0 2.93519e+06 3.44265e+06 0 2.94144e+06 3.42438e+06 0 2.94756e+06 3.40617e+06 0 2.95354e+06 3.38804e+06 0 2.95939e+06 3.36997e+06 0 2.96512e+06 3.35197e+06 0 2.97073e+06 3.33403e+06 0 2.97623e+06 3.31615e+06 0 2.98163e+06 3.29832e+06 0 2.98693e+06 3.28054e+06 0 2.99213e+06 3.2628e+06 0 2.99724e+06 3.2451e+06 0 3.00226e+06 3.22743e+06 0 3.0072e+06 3.20978e+06 0 3.01205e+06 3.19216e+06 0 3.01682e+06 3.17455e+06 0 3.02151e+06 3.15694e+06 0 3.02613e+06 3.13933e+06 0 3.03066e+06 3.12172e+06 0 3.03512e+06 3.1041e+06 0 3.0395e+06 3.08645e+06 0 3.04381e+06 3.06878e+06 0 3.04803e+06 3.05108e+06 0 3.05218e+06 3.03334e+06 0 3.05625e+06 3.01555e+06 0 3.06024e+06 2.99771e+06 0 3.06415e+06 2.97981e+06 0 3.06797e+06 2.96185e+06 0 3.07171e+06 2.94382e+06 0 3.07536e+06 2.92571e+06 0 3.07892e+06 2.90751e+06 0 3.08239e+06 2.88923e+06 0 3.08576e+06 2.87085e+06 0 3.08903e+06 2.85237e+06 0 3.0922e+06 2.83378e+06 0 3.09526e+06 2.81507e+06 0 3.09821e+06 2.79624e+06 0 3.10104e+06 2.77729e+06 0 3.10376e+06 2.7582e+06 0 3.10635e+06 2.73898e+06 0 3.10881e+06 2.71961e+06 0 3.11114e+06 2.70009e+06 0 3.11332e+06 2.68042e+06 0 3.11536e+06 2.66059e+06 0 3.11724e+06 2.6406e+06 0 3.11897e+06 2.62044e+06 0 3.12053e+06 2.6001e+06 0 3.12192e+06 2.5796e+06 0 3.12313e+06 2.55891e+06 0 3.12415e+06 2.53804e+06 0 3.12497e+06 2.51698e+06 0 3.1256e+06 2.49574e+06 0 3.12602e+06 2.4743e+06 0 3.12622e+06 2.45266e+06 0 3.12619e+06 2.43082e+06 0 3.12592e+06 2.40877e+06 0 3.1254e+06 2.3865e+06 0 3.12461e+06 2.36403e+06 0 3.12354e+06 2.34135e+06 0 3.12217e+06 2.31851e+06 0 2.08882e+06 4.4936e+06 0 2.10221e+06 4.48398e+06 0 2.11583e+06 4.4741e+06 0 2.12966e+06 4.46394e+06 0 2.14367e+06 4.45348e+06 0 2.15785e+06 4.44272e+06 0 2.17218e+06 4.43164e+06 0 2.18662e+06 4.42024e+06 0 2.20116e+06 4.40851e+06 0 2.21577e+06 4.39646e+06 0 2.23043e+06 4.38408e+06 0 2.24511e+06 4.37139e+06 0 2.25981e+06 4.3584e+06 0 2.27449e+06 4.34511e+06 0 2.28916e+06 4.33153e+06 0 2.30378e+06 4.31768e+06 0 2.31836e+06 4.30356e+06 0 2.33288e+06 4.28919e+06 0 2.34734e+06 4.27458e+06 0 2.36173e+06 4.25973e+06 0 2.37605e+06 4.24466e+06 0 2.39029e+06 4.22937e+06 0 2.40446e+06 4.21387e+06 0 2.41854e+06 4.19816e+06 0 2.43253e+06 4.18225e+06 0 2.44643e+06 4.16613e+06 0 2.46023e+06 4.14982e+06 0 2.47394e+06 4.13331e+06 0 2.48754e+06 4.11661e+06 0 2.50103e+06 4.09972e+06 0 2.5144e+06 4.08263e+06 0 2.52765e+06 4.06536e+06 0 2.54076e+06 4.0479e+06 0 2.55374e+06 4.03026e+06 0 2.56656e+06 4.01244e+06 0 2.57923e+06 3.99444e+06 0 2.59173e+06 3.97627e+06 0 2.60405e+06 3.95794e+06 0 2.61619e+06 3.93944e+06 0 2.62814e+06 3.92079e+06 0 2.63988e+06 3.90199e+06 0 2.65141e+06 3.88305e+06 0 2.66273e+06 3.86399e+06 0 2.67382e+06 3.8448e+06 0 2.68467e+06 3.82551e+06 0 2.6953e+06 3.80612e+06 0 2.70568e+06 3.78664e+06 0 2.71581e+06 3.76708e+06 0 2.7257e+06 3.74746e+06 0 2.73534e+06 3.72779e+06 0 2.74472e+06 3.70807e+06 0 2.75386e+06 3.68833e+06 0 2.76275e+06 3.66857e+06 0 2.7714e+06 3.64879e+06 0 2.7798e+06 3.62902e+06 0 2.78796e+06 3.60926e+06 0 2.79588e+06 3.58952e+06 0 2.80358e+06 3.56981e+06 0 2.81105e+06 3.55013e+06 0 2.8183e+06 3.53049e+06 0 2.82534e+06 3.5109e+06 0 2.83217e+06 3.49136e+06 0 2.8388e+06 3.47188e+06 0 2.84524e+06 3.45246e+06 0 2.85149e+06 3.4331e+06 0 2.85756e+06 3.4138e+06 0 2.86346e+06 3.39457e+06 0 2.86919e+06 3.3754e+06 0 2.87476e+06 3.3563e+06 0 2.88018e+06 3.33726e+06 0 2.88544e+06 3.31828e+06 0 2.89056e+06 3.29936e+06 0 2.89553e+06 3.2805e+06 0 2.90037e+06 3.2617e+06 0 2.90508e+06 3.24295e+06 0 2.90966e+06 3.22425e+06 0 2.91411e+06 3.20559e+06 0 2.91843e+06 3.18698e+06 0 2.92264e+06 3.16841e+06 0 2.92673e+06 3.14987e+06 0 2.9307e+06 3.13137e+06 0 2.93455e+06 3.11289e+06 0 2.93829e+06 3.09444e+06 0 2.94192e+06 3.076e+06 0 2.94544e+06 3.05759e+06 0 2.94884e+06 3.03918e+06 0 2.95213e+06 3.02078e+06 0 2.95531e+06 3.00239e+06 0 2.95838e+06 2.984e+06 0 2.96134e+06 2.9656e+06 0 2.96419e+06 2.94719e+06 0 2.96692e+06 2.92878e+06 0 2.96954e+06 2.91034e+06 0 2.97205e+06 2.89189e+06 0 2.97444e+06 2.87341e+06 0 2.97672e+06 2.8549e+06 0 2.97888e+06 2.83637e+06 0 2.98093e+06 2.81779e+06 0 2.98285e+06 2.79918e+06 0 2.98466e+06 2.78052e+06 0 2.98634e+06 2.76181e+06 0 2.9879e+06 2.74306e+06 0 2.98933e+06 2.72424e+06 0 2.99064e+06 2.70537e+06 0 2.99181e+06 2.68643e+06 0 2.99286e+06 2.66743e+06 0 2.99376e+06 2.64835e+06 0 2.99453e+06 2.6292e+06 0 2.99516e+06 2.60997e+06 0 2.99564e+06 2.59066e+06 0 2.99598e+06 2.57126e+06 0 2.99616e+06 2.55177e+06 0 2.99619e+06 2.53219e+06 0 2.99606e+06 2.51251e+06 0 2.99577e+06 2.49273e+06 0 2.99532e+06 2.47285e+06 0 2.99469e+06 2.45286e+06 0 2.99388e+06 2.43276e+06 0 2.99289e+06 2.41254e+06 0 2.99171e+06 2.39221e+06 0 2.99034e+06 2.37176e+06 0 2.98876e+06 2.35119e+06 0 2.98699e+06 2.33051e+06 0 2.98499e+06 2.30971e+06 0 2.98279e+06 2.28879e+06 0 2.98036e+06 2.26776e+06 0 2.97771e+06 2.2466e+06 0 2.97483e+06 2.22531e+06 0 2.06178e+06 4.47035e+06 0 2.0752e+06 4.45989e+06 0 2.08881e+06 4.44916e+06 0 2.1026e+06 4.43815e+06 0 2.11656e+06 4.42685e+06 0 2.13066e+06 4.41524e+06 0 2.1449e+06 4.40333e+06 0 2.15923e+06 4.3911e+06 0 2.17366e+06 4.37855e+06 0 2.18814e+06 4.36568e+06 0 2.20267e+06 4.3525e+06 0 2.21722e+06 4.339e+06 0 2.23178e+06 4.3252e+06 0 2.24632e+06 4.31109e+06 0 2.26084e+06 4.2967e+06 0 2.27532e+06 4.28202e+06 0 2.28976e+06 4.26707e+06 0 2.30413e+06 4.25185e+06 0 2.31843e+06 4.23638e+06 0 2.33266e+06 4.22066e+06 0 2.3468e+06 4.20469e+06 0 2.36086e+06 4.1885e+06 0 2.37482e+06 4.17207e+06 0 2.38868e+06 4.15542e+06 0 2.40243e+06 4.13855e+06 0 2.41607e+06 4.12146e+06 0 2.4296e+06 4.10416e+06 0 2.443e+06 4.08666e+06 0 2.45627e+06 4.06895e+06 0 2.4694e+06 4.05104e+06 0 2.48238e+06 4.03293e+06 0 2.49521e+06 4.01463e+06 0 2.50788e+06 3.99614e+06 0 2.52037e+06 3.97747e+06 0 2.53269e+06 3.95862e+06 0 2.54482e+06 3.93959e+06 0 2.55675e+06 3.9204e+06 0 2.56848e+06 3.90105e+06 0 2.58e+06 3.88156e+06 0 2.5913e+06 3.86192e+06 0 2.60236e+06 3.84214e+06 0 2.6132e+06 3.82225e+06 0 2.6238e+06 3.80224e+06 0 2.63415e+06 3.78213e+06 0 2.64425e+06 3.76193e+06 0 2.6541e+06 3.74165e+06 0 2.6637e+06 3.7213e+06 0 2.67304e+06 3.7009e+06 0 2.68212e+06 3.68044e+06 0 2.69095e+06 3.65996e+06 0 2.69952e+06 3.63945e+06 0 2.70784e+06 3.61892e+06 0 2.71591e+06 3.59839e+06 0 2.72373e+06 3.57786e+06 0 2.7313e+06 3.55735e+06 0 2.73863e+06 3.53686e+06 0 2.74573e+06 3.51639e+06 0 2.7526e+06 3.49596e+06 0 2.75924e+06 3.47557e+06 0 2.76566e+06 3.45523e+06 0 2.77187e+06 3.43494e+06 0 2.77787e+06 3.4147e+06 0 2.78366e+06 3.39451e+06 0 2.78926e+06 3.37439e+06 0 2.79466e+06 3.35432e+06 0 2.79988e+06 3.33432e+06 0 2.80491e+06 3.31438e+06 0 2.80977e+06 3.2945e+06 0 2.81445e+06 3.27469e+06 0 2.81897e+06 3.25493e+06 0 2.82331e+06 3.23524e+06 0 2.8275e+06 3.21562e+06 0 2.83152e+06 3.19605e+06 0 2.8354e+06 3.17653e+06 0 2.83911e+06 3.15708e+06 0 2.84268e+06 3.13768e+06 0 2.8461e+06 3.11833e+06 0 2.84937e+06 3.09904e+06 0 2.8525e+06 3.07979e+06 0 2.85549e+06 3.06059e+06 0 2.85833e+06 3.04144e+06 0 2.86104e+06 3.02233e+06 0 2.86361e+06 3.00326e+06 0 2.86604e+06 2.98423e+06 0 2.86833e+06 2.96524e+06 0 2.87049e+06 2.94628e+06 0 2.87251e+06 2.92735e+06 0 2.8744e+06 2.90846e+06 0 2.87616e+06 2.88959e+06 0 2.87778e+06 2.87075e+06 0 2.87928e+06 2.85193e+06 0 2.88064e+06 2.83313e+06 0 2.88187e+06 2.81436e+06 0 2.88297e+06 2.79559e+06 0 2.88394e+06 2.77685e+06 0 2.88478e+06 2.75811e+06 0 2.88549e+06 2.73938e+06 0 2.88607e+06 2.72065e+06 0 2.88652e+06 2.70193e+06 0 2.88683e+06 2.68321e+06 0 2.88702e+06 2.66449e+06 0 2.88708e+06 2.64576e+06 0 2.88701e+06 2.62702e+06 0 2.8868e+06 2.60827e+06 0 2.88646e+06 2.5895e+06 0 2.88599e+06 2.57071e+06 0 2.88538e+06 2.55191e+06 0 2.88464e+06 2.53308e+06 0 2.88376e+06 2.51422e+06 0 2.88274e+06 2.49533e+06 0 2.88158e+06 2.47641e+06 0 2.88028e+06 2.45744e+06 0 2.87883e+06 2.43844e+06 0 2.87723e+06 2.4194e+06 0 2.87549e+06 2.40031e+06 0 2.87359e+06 2.38117e+06 0 2.87154e+06 2.36198e+06 0 2.86934e+06 2.34274e+06 0 2.86697e+06 2.32344e+06 0 2.86443e+06 2.30408e+06 0 2.86173e+06 2.28467e+06 0 2.85887e+06 2.26519e+06 0 2.85582e+06 2.24565e+06 0 2.8526e+06 2.22604e+06 0 2.8492e+06 2.20636e+06 0 2.84561e+06 2.18662e+06 0 2.84183e+06 2.1668e+06 0 2.83785e+06 2.14692e+06 0 2.03487e+06 4.44816e+06 0 2.04831e+06 4.43689e+06 