<?xml version="1.0"?> 
<VTKFile type="StructuredGrid" version="0.1"> 
<StructuredGrid WholeExtent="0 127 0 127 0 0"> 
<Piece Extent="0 127 0 127 0 0"> 
<PointData>
<DataArray type="Float32" Name="E" format="ascii" NumberOfComponents="3"> 
-4.45503e+06 0 0 -3.63401e+06 440329 0 -3.60186e+06 253615 0 -3.50318e+06 245589 0 -3.47712e+06 198702 0 -3.44371e+06 180780 0 -3.42493e+06 158647 0 -3.40739e+06 143439 0 -3.39402e+06 129101 0 -3.3822e+06 117223 0 -3.37207e+06 106554 0 -3.36299e+06 97186.6 0 -3.35482e+06 88779 0 -3.34734e+06 81241 0 -3.34043e+06 74431.5 0 -3.33401e+06 68266.6 0 -3.328e+06 62666.4 0 -3.32235e+06 57569.1 0 -3.31703e+06 52920.9 0 -3.31202e+06 48676.8 0 -3.30728e+06 44797.7 0 -3.3028e+06 41249.5 0 -3.29857e+06 38002.4 0 -3.29457e+06 35030 0 -3.29081e+06 32308.9 0 -3.28726e+06 29818.1 0 -3.28392e+06 27538.5 0 -3.28078e+06 25453.3 0 -3.27785e+06 23546.9 0 -3.27512e+06 21805.2 0 -3.27257e+06 20215.5 0 -3.27021e+06 18766 0 -3.26804e+06 17446.1 0 -3.26605e+06 16245.9 0 -3.26423e+06 15156.3 0 -3.26259e+06 14169.2 0 -3.26113e+06 13276.8 0 -3.25983e+06 12472.2 0 -3.2587e+06 11748.7 0 -3.25773e+06 11100.5 0 -3.25693e+06 10521.9 0 -3.25629e+06 10008 0 -3.25582e+06 9553.8 0 -3.25549e+06 9155.07 0 -3.25533e+06 8807.73 0 -3.25532e+06 8508.01 0 -3.25547e+06 8252.43 0 -3.25577e+06 8037.77 0 -3.25622e+06 7861.02 0 -3.25682e+06 7719.42 0 -3.25758e+06 7610.39 0 -3.25848e+06 7531.53 0 -3.25954e+06 7480.63 0 -3.26074e+06 7455.61 0 -3.26209e+06 7454.57 0 -3.26358e+06 7475.7 0 -3.26523e+06 7517.35 0 -3.26702e+06 7577.98 0 -3.26896e+06 7656.12 0 -3.27104e+06 7750.44 0 -3.27327e+06 7859.67 0 -3.27565e+06 7982.63 0 -3.27817e+06 8118.21 0 -3.28084e+06 8265.36 0 -3.28366e+06 8423.12 0 -3.28662e+06 8590.55 0 -3.28973e+06 8766.78 0 -3.29298e+06 8950.97 0 -3.29638e+06 9142.34 0 -3.29993e+06 9340.12 0 -3.30362e+06 9543.58 0 -3.30746e+06 9752.03 0 -3.31145e+06 9964.77 0 -3.31559e+06 10181.1 0 -3.31988e+06 10400.5 0 -3.32432e+06 10622.2 0 -3.3289e+06 10845.6 0 -3.33364e+06 11070 0 -3.33852e+06 11294.9 0 -3.34356e+06 11519.5 0 -3.34875e+06 11743.2 0 -3.35409e+06 11965.3 0 -3.35958e+06 12185.1 0 -3.36522e+06 12402 0 -3.37102e+06 12615.1 0 -3.37697e+06 12823.6 0 -3.38307e+06 13026.8 0 -3.38933e+06 13223.8 0 -3.39573e+06 13413.6 0 -3.40229e+06 13595.3 0 -3.409e+06 13767.9 0 -3.41587e+06 13930.2 0 -3.42288e+06 14081.3 0 -3.43004e+06 14219.7 0 -3.43734e+06 14344.2 0 -3.44479e+06 14453.5 0 -3.45237e+06 14546.1 0 -3.46009e+06 14620.3 0 -3.46795e+06 14674.6 0 -3.47592e+06 14707.3 0 -3.48402e+06 14716.4 0 -3.49222e+06 14700 0 -3.50052e+06 14656.2 0 -3.5089e+06 14582.9 0 -3.51736e+06 14477.7 0 -3.52588e+06 14338.6 0 -3.53443e+06 14163.3 0 -3.54301e+06 13949.3 0 -3.55157e+06 13694.5 0 -3.56011e+06 13396.7 0 -3.56857e+06 13053.6 0 -3.57695e+06 12663.3 0 -3.58518e+06 12223.9 0 -3.59325e+06 11734 0 -3.60109e+06 11192.4 0 -3.60866e+06 10598.3 0 -3.61591e+06 9951.47 0 -3.62279e+06 9252.33 0 -3.62924e+06 8501.9 0 -3.63521e+06 7701.97 0 -3.64063e+06 6855.13 0 -3.64547e+06 5964.79 0 -3.64966e+06 5035.22 0 -3.65315e+06 4071.47 0 -3.65592e+06 3079.36 0 -3.65792e+06 2065.35 0 -3.65913e+06 1036.45 0 -3.65954e+06 2.86102e-06 0 -4.24003e+06 0 0 -3.69841e+06 352756 0 -3.5926e+06 251666 0 -3.51721e+06 229664 0 -3.47876e+06 195169 0 -3.44893e+06 174997 0 -3.42759e+06 155635 0 -3.41036e+06 140365 0 -3.39629e+06 126807 0 -3.38431e+06 115129 0 -3.37389e+06 104762 0 -3.36464e+06 95559.8 0 -3.35629e+06 87310.1 0 -3.34866e+06 79887.9 0 -3.34163e+06 73179.4 0 -3.33509e+06 67098.4 0 -3.32898e+06 61572 0 -3.32325e+06 56540 0 -3.31786e+06 51951.1 0 -3.31277e+06 47761.5 0 -3.30797e+06 43933 0 -3.30343e+06 40432.6 0 -3.29914e+06 37230.9 0 -3.2951e+06 34302 0 -3.29129e+06 31622.7 0 -3.2877e+06 29172.3 0 -3.28432e+06 26931.9 0 -3.28115e+06 24884.8 0 -3.27819e+06 23015.6 0 -3.27542e+06 21310.3 0 -3.27285e+06 19756.1 0 -3.27047e+06 18341.5 0 -3.26827e+06 17055.7 0 -3.26626e+06 15889.1 0 -3.26442e+06 14832.6 0 -3.26277e+06 13878 0 -3.26128e+06 13017.6 0 -3.25997e+06 12244.5 0 -3.25882e+06 11552.2 0 -3.25785e+06 10934.7 0 -3.25703e+06 10386.6 0 -3.25638e+06 9902.67 0 -3.25589e+06 9478.26 0 -3.25556e+06 9109.01 0 -3.25539e+06 8790.88 0 -3.25537e+06 8520.13 0 -3.25551e+06 8293.31 0 -3.2558e+06 8107.19 0 -3.25625e+06 7958.81 0 -3.25685e+06 7845.41 0 -3.25759e+06 7764.43 0 -3.25849e+06 7713.48 0 -3.25954e+06 7690.37 0 -3.26074e+06 7693.04 0 -3.26208e+06 7719.58 0 -3.26358e+06 7768.23 0 -3.26522e+06 7837.32 0 -3.267e+06 7925.33 0 -3.26894e+06 8030.81 0 -3.27102e+06 8152.43 0 -3.27325e+06 8288.93 0 -3.27562e+06 8439.14 0 -3.27814e+06 8601.97 0 -3.28081e+06 8776.38 0 -3.28362e+06 8961.4 0 -3.28658e+06 9156.11 0 -3.28969e+06 9359.65 0 -3.29294e+06 9571.19 0 -3.29634e+06 9789.94 0 -3.29989e+06 10015.1 0 -3.30358e+06 10246.1 0 -3.30742e+06 10482.1 0 -3.31141e+06 10722.5 0 -3.31555e+06 10966.5 0 -3.31984e+06 11213.6 0 -3.32427e+06 11463.2 0 -3.32886e+06 11714.5 0 -3.33359e+06 11966.9 0 -3.33848e+06 12219.9 0 -3.34352e+06 12472.6 0 -3.3487e+06 12724.6 0 -3.35404e+06 12975 0 -3.35954e+06 13223.3 0 -3.36518e+06 13468.6 0 -3.37098e+06 13710.1 0 -3.37693e+06 13947.2 0 -3.38303e+06 14178.9 0 -3.38929e+06 14404.3 0 -3.3957e+06 14622.6 0 -3.40226e+06 14832.6 0 -3.40897e+06 15033.4 0 -3.41583e+06 15223.8 0 -3.42285e+06 15402.5 0 -3.43001e+06 15568.3 0 -3.43732e+06 15719.8 0 -3.44477e+06 15855.4 0 -3.45236e+06 15973.6 0 -3.46008e+06 16072.6 0 -3.46794e+06 16150.7 0 -3.47592e+06 16205.9 0 -3.48401e+06 16236.1 0 -3.49222e+06 16239.1 0 -3.50053e+06 16212.7 0 -3.50892e+06 16154.2 0 -3.51738e+06 16061.3 0 -3.52591e+06 15931.2 0 -3.53447e+06 15761.2 0 -3.54305e+06 15548.4 0 -3.55162e+06 15290.1 0 -3.56017e+06 14983.3 0 -3.56864e+06 14625.3 0 -3.57703e+06 14213.4 0 -3.58527e+06 13745.1 0 -3.59335e+06 13218.3 0 -3.6012e+06 12631.1 0 -3.60878e+06 11982.2 0 -3.61604e+06 11270.8 0 -3.62293e+06 10496.9 0 -3.62939e+06 9661.3 0 -3.63537e+06 8765.79 0 -3.64081e+06 7813.12 0 -3.64565e+06 6807.14 0 -3.64984e+06 5752.8 0 -3.65335e+06 4656.16 0 -3.65612e+06 3524.26 0 -3.65813e+06 2365.07 0 -3.65934e+06 1187.26 0 -3.65975e+06 -2.83122e-07 0 -4.0914e+06 0 0 -3.72616e+06 287227 0 -3.59275e+06 241366 0 -3.52543e+06 216893 0 -3.48218e+06 189829 0 -3.45294e+06 169807 0 -3.4305e+06 152196 0 -3.41304e+06 137361 0 -3.39856e+06 124391 0 -3.38634e+06 113014 0 -3.37568e+06 102919 0 -3.36624e+06 93904.8 0 -3.35773e+06 85810.5 0 -3.34997e+06 78510.8 0 -3.34281e+06 71905.2 0 -3.33616e+06 65911.1 0 -3.32996e+06 60460.5 0 -3.32414e+06 55495.6 0 -3.31867e+06 50967.5 0 -3.31351e+06 46833.5 0 -3.30864e+06 43057 0 -3.30405e+06 39605.4 0 -3.29971e+06 36450 0 -3.29562e+06 33565.3 0 -3.29176e+06 30928.6 0 -3.28813e+06 28519.2 0 -3.28472e+06 26318.6 0 -3.28151e+06 24310.2 0 -3.27852e+06 22478.6 0 -3.27572e+06 20810.1 0 -3.27312e+06 19291.9 0 -3.27072e+06 17912.5 0 -3.2685e+06 16661.3 0 -3.26646e+06 15528.5 0 -3.26461e+06 14505.3 0 -3.26293e+06 13583.4 0 -3.26143e+06 12755.3 0 -3.2601e+06 12014 0 -3.25894e+06 11353.1 0 -3.25795e+06 10766.6 0 -3.25713e+06 10249 0 -3.25646e+06 9795.31 0 -3.25596e+06 9400.81 0 -3.25562e+06 9061.18 0 -3.25544e+06 8772.39 0 -3.25542e+06 8530.73 0 -3.25555e+06 8332.77 0 -3.25583e+06 8175.3 0 -3.25627e+06 8055.39 0 -3.25686e+06 7970.27 0 -3.2576e+06 7917.42 0 -3.2585e+06 7894.46 0 -3.25954e+06 7899.22 0 -3.26073e+06 7929.64 0 -3.26207e+06 7983.83 0 -3.26356e+06 8060.05 0 -3.2652e+06 8156.63 0 -3.26698e+06 8272.07 0 -3.26892e+06 8404.94 0 -3.27099e+06 8553.9 0 -3.27322e+06 8717.71 0 -3.27559e+06 8895.22 0 -3.27811e+06 9085.34 0 -3.28077e+06 9287.03 0 -3.28359e+06 9499.35 0 -3.28654e+06 9721.37 0 -3.28965e+06 9952.24 0 -3.2929e+06 10191.1 0 -3.2963e+06 10437.3 0 -3.29984e+06 10690 0 -3.30354e+06 10948.4 0 -3.30738e+06 11212 0 -3.31136e+06 11480 0 -3.3155e+06 11751.8 0 -3.31979e+06 12026.7 0 -3.32422e+06 12304.1 0 -3.32881e+06 12583.3 0 -3.33354e+06 12863.8 0 -3.33843e+06 13144.8 0 -3.34347e+06 13425.8 0 -3.34865e+06 13706.1 0 -3.35399e+06 13984.8 0 -3.35949e+06 14261.5 0 -3.36513e+06 14535.3 0 -3.37093e+06 14805.3 0 -3.37688e+06 15071 0 -3.38299e+06 15331.2 0 -3.38924e+06 15585.2 0 -3.39565e+06 15831.9 0 -3.40222e+06 16070.3 0 -3.40893e+06 16299.3 0 -3.4158e+06 16517.7 0 -3.42281e+06 16724.2 0 -3.42998e+06 16917.4 0 -3.43729e+06 17095.8 0 -3.44474e+06 17257.9 0 -3.45233e+06 17401.8 0 -3.46006e+06 17525.7 0 -3.46792e+06 17627.6 0 -3.47591e+06 17705.4 0 -3.48401e+06 17756.8 0 -3.49222e+06 17779.3 0 -3.50053e+06 17770.2 0 -3.50893e+06 17726.8 0 -3.5174e+06 17646.2 0 -3.52593e+06 17525.2 0 -3.5345e+06 17360.6 0 -3.54309e+06 17149.1 0 -3.55168e+06 16887.3 0 -3.56023e+06 16571.7 0 -3.56872e+06 16198.9 0 -3.57711e+06 15765.5 0 -3.58537e+06 15268.4 0 -3.59345e+06 14704.7 0 -3.60132e+06 14072 0 -3.60891e+06 13368.2 0 -3.61619e+06 12592.2 0 -3.62309e+06 11743.5 0 -3.62956e+06 10822.8 0 -3.63555e+06 9831.6 0 -3.641e+06 8772.97 0 -3.64585e+06 7651.17 0 -3.65006e+06 6471.86 0 -3.65357e+06 5242.07 0 -3.65635e+06 3970.12 0 -3.65836e+06 2665.43 0 -3.65958e+06 1338.39 0 -3.65999e+06 -5.43892e-07 0 -3.98541e+06 0 0 -3.73351e+06 237202 0 -3.59589e+06 227088 0 -3.53079e+06 205571 0 -3.48599e+06 183628 0 -3.45637e+06 164807 0 -3.4334e+06 148544 0 -3.41556e+06 134343 0 -3.40078e+06 121899 0 -3.3883e+06 110865 0 -3.37744e+06 101035 0 -3.36782e+06 92219.3 0 -3.35915e+06 84282.8 0 -3.35125e+06 77110 0 -3.34397e+06 70609.6 0 -3.33722e+06 64705 0 -3.33092e+06 59332.1 0 -3.32502e+06 54436.1 0 -3.31947e+06 49970.1 0 -3.31424e+06 45893.2 0 -3.30931e+06 42169.7 0 -3.30466e+06 38767.8 0 -3.30027e+06 35659.6 0 -3.29613e+06 32820 0 -3.29223e+06 30226.5 0 -3.28855e+06 27858.8 0 -3.2851e+06 25698.6 0 -3.28187e+06 23729.4 0 -3.27884e+06 21936 0 -3.27602e+06 20304.7 0 -3.27339e+06 18822.8 0 -3.27096e+06 17479 0 -3.26872e+06 16262.7 0 -3.26666e+06 15164.1 0 -3.26479e+06 14174.5 0 -3.26309e+06 13285.7 0 -3.26157e+06 12490.1 0 -3.26023e+06 11780.8 0 -3.25906e+06 11151.4 0 -3.25805e+06 10596 0 -3.25721e+06 10109.2 0 -3.25654e+06 9685.89 0 -3.25603e+06 9321.46 0 -3.25568e+06 9011.57 0 -3.25549e+06 8752.26 0 -3.25545e+06 8539.81 0 -3.25558e+06 8370.82 0 -3.25585e+06 8242.11 0 -3.25629e+06 8150.75 0 -3.25687e+06 8094.01 0 -3.25761e+06 8069.37 0 -3.2585e+06 8074.48 0 -3.25953e+06 8107.17 0 -3.26072e+06 8165.41 0 -3.26206e+06 8247.32 0 -3.26354e+06 8351.15 0 -3.26518e+06 8475.29 0 -3.26696e+06 8618.21 0 -3.26889e+06 8778.5 0 -3.27096e+06 8954.85 0 -3.27319e+06 9146.02 0 -3.27555e+06 9350.87 0 -3.27807e+06 9568.3 0 -3.28073e+06 9797.32 0 -3.28354e+06 10037 0 -3.2865e+06 10286.3 0 -3.2896e+06 10544.6 0 -3.29285e+06 10810.9 0 -3.29625e+06 11084.5 0 -3.29979e+06 11364.6 0 -3.30348e+06 11650.6 0 -3.30732e+06 11941.8 0 -3.31131e+06 12237.4 0 -3.31545e+06 12536.9 0 -3.31973e+06 12839.6 0 -3.32417e+06 13144.9 0 -3.32875e+06 13452.1 0 -3.33349e+06 13760.7 0 -3.33837e+06 14069.8 0 -3.34341e+06 14379 0 -3.3486e+06 14687.6 0 -3.35394e+06 14994.7 0 -3.35943e+06 15299.8 0 -3.36508e+06 15602.1 0 -3.37088e+06 15900.7 0 -3.37683e+06 16194.9 0 -3.38293e+06 16483.7 0 -3.38919e+06 16766.3 0 -3.39561e+06 17041.5 0 -3.40217e+06 17308.3 0 -3.40889e+06 17565.6 0 -3.41575e+06 17812.1 0 -3.42277e+06 18046.4 0 -3.42994e+06 18267 0 -3.43725e+06 18472.5 0 -3.44471e+06 18661 0 -3.45231e+06 18830.6 0 -3.46004e+06 18979.5 0 -3.4679e+06 19105.4 0 -3.47589e+06 19205.9 0 -3.484e+06 19278.5 0 -3.49222e+06 19320.5 0 -3.50054e+06 19328.9 0 -3.50894e+06 19300.7 0 -3.51742e+06 19232.5 0 -3.52596e+06 19120.7 0 -3.53454e+06 18961.7 0 -3.54314e+06 18751.6 0 -3.55173e+06 18486.4 0 -3.56029e+06 18162.1 0 -3.56879e+06 17774.6 0 -3.5772e+06 17319.8 0 -3.58547e+06 16794 0 -3.59357e+06 16193.5 0 -3.60145e+06 15515.3 0 -3.60905e+06 14756.8 0 -3.61634e+06 13916.2 0 -3.62326e+06 12992.7 0 -3.62975e+06 11986.7 0 -3.63575e+06 10899.8 0 -3.64121e+06 9735.02 0 -3.64608e+06 8497.2 0 -3.65029e+06 7192.68 0 -3.65382e+06 5829.46 0 -3.6566e+06 4417.11 0 -3.65862e+06 2966.58 0 -3.65984e+06 1489.92 0 -3.66025e+06 1.57207e-06 0 -3.90755e+06 0 0 -3.72966e+06 198531 0 -3.59912e+06 211157 0 -3.53458e+06 194985 0 -3.48963e+06 177000 0 -3.45944e+06 159849 0 -3.43616e+06 144766 0 -3.41796e+06 131286 0 -3.40292e+06 119350 0 -3.39021e+06 108677 0 -3.37915e+06 99114.4 0 -3.36936e+06 90503.9 0 -3.36054e+06 82728.4 0 -3.35251e+06 75685.8 0 -3.34512e+06 69293.4 0 -3.33826e+06 63480.4 0 -3.33187e+06 58187.1 0 -3.32588e+06 53361.6 0 -3.32026e+06 48959.3 0 -3.31496e+06 44940.7 0 -3.30997e+06 41271.2 0 -3.30526e+06 37920.1 0 -3.30082e+06 34860 0 -3.29663e+06 32066.2 0 -3.29268e+06 29516.6 0 -3.28897e+06 27191.2 0 -3.28548e+06 25072 0 -3.28221e+06 23142.5 0 -3.27915e+06 21387.7 0 -3.2763e+06 19794.1 0 -3.27365e+06 18349 0 -3.27119e+06 17041.1 0 -3.26893e+06 15860 0 -3.26685e+06 14795.9 0 -3.26496e+06 13840.2 0 -3.26325e+06 12984.7 0 -3.26171e+06 12221.8 0 -3.26035e+06 11544.7 0 -3.25916e+06 10947.1 0 -3.25815e+06 10423.1 0 -3.2573e+06 9967.18 0 -3.25661e+06 9574.43 0 -3.25609e+06 9240.21 0 -3.25573e+06 8960.21 0 -3.25553e+06 8730.5 0 -3.25549e+06 8547.38 0 -3.2556e+06 8407.47 0 -3.25587e+06 8307.62 0 -3.2563e+06 8244.91 0 -3.25688e+06 8216.64 0 -3.25761e+06 8220.29 0 -3.25849e+06 8253.54 0 -3.25952e+06 8314.23 0 -3.26071e+06 8400.35 0 -3.26204e+06 8510.04 0 -3.26352e+06 8641.56 0 -3.26515e+06 8793.29 0 -3.26693e+06 8963.75 0 -3.26885e+06 9151.51 0 -3.27093e+06 9355.29 0 -3.27315e+06 9573.86 0 -3.27551e+06 9806.07 0 -3.27803e+06 10050.9 0 -3.28069e+06 10307.2 0 -3.28349e+06 10574.2 0 -3.28645e+06 10851 0 -3.28955e+06 11136.6 0 -3.2928e+06 11430.3 0 -3.29619e+06 11731.4 0 -3.29974e+06 12039 0 -3.30343e+06 12352.6 0 -3.30727e+06 12671.4 0 -3.31125e+06 12994.7 0 -3.31539e+06 13322 0 -3.31967e+06 13652.5 0 -3.32411e+06 13985.7 0 -3.32869e+06 14320.9 0 -3.33343e+06 14657.5 0 -3.33831e+06 14994.8 0 -3.34335e+06 15332.3 0 -3.34854e+06 15669.1 0 -3.35388e+06 16004.7 0 -3.35937e+06 16338.2 0 -3.36502e+06 16669 0 -3.37082e+06 16996.2 0 -3.37677e+06 17319 0 -3.38288e+06 17636.5 0 -3.38914e+06 17947.6 0 -3.39555e+06 18251.4 0 -3.40212e+06 18546.7 0 -3.40884e+06 18832.3 0 -3.41571e+06 19106.9 0 -3.42273e+06 19369 0 -3.4299e+06 19617.2 0 -3.43721e+06 19849.7 0 -3.44467e+06 20064.7 0 -3.45227e+06 20260.2 0 -3.46001e+06 20434.1 0 -3.46788e+06 20584 0 -3.47587e+06 20707.3 0 -3.48399e+06 20801.2 0 -3.49221e+06 20862.9 0 -3.50054e+06 20888.9 0 -3.50895e+06 20876 0 -3.51744e+06 20820.2 0 -3.52598e+06 20717.8 0 -3.53457e+06 20564.5 0 -3.54318e+06 20356 0 -3.55179e+06 20087.6 0 -3.56036e+06 19754.7 0 -3.56887e+06 19352.6 0 -3.57729e+06 18876.6 0 -3.58558e+06 18322.2 0 -3.59369e+06 17685 0 -3.60158e+06 16961.4 0 -3.60921e+06 16148.2 0 -3.61652e+06 15243.1 0 -3.62345e+06 14244.8 0 -3.62995e+06 13153.5 0 -3.63597e+06 11970.6 0 -3.64145e+06 10699.6 0 -3.64633e+06 9345.56 0 -3.65055e+06 7915.54 0 -3.65409e+06 6418.56 0 -3.65688e+06 4865.44 0 -3.6589e+06 3268.63 0 -3.66013e+06 1641.92 0 -3.66054e+06 -1.93715e-07 0 -3.84861e+06 0 0 -3.71998e+06 168196 0 -3.60124e+06 194991 0 -3.53737e+06 184795 0 -3.49288e+06 170193 0 -3.46225e+06 154872 0 -3.43876e+06 140913 0 -3.42026e+06 128183 0 -3.40499e+06 116755 0 -3.39205e+06 106451 0 -3.38082e+06 97160.7 0 -3.37086e+06 88759.7 0 -3.36191e+06 81148.6 0 -3.35375e+06 74239.2 0 -3.34624e+06 67957.1 0 -3.33929e+06 62237.8 0 -3.3328e+06 57025.8 0 -3.32673e+06 52272.5 0 -3.32104e+06 47935.1 0 -3.31567e+06 43976 0 -3.31062e+06 40361.7 0 -3.30585e+06 37062.3 0 -3.30136e+06 34051 0 -3.29712e+06 31303.8 0 -3.29313e+06 28798.9 0 -3.28938e+06 26516.5 0 -3.28586e+06 24438.8 0 -3.28255e+06 22549.6 0 -3.27946e+06 20833.9 0 -3.27658e+06 19278.3 0 -3.2739e+06 17870.4 0 -3.27142e+06 16598.8 0 -3.26913e+06 15453.2 0 -3.26704e+06 14424 0 -3.26512e+06 13502.4 0 -3.26339e+06 12680.4 0 -3.26184e+06 11950.5 0 -3.26047e+06 11305.9 0 -3.25927e+06 10740.3 0 -3.25823e+06 10247.8 0 -3.25737e+06 9822.97 0 -3.25668e+06 9460.94 0 -3.25614e+06 9157.07 0 -3.25577e+06 8907.11 0 -3.25556e+06 8707.12 0 -3.25551e+06 8553.45 0 -3.25562e+06 8442.73 0 -3.25588e+06 8371.84 0 -3.2563e+06 8337.88 0 -3.25688e+06 8338.16 0 -3.2576e+06 8370.18 0 -3.25848e+06 8431.65 0 -3.25951e+06 8520.42 0 -3.26068e+06 8634.48 0 -3.26201e+06 8772.01 0 -3.26349e+06 8931.26 0 -3.26512e+06 9110.65 0 -3.26689e+06 9308.68 0 -3.26881e+06 9523.97 0 -3.27088e+06 9755.22 0 -3.2731e+06 10001.2 0 -3.27547e+06 10260.8 0 -3.27798e+06 10533 0 -3.28064e+06 10816.8 0 -3.28344e+06 11111.2 0 -3.28639e+06 11415.3 0 -3.28949e+06 11728.3 0 -3.29274e+06 12049.5 0 -3.29613e+06 12378.1 0 -3.29968e+06 12713.2 0 -3.30337e+06 13054.4 0 -3.3072e+06 13400.8 0 -3.31119e+06 13751.9 0 -3.31533e+06 14106.9 0 -3.31961e+06 14465.3 0 -3.32404e+06 14826.4 0 -3.32863e+06 15189.6 0 -3.33336e+06 15554.3 0 -3.33825e+06 15919.8 0 -3.34328e+06 16285.5 0 -3.34847e+06 16650.7 0 -3.35381e+06 17014.7 0 -3.35931e+06 17376.8 0 -3.36496e+06 17736.1 0 -3.37076e+06 18091.9 0 -3.37671e+06 18443.4 0 -3.38282e+06 18789.4 0 -3.38908e+06 19129.2 0 -3.39549e+06 19461.6 0 -3.40206e+06 19785.4 0 -3.40878e+06 20099.3 0 -3.41565e+06 20402.1 0 -3.42268e+06 20692.2 0 -3.42985e+06 20967.9 0 -3.43717e+06 21227.6 0 -3.44463e+06 21469.2 0 -3.45224e+06 21690.6 0 -3.45998e+06 21889.6 0 -3.46785e+06 22063.5 0 -3.47585e+06 22209.7 0 -3.48397e+06 22325.1 0 -3.4922e+06 22406.5 0 -3.50053e+06 22450.3 0 -3.50895e+06 22452.7 0 -3.51745e+06 22409.7 0 -3.52601e+06 22316.7 0 -3.53461e+06 22169.3 0 -3.54323e+06 21962.4 0 -3.55184e+06 21691 0 -3.56043e+06 21349.7 0 -3.56896e+06 20933.2 0 -3.57739e+06 20436.1 0 -3.58569e+06 19853.2 0 -3.59382e+06 19179.6 0 -3.60173e+06 18410.7 0 -3.60937e+06 17542.8 0 -3.6167e+06 16573.2 0 -3.62365e+06 15500.1 0 -3.63017e+06 14323.4 0 -3.63621e+06 13044.6 0 -3.6417e+06 11667.1 0 -3.6466e+06 10196.6 0 -3.65084e+06 8640.74 0 -3.65439e+06 7009.62 0 -3.65719e+06 5315.29 0 -3.65922e+06 3571.73 0 -3.66045e+06 1794.44 0 -3.66086e+06 -2.04146e-06 0 -3.80273e+06 0 0 -3.70752e+06 144083 0 -3.60191e+06 179361 0 -3.53941e+06 174896 0 -3.49569e+06 163341 0 -3.46482e+06 149865 0 -3.44119e+06 137011 0 -3.42244e+06 125036 0 -3.40697e+06 114120 0 -3.39385e+06 104190 0 -3.38244e+06 95176.1 0 -3.37233e+06 86988 0 -3.36324e+06 79544.4 0 -3.35496e+06 72770.7 0 -3.34735e+06 66601.2 0 -3.3403e+06 60977.6 0 -3.33372e+06 55848.7 0 -3.32757e+06 51168.9 0 -3.3218e+06 46897.8 0 -3.31637e+06 42999.3 0 -3.31126e+06 39441.2 0 -3.30644e+06 36194.5 0 -3.30189e+06 33233 0 -3.29761e+06 30533.1 0 -3.29358e+06 28073.5 0 -3.28978e+06 25834.7 0 -3.28622e+06 23799.1 0 -3.28288e+06 21950.6 0 -3.27976e+06 20274.5 0 -3.27685e+06 18757.4 0 -3.27415e+06 17387 0 -3.27164e+06 16152.2 0 -3.26933e+06 15042.4 0 -3.26721e+06 14048.3 0 -3.26528e+06 13161.2 0 -3.26353e+06 12373 0 -3.26197e+06 11676.3 0 -3.26058e+06 11064.4 0 -3.25936e+06 10530.9 0 -3.25832e+06 10070.1 0 -3.25744e+06 9676.58 0 -3.25673e+06 9345.42 0 -3.25619e+06 9072.06 0 -3.25581e+06 8852.27 0 -3.25559e+06 8682.13 0 -3.25554e+06 8558.03 0 -3.25564e+06 8476.61 0 -3.25589e+06 8434.78 0 -3.2563e+06 8429.65 0 -3.25687e+06 8458.57 0 -3.25759e+06 8519.05 0 -3.25846e+06 8608.81 0 -3.25948e+06 8725.72 0 -3.26066e+06 8867.8 0 -3.26198e+06 9033.22 0 -3.26346e+06 9220.26 0 -3.26508e+06 9427.35 0 -3.26685e+06 9653.01 0 -3.26877e+06 9895.87 0 -3.27084e+06 10154.6 0 -3.27305e+06 10428.1 0 -3.27541e+06 10715.2 0 -3.27792e+06 11014.8 0 -3.28058e+06 11325.9 0 -3.28338e+06 11647.8 0 -3.28633e+06 11979.3 0 -3.28943e+06 12319.8 0 -3.29268e+06 12668.5 0 -3.29607e+06 13024.5 0 -3.29961e+06 13387.3 0 -3.3033e+06 13756 0 -3.30714e+06 14130.1 0 -3.31112e+06 14508.9 0 -3.31526e+06 14891.7 0 -3.31954e+06 15278 0 -3.32397e+06 15667 0 -3.32856e+06 16058.3 0 -3.33329e+06 16451.1 0 -3.33818e+06 16844.8 0 -3.34321e+06 17238.8 0 -3.3484e+06 17632.4 0 -3.35374e+06 18024.8 0 -3.35924e+06 18415.4 0 -3.36489e+06 18803.3 0 -3.37069e+06 19187.8 0 -3.37664e+06 19567.9 0 -3.38275e+06 19942.6 0 -3.38901e+06 20311.1 0 -3.39543e+06 20672 0 -3.402e+06 21024.4 0 -3.40872e+06 21366.8 0 -3.4156e+06 21697.8 0 -3.42262e+06 22015.8 0 -3.4298e+06 22319.2 0 -3.43712e+06 22606 0 -3.44459e+06 22874.3 0 -3.45219e+06 23121.7 0 -3.45994e+06 23345.9 0 -3.46782e+06 23544 0 -3.47583e+06 23713.2 0 -3.48395e+06 23850.2 0 -3.49219e+06 23951.4 0 -3.50053e+06 24013.1 0 -3.50896e+06 24031 0 -3.51746e+06 24000.8 0 -3.52603e+06 23917.5 0 -3.53464e+06 23776.1 0 -3.54327e+06 23571.1 0 -3.5519e+06 23296.8 0 -3.5605e+06 22947.3 0 -3.56904e+06 22516.6 0 -3.57749e+06 21998.6 0 -3.58581e+06 21387.4 0 -3.59396e+06 20677.4 0 -3.60189e+06 19863.4 0 -3.60955e+06 18941 0 -3.6169e+06 17906.9 0 -3.62387e+06 16759 0 -3.63041e+06 15496.9 0 -3.63647e+06 14121.9 0 -3.64198e+06 12637.8 0 -3.64689e+06 11050.5 0 -3.65115e+06 9368.57 0 -3.65471e+06 7602.88 0 -3.65752e+06 5766.86 0 -3.65956e+06 3876.01 0 -3.6608e+06 1947.56 0 -3.66121e+06 2.77162e-06 0 -3.76609e+06 0 0 -3.69401e+06 124667 0 -3.6012e+06 164668 0 -3.54081e+06 165276 0 -3.49804e+06 156521 0 -3.46716e+06 144840 0 -3.44344e+06 133076 0 -3.42451e+06 121852 0 -3.40887e+06 111451 0 -3.39558e+06 101897 0 -3.38402e+06 93163 0 -3.37377e+06 85190.4 0 -3.36455e+06 77917 0 -3.35616e+06 71281.3 0 -3.34844e+06 65226.4 0 -3.34129e+06 59700.3 0 -3.33463e+06 54656 0 -3.3284e+06 50051.1 0 -3.32256e+06 45847.5 0 -3.31706e+06 42010.8 0 -3.31188e+06 38509.9 0 -3.30701e+06 35316.7 0 -3.30241e+06 32405.8 0 -3.29808e+06 29754 0 -3.29401e+06 27340.4 0 -3.29018e+06 25145.8 0 -3.28658e+06 23152.8 0 -3.28321e+06 21345.6 0 -3.28006e+06 19709.6 0 -3.27712e+06 18231.4 0 -3.27439e+06 16899 0 -3.27186e+06 15701.1 0 -3.26953e+06 14627.6 0 -3.26739e+06 13668.9 0 -3.26543e+06 12816.5 0 -3.26367e+06 12062.4 0 -3.26209e+06 11399.2 0 -3.26068e+06 10820.1 0 -3.25945e+06 10319 0 -3.25839e+06 9890.09 0 -3.25751e+06 9528.02 0 -3.25679e+06 9227.9 0 -3.25623e+06 8985.19 0 -3.25585e+06 8795.7 0 -3.25562e+06 8655.54 0 -3.25555e+06 8561.12 0 -3.25564e+06 8509.12 0 -3.25589e+06 8496.44 0 -3.2563e+06 8520.25 0 -3.25686e+06 8577.89 0 -3.25757e+06 8666.91 0 -3.25844e+06 8785.03 0 -3.25946e+06 8930.15 0 -3.26063e+06 9100.3 0 -3.26195e+06 9293.67 0 -3.26342e+06 9508.57 0 -3.26504e+06 9743.42 0 -3.2668e+06 9996.75 0 -3.26872e+06 10267.2 0 -3.27078e+06 10553.5 0 -3.273e+06 10854.5 0 -3.27536e+06 11169.1 0 -3.27786e+06 11496.1 0 -3.28052e+06 11834.8 0 -3.28332e+06 12184 0 -3.28627e+06 12543 0 -3.28937e+06 12911 0 -3.29261e+06 13287.2 0 -3.296e+06 13670.7 0 -3.29954e+06 14061.1 0 -3.30323e+06 14457.4 0 -3.30706e+06 14859.2 0 -3.31105e+06 15265.7 0 -3.31518e+06 15676.4 0 -3.31947e+06 16090.5 0 -3.3239e+06 16507.6 0 -3.32848e+06 16926.9 0 -3.33322e+06 17347.8 0 -3.3381e+06 17769.8 0 -3.34314e+06 18192.1 0 -3.34833e+06 18614 0 -3.35367e+06 19035 0 -3.35916e+06 19454.1 0 -3.36481e+06 19870.6 0 -3.37061e+06 20283.8 0 -3.37657e+06 20692.5 0 -3.38268e+06 21096 0 -3.38894e+06 21493.2 0 -3.39536e+06 21882.8 0 -3.40193e+06 22263.8 0 -3.40866e+06 22634.6 0 -3.41553e+06 22993.9 0 -3.42256e+06 23339.9 0 -3.42974e+06 23671 0 -3.43707e+06 23985.1 0 -3.44454e+06 24280.2 0 -3.45215e+06 24553.7 0 -3.4599e+06 24803.1 0 -3.46778e+06 25025.5 0 -3.47579e+06 25217.8 0 -3.48393e+06 25376.5 0 -3.49217e+06 25497.7 0 -3.50052e+06 25577.4 0 -3.50896e+06 25611.1 0 -3.51747e+06 25593.8 0 -3.52605e+06 25520.4 0 -3.53467e+06 25385.2 0 -3.54332e+06 25182.2 0 -3.55196e+06 24905.3 0 -3.56058e+06 24547.8 0 -3.56913e+06 24103 0 -3.5776e+06 23564.4 0 -3.58594e+06 22925.1 0 -3.59411e+06 22178.8 0 -3.60205e+06 21319.9 0 -3.60974e+06 20343.1 0 -3.61711e+06 19244.6 0 -3.6241e+06 18021.9 0 -3.63067e+06 16674.3 0 -3.63674e+06 15203.1 0 -3.64228e+06 13612.2 0 -3.64721e+06 11907.8 0 -3.65148e+06 10099.3 0 -3.65506e+06 8198.6 0 -3.65789e+06 6220.34 0 -3.65993e+06 4181.6 0 -3.66117e+06 2101.35 0 -3.66159e+06 -2.89083e-06 0 -3.73615e+06 0 0 -3.68041e+06 108844 0 -3.5993e+06 151088 0 -3.54163e+06 155968 0 -3.49997e+06 149785 0 -3.46925e+06 139814 0 -3.44552e+06 129121 0 -3.42647e+06 118638 0 -3.41069e+06 108752 0 -3.39725e+06 99575.5 0 -3.38555e+06 91123.4 0 -3.37517e+06 83368.6 0 -3.36583e+06 76267.4 0 -3.35732e+06 69771.7 0 -3.34951e+06 63833.2 0 -3.34226e+06 58406.2 0 -3.33552e+06 53448 0 -3.32921e+06 48919.4 0 -3.3233e+06 44784.5 0 -3.31774e+06 41010.6 0 -3.3125e+06 37567.9 0 -3.30757e+06 34429.2 0 -3.30293e+06 31569.6 0 -3.29855e+06 28966.6 0 -3.29443e+06 26599.7 0 -3.29056e+06 24449.9 0 -3.28693e+06 22500.1 0 -3.28353e+06 20734.7 0 -3.28034e+06 19139.1 0 -3.27738e+06 17700.4 0 -3.27462e+06 16406.3 0 -3.27207e+06 15245.8 0 -3.26971e+06 14208.8 0 -3.26755e+06 13285.9 0 -3.26558e+06 12468.4 0 -3.2638e+06 11748.6 0 -3.2622e+06 11119.1 0 -3.26078e+06 10573.2 0 -3.25953e+06 10104.6 0 -3.25846e+06 9707.77 0 -3.25757e+06 9377.31 0 -3.25684e+06 9108.39 0 -3.25627e+06 8896.48 0 -3.25587e+06 8737.42 0 -3.25564e+06 8627.36 0 -3.25556e+06 8562.74 0 -3.25565e+06 8540.25 0 -3.25589e+06 8556.84 0 -3.25629e+06 8609.67 0 -3.25684e+06 8696.11 0 -3.25755e+06 8813.75 0 -3.25841e+06 8960.31 0 -3.25943e+06 9133.71 0 -3.26059e+06 9332 0 -3.26191e+06 9553.38 0 -3.26337e+06 9796.18 0 -3.26499e+06 10058.8 0 -3.26675e+06 10339.9 0 -3.26867e+06 10638 0 -3.27073e+06 10951.9 0 -3.27294e+06 11280.5 0 -3.27529e+06 11622.5 0 -3.2778e+06 11977.1 0 -3.28045e+06 12343.2 0 -3.28325e+06 12719.9 0 -3.2862e+06 13106.4 0 -3.28929e+06 13501.9 0 -3.29254e+06 13905.6 0 -3.29593e+06 14316.7 0 -3.29946e+06 14734.7 0 -3.30315e+06 15158.7 0 -3.30699e+06 15588.2 0 -3.31097e+06 16022.5 0 -3.3151e+06 16461 0 -3.31938e+06 16903 0 -3.32382e+06 17348.1 0 -3.3284e+06 17795.4 0 -3.33313e+06 18244.6 0 -3.33802e+06 18694.8 0 -3.34306e+06 19145.4 0 -3.34825e+06 19595.8 0 -3.35359e+06 20045.2 0 -3.35908e+06 20492.9 0 -3.36473e+06 20938.1 0 -3.37053e+06 21379.9 0 -3.37649e+06 21817.4 0 -3.3826e+06 22249.7 0 -3.38887e+06 22675.5 0 -3.39529e+06 23093.9 0 -3.40186e+06 23503.5 0 -3.40859e+06 23902.8 0 -3.41547e+06 24290.4 0 -3.4225e+06 24664.6 0 -3.42968e+06 25023.4 0 -3.43701e+06 25364.9 0 -3.44448e+06 25686.8 0 -3.4521e+06 25986.5 0 -3.45985e+06 26261.3 0 -3.46774e+06 26508.1 0 -3.47576e+06 26723.6 0 -3.4839e+06 26904 0 -3.49215e+06 27045.4 0 -3.50051e+06 27143.3 0 -3.50895e+06 27192.8 0 -3.51748e+06 27188.7 0 -3.52607e+06 27125.3 0 -3.5347e+06 26996.6 0 -3.54336e+06 26795.9 0 -3.55202e+06 26516.5 0 -3.56065e+06 26151.2 0 -3.56923e+06 25692.7 0 -3.57771e+06 25133.6 0 -3.58607e+06 24466.4 0 -3.59426e+06 23684.2 0 -3.60223e+06 22780.4 0 -3.60994e+06 21749.4 0 -3.61733e+06 20586.6 0 -3.62435e+06 19289.2 0 -3.63094e+06 17856 0 -3.63704e+06 16288.5 0 -3.64259e+06 14590.5 0 -3.64755e+06 12768.7 0 -3.65184e+06 10833.3 0 -3.65543e+06 8797.02 0 -3.65828e+06 6675.94 0 -3.66033e+06 4488.63 0 -3.66158e+06 2255.88 0 -3.662e+06 1.78814e-06 0 -3.71119e+06 0 0 -3.66723e+06 95799.7 0 -3.59649e+06 138667 0 -3.54193e+06 147012 0 -3.50151e+06 143169 0 -3.47112e+06 134807 0 -3.44744e+06 125159 0 -3.42833e+06 115402 0 -3.41243e+06 106029 0 -3.39886e+06 97228.6 0 -3.38703e+06 89059.6 0 -3.37653e+06 81524 0 -3.36708e+06 74596.8 0 -3.35847e+06 68242.7 0 -3.35055e+06 62422.3 0 -3.34322e+06 57095.8 0 -3.3364e+06 52225 0 -3.33001e+06 47774 0 -3.32403e+06 43709 0 -3.3184e+06 39999 0 -3.31311e+06 36615.4 0 -3.30812e+06 33531.9 0 -3.30343e+06 30724.5 0 -3.29901e+06 28171.1 0 -3.29485e+06 25851.4 0 -3.29094e+06 23747.1 0 -3.28727e+06 21841 0 -3.28383e+06 20117.8 0 -3.28062e+06 18563.3 0 -3.27763e+06 17164.3 0 -3.27484e+06 15908.9 0 -3.27227e+06 14786.2 0 -3.26989e+06 13786 0 -3.26771e+06 12899.1 0 -3.26572e+06 12117 0 -3.26392e+06 11431.7 0 -3.2623e+06 10836.1 0 -3.26087e+06 10323.5 0 -3.25961e+06 9887.74 0 -3.25853e+06 9523.14 0 -3.25762e+06 9224.47 0 -3.25688e+06 8986.89 0 -3.2563e+06 8805.92 0 -3.2559e+06 8677.44 0 -3.25565e+06 8597.61 0 -3.25557e+06 8562.9 0 -3.25564e+06 8570.03 0 -3.25588e+06 8615.97 0 -3.25627e+06 8697.92 0 -3.25682e+06 8813.26 0 -3.25752e+06 8959.58 0 -3.25838e+06 9134.66 0 -3.25939e+06 9336.4 0 -3.26055e+06 9562.9 0 -3.26186e+06 9812.35 0 -3.26332e+06 10083.1 0 -3.26493e+06 10373.6 0 -3.2667e+06 10682.4 0 -3.26861e+06 11008.3 0 -3.27066e+06 11349.8 0 -3.27287e+06 11705.9 0 -3.27523e+06 12075.6 0 -3.27773e+06 12457.6 0 -3.28038e+06 12851.3 0 -3.28318e+06 13255.5 0 -3.28612e+06 13669.5 0 -3.28922e+06 14092.5 0 -3.29246e+06 14523.8 0 -3.29585e+06 14962.5 0 -3.29938e+06 15408 0 -3.30307e+06 15859.7 0 -3.3069e+06 16317 0 -3.31089e+06 16779 0 -3.31502e+06 17245.4 0 -3.3193e+06 17715.4 0 -3.32373e+06 18188.4 0 -3.32831e+06 18663.9 0 -3.33305e+06 19141.2 0 -3.33793e+06 19619.7 0 -3.34297e+06 20098.7 0 -3.34816e+06 20577.5 0 -3.3535e+06 21055.5 0 -3.359e+06 21531.8 0 -3.36465e+06 22005.6 0 -3.37045e+06 22476.2 0 -3.37641e+06 22942.5 0 -3.38252e+06 23403.5 0 -3.38879e+06 23858.2 0 -3.39521e+06 24305.3 0 -3.40178e+06 24743.5 0 -3.40851e+06 25171.5 0 -3.41539e+06 25587.5 0 -3.42242e+06 25989.8 0 -3.42961e+06 26376.5 0 -3.43694e+06 26745.4 0 -3.44442e+06 27094.1 0 -3.45204e+06 27420.1 0 -3.4598e+06 27720.4 0 -3.4677e+06 27991.7 0 -3.47572e+06 28230.6 0 -3.48387e+06 28433 0 -3.49213e+06 28594.7 0 -3.50049e+06 28710.9 0 -3.50895e+06 28776.5 0 -3.51748e+06 28785.7 0 -3.52608e+06 28732.6 0 -3.53473e+06 28610.5 0 -3.5434e+06 28412.3 0 -3.55208e+06 28130.7 0 -3.56073e+06 27758 0 -3.56932e+06 27286 0 -3.57783e+06 26706.6 0 -3.58621e+06 26011.8 0 -3.59442e+06 25193.8 0 -3.60242e+06 24245.4 0 -3.61015e+06 23160.3 0 -3.61756e+06 21933.3 0 -3.62461e+06 20561.2 0 -3.63122e+06 19042.5 0 -3.63735e+06 17378.4 0 -3.64293e+06 15573 0 -3.64791e+06 13633.6 0 -3.65223e+06 11570.7 0 -3.65583e+06 9398.4 0 -3.65869e+06 7133.84 0 -3.66076e+06 4797.25 0 -3.66201e+06 2411.21 0 -3.66243e+06 -1.2219e-06 0 -3.69002e+06 0 0 -3.65473e+06 84931.2 0 -3.59299e+06 127375 0 -3.54176e+06 138443 0 -3.5027e+06 136700 0 -3.47276e+06 129837 0 -3.4492e+06 121200 0 -3.43007e+06 112152 0 -3.41409e+06 103286 0 -3.40042e+06 94859.6 0 -3.38847e+06 86973.8 0 -3.37786e+06 79658.2 0 -3.3683e+06 72906.3 0 -3.35959e+06 66695.2 0 -3.35158e+06 60994.2 0 -3.34416e+06 55769.6 0 -3.33726e+06 50987.5 0 -3.3308e+06 46615.2 0 -3.32475e+06 42621.1 0 -3.31906e+06 38976 0 -3.31371e+06 35652.4 0 -3.30867e+06 32625.1 0 -3.30392e+06 29870.6 0 -3.29946e+06 27367.4 0 -3.29526e+06 25095.7 0 -3.29131e+06 23037.3 0 -3.28761e+06 21175.6 0 -3.28414e+06 19495.2 0 -3.28089e+06 17982 0 -3.27787e+06 16623.2 0 -3.27506e+06 15407 0 -3.27246e+06 14322.3 0 -3.27006e+06 13359.3 0 -3.26786e+06 12508.7 0 -3.26585e+06 117