<?xml version="1.0"?> 
<VTKFile type="StructuredGrid" version="0.1"> 
<StructuredGrid WholeExtent="0 15 0 15 0 0"> 
<Piece Extent="0 15 0 15 0 0"> 
<PointData>
<DataArray type="Float32" Name="|E|" format="ascii" NumberOfComponents="3"> 
-545215 -1.8226 0 -588076 -1.77045 0 -636479 -1.59304 0 -690646 -1.25998 0 -750767 -0.737468 0 -816977 0.00374281 0 -889332 0.977509 0 -967771 2.20059 0 -1.05209e+06 3.59881 0 -1.14192e+06 5.21168 0 -1.23668e+06 6.69768 0 -1.3356e+06 8.39251 0 -1.43767e+06 9.17932 0 -1.54175e+06 10.6738 0 -1.64652e+06 9.67075 0 -1.75064e+06 8.55908 0 -542564 40133.7 0 -585305 45556.3 0 -633595 51215.1 0 -687664 57087.8 0 -747715 63132.1 0 -813896 69280.6 0 -886277 75437.1 0 -964815 81473.7 0 -1.04932e+06 87230.6 0 -1.13944e+06 92519.5 0 -1.23459e+06 97132 0 -1.334e+06 100854 0 -1.43666e+06 103487 0 -1.54139e+06 104867 0 -1.64686e+06 104890 0 -1.75166e+06 103530 0 -534613 80022.7 0 -576986 90873.2 0 -624926 102212 0 -678692 113999 0 -738519 126155 0 -804597 138548 0 -877041 150989 0 -955858 163223 0 -1.04091e+06 174927 0 -1.13187e+06 185716 0 -1.2282e+06 195160 0 -1.32911e+06 202808 0 -1.43357e+06 208241 0 -1.5403e+06 211107 0 -1.64787e+06 211183 0 -1.75476e+06 208407 0 -521364 119411 0 -563101 135696 0 -610429 152754 0 -663651 170535 0 -723059 188930 0 -788913 207756 0 -861407 226737 0 -940636 245492 0 -1.02655e+06 263531 0 -1.1189e+06 280257 0 -1.2172e+06 294985 0 -1.32065e+06 306993 0 -1.42816e+06 315581 0 -1.53835e+06 320167 0 -1.64957e+06 320358 0 -1.76009e+06 316043 0 -502830 158019 0 -543628 179739 0 -590037 202561 0 -642419 226442 0 -701145 251260 0 -766572 276792 0 -839013 302690 0 -918696 328459 0 -1.00571e+06 353435 0 -1.09994e+06 376787 0 -1.20098e+06 397537 0 -1.30807e+06 414614 0 -1.42005e+06 426964 0 -1.53534e+06 433662 0 -1.65201e+06 434099 0 -1.76793e+06 428066 0 -479039 195532 0 -518552 222670 0 -563674 251297 0 -614841 281396 0 -672522 312853 0 -737202 345435 0 -809353 378745 0 -889390 412189 0 -977610 444936 0 -1.0741e+06 475904 0 -1.17863e+06 503759 0 -1.29053e+06 526994 0 -1.40857e+06 544040 0 -1.53092e+06 553509 0 -1.65519e+06 554384 0 -1.77875e+06 546322 0 -450050 231595 0 -487876 264098 0 -531271 298546 0 -580751 334969 0 -636899 373296 0 -700354 413316 0 -771787 454626 0 -851866 496570 0 -941183 538176 0 -1.04015e+06 578098 0 -1.14883e+06 614598 0 -1.26675e+06 645580 0 -1.39269e+06 668785 0 -1.5245e+06 682033 0 -1.65918e+06 683761 0 -1.79302e+06 673317 0 -415964 265805 0 -451648 303570 0 -492795 343803 0 -540003 386614 0 -593977 432013 0 -655528 479864 0 -725565 529818 0 -805073 581225 0 -895052 633028 0 -996386 683655 0 -1.10966e+06 730908 0 -1.2348e+06 771980 0 -1.37077e+06 803544 0 -1.51513e+06 822304 0 -1.66387e+06 825495 0 -1.81232e+06 811957 0 -376946 297716 0 -409977 340564 0 -448274 386466 0 -492507 435645 0 -543496 488242 0 -602229 544260 0 -669875 603489 0 -747797 665392 0 -837510 728953 0 -940592 792465 0 -1.05843e+06 853330 0 -1.1918e+06 907834 0 -1.34022e+06 951283 0 -1.5011e+06 978310 0 -1.66935e+06 984382 0 -1.83668e+06 967096 0 -333242 326842 0 -363067 374496 0 -397840 425837 0 -438282 481237 0 -485306 541014 0 -540050 605390 0 -603941 674404 0 -678739 747789 0 -766582 824764 0 -869939 903745 0 -991457 981891 0 -1.1334e+06 1.05469e+06 0 -1.29673e+06 1.11543e+06 0 -1.47943e+06 1.15583e+06 0 -1.67453e+06 1.16721e+06 0 -1.87258e+06 1.1445e+06 0 -285197 352674 0 -311239 404738 0 -341768 461143 0 -377517 522434 0 -419442 589160 0 -468785 661832 0 -527163 740866 0 -596705 826457 0 -680163 918372 0 -781102 1.01554e+06 0 -903822 1.11548e+06 0 -1.05316e+06 1.21316e+06 0 -1.23308e+06 1.30001e+06 0 -1.44407e+06 1.36267e+06 0 -1.67921e+06 1.3855e+06 0 -1.91563e+06 1.35635e+06 0 -233269 374698 0 -254957 430642 0 -280510 491562 0 -310623 558194 0 -346228 631344 0 -388567 711879 0 -439342 800701 0 -500873 898679 0 -576437 1.00647e+06 0 -670540 1.12421e+06 0 -789551 1.25064e+06 0 -941735 1.38178e+06 0 -1.13705e+06 1.50791e+06 0 -1.38334e+06 1.61022e+06 0 -1.6754e+06 1.65809e+06 0 -1.9945e+06 1.62073e+06 0 -178039 392429 0 -194843 451582 0 -214728 516280 0 -238292 587448 0 -266349 666151 0 -300030 753635 0 -340901 851354 0 -391260 960994 0 -454419 1.08446e+06 0 -535527 1.2237e+06 0 -642303 1.38026e+06 0 -787150 1.55369e+06 0 -988407 1.73776e+06 0 -1.27049e+06 1.91092e+06 0 -1.65299e+06 2.02082e+06 0 -2.08256e+06 1.98341e+06 0 -120201 405437 0 -131678 466996 0 -145302 534555 0 -161515 609195 0 -180932 692214 0 -204400 785198 0 -233181 890128 0 -269074 1.00951e+06 0 -315003 1.14661e+06 0 -375418 1.30562e+06 0 -458294 1.49222e+06 0 -577187 1.71264e+06 0 -758641 1.97357e+06 0 -1.05295e+06 2.26734e+06 0 -1.53997e+06 2.53564e+06 0 -2.29197e+06 2.56124e+06 0 -60562.7 413386 0 -66385.5 476438 0 -73312.4 545783 0 -81581.6 622610 0 -91510.7 708374 0 -103589 804908 0 -118453 914553 0 -137235 1.0405e+06 0 -161421 1.18695e+06 0 -194083 1.36048e+06 0 -239740 1.56966e+06 0 -308941 1.83136e+06 0 -422771 2.16661e+06 0 -638266 2.62755e+06 0 -1.14514e+06 3.25566e+06 0 -2.4378e+06 3.73036e+06 0 0 416061 0 0 479621 0 0 549571 0 0 627148 0 0 713859 0 0 811602 0 0 922965 0 0 1.05104e+06 0 0 1.20136e+06 0 0 1.37904e+06 0 0 1.59967e+06 0 0 1.87212e+06 0 0 2.25444e+06 0 0 2.78597e+06 0 0 3.82242e+06 0 0 7.70871e+06 0 </DataArray> 
</PointData> 
<Points> 
<DataArray type="Float32" NumberOfComponents="3"> 
0.006 0 0 0.00666667 0 0 0.00733333 0 0 0.008 0 0 0.00866667 0 0 0.00933333 0 0 0.01 0 0 0.0106667 0 0 0.0113333 0 0 0.012 0 0 0.0126667 0 0 0.0133333 0 0 0.014 0 0 0.0146667 0 0 0.0153333 0 0 0.016 0 0 0.006 0.000666667 0 0.00666667 0.000666667 0 0.00733333 0.000666667 0 0.008 0.000666667 0 0.00866667 0.000666667 0 0.00933333 0.000666667 0 0.01 0.000666667 0 0.0106667 0.000666667 0 0.0113333 0.000666667 0 0.012 0.000666667 0 0.0126667 0.000666667 0 0.0133333 0.000666667 0 0.014 0.000666667 0 0.0146667 0.000666667 0 0.0153333 0.000666667 0 0.016 0.000666667 0 0.006 0.00133333 0 0.00666667 0.00133333 0 0.00733333 0.00133333 0 0.008 0.00133333 0 0.00866667 0.00133333 0 0.00933333 0.00133333 0 0.01 0.00133333 0 0.0106667 0.00133333 0 0.0113333 0.00133333 0 0.012 0.00133333 0 0.0126667 0.00133333 0 0.0133333 0.00133333 0 0.014 0.00133333 0 0.0146667 0.00133333 0 0.0153333 0.00133333 0 0.016 0.00133333 0 0.006 0.002 0 0.00666667 0.002 0 0.00733333 0.002 0 0.008 0.002 0 0.00866667 0.002 0 0.00933333 0.002 0 0.01 0.002 0 0.0106667 0.002 0 0.0113333 0.002 0 0.012 0.002 0 0.0126667 0.002 0 0.0133333 0.002 0 0.014 0.002 0 0.0146667 0.002 0 0.0153333 0.002 0 0.016 0.002 0 0.006 0.00266667 0 0.00666667 0.00266667 0 0.00733333 0.00266667 0 0.008 0.00266667 0 0.00866667 0.00266667 0 0.00933333 0.00266667 0 0.01 0.00266667 0 0.0106667 0.00266667 0 0.0113333 0.00266667 0 0.012 0.00266667 0 0.0126667 0.00266667 0 0.0133333 0.00266667 0 0.014 0.00266667 0 0.0146667 0.00266667 0 0.0153333 0.00266667 0 0.016 0.00266667 0 0.006 0.00333333 0 0.00666667 0.00333333 0 0.00733333 0.00333333 0 0.008 0.00333333 0 0.00866667 0.00333333 0 0.00933333 0.00333333 0 0.01 0.00333333 0 0.0106667 0.00333333 0 0.0113333 0.00333333 0 0.012 0.00333333 0 0.0126667 0.00333333 0 0.0133333 0.00333333 0 0.014 0.00333333 0 0.0146667 0.00333333 0 0.0153333 0.00333333 0 0.016 0.00333333 0 0.006 0.004 0 0.00666667 0.004 0 0.00733333 0.004 0 0.008 0.004 0 0.00866667 0.004 0 0.00933333 0.004 0 0.01 0.004 0 0.0106667 0.004 0 0.0113333 0.004 0 0.012 0.004 0 0.0126667 0.004 0 0.0133333 0.004 0 0.014 0.004 0 0.0146667 0.004 0 0.0153333 0.004 0 0.016 0.004 0 0.006 0.00466667 0 0.00666667 0.00466667 0 0.00733333 0.00466667 0 0.008 0.00466667 0 0.00866667 0.00466667 0 0.00933333 0.00466667 0 0.01 0.00466667 0 0.0106667 0.00466667 0 0.0113333 0.00466667 0 0.012 0.00466667 0 0.0126667 0.00466667 0 0.0133333 0.00466667 0 0.014 0.00466667 0 0.0146667 0.00466667 0 0.0153333 0.00466667 0 0.016 0.00466667 0 0.006 0.00533333 0 0.00666667 0.00533333 0 0.00733333 0.00533333 0 0.008 0.00533333 0 0.00866667 0.00533333 0 0.00933333 0.00533333 0 0.01 0.00533333 0 0.0106667 0.00533333 0 0.0113333 0.00533333 0 0.012 0.00533333 0 0.0126667 0.00533333 0 0.0133333 0.00533333 0 0.014 0.00533333 0 0.0146667 0.00533333 0 0.0153333 0.00533333 0 0.016 0.00533333 0 0.006 0.006 0 0.00666667 0.006 0 0.00733333 0.006 0 0.008 0.006 0 0.00866667 0.006 0 0.00933333 0.006 0 0.01 0.006 0 0.0106667 0.006 0 0.0113333 0.006 0 0.012 0.006 0 0.0126667 0.006 0 0.0133333 0.006 0 0.014 0.006 0 0.0146667 0.006 0 0.0153333 0.006 0 0.016 0.006 0 0.006 0.00666667 0 0.00666667 0.00666667 0 0.00733333 0.00666667 0 0.008 0.00666667 0 0.00866667 0.00666667 0 0.00933333 0.00666667 0 0.01 0.00666667 0 0.0106667 0.00666667 0 0.0113333 0.00666667 0 0.012 0.00666667 0 0.0126667 0.00666667 0 0.0133333 0.00666667 0 0.014 0.00666667 0 0.0146667 0.00666667 0 0.0153333 0.00666667 0 0.016 0.00666667 0 0.006 0.00733333 0 0.00666667 0.00733333 0 0.00733333 0.00733333 0 0.008 0.00733333 0 0.00866667 0.00733333 0 0.00933333 0.00733333 0 0.01 0.00733333 0 0.0106667 0.00733333 0 0.0113333 0.00733333 0 0.012 0.00733333 0 0.0126667 0.00733333 0 0.0133333 0.00733333 0 0.014 0.00733333 0 0.0146667 0.00733333 0 0.0153333 0.00733333 0 0.016 0.00733333 0 0.006 0.008 0 0.00666667 0.008 0 0.00733333 0.008 0 0.008 0.008 0 0.00866667 0.008 0 0.00933333 0.008 0 0.01 0.008 0 0.0106667 0.008 0 0.0113333 0.008 0 0.012 0.008 0 0.0126667 0.008 0 0.0133333 0.008 0 0.014 0.008 0 0.0146667 0.008 0 0.0153333 0.008 0 0.016 0.008 0 0.006 0.00866667 0 0.00666667 0.00866667 0 0.00733333 0.00866667 0 0.008 0.00866667 0 0.00866667 0.00866667 0 0.00933333 0.00866667 0 0.01 0.00866667 0 0.0106667 0.00866667 0 0.0113333 0.00866667 0 0.012 0.00866667 0 0.0126667 0.00866667 0 0.0133333 0.00866667 0 0.014 0.00866667 0 0.0146667 0.00866667 0 0.0153333 0.00866667 0 0.016 0.00866667 0 0.006 0.00933333 0 0.00666667 0.00933333 0 0.00733333 0.00933333 0 0.008 0.00933333 0 0.00866667 0.00933333 0 0.00933333 0.00933333 0 0.01 0.00933333 0 0.0106667 0.00933333 0 0.0113333 0.00933333 0 0.012 0.00933333 0 0.0126667 0.00933333 0 0.0133333 0.00933333 0 0.014 0.00933333 0 0.0146667 0.00933333 0 0.0153333 0.00933333 0 0.016 0.00933333 0 0.006 0.01 0 0.00666667 0.01 0 0.00733333 0.01 0 0.008 0.01 0 0.00866667 0.01 0 0.00933333 0.01 0 0.01 0.01 0 0.0106667 0.01 0 0.0113333 0.01 0 0.012 0.01 0 0.0126667 0.01 0 0.0133333 0.01 0 0.014 0.01 0 0.0146667 0.01 0 0.0153333 0.01 0 0.016 0.01 0 
</DataArray>
</Points> 
</Piece> 
</StructuredGrid> 
</VTKFile> 
