<?xml version="1.0"?> 
<VTKFile type="StructuredGrid" version="0.1"> 
<StructuredGrid WholeExtent="0 15 0 15 0 0"> 
<Piece Extent="0 15 0 15 0 0"> 
<PointData>
<DataArray type="Float32" Name="|E|" format="ascii" NumberOfComponents="3"> 
-1.2215e+06 0 0 -1.22277e+06 48853.3 0 -1.23917e+06 108641 0 -1.26626e+06 181890 0 -1.29946e+06 269263 0 -1.33493e+06 369889 0 -1.36992e+06 481968 0 -1.40282e+06 603381 0 -1.43296e+06 732097 0 -1.46038e+06 866361 0 -1.48556e+06 1.00472e+06 0 -1.50947e+06 1.14603e+06 0 -1.53352e+06 1.28944e+06 0 -1.55971e+06 1.43464e+06 0 -1.59065e+06 1.58208e+06 0 -1.62947e+06 1.73351e+06 0 -1.17815e+06 0 0 -1.17648e+06 65018.7 0 -1.18829e+06 138914 0 -1.20996e+06 224031 0 -1.23776e+06 321187 0 -1.26843e+06 429924 0 -1.29958e+06 548968 0 -1.32975e+06 676692 0 -1.35829e+06 811463 0 -1.38519e+06 951826 0 -1.41102e+06 1.09659e+06 0 -1.43681e+06 1.24489e+06 0 -1.46417e+06 1.39634e+06 0 -1.49522e+06 1.55129e+06 0 -1.53259e+06 1.71128e+06 0 -1.57903e+06 1.87958e+06 0 -1.12409e+06 0 0 -1.12047e+06 79496.4 0 -1.12893e+06 166289 0 -1.14656e+06 262566 0 -1.17023e+06 369260 0 -1.1972e+06 486233 0 -1.22538e+06 612616 0 -1.25346e+06 747189 0 -1.28084e+06 888671 0 -1.30758e+06 1.03592e+06 0 -1.33427e+06 1.18805e+06 0 -1.36206e+06 1.34462e+06 0 -1.39257e+06 1.50582e+06 0 -1.42787e+06 1.67286e+06 0 -1.47013e+06 1.84848e+06 0 -1.52105e+06 2.03761e+06 0 -1.06143e+06 0 0 -1.05659e+06 92659.7 0 -1.06265e+06 191393 0 -1.07724e+06 298258 0 -1.09774e+06 414278 0 -1.12181e+06 539566 0 -1.14764e+06 673586 0 -1.17407e+06 815466 0 -1.20059e+06 964257 0 -1.22731e+06 1.11914e+06 0 -1.25487e+06 1.27962e+06 0 -1.28439e+06 1.44573e+06 0 -1.31739e+06 1.61832e+06 0 -1.35549e+06 1.79954e+06 0 -1.39988e+06 1.99331e+06 0 -1.45029e+06 2.20596e+06 0 -991786 0 0 -986255 104779 0 -990623 214680 0 -1.00292e+06 331658 0 -1.02095e+06 456812 0 -1.0427e+06 590463 0 -1.06661e+06 732361 0 -1.09168e+06 881944 0 -1.11747e+06 1.03859e+06 0 -1.14413e+06 1.20182e+06 0 -1.17228e+06 1.37155e+06 0 -1.20292e+06 1.54833e+06 0 -1.23719e+06 1.7337e+06 0 -1.27589e+06 1.93065e+06 0 -1.31861e+06 2.14395e+06 0 -1.36221e+06 2.3805e+06 0 -916384 0 0 -910579 116047 0 -913772 236470 0 -924322 363151 0 -940378 497259 0 -960222 639295 0 -982493 789263 0 -1.00632e+06 946888 0 -1.03136e+06 1.11186e+06 0 -1.05773e+06 1.28406e+06 0 -1.08597e+06 1.4638e+06 0 -1.11679e+06 1.65215e+06 0 -1.15069e+06 1.85122e+06 0 -1.18728e+06 2.06454e+06 0 -1.224e+06 2.2971e+06 0 -1.25439e+06 2.55489e+06 0 -836209 0 0 -830443 126597 0 -832846 256988 0 -842046 393005 0 -856477 535889 0 -874664 686307 0 -895431 844490 0 -918025 1.01044e+06 0 -942136 1.18414e+06 0 -967847 1.3658e+06 0 -995484 1.55614e+06 0 -1.02531e+06 1.75659e+06 0 -1.05698e+06 1.96964e+06 0 -1.08862e+06 2.19888e+06 0 -1.11532e+06 2.44849e+06 0 -1.12762e+06 2.7219e+06 0 -752058 0 0 -746569 136523 0 -748460 276383 0 -756583 421396 0 -769609 572875 0 -786273 731643 0 -805560 898146 0 -826808 1.07263e+06 0 -849717 1.25537e+06 0 -874266 1.44686e+06 0 -900496 1.64811e+06 0 -928101 1.8608e+06 0 -955732 2.08742e+06 0 -979944 2.33096e+06 0 -993795 2.59379e+06 0 -986068 2.87526e+06 0 -664593 0 0 -659559 145883 0 -661133 294755 0 -668352 448434 0 -680091 608317 0 -695266 775376 0 -713001 950254 0 -732704 1.13343e+06 0 -754057 1.32541e+06 0 -776889 1.52693e+06 0 -800895 1.73917e+06 0 -825134 1.96382e+06 0 -847249 2.20294e+06 0 -862441 2.45826e+06 0 -862497 2.72946e+06 0 -836238 3.01124e+06 0 -574379 0 0 -569932 154715 0 -571313 312157 0 -577720 474176 0 -588202 642258 0 -601839 817519 0 -617874 1.00079e+06 0 -635769 1.19274e+06 0 -655167 1.39408e+06 0 -675726 1.6057e+06 0 -696774 1.82878e+06 0 -716762 2.06475e+06 0 -732477 2.31482e+06 0 -738245 2.57891e+06 0 -725652 2.85355e+06 0 -685269 3.12923e+06 0 -481909 0 0 -478143 163035 0 -479398 328615 0 -485012 498641 0 -494195 674699 0 -506175 858048 0 -520300 1.04968e+06 0 -536081 1.25045e+06 0 -553116 1.46118e+06 0 -570895 1.68284e+06 0 -588422 1.91644e+06 0 -603658 2.16287e+06 0 -612847 2.42213e+06 0 -610077 2.69197e+06 0 -587803 2.96582e+06 0 -539422 3.23112e+06 0 -387623 0 0 -384598 170846 0 -385743 344125 0 -390526 521814 0 -398305 705609 0 -408445 896904 0 -420405 1.09684e+06 0 -433739 1.30641e+06 0 -448018 1.52653e+06 0 -462605 1.75809e+06 0 -476278 2.00181e+06 0 -486726 2.25778e+06 0 -490063 2.52453e+06 0 -480813 2.79752e+06 0 -453075 3.06753e+06 0 -403317 3.32028e+06 0 -291923 0 0 -289671 178138 0 -290678 358667 0 -294535 543659 0 -300745 734931 0 -308815 934012 0 -318312 1.14218e+06 0 -328854 1.36052e+06 0 -340018 1.58998e+06 0 -351118 1.83131e+06 0 -360867 2.08476e+06 0 -366972 2.34946e+06 0 -365879 2.6223e+06 0 -353119 2.89653e+06 0 -324782 3.16087e+06 0 -279927 3.40044e+06 0 -195184 0 0 -193710 184893 0 -194508 372201 0 -197293 564118 0 -201718 762590 0 -207438 969279 0 -214142 1.18558e+06 0 -221540 1.41265e+06 0 -229267 1.65143e+06 0 -236707 1.90243e+06 0 -242722 2.16536e+06 0 -245383 2.43824e+06 0 -241922 2.71626e+06 0 -229260 2.99061e+06 0 -205384 3.24845e+06 0 -170980 3.47497e+06 0 -97761.2 0 0 -97046.8 191082 0 -97523.4 384672 0 -99039.5 583114 0 -101411 788495 0 -104456 1.0026e+06 0 -108006 1.22694e+06 0 -111895 1.46272e+06 0 -115898 1.71083e+06 0 -119613 1.97153e+06 0 -122316 2.24391e+06 0 -122830 2.52482e+06 0 -119584 2.8077e+06 0 -111060 3.08177e+06 0 -96664.7 3.33286e+06 0 -77459.4 3.54651e+06 0 0 0 0 0 196667 0 0 396014 0 0 600560 0 0 812543 0 0 1.03388e+06 0 0 1.26616e+06 0 0 1.51065e+06 0 0 1.76819e+06 0 0 2.0388e+06 0 0 2.32092e+06 0 0 2.6102e+06 0 0 2.89823e+06 0 0 3.17215e+06 0 0 3.41638e+06 0 0 3.61686e+06 0 </DataArray> 
</PointData> 
<Points> 
<DataArray type="Float32" NumberOfComponents="3"> 
0 0.0556667 0 0.00452 0.0564444 0 0.00904 0.0572222 0 0.01356 0.058 0 0.01808 0.0587778 0 0.0226 0.0595556 0 0.02712 0.0603333 0 0.03164 0.0611111 0 0.03616 0.0618889 0 0.04068 0.0626667 0 0.0452 0.0634444 0 0.04972 0.0642222 0 0.05424 0.065 0 0.05876 0.0657778 0 0.06328 0.0665556 0 0.0678 0.0673333 0 0 0.0594222 0 0.00472089 0.0601481 0 0.00944178 0.0608741 0 0.0141627 0.0616 0 0.0188836 0.0623259 0 0.0236044 0.0630519 0 0.0283253 0.0637778 0 0.0330462 0.0645037 0 0.0377671 0.0652296 0 0.042488 0.0659556 0 0.0472089 0.0666815 0 0.0519298 0.0674074 0 0.0566507 0.0681333 0 0.0613716 0.0688593 0 0.0660924 0.0695852 0 0.0708133 0.0703111 0 0 0.0631778 0 0.00492178 0.0638519 0 0.00984356 0.0645259 0 0.0147653 0.0652 0 0.0196871 0.0658741 0 0.0246089 0.0665481 0 0.0295307 0.0672222 0 0.0344524 0.0678963 0 0.0393742 0.0685704 0 0.044296 0.0692444 0 0.0492178 0.0699185 0 0.0541396 0.0705926 0 0.0590613 0.0712667 0 0.0639831 0.0719407 0 0.0689049 0.0726148 0 0.0738267 0.0732889 0 0 0.0669333 0 0.00512267 0.0675556 0 0.0102453 0.0681778 0 0.015368 0.0688 0 0.0204907 0.0694222 0 0.0256133 0.0700444 0 0.030736 0.0706667 0 0.0358587 0.0712889 0 0.0409813 0.0719111 0 0.046104 0.0725333 0 0.0512267 0.0731556 0 0.0563493 0.0737778 0 0.061472 0.0744 0 0.0665947 0.0750222 0 0.0717173 0.0756444 0 0.07684 0.0762667 0 0 0.0706889 0 0.00532356 0.0712593 0 0.0106471 0.0718296 0 0.0159707 0.0724 0 0.0212942 0.0729704 0 0.0266178 0.0735407 0 0.0319413 0.0741111 0 0.0372649 0.0746815 0 0.0425884 0.0752519 0 0.047912 0.0758222 0 0.0532356 0.0763926 0 0.0585591 0.076963 0 0.0638827 0.0775333 0 0.0692062 0.0781037 0 0.0745298 0.0786741 0 0.0798533 0.0792444 0 0 0.0744444 0 0.00552444 0.074963 0 0.0110489 0.0754815 0 0.0165733 0.076 0 0.0220978 0.0765185 0 0.0276222 0.077037 0 0.0331467 0.0775556 0 0.0386711 0.0780741 0 0.0441956 0.0785926 0 0.04972 0.0791111 0 0.0552444 0.0796296 0 0.0607689 0.0801481 0 0.0662933 0.0806667 0 0.0718178 0.0811852 0 0.0773422 0.0817037 0 0.0828667 0.0822222 0 0 0.0782 0 0.00572533 0.0786667 0 0.0114507 0.0791333 0 0.017176 0.0796 0 0.0229013 0.0800667 0 0.0286267 0.0805333 0 0.034352 0.081 0 0.0400773 0.0814667 0 0.0458027 0.0819333 0 0.051528 0.0824 0 0.0572533 0.0828667 0 0.0629787 0.0833333 0 0.068704 0.0838 0 0.0744293 0.0842667 0 0.0801547 0.0847333 0 0.08588 0.0852 0 0 0.0819556 0 0.00592622 0.0823704 0 0.0118524 0.0827852 0 0.0177787 0.0832 0 0.0237049 0.0836148 0 0.0296311 0.0840296 0 0.0355573 0.0844444 0 0.0414836 0.0848593 0 0.0474098 0.0852741 0 0.053336 0.0856889 0 0.0592622 0.0861037 0 0.0651884 0.0865185 0 0.0711147 0.0869333 0 0.0770409 0.0873481 0 0.0829671 0.087763 0 0.0888933 0.0881778 0 0 0.0857111 0 0.00612711 0.0860741 0 0.0122542 0.086437 0 0.0183813 0.0868 0 0.0245084 0.087163 0 0.0306356 0.0875259 0 0.0367627 0.0878889 0 0.0428898 0.0882519 0 0.0490169 0.0886148 0 0.055144 0.0889778 0 0.0612711 0.0893407 0 0.0673982 0.0897037 0 0.0735253 0.0900667 0 0.0796524 0.0904296 0 0.0857796 0.0907926 0 0.0919067 0.0911556 0 0 0.0894667 0 0.006328 0.0897778 0 0.012656 0.0900889 0 0.018984 0.0904 0 0.025312 0.0907111 0 0.03164 0.0910222 0 0.037968 0.0913333 0 0.044296 0.0916444 0 0.050624 0.0919556 0 0.056952 0.0922667 0 0.06328 0.0925778 0 0.069608 0.0928889 0 0.075936 0.0932 0 0.082264 0.0935111 0 0.088592 0.0938222 0 0.09492 0.0941333 0 0 0.0932222 0 0.00652889 0.0934815 0 0.0130578 0.0937407 0 0.0195867 0.094 0 0.0261156 0.0942593 0 0.0326444 0.0945185 0 0.0391733 0.0947778 0 0.0457022 0.095037 0 0.0522311 0.0952963 0 0.05876 0.0955556 0 0.0652889 0.0958148 0 0.0718178 0.0960741 0 0.0783467 0.0963333 0 0.0848756 0.0965926 0 0.0914044 0.0968519 0 0.0979333 0.0971111 0 0 0.0969778 0 0.00672978 0.0971852 0 0.0134596 0.0973926 0 0.0201893 0.0976 0 0.0269191 0.0978074 0 0.0336489 0.0980148 0 0.0403787 0.0982222 0 0.0471084 0.0984296 0 0.0538382 0.098637 0 0.060568 0.0988444 0 0.0672978 0.0990519 0 0.0740276 0.0992593 0 0.0807573 0.0994667 0 0.0874871 0.0996741 0 0.0942169 0.0998815 0 0.100947 0.100089 0 0 0.100733 0 0.00693067 0.100889 0 0.0138613 0.101044 0 0.020792 0.1012 0 0.0277227 0.101356 0 0.0346533 0.101511 0 0.041584 0.101667 0 0.0485147 0.101822 0 0.0554453 0.101978 0 0.062376 0.102133 0 0.0693067 0.102289 0 0.0762373 0.102444 0 0.083168 0.1026 0 0.0900987 0.102756 0 0.0970293 0.102911 0 0.10396 0.103067 0 0 0.104489 0 0.00713156 0.104593 0 0.0142631 0.104696 0 0.0213947 0.1048 0 0.0285262 0.104904 0 0.0356578 0.105007 0 0.0427893 0.105111 0 0.0499209 0.105215 0 0.0570524 0.105319 0 0.064184 0.105422 0 0.0713156 0.105526 0 0.0784471 0.10563 0 0.0855787 0.105733 0 0.0927102 0.105837 0 0.0998418 0.105941 0 0.106973 0.106044 0 0 0.108244 0 0.00733244 0.108296 0 0.0146649 0.108348 0 0.0219973 0.1084 0 0.0293298 0.108452 0 0.0366622 0.108504 0 0.0439947 0.108556 0 0.0513271 0.108607 0 0.0586596 0.108659 0 0.065992 0.108711 0 0.0733244 0.108763 0 0.0806569 0.108815 0 0.0879893 0.108867 0 0.0953218 0.108919 0 0.102654 0.10897 0 0.109987 0.109022 0 0 0.112 0 0.00753333 0.112 0 0.0150667 0.112 0 0.0226 0.112 0 0.0301333 0.112 0 0.0376667 0.112 0 0.0452 0.112 0 0.0527333 0.112 0 0.0602667 0.112 0 0.0678 0.112 0 0.0753333 0.112 0 0.0828667 0.112 0 0.0904 0.112 0 0.0979333 0.112 0 0.105467 0.112 0 0.113 0.112 0 
</DataArray>
</Points> 
</Piece> 
</StructuredGrid> 
</VTKFile> 
