<?xml version="1.0"?> 
<VTKFile type="StructuredGrid" version="0.1"> 
<StructuredGrid WholeExtent="0 15 0 15 0 0"> 
<Piece Extent="0 15 0 15 0 0"> 
<PointData>
<DataArray type="Float32" Name="|E|" format="ascii" NumberOfComponents="3"> 
-1.74826e+06 8.55908 0 -2.28746e+06 0.344035 0 -2.62268e+06 -3.49502 0 -2.79991e+06 -2.44396 0 -2.89899e+06 -1.25456 0 -2.96927e+06 -0.610047 0 -3.03583e+06 -0.29119 0 -3.11077e+06 -0.129282 0 -3.19975e+06 -0.0243927 0 -3.30484e+06 0.0809806 0 -3.42529e+06 0.231609 0 -3.5569e+06 0.452516 0 -3.6905e+06 0.709191 0 -3.81053e+06 0.84402 0 -3.89607e+06 0.615333 0 -3.92748e+06 3.21865e-06 0 -1.74921e+06 103530 0 -2.29062e+06 74572.5 0 -2.62497e+06 40727.7 0 -2.80099e+06 21496.5 0 -2.89937e+06 13316 0 -2.96931e+06 11100.4 0 -3.03571e+06 11749.3 0 -3.11056e+06 13786.7 0 -3.19952e+06 16427.8 0 -3.30462e+06 19181.2 0 -3.42513e+06 21549.6 0 -3.55686e+06 22838 0 -3.69069e+06 22049.7 0 -3.81103e+06 18068.5 0 -3.89687e+06 10366.3 0 -3.9284e+06 -3.64031e-07 0 -1.75212e+06 208407 0 -2.30019e+06 149182 0 -2.63182e+06 80980.8 0 -2.80421e+06 42677.1 0 -2.90051e+06 26465.6 0 -2.96942e+06 22122.5 0 -3.03532e+06 23460 0 -3.10994e+06 27556.8 0 -3.19881e+06 32852.3 0 -3.30394e+06 38373.1 0 -3.42462e+06 43129.5 0 -3.55675e+06 45735.4 0 -3.69125e+06 44192.7 0 -3.81252e+06 36248.5 0 -3.89925e+06 20814.1 0 -3.93117e+06 9.49949e-08 0 -1.75713e+06 316043 0 -2.31649e+06 223821 0 -2.64323e+06 120273 0 -2.80952e+06 63228 0 -2.90238e+06 39286.1 0 -2.96959e+06 32989.4 0 -3.03467e+06 35094.2 0 -3.10891e+06 41294 0 -3.19763e+06 49270.1 0 -3.30281e+06 57585.9 0 -3.42378e+06 64769.4 0 -3.55655e+06 68751 0 -3.69218e+06 66522.2 0 -3.815e+06 54652.2 0 -3.90324e+06 31426.1 0 -3.93582e+06 1.76951e-08 0 -1.76449e+06 428066 0 -2.34002e+06 298394 0 -2.65921e+06 158087 0 -2.81685e+06 82835.8 0 -2.90493e+06 51619 0 -2.9698e+06 43626.4 0 -3.03373e+06 46615.3 0 -3.10745e+06 54982.2 0 -3.19597e+06 65677.9 0 -3.30122e+06 76829.8 0 -3.42259e+06 86498.9 0 -3.55625e+06 91943.4 0 -3.69346e+06 89132.6 0 -3.81847e+06 73395.3 0 -3.90886e+06 42288.8 0 -3.94238e+06 -9.31323e-09 0 -1.77461e+06 546322 0 -2.37155e+06 372639 0 -2.67971e+06 193873 0 -2.82607e+06 101185 0 -2.90808e+06 63315.8 0 -2.97001e+06 53960.8 0 -3.03251e+06 57988.6 0 -3.10556e+06 68606.1 0 -3.19383e+06 82072.5 0 -3.29916e+06 96114.2 0 -3.42103e+06 108346 0 -3.55584e+06 115371 0 -3.69507e+06 112119 0 -3.82293e+06 92597.6 0 -3.91615e+06 53493.7 0 -3.95092e+06 -7.45058e-09 0 -1.78817e+06 673317 0 -2.41212e+06 446049 0 -2.70463e+06 227040 0 -2.83703e+06 117963 0 -2.91175e+06 74240.5 0 -2.97018e+06 63923.3 0 -3.03096e+06 69182.2 0 -3.10323e+06 82150.5 0 -3.19118e+06 98450.5 0 -3.29662e+06 115448 0 -3.41908e+06 130339 0 -3.55528e+06 139090 0 -3.69698e+06 135579 0 -3.82838e+06 112385 0 -3.92515e+06 65139.6 0 -3.96151e+06 1.86265e-08 0 -1.80623e+06 811957 0 -2.46307e+06 517705 0 -2.73381e+06 256995 0 -2.84953e+06 132836 0 -2.91584e+06 84284.7 0 -2.97027e+06 73442.1 0 -3.02907e+06 80170.7 0 -3.10044e+06 95599.8 0 -3.18803e+06 114809 0 -3.29358e+06 134838 0 -3.41673e+06 152502 0 -3.55454e+06 163156 0 -3.69917e+06 159610 0 -3.83482e+06 132891 0 -3.93592e+06 77335.1 0 -3.97424e+06 7.45058e-09 0 -1.83083e+06 967096 0 -2.52606e+06 586133 0 -2.76691e+06 283136 0 -2.86335e+06 145468 0 -2.92023e+06 93366.4 0 -2.9702e+06 82446.3 0 -3.02682e+06 90934.2 0 -3.09717e+06 108938 0 -3.18436e+06 131147 0 -3.29003e+06 154292 0 -3.41395e+06 174861 0 -3.55358e+06 187625 0 -3.70159e+06 184313 0 -3.84224e+06 154259 0 -3.94854e+06 90201.1 0 -3.98924e+06 8.9407e-08 0 -1.86538e+06 1.1445e+06 0 -2.6031e+06 648938 0 -2.80341e+06 305002 0 -2.87821e+06 155450 0 -2.92479e+06 101473 0 -2.96991e+06 90845 0 -3.02417e+06 101470 0 -3.09342e+06 122145 0 -3.18016e+06 147463 0 -3.28594e+06 173813 0 -3.4107e+06 197436 0 -3.55237e+06 212548 0 -3.7042e+06 209791 0 -3.85063e+06 176643 0 -3.96309e+06 103874 0 -4.00665e+06 -2.45869e-07 0 -1.91822e+06 1.35635e+06 0 -2.69629e+06 702671 0 -2.84254e+06 322163 0 -2.89378e+06 162388 0 -2.9294e+06 108626 0 -2.96931e+06 98546.3 0 -3.02111e+06 111783 0 -3.08914e+06 135199 0 -3.17541e+06 163759 0 -3.2813e+06 193404 0 -3.40696e+06 220248 0 -3.55084e+06 237974 0 -3.70692e+06 236146 0 -3.85998e+06 200212 0 -3.97967e+06 118511 0 -4.02666e+06 1.78814e-07 0 -2.00547e+06 1.62073e+06 0 -2.80748e+06 742388 0 -2.88324e+06 334376 0 -2.90969e+06 165857 0 -2.93397e+06 114915 0 -2.96828e+06 105437 0 -3.01764e+06 121902 0 -3.0843e+06 148070 0 -3.17012e+06 180040 0 -3.27608e+06 213063 0 -3.4027e+06 243313 0 -3.54893e+06 263949 0 -3.7097e+06 263482 0 -3.87024e+06 225147 0 -3.99838e+06 134291 0 -4.04947e+06 1.49012e-08 0 -2.17355e+06 1.98341e+06 0 -2.93619e+06 762672 0 -2.9243e+06 340427 0 -2.92554e+06 166099 0 -2.93839e+06 120149 0 -2.96668e+06 111554 0 -3.01376e+06 131794 0 -3.07886e+06 160758 0 -3.16429e+06 196300 0 -3.27025e+06 232792 0 -3.39787e+06 266643 0 -3.54658e+06 290515 0 -3.71244e+06 291905 0 -3.88139e+06 251651 0 -4.01937e+06 151427 0 -4.07535e+06 -2.38419e-07 0 -2.53415e+06 2.56124e+06 0 -3.07558e+06 761407 0 -2.96482e+06 334749 0 -2.94087e+06 166006 0 -2.94251e+06 122833 0 -2.96443e+06 117593 0 -3.00944e+06 141128 0 -3.07278e+06 173396 0 -3.1579e+06 212479 0 -3.26377e+06 252609 0 -3.39244e+06 290238 0 -3.54371e+06 317710 0 -3.71505e+06 321519 0 -3.89338e+06 279942 0 -4.04277e+06 170170 0 -4.10461e+06 1.93715e-07 0 -3.46178e+06 3.73036e+06 0 -3.19366e+06 756923 0 -3.00649e+06 292730 0 -2.95543e+06 179530 0 -2.94558e+06 115745 0 -2.96195e+06 127126 0 -3.00429e+06 148214 0 -3.06625e+06 186740 0 -3.1508e+06 228253 0 -3.25668e+06 272632 0 -3.38632e+06 314068 0 -3.54025e+06 345569 0 -3.71739e+06 352431 0 -3.90611e+06 310254 0 -4.06875e+06 190828 0 -4.13763e+06 -3.27826e-07 0 -6.38352e+06 7.70871e+06 0 -3.16208e+06 894350 0 -3.06262e+06 74962 0 -2.97016e+06 286090 0 -2.94378e+06 57393.5 0 -2.96235e+06 160918 0 -2.99608e+06 143128 0 -3.06065e+06 205286 0 -3.14218e+06 241719 0 -3.24944e+06 293568 0 -3.37923e+06 337917 0 -3.53625e+06 374132 0 -3.71928e+06 384779 0 -3.91953e+06 342789 0 -4.09748e+06 213813 0 -4.17482e+06 1.90735e-06 0 </DataArray> 
</PointData> 
<Points> 
<DataArray type="Float32" NumberOfComponents="3"> 
0.016 0 0 0.0199333 0 0 0.0238667 0 0 0.0278 0 0 0.0317333 0 0 0.0356667 0 0 0.0396 0 0 0.0435333 0 0 0.0474667 0 0 0.0514 0 0 0.0553333 0 0 0.0592667 0 0 0.0632 0 0 0.0671333 0 0 0.0710667 0 0 0.075 0 0 0.016 0.000666667 0 0.0199333 0.000666667 0 0.0238667 0.000666667 0 0.0278 0.000666667 0 0.0317333 0.000666667 0 0.0356667 0.000666667 0 0.0396 0.000666667 0 0.0435333 0.000666667 0 0.0474667 0.000666667 0 0.0514 0.000666667 0 0.0553333 0.000666667 0 0.0592667 0.000666667 0 0.0632 0.000666667 0 0.0671333 0.000666667 0 0.0710667 0.000666667 0 0.075 0.000666667 0 0.016 0.00133333 0 0.0199333 0.00133333 0 0.0238667 0.00133333 0 0.0278 0.00133333 0 0.0317333 0.00133333 0 0.0356667 0.00133333 0 0.0396 0.00133333 0 0.0435333 0.00133333 0 0.0474667 0.00133333 0 0.0514 0.00133333 0 0.0553333 0.00133333 0 0.0592667 0.00133333 0 0.0632 0.00133333 0 0.0671333 0.00133333 0 0.0710667 0.00133333 0 0.075 0.00133333 0 0.016 0.002 0 0.0199333 0.002 0 0.0238667 0.002 0 0.0278 0.002 0 0.0317333 0.002 0 0.0356667 0.002 0 0.0396 0.002 0 0.0435333 0.002 0 0.0474667 0.002 0 0.0514 0.002 0 0.0553333 0.002 0 0.0592667 0.002 0 0.0632 0.002 0 0.0671333 0.002 0 0.0710667 0.002 0 0.075 0.002 0 0.016 0.00266667 0 0.0199333 0.00266667 0 0.0238667 0.00266667 0 0.0278 0.00266667 0 0.0317333 0.00266667 0 0.0356667 0.00266667 0 0.0396 0.00266667 0 0.0435333 0.00266667 0 0.0474667 0.00266667 0 0.0514 0.00266667 0 0.0553333 0.00266667 0 0.0592667 0.00266667 0 0.0632 0.00266667 0 0.0671333 0.00266667 0 0.0710667 0.00266667 0 0.075 0.00266667 0 0.016 0.00333333 0 0.0199333 0.00333333 0 0.0238667 0.00333333 0 0.0278 0.00333333 0 0.0317333 0.00333333 0 0.0356667 0.00333333 0 0.0396 0.00333333 0 0.0435333 0.00333333 0 0.0474667 0.00333333 0 0.0514 0.00333333 0 0.0553333 0.00333333 0 0.0592667 0.00333333 0 0.0632 0.00333333 0 0.0671333 0.00333333 0 0.0710667 0.00333333 0 0.075 0.00333333 0 0.016 0.004 0 0.0199333 0.004 0 0.0238667 0.004 0 0.0278 0.004 0 0.0317333 0.004 0 0.0356667 0.004 0 0.0396 0.004 0 0.0435333 0.004 0 0.0474667 0.004 0 0.0514 0.004 0 0.0553333 0.004 0 0.0592667 0.004 0 0.0632 0.004 0 0.0671333 0.004 0 0.0710667 0.004 0 0.075 0.004 0 0.016 0.00466667 0 0.0199333 0.00466667 0 0.0238667 0.00466667 0 0.0278 0.00466667 0 0.0317333 0.00466667 0 0.0356667 0.00466667 0 0.0396 0.00466667 0 0.0435333 0.00466667 0 0.0474667 0.00466667 0 0.0514 0.00466667 0 0.0553333 0.00466667 0 0.0592667 0.00466667 0 0.0632 0.00466667 0 0.0671333 0.00466667 0 0.0710667 0.00466667 0 0.075 0.00466667 0 0.016 0.00533333 0 0.0199333 0.00533333 0 0.0238667 0.00533333 0 0.0278 0.00533333 0 0.0317333 0.00533333 0 0.0356667 0.00533333 0 0.0396 0.00533333 0 0.0435333 0.00533333 0 0.0474667 0.00533333 0 0.0514 0.00533333 0 0.0553333 0.00533333 0 0.0592667 0.00533333 0 0.0632 0.00533333 0 0.0671333 0.00533333 0 0.0710667 0.00533333 0 0.075 0.00533333 0 0.016 0.006 0 0.0199333 0.006 0 0.0238667 0.006 0 0.0278 0.006 0 0.0317333 0.006 0 0.0356667 0.006 0 0.0396 0.006 0 0.0435333 0.006 0 0.0474667 0.006 0 0.0514 0.006 0 0.0553333 0.006 0 0.0592667 0.006 0 0.0632 0.006 0 0.0671333 0.006 0 0.0710667 0.006 0 0.075 0.006 0 0.016 0.00666667 0 0.0199333 0.00666667 0 0.0238667 0.00666667 0 0.0278 0.00666667 0 0.0317333 0.00666667 0 0.0356667 0.00666667 0 0.0396 0.00666667 0 0.0435333 0.00666667 0 0.0474667 0.00666667 0 0.0514 0.00666667 0 0.0553333 0.00666667 0 0.0592667 0.00666667 0 0.0632 0.00666667 0 0.0671333 0.00666667 0 0.0710667 0.00666667 0 0.075 0.00666667 0 0.016 0.00733333 0 0.0199333 0.00733333 0 0.0238667 0.00733333 0 0.0278 0.00733333 0 0.0317333 0.00733333 0 0.0356667 0.00733333 0 0.0396 0.00733333 0 0.0435333 0.00733333 0 0.0474667 0.00733333 0 0.0514 0.00733333 0 0.0553333 0.00733333 0 0.0592667 0.00733333 0 0.0632 0.00733333 0 0.0671333 0.00733333 0 0.0710667 0.00733333 0 0.075 0.00733333 0 0.016 0.008 0 0.0199333 0.008 0 0.0238667 0.008 0 0.0278 0.008 0 0.0317333 0.008 0 0.0356667 0.008 0 0.0396 0.008 0 0.0435333 0.008 0 0.0474667 0.008 0 0.0514 0.008 0 0.0553333 0.008 0 0.0592667 0.008 0 0.0632 0.008 0 0.0671333 0.008 0 0.0710667 0.008 0 0.075 0.008 0 0.016 0.00866667 0 0.0199333 0.00866667 0 0.0238667 0.00866667 0 0.0278 0.00866667 0 0.0317333 0.00866667 0 0.0356667 0.00866667 0 0.0396 0.00866667 0 0.0435333 0.00866667 0 0.0474667 0.00866667 0 0.0514 0.00866667 0 0.0553333 0.00866667 0 0.0592667 0.00866667 0 0.0632 0.00866667 0 0.0671333 0.00866667 0 0.0710667 0.00866667 0 0.075 0.00866667 0 0.016 0.00933333 0 0.0199333 0.00933333 0 0.0238667 0.00933333 0 0.0278 0.00933333 0 0.0317333 0.00933333 0 0.0356667 0.00933333 0 0.0396 0.00933333 0 0.0435333 0.00933333 0 0.0474667 0.00933333 0 0.0514 0.00933333 0 0.0553333 0.00933333 0 0.0592667 0.00933333 0 0.0632 0.00933333 0 0.0671333 0.00933333 0 0.0710667 0.00933333 0 0.075 0.00933333 0 0.016 0.01 0 0.0199333 0.01 0 0.0238667 0.01 0 0.0278 0.01 0 0.0317333 0.01 0 0.0356667 0.01 0 0.0396 0.01 0 0.0435333 0.01 0 0.0474667 0.01 0 0.0514 0.01 0 0.0553333 0.01 0 0.0592667 0.01 0 0.0632 0.01 0 0.0671333 0.01 0 0.0710667 0.01 0 0.075 0.01 0 
</DataArray>
</Points> 
</Piece> 
</StructuredGrid> 
</VTKFile> 
