<?xml version="1.0"?> 
<VTKFile type="StructuredGrid" version="0.1"> 
<StructuredGrid WholeExtent="0 15 0 15 0 0"> 
<Piece Extent="0 15 0 15 0 0"> 
<PointData>
<DataArray type="Float32" Name="|E|" format="ascii" NumberOfComponents="3"> 
368192 5.45626e+06 0 744448 5.75141e+06 0 1.13997e+06 5.90006e+06 0 1.54513e+06 5.95935e+06 0 1.95204e+06 5.94828e+06 0 2.35332e+06 5.87574e+06 0 2.74205e+06 5.74775e+06 0 3.11183e+06 5.56964e+06 0 3.45704e+06 5.34694e+06 0 3.77311e+06 5.08565e+06 0 4.05661e+06 4.7922e+06 0 4.30534e+06 4.47321e+06 0 4.51826e+06 4.13524e+06 0 4.69536e+06 3.78451e+06 0 4.83747e+06 3.42673e+06 0 4.94606e+06 3.06697e+06 0 908154 4.86719e+06 0 1.17647e+06 4.93086e+06 0 1.49024e+06 4.91929e+06 0 1.8111e+06 4.82045e+06 0 2.10692e+06 4.64613e+06 0 2.35882e+06 4.41648e+06 0 2.55882e+06 4.15264e+06 0 2.70677e+06 3.8732e+06 0 2.8074e+06 3.59273e+06 0 2.86801e+06 3.32152e+06 0 2.89664e+06 3.06609e+06 0 2.90107e+06 2.82994e+06 0 2.88815e+06 2.61437e+06 0 2.86362e+06 2.41919e+06 0 2.83201e+06 2.24331e+06 0 2.79678e+06 2.08518e+06 0 991270 4.48707e+06 0 1.23619e+06 4.46176e+06 0 1.50166e+06 4.35951e+06 0 1.74965e+06 4.1799e+06 0 1.95232e+06 3.94193e+06 0 2.09769e+06 3.67173e+06 0 2.18676e+06 3.39304e+06 0 2.22807e+06 3.1231e+06 0 2.23296e+06 2.87219e+06 0 2.21249e+06 2.645e+06 0 2.17595e+06 2.44247e+06 0 2.13046e+06 2.26333e+06 0 2.08107e+06 2.10534e+06 0 2.03116e+06 1.96592e+06 0 1.98287e+06 1.84265e+06 0 1.93749e+06 1.73336e+06 0 968640 4.22238e+06 0 1.19081e+06 4.14166e+06 0 1.41384e+06 3.98737e+06 0 1.60456e+06 3.76682e+06 0 1.74153e+06 3.5043e+06 0 1.82051e+06 3.2273e+06 0 1.84915e+06 2.95722e+06 0 1.84002e+06 2.70681e+06 0 1.80574e+06 2.48156e+06 0 1.75661e+06 2.28225e+06 0 1.70015e+06 2.10724e+06 0 1.64146e+06 1.95394e+06 0 1.58381e+06 1.81963e+06 0 1.52925e+06 1.70178e+06 0 1.47896e+06 1.59813e+06 0 1.4336e+06 1.50671e+06 0 909826 4.02881e+06 0 1.10734e+06 3.91002e+06 0 1.29462e+06 3.72213e+06 0 1.4414e+06 3.47829e+06 0 1.53242e+06 3.20531e+06 0 1.56928e+06 2.92956e+06 0 1.56333e+06 2.66904e+06 0 1.52829e+06 2.43263e+06 0 1.47608e+06 2.22279e+06 0 1.4156e+06 2.03845e+06 0 1.35284e+06 1.87703e+06 0 1.29162e+06 1.73552e+06 0 1.23416e+06 1.61098e+06 0 1.18158e+06 1.50075e+06 0 1.13428e+06 1.4025e+06 0 1.09216e+06 1.31432e+06 0 833975 3.88231e+06 0 1.00957e+06 3.73493e+06 0 1.16682e+06 3.52322e+06 0 1.27959e+06 3.26418e+06 0 1.33772e+06 2.9855e+06 0 1.34686e+06 2.7116e+06 0 1.32016e+06 2.45744e+06 0 1.27126e+06 2.22919e+06 0 1.21102e+06 2.02753e+06 0 1.147e+06 1.85042e+06 0 1.08395e+06 1.69486e+06 0 1.02453e+06 1.55774e+06 0 970014 1.43635e+06 0 920843 1.32849e+06 0 877023 1.23254e+06 0 838412 1.14725e+06 0 751526 3.76879e+06 0 906782 3.59846e+06 0 1.03869e+06 3.36816e+06 0 1.12464e+06 3.09749e+06 0 1.15865e+06 2.81412e+06 0 1.1491e+06 2.54053e+06 0 1.10987e+06 2.28925e+06 0 1.05401e+06 2.06464e+06 0 991258 1.8663e+06 0 927888 1.69173e+06 0 867510 1.53789e+06 0 811925 1.40188e+06 0 761870 1.28129e+06 0 717507 1.17404e+06 0 678660 1.07827e+06 0 644897 992185 0 666337 3.67941e+06 0 803011 3.48961e+06 0 913156 3.24347e+06 0 977587 2.96245e+06 0 993655 2.67386e+06 0 971517 2.3985e+06 0 925219 2.14714e+06 0 866948 1.92292e+06 0 805214 1.72487e+06 0 745137 1.55033e+06 0 689412 1.39635e+06 0 639229 1.26017e+06 0 594904 1.13935e+06 0 556232 1.03178e+06 0 522736 935751 0 493909 850029 0 580618 3.60847e+06 0 699896 3.40124e+06 0 791041 3.14053e+06 0 837961 2.8492e+06 0 840692 2.55422e+06 0 810520 2.27507e+06 0 761188 2.02133e+06 0 703822 1.79539e+06 0 645701 1.59597e+06 0 590888 1.42035e+06 0 541304 1.26557e+06 0 497580 1.12883e+06 0 459625 1.00765e+06 0 427019 899951 0 399263 803987 0 375841 718087 0 495291 3.55209e+06 0 598010 3.32856e+06 0 672268 3.05358e+06 0 704859 2.75126e+06 0 697962 2.44844e+06 0 663436 2.16377e+06 0 614334 1.90603e+06 0 560537 1.67718e+06 0 508069 1.47571e+06 0 460003 1.29876e+06 0 417541 1.14323e+06 0 380840 1.00618e+06 0 349567 885028 0 323212 777537 0 301200 681744 0 282983 596029 0 410792 3.50763e+06 0 497380 3.26824e+06 0 556399 2.97858e+06 0 577342 2.66414e+06 0 564035 2.35198e+06 0 528370 2.06039e+06 0 482311 1.7977e+06 0 434297 1.56551e+06 0 389072 1.362e+06 0 348763 1.18405e+06 0 313960 1.02825e+06 0 284494 891428 0 259890 770746 0 239579 663733 0 223021 568300 0 209776 482646 0 327228 3.47322e+06 0 397759 3.21788e+06 0 442857 2.91259e+06 0 454572 2.58458e+06 0 437855 2.26166e+06 0 404016 1.96218e+06 0 363490 1.69418e+06 0 323081 1.45882e+06 0 286247 1.2538e+06 0 254271 1.07551e+06 0 227283 920117 0 204919 784071 0 186648 664224 0 171949 557881 0 160377 462735 0 151562 376798 0 244545 3.44758e+06 0 298743 3.17572e+06 0 331028 2.85336e+06 0 335871 2.51011e+06 0 318697 2.17518e+06 0 289496 1.86731e+06 0 256695 1.5942e+06 0 225311 1.35633e+06 0 197584 1.15063e+06 0 174120 972819 0 154764 818505 0 139078 683696 0 126589 564918 0 116880 459195 0 109614 363980 0 104550 277103 0 162588 3.42984e+06 0 199835 3.14045e+06 0 220311 2.79911e+06 0 220730 2.43879e+06 0 206116 2.09088e+06 0 184230 1.77461e+06 0 161018 1.49709e+06 0 139658 1.2577e+06 0 121342 1.05232e+06 0 106224 875806 0 94035.6 723149 0 84400.4 589890 0 76969.4 472200 0 71460.9 366810 0 67674.5 270922 0 65480.8 182103 0 81150.8 3.4194e+06 0 100465 3.11103e+06 0 110140 2.74834e+06 0 108823 2.36905e+06 0 99897.2 2.00754e+06 0 87828.1 1.68341e+06 0 75690.5 1.40257e+06 0 64926.9 1.16285e+06 0 55957.9 958807 0 48732.6 784333 0 43045 633763 0 38676.3 502178 0 35444.2 385389 0 33218.1 279819 0 31915.3 182360 0 31496.8 90252.7 0 0 3.41596e+06 0 0 3.08668e+06 0 0 2.69973e+06 0 0 2.29959e+06 0 0 1.92434e+06 0 0 1.59339e+06 0 0 1.31065e+06 0 0 1.07188e+06 0 0 870120 0 0 698282 0 0 550062 0 0 420096 0 0 303835 0 0 197354 0 0 97168.4 0 0 63.3648 0 </DataArray> 
</PointData> 
<Points> 
<DataArray type="Float32" NumberOfComponents="3"> 
0.188003 0.0600498 0 0.188986 0.0599532 0 0.189973 0.059794 0 0.19096 0.0595711 0 0.191939 0.0592838 0 0.192905 0.0589322 0 0.193851 0.0585175 0 0.194772 0.0580413 0 0.195661 0.0575063 0 0.196513 0.0569157 0 0.197323 0.0562736 0 0.198086 0.0555845 0 0.198799 0.0548536 0 0.199458 0.0540861 0 0.200062 0.0532879 0 0.200608 0.0524645 0 0.188003 0.0635132 0 0.189752 0.063468 0 0.191523 0.0633592 0 0.193306 0.0631853 0 0.195092 0.0629455 0 0.19687 0.0626395 0 0.19863 0.0622681 0 0.200362 0.0618326 0 0.202055 0.0613352 0 0.2037 0.0607787 0 0.205288 0.0601666 0 0.206809 0.0595032 0 0.208257 0.058793 0 0.209625 0.0580411 0 0.210908 0.0572527 0 0.212101 0.0564336 0 0.188003 0.0669765 0 0.190517 0.0669762 0 0.193067 0.0669119 0 0.195641 0.066782 0 0.198226 0.0665853 0 0.200809 0.0663216 0 0.203374 0.0659911 0 0.20591 0.0655949 0 0.208401 0.0651347 0 0.210834 0.0646131 0 0.213198 0.0640331 0 0.21548 0.0633985 0 0.217669 0.0627133 0 0.219756 0.0619823 0 0.221733 0.0612103 0 0.223593 0.0604026 0 0.188002 0.0704399 0 0.19128 0.070478 0 0.194606 0.0704524 0 0.197965 0.0703613 0 0.201342 0.0702035 0 0.20472 0.0699786 0 0.208083 0.0696866 0 0.211414 0.0693283 0 0.214697 0.0689052 0 0.217916 0.0684193 0 0.221055 0.0678734 0 0.224099 0.0672705 0 0.227036 0.0666146 0 0.229852 0.0659098 0 0.232539 0.0651605 0 0.235086 0.0643716 0 0.188002 0.0739032 0 0.192042 0.0739733 0 0.19614 0.0739806 0 0.200278 0.0739233 0 0.204439 0.0738002 0 0.208605 0.0736108 0 0.212758 0.073355 0 0.216877 0.0730333 0 0.220946 0.072647 0 0.224946 0.0721976 0 0.228858 0.0716876 0 0.232667 0.0711197 0 0.236357 0.0704971 0 0.239914 0.0698237 0 0.243325 0.0691035 0 0.246579 0.0683407 0 0.188002 0.0773666 0 0.192803 0.0774622 0 0.197668 0.0774966 0 0.20258 0.0774681 0 0.207518 0.0773757 0 0.212464 0.0772185 0 0.217398 0.0769966 0 0.222299 0.0767102 0 0.227148 0.0763603 0 0.231924 0.0759483 0 0.236609 0.075476 0 0.241185 0.074946 0 0.245634 0.074361 0 0.24994 0.0737242 0 0.254091 0.0730391 0 0.258072 0.0723097 0 0.188002 0.0808299 0 0.193562 0.0809446 0 0.199191 0.0810005 0 0.20487 0.080996 0 0.210579 0.08093 0 0.216297 0.080802 0 0.222004 0.0806117 0 0.22768 0.0803593 0 0.233302 0.0800456 0 0.238851 0.0796716 0 0.244308 0.079239 0 0.249652 0.0787497 0 0.254866 0.0782062 0 0.259932 0.0776111 0 0.264837 0.0769675 0 0.269565 0.0762787 0 0.188002 0.0842933 0 0.19432 0.0844206 0 0.200709 0.0844923 0 0.20715 0.0845069 0 0.213621 0.0844635 0 0.220104 0.0843614 0 0.226577 0.0842005 0 0.233019 0.0839809 0 0.23941 0.083703 0 0.245729 0.0833679 0 0.251955 0.0829767 0 0.258069 0.0825311 0 0.264053 0.0820331 0 0.26989 0.0814847 0 0.275563 0.0808887 0 0.281058 0.0802478 0 0.188001 0.0877566 0 0.195077 0.0878903 0 0.202222 0.0879721 0 0.209418 0.088001 0 0.216646 0.0879762 0 0.223886 0.087897 0 0.231117 0.0877634 0 0.238319 0.0875753 0 0.245472 0.0873331 0 0.252556 0.0870375 0 0.259551 0.0866895 0 0.266437 0.0862904 0 0.273197 0.0858416 0 0.279813 0.085345 0 0.286269 0.0848027 0 0.29255 0.0842168 0 0.188001 0.0912199 0 0.195832 0.0913535 0 0.203729 0.09144 0 0.211676 0.0914785 0 0.219653 0.0914683 0 0.227642 0.0914091 0 0.235624 0.0913006 0 0.24358 0.0911428 0 0.251489 0.090936 0 0.259334 0.0906807 0 0.267096 0.0903775 0 0.274756 0.0900276 0 0.282297 0.089632 0 0.289703 0.0891921 0 0.296956 0.0887094 0 0.304043 0.0881858 0 0.188001 0.0946833 0 0.196586 0.0948104 0 0.205232 0.094896 0 0.213923 0.0949394 0 0.222643 0.0949402 0 0.231374 0.0948979 0 0.240099 0.0948124 0 0.248801 0.0946837 0 0.257461 0.094512 0 0.266064 0.0942976 0 0.274591 0.0940411 0 0.283027 0.093743 0 0.291354 0.0934043 0 0.299558 0.0930259 0 0.307623 0.092609 0 0.315536 0.0921548 0 0.188001 0.0981466 0 0.197338 0.0982609 0 0.206729 0.0983402 0 0.21616 0.0983839 0 0.225615 0.0983918 0 0.235081 0.0983636 0 0.244542 0.0982991 0 0.253983 0.0981984 0 0.263389 0.0980615 0 0.272745 0.0978888 0 0.282037 0.0976804 0 0.291249 0.0974369 0 0.300368 0.0971588 0 0.30938 0.0968467 0 0.318271 0.0965015 0 0.327029 0.0961239 0 0.188001 0.10161 0 0.198089 0.101705 0 0.208221 0.101773 0 0.218385 0.101812 0 0.22857 0.101823 0 0.238763 0.101806 0 0.248953 0.101761 0 0.259127 0.101687 0 0.269273 0.101585 0 0.279379 0.101454 0 0.289433 0.101296 0 0.299424 0.101109 0 0.309339 0.100895 0 0.319168 0.100654 0 0.328899 0.100387 0 0.338522 0.100093 0 0.188 0.105073 0 0.198838 0.105143 0 0.209708 0.105193 0 0.220601 0.105224 0 0.231508 0.105235 0 0.242422 0.105227 0 0.253333 0.105198 0 0.264233 0.10515 0 0.275114 0.105082 0 0.285966 0.104994 0 0.296781 0.104887 0 0.307552 0.104761 0 0.318268 0.104614 0 0.328923 0.104449 0 0.339508 0.104265 0 0.350014 0.104062 0 0.188 0.108537 0 0.199587 0.108575 0 0.21119 0.108602 0 0.222805 0.10862 0 0.234429 0.108627 0 0.246056 0.108624 0 0.257682 0.108611 0 0.269302 0.108588 0 0.280911 0.108554 0 0.292506 0.10851 0 0.304081 0.108455 0 0.315632 0.108391 0 0.327155 0.108316 0 0.338645 0.108231 0 0.350097 0.108136 0 0.361507 0.108031 0 0.188 0.112 0 0.200333 0.112 0 0.212667 0.112 0 0.225 0.112 0 0.237333 0.112 0 0.249667 0.112 0 0.262 0.112 0 0.274333 0.112 0 0.286667 0.112 0 0.299 0.112 0 0.311333 0.112 0 0.323667 0.112 0 0.336 0.112 0 0.348333 0.112 0 0.360667 0.112 0 0.373 0.112 0 
</DataArray>
</Points> 
</Piece> 
</StructuredGrid> 
</VTKFile> 
