<?xml version="1.0"?> 
<VTKFile type="StructuredGrid" version="0.1"> 
<StructuredGrid WholeExtent="0 15 0 15 0 0"> 
<Piece Extent="0 15 0 15 0 0"> 
<PointData>
<DataArray type="Float32" Name="|E|" format="ascii" NumberOfComponents="3"> 
299956 4.54946e+06 0 302181 4.57603e+06 0 304533 4.60444e+06 0 307032 4.63497e+06 0 309697 4.66792e+06 0 312554 4.70366e+06 0 315633 4.74263e+06 0 318974 4.78541e+06 0 322628 4.83273e+06 0 326661 4.8856e+06 0 331167 4.94536e+06 0 336277 5.01394e+06 0 342179 5.09411e+06 0 349150 5.18992e+06 0 357608 5.30752e+06 0 368192 5.45626e+06 0 477066 4.47446e+06 0 490511 4.4941e+06 0 505134 4.51479e+06 0 521086 4.53656e+06 0 538538 4.55946e+06 0 557691 4.58351e+06 0 578775 4.60876e+06 0 602056 4.6352e+06 0 627839 4.66282e+06 0 656467 4.69155e+06 0 688315 4.72125e+06 0 723776 4.75166e+06 0 763223 4.78238e+06 0 806939 4.81271e+06 0 854987 4.84155e+06 0 906987 4.86719e+06 0 586061 4.34618e+06 0 603404 4.35668e+06 0 621813 4.36736e+06 0 641355 4.37818e+06 0 662104 4.38909e+06 0 684132 4.40002e+06 0 707513 4.4109e+06 0 732322 4.42164e+06 0 758628 4.43214e+06 0 786501 4.44226e+06 0 816012 4.45188e+06 0 847237 4.46084e+06 0 880281 4.46898e+06 0 915309 4.47615e+06 0 952616 4.4822e+06 0 992743 4.48707e+06 0 632369 4.20929e+06 0 649337 4.21285e+06 0 667027 4.21625e+06 0 685462 4.21945e+06 0 704666 4.2224e+06 0 724662 4.22507e+06 0 745467 4.22739e+06 0 767099 4.22931e+06 0 789567 4.23077e+06 0 812878 4.2317e+06 0 837025 4.23205e+06 0 861986 4.23173e+06 0 887709 4.23068e+06 0 914088 4.22881e+06 0 940926 4.22607e+06 0 967863 4.22238e+06 0 635687 4.08376e+06 0 650799 4.08278e+06 0 666371 4.08156e+06 0 682405 4.08005e+06 0 698904 4.07824e+06 0 715868 4.07609e+06 0 733295 4.07356e+06 0 751181 4.07064e+06 0 769518 4.06729e+06 0 788299 4.06347e+06 0 807515 4.05915e+06 0 827161 4.0543e+06 0 847239 4.04888e+06 0 867773 4.04286e+06 0 888828 4.03619e+06 0 910545 4.02882e+06 0 611677 3.9749e+06 0 624659 3.97107e+06 0 637930 3.96698e+06 0 651487 3.96262e+06 0 665328 3.95796e+06 0 679450 3.953e+06 0 693848 3.9477e+06 0 708516 3.94206e+06 0 723447 3.93605e+06 0 738633 3.92966e+06 0 754063 3.92286e+06 0 769720 3.91565e+06 0 785584 3.90799e+06 0 801619 3.89989e+06 0 817767 3.89132e+06 0 833928 3.88231e+06 0 570696 3.8827e+06 0 581662 3.87707e+06 0 592809 3.8712e+06 0 604134 3.86509e+06 0 615632 3.85872e+06 0 627300 3.85209e+06 0 639130 3.84517e+06 0 651116 3.83797e+06 0 663252 3.83047e+06 0 675529 3.82267e+06 0 687940 3.81454e+06 0 700477 3.80609e+06 0 713135 3.7973e+06 0 725913 3.78817e+06 0 738819 3.77867e+06 0 751882 3.76879e+06 0 519170 3.80551e+06 0 528340 3.79875e+06 0 537623 3.79178e+06 0 547017 3.7846e+06 0 556518 3.77719e+06 0 566122 3.76956e+06 0 575824 3.76169e+06 0 585619 3.75358e+06 0 595502 3.74523e+06 0 605467 3.73662e+06 0 615508 3.72776e+06 0 625617 3.71863e+06 0 635786 3.70924e+06 0 646002 3.69957e+06 0 656250 3.68962e+06 0 666503 3.67941e+06 0 461124 3.74147e+06 0 468716 3.734e+06 0 476380 3.72634e+06 0 484113 3.71849e+06 0 491910 3.71045e+06 0 499770 3.70222e+06 0 507688 3.69379e+06 0 515660 3.68516e+06 0 523681 3.67633e+06 0 531748 3.66729e+06 0 539856 3.65803e+06 0 547999 3.64856e+06 0 556174 3.63888e+06 0 564377 3.62897e+06 0 572606 3.61884e+06 0 580863 3.60847e+06 0 399070 3.68889e+06 0 405274 3.68097e+06 0 411523 3.67288e+06 0 417814 3.66463e+06 0 424144 3.65621e+06 0 430511 3.64763e+06 0 436912 3.63888e+06 0 443345 3.62995e+06 0 449804 3.62085e+06 0 456289 3.61157e+06 0 462794 3.60211e+06 0 469317 3.59247e+06 0 475853 3.58265e+06 0 482398 3.57265e+06 0 488947 3.56246e+06 0 495492 3.55209e+06 0 334593 3.6464e+06 0 339561 3.63819e+06 0 344557 3.62984e+06 0 349577 3.62135e+06 0 354621 3.61271e+06 0 359686 3.60392e+06 0 364771 3.59498e+06 0 369872 3.58589e+06 0 374987 3.57665e+06 0 380115 3.56726e+06 0 385252 3.55771e+06 0 390396 3.54801e+06 0 395544 3.53815e+06 0 400694 3.52813e+06 0 405844 3.51796e+06 0 410990 3.50763e+06 0 268689 3.61291e+06 0 272538 3.60453e+06 0 276403 3.59603e+06 0 280283 3.58739e+06 0 284176 3.57862e+06 0 288081 3.56972e+06 0 291997 3.56068e+06 0 295921 3.55151e+06 0 299851 3.5422e+06 0 303787 3.53276e+06 0 307726 3.52318e+06 0 311667 3.51346e+06 0 315607 3.50361e+06 0 319545 3.49361e+06 0 323478 3.48349e+06 0 327405 3.47322e+06 0 201974 3.58762e+06 0 204791 3.57914e+06 0 207617 3.57055e+06 0 210451 3.56183e+06 0 213293 3.55299e+06 0 216141 3.54403e+06 0 218993 3.53494e+06 0 221850 3.52573e+06 0 224710 3.5164e+06 0 227571 3.50694e+06 0 230432 3.49736e+06 0 233292 3.48765e+06 0 236150 3.47782e+06 0 239005 3.46787e+06 0 241854 3.45779e+06 0 244697 3.44758e+06 0 134823 3.56994e+06 0 136669 3.56141e+06 0 138519 3.55277e+06 0 140374 3.54401e+06 0 142233 3.53513e+06 0 144094 3.52614e+06 0 145958 3.51703e+06 0 147823 3.5078e+06 0 149689 3.49846e+06 0 151555 3.48901e+06 0 153421 3.47943e+06 0 155285 3.46975e+06 0 157146 3.45994e+06 0 159004 3.45002e+06 0 160859 3.43999e+06 0 162709 3.42984e+06 0 67454.8 3.55949e+06 0 68368.3 3.55093e+06 0 69283.9 3.54226e+06 0 70201.3 3.53348e+06 0 71120.2 3.52459e+06 0 72040.2 3.51558e+06 0 72961.1 3.50646e+06 0 73882.3 3.49724e+06 0 74803.8 3.4879e+06 0 75724.9 3.47844e+06 0 76645.5 3.46888e+06 0 77565 3.45921e+06 0 78483.2 3.44942e+06 0 79399.5 3.43953e+06 0 80313.5 3.42952e+06 0 81224.4 3.4194e+06 0 0 3.55603e+06 0 0 3.54747e+06 0 0 3.53879e+06 0 0 3.53e+06 0 0 3.5211e+06 0 0 3.51209e+06 0 0 3.50297e+06 0 0 3.49375e+06 0 0 3.48441e+06 0 0 3.47496e+06 0 0 3.4654e+06 0 0 3.45573e+06 0 0 3.44595e+06 0 0 3.43606e+06 0 0 3.42607e+06 0 0 3.41596e+06 0 </DataArray> 
</PointData> 
<Points> 
<DataArray type="Float32" NumberOfComponents="3"> 
0.181504 0.0604834 0 0.181936 0.0604548 0 0.182369 0.0604262 0 0.182802 0.0603976 0 0.183235 0.0603689 0 0.183669 0.0603401 0 0.184102 0.0603113 0 0.184535 0.0602824 0 0.184968 0.0602535 0 0.185402 0.0602246 0 0.185835 0.0601956 0 0.186269 0.0601665 0 0.186702 0.0601374 0 0.187136 0.0601083 0 0.187569 0.0600791 0 0.188003 0.0600498 0 0.181503 0.0639178 0 0.181936 0.0638912 0 0.182369 0.0638645 0 0.182802 0.0638377 0 0.183235 0.0638109 0 0.183668 0.0637841 0 0.184102 0.0637572 0 0.184535 0.0637303 0 0.184968 0.0637033 0 0.185402 0.0636763 0 0.185835 0.0636492 0 0.186268 0.0636221 0 0.186702 0.0635949 0 0.187136 0.0635677 0 0.187569 0.0635405 0 0.188003 0.0635132 0 0.181503 0.0673523 0 0.181936 0.0673275 0 0.182369 0.0673027 0 0.182802 0.0672779 0 0.183235 0.067253 0 0.183668 0.0672281 0 0.184102 0.0672031 0 0.184535 0.0671781 0 0.184968 0.0671531 0 0.185401 0.067128 0 0.185835 0.0671028 0 0.186268 0.0670777 0 0.186702 0.0670524 0 0.187135 0.0670272 0 0.187569 0.0670019 0 0.188003 0.0669765 0 0.181503 0.0707867 0 0.181936 0.0707639 0 0.182369 0.070741 0 0.182802 0.0707181 0 0.183235 0.0706951 0 0.183668 0.0706721 0 0.184101 0.070649 0 0.184535 0.070626 0 0.184968 0.0706028 0 0.185401 0.0705797 0 0.185835 0.0705565 0 0.186268 0.0705332 0 0.186702 0.0705099 0 0.187135 0.0704866 0 0.187569 0.0704633 0 0.188002 0.0704399 0 0.181503 0.0742212 0 0.181936 0.0742002 0 0.182369 0.0741792 0 0.182802 0.0741582 0 0.183235 0.0741372 0 0.183668 0.0741161 0 0.184101 0.074095 0 0.184535 0.0740738 0 0.184968 0.0740526 0 0.185401 0.0740314 0 0.185835 0.0740101 0 0.186268 0.0739888 0 0.186702 0.0739675 0 0.187135 0.0739461 0 0.187569 0.0739247 0 0.188002 0.0739032 0 0.181502 0.0776556 0 0.181935 0.0776366 0 0.182368 0.0776175 0 0.182802 0.0775984 0 0.183235 0.0775792 0 0.183668 0.0775601 0 0.184101 0.0775409 0 0.184534 0.0775216 0 0.184968 0.0775024 0 0.185401 0.0774831 0 0.185834 0.0774637 0 0.186268 0.0774444 0 0.186701 0.077425 0 0.187135 0.0774055 0 0.187568 0.0773861 0 0.188002 0.0773666 0 0.181502 0.08109 0 0.181935 0.0810729 0 0.182368 0.0810557 0 0.182801 0.0810385 0 0.183235 0.0810213 0 0.183668 0.0810041 0 0.184101 0.0809868 0 0.184534 0.0809695 0 0.184968 0.0809521 0 0.185401 0.0809348 0 0.185834 0.0809174 0 0.186268 0.0808999 0 0.186701 0.0808825 0 0.187135 0.080865 0 0.187568 0.0808475 0 0.188002 0.0808299 0 0.181502 0.0845245 0 0.181935 0.0845093 0 0.182368 0.084494 0 0.182801 0.0844787 0 0.183234 0.0844634 0 0.183668 0.0844481 0 0.184101 0.0844327 0 0.184534 0.0844173 0 0.184968 0.0844019 0 0.185401 0.0843864 0 0.185834 0.084371 0 0.186268 0.0843555 0 0.186701 0.08434 0 0.187135 0.0843244 0 0.187568 0.0843088 0 0.188002 0.0842933 0 0.181502 0.0879589 0 0.181935 0.0879456 0 0.182368 0.0879322 0 0.182801 0.0879189 0 0.183234 0.0879055 0 0.183668 0.087892 0 0.184101 0.0878786 0 0.184534 0.0878651 0 0.184967 0.0878517 0 0.185401 0.0878381 0 0.185834 0.0878246 0 0.186268 0.087811 0 0.186701 0.0877975 0 0.187134 0.0877839 0 0.187568 0.0877702 0 0.188001 0.0877566 0 0.181501 0.0913934 0 0.181935 0.0913819 0 0.182368 0.0913705 0 0.182801 0.091359 0 0.183234 0.0913475 0 0.183667 0.091336 0 0.184101 0.0913245 0 0.184534 0.091313 0 0.184967 0.0913014 0 0.185401 0.0912898 0 0.185834 0.0912782 0 0.186267 0.0912666 0 0.186701 0.091255 0 0.187134 0.0912433 0 0.187568 0.0912316 0 0.188001 0.0912199 0 0.181501 0.0948278 0 0.181934 0.0948183 0 0.182368 0.0948087 0 0.182801 0.0947992 0 0.183234 0.0947896 0 0.183667 0.09478 0 0.184101 0.0947704 0 0.184534 0.0947608 0 0.184967 0.0947512 0 0.185401 0.0947415 0 0.185834 0.0947319 0 0.186267 0.0947222 0 0.186701 0.0947125 0 0.187134 0.0947028 0 0.187568 0.094693 0 0.188001 0.0946833 0 0.181501 0.0982622 0 0.181934 0.0982546 0 0.182367 0.098247 0 0.182801 0.0982394 0 0.183234 0.0982317 0 0.183667 0.098224 0 0.1841 0.0982163 0 0.184534 0.0982087 0 0.184967 0.0982009 0 0.1854 0.0981932 0 0.185834 0.0981855 0 0.186267 0.0981777 0 0.186701 0.09817 0 0.187134 0.0981622 0 0.187567 0.0981544 0 0.188001 0.0981466 0 0.181501 0.101697 0 0.181934 0.101691 0 0.182367 0.101685 0 0.1828 0.10168 0 0.183234 0.101674 0 0.183667 0.101668 0 0.1841 0.101662 0 0.184534 0.101656 0 0.184967 0.101651 0 0.1854 0.101645 0 0.185834 0.101639 0 0.186267 0.101633 0 0.1867 0.101627 0 0.187134 0.101622 0 0.187567 0.101616 0 0.188001 0.10161 0 0.1815 0.105131 0 0.181934 0.105127 0 0.182367 0.105123 0 0.1828 0.10512 0 0.183234 0.105116 0 0.183667 0.105112 0 0.1841 0.105108 0 0.184534 0.105104 0 0.184967 0.1051 0 0.1854 0.105097 0 0.185834 0.105093 0 0.186267 0.105089 0 0.1867 0.105085 0 0.187134 0.105081 0 0.187567 0.105077 0 0.188 0.105073 0 0.1815 0.108566 0 0.181934 0.108564 0 0.182367 0.108562 0 0.1828 0.10856 0 0.183233 0.108558 0 0.183667 0.108556 0 0.1841 0.108554 0 0.184533 0.108552 0 0.184967 0.10855 0 0.1854 0.108548 0 0.185833 0.108546 0 0.186267 0.108544 0 0.1867 0.108542 0 0.187133 0.108541 0 0.187567 0.108539 0 0.188 0.108537 0 0.1815 0.112 0 0.181933 0.112 0 0.182367 0.112 0 0.1828 0.112 0 0.183233 0.112 0 0.183667 0.112 0 0.1841 0.112 0 0.184533 0.112 0 0.184967 0.112 0 0.1854 0.112 0 0.185833 0.112 0 0.186267 0.112 0 0.1867 0.112 0 0.187133 0.112 0 0.187567 0.112 0 0.188 0.112 0 
</DataArray>
</Points> 
</Piece> 
</StructuredGrid> 
</VTKFile> 
