<?xml version="1.0"?> 
<VTKFile type="StructuredGrid" version="0.1"> 
<StructuredGrid WholeExtent="0 15 0 15 0 0"> 
<Piece Extent="0 15 0 15 0 0"> 
<PointData>
<DataArray type="Float32" Name="|E|" format="ascii" NumberOfComponents="3"> 
-6.38352e+06 0 0 -3.16208e+06 567774 0 -3.06262e+06 400986 0 -2.97016e+06 102440 0 -2.94378e+06 152480 0 -2.96235e+06 113881 0 -2.99608e+06 165394 0 -3.06065e+06 195278 0 -3.14218e+06 245913 0 -3.24944e+06 291993 0 -3.37923e+06 338388 0 -3.53625e+06 374082 0 -3.71928e+06 384696 0 -3.91953e+06 342909 0 -4.09748e+06 213708 0 -4.17482e+06 -3.57628e-07 0 -5.21007e+06 0 0 -3.36021e+06 547746 0 -3.08867e+06 302665 0 -2.98227e+06 133533 0 -2.94807e+06 129574 0 -2.95549e+06 129351 0 -2.99076e+06 169322 0 -3.05096e+06 211081 0 -3.13358e+06 262502 0 -3.23975e+06 314397 0 -3.37103e+06 365136 0 -3.53069e+06 406277 0 -3.72083e+06 421955 0 -3.93482e+06 381734 0 -4.13253e+06 242087 0 -4.22132e+06 1.48313e-07 0 -4.57621e+06 0 0 -3.45659e+06 465806 0 -3.11832e+06 244659 0 -2.99303e+06 134767 0 -2.94863e+06 119596 0 -2.94967e+06 136811 0 -2.9832e+06 176449 0 -3.04138e+06 225053 0 -3.12364e+06 279713 0 -3.22948e+06 336589 0 -3.36169e+06 392261 0 -3.52414e+06 439311 0 -3.72143e+06 461082 0 -3.95048e+06 424123 0 -4.17144e+06 274447 0 -4.2745e+06 -1.76951e-07 0 -4.22089e+06 0 0 -3.50136e+06 369174 0 -3.14521e+06 199401 0 -3.00126e+06 123102 0 -2.94697e+06 113659 0 -2.94335e+06 140962 0 -2.97438e+06 184502 0 -3.03123e+06 238262 0 -3.11273e+06 297082 0 -3.2184e+06 358724 0 -3.35126e+06 419686 0 -3.51637e+06 473170 0 -3.72083e+06 502169 0 -3.96616e+06 470492 0 -4.21451e+06 311711 0 -4.33558e+06 2.44938e-07 0 -4.01491e+06 0 0 -3.52056e+06 275810 0 -3.16678e+06 156307 0 -3.00643e+06 105625 0 -2.94348e+06 108322 0 -2.93598e+06 143688 0 -2.96458e+06 192622 0 -3.02028e+06 251117 0 -3.10097e+06 314427 0 -3.20638e+06 380845 0 -3.33971e+06 447351 0 -3.50724e+06 507819 0 -3.71872e+06 545263 0 -3.98138e+06 521286 0 -4.26203e+06 355051 0 -4.40609e+06 -3.50177e-07 0 -3.89332e+06 0 0 -3.52794e+06 190615 0 -3.18229e+06 111914 0 -3.00825e+06 85184.6 0 -2.93815e+06 102460 0 -2.92739e+06 145705 0 -2.95386e+06 200532 0 -3.00847e+06 263760 0 -3.08836e+06 331682 0 -3.19341e+06 402945 0 -3.32699e+06 475202 0 -3.49657e+06 543200 0 -3.71478e+06 590369 0 -3.99554e+06 576941 0 -4.31426e+06 405962 0 -4.48812e+06 3.42727e-07 0 -3.82314e+06 0 0 -3.53088e+06 113196 0 -3.19173e+06 65357.7 0 -3.00647e+06 62976.2 0 -2.93087e+06 95857.2 0 -2.91751e+06 147291 0 -2.9422e+06 208170 0 -2.99577e+06 276240 0 -3.07489e+06 348822 0 -3.17944e+06 425001 0 -3.31304e+06 503176 0 -3.48421e+06 579225 0 -3.70863e+06 637441 0 -4.00781e+06 637842 0 -4.37136e+06 466371 0 -4.58448e+06 -1.3411e-07 0 -3.78746e+06 0 0 -3.53337e+06 41167.1 0 -3.19534e+06 16556.2 0 -3.0009e+06 39594 0 -2.92154e+06 88636.6 0 -2.90633e+06 148571 0 -2.92956e+06 215550 0 -2.98218e+06 288573 0 -3.06056e+06 365835 0 -3.16448e+06 446976 0 -3.2978e+06 531205 0 -3.47001e+06 615775 0 -3.69988e+06 686384 0 -4.01717e+06 704253 0 -4.4333e+06 538774 0 -4.69913e+06 -1.19209e-07 0 -3.77796e+06 0 0 -3.53759e+06 -28545.3 0 -3.19325e+06 -34448.3 0 -2.99134e+06 15449.7 0 -2.91009e+06 81041.9 0 -2.89384e+06 149625 0 -2.91593e+06 222707 0 -2.9677e+06 300767 0 -3.04535e+06 382713 0 -3.14852e+06 468832 0 -3.28125e+06 559213 0 -3.45383e+06 652694 0 -3.68817e+06 737046 0 -4.02228e+06 776224 0 -4.49968e+06 626391 0 -4.83788e+06 1.3411e-07 0 -3.79124e+06 0 0 -3.54463e+06 -99250.1 0 -3.18536e+06 -87681.4 0 -2.97758e+06 -9059.89 0 -2.8965e+06 73357.8 0 -2.88006e+06 150524 0 -2.90128e+06 229682 0 -2.95233e+06 312833 0 -3.02927e+06 399451 0 -3.13155e+06 490521 0 -3.26334e+06 587123 0 -3.43555e+06 689782 0 -3.67313e+06 789230 0 -4.02152e+06 853464 0 -4.56941e+06 733327 0 -5.00959e+06 -2.16067e-07 0 -3.82729e+06 0 0 -3.55489e+06 -174438 0 -3.17126e+06 -143231 0 -2.95943e+06 -33484.3 0 -2.8808e+06 65885.4 0 -2.86502e+06 151328 0 -2.8856e+06 236512 0 -2.93608e+06 324782 0 -3.01232e+06 416044 0 -3.11358e+06 511996 0 -3.24405e+06 614849 0 -3.41505e+06 726801 0 -3.65449e+06 842691 0 -4.01294e+06 935205 0 -4.64016e+06 864673 0 -5.22842e+06 3.12924e-07 0 -3.8892e+06 0 0 -3.56813e+06 -257862 0 -3.15015e+06 -201175 0 -2.9367e+06 -57274.9 0 -2.86308e+06 58930.3 0 -2.84876e+06 152091 0 -2.86888e+06 243231 0 -2.91895e+06 336631 0 -2.99449e+06 432483 0 -3.09464e+06 533213 0 -3.22338e+06 642289 0 -3.39224e+06 763508 0 -3.63207e+06 897088 0 -3.99437e+06 1.02013e+06 0 -4.70735e+06 1.02636e+06 0 -5.51806e+06 -1.78814e-07 0 -3.9839e+06 0 0 -3.58329e+06 -353630 0 -3.12082e+06 -261514 0 -2.90923e+06 -79730.5 0 -2.84349e+06 52785.9 0 -2.83134e+06 152856 0 -2.8511e+06 249864 0 -2.90096e+06 348409 0 -2.97581e+06 448743 0 -3.07475e+06 554164 0 -3.20134e+06 669259 0 -3.36704e+06 799776 0 -3.60582e+06 951790 0 -3.96365e+06 1.10658e+06 0 -4.76225e+06 1.22436e+06 0 -5.92003e+06 1.63913e-07 0 -4.12442e+06 0 0 -3.59804e+06 -466155 0 -3.08164e+06 -324160 0 -2.87692e+06 -99890 0 -2.82228e+06 47684.5 0 -2.81284e+06 153667 0 -2.83225e+06 256412 0 -2.88212e+06 360181 0 -2.95631e+06 464738 0 -3.05391e+06 574976 0 -3.17803e+06 695307 0 -3.3393e+06 835963 0 -3.57592e+06 1.00524e+06 0 -3.91921e+06 1.19354e+06 0 -4.78848e+06 1.46225e+06 0 -6.51023e+06 -1.93715e-07 0 -4.33448e+06 0 0 -3.60779e+06 -599692 0 -3.03067e+06 -389149 0 -2.83976e+06 -116283 0 -2.79976e+06 43667.1 0 -2.79337e+06 154626 0 -2.81232e+06 262804 0 -2.86241e+06 372115 0 -2.9361e+06 480192 0 -3.03199e+06 596171 0 -3.15377e+06 719190 0 -3.30865e+06 873917 0 -3.54283e+06 1.05317e+06 0 -3.86125e+06 1.2838e+06 0 -4.75537e+06 1.73495e+06 0 -7.432e+06 1.49012e-07 0 -4.65807e+06 0 0 -3.60375e+06 -756864 0 -2.96583e+06 -457384 0 -2.79795e+06 -126401 0 -2.77633e+06 40274.4 0 -2.77303e+06 156041 0 -2.79132e+06 268779 0 -2.84169e+06 384646 0 -2.91559e+06 494327 0 -3.00841e+06 619304 0 -3.12957e+06 737618 0 -3.27395e+06 919377 0 -3.50752e+06 1.08428e+06 0 -3.79407e+06 1.39168e+06 0 -4.60505e+06 2.01455e+06 0 -8.96422e+06 -3.57628e-07 0 </DataArray> 
</PointData> 
<Points> 
<DataArray type="Float32" NumberOfComponents="3"> 
0.016 0.01 0 0.0199333 0.01 0 0.0238667 0.01 0 0.0278 0.01 0 0.0317333 0.01 0 0.0356667 0.01 0 0.0396 0.01 0 0.0435333 0.01 0 0.0474667 0.01 0 0.0514 0.01 0 0.0553333 0.01 0 0.0592667 0.01 0 0.0632 0.01 0 0.0671333 0.01 0 0.0710667 0.01 0 0.075 0.01 0 0.016 0.0107333 0 0.0199333 0.0107333 0 0.0238667 0.0107333 0 0.0278 0.0107333 0 0.0317333 0.0107333 0 0.0356667 0.0107333 0 0.0396 0.0107333 0 0.0435333 0.0107333 0 0.0474667 0.0107333 0 0.0514 0.0107333 0 0.0553333 0.0107333 0 0.0592667 0.0107333 0 0.0632 0.0107333 0 0.0671333 0.0107333 0 0.0710667 0.0107333 0 0.075 0.0107333 0 0.016 0.0114667 0 0.0199333 0.0114667 0 0.0238667 0.0114667 0 0.0278 0.0114667 0 0.0317333 0.0114667 0 0.0356667 0.0114667 0 0.0396 0.0114667 0 0.0435333 0.0114667 0 0.0474667 0.0114667 0 0.0514 0.0114667 0 0.0553333 0.0114667 0 0.0592667 0.0114667 0 0.0632 0.0114667 0 0.0671333 0.0114667 0 0.0710667 0.0114667 0 0.075 0.0114667 0 0.016 0.0122 0 0.0199333 0.0122 0 0.0238667 0.0122 0 0.0278 0.0122 0 0.0317333 0.0122 0 0.0356667 0.0122 0 0.0396 0.0122 0 0.0435333 0.0122 0 0.0474667 0.0122 0 0.0514 0.0122 0 0.0553333 0.0122 0 0.0592667 0.0122 0 0.0632 0.0122 0 0.0671333 0.0122 0 0.0710667 0.0122 0 0.075 0.0122 0 0.016 0.0129333 0 0.0199333 0.0129333 0 0.0238667 0.0129333 0 0.0278 0.0129333 0 0.0317333 0.0129333 0 0.0356667 0.0129333 0 0.0396 0.0129333 0 0.0435333 0.0129333 0 0.0474667 0.0129333 0 0.0514 0.0129333 0 0.0553333 0.0129333 0 0.0592667 0.0129333 0 0.0632 0.0129333 0 0.0671333 0.0129333 0 0.0710667 0.0129333 0 0.075 0.0129333 0 0.016 0.0136667 0 0.0199333 0.0136667 0 0.0238667 0.0136667 0 0.0278 0.0136667 0 0.0317333 0.0136667 0 0.0356667 0.0136667 0 0.0396 0.0136667 0 0.0435333 0.0136667 0 0.0474667 0.0136667 0 0.0514 0.0136667 0 0.0553333 0.0136667 0 0.0592667 0.0136667 0 0.0632 0.0136667 0 0.0671333 0.0136667 0 0.0710667 0.0136667 0 0.075 0.0136667 0 0.016 0.0144 0 0.0199333 0.0144 0 0.0238667 0.0144 0 0.0278 0.0144 0 0.0317333 0.0144 0 0.0356667 0.0144 0 0.0396 0.0144 0 0.0435333 0.0144 0 0.0474667 0.0144 0 0.0514 0.0144 0 0.0553333 0.0144 0 0.0592667 0.0144 0 0.0632 0.0144 0 0.0671333 0.0144 0 0.0710667 0.0144 0 0.075 0.0144 0 0.016 0.0151333 0 0.0199333 0.0151333 0 0.0238667 0.0151333 0 0.0278 0.0151333 0 0.0317333 0.0151333 0 0.0356667 0.0151333 0 0.0396 0.0151333 0 0.0435333 0.0151333 0 0.0474667 0.0151333 0 0.0514 0.0151333 0 0.0553333 0.0151333 0 0.0592667 0.0151333 0 0.0632 0.0151333 0 0.0671333 0.0151333 0 0.0710667 0.0151333 0 0.075 0.0151333 0 0.016 0.0158667 0 0.0199333 0.0158667 0 0.0238667 0.0158667 0 0.0278 0.0158667 0 0.0317333 0.0158667 0 0.0356667 0.0158667 0 0.0396 0.0158667 0 0.0435333 0.0158667 0 0.0474667 0.0158667 0 0.0514 0.0158667 0 0.0553333 0.0158667 0 0.0592667 0.0158667 0 0.0632 0.0158667 0 0.0671333 0.0158667 0 0.0710667 0.0158667 0 0.075 0.0158667 0 0.016 0.0166 0 0.0199333 0.0166 0 0.0238667 0.0166 0 0.0278 0.0166 0 0.0317333 0.0166 0 0.0356667 0.0166 0 0.0396 0.0166 0 0.0435333 0.0166 0 0.0474667 0.0166 0 0.0514 0.0166 0 0.0553333 0.0166 0 0.0592667 0.0166 0 0.0632 0.0166 0 0.0671333 0.0166 0 0.0710667 0.0166 0 0.075 0.0166 0 0.016 0.0173333 0 0.0199333 0.0173333 0 0.0238667 0.0173333 0 0.0278 0.0173333 0 0.0317333 0.0173333 0 0.0356667 0.0173333 0 0.0396 0.0173333 0 0.0435333 0.0173333 0 0.0474667 0.0173333 0 0.0514 0.0173333 0 0.0553333 0.0173333 0 0.0592667 0.0173333 0 0.0632 0.0173333 0 0.0671333 0.0173333 0 0.0710667 0.0173333 0 0.075 0.0173333 0 0.016 0.0180667 0 0.0199333 0.0180667 0 0.0238667 0.0180667 0 0.0278 0.0180667 0 0.0317333 0.0180667 0 0.0356667 0.0180667 0 0.0396 0.0180667 0 0.0435333 0.0180667 0 0.0474667 0.0180667 0 0.0514 0.0180667 0 0.0553333 0.0180667 0 0.0592667 0.0180667 0 0.0632 0.0180667 0 0.0671333 0.0180667 0 0.0710667 0.0180667 0 0.075 0.0180667 0 0.016 0.0188 0 0.0199333 0.0188 0 0.0238667 0.0188 0 0.0278 0.0188 0 0.0317333 0.0188 0 0.0356667 0.0188 0 0.0396 0.0188 0 0.0435333 0.0188 0 0.0474667 0.0188 0 0.0514 0.0188 0 0.0553333 0.0188 0 0.0592667 0.0188 0 0.0632 0.0188 0 0.0671333 0.0188 0 0.0710667 0.0188 0 0.075 0.0188 0 0.016 0.0195333 0 0.0199333 0.0195333 0 0.0238667 0.0195333 0 0.0278 0.0195333 0 0.0317333 0.0195333 0 0.0356667 0.0195333 0 0.0396 0.0195333 0 0.0435333 0.0195333 0 0.0474667 0.0195333 0 0.0514 0.0195333 0 0.0553333 0.0195333 0 0.0592667 0.0195333 0 0.0632 0.0195333 0 0.0671333 0.0195333 0 0.0710667 0.0195333 0 0.075 0.0195333 0 0.016 0.0202667 0 0.0199333 0.0202667 0 0.0238667 0.0202667 0 0.0278 0.0202667 0 0.0317333 0.0202667 0 0.0356667 0.0202667 0 0.0396 0.0202667 0 0.0435333 0.0202667 0 0.0474667 0.0202667 0 0.0514 0.0202667 0 0.0553333 0.0202667 0 0.0592667 0.0202667 0 0.0632 0.0202667 0 0.0671333 0.0202667 0 0.0710667 0.0202667 0 0.075 0.0202667 0 0.016 0.021 0 0.0199333 0.021 0 0.0238667 0.021 0 0.0278 0.021 0 0.0317333 0.021 0 0.0356667 0.021 0 0.0396 0.021 0 0.0435333 0.021 0 0.0474667 0.021 0 0.0514 0.021 0 0.0553333 0.021 0 0.0592667 0.021 0 0.0632 0.021 0 0.0671333 0.021 0 0.0710667 0.021 0 0.075 0.021 0 
</DataArray>
</Points> 
</Piece> 
</StructuredGrid> 
</VTKFile> 
