<?xml version="1.0"?> 
<VTKFile type="StructuredGrid" version="0.1"> 
<StructuredGrid WholeExtent="0 15 0 15 0 0"> 
<Piece Extent="0 15 0 15 0 0"> 
<PointData>
<DataArray type="Float32" Name="|E|" format="ascii" NumberOfComponents="3"> 
0 0 0 0 -20668.5 0 0 -41235.7 0 0 -61595.4 0 0 -81631.9 0 0 -101213 0 0 -120183 0 0 -138349 0 0 -155464 0 0 -171209 0 0 -185101 0 0 -196064 0 0 -203006 0 0 -208800 0 0 -209501 0 0 0 0 -17247.2 0 0 -17195.7 -22999.1 0 -17038.3 -45861.1 0 -16765.9 -68440.9 0 -16362.2 -90577.3 0 -15800.9 -112082 0 -15042.2 -132725 0 -14022.7 -152210 0 -12642.6 -170146 0 -10725.1 -185973 0 -7957.08 -198866 0 -3651.4 -207200 0 4706.06 -208121 0 25717.4 -201884 0 70945.7 -205133 0 111962 -223924 0 -34551.9 0 0 -34429.1 -25421.2 0 -34052.4 -50667.8 0 -33396.1 -75554.1 0 -32412.3 -99870.8 0 -31023.9 -123369 0 -29107.5 -145736 0 -26463.8 -166570 0 -22752.3 -185319 0 -17342.6 -201220 0 -8900.53 -213151 0 5684.7 -220358 0 31762.3 -225765 0 70825.3 -239610 0 109189 -263122 0 147109 -294217 0 -51969.9 0 0 -51756.2 -27953.4 0 -51098.2 -55697.4 0 -49943.5 -83008.6 0 -48194.8 -109633 0 -45690.6 -135268 0 -42168.9 -159539 0 -37193.2 -181969 0 -29999 -201978 0 -19172.2 -218949 0 -2149.99 -232993 0 24235.1 -246791 0 59811.5 -266469 0 97655.7 -293571 0 136358 -323322 0 176795 -353589 0 -69553.6 0 0 -69230.7 -30611.1 0 -68233.3 -60985.2 0 -66471.9 -90870 0 -63778.8 -119981 0 -59873.9 -147985 0 -54298.9 -174490 0 -46293.6 -199072 0 -34585.9 -221391 0 -17171.8 -241753 0 8152.57 -262145 0 41510.4 -286546 0 79303.3 -316862 0 119894 -350295 0 164007 -386947 0 212342 -424685 0 -87350.4 0 0 -86902.9 -33404.7 0 -85516.3 -66557.1 0 -83054 -99190.8 0 -79258.9 -131013 0 -73703.5 -161703 0 -65696.9 -190939 0 -54149.5 -218508 0 -37453.5 -244673 0 -13819.2 -270819 0 17413.3 -299726 0 54510.6 -333579 0 95925.7 -371429 0 141839 -413167 0 193010 -456767 0 251323 -502646 0 -105402 0 0 -104818 -36340 0 -103004 -72429 0 -99768.7 -108008 0 -94751.4 -142808 0 -87361.5 -176576 0 -76684.1 -209155 0 -61394.6 -240717 0 -39932.4 -272198 0 -11245.1 -305603 0 24150.1 -343175 0 65093.9 -385338 0 111471 -432099 0 164189 -482215 0 225164 -535765 0 295861 -591723 0 -123742 0 0 -123015 -39417.5 0 -120752 -78605.9 0 -116698 -117339 0 -110386 -155411 0 -101069 -192695 0 -87649 -229289 0 -68748.7 -265811 0 -43113.2 -303699 0 -10433.1 -345017 0 28684.1 -391112 0 74004.8 -442562 0 126432 -498961 0 188024 -560239 0 260915 -625452 0 346832 -693664 0 -142399 0 0 -141527 -42633.2 0 -138807 -85082.8 0 -133922 -127185 0 -126300 -168835 0 -115056 -210091 0 -98993.3 -251358 0 -76811.7 -293650 0 -47672.4 -338686 0 -11612.4 -388252 0 31146.5 -443666 0 81341.7 -505499 0 141219 -574067 0 213775 -648602 0 301497 -727326 0 404146 -808292 0 -161393 0 0 -160379 -45978.9 0 -157212 -91845.2 0 -151517 -137527 0 -142625 -183062 0 -129550 -228735 0 -111061 -275268 0 -86025.4 -323989 0 -53954.4 -376669 0 -14969.9 -435130 0 31301.8 -500974 0 86989.5 -575552 0 156087 -658932 0 242776 -748865 0 348034 -840889 0 465781 -931562 0 -180735 0 0 -179588 -49442.8 0 -176003 -98869.8 0 -169549 -148332 0 -159483 -198045 0 -144750 -248552 0 -124129 -300881 0 -96675.9 -356535 0 -62215.2 -417350 0 -20896.2 -485538 0 28617.4 -563837 0 90725.5 -654276 0 172149 -755522 0 277323 -861073 0 401621 -961295 0 525596 -1.05119e+06 0 -200431 0 0 -199165 -53009.8 0 -195206 -106127 0 -188078 -159553 0 -176983 -213715 0 -160829 -269443 0 -138403 -328030 0 -108953 -391028 0 -72772.3 -460419 0 -30090.1 -539635 0 22255.5 -633440 0 92870.8 -744011 0 192050 -865295 0 321387 -981929 0 462450 -1.07635e+06 0 571672 -1.14334e+06 0 -220480 0 0 -219113 -56662.9 0 -214840 -113582 0 -207150 -171135 0 -195217 -229987 0 -177933 -291293 0 -154023 -356560 0 -122986 -427167 0 -86116.3 -505533 0 -43731.7 -597794 0 11317.7 -711901 0 95108.8 -847749 0 221178 -988038 0 380700 -1.10211e+06 0 528420 -1.1633e+06 0 585445 -1.17089e+06 0 -240874 0 0 -239430 -60383 0 -234917 -121194 0 -226800 -183013 0 -214265 -246764 0 -196192 -313998 0 -171050 -386335 0 -138856 -464547 0 -103101 -552208 0 -63637.4 -660960 0 -4641.32 -802725 0 101919 -968803 0 268686 -1.1197e+06 0 461933 -1.2031e+06 0 593121 -1.18772e+06 0 543491 -1.08698e+06 0 -261599 0 0 -260107 -64150.3 0 -255442 -128921 0 -247050 -195118 0 -234197 -263934 0 -215739 -337474 0 -189429 -417243 0 -156605 -502497 0 -125255 -599809 0 -92377 -731265 0 -24524.3 -911382 0 122364 -1.10957e+06 0 347830 -1.24916e+06 0 570305 -1.25492e+06 0 643711 -1.1065e+06 0 423107 -846214 0 -282635 0 0 -281127 -67945.4 0 -276413 -136718 0 -267906 -207379 0 -255085 -281366 0 -236727 -361698 0 -208874 -449186 0 -176304 -539852 0 -155339 -647661 0 -133107 -812918 0 -43751.5 -1.04557e+06 0 171927 -1.26959e+06 0 474574 -1.35551e+06 0 705210 -1.21708e+06 0 659725 -876869 0 211690 -423379 0 </DataArray> 
</PointData> 
<Points> 
<DataArray type="Float32" NumberOfComponents="3"> 
0 0.016 0 0.0004 0.016 0 0.0008 0.016 0 0.0012 0.016 0 0.0016 0.016 0 0.002 0.016 0 0.0024 0.016 0 0.0028 0.016 0 0.0032 0.016 0 0.0036 0.016 0 0.004 0.016 0 0.0044 0.016 0 0.0048 0.016 0 0.0052 0.016 0 0.0056 0.016 0 0.006 0.016 0 0 0.0163333 0 0.000444444 0.0163333 0 0.000888889 0.0163333 0 0.00133333 0.0163333 0 0.00177778 0.0163333 0 0.00222222 0.0163333 0 0.00266667 0.0163333 0 0.00311111 0.0163333 0 0.00355556 0.0163333 0 0.004 0.0163333 0 0.00444444 0.0163333 0 0.00488889 0.0163333 0 0.00533333 0.0163333 0 0.00577778 0.0163333 0 0.00622222 0.0163333 0 0.00666667 0.0163333 0 0 0.0166667 0 0.000488889 0.0166667 0 0.000977778 0.0166667 0 0.00146667 0.0166667 0 0.00195556 0.0166667 0 0.00244444 0.0166667 0 0.00293333 0.0166667 0 0.00342222 0.0166667 0 0.00391111 0.0166667 0 0.0044 0.0166667 0 0.00488889 0.0166667 0 0.00537778 0.0166667 0 0.00586667 0.0166667 0 0.00635556 0.0166667 0 0.00684444 0.0166667 0 0.00733333 0.0166667 0 0 0.017 0 0.000533333 0.017 0 0.00106667 0.017 0 0.0016 0.017 0 0.00213333 0.017 0 0.00266667 0.017 0 0.0032 0.017 0 0.00373333 0.017 0 0.00426667 0.017 0 0.0048 0.017 0 0.00533333 0.017 0 0.00586667 0.017 0 0.0064 0.017 0 0.00693333 0.017 0 0.00746667 0.017 0 0.008 0.017 0 0 0.0173333 0 0.000577778 0.0173333 0 0.00115556 0.0173333 0 0.00173333 0.0173333 0 0.00231111 0.0173333 0 0.00288889 0.0173333 0 0.00346667 0.0173333 0 0.00404444 0.0173333 0 0.00462222 0.0173333 0 0.0052 0.0173333 0 0.00577778 0.0173333 0 0.00635556 0.0173333 0 0.00693333 0.0173333 0 0.00751111 0.0173333 0 0.00808889 0.0173333 0 0.00866667 0.0173333 0 0 0.0176667 0 0.000622222 0.0176667 0 0.00124444 0.0176667 0 0.00186667 0.0176667 0 0.00248889 0.0176667 0 0.00311111 0.0176667 0 0.00373333 0.0176667 0 0.00435556 0.0176667 0 0.00497778 0.0176667 0 0.0056 0.0176667 0 0.00622222 0.0176667 0 0.00684444 0.0176667 0 0.00746667 0.0176667 0 0.00808889 0.0176667 0 0.00871111 0.0176667 0 0.00933333 0.0176667 0 0 0.018 0 0.000666667 0.018 0 0.00133333 0.018 0 0.002 0.018 0 0.00266667 0.018 0 0.00333333 0.018 0 0.004 0.018 0 0.00466667 0.018 0 0.00533333 0.018 0 0.006 0.018 0 0.00666667 0.018 0 0.00733333 0.018 0 0.008 0.018 0 0.00866667 0.018 0 0.00933333 0.018 0 0.01 0.018 0 0 0.0183333 0 0.000711111 0.0183333 0 0.00142222 0.0183333 0 0.00213333 0.0183333 0 0.00284444 0.0183333 0 0.00355556 0.0183333 0 0.00426667 0.0183333 0 0.00497778 0.0183333 0 0.00568889 0.0183333 0 0.0064 0.0183333 0 0.00711111 0.0183333 0 0.00782222 0.0183333 0 0.00853333 0.0183333 0 0.00924444 0.0183333 0 0.00995556 0.0183333 0 0.0106667 0.0183333 0 0 0.0186667 0 0.000755556 0.0186667 0 0.00151111 0.0186667 0 0.00226667 0.0186667 0 0.00302222 0.0186667 0 0.00377778 0.0186667 0 0.00453333 0.0186667 0 0.00528889 0.0186667 0 0.00604444 0.0186667 0 0.0068 0.0186667 0 0.00755556 0.0186667 0 0.00831111 0.0186667 0 0.00906667 0.0186667 0 0.00982222 0.0186667 0 0.0105778 0.0186667 0 0.0113333 0.0186667 0 0 0.019 0 0.0008 0.019 0 0.0016 0.019 0 0.0024 0.019 0 0.0032 0.019 0 0.004 0.019 0 0.0048 0.019 0 0.0056 0.019 0 0.0064 0.019 0 0.0072 0.019 0 0.008 0.019 0 0.0088 0.019 0 0.0096 0.019 0 0.0104 0.019 0 0.0112 0.019 0 0.012 0.019 0 0 0.0193333 0 0.000844444 0.0193333 0 0.00168889 0.0193333 0 0.00253333 0.0193333 0 0.00337778 0.0193333 0 0.00422222 0.0193333 0 0.00506667 0.0193333 0 0.00591111 0.0193333 0 0.00675556 0.0193333 0 0.0076 0.0193333 0 0.00844444 0.0193333 0 0.00928889 0.0193333 0 0.0101333 0.0193333 0 0.0109778 0.0193333 0 0.0118222 0.0193333 0 0.0126667 0.0193333 0 0 0.0196667 0 0.000888889 0.0196667 0 0.00177778 0.0196667 0 0.00266667 0.0196667 0 0.00355556 0.0196667 0 0.00444444 0.0196667 0 0.00533333 0.0196667 0 0.00622222 0.0196667 0 0.00711111 0.0196667 0 0.008 0.0196667 0 0.00888889 0.0196667 0 0.00977778 0.0196667 0 0.0106667 0.0196667 0 0.0115556 0.0196667 0 0.0124444 0.0196667 0 0.0133333 0.0196667 0 0 0.02 0 0.000933333 0.02 0 0.00186667 0.02 0 0.0028 0.02 0 0.00373333 0.02 0 0.00466667 0.02 0 0.0056 0.02 0 0.00653333 0.02 0 0.00746667 0.02 0 0.0084 0.02 0 0.00933333 0.02 0 0.0102667 0.02 0 0.0112 0.02 0 0.0121333 0.02 0 0.0130667 0.02 0 0.014 0.02 0 0 0.0203333 0 0.000977778 0.0203333 0 0.00195556 0.0203333 0 0.00293333 0.0203333 0 0.00391111 0.0203333 0 0.00488889 0.0203333 0 0.00586667 0.0203333 0 0.00684444 0.0203333 0 0.00782222 0.0203333 0 0.0088 0.0203333 0 0.00977778 0.0203333 0 0.0107556 0.0203333 0 0.0117333 0.0203333 0 0.0127111 0.0203333 0 0.0136889 0.0203333 0 0.0146667 0.0203333 0 0 0.0206667 0 0.00102222 0.0206667 0 0.00204444 0.0206667 0 0.00306667 0.0206667 0 0.00408889 0.0206667 0 0.00511111 0.0206667 0 0.00613333 0.0206667 0 0.00715556 0.0206667 0 0.00817778 0.0206667 0 0.0092 0.0206667 0 0.0102222 0.0206667 0 0.0112444 0.0206667 0 0.0122667 0.0206667 0 0.0132889 0.0206667 0 0.0143111 0.0206667 0 0.0153333 0.0206667 0 0 0.021 0 0.00106667 0.021 0 0.00213333 0.021 0 0.0032 0.021 0 0.00426667 0.021 0 0.00533333 0.021 0 0.0064 0.021 0 0.00746667 0.021 0 0.00853333 0.021 0 0.0096 0.021 0 0.0106667 0.021 0 0.0117333 0.021 0 0.0128 0.021 0 0.0138667 0.021 0 0.0149333 0.021 0 0.016 0.021 0 
</DataArray>
</Points> 
</Piece> 
</StructuredGrid> 
</VTKFile> 
