<?xml version="1.0"?> 
<VTKFile type="StructuredGrid" version="0.1"> 
<StructuredGrid WholeExtent="0 15 0 15 0 0"> 
<Piece Extent="0 15 0 15 0 0"> 
<PointData>
<DataArray type="Float32" Name="|E|" format="ascii" NumberOfComponents="3"> 
-1.19209e-07 9.75623e+06 0 -2.21189e-09 3.17181e+06 0 -9.59262e-08 1.25622e+06 0 2.28174e-07 841330 0 -3.7998e-07 697682 0 4.41447e-07 507629 0 -4.28408e-07 291949 0 3.91155e-07 125231 0 -2.90573e-07 36738.4 0 8.9407e-08 7508.05 0 8.9407e-08 2586.62 0 -4.47035e-08 344.532 0 1.49012e-08 -1207.46 0 -2.98023e-08 14.0336 0 5.96046e-08 250.843 0 -1.19209e-06 -4.1943e+06 0 -2.63473e+06 1.65055e+06 0 -2.86875e+06 1.73297e+06 0 -2.21139e+06 1.99439e+06 0 -1.46371e+06 1.94752e+06 0 -904981 1.60909e+06 0 -556492 1.15233e+06 0 -352222 725205 0 -223716 400418 0 -131474 188904 0 -63932.6 70613.2 0 -22142.4 16984.7 0 -4241.18 497.289 0 -351.821 -923.991 0 -80.9439 37.2841 0 38.1126 72.6813 0 100.428 1041.79 0 -2.8757e+06 943064 0 -2.58673e+06 1.35133e+06 0 -2.71514e+06 1.2835e+06 0 -2.61912e+06 1.36474e+06 0 -2.24295e+06 1.49124e+06 0 -1.73531e+06 1.47054e+06 0 -1.24381e+06 1.24835e+06 0 -843730 899697 0 -543540 541521 0 -321978 261145 0 -161797 90490.7 0 -59716.2 15441.9 0 -12272.2 -2035.29 0 -533.059 -317.547 0 -66.6671 142.65 0 484.148 2443.1 0 -2.55109e+06 1.5151e+06 0 -2.73414e+06 1.25005e+06 0 -2.65045e+06 1.30847e+06 0 -2.66702e+06 1.2434e+06 0 -2.68008e+06 1.19359e+06 0 -2.54314e+06 1.22686e+06 0 -2.21978e+06 1.25631e+06 0 -1.77492e+06 1.1667e+06 0 -1.30554e+06 926062 0 -882341 599720 0 -534233 293943 0 -269352 89029.2 0 -96941.5 2872.78 0 -17460.6 -5871.38 0 202.049 1990.87 0 1291.4 4200.55 0 -2.66947e+06 1.42535e+06 0 -2.64364e+06 1.46288e+06 0 -2.72594e+06 1.36184e+06 0 -2.71703e+06 1.34554e+06 0 -2.70474e+06 1.28724e+06 0 -2.71163e+06 1.19633e+06 0 -2.66263e+06 1.14353e+06 0 -2.47199e+06 1.12624e+06 0 -2.11909e+06 1.06113e+06 0 -1.65659e+06 874657 0 -1.16662e+06 578974 0 -716301 268749 0 -351929 53621.7 0 -113780 -20908.8 0 -13392.7 -7165.96 0 -2138.07 -5007 0 -2.52499e+06 1.6691e+06 0 -2.59745e+06 1.59444e+06 0 -2.63416e+06 1.54596e+06 0 -2.70679e+06 1.45954e+06 0 -2.74506e+06 1.4068e+06 0 -2.75211e+06 1.34362e+06 0 -2.75489e+06 1.24419e+06 0 -2.73074e+06 1.14526e+06 0 -2.60751e+06 1.07122e+06 0 -2.32497e+06 976772 0 -1.88746e+06 788456 0 -1.36001e+06 493676 0 -827408 180096 0 -376362 -19395.9 0 -93408 -47094.7 0 -11797.2 -21037.6 0 -2.46707e+06 1.72489e+06 0 -2.51652e+06 1.7017e+06 0 -2.57273e+06 1.67042e+06 0 -2.62104e+06 1.62367e+06 0 -2.68888e+06 1.54639e+06 0 -2.75013e+06 1.47508e+06 0 -2.78494e+06 1.3993e+06 0 -2.79948e+06 1.29312e+06 0 -2.78625e+06 1.1683e+06 0 -2.69166e+06 1.04665e+06 0 -2.44421e+06 901573 0 -2.01634e+06 671061 0 -1.45075e+06 344473 0 -838786 27491.7 0 -316176 -114174 0 -43272.7 -60590.6 0 -2.35589e+06 1.81711e+06 0 -2.41441e+06 1.79589e+06 0 -2.48007e+06 1.76108e+06 0 -2.54674e+06 1.73037e+06 0 -2.60849e+06 1.68736e+06 0 -2.67926e+06 1.61789e+06 0 -2.75282e+06 1.53862e+06 0 -2.81004e+06 1.4494e+06 0 -2.84253e+06 1.33105e+06 0 -2.8396e+06 1.18291e+06 0 -2.75399e+06 1.01537e+06 0 -2.50989e+06 803850 0 -2.06147e+06 497820 0 -1.43138e+06 114660 0 -723345 -181168 0 -152116 -169882 0 -2.25994e+06 1.85579e+06 0 -2.31786e+06 1.84939e+06 0 -2.37813e+06 1.8392e+06 0 -2.44803e+06 1.81154e+06 0 -2.52385e+06 1.78107e+06 0 -2.59944e+06 1.73964e+06 0 -2.6799e+06 1.67467e+06 0 -2.76499e+06 1.59108e+06 0 -2.84026e+06 1.48855e+06 0 -2.89079e+06 1.35164e+06 0 -2.89736e+06 1.17267e+06 0 -2.80724e+06 947493 0 -2.53755e+06 643225 0 -2.0265e+06 225972 0 -1.2775e+06 -218650 0 -420199 -376111 0 -2.15944e+06 1.87902e+06 0 -2.21732e+06 1.88352e+06 0 -2.28177e+06 1.88116e+06 0 -2.34968e+06 1.87493e+06 0 -2.42581e+06 1.85404e+06 0 -2.51059e+06 1.82503e+06 0 -2.59976e+06 1.78367e+06 0 -2.69419e+06 1.71939e+06 0 -2.79385e+06 1.63033e+06 0 -2.88672e+06 1.5117e+06 0 -2.95448e+06 1.347e+06 0 -2.96722e+06 1.12014e+06 0 -2.85796e+06 807444 0 -2.52888e+06 363968 0 -1.88636e+06 -203945 0 -891394 -636375 0 -2.06326e+06 1.88175e+06 0 -2.12123e+06 1.89653e+06 0 -2.18426e+06 1.90651e+06 0 -2.25469e+06 1.90971e+06 0 -2.33123e+06 1.9072e+06 0 -2.41637e+06 1.89164e+06 0 -2.51202e+06 1.8644e+06 0 -2.61598e+06 1.82176e+06 0 -2.72798e+06 1.75421e+06 0 -2.84661e+06 1.65508e+06 0 -2.95979e+06 1.51265e+06 0 -3.0454e+06 1.30364e+06 0 -3.05886e+06 995983 0 -2.91129e+06 537606 0 -2.46462e+06 -121363 0 -1.53233e+06 -858951 0 -1.97016e+06 1.86977e+06 0 -2.02824e+06 1.8945e+06 0 -2.09182e+06 1.91501e+06 0 -2.16154e+06 1.93012e+06 0 -2.23953e+06 1.93832e+06 0 -2.32605e+06 1.93922e+06 0 -2.42303e+06 1.92742e+06 0 -2.53284e+06 1.90117e+06 0 -2.65488e+06 1.85531e+06 0 -2.78925e+06 1.77966e+06 0 -2.93292e+06 1.66206e+06 0 -3.07254e+06 1.48032e+06 0 -3.1792e+06 1.19546e+06 0 -3.18828e+06 743654 0 -2.96739e+06 33132.1 0 -2.26203e+06 -965555 0 -1.8804e+06 1.84672e+06 0 -1.93911e+06 1.8805e+06 0 -2.00308e+06 1.91086e+06 0 -2.07344e+06 1.93696e+06 0 -2.1514e+06 1.95716e+06 0 -2.23909e+06 1.96991e+06 0 -2.33788e+06 1.97374e+06 0 -2.4502e+06 1.96405e+06 0 -2.57877e+06 1.9369e+06 0 -2.72468e+06 1.88451e+06 0 -2.88893e+06 1.7936e+06 0 -3.06762e+06 1.64286e+06 0 -3.24574e+06 1.39225e+06 0 -3.38408e+06 969266 0 -3.38372e+06 250584 0 -3.00173e+06 -922493 0 -1.79387e+06 1.81496e+06 0 -1.85366e+06 1.85774e+06 0 -1.91849e+06 1.89759e+06 0 -1.98957e+06 1.93366e+06 0 -2.06832e+06 1.96506e+06 0 -2.15656e+06 1.99005e+06 0 -2.25675e+06 2.00681e+06 0 -2.37135e+06 2.01285e+06 0 -2.50383e+06 2.00349e+06 0 -2.65788e+06 1.97238e+06 0 -2.83698e+06 1.90784e+06 0 -3.04392e+06 1.78943e+06 0 -3.27656e+06 1.5789e+06 0 -3.51969e+06 1.20154e+06 0 -3.71896e+06 515093 0 -3.69763e+06 -732479 0 -1.71033e+06 1.77666e+06 0 -1.77168e+06 1.82835e+06 0 -1.83788e+06 1.87754e+06 0 -1.91009e+06 1.92346e+06 0 -1.98989e+06 1.96517e+06 0 -2.07917e+06 2.00157e+06 0 -2.18048e+06 2.03088e+06 0 -2.29697e+06 2.0509e+06 0 -2.43256e+06 2.05813e+06 0 -2.59231e+06 2.04681e+06 0 -2.78236e+06 2.00711e+06 0 -3.01023e+06 1.92075e+06 0 -3.28434e+06 1.75274e+06 0 -3.61126e+06 1.43174e+06 0 -3.98336e+06 810610 0 -4.31934e+06 -416224 0 -1.6295e+06 1.73345e+06 0 -1.69297e+06 1.79418e+06 0 -1.76103e+06 1.85264e+06 0 -1.83489e+06 1.90817e+06 0 -1.91611e+06 1.95999e+06 0 -2.00675e+06 2.00712e+06 0 -2.10946e+06 2.04814e+06 0 -2.2277e+06 2.08126e+06 0 -2.36595e+06 2.10368e+06 0 -2.53018e+06 2.11068e+06 0 -2.72847e+06 2.09416e+06 0 -2.97219e+06 2.03855e+06 0 -3.27797e+06 1.91349e+06 0 -3.67102e+06 1.65499e+06 0 -4.18761e+06 1.124e+06 0 -4.85255e+06 -3.57628e-07 0 </DataArray> 
</PointData> 
<Points> 
<DataArray type="Float32" NumberOfComponents="3"> 
0.1 0.045 0 0.100867 0.045 0 0.101733 0.045 0 0.1026 0.045 0 0.103467 0.045 0 0.104333 0.045 0 0.1052 0.045 0 0.106067 0.045 0 0.106933 0.045 0 0.1078 0.045 0 0.108667 0.045 0 0.109533 0.045 0 0.1104 0.045 0 0.111267 0.045 0 0.112133 0.045 0 0.113 0.045 0 0.0978533 0.0464889 0 0.0987669 0.046396 0 0.0996849 0.0463026 0 0.100607 0.0462088 0 0.101534 0.0461145 0 0.102466 0.0460198 0 0.103402 0.0459246 0 0.104343 0.0458289 0 0.105289 0.0457328 0 0.106239 0.0456361 0 0.107194 0.045539 0 0.108153 0.0454414 0 0.109118 0.0453434 0 0.110087 0.0452448 0 0.111062 0.0451457 0 0.112041 0.0450461 0 0.0957067 0.0479778 0 0.096665 0.0478038 0 0.0976321 0.0476282 0 0.0986081 0.047451 0 0.099593 0.0472721 0 0.100587 0.0470917 0 0.10159 0.0469095 0 0.102603 0.0467256 0 0.103625 0.0465401 0 0.104657 0.0463527 0 0.105698 0.0461636 0 0.106749 0.0459728 0 0.107811 0.04578 0 0.108882 0.0455855 0 0.109964 0.0453891 0 0.111056 0.0451907 0 0.09356 0.0494667 0 0.0945633 0.0492219 0 0.0955793 0.0489741 0 0.0966082 0.0487231 0 0.0976503 0.0484689 0 0.0987058 0.0482115 0 0.0997751 0.0479507 0 0.100858 0.0476864 0 0.101956 0.0474187 0 0.103068 0.0471475 0 0.104195 0.0468726 0 0.105337 0.0465941 0 0.106494 0.0463118 0 0.107667 0.0460256 0 0.108856 0.0457355 0 0.110062 0.0454415 0 0.0914133 0.0509556 0 0.0924638 0.0506491 0 0.0935306 0.0503378 0 0.0946141 0.0500217 0 0.0957146 0.0497007 0 0.0968327 0.0493745 0 0.0979686 0.0490431 0 0.0991228 0.0487063 0 0.100296 0.0483641 0 0.101488 0.0480163 0 0.1027 0.0476627 0 0.103932 0.0473032 0 0.105185 0.0469377 0 0.106459 0.046566 0 0.107755 0.0461879 0 0.109074 0.0458033 0 0.0892667 0.0524444 0 0.0903689 0.0520837 0 0.0914906 0.0517166 0 0.0926323 0.051343 0 0.0937945 0.0509626 0 0.0949778 0.0505753 0 0.0961828 0.050181 0 0.0974101 0.0497793 0 0.0986602 0.0493702 0 0.0999339 0.0489533 0 0.101232 0.0485286 0 0.102555 0.0480957 0 0.103903 0.0476544 0 0.105278 0.0472044 0 0.10668 0.0467456 0 0.10811 0.0462776 0 0.08712 0.0539333 0 0.0882807 0.0535244 0 0.0894636 0.0531076 0 0.0906693 0.0526827 0 0.0918985 0.0522497 0 0.0931518 0.051808 0 0.0944301 0.0513576 0 0.095734 0.0508982 0 0.0970643 0.0504295 0 0.0984218 0.0499512 0 0.0998074 0.0494629 0 0.101222 0.0489645 0 0.102666 0.0484556 0 0.104142 0.0479357 0 0.105649 0.0474047 0 0.107189 0.0468621 0 0.0849733 0.0554222 0 0.0862015 0.0549695 0 0.0874539 0.0545078 0 0.0887315 0.0540369 0 0.0900349 0.0535565 0 0.0913649 0.0530662 0 0.0927224 0.0525658 0 0.0941082 0.052055 0 0.0955232 0.0515334 0 0.0969684 0.0510007 0 0.0984446 0.0504566 0 0.099953 0.0499006 0 0.101495 0.0493323 0 0.103071 0.0487514 0 0.104682 0.0481574 0 0.10633 0.04755 0 0.0828267 0.0569111 0 0.0841334 0.0564177 0 0.085466 0.0559145 0 0.0868252 0.0554012 0 0.088212 0.0548775 0 0.0896271 0.0543431 0 0.0910715 0.0537977 0 0.0925459 0.053241 0 0.0940514 0.0526724 0 0.095589 0.0520918 0 0.0971598 0.0514987 0 0.0987647 0.0508926 0 0.100405 0.0502733 0 0.102082 0.0496401 0 0.103796 0.0489927 0 0.105549 0.0483306 0 0.08068 0.0584 0 0.0820786 0.0578673 0 0.0835039 0.0573244 0 0.0849567 0.0567711 0 0.0864377 0.056207 0 0.087948 0.0556318 0 0.0894882 0.0550452 0 0.0910593 0.0544468 0 0.0926622 0.0538362 0 0.094298 0.0532132 0 0.0959675 0.0525773 0 0.097672 0.0519281 0 0.0994125 0.0512652 0 0.10119 0.0505881 0 0.103006 0.0498965 0 0.104862 0.0491897 0 0.0785333 0.0598889 0 0.0800393 0.0593169 0 0.0815718 0.0587348 0 0.0831316 0.0581423 0 0.0847195 0.0575392 0 0.0863362 0.0569251 0 0.0879825 0.0562998 0 0.0896592 0.055663 0 0.0913672 0.0550142 0 0.0931073 0.0543533 0 0.0948806 0.0536797 0 0.0966878 0.0529933 0 0.0985301 0.0522936 0 0.100408 0.0515801 0 0.102324 0.0508526 0 0.104277 0.0501106 0 0.0763867 0.0613778 0 0.0780175 0.0607649 0 0.0796736 0.0601425 0 0.0813557 0.0595104 0 0.0830642 0.0588684 0 0.0847998 0.0582161 0 0.0865633 0.0575534 0 0.0883552 0.05688 0 0.0901762 0.0561957 0 0.0920271 0.0555001 0 0.0939087 0.054793 0 0.0958216 0.0540741 0 0.0977666 0.0533432 0 0.0997447 0.0525998 0 0.101757 0.0518438 0 0.103803 0.0510747 0 0.07424 0.0628667 0 0.0760154 0.0622098 0 0.0778132 0.0615447 0 0.079634 0.0608711 0 0.0814781 0.0601888 0 0.083346 0.0594978 0 0.0852381 0.0587978 0 0.087155 0.0580886 0 0.089097 0.0573701 0 0.0910648 0.0566421 0 0.0930588 0.0559044 0 0.0950796 0.0551568 0 0.0971277 0.0543991 0 0.0992036 0.053631 0 0.101308 0.0528525 0 0.103441 0.0520632 0 0.0720933 0.0643556 0 0.0740349 0.0636502 0 0.0759942 0.0629384 0 0.0779714 0.0622201 0 0.0799667 0.0614952 0 0.0819805 0.0607636 0 0.084013 0.0600252 0 0.0860644 0.0592799 0 0.0881351 0.0585277 0 0.0902252 0.0577683 0 0.092335 0.0570018 0 0.0944649 0.056228 0 0.0966151 0.0554469 0 0.098786 0.0546582 0 0.100978 0.053862 0 0.103191 0.053058 0 0.0699467 0.0658444 0 0.072078 0.0650845 0 0.0742198 0.0643208 0 0.0763721 0.0635534 0 0.0785349 0.0627822 0 0.0807084 0.0620072 0 0.0828926 0.0612284 0 0.0850876 0.0604457 0 0.0872935 0.0596592 0 0.0895103 0.0588687 0 0.0917382 0.0580744 0 0.0939772 0.057276 0 0.0962274 0.0564737 0 0.0984889 0.0556673 0 0.100762 0.0548569 0 0.103046 0.0540424 0 0.0678 0.0673333 0 0.0701467 0.0665112 0 0.0724933 0.0656891 0 0.07484 0.064867 0 0.0771867 0.064045 0 0.0795333 0.0632229 0 0.08188 0.0624008 0 0.0842267 0.0615787 0 0.0865733 0.0607566 0 0.08892 0.0599345 0 0.0912667 0.0591124 0 0.0936133 0.0582903 0 0.09596 0.0574682 0 0.0983067 0.0566461 0 0.100653 0.055824 0 0.103 0.0550019 0 
</DataArray>
</Points> 
</Piece> 
</StructuredGrid> 
</VTKFile> 
