<?xml version="1.0"?> 
<VTKFile type="StructuredGrid" version="0.1"> 
<StructuredGrid WholeExtent="0 31 0 31 0 0"> 
<Piece Extent="0 31 0 31 0 0"> 
<PointData>
<DataArray type="Float32" Name="|E|" format="ascii" NumberOfComponents="3"> 
-2.06494e+06 0 0 -2.06495e+06 1543.96 0 -2.06498e+06 3087.99 0 -2.06502e+06 4632.14 0 -2.06508e+06 6176.44 0 -2.06516e+06 7720.95 0 -2.06526e+06 9265.71 0 -2.06538e+06 10810.7 0 -2.06551e+06 12356.1 0 -2.06566e+06 13901.7 0 -2.06583e+06 15447.7 0 -2.06602e+06 16994.1 0 -2.06622e+06 18541.2 0 -2.06644e+06 20089 0 -2.06668e+06 21637.8 0 -2.06694e+06 23187.4 0 -2.06722e+06 24737.9 0 -2.06751e+06 26288.9 0 -2.06782e+06 27840.3 0 -2.06814e+06 29392 0 -2.06848e+06 30943.6 0 -2.06884e+06 32495.1 0 -2.06922e+06 34046.4 0 -2.06962e+06 35597.5 0 -2.07003e+06 37148.6 0 -2.07046e+06 38699.6 0 -2.07091e+06 40251 0 -2.07138e+06 41802.9 0 -2.07187e+06 43355.7 0 -2.07238e+06 44908.4 0 -2.0729e+06 46452.2 0 -2.07344e+06 47956.3 0 -2.06365e+06 0 0 -2.06366e+06 1642.6 0 -2.06369e+06 3285.28 0 -2.06374e+06 4928.09 0 -2.06381e+06 6571.08 0 -2.0639e+06 8214.3 0 -2.064e+06 9857.79 0 -2.06413e+06 11501.6 0 -2.06428e+06 13145.7 0 -2.06445e+06 14790.3 0 -2.06463e+06 16435.3 0 -2.06484e+06 18080.9 0 -2.06507e+06 19727.2 0 -2.06531e+06 21374.3 0 -2.06558e+06 23022.2 0 -2.06586e+06 24670.9 0 -2.06617e+06 26320.3 0 -2.06649e+06 27970.1 0 -2.06683e+06 29620.2 0 -2.06719e+06 31270.5 0 -2.06757e+06 32920.8 0 -2.06797e+06 34571.1 0 -2.06839e+06 36221.4 0 -2.06883e+06 37871.8 0 -2.06929e+06 39522.4 0 -2.06977e+06 41173.4 0 -2.07028e+06 42824.8 0 -2.0708e+06 44476.5 0 -2.07134e+06 46128.2 0 -2.07191e+06 47779.8 0 -2.0725e+06 49435.4 0 -2.07311e+06 51113 0 -2.06234e+06 0 0 -2.06235e+06 1742.78 0 -2.06239e+06 3485.66 0 -2.06244e+06 5228.69 0 -2.06252e+06 6971.92 0 -2.06262e+06 8715.41 0 -2.06273e+06 10459.2 0 -2.06288e+06 12203.4 0 -2.06304e+06 13947.9 0 -2.06322e+06 15692.9 0 -2.06343e+06 17438.5 0 -2.06366e+06 19184.8 0 -2.06391e+06 20931.8 0 -2.06418e+06 22679.6 0 -2.06447e+06 24428.2 0 -2.06478e+06 26177.5 0 -2.06512e+06 27927.3 0 -2.06547e+06 29677.6 0 -2.06585e+06 31428.1 0 -2.06625e+06 33178.8 0 -2.06667e+06 34929.8 0 -2.06711e+06 36680.8 0 -2.06758e+06 38432.2 0 -2.06806e+06 40183.9 0 -2.06857e+06 41936.2 0 -2.0691e+06 43689.1 0 -2.06966e+06 45442.7 0 -2.07024e+06 47197.4 0 -2.07084e+06 48954.4 0 -2.07147e+06 50716.2 0 -2.07211e+06 52484.5 0 -2.07277e+06 54250.3 0 -2.06102e+06 0 0 -2.06104e+06 1844.52 0 -2.06107e+06 3689.15 0 -2.06113e+06 5533.95 0 -2.06122e+06 7378.98 0 -2.06132e+06 9224.29 0 -2.06146e+06 11070 0 -2.06161e+06 12916 0 -2.06179e+06 14762.6 0 -2.06199e+06 16609.6 0 -2.06222e+06 18457.4 0 -2.06247e+06 20305.8 0 -2.06274e+06 22155.1 0 -2.06304e+06 24005.1 0 -2.06336e+06 25855.8 0 -2.0637e+06 27707.2 0 -2.06407e+06 29559.2 0 -2.06446e+06 31411.5 0 -2.06488e+06 33264.3 0 -2.06531e+06 35117.3 0 -2.06578e+06 36970.8 0 -2.06626e+06 38824.7 0 -2.06677e+06 40679.1 0 -2.06731e+06 42534.2 0 -2.06787e+06 44390.3 0 -2.06845e+06 46247.6 0 -2.06906e+06 48106.6 0 -2.0697e+06 49968.5 0 -2.07036e+06 51834.1 0 -2.07104e+06 53703.4 0 -2.07175e+06 55573.2 0 -2.07248e+06 57445.2 0 -2.05969e+06 0 0 -2.05971e+06 1947.81 0 -2.05975e+06 3895.74 0 -2.05981e+06 5843.85 0 -2.0599e+06 7792.22 0 -2.06002e+06 9740.92 0 -2.06017e+06 11690 0 -2.06033e+06 13639.6 0 -2.06053e+06 15589.6 0 -2.06075e+06 17540.4 0 -2.061e+06 19491.8 0 -2.06127e+06 21443.9 0 -2.06157e+06 23396.9 0 -2.06189e+06 25350.7 0 -2.06224e+06 27305.2 0 -2.06262e+06 29260.3 0 -2.06302e+06 31216 0 -2.06345e+06 33172.3 0 -2.0639e+06 35129 0 -2.06438e+06 37086.3 0 -2.06489e+06 39044.2 0 -2.06542e+06 41002.8 0 -2.06598e+06 42962.4 0 -2.06657e+06 44923.1 0 -2.06718e+06 46885.3 0 -2.06782e+06 48849.7 0 -2.06849e+06 50816.8 0 -2.06918e+06 52787.1 0 -2.0699e+06 54760 0 -2.07065e+06 56734.6 0 -2.07142e+06 58711 0 -2.07221e+06 60689.2 0 -2.05835e+06 0 0 -2.05837e+06 2052.64 0 -2.05841e+06 4105.4 0 -2.05848e+06 6158.38 0 -2.05858e+06 8211.64 0 -2.05871e+06 10265.3 0 -2.05886e+06 12319.3 0 -2.05905e+06 14373.9 0 -2.05926e+06 16429.1 0 -2.0595e+06 18485 0 -2.05977e+06 20541.6 0 -2.06007e+06 22599.1 0 -2.06039e+06 24657.3 0 -2.06075e+06 26716.4 0 -2.06113e+06 28776.2 0 -2.06154e+06 30836.8 0 -2.06197e+06 32898 0 -2.06244e+06 34959.9 0 -2.06293e+06 37022.5 0 -2.06346e+06 39085.8 0 -2.06401e+06 41150.1 0 -2.06459e+06 43215.5 0 -2.0652e+06 45282.3 0 -2.06584e+06 47350.8 0 -2.06651e+06 49421.5 0 -2.06721e+06 51494.8 0 -2.06793e+06 53571 0 -2.06868e+06 55649.7 0 -2.06947e+06 57730.5 0 -2.07028e+06 59813.3 0 -2.07111e+06 61898.1 0 -2.07198e+06 63984.9 0 -2.057e+06 0 0 -2.05701e+06 2159 0 -2.05706e+06 4318.15 0 -2.05714e+06 6477.53 0 -2.05725e+06 8637.22 0 -2.05738e+06 10797.3 0 -2.05755e+06 12957.9 0 -2.05775e+06 15119.1 0 -2.05798e+06 17280.9 0 -2.05824e+06 19443.5 0 -2.05854e+06 21606.9 0 -2.05886e+06 23771.2 0 -2.05921e+06 25936.3 0 -2.05959e+06 28102.3 0 -2.06001e+06 30269.2 0 -2.06045e+06 32436.8 0 -2.06093e+06 34605.2 0 -2.06143e+06 36774.6 0 -2.06197e+06 38944.8 0 -2.06254e+06 41116.1 0 -2.06314e+06 43288.7 0 -2.06377e+06 45462.8 0 -2.06443e+06 47638.8 0 -2.06512e+06 49817.1 0 -2.06585e+06 51997.9 0 -2.0666e+06 54181.5 0 -2.06739e+06 56367.6 0 -2.06821e+06 58556.1 0 -2.06906e+06 60746.9 0 -2.06993e+06 62939.8 0 -2.07084e+06 65134.9 0 -2.07178e+06 67332.4 0 -2.05563e+06 0 0 -2.05565e+06 2266.9 0 -2.0557e+06 4533.96 0 -2.05578e+06 6801.28 0 -2.0559e+06 9068.95 0 -2.05605e+06 11337.1 0 -2.05623e+06 13605.7 0 -2.05645e+06 15875 0 -2.0567e+06 18145.1 0 -2.05698e+06 20415.9 0 -2.05729e+06 22687.7 0 -2.05764e+06 24960.3 0 -2.05802e+06 27233.9 0 -2.05844e+06 29508.5 0 -2.05888e+06 31783.9 0 -2.05937e+06 34060.4 0 -2.05988e+06 36337.8 0 -2.06043e+06 38616.3 0 -2.06101e+06 40896 0 -2.06162e+06 43177.2 0 -2.06227e+06 45460 0 -2.06295e+06 47744.8 0 -2.06367e+06 50031.9 0 -2.06442e+06 52321.5 0 -2.0652e+06 54613.9 0 -2.06602e+06 56909 0 -2.06687e+06 59206.6 0 -2.06775e+06 61506.8 0 -2.06867e+06 63809.3 0 -2.06962e+06 66114.3 0 -2.0706e+06 68421.8 0 -2.07162e+06 70732 0 -2.05425e+06 0 0 -2.05427e+06 2376.33 0 -2.05433e+06 4752.83 0 -2.05441e+06 7129.62 0 -2.05454e+06 9506.8 0 -2.0547e+06 11884.5 0 -2.0549e+06 14262.8 0 -2.05513e+06 16641.7 0 -2.0554e+06 19021.5 0 -2.0557e+06 21402.2 0 -2.05604e+06 23783.8 0 -2.05642e+06 26166.5 0 -2.05683e+06 28550.1 0 -2.05728e+06 30934.8 0 -2.05776e+06 33320.6 0 -2.05828e+06 35707.6 0 -2.05883e+06 38095.7 0 -2.05942e+06 40485.2 0 -2.06005e+06 42876.2 0 -2.06071e+06 45269.1 0 -2.06141e+06 47663.9 0 -2.06215e+06 50061.1 0 -2.06292e+06 52461 0 -2.06373e+06 54863.6 0 -2.06457e+06 57269 0 -2.06545e+06 59677.2 0 -2.06637e+06 62088.1 0 -2.06732e+06 64501.7 0 -2.06831e+06 66918.1 0 -2.06933e+06 69337.2 0 -2.07039e+06 71759.1 0 -2.07149e+06 74184.1 0 -2.05286e+06 0 0 -2.05288e+06 2487.28 0 -2.05294e+06 4974.76 0 -2.05304e+06 7462.54 0 -2.05317e+06 9950.76 0 -2.05334e+06 12439.5 0 -2.05356e+06 14929 0 -2.05381e+06 17419.2 0 -2.05409e+06 19910.3 0 -2.05442e+06 22402.3 0 -2.05479e+06 24895.4 0 -2.05519e+06 27389.6 0 -2.05563e+06 29884.9 0 -2.05611e+06 32381.5 0 -2.05663e+06 34879.2 0 -2.05719e+06 37378.4 0 -2.05778e+06 39879 0 -2.05842e+06 42381.2 0 -2.05909e+06 44885.4 0 -2.05981e+06 47391.6 0 -2.06056e+06 49900.3 0 -2.06135e+06 52411.7 0 -2.06218e+06 54925.9 0 -2.06305e+06 57443 0 -2.06395e+06 59963.2 0 -2.0649e+06 62486.2 0 -2.06588e+06 65012.2 0 -2.06691e+06 67541.2 0 -2.06797e+06 70073.3 0 -2.06907e+06 72608.5 0 -2.07021e+06 75146.9 0 -2.07139e+06 77688.8 0 -2.05146e+06 0 0 -2.05148e+06 2599.76 0 -2.05154e+06 5199.72 0 -2.05165e+06 7800.03 0 -2.05179e+06 10400.8 0 -2.05198e+06 13002.2 0 -2.0522e+06 15604.3 0 -2.05247e+06 18207.3 0 -2.05278e+06 20811.2 0 -2.05313e+06 23416.2 0 -2.05352e+06 26022.3 0 -2.05395e+06 28629.7 0 -2.05443e+06 31238.3 0 -2.05494e+06 33848.3 0 -2.0555e+06 36459.8 0 -2.0561e+06 39072.8 0 -2.05674e+06 41687.6 0 -2.05742e+06 44304.4 0 -2.05814e+06 46923.3 0 -2.0589e+06 49544.8 0 -2.05971e+06 52169 0 -2.06056e+06 54796.1 0 -2.06145e+06 57426.4 0 -2.06238e+06 60059.8 0 -2.06335e+06 62696.3 0 -2.06436e+06 65336.1 0 -2.06542e+06 67979.1 0 -2.06651e+06 70625.4 0 -2.06765e+06 73275.1 0 -2.06883e+06 75928.5 0 -2.07005e+06 78585.4 0 -2.07132e+06 81246.3 0 -2.05004e+06 0 0 -2.05007e+06 2713.75 0 -2.05013e+06 5427.73 0 -2.05024e+06 8142.08 0 -2.0504e+06 10857 0 -2.0506e+06 13572.5 0 -2.05084e+06 16288.8 0 -2.05113e+06 19006.1 0 -2.05146e+06 21724.4 0 -2.05183e+06 24443.9 0 -2.05225e+06 27164.7 0 -2.05271e+06 29886.8 0 -2.05322e+06 32610.3 0 -2.05377e+06 35335.4 0 -2.05436e+06 38062.2 0 -2.055e+06 40790.9 0 -2.05569e+06 43521.5 0 -2.05642e+06 46254.5 0 -2.05719e+06 48990.1 0 -2.05801e+06 51728.4 0 -2.05887e+06 54469.8 0 -2.05977e+06 57214.4 0 -2.06073e+06 59962.4 0 -2.06172e+06 62713.7 0 -2.06276e+06 65468.5 0 -2.06384e+06 68226.8 0 -2.06497e+06 70988.7 0 -2.06614e+06 73754.3 0 -2.06736e+06 76523.8 0 -2.06862e+06 79297.3 0 -2.06993e+06 82074.8 0 -2.07128e+06 84856.9 0 -2.04862e+06 0 0 -2.04864e+06 2829.25 0 -2.04871e+06 5658.76 0 -2.04883e+06 8488.67 0 -2.04899e+06 11319.2 0 -2.04921e+06 14150.4 0 -2.04946e+06 16982.5 0 -2.04977e+06 19815.6 0 -2.05012e+06 22649.8 0 -2.05052e+06 25485.4 0 -2.05097e+06 28322.3 0 -2.05146e+06 31160.8 0 -2.052e+06 34000.9 0 -2.05259e+06 36842.7 0 -2.05323e+06 39686.5 0 -2.05391e+06 42532.5 0 -2.05464e+06 45380.8 0 -2.05542e+06 48231.7 0 -2.05624e+06 51085.5 0 -2.05711e+06 53942.4 0 -2.05803e+06 56802.7 0 -2.059e+06 59666.5 0 -2.06001e+06 62533.9 0 -2.06108e+06 65404.9 0 -2.06218e+06 68279.8 0 -2.06334e+06 71158.5 0 -2.06454e+06 74041.3 0 -2.0658e+06 76928.2 0 -2.0671e+06 79819.4 0 -2.06844e+06 82715.1 0 -2.06984e+06 85615.3 0 -2.07128e+06 88520.6 0 -2.04718e+06 0 0 -2.0472e+06 2946.27 0 -2.04728e+06 5892.81 0 -2.0474e+06 8839.8 0 -2.04758e+06 11787.4 0 -2.0478e+06 14735.8 0 -2.04808e+06 17685.2 0 -2.04841e+06 20635.7 0 -2.04878e+06 23587.4 0 -2.04921e+06 26540.6 0 -2.04968e+06 29495.3 0 -2.05021e+06 32451.7 0 -2.05078e+06 35410 0 -2.05141e+06 38370.2 0 -2.05209e+06 41332.7 0 -2.05281e+06 44297.6 0 -2.05359e+06 47265.2 0 -2.05442e+06 50235.7 0 -2.05529e+06 53209.5 0 -2.05622e+06 56186.7 0 -2.0572e+06 59167.6 0 -2.05823e+06 62152.2 0 -2.05931e+06 65140.8 0 -2.06044e+06 68133.5 0 -2.06162e+06 71130.2 0 -2.06285e+06 74131.3 0 -2.06414e+06 77136.8 0 -2.06547e+06 80147 0 -2.06685e+06 83162 0 -2.06829e+06 86181.9 0 -2.06977e+06 89207.1 0 -2.07131e+06 92237.8 0 -2.04572e+06 0 0 -2.04575e+06 3064.79 0 -2.04583e+06 6129.87 0 -2.04597e+06 9195.44 0 -2.04615e+06 12261.7 0 -2.04639e+06 15328.8 0 -2.04669e+06 18397 0 -2.04703e+06 21466.4 0 -2.04743e+06 24537.2 0 -2.04788e+06 27609.5 0 -2.04839e+06 30683.6 0 -2.04895e+06 33759.6 0 -2.04956e+06 36837.6 0 -2.05022e+06 39917.9 0 -2.05094e+06 43000.7 0 -2.05171e+06 46086.2 0 -2.05254e+06 49174.8 0 -2.05342e+06 52266.6 0 -2.05435e+06 55362 0 -2.05534e+06 58461.2 0 -2.05638e+06 61564.4 0 -2.05747e+06 64671.7 0 -2.05862e+06 67783.3 0 -2.05982e+06 70899.3 0 -2.06107e+06 74019.9 0 -2.06238e+06 77145.2 0 -2.06374e+06 80275.5 0 -2.06516e+06 83410.9 0 -2.06663e+06 86551.7 0 -2.06816e+06 89698 0 -2.06974e+06 92850.1 0 -2.07137e+06 96008.4 0 -2.04426e+06 0 0 -2.04429e+06 3184.81 0 -2.04438e+06 6369.94 0 -2.04452e+06 9555.6 0 -2.04471e+06 12742 0 -2.04497e+06 15929.3 0 -2.04528e+06 19117.9 0 -2.04565e+06 22307.7 0 -2.04607e+06 25499.1 0 -2.04655e+06 28692.2 0 -2.04708e+06 31887.2 0 -2.04768e+06 35084.3 0 -2.04833e+06 38283.7 0 -2.04903e+06 41485.7 0 -2.04979e+06 44690.4 0 -2.05061e+06 47898.2 0 -2.05149e+06 51109.4 0 -2.05242e+06 54324.2 0 -2.05341e+06 57543 0 -2.05446e+06 60765.8 0 -2.05556e+06 63993 0 -2.05672e+06 67224.8 0 -2.05794e+06 70461.1 0 -2.05921e+06 73702.4 0 -2.06054e+06 76948.7 0 -2.06193e+06 80200.3 0 -2.06337e+06 83457.3 0 -2.06487e+06 86720 0 -2.06643e+06 89988.7 0 -2.06805e+06 93263.5 0 -2.06973e+06 96544.7 0 -2.07146e+06 99832.8 0 -2.04279e+06 0 0 -2.04282e+06 3306.33 0 -2.04291e+06 6613 0 -2.04306e+06 9920.25 0 -2.04327e+06 13228.3 0 -2.04354e+06 16537.4 0 -2.04386e+06 19847.7 0 -2.04425e+06 23159.6 0 -2.0447e+06 26473.1 0 -2.04521e+06 29788.5 0 -2.04577e+06 33106 0 -2.0464e+06 36425.8 0 -2.04709e+06 39748.2 0 -2.04783e+06 43073.5 0 -2.04864e+06 46401.8 0 -2.04951e+06 49733.6 0 -2.05044e+06 53069.1 0 -2.05142e+06 56408.6 0 -2.05247e+06 59752.3 0 -2.05358e+06 63100.6 0 -2.05475e+06 66453.6 0 -2.05597e+06 69811.5 0 -2.05726e+06 73174.5 0 -2.05861e+06 76542.9 0 -2.06002e+06 79916.8 0 -2.06149e+06 83296.6 0 -2.06302e+06 86682.3 0 -2.06461e+06 90074.4 0 -2.06626e+06 93473 0 -2.06797e+06 96878.4 0 -2.06975e+06 100291 0 -2.07158e+06 103711 0 -2.0413e+06 0 0 -2.04133e+06 3429.33 0 -2.04143e+06 6859.04 0 -2.04158e+06 10289.4 0 -2.04181e+06 13720.6 0 -2.04209e+06 17152.9 0 -2.04244e+06 20586.7 0 -2.04285e+06 24022 0 -2.04332e+06 27459.2 0 -2.04386e+06 30898.4 0 -2.04446e+06 34340 0 -2.04512e+06 37784.2 0 -2.04584e+06 41231.2 0 -2.04663e+06 44681.3 0 -2.04749e+06 48134.9 0 -2.0484e+06 51592.3 0 -2.04938e+06 55053.7 0 -2.05043e+06 58519.6 0 -2.05153e+06 61990.1 0 -2.0527e+06 65465.4 0 -2.05394e+06 68946 0 -2.05523e+06 72431.9 0 -2.0566e+06 75923.4 0 -2.05802e+06 79420.8 0 -2.05951e+06 82924.3 0 -2.06106e+06 86434.1 0 -2.06268e+06 89950.7 0 -2.06436e+06 93474.1 0 -2.06611e+06 97004.8 0 -2.06792e+06 100543 0 -2.06979e+06 104089 0 -2.07173e+06 107643 0 -2.0398e+06 0 0 -2.03983e+06 3553.83 0 -2.03993e+06 7108.07 0 -2.0401e+06 10663 0 -2.04033e+06 14218.9 0 -2.04063e+06 17776 0 -2.041e+06 21334.6 0 -2.04143e+06 24894.9 0 -2.04193e+06 28457.3 0 -2.0425e+06 32022 0 -2.04313e+06 35589.2 0 -2.04383e+06 39159.3 0 -2.0446e+06 42732.5 0 -2.04543e+06 46309.1 0 -2.04633e+06 49889.6 0 -2.0473e+06 53474.2 0 -2.04833e+06 57063.3 0 -2.04943e+06 60657.2 0 -2.0506e+06 64256.1 0 -2.05183e+06 67860.4 0 -2.05313e+06 71470.2 0 -2.0545e+06 75086 0 -2.05594e+06 78707.8 0 -2.05744e+06 82336.1 0 -2.05902e+06 85971.1 0 -2.06065e+06 89613.1 0 -2.06236e+06 93262.3 0 -2.06414e+06 96919.2 0 -2.06598e+06 100584 0 -2.06789e+06 104257 0 -2.06987e+06 107939 0 -2.07192e+06 111630 0 -2.03829e+06 0 0 -2.03832e+06 3679.81 0 -2.03843e+06 7360.06 0 -2.03861e+06 11041 0 -2.03885e+06 14723.1 0 -2.03917e+06 18406.4 0 -2.03955e+06 22091.4 0 -2.04001e+06 25778.3 0 -2.04054e+06 29467.4 0 -2.04113e+06 33159.1 0 -2.0418e+06 36853.5 0 -2.04253e+06 40551.1 0 -2.04334e+06 44252.1 0 -2.04422e+06 47956.9 0 -2.04517e+06 51665.9 0 -2.04619e+06 55379.4 0 -2.04727e+06 59097.8 0 -2.04843e+06 62821.3 0 -2.04966e+06 66550.4 0 -2.05097e+06 70285.3 0 -2.05234e+06 74026.3 0 -2.05378e+06 77773.7 0 -2.05529e+06 81527.8 0 -2.05688e+06 85288.9 0 -2.05853e+06 89057.3 0 -2.06026e+06 92833.4 0 -2.06206e+06 96617.4 0 -2.06393e+06 100410 0 -2.06587e+06 104211 0 -2.06789e+06 108021 0 -2.06997e+06 111841 0 -2.07213e+06 115670 0 -2.03676e+06 0 0 -2.0368e+06 3807.27 0 -2.03691e+06 7615.02 0 -2.0371e+06 11423.6 0 -2.03736e+06 15233.2 0 -2.03769e+06 19044.3 0 -2.0381e+06 22857.2 0 -2.03858e+06 26672.2 0 -2.03913e+06 30489.6 0 -2.03976e+06 34309.7 0 -2.04046e+06 38132.9 0 -2.04123e+06 41959.5 0 -2.04208e+06 45790 0 -2.043e+06 49624.5 0 -2.044e+06 53463.7 0 -2.04507e+06 57307.7 0 -2.04622e+06 61157 0 -2.04744e+06 65012 0 -2.04873e+06 68873 0 -2.0501e+06 72740.3 0 -2.05154e+06 76614.2 0 -2.05306e+06 80495.1 0 -2.05466e+06 84383.2 0 -2.05632e+06 88279 0 -2.05806e+06 92182.9 0 -2.05988e+06 96095.1 0 -2.06177e+06 100016 0 -2.06374e+06 103946 0 -2.06579e+06 107886 0 -2.06791e+06 111835 0 -2.0701e+06 115795 0 -2.07237e+06 119766 0 -2.03523e+06 0 0 -2.03527e+06 3936.21 0 -2.03539e+06 7872.92 0 -2.03558e+06 11810.5 0 -2.03585e+06 15749.3 0 -2.0362e+06 19689.7 0 -2.03663e+06 23631.9 0 -2.03713e+06 27576.5 0 -2.03771e+06 31523.7 0 -2.03837e+06 35473.9 0 -2.03911e+06 39427.4 0 -2.03992e+06 43384.7 0 -2.04082e+06 47346.1 0 -2.04178e+06 51312 0 -2.04283e+06 55282.9 0 -2.04396e+06 59259.1 0 -2.04516e+06 63241.1 0 -2.04644e+06 67229.2 0 -2.0478e+06 71223.8 0 -2.04924e+06 75225.2 0 -2.05076e+06 79233.9 0 -2.05235e+06 83250.1 0 -2.05403e+06 87274.2 0 -2.05578e+06 91306.7 0 -2.05761e+06 95347.9 0 -2.05952e+06 99398.3 0 -2.06151e+06 103458 0 -2.06358e+06 107528 0 -2.06572e+06 111608 0 -2.06795e+06 115699 0 -2.07026e+06 119801 0 -2.07264e+06 123915 0 -2.03368e+06 0 0 -2.03372e+06 4066.61 0 -2.03385e+06 8133.77 0 -2.03405e+06 12201.9 0 -2.03434e+06 16271.3 0 -2.0347e+06 20342.4 0 -2.03515e+06 24415.5 0 -2.03568e+06 28491.2 0 -2.03629e+06 32569.7 0 -2.03698e+06 36651.5 0 -2.03775e+06 40736.9 0 -2.03861e+06 44826.4 0 -2.03954e+06 48920.3 0 -2.04056e+06 53019.3 0 -2.04166e+06 57123.5 0 -2.04284e+06 61233.6 0 -2.0441e+06 65349.9 0 -2.04545e+06 69472.9 0 -2.04688e+06 73602.8 0 -2.04838e+06 77740.2 0 -2.04998e+06 81885.4 0 -2.05165e+06 86038.8 0 -2.0534e+06 90200.8 0 -2.05524e+06 94371.9 0 -2.05716e+06 98552.5 0 -2.05917e+06 102743 0 -2.06126e+06 106944 0 -2.06343e+06 111156 0 -2.06568e+06 115379 0 -2.06802e+06 119613 0 -2.07044e+06 123860 0 -2.07295e+06 128120 0 -2.03212e+06 0 0 -2.03217e+06 4198.49 0 -2.0323e+06 8397.55 0 -2.03251e+06 12597.6 0 -2.03281e+06 16799.1 0 -2.03319e+06 21002.4 0 -2.03366e+06 25208 0 -2.03422e+06 29416.3 0 -2.03485e+06 33627.6 0 -2.03558e+06 37842.5 0 -2.03639e+06 42061.4 0 -2.03728e+06 46284.6 0 -2.03827e+06 50512.8 0 -2.03933e+06 54746.3 0 -2.04048e+06 58985.6 0 -2.04172e+06 63231.2 0 -2.04304e+06 67483.5 0 -2.04445e+06 71742.9 0 -2.04595e+06 76010 0 -2.04753e+06 80285.1 0 -2.0492e+06 84568.6 0 -2.05095e+06 88861.1 0 -2.05279e+06 93162.9 0 -2.05472e+06 97474.6 0 -2.05673e+06 101797 0 -2.05883e+06 106129 0 -2.06102e+06 110473 0 -2.0633e+06 114829 0 -2.06566e+06 119197 0 -2.06811e+06 123578 0 -2.07065e+06 127972 0 -2.07328e+06 132380 0 -2.03055e+06 0 0 -2.0306e+06 4331.82 0 -2.03073e+06 8664.26 0 -2.03096e+06 12997.8 0 -2.03127e+06 17332.8 0 -2.03167e+06 21669.9 0 -2.03216e+06 26009.3 0 -2.03274e+06 30351.7 0 -2.03341e+06 34697.4 0 -2.03417e+06 39046.9 0 -2.03502e+06 43400.8 0 -2.03595e+06 47759.4 0 -2.03698e+06 52123.3 0 -2.0381e+06 56493 0 -2.0393e+06 60868.9 0 -2.0406e+06 65251.7 0 -2.04198e+06 69641.7 0 -2.04346e+06 74039.4 0 -2.04502e+06 78445.3 0 -2.04668e+06 82859.9 0 -2.04843e+06 87283.7 0 -2.05026e+06 91717.1 0 -2.05219e+06 96160.6 0 -2.05421e+06 100615 0 -2.05631e+06 105080 0 -2.05851e+06 109557 0 -2.0608e+06 114046 0 -2.06319e+06 118548 0 -2.06566e+06 123064 0 -2.06823e+06 127593 0 -2.07088e+06 132136 0 -2.07364e+06 136695 0 -2.02897e+06 0 0 -2.02902e+06 4466.61 0 -2.02916e+06 8933.88 0 -2.02939e+06 13402.3 0 -2.02972e+06 17872.4 0 -2.03014e+06 22344.6 0 -2.03065e+06 26819.4 0 -2.03126e+06 31297.4 0 -2.03196e+06 35779 0 -2.03275e+06 40264.7 0 -2.03364e+06 44755.1 0 -2.03462e+06 49250.6 0 -2.03569e+06 53751.9 0 -2.03686e+06 58259.3 0 -2.03812e+06 62773.6 0 -2.03947e+06 67295.2 0 -2.04092e+06 71824.5 0 -2.04246e+06 76362.2 0 -2.0441e+06 80908.8 0 -2.04583e+06 85464.7 0 -2.04766e+06 90030.5 0 -2.04958e+06 94606.7 0 -2.05159e+06 99193.9 0 -2.0537e+06 103793 0 -2.05591e+06 108403 0 -2.05821e+06 113027 0 -2.0606e+06 117663 0 -2.06309e+06 122314 0 -2.06568e+06 126979 0 -2.06837e+06 131658 0 -2.07115e+06 136354 0 -2.07402e+06 141065 0 -2.02738e+06 0 0 -2.02743e+06 4602.85 0 -2.02757e+06 9206.41 0 -2.02782e+06 13811.2 0 -2.02816e+06 18417.8 0 -2.0286e+06 23026.7 0 -2.02913e+06 27638.4 0 -2.02977e+06 32253.4 0 -2.0305e+06 36872.4 0 -2.03133e+06 41495.8 0 -2.03225e+06 46124.3 0 -2.03327e+06 50758.3 0 -2.0344e+06 55398.4 0 -2.03561e+06 60045.3 0 -2.03693e+06 64699.5 0 -2.03835e+06 69361.5 0 -2.03986e+06 74032 0 -2.04147e+06 78711.4 0 -2.04318e+06 83400.4 0 -2.04499e+06 88099.4 0 -2.04689e+06 92809.1 0 -2.0489e+06 97530 0 -2.051e+06 102263 0 -2.05321e+06 107008 0 -2.05551e+06 111766 0 -2.05791e+06 116538 0 -2.06042e+06 121324 0 -2.06302e+06 126125 0 -2.06572e+06 130942 0 -2.06853e+06 135774 0 -2.07143e+06 140624 0 -2.07444e+06 145491 0 -2.02577e+06 0 0 -2.02582e+06 4740.54 0 -2.02598e+06 9481.83 0 -2.02623e+06 14224.5 0 -2.02659e+06 18969 0 -2.02704e+06 23716 0 -2.0276e+06 28466 0 -2.02826e+06 33219.7 0 -2.02903e+06 37977.5 0 -2.02989e+06 42740.2 0 -2.03086e+06 47508.2 0 -2.03192e+06 52282.3 0 -2.03309e+06 57063 0 -2.03437e+06 61850.9 0 -2.03574e+06 66646.6 0 -2.03722e+06 71450.8 0 -2.03879e+06 76264 0 -2.04047e+06 81086.9 0 -2.04226e+06 85920 0 -2.04414e+06 90764 0 -2.04613e+06 95619.4 0 -2.04823e+06 100487 0 -2.05042e+06 105367 0 -2.05272e+06 110261 0 -2.05513e+06 115169 0 -2.05763e+06 120091 0 -2.06025e+06 125029 0 -2.06296e+06 129983 0 -2.06579e+06 134953 0 -2.06871e+06 139941 0 -2.07174e+06 144947 0 -2.07488e+06 149973 0 -2.02415e+06 0 0 -2.02421e+06 4879.67 0 -2.02437e+06 9760.14 0 -2.02463e+06 14642 0 -2.025e+06 19526 0 -2.02548e+06 24412.6 0 -2.02606e+06 29302.4 0 -2.02675e+06 34196.2 0 -2.02755e+06 39094.4 0 -2.02845e+06 43997.8 0 -2.02945e+06 48907 0 -2.03057e+06 53822.7 0 -2.03179e+06 58745.4 0 -2.03311e+06 63676 0 -2.03454e+06 68614.9 0 -2.03608e+06 73562.9 0 -2.03773e+06 78520.6 0 -2.03948e+06 83488.6 0 -2.04134e+06 88467.7 0 -2.04331e+06 93458.4 0 -2.04538e+06 98461.5 0 -2.04756e+06 103478 0 -2.04985e+06 108507 0 -2.05225e+06 113551 0 -2.05475e+06 118611 0 -2.05737e+06 123686 0 -2.06009e+06 128778 0 -2.06293e+06 133886 0 -2.06587e+06 139013 0 -2.06892e+06 144159 0 -2.07208e+06 149324 0 -2.07535e+06 154510 0 -2.02252e+06 0 0 -2.02258e+06 5020.23 0 -2.02275e+06 10041.3 0 -2.02302e+06 15063.9 0 -2.02341e+06 20088.7 0 -2.02391e+06 25116.4 0 -2.02451e+06 30147.5 0 -2.02523e+06 35182.8 0 -2.02606e+06 40223 0 -2.027e+06 45268.6 0 -2.02804e+06 50320.5 0 -2.0292e+06 55379.4 0 -2.03047e+06 60445.8 0 -2.03185e+06 65520.5 0 -2.03334e+06 70604.3 0 -2.03495e+06 75697.7 0 -2.03666e+06 80801.6 0 -2.03848e+06 85916.6 0 -2.04042e+06 91043.4 0 -2.04247e+06 96182.7 0 -2.04463e+06 101335 0 -2.0469e+06 106502 0 -2.04929e+06 111683 0 -2.05178e+06 116880 0 -2.05439e+06 122093 0 -2.05712e+06 127323 0 -2.05995e+06 132570 0 -2.0629e+06 137837 0 -2.06597e+06 143122 0 -2.06915e+06 148428 0 -2.07244e+06 153755 0 -2.07585e+06 159104 0 -2.02088e+06 0 0 -2.02094e+06 5162.23 0 -2.02111e+06 10325.4 0 -2.0214e+06 15490.2 0 -2.0218e+06 20657.3 0 -2.02232e+06 25827.4 0 -2.02295e+06 31001.3 0 -2.0237e+06 36179.6 0 -2.02456e+06 41363.2 0 -2.02554e+06 46552.6 0 -2.02663e+06 51748.8 0 -2.02783e+06 56952.3 0 -2.02915e+06 62164 0 -2.03059e+06 67384.5 0 -2.03214e+06 72614.8 0 -2.03381e+06 77855.4 0 -2.03559e+06 83107.1 0 -2.03749e+06 88370.8 0 -2.0395e+06 93647.1 0 -2.04163e+06 98936.8 0 -2.04388e+06 104241 0 -2.04625e+06 109560 0 -2.04873e+06 114894 0 -2.05133e+06 120245 0 -2.05404e+06 125614 0 -2.05688e+06 131001 0 -2.05983e+06 136407 0 -2.0629e+06 141833 0 -2.06609e+06 147280 0 -2.0694e+06 152748 0 -2.07283e+06 158239 0 -2.07638e+06 163754 0 -2.01923e+06 0 0 -2.01929e+06 5305.66 0 -2.01947e+06 10612.3 0 -2.01977e+06 15920.7 0 -2.02019e+06 21231.5 0 -2.02073e+06 26545.6 0 -2.02138e+06 31863.7 0 -2.02216e+06 37186.6 0 -2.02305e+06 42515 0 -2.02407e+06 47849.8 0 -2.0252e+06 53191.6 0 -2.02645e+06 58541.4 0 -2.02783e+06 63899.9 0 -2.02932e+06 69268 0 -2.03093e+06 74646.3 0 -2.03266e+06 80035.7 0 -2.03452e+06 85437.1 0 -2.03649e+06 90851.1 0 -2.03859e+06 96278.7 0 -2.0408e+06 101721 0 -2.04314e+06 107178 0 -2.0456e+06 112651 0 -2.04818e+06 118141 0 -2.05088e+06 123649 0 -2.0537e+06 129176 0 -2.05665e+06 134722 0 -2.05972e+06 140288 0 -2.06291e+06 145876 0 -2.06623e+06 151486 0 -2.06967e+06 157120 0 -2.07324e+06 162777 0 -2.07693e+06 168461 0 </DataArray> 
</PointData> 
<Points> 
<DataArray type="Float32" NumberOfComponents="3"> 