<?xml version="1.0"?> 
<VTKFile type="StructuredGrid" version="0.1"> 
<StructuredGrid WholeExtent="0 31 0 31 0 0"> 
<Piece Extent="0 31 0 31 0 0"> 
<PointData>
<DataArray type="Float32" Name="|E|" format="ascii" NumberOfComponents="3"> 
-2.07332e+06 47713.2 0 -2.08243e+06 65072.4 0 -2.09393e+06 82166.2 0 -2.10789e+06 99085 0 -2.12434e+06 115868 0 -2.14332e+06 132565 0 -2.16492e+06 149226 0 -2.1892e+06 165904 0 -2.21624e+06 182652 0 -2.24614e+06 199525 0 -2.27902e+06 216579 0 -2.315e+06 233871 0 -2.35423e+06 251456 0 -2.39689e+06 269388 0 -2.44316e+06 287710 0 -2.49329e+06 306455 0 -2.54754e+06 325629 0 -2.60622e+06 345201 0 -2.6697e+06 365075 0 -2.73842e+06 385056 0 -2.81288e+06 404790 0 -2.89365e+06 423686 0 -2.98137e+06 440785 0 -3.07666e+06 454579 0 -3.17999e+06 462728 0 -3.29141e+06 461745 0 -3.40988e+06 446769 0 -3.53186e+06 411644 0 -3.64928e+06 349559 0 -3.74833e+06 255669 0 -3.81289e+06 131624 0 -3.83513e+06 0 0 -2.07296e+06 50807.9 0 -2.08232e+06 68266.5 0 -2.09406e+06 85493.4 0 -2.10823e+06 102567 0 -2.12486e+06 119529 0 -2.14402e+06 136428 0 -2.16576e+06 153317 0 -2.19016e+06 170249 0 -2.2173e+06 187277 0 -2.24728e+06 204460 0 -2.2802e+06 221853 0 -2.31621e+06 239517 0 -2.35544e+06 257509 0 -2.39807e+06 275885 0 -2.44429e+06 294693 0 -2.49434e+06 313968 0 -2.54849e+06 333723 0 -2.60705e+06 353931 0 -2.67041e+06 374506 0 -2.739e+06 395258 0 -2.81336e+06 415846 0 -2.89411e+06 435687 0 -2.98192e+06 453833 0 -3.07751e+06 468773 0 -3.18152e+06 478146 0 -3.29416e+06 478390 0 -3.41465e+06 464443 0 -3.53967e+06 429670 0 -3.6613e+06 366513 0 -3.76533e+06 269228 0 -3.83433e+06 139953 0 -3.85593e+06 -5.96046e-08 0 -2.07262e+06 53951.8 0 -2.08224e+06 71513.8 0 -2.09421e+06 88875.1 0 -2.10859e+06 106105 0 -2.12541e+06 123246 0 -2.14472e+06 140348 0 -2.16661e+06 157465 0 -2.19112e+06 174651 0 -2.21835e+06 191961 0 -2.2484e+06 209453 0 -2.28137e+06 227186 0 -2.3174e+06 245222 0 -2.35662e+06 263621 0 -2.39922e+06 282441 0 -2.44538e+06 301734 0 -2.49534e+06 321540 0 -2.54938e+06 341876 0 -2.60781e+06 362723 0 -2.67103e+06 384000 0 -2.7395e+06 405530 0 -2.81375e+06 426981 0 -2.89446e+06 447784 0 -2.98235e+06 467003 0 -3.07825e+06 483131 0 -3.18293e+06 493793 0 -3.29681e+06 495362 0 -3.41937e+06 482575 0 -3.54759e+06 448328 0 -3.67373e+06 384253 0 -3.78317e+06 283644 0 -3.85682e+06 148654 0 -3.8786e+06 -2.08616e-07 0 -2.07233e+06 57145.3 0 -2.08218e+06 74814.8 0 -2.09438e+06 92311.2 0 -2.10896e+06 109698 0 -2.12596e+06 127019 0 -2.14544e+06 144325 0 -2.16745e+06 161671 0 -2.19208e+06 179112 0 -2.2194e+06 196703 0 -2.24952e+06 214504 0 -2.28253e+06 232578 0 -2.31857e+06 250985 0 -2.35778e+06 269791 0 -2.40033e+06 289055 0 -2.44642e+06 308834 0 -2.49629e+06 329171 0 -2.55021e+06 350089 0 -2.60851e+06 371576 0 -2.67158e+06 393559 0 -2.7399e+06 415872 0 -2.81405e+06 438196 0 -2.8947e+06 459978 0 -2.98267e+06 480297 0 -3.07886e+06 497656 0 -3.1842e+06 509676 0 -3.29935e+06 512671 0 -3.42404e+06 501191 0 -3.55562e+06 467656 0 -3.68656e+06 402846 0 -3.80187e+06 298974 0 -3.88053e+06 157826 0 -3.90313e+06 4.09782e-07 0 -2.07206e+06 60390.3 0 -2.08216e+06 78169.5 0 -2.09458e+06 95801.9 0 -2.10936e+06 113346 0 -2.12653e+06 130848 0 -2.14616e+06 148359 0 -2.16831e+06 165935 0 -2.19304e+06 183630 0 -2.22045e+06 201503 0 -2.25062e+06 219615 0 -2.28366e+06 238028 0 -2.31971e+06 256808 0 -2.3589e+06 276020 0 -2.4014e+06 295728 0 -2.44742e+06 315992 0 -2.49719e+06 336861 0 -2.55099e+06 358362 0 -2.60914e+06 380491 0 -2.67206e+06 403183 0 -2.74023e+06 426284 0 -2.81424e+06 449491 0 -2.89483e+06 472269 0 -2.98286e+06 493715 0 -3.07934e+06 512351 0 -3.18534e+06 525798 0 -3.30175e+06 530329 0 -3.42863e+06 520310 0 -3.56371e+06 487697 0 -3.69978e+06 422362 0 -3.82145e+06 315291 0 -3.90559e+06 167563 0 -3.92955e+06 1.49012e-08 0 -2.07183e+06 63687 0 -2.08217e+06 81577.9 0 -2.0948e+06 99347.3 0 -2.10977e+06 117050 0 -2.12711e+06 134733 0 -2.14689e+06 152451 0 -2.16917e+06 170256 0 -2.194e+06 188207 0 -2.22148e+06 206362 0 -2.25171e+06 224784 0 -2.28478e+06 243537 0 -2.32083e+06 262689 0 -2.35999e+06 282307 0 -2.40244e+06 302460 0 -2.44838e+06 323209 0 -2.49804e+06 344609 0 -2.5517e+06 366694 0 -2.6097e+06 389466 0 -2.67245e+06 412871 0 -2.74046e+06 436767 0 -2.81433e+06 460868 0 -2.89484e+06 484657 0 -2.98292e+06 507258 0 -3.07967e+06 527216 0 -3.18632e+06 542166 0 -3.30399e+06 548345 0 -3.43311e+06 539955 0 -3.57185e+06 508492 0 -3.71335e+06 442875 0 -3.84192e+06 332684 0 -3.93214e+06 177963 0 -3.95796e+06 -2.38419e-07 0 -2.07163e+06 67035.9 0 -2.0822e+06 85040.2 0 -2.09504e+06 102948 0 -2.1102e+06 120810 0 -2.12771e+06 138676 0 -2.14763e+06 156599 0 -2.17003e+06 174635 0 -2.19496e+06 192842 0 -2.22251e+06 211279 0 -2.25279e+06 230011 0 -2.28588e+06 249105 0 -2.32192e+06 268629 0 -2.36105e+06 288653 0 -2.40344e+06 309250 0 -2.44929e+06 330485 0 -2.49883e+06 352417 0 -2.55235e+06 375086 0 -2.61019e+06 398503 0 -2.67277e+06 422624 0 -2.74059e+06 447320 0 -2.81431e+06 472324 0 -2.89473e+06 497143 0 -2.98284e+06 520928 0 -3.07984e+06 542256 0 -3.18712e+06 558782 0 -3.30607e+06 566727 0 -3.43746e+06 560146 0 -3.57999e+06 530084 0 -3.72727e+06 464464 0 -3.86332e+06 351257 0 -3.96032e+06 189132 0 -3.98847e+06 1.19209e-07 0 -2.07147e+06 70437 0 -2.08226e+06 88556.5 0 -2.09531e+06 106603 0 -2.11065e+06 124625 0 -2.12832e+06 142675 0 -2.14838e+06 160805 0 -2.17089e+06 179072 0 -2.19591e+06 197535 0 -2.22354e+06 216255 0 -2.25385e+06 235298 0 -2.28696e+06 254731 0 -2.32299e+06 274627 0 -2.36208e+06 295058 0 -2.4044e+06 316099 0 -2.45015e+06 337819 0 -2.49957e+06 360283 0 -2.55294e+06 383537 0 -2.61061e+06 407600 0 -2.673e+06 432441 0 -2.74064e+06 457944 0 -2.81419e+06 483861 0 -2.8945e+06 509727 0 -2.98262e+06 534726 0 -3.07985e+06 557470 0 -3.18774e+06 575650 0 -3.30794e+06 585486 0 -3.44164e+06 580904 0 -3.58809e+06 552518 0 -3.74148e+06 487211 0 -3.88566e+06 371130 0 -3.99027e+06 201186 0 -4.02125e+06 -7.45058e-08 0 -2.07134e+06 73890.7 0 -2.08235e+06 92126.8 0 -2.0956e+06 110313 0 -2.11112e+06 128497 0 -2.12895e+06 146730 0 -2.14914e+06 165068 0 -2.17176e+06 183567 0 -2.19687e+06 202286 0 -2.22455e+06 221290 0 -2.2549e+06 240643 0 -2.28802e+06 260417 0 -2.32403e+06 280684 0 -2.36307e+06 301522 0 -2.40532e+06 323006 0 -2.45097e+06 345211 0 -2.50026e+06 368207 0 -2.55347e+06 392047 0 -2.61095e+06 416759 0 -2.67314e+06 442321 0 -2.74058e+06 468637 0 -2.81396e+06 495479 0 -2.89414e+06 522410 0 -2.98225e+06 548650 0 -3.07968e+06 572859 0 -3.18816e+06 592774 0 -3.3096e+06 604627 0 -3.44562e+06 602249 0 -3.59611e+06 575839 0 -3.75596e+06 511206 0 -3.90898e+06 392443 0 -4.02214e+06 214256 0 -4.05649e+06 2.08616e-07 0 -2.07124e+06 77397.1 0 -2.08247e+06 95751.4 0 -2.09591e+06 114078 0 -2.1116e+06 132425 0 -2.12958e+06 150843 0 -2.1499e+06 169389 0 -2.17262e+06 188120 0 -2.19782e+06 207096 0 -2.22556e+06 226383 0 -2.25593e+06 246047 0 -2.28906e+06 266161 0 -2.32504e+06 286800 0 -2.36404e+06 308044 0 -2.40621e+06 329971 0 -2.45174e+06 352662 0 -2.50089e+06 376190 0 -2.55393e+06 400617 0 -2.61122e+06 425978 0 -2.6732e+06 452266 0 -2.74043e+06 479400 0 -2.81361e+06 507176 0 -2.89365e+06 535190 0 -2.98172e+06 562702 0 -3.07933e+06 588425 0 -3.18837e+06 610154 0 -3.31102e+06 624158 0 -3.44936e+06 624197 0 -3.604e+06 600090 0 -3.77065e+06 536546 0 -3.93328e+06 415350 0 -4.0561e+06 228494 0 -4.09442e+06 -1.78814e-07 0 -2.07117e+06 80956.4 0 -2.08262e+06 99430.2 0 -2.09625e+06 117899 0 -2.11211e+06 136408 0 -2.13023e+06 155013 0 -2.15067e+06 173768 0 -2.1735e+06 192731 0 -2.19876e+06 211965 0 -2.22655e+06 231535 0 -2.25696e+06 251510 0 -2.29008e+06 271964 0 -2.32603e+06 292975 0 -2.36497e+06 314624 0 -2.40705e+06 336995 0 -2.45247e+06 360171 0 -2.50146e+06 384231 0 -2.55433e+06 409244 0 -2.61142e+06 435257 0 -2.67318e+06 462274 0 -2.74017e+06 490232 0 -2.81314e+06 518954 0 -2.89301e+06 548067 0 -2.98103e+06 576880 0 -3.07879e+06 604167 0 -3.18834e+06 627792 0 -3.31216e+06 644084 0 -3.45282e+06 646767 0 -3.6117e+06 625318 0 -3.78549e+06 563333 0 -3.95858e+06 440032 0 -4.09232e+06 244073 0 -4.13532e+06 1.19209e-07 0 -2.07114e+06 84568.7 0 -2.08279e+06 103163 0 -2.09661e+06 121775 0 -2.11263e+06 140449 0 -2.13089e+06 159240 0 -2.15145e+06 178204 0 -2.17437e+06 197401 0 -2.19971e+06 216892 0 -2.22754e+06 236746 0 -2.25796e+06 257032 0 -2.29107e+06 277826 0 -2.327e+06 299208 0 -2.36586e+06 321263 0 -2.40785e+06 344076 0 -2.45314e+06 367737 0 -2.50198e+06 392330 0 -2.55466e+06 417931 0 -2.61153e+06 444596 0 -2.67306e+06 472345 0 -2.73982e+06 501133 0 -2.81255e+06 530810 0 -2.89223e+06 561040 0 -2.98016e+06 591184 0 -3.07803e+06 620084 0 -3.18805e+06 645689 0 -3.31301e+06 664409 0 -3.45596e+06 669972 0 -3.61914e+06 651564 0 -3.80041e+06 591673 0 -3.98486e+06 466690 0 -4.131e+06 261201 0 -4.17953e+06 -5.96046e-08 0 -2.07114e+06 88234.4 0 -2.08299e+06 106951 0 -2.09699e+06 125706 0 -2.11316e+06 144545 0 -2.13156e+06 163524 0 -2.15224e+06 182698 0 -2.17524e+06 202129 0 -2.20064e+06 221879 0 -2.22852e+06 242016 0 -2.25895e+06 262613 0 -2.29205e+06 283747 0 -2.32793e+06 305501 0 -2.36673e+06 327960 0 -2.4086e+06 351216 0 -2.45376e+06 375361 0 -2.50244e+06 400486 0 -2.55492e+06 426675 0 -2.61157e+06 453994 0 -2.67285e+06 482478 0 -2.73935e+06 512103 0 -2.81183e+06 542744 0 -2.89131e+06 574109 0 -2.97912e+06 605613 0 -3.07705e+06 636174 0 -3.1875e+06 663843 0 -3.31352e+06 685135 0 -3.45872e+06 693825 0 -3.62625e+06 678872 0 -3.81531e+06 621680 0 -4.01212e+06 495554 0 -4.17236e+06 280121 0 -4.22742e+06 5.96046e-08 0 -2.07117e+06 91953.4 0 -2.08321e+06 110794 0 -2.09739e+06 129693 0 -2.11372e+06 148699 0 -2.13225e+06 167865 0 -2.15303e+06 187250 0 -2.17612e+06 206915 0 -2.20158e+06 226923 0 -2.22949e+06 247345 0 -2.25993e+06 268253 0 -2.29301e+06 289727 0 -2.32883e+06 311851 0 -2.36755e+06 334715 0 -2.40932e+06 358414 0 -2.45433e+06 383043 0 -2.50283e+06 408700 0 -2.55511e+06 435478 0 -2.61153e+06 463452 0 -2.67255e+06 492674 0 -2.73878e+06 523139 0 -2.81099e+06 554756 0 -2.89023e+06 587272 0 -2.97788e+06 620165 0 -3.07584e+06 652437 0 -3.18666e+06 682253 0 -3.31368e+06 706261 0 -3.46106e+06 718337 0 -3.63295e+06 707280 0 -3.83009e+06 653470 0 -4.0403e+06 526883 0 -4.21665e+06 301125 0 -4.27947e+06 0 0 -2.07123e+06 95726 0 -2.08347e+06 114691 0 -2.09781e+06 133737 0 -2.11429e+06 152909 0 -2.13294e+06 172264 0 -2.15383e+06 191861 0 -2.17699e+06 211760 0 -2.20251e+06 232027 0 -2.23044e+06 252733 0 -2.26089e+06 273952 0 -2.29394e+06 295766 0 -2.32971e+06 318260 0 -2.36834e+06 341529 0 -2.40999e+06 365669 0 -2.45486e+06 390782 0 -2.50317e+06 416972 0 -2.55523e+06 444338 0 -2.6114e+06 472969 0 -2.67215e+06 502931 0 -2.73809e+06 534243 0 -2.81001e+06 566844 0 -2.88898e+06 600528 0 -2.97645e+06 634837 0 -3.07439e+06 668868 0 -3.1855e+06 700914 0 -3.31345e+06 727787 0 -3.46293e+06 743512 0 -3.63915e+06 736824 0 -3.84461e+06 687165 0 -4.06933e+06 560972 0 -4.26414e+06 324563 0 -4.33622e+06 0 0 -2.07132e+06 99552.4 0 -2.08375e+06 118643 0 -2.09825e+06 137836 0 -2.11487e+06 157176 0 -2.13365e+06 176721 0 -2.15463e+06 196530 0 -2.17787e+06 216664 0 -2.20343e+06 237190 0 -2.23139e+06 258180 0 -2.26183e+06 279710 0 -2.29485e+06 301863 0 -2.33056e+06 324728 0 -2.36909e+06 348401 0 -2.41062e+06 372982 0 -2.45533e+06 398579 0 -2.50345e+06 425300 0 -2.55528e+06 453255 0 -2.61119e+06 482544 0 -2.67166e+06 513248 0 -2.73729e+06 545412 0 -2.8089e+06 579007 0 -2.88758e+06 613874 0 -2.97482e+06 649627 0 -3.07268e+06 685464 0 -3.18402e+06 719823 0 -3.31279e+06 749707 0 -3.46425e+06 769354 0 -3.64474e+06 767533 0 -3.85873e+06 722884 0 -4.0991e+06 598153 0 -4.31513e+06 350863 0 -4.39837e+06 1.19209e-07 0 -2.07144e+06 103433 0 -2.08405e+06 122651 0 -2.09872e+06 141991 0 -2.11548e+06 161500 0 -2.13437e+06 181236 0 -2.15544e+06 201257 0 -2.17875e+06 221626 0 -2.20435e+06 242412 0 -2.23233e+06 263686 0 -2.26276e+06 285527 0 -2.29573e+06 308019 0 -2.33137e+06 331254 0 -2.36981e+06 355330 0 -2.4112e+06 380352 0 -2.45574e+06 406432 0 -2.50366e+06 433685 0 -2.55526e+06 462229 0 -2.6109e+06 492176 0 -2.67106e+06 523626 0 -2.73637e+06 556647 0 -2.80764e+06 591243 0 -2.886e+06 627309 0 -2.97297e+06 664533 0 -3.0707e+06 702221 0 -3.18219e+06 738973 0 -3.31166e+06 772015 0 -3.46497e+06 795860 0 -3.64963e+06 799433 0 -3.87226e+06 760745 0 -4.12945e+06 638798 0 -4.36995e+06 380547 0 -4.46672e+06 5.96046e-08 0 -2.0716e+06 107367 0 -2.08438e+06 126713 0 -2.0992e+06 146202 0 -2.11609e+06 165881 0 -2.13509e+06 185808 0 -2.15625e+06 206042 0 -2.17962e+06 226647 0 -2.20527e+06 247692 0 -2.23325e+06 269251 0 -2.26366e+06 291403 0 -2.2966e+06 314234 0 -2.33216e+06 337839 0 -2.37049e+06 362318 0 -2.41174e+06 387780 0 -2.4561e+06 414342 0 -2.50381e+06 442126 0 -2.55516e+06 471259 0 -2.61052e+06 501866 0 -2.67037e+06 534063 0 -2.73533e+06 567944 0 -2.80624e+06 603551 0 -2.88424e+06 640830 0 -2.97091e+06 679549 0 -3.06844e+06 719133 0 -3.17998e+06 758356 0 -3.31004e+06 794701 0 -3.46503e+06 823022 0 -3.65369e+06 832538 0 -3.88501e+06 800858 0 -4.16015e+06 683327 0 -4.42896e+06 414257 0 -4.5423e+06 0 0 -2.07178e+06 111355 0 -2.08474e+06 130831 0 -2.09971e+06 150470 0 -2.11673e+06 170320 0 -2.13583e+06 190438 0 -2.15707e+06 210886 0 -2.1805e+06 231728 0 -2.20617e+06 253032 0 -2.23416e+06 274876 0 -2.26455e+06 297338 0 -2.29743e+06 320508 0 -2.33292e+06 344482 0 -2.37113e+06 369363 0 -2.41223e+06 395265 0 -2.45641e+06 422309 0 -2.5039e+06 450623 0 -2.55499e+06 480345 0 -2.61005e+06 511612 0 -2.66957e+06 544559 0 -2.73417e+06 579304 0 -2.80469e+06 615929 0 -2.88231e+06 654435 0 -2.96861e+06 694672 0 -3.06588e+06 736193 0 -3.17738e+06 777964 0 -3.30789e+06 817752 0 -3.46435e+06 850827 0 -3.6568e+06 866855 0 -3.89672e+06 843322 0 -4.19086e+06 732205 0 -4.49253e+06 452793 0 -4.62637e+06 -5.96046e-08 0 -2.07199e+06 115398 0 -2.08512e+06 135005 0 -2.10023e+06 154795 0 -2.11737e+06 174816 0 -2.13658e+06 195127 0 -2.15789e+06 215789 0 -2.18137e+06 236867 0 -2.20707e+06 258432 0 -2.23506e+06 280559 0 -2.26542e+06 303332 0 -2.29825e+06 326841 0 -2.33364e+06 351183 0 -2.37173e+06 376466 0 -2.41268e+06 402807 0 -2.45666e+06 430331 0 -2.50392e+06 459176 0 -2.55474e+06 489486 0 -2.60949e+06 521414 0 -2.66866e+06 555111 0 -2.73288e+06 590725 0 -2.80299e+06 628374 0 -2.88018e+06 668119 0 -2.96608e+06 709898 0 -3.06301e+06 753395 0 -3.17437e+06 797784 0 -3.30517e+06 841151 0 -3.46287e+06 879254 0 -3.65882e+06 902376 0 -3.90714e+06 888215 0 -4.22115e+06 785943 0 -4.56105e+06 497158 0 -4.72055e+06 -2.98023e-07 0 -2.07224e+06 119496 0 -2.08552e+06 139234 0 -2.10078e+06 159176 0 -2.11803e+06 179369 0 -2.13734e+06 199874 0 -2.15872e+06 220750 0 -2.18225e+06 242065 0 -2.20797e+06 263890 0 -2.23595e+06 286302 0 -2.26627e+06 309386 0 -2.29903e+06 333232 0 -2.33433e+06 357943 0 -2.37229e+06 383627 0 -2.41307e+06 410405 0 -2.45686e+06 438410 0 -2.50387e+06 467784 0 -2.55441e+06 498682 0 -2.60884e+06 531270 0 -2.66765e+06 565720 0 -2.73146e+06 602205 0 -2.80114e+06 640885 0 -2.87786e+06 681880 0 -2.9633e+06 725220 0 -3.05982e+06 770729 0 -3.17091e+06 817803 0 -3.30184e+06 864879 0 -3.46051e+06 908274 0 -3.65961e+06 939082 0 -3.91597e+06 935585 0 -4.25041e+06 845093 0 -4.63489e+06 548621 0 -4.8269e+06 6.55651e-07 0 -2.07251e+06 123648 0 -2.08595e+06 143519 0 -2.10134e+06 163614 0 -2.11871e+06 183981 0 -2.1381e+06 204679 0 -2.15955e+06 225771 0 -2.18312e+06 247323 0 -2.20885e+06 269408 0 -2.23682e+06 292105 0 -2.26711e+06 315498 0 -2.29979e+06 339682 0 -2.33499e+06 364760 0 -2.37281e+06 390844 0 -2.41342e+06 418060 0 -2.45699e+06 446544 0 -2.50376e+06 476446 0 -2.55401e+06 507932 0 -2.6081e+06 541181 0 -2.66652e+06 576383 0 -2.72991e+06 613742 0 -2.79912e+06 653458 0 -2.87534e+06 695713 0 -2.96026e+06 740632 0 -3.05629e+06 788186 0 -3.167e+06 838006 0 -3.29786e+06 888910 0 -3.4572e+06 937850 0 -3.659e+06 976937 0 -3.92291e+06 985438 0 -4.27786e+06 910235 0 -4.71434e+06 608798 0 -4.94814e+06 -4.17233e-07 0 -2.07281e+06 127855 0 -2.0864e+06 147860 0 -2.10192e+06 168109 0 -2.1194e+06 188650 0 -2.13887e+06 209543 0 -2.16039e+06 230850 0 -2.18399e+06 252640 0 -2.20973e+06 274985 0 -2.23768e+06 297966 0 -2.26792e+06 321670 0 -2.30053e+06 346191 0 -2.33561e+06 371635 0 -2.37329e+06 398119 0 -2.41372e+06 425771 0 -2.45707e+06 454733 0 -2.50358e+06 485163 0 -2.55352e+06 517236 0 -2.60726e+06 551144 0 -2.66528e+06 587100 0 -2.72822e+06 625334 0 -2.79693e+06 666090 0 -2.87262e+06 709615 0 -2.95696e+06 756128 0 -3.05241e+06 805755 0 -3.16261e+06 858377 0 -3.2932e+06 913218 0 -3.45287e+06 967937 0 -3.65685e+06 1.01589e+06 0 -3.92763e+06 1.03773e+06 0 -4.30246e+06 981952 0 -4.79956e+06 679774 0 -5.08786e+06 -3.57628e-07 0 -2.07314e+06 132117 0 -2.08688e+06 152258 0 -2.10253e+06 172662 0 -2.12011e+06 193377 0 -2.13966e+06 214465 0 -2.16122e+06 235988 0 -2.18485e+06 258016 0 -2.2106e+06 280622 0 -2.23852e+06 303887 0 -2.26871e+06 327900 0 -2.30123e+06 352758 0 -2.3362e+06 378568 0 -2.37373e+06 405451 0 -2.41396e+06 433538 0 -2.45709e+06 462977 0 -2.50332e+06 493933 0 -2.55295e+06 526592 0 -2.60633e+06 561160 0 -2.66393e+06 597869 0 -2.7264e+06 636980 0 -2.79458e+06 678780 0 -2.86968e+06 723579 0 -2.95339e+06 771700 0 -3.04817e+06 823425 0 -3.15773e+06 878896 0 -3.28782e+06 937770 0 -3.44746e+06 998477 0 -3.65297e+06 1.05586e+06 0 -3.92981e+06 1.09234e+06 0 -4.32287e+06 1.06078e+06 0 -4.89038e+06 764259 0 -5.25096e+06 5.36442e-07 0 -2.07351e+06 136434 0 -2.08738e+06 156711 0 -2.10315e+06 177272 0 -2.12082e+06 198162 0 -2.14045e+06 219446 0 -2.16206e+06 241186 0 -2.18571e+06 263452 0 -2.21146e+06 286318 0 -2.23935e+06 309868 0 -2.26948e+06 334190 0 -2.30191e+06 359383 0 -2.33675e+06 385559 0 -2.37412e+06 412839 0 -2.41416e+06 441360 0 -2.45704e+06 471275 0 -2.503e+06 502756 0 -2.55229e+06 535999 0 -2.60529e+06 571226 0 -2.66246e+06 608689 0 -2.72443e+06 648677 0 -2.79206e+06 691522 0 -2.86653e+06 737602 0 -2.94954e+06 787340 0 -3.04356e+06 841182 0 -3.15232e+06 899541 0 -3.28168e+06 962530 0 -3.44089e+06 1.02941e+06 0 -3.64717e+06 1.09676e+06 0 -3.92919e+06 1.14908e+06 0 -4.33742e+06 1.14714e+06 0 -4.98608e+06 865816 0 -5.44418e+06 -4.76837e-07 0 -2.07389e+06 140807 0 -2.08791e+06 161222 0 -2.10379e+06 181939 0 -2.12155e+06 203006 0 -2.14124e+06 224486 0 -2.1629e+06 246443 0 -2.18657e+06 268947 0 -2.21231e+06 292074 0 -2.24017e+06 315907 0 -2.27022e+06 340538 0 -2.30256e+06 366067 0 -2.33727e+06 392607 0 -2.37447e+06 420284 0 -2.4143e+06 449238 0 -2.45694e+06 479627 0 -2.5026e+06 511632 0 -2.55155e+06 545458 0 -2.60416e+06 581342 0 -2.66087e+06 619556 0 -2.72232e+06 660422 0 -2.78936e+06 704313 0 -2.86315e+06 751676 0 -2.9454e+06 803040 0 -3.03856e+06 859011 0 -3.14638e+06 920290 0 -3.27475e+06 987457 0 -3.43312e+06 1.06064e+06 0 -3.63926e+06 1.13848e+06 0 -3.92554e+06 1.20766e+06 0 -4.34407e+06 1.24118e+06 0 -5.08492e+06 989172 0 -5.67708e+06 1.19209e-07 0 -2.07431e+06 145235 0 -2.08846e+06 165789 0 -2.10444e+06 186664 0 -2.12229e+06 207908 0 -2.14205e+06 229585 0 -2.16375e+06 251760 0 -2.18743e+06 274502 0 -2.21315e+06 297890 0 -2.24097e+06 322007 0 -2.27095e+06 346945 0 -2.30318e+06 372809 0 -2.33775e+06 399713 0 -2.37477e+06 427785 0 -2.41439e+06 457170 0 -2.45677e+06 488032 0 -2.50213e+06 520559 0 -2.55073e+06 554967 0 -2.60292e+06 591506 0 -2.65916e+06 630471 0 -2.72007e+06 672212 0 -2.78647e+06 717150 0 -2.85955e+06 765797 0 -2.94097e+06 818790 0 -3.03316e+06 876898 0 -3.13989e+06 941118 0 -3.267e+06 1.0125e+06 0 -3.42411e+06 1.0921e+06 0 -3.62903e+06 1.18086e+06 0 -3.91874e+06 1.26774e+06 0 -4.34051e+06 1.3426e+06 0 -5.18335e+06 1.14067e+06 0 -5.96344e+06 5.96046e-08 0 -2.07476e+06 149718 0 -2.08903e+06 170413 0 -2.10512e+06 191447 0 -2.12305e+06 212869 0 -2.14286e+06 234743 0 -2.16459e+06 257136 0 -2.18828e+06 280117 0 -2.21398e+06 303765 0 -2.24175e+06 328165 0 -2.27165e+06 353412 0 -2.30377e+06 379610 0 -2.33819e+06 406876 0 -2.37503e+06 435342 0 -2.41443e+06 465157 0 -2.45654e+06 496491 0 -2.50158e+06 529538 0 -2.54981e+06 564525 0 -2.60158e+06 601717 0 -2.65733e+06 641431 0 -2.71766e+06 684045 0 -2.78341e+06 730028 0 -2.85571e+06 779958 0 -2.93624e+06 834580 0 -3.02735e+06 894824 0 -3.13283e+06 961998 0 -3.25839e+06 1.03762e+06 0 -3.41381e+06 1.1237e+06 0 -3.61627e+06 1.22372e+06 0 -3.90872e+06 1.32891e+06 0 -4.32433e+06 1.45025e+06 0 -5.2747e+06 1.32894e+06 0 -6.32358e+06 1.19209e-07 0 -2.07523e+06 154257 0 -2.08962e+06 175094 0 -2.10581e+06 196287 0 -2.12382e+06 217888 0 -2.14368e+06 239961 0 -2.16543e+06 262571 0 -2.18912e+06 285791 0 -2.2148e+06 309700 0 -2.24251e+06 334383 0 -2.27233e+06 359937 0 -2.30433e+06 386468 0 -2.3386e+06 414096 0 -2.37525e+06 442955 0 -2.41441e+06 473198 0 -2.45625e+06 505001 0 -2.50096e+06 538566 0 -2.54881e+06 574130 0 -2.60013e+06 611974 0 -2.65536e+06 652433 0 -2.7151e+06 695919 0 -2.78015e+06 742943 0 -2.85164e+06 794151 0 -2.9312e+06 850399 0 -3.02113e+06 912772 0 -3.12519e+06 982903 0 -3.2489e+06 1.06275e+06 0 -3.40218e+06 1.15533e+06 0 -3.60083e+06 1.26681e+06 0 -3.89538e+06 1.39084e+06 0 -4.29367e+06 1.56165e+06 0 -5.34688e+06 1.56574e+06 0 -6.78811e+06 -6.55651e-07 0 -2.07573e+06 158852 0 -2.09023e+06 179833 0 -2.10652e+06 201186 0 -2.12459e+06 222966 0 -2.1445e+06 245238 0 -2.16628e+06 268067 0 -2.18997e+06 291526 0 -2.21561e+06 315694 0 -2.24326e+06 340660 0 -2.27298e+06 366521 0 -2.30485e+06 393385 0 -2.33896e+06 421373 0 -2.37541e+06 450623 0 -2.41434e+06 481293 0 -2.45588e+06 513564 0 -2.50026e+06 547645 0 -2.54771e+06 583783 0 -2.59857e+06 622274 0 -2.65327e+06 663476 0 -2.71239e+06 707828 0 -2.77671e+06 755889 0 -2.84732e+06 808370 0 -2.92585e+06 866235 0 -3.01447e+06 930722 0 -3.11695e+06 1.0038e+06 0 -3.23857e+06 1.08782e+06 0 -3.3891e+06 1.18692e+06 0 -3.58277e+06 1.30977e+06 0 -3.87825e+06 1.4535e+06 0 -4.24846e+06 1.6719e+06 0 -5.37826e+06 1.86763e+06 0 -7.40416e+06 7.15256e-07 0 -2.07625e+06 163502 0 -2.09087e+06 184630 0 -2.10724e+06 206143 0 -2.12538e+06 228104 0 -2.14533e+06 250575 0 -2.16713e+06 273622 0 -2.1908e+06 297320 0 -2.2164e+06 321749 0 -2.24399e+06 346997 0 -2.27361e+06 373164 0 -2.30535e+06 400359 0 -2.33929e+06 428706 0 -2.37553e+06 458347 0 -2.4142e+06 489442 0 -2.45546e+06 522177 0 -2.49948e+06 556771 0 -2.54653e+06 593481 0 -2.59691e+06 632617 0 -2.65105e+06 674556 0 -2.70951e+06 719771 0 -2.77306e+06 768860 0 -2.84276e+06 822608 0 -2.92017e+06 882075 0 -3.0074e+06 948657 0 -3.10805e+06 1.02467e+06 0 -3.22747e+06 1.11276e+06 0 -3.37428e+06 1.21843e+06 0 -3.56265e+06 1.35204e+06 0 -3.85572e+06 1.51743e+06 0 -4.19295e+06 1.7728e+06 0 -5.331e+06 2.25711e+06 0 -8.24535e+06 -4.76837e-07 0 -2.0768e+06 168207 0 -2.09153e+06 189486 0 -2.10798e+06 211158 0 -2.12618e+06 233301 0 -2.14617e+06 255971 0 -2.16797e+06 279237 0 -2.19163e+06 303174 0 -2.21719e+06 327863 0 -2.24469e+06 353393 0 -2.27421e+06 379865 0 -2.30581e+06 407391 0 -2.33958e+06 436096 0 -2.37561e+06 466125 0 -2.41402e+06 497643 0 -2.45496e+06 530841 0 -2.49862e+06 565946 0 -2.54524e+06 603224 0 -2.59513e+06 643000 0 -2.6487e+06 685672 0 -2.70648e+06 731745 0 -2.76922e+06 781851 0 -2.83795e+06 836858 0 -2.91415e+06 897901 0 -2.99995e+06 966559 0 -3.09837e+06 1.04547e+06 0 -3.21595e+06 1.13745e+06 0 -3.3569e+06 1.24994e+06 0 -3.54235e+06 1.39254e+06 0 -3.82304e+06 1.58495e+06 0 -4.14138e+06 1.84869e+06 0 -5.13766e+06 2.76907e+06 0 -9.43074e+06 4.76837e-07 0 </DataArray> 
</PointData> 
<Points> 
<DataArray type="Float32" NumberOfComponents="3"> 