<?xml version="1.0"?> 
<VTKFile type="StructuredGrid" version="0.1"> 
<StructuredGrid WholeExtent="0 31 0 31 0 0"> 
<Piece Extent="0 31 0 31 0 0"> 
<PointData>
<DataArray type="Float32" Name="|E|" format="ascii" NumberOfComponents="3"> 
-1.83426e+06 0 0 -1.83474e+06 25684.9 0 -1.83614e+06 51398.7 0 -1.83847e+06 77170.3 0 -1.84172e+06 103029 0 -1.8459e+06 129004 0 -1.851e+06 155126 0 -1.85703e+06 181425 0 -1.86399e+06 207932 0 -1.87186e+06 234680 0 -1.88066e+06 261702 0 -1.89038e+06 289032 0 -1.90102e+06 316705 0 -1.91257e+06 344760 0 -1.92503e+06 373236 0 -1.9384e+06 402173 0 -1.95266e+06 431615 0 -1.9678e+06 461609 0 -1.98382e+06 492205 0 -2.00069e+06 523456 0 -2.0184e+06 555418 0 -2.03692e+06 588156 0 -2.05623e+06 621736 0 -2.07627e+06 656234 0 -2.097e+06 691731 0 -2.11837e+06 728318 0 -2.1403e+06 766095 0 -2.16269e+06 805174 0 -2.18543e+06 845679 0 -2.20839e+06 887751 0 -2.23137e+06 931536 0 -2.25418e+06 977218 0 -1.8291e+06 0 0 -1.82958e+06 25869.6 0 -1.83097e+06 51768.1 0 -1.83329e+06 77724.5 0 -1.83652e+06 103768 0 -1.84067e+06 129928 0 -1.84574e+06 156234 0 -1.85173e+06 182717 0 -1.85864e+06 209409 0 -1.86647e+06 236341 0 -1.87521e+06 263546 0 -1.88487e+06 291060 0 -1.89543e+06 318916 0 -1.9069e+06 347153 0 -1.91927e+06 375809 0 -1.93254e+06 404925 0 -1.9467e+06 434545 0 -1.96173e+06 464714 0 -1.97762e+06 495482 0 -1.99436e+06 526901 0 -2.01192e+06 559027 0 -2.03028e+06 591923 0 -2.04941e+06 625654 0 -2.06926e+06 660294 0 -2.08978e+06 695922 0 -2.11093e+06 732626 0 -2.1326e+06 770504 0 -2.15473e+06 809663 0 -2.17718e+06 850222 0 -2.19981e+06 892315 0 -2.22244e+06 936082 0 -2.24485e+06 981689 0 -1.82391e+06 0 0 -1.82438e+06 26053.2 0 -1.82577e+06 52135.3 0 -1.82807e+06 78275.1 0 -1.83128e+06 104502 0 -1.83541e+06 130845 0 -1.84045e+06 157335 0 -1.8464e+06 184002 0 -1.85326e+06 210876 0 -1.86104e+06 237991 0 -1.86972e+06 265379 0 -1.87931e+06 293074 0 -1.8898e+06 321111 0 -1.9012e+06 349528 0 -1.91348e+06 378363 0 -1.92665e+06 407657 0 -1.9407e+06 437452 0 -1.95562e+06 467795 0 -1.97139e+06 498733 0 -1.98799e+06 530318 0 -2.0054e+06 562606 0 -2.0236e+06 595657 0 -2.04256e+06 629536 0 -2.06222e+06 664314 0 -2.08254e+06 700070 0 -2.10346e+06 736888 0 -2.1249e+06 774862 0 -2.14675e+06 814096 0 -2.16892e+06 854704 0 -2.19123e+06 896811 0 -2.21352e+06 940554 0 -2.23555e+06 986082 0 -1.81869e+06 0 0 -1.81915e+06 26235.6 0 -1.82053e+06 52500.1 0 -1.82281e+06 78822.3 0 -1.82601e+06 105231 0 -1.83011e+06 131757 0 -1.83511e+06 158429 0 -1.84103e+06 185278 0 -1.84785e+06 212334 0 -1.85557e+06 239630 0 -1.8642e+06 267199 0 -1.87372e+06 295074 0 -1.88414e+06 323292 0 -1.89545e+06 351887 0 -1.90765e+06 380900 0 -1.92073e+06 410369 0 -1.93467e+06 440338 0 -1.94947e+06 470852 0 -1.96512e+06 501958 0 -1.98159e+06 533707 0 -1.99886e+06 566154 0 -2.0169e+06 599357 0 -2.03568e+06 633382 0 -2.05516e+06 668296 0 -2.07528e+06 704176 0 -2.09597e+06 741103 0 -2.11717e+06 779170 0 -2.13877e+06 818474 0 -2.16065e+06 859126 0 -2.18265e+06 901243 0 -2.2046e+06 944954 0 -2.22626e+06 990398 0 -1.81342e+06 0 0 -1.81389e+06 26416.9 0 -1.81525e+06 52862.6 0 -1.81752e+06 79366 0 -1.8207e+06 105956 0 -1.82477e+06 132663 0 -1.82975e+06 159516 0 -1.83562e+06 186545 0 -1.8424e+06 213782 0 -1.85007e+06 241258 0 -1.85863e+06 269007 0 -1.86809e+06 297061 0 -1.87844e+06 325457 0 -1.88968e+06 354229 0 -1.90179e+06 383418 0 -1.91477e+06 413061 0 -1.92861e+06 443203 0 -1.9433e+06 473885 0 -1.95882e+06 505157 0 -1.97515e+06 537068 0 -1.99228e+06 569671 0 -2.01016e+06 603025 0 -2.02877e+06 637192 0 -2.04807e+06 672239 0 -2.06799e+06 708239 0 -2.08847e+06 745273 0 -2.10943e+06 783428 0 -2.13077e+06 822799 0 -2.15237e+06 863489 0 -2.17408e+06 905611 0 -2.1957e+06 949285 0 -2.21701e+06 994640 0 -1.80812e+06 0 0 -1.80858e+06 26597 0 -1.80994e+06 53222.8 0 -1.8122e+06 79906.3 0 -1.81535e+06 106677 0 -1.8194e+06 133563 0 -1.82434e+06 160596 0 -1.83018e+06 187804 0 -1.83691e+06 215221 0 -1.84453e+06 242876 0 -1.85304e+06 270802 0 -1.86243e+06 299035 0 -1.87271e+06 327607 0 -1.88386e+06 356555 0 -1.89589e+06 385918 0 -1.90877e+06 415734 0 -1.92251e+06 446045 0 -1.93709e+06 476895 0 -1.95248e+06 508331 0 -1.96869e+06 540401 0 -1.98567e+06 573159 0 -2.0034e+06 606660 0 -2.02184e+06 640967 0 -2.04095e+06 676144 0 -2.06067e+06 712262 0 -2.08094e+06 749399 0 -2.10167e+06 787638 0 -2.12277e+06 827070 0 -2.14409e+06 867795 0 -2.1655e+06 909917 0 -2.18681e+06 953549 0 -2.20777e+06 998809 0 -1.80279e+06 0 0 -1.80325e+06 26775.9 0 -1.8046e+06 53580.7 0 -1.80684e+06 80443 0 -1.80997e+06 107392 0 -1.81399e+06 134457 0 -1.8189e+06 161668 0 -1.8247e+06 189055 0 -1.83138e+06 216650 0 -1.83895e+06 244482 0 -1.84741e+06 272586 0 -1.85674e+06 300994 0 -1.86694e+06 329742 0 -1.87802e+06 358864 0 -1.88995e+06 388399 0 -1.90274e+06 418386 0 -1.91638e+06 448866 0 -1.93084e+06 479882 0 -1.94612e+06 511479 0 -1.96219e+06 543707 0 -1.97903e+06 576617 0 -1.9966e+06 610264 0 -2.01488e+06 644707 0 -2.03381e+06 680011 0 -2.05334e+06 716244 0 -2.0734e+06 753480 0 -2.0939e+06 791800 0 -2.11475e+06 831291 0 -2.13581e+06 872045 0 -2.15694e+06 914162 0 -2.17793e+06 957748 0 -2.19856e+06 1.00291e+06 0 -1.79741e+06 0 0 -1.79787e+06 26953.7 0 -1.79921e+06 53936.2 0 -1.80144e+06 80976.3 0 -1.80455e+06 108103 0 -1.80854e+06 135346 0 -1.81342e+06 162734 0 -1.81918e+06 190298 0 -1.82582e+06 218069 0 -1.83334e+06 246078 0 -1.84174e+06 274357 0 -1.851e+06 302940 0 -1.86114e+06 331862 0 -1.87213e+06 361157 0 -1.88398e+06 390863 0 -1.89668e+06 421019 0 -1.91021e+06 451666 0 -1.92457e+06 482845 0 -1.93972e+06 514602 0 -1.95566e+06 546986 0 -1.97236e+06 580045 0 -1.98978e+06 613835 0 -2.0079e+06 648413 0 -2.02665e+06 683841 0 -2.04599e+06 720186 0 -2.06584e+06 757518 0 -2.08612e+06 795916 0 -2.10672e+06 835460 0 -2.12753e+06 876241 0 -2.14837e+06 918350 0 -2.16907e+06 961884 0 -2.18938e+06 1.00694e+06 0 -1.79201e+06 0 0 -1.79246e+06 27130.4 0 -1.79379e+06 54289.5 0 -1.79601e+06 81506.2 0 -1.7991e+06 108809 0 -1.80307e+06 136228 0 -1.80791e+06 163793 0 -1.81363e+06 191533 0 -1.82023e+06 219479 0 -1.8277e+06 247663 0 -1.83603e+06 276116 0 -1.84524e+06 304873 0 -1.8553e+06 333967 0 -1.86622e+06 363433 0 -1.87798e+06 393309 0 -1.89059e+06 423632 0 -1.90401e+06 454444 0 -1.91826e+06 485785 0 -1.93329e+06 517701 0 -1.9491e+06 550237 0 -1.96566e+06 583445 0 -1.98293e+06 617375 0 -2.00088e+06 652085 0 -2.01946e+06 687635 0 -2.03861e+06 724088 0 -2.05826e+06 761514 0 -2.07832e+06 799985 0 -2.09869e+06 839581 0 -2.11924e+06 880383 0 -2.13982e+06 922480 0 -2.16023e+06 965959 0 -2.18023e+06 1.01091e+06 0 -1.78657e+06 0 0 -1.78702e+06 27305.9 0 -1.78834e+06 54640.5 0 -1.79054e+06 82032.6 0 -1.79361e+06 109511 0 -1.79755e+06 137105 0 -1.80236e+06 164844 0 -1.80805e+06 192759 0 -1.8146e+06 220879 0 -1.82202e+06 249237 0 -1.8303e+06 277863 0 -1.83944e+06 306792 0 -1.84943e+06 336057 0 -1.86027e+06 365693 0 -1.87195e+06 395737 0 -1.88446e+06 426226 0 -1.89778e+06 457201 0 -1.91192e+06 488702 0 -1.92683e+06 520774 0 -1.94252e+06 553462 0 -1.95893e+06 586815 0 -1.97606e+06 620884 0 -1.99385e+06 655724 0 -2.01225e+06 691392 0 -2.03121e+06 727952 0 -2.05066e+06 765468 0 -2.07051e+06 804010 0 -2.09065e+06 843653 0 -2.11096e+06 884474 0 -2.13127e+06 926555 0 -2.15139e+06 969975 0 -2.1711e+06 1.01482e+06 0 -1.78109e+06 0 0 -1.78154e+06 27480.3 0 -1.78285e+06 54989.2 0 -1.78503e+06 82555.5 0 -1.78808e+06 110208 0 -1.792e+06 137976 0 -1.79678e+06 165889 0 -1.80243e+06 193977 0 -1.80894e+06 222270 0 -1.8163e+06 250800 0 -1.82453e+06 279598 0 -1.8336e+06 308698 0 -1.84352e+06 338132 0 -1.85428e+06 367937 0 -1.86588e+06 398147 0 -1.87829e+06 428801 0 -1.89152e+06 459937 0 -1.90554e+06 491597 0 -1.92034e+06 523823 0 -1.9359e+06 556661 0 -1.95218e+06 590157 0 -1.96916e+06 624362 0 -1.98679e+06 659329 0 -2.00502e+06 695114 0 -2.0238e+06 731777 0 -2.04305e+06 769380 0 -2.06269e+06 807991 0 -2.0826e+06 847678 0 -2.10267e+06 888515 0 -2.12272e+06 930576 0 -2.14258e+06 973935 0 -2.162e+06 1.01866e+06 0 -1.77558e+06 0 0 -1.77602e+06 27653.5 0 -1.77733e+06 55335.6 0 -1.7795e+06 83075 0 -1.78253e+06 110901 0 -1.78642e+06 138841 0 -1.79117e+06 166927 0 -1.79677e+06 195187 0 -1.80324e+06 223652 0 -1.81055e+06 252353 0 -1.81872e+06 281321 0 -1.82773e+06 310590 0 -1.83758e+06 340193 0 -1.84827e+06 370164 0 -1.85978e+06 400539 0 -1.8721e+06 431356 0 -1.88523e+06 462652 0 -1.89914e+06 494469 0 -1.91382e+06 526847 0 -1.92925e+06 559833 0 -1.9454e+06 593470 0 -1.96223e+06 627810 0 -1.9797e+06 662902 0 -1.99777e+06 698801 0 -2.01637e+06 735565 0 -2.03543e+06 773253 0 -2.05486e+06 811929 0 -2.07455e+06 851657 0 -2.09438e+06 892507 0 -2.11419e+06 934546 0 -2.13378e+06 977840 0 -2.15293e+06 1.02245e+06 0 -1.77003e+06 0 0 -1.77047e+06 27825.6 0 -1.77177e+06 55679.7 0 -1.77392e+06 83591.1 0 -1.77693e+06 111588 0 -1.7808e+06 139701 0 -1.78552e+06 167957 0 -1.79109e+06 196388 0 -1.7975e+06 225024 0 -1.80477e+06 253895 0 -1.81288e+06 283032 0 -1.82183e+06 312469 0 -1.83161e+06 342239 0 -1.84222e+06 372375 0 -1.85364e+06 402914 0 -1.86587e+06 433892 0 -1.8789e+06 465347 0 -1.89271e+06 497318 0 -1.90727e+06 529848 0 -1.92258e+06 562978 0 -1.93859e+06 596756 0 -1.95527e+06 631227 0 -1.97259e+06 666442 0 -1.99049e+06 702453 0 -2.00891e+06 739316 0 -2.02778e+06 777086 0 -2.04701e+06 815824 0 -2.06649e+06 855592 0 -2.0861e+06 896451 0 -2.10566e+06 938465 0 -2.125e+06 981692 0 -2.14388e+06 1.02618e+06 0 -1.76445e+06 0 0 -1.76489e+06 27996.5 0 -1.76618e+06 56021.5 0 -1.76832e+06 84103.7 0 -1.77131e+06 112272 0 -1.77514e+06 140554 0 -1.77983e+06 168981 0 -1.78536e+06 197582 0 -1.79174e+06 226387 0 -1.79895e+06 255426 0 -1.80701e+06 284731 0 -1.81589e+06 314335 0 -1.8256e+06 344270 0 -1.83613e+06 374571 0 -1.84748e+06 405271 0 -1.85962e+06 436409 0 -1.87254e+06 468020 0 -1.88624e+06 500145 0 -1.90069e+06 532824 0 -1.91587e+06 566099 0 -1.93175e+06 600014 0 -1.94829e+06 634615 0 -1.96546e+06 669951 0 -1.9832e+06 706072 0 -2.00144e+06 743030 0 -2.02013e+06 780880 0 -2.03916e+06 819679 0 -2.05843e+06 859483 0 -2.07781e+06 900350 0 -2.09715e+06 942336 0 -2.11624e+06 985493 0 -2.13487e+06 1.02987e+06 0 -1.75883e+06 0 0 -1.75927e+06 28166.3 0 -1.76055e+06 56361.1 0 -1.76268e+06 84612.9 0 -1.76565e+06 112950 0 -1.76946e+06 141402 0 -1.77411e+06 169998 0 -1.77961e+06 198767 0 -1.78594e+06 227740 0 -1.7931e+06 256946 0 -1.8011e+06 286418 0 -1.80992e+06 316188 0 -1.81956e+06 346287 0 -1.83002e+06 376750 0 -1.84128e+06 407611 0 -1.85333e+06 438907 0 -1.86616e+06 470674 0 -1.87975e+06 502950 0 -1.89409e+06 535776 0 -1.90914e+06 569193 0 -1.92489e+06 603244 0 -1.94129e+06 637973 0 -1.9583e+06 673428 0 -1.97588e+06 709657 0 -1.99396e+06 746709 0 -2.01246e+06 784637 0 -2.0313e+06 823493 0 -2.05036e+06 863331 0 -2.06953e+06 904203 0 -2.08864e+06 946160 0 -2.1075e+06 989246 0 -2.12589e+06 1.0335e+06 0 -1.75318e+06 0 0 -1.75362e+06 28335 0 -1.75489e+06 56698.4 0 -1.757e+06 85118.6 0 -1.75995e+06 113624 0 -1.76374e+06 142244 0 -1.76836e+06 171008 0 -1.77382e+06 199944 0 -1.7801e+06 229084 0 -1.78722e+06 258456 0 -1.79516e+06 288094 0 -1.80392e+06 318027 0 -1.81349e+06 348289 0 -1.82387e+06 378913 0 -1.83505e+06 409933 0 -1.84701e+06 441386 0 -1.85974e+06 473306 0 -1.87323e+06 505733 0 -1.88745e+06 538705 0 -1.90238e+06 572262 0 -1.918e+06 606447 0 -1.93426e+06 641303 0 -1.95112e+06 676875 0 -1.96854e+06 713209 0 -1.98645e+06 750353 0 -2.00478e+06 788356 0 -2.02343e+06 827268 0 -2.04229e+06 867138 0 -2.06125e+06 908013 0 -2.08014e+06 949939 0 -2.09878e+06 992953 0 -2.11693e+06 1.03708e+06 0 -1.7475e+06 0 0 -1.74793e+06 28502.5 0 -1.7492e+06 57033.4 0 -1.75129e+06 85621 0 -1.75422e+06 114294 0 -1.75798e+06 143081 0 -1.76257e+06 172011 0 -1.76799e+06 201114 0 -1.77424e+06 230418 0 -1.7813e+06 259956 0 -1.78919e+06 289757 0 -1.79788e+06 319853 0 -1.80739e+06 350277 0 -1.81769e+06 381060 0 -1.82878e+06 412239 0 -1.84065e+06 443846 0 -1.85329e+06 475919 0 -1.86667e+06 508494 0 -1.88078e+06 541610 0 -1.89559e+06 575306 0 -1.91108e+06 609624 0 -1.92721e+06 644604 0 -1.94392e+06 680291 0 -1.96119e+06 716728 0 -1.97893e+06 753963 0 -1.99708e+06 792040 0 -2.01554e+06 831005 0 -2.03422e+06 870905 0 -2.05297e+06 911782 0 -2.07165e+06 953674 0 -2.09008e+06 996614 0 -2.10801e+06 1.04062e+06 0 -1.74179e+06 0 0 -1.74221e+06 28668.9 0 -1.74347e+06 57366.1 0 -1.74555e+06 86119.9 0 -1.74846e+06 114959 0 -1.7522e+06 143912 0 -1.75676e+06 173007 0 -1.76214e+06 202275 0 -1.76834e+06 231744 0 -1.77535e+06 261445 0 -1.78318e+06 291409 0 -1.79182e+06 321666 0 -1.80125e+06 352250 0 -1.81148e+06 383192 0 -1.82249e+06 414527 0 -1.83427e+06 446288 0 -1.84681e+06 478512 0 -1.86009e+06 511234 0 -1.87409e+06 544493 0 -1.88878e+06 578326 0 -1.90414e+06 612774 0 -1.92013e+06 647877 0 -1.9367e+06 683677 0 -1.95381e+06 720216 0 -1.97139e+06 757539 0 -1.98937e+06 795687 0 -2.00766e+06 834705 0 -2.02614e+06 874633 0 -2.0447e+06 915509 0 -2.06318e+06 957368 0 -2.08139e+06 1.00023e+06 0 -2.09912e+06 1.04412e+06 0 -1.73604e+06 0 0 -1.73646e+06 28834.2 0 -1.73771e+06 57696.6 0 -1.73978e+06 86615.5 0 -1.74267e+06 115619 0 -1.74638e+06 144737 0 -1.7509e+06 173996 0 -1.75625e+06 203427 0 -1.76241e+06 233060 0 -1.76937e+06 262923 0 -1.77715e+06 293048 0 -1.78572e+06 323466 0 -1.79509e+06 354209 0 -1.80524e+06 385308 0 -1.81617e+06 416798 0 -1.82786e+06 448711 0 -1.8403e+06 481084 0 -1.85348e+06 513952 0 -1.86737e+06 547352 0 -1.88194e+06 581321 0 -1.89717e+06 615897 0 -1.91303e+06 651121 0 -1.92946e+06 687033 0 -1.94642e+06 723673 0 -1.96384e+06 761082 0 -1.98165e+06 799300 0 -1.99976e+06 838368 0 -2.01806e+06 878322 0 -2.03643e+06 919197 0 -2.05471e+06 961021 0 -2.07273e+06 1.00381e+06 0 -2.09025e+06 1.04757e+06 0 -1.73026e+06 0 0 -1.73068e+06 28998.3 0 -1.73191e+06 58024.8 0 -1.73397e+06 87107.6 0 -1.73684e+06 116275 0 -1.74052e+06 145556 0 -1.74502e+06 174979 0 -1.75033e+06 204572 0 -1.75644e+06 234367 0 -1.76336e+06 264391 0 -1.77108e+06 294677 0 -1.77959e+06 325253 0 -1.78889e+06 356153 0 -1.79896e+06 387408 0 -1.80981e+06 419052 0 -1.82142e+06 451116 0 -1.83376e+06 483637 0 -1.84684e+06 516649 0 -1.86062e+06 550188 0 -1.87507e+06 584291 0 -1.89018e+06 618995 0 -1.9059e+06 654339 0 -1.92219e+06 690360 0 -1.939e+06 727098 0 -1.95627e+06 764592 0 -1.97392e+06 802879 0 -1.99185e+06 841996 0 -2.00998e+06 881975 0 -2.02816e+06 922848 0 -2.04625e+06 964635 0 -2.06408e+06 1.00735e+06 0 -2.08142e+06 1.05099e+06 0 -1.72444e+06 0 0 -1.72486e+06 29161.3 0 -1.72609e+06 58350.7 0 -1.72813e+06 87596.4 0 -1.73098e+06 116927 0 -1.73464e+06 146370 0 -1.7391e+06 175954 0 -1.74437e+06 205709 0 -1.75044e+06 235664 0 -1.75731e+06 265849 0 -1.76497e+06 296293 0 -1.77342e+06 327028 0 -1.78266e+06 358084 0 -1.79266e+06 389493 0 -1.80343e+06 421289 0 -1.81494e+06 453503 0 -1.8272e+06 486171 0 -1.84017e+06 519325 0 -1.85384e+06 553002 0 -1.86818e+06 587237 0 -1.88317e+06 622067 0 -1.89876e+06 657529 0 -1.91491e+06 693659 0 -1.93157e+06 730494 0 -1.94868e+06 768071 0 -1.96617e+06 806425 0 -1.98394e+06 845589 0 -2.00189e+06 885593 0 -2.0199e+06 926461 0 -2.03781e+06 968212 0 -2.05545e+06 1.01085e+06 0 -2.07261e+06 1.05437e+06 0 -1.71859e+06 0 0 -1.71901e+06 29323.2 0 -1.72023e+06 58674.5 0 -1.72226e+06 88081.8 0 -1.72509e+06 117573 0 -1.72872e+06 147178 0 -1.73315e+06 176923 0 -1.73839e+06 206838 0 -1.74441e+06 236953 0 -1.75123e+06 267296 0 -1.75884e+06 297898 0 -1.76723e+06 328789 0 -1.77639e+06 360000 0 -1.78632e+06 391563 0 -1.79701e+06 423509 0 -1.80844e+06 455872 0 -1.8206e+06 488684 0 -1.83347e+06 521980 0 -1.84704e+06 555794 0 -1.86126e+06 590160 0 -1.87613e+06 625115 0 -1.89159e+06 660692 0 -1.9076e+06 696929 0 -1.92412e+06 733860 0 -1.94109e+06 771519 0 -1.95841e+06 809938 0 -1.97602e+06 849148 0 -1.99381e+06 889175 0 -2.01164e+06 930040 0 -2.02938e+06 971754 0 -2.04685e+06 1.01432e+06 0 -2.06383e+06 1.05772e+06 0 -1.71271e+06 0 0 -1.71313e+06 29484 0 -1.71434e+06 58995.9 0 -1.71635e+06 88563.8 0 -1.71916e+06 118216 0 -1.72277e+06 147980 0 -1.72717e+06 177885 0 -1.73237e+06 207959 0 -1.73835e+06 238232 0 -1.74513e+06 268733 0 -1.75268e+06 299491 0 -1.76101e+06 330538 0 -1.7701e+06 361902 0 -1.77996e+06 393617 0 -1.79057e+06 425713 0 -1.80191e+06 458223 0 -1.81398e+06 491179 0 -1.82675e+06 524614 0 -1.84021e+06 558563 0 -1.85432e+06 593059 0 -1.86906e+06 628137 0 -1.8844e+06 663830 0 -1.90028e+06 700172 0 -1.91666e+06 737197 0 -1.93347e+06 774936 0 -1.95065e+06 813420 0 -1.9681e+06 852675 0 -1.98572e+06 892725 0 -2.00338e+06 933584 0 -2.02095e+06 975262 0 -2.03826e+06 1.01775e+06 0 -2.05509e+06 1.06104e+06 0 -1.7068e+06 0 0 -1.70721e+06 29643.7 0 -1.70842e+06 59315.2 0 -1.71041e+06 89042.5 0 -1.71321e+06 118854 0 -1.71679e+06 148777 0 -1.72116e+06 178840 0 -1.72632e+06 209072 0 -1.73226e+06 239502 0 -1.73898e+06 270159 0 -1.74648e+06 301073 0 -1.75475e+06 332273 0 -1.76378e+06 363791 0 -1.77356e+06 395656 0 -1.78409e+06 427900 0 -1.79535e+06 460556 0 -1.80733e+06 493654 0 -1.82e+06 527228 0 -1.83335e+06 561311 0 -1.84735e+06 595935 0 -1.86197e+06 631134 0 -1.87718e+06 666941 0 -1.89293e+06 703387 0 -1.90917e+06 740505 0 -1.92584e+06 778324 0 -1.94287e+06 816871 0 -1.96016e+06 856170 0 -1.97762e+06 896241 0 -1.99513e+06 937096 0 -2.01254e+06 978737 0 -2.02969e+06 1.02115e+06 0 -2.04637e+06 1.06432e+06 0 -1.70086e+06 0 0 -1.70127e+06 29802.2 0 -1.70246e+06 59632.2 0 -1.70445e+06 89517.8 0 -1.70722e+06 119487 0 -1.71077e+06 149568 0 -1.71512e+06 179788 0 -1.72024e+06 210177 0 -1.72614e+06 240763 0 -1.73281e+06 271576 0 -1.74026e+06 302643 0 -1.74846e+06 333997 0 -1.75743e+06 365665 0 -1.76714e+06 397680 0 -1.77759e+06 430071 0 -1.78876e+06 462871 0 -1.80064e+06 496110 0 -1.81322e+06 529822 0 -1.82647e+06 564037 0 -1.84036e+06 598788 0 -1.85486e+06 634108 0 -1.86995e+06 670027 0 -1.88557e+06 706576 0 -1.90167e+06 743785 0 -1.9182e+06 781682 0 -1.93508e+06 820292 0 -1.95222e+06 859635 0 -1.96953e+06 899727 0 -1.98688e+06 940576 0 -2.00414e+06 982181 0 -2.02114e+06 1.02453e+06 0 -2.03767e+06 1.06758e+06 0 -1.69489e+06 0 0 -1.69529e+06 29959.6 0 -1.69648e+06 59947 0 -1.69845e+06 89989.8 0 -1.7012e+06 120116 0 -1.70473e+06 150353 0 -1.70904e+06 180730 0 -1.71413e+06 211275 0 -1.71998e+06 242016 0 -1.72661e+06 272982 0 -1.734e+06 304202 0 -1.74215e+06 335707 0 -1.75105e+06 367526 0 -1.76069e+06 399688 0 -1.77106e+06 432226 0 -1.78214e+06 465168 0 -1.79394e+06 498548 0 -1.80641e+06 532395 0 -1.81956e+06 566742 0 -1.83334e+06 601619 0 -1.84773e+06 637057 0 -1.86269e+06 673087 0 -1.87818e+06 709738 0 -1.89415e+06 747038 0 -1.91054e+06 785012 0 -1.92728e+06 823683 0 -1.94428e+06 863069 0 -1.96144e+06 903182 0 -1.97864e+06 944026 0 -1.99575e+06 985595 0 -2.0126e+06 1.02787e+06 0 -2.02901e+06 1.07081e+06 0 -1.68888e+06 0 0 -1.68928e+06 30116 0 -1.69046e+06 60259.5 0 -1.69241e+06 90458.4 0 -1.69515e+06 120740 0 -1.69865e+06 151133 0 -1.70293e+06 181665 0 -1.70798e+06 212364 0 -1.7138e+06 243259 0 -1.72038e+06 274378 0 -1.72771e+06 305750 0 -1.7358e+06 337405 0 -1.74463e+06 369373 0 -1.7542e+06 401682 0 -1.76449e+06 434364 0 -1.7755e+06 467449 0 -1.7872e+06 500967 0 -1.79958e+06 534949 0 -1.81262e+06 569425 0 -1.8263e+06 604426 0 -1.84057e+06 639983 0 -1.85541e+06 676123 0 -1.87078e+06 712874 0 -1.88662e+06 750264 0 -1.90287e+06 788314 0 -1.91947e+06 827046 0 -1.93632e+06 866474 0 -1.95334e+06 906608 0 -1.9704e+06 947447 0 -1.98737e+06 988981 0 -2.00409e+06 1.03119e+06 0 -2.02037e+06 1.07401e+06 0 -1.68284e+06 0 0 -1.68324e+06 30271.2 0 -1.68441e+06 60569.9 0 -1.68635e+06 90923.8 0 -1.68906e+06 121360 0 -1.69255e+06 151908 0 -1.6968e+06 182593 0 -1.70181e+06 213446 0 -1.70758e+06 244493 0 -1.71411e+06 275764 0 -1.7214e+06 307286 0 -1.72943e+06 339091 0 -1.73819e+06 371206 0 -1.74769e+06 403661 0 -1.7579e+06 436486 0 -1.76883e+06 469712 0 -1.78044e+06 503367 0 -1.79272e+06 537482 0 -1.80566e+06 572087 0 -1.81923e+06 607212 0 -1.83339e+06 642885 0 -1.84811e+06 679134 0 -1.86336e+06 715985 0 -1.87907e+06 753463 0 -1.89519e+06 791589 0 -1.91165e+06 830381 0 -1.92836e+06 869851 0 -1.94524e+06 910005 0 -1.96216e+06 950840 0 -1.979e+06 992341 0 -1.99559e+06 1.03448e+06 0 -2.01176e+06 1.0772e+06 0 -1.67677e+06 0 0 -1.67717e+06 30425.3 0 -1.67833e+06 60878.1 0 -1.68026e+06 91385.8 0 -1.68295e+06 121976 0 -1.68641e+06 152677 0 -1.69063e+06 183515 0 -1.6956e+06 214519 0 -1.70134e+06 245718 0 -1.70782e+06 277139 0 -1.71505e+06 308812 0 -1.72302e+06 340764 0 -1.73172e+06 373025 0 -1.74115e+06 405625 0 -1.75129e+06 438592 0 -1.76212e+06 471957 0 -1.77365e+06 505749 0 -1.78584e+06 539996 0 -1.79868e+06 574729 0 -1.81214e+06 609976 0 -1.82619e+06 645764 0 -1.84079e+06 682121 0 -1.85591e+06 719071 0 -1.8715e+06 756636 0 -1.88749e+06 794837 0 -1.90382e+06 833689 0 -1.9204e+06 873201 0 -1.93714e+06 913376 0 -1.95393e+06 954207 0 -1.97064e+06 995674 0 -1.98711e+06 1.03774e+06 0 -2.00317e+06 1.08036e+06 0 -1.67067e+06 0 0 -1.67107e+06 30578.3 0 -1.67222e+06 61184 0 -1.67413e+06 91844.5 0 -1.67681e+06 122587 0 -1.68024e+06 153440 0 -1.68443e+06 184430 0 -1.68937e+06 215585 0 -1.69506e+06 246934 0 -1.7015e+06 278505 0 -1.70867e+06 310325 0 -1.71658e+06 342425 0 -1.72522e+06 374831 0 -1.73458e+06 407574 0 -1.74464e+06 440683 0 -1.7554e+06 474186 0 -1.76683e+06 508112 0 -1.77893e+06 542491 0 -1.79167e+06 577350 0 -1.80502e+06 612718 0 -1.81896e+06 648621 0 -1.83345e+06 685084 0 -1.84845e+06 722132 0 -1.86391e+06 759784 0 -1.87978e+06 798060 0 -1.89598e+06 836970 0 -1.91243e+06 876524 0 -1.92904e+06 916720 0 -1.9457e+06 957547 0 -1.96229e+06 998984 0 -1.97865e+06 1.04099e+06 0 -1.99461e+06 1.08351e+06 0 -1.66454e+06 0 0 -1.66493e+06 30730.3 0 -1.66608e+06 61487.8 0 -1.66798e+06 92300 0 -1.67064e+06 123194 0 -1.67404e+06 154198 0 -1.6782e+06 185338 0 -1.68311e+06 216644 0 -1.68876e+06 248142 0 -1.69514e+06 279861 0 -1.70227e+06 311828 0 -1.71012e+06 344073 0 -1.71869e+06 376624 0 -1.72798e+06 409509 0 -1.73796e+06 442757 0 -1.74864e+06 476397 0 -1.75999e+06 510458 0 -1.77199e+06 544966 0 -1.78463e+06 579951 0 -1.79788e+06 615439 0 -1.81172e+06 651455 0 -1.82609e+06 688024 0 -1.84098e+06 725169 0 -1.85631e+06 762908 0 -1.87205e+06 801256 0 -1.88812e+06 840226 0 -1.90445e+06 879821 0 -1.92094e+06 920038 0 -1.93748e+06 960864 0 -1.95395e+06 1.00227e+06 0 -1.9702e+06 1.04422e+06 0 -1.98607e+06 1.08663e+06 0 -1.65838e+06 0 0 -1.65877e+06 30881.1 0 -1.65991e+06 61789.4 0 -1.6618e+06 92752.2 0 -1.66443e+06 123797 0 -1.66781e+06 154950 0 -1.67194e+06 186240 0 -1.67681e+06 217694 0 -1.68242e+06 249340 0 -1.68876e+06 281206 0 -1.69583e+06 313320 0 -1.70363e+06 345709 0 -1.71214e+06 378403 0 -1.72135e+06 411429 0 -1.73126e+06 444816 0 -1.74186e+06 478592 0 -1.75312e+06 512785 0 -1.76503e+06 547423 0 -1.77758e+06 582532 0 -1.79072e+06 618138 0 -1.80445e+06 654267 0 -1.81871e+06 690941 0 -1.83348e+06 728182 0 -1.8487e+06 766006 0 -1.86431e+06 804428 0 -1.88026e+06 843457 0 -1.89646e+06 883094 0 -1.91283e+06 923333 0 -1.92925e+06 964157 0 -1.94561e+06 1.00554e+06 0 -1.96177e+06 1.04742e+06 0 -1.97756e+06 1.08974e+06 0 </DataArray> 
</PointData> 
<Points> 
<DataArray type="Float32" NumberOfComponents="3"> 