<?xml version="1.0"?> 
<VTKFile type="StructuredGrid" version="0.1"> 
<StructuredGrid WholeExtent="0 31 0 31 0 0"> 
<Piece Extent="0 31 0 31 0 0"> 
<PointData>
<DataArray type="Float32" Name="|E|" format="ascii" NumberOfComponents="3"> 
-1.97756e+06 1.08972e+06 0 -1.99277e+06 1.13238e+06 0 -2.00722e+06 1.17526e+06 0 -2.02068e+06 1.2182e+06 0 -2.03289e+06 1.26098e+06 0 -2.04359e+06 1.30334e+06 0 -2.05253e+06 1.34496e+06 0 -2.05945e+06 1.38543e+06 0 -2.06412e+06 1.42428e+06 0 -2.06637e+06 1.46098e+06 0 -2.06611e+06 1.49492e+06 0 -2.06334e+06 1.52543e+06 0 -2.05824e+06 1.55184e+06 0 -2.05112e+06 1.57348e+06 0 -2.0425e+06 1.58974e+06 0 -2.03309e+06 1.60013e+06 0 -2.02379e+06 1.60432e+06 0 -2.01566e+06 1.60219e+06 0 -2.00995e+06 1.59386e+06 0 -2.00801e+06 1.57972e+06 0 -2.01138e+06 1.56044e+06 0 -2.02173e+06 1.53699e+06 0 -2.04104e+06 1.51073e+06 0 -2.07171e+06 1.48335e+06 0 -2.11671e+06 1.45741e+06 0 -2.18072e+06 1.43598e+06 0 -2.27006e+06 1.42449e+06 0 -2.39504e+06 1.43161e+06 0 -2.58558e+06 1.47831e+06 0 -2.88686e+06 1.55072e+06 0 -3.40909e+06 2.20883e+06 0 -6.88688e+06 3.30442e+06 0 -1.95968e+06 1.0878e+06 0 -1.97463e+06 1.12939e+06 0 -1.98893e+06 1.17115e+06 0 -2.00238e+06 1.21292e+06 0 -2.01477e+06 1.25451e+06 0 -2.02587e+06 1.29568e+06 0 -2.03547e+06 1.33613e+06 0 -2.04332e+06 1.37552e+06 0 -2.04924e+06 1.41343e+06 0 -2.05306e+06 1.44938e+06 0 -2.05469e+06 1.48286e+06 0 -2.05411e+06 1.5133e+06 0 -2.05143e+06 1.54009e+06 0 -2.04688e+06 1.56266e+06 0 -2.04084e+06 1.58047e+06 0 -2.03387e+06 1.59305e+06 0 -2.02668e+06 1.6001e+06 0 -2.02013e+06 1.60145e+06 0 -2.01525e+06 1.59716e+06 0 -2.01316e+06 1.5875e+06 0 -2.01514e+06 1.57302e+06 0 -2.02257e+06 1.55454e+06 0 -2.03702e+06 1.5332e+06 0 -2.06037e+06 1.51051e+06 0 -2.09481e+06 1.4886e+06 0 -2.14328e+06 1.47034e+06 0 -2.21019e+06 1.46027e+06 0 -2.30186e+06 1.46228e+06 0 -2.42261e+06 1.50712e+06 0 -2.63849e+06 1.53691e+06 0 -2.80121e+06 1.8246e+06 0 -3.59359e+06 2.4594e+06 0 -1.94189e+06 1.08592e+06 0 -1.95657e+06 1.12648e+06 0 -1.97071e+06 1.16717e+06 0 -1.98413e+06 1.20784e+06 0 -1.99666e+06 1.24831e+06 0 -2.0081e+06 1.28836e+06 0 -2.01825e+06 1.32773e+06 0 -2.02691e+06 1.3661e+06 0 -2.03392e+06 1.40312e+06 0 -2.03913e+06 1.43837e+06 0 -2.04243e+06 1.47139e+06 0 -2.0438e+06 1.50169e+06 0 -2.04329e+06 1.52875e+06 0 -2.04106e+06 1.55206e+06 0 -2.0374e+06 1.57113e+06 0 -2.03273e+06 1.58557e+06 0 -2.02761e+06 1.59504e+06 0 -2.02273e+06 1.59938e+06 0 -2.0189e+06 1.59859e+06 0 -2.01707e+06 1.59285e+06 0 -2.01827e+06 1.58259e+06 0 -2.02366e+06 1.56847e+06 0 -2.03449e+06 1.55144e+06 0 -2.05221e+06 1.5328e+06 0 -2.0785e+06 1.51432e+06 0 -2.11539e+06 1.49824e+06 0 -2.16518e+06 1.48898e+06 0 -2.23408e+06 1.48731e+06 0 -2.31613e+06 1.51734e+06 0 -2.45395e+06 1.56092e+06 0 -2.60008e+06 1.70146e+06 0 -2.77024e+06 1.87362e+06 0 -1.92417e+06 1.08406e+06 0 -1.93858e+06 1.12364e+06 0 -1.95255e+06 1.16331e+06 0 -1.96592e+06 1.20293e+06 0 -1.97854e+06 1.24234e+06 0 -1.99025e+06 1.28134e+06 0 -2.00087e+06 1.3197e+06 0 -2.01024e+06 1.35713e+06 0 -2.0182e+06 1.39331e+06 0 -2.02462e+06 1.42789e+06 0 -2.02939e+06 1.46045e+06 0 -2.03248e+06 1.49058e+06 0 -2.03391e+06 1.51781e+06 0 -2.03378e+06 1.5417e+06 0 -2.0323e+06 1.56182e+06 0 -2.02979e+06 1.5778e+06 0 -2.02667e+06 1.58934e+06 0 -2.02348e+06 1.59625e+06 0 -2.02088e+06 1.59848e+06 0 -2.01963e+06 1.59616e+06 0 -2.02057e+06 1.5896e+06 0 -2.02465e+06 1.57933e+06 0 -2.03288e+06 1.56611e+06 0 -2.0464e+06 1.55102e+06 0 -2.06646e+06 1.53552e+06 0 -2.09466e+06 1.52132e+06 0 -2.13206e+06 1.51205e+06 0 -2.18309e+06 1.50886e+06 0 -2.24525e+06 1.5234e+06 0 -2.32849e+06 1.55647e+06 0 -2.44125e+06 1.64419e+06 0 -2.56755e+06 1.80574e+06 0 -1.90651e+06 1.08222e+06 0 -1.92065e+06 1.12086e+06 0 -1.93443e+06 1.15955e+06 0 -1.94773e+06 1.19818e+06 0 -1.96041e+06 1.23659e+06 0 -1.97233e+06 1.27461e+06 0 -1.98335e+06 1.31201e+06 0 -1.99331e+06 1.34855e+06 0 -2.00209e+06 1.38395e+06 0 -2.00955e+06 1.41788e+06 0 -2.01562e+06 1.45e+06 0 -2.02023e+06 1.47992e+06 0 -2.02339e+06 1.50725e+06 0 -2.02515e+06 1.53159e+06 0 -2.02566e+06 1.55257e+06 0 -2.02515e+06 1.56985e+06 0 -2.02394e+06 1.58313e+06 0 -2.02245e+06 1.59224e+06 0 -2.02119e+06 1.5971e+06 0 -2.02076e+06 1.59776e+06 0 -2.02185e+06 1.59446e+06 0 -2.02522e+06 1.58758e+06 0 -2.0317e+06 1.57776e+06 0 -2.04218e+06 1.56584e+06 0 -2.05762e+06 1.55304e+06 0 -2.07923e+06 1.5407e+06 0 -2.10782e+06 1.53141e+06 0 -2.14542e+06 1.52715e+06 0 -2.19309e+06 1.53365e+06 0 -2.25127e+06 1.55532e+06 0 -2.32342e+06 1.60204e+06 0 -2.41104e+06 1.7077e+06 0 -1.88891e+06 1.0804e+06 0 -1.90276e+06 1.11813e+06 0 -1.91635e+06 1.15589e+06 0 -1.92955e+06 1.19357e+06 0 -1.94225e+06 1.23103e+06 0 -1.95433e+06 1.26811e+06 0 -1.96567e+06 1.30461e+06 0 -1.97613e+06 1.34032e+06 0 -1.9856e+06 1.37497e+06 0 -1.99398e+06 1.40829e+06 0 -2.00117e+06 1.43997e+06 0 -2.00711e+06 1.46967e+06 0 -2.0118e+06 1.49704e+06 0 -2.01525e+06 1.52173e+06 0 -2.01757e+06 1.54342e+06 0 -2.01891e+06 1.56178e+06 0 -2.0195e+06 1.57655e+06 0 -2.01967e+06 1.58755e+06 0 -2.01981e+06 1.59467e+06 0 -2.02039e+06 1.59793e+06 0 -2.02196e+06 1.59748e+06 0 -2.02512e+06 1.59363e+06 0 -2.03053e+06 1.58685e+06 0 -2.03892e+06 1.57781e+06 0 -2.05103e+06 1.56748e+06 0 -2.06773e+06 1.55697e+06 0 -2.08981e+06 1.54808e+06 0 -2.11816e+06 1.54276e+06 0 -2.15386e+06 1.54418e+06 0 -2.19747e+06 1.55717e+06 0 -2.24903e+06 1.58625e+06 0 -2.30649e+06 1.64132e+06 0 -1.87134e+06 1.07859e+06 0 -1.88492e+06 1.11544e+06 0 -1.89829e+06 1.1523e+06 0 -1.91137e+06 1.18907e+06 0 -1.92406e+06 1.22563e+06 0 -1.93625e+06 1.26183e+06 0 -1.94783e+06 1.29748e+06 0 -1.95871e+06 1.3324e+06 0 -1.96877e+06 1.36635e+06 0 -1.97792e+06 1.39908e+06 0 -1.98608e+06 1.43033e+06 0 -1.99319e+06 1.45979e+06 0 -1.99922e+06 1.48715e+06 0 -2.00417e+06 1.51211e+06 0 -2.00811e+06 1.53437e+06 0 -2.01114e+06 1.55364e+06 0 -2.01343e+06 1.56967e+06 0 -2.01521e+06 1.58229e+06 0 -2.01677e+06 1.59138e+06 0 -2.01848e+06 1.59691e+06 0 -2.02076e+06 1.59898e+06 0 -2.02409e+06 1.59781e+06 0 -2.02901e+06 1.59376e+06 0 -2.03607e+06 1.58735e+06 0 -2.04587e+06 1.57933e+06 0 -2.05907e+06 1.57063e+06 0 -2.07628e+06 1.56253e+06 0 -2.09813e+06 1.55666e+06 0 -2.12521e+06 1.55512e+06 0 -2.1579e+06 1.5611e+06 0 -2.19645e+06 1.5788e+06 0 -2.2395e+06 1.61364e+06 0 -1.8538e+06 1.07679e+06 0 -1.8671e+06 1.11278e+06 0 -1.88025e+06 1.14878e+06 0 -1.89319e+06 1.18468e+06 0 -1.90582e+06 1.22038e+06 0 -1.91807e+06 1.25573e+06 0 -1.92984e+06 1.29058e+06 0 -1.94104e+06 1.32474e+06 0 -1.95159e+06 1.35803e+06 0 -1.96139e+06 1.3902e+06 0 -1.97038e+06 1.42102e+06 0 -1.9785e+06 1.45023e+06 0 -1.9857e+06 1.47755e+06 0 -1.99199e+06 1.50271e+06 0 -1.99738e+06 1.52544e+06 0 -2.00195e+06 1.54547e+06 0 -2.0058e+06 1.56258e+06 0 -2.00911e+06 1.57659e+06 0 -2.01208e+06 1.58738e+06 0 -2.01499e+06 1.5949e+06 0 -2.01817e+06 1.5992e+06 0 -2.02197e+06 1.60041e+06 0 -2.02682e+06 1.59882e+06 0 -2.03317e+06 1.59482e+06 0 -2.04148e+06 1.58899e+06 0 -2.05225e+06 1.58206e+06 0 -2.06598e+06 1.575e+06 0 -2.08312e+06 1.56908e+06 0 -2.10408e+06 1.56587e+06 0 -2.1291e+06 1.56748e+06 0 -2.15816e+06 1.57672e+06 0 -2.19066e+06 1.5979e+06 0 -1.83629e+06 1.07498e+06 0 -1.8493e+06 1.11015e+06 0 -1.86222e+06 1.14531e+06 0 -1.87499e+06 1.18038e+06 0 -1.88754e+06 1.21524e+06 0 -1.8998e+06 1.24979e+06 0 -1.9117e+06 1.28387e+06 0 -1.92315e+06 1.31732e+06 0 -1.93409e+06 1.34996e+06 0 -1.94443e+06 1.3816e+06 0 -1.95412e+06 1.41201e+06 0 -1.96309e+06 1.44096e+06 0 -1.97131e+06 1.46821e+06 0 -1.97876e+06 1.49351e+06 0 -1.98545e+06 1.51661e+06 0 -1.9914e+06 1.53729e+06 0 -1.99669e+06 1.55532e+06 0 -2.00143e+06 1.57054e+06 0 -2.00578e+06 1.58281e+06 0 -2.00992e+06 1.59207e+06 0 -2.0141e+06 1.59833e+06 0 -2.01859e+06 1.60167e+06 0 -2.02373e+06 1.6023e+06 0 -2.02984e+06 1.60051e+06 0 -2.03731e+06 1.59674e+06 0 -2.04651e+06 1.59157e+06 0 -2.05783e+06 1.58574e+06 0 -2.07163e+06 1.5802e+06 0 -2.08821e+06 1.57615e+06 0 -2.10776e+06 1.57511e+06 0 -2.13027e+06 1.57898e+06 0 -2.1552e+06 1.59039e+06 0 -1.8188e+06 1.07317e+06 0 -1.83151e+06 1.10753e+06 0 -1.84418e+06 1.14188e+06 0 -1.85676e+06 1.17614e+06 0 -1.8692e+06 1.21021e+06 0 -1.88143e+06 1.24398e+06 0 -1.8934e+06 1.27732e+06 0 -1.90503e+06 1.31009e+06 0 -1.91627e+06 1.34212e+06 0 -1.92705e+06 1.37324e+06 0 -1.93732e+06 1.40324e+06 0 -1.94702e+06 1.43193e+06 0 -1.95611e+06 1.45908e+06 0 -1.96457e+06 1.48447e+06 0 -1.97238e+06 1.50788e+06 0 -1.97956e+06 1.5291e+06 0 -1.98616e+06 1.54792e+06 0 -1.99223e+06 1.56419e+06 0 -1.99788e+06 1.57776e+06 0 -2.00325e+06 1.58855e+06 0 -2.0085e+06 1.59655e+06 0 -2.01384e+06 1.60181e+06 0 -2.01951e+06 1.60444e+06 0 -2.02576e+06 1.60468e+06 0 -2.03289e+06 1.60286e+06 0 -2.0412e+06 1.59941e+06 0 -2.05097e+06 1.59492e+06 0 -2.06249e+06 1.5901e+06 0 -2.076e+06 1.58585e+06 0 -2.09165e+06 1.58332e+06 0 -2.10948e+06 1.58386e+06 0 -2.12918e+06 1.58925e+06 0 -1.80132e+06 1.07135e+06 0 -1.81372e+06 1.10492e+06 0 -1.82613e+06 1.13848e+06 0 -1.83851e+06 1.17196e+06 0 -1.8508e+06 1.20526e+06 0 -1.86297e+06 1.23828e+06 0 -1.87495e+06 1.27091e+06 0 -1.8867e+06 1.30302e+06 0 -1.89816e+06 1.33446e+06 0 -1.90928e+06 1.36507e+06 0 -1.92002e+06 1.39468e+06 0 -1.93031e+06 1.4231e+06 0 -1.94013e+06 1.45013e+06 0 -1.94945e+06 1.47558e+06 0 -1.95824e+06 1.49923e+06 0 -1.96651e+06 1.5209e+06 0 -1.97427e+06 1.54041e+06 0 -1.98156e+06 1.55758e+06 0 -1.98844e+06 1.57229e+06 0 -1.99499e+06 1.58445e+06 0 -2.00134e+06 1.594e+06 0 -2.00762e+06 1.60097e+06 0 -2.014e+06 1.60543e+06 0 -2.02068e+06 1.60754e+06 0 -2.02787e+06 1.60755e+06 0 -2.03579e+06 1.60579e+06 0 -2.04468e+06 1.6027e+06 0 -2.05475e+06 1.59883e+06 0 -2.06619e+06 1.59487e+06 0 -2.07914e+06 1.59167e+06 0 -2.09365e+06 1.59023e+06 0 -2.10956e+06 1.59183e+06 0 -1.78384e+06 1.06951e+06 0 -1.79593e+06 1.10231e+06 0 -1.80806e+06 1.1351e+06 0 -1.82022e+06 1.16782e+06 0 -1.83234e+06 1.20037e+06 0 -1.8444e+06 1.23267e+06 0 -1.85635e+06 1.26461e+06 0 -1.86815e+06 1.29608e+06 0 -1.87976e+06 1.32695e+06 0 -1.89114e+06 1.35707e+06 0 -1.90223e+06 1.38628e+06 0 -1.91301e+06 1.41442e+06 0 -1.92343e+06 1.44132e+06 0 -1.93347e+06 1.46678e+06 0 -1.9431e+06 1.49063e+06 0 -1.95231e+06 1.51269e+06 0 -1.9611e+06 1.53278e+06 0 -1.96948e+06 1.55075e+06 0 -1.97748e+06 1.56646e+06 0 -1.98517e+06 1.57982e+06 0 -1.99259e+06 1.59077e+06 0 -1.99986e+06 1.59929e+06 0 -2.00708e+06 1.60541e+06 0 -2.01438e+06 1.60926e+06 0 -2.02193e+06 1.61099e+06 0 -2.02987e+06 1.61087e+06 0 -2.03839e+06 1.60922e+06 0 -2.04766e+06 1.60646e+06 0 -2.05782e+06 1.60313e+06 0 -2.06899e+06 1.59986e+06 0 -2.08122e+06 1.5974e+06 0 -2.09445e+06 1.59667e+06 0 -1.76635e+06 1.06764e+06 0 -1.77813e+06 1.09969e+06 0 -1.78998e+06 1.13173e+06 0 -1.80189e+06 1.1637e+06 0 -1.81381e+06 1.19552e+06 0 -1.82573e+06 1.22712e+06 0 -1.83761e+06 1.25839e+06 0 -1.84941e+06 1.28924e+06 0 -1.8611e+06 1.31955e+06 0 -1.87264e+06 1.34918e+06 0 -1.884e+06 1.37801e+06 0 -1.89515e+06 1.40586e+06 0 -1.90605e+06 1.4326e+06 0 -1.91668e+06 1.45805e+06 0 -1.92701e+06 1.48205e+06 0 -1.93701e+06 1.50443e+06 0 -1.94669e+06 1.52503e+06 0 -1.95604e+06 1.54369e+06 0 -1.96507e+06 1.5603e+06 0 -1.97379e+06 1.57474e+06 0 -1.98226e+06 1.58694e+06 0 -1.99052e+06 1.59686e+06 0 -1.99863e+06 1.60452e+06 0 -2.0067e+06 1.60997e+06 0 -2.01481e+06 1.61333e+06 0 -2.02308e+06 1.61479e+06 0 -2.03163e+06 1.61459e+06 0 -2.0406e+06 1.61306e+06 0 -2.05008e+06 1.6106e+06 0 -2.06018e+06 1.60769e+06 0 -2.07096e+06 1.6049e+06 0 -2.0824e+06 1.60292e+06 0 -1.74886e+06 1.06575e+06 0 -1.76031e+06 1.09705e+06 0 -1.77187e+06 1.12835e+06 0 -1.78351e+06 1.15959e+06 0 -1.79522e+06 1.1907e+06 0 -1.80696e+06 1.22161e+06 0 -1.81872e+06 1.25223e+06 0 -1.83047e+06 1.28247e+06 0 -1.84217e+06 1.31223e+06 0 -1.85381e+06 1.34139e+06 0 -1.86535e+06 1.36981e+06 0 -1.87677e+06 1.39738e+06 0 -1.88804e+06 1.42395e+06 0 -1.89913e+06 1.44936e+06 0 -1.91002e+06 1.47346e+06 0 -1.92069e+06 1.4961e+06 0 -1.93113e+06 1.51714e+06 0 -1.94131e+06 1.53642e+06 0 -1.95124e+06 1.55381e+06 0 -1.96091e+06 1.56922e+06 0 -1.97035e+06 1.58256e+06 0 -1.97957e+06 1.59377e+06 0 -1.9886e+06 1.60283e+06 0 -1.9975e+06 1.60977e+06 0 -2.00632e+06 1.61467e+06 0 -2.01513e+06 1.61766e+06 0 -2.02402e+06 1.61891e+06 0 -2.03306e+06 1.61867e+06 0 -2.04234e+06 1.61725e+06 0 -2.05194e+06 1.615e+06 0 -2.0619e+06 1.61239e+06 0 -2.07223e+06 1.60991e+06 0 -1.73136e+06 1.06382e+06 0 -1.74248e+06 1.09439e+06 0 -1.75373e+06 1.12496e+06 0 -1.7651e+06 1.15548e+06 0 -1.77656e+06 1.18589e+06 0 -1.7881e+06 1.21612e+06 0 -1.7997e+06 1.2461e+06 0 -1.81134e+06 1.27575e+06 0 -1.823e+06 1.30496e+06 0 -1.83466e+06 1.33364e+06 0 -1.8463e+06 1.36167e+06 0 -1.85789e+06 1.38894e+06 0 -1.86942e+06 1.41531e+06 0 -1.88087e+06 1.44065e+06 0 -1.8922e+06 1.46482e+06 0 -1.9034e+06 1.48768e+06 0 -1.91446e+06 1.50908e+06 0 -1.92534e+06 1.5289e+06 0 -1.93605e+06 1.547e+06 0 -1.94656e+06 1.56328e+06 0 -1.95688e+06 1.57765e+06 0 -1.967e+06 1.59003e+06 0 -1.97693e+06 1.6004e+06 0 -1.98669e+06 1.60874e+06 0 -1.9963e+06 1.6151e+06 0 -2.0058e+06 1.61957e+06 0 -2.01523e+06 1.62225e+06 0 -2.02463e+06 1.62335e+06 0 -2.03408e+06 1.62308e+06 0 -2.0436e+06 1.62173e+06 0 -2.05324e+06 1.61963e+06 0 -2.06302e+06 1.61719e+06 0 -1.71384e+06 1.06185e+06 0 -1.72463e+06 1.0917e+06 0 -1.73556e+06 1.12155e+06 0 -1.74663e+06 1.15136e+06 0 -1.75783e+06 1.18108e+06 0 -1.76914e+06 1.21064e+06 0 -1.78054e+06 1.23999e+06 0 -1.79203e+06 1.26904e+06 0 -1.8036e+06 1.29771e+06 0 -1.81521e+06 1.32591e+06 0 -1.82687e+06 1.35354e+06 0 -1.83856e+06 1.3805e+06 0 -1.85025e+06 1.40665e+06 0 -1.86194e+06 1.43189e+06 0 -1.87359e+06 1.45609e+06 0 -1.8852e+06 1.47911e+06 0 -1.89675e+06 1.50083e+06 0 -1.90821e+06 1.52112e+06 0 -1.91956e+06 1.53985e+06 0 -1.93079e+06 1.55692e+06 0 -1.94189e+06 1.57222e+06 0 -1.95282e+06 1.58569e+06 0 -1.9636e+06 1.59726e+06 0 -1.9742e+06 1.60692e+06 0 -1.98463e+06 1.61467e+06 0 -1.99489e+06 1.62056e+06 0 -2.005e+06 1.62466e+06 0 -2.01498e+06 1.62711e+06 0 -2.02484e+06 1.62808e+06 0 -2.03463e+06 1.62778e+06 0 -2.04434e+06 1.62647e+06 0 -2.05401e+06 1.62445e+06 0 -1.6963e+06 1.05983e+06 0 -1.70675e+06 1.08896e+06 0 -1.71736e+06 1.1181e+06 0 -1.72812e+06 1.14721e+06 0 -1.73903e+06 1.17624e+06 0 -1.75008e+06 1.20515e+06 0 -1.76126e+06 1.23386e+06 0 -1.77256e+06 1.26232e+06 0 -1.78398e+06 1.29045e+06 0 -1.79549e+06 1.31817e+06 0 -1.80711e+06 1.34539e+06 0 -1.8188e+06 1.37202e+06 0 -1.83057e+06 1.39794e+06 0 -1.84239e+06 1.42305e+06 0 -1.85426e+06 1.44724e+06 0 -1.86616e+06 1.47038e+06 0 -1.87807e+06 1.49236e+06 0 -1.88997e+06 1.51305e+06 0 -1.90184e+06 1.53233e+06 0 -1.91366e+06 1.55011e+06 0 -1.92541e+06 1.56627e+06 0 -1.93707e+06 1.58073e+06 0 -1.9486e+06 1.59343e+06 0 -1.95999e+06 1.60433e+06 0 -1.97122e+06 1.6134e+06 0 -1.98228e+06 1.62066e+06 0 -1.99314e+06 1.62616e+06 0 -2.00382e+06 1.62998e+06 0 -2.01429e+06 1.63225e+06 0 -2.02457e+06 1.63312e+06 0 -2.03466e+06 1.63278e+06 0 -2.04456e+06 1.63148e+06 0 -1.67874e+06 1.05775e+06 0 -1.68884e+06 1.08617e+06 0 -1.69912e+06 1.11461e+06 0 -1.70956e+06 1.14302e+06 0 -1.72017e+06 1.17137e+06 0 -1.73094e+06 1.19962e+06 0 -1.74186e+06 1.22771e+06 0 -1.75293e+06 1.25558e+06 0 -1.76415e+06 1.28316e+06 0 -1.77552e+06 1.31039e+06 0 -1.78702e+06 1.33719e+06 0 -1.79865e+06 1.36347e+06 0 -1.8104e+06 1.38913e+06 0 -1.82227e+06 1.41409e+06 0 -1.83425e+06 1.43823e+06 0 -1.84632e+06 1.46144e+06 0 -1.85847e+06 1.48362e+06 0 -1.87069e+06 1.50465e+06 0 -1.88295e+06 1.52442e+06 0 -1.89523e+06 1.54282e+06 0 -1.90752e+06 1.55976e+06 0 -1.91977e+06 1.57514e+06 0 -1.93196e+06 1.58889e+06 0 -1.94406e+06 1.60095e+06 0 -1.95604e+06 1.61128e+06 0 -1.96786e+06 1.61987e+06 0 -1.9795e+06 1.62674e+06 0 -1.99093e+06 1.63194e+06 0 -2.00213e+06 1.63555e+06 0 -2.01307e+06 1.63767e+06 0 -2.02375e+06 1.63846e+06 0 -2.03414e+06 1.63809e+06 0 -1.66116e+06 1.05562e+06 0 -1.67091e+06 1.08333e+06 0 -1.68084e+06 1.11106e+06 0 -1.69095e+06 1.13878e+06 0 -1.70124e+06 1.16646e+06 0 -1.71171e+06 1.19405e+06 0 -1.72235e+06 1.2215e+06 0 -1.73316e+06 1.24878e+06 0 -1.74415e+06 1.27582e+06 0 -1.75531e+06 1.30255e+06 0 -1.76664e+06 1.32891e+06 0 -1.77814e+06 1.35482e+06 0 -1.7898e+06 1.3802e+06 0 -1.80163e+06 1.40496e+06 0 -1.81362e+06 1.42901e+06 0 -1.82576e+06 1.45225e+06 0 -1.83804e+06 1.47458e+06 0 -1.85045e+06 1.49588e+06 0 -1.86297e+06 1.51607e+06 0 -1.87558e+06 1.53503e+06 0 -1.88826e+06 1.55267e+06 0 -1.90098e+06 1.56888e+06 0 -1.91371e+06 1.5836e+06 0 -1.92642e+06 1.59676e+06 0 -1.93905e+06 1.60829e+06 0 -1.95158e+06 1.61817e+06 0 -1.96397e+06 1.62638e+06 0 -1.97616e+06 1.63296e+06 0 -1.98812e+06 1.63793e+06 0 -1.99982e+06 1.64138e+06 0 -2.01122e+06 1.6434e+06 0 -2.02228e+06 1.64413e+06 0 -1.64355e+06 1.05343e+06 0 -1.65295e+06 1.08043e+06 0 -1.66253e+06 1.10745e+06 0 -1.6723e+06 1.13448e+06 0 -1.68225e+06 1.16148e+06 0 -1.6924e+06 1.18841e+06 0 -1.70273e+06 1.21524e+06 0 -1.71325e+06 1.24191e+06 0 -1.72397e+06 1.26839e+06 0 -1.73488e+06 1.29461e+06 0 -1.74599e+06 1.32052e+06 0 -1.75729e+06 1.34604e+06 0 -1.7688e+06 1.37111e+06 0 -1.78051e+06 1.39565e+06 0 -1.79243e+06 1.41956e+06 0 -1.80453e+06 1.44278e+06 0 -1.81683e+06 1.46519e+06 0 -1.82932e+06 1.48672e+06 0 -1.84197e+06 1.50725e+06 0 -1.85478e+06 1.52669e+06 0 -1.86773e+06 1.54495e+06 0 -1.88079e+06 1.56192e+06 0 -1.89392e+06 1.57754e+06 0 -1.9071e+06 1.59171e+06 0 -1.92029e+06 1.60438e+06 0 -1.93343e+06 1.61549e+06 0 -1.94648e+06 1.62502e+06 0 -1.95939e+06 1.63296e+06 0 -1.97211e+06 1.63932e+06 0 -1.98459e+06 1.64414e+06 0 -1.99678e+06 1.64749e+06 0 -2.00863e+06 1.64946e+06 0 -1.62591e+06 1.05117e+06 0 -1.63495e+06 1.07746e+06 0 -1.64418e+06 1.10378e+06 0 -1.6536e+06 1.13011e+06 0 -1.66321e+06 1.15643e+06 0 -1.67301e+06 1.1827e+06 0 -1.68302e+06 1.20889e+06 0 -1.69322e+06 1.23496e+06 0 -1.70363e+06 1.26087e+06 0 -1.71426e+06 1.28656e+06 0 -1.7251e+06 1.312e+06 0 -1.73616e+06 1.33711e+06 0 -1.74745e+06 1.36183e+06 0 -1.75897e+06 1.38611e+06 0 -1.77072e+06 1.40985e+06 0 -1.78271e+06 1.43299e+06 0 -1.79492e+06 1.45544e+06 0 -1.80737e+06 1.47711e+06 0 -1.82004e+06 1.49791e+06 0 -1.83293e+06 1.51776e+06 0 -1.84601e+06 1.53656e+06 0 -1.85926e+06 1.55421e+06 0 -1.87266e+06 1.57064e+06 0 -1.88618e+06 1.58576e+06 0 -1.89978e+06 1.59949e+06 0 -1.91341e+06 1.61178e+06 0 -1.92702e+06 1.62258e+06 0 -1.94056e+06 1.63187e+06 0 -1.95398e+06 1.63962e+06 0 -1.9672e+06 1.64585e+06 0 -1.98019e+06 1.65059e+06 0 -1.99286e+06 1.65391e+06 0 -1.60825e+06 1.04883e+06 0 -1.61693e+06 1.07441e+06 0 -1.6258e+06 1.10003e+06 0 -1.63486e+06 1.12566e+06 0 -1.64411e+06 1.1513e+06 0 -1.65356e+06 1.1769e+06 0 -1.66322e+06 1.20245e+06 0 -1.67308e+06 1.2279e+06 0 -1.68316e+06 1.25323e+06 0 -1.69346e+06 1.27838e+06 0 -1.70399e+06 1.30332e+06 0 -1.71476e+06 1.32799e+06 0 -1.72577e+06 1.35234e+06 0 -1.73704e+06 1.37631e+06 0 -1.74856e+06 1.39984e+06 0 -1.76034e+06 1.42285e+06 0 -1.77239e+06 1.44527e+06 0 -1.7847e+06 1.46702e+06 0 -1.79728e+06 1.48803e+06 0 -1.81011e+06 1.5082e+06 0 -1.82319e+06 1.52745e+06 0 -1.83651e+06 1.5457e+06 0 -1.85003e+06 1.56285e+06 0 -1.86375e+06 1.57883e+06 0 -1.87761e+06 1.59355e+06 0 -1.89158e+06 1.60696e+06 0 -1.90562e+06 1.61898e+06 0 -1.91967e+06 1.62957e+06 0 -1.93367e+06 1.6387e+06 0 -1.94756e+06 1.64636e+06 0 -1.96128e+06 1.65254e+06 0 -1.97475e+06 1.65729e+06 0 -1.59055e+06 1.04641e+06 0 -1.59888e+06 1.07128e+06 0 -1.60738e+06 1.09619e+06 0 -1.61608e+06 1.12112e+06 0 -1.62496e+06 1.14607e+06 0 -1.63405e+06 1.171e+06 0 -1.64334e+06 1.1959e+06 0 -1.65284e+06 1.22072e+06 0 -1.66256e+06 1.24545e+06 0 -1.67251e+06 1.27005e+06 0 -1.6827e+06 1.29447e+06 0 -1.69313e+06 1.31867e+06 0 -1.70382e+06 1.34262e+06 0 -1.71477e+06 1.36625e+06 0 -1.726e+06 1.3895e+06 0 -1.7375e+06 1.41233e+06 0 -1.74929e+06 1.43466e+06 0 -1.76138e+06 1.45643e+06 0 -1.77376e+06 1.47756e+06 0 -1.78643e+06 1.49797e+06 0 -1.79939e+06 1.51759e+06 0 -1.81263e+06 1.53634e+06 0 -1.82614e+06 1.55412e+06 0 -1.8399e+06 1.57087e+06 0 -1.85388e+06 1.58649e+06 0 -1.86804e+06 1.60093e+06 0 -1.88235e+06 1.6141e+06 0 -1.89675e+06 1.62595e+06 0 -1.9112e+06 1.63643e+06 0 -1.92563e+06 1.64551e+06 0 -1.93997e+06 1.65316e+06 0 -1.95416e+06 1.6594e+06 0 -1.57283e+06 1.04392e+06 0 -1.58079e+06 1.06806e+06 0 -1.58893e+06 1.09226e+06 0 -1.59726e+06 1.11649e+06 0 -1.60577e+06 1.14074e+06 0 -1.61448e+06 1.16499e+06 0 -1.62339e+06 1.18923e+06 0 -1.63252e+06 1.21341e+06 0 -1.64186e+06 1.23753e+06 0 -1.65144e+06 1.26154e+06 0 -1.66125e+06 1.28542e+06 0 -1.67131e+06 1.30913e+06 0 -1.68163e+06 1.33263e+06 0 -1.69222e+06 1.35588e+06 0 -1.70309e+06 1.37883e+06 0 -1.71426e+06 1.40142e+06 0 -1.72572e+06 1.4236e+06 0 -1.73749e+06 1.4453e+06 0 -1.74958e+06 1.46648e+06 0 -1.76199e+06 1.48705e+06 0 -1.77472e+06 1.50694e+06 0 -1.78776e+06 1.52608e+06 0 -1.80112e+06 1.5444e+06 0 -1.81478e+06 1.56181e+06 0 -1.82871e+06 1.57824e+06 0 -1.8429e+06 1.5936e+06 0 -1.85731e+06 1.60784e+06 0 -1.8719e+06 1.62088e+06 0 -1.88663e+06 1.63266e+06 0 -1.90143e+06 1.64313e+06 0 -1.91625e+06 1.65226e+06 0 -1.93101e+06 1.66002e+06 0 -1.55508e+06 1.04133e+06 0 -1.56268e+06 1.06475e+06 0 -1.57045e+06 1.08823e+06 0 -1.5784e+06 1.11175e+06 0 -1.58654e+06 1.1353e+06 0 -1.59486e+06 1.15887e+06 0 -1.60339e+06 1.18242e+06 0 -1.61212e+06 1.20596e+06 0 -1.62107e+06 1.22944e+06 0 -1.63025e+06 1.25286e+06 0 -1.63966e+06 1.27617e+06 0 -1.64932e+06 1.29936e+06 0 -1.65924e+06 1.32238e+06 0 -1.66943e+06 1.3452e+06 0 -1.6799e+06 1.36778e+06 0 -1.69066e+06 1.39008e+06 0 -1.70174e+06 1.41204e+06 0 -1.71313e+06 1.43362e+06 0 -1.72484e+06 1.45476e+06 0 -1.73689e+06 1.47539e+06 0 -1.74929e+06 1.49546e+06 0 -1.76202e+06 1.5149e+06 0 -1.7751e+06 1.53364e+06 0 -1.78852e+06 1.5516e+06 0 -1.80226e+06 1.56872e+06 0 -1.81632e+06 1.58491e+06 0 -1.83066e+06 1.60011e+06 0 -1.84525e+06 1.61424e+06 0 -1.86007e+06 1.62724e+06 0 -1.87506e+06 1.63905e+06 0 -1.89016e+06 1.64961e+06 0 -1.90532e+06 1.65889e+06 0 -1.5373e+06 1.03865e+06 0 -1.54454e+06 1.06135e+06 0 -1.55194e+06 1.0841e+06 0 -1.55952e+06 1.10691e+06 0 -1.56727e+06 1.12974e+06 0 -1.57521e+06 1.15261e+06 0 -1.58334e+06 1.17548e+06 0 -1.59167e+06 1.19834e+06 0 -1.60021e+06 1.22118e+06 0 -1.60897e+06 1.24398e+06 0 -1.61797e+06 1.2667e+06 0 -1.6272e+06 1.28933e+06 0 -1.63668e+06 1.31184e+06 0 -1.64644e+06 1.33419e+06 0 -1.65647e+06 1.35636e+06 0 -1.66679e+06 1.37831e+06 0 -1.67742e+06 1.39999e+06 0 -1.68836e+06 1.42136e+06 0 -1.69964e+06 1.44238e+06 0 -1.71126e+06 1.46299e+06 0 -1.72322e+06 1.48314e+06 0 -1.73555e+06 1.50277e+06 0 -1.74823e+06 1.52181e+06 0 -1.76129e+06 1.54021e+06 0 -1.7747e+06 1.55789e+06 0 -1.78846e+06 1.57478e+06 0 -1.80257e+06 1.59082e+06 0 -1.81699e+06 1.60593e+06 0 -1.8317e+06 1.62004e+06 0 -1.84667e+06 1.63309e+06 0 -1.86186e+06 1.64502e+06 0 -1.8772e+06 1.65577e+06 0 -1.5195e+06 1.03587e+06 0 -1.52638e+06 1.05784e+06 0 -1.53341e+06 1.07986e+06 0 -1.54061e+06 1.10194e+06 0 -1.54798e+06 1.12406e+06 0 -1.55552e+06 1.14621e+06 0 -1.56325e+06 1.16839e+06 0 -1.57118e+06 1.19057e+06 0 -1.5793e+06 1.21274e+06 0 -1.58763e+06 1.23489e+06 0 -1.59619e+06 1.257e+06 0 -1.60497e+06 1.27904e+06 0 -1.61401e+06 1.301e+06 0 -1.62329e+06 1.32285e+06 0 -1.63285e+06 1.34455e+06 0 -1.6427e+06 1.36609e+06 0 -1.65284e+06 1.38743e+06 0 -1.66329e+06 1.40852e+06 0 -1.67406e+06 1.42934e+06 0 -1.68518e+06 1.44984e+06 0 -1.69664e+06 1.46996e+06 0 -1.70847e+06 1.48967e+06 0 -1.72067e+06 1.5089e+06 0 -1.73324e+06 1.5276e+06 0 -1.7462e+06 1.54571e+06 0 -1.75953e+06 1.56316e+06 0 -1.77324e+06 1.5799e+06 0 -1.78732e+06 1.59585e+06 0 -1.80175e+06 1.61094e+06 0 -1.8165e+06 1.62511e+06 0 -1.83154e+06 1.6383e+06 0 -1.84684e+06 1.65043e+06 0 -1.50167e+06 1.03299e+06 0 -1.50819e+06 1.05422e+06 0 -1.51486e+06 1.07551e+06 0 -1.52168e+06 1.09685e+06 0 -1.52867e+06 1.11825e+06 0 -1.53582e+06 1.13968e+06 0 -1.54314e+06 1.16114e+06 0 -1.55065e+06 1.18262e+06 0 -1.55834e+06 1.20411e+06 0 -1.56624e+06 1.22559e+06 0 -1.57435e+06 1.24706e+06 0 -1.58268e+06 1.26848e+06 0 -1.59124e+06 1.28986e+06 0 -1.60004e+06 1.31115e+06 0 -1.6091e+06 1.33235e+06 0 -1.61844e+06 1.35343e+06 0 -1.62806e+06 1.37436e+06 0 -1.63797e+06 1.3951e+06 0 -1.64821e+06 1.41564e+06 0 -1.65877e+06 1.43592e+06 0 -1.66967e+06 1.45592e+06 0 -1.68093e+06 1.4756e+06 0 -1.69255e+06 1.49489e+06 0 -1.70456e+06 1.51377e+06 0 -1.71695e+06 1.53217e+06 0 -1.72973e+06 1.55004e+06 0 -1.74291e+06 1.56732e+06 0 -1.75649e+06 1.58395e+06 0 -1.77045e+06 1.59986e+06 0 -1.78478e+06 1.615e+06 0 -1.79948e+06 1.62929e+06 0 -1.8145e+06 1.64268e+06 0 -1.48382e+06 1.03001e+06 0 -1.48999e+06 1.05049e+06 0 -1.49629e+06 1.07104e+06 0 -1.50274e+06 1.09164e+06 0 -1.50934e+06 1.11229e+06 0 -1.51609e+06 1.13299e+06 0 -1.52301e+06 1.15373e+06 0 -1.5301e+06 1.1745e+06 0 -1.53737e+06 1.19528e+06 0 -1.54482e+06 1.21608e+06 0 -1.55248e+06 1.23687e+06 0 -1.56034e+06 1.25765e+06 0 -1.56841e+06 1.27841e+06 0 -1.57672e+06 1.29911e+06 0 -1.58527e+06 1.31976e+06 0 -1.59407e+06 1.34032e+06 0 -1.60315e+06 1.36077e+06 0 -1.6125e+06 1.3811e+06 0 -1.62216e+06 1.40128e+06 0 -1.63212e+06 1.42127e+06 0 -1.64241e+06 1.44104e+06 0 -1.65305e+06 1.46057e+06 0 -1.66404e+06 1.47981e+06 0 -1.6754e+06 1.49873e+06 0 -1.68714e+06 1.51727e+06 0 -1.69927e+06 1.5354e+06 0 -1.7118e+06 1.55306e+06 0 -1.72474e+06 1.57019e+06 0 -1.73808e+06 1.58676e+06 0 -1.75184e+06 1.60268e+06 0 -1.76599e+06 1.61791e+06 0 -1.78052e+06 1.63238e+06 0 -1.46595e+06 1.02693e+06 0 -1.47176e+06 1.04665e+06 0 -1.47771e+06 1.06645e+06 0 -1.48378e+06 1.0863e+06 0 -1.49e+06 1.1062e+06 0 -1.49636e+06 1.12615e+06 0 -1.50288e+06 1.14615e+06 0 -1.50955e+06 1.16619e+06 0 -1.51639e+06 1.18625e+06 0 -1.5234e+06 1.20634e+06 0 -1.53059e+06 1.22644e+06 0 -1.53798e+06 1.24655e+06 0 -1.54557e+06 1.26665e+06 0 -1.55337e+06 1.28673e+06 0 -1.56139e+06 1.30677e+06 0 -1.56966e+06 1.32676e+06 0 -1.57817e+06 1.34669e+06 0 -1.58694e+06 1.36653e+06 0 -1.59599e+06 1.38627e+06 0 -1.60534e+06 1.40588e+06 0 -1.61499e+06 1.42534e+06 0 -1.62496e+06 1.44461e+06 0 -1.63526e+06 1.46368e+06 0 -1.64592e+06 1.4825e+06 0 -1.65695e+06 1.50105e+06 0 -1.66835e+06 1.51927e+06 0 -1.68014e+06 1.53714e+06 0 -1.69234e+06 1.55461e+06 0 -1.70494e+06 1.57163e+06 0 -1.71796e+06 1.58815e+06 0 -1.7314e+06 1.60411e+06 0 -1.74526e+06 1.61945e+06 0 -1.44806e+06 1.02373e+06 0 -1.45353e+06 1.0427e+06 0 -1.45911e+06 1.06173e+06 0 -1.46482e+06 1.08082e+06 0 -1.47066e+06 1.09996e+06 0 -1.47663e+06 1.11916e+06 0 -1.48274e+06 1.13841e+06 0 -1.489e+06 1.15769e+06 0 -1.49541e+06 1.17702e+06 0 -1.50198e+06 1.19638e+06 0 -1.50872e+06 1.21577e+06 0 -1.51563e+06 1.23517e+06 0 -1.52273e+06 1.25458e+06 0 -1.53002e+06 1.27399e+06 0 -1.53752e+06 1.29339e+06 0 -1.54523e+06 1.31277e+06 0 -1.55318e+06 1.33212e+06 0 -1.56136e+06 1.35141e+06 0 -1.5698e+06 1.37064e+06 0 -1.5785e+06 1.38979e+06 0 -1.58749e+06 1.40883e+06 0 -1.59677e+06 1.42776e+06 0 -1.60637e+06 1.44653e+06 0 -1.61629e+06 1.46514e+06 0 -1.62655e+06 1.48354e+06 0 -1.63717e+06 1.50172e+06 0 -1.64816e+06 1.51963e+06 0 -1.65954e+06 1.53724e+06 0 -1.67131e+06 1.55452e+06 0 -1.68349e+06 1.57141e+06 0 -1.69608e+06 1.58788e+06 0 -1.70909e+06 1.60392e+06 0 -1.43015e+06 1.02042e+06 0 -1.43528e+06 1.03862e+06 0 -1.44051e+06 1.05688e+06 0 -1.44586e+06 1.0752e+06 0 -1.45133e+06 1.09358e+06 0 -1.45691e+06 1.11201e+06 0 -1.46263e+06 1.13049e+06 0 -1.46848e+06 1.14901e+06 0 -1.47446e+06 1.16759e+06 0 -1.48059e+06 1.1862e+06 0 -1.48687e+06 1.20484e+06 0 -1.49332e+06 1.22352e+06 0 -1.49993e+06 1.24221e+06 0 -1.50671e+06 1.26093e+06 0 -1.51368e+06 1.27965e+06 0 -1.52085e+06 1.29837e+06 0 -1.52823e+06 1.31707e+06 0 -1.53582e+06 1.33576e+06 0 -1.54364e+06 1.35442e+06 0 -1.5517e+06 1.37303e+06 0 -1.56002e+06 1.39158e+06 0 -1.5686e+06 1.41005e+06 0 -1.57747e+06 1.42843e+06 0 -1.58664e+06 1.4467e+06 0 -1.59611e+06 1.46484e+06 0 -1.60592e+06 1.48281e+06 0 -1.61607e+06 1.50061e+06 0 -1.62657e+06 1.51819e+06 0 -1.63745e+06 1.53554e+06 0 -1.64871e+06 1.55261e+06 0 -1.66037e+06 1.56936e+06 0 -1.67245e+06 1.58568e+06 0 </DataArray> 
</PointData> 
<Points> 
<DataArray type="Float32" NumberOfComponents="3"> 