<?xml version="1.0"?> 
<VTKFile type="StructuredGrid" version="0.1"> 
<StructuredGrid WholeExtent="0 31 0 31 0 0"> 
<Piece Extent="0 31 0 31 0 0"> 
<PointData>
<DataArray type="Float32" Name="|E|" format="ascii" NumberOfComponents="3"> 
1.70992e+06 -682048 0 1.77966e+06 -591186 0 1.85565e+06 -492933 0 1.91703e+06 -395022 0 1.96203e+06 -297614 0 1.98863e+06 -203405 0 1.99777e+06 -115118 0 1.99136e+06 -34990.7 0 1.97204e+06 35626.4 0 1.9425e+06 96251.3 0 1.90526e+06 147081 0 1.86244e+06 188759 0 1.81576e+06 222175 0 1.76658e+06 248316 0 1.71594e+06 268167 0 1.66464e+06 282657 0 1.61328e+06 292627 0 1.56229e+06 298822 0 1.51199e+06 301889 0 1.46264e+06 302382 0 1.41441e+06 300772 0 1.36741e+06 297456 0 1.32174e+06 292769 0 1.27746e+06 286990 0 1.23461e+06 280350 0 1.19321e+06 273042 0 1.15327e+06 265226 0 1.11478e+06 257034 0 1.07775e+06 248574 0 1.04216e+06 239935 0 1.00799e+06 231189 0 975222 222397 0 1.72044e+06 -686242 0 1.79299e+06 -595010 0 1.86837e+06 -496264 0 1.92945e+06 -396866 0 1.97367e+06 -297763 0 1.99925e+06 -201870 0 2.00711e+06 -112092 0 1.99932e+06 -30747 0 1.97859e+06 40800.4 0 1.94773e+06 102096 0 1.90926e+06 153380 0 1.86536e+06 195345 0 1.81773e+06 228922 0 1.76775e+06 255131 0 1.71644e+06 274985 0 1.66458e+06 289432 0 1.61275e+06 299326 0 1.56138e+06 305424 0 1.51079e+06 308377 0 1.4612e+06 308745 0 1.41277e+06 307003 0 1.36563e+06 303550 0 1.31986e+06 298721 0 1.2755e+06 292798 0 1.2326e+06 286012 0 1.19116e+06 278557 0 1.15121e+06 270593 0 1.11272e+06 262253 0 1.0757e+06 253644 0 1.04013e+06 244855 0 1.00599e+06 235959 0 973250 227017 0 1.73136e+06 -690600 0 1.80626e+06 -598891 0 1.88126e+06 -499493 0 1.94202e+06 -398571 0 1.98548e+06 -297733 0 2.00999e+06 -200130 0 2.01655e+06 -108850 0 2.00734e+06 -26291.6 0 1.98518e+06 46172.4 0 1.95296e+06 108118 0 1.91326e+06 159836 0 1.86825e+06 202066 0 1.81968e+06 235783 0 1.76889e+06 262043 0 1.7169e+06 281883 0 1.66448e+06 296272 0 1.61219e+06 306079 0 1.56044e+06 312067 0 1.50955e+06 314897 0 1.45972e+06 315133 0 1.41111e+06 313252 0 1.36382e+06 309657 0 1.31794e+06 304683 0 1.27351e+06 298612 0 1.23055e+06 291677 0 1.18909e+06 284072 0 1.14912e+06 275958 0 1.11063e+06 267467 0 1.07362e+06 258707 0 1.03807e+06 249768 0 1.00395e+06 240722 0 971248 231629 0 1.74263e+06 -695095 0 1.81951e+06 -602816 0 1.8943e+06 -502626 0 1.95476e+06 -400135 0 1.99745e+06 -297519 0 2.02088e+06 -198179 0 2.0261e+06 -105389 0 2.01542e+06 -21620.8 0 1.99181e+06 51745.4 0 1.9582e+06 114322 0 1.91724e+06 166451 0 1.87113e+06 208923 0 1.8216e+06 242760 0 1.77e+06 269051 0 1.71733e+06 288861 0 1.66434e+06 303177 0 1.61159e+06 312883 0 1.55947e+06 318752 0 1.50827e+06 321451 0 1.4582e+06 321547 0 1.4094e+06 319521 0 1.36198e+06 315777 0 1.31599e+06 310653 0 1.27148e+06 304431 0 1.22847e+06 297344 0 1.18698e+06 289587 0 1.14699e+06 281321 0 1.10851e+06 272677 0 1.07151e+06 263765 0 1.03598e+06 254674 0 1.00189e+06 245477 0 969215 236233 0 1.75419e+06 -699705 0 1.83278e+06 -606775 0 1.90751e+06 -505667 0 1.96766e+06 -401556 0 2.00958e+06 -297116 0 2.03189e+06 -196014 0 2.03574e+06 -101703 0 2.02357e+06 -16730.5 0 1.99846e+06 57522 0 1.96345e+06 120708 0 1.92122e+06 173224 0 1.87398e+06 215917 0 1.82349e+06 249851 0 1.77107e+06 276154 0 1.71772e+06 295917 0 1.66416e+06 310147 0 1.61095e+06 319740 0 1.55846e+06 325479 0 1.50696e+06 328037 0 1.45665e+06 327986 0 1.40767e+06 325808 0 1.3601e+06 321911 0 1.314e+06 316632 0 1.26942e+06 310254 0 1.22636e+06 303013 0 1.18484e+06 295101 0 1.14484e+06 286680 0 1.10636e+06 277882 0 1.06937e+06 268817 0 1.03386e+06 259574 0 999793 250224 0 967151 240828 0 1.766e+06 -704415 0 1.84611e+06 -610762 0 1.92088e+06 -508620 0 1.98075e+06 -402832 0 2.02189e+06 -296522 0 2.04305e+06 -193629 0 2.04547e+06 -97786.6 0 2.03177e+06 -11616.9 0 2.00514e+06 63505.2 0 1.96869e+06 127278 0 1.92517e+06 180158 0 1.87681e+06 223047 0 1.82534e+06 257058 0 1.7721e+06 283353 0 1.71806e+06 303052 0 1.66395e+06 317181 0 1.61027e+06 326648 0 1.5574e+06 332247 0 1.50561e+06 334655 0 1.45506e+06 334449 0 1.40589e+06 332114 0 1.35818e+06 328057 0 1.31198e+06 322619 0 1.26733e+06 316083 0 1.22422e+06 308683 0 1.18266e+06 300614 0 1.14265e+06 292036 0 1.10417e+06 283083 0 1.06719e+06 273863 0 1.0317e+06 264465 0 997666 254963 0 965057 245415 0 1.77803e+06 -709215 0 1.85952e+06 -614771 0 1.93442e+06 -511485 0 1.99401e+06 -403960 0 2.03436e+06 -295731 0 2.05434e+06 -191017 0 2.0553e+06 -93635.7 0 2.04003e+06 -6275.79 0 2.01184e+06 69697.7 0 1.97394e+06 134035 0 1.92911e+06 187253 0 1.8796e+06 230314 0 1.82716e+06 264379 0 1.77309e+06 290647 0 1.71837e+06 310266 0 1.66369e+06 324278 0 1.60955e+06 333608 0 1.55631e+06 339055 0 1.50421e+06 341304 0 1.45343e+06 340936 0 1.40408e+06 338437 0 1.35623e+06 334216 0 1.30993e+06 328615 0 1.2652e+06 321916 0 1.22204e+06 314355 0 1.18046e+06 306126 0 1.14044e+06 297389 0 1.10195e+06 288279 0 1.06499e+06 278903 0 1.02952e+06 269350 0 995508 259693 0 962932 249992 0 1.79027e+06 -714097 0 1.87303e+06 -618796 0 1.94815e+06 -514264 0 2.00746e+06 -404937 0 2.04701e+06 -294738 0 2.06576e+06 -188173 0 2.06522e+06 -89244.5 0 2.04833e+06 -703.238 0 2.01855e+06 76102.4 0 1.97917e+06 140979 0 1.93302e+06 194510 0 1.88236e+06 237719 0 1.82893e+06 271815 0 1.77404e+06 298037 0 1.71863e+06 317557 0 1.66338e+06 331438 0 1.60879e+06 340617 0 1.55517e+06 345903 0 1.50278e+06 347985 0 1.45177e+06 347446 0 1.40223e+06 344777 0 1.35424e+06 340387 0 1.30784e+06 334618 0 1.26303e+06 327753 0 1.21983e+06 320027 0 1.17822e+06 311636 0 1.13818e+06 302739 0 1.0997e+06 293469 0 1.06275e+06 283936 0 1.0273e+06 274227 0 993319 264416 0 960775 254561 0 1.8027e+06 -719055 0 1.88667e+06 -622834 0 1.96205e+06 -516958 0 2.02111e+06 -405760 0 2.05984e+06 -293536 0 2.07732e+06 -185092 0 2.07523e+06 -84607.7 0 2.05668e+06 5104.9 0 2.02528e+06 82722 0 1.98439e+06 148112 0 1.9369e+06 201930 0 1.88507e+06 245261 0 1.83066e+06 279366 0 1.77494e+06 305520 0 1.71884e+06 324925 0 1.66303e+06 338661 0 1.60798e+06 347677 0 1.55399e+06 352790 0 1.50131e+06 354696 0 1.45006e+06 353980 0 1.40034e+06 351134 0 1.35222e+06 346570 0 1.30571e+06 340629 0 1.26084e+06 333594 0 1.21758e+06 325701 0 1.17594e+06 317145 0 1.1359e+06 308085 0 1.09742e+06 298655 0 1.06048e+06 288962 0 1.02505e+06 279096 0 991098 269129 0 958588 259120 0 1.81531e+06 -724085 0 1.90045e+06 -626883 0 1.97616e+06 -519565 0 2.03495e+06 -406423 0 2.07284e+06 -292121 0 2.08901e+06 -181765 0 2.08532e+06 -79719.7 0 2.06508e+06 11152.8 0 2.03201e+06 89559.1 0 1.9896e+06 155436 0 1.94075e+06 209513 0 1.88775e+06 252940 0 1.83234e+06 287030 0 1.77579e+06 313098 0 1.71901e+06 332369 0 1.66263e+06 345945 0 1.60712e+06 354786 0 1.55277e+06 359716 0 1.49979e+06 361437 0 1.44831e+06 360536 0 1.39842e+06 357508 0 1.35015e+06 352764 0 1.30355e+06 346646 0 1.2586e+06 339438 0 1.2153e+06 331375 0 1.17364e+06 322651 0 1.13358e+06 313427 0 1.09511e+06 303834 0 1.05818e+06 293981 0 1.02277e+06 283957 0 988846 273834 0 956370 263670 0 1.8281e+06 -729185 0 1.91438e+06 -630939 0 1.99046e+06 -522085 0 2.04901e+06 -406924 0 2.08603e+06 -290485 0 2.10084e+06 -178188 0 2.0955e+06 -74574.8 0 2.07351e+06 17444.5 0 2.03875e+06 96616.4 0 1.99478e+06 162952 0 1.94456e+06 217259 0 1.89038e+06 260757 0 1.83397e+06 294809 0 1.77659e+06 320769 0 1.71912e+06 339889 0 1.66218e+06 353290 0 1.60621e+06 361943 0 1.5515e+06 366680 0 1.49823e+06 368207 0 1.44652e+06 367114 0 1.39645e+06 363898 0 1.34805e+06 358969 0 1.30135e+06 352670 0 1.25633e+06 345285 0 1.21299e+06 337049 0 1.1713e+06 328156 0 1.13123e+06 318765 0 1.09276e+06 309008 0 1.05585e+06 298994 0 1.02046e+06 288810 0 986563 278529 0 954120 268210 0 1.84106e+06 -734355 0 1.92848e+06 -635002 0 2.00498e+06 -524517 0 2.06328e+06 -407256 0 2.0994e+06 -288621 0 2.1128e+06 -174351 0 2.10575e+06 -69167.1 0 2.08197e+06 23984.3 0 2.04549e+06 103896 0 1.99994e+06 170662 0 1.94833e+06 225171 0 1.89296e+06 268711 0 1.83555e+06 302701 0 1.77733e+06 328532 0 1.71918e+06 347485 0 1.66168e+06 360695 0 1.60526e+06 369148 0 1.55018e+06 373682 0 1.49662e+06 375006 0 1.44468e+06 373714 0 1.39444e+06 370303 0 1.34591e+06 365184 0 1.29911e+06 358700 0 1.25402e+06 351135 0 1.21064e+06 342723 0 1.16892e+06 333658 0 1.12884e+06 324098 0 1.09038e+06 314176 0 1.05348e+06 303999 0 1.01811e+06 293655 0 984248 283216 0 951839 272741 0 1.8542e+06 -739595 0 1.94277e+06 -639069 0 2.01972e+06 -526857 0 2.07778e+06 -407414 0 2.11296e+06 -286523 0 2.1249e+06 -170249 0 2.11609e+06 -63490.7 0 2.09047e+06 30776.2 0 2.05222e+06 111402 0 2.00507e+06 178566 0 1.95205e+06 233246 0 1.89549e+06 276802 0 1.83707e+06 310705 0 1.77802e+06 336387 0 1.71918e+06 355154 0 1.66113e+06 368160 0 1.60425e+06 376400 0 1.54881e+06 380720 0 1.49496e+06 381833 0 1.4428e+06 380335 0 1.39239e+06 376723 0 1.34373e+06 371409 0 1.29683e+06 364736 0 1.25168e+06 356988 0 1.20825e+06 348397 0 1.16651e+06 339157 0 1.12642e+06 329426 0 1.08796e+06 319337 0 1.05108e+06 308996 0 1.01574e+06 298491 0 981901 287893 0 949527 277261 0 1.86751e+06 -744905 0 1.95725e+06 -643139 0 2.03469e+06 -529105 0 2.0925e+06 -407393 0 2.12671e+06 -284181 0 2.13712e+06 -165873 0 2.12649e+06 -57539.3 0 2.09898e+06 37824.5 0 2.05893e+06 119135 0 2.01016e+06 186667 0 1.95573e+06 241487 0 1.89796e+06 285029 0 1.83853e+06 318822 0 1.77865e+06 344334 0 1.71912e+06 362897 0 1.66051e+06 375683 0 1.60319e+06 383698 0 1.54739e+06 387794 0 1.49326e+06 388687 0 1.44088e+06 386975 0 1.39029e+06 383157 0 1.34151e+06 377644 0 1.29451e+06 370778 0 1.2493e+06 362842 0 1.20582e+06 354069 0 1.16406e+06 344653 0 1.12397e+06 334750 0 1.08551e+06 324492 0 1.04865e+06 313986 0 1.01333e+06 303318 0 979522 292561 0 947183 281772 0 1.881e+06 -750286 0 1.97194e+06 -647212 0 2.04991e+06 -531256 0 2.10746e+06 -407185 0 2.14065e+06 -281588 0 2.14947e+06 -161216 0 2.13696e+06 -51307 0 2.10752e+06 45133.3 0 2.06563e+06 127098 0 2.01521e+06 194964 0 1.95935e+06 249892 0 1.90037e+06 293393 0 1.83993e+06 327050 0 1.77921e+06 352370 0 1.719e+06 370712 0 1.65984e+06 383264 0 1.60208e+06 391042 0 1.54592e+06 394903 0 1.49151e+06 395568 0 1.43891e+06 393636 0 1.38815e+06 389605 0 1.33924e+06 383887 0 1.29216e+06 376824 0 1.24688e+06 368698 0 1.20336e+06 359741 0 1.16158e+06 350145 0 1.12148e+06 340068 0 1.08303e+06 329640 0 1.04618e+06 318967 0 1.01089e+06 308136 0 977112 297219 0 944808 286272 0 1.89468e+06 -755741 0 1.98685e+06 -651287 0 2.06538e+06 -533308 0 2.12266e+06 -406782 0 2.15478e+06 -278734 0 2.16195e+06 -156269 0 2.1475e+06 -44787.2 0 2.11606e+06 52706.6 0 2.0723e+06 135293 0 2.02021e+06 203459 0 1.96291e+06 258463 0 1.90271e+06 301893 0 1.84126e+06 335388 0 1.77971e+06 360496 0 1.71882e+06 378599 0 1.65911e+06 390902 0 1.60091e+06 398430 0 1.5444e+06 402047 0 1.48971e+06 402475 0 1.4369e+06 400315 0 1.38597e+06 396066 0 1.33693e+06 390139 0 1.28976e+06 382875 0 1.24442e+06 374555 0 1.20086e+06 365411 0 1.15906e+06 355634 0 1.11896e+06 345381 0 1.08051e+06 334781 0 1.04368e+06 323940 0 1.00841e+06 312945 0 974669 301867 0 942402 290761 0 1.90854e+06 -761273 0 2.00199e+06 -655364 0 2.08111e+06 -535256 0 2.13811e+06 -406178 0 2.16911e+06 -275610 0 2.17456e+06 -151023 0 2.15809e+06 -37973.7 0 2.12461e+06 60548.5 0 2.07895e+06 143723 0 2.02517e+06 212152 0 1.96641e+06 267198 0 1.90499e+06 310527 0 1.84252e+06 343836 0 1.78014e+06 368710 0 1.71858e+06 386556 0 1.65832e+06 398595 0 1.59968e+06 405861 0 1.54282e+06 409223 0 1.48786e+06 409407 0 1.43483e+06 407013 0 1.38375e+06 402540 0 1.33459e+06 396399 0 1.28732e+06 388930 0 1.24192e+06 380413 0 1.19833e+06 371079 0 1.15651e+06 361118 0 1.1164e+06 350687 0 1.07796e+06 339914 0 1.04115e+06 328905 0 1.00591e+06 317745 0 972195 306504 0 939963 295240 0 1.92261e+06 -766883 0 2.01738e+06 -659441 0 2.09712e+06 -537096 0 2.15382e+06 -405363 0 2.18364e+06 -272206 0 2.18729e+06 -145469 0 2.16874e+06 -30860 0 2.13317e+06 68662.8 0 2.08556e+06 152389 0 2.03006e+06 221044 0 1.96984e+06 276098 0 1.90719e+06 319296 0 1.84371e+06 352393 0 1.7805e+06 377010 0 1.71827e+06 394582 0 1.65747e+06 406343 0 1.59839e+06 413335 0 1.54119e+06 416433 0 1.48596e+06 416363 0 1.43272e+06 413728 0 1.38147e+06 409025 0 1.33219e+06 402666 0 1.28485e+06 394988 0 1.23938e+06 386271 0 1.19576e+06 376745 0 1.15391e+06 366598 0 1.11381e+06 355988 0 1.07538e+06 345040 0 1.03858e+06 333861 0 1.00337e+06 322535 0 969688 311132 0 937493 299708 0 1.93688e+06 -772575 0 2.03303e+06 -663518 0 2.11342e+06 -538823 0 2.1698e+06 -404328 0 2.19836e+06 -268510 0 2.20013e+06 -139599 0 2.17943e+06 -23439.5 0 2.14171e+06 77053.6 0 2.09213e+06 161293 0 2.0349e+06 230136 0 1.9732e+06 285161 0 1.90931e+06 328198 0 1.84483e+06 361057 0 1.78079e+06 385397 0 1.71788e+06 402677 0 1.65655e+06 414144 0 1.59704e+06 420850 0 1.5395e+06 423674 0 1.484e+06 423343 0 1.43056e+06 420460 0 1.37915e+06 415522 0 1.32976e+06 408939 0 1.28233e+06 401049 0 1.23681e+06 392129 0 1.19315e+06 382407 0 1.15129e+06 372074 0 1.11118e+06 361282 0 1.07276e+06 350158 0 1.03598e+06 338808 0 1.0008e+06 327315 0 967148 315748 0 934992 304164 0 1.95136e+06 -778352 0 2.04895e+06 -667594 0 2.13002e+06 -540430 0 2.18604e+06 -403062 0 2.21329e+06 -264512 0 2.21309e+06 -133402 0 2.19016e+06 -15705.8 0 2.15025e+06 85724.4 0 2.09865e+06 170437 0 2.03966e+06 239427 0 1.97648e+06 294389 0 1.91136e+06 337233 0 1.84586e+06 369827 0 1.781e+06 393868 0 1.71743e+06 410838 0 1.65556e+06 421997 0 1.59563e+06 428406 0 1.53776e+06 430945 0 1.482e+06 430345 0 1.42835e+06 427208 0 1.37679e+06 422030 0 1.32728e+06 415219 0 1.27976e+06 407112 0 1.23419e+06 397986 0 1.1905e+06 388067 0 1.14862e+06 377544 0 1.10851e+06 366569 0 1.07011e+06 355268 0 1.03335e+06 343745 0 998191 332085 0 964577 320354 0 932458 308610 0 1.96607e+06 -784219 0 2.06516e+06 -671670 0 2.14694e+06 -541912 0 2.20257e+06 -401554 0 2.22841e+06 -260199 0 2.22616e+06 -126869 0 2.20093e+06 -7652.4 0 2.15876e+06 94679 0 2.10512e+06 179822 0 2.04435e+06 248919 0 1.97967e+06 303779 0 1.91332e+06 346398 0 1.84681e+06 378702 0 1.78113e+06 402422 0 1.7169e+06 419064 0 1.65451e+06 429902 0 1.59416e+06 436001 0 1.53595e+06 438246 0 1.47993e+06 437369 0 1.42608e+06 433971 0 1.37437e+06 428547 0 1.32475e+06 421504 0 1.27716e+06 413178 0 1.23153e+06 403842 0 1.18781e+06 393724 0 1.14592e+06 383008 0 1.10581e+06 371848 0 1.06742e+06 360369 0 1.03068e+06 348673 0 995552 336844 0 961973 324949 0 929893 313044 0 1.98101e+06 -790179 0 2.08167e+06 -675743 0 2.16418e+06 -543261 0 2.21938e+06 -399793 0 2.24374e+06 -255559 0 2.23934e+06 -119990 0 2.21173e+06 727.333 0 2.16725e+06 103921 0 2.11152e+06 189450 0 2.04897e+06 258610 0 1.98278e+06 313331 0 1.91519e+06 355693 0 1.84767e+06 387680 0 1.78118e+06 411058 0 1.7163e+06 427355 0 1.65339e+06 437856 0 1.59262e+06 443634 0 1.53409e+06 445576 0 1.47781e+06 444414 0 1.42377e+06 440749 0 1.37191e+06 435074 0 1.32218e+06 427795 0 1.27451e+06 419245 0 1.22883e+06 409697 0 1.18508e+06 399376 0 1.14318e+06 388467 0 1.10307e+06 377121 0 1.06469e+06 365462 0 1.02798e+06 353591 0 992881 341593 0 959336 329533 0 927295 317466 0 1.9962e+06 -796237 0 2.0985e+06 -679814 0 2.18177e+06 -544470 0 2.23649e+06 -397765 0 2.25926e+06 -250578 0 2.25262e+06 -112755 0 2.22255e+06 9439.81 0 2.1757e+06 113453 0 2.11786e+06 199321 0 2.05349e+06 268500 0 1.9858e+06 323043 0 1.91697e+06 365117 0 1.84845e+06 396760 0 1.78115e+06 419775 0 1.71562e+06 435708 0 1.65219e+06 445858 0 1.59102e+06 451304 0 1.53216e+06 452934 0 1.47564e+06 451479 0 1.4214e+06 447540 0 1.3694e+06 441609 0 1.31956e+06 434089 0 1.27182e+06 425312 0 1.2261e+06 415549 0 1.18231e+06 405024 0 1.14041e+06 393919 0 1.1003e+06 382385 0 1.06194e+06 370545 0 1.02525e+06 358499 0 990176 346330 0 956667 334105 0 924666 321876 0 2.01164e+06 -802397 0 2.11567e+06 -683881 0 2.19971e+06 -545529 0 2.2539e+06 -395456 0 2.27499e+06 -245243 0 2.26599e+06 -105153 0 2.23337e+06 18491.4 0 2.1841e+06 123279 0 2.12412e+06 209437 0 2.05793e+06 278590 0 1.98872e+06 332916 0 1.91866e+06 374668 0 1.84913e+06 405940 0 1.78103e+06 428569 0 1.71486e+06 444122 0 1.65092e+06 453908 0 1.58934e+06 459010 0 1.53018e+06 460318 0 1.47341e+06 458563 0 1.41898e+06 454344 0 1.36684e+06 448152 0 1.3169e+06 440388 0 1.26909e+06 431380 0 1.22331e+06 421399 0 1.17951e+06 410667 0 1.13759e+06 399365 0 1.09749e+06 387641 0 1.05914e+06 375619 0 1.02248e+06 363397 0 987438 351057 0 953965 338665 0 922005 326274 0 2.02736e+06 -808665 0 2.13318e+06 -687943 0 2.21802e+06 -546429 0 2.27162e+06 -392852 0 2.29091e+06 -239539 0 2.27945e+06 -97173.3 0 2.2442e+06 27888.4 0 2.19246e+06 133402 0 2.1303e+06 219798 0 2.06227e+06 288878 0 1.99154e+06 342946 0 1.92024e+06 384344 0 1.84972e+06 415218 0 1.78082e+06 437441 0 1.71402e+06 452596 0 1.64957e+06 462004 0 1.5876e+06 466750 0 1.52813e+06 467727 0 1.47111e+06 465665 0 1.41651e+06 461161 0 1.36423e+06 454702 0 1.31419e+06 446689 0 1.26631e+06 437448 0 1.22049e+06 427246 0 1.17666e+06 416305 0 1.13474e+06 404803 0 1.09465e+06 392889 0 1.05631e+06 380683 0 1.01967e+06 368284 0 984666 355772 0 951231 343213 0 919312 330659 0 2.04336e+06 -815046 0 2.15106e+06 -691998 0 2.23672e+06 -547159 0 2.28965e+06 -389936 0 2.30703e+06 -233451 0 2.29298e+06 -88805.4 0 2.25503e+06 37637 0 2.20076e+06 143823 0 2.13639e+06 230405 0 2.0665e+06 299363 0 1.99425e+06 353134 0 1.92172e+06 394143 0 1.85021e+06 424593 0 1.78052e+06 446387 0 1.71309e+06 461128 0 1.64815e+06 470143 0 1.58579e+06 474523 0 1.52601e+06 475160 0 1.46877e+06 472784 0 1.41398e+06 467988 0 1.36157e+06 461258 0 1.31143e+06 452992 0 1.26348e+06 443514 0 1.21763e+06 433090 0 1.17378e+06 421937 0 1.13185e+06 410234 0 1.09176e+06 398128 0 1.05345e+06 385737 0 1.01684e+06 373160 0 981861 360476 0 948464 347749 0 916587 335032 0 2.05965e+06 -821545 0 2.16934e+06 -696044 0 2.25582e+06 -547708 0 2.30801e+06 -386690 0 2.32334e+06 -226962 0 2.30659e+06 -80038.4 0 2.26584e+06 47743.1 0 2.20898e+06 154546 0 2.14238e+06 241258 0 2.07062e+06 310045 0 1.99685e+06 363476 0 1.92309e+06 404064 0 1.8506e+06 434063 0 1.78013e+06 455407 0 1.71208e+06 469716 0 1.64665e+06 478325 0 1.58391e+06 482328 0 1.52383e+06 482617 0 1.46636e+06 479918 0 1.4114e+06 474825 0 1.35886e+06 467820 0 1.30863e+06 459297 0 1.26062e+06 449579 0 1.21472e+06 438929 0 1.17085e+06 427563 0 1.12892e+06 415657 0 1.08884e+06 403357 0 1.05055e+06 390781 0 1.01396e+06 378024 0 979022 365167 0 945664 352273 0 913829 339392 0 2.07626e+06 -828169 0 2.18802e+06 -700079 0 2.27535e+06 -548062 0 2.32669e+06 -383097 0 2.33984e+06 -220057 0 2.32027e+06 -70861.3 0 2.27662e+06 58212.5 0 2.21713e+06 165573 0 2.14826e+06 252356 0 2.07463e+06 320922 0 1.99934e+06 373972 0 1.92435e+06 414104 0 1.85089e+06 443625 0 1.77964e+06 464499 0 1.71098e+06 478359 0 1.64508e+06 486549 0 1.58196e+06 490163 0 1.52158e+06 490095 0 1.46389e+06 487068 0 1.40876e+06 481672 0 1.35609e+06 474387 0 1.30578e+06 465604 0 1.2577e+06 455642 0 1.21177e+06 444764 0 1.16788e+06 433182 0 1.12595e+06 421072 0 1.08588e+06 408577 0 1.04761e+06 395813 0 1.01105e+06 382877 0 976149 369846 0 942831 356784 0 911040 343739 0 2.09319e+06 -834924 0 2.20714e+06 -704100 0 2.29531e+06 -548207 0 2.34571e+06 -379136 0 2.35652e+06 -212718 0 2.33399e+06 -61263.2 0 2.28737e+06 69050.7 0 2.22519e+06 176906 0 2.15403e+06 263699 0 2.07852e+06 331992 0 2.0017e+06 384618 0 1.9255e+06 424262 0 1.85107e+06 453278 0 1.77906e+06 473659 0 1.7098e+06 487054 0 1.64342e+06 494811 0 1.57993e+06 498028 0 1.51927e+06 497594 0 1.46135e+06 494232 0 1.40606e+06 488527 0 1.35328e+06 480957 0 1.30287e+06 471910 0 1.25475e+06 461702 0 1.20878e+06 450593 0 1.16488e+06 438794 0 1.12294e+06 426478 0 1.08289e+06 413786 0 1.04464e+06 400835 0 1.00811e+06 387719 0 973243 374513 0 939966 361281 0 908219 348073 0 2.11047e+06 -841817 0 2.2267e+06 -708105 0 2.31573e+06 -548127 0 2.36506e+06 -374786 0 2.37338e+06 -204928 0 2.34776e+06 -51233.1 0 2.29807e+06 80262.9 0 2.23315e+06 188545 0 2.15968e+06 275287 0 2.08227e+06 343253 0 2.00394e+06 395414 0 1.92652e+06 434534 0 1.85114e+06 463019 0 1.77837e+06 482887 0 1.70852e+06 495800 0 1.64167e+06 503112 0 1.57782e+06 505920 0 1.51689e+06 505112 0 1.45876e+06 501408 0 1.40331e+06 495390 0 1.35041e+06 487531 0 1.29992e+06 478216 0 1.25174e+06 467759 0 1.20574e+06 456417 0 1.16183e+06 444399 0 1.1199e+06 431875 0 1.07986e+06 418986 0 1.04163e+06 405846 0 1.00514e+06 392547 0 970303 379167 0 937067 365766 0 905365 352393 0 2.12812e+06 -848856 0 2.24675e+06 -712088 0 2.33662e+06 -547804 0 2.38476e+06 -370025 0 2.39041e+06 -196668 0 2.36156e+06 -40760.4 0 2.30871e+06 91854 0 2.241e+06 200492 0 2.1652e+06 287119 0 2.0859e+06 354705 0 2.00604e+06 406355 0 1.92743e+06 444918 0 1.85109e+06 472845 0 1.77758e+06 492180 0 1.70715e+06 504595 0 1.63985e+06 511449 0 1.57565e+06 513838 0 1.51444e+06 512649 0 1.45611e+06 508596 0 1.4005e+06 502258 0 1.34748e+06 494106 0 1.29692e+06 484520 0 1.24869e+06 473812 0 1.20267e+06 462235 0 1.15874e+06 449995 0 1.11681e+06 437262 0 1.07679e+06 424174 0 1.03859e+06 410844 0 1.00212e+06 397364 0 967329 383808 0 934136 370237 0 902479 356700 0 2.14615e+06 -856047 0 2.26731e+06 -716045 0 2.35801e+06 -547217 0 2.4048e+06 -364826 0 2.4076e+06 -187920 0 2.37538e+06 -29834.2 0 2.31928e+06 103828 0 2.24874e+06 212748 0 2.17058e+06 299193 0 2.08938e+06 366343 0 2.00801e+06 417441 0 1.9282e+06 455412 0 1.85093e+06 482755 0 1.77669e+06 501535 0 1.70568e+06 513437 0 1.63794e+06 519820 0 1.57339e+06 521781 0 1.51192e+06 520202 0 1.45339e+06 515794 0 1.39763e+06 509133 0 1.34451e+06 500683 0 1.29387e+06 490823 0 1.24559e+06 479860 0 1.19954e+06 468045 0 1.15561e+06 455583 0 1.11369e+06 442639 0 1.07368e+06 429351 0 1.03551e+06 415830 0 999077 402167 0 964322 388435 0 931172 374695 0 899561 360992 0 </DataArray> 
</PointData> 
<Points> 
<DataArray type="Float32" NumberOfComponents="3"> 