<?xml version="1.0"?> 
<VTKFile type="StructuredGrid" version="0.1"> 
<StructuredGrid WholeExtent="0 31 0 31 0 0"> 
<Piece Extent="0 31 0 31 0 0"> 
<PointData>
<DataArray type="Float32" Name="|E|" format="ascii" NumberOfComponents="3"> 
9179.14 2.63372e+06 0 7920.46 2.72279e+06 0 6872.7 2.80979e+06 0 5978.15 2.89425e+06 0 5199.17 2.97608e+06 0 4510.08 3.0554e+06 0 3892.66 3.1325e+06 0 3333.51 3.20778e+06 0 2822.45 3.28166e+06 0 2351.53 3.35462e+06 0 1914.38 3.42715e+06 0 1505.79 3.49976e+06 0 1121.38 3.57298e+06 0 757.449 3.64738e+06 0 410.733 3.72358e+06 0 78.3312 3.80227e+06 0 -242.424 3.88424e+06 0 -554.057 3.97041e+06 0 -859.043 4.06186e+06 0 -1159.91 4.15994e+06 0 -1459.38 4.26636e+06 0 -1760.53 4.38342e+06 0 -2067.21 4.51443e+06 0 -2384.65 4.66457e+06 0 -2720.89 4.84263e+06 0 -3089.83 5.06467e+06 0 -3517.58 5.36146e+06 0 -4056.11 5.79365e+06 0 -4811.57 6.48216e+06 0 -6002.82 7.66849e+06 0 -8075.44 9.82684e+06 0 -11941.2 1.38955e+07 0 533787 3.12688e+06 0 501480 3.15774e+06 0 470907 3.19417e+06 0 442717 3.23558e+06 0 417271 3.28132e+06 0 394770 3.33079e+06 0 375287 3.38349e+06 0 358819 3.43905e+06 0 345326 3.4972e+06 0 334760 3.55785e+06 0 327092 3.621e+06 0 322328 3.6868e+06 0 320531 3.75553e+06 0 321836 3.8276e+06 0 326477 3.90353e+06 0 334812 3.98404e+06 0 347369 4.06999e+06 0 364905 4.16248e+06 0 388508 4.2629e+06 0 419730 4.37295e+06 0 460809 4.49479e+06 0 514993 4.63107e+06 0 587027 4.78501e+06 0 683850 4.96017e+06 0 815578 5.15991e+06 0 996717 5.38548e+06 0 1.24751e+06 5.63169e+06 0 1.59448e+06 5.87689e+06 0 2.06949e+06 6.06108e+06 0 2.69991e+06 6.04217e+06 0 3.49571e+06 5.50287e+06 0 4.36806e+06 3.78459e+06 0 688791 3.35739e+06 0 671095 3.38559e+06 0 653867 3.41613e+06 0 637549 3.44923e+06 0 622586 3.48504e+06 0 609417 3.52365e+06 0 598460 3.56512e+06 0 590110 3.60949e+06 0 584748 3.65679e+06 0 582755 3.70708e+06 0 584529 3.76042e+06 0 590515 3.81695e+06 0 601232 3.8768e+06 0 617310 3.94019e+06 0 639529 4.00735e+06 0 668877 4.07853e+06 0 706609 4.15397e+06 0 754323 4.23381e+06 0 814046 4.31805e+06 0 888323 4.40629e+06 0 980288 4.49753e+06 0 1.09367e+06 4.58965e+06 0 1.23265e+06 4.67875e+06 0 1.40141e+06 4.75814e+06 0 1.60317e+06 4.81694e+06 0 1.83826e+06 4.83864e+06 0 2.10093e+06 4.8003e+06 0 2.37481e+06 4.67454e+06 0 2.62677e+06 4.44008e+06 0 2.80543e+06 4.11165e+06 0 2.84236e+06 3.81516e+06 0 2.71275e+06 3.9595e+06 0 804543 3.50163e+06 0 794028 3.5225e+06 0 784679 3.54572e+06 0 776868 3.57132e+06 0 770962 3.5993e+06 0 767348 3.62966e+06 0 766432 3.6624e+06 0 768642 3.69748e+06 0 774437 3.73488e+06 0 784313 3.77452e+06 0 798818 3.81633e+06 0 818562 3.86019e+06 0 844235 3.90592e+06 0 876626 3.95326e+06 0 916628 4.00183e+06 0 965255 4.05106e+06 0 1.02363e+06 4.1001e+06 0 1.09295e+06 4.14774e+06 0 1.17441e+06 4.19227e+06 0 1.2691e+06 4.2313e+06 0 1.3777e+06 4.26159e+06 0 1.50018e+06 4.27899e+06 0 1.63529e+06 4.2784e+06 0 1.77992e+06 4.25416e+06 0 1.92853e+06 4.201e+06 0 2.07286e+06 4.11593e+06 0 2.20273e+06 4.00126e+06 0 2.30849e+06 3.86835e+06 0 2.38688e+06 3.73925e+06 0 2.44743e+06 3.63803e+06 0 2.52171e+06 3.55171e+06 0 2.63296e+06 3.30233e+06 0 886004 3.57305e+06 0 882620 3.58945e+06 0 880823 3.60731e+06 0 880950 3.62668e+06 0 883348 3.64756e+06 0 888389 3.66992e+06 0 896466 3.6937e+06 0 907998 3.71878e+06 0 923426 3.74501e+06 0 943220 3.77214e+06 0 967872 3.79989e+06 0 997898 3.82787e+06 0 1.03383e+06 3.85556e+06 0 1.07619e+06 3.88232e+06 0 1.12549e+06 3.90731e+06 0 1.18217e+06 3.92951e+06 0 1.24652e+06 3.94762e+06 0 1.31862e+06 3.96012e+06 0 1.39823e+06 3.96521e+06 0 1.48464e+06 3.96091e+06 0 1.57652e+06 3.9452e+06 0 1.67186e+06 3.91628e+06 0 1.76794e+06 3.87295e+06 0 1.86156e+06 3.8151e+06 0 1.94951e+06 3.74417e+06 0 2.02932e+06 3.66322e+06 0 2.10007e+06 3.57614e+06 0 2.16275e+06 3.48533e+06 0 2.21836e+06 3.3882e+06 0 2.26477e+06 3.27577e+06 0 2.28782e+06 3.14563e+06 0 2.27812e+06 3.07419e+06 0 944074 3.60114e+06 0 946246 3.61179e+06 0 950291 3.62337e+06 0 956505 3.6358e+06 0 965180 3.64901e+06 0 976623 3.66285e+06 0 991154 3.67717e+06 0 1.0091e+06 3.69172e+06 0 1.03078e+06 3.70624e+06 0 1.05651e+06 3.72036e+06 0 1.0866e+06 3.73365e+06 0 1.12131e+06 3.7456e+06 0 1.16085e+06 3.75556e+06 0 1.20537e+06 3.76284e+06 0 1.25486e+06 3.76658e+06 0 1.30919e+06 3.76589e+06 0 1.36801e+06 3.75977e+06 0 1.43076e+06 3.74723e+06 0 1.49657e+06 3.72735e+06 0 1.56432e+06 3.69935e+06 0 1.63265e+06 3.66277e+06 0 1.70006e+06 3.61751e+06 0 1.76508e+06 3.56393e+06 0 1.82637e+06 3.50278e+06 0 1.88288e+06 3.43497e+06 0 1.93379e+06 3.36124e+06 0 1.97819e+06 3.28194e+06 0 2.01469e+06 3.19744e+06 0 2.04198e+06 3.10974e+06 0 2.0599e+06 3.02482e+06 0 2.07573e+06 2.94999e+06 0 2.09376e+06 2.85908e+06 0 980632 3.59796e+06 0 986979 3.60301e+06 0 995270 3.60838e+06 0 1.00574e+06 3.61397e+06 0 1.0186e+06 3.61962e+06 0 1.03408e+06 3.62515e+06 0 1.05238e+06 3.63034e+06 0 1.07372e+06 3.63492e+06 0 1.09826e+06 3.63855e+06 0 1.12615e+06 3.64085e+06 0 1.15748e+06 3.64139e+06 0 1.19229e+06 3.63968e+06 0 1.23051e+06 3.63517e+06 0 1.27201e+06 3.6273e+06 0 1.31652e+06 3.61548e+06 0 1.36363e+06 3.59914e+06 0 1.41282e+06 3.57774e+06 0 1.46341e+06 3.55086e+06 0 1.51462e+06 3.51818e+06 0 1.56559e+06 3.47956e+06 0 1.61542e+06 3.43506e+06 0 1.66324e+06 3.3849e+06 0 1.7082e+06 3.32947e+06 0 1.74956e+06 3.26925e+06 0 1.7866e+06 3.20486e+06 0 1.81874e+06 3.1371e+06 0 1.84565e+06 3.06711e+06 0 1.86758e+06 2.99635e+06 0 1.8852e+06 2.92604e+06 0 1.89955e+06 2.85547e+06 0 1.90762e+06 2.78161e+06 0 1.90902e+06 2.71316e+06 0 998519 3.57524e+06 0 1.00769e+06 3.57477e+06 0 1.01872e+06 3.57417e+06 0 1.03177e+06 3.57327e+06 0 1.04697e+06 3.57192e+06 0 1.06446e+06 3.5699e+06 0 1.08435e+06 3.56698e+06 0 1.10672e+06 3.56288e+06 0 1.13163e+06 3.5573e+06 0 1.15906e+06 3.54988e+06 0 1.18898e+06 3.54029e+06 0 1.22126e+06 3.52812e+06 0 1.25572e+06 3.51301e+06 0 1.29209e+06 3.49458e+06 0 1.33002e+06 3.47248e+06 0 1.36908e+06 3.44642e+06 0 1.40877e+06 3.41618e+06 0 1.44854e+06 3.38162e+06 0 1.48781e+06 3.34272e+06 0 1.52596e+06 3.29956e+06 0 1.56242e+06 3.25231e+06 0 1.59662e+06 3.2013e+06 0 1.62808e+06 3.14692e+06 0 1.65638e+06 3.08968e+06 0 1.68128e+06 3.03018e+06 0 1.70265e+06 2.96905e+06 0 1.72052e+06 2.90683e+06 0 1.73484e+06 2.84383e+06 0 1.74547e+06 2.78016e+06 0 1.75191e+06 2.71648e+06 0 1.756e+06 2.65466e+06 0 1.75782e+06 2.59316e+06 0 1.00059e+06 3.54044e+06 0 1.01149e+06 3.53492e+06 0 1.02406e+06 3.52891e+06 0 1.03839e+06 3.52225e+06 0 1.05455e+06 3.51478e+06 0 1.07261e+06 3.50628e+06 0 1.09258e+06 3.49655e+06 0 1.11447e+06 3.48534e+06 0 1.13824e+06 3.47239e+06 0 1.1638e+06 3.45745e+06 0 1.19102e+06 3.44024e+06 0 1.21973e+06 3.42051e+06 0 1.24968e+06 3.39802e+06 0 1.2806e+06 3.37254e+06 0 1.31214e+06 3.34391e+06 0 1.34394e+06 3.31201e+06 0 1.37558e+06 3.27678e+06 0 1.40665e+06 3.23825e+06 0 1.43672e+06 3.1965e+06 0 1.46539e+06 3.15169e+06 0 1.49228e+06 3.10407e+06 0 1.51707e+06 3.05395e+06 0 1.53949e+06 3.00166e+06 0 1.55936e+06 2.94761e+06 0 1.57653e+06 2.89216e+06 0 1.59092e+06 2.83569e+06 0 1.60246e+06 2.77855e+06 0 1.6112e+06 2.72115e+06 0 1.61728e+06 2.66401e+06 0 1.62129e+06 2.60748e+06 0 1.62254e+06 2.55141e+06 0 1.62154e+06 2.49612e+06 0 989801 3.49898e+06 0 1.00161e+06 3.48898e+06 0 1.01484e+06 3.47824e+06 0 1.02954e+06 3.46662e+06 0 1.04574e+06 3.45397e+06 0 1.06343e+06 3.4401e+06 0 1.08259e+06 3.42484e+06 0 1.10316e+06 3.40799e+06 0 1.12505e+06 3.38935e+06 0 1.14814e+06 3.36874e+06 0 1.17226e+06 3.34597e+06 0 1.19721e+06 3.32088e+06 0 1.22278e+06 3.29334e+06 0 1.24868e+06 3.26323e+06 0 1.27464e+06 3.2305e+06 0 1.30036e+06 3.19513e+06 0 1.32552e+06 3.15716e+06 0 1.34981e+06 3.11666e+06 0 1.37293e+06 3.07378e+06 0 1.39463e+06 3.02871e+06 0 1.41467e+06 2.98166e+06 0 1.43283e+06 2.9329e+06 0 1.44898e+06 2.88271e+06 0 1.46299e+06 2.83138e+06 0 1.47481e+06 2.77921e+06 0 1.4844e+06 2.7265e+06 0 1.49183e+06 2.67358e+06 0 1.49716e+06 2.6207e+06 0 1.50051e+06 2.56805e+06 0 1.5017e+06 2.51582e+06 0 1.50128e+06 2.4642e+06 0 1.4992e+06 2.41357e+06 0 968882 3.4544e+06 0 981004 3.4405e+06 0 994308 3.42571e+06 0 1.0088e+06 3.40992e+06 0 1.02447e+06 3.39298e+06 0 1.04127e+06 3.37475e+06 0 1.05914e+06 3.35508e+06 0 1.078e+06 3.33382e+06 0 1.09774e+06 3.31084e+06 0 1.11822e+06 3.286e+06 0 1.13928e+06 3.25919e+06 0 1.16071e+06 3.23033e+06 0 1.18233e+06 3.19934e+06 0 1.2039e+06 3.1662e+06 0 1.22519e+06 3.13089e+06 0 1.24596e+06 3.09348e+06 0 1.26598e+06 3.05402e+06 0 1.28503e+06 3.01264e+06 0 1.30289e+06 2.96948e+06 0 1.3194e+06 2.92472e+06 0 1.3344e+06 2.87856e+06 0 1.34776e+06 2.83122e+06 0 1.3594e+06 2.78293e+06 0 1.36926e+06 2.73394e+06 0 1.37733e+06 2.68447e+06 0 1.38363e+06 2.63476e+06 0 1.38817e+06 2.58501e+06 0 1.39102e+06 2.5354e+06 0 1.39221e+06 2.48616e+06 0 1.392e+06 2.43742e+06 0 1.39028e+06 2.38941e+06 0 1.38729e+06 2.34208e+06 0 940179 3.40897e+06 0 952226 3.39173e+06 0 965221 3.37353e+06 0 979144 3.35426e+06 0 993954 3.33381e+06 0 1.00959e+06 3.31205e+06 0 1.02598e+06 3.28888e+06 0 1.04303e+06 3.26419e+06 0 1.06061e+06 3.23789e+06 0 1.07859e+06 3.2099e+06 0 1.09681e+06 3.18015e+06 0 1.11511e+06 3.1486e+06 0 1.13331e+06 3.11524e+06 0 1.15122e+06 3.08008e+06 0 1.16865e+06 3.04315e+06 0 1.18544e+06 3.00453e+06 0 1.20139e+06 2.96431e+06 0 1.21635e+06 2.9226e+06 0 1.23018e+06 2.87956e+06 0 1.24275e+06 2.83535e+06 0 1.25398e+06 2.79014e+06 0 1.26378e+06 2.74412e+06 0 1.27211e+06 2.69748e+06 0 1.27895e+06 2.65042e+06 0 1.2843e+06 2.60311e+06 0 1.28818e+06 2.55574e+06 0 1.29063e+06 2.50847e+06 0 1.29172e+06 2.46148e+06 0 1.29154e+06 2.41488e+06 0 1.29009e+06 2.36884e+06 0 1.28755e+06 2.32338e+06 0 1.28397e+06 2.2787e+06 0 905615 3.36411e+06 0 917332 3.34403e+06 0 929787 3.32296e+06 0 942939 3.3008e+06 0 956737 3.27746e+06 0 971110 3.25285e+06 0 985975 3.2269e+06 0 1.00123e+06 3.19952e+06 0 1.01676e+06 3.17067e+06 0 1.03245e+06 3.1403e+06 0 1.04814e+06 3.10838e+06 0 1.0637e+06 3.0749e+06 0 1.07898e+06 3.03988e+06 0 1.09383e+06 3.00336e+06 0 1.10811e+06 2.96539e+06 0 1.12166e+06 2.92605e+06 0 1.13437e+06 2.88546e+06 0 1.14612e+06 2.84372e+06 0 1.15681e+06 2.80097e+06 0 1.16635e+06 2.75736e+06 0 1.1747e+06 2.71305e+06 0 1.18181e+06 2.66818e+06 0 1.18765e+06 2.62292e+06 0 1.19223e+06 2.57743e+06 0 1.19555e+06 2.53187e+06 0 1.19766e+06 2.48637e+06 0 1.19859e+06 2.44107e+06 0 1.1984e+06 2.39609e+06 0 1.19713e+06 2.35156e+06 0 1.1949e+06 2.30756e+06 0 1.19174e+06 2.2642e+06 0 1.18775e+06 2.22153e+06 0 866712 3.32066e+06 0 877942 3.29816e+06 0 889723 3.27467e+06 0 902006 3.25009e+06 0 914731 3.22438e+06 0 927825 3.19746e+06 0 941204 3.16927e+06 0 954772 3.13977e+06 0 968424 3.10893e+06 0 982045 3.07674e+06 0 995517 3.04318e+06 0 1.00872e+06 3.00828e+06 0 1.02152e+06 2.97207e+06 0 1.03382e+06 2.9346e+06 0 1.04548e+06 2.89594e+06 0 1.05641e+06 2.85618e+06 0 1.06651e+06 2.81542e+06 0 1.0757e+06 2.77378e+06 0 1.08391e+06 2.73138e+06 0 1.09109e+06 2.68834e+06 0 1.0972e+06 2.64481e+06 0 1.10223e+06 2.60092e+06 0 1.10617e+06 2.5568e+06 0 1.10902e+06 2.51259e+06 0 1.11081e+06 2.46842e+06 0 1.11158e+06 2.42441e+06 0 1.11137e+06 2.38066e+06 0 1.11022e+06 2.33728e+06 0 1.1082e+06 2.29436e+06 0 1.10536e+06 2.25199e+06 0 1.10178e+06 2.21023e+06 0 1.09752e+06 2.16915e+06 0 824648 3.27909e+06 0 835297 3.25453e+06 0 846335 3.22898e+06 0 857710 3.20238e+06 0 869360 3.17469e+06 0 881213 3.14586e+06 0 893189 3.11586e+06 0 905199 3.08465e+06 0 917149 3.05223e+06 0 928939 3.01861e+06 0 940468 2.98378e+06 0 951635 2.9478e+06 0 962339 2.9107e+06 0 972486 2.87255e+06 0 981987 2.83342e+06 0 990763 2.79339e+06 0 998744 2.75258e+06 0 1.00587e+06 2.71107e+06 0 1.01211e+06 2.66899e+06 0 1.01741e+06 2.62646e+06 0 1.02177e+06 2.58359e+06 0 1.02517e+06 2.5405e+06 0 1.02762e+06 2.49731e+06 0 1.02914e+06 2.45413e+06 0 1.02976e+06 2.41108e+06 0 1.02951e+06 2.36824e+06 0 1.02843e+06 2.32571e+06 0 1.02657e+06 2.28359e+06 0 1.02398e+06 2.24195e+06 0 1.02072e+06 2.20084e+06 0 1.01684e+06 2.16035e+06 0 1.01241e+06 2.12051e+06 0 780320 3.23964e+06 0 790334 3.2133e+06 0 800600 3.186e+06 0 811065 3.15768e+06 0 821668 3.12833e+06 0 832342 3.09791e+06 0 843013 3.06639e+06 0 853600 3.03378e+06 0 864022 3.00008e+06 0 874193 2.96529e+06 0 884027 2.92946e+06 0 893440 2.89263e+06 0 902354 2.85484e+06 0 910693 2.81616e+06 0 918389 2.77668e+06 0 925384 2.73647e+06 0 931628 2.69562e+06 0 937082 2.65425e+06 0 941717 2.61246e+06 0 945516 2.57034e+06 0 948472 2.528e+06 0 950589 2.48556e+06 0 951878 2.4431e+06 0 952362 2.40074e+06 0 952069 2.35856e+06 0 951034 2.31665e+06 0 949299 2.27508e+06 0 946905 2.23395e+06 0 943904 2.19329e+06 0 940342 2.15319e+06 0 936270 2.11368e+06 0 931741 2.07482e+06 0 734400 3.20242e+06 0 743752 3.17453e+06 0 753240 3.1457e+06 0 762813 3.11591e+06 0 772414 3.08512e+06 0 781981 3.05334e+06 0 791447 3.02055e+06 0 800742 2.98676e+06 0 809794 2.95197e+06 0 818532 2.91623e+06 0 826885 2.87956e+06 0 834784 2.84202e+06 0 842166 2.80366e+06 0 848972 2.76455e+06 0 855153 2.72477e+06 0 860665 2.68441e+06 0 865473 2.64354e+06 0 869553 2.60227e+06 0 872887 2.56068e+06 0 875470 2.51888e+06 0 877302 2.47696e+06 0 878394 2.43502e+06 0 878763 2.39313e+06 0 878433 2.3514e+06 0 877433 2.3099e+06 0 875799 2.26871e+06 0 873569 2.22789e+06 0 870785 2.18751e+06 0 867488 2.14763e+06 0 863725 2.1083e+06 0 859539 2.06956e+06 0 854978 2.03145e+06 0 687385 3.16742e+06 0 696063 3.13816e+06 0 704780 3.10799e+06 0 713490 3.0769e+06 0 722139 3.04487e+06 0 730672 3.0119e+06 0 739031 2.978e+06 0 747154 2.94318e+06 0 754980 2.90747e+06 0 762449 2.87089e+06 0 769504 2.8335e+06 0 776089 2.79534e+06 0 782154 2.75648e+06 0 787656 2.71699e+06 0 792557 2.67694e+06 0 796826 2.63641e+06 0 800441 2.59549e+06 0 803387 2.55427e+06 0 805657 2.51282e+06 0 807251 2.47125e+06 0 808178 2.42963e+06 0 808451 2.38805e+06 0 808091 2.3466e+06 0 807124 2.30534e+06 0 805579 2.26435e+06 0 803491 2.2237e+06 0 800895 2.18344e+06 0 797830 2.14365e+06 0 794335 2.10435e+06 0 790451 2.06561e+06 0 786217 2.02745e+06 0 781676 1.98992e+06 0 639637 3.13461e+06 0 647638 3.10411e+06 0 655599 3.07274e+06 0 663478 3.04049e+06 0 671228 3.00734e+06 0 678798 2.97332e+06 0 686139 2.93842e+06 0 693199 2.90269e+06 0 699925 2.86613e+06 0 706269 2.82881e+06 0 712183 2.79076e+06 0 717625 2.75204e+06 0 722555 2.71272e+06 0 726942 2.67286e+06 0 730757 2.63254e+06 0 733982 2.59183e+06 0 736601 2.55081e+06 0 738609 2.50957e+06 0 740005 2.46819e+06 0 740796 2.42675e+06 0 740993 2.38533e+06 0 740614 2.344e+06 0 739681 2.30284e+06 0 738221 2.26192e+06 0 736262 2.2213e+06 0 733838 2.18104e+06 0 730981 2.1412e+06 0 727728 2.10183e+06 0 724116 2.06296e+06 0 720179 2.02466e+06 0 715955 1.98693e+06 0 711479 1.94983e+06 0 591413 3.1039e+06 0 598739 3.07228e+06 0 605964 3.0398e+06 0 613046 3.00648e+06 0 619946 2.97232e+06 0 626621 2.93732e+06 0 633027 2.90152e+06 0 639120 2.86493e+06 0 644858 2.82761e+06 0 650201 2.78958e+06 0 655112 2.75092e+06 0 659556 2.71166e+06 0 663506 2.67188e+06 0 666937 2.63164e+06 0 669831 2.59103e+06 0 672175 2.5501e+06 0 673964 2.50894e+06 0 675197 2.46762e+06 0 675878 2.42623e+06 0 676018 2.38483e+06 0 675632 2.34351e+06 0 674740 2.30232e+06 0 673363 2.26135e+06 0 671529 2.22064e+06 0 669266 2.18026e+06 0 666605 2.14027e+06 0 663578 2.10072e+06 0 660217 2.06164e+06 0 656556 2.02308e+06 0 652627 1.98508e+06 0 648463 1.94766e+06 0 644096 1.91086e+06 0 542891 3.0752e+06 0 549549 3.04252e+06 0 556055 3.00902e+06 0 562375 2.9747e+06 0 568474 2.93958e+06 0 574314 2.90367e+06 0 579860 2.867e+06 0 585075 2.82962e+06 0 589925 2.79155e+06 0 594377 2.75285e+06 0 598403 2.71358e+06 0 601977 2.67379e+06 0 605078 2.63354e+06 0 607690 2.59291e+06 0 609803 2.55196e+06 0 611409 2.51077e+06 0 612507 2.46941e+06 0 613103 2.42796e+06 0 613204 2.38648e+06 0 612824 2.34504e+06 0 611979 2.30372e+06 0 610691 2.26258e+06 0 608981 2.22169e+06 0 606877 2.18109e+06 0 604405 2.14085e+06 0 601594 2.10102e+06 0 598474 2.06163e+06 0 595075 2.02274e+06 0 591428 1.98437e+06 0 587561 1.94657e+06 0 583504 1.90935e+06 0 579285 1.87275e+06 0 494187 3.04841e+06 0 500184 3.01473e+06 0 505992 2.98024e+06 0 511583 2.94496e+06 0 516925 2.90892e+06 0 521988 2.87213e+06 0 526743 2.83463e+06 0 531159 2.79646e+06 0 535210 2.75767e+06 0 538869 2.7183e+06 0 542116 2.67841e+06 0 544931 2.63807e+06 0 547300 2.59734e+06 0 549214 2.55628e+06 0 550667 2.51496e+06 0 551657 2.47346e+06 0 552187 2.43184e+06 0 552266 2.39018e+06 0 551904 2.34854e+06 0 551117 2.30699e+06 0 549922 2.26559e+06 0 548341 2.22442e+06 0 546396 2.18351e+06 0 544112 2.14293e+06 0 541515 2.10273e+06 0 538633 2.06296e+06 0 535491 2.02365e+06 0 532119 1.98484e+06 0 528543 1.94657e+06 0 524789 1.90887e+06 0 520884 1.87176e+06 0 516853 1.83527e+06 0 445371 3.02342e+06 0 450716 2.98876e+06 0 455846 2.95331e+06 0 460738 2.9171e+06 0 465367 2.88015e+06 0 469707 2.8425e+06 0 473733 2.80417e+06 0 477423 2.76522e+06 0 480756 2.72569e+06 0 483711 2.68564e+06 0 486273 2.64513e+06 0 488430 2.60421e+06 0 490172 2.56295e+06 0 491494 2.52143e+06 0 492396 2.47969e+06 0 492879 2.43783e+06 0 492950 2.39589e+06 0 492619 2.35396e+06 0 491899 2.31209e+06 0 490806 2.27035e+06 0 489359 2.22881e+06 0 487578 2.18751e+06 0 485486 2.14651e+06 0 483105 2.10587e+06 0 480461 2.06563e+06 0 477578 2.02583e+06 0 474481 1.98651e+06 0 471195 1.94771e+06 0 467744 1.90946e+06 0 464153 1.87179e+06 0 460443 1.83471e+06 0 456638 1.79826e+06 0 396479 3.00013e+06 0 401180 2.9645e+06 0 405652 2.9281e+06 0 409876 2.89096e+06 0 413832 2.85311e+06 0 417498 2.81458e+06 0 420856 2.77542e+06 0 423887 2.73567e+06 0 426576 2.69539e+06 0 428909 2.65463e+06 0 430874 2.61346e+06 0 432463 2.57193e+06 0 433673 2.53011e+06 0 434502 2.48807e+06 0 434951 2.44588e+06 0 435027 2.40359e+06 0 434738 2.36128e+06 0 434095 2.31901e+06 0 433112 2.27685e+06 0 431807 2.23486e+06 0 430197 2.19309e+06 0 428302 2.1516e+06 0 426144 2.11044e+06 0 423743 2.06966e+06 0 421124 2.0293e+06 0 418308 1.98941e+06 0 415318 1.95001e+06 0 412176 1.91115e+06 0 408904 1.87284e+06 0 405523 1.83513e+06 0 402052 1.79802e+06 0 398512 1.76154e+06 0 347516 2.97844e+06 0 351583 2.94183e+06 0 355418 2.90447e+06 0 359004 2.86639e+06 0 362325 2.82761e+06 0 365366 2.78819e+06 0 368111 2.74817e+06 0 370548 2.70761e+06 0 372664 2.66655e+06 0 374450 2.62505e+06 0 375899 2.58318e+06 0 377007 2.541e+06 0 377773 2.49858e+06 0 378199 2.45597e+06 0 378289 2.41326e+06 0 378050 2.3705e+06 0 377493 2.32775e+06 0 376629 2.28509e+06 0 375474 2.24258e+06 0 374043 2.20026e+06 0 372355 2.1582e+06 0 370427 2.11646e+06 0 368280 2.07507e+06 0 365933 2.03409e+06 0 363408 1.99355e+06 0 360724 1.9535e+06 0 357902 1.91396e+06 0 354960 1.87498e+06 0 351918 1.83656e+06 0 348795 1.79875e+06 0 345606 1.76156e+06 0 342369 1.725e+06 0 298470 2.95825e+06 0 301913 2.92064e+06 0 305130 2.8823e+06 0 308107 2.84324e+06 0 310833 2.80352e+06 0 313295 2.76318e+06 0 315482 2.72227e+06 0 317385 2.68084e+06 0 318996 2.63896e+06 0 320308 2.59668e+06 0 321320 2.55407e+06 0 322028 2.5112e+06 0 322435 2.46812e+06 0 322544 2.4249e+06 0 322362 2.38161e+06 0 321897 2.33832e+06 0 321160 2.29509e+06 0 320163 2.25198e+06 0 318921 2.20905e+06 0 317448 2.16635e+06 0 315762 2.12395e+06 0 313880 2.08189e+06 0 311819 2.04022e+06 0 309598 1.99898e+06 0 307234 1.95821e+06 0 304746 1.91794e+06 0 302150 1.87821e+06 0 299464 1.83905e+06 0 296704 1.80048e+06 0 293885 1.76253e+06 0 291022 1.7252e+06 0 288129 1.68852e+06 0 249309 2.93946e+06 0 252141 2.90083e+06 0 254761 2.86145e+06 0 257159 2.82139e+06 0 259328 2.78068e+06 0 261257 2.73938e+06 0 262939 2.69753e+06 0 264369 2.65521e+06 0 265541 2.61246e+06 0 266451 2.56936e+06 0 267100 2.52596e+06 0 267488 2.48233e+06 0 267617 2.43854e+06 0 267495 2.39466e+06 0 267126 2.35074e+06 0 266521 2.30687e+06 0 265690 2.26309e+06 0 264645 2.21948e+06 0 263399 2.17608e+06 0 261966 2.13295e+06 0 260362 2.09015e+06 0 258602 2.04772e+06 0 256701 2.00572e+06 0 254675 1.96417e+06 0 252539 1.92312e+06 0 250309 1.88259e+06 0 247999 1.84263e+06 0 245624 1.80326e+06 0 243197 1.76449e+06 0 240730 1.72635e+06 0 238236 1.68886e+06 0 235726 1.65203e+06 0 199992 2.922e+06 0 202225 2.88228e+06 0 204270 2.84183e+06 0 206120 2.80071e+06 0 207770 2.75897e+06 0 209213 2.71665e+06 0 210445 2.67382e+06 0 211461 2.63054e+06 0 212259 2.58688e+06 0 212839 2.54289e+06 0 213200 2.49865e+06 0 213346 2.45422e+06 0 213280 2.40966e+06 0 213009 2.36506e+06 0 212538 2.32047e+06 0 211878 2.27596e+06 0 211038 2.23158e+06 0 210029 2.18741e+06 0 208862 2.14349e+06 0 207551 2.09989e+06 0 206108 2.05664e+06 0 204545 2.01381e+06 0 202877 1.97142e+06 0 201115 1.92952e+06 0 199274 1.88815e+06 0 197365 1.84733e+06 0 195400 1.8071e+06 0 193391 1.76748e+06 0 191348 1.72848e+06 0 189281 1.69014e+06 0 187200 1.65245e+06 0 185113 1.61544e+06 0 150466 2.90576e+06 0 152114 2.8649e+06 0 153608 2.82333e+06 0 154942 2.78109e+06 0 156114 2.73825e+06 0 157118 2.69486e+06 0 157954 2.65099e+06 0 158618 2.6067e+06 0 159110 2.56206e+06 0 159430 2.51713e+06 0 159580 2.47198e+06 0 159563 2.42669e+06 0 159384 2.38132e+06 0 159048 2.33595e+06 0 158561 2.29062e+06 0 157932 2.24542e+06 0 157168 2.2004e+06 0 156280 2.15562e+06 0 155276 2.11114e+06 0 154167 2.06702e+06 0 152963 2.02329e+06 0 151675 1.98e+06 0 150312 1.9372e+06 0 148886 1.89492e+06 0 147405 1.8532e+06 0 145880 1.81206e+06 0 144318 1.77153e+06 0 142730 1.73163e+06 0 141122 1.69239e+06 0 139502 1.65381e+06 0 137878 1.61591e+06 0 136254 1.5787e+06 0 100671 2.89067e+06 0 101750 2.84861e+06 0 102718 2.80584e+06 0 103570 2.76242e+06 0 104305 2.71841e+06 0 104922 2.67389e+06 0 105418 2.62891e+06 0 105793 2.58354e+06 0 106047 2.53786e+06 0 106182 2.49192e+06 0 106199 2.44582e+06 0 106101 2.39961e+06 0 105893 2.35336e+06 0 105578 2.30716e+06 0 105162 2.26105e+06 0 104651 2.21511e+06 0 104051 2.1694e+06 0 103369 2.12398e+06 0 102613 2.07889e+06 0 101789 2.0342e+06 0 100904 1.98995e+06 0 99967.3 1.94619e+06 0 98984.4 1.90294e+06 0 97962.8 1.86026e+06 0 96909.1 1.81816e+06 0 95829.7 1.77668e+06 0 94730.7 1.73584e+06 0 93617.8 1.69565e+06 0 92496.1 1.65614e+06 0 91370.6 1.61732e+06 0 90245.7 1.5792e+06 0 89125.2 1.54178e+06 0 50539.5 2.87665e+06 0 51069 2.8333e+06 0 51537.6 2.78926e+06 0 51944.3 2.74458e+06 0 52288 2.69934e+06 0 52568.1 2.6536e+06 0 52784.3 2.60744e+06 0 52936.5 2.56093e+06 0 53025.4 2.51413e+06 0 53051.9 2.46713e+06 0 53017.4 2.42e+06 0 52923.8 2.37281e+06 0 52773.6 2.32564e+06 0 52569.4 2.27855e+06 0 52314.4 2.23161e+06 0 52011.9 2.18489e+06 0 51665.5 2.13844e+06 0 51279.1 2.09233e+06 0 50856.4 2.04661e+06 0 50401.4 2.00133e+06 0 49917.9 1.95654e+06 0 49409.9 1.91227e+06 0 48880.9 1.86856e+06 0 48334.7 1.82545e+06 0 47774.6 1.78296e+06 0 47203.9 1.74112e+06 0 46625.6 1.69995e+06 0 46042.4 1.65947e+06 0 45457.1 1.61969e+06 0 44871.9 1.58062e+06 0 44289 1.54227e+06 0 43710.4 1.50464e+06 0 0 2.86363e+06 0 0 2.8189e+06 0 0 2.7735e+06 0 0 2.72748e+06 0 0 2.68092e+06 0 0 2.63389e+06 0 0 2.58646e+06 0 0 2.53872e+06 0 0 2.49075e+06 0 0 2.44261e+06 0 0 2.39439e+06 0 0 2.34617e+06 0 0 2.29801e+06 0 0 2.24998e+06 0 0 2.20216e+06 0 0 2.15462e+06 0 0 2.1074e+06 0 0 2.06058e+06 0 0 2.01419e+06 0 0 1.9683e+06 0 0 1.92293e+06 0 0 1.87814e+06 0 0 1.83396e+06 0 0 1.79041e+06 0 0 1.74753e+06 0 0 1.70533e+06 0 0 1.66383e+06 0 0 1.62305e+06 0 0 1.583e+06 0 0 1.54369e+06 0 0 1.50511e+06 0 0 1.46728e+06 0 </DataArray> 
</PointData> 
<Points> 
<DataArray type="Float32" NumberOfComponents="3"> 