<?xml version="1.0"?> 
<VTKFile type="StructuredGrid" version="0.1"> 
<StructuredGrid WholeExtent="0 31 0 31 0 0"> 
<Piece Extent="0 31 0 31 0 0"> 
<PointData>
<DataArray type="Float32" Name="|E|" format="ascii" NumberOfComponents="3"> 
-2.10392e+06 0 0 -2.10541e+06 12327.9 0 -2.10982e+06 24671.6 0 -2.11714e+06 37077.3 0 -2.12741e+06 49592.5 0 -2.14067e+06 62266.3 0 -2.15695e+06 75149.3 0 -2.17633e+06 88294.4 0 -2.19886e+06 101758 0 -2.22463e+06 115600 0 -2.25374e+06 129883 0 -2.28631e+06 144674 0 -2.32247e+06 160046 0 -2.36237e+06 176070 0 -2.40619e+06 192821 0 -2.45414e+06 210367 0 -2.50645e+06 228767 0 -2.5634e+06 248057 0 -2.62531e+06 268235 0 -2.69254e+06 289225 0 -2.76554e+06 310841 0 -2.8448e+06 332712 0 -2.93089e+06 354171 0 -3.02444e+06 374096 0 -3.12603e+06 390658 0 -3.23604e+06 400951 0 -3.35419e+06 400432 0 -3.47855e+06 382226 0 -3.60321e+06 337141 0 -3.71558e+06 256483 0 -3.79724e+06 142393 0 -3.83569e+06 -6433.42 0 -2.10294e+06 0 0 -2.10435e+06 12185 0 -2.10849e+06 24384.5 0 -2.11538e+06 36641.4 0 -2.12503e+06 48999.9 0 -2.13749e+06 61505.6 0 -2.15278e+06 74205.5 0 -2.17097e+06 87148.5 0 -2.19212e+06 100387 0 -2.21629e+06 113975 0 -2.24357e+06 127971 0 -2.27407e+06 142438 0 -2.3079e+06 157441 0 -2.3452e+06 173048 0 -2.38611e+06 189329 0 -2.43082e+06 206352 0 -2.47953e+06 224179 0 -2.53248e+06 242857 0 -2.58993e+06 262408 0 -2.65222e+06 282808 0 -2.7197e+06 303956 0 -2.79282e+06 325628 0 -2.87208e+06 347405 0 -2.95806e+06 368567 0 -3.05137e+06 387922 0 -3.15259e+06 403567 0 -3.26207e+06 412553 0 -3.37949e+06 410326 0 -3.50271e+06 389899 0 -3.62549e+06 340523 0 -3.73469e+06 253483 0 -3.81316e+06 128556 0 -2.10195e+06 0 0 -2.10327e+06 12028.2 0 -2.10715e+06 24069.6 0 -2.11362e+06 36164.1 0 -2.12267e+06 48352.4 0 -2.13436e+06 60677 0 -2.1487e+06 73181.4 0 -2.16575e+06 85910.7 0 -2.18556e+06 98912.7 0 -2.20818e+06 112238 0 -2.23371e+06 125940 0 -2.26222e+06 140076 0 -2.29382e+06 154706 0 -2.32862e+06 169894 0 -2.36676e+06 185704 0 -2.40838e+06 202202 0 -2.45367e+06 219451 0 -2.50282e+06 237505 0 -2.55607e+06 256401 0 -2.61369e+06 276147 0 -2.67599e+06 296700 0 -2.74335e+06 317936 0 -2.81619e+06 339600 0 -2.89503e+06 361234 0 -2.98043e+06 382066 0 -3.07302e+06 400833 0 -3.17337e+06 415523 0 -3.28181e+06 423003 0 -3.39802e+06 418684 0 -3.51987e+06 395470 0 -3.64104e+06 341952 0 -3.74804e+06 259028 0 -2.10093e+06 0 0 -2.10217e+06 11857.6 0 -2.10581e+06 23727 0 -2.11186e+06 35645.3 0 -2.12034e+06 47650 0 -2.13128e+06 59780.5 0 -2.1447e+06 72076.9 0 -2.16065e+06 84580.5 0 -2.17917e+06 97335.3 0 -2.20031e+06 110388 0 -2.22415e+06 123786 0 -2.25076e+06 137584 0 -2.28022e+06 151835 0 -2.31263e+06 166599 0 -2.34812e+06 181934 0 -2.3868e+06 197905 0 -2.42884e+06 214570 0 -2.47439e+06 231988 0 -2.52367e+06 250204 0 -2.57689e+06 269246 0 -2.63432e+06 289111 0 -2.69628e+06 309742 0 -2.76313e+06 330999 0 -2.8353e+06 352609 0 -2.91328e+06 374100 0 -2.99765e+06 394688 0 -3.08903e+06 413116 0 -3.18799e+06 427366 0 -3.29489e+06 434225 0 -3.40941e+06 429390 0 -3.52978e+06 402649 0 -3.64877e+06 355429 0 -2.0999e+06 0 0 -2.10106e+06 11673 0 -2.10446e+06 23356.7 0 -2.11011e+06 35085.3 0 -2.11804e+06 46893.1 0 -2.12825e+06 58816.4 0 -2.14079e+06 70892.2 0 -2.15567e+06 83158.5 0 -2.17295e+06 95655.4 0 -2.19267e+06 108425 0 -2.21488e+06 121512 0 -2.23966e+06 134965 0 -2.26707e+06 148832 0 -2.29721e+06 163168 0 -2.33017e+06 178028 0 -2.36605e+06 193470 0 -2.405e+06 209551 0 -2.44715e+06 226328 0 -2.49268e+06 243852 0 -2.54176e+06 262163 0 -2.59463e+06 281281 0 -2.65154e+06 301193 0 -2.7128e+06 321833 0 -2.77876e+06 343051 0 -2.84985e+06 364569 0 -2.92654e+06 385911 0 -3.00942e+06 406298 0 -3.09909e+06 424525 0 -3.19613e+06 438498 0 -3.30088e+06 445872 0 -3.41345e+06 439485 0 -3.53127e+06 418478 0 -2.09885e+06 0 0 -2.09993e+06 11474.6 0 -2.1031e+06 22958.9 0 -2.10837e+06 34484 0 -2.11576e+06 46081.5 0 -2.12528e+06 57784.8 0 -2.13696e+06 69627.8 0 -2.15082e+06 81645.1 0 -2.1669e+06 93873.3 0 -2.18525e+06 106351 0 -2.20591e+06 119118 0 -2.22893e+06 132219 0 -2.25439e+06 145698 0 -2.28235e+06 159603 0 -2.31289e+06 173986 0 -2.34612e+06 188900 0 -2.38214e+06 204398 0 -2.42107e+06 220535 0 -2.46305e+06 237362 0 -2.50825e+06 254926 0 -2.55683e+06 273261 0 -2.60903e+06 292382 0 -2.66509e+06 312269 0 -2.7253e+06 332854 0 -2.79e+06 353987 0 -2.8596e+06 375400 0 -2.93458e+06 396628 0 -3.01549e+06 416970 0 -3.10294e+06 435103 0 -3.19747e+06 449673 0 -3.29967e+06 456695 0 -3.40927e+06 453801 0 -2.09778e+06 0 0 -2.09878e+06 11262.4 0 -2.10173e+06 22533.4 0 -2.10663e+06 33841.5 0 -2.11351e+06 45215.6 0 -2.12236e+06 56685.9 0 -2.13321e+06 68283.8 0 -2.14609e+06 80040.7 0 -2.16103e+06 91989.6 0 -2.17806e+06 104166 0 -2.19722e+06 116605 0 -2.21857e+06 129347 0 -2.24215e+06 142433 0 -2.26803e+06 155906 0 -2.29629e+06 169812 0 -2.32699e+06 184199 0 -2.36023e+06 199117 0 -2.39611e+06 214617 0 -2.43475e+06 230750 0 -2.47628e+06 247563 0 -2.52086e+06 265097 0 -2.56865e+06 283384 0 -2.61987e+06 302433 0 -2.67475e+06 322225 0 -2.73356e+06 342692 0 -2.79664e+06 363695 0 -2.86437e+06 384975 0 -2.93721e+06 406144 0 -3.0157e+06 426443 0 -3.1004e+06 444984 0 -3.19194e+06 459855 0 -3.29082e+06 468576 0 -2.09669e+06 0 0 -2.09762e+06 11036.4 0 -2.10035e+06 22080.4 0 -2.1049e+06 33158 0 -2.11128e+06 44295.3 0 -2.11949e+06 55520 0 -2.12955e+06 66860.5 0 -2.14148e+06 78345.5 0 -2.15532e+06 90004.7 0 -2.17109e+06 101870 0 -2.18882e+06 113974 0 -2.20857e+06 126351 0 -2.23036e+06 139039 0 -2.25426e+06 152077 0 -2.28033e+06 165506 0 -2.30863e+06 179369 0 -2.33923e+06 193712 0 -2.37224e+06 208581 0 -2.40773e+06 224025 0 -2.44582e+06 240089 0 -2.48664e+06 256819 0 -2.53032e+06 274252 0 -2.57704e+06 292416 0 -2.62698e+06 311320 0 -2.68037e+06 330947 0 -2.73746e+06 351237 0 -2.79856e+06 372060 0 -2.86405e+06 393208 0 -2.93434e+06 414290 0 -3.00996e+06 434732 0 -3.09144e+06 453684 0 -3.17942e+06 469220 0 -2.09558e+06 0 0 -2.09644e+06 10796.7 0 -2.09897e+06 21599.9 0 -2.10318e+06 32433.5 0 -2.10907e+06 43321 0 -2.11667e+06 54287.1 0 -2.12597e+06 65358.1 0 -2.137e+06 76559.8 0 -2.14978e+06 87918.9 0 -2.16434e+06 99463.7 0 -2.18071e+06 111224 0 -2.19892e+06 123231 0 -2.219e+06 135517 0 -2.24102e+06 148118 0 -2.26501e+06 161070 0 -2.29103e+06 174412 0 -2.31914e+06 188185 0 -2.34942e+06 202431 0 -2.38194e+06 217195 0 -2.4168e+06 232520 0 -2.4541e+06 248450 0 -2.49395e+06 265026 0 -2.53648e+06 282283 0 -2.58185e+06 300249 0 -2.63023e+06 318933 0 -2.68184e+06 338324 0 -2.7369e+06 358369 0 -2.79571e+06 378968 0 -2.8586e+06 399940 0 -2.92598e+06 420944 0 -2.99829e+06 441633 0 -3.07613e+06 460679 0 -2.09445e+06 0 0 -2.09524e+06 10543.2 0 -2.09758e+06 21092 0 -2.10146e+06 31668.1 0 -2.1069e+06 42292.5 0 -2.1139e+06 52987.5 0 -2.12247e+06 63776.8 0 -2.13263e+06 74683.9 0 -2.1444e+06 85732.5 0 -2.15781e+06 96948 0 -2.17287e+06 108357 0 -2.18961e+06 119987 0 -2.20808e+06 131867 0 -2.2283e+06 144029 0 -2.25031e+06 156505 0 -2.27417e+06 169329 0 -2.29992e+06 182538 0 -2.32763e+06 196170 0 -2.35736e+06 210265 0 -2.38918e+06 224862 0 -2.42318e+06 240004 0 -2.45945e+06 255731 0 -2.49809e+06 272081 0 -2.53923e+06 289089 0 -2.583e+06 306780 0 -2.62957e+06 325168 0 -2.67913e+06 344247 0 -2.73189e+06 363979 0 -2.7881e+06 384294 0 -2.84809e+06 405012 0 -2.91219e+06 426027 0 -2.98088e+06 446456 0 -2.0933e+06 0 0 -2.09403e+06 10276 0 -2.09618e+06 20556.7 0 -2.09975e+06 30861.9 0 -2.10474e+06 41210.2 0 -2.11118e+06 51621.3 0 -2.11905e+06 62116.8 0 -2.12838e+06 72718 0 -2.13919e+06 83445.9 0 -2.15149e+06 94322.8 0 -2.16531e+06 105373 0 -2.18066e+06 116620 0 -2.19758e+06 128090 0 -2.21609e+06 139811 0 -2.23623e+06 151811 0 -2.25804e+06 164121 0 -2.28156e+06 176772 0 -2.30685e+06 189799 0 -2.33394e+06 203237 0 -2.36291e+06 217121 0 -2.39382e+06 231491 0 -2.42675e+06 246384 0 -2.46177e+06 261838 0 -2.49899e+06 277890 0 -2.53851e+06 294572 0 -2.58047e+06 311911 0 -2.625e+06 329924 0 -2.67226e+06 348611 0 -2.72246e+06 367960 0 -2.77583e+06 387883 0 -2.83262e+06 408394 0 -2.8932e+06 428910 0 -2.09214e+06 0 0 -2.09281e+06 9995.06 0 -2.09477e+06 19994.1 0 -2.09804e+06 30014.9 0 -2.10262e+06 40073.9 0 -2.10851e+06 50188.7 0 -2.11571e+06 60378.4 0 -2.12426e+06 70662.3 0 -2.13414e+06 81059.1 0 -2.14539e+06 91588.5 0 -2.15802e+06 102271 0 -2.17204e+06 113129 0 -2.18749e+06 124185 0 -2.20438e+06 135463 0 -2.22275e+06 146988 0 -2.24263e+06 158787 0 -2.26404e+06 170887 0 -2.28704e+06 183318 0 -2.31166e+06 196112 0 -2.33795e+06 209300 0 -2.36597e+06 222916 0 -2.39578e+06 236996 0 -2.42744e+06 251574 0 -2.46102e+06 266686 0 -2.49663e+06 282366 0 -2.53434e+06 298647 0 -2.57427e+06 315556 0 -2.61655e+06 333111 0 -2.66133e+06 351331 0 -2.70876e+06 370182 0 -2.75905e+06 389723 0 -2.81247e+06 409577 0 -2.09096e+06 0 0 -2.09156e+06 9700.48 0 -2.09336e+06 19404.3 0 -2.09634e+06 29127.2 0 -2.10051e+06 38884 0 -2.10589e+06 48689.8 0 -2.11246e+06 58561.6 0 -2.12025e+06 68516.9 0 -2.12926e+06 78572.4 0 -2.1395e+06 88745.1 0 -2.151e+06 99053.2 0 -2.16377e+06 109516 0 -2.17782e+06 120153 0 -2.19318e+06 130986 0 -2.20986e+06 142036 0 -2.22791e+06 153326 0 -2.24734e+06 164881 0 -2.26818e+06 176727 0 -2.29047e+06 188889 0 -2.31426e+06 201397 0 -2.33958e+06 214280 0 -2.36647e+06 227569 0 -2.395e+06 241297 0 -2.42523e+06 255494 0 -2.45721e+06 270196 0 -2.49102e+06 285433 0 -2.52675e+06 301238 0 -2.5645e+06 317637 0 -2.60436e+06 334659 0 -2.64647e+06 352303 0 -2.69097e+06 370640 0 -2.73804e+06 389426 0 -2.08975e+06 0 0 -2.09031e+06 9392.27 0 -2.09194e+06 18787.2 0 -2.09465e+06 28198.8 0 -2.09844e+06 37640.4 0 -2.10331e+06 47124.8 0 -2.10928e+06 56666.8 0 -2.11635e+06 66282.2 0 -2.12453e+06 75986 0 -2.13382e+06 85792.9 0 -2.14425e+06 95718.5 0 -2.15582e+06 105780 0 -2.16855e+06 115994 0 -2.18246e+06 126379 0 -2.19756e+06 136954 0 -2.21387e+06 147739 0 -2.23143e+06 158755 0 -2.25025e+06 170023 0 -2.27036e+06 181567 0 -2.2918e+06 193412 0 -2.31459e+06 205582 0 -2.33877e+06 218106 0 -2.3644e+06 231010 0 -2.3915e+06 244324 0 -2.42014e+06 258078 0 -2.45037e+06 272302 0 -2.48225e+06 287026 0 -2.51586e+06 302281 0 -2.55128e+06 318098 0 -2.58859e+06 334489 0 -2.62791e+06 351527 0 -2.66936e+06 369050 0 -2.08853e+06 0 0 -2.08903e+06 9070.44 0 -2.09051e+06 18142.9 0 -2.09296e+06 27230 0 -2.09638e+06 36343.2 0 -2.10079e+06 45493.6 0 -2.10619e+06 54694 0 -2.11257e+06 63958.2 0 -2.11996e+06 73299.9 0 -2.12835e+06 82731.7 0 -2.13777e+06 92267.1 0 -2.14821e+06 101920 0 -2.15969e+06 111707 0 -2.17222e+06 121642 0 -2.18582e+06 131742 0 -2.20051e+06 142024 0 -2.21631e+06 152505 0 -2.23323e+06 163205 0 -2.25129e+06 174144 0 -2.27053e+06 185341 0 -2.29096e+06 196820 0 -2.31262e+06 208602 0 -2.33555e+06 220712 0 -2.35976e+06 233175 0 -2.38532e+06 246018 0 -2.41225e+06 259266 0 -2.4406e+06 272950 0 -2.47044e+06 287094 0 -2.50181e+06 301733 0 -2.5348e+06 316882 0 -2.56946e+06 332607 0 -2.60591e+06 348800 0 -2.08729e+06 0 0 -2.08774e+06 8735.04 0 -2.08907e+06 17471.6 0 -2.09127e+06 26220.6 0 -2.09435e+06 34992.5 0 -2.09832e+06 43796.5 0 -2.10317e+06 52643.3 0 -2.10891e+06 61545.1 0 -2.11555e+06 70514.2 0 -2.12309e+06 79561.7 0 -2.13154e+06 88698.8 0 -2.14092e+06 97937.8 0 -2.15122e+06 107292 0 -2.16246e+06 116774 0 -2.17465e+06 126398 0 -2.18781e+06 136179 0 -2.20195e+06 146131 0 -2.21709e+06 156271 0 -2.23324e+06 166615 0 -2.25042e+06 177181 0 -2.26866e+06 187986 0 -2.28797e+06 199052 0 -2.30839e+06 210397 0 -2.32993e+06 222043 0 -2.35264e+06 234012 0 -2.37653e+06 246328 0 -2.40165e+06 259016 0 -2.42804e+06 272098 0 -2.45575e+06 285605 0 -2.48481e+06 299553 0 -2.51529e+06 314000 0 -2.54725e+06 328869 0 -2.08603e+06 0 0 -2.08644e+06 8386.07 0 -2.08762e+06 16773.1 0 -2.08959e+06 25170.9 0 -2.09235e+06 33588.3 0 -2.09589e+06 42033.5 0 -2.10023e+06 50514.9 0 -2.10536e+06 59043.1 0 -2.11129e+06 67629.1 0 -2.11803e+06 76282.7 0 -2.12558e+06 85013.6 0 -2.13395e+06 93831.6 0 -2.14314e+06 102748 0 -2.15317e+06 111774 0 -2.16404e+06 120921 0 -2.17576e+06 130202 0 -2.18835e+06 139630 0 -2.20182e+06 149216 0 -2.21618e+06 158977 0 -2.23145e+06 168925 0 -2.24764e+06 179077 0 -2.26477e+06 189448 0 -2.28287e+06 200056 0 -2.30194e+06 210918 0 -2.32201e+06 222053 0 -2.34312e+06 233480 0 -2.36527e+06 245219 0 -2.38852e+06 257293 0 -2.41288e+06 269724 0 -2.43839e+06 282530 0 -2.46509e+06 295757 0 -2.49304e+06 309351 0 -2.08476e+06 0 0 -2.08511e+06 8023.59 0 -2.08617e+06 16047.7 0 -2.08792e+06 24080.8 0 -2.09037e+06 32130.8 0 -2.09352e+06 40204.6 0 -2.09737e+06 48308.9 0 -2.10193e+06 56452.3 0 -2.1072e+06 64644.6 0 -2.11318e+06 72894.8 0 -2.11987e+06 81211 0 -2.1273e+06 89601.4 0 -2.13545e+06 98074.8 0 -2.14433e+06 106641 0 -2.15397e+06 115310 0 -2.16435e+06 124093 0 -2.17549e+06 132998 0 -2.1874e+06 142039 0 -2.2001e+06 151225 0 -2.21359e+06 160569 0 -2.22788e+06 170085 0 -2.24298e+06 179784 0 -2.25893e+06 189680 0 -2.27571e+06 199790 0 -2.29337e+06 210126 0 -2.31191e+06 220706 0 -2.33135e+06 231547 0 -2.35171e+06 242666 0 -2.37303e+06 254082 0 -2.39532e+06 265810 0 -2.41861e+06 277888 0 -2.44294e+06 290276 0 -2.08346e+06 0 0 -2.08378e+06 7647.6 0 -2.08471e+06 15295.4 0 -2.08625e+06 22950.5 0 -2.08841e+06 30620 0 -2.09119e+06 38309.8 0 -2.09459e+06 46025.1 0 -2.09861e+06 53772.7 0 -2.10325e+06 61560.8 0 -2.10852e+06 69397.8 0 -2.11442e+06 77290.8 0 -2.12096e+06 85246.4 0 -2.12814e+06 93271.7 0 -2.13596e+06 101375 0 -2.14443e+06 109564 0 -2.15356e+06 117847 0 -2.16336e+06 126234 0 -2.17382e+06 134733 0 -2.18497e+06 143354 0 -2.1968e+06 152107 0 -2.20933e+06 161001 0 -2.22256e+06 170047 0 -2.23652e+06 179258 0 -2.2512e+06 188643 0 -2.26663e+06 198217 0 -2.28281e+06 207991 0 -2.29976e+06 217979 0 -2.3175e+06 228196 0 -2.33604e+06 238656 0 -2.35541e+06 249373 0 -2.37562e+06 260375 0 -2.39669e+06 271634 0 -2.08215e+06 0 0 -2.08242e+06 7258.16 0 -2.08324e+06 14516.2 0 -2.08459e+06 21780.1 0 -2.08648e+06 29056 0 -2.08891e+06 36349.2 0 -2.09188e+06 43663.6 0 -2.0954e+06 51004.3 0 -2.09946e+06 58377.9 0 -2.10407e+06 65791.8 0 -2.10922e+06 73252.6 0 -2.11494e+06 80766 0 -2.12121e+06 88337.4 0 -2.12804e+06 95973 0 -2.13543e+06 103679 0 -2.1434e+06 111464 0 -2.15194e+06 119334 0 -2.16106e+06 127297 0 -2.17077e+06 135360 0 -2.18107e+06 143531 0 -2.19197e+06 151818 0 -2.20348e+06 160230 0 -2.2156e+06 168776 0 -2.22835e+06 177465 0 -2.24173e+06 186307 0 -2.25575e+06 195313 0 -2.27043e+06 204492 0 -2.28577e+06 213856 0 -2.3018e+06 223418 0 -2.31851e+06 233186 0 -2.33592e+06 243185 0 -2.35406e+06 253391 0 -2.08081e+06 0 0 -2.08105e+06 6855.28 0 -2.08176e+06 13710.2 0 -2.08293e+06 20569.6 0 -2.08457e+06 27438.9 0 -2.08668e+06 34322.7 0 -2.08925e+06 41224.2 0 -2.0923e+06 48146.9 0 -2.09582e+06 55095.7 0 -2.09981e+06 62076.8 0 -2.10428e+06 69096.4 0 -2.10922e+06 76159.6 0 -2.11465e+06 83270.8 0 -2.12056e+06 90434.4 0 -2.12696e+06 97655.8 0 -2.13384e+06 104940 0 -2.14122e+06 112295 0 -2.1491e+06 119724 0 -2.15748e+06 127235 0 -2.16637e+06 134834 0 -2.17577e+06 142527 0 -2.18569e+06 150321 0 -2.19613e+06 158222 0 -2.2071e+06 166239 0 -2.21861e+06 174379 0 -2.23066e+06 182650 0 -2.24327e+06 191059 0 -2.25643e+06 199617 0 -2.27016e+06 208332 0 -2.28447e+06 217211 0 -2.29936e+06 226273 0 -2.31486e+06 235500 0 -2.07946e+06 0 0 -2.07967e+06 6439 0 -2.08027e+06 12877.4 0 -2.08128e+06 19319.2 0 -2.08268e+06 25768.8 0 -2.08449e+06 32230.4 0 -2.0867e+06 38706.8 0 -2.08931e+06 45200.3 0 -2.09233e+06 51714 0 -2.09575e+06 58252.8 0 -2.09958e+06 64822 0 -2.10382e+06 71426.6 0 -2.10846e+06 78070.5 0 -2.11352e+06 84757.1 0 -2.119e+06 91490.1 0 -2.12489e+06 98273.6 0 -2.1312e+06 105112 0 -2.13794e+06 112011 0 -2.1451e+06 118975 0 -2.15269e+06 126009 0 -2.16071e+06 133118 0 -2.16917e+06 140308 0 -2.17808e+06 147583 0 -2.18743e+06 154949 0 -2.19723e+06 162412 0 -2.20748e+06 169979 0 -2.2182e+06 177655 0 -2.22938e+06 185447 0 -2.24103e+06 193362 0 -2.25317e+06 201406 0 -2.26579e+06 209593 0 -2.2789e+06 217908 0 -2.07809e+06 0 0 -2.07827e+06 6009.35 0 -2.07878e+06 12018 0 -2.07963e+06 18029 0 -2.08082e+06 24045.9 0 -2.08235e+06 30072.5 0 -2.08422e+06 36111.3 0 -2.08643e+06 42164 0 -2.08899e+06 48232.3 0 -2.09189e+06 54319.4 0 -2.09513e+06 60429.4 0 -2.09871e+06 66567 0 -2.10264e+06 72736 0 -2.10692e+06 78939.3 0 -2.11155e+06 85179.7 0 -2.11653e+06 91459.9 0 -2.12186e+06 97783.1 0 -2.12755e+06 104153 0 -2.1336e+06 110574 0 -2.14e+06 117049 0 -2.14677e+06 123583 0 -2.1539e+06 130180 0 -2.1614e+06 136843 0 -2.16927e+06 143578 0 -2.17752e+06 150387 0 -2.18614e+06 157276 0 -2.19515e+06 164250 0 -2.20454e+06 171313 0 -2.21432e+06 178471 0 -2.2245e+06 185728 0 -2.23507e+06 193094 0 -2.24605e+06 200557 0 -2.0767e+06 0 0 -2.07685e+06 5566.36 0 -2.07728e+06 11131.9 0 -2.07799e+06 16699 0 -2.07898e+06 22270.3 0 -2.08026e+06 27849 0 -2.08182e+06 33437.6 0 -2.08366e+06 39037.6 0 -2.0858e+06 44649.8 0 -2.08822e+06 50275.7 0 -2.09092e+06 55918 0 -2.09391e+06 61580.4 0 -2.09719e+06 67266.7 0 -2.10075e+06 72979.8 0 -2.10461e+06 78722.1 0 -2.10875e+06 84495.5 0 -2.1132e+06 90302 0 -2.11793e+06 96144.1 0 -2.12296e+06 102025 0 -2.12829e+06 107946 0 -2.13392e+06 113912 0 -2.13984e+06 119926 0 -2.14608e+06 125991 0 -2.15261e+06 132109 0 -2.15945e+06 138284 0 -2.16661e+06 144519 0 -2.17407e+06 150818 0 -2.18185e+06 157184 0 -2.18995e+06 163621 0 -2.19836e+06 170132 0 -2.2071e+06 176724 0 -2.21617e+06 183389 0 -2.0753e+06 0 0 -2.07542e+06 5110.07 0 -2.07577e+06 10219.3 0 -2.07635e+06 15329.4 0 -2.07717e+06 20442.2 0 -2.07821e+06 25560.3 0 -2.07949e+06 30686 0 -2.081e+06 35820.9 0 -2.08275e+06 40965.6 0 -2.08474e+06 46120.3 0 -2.08695e+06 51286.4 0 -2.08941e+06 56466.1 0 -2.09209e+06 61662.3 0 -2.09501e+06 66878 0 -2.09817e+06 72115.7 0 -2.10156e+06 77377.3 0 -2.10519e+06 82664.2 0 -2.10907e+06 87977.8 0 -2.11318e+06 93319.7 0 -2.11754e+06 98691.6 0 -2.12214e+06 104096 0 -2.12698e+06 109535 0 -2.13207e+06 115010 0 -2.13741e+06 120526 0 -2.14299e+06 126082 0 -2.14882e+06 131683 0 -2.15491e+06 137331 0 -2.16124e+06 143027 0 -2.16783e+06 148774 0 -2.17468e+06 154575 0 -2.18179e+06 160435 0 -2.18916e+06 166346 0 -2.07387e+06 0 0 -2.07397e+06 4640.51 0 -2.07425e+06 9280.17 0 -2.07472e+06 13920.2 0 -2.07537e+06 18561.7 0 -2.07621e+06 23206.6 0 -2.07724e+06 27856.7 0 -2.07845e+06 32513.9 0 -2.07985e+06 37178.9 0 -2.08145e+06 41851.7 0 -2.08323e+06 46532.5 0 -2.08519e+06 51221.8 0 -2.08735e+06 55921.4 0 -2.08969e+06 60633.4 0 -2.09222e+06 65360.3 0 -2.09494e+06 70104.1 0 -2.09785e+06 74866.4 0 -2.10095e+06 79648.3 0 -2.10425e+06 84450.9 0 -2.10774e+06 89275.1 0 -2.11142e+06 94121.9 0 -2.11529e+06 98992.6 0 -2.11936e+06 103889 0 -2.12363e+06 108812 0 -2.12809e+06 113763 0 -2.13275e+06 118746 0 -2.13761e+06 123760 0 -2.14266e+06 128809 0 -2.14792e+06 133893 0 -2.15338e+06 139014 0 -2.15904e+06 144176 0 -2.16491e+06 149373 0 -2.07243e+06 0 0 -2.07251e+06 4157.7 0 -2.07273e+06 8314.58 0 -2.07309e+06 12471.4 0 -2.0736e+06 16628.9 0 -2.07426e+06 20788.1 0 -2.07506e+06 24950.3 0 -2.07601e+06 29117.2 0 -2.0771e+06 33289.9 0 -2.07834e+06 37468.7 0 -2.07973e+06 41653.4 0 -2.08127e+06 45843.8 0 -2.08296e+06 50040.1 0 -2.08479e+06 54243 0 -2.08677e+06 58454.2 0 -2.08889e+06 62675.1 0 -2.09116e+06 66907.7 0 -2.09358e+06 71153.2 0 -2.09615e+06 75412.9 0 -2.09887e+06 79687.5 0 -2.10174e+06 83977.7 0 -2.10476e+06 88284.1 0 -2.10793e+06 92607.2 0 -2.11125e+06 96947.6 0 -2.11472e+06 101306 0 -2.11835e+06 105684 0 -2.12213e+06 110081 0 -2.12606e+06 114500 0 -2.13015e+06 118942 0 -2.13439e+06 123408 0 -2.13878e+06 127900 0 -2.14334e+06 132413 0 -2.07097e+06 0 0 -2.07103e+06 3661.68 0 -2.07119e+06 7322.6 0 -2.07147e+06 10983.2 0 -2.07186e+06 14643.8 0 -2.07235e+06 18304.9 0 -2.07296e+06 21967.2 0 -2.07367e+06 25631.6 0 -2.0745e+06 29299.4 0 -2.07543e+06 32971.4 0 -2.07648e+06 36647.8 0 -2.07764e+06 40328.3 0 -2.07891e+06 44012.4 0 -2.0803e+06 47700 0 -2.08179e+06 51391.1 0 -2.0834e+06 55086.1 0 -2.08512e+06 58786.1 0 -2.08694e+06 62492.1 0 -2.08888e+06 66205.2 0 -2.09093e+06 69926.4 0 -2.09309e+06 73656.9 0 -2.09536e+06 77397.3 0 -2.09775e+06 81148.2 0 -2.10025e+06 84910 0 -2.10286e+06 88682.8 0 -2.10559e+06 92466.8 0 -2.10844e+06 96261.9 0 -2.11139e+06 100068 0 -2.11447e+06 103886 0 -2.11765e+06 107716 0 -2.12096e+06 111560 0 -2.12438e+06 115418 0 -2.06949e+06 0 0 -2.06953e+06 3152.48 0 -2.06965e+06 6304.25 0 -2.06985e+06 9455.48 0 -2.07013e+06 12606.3 0 -2.07049e+06 15756.9 0 -2.07093e+06 18907.2 0 -2.07144e+06 22057.8 0 -2.07204e+06 25209 0 -2.07271e+06 28361.9 0 -2.07347e+06 31516.8 0 -2.0743e+06 34674.3 0 -2.07522e+06 37834.1 0 -2.07622e+06 40996 0 -2.0773e+06 44159.5 0 -2.07846e+06 47324.1 0 -2.0797e+06 50489.7 0 -2.08102e+06 53656 0 -2.08242e+06 56823.3 0 -2.0839e+06 59991.8 0 -2.08545e+06 63162.1 0 -2.08709e+06 66335 0 -2.08881e+06 69511.1 0 -2.09061e+06 72691.4 0 -2.09249e+06 75876.8 0 -2.09445e+06 79068 0 -2.0965e+06 82265.5 0 -2.09862e+06 85469.2 0 -2.10083e+06 88678.8 0 -2.10313e+06 91892.6 0 -2.1055e+06 95109.1 0 -2.10796e+06 98322.4 0 -2.06799e+06 0 0 -2.06802e+06 2630.13 0 -2.0681e+06 5259.61 0 -2.06824e+06 7888.39 0 -2.06843e+06 10516.4 0 -2.06867e+06 13143.6 0 -2.06897e+06 15769.8 0 -2.06932e+06 18395 0 -2.06972e+06 21019.1 0 -2.07018e+06 23642.1 0 -2.07069e+06 26264.3 0 -2.07126e+06 28886 0 -2.07187e+06 31507.7 0 -2.07255e+06 34129.5 0 -2.07328e+06 36751.5 0 -2.07406e+06 39373.5 0 -2.0749e+06 41995.3 0 -2.0758e+06 44616.3 0 -2.07675e+06 47236.1 0 -2.07775e+06 49854 0 -2.07881e+06 52469.3 0 -2.07992e+06 55081.4 0 -2.08109e+06 57689.7 0 -2.08231e+06 60294 0 -2.08358e+06 62894.2 0 -2.08491e+06 65490.8 0 -2.08629e+06 68084.8 0 -2.08773e+06 70677.6 0 -2.08922e+06 73271.5 0 -2.09076e+06 75868.8 0 -2.09237e+06 78473.5 0 -2.09402e+06 81087.3 0 -2.06648e+06 0 0 -2.06649e+06 2094.63 0 -2.06654e+06 4188.66 0 -2.06663e+06 6281.89 0 -2.06674e+06 8374.06 0 -2.06689e+06 10465 0 -2.06708e+06 12554.4 0 -2.0673e+06 14642.2 0 -2.06755e+06 16728.1 0 -2.06783e+06 18811.8 0 -2.06815e+06 20892.8 0 -2.0685e+06 22970.7 0 -2.06888e+06 25045.4 0 -2.06929e+06 27116.7 0 -2.06974e+06 29184.8 0 -2.07022e+06 31249.9 0 -2.07074e+06 33312.5 0 -2.07129e+06 35372.9 0 -2.07187e+06 37431.5 0 -2.07249e+06 39488.4 0 -2.07314e+06 41543.2 0 -2.07383e+06 43595.6 0 -2.07455e+06 45644.5 0 -2.07531e+06 47688.6 0 -2.0761e+06 49726.1 0 -2.07692e+06 51755 0 -2.07778e+06 53772.9 0 -2.07867e+06 55777.3 0 -2.07959e+06 57765.2 0 -2.08055e+06 59733.8 0 -2.08154e+06 61680.4 0 -2.08256e+06 63600.9 0 -2.06494e+06 0 0 -2.06495e+06 1546.21 0 -2.06498e+06 3091.78 0 -2.06502e+06 4636.26 0 -2.06508e+06 6179.18 0 -2.06516e+06 7720.08 0 -2.06526e+06 9258.43 0 -2.06538e+06 10793.8 0 -2.06551e+06 12326 0 -2.06566e+06 13855.2 0 -2.06583e+06 15381.1 0 -2.06602e+06 16903.2 0 -2.06622e+06 18420.1 0 -2.06644e+06 19930.2 0 -2.06668e+06 21431.5 0 -2.06694e+06 22922.3 0 -2.06722e+06 24401.5 0 -2.06751e+06 25869.1 0 -2.06782e+06 27325.8 0 -2.06814e+06 28773.4 0 -2.06848e+06 30214.2 0 -2.06884e+06 31650.9 0 -2.06922e+06 33086.6 0 -2.06962e+06 34524 0 -2.07003e+06 35965.8 0 -2.07046e+06 37414 0 -2.07091e+06 38870.4 0 -2.07138e+06 40336.5 0 -2.07187e+06 41813.3 0 -2.07238e+06 43301.6 0 -2.0729e+06 44803 0 -2.07344e+06 46315.2 0 </DataArray> 
</PointData> 
<Points> 
<DataArray type="Float32" NumberOfComponents="3"> 