<?xml version="1.0"?> 
<VTKFile type="StructuredGrid" version="0.1"> 
<StructuredGrid WholeExtent="0 31 0 31 0 0"> 
<Piece Extent="0 31 0 31 0 0"> 
<PointData>
<DataArray type="Float32" Name="|E|" format="ascii" NumberOfComponents="3"> 
975224 222396 0 943873 213596 0 913874 204835 0 885200 196142 0 857824 187540 0 831718 179049 0 806856 170681 0 783208 162445 0 760750 154349 0 739453 146396 0 719293 138587 0 700244 130924 0 682282 123403 0 665384 116022 0 649527 108777 0 634691 101663 0 620855 94674.3 0 608001 87805.3 0 596110 81049.1 0 585166 74398.7 0 575154 67846.8 0 566059 61385.9 0 557869 55008 0 550570 48705.3 0 544154 42469.6 0 538611 36292.8 0 533932 30166.5 0 530111 24082.5 0 527142 18032.3 0 525021 12007.5 0 523745 5999.5 0 523311 0 0 973252 227017 0 941937 218067 0 911977 209157 0 883344 200315 0 856010 191565 0 829947 182926 0 805128 174410 0 781523 166027 0 759107 157784 0 737851 149684 0 717731 141730 0 698720 133921 0 680795 126254 0 663932 118728 0 648108 111338 0 633303 104079 0 619496 96945.4 0 606668 89931.2 0 594802 83029.6 0 583880 76233.4 0 573888 69535.2 0 564810 62927.2 0 556635 56401.6 0 549349 49950.2 0 542943 43564.7 0 537407 37236.8 0 532733 30958 0 528915 24719.8 0 525946 18513.6 0 523821 12330.6 0 522539 6162.34 0 522097 0 0 971249 231629 0 939970 222530 0 910050 213470 0 881458 204479 0 854166 195581 0 828146 186793 0 803370 178129 0 779808 169599 0 757434 161210 0 736219 152964 0 716139 144864 0 697166 136909 0 679278 129097 0 662450 121426 0 646659 113891 0 631885 106488 0 618107 99209.4 0 605306 92050.4 0 593464 85003.8 0 582564 78062.2 0 572592 71218.1 0 563531 64463.6 0 555371 57790.7 0 548097 51191 0 541701 44656.2 0 536172 38177.7 0 531503 31746.9 0 527686 25355 0 524716 18993.2 0 522589 12652.7 0 521300 6324.61 0 520849 0 0 969216 236233 0 937973 226984 0 908092 217774 0 879541 208634 0 852292 199586 0 826315 190650 0 801582 181839 0 778063 173162 0 755731 164626 0 734558 156234 0 714517 147988 0 695583 139888 0 677731 131932 0 660938 124116 0 645181 116437 0 630437 108889 0 616688 101466 0 603914 94162.9 0 592096 86971.6 0 581218 79885 0 571265 72895.5 0 562222 65994.9 0 554076 59175.1 0 546815 52427.7 0 540428 45744.1 0 534907 39115.5 0 530242 32533.1 0 526426 25988 0 523455 19471.2 0 521324 12973.7 0 520029 6486.32 0 519568 0 0 967152 240828 0 935946 231428 0 906104 222068 0 877594 212778 0 850388 203582 0 824454 194498 0 799764 185539 0 776288 176715 0 753998 168032 0 732866 159495 0 712866 151103 0 693970 142858 0 676155 134757 0 659397 126797 0 643673 118974 0 628960 111282 0 615240 103716 0 602492 96268.4 0 590699 88932.9 0 579843 81701.8 0 569909 74567.2 0 560883 67521.1 0 552751 60554.9 0 545502 53660.2 0 539125 46828.2 0 533610 40049.9 0 528949 33316.5 0 525135 26618.7 0 522162 19947.5 0 520027 13293.5 0 518724 6647.46 0 518254 0 0 965058 245415 0 933888 235863 0 904085 226353 0 875617 216913 0 848453 207568 0 822563 198335 0 797917 189229 0 774484 180258 0 752236 171429 0 731145 162746 0 711185 154209 0 692328 145820 0 674550 137574 0 657826 129470 0 642135 121503 0 627454 113668 0 613762 105958 0 601041 98367.1 0 589271 90887.8 0 578437 83512.5 0 568523 76233.4 0 559514 69042 0 551396 61930 0 544159 54888.4 0 537791 47908.5 0 532282 40981.2 0 527625 34097.2 0 523812 27247.3 0 520837 20422.1 0 518697 13612.2 0 517387 6808.01 0 516906 0 0 962932 249992 0 931800 240289 0 902036 230627 0 873610 221038 0 846489 211543 0 820642 202163 0 796039 192909 0 772649 183791 0 750444 174816 0 729395 165987 0 709474 157306 0 690656 148772 0 672915 140382 0 656226 132135 0 640568 124025 0 625918 116046 0 612255 108193 0 599560 100459 0 587815 92836 0 577002 85317 0 567107 77893.7 0 558114 70557.7 0 550011 63300.2 0 542785 56112.3 0 536426 48985 0 530923 41909 0 526270 34875 0 522457 27873.5 0 519481 20895 0 517335 13929.7 0 516017 6967.97 0 515525 0 0 960776 254561 0 929680 244705 0 899957 234892 0 871572 225152 0 844494 215509 0 818691 205979 0 794131 196578 0 770785 187314 0 748622 178193 0 727615 169218 0 707734 160393 0 688955 151714 0 671250 143182 0 654597 134791 0 638971 126537 0 624352 118416 0 610718 110420 0 598049 102543 0 586328 94777.5 0 575537 87115.3 0 565661 79548.3 0 556685 72068 0 548596 64665.5 0 541381 57331.8 0 535031 50057.6 0 529534 42833.5 0 524883 35650.1 0 521071 28497.5 0 518092 21366.1 0 515941 14246 0 514614 7127.32 0 514111 0 0 958589 259120 0 927530 249111 0 897847 239147 0 869504 229256 0 842469 219463 0 816710 209786 0 792194 200237 0 768891 190826 0 746771 181559 0 725805 172440 0 705965 163470 0 687224 154648 0 669556 145971 0 652938 137438 0 637346 129042 0 622757 120778 0 609152 112640 0 596509 104620 0 584812 96712.1 0 574043 88907.2 0 564186 81197 0 555226 73572.9 0 547151 66025.9 0 539947 58546.8 0 533605 51126.3 0 528114 43754.6 0 523466 36422.2 0 519654 29119.1 0 516672 21835.4 0 514515 14561.1 0 513179 7286.07 0 512663 0 0 956370 263670 0 925350 253508 0 895706 243391 0 867406 233350 0 840414 223408 0 814699 213582 0 790227 203885 0 766967 194328 0 744890 184915 0 723965 175651 0 704166 166537 0 685463 157571 0 667833 148752 0 651250 140076 0 635691 131538 0 621133 123132 0 607556 114852 0 594940 106690 0 583267 98640 0 572519 90692.6 0 562681 82839.7 0 553738 75072.3 0 545676 67381.3 0 538483 59757.4 0 532149 52190.9 0 526663 44672.2 0 522018 37191.4 0 518205 29738.3 0 515220 22303 0 513056 14875.1 0 511712 7444.2 0 511183 0 0 954121 268210 0 923138 257894 0 893535 247625 0 865277 237433 0 838329 227341 0 812657 217367 0 788230 207523 0 765014 197819 0 742979 188261 0 722097 178853 0 702337 169594 0 683674 160485 0 666080 151524 0 649532 142705 0 634006 134025 0 619480 125477 0 605931 117056 0 593342 108753 0 581692 100561 0 570966 92471.6 0 561147 84476.3 0 552219 76566.1 0 544171 68731.6 0 536989 60963.3 0 530663 53251.6 0 525182 45586.3 0 520539 37957.6 0 516726 30355.2 0 513736 22768.7 0 511566 15187.7 0 510211 7601.7 0 509670 0 0 951840 272741 0 920895 262270 0 891333 251849 0 863118 241506 0 836213 231264 0 810586 221141 0 786203 211150 0 763031 201300 0 741039 191597 0 720198 182044 0 700479 172642 0 681855 163390 0 664299 154286 0 647786 145325 0 632293 136503 0 617797 127814 0 604277 119252 0 591714 110808 0 580088 102475 0 569383 94243.9 0 559583 86106.9 0 550671 78054.3 0 542636 70076.8 0 535465 62164.7 0 529146 54308.1 0 523671 46496.9 0 519029 38720.8 0 515215 30969.6 0 512222 23232.5 0 510044 15499.1 0 508679 7758.57 0 508124 0 0 949528 277261 0 918621 266636 0 889101 256062 0 860928 245567 0 834068 235175 0 808485 224904 0 784146 214766 0 761018 204770 0 739069 194921 0 718271 185224 0 698592 175679 0 680007 166284 0 662488 157038 0 646010 147936 0 630550 138973 0 616085 130143 0 602594 121440 0 590057 112855 0 578455 104381 0 567771 96009.6 0 557989 87731.2 0 549094 79536.8 0 541072 71416.8 0 533911 63361.3 0 527600 55360.4 0 522129 47403.8 0 517489 39481 0 513673 31581.5 0 510675 23694.5 0 508490 15809.3 0 507114 7914.79 0 506545 0 0 947184 281771 0 916317 270991 0 886837 260264 0 858708 249618 0 831892 239076 0 806354 228656 0 782059 218371 0 758975 208228 0 737070 198235 0 716313 188394 0 696676 178706 0 678129 169169 0 660648 159781 0 644205 150538 0 628778 141434 0 614344 132464 0 600882 123620 0 588371 114895 0 576793 106281 0 566130 97768.5 0 556366 89349.2 0 547487 81013.5 0 539478 72751.5 0 532327 64553.2 0 526023 56408.6 0 520556 48307 0 515918 40238.1 0 512100 32190.9 0 509098 24154.6 0 506905 16118.1 0 505518 8070.36 0 504934 0 0 944809 286271 0 913981 275336 0 884543 264455 0 856457 253657 0 829686 242965 0 804193 232397 0 779943 221964 0 756903 211676 0 735041 201538 0 714327 191553 0 694730 181722 0 676223 172043 0 658778 162514 0 642371 153130 0 626978 143886 0 612575 134775 0 599141 125792 0 586656 116927 0 575102 108173 0 564460 99520.6 0 554714 90960.9 0 545850 82484.3 0 537854 74080.8 0 530713 65740.3 0 524416 57452.5 0 518954 49206.6 0 514316 40992 0 510497 32797.8 0 507489 24612.7 0 505288 16425.7 0 503889 8225.26 0 503290 0 0 942403 290761 0 911614 279669 0 882218 268634 0 854176 257685 0 827449 246843 0 802001 236126 0 777797 225547 0 754801 215113 0 732983 204830 0 712311 194702 0 692755 184728 0 674287 174907 0 656880 165237 0 640508 155712 0 625148 146328 0 610776 137078 0 597371 127955 0 584912 118951 0 573381 110058 0 562760 101266 0 553033 92566.2 0 544185 83949.2 0 536201 75404.8 0 529070 66922.6 0 522780 58492 0 517321 50102.4 0 512684 41742.8 0 508863 33402.1 0 505849 25068.9 0 503639 16731.9 0 502228 8379.49 0 501614 0 0 939964 295240 0 909215 283992 0 879862 272803 0 851864 261701 0 825183 250709 0 799780 239844 0 775621 229117 0 752670 218538 0 730896 208111 0 710266 197839 0 690751 187723 0 672322 177761 0 654953 167950 0 638617 158285 0 623290 148762 0 608949 139372 0 595572 130110 0 583139 120967 0 571632 111935 0 561032 103004 0 551323 94165 0 542490 85408.1 0 534519 76723.3 0 527397 68099.9 0 521114 59527.2 0 515658 50994.4 0 511022 42490.4 0 507198 34003.7 0 504178 25523.1 0 501959 17036.8 0 500535 8533.04 0 499905 0 0 937494 299708 0 906786 288303 0 877476 276959 0 849522 265706 0 822886 254564 0 797529 243550 0 773415 232676 0 750509 221952 0 728779 211381 0 708192 200966 0 688718 190708 0 670329 180605 0 652997 170653 0 636696 160849 0 621402 151186 0 607092 141658 0 593744 132257 0 581338 122975 0 569854 113804 0 559274 104735 0 549583 95757.1 0 540765 86861 0 532807 78036.2 0 525695 69272.2 0 519418 60558 0 513966 51882.6 0 509330 43234.7 0 505502 34602.8 0 502476 25975.3 0 500247 17340.3 0 498811 8685.9 0 498164 0 0 934993 304164 0 904325 292602 0 875058 281104 0 847150 269698 0 820559 258406 0 795248 247244 0 771180 236224 0 748319 225354 0 726633 214639 0 706088 204081 0 686656 193681 0 668306 183437 0 651012 173346 0 634747 163402 0 619486 153600 0 605207 143934 0 591888 134395 0 579507 124975 0 568047 115667 0 557488 106459 0 547815 97342.7 0 539012 88307.7 0 531066 79343.6 0 523963 70439.4 0 517692 61584.3 0 512243 52766.9 0 507607 43975.7 0 503776 35199.2 0 500744 26425.4 0 498505 17642.4 0 497054 8838.07 0 496391 0 0 932459 308610 0 901833 296890 0 872610 285237 0 844747 273679 0 818202 262236 0 792937 250926 0 768914 239759 0 746099 228744 0 724457 217885 0 703956 207185 0 684565 196644 0 666255 186259 0 648998 176028 0 632769 165945 0 617542 156005 0 603294 146201 0 590003 136524 0 577648 126967 0 566211 117521 0 555673 108176 0 546018 98921.4 0 537230 89748.2 0 529295 80645.3 0 522201 71601.6 0 515937 62606.1 0 510490 53647.2 0 505854 44713.4 0 502019 35792.9 0 498980 26873.5 0 496731 17943.2 0 495267 8989.53 0 494585 0 0 929894 313043 0 899310 301166 0 870131 289358 0 842313 277647 0 815814 266055 0 790596 254596 0 766620 243282 0 743850 232122 0 722252 221120 0 701794 210278 0 682445 199595 0 664174 189071 0 646956 178700 0 630762 168479 0 615568 158401 0 601351 148458 0 588089 138645 0 575760 128951 0 564347 119367 0 553829 109885 0 544192 100493 0 535419 91182.5 0 527496 81941.2 0 520411 72758.6 0 514152 63623.2 0 508708 54523.6 0 504071 45447.8 0 500233 36383.8 0 497186 27319.5 0 494926 18242.5 0 493447 9140.27 0 492748 0 0 927297 317466 0 896755 305430 0 867621 293467 0 839849 281604 0 813397 269860 0 788225 258253 0 764295 246793 0 741571 235489 0 720018 224343 0 699604 213359 0 680296 202536 0 662065 191871 0 644885 181362 0 628727 171002 0 613566 160786 0 599381 150707 0 586147 140756 0 573844 130926 0 562454 121206 0 551957 111587 0 542337 102059 0 533579 92610.4 0 525668 83231.4 0 518591 73910.4 0 512338 64635.8 0 506897 55395.9 0 502259 46178.7 0 498416 36972 0 495361 27763.5 0 493090 18540.5 0 491597 9290.28 0 490879 0 0 924668 321876 0 894169 309682 0 865080 297563 0 837354 285547 0 810949 273654 0 785825 261898 0 761942 250292 0 739263 238843 0 717755 227554 0 697384 216428 0 678118 205464 0 659928 194660 0 642785 184012 0 626663 173515 0 611536 163162 0 597381 152946 0 584176 142859 0 571900 132892 0 560532 123036 0 550056 113281 0 540454 103617 0 531710 94031.8 0 523811 84515.7 0 516743 75056.9 0 510494 65643.7 0 505055 56264.1 0 500416 46906.2 0 496569 37557.4 0 493506 28205.2 0 491223 18836.9 0 489715 9439.57 0 488978 0 0 922006 326274 0 891551 313921 0 862508 301647 0 834829 289478 0 808471 277434 0 783394 265531 0 759558 253778 0 736926 242184 0 715463 230753 0 695135 219486 0 675912 208382 0 657761 197438 0 640657 186652 0 624571 176017 0 609478 165528 0 595354 155176 0 582177 144953 0 569927 134850 0 558582 124859 0 548126 114968 0 538542 105168 0 529812 95446.8 0 521925 85794.1 0 514865 76198 0 508622 66646.8 0 503185 57128.3 0 498544 47630.2 0 494692 38139.9 0 491621 28644.9 0 489326 19132 0 487802 9588.11 0 487046 0 0 919313 330659 0 888902 318148 0 859905 305718 0 832273 293396 0 805963 281202 0 780934 269150 0 757145 257252 0 734560 245514 0 713142 233940 0 692858 222531 0 673676 211287 0 655567 200205 0 638500 189281 0 622450 178509 0 607391 167883 0 593298 157395 0 580150 147037 0 567925 136800 0 556604 126673 0 546169 116647 0 536601 106712 0 527886 96855.2 0 520010 87066.5 0 512958 77333.8 0 506720 67645.1 0 501285 57988.2 0 496642 48350.6 0 492785 38719.6 0 489705 29082.3 0 487398 19425.5 0 485858 9735.91 0 485082 0 0 916588 335032 0 886222 322361 0 857271 309775 0 829687 297300 0 803425 284956 0 778444 272757 0 754703 260712 0 732164 248830 0 710792 237114 0 690552 225565 0 671413 214181 0 653343 202961 0 636315 191899 0 620301 180991 0 605275 170229 0 591214 159606 0 578095 149112 0 565896 138740 0 554598 128479 0 544183 118319 0 534633 108248 0 525932 98257 0 518067 88332.9 0 511023 78464.1 0 504790 68638.6 0 499355 58844 0 494711 49067.5 0 490848 39296.4 0 487759 29517.5 0 485439 19717.5 0 483883 9882.94 0 483087 0 0 913831 339392 0 883510 326562 0 854606 313820 0 827070 301192 0 800857 288697 0 775924 276350 0 752231 264160 0 729739 252134 0 708413 240276 0 688217 228586 0 669120 217063 0 651092 205705 0 634102 194506 0 618124 183462 0 603132 172564 0 589102 161806 0 576011 151178 0 563839 140672 0 552564 130277 0 542168 119982 0 532636 109778 0 523949 99652.1 0 516095 89593.1 0 509059 79588.9 0 502830 69627.2 0 497397 59695.4 0 492750 49780.8 0 488881 39870.3 0 485783 29950.5 0 483450 20008.1 0 481877 10029.2 0 481060 0 0 911042 343739 0 880766 330749 0 851910 317851 0 824423 305070 0 798259 292425 0 773375 279930 0 749730 267595 0 727285 255425 0 706005 243425 0 685854 231595 0 666800 219933 0 648811 208437 0 631860 197102 0 615919 185921 0 600961 174889 0 586962 163996 0 573900 153235 0 561753 142595 0 550501 132066 0 540126 121638 0 530610 111300 0 521938 101040 0 514094 90847.1 0 507066 80708.1 0 500842 70610.8 0 495410 60542.6 0 490760 50490.5 0 486885 40441.2 0 483778 30381.3 0 481431 20297.1 0 479840 10174.7 0 479003 0 0 908220 348073 0 877992 334923 0 849184 321868 0 821745 308934 0 795631 296139 0 770796 283497 0 747199 271016 0 724802 258703 0 703568 246561 0 683462 234591 0 664450 222791 0 646503 211157 0 629591 199686 0 613685 188370 0 598761 177203 0 584794 166177 0 571761 155281 0 559640 144508 0 548411 133847 0 538056 123286 0 528557 112815 0 519899 102422 0 512066 92095 0 505045 81821.7 0 498825 71589.5 0 493393 61385.4 0 488741 51196.5 0 484860 41009.1 0 481742 30809.8 0 479381 20584.6 0 477773 10319.4 0 476914 0 0 905367 352393 0 875185 339083 0 846426 325872 0 819037 312785 0 792973 299840 0 768187 287049 0 744639 274424 0 722290 261968 0 701102 249685 0 681041 237575 0 662073 225636 0 644166 213866 0 627293 202259 0 611424 190808 0 596534 179507 0 582598 168347 0 569594 157319 0 557498 146413 0 546293 135619 0 535958 124926 0 526476 114322 0 517831 103797 0 510009 93336.4 0 502996 82929.5 0 496779 72563 0 491348 62223.9 0 486693 51898.7 0 482805 41574 0 479677 31235.9 0 477302 20870.5 0 475676 10463.3 0 474794 0 0 902481 356699 0 872348 343229 0 843638 329862 0 816299 316622 0 790284 303526 0 765549 290589 0 742051 277818 0 719749 265219 0 698608 252795 0 678592 240546 0 659667 228469 0 641802 216563 0 624967 204820 0 609135 193235 0 594279 181800 0 580375 170507 0 567399 159346 0 555329 148308 0 544147 137382 0 533832 126557 0 524367 115822 0 515736 105164 0 507924 94571.6 0 500918 84031.7 0 494705 73531.5 0 489274 63057.8 0 484616 52597.2 0 480721 42135.8 0 477582 31659.8 0 475192 21154.8 0 473548 10606.4 0 472644 0 0 899564 360991 0 869478 347361 0 840819 333837 0 813531 320444 0 787567 307199 0 762881 294114 0 739432 281198 0 717180 268457 0 696086 255892 0 676114 243504 0 657233 231290 0 639409 219247 0 622614 207369 0 606818 195650 0 591996 184082 0 578123 172656 0 565176 161364 0 553133 150194 0 541973 139137 0 531678 128181 0 522230 117314 0 513612 106525 0 505811 95800.3 0 498812 85128 0 492603 74494.8 0 487172 63887.3 0 482510 53291.9 0 478607 42694.6 0 475457 32081.3 0 473053 21437.5 0 471390 10748.7 0 470462 0 0 </DataArray> 
</PointData> 
<Points> 
<DataArray type="Float32" NumberOfComponents="3"> 