<?xml version="1.0"?> 
<VTKFile type="StructuredGrid" version="0.1"> 
<StructuredGrid WholeExtent="0 31 0 31 0 0"> 
<Piece Extent="0 31 0 31 0 0"> 
<PointData>
<DataArray type="Float32" Name="|E|" format="ascii" NumberOfComponents="3"> 
1.02161e+06 112988 0 988627 108696 0 956952 104374 0 926587 100051 0 897522 95744.4 0 869747 91470.1 0 843246 87240 0 818002 83063 0 793996 78945.7 0 771207 74892.8 0 749614 70907.3 0 729196 66990.8 0 709931 63143.8 0 691798 59366.1 0 674774 55656.3 0 658841 52012.8 0 643978 48433.1 0 630166 44914.7 0 617387 41454.3 0 605623 38048.7 0 594861 34694.1 0 585083 31386.9 0 576277 28123 0 568430 24898.4 0 561531 21708.9 0 555571 18550.2 0 550540 15417.9 0 546432 12307.9 0 543239 9215.47 0 540959 6136.34 0 539586 3066.01 0 539120 0 0 1.02035e+06 116613 0 987422 112177 0 955798 107713 0 925483 103249 0 896470 98802.2 0 868745 94389.9 0 842293 90023.6 0 817097 85712.6 0 793137 81463.5 0 770392 77281.1 0 748842 73168.4 0 728465 69127 0 709239 65157.5 0 691142 61259.4 0 674153 57431.5 0 658252 53672 0 643419 49978.4 0 629635 46347.9 0 616882 42777.3 0 605143 39263.2 0 594402 35801.7 0 584644 32389 0 575856 29021 0 568026 25693.5 0 561141 22402.2 0 555193 19142.7 0 550172 15910.5 0 546072 12701 0 542886 9509.87 0 540610 6332.38 0 539240 3163.97 0 538775 0 0 1.01908e+06 120232 0 986201 115652 0 954628 111046 0 924365 106440 0 895402 101854 0 867728 97303.6 0 841325 92801.4 0 816177 88356.5 0 792264 83975.9 0 769564 79664.2 0 748057 75424.5 0 727720 71258.6 0 708533 67166.8 0 690473 63148.6 0 673519 59202.9 0 657650 55327.6 0 642848 51520.3 0 629092 47778 0 616365 44097.4 0 604650 40475 0 593932 36906.9 0 584194 33389 0 575424 29917.1 0 567610 26487 0 560739 23094.1 0 554803 19734 0 549793 16401.9 0 545701 13093.4 0 542522 9803.66 0 540251 6528.02 0 538884 3261.71 0 538419 0 0 1.0178e+06 123844 0 984964 119121 0 953443 114373 0 923231 109625 0 894320 104900 0 866695 100211 0 840343 95573.3 0 815243 90994.9 0 791376 86482.8 0 768721 82042.1 0 747257 77675.8 0 726962 73385.5 0 707814 69171.6 0 689790 65033.7 0 672871 60970.3 0 657036 56979.6 0 642264 53058.8 0 628537 49205 0 615836 45414.7 0 604146 41684.2 0 593449 38009.7 0 583732 34386.8 0 574980 30811.3 0 567182 27278.8 0 560326 23784.5 0 554402 20324 0 549403 16892.4 0 545319 13484.9 0 542147 10096.8 0 539880 6723.23 0 538516 3359.25 0 538052 0 0 1.0165e+06 127450 0 983712 122584 0 952242 117693 0 922082 112804 0 893222 107939 0 865649 103113 0 839345 98339.4 0 814294 93627.5 0 790474 88984.3 0 767865 84414.8 0 746444 79922.1 0 726190 75507.6 0 707081 71172 0 689095 66914.6 0 672211 62733.9 0 656408 58627.9 0 641667 54593.9 0 627969 50628.8 0 615295 46729 0 603629 42890.8 0 592955 39110.1 0 583258 35382.5 0 574525 31703.6 0 566743 28068.8 0 559901 24473.4 0 553990 20912.7 0 549001 17381.7 0 544926 13875.6 0 541760 10389.4 0 539498 6918.03 0 538137 3456.58 0 537674 0 0 1.01518e+06 131051 0 982444 126040 0 951025 121007 0 920917 115977 0 892109 110972 0 864587 106009 0 838334 101100 0 813331 96254.4 0 789558 91480.4 0 766994 86782.3 0 745617 82163.3 0 725404 77625.1 0 706335 73167.9 0 688386 68791.2 0 671537 64493.5 0 655768 60272.5 0 641058 56125.6 0 627389 52049.5 0 614742 48040.5 0 603100 44094.7 0 592449 40208 0 582773 36375.9 0 574058 32593.9 0 566292 28857.1 0 559465 25160.9 0 553567 21500.2 0 548588 17870 0 544522 14265.4 0 541363 10681.3 0 539105 7112.41 0 537747 3553.7 0 537285 0 0 1.01385e+06 134645 0 981161 129491 0 949793 124314 0 919737 119143 0 890981 113999 0 863510 108898 0 837307 103854 0 812353 98875.6 0 788628 93970.9 0 766109 89144.5 0 744776 84399.6 0 724605 79737.8 0 705575 75159.4 0 687664 70663.7 0 670851 66249.1 0 655115 61913.5 0 640436 57653.9 0 626796 53466.9 0 614176 49349 0 602560 45296 0 591931 41303.5 0 582275 37367.2 0 573579 33482.2 0 565830 29643.7 0 559018 25846.8 0 553132 22086.3 0 548164 18357.3 0 544106 14654.4 0 540954 10972.5 0 538702 7306.36 0 537346 3650.61 0 536885 0 0 1.0125e+06 138232 0 979862 132934 0 948546 127616 0 918542 122303 0 889837 117020 0 862418 111782 0 836265 106602 0 811361 101491 0 787683 96455.8 0 765210 91501.4 0 743921 86630.8 0 723792 81845.7 0 704802 77146.3 0 686929 72531.8 0 670152 68000.8 0 654449 63550.7 0 639802 59178.6 0 626191 54881.2 0 613598 50654.5 0 602007 46494.5 0 591401 42396.6 0 581766 38356.2 0 573089 34368.5 0 565357 30428.5 0 558559 26531.1 0 552686 22671.2 0 547728 18843.4 0 543680 15042.6 0 540534 11263.2 0 538286 7499.88 0 536934 3747.31 0 536474 0 0 1.01113e+06 141814 0 978547 136372 0 947283 130910 0 917331 125457 0 888679 120034 0 861311 114659 0 835209 109344 0 810354 104101 0 786724 98935.2 0 764298 93852.9 0 743052 88856.9 0 722966 83948.7 0 704016 79128.6 0 686181 74395.7 0 669440 69748.4 0 653771 65184.1 0 639155 60699.9 0 625574 56292.2 0 613008 51957.1 0 601442 47690.3 0 590859 43487.2 0 581245 39343 0 572587 35252.8 0 564872 31211.6 0 558089 27214 0 552228 23254.8 0 547282 19328.5 0 543242 15429.8 0 540103 11553.1 0 537860 7692.98 0 536511 3843.79 0 536052 0 0 1.00975e+06 145390 0 977216 139803 0 946004 134199 0 916105 128604 0 887505 123042 0 860189 117530 0 834138 112080 0 809333 106704 0 785751 101409 0 763371 96199.1 0 742170 91078 0 722126 86047 0 703217 81106.4 0 685420 76255.3 0 668715 71491.9 0 653080 66813.8 0 638496 62217.7 0 624944 57700 0 612406 53256.7 0 600865 48883.3 0 590306 44575.2 0 580713 40327.5 0 572074 36135.2 0 564375 31992.9 0 557607 27895.3 0 551759 23837 0 546824 19812.5 0 542793 15816.2 0 539661 11842.5 0 537423 7885.64 0 536077 3940.05 0 535619 0 0 1.00835e+06 148959 0 975869 143228 0 944709 137481 0 914863 131745 0 886316 126044 0 859052 120395 0 833052 114811 0 808297 109302 0 784763 103877 0 762430 98539.9 0 741274 93293.8 0 721273 88140.3 0 702404 83079.5 0 684646 78110.5 0 667977 73231.4 0 652376 68439.6 0 637824 63731.9 0 624302 59104.5 0 611792 54553.2 0 600277 50073.6 0 589740 45660.8 0 580169 41309.8 0 571549 37015.4 0 563867 32772.3 0 557114 28575 0 551279 24417.9 0 546355 20295.4 0 542333 16201.7 0 539208 12131.1 0 536975 8077.86 0 535631 4036.09 0 535175 0 0 1.00694e+06 152522 0 974507 146647 0 943399 140756 0 913606 134879 0 885112 129039 0 857900 123253 0 831952 117535 0 807246 111894 0 783761 106340 0 761475 100875 0 740364 95504.5 0 720406 90228.7 0 701578 85048 0 683858 79961.4 0 667226 74966.8 0 651660 70061.7 0 637140 65242.6 0 623648 60505.7 0 611166 55846.7 0 599676 51261.1 0 589163 46743.8 0 579613 42289.8 0 571012 37893.7 0 563348 33550 0 556610 29253.2 0 550788 24997.5 0 545874 20777.1 0 541861 16586.3 0 538743 12419.1 0 536516 8269.64 0 535175 4131.92 0 534719 0 0 1.00551e+06 156079 0 973128 150059 0 942074 144025 0 912333 138007 0 883892 132028 0 856733 126105 0 830837 120253 0 806182 114481 0 782745 108796 0 760506 103205 0 739440 97710 0 719525 92312.2 0 700738 87011.9 0 683058 81807.8 0 666462 76698.1 0 650931 71679.9 0 636444 66749.7 0 622982 61903.6 0 610527 57137.2 0 599063 52445.8 0 588574 47824.3 0 579045 43267.5 0 570464 38769.9 0 562817 34325.9 0 556094 29929.8 0 550286 25575.7 0 545383 21257.8 0 541379 16970 0 538268 12706.5 0 536045 8460.97 0 534708 4227.52 0 534253 0 0 1.00406e+06 159629 0 971734 153464 0 940732 147287 0 911045 141129 0 882658 135010 0 855552 128951 0 829707 122964 0 805102 117061 0 781715 111247 0 759523 105530 0 738503 99910.3 0 718631 94390.8 0 699886 88971 0 682244 83649.9 0 665686 78425.2 0 650189 73294.2 0 635734 68253.1 0 622303 63298.1 0 609876 58424.6 0 598438 53627.6 0 587973 48902.2 0 578466 44242.8 0 569904 39644 0 562275 35099.9 0 555567 30604.8 0 549772 26152.6 0 544880 21737.3 0 540885 17352.9 0 537781 12993.1 0 535564 8651.86 0 534229 4322.9 0 533776 0 0 1.0026e+06 163173 0 970324 156863 0 939375 150543 0 909741 144243 0 881408 137986 0 854355 131790 0 828562 125670 0 804009 119635 0 780671 113693 0 758526 107849 0 737551 102105 0 717723 96464.3 0 699020 90925.5 0 681418 85487.5 0 664896 80148.2 0 649435 74904.6 0 635013 69753 0 621612 64689.3 0 609214 59708.8 0 597802 54806.7 0 587361 49977.5 0 577875 45215.9 0 569333 40516 0 561721 35872.1 0 555029 31278.1 0 549247 26728.1 0 544366 22215.7 0 540381 17734.8 0 537284 13279.1 0 535071 8842.3 0 533740 4418.05 0 533287 0 0 1.00112e+06 166711 0 968897 160256 0 938002 153792 0 908422 147351 0 880143 140956 0 853143 134624 0 827403 128369 0 802900 122203 0 779612 116132 0 757515 110162 0 736586 104295 0 716802 98532.9 0 698140 92875.1 0 680578 87320.6 0 664094 81866.9 0 648668 76511 0 634279 71249.2 0 620908 66077.1 0 608539 60990 0 597153 55982.8 0 586736 51050.2 0 577273 46186.5 0 568750 41385.9 0 561156 36642.4 0 554479 31949.9 0 548710 27302.2 0 543841 22692.9 0 539865 18115.8 0 536775 13564.4 0 534568 9032.29 0 533239 4512.98 0 532788 0 0 999628 170242 0 967455 163641 0 936613 157035 0 907088 150453 0 878862 143918 0 851916 137450 0 826229 131062 0 801778 124765 0 778539 118566 0 756491 112470 0 735608 106479 0 715868 100596 0 697248 94820 0 679726 89149.2 0 663279 83581.4 0 647888 78113.6 0 633532 72741.7 0 620193 67461.4 0 607852 62268 0 596493 57156.1 0 586100 52120.3 0 576659 47154.8 0 568156 42253.7 0 560579 37410.9 0 553918 32620.1 0 548163 27874.9 0 543305 23169 0 539338 18495.9 0 536256 13849 0 534053 9221.81 0 532728 4607.68 0 532278 0 0 998117 173767 0 965996 167020 0 935208 160270 0 905738 153547 0 877567 146874 0 850675 140270 0 825040 133749 0 800641 127321 0 777452 120994 0 755452 114772 0 734616 108659 0 714920 102655 0 696342 96760.1 0 678860 90973.3 0 662451 85291.7 0 647096 79712.1 0 632773 74230.5 0 619465 68842.4 0 607153 63542.8 0 595821 58326.5 0 585452 53187.8 0 576033 48120.8 0 567550 43119.4 0 559991 38177.5 0 553346 33288.6 0 547604 28446.2 0 542758 23643.9 0 538800 18875.1 0 535725 14132.9 0 533528 9410.88 0 532206 4702.14 0 531756 0 0 996590 177285 0 964522 170393 0 933788 163499 0 904372 156635 0 876256 149824 0 849418 143084 0 823837 136429 0 799489 129871 0 776351 123416 0 754399 117068 0 733610 110832 0 713959 104708 0 695423 98695.4 0 677981 92792.8 0 661611 86997.7 0 646291 81306.6 0 632002 75715.6 0 618725 70219.9 0 606442 64814.5 0 595136 59494 0 584792 54252.6 0 575396 49084.3 0 566933 43982.9 0 559392 38942.1 0 552762 33955.4 0 547034 29016.1 0 542200 24117.7 0 538251 19253.3 0 535183 14416.2 0 532991 9599.48 0 531672 4796.38 0 531224 0 0 995046 180797 0 963031 173758 0 932351 166722 0 902991 159716 0 874929 152767 0 848146 145891 0 822619 139103 0 798323 132414 0 775236 125831 0 753333 119359 0 732590 113000 0 712984 106756 0 694491 100626 0 677090 94607.8 0 660758 88699.4 0 645474 82897.2 0 631219 77196.9 0 617973 71593.9 0 605719 66083 0 594440 60658.5 0 584121 55314.7 0 574747 50045.4 0 566304 44844.3 0 558781 39704.9 0 552167 34620.6 0 546453 29584.7 0 541630 24590.3 0 537691 19630.6 0 534631 14698.7 0 532444 9787.62 0 531128 4890.38 0 530681 0 0 993486 184302 0 961524 177117 0 930899 169937 0 901594 162791 0 873588 155703 0 846860 148691 0 821386 141771 0 797143 134952 0 774106 128241 0 752252 121644 0 731557 115163 0 711996 108799 0 693546 102551 0 676185 96418.1 0 659891 90396.7 0 644644 84483.6 0 630423 78674.5 0 617209 72964.4 0 604984 67348.2 0 593732 61820.1 0 583438 56374.2 0 574086 51004.1 0 565664 45703.5 0 558159 40465.8 0 551561 35284.1 0 545861 30151.7 0 541049 25061.7 0 537120 20006.9 0 534067 14980.5 0 531886 9975.28 0 530573 4984.15 0 530127 0 0 991909 187800 0 960001 180469 0 929431 173145 0 900182 165858 0 872231 158632 0 845558 151485 0 820138 144432 0 795948 137483 0 772962 130645 0 751158 123924 0 730510 117321 0 710994 110837 0 692587 104472 0 675268 98223.8 0 659013 92089.7 0 643801 86066 0 629614 80148.3 0 616432 74331.5 0 604237 68610.2 0 593013 62978.7 0 582743 57430.9 0 573414 51960.4 0 565012 46560.5 0 557526 41224.7 0 550944 35945.9 0 545257 30717.4 0 540458 25531.9 0 536538 20382.3 0 533492 15261.6 0 531316 10162.5 0 530007 5077.68 0 529562 0 0 990315 191292 0 958461 183815 0 927947 176347 0 898754 168919 0 870859 161554 0 844241 154272 0 818876 147087 0 794738 140008 0 771805 133043 0 750050 126197 0 729449 119472 0 709979 112869 0 691616 106387 0 674337 100025 0 658121 93778.4 0 642947 87644.3 0 628794 81618.2 0 615643 75694.9 0 603478 69869 0 592281 64134.4 0 582037 58484.9 0 572730 52914.1 0 564349 47415.3 0 556881 41981.7 0 550315 36606.1 0 544643 31281.6 0 539855 26000.9 0 535945 20756.8 0 532906 15542 0 530736 10349.2 0 529429 5170.98 0 528986 0 0 988705 194777 0 956906 187153 0 926448 179541 0 897310 171972 0 869472 164470 0 842910 157053 0 817599 149735 0 793515 142527 0 770633 135435 0 748927 128465 0 728375 121619 0 708950 114897 0 690631 108298 0 673394 101821 0 657217 95462.6 0 642079 89218.5 0 627961 83084.3 0 614843 77054.9 0 602707 71124.4 0 591538 65287 0 581318 59536.2 0 572035 53865.4 0 563675 48267.9 0 556225 42736.7 0 549676 37264.5 0 544017 31844.3 0 539241 26468.7 0 535340 21130.3 0 532310 15821.7 0 530144 10535.4 0 528841 5264.03 0 528399 0 0 987079 198254 0 955334 190484 0 924932 182729 0 895851 175019 0 868070 167379 0 841563 159827 0 816307 152377 0 792277 145039 0 769447 137821 0 747792 130727 0 727287 123759 0 707909 116919 0 689633 110204 0 672438 103613 0 656300 97142.4 0 641199 90788.5 0 627115 84546.6 0 614030 78411.2 0 601924 72376.6 0 590782 66436.6 0 580588 60584.7 0 571328 54814.3 0 562989 49118.3 0 555558 43489.7 0 549025 37921.2 0 543380 32405.6 0 538616 26935.2 0 534725 21502.8 0 531702 16100.6 0 529542 10721.2 0 528242 5356.85 0 527801 0 0 985436 201725 0 953746 193808 0 923400 185909 0 894376 178058 0 866652 170280 0 840202 162594 0 815001 155012 0 791024 147545 0 768246 140201 0 746642 132983 0 726186 125894 0 706854 118935 0 688622 112104 0 671468 105400 0 655370 98817.7 0 640307 92354.4 0 626258 86005 0 613205 79763.9 0 601129 73625.4 0 590015 67583.1 0 579847 61630.4 0 570610 55760.6 0 562291 49966.4 0 554879 44240.8 0 548362 38576.2 0 542732 32965.4 0 537980 27400.6 0 534099 21874.3 0 531083 16378.8 0 528929 10906.4 0 527633 5449.41 0 527192 0 0 983776 205189 0 952141 197125 0 921852 189082 0 892886 181091 0 865219 173175 0 838825 165354 0 813680 157640 0 789758 150045 0 767032 142574 0 745478 135233 0 725071 128024 0 705785 120947 0 687598 114000 0 670486 107182 0 654428 100488 0 639402 93916.1 0 625388 87459.4 0 612368 81113 0 600323 74870.9 0 589237 68726.6 0 579094 62673.4 0 569880 56704.4 0 561583 50812.3 0 554189 44989.8 0 547689 39229.5 0 542073 33523.7 0 537333 27864.7 0 533462 22244.9 0 530454 16656.3 0 528305 11091.2 0 527012 5541.74 0 526572 0 0 982099 208646 0 950520 200435 0 920289 192248 0 891380 184116 0 863770 176063 0 837434 168107 0 812344 160262 0 788476 152538 0 765804 144942 0 744301 137478 0 723942 130148 0 704704 122952 0 686561 115890 0 669492 108959 0 653473 102155 0 638485 95473.5 0 624506 88909.9 0 611518 82458.5 0 599504 76113 0 588446 69867 0 578329 63713.5 0 569139 57645.6 0 560862 51655.9 0 553488 45736.9 0 547004 39881 0 541403 34080.5 0 536675 28327.6 0 532814 22614.4 0 529813 16933 0 527670 11275.5 0 526380 5633.82 0 525942 0 0 980405 212096 0 948883 203738 0 918709 195407 0 889859 187134 0 862307 178944 0 836027 170853 0 810994 162877 0 787181 155024 0 764561 147303 0 743109 139716 0 722800 132266 0 703609 124953 0 685511 117776 0 668484 110731 0 652506 103817 0 637555 97026.7 0 623612 90356.5 0 610657 83800.3 0 598673 77351.7 0 587644 71004.2 0 577553 64750.8 0 568386 58584.3 0 560131 52497.2 0 552775 46481.9 0 546309 40530.7 0 540721 34635.8 0 536006 28789.2 0 532154 22983 0 529162 17209 0 527024 11459.3 0 525738 5725.65 0 525300 0 0 978695 215539 0 947229 207033 0 917113 198558 0 888321 190145 0 860828 181817 0 834606 173592 0 809629 165485 0 785871 157504 0 763305 149657 0 741904 141948 0 721645 134378 0 702500 126948 0 684448 119656 0 667463 112499 0 651525 105474 0 636613 98575.6 0 622705 91799.1 0 609784 85138.4 0 597831 78587.1 0 586830 72138.4 0 576765 65785.3 0 567622 59520.4 0 559388 53336.2 0 552052 47224.9 0 545602 41178.7 0 540029 35189.6 0 535325 29249.6 0 531484 23350.5 0 528500 17484.3 0 526367 11642.6 0 525084 5817.23 0 524648 0 0 976968 218974 0 945559 210322 0 915502 201702 0 886769 193149 0 859334 184683 0 833170 176325 0 808250 168086 0 784547 159978 0 762034 152006 0 740686 144174 0 720476 136485 0 701379 128938 0 683371 121531 0 666430 114262 0 650533 107126 0 635658 100120 0 621786 93237.7 0 608898 86472.8 0 596976 79819 0 586004 73269.4 0 575965 66816.9 0 566846 60453.9 0 558634 54172.9 0 551317 47965.8 0 544884 41824.9 0 539326 35741.9 0 534634 29708.7 0 530803 23717.1 0 527826 17758.8 0 525700 11825.4 0 524420 5908.56 0 523985 0 0 975224 222402 0 943873 213602 0 913874 204839 0 885200 196145 0 857824 187542 0 831718 179050 0 806856 170681 0 783208 162445 0 760750 154348 0 739453 146394 0 719293 138586 0 700244 130922 0 682282 123401 0 665384 116019 0 649527 108774 0 634691 101661 0 620855 94672.3 0 608001 87803.4 0 596110 81047.4 0 585166 74397.3 0 575154 67845.6 0 566059 61384.9 0 557869 55007.2 0 550570 48704.7 0 544154 42469.3 0 538611 36292.7 0 533932 30166.6 0 530111 24082.6 0 527142 18032.5 0 525021 12007.7 0 523745 5999.64 0 523311 0 0 </DataArray> 
</PointData> 
<Points> 
<DataArray type="Float32" NumberOfComponents="3"> 