<?xml version="1.0"?> 
<VTKFile type="StructuredGrid" version="0.1"> 
<StructuredGrid WholeExtent="0 31 0 31 0 0"> 
<Piece Extent="0 31 0 31 0 0"> 
<PointData>
<DataArray type="Float32" Name="|E|" format="ascii" NumberOfComponents="3"> 
757537 527406 0 728887 507857 0 701695 488544 0 675886 469470 0 651398 450637 0 628169 432045 0 606146 413691 0 585277 395570 0 565514 377677 0 546812 360003 0 529128 342540 0 512423 325278 0 496658 308205 0 481800 291310 0 467813 274579 0 454668 258000 0 442333 241557 0 430781 225236 0 419985 209022 0 409920 192899 0 400562 176849 0 391888 160857 0 383878 144904 0 376510 128973 0 369766 113046 0 363627 97102.4 0 358078 81124.2 0 353101 65091.3 0 348681 48983.4 0 344805 32779.8 0 341460 16459.3 0 338632 0 0 749351 536544 0 720904 516434 0 693911 496591 0 668297 477016 0 643999 457710 0 620957 438668 0 599114 419888 0 578420 401363 0 558825 383085 0 540285 365046 0 522757 347234 0 506201 329640 0 490580 312250 0 475857 295053 0 462000 278033 0 448978 261178 0 436759 244471 0 425316 227897 0 414623 211441 0 404654 195086 0 395385 178814 0 386794 162607 0 378859 146449 0 371561 130321 0 364880 114203 0 358798 98076.7 0 353299 81921.9 0 348366 65718.6 0 343985 49446.1 0 340141 33083.3 0 336821 16608.6 0 334012 0 0 740997 545604 0 712764 524936 0 685980 504566 0 660571 484493 0 636471 464715 0 613622 445228 0 591967 426025 0 571453 407098 0 552033 388439 0 533661 370036 0 516294 351879 0 499893 333955 0 484418 316252 0 469836 298755 0 456113 281449 0 443216 264320 0 431117 247352 0 419787 230528 0 409199 213832 0 399328 197247 0 390151 180755 0 381645 164337 0 373789 147976 0 366562 131652 0 359946 115347 0 353922 99039.1 0 348475 82709.9 0 343588 66338.2 0 339245 49903 0 335434 33383 0 332141 16756.1 0 329353 0 0 732476 554584 0 704468 533360 0 677903 512466 0 652707 491898 0 628815 471652 0 606167 451722 0 584706 432099 0 564380 412773 0 545141 393735 0 526942 374973 0 509741 356473 0 493498 338223 0 478176 320209 0 463738 302415 0 450151 284826 0 437385 267427 0 425408 250200 0 414193 233128 0 403713 216196 0 393944 199383 0 384861 182673 0 376442 166046 0 368666 149484 0 361512 132967 0 354963 116476 0 349000 99989.6 0 343606 83488 0 338765 66950 0 334464 50354.2 0 330686 33678.9 0 327421 16901.7 0 324654 0 0 723789 563480 0 696016 541703 0 669680 520288 0 644707 499229 0 621031 478518 0 598592 458148 0 577332 438108 0 557200 418388 0 538147 398975 0 520127 379855 0 503098 361016 0 487019 342443 0 471852 324121 0 457563 306033 0 444117 288164 0 431484 270496 0 419633 253013 0 408536 235697 0 398167 218530 0 388502 201493 0 379515 184567 0 371186 167734 0 363492 150974 0 356414 134266 0 349933 117591 0 344031 100928 0 338692 84256.1 0 333900 67553.9 0 329640 50799.5 0 325898 33970.9 0 322661 17045.4 0 319917 0 0 714936 572289 0 687410 549963 0 661314 528030 0 636573 506483 0 613121 485312 0 590898 464506 0 569847 444053 0 549915 423940 0 531055 404155 0 513219 384682 0 496366 365507 0 480455 346614 0 465449 327986 0 451312 309608 0 438011 291461 0 425514 273529 0 413792 255793 0 402817 238234 0 392562 220835 0 383002 203576 0 374115 186438 0 365877 169400 0 358267 152444 0 351266 135548 0 344856 118692 0 339018 101854 0 333735 85014.2 0 328993 68149.8 0 324776 51239 0 321070 34259.1 0 317863 17187.2 0 315142 0 0 705921 581008 0 678652 558136 0 652805 535691 0 628305 513659 0 605086 492031 0 583086 470792 0 562251 449930 0 542526 429429 0 523864 409275 0 506218 389452 0 489546 369944 0 473808 350734 0 458967 331805 0 444986 313139 0 431833 294718 0 419476 276523 0 407886 258537 0 397035 240739 0 386897 223111 0 377446 205632 0 368660 188284 0 360516 171045 0 352993 153895 0 346071 136813 0 339733 119777 0 333959 102768 0 328735 85762 0 324043 68737.7 0 319870 51672.4 0 316202 34543.3 0 313026 17327.1 0 310330 0 0 696743 589633 0 669743 566221 0 644155 543266 0 619905 520755 0 596926 498673 0 575159 477006 0 554545 455738 0 535034 434852 0 516576 414334 0 499125 394164 0 482640 374327 0 467079 354803 0 452406 335576 0 438586 316625 0 425585 297933 0 413372 279479 0 401917 261245 0 391193 243211 0 381174 225356 0 371835 207661 0 363152 190105 0 355104 172667 0 347669 155326 0 340829 138060 0 334564 120849 0 328857 103669 0 323691 86499.6 0 319052 69317.4 0 314925 52099.8 0 311296 34823.5 0 308152 17464.9 0 305480 0 0 687404 598161 0 660684 574213 0 635366 550754 0 611374 527767 0 588645 505237 0 567116 483145 0 546732 461475 0 527440 440210 0 509191 419330 0 491941 398818 0 475647 378654 0 460269 358821 0 445769 339298 0 432113 320066 0 419267 301105 0 407201 282396 0 395885 263918 0 385291 245650 0 375394 227572 0 366168 209663 0 357592 191902 0 349641 174267 0 342297 156737 0 335539 139290 0 329350 121905 0 323711 104558 0 318606 87226.7 0 314021 69888.9 0 309940 52521.2 0 306351 35099.8 0 303240 17600.8 0 300595 0 0 677907 606590 0 651477 582111 0 626438 558153 0 602714 534695 0 580242 511720 0 558959 489209 0 538811 467141 0 519745 445499 0 501712 424262 0 484668 403411 0 468570 382925 0 453378 362785 0 439056 342971 0 425568 323461 0 412881 304235 0 400965 285273 0 389791 266553 0 379330 248055 0 369557 229756 0 360448 211636 0 351979 193673 0 344129 175844 0 336877 158128 0 330204 140503 0 324091 122945 0 318522 105433 0 313480 87943.2 0 308950 70452.1 0 304917 52936.3 0 301368 35371.9 0 298291 17734.7 0 295673 0 0 668252 614916 0 642124 589912 0 617373 565459 0 593926 541536 0 571719 518122 0 550690 495194 0 530784 472734 0 511950 450719 0 494139 429129 0 477306 407943 0 461409 387139 0 446408 366696 0 432268 346593 0 418951 326809 0 406428 307322 0 394665 288110 0 383635 269152 0 373310 250426 0 363664 231910 0 354674 213581 0 346316 195418 0 338568 177399 0 331410 159499 0 324823 141698 0 318790 123971 0 313292 106296 0 308313 88649.1 0 303839 71006.8 0 299855 53345.2 0 296349 35640 0 293306 17866.6 0 290716 0 0 658443 623138 0 632626 597614 0 608174 572672 0 585012 548288 0 563078 524439 0 542310 501101 0 522654 478252 0 504058 455869 0 486473 433930 0 469857 412412 0 454165 391294 0 439360 370552 0 425405 350165 0 412265 330109 0 399907 310364 0 388301 290906 0 377419 271713 0 367233 252762 0 357717 234032 0 348847 215498 0 340602 197138 0 332958 178930 0 325897 160850 0 319398 142874 0 313445 124981 0 308019 107145 0 303106 89344.1 0 298690 71553 0 294756 53747.8 0 291293 35903.9 0 288286 17996.4 0 285725 0 0 648480 631250 0 622986 605213 0 598841 579788 0 575974 554949 0 554320 530670 0 533820 506926 0 514420 483693 0 496068 460947 0 478716 438663 0 462321 416819 0 446840 395389 0 432235 374352 0 418470 353684 0 405509 333362 0 393321 313362 0 381875 293661 0 371143 274236 0 361098 255064 0 351715 236121 0 342969 217385 0 334838 198831 0 327301 180437 0 320338 162179 0 313929 144033 0 308058 125975 0 302707 107982 0 297860 90028.3 0 293502 72090.7 0 289620 54144.1 0 286200 36163.6 0 283231 18124.1 0 280700 0 0 638367 639252 0 613204 612708 0 589377 586806 0 566812 561517 0 545447 536814 0 525222 512669 0 506085 489057 0 487983 465952 0 470869 443328 0 454700 421160 0 439435 399425 0 425034 378097 0 411462 357152 0 398685 336565 0 386670 316314 0 375388 296374 0 364809 276720 0 354908 257330 0 345660 238179 0 337040 219243 0 329026 200498 0 321598 181921 0 314734 163488 0 308417 145173 0 302629 126954 0 297354 108805 0 292574 90701.5 0 288277 72619.6 0 284448 54533.9 0 281073 36419.2 0 278142 18249.8 0 275641 0 0 628104 647140 0 603284 620095 0 579783 593722 0 557529 567990 0 536460 542868 0 516518 518328 0 497649 494342 0 479803 470882 0 462933 447923 0 446996 425437 0 431951 403399 0 417759 381784 0 404384 360565 0 391794 339719 0 379955 319220 0 368839 299044 0 358417 279165 0 348663 259560 0 339552 240203 0 331061 221071 0 323166 202138 0 315848 183381 0 309086 164775 0 302863 146295 0 297160 127916 0 291961 109614 0 287251 91363.5 0 283015 73139.8 0 279239 54917.3 0 275911 36670.4 0 273018 18373.4 0 270549 0 0 617695 654912 0 593228 627374 0 570062 600536 0 548126 574366 0 527361 548831 0 507708 523901 0 489115 499546 0 471531 475737 0 454910 452447 0 439209 429647 0 424388 407311 0 410409 385413 0 397236 363925 0 384836 342823 0 373178 322080 0 362231 301671 0 351969 281571 0 342364 261754 0 333393 242195 0 325032 222869 0 317259 203751 0 310053 184817 0 303395 166041 0 297267 147397 0 291650 128862 0 286530 110410 0 281891 92014.4 0 277717 73651.1 0 273996 55294.1 0 270715 36917.4 0 267862 18494.8 0 265425 0 0 607142 662564 0 583037 634540 0 560214 607245 0 538606 580643 0 518152 554701 0 498796 529387 0 480483 504668 0 463167 480515 0 446800 456899 0 431341 433790 0 416749 411160 0 402987 388983 0 390020 367230 0 377814 345876 0 366339 324893 0 355565 304255 0 345465 283936 0 336012 263910 0 327183 244153 0 318955 224637 0 311305 205337 0 304214 186228 0 297661 167285 0 291630 148481 0 286102 129792 0 281061 111191 0 276493 92653.9 0 272383 74153.5 0 268718 55664.3 0 265486 37160 0 262673 18614.1 0 260270 0 0 596448 670095 0 572713 641592 0 550244 613846 0 528971 586820 0 508835 560477 0 489781 534784 0 471756 509707 0 454713 485215 0 438606 461277 0 423393 437864 0 409035 414945 0 395494 392493 0 382736 370480 0 370728 348877 0 359439 327657 0 348840 306794 0 338905 286261 0 329608 266030 0 320924 246076 0 312830 226373 0 305306 206895 0 298331 187615 0 291885 168507 0 285952 149546 0 280514 130705 0 275555 111959 0 271060 93282 0 267015 74646.9 0 263407 56027.8 0 260223 37398.2 0 257453 18731.3 0 255083 0 0 585613 677502 0 562260 648528 0 540151 620339 0 519221 592894 0 499411 566157 0 480666 540091 0 462935 514661 0 446171 489836 0 430329 465582 0 415367 441868 0 401246 418665 0 387931 395943 0 375385 373673 0 363578 351826 0 352479 330374 0 342060 309289 0 332292 288544 0 323152 268112 0 314615 247966 0 306659 228079 0 299262 208425 0 292405 188976 0 286069 169707 0 280235 150591 0 274888 131602 0 270012 112713 0 265591 93898.5 0 261612 75131.2 0 258062 56384.7 0 254929 37632 0 252201 18846.2 0 249866 0 0 574643 684782 0 551679 655345 0 529940 626720 0 509360 598864 0 489882 571739 0 471453 545306 0 454022 519530 0 437542 494376 0 421969 469811 0 407263 445803 0 393385 422320 0 380298 399332 0 367970 376809 0 356367 354722 0 345461 333041 0 335223 311739 0 325626 290786 0 316646 270156 0 308258 249821 0 300442 229753 0 293174 209926 0 286437 190312 0 280212 170884 0 274480 151617 0 269226 132482 0 264433 113453 0 260088 94503.4 0 256176 75606.3 0 252685 56734.7 0 249603 37861.4 0 246918 18959 0 244619 0 0 563538 691933 0 540972 662041 0 519611 632988 0 499389 604728 0 480251 577222 0 462143 550428 0 445017 524311 0 428827 498834 0 413529 473964 0 399083 449666 0 385451 425908 0 372598 402659 0 360490 379888 0 349096 357564 0 338386 335659 0 328332 314143 0 318908 292987 0 310090 272162 0 301855 251641 0 294179 231396 0 287044 211399 0 280429 191623 0 274315 172040 0 268686 152623 0 263526 133345 0 258819 114178 0 254551 95096.6 0 250707 76072.2 0 247277 57078 0 244246 38086.3 0 241605 19069.6 0 239343 0 0 552301 698953 0 530143 668615 0 509167 639141 0 489310 610485 0 470518 582604 0 452739 555456 0 435924 529004 0 420029 503210 0 405010 478039 0 390829 453456 0 377448 429428 0 364832 405923 0 352948 382908 0 341765 360353 0 331254 338227 0 321387 316501 0 312140 295144 0 303487 274129 0 295405 253426 0 287873 233007 0 280871 212843 0 274379 192908 0 268380 173172 0 262856 153609 0 257791 134190 0 253171 114889 0 248980 95677.9 0 245206 76528.8 0 241837 57414.3 0 238859 38306.6 0 236263 19177.9 0 234038 0 0 540936 705840 0 519194 675065 0 498610 645178 0 479126 616132 0 460686 587883 0 443241 560388 0 426743 533607 0 411148 507502 0 396414 482036 0 382502 457174 0 369376 432881 0 357000 409123 0 345344 385869 0 334375 363087 0 324067 340745 0 314390 318812 0 305321 297259 0 296835 276057 0 288910 255175 0 281524 234585 0 274657 214258 0 268291 194166 0 262407 174281 0 256989 154575 0 252021 135019 0 247489 115586 0 243377 96247.3 0 239674 76976 0 236366 57743.7 0 233443 38522.5 0 230892 19284 0 228705 0 0 529446 712591 0 508126 681387 0 487943 651096 0 468838 621669 0 450757 593059 0 433652 565223 0 417477 538120 0 402187 511709 0 387742 485954 0 374103 460817 0 361236 436264 0 349105 412260 0 337679 388771 0 326929 365765 0 316825 343211 0 307342 321076 0 298454 299331 0 290137 277945 0 282370 256888 0 275132 236130 0 268402 215644 0 262163 195399 0 256397 175367 0 251087 155520 0 246217 135830 0 241773 116267 0 237742 96804.7 0 234110 77413.7 0 230866 58066.1 0 227997 38733.7 0 225493 19387.8 0 223344 0 0 517832 719205 0 496944 687582 0 477169 656895 0 458449 627093 0 440734 598130 0 423974 569960 0 408126 542540 0 393146 515830 0 378995 489791 0 365635 464386 0 353030 439577 0 341147 415331 0 329956 391612 0 319426 368388 0 309531 345625 0 300243 323293 0 291538 301359 0 283394 279793 0 275787 258564 0 268699 237643 0 262108 217000 0 255998 196605 0 250350 176430 0 245149 156446 0 240379 136623 0 236026 116934 0 232076 97349.9 0 228517 77841.8 0 225337 58381.5 0 222523 38940.3 0 220067 19489.4 0 217957 0 0 506097 725680 0 485648 693646 0 466288 662571 0 447961 632404 0 430617 603094 0 414209 574597 0 398694 546867 0 384029 519864 0 370176 493548 0 357097 467879 0 344759 442820 0 333128 418337 0 322175 394393 0 311869 370954 0 302184 347988 0 293095 325462 0 284576 303343 0 276606 281601 0 269162 260204 0 262225 239123 0 255776 218326 0 249796 197785 0 244269 177470 0 239178 157351 0 234509 137399 0 230247 117586 0 226380 97882.9 0 222894 78260.4 0 219779 58689.8 0 217022 39142.2 0 214614 19588.7 0 212544 0 0 494246 732013 0 474243 699578 0 455304 668125 0 437376 637599 0 420409 607951 0 404358 579133 0 389181 551100 0 374836 523810 0 361285 497222 0 348493 471295 0 336425 445992 0 325050 421276 0 314337 397111 0 304258 373463 0 294787 350298 0 285899 327582 0 277568 305282 0 269774 283368 0 262496 261807 0 255712 240569 0 249406 219622 0 243558 198938 0 238152 178485 0 233173 158235 0 228607 138157 0 224438 118223 0 220654 98403.7 0 217243 78669.3 0 214193 58990.9 0 211494 39339.4 0 209135 19685.6 0 207106 0 0 482280 738203 0 462730 705377 0 444220 673553 0 426696 642677 0 410112 612698 0 394424 583567 0 379589 555238 0 365569 527667 0 352325 500812 0 339823 474633 0 328029 449091 0 316912 424148 0 306444 399768 0 296595 375915 0 287341 352554 0 278655 329653 0 270516 307177 0 262901 285094 0 255789 263372 0 249161 241981 0 242998 220888 0 237284 200063 0 232002 179477 0 227137 159098 0 222673 138897 0 218598 118845 0 214899 98912 0 211564 79068.4 0 208581 59284.9 0 205939 39532 0 203630 19780.2 0 201642 0 0 470202 744249 0 451113 711040 0 433037 678855 0 415924 647638 0 399729 617335 0 384408 587898 0 369921 559280 0 356229 531434 0 343297 504319 0 331088 477894 0 319572 452118 0 308718 426953 0 298497 402362 0 288881 378308 0 279846 354757 0 271366 331674 0 263420 309026 0 255985 286779 0 249042 264900 0 242572 243359 0 236555 222123 0 230976 201162 0 225819 180444 0 221068 159940 0 216709 139619 0 212730 119452 0 209116 99407.9 0 205857 79457.7 0 202942 59571.6 0 200359 39719.7 0 198100 19872.5 0 196155 0 0 458016 750148 0 439394 716567 0 421759 684030 0 405062 652479 0 389261 621861 0 374313 592125 0 360178 563224 0 346820 535110 0 334202 507742 0 322292 481075 0 311057 455071 0 300468 429689 0 290497 404892 0 281117 380643 0 272304 356906 0 264032 333646 0 256281 310829 0 249030 288422 0 242257 266390 0 235946 244703 0 230077 223327 0 224635 202232 0 219604 181387 0 214969 160761 0 210716 140323 0 206833 120043 0 203306 99891.2 0 200124 79837.1 0 197277 59851 0 194754 39902.7 0 192546 19962.4 0 190643 0 0 445725 755900 0 427576 721956 0 410387 689075 0 394113 657200 0 378711 626274 0 364140 596247 0 350362 567069 0 337342 538695 0 325043 511078 0 313434 484177 0 302484 457950 0 292164 432357 0 282446 407359 0 273305 382919 0 264715 359001 0 256655 335568 0 249102 312587 0 242035 290022 0 235435 267842 0 229284 246012 0 223565 224500 0 218261 203276 0 213358 182306 0 208840 161561 0 204694 141009 0 200908 120619 0 197469 100362 0 194365 80206.6 0 191588 60123 0 189125 40080.9 0 186969 20050 0 185109 0 0 433329 761504 0 415662 727205 0 398925 693991 0 383078 661798 0 368080 630573 0 353892 600262 0 340476 570816 0 327796 542186 0 315821 514328 0 304517 487198 0 293855 460754 0 283807 434954 0 274345 409761 0 265445 385135 0 257082 361040 0 249235 337439 0 241881 314298 0 235001 291581 0 228576 269255 0 222588 247286 0 217020 225642 0 211856 204291 0 207081 183200 0 202682 162339 0 198644 141676 0 194956 121180 0 191606 100820 0 188582 80566.1 0 185874 60387.7 0 183473 40254.3 0 181369 20135.2 0 179553 0 0 </DataArray> 
</PointData> 
<Points> 
<DataArray type="Float32" NumberOfComponents="3"> 