<?xml version="1.0"?> 
<VTKFile type="StructuredGrid" version="0.1"> 
<StructuredGrid WholeExtent="0 31 0 31 0 0"> 
<Piece Extent="0 31 0 31 0 0"> 
<PointData>
<DataArray type="Float32" Name="|E|" format="ascii" NumberOfComponents="3"> 
3.29602e+06 -1.36525e+06 0 3.44682e+06 -603173 0 3.32265e+06 -114986 0 3.13746e+06 223100 0 2.9313e+06 454227 0 2.73233e+06 610334 0 2.5484e+06 714754 0 2.38204e+06 783432 0 2.23255e+06 827272 0 2.09824e+06 853622 0 1.97716e+06 867483 0 1.86748e+06 872297 0 1.76761e+06 870469 0 1.67618e+06 863710 0 1.59206e+06 853260 0 1.51431e+06 840030 0 1.44215e+06 824700 0 1.37493e+06 807786 0 1.31211e+06 789685 0 1.25325e+06 770703 0 1.19794e+06 751081 0 1.14589e+06 731007 0 1.0968e+06 710632 0 1.05043e+06 690077 0 1.00659e+06 669437 0 965090 648788 0 925773 628193 0 888499 607700 0 853145 587347 0 819597 567166 0 787758 547179 0 757530 527406 0 3.46471e+06 -1.31662e+06 0 3.52787e+06 -541664 0 3.36966e+06 -48037 0 3.16113e+06 285758 0 2.94078e+06 509807 0 2.73287e+06 658684 0 2.54342e+06 756608 0 2.37369e+06 819797 0 2.22214e+06 859109 0 2.08659e+06 881758 0 1.9648e+06 892594 0 1.85475e+06 894926 0 1.75472e+06 891049 0 1.66328e+06 882588 0 1.57925e+06 870714 0 1.50165e+06 856283 0 1.42969e+06 839934 0 1.3627e+06 822151 0 1.30014e+06 803301 0 1.24154e+06 783673 0 1.18653e+06 763487 0 1.13477e+06 742921 0 1.08598e+06 722113 0 1.03991e+06 701174 0 996377 680193 0 955180 659239 0 916163 638370 0 879187 617629 0 844124 597052 0 810863 576665 0 779302 556491 0 749346 536543 0 3.62515e+06 -1.25554e+06 0 3.60837e+06 -472980 0 3.41498e+06 22225.8 0 3.18327e+06 350120 0 2.94901e+06 566239 0 2.73246e+06 707413 0 2.53777e+06 798602 0 2.36485e+06 856191 0 2.2114e+06 890931 0 2.07474e+06 909869 0 1.95231e+06 917686 0 1.84194e+06 917546 0 1.74179e+06 911633 0 1.65036e+06 901481 0 1.56642e+06 888190 0 1.48898e+06 872564 0 1.41722e+06 855200 0 1.35047e+06 836546 0 1.28816e+06 816948 0 1.22983e+06 796669 0 1.17509e+06 775915 0 1.12361e+06 754850 0 1.07511e+06 733602 0 1.02934e+06 712272 0 986091 690940 0 945183 669672 0 906454 648519 0 869760 627520 0 834976 606708 0 801986 586107 0 770690 565734 0 740991 545604 0 3.77874e+06 -1.18334e+06 0 3.68768e+06 -397751 0 3.45846e+06 95668.7 0 3.20387e+06 416116 0 2.95599e+06 623470 0 2.73112e+06 756487 0 2.53146e+06 840718 0 2.35558e+06 892605 0 2.20037e+06 922737 0 2.06269e+06 937956 0 1.93971e+06 942760 0 1.82907e+06 940162 0 1.72883e+06 932224 0 1.63743e+06 920391 0 1.5536e+06 905691 0 1.47632e+06 888876 0 1.40476e+06 870498 0 1.33823e+06 850975 0 1.27617e+06 830625 0 1.2181e+06 809692 0 1.16363e+06 788366 0 1.11242e+06 766795 0 1.0642e+06 745099 0 1.0187e+06 723368 0 975734 701678 0 935102 680086 0 896646 658639 0 860221 637372 0 825701 616315 0 792969 595488 0 761924 574907 0 732468 554584 0 3.92642e+06 -1.10096e+06 0 3.76532e+06 -316434 0 3.50001e+06 172176 0 3.22289e+06 483676 0 2.96172e+06 681448 0 2.72887e+06 805875 0 2.52453e+06 882937 0 2.34589e+06 929030 0 2.18908e+06 954522 0 2.05048e+06 966020 0 1.92701e+06 967820 0 1.81614e+06 962775 0 1.71585e+06 952825 0 1.62449e+06 939321 0 1.54079e+06 923220 0 1.46368e+06 905219 0 1.39232e+06 885831 0 1.32601e+06 865438 0 1.26419e+06 844334 0 1.20637e+06 822743 0 1.15215e+06 800837 0 1.10121e+06 778755 0 1.05324e+06 756602 0 1.00801e+06 734463 0 965307 712404 0 924938 690479 0 886740 668727 0 850570 647183 0 816300 625870 0 783812 604807 0 753005 584007 0 723779 563480 0 4.06885e+06 -1.00913e+06 0 3.84093e+06 -229409 0 3.53954e+06 251635 0 3.24027e+06 552733 0 2.9662e+06 740126 0 2.72574e+06 855545 0 2.517e+06 925243 0 2.33581e+06 965461 0 2.17754e+06 986286 0 2.03814e+06 994062 0 1.91425e+06 992868 0 1.80319e+06 985389 0 1.70286e+06 973439 0 1.61158e+06 958273 0 1.528e+06 940779 0 1.45106e+06 921597 0 1.3799e+06 901199 0 1.31381e+06 879936 0 1.25221e+06 858075 0 1.19463e+06 835821 0 1.14066e+06 813331 0 1.08996e+06 790729 0 1.04225e+06 768112 0 997271 745555 0 954814 723118 0 914692 700849 0 876739 678783 0 840809 656950 0 806774 635370 0 774517 614060 0 743933 593030 0 714926 572289 0 4.20644e+06 -908404 0 3.91426e+06 -136979 0 3.57696e+06 333947 0 3.256e+06 623222 0 2.96943e+06 799455 0 2.72176e+06 905471 0 2.5089e+06 967622 0 2.32538e+06 1.00189e+06 0 2.16579e+06 1.01803e+06 0 2.02567e+06 1.02208e+06 0 1.90142e+06 1.01791e+06 0 1.79023e+06 1.00801e+06 0 1.68989e+06 994069 0 1.59869e+06 977252 0 1.51524e+06 958370 0 1.43847e+06 938011 0 1.36751e+06 916605 0 1.30163e+06 894470 0 1.24025e+06 871849 0 1.1829e+06 848927 0 1.12916e+06 825846 0 1.0787e+06 802717 0 1.03122e+06 779627 0 986478 756643 0 944257 733819 0 904367 711196 0 866643 688805 0 830940 666671 0 797126 644814 0 765085 623245 0 734712 601974 0 705908 581007 0 4.33949e+06 -799219 0 3.98509e+06 -39393.9 0 3.6122e+06 419021 0 3.27003e+06 695081 0 2.97143e+06 859393 0 2.71693e+06 955626 0 2.50027e+06 1.01006e+06 0 2.31461e+06 1.03831e+06 0 2.15386e+06 1.04975e+06 0 2.01311e+06 1.05009e+06 0 1.88857e+06 1.04294e+06 0 1.77727e+06 1.03063e+06 0 1.67695e+06 1.01472e+06 0 1.58584e+06 996260 0 1.50253e+06 975997 0 1.42593e+06 954464 0 1.35515e+06 932050 0 1.28947e+06 909041 0 1.22831e+06 885657 0 1.17117e+06 862062 0 1.11765e+06 838384 0 1.06741e+06 814720 0 1.02016e+06 791148 0 975638 767728 0 933636 744506 0 893964 721517 0 856455 698790 0 820963 676346 0 787356 654199 0 755518 632360 0 725341 610837 0 696728 589632 0 4.46817e+06 -681935 0 4.05327e+06 63149 0 3.6452e+06 506778 0 3.28233e+06 768250 0 2.97219e+06 919897 0 2.7113e+06 1.00599e+06 0 2.49113e+06 1.05255e+06 0 2.30355e+06 1.07473e+06 0 2.14175e+06 1.08145e+06 0 2.00048e+06 1.07808e+06 0 1.87569e+06 1.06797e+06 0 1.76433e+06 1.05327e+06 0 1.66405e+06 1.03539e+06 0 1.57303e+06 1.0153e+06 0 1.48987e+06 993662 0 1.41344e+06 970958 0 1.34284e+06 947536 0 1.27736e+06 923652 0 1.21639e+06 899500 0 1.15946e+06 875227 0 1.10615e+06 850943 0 1.05611e+06 826737 0 1.00907e+06 802675 0 964752 778808 0 922955 755177 0 883486 731813 0 846177 708739 0 810881 685971 0 777467 663524 0 745816 641403 0 715823 619615 0 687388 598161 0 4.59261e+06 -556852 0 4.11869e+06 170494 0 3.67588e+06 597148 0 3.29286e+06 842672 0 2.97173e+06 980926 0 2.70488e+06 1.05653e+06 0 2.4815e+06 1.09508e+06 0 2.2922e+06 1.11114e+06 0 2.12951e+06 1.11313e+06 0 1.98779e+06 1.10606e+06 0 1.86282e+06 1.09301e+06 0 1.75143e+06 1.07593e+06 0 1.6512e+06 1.0561e+06 0 1.56029e+06 1.03438e+06 0 1.47727e+06 1.01137e+06 0 1.401e+06 987496 0 1.33058e+06 963066 0 1.26528e+06 938304 0 1.20451e+06 913380 0 1.14776e+06 888422 0 1.09464e+06 863526 0 1.0448e+06 838769 0 997946 814206 0 953824 789883 0 912216 765833 0 872934 742082 0 835810 718648 0 800696 695546 0 767460 672785 0 735983 650371 0 706159 628306 0 677889 606590 0 4.71289e+06 -424231 0 4.18123e+06 282528 0 3.70415e+06 690075 0 3.30161e+06 918292 0 2.97006e+06 1.04244e+06 0 2.69769e+06 1.10724e+06 0 2.47142e+06 1.13764e+06 0 2.28061e+06 1.14753e+06 0 2.11715e+06 1.1448e+06 0 1.97507e+06 1.13404e+06 0 1.84997e+06 1.11806e+06 0 1.73857e+06 1.09861e+06 0 1.63842e+06 1.07683e+06 0 1.54763e+06 1.0535e+06 0 1.46475e+06 1.02912e+06 0 1.38864e+06 1.00408e+06 0 1.31838e+06 978641 0 1.25325e+06 952999 0 1.19265e+06 927298 0 1.13609e+06 901648 0 1.08315e+06 876133 0 1.03348e+06 850815 0 986803 825742 0 942855 800952 0 901422 776472 0 862311 752322 0 825356 728518 0 790409 705069 0 757336 681983 0 726019 659262 0 696352 636906 0 668233 614916 0 4.82908e+06 -284295 0 4.24082e+06 399174 0 3.72993e+06 785508 0 3.30852e+06 995056 0 2.96718e+06 1.10441e+06 0 2.68976e+06 1.15809e+06 0 2.46092e+06 1.18022e+06 0 2.2688e+06 1.18391e+06 0 2.1047e+06 1.17645e+06 0 1.96234e+06 1.16202e+06 0 1.83715e+06 1.14312e+06 0 1.72578e+06 1.12132e+06 0 1.62571e+06 1.09761e+06 0 1.53504e+06 1.07266e+06 0 1.4523e+06 1.04692e+06 0 1.37634e+06 1.02072e+06 0 1.30625e+06 994265 0 1.24128e+06 967738 0 1.18084e+06 941255 0 1.12444e+06 914908 0 1.07166e+06 888764 0 1.02216e+06 862877 0 975638 837284 0 931850 812016 0 890575 787094 0 851620 762534 0 814819 738347 0 780023 714539 0 747099 691114 0 715927 668073 0 686402 645415 0 658421 623137 0 4.94127e+06 -137239 0 4.29738e+06 520396 0 3.75313e+06 883408 0 3.31358e+06 1.07291e+06 0 2.9631e+06 1.1668e+06 0 2.68112e+06 1.20906e+06 0 2.45001e+06 1.22282e+06 0 2.25678e+06 1.22029e+06 0 2.09217e+06 1.2081e+06 0 1.94961e+06 1.19e+06 0 1.82438e+06 1.1682e+06 0 1.71306e+06 1.14406e+06 0 1.61309e+06 1.11843e+06 0 1.52255e+06 1.09187e+06 0 1.43995e+06 1.06477e+06 0 1.36413e+06 1.0374e+06 0 1.29418e+06 1.00994e+06 0 1.22937e+06 982524 0 1.16907e+06 955253 0 1.11282e+06 928201 0 1.06019e+06 901421 0 1.01083e+06 874954 0 964456 848832 0 920811 823075 0 879677 797699 0 840862 772716 0 804200 748133 0 769539 723953 0 736749 700176 0 705709 676803 0 676312 653829 0 648457 631250 0 5.04958e+06 16778.1 0 4.35082e+06 646198 0 3.77363e+06 983742 0 3.31673e+06 1.15181e+06 0 2.95783e+06 1.22956e+06 0 2.67177e+06 1.26015e+06 0 2.43872e+06 1.26544e+06 0 2.24459e+06 1.25665e+06 0 2.07959e+06 1.23974e+06 0 1.9369e+06 1.21799e+06 0 1.81168e+06 1.19331e+06 0 1.70043e+06 1.16684e+06 0 1.60057e+06 1.13929e+06 0 1.51016e+06 1.11114e+06 0 1.42769e+06 1.08268e+06 0 1.35201e+06 1.05414e+06 0 1.2822e+06 1.02567e+06 0 1.21752e+06 997359 0 1.15736e+06 969295 0 1.10124e+06 941529 0 1.04873e+06 914104 0 999506 887049 0 953260 860385 0 909741 834127 0 868732 808286 0 830041 782868 0 793501 757876 0 758961 733310 0 726290 709169 0 695367 685449 0 666085 662146 0 638342 639252 0 5.15416e+06 177630 0 4.40106e+06 776632 0 3.7913e+06 1.08648e+06 0 3.31795e+06 1.23169e+06 0 2.95137e+06 1.29268e+06 0 2.66175e+06 1.31133e+06 0 2.42708e+06 1.30806e+06 0 2.23224e+06 1.29301e+06 0 2.06697e+06 1.27139e+06 0 1.92423e+06 1.24601e+06 0 1.79906e+06 1.21845e+06 0 1.68791e+06 1.18966e+06 0 1.58817e+06 1.1602e+06 0 1.49788e+06 1.13046e+06 0 1.41554e+06 1.10065e+06 0 1.33999e+06 1.07095e+06 0 1.2703e+06 1.04145e+06 0 1.20574e+06 1.01225e+06 0 1.1457e+06 983380 0 1.08969e+06 954894 0 1.0373e+06 926814 0 988188 899160 0 942052 871944 0 898643 845174 0 857742 818856 0 819159 792990 0 782725 767575 0 748290 742611 0 715723 718091 0 684903 694010 0 655721 670363 0 628078 647140 0 5.25524e+06 345237 0 4.448e+06 911794 0 3.806e+06 1.19161e+06 0 3.31718e+06 1.3125e+06 0 2.94372e+06 1.3561e+06 0 2.65106e+06 1.36259e+06 0 2.41511e+06 1.3507e+06 0 2.21976e+06 1.32937e+06 0 2.05434e+06 1.30305e+06 0 1.91161e+06 1.27404e+06 0 1.78652e+06 1.24362e+06 0 1.67549e+06 1.21253e+06 0 1.57588e+06 1.18118e+06 0 1.48572e+06 1.14984e+06 0 1.4035e+06 1.11868e+06 0 1.32807e+06 1.08781e+06 0 1.25849e+06 1.0573e+06 0 1.19404e+06 1.02719e+06 0 1.1341e+06 997513 0 1.07819e+06 968298 0 1.0259e+06 939554 0 976880 911290 0 930837 883510 0 887520 856216 0 846711 829407 0 808218 803079 0 771874 777230 0 737529 751852 0 705051 726939 0 674319 702484 0 645225 678478 0 617667 654911 0 5.35313e+06 519575 0 4.4915e+06 1.05184e+06 0 3.81754e+06 1.2991e+06 0 3.31437e+06 1.39419e+06 0 2.93488e+06 1.41981e+06 0 2.63973e+06 1.41391e+06 0 2.40282e+06 1.39334e+06 0 2.20715e+06 1.36573e+06 0 2.0417e+06 1.33471e+06 0 1.89905e+06 1.3021e+06 0 1.7741e+06 1.26884e+06 0 1.6632e+06 1.23545e+06 0 1.56373e+06 1.20221e+06 0 1.47369e+06 1.16929e+06 0 1.39159e+06 1.13678e+06 0 1.31626e+06 1.10474e+06 0 1.24678e+06 1.0732e+06 0 1.18242e+06 1.04218e+06 0 1.12257e+06 1.01169e+06 0 1.06674e+06 981741 0 1.01453e+06 952323 0 965585 923439 0 919618 895084 0 876376 867253 0 835640 839940 0 797222 813138 0 760952 786838 0 726681 761033 0 694276 735713 0 663617 710869 0 634597 686489 0 607112 662564 0 5.44826e+06 700694 0 4.53139e+06 1.19699e+06 0 3.82573e+06 1.40892e+06 0 3.30949e+06 1.47669e+06 0 2.92485e+06 1.48376e+06 0 2.62777e+06 1.46528e+06 0 2.39023e+06 1.43598e+06 0 2.19444e+06 1.40209e+06 0 2.02907e+06 1.3664e+06 0 1.88657e+06 1.3302e+06 0 1.76178e+06 1.29411e+06 0 1.65105e+06 1.25843e+06 0 1.55171e+06 1.22331e+06 0 1.46179e+06 1.18881e+06 0 1.3798e+06 1.15495e+06 0 1.30457e+06 1.12174e+06 0 1.23517e+06 1.08917e+06 0 1.17088e+06 1.05724e+06 0 1.1111e+06 1.02593e+06 0 1.05534e+06 995226 0 1.00319e+06 965124 0 954306 935608 0 908397 906665 0 865212 878285 0 824534 850455 0 786172 823164 0 749960 796401 0 715747 770154 0 683401 744412 0 652801 719162 0 623840 694394 0 596416 670094 0 5.54121e+06 888745 0 4.56743e+06 1.34753e+06 0 3.83033e+06 1.52105e+06 0 3.30246e+06 1.55994e+06 0 2.91362e+06 1.54792e+06 0 2.6152e+06 1.51669e+06 0 2.37736e+06 1.47863e+06 0 2.18165e+06 1.43846e+06 0 2.01647e+06 1.39811e+06 0 1.87419e+06 1.35834e+06 0 1.7496e+06 1.31943e+06 0 1.63903e+06 1.28148e+06 0 1.53984e+06 1.24448e+06 0 1.45004e+06 1.2084e+06 0 1.36815e+06 1.17319e+06 0 1.293e+06 1.1388e+06 0 1.22367e+06 1.1052e+06 0 1.15944e+06 1.07235e+06 0 1.09972e+06 1.04021e+06 0 1.044e+06 1.00875e+06 0 991892 977957 0 943049 947798 0 897179 918256 0 854034 889313 0 813395 860952 0 775073 833158 0 738901 805917 0 704731 779213 0 672428 753033 0 641873 727363 0 612958 702190 0 585580 677501 0 5.63276e+06 1.08401e+06 0 4.59929e+06 1.50384e+06 0 3.83107e+06 1.63542e+06 0 3.29325e+06 1.64387e+06 0 2.90117e+06 1.61225e+06 0 2.60202e+06 1.56813e+06 0 2.36422e+06 1.52127e+06 0 2.16878e+06 1.47483e+06 0 2.00391e+06 1.42984e+06 0 1.8619e+06 1.38652e+06 0 1.73754e+06 1.34481e+06 0 1.62717e+06 1.3046e+06 0 1.52812e+06 1.26573e+06 0 1.43844e+06 1.22807e+06 0 1.35664e+06 1.19151e+06 0 1.28156e+06 1.15595e+06 0 1.21229e+06 1.12131e+06 0 1.1481e+06 1.08753e+06 0 1.08841e+06 1.05455e+06 0 1.03272e+06 1.02233e+06 0 980637 990825 0 931816 960010 0 885967 929856 0 842843 900337 0 802226 871432 0 763927 843121 0 727779 815385 0 693635 788209 0 661360 761576 0 630835 735470 0 601952 709877 0 574607 684781 0 5.72398e+06 1.28697e+06 0 4.6265e+06 1.66639e+06 0 3.82763e+06 1.75197e+06 0 3.28178e+06 1.72841e+06 0 2.8875e+06 1.6767e+06 0 2.58825e+06 1.61956e+06 0 2.35083e+06 1.56391e+06 0 2.15585e+06 1.51122e+06 0 1.9914e+06 1.46161e+06 0 1.84973e+06 1.41475e+06 0 1.72564e+06 1.37026e+06 0 1.61546e+06 1.32779e+06 0 1.51657e+06 1.28706e+06 0 1.427e+06 1.24782e+06 0 1.34528e+06 1.20991e+06 0 1.27025e+06 1.17317e+06 0 1.20102e+06 1.13749e+06 0 1.13686e+06 1.10277e+06 0 1.07718e+06 1.06894e+06 0 1.02151e+06 1.03595e+06 0 969429 1.00373e+06 0 920611 972247 0 874765 941467 0 831643 911358 0 791030 881894 0 752736 853050 0 716596 824806 0 682462 797142 0 650200 770039 0 619690 743481 0 590824 717451 0 563501 691932 0 5.81625e+06 1.49833e+06 0 4.64842e+06 1.83577e+06 0 3.81966e+06 1.87057e+06 0 3.26799e+06 1.81348e+06 0 2.87259e+06 1.74124e+06 0 2.5739e+06 1.671e+06 0 2.3372e+06 1.60654e+06 0 2.14288e+06 1.54763e+06 0 1.97895e+06 1.49342e+06 0 1.83768e+06 1.44305e+06 0 1.71388e+06 1.39578e+06 0 1.60393e+06 1.35106e+06 0 1.50519e+06 1.30847e+06 0 1.41573e+06 1.26766e+06 0 1.33407e+06 1.22839e+06 0 1.25909e+06 1.19047e+06 0 1.18988e+06 1.15374e+06 0 1.12573e+06 1.11808e+06 0 1.06605e+06 1.0834e+06 0 1.01036e+06 1.04961e+06 0 958272 1.01667e+06 0 909438 984508 0 863576 953090 0 820438 922377 0 779810 892339 0 741504 862948 0 705355 834180 0 671214 806011 0 638950 778422 0 608440 751395 0 579579 724911 0 552263 698952 0 5.91146e+06 1.71919e+06 0 4.6641e+06 2.01268e+06 0 3.80679e+06 1.99108e+06 0 3.25184e+06 1.89897e+06 0 2.85641e+06 1.80581e+06 0 2.55898e+06 1.7224e+06 0 2.32333e+06 1.64917e+06 0 2.12986e+06 1.58405e+06 0 1.96656e+06 1.52528e+06 0 1.82576e+06 1.4714e+06 0 1.70229e+06 1.42137e+06 0 1.59256e+06 1.37442e+06 0 1.49398e+06 1.32996e+06 0 1.40462e+06 1.28759e+06 0 1.32303e+06 1.24696e+06 0 1.24807e+06 1.20785e+06 0 1.17887e+06 1.17007e+06 0 1.11471e+06 1.13346e+06 0 1.05501e+06 1.09791e+06 0 999294 1.06333e+06 0 947169 1.02965e+06 0 898301 996795 0 852403 964725 0 809230 933395 0 768570 902768 0 730234 872814 0 694059 843505 0 659896 814816 0 627612 786724 0 597089 759211 0 568218 732255 0 540896 705839 0 6.01217e+06 1.95114e+06 0 4.6722e+06 2.19799e+06 0 3.78863e+06 2.11325e+06 0 3.23324e+06 1.98482e+06 0 2.83895e+06 1.87036e+06 0 2.54349e+06 1.77377e+06 0 2.30922e+06 1.69178e+06 0 2.11681e+06 1.6205e+06 0 1.95425e+06 1.55718e+06 0 1.81397e+06 1.49982e+06 0 1.69086e+06 1.44705e+06 0 1.58138e+06 1.39786e+06 0 1.48295e+06 1.35155e+06 0 1.39369e+06 1.30761e+06 0 1.31214e+06 1.26563e+06 0 1.2372e+06 1.22533e+06 0 1.16799e+06 1.18648e+06 0 1.1038e+06 1.14891e+06 0 1.04406e+06 1.11249e+06 0 988302 1.0771e+06 0 936126 1.04267e+06 0 887203 1.00911e+06 0 841250 976374 0 798024 944412 0 757312 913181 0 718929 882648 0 682710 852782 0 648508 823555 0 616191 794944 0 585639 766927 0 556744 739482 0 529403 712590 0 6.12184e+06 2.19649e+06 0 4.67079e+06 2.39269e+06 0 3.76479e+06 2.23677e+06 0 3.21212e+06 2.0709e+06 0 2.82017e+06 1.93481e+06 0 2.52743e+06 1.82509e+06 0 2.29489e+06 1.73437e+06 0 2.10373e+06 1.65697e+06 0 1.94202e+06 1.58913e+06 0 1.80232e+06 1.52831e+06 0 1.67961e+06 1.4728e+06 0 1.57038e+06 1.42139e+06 0 1.47211e+06 1.37324e+06 0 1.38294e+06 1.32772e+06 0 1.30143e+06 1.28438e+06 0 1.22649e+06 1.24288e+06 0 1.15726e+06 1.20297e+06 0 1.09302e+06 1.16444e+06 0 1.03322e+06 1.12713e+06 0 977394 1.09093e+06 0 925145 1.05573e+06 0 876148 1.02145e+06 0 830121 988039 0 786822 955429 0 746041 923579 0 707592 892451 0 671313 862011 0 637055 832230 0 604688 803081 0 574093 774542 0 545160 746590 0 517787 719204 0 6.24524e+06 2.45862e+06 0 4.65703e+06 2.5979e+06 0 3.73498e+06 2.36119e+06 0 3.18838e+06 2.15712e+06 0 2.80006e+06 1.99909e+06 0 2.51083e+06 1.87633e+06 0 2.28033e+06 1.77694e+06 0 2.09063e+06 1.69345e+06 0 1.92988e+06 1.62113e+06 0 1.79082e+06 1.55688e+06 0 1.66853e+06 1.49864e+06 0 1.55957e+06 1.44502e+06 0 1.46146e+06 1.39502e+06 0 1.37237e+06 1.34793e+06 0 1.29089e+06 1.30323e+06 0 1.21594e+06 1.26053e+06 0 1.14666e+06 1.21955e+06 0 1.08236e+06 1.18004e+06 0 1.02249e+06 1.14184e+06 0 966572 1.10481e+06 0 914231 1.06883e+06 0 865139 1.03383e+06 0 819018 999719 0 775628 966447 0 734758 933963 0 696226 902223 0 659869 871192 0 625540 840839 0 593107 811135 0 562453 782055 0 533468 753577 0 506051 725679 0 6.38898e+06 2.74247e+06 0 4.62683e+06 2.81487e+06 0 3.69909e+06 2.48594e+06 0 3.16188e+06 2.24336e+06 0 2.77862e+06 2.06311e+06 0 2.49366e+06 1.92749e+06 0 2.26555e+06 1.81947e+06 0 2.07752e+06 1.72997e+06 0 1.91782e+06 1.65319e+06 0 1.77947e+06 1.58552e+06 0 1.65763e+06 1.52458e+06 0 1.54895e+06 1.46875e+06 0 1.45101e+06 1.4169e+06 0 1.36199e+06 1.36824e+06 0 1.28053e+06 1.32218e+06 0 1.20555e+06 1.27828e+06 0 1.13621e+06 1.23621e+06 0 1.07183e+06 1.19572e+06 0 1.01186e+06 1.15662e+06 0 955840 1.11874e+06 0 903387 1.08198e+06 0 854181 1.04623e+06 0 807946 1.01142e+06 0 764445 977468 0 723468 944332 0 684835 911964 0 648382 880326 0 613964 849382 0 581451 819104 0 550723 789466 0 521673 760442 0 494198 732012 0 6.56233e+06 3.05528e+06 0 4.57416e+06 3.04486e+06 0 3.65731e+06 2.61028e+06 0 3.1324e+06 2.32951e+06 0 2.75585e+06 2.12679e+06 0 2.47593e+06 1.97853e+06 0 2.25054e+06 1.86196e+06 0 2.06438e+06 1.7665e+06 0 1.90585e+06 1.6853e+06 0 1.76827e+06 1.61424e+06 0 1.64691e+06 1.5506e+06 0 1.53853e+06 1.49257e+06 0 1.44075e+06 1.43889e+06 0 1.35181e+06 1.38866e+06 0 1.27036e+06 1.34123e+06 0 1.19534e+06 1.29611e+06 0 1.12592e+06 1.25296e+06 0 1.06144e+06 1.21148e+06 0 1.00135e+06 1.17146e+06 0 945202 1.13274e+06 0 892617 1.09518e+06 0 843277 1.05867e+06 0 796909 1.02313e+06 0 753276 988492 0 712174 954689 0 673420 921676 0 636854 889411 0 602331 857860 0 569721 826989 0 538905 796773 0 509776 767185 0 482230 738202 0 6.77835e+06 3.40777e+06 0 4.49016e+06 3.289e+06 0 3.61043e+06 2.7333e+06 0 3.09959e+06 2.4154e+06 0 2.73182e+06 2.19004e+06 0 2.45762e+06 2.02945e+06 0 2.23531e+06 1.9044e+06 0 2.05123e+06 1.80305e+06 0 1.89398e+06 1.71747e+06 0 1.75722e+06 1.64304e+06 0 1.63638e+06 1.57672e+06 0 1.52831e+06 1.5165e+06 0 1.4307e+06 1.46098e+06 0 1.34183e+06 1.40917e+06 0 1.26037e+06 1.36038e+06 0 1.18529e+06 1.31405e+06 0 1.11578e+06 1.2698e+06 0 1.05118e+06 1.22732e+06 0 990958 1.18638e+06 0 934663 1.1468e+06 0 881925 1.10842e+06 0 832431 1.07115e+06 0 785908 1.03487e+06 0 742126 999520 0 700878 965034 0 661986 931358 0 625290 898450 0 590645 866271 0 557922 834789 0 527003 803975 0 497780 773803 0 470151 744248 0 7.05572e+06 3.81588e+06 0 4.36172e+06 3.54809e+06 0 3.56023e+06 2.85389e+06 0 3.06288e+06 2.50087e+06 0 2.70665e+06 2.25274e+06 0 2.43868e+06 2.08019e+06 0 2.21987e+06 1.94677e+06 0 2.03805e+06 1.83961e+06 0 1.8822e+06 1.7497e+06 0 1.74632e+06 1.67192e+06 0 1.62604e+06 1.60293e+06 0 1.5183e+06 1.54052e+06 0 1.42086e+06 1.48317e+06 0 1.33204e+06 1.4298e+06 0 1.25057e+06 1.37963e+06 0 1.17542e+06 1.33208e+06 0 1.1058e+06 1.28673e+06 0 1.04107e+06 1.24324e+06 0 980687 1.20137e+06 0 924225 1.16092e+06 0 871315 1.12172e+06 0 821645 1.08366e+06 0 774949 1.04663e+06 0 730996 1.01055e+06 0 689584 975367 0 650536 941012 0 613691 907442 0 578907 874617 0 546056 842504 0 515019 811072 0 485689 780295 0 457963 750147 0 7.42112e+06 4.30354e+06 0 4.16962e+06 3.8217e+06 0 3.50999e+06 2.97088e+06 0 3.02136e+06 2.58566e+06 0 2.68056e+06 2.31484e+06 0 2.41905e+06 2.13073e+06 0 2.20424e+06 1.98908e+06 0 2.02483e+06 1.87618e+06 0 1.87051e+06 1.78198e+06 0 1.73558e+06 1.70088e+06 0 1.61588e+06 1.62924e+06 0 1.50848e+06 1.56466e+06 0 1.41122e+06 1.50548e+06 0 1.32246e+06 1.45053e+06 0 1.24096e+06 1.39898e+06 0 1.16573e+06 1.35021e+06 0 1.09599e+06 1.30375e+06 0 1.0311e+06 1.25925e+06 0 970541 1.21644e+06 0 913893 1.1751e+06 0 860790 1.13506e+06 0 810924 1.0962e+06 0 764034 1.05841e+06 0 719891 1.0216e+06 0 678296 985691 0 639072 950638 0 602061 916387 0 567122 882898 0 534126 850133 0 502956 818063 0 473505 786660 0 445670 755899 0 7.91342e+06 4.90698e+06 0 3.8847e+06 4.10894e+06 0 3.4656e+06 3.08277e+06 0 2.97359e+06 2.66944e+06 0 2.65391e+06 2.37627e+06 0 2.39863e+06 2.181e+06 0 2.18843e+06 2.03133e+06 0 2.01157e+06 1.91274e+06 0 1.85892e+06 1.81433e+06 0 1.72499e+06 1.72992e+06 0 1.60592e+06 1.65565e+06 0 1.49887e+06 1.5889e+06 0 1.40179e+06 1.52789e+06 0 1.31309e+06 1.47137e+06 0 1.23155e+06 1.41845e+06 0 1.15622e+06 1.36845e+06 0 1.08634e+06 1.32087e+06 0 1.02127e+06 1.27535e+06 0 960525 1.23158e+06 0 903670 1.18935e+06 0 850353 1.14846e+06 0 800272 1.10879e+06 0 753167 1.07021e+06 0 708814 1.03264e+06 0 667016 996006 0 627597 960237 0 590403 925287 0 555291 891113 0 522135 857677 0 490817 824948 0 461231 792897 0 433275 761503 0 </DataArray> 
</PointData> 
<Points> 
<DataArray type="Float32" NumberOfComponents="3"> 