<?xml version="1.0"?> 
<VTKFile type="StructuredGrid" version="0.1"> 
<StructuredGrid WholeExtent="0 31 0 31 0 0"> 
<Piece Extent="0 31 0 31 0 0"> 
<PointData>
<DataArray type="Float32" Name="|E|" format="ascii" NumberOfComponents="3"> 
-2.25418e+06 977218 0 -2.27647e+06 1.02495e+06 0 -2.29793e+06 1.07496e+06 0 -2.31808e+06 1.12742e+06 0 -2.33635e+06 1.18253e+06 0 -2.35203e+06 1.24043e+06 0 -2.36423e+06 1.30122e+06 0 -2.37183e+06 1.36483e+06 0 -2.37352e+06 1.43099e+06 0 -2.36775e+06 1.49908e+06 0 -2.35282e+06 1.56797e+06 0 -2.32707e+06 1.63584e+06 0 -2.28908e+06 1.70007e+06 0 -2.23816e+06 1.75719e+06 0 -2.17473e+06 1.80316e+06 0 -2.10069e+06 1.83384e+06 0 -2.01943e+06 1.84572e+06 0 -1.93539e+06 1.83657e+06 0 -1.85337e+06 1.80575e+06 0 -1.77777e+06 1.75406e+06 0 -1.71202e+06 1.68324e+06 0 -1.6584e+06 1.59526e+06 0 -1.61814e+06 1.49182e+06 0 -1.59161e+06 1.37377e+06 0 -1.57849e+06 1.24097e+06 0 -1.57806e+06 1.09199e+06 0 -1.58948e+06 923253 0 -1.60986e+06 732558 0 -1.64098e+06 497308 0 -1.70168e+06 256284 0 -1.72189e+06 -258522 0 -2.7888e+06 2.38419e-07 0 -2.24486e+06 981689 0 -2.26672e+06 1.02929e+06 0 -2.28772e+06 1.07908e+06 0 -2.30736e+06 1.13123e+06 0 -2.32511e+06 1.1859e+06 0 -2.34023e+06 1.2432e+06 0 -2.35187e+06 1.30319e+06 0 -2.35896e+06 1.36576e+06 0 -2.36022e+06 1.43061e+06 0 -2.35419e+06 1.49707e+06 0 -2.3393e+06 1.56399e+06 0 -2.31402e+06 1.62959e+06 0 -2.2771e+06 1.69134e+06 0 -2.22798e+06 1.74594e+06 0 -2.16717e+06 1.78962e+06 0 -2.0965e+06 1.81853e+06 0 -2.01917e+06 1.82942e+06 0 -1.93935e+06 1.82021e+06 0 -1.86153e+06 1.79025e+06 0 -1.78988e+06 1.74021e+06 0 -1.72771e+06 1.67159e+06 0 -1.67731e+06 1.58618e+06 0 -1.64003e+06 1.48544e+06 0 -1.61637e+06 1.37015e+06 0 -1.6064e+06 1.24001e+06 0 -1.60928e+06 1.09344e+06 0 -1.6255e+06 927421 0 -1.64989e+06 737009 0 -1.69436e+06 511007 0 -1.74557e+06 254680 0 -1.86788e+06 -145513 0 -2.54662e+06 -3.72529e-07 0 -2.23555e+06 986082 0 -2.25701e+06 1.03355e+06 0 -2.27756e+06 1.08312e+06 0 -2.29673e+06 1.13494e+06 0 -2.31396e+06 1.18916e+06 0 -2.32857e+06 1.24586e+06 0 -2.3397e+06 1.30505e+06 0 -2.34632e+06 1.36661e+06 0 -2.3472e+06 1.43017e+06 0 -2.34098e+06 1.49504e+06 0 -2.32619e+06 1.56007e+06 0 -2.30143e+06 1.6235e+06 0 -2.26561e+06 1.68289e+06 0 -2.21828e+06 1.73513e+06 0 -2.16001e+06 1.77667e+06 0 -2.09258e+06 1.80394e+06 0 -2.01902e+06 1.81393e+06 0 -1.94323e+06 1.80469e+06 0 -1.86944e+06 1.77556e+06 0 -1.8016e+06 1.72709e+06 0 -1.74292e+06 1.66062e+06 0 -1.6957e+06 1.5777e+06 0 -1.66136e+06 1.47966e+06 0 -1.64061e+06 1.36711e+06 0 -1.63371e+06 1.2397e+06 0 -1.64019e+06 1.09573e+06 0 -1.66054e+06 932297 0 -1.69093e+06 743705 0 -1.74268e+06 523471 0 -1.80015e+06 265158 0 -1.96038e+06 -61682.7 0 -2.40433e+06 5.06639e-07 0 -2.22627e+06 990398 0 -2.24733e+06 1.03772e+06 0 -2.26745e+06 1.08706e+06 0 -2.28617e+06 1.13855e+06 0 -2.30293e+06 1.19232e+06 0 -2.31705e+06 1.24842e+06 0 -2.32771e+06 1.30683e+06 0 -2.3339e+06 1.36737e+06 0 -2.33447e+06 1.42967e+06 0 -2.32812e+06 1.493e+06 0 -2.31349e+06 1.5562e+06 0 -2.28929e+06 1.61756e+06 0 -2.25458e+06 1.67473e+06 0 -2.20902e+06 1.72475e+06 0 -2.15322e+06 1.76429e+06 0 -2.08891e+06 1.79005e+06 0 -2.01895e+06 1.79922e+06 0 -1.94702e+06 1.78997e+06 0 -1.87711e+06 1.76165e+06 0 -1.81296e+06 1.7147e+06 0 -1.75767e+06 1.6503e+06 0 -1.71356e+06 1.56983e+06 0 -1.68215e+06 1.47444e+06 0 -1.6643e+06 1.36467e+06 0 -1.66046e+06 1.24004e+06 0 -1.6706e+06 1.09881e+06 0 -1.69503e+06 938051 0 -1.7317e+06 752059 0 -1.78896e+06 536230 0 -1.85688e+06 282098 0 -2.02452e+06 1995.06 0 -2.32375e+06 -6.18398e-07 0 -2.21702e+06 994640 0 -2.23769e+06 1.04181e+06 0 -2.2574e+06 1.09091e+06 0 -2.27568e+06 1.14208e+06 0 -2.29199e+06 1.19539e+06 0 -2.30567e+06 1.25089e+06 0 -2.3159e+06 1.30851e+06 0 -2.32172e+06 1.36807e+06 0 -2.32202e+06 1.42913e+06 0 -2.31559e+06 1.49096e+06 0 -2.30116e+06 1.55241e+06 0 -2.27757e+06 1.61179e+06 0 -2.24399e+06 1.66685e+06 0 -2.20018e+06 1.71478e+06 0 -2.14677e+06 1.75247e+06 0 -2.08546e+06 1.77682e+06 0 -2.01896e+06 1.78524e+06 0 -1.95074e+06 1.77601e+06 0 -1.88454e+06 1.74848e+06 0 -1.82395e+06 1.70301e+06 0 -1.77197e+06 1.64062e+06 0 -1.73092e+06 1.56254e+06 0 -1.70239e+06 1.4698e+06 0 -1.68743e+06 1.36281e+06 0 -1.68666e+06 1.24103e+06 0 -1.70042e+06 1.10269e+06 0 -1.72903e+06 944750 0 -1.77179e+06 761807 0 -1.83428e+06 549892 0 -1.91237e+06 302478 0 -2.07397e+06 51299 0 -2.28257e+06 9.38773e-07 0 -2.20778e+06 998809 0 -2.22809e+06 1.04582e+06 0 -2.24741e+06 1.09469e+06 0 -2.26528e+06 1.14552e+06 0 -2.28117e+06 1.19837e+06 0 -2.29442e+06 1.25327e+06 0 -2.30426e+06 1.31012e+06 0 -2.30975e+06 1.3687e+06 0 -2.30984e+06 1.42856e+06 0 -2.30338e+06 1.48894e+06 0 -2.2892e+06 1.5487e+06 0 -2.26626e+06 1.6062e+06 0 -2.23381e+06 1.65925e+06 0 -2.19172e+06 1.70522e+06 0 -2.14065e+06 1.74118e+06 0 -2.08223e+06 1.76424e+06 0 -2.01905e+06 1.77198e+06 0 -1.95437e+06 1.76279e+06 0 -1.89175e+06 1.73603e+06 0 -1.8346e+06 1.692e+06 0 -1.78584e+06 1.63157e+06 0 -1.74777e+06 1.55584e+06 0 -1.72209e+06 1.46573e+06 0 -1.70998e+06 1.36154e+06 0 -1.71228e+06 1.24268e+06 0 -1.72963e+06 1.10735e+06 0 -1.76249e+06 952422 0 -1.81106e+06 772805 0 -1.87891e+06 564707 0 -1.96556e+06 324480 0 -2.11639e+06 90408.3 0 -2.26727e+06 -6.25849e-07 0 -2.19858e+06 1.00291e+06 0 -2.21853e+06 1.04975e+06 0 -2.23747e+06 1.09838e+06 0 -2.25495e+06 1.14887e+06 0 -2.27044e+06 1.20127e+06 0 -2.28331e+06 1.25557e+06 0 -2.29279e+06 1.31166e+06 0 -2.29799e+06 1.36928e+06 0 -2.29792e+06 1.42796e+06 0 -2.29148e+06 1.48694e+06 0 -2.2776e+06 1.54508e+06 0 -2.25533e+06 1.60077e+06 0 -2.22403e+06 1.65194e+06 0 -2.18363e+06 1.69607e+06 0 -2.13482e+06 1.7304e+06 0 -2.07919e+06 1.75226e+06 0 -2.01919e+06 1.75939e+06 0 -1.95792e+06 1.75027e+06 0 -1.89874e+06 1.72428e+06 0 -1.84491e+06 1.68164e+06 0 -1.79927e+06 1.62312e+06 0 -1.76412e+06 1.54972e+06 0 -1.74124e+06 1.46222e+06 0 -1.73196e+06 1.36085e+06 0 -1.73731e+06 1.24498e+06 0 -1.75821e+06 1.11279e+06 0 -1.79536e+06 961072 0 -1.84952e+06 784984 0 -1.9229e+06 580729 0 -2.01644e+06 347146 0 -2.15599e+06 122252 0 -2.26959e+06 4.32134e-07 0 -2.18939e+06 1.00694e+06 0 -2.20901e+06 1.05362e+06 0 -2.22759e+06 1.102e+06 0 -2.2447e+06 1.15215e+06 0 -2.25982e+06 1.2041e+06 0 -2.27233e+06 1.2578e+06 0 -2.28149e+06 1.31314e+06 0 -2.28645e+06 1.36982e+06 0 -2.28625e+06 1.42735e+06 0 -2.27988e+06 1.48498e+06 0 -2.26633e+06 1.54155e+06 0 -2.24476e+06 1.59553e+06 0 -2.21461e+06 1.64491e+06 0 -2.17587e+06 1.6873e+06 0 -2.12927e+06 1.72013e+06 0 -2.07633e+06 1.74088e+06 0 -2.01939e+06 1.74746e+06 0 -1.96139e+06 1.73842e+06 0 -1.90551e+06 1.71319e+06 0 -1.85488e+06 1.67191e+06 0 -1.81227e+06 1.61527e+06 0 -1.77998e+06 1.54415e+06 0 -1.75984e+06 1.45925e+06 0 -1.75334e+06 1.36074e+06 0 -1.76172e+06 1.24793e+06 0 -1.78613e+06 1.119e+06 0 -1.82758e+06 970694 0 -1.88715e+06 798311 0 -1.9662e+06 597940 0 -2.0654e+06 370019 0 -2.19512e+06 148946 0 -2.2844e+06 -2.98023e-07 0 -2.18024e+06 1.01091e+06 0 -2.19952e+06 1.05742e+06 0 -2.21777e+06 1.10555e+06 0 -2.23453e+06 1.15536e+06 0 -2.24931e+06 1.20685e+06 0 -2.26149e+06 1.25997e+06 0 -2.27036e+06 1.31456e+06 0 -2.27511e+06 1.37032e+06 0 -2.27483e+06 1.42674e+06 0 -2.26856e+06 1.48305e+06 0 -2.25539e+06 1.53813e+06 0 -2.23453e+06 1.59047e+06 0 -2.20553e+06 1.63815e+06 0 -2.16844e+06 1.67892e+06 0 -2.12397e+06 1.71034e+06 0 -2.07363e+06 1.73007e+06 0 -2.01963e+06 1.73615e+06 0 -1.96477e+06 1.72723e+06 0 -1.91207e+06 1.70274e+06 0 -1.86454e+06 1.6628e+06 0 -1.82486e+06 1.608e+06 0 -1.79535e+06 1.53914e+06 0 -1.7779e+06 1.45683e+06 0 -1.77413e+06 1.36119e+06 0 -1.78548e+06 1.25152e+06 0 -1.81336e+06 1.12597e+06 0 -1.85908e+06 981280 0 -1.92397e+06 812769 0 -2.00878e+06 616313 0 -2.11295e+06 392956 0 -2.23508e+06 172034 0 -2.3085e+06 0 0 -2.17111e+06 1.01482e+06 0 -2.19008e+06 1.06115e+06 0 -2.208e+06 1.10903e+06 0 -2.22444e+06 1.1585e+06 0 -2.23889e+06 1.20954e+06 0 -2.25078e+06 1.26208e+06 0 -2.2594e+06 1.31594e+06 0 -2.26397e+06 1.37079e+06 0 -2.26364e+06 1.42613e+06 0 -2.25752e+06 1.48117e+06 0 -2.24475e+06 1.53482e+06 0 -2.22463e+06 1.58559e+06 0 -2.19678e+06 1.63167e+06 0 -2.1613e+06 1.67091e+06 0 -2.11892e+06 1.70102e+06 0 -2.07107e+06 1.71981e+06 0 -2.01991e+06 1.72544e+06 0 -1.96806e+06 1.71666e+06 0 -1.91842e+06 1.69292e+06 0 -1.87387e+06 1.65428e+06 0 -1.83705e+06 1.60129e+06 0 -1.81024e+06 1.53466e+06 0 -1.79541e+06 1.45493e+06 0 -1.79431e+06 1.3622e+06 0 -1.80858e+06 1.25574e+06 0 -1.83988e+06 1.13371e+06 0 -1.88983e+06 992819 0 -1.95996e+06 828356 0 -2.05064e+06 635832 0 -2.15958e+06 416002 0 -2.27662e+06 192673 0 -2.33984e+06 -2.98023e-08 0 -2.16201e+06 1.01866e+06 0 -2.18068e+06 1.06482e+06 0 -2.1983e+06 1.11245e+06 0 -2.21443e+06 1.16158e+06 0 -2.22858e+06 1.21217e+06 0 -2.24019e+06 1.26413e+06 0 -2.24859e+06 1.31727e+06 0 -2.25303e+06 1.37125e+06 0 -2.25269e+06 1.42553e+06 0 -2.24675e+06 1.47935e+06 0 -2.23441e+06 1.53162e+06 0 -2.21505e+06 1.58091e+06 0 -2.18834e+06 1.62546e+06 0 -2.15444e+06 1.66326e+06 0 -2.11408e+06 1.69215e+06 0 -2.06866e+06 1.71007e+06 0 -2.02021e+06 1.71531e+06 0 -1.97126e+06 1.7067e+06 0 -1.92457e+06 1.68369e+06 0 -1.8829e+06 1.64634e+06 0 -1.84883e+06 1.59513e+06 0 -1.82464e+06 1.5307e+06 0 -1.81237e+06 1.45356e+06 0 -1.81388e+06 1.36376e+06 0 -1.831e+06 1.26058e+06 0 -1.86564e+06 1.1422e+06 0 -1.91976e+06 1.0053e+06 0 -1.99511e+06 845074 0 -2.09179e+06 656515 0 -2.20571e+06 439318 0 -2.32014e+06 211753 0 -2.37714e+06 2.98023e-08 0 -2.15294e+06 1.02245e+06 0 -2.17133e+06 1.06843e+06 0 -2.18865e+06 1.11581e+06 0 -2.20449e+06 1.1646e+06 0 -2.21837e+06 1.21474e+06 0 -2.22974e+06 1.26614e+06 0 -2.23794e+06 1.31857e+06 0 -2.24228e+06 1.37169e+06 0 -2.24197e+06 1.42495e+06 0 -2.23623e+06 1.47759e+06 0 -2.22434e+06 1.52853e+06 0 -2.20575e+06 1.57641e+06 0 -2.1802e+06 1.61953e+06 0 -2.14785e+06 1.65597e+06 0 -2.10945e+06 1.68372e+06 0 -2.06636e+06 1.70084e+06 0 -2.02054e+06 1.70574e+06 0 -1.97437e+06 1.69731e+06 0 -1.93051e+06 1.67503e+06 0 -1.89162e+06 1.63895e+06 0 -1.86021e+06 1.58949e+06 0 -1.83857e+06 1.52725e+06 0 -1.82878e+06 1.45268e+06 0 -1.83282e+06 1.36584e+06 0 -1.85271e+06 1.26602e+06 0 -1.89062e+06 1.15141e+06 0 -1.94884e+06 1.01871e+06 0 -2.02939e+06 862934 0 -2.13224e+06 678405 0 -2.25165e+06 463135 0 -2.36594e+06 229983 0 -2.41962e+06 2.98023e-08 0 -2.1439e+06 1.02618e+06 0 -2.16201e+06 1.07198e+06 0 -2.17906e+06 1.11911e+06 0 -2.19463e+06 1.16756e+06 0 -2.20826e+06 1.21727e+06 0 -2.21941e+06 1.2681e+06 0 -2.22745e+06 1.31984e+06 0 -2.23171e+06 1.37212e+06 0 -2.23146e+06 1.4244e+06 0 -2.22596e+06 1.47589e+06 0 -2.21455e+06 1.52557e+06 0 -2.19674e+06 1.57209e+06 0 -2.17232e+06 1.61386e+06 0 -2.14149e+06 1.64903e+06 0 -2.10501e+06 1.67572e+06 0 -2.06418e+06 1.69211e+06 0 -2.02088e+06 1.6967e+06 0 -1.97739e+06 1.68847e+06 0 -1.93626e+06 1.66693e+06 0 -1.90004e+06 1.63209e+06 0 -1.8712e+06 1.58436e+06 0 -1.85202e+06 1.52428e+06 0 -1.84463e+06 1.4523e+06 0 -1.85113e+06 1.36844e+06 0 -1.8737e+06 1.27205e+06 0 -1.91479e+06 1.16135e+06 0 -1.97702e+06 1.03304e+06 0 -2.06275e+06 881949 0 -2.17199e+06 701577 0 -2.29768e+06 487734 0 -2.41421e+06 247959 0 -2.46685e+06 0 0 -2.13488e+06 1.02987e+06 0 -2.15274e+06 1.07549e+06 0 -2.16953e+06 1.12236e+06 0 -2.18485e+06 1.17047e+06 0 -2.19825e+06 1.21974e+06 0 -2.2092e+06 1.27003e+06 0 -2.21711e+06 1.32109e+06 0 -2.22133e+06 1.37256e+06 0 -2.22116e+06 1.42387e+06 0 -2.21592e+06 1.47427e+06 0 -2.20502e+06 1.52273e+06 0 -2.188e+06 1.56797e+06 0 -2.1647e+06 1.60845e+06 0 -2.13537e+06 1.64243e+06 0 -2.10074e+06 1.66812e+06 0 -2.06209e+06 1.68384e+06 0 -2.02122e+06 1.68818e+06 0 -1.98032e+06 1.68017e+06 0 -1.9418e+06 1.65935e+06 0 -1.90816e+06 1.62575e+06 0 -1.8818e+06 1.57973e+06 0 -1.865e+06 1.5218e+06 0 -1.85993e+06 1.45238e+06 0 -1.86879e+06 1.37154e+06 0 -1.89395e+06 1.27864e+06 0 -1.93811e+06 1.17198e+06 0 -2.00425e+06 1.04828e+06 0 -2.09515e+06 902138 0 -2.21104e+06 726128 0 -2.34397e+06 513428 0 -2.46512e+06 266205 0 -2.51863e+06 0 0 -2.1259e+06 1.0335e+06 0 -2.14352e+06 1.07894e+06 0 -2.16006e+06 1.12556e+06 0 -2.17515e+06 1.17334e+06 0 -2.18834e+06 1.22218e+06 0 -2.19912e+06 1.27193e+06 0 -2.20692e+06 1.32233e+06 0 -2.21111e+06 1.373e+06 0 -2.21106e+06 1.42338e+06 0 -2.20612e+06 1.47272e+06 0 -2.19573e+06 1.52002e+06 0 -2.17951e+06 1.56404e+06 0 -2.15733e+06 1.6033e+06 0 -2.12946e+06 1.63616e+06 0 -2.09664e+06 1.66093e+06 0 -2.0601e+06 1.67603e+06 0 -2.02157e+06 1.68015e+06 0 -1.98315e+06 1.67238e+06 0 -1.94715e+06 1.6523e+06 0 -1.91599e+06 1.61991e+06 0 -1.89202e+06 1.57557e+06 0 -1.8775e+06 1.51977e+06 0 -1.87467e+06 1.45292e+06 0 -1.8858e+06 1.37511e+06 0 -1.91344e+06 1.28577e+06 0 -1.96054e+06 1.18329e+06 0 -2.03048e+06 1.0644e+06 0 -2.12652e+06 923518 0 -2.24936e+06 752175 0 -2.39063e+06 540562 0 -2.51886e+06 285214 0 -2.57499e+06 -1.19209e-07 0 -2.11694e+06 1.03708e+06 0 -2.13433e+06 1.08234e+06 0 -2.15065e+06 1.12872e+06 0 -2.16552e+06 1.17616e+06 0 -2.17852e+06 1.22458e+06 0 -2.18915e+06 1.2738e+06 0 -2.19687e+06 1.32355e+06 0 -2.20107e+06 1.37345e+06 0 -2.20116e+06 1.42293e+06 0 -2.19653e+06 1.47125e+06 0 -2.18667e+06 1.51744e+06 0 -2.17125e+06 1.5603e+06 0 -2.15018e+06 1.59841e+06 0 -2.12375e+06 1.63021e+06 0 -2.09269e+06 1.65413e+06 0 -2.05819e+06 1.66866e+06 0 -2.02192e+06 1.6726e+06 0 -1.98588e+06 1.66509e+06 0 -1.95231e+06 1.64573e+06 0 -1.92353e+06 1.61455e+06 0 -1.90186e+06 1.57187e+06 0 -1.88954e+06 1.51818e+06 0 -1.88884e+06 1.4539e+06 0 -1.90215e+06 1.37914e+06 0 -1.93215e+06 1.29343e+06 0 -1.98206e+06 1.19524e+06 0 -2.05566e+06 1.0814e+06 0 -2.15679e+06 946107 0 -2.28687e+06 779849 0 -2.43772e+06 569510 0 -2.57561e+06 305479 0 -2.63614e+06 1.19209e-07 0 -2.10802e+06 1.04062e+06 0 -2.12519e+06 1.0857e+06 0 -2.14129e+06 1.13183e+06 0 -2.15597e+06 1.17895e+06 0 -2.16879e+06 1.22695e+06 0 -2.1793e+06 1.27565e+06 0 -2.18696e+06 1.32477e+06 0 -2.1912e+06 1.37391e+06 0 -2.19145e+06 1.42253e+06 0 -2.18715e+06 1.46987e+06 0 -2.17784e+06 1.515e+06 0 -2.16323e+06 1.55674e+06 0 -2.14326e+06 1.59376e+06 0 -2.11823e+06 1.62458e+06 0 -2.08887e+06 1.6477e+06 0 -2.05635e+06 1.66172e+06 0 -2.02225e+06 1.66551e+06 0 -1.98851e+06 1.65827e+06 0 -1.95727e+06 1.63964e+06 0 -1.93079e+06 1.60964e+06 0 -1.91132e+06 1.56861e+06 0 -1.90111e+06 1.51701e+06 0 -1.90246e+06 1.45529e+06 0 -1.91783e+06 1.38361e+06 0 -1.95006e+06 1.30158e+06 0 -2.00263e+06 1.20781e+06 0 -2.07973e+06 1.09923e+06 0 -2.18588e+06 969920 0 -2.32347e+06 809287 0 -2.48523e+06 600679 0 -2.6356e+06 327524 0 -2.70245e+06 -5.96046e-08 0 -2.09913e+06 1.04412e+06 0 -2.11608e+06 1.08902e+06 0 -2.13199e+06 1.1349e+06 0 -2.14649e+06 1.1817e+06 0 -2.15916e+06 1.22929e+06 0 -2.16956e+06 1.27748e+06 0 -2.17718e+06 1.32598e+06 0 -2.18148e+06 1.3744e+06 0 -2.18191e+06 1.42217e+06 0 -2.17797e+06 1.46857e+06 0 -2.16923e+06 1.51268e+06 0 -2.15542e+06 1.55338e+06 0 -2.13653e+06 1.58937e+06 0 -2.11289e+06 1.61926e+06 0 -2.08519e+06 1.64164e+06 0 -2.05458e+06 1.65519e+06 0 -2.02258e+06 1.65885e+06 0 -1.99104e+06 1.6519e+06 0 -1.96205e+06 1.634e+06 0 -1.93776e+06 1.60518e+06 0 -1.92041e+06 1.56577e+06 0 -1.91222e+06 1.51625e+06 0 -1.91552e+06 1.45708e+06 0 -1.93283e+06 1.38849e+06 0 -1.96716e+06 1.31019e+06 0 -2.02221e+06 1.22096e+06 0 -2.10262e+06 1.11788e+06 0 -2.21368e+06 994961 0 -2.35902e+06 840629 0 -2.53305e+06 634511 0 -2.6991e+06 351934 0 -2.77449e+06 0 0 -2.09026e+06 1.04757e+06 0 -2.10702e+06 1.0923e+06 0 -2.12275e+06 1.13794e+06 0 -2.13708e+06 1.18442e+06 0 -2.14962e+06 1.2316e+06 0 -2.15994e+06 1.2793e+06 0 -2.16754e+06 1.3272e+06 0 -2.17192e+06 1.37491e+06 0 -2.17256e+06 1.42187e+06 0 -2.16899e+06 1.46737e+06 0 -2.16081e+06 1.51051e+06 0 -2.14781e+06 1.5502e+06 0 -2.13e+06 1.58522e+06 0 -2.1077e+06 1.61424e+06 0 -2.08162e+06 1.63592e+06 0 -2.05286e+06 1.64905e+06 0 -2.02288e+06 1.65263e+06 0 -1.99348e+06 1.64598e+06 0 -1.96663e+06 1.6288e+06 0 -1.94446e+06 1.60114e+06 0 -1.92914e+06 1.56333e+06 0 -1.92287e+06 1.51587e+06 0 -1.92801e+06 1.45924e+06 0 -1.94715e+06 1.39375e+06 0 -1.98343e+06 1.31923e+06 0 -2.04078e+06 1.23465e+06 0 -2.12428e+06 1.13731e+06 0 -2.24007e+06 1.02123e+06 0 -2.39334e+06 874006 0 -2.58102e+06 671486 0 -2.76639e+06 379393 0 -2.85305e+06 -5.96046e-08 0 -2.08143e+06 1.05099e+06 0 -2.09801e+06 1.09554e+06 0 -2.11356e+06 1.14094e+06 0 -2.12774e+06 1.18711e+06 0 -2.14017e+06 1.2339e+06 0 -2.15042e+06 1.28111e+06 0 -2.15803e+06 1.32843e+06 0 -2.1625e+06 1.37545e+06 0 -2.16337e+06 1.42163e+06 0 -2.16019e+06 1.46626e+06 0 -2.15259e+06 1.50847e+06 0 -2.1404e+06 1.54721e+06 0 -2.12365e+06 1.58131e+06 0 -2.10267e+06 1.60951e+06 0 -2.07817e+06 1.63056e+06 0 -2.05119e+06 1.6433e+06 0 -2.02317e+06 1.64681e+06 0 -1.9958e+06 1.64048e+06 0 -1.97103e+06 1.62402e+06 0 -1.95088e+06 1.59751e+06 0 -1.9375e+06 1.56128e+06 0 -1.93307e+06 1.51585e+06 0 -1.93994e+06 1.46176e+06 0 -1.96079e+06 1.39937e+06 0 -1.99886e+06 1.32867e+06 0 -2.0583e+06 1.24884e+06 0 -2.14463e+06 1.15746e+06 0 -2.26495e+06 1.0487e+06 0 -2.42619e+06 909533 0 -2.62884e+06 712129 0 -2.83777e+06 410725 0 -2.93919e+06 2.98023e-07 0 -2.07262e+06 1.05437e+06 0 -2.08903e+06 1.09875e+06 0 -2.10442e+06 1.14391e+06 0 -2.11847e+06 1.18977e+06 0 -2.1308e+06 1.23618e+06 0 -2.141e+06 1.28291e+06 0 -2.14864e+06 1.32966e+06 0 -2.15324e+06 1.37603e+06 0 -2.15435e+06 1.42145e+06 0 -2.15156e+06 1.46525e+06 0 -2.14456e+06 1.50656e+06 0 -2.13317e+06 1.5444e+06 0 -2.11747e+06 1.57764e+06 0 -2.09779e+06 1.60507e+06 0 -2.07481e+06 1.62552e+06 0 -2.04957e+06 1.63792e+06 0 -2.02342e+06 1.64139e+06 0 -1.99803e+06 1.63538e+06 0 -1.97524e+06 1.61964e+06 0 -1.95703e+06 1.59426e+06 0 -1.9455e+06 1.5596e+06 0 -1.94281e+06 1.51619e+06 0 -1.95132e+06 1.4646e+06 0 -1.97374e+06 1.40532e+06 0 -2.01343e+06 1.33848e+06 0 -2.07475e+06 1.26349e+06 0 -2.16363e+06 1.17829e+06 0 -2.28815e+06 1.07735e+06 0 -2.4573e+06 947296 0 -2.6761e+06 757002 0 -2.91358e+06 446953 0 -3.03437e+06 -3.57628e-07 0 -2.06384e+06 1.05772e+06 0 -2.08009e+06 1.10192e+06 0 -2.09534e+06 1.14685e+06 0 -2.10927e+06 1.19241e+06 0 -2.12152e+06 1.23844e+06 0 -2.13169e+06 1.28471e+06 0 -2.13937e+06 1.33092e+06 0 -2.14411e+06 1.37664e+06 0 -2.14548e+06 1.42133e+06 0 -2.14311e+06 1.46433e+06 0 -2.1367e+06 1.5048e+06 0 -2.12612e+06 1.54178e+06 0 -2.11145e+06 1.57419e+06 0 -2.09303e+06 1.60091e+06 0 -2.07154e+06 1.62081e+06 0 -2.04798e+06 1.63289e+06 0 -2.02365e+06 1.63635e+06 0 -2.00015e+06 1.63068e+06 0 -1.97926e+06 1.61565e+06 0 -1.96292e+06 1.59139e+06 0 -1.95315e+06 1.55827e+06 0 -1.9521e+06 1.51684e+06 0 -1.96214e+06 1.46775e+06 0 -1.98601e+06 1.41157e+06 0 -2.02713e+06 1.3486e+06 0 -2.09009e+06 1.27853e+06 0 -2.18119e+06 1.19971e+06 0 -2.30955e+06 1.10711e+06 0 -2.48637e+06 987339 0 -2.72217e+06 806697 0 -2.99408e+06 489374 0 -3.14053e+06 2.38419e-07 0 -2.0551e+06 1.06104e+06 0 -2.07119e+06 1.10507e+06 0 -2.08632e+06 1.14977e+06 0 -2.10014e+06 1.19504e+06 0 -2.11232e+06 1.2407e+06 0 -2.12248e+06 1.28652e+06 0 -2.13022e+06 1.33219e+06 0 -2.13511e+06 1.37729e+06 0 -2.13676e+06 1.42129e+06 0 -2.13481e+06 1.46352e+06 0 -2.12901e+06 1.50318e+06 0 -2.11923e+06 1.53934e+06 0 -2.10558e+06 1.57098e+06 0 -2.0884e+06 1.59702e+06 0 -2.06836e+06 1.61641e+06 0 -2.04642e+06 1.62821e+06 0 -2.02385e+06 1.63168e+06 0 -2.00217e+06 1.62635e+06 0 -1.98311e+06 1.61203e+06 0 -1.96854e+06 1.58887e+06 0 -1.96044e+06 1.55727e+06 0 -1.96095e+06 1.51781e+06 0 -1.9724e+06 1.47119e+06 0 -1.99758e+06 1.41809e+06 0 -2.03997e+06 1.359e+06 0 -2.10432e+06 1.29392e+06 0 -2.19727e+06 1.22167e+06 0 -2.32899e+06 1.13791e+06 0 -2.51305e+06 1.02965e+06 0 -2.76623e+06 861816 0 -3.07947e+06 539662 0 -3.26033e+06 -2.98023e-07 0 -2.04638e+06 1.06432e+06 0 -2.06234e+06 1.10818e+06 0 -2.07734e+06 1.15267e+06 0 -2.09107e+06 1.19764e+06 0 -2.1032e+06 1.24294e+06 0 -2.11337e+06 1.28833e+06 0 -2.12118e+06 1.33348e+06 0 -2.12625e+06 1.37798e+06 0 -2.12819e+06 1.42131e+06 0 -2.12668e+06 1.4628e+06 0 -2.12148e+06 1.50169e+06 0 -2.1125e+06 1.53708e+06 0 -2.09985e+06 1.56799e+06 0 -2.08389e+06 1.5934e+06 0 -2.06526e+06 1.61231e+06 0 -2.04489e+06 1.62386e+06 0 -2.02401e+06 1.62736e+06 0 -2.00408e+06 1.62237e+06 0 -1.98678e+06 1.60877e+06 0 -1.9739e+06 1.58669e+06 0 -1.9674e+06 1.55658e+06 0 -1.96936e+06 1.51906e+06 0 -1.98212e+06 1.47488e+06 0 -2.00846e+06 1.42485e+06 0 -2.05193e+06 1.36964e+06 0 -2.1174e+06 1.30959e+06 0 -2.21181e+06 1.24405e+06 0 -2.3463e+06 1.16964e+06 0 -2.537e+06 1.07412e+06 0 -2.80716e+06 922924 0 -3.16969e+06 600008 0 -3.39749e+06 3.57628e-07 0 -2.03768e+06 1.06758e+06 0 -2.05352e+06 1.11128e+06 0 -2.06841e+06 1.15554e+06 0 -2.08207e+06 1.20024e+06 0 -2.09416e+06 1.24519e+06 0 -2.10435e+06 1.29015e+06 0 -2.11226e+06 1.3348e+06 0 -2.11751e+06 1.37872e+06 0 -2.11975e+06 1.4214e+06 0 -2.11869e+06 1.46219e+06 0 -2.1141e+06 1.50035e+06 0 -2.10591e+06 1.535e+06 0 -2.09426e+06 1.56522e+06 0 -2.07949e+06 1.59003e+06 0 -2.06222e+06 1.60851e+06 0 -2.04338e+06 1.61984e+06 0 -2.02413e+06 1.62338e+06 0 -2.00589e+06 1.61875e+06 0 -1.99026e+06 1.60584e+06 0 -1.97901e+06 1.58484e+06 0 -1.97401e+06 1.5562e+06 0 -1.97733e+06 1.52058e+06 0 -1.99129e+06 1.47881e+06 0 -2.01867e+06 1.43181e+06 0 -2.06301e+06 1.38046e+06 0 -2.12933e+06 1.32547e+06 0 -2.22477e+06 1.26675e+06 0 -2.36131e+06 1.20215e+06 0 -2.55791e+06 1.12058e+06 0 -2.84353e+06 990476 0 -3.26421e+06 673329 0 -3.55727e+06 -3.57628e-07 0 -2.02902e+06 1.07081e+06 0 -2.04473e+06 1.11435e+06 0 -2.05953e+06 1.1584e+06 0 -2.07312e+06 1.20282e+06 0 -2.0852e+06 1.24743e+06 0 -2.09542e+06 1.29198e+06 0 -2.10344e+06 1.33615e+06 0 -2.10889e+06 1.37951e+06 0 -2.11145e+06 1.42157e+06 0 -2.11084e+06 1.46169e+06 0 -2.10686e+06 1.49914e+06 0 -2.09947e+06 1.5331e+06 0 -2.08879e+06 1.56266e+06 0 -2.07518e+06 1.58692e+06 0 -2.05926e+06 1.605e+06 0 -2.04189e+06 1.61613e+06 0 -2.02421e+06 1.61973e+06 0 -2.00759e+06 1.61546e+06 0 -1.99358e+06 1.60324e+06 0 -1.98386e+06 1.58329e+06 0 -1.98029e+06 1.55609e+06 0 -1.98489e+06 1.52234e+06 0 -1.99993e+06 1.48295e+06 0 -2.02819e+06 1.43895e+06 0 -2.07322e+06 1.39144e+06 0 -2.14009e+06 1.3415e+06 0 -2.23613e+06 1.28967e+06 0 -2.37383e+06 1.2353e+06 0 -2.57552e+06 1.16875e+06 0 -2.87356e+06 1.06467e+06 0 -3.36159e+06 763547 0 -3.74735e+06 5.36442e-07 0 -2.02038e+06 1.07401e+06 0 -2.03599e+06 1.1174e+06 0 -2.0507e+06 1.16124e+06 0 -2.06424e+06 1.2054e+06 0 -2.07631e+06 1.24968e+06 0 -2.08658e+06 1.29383e+06 0 -2.09472e+06 1.33752e+06 0 -2.10039e+06 1.38036e+06 0 -2.10327e+06 1.42182e+06 0 -2.10312e+06 1.46129e+06 0 -2.09976e+06 1.49807e+06 0 -2.09316e+06 1.53137e+06 0 -2.08344e+06 1.56032e+06 0 -2.07097e+06 1.58406e+06 0 -2.05634e+06 1.60176e+06 0 -2.04041e+06 1.61272e+06 0 -2.02425e+06 1.6164e+06 0 -2.00919e+06 1.61248e+06 0 -1.99672e+06 1.60095e+06 0 -1.98847e+06 1.58203e+06 0 -1.98625e+06 1.55624e+06 0 -1.99202e+06 1.52433e+06 0 -2.00804e+06 1.48727e+06 0 -2.03704e+06 1.44622e+06 0 -2.08256e+06 1.4025e+06 0 -2.14967e+06 1.3576e+06 0 -2.24591e+06 1.31266e+06 0 -2.38368e+06 1.26887e+06 0 -2.58966e+06 1.21825e+06 0 -2.89522e+06 1.14524e+06 0 -3.45874e+06 876007 0 -3.97913e+06 -5.96046e-07 0 -2.01177e+06 1.0772e+06 0 -2.02728e+06 1.12043e+06 0 -2.04192e+06 1.16407e+06 0 -2.05542e+06 1.20797e+06 0 -2.06749e+06 1.25193e+06 0 -2.07782e+06 1.29569e+06 0 -2.0861e+06 1.33894e+06 0 -2.09199e+06 1.38125e+06 0 -2.09522e+06 1.42214e+06 0 -2.09554e+06 1.461e+06 0 -2.0928e+06 1.49715e+06 0 -2.08697e+06 1.52981e+06 0 -2.0782e+06 1.55819e+06 0 -2.06685e+06 1.58144e+06 0 -2.05349e+06 1.5988e+06 0 -2.03894e+06 1.6096e+06 0 -2.02425e+06 1.61336e+06 0 -2.01069e+06 1.60981e+06 0 -1.99969e+06 1.59895e+06 0 -1.99284e+06 1.58105e+06 0 -1.99188e+06 1.55664e+06 0 -1.99874e+06 1.52653e+06 0 -2.01563e+06 1.49176e+06 0 -2.04523e+06 1.45361e+06 0 -2.09106e+06 1.41362e+06 0 -2.15806e+06 1.3737e+06 0 -2.25413e+06 1.33561e+06 0 -2.39065e+06 1.30261e+06 0 -2.60025e+06 1.2687e+06 0 -2.90654e+06 1.23103e+06 0 -3.54946e+06 1.01808e+06 0 -4.27004e+06 4.76837e-07 0 -2.00318e+06 1.08036e+06 0 -2.0186e+06 1.12345e+06 0 -2.03318e+06 1.16689e+06 0 -2.04665e+06 1.21053e+06 0 -2.05874e+06 1.25418e+06 0 -2.06915e+06 1.29758e+06 0 -2.07757e+06 1.34039e+06 0 -2.08371e+06 1.38221e+06 0 -2.08728e+06 1.42255e+06 0 -2.08808e+06 1.46082e+06 0 -2.08595e+06 1.49636e+06 0 -2.0809e+06 1.52843e+06 0 -2.07307e+06 1.55626e+06 0 -2.06281e+06 1.57905e+06 0 -2.05068e+06 1.5961e+06 0 -2.03747e+06 1.60677e+06 0 -2.0242e+06 1.61063e+06 0 -2.01208e+06 1.60744e+06 0 -2.00249e+06 1.59724e+06 0 -1.99697e+06 1.58032e+06 0 -1.99721e+06 1.55727e+06 0 -2.00507e+06 1.52892e+06 0 -2.02272e+06 1.49638e+06 0 -2.05277e+06 1.46107e+06 0 -2.09874e+06 1.42474e+06 0 -2.16525e+06 1.38972e+06 0 -2.26085e+06 1.35839e+06 0 -2.39461e+06 1.33617e+06 0 -2.60711e+06 1.31985e+06 0 -2.9063e+06 1.31945e+06 0 -3.62208e+06 1.2e+06 0 -4.64723e+06 -4.76837e-07 0 -1.99462e+06 1.08351e+06 0 -2.00996e+06 1.12645e+06 0 -2.02449e+06 1.1697e+06 0 -2.03794e+06 1.2131e+06 0 -2.05006e+06 1.25645e+06 0 -2.06056e+06 1.29948e+06 0 -2.06914e+06 1.34188e+06 0 -2.07553e+06 1.38322e+06 0 -2.07946e+06 1.42303e+06 0 -2.08073e+06 1.46074e+06 0 -2.07923e+06 1.49571e+06 0 -2.07494e+06 1.52722e+06 0 -2.06804e+06 1.55453e+06 0 -2.05884e+06 1.5769e+06 0 -2.04791e+06 1.59365e+06 0 -2.03601e+06 1.60421e+06 0 -2.02411e+06 1.60817e+06 0 -2.01338e+06 1.60535e+06 0 -2.00514e+06 1.59579e+06 0 -2.00088e+06 1.57985e+06 0 -2.00223e+06 1.55811e+06 0 -2.011e+06 1.53147e+06 0 -2.02931e+06 1.50112e+06 0 -2.05966e+06 1.46857e+06 0 -2.1056e+06 1.43582e+06 0 -2.17127e+06 1.40556e+06 0 -2.26606e+06 1.38095e+06 0 -2.3957e+06 1.369e+06 0 -2.6095e+06 1.37188e+06 0 -2.89582e+06 1.40533e+06 0 -3.65484e+06 1.4363e+06 0 -5.15415e+06 2.38419e-07 0 -1.98608e+06 1.08663e+06 0 -2.00135e+06 1.12944e+06 0 -2.01584e+06 1.1725e+06 0 -2.02928e+06 1.21567e+06 0 -2.04144e+06 1.25873e+06 0 -2.05204e+06 1.30142e+06 0 -2.06079e+06 1.34341e+06 0 -2.06744e+06 1.38429e+06 0 -2.07174e+06 1.4236e+06 0 -2.0735e+06 1.46078e+06 0 -2.07261e+06 1.4952e+06 0 -2.06909e+06 1.52617e+06 0 -2.06309e+06 1.553e+06 0 -2.05495e+06 1.57497e+06 0 -2.04519e+06 1.59145e+06 0 -2.03455e+06 1.60191e+06 0 -2.02397e+06 1.60599e+06 0 -2.01457e+06 1.60352e+06 0 -2.00762e+06 1.59461e+06 0 -2.00455e+06 1.5796e+06 0 -2.00695e+06 1.55915e+06 0 -2.01654e+06 1.53417e+06 0 -2.03543e+06 1.50594e+06 0 -2.06594e+06 1.47608e+06 0 -2.11165e+06 1.44682e+06 0 -2.17626e+06 1.42111e+06 0 -2.26951e+06 1.4033e+06 0 -2.3948e+06 1.40024e+06 0 -2.60487e+06 1.42591e+06 0 -2.88232e+06 1.47982e+06 0 -3.60823e+06 1.74702e+06 0 -5.86119e+06 -3.57628e-07 0 -1.97756e+06 1.08974e+06 0 -1.99277e+06 1.13242e+06 0 -2.00722e+06 1.1753e+06 0 -2.02068e+06 1.21824e+06 0 -2.03289e+06 1.26102e+06 0 -2.04359e+06 1.30338e+06 0 -2.05253e+06 1.34498e+06 0 -2.05945e+06 1.38543e+06 0 -2.06412e+06 1.42426e+06 0 -2.06637e+06 1.46093e+06 0 -2.06611e+06 1.49482e+06 0 -2.06334e+06 1.52529e+06 0 -2.05824e+06 1.55166e+06 0 -2.05112e+06 1.57326e+06 0 -2.0425e+06 1.5895e+06 0 -2.03309e+06 1.59987e+06 0 -2.02379e+06 1.60407e+06 0 -2.01566e+06 1.60196e+06 0 -2.00995e+06 1.59366e+06 0 -2.00801e+06 1.57958e+06 0 -2.01138e+06 1.56037e+06 0 -2.02173e+06 1.53702e+06 0 -2.04104e+06 1.51082e+06 0 -2.07171e+06 1.48358e+06 0 -2.11671e+06 1.4577e+06 0 -2.18072e+06 1.43619e+06 0 -2.27006e+06 1.42572e+06 0 -2.39504e+06 1.42819e+06 0 -2.58558e+06 1.48554e+06 0 -2.88686e+06 1.52604e+06 0 -3.40909e+06 2.16324e+06 0 -6.88688e+06 1.43051e-06 0 </DataArray> 
</PointData> 
<Points> 
<DataArray type="Float32" NumberOfComponents="3"> 