<?xml version="1.0"?> 
<VTKFile type="StructuredGrid" version="0.1"> 
<StructuredGrid WholeExtent="0 31 0 31 0 0"> 
<Piece Extent="0 31 0 31 0 0"> 
<PointData>
<DataArray type="Float32" Name="|E|" format="ascii" NumberOfComponents="3"> 
1.01956e+06 -423974 0 1.35846e+06 -310469 0 1.47203e+06 -289778 0 1.57658e+06 -250522 0 1.64967e+06 -209680 0 1.7089e+06 -167478 0 1.75181e+06 -125666 0 1.78132e+06 -85472.1 0 1.79802e+06 -47757.6 0 1.80334e+06 -13260.8 0 1.79852e+06 17585.5 0 1.78497e+06 44549.6 0 1.76403e+06 67615.4 0 1.73699e+06 86918.7 0 1.70503e+06 102709 0 1.66922e+06 115302 0 1.63047e+06 125049 0 1.58957e+06 132303 0 1.5472e+06 137409 0 1.50393e+06 140684 0 1.46022e+06 142419 0 1.41645e+06 142869 0 1.37294e+06 142259 0 1.32994e+06 140782 0 1.28766e+06 138603 0 1.24626e+06 135861 0 1.20587e+06 132675 0 1.16657e+06 129142 0 1.12845e+06 125346 0 1.09156e+06 121352 0 1.05594e+06 117219 0 1.02161e+06 112987 0 1.07026e+06 -445057 0 1.36342e+06 -331246 0 1.48271e+06 -300238 0 1.58431e+06 -258278 0 1.65746e+06 -215183 0 1.71572e+06 -171230 0 1.75795e+06 -127897 0 1.78663e+06 -86345.3 0 1.80251e+06 -47441.6 0 1.807e+06 -11913.8 0 1.80139e+06 19801.9 0 1.7871e+06 47483.8 0 1.76549e+06 71127.1 0 1.73786e+06 90883.3 0 1.70539e+06 107018 0 1.66915e+06 119863 0 1.63004e+06 129784 0 1.58886e+06 137147 0 1.54626e+06 142309 0 1.50281e+06 145597 0 1.45897e+06 147308 0 1.4151e+06 147707 0 1.37153e+06 147022 0 1.3285e+06 145452 0 1.2862e+06 143166 0 1.2448e+06 140306 0 1.20442e+06 136994 0 1.16515e+06 133329 0 1.12707e+06 129395 0 1.09022e+06 125261 0 1.05464e+06 120986 0 1.02036e+06 116612 0 1.11402e+06 -463257 0 1.37119e+06 -349973 0 1.49328e+06 -310540 0 1.59244e+06 -265821 0 1.66538e+06 -220531 0 1.72271e+06 -174833 0 1.76423e+06 -129982 0 1.79205e+06 -87075.5 0 1.8071e+06 -46987.7 0 1.81074e+06 -10437.8 0 1.80432e+06 22136.3 0 1.78928e+06 50523.2 0 1.76699e+06 74730.7 0 1.73876e+06 94926.4 0 1.70577e+06 111393 0 1.66909e+06 124478 0 1.62962e+06 134562 0 1.58814e+06 142026 0 1.54531e+06 147236 0 1.50168e+06 150529 0 1.4577e+06 152212 0 1.41375e+06 152555 0 1.37011e+06 151792 0 1.32704e+06 150126 0 1.28473e+06 147730 0 1.24333e+06 144751 0 1.20296e+06 141310 0 1.16371e+06 137511 0 1.12566e+06 133439 0 1.08885e+06 129165 0 1.05332e+06 124747 0 1.01909e+06 120231 0 1.15237e+06 -479205 0 1.38097e+06 -366998 0 1.50386e+06 -320612 0 1.60093e+06 -273154 0 1.67344e+06 -225720 0 1.72987e+06 -178286 0 1.77062e+06 -131917 0 1.79759e+06 -87660.5 0 1.81177e+06 -46393.9 0 1.81455e+06 -8831.16 0 1.80731e+06 24590 0 1.7915e+06 53668.9 0 1.76851e+06 78426.9 0 1.73967e+06 99048.7 0 1.70616e+06 115834 0 1.66904e+06 129148 0 1.6292e+06 139385 0 1.58743e+06 146940 0 1.54436e+06 152190 0 1.50055e+06 155482 0 1.45643e+06 157131 0 1.41238e+06 157413 0 1.36867e+06 156568 0 1.32556e+06 154803 0 1.28324e+06 152296 0 1.24184e+06 149194 0 1.20148e+06 145624 0 1.16226e+06 141690 0 1.12425e+06 137479 0 1.08748e+06 133064 0 1.05199e+06 128503 0 1.0178e+06 123844 0 1.18646e+06 -493380 0 1.39219e+06 -382566 0 1.51454e+06 -330415 0 1.60973e+06 -280274 0 1.68165e+06 -230744 0 1.73719e+06 -181584 0 1.77715e+06 -133700 0 1.80323e+06 -88098 0 1.81653e+06 -45658.3 0 1.81843e+06 -7092.15 0 1.81035e+06 27164.4 0 1.79376e+06 56922 0 1.77007e+06 82216.6 0 1.74061e+06 103251 0 1.70657e+06 120342 0 1.66899e+06 133872 0 1.62878e+06 144252 0 1.58671e+06 151889 0 1.5434e+06 157171 0 1.49941e+06 160456 0 1.45515e+06 162065 0 1.411e+06 162281 0 1.36723e+06 161350 0 1.32408e+06 159484 0 1.28173e+06 156862 0 1.24033e+06 153636 0 1.19999e+06 149935 0 1.1608e+06 145865 0 1.12281e+06 141515 0 1.08608e+06 136957 0 1.05064e+06 132253 0 1.0165e+06 127450 0 1.21716e+06 -506146 0 1.40445e+06 -396891 0 1.52535e+06 -339920 0 1.6188e+06 -287182 0 1.69002e+06 -235601 0 1.74466e+06 -184725 0 1.78379e+06 -135330 0 1.80898e+06 -88385.7 0 1.82138e+06 -44779.1 0 1.82238e+06 -5219.1 0 1.81345e+06 29860.8 0 1.79606e+06 60283.5 0 1.77166e+06 86100.5 0 1.74157e+06 107533 0 1.70698e+06 124917 0 1.66895e+06 138652 0 1.62836e+06 149164 0 1.58598e+06 156873 0 1.54244e+06 162180 0 1.49826e+06 165450 0 1.45386e+06 167014 0 1.4096e+06 167160 0 1.36577e+06 166139 0 1.32258e+06 164168 0 1.28021e+06 161429 0 1.23881e+06 158078 0 1.19848e+06 154244 0 1.15931e+06 150036 0 1.12136e+06 145545 0 1.08467e+06 140845 0 1.04927e+06 135997 0 1.01518e+06 131050 0 1.24515e+06 -517786 0 1.41744e+06 -410146 0 1.53633e+06 -349113 0 1.62813e+06 -293875 0 1.69855e+06 -240288 0 1.75229e+06 -187707 0 1.79056e+06 -136803 0 1.81484e+06 -88521.3 0 1.82631e+06 -43754.2 0 1.8264e+06 -3210.32 0 1.8166e+06 32680.6 0 1.7984e+06 63754.4 0 1.77327e+06 90079.5 0 1.74254e+06 111896 0 1.70741e+06 129560 0 1.66891e+06 143488 0 1.62794e+06 154121 0 1.58525e+06 161893 0 1.54147e+06 167216 0 1.49709e+06 170466 0 1.45256e+06 171978 0 1.4082e+06 172049 0 1.36429e+06 170935 0 1.32106e+06 168855 0 1.27868e+06 165997 0 1.23727e+06 162518 0 1.19696e+06 158550 0 1.15781e+06 154204 0 1.1199e+06 149571 0 1.08325e+06 144727 0 1.04789e+06 139735 0 1.01385e+06 134645 0 1.27096e+06 -528518 0 1.43093e+06 -422476 0 1.54747e+06 -357988 0 1.63768e+06 -300353 0 1.70724e+06 -244801 0 1.76007e+06 -190527 0 1.79746e+06 -138118 0 1.8208e+06 -88502.5 0 1.83133e+06 -42581.6 0 1.83049e+06 -1064.09 0 1.81979e+06 35625.2 0 1.80078e+06 67335.9 0 1.77491e+06 94154.3 0 1.74353e+06 116341 0 1.70784e+06 134271 0 1.66888e+06 148379 0 1.62752e+06 159122 0 1.58452e+06 166948 0 1.54049e+06 172280 0 1.49592e+06 175501 0 1.45124e+06 176957 0 1.40678e+06 176948 0 1.3628e+06 175737 0 1.31953e+06 173546 0 1.27713e+06 170566 0 1.23572e+06 166957 0 1.19542e+06 162854 0 1.1563e+06 158368 0 1.11841e+06 153592 0 1.0818e+06 148604 0 1.04649e+06 143467 0 1.0125e+06 138232 0 1.29499e+06 -538512 0 1.44477e+06 -434001 0 1.55879e+06 -366545 0 1.64745e+06 -306616 0 1.71608e+06 -249139 0 1.76799e+06 -193183 0 1.80448e+06 -139271 0 1.82687e+06 -88327.1 0 1.83643e+06 -41259.3 0 1.83464e+06 1221.31 0 1.82304e+06 38695.9 0 1.80319e+06 71028.8 0 1.77656e+06 98325.6 0 1.74453e+06 120868 0 1.70828e+06 139050 0 1.66884e+06 153326 0 1.6271e+06 164169 0 1.58378e+06 172039 0 1.53949e+06 177371 0 1.49474e+06 180558 0 1.44991e+06 181951 0 1.40535e+06 181858 0 1.3613e+06 180546 0 1.31798e+06 178240 0 1.27556e+06 175136 0 1.23415e+06 171395 0 1.19387e+06 167155 0 1.15477e+06 162528 0 1.11692e+06 157609 0 1.08034e+06 152476 0 1.04508e+06 147194 0 1.01113e+06 141814 0 1.31757e+06 -547901 0 1.45886e+06 -444822 0 1.57029e+06 -374786 0 1.65743e+06 -312663 0 1.72509e+06 -253300 0 1.77606e+06 -195672 0 1.81162e+06 -140262 0 1.83304e+06 -87992.6 0 1.84162e+06 -39785.3 0 1.83885e+06 3647.62 0 1.82633e+06 41894.1 0 1.80563e+06 74834.4 0 1.77824e+06 102594 0 1.74554e+06 125477 0 1.70872e+06 143898 0 1.6688e+06 158329 0 1.62667e+06 169261 0 1.58303e+06 177166 0 1.53849e+06 182490 0 1.49354e+06 185635 0 1.44857e+06 186960 0 1.4039e+06 186778 0 1.35978e+06 185361 0 1.31642e+06 182938 0 1.27398e+06 179707 0 1.23257e+06 175832 0 1.19229e+06 171453 0 1.15322e+06 166684 0 1.1154e+06 161621 0 1.07887e+06 156343 0 1.04365e+06 150915 0 1.00975e+06 145390 0 1.33895e+06 -556793 0 1.4731e+06 -455025 0 1.58194e+06 -382718 0 1.66759e+06 -318495 0 1.73425e+06 -257282 0 1.78428e+06 -197992 0 1.81889e+06 -141086 0 1.83931e+06 -87496.7 0 1.84688e+06 -38157.3 0 1.84313e+06 6216.58 0 1.82966e+06 45221.1 0 1.8081e+06 78753.4 0 1.77994e+06 106961 0 1.74656e+06 130169 0 1.70916e+06 148814 0 1.66876e+06 163389 0 1.62623e+06 174398 0 1.58227e+06 182328 0 1.53748e+06 187636 0 1.49233e+06 190733 0 1.44722e+06 191984 0 1.40244e+06 191709 0 1.35825e+06 190182 0 1.31485e+06 187639 0 1.27238e+06 184279 0 1.23097e+06 180268 0 1.19071e+06 175748 0 1.15166e+06 170836 0 1.11387e+06 165628 0 1.07738e+06 160203 0 1.0422e+06 154629 0 1.00835e+06 148959 0 1.35934e+06 -565270 0 1.48745e+06 -464681 0 1.59376e+06 -390349 0 1.67793e+06 -324114 0 1.74357e+06 -261083 0 1.79263e+06 -200141 0 1.82627e+06 -141743 0 1.84568e+06 -86836.9 0 1.85222e+06 -36373.4 0 1.84746e+06 8929.94 0 1.83304e+06 48678.2 0 1.81059e+06 82786.9 0 1.78165e+06 111426 0 1.74759e+06 134944 0 1.7096e+06 153800 0 1.66872e+06 168505 0 1.62578e+06 179580 0 1.5815e+06 187527 0 1.53645e+06 192810 0 1.49111e+06 195852 0 1.44584e+06 197023 0 1.40096e+06 196650 0 1.3567e+06 195010 0 1.31325e+06 192343 0 1.27077e+06 188851 0 1.22935e+06 184703 0 1.1891e+06 180041 0 1.15008e+06 174984 0 1.11232e+06 169630 0 1.07587e+06 164059 0 1.04074e+06 158338 0 1.00694e+06 152522 0 1.3789e+06 -573403 0 1.50187e+06 -473851 0 1.60573e+06 -397687 0 1.68844e+06 -329520 0 1.75305e+06 -264703 0 1.80113e+06 -202117 0 1.83378e+06 -142229 0 1.85215e+06 -86010.7 0 1.85764e+06 -34431.2 0 1.85185e+06 11789.5 0 1.83645e+06 52266.8 0 1.81311e+06 86935.9 0 1.78338e+06 115990 0 1.74862e+06 139803 0 1.71005e+06 158855 0 1.66867e+06 173678 0 1.62533e+06 184808 0 1.58072e+06 192760 0 1.53542e+06 198012 0 1.48987e+06 200991 0 1.44446e+06 202077 0 1.39947e+06 201601 0 1.35513e+06 199845 0 1.31164e+06 197051 0 1.26913e+06 193424 0 1.22772e+06 189136 0 1.18748e+06 184331 0 1.14848e+06 179128 0 1.11076e+06 173627 0 1.07435e+06 167909 0 1.03926e+06 162041 0 1.00551e+06 156079 0 1.39776e+06 -581248 0 1.51634e+06 -482585 0 1.61784e+06 -404741 0 1.69912e+06 -334716 0 1.76267e+06 -268140 0 1.80977e+06 -203917 0 1.8414e+06 -142541 0 1.85872e+06 -85015.6 0 1.86313e+06 -32328.6 0 1.85629e+06 14797 0 1.8399e+06 55988.2 0 1.81566e+06 91201.3 0 1.78511e+06 120654 0 1.74966e+06 144746 0 1.71049e+06 163980 0 1.66861e+06 178908 0 1.62486e+06 190081 0 1.57993e+06 198030 0 1.53436e+06 203241 0 1.48862e+06 206151 0 1.44306e+06 207146 0 1.39796e+06 206562 0 1.35355e+06 204685 0 1.31002e+06 201762 0 1.26749e+06 197998 0 1.22607e+06 193569 0 1.18584e+06 188618 0 1.14687e+06 183269 0 1.10918e+06 177619 0 1.07281e+06 171753 0 1.03777e+06 165738 0 1.00406e+06 159629 0 1.41604e+06 -588850 0 1.53083e+06 -490929 0 1.63008e+06 -411521 0 1.70996e+06 -339704 0 1.77246e+06 -271394 0 1.81855e+06 -205539 0 1.84914e+06 -142678 0 1.86538e+06 -83849.1 0 1.8687e+06 -30063.4 0 1.86078e+06 17954.2 0 1.84339e+06 59843.8 0 1.81822e+06 95584 0 1.78686e+06 125419 0 1.7507e+06 149774 0 1.71093e+06 169175 0 1.66855e+06 184194 0 1.62439e+06 195400 0 1.57912e+06 203335 0 1.5333e+06 208497 0 1.48735e+06 211331 0 1.44164e+06 212230 0 1.39643e+06 211533 0 1.35195e+06 209532 0 1.30837e+06 206476 0 1.26582e+06 202573 0 1.2244e+06 198000 0 1.18419e+06 192903 0 1.14524e+06 187405 0 1.10758e+06 181607 0 1.07125e+06 175592 0 1.03626e+06 169429 0 1.0026e+06 163173 0 1.43384e+06 -596250 0 1.54535e+06 -498918 0 1.64246e+06 -418034 0 1.72095e+06 -344485 0 1.78239e+06 -274464 0 1.82747e+06 -206981 0 1.857e+06 -142636 0 1.87213e+06 -82508.5 0 1.87433e+06 -27633.4 0 1.86533e+06 21262.9 0 1.8469e+06 63834.8 0 1.8208e+06 100085 0 1.78861e+06 130285 0 1.75173e+06 154886 0 1.71136e+06 174440 0 1.66847e+06 189537 0 1.6239e+06 200764 0 1.5783e+06 208676 0 1.53221e+06 213781 0 1.48607e+06 216532 0 1.4402e+06 217328 0 1.39489e+06 216514 0 1.35034e+06 214385 0 1.30671e+06 211192 0 1.26414e+06 207148 0 1.22272e+06 202429 0 1.18252e+06 197184 0 1.14359e+06 191537 0 1.10597e+06 185589 0 1.06968e+06 179425 0 1.03473e+06 173114 0 1.00112e+06 166711 0 1.45123e+06 -603480 0 1.5599e+06 -506583 0 1.65496e+06 -424290 0 1.7321e+06 -349063 0 1.79247e+06 -277349 0 1.83652e+06 -208242 0 1.86498e+06 -142412 0 1.87898e+06 -80991.1 0 1.88004e+06 -25036.1 0 1.86992e+06 24725 0 1.85045e+06 67962.5 0 1.8234e+06 104705 0 1.79037e+06 135252 0 1.75277e+06 160083 0 1.71178e+06 179774 0 1.66838e+06 194937 0 1.62339e+06 206173 0 1.57746e+06 214052 0 1.53111e+06 219092 0 1.48477e+06 221753 0 1.43875e+06 222441 0 1.39333e+06 221505 0 1.3487e+06 219244 0 1.30503e+06 215912 0 1.26244e+06 211724 0 1.22101e+06 206857 0 1.18083e+06 201463 0 1.14192e+06 195665 0 1.10434e+06 189567 0 1.06809e+06 183252 0 1.03318e+06 176792 0 999628 170242 0 1.46828e+06 -610571 0 1.57447e+06 -513949 0 1.66757e+06 -430296 0 1.74339e+06 -353440 0 1.80271e+06 -280048 0 1.84571e+06 -209317 0 1.87307e+06 -142005 0 1.88592e+06 -79294.1 0 1.88581e+06 -22269.3 0 1.87455e+06 28342.2 0 1.85402e+06 72228.3 0 1.82601e+06 109445 0 1.79213e+06 140321 0 1.7538e+06 165366 0 1.71219e+06 185179 0 1.66828e+06 200393 0 1.62288e+06 211628 0 1.57661e+06 219464 0 1.53e+06 224430 0 1.48345e+06 226994 0 1.43728e+06 227568 0 1.39175e+06 226506 0 1.34705e+06 224109 0 1.30333e+06 220635 0 1.26072e+06 216300 0 1.21929e+06 211284 0 1.17912e+06 205738 0 1.14024e+06 199789 0 1.10269e+06 193539 0 1.06648e+06 187074 0 1.03162e+06 180465 0 998117 173767 0 1.48506e+06 -617548 0 1.58908e+06 -521039 0 1.6803e+06 -436060 0 1.75483e+06 -357619 0 1.8131e+06 -282561 0 1.85504e+06 -210206 0 1.88127e+06 -141411 0 1.89294e+06 -77414.9 0 1.89164e+06 -19330.6 0 1.87923e+06 32116.2 0 1.85762e+06 76633.2 0 1.82863e+06 114305 0 1.7939e+06 145493 0 1.75482e+06 170734 0 1.71259e+06 190654 0 1.66817e+06 205907 0 1.62234e+06 217128 0 1.57574e+06 224911 0 1.52886e+06 229794 0 1.48211e+06 232256 0 1.43579e+06 232710 0 1.39015e+06 231516 0 1.34537e+06 228980 0 1.30162e+06 225361 0 1.25898e+06 220876 0 1.21755e+06 215709 0 1.17739e+06 210011 0 1.13854e+06 203908 0 1.10102e+06 197506 0 1.06486e+06 190890 0 1.03005e+06 184131 0 996589 177285 0 1.50162e+06 -624436 0 1.60372e+06 -527866 0 1.69314e+06 -441588 0 1.76641e+06 -361604 0 1.82363e+06 -284886 0 1.8645e+06 -210905 0 1.88959e+06 -140626 0 1.90005e+06 -75350.4 0 1.89753e+06 -16217.7 0 1.88394e+06 36048.9 0 1.86123e+06 81178.7 0 1.83126e+06 119287 0 1.79566e+06 150767 0 1.75584e+06 176188 0 1.71298e+06 196199 0 1.66804e+06 211477 0 1.62179e+06 222672 0 1.57485e+06 230393 0 1.5277e+06 235186 0 1.48075e+06 237537 0 1.43428e+06 237866 0 1.38853e+06 236536 0 1.34368e+06 233857 0 1.29988e+06 230089 0 1.25723e+06 225453 0 1.2158e+06 220132 0 1.17565e+06 214280 0 1.13682e+06 208023 0 1.09934e+06 201468 0 1.06321e+06 194700 0 1.02845e+06 187790 0 995046 180797 0 1.51802e+06 -631257 0 1.61841e+06 -534444 0 1.70608e+06 -446889 0 1.77814e+06 -365397 0 1.83432e+06 -287022 0 1.8741e+06 -211413 0 1.89802e+06 -139649 0 1.90725e+06 -73097.8 0 1.90348e+06 -12928.1 0 1.88869e+06 40142.1 0 1.86487e+06 85865.8 0 1.83389e+06 124391 0 1.79741e+06 156145 0 1.75684e+06 181727 0 1.71335e+06 201815 0 1.66789e+06 217103 0 1.62121e+06 228262 0 1.57393e+06 235910 0 1.52653e+06 240604 0 1.47937e+06 242837 0 1.43275e+06 243036 0 1.38689e+06 241566 0 1.34197e+06 238739 0 1.29812e+06 234820 0 1.25545e+06 230030 0 1.21402e+06 224553 0 1.17389e+06 218546 0 1.13509e+06 212134 0 1.09764e+06 205425 0 1.06156e+06 198504 0 1.02684e+06 191444 0 993485 184302 0 1.53432e+06 -638034 0 1.63315e+06 -540779 0 1.71912e+06 -451968 0 1.79001e+06 -369002 0 1.84515e+06 -288968 0 1.88384e+06 -211726 0 1.90656e+06 -138475 0 1.91453e+06 -70654.1 0 1.90949e+06 -9459.42 0 1.89348e+06 44397.6 0 1.86852e+06 90695.8 0 1.83653e+06 129618 0 1.79916e+06 161627 0 1.75783e+06 187352 0 1.71371e+06 207500 0 1.66772e+06 222786 0 1.62062e+06 233896 0 1.573e+06 241461 0 1.52533e+06 246049 0 1.47797e+06 248158 0 1.43119e+06 248219 0 1.38523e+06 246604 0 1.34024e+06 243627 0 1.29635e+06 239553 0 1.25366e+06 234606 0 1.21223e+06 228973 0 1.17211e+06 222808 0 1.13333e+06 216240 0 1.09592e+06 209376 0 1.05988e+06 202302 0 1.02521e+06 195091 0 991908 187800 0 1.55057e+06 -644791 0 1.64794e+06 -546874 0 1.73225e+06 -456834 0 1.80203e+06 -372423 0 1.85614e+06 -290723 0 1.89371e+06 -211842 0 1.91522e+06 -137101 0 1.92189e+06 -68016.2 0 1.91555e+06 -5809.18 0 1.89829e+06 48817 0 1.87219e+06 95669.8 0 1.83917e+06 134968 0 1.8009e+06 167212 0 1.75881e+06 193064 0 1.71404e+06 213255 0 1.66753e+06 228525 0 1.62001e+06 239574 0 1.57205e+06 247047 0 1.52411e+06 251520 0 1.47654e+06 253497 0 1.42962e+06 253417 0 1.38355e+06 251652 0 1.33849e+06 248520 0 1.29456e+06 244289 0 1.25184e+06 239183 0 1.21041e+06 233391 0 1.17031e+06 227067 0 1.13156e+06 220342 0 1.09419e+06 213322 0 1.05819e+06 206094 0 1.02357e+06 198732 0 990315 191292 0 1.56683e+06 -651552 0 1.66279e+06 -552725 0 1.74547e+06 -461496 0 1.8142e+06 -375661 0 1.86728e+06 -292284 0 1.90371e+06 -211757 0 1.92397e+06 -135524 0 1.92933e+06 -65181 0 1.92167e+06 -1974.91 0 1.90314e+06 53402.2 0 1.87587e+06 100789 0 1.8418e+06 140443 0 1.80263e+06 172901 0 1.75977e+06 198861 0 1.71436e+06 219081 0 1.66732e+06 234320 0 1.61937e+06 245296 0 1.57107e+06 252667 0 1.52287e+06 257017 0 1.4751e+06 258856 0 1.42803e+06 258628 0 1.38185e+06 256708 0 1.33672e+06 253418 0 1.29274e+06 249026 0 1.25001e+06 243760 0 1.20858e+06 237806 0 1.16849e+06 231323 0 1.12977e+06 224439 0 1.09243e+06 217262 0 1.05648e+06 209880 0 1.0219e+06 202366 0 988705 194777 0 1.58317e+06 -658347 0 1.67769e+06 -558323 0 1.75877e+06 -465965 0 1.82652e+06 -378720 0 1.87856e+06 -293651 0 1.91385e+06 -211470 0 1.93284e+06 -133740 0 1.93684e+06 -62145.3 0 1.92783e+06 2045.9 0 1.90801e+06 58154.9 0 1.87955e+06 106054 0 1.84443e+06 146042 0 1.80435e+06 178695 0 1.76071e+06 204744 0 1.71466e+06 224976 0 1.66708e+06 240170 0 1.6187e+06 251063 0 1.57007e+06 258321 0 1.5216e+06 262539 0 1.47363e+06 264234 0 1.42641e+06 263852 0 1.38012e+06 261773 0 1.33492e+06 258321 0 1.29091e+06 253766 0 1.24816e+06 248336 0 1.20673e+06 242220 0 1.16666e+06 235575 0 1.12796e+06 228531 0 1.09066e+06 221197 0 1.05475e+06 213660 0 1.02023e+06 205993 0 987078 198255 0 1.59967e+06 -665208 0 1.69263e+06 -563652 0 1.77217e+06 -470255 0 1.83901e+06 -381599 0 1.89e+06 -294821 0 1.92413e+06 -210975 0 1.94181e+06 -131745 0 1.94443e+06 -58905.9 0 1.93403e+06 6255.75 0 1.9129e+06 63076.8 0 1.88324e+06 111467 0 1.84705e+06 151766 0 1.80605e+06 184593 0 1.76163e+06 210713 0 1.71493e+06 230940 0 1.66682e+06 246076 0 1.61802e+06 256873 0 1.56904e+06 264009 0 1.52031e+06 268087 0 1.47214e+06 269630 0 1.42477e+06 269089 0 1.37838e+06 266847 0 1.33311e+06 263229 0 1.28905e+06 258508 0 1.24628e+06 252912 0 1.20486e+06 246631 0 1.1648e+06 239823 0 1.12614e+06 232619 0 1.08887e+06 225126 0 1.053e+06 217434 0 1.01853e+06 209614 0 985435 201726 0 1.61642e+06 -672176 0 1.70758e+06 -568687 0 1.78565e+06 -474385 0 1.85165e+06 -384299 0 1.90159e+06 -295793 0 1.93455e+06 -210270 0 1.95089e+06 -129535 0 1.95209e+06 -55459.3 0 1.94028e+06 10657.2 0 1.9178e+06 68169.6 0 1.88692e+06 117027 0 1.84966e+06 157616 0 1.80773e+06 190596 0 1.76253e+06 216768 0 1.71517e+06 236974 0 1.66654e+06 252038 0 1.6173e+06 262726 0 1.56799e+06 269730 0 1.51899e+06 273659 0 1.47062e+06 275044 0 1.4231e+06 274338 0 1.37661e+06 271929 0 1.33127e+06 268142 0 1.28717e+06 263252 0 1.24439e+06 257487 0 1.20297e+06 251040 0 1.16293e+06 244067 0 1.12429e+06 236701 0 1.08706e+06 229050 0 1.05124e+06 221201 0 1.01682e+06 213228 0 983775 205190 0 1.63356e+06 -679302 0 1.7225e+06 -573392 0 1.79924e+06 -478380 0 1.86446e+06 -386814 0 1.91333e+06 -296566 0 1.9451e+06 -209351 0 1.96006e+06 -127107 0 1.95982e+06 -51802.2 0 1.94657e+06 15252.7 0 1.92273e+06 73435 0 1.89061e+06 122737 0 1.85226e+06 163592 0 1.80939e+06 196704 0 1.7634e+06 222908 0 1.71539e+06 243076 0 1.66622e+06 258054 0 1.61656e+06 268622 0 1.56691e+06 275484 0 1.51765e+06 279257 0 1.46908e+06 280477 0 1.42142e+06 279601 0 1.37482e+06 277019 0 1.32941e+06 273059 0 1.28528e+06 267997 0 1.24248e+06 262062 0 1.20106e+06 255446 0 1.16103e+06 248308 0 1.12243e+06 240779 0 1.08524e+06 232967 0 1.04946e+06 224962 0 1.01509e+06 216836 0 982098 208647 0 1.65123e+06 -686652 0 1.7373e+06 -577719 0 1.81296e+06 -482275 0 1.87742e+06 -389135 0 1.92524e+06 -297142 0 1.95579e+06 -208211 0 1.96934e+06 -124457 0 1.96761e+06 -47931 0 1.95289e+06 20044.7 0 1.92766e+06 78874.6 0 1.89429e+06 128597 0 1.85483e+06 169695 0 1.81102e+06 202916 0 1.76424e+06 229133 0 1.71558e+06 249248 0 1.66588e+06 264124 0 1.61579e+06 274561 0 1.5658e+06 281270 0 1.51628e+06 284879 0 1.46751e+06 285927 0 1.4197e+06 284876 0 1.373e+06 282117 0 1.32753e+06 277980 0 1.28336e+06 272743 0 1.24054e+06 266635 0 1.19912e+06 259849 0 1.15912e+06 252544 0 1.12055e+06 244851 0 1.08339e+06 236879 0 1.04766e+06 228717 0 1.01334e+06 220436 0 980404 212096 0 1.66965e+06 -694311 0 1.75189e+06 -581601 0 1.82687e+06 -486118 0 1.89053e+06 -391247 0 1.9373e+06 -297524 0 1.96662e+06 -206844 0 1.97872e+06 -121581 0 1.97547e+06 -43841.9 0 1.95924e+06 25035.9 0 1.93261e+06 84490 0 1.89796e+06 134608 0 1.85739e+06 175924 0 1.81263e+06 209233 0 1.76505e+06 235444 0 1.71573e+06 255487 0 1.6655e+06 270249 0 1.61498e+06 280541 0 1.56466e+06 287089 0 1.51488e+06 290525 0 1.46592e+06 291394 0 1.41796e+06 290162 0 1.37116e+06 287222 0 1.32562e+06 282906 0 1.28141e+06 277491 0 1.23859e+06 271208 0 1.19717e+06 264250 0 1.15719e+06 256776 0 1.11864e+06 248919 0 1.08153e+06 240785 0 1.04585e+06 232464 0 1.01157e+06 224030 0 978694 215539 0 1.68909e+06 -702395 0 1.76609e+06 -584952 0 1.84105e+06 -489973 0 1.90376e+06 -393124 0 1.94955e+06 -297719 0 1.97757e+06 -205242 0 1.98819e+06 -118475 0 1.98339e+06 -39531.1 0 1.96563e+06 30228.8 0 1.93756e+06 90282.7 0 1.90162e+06 140770 0 1.85993e+06 182280 0 1.81421e+06 215654 0 1.76583e+06 241839 0 1.71585e+06 261794 0 1.66509e+06 276427 0 1.61415e+06 286564 0 1.56349e+06 292940 0 1.51345e+06 296195 0 1.46429e+06 296879 0 1.4162e+06 295460 0 1.3693e+06 292335 0 1.32369e+06 287835 0 1.27945e+06 282239 0 1.23661e+06 275779 0 1.1952e+06 268648 0 1.15524e+06 261004 0 1.11672e+06 252981 0 1.07965e+06 244685 0 1.04401e+06 236206 0 1.00979e+06 227616 0 976966 218974 0 1.70992e+06 -711057 0 1.77966e+06 -587657 0 1.85565e+06 -493931 0 1.91703e+06 -394724 0 1.96203e+06 -297742 0 1.98863e+06 -203392 0 1.99777e+06 -115138 0 1.99136e+06 -34994.9 0 1.97204e+06 35626.3 0 1.9425e+06 96253.6 0 1.90526e+06 147085 0 1.86244e+06 188763 0 1.81576e+06 222179 0 1.76658e+06 248319 0 1.71594e+06 268169 0 1.66464e+06 282658 0 1.61328e+06 292627 0 1.56229e+06 298822 0 1.51199e+06 301888 0 1.46264e+06 302380 0 1.41441e+06 300770 0 1.36741e+06 297455 0 1.32174e+06 292768 0 1.27746e+06 286989 0 1.23461e+06 280350 0 1.19321e+06 273043 0 1.15327e+06 265228 0 1.11478e+06 257037 0 1.07775e+06 248578 0 1.04216e+06 239940 0 1.00799e+06 231196 0 975222 222402 0 </DataArray> 
</PointData> 
<Points> 
<DataArray type="Float32" NumberOfComponents="3"> 