<?xml version="1.0"?> 
<VTKFile type="StructuredGrid" version="0.1"> 
<StructuredGrid WholeExtent="0 31 0 31 0 0"> 
<Piece Extent="0 31 0 31 0 0"> 
<PointData>
<DataArray type="Float32" Name="|E|" format="ascii" NumberOfComponents="3"> 
1.3617e+06 0 0 1.38904e+06 0.0905649 0 1.44839e+06 0.0462629 0 1.51538e+06 0.0211612 0 1.57917e+06 0.00954732 0 1.63459e+06 0.00348584 0 1.67948e+06 0.000522226 0 1.71319e+06 -0.0011363 0 1.73584e+06 -0.00209013 0 1.74801e+06 -0.00265792 0 1.75052e+06 -0.00296651 0 1.74437e+06 -0.0030816 0 1.7306e+06 -0.00305143 0 1.71029e+06 -0.002913 0 1.68448e+06 -0.00270283 0 1.65415e+06 -0.00244781 0 1.62019e+06 -0.00217557 0 1.58341e+06 -0.00190058 0 1.54453e+06 -0.00163698 0 1.50416e+06 -0.00139207 0 1.46283e+06 -0.00117087 0 1.421e+06 -0.000974238 0 1.37903e+06 -0.000802875 0 1.33724e+06 -0.000654459 0 1.29589e+06 -0.000528216 0 1.25518e+06 -0.000420749 0 1.21528e+06 -0.000330806 0 1.17631e+06 -0.000255406 0 1.13839e+06 -0.000192761 0 1.1016e+06 -0.000140607 0 1.06598e+06 -9.81092e-05 0 1.03159e+06 -6.36578e-05 0 1.36161e+06 -1.22935e-06 0 1.389e+06 -2514.92 0 1.44838e+06 -3543.41 0 1.51539e+06 -3623.18 0 1.57918e+06 -3285.46 0 1.6346e+06 -2755.22 0 1.6795e+06 -2153.99 0 1.7132e+06 -1540.73 0 1.73586e+06 -948.188 0 1.74802e+06 -395.037 0 1.75054e+06 107.636 0 1.74438e+06 553.846 0 1.73061e+06 941.306 0 1.7103e+06 1270.55 0 1.68449e+06 1544.15 0 1.65415e+06 1766.1 0 1.62019e+06 1941.23 0 1.58341e+06 2074.73 0 1.54453e+06 2171.84 0 1.50416e+06 2237.6 0 1.46283e+06 2276.67 0 1.421e+06 2293.29 0 1.37903e+06 2291.22 0 1.33724e+06 2273.75 0 1.29589e+06 2243.72 0 1.25518e+06 2203.54 0 1.21527e+06 2155.29 0 1.17631e+06 2100.68 0 1.13839e+06 2041.17 0 1.10159e+06 1977.96 0 1.06598e+06 1912.04 0 1.03159e+06 1844.23 0 1.36134e+06 8.49366e-07 0 1.38885e+06 -5035.1 0 1.44835e+06 -7089.51 0 1.5154e+06 -7247.59 0 1.57922e+06 -6571.47 0 1.63465e+06 -5510.64 0 1.67955e+06 -4308.01 0 1.71325e+06 -3081.4 0 1.7359e+06 -1896.25 0 1.74807e+06 -789.92 0 1.75057e+06 215.445 0 1.74442e+06 1107.87 0 1.73064e+06 1882.79 0 1.71033e+06 2541.26 0 1.68451e+06 3088.45 0 1.65417e+06 3532.35 0 1.6202e+06 3882.58 0 1.58342e+06 4149.57 0 1.54454e+06 4343.78 0 1.50416e+06 4475.27 0 1.46284e+06 4553.4 0 1.421e+06 4586.63 0 1.37903e+06 4582.49 0 1.33724e+06 4547.54 0 1.29589e+06 4487.46 0 1.25517e+06 4407.11 0 1.21527e+06 4310.6 0 1.17631e+06 4201.38 0 1.13839e+06 4082.36 0 1.10159e+06 3955.93 0 1.06597e+06 3824.09 0 1.03158e+06 3688.47 0 1.36089e+06 -7.15256e-07 0 1.38862e+06 -7565.85 0 1.4483e+06 -10641 0 1.51543e+06 -10874.5 0 1.57928e+06 -9858.58 0 1.63473e+06 -8266.47 0 1.67963e+06 -6462.09 0 1.71334e+06 -4621.93 0 1.73598e+06 -2844.08 0 1.74814e+06 -1184.49 0 1.75064e+06 323.598 0 1.74447e+06 1662.26 0 1.73069e+06 2824.63 0 1.71037e+06 3812.31 0 1.68454e+06 4633.07 0 1.6542e+06 5298.88 0 1.62022e+06 5824.19 0 1.58344e+06 6224.63 0 1.54455e+06 6515.9 0 1.50417e+06 6713.11 0 1.46284e+06 6830.27 0 1.421e+06 6880.09 0 1.37903e+06 6873.84 0 1.33724e+06 6821.4 0 1.29588e+06 6731.27 0 1.25517e+06 6610.73 0 1.21526e+06 6465.94 0 1.1763e+06 6302.11 0 1.13838e+06 6123.57 0 1.10158e+06 5933.92 0 1.06596e+06 5736.15 0 1.03157e+06 5532.71 0 1.36025e+06 4.47035e-07 0 1.38829e+06 -10112.4 0 1.44823e+06 -14200.4 0 1.51546e+06 -14505 0 1.57937e+06 -13147.3 0 1.63484e+06 -11022.9 0 1.67975e+06 -8616.26 0 1.71345e+06 -6162.26 0 1.73609e+06 -3791.54 0 1.74824e+06 -1578.61 0 1.75073e+06 432.263 0 1.74455e+06 2217.17 0 1.73076e+06 3766.99 0 1.71043e+06 5083.87 0 1.68459e+06 6178.16 0 1.65423e+06 7065.83 0 1.62025e+06 7766.18 0 1.58346e+06 8300.02 0 1.54456e+06 8688.31 0 1.50418e+06 8951.19 0 1.46285e+06 9107.34 0 1.421e+06 9173.71 0 1.37903e+06 9165.34 0 1.33723e+06 9095.38 0 1.29587e+06 8975.17 0 1.25516e+06 8814.42 0 1.21525e+06 8621.35 0 1.17629e+06 8402.88 0 1.13837e+06 8164.81 0 1.10157e+06 7911.93 0 1.06595e+06 7648.22 0 1.03156e+06 7376.96 0 1.35943e+06 -2.08616e-07 0 1.38786e+06 -12680.1 0 1.44814e+06 -17770.3 0 1.51551e+06 -18140.3 0 1.57949e+06 -16438.3 0 1.63499e+06 -13780.1 0 1.6799e+06 -10770.6 0 1.7136e+06 -7702.34 0 1.73623e+06 -4738.52 0 1.74837e+06 -1972.11 0 1.75085e+06 541.61 0 1.74465e+06 2772.79 0 1.73085e+06 4710.06 0 1.7105e+06 6356.09 0 1.68465e+06 7723.86 0 1.65428e+06 8833.34 0 1.62029e+06 9708.66 0 1.58349e+06 10375.8 0 1.54458e+06 10861.1 0 1.50419e+06 11189.6 0 1.46285e+06 11384.7 0 1.421e+06 11467.6 0 1.37903e+06 11457 0 1.33723e+06 11369.5 0 1.29587e+06 11219.2 0 1.25515e+06 11018.2 0 1.21524e+06 10776.8 0 1.17627e+06 10503.7 0 1.13835e+06 10206.1 0 1.10155e+06 9889.97 0 1.06594e+06 9560.32 0 1.03154e+06 9221.23 0 1.35842e+06 2.08616e-07 0 1.38734e+06 -15274.4 0 1.44803e+06 -21353.2 0 1.51557e+06 -21781.7 0 1.57963e+06 -19731.9 0 1.63516e+06 -16538.3 0 1.68008e+06 -12925 0 1.71379e+06 -9242.08 0 1.73641e+06 -5684.91 0 1.74853e+06 -2364.86 0 1.75099e+06 651.808 0 1.74478e+06 3329.3 0 1.73096e+06 5654 0 1.71059e+06 7629.15 0 1.68472e+06 9270.34 0 1.65434e+06 10601.6 0 1.62034e+06 11651.8 0 1.58352e+06 12452.2 0 1.54461e+06 13034.4 0 1.50421e+06 13428.4 0 1.46286e+06 13662.4 0 1.42101e+06 13761.7 0 1.37902e+06 13748.9 0 1.33722e+06 13643.8 0 1.29586e+06 13463.4 0 1.25513e+06 13222.1 0 1.21522e+06 12932.4 0 1.17626e+06 12604.6 0 1.13833e+06 12247.4 0 1.10153e+06 11868 0 1.06592e+06 11472.4 0 1.03152e+06 11065.5 0 1.35721e+06 -3.57628e-07 0 1.38673e+06 -17900.9 0 1.4479e+06 -24951.8 0 1.51563e+06 -25430.4 0 1.5798e+06 -23028.8 0 1.63537e+06 -19297.7 0 1.6803e+06 -15079.6 0 1.714e+06 -10781.4 0 1.73661e+06 -6630.57 0 1.74872e+06 -2756.68 0 1.75116e+06 763.026 0 1.74493e+06 3886.87 0 1.73108e+06 6598.99 0 1.7107e+06 8903.21 0 1.68481e+06 10817.8 0 1.65441e+06 12370.6 0 1.62039e+06 13595.6 0 1.58356e+06 14529.2 0 1.54464e+06 15208.2 0 1.50423e+06 15667.7 0 1.46287e+06 15940.4 0 1.42101e+06 16056.2 0 1.37902e+06 16041.1 0 1.33721e+06 15918.4 0 1.29584e+06 15707.7 0 1.25512e+06 15426.2 0 1.21521e+06 15088.1 0 1.17624e+06 14705.6 0 1.13831e+06 14288.8 0 1.10151e+06 13846.2 0 1.06589e+06 13384.6 0 1.0315e+06 12909.8 0 1.35581e+06 5.96046e-08 0 1.38603e+06 -20565.6 0 1.44776e+06 -28568.3 0 1.51571e+06 -29087.5 0 1.58e+06 -26329.4 0 1.6356e+06 -22058.5 0 1.68056e+06 -17234.4 0 1.71425e+06 -12320.3 0 1.73685e+06 -7575.39 0 1.74893e+06 -3147.44 0 1.75135e+06 875.435 0 1.7451e+06 4445.67 0 1.73123e+06 7545.2 0 1.71082e+06 10178.4 0 1.68491e+06 12366.2 0 1.65449e+06 14140.6 0 1.62046e+06 15540.3 0 1.58361e+06 16607 0 1.54467e+06 17382.6 0 1.50425e+06 17907.5 0 1.46288e+06 18219 0 1.42101e+06 18351 0 1.37901e+06 18333.6 0 1.3372e+06 18193.2 0 1.29583e+06 17952.3 0 1.2551e+06 17630.4 0 1.21518e+06 17243.9 0 1.17621e+06 16806.7 0 1.13829e+06 16330.3 0 1.10148e+06 15824.4 0 1.06586e+06 15296.8 0 1.03147e+06 14754.2 0 1.3542e+06 -2.38419e-07 0 1.38524e+06 -23274.4 0 1.4476e+06 -32205.2 0 1.5158e+06 -32754.3 0 1.58022e+06 -29634.2 0 1.63588e+06 -24820.9 0 1.68084e+06 -19389.4 0 1.71453e+06 -13858.7 0 1.73711e+06 -8519.24 0 1.74918e+06 -3536.98 0 1.75157e+06 989.203 0 1.74529e+06 5005.88 0 1.7314e+06 8492.81 0 1.71096e+06 11455 0 1.68503e+06 13916 0 1.65458e+06 15911.8 0 1.62053e+06 17486.1 0 1.58366e+06 18685.7 0 1.54471e+06 19557.9 0 1.50427e+06 20148 0 1.46289e+06 20498.1 0 1.42101e+06 20646.3 0 1.37901e+06 20626.5 0 1.33719e+06 20468.3 0 1.29581e+06 20197.1 0 1.25508e+06 19834.8 0 1.21516e+06 19399.9 0 1.17619e+06 18907.9 0 1.13826e+06 18371.9 0 1.10145e+06 17802.6 0 1.06583e+06 17209 0 1.03144e+06 16598.5 0 1.35237e+06 4.17233e-07 0 1.38436e+06 -26033.6 0 1.44743e+06 -35864.7 0 1.5159e+06 -36431.8 0 1.58046e+06 -32943.8 0 1.63618e+06 -27585 0 1.68116e+06 -21544.6 0 1.71485e+06 -15396.5 0 1.73741e+06 -9462.02 0 1.74945e+06 -3925.15 0 1.75182e+06 1104.5 0 1.74551e+06 5567.69 0 1.73158e+06 9441.99 0 1.71112e+06 12733.1 0 1.68516e+06 15467.1 0 1.65469e+06 17684.2 0 1.62061e+06 19432.9 0 1.58372e+06 20765.3 0 1.54475e+06 21733.9 0 1.5043e+06 22389.1 0 1.46291e+06 22777.7 0 1.42102e+06 22942.1 0 1.379e+06 22919.8 0 1.33718e+06 22743.7 0 1.29579e+06 22442.2 0 1.25506e+06 22039.4 0 1.21513e+06 21556 0 1.17616e+06 21009.3 0 1.13823e+06 20413.6 0 1.10142e+06 19780.9 0 1.0658e+06 19121.3 0 1.0314e+06 18442.9 0 1.35033e+06 -5.96046e-08 0 1.3834e+06 -28849.9 0 1.44724e+06 -39549 0 1.51602e+06 -40121.4 0 1.58074e+06 -36258.6 0 1.63651e+06 -30351 0 1.68152e+06 -23700.1 0 1.7152e+06 -16933.6 0 1.73774e+06 -10403.6 0 1.74976e+06 -4311.79 0 1.75209e+06 1221.5 0 1.74575e+06 6131.26 0 1.73179e+06 10392.9 0 1.71129e+06 14012.8 0 1.6853e+06 17019.8 0 1.6548e+06 19458 0 1.62069e+06 21381 0 1.58379e+06 22846 0 1.54479e+06 23910.9 0 1.50433e+06 24631.1 0 1.46292e+06 25058.1 0 1.42102e+06 25238.5 0 1.379e+06 25213.5 0 1.33716e+06 25019.5 0 1.29577e+06 24687.5 0 1.25503e+06 24244.3 0 1.2151e+06 23712.4 0 1.17612e+06 23110.7 0 1.13819e+06 22455.3 0 1.10138e+06 21759.3 0 1.06576e+06 21033.7 0 1.03136e+06 20287.3 0 1.34805e+06 1.19209e-07 0 1.38236e+06 -31730.3 0 1.44704e+06 -43260.1 0 1.51615e+06 -43824.3 0 1.58104e+06 -39579 0 1.63688e+06 -33119.1 0 1.68191e+06 -25855.9 0 1.71558e+06 -18469.9 0 1.7381e+06 -11343.8 0 1.75009e+06 -4696.75 0 1.75239e+06 1340.38 0 1.74601e+06 6696.77 0 1.73201e+06 11345.8 0 1.71148e+06 15294.4 0 1.68545e+06 18574.1 0 1.65492e+06 21233.4 0 1.62079e+06 23330.4 0 1.58386e+06 24927.9 0 1.54485e+06 26088.9 0 1.50436e+06 26874 0 1.46294e+06 27339.2 0 1.42103e+06 27535.4 0 1.37899e+06 27507.8 0 1.33715e+06 27295.7 0 1.29575e+06 26933.2 0 1.255e+06 26449.4 0 1.21507e+06 25868.9 0 1.17609e+06 25212.4 0 1.13815e+06 24497.2 0 1.10134e+06 23737.8 0 1.06572e+06 22946.1 0 1.03132e+06 22131.8 0 1.34553e+06 -5.36442e-07 0 1.38124e+06 -34682.1 0 1.44682e+06 -46999.9 0 1.51629e+06 -47541.6 0 1.58137e+06 -42905.6 0 1.63728e+06 -35889.6 0 1.68233e+06 -28012 0 1.71599e+06 -20005.5 0 1.7385e+06 -12282.6 0 1.75045e+06 -5079.88 0 1.75272e+06 1461.29 0 1.7463e+06 7264.4 0 1.73226e+06 12300.7 0 1.71168e+06 16577.9 0 1.68562e+06 20130.3 0 1.65506e+06 23010.4 0 1.6209e+06 25281.4 0 1.58394e+06 27011.1 0 1.5449e+06 28268.1 0 1.5044e+06 29117.8 0 1.46296e+06 29621.1 0 1.42103e+06 29833.1 0 1.37898e+06 29802.6 0 1.33713e+06 29572.4 0 1.29573e+06 29179.3 0 1.25497e+06 28654.8 0 1.21504e+06 28025.7 0 1.17605e+06 27314.2 0 1.13811e+06 26539.3 0 1.1013e+06 25716.4 0 1.06567e+06 24858.6 0 1.03127e+06 23976.3 0 1.34275e+06 3.57628e-07 0 1.38004e+06 -37713.1 0 1.44659e+06 -50770.1 0 1.51644e+06 -51274.6 0 1.58173e+06 -46238.6 0 1.63771e+06 -38662.6 0 1.68279e+06 -30168.3 0 1.71644e+06 -21540.2 0 1.73892e+06 -13219.8 0 1.75084e+06 -5461.02 0 1.75307e+06 1584.43 0 1.7466e+06 7834.32 0 1.73252e+06 13257.9 0 1.71191e+06 17863.7 0 1.6858e+06 21688.6 0 1.6552e+06 24789.3 0 1.62101e+06 27233.9 0 1.58402e+06 29095.8 0 1.54496e+06 30448.4 0 1.50444e+06 31362.6 0 1.46298e+06 31903.8 0 1.42103e+06 32131.4 0 1.37898e+06 32098 0 1.33711e+06 31849.5 0 1.2957e+06 31425.8 0 1.25494e+06 30860.6 0 1.215e+06 30182.7 0 1.17601e+06 29416.2 0 1.13806e+06 28581.4 0 1.10125e+06 27695.1 0 1.06562e+06 26771.1 0 1.03122e+06 25820.9 0 1.3397e+06 -1.19209e-07 0 1.37878e+06 -40831.7 0 1.44635e+06 -54572.3 0 1.51661e+06 -55024.5 0 1.58212e+06 -49578.5 0 1.63818e+06 -41438.2 0 1.68328e+06 -32324.9 0 1.71693e+06 -23073.9 0 1.73938e+06 -14155.3 0 1.75126e+06 -5840.01 0 1.75344e+06 1709.94 0 1.74693e+06 8406.73 0 1.7328e+06 14217.6 0 1.71214e+06 19151.7 0 1.686e+06 23249 0 1.65536e+06 26570.1 0 1.62113e+06 29188.2 0 1.58411e+06 31181.9 0 1.54502e+06 32630.1 0 1.50448e+06 33608.6 0 1.463e+06 34187.5 0 1.42104e+06 34430.5 0 1.37897e+06 34394 0 1.33709e+06 34127.2 0 1.29567e+06 33672.6 0 1.2549e+06 33066.6 0 1.21496e+06 32339.9 0 1.17596e+06 31518.4 0 1.13801e+06 30623.8 0 1.1012e+06 29673.9 0 1.06557e+06 28683.8 0 1.03117e+06 27665.5 0 1.33636e+06 -3.57628e-07 0 1.37745e+06 -44046.6 0 1.44611e+06 -58407.7 0 1.5168e+06 -58792.7 0 1.58253e+06 -52925.7 0 1.63868e+06 -44216.6 0 1.6838e+06 -34481.8 0 1.71744e+06 -24606.6 0 1.73987e+06 -15089 0 1.75171e+06 -6216.71 0 1.75385e+06 1838.02 0 1.74729e+06 8981.78 0 1.73311e+06 15179.9 0 1.7124e+06 20442.3 0 1.68621e+06 24811.7 0 1.65553e+06 28353 0 1.62126e+06 31144.4 0 1.58421e+06 33269.7 0 1.54509e+06 34813.2 0 1.50452e+06 35855.7 0 1.46302e+06 36472.2 0 1.42105e+06 36730.5 0 1.37896e+06 36690.7 0 1.33707e+06 36405.5 0 1.29564e+06 35920 0 1.25487e+06 35273.1 0 1.21491e+06 34497.5 0 1.17591e+06 33620.9 0 1.13796e+06 32666.3 0 1.10114e+06 31652.8 0 1.06551e+06 30596.5 0 1.03111e+06 29510.2 0 1.33272e+06 4.76837e-07 0 1.37607e+06 -47367.5 0 1.44585e+06 -62277.2 0 1.517e+06 -62580.4 0 1.58298e+06 -56280.4 0 1.63921e+06 -46998.1 0 1.68436e+06 -36639 0 1.71799e+06 -26138.2 0 1.74039e+06 -16020.7 0 1.75219e+06 -6590.95 0 1.75428e+06 1968.83 0 1.74766e+06 9559.67 0 1.73343e+06 16145 0 1.71267e+06 21735.5 0 1.68643e+06 26376.9 0 1.65571e+06 30138.2 0 1.6214e+06 33102.5 0 1.58431e+06 35359.2 0 1.54516e+06 36997.7 0 1.50457e+06 38104.1 0 1.46305e+06 38758 0 1.42105e+06 39031.4 0 1.37895e+06 38988.2 0 1.33705e+06 38684.3 0 1.29561e+06 38167.8 0 1.25483e+06 37479.9 0 1.21487e+06 36655.3 0 1.17586e+06 35723.5 0 1.13791e+06 34708.9 0 1.10108e+06 33631.9 0 1.06545e+06 32509.3 0 1.03105e+06 31354.9 0 1.32874e+06 1.19209e-07 0 1.37465e+06 -50804.5 0 1.44558e+06 -66181.6 0 1.51722e+06 -66389.1 0 1.58345e+06 -59642.9 0 1.63977e+06 -49782.8 0 1.68496e+06 -38796.5 0 1.71858e+06 -27668.6 0 1.74094e+06 -16950.3 0 1.7527e+06 -6962.58 0 1.75473e+06 2102.55 0 1.74806e+06 10140.6 0 1.73377e+06 17113.1 0 1.71296e+06 23031.6 0 1.68667e+06 27944.7 0 1.65589e+06 31925.7 0 1.62154e+06 35062.8 0 1.58442e+06 37450.5 0 1.54524e+06 39183.9 0 1.50461e+06 40353.9 0 1.46307e+06 41044.9 0 1.42106e+06 41333.2 0 1.37894e+06 41286.4 0 1.33703e+06 40963.7 0 1.29557e+06 40416.1 0 1.25478e+06 39687.1 0 1.21482e+06 38813.5 0 1.1758e+06 37826.4 0 1.13785e+06 36751.8 0 1.10102e+06 35611.1 0 1.06539e+06 34422.2 0 1.03098e+06 33199.7 0 1.3244e+06 -1.19209e-07 0 1.37318e+06 -54368.6 0 1.4453e+06 -70121.1 0 1.51746e+06 -70220.2 0 1.58395e+06 -63013.4 0 1.64037e+06 -52570.9 0 1.68559e+06 -40954.2 0 1.71919e+06 -29197.8 0 1.74153e+06 -17877.7 0 1.75323e+06 -7331.43 0 1.75521e+06 2239.35 0 1.74848e+06 10724.7 0 1.73413e+06 18084.3 0 1.71326e+06 24330.7 0 1.68692e+06 29515.3 0 1.65609e+06 33715.8 0 1.6217e+06 37025.3 0 1.58454e+06 39543.8 0 1.54532e+06 41371.7 0 1.50467e+06 42605.1 0 1.4631e+06 43333 0 1.42106e+06 43635.9 0 1.37893e+06 43585.5 0 1.337e+06 43243.9 0 1.29554e+06 42665 0 1.25474e+06 41894.7 0 1.21476e+06 40972 0 1.17575e+06 39929.6 0 1.13779e+06 38794.8 0 1.10096e+06 37590.4 0 1.06532e+06 36335.1 0 1.03091e+06 35044.5 0 1.31968e+06 -4.76837e-07 0 1.3717e+06 -58071.7 0 1.445e+06 -74095.6 0 1.51773e+06 -74075.3 0 1.58448e+06 -66392.1 0 1.641e+06 -55362.6 0 1.68625e+06 -43112.1 0 1.71984e+06 -30725.7 0 1.74214e+06 -18802.8 0 1.7538e+06 -7697.36 0 1.75572e+06 2379.4 0 1.74893e+06 11312.1 0 1.73452e+06 19058.8 0 1.71358e+06 25632.9 0 1.68718e+06 31088.8 0 1.6563e+06 35508.5 0 1.62186e+06 38990.1 0 1.58466e+06 41639.2 0 1.54541e+06 43561.3 0 1.50472e+06 44857.7 0 1.46313e+06 45622.3 0 1.42107e+06 45939.8 0 1.37892e+06 45885.4 0 1.33698e+06 45524.7 0 1.2955e+06 44914.4 0 1.25469e+06 44102.8 0 1.21471e+06 43130.9 0 1.17568e+06 42033 0 1.13772e+06 40838.1 0 1.10089e+06 39569.9 0 1.06525e+06 38248.2 0 1.03084e+06 36889.5 0 1.31454e+06 7.15256e-07 0 1.37021e+06 -61926.5 0 1.4447e+06 -78104.5 0 1.51801e+06 -77956 0 1.58504e+06 -69779.1 0 1.64167e+06 -58158.1 0 1.68695e+06 -45270.2 0 1.72053e+06 -32252.1 0 1.74279e+06 -19725.4 0 1.75439e+06 -8060.19 0 1.75625e+06 2522.89 0 1.74939e+06 11903.1 0 1.73492e+06 20036.9 0 1.71392e+06 26938.5 0 1.68745e+06 32665.4 0 1.65652e+06 37304 0 1.62203e+06 40957.5 0 1.58478e+06 43736.7 0 1.5455e+06 45752.8 0 1.50478e+06 47112 0 1.46316e+06 47913 0 1.42108e+06 48244.7 0 1.37891e+06 48186.2 0 1.33695e+06 47806.3 0 1.29546e+06 47164.4 0 1.25464e+06 46311.4 0 1.21465e+06 45290.1 0 1.17562e+06 44136.8 0 1.13765e+06 42881.5 0 1.10082e+06 41549.5 0 1.06517e+06 40161.4 0 1.03076e+06 38734.5 0 1.30894e+06 -5.96046e-07 0 1.36873e+06 -65947 0 1.44438e+06 -82146.4 0 1.51833e+06 -81864.1 0 1.58563e+06 -73174.3 0 1.64237e+06 -60957.6 0 1.68768e+06 -47428.4 0 1.72125e+06 -33777.1 0 1.74347e+06 -20645.4 0 1.75502e+06 -8419.77 0 1.75681e+06 2669.97 0 1.74988e+06 12497.9 0 1.73534e+06 21018.6 0 1.71427e+06 28247.6 0 1.68774e+06 34245.3 0 1.65676e+06 39102.4 0 1.62221e+06 42927.4 0 1.58492e+06 45836.5 0 1.54559e+06 47946.2 0 1.50484e+06 49367.9 0 1.46319e+06 50205.1 0 1.42108e+06 50550.8 0 1.37889e+06 50488 0 1.33692e+06 50088.6 0 1.29542e+06 49415.1 0 1.25459e+06 48520.5 0 1.21459e+06 47449.7 0 1.17555e+06 46240.8 0 1.13758e+06 44925.2 0 1.10074e+06 43529.3 0 1.06509e+06 42074.8 0 1.03068e+06 40579.5 0 1.30285e+06 7.15256e-07 0 1.36728e+06 -70148.1 0 1.44404e+06 -86219.6 0 1.51867e+06 -85801.7 0 1.58625e+06 -76577.7 0 1.64311e+06 -63761.3 0 1.68845e+06 -49586.8 0 1.722e+06 -35300.4 0 1.74418e+06 -21562.7 0 1.75567e+06 -8775.93 0 1.7574e+06 2820.83 0 1.7504e+06 13096.5 0 1.73578e+06 22004.2 0 1.71464e+06 29560.4 0 1.68805e+06 35828.6 0 1.657e+06 40903.9 0 1.6224e+06 44900.1 0 1.58506e+06 47938.7 0 1.54569e+06 50141.6 0 1.5049e+06 51625.6 0 1.46322e+06 52498.6 0 1.42109e+06 52858.2 0 1.37888e+06 52790.8 0 1.33689e+06 52371.8 0 1.29537e+06 51666.4 0 1.25453e+06 50730 0 1.21452e+06 49609.8 0 1.17548e+06 48345.2 0 1.1375e+06 46969.2 0 1.10066e+06 45509.3 0 1.06501e+06 43988.2 0 1.0306e+06 42424.7 0 1.2962e+06 -5.96046e-07 0 1.36589e+06 -74546.3 0 1.44367e+06 -90321.4 0 1.51905e+06 -89770.9 0 1.5869e+06 -79989.1 0 1.64388e+06 -66569.5 0 1.68926e+06 -51745.2 0 1.72279e+06 -36822.1 0 1.74492e+06 -22477 0 1.75635e+06 -9128.51 0 1.75801e+06 2975.65 0 1.75093e+06 13699.3 0 1.73624e+06 22993.9 0 1.71502e+06 30877 0 1.68836e+06 37415.5 0 1.65725e+06 42708.7 0 1.62259e+06 46875.6 0 1.5852e+06 50043.3 0 1.54579e+06 52339.2 0 1.50496e+06 53885.1 0 1.46325e+06 54793.7 0 1.4211e+06 55166.8 0 1.37886e+06 55094.6 0 1.33686e+06 54655.8 0 1.29533e+06 53918.4 0 1.25447e+06 52940.2 0 1.21446e+06 51770.3 0 1.17541e+06 50449.8 0 1.13742e+06 49013.4 0 1.10058e+06 47489.5 0 1.06492e+06 45901.8 0 1.03051e+06 44269.9 0 1.28895e+06 8.34465e-07 0 1.36459e+06 -79159.4 0 1.44327e+06 -94448.2 0 1.51946e+06 -93774.2 0 1.58757e+06 -83408.1 0 1.64469e+06 -69382.4 0 1.69009e+06 -53903.5 0 1.72361e+06 -38342.1 0 1.7457e+06 -23388.4 0 1.75707e+06 -9477.33 0 1.75865e+06 3134.59 0 1.75149e+06 14306.3 0 1.73671e+06 23987.7 0 1.71542e+06 32197.7 0 1.68869e+06 39006 0 1.65751e+06 44516.8 0 1.6228e+06 48854.1 0 1.58535e+06 52150.6 0 1.54589e+06 54539.1 0 1.50503e+06 56146.5 0 1.46329e+06 57090.3 0 1.42111e+06 57476.7 0 1.37885e+06 57399.5 0 1.33682e+06 56940.7 0 1.29528e+06 56171.1 0 1.25441e+06 55150.9 0 1.21439e+06 53931.2 0 1.17533e+06 52554.9 0 1.13734e+06 51057.8 0 1.10049e+06 49469.8 0 1.06483e+06 47815.5 0 1.03042e+06 46115.3 0 1.28102e+06 -9.53674e-07 0 1.36341e+06 -84006.9 0 1.44283e+06 -98595.5 0 1.51992e+06 -97814.3 0 1.58827e+06 -86834.4 0 1.64554e+06 -72200.3 0 1.69097e+06 -56061.8 0 1.72447e+06 -39860.1 0 1.74651e+06 -24296.7 0 1.75781e+06 -9822.22 0 1.75931e+06 3297.83 0 1.75207e+06 14917.8 0 1.73721e+06 24986 0 1.71584e+06 33522.5 0 1.68903e+06 40600.5 0 1.65779e+06 46328.4 0 1.62301e+06 50835.7 0 1.58551e+06 54260.6 0 1.54601e+06 56741.3 0 1.5051e+06 58409.9 0 1.46333e+06 59388.7 0 1.42111e+06 59788 0 1.37883e+06 59705.5 0 1.33679e+06 59226.6 0 1.29523e+06 58424.6 0 1.25435e+06 57362.2 0 1.21432e+06 56092.6 0 1.17525e+06 54660.2 0 1.13725e+06 53102.5 0 1.1004e+06 51450.4 0 1.06474e+06 49729.3 0 1.03032e+06 47960.7 0 1.27235e+06 1.43051e-06 0 1.3624e+06 -89109.8 0 1.44233e+06 -102758 0 1.52044e+06 -101894 0 1.58899e+06 -90267.2 0 1.64643e+06 -75023.6 0 1.69187e+06 -58219.8 0 1.72536e+06 -41376.3 0 1.74735e+06 -25201.7 0 1.75858e+06 -10163 0 1.76e+06 3465.53 0 1.75268e+06 15534 0 1.73773e+06 25988.8 0 1.71628e+06 34851.7 0 1.68939e+06 42198.9 0 1.65807e+06 48143.6 0 1.62323e+06 52820.5 0 1.58567e+06 56373.3 0 1.54612e+06 58945.8 0 1.50518e+06 60675.3 0 1.46336e+06 61688.7 0 1.42112e+06 62100.7 0 1.37882e+06 62012.8 0 1.33675e+06 61513.4 0 1.29518e+06 60678.8 0 1.25428e+06 59574.1 0 1.21424e+06 58254.4 0 1.17517e+06 56766 0 1.13716e+06 55147.5 0 1.1003e+06 53431.1 0 1.06464e+06 51643.3 0 1.03022e+06 49806.2 0 1.26284e+06 -1.19209e-06 0 1.36161e+06 -94491.5 0 1.44176e+06 -106928 0 1.52101e+06 -106018 0 1.58973e+06 -93705.8 0 1.64736e+06 -77852.6 0 1.69281e+06 -60377.5 0 1.72629e+06 -42890.3 0 1.74822e+06 -26103.4 0 1.75938e+06 -10499.5 0 1.76072e+06 3637.88 0 1.7533e+06 16155 0 1.73827e+06 26996.4 0 1.71673e+06 36185.5 0 1.68976e+06 43801.6 0 1.65836e+06 49962.7 0 1.62346e+06 54808.7 0 1.58584e+06 58489.1 0 1.54624e+06 61152.9 0 1.50525e+06 62942.8 0 1.4634e+06 63990.6 0 1.42113e+06 64414.9 0 1.3788e+06 64321.2 0 1.33672e+06 63801.2 0 1.29512e+06 62933.8 0 1.25422e+06 61786.7 0 1.21416e+06 60416.8 0 1.17508e+06 58872.1 0 1.13707e+06 57192.8 0 1.10021e+06 55412.1 0 1.06454e+06 53557.4 0 1.03012e+06 51651.9 0 1.25241e+06 7.15256e-07 0 1.36109e+06 -100177 0 1.4411e+06 -111097 0 1.52166e+06 -110189 0 1.59049e+06 -97149.1 0 1.64834e+06 -80687.7 0 1.69379e+06 -62534.9 0 1.72725e+06 -44402.1 0 1.74912e+06 -27001.6 0 1.76021e+06 -10831.5 0 1.76146e+06 3815.02 0 1.75395e+06 16781.1 0 1.73882e+06 28008.9 0 1.71719e+06 37523.9 0 1.69014e+06 45408.5 0 1.65867e+06 51785.6 0 1.62369e+06 56800.3 0 1.58602e+06 60607.8 0 1.54636e+06 63362.6 0 1.50533e+06 65212.6 0 1.46344e+06 66294.2 0 1.42114e+06 66730.7 0 1.37878e+06 66630.9 0 1.33668e+06 66090 0 1.29506e+06 65189.7 0 1.25415e+06 63999.9 0 1.21408e+06 62579.7 0 1.17499e+06 60978.7 0 1.13697e+06 59238.4 0 1.1001e+06 57393.3 0 1.06444e+06 55471.6 0 1.03001e+06 53497.7 0 1.24093e+06 -7.15256e-07 0 1.36092e+06 -106195 0 1.44032e+06 -115256 0 1.52239e+06 -114413 0 1.59125e+06 -100596 0 1.64936e+06 -83529.4 0 1.69479e+06 -64691.7 0 1.72825e+06 -45911.6 0 1.75006e+06 -27896.3 0 1.76107e+06 -11158.8 0 1.76223e+06 3997.13 0 1.75463e+06 17412.4 0 1.7394e+06 29026.5 0 1.71768e+06 38867.2 0 1.69054e+06 47020 0 1.65898e+06 53612.6 0 1.62394e+06 58795.6 0 1.5862e+06 62729.6 0 1.54649e+06 65575 0 1.50541e+06 67484.6 0 1.46348e+06 68599.9 0 1.42115e+06 69048.1 0 1.37876e+06 68942 0 1.33664e+06 68379.9 0 1.29501e+06 67446.4 0 1.25407e+06 66213.8 0 1.214e+06 64743.1 0 1.1749e+06 63085.6 0 1.13687e+06 61284.3 0 1.1e+06 59374.7 0 1.06433e+06 57386 0 1.0299e+06 55343.6 0 1.22827e+06 1.43051e-06 0 1.36117e+06 -112576 0 1.43939e+06 -119392 0 1.52322e+06 -118694 0 1.59203e+06 -104045 0 1.65043e+06 -86378.1 0 1.69583e+06 -66847.9 0 1.72929e+06 -47418.6 0 1.75102e+06 -28787.3 0 1.76196e+06 -11481.2 0 1.76302e+06 4184.35 0 1.75532e+06 18049.1 0 1.74e+06 30049.3 0 1.71818e+06 40215.6 0 1.69094e+06 48636.1 0 1.65931e+06 55443.9 0 1.62419e+06 60794.6 0 1.58639e+06 64854.8 0 1.54662e+06 67790.2 0 1.50549e+06 69759.1 0 1.46353e+06 70907.4 0 1.42116e+06 71367.1 0 1.37875e+06 71254.4 0 1.33659e+06 70670.9 0 1.29495e+06 69704 0 1.254e+06 68428.4 0 1.21391e+06 66907.1 0 1.1748e+06 65193 0 1.13677e+06 63330.5 0 1.09989e+06 61356.4 0 1.06422e+06 59300.6 0 1.02979e+06 57189.6 0 </DataArray> 
</PointData> 
<Points> 
<DataArray type="Float32" NumberOfComponents="3"> 