<?xml version="1.0"?> 
<VTKFile type="StructuredGrid" version="0.1"> 
<StructuredGrid WholeExtent="0 31 0 31 0 0"> 
<Piece Extent="0 31 0 31 0 0"> 
<PointData>
<DataArray type="Float32" Name="|E|" format="ascii" NumberOfComponents="3"> 
-1.27637e+06 0 0 -1.27654e+06 31013 0 -1.27703e+06 62038.5 0 -1.27785e+06 93089.1 0 -1.27899e+06 124177 0 -1.28045e+06 155316 0 -1.28223e+06 186517 0 -1.28434e+06 217794 0 -1.28677e+06 249158 0 -1.28951e+06 280622 0 -1.29258e+06 312199 0 -1.29596e+06 343900 0 -1.29966e+06 375738 0 -1.30367e+06 407725 0 -1.308e+06 439872 0 -1.31264e+06 472192 0 -1.31759e+06 504695 0 -1.32286e+06 537392 0 -1.32843e+06 570295 0 -1.33432e+06 603414 0 -1.34051e+06 636759 0 -1.34702e+06 670338 0 -1.35383e+06 704161 0 -1.36097e+06 738236 0 -1.36842e+06 772569 0 -1.37619e+06 807166 0 -1.38429e+06 842032 0 -1.39274e+06 877169 0 -1.40152e+06 912579 0 -1.41068e+06 948261 0 -1.4202e+06 984211 0 -1.43013e+06 1.02042e+06 0 -1.26344e+06 0 0 -1.26359e+06 31060.9 0 -1.26405e+06 62134.5 0 -1.26484e+06 93233.2 0 -1.26593e+06 124369 0 -1.26735e+06 155556 0 -1.26908e+06 186804 0 -1.27112e+06 218127 0 -1.27348e+06 249537 0 -1.27615e+06 281046 0 -1.27913e+06 312666 0 -1.28242e+06 344410 0 -1.28603e+06 376289 0 -1.28994e+06 408316 0 -1.29416e+06 440501 0 -1.29868e+06 472858 0 -1.30351e+06 505396 0 -1.30864e+06 538127 0 -1.31408e+06 571063 0 -1.31982e+06 604213 0 -1.32586e+06 637587 0 -1.33221e+06 671195 0 -1.33887e+06 705046 0 -1.34584e+06 739149 0 -1.35312e+06 773510 0 -1.36072e+06 808137 0 -1.36864e+06 843034 0 -1.3769e+06 878205 0 -1.3855e+06 913653 0 -1.39446e+06 949378 0 -1.40379e+06 985378 0 -1.41352e+06 1.02165e+06 0 -1.25046e+06 0 0 -1.25058e+06 31105.9 0 -1.25102e+06 62224.7 0 -1.25177e+06 93368.5 0 -1.25283e+06 124550 0 -1.25419e+06 155781 0 -1.25587e+06 187073 0 -1.25785e+06 218440 0 -1.26014e+06 249892 0 -1.26274e+06 281443 0 -1.26564e+06 313104 0 -1.26884e+06 344888 0 -1.27235e+06 376805 0 -1.27615e+06 408869 0 -1.28026e+06 441090 0 -1.28467e+06 473480 0 -1.28937e+06 506051 0 -1.29438e+06 538814 0 -1.29968e+06 571779 0 -1.30528e+06 604957 0 -1.31118e+06 638359 0 -1.31737e+06 671993 0 -1.32387e+06 705870 0 -1.33067e+06 739999 0 -1.33778e+06 774386 0 -1.3452e+06 809039 0 -1.35294e+06 843965 0 -1.36101e+06 879168 0 -1.36942e+06 914652 0 -1.37819e+06 950419 0 -1.38733e+06 986468 0 -1.39686e+06 1.0228e+06 0 -1.23742e+06 0 0 -1.23752e+06 31148 0 -1.23793e+06 62309.1 0 -1.23865e+06 93495.2 0 -1.23967e+06 124719 0 -1.24098e+06 155991 0 -1.2426e+06 187325 0 -1.24453e+06 218732 0 -1.24675e+06 250225 0 -1.24927e+06 281815 0 -1.25209e+06 313514 0 -1.2552e+06 345334 0 -1.25861e+06 377287 0 -1.26232e+06 409385 0 -1.26632e+06 441639 0 -1.27061e+06 474060 0 -1.27519e+06 506661 0 -1.28007e+06 539452 0 -1.28524e+06 572444 0 -1.29069e+06 605648 0 -1.29644e+06 639074 0 -1.30249e+06 672733 0 -1.30882e+06 706633 0 -1.31546e+06 740784 0 -1.32239e+06 775195 0 -1.32964e+06 809873 0 -1.3372e+06 844826 0 -1.34508e+06 880058 0 -1.3533e+06 915576 0 -1.36187e+06 951382 0 -1.37081e+06 987479 0 -1.38014e+06 1.02386e+06 0 -1.22432e+06 0 0 -1.22441e+06 31187.3 0 -1.22479e+06 62387.8 0 -1.22547e+06 93613.3 0 -1.22645e+06 124876 0 -1.22772e+06 156187 0 -1.22929e+06 187560 0 -1.23115e+06 219005 0 -1.2333e+06 250534 0 -1.23575e+06 282160 0 -1.23849e+06 313894 0 -1.24151e+06 345749 0 -1.24483e+06 377734 0 -1.24844e+06 409863 0 -1.25233e+06 442147 0 -1.25651e+06 474598 0 -1.26097e+06 507225 0 -1.26572e+06 540042 0 -1.27075e+06 573058 0 -1.27607e+06 606285 0 -1.28167e+06 639734 0 -1.28756e+06 673413 0 -1.29374e+06 707334 0 -1.30021e+06 741506 0 -1.30697e+06 775938 0 -1.31404e+06 810639 0 -1.32142e+06 845615 0 -1.32911e+06 880875 0 -1.33714e+06 916424 0 -1.34551e+06 952267 0 -1.35425e+06 988408 0 -1.36337e+06 1.02485e+06 0 -1.21118e+06 0 0 -1.21124e+06 31223.8 0 -1.2116e+06 62460.9 0 -1.21225e+06 93723 0 -1.21318e+06 125022 0 -1.21441e+06 156369 0 -1.21592e+06 187777 0 -1.21772e+06 219257 0 -1.21981e+06 250821 0 -1.22218e+06 282480 0 -1.22484e+06 314247 0 -1.22778e+06 346132 0 -1.231e+06 378148 0 -1.23451e+06 410305 0 -1.23829e+06 442616 0 -1.24235e+06 475092 0 -1.2467e+06 507745 0 -1.25132e+06 540584 0 -1.25622e+06 573622 0 -1.2614e+06 606870 0 -1.26685e+06 640337 0 -1.27259e+06 674035 0 -1.27861e+06 707974 0 -1.28491e+06 742164 0 -1.29151e+06 776615 0 -1.2984e+06 811335 0 -1.30559e+06 846333 0 -1.3131e+06 881617 0 -1.32093e+06 917194 0 -1.3291e+06 953072 0 -1.33763e+06 989254 0 -1.34654e+06 1.02575e+06 0 -1.19798e+06 0 0 -1.19803e+06 31257.5 0 -1.19836e+06 62528.4 0 -1.19897e+06 93824.3 0 -1.19986e+06 125157 0 -1.20104e+06 156538 0 -1.2025e+06 187978 0 -1.20424e+06 219490 0 -1.20626e+06 251085 0 -1.20856e+06 282775 0 -1.21114e+06 314571 0 -1.21399e+06 346484 0 -1.21712e+06 378527 0 -1.22053e+06 410711 0 -1.22421e+06 443046 0 -1.22816e+06 475545 0 -1.23238e+06 508219 0 -1.23688e+06 541079 0 -1.24164e+06 574136 0 -1.24668e+06 607401 0 -1.25199e+06 640885 0 -1.25758e+06 674599 0 -1.26344e+06 708553 0 -1.26958e+06 742758 0 -1.27601e+06 777225 0 -1.28272e+06 811961 0 -1.28973e+06 846978 0 -1.29705e+06 882283 0 -1.30468e+06 917887 0 -1.31265e+06 953795 0 -1.32097e+06 990016 0 -1.32967e+06 1.02655e+06 0 -1.18473e+06 0 0 -1.18476e+06 31288.4 0 -1.18506e+06 62590.4 0 -1.18564e+06 93917.3 0 -1.1865e+06 125281 0 -1.18763e+06 156692 0 -1.18903e+06 188162 0 -1.19072e+06 219704 0 -1.19267e+06 251327 0 -1.1949e+06 283045 0 -1.19739e+06 314867 0 -1.20016e+06 346806 0 -1.2032e+06 378873 0 -1.20651e+06 411080 0 -1.21008e+06 443437 0 -1.21392e+06 475956 0 -1.21802e+06 508649 0 -1.22239e+06 541526 0 -1.22703e+06 574599 0 -1.23193e+06 607879 0 -1.2371e+06 641377 0 -1.24253e+06 675104 0 -1.24824e+06 709071 0 -1.25421e+06 743289 0 -1.26046e+06 777767 0 -1.267e+06 812518 0 -1.27383e+06 847550 0 -1.28095e+06 882874 0 -1.28839e+06 918499 0 -1.29615e+06 954435 0 -1.30426e+06 990691 0 -1.31274e+06 1.02727e+06 0 -1.17143e+06 0 0 -1.17144e+06 31316.6 0 -1.17171e+06 62646.9 0 -1.17226e+06 94002 0 -1.17308e+06 125393 0 -1.17416e+06 156832 0 -1.17552e+06 188330 0 -1.17714e+06 219898 0 -1.17903e+06 251547 0 -1.18118e+06 283290 0 -1.1836e+06 315136 0 -1.18629e+06 347098 0 -1.18923e+06 379186 0 -1.19244e+06 411413 0 -1.19591e+06 443789 0 -1.19964e+06 476326 0 -1.20362e+06 509034 0 -1.20787e+06 541926 0 -1.21238e+06 575013 0 -1.21714e+06 608305 0 -1.22216e+06 641814 0 -1.22745e+06 675551 0 -1.23299e+06 709528 0 -1.2388e+06 743755 0 -1.24489e+06 778243 0 -1.25124e+06 813004 0 -1.25789e+06 848049 0 -1.26482e+06 883388 0 -1.27206e+06 919032 0 -1.27961e+06 954992 0 -1.28751e+06 991278 0 -1.29576e+06 1.0279e+06 0 -1.15808e+06 0 0 -1.15807e+06 31342.1 0 -1.15832e+06 62698 0 -1.15883e+06 94078.6 0 -1.15961e+06 125495 0 -1.16065e+06 156959 0 -1.16195e+06 188481 0 -1.16351e+06 220073 0 -1.16534e+06 251746 0 -1.16742e+06 283510 0 -1.16976e+06 315378 0 -1.17236e+06 347359 0 -1.17522e+06 379467 0 -1.17833e+06 411711 0 -1.18169e+06 444103 0 -1.18531e+06 476654 0 -1.18918e+06 509376 0 -1.19331e+06 542280 0 -1.19768e+06 575377 0 -1.20231e+06 608678 0 -1.20719e+06 642196 0 -1.21232e+06 675940 0 -1.21771e+06 709923 0 -1.22336e+06 744157 0 -1.22927e+06 778652 0 -1.23545e+06 813420 0 -1.24191e+06 848474 0 -1.24865e+06 883824 0 -1.25569e+06 919483 0 -1.26303e+06 955463 0 -1.27071e+06 991775 0 -1.27873e+06 1.02843e+06 0 -1.14469e+06 0 0 -1.14465e+06 31365 0 -1.14487e+06 62743.7 0 -1.14535e+06 94147.2 0 -1.14609e+06 125586 0 -1.14709e+06 157073 0 -1.14834e+06 188617 0 -1.14984e+06 220229 0 -1.1516e+06 251922 0 -1.15361e+06 283706 0 -1.15588e+06 315592 0 -1.15839e+06 347591 0 -1.16116e+06 379714 0 -1.16417e+06 411973 0 -1.16744e+06 444379 0 -1.17095e+06 476942 0 -1.1747e+06 509674 0 -1.1787e+06 542587 0 -1.18295e+06 575692 0 -1.18744e+06 609000 0 -1.19218e+06 642522 0 -1.19716e+06 676271 0 -1.2024e+06 710258 0 -1.20788e+06 744495 0 -1.21362e+06 778993 0 -1.21963e+06 813766 0 -1.2259e+06 848825 0 -1.23244e+06 884183 0 -1.23928e+06 919853 0 -1.24642e+06 955848 0 -1.25387e+06 992181 0 -1.26167e+06 1.02887e+06 0 -1.13124e+06 0 0 -1.13119e+06 31385.1 0 -1.13138e+06 62784.1 0 -1.13183e+06 94207.7 0 -1.13253e+06 125667 0 -1.13348e+06 157173 0 -1.13468e+06 188736 0 -1.13612e+06 220367 0 -1.13782e+06 252077 0 -1.13976e+06 283878 0 -1.14195e+06 315779 0 -1.14438e+06 347793 0 -1.14706e+06 379930 0 -1.14998e+06 412200 0 -1.15314e+06 444617 0 -1.15654e+06 477189 0 -1.16018e+06 509929 0 -1.16406e+06 542848 0 -1.16818e+06 575958 0 -1.17253e+06 609269 0 -1.17713e+06 642794 0 -1.18197e+06 676544 0 -1.18705e+06 710532 0 -1.19237e+06 744769 0 -1.19794e+06 779268 0 -1.20377e+06 814041 0 -1.20985e+06 849102 0 -1.2162e+06 884464 0 -1.22284e+06 920140 0 -1.22976e+06 956146 0 -1.23699e+06 992496 0 -1.24456e+06 1.02921e+06 0 -1.11775e+06 0 0 -1.11768e+06 31402.7 0 -1.11785e+06 62819.2 0 -1.11826e+06 94260.4 0 -1.11892e+06 125737 0 -1.11982e+06 157259 0 -1.12097e+06 188839 0 -1.12236e+06 220486 0 -1.12399e+06 252211 0 -1.12586e+06 284026 0 -1.12798e+06 315940 0 -1.13033e+06 347966 0 -1.13292e+06 380113 0 -1.13574e+06 412393 0 -1.1388e+06 444817 0 -1.14209e+06 477396 0 -1.14562e+06 510141 0 -1.14938e+06 543064 0 -1.15337e+06 576175 0 -1.15759e+06 609487 0 -1.16205e+06 643012 0 -1.16674e+06 676760 0 -1.17166e+06 710745 0 -1.17682e+06 744979 0 -1.18222e+06 779475 0 -1.18787e+06 814245 0 -1.19377e+06 849304 0 -1.19993e+06 884665 0 -1.20636e+06 920344 0 -1.21307e+06 956356 0 -1.22008e+06 992717 0 -1.22741e+06 1.02944e+06 0 -1.10422e+06 0 0 -1.10412e+06 31417.6 0 -1.10426e+06 62849.2 0 -1.10464e+06 94305.3 0 -1.10526e+06 125796 0 -1.10612e+06 157333 0 -1.10722e+06 188926 0 -1.10855e+06 220586 0 -1.11012e+06 252324 0 -1.11192e+06 284150 0 -1.11396e+06 316075 0 -1.11623e+06 348109 0 -1.11873e+06 380265 0 -1.12146e+06 412551 0 -1.12442e+06 444980 0 -1.12761e+06 477563 0 -1.13102e+06 510310 0 -1.13466e+06 543234 0 -1.13852e+06 576344 0 -1.14262e+06 609654 0 -1.14693e+06 643175 0 -1.15147e+06 676919 0 -1.15624e+06 710898 0 -1.16124e+06 745126 0 -1.16648e+06 779614 0 -1.17195e+06 814378 0 -1.17766e+06 849431 0 -1.18363e+06 884788 0 -1.18985e+06 920465 0 -1.19635e+06 956477 0 -1.20313e+06 992844 0 -1.21022e+06 1.02958e+06 0 -1.09064e+06 0 0 -1.09052e+06 31430 0 -1.09063e+06 62874 0 -1.09098e+06 94342.4 0 -1.09157e+06 125846 0 -1.09238e+06 157394 0 -1.09343e+06 188998 0 -1.0947e+06 220669 0 -1.09621e+06 252416 0 -1.09794e+06 284251 0 -1.0999e+06 316183 0 -1.10209e+06 348224 0 -1.10451e+06 380385 0 -1.10714e+06 412675 0 -1.11e+06 445107 0 -1.11308e+06 477691 0 -1.11638e+06 510437 0 -1.11991e+06 543359 0 -1.12365e+06 576466 0 -1.1276e+06 609770 0 -1.13178e+06 643285 0 -1.13618e+06 677021 0 -1.1408e+06 710991 0 -1.14564e+06 745209 0 -1.1507e+06 779687 0 -1.156e+06 814441 0 -1.16152e+06 849484 0 -1.16729e+06 884832 0 -1.17331e+06 920501 0 -1.1796e+06 956509 0 -1.18615e+06 992876 0 -1.193e+06 1.02962e+06 0 -1.07701e+06 0 0 -1.07687e+06 31439.9 0 -1.07696e+06 62893.7 0 -1.07728e+06 94371.9 0 -1.07782e+06 125885 0 -1.07859e+06 157442 0 -1.07959e+06 189055 0 -1.08081e+06 220733 0 -1.08225e+06 252488 0 -1.08392e+06 284328 0 -1.08581e+06 316266 0 -1.08791e+06 348311 0 -1.09024e+06 380474 0 -1.09279e+06 412766 0 -1.09555e+06 445197 0 -1.09852e+06 477779 0 -1.10171e+06 510522 0 -1.10512e+06 543439 0 -1.10873e+06 576539 0 -1.11256e+06 609836 0 -1.1166e+06 643340 0 -1.12085e+06 677066 0 -1.12532e+06 711024 0 -1.13e+06 745228 0 -1.1349e+06 779693 0 -1.14001e+06 814432 0 -1.14536e+06 849461 0 -1.15093e+06 884796 0 -1.15675e+06 920453 0 -1.16281e+06 956452 0 -1.16914e+06 992812 0 -1.17575e+06 1.02955e+06 0 -1.06334e+06 0 0 -1.06318e+06 31447.2 0 -1.06325e+06 62908.4 0 -1.06353e+06 94393.8 0 -1.06404e+06 125913 0 -1.06476e+06 157478 0 -1.06571e+06 189096 0 -1.06687e+06 220780 0 -1.06825e+06 252539 0 -1.06985e+06 284383 0 -1.07167e+06 316323 0 -1.0737e+06 348369 0 -1.07594e+06 380532 0 -1.07839e+06 412823 0 -1.08105e+06 445251 0 -1.08393e+06 477828 0 -1.08701e+06 510566 0 -1.09029e+06 543474 0 -1.09379e+06 576565 0 -1.09749e+06 609851 0 -1.10139e+06 643343 0 -1.1055e+06 677054 0 -1.10981e+06 710997 0 -1.11433e+06 745185 0 -1.11906e+06 779632 0 -1.12401e+06 814353 0 -1.12917e+06 849364 0 -1.13455e+06 884681 0 -1.14016e+06 920321 0 -1.14601e+06 956305 0 -1.15211e+06 992653 0 -1.15847e+06 1.02939e+06 0 -1.04963e+06 0 0 -1.04945e+06 31452 0 -1.04949e+06 62918.1 0 -1.04974e+06 94408.2 0 -1.05021e+06 125932 0 -1.05089e+06 157500 0 -1.05179e+06 189123 0 -1.0529e+06 220809 0 -1.05422e+06 252570 0 -1.05575e+06 284415 0 -1.05749e+06 316355 0 -1.05944e+06 348400 0 -1.0616e+06 380560 0 -1.06396e+06 412846 0 -1.06653e+06 445269 0 -1.0693e+06 477839 0 -1.07227e+06 510568 0 -1.07544e+06 543466 0 -1.07881e+06 576545 0 -1.08238e+06 609816 0 -1.08615e+06 643293 0 -1.09011e+06 676987 0 -1.09428e+06 710911 0 -1.09864e+06 745079 0 -1.10321e+06 779505 0 -1.10797e+06 814204 0 -1.11295e+06 849192 0 -1.11814e+06 884486 0 -1.12354e+06 920105 0 -1.12918e+06 956068 0 -1.13505e+06 992397 0 -1.14117e+06 1.02912e+06 0 -1.03588e+06 0 0 -1.03568e+06 31454.4 0 -1.03569e+06 62922.9 0 -1.03591e+06 94415.2 0 -1.03634e+06 125941 0 -1.03698e+06 157511 0 -1.03783e+06 189134 0 -1.03888e+06 220821 0 -1.04014e+06 252581 0 -1.04161e+06 284424 0 -1.04328e+06 316361 0 -1.04515e+06 348402 0 -1.04722e+06 380557 0 -1.04949e+06 412837 0 -1.05196e+06 445252 0 -1.05463e+06 477812 0 -1.05749e+06 510529 0 -1.06055e+06 543414 0 -1.0638e+06 576477 0 -1.06724e+06 609732 0 -1.07088e+06 643190 0 -1.0747e+06 676864 0 -1.07872e+06 710766 0 -1.08292e+06 744910 0 -1.08732e+06 779311 0 -1.09192e+06 813984 0 -1.09671e+06 848946 0 -1.10171e+06 884213 0 -1.10691e+06 919804 0 -1.11233e+06 955741 0 -1.11797e+06 992045 0 -1.12385e+06 1.02874e+06 0 -1.02209e+06 0 0 -1.02187e+06 31454.4 0 -1.02185e+06 62922.8 0 -1.02204e+06 94414.9 0 -1.02243e+06 125940 0 -1.02303e+06 157509 0 -1.02382e+06 189131 0 -1.02482e+06 220815 0 -1.02602e+06 252572 0 -1.02742e+06 284411 0 -1.02902e+06 316343 0 -1.03082e+06 348378 0 -1.03281e+06 380525 0 -1.03499e+06 412795 0 -1.03737e+06 445199 0 -1.03993e+06 477747 0 -1.04269e+06 510449 0 -1.04563e+06 543318 0 -1.04876e+06 576364 0 -1.05208e+06 609599 0 -1.05558e+06 643035 0 -1.05926e+06 676685 0 -1.06313e+06 710562 0 -1.06718e+06 744679 0 -1.07142e+06 779052 0 -1.07584e+06 813695 0 -1.08045e+06 848625 0 -1.08525e+06 883861 0 -1.09025e+06 919420 0 -1.09546e+06 955324 0 -1.10087e+06 991597 0 -1.10651e+06 1.02826e+06 0 -1.00826e+06 0 0 -1.00802e+06 31451.9 0 -1.00797e+06 62917.8 0 -1.00813e+06 94407.3 0 -1.00848e+06 125930 0 -1.00903e+06 157495 0 -1.00978e+06 189113 0 -1.01073e+06 220792 0 -1.01187e+06 252544 0 -1.0132e+06 284377 0 -1.01473e+06 316301 0 -1.01645e+06 348326 0 -1.01836e+06 380463 0 -1.02045e+06 412721 0 -1.02274e+06 445112 0 -1.0252e+06 477644 0 -1.02785e+06 510330 0 -1.03068e+06 543180 0 -1.03369e+06 576205 0 -1.03688e+06 609417 0 -1.04025e+06 642829 0 -1.0438e+06 676452 0 -1.04752e+06 710300 0 -1.05142e+06 744387 0 -1.05549e+06 778727 0 -1.05974e+06 813336 0 -1.06417e+06 848231 0 -1.06878e+06 883430 0 -1.07358e+06 918952 0 -1.07857e+06 954818 0 -1.08376e+06 991053 0 -1.08915e+06 1.02768e+06 0 -994390 0 0 -994124 31447.1 0 -994053 62908.2 0 -994177 94392.6 0 -994494 125910 0 -995004 157469 0 -995705 189080 0 -996598 220753 0 -997679 252496 0 -998949 284320 0 -1.00041e+06 316234 0 -1.00205e+06 348248 0 -1.00387e+06 380372 0 -1.00588e+06 412616 0 -1.00807e+06 444990 0 -1.01044e+06 477505 0 -1.01298e+06 510171 0 -1.0157e+06 542999 0 -1.0186e+06 576001 0 -1.02167e+06 609187 0 -1.0249e+06 642571 0 -1.02831e+06 676164 0 -1.03189e+06 709981 0 -1.03563e+06 744033 0 -1.03954e+06 778338 0 -1.04362e+06 812909 0 -1.04788e+06 847764 0 -1.0523e+06 882921 0 -1.0569e+06 918400 0 -1.06167e+06 954223 0 -1.06664e+06 990413 0 -1.07179e+06 1.027e+06 0 -980481 0 0 -980194 31439.9 0 -980097 62893.8 0 -980189 94370.8 0 -980469 125880 0 -980936 157432 0 -981590 189034 0 -982429 220697 0 -983452 252430 0 -984658 284242 0 -986046 316143 0 -987613 348143 0 -989359 380252 0 -991281 412479 0 -993378 444834 0 -995648 477329 0 -998088 509972 0 -1.0007e+06 542776 0 -1.00348e+06 575752 0 -1.00642e+06 608910 0 -1.00953e+06 642263 0 -1.0128e+06 675823 0 -1.01623e+06 709604 0 -1.01982e+06 743619 0 -1.02358e+06 777884 0 -1.02749e+06 812413 0 -1.03157e+06 847224 0 -1.0358e+06 882335 0 -1.0402e+06 917766 0 -1.04477e+06 953539 0 -1.0495e+06 989679 0 -1.05442e+06 1.02621e+06 0 -966535 0 0 -966227 31430.4 0 -966104 62874.7 0 -966164 94342 0 -966407 125841 0 -966832 157382 0 -967438 188973 0 -968225 220624 0 -969190 252344 0 -970333 284143 0 -971651 316029 0 -973144 348012 0 -974810 380103 0 -976647 412310 0 -978653 444645 0 -980826 477116 0 -983164 509735 0 -985665 542512 0 -988328 575458 0 -991151 608585 0 -994131 641904 0 -997266 675429 0 -1.00056e+06 709171 0 -1.004e+06 743145 0 -1.0076e+06 777366 0 -1.01134e+06 811850 0 -1.01524e+06 846612 0 -1.01929e+06 881673 0 -1.02349e+06 917051 0 -1.02785e+06 952768 0 -1.03236e+06 988850 0 -1.03704e+06 1.02532e+06 0 -952552 0 0 -952223 31418.7 0 -952073 62851.1 0 -952102 94306.3 0 -952308 125793 0 -952692 157321 0 -953251 188899 0 -953985 220535 0 -954893 252240 0 -955973 284022 0 -957224 315891 0 -958643 347856 0 -960230 379926 0 -961982 412111 0 -963898 444422 0 -965975 476868 0 -968212 509459 0 -970606 542206 0 -973155 575121 0 -975857 608213 0 -978711 641496 0 -981713 674981 0 -984863 708682 0 -988158 742612 0 -991597 776786 0 -995179 811219 0 -998903 845929 0 -1.00277e+06 880934 0 -1.00678e+06 916254 0 -1.01093e+06 951910 0 -1.01522e+06 987928 0 -1.01966e+06 1.02433e+06 0 -938534 0 0 -938184 31404.6 0 -938008 62822.9 0 -938005 94263.8 0 -938175 125736 0 -938517 157249 0 -939029 188811 0 -939712 220431 0 -940563 252118 0 -941580 283881 0 -942764 315730 0 -944110 347673 0 -945619 379721 0 -947288 411882 0 -949114 444167 0 -951097 476584 0 -953233 509145 0 -955521 541860 0 -957958 574740 0 -960542 607796 0 -963270 641039 0 -966141 674482 0 -969151 708138 0 -972300 742020 0 -975585 776143 0 -979004 810523 0 -982556 845176 0 -986240 880121 0 -990054 915377 0 -993999 950967 0 -998074 986915 0 -1.00228e+06 1.02325e+06 0 -924481 0 0 -924109 31388.3 0 -923907 62790.3 0 -923873 94214.6 0 -924007 125670 0 -924307 157165 0 -924774 188709 0 -925405 220310 0 -926199 251977 0 -927155 283719 0 -928272 315546 0 -929547 347466 0 -930978 379488 0 -932564 411623 0 -934303 443879 0 -936192 476266 0 -938229 508794 0 -940412 541474 0 -942738 574317 0 -945204 607333 0 -947809 640534 0 -950550 673931 0 -953423 707539 0 -956428 741370 0 -959560 775439 0 -962818 809761 0 -966201 844353 0 -969704 879233 0 -973328 914421 0 -977071 949939 0 -980932 985811 0 -984910 1.02206e+06 0 -910394 0 0 -910001 31369.8 0 -909772 62753.2 0 -909707 94158.7 0 -909805 125595 0 -910065 157070 0 -910485 188594 0 -911065 220173 0 -911804 251819 0 -912699 283538 0 -913749 315340 0 -914953 347234 0 -916308 379229 0 -917813 411334 0 -919465 443559 0 -921261 475913 0 -923200 508406 0 -925279 541049 0 -927496 573851 0 -929847 606825 0 -932330 639980 0 -934942 673330 0 -937680 706886 0 -940542 740663 0 -943524 774674 0 -946624 808935 0 -949838 843461 0 -953165 878273 0 -956602 913387 0 -960145 948828 0 -963794 984617 0 -967546 1.02078e+06 0 -896273 0 0 -895859 31349.1 0 -895604 62711.7 0 -895508 94096.2 0 -895570 125511 0 -895789 156964 0 -896164 188465 0 -896694 220022 0 -897377 251642 0 -898212 283336 0 -899197 315111 0 -900331 346977 0 -901610 378942 0 -903034 411016 0 -904600 443207 0 -906306 475526 0 -908148 507981 0 -910125 540584 0 -912233 573344 0 -914470 606272 0 -916833 639380 0 -919318 672678 0 -921923 706181 0 -924644 739900 0 -927478 773849 0 -930421 808045 0 -933471 842503 0 -936623 877240 0 -939875 912277 0 -943223 947635 0 -946663 983336 0 -950193 1.01941e+06 0 -882120 0 0 -881684 31326.3 0 -881403 62666 0 -881277 94027.3 0 -881303 125419 0 -881482 156848 0 -881812 188324 0 -882292 219855 0 -882920 251449 0 -883695 283115 0 -884616 314861 0 -885680 346696 0 -886885 378629 0 -888229 410669 0 -889710 442824 0 -891326 475105 0 -893073 507521 0 -894948 540081 0 -896950 572796 0 -899075 605676 0 -901319 638733 0 -903679 671978 0 -906153 705423 0 -908735 739081 0 -911423 772966 0 -914213 807093 0 -917100 841477 0 -920081 876137 0 -923151 911092 0 -926306 946361 0 -929542 981969 0 -932853 1.01794e+06 0 -867935 0 0 -867478 31301.4 0 -867171 62616 0 -867014 93952 0 -867005 125317 0 -867144 156721 0 -867429 188170 0 -867859 219673 0 -868433 251238 0 -869150 282874 0 -870006 314589 0 -871002 346391 0 -872133 378290 0 -873399 410293 0 -874796 442411 0 -876323 474652 0 -877975 507025 0 -879752 539540 0 -881648 572207 0 -883662 605037 0 -885789 638040 0 -888027 671228 0 -890371 704613 0 -892817 738207 0 -895361 772024 0 -898000 806079 0 -900728 840387 0 -903540 874966 0 -906432 909833 0 -909398 945009 0 -912433 980518 0 -915530 1.01638e+06 0 -853719 0 0 -853240 31274.4 0 -852908 62561.8 0 -852720 93870.4 0 -852676 125208 0 -852775 156583 0 -853016 188003 0 -853397 219476 0 -853918 251010 0 -854576 282614 0 -855370 314295 0 -856297 346063 0 -857356 377925 0 -858544 409890 0 -859858 441967 0 -861297 474166 0 -862857 506494 0 -864535 538962 0 -866328 571579 0 -868233 604356 0 -870245 637303 0 -872362 670432 0 -874578 703753 0 -876890 737280 0 -879294 771026 0 -881784 805006 0 -884355 839233 0 -887001 873726 0 -889718 908502 0 -892499 943581 0 -895338 978985 0 -898226 1.01474e+06 0 </DataArray> 
</PointData> 
<Points> 
<DataArray type="Float32" NumberOfComponents="3"> 