<?xml version="1.0"?> 
<VTKFile type="StructuredGrid" version="0.1"> 
<StructuredGrid WholeExtent="0 31 0 31 0 0"> 
<Piece Extent="0 31 0 31 0 0"> 
<PointData>
<DataArray type="Float32" Name="|E|" format="ascii" NumberOfComponents="3"> 
1.03159e+06 -6.36578e-05 0 998487 -3.48262e-05 0 966655 -1.20311e-05 0 936100 6.26082e-06 0 906824 2.07014e-05 0 878821 3.19239e-05 0 852082 4.07994e-05 0 826594 4.72926e-05 0 802341 5.17666e-05 0 779307 5.50598e-05 0 757473 5.71012e-05 0 736818 5.76898e-05 0 717324 5.78389e-05 0 698969 5.70677e-05 0 681734 5.5857e-05 0 665599 5.39348e-05 0 650545 5.18411e-05 0 636553 4.9293e-05 0 623606 4.65512e-05 0 611687 4.35263e-05 0 600780 4.03374e-05 0 590871 3.70294e-05 0 581946 3.35872e-05 0 573992 2.99737e-05 0 567000 2.64049e-05 0 560958 2.27243e-05 0 555858 1.90027e-05 0 551693 1.52327e-05 0 548456 1.14553e-05 0 546144 7.64802e-06 0 544753 3.83146e-06 0 544280 0 0 1.03159e+06 1844.23 0 998485 1775.2 0 966653 1705.5 0 936098 1635.56 0 906822 1565.73 0 878819 1496.3 0 852080 1427.48 0 826592 1359.43 0 802340 1292.29 0 779306 1226.14 0 757471 1161.04 0 736817 1097.03 0 717322 1034.13 0 698967 972.328 0 681732 911.621 0 665597 851.982 0 650543 793.375 0 636552 735.759 0 623605 679.086 0 611685 623.303 0 600779 568.353 0 590870 514.175 0 581944 460.704 0 573991 407.876 0 566998 355.622 0 560956 303.874 0 555856 252.56 0 551691 201.61 0 548455 150.952 0 546143 100.513 0 544751 50.2196 0 544278 0 0 1.03158e+06 3688.47 0 998480 3550.41 0 966647 3411 0 936093 3271.12 0 906816 3131.46 0 878813 2992.6 0 852074 2854.95 0 826586 2718.86 0 802334 2584.58 0 779300 2452.28 0 757466 2322.08 0 736811 2194.06 0 717317 2068.25 0 698962 1944.65 0 681727 1823.24 0 665593 1703.96 0 650539 1586.75 0 636547 1471.51 0 623600 1358.17 0 611681 1246.6 0 600774 1136.7 0 590865 1028.35 0 581940 921.407 0 573987 815.751 0 566994 711.243 0 560952 607.747 0 555852 505.119 0 551687 403.219 0 548451 301.903 0 546139 201.025 0 544747 100.439 0 544274 0 0 1.03157e+06 5532.71 0 998470 5325.62 0 966638 5116.5 0 936083 4906.67 0 906807 4697.19 0 878804 4488.89 0 852065 4282.42 0 826577 4078.29 0 802325 3876.86 0 779291 3678.41 0 757457 3483.11 0 736803 3291.08 0 717308 3102.37 0 698954 2916.97 0 681719 2734.85 0 665585 2555.93 0 650531 2380.11 0 636539 2207.26 0 623592 2037.25 0 611673 1869.9 0 600767 1705.05 0 590858 1542.52 0 581933 1382.11 0 573980 1223.62 0 566987 1066.86 0 560945 911.616 0 555845 757.676 0 551680 604.827 0 548444 452.853 0 546132 301.536 0 544740 150.658 0 544267 0 0 1.03156e+06 7376.96 0 998457 7100.83 0 966624 6822 0 936070 6542.23 0 906794 6262.92 0 878791 5985.18 0 852052 5709.89 0 826564 5437.7 0 802312 5169.13 0 779279 4904.53 0 757445 4644.13 0 736791 4388.09 0 717297 4136.48 0 698942 3889.28 0 681708 3646.45 0 665573 3407.89 0 650519 3173.47 0 636528 2943.01 0 623581 2716.32 0 611663 2493.19 0 600756 2273.39 0 590847 2056.68 0 581923 1842.8 0 573970 1631.49 0 566977 1422.47 0 560935 1215.48 0 555835 1010.23 0 551671 806.432 0 548434 603.8 0 546122 402.046 0 544731 200.876 0 544258 0 0 1.03154e+06 9221.23 0 998440 8876.05 0 966607 8527.51 0 936053 8177.78 0 906776 7828.64 0 878774 7481.46 0 852035 7137.34 0 826548 6797.11 0 802296 6461.39 0 779262 6130.64 0 757429 5805.14 0 736775 5485.09 0 717281 5170.57 0 698927 4861.58 0 681693 4558.04 0 665559 4259.85 0 650505 3966.81 0 636514 3678.74 0 623568 3395.38 0 611649 3116.47 0 600743 2841.72 0 590834 2570.83 0 581910 2303.48 0 573957 2039.35 0 566964 1778.08 0 560923 1519.34 0 555823 1262.78 0 551658 1008.03 0 548422 754.746 0 546110 502.554 0 544718 251.094 0 544245 0 0 1.03152e+06 11065.5 0 998419 10651.3 0 966586 10233 0 936032 9813.33 0 906755 9394.35 0 878753 8977.73 0 852014 8564.78 0 826527 8156.5 0 802276 7753.64 0 779243 7356.73 0 757409 6966.13 0 736756 6582.07 0 717262 6204.65 0 698909 5833.86 0 681675 5469.62 0 665541 5111.78 0 650488 4760.14 0 636497 4414.45 0 623551 4074.42 0 611633 3739.73 0 600727 3410.04 0 590818 3084.97 0 581894 2764.16 0 573941 2447.2 0 566949 2133.68 0 560907 1823.2 0 555808 1515.32 0 551643 1209.63 0 548407 905.687 0 546095 603.06 0 544703 301.31 0 544230 0 0 1.0315e+06 12909.8 0 998394 12426.5 0 966561 11938.5 0 936007 11448.9 0 906731 10960.1 0 878728 10474 0 851990 9992.21 0 826503 9515.88 0 802252 9045.87 0 779219 8582.8 0 757386 8127.11 0 736733 7679.04 0 717240 7238.71 0 698887 6806.12 0 681653 6381.17 0 665520 5963.7 0 650467 5553.45 0 636477 5150.15 0 623531 4753.45 0 611613 4362.98 0 600707 3978.34 0 590799 3599.1 0 581875 3224.82 0 573922 2855.04 0 566930 2489.27 0 560889 2127.04 0 555789 1767.86 0 551625 1411.22 0 548389 1056.63 0 546077 703.563 0 544685 351.525 0 544213 0 0 1.03147e+06 14754.2 0 998366 14201.8 0 966533 13644 0 935978 13084.4 0 906702 12525.8 0 878700 11970.2 0 851962 11419.6 0 826476 10875.2 0 802225 10338.1 0 779193 9808.85 0 757360 9288.06 0 736707 8775.97 0 717215 8272.74 0 698862 7778.35 0 681629 7292.7 0 665496 6815.59 0 650443 6346.75 0 636453 5885.83 0 623508 5432.46 0 611590 4986.22 0 600685 4546.63 0 590777 4113.22 0 581853 3685.47 0 573901 3262.87 0 566909 2844.85 0 560868 2430.88 0 555768 2020.39 0 551604 1612.81 0 548368 1207.56 0 546056 804.063 0 544665 401.739 0 544192 0 0 1.03144e+06 16598.5 0 998333 15977.1 0 966500 15349.6 0 935946 14720 0 906670 14091.4 0 878668 13466.5 0 851930 12847 0 826444 12234.6 0 802194 11630.3 0 779162 11034.9 0 757330 10449 0 736678 9872.89 0 717186 9306.75 0 698834 8750.56 0 681601 8204.21 0 665468 7667.46 0 650416 7140.01 0 636427 6621.49 0 623482 6111.45 0 611564 5609.43 0 600659 5114.9 0 590752 4627.32 0 581828 4146.11 0 573876 3670.68 0 566885 3200.42 0 560844 2734.71 0 555745 2272.91 0 551580 1814.39 0 548345 1358.49 0 546033 904.56 0 544641 451.95 0 544169 0 0 1.0314e+06 18442.9 0 998297 17752.4 0 966464 17055.1 0 935909 16355.5 0 906634 15657.1 0 878632 14962.7 0 851895 14274.4 0 826409 13593.9 0 802159 12922.4 0 779128 12260.9 0 757296 11609.9 0 736645 10969.8 0 717153 10340.7 0 698802 9722.74 0 681570 9115.69 0 665438 8519.3 0 650386 7933.25 0 636397 7357.12 0 623452 6790.42 0 611536 6232.62 0 600631 5683.15 0 590724 5141.4 0 581801 4606.73 0 573849 4078.48 0 566858 3555.97 0 560817 3038.52 0 555718 2525.42 0 551554 2015.96 0 548318 1509.41 0 546007 1005.05 0 544615 502.16 0 544143 0 0 1.03136e+06 20287.3 0 998257 19527.7 0 966424 18760.6 0 935869 17991.1 0 906594 17222.8 0 878592 16458.9 0 851855 15701.7 0 826370 14953.2 0 802121 14214.5 0 779090 13486.8 0 757259 12770.7 0 736609 12066.6 0 717118 11374.7 0 698767 10694.9 0 681535 10027.1 0 665404 9371.11 0 650353 8726.47 0 636364 8092.72 0 623420 7469.36 0 611504 6855.79 0 600600 6251.38 0 590693 5655.46 0 581770 5067.33 0 573819 4486.26 0 566828 3911.51 0 560787 3342.33 0 555689 2777.92 0 551525 2217.52 0 548289 1660.32 0 545978 1105.54 0 544587 552.368 0 544114 0 0 1.03132e+06 22131.8 0 998214 21303 0 966380 20466.2 0 935825 19626.6 0 906550 18788.4 0 878549 17955.1 0 851812 17129.1 0 826328 16312.4 0 802079 15506.6 0 779049 14712.8 0 757219 13931.6 0 736569 13163.4 0 717078 12408.6 0 698728 11667 0 681497 10938.5 0 665366 10222.9 0 650316 9519.64 0 636328 8828.3 0 623385 8148.27 0 611469 7478.93 0 600566 6819.58 0 590659 6169.49 0 581737 5527.9 0 573786 4894.02 0 566795 4267.04 0 560755 3646.11 0 555657 3030.41 0 551493 2419.07 0 548258 1811.23 0 545946 1206.03 0 544555 602.573 0 544082 0 0 1.03127e+06 23976.3 0 998166 23078.4 0 966332 22171.7 0 935777 21262.1 0 906502 20354.1 0 878502 19451.2 0 851766 18556.4 0 826282 17671.6 0 802034 16798.7 0 779004 15938.7 0 757175 15092.3 0 736525 14260.2 0 717036 13442.4 0 698686 12639.1 0 681456 11849.9 0 665326 11074.6 0 650277 10312.8 0 636289 9563.83 0 623346 8827.15 0 611431 8102.04 0 600528 7387.75 0 590623 6683.5 0 581701 5988.46 0 573750 5301.76 0 566760 4622.54 0 560720 3949.89 0 555622 3282.89 0 551458 2620.61 0 548223 1962.13 0 545912 1306.5 0 544521 652.776 0 544048 0 0 1.03122e+06 25820.9 0 998115 24853.7 0 966281 23877.3 0 935726 22897.6 0 906451 21919.7 0 878451 20947.4 0 851715 19983.6 0 826232 19030.8 0 801984 18090.7 0 778956 17164.5 0 757127 16253.1 0 736478 15356.9 0 716990 14476.3 0 698641 13611.1 0 681412 12761.2 0 665282 11926.3 0 650234 11105.9 0 636247 10299.3 0 623305 9505.99 0 611391 8725.11 0 600488 7955.89 0 590583 7197.48 0 581661 6448.99 0 573711 5709.48 0 566721 4978.03 0 560682 4253.64 0 555584 3535.35 0 551421 2822.14 0 548186 2113.03 0 545875 1406.98 0 544484 702.975 0 544011 0 0 1.03117e+06 27665.5 0 998060 26629.2 0 966225 25582.9 0 935670 24533.2 0 906396 23485.3 0 878396 22443.5 0 851661 21410.9 0 826178 20390 0 801932 19382.7 0 778904 18390.3 0 757076 17413.8 0 736428 16453.6 0 716940 15510.1 0 698593 14583.1 0 681364 13672.5 0 665236 12778 0 650188 11899 0 636202 11034.8 0 623260 10184.8 0 611347 9348.15 0 600445 8524 0 590540 7711.44 0 581619 6909.49 0 573670 6117.18 0 566680 5333.49 0 560641 4557.38 0 555544 3787.79 0 551380 3023.66 0 548146 2263.91 0 545835 1507.44 0 544444 753.172 0 543971 0 0 1.03111e+06 29510.2 0 998001 28404.6 0 966166 27288.4 0 935611 26168.7 0 906337 25050.9 0 878337 23939.5 0 851603 22838 0 826121 21749.1 0 801875 20674.6 0 778848 19616.1 0 757021 18574.4 0 736374 17550.3 0 716888 16543.8 0 698541 15555 0 681313 14583.8 0 665186 13629.6 0 650138 12692 0 636153 11770.2 0 623213 10863.6 0 611300 9971.16 0 600399 9092.08 0 590495 8225.36 0 581574 7369.96 0 573625 6524.85 0 566636 5688.93 0 560597 4861.1 0 555500 4040.22 0 551337 3225.17 0 548103 2414.78 0 545792 1607.9 0 544401 803.365 0 543929 0 0 1.03105e+06 31354.9 0 997938 30180.1 0 966103 28994 0 935548 27804.2 0 906274 26616.5 0 878275 25435.6 0 851541 24265.2 0 826060 23108.1 0 801815 21966.5 0 778789 20841.8 0 756963 19735 0 736317 18646.8 0 716831 17577.5 0 698485 16526.9 0 681259 15495 0 665132 14481.2 0 650086 13484.9 0 636102 12505.6 0 623162 11542.3 0 611250 10594.1 0 600349 9660.12 0 590446 8739.24 0 581526 7830.41 0 573578 6932.49 0 566589 6044.35 0 560551 5164.79 0 555454 4292.64 0 551292 3426.66 0 548057 2565.64 0 545747 1708.36 0 544356 853.555 0 543883 0 0 1.03098e+06 33199.7 0 997872 31955.6 0 966036 30699.6 0 935481 29439.7 0 906207 28182 0 878209 26931.6 0 851476 25692.3 0 825995 24467.2 0 801751 23258.3 0 778726 22067.5 0 756901 20895.6 0 736257 19743.4 0 716772 18611.1 0 698427 17498.7 0 681201 16406.1 0 665076 15332.7 0 650031 14277.9 0 636047 13240.9 0 623108 12221 0 611197 11217 0 600297 10228.1 0 590395 9253.09 0 581475 8290.82 0 573528 7340.11 0 566540 6399.74 0 560502 5468.47 0 555405 4545.03 0 551243 3628.14 0 548009 2716.5 0 545699 1808.8 0 544308 903.741 0 543835 0 0 1.03091e+06 35044.5 0 997802 33731.1 0 965965 32405.2 0 935410 31075.2 0 906137 29747.5 0 878139 28427.6 0 851406 27119.4 0 825927 25826.1 0 801684 24550.1 0 778660 23293.1 0 756836 22056.1 0 736192 20839.8 0 716709 19644.6 0 698365 18470.5 0 681141 17317.2 0 665016 16184.1 0 649972 15070.7 0 635990 13976.2 0 623052 12899.6 0 611141 11839.9 0 600242 10796.1 0 590340 9766.91 0 581422 8751.2 0 573474 7747.69 0 566487 6755.1 0 560450 5772.12 0 555354 4797.4 0 551192 3829.6 0 547958 2867.34 0 545648 1909.24 0 544257 953.924 0 543785 0 0 1.03084e+06 36889.5 0 997727 35506.7 0 965891 34110.9 0 935336 32710.7 0 906062 31313 0 878065 29923.5 0 851333 28546.4 0 825855 27185.1 0 801613 25841.9 0 778590 24518.6 0 756767 23216.5 0 736125 21936.2 0 716642 20678.1 0 698300 19442.2 0 681076 18228.2 0 664953 17035.5 0 649910 15863.5 0 635929 14711.4 0 622992 13578.2 0 611082 12462.8 0 600184 11364 0 590283 10280.7 0 581365 9211.54 0 573418 8155.24 0 566432 7110.44 0 560395 6075.75 0 555299 5049.76 0 551138 4031.04 0 547904 3018.16 0 545594 2009.67 0 544204 1004.1 0 543731 0 0 1.03076e+06 38734.5 0 997649 37282.3 0 965812 35816.5 0 935257 34346.1 0 905984 32878.5 0 877987 31419.4 0 851257 29973.4 0 825779 28543.9 0 801538 27133.5 0 778516 25744.1 0 756695 24376.8 0 736054 23032.6 0 716573 21711.6 0 698231 20413.9 0 681009 19139.1 0 664887 17886.9 0 649845 16656.3 0 635865 15446.6 0 622929 14256.7 0 611020 13085.5 0 600123 11931.9 0 590223 10794.4 0 581306 9671.84 0 573360 8562.76 0 566373 7465.75 0 560337 6379.35 0 555242 5302.09 0 551081 4232.47 0 547848 3168.98 0 545538 2110.09 0 544147 1054.28 0 543675 0 0 1.03068e+06 40579.5 0 997568 39057.9 0 965730 37522.2 0 935175 35981.6 0 905902 34444 0 877906 32915.3 0 851176 31400.4 0 825700 29902.7 0 801460 28425.1 0 778439 26969.5 0 756619 25537.1 0 735979 24128.8 0 716499 22744.9 0 698159 21385.4 0 680938 20050 0 664817 18738.1 0 649777 17449 0 635798 16181.7 0 622863 14935.2 0 610955 13708.3 0 600059 12499.7 0 590159 11308.1 0 581243 10132.1 0 573298 8970.24 0 566312 7821.02 0 560277 6682.92 0 555182 5554.4 0 551021 4433.88 0 547788 3319.78 0 545478 2210.5 0 544088 1104.44 0 543616 0 0 1.0306e+06 42424.7 0 997482 40833.6 0 965644 39227.8 0 935089 37617.1 0 905816 36009.4 0 877821 34411.1 0 851092 32827.2 0 825616 31261.5 0 801378 29716.7 0 778359 28194.8 0 756540 26697.3 0 735901 25225 0 716423 23778.2 0 698084 22356.9 0 680864 20960.8 0 664745 19589.3 0 649705 18241.6 0 635727 16916.7 0 622794 15613.6 0 610887 14330.9 0 599992 13067.5 0 590093 11821.7 0 581178 10592.3 0 573233 9377.68 0 566248 8176.26 0 560213 6986.47 0 555119 5806.69 0 550959 4635.27 0 547726 3470.56 0 545417 2310.9 0 544027 1154.61 0 543554 0 0 1.03051e+06 44269.9 0 997393 42609.4 0 965554 40933.5 0 934999 39252.5 0 905727 37574.8 0 877732 35906.9 0 851004 34254.1 0 825530 32620.2 0 801292 31008.1 0 778274 29420.1 0 756457 27857.5 0 735820 26321.1 0 716343 24811.4 0 698005 23328.4 0 680787 21871.6 0 664669 20440.4 0 649631 19034.2 0 635654 17651.7 0 622721 16291.9 0 610816 14953.6 0 599922 13635.2 0 590024 12335.3 0 581110 11052.5 0 573166 9785.08 0 566182 8531.47 0 560147 7289.98 0 555053 6058.95 0 550894 4836.64 0 547661 3621.34 0 545352 2411.3 0 543962 1204.77 0 543490 0 0 1.03042e+06 46115.3 0 997300 44385.1 0 965460 42639.2 0 934905 40887.9 0 905634 39140.2 0 877639 37402.7 0 850912 35680.8 0 825439 33978.8 0 801203 32299.5 0 778186 30645.3 0 756370 29017.6 0 735735 27417.2 0 716259 25844.6 0 697923 24299.7 0 680707 22782.2 0 664590 21291.5 0 649553 19826.7 0 635578 18386.6 0 622646 16970.2 0 610742 15576.1 0 599849 14202.8 0 589952 12848.9 0 581039 11512.6 0 573096 10192.4 0 566112 8886.64 0 560078 7593.47 0 554985 6311.18 0 550826 5037.99 0 547594 3772.09 0 545285 2511.68 0 543895 1254.92 0 543423 0 0 1.03032e+06 47960.7 0 997203 46161 0 965363 44344.9 0 934808 42523.4 0 905536 40705.5 0 877543 38898.4 0 850817 37107.6 0 825345 35337.3 0 801110 33590.8 0 778095 31870.4 0 756280 30177.5 0 735646 28513.1 0 716172 26877.6 0 697838 25271 0 680623 23692.8 0 664507 22142.5 0 649472 20619.1 0 635498 19121.5 0 622568 17648.5 0 610665 16198.6 0 599773 14770.4 0 589877 13362.4 0 580965 11972.7 0 573022 10599.8 0 566040 9241.77 0 560006 7896.92 0 554914 6563.39 0 550755 5239.32 0 547523 3922.83 0 545214 2612.05 0 543825 1305.07 0 543353 0 0 1.03022e+06 49806.2 0 997102 47936.8 0 965261 46050.6 0 934706 44158.8 0 905435 42270.8 0 877443 40394 0 850718 38534.2 0 825247 36695.8 0 801013 34882.1 0 778000 33095.4 0 756187 31337.4 0 735554 29609 0 716082 27910.6 0 697749 26242.2 0 680536 24603.3 0 664422 22993.4 0 649388 21411.4 0 635415 19856.2 0 622486 18326.6 0 610585 16821 0 599694 15338 0 589799 13875.8 0 580888 12432.7 0 572946 11007 0 565964 9596.86 0 559932 8200.34 0 554840 6815.57 0 550681 5440.62 0 547450 4073.55 0 545142 2712.41 0 543752 1355.21 0 543280 0 0 1.03012e+06 51651.9 0 996997 49712.7 0 965156 47756.4 0 934601 45794.2 0 905330 43836.1 0 877339 41889.6 0 850615 39960.8 0 825145 38054.2 0 800913 36173.3 0 777901 34320.4 0 756090 32497.2 0 735459 30704.8 0 715988 28943.5 0 697657 27213.3 0 680445 25513.7 0 664333 23844.2 0 649300 22203.7 0 635329 20590.9 0 622402 19004.7 0 610501 17443.4 0 599612 15905.5 0 589718 14389.2 0 580808 12892.7 0 572868 11414.3 0 565886 9951.91 0 559854 8503.72 0 554763 7067.72 0 550605 5641.9 0 547374 4224.26 0 545066 2812.75 0 543677 1405.35 0 543205 0 0 1.03001e+06 53497.7 0 996889 51488.7 0 965047 49462.1 0 934492 47429.6 0 905222 45401.3 0 877231 43385.1 0 850508 41387.3 0 825040 39412.5 0 800809 37464.3 0 777799 35545.2 0 755989 33657 0 735360 31800.5 0 715891 29976.3 0 697562 28184.3 0 680352 26424.1 0 664241 24694.9 0 649210 22995.8 0 635240 21325.6 0 622315 19682.7 0 610415 18065.7 0 599527 16472.9 0 589635 14902.5 0 580725 13352.6 0 572786 11821.4 0 565805 10306.9 0 559774 8807.07 0 554684 7319.84 0 550526 5843.16 0 547296 4374.94 0 544988 2913.09 0 543599 1455.48 0 543127 0 0 1.0299e+06 55343.6 0 996776 53264.7 0 964934 51167.9 0 934379 49065 0 905109 46966.5 0 877119 44880.6 0 850398 42813.8 0 824931 40770.8 0 800702 38755.3 0 777693 36770 0 755885 34816.6 0 735258 32896.1 0 715791 31008.9 0 697463 29155.2 0 680255 27334.3 0 664146 25545.6 0 649116 23787.9 0 635148 22060.1 0 622224 20360.6 0 610326 18687.9 0 599439 17040.2 0 589548 15415.7 0 580640 13812.5 0 572701 12228.6 0 565722 10661.9 0 559691 9110.38 0 554601 7571.92 0 550444 6044.39 0 547214 4525.61 0 544906 3013.41 0 543518 1505.61 0 543046 0 0 1.02978e+06 57189.6 0 996660 55040.8 0 964817 52873.7 0 934262 50700.3 0 904993 48531.7 0 877004 46376.1 0 850283 44240.1 0 824818 42128.9 0 800591 40046.2 0 777584 37994.7 0 755778 35976.1 0 735152 33991.6 0 715687 32041.5 0 697361 30126 0 680154 28244.4 0 664047 26396.1 0 649020 24579.9 0 635053 22794.5 0 622130 21038.5 0 610234 19310.1 0 599348 17607.5 0 589458 15928.9 0 580551 14272.3 0 572614 12635.7 0 565635 11016.8 0 559605 9413.65 0 554516 7823.98 0 550360 6245.59 0 547130 4676.26 0 544823 3113.72 0 543434 1555.72 0 542962 0 0 </DataArray> 
</PointData> 
<Points> 
<DataArray type="Float32" NumberOfComponents="3"> 