<?xml version="1.0"?> 
<VTKFile type="StructuredGrid" version="0.1"> 
<StructuredGrid WholeExtent="0 31 0 31 0 0"> 
<Piece Extent="0 31 0 31 0 0"> 
<PointData>
<DataArray type="Float32" Name="|E|" format="ascii" NumberOfComponents="3"> 
1.22827e+06 -125334 0 1.36117e+06 -97879.8 0 1.43939e+06 -123402 0 1.52322e+06 -117440 0 1.59203e+06 -104483 0 1.65043e+06 -86278.3 0 1.69583e+06 -66883.8 0 1.72929e+06 -47413.9 0 1.75102e+06 -28776.6 0 1.76196e+06 -11470.3 0 1.76302e+06 4201.74 0 1.75532e+06 18064.9 0 1.74e+06 30065.9 0 1.71818e+06 40229.9 0 1.69094e+06 48648.7 0 1.65931e+06 55453.9 0 1.62419e+06 60802.4 0 1.58639e+06 64860.4 0 1.54662e+06 67794 0 1.50549e+06 69761.4 0 1.46353e+06 70908.6 0 1.42116e+06 71367.5 0 1.37875e+06 71254.4 0 1.33659e+06 70670.8 0 1.29495e+06 69704.1 0 1.254e+06 68428.9 0 1.21391e+06 66908.1 0 1.1748e+06 65194.7 0 1.13677e+06 63333 0 1.09989e+06 61359.6 0 1.06422e+06 59305.2 0 1.02979e+06 57193.1 0 1.23565e+06 -126087 0 1.35828e+06 -104052 0 1.44026e+06 -127668 0 1.52396e+06 -121560 0 1.59335e+06 -107808 0 1.65169e+06 -88968.6 0 1.69711e+06 -68898.5 0 1.73046e+06 -48791.9 0 1.75208e+06 -29557 0 1.76288e+06 -11701.8 0 1.76381e+06 4460.72 0 1.75597e+06 18754.5 0 1.74052e+06 31124.2 0 1.71857e+06 41597.8 0 1.69123e+06 50270.4 0 1.6595e+06 57278.7 0 1.62429e+06 62784.7 0 1.58642e+06 66960.5 0 1.54659e+06 69977.4 0 1.50542e+06 71998.7 0 1.46341e+06 73175.1 0 1.42101e+06 73642.4 0 1.37858e+06 73520.6 0 1.33641e+06 72914.3 0 1.29475e+06 71913.6 0 1.25379e+06 70595.2 0 1.21369e+06 69024 0 1.17458e+06 67254.7 0 1.13655e+06 65332.7 0 1.09968e+06 63295.8 0 1.064e+06 61175.5 0 1.02958e+06 58996.3 0 1.24193e+06 -126727 0 1.35574e+06 -110066 0 1.44104e+06 -132049 0 1.52478e+06 -125682 0 1.5947e+06 -111143 0 1.653e+06 -91654.4 0 1.69842e+06 -70906.7 0 1.73166e+06 -50161.5 0 1.75317e+06 -30327.7 0 1.76383e+06 -11923.5 0 1.76462e+06 4729.39 0 1.75664e+06 19453.1 0 1.74105e+06 32190.9 0 1.71899e+06 42973.4 0 1.69153e+06 51898.9 0 1.6597e+06 59109.3 0 1.62441e+06 64772 0 1.58646e+06 69064.8 0 1.54657e+06 72164.2 0 1.50535e+06 74238.7 0 1.4633e+06 75443.7 0 1.42087e+06 75918.9 0 1.37841e+06 75788 0 1.33622e+06 75158.7 0 1.29454e+06 74123.7 0 1.25358e+06 72761.9 0 1.21348e+06 71140.2 0 1.17436e+06 69314.7 0 1.13633e+06 67332.3 0 1.09946e+06 65231.8 0 1.06379e+06 63045.7 0 1.02937e+06 60799.2 0 1.24719e+06 -127264 0 1.3535e+06 -115951 0 1.44176e+06 -136536 0 1.52568e+06 -129809 0 1.59606e+06 -114488 0 1.65436e+06 -94335.8 0 1.69976e+06 -72908.4 0 1.7329e+06 -51522.5 0 1.75429e+06 -31088.7 0 1.76481e+06 -12135.4 0 1.76546e+06 5007.94 0 1.75734e+06 20161.1 0 1.74161e+06 33266.4 0 1.71941e+06 44356.7 0 1.69184e+06 53534.2 0 1.65991e+06 60945.8 0 1.62453e+06 66764.4 0 1.58651e+06 71173.2 0 1.54655e+06 74354.5 0 1.50527e+06 76481.6 0 1.46319e+06 77714.5 0 1.42072e+06 78197.2 0 1.37823e+06 78056.8 0 1.33603e+06 77404.1 0 1.29434e+06 76334.4 0 1.25336e+06 74929 0 1.21326e+06 73256.6 0 1.17414e+06 71374.8 0 1.13611e+06 69331.9 0 1.09923e+06 67167.7 0 1.06357e+06 64915.6 0 1.02915e+06 62601.8 0 1.25153e+06 -127707 0 1.35149e+06 -121734 0 1.44243e+06 -141122 0 1.52665e+06 -133943 0 1.59745e+06 -117842 0 1.65575e+06 -97013 0 1.70113e+06 -74903.4 0 1.73417e+06 -52874.6 0 1.75544e+06 -31839.8 0 1.76582e+06 -12337.2 0 1.76632e+06 5296.51 0 1.75805e+06 20878.6 0 1.74218e+06 34350.6 0 1.71985e+06 45747.9 0 1.69216e+06 55176.6 0 1.66013e+06 62788.4 0 1.62465e+06 68761.9 0 1.58656e+06 73286 0 1.54654e+06 76548.3 0 1.50521e+06 78727.4 0 1.46307e+06 79987.7 0 1.42057e+06 80477.3 0 1.37806e+06 80327 0 1.33584e+06 79650.5 0 1.29413e+06 78545.9 0 1.25315e+06 77096.6 0 1.21303e+06 75373.3 0 1.17391e+06 73435 0 1.13588e+06 71331.4 0 1.09901e+06 69103.5 0 1.06335e+06 66785.4 0 1.02893e+06 64404.2 0 1.255e+06 -128062 0 1.34967e+06 -127441 0 1.44308e+06 -145801 0 1.52768e+06 -138087 0 1.59887e+06 -121205 0 1.65719e+06 -99685.9 0 1.70254e+06 -76891.7 0 1.73548e+06 -54217.8 0 1.75662e+06 -32580.9 0 1.76686e+06 -12528.7 0 1.7672e+06 5595.28 0 1.75878e+06 21605.8 0 1.74277e+06 35443.8 0 1.72031e+06 47147.3 0 1.6925e+06 56826.1 0 1.66035e+06 64637.2 0 1.62479e+06 70764.7 0 1.58661e+06 75403.2 0 1.54653e+06 78745.8 0 1.50514e+06 80976 0 1.46296e+06 82263.1 0 1.42043e+06 82759.2 0 1.37789e+06 82598.5 0 1.33564e+06 81897.9 0 1.29392e+06 80758.1 0 1.25293e+06 79264.7 0 1.21281e+06 77490.2 0 1.17368e+06 75495.4 0 1.13565e+06 73331 0 1.09878e+06 71039.2 0 1.06312e+06 68654.9 0 1.02871e+06 66206.2 0 1.25767e+06 -128334 0 1.348e+06 -133097 0 1.44373e+06 -150567 0 1.52878e+06 -142241 0 1.60032e+06 -124575 0 1.65867e+06 -102354 0 1.70398e+06 -78872.9 0 1.73682e+06 -55551.8 0 1.75783e+06 -33311.8 0 1.76792e+06 -12709.7 0 1.76811e+06 5904.43 0 1.75954e+06 22342.8 0 1.74338e+06 36546.2 0 1.72078e+06 48554.9 0 1.69284e+06 58482.8 0 1.66059e+06 66492.3 0 1.62493e+06 72772.9 0 1.58667e+06 77524.9 0 1.54652e+06 80946.9 0 1.50508e+06 83227.7 0 1.46285e+06 84541 0 1.42028e+06 85043 0 1.37772e+06 84871.4 0 1.33545e+06 84146.4 0 1.29371e+06 82971.1 0 1.25271e+06 81433.3 0 1.21258e+06 79607.4 0 1.17345e+06 77555.8 0 1.13542e+06 75330.5 0 1.09855e+06 72974.7 0 1.06289e+06 70524.3 0 1.02848e+06 68008 0 1.25957e+06 -128528 0 1.34644e+06 -138727 0 1.44438e+06 -155415 0 1.52993e+06 -146407 0 1.6018e+06 -127952 0 1.66018e+06 -105019 0 1.70546e+06 -80847.1 0 1.73819e+06 -56876.5 0 1.75907e+06 -34032.4 0 1.76901e+06 -12880.1 0 1.76904e+06 6224.11 0 1.76031e+06 23089.9 0 1.744e+06 37657.8 0 1.72126e+06 49970.9 0 1.6932e+06 60147.1 0 1.66083e+06 68353.8 0 1.62507e+06 74786.5 0 1.58673e+06 79651.1 0 1.54651e+06 83151.9 0 1.50501e+06 85482.5 0 1.46274e+06 86821.3 0 1.42014e+06 87328.6 0 1.37754e+06 87145.8 0 1.33525e+06 86396 0 1.2935e+06 85184.8 0 1.25248e+06 83602.4 0 1.21235e+06 81725 0 1.17322e+06 79616.4 0 1.13518e+06 77330.1 0 1.09831e+06 74910.2 0 1.06265e+06 72393.5 0 1.02825e+06 69809.5 0 1.26074e+06 -128647 0 1.34496e+06 -144356 0 1.44506e+06 -160343 0 1.53114e+06 -150586 0 1.60333e+06 -131335 0 1.66174e+06 -107679 0 1.70697e+06 -82814.1 0 1.7396e+06 -58191.7 0 1.76034e+06 -34742.5 0 1.77013e+06 -13039.7 0 1.77e+06 6554.53 0 1.76111e+06 23847.2 0 1.74464e+06 38779 0 1.72176e+06 51395.5 0 1.69357e+06 61818.8 0 1.66109e+06 70221.9 0 1.62523e+06 76805.7 0 1.5868e+06 81782.1 0 1.54651e+06 85360.7 0 1.50495e+06 87740.4 0 1.46264e+06 89104.1 0 1.41999e+06 89616.3 0 1.37736e+06 89421.7 0 1.33505e+06 88646.6 0 1.29328e+06 87399.3 0 1.25225e+06 85772 0 1.21211e+06 83842.8 0 1.17298e+06 81677.1 0 1.13494e+06 79329.6 0 1.09807e+06 76845.5 0 1.06242e+06 74262.4 0 1.02802e+06 71610.8 0 1.2612e+06 -128694 0 1.34355e+06 -150007 0 1.44578e+06 -165345 0 1.5324e+06 -154779 0 1.60489e+06 -134724 0 1.66334e+06 -110335 0 1.70852e+06 -84773.6 0 1.74104e+06 -59497.4 0 1.76164e+06 -35442 0 1.77127e+06 -13188.3 0 1.77098e+06 6895.84 0 1.76192e+06 24614.9 0 1.7453e+06 39909.8 0 1.72227e+06 52828.8 0 1.69395e+06 63498.3 0 1.66135e+06 72096.7 0 1.62539e+06 78830.7 0 1.58688e+06 83917.8 0 1.54651e+06 87573.4 0 1.50489e+06 90001.5 0 1.46253e+06 91389.5 0 1.41984e+06 91905.9 0 1.37719e+06 91699.2 0 1.33485e+06 90898.4 0 1.29307e+06 89614.6 0 1.25202e+06 87942.2 0 1.21187e+06 85961 0 1.17273e+06 83738 0 1.1347e+06 81329.1 0 1.09783e+06 78780.8 0 1.06217e+06 76131.2 0 1.02778e+06 73411.8 0 1.26096e+06 -128670 0 1.34219e+06 -155704 0 1.44654e+06 -170419 0 1.53371e+06 -158986 0 1.60649e+06 -138119 0 1.66497e+06 -112986 0 1.7101e+06 -86725.6 0 1.74251e+06 -60793.3 0 1.76298e+06 -36130.6 0 1.77244e+06 -13325.7 0 1.77198e+06 7248.24 0 1.76276e+06 25393.2 0 1.74598e+06 41050.4 0 1.7228e+06 54270.9 0 1.69434e+06 65185.7 0 1.66162e+06 73978.3 0 1.62556e+06 80861.4 0 1.58695e+06 86058.4 0 1.54651e+06 89790.2 0 1.50483e+06 92265.8 0 1.46242e+06 93677.5 0 1.4197e+06 94197.6 0 1.37701e+06 93978.2 0 1.33465e+06 93151.4 0 1.29285e+06 91830.8 0 1.25179e+06 90112.9 0 1.21163e+06 88079.5 0 1.17249e+06 85799 0 1.13445e+06 83328.7 0 1.09758e+06 80715.9 0 1.06193e+06 77999.9 0 1.02754e+06 75212.5 0 1.26004e+06 -128576 0 1.34086e+06 -161472 0 1.44735e+06 -175561 0 1.53507e+06 -163208 0 1.60813e+06 -141518 0 1.66665e+06 -115632 0 1.71172e+06 -88670 0 1.74402e+06 -62079.3 0 1.76434e+06 -36808.3 0 1.77364e+06 -13451.7 0 1.77301e+06 7611.9 0 1.76362e+06 26182.3 0 1.74667e+06 42201 0 1.72334e+06 55722.1 0 1.69474e+06 66881 0 1.6619e+06 75866.8 0 1.62573e+06 82898 0 1.58704e+06 88204 0 1.54652e+06 92011 0 1.50478e+06 94533.5 0 1.46231e+06 95968.1 0 1.41955e+06 96491.4 0 1.37683e+06 96258.8 0 1.33444e+06 95405.6 0 1.29262e+06 94047.8 0 1.25156e+06 92284.2 0 1.21139e+06 90198.4 0 1.17224e+06 87860.3 0 1.1342e+06 85328.3 0 1.09733e+06 82651 0 1.06168e+06 79868.3 0 1.02729e+06 77013 0 1.25843e+06 -128411 0 1.33957e+06 -167336 0 1.44822e+06 -180768 0 1.53648e+06 -167445 0 1.60982e+06 -144920 0 1.66836e+06 -118274 0 1.71338e+06 -90606.4 0 1.74556e+06 -63355.2 0 1.76573e+06 -37474.9 0 1.77487e+06 -13566.2 0 1.77406e+06 7987.02 0 1.7645e+06 26982.3 0 1.74738e+06 43361.7 0 1.72389e+06 57182.5 0 1.69516e+06 68584.5 0 1.66219e+06 77762.4 0 1.62591e+06 84940.7 0 1.58712e+06 90354.6 0 1.54653e+06 94236.1 0 1.50472e+06 96804.6 0 1.46221e+06 98261.5 0 1.4194e+06 98787.3 0 1.37665e+06 98541.1 0 1.33424e+06 97661 0 1.2924e+06 96265.7 0 1.25132e+06 94456.1 0 1.21114e+06 92317.6 0 1.17199e+06 89921.7 0 1.13394e+06 87327.9 0 1.09707e+06 84586 0 1.06143e+06 81736.6 0 1.02704e+06 78813.3 0 1.25612e+06 -128175 0 1.3383e+06 -173322 0 1.44915e+06 -186037 0 1.53794e+06 -171697 0 1.61155e+06 -148327 0 1.67011e+06 -120911 0 1.71507e+06 -92534.7 0 1.74713e+06 -64620.9 0 1.76715e+06 -38130.2 0 1.77612e+06 -13669 0 1.77514e+06 8373.77 0 1.76539e+06 27793.4 0 1.74811e+06 44532.8 0 1.72446e+06 58652.2 0 1.69558e+06 70296.2 0 1.66249e+06 79665.2 0 1.6261e+06 86989.5 0 1.58722e+06 92510.3 0 1.54654e+06 96465.3 0 1.50467e+06 99079.1 0 1.4621e+06 100558 0 1.41925e+06 101085 0 1.37647e+06 100825 0 1.33403e+06 99917.7 0 1.29217e+06 98484.5 0 1.25108e+06 96628.7 0 1.21089e+06 94437.3 0 1.17173e+06 91983.3 0 1.13369e+06 89327.6 0 1.09682e+06 86520.9 0 1.06117e+06 83604.7 0 1.02679e+06 80613.3 0 1.25309e+06 -127866 0 1.33706e+06 -179455 0 1.45016e+06 -191363 0 1.53945e+06 -175965 0 1.61333e+06 -151736 0 1.6719e+06 -123543 0 1.7168e+06 -94454.9 0 1.74874e+06 -65876.1 0 1.76861e+06 -38773.9 0 1.7774e+06 -13759.8 0 1.77623e+06 8772.35 0 1.76631e+06 28615.8 0 1.74885e+06 45714.4 0 1.72505e+06 60131.4 0 1.69602e+06 72016.4 0 1.66279e+06 81575.2 0 1.62629e+06 89044.5 0 1.58731e+06 94671.3 0 1.54656e+06 98698.9 0 1.50462e+06 101357 0 1.46199e+06 102857 0 1.4191e+06 103386 0 1.37628e+06 103111 0 1.33382e+06 102176 0 1.29194e+06 100704 0 1.25083e+06 98801.9 0 1.21064e+06 96557.3 0 1.17148e+06 94045.1 0 1.13342e+06 91327.4 0 1.09656e+06 88455.7 0 1.06091e+06 85472.6 0 1.02653e+06 82413.1 0 1.24932e+06 -127482 0 1.33586e+06 -185763 0 1.45124e+06 -196742 0 1.541e+06 -180248 0 1.61515e+06 -155147 0 1.67373e+06 -126170 0 1.71857e+06 -96366.5 0 1.75038e+06 -67120.9 0 1.77009e+06 -39406 0 1.77871e+06 -13838.5 0 1.77736e+06 9182.95 0 1.76725e+06 29449.7 0 1.74961e+06 46906.7 0 1.72564e+06 61620.3 0 1.69646e+06 73745.1 0 1.66311e+06 83492.7 0 1.62649e+06 91105.8 0 1.58741e+06 96837.6 0 1.54658e+06 100937 0 1.50457e+06 103639 0 1.46189e+06 105158 0 1.41895e+06 105688 0 1.3761e+06 105398 0 1.33361e+06 104435 0 1.29171e+06 102925 0 1.25059e+06 100976 0 1.21039e+06 98677.7 0 1.17121e+06 96107.1 0 1.13316e+06 93327.1 0 1.09629e+06 90390.5 0 1.06065e+06 87340.4 0 1.02627e+06 84212.6 0 1.24478e+06 -127018 0 1.33471e+06 -192276 0 1.45239e+06 -202168 0 1.5426e+06 -184549 0 1.61702e+06 -158559 0 1.67559e+06 -128792 0 1.72037e+06 -98269.6 0 1.75205e+06 -68354.9 0 1.77161e+06 -40026.2 0 1.78004e+06 -13904.9 0 1.7785e+06 9605.76 0 1.76821e+06 30295.3 0 1.75039e+06 48109.7 0 1.72625e+06 63119 0 1.69692e+06 75482.4 0 1.66343e+06 85417.7 0 1.62669e+06 93173.5 0 1.58752e+06 99009.2 0 1.5466e+06 103179 0 1.50452e+06 105924 0 1.46178e+06 107463 0 1.4188e+06 107993 0 1.37591e+06 107687 0 1.33339e+06 106695 0 1.29148e+06 105147 0 1.25034e+06 103150 0 1.21013e+06 100799 0 1.17095e+06 98169.3 0 1.13289e+06 95327 0 1.09602e+06 92325.2 0 1.06038e+06 89208 0 1.02601e+06 86011.9 0 1.23941e+06 -126470 0 1.33363e+06 -199023 0 1.45363e+06 -207637 0 1.54426e+06 -188867 0 1.61894e+06 -161972 0 1.6775e+06 -131408 0 1.72221e+06 -100164 0 1.75376e+06 -69578 0 1.77315e+06 -40634.4 0 1.78141e+06 -13958.8 0 1.77967e+06 10041 0 1.76919e+06 31152.8 0 1.75118e+06 49323.8 0 1.72687e+06 64627.6 0 1.69739e+06 77228.6 0 1.66376e+06 87350.4 0 1.6269e+06 95247.8 0 1.58763e+06 101186 0 1.54662e+06 105426 0 1.50447e+06 108213 0 1.46168e+06 109771 0 1.41865e+06 110300 0 1.37572e+06 109978 0 1.33318e+06 108957 0 1.29124e+06 107369 0 1.25009e+06 105325 0 1.20986e+06 102920 0 1.17068e+06 100232 0 1.13262e+06 97326.9 0 1.09575e+06 94259.8 0 1.06011e+06 91075.5 0 1.02574e+06 87810.9 0 1.23317e+06 -125833 0 1.33265e+06 -206038 0 1.45494e+06 -213139 0 1.54597e+06 -193203 0 1.6209e+06 -165384 0 1.67945e+06 -134020 0 1.72409e+06 -102049 0 1.7555e+06 -70790.1 0 1.77473e+06 -41230.3 0 1.7828e+06 -14000.1 0 1.78087e+06 10488.8 0 1.77018e+06 32022.3 0 1.75199e+06 50549.1 0 1.72751e+06 66146.4 0 1.69787e+06 78983.8 0 1.6641e+06 89290.8 0 1.62712e+06 97328.8 0 1.58774e+06 103369 0 1.54665e+06 107678 0 1.50443e+06 110506 0 1.46158e+06 112082 0 1.4185e+06 112610 0 1.37553e+06 112271 0 1.33296e+06 111221 0 1.291e+06 109593 0 1.24983e+06 107501 0 1.2096e+06 105042 0 1.17041e+06 102295 0 1.13235e+06 99326.9 0 1.09547e+06 96194.4 0 1.05984e+06 92942.8 0 1.02547e+06 89609.7 0 1.22598e+06 -125100 0 1.33179e+06 -213354 0 1.45633e+06 -218667 0 1.54773e+06 -197559 0 1.62292e+06 -168795 0 1.68143e+06 -136626 0 1.72601e+06 -103925 0 1.75728e+06 -71991 0 1.77634e+06 -41813.8 0 1.78421e+06 -14028.5 0 1.78209e+06 10949.3 0 1.7712e+06 32904 0 1.75282e+06 51785.8 0 1.72816e+06 67675.4 0 1.69836e+06 80748 0 1.66444e+06 91239.2 0 1.62734e+06 99416.5 0 1.58786e+06 105558 0 1.54668e+06 109934 0 1.50438e+06 112802 0 1.46147e+06 114395 0 1.41835e+06 114922 0 1.37534e+06 114566 0 1.33274e+06 113486 0 1.29076e+06 111818 0 1.24958e+06 109678 0 1.20933e+06 107164 0 1.17013e+06 104358 0 1.13207e+06 101327 0 1.0952e+06 98128.9 0 1.05956e+06 94809.9 0 1.0252e+06 91408.3 0 1.21778e+06 -124263 0 1.3311e+06 -221010 0 1.45779e+06 -224211 0 1.54955e+06 -201936 0 1.62498e+06 -172202 0 1.68346e+06 -139226 0 1.72796e+06 -105791 0 1.75909e+06 -73180.5 0 1.77798e+06 -42384.7 0 1.78566e+06 -14043.8 0 1.78333e+06 11422.9 0 1.77224e+06 33798.1 0 1.75367e+06 53034 0 1.72882e+06 69214.9 0 1.69886e+06 82521.5 0 1.6648e+06 93195.6 0 1.62757e+06 101511 0 1.58798e+06 107752 0 1.54671e+06 112195 0 1.50434e+06 115103 0 1.46137e+06 116712 0 1.41819e+06 117236 0 1.37515e+06 116862 0 1.33252e+06 115752 0 1.29052e+06 114043 0 1.24932e+06 111855 0 1.20906e+06 109287 0 1.16986e+06 106421 0 1.13179e+06 103327 0 1.09491e+06 100063 0 1.05928e+06 96676.9 0 1.02492e+06 93206.7 0 1.20847e+06 -123313 0 1.33062e+06 -229044 0 1.45932e+06 -229757 0 1.55143e+06 -206337 0 1.62709e+06 -175604 0 1.68552e+06 -141822 0 1.72995e+06 -107647 0 1.76093e+06 -74358.5 0 1.77965e+06 -42942.8 0 1.78713e+06 -14045.9 0 1.78459e+06 11909.7 0 1.7733e+06 34704.8 0 1.75453e+06 54293.9 0 1.7295e+06 70765 0 1.69937e+06 84304.4 0 1.66516e+06 95160.1 0 1.62781e+06 103613 0 1.58811e+06 109952 0 1.54674e+06 114461 0 1.5043e+06 117407 0 1.46126e+06 119032 0 1.41804e+06 119553 0 1.37496e+06 119161 0 1.3323e+06 118019 0 1.29027e+06 116270 0 1.24905e+06 114033 0 1.20879e+06 111410 0 1.16957e+06 108484 0 1.1315e+06 105328 0 1.09463e+06 101998 0 1.059e+06 98543.7 0 1.02464e+06 95004.8 0 1.19794e+06 -122239 0 1.33041e+06 -237500 0 1.4609e+06 -235292 0 1.55338e+06 -210765 0 1.62924e+06 -178999 0 1.68763e+06 -144413 0 1.73198e+06 -109493 0 1.76281e+06 -75524.8 0 1.78135e+06 -43487.8 0 1.78863e+06 -14034.4 0 1.78588e+06 12409.8 0 1.77438e+06 35624.4 0 1.7554e+06 55565.7 0 1.73019e+06 72325.8 0 1.69989e+06 86096.8 0 1.66553e+06 97132.9 0 1.62805e+06 105721 0 1.58824e+06 112158 0 1.54678e+06 116732 0 1.50426e+06 119716 0 1.46116e+06 121356 0 1.41788e+06 121873 0 1.37476e+06 121461 0 1.33207e+06 120289 0 1.29002e+06 118498 0 1.24879e+06 116212 0 1.20851e+06 113533 0 1.16929e+06 110548 0 1.13121e+06 107328 0 1.09434e+06 103932 0 1.05871e+06 100410 0 1.02435e+06 96802.8 0 1.18607e+06 -121028 0 1.33055e+06 -246426 0 1.46251e+06 -240798 0 1.55541e+06 -215223 0 1.63143e+06 -182386 0 1.68978e+06 -146999 0 1.73405e+06 -111328 0 1.76472e+06 -76679.3 0 1.78308e+06 -44019.6 0 1.79015e+06 -14009.4 0 1.78719e+06 12923.5 0 1.77548e+06 36556.9 0 1.7563e+06 56849.5 0 1.7309e+06 73897.6 0 1.70042e+06 87898.9 0 1.66591e+06 99114.1 0 1.6283e+06 107837 0 1.58837e+06 114370 0 1.54682e+06 119008 0 1.50422e+06 122028 0 1.46105e+06 123682 0 1.41773e+06 124195 0 1.37457e+06 123764 0 1.33184e+06 122559 0 1.28977e+06 120727 0 1.24852e+06 118392 0 1.20823e+06 115658 0 1.169e+06 112612 0 1.13092e+06 109328 0 1.09404e+06 105867 0 1.05841e+06 102277 0 1.02406e+06 98600.5 0 1.17271e+06 -119665 0 1.33112e+06 -255871 0 1.46414e+06 -246255 0 1.55753e+06 -219718 0 1.63367e+06 -185760 0 1.69197e+06 -149581 0 1.73616e+06 -113153 0 1.76667e+06 -77821.9 0 1.78484e+06 -44538 0 1.7917e+06 -13970.4 0 1.78853e+06 13451 0 1.77659e+06 37502.6 0 1.75721e+06 58145.6 0 1.73161e+06 75480.4 0 1.70096e+06 89710.8 0 1.6663e+06 101104 0 1.62855e+06 109960 0 1.58851e+06 116588 0 1.54686e+06 121289 0 1.50418e+06 124345 0 1.46095e+06 126012 0 1.41757e+06 126520 0 1.37437e+06 126069 0 1.33161e+06 124832 0 1.28952e+06 122958 0 1.24825e+06 120572 0 1.20794e+06 117782 0 1.16871e+06 114677 0 1.13062e+06 111329 0 1.09375e+06 107801 0 1.05812e+06 104143 0 1.02377e+06 100398 0 1.1577e+06 -118133 0 1.33222e+06 -265892 0 1.46575e+06 -251639 0 1.55975e+06 -224255 0 1.63594e+06 -189120 0 1.69421e+06 -152159 0 1.7383e+06 -114965 0 1.76865e+06 -78952.3 0 1.78663e+06 -45042.8 0 1.79328e+06 -13917.3 0 1.78989e+06 13992.4 0 1.77773e+06 38461.7 0 1.75813e+06 59454.1 0 1.73234e+06 77074.5 0 1.70151e+06 91532.6 0 1.66669e+06 103102 0 1.62881e+06 112090 0 1.58865e+06 118812 0 1.5469e+06 123575 0 1.50414e+06 126666 0 1.46085e+06 128345 0 1.41741e+06 128847 0 1.37417e+06 128375 0 1.33138e+06 127105 0 1.28926e+06 125189 0 1.24797e+06 122754 0 1.20766e+06 119908 0 1.16841e+06 116741 0 1.13032e+06 113330 0 1.09345e+06 109736 0 1.05782e+06 106010 0 1.02347e+06 102195 0 1.14084e+06 -116412 0 1.33397e+06 -276550 0 1.46731e+06 -256924 0 1.56208e+06 -228843 0 1.63823e+06 -192460 0 1.6965e+06 -154735 0 1.74047e+06 -116766 0 1.77067e+06 -80070.3 0 1.78846e+06 -45533.9 0 1.79489e+06 -13849.9 0 1.79127e+06 14547.9 0 1.77889e+06 39434.4 0 1.75908e+06 60775.1 0 1.73308e+06 78679.9 0 1.70207e+06 93364.4 0 1.6671e+06 105109 0 1.62907e+06 114228 0 1.58879e+06 121043 0 1.54695e+06 125866 0 1.5041e+06 128991 0 1.46074e+06 130682 0 1.41726e+06 131178 0 1.37397e+06 130684 0 1.33115e+06 129381 0 1.289e+06 127421 0 1.2477e+06 124936 0 1.20737e+06 122033 0 1.16812e+06 118806 0 1.13002e+06 115331 0 1.09314e+06 111670 0 1.05751e+06 107876 0 1.02317e+06 103992 0 1.1219e+06 -114480 0 1.33651e+06 -287911 0 1.46876e+06 -262075 0 1.56456e+06 -233490 0 1.64055e+06 -195777 0 1.69884e+06 -157310 0 1.74268e+06 -118555 0 1.77272e+06 -81175.9 0 1.79031e+06 -46011 0 1.79652e+06 -13767.9 0 1.79267e+06 15117.8 0 1.78007e+06 40420.9 0 1.76003e+06 62108.9 0 1.73384e+06 80296.9 0 1.70265e+06 95206.5 0 1.66751e+06 107125 0 1.62934e+06 116373 0 1.58894e+06 123279 0 1.54699e+06 128162 0 1.50407e+06 131320 0 1.46064e+06 133022 0 1.4171e+06 133510 0 1.37377e+06 132995 0 1.33091e+06 131658 0 1.28874e+06 129655 0 1.24741e+06 127119 0 1.20707e+06 124160 0 1.16781e+06 120872 0 1.12971e+06 117332 0 1.09283e+06 113604 0 1.05721e+06 109742 0 1.02287e+06 105789 0 1.10063e+06 -112309 0 1.34001e+06 -300048 0 1.47005e+06 -267057 0 1.56721e+06 -238209 0 1.64287e+06 -199066 0 1.70124e+06 -159884 0 1.74493e+06 -120330 0 1.77481e+06 -82268.8 0 1.7922e+06 -46474.1 0 1.79819e+06 -13670.9 0 1.7941e+06 15702.1 0 1.78126e+06 41421.4 0 1.76101e+06 63455.7 0 1.73461e+06 81925.6 0 1.70323e+06 97058.9 0 1.66792e+06 109150 0 1.62961e+06 118526 0 1.58909e+06 125523 0 1.54704e+06 130464 0 1.50403e+06 133654 0 1.46053e+06 135366 0 1.41694e+06 135846 0 1.37356e+06 135308 0 1.33067e+06 133937 0 1.28847e+06 131890 0 1.24713e+06 129303 0 1.20678e+06 126287 0 1.16751e+06 122937 0 1.1294e+06 119333 0 1.09252e+06 115539 0 1.0569e+06 111608 0 1.02256e+06 107586 0 1.07673e+06 -109870 0 1.34467e+06 -313041 0 1.47109e+06 -271826 0 1.57006e+06 -243013 0 1.64518e+06 -202319 0 1.70371e+06 -162459 0 1.7472e+06 -122092 0 1.77694e+06 -83348.7 0 1.79411e+06 -46923.1 0 1.79988e+06 -13558.8 0 1.79555e+06 16301 0 1.78248e+06 42436.2 0 1.762e+06 64815.4 0 1.73539e+06 83566.2 0 1.70382e+06 98921.8 0 1.66835e+06 111184 0 1.62989e+06 120687 0 1.58925e+06 127773 0 1.5471e+06 132771 0 1.504e+06 135992 0 1.46043e+06 137713 0 1.41678e+06 138185 0 1.37336e+06 137623 0 1.33043e+06 136217 0 1.28821e+06 134126 0 1.24684e+06 131487 0 1.20648e+06 128414 0 1.1672e+06 125003 0 1.12909e+06 121334 0 1.09221e+06 117473 0 1.05658e+06 113473 0 1.02225e+06 109383 0 1.04984e+06 -107126 0 1.35073e+06 -326979 0 1.47179e+06 -276332 0 1.57317e+06 -247921 0 1.64745e+06 -205529 0 1.70626e+06 -165038 0 1.74949e+06 -123839 0 1.77911e+06 -84415.4 0 1.79605e+06 -47357.9 0 1.80159e+06 -13431 0 1.79703e+06 16914.6 0 1.78371e+06 43465.5 0 1.76301e+06 66188.4 0 1.73618e+06 85218.9 0 1.70442e+06 100795 0 1.66878e+06 113227 0 1.63018e+06 122856 0 1.58941e+06 130029 0 1.54715e+06 135084 0 1.50396e+06 138334 0 1.46032e+06 140064 0 1.41661e+06 140526 0 1.37315e+06 139941 0 1.33019e+06 138499 0 1.28794e+06 136364 0 1.24656e+06 133673 0 1.20617e+06 130542 0 1.16689e+06 127070 0 1.12877e+06 123336 0 1.09189e+06 119407 0 1.05626e+06 115339 0 1.02193e+06 111179 0 1.01956e+06 -104036 0 1.35846e+06 -341960 0 1.47203e+06 -280516 0 1.57658e+06 -252954 0 1.64967e+06 -208687 0 1.7089e+06 -167622 0 1.75181e+06 -125572 0 1.78132e+06 -85468.4 0 1.79802e+06 -47778.7 0 1.80334e+06 -13287.2 0 1.79852e+06 17543 0 1.78497e+06 44509.6 0 1.76403e+06 67574.7 0 1.73699e+06 86883.9 0 1.70503e+06 102679 0 1.66922e+06 115280 0 1.63047e+06 125032 0 1.58957e+06 132292 0 1.5472e+06 137402 0 1.50393e+06 140681 0 1.46022e+06 142419 0 1.41645e+06 142870 0 1.37294e+06 142261 0 1.32994e+06 140783 0 1.28766e+06 138603 0 1.24626e+06 135859 0 1.20587e+06 132671 0 1.16657e+06 129136 0 1.12845e+06 125337 0 1.09156e+06 121342 0 1.05594e+06 117204 0 1.02161e+06 112976 0 </DataArray> 
</PointData> 
<Points> 
<DataArray type="Float32" NumberOfComponents="3"> 