<?xml version="1.0"?> 
<VTKFile type="StructuredGrid" version="0.1"> 
<StructuredGrid WholeExtent="0 31 0 31 0 0"> 
<Piece Extent="0 31 0 31 0 0"> 
<PointData>
<DataArray type="Float32" Name="|E|" format="ascii" NumberOfComponents="3"> 
-2.0768e+06 168183 0 -2.09153e+06 189446 0 -2.10798e+06 211121 0 -2.12618e+06 233266 0 -2.14617e+06 255943 0 -2.16797e+06 279219 0 -2.19163e+06 303167 0 -2.21719e+06 327868 0 -2.24469e+06 353411 0 -2.27421e+06 379896 0 -2.30581e+06 407434 0 -2.33958e+06 436152 0 -2.37561e+06 466193 0 -2.41402e+06 497721 0 -2.45496e+06 530929 0 -2.49862e+06 566041 0 -2.54524e+06 603325 0 -2.59513e+06 643103 0 -2.6487e+06 685772 0 -2.70648e+06 731833 0 -2.76922e+06 781911 0 -2.83795e+06 836855 0 -2.91415e+06 897874 0 -2.99995e+06 966046 0 -3.09837e+06 1.04532e+06 0 -3.21595e+06 1.13581e+06 0 -3.3569e+06 1.24247e+06 0 -3.54235e+06 1.41927e+06 0 -3.82304e+06 1.40539e+06 0 -4.14138e+06 2.49922e+06 0 -5.13766e+06 -782257 0 -9.43074e+06 2.41568e+07 0 -2.07998e+06 183862 0 -2.09552e+06 205659 0 -2.11276e+06 227902 0 -2.13174e+06 250651 0 -2.15249e+06 273971 0 -2.17505e+06 297932 0 -2.19944e+06 322613 0 -2.22572e+06 348098 0 -2.25394e+06 374483 0 -2.28416e+06 401875 0 -2.31645e+06 430393 0 -2.3509e+06 460174 0 -2.38761e+06 491376 0 -2.4267e+06 524180 0 -2.46834e+06 558799 0 -2.51273e+06 595487 0 -2.5601e+06 634549 0 -2.6108e+06 676360 0 -2.66527e+06 721389 0 -2.72409e+06 770232 0 -2.78805e+06 823652 0 -2.8583e+06 882789 0 -2.93652e+06 948871 0 -3.02453e+06 1.02429e+06 0 -3.12773e+06 1.11235e+06 0 -3.24974e+06 1.21601e+06 0 -3.39204e+06 1.35235e+06 0 -3.63388e+06 1.49465e+06 0 -3.81352e+06 1.89938e+06 0 -4.39993e+06 1.65842e+06 0 -5.81608e+06 5.32089e+06 0 -2.0599e+06 8.43025e+06 0 -2.08352e+06 200118 0 -2.09985e+06 222463 0 -2.11787e+06 245290 0 -2.13761e+06 268661 0 -2.15911e+06 292644 0 -2.18239e+06 317313 0 -2.2075e+06 342751 0 -2.23448e+06 369048 0 -2.26339e+06 396306 0 -2.29429e+06 424639 0 -2.32725e+06 454178 0 -2.36236e+06 485071 0 -2.39972e+06 517490 0 -2.43948e+06 551638 0 -2.48178e+06 587752 0 -2.52685e+06 626119 0 -2.57495e+06 667091 0 -2.62642e+06 711104 0 -2.68174e+06 758714 0 -2.74154e+06 810619 0 -2.80666e+06 867842 0 -2.87844e+06 931612 0 -2.95816e+06 1.00373e+06 0 -3.04924e+06 1.08761e+06 0 -3.1564e+06 1.18606e+06 0 -3.27504e+06 1.30895e+06 0 -3.4563e+06 1.45646e+06 0 -3.64104e+06 1.73427e+06 0 -3.88751e+06 1.8756e+06 0 -4.77979e+06 3.08309e+06 0 -3.97393e+06 5.79146e+06 0 -565663 4.28975e+06 0 -2.08741e+06 216961 0 -2.10451e+06 239871 0 -2.12329e+06 263299 0 -2.14378e+06 287311 0 -2.166e+06 311978 0 -2.18999e+06 337378 0 -2.2158e+06 363599 0 -2.24346e+06 390738 0 -2.27303e+06 418902 0 -2.30458e+06 448216 0 -2.33818e+06 478820 0 -2.37393e+06 510877 0 -2.41192e+06 544576 0 -2.4523e+06 580143 0 -2.49523e+06 617846 0 -2.54095e+06 658010 0 -2.58971e+06 701041 0 -2.64191e+06 747452 0 -2.69803e+06 797882 0 -2.7587e+06 853235 0 -2.82496e+06 914682 0 -2.89784e+06 983703 0 -2.97927e+06 1.06324e+06 0 -3.07365e+06 1.15624e+06 0 -3.17763e+06 1.26891e+06 0 -3.31476e+06 1.40872e+06 0 -3.48405e+06 1.61915e+06 0 -3.63689e+06 1.85984e+06 0 -4.09495e+06 2.37604e+06 0 -4.22956e+06 4.02302e+06 0 -2.50196e+06 5.02001e+06 0 -543578 3.53534e+06 0 -2.09163e+06 234403 0 -2.10949e+06 257894 0 -2.12902e+06 281942 0 -2.15022e+06 306615 0 -2.17315e+06 331988 0 -2.19783e+06 358144 0 -2.22431e+06 385175 0 -2.25263e+06 413186 0 -2.28285e+06 442292 0 -2.31502e+06 472627 0 -2.34924e+06 504345 0 -2.38558e+06 537623 0 -2.42416e+06 572673 0 -2.46512e+06 609743 0 -2.50865e+06 649138 0 -2.55495e+06 691230 0 -2.60434e+06 736491 0 -2.65718e+06 785506 0 -2.71398e+06 839070 0 -2.77548e+06 898259 0 -2.84256e+06 964370 0 -2.91634e+06 1.03978e+06 0 -2.99999e+06 1.12742e+06 0 -3.09275e+06 1.23145e+06 0 -3.20272e+06 1.36081e+06 0 -3.3435e+06 1.5331e+06 0 -3.47608e+06 1.76993e+06 0 -3.70649e+06 2.10501e+06 0 -3.98191e+06 2.9999e+06 0 -3.34845e+06 4.24171e+06 0 -1.69953e+06 4.30832e+06 0 -694857 3.35602e+06 0 -2.09619e+06 252454 0 -2.11479e+06 276544 0 -2.13503e+06 301231 0 -2.15694e+06 326586 0 -2.18055e+06 352688 0 -2.2059e+06 379626 0 -2.23303e+06 407498 0 -2.26198e+06 436414 0 -2.29281e+06 466500 0 -2.32558e+06 497901 0 -2.36037e+06 530785 0 -2.39728e+06 565347 0 -2.43641e+06 601821 0 -2.47791e+06 640488 0 -2.52197e+06 681691 0 -2.5688e+06 725860 0 -2.61872e+06 773531 0 -2.6721e+06 825408 0 -2.72949e+06 882450 0 -2.79158e+06 945831 0 -2.85913e+06 1.01745e+06 0 -2.93411e+06 1.10001e+06 0 -3.01722e+06 1.19667e+06 0 -3.11052e+06 1.31516e+06 0 -3.22483e+06 1.46472e+06 0 -3.34479e+06 1.67046e+06 0 -3.48439e+06 1.94577e+06 0 -3.68959e+06 2.46879e+06 0 -3.56427e+06 3.41478e+06 0 -2.56301e+06 4.0858e+06 0 -1.3268e+06 3.79054e+06 0 -778394 3.18594e+06 0 -2.10106e+06 271125 0 -2.12038e+06 295833 0 -2.14132e+06 321179 0 -2.16391e+06 347238 0 -2.18818e+06 374095 0 -2.21417e+06 401842 0 -2.24192e+06 430585 0 -2.27147e+06 460442 0 -2.30289e+06 491550 0 -2.33622e+06 524066 0 -2.37155e+06 558172 0 -2.40898e+06 594086 0 -2.44862e+06 632068 0 -2.4906e+06 672434 0 -2.53512e+06 715575 0 -2.58241e+06 761979 0 -2.63276e+06 812275 0 -2.68655e+06 867307 0 -2.74434e+06 928138 0 -2.80667e+06 996323 0 -2.87468e+06 1.0742e+06 0 -2.94946e+06 1.16443e+06 0 -3.03144e+06 1.27295e+06 0 -3.12613e+06 1.4066e+06 0 -3.2309e+06 1.58268e+06 0 -3.33682e+06 1.81839e+06 0 -3.46997e+06 2.17797e+06 0 -3.50566e+06 2.81778e+06 0 -3.02452e+06 3.57034e+06 0 -2.00684e+06 3.79623e+06 0 -1.16013e+06 3.41534e+06 0 -800917 2.96937e+06 0 -2.10624e+06 290430 0 -2.12625e+06 315775 0 -2.14787e+06 341801 0 -2.17111e+06 368588 0 -2.19602e+06 396225 0 -2.22263e+06 424811 0 -2.25097e+06 454458 0 -2.2811e+06 485295 0 -2.31306e+06 517468 0 -2.34692e+06 551149 0 -2.38275e+06 586540 0 -2.42065e+06 623881 0 -2.46073e+06 663462 0 -2.50313e+06 705640 0 -2.54804e+06 750859 0 -2.59567e+06 799680 0 -2.64631e+06 852848 0 -2.70035e+06 911313 0 -2.75822e+06 976384 0 -2.82058e+06 1.05002e+06 0 -2.88833e+06 1.13458e+06 0 -2.9617e+06 1.23445e+06 0 -3.04277e+06 1.3554e+06 0 -3.13258e+06 1.50856e+06 0 -3.22252e+06 1.71041e+06 0 -3.31539e+06 1.98999e+06 0 -3.37843e+06 2.43327e+06 0 -3.18522e+06 3.05855e+06 0 -2.51747e+06 3.53237e+06 0 -1.65444e+06 3.49285e+06 0 -1.07718e+06 3.12215e+06 0 -801008 2.74684e+06 0 -2.1117e+06 310381 0 -2.13239e+06 336383 0 -2.15466e+06 363112 0 -2.17854e+06 390651 0 -2.20406e+06 419095 0 -2.23125e+06 448551 0 -2.26016e+06 479138 0 -2.29082e+06 510994 0 -2.32329e+06 544281 0 -2.35763e+06 579184 0 -2.39391e+06 615926 0 -2.43223e+06 654774 0 -2.47269e+06 696054 0 -2.51542e+06 740168 0 -2.56061e+06 787619 0 -2.60845e+06 839065 0 -2.65922e+06 895350 0 -2.71324e+06 957596 0 -2.7709e+06 1.02743e+06 0 -2.8328e+06 1.10693e+06 0 -2.8992e+06 1.19943e+06 0 -2.97061e+06 1.30972e+06 0 -3.04801e+06 1.44544e+06 0 -3.12662e+06 1.61945e+06 0 -3.20017e+06 1.85018e+06 0 -3.25679e+06 2.18033e+06 0 -3.19255e+06 2.65829e+06 0 -2.80907e+06 3.16454e+06 0 -2.11285e+06 3.38697e+06 0 -1.43935e+06 3.21621e+06 0 -1.02752e+06 2.87789e+06 0 -799352 2.54346e+06 0 -2.11744e+06 330990 0 -2.13877e+06 357670 0 -2.16167e+06 385125 0 -2.18616e+06 413443 0 -2.21226e+06 442724 0 -2.24001e+06 473082 0 -2.26945e+06 504646 0 -2.30061e+06 537566 0 -2.33355e+06 572016 0 -2.36832e+06 608202 0 -2.405e+06 646368 0 -2.44366e+06 686812 0 -2.48441e+06 729898 0 -2.52738e+06 776082 0 -2.57271e+06 825942 0 -2.6206e+06 880225 0 -2.67127e+06 939907 0 -2.72496e+06 1.00635e+06 0 -2.782e+06 1.08135e+06 0 -2.84261e+06 1.16753e+06 0 -2.90676e+06 1.26877e+06 0 -2.97464e+06 1.39076e+06 0 -3.04382e+06 1.54283e+06 0 -3.10723e+06 1.73859e+06 0 -3.15535e+06 2.0011e+06 0 -3.14152e+06 2.36713e+06 0 -2.93676e+06 2.81327e+06 0 -2.44823e+06 3.15649e+06 0 -1.81761e+06 3.19715e+06 0 -1.30592e+06 2.97344e+06 0 -994105 2.66694e+06 0 -802306 2.36388e+06 0 -2.12343e+06 352271 0 -2.14539e+06 379652 0 -2.16889e+06 407858 0 -2.19396e+06 436981 0 -2.22061e+06 467130 0 -2.24888e+06 498425 0 -2.27881e+06 531006 0 -2.31043e+06 565036 0 -2.34378e+06 600705 0 -2.37893e+06 638237 0 -2.41593e+06 677905 0 -2.45487e+06 720040 0 -2.49582e+06 765051 0 -2.53889e+06 813452 0 -2.58422e+06 865904 0 -2.63194e+06 923257 0 -2.68221e+06 986663 0 -2.73518e+06 1.05766e+06 0 -2.79096e+06 1.13838e+06 0 -2.84936e+06 1.23193e+06 0 -2.91003e+06 1.34274e+06 0 -2.97144e+06 1.47761e+06 0 -3.02812e+06 1.64672e+06 0 -3.071e+06 1.86466e+06 0 -3.07609e+06 2.15448e+06 0 -2.96969e+06 2.52301e+06 0 -2.65327e+06 2.88547e+06 0 -2.14155e+06 3.07146e+06 0 -1.61103e+06 2.99877e+06 0 -1.21943e+06 2.76089e+06 0 -971828 2.48112e+06 0 -810162 2.20449e+06 0 -2.12966e+06 374239 0 -2.15222e+06 402344 0 -2.1763e+06 431325 0 -2.20191e+06 461283 0 -2.22908e+06 492331 0 -2.25784e+06 524600 0 -2.28821e+06 558242 0 -2.32024e+06 593431 0 -2.35396e+06 630376 0 -2.38941e+06 669325 0 -2.42666e+06 710580 0 -2.46577e+06 754507 0 -2.5068e+06 801569 0 -2.54983e+06 852346 0 -2.59495e+06 907584 0 -2.64224e+06 968268 0 -2.69175e+06 1.03571e+06 0 -2.74347e+06 1.11167e+06 0 -2.79717e+06 1.19866e+06 0 -2.85226e+06 1.30019e+06 0 -2.90746e+06 1.42136e+06 0 -2.95886e+06 1.56974e+06 0 -2.9987e+06 1.75564e+06 0 -3.01174e+06 1.99357e+06 0 -2.95663e+06 2.2952e+06 0 -2.75908e+06 2.62863e+06 0 -2.37964e+06 2.88354e+06 0 -1.8994e+06 2.94378e+06 0 -1.46786e+06 2.80835e+06 0 -1.16117e+06 2.57298e+06 0 -958647 2.31509e+06 0 -821853 2.06033e+06 0 -2.13611e+06 396907 0 -2.15924e+06 425760 0 -2.18386e+06 455544 0 -2.20999e+06 486366 0 -2.23764e+06 518348 0 -2.26684e+06 551630 0 -2.29761e+06 586376 0 -2.32999e+06 622778 0 -2.36401e+06 661062 0 -2.3997e+06 701502 0 -2.4371e+06 744431 0 -2.47627e+06 790262 0 -2.51723e+06 839509 0 -2.56004e+06 892826 0 -2.60471e+06 951063 0 -2.65123e+06 1.01534e+06 0 -2.69952e+06 1.08713e+06 0 -2.7493e+06 1.16848e+06 0 -2.79994e+06 1.2622e+06 0 -2.85023e+06 1.37224e+06 0 -2.89728e+06 1.50425e+06 0 -2.93498e+06 1.66588e+06 0 -2.95222e+06 1.86693e+06 0 -2.92431e+06 2.11722e+06 0 -2.80173e+06 2.40781e+06 0 -2.53444e+06 2.67771e+06 0 -2.13881e+06 2.82635e+06 0 -1.71595e+06 2.79785e+06 0 -1.36785e+06 2.63162e+06 0 -1.12157e+06 2.40475e+06 0 -953079 2.16478e+06 0 -836530 1.92755e+06 0 -2.14276e+06 420290 0 -2.16643e+06 449916 0 -2.19156e+06 480531 0 -2.21816e+06 512249 0 -2.24625e+06 545200 0 -2.27584e+06 579537 0 -2.30696e+06 615435 0 -2.33964e+06 653104 0 -2.37388e+06 692793 0 -2.40971e+06 734803 0 -2.44717e+06 779503 0 -2.48625e+06 827351 0 -2.52698e+06 878923 0 -2.56933e+06 934956 0 -2.61325e+06 996405 0 -2.65859e+06 1.06452e+06 0 -2.70507e+06 1.14099e+06 0 -2.75206e+06 1.22809e+06 0 -2.79842e+06 1.32892e+06 0 -2.84189e+06 1.44779e+06 0 -2.87779e+06 1.59048e+06 0 -2.89762e+06 1.76407e+06 0 -2.88519e+06 1.9759e+06 0 -2.80845e+06 2.22536e+06 0 -2.62437e+06 2.48204e+06 0 -2.3177e+06 2.6751e+06 0 -1.93938e+06 2.73379e+06 0 -1.57963e+06 2.64827e+06 0 -1.29731e+06 2.46925e+06 0 -1.09547e+06 2.25227e+06 0 -953818 2.02695e+06 0 -853745 1.80353e+06 0 -2.14958e+06 444403 0 -2.17377e+06 474828 0 -2.19937e+06 506304 0 -2.2264e+06 538950 0 -2.25488e+06 572909 0 -2.28482e+06 608342 0 -2.31622e+06 645443 0 -2.34911e+06 684438 0 -2.38349e+06 725601 0 -2.41937e+06 769262 0 -2.45674e+06 815832 0 -2.49559e+06 865817 0 -2.53587e+06 919860 0 -2.57749e+06 978784 0 -2.62029e+06 1.04365e+06 0 -2.66394e+06 1.11586e+06 0 -2.70787e+06 1.19729e+06 0 -2.75105e+06 1.2904e+06 0 -2.79157e+06 1.39856e+06 0 -2.82584e+06 1.52616e+06 0 -2.84732e+06 1.67854e+06 0 -2.84449e+06 1.86121e+06 0 -2.79611e+06 2.07599e+06 0 -2.66979e+06 2.30872e+06 0 -2.4403e+06 2.51492e+06 0 -2.12314e+06 2.63172e+06 0 -1.7805e+06 2.62199e+06 0 -1.47907e+06 2.50247e+06 0 -1.24761e+06 2.31998e+06 0 -1.07982e+06 2.1125e+06 0 -959804 1.89907e+06 0 -873288 1.68645e+06 0 -2.15656e+06 469260 0 -2.18121e+06 500512 0 -2.20725e+06 532879 0 -2.23467e+06 566489 0 -2.26349e+06 601493 0 -2.29371e+06 638069 0 -2.32533e+06 676424 0 -2.35836e+06 716806 0 -2.39278e+06 759515 0 -2.42857e+06 804914 0 -2.46571e+06 853455 0 -2.50413e+06 905698 0 -2.54371e+06 962357 0 -2.58427e+06 1.02434e+06 0 -2.62549e+06 1.09282e+06 0 -2.66683e+06 1.16934e+06 0 -2.70734e+06 1.25592e+06 0 -2.74544e+06 1.35519e+06 0 -2.77825e+06 1.47057e+06 0 -2.80072e+06 1.60616e+06 0 -2.80425e+06 1.7662e+06 0 -2.77409e+06 1.95296e+06 0 -2.68691e+06 2.16015e+06 0 -2.51795e+06 2.36159e+06 0 -2.26327e+06 2.50979e+06 0 -1.95718e+06 2.55995e+06 0 -1.65684e+06 2.50205e+06 0 -1.40522e+06 2.36357e+06 0 -1.21338e+06 2.18203e+06 0 -1.07254e+06 1.983e+06 0 -970247 1.77913e+06 0 -895043 1.57488e+06 0 -2.16366e+06 494877 0 -2.18874e+06 526984 0 -2.21516e+06 560274 0 -2.24292e+06 594882 0 -2.27203e+06 630974 0 -2.30246e+06 668739 0 -2.33422e+06 708402 0 -2.36729e+06 750235 0 -2.40163e+06 794563 0 -2.43721e+06 841786 0 -2.47393e+06 892400 0 -2.51168e+06 947022 0 -2.55027e+06 1.00643e+06 0 -2.58936e+06 1.07163e+06 0 -2.62847e+06 1.14389e+06 0 -2.66674e+06 1.22487e+06 0 -2.7028e+06 1.31668e+06 0 -2.73432e+06 1.42201e+06 0 -2.75733e+06 1.54406e+06 0 -2.76524e+06 1.68614e+06 0 -2.74734e+06 1.85042e+06 0 -2.6868e+06 2.03424e+06 0 -2.5629e+06 2.22263e+06 0 -2.36358e+06 2.38278e+06 0 -2.10261e+06 2.47369e+06 0 -1.82056e+06 2.47062e+06 0 -1.56201e+06 2.38071e+06 0 -1.35155e+06 2.23239e+06 0 -1.19114e+06 2.05368e+06 0 -1.07217e+06 1.86185e+06 0 -984590 1.66553e+06 0 -918927 1.46762e+06 0 -2.17085e+06 521270 0 -2.19632e+06 554261 0 -2.22308e+06 588505 0 -2.25112e+06 624150 0 -2.28044e+06 661370 0 -2.31102e+06 700371 0 -2.34282e+06 741398 0 -2.37582e+06 784745 0 -2.40996e+06 830767 0 -2.44514e+06 879901 0 -2.48124e+06 932687 0 -2.51806e+06 989800 0 -2.55528e+06 1.05209e+06 0 -2.59244e+06 1.12062e+06 0 -2.62879e+06 1.19677e+06 0 -2.66311e+06 1.28225e+06 0 -2.69349e+06 1.37921e+06 0 -2.71674e+06 1.49015e+06 0 -2.72775e+06 1.61773e+06 0 -2.71842e+06 1.76384e+06 0 -2.67638e+06 1.92751e+06 0 -2.58532e+06 2.10018e+06 0 -2.43135e+06 2.26025e+06 0 -2.2158e+06 2.37488e+06 0 -1.96302e+06 2.41481e+06 0 -1.71084e+06 2.37191e+06 0 -1.4902e+06 2.2616e+06 0 -1.3135e+06 2.10867e+06 0 -1.17856e+06 1.93335e+06 0 -1.07765e+06 1.74745e+06 0 -1.00245e+06 1.55695e+06 0 -944873 1.36359e+06 0 -2.1781e+06 548452 0 -2.20391e+06 582356 0 -2.23095e+06 617589 0 -2.25922e+06 654307 0 -2.28868e+06 692699 0 -2.31931e+06 732985 0 -2.35105e+06 775432 0 -2.38386e+06 820356 0 -2.41763e+06 868145 0 -2.45223e+06 919272 0 -2.48745e+06 974322 0 -2.52301e+06 1.03402e+06 0 -2.55846e+06 1.09928e+06 0 -2.59312e+06 1.17123e+06 0 -2.62595e+06 1.25129e+06 0 -2.65531e+06 1.34118e+06 0 -2.67863e+06 1.44291e+06 0 -2.69184e+06 1.55859e+06 0 -2.68869e+06 1.68987e+06 0 -2.65985e+06 1.83652e+06 0 -2.59269e+06 1.99361e+06 0 -2.47429e+06 2.14716e+06 0 -2.29975e+06 2.27276e+06 0 -2.08095e+06 2.34282e+06 0 -1.84562e+06 2.34067e+06 0 -1.62438e+06 2.26934e+06 0 -1.43677e+06 2.14641e+06 0 -1.28789e+06 1.99173e+06 0 -1.17398e+06 1.8197e+06 0 -1.08822e+06 1.6385e+06 0 -1.02356e+06 1.45222e+06 0 -972834 1.26176e+06 0 -2.18537e+06 576438 0 -2.21146e+06 611286 0 -2.23873e+06 647542 0 -2.26715e+06 685371 0 -2.29667e+06 724976 0 -2.32725e+06 766596 0 -2.35882e+06 810517 0 -2.39129e+06 857081 0 -2.42451e+06 906705 0 -2.45829e+06 959898 0 -2.49235e+06 1.01729e+06 0 -2.52628e+06 1.07965e+06 0 -2.55946e+06 1.14793e+06 0 -2.59098e+06 1.2233e+06 0 -2.61943e+06 1.30717e+06 0 -2.6427e+06 1.40116e+06 0 -2.6575e+06 1.50697e+06 0 -2.6589e+06 1.62599e+06 0 -2.6397e+06 1.75836e+06 0 -2.59012e+06 1.90116e+06 0 -2.49909e+06 2.04535e+06 0 -2.35931e+06 2.17349e+06 0 -2.17445e+06 2.26234e+06 0 -1.96246e+06 2.29231e+06 0 -1.74935e+06 2.2573e+06 0 -1.55748e+06 2.1663e+06 0 -1.39815e+06 2.03572e+06 0 -1.27247e+06 1.88073e+06 0 -1.17622e+06 1.71156e+06 0 -1.10337e+06 1.53384e+06 0 -1.04776e+06 1.3503e+06 0 -1.00279e+06 1.16113e+06 0 -2.19262e+06 605241 0 -2.21894e+06 641064 0 -2.24637e+06 678376 0 -2.27485e+06 717353 0 -2.30434e+06 758215 0 -2.33476e+06 801216 0 -2.36602e+06 846662 0 -2.39798e+06 894922 0 -2.43044e+06 946440 0 -2.46315e+06 1.00176e+06 0 -2.49571e+06 1.06154e+06 0 -2.52757e+06 1.1266e+06 0 -2.55792e+06 1.19789e+06 0 -2.58556e+06 1.27659e+06 0 -2.60869e+06 1.36401e+06 0 -2.62464e+06 1.46153e+06 0 -2.62946e+06 1.57031e+06 0 -2.61747e+06 1.69066e+06 0 -2.58101e+06 1.82082e+06 0 -2.51094e+06 1.95486e+06 0 -2.39955e+06 2.0805e+06 0 -2.24584e+06 2.17943e+06 0 -2.0599e+06 2.23263e+06 0 -1.86146e+06 2.22876e+06 0 -1.67208e+06 2.16907e+06 0 -1.50688e+06 2.06469e+06 0 -1.37172e+06 1.92952e+06 0 -1.26565e+06 1.77484e+06 0 -1.18444e+06 1.60789e+06 0 -1.12273e+06 1.43244e+06 0 -1.07496e+06 1.25019e+06 0 -1.03475e+06 1.06066e+06 0 -2.19981e+06 634874 0 -2.22629e+06 671701 0 -2.2538e+06 710102 0 -2.28226e+06 750266 0 -2.3116e+06 792424 0 -2.34174e+06 836849 0 -2.37253e+06 883867 0 -2.40378e+06 933871 0 -2.43525e+06 987331 0 -2.46658e+06 1.04482e+06 0 -2.49726e+06 1.10701e+06 0 -2.52656e+06 1.17474e+06 0 -2.55345e+06 1.24895e+06 0 -2.57639e+06 1.33074e+06 0 -2.59318e+06 1.42123e+06 0 -2.60059e+06 1.52139e+06 0 -2.5941e+06 1.63158e+06 0 -2.5676e+06 1.75072e+06 0 -2.51363e+06 1.87484e+06 0 -2.42502e+06 1.99533e+06 0 -2.29843e+06 2.09823e+06 0 -2.13844e+06 2.16686e+06 0 -1.95864e+06 2.18781e+06 0 -1.77752e+06 2.15668e+06 0 -1.61144e+06 2.07891e+06 0 -1.46994e+06 1.96548e+06 0 -1.35553e+06 1.82752e+06 0 -1.26625e+06 1.67326e+06 0 -1.19807e+06 1.50775e+06 0 -1.1461e+06 1.33335e+06 0 -1.10514e+06 1.1509e+06 0 -1.06876e+06 959222 0 -2.20688e+06 665346 0 -2.23346e+06 703208 0 -2.26095e+06 742730 0 -2.28929e+06 784113 0 -2.31838e+06 827604 0 -2.34808e+06 873492 0 -2.37821e+06 922121 0 -2.40855e+06 973904 0 -2.43875e+06 1.02933e+06 0 -2.46835e+06 1.08899e+06 0 -2.4967e+06 1.15357e+06 0 -2.5229e+06 1.22388e+06 0 -2.54562e+06 1.30081e+06 0 -2.56302e+06 1.38528e+06 0 -2.57243e+06 1.47811e+06 0 -2.57018e+06 1.57966e+06 0 -2.55135e+06 1.68925e+06 0 -2.50987e+06 1.80417e+06 0 -2.4394e+06 1.91831e+06 0 -2.3357e+06 2.02123e+06 0 -2.19983e+06 2.09911e+06 0 -2.04032e+06 2.13859e+06 0 -1.87166e+06 2.13188e+06 0 -1.70941e+06 2.07949e+06 0 -1.56518e+06 1.98865e+06 0 -1.44457e+06 1.86905e+06 0 -1.34813e+06 1.72926e+06 0 -1.27345e+06 1.57521e+06 0 -1.21673e+06 1.41028e+06 0 -1.17338e+06 1.23564e+06 0 -1.1384e+06 1.0514e+06 0 -1.10495e+06 855533 0 -2.21379e+06 696667 0 -2.24037e+06 735589 0 -2.26776e+06 776263 0 -2.29586e+06 818897 0 -2.32455e+06 863752 0 -2.35365e+06 911132 0 -2.38294e+06 961399 0 -2.4121e+06 1.01498e+06 0 -2.44071e+06 1.07237e+06 0 -2.4682e+06 1.13417e+06 0 -2.49375e+06 1.20105e+06 0 -2.51623e+06 1.27374e+06 0 -2.53406e+06 1.35303e+06 0 -2.54502e+06 1.43958e+06 0 -2.5461e+06 1.53372e+06 0 -2.53327e+06 1.63505e+06 0 -2.50156e+06 1.74164e+06 0 -2.44554e+06 1.84912e+06 0 -2.36081e+06 1.94969e+06 0 -2.24641e+06 2.03229e+06 0 -2.10709e+06 2.08476e+06 0 -1.9534e+06 2.0978e+06 0 -1.79884e+06 2.06829e+06 0 -1.65556e+06 1.99966e+06 0 -1.53135e+06 1.89936e+06 0 -1.42918e+06 1.77542e+06 0 -1.34849e+06 1.63425e+06 0 -1.28669e+06 1.47997e+06 0 -1.24021e+06 1.31463e+06 0 -1.20461e+06 1.13837e+06 0 -1.1749e+06 950563 0 -1.14354e+06 748055 0 -2.22046e+06 728839 0 -2.24696e+06 768848 0 -2.27414e+06 810699 0 -2.30187e+06 854608 0 -2.33001e+06 900851 0 -2.35832e+06 949742 0 -2.38653e+06 1.00165e+06 0 -2.41424e+06 1.05702e+06 0 -2.44092e+06 1.11634e+06 0 -2.46587e+06 1.18019e+06 0 -2.48809e+06 1.24919e+06 0 -2.50621e+06 1.32397e+06 0 -2.51839e+06 1.40509e+06 0 -2.52209e+06 1.49287e+06 0 -2.51401e+06 1.58702e+06 0 -2.49005e+06 1.68618e+06 0 -2.44558e+06 1.78714e+06 0 -2.37644e+06 1.88407e+06 0 -2.28064e+06 1.96825e+06 0 -2.1603e+06 2.0292e+06 0 -2.02262e+06 2.05744e+06 0 -1.8785e+06 2.04755e+06 0 -1.73945e+06 1.99975e+06 0 -1.61442e+06 1.91884e+06 0 -1.50836e+06 1.81162e+06 0 -1.42256e+06 1.68445e+06 0 -1.35586e+06 1.54196e+06 0 -1.30563e+06 1.38683e+06 0 -1.26849e+06 1.21998e+06 0 -1.23996e+06 1.04053e+06 0 -1.21501e+06 847113 0 -1.18491e+06 634858 0 -2.22684e+06 761865 0 -2.25314e+06 802981 0 -2.27999e+06 846028 0 -2.30722e+06 891231 0 -2.33462e+06 938873 0 -2.36194e+06 989278 0 -2.38881e+06 1.04282e+06 0 -2.41475e+06 1.09993e+06 0 -2.43913e+06 1.1611e+06 0 -2.46107e+06 1.22683e+06 0 -2.47939e+06 1.29768e+06 0 -2.49252e+06 1.37409e+06 0 -2.49832e+06 1.45634e+06 0 -2.49404e+06 1.54425e+06 0 -2.47627e+06 1.63681e+06 0 -2.4411e+06 1.73164e+06 0 -2.38475e+06 1.82432e+06 0 -2.30477e+06 1.90803e+06 0 -2.20163e+06 1.97403e+06 0 -2.07989e+06 2.01342e+06 0 -1.94786e+06 2.01964e+06 0 -1.81567e+06 1.99051e+06 0 -1.69248e+06 1.92829e+06 0 -1.58459e+06 1.83809e+06 0 -1.49494e+06 1.72566e+06 0 -1.42384e+06 1.59587e+06 0 -1.36974e+06 1.45182e+06 0 -1.33013e+06 1.2951e+06 0 -1.30165e+06 1.12545e+06 0 -1.27974e+06 941055 0 -1.25935e+06 739555 0 -1.22972e+06 513100 0 -2.23285e+06 795739 0 -2.25885e+06 837978 0 -2.28523e+06 882234 0 -2.31178e+06 928737 0 -2.33827e+06 977775 0 -2.36435e+06 1.02967e+06 0 -2.3896e+06 1.0848e+06 0 -2.41344e+06 1.14357e+06 0 -2.43509e+06 1.20643e+06 0 -2.45353e+06 1.27381e+06 0 -2.4674e+06 1.3461e+06 0 -2.47488e+06 1.42354e+06 0 -2.47368e+06 1.50599e+06 0 -2.46092e+06 1.59272e+06 0 -2.43328e+06 1.68189e+06 0 -2.38743e+06 1.77013e+06 0 -2.3208e+06 1.85212e+06 0 -2.23287e+06 1.92067e+06 0 -2.12624e+06 1.96783e+06 0 -2.00699e+06 1.98679e+06 0 -1.8835e+06 1.97377e+06 0 -1.76446e+06 1.92887e+06 0 -1.65682e+06 1.85537e+06 0 -1.56485e+06 1.75805e+06 0 -1.49014e+06 1.64151e+06 0 -1.4324e+06 1.50934e+06 0 -1.38985e+06 1.36327e+06 0 -1.36026e+06 1.20412e+06 0 -1.33995e+06 1.03008e+06 0 -1.32458e+06 838806 0 -1.30898e+06 625769 0 -1.27887e+06 379703 0 -2.2384e+06 830450 0 -2.26397e+06 873818 0 -2.28973e+06 919286 0 -2.31543e+06 967080 0 -2.34078e+06 1.01749e+06 0 -2.36538e+06 1.07084e+06 0 -2.3887e+06 1.12747e+06 0 -2.41006e+06 1.18775e+06 0 -2.42855e+06 1.25207e+06 0 -2.443e+06 1.32075e+06 0 -2.45185e+06 1.39396e+06 0 -2.45315e+06 1.47164e+06 0 -2.44446e+06 1.55319e+06 0 -2.42299e+06 1.63721e+06 0 -2.38578e+06 1.72109e+06 0 -2.33037e+06 1.80061e+06 0 -2.25567e+06 1.86996e+06 0 -2.16295e+06 1.92226e+06 0 -2.05641e+06 1.95092e+06 0 -1.94273e+06 1.95133e+06 0 -1.82964e+06 1.92194e+06 0 -1.7242e+06 1.8643e+06 0 -1.63148e+06 1.78197e+06 0 -1.55426e+06 1.67907e+06 0 -1.49325e+06 1.55909e+06 0 -1.44786e+06 1.42448e+06 0 -1.41612e+06 1.27573e+06 0 -1.39628e+06 1.11321e+06 0 -1.38374e+06 932680 0 -1.37569e+06 732597 0 -1.3653e+06 503571 0 -1.33442e+06 228126 0 -2.24341e+06 865976 0 -2.26841e+06 910473 0 -2.29338e+06 957140 0 -2.31804e+06 1.0062e+06 0 -2.34201e+06 1.05793e+06 0 -2.36484e+06 1.11264e+06 0 -2.3859e+06 1.17064e+06 0 -2.4044e+06 1.23224e+06 0 -2.41929e+06 1.29771e+06 0 -2.42925e+06 1.36722e+06 0 -2.4326e+06 1.44068e+06 0 -2.42727e+06 1.51765e+06 0 -2.41086e+06 1.59701e+06 0 -2.38081e+06 1.67671e+06 0 -2.33482e+06 1.75341e+06 0 -2.27152e+06 1.82238e+06 0 -2.1913e+06 1.87779e+06 0 -2.09693e+06 1.9136e+06 0 -1.99352e+06 1.92486e+06 0 -1.88766e+06 1.90895e+06 0 -1.78604e+06 1.86592e+06 0 -1.69414e+06 1.79806e+06 0 -1.61557e+06 1.70875e+06 0 -1.55206e+06 1.6013e+06 0 -1.50381e+06 1.4782e+06 0 -1.47003e+06 1.34087e+06 0 -1.44866e+06 1.18866e+06 0 -1.43869e+06 1.02165e+06 0 -1.43355e+06 831941 0 -1.43523e+06 622160 0 -1.43063e+06 366624 0 -1.40251e+06 47216.3 0 -2.24778e+06 902290 0 -2.27205e+06 947899 0 -2.29605e+06 995734 0 -2.31945e+06 1.04601e+06 0 -2.3418e+06 1.09898e+06 0 -2.36256e+06 1.15493e+06 0 -2.38101e+06 1.21411e+06 0 -2.39625e+06 1.27674e+06 0 -2.40711e+06 1.34295e+06 0 -2.41215e+06 1.41269e+06 0 -2.40959e+06 1.48559e+06 0 -2.39738e+06 1.56075e+06 0 -2.37329e+06 1.63653e+06 0 -2.33521e+06 1.71026e+06 0 -2.28169e+06 1.7781e+06 0 -2.21256e+06 1.83515e+06 0 -2.12951e+06 1.87602e+06 0 -2.03634e+06 1.89584e+06 0 -1.93847e+06 1.89131e+06 0 -1.84193e+06 1.86137e+06 0 -1.75224e+06 1.80713e+06 0 -1.67355e+06 1.73107e+06 0 -1.60837e+06 1.63611e+06 0 -1.55773e+06 1.52478e+06 0 -1.52156e+06 1.39862e+06 0 -1.4989e+06 1.25806e+06 0 -1.48794e+06 1.1015e+06 0 -1.48809e+06 928503 0 -1.49022e+06 726785 0 -1.50815e+06 505005 0 -1.50525e+06 208346 0 -1.49839e+06 -153147 0 -2.25141e+06 939350 0 -2.27478e+06 986030 0 -2.29762e+06 1.03499e+06 0 -2.31951e+06 1.0864e+06 0 -2.33996e+06 1.14049e+06 0 -2.35834e+06 1.1975e+06 0 -2.37384e+06 1.2576e+06 0 -2.38544e+06 1.32089e+06 0 -2.39187e+06 1.38733e+06 0 -2.39163e+06 1.45661e+06 0 -2.38292e+06 1.52799e+06 0 -2.3638e+06 1.60015e+06 0 -2.3324e+06 1.67092e+06 0 -2.28726e+06 1.73716e+06 0 -2.22784e+06 1.79478e+06 0 -2.15512e+06 1.83907e+06 0 -2.07182e+06 1.86544e+06 0 -1.98226e+06 1.8703e+06 0 -1.8917e+06 1.85181e+06 0 -1.80539e+06 1.81005e+06 0 -1.72774e+06 1.74664e+06 0 -1.66181e+06 1.66394e+06 0 -1.60935e+06 1.56431e+06 0 -1.57096e+06 1.44946e+06 0 -1.54641e+06 1.32009e+06 0 -1.53471e+06 1.17563e+06 0 -1.53466e+06 1.01381e+06 0 -1.5448e+06 832916 0 -1.55708e+06 615860 0 -1.59909e+06 383200 0 -1.58382e+06 28259.2 0 -1.78532e+06 -586167 0 -2.25418e+06 977058 0 -2.27647e+06 1.02481e+06 0 -2.29793e+06 1.0748e+06 0 -2.31808e+06 1.12723e+06 0 -2.33635e+06 1.18228e+06 0 -2.35203e+06 1.24011e+06 0 -2.36423e+06 1.30079e+06 0 -2.37183e+06 1.36427e+06 0 -2.37352e+06 1.4303e+06 0 -2.36775e+06 1.49826e+06 0 -2.35282e+06 1.56707e+06 0 -2.32707e+06 1.63494e+06 0 -2.28908e+06 1.69932e+06 0 -2.23816e+06 1.75678e+06 0 -2.17473e+06 1.80325e+06 0 -2.10069e+06 1.83455e+06 0 -2.01943e+06 1.84705e+06 0 -1.93539e+06 1.8384e+06 0 -1.85337e+06 1.80787e+06 0 -1.77777e+06 1.75626e+06 0 -1.71202e+06 1.68534e+06 0 -1.6584e+06 1.59717e+06 0 -1.61814e+06 1.49347e+06 0 -1.59161e+06 1.37522e+06 0 -1.57849e+06 1.24225e+06 0 -1.57806e+06 1.09312e+06 0 -1.58948e+06 924950 0 -1.60986e+06 732989 0 -1.64098e+06 500666 0 -1.70168e+06 253854 0 -1.72189e+06 -245774 0 -2.7888e+06 -1.39389e+06 0 </DataArray> 
</PointData> 
<Points> 
<DataArray type="Float32" NumberOfComponents="3"> 