<?xml version="1.0"?> 
<VTKFile type="StructuredGrid" version="0.1"> 
<StructuredGrid WholeExtent="0 3 0 3 0 0"> 
<Piece Extent="0 3 0 3 0 0"> 
<PointData>
<DataArray type="Float32" Name="|E|" format="ascii" NumberOfComponents="3"> 
451786 6.85228e+06 0 310785 4.7137e+06 0 286905 4.35152e+06 0 276943 4.20042e+06 0 -739424 4.2736e+06 0 -236748 4.33384e+06 0 16699 4.22693e+06 0 139080 4.13221e+06 0 -347509 3.7635e+06 0 -185500 3.95222e+06 0 -46568.3 4.01024e+06 0 48482.2 3.99335e+06 0 0 3.64676e+06 0 0 3.83827e+06 0 0 3.92601e+06 0 0 3.93115e+06 0 </DataArray> 
</PointData> 
<Points> 
<DataArray type="Float32" NumberOfComponents="3"> 
0.113 0.065 0 0.124167 0.0642638 0 0.135333 0.0635275 0 0.1465 0.0627913 0 0.113 0.0806667 0 0.124167 0.0801758 0 0.135333 0.079685 0 0.1465 0.0791942 0 0.113 0.0963333 0 0.124167 0.0960879 0 0.135333 0.0958425 0 0.1465 0.0955971 0 0.113 0.112 0 0.124167 0.112 0 0.135333 0.112 0 0.1465 0.112 0 
</DataArray>
</Points> 
</Piece> 
</StructuredGrid> 
</VTKFile> 
