<?xml version="1.0"?> 
<VTKFile type="StructuredGrid" version="0.1"> 
<StructuredGrid WholeExtent="0 3 0 3 0 0"> 
<Piece Extent="0 3 0 3 0 0"> 
<PointData>
<DataArray type="Float32" Name="|E|" format="ascii" NumberOfComponents="3"> 
-1.45451e+06 0 0 -1.41974e+06 518916 0 -1.45892e+06 1.11549e+06 0 -1.58388e+06 1.78699e+06 0 -1.01144e+06 0 0 -995756 717878 0 -1.06852e+06 1.52852e+06 0 -1.23663e+06 2.58736e+06 0 -518691 0 0 -518359 911044 0 -580429 1.96383e+06 0 -533634 3.25937e+06 0 0 0 0 0 1.08197e+06 0 0 2.36182e+06 0 0 3.64392e+06 0 </DataArray> 
</PointData> 
<Points> 
<DataArray type="Float32" NumberOfComponents="3"> 
0 0.0556667 0 0.0226 0.0595556 0 0.0452 0.0634444 0 0.0678 0.0673333 0 0 0.0744444 0 0.0276222 0.077037 0 0.0552444 0.0796296 0 0.0828667 0.0822222 0 0 0.0932222 0 0.0326444 0.0945185 0 0.0652889 0.0958148 0 0.0979333 0.0971111 0 0 0.112 0 0.0376667 0.112 0 0.0753333 0.112 0 0.113 0.112 0 
</DataArray>
</Points> 
</Piece> 
</StructuredGrid> 
</VTKFile> 
