<?xml version="1.0"?> 
<VTKFile type="StructuredGrid" version="0.1"> 
<StructuredGrid WholeExtent="0 3 0 3 0 0"> 
<Piece Extent="0 3 0 3 0 0"> 
<PointData>
<DataArray type="Float32" Name="|E|" format="ascii" NumberOfComponents="3"> 
-2.03186e+06 0 0 -2.04006e+06 48327.4 0 -2.0443e+06 365808 0 -2.07968e+06 119629 0 -1.98452e+06 0 0 -2.03187e+06 171399 0 -2.13281e+06 402269 0 -2.42016e+06 666829 0 -1.91189e+06 0 0 -2.01908e+06 371558 0 -2.41096e+06 834247 0 -2.28539e+06 2.03161e+06 0 -1.80751e+06 0 0 -2.03617e+06 581233 0 -2.2917e+06 1.62865e+06 0 -1.69066e+06 -15420.8 0 </DataArray> 
</PointData> 
<Points> 
<DataArray type="Float32" NumberOfComponents="3"> 
0 0.021 0 0.00533333 0.021 0 0.0106667 0.021 0 0.016 0.021 0 0 0.0256667 0 0.0146667 0.0256667 0 0.0293333 0.0256667 0 0.044 0.0256667 0 0 0.0303333 0 0.024 0.0303333 0 0.048 0.0303333 0 0.072 0.0303333 0 0 0.035 0 0.0333333 0.035 0 0.0666667 0.035 0 0.1 0.035 0 
</DataArray>
</Points> 
</Piece> 
</StructuredGrid> 
</VTKFile> 
