<?xml version="1.0"?> 
<VTKFile type="StructuredGrid" version="0.1"> 
<StructuredGrid WholeExtent="0 3 0 3 0 0"> 
<Piece Extent="0 3 0 3 0 0"> 
<PointData>
<DataArray type="Float32" Name="|E|" format="ascii" NumberOfComponents="3"> 
369712 5.42969e+06 0 2.33656e+06 5.82922e+06 0 3.90479e+06 4.61248e+06 0 4.62225e+06 2.86618e+06 0 825038 3.88296e+06 0 1.34954e+06 2.70576e+06 0 1.07636e+06 1.70338e+06 0 853650 1.17838e+06 0 399088 3.50841e+06 0 528865 2.06008e+06 0 315608 1.02556e+06 0 205306 498616 0 0 3.41711e+06 0 0 1.59524e+06 0 0 552839 0 0 30754.8 0 </DataArray> 
</PointData> 
<Points> 
<DataArray type="Float32" NumberOfComponents="3"> 
0.188 0.0600551 0 0.192903 0.0589349 0 0.197322 0.056275 0 0.200607 0.0524662 0 0.188 0.0773701 0 0.212463 0.0772203 0 0.236608 0.0754769 0 0.258071 0.0723108 0 0.188 0.094685 0 0.231374 0.0948987 0 0.274591 0.0940415 0 0.315536 0.0921554 0 0.188 0.112 0 0.249667 0.112 0 0.311333 0.112 0 0.373 0.112 0 
</DataArray>
</Points> 
</Piece> 
</StructuredGrid> 
</VTKFile> 
