<?xml version="1.0"?> 
<VTKFile type="StructuredGrid" version="0.1"> 
<StructuredGrid WholeExtent="0 7 0 7 0 0"> 
<Piece Extent="0 7 0 7 0 0"> 
<PointData>
<DataArray type="Float32" Name="|E|" format="ascii" NumberOfComponents="3"> 
-2.11464e+06 166824 0 -2.19299e+06 255758 0 -2.29731e+06 366098 0 -2.44832e+06 474519 0 -2.6595e+06 680665 0 -2.8918e+06 1.06281e+06 0 -3.55807e+06 -736573 0 -5.65426e+06 1.76445e+07 0 -2.20556e+06 299886 0 -2.30421e+06 419558 0 -2.44352e+06 562411 0 -2.62529e+06 719265 0 -2.85571e+06 909752 0 -3.33338e+06 1.41405e+06 0 -3.25089e+06 3.22759e+06 0 -389905 2.81369e+06 0 -2.34282e+06 495427 0 -2.48687e+06 657056 0 -2.65801e+06 817979 0 -2.85205e+06 1.07847e+06 0 -3.04997e+06 1.66805e+06 0 -2.76586e+06 2.3369e+06 0 -1.40741e+06 2.7008e+06 0 -368527 1.21854e+06 0 -2.59246e+06 884352 0 -2.71533e+06 1.09482e+06 0 -2.80069e+06 1.47126e+06 0 -2.75105e+06 1.97332e+06 0 -2.34415e+06 2.29099e+06 0 -1.50406e+06 2.24146e+06 0 -865632 1.7486e+06 0 -718600 1.11489e+06 0 -2.64954e+06 1.66931e+06 0 -2.55907e+06 2.0381e+06 0 -2.30764e+06 2.24244e+06 0 -1.88182e+06 2.16408e+06 0 -1.37384e+06 1.80483e+06 0 -1.05335e+06 1.42026e+06 0 -906787 967653 0 -702481 508139 0 -2.02593e+06 2.2351e+06 0 -1.74108e+06 1.98749e+06 0 -1.47984e+06 1.59638e+06 0 -1.27098e+06 1.15506e+06 0 -1.1481e+06 851997 0 -1.00881e+06 554306 0 -768588 225073 0 -488481 6011.28 0 -1.44942e+06 1.33274e+06 0 -1.36862e+06 580178 0 -1.24363e+06 151445 0 -1.0736e+06 -7289.93 0 -833602 -100758 0 -556576 -184677 0 -314497 -201424 0 -141740 -171894 0 1.78814e-07 -8.44346e+06 0 -1.11759e-07 -4.73533e+06 0 0 -2.1682e+06 0 1.49012e-08 -628607 0 -2.98023e-08 69913.2 0 4.47035e-08 244117 0 -5.96046e-08 185126 0 0 72757.2 0 </DataArray> 
</PointData> 
<Points> 
<DataArray type="Float32" NumberOfComponents="3"> 
0.016 0.021 0 0.0244286 0.021 0 0.0328571 0.021 0 0.0412857 0.021 0 0.0497143 0.021 0 0.0581429 0.021 0 0.0665714 0.021 0 0.075 0.021 0 0.028 0.023 0 0.0354286 0.023 0 0.0428571 0.023 0 0.0502857 0.023 0 0.0577143 0.023 0 0.0651429 0.023 0 0.0725714 0.023 0 0.08 0.023 0 0.04 0.025 0 0.0464286 0.025 0 0.0528571 0.025 0 0.0592857 0.025 0 0.0657143 0.025 0 0.0721429 0.025 0 0.0785714 0.025 0 0.085 0.025 0 0.052 0.027 0 0.0574286 0.027 0 0.0628571 0.027 0 0.0682857 0.027 0 0.0737143 0.027 0 0.0791429 0.027 0 0.0845714 0.027 0 0.09 0.027 0 0.064 0.029 0 0.0684286 0.029 0 0.0728571 0.029 0 0.0772857 0.029 0 0.0817143 0.029 0 0.0861429 0.029 0 0.0905714 0.029 0 0.095 0.029 0 0.076 0.031 0 0.0794286 0.031 0 0.0828571 0.031 0 0.0862857 0.031 0 0.0897143 0.031 0 0.0931429 0.031 0 0.0965714 0.031 0 0.1 0.031 0 0.088 0.033 0 0.0904286 0.033 0 0.0928571 0.033 0 0.0952857 0.033 0 0.0977143 0.033 0 0.100143 0.033 0 0.102571 0.033 0 0.105 0.033 0 0.1 0.035 0 0.101429 0.035 0 0.102857 0.035 0 0.104286 0.035 0 0.105714 0.035 0 0.107143 0.035 0 0.108571 0.035 0 0.11 0.035 0 
</DataArray>
</Points> 
</Piece> 
</StructuredGrid> 
</VTKFile> 
