<?xml version="1.0"?> 
<VTKFile type="StructuredGrid" version="0.1"> 
<StructuredGrid WholeExtent="0 7 0 7 0 0"> 
<Piece Extent="0 7 0 7 0 0"> 
<PointData>
<DataArray type="Float32" Name="|E|" format="ascii" NumberOfComponents="3"> 
-3.92993e+06 623608 0 -4.35831e+06 589295 0 -4.90841e+06 549885 0 -5.66101e+06 498185 0 -6.87741e+06 372852 0 -9.34027e+06 332731 0 -2.36077e+07 1.86343e+06 0 -3.18288e+08 1.08444e+08 0 -2.5762e+06 2.37773e+06 0 -2.82201e+06 2.57232e+06 0 -3.15604e+06 2.85316e+06 0 -3.61926e+06 3.29903e+06 0 -4.23226e+06 4.13565e+06 0 -5.00811e+06 5.83783e+06 0 -3.75909e+06 9.59082e+06 0 1.98409e+06 7.64298e+06 0 -1.52925e+06 2.14188e+06 0 -1.67175e+06 2.3833e+06 0 -1.84686e+06 2.68988e+06 0 -2.05131e+06 3.11006e+06 0 -2.24766e+06 3.73714e+06 0 -2.18322e+06 4.72329e+06 0 -1.25041e+06 5.53218e+06 0 98576.6 5.66556e+06 0 -1.01792e+06 1.74724e+06 0 -1.09159e+06 2.04405e+06 0 -1.1997e+06 2.38163e+06 0 -1.33528e+06 2.8016e+06 0 -1.45768e+06 3.36504e+06 0 -1.42182e+06 4.12829e+06 0 -857770 4.94898e+06 0 39513.3 4.9903e+06 0 -653772 1.30768e+06 0 -705662 1.64074e+06 0 -775367 2.02437e+06 0 -869310 2.47582e+06 0 -965919 3.03781e+06 0 -957246 3.74479e+06 0 -597351 4.42936e+06 0 61629.1 4.58339e+06 0 -396395 856583 0 -417311 1.24274e+06 0 -457658 1.66874e+06 0 -517654 2.16419e+06 0 -589668 2.76297e+06 0 -607861 3.48321e+06 0 -382645 4.17341e+06 0 48351.1 4.36914e+06 0 -185841 424781 0 -191950 853139 0 -206580 1.32111e+06 0 -234100 1.85766e+06 0 -273376 2.50368e+06 0 -297117 3.28023e+06 0 -193753 4.02164e+06 0 38631.5 4.25498e+06 0 0 -619.461 0 0 477960 0 0 986565 0 0 1.55857e+06 0 0 2.24837e+06 0 0 3.09993e+06 0 0 3.94582e+06 0 0 4.21261e+06 0 </DataArray> 
</PointData> 
<Points> 
<DataArray type="Float32" NumberOfComponents="3"> 
0.1 0.0687 0 0.100518 0.0701793 0 0.101037 0.0716586 0 0.101555 0.073138 0 0.102073 0.0746173 0 0.102591 0.0760966 0 0.10311 0.0775759 0 0.103628 0.0790553 0 0.0857143 0.0748857 0 0.0884646 0.0761537 0 0.091215 0.0774217 0 0.0939654 0.0786897 0 0.0967157 0.0799577 0 0.0994661 0.0812257 0 0.102216 0.0824937 0 0.104967 0.0837617 0 0.0714286 0.0810714 0 0.076411 0.0821281 0 0.0813935 0.0831847 0 0.0863759 0.0842414 0 0.0913583 0.0852981 0 0.0963408 0.0863547 0 0.101323 0.0874114 0 0.106306 0.088468 0 0.0571429 0.0872571 0 0.0643574 0.0881025 0 0.0715719 0.0889478 0 0.0787864 0.0897931 0 0.086001 0.0906385 0 0.0932155 0.0914838 0 0.10043 0.0923291 0 0.107645 0.0931744 0 0.0428571 0.0934429 0 0.0523038 0.0940769 0 0.0617504 0.0947108 0 0.071197 0.0953448 0 0.0806436 0.0959788 0 0.0900902 0.0966128 0 0.0995368 0.0972468 0 0.108983 0.0978808 0 0.0285714 0.0996286 0 0.0402501 0.100051 0 0.0519288 0.100474 0 0.0636075 0.100897 0 0.0752862 0.101319 0 0.0869649 0.101742 0 0.0986436 0.102165 0 0.110322 0.102587 0 0.0142857 0.105814 0 0.0281965 0.106026 0 0.0421073 0.106237 0 0.056018 0.106448 0 0.0699288 0.10666 0 0.0838396 0.106871 0 0.0977504 0.107082 0 0.111661 0.107294 0 0 0.112 0 0.0161429 0.112 0 0.0322857 0.112 0 0.0484286 0.112 0 0.0645714 0.112 0 0.0807143 0.112 0 0.0968571 0.112 0 0.113 0.112 0 
</DataArray>
</Points> 
</Piece> 
</StructuredGrid> 
</VTKFile> 
