<?xml version="1.0"?> 
<VTKFile type="StructuredGrid" version="0.1"> 
<StructuredGrid WholeExtent="0 7 0 7 0 0"> 
<Piece Extent="0 7 0 7 0 0"> 
<PointData>
<DataArray type="Float32" Name="|E|" format="ascii" NumberOfComponents="3"> 
-2.23517e-08 -9.53674e-07 0 4.19095e-09 300.237 0 -9.31323e-10 71.4411 0 0 11.9096 0 0 7.05907 0 -1.11759e-08 1.22695 0 1.49012e-08 0.450635 0 0 0.0199916 0 90.4502 2.98023e-07 0 -41.4566 342.213 0 -7.58204 96.7599 0 -5.30715 28.585 0 -1.56701 8.97522 0 -0.779356 4.00705 0 -0.363812 1.32681 0 -0.167639 0.456516 0 213.676 -1.19209e-07 0 -87.9345 401.121 0 -30.9108 136.666 0 -15.0269 46.0801 0 -6.92913 17.893 0 -3.32815 7.15808 0 -1.42904 3.77496 0 -0.984475 0.962438 0 387.991 4.76837e-07 0 -138.902 480.973 0 -78.6852 193.17 0 -38.4462 73.4317 0 -20.0983 30.3668 0 -10.105 14.4414 0 -6.3571 5.45607 0 -2.27387 5.44921 0 651.835 -1.07288e-06 0 -194.236 591.844 0 -162.1 268.737 0 -94.3086 113.14 0 -53.3309 48.3056 0 -30.2803 21.8136 0 -15.9923 12.1196 0 -13.1887 2.21097 0 1103.86 1.19209e-06 0 -258.012 754.391 0 -299.555 373.913 0 -216.284 160.088 0 -136.078 61.2544 0 -84.1167 21.9037 0 -53.7543 5.72222 0 -24.8975 -2.59712 0 2103.46 -9.53674e-07 0 -357.974 1007.03 0 -534.722 534.597 0 -475.329 204.473 0 -342.823 14.6564 0 -212.712 -61.7882 0 -122.609 -60.6376 0 -95.1962 -6.24294 0 6558.65 0 0 -594.659 1335.48 0 -982.296 786.96 0 -1047.99 211.177 0 -886.818 -245.162 0 -594.357 -546.41 0 -248.048 -685.896 0 113.975 -752.286 0 </DataArray> 
</PointData> 
<Points> 
<DataArray type="Float32" NumberOfComponents="3"> 
0.125 0.02 0 0.133571 0.02 0 0.142143 0.02 0 0.150714 0.02 0 0.159286 0.02 0 0.167857 0.02 0 0.176429 0.02 0 0.185 0.02 0 0.125 0.0201429 0 0.132449 0.0204286 0 0.139898 0.0207143 0 0.147347 0.021 0 0.154796 0.0212857 0 0.162245 0.0215714 0 0.169694 0.0218571 0 0.177143 0.0221429 0 0.125 0.0202857 0 0.131327 0.0208571 0 0.137653 0.0214286 0 0.14398 0.022 0 0.150306 0.0225714 0 0.156633 0.0231429 0 0.162959 0.0237143 0 0.169286 0.0242857 0 0.125 0.0204286 0 0.130204 0.0212857 0 0.135408 0.0221429 0 0.140612 0.023 0 0.145816 0.0238571 0 0.15102 0.0247143 0 0.156224 0.0255714 0 0.161429 0.0264286 0 0.125 0.0205714 0 0.129082 0.0217143 0 0.133163 0.0228571 0 0.137245 0.024 0 0.141327 0.0251429 0 0.145408 0.0262857 0 0.14949 0.0274286 0 0.153571 0.0285714 0 0.125 0.0207143 0 0.127959 0.0221429 0 0.130918 0.0235714 0 0.133878 0.025 0 0.136837 0.0264286 0 0.139796 0.0278571 0 0.142755 0.0292857 0 0.145714 0.0307143 0 0.125 0.0208571 0 0.126837 0.0225714 0 0.128673 0.0242857 0 0.13051 0.026 0 0.132347 0.0277143 0 0.134184 0.0294286 0 0.13602 0.0311429 0 0.137857 0.0328571 0 0.125 0.021 0 0.125714 0.023 0 0.126429 0.025 0 0.127143 0.027 0 0.127857 0.029 0 0.128571 0.031 0 0.129286 0.033 0 0.13 0.035 0 
</DataArray>
</Points> 
</Piece> 
</StructuredGrid> 
</VTKFile> 
