<?xml version="1.0"?> 
<VTKFile type="StructuredGrid" version="0.1"> 
<StructuredGrid WholeExtent="0 7 0 7 0 0"> 
<Piece Extent="0 7 0 7 0 0"> 
<PointData>
<DataArray type="Float32" Name="|E|" format="ascii" NumberOfComponents="3"> 
2.32938e+07 1.12711e+07 0 3.13108e+06 1.92652e+06 0 2.39647e+06 1.91534e+06 0 1.65546e+06 1.7797e+06 0 1.14286e+06 1.75367e+06 0 741065 1.81728e+06 0 374992 1.94897e+06 0 1844.66 2.25392e+06 0 215586 8.14608e+06 0 4.22096e+06 4.38461e+06 0 2.70633e+06 2.75231e+06 0 1.84682e+06 2.37718e+06 0 1.37144e+06 2.25623e+06 0 963232 2.24552e+06 0 639416 2.33192e+06 0 396187 2.48774e+06 0 -543328 5.84817e+06 0 2.06411e+06 5.46407e+06 0 2.32653e+06 3.7963e+06 0 1.86331e+06 3.11896e+06 0 1.41632e+06 2.80945e+06 0 1.07278e+06 2.69945e+06 0 789060 2.68521e+06 0 569988 2.73749e+06 0 -96465.2 5.02898e+06 0 888381 5.04735e+06 0 1.45547e+06 4.39435e+06 0 1.44266e+06 3.71508e+06 0 1.24136e+06 3.33401e+06 0 1.00346e+06 3.12071e+06 0 789113 3.01923e+06 0 611528 2.98208e+06 0 1882.69 4.60039e+06 0 434009 4.62834e+06 0 781737 4.35743e+06 0 915715 3.98509e+06 0 885153 3.66073e+06 0 782570 3.4337e+06 0 657899 3.28343e+06 0 538328 3.18843e+06 0 26702 4.3753e+06 0 228991 4.3535e+06 0 405090 4.21026e+06 0 505234 3.99994e+06 0 530366 3.78499e+06 0 503722 3.5985e+06 0 450064 3.4487e+06 0 387744 3.33203e+06 0 25650 4.25867e+06 0 106541 4.20584e+06 0 177742 4.09587e+06 0 223351 3.95281e+06 0 242228 3.80153e+06 0 239639 3.65606e+06 0 223102 3.52521e+06 0 199291 3.41048e+06 0 0 4.21261e+06 0 0 4.1445e+06 0 0 4.03787e+06 0 0 3.91365e+06 0 0 3.78366e+06 0 0 3.65863e+06 0 0 3.54178e+06 0 0 3.43575e+06 0 </DataArray> 
</PointData> 
<Points> 
<DataArray type="Float32" NumberOfComponents="3"> 
0.103628 0.0790553 0 0.108494 0.0701185 0 0.11378 0.0625556 0 0.119485 0.0563667 0 0.12561 0.0515517 0 0.132154 0.0481107 0 0.139117 0.0460436 0 0.1465 0.0453504 0 0.104967 0.0837617 0 0.109822 0.0761016 0 0.115036 0.0696191 0 0.12061 0.0643143 0 0.126543 0.0601872 0 0.132836 0.0572377 0 0.139488 0.0554659 0 0.1465 0.0548717 0 0.106306 0.088468 0 0.111149 0.0820846 0 0.116292 0.0766826 0 0.121734 0.0722619 0 0.127476 0.0688227 0 0.133518 0.0663648 0 0.139859 0.0648883 0 0.1465 0.0643931 0 0.107645 0.0931744 0 0.112476 0.0880677 0 0.117548 0.0837461 0 0.122859 0.0802095 0 0.12841 0.0774581 0 0.1342 0.0754918 0 0.14023 0.0743106 0 0.1465 0.0739145 0 0.108983 0.0978808 0 0.113804 0.0940508 0 0.118804 0.0908096 0 0.123983 0.0881572 0 0.129343 0.0860936 0 0.134882 0.0846189 0 0.140601 0.083733 0 0.1465 0.0834359 0 0.110322 0.102587 0 0.115131 0.100034 0 0.12006 0.097873 0 0.125108 0.0961048 0 0.130276 0.0947291 0 0.135564 0.0937459 0 0.140972 0.0931553 0 0.1465 0.0929572 0 0.111661 0.107294 0 0.116458 0.106017 0 0.121316 0.104937 0 0.126233 0.104052 0 0.13121 0.103365 0 0.136246 0.102873 0 0.141343 0.102578 0 0.1465 0.102479 0 0.113 0.112 0 0.117786 0.112 0 0.122571 0.112 0 0.127357 0.112 0 0.132143 0.112 0 0.136929 0.112 0 0.141714 0.112 0 0.1465 0.112 0 
</DataArray>
</Points> 
</Piece> 
</StructuredGrid> 
</VTKFile> 
