<?xml version="1.0"?> 
<VTKFile type="StructuredGrid" version="0.1"> 
<StructuredGrid WholeExtent="0 7 0 7 0 0"> 
<Piece Extent="0 7 0 7 0 0"> 
<PointData>
<DataArray type="Float32" Name="|E|" format="ascii" NumberOfComponents="3"> 
319.144 0 0 -115.044 -79.0197 0 -25.061 -3.19671 0 -11.7222 7.58821 0 -3.37603 1.40796 0 -0.748748 1.82677 0 -0.203277 0.325845 0 -0.00545227 -1.49012e-08 0 197.077 -5.96046e-08 0 -55.9669 -75.1574 0 -30.0805 -6.93007 0 -10.8245 0.690255 0 -4.11859 1.95121 0 -1.31128 0.735419 0 -0.367593 0.449845 0 -0.202435 -7.45058e-09 0 124.095 5.21541e-08 0 -24.8671 -64.7465 0 -26.9583 -13.1461 0 -10.2305 -2.62583 0 -4.37511 0.509656 0 -1.52003 0.324728 0 -0.577002 0.245648 0 -0.304578 3.72529e-09 0 78.9553 -1.49012e-08 0 -9.32305 -54.034 0 -21.0704 -17.8494 0 -9.15276 -5.14691 0 -4.09575 -0.989906 0 -1.56189 -0.158896 0 -0.648374 0.0336892 0 -0.383225 -1.11759e-08 0 49.6427 2.98023e-08 0 -2.24687 -45.1546 0 -14.909 -20.6795 0 -7.42169 -7.1922 0 -3.42123 -2.25142 0 -1.39942 -0.659139 0 -0.606111 -0.166471 0 -0.388143 1.49012e-08 0 29.2278 -4.47035e-08 0 0.327636 -38.7959 0 -9.34714 -22.0879 0 -5.18954 -8.72882 0 -2.45047 -3.18697 0 -1.04916 -1.08938 0 -0.467164 -0.333582 0 -0.312472 -4.47035e-08 0 13.575 -2.98023e-08 0 0.635846 -35.0036 0 -4.46893 -22.6628 0 -2.66006 -9.68022 0 -1.27738 -3.77094 0 -0.560873 -1.37786 0 -0.253983 -0.447332 0 -0.17359 8.19564e-08 0 -7.45058e-09 5.96046e-08 0 -1.86265e-09 -33.6709 0 2.79397e-09 -22.8132 0 5.58794e-09 -10.021 0 -5.58794e-09 -3.98263 0 1.11759e-08 -1.48565 0 -2.23517e-08 -0.490464 0 4.47035e-08 -7.45058e-08 0 </DataArray> 
</PointData> 
<Points> 
<DataArray type="Float32" NumberOfComponents="3"> 
0.13 0.035 0 0.137857 0.0328571 0 0.145714 0.0307143 0 0.153571 0.0285714 0 0.161429 0.0264286 0 0.169286 0.0242857 0 0.177143 0.0221429 0 0.185 0.02 0 0.13 0.0364286 0 0.137857 0.0345918 0 0.145714 0.0327551 0 0.153571 0.0309184 0 0.161429 0.0290816 0 0.169286 0.0272449 0 0.177143 0.0254082 0 0.185 0.0235714 0 0.13 0.0378571 0 0.137857 0.0363265 0 0.145714 0.0347959 0 0.153571 0.0332653 0 0.161429 0.0317347 0 0.169286 0.0302041 0 0.177143 0.0286735 0 0.185 0.0271429 0 0.13 0.0392857 0 0.137857 0.0380612 0 0.145714 0.0368367 0 0.153571 0.0356122 0 0.161429 0.0343878 0 0.169286 0.0331633 0 0.177143 0.0319388 0 0.185 0.0307143 0 0.13 0.0407143 0 0.137857 0.0397959 0 0.145714 0.0388776 0 0.153571 0.0379592 0 0.161429 0.0370408 0 0.169286 0.0361224 0 0.177143 0.0352041 0 0.185 0.0342857 0 0.13 0.0421429 0 0.137857 0.0415306 0 0.145714 0.0409184 0 0.153571 0.0403061 0 0.161429 0.0396939 0 0.169286 0.0390816 0 0.177143 0.0384694 0 0.185 0.0378571 0 0.13 0.0435714 0 0.137857 0.0432653 0 0.145714 0.0429592 0 0.153571 0.0426531 0 0.161429 0.0423469 0 0.169286 0.0420408 0 0.177143 0.0417347 0 0.185 0.0414286 0 0.13 0.045 0 0.137857 0.045 0 0.145714 0.045 0 0.153571 0.045 0 0.161429 0.045 0 0.169286 0.045 0 0.177143 0.045 0 0.185 0.045 0 
</DataArray>
</Points> 
</Piece> 
</StructuredGrid> 
</VTKFile> 
