<?xml version="1.0"?> 
<VTKFile type="StructuredGrid" version="0.1"> 
<StructuredGrid WholeExtent="0 15 0 15 0 0"> 
<Piece Extent="0 15 0 15 0 0"> 
<PointData>
<DataArray type="Float32" Name="|E|" format="ascii" NumberOfComponents="3"> 
361528 5.45115e+06 0 736521 5.74911e+06 0 1.13107e+06 5.89919e+06 0 1.53561e+06 5.95992e+06 0 1.94237e+06 5.95045e+06 0 2.34397e+06 5.87956e+06 0 2.73348e+06 5.75315e+06 0 3.10446e+06 5.5764e+06 0 3.45118e+06 5.35469e+06 0 3.76894e+06 5.09393e+06 0 4.05417e+06 4.80049e+06 0 4.30455e+06 4.48098e+06 0 4.5189e+06 4.14202e+06 0 4.6971e+06 3.78988e+06 0 4.83992e+06 3.43037e+06 0 4.94878e+06 3.06866e+06 0 901227 4.8692e+06 0 1.17026e+06 4.93294e+06 0 1.48436e+06 4.92189e+06 0 1.8058e+06 4.82367e+06 0 2.10247e+06 4.64982e+06 0 2.35535e+06 4.42036e+06 0 2.5563e+06 4.15641e+06 0 2.70504e+06 3.87666e+06 0 2.80627e+06 3.59574e+06 0 2.86726e+06 3.32407e+06 0 2.89611e+06 3.06821e+06 0 2.90063e+06 2.83169e+06 0 2.88776e+06 2.61584e+06 0 2.86325e+06 2.42045e+06 0 2.83169e+06 2.24441e+06 0 2.79655e+06 2.08615e+06 0 986248 4.48867e+06 0 1.2313e+06 4.46381e+06 0 1.49739e+06 4.36195e+06 0 1.74616e+06 4.18257e+06 0 1.94966e+06 3.94459e+06 0 2.09577e+06 3.67417e+06 0 2.18539e+06 3.39514e+06 0 2.22708e+06 3.12482e+06 0 2.2322e+06 2.87357e+06 0 2.21186e+06 2.6461e+06 0 2.17541e+06 2.44335e+06 0 2.12999e+06 2.26404e+06 0 2.08065e+06 2.10592e+06 0 2.03078e+06 1.96642e+06 0 1.98252e+06 1.84311e+06 0 1.93716e+06 1.73382e+06 0 963751 4.22372e+06 0 1.1867e+06 4.14327e+06 0 1.41047e+06 3.98919e+06 0 1.60196e+06 3.76868e+06 0 1.73962e+06 3.50603e+06 0 1.81914e+06 3.22878e+06 0 1.84815e+06 2.95841e+06 0 1.83927e+06 2.70773e+06 0 1.80514e+06 2.48226e+06 0 1.7561e+06 2.28278e+06 0 1.6997e+06 2.10764e+06 0 1.64105e+06 1.95425e+06 0 1.58343e+06 1.81988e+06 0 1.52889e+06 1.70199e+06 0 1.47864e+06 1.59832e+06 0 1.43332e+06 1.50687e+06 0 905587 4.02959e+06 0 1.1038e+06 3.91104e+06 0 1.29183e+06 3.72331e+06 0 1.43932e+06 3.47947e+06 0 1.53092e+06 3.20637e+06 0 1.56821e+06 2.93042e+06 0 1.56255e+06 2.66969e+06 0 1.52768e+06 2.4331e+06 0 1.4756e+06 2.22312e+06 0 1.41519e+06 2.03868e+06 0 1.35248e+06 1.87719e+06 0 1.29129e+06 1.73563e+06 0 1.23387e+06 1.61106e+06 0 1.18133e+06 1.50081e+06 0 1.13406e+06 1.40254e+06 0 1.09196e+06 1.31436e+06 0 830053 3.88242e+06 0 1.00648e+06 3.73539e+06 0 1.16447e+06 3.52385e+06 0 1.27787e+06 3.26484e+06 0 1.3365e+06 2.98608e+06 0 1.346e+06 2.71205e+06 0 1.31953e+06 2.45776e+06 0 1.27078e+06 2.2294e+06 0 1.21063e+06 2.02766e+06 0 1.14668e+06 1.8505e+06 0 1.08367e+06 1.69489e+06 0 1.02429e+06 1.55775e+06 0 969805 1.43634e+06 0 920655 1.32848e+06 0 876854 1.23253e+06 0 838264 1.14724e+06 0 748048 3.76836e+06 0 904084 3.59842e+06 0 1.03669e+06 3.36835e+06 0 1.12322e+06 3.09776e+06 0 1.15766e+06 2.81437e+06 0 1.1484e+06 2.54071e+06 0 1.10937e+06 2.28936e+06 0 1.05364e+06 2.06469e+06 0 990965 1.86631e+06 0 927650 1.69172e+06 0 867311 1.53786e+06 0 811754 1.40185e+06 0 761720 1.28125e+06 0 717376 1.174e+06 0 678546 1.07823e+06 0 644796 992150 0 663246 3.67846e+06 0 800680 3.48915e+06 0 911471 3.24331e+06 0 976415 2.96242e+06 0 992855 2.67388e+06 0 970969 2.39851e+06 0 924832 2.14712e+06 0 866665 1.92288e+06 0 804997 1.72482e+06 0 744965 1.55028e+06 0 689270 1.39629e+06 0 639108 1.26011e+06 0 594800 1.1393e+06 0 556142 1.03173e+06 0 522656 935705 0 493838 849992 0 577940 3.60709e+06 0 697911 3.40044e+06 0 789638 3.14009e+06 0 837007 2.84896e+06 0 840056 2.55407e+06 0 810094 2.27496e+06 0 760895 2.02124e+06 0 703613 1.79531e+06 0 645545 1.59589e+06 0 590766 1.42027e+06 0 541205 1.2655e+06 0 497497 1.12877e+06 0 459554 1.00759e+06 0 426957 899900 0 399209 803944 0 375794 718049 0 493016 3.55034e+06 0 596354 3.32748e+06 0 671124 3.05293e+06 0 704101 2.75087e+06 0 697469 2.44818e+06 0 663115 2.16358e+06 0 614120 1.90589e+06 0 560387 1.67707e+06 0 507960 1.47561e+06 0 459918 1.29868e+06 0 417473 1.14316e+06 0 380784 1.00611e+06 0 349519 884973 0 323170 777490 0 301163 681704 0 282950 595997 0 408917 3.50557e+06 0 496038 3.26694e+06 0 555493 2.97778e+06 0 576756 2.66364e+06 0 563666 2.35166e+06 0 528136 2.06017e+06 0 482159 1.79754e+06 0 434193 1.56538e+06 0 388998 1.3619e+06 0 348707 1.18397e+06 0 313915 1.02818e+06 0 284457 891371 0 259858 770697 0 239551 663692 0 222997 568266 0 209753 482619 0 325746 3.47092e+06 0 396716 3.21642e+06 0 442170 2.91168e+06 0 454141 2.58401e+06 0 437590 2.2613e+06 0 403852 1.96193e+06 0 363386 1.69401e+06 0 323012 1.4587e+06 0 286199 1.25371e+06 0 254234 1.07543e+06 0 227254 920054 0 204895 784019 0 186627 664182 0 171930 557846 0 160361 462708 0 151547 376776 0 243447 3.4451e+06 0 297985 3.17415e+06 0 330541 2.85238e+06 0 335573 2.5095e+06 0 318520 2.1748e+06 0 289390 1.86706e+06 0 256629 1.59403e+06 0 225268 1.3562e+06 0 197554 1.15054e+06 0 174098 972747 0 154746 818448 0 139063 683651 0 126576 564882 0 116868 459167 0 109603 363959 0 104540 277087 0 161865 3.42721e+06 0 199345 3.13879e+06 0 220006 2.7981e+06 0 220549 2.43817e+06 0 206011 2.09049e+06 0 184169 1.77436e+06 0 160981 1.49692e+06 0 139634 1.25758e+06 0 121325 1.05223e+06 0 106212 875740 0 94025.8 723098 0 84392.1 589851 0 76962 472170 0 71454.2 366787 0 67668.2 270906 0 65474.6 182092 0 80793.3 3.41668e+06 0 100229 3.10933e+06 0 109997 2.74731e+06 0 108741 2.36843e+06 0 99851 2.00715e+06 0 87801.7 1.68317e+06 0 75674.7 1.40241e+06 0 64916.9 1.16274e+06 0 55951 958726 0 48727.5 784273 0 43040.9 633718 0 38672.8 502144 0 35441 385364 0 33215.2 279802 0 31912.5 182349 0 31493.9 90247.5 0 0 3.41317e+06 0 0 3.08497e+06 0 0 2.69871e+06 0 0 2.29898e+06 0 0 1.92397e+06 0 0 1.59316e+06 0 0 1.31049e+06 0 0 1.07177e+06 0 0 870044 0 0 698227 0 0 550022 0 0 420067 0 0 303815 0 0 197341 0 0 97162.3 0 0 63.3584 0 </DataArray> 
</PointData> 
<Points> 
<DataArray type="Float32" NumberOfComponents="3"> 
0.187975 0.0600421 0 0.188961 0.0599464 0 0.189952 0.0597881 0 0.190941 0.0595661 0 0.191923 0.0592796 0 0.192892 0.0589288 0 0.19384 0.0585148 0 0.194763 0.0580394 0 0.195654 0.057505 0 0.196508 0.056915 0 0.197319 0.0562735 0 0.198083 0.0555849 0 0.198797 0.0548544 0 0.199457 0.0540873 0 0.200061 0.0532893 0 0.200607 0.0524662 0 0.187977 0.063506 0 0.189729 0.0634616 0 0.191503 0.0633537 0 0.193289 0.0631806 0 0.195077 0.0629416 0 0.196858 0.0626364 0 0.19862 0.0622657 0 0.200354 0.0618308 0 0.202049 0.061334 0 0.203696 0.0607781 0 0.205284 0.0601665 0 0.206806 0.0595035 0 0.208255 0.0587937 0 0.209624 0.0580421 0 0.210907 0.0572541 0 0.2121 0.0564351 0 0.187979 0.0669698 0 0.190496 0.0669703 0 0.193049 0.0669068 0 0.195625 0.0667776 0 0.198213 0.0665817 0 0.200797 0.0663186 0 0.203365 0.0659888 0 0.205902 0.0655932 0 0.208395 0.0651336 0 0.21083 0.0646126 0 0.213195 0.064033 0 0.215478 0.0633988 0 0.217667 0.062714 0 0.219755 0.0619833 0 0.221732 0.0612116 0 0.223593 0.0604041 0 0.18798 0.0704337 0 0.191261 0.0704726 0 0.194589 0.0704477 0 0.197951 0.0703573 0 0.201329 0.0702002 0 0.20471 0.0699759 0 0.208075 0.0696845 0 0.211408 0.0693268 0 0.214692 0.0689042 0 0.217912 0.0684188 0 0.221052 0.0678733 0 0.224097 0.0672708 0 0.227034 0.0666153 0 0.229851 0.0659107 0 0.232538 0.0651617 0 0.235085 0.064373 0 0.187982 0.0738976 0 0.192024 0.0739684 0 0.196124 0.0739763 0 0.200265 0.0739196 0 0.204428 0.0737972 0 0.208596 0.0736084 0 0.21275 0.0733531 0 0.216871 0.0730319 0 0.220941 0.072646 0 0.224942 0.0721971 0 0.228855 0.0716875 0 0.232665 0.0711199 0 0.236356 0.0704977 0 0.239913 0.0698246 0 0.243324 0.0691045 0 0.246578 0.0683419 0 0.187983 0.0773614 0 0.192787 0.0774577 0 0.197654 0.0774927 0 0.202567 0.0774648 0 0.207508 0.0773729 0 0.212455 0.0772163 0 0.217391 0.0769949 0 0.222293 0.076709 0 0.227143 0.0763595 0 0.231921 0.0759478 0 0.236607 0.0754759 0 0.241183 0.0749462 0 0.245632 0.0743615 0 0.249939 0.0737249 0 0.25409 0.0730401 0 0.258071 0.0723108 0 0.187985 0.0808253 0 0.193548 0.0809406 0 0.199179 0.080997 0 0.204859 0.080993 0 0.210569 0.0809275 0 0.216289 0.0808 0 0.221998 0.0806101 0 0.227674 0.0803582 0 0.233298 0.0800448 0 0.238848 0.0796712 0 0.244305 0.0792389 0 0.24965 0.07875 0 0.254864 0.0782067 0 0.259932 0.0776118 0 0.264836 0.0769684 0 0.269564 0.0762797 0 0.187987 0.0842891 0 0.194307 0.084417 0 0.200698 0.0844892 0 0.20714 0.0845042 0 0.213613 0.0844613 0 0.220097 0.0843596 0 0.226572 0.0841991 0 0.233015 0.0839799 0 0.239407 0.0837024 0 0.245726 0.0833676 0 0.251953 0.0829767 0 0.258068 0.0825313 0 0.264052 0.0820335 0 0.269889 0.0814854 0 0.275562 0.0808895 0 0.281057 0.0802487 0 0.187988 0.087753 0 0.195065 0.0878871 0 0.202212 0.0879694 0 0.20941 0.0879987 0 0.216639 0.0879743 0 0.22388 0.0878955 0 0.231112 0.0877622 0 0.238315 0.0875744 0 0.245469 0.0873325 0 0.252554 0.0870372 0 0.259549 0.0866895 0 0.266436 0.0862905 0 0.273196 0.085842 0 0.279813 0.0853456 0 0.286269 0.0848034 0 0.29255 0.0842176 0 0.18799 0.0912169 0 0.195822 0.0913508 0 0.203721 0.0914377 0 0.211669 0.0914765 0 0.219647 0.0914667 0 0.227637 0.0914078 0 0.23562 0.0912996 0 0.243576 0.091142 0 0.251487 0.0909355 0 0.259332 0.0906804 0 0.267095 0.0903775 0 0.274755 0.0900277 0 0.282297 0.0896323 0 0.289702 0.0891925 0 0.296956 0.08871 0 0.304043 0.0881865 0 0.187992 0.0946807 0 0.196577 0.0948081 0 0.205225 0.0948941 0 0.213917 0.0949378 0 0.222638 0.0949388 0 0.23137 0.0948968 0 0.240096 0.0948116 0 0.248798 0.0946831 0 0.257459 0.0945116 0 0.266062 0.0942974 0 0.27459 0.0940411 0 0.283026 0.0937432 0 0.291354 0.0934046 0 0.299558 0.0930263 0 0.307623 0.0926095 0 0.315536 0.0921554 0 0.187993 0.0981446 0 0.197331 0.0982591 0 0.206723 0.0983386 0 0.216155 0.0983826 0 0.225611 0.0983907 0 0.235078 0.0983627 0 0.244539 0.0982984 0 0.253981 0.0981979 0 0.263387 0.0980612 0 0.272744 0.0978886 0 0.282036 0.0976804 0 0.291249 0.097437 0 0.300368 0.097159 0 0.309379 0.096847 0 0.318271 0.0965018 0 0.327028 0.0961243 0 0.187995 0.101608 0 0.198084 0.101704 0 0.208217 0.101771 0 0.218382 0.101811 0 0.228567 0.101823 0 0.238761 0.101806 0 0.248951 0.10176 0 0.259125 0.101687 0 0.269272 0.101585 0 0.279378 0.101454 0 0.289433 0.101296 0 0.299424 0.101109 0 0.309339 0.100896 0 0.319168 0.100655 0 0.328899 0.100387 0 0.338521 0.100093 0 0.187997 0.105072 0 0.198835 0.105142 0 0.209705 0.105193 0 0.220598 0.105223 0 0.231506 0.105235 0 0.24242 0.105226 0 0.253332 0.105198 0 0.264232 0.10515 0 0.275113 0.105082 0 0.285965 0.104994 0 0.296781 0.104887 0 0.307551 0.104761 0 0.318268 0.104615 0 0.328923 0.104449 0 0.339507 0.104265 0 0.350014 0.104062 0 0.187998 0.108536 0 0.199585 0.108574 0 0.211188 0.108602 0 0.222804 0.10862 0 0.234428 0.108627 0 0.246055 0.108624 0 0.257681 0.108611 0 0.269301 0.108587 0 0.280911 0.108554 0 0.292506 0.10851 0 0.304081 0.108455 0 0.315632 0.108391 0 0.327155 0.108316 0 0.338645 0.108231 0 0.350097 0.108136 0 0.361507 0.108031 0 0.188 0.112 0 0.200333 0.112 0 0.212667 0.112 0 0.225 0.112 0 0.237333 0.112 0 0.249667 0.112 0 0.262 0.112 0 0.274333 0.112 0 0.286667 0.112 0 0.299 0.112 0 0.311333 0.112 0 0.323667 0.112 0 0.336 0.112 0 0.348333 0.112 0 0.360667 0.112 0 0.373 0.112 0 
</DataArray>
</Points> 
</Piece> 
</StructuredGrid> 
</VTKFile> 
