<?xml version="1.0"?> 
<VTKFile type="StructuredGrid" version="0.1"> 
<StructuredGrid WholeExtent="0 15 0 15 0 0"> 
<Piece Extent="0 15 0 15 0 0"> 
<PointData>
<DataArray type="Float32" Name="|E|" format="ascii" NumberOfComponents="3"> 
-4.35699e+06 1.63836e-06 0 -4.83673e+06 467925 0 -5.2479e+06 1.04927e+06 0 -5.56057e+06 1.73476e+06 0 -5.74624e+06 2.50579e+06 0 -5.78057e+06 3.33401e+06 0 -5.64688e+06 4.18228e+06 0 -5.33947e+06 5.00714e+06 0 -4.86583e+06 5.76295e+06 0 -4.24696e+06 6.40666e+06 0 -3.51551e+06 6.90238e+06 0 -2.71213e+06 7.22417e+06 0 -1.88107e+06 7.35609e+06 0 -1.06645e+06 7.28792e+06 0 -311300 7.00312e+06 0 335726 6.44986e+06 0 -3.70721e+06 1.04538e+06 0 -4.00145e+06 1.37848e+06 0 -4.24886e+06 1.79537e+06 0 -4.42465e+06 2.29059e+06 0 -4.5035e+06 2.84848e+06 0 -4.46472e+06 3.44212e+06 0 -4.29789e+06 4.03532e+06 0 -4.00721e+06 4.58795e+06 0 -3.61235e+06 5.06328e+06 0 -3.1451e+06 5.43482e+06 0 -2.64313e+06 5.69009e+06 0 -2.14341e+06 5.83067e+06 0 -1.67735e+06 5.86939e+06 0 -1.26823e+06 5.827e+06 0 -929220 5.73017e+06 0 -658447 5.61282e+06 0 -3.24685e+06 1.57634e+06 0 -3.43996e+06 1.82634e+06 0 -3.60023e+06 2.14328e+06 0 -3.70606e+06 2.52326e+06 0 -3.7354e+06 2.95278e+06 0 -3.67106e+06 3.40765e+06 0 -3.50656e+06 3.85555e+06 0 -3.24998e+06 4.26231e+06 0 -2.92338e+06 4.59983e+06 0 -2.55762e+06 4.85233e+06 0 -2.18475e+06 5.01829e+06 0 -1.83134e+06 5.10802e+06 0 -1.51476e+06 5.13879e+06 0 -1.24278e+06 5.12953e+06 0 -1.01614e+06 5.09675e+06 0 -834838 5.05229e+06 0 -2.91588e+06 1.86062e+06 0 -3.04772e+06 2.05995e+06 0 -3.1553e+06 2.31448e+06 0 -3.21983e+06 2.62154e+06 0 -3.2221e+06 2.96961e+06 0 -3.14764e+06 3.33739e+06 0 -2.99222e+06 3.6966e+06 0 -2.76504e+06 4.01837e+06 0 -2.48727e+06 4.28078e+06 0 -2.18614e+06 4.47398e+06 0 -1.88756e+06 4.60061e+06 0 -1.6107e+06 4.67208e+06 0 -1.36607e+06 4.70337e+06 0 -1.15676e+06 4.70876e+06 0 -980555 4.69959e+06 0 -830584 4.68339e+06 0 -2.6684e+06 2.01618e+06 0 -2.76039e+06 2.18351e+06 0 -2.83328e+06 2.39745e+06 0 -2.87076e+06 2.65627e+06 0 -2.8561e+06 2.95013e+06 0 -2.7769e+06 3.26033e+06 0 -2.63025e+06 3.56207e+06 0 -2.42535e+06 3.83065e+06 0 -2.18156e+06 4.04834e+06 0 -1.92252e+06 4.2085e+06 0 -1.6695e+06 4.31504e+06 0 -1.43714e+06 4.37847e+06 0 -1.23266e+06 4.41128e+06 0 -1.05739e+06 4.42455e+06 0 -909362 4.42655e+06 0 -786678 4.4231e+06 0 -2.47681e+06 2.09986e+06 0 -2.54124e+06 2.24594e+06 0 -2.58964e+06 2.43241e+06 0 -2.60793e+06 2.6581e+06 0 -2.58143e+06 2.9145e+06 0 -2.4994e+06 3.18504e+06 0 -2.35974e+06 3.44778e+06 0 -2.17119e+06 3.68121e+06 0 -1.95127e+06 3.87048e+06 0 -1.72064e+06 4.01068e+06 0 -1.49724e+06 4.10594e+06 0 -1.29295e+06 4.16556e+06 0 -1.11329e+06 4.19999e+06 0 -959152 4.21826e+06 0 -828671 4.2271e+06 0 -718133 4.23077e+06 0 -2.3246e+06 2.14072e+06 0 -2.36856e+06 2.2721e+06 0 -2.39853e+06 2.43938e+06 0 -2.40221e+06 2.64167e+06 0 -2.36666e+06 2.87142e+06 0 -2.28243e+06 3.11379e+06 0 -2.1479e+06 3.34914e+06 0 -1.97128e+06 3.55841e+06 0 -1.7684e+06 3.72876e+06 0 -1.55758e+06 3.85631e+06 0 -1.35437e+06 3.94499e+06 0 -1.16882e+06 4.00301e+06 0 -1.00554e+06 4.03932e+06 0 -865134 4.06153e+06 0 -745960 4.0752e+06 0 -646004 4.08413e+06 0 -2.20127e+06 2.15434e+06 0 -2.22893e+06 2.27538e+06 0 -2.24415e+06 2.42905e+06 0 -2.23606e+06 2.61451e+06 0 -2.19306e+06 2.82495e+06 0 -2.10673e+06 3.04688e+06 0 -1.97579e+06 3.26252e+06 0 -1.80784e+06 3.45473e+06 0 -1.61732e+06 3.61213e+06 0 -1.42067e+06 3.73148e+06 0 -1.23166e+06 3.81642e+06 0 -1.05912e+06 3.87423e+06 0 -907065 3.91272e+06 0 -776047 3.9385e+06 0 -664704 3.9564e+06 0 -570703 3.96959e+06 0 -2.09979e+06 2.14949e+06 0 -2.11361e+06 2.26341e+06 0 -2.1164e+06 2.40747e+06 0 -2.09831e+06 2.58078e+06 0 -2.04885e+06 2.77708e+06 0 -1.96035e+06 2.98399e+06 0 -1.83175e+06 3.18524e+06 0 -1.67009e+06 3.36522e+06 0 -1.48862e+06 3.51366e+06 0 -1.30226e+06 3.62774e+06 0 -1.12347e+06 3.71079e+06 0 -960169 3.76936e+06 0 -815994 3.81041e+06 0 -691503 3.83979e+06 0 -585505 3.86175e+06 0 -496218 3.87912e+06 0 -2.01508e+06 2.13132e+06 0 -2.01661e+06 2.24073e+06 0 -2.00847e+06 2.37822e+06 0 -1.98159e+06 2.54287e+06 0 -1.92628e+06 2.72884e+06 0 -1.83549e+06 2.92467e+06 0 -1.70825e+06 3.11534e+06 0 -1.55111e+06 3.2865e+06 0 -1.37629e+06 3.42876e+06 0 -1.19749e+06 3.5396e+06 0 -1.02611e+06 3.6221e+06 0 -869430 3.68219e+06 0 -730823 3.7262e+06 0 -610888 3.75939e+06 0 -508639 3.78559e+06 0 -422409 3.80733e+06 0 -1.94341e+06 2.1031e+06 0 -1.93368e+06 2.21021e+06 0 -1.91566e+06 2.34356e+06 0 -1.88082e+06 2.50223e+06 0 -1.8201e+06 2.68075e+06 0 -1.72688e+06 2.86845e+06 0 -1.60024e+06 3.05137e+06 0 -1.44627e+06 3.21621e+06 0 -1.2763e+06 3.35433e+06 0 -1.10304e+06 3.46341e+06 0 -937049 3.54634e+06 0 -785094 3.60859e+06 0 -650379 3.65596e+06 0 -533570 3.69331e+06 0 -433872 3.72414e+06 0 -349868 3.75073e+06 0 -1.88192e+06 2.06699e+06 0 -1.8617e+06 2.17374e+06 0 -1.83458e+06 2.30496e+06 0 -1.79241e+06 2.45978e+06 0 -1.72658e+06 2.63308e+06 0 -1.63081e+06 2.81492e+06 0 -1.50418e+06 2.99225e+06 0 -1.35235e+06 3.15266e+06 0 -1.18588e+06 3.28814e+06 0 -1.01664e+06 3.39659e+06 0 -854492 3.48073e+06 0 -705826 3.54567e+06 0 -573729 3.59686e+06 0 -458959 3.63881e+06 0 -360918 3.67479e+06 0 -278413 3.70691e+06 0 -1.82839e+06 2.02451e+06 0 -1.79833e+06 2.13263e+06 0 -1.76274e+06 2.2634e+06 0 -1.71374e+06 2.4161e+06 0 -1.64305e+06 2.58599e+06 0 -1.54465e+06 2.76375e+06 0 -1.41756e+06 2.93715e+06 0 -1.26705e+06 3.09459e+06 0 -1.10302e+06 3.22861e+06 0 -936611 3.3373e+06 0 -777116 3.42327e+06 0 -630611 3.49141e+06 0 -500123 3.54686e+06 0 -386523 3.59392e+06 0 -289440 3.63572e+06 0 -207934 3.67422e+06 0 -1.78109e+06 1.97681e+06 0 -1.74179e+06 2.08783e+06 0 -1.69828e+06 2.21961e+06 0 -1.64286e+06 2.37163e+06 0 -1.56754e+06 2.53954e+06 0 -1.46644e+06 2.71463e+06 0 -1.33853e+06 2.88544e+06 0 -1.1887e+06 3.04106e+06 0 -1.02626e+06 3.17453e+06 0 -861729 3.28415e+06 0 -703923 3.37249e+06 0 -558663 3.44426e+06 0 -428950 3.50444e+06 0 -315798 3.55721e+06 0 -219088 3.60561e+06 0 -138203 3.65156e+06 0 -1.73864e+06 1.92478e+06 0 -1.6907e+06 2.04008e+06 0 -1.63976e+06 2.1741e+06 0 -1.57832e+06 2.32665e+06 0 -1.49855e+06 2.49377e+06 0 -1.39471e+06 2.66735e+06 0 -1.26568e+06 2.83661e+06 0 -1.11601e+06 2.99132e+06 0 -954485 3.12498e+06 0 -791062 3.23611e+06 0 -634146 3.32727e+06 0 -489357 3.4031e+06 0 -359698 3.46849e+06 0 -246357 3.52762e+06 0 -149523 3.58354e+06 0 -68977 3.63821e+06 0 -1.69996e+06 1.86916e+06 0 -1.64399e+06 1.98994e+06 0 -1.58611e+06 2.1273e+06 0 -1.51898e+06 2.28138e+06 0 -1.43495e+06 2.4487e+06 0 -1.32836e+06 2.6217e+06 0 -1.19798e+06 2.79028e+06 0 -1.04805e+06 2.94482e+06 0 -886864 3.07926e+06 0 -723900 3.19236e+06 0 -567194 3.28673e+06 0 -422197 3.36702e+06 0 -291943 3.43814e+06 0 -177827 3.50435e+06 0 -80411.1 3.56886e+06 0 -0.259175 3.63377e+06 0 </DataArray> 
</PointData> 
<Points> 
<DataArray type="Float32" NumberOfComponents="3"> 
0.103 0.0549531 0 0.103046 0.0559145 0 0.103191 0.0568958 0 0.103443 0.0578819 0 0.103806 0.058856 0 0.104282 0.0597997 0 0.104868 0.0606942 0 0.105558 0.0615213 0 0.106341 0.0622646 0 0.107203 0.0629107 0 0.108127 0.0634497 0 0.109094 0.0638759 0 0.110086 0.0641877 0 0.111084 0.0643876 0 0.112072 0.0644815 0 0.113034 0.0644777 0 0.100653 0.0554562 0 0.100822 0.0565968 0 0.101102 0.0577642 0 0.101499 0.0589426 0 0.102018 0.0601134 0 0.102657 0.0612568 0 0.103411 0.0623521 0 0.104272 0.0633794 0 0.105227 0.06432 0 0.106261 0.0651583 0 0.107354 0.0658819 0 0.108486 0.0664829 0 0.109639 0.0669575 0 0.110792 0.0673062 0 0.111928 0.0675332 0 0.113032 0.0676459 0 0.0983067 0.0559593 0 0.0986084 0.0572756 0 0.099032 0.0586244 0 0.0995822 0.0599888 0 0.10026 0.0613494 0 0.101063 0.0626853 0 0.101985 0.0639747 0 0.103015 0.0651961 0 0.104138 0.0663297 0 0.105338 0.0673578 0 0.106595 0.0682665 0 0.107888 0.0690457 0 0.109197 0.0696896 0 0.110502 0.0701967 0 0.111785 0.0705696 0 0.11303 0.070814 0 0.09596 0.0564624 0 0.0964061 0.057951 0 0.0969822 0.0594764 0 0.097691 0.0610209 0 0.098532 0.0625647 0 0.0995009 0.0640862 0 0.100589 0.0655629 0 0.101785 0.0669729 0 0.103073 0.0682951 0 0.104435 0.0695109 0 0.105851 0.0706049 0 0.1073 0.0715654 0 0.108762 0.0723848 0 0.110215 0.0730597 0 0.111642 0.0735908 0 0.113027 0.0739822 0 0.0936133 0.0569656 0 0.0942148 0.058623 0 0.0949517 0.0603202 0 0.0958252 0.0620391 0 0.0968327 0.0637597 0 0.0979684 0.0654601 0 0.0992226 0.067118 0 0.100582 0.068711 0 0.102031 0.0702177 0 0.103551 0.071619 0 0.105122 0.0728985 0 0.106722 0.0740431 0 0.108332 0.0750438 0 0.109931 0.0758955 0 0.1115 0.0765969 0 0.113025 0.0771503 0 0.0912667 0.0574687 0 0.0920344 0.0592917 0 0.0929405 0.0611561 0 0.0939842 0.0630438 0 0.0951615 0.0649349 0 0.096465 0.066808 0 0.0978842 0.0686409 0 0.0994052 0.0704116 0 0.101012 0.072099 0 0.102685 0.0736835 0 0.104406 0.0751484 0 0.106154 0.0764798 0 0.107908 0.0776674 0 0.109649 0.0787045 0 0.111359 0.0795881 0 0.113023 0.0803185 0 0.08892 0.0579718 0 0.0898648 0.0599571 0 0.0909482 0.0619841 0 0.0921677 0.0640352 0 0.0935177 0.0660909 0 0.09499 0.0681305 0 0.0965732 0.0701327 0 0.0982532 0.0720761 0 0.100014 0.0739401 0 0.101837 0.0757057 0 0.103704 0.077356 0 0.105595 0.0788766 0 0.10749 0.0802563 0 0.10937 0.0814871 0 0.111219 0.0825643 0 0.113021 0.0834866 0 0.0865733 0.058475 0 0.087706 0.0606192 0 0.0889746 0.0628044 0 0.090375 0.0650135 0 0.0919007 0.067228 0 0.0935425 0.0694283 0 0.0952887 0.0715942 0 0.0971256 0.0737054 0 0.0990372 0.0757425 0 0.101006 0.077687 0 0.103015 0.0795224 0 0.105045 0.0812343 0 0.107077 0.082811 0 0.109094 0.0842436 0 0.111079 0.0855259 0 0.113018 0.0866548 0 0.0842267 0.0589781 0 0.0855579 0.061278 0 0.0870193 0.063617 0 0.0886057 0.0659791 0 0.0903097 0.0683468 0 0.0921217 0.0707022 0 0.0940301 0.0730264 0 0.0960214 0.0753008 0 0.0980808 0.0775072 0 0.100192 0.0796285 0 0.102339 0.0816488 0 0.104503 0.083554 0 0.106669 0.0853324 0 0.10882 0.0869744 0 0.11094 0.0884728 0 0.113016 0.0898229 0 0.08188 0.0594812 0 0.0834204 0.0619336 0 0.0850822 0.0644221 0 0.0868594 0.0669321 0 0.0887442 0.0694477 0 0.0907269 0.0719527 0 0.0927964 0.0744301 0 0.0949401 0.0768632 0 0.0971442 0.0792356 0 0.0993942 0.0815314 0 0.101675 0.0837362 0 0.103971 0.0858366 0 0.106267 0.0878211 0 0.108549 0.0896799 0 0.110802 0.0914051 0 0.113014 0.0929911 0 0.0795333 0.0599844 0 0.0812934 0.0625859 0 0.083163 0.0652197 0 0.0851357 0.0678728 0 0.0872036 0.0705311 0 0.0893574 0.0731805 0 0.091587 0.0758063 0 0.0938808 0.0783937 0 0.0962267 0.0809286 0 0.0986118 0.083397 0 0.101023 0.0857858 0 0.103447 0.088083 0 0.10587 0.0902777 0 0.10828 0.0923604 0 0.110665 0.0943231 0 0.113011 0.0961592 0 0.0771867 0.0604875 0 0.0791768 0.063235 0 0.0812614 0.0660101 0 0.083434 0.0688014 0 0.0856872 0.0715975 0 0.0880126 0.0743863 0 0.0904011 0.0771556 0 0.0928429 0.0798933 0 0.0953277 0.0825874 0 0.0978447 0.0852261 0 0.100383 0.0877985 0 0.102931 0.0902939 0 0.105478 0.0927028 0 0.108014 0.0950162 0 0.110528 0.0972267 0 0.113009 0.0993274 0 0.07484 0.0609906 0 0.0770706 0.063881 0 0.0793772 0.0667931 0 0.081754 0.0697183 0 0.0841945 0.0726472 0 0.0866917 0.0755705 0 0.0892381 0.0784789 0 0.0918259 0.0813628 0 0.0944468 0.0842129 0 0.0970924 0.08702 0 0.0997541 0.0897753 0 0.102423 0.0924703 0 0.105092 0.0950969 0 0.10775 0.0976478 0 0.110391 0.100116 0 0.113007 0.102496 0 0.0724933 0.0614937 0 0.0749746 0.0645238 0 0.0775102 0.0675691 0 0.0800953 0.0706235 0 0.082725 0.0736806 0 0.0853942 0.0767339 0 0.0880974 0.0797769 0 0.090829 0.0828032 0 0.0935833 0.0858063 0 0.0963544 0.0887797 0 0.0991365 0.0917173 0 0.101923 0.0946129 0 0.10471 0.0974608 0 0.107489 0.100255 0 0.110256 0.102991 0 0.113005 0.105664 0 0.0701467 0.0619969 0 0.0728889 0.0651634 0 0.0756601 0.068338 0 0.0784574 0.0715173 0 0.0812781 0.0746981 0 0.0841194 0.0778769 0 0.0869782 0.0810504 0 0.0898517 0.0842153 0 0.0927367 0.0873683 0 0.0956304 0.090506 0 0.0985296 0.0936252 0 0.101431 0.0967226 0 0.104332 0.099795 0 0.10723 0.102839 0 0.110121 0.105853 0 0.113002 0.108832 0 0.0678 0.0625 0 0.0708133 0.0658 0 0.0738267 0.0691 0 0.07684 0.0724 0 0.0798533 0.0757 0 0.0828667 0.079 0 0.08588 0.0823 0 0.0888933 0.0856 0 0.0919067 0.0889 0 0.09492 0.0922 0 0.0979333 0.0955 0 0.100947 0.0988 0 0.10396 0.1021 0 0.106973 0.1054 0 0.109987 0.1087 0 0.113 0.112 0 
</DataArray>
</Points> 
</Piece> 
</StructuredGrid> 
</VTKFile> 
