<?xml version="1.0"?> 
<VTKFile type="StructuredGrid" version="0.1"> 
<StructuredGrid WholeExtent="0 15 0 15 0 0"> 
<Piece Extent="0 15 0 15 0 0"> 
<PointData>
<DataArray type="Float32" Name="|E|" format="ascii" NumberOfComponents="3"> 
-3.79092e+06 -1.20476e+06 0 -3.45681e+06 -2.01956e+06 0 -3.31168e+06 -1.32456e+06 0 -3.25449e+06 -739969 0 -3.2293e+06 -374873 0 -3.21638e+06 -72405.4 0 -3.21535e+06 234243 0 -3.22689e+06 537454 0 -3.24967e+06 835702 0 -3.28226e+06 1.1365e+06 0 -3.32621e+06 1.43987e+06 0 -3.38041e+06 1.80549e+06 0 -3.45179e+06 2.19315e+06 0 -3.54431e+06 2.50812e+06 0 -3.70135e+06 3.57077e+06 0 -4.57901e+06 1.70145e+07 0 -3.21649e+06 -1.94883e+06 0 -3.13172e+06 -1.16686e+06 0 -3.14823e+06 -634929 0 -3.1512e+06 -296404 0 -3.14266e+06 -8564.05 0 -3.14345e+06 280861 0 -3.1575e+06 568771 0 -3.17992e+06 851808 0 -3.20873e+06 1.13676e+06 0 -3.24567e+06 1.43829e+06 0 -3.2873e+06 1.75375e+06 0 -3.3464e+06 2.10617e+06 0 -3.37766e+06 2.56291e+06 0 -3.50002e+06 3.17357e+06 0 -2.98384e+06 4.41597e+06 0 5958.07 3.19052e+06 0 -3.02252e+06 -833049 0 -3.07639e+06 -447653 0 -3.07788e+06 -176720 0 -3.06792e+06 87219.9 0 -3.0727e+06 362050 0 -3.09033e+06 634496 0 -3.11273e+06 902481 0 -3.1382e+06 1.17316e+06 0 -3.1694e+06 1.45807e+06 0 -3.20331e+06 1.75747e+06 0 -3.24334e+06 2.09092e+06 0 -3.26173e+06 2.51177e+06 0 -3.27721e+06 2.94088e+06 0 -2.95395e+06 3.92548e+06 0 -1.45079e+06 4.46508e+06 0 -573387 3.43611e+06 0 -3.01157e+06 -271459 0 -2.99546e+06 -36939.2 0 -2.99107e+06 218398 0 -3.00537e+06 479433 0 -3.0268e+06 734396 0 -3.0479e+06 986402 0 -3.06995e+06 1.24338e+06 0 -3.09597e+06 1.51385e+06 0 -3.12256e+06 1.80105e+06 0 -3.14694e+06 2.11539e+06 0 -3.15139e+06 2.48909e+06 0 -3.10943e+06 2.87449e+06 0 -2.83027e+06 3.64179e+06 0 -1.84063e+06 4.09219e+06 0 -850775 3.48433e+06 0 -619518 2.86605e+06 0 -2.91084e+06 146805 0 -2.92464e+06 388117 0 -2.9469e+06 629601 0 -2.96706e+06 866605 0 -2.98417e+06 1.10457e+06 0 -3.00257e+06 1.35007e+06 0 -3.02359e+06 1.60836e+06 0 -3.04235e+06 1.88231e+06 0 -3.05282e+06 2.17664e+06 0 -3.03852e+06 2.5131e+06 0 -2.95427e+06 2.88365e+06 0 -2.66692e+06 3.46865e+06 0 -1.94107e+06 3.77814e+06 0 -1.15064e+06 3.41173e+06 0 -785460 2.81748e+06 0 -625363 2.28988e+06 0 -2.87345e+06 585060 0 -2.89195e+06 812706 0 -2.90591e+06 1.03585e+06 0 -2.91915e+06 1.262e+06 0 -2.93476e+06 1.49642e+06 0 -2.95047e+06 1.74172e+06 0 -2.95981e+06 1.99995e+06 0 -2.95435e+06 2.27549e+06 0 -2.9135e+06 2.58575e+06 0 -2.78599e+06 2.93346e+06 0 -2.47984e+06 3.3598e+06 0 -1.90819e+06 3.52917e+06 0 -1.31057e+06 3.25356e+06 0 -968071 2.80283e+06 0 -806642 2.3618e+06 0 -709769 1.93393e+06 0 -2.83106e+06 1.0399e+06 0 -2.84178e+06 1.24612e+06 0 -2.85349e+06 1.45881e+06 0 -2.86587e+06 1.68087e+06 0 -2.87348e+06 1.91168e+06 0 -2.86868e+06 2.15425e+06 0 -2.83997e+06 2.41374e+06 0 -2.76194e+06 2.6986e+06 0 -2.58878e+06 2.99709e+06 0 -2.27169e+06 3.27259e+06 0 -1.81158e+06 3.31467e+06 0 -1.37462e+06 3.06849e+06 0 -1.10268e+06 2.71039e+06 0 -950534 2.33159e+06 0 -851912 1.94993e+06 0 -785886 1.585e+06 0 -2.77854e+06 1.49125e+06 0 -2.7862e+06 1.69189e+06 0 -2.79057e+06 1.90336e+06 0 -2.78294e+06 2.11951e+06 0 -2.7547e+06 2.34708e+06 0 -2.69142e+06 2.58552e+06 0 -2.56808e+06 2.82641e+06 0 -2.35661e+06 3.03984e+06 0 -2.05024e+06 3.16874e+06 0 -1.69209e+06 3.10621e+06 0 -1.38886e+06 2.86875e+06 0 -1.19402e+06 2.56657e+06 0 -1.06827e+06 2.23857e+06 0 -978704 1.90116e+06 0 -914370 1.57172e+06 0 -859667 1.24621e+06 0 -2.70482e+06 1.96409e+06 0 -2.69328e+06 2.16909e+06 0 -2.65859e+06 2.36282e+06 0 -2.5953e+06 2.56565e+06 0 -2.48929e+06 2.75847e+06 0 -2.32499e+06 2.91928e+06 0 -2.09966e+06 3.01865e+06 0 -1.83616e+06 3.01812e+06 0 -1.58235e+06 2.88303e+06 0 -1.38976e+06 2.65108e+06 0 -1.26065e+06 2.38197e+06 0 -1.16396e+06 2.09108e+06 0 -1.08834e+06 1.79364e+06 0 -1.03181e+06 1.50121e+06 0 -983281 1.20514e+06 0 -922685 902642 0 -2.54846e+06 2.46997e+06 0 -2.47199e+06 2.60291e+06 0 -2.37009e+06 2.75715e+06 0 -2.22884e+06 2.86308e+06 0 -2.04992e+06 2.91294e+06 0 -1.8522e+06 2.89933e+06 0 -1.66458e+06 2.80694e+06 0 -1.51233e+06 2.63174e+06 0 -1.40262e+06 2.40365e+06 0 -1.31798e+06 2.1531e+06 0 -1.24356e+06 1.89174e+06 0 -1.18336e+06 1.63223e+06 0 -1.1395e+06 1.37454e+06 0 -1.10036e+06 1.10404e+06 0 -1.04225e+06 816660 0 -939510 531335 0 -2.20337e+06 2.72456e+06 0 -2.08998e+06 2.83819e+06 0 -1.94608e+06 2.81757e+06 0 -1.8006e+06 2.76435e+06 0 -1.67447e+06 2.67699e+06 0 -1.57562e+06 2.53328e+06 0 -1.49917e+06 2.3335e+06 0 -1.4331e+06 2.1037e+06 0 -1.3686e+06 1.86938e+06 0 -1.3112e+06 1.64226e+06 0 -1.2715e+06 1.42185e+06 0 -1.24623e+06 1.19193e+06 0 -1.21541e+06 935131 0 -1.1503e+06 655064 0 -1.02845e+06 380312 0 -850417 150054 0 -1.84801e+06 2.78752e+06 0 -1.73386e+06 2.56135e+06 0 -1.66537e+06 2.48189e+06 0 -1.61738e+06 2.36702e+06 0 -1.5706e+06 2.17908e+06 0 -1.51664e+06 1.95179e+06 0 -1.45927e+06 1.72966e+06 0 -1.41112e+06 1.53299e+06 0 -1.38443e+06 1.35243e+06 0 -1.37696e+06 1.16181e+06 0 -1.36749e+06 936091 0 -1.32536e+06 670839 0 -1.22448e+06 390165 0 -1.05756e+06 136129 0 -843407 -51299 0 -618714 -154747 0 -1.64325e+06 2.00437e+06 0 -1.66401e+06 2.14677e+06 0 -1.62843e+06 1.94712e+06 0 -1.57042e+06 1.6735e+06 0 -1.52002e+06 1.44883e+06 0 -1.4964e+06 1.29138e+06 0 -1.50242e+06 1.16272e+06 0 -1.52237e+06 1.01084e+06 0 -1.52605e+06 802647 0 -1.48108e+06 539409 0 -1.36655e+06 253853 0 -1.18178e+06 -5392.63 0 -948430 -194957 0 -703389 -294051 0 -484299 -310124 0 -315639 -271350 0 -1.73957e+06 1.88576e+06 0 -1.61758e+06 1.15556e+06 0 -1.59595e+06 924323 0 -1.63471e+06 890248 0 -1.68909e+06 858888 0 -1.71597e+06 735485 0 -1.681e+06 505328 0 -1.56618e+06 208988 0 -1.37427e+06 -88211.3 0 -1.12696e+06 -325930 0 -858307 -467205 0 -605304 -506044 0 -397071 -464306 0 -247354 -378623 0 -153374 -284739 0 -101191 -205329 0 -1.71533e+06 -66730.8 0 -1.89542e+06 444229 0 -1.91071e+06 464072 0 -1.787e+06 208668 0 -1.5593e+06 -146986 0 -1.2689e+06 -475755 0 -959012 -700247 0 -668429 -792614 0 -425623 -766064 0 -245797 -657639 0 -130145 -512749 0 -67936 -371860 0 -41890.7 -260051 0 -34423.6 -184577 0 -32455.2 -139383 0 -29424 -112796 0 2.6226e-06 -1.1952e+07 0 -2.44472e-07 -5.35288e+06 0 -2.14204e-08 -1.47979e+06 0 1.96509e-07 423860 0 -6.51926e-08 1.03515e+06 0 -7.45058e-09 919037 0 2.23517e-08 503767 0 -1.49012e-07 70852.1 0 2.5332e-07 -232991 0 -2.68221e-07 -368038 0 2.68221e-07 -365664 0 -1.3411e-07 -288148 0 1.78814e-07 -194516 0 -1.93715e-07 -121439 0 2.08616e-07 -79704.6 0 -1.78814e-06 -62336.7 0 </DataArray> 
</PointData> 
<Points> 
<DataArray type="Float32" NumberOfComponents="3"> 
0.016 0.021 0 0.0199333 0.021 0 0.0238667 0.021 0 0.0278 0.021 0 0.0317333 0.021 0 0.0356667 0.021 0 0.0396 0.021 0 0.0435333 0.021 0 0.0474667 0.021 0 0.0514 0.021 0 0.0553333 0.021 0 0.0592667 0.021 0 0.0632 0.021 0 0.0671333 0.021 0 0.0710667 0.021 0 0.075 0.021 0 0.0216 0.0219333 0 0.0253156 0.0219333 0 0.0290311 0.0219333 0 0.0327467 0.0219333 0 0.0364622 0.0219333 0 0.0401778 0.0219333 0 0.0438933 0.0219333 0 0.0476089 0.0219333 0 0.0513244 0.0219333 0 0.05504 0.0219333 0 0.0587556 0.0219333 0 0.0624711 0.0219333 0 0.0661867 0.0219333 0 0.0699022 0.0219333 0 0.0736178 0.0219333 0 0.0773333 0.0219333 0 0.0272 0.0228667 0 0.0306978 0.0228667 0 0.0341956 0.0228667 0 0.0376933 0.0228667 0 0.0411911 0.0228667 0 0.0446889 0.0228667 0 0.0481867 0.0228667 0 0.0516844 0.0228667 0 0.0551822 0.0228667 0 0.05868 0.0228667 0 0.0621778 0.0228667 0 0.0656756 0.0228667 0 0.0691733 0.0228667 0 0.0726711 0.0228667 0 0.0761689 0.0228667 0 0.0796667 0.0228667 0 0.0328 0.0238 0 0.03608 0.0238 0 0.03936 0.0238 0 0.04264 0.0238 0 0.04592 0.0238 0 0.0492 0.0238 0 0.05248 0.0238 0 0.05576 0.0238 0 0.05904 0.0238 0 0.06232 0.0238 0 0.0656 0.0238 0 0.06888 0.0238 0 0.07216 0.0238 0 0.07544 0.0238 0 0.07872 0.0238 0 0.082 0.0238 0 0.0384 0.0247333 0 0.0414622 0.0247333 0 0.0445244 0.0247333 0 0.0475867 0.0247333 0 0.0506489 0.0247333 0 0.0537111 0.0247333 0 0.0567733 0.0247333 0 0.0598356 0.0247333 0 0.0628978 0.0247333 0 0.06596 0.0247333 0 0.0690222 0.0247333 0 0.0720844 0.0247333 0 0.0751467 0.0247333 0 0.0782089 0.0247333 0 0.0812711 0.0247333 0 0.0843333 0.0247333 0 0.044 0.0256667 0 0.0468444 0.0256667 0 0.0496889 0.0256667 0 0.0525333 0.0256667 0 0.0553778 0.0256667 0 0.0582222 0.0256667 0 0.0610667 0.0256667 0 0.0639111 0.0256667 0 0.0667556 0.0256667 0 0.0696 0.0256667 0 0.0724444 0.0256667 0 0.0752889 0.0256667 0 0.0781333 0.0256667 0 0.0809778 0.0256667 0 0.0838222 0.0256667 0 0.0866667 0.0256667 0 0.0496 0.0266 0 0.0522267 0.0266 0 0.0548533 0.0266 0 0.05748 0.0266 0 0.0601067 0.0266 0 0.0627333 0.0266 0 0.06536 0.0266 0 0.0679867 0.0266 0 0.0706133 0.0266 0 0.07324 0.0266 0 0.0758667 0.0266 0 0.0784933 0.0266 0 0.08112 0.0266 0 0.0837467 0.0266 0 0.0863733 0.0266 0 0.089 0.0266 0 0.0552 0.0275333 0 0.0576089 0.0275333 0 0.0600178 0.0275333 0 0.0624267 0.0275333 0 0.0648356 0.0275333 0 0.0672444 0.0275333 0 0.0696533 0.0275333 0 0.0720622 0.0275333 0 0.0744711 0.0275333 0 0.07688 0.0275333 0 0.0792889 0.0275333 0 0.0816978 0.0275333 0 0.0841067 0.0275333 0 0.0865156 0.0275333 0 0.0889244 0.0275333 0 0.0913333 0.0275333 0 0.0608 0.0284667 0 0.0629911 0.0284667 0 0.0651822 0.0284667 0 0.0673733 0.0284667 0 0.0695644 0.0284667 0 0.0717556 0.0284667 0 0.0739467 0.0284667 0 0.0761378 0.0284667 0 0.0783289 0.0284667 0 0.08052 0.0284667 0 0.0827111 0.0284667 0 0.0849022 0.0284667 0 0.0870933 0.0284667 0 0.0892844 0.0284667 0 0.0914756 0.0284667 0 0.0936667 0.0284667 0 0.0664 0.0294 0 0.0683733 0.0294 0 0.0703467 0.0294 0 0.07232 0.0294 0 0.0742933 0.0294 0 0.0762667 0.0294 0 0.07824 0.0294 0 0.0802133 0.0294 0 0.0821867 0.0294 0 0.08416 0.0294 0 0.0861333 0.0294 0 0.0881067 0.0294 0 0.09008 0.0294 0 0.0920533 0.0294 0 0.0940267 0.0294 0 0.096 0.0294 0 0.072 0.0303333 0 0.0737556 0.0303333 0 0.0755111 0.0303333 0 0.0772667 0.0303333 0 0.0790222 0.0303333 0 0.0807778 0.0303333 0 0.0825333 0.0303333 0 0.0842889 0.0303333 0 0.0860444 0.0303333 0 0.0878 0.0303333 0 0.0895556 0.0303333 0 0.0913111 0.0303333 0 0.0930667 0.0303333 0 0.0948222 0.0303333 0 0.0965778 0.0303333 0 0.0983333 0.0303333 0 0.0776 0.0312667 0 0.0791378 0.0312667 0 0.0806756 0.0312667 0 0.0822133 0.0312667 0 0.0837511 0.0312667 0 0.0852889 0.0312667 0 0.0868267 0.0312667 0 0.0883644 0.0312667 0 0.0899022 0.0312667 0 0.09144 0.0312667 0 0.0929778 0.0312667 0 0.0945156 0.0312667 0 0.0960533 0.0312667 0 0.0975911 0.0312667 0 0.0991289 0.0312667 0 0.100667 0.0312667 0 0.0832 0.0322 0 0.08452 0.0322 0 0.08584 0.0322 0 0.08716 0.0322 0 0.08848 0.0322 0 0.0898 0.0322 0 0.09112 0.0322 0 0.09244 0.0322 0 0.09376 0.0322 0 0.09508 0.0322 0 0.0964 0.0322 0 0.09772 0.0322 0 0.09904 0.0322 0 0.10036 0.0322 0 0.10168 0.0322 0 0.103 0.0322 0 0.0888 0.0331333 0 0.0899022 0.0331333 0 0.0910044 0.0331333 0 0.0921067 0.0331333 0 0.0932089 0.0331333 0 0.0943111 0.0331333 0 0.0954133 0.0331333 0 0.0965156 0.0331333 0 0.0976178 0.0331333 0 0.09872 0.0331333 0 0.0998222 0.0331333 0 0.100924 0.0331333 0 0.102027 0.0331333 0 0.103129 0.0331333 0 0.104231 0.0331333 0 0.105333 0.0331333 0 0.0944 0.0340667 0 0.0952844 0.0340667 0 0.0961689 0.0340667 0 0.0970533 0.0340667 0 0.0979378 0.0340667 0 0.0988222 0.0340667 0 0.0997067 0.0340667 0 0.100591 0.0340667 0 0.101476 0.0340667 0 0.10236 0.0340667 0 0.103244 0.0340667 0 0.104129 0.0340667 0 0.105013 0.0340667 0 0.105898 0.0340667 0 0.106782 0.0340667 0 0.107667 0.0340667 0 0.1 0.035 0 0.100667 0.035 0 0.101333 0.035 0 0.102 0.035 0 0.102667 0.035 0 0.103333 0.035 0 0.104 0.035 0 0.104667 0.035 0 0.105333 0.035 0 0.106 0.035 0 0.106667 0.035 0 0.107333 0.035 0 0.108 0.035 0 0.108667 0.035 0 0.109333 0.035 0 0.11 0.035 0 
</DataArray>
</Points> 
</Piece> 
</StructuredGrid> 
</VTKFile> 
