<?xml version="1.0"?> 
<VTKFile type="StructuredGrid" version="0.1"> 
<StructuredGrid WholeExtent="0 15 0 15 0 0"> 
<Piece Extent="0 15 0 15 0 0"> 
<PointData>
<DataArray type="Float32" Name="|E|" format="ascii" NumberOfComponents="3"> 
3.22126e+06 -1.33429e+06 0 2.74277e+06 265094 0 2.16029e+06 606005 0 1.76673e+06 662671 0 1.47773e+06 635383 0 1.25453e+06 574751 0 1.07659e+06 504096 0 931762 432517 0 813666 364112 0 717574 300433 0 640512 241706 0 580134 187542 0 534786 137206 0 503225 89814.9 0 484617 44408.2 0 478469 0 0 3.50536e+06 -1.20625e+06 0 2.7719e+06 366023 0 2.15266e+06 673602 0 1.74595e+06 713301 0 1.45198e+06 676082 0 1.22695e+06 609288 0 1.04885e+06 534370 0 904874 459379 0 788129 387965 0 693611 321377 0 618096 259703 0 559069 202454 0 514727 148834 0 483706 97900.1 0 465053 48639.1 0 458157 0 0 3.77106e+06 -1.04104e+06 0 2.7978e+06 471361 0 2.14323e+06 742752 0 1.72439e+06 764849 0 1.42581e+06 717500 0 1.19909e+06 644350 0 1.0208e+06 564933 0 877540 486311 0 761960 411691 0 668798 342043 0 594593 277320 0 536676 216940 0 493102 160046 0 462391 105642 0 443474 52663 0 435628 0 0 4.01724e+06 -841928 0 2.82008e+06 580762 0 2.13217e+06 813326 0 1.70219e+06 817260 0 1.39931e+06 759605 0 1.17099e+06 679909 0 992437 595775 0 849763 513313 0 735158 435300 0 643135 362447 0 570016 294579 0 512982 231025 0 469955 170869 0 439340 113064 0 419960 56494 0 410979 0 0 4.24248e+06 -611931 0 2.83849e+06 693857 0 2.11969e+06 885194 0 1.67948e+06 870490 0 1.37258e+06 802374 0 1.1427e+06 715950 0 963803 626893 0 821556 540392 0 707731 458809 0 616636 382614 0 544387 311507 0 488024 244737 0 445340 181328 0 414629 120185 0 394604 60145.6 0 384321 0 0 4.44519e+06 -353953 0 2.85296e+06 810271 0 2.10594e+06 958235 0 1.6564e+06 924511 0 1.34572e+06 845786 0 1.11429e+06 752467 0 934931 658292 0 792939 567560 0 679697 482237 0 589325 402566 0 517742 328131 0 461854 258102 0 419326 191449 0 388344 127027 0 367511 63629.4 0 355774 0 0 4.62374e+06 -70917.6 0 2.86345e+06 929638 0 2.09113e+06 1.03234e+06 0 1.63309e+06 979301 0 1.31883e+06 889827 0 1.08581e+06 789462 0 905859 689982 0 763943 594838 0 651085 505609 0 561237 422330 0 490128 344477 0 434534 271146 0 391995 201253 0 360585 133606 0 338799 66955.5 0 325471 0 0 4.77652e+06 234163 0 2.87005e+06 1.0516e+06 0 2.07544e+06 1.10741e+06 0 1.60969e+06 1.03484e+06 0 1.292e+06 934489 0 1.05734e+06 826946 0 876637 721978 0 734605 622246 0 621931 528949 0 532415 441933 0 461601 360571 0 406139 283891 0 363439 210759 0 331464 139937 0 308595 70131.9 0 293553 0 0 4.90207e+06 558152 0 2.87285e+06 1.17583e+06 0 2.05903e+06 1.18336e+06 0 1.58634e+06 1.09113e+06 0 1.26534e+06 979771 0 1.02894e+06 864932 0 847317 754303 0 704968 649814 0 592281 552286 0 502913 461402 0 432229 376437 0 376751 296359 0 333760 219983 0 301102 146030 0 277038 73164.1 0 260172 0 0 4.99912e+06 897778 0 2.87199e+06 1.30202e+06 0 2.04208e+06 1.26012e+06 0 1.56315e+06 1.14815e+06 0 1.23895e+06 1.02568e+06 0 1.00068e+06 903439 0 817959 786983 0 675083 677570 0 562187 575650 0 472790 480763 0 402086 392098 0 346463 308566 0 303069 228937 0 269628 151893 0 244277 76055.3 0 225491 0 0 5.06666e+06 1.24965e+06 0 2.8676e+06 1.42987e+06 0 2.02475e+06 1.33764e+06 0 1.54026e+06 1.20589e+06 0 1.21293e+06 1.07222e+06 0 972650 942490 0 788625 820046 0 645006 705547 0 531707 599071 0 442114 500044 0 371251 407573 0 315372 320526 0 271484 237630 0 237180 157529 0 210466 78806.2 0 189677 0 0 5.10398e+06 1.61026e+06 0 2.85982e+06 1.55912e+06 0 2.00719e+06 1.41585e+06 0 1.51777e+06 1.26435e+06 0 1.18738e+06 1.1194e+06 0 944912 982106 0 759383 853524 0 614794 733777 0 500903 622579 0 410954 519268 0 339810 422881 0 283580 332249 0 239127 246065 0 203902 162937 0 175767 81414.4 0 152909 0 0 5.1107e+06 1.97605e+06 0 2.84878e+06 1.6895e+06 0 1.98951e+06 1.49472e+06 0 1.49581e+06 1.32351e+06 0 1.1624e+06 1.16725e+06 0 917548 1.02231e+06 0 730302 887450 0 584511 762295 0 469841 646205 0 379383 538459 0 307849 438034 0 251194 343741 0 206125 254241 0 169941 168113 0 140347 83875 0 115369 0 0 5.0868e+06 2.34343e+06 0 2.83458e+06 1.82077e+06 0 1.97183e+06 1.57421e+06 0 1.47446e+06 1.38335e+06 0 1.13808e+06 1.21576e+06 0 890634 1.06312e+06 0 701455 921859 0 554220 791135 0 438587 669979 0 347475 557638 0 275458 453047 0 218320 355005 0 172605 262154 0 135447 173049 0 104378 86180.3 0 77246.5 0 0 5.03259e+06 2.7088e+06 0 2.81728e+06 1.95268e+06 0 1.95424e+06 1.65426e+06 0 1.45382e+06 1.44385e+06 0 1.11452e+06 1.26496e+06 0 864248 1.10457e+06 0 672915 956785 0 523984 820329 0 407211 693930 0 315302 576826 0 242723 467926 0 185063 366040 0 138694 269795 0 100569 177731 0 68032.4 88319.6 0 38732.6 0 0 4.94878e+06 3.06866e+06 0 2.79695e+06 2.08499e+06 0 1.93681e+06 1.73481e+06 0 1.43398e+06 1.50498e+06 0 1.09179e+06 1.31484e+06 0 838464 1.14666e+06 0 644758 992261 0 493866 849912 0 375779 718091 0 282935 596040 0 209732 482682 0 151524 376842 0 104519 277150 0 65457 182143 0 31482.7 90280 0 21.88 0 0 </DataArray> 
</PointData> 
<Points> 
<DataArray type="Float32" NumberOfComponents="3"> 
0.2018 0.0378 0 0.213213 0.0378 0 0.224627 0.0378 0 0.23604 0.0378 0 0.247453 0.0378 0 0.258867 0.0378 0 0.27028 0.0378 0 0.281693 0.0378 0 0.293107 0.0378 0 0.30452 0.0378 0 0.315933 0.0378 0 0.327347 0.0378 0 0.33876 0.0378 0 0.350173 0.0378 0 0.361587 0.0378 0 0.373 0.0378 0 0.20215 0.0387237 0 0.213688 0.0389954 0 0.225204 0.0392666 0 0.236699 0.0395372 0 0.248173 0.0398074 0 0.259625 0.0400771 0 0.271057 0.0403463 0 0.282467 0.0406149 0 0.293857 0.0408831 0 0.305225 0.0411508 0 0.316573 0.041418 0 0.3279 0.0416847 0 0.339206 0.0419509 0 0.350491 0.0422167 0 0.361756 0.0424819 0 0.373 0.0427467 0 0.202446 0.0396795 0 0.214093 0.0402268 0 0.2257 0.0407722 0 0.237266 0.0413156 0 0.248793 0.0418572 0 0.260279 0.0423969 0 0.271726 0.0429348 0 0.283134 0.0434708 0 0.294502 0.044005 0 0.305832 0.0445373 0 0.317122 0.0450678 0 0.328374 0.0455965 0 0.339588 0.0461234 0 0.350763 0.0466485 0 0.3619 0.0471718 0 0.373 0.0476933 0 0.202684 0.0406627 0 0.214425 0.0414884 0 0.226109 0.04231 0 0.237736 0.0431277 0 0.249308 0.0439415 0 0.260823 0.0447513 0 0.272283 0.0455572 0 0.283688 0.0463593 0 0.295039 0.0471575 0 0.306336 0.0479519 0 0.317579 0.0487425 0 0.328768 0.0495294 0 0.339905 0.0503126 0 0.350989 0.0510921 0 0.36202 0.0518679 0 0.373 0.05264 0 0.202862 0.0416681 0 0.21468 0.0427739 0 0.226427 0.043873 0 0.238105 0.0449655 0 0.249713 0.0460516 0 0.261252 0.0471313 0 0.272724 0.0482046 0 0.284128 0.0492716 0 0.295465 0.0503323 0 0.306736 0.0513868 0 0.317941 0.0524352 0 0.329081 0.0534774 0 0.340156 0.0545137 0 0.351167 0.0555439 0 0.362115 0.0565682 0 0.373 0.0575867 0 0.202976 0.0426901 0 0.214854 0.0440763 0 0.226651 0.0454531 0 0.238368 0.0468206 0 0.250005 0.0481788 0 0.261564 0.0495278 0 0.273045 0.0508677 0 0.284449 0.0521986 0 0.295777 0.0535207 0 0.307029 0.0548339 0 0.318207 0.0561385 0 0.32931 0.0574344 0 0.340341 0.0587217 0 0.351299 0.0600006 0 0.362185 0.0612711 0 0.373 0.0625333 0 0.203025 0.0437226 0 0.214945 0.0453886 0 0.226777 0.0470424 0 0.238522 0.048684 0 0.250181 0.0503135 0 0.261754 0.0519312 0 0.273244 0.053537 0 0.284649 0.0551312 0 0.295973 0.0567139 0 0.307215 0.0582851 0 0.318376 0.0598451 0 0.329457 0.0613939 0 0.340459 0.0629317 0 0.351383 0.0644586 0 0.36223 0.0659746 0 0.373 0.06748 0 0.203008 0.0447593 0 0.214952 0.0467033 0 0.226805 0.0486324 0 0.238567 0.0505467 0 0.250239 0.0524464 0 0.261823 0.0543318 0 0.273319 0.0562028 0 0.284728 0.0580598 0 0.296052 0.0599029 0 0.307291 0.0617321 0 0.318447 0.0635477 0 0.329519 0.0653499 0 0.34051 0.0671387 0 0.35142 0.0689143 0 0.36225 0.0706769 0 0.373 0.0724267 0 0.202924 0.0457937 0 0.214874 0.0480127 0 0.226732 0.0502145 0 0.2385 0.0523995 0 0.250178 0.0545679 0 0.261768 0.0567198 0 0.273269 0.0588555 0 0.284685 0.060975 0 0.296014 0.0630786 0 0.307259 0.0651666 0 0.31842 0.0672389 0 0.329498 0.0692959 0 0.340494 0.0713376 0 0.351409 0.0733644 0 0.362244 0.0753762 0 0.373 0.0773733 0 0.202773 0.0468196 0 0.214711 0.0493092 0 0.226561 0.0517804 0 0.238323 0.0542334 0 0.249999 0.0566684 0 0.26159 0.0590856 0 0.273096 0.0614852 0 0.284518 0.0638674 0 0.295859 0.0662323 0 0.307117 0.0685802 0 0.318295 0.0709113 0 0.329392 0.0732257 0 0.340411 0.0755236 0 0.351351 0.0778051 0 0.362214 0.0800706 0 0.373 0.08232 0 0.202558 0.0478306 0 0.214465 0.0505856 0 0.226291 0.0533218 0 0.238037 0.0560394 0 0.249703 0.0587386 0 0.26129 0.0614196 0 0.272799 0.0640826 0 0.284231 0.0667277 0 0.295587 0.0693551 0 0.306867 0.071965 0 0.318072 0.0745576 0 0.329203 0.0771331 0 0.34026 0.0796915 0 0.351245 0.0822332 0 0.362158 0.0847582 0 0.373 0.0872667 0 0.20228 0.0488206 0 0.214139 0.0518347 0 0.225926 0.0548308 0 0.237643 0.0578091 0 0.249291 0.0607697 0 0.26087 0.0637128 0 0.272381 0.0666385 0 0.283824 0.069547 0 0.2952 0.0724384 0 0.306509 0.075313 0 0.317752 0.0781707 0 0.32893 0.0810119 0 0.340044 0.0838366 0 0.351093 0.086645 0 0.362078 0.0894372 0 0.373 0.0922133 0 0.201942 0.0497841 0 0.213734 0.05305 0 0.225469 0.0563 0 0.237147 0.0595343 0 0.248769 0.062753 0 0.260334 0.0659563 0 0.271844 0.0691441 0 0.283299 0.0723166 0 0.294699 0.075474 0 0.306045 0.0786163 0 0.317337 0.0817437 0 0.328575 0.0848562 0 0.33976 0.087954 0 0.350893 0.0910372 0 0.361972 0.0941058 0 0.373 0.09716 0 0.201548 0.0507158 0 0.213256 0.0542253 0 0.224924 0.0577226 0 0.236552 0.0612078 0 0.248139 0.0646809 0 0.259686 0.068142 0 0.271193 0.0715911 0 0.282661 0.0750284 0 0.294089 0.0784539 0 0.305478 0.0818677 0 0.316828 0.0852697 0 0.328139 0.0886601 0 0.339412 0.092039 0 0.350646 0.0954063 0 0.361842 0.0987622 0 0.373 0.102107 0 0.201101 0.0516112 0 0.21271 0.0553553 0 0.224297 0.0590924 0 0.235862 0.0628226 0 0.247407 0.066546 0 0.25893 0.0702624 0 0.270431 0.073972 0 0.281912 0.0776748 0 0.293371 0.0813708 0 0.304809 0.08506 0 0.316227 0.0887423 0 0.327623 0.092418 0 0.338998 0.0960869 0 0.350353 0.0997491 0 0.361687 0.103405 0 0.373 0.107053 0 0.200607 0.0524662 0 0.2121 0.0564351 0 0.223593 0.0604041 0 0.235085 0.064373 0 0.246578 0.0683419 0 0.258071 0.0723108 0 0.269564 0.0762797 0 0.281057 0.0802487 0 0.29255 0.0842176 0 0.304043 0.0881865 0 0.315536 0.0921554 0 0.327028 0.0961243 0 0.338521 0.100093 0 0.350014 0.104062 0 0.361507 0.108031 0 0.373 0.112 0 
</DataArray>
</Points> 
</Piece> 
</StructuredGrid> 
</VTKFile> 
