<?xml version="1.0"?> 
<VTKFile type="StructuredGrid" version="0.1"> 
<StructuredGrid WholeExtent="0 15 0 15 0 0"> 
<Piece Extent="0 15 0 15 0 0"> 
<PointData>
<DataArray type="Float32" Name="|E|" format="ascii" NumberOfComponents="3"> 
-1.51539e+06 0 0 -1.51061e+06 95595.3 0 -1.51424e+06 195542 0 -1.52442e+06 301590 0 -1.53892e+06 414663 0 -1.55552e+06 534817 0 -1.57235e+06 661376 0 -1.58807e+06 793171 0 -1.60193e+06 928776 0 -1.61374e+06 1.06669e+06 0 -1.62382e+06 1.20542e+06 0 -1.63301e+06 1.34357e+06 0 -1.64271e+06 1.47986e+06 0 -1.65499e+06 1.61324e+06 0 -1.67275e+06 1.74301e+06 0 -1.69993e+06 1.86914e+06 0 -1.434e+06 0 0 -1.42857e+06 107128 0 -1.43057e+06 217854 0 -1.43845e+06 333714 0 -1.45034e+06 455535 0 -1.46442e+06 583414 0 -1.47911e+06 716821 0 -1.49334e+06 854786 0 -1.50653e+06 996097 0 -1.51866e+06 1.13946e+06 0 -1.53027e+06 1.2836e+06 0 -1.54243e+06 1.4274e+06 0 -1.5569e+06 1.56995e+06 0 -1.57617e+06 1.71081e+06 0 -1.60369e+06 1.85028e+06 0 -1.64392e+06 1.98988e+06 0 -1.34716e+06 0 0 -1.34142e+06 117807 0 -1.3423e+06 238617 0 -1.3485e+06 363791 0 -1.35849e+06 494088 0 -1.37074e+06 629645 0 -1.38395e+06 770059 0 -1.39727e+06 914541 0 -1.41033e+06 1.06209e+06 0 -1.42327e+06 1.21164e+06 0 -1.43683e+06 1.36221e+06 0 -1.45234e+06 1.51305e+06 0 -1.47182e+06 1.66384e+06 0 -1.49805e+06 1.815e+06 0 -1.53465e+06 1.96823e+06 0 -1.58605e+06 2.12724e+06 0 -1.25593e+06 0 0 -1.25013e+06 127814 0 -1.25026e+06 258163 0 -1.25528e+06 392268 0 -1.26389e+06 530844 0 -1.27482e+06 674071 0 -1.28704e+06 821667 0 -1.29987e+06 973019 0 -1.31313e+06 1.12734e+06 0 -1.32714e+06 1.28384e+06 0 -1.34281e+06 1.4419e+06 0 -1.36162e+06 1.60124e+06 0 -1.38571e+06 1.7623e+06 0 -1.41781e+06 1.9266e+06 0 -1.46115e+06 2.09752e+06 0 -1.51897e+06 2.28137e+06 0 -1.1611e+06 0 0 -1.15542e+06 137287 0 -1.15512e+06 276741 0 -1.15931e+06 419478 0 -1.16692e+06 566187 0 -1.17691e+06 717101 0 -1.18845e+06 872058 0 -1.20105e+06 1.03063e+06 0 -1.21468e+06 1.19226e+06 0 -1.2298e+06 1.35646e+06 0 -1.2474e+06 1.52302e+06 0 -1.26901e+06 1.69227e+06 0 -1.29659e+06 1.86544e+06 0 -1.33239e+06 2.04529e+06 0 -1.37838e+06 2.23688e+06 0 -1.43502e+06 2.44875e+06 0 -1.06329e+06 0 0 -1.05789e+06 146324 0 -1.05737e+06 294529 0 -1.06099e+06 445657 0 -1.06787e+06 600387 0 -1.07717e+06 759016 0 -1.08822e+06 921508 0 -1.1007e+06 1.08762e+06 0 -1.11469e+06 1.25705e+06 0 -1.13074e+06 1.42964e+06 0 -1.14981e+06 1.60562e+06 0 -1.17326e+06 1.78591e+06 0 -1.20261e+06 1.9726e+06 0 -1.23901e+06 2.16948e+06 0 -1.28222e+06 2.38279e+06 0 -1.32851e+06 2.62184e+06 0 -963008 0 0 -957990 154997 0 -957398 311654 0 -960634 470966 0 -966971 633624 0 -975718 799994 0 -986367 970176 0 -998710 1.14411e+06 0 -1.0129e+06 1.32177e+06 0 -1.02948e+06 1.50331e+06 0 -1.0493e+06 1.68941e+06 0 -1.07333e+06 1.88153e+06 0 -1.10227e+06 2.0824e+06 0 -1.13568e+06 2.29643e+06 0 -1.17043e+06 2.5299e+06 0 -1.19819e+06 2.79047e+06 0 -860649 0 0 -856093 163351 0 -855545 328198 0 -858513 495512 0 -864402 666009 0 -872654 840137 0 -882882 1.01813e+06 0 -894962 1.20013e+06 0 -909072 1.38634e+06 0 -925670 1.57725e+06 0 -945346 1.77388e+06 0 -968509 1.97812e+06 0 -994766 2.19297e+06 0 -1.0218e+06 2.42269e+06 0 -1.04356e+06 2.67221e+06 0 -1.04825e+06 2.945e+06 0 -756549 0 0 -752513 171419 0 -752078 344214 0 -754841 519355 0 -760316 697598 0 -768057 879481 0 -777770 1.06537e+06 0 -789377 1.2556e+06 0 -803035 1.45059e+06 0 -819047 1.65109e+06 0 -837647 1.85838e+06 0 -858546 2.07449e+06 0 -880155 2.30224e+06 0 -898358 2.54489e+06 0 -904940 2.80464e+06 0 -887004 3.07939e+06 0 -650997 0 0 -647521 179215 0 -647235 359727 0 -649809 542521 0 -654851 728408 0 -662006 918016 0 -671047 1.11185e+06 0 -681917 1.3104e+06 0 -694707 1.51429e+06 0 -709521 1.72443e+06 0 -726180 1.9422e+06 0 -743675 2.16948e+06 0 -759323 2.40839e+06 0 -767688 2.66041e+06 0 -759734 2.92422e+06 0 -723964 3.19242e+06 0 -544246 0 0 -541355 186747 0 -541224 374745 0 -543589 565012 0 -548134 758422 0 -554582 955701 0 -562751 1.15748e+06 0 -572583 1.36439e+06 0 -584084 1.57718e+06 0 -597142 1.79687e+06 0 -611175 2.02472e+06 0 -624554 2.26215e+06 0 -633818 2.51014e+06 0 -632964 2.76787e+06 0 -613560 3.0305e+06 0 -567196 3.28674e+06 0 -436525 0 0 -434230 194011 0 -434238 389257 0 -436340 586807 0 -440290 787605 0 -445869 992471 0 -452936 1.20215e+06 0 -461418 1.41739e+06 0 -471233 1.63904e+06 0 -482079 1.86806e+06 0 -493059 2.10546e+06 0 -502139 2.35193e+06 0 -505547 2.60695e+06 0 -497538 2.86727e+06 0 -471353 3.12508e+06 0 -422164 3.36699e+06 0 -328045 0 0 -326347 200999 0 -326457 403246 0 -328215 607873 0 -331437 815901 0 -335961 1.02825e+06 0 -341673 1.24576e+06 0 -348492 1.46927e+06 0 -356269 1.69966e+06 0 -364579 1.93777e+06 0 -372370 2.18419e+06 0 -377514 2.43867e+06 0 -376455 2.69904e+06 0 -364416 2.95976e+06 0 -336814 3.21077e+06 0 -291897 3.4381e+06 0 -219004 0 0 -217895 207696 0 -218048 416683 0 -219357 628164 0 -221694 843248 0 -224949 1.06294e+06 0 -229041 1.28818e+06 0 -233890 1.51988e+06 0 -239329 1.75889e+06 0 -244917 2.00589e+06 0 -249665 2.26092e+06 0 -251729 2.52269e+06 0 -248287 2.78732e+06 0 -236005 3.04724e+06 0 -212425 3.29082e+06 0 -177786 3.50432e+06 0 -109594 0 0 -109054 214085 0 -109177 429529 0 -109906 647626 0 -111177 869572 0 -112931 1.09647e+06 0 -115124 1.32933e+06 0 -117701 1.56912e+06 0 -120541 1.81667e+06 0 -123336 2.07244e+06 0 -125430 2.33591e+06 0 -125675 2.60468e+06 0 -122452 2.87322e+06 0 -114092 3.13204e+06 0 -99778.5 3.36834e+06 0 -80385.1 3.56883e+06 0 0 0 0 0 220143 0 0 441745 0 0 666199 0 0 894798 0 0 1.12873e+06 0 0 1.36908e+06 0 0 1.61689e+06 0 0 1.87297e+06 0 0 2.13756e+06 0 0 2.40964e+06 0 0 2.6857e+06 0 0 2.9585e+06 0 0 3.21663e+06 0 0 3.44601e+06 0 0 3.63377e+06 0 </DataArray> 
</PointData> 
<Points> 
<DataArray type="Float32" NumberOfComponents="3"> 
0 0.0556667 0 0.00452 0.0561222 0 0.00904 0.0565778 0 0.01356 0.0570333 0 0.01808 0.0574889 0 0.0226 0.0579444 0 0.02712 0.0584 0 0.03164 0.0588556 0 0.03616 0.0593111 0 0.04068 0.0597667 0 0.0452 0.0602222 0 0.04972 0.0606778 0 0.05424 0.0611333 0 0.05876 0.0615889 0 0.06328 0.0620444 0 0.0678 0.0625 0 0 0.0594222 0 0.00472089 0.0598474 0 0.00944178 0.0602726 0 0.0141627 0.0606978 0 0.0188836 0.061123 0 0.0236044 0.0615481 0 0.0283253 0.0619733 0 0.0330462 0.0623985 0 0.0377671 0.0628237 0 0.042488 0.0632489 0 0.0472089 0.0636741 0 0.0519298 0.0640993 0 0.0566507 0.0645244 0 0.0613716 0.0649496 0 0.0660924 0.0653748 0 0.0708133 0.0658 0 0 0.0631778 0 0.00492178 0.0635726 0 0.00984356 0.0639674 0 0.0147653 0.0643622 0 0.0196871 0.064757 0 0.0246089 0.0651519 0 0.0295307 0.0655467 0 0.0344524 0.0659415 0 0.0393742 0.0663363 0 0.044296 0.0667311 0 0.0492178 0.0671259 0 0.0541396 0.0675207 0 0.0590613 0.0679156 0 0.0639831 0.0683104 0 0.0689049 0.0687052 0 0.0738267 0.0691 0 0 0.0669333 0 0.00512267 0.0672978 0 0.0102453 0.0676622 0 0.015368 0.0680267 0 0.0204907 0.0683911 0 0.0256133 0.0687556 0 0.030736 0.06912 0 0.0358587 0.0694844 0 0.0409813 0.0698489 0 0.046104 0.0702133 0 0.0512267 0.0705778 0 0.0563493 0.0709422 0 0.061472 0.0713067 0 0.0665947 0.0716711 0 0.0717173 0.0720356 0 0.07684 0.0724 0 0 0.0706889 0 0.00532356 0.071023 0 0.0106471 0.071357 0 0.0159707 0.0716911 0 0.0212942 0.0720252 0 0.0266178 0.0723593 0 0.0319413 0.0726933 0 0.0372649 0.0730274 0 0.0425884 0.0733615 0 0.047912 0.0736956 0 0.0532356 0.0740296 0 0.0585591 0.0743637 0 0.0638827 0.0746978 0 0.0692062 0.0750319 0 0.0745298 0.0753659 0 0.0798533 0.0757 0 0 0.0744444 0 0.00552444 0.0747481 0 0.0110489 0.0750519 0 0.0165733 0.0753556 0 0.0220978 0.0756593 0 0.0276222 0.075963 0 0.0331467 0.0762667 0 0.0386711 0.0765704 0 0.0441956 0.0768741 0 0.04972 0.0771778 0 0.0552444 0.0774815 0 0.0607689 0.0777852 0 0.0662933 0.0780889 0 0.0718178 0.0783926 0 0.0773422 0.0786963 0 0.0828667 0.079 0 0 0.0782 0 0.00572533 0.0784733 0 0.0114507 0.0787467 0 0.017176 0.07902 0 0.0229013 0.0792933 0 0.0286267 0.0795667 0 0.034352 0.07984 0 0.0400773 0.0801133 0 0.0458027 0.0803867 0 0.051528 0.08066 0 0.0572533 0.0809333 0 0.0629787 0.0812067 0 0.068704 0.08148 0 0.0744293 0.0817533 0 0.0801547 0.0820267 0 0.08588 0.0823 0 0 0.0819556 0 0.00592622 0.0821985 0 0.0118524 0.0824415 0 0.0177787 0.0826844 0 0.0237049 0.0829274 0 0.0296311 0.0831704 0 0.0355573 0.0834133 0 0.0414836 0.0836563 0 0.0474098 0.0838993 0 0.053336 0.0841422 0 0.0592622 0.0843852 0 0.0651884 0.0846281 0 0.0711147 0.0848711 0 0.0770409 0.0851141 0 0.0829671 0.085357 0 0.0888933 0.0856 0 0 0.0857111 0 0.00612711 0.0859237 0 0.0122542 0.0861363 0 0.0183813 0.0863489 0 0.0245084 0.0865615 0 0.0306356 0.0867741 0 0.0367627 0.0869867 0 0.0428898 0.0871993 0 0.0490169 0.0874119 0 0.055144 0.0876244 0 0.0612711 0.087837 0 0.0673982 0.0880496 0 0.0735253 0.0882622 0 0.0796524 0.0884748 0 0.0857796 0.0886874 0 0.0919067 0.0889 0 0 0.0894667 0 0.006328 0.0896489 0 0.012656 0.0898311 0 0.018984 0.0900133 0 0.025312 0.0901956 0 0.03164 0.0903778 0 0.037968 0.09056 0 0.044296 0.0907422 0 0.050624 0.0909244 0 0.056952 0.0911067 0 0.06328 0.0912889 0 0.069608 0.0914711 0 0.075936 0.0916533 0 0.082264 0.0918356 0 0.088592 0.0920178 0 0.09492 0.0922 0 0 0.0932222 0 0.00652889 0.0933741 0 0.0130578 0.0935259 0 0.0195867 0.0936778 0 0.0261156 0.0938296 0 0.0326444 0.0939815 0 0.0391733 0.0941333 0 0.0457022 0.0942852 0 0.0522311 0.094437 0 0.05876 0.0945889 0 0.0652889 0.0947407 0 0.0718178 0.0948926 0 0.0783467 0.0950444 0 0.0848756 0.0951963 0 0.0914044 0.0953481 0 0.0979333 0.0955 0 0 0.0969778 0 0.00672978 0.0970993 0 0.0134596 0.0972207 0 0.0201893 0.0973422 0 0.0269191 0.0974637 0 0.0336489 0.0975852 0 0.0403787 0.0977067 0 0.0471084 0.0978281 0 0.0538382 0.0979496 0 0.060568 0.0980711 0 0.0672978 0.0981926 0 0.0740276 0.0983141 0 0.0807573 0.0984356 0 0.0874871 0.098557 0 0.0942169 0.0986785 0 0.100947 0.0988 0 0 0.100733 0 0.00693067 0.100824 0 0.0138613 0.100916 0 0.020792 0.101007 0 0.0277227 0.101098 0 0.0346533 0.101189 0 0.041584 0.10128 0 0.0485147 0.101371 0 0.0554453 0.101462 0 0.062376 0.101553 0 0.0693067 0.101644 0 0.0762373 0.101736 0 0.083168 0.101827 0 0.0900987 0.101918 0 0.0970293 0.102009 0 0.10396 0.1021 0 0 0.104489 0 0.00713156 0.10455 0 0.0142631 0.10461 0 0.0213947 0.104671 0 0.0285262 0.104732 0 0.0356578 0.104793 0 0.0427893 0.104853 0 0.0499209 0.104914 0 0.0570524 0.104975 0 0.064184 0.105036 0 0.0713156 0.105096 0 0.0784471 0.105157 0 0.0855787 0.105218 0 0.0927102 0.105279 0 0.0998418 0.105339 0 0.106973 0.1054 0 0 0.108244 0 0.00733244 0.108275 0 0.0146649 0.108305 0 0.0219973 0.108336 0 0.0293298 0.108366 0 0.0366622 0.108396 0 0.0439947 0.108427 0 0.0513271 0.108457 0 0.0586596 0.108487 0 0.065992 0.108518 0 0.0733244 0.108548 0 0.0806569 0.108579 0 0.0879893 0.108609 0 0.0953218 0.108639 0 0.102654 0.10867 0 0.109987 0.1087 0 0 0.112 0 0.00753333 0.112 0 0.0150667 0.112 0 0.0226 0.112 0 0.0301333 0.112 0 0.0376667 0.112 0 0.0452 0.112 0 0.0527333 0.112 0 0.0602667 0.112 0 0.0678 0.112 0 0.0753333 0.112 0 0.0828667 0.112 0 0.0904 0.112 0 0.0979333 0.112 0 0.105467 0.112 0 0.113 0.112 0 
</DataArray>
</Points> 
</Piece> 
</StructuredGrid> 
</VTKFile> 
