<?xml version="1.0"?> 
<VTKFile type="StructuredGrid" version="0.1"> 
<StructuredGrid WholeExtent="0 15 0 15 0 0"> 
<Piece Extent="0 15 0 15 0 0"> 
<PointData>
<DataArray type="Float32" Name="|E|" format="ascii" NumberOfComponents="3"> 
1.22117e+06 -124609 0 1.57205e+06 -103683 0 1.72833e+06 -23819.3 0 1.71455e+06 28625.7 0 1.59729e+06 60088.2 0 1.4365e+06 68138.9 0 1.26867e+06 67298.7 0 1.11174e+06 60619.5 0 973380 52505.4 0 855889 43827.8 0 759270 35476.1 0 682519 27578.2 0 624413 20181.8 0 583803 13207.7 0 559808 6526.1 0 551873 0 0 1.2237e+06 -124867 0 1.574e+06 -109914 0 1.73049e+06 -25747.5 0 1.71556e+06 31058.6 0 1.59746e+06 63950.4 0 1.43628e+06 72724.1 0 1.26826e+06 71665.8 0 1.11132e+06 64592.9 0 972975 55918 0 855538 46682.8 0 758965 37783.2 0 682260 29372 0 624187 21494.6 0 583603 14066.6 0 559623 6950.79 0 551693 0 0 1.22474e+06 -124973 0 1.57622e+06 -116189 0 1.73276e+06 -27625.8 0 1.71663e+06 33520.5 0 1.59766e+06 67834.6 0 1.43607e+06 77316.3 0 1.26785e+06 76036 0 1.11089e+06 68565.8 0 972555 59329.5 0 855171 49536.3 0 758645 40088.9 0 681987 31164.8 0 623949 22806.6 0 583392 14924.9 0 559426 7375.19 0 551502 0 0 1.22428e+06 -124927 0 1.57871e+06 -122494 0 1.73513e+06 -29465 0 1.71777e+06 36019.6 0 1.59789e+06 71737.8 0 1.43585e+06 81917.9 0 1.26742e+06 80408.8 0 1.11044e+06 72538.7 0 972120 62739.7 0 854790 52388.4 0 758312 42393.3 0 681700 32956.5 0 623699 24117.7 0 583168 15782.6 0 559219 7799.3 0 551299 0 0 1.22231e+06 -124725 0 1.58147e+06 -128812 0 1.73761e+06 -31276.2 0 1.71898e+06 38564.6 0 1.59814e+06 75657.1 0 1.43564e+06 86531.3 0 1.26699e+06 84783.2 0 1.10997e+06 76512 0 971671 66148.6 0 854393 55239.1 0 757964 44696.2 0 681401 34747 0 623436 25427.9 0 582933 16639.8 0 558999 8223.11 0 551086 0 0 1.21877e+06 -124364 0 1.58452e+06 -135127 0 1.74019e+06 -33071.3 0 1.72026e+06 41164.4 0 1.59843e+06 79589.2 0 1.43542e+06 91159.1 0 1.26655e+06 89158.6 0 1.10949e+06 80486.4 0 971208 69555.9 0 853981 58088.5 0 757602 46997.7 0 681088 36536.3 0 623161 26737.3 0 582686 17496.4 0 558769 8646.64 0 550860 0 0 1.21361e+06 -123838 0 1.58787e+06 -141421 0 1.74289e+06 -34862.7 0 1.7216e+06 43828.7 0 1.59874e+06 83530.5 0 1.4352e+06 95803.9 0 1.2661e+06 93533.8 0 1.109e+06 84462.4 0 970730 72961.3 0 853553 60936.6 0 757227 49297.6 0 680761 38324.4 0 622873 28045.7 0 582427 18352.4 0 558526 9069.88 0 550624 0 0 1.20678e+06 -123141 0 1.59152e+06 -147674 0 1.74569e+06 -36664.2 0 1.72301e+06 46567.7 0 1.59908e+06 87476.9 0 1.43498e+06 100469 0 1.26565e+06 97907.9 0 1.10849e+06 88440.6 0 970237 76364.7 0 853110 63783.5 0 756837 51596 0 680421 40111.3 0 622573 29353.2 0 582155 19207.7 0 558273 9492.83 0 550376 0 0 1.19819e+06 -122264 0 1.5955e+06 -153866 0 1.74859e+06 -38490.7 0 1.72448e+06 49392.5 0 1.59945e+06 91424 0 1.43476e+06 105157 0 1.26519e+06 102280 0 1.10796e+06 92421.8 0 969730 79765.8 0 852651 66629.3 0 756433 53892.7 0 680068 41897 0 622260 30659.8 0 581873 20062.4 0 558008 9915.49 0 550117 0 0 1.18774e+06 -121197 0 1.59983e+06 -159972 0 1.75159e+06 -40358.9 0 1.72602e+06 52315.3 0 1.59985e+06 95366.6 0 1.43453e+06 109871 0 1.26472e+06 106648 0 1.10742e+06 96406.7 0 969209 83164.2 0 852177 69474.1 0 756016 56187.8 0 679701 43681.4 0 621936 31965.4 0 581578 20916.3 0 557731 10337.9 0 549846 0 0 1.1753e+06 -119929 0 1.60452e+06 -165964 0 1.75469e+06 -42287.4 0 1.72762e+06 55349.5 0 1.60027e+06 99299 0 1.4343e+06 114616 0 1.26425e+06 111011 0 1.10686e+06 100396 0 968674 86559.6 0 851687 72318.1 0 755585 58481.1 0 679321 45464.6 0 621598 33270.1 0 581271 21769.6 0 557443 10760 0 549564 0 0 1.16076e+06 -118445 0 1.6096e+06 -171813 0 1.75789e+06 -44296.9 0 1.72928e+06 58509.9 0 1.60073e+06 103214 0 1.43407e+06 119397 0 1.26376e+06 115366 0 1.10628e+06 104391 0 968125 89951.6 0 851182 75161.3 0 755140 60772.5 0 678927 47246.4 0 621248 34573.8 0 580952 22622.1 0 557144 11181.8 0 549271 0 0 1.14396e+06 -116730 0 1.61511e+06 -177483 0 1.76119e+06 -46411.1 0 1.731e+06 61813.1 0 1.60122e+06 107105 0 1.43382e+06 124216 0 1.26328e+06 119713 0 1.10569e+06 108393 0 967562 93339.7 0 850660 78004 0 754681 63062.1 0 678520 49026.9 0 620886 35876.6 0 580622 23473.8 0 556833 11603.4 0 548967 0 0 1.12471e+06 -114766 0 1.62108e+06 -182935 0 1.76458e+06 -48656.4 0 1.73278e+06 65277.4 0 1.60173e+06 110963 0 1.43357e+06 129081 0 1.26279e+06 124048 0 1.10508e+06 112403 0 966986 96723.5 0 850122 80846.3 0 754209 65349.7 0 678099 50806 0 620512 37178.3 0 580279 24324.7 0 556510 12024.8 0 548651 0 0 1.10282e+06 -112532 0 1.62754e+06 -188125 0 1.76805e+06 -51063.3 0 1.73462e+06 68923.7 0 1.60229e+06 114777 0 1.43331e+06 133998 0 1.26229e+06 128369 0 1.10445e+06 116422 0 966398 100102 0 849567 83688.4 0 753723 67635.1 0 677664 52583.8 0 620126 38479.2 0 579925 25174.7 0 556177 12445.9 0 548325 0 0 1.07806e+06 -110006 0 1.63454e+06 -193001 0 1.77161e+06 -53665.4 0 1.73651e+06 72774.7 0 1.60287e+06 118537 0 1.43303e+06 138972 0 1.26179e+06 132672 0 1.1038e+06 120453 0 965797 103475 0 848995 86530.6 0 753224 69918.4 0 677215 54360.2 0 619727 39779 0 579559 26023.9 0 555832 12866.9 0 547987 0 0 </DataArray> 
</PointData> 
<Points> 
<DataArray type="Float32" NumberOfComponents="3"> 
0.19 0.005 0 0.2022 0.005 0 0.2144 0.005 0 0.2266 0.005 0 0.2388 0.005 0 0.251 0.005 0 0.2632 0.005 0 0.2754 0.005 0 0.2876 0.005 0 0.2998 0.005 0 0.312 0.005 0 0.3242 0.005 0 0.3364 0.005 0 0.3486 0.005 0 0.3608 0.005 0 0.373 0.005 0 0.190033 0.00532667 0 0.202231 0.00532667 0 0.214429 0.00532667 0 0.226627 0.00532667 0 0.238824 0.00532667 0 0.251022 0.00532667 0 0.26322 0.00532667 0 0.275418 0.00532667 0 0.287616 0.00532667 0 0.299813 0.00532667 0 0.312011 0.00532667 0 0.324209 0.00532667 0 0.336407 0.00532667 0 0.348604 0.00532667 0 0.360802 0.00532667 0 0.373 0.00532667 0 0.190067 0.00565333 0 0.202262 0.00565333 0 0.214458 0.00565333 0 0.226653 0.00565333 0 0.238849 0.00565333 0 0.251044 0.00565333 0 0.26324 0.00565333 0 0.275436 0.00565333 0 0.287631 0.00565333 0 0.299827 0.00565333 0 0.312022 0.00565333 0 0.324218 0.00565333 0 0.336413 0.00565333 0 0.348609 0.00565333 0 0.360804 0.00565333 0 0.373 0.00565333 0 0.1901 0.00598 0 0.202293 0.00598 0 0.214487 0.00598 0 0.22668 0.00598 0 0.238873 0.00598 0 0.251067 0.00598 0 0.26326 0.00598 0 0.275453 0.00598 0 0.287647 0.00598 0 0.29984 0.00598 0 0.312033 0.00598 0 0.324227 0.00598 0 0.33642 0.00598 0 0.348613 0.00598 0 0.360807 0.00598 0 0.373 0.00598 0 0.190133 0.00630667 0 0.202324 0.00630667 0 0.214516 0.00630667 0 0.226707 0.00630667 0 0.238898 0.00630667 0 0.251089 0.00630667 0 0.26328 0.00630667 0 0.275471 0.00630667 0 0.287662 0.00630667 0 0.299853 0.00630667 0 0.312044 0.00630667 0 0.324236 0.00630667 0 0.336427 0.00630667 0 0.348618 0.00630667 0 0.360809 0.00630667 0 0.373 0.00630667 0 0.190167 0.00663333 0 0.202356 0.00663333 0 0.214544 0.00663333 0 0.226733 0.00663333 0 0.238922 0.00663333 0 0.251111 0.00663333 0 0.2633 0.00663333 0 0.275489 0.00663333 0 0.287678 0.00663333 0 0.299867 0.00663333 0 0.312056 0.00663333 0 0.324244 0.00663333 0 0.336433 0.00663333 0 0.348622 0.00663333 0 0.360811 0.00663333 0 0.373 0.00663333 0 0.1902 0.00696 0 0.202387 0.00696 0 0.214573 0.00696 0 0.22676 0.00696 0 0.238947 0.00696 0 0.251133 0.00696 0 0.26332 0.00696 0 0.275507 0.00696 0 0.287693 0.00696 0 0.29988 0.00696 0 0.312067 0.00696 0 0.324253 0.00696 0 0.33644 0.00696 0 0.348627 0.00696 0 0.360813 0.00696 0 0.373 0.00696 0 0.190233 0.00728667 0 0.202418 0.00728667 0 0.214602 0.00728667 0 0.226787 0.00728667 0 0.238971 0.00728667 0 0.251156 0.00728667 0 0.26334 0.00728667 0 0.275524 0.00728667 0 0.287709 0.00728667 0 0.299893 0.00728667 0 0.312078 0.00728667 0 0.324262 0.00728667 0 0.336447 0.00728667 0 0.348631 0.00728667 0 0.360816 0.00728667 0 0.373 0.00728667 0 0.190267 0.00761333 0 0.202449 0.00761333 0 0.214631 0.00761333 0 0.226813 0.00761333 0 0.238996 0.00761333 0 0.251178 0.00761333 0 0.26336 0.00761333 0 0.275542 0.00761333 0 0.287724 0.00761333 0 0.299907 0.00761333 0 0.312089 0.00761333 0 0.324271 0.00761333 0 0.336453 0.00761333 0 0.348636 0.00761333 0 0.360818 0.00761333 0 0.373 0.00761333 0 0.1903 0.00794 0 0.20248 0.00794 0 0.21466 0.00794 0 0.22684 0.00794 0 0.23902 0.00794 0 0.2512 0.00794 0 0.26338 0.00794 0 0.27556 0.00794 0 0.28774 0.00794 0 0.29992 0.00794 0 0.3121 0.00794 0 0.32428 0.00794 0 0.33646 0.00794 0 0.34864 0.00794 0 0.36082 0.00794 0 0.373 0.00794 0 0.190333 0.00826667 0 0.202511 0.00826667 0 0.214689 0.00826667 0 0.226867 0.00826667 0 0.239044 0.00826667 0 0.251222 0.00826667 0 0.2634 0.00826667 0 0.275578 0.00826667 0 0.287756 0.00826667 0 0.299933 0.00826667 0 0.312111 0.00826667 0 0.324289 0.00826667 0 0.336467 0.00826667 0 0.348644 0.00826667 0 0.360822 0.00826667 0 0.373 0.00826667 0 0.190367 0.00859333 0 0.202542 0.00859333 0 0.214718 0.00859333 0 0.226893 0.00859333 0 0.239069 0.00859333 0 0.251244 0.00859333 0 0.26342 0.00859333 0 0.275596 0.00859333 0 0.287771 0.00859333 0 0.299947 0.00859333 0 0.312122 0.00859333 0 0.324298 0.00859333 0 0.336473 0.00859333 0 0.348649 0.00859333 0 0.360824 0.00859333 0 0.373 0.00859333 0 0.1904 0.00892 0 0.202573 0.00892 0 0.214747 0.00892 0 0.22692 0.00892 0 0.239093 0.00892 0 0.251267 0.00892 0 0.26344 0.00892 0 0.275613 0.00892 0 0.287787 0.00892 0 0.29996 0.00892 0 0.312133 0.00892 0 0.324307 0.00892 0 0.33648 0.00892 0 0.348653 0.00892 0 0.360827 0.00892 0 0.373 0.00892 0 0.190433 0.00924667 0 0.202604 0.00924667 0 0.214776 0.00924667 0 0.226947 0.00924667 0 0.239118 0.00924667 0 0.251289 0.00924667 0 0.26346 0.00924667 0 0.275631 0.00924667 0 0.287802 0.00924667 0 0.299973 0.00924667 0 0.312144 0.00924667 0 0.324316 0.00924667 0 0.336487 0.00924667 0 0.348658 0.00924667 0 0.360829 0.00924667 0 0.373 0.00924667 0 0.190467 0.00957333 0 0.202636 0.00957333 0 0.214804 0.00957333 0 0.226973 0.00957333 0 0.239142 0.00957333 0 0.251311 0.00957333 0 0.26348 0.00957333 0 0.275649 0.00957333 0 0.287818 0.00957333 0 0.299987 0.00957333 0 0.312156 0.00957333 0 0.324324 0.00957333 0 0.336493 0.00957333 0 0.348662 0.00957333 0 0.360831 0.00957333 0 0.373 0.00957333 0 0.1905 0.0099 0 0.202667 0.0099 0 0.214833 0.0099 0 0.227 0.0099 0 0.239167 0.0099 0 0.251333 0.0099 0 0.2635 0.0099 0 0.275667 0.0099 0 0.287833 0.0099 0 0.3 0.0099 0 0.312167 0.0099 0 0.324333 0.0099 0 0.3365 0.0099 0 0.348667 0.0099 0 0.360833 0.0099 0 0.373 0.0099 0 
</DataArray>
</Points> 
</Piece> 
</StructuredGrid> 
</VTKFile> 
