<?xml version="1.0"?> 
<VTKFile type="StructuredGrid" version="0.1"> 
<StructuredGrid WholeExtent="0 15 0 15 0 0"> 
<Piece Extent="0 15 0 15 0 0"> 
<PointData>
<DataArray type="Float32" Name="|E|" format="ascii" NumberOfComponents="3"> 
0 0 0 0 -26754.8 0 0 -53368.7 0 0 -79694.8 0 0 -105574 0 0 -130828 0 0 -155246 0 0 -178576 0 0 -200493 0 0 -220585 0 0 -238231 0 0 -252058 0 0 -260678 0 0 -267782 0 0 -268319 0 0 0 0 -22328.3 0 0 -22256.6 -29775.1 0 -22037.8 -59359.1 0 -21660.7 -88551.3 0 -21105 -117131 0 -20337.9 -144843 0 -19309.9 -171381 0 -17941.5 -196356 0 -16107.5 -219260 0 -13585 -239372 0 -9978.25 -255639 0 -4415.44 -265989 0 6307.01 -266795 0 33163.3 -258423 0 90865.1 -262203 0 142927 -285854 0 -44736.8 0 0 -44565.6 -32922.7 0 -44041.4 -65601 0 -43132.3 -97776.8 0 -41779 -129162 0 -39885.5 -159421 0 -37297.5 -188139 0 -33765.7 -214786 0 -28861.9 -238649 0 -21790.7 -258750 0 -10862.3 -273657 0 7874.53 -282424 0 41210.5 -288817 0 90968 -305949 0 139543 -335370 0 187204 -374408 0 -67303.5 0 0 -67004.5 -36224.4 0 -66086.6 -72152.9 0 -64484.9 -107472 0 -62078.6 -141832 0 -58666.7 -174820 0 -53922.1 -205938 0 -47298.4 -234557 0 -37834.5 -259926 0 -23746.9 -281253 0 -1797.48 -298685 0 32001.1 -315662 0 77334.9 -340023 0 125238 -373721 0 173804 -410637 0 224026 -448052 0 -90102.2 0 0 -89648.7 -39702.6 0 -88252.3 -79065.4 0 -85802.5 -117729 0 -82091.2 -155296 0 -76770.3 -191308 0 -69268.5 -225237 0 -58635 -256516 0 -43274.4 -284699 0 -20671.1 -310163 0 11921.5 -335448 0 54557.9 -365629 0 102506 -403112 0 153526 -444295 0 208368 -489303 0 267720 -535441 0 -113201 0 0 -112569 -43374.1 0 -110618 -86377.5 0 -107180 -128623 0 -101936 -169691 0 -94355.7 -209129 0 -83580.4 -246488 0 -68251.6 -281466 0 -46365 -314371 0 -15707.6 -346952 0 24456.1 -382729 0 71764.3 -424451 0 124055 -470846 0 181323 -521742 0 244255 -574556 0 314946 -629891 0 -136659 0 0 -135829 -47249.2 0 -133261 -94115.8 0 -128719 -140208 0 -121758 -185124 0 -111647 -228484 0 -97254 -270036 0 -76937.4 -309957 0 -48777.6 -349397 0 -11535.7 -390867 0 33977.6 -437159 0 86073.6 -488716 0 144318 -545459 0 209491 -605758 0 283615 -669780 0 368183 -736367 0 -160529 0 0 -159486 -51332.4 0 -156255 -102293 0 -150526 -152517 0 -141720 -201664 0 -128917 -249499 0 -110769 -296080 0 -85585 -342128 0 -51863.5 -389411 0 -9346 -440467 0 40989.4 -496870 0 98531.1 -559182 0 163964 -626751 0 239327 -699513 0 326804 -776505 0 428430 -856859 0 -184854 0 0 -183589 -55622.4 0 -179669 -110911 0 -172704 -165560 0 -161992 -219338 0 -146449 -272223 0 -124616 -324641 0 -94927.2 -377795 0 -56431.5 -433769 0 -9339.66 -494666 0 45784.4 -561900 0 109375 -635902 0 183513 -716952 0 271172 -804350 0 375125 -896547 0 495856 -991711 0 -209667 0 0 -208178 -60112.7 0 -203559 -119959 0 -195351 -179324 0 -182736 -238134 0 -164517 -296629 0 -139212 -355609 0 -105490 -416647 0 -62851.1 -481834 0 -11628.7 -553185 0 48232.5 -632252 0 118560 -720307 0 203139 -817531 0 306275 -922088 0 429713 -1.03004e+06 0 569053 -1.13811e+06 0 -234993 0 0 -233283 -64792.5 0 -227978 -129414 0 -218553 -193778 0 -204104 -258006 0 -183362 -322633 0 -154886 -388813 0 -117597 -458316 0 -71357.1 -533234 0 -16527.6 -615817 0 47873.7 -708674 0 125811 -813861 0 223766 -930569 0 346692 -1.05328e+06 0 491787 -1.17331e+06 0 642866 -1.28573e+06 0 -260848 0 0 -258926 -69647.2 0 -252964 -139249 0 -242387 -208876 0 -226226 -278881 0 -203187 -350119 0 -171876 -424050 0 -131449 -502500 0 -82225.9 -587607 0 -24654 -682665 0 43884.4 -792229 0 131268 -918842 0 247637 -1.05779e+06 0 396071 -1.19562e+06 0 561849 -1.31608e+06 0 706799 -1.4136e+06 0 -287239 0 0 -285119 -74659.6 0 -278549 -149426 0 -266912 -224559 0 -249213 -300666 0 -224159 -378956 0 -190344 -461138 0 -147173 -548872 0 -95884.7 -644592 0 -37101.4 -754004 0 35299.1 -884851 0 136196 -1.03821e+06 0 279487 -1.19961e+06 0 459820 -1.34143e+06 0 638455 -1.43825e+06 0 743901 -1.4878e+06 0 -314166 0 0 -311868 -79810.2 0 -304753 -159905 0 -292176 -240758 0 -273157 -323255 0 -246425 -409016 0 -210371 -499915 0 -164839 -597033 0 -113087 -703687 0 -55593 -830601 0 21434.9 -989759 0 144316 -1.17539e+06 0 327593 -1.35315e+06 0 544497 -1.47464e+06 0 716335 -1.50838e+06 0 732010 -1.46402e+06 0 -341622 0 0 -339171 -85078.5 0 -331587 -170642 0 -318210 -257401 0 -298138 -346527 0 -270124 -440196 0 -231927 -540258 0 -184464 -646355 0 -135195 -764223 0 -82627.8 -914254 0 2843.01 -1.11205e+06 0 163493 -1.33326e+06 0 404277 -1.50927e+06 0 655799 -1.56826e+06 0 784305 -1.48568e+06 0 648446 -1.29689e+06 0 -369594 0 0 -367017 -90444.2 0 -359059 -181590 0 -345028 -274414 0 -324228 -370345 0 -295420 -472442 0 -254775 -582073 0 -206056 -695770 0 -164684 -825422 0 -121400 -1.00859e+06 0 -16951.2 -1.25904e+06 0 207583 -1.51244e+06 0 524926 -1.64993e+06 0 794654 -1.58481e+06 0 823867 -1.32773e+06 0 478479 -956958 0 </DataArray> 
</PointData> 
<Points> 
<DataArray type="Float32" NumberOfComponents="3"> 
0 0.016 0 0.0004 0.016 0 0.0008 0.016 0 0.0012 0.016 0 0.0016 0.016 0 0.002 0.016 0 0.0024 0.016 0 0.0028 0.016 0 0.0032 0.016 0 0.0036 0.016 0 0.004 0.016 0 0.0044 0.016 0 0.0048 0.016 0 0.0052 0.016 0 0.0056 0.016 0 0.006 0.016 0 0 0.0163333 0 0.000444444 0.0163333 0 0.000888889 0.0163333 0 0.00133333 0.0163333 0 0.00177778 0.0163333 0 0.00222222 0.0163333 0 0.00266667 0.0163333 0 0.00311111 0.0163333 0 0.00355556 0.0163333 0 0.004 0.0163333 0 0.00444444 0.0163333 0 0.00488889 0.0163333 0 0.00533333 0.0163333 0 0.00577778 0.0163333 0 0.00622222 0.0163333 0 0.00666667 0.0163333 0 0 0.0166667 0 0.000488889 0.0166667 0 0.000977778 0.0166667 0 0.00146667 0.0166667 0 0.00195556 0.0166667 0 0.00244444 0.0166667 0 0.00293333 0.0166667 0 0.00342222 0.0166667 0 0.00391111 0.0166667 0 0.0044 0.0166667 0 0.00488889 0.0166667 0 0.00537778 0.0166667 0 0.00586667 0.0166667 0 0.00635556 0.0166667 0 0.00684444 0.0166667 0 0.00733333 0.0166667 0 0 0.017 0 0.000533333 0.017 0 0.00106667 0.017 0 0.0016 0.017 0 0.00213333 0.017 0 0.00266667 0.017 0 0.0032 0.017 0 0.00373333 0.017 0 0.00426667 0.017 0 0.0048 0.017 0 0.00533333 0.017 0 0.00586667 0.017 0 0.0064 0.017 0 0.00693333 0.017 0 0.00746667 0.017 0 0.008 0.017 0 0 0.0173333 0 0.000577778 0.0173333 0 0.00115556 0.0173333 0 0.00173333 0.0173333 0 0.00231111 0.0173333 0 0.00288889 0.0173333 0 0.00346667 0.0173333 0 0.00404444 0.0173333 0 0.00462222 0.0173333 0 0.0052 0.0173333 0 0.00577778 0.0173333 0 0.00635556 0.0173333 0 0.00693333 0.0173333 0 0.00751111 0.0173333 0 0.00808889 0.0173333 0 0.00866667 0.0173333 0 0 0.0176667 0 0.000622222 0.0176667 0 0.00124444 0.0176667 0 0.00186667 0.0176667 0 0.00248889 0.0176667 0 0.00311111 0.0176667 0 0.00373333 0.0176667 0 0.00435556 0.0176667 0 0.00497778 0.0176667 0 0.0056 0.0176667 0 0.00622222 0.0176667 0 0.00684444 0.0176667 0 0.00746667 0.0176667 0 0.00808889 0.0176667 0 0.00871111 0.0176667 0 0.00933333 0.0176667 0 0 0.018 0 0.000666667 0.018 0 0.00133333 0.018 0 0.002 0.018 0 0.00266667 0.018 0 0.00333333 0.018 0 0.004 0.018 0 0.00466667 0.018 0 0.00533333 0.018 0 0.006 0.018 0 0.00666667 0.018 0 0.00733333 0.018 0 0.008 0.018 0 0.00866667 0.018 0 0.00933333 0.018 0 0.01 0.018 0 0 0.0183333 0 0.000711111 0.0183333 0 0.00142222 0.0183333 0 0.00213333 0.0183333 0 0.00284444 0.0183333 0 0.00355556 0.0183333 0 0.00426667 0.0183333 0 0.00497778 0.0183333 0 0.00568889 0.0183333 0 0.0064 0.0183333 0 0.00711111 0.0183333 0 0.00782222 0.0183333 0 0.00853333 0.0183333 0 0.00924444 0.0183333 0 0.00995556 0.0183333 0 0.0106667 0.0183333 0 0 0.0186667 0 0.000755556 0.0186667 0 0.00151111 0.0186667 0 0.00226667 0.0186667 0 0.00302222 0.0186667 0 0.00377778 0.0186667 0 0.00453333 0.0186667 0 0.00528889 0.0186667 0 0.00604444 0.0186667 0 0.0068 0.0186667 0 0.00755556 0.0186667 0 0.00831111 0.0186667 0 0.00906667 0.0186667 0 0.00982222 0.0186667 0 0.0105778 0.0186667 0 0.0113333 0.0186667 0 0 0.019 0 0.0008 0.019 0 0.0016 0.019 0 0.0024 0.019 0 0.0032 0.019 0 0.004 0.019 0 0.0048 0.019 0 0.0056 0.019 0 0.0064 0.019 0 0.0072 0.019 0 0.008 0.019 0 0.0088 0.019 0 0.0096 0.019 0 0.0104 0.019 0 0.0112 0.019 0 0.012 0.019 0 0 0.0193333 0 0.000844444 0.0193333 0 0.00168889 0.0193333 0 0.00253333 0.0193333 0 0.00337778 0.0193333 0 0.00422222 0.0193333 0 0.00506667 0.0193333 0 0.00591111 0.0193333 0 0.00675556 0.0193333 0 0.0076 0.0193333 0 0.00844444 0.0193333 0 0.00928889 0.0193333 0 0.0101333 0.0193333 0 0.0109778 0.0193333 0 0.0118222 0.0193333 0 0.0126667 0.0193333 0 0 0.0196667 0 0.000888889 0.0196667 0 0.00177778 0.0196667 0 0.00266667 0.0196667 0 0.00355556 0.0196667 0 0.00444444 0.0196667 0 0.00533333 0.0196667 0 0.00622222 0.0196667 0 0.00711111 0.0196667 0 0.008 0.0196667 0 0.00888889 0.0196667 0 0.00977778 0.0196667 0 0.0106667 0.0196667 0 0.0115556 0.0196667 0 0.0124444 0.0196667 0 0.0133333 0.0196667 0 0 0.02 0 0.000933333 0.02 0 0.00186667 0.02 0 0.0028 0.02 0 0.00373333 0.02 0 0.00466667 0.02 0 0.0056 0.02 0 0.00653333 0.02 0 0.00746667 0.02 0 0.0084 0.02 0 0.00933333 0.02 0 0.0102667 0.02 0 0.0112 0.02 0 0.0121333 0.02 0 0.0130667 0.02 0 0.014 0.02 0 0 0.0203333 0 0.000977778 0.0203333 0 0.00195556 0.0203333 0 0.00293333 0.0203333 0 0.00391111 0.0203333 0 0.00488889 0.0203333 0 0.00586667 0.0203333 0 0.00684444 0.0203333 0 0.00782222 0.0203333 0 0.0088 0.0203333 0 0.00977778 0.0203333 0 0.0107556 0.0203333 0 0.0117333 0.0203333 0 0.0127111 0.0203333 0 0.0136889 0.0203333 0 0.0146667 0.0203333 0 0 0.0206667 0 0.00102222 0.0206667 0 0.00204444 0.0206667 0 0.00306667 0.0206667 0 0.00408889 0.0206667 0 0.00511111 0.0206667 0 0.00613333 0.0206667 0 0.00715556 0.0206667 0 0.00817778 0.0206667 0 0.0092 0.0206667 0 0.0102222 0.0206667 0 0.0112444 0.0206667 0 0.0122667 0.0206667 0 0.0132889 0.0206667 0 0.0143111 0.0206667 0 0.0153333 0.0206667 0 0 0.021 0 0.00106667 0.021 0 0.00213333 0.021 0 0.0032 0.021 0 0.00426667 0.021 0 0.00533333 0.021 0 0.0064 0.021 0 0.00746667 0.021 0 0.00853333 0.021 0 0.0096 0.021 0 0.0106667 0.021 0 0.0117333 0.021 0 0.0128 0.021 0 0.0138667 0.021 0 0.0149333 0.021 0 0.016 0.021 0 
</DataArray>
</Points> 
</Piece> 
</StructuredGrid> 
</VTKFile> 
