<?xml version="1.0"?> 
<VTKFile type="StructuredGrid" version="0.1"> 
<StructuredGrid WholeExtent="0 31 0 31 0 0"> 
<Piece Extent="0 31 0 31 0 0"> 
<PointData>
<DataArray type="Float32" Name="|E|" format="ascii" NumberOfComponents="3"> 
0 7.3412e+06 0 1.11759e-08 5.04157e+06 0 -3.25963e-08 3.89694e+06 0 6.89179e-08 3.2371e+06 0 -1.30385e-08 2.77477e+06 0 -3.72529e-08 2.41762e+06 0 -2.6077e-08 2.12112e+06 0 7.45058e-08 1.86346e+06 0 0 1.63249e+06 0 -1.49012e-08 1.42113e+06 0 4.47035e-08 1.22542e+06 0 -4.47035e-08 1.04348e+06 0 1.49012e-08 874956 0 -2.23517e-08 720563 0 -7.45058e-09 581648 0 2.98023e-08 459656 0 -7.45058e-09 355582 0 0 269540 0 0 200611 0 2.98023e-08 146985 0 -1.49012e-08 106323 0 -2.98023e-08 76137.3 0 2.98023e-08 54104.6 0 -1.49012e-08 38229.3 0 1.49012e-08 26900.8 0 0 18874.8 0 -2.98023e-08 13217.5 0 2.98023e-08 9250.11 0 1.49012e-08 6467.45 0 -4.47035e-08 4566.2 0 7.45058e-08 3185.47 0 -5.96046e-08 3259.76 0 -620485 5.87826e+06 0 -307990 4.33454e+06 0 -182267 3.52984e+06 0 -129700 2.99931e+06 0 -100515 2.60119e+06 0 -83656.9 2.28058e+06 0 -72735.8 2.00705e+06 0 -65197.2 1.76522e+06 0 -59664.2 1.54591e+06 0 -55263.7 1.34376e+06 0 -51426.3 1.15588e+06 0 -47730.5 981087 0 -43871.5 819475 0 -39661.6 672024 0 -35049.7 540144 0 -30132.5 425161 0 -25129.6 327814 0 -20318.8 247916 0 -15954.6 184302 0 -12205.7 135038 0 -9135.16 97787.3 0 -6717.44 70165.6 0 -4872.21 49997.1 0 -3497.24 35442.9 0 -2490.81 25032.1 0 -1763.76 17633.4 0 -1243.43 12401.4 0 -872.517 8713.76 0 -611.903 6132.56 0 -413.609 4318.65 0 -294.026 3149.25 0 129.982 2316.33 0 -833233 4.78215e+06 0 -451634 3.827e+06 0 -301767 3.22907e+06 0 -226459 2.78819e+06 0 -182924 2.44092e+06 0 -156210 2.15056e+06 0 -138139 1.89711e+06 0 -125297 1.66953e+06 0 -115514 1.46098e+06 0 -107428 1.26752e+06 0 -100078 1.08716e+06 0 -92745.6 919322 0 -84923.7 764507 0 -76338.4 623916 0 -66989.2 498996 0 -57152.8 390939 0 -47310.1 300226 0 -38004.9 226378 0 -29692 167994 0 -22640.2 123027 0 -16918 89146.6 0 -12440 64070.3 0 -9033.98 45765 0 -6498.95 32541.7 0 -4642.39 23063.8 0 -3298.88 16309.6 0 -2333.96 11517.2 0 -1646.33 8129.25 0 -1152.22 5743.64 0 -800.456 4072.95 0 -508.862 2952.4 0 -87.6728 1979.46 0 -858209 4.11001e+06 0 -529155 3.44079e+06 0 -384556 2.97144e+06 0 -302014 2.59877e+06 0 -252530 2.29185e+06 0 -220221 2.02694e+06 0 -197673 1.79107e+06 0 -181093 1.57629e+06 0 -167979 1.37765e+06 0 -156688 1.19236e+06 0 -145997 1.0192e+06 0 -134989 858120 0 -123050 709985 0 -109918 576183 0 -95735.7 458178 0 -81030.5 357006 0 -66566.2 272878 0 -53123.8 205017 0 -41296.6 151794 0 -31386.9 111058 0 -23418.6 80499 0 -17220.1 57934.4 0 -12521.1 41474.1 0 -9027.63 29575.8 0 -6467.83 21032.7 0 -4611.72 14929.3 0 -3275.71 10585.1 0 -2318.65 7503.66 0 -1630.44 5323.8 0 -1135.58 3795.34 0 -722.846 2721.47 0 -341.138 1796.15 0 -841844 3.63023e+06 0 -577283 3.13318e+06 0 -445257 2.7503e+06 0 -363969 2.42795e+06 0 -312766 2.15294e+06 0 -277686 1.90937e+06 0 -252458 1.68878e+06 0 -233216 1.48544e+06 0 -217394 1.29587e+06 0 -203180 1.11823e+06 0 -189185 951922 0 -174380 797398 0 -158129 655834 0 -140279 528782 0 -121206 417692 0 -101739 323414 0 -82928.6 245859 0 -65746.9 183944 0 -50857.5 135820 0 -38532.7 99243.6 0 -28710.1 71938.6 0 -21113.2 51834.1 0 -15372.2 37183.9 0 -11108.4 26589.7 0 -7982.23 18971.4 0 -5711.23 13515.8 0 -4072.21 9621.2 0 -2893.14 6848.84 0 -2044.03 4880.03 0 -1425.6 3490.55 0 -932.596 2483.12 0 -565.391 1654.81 0 -821805 3.27438e+06 0 -611000 2.88111e+06 0 -493381 2.55602e+06 0 -416796 2.2722e+06 0 -366148 2.02282e+06 0 -330115 1.79724e+06 0 -303357 1.58992e+06 0 -282165 1.39679e+06 0 -264009 1.21551e+06 0 -246983 1.04498e+06 0 -229605 885211 0 -210806 737054 0 -190018 601985 0 -167292 481693 0 -143316 377575 0 -119259 290247 0 -96437.6 219286 0 -75954.9 163288 0 -58471 120191 0 -44170 87688 0 -32869.6 63553.3 0 -24177.9 45839.4 0 -17628.6 32948 0 -12768.7 23623.8 0 -9202.82 16909.6 0 -6607.52 12090.6 0 -4729.09 8640.58 0 -3372.99 6175.93 0 -2393.34 4418.77 0 -1675.33 3167.21 0 -1127.31 2244.72 0 -750.498 1516.49 0 -808417 2.99298e+06 0 -638073 2.66588e+06 0 -534020 2.3828e+06 0 -463344 2.12894e+06 0 -414511 1.90032e+06 0 -378614 1.68996e+06 0 -351035 1.49417e+06 0 -328318 1.31012e+06 0 -307998 1.13637e+06 0 -288124 972479 0 -267178 818928 0 -244123 676981 0 -218553 548385 0 -190815 434930 0 -161982 337904 0 -133580 257629 0 -107147 193301 0 -83841.1 143185 0 -64243 105031 0 -48397.3 76493.3 0 -35978.4 55424.3 0 -26475.5 40013.4 0 -19333.7 28814.7 0 -14037.7 20714.2 0 -10148.4 14873.9 0 -7312.07 10673.1 0 -5253.21 7657.12 0 -3761.88 5494.94 0 -2680.48 3946.63 0 -1886.95 2833.49 0 -1298.78 2006.94 0 -900.875 1373.23 0 -802451 2.75896e+06 0 -661948 2.47774e+06 0 -570133 2.2262e+06 0 -505551 1.99593e+06 0 -459171 1.78436e+06 0 -424009 1.58691e+06 0 -395996 1.40113e+06 0 -371946 1.22516e+06 0 -349458 1.05825e+06 0 -326571 900519 0 -301777 752916 0 -274151 617079 0 -243543 495008 0 -210697 388549 0 -177129 298803 0 -144709 225718 0 -115131 168066 0 -89515.4 123782 0 -68290.5 90459.4 0 -51320.1 65754 0 -38121.8 47624.4 0 -28070.1 34411.6 0 -20533.2 24825.8 0 -14946.2 17892.5 0 -10839.1 12887.8 0 -7837.53 9280.51 0 -5652.31 6683.37 0 -4064.14 4814.9 0 -2908.38 3470.43 0 -2060.98 2495.74 0 -1443.04 1770.1 0 -1021.62 1224.13 0 -802384 2.55775e+06 0 -684501 2.3099e+06 0 -603502 2.08282e+06 0 -544745 1.87144e+06 0 -501074 1.67398e+06 0 -466906 1.4875e+06 0 -438609 1.3104e+06 0 -413230 1.14158e+06 0 -388421 980877 0 -362233 828886 0 -333225 687011 0 -300665 557264 0 -264770 441872 0 -226782 342662 0 -188692 260447 0 -152677 194710 0 -120488 143761 0 -93106.5 105227 0 -70742.7 76590.1 0 -53050.3 55555.7 0 -39388.5 40217.7 0 -29027.6 29082.1 0 -21273.6 21017.6 0 -15526.3 15185.6 0 -11296 10971.4 0 -8197.4 7927.87 0 -5934.81 5730.51 0 -4284.83 4143.99 0 -3080.21 2996.6 0 -2197.76 2158.89 0 -1558.8 1534.88 0 -1116.64 1070.74 0 -806933 2.38033e+06 0 -706773 2.15783e+06 0 -635242 1.95012e+06 0 -581868 1.754e+06 0 -540900 1.5683e+06 0 -507752 1.39114e+06 0 -479131 1.22156e+06 0 -452266 1.05906e+06 0 -424845 903959 0 -394956 757341 0 -361282 621056 0 -323390 497490 0 -281991 389051 0 -238913 297446 0 -196635 223064 0 -157550 164829 0 -123346 120574 0 -94764.2 87662.2 0 -71740.8 63527.3 0 -53706.3 45973.1 0 -39870.2 33258.3 0 -29415.5 24064.8 0 -21602.7 17420 0 -15810.5 12616.3 0 -11540.9 9142.06 0 -8405.88 6628.21 0 -6109.71 4808.33 0 -4429.55 3489.59 0 -3199.24 2530.96 0 -2298.02 1826.94 0 -1646.32 1302.53 0 -1188.69 915.039 0 -815240 2.22104e+06 0 -729381 2.01826e+06 0 -666096 1.82609e+06 0 -617581 1.64242e+06 0 -579133 1.46653e+06 0 -546858 1.29727e+06 0 -517721 1.13416e+06 0 -489067 977203 0 -458611 827176 0 -424507 685639 0 -385639 554917 0 -342002 437768 0 -294944 336702 0 -246954 253153 0 -200957 186932 0 -159437 136324 0 -123869 98697.1 0 -94659.5 71222.5 0 -71436.7 51362 0 -53410.8 37068.3 0 -39660.2 26789.9 0 -29301.7 19391.6 0 -21568.3 14056.9 0 -15831.8 10203 0 -11595.8 7413.95 0 -8477.54 5392.47 0 -6186.42 3925.24 0 -4504.23 2858.18 0 -3268.88 2078.6 0 -2363.03 1503.2 0 -1706.66 1074.59 0 -1239.78 759.033 0 -826785 2.07587e+06 0 -752700 1.8887e+06 0 -696564 1.70909e+06 0 -652350 1.53563e+06 0 -616112 1.36791e+06 0 -584431 1.2053e+06 0 -554446 1.04772e+06 0 -523564 895605 0 -489518 750185 0 -450566 613540 0 -405905 488507 0 -356125 378191 0 -303359 285077 0 -250802 210118 0 -201719 152378 0 -158500 109454 0 -122255 78310.6 0 -92983.4 56025.3 0 -69991.7 40168.3 0 -52289.7 28889.1 0 -38852.2 20845.1 0 -28753.7 15086.3 0 -21217.9 10946.7 0 -15622.8 7960.07 0 -11483 5798.38 0 -8427.14 4229.63 0 -6174.6 3088.34 0 -4515.06 2255.37 0 -3292.72 1643.88 0 -2394.59 1190.53 0 -1741.32 852.746 0 -1271.55 604.578 0 -841227 1.94188e+06 0 -776960 1.76721e+06 0 -726989 1.59779e+06 0 -686495 1.43269e+06 0 -652063 1.27173e+06 0 -620584 1.11466e+06 0 -589289 961736 0 -555596 813817 0 -517258 672626 0 -472703 540826 0 -421598 421813 0 -365338 318971 0 -306989 234547 0 -250422 168756 0 -199053 119760 0 -154957 84475.7 0 -118739 59577.5 0 -89943.8 42166.1 0 -67572.8 30001.5 0 -50469.9 21468.9 0 -37539.1 15445.9 0 -27837.6 11164.9 0 -20598 8101.87 0 -15215.6 5897.71 0 -11224.3 4303.9 0 -8269.44 3146.73 0 -6084.04 2303.38 0 -4468.36 1685.86 0 -3274.56 1230.44 0 -2394.93 891.404 0 -1752.06 638.689 0 -1285.42 453.371 0 -858319 1.81682e+06 0 -802301 1.65219e+06 0 -757604 1.49104e+06 0 -720233 1.33274e+06 0 -687124 1.17729e+06 0 -655343 1.02474e+06 0 -622138 875658 0 -584894 731357 0 -541398 594135 0 -490360 467338 0 -432142 354946 0 -369199 260472 0 -305638 185614 0 -245871 129553 0 -193182 89448.1 0 -149090 61626.5 0 -113586 42630.6 0 -85760.6 29713.5 0 -64349.5 20895.8 0 -48076.6 14825.5 0 -35811 10603.3 0 -26617.7 7635.65 0 -19753.4 5529.62 0 -14641.4 4022.52 0 -10841.1 2936.43 0 -8018.97 2149.03 0 -5924.48 1574.89 0 -4370.49 1153.44 0 -3218.39 841.272 0 -2366.54 607.947 0 -1740.74 434.013 0 -1282.77 306.935 0 -877872 1.69888e+06 0 -828804 1.54231e+06 0 -788561 1.38782e+06 0 -753696 1.23496e+06 0 -721349 1.08388e+06 0 -688647 934879 0 -652777 788883 0 -611053 647711 0 -561340 514369 0 -502821 393019 0 -436874 288194 0 -367288 203253 0 -299221 138912 0 -237337 93039.9 0 -184428 61796.4 0 -141234 41103.7 0 -107086 27564.1 0 -80659.9 18705.7 0 -60489.6 12863.6 0 -45231.2 8962.07 0 -33754.6 6318.18 0 -25155 4499.97 0 -18727.1 3232.29 0 -13930.2 2337.61 0 -10354.1 1699.47 0 -7689.9 1240.03 0 -5705.51 906.191 0 -4227.81 661.037 0 -3128.31 478.768 0 -2312.15 341.955 0 -1709.34 240.162 0 -1264.94 166.619 0 -899738 1.58658e+06 0 -856515 1.43643e+06 0 -819956 1.28718e+06 0 -786951 1.13853e+06 0 -754719 990742 0 -720339 844373 0 -680856 700750 0 -633487 562335 0 -576280 433047 0 -509202 317988 0 -435076 222099 0 -359274 148089 0 -287820 95184.2 0 -225163 59753.1 0 -173209 37112.5 0 -131770 23049.5 0 -99541.2 14427.3 0 -74866.3 9149 0 -56155.3 5896.44 0 -42048.9 3867.63 0 -31451.3 2582.02 0 -23506.9 1752.72 0 -17559.2 1207.75 0 -13109.9 842.945 0 -9783.05 594.296 0 -7295.85 421.702 0 -5436.47 299.466 0 -4046.61 210.778 0 -3008.48 144.747 0 -2234.59 94.8949 0 -1659.86 58.3952 0 -1233.29 33.5965 0 -923801 1.47866e+06 0 -885459 1.3335e+06 0 -851840 1.18822e+06 0 -820005 1.04261e+06 0 -787134 897071 0 -750142 752427 0 -705846 610521 0 -651365 474685 0 -585149 350021 0 -508445 242653 0 -426053 157526 0 -345017 95978 0 -271747 55235 0 -209859 30180.8 0 -160027 15625 0 -121105 7537.5 0 -91253.9 3220.63 0 -68596.8 1018.32 0 -51499.1 -34.4381 0 -38636.8 -481.554 0 -28976.3 -622.105 0 -21726.3 -616.874 0 -16287.2 -550.087 0 -12207.2 -464.299 0 -9146.37 -379.835 0 -6849.8 -305.465 0 -5126.36 -244.148 0 -3833.04 -195.984 0 -2863.1 -159.491 0 -2136.76 -132.085 0 -1594.35 -110.237 0 -1189.18 -91.1369 0 -949974 1.37398e+06 0 -915645 1.23253e+06 0 -884226 1.09002e+06 0 -852807 946322 0 -818397 801961 0 -777617 658129 0 -726962 517382 0 -663517 384266 0 -586559 265411 0 -499376 167845 0 -409273 95726.6 0 -324689 48091.4 0 -251588 19842.1 0 -192084 4704 0 -145439 -2542.04 0 -109654 -5433.77 0 -82516.5 -6102.79 0 -62053.2 -5740.37 0 -46660.7 -4975.22 0 -35092 -4120.22 0 -26397.6 -3318.27 0 -19861.4 -2624.47 0 -14945.3 -2050.73 0 -11246.2 -1589.4 0 -8461.33 -1225.44 0 -6363.93 -942.272 0 -4783.72 -724.472 0 -3593.06 -558.596 0 -2696.29 -433.133 0 -2021.55 -338.154 0 -1514.84 -264.902 0 -1133.96 -206.76 0 -978200 1.27152e+06 0 -947076 1.13256e+06 0 -917099 991627 0 -885239 848656 0 -848182 704357 0 -802093 560421 0 -743049 420452 0 -668309 290755 0 -578785 179808 0 -480852 94984.8 0 -384572 38332.9 0 -298892 5655.84 0 -228204 -10349.1 0 -172608 -16455.4 0 -130018 -17383.6 0 -97814.3 -15940.4 0 -73598.2 -13633.6 0 -55417.3 -11206.1 0 -41764.1 -8986.85 0 -31500.7 -7092.14 0 -23776 -5536.43 0 -17955.1 -4289.72 0 -13564.2 -3306.52 0 -10248.9 -2539.73 0 -7743.78 -1946.57 0 -5849.59 -1490.68 0 -4416.64 -1142.19 0 -3332.37 -877.042 0 -2512.1 -675.817 0 -1891.84 -522.789 0 -1423.35 -404.991 0 -1069.01 -312.628 0 -1.00845e+06 1.17023e+06 0 -979756 1.03255e+06 0 -950410 891962 0 -917094 748451 0 -875974 602997 0 -822540 458049 0 -752377 318846 0 -663493 194232 0 -559854 94584 0 -452058 26197.5 0 -352408 -12768.5 0 -268716 -30231.8 0 -202669 -34931.8 0 -152241 -33267.3 0 -114318 -29014.1 0 -85949.2 -24125.9 0 -64736.2 -19498.5 0 -48846.8 -15477.9 0 -36916.6 -12141.6 0 -27937.1 -9447.98 0 -21163.8 -7311.05 0 -16045.2 -5635.41 0 -12171.1 -4332.12 0 -9235.24 -3324.36 0 -7008.09 -2548.6 0 -5317.19 -1953.64 0 -4032.62 -1498.76 0 -3056.38 -1151.87 0 -2314.39 -887.596 0 -1750.41 -685.759 0 -1321.88 -530.115 0 -995.666 -408.267 0 -1.04074e+06 1.06907e+06 0 -1.01369e+06 931392 0 -984070 789790 0 -948037 644297 0 -900961 496318 0 -837341 349531 0 -752349 211860 0 -646121 95629.7 0 -527868 12236.9 0 -412977 -35730.5 0 -314072 -55725.2 0 -235675 -58818.1 0 -176154 -53812.8 0 -131767 -45896.2 0 -98834.6 -37655.1 0 -74370.3 -30186.8 0 -56130 -23851.8 0 -42473.3 -18668.9 0 -32207.4 -14519.5 0 -24463.7 -11243.2 0 -18605.8 -8679.77 0 -14164 -6686.64 0 -10789.7 -5143.89 0 -8222.57 -3953.72 0 -6267.11 -3037.98 0 -4776.18 -2334.96 0 -3638.59 -1796.29 0 -2770.14 -1384.16 0 -2106.87 -1068.9 0 -1599.97 -827.119 0 -1212.34 -640.105 0 -915.231 -493.38 0 -1.0751e+06 966887 0 -1.04891e+06 827810 0 -1.01794e+06 683603 0 -977532 534401 0 -921835 382311 0 -843873 233198 0 -739104 99451 0 -612722 -2578.7 0 -481724 -63367.3 0 -364922 -87725 0 -271694 -89134.4 0 -201503 -79871.5 0 -149792 -67222.2 0 -111876 -54682.4 0 -83981.1 -43607.2 0 -63328.4 -34358.6 0 -47938.4 -26865 0 -36401 -20900.5 0 -27708.1 -16205.5 0 -21131.2 -12536.1 0 -16138.5 -9682.18 0 -12338.6 -7470 0 -9440.26 -5759.45 0 -7226.02 -4439.28 0 -5532.16 -3421.98 0 -4235.02 -2639.14 0 -3240.86 -2037.45 0 -2478.35 -1575.4 0 -1893.03 -1220.49 0 -1443.1 -947.184 0 -1096.6 -735.01 0 -828.963 -567.839 0 -1.11166e+06 862395 0 -1.08544e+06 720244 0 -1.05176e+06 571465 0 -1.0047e+06 416370 0 -936355 258345 0 -837745 107472 0 -707218 -16738.1 0 -560146 -95526.7 0 -422248 -127283 0 -310830 -127164 0 -227917 -112472 0 -167879 -93706.9 0 -124562 -75687.7 0 -93121.4 -60084.7 0 -70071.1 -47225.7 0 -53012.4 -36896.3 0 -40279.7 -28717.5 0 -30708.8 -22297.7 0 -23473.6 -17285.4 0 -17979 -13385.7 0 -13791.5 -10358.7 0 -10591 -8012.84 0 -8139.49 -6197.17 0 -6258.42 -4793.2 0 -4813.04 -3708.53 0 -3701.2 -2871.23 0 -2845.11 -2225.39 0 -2185.32 -1727.47 0 -1676.13 -1343.44 0 -1282.22 -1046.52 0 -976.433 -815.09 0 -738.036 -631.702 0 -1.15063e+06 754028 0 -1.12336e+06 606699 0 -1.08516e+06 450739 0 -1.02805e+06 286848 0 -940377 120977 0 -811635 -28070.8 0 -650200 -131535 0 -487569 -175659 0 -353260 -174606 0 -254848 -152904 0 -185307 -126163 0 -136205 -101160 0 -101211 -79914.3 0 -75889.2 -62638.3 0 -57322.4 -48886.5 0 -43549.3 -38059.6 0 -33234.5 -29588.6 0 -25451.2 -22983.6 0 -19542.7 -17844.4 0 -15036.4 -13850.6 0 -11586.8 -10749.4 0 -8938.63 -8342.67 0 -6901.02 -6475.71 0 -5330.42 -5028.05 0 -4118.09 -3905.99 0 -3181.19 -3036.71 0 -2456.37 -2363.6 0 -1894.92 -1842.56 0 -1459.15 -1439.09 0 -1119.65 -1125.91 0 -853.52 -880.823 0 -643.519 -685.22 0 -1.19244e+06 639916 0 -1.16275e+06 484375 0 -1.11746e+06 317712 0 -1.0447e+06 140722 0 -925603 -33688.3 0 -754368 -169765 0 -563299 -234355 0 -399300 -233859 0 -281447 -202857 0 -201063 -165523 0 -145887 -131574 0 -107508 -103330 0 -80202.9 -80710.2 0 -60418.1 -62893.7 0 -45860 -48959.8 0 -35012.2 -38100.8 0 -26850.2 -29649.9 0 -20661.4 -23076.4 0 -15940.8 -17963.9 0 -12323.1 -13987.2 0 -9540.71 -10893.5 0 -7394.54 -8486.54 0 -5735.45 -6613.71 0 -4450.62 -5156.54 0 -3454.21 -4022.95 0 -2680.51 -3141.32 0 -2079.02 -2455.88 0 -1610.64 -1923.14 0 -1244.85 -1508.99 0 -957.532 -1186.37 0 -729.464 -932.917 0 -546.334 -728.874 0 -1.23773e+06 517157 0 -1.20358e+06 349448 0 -1.14796e+06 166430 0 -1.04758e+06 -30179.5 0 -875641 -206829 0 -653380 -305060 0 -449525 -308562 0 -306340 -264628 0 -213678 -212836 0 -152383 -167340 0 -111074 -130449 0 -82311.5 -101442 0 -61770.9 -78879.2 0 -46809.5 -61372.5 0 -35731.8 -47794.5 0 -27429 -37253.9 0 -21145.5 -29061.4 0 -16354.7 -22686.5 0 -12681 -17720.7 0 -9851.03 -13849.1 0 -7663.48 -10828.5 0 -5967.84 -8470.63 0 -4650.65 -6629.39 0 -3625.68 -5191.32 0 -2826.97 -4068.12 0 -2203.77 -3190.98 0 -1716.83 -2506.21 0 -1335.53 -1971.82 0 -1035.72 -1554.87 0 -797.885 -1229.08 0 -605.811 -972.332 0 -447.201 -763.472 0 -1.28659e+06 381162 0 -1.24736e+06 196095 0 -1.174e+06 -14500 0 -1.01721e+06 -236090 0 -764515 -389176 0 -504952 -404799 0 -327165 -341463 0 -220976 -269222 0 -154051 -208689 0 -110743 -161189 0 -81390.9 -124662 0 -60782 -96667 0 -45952.9 -75146 0 -35055.8 -58547.8 0 -26926.8 -45702 0 -20790.7 -35729.3 0 -16116.7 -27967.7 0 -12531.4 -21914.3 0 -9766.35 -17185.3 0 -7624.78 -13486.2 0 -5960.65 -10589.6 0 -4664.15 -8319.86 0 -3651.99 -6540.34 0 -2860.5 -5144.73 0 -2240.7 -4050.11 0 -1754.69 -3191.66 0 -1372.95 -2518.67 0 -1072.26 -1991.4 0 -834.009 -1578.62 0 -642.624 -1255.41 0 -484.131 -1000.34 0 -346.556 -790.283 0 -1.34167e+06 226427 0 -1.29779e+06 12979.2 0 -1.1814e+06 -245000 0 -908756 -485860 0 -567300 -533953 0 -339615 -438037 0 -219665 -335620 0 -148727 -255449 0 -105102 -195109 0 -76510.1 -149936 0 -56804.2 -115893 0 -42823.1 -89990.7 0 -32636.3 -70136.4 0 -25077.4 -54823.1 0 -19389.2 -42951.3 0 -15061.8 -33711.2 0 -11742.5 -26496.8 0 -9179.99 -20850 0 -7191.86 -16421.8 0 -5643.34 -12944 0 -4433.54 -10209.5 0 -3486.08 -8057.63 0 -2742.65 -6363.28 0 -2158.38 -5028.69 0 -1698.56 -3977.36 0 -1336.16 -3149.29 0 -1049.96 -2497.39 0 -823.086 -1984.71 0 -641.745 -1582.2 0 -493.6 -1266.83 0 -366.225 -1018.58 0 -244.524 -811.692 0 -1.40352e+06 31631.4 0 -1.36635e+06 -210524 0 -1.10957e+06 -585184 0 -639068 -720262 0 -335388 -560929 0 -204728 -412013 0 -133652 -306598 0 -92536.3 -231196 0 -66686.4 -176463 0 -49188 -135946 0 -36966.3 -105448 0 -28141.3 -82215.4 0 -21628.7 -64357.1 0 -16744.3 -50530.8 0 -13033.6 -39768.5 0 -10187.7 -31356 0 -7988.8 -24758.9 0 -6279.94 -19572.4 0 -4945.95 -15486.8 0 -3900.92 -12263.7 0 -3079.98 -9717.94 0 -2433.64 -7705.57 0 -1923.86 -6113.9 0 -1521.18 -4854.53 0 -1202.66 -3858.02 0 -950.304 -3069.69 0 -749.902 -2446.49 0 -589.899 -1954.61 0 -460.763 -1567.59 0 -352.657 -1264.9 0 -254.604 -1029.24 0 -140.991 -831.65 0 -1.56035e+06 -63190.9 0 -1.41785e+06 -643412 0 -722080 -1.02218e+06 0 -297730 -717821 0 -168745 -495131 0 -105619 -359468 0 -71397.1 -267542 0 -51006.3 -202954 0 -37363.6 -155916 0 -27996.6 -120863 0 -21293 -94304.4 0 -16370.4 -73946.5 0 -12690.7 -58198.9 0 -9898.81 -45935.9 0 -7757.71 -36337.1 0 -6101.85 -28793.9 0 -4812.89 -22847.8 0 -3804.43 -18149.4 0 -3012.27 -14430.2 0 -2388.07 -11481.7 0 -1894.97 -9141.87 0 -1504.67 -7283.5 0 -1195.22 -5806.74 0 -949.517 -4632.91 0 -754.169 -3699.85 0 -598.561 -2958.47 0 -474.288 -2369.96 0 -374.216 -1903.92 0 -292.737 -1536.7 0 -221.652 -1251 0 -153.339 -1034.54 0 -38.5226 -862.132 0 -2.09701e+06 -57842.7 0 -788823 -1.67048e+06 0 -193642 -904245 0 -101694 -573387 0 -61719.7 -408920 0 -40409.7 -301159 0 -28831.9 -227633 0 -20961.7 -174601 0 -15672.1 -135399 0 -11916.6 -105801 0 -9167.22 -83146.1 0 -7118.34 -65621.4 0 -5564.87 -51959.1 0 -4373.18 -41244.9 0 -3450.55 -32804.3 0 -2731.03 -26131.4 0 -2166.77 -20841.5 0 -1722.3 -16639 0 -1370.98 -13294.8 0 -1092.5 -10630.3 0 -871.285 -8505.22 0 -695.232 -6809.25 0 -554.913 -5455.1 0 -442.923 -4373.67 0 -353.418 -3510.12 0 -281.717 -2820.94 0 -224.15 -2271.64 0 -177.234 -1835.33 0 -139.068 -1491.2 0 -102.602 -1226.15 0 -69.1003 -1036.76 0 47.954 -924.196 0 -1.78814e-07 -6.42207e+06 0 1.00583e-07 -793599 0 -1.19209e-07 -602191 0 8.9407e-08 -448829 0 -8.9407e-08 -325955 0 1.04308e-07 -248298 0 -1.49012e-08 -190254 0 -3.72529e-08 -147938 0 5.96046e-08 -115929 0 2.23517e-08 -91388.5 0 -7.45058e-08 -72378.8 0 2.98023e-08 -57521.2 0 -2.98023e-08 -45837.2 0 1.49012e-08 -36603.4 0 8.9407e-08 -29278.1 0 -4.47035e-08 -23449.7 0 1.49012e-08 -18801.5 0 -2.98023e-08 -15087.8 0 -2.98023e-08 -12116.5 0 0 -9736.63 0 8.9407e-08 -7828.9 0 -5.96046e-08 -6298.77 0 0 -5071.1 0 -2.98023e-08 -4086.01 0 2.98023e-08 -3295.74 0 -2.98023e-08 -2662.25 0 0 -2155.28 0 -2.98023e-08 -1751.47 0 -2.98023e-08 -1432.23 0 2.08616e-07 -1191.33 0 -2.98023e-07 -1023.26 0 6.55651e-07 -1135.19 0 </DataArray> 
</PointData> 
<Points> 
<DataArray type="Float32" NumberOfComponents="3"> 