<?xml version="1.0"?> 
<VTKFile type="StructuredGrid" version="0.1"> 
<StructuredGrid WholeExtent="0 31 0 31 0 0"> 
<Piece Extent="0 31 0 31 0 0"> 
<PointData>
<DataArray type="Float32" Name="|E|" format="ascii" NumberOfComponents="3"> 
1.01885e+06 113313 0 985795 108955 0 954061 104574 0 923652 100198 0 894558 95846.6 0 866765 91533.1 0 840256 87269.4 0 815013 83063.9 0 791016 78922.7 0 768241 74850 0 746668 70848.3 0 726273 66919.1 0 707034 63062.3 0 688928 59277.4 0 671935 55562.8 0 656032 51916.5 0 641199 48336 0 627418 44818.2 0 614668 41360 0 602934 37957.6 0 592199 34607.5 0 582447 31305.6 0 573665 28047.8 0 565841 24830 0 558962 21647.8 0 553019 18497 0 548003 15373.1 0 543907 12271.6 0 540725 9188.04 0 538451 6117.96 0 537082 3056.79 0 536617 0 0 1.01759e+06 116946 0 984581 112442 0 952899 107917 0 922543 103399 0 893500 98906.1 0 865758 94453.5 0 839300 90052.7 0 814106 85712.4 0 790155 81438.8 0 767425 77236 0 745895 73106.8 0 725541 69052.4 0 706341 65072.8 0 688272 61167.4 0 671313 57334.7 0 655443 53572.3 0 640641 49877.8 0 626888 46248.1 0 614165 42679.7 0 602454 39169 0 591741 35712.1 0 582009 32304.9 0 573246 28943.3 0 565437 25622.8 0 558572 22339.2 0 552642 19087.8 0 547636 15864.1 0 543549 12663.6 0 540372 9481.54 0 538103 6313.39 0 536738 3154.44 0 536274 0 0 1.01631e+06 120573 0 983351 115923 0 951722 111254 0 921418 106593 0 892427 101959 0 864737 97367.8 0 838329 92830.1 0 813183 88355.2 0 789279 83949.4 0 766595 79616.9 0 745108 75360.3 0 724795 71181 0 705634 67078.9 0 687603 63053.3 0 670679 59102.6 0 654841 55224.5 0 640070 51416.3 0 626345 47674.8 0 613648 43996.6 0 601963 40377.8 0 591271 36814.4 0 581560 33302.2 0 572814 29836.9 0 565022 26414 0 558172 23029 0 552253 19677.3 0 547258 16354.1 0 543179 13054.7 0 540009 9774.42 0 537745 6508.41 0 536382 3251.88 0 535919 0 0 1.01501e+06 124193 0 982106 119397 0 950529 114585 0 920277 109781 0 891339 105006 0 863700 100276 0 837342 95601.6 0 812246 90992.3 0 788389 86454.5 0 765751 81992.5 0 744307 77608.9 0 724036 73304.9 0 704914 69080.5 0 686920 64935 0 670031 60866.6 0 654227 56873 0 639486 52951.4 0 625790 49098.4 0 613120 45310.6 0 601459 41583.9 0 590790 37914.2 0 581099 34297.2 0 572372 30728.5 0 564595 27203.5 0 557759 23717.4 0 551853 20265.5 0 546869 16843 0 542798 13445 0 539635 10066.7 0 537375 6703.02 0 536016 3349.11 0 535553 0 0 1.0137e+06 127806 0 980845 122866 0 949320 117909 0 919121 112963 0 890236 108047 0 862649 103178 0 836341 98367.1 0 811294 93623.7 0 787485 88954.1 0 764892 84362.8 0 743492 79852.4 0 723263 75424 0 704181 71077.7 0 686224 66812.5 0 669371 62626.7 0 653600 58517.8 0 638890 54483 0 625223 50518.9 0 612579 46621.6 0 600943 42787.3 0 590297 39011.6 0 580626 35290.1 0 571917 31618.2 0 564157 27991.2 0 557336 24404.3 0 551442 20852.5 0 546468 17330.9 0 542406 13834.5 0 539250 10358.3 0 536995 6897.21 0 535638 3446.14 0 535177 0 0 1.01237e+06 131414 0 979568 126327 0 948096 121227 0 917950 116138 0 889118 111082 0 861582 106074 0 835326 101127 0 810328 96249.2 0 786566 91448.2 0 764019 86727.8 0 742664 82090.8 0 722476 77538.3 0 703434 73070.3 0 685515 68685.7 0 668698 64382.8 0 652960 60158.9 0 638281 56011.2 0 624643 51936.1 0 612027 47929.8 0 600415 43988.1 0 589791 40106.6 0 580141 36280.8 0 571451 32506 0 563708 28777.2 0 556901 25089.6 0 551020 21438.2 0 546056 17817.7 0 542003 14223.1 0 538853 10649.3 0 536603 7090.98 0 535249 3542.95 0 534789 0 0 1.01103e+06 135015 0 978275 129783 0 946856 124538 0 916763 119306 0 887984 114110 0 860500 108963 0 834295 103880 0 809347 98868.9 0 785633 93936.6 0 763133 89087.5 0 741821 84324.2 0 721676 79647.8 0 702674 75058.4 0 684793 70554.7 0 668011 66134.8 0 652307 61796.3 0 637660 57536 0 624051 53350.2 0 611462 49235 0 599875 45186.1 0 589274 41199.1 0 579645 37269.3 0 570973 33391.7 0 563247 29561.5 0 556454 25773.5 0 550586 22022.5 0 545633 18303.4 0 541588 14610.9 0 538446 10939.7 0 536200 7284.32 0 534849 3639.56 0 534390 0 0 1.00967e+06 138609 0 976966 133232 0 945600 127842 0 915561 122469 0 886834 117131 0 859404 111847 0 833250 106627 0 808351 101483 0 784686 96419.4 0 762232 91441.8 0 740965 86552.5 0 720862 81752.5 0 701901 77041.9 0 684058 72419.3 0 667312 67882.9 0 651641 63430 0 637026 59057.2 0 623447 54761 0 610885 50537.2 0 599323 46381.5 0 588745 42289.2 0 579137 38255.5 0 570484 34275.5 0 562774 30344 0 555997 26455.8 0 550141 22605.6 0 545199 18788.1 0 541163 14997.8 0 538027 11229.4 0 535787 7477.23 0 534438 3735.94 0 533980 0 0 1.00829e+06 142198 0 975642 136674 0 944329 131140 0 914343 125624 0 885670 120146 0 858292 114724 0 832189 109369 0 807341 104091 0 783725 98896.6 0 761317 93790.7 0 740095 88775.6 0 720035 83852.3 0 701114 79020.8 0 683310 74279.7 0 666600 69626.9 0 650963 65059.8 0 636380 60574.9 0 622830 56168.5 0 610295 51836.4 0 598759 47574.1 0 588204 43376.8 0 578617 39239.5 0 569983 35157.3 0 562291 31124.8 0 555528 27136.6 0 549685 23187.4 0 544753 19271.7 0 540726 15383.9 0 537597 11518.4 0 535362 7669.71 0 534016 3832.12 0 533559 0 0 1.0069e+06 145779 0 974301 140110 0 943042 134432 0 913110 128773 0 884490 123155 0 857165 117594 0 831114 112104 0 806316 106693 0 782749 101368 0 760388 96134.1 0 739211 90993.5 0 719194 85947.2 0 700314 80995 0 682548 76135.6 0 665875 71366.9 0 650272 66685.8 0 635721 62089.1 0 622201 57572.8 0 609694 53132.6 0 598183 48763.9 0 587652 44461.8 0 578086 40221.3 0 569471 36037 0 561795 31903.7 0 555047 27815.8 0 549217 23767.9 0 544297 19754.2 0 540279 15769 0 537156 11806.8 0 534926 7861.76 0 533584 3928.07 0 533127 0 0 1.00549e+06 149355 0 972944 143539 0 941739 137717 0 911861 131915 0 883295 126157 0 856023 120459 0 830024 114833 0 805277 109289 0 781759 103834 0 759445 98472.1 0 738313 93206.3 0 718339 88037.2 0 699500 82964.7 0 681773 77987.2 0 665137 73102.7 0 649569 68308 0 635050 63599.8 0 621560 58973.8 0 609080 54425.8 0 597595 49951 0 587087 45544.4 0 577543 41200.7 0 568947 36914.7 0 561288 32680.9 0 554556 28493.5 0 548739 24347 0 543829 20235.5 0 539820 16153.3 0 536705 12094.6 0 534479 8053.36 0 533140 4023.81 0 532684 0 0 1.00406e+06 152924 0 971572 146962 0 940420 140995 0 910596 135051 0 882085 129153 0 854866 123316 0 828920 117555 0 804223 111879 0 780754 106294 0 758488 100805 0 737402 95413.8 0 717471 90122.2 0 698673 84929.6 0 680986 79834.4 0 664386 74834.4 0 648853 69926.4 0 634366 65106.8 0 620906 60371.5 0 608455 55715.9 0 596995 51135.3 0 586511 46624.4 0 576988 42177.9 0 568412 37790.4 0 560770 33456.2 0 554052 29169.6 0 548249 24924.7 0 543350 20715.8 0 539350 16536.7 0 536242 12381.7 0 534021 8244.53 0 532685 4119.32 0 532231 0 0 1.00262e+06 156486 0 970183 150377 0 939085 144266 0 909316 138180 0 880859 132142 0 853694 126168 0 827800 120272 0 803155 114463 0 779735 108748 0 757517 103132 0 736476 97616 0 716590 92202.3 0 697833 86889.8 0 680185 81677.2 0 663622 76561.9 0 648124 71540.8 0 633670 66610.2 0 620240 61765.8 0 607817 57003 0 596383 52316.7 0 585923 47701.8 0 576421 43152.8 0 567865 38664 0 560241 34229.7 0 553538 29844.1 0 547747 25501.2 0 542860 21194.9 0 538869 16919.2 0 535768 12668.1 0 533552 8435.25 0 532219 4214.62 0 531766 0 0 1.00116e+06 160042 0 968778 153787 0 937735 147531 0 908020 141303 0 879618 135124 0 852507 129013 0 826666 122982 0 802072 117041 0 778702 111196 0 756532 105453 0 735537 99813 0 715694 94277.3 0 696980 88845.3 0 679371 83515.5 0 662846 78285.3 0 647382 73151.4 0 632961 68110 0 619562 63156.8 0 607167 58286.9 0 595760 53495.3 0 585323 48776.6 0 575843 44125.3 0 567306 39535.5 0 559699 35001.4 0 553012 30517 0 547235 26076.2 0 542359 21672.9 0 538377 17300.8 0 535283 12953.8 0 533072 8625.52 0 531742 4309.69 0 531290 0 0 999690 163591 0 967357 157189 0 936368 150789 0 906709 144418 0 878361 138100 0 851305 131851 0 825517 125686 0 800975 119613 0 777655 113639 0 755533 107769 0 734584 102005 0 714786 96347.2 0 696113 90796 0 678544 85349.3 0 662056 80004.4 0 646628 74758 0 632240 69606.2 0 618872 64544.4 0 606505 59567.8 0 595124 54671.1 0 584712 49848.9 0 575254 45095.5 0 566736 40404.9 0 559147 35771.2 0 552475 31188.3 0 546711 26649.9 0 541846 22149.8 0 537873 17681.5 0 534787 13238.9 0 532581 8815.34 0 531254 4404.53 0 530803 0 0 998200 167133 0 965920 160585 0 934986 154040 0 905382 147527 0 877090 141069 0 850087 134683 0 824353 128383 0 799863 122179 0 776593 116076 0 754520 110079 0 733618 104191 0 713864 98412.1 0 695233 92741.9 0 677704 87178.6 0 661254 81719.3 0 645861 76360.7 0 631506 71098.7 0 618169 65928.6 0 605831 60845.5 0 594477 55844 0 584088 50918.5 0 574652 46063.3 0 566155 41272.2 0 558583 36539.2 0 551927 31858 0 546176 27222.2 0 541323 22625.5 0 537359 18061.3 0 534279 13523.2 0 532079 9004.71 0 530755 4499.15 0 530305 0 0 996692 170669 0 964467 163974 0 933588 157284 0 904040 150629 0 875803 144031 0 848855 137509 0 823174 131075 0 798737 124738 0 775518 118506 0 753493 112384 0 732638 106372 0 712928 100472 0 694340 94683 0 676851 89003.3 0 660439 83430 0 645082 77959.4 0 630760 72587.4 0 617454 67309.3 0 605145 62120 0 593817 57014 0 583453 51985.5 0 574039 47028.7 0 565562 42137.4 0 558008 37305.3 0 551368 32526 0 545630 27793.1 0 540788 23100 0 536834 18440.2 0 533761 13806.9 0 531566 9193.61 0 530245 4593.53 0 529796 0 0 995169 174198 0 962997 167356 0 932174 160521 0 902682 153724 0 874500 146987 0 847608 140328 0 821981 133759 0 797596 127292 0 774428 120931 0 752452 114682 0 731644 108547 0 711979 102527 0 693434 96619.2 0 675985 90823.5 0 659611 85136.3 0 644290 79554.1 0 630002 74072.4 0 616727 68686.6 0 604447 63391.4 0 593146 58181.1 0 582807 53049.9 0 573415 47991.8 0 564957 43000.4 0 557422 38069.5 0 550797 33192.4 0 545073 28362.6 0 540242 23573.4 0 536297 18818.1 0 533232 14089.9 0 531042 9382.06 0 529725 4687.69 0 529277 0 0 993628 177721 0 961511 170731 0 930744 163751 0 901308 156812 0 873183 149936 0 846345 143140 0 820773 136438 0 796441 129839 0 773323 123350 0 751397 116975 0 730636 110717 0 711016 104576 0 692514 98550.6 0 675106 92639 0 658771 86838.3 0 643486 81144.7 0 629231 75553.7 0 615988 70060.4 0 603737 64659.5 0 592463 59345.2 0 582148 54111.6 0 572779 48952.4 0 564341 43861.3 0 556824 38831.8 0 550215 33857.2 0 544505 28930.7 0 539686 24045.6 0 535750 19195.1 0 532692 14372.2 0 530508 9570.04 0 529193 4781.61 0 528746 0 0 992071 181236 0 960009 174099 0 929298 166975 0 899919 159893 0 871850 152878 0 845068 145945 0 819550 139109 0 795271 132380 0 772205 125763 0 750328 119263 0 729614 112882 0 710040 106620 0 691581 100477 0 674214 94450 0 657917 88536 0 642669 82731.3 0 628448 77031.2 0 615236 71430.8 0 603015 65924.4 0 591768 60506.4 0 581478 55170.6 0 572131 49910.6 0 563714 44720 0 556214 39592.2 0 549621 34520.2 0 543925 29497.4 0 539118 24516.7 0 535192 19571.2 0 532141 14653.8 0 529962 9757.55 0 528650 4875.3 0 528205 0 0 990498 184745 0 958491 177460 0 927836 170191 0 898514 162968 0 870501 155813 0 843776 148744 0 818312 141775 0 794086 134914 0 771072 128170 0 749245 121544 0 728579 115041 0 709051 108659 0 690635 102398 0 673309 96256.3 0 657051 90229.4 0 641839 84313.8 0 627653 78505 0 614473 72797.6 0 602281 67186.1 0 591061 61664.6 0 580796 56226.9 0 571472 50866.4 0 563075 45576.6 0 555594 40350.6 0 549017 35181.6 0 543335 30062.6 0 538539 24986.5 0 534622 19946.3 0 531579 14934.7 0 529405 9944.59 0 528097 4968.76 0 527652 0 0 988908 188247 0 956956 180814 0 926358 173400 0 897093 166035 0 869137 158741 0 842468 151536 0 817060 144433 0 792888 137443 0 769926 130570 0 748148 123820 0 727531 117194 0 708048 110693 0 689676 104315 0 672391 98057.9 0 656172 91918.3 0 640997 85892.2 0 626845 79974.8 0 613697 74160.9 0 601535 68444.6 0 590342 62819.9 0 580102 57280.5 0 570801 51819.7 0 562425 46430.9 0 554962 41107.1 0 548401 35841.3 0 542733 30626.4 0 537949 25455.2 0 534042 20320.4 0 531006 15214.9 0 528837 10131.2 0 527532 5061.98 0 527089 0 0 987301 191742 0 955405 184161 0 924864 176602 0 895656 169095 0 867758 161662 0 841146 154321 0 815793 147085 0 791675 139964 0 768765 132965 0 747038 126090 0 726468 119342 0 707032 112721 0 688704 106226 0 671461 99854.7 0 655281 93602.8 0 640142 87466.5 0 626025 81440.9 0 612909 75520.6 0 600777 69699.7 0 589612 63972.1 0 579397 58331.3 0 570119 52770.6 0 561763 47283.1 0 554319 41861.7 0 547774 36499.3 0 542120 31188.8 0 537347 25922.7 0 533450 20693.6 0 530422 15494.3 0 528259 10317.2 0 526957 5154.96 0 526514 0 0 985677 195229 0 953838 187501 0 923355 179797 0 894204 172148 0 866364 164576 0 839808 157099 0 814511 149731 0 790447 142480 0 767590 135353 0 745913 128354 0 725392 121484 0 706002 114745 0 687718 108133 0 670517 101647 0 654377 95282.9 0 639275 89036.6 0 625193 82903.1 0 612109 76876.7 0 600007 70951.6 0 588870 65121.3 0 578680 59379.4 0 569425 53718.9 0 561090 48133 0 553664 42614.3 0 547136 37155.6 0 541496 31749.7 0 536735 26388.9 0 532848 21065.9 0 529827 15773 0 527669 10502.8 0 526371 5247.7 0 525929 0 0 984037 198710 0 952254 190833 0 921829 182985 0 892737 175194 0 864954 167483 0 838455 159871 0 813214 152370 0 789205 144989 0 766400 137735 0 744775 130612 0 724303 123621 0 704959 116762 0 686719 110034 0 669560 103434 0 653460 96958.5 0 638396 90602.6 0 624348 84361.4 0 611297 78229.2 0 599225 72200.1 0 588115 66267.5 0 577952 60424.7 0 568720 54664.8 0 560406 48980.6 0 552999 43364.9 0 546487 37810.2 0 540861 32309.1 0 536112 26853.9 0 532234 21437.1 0 529221 16051 0 527069 10688 0 525773 5340.19 0 525333 0 0 982380 202183 0 950654 194158 0 920287 186165 0 891253 178232 0 863529 170383 0 837088 162635 0 811903 155002 0 787948 147492 0 765197 140111 0 743623 132864 0 723200 125752 0 703903 118775 0 685708 111931 0 668591 105217 0 652530 98629.6 0 637504 92164.3 0 623491 85815.7 0 610473 79578.1 0 598432 73445.3 0 587350 67410.6 0 577212 61467.2 0 568003 55608.1 0 559710 49826 0 552322 44113.5 0 545826 38463 0 540214 32867 0 535478 27317.7 0 531610 21807.4 0 528605 16328.3 0 526458 10872.6 0 525165 5432.45 0 524726 0 0 980706 205649 0 949038 197476 0 918729 189338 0 889754 181263 0 862089 173276 0 835705 165393 0 810577 157627 0 786678 149988 0 763980 142481 0 742457 135110 0 722083 127877 0 702833 120782 0 684683 113822 0 667609 106995 0 651588 100296 0 636599 93721.8 0 622622 87266.2 0 609637 80923.4 0 597626 74687.1 0 586572 68550.6 0 576460 62506.9 0 567275 56548.9 0 559003 50669.2 0 551633 44860.1 0 545154 39114.1 0 539557 33423.4 0 534833 27780.3 0 530975 22176.7 0 527977 16604.8 0 525835 11056.7 0 524547 5524.45 0 524109 0 0 979015 209108 0 947405 200787 0 917155 192503 0 888240 184287 0 860633 176161 0 834308 168143 0 809237 160245 0 785392 152477 0 762748 144844 0 741277 137350 0 720953 129997 0 701750 122783 0 683645 115708 0 666614 108768 0 650633 101958 0 635682 95275 0 621740 88712.6 0 608788 82264.9 0 596808 75925.5 0 585783 69687.5 0 575697 63543.8 0 566535 57487.2 0 558285 51510 0 550934 45604.7 0 544472 39763.5 0 538889 33978.4 0 534176 28241.6 0 530328 22545 0 527338 16880.6 0 525202 11240.4 0 523917 5616.21 0 523480 0 0 977307 212560 0 945755 204090 0 915565 195661 0 886709 187304 0 859162 179040 0 832895 170887 0 807881 162857 0 784093 154960 0 761502 147201 0 740083 139584 0 719809 132111 0 700654 124779 0 682594 117589 0 665606 110536 0 649666 103616 0 634753 96824 0 620847 90155.1 0 607928 83602.8 0 595979 77160.5 0 584982 70821.3 0 574922 64577.9 0 565784 58422.9 0 557555 52348.6 0 550223 46347.3 0 543778 40411 0 538209 34531.8 0 533509 28701.6 0 529671 22912.3 0 526689 17155.7 0 524559 11423.5 0 523276 5707.73 0 522841 0 0 975583 216004 0 944089 207386 0 913958 198812 0 885163 190313 0 857675 181911 0 831467 173623 0 806511 165462 0 782779 157436 0 760243 149552 0 738876 141812 0 718652 134219 0 699545 126770 0 681530 119464 0 664585 112299 0 648686 105268 0 633811 98368.7 0 619941 91593.6 0 607056 84937 0 595137 78392.1 0 584169 71951.9 0 574135 65609.1 0 565021 59356 0 556814 53184.9 0 549501 47087.8 0 543073 41056.8 0 537519 35083.8 0 532831 29160.4 0 529003 23278.6 0 526029 17429.9 0 523904 11606.2 0 522625 5798.99 0 522191 0 0 973841 219440 0 942406 210674 0 912336 201955 0 883601 193315 0 856173 184775 0 830025 176352 0 805127 168059 0 781451 159905 0 758969 151896 0 737654 144034 0 717481 136321 0 698422 128755 0 680453 121335 0 663551 114057 0 647693 106917 0 632857 99909 0 619023 93028 0 606171 86267.4 0 594284 79620.3 0 583345 73079.4 0 573337 66637.4 0 564247 60286.5 0 556061 54018.8 0 548768 47826.3 0 542356 41700.8 0 536817 35634.2 0 532142 29618 0 528324 23643.9 0 525358 17703.5 0 523238 11788.3 0 521963 5890 0 521529 0 0 972083 222869 0 940707 213954 0 910698 205090 0 882023 196309 0 854656 187631 0 828567 179074 0 803727 170650 0 780108 162368 0 757681 154234 0 736419 146250 0 716296 138417 0 697286 130734 0 679363 123200 0 662505 115810 0 646688 108560 0 631891 101445 0 618093 94458.4 0 605275 87594.1 0 593419 80844.9 0 582509 74203.7 0 572528 67662.8 0 563462 61214.4 0 555298 54850.4 0 548024 48562.7 0 541629 42343 0 536105 36183 0 531442 30074.2 0 527634 24008.1 0 524676 17976.2 0 522562 11970 0 521290 5980.76 0 520858 0 0 </DataArray> 
</PointData> 
<Points> 
<DataArray type="Float32" NumberOfComponents="3"> 