<?xml version="1.0"?> 
<VTKFile type="StructuredGrid" version="0.1"> 
<StructuredGrid WholeExtent="0 31 0 31 0 0"> 
<Piece Extent="0 31 0 31 0 0"> 
<PointData>
<DataArray type="Float32" Name="|E|" format="ascii" NumberOfComponents="3"> 
-1.26946e+06 0 0 -1.26962e+06 31048.7 0 -1.2701e+06 62110.5 0 -1.27089e+06 93198.6 0 -1.272e+06 124326 0 -1.27342e+06 155506 0 -1.27515e+06 186751 0 -1.27719e+06 218076 0 -1.27955e+06 249491 0 -1.28222e+06 281012 0 -1.28519e+06 312651 0 -1.28848e+06 344420 0 -1.29207e+06 376333 0 -1.29596e+06 408402 0 -1.30016e+06 440640 0 -1.30466e+06 473060 0 -1.30946e+06 505674 0 -1.31457e+06 538494 0 -1.31997e+06 571531 0 -1.32567e+06 604798 0 -1.33168e+06 638305 0 -1.33798e+06 672064 0 -1.34459e+06 706083 0 -1.3515e+06 740373 0 -1.35872e+06 774942 0 -1.36626e+06 809797 0 -1.37411e+06 844945 0 -1.3823e+06 880391 0 -1.39083e+06 916137 0 -1.39971e+06 952186 0 -1.40896e+06 988534 0 -1.41861e+06 1.02518e+06 0 -1.25651e+06 0 0 -1.25666e+06 31092.6 0 -1.25711e+06 62198.5 0 -1.25786e+06 93330.6 0 -1.25893e+06 124502 0 -1.2603e+06 155725 0 -1.26198e+06 187014 0 -1.26396e+06 218380 0 -1.26624e+06 249837 0 -1.26883e+06 281398 0 -1.27172e+06 313076 0 -1.27492e+06 344883 0 -1.27841e+06 376833 0 -1.28219e+06 408937 0 -1.28628e+06 441208 0 -1.29066e+06 473660 0 -1.29534e+06 506304 0 -1.3003e+06 539152 0 -1.30557e+06 572216 0 -1.31112e+06 605508 0 -1.31697e+06 639040 0 -1.32312e+06 672821 0 -1.32955e+06 706862 0 -1.33629e+06 741174 0 -1.34334e+06 775765 0 -1.35069e+06 810643 0 -1.35835e+06 845815 0 -1.36634e+06 881288 0 -1.37467e+06 917066 0 -1.38335e+06 953151 0 -1.39239e+06 989545 0 -1.40183e+06 1.02624e+06 0 -1.24352e+06 0 0 -1.24364e+06 31133.6 0 -1.24406e+06 62280.5 0 -1.24478e+06 93453.6 0 -1.24581e+06 124666 0 -1.24713e+06 155929 0 -1.24875e+06 187258 0 -1.25067e+06 218663 0 -1.25289e+06 250159 0 -1.2554e+06 281757 0 -1.25821e+06 313471 0 -1.2613e+06 345313 0 -1.2647e+06 377296 0 -1.26838e+06 409432 0 -1.27235e+06 441735 0 -1.27661e+06 474215 0 -1.28116e+06 506886 0 -1.286e+06 539760 0 -1.29112e+06 572848 0 -1.29653e+06 606162 0 -1.30222e+06 639715 0 -1.30821e+06 673516 0 -1.31448e+06 707577 0 -1.32105e+06 741908 0 -1.32791e+06 776518 0 -1.33507e+06 811417 0 -1.34255e+06 846611 0 -1.35034e+06 882109 0 -1.35847e+06 917916 0 -1.36694e+06 954036 0 -1.37578e+06 990472 0 -1.38501e+06 1.02722e+06 0 -1.23047e+06 0 0 -1.23057e+06 31171.5 0 -1.23096e+06 62356.6 0 -1.23165e+06 93567.7 0 -1.23263e+06 124818 0 -1.23391e+06 156119 0 -1.23547e+06 187484 0 -1.23733e+06 218926 0 -1.23948e+06 250457 0 -1.24191e+06 282090 0 -1.24464e+06 313837 0 -1.24765e+06 345711 0 -1.25094e+06 377724 0 -1.25452e+06 409890 0 -1.25838e+06 442219 0 -1.26252e+06 474725 0 -1.26695e+06 507421 0 -1.27165e+06 540317 0 -1.27663e+06 573426 0 -1.28189e+06 606761 0 -1.28744e+06 640332 0 -1.29326e+06 674150 0 -1.29937e+06 708228 0 -1.30576e+06 742575 0 -1.31244e+06 777202 0 -1.31942e+06 812118 0 -1.32671e+06 847332 0 -1.3343e+06 882852 0 -1.34223e+06 918686 0 -1.35049e+06 954838 0 -1.35912e+06 991314 0 -1.36812e+06 1.02811e+06 0 -1.21736e+06 0 0 -1.21744e+06 31206.6 0 -1.21781e+06 62426.8 0 -1.21847e+06 93673.1 0 -1.21941e+06 124958 0 -1.22064e+06 156294 0 -1.22215e+06 187693 0 -1.22394e+06 219168 0 -1.22602e+06 250731 0 -1.22838e+06 282396 0 -1.23102e+06 314173 0 -1.23394e+06 346076 0 -1.23714e+06 378117 0 -1.24061e+06 410308 0 -1.24436e+06 442663 0 -1.24839e+06 475192 0 -1.25269e+06 507909 0 -1.25726e+06 540825 0 -1.2621e+06 573952 0 -1.26722e+06 607304 0 -1.27261e+06 640890 0 -1.27827e+06 674723 0 -1.28422e+06 708815 0 -1.29044e+06 743175 0 -1.29694e+06 777816 0 -1.30374e+06 812747 0 -1.31083e+06 847978 0 -1.31823e+06 883517 0 -1.32595e+06 919374 0 -1.334e+06 955556 0 -1.34241e+06 992068 0 -1.35119e+06 1.02892e+06 0 -1.20421e+06 0 0 -1.20427e+06 31238.8 0 -1.20461e+06 62491.3 0 -1.20523e+06 93769.9 0 -1.20613e+06 125087 0 -1.20731e+06 156454 0 -1.20877e+06 187884 0 -1.2105e+06 219390 0 -1.21251e+06 250983 0 -1.2148e+06 282675 0 -1.21736e+06 314480 0 -1.22019e+06 346409 0 -1.22329e+06 378475 0 -1.22666e+06 410689 0 -1.2303e+06 443065 0 -1.23421e+06 475615 0 -1.23838e+06 508350 0 -1.24282e+06 541283 0 -1.24753e+06 574426 0 -1.2525e+06 607791 0 -1.25774e+06 641390 0 -1.26325e+06 675235 0 -1.26903e+06 709338 0 -1.27508e+06 743709 0 -1.2814e+06 778360 0 -1.28801e+06 813303 0 -1.29491e+06 848547 0 -1.30211e+06 884103 0 -1.30962e+06 919981 0 -1.31746e+06 956188 0 -1.32565e+06 992734 0 -1.33421e+06 1.02962e+06 0 -1.19101e+06 0 0 -1.19105e+06 31268.1 0 -1.19136e+06 62550.1 0 -1.19195e+06 93858 0 -1.19281e+06 125204 0 -1.19394e+06 156600 0 -1.19534e+06 188058 0 -1.19702e+06 219591 0 -1.19896e+06 251211 0 -1.20117e+06 282929 0 -1.20364e+06 314758 0 -1.20639e+06 346710 0 -1.20939e+06 378798 0 -1.21266e+06 411033 0 -1.21619e+06 443428 0 -1.21999e+06 475994 0 -1.22404e+06 508745 0 -1.22835e+06 541692 0 -1.23292e+06 574847 0 -1.23775e+06 608224 0 -1.24284e+06 641832 0 -1.24819e+06 675686 0 -1.2538e+06 709796 0 -1.25968e+06 744175 0 -1.26583e+06 778835 0 -1.27225e+06 813786 0 -1.27896e+06 849041 0 -1.28596e+06 884610 0 -1.29326e+06 920504 0 -1.30089e+06 956734 0 -1.30885e+06 993308 0 -1.31718e+06 1.03024e+06 0 -1.17775e+06 0 0 -1.17777e+06 31294.7 0 -1.17806e+06 62603.2 0 -1.17861e+06 93937.6 0 -1.17943e+06 125310 0 -1.18052e+06 156732 0 -1.18187e+06 188216 0 -1.18348e+06 219773 0 -1.18535e+06 251416 0 -1.18749e+06 283157 0 -1.18989e+06 315008 0 -1.19254e+06 346980 0 -1.19545e+06 379087 0 -1.19862e+06 411339 0 -1.20205e+06 443750 0 -1.20572e+06 476331 0 -1.20966e+06 509094 0 -1.21384e+06 542052 0 -1.21827e+06 575217 0 -1.22296e+06 608601 0 -1.2279e+06 642217 0 -1.23309e+06 676076 0 -1.23854e+06 710192 0 -1.24425e+06 744575 0 -1.25022e+06 779239 0 -1.25646e+06 814196 0 -1.26297e+06 849457 0 -1.26977e+06 885036 0 -1.27686e+06 920943 0 -1.28427e+06 957191 0 -1.29201e+06 993791 0 -1.30011e+06 1.03075e+06 0 -1.16445e+06 0 0 -1.16445e+06 31318.4 0 -1.16471e+06 62650.7 0 -1.16523e+06 94008.9 0 -1.16601e+06 125405 0 -1.16705e+06 156850 0 -1.16835e+06 188356 0 -1.1699e+06 219935 0 -1.17171e+06 251599 0 -1.17377e+06 283360 0 -1.17608e+06 315229 0 -1.17865e+06 347219 0 -1.18147e+06 379341 0 -1.18454e+06 411608 0 -1.18786e+06 444032 0 -1.19142e+06 476624 0 -1.19523e+06 509398 0 -1.19929e+06 542364 0 -1.20359e+06 575535 0 -1.20813e+06 608925 0 -1.21292e+06 642544 0 -1.21796e+06 676406 0 -1.22325e+06 710523 0 -1.22878e+06 744908 0 -1.23458e+06 779573 0 -1.24063e+06 814532 0 -1.24695e+06 849797 0 -1.25355e+06 885381 0 -1.26043e+06 921297 0 -1.26762e+06 957559 0 -1.27513e+06 994180 0 -1.28299e+06 1.03117e+06 0 -1.1511e+06 0 0 -1.15108e+06 31339.4 0 -1.15132e+06 62692.7 0 -1.1518e+06 94071.8 0 -1.15254e+06 125488 0 -1.15353e+06 156953 0 -1.15478e+06 188479 0 -1.15627e+06 220077 0 -1.15801e+06 251759 0 -1.16e+06 283537 0 -1.16224e+06 315422 0 -1.16472e+06 347427 0 -1.16745e+06 379562 0 -1.17042e+06 411841 0 -1.17363e+06 444275 0 -1.17708e+06 476876 0 -1.18077e+06 509656 0 -1.1847e+06 542627 0 -1.18887e+06 575803 0 -1.19327e+06 609194 0 -1.19791e+06 642814 0 -1.2028e+06 676675 0 -1.20792e+06 710791 0 -1.21329e+06 745174 0 -1.2189e+06 779837 0 -1.22477e+06 814794 0 -1.2309e+06 850059 0 -1.23729e+06 885644 0 -1.24397e+06 921566 0 -1.25093e+06 957837 0 -1.25822e+06 994473 0 -1.26583e+06 1.03149e+06 0 -1.13771e+06 0 0 -1.13767e+06 31357.6 0 -1.13788e+06 62729.2 0 -1.13833e+06 94126.4 0 -1.13903e+06 125561 0 -1.13997e+06 157043 0 -1.14116e+06 188586 0 -1.1426e+06 220200 0 -1.14427e+06 251898 0 -1.14619e+06 283689 0 -1.14835e+06 315588 0 -1.15075e+06 347604 0 -1.15338e+06 379750 0 -1.15625e+06 412038 0 -1.15936e+06 444479 0 -1.1627e+06 477085 0 -1.16627e+06 509869 0 -1.17007e+06 542843 0 -1.17411e+06 576019 0 -1.17837e+06 609409 0 -1.18287e+06 643027 0 -1.1876e+06 676885 0 -1.19256e+06 710996 0 -1.19776e+06 745373 0 -1.2032e+06 780031 0 -1.20888e+06 814983 0 -1.21481e+06 850243 0 -1.221e+06 885826 0 -1.22747e+06 921748 0 -1.23421e+06 958024 0 -1.24126e+06 994670 0 -1.24863e+06 1.0317e+06 0 -1.12427e+06 0 0 -1.12421e+06 31373.1 0 -1.12439e+06 62760.3 0 -1.12481e+06 94173 0 -1.12547e+06 125622 0 -1.12637e+06 157120 0 -1.12751e+06 188677 0 -1.12888e+06 220304 0 -1.13049e+06 252014 0 -1.13234e+06 283817 0 -1.13442e+06 315726 0 -1.13673e+06 347751 0 -1.13927e+06 379905 0 -1.14205e+06 412198 0 -1.14505e+06 444644 0 -1.14828e+06 477253 0 -1.15173e+06 510038 0 -1.15541e+06 543011 0 -1.15932e+06 576185 0 -1.16344e+06 609571 0 -1.16779e+06 643183 0 -1.17237e+06 677035 0 -1.17717e+06 711138 0 -1.1822e+06 745506 0 -1.18746e+06 780155 0 -1.19296e+06 815098 0 -1.1987e+06 850349 0 -1.20469e+06 885926 0 -1.21094e+06 921843 0 -1.21746e+06 958119 0 -1.22428e+06 994769 0 -1.2314e+06 1.03181e+06 0 -1.11079e+06 0 0 -1.1107e+06 31386 0 -1.11086e+06 62786.1 0 -1.11124e+06 94211.5 0 -1.11186e+06 125673 0 -1.11272e+06 157183 0 -1.1138e+06 188751 0 -1.11512e+06 220389 0 -1.11667e+06 252109 0 -1.11844e+06 283921 0 -1.12045e+06 315837 0 -1.12267e+06 347868 0 -1.12513e+06 380026 0 -1.1278e+06 412323 0 -1.1307e+06 444770 0 -1.13382e+06 477379 0 -1.13716e+06 510163 0 -1.14072e+06 543132 0 -1.14449e+06 576301 0 -1.14848e+06 609680 0 -1.15269e+06 643284 0 -1.15711e+06 677125 0 -1.16175e+06 711216 0 -1.16661e+06 745573 0 -1.1717e+06 780209 0 -1.17701e+06 815138 0 -1.18256e+06 850378 0 -1.18834e+06 885943 0 -1.19438e+06 921851 0 -1.20068e+06 958121 0 -1.20726e+06 994770 0 -1.21413e+06 1.03182e+06 0 -1.09726e+06 0 0 -1.09716e+06 31396.2 0 -1.09728e+06 62806.5 0 -1.09764e+06 94242 0 -1.09822e+06 125714 0 -1.09903e+06 157232 0 -1.10006e+06 188809 0 -1.10132e+06 220455 0 -1.1028e+06 252182 0 -1.10451e+06 284000 0 -1.10643e+06 315921 0 -1.10858e+06 347955 0 -1.11094e+06 380116 0 -1.11352e+06 412413 0 -1.11632e+06 444859 0 -1.11933e+06 477465 0 -1.12255e+06 510244 0 -1.12599e+06 543207 0 -1.12963e+06 576367 0 -1.13348e+06 609736 0 -1.13755e+06 643328 0 -1.14182e+06 677156 0 -1.1463e+06 711233 0 -1.151e+06 745574 0 -1.15591e+06 780193 0 -1.16104e+06 815105 0 -1.16639e+06 850328 0 -1.17198e+06 885878 0 -1.1778e+06 921772 0 -1.18387e+06 958030 0 -1.19021e+06 994672 0 -1.19684e+06 1.03172e+06 0 -1.08369e+06 0 0 -1.08357e+06 31403.8 0 -1.08366e+06 62821.7 0 -1.08399e+06 94264.6 0 -1.08453e+06 125743 0 -1.08529e+06 157269 0 -1.08627e+06 188852 0 -1.08748e+06 220503 0 -1.08889e+06 252234 0 -1.09053e+06 284055 0 -1.09238e+06 315978 0 -1.09445e+06 348013 0 -1.09672e+06 380173 0 -1.09921e+06 412468 0 -1.1019e+06 444910 0 -1.1048e+06 477510 0 -1.10791e+06 510281 0 -1.11122e+06 543235 0 -1.11474e+06 576383 0 -1.11846e+06 609740 0 -1.12238e+06 643317 0 -1.1265e+06 677128 0 -1.13083e+06 711187 0 -1.13536e+06 745508 0 -1.1401e+06 780107 0 -1.14504e+06 814999 0 -1.1502e+06 850200 0 -1.15558e+06 885729 0 -1.16119e+06 921604 0 -1.16704e+06 957845 0 -1.17314e+06 994474 0 -1.17952e+06 1.03151e+06 0 -1.07008e+06 0 0 -1.06993e+06 31408.8 0 -1.07e+06 62831.7 0 -1.07029e+06 94279.5 0 -1.0708e+06 125763 0 -1.07151e+06 157292 0 -1.07245e+06 188878 0 -1.07359e+06 220532 0 -1.07495e+06 252265 0 -1.07652e+06 284087 0 -1.07829e+06 316009 0 -1.08027e+06 348042 0 -1.08246e+06 380198 0 -1.08485e+06 412488 0 -1.08745e+06 444923 0 -1.09024e+06 477515 0 -1.09324e+06 510276 0 -1.09643e+06 543217 0 -1.09982e+06 576351 0 -1.10341e+06 609691 0 -1.10719e+06 643250 0 -1.11116e+06 677042 0 -1.11533e+06 711079 0 -1.11969e+06 745377 0 -1.12426e+06 779952 0 -1.12902e+06 814819 0 -1.13399e+06 849995 0 -1.13917e+06 885498 0 -1.14457e+06 921349 0 -1.15019e+06 957567 0 -1.15605e+06 994176 0 -1.16217e+06 1.0312e+06 0 -1.05642e+06 0 0 -1.05626e+06 31411.2 0 -1.0563e+06 62836.6 0 -1.05656e+06 94286.6 0 -1.05702e+06 125772 0 -1.0577e+06 157303 0 -1.05858e+06 188890 0 -1.05967e+06 220544 0 -1.06096e+06 252275 0 -1.06246e+06 284095 0 -1.06416e+06 316014 0 -1.06606e+06 348043 0 -1.06817e+06 380192 0 -1.07047e+06 412474 0 -1.07296e+06 444900 0 -1.07565e+06 477480 0 -1.07853e+06 510227 0 -1.08161e+06 543154 0 -1.08487e+06 576271 0 -1.08832e+06 609592 0 -1.09196e+06 643129 0 -1.09579e+06 676897 0 -1.0998e+06 710910 0 -1.10401e+06 745182 0 -1.1084e+06 779728 0 -1.11298e+06 814566 0 -1.11776e+06 849712 0 -1.12273e+06 885185 0 -1.12792e+06 921005 0 -1.13332e+06 957195 0 -1.13894e+06 993777 0 -1.14481e+06 1.03078e+06 0 -1.04273e+06 0 0 -1.04254e+06 31411.2 0 -1.04256e+06 62836.4 0 -1.04279e+06 94286.2 0 -1.04321e+06 125771 0 -1.04384e+06 157300 0 -1.04468e+06 188886 0 -1.04571e+06 220537 0 -1.04694e+06 252265 0 -1.04837e+06 284080 0 -1.05e+06 315993 0 -1.05182e+06 348014 0 -1.05384e+06 380155 0 -1.05604e+06 412427 0 -1.05844e+06 444840 0 -1.06103e+06 477406 0 -1.0638e+06 510137 0 -1.06675e+06 543045 0 -1.06989e+06 576142 0 -1.07321e+06 609441 0 -1.07671e+06 642954 0 -1.0804e+06 676695 0 -1.08426e+06 710679 0 -1.0883e+06 744921 0 -1.09252e+06 779435 0 -1.09692e+06 814240 0 -1.10151e+06 849351 0 -1.10628e+06 884789 0 -1.11125e+06 920574 0 -1.11643e+06 956729 0 -1.12181e+06 993277 0 -1.12742e+06 1.03025e+06 0 -1.029e+06 0 0 -1.02879e+06 31408.6 0 -1.02878e+06 62831.3 0 -1.02897e+06 94278.2 0 -1.02936e+06 125760 0 -1.02995e+06 157286 0 -1.03073e+06 188867 0 -1.03171e+06 220513 0 -1.03288e+06 252235 0 -1.03424e+06 284042 0 -1.0358e+06 315947 0 -1.03754e+06 347958 0 -1.03947e+06 380087 0 -1.04159e+06 412346 0 -1.04389e+06 444744 0 -1.04637e+06 477293 0 -1.04903e+06 510005 0 -1.05187e+06 542892 0 -1.05489e+06 575966 0 -1.05808e+06 609239 0 -1.06144e+06 642725 0 -1.06498e+06 676436 0 -1.06869e+06 710389 0 -1.07257e+06 744596 0 -1.07662e+06 779075 0 -1.08084e+06 813841 0 -1.08524e+06 848914 0 -1.08982e+06 884312 0 -1.09458e+06 920056 0 -1.09953e+06 956169 0 -1.10467e+06 992677 0 -1.11003e+06 1.02961e+06 0 -1.01523e+06 0 0 -1.015e+06 31403.6 0 -1.01496e+06 62821.2 0 -1.01512e+06 94262.9 0 -1.01547e+06 125739 0 -1.01602e+06 157259 0 -1.01675e+06 188833 0 -1.01767e+06 220471 0 -1.01878e+06 252184 0 -1.02008e+06 283982 0 -1.02156e+06 315875 0 -1.02323e+06 347874 0 -1.02508e+06 379989 0 -1.0271e+06 412232 0 -1.02931e+06 444612 0 -1.03169e+06 477142 0 -1.03424e+06 509832 0 -1.03696e+06 542695 0 -1.03986e+06 575743 0 -1.04292e+06 608987 0 -1.04615e+06 642442 0 -1.04954e+06 676121 0 -1.0531e+06 710038 0 -1.05682e+06 744207 0 -1.0607e+06 778646 0 -1.06474e+06 813371 0 -1.06896e+06 848400 0 -1.07334e+06 883752 0 -1.07789e+06 919450 0 -1.08261e+06 955516 0 -1.08752e+06 991977 0 -1.09263e+06 1.02886e+06 0 -1.00142e+06 0 0 -1.00117e+06 31396.1 0 -1.00111e+06 62806.2 0 -1.00124e+06 94240.2 0 -1.00155e+06 125708 0 -1.00205e+06 157219 0 -1.00273e+06 188784 0 -1.0036e+06 220412 0 -1.00465e+06 252114 0 -1.00588e+06 283900 0 -1.00729e+06 315779 0 -1.00888e+06 347763 0 -1.01065e+06 379861 0 -1.01258e+06 412085 0 -1.01469e+06 444445 0 -1.01697e+06 476952 0 -1.01942e+06 509618 0 -1.02203e+06 542454 0 -1.0248e+06 575473 0 -1.02773e+06 608686 0 -1.03083e+06 642107 0 -1.03408e+06 675749 0 -1.03749e+06 709627 0 -1.04105e+06 743756 0 -1.04476e+06 778151 0 -1.04864e+06 812829 0 -1.05266e+06 847810 0 -1.05684e+06 883112 0 -1.06119e+06 918758 0 -1.06569e+06 954771 0 -1.07037e+06 991177 0 -1.07522e+06 1.02801e+06 0 -987575 0 0 -987305 31386.3 0 -987217 62786.5 0 -987311 94210.3 0 -987587 125667 0 -988044 157168 0 -988680 188721 0 -989495 220336 0 -990486 252024 0 -991652 283795 0 -992992 315658 0 -994504 347624 0 -996186 379703 0 -998035 411906 0 -1.00005e+06 444243 0 -1.00223e+06 476725 0 -1.00457e+06 509364 0 -1.00707e+06 542170 0 -1.00972e+06 575157 0 -1.01253e+06 608336 0 -1.01549e+06 641720 0 -1.0186e+06 675322 0 -1.02186e+06 709158 0 -1.02526e+06 743241 0 -1.02882e+06 777589 0 -1.03251e+06 812217 0 -1.03636e+06 847145 0 -1.04034e+06 882392 0 -1.04448e+06 917980 0 -1.04876e+06 953934 0 -1.0532e+06 990279 0 -1.05781e+06 1.02704e+06 0 -973695 0 0 -973403 31374 0 -973289 62761.9 0 -973351 94173.2 0 -973590 125617 0 -974004 157104 0 -974593 188643 0 -975354 220243 0 -976286 251915 0 -977388 283669 0 -978658 315513 0 -980095 347459 0 -981695 379516 0 -983457 411695 0 -985379 444006 0 -987459 476461 0 -989693 509069 0 -992080 541844 0 -994616 574795 0 -997300 607937 0 -1.00013e+06 641281 0 -1.0031e+06 674841 0 -1.00621e+06 708630 0 -1.00947e+06 742665 0 -1.01286e+06 776961 0 -1.01638e+06 811535 0 -1.02004e+06 846405 0 -1.02384e+06 881592 0 -1.02777e+06 917117 0 -1.03183e+06 953005 0 -1.03604e+06 989282 0 -1.0404e+06 1.02598e+06 0 -959779 0 0 -959466 31359.5 0 -959325 62732.7 0 -959356 94129.1 0 -959558 125558 0 -959930 157029 0 -960471 188551 0 -961179 220134 0 -962054 251787 0 -963092 283521 0 -964293 315344 0 -965655 347267 0 -967175 379300 0 -968851 411453 0 -970682 443736 0 -972663 476160 0 -974794 508736 0 -977071 541475 0 -979491 574389 0 -982052 607490 0 -984752 640791 0 -987587 674305 0 -990556 708045 0 -993655 742028 0 -996883 776268 0 -1.00024e+06 810783 0 -1.00372e+06 845592 0 -1.00732e+06 880714 0 -1.01105e+06 916170 0 -1.0149e+06 951987 0 -1.01888e+06 988189 0 -1.02299e+06 1.02481e+06 0 -945829 0 0 -945495 31342.6 0 -945328 62698.9 0 -945328 94078 0 -945493 125489 0 -945823 156942 0 -946317 188445 0 -946973 220008 0 -947789 251641 0 -948765 283352 0 -949898 315152 0 -951186 347050 0 -952626 379056 0 -954218 411180 0 -955957 443432 0 -957843 475823 0 -959871 508364 0 -962039 541065 0 -964345 573939 0 -966785 606996 0 -969357 640251 0 -972057 673715 0 -974883 707404 0 -977832 741330 0 -980901 775511 0 -984088 809964 0 -987390 844706 0 -990807 879758 0 -994336 915141 0 -997976 950879 0 -1.00173e+06 987000 0 -1.00559e+06 1.02353e+06 0 -931846 0 0 -931491 31323.5 0 -931298 62660.5 0 -931266 94020.1 0 -931395 125411 0 -931683 156844 0 -932130 188325 0 -932735 219866 0 -933494 251476 0 -934407 283162 0 -935473 314936 0 -936688 346807 0 -938050 378783 0 -939558 410876 0 -941208 443095 0 -942998 475450 0 -944925 507953 0 -946987 540614 0 -949179 573444 0 -951500 606456 0 -953945 639661 0 -956512 673073 0 -959197 706706 0 -961998 740573 0 -964910 774691 0 -967932 809077 0 -971059 843748 0 -974290 878725 0 -977622 914029 0 -981053 949684 0 -984582 985716 0 -988207 1.02216e+06 0 -917830 0 0 -917454 31302.1 0 -917234 62617.6 0 -917172 93955.5 0 -917264 125325 0 -917512 156734 0 -917913 188192 0 -918466 219709 0 -919169 251292 0 -920020 282952 0 -921019 314698 0 -922162 346538 0 -923447 378483 0 -924872 410542 0 -926434 442725 0 -928130 475043 0 -929958 507505 0 -931914 540122 0 -933994 572907 0 -936197 605870 0 -938518 639023 0 -940954 672379 0 -943501 705953 0 -946155 739758 0 -948913 773809 0 -951772 808124 0 -954727 842720 0 -957775 877618 0 -960913 912837 0 -964138 948403 0 -967446 984341 0 -970836 1.02068e+06 0 -903783 0 0 -903385 31278.5 0 -903140 62570.3 0 -903046 93884.2 0 -903103 125229 0 -903310 156613 0 -903665 188046 0 -904167 219535 0 -904814 251091 0 -905605 282722 0 -906537 314436 0 -907609 346245 0 -908818 378155 0 -910161 410178 0 -911636 442323 0 -913240 474600 0 -914969 507019 0 -916821 539591 0 -918792 572327 0 -920879 605238 0 -923077 638336 0 -925383 671634 0 -927794 705146 0 -930304 738884 0 -932911 772866 0 -935609 807106 0 -938394 841623 0 -941263 876436 0 -944210 911566 0 -947232 947037 0 -950325 982874 0 -953484 1.01911e+06 0 -889704 0 0 -889285 31252.7 0 -889014 62518.6 0 -888890 93806.3 0 -888911 125124 0 -889077 156481 0 -889387 187886 0 -889839 219346 0 -890431 250872 0 -891162 282471 0 -892029 314153 0 -893031 345927 0 -894164 377801 0 -895427 409786 0 -896816 441890 0 -898328 474124 0 -899961 506497 0 -901710 539021 0 -903573 571705 0 -905545 604562 0 -907623 637602 0 -909802 670839 0 -912079 704285 0 -914448 737954 0 -916905 771862 0 -919445 806024 0 -922064 840458 0 -924756 875182 0 -927516 910218 0 -930339 945589 0 -933220 981319 0 -936152 1.01744e+06 0 -875596 0 0 -875156 31224.8 0 -874858 62462.6 0 -874703 93722 0 -874689 125011 0 -874815 156339 0 -875080 187713 0 -875482 219142 0 -876020 250635 0 -876691 282201 0 -877494 313848 0 -878427 345584 0 -879486 377420 0 -880669 409364 0 -881974 441425 0 -883396 473614 0 -884934 505940 0 -886582 538412 0 -888338 571043 0 -890198 603842 0 -892157 636822 0 -894211 669994 0 -896356 703372 0 -898585 736969 0 -900896 770799 0 -903281 804879 0 -905737 839226 0 -908256 873857 0 -910832 908794 0 -913461 944059 0 -916133 979677 0 -918844 1.01568e+06 0 -861458 0 0 -860997 31194.8 0 -860673 62402.4 0 -860488 93631.3 0 -860439 124890 0 -860525 156185 0 -860745 187527 0 -861098 218923 0 -861582 250382 0 -862195 281911 0 -862935 313521 0 -863799 345218 0 -864784 377013 0 -865889 408914 0 -867111 440930 0 -868445 473071 0 -869888 505346 0 -871438 537766 0 -873089 570340 0 -874838 603080 0 -876680 635996 0 -878611 669101 0 -880626 702408 0 -882720 735929 0 -884886 769679 0 -887120 803673 0 -889415 837928 0 -891764 872463 0 -894161 907296 0 -896599 942451 0 -899069 977950 0 -901562 1.01382e+06 0 -847291 0 0 -846809 31162.6 0 -846460 62338.1 0 -846244 93534.4 0 -846160 124760 0 -846207 156022 0 -846384 187329 0 -846688 218689 0 -847119 250111 0 -847673 281603 0 -848350 313173 0 -849147 344829 0 -850060 376581 0 -851088 408437 0 -852227 440405 0 -853474 472496 0 -854826 504718 0 -856277 537082 0 -857825 569598 0 -859466 602275 0 -861194 635125 0 -863004 668161 0 -864892 701393 0 -866851 734835 0 -868877 768502 0 -870962 802407 0 -873100 836567 0 -875283 871001 0 -877504 905726 0 -879756 940765 0 -882028 976141 0 -884310 1.01188e+06 0 </DataArray> 
</PointData> 
<Points> 
<DataArray type="Float32" NumberOfComponents="3"> 