<?xml version="1.0"?> 
<VTKFile type="StructuredGrid" version="0.1"> 
<StructuredGrid WholeExtent="0 31 0 31 0 0"> 
<Piece Extent="0 31 0 31 0 0"> 
<PointData>
<DataArray type="Float32" Name="|E|" format="ascii" NumberOfComponents="3"> 
1.02713e+06 57366.3 0 993914 55183.8 0 962000 52984.8 0 931392 50783.7 0 902084 48590.7 0 874069 46414.1 0 847334 44260.1 0 821863 42133.5 0 797638 40037.8 0 774640 37975.5 0 752848 35948.2 0 732242 33956.7 0 712799 32001.4 0 694498 30081.9 0 677318 28197.7 0 661239 26347.8 0 646240 24531 0 632303 22745.9 0 619408 20990.9 0 607539 19264.1 0 596680 17563.8 0 586815 15887.9 0 577931 14234.5 0 570015 12601.3 0 563056 10986.2 0 557043 9387.04 0 551968 7801.57 0 547824 6227.54 0 544604 4662.65 0 542303 3104.63 0 540919 1551.18 0 540448 0 0 1.02692e+06 59174.7 0 993708 56922.7 0 961801 54654 0 931198 52383.2 0 901897 50120.9 0 873889 47875.5 0 847160 45653.5 0 821695 43459.8 0 797477 41298.1 0 774485 39170.9 0 752700 37079.7 0 732099 35025.5 0 712662 33008.6 0 694367 31028.7 0 677192 29085.1 0 661117 27177 0 646123 25303.1 0 632190 23461.8 0 619299 21651.5 0 607434 19870.4 0 596578 18116.6 0 586716 16388 0 577835 14682.5 0 569921 12997.9 0 562964 11332 0 556954 9682.49 0 551880 8047.12 0 547737 6423.54 0 544518 4809.4 0 542218 3202.35 0 540834 1600 0 540364 0 0 1.0267e+06 60982.8 0 993499 58661.2 0 961597 56322.8 0 931001 53982.4 0 901706 51650.7 0 873704 49336.5 0 846982 47046.6 0 821524 44785.8 0 797313 42558.1 0 774327 40365.9 0 752548 38210.8 0 731953 36094 0 712522 34015.5 0 694232 31975.2 0 677062 29972.3 0 660993 28006 0 646003 26074.9 0 632074 24177.4 0 619187 22312 0 607326 20476.5 0 596473 18669.2 0 586615 16887.9 0 577736 15130.3 0 569825 13394.4 0 562870 11677.6 0 556861 9977.84 0 551790 8292.59 0 547648 6619.48 0 544430 4956.1 0 542131 3300.03 0 540747 1648.81 0 540277 0 0 1.02648e+06 62790.7 0 993286 60399.5 0 961390 57991.3 0 930800 55581.1 0 901512 53180.1 0 873517 50797.2 0 846801 48439.2 0 821350 46111.5 0 797145 43817.7 0 774166 41560.5 0 752393 39341.6 0 731804 37162.1 0 712378 35022.1 0 694094 32921.3 0 676929 30859.2 0 660865 28834.7 0 645880 26846.5 0 631955 24892.9 0 619072 22972.2 0 607215 21082.5 0 596366 19221.7 0 586510 17387.6 0 577634 15578.1 0 569726 13790.7 0 562773 12023.2 0 556766 10273.1 0 551696 8537.98 0 547556 6815.36 0 544339 5102.76 0 542041 3397.68 0 540658 1697.6 0 540188 0 0 1.02626e+06 64598.2 0 993069 62137.4 0 961179 59659.4 0 930595 57179.5 0 901314 54709.1 0 873325 52257.5 0 846616 49831.5 0 821172 47436.7 0 796973 45076.9 0 774001 42754.8 0 752234 40472.1 0 731651 38229.9 0 712231 36028.3 0 693952 33867.2 0 676794 31745.9 0 660734 29663.2 0 645754 27617.8 0 631833 25608.1 0 618955 23632.2 0 607101 21688.2 0 596255 19773.9 0 586403 17887.2 0 577530 16025.6 0 569624 14186.9 0 562674 12368.6 0 556669 10568.3 0 551601 8783.29 0 547461 7011.17 0 544246 5249.37 0 541948 3495.3 0 540565 1746.37 0 540095 0 0 1.02604e+06 66405.4 0 992849 63875 0 960964 61327.2 0 930387 58777.5 0 901112 56237.8 0 873130 53717.3 0 846428 51223.5 0 820990 48761.6 0 796798 46335.7 0 773832 43948.7 0 752072 41602.2 0 731495 39297.3 0 712081 37034.3 0 693808 34812.8 0 676654 32632.2 0 660600 30491.4 0 645624 28388.9 0 631708 26323 0 618834 24292 0 606984 22293.7 0 596142 20326 0 586293 18386.6 0 577423 16473.1 0 569520 14583 0 562572 12714 0 556569 10863.3 0 551502 9028.51 0 547364 7206.93 0 544149 5395.93 0 541853 3592.88 0 540470 1795.13 0 540001 0 0 1.02581e+06 68212.3 0 992625 65612.3 0 960746 62994.6 0 930175 60375.2 0 900906 57766 0 872931 55176.8 0 846236 52615 0 820805 50086.1 0 796620 47594.2 0 773660 45142.2 0 751906 42731.9 0 731336 40364.4 0 711928 38039.9 0 693660 35758.1 0 676512 33518.3 0 660463 31319.3 0 645492 29159.7 0 631581 27037.8 0 618711 24951.6 0 606864 22899 0 596026 20877.9 0 586180 18885.8 0 577313 16920.4 0 569412 14979 0 562467 13059.2 0 556466 11158.3 0 551401 9273.66 0 547264 7402.61 0 544051 5542.44 0 541754 3690.44 0 540373 1843.87 0 539903 0 0 1.02557e+06 70018.9 0 992397 67349.2 0 960524 64661.7 0 929959 61972.4 0 900697 59293.9 0 872728 56635.9 0 846040 54006.1 0 820616 51410.1 0 796438 48852.3 0 773485 46335.4 0 751737 43861.3 0 731173 41431.2 0 711771 39045.2 0 693510 36703 0 676367 34404 0 660323 32146.9 0 645357 29930.2 0 631450 27752.2 0 618584 25610.9 0 606742 23504.1 0 595907 21429.6 0 586064 19384.9 0 577200 17367.5 0 569302 15374.8 0 562359 13404.3 0 556360 11453.2 0 551297 9518.72 0 547162 7598.23 0 543949 5688.9 0 541654 3787.96 0 540273 1892.6 0 539803 0 0 1.02534e+06 71825.3 0 992165 69085.8 0 960298 66328.4 0 929739 63569.3 0 900484 60821.4 0 872522 58094.6 0 845841 55396.8 0 820424 52733.8 0 796252 50110 0 773306 47528.2 0 751565 44990.4 0 731008 42497.6 0 711611 40050.1 0 693356 37647.7 0 676218 35289.5 0 660179 32974.3 0 645218 30700.5 0 631316 28466.5 0 618455 26270.1 0 606616 24109.1 0 595785 21981.1 0 585946 19883.8 0 577085 17814.5 0 569190 15770.5 0 562248 13749.3 0 556252 11747.9 0 551190 9763.7 0 547057 7793.78 0 543845 5835.32 0 541551 3885.45 0 540170 1941.3 0 539700 0 0 1.0251e+06 73631.4 0 991929 70822.2 0 960068 67994.8 0 929516 65165.8 0 900267 62348.5 0 872312 59552.9 0 845638 56787.2 0 820228 54057.1 0 796063 51367.3 0 773124 48720.6 0 751390 46119 0 730838 43563.7 0 711448 41054.8 0 693198 38592 0 676067 36174.6 0 660033 33801.3 0 645077 31470.6 0 631179 29180.5 0 618322 26929 0 606488 24713.8 0 595660 22532.4 0 585825 20382.5 0 576967 18261.3 0 569074 16166.1 0 562135 14094.1 0 556141 12042.6 0 551081 10008.6 0 546949 7989.27 0 543738 5981.68 0 541445 3982.9 0 540064 1989.99 0 539595 0 0 1.02485e+06 75437.2 0 991690 72558.2 0 959835 69660.8 0 929289 66762 0 900046 63875.2 0 872099 61010.8 0 845431 58177.1 0 820028 55380 0 795870 52624.2 0 772938 49912.6 0 751210 47247.3 0 730666 44629.4 0 711282 42059 0 693038 39536 0 675912 37059.5 0 659884 34628.1 0 644933 32240.3 0 631040 29894.2 0 618187 27587.6 0 606357 25318.2 0 595533 23083.6 0 585700 20881.1 0 576846 18708 0 568956 16561.5 0 562020 14438.9 0 556027 12337.1 0 550969 10253.4 0 546838 8184.68 0 543629 6127.99 0 541336 4080.32 0 539956 2038.67 0 539487 0 0 1.02461e+06 77242.7 0 991447 74293.8 0 959598 71326.4 0 929058 68357.7 0 899822 65401.5 0 871881 62468.3 0 845221 59566.6 0 819825 56702.6 0 795674 53880.7 0 772749 51104.3 0 751028 48375.2 0 730490 45694.7 0 711112 43063 0 692874 40479.7 0 675754 37944 0 659731 35454.6 0 644785 33009.8 0 630897 30607.7 0 618049 28246.1 0 606223 25922.5 0 595403 23634.5 0 585574 21379.4 0 576722 19154.5 0 568835 16956.8 0 561901 14783.5 0 555910 12631.6 0 550854 10498.1 0 546725 8380.03 0 543517 6274.25 0 541225 4177.71 0 539845 2087.32 0 539377 0 0 1.02435e+06 79048 0 991201 76029.2 0 959357 72991.7 0 928823 69953.1 0 899594 66927.4 0 871660 63925.4 0 845007 60955.7 0 819618 58024.7 0 795475 55136.8 0 772556 52295.5 0 750842 49502.8 0 730310 46759.7 0 710939 44066.6 0 692707 41423.1 0 675593 38828.3 0 659575 36280.8 0 644635 33779.1 0 630751 31321 0 617907 28904.3 0 606086 26526.6 0 595269 24185.3 0 585444 21877.6 0 576595 19600.8 0 568711 17351.9 0 561780 15128 0 555791 12926 0 550737 10742.8 0 546609 8575.3 0 543402 6420.45 0 541111 4275.06 0 539732 2135.96 0 539264 0 0 1.0241e+06 80853 0 990950 77764.3 0 959112 74656.6 0 928585 71548.1 0 899363 68452.9 0 871436 65382.1 0 844790 62344.4 0 819408 59346.3 0 795272 56392.6 0 772360 53486.4 0 750653 50630 0 730128 47824.4 0 710763 45069.9 0 692537 42366.1 0 675429 39712.2 0 659417 37106.8 0 644481 34548 0 630603 32033.9 0 617763 29562.2 0 605946 27130.4 0 595133 24735.8 0 585311 22375.6 0 576466 20047 0 568585 17746.9 0 561656 15472.4 0 555670 13220.2 0 550617 10987.3 0 546491 8770.51 0 543285 6566.6 0 540995 4372.37 0 539616 2184.59 0 539148 0 0 1.02384e+06 82657.7 0 990696 79499 0 958863 76321.2 0 928343 73142.7 0 899128 69978 0 871208 66838.4 0 844569 63732.7 0 819194 60667.6 0 795065 57647.9 0 772161 54676.9 0 750460 51756.8 0 729942 48888.6 0 710584 46072.8 0 692364 43308.8 0 675261 40595.8 0 659255 37932.4 0 644324 35316.7 0 630451 32746.7 0 617616 30220 0 605803 27734 0 594994 25286.2 0 585176 22873.5 0 576334 20493 0 568455 18141.8 0 561529 15816.6 0 555545 13514.3 0 550494 11231.8 0 546370 8965.64 0 543165 6712.7 0 540876 4469.65 0 539498 2233.19 0 539029 0 0 1.02358e+06 84462.2 0 990438 81233.4 0 958611 77985.4 0 928097 74736.9 0 898888 71502.7 0 870976 68294.3 0 844344 65120.6 0 818977 61988.5 0 794855 58902.8 0 771958 55867 0 750264 52883.2 0 729753 49952.5 0 710401 47075.3 0 692187 44251.2 0 675091 41479.1 0 659090 38757.7 0 644165 36085.1 0 630297 33459.1 0 617466 30877.5 0 605657 28337.4 0 594853 25836.3 0 585038 23371.1 0 576199 20938.9 0 568323 18536.5 0 561400 16160.7 0 555418 13808.4 0 550369 11476.1 0 546246 9160.7 0 543043 6858.75 0 540754 4566.9 0 539377 2281.77 0 538908 0 0 1.02331e+06 86266.4 0 990176 82967.5 0 958355 79649.3 0 927847 76330.8 0 898646 73027 0 870740 69749.7 0 844116 66508.1 0 818756 63309 0 794641 60157.3 0 771751 57056.7 0 750065 54009.2 0 729560 51016.1 0 710215 48077.5 0 692008 45193.2 0 674917 42362.1 0 658922 39582.7 0 644002 36853.2 0 630139 34171.3 0 617313 31534.7 0 605509 28940.6 0 594708 26386.2 0 584897 23868.6 0 576061 21384.6 0 568189 18931 0 561268 16504.7 0 555288 14102.3 0 550241 11720.4 0 546120 9355.69 0 542917 7004.74 0 540630 4664.1 0 539253 2330.34 0 538785 0 0 1.02304e+06 88070.3 0 989911 84701.3 0 958095 81312.8 0 927594 77924.2 0 898399 74550.9 0 870501 71204.7 0 843884 67895.1 0 818532 64629 0 794424 61411.4 0 771542 58246 0 749862 55134.8 0 729364 52079.2 0 710026 49079.4 0 691825 46134.9 0 674740 43244.7 0 658751 40407.4 0 643837 37621 0 629978 34883.3 0 617158 32191.7 0 605357 29543.5 0 594561 26935.9 0 584753 24365.8 0 575921 21830.1 0 568051 19325.4 0 561133 16848.5 0 555156 14396.1 0 550111 11964.6 0 545991 9550.6 0 542790 7150.67 0 540503 4761.27 0 539126 2378.89 0 538659 0 0 1.02277e+06 89874 0 989641 86434.7 0 957832 82976 0 927337 79517.3 0 898149 76074.3 0 870258 72659.4 0 843648 69281.7 0 818303 65948.6 0 794204 62665.1 0 771328 59434.8 0 749656 56260.1 0 729165 53142 0 709833 50080.8 0 691639 47076.2 0 674560 44127.1 0 658577 41231.8 0 643668 38388.5 0 629815 35594.9 0 616999 32848.4 0 605203 30146.3 0 594410 27485.5 0 584607 24862.9 0 575778 22275.4 0 567911 19719.7 0 560995 17192.3 0 555020 14689.8 0 549977 12208.7 0 545859 9745.44 0 542659 7296.55 0 540373 4858.4 0 538997 2427.42 0 538530 0 0 1.02249e+06 91677.5 0 989368 88167.8 0 957565 84638.7 0 927076 81109.9 0 897895 77597.4 0 870011 74113.5 0 843409 70667.9 0 818072 67267.8 0 793979 63918.4 0 771111 60623.3 0 749446 57384.9 0 728962 54204.4 0 709637 51081.9 0 691449 48017.2 0 674377 45009.1 0 658399 42055.9 0 643496 39155.8 0 629648 36306.3 0 616837 33504.9 0 605046 30748.7 0 594257 28034.8 0 584457 25359.8 0 575632 22720.6 0 567768 20113.8 0 560855 17535.9 0 554882 14983.3 0 549841 12452.6 0 545725 9940.2 0 542526 7442.37 0 540241 4955.5 0 538866 2475.93 0 538398 0 0 1.02221e+06 93480.6 0 989091 89900.7 0 957293 86301.2 0 926811 82702.2 0 897638 79120.1 0 869761 75567.3 0 843167 72053.7 0 817837 68586.5 0 793752 65171.2 0 770891 61811.4 0 749234 58509.4 0 728757 55266.4 0 709438 52082.7 0 691257 48957.8 0 674191 45890.7 0 658219 42879.7 0 643321 39922.7 0 629479 37017.4 0 616673 34161.2 0 604885 31351 0 594101 28583.8 0 584305 25856.5 0 575483 23165.6 0 567623 20507.7 0 560712 17879.3 0 554742 15276.8 0 549703 12696.5 0 545588 10134.9 0 542390 7588.13 0 540106 5052.55 0 538731 2524.42 0 538264 0 0 1.02192e+06 95283.6 0 988811 91633.1 0 957019 87963.2 0 926543 84294.1 0 897376 80642.3 0 869507 77020.6 0 842920 73439 0 817598 69904.9 0 793521 66423.6 0 770668 62999 0 749017 59633.4 0 728547 56328 0 709236 53083.1 0 691061 49898.1 0 674001 46772 0 658036 43703.2 0 643144 40689.4 0 629306 37728.3 0 616505 34817.1 0 604723 31953 0 593943 29132.7 0 584150 26353 0 575332 23610.4 0 567474 20901.5 0 560567 18222.6 0 554599 15570.1 0 549562 12940.3 0 545448 10329.5 0 542252 7733.83 0 539969 5149.57 0 538595 2572.9 0 538128 0 0 1.02163e+06 97086.3 0 988526 93365.3 0 956740 89624.9 0 926271 85885.6 0 897111 82164.1 0 869249 78473.5 0 842670 74823.9 0 817355 71222.8 0 793286 67675.6 0 770440 64186.2 0 748798 60757 0 728335 57389.2 0 709031 54083 0 690862 50838 0 673809 47653 0 657849 44526.3 0 642963 41455.7 0 629131 38438.8 0 616334 35472.8 0 604557 32554.8 0 593781 29681.4 0 583993 26849.3 0 575178 24055.1 0 567323 21295.1 0 560418 18565.8 0 554453 15863.4 0 549418 13184 0 545306 10524 0 542111 7879.48 0 539829 5246.55 0 538455 2621.35 0 537988 0 0 1.02134e+06 98888.8 0 988238 95097.2 0 956457 91286.2 0 925995 87476.6 0 896842 83685.5 0 868988 79926 0 842416 76208.4 0 817110 72540.2 0 793048 68927.2 0 770210 65373 0 748574 61880.2 0 728119 58450 0 708822 55082.6 0 690660 51777.6 0 673613 48533.6 0 657660 45349.1 0 642779 42221.8 0 628952 39149.1 0 616161 36128.3 0 604388 33156.3 0 593617 30229.8 0 583832 27345.4 0 575021 24499.5 0 567169 21688.6 0 560267 18908.8 0 554304 16156.5 0 549271 13427.6 0 545161 10718.5 0 541968 8025.06 0 539686 5343.48 0 538313 2669.78 0 537847 0 0 1.02104e+06 100691 0 987946 96828.7 0 956171 92947.2 0 925715 89067.3 0 896570 85206.5 0 868723 81378 0 842159 77592.4 0 816860 73857.2 0 792806 70178.3 0 769976 66559.4 0 748348 63003 0 727900 59510.4 0 708610 56081.9 0 690455 52716.8 0 673414 49413.9 0 657467 46171.6 0 642592 42987.5 0 628771 39859.1 0 615985 36783.5 0 604216 33757.6 0 593449 30778 0 583669 27841.3 0 574861 24943.8 0 567013 22081.9 0 560114 19251.7 0 554153 16449.4 0 549122 13671.1 0 545014 10912.8 0 541821 8170.59 0 539541 5440.38 0 538168 2718.19 0 537702 0 0 1.02074e+06 102493 0 987650 98559.9 0 955881 94607.8 0 925432 90657.6 0 896294 86727 0 868454 82829.6 0 841898 78975.9 0 816607 75173.8 0 792561 71428.9 0 769738 67745.3 0 748118 64125.4 0 727677 60570.5 0 708394 57080.7 0 690246 53655.6 0 673212 50293.9 0 657271 46993.7 0 642402 43752.9 0 628587 40568.8 0 615805 37438.4 0 604042 34358.6 0 593279 31326 0 583503 28337 0 574698 25387.9 0 566854 22475 0 559957 19594.5 0 553999 16742.3 0 548970 13914.5 0 544863 11107.1 0 541673 8316.05 0 539393 5537.24 0 538021 2766.59 0 537555 0 0 1.02044e+06 104295 0 987350 100291 0 955587 96268 0 925144 92247.5 0 896014 88247.1 0 868182 84280.8 0 841634 80359.1 0 816350 76489.9 0 792312 72679.2 0 769498 68930.8 0 747885 65247.4 0 727452 61630.1 0 708176 58079.2 0 690035 54594 0 673007 51173.5 0 657072 47815.6 0 642209 44518 0 628399 41278.2 0 615623 38093.1 0 603864 34959.4 0 593106 31873.7 0 583334 28832.4 0 574533 25831.8 0 566692 22868 0 559798 19937.1 0 553842 17035 0 548816 14157.8 0 544711 11301.3 0 541521 8461.46 0 539242 5634.06 0 537871 2814.96 0 537405 0 0 1.02013e+06 106096 0 987047 102021 0 955289 97927.9 0 924854 93836.9 0 895730 89766.8 0 867906 85731.5 0 841365 81741.7 0 816090 77805.6 0 792060 73929 0 769253 70115.9 0 747648 66368.9 0 727223 62689.3 0 707954 59077.2 0 689820 55532.1 0 672799 52052.7 0 656870 48637 0 642013 45282.8 0 628209 41987.3 0 615438 38747.4 0 603684 35559.9 0 592930 32421.2 0 583162 29327.7 0 574365 26275.5 0 566527 23260.8 0 559636 20279.6 0 553683 17327.7 0 548658 14401 0 544555 11495.5 0 541367 8606.8 0 539089 5730.83 0 537719 2863.31 0 537253 0 0 1.01981e+06 107898 0 986739 103752 0 954988 99587.4 0 924559 95426 0 895442 91286.1 0 867626 87181.8 0 841094 83123.9 0 815826 79120.8 0 791804 75178.3 0 769005 71300.5 0 747408 67490 0 726990 63748.1 0 707729 60074.9 0 689602 56469.8 0 672588 52931.6 0 656665 49458.2 0 641814 46047.3 0 628015 42696.1 0 615250 39401.5 0 603501 36160.2 0 592752 32968.5 0 582987 29822.8 0 574194 26719.1 0 566359 23653.5 0 559472 20621.9 0 553521 17620.1 0 548499 14644.1 0 544397 11689.5 0 541210 8752.08 0 538934 5827.57 0 537564 2911.64 0 537098 0 0 1.0195e+06 109699 0 986428 105481 0 954683 101247 0 924260 97014.6 0 895151 92804.9 0 867343 88631.6 0 840818 84505.7 0 815559 80435.6 0 791545 76427.2 0 768754 72484.7 0 747165 68610.7 0 726754 64806.4 0 707500 61072.1 0 689381 57407.1 0 672373 53810.1 0 656457 50279 0 641612 46811.5 0 627819 43404.6 0 615059 40055.3 0 603315 36760.2 0 592570 33515.6 0 582810 30317.6 0 574021 27162.4 0 566189 24045.9 0 559304 20964 0 553356 17912.5 0 548336 14887.1 0 544236 11883.5 0 541051 8897.3 0 538775 5924.26 0 537406 2959.95 0 536940 0 0 1.01918e+06 111500 0 986114 107211 0 954374 102905 0 923958 98602.8 0 894856 94323.3 0 867056 90080.9 0 840539 85887 0 815288 81749.8 0 791282 77675.6 0 768499 73668.4 0 746918 69730.9 0 726515 65864.4 0 707269 62069 0 689156 58344 0 672156 54688.2 0 656246 51099.4 0 641407 47575.3 0 627620 44112.8 0 614865 40708.9 0 603126 37360 0 592386 34062.4 0 582630 30812.2 0 573844 27605.6 0 566016 24438.2 0 559135 21306.1 0 553189 18204.7 0 548171 15129.9 0 544073 12077.3 0 540889 9042.45 0 538614 6020.91 0 537245 3008.24 0 536780 0 0 1.01885e+06 113301 0 985795 108940 0 954061 104564 0 923652 100191 0 894558 95841.3 0 866765 91529.8 0 840256 87267.8 0 815013 83063.7 0 791016 78923.6 0 768241 74851.7 0 746668 70850.7 0 726273 66921.9 0 707034 63065.4 0 688928 59280.6 0 671935 55566 0 656032 51919.6 0 641199 48338.8 0 627418 44820.7 0 614668 41362.1 0 602934 37959.5 0 592199 34608.9 0 582447 31306.6 0 573665 28048.5 0 565841 24830.4 0 558962 21647.9 0 553019 18496.8 0 548003 15372.7 0 543907 12271.1 0 540725 9187.54 0 538451 6117.51 0 537082 3056.51 0 536617 0 0 </DataArray> 
</PointData> 
<Points> 
<DataArray type="Float32" NumberOfComponents="3"> 