<?xml version="1.0"?> 
<VTKFile type="StructuredGrid" version="0.1"> 
<StructuredGrid WholeExtent="0 31 0 31 0 0"> 
<Piece Extent="0 31 0 31 0 0"> 
<PointData>
<DataArray type="Float32" Name="|E|" format="ascii" NumberOfComponents="3"> 
-2842.7 3.66386e+06 0 -2763.41 3.65282e+06 0 -2685.14 3.64257e+06 0 -2608.06 3.63343e+06 0 -2532.15 3.62544e+06 0 -2457.33 3.61858e+06 0 -2383.51 3.61284e+06 0 -2310.63 3.60819e+06 0 -2238.59 3.6046e+06 0 -2167.33 3.60207e+06 0 -2096.77 3.60057e+06 0 -2026.87 3.6001e+06 0 -1957.55 3.60067e+06 0 -1888.77 3.60229e+06 0 -1820.47 3.60496e+06 0 -1752.59 3.60872e+06 0 -1685.1 3.61359e+06 0 -1617.94 3.61962e+06 0 -1551.07 3.62684e+06 0 -1484.44 3.63533e+06 0 -1418.01 3.64515e+06 0 -1351.73 3.65638e+06 0 -1285.55 3.66913e+06 0 -1219.43 3.68351e+06 0 -1153.31 3.69965e+06 0 -1087.14 3.71772e+06 0 -1020.85 3.73789e+06 0 -954.382 3.7604e+06 0 -887.662 3.78551e+06 0 -820.611 3.81355e+06 0 -753.142 3.84495e+06 0 -685.169 3.88031e+06 0 -23846 3.66578e+06 0 -21866.5 3.65368e+06 0 -19776.9 3.64307e+06 0 -17692.2 3.63371e+06 0 -15648.1 3.62553e+06 0 -13656.1 3.61848e+06 0 -11715.5 3.61254e+06 0 -9820.21 3.60767e+06 0 -7962 3.60384e+06 0 -6131.34 3.60104e+06 0 -4318.12 3.59926e+06 0 -2511.8 3.59848e+06 0 -701.485 3.59871e+06 0 1124.1 3.59996e+06 0 2976.72 3.60223e+06 0 4868.76 3.60554e+06 0 6813.41 3.60992e+06 0 8824.85 3.61541e+06 0 10918.5 3.62205e+06 0 13111.5 3.62989e+06 0 15422.6 3.63899e+06 0 17873.2 3.64943e+06 0 20487.6 3.66129e+06 0 23293.8 3.67468e+06 0 26324.1 3.68971e+06 0 29617 3.70653e+06 0 33218.2 3.72529e+06 0 37183.6 3.74618e+06 0 41582.3 3.76944e+06 0 46505.2 3.79531e+06 0 52071.5 3.8241e+06 0 58481.9 3.85615e+06 0 -46732.3 3.66273e+06 0 -42166.1 3.65068e+06 0 -37819.8 3.63998e+06 0 -33637.6 3.63054e+06 0 -29603.3 3.62229e+06 0 -25701.8 3.61517e+06 0 -21917.2 3.60912e+06 0 -18231.9 3.60412e+06 0 -14627.1 3.60012e+06 0 -11083.1 3.59711e+06 0 -7579.9 3.59508e+06 0 -4096.99 3.59401e+06 0 -613.514 3.5939e+06 0 2891.95 3.59476e+06 0 6441.57 3.59659e+06 0 10058.5 3.59941e+06 0 13767.3 3.60323e+06 0 17594.2 3.6081e+06 0 21567.3 3.61403e+06 0 25717.7 3.62109e+06 0 30079.5 3.62931e+06 0 34690.8 3.63876e+06 0 39594.6 3.64951e+06 0 44839.9 3.66164e+06 0 50482.9 3.67526e+06 0 56589.1 3.69048e+06 0 63235.3 3.70741e+06 0 70512.7 3.72622e+06 0 78530.5 3.74707e+06 0 87421.9 3.77015e+06 0 97346.9 3.7957e+06 0 108508 3.82395e+06 0 -69950.8 3.65521e+06 0 -63010.3 3.64348e+06 0 -56430.7 3.63303e+06 0 -50163.3 3.62378e+06 0 -44163.3 3.61566e+06 0 -38392 3.60861e+06 0 -32814.8 3.60258e+06 0 -27399.2 3.59755e+06 0 -22114.2 3.59346e+06 0 -16929.5 3.59032e+06 0 -11815.2 3.58809e+06 0 -6741.51 3.58677e+06 0 -1678.47 3.58635e+06 0 3404.25 3.58682e+06 0 8537.77 3.58821e+06 0 13754.3 3.59051e+06 0 19087.7 3.59374e+06 0 24573.7 3.59792e+06 0 30250.7 3.60309e+06 0 36160.2 3.60927e+06 0 42347.7 3.6165e+06 0 48863.3 3.62484e+06 0 55763 3.63433e+06 0 63109.9 3.64505e+06 0 70975.6 3.65707e+06 0 79442.1 3.67047e+06 0 88603.9 3.68534e+06 0 98571 3.7018e+06 0 109472 3.71997e+06 0 121460 3.73998e+06 0 134711 3.76198e+06 0 149449 3.78615e+06 0 -92975.9 3.64326e+06 0 -83795 3.63219e+06 0 -75120.9 3.62226e+06 0 -66879.6 3.61343e+06 0 -59011.7 3.60563e+06 0 -51463.2 3.59882e+06 0 -44185.2 3.59296e+06 0 -37132.9 3.58801e+06 0 -30264.1 3.58394e+06 0 -23538.5 3.58074e+06 0 -16917.4 3.57839e+06 0 -10362.6 3.57687e+06 0 -3836.29 3.57617e+06 0 2699.31 3.5763e+06 0 9282.68 3.57726e+06 0 15953.3 3.57904e+06 0 22752.1 3.58167e+06 0 29722.2 3.58516e+06 0 36909.2 3.58952e+06 0 44362.1 3.59479e+06 0 52133.7 3.60098e+06 0 60282.2 3.60815e+06 0 68871.2 3.61632e+06 0 77971.9 3.62554e+06 0 87663.9 3.63586e+06 0 98036.8 3.64735e+06 0 109193 3.66007e+06 0 121249 3.67409e+06 0 134338 3.68948e+06 0 148617 3.70634e+06 0 164262 3.72475e+06 0 181493 3.74482e+06 0 -115199 3.62714e+06 0 -104008 3.61697e+06 0 -93429.9 3.6078e+06 0 -83384.5 3.5996e+06 0 -73801.6 3.59232e+06 0 -64616.7 3.58591e+06 0 -55771.1 3.58036e+06 0 -47210.6 3.57562e+06 0 -38884.4 3.57168e+06 0 -30744.4 3.56852e+06 0 -22744.4 3.56611e+06 0 -14839.6 3.56446e+06 0 -6986.03 3.56355e+06 0 860.152 3.56338e+06 0 8743.01 3.56394e+06 0 16707.4 3.56524e+06 0 24799.4 3.56729e+06 0 33067.1 3.5701e+06 0 41560.8 3.57367e+06 0 50334 3.57802e+06 0 59444.1 3.58318e+06 0 68953 3.58916e+06 0 78928 3.596e+06 0 89443.2 3.60372e+06 0 100581 3.61235e+06 0 112431 3.62193e+06 0 125097 3.63251e+06 0 138692 3.64411e+06 0 153347 3.65679e+06 0 169209 3.67059e+06 0 186444 3.68556e+06 0 205251 3.70173e+06 0 -136111 3.60716e+06 0 -123172 3.59812e+06 0 -110928 3.58991e+06 0 -99292.3 3.58252e+06 0 -88188.6 3.57592e+06 0 -77546.3 3.57007e+06 0 -67300.4 3.56495e+06 0 -57390.6 3.56055e+06 0 -47760.2 3.55684e+06 0 -38355.7 3.55381e+06 0 -29125.7 3.55145e+06 0 -20020.5 3.54974e+06 0 -10991.7 3.54868e+06 0 -1991.17 3.54827e+06 0 7028.93 3.5485e+06 0 16117 3.54937e+06 0 25322.5 3.55088e+06 0 34696.2 3.55304e+06 0 44291.1 3.55586e+06 0 54162.8 3.55934e+06 0 64370.3 3.56349e+06 0 74976.4 3.56834e+06 0 86048.9 3.57388e+06 0 97661.2 3.58015e+06 0 109893 3.58715e+06 0 122833 3.59491e+06 0 136577 3.60344e+06 0 151233 3.61276e+06 0 166920 3.62288e+06 0 183771 3.63383e+06 0 201933 3.64561e+06 0 221580 3.65823e+06 0 -155262 3.58377e+06 0 -140872 3.57601e+06 0 -127231 3.56892e+06 0 -114249 3.56249e+06 0 -101848 3.5567e+06 0 -89955.6 3.55153e+06 0 -78502.8 3.54698e+06 0 -67426.4 3.54302e+06 0 -56666.5 3.53964e+06 0 -46166.5 3.53684e+06 0 -35871.9 3.53461e+06 0 -25730.2 3.53292e+06 0 -15690.2 3.53179e+06 0 -5701.55 3.53121e+06 0 4285.89 3.53116e+06 0 14322.3 3.53166e+06 0 24458.7 3.5327e+06 0 34747 3.53428e+06 0 45240.9 3.53641e+06 0 55996.1 3.53908e+06 0 67071.1 3.5423e+06 0 78527.7 3.54608e+06 0 90431.4 3.55043e+06 0 102853 3.55534e+06 0 115867 3.56082e+06 0 129555 3.56688e+06 0 144007 3.57352e+06 0 159320 3.58074e+06 0 175598 3.58854e+06 0 192958 3.59691e+06 0 211526 3.60584e+06 0 231449 3.61532e+06 0 -172286 3.55745e+06 0 -156760 3.55109e+06 0 -142008 3.54522e+06 0 -127944 3.53986e+06 0 -114489 3.53499e+06 0 -101572 3.53061e+06 0 -89122.8 3.52672e+06 0 -77078.9 3.52329e+06 0 -65379.2 3.52034e+06 0 -53966 3.51786e+06 0 -42784 3.51583e+06 0 -31779.5 3.51425e+06 0 -20900.5 3.51312e+06 0 -10095.7 3.51244e+06 0 685.411 3.5122e+06 0 11493.5 3.5124e+06 0 22379.5 3.51304e+06 0 33395 3.51412e+06 0 44592.9 3.51564e+06 0 56027.6 3.51758e+06 0 67755.6 3.51997e+06 0 79835.8 3.52278e+06 0 92330.2 3.52603e+06 0 105304 3.52971e+06 0 118828 3.53382e+06 0 132974 3.53835e+06 0 147824 3.54329e+06 0 163461 3.54863e+06 0 179978 3.55437e+06 0 197473 3.56047e+06 0 216052 3.56691e+06 0 235834 3.57366e+06 0 -186910 3.52873e+06 0 -170566 3.52383e+06 0 -154996 3.51926e+06 0 -140119 3.51504e+06 0 -125862 3.51117e+06 0 -112154 3.50765e+06 0 -98929.5 3.50448e+06 0 -86126.2 3.50167e+06 0 -73684.9 3.49922e+06 0 -61548.6 3.49712e+06 0 -49662.7 3.49538e+06 0 -37974.4 3.49398e+06 0 -26432.2 3.49293e+06 0 -14985.4 3.49223e+06 0 -3584.38 3.49187e+06 0 7820.64 3.49186e+06 0 19279.3 3.49218e+06 0 30841.7 3.49284e+06 0 42558.8 3.49383e+06 0 54482.3 3.49515e+06 0 66665.9 3.4968e+06 0 79164.7 3.49877e+06 0 92036 3.50106e+06 0 105340 3.50365e+06 0 119139 3.50654e+06 0 133499 3.50972e+06 0 148491 3.51317e+06 0 164187 3.51687e+06 0 180666 3.52081e+06 0 198011 3.52495e+06 0 216308 3.52926e+06 0 235653 3.5337e+06 0 -198951 3.49818e+06 0 -182096 3.49474e+06 0 -165996 3.49149e+06 0 -150574 3.48844e+06 0 -135765 3.48561e+06 0 -121502 3.483e+06 0 -107723 3.48062e+06 0 -94371.2 3.47848e+06 0 -81388.6 3.47659e+06 0 -68721.2 3.47494e+06 0 -56316.7 3.47354e+06 0 -44124.3 3.47239e+06 0 -32094.3 3.47149e+06 0 -20178.1 3.47084e+06 0 -8327.81 3.47044e+06 0 3504.26 3.47028e+06 0 15365.5 3.47037e+06 0 27303.7 3.4707e+06 0 39366.6 3.47127e+06 0 51603.2 3.47207e+06 0 64063.1 3.4731e+06 0 76797.1 3.47434e+06 0 89857.6 3.4758e+06 0 103299 3.47746e+06 0 117176 3.4793e+06 0 131548 3.48131e+06 0 146475 3.48348e+06 0 162021 3.48578e+06 0 178250 3.48818e+06 0 195231 3.49066e+06 0 213036 3.49318e+06 0 231740 3.49569e+06 0 -208312 3.46632e+06 0 -191236 3.46434e+06 0 -174876 3.46239e+06 0 -159167 3.46052e+06 0 -144046 3.45873e+06 0 -129456 3.45705e+06 0 -115341 3.45549e+06 0 -101646 3.45405e+06 0 -88319.1 3.45276e+06 0 -75309.7 3.4516e+06 0 -62568.7 3.4506e+06 0 -50048.5 3.44976e+06 0 -37702.3 3.44907e+06 0 -25484.4 3.44853e+06 0 -13349.6 3.44816e+06 0 -1253.16 3.44794e+06 0 10849.5 3.44788e+06 0 23002.7 3.44797e+06 0 35251.3 3.44821e+06 0 47640.1 3.4486e+06 0 60214.7 3.44911e+06 0 73021.4 3.44976e+06 0 86107.3 3.45052e+06 0 99520.6 3.45139e+06 0 113311 3.45235e+06 0 127528 3.45338e+06 0 142225 3.45447e+06 0 157455 3.45559e+06 0 173274 3.45671e+06 0 189736 3.45781e+06 0 206901 3.45884e+06 0 224829 3.45977e+06 0 -214974 3.4337e+06 0 -197939 3.43309e+06 0 -181570 3.43242e+06 0 -165809 3.43169e+06 0 -150604 3.43094e+06 0 -135903 3.43018e+06 0 -121656 3.42944e+06 0 -107815 3.42873e+06 0 -94332.9 3.42805e+06 0 -81162.9 3.42743e+06 0 -68260.5 3.42687e+06 0 -55581.8 3.42637e+06 0 -43083.9 3.42594e+06 0 -30724.5 3.42558e+06 0 -18461.7 3.4253e+06 0 -6254.4 3.42509e+06 0 5938.56 3.42495e+06 0 18158 3.42489e+06 0 30444.9 3.42489e+06 0 42840.1 3.42496e+06 0 55385 3.42508e+06 0 68121.1 3.42524e+06 0 81090.5 3.42545e+06 0 94335.7 3.42567e+06 0 107900 3.42591e+06 0 121827 3.42613e+06 0 136162 3.42633e+06 0 150950 3.42648e+06 0 166236 3.42655e+06 0 182068 3.42652e+06 0 198491 3.42634e+06 0 215555 3.42599e+06 0 -218983 3.40078e+06 0 -202220 3.40148e+06 0 -186063 3.402e+06 0 -170465 3.40237e+06 0 -155381 3.40261e+06 0 -140767 3.40276e+06 0 -126580 3.40283e+06 0 -112776 3.40283e+06 0 -99315.1 3.40279e+06 0 -86155 3.40272e+06 0 -73255.9 3.40262e+06 0 -60578.3 3.4025e+06 0 -48083.3 3.40237e+06 0 -35732.7 3.40224e+06 0 -23488.5 3.4021e+06 0 -11313.2 3.40196e+06 0 830.425 3.40182e+06 0 12979.4 3.40168e+06 0 25170.7 3.40153e+06 0 37441.2 3.40138e+06 0 49827.8 3.4012e+06 0 62367.5 3.401e+06 0 75097.7 3.40076e+06 0 88055.5 3.40048e+06 0 101279 3.40014e+06 0 114805 3.39972e+06 0 128673 3.3992e+06 0 142920 3.39857e+06 0 157584 3.3978e+06 0 172704 3.39686e+06 0 188318 3.39571e+06 0 204465 3.39434e+06 0 -220434 3.36802e+06 0 -204140 3.36991e+06 0 -188389 3.37154e+06 0 -173142 3.37294e+06 0 -158363 3.37413e+06 0 -144013 3.37514e+06 0 -130057 3.37599e+06 0 -116458 3.3767e+06 0 -103180 3.37728e+06 0 -90186.2 3.37776e+06 0 -77442.2 3.37813e+06 0 -64913 3.37842e+06 0 -52564 3.37862e+06 0 -40361 3.37875e+06 0 -28270.3 3.37881e+06 0 -16258.3 3.37879e+06 0 -4291.72 3.37871e+06 0 7662.59 3.37856e+06 0 19637.6 3.37834e+06 0 31666 3.37804e+06 0 43780.7 3.37767e+06 0 56014.3 3.3772e+06 0 68399.4 3.37664e+06 0 80968.6 3.37597e+06 0 93754.5 3.37519e+06 0 106790 3.37427e+06 0 120106 3.37319e+06 0 133736 3.37195e+06 0 147712 3.37051e+06 0 162065 3.36886e+06 0 176826 3.36696e+06 0 192026 3.36479e+06 0 -219462 3.33578e+06 0 -203802 3.33876e+06 0 -188619 3.3414e+06 0 -173884 3.34375e+06 0 -159567 3.34582e+06 0 -145638 3.34764e+06 0 -132065 3.34924e+06 0 -118819 3.35062e+06 0 -105868 3.35182e+06 0 -93182.1 3.35283e+06 0 -80730.6 3.35369e+06 0 -68483.3 3.35439e+06 0 -56410 3.35494e+06 0 -44480.9 3.35536e+06 0 -32666.3 3.35564e+06 0 -20936.4 3.3558e+06 0 -9262.11 3.35582e+06 0 2385.93 3.35572e+06 0 14036.7 3.3555e+06 0 25719.2 3.35514e+06 0 37462 3.35464e+06 0 49293.8 3.35401e+06 0 61243 3.35322e+06 0 73337.8 3.35228e+06 0 85606.3 3.35117e+06 0 98076.3 3.34987e+06 0 110775 3.34838e+06 0 123730 3.34667e+06 0 136968 3.34473e+06 0 150514 3.34254e+06 0 164394 3.34006e+06 0 178633 3.33728e+06 0 -216227 3.30441e+06 0 -201331 3.30835e+06 0 -186851 3.31191e+06 0 -172762 3.31512e+06 0 -159042 3.31799e+06 0 -145665 3.32057e+06 0 -132607 3.32286e+06 0 -119842 3.32488e+06 0 -107346 3.32666e+06 0 -95092.1 3.3282e+06 0 -83054.8 3.32953e+06 0 -71208.2 3.33064e+06 0 -59526.6 3.33156e+06 0 -47984.1 3.33228e+06 0 -36554.9 3.33282e+06 0 -25213.5 3.33318e+06 0 -13934.2 3.33336e+06 0 -2691.53 3.33336e+06 0 8539.69 3.33318e+06 0 19784.7 3.33282e+06 0 31068.4 3.33228e+06 0 42415.7 3.33155e+06 0 53851.1 3.33063e+06 0 65398.9 3.32951e+06 0 77083.2 3.32818e+06 0 88927.7 3.32662e+06 0 100956 3.32483e+06 0 113190 3.32279e+06 0 125653 3.32048e+06 0 138366 3.31789e+06 0 151349 3.315e+06 0 164624 3.31177e+06 0 -210900 3.27418e+06 0 -196873 3.27897e+06 0 -183202 3.28334e+06 0 -169868 3.28732e+06 0 -156853 3.29092e+06 0 -144140 3.29418e+06 0 -131707 3.29711e+06 0 -119534 3.29973e+06 0 -107601 3.30205e+06 0 -95886.7 3.3041e+06 0 -84369.4 3.30588e+06 0 -73027.4 3.30741e+06 0 -61838.9 3.30869e+06 0 -50782 3.30973e+06 0 -39834.7 3.31054e+06 0 -28975.1 3.31112e+06 0 -18181.1 3.31149e+06 0 -7430.89 3.31163e+06 0 3297.32 3.31155e+06 0 14025.2 3.31125e+06 0 24774.3 3.31072e+06 0 35565.9 3.30997e+06 0 46421.1 3.30899e+06 0 57360.8 3.30777e+06 0 68405.4 3.3063e+06 0 79575.1 3.30458e+06 0 90889.5 3.3026e+06 0 102368 3.30033e+06 0 114029 3.29778e+06 0 125891 3.29491e+06 0 137970 3.29172e+06 0 150283 3.28819e+06 0 -203662 3.24531e+06 0 -190581 3.25084e+06 0 -177799 3.25592e+06 0 -165305 3.26058e+06 0 -153084 3.26484e+06 0 -141123 3.26871e+06 0 -129406 3.27222e+06 0 -117917 3.27539e+06 0 -106639 3.27823e+06 0 -95554.8 3.28074e+06 0 -84647.5 3.28296e+06 0 -73899 3.28488e+06 0 -63291 3.28652e+06 0 -52805.2 3.28788e+06 0 -42423.1 3.28898e+06 0 -32126.1 3.28981e+06 0 -21895.7 3.29037e+06 0 -11713.3 3.29069e+06 0 -1560.16 3.29074e+06 0 8582.05 3.29054e+06 0 18731.7 3.29009e+06 0 28907 3.28937e+06 0 39125.9 3.28839e+06 0 49406.1 3.28714e+06 0 59765 3.28562e+06 0 70219.7 3.28382e+06 0 80786.7 3.28172e+06 0 91482.2 3.27933e+06 0 102322 3.27662e+06 0 113320 3.27359e+06 0 124492 3.27022e+06 0 135850 3.26649e+06 0 -194687 3.218e+06 0 -182607 3.22416e+06 0 -170775 3.22986e+06 0 -159185 3.23511e+06 0 -147826 3.23994e+06 0 -136688 3.24437e+06 0 -125759 3.2484e+06 0 -115027 3.25206e+06 0 -104479 3.25537e+06 0 -94100.4 3.25833e+06 0 -83878.2 3.26095e+06 0 -73797.6 3.26325e+06 0 -63843.6 3.26524e+06 0 -54001.3 3.26692e+06 0 -44255.2 3.2683e+06 0 -34589.8 3.26938e+06 0 -24989.6 3.27017e+06 0 -15439.1 3.27068e+06 0 -5922.42 3.2709e+06 0 3575.86 3.27084e+06 0 13071.3 3.27049e+06 0 22579.2 3.26985e+06 0 32114.7 3.26893e+06 0 41692.9 3.26771e+06 0 51328.4 3.2662e+06 0 61035.5 3.26438e+06 0 70828.2 3.26225e+06 0 80720 3.2598e+06 0 90723.9 3.25703e+06 0 100852 3.25391e+06 0 111117 3.25045e+06 0 121529 3.24662e+06 0 -184147 3.19238e+06 0 -173102 3.19908e+06 0 -162262 3.2053e+06 0 -151622 3.21107e+06 0 -141174 3.2164e+06 0 -130913 3.22131e+06 0 -120828 3.22581e+06 0 -110911 3.22992e+06 0 -101152 3.23365e+06 0 -91539.5 3.23701e+06 0 -82063.3 3.24002e+06 0 -72711.6 3.24268e+06 0 -63472.4 3.24499e+06 0 -54333.5 3.24698e+06 0 -45282.2 3.24864e+06 0 -36305.9 3.24999e+06 0 -27391.7 3.25102e+06 0 -18526.7 3.25173e+06 0 -9697.79 3.25214e+06 0 -892.1 3.25224e+06 0 7903.37 3.25203e+06 0 16701.5 3.25151e+06 0 25514.9 3.25069e+06 0 34356.2 3.24955e+06 0 43237.7 3.24809e+06 0 52171.3 3.24631e+06 0 61168.7 3.24421e+06 0 70241.2 3.24177e+06 0 79399.7 3.239e+06 0 88654.4 3.23587e+06 0 98015 3.23239e+06 0 107491 3.22854e+06 0 -172198 3.16857e+06 0 -162209 3.17572e+06 0 -152386 3.18239e+06 0 -142726 3.1886e+06 0 -133225 3.19436e+06 0 -123878 3.19969e+06 0 -114679 3.2046e+06 0 -105621 3.20911e+06 0 -96696.5 3.21322e+06 0 -87897.5 3.21695e+06 0 -79215.3 3.22031e+06 0 -70641.1 3.2233e+06 0 -62165.3 3.22593e+06 0 -53778.1 3.22821e+06 0 -45469.4 3.23015e+06 0 -37229 3.23175e+06 0 -29046.3 3.23302e+06 0 -20910.8 3.23396e+06 0 -12811.7 3.23456e+06 0 -4738.45 3.23484e+06 0 3319.78 3.2348e+06 0 11373.6 3.23443e+06 0 19433.5 3.23373e+06 0 27510 3.23271e+06 0 35613.2 3.23135e+06 0 43753 3.22966e+06 0 51939.3 3.22764e+06 0 60181.4 3.22527e+06 0 68488.2 3.22254e+06 0 76868.4 3.21947e+06 0 85329.9 3.21603e+06 0 93880.5 3.21222e+06 0 -158986 3.14665e+06 0 -150060 3.15417e+06 0 -141267 3.16121e+06 0 -132605 3.16779e+06 0 -124073 3.17392e+06 0 -115666 3.17962e+06 0 -107381 3.18489e+06 0 -99213.2 3.18975e+06 0 -91156.8 3.19421e+06 0 -83206.1 3.19827e+06 0 -75354.5 3.20194e+06 0 -67595 3.20524e+06 0 -59920.3 3.20817e+06 0 -52322.8 3.21073e+06 0 -44794.4 3.21294e+06 0 -37326.9 3.21479e+06 0 -29911.9 3.21629e+06 0 -22540.9 3.21745e+06 0 -15205.1 3.21827e+06 0 -7895.91 3.21875e+06 0 -604.564 3.21888e+06 0 6677.67 3.21868e+06 0 13959.4 3.21814e+06 0 21249.3 3.21726e+06 0 28555.6 3.21604e+06 0 35886.6 3.21447e+06 0 43250.3 3.21256e+06 0 50654.5 3.21029e+06 0 58106.5 3.20767e+06 0 65613.4 3.20469e+06 0 73181.9 3.20135e+06 0 80818.4 3.19763e+06 0 -144641 3.12668e+06 0 -136776 3.1345e+06 0 -129015 3.14185e+06 0 -121359 3.14874e+06 0 -113806 3.15519e+06 0 -106354 3.1612e+06 0 -99001.5 3.16678e+06 0 -91744.4 3.17195e+06 0 -84579.2 3.17671e+06 0 -77501.5 3.18106e+06 0 -70506.6 3.18503e+06 0 -63589.2 3.18861e+06 0 -56743.8 3.19181e+06 0 -49964.3 3.19463e+06 0 -43244.6 3.19709e+06 0 -36578.3 3.19919e+06 0 -29958.7 3.20093e+06 0 -23379 3.20231e+06 0 -16832.3 3.20334e+06 0 -10311.5 3.20402e+06 0 -3809.71 3.20435e+06 0 2680.19 3.20433e+06 0 9165.2 3.20396e+06 0 15652.3 3.20325e+06 0 22148.2 3.20219e+06 0 28659.7 3.20077e+06 0 35193.4 3.199e+06 0 41755.5 3.19688e+06 0 48352.2 3.19439e+06 0 54989.1 3.19155e+06 0 61671.9 3.18833e+06 0 68405.7 3.18475e+06 0 -129278 3.1087e+06 0 -122463 3.11676e+06 0 -115730 3.12436e+06 0 -109078 3.13151e+06 0 -102507 3.13822e+06 0 -96017 3.1445e+06 0 -89605.6 3.15035e+06 0 -83271.1 3.15578e+06 0 -77011 3.16081e+06 0 -70822.3 3.16543e+06 0 -64701.5 3.16965e+06 0 -58644.8 3.17349e+06 0 -52648 3.17694e+06 0 -46706.8 3.18001e+06 0 -40816.2 3.18271e+06 0 -34971.5 3.18504e+06 0 -29167.3 3.18701e+06 0 -23398.4 3.18861e+06 0 -17659.4 3.18985e+06 0 -11944.8 3.19073e+06 0 -6248.9 3.19126e+06 0 -566.165 3.19144e+06 0 5109 3.19126e+06 0 10782.2 3.19073e+06 0 16458.8 3.18984e+06 0 22144.4 3.1886e+06 0 27844.1 3.187e+06 0 33563.1 3.18504e+06 0 39306.2 3.18272e+06 0 45078.3 3.18003e+06 0 50883.7 3.17698e+06 0 56726.7 3.17356e+06 0 -112997 3.09272e+06 0 -107218 3.10098e+06 0 -101501 3.10879e+06 0 -95845.7 3.11615e+06 0 -90253.3 3.12308e+06 0 -84723.3 3.12958e+06 0 -79255.1 3.13566e+06 0 -73847.6 3.14133e+06 0 -68499.2 3.14658e+06 0 -63207.8 3.15144e+06 0 -57971 3.15589e+06 0 -52786.2 3.15996e+06 0 -47650.3 3.16364e+06 0 -42560 3.16694e+06 0 -37511.9 3.16986e+06 0 -32502.1 3.17241e+06 0 -27526.7 3.17459e+06 0 -22581.7 3.17641e+06 0 -17662.9 3.17786e+06 0 -12766.1 3.17895e+06 0 -7886.82 3.17968e+06 0 -3020.78 3.18006e+06 0 1836.44 3.18007e+06 0 6689.2 3.17973e+06 0 11541.8 3.17903e+06 0 16398.6 3.17798e+06 0 21263.7 3.17656e+06 0 26141.2 3.17479e+06 0 31035 3.17265e+06 0 35948.9 3.17015e+06 0 40886.5 3.16729e+06 0 45851.1 3.16406e+06 0 -95884.4 3.07878e+06 0 -91122.4 3.08719e+06 0 -86405.6 3.09516e+06 0 -81735.2 3.1027e+06 0 -77112 3.10981e+06 0 -72536.1 3.1165e+06 0 -68007.5 3.12277e+06 0 -63525.5 3.12863e+06 0 -59089.2 3.13409e+06 0 -54697.3 3.13915e+06 0 -50348.2 3.14381e+06 0 -46040.2 3.14808e+06 0 -41771 3.15197e+06 0 -37538.3 3.15548e+06 0 -33339.7 3.15861e+06 0 -29172.2 3.16137e+06 0 -25033.1 3.16375e+06 0 -20919.3 3.16577e+06 0 -16827.7 3.16743e+06 0 -12755 3.16872e+06 0 -8698.06 3.16965e+06 0 -4653.45 3.17023e+06 0 -617.825 3.17044e+06 0 3412.15 3.1703e+06 0 7439.82 3.1698e+06 0 11468.5 3.16894e+06 0 15501.4 3.16772e+06 0 19541.6 3.16615e+06 0 23592.4 3.16421e+06 0 27656.5 3.16192e+06 0 31736.8 3.15925e+06 0 35836 3.15623e+06 0 -78012.9 3.06687e+06 0 -74246.3 3.0754e+06 0 -70512 3.0835e+06 0 -66811.2 3.09118e+06 0 -63144.5 3.09843e+06 0 -59512.5 3.10528e+06 0 -55915.3 3.11171e+06 0 -52352.7 3.11774e+06 0 -48824.2 3.12337e+06 0 -45329.1 3.12861e+06 0 -41866.4 3.13345e+06 0 -38434.8 3.13791e+06 0 -35033 3.14199e+06 0 -31659.3 3.14568e+06 0 -28311.9 3.149e+06 0 -24989 3.15195e+06 0 -21688.5 3.15453e+06 0 -18408.2 3.15675e+06 0 -15145.9 3.1586e+06 0 -11899.2 3.16009e+06 0 -8665.7 3.16122e+06 0 -5442.99 3.16199e+06 0 -2228.59 3.1624e+06 0 979.982 3.16246e+06 0 4185.2 3.16216e+06 0 7389.53 3.16151e+06 0 10595.4 3.16049e+06 0 13805.1 3.15913e+06 0 17021.1 3.1574e+06 0 20245.5 3.15532e+06 0 23480.4 3.15288e+06 0 26728 3.15007e+06 0 -59442.8 3.057e+06 0 -56649.7 3.06562e+06 0 -53878.4 3.07382e+06 0 -51129.8 3.0816e+06 0 -48404.7 3.08898e+06 0 -45703.6 3.09595e+06 0 -43026.7 3.10252e+06 0 -40374 3.10869e+06 0 -37745.3 3.11447e+06 0 -35140.3 3.11986e+06 0 -32558.4 3.12486e+06 0 -29998.8 3.12948e+06 0 -27460.6 3.13372e+06 0 -24942.9 3.13759e+06 0 -22444.4 3.14109e+06 0 -19963.9 3.14422e+06 0 -17500 3.14698e+06 0 -15051.2 3.14937e+06 0 -12616.1 3.15141e+06 0 -10192.9 3.15309e+06 0 -7780.14 3.15441e+06 0 -5376.03 3.15538e+06 0 -2978.86 3.15599e+06 0 -586.922 3.15624e+06 0 1801.53 3.15615e+06 0 4188.22 3.1557e+06 0 6574.85 3.1549e+06 0 8963.11 3.15374e+06 0 11354.6 3.15223e+06 0 13751 3.15037e+06 0 16153.8 3.14816e+06 0 18564.4 3.14558e+06 0 -40224.3 3.04917e+06 0 -38382.8 3.05785e+06 0 -36554.5 3.06613e+06 0 -34740 3.074e+06 0 -32940.1 3.08147e+06 0 -31155.1 3.08854e+06 0 -29385.1 3.09522e+06 0 -27630.4 3.10151e+06 0 -25890.9 3.10741e+06 0 -24166.4 3.11293e+06 0 -22456.7 3.11807e+06 0 -20761.2 3.12283e+06 0 -19079.7 3.12722e+06 0 -17411.3 3.13125e+06 0 -15755.5 3.1349e+06 0 -14111.6 3.13819e+06 0 -12478.6 3.14112e+06 0 -10855.7 3.14369e+06 0 -9242 3.1459e+06 0 -7636.49 3.14776e+06 0 -6038.16 3.14926e+06 0 -4445.96 3.15041e+06 0 -2858.82 3.15122e+06 0 -1275.68 3.15167e+06 0 304.572 3.15177e+06 0 1883.01 3.15153e+06 0 3460.71 3.15094e+06 0 5038.75 3.15e+06 0 6618.16 3.14871e+06 0 8199.96 3.14708e+06 0 9785.14 3.14509e+06 0 11374.7 3.14276e+06 0 -20398.7 3.04338e+06 0 -19487.7 3.0521e+06 0 -18582.8 3.06043e+06 0 -17684.3 3.06837e+06 0 -16792.7 3.07591e+06 0 -15908 3.08306e+06 0 -15030.6 3.08983e+06 0 -14160.4 3.09621e+06 0 -13297.5 3.10222e+06 0 -12441.8 3.10785e+06 0 -11593.2 3.11311e+06 0 -10751.6 3.11799e+06 0 -9916.79 3.12251e+06 0 -9088.43 3.12667e+06 0 -8266.26 3.13047e+06 0 -7449.95 3.1339e+06 0 -6639.13 3.13698e+06 0 -5833.38 3.13971e+06 0 -5032.28 3.14209e+06 0 -4235.38 3.14411e+06 0 -3442.2 3.14579e+06 0 -2652.26 3.14713e+06 0 -1865.05 3.14811e+06 0 -1080.06 3.14876e+06 0 -296.782 3.14906e+06 0 485.305 3.14902e+06 0 1266.71 3.14864e+06 0 2047.96 3.14791e+06 0 2829.53 3.14684e+06 0 3611.94 3.14544e+06 0 4395.63 3.14368e+06 0 5181.1 3.14159e+06 0 0 3.03963e+06 0 0 3.04839e+06 0 0 3.05675e+06 0 0 3.06473e+06 0 0 3.07232e+06 0 0 3.07954e+06 0 0 3.08637e+06 0 0 3.09283e+06 0 0 3.09892e+06 0 0 3.10464e+06 0 0 3.11e+06 0 0 3.11499e+06 0 0 3.11962e+06 0 0 3.12389e+06 0 0 3.12781e+06 0 0 3.13138e+06 0 0 3.1346e+06 0 0 3.13747e+06 0 0 3.14e+06 0 0 3.14218e+06 0 0 3.14403e+06 0 0 3.14553e+06 0 0 3.14669e+06 0 0 3.14752e+06 0 0 3.14801e+06 0 0 3.14817e+06 0 0 3.14799e+06 0 0 3.14748e+06 0 0 3.14663e+06 0 0 3.14545e+06 0 0 3.14393e+06 0 0 3.14208e+06 0 </DataArray> 
</PointData> 
<Points> 
<DataArray type="Float32" NumberOfComponents="3"> 