<?xml version="1.0"?> 
<VTKFile type="StructuredGrid" version="0.1"> 
<StructuredGrid WholeExtent="0 31 0 31 0 0"> 
<Piece Extent="0 31 0 31 0 0"> 
<PointData>
<DataArray type="Float32" Name="|E|" format="ascii" NumberOfComponents="3"> 
1.23418e+06 -125937 0 1.36772e+06 -98305.9 0 1.44628e+06 -123889 0 1.53044e+06 -117819 0 1.59944e+06 -104706 0 1.65793e+06 -86311.5 0 1.70329e+06 -66718.8 0 1.73659e+06 -47054.3 0 1.75805e+06 -28236.7 0 1.7686e+06 -10771.8 0 1.7692e+06 5032.09 0 1.76096e+06 18997.6 0 1.74505e+06 31070.8 0 1.7226e+06 41278.1 0 1.69473e+06 49713.6 0 1.66246e+06 56512.4 0 1.62671e+06 61835.1 0 1.5883e+06 65851.8 0 1.54796e+06 68732.4 0 1.50629e+06 70638.4 0 1.46383e+06 71718.9 0 1.421e+06 72108.3 0 1.37817e+06 71924.9 0 1.33564e+06 71272 0 1.29366e+06 70238.2 0 1.25242e+06 68898.9 0 1.21207e+06 67317.8 0 1.17274e+06 65548.3 0 1.13452e+06 63634.9 0 1.09748e+06 61614.1 0 1.06167e+06 59516.9 0 1.02713e+06 57366.2 0 1.2416e+06 -126694 0 1.36481e+06 -104507 0 1.44716e+06 -128172 0 1.53118e+06 -121953 0 1.60078e+06 -108038 0 1.65921e+06 -89002.2 0 1.70458e+06 -68727.1 0 1.73777e+06 -48419.7 0 1.75912e+06 -28998.5 0 1.76953e+06 -10979.6 0 1.76999e+06 5318.8 0 1.76162e+06 19718 0 1.74557e+06 32162 0 1.723e+06 42680.1 0 1.69502e+06 51369.7 0 1.66265e+06 58371.2 0 1.62681e+06 63850.4 0 1.58833e+06 67983.4 0 1.54793e+06 70945.5 0 1.50621e+06 72903.3 0 1.46371e+06 74010.8 0 1.42085e+06 74406.3 0 1.378e+06 74212 0 1.33545e+06 73534.2 0 1.29346e+06 72464.2 0 1.25221e+06 71079.7 0 1.21185e+06 69446.4 0 1.17252e+06 67619.1 0 1.1343e+06 65643.8 0 1.09726e+06 63558.1 0 1.06145e+06 61393.6 0 1.02692e+06 59174.6 0 1.24791e+06 -127338 0 1.36227e+06 -110548 0 1.44795e+06 -132571 0 1.53201e+06 -126089 0 1.60213e+06 -111380 0 1.66053e+06 -91688.4 0 1.7059e+06 -70729 0 1.73898e+06 -49776.4 0 1.76022e+06 -29750.6 0 1.77049e+06 -11177.7 0 1.77081e+06 5615.33 0 1.76229e+06 20447.6 0 1.7461e+06 33261.8 0 1.72341e+06 44089.8 0 1.69532e+06 53032.7 0 1.66284e+06 60235.8 0 1.62692e+06 65870.8 0 1.58837e+06 70119.2 0 1.5479e+06 73162 0 1.50614e+06 75171 0 1.46359e+06 76304.9 0 1.4207e+06 76706 0 1.37782e+06 76500.4 0 1.33526e+06 75797.3 0 1.29325e+06 74690.8 0 1.25199e+06 73260.9 0 1.21163e+06 71575.1 0 1.1723e+06 69690 0 1.13408e+06 67652.6 0 1.09704e+06 65501.9 0 1.06124e+06 63270.2 0 1.0267e+06 60982.8 0 1.2532e+06 -127878 0 1.36002e+06 -116461 0 1.44867e+06 -137076 0 1.53292e+06 -130230 0 1.60351e+06 -114732 0 1.6619e+06 -94370.2 0 1.70726e+06 -72724.2 0 1.74023e+06 -51124.4 0 1.76134e+06 -30492.7 0 1.77148e+06 -11365.6 0 1.77165e+06 5921.85 0 1.76298e+06 21186.7 0 1.74666e+06 34370.4 0 1.72384e+06 45507.4 0 1.69562e+06 54702.6 0 1.66305e+06 62106.4 0 1.62704e+06 67896.2 0 1.58841e+06 72259.3 0 1.54788e+06 75382 0 1.50606e+06 77441.6 0 1.46347e+06 78601.2 0 1.42055e+06 79007.5 0 1.37764e+06 78790 0 1.33506e+06 78061.3 0 1.29304e+06 76918.1 0 1.25177e+06 75442.6 0 1.21141e+06 73704.1 0 1.17207e+06 71760.9 0 1.13385e+06 69661.4 0 1.09681e+06 67445.5 0 1.06101e+06 65146.5 0 1.02649e+06 62790.6 0 1.25756e+06 -128323 0 1.35801e+06 -122270 0 1.44935e+06 -141681 0 1.5339e+06 -134378 0 1.60491e+06 -118093 0 1.6633e+06 -97047.6 0 1.70864e+06 -74712.6 0 1.74152e+06 -52463.4 0 1.7625e+06 -31224.9 0 1.77249e+06 -11543.4 0 1.77251e+06 6238.53 0 1.7637e+06 21935.4 0 1.74723e+06 35487.9 0 1.72428e+06 46933 0 1.69594e+06 56379.5 0 1.66326e+06 63983.2 0 1.62716e+06 69926.8 0 1.58845e+06 74403.6 0 1.54786e+06 77605.5 0 1.50599e+06 79714.9 0 1.46335e+06 80899.7 0 1.42039e+06 81310.7 0 1.37747e+06 81081 0 1.33487e+06 80326.4 0 1.29283e+06 79146.1 0 1.25155e+06 77624.6 0 1.21118e+06 75833.3 0 1.17184e+06 73831.9 0 1.13362e+06 71670.1 0 1.09658e+06 69389 0 1.06079e+06 67022.7 0 1.02626e+06 64598.1 0 1.26106e+06 -128679 0 1.35618e+06 -128003 0 1.45001e+06 -146379 0 1.53494e+06 -138536 0 1.60634e+06 -121463 0 1.66475e+06 -99720.7 0 1.71006e+06 -76694.1 0 1.74283e+06 -53793.4 0 1.76369e+06 -31946.9 0 1.77354e+06 -11710.8 0 1.7734e+06 6565.54 0 1.76444e+06 22693.8 0 1.74782e+06 36614.5 0 1.72473e+06 48366.8 0 1.69628e+06 58063.7 0 1.66349e+06 65866.2 0 1.62729e+06 71962.7 0 1.5885e+06 76552.4 0 1.54784e+06 79832.7 0 1.50591e+06 81991.3 0 1.46324e+06 83200.6 0 1.42024e+06 83615.7 0 1.37729e+06 83373.4 0 1.33467e+06 82592.4 0 1.29262e+06 81374.7 0 1.25133e+06 79807.1 0 1.21095e+06 77962.8 0 1.17161e+06 75903 0 1.13338e+06 73678.8 0 1.09635e+06 71332.4 0 1.06056e+06 68898.6 0 1.02604e+06 66405.3 0 1.26374e+06 -128953 0 1.3545e+06 -133686 0 1.45066e+06 -151165 0 1.53605e+06 -142704 0 1.6078e+06 -124840 0 1.66624e+06 -102389 0 1.71152e+06 -78668.7 0 1.74418e+06 -55114.1 0 1.76491e+06 -32658.6 0 1.77461e+06 -11867.6 0 1.77432e+06 6903.05 0 1.76519e+06 23462.3 0 1.74843e+06 37750.3 0 1.7252e+06 49809 0 1.69662e+06 59755.3 0 1.66372e+06 67755.6 0 1.62742e+06 74004.1 0 1.58856e+06 78705.7 0 1.54783e+06 82063.7 0 1.50584e+06 84270.6 0 1.46312e+06 85503.9 0 1.42009e+06 85922.6 0 1.37711e+06 85667.2 0 1.33447e+06 84859.4 0 1.2924e+06 83604.1 0 1.2511e+06 81990.1 0 1.21072e+06 80092.6 0 1.17137e+06 77974.2 0 1.13315e+06 75687.5 0 1.09612e+06 73275.6 0 1.06033e+06 70774.3 0 1.02581e+06 68212.3 0 1.26565e+06 -129148 0 1.35294e+06 -139342 0 1.45133e+06 -156034 0 1.53722e+06 -146884 0 1.6093e+06 -128225 0 1.66777e+06 -105054 0 1.713e+06 -80636 0 1.74557e+06 -56425.5 0 1.76616e+06 -33359.9 0 1.7757e+06 -12013.6 0 1.77525e+06 7251.24 0 1.76597e+06 24241 0 1.74906e+06 38895.5 0 1.72568e+06 51259.6 0 1.69697e+06 61454.4 0 1.66396e+06 69651.5 0 1.62757e+06 76050.9 0 1.58861e+06 80863.7 0 1.54781e+06 84298.4 0 1.50577e+06 86553 0 1.463e+06 87809.6 0 1.41994e+06 88231.4 0 1.37693e+06 87962.4 0 1.33426e+06 87127.5 0 1.29218e+06 85834.2 0 1.25087e+06 84173.6 0 1.21048e+06 82222.6 0 1.17113e+06 80045.5 0 1.13291e+06 77696.1 0 1.09588e+06 75218.7 0 1.06009e+06 72649.8 0 1.02558e+06 70018.9 0 1.26683e+06 -129268 0 1.35146e+06 -144997 0 1.45201e+06 -160982 0 1.53843e+06 -151078 0 1.61084e+06 -131615 0 1.66934e+06 -107714 0 1.71453e+06 -82596 0 1.74698e+06 -57727.2 0 1.76744e+06 -34050.5 0 1.77683e+06 -12148.6 0 1.77621e+06 7610.3 0 1.76677e+06 25030 0 1.7497e+06 40050.4 0 1.72618e+06 52718.9 0 1.69734e+06 63161.1 0 1.66421e+06 71554 0 1.62771e+06 78103.4 0 1.58868e+06 83026.3 0 1.54781e+06 86537 0 1.50571e+06 88838.6 0 1.46289e+06 90117.8 0 1.41978e+06 90542.1 0 1.37674e+06 90259.1 0 1.33406e+06 89396.8 0 1.29196e+06 88065.1 0 1.25064e+06 86357.6 0 1.21024e+06 84352.9 0 1.17089e+06 82117 0 1.13266e+06 79704.7 0 1.09563e+06 77161.6 0 1.05985e+06 74525 0 1.02534e+06 71825.3 0 1.26729e+06 -129315 0 1.35004e+06 -150674 0 1.45274e+06 -166006 0 1.53971e+06 -155285 0 1.61241e+06 -135011 0 1.67095e+06 -110370 0 1.71609e+06 -84548.6 0 1.74844e+06 -59019.2 0 1.76875e+06 -34730.4 0 1.77798e+06 -12272.5 0 1.7772e+06 7980.4 0 1.76759e+06 25829.5 0 1.75036e+06 41215 0 1.72669e+06 54187.1 0 1.69772e+06 64875.6 0 1.66447e+06 73463.2 0 1.62787e+06 80161.7 0 1.58875e+06 85193.8 0 1.5478e+06 88779.5 0 1.50564e+06 91127.3 0 1.46278e+06 92428.5 0 1.41963e+06 92854.8 0 1.37656e+06 92557.3 0 1.33385e+06 91667.1 0 1.29174e+06 90296.8 0 1.2504e+06 88542 0 1.21e+06 86483.5 0 1.17064e+06 84188.5 0 1.13241e+06 81713.4 0 1.09539e+06 79104.5 0 1.0596e+06 76400.1 0 1.0251e+06 73631.3 0 1.26706e+06 -129292 0 1.34868e+06 -156398 0 1.4535e+06 -171101 0 1.54103e+06 -159507 0 1.61403e+06 -138413 0 1.6726e+06 -113021 0 1.71769e+06 -86493.5 0 1.74992e+06 -60301.4 0 1.77009e+06 -35399.4 0 1.77916e+06 -12385.1 0 1.77821e+06 8361.73 0 1.76843e+06 26639.8 0 1.75103e+06 42389.6 0 1.72722e+06 55664.2 0 1.69811e+06 66598.1 0 1.66473e+06 75379.3 0 1.62803e+06 82225.8 0 1.58882e+06 87366.1 0 1.5478e+06 91026.1 0 1.50558e+06 93419.3 0 1.46266e+06 94741.9 0 1.41948e+06 95169.5 0 1.37638e+06 94857 0 1.33364e+06 93938.5 0 1.29151e+06 92529.3 0 1.25017e+06 90727.1 0 1.20975e+06 88614.4 0 1.17039e+06 86260.2 0 1.13216e+06 83722 0 1.09514e+06 81047.2 0 1.05936e+06 78275 0 1.02485e+06 75437.1 0 1.26613e+06 -129197 0 1.34735e+06 -162193 0 1.45432e+06 -176265 0 1.5424e+06 -163743 0 1.61569e+06 -141819 0 1.67429e+06 -115667 0 1.71932e+06 -88430.6 0 1.75144e+06 -61573.5 0 1.77147e+06 -36057.2 0 1.78037e+06 -12486.1 0 1.77924e+06 8754.48 0 1.76929e+06 27460.9 0 1.75173e+06 43574.2 0 1.72776e+06 57150.5 0 1.69851e+06 68328.6 0 1.66501e+06 77302.4 0 1.6282e+06 84295.8 0 1.58889e+06 89543.4 0 1.5478e+06 93276.7 0 1.50551e+06 95714.6 0 1.46255e+06 97057.9 0 1.41932e+06 97486.3 0 1.37619e+06 97158.3 0 1.33343e+06 96211.2 0 1.29128e+06 94762.6 0 1.24993e+06 92912.7 0 1.20951e+06 90745.6 0 1.17014e+06 88332 0 1.13191e+06 85730.6 0 1.09488e+06 82989.8 0 1.0591e+06 80149.6 0 1.02461e+06 77242.7 0 1.26452e+06 -129032 0 1.34605e+06 -168084 0 1.4552e+06 -181495 0 1.54382e+06 -167994 0 1.61739e+06 -145229 0 1.67602e+06 -118309 0 1.72099e+06 -90359.7 0 1.75299e+06 -62835.4 0 1.77287e+06 -36703.8 0 1.7816e+06 -12575.4 0 1.7803e+06 9158.83 0 1.77017e+06 28293.1 0 1.75244e+06 44769.2 0 1.72831e+06 58646 0 1.69892e+06 70067.3 0 1.66529e+06 79232.7 0 1.62838e+06 86371.9 0 1.58898e+06 91725.8 0 1.5478e+06 95531.6 0 1.50545e+06 98013.4 0 1.46243e+06 99376.6 0 1.41917e+06 99805.3 0 1.376e+06 99461.3 0 1.33322e+06 98485 0 1.29105e+06 96996.8 0 1.24968e+06 95098.8 0 1.20925e+06 92877.2 0 1.16988e+06 90404 0 1.13165e+06 87739.2 0 1.09462e+06 84932.3 0 1.05885e+06 82024.1 0 1.02435e+06 79047.9 0 1.2622e+06 -128796 0 1.34478e+06 -174098 0 1.45615e+06 -186786 0 1.5453e+06 -172261 0 1.61913e+06 -148642 0 1.67778e+06 -120946 0 1.7227e+06 -92280.7 0 1.75458e+06 -64087 0 1.7743e+06 -37338.8 0 1.78286e+06 -12652.9 0 1.78138e+06 9574.97 0 1.77107e+06 29136.7 0 1.75317e+06 45974.6 0 1.72888e+06 60151 0 1.69934e+06 71814.4 0 1.66559e+06 81170.1 0 1.62856e+06 88454.2 0 1.58906e+06 93913.4 0 1.54781e+06 97790.7 0 1.50539e+06 100316 0 1.46232e+06 101698 0 1.41901e+06 102126 0 1.37581e+06 101766 0 1.33301e+06 100760 0 1.29082e+06 99231.9 0 1.24944e+06 97285.6 0 1.209e+06 95009.2 0 1.16962e+06 92476.2 0 1.13139e+06 89747.8 0 1.09436e+06 86874.6 0 1.05859e+06 83898.4 0 1.0241e+06 80852.9 0 1.25916e+06 -128486 0 1.34354e+06 -180260 0 1.45716e+06 -192135 0 1.54681e+06 -176544 0 1.62093e+06 -152059 0 1.67959e+06 -123578 0 1.72444e+06 -94193.4 0 1.7562e+06 -65328 0 1.77577e+06 -37962.3 0 1.78415e+06 -12718.3 0 1.78249e+06 10003.1 0 1.77199e+06 29991.6 0 1.75391e+06 47190.6 0 1.72946e+06 61665.6 0 1.69977e+06 73570 0 1.66589e+06 83115 0 1.62874e+06 90542.8 0 1.58915e+06 96106.2 0 1.54782e+06 100054 0 1.50533e+06 102621 0 1.46221e+06 104022 0 1.41886e+06 104450 0 1.37562e+06 104072 0 1.33279e+06 103036 0 1.29058e+06 101468 0 1.24919e+06 99473 0 1.20874e+06 97141.5 0 1.16936e+06 94548.5 0 1.13112e+06 91756.4 0 1.0941e+06 88816.9 0 1.05833e+06 85772.4 0 1.02384e+06 82657.7 0 1.25538e+06 -128100 0 1.34234e+06 -186598 0 1.45825e+06 -197537 0 1.54838e+06 -180843 0 1.62277e+06 -155477 0 1.68143e+06 -126204 0 1.72622e+06 -96097.5 0 1.75786e+06 -66558.3 0 1.77727e+06 -38573.9 0 1.78547e+06 -12771.4 0 1.78362e+06 10443.4 0 1.77294e+06 30858.2 0 1.75468e+06 48417.5 0 1.73006e+06 63190 0 1.70021e+06 75334.3 0 1.6662e+06 85067.3 0 1.62894e+06 92637.7 0 1.58925e+06 98304.4 0 1.54783e+06 102322 0 1.50528e+06 104931 0 1.4621e+06 106349 0 1.4187e+06 106775 0 1.37543e+06 106380 0 1.33257e+06 105314 0 1.29035e+06 103705 0 1.24894e+06 101661 0 1.20848e+06 99274.2 0 1.16909e+06 96621 0 1.13085e+06 93765.1 0 1.09383e+06 90759.1 0 1.05806e+06 87646.3 0 1.02358e+06 84462.1 0 1.25081e+06 -127634 0 1.34119e+06 -193142 0 1.45942e+06 -202987 0 1.55e+06 -185158 0 1.62465e+06 -158897 0 1.68332e+06 -128826 0 1.72804e+06 -97992.9 0 1.75955e+06 -67777.8 0 1.77879e+06 -39173.5 0 1.78681e+06 -12812 0 1.78477e+06 10896.1 0 1.7739e+06 31736.7 0 1.75546e+06 49655.3 0 1.73066e+06 64724.3 0 1.70067e+06 77107.3 0 1.66652e+06 87027.3 0 1.62914e+06 94739.1 0 1.58935e+06 100508 0 1.54784e+06 104594 0 1.50522e+06 107243 0 1.46198e+06 108680 0 1.41854e+06 109103 0 1.37524e+06 108690 0 1.33235e+06 107593 0 1.29011e+06 105943 0 1.24868e+06 103850 0 1.20822e+06 101407 0 1.16882e+06 98693.7 0 1.13058e+06 95773.8 0 1.09356e+06 92701.2 0 1.05779e+06 89520 0 1.02331e+06 86266.3 0 1.24542e+06 -127084 0 1.34011e+06 -199921 0 1.46067e+06 -208479 0 1.55167e+06 -189491 0 1.62659e+06 -162317 0 1.68524e+06 -131442 0 1.7299e+06 -99879.3 0 1.76127e+06 -68986.3 0 1.78035e+06 -39760.9 0 1.78819e+06 -12840 0 1.78595e+06 11361.3 0 1.77488e+06 32627.1 0 1.75625e+06 50904.3 0 1.73129e+06 66268.7 0 1.70113e+06 78889.2 0 1.66684e+06 88995 0 1.62934e+06 96847.1 0 1.58945e+06 102717 0 1.54786e+06 106871 0 1.50517e+06 109560 0 1.46187e+06 111013 0 1.41838e+06 111433 0 1.37504e+06 111002 0 1.33213e+06 109873 0 1.28986e+06 108181 0 1.24842e+06 106039 0 1.20795e+06 103541 0 1.16855e+06 100767 0 1.13031e+06 97782.6 0 1.09328e+06 94643.3 0 1.05752e+06 91393.6 0 1.02304e+06 88070.3 0 1.23915e+06 -126444 0 1.33912e+06 -206969 0 1.46199e+06 -214006 0 1.55339e+06 -193843 0 1.62857e+06 -165736 0 1.6872e+06 -134053 0 1.7318e+06 -101756 0 1.76303e+06 -70183.6 0 1.78194e+06 -40335.9 0 1.78959e+06 -12855.1 0 1.78715e+06 11839.3 0 1.77588e+06 33529.8 0 1.75706e+06 52164.6 0 1.73192e+06 67823.3 0 1.70161e+06 80680.2 0 1.66718e+06 90970.5 0 1.62955e+06 98961.8 0 1.58956e+06 104932 0 1.54788e+06 109153 0 1.50511e+06 111881 0 1.46176e+06 113349 0 1.41822e+06 113766 0 1.37485e+06 113315 0 1.33191e+06 112155 0 1.28962e+06 110421 0 1.24816e+06 108229 0 1.20768e+06 105675 0 1.16827e+06 102840 0 1.13003e+06 99791.4 0 1.093e+06 96585.2 0 1.05724e+06 93266.9 0 1.02277e+06 89874 0 1.23194e+06 -125708 0 1.33826e+06 -214321 0 1.4634e+06 -219558 0 1.55517e+06 -198214 0 1.6306e+06 -169154 0 1.68921e+06 -136658 0 1.73373e+06 -103624 0 1.76482e+06 -71369.5 0 1.78356e+06 -40898.3 0 1.79101e+06 -12857.2 0 1.78837e+06 12330.3 0 1.77691e+06 34444.8 0 1.75789e+06 53436.4 0 1.73257e+06 69388.4 0 1.7021e+06 82480.4 0 1.66752e+06 92954 0 1.62977e+06 101083 0 1.58967e+06 107152 0 1.5479e+06 111439 0 1.50506e+06 114205 0 1.46165e+06 115688 0 1.41806e+06 116101 0 1.37465e+06 115630 0 1.33168e+06 114438 0 1.28937e+06 112662 0 1.2479e+06 110419 0 1.2074e+06 107809 0 1.16799e+06 104913 0 1.12974e+06 101800 0 1.09272e+06 98527.1 0 1.05696e+06 95140.1 0 1.02249e+06 91677.4 0 1.2237e+06 -124867 0 1.33757e+06 -222013 0 1.46487e+06 -225126 0 1.55701e+06 -202607 0 1.63268e+06 -172568 0 1.69125e+06 -139258 0 1.7357e+06 -105482 0 1.76664e+06 -72544 0 1.78521e+06 -41447.9 0 1.79247e+06 -12846.1 0 1.78962e+06 12834.4 0 1.77795e+06 35372.4 0 1.75874e+06 54719.9 0 1.73323e+06 70964 0 1.70259e+06 84290 0 1.66787e+06 94945.7 0 1.63e+06 103212 0 1.58978e+06 109379 0 1.54792e+06 113730 0 1.50501e+06 116533 0 1.46153e+06 118030 0 1.4179e+06 118438 0 1.37445e+06 117947 0 1.33145e+06 116722 0 1.28912e+06 114904 0 1.24763e+06 112611 0 1.20713e+06 109944 0 1.16771e+06 106987 0 1.12946e+06 103809 0 1.09243e+06 100469 0 1.05667e+06 97013 0 1.02221e+06 93480.6 0 1.21434e+06 -123912 0 1.3371e+06 -230086 0 1.46641e+06 -230696 0 1.55891e+06 -207023 0 1.63481e+06 -175978 0 1.69333e+06 -141853 0 1.73771e+06 -107330 0 1.7685e+06 -73706.8 0 1.7869e+06 -41984.5 0 1.79395e+06 -12821.5 0 1.79089e+06 13351.9 0 1.77901e+06 36312.8 0 1.7596e+06 56015.3 0 1.73391e+06 72550.3 0 1.7031e+06 86109 0 1.66823e+06 96945.5 0 1.63022e+06 105347 0 1.5899e+06 111611 0 1.54795e+06 116026 0 1.50496e+06 118865 0 1.46142e+06 120375 0 1.41774e+06 120778 0 1.37425e+06 120266 0 1.33122e+06 119008 0 1.28887e+06 117147 0 1.24736e+06 114803 0 1.20685e+06 112079 0 1.16742e+06 109061 0 1.12917e+06 105818 0 1.09214e+06 102411 0 1.05638e+06 98885.8 0 1.02192e+06 95283.6 0 1.20377e+06 -122833 0 1.3369e+06 -238583 0 1.468e+06 -236255 0 1.56088e+06 -211467 0 1.63698e+06 -179380 0 1.69546e+06 -144443 0 1.73976e+06 -109168 0 1.77039e+06 -74857.7 0 1.78861e+06 -42507.9 0 1.79546e+06 -12783.2 0 1.79219e+06 13883 0 1.7801e+06 37266.2 0 1.76048e+06 57322.7 0 1.7346e+06 74147.5 0 1.70362e+06 87937.7 0 1.66859e+06 98953.7 0 1.63046e+06 107490 0 1.59002e+06 113849 0 1.54798e+06 118327 0 1.50491e+06 121201 0 1.46131e+06 122724 0 1.41758e+06 123120 0 1.37405e+06 122587 0 1.33099e+06 121296 0 1.28861e+06 119391 0 1.24709e+06 116996 0 1.20656e+06 114215 0 1.16713e+06 111135 0 1.12887e+06 107827 0 1.09185e+06 104352 0 1.05609e+06 100758 0 1.02163e+06 97086.3 0 1.19184e+06 -121616 0 1.33704e+06 -247552 0 1.46963e+06 -241786 0 1.56293e+06 -215942 0 1.63919e+06 -182774 0 1.69763e+06 -147029 0 1.74185e+06 -110995 0 1.77232e+06 -75996.7 0 1.79036e+06 -43018 0 1.79699e+06 -12731.1 0 1.79351e+06 14427.8 0 1.7812e+06 38232.7 0 1.76138e+06 58642.3 0 1.7353e+06 75755.8 0 1.70415e+06 89776.1 0 1.66897e+06 100970 0 1.6307e+06 109639 0 1.59015e+06 116093 0 1.54801e+06 120633 0 1.50486e+06 123541 0 1.4612e+06 125076 0 1.41741e+06 125465 0 1.37384e+06 124911 0 1.33075e+06 123585 0 1.28835e+06 121636 0 1.24682e+06 119189 0 1.20628e+06 116351 0 1.16684e+06 113209 0 1.12858e+06 109836 0 1.09155e+06 106294 0 1.05579e+06 102631 0 1.02134e+06 98888.7 0 1.17842e+06 -120247 0 1.33762e+06 -257043 0 1.47127e+06 -247267 0 1.56506e+06 -220453 0 1.64145e+06 -186156 0 1.69984e+06 -149610 0 1.74397e+06 -112811 0 1.77429e+06 -77123.6 0 1.79213e+06 -43514.4 0 1.79856e+06 -12664.9 0 1.79485e+06 14986.6 0 1.78232e+06 39212.6 0 1.76229e+06 59974.4 0 1.73602e+06 77375.3 0 1.70469e+06 91624.5 0 1.66935e+06 102996 0 1.63095e+06 111797 0 1.59028e+06 118343 0 1.54804e+06 122944 0 1.50482e+06 125886 0 1.46109e+06 127431 0 1.41725e+06 127813 0 1.37364e+06 127236 0 1.33051e+06 125875 0 1.28809e+06 123882 0 1.24654e+06 121384 0 1.20599e+06 118488 0 1.16654e+06 115284 0 1.12827e+06 111846 0 1.09125e+06 108235 0 1.05549e+06 104503 0 1.02104e+06 100691 0 1.16334e+06 -118708 0 1.33873e+06 -267113 0 1.4729e+06 -252675 0 1.5673e+06 -225007 0 1.64374e+06 -189522 0 1.7021e+06 -152188 0 1.74613e+06 -114615 0 1.77629e+06 -78238.2 0 1.79394e+06 -43997.1 0 1.80015e+06 -12584.4 0 1.79622e+06 15559.5 0 1.78346e+06 40206.1 0 1.76322e+06 61318.9 0 1.73675e+06 79006.1 0 1.70524e+06 93482.8 0 1.66974e+06 105030 0 1.6312e+06 113961 0 1.59041e+06 120600 0 1.54808e+06 125260 0 1.50477e+06 128234 0 1.46097e+06 129790 0 1.41708e+06 130163 0 1.37343e+06 129563 0 1.33027e+06 128167 0 1.28783e+06 126129 0 1.24626e+06 123579 0 1.20569e+06 120625 0 1.16624e+06 117359 0 1.12797e+06 113855 0 1.09094e+06 110177 0 1.05519e+06 106375 0 1.02074e+06 102493 0 1.1464e+06 -116979 0 1.34049e+06 -277822 0 1.47447e+06 -257983 0 1.56965e+06 -229611 0 1.64605e+06 -192870 0 1.70441e+06 -154763 0 1.74833e+06 -116407 0 1.77832e+06 -79340.3 0 1.79578e+06 -44465.8 0 1.80177e+06 -12489.4 0 1.79761e+06 16146.7 0 1.78463e+06 41213.3 0 1.76416e+06 62676.3 0 1.73749e+06 80648.5 0 1.70579e+06 95351.4 0 1.67014e+06 107072 0 1.63145e+06 116133 0 1.59055e+06 122863 0 1.54811e+06 127581 0 1.50472e+06 130587 0 1.46086e+06 132152 0 1.41692e+06 132516 0 1.37322e+06 131892 0 1.33003e+06 130460 0 1.28756e+06 128377 0 1.24597e+06 125775 0 1.2054e+06 122763 0 1.16594e+06 119434 0 1.12766e+06 115864 0 1.09063e+06 112118 0 1.05488e+06 108247 0 1.02044e+06 104295 0 1.12737e+06 -115038 0 1.34305e+06 -289239 0 1.47594e+06 -263158 0 1.57215e+06 -234276 0 1.64839e+06 -196194 0 1.70677e+06 -157336 0 1.75056e+06 -118186 0 1.78039e+06 -80429.7 0 1.79765e+06 -44920.4 0 1.80342e+06 -12379.5 0 1.79902e+06 16748.5 0 1.78581e+06 42234.6 0 1.76512e+06 64046.5 0 1.73824e+06 82302.6 0 1.70636e+06 97230.3 0 1.67054e+06 109124 0 1.63172e+06 118313 0 1.59069e+06 125132 0 1.54815e+06 129908 0 1.50468e+06 132944 0 1.46075e+06 134517 0 1.41675e+06 134872 0 1.37301e+06 134223 0 1.32979e+06 132755 0 1.28729e+06 130627 0 1.24568e+06 127971 0 1.2051e+06 124901 0 1.16563e+06 121509 0 1.12735e+06 117874 0 1.09032e+06 114060 0 1.05457e+06 110119 0 1.02013e+06 106096 0 1.106e+06 -112857 0 1.34657e+06 -301435 0 1.47724e+06 -268162 0 1.57482e+06 -239012 0 1.65073e+06 -199489 0 1.7092e+06 -159909 0 1.75282e+06 -119953 0 1.7825e+06 -81506.3 0 1.79955e+06 -45360.8 0 1.80509e+06 -12254.6 0 1.80046e+06 17364.9 0 1.78701e+06 43270.1 0 1.7661e+06 65429.8 0 1.73901e+06 83968.5 0 1.70694e+06 99119.7 0 1.67095e+06 111185 0 1.63198e+06 120500 0 1.59084e+06 127408 0 1.54819e+06 132240 0 1.50464e+06 135305 0 1.46063e+06 136886 0 1.41658e+06 137230 0 1.3728e+06 136556 0 1.32954e+06 135052 0 1.28702e+06 132878 0 1.24539e+06 130169 0 1.20479e+06 127040 0 1.16532e+06 123585 0 1.12703e+06 119884 0 1.09e+06 116001 0 1.05425e+06 111991 0 1.01982e+06 107898 0 1.08198e+06 -110406 0 1.35126e+06 -314492 0 1.4783e+06 -272952 0 1.5777e+06 -243835 0 1.65306e+06 -202748 0 1.71169e+06 -162483 0 1.75511e+06 -121705 0 1.78465e+06 -82569.7 0 1.80148e+06 -45786.8 0 1.80679e+06 -12114.2 0 1.80192e+06 17996.1 0 1.78823e+06 44320 0 1.76709e+06 66826.4 0 1.73979e+06 85646.5 0 1.70753e+06 101020 0 1.67137e+06 113255 0 1.63226e+06 122695 0 1.59098e+06 129690 0 1.54824e+06 134577 0 1.50459e+06 137671 0 1.46052e+06 139258 0 1.41641e+06 139592 0 1.37258e+06 138892 0 1.32929e+06 137351 0 1.28674e+06 135130 0 1.2451e+06 132367 0 1.20449e+06 129179 0 1.165e+06 125661 0 1.12671e+06 121893 0 1.08968e+06 117943 0 1.05393e+06 113862 0 1.0195e+06 109699 0 1.05496e+06 -107649 0 1.35736e+06 -328498 0 1.47901e+06 -277478 0 1.58083e+06 -248761 0 1.65536e+06 -205965 0 1.71426e+06 -165061 0 1.75743e+06 -123443 0 1.78684e+06 -83619.8 0 1.80344e+06 -46198.5 0 1.80852e+06 -11958 0 1.80341e+06 18642.3 0 1.78947e+06 45384.6 0 1.7681e+06 68236.3 0 1.74058e+06 87336.7 0 1.70813e+06 102930 0 1.6718e+06 115334 0 1.63253e+06 124898 0 1.59113e+06 131979 0 1.54828e+06 136920 0 1.50455e+06 140042 0 1.46041e+06 141634 0 1.41624e+06 141956 0 1.37237e+06 141230 0 1.32904e+06 139651 0 1.28647e+06 137383 0 1.2448e+06 134567 0 1.20418e+06 131319 0 1.16468e+06 127737 0 1.12639e+06 123903 0 1.08936e+06 119884 0 1.05361e+06 115733 0 1.01918e+06 111500 0 1.02454e+06 -104545 0 1.36513e+06 -343554 0 1.47926e+06 -281680 0 1.58427e+06 -253813 0 1.6576e+06 -209129 0 1.71692e+06 -167644 0 1.75976e+06 -125166 0 1.78907e+06 -84656 0 1.80543e+06 -46596 0 1.81028e+06 -11785.5 0 1.80491e+06 19303.4 0 1.79074e+06 46464.3 0 1.76912e+06 69659.8 0 1.74139e+06 89039.4 0 1.70874e+06 104852 0 1.67223e+06 117423 0 1.63282e+06 127110 0 1.59129e+06 134275 0 1.54833e+06 139268 0 1.50451e+06 142416 0 1.46029e+06 144014 0 1.41607e+06 144323 0 1.37215e+06 143570 0 1.32879e+06 141952 0 1.28619e+06 139637 0 1.2445e+06 136767 0 1.20386e+06 133459 0 1.16436e+06 129814 0 1.12607e+06 125913 0 1.08903e+06 121825 0 1.05328e+06 117604 0 1.01886e+06 113301 0 </DataArray> 
</PointData> 
<Points> 
<DataArray type="Float32" NumberOfComponents="3"> 