<?xml version="1.0"?> 
<VTKFile type="StructuredGrid" version="0.1"> 
<StructuredGrid WholeExtent="0 31 0 31 0 0"> 
<Piece Extent="0 31 0 31 0 0"> 
<PointData>
<DataArray type="Float32" Name="|E|" format="ascii" NumberOfComponents="3"> 
16676.3 4.04721e+06 0 13505.3 4.05371e+06 0 11100 4.06189e+06 0 9210.83 4.07178e+06 0 7685.69 4.08346e+06 0 6426.63 4.09699e+06 0 5367.67 4.11247e+06 0 4462.75 4.13002e+06 0 3678.73 4.1498e+06 0 2991.08 4.17199e+06 0 2381.27 4.19683e+06 0 1834.96 4.22459e+06 0 1340.88 4.25558e+06 0 889.956 4.29019e+06 0 474.786 4.32888e+06 0 89.1831 4.3722e+06 0 -272.128 4.42079e+06 0 -613.762 4.47547e+06 0 -939.875 4.53723e+06 0 -1254.35 4.60731e+06 0 -1560.99 4.68731e+06 0 -1863.72 4.77941e+06 0 -2166.97 4.88674e+06 0 -2476.29 5.01416e+06 0 -2799.65 5.16997e+06 0 -3150.22 5.3694e+06 0 -3552.51 5.64225e+06 0 -4055.88 6.04886e+06 0 -4763.48 6.71327e+06 0 -5894.64 7.89196e+06 0 -7910.57 1.01063e+07 0 -11789.9 1.44282e+07 0 104465 4.06097e+06 0 107555 4.07137e+06 0 110886 4.08321e+06 0 114527 4.09664e+06 0 118545 4.11181e+06 0 123017 4.1289e+06 0 128028 4.1481e+06 0 133673 4.1696e+06 0 140061 4.19364e+06 0 147316 4.22048e+06 0 155590 4.25044e+06 0 165062 4.28387e+06 0 175956 4.3212e+06 0 188553 4.36292e+06 0 203209 4.40964e+06 0 220385 4.4621e+06 0 240693 4.52119e+06 0 264949 4.58801e+06 0 294272 4.66392e+06 0 330225 4.75067e+06 0 375023 4.85042e+06 0 431876 4.96593e+06 0 505484 5.10059e+06 0 602798 5.2584e+06 0 734104 5.44346e+06 0 914473 5.65838e+06 0 1.16549e+06 5.89999e+06 0 1.51637e+06 6.14919e+06 0 2.0038e+06 6.34729e+06 0 2.66185e+06 6.34667e+06 0 3.50859e+06 5.80114e+06 0 4.44981e+06 3.95976e+06 0 208284 4.05158e+06 0 215345 4.06365e+06 0 223230 4.07725e+06 0 232038 4.09249e+06 0 241882 4.1095e+06 0 252895 4.12843e+06 0 265238 4.14944e+06 0 279108 4.17271e+06 0 294738 4.19846e+06 0 312412 4.22691e+06 0 332476 4.25833e+06 0 355354 4.29301e+06 0 381568 4.33127e+06 0 411768 4.37346e+06 0 446768 4.41995e+06 0 487593 4.47114e+06 0 535545 4.52738e+06 0 592276 4.589e+06 0 659889 4.65613e+06 0 741042 4.72865e+06 0 839052 4.8058e+06 0 957951 4.88584e+06 0 1.10241e+06 4.96529e+06 0 1.27741e+06 5.03782e+06 0 1.48725e+06 5.09276e+06 0 1.73374e+06 5.11317e+06 0 2.01269e+06 5.0744e+06 0 2.30868e+06 4.94517e+06 0 2.58741e+06 4.69755e+06 0 2.79237e+06 4.3388e+06 0 2.84322e+06 3.9972e+06 0 2.70434e+06 4.13122e+06 0 309408 4.01828e+06 0 321326 4.03056e+06 0 334530 4.04417e+06 0 349190 4.05916e+06 0 365482 4.07565e+06 0 383619 4.09371e+06 0 403850 4.11344e+06 0 426465 4.13494e+06 0 451809 4.15828e+06 0 480286 4.18356e+06 0 512377 4.21083e+06 0 548649 4.24011e+06 0 589774 4.27136e+06 0 636543 4.30449e+06 0 689883 4.33926e+06 0 750866 4.37525e+06 0 820714 4.41179e+06 0 900770 4.44783e+06 0 992446 4.48181e+06 0 1.09709e+06 4.51147e+06 0 1.21579e+06 4.53364e+06 0 1.34896e+06 4.54409e+06 0 1.49585e+06 4.53744e+06 0 1.65383e+06 4.50738e+06 0 1.8176e+06 4.44758e+06 0 1.97866e+06 4.35352e+06 0 2.12578e+06 4.2259e+06 0 2.24729e+06 4.07523e+06 0 2.33755e+06 3.92508e+06 0 2.40476e+06 3.80467e+06 0 2.48392e+06 3.70716e+06 0 2.60492e+06 3.43739e+06 0 401198 3.96417e+06 0 417740 3.97491e+06 0 435961 3.9866e+06 0 456061 3.99925e+06 0 478250 4.01287e+06 0 502773 4.02746e+06 0 529906 4.04299e+06 0 559965 4.05942e+06 0 593307 4.07664e+06 0 630333 4.09454e+06 0 671490 4.11291e+06 0 717274 4.13147e+06 0 768216 4.14981e+06 0 824879 4.16741e+06 0 887827 4.18353e+06 0 957591 4.19724e+06 0 1.0346e+06 4.20732e+06 0 1.11911e+06 4.21226e+06 0 1.21107e+06 4.21024e+06 0 1.30994e+06 4.19919e+06 0 1.41461e+06 4.17685e+06 0 1.52317e+06 4.1411e+06 0 1.63288e+06 4.09029e+06 0 1.74032e+06 4.02384e+06 0 1.84181e+06 3.94282e+06 0 1.93429e+06 3.85027e+06 0 2.01627e+06 3.75058e+06 0 2.08857e+06 3.64719e+06 0 2.15266e+06 3.53832e+06 0 2.20722e+06 3.41417e+06 0 2.237e+06 3.26913e+06 0 2.22965e+06 3.18564e+06 0 478462 3.89408e+06 0 498858 3.90199e+06 0 521149 3.91036e+06 0 545532 3.91913e+06 0 572205 3.92823e+06 0 601392 3.93757e+06 0 633334 3.947e+06 0 668289 3.95634e+06 0 706529 3.96538e+06 0 748336 3.97381e+06 0 793991 3.98127e+06 0 843760 3.9873e+06 0 897876 3.99135e+06 0 956510 3.99274e+06 0 1.01974e+06 3.99068e+06 0 1.08749e+06 3.98426e+06 0 1.15951e+06 3.97249e+06 0 1.2353e+06 3.95431e+06 0 1.31406e+06 3.9287e+06 0 1.39471e+06 3.89475e+06 0 1.47585e+06 3.85182e+06 0 1.5559e+06 3.79966e+06 0 1.63321e+06 3.73854e+06 0 1.70626e+06 3.66918e+06 0 1.77384e+06 3.59261e+06 0 1.835e+06 3.50974e+06 0 1.88883e+06 3.42105e+06 0 1.9339e+06 3.3268e+06 0 1.96866e+06 3.22873e+06 0 1.99237e+06 3.13302e+06 0 2.01273e+06 3.04883e+06 0 2.03547e+06 2.94861e+06 0 538950 3.81385e+06 0 562092 3.81813e+06 0 587163 3.82239e+06 0 614324 3.8265e+06 0 643729 3.83033e+06 0 675540 3.8337e+06 0 709919 3.83642e+06 0 747022 3.83823e+06 0 786994 3.83884e+06 0 829957 3.83791e+06 0 875995 3.83503e+06 0 925146 3.82974e+06 0 977373 3.82154e+06 0 1.03255e+06 3.80985e+06 0 1.09044e+06 3.7941e+06 0 1.15068e+06 3.77368e+06 0 1.21275e+06 3.74803e+06 0 1.27599e+06 3.71666e+06 0 1.33961e+06 3.6792e+06 0 1.4027e+06 3.63545e+06 0 1.46431e+06 3.58542e+06 0 1.52348e+06 3.52931e+06 0 1.5793e+06 3.46751e+06 0 1.63092e+06 3.40053e+06 0 1.67757e+06 3.32901e+06 0 1.71859e+06 3.25378e+06 0 1.75352e+06 3.17602e+06 0 1.78252e+06 3.09733e+06 0 1.80631e+06 3.01924e+06 0 1.82627e+06 2.94131e+06 0 1.83932e+06 2.85998e+06 0 1.8446e+06 2.78424e+06 0 582640 3.72872e+06 0 607403 3.72914e+06 0 633982 3.72908e+06 0 662487 3.72842e+06 0 693011 3.72697e+06 0 725644 3.72454e+06 0 760460 3.7209e+06 0 797513 3.7158e+06 0 836829 3.70895e+06 0 878394 3.70002e+06 0 922151 3.68868e+06 0 967979 3.67454e+06 0 1.01569e+06 3.65723e+06 0 1.06503e+06 3.63638e+06 0 1.11565e+06 3.61163e+06 0 1.16711e+06 3.58267e+06 0 1.21892e+06 3.54926e+06 0 1.27049e+06 3.51123e+06 0 1.32121e+06 3.46853e+06 0 1.37044e+06 3.42122e+06 0 1.41754e+06 3.36949e+06 0 1.46191e+06 3.31365e+06 0 1.503e+06 3.25412e+06 0 1.54035e+06 3.19143e+06 0 1.57365e+06 3.12624e+06 0 1.60274e+06 3.05924e+06 0 1.62767e+06 2.99107e+06 0 1.6484e+06 2.92214e+06 0 1.66487e+06 2.85255e+06 0 1.6764e+06 2.7829e+06 0 1.68492e+06 2.71526e+06 0 1.69077e+06 2.6482e+06 0 611002 3.64286e+06 0 636423 3.6395e+06 0 663456 3.63533e+06 0 692156 3.63021e+06 0 722563 3.62395e+06 0 754699 3.61636e+06 0 788564 3.60723e+06 0 824133 3.59633e+06 0 861347 3.5834e+06 0 900109 3.56819e+06 0 940278 3.55045e+06 0 981661 3.52991e+06 0 1.02402e+06 3.50633e+06 0 1.06705e+06 3.47949e+06 0 1.11042e+06 3.44921e+06 0 1.15373e+06 3.41538e+06 0 1.19656e+06 3.37791e+06 0 1.23847e+06 3.33683e+06 0 1.279e+06 3.29222e+06 0 1.31772e+06 3.24425e+06 0 1.3542e+06 3.19317e+06 0 1.38811e+06 3.1393e+06 0 1.41913e+06 3.08303e+06 0 1.44705e+06 3.02478e+06 0 1.47173e+06 2.96498e+06 0 1.49307e+06 2.90403e+06 0 1.511e+06 2.84234e+06 0 1.52557e+06 2.78032e+06 0 1.53689e+06 2.71858e+06 0 1.54567e+06 2.65752e+06 0 1.55123e+06 2.59704e+06 0 1.55402e+06 2.53742e+06 0 626197 3.5591e+06 0 651541 3.55228e+06 0 678250 3.54442e+06 0 706338 3.53536e+06 0 735795 3.52495e+06 0 766593 3.51302e+06 0 798684 3.49937e+06 0 831988 3.48382e+06 0 866398 3.46618e+06 0 901774 3.44626e+06 0 937940 3.42388e+06 0 974685 3.39889e+06 0 1.01176e+06 3.37113e+06 0 1.0489e+06 3.34052e+06 0 1.08579e+06 3.30699e+06 0 1.12211e+06 3.27051e+06 0 1.15753e+06 3.23112e+06 0 1.19172e+06 3.18892e+06 0 1.22436e+06 3.14405e+06 0 1.25517e+06 3.09671e+06 0 1.28387e+06 3.04715e+06 0 1.31025e+06 2.99564e+06 0 1.33415e+06 2.94249e+06 0 1.35543e+06 2.88804e+06 0 1.37402e+06 2.8326e+06 0 1.38991e+06 2.77653e+06 0 1.40314e+06 2.72015e+06 0 1.4138e+06 2.66381e+06 0 1.42204e+06 2.6077e+06 0 1.42767e+06 2.55203e+06 0 1.43127e+06 2.497e+06 0 1.43283e+06 2.44304e+06 0 630523 3.47921e+06 0 655273 3.46933e+06 0 681137 3.45826e+06 0 708094 3.44585e+06 0 736101 3.43197e+06 0 765098 3.41647e+06 0 795001 3.39921e+06 0 825706 3.38004e+06 0 857083 3.35883e+06 0 888974 3.33544e+06 0 921200 3.30977e+06 0 953556 3.28174e+06 0 985819 3.25127e+06 0 1.01775e+06 3.21833e+06 0 1.04909e+06 3.18294e+06 0 1.0796e+06 3.14514e+06 0 1.10901e+06 3.10501e+06 0 1.13709e+06 3.06267e+06 0 1.16362e+06 3.0183e+06 0 1.1884e+06 2.97207e+06 0 1.21126e+06 2.92422e+06 0 1.23206e+06 2.87499e+06 0 1.25072e+06 2.82463e+06 0 1.26717e+06 2.7734e+06 0 1.2814e+06 2.72158e+06 0 1.29343e+06 2.66942e+06 0 1.30329e+06 2.61716e+06 0 1.31104e+06 2.565e+06 0 1.31673e+06 2.51317e+06 0 1.32066e+06 2.46185e+06 0 1.32272e+06 2.41129e+06 0 1.32316e+06 2.36145e+06 0 626104 3.40415e+06 0 649922 3.39162e+06 0 674619 3.3778e+06 0 700146 3.36258e+06 0 726441 3.34585e+06 0 753423 3.32748e+06 0 780992 3.30736e+06 0 809033 3.2854e+06 0 837407 3.2615e+06 0 865961 3.23558e+06 0 894525 3.20759e+06 0 922914 3.17748e+06 0 950932 3.14525e+06 0 978381 3.11092e+06 0 1.00506e+06 3.07452e+06 0 1.03076e+06 3.03615e+06 0 1.05531e+06 2.99589e+06 0 1.07852e+06 2.9539e+06 0 1.10025e+06 2.91032e+06 0 1.12035e+06 2.86534e+06 0 1.13872e+06 2.81915e+06 0 1.15529e+06 2.77197e+06 0 1.17001e+06 2.724e+06 0 1.18285e+06 2.67546e+06 0 1.19381e+06 2.62656e+06 0 1.20293e+06 2.57751e+06 0 1.21026e+06 2.52848e+06 0 1.21586e+06 2.47967e+06 0 1.21985e+06 2.43122e+06 0 1.22223e+06 2.38332e+06 0 1.22322e+06 2.33599e+06 0 1.22287e+06 2.28946e+06 0 614765 3.33431e+06 0 637446 3.31951e+06 0 660792 3.30337e+06 0 684740 3.28582e+06 0 709215 3.26674e+06 0 734127 3.24606e+06 0 759369 3.22369e+06 0 784824 3.19958e+06 0 810359 3.17365e+06 0 835830 3.14588e+06 0 861083 3.11623e+06 0 885957 3.08472e+06 0 910288 3.05135e+06 0 933911 3.01619e+06 0 956667 2.97929e+06 0 978402 2.94075e+06 0 998977 2.90069e+06 0 1.01827e+06 2.85923e+06 0 1.03616e+06 2.81653e+06 0 1.05257e+06 2.77275e+06 0 1.06744e+06 2.72807e+06 0 1.08071e+06 2.68266e+06 0 1.09237e+06 2.63671e+06 0 1.10242e+06 2.59038e+06 0 1.11088e+06 2.54386e+06 0 1.11778e+06 2.4973e+06 0 1.12317e+06 2.45087e+06 0 1.12713e+06 2.40469e+06 0 1.12971e+06 2.35892e+06 0 1.13104e+06 2.31363e+06 0 1.13116e+06 2.26897e+06 0 1.13018e+06 2.22499e+06 0 598003 3.26975e+06 0 619432 3.253e+06 0 641340 3.23491e+06 0 663656 3.2154e+06 0 686298 3.1944e+06 0 709174 3.17186e+06 0 732178 3.14771e+06 0 755197 3.12191e+06 0 778107 3.09444e+06 0 800778 3.06529e+06 0 823075 3.03445e+06 0 844861 3.00197e+06 0 865999 2.96787e+06 0 886357 2.93222e+06 0 905808 2.8951e+06 0 924236 2.85662e+06 0 941537 2.81688e+06 0 957621 2.77601e+06 0 972414 2.73416e+06 0 985861 2.69148e+06 0 997923 2.6481e+06 0 1.00858e+06 2.6042e+06 0 1.01783e+06 2.55991e+06 0 1.02568e+06 2.5154e+06 0 1.03216e+06 2.47081e+06 0 1.03731e+06 2.42626e+06 0 1.04119e+06 2.3819e+06 0 1.04385e+06 2.33783e+06 0 1.04538e+06 2.29416e+06 0 1.04582e+06 2.251e+06 0 1.04527e+06 2.20841e+06 0 1.04381e+06 2.16647e+06 0 577014 3.21031e+06 0 597137 3.19189e+06 0 617580 3.17214e+06 0 638267 3.15099e+06 0 659118 3.12841e+06 0 680039 3.10434e+06 0 700932 3.07875e+06 0 721689 3.05162e+06 0 742200 3.02296e+06 0 762348 2.99276e+06 0 782018 2.96105e+06 0 801094 2.92787e+06 0 819464 2.89328e+06 0 837022 2.85735e+06 0 853668 2.82017e+06 0 869316 2.78183e+06 0 883888 2.74246e+06 0 897322 2.70216e+06 0 909568 2.66108e+06 0 920593 2.61933e+06 0 930377 2.57707e+06 0 938915 2.53442e+06 0 946215 2.49151e+06 0 952300 2.44848e+06 0 957200 2.40544e+06 0 960959 2.36252e+06 0 963627 2.31981e+06 0 965263 2.27743e+06 0 965923 2.23545e+06 0 965681 2.19396e+06 0 964600 2.15303e+06 0 962752 2.11271e+06 0 552737 3.15572e+06 0 571537 3.13586e+06 0 590524 3.11469e+06 0 609621 3.09216e+06 0 628749 3.06824e+06 0 647819 3.0429e+06 0 666739 3.01614e+06 0 685412 2.98794e+06 0 703739 2.95832e+06 0 721619 2.9273e+06 0 738953 2.89492e+06 0 755645 2.86122e+06 0 771604 2.82629e+06 0 786746 2.79019e+06 0 800993 2.75301e+06 0 814281 2.71485e+06 0 826553 2.67582e+06 0 837768 2.63603e+06 0 847894 2.5956e+06 0 856913 2.55465e+06 0 864820 2.5133e+06 0 871618 2.47167e+06 0 877326 2.42989e+06 0 881970 2.38805e+06 0 885583 2.34627e+06 0 888210 2.30464e+06 0 889898 2.26327e+06 0 890699 2.22222e+06 0 890673 2.18159e+06 0 889876 2.14144e+06 0 888371 2.10182e+06 0 886219 2.06279e+06 0 525898 3.10568e+06 0 543383 3.08456e+06 0 560943 3.06215e+06 0 578504 3.03843e+06 0 595989 3.01337e+06 0 613317 2.98696e+06 0 630403 2.9592e+06 0 647160 2.93011e+06 0 663500 2.8997e+06 0 679338 2.86801e+06 0 694590 2.83509e+06 0 709176 2.80099e+06 0 723023 2.76579e+06 0 736065 2.72957e+06 0 748243 2.6924e+06 0 759508 2.6544e+06 0 769823 2.61566e+06 0 779160 2.57629e+06 0 787501 2.5364e+06 0 794839 2.4961e+06 0 801179 2.45549e+06 0 806533 2.41469e+06 0 810922 2.3738e+06 0 814376 2.33291e+06 0 816931 2.29213e+06 0 818629 2.25154e+06 0 819515 2.21121e+06 0 819641 2.17123e+06 0 819056 2.13167e+06 0 817816 2.09257e+06 0 815975 2.05399e+06 0 813587 2.01599e+06 0 497058 3.05986e+06 0 513248 3.03762e+06 0 529421 3.01412e+06 0 545506 2.98935e+06 0 561431 2.96329e+06 0 577123 2.93595e+06 0 592504 2.90734e+06 0 607498 2.87747e+06 0 622029 2.84639e+06 0 636023 2.81412e+06 0 649410 2.78074e+06 0 662126 2.74629e+06 0 674112 2.71086e+06 0 685316 2.67451e+06 0 695695 2.63735e+06 0 705214 2.59946e+06 0 713847 2.56095e+06 0 721579 2.5219e+06 0 728403 2.48243e+06 0 734319 2.44263e+06 0 739339 2.4026e+06 0 743481 2.36245e+06 0 746769 2.32226e+06 0 749234 2.28212e+06 0 750912 2.24212e+06 0 751845 2.20233e+06 0 752075 2.16283e+06 0 751650 2.12368e+06 0 750616 2.08495e+06 0 749023 2.04668e+06 0 746918 2.00892e+06 0 744353 1.97171e+06 0 466641 3.01793e+06 0 481562 2.99468e+06 0 496391 2.97021e+06 0 511062 2.94449e+06 0 525509 2.91754e+06 0 539664 2.88937e+06 0 553459 2.85999e+06 0 566828 2.82943e+06 0 579704 2.79774e+06 0 592027 2.76495e+06 0 603737 2.73114e+06 0 614782 2.69636e+06 0 625118 2.6607e+06 0 634703 2.62422e+06 0 643507 2.58702e+06 0 651506 2.54919e+06 0 658685 2.51082e+06 0 665036 2.472e+06 0 670560 2.43283e+06 0 675266 2.3934e+06 0 679167 2.35381e+06 0 682286 2.31414e+06 0 684649 2.27448e+06 0 686289 2.2349e+06 0 687240 2.1955e+06 0 687542 2.15633e+06 0 687236 2.11745e+06 0 686365 2.07894e+06 0 684974 2.04085e+06 0 683105 2.00321e+06 0 680803 1.96608e+06 0 678112 1.92949e+06 0 434970 2.97959e+06 0 448650 2.95542e+06 0 462178 2.93004e+06 0 475493 2.90346e+06 0 488536 2.87569e+06 0 501246 2.84675e+06 0 513563 2.81666e+06 0 525428 2.78546e+06 0 536787 2.75319e+06 0 547587 2.71991e+06 0 557781 2.68568e+06 0 567328 2.65057e+06 0 576191 2.61465e+06 0 584343 2.57801e+06 0 591761 2.54072e+06 0 598430 2.50287e+06 0 604343 2.46456e+06 0 609500 2.42587e+06 0 613906 2.38689e+06 0 617575 2.34771e+06 0 620525 2.30842e+06 0 622779 2.26909e+06 0 624366 2.22981e+06 0 625317 2.19064e+06 0 625667 2.15167e+06 0 625453 2.11295e+06 0 624713 2.07454e+06 0 623489 2.0365e+06 0 621819 1.99888e+06 0 619744 1.96172e+06 0 617303 1.92506e+06 0 614537 1.88892e+06 0 402285 2.94457e+06 0 414750 2.91953e+06 0 427018 2.8933e+06 0 439032 2.86591e+06 0 450739 2.83736e+06 0 462086 2.80768e+06 0 473019 2.77691e+06 0 483489 2.74509e+06 0 493450 2.71226e+06 0 502858 2.67849e+06 0 511677 2.64383e+06 0 519872 2.60836e+06 0 527418 2.57216e+06 0 534294 2.53529e+06 0 540487 2.49785e+06 0 545988 2.45992e+06 0 550796 2.42159e+06 0 554916 2.38293e+06 0 558359 2.34404e+06 0 561140 2.30499e+06 0 563281 2.26587e+06 0 564806 2.22676e+06 0 565743 2.18772e+06 0 566124 2.14883e+06 0 565982 2.11014e+06 0 565351 2.07173e+06 0 564270 2.03365e+06 0 562773 1.99594e+06 0 560897 1.95865e+06 0 558680 1.92182e+06 0 556156 1.88549e+06 0 553361 1.84968e+06 0 368760 2.91261e+06 0 380036 2.88672e+06 0 391081 2.85968e+06 0 401843 2.8315e+06 0 412276 2.8022e+06 0 422332 2.77181e+06 0 431966 2.74037e+06 0 441137 2.70792e+06 0 449806 2.67453e+06 0 457938 2.64024e+06 0 465503 2.60513e+06 0 472476 2.56927e+06 0 478838 2.53273e+06 0 484576 2.49559e+06 0 489683 2.45793e+06 0 494155 2.41984e+06 0 497998 2.38139e+06 0 501219 2.34267e+06 0 503832 2.30377e+06 0 505856 2.26475e+06 0 507313 2.22569e+06 0 508227 2.18667e+06 0 508627 2.14776e+06 0 508542 2.10901e+06 0 508005 2.0705e+06 0 507049 2.03227e+06 0 505707 1.99439e+06 0 504012 1.95688e+06 0 501999 1.9198e+06 0 499699 1.88319e+06 0 497145 1.84708e+06 0 494368 1.81149e+06 0 334521 2.88347e+06 0 344630 2.85677e+06 0 354483 2.82893e+06 0 364038 2.79996e+06 0 373251 2.76991e+06 0 382082 2.7388e+06 0 390494 2.70668e+06 0 398452 2.6736e+06 0 405922 2.63961e+06 0 412879 2.60478e+06 0 419299 2.56918e+06 0 425164 2.53288e+06 0 430461 2.49595e+06 0 435183 2.45847e+06 0 439327 2.42053e+06 0 442896 2.38219e+06 0 445896 2.34355e+06 0 448340 2.30468e+06 0 450244 2.26566e+06 0 451626 2.22657e+06 0 452510 2.18747e+06 0 452920 2.14844e+06 0 452883 2.10955e+06 0 452430 2.07084e+06 0 451588 2.03239e+06 0 450389 1.99424e+06 0 448863 1.95644e+06 0 447041 1.91904e+06 0 444953 1.88207e+06 0 442629 1.84557e+06 0 440096 1.80957e+06 0 437384 1.77411e+06 0 299653 2.85695e+06 0 308612 2.82943e+06 0 317304 2.80079e+06 0 325689 2.77104e+06 0 333731 2.74022e+06 0 341397 2.70837e+06 0 348655 2.67555e+06 0 355475 2.6418e+06 0 361832 2.60719e+06 0 367705 2.57178e+06 0 373078 2.53563e+06 0 377938 2.49883e+06 0 382277 2.46145e+06 0 386093 2.42357e+06 0 389386 2.38526e+06 0 392163 2.34661e+06 0 394434 2.30769e+06 0 396212 2.26858e+06 0 397514 2.22936e+06 0 398361 2.1901e+06 0 398774 2.15087e+06 0 398779 2.11174e+06 0 398401 2.07276e+06 0 397666 2.034e+06 0 396603 1.99551e+06 0 395240 1.95734e+06 0 393604 1.91953e+06 0 391723 1.88214e+06 0 389623 1.84519e+06 0 387331 1.80872e+06 0 384872 1.77276e+06 0 382269 1.73733e+06 0 264210 2.83287e+06 0 272033 2.80452e+06 0 279587 2.77505e+06 0 286837 2.74449e+06 0 293752 2.71288e+06 0 300306 2.68027e+06 0 306470 2.64671e+06 0 312223 2.61225e+06 0 317544 2.57697e+06 0 322418 2.54092e+06 0 326834 2.50417e+06 0 330783 2.46682e+06 0 334263 2.42892e+06 0 337273 2.39056e+06 0 339818 2.35181e+06 0 341908 2.31276e+06 0 343553 2.27349e+06 0 344768 2.23406e+06 0 345571 2.19455e+06 0 345982 2.15504e+06 0 346022 2.11559e+06 0 345715 2.07626e+06 0 345084 2.03711e+06 0 344154 1.99821e+06 0 342951 1.95959e+06 0 341499 1.92132e+06 0 339824 1.88343e+06 0 337949 1.84597e+06 0 335899 1.80896e+06 0 333696 1.77244e+06 0 331361 1.73644e+06 0 328916 1.70098e+06 0 228218 2.81106e+06 0 234917 2.78185e+06 0 241353 2.75153e+06 0 247497 2.72012e+06 0 253326 2.68769e+06 0 258815 2.65426e+06 0 263943 2.61991e+06 0 268693 2.5847e+06 0 273050 2.54868e+06 0 277004 2.51193e+06 0 280546 2.47453e+06 0 283673 2.43655e+06 0 286386 2.39806e+06 0 288686 2.35915e+06 0 290582 2.31989e+06 0 292083 2.28037e+06 0 293201 2.24066e+06 0 293952 2.20083e+06 0 294353 2.16095e+06 0 294423 2.1211e+06 0 294183 2.08135e+06 0 293653 2.04174e+06 0 292856 2.00235e+06 0 291813 1.96323e+06 0 290548 1.92442e+06 0 289082 1.88597e+06 0 287438 1.84793e+06 0 285636 1.81032e+06 0 283696 1.77319e+06 0 281638 1.73657e+06 0 279480 1.70047e+06 0 277240 1.66492e+06 0 191684 2.79137e+06 0 197266 2.76126e+06 0 202601 2.73004e+06 0 207667 2.69775e+06 0 212444 2.66443e+06 0 216913 2.63014e+06 0 221059 2.59495e+06 0 224867 2.55891e+06 0 228329 2.5221e+06 0 231436 2.48459e+06 0 234186 2.44645e+06 0 236576 2.40777e+06 0 238611 2.36862e+06 0 240294 2.32909e+06 0 241634 2.28924e+06 0 242641 2.24917e+06 0 243329 2.20894e+06 0 243712 2.16863e+06 0 243806 2.12831e+06 0 243629 2.08806e+06 0 243199 2.04793e+06 0 242535 2.00798e+06 0 241656 1.96827e+06 0 240582 1.92886e+06 0 239333 1.88979e+06 0 237927 1.8511e+06 0 236383 1.81284e+06 0 234718 1.77504e+06 0 232949 1.73774e+06 0 231093 1.70095e+06 0 229165 1.66471e+06 0 227178 1.62903e+06 0 154597 2.77367e+06 0 159065 2.74261e+06 0 163314 2.71044e+06 0 167326 2.67719e+06 0 171084 2.64293e+06 0 174576 2.60772e+06 0 177790 2.57161e+06 0 180716 2.53468e+06 0 183348 2.497e+06 0 185682 2.45865e+06 0 187718 2.41971e+06 0 189456 2.38026e+06 0 190900 2.34037e+06 0 192057 2.30013e+06 0 192934 2.25962e+06 0 193544 2.21892e+06 0 193896 2.1781e+06 0 194006 2.13725e+06 0 193887 2.09642e+06 0 193555 2.05568e+06 0 193026 2.01511e+06 0 192315 1.97475e+06 0 191440 1.93467e+06 0 190417 1.89491e+06 0 189261 1.85553e+06 0 187988 1.81655e+06 0 186613 1.77802e+06 0 185151 1.73998e+06 0 183615 1.70245e+06 0 182017 1.66546e+06 0 180371 1.62903e+06 0 178686 1.59318e+06 0 116931 2.75784e+06 0 120287 2.72577e+06 0 123460 2.69257e+06 0 126439 2.65831e+06 0 129210 2.62303e+06 0 131766 2.58681e+06 0 134098 2.54971e+06 0 136200 2.51182e+06 0 138070 2.47319e+06 0 139704 2.43392e+06 0 141105 2.3941e+06 0 142274 2.35379e+06 0 143216 2.31308e+06 0 143938 2.27207e+06 0 144448 2.23082e+06 0 144754 2.18942e+06 0 144868 2.14794e+06 0 144800 2.10647e+06 0 144563 2.06506e+06 0 144170 2.02379e+06 0 143632 1.98271e+06 0 142963 1.94189e+06 0 142177 1.90138e+06 0 141285 1.86123e+06 0 140301 1.82148e+06 0 139235 1.78217e+06 0 138100 1.74334e+06 0 136906 1.70501e+06 0 135663 1.66723e+06 0 134381 1.63e+06 0 133068 1.59336e+06 0 131734 1.55731e+06 0 78645.6 2.74378e+06 0 80887.4 2.71062e+06 0 82995.3 2.67632e+06 0 84960.8 2.64096e+06 0 86776.8 2.60458e+06 0 88437.5 2.56727e+06 0 89938.3 2.52909e+06 0 91276.3 2.49014e+06 0 92450 2.45048e+06 0 93459.6 2.41021e+06 0 94306.5 2.36941e+06 0 94993.6 2.32817e+06 0 95525.3 2.28657e+06 0 95906.8 2.24469e+06 0 96144.5 2.20263e+06 0 96245.8 2.16046e+06 0 96218.6 2.11826e+06 0 96071.3 2.0761e+06 0 95812.9 2.03406e+06 0 95452.4 1.99219e+06 0 94999 1.95056e+06 0 94461.9 1.90923e+06 0 93850.1 1.86825e+06 0 93172.4 1.82766e+06 0 92437.2 1.78751e+06 0 91652.7 1.74783e+06 0 90826.4 1.70867e+06 0 89965.7 1.67004e+06 0 89077.2 1.63197e+06 0 88167.2 1.59449e+06 0 87241.4 1.55761e+06 0 86305 1.52134e+06 0 39689.6 2.73139e+06 0 40813.5 2.69705e+06 0 41863.8 2.66156e+06 0 42836.4 2.625e+06 0 43727.9 2.58743e+06 0 44535.8 2.54893e+06 0 45258.1 2.50959e+06 0 45893.9 2.46948e+06 0 46442.9 2.4287e+06 0 46905.9 2.38733e+06 0 47284 2.34547e+06 0 47579.6 2.30321e+06 0 47795.2 2.26063e+06 0 47934.2 2.21782e+06 0 48000.4 2.17488e+06 0 47998 2.13187e+06 0 47931.4 2.08888e+06 0 47805.5 2.04599e+06 0 47625 2.00325e+06 0 47394.9 1.96074e+06 0 47120 1.91852e+06 0 46805.2 1.87664e+06 0 46455.2 1.83514e+06 0 46074.5 1.79409e+06 0 45667.5 1.75351e+06 0 45238.3 1.71344e+06 0 44790.7 1.67392e+06 0 44328.3 1.63496e+06 0 43854.4 1.5966e+06 0 43372.2 1.55884e+06 0 42884.4 1.52171e+06 0 42393.6 1.48522e+06 0 0 2.72058e+06 0 0 2.68496e+06 0 0 2.64818e+06 0 0 2.61032e+06 0 0 2.57144e+06 0 0 2.53165e+06 0 0 2.49103e+06 0 0 2.44966e+06 0 0 2.40766e+06 0 0 2.3651e+06 0 0 2.32209e+06 0 0 2.27872e+06 0 0 2.23509e+06 0 0 2.19128e+06 0 0 2.14737e+06 0 0 2.10347e+06 0 0 2.05964e+06 0 0 2.01595e+06 0 0 1.97248e+06 0 0 1.92929e+06 0 0 1.88643e+06 0 0 1.84397e+06 0 0 1.80195e+06 0 0 1.7604e+06 0 0 1.71938e+06 0 0 1.6789e+06 0 0 1.63901e+06 0 0 1.59972e+06 0 0 1.56105e+06 0 0 1.52302e+06 0 0 1.48564e+06 0 0 1.44892e+06 0 </DataArray> 
</PointData> 
<Points> 
<DataArray type="Float32" NumberOfComponents="3"> 