<?xml version="1.0"?> 
<VTKFile type="StructuredGrid" version="0.1"> 
<StructuredGrid WholeExtent="0 31 0 31 0 0"> 
<Piece Extent="0 31 0 31 0 0"> 
<PointData>
<DataArray type="Float32" Name="|E|" format="ascii" NumberOfComponents="3"> 
3.32544e+06 -1.37744e+06 0 3.47967e+06 -604762 0 3.35379e+06 -107776 0 3.16442e+06 236806 0 2.95304e+06 472021 0 2.74881e+06 630212 0 2.56009e+06 735246 0 2.3896e+06 803543 0 2.23667e+06 846373 0 2.09956e+06 871349 0 1.97626e+06 883654 0 1.86485e+06 886847 0 1.76364e+06 883414 0 1.67121e+06 875114 0 1.58637e+06 863213 0 1.50811e+06 848640 0 1.43561e+06 832081 0 1.36819e+06 814053 0 1.30529e+06 794947 0 1.24642e+06 775067 0 1.19118e+06 754644 0 1.13924e+06 733863 0 1.0903e+06 712864 0 1.04411e+06 691761 0 1.00047e+06 670643 0 959178 649579 0 920078 628625 0 883025 607823 0 847891 587207 0 814561 566803 0 782936 546628 0 752915 526699 0 3.49642e+06 -1.32867e+06 0 3.56225e+06 -542369 0 3.40172e+06 -39524 0 3.18842e+06 300838 0 2.96243e+06 528853 0 2.74899e+06 679611 0 2.55459e+06 777931 0 2.38064e+06 840538 0 2.22563e+06 878670 0 2.0873e+06 899806 0 1.96332e+06 908974 0 1.85157e+06 909598 0 1.75026e+06 904049 0 1.65786e+06 893996 0 1.57315e+06 880633 0 1.49508e+06 864831 0 1.42282e+06 847234 0 1.35568e+06 828321 0 1.29306e+06 808459 0 1.2345e+06 787926 0 1.17957e+06 766939 0 1.12795e+06 745664 0 1.07933e+06 724234 0 1.03347e+06 702750 0 990142 681294 0 949170 659928 0 910384 638704 0 873640 617659 0 838808 596822 0 805773 576216 0 774433 555858 0 744692 535758 0 3.65923e+06 -1.26735e+06 0 3.64434e+06 -472674 0 3.44794e+06 32142.2 0 3.21087e+06 366644 0 2.97054e+06 586578 0 2.74818e+06 729409 0 2.54838e+06 820763 0 2.37118e+06 877562 0 2.21425e+06 910947 0 2.07482e+06 928229 0 1.95024e+06 934266 0 1.83821e+06 932332 0 1.73682e+06 924680 0 1.64449e+06 912884 0 1.55991e+06 898067 0 1.48205e+06 881043 0 1.41004e+06 862410 0 1.34316e+06 842615 0 1.28083e+06 821995 0 1.22256e+06 800807 0 1.16794e+06 779250 0 1.11662e+06 757476 0 1.06831e+06 735607 0 1.02276e+06 713734 0 979744 691931 0 939077 670255 0 900592 648751 0 864143 627452 0 829599 606385 0 796846 585569 0 765778 565017 0 736301 544738 0 3.81527e+06 -1.19477e+06 0 3.72531e+06 -396303 0 3.49234e+06 107093 0 3.23175e+06 434155 0 2.97735e+06 645143 0 2.74639e+06 779572 0 2.54148e+06 863722 0 2.36125e+06 914603 0 2.20256e+06 943201 0 2.06213e+06 956621 0 1.93703e+06 959532 0 1.82478e+06 955052 0 1.72335e+06 945309 0 1.63109e+06 931781 0 1.54668e+06 915519 0 1.46903e+06 897278 0 1.39725e+06 877613 0 1.33064e+06 856935 0 1.26859e+06 835556 0 1.21061e+06 813709 0 1.15628e+06 791577 0 1.10526e+06 769299 0 1.05725e+06 746982 0 1.012e+06 724712 0 969277 702554 0 928901 680559 0 890703 658765 0 854534 637203 0 820265 615895 0 787779 594858 0 756971 574102 0 727744 553635 0 3.96549e+06 -1.11191e+06 0 3.80467e+06 -313709 0 3.53479e+06 185218 0 3.251e+06 503303 0 2.98286e+06 704497 0 2.74366e+06 830066 0 2.53392e+06 906790 0 2.35088e+06 951654 0 2.19058e+06 975429 0 2.04926e+06 984982 0 1.92372e+06 984775 0 1.81129e+06 977760 0 1.70986e+06 965938 0 1.6177e+06 950690 0 1.53346e+06 932991 0 1.45602e+06 913538 0 1.38448e+06 892843 0 1.31813e+06 871283 0 1.25635e+06 849141 0 1.19865e+06 826633 0 1.14461e+06 803920 0 1.09388e+06 781130 0 1.04615e+06 758360 0 1.00118e+06 735684 0 958743 713162 0 918644 690837 0 880718 668744 0 844816 646908 0 810807 625349 0 778574 604080 0 748012 583110 0 719023 562444 0 4.11057e+06 -1.01948e+06 0 3.88206e+06 -225263 0 3.5752e+06 266411 0 3.26858e+06 574024 0 2.98708e+06 764591 0 2.74001e+06 880863 0 2.52573e+06 949951 0 2.3401e+06 988708 0 2.17834e+06 1.00763e+06 0 2.03624e+06 1.01331e+06 0 1.91032e+06 1.01e+06 0 1.79776e+06 1.00046e+06 0 1.69635e+06 986573 0 1.60432e+06 969614 0 1.52025e+06 950484 0 1.44303e+06 929824 0 1.37174e+06 908101 0 1.30564e+06 885659 0 1.24413e+06 862753 0 1.1867e+06 839578 0 1.13293e+06 816279 0 1.08247e+06 792971 0 1.03502e+06 769739 0 990316 746649 0 948143 723752 0 908307 701088 0 870639 678685 0 834989 656566 0 801227 634746 0 769234 613234 0 738904 592039 0 710139 571163 0 4.25096e+06 -918018 0 3.95722e+06 -131261 0 3.6135e+06 350575 0 3.28446e+06 646253 0 2.99e+06 825379 0 2.73545e+06 931933 0 2.51694e+06 993189 0 2.32893e+06 1.02576e+06 0 2.16586e+06 1.0398e+06 0 2.02309e+06 1.04162e+06 0 1.89686e+06 1.0352e+06 0 1.78422e+06 1.02316e+06 0 1.68286e+06 1.00721e+06 0 1.59095e+06 988556 0 1.50707e+06 968002 0 1.43007e+06 946140 0 1.35902e+06 923390 0 1.29317e+06 900064 0 1.23192e+06 876392 0 1.17475e+06 852545 0 1.12124e+06 828655 0 1.07104e+06 804821 0 1.02385e+06 781118 0 979401 757605 0 937481 734325 0 897893 711312 0 860468 688589 0 825057 666175 0 791526 644082 0 759759 622318 0 729648 600886 0 701094 579789 0 4.38694e+06 -807959 0 4.02994e+06 -31942.6 0 3.64961e+06 437627 0 3.29859e+06 719930 0 2.99163e+06 886817 0 2.73001e+06 983251 0 2.50758e+06 1.03649e+06 0 2.3174e+06 1.0628e+06 0 2.15318e+06 1.07194e+06 0 2.00982e+06 1.06989e+06 0 1.88335e+06 1.06039e+06 0 1.77067e+06 1.04585e+06 0 1.66938e+06 1.02787e+06 0 1.57763e+06 1.00752e+06 0 1.49394e+06 985548 0 1.41715e+06 962486 0 1.34633e+06 938712 0 1.28073e+06 914501 0 1.21972e+06 890058 0 1.1628e+06 865535 0 1.10954e+06 841047 0 1.05959e+06 816679 0 1.01264e+06 792498 0 968439 768552 0 926757 744879 0 887403 721506 0 850207 698453 0 815019 675733 0 781707 653356 0 750151 631327 0 720245 609648 0 691889 588319 0 4.51872e+06 -689650 0 4.10006e+06 72505.9 0 3.68345e+06 527494 0 3.31094e+06 794998 0 2.99197e+06 948862 0 2.72371e+06 1.03479e+06 0 2.49767e+06 1.07985e+06 0 2.30554e+06 1.09983e+06 0 2.14031e+06 1.10406e+06 0 1.99647e+06 1.09815e+06 0 1.86981e+06 1.08558e+06 0 1.75713e+06 1.06855e+06 0 1.65594e+06 1.04854e+06 0 1.56435e+06 1.02651e+06 0 1.48085e+06 1.00312e+06 0 1.40428e+06 978867 0 1.33369e+06 954067 0 1.26832e+06 928970 0 1.20755e+06 903753 0 1.15087e+06 878549 0 1.09785e+06 853455 0 1.04813e+06 828547 0 1.00141e+06 803878 0 957434 779490 0 915975 755414 0 876840 731670 0 839857 708275 0 804878 685238 0 771770 662566 0 740411 640261 0 710697 618323 0 682527 596749 0 4.64643e+06 -563379 0 4.16747e+06 181942 0 3.71493e+06 620113 0 3.32147e+06 871401 0 2.99104e+06 1.01147e+06 0 2.71658e+06 1.08653e+06 0 2.48724e+06 1.12325e+06 0 2.29339e+06 1.13685e+06 0 2.12728e+06 1.13616e+06 0 1.98305e+06 1.12639e+06 0 1.85627e+06 1.11075e+06 0 1.74361e+06 1.09126e+06 0 1.64255e+06 1.06923e+06 0 1.55112e+06 1.04552e+06 0 1.46783e+06 1.02074e+06 0 1.39147e+06 995284 0 1.3211e+06 969460 0 1.25596e+06 943474 0 1.19542e+06 917479 0 1.13896e+06 891587 0 1.08616e+06 865882 0 1.03666e+06 840424 0 990154 815258 0 946389 790418 0 905138 765928 0 866205 741803 0 829422 718055 0 794637 694690 0 761717 671710 0 730543 649117 0 701006 626908 0 673009 605078 0 4.77018e+06 -429388 0 4.23207e+06 296265 0 3.74398e+06 715432 0 3.33015e+06 949086 0 2.98884e+06 1.07462e+06 0 2.70864e+06 1.13846e+06 0 2.47632e+06 1.16668e+06 0 2.28095e+06 1.17386e+06 0 2.11411e+06 1.16823e+06 0 1.96958e+06 1.15462e+06 0 1.84273e+06 1.13593e+06 0 1.73014e+06 1.11399e+06 0 1.62921e+06 1.08995e+06 0 1.53796e+06 1.06457e+06 0 1.45487e+06 1.03838e+06 0 1.37873e+06 1.01174e+06 0 1.30857e+06 984891 0 1.24364e+06 958013 0 1.18331e+06 931236 0 1.12706e+06 904651 0 1.07447e+06 878326 0 1.02518e+06 852310 0 978874 826639 0 935306 801337 0 894247 776421 0 855503 751904 0 818903 727791 0 784297 704085 0 751552 680787 0 720547 657893 0 691175 635400 0 663336 613302 0 4.89005e+06 -287884 0 4.29377e+06 415416 0 3.7705e+06 813411 0 3.33694e+06 1.028e+06 0 2.98536e+06 1.13825e+06 0 2.6999e+06 1.19054e+06 0 2.46494e+06 1.21015e+06 0 2.26826e+06 1.21085e+06 0 2.10083e+06 1.20028e+06 0 1.95607e+06 1.18284e+06 0 1.82921e+06 1.16112e+06 0 1.71672e+06 1.13673e+06 0 1.61594e+06 1.11069e+06 0 1.52488e+06 1.08366e+06 0 1.44199e+06 1.05607e+06 0 1.36605e+06 1.02824e+06 0 1.2961e+06 1.00036e+06 0 1.23138e+06 972591 0 1.17125e+06 945026 0 1.1152e+06 917741 0 1.0628e+06 890789 0 1.01369e+06 864206 0 967576 838019 0 924188 812244 0 883305 786893 0 844734 761972 0 808302 737482 0 773861 713424 0 741275 689793 0 710425 666587 0 681205 643797 0 653512 621417 0 5.00614e+06 -139040 0 4.35248e+06 539376 0 3.79438e+06 914016 0 3.34179e+06 1.10809e+06 0 2.98063e+06 1.20235e+06 0 2.6904e+06 1.24277e+06 0 2.45311e+06 1.25364e+06 0 2.25534e+06 1.24783e+06 0 2.08745e+06 1.23233e+06 0 1.94256e+06 1.21106e+06 0 1.81574e+06 1.18632e+06 0 1.70337e+06 1.1595e+06 0 1.60276e+06 1.13147e+06 0 1.51189e+06 1.10278e+06 0 1.4292e+06 1.07381e+06 0 1.35346e+06 1.04478e+06 0 1.28371e+06 1.01588e+06 0 1.21917e+06 987210 0 1.15923e+06 958851 0 1.10336e+06 930860 0 1.05114e+06 903272 0 1.00221e+06 876113 0 956261 849400 0 913038 823142 0 872316 797344 0 833901 772006 0 797623 747127 0 763330 722703 0 730890 698729 0 700181 675196 0 671097 652097 0 643538 629423 0 5.1186e+06 17007.4 0 4.40813e+06 668170 0 3.81551e+06 1.01722e+06 0 3.34467e+06 1.18932e+06 0 2.97463e+06 1.26686e+06 0 2.68014e+06 1.29512e+06 0 2.44087e+06 1.29715e+06 0 2.24222e+06 1.2848e+06 0 2.07399e+06 1.26436e+06 0 1.92905e+06 1.23928e+06 0 1.80231e+06 1.21154e+06 0 1.69009e+06 1.1823e+06 0 1.58967e+06 1.15229e+06 0 1.499e+06 1.12196e+06 0 1.4165e+06 1.09159e+06 0 1.34095e+06 1.06138e+06 0 1.27139e+06 1.03144e+06 0 1.20703e+06 1.00187e+06 0 1.14727e+06 972713 0 1.09157e+06 944007 0 1.03951e+06 915776 0 990730 888032 0 944934 860782 0 901859 834029 0 861282 807772 0 823008 782006 0 786866 756725 0 752707 731924 0 720397 707591 0 689816 683719 0 660856 660297 0 633416 637315 0 5.2276e+06 180161 0 4.46063e+06 801871 0 3.83375e+06 1.12302e+06 0 3.34553e+06 1.27162e+06 0 2.96738e+06 1.33177e+06 0 2.66916e+06 1.34759e+06 0 2.42823e+06 1.34067e+06 0 2.22891e+06 1.32177e+06 0 2.06048e+06 1.2964e+06 0 1.91556e+06 1.26752e+06 0 1.78895e+06 1.23678e+06 0 1.67691e+06 1.20513e+06 0 1.57668e+06 1.17315e+06 0 1.48621e+06 1.14118e+06 0 1.4039e+06 1.10942e+06 0 1.32854e+06 1.07802e+06 0 1.25915e+06 1.04706e+06 0 1.19496e+06 1.01658e+06 0 1.13535e+06 986613 0 1.07981e+06 957186 0 1.02789e+06 928301 0 979259 899962 0 933598 872165 0 890655 844906 0 850205 818178 0 812056 791971 0 776036 766276 0 741996 741083 0 709801 716379 0 679332 692154 0 650482 668396 0 623149 645091 0 5.33339e+06 350371 0 4.50987e+06 940603 0 3.84894e+06 1.23138e+06 0 3.34431e+06 1.35494e+06 0 2.95887e+06 1.39704e+06 0 2.65745e+06 1.40015e+06 0 2.41522e+06 1.38421e+06 0 2.21543e+06 1.35873e+06 0 2.04692e+06 1.32843e+06 0 1.9021e+06 1.29577e+06 0 1.77567e+06 1.26205e+06 0 1.66383e+06 1.22801e+06 0 1.56381e+06 1.19407e+06 0 1.47353e+06 1.16046e+06 0 1.39141e+06 1.12732e+06 0 1.31622e+06 1.09472e+06 0 1.247e+06 1.06272e+06 0 1.18297e+06 1.03133e+06 0 1.1235e+06 1.00055e+06 0 1.06809e+06 970396 0 1.01631e+06 940850 0 967798 911905 0 922257 883550 0 879428 855773 0 839090 828561 0 801049 801901 0 765134 775778 0 731197 750180 0 699103 725091 0 668732 700499 0 639978 676390 0 612739 652748 0 5.43633e+06 527650 0 4.5557e+06 1.08455e+06 0 3.86089e+06 1.3423e+06 0 3.34097e+06 1.43923e+06 0 2.94909e+06 1.46262e+06 0 2.64505e+06 1.45279e+06 0 2.40185e+06 1.42775e+06 0 2.2018e+06 1.39569e+06 0 2.03334e+06 1.36048e+06 0 1.88869e+06 1.32404e+06 0 1.76248e+06 1.28736e+06 0 1.65086e+06 1.25093e+06 0 1.55106e+06 1.21503e+06 0 1.46098e+06 1.17979e+06 0 1.37904e+06 1.14527e+06 0 1.30402e+06 1.11148e+06 0 1.23495e+06 1.07844e+06 0 1.17106e+06 1.04613e+06 0 1.11172e+06 1.01454e+06 0 1.05643e+06 983641 0 1.00476e+06 953423 0 956352 923862 0 910913 894937 0 868182 866631 0 827938 838923 0 789989 811795 0 754164 785231 0 720314 759214 0 688305 733726 0 658019 708753 0 629347 684277 0 602188 660285 0 5.53687e+06 712091 0 4.59795e+06 1.23396e+06 0 3.86937e+06 1.45576e+06 0 3.33545e+06 1.52444e+06 0 2.93804e+06 1.5285e+06 0 2.63196e+06 1.50551e+06 0 2.38814e+06 1.47131e+06 0 2.18803e+06 1.43265e+06 0 2.01975e+06 1.39254e+06 0 1.87535e+06 1.35234e+06 0 1.74939e+06 1.31271e+06 0 1.63802e+06 1.27391e+06 0 1.53844e+06 1.23606e+06 0 1.44855e+06 1.19919e+06 0 1.36679e+06 1.16328e+06 0 1.29193e+06 1.1283e+06 0 1.223e+06 1.09421e+06 0 1.15923e+06 1.06098e+06 0 1.10001e+06 1.02856e+06 0 1.04482e+06 996921 0 993241 966022 0 944926 935833 0 899571 906328 0 856920 877479 0 816754 849262 0 778879 821654 0 743127 794635 0 709349 768184 0 677411 742283 0 647194 716913 0 618591 692057 0 591500 667698 0 5.63565e+06 903894 0 4.63636e+06 1.38917e+06 0 3.87415e+06 1.57173e+06 0 3.32768e+06 1.61049e+06 0 2.92571e+06 1.59463e+06 0 2.6182e+06 1.55828e+06 0 2.37411e+06 1.51487e+06 0 2.17415e+06 1.46962e+06 0 2.00615e+06 1.42462e+06 0 1.86207e+06 1.38068e+06 0 1.73641e+06 1.33811e+06 0 1.6253e+06 1.29695e+06 0 1.52595e+06 1.25715e+06 0 1.43627e+06 1.21865e+06 0 1.35468e+06 1.18136e+06 0 1.27996e+06 1.14518e+06 0 1.21115e+06 1.11005e+06 0 1.14749e+06 1.07589e+06 0 1.08837e+06 1.04264e+06 0 1.03326e+06 1.01024e+06 0 981765 978647 0 933521 947821 0 888233 917722 0 845645 888318 0 805539 859579 0 767723 831477 0 732028 803988 0 698306 777089 0 666423 750759 0 636262 724978 0 607713 699726 0 580677 674986 0 5.73351e+06 1.1034e+06 0 4.67058e+06 1.55058e+06 0 3.87492e+06 1.69017e+06 0 3.3176e+06 1.69732e+06 0 2.91208e+06 1.66097e+06 0 2.60377e+06 1.61108e+06 0 2.35977e+06 1.55844e+06 0 2.16016e+06 1.5066e+06 0 1.99258e+06 1.45672e+06 0 1.84888e+06 1.40907e+06 0 1.72355e+06 1.36356e+06 0 1.61273e+06 1.32004e+06 0 1.51361e+06 1.27831e+06 0 1.42413e+06 1.23819e+06 0 1.3427e+06 1.19951e+06 0 1.26811e+06 1.16214e+06 0 1.19942e+06 1.12595e+06 0 1.13585e+06 1.09085e+06 0 1.0768e+06 1.05676e+06 0 1.02177e+06 1.02359e+06 0 970334 991301 0 922143 959826 0 876903 929122 0 834361 899150 0 794298 869874 0 756523 841264 0 720868 813291 0 687186 785929 0 655344 759155 0 625223 732947 0 596715 707284 0 569721 682146 0 5.83156e+06 1.31116e+06 0 4.70013e+06 1.71874e+06 0 3.87135e+06 1.81101e+06 0 3.30515e+06 1.78486e+06 0 2.89713e+06 1.72748e+06 0 2.58869e+06 1.66392e+06 0 2.34512e+06 1.60202e+06 0 2.14608e+06 1.54359e+06 0 1.97902e+06 1.48886e+06 0 1.83577e+06 1.43749e+06 0 1.71082e+06 1.38908e+06 0 1.6003e+06 1.34321e+06 0 1.50143e+06 1.29955e+06 0 1.41213e+06 1.2578e+06 0 1.33086e+06 1.21773e+06 0 1.2564e+06 1.17916e+06 0 1.1878e+06 1.14192e+06 0 1.12431e+06 1.10587e+06 0 1.06533e+06 1.07093e+06 0 1.01035e+06 1.03699e+06 0 958950 1.00399e+06 0 910795 971849 0 865585 940527 0 823071 909973 0 783032 880148 0 745282 851015 0 709651 822543 0 675994 794703 0 644177 767469 0 614081 740818 0 585601 714727 0 558635 689175 0 5.93129e+06 1.52797e+06 0 4.72431e+06 1.89427e+06 0 3.86307e+06 1.93415e+06 0 3.29025e+06 1.87302e+06 0 2.88085e+06 1.79412e+06 0 2.57296e+06 1.71677e+06 0 2.33018e+06 1.64559e+06 0 2.13191e+06 1.58061e+06 0 1.9655e+06 1.52104e+06 0 1.82277e+06 1.46598e+06 0 1.69823e+06 1.41466e+06 0 1.58803e+06 1.36645e+06 0 1.4894e+06 1.32086e+06 0 1.4003e+06 1.27749e+06 0 1.31917e+06 1.23604e+06 0 1.24482e+06 1.19625e+06 0 1.1763e+06 1.15795e+06 0 1.11288e+06 1.12096e+06 0 1.05394e+06 1.08515e+06 0 998990 1.05043e+06 0 947618 1.0167e+06 0 899480 983891 0 854283 951939 0 811777 920791 0 771747 890401 0 734003 860731 0 698380 831744 0 664731 803410 0 632923 775701 0 602839 748591 0 574372 722055 0 547421 696073 0 6.0347e+06 1.75504e+06 0 4.74214e+06 2.07796e+06 0 3.84967e+06 2.05942e+06 0 3.27285e+06 1.96171e+06 0 2.86321e+06 1.86083e+06 0 2.55659e+06 1.76961e+06 0 2.31496e+06 1.68917e+06 0 2.11767e+06 1.61764e+06 0 1.95202e+06 1.55325e+06 0 1.80987e+06 1.49452e+06 0 1.68578e+06 1.44031e+06 0 1.57591e+06 1.38977e+06 0 1.47754e+06 1.34225e+06 0 1.38862e+06 1.29726e+06 0 1.30763e+06 1.25442e+06 0 1.23338e+06 1.21343e+06 0 1.16493e+06 1.17405e+06 0 1.10156e+06 1.1361e+06 0 1.04264e+06 1.09943e+06 0 987709 1.06391e+06 0 936343 1.02945e+06 0 888203 995955 0 842999 963359 0 800485 931602 0 760444 900634 0 722690 870411 0 687058 840894 0 653400 812051 0 621587 783849 0 591500 756263 0 563033 729266 0 536084 702836 0 6.14449e+06 1.99408e+06 0 4.75219e+06 2.27072e+06 0 3.83073e+06 2.1866e+06 0 3.25285e+06 2.05085e+06 0 2.84418e+06 1.92756e+06 0 2.53959e+06 1.82244e+06 0 2.29946e+06 1.73274e+06 0 2.10335e+06 1.6547e+06 0 1.93858e+06 1.58552e+06 0 1.79709e+06 1.52312e+06 0 1.67347e+06 1.46603e+06 0 1.56396e+06 1.41317e+06 0 1.46585e+06 1.36373e+06 0 1.37712e+06 1.31712e+06 0 1.29625e+06 1.27288e+06 0 1.22209e+06 1.23068e+06 0 1.1537e+06 1.19023e+06 0 1.09035e+06 1.15131e+06 0 1.03145e+06 1.11377e+06 0 976507 1.07744e+06 0 925127 1.04223e+06 0 876966 1.00804e+06 0 831738 974787 0 789196 942408 0 749127 910847 0 711346 880056 0 675687 849994 0 642006 820624 0 610171 791913 0 580066 763834 0 551584 736358 0 524625 709463 0 6.26432e+06 2.24761e+06 0 4.75241e+06 2.47364e+06 0 3.80585e+06 2.31535e+06 0 3.23018e+06 2.14033e+06 0 2.82373e+06 1.99423e+06 0 2.52195e+06 1.87523e+06 0 2.28367e+06 1.77631e+06 0 2.08898e+06 1.69178e+06 0 1.92519e+06 1.61783e+06 0 1.78442e+06 1.5518e+06 0 1.66132e+06 1.49184e+06 0 1.55218e+06 1.43665e+06 0 1.45433e+06 1.38529e+06 0 1.36578e+06 1.33706e+06 0 1.28504e+06 1.29144e+06 0 1.21094e+06 1.24801e+06 0 1.14259e+06 1.20648e+06 0 1.07926e+06 1.16659e+06 0 1.02035e+06 1.12816e+06 0 965387 1.09102e+06 0 913975 1.05505e+06 0 865775 1.02015e+06 0 820503 986226 0 777915 953210 0 737800 921041 0 699973 889666 0 664271 859042 0 630549 829129 0 598679 799893 0 568541 771303 0 540030 743331 0 513047 715952 0 6.39921e+06 2.51924e+06 0 4.73985e+06 2.68795e+06 0 3.77471e+06 2.44523e+06 0 3.20472e+06 2.23004e+06 0 2.80184e+06 2.06078e+06 0 2.50369e+06 1.92798e+06 0 2.26761e+06 1.81986e+06 0 2.07453e+06 1.72889e+06 0 1.91186e+06 1.6502e+06 0 1.77188e+06 1.58054e+06 0 1.64933e+06 1.51773e+06 0 1.54058e+06 1.46023e+06 0 1.44299e+06 1.40695e+06 0 1.35462e+06 1.3571e+06 0 1.27399e+06 1.31008e+06 0 1.19996e+06 1.26543e+06 0 1.13163e+06 1.22281e+06 0 1.06829e+06 1.18194e+06 0 1.00936e+06 1.14261e+06 0 954354 1.10465e+06 0 902890 1.06791e+06 0 854631 1.03228e+06 0 809297 997677 0 766644 964009 0 726465 931216 0 688575 899242 0 652813 868039 0 619035 837566 0 587112 807787 0 556927 778668 0 528374 750182 0 501354 722301 0 6.55613e+06 2.81422e+06 0 4.71017e+06 2.91497e+06 0 3.73717e+06 2.57566e+06 0 3.17632e+06 2.31987e+06 0 2.77849e+06 2.12711e+06 0 2.4848e+06 1.98065e+06 0 2.25126e+06 1.86338e+06 0 2.06003e+06 1.76603e+06 0 1.89858e+06 1.68262e+06 0 1.75945e+06 1.60936e+06 0 1.63749e+06 1.5437e+06 0 1.52915e+06 1.48389e+06 0 1.43183e+06 1.4287e+06 0 1.34364e+06 1.37723e+06 0 1.26311e+06 1.32881e+06 0 1.18913e+06 1.28293e+06 0 1.12081e+06 1.23922e+06 0 1.05745e+06 1.19736e+06 0 998471 1.15713e+06 0 943411 1.11833e+06 0 891877 1.08081e+06 0 843540 1.04444e+06 0 798124 1.00914e+06 0 755388 974806 0 715126 941374 0 677155 908785 0 641316 876987 0 607465 845936 0 575474 815595 0 545227 785930 0 516618 756910 0 489548 728509 0 6.74484e+06 3.14026e+06 0 4.65702e+06 3.1561e+06 0 3.69342e+06 2.70585e+06 0 3.14474e+06 2.4097e+06 0 2.75371e+06 2.19313e+06 0 2.46526e+06 2.03324e+06 0 2.23464e+06 1.90687e+06 0 2.04547e+06 1.8032e+06 0 1.88536e+06 1.71511e+06 0 1.74715e+06 1.63826e+06 0 1.62582e+06 1.56976e+06 0 1.5179e+06 1.50766e+06 0 1.42086e+06 1.45055e+06 0 1.33284e+06 1.39746e+06 0 1.25241e+06 1.34763e+06 0 1.17846e+06 1.30052e+06 0 1.11014e+06 1.2557e+06 0 1.04674e+06 1.21285e+06 0 987700 1.1717e+06 0 932562 1.13206e+06 0 880938 1.09374e+06 0 832505 1.05663e+06 0 786987 1.02062e+06 0 744149 985602 0 703786 951516 0 665716 918294 0 629782 885884 0 595842 854238 0 563768 823318 0 533444 793087 0 504765 763515 0 477633 734573 0 6.9791e+06 3.50869e+06 0 4.57108e+06 3.41254e+06 0 3.64428e+06 2.83488e+06 0 3.10961e+06 2.49938e+06 0 2.72755e+06 2.25874e+06 0 2.44505e+06 2.08572e+06 0 2.21774e+06 1.95033e+06 0 2.03085e+06 1.84039e+06 0 1.8722e+06 1.74765e+06 0 1.73498e+06 1.66724e+06 0 1.61431e+06 1.59592e+06 0 1.50683e+06 1.53152e+06 0 1.41008e+06 1.4725e+06 0 1.32223e+06 1.41778e+06 0 1.24188e+06 1.36655e+06 0 1.16796e+06 1.3182e+06 0 1.09962e+06 1.27228e+06 0 1.03616e+06 1.22842e+06 0 977046 1.18635e+06 0 921811 1.14584e+06 0 870078 1.10672e+06 0 821528 1.06885e+06 0 775891 1.03211e+06 0 732932 996399 0 692448 961642 0 654262 927771 0 618216 894731 0 584170 862472 0 551996 830954 0 521581 800139 0 492818 769995 0 465610 740493 0 7.27855e+06 3.93639e+06 0 4.43857e+06 3.6852e+06 0 3.59158e+06 2.96159e+06 0 3.07032e+06 2.58872e+06 0 2.70013e+06 2.32385e+06 0 2.42414e+06 2.13806e+06 0 2.20056e+06 1.99373e+06 0 2.01615e+06 1.8776e+06 0 1.85909e+06 1.78025e+06 0 1.72293e+06 1.6963e+06 0 1.60297e+06 1.62217e+06 0 1.49595e+06 1.55547e+06 0 1.39949e+06 1.49455e+06 0 1.3118e+06 1.43821e+06 0 1.23154e+06 1.38557e+06 0 1.15763e+06 1.33597e+06 0 1.08925e+06 1.28893e+06 0 1.02572e+06 1.24406e+06 0 966511 1.20106e+06 0 911161 1.15968e+06 0 859300 1.11975e+06 0 810615 1.0811e+06 0 764838 1.04362e+06 0 721738 1.0072e+06 0 681116 971753 0 642795 937217 0 606620 903529 0 572451 870639 0 540163 838504 0 509641 807085 0 480781 776350 0 453484 746268 0 7.67126e+06 4.44859e+06 0 4.23926e+06 3.97369e+06 0 3.53877e+06 3.08477e+06 0 3.02591e+06 2.67746e+06 0 2.67168e+06 2.38838e+06 0 2.40245e+06 2.19021e+06 0 2.18313e+06 2.03708e+06 0 2.00137e+06 1.91482e+06 0 1.84604e+06 1.81291e+06 0 1.711e+06 1.72544e+06 0 1.59179e+06 1.64851e+06 0 1.48525e+06 1.57953e+06 0 1.38908e+06 1.5167e+06 0 1.30157e+06 1.45873e+06 0 1.22137e+06 1.40468e+06 0 1.14747e+06 1.35384e+06 0 1.07904e+06 1.30567e+06 0 1.01543e+06 1.25978e+06 0 956100 1.21583e+06 0 900616 1.17358e+06 0 848608 1.13282e+06 0 799768 1.09338e+06 0 753831 1.05514e+06 0 710572 1.018e+06 0 669793 981851 0 631319 946632 0 594998 912279 0 560690 878739 0 528271 845967 0 497627 813925 0 468655 782577 0 441257 751895 0 8.1981e+06 5.0835e+06 0 3.94248e+06 4.27713e+06 0 3.49199e+06 3.20286e+06 0 2.97486e+06 2.76525e+06 0 2.64257e+06 2.45228e+06 0 2.37987e+06 2.24211e+06 0 2.16547e+06 2.08039e+06 0 1.98649e+06 1.95205e+06 0 1.83305e+06 1.84564e+06 0 1.6992e+06 1.75466e+06 0 1.58077e+06 1.67495e+06 0 1.47473e+06 1.60369e+06 0 1.37888e+06 1.53896e+06 0 1.29153e+06 1.47936e+06 0 1.2114e+06 1.42389e+06 0 1.13748e+06 1.37179e+06 0 1.06899e+06 1.3225e+06 0 1.00528e+06 1.27558e+06 0 945816 1.23068e+06 0 890179 1.18753e+06 0 838005 1.14593e+06 0 788990 1.1057e+06 0 742875 1.06669e+06 0 699438 1.0288e+06 0 658482 991936 0 619837 956018 0 583351 920981 0 548887 886772 0 516322 853344 0 485542 820658 0 456445 788677 0 428934 757375 0 </DataArray> 
</PointData> 
<Points> 
<DataArray type="Float32" NumberOfComponents="3"> 