<?xml version="1.0"?> 
<VTKFile type="StructuredGrid" version="0.1"> 
<StructuredGrid WholeExtent="0 31 0 31 0 0"> 
<Piece Extent="0 31 0 31 0 0"> 
<PointData>
<DataArray type="Float32" Name="|E|" format="ascii" NumberOfComponents="3"> 
752921 526699 0 724471 507022 0 697472 487606 0 671847 468450 0 647534 449555 0 624472 430918 0 602608 412533 0 581889 394395 0 562267 376496 0 543698 358827 0 526139 341377 0 509551 324135 0 493897 307089 0 479142 290227 0 465252 273534 0 452196 256998 0 439945 240601 0 428470 224331 0 417746 208169 0 407748 192101 0 398450 176110 0 389833 160177 0 381873 144286 0 374551 128419 0 367849 112556 0 361748 96678.9 0 356232 80768.2 0 351284 64804.2 0 346890 48766.3 0 343035 32633.9 0 339707 16385.7 0 336892 0 0 744697 535758 0 716459 515526 0 689666 495584 0 664243 475932 0 640126 456567 0 617255 437485 0 595575 418678 0 575034 400140 0 555584 381859 0 537180 363828 0 519780 346032 0 503343 328461 0 487833 311102 0 473215 293940 0 459456 276961 0 446524 260151 0 434389 243493 0 423025 226971 0 412404 210570 0 402501 194272 0 393294 178059 0 384759 161915 0 376875 145820 0 369623 129756 0 362984 113705 0 356940 97645.9 0 351474 81560 0 346570 65426.8 0 342214 49225.5 0 338391 32935.1 0 335088 16534 0 332293 0 0 736307 544738 0 708292 523952 0 681715 503487 0 656503 483342 0 632591 463511 0 609918 443987 0 588430 424761 0 568073 405825 0 548801 387167 0 530567 368776 0 513329 350638 0 497049 332741 0 481688 315071 0 467211 297612 0 453586 280350 0 440781 263268 0 428767 246351 0 417515 229582 0 407000 212943 0 397196 196417 0 388080 179986 0 379630 163631 0 371825 147335 0 364645 131078 0 358071 114840 0 352085 98601.2 0 346671 82342.1 0 341813 66041.8 0 337496 49679.1 0 333705 33232.6 0 330429 16680.4 0 327655 0 0 727752 553635 0 699970 532297 0 673620 511314 0 648628 490679 0 624928 470384 0 602462 450422 0 581171 430781 0 561006 411450 0 541917 392417 0 523859 373670 0 506790 355193 0 490670 336973 0 475462 318995 0 461131 301242 0 447644 283699 0 434969 266350 0 423078 249176 0 411942 232161 0 401535 215287 0 391833 198536 0 382811 181889 0 374449 165327 0 366724 148832 0 359617 132383 0 353110 115960 0 347184 99544.5 0 341823 83114.4 0 337012 66648.9 0 332735 50126.8 0 328979 33526.2 0 325731 16824.8 0 322978 0 0 719032 562444 0 691495 540559 0 665381 519061 0 640618 497939 0 617140 477185 0 594887 456788 0 573802 436735 0 553834 417013 0 534934 397609 0 517057 378509 0 500161 359696 0 484206 341156 0 469156 322873 0 454974 304830 0 441629 287009 0 429088 269394 0 417323 251967 0 406306 234709 0 396010 217603 0 386412 200629 0 377487 183768 0 369214 167002 0 361572 150309 0 354541 133671 0 348102 117067 0 342238 100476 0 336932 83876.7 0 332169 67248.3 0 327934 50568.8 0 324213 33816 0 320993 16967.5 0 318262 0 0 710150 571163 0 682868 548736 0 657001 526726 0 632476 505122 0 609227 483913 0 587195 463084 0 566322 442623 0 546557 422514 0 527853 402742 0 510162 383292 0 493445 364147 0 477660 345290 0 462771 326705 0 448743 308374 0 435542 290278 0 423139 272401 0 411503 254723 0 400608 237226 0 390427 219889 0 380935 202696 0 372109 185624 0 363928 168655 0 356370 151768 0 349416 134943 0 343047 118159 0 337246 101395 0 331997 84628.9 0 327283 67839.6 0 323091 51004.8 0 319407 34102 0 316217 17108.1 0 313509 0 0 701107 579789 0 674090 556823 0 648480 534306 0 624202 512225 0 601191 490564 0 579387 469308 0 558733 448442 0 539178 427949 0 520674 407813 0 503176 388017 0 486642 368543 0 471031 349373 0 456308 330489 0 442437 311874 0 429386 293507 0 417123 275370 0 405620 257444 0 394849 239709 0 384785 222146 0 375402 204735 0 366677 187455 0 358590 170286 0 351118 153207 0 344243 136198 0 337946 119236 0 332210 102301 0 327019 85370.9 0 322356 68422.9 0 318208 51434.9 0 314561 34384 0 311402 17246.9 0 308719 0 0 691904 588319 0 665165 564819 0 639821 541800 0 615799 519245 0 593033 497137 0 571464 475458 0 551037 454192 0 531698 433319 0 513400 412823 0 496099 392684 0 479753 372885 0 464321 353405 0 449768 334226 0 436058 315329 0 423159 296693 0 411041 278300 0 399673 260129 0 389030 242161 0 379085 224373 0 369813 206747 0 361193 189262 0 353201 171895 0 345818 154627 0 339024 137436 0 332800 120299 0 327131 103195 0 321999 86102.6 0 317388 68998.1 0 313286 51858.9 0 309677 34662 0 306550 17383.7 0 303892 0 0 682543 596750 0 656091 572722 0 631024 549205 0 607266 526181 0 584755 503630 0 563429 481533 0 543233 459870 0 524117 438622 0 506032 417769 0 488933 397292 0 472779 377170 0 457531 357384 0 443152 337914 0 429607 318738 0 416864 299838 0 404893 281191 0 393665 262779 0 383151 244578 0 373328 226570 0 364171 208732 0 355656 191043 0 347762 173482 0 340469 156027 0 333758 138656 0 327610 121347 0 322008 104077 0 316937 86823.9 0 312380 69565 0 308324 52276.9 0 304755 34936 0 301661 17518.5 0 299029 0 0 673027 605078 0 646873 580527 0 622091 556519 0 598607 533031 0 576357 510042 0 555281 487531 0 535325 465476 0 516437 443857 0 498570 422651 0 481679 401839 0 465722 381400 0 450662 361311 0 436461 341552 0 423085 322102 0 410502 302939 0 398681 284043 0 387594 265391 0 377214 246963 0 367516 228736 0 358474 210689 0 350068 192800 0 342274 175046 0 335073 157407 0 328447 139858 0 322376 122379 0 316843 104945 0 311834 87534.7 0 307332 70123.7 0 303324 52688.7 0 299796 35206 0 296736 17651.3 0 294131 0 0 663356 613302 0 637511 588234 0 613024 563739 0 589822 539793 0 567841 516371 0 547023 493450 0 527312 471008 0 508659 449021 0 491015 427468 0 474337 406325 0 458583 385571 0 443714 365183 0 429696 345140 0 416492 325418 0 404072 305997 0 392405 286854 0 381463 267967 0 371219 249313 0 361648 230870 0 352725 212617 0 344429 194530 0 336737 176588 0 329631 158766 0 323091 141043 0 317098 123396 0 311637 105801 0 306691 88234.8 0 302246 70673.9 0 298286 53094.3 0 294800 35471.9 0 291775 17782.1 0 289198 0 0 653533 621418 0 628007 595839 0 603825 570863 0 580913 546464 0 559210 522614 0 538656 499289 0 519198 476464 0 500784 454115 0 483369 432218 0 466909 410748 0 451362 389684 0 436690 369001 0 422858 348676 0 409830 328687 0 397577 309011 0 386067 289624 0 375273 270504 0 365167 251628 0 355726 232974 0 346924 214517 0 338740 196235 0 331153 178106 0 324143 160105 0 317690 142210 0 311778 124398 0 306389 106643 0 301508 88924.2 0 297120 71215.6 0 293211 53493.6 0 289768 35733.7 0 286778 17910.8 0 284230 0 0 643561 629423 0 618364 603340 0 594495 577890 0 571882 553043 0 550463 528771 0 530181 505047 0 510981 481844 0 492814 459136 0 475634 436899 0 459396 415108 0 444061 393737 0 429590 372763 0 415947 352161 0 403100 331908 0 391017 311980 0 379667 292353 0 369023 273004 0 359059 253909 0 349750 235045 0 341072 216387 0 333003 197914 0 325522 179600 0 318609 161423 0 312247 143359 0 306416 125384 0 301101 107473 0 296287 89602.7 0 291957 71748.8 0 288099 53886.6 0 284700 35991.2 0 281747 18037.5 0 279229 0 0 633441 637315 0 608583 610735 0 585036 584816 0 562730 559527 0 541604 534839 0 521600 510720 0 502666 487145 0 484751 464084 0 467810 441512 0 451800 419403 0 436681 397730 0 422415 376468 0 408966 355593 0 396303 335080 0 384393 314904 0 373206 295040 0 362716 275465 0 352896 256154 0 343722 237083 0 335169 218229 0 327217 199566 0 319844 181072 0 313031 162721 0 306760 144490 0 301013 126354 0 295773 108289 0 291026 90270.2 0 286757 72273.4 0 282952 54273.2 0 279597 36244.6 0 276682 18162.1 0 274194 0 0 623176 645091 0 598666 618020 0 575451 591640 0 553460 565916 0 532634 540816 0 512915 516310 0 494251 492366 0 476594 468957 0 459898 446055 0 444121 423632 0 429223 401661 0 415166 380116 0 401916 358972 0 389439 338202 0 377706 317781 0 366686 297684 0 356352 277887 0 346679 258363 0 337641 239089 0 329217 220040 0 321384 201192 0 314121 182519 0 307410 163997 0 301232 145601 0 295569 127308 0 290407 109091 0 285728 90926.7 0 281520 72789.2 0 277768 54653.4 0 274460 36493.8 0 271584 18284.7 0 269127 0 0 612768 652749 0 588617 625195 0 565741 598360 0 544073 572207 0 523554 546702 0 504127 521812 0 485741 497506 0 468347 473754 0 451901 450526 0 436361 427794 0 421688 405530 0 407845 383707 0 394796 362297 0 382510 341274 0 370957 320612 0 360106 300286 0 349932 280269 0 340408 260536 0 331510 241062 0 323216 221822 0 315504 202790 0 308353 183942 0 301745 165251 0 295662 146695 0 290086 128246 0 285002 109880 0 280394 91572 0 276248 73296.2 0 272550 55027 0 269289 36738.6 0 266452 18405.1 0 264028 0 0 602219 660286 0 578435 632256 0 555909 604973 0 534572 578398 0 514366 552494 0 495238 527227 0 477135 502565 0 460010 478474 0 443820 454926 0 428522 431889 0 414078 409336 0 400452 387238 0 387609 365567 0 375518 344295 0 364147 323396 0 353469 302844 0 343456 282611 0 334084 262673 0 325329 243002 0 317167 223573 0 309578 204361 0 302541 185340 0 296038 166484 0 290052 147769 0 284564 129168 0 279559 110655 0 275022 92206 0 270940 73794.3 0 267298 55394 0 264085 36979.2 0 261289 18523.4 0 258898 0 0 591533 667699 0 568126 639202 0 545956 611478 0 524957 584487 0 505073 558191 0 486249 532553 0 468435 507539 0 451585 483116 0 435655 459252 0 420604 435916 0 406394 413078 0 392989 390709 0 380356 368781 0 368462 347265 0 357277 326133 0 346775 305358 0 336927 284913 0 327709 264772 0 319098 244908 0 311071 225294 0 303607 205905 0 296686 186714 0 290290 167696 0 284401 148824 0 279003 130073 0 274079 111416 0 269615 92828.6 0 265597 74283.4 0 262013 55754.5 0 258848 37215.4 0 256093 18639.5 0 253736 0 0 580711 674987 0 557689 646030 0 535884 617874 0 515232 590474 0 495675 563791 0 477162 537788 0 459643 512429 0 443073 487678 0 427408 463503 0 412609 439873 0 398637 416755 0 385457 394121 0 373037 371939 0 361344 350182 0 350349 328821 0 340025 307827 0 330344 287174 0 321284 266834 0 312819 246779 0 304929 226984 0 297592 207420 0 290789 188063 0 284502 168885 0 278712 149860 0 273405 130962 0 268563 112164 0 264173 93439.8 0 260221 74763.5 0 256694 56108.2 0 253580 37447.2 0 250867 18753.5 0 248545 0 0 569756 682146 0 547129 652739 0 525697 624157 0 505397 596356 0 486175 569294 0 467979 542931 0 450761 517232 0 434476 492159 0 419082 467680 0 404538 443759 0 390809 420367 0 377858 397471 0 365654 375041 0 354165 353047 0 343363 331460 0 333220 310252 0 323710 289394 0 314808 268858 0 306493 248616 0 298741 228642 0 291534 208908 0 284850 189387 0 278673 170052 0 272985 150876 0 267769 131833 0 263012 112897 0 258697 94039.4 0 254812 75234.5 0 251344 56455.2 0 248280 37674.6 0 245611 18865.3 0 243324 0 0 558672 689176 0 536447 659326 0 515396 630326 0 495456 602131 0 476575 574696 0 458702 547981 0 441791 521948 0 425796 496559 0 410676 471780 0 396393 447575 0 382910 423912 0 370192 400759 0 358208 378084 0 346927 355858 0 336320 334050 0 326361 312631 0 317024 291571 0 308284 270843 0 300120 250418 0 292509 230269 0 285433 210367 0 278871 190685 0 272805 171196 0 267220 151873 0 262098 132689 0 257425 113616 0 253187 94627.3 0 249370 75696.3 0 245961 56795.4 0 242950 37897.5 0 240324 18974.9 0 238074 0 0 547461 696073 0 525646 665789 0 504983 636380 0 485410 607798 0 466877 579998 0 449333 552937 0 432733 526576 0 417033 500876 0 402193 475802 0 388175 451318 0 374942 427390 0 362461 403984 0 350701 381070 0 339630 358616 0 329222 336590 0 319450 314964 0 310287 293707 0 301712 272790 0 293701 252185 0 286234 231864 0 279290 211797 0 272851 191958 0 266899 172318 0 261418 152850 0 256391 133527 0 251805 114320 0 247644 95203.4 0 243896 76148.8 0 240548 57128.8 0 237590 38115.9 0 235009 19082.3 0 232795 0 0 536125 702837 0 514729 672128 0 494460 642317 0 475262 613356 0 457082 585197 0 439873 557796 0 423590 531114 0 408191 505110 0 393635 479747 0 379885 454988 0 366907 430799 0 354666 407146 0 343133 383997 0 332276 361318 0 322070 339080 0 312487 317250 0 303502 295800 0 295093 274698 0 287238 253917 0 279916 233426 0 273107 213198 0 266793 193205 0 260956 173417 0 255580 153807 0 250650 134348 0 246151 115010 0 242069 95767.7 0 238391 76591.9 0 235105 57455.3 0 232200 38329.8 0 229665 19187.4 0 227489 0 0 524668 709464 0 503698 678339 0 483831 648136 0 465013 618802 0 447193 590292 0 430324 562559 0 414364 535561 0 399269 509258 0 385002 483612 0 371526 458584 0 358805 434140 0 346809 410245 0 335505 386864 0 324866 363966 0 314864 341519 0 305473 319490 0 296669 297849 0 288429 276567 0 280731 255612 0 273556 234957 0 266884 214571 0 260696 194426 0 254976 174493 0 249707 154744 0 244875 135151 0 240464 115686 0 236462 96320 0 232856 77025.7 0 229633 57774.8 0 226782 38539.1 0 224293 19290.3 0 222156 0 0 513092 715953 0 492555 684421 0 473098 653834 0 454666 624137 0 437211 595282 0 420689 567223 0 405055 539917 0 390271 513321 0 376297 487397 0 363097 462106 0 350639 437411 0 338890 413278 0 327820 389672 0 317401 366559 0 307606 343906 0 298409 321682 0 289788 299856 0 281719 278395 0 274182 257272 0 267155 236454 0 260621 215913 0 254562 195620 0 248960 175545 0 243800 155661 0 239067 135937 0 234746 116347 0 230825 96860.3 0 227290 77450 0 224131 58087.3 0 221336 38743.8 0 218894 19391 0 216796 0 0 501401 722302 0 481304 690373 0 462262 659410 0 444223 629357 0 427140 600166 0 410968 571788 0 395667 544179 0 381197 517297 0 367520 491101 0 354602 465552 0 342409 440612 0 330911 416246 0 320078 392418 0 309882 369095 0 300297 346242 0 291298 323827 0 282861 301818 0 274966 280184 0 267590 258895 0 260715 237919 0 254321 217226 0 248391 196788 0 242909 176575 0 237859 156557 0 233226 136706 0 228996 116993 0 225157 97388.4 0 221696 77864.7 0 218601 58392.8 0 215862 38943.9 0 213468 19489.3 0 211410 0 0 489597 728510 0 469947 696193 0 451327 664863 0 433686 634463 0 416980 604942 0 401165 576253 0 386201 548348 0 372049 521186 0 358674 494723 0 346041 468922 0 334118 443742 0 322874 419149 0 312280 395104 0 302310 371574 0 292938 348525 0 284139 325923 0 275890 303736 0 268170 281933 0 260958 260481 0 254235 239350 0 247983 218509 0 242185 197930 0 236824 177580 0 231885 157433 0 227354 137457 0 223216 117624 0 219460 97904.3 0 216073 78269.8 0 213044 58691.2 0 210362 39139.4 0 208017 19585.4 0 205999 0 0 477683 734574 0 458487 701880 0 440295 670191 0 423058 639452 0 406734 609610 0 391281 580615 0 376658 552422 0 362830 524985 0 349760 498263 0 337416 472215 0 325766 446801 0 314779 421984 0 304429 397728 0 294687 373996 0 285530 350755 0 276933 327971 0 268874 305610 0 261332 283640 0 254286 262030 0 247718 240747 0 241609 219762 0 235944 199044 0 230706 178562 0 225879 158288 0 221451 138190 0 217407 118240 0 213735 98407.9 0 210423 78665.2 0 207460 58982.4 0 204836 39330.1 0 202540 19679.1 0 200564 0 0 465662 740495 0 446926 707432 0 429168 675394 0 412341 644323 0 396404 614167 0 381317 584876 0 367041 556400 0 353540 528696 0 340780 501719 0 328728 475430 0 317354 449787 0 306629 424752 0 296524 400289 0 287014 376361 0 278075 352932 0 269683 329969 0 261816 307438 0 254453 285306 0 247575 263541 0 241163 242111 0 235200 220985 0 229669 200131 0 224555 179520 0 219842 159122 0 215518 138905 0 211568 118841 0 207982 98899.2 0 204746 79050.9 0 201850 59266.4 0 199284 39516.2 0 197039 19770.6 0 195104 0 0 453538 746269 0 435267 712847 0 417949 680469 0 401537 649076 0 385993 618614 0 371277 589032 0 357351 560281 0 344182 532316 0 331735 505091 0 319980 478566 0 308885 452700 0 298424 427453 0 288568 402787 0 279292 378667 0 270573 355056 0 262388 331919 0 254715 309222 0 247534 286931 0 240826 265015 0 234572 243441 0 228756 222177 0 223361 201191 0 218372 180454 0 213775 159934 0 209556 139602 0 205702 119426 0 202201 99377.9 0 199042 79426.8 0 196215 59543.2 0 193708 39697.5 0 191514 19859.7 0 189621 0 0 441312 751896 0 423514 718125 0 406640 685416 0 390649 653709 0 375502 622949 0 361161 593084 0 347591 564065 0 334757 535844 0 322628 508378 0 311172 481624 0 300360 455539 0 290165 430085 0 280561 405222 0 271523 380915 0 263027 357125 0 255051 333818 0 247574 310959 0 240577 288515 0 234040 266451 0 227946 244736 0 222278 223338 0 217020 202224 0 212158 181364 0 207678 160726 0 203565 140281 0 199808 119997 0 196394 99844.1 0 193313 79792.8 0 190555 59812.8 0 188108 39874 0 185965 19946.4 0 184116 0 0 428987 757376 0 411669 723264 0 395244 690234 0 379679 658221 0 364933 627171 0 350972 597030 0 337761 567750 0 325267 539281 0 313458 511579 0 302306 484601 0 291780 458304 0 281855 432648 0 272506 407594 0 263707 383103 0 255436 359140 0 247672 335667 0 240393 312651 0 233582 290056 0 227218 267849 0 221286 245997 0 215768 224468 0 210649 203229 0 205915 182249 0 201552 161497 0 197547 140941 0 193887 120552 0 190562 100298 0 187560 80148.9 0 184871 60075 0 182485 40045.7 0 180394 20030.8 0 178588 0 0 </DataArray> 
</PointData> 
<Points> 
<DataArray type="Float32" NumberOfComponents="3"> 