<?xml version="1.0"?> 
<VTKFile type="StructuredGrid" version="0.1"> 
<StructuredGrid WholeExtent="0 31 0 31 0 0"> 
<Piece Extent="0 31 0 31 0 0"> 
<PointData>
<DataArray type="Float32" Name="|E|" format="ascii" NumberOfComponents="3"> 
1.36822e+06 0 0 1.39568e+06 0.0910215 0 1.45526e+06 0.0465117 0 1.52249e+06 0.021285 0 1.58644e+06 0.00960784 0 1.64193e+06 0.00350693 0 1.68678e+06 0.000518851 0 1.72034e+06 -0.00115878 0 1.74272e+06 -0.00212517 0 1.75453e+06 -0.0027024 0 1.7566e+06 -0.00301503 0 1.74994e+06 -0.00313132 0 1.73561e+06 -0.00309974 0 1.7147e+06 -0.0029572 0 1.68827e+06 -0.00274155 0 1.65731e+06 -0.00248054 0 1.62274e+06 -0.00220135 0 1.58537e+06 -0.00192034 0 1.54592e+06 -0.00165126 0 1.50501e+06 -0.00140166 0 1.46319e+06 -0.00117624 0 1.4209e+06 -0.000975907 0 1.37852e+06 -0.000801563 0 1.33635e+06 -0.000651002 0 1.29466e+06 -0.000523329 0 1.25365e+06 -0.000415087 0 1.21349e+06 -0.000323951 0 1.1743e+06 -0.000248253 0 1.13619e+06 -0.000185192 0 1.09922e+06 -0.000133455 0 1.06347e+06 -9.07183e-05 0 1.02896e+06 -5.6982e-05 0 1.36813e+06 -1.22935e-06 0 1.39563e+06 -2525.35 0 1.45525e+06 -3556.76 0 1.52249e+06 -3634.4 0 1.58645e+06 -3292.11 0 1.64195e+06 -2756.12 0 1.6868e+06 -2148.71 0 1.72035e+06 -1529.34 0 1.74274e+06 -931.1 0 1.75455e+06 -372.912 0 1.75662e+06 133.972 0 1.74995e+06 583.473 0 1.73561e+06 973.279 0 1.7147e+06 1303.95 0 1.68827e+06 1578.14 0 1.65732e+06 1799.95 0 1.62274e+06 1974.3 0 1.58537e+06 2106.53 0 1.54592e+06 2201.98 0 1.50502e+06 2265.8 0 1.46319e+06 2302.76 0 1.4209e+06 2317.17 0 1.37852e+06 2312.86 0 1.33635e+06 2293.18 0 1.29466e+06 2260.99 0 1.25365e+06 2218.76 0 1.21349e+06 2168.57 0 1.1743e+06 2112.16 0 1.13618e+06 2050.98 0 1.09922e+06 1986.24 0 1.06347e+06 1918.93 0 1.02896e+06 1849.88 0 1.36786e+06 8.49366e-07 0 1.39549e+06 -5056 0 1.45522e+06 -7116.23 0 1.52251e+06 -7270.03 0 1.58649e+06 -6584.78 0 1.64199e+06 -5512.44 0 1.68685e+06 -4297.45 0 1.7204e+06 -3058.61 0 1.74279e+06 -1862.08 0 1.75459e+06 -745.667 0 1.75666e+06 268.119 0 1.74998e+06 1167.13 0 1.73564e+06 1946.74 0 1.71473e+06 2608.07 0 1.68829e+06 3156.45 0 1.65733e+06 3600.04 0 1.62275e+06 3948.74 0 1.58538e+06 4213.17 0 1.54593e+06 4404.06 0 1.50502e+06 4531.69 0 1.46319e+06 4605.59 0 1.4209e+06 4634.4 0 1.37852e+06 4625.77 0 1.33635e+06 4586.39 0 1.29466e+06 4522.01 0 1.25365e+06 4437.55 0 1.21348e+06 4337.16 0 1.17429e+06 4224.33 0 1.13618e+06 4101.96 0 1.09922e+06 3972.48 0 1.06346e+06 3837.87 0 1.02896e+06 3699.76 0 1.3674e+06 -7.15256e-07 0 1.39525e+06 -7597.26 0 1.45517e+06 -10681.1 0 1.52253e+06 -10908.1 0 1.58656e+06 -9878.56 0 1.64207e+06 -8269.17 0 1.68693e+06 -6446.25 0 1.72049e+06 -4587.75 0 1.74287e+06 -2792.81 0 1.75466e+06 -1118.11 0 1.75672e+06 402.616 0 1.75004e+06 1751.15 0 1.73569e+06 2920.56 0 1.71477e+06 3912.54 0 1.68833e+06 4735.07 0 1.65736e+06 5400.43 0 1.62278e+06 5923.42 0 1.58539e+06 6320.04 0 1.54594e+06 6606.34 0 1.50503e+06 6797.74 0 1.4632e+06 6908.56 0 1.4209e+06 6951.74 0 1.37851e+06 6938.78 0 1.33635e+06 6879.68 0 1.29465e+06 6783.09 0 1.25364e+06 6656.38 0 1.21348e+06 6505.78 0 1.17429e+06 6336.52 0 1.13617e+06 6152.97 0 1.09921e+06 5958.74 0 1.06345e+06 5756.82 0 1.02895e+06 5549.64 0 1.36676e+06 4.47035e-07 0 1.39492e+06 -10154.4 0 1.4551e+06 -14253.9 0 1.52257e+06 -14549.9 0 1.58665e+06 -13174 0 1.64219e+06 -11026.5 0 1.68705e+06 -8595.14 0 1.7206e+06 -6116.69 0 1.74298e+06 -3723.17 0 1.75477e+06 -1490.08 0 1.75681e+06 537.633 0 1.75012e+06 2335.7 0 1.73576e+06 3894.91 0 1.71483e+06 5217.51 0 1.68838e+06 6314.17 0 1.6574e+06 7201.24 0 1.6228e+06 7898.49 0 1.58542e+06 8427.24 0 1.54595e+06 8808.89 0 1.50504e+06 9064.03 0 1.4632e+06 9211.73 0 1.4209e+06 9269.26 0 1.37851e+06 9251.92 0 1.33634e+06 9173.08 0 1.29465e+06 9044.26 0 1.25363e+06 8875.28 0 1.21347e+06 8674.46 0 1.17427e+06 8448.77 0 1.13616e+06 8204.01 0 1.09919e+06 7945.03 0 1.06344e+06 7675.78 0 1.02893e+06 7399.54 0 1.36594e+06 -2.08616e-07 0 1.39449e+06 -12732.8 0 1.45501e+06 -17837.3 0 1.52262e+06 -18196.6 0 1.58677e+06 -16471.6 0 1.64233e+06 -13784.6 0 1.6872e+06 -10744.2 0 1.72075e+06 -7645.36 0 1.74312e+06 -4653.04 0 1.7549e+06 -1861.44 0 1.75693e+06 673.343 0 1.75022e+06 2920.98 0 1.73585e+06 4869.98 0 1.7149e+06 6523.17 0 1.68844e+06 7893.89 0 1.65745e+06 9002.62 0 1.62284e+06 9874.07 0 1.58544e+06 10534.9 0 1.54597e+06 11011.8 0 1.50505e+06 11330.6 0 1.46321e+06 11515.2 0 1.4209e+06 11587 0 1.37851e+06 11565.2 0 1.33633e+06 11466.6 0 1.29464e+06 11305.6 0 1.25362e+06 11094.3 0 1.21345e+06 10843.2 0 1.17426e+06 10561.1 0 1.13614e+06 10255.1 0 1.09918e+06 9931.34 0 1.06342e+06 9594.77 0 1.02892e+06 9249.45 0 1.36492e+06 2.08616e-07 0 1.39397e+06 -15337.9 0 1.4549e+06 -21433.8 0 1.52267e+06 -21849.3 0 1.58691e+06 -19772 0 1.64251e+06 -16543.8 0 1.68739e+06 -12893.3 0 1.72094e+06 -9173.7 0 1.7433e+06 -5582.31 0 1.75506e+06 -2232.02 0 1.75707e+06 809.918 0 1.75035e+06 3507.16 0 1.73596e+06 5845.93 0 1.71499e+06 7829.67 0 1.68851e+06 9474.4 0 1.6575e+06 10804.7 0 1.62289e+06 11850.3 0 1.58548e+06 12643.1 0 1.546e+06 13215.2 0 1.50506e+06 13597.7 0 1.46322e+06 13818.9 0 1.4209e+06 13905 0 1.3785e+06 13878.8 0 1.33633e+06 13760.4 0 1.29463e+06 13567 0 1.25361e+06 13313.4 0 1.21344e+06 13012.1 0 1.17424e+06 12673.4 0 1.13612e+06 12306.2 0 1.09916e+06 11917.7 0 1.0634e+06 11513.8 0 1.02889e+06 11099.4 0 1.36371e+06 -3.57628e-07 0 1.39336e+06 -17975.5 0 1.45478e+06 -25046 0 1.52274e+06 -25509.3 0 1.58708e+06 -23075.6 0 1.64272e+06 -19304.1 0 1.68761e+06 -15042.6 0 1.72116e+06 -10701.6 0 1.7435e+06 -6510.84 0 1.75525e+06 -2601.66 0 1.75724e+06 947.53 0 1.7505e+06 4094.41 0 1.73609e+06 6822.95 0 1.7151e+06 9137.19 0 1.6886e+06 11055.9 0 1.65757e+06 12607.6 0 1.62294e+06 13827.2 0 1.58552e+06 14751.9 0 1.54602e+06 15419.2 0 1.50508e+06 15865.1 0 1.46323e+06 16123.1 0 1.42091e+06 16223.4 0 1.3785e+06 16192.6 0 1.33632e+06 16054.3 0 1.29461e+06 15828.6 0 1.25359e+06 15532.7 0 1.21342e+06 15181 0 1.17422e+06 14785.9 0 1.1361e+06 14357.4 0 1.09914e+06 13904.1 0 1.06338e+06 13432.8 0 1.02887e+06 12949.3 0 1.3623e+06 5.96046e-08 0 1.39266e+06 -20651.3 0 1.45464e+06 -28676.3 0 1.52282e+06 -29177.8 0 1.58728e+06 -26382.9 0 1.64296e+06 -22065.8 0 1.68787e+06 -17192.1 0 1.72141e+06 -12229.1 0 1.74374e+06 -7438.51 0 1.75547e+06 -2970.23 0 1.75744e+06 1086.35 0 1.75067e+06 4682.92 0 1.73623e+06 7801.21 0 1.71522e+06 10445.9 0 1.6887e+06 12638.4 0 1.65766e+06 14411.6 0 1.623e+06 15805.1 0 1.58556e+06 16861.5 0 1.54606e+06 17623.9 0 1.5051e+06 18133.2 0 1.46324e+06 18427.8 0 1.42091e+06 18542.1 0 1.37849e+06 18506.8 0 1.33631e+06 18348.6 0 1.2946e+06 18090.4 0 1.25357e+06 17752.1 0 1.2134e+06 17350.1 0 1.1742e+06 16898.4 0 1.13608e+06 16408.7 0 1.09911e+06 15890.5 0 1.06335e+06 15351.9 0 1.02884e+06 14799.3 0 1.36069e+06 -2.38419e-07 0 1.39186e+06 -23371.5 0 1.45448e+06 -32327 0 1.52292e+06 -32856.1 0 1.5875e+06 -29694.5 0 1.64323e+06 -24829.1 0 1.68816e+06 -19341.8 0 1.72169e+06 -13756 0 1.74401e+06 -8365.21 0 1.75571e+06 -3337.55 0 1.75766e+06 1226.56 0 1.75087e+06 5272.86 0 1.7364e+06 8780.9 0 1.71536e+06 11756 0 1.68881e+06 14222.2 0 1.65775e+06 16216.7 0 1.62308e+06 17783.9 0 1.58562e+06 18972 0 1.54609e+06 19829.2 0 1.50512e+06 20401.9 0 1.46325e+06 20733 0 1.42091e+06 20861.3 0 1.37849e+06 20821.3 0 1.33629e+06 20643.1 0 1.29458e+06 20352.5 0 1.25355e+06 19971.7 0 1.21337e+06 19519.3 0 1.17417e+06 19011.1 0 1.13605e+06 18460.1 0 1.09908e+06 17877.1 0 1.06332e+06 17271 0 1.02881e+06 16649.3 0 1.35885e+06 4.17233e-07 0 1.39098e+06 -26142.4 0 1.4543e+06 -36000.5 0 1.52302e+06 -36545.2 0 1.58775e+06 -33010.9 0 1.64354e+06 -27594.1 0 1.68848e+06 -21491.8 0 1.72201e+06 -15282.3 0 1.74431e+06 -9290.81 0 1.75599e+06 -3703.48 0 1.75791e+06 1368.32 0 1.75108e+06 5864.42 0 1.73659e+06 9762.18 0 1.71552e+06 13067.5 0 1.68894e+06 15807.4 0 1.65785e+06 18023 0 1.62315e+06 19763.9 0 1.58568e+06 21083.5 0 1.54613e+06 22035.5 0 1.50515e+06 22671.3 0 1.46326e+06 23038.8 0 1.42091e+06 23181 0 1.37848e+06 23136.2 0 1.33628e+06 22937.9 0 1.29456e+06 22614.8 0 1.25353e+06 22191.5 0 1.21334e+06 21688.8 0 1.17414e+06 21123.9 0 1.13601e+06 20511.5 0 1.09904e+06 19863.6 0 1.06328e+06 19190.2 0 1.02877e+06 18499.3 0 1.3568e+06 -5.96046e-08 0 1.39002e+06 -28970.7 0 1.45412e+06 -39698.9 0 1.52314e+06 -40246.4 0 1.58803e+06 -36332.6 0 1.64387e+06 -30361.1 0 1.68884e+06 -23642 0 1.72236e+06 -16808 0 1.74465e+06 -10215.2 0 1.7563e+06 -4067.86 0 1.75819e+06 1511.81 0 1.75132e+06 6457.77 0 1.7368e+06 10745.2 0 1.71569e+06 14380.8 0 1.68908e+06 17394.2 0 1.65796e+06 19830.8 0 1.62324e+06 21745.1 0 1.58574e+06 23196.1 0 1.54618e+06 24242.7 0 1.50518e+06 24941.5 0 1.46327e+06 25345.2 0 1.42091e+06 25501.2 0 1.37847e+06 25451.6 0 1.33626e+06 25233.2 0 1.29454e+06 24877.5 0 1.2535e+06 24411.6 0 1.21331e+06 23858.3 0 1.1741e+06 23236.8 0 1.13598e+06 22563.1 0 1.099e+06 21850.3 0 1.06324e+06 21109.4 0 1.02873e+06 20349.4 0 1.35451e+06 1.19209e-07 0 1.38897e+06 -31863.4 0 1.45391e+06 -43424.3 0 1.52327e+06 -43960.9 0 1.58834e+06 -39659.9 0 1.64425e+06 -33130.3 0 1.68923e+06 -25792.5 0 1.72275e+06 -18332.9 0 1.74501e+06 -11138.2 0 1.75663e+06 -4430.53 0 1.75849e+06 1657.2 0 1.75159e+06 7053.1 0 1.73702e+06 11730.2 0 1.71588e+06 15695.9 0 1.68924e+06 18982.7 0 1.65809e+06 21640.1 0 1.62334e+06 23727.8 0 1.58581e+06 25309.9 0 1.54623e+06 26450.9 0 1.50521e+06 27212.6 0 1.46329e+06 27652.4 0 1.42092e+06 27822.1 0 1.37847e+06 27767.5 0 1.33625e+06 27528.8 0 1.29451e+06 27140.4 0 1.25347e+06 26631.9 0 1.21328e+06 26028.1 0 1.17407e+06 25349.9 0 1.13594e+06 24614.8 0 1.09896e+06 23837 0 1.0632e+06 23028.7 0 1.02869e+06 22199.4 0 1.35198e+06 -5.36442e-07 0 1.38785e+06 -34827.8 0 1.4537e+06 -47178.5 0 1.52341e+06 -47690 0 1.58867e+06 -42993.3 0 1.64465e+06 -35901.7 0 1.68966e+06 -27943.2 0 1.72317e+06 -19856.9 0 1.74541e+06 -12059.7 0 1.757e+06 -4791.34 0 1.75881e+06 1804.67 0 1.75187e+06 7650.58 0 1.73727e+06 12717.4 0 1.71609e+06 17013.1 0 1.68941e+06 20573.1 0 1.65822e+06 23451.1 0 1.62344e+06 25711.9 0 1.58589e+06 27425 0 1.54628e+06 28660.2 0 1.50524e+06 29484.7 0 1.46331e+06 29960.4 0 1.42092e+06 30143.6 0 1.37846e+06 30083.9 0 1.33623e+06 29824.9 0 1.29449e+06 29403.8 0 1.25344e+06 28852.5 0 1.21324e+06 28198.1 0 1.17403e+06 27463.2 0 1.13589e+06 26666.6 0 1.09892e+06 25823.9 0 1.06315e+06 24948 0 1.02864e+06 24049.6 0 1.34919e+06 3.57628e-07 0 1.38665e+06 -37871.8 0 1.45347e+06 -50963.3 0 1.52357e+06 -51434.9 0 1.58903e+06 -46333.3 0 1.64509e+06 -38675.7 0 1.69012e+06 -30094.3 0 1.72362e+06 -21380.1 0 1.74584e+06 -12979.7 0 1.75739e+06 -5150.12 0 1.75917e+06 1954.38 0 1.75218e+06 8250.39 0 1.73753e+06 13706.8 0 1.71631e+06 18332.5 0 1.68959e+06 22165.5 0 1.65837e+06 25264 0 1.62355e+06 27697.7 0 1.58597e+06 29541.5 0 1.54634e+06 30870.8 0 1.50528e+06 31757.8 0 1.46333e+06 32269.3 0 1.42092e+06 32465.8 0 1.37845e+06 32401 0 1.33621e+06 32121.4 0 1.29446e+06 31667.5 0 1.2534e+06 31073.5 0 1.2132e+06 30368.4 0 1.17398e+06 29576.6 0 1.13585e+06 28718.5 0 1.09887e+06 27810.8 0 1.0631e+06 26867.4 0 1.02859e+06 25899.7 0 1.34613e+06 -1.19209e-07 0 1.38538e+06 -41003.8 0 1.45323e+06 -54780.2 0 1.52374e+06 -55196.8 0 1.58942e+06 -49680.2 0 1.64556e+06 -41452.3 0 1.69062e+06 -32245.6 0 1.72411e+06 -22902.3 0 1.7463e+06 -13897.9 0 1.75782e+06 -5506.73 0 1.75955e+06 2106.53 0 1.75252e+06 8852.72 0 1.73782e+06 14698.7 0 1.71655e+06 19654.2 0 1.68979e+06 23760.2 0 1.65852e+06 27078.9 0 1.62367e+06 29685.2 0 1.58606e+06 31659.6 0 1.5464e+06 33082.7 0 1.50532e+06 34032 0 1.46335e+06 34579.1 0 1.42093e+06 34788.9 0 1.37844e+06 34718.6 0 1.33619e+06 34418.5 0 1.29443e+06 33931.6 0 1.25337e+06 33294.7 0 1.21316e+06 32538.9 0 1.17394e+06 31690.3 0 1.1358e+06 30770.6 0 1.09882e+06 29797.8 0 1.06305e+06 28786.9 0 1.02853e+06 27750 0 1.34277e+06 -3.57628e-07 0 1.38405e+06 -44232.8 0 1.45298e+06 -58630.5 0 1.52393e+06 -58977 0 1.58984e+06 -53034.5 0 1.64606e+06 -44231.8 0 1.69115e+06 -34397.2 0 1.72463e+06 -24423.5 0 1.74679e+06 -14814.2 0 1.75827e+06 -5861 0 1.75995e+06 2261.28 0 1.75287e+06 9457.74 0 1.73812e+06 15693.3 0 1.71681e+06 20978.5 0 1.69e+06 25357.1 0 1.65869e+06 28895.8 0 1.6238e+06 31674.6 0 1.58616e+06 33779.3 0 1.54647e+06 35296 0 1.50536e+06 36307.4 0 1.46337e+06 36889.9 0 1.42093e+06 37112.7 0 1.37843e+06 37037 0 1.33617e+06 36716.1 0 1.2944e+06 36196.2 0 1.25333e+06 35516.3 0 1.21311e+06 34709.7 0 1.17389e+06 33804.1 0 1.13574e+06 32822.8 0 1.09876e+06 31785 0 1.06299e+06 30706.5 0 1.02847e+06 29600.2 0 1.33911e+06 4.76837e-07 0 1.38266e+06 -47568.1 0 1.45273e+06 -62515.2 0 1.52414e+06 -62776.9 0 1.59029e+06 -56396.2 0 1.6466e+06 -47014.3 0 1.69171e+06 -36549 0 1.72519e+06 -25943.5 0 1.74732e+06 -15728.6 0 1.75875e+06 -6212.78 0 1.76039e+06 2418.8 0 1.75325e+06 10065.6 0 1.73845e+06 16690.8 0 1.71708e+06 22305.5 0 1.69022e+06 26956.6 0 1.65887e+06 30715.1 0 1.62394e+06 33666 0 1.58626e+06 35900.7 0 1.54654e+06 37510.8 0 1.50541e+06 38584.1 0 1.46339e+06 39201.8 0 1.42093e+06 39437.5 0 1.37842e+06 39356.1 0 1.33614e+06 39014.4 0 1.29436e+06 38461.2 0 1.25328e+06 37738.3 0 1.21306e+06 36880.8 0 1.17383e+06 35918.2 0 1.13569e+06 34875.2 0 1.0987e+06 33772.3 0 1.06293e+06 32626.1 0 1.02841e+06 31450.5 0 1.33511e+06 1.19209e-07 0 1.38123e+06 -51020.2 0 1.45246e+06 -66434.9 0 1.52436e+06 -66597.9 0 1.59077e+06 -59765.9 0 1.64717e+06 -49800.1 0 1.69231e+06 -38701.2 0 1.72578e+06 -27462.4 0 1.74788e+06 -16640.8 0 1.75926e+06 -6561.89 0 1.76084e+06 2579.28 0 1.75365e+06 10676.6 0 1.73879e+06 17691.2 0 1.71737e+06 23635.3 0 1.69045e+06 28558.8 0 1.65905e+06 32536.8 0 1.62408e+06 35659.6 0 1.58636e+06 38024.1 0 1.54661e+06 39727.3 0 1.50545e+06 40862.2 0 1.46341e+06 41514.9 0 1.42094e+06 41763.2 0 1.3784e+06 41675.9 0 1.33612e+06 41313.2 0 1.29433e+06 40726.8 0 1.25324e+06 39960.7 0 1.21301e+06 39052.2 0 1.17378e+06 38032.5 0 1.13563e+06 36927.8 0 1.09864e+06 35759.7 0 1.06286e+06 34545.8 0 1.02835e+06 33300.9 0 1.33076e+06 -1.19209e-07 0 1.37976e+06 -54600 0 1.45218e+06 -70390 0 1.52461e+06 -70441.4 0 1.59128e+06 -63143.6 0 1.64777e+06 -52589.3 0 1.69295e+06 -40853.6 0 1.7264e+06 -28980 0 1.74846e+06 -17550.8 0 1.7598e+06 -6908.19 0 1.76133e+06 2742.89 0 1.75408e+06 11290.8 0 1.73915e+06 18694.9 0 1.71767e+06 24968.3 0 1.6907e+06 30163.7 0 1.65925e+06 34361 0 1.62424e+06 37655.4 0 1.58648e+06 40149.3 0 1.54669e+06 41945.4 0 1.5055e+06 43141.6 0 1.46344e+06 43829.1 0 1.42094e+06 44089.9 0 1.37839e+06 43996.6 0 1.33609e+06 43612.8 0 1.29429e+06 42992.9 0 1.25319e+06 42183.5 0 1.21296e+06 41223.9 0 1.17372e+06 40147.1 0 1.13556e+06 38980.6 0 1.09857e+06 37747.2 0 1.06279e+06 36465.6 0 1.02827e+06 35151.3 0 1.32602e+06 -4.76837e-07 0 1.37827e+06 -58319.5 0 1.45189e+06 -74380.2 0 1.52487e+06 -74309.1 0 1.59181e+06 -66529.6 0 1.64841e+06 -55382.1 0 1.69362e+06 -43006.1 0 1.72706e+06 -30496.2 0 1.74909e+06 -18458.4 0 1.76038e+06 -7251.52 0 1.76184e+06 2909.81 0 1.75452e+06 11908.4 0 1.73954e+06 19702 0 1.71799e+06 26304.4 0 1.69097e+06 31771.7 0 1.65946e+06 36187.9 0 1.6244e+06 39653.6 0 1.5866e+06 42276.7 0 1.54678e+06 44165.3 0 1.50555e+06 45422.6 0 1.46346e+06 46144.6 0 1.42095e+06 46417.6 0 1.37838e+06 46318.2 0 1.33606e+06 45913 0 1.29425e+06 45259.5 0 1.25314e+06 44406.7 0 1.2129e+06 43395.9 0 1.17365e+06 42261.9 0 1.13549e+06 41033.6 0 1.0985e+06 39734.9 0 1.06272e+06 38385.5 0 1.0282e+06 37001.8 0 1.32085e+06 7.15256e-07 0 1.37678e+06 -62191.4 0 1.45158e+06 -78404.9 0 1.52516e+06 -78202.5 0 1.59238e+06 -69923.8 0 1.64909e+06 -58178.7 0 1.69433e+06 -45158.9 0 1.72775e+06 -32011 0 1.74974e+06 -19363.5 0 1.76098e+06 -7591.7 0 1.76238e+06 3080.21 0 1.755e+06 12529.7 0 1.73994e+06 20712.6 0 1.71833e+06 27643.9 0 1.69124e+06 33382.8 0 1.65968e+06 38017.6 0 1.62457e+06 41654.3 0 1.58672e+06 44406.3 0 1.54686e+06 46387 0 1.50561e+06 47705.2 0 1.46349e+06 48461.4 0 1.42095e+06 48746.5 0 1.37836e+06 48640.6 0 1.33603e+06 48213.9 0 1.29421e+06 47526.7 0 1.25309e+06 46630.4 0 1.21284e+06 45568.4 0 1.17359e+06 44377 0 1.13542e+06 43086.8 0 1.09842e+06 41722.7 0 1.06264e+06 40305.5 0 1.02812e+06 38852.4 0 1.31523e+06 -5.96046e-07 0 1.37529e+06 -66229.9 0 1.45126e+06 -82463 0 1.52548e+06 -82123.5 0 1.59298e+06 -73326.4 0 1.64979e+06 -60979.4 0 1.69507e+06 -47311.8 0 1.72848e+06 -33524.2 0 1.75043e+06 -20265.9 0 1.7616e+06 -7928.57 0 1.76294e+06 3254.27 0 1.75549e+06 13154.7 0 1.74036e+06 21726.9 0 1.71868e+06 28987 0 1.69153e+06 34997.2 0 1.65991e+06 39850.4 0 1.62475e+06 43657.7 0 1.58685e+06 46538.1 0 1.54695e+06 48610.8 0 1.50567e+06 49989.5 0 1.46352e+06 50779.7 0 1.42095e+06 51076.5 0 1.37835e+06 50964 0 1.336e+06 50515.7 0 1.29416e+06 49794.6 0 1.25303e+06 48854.6 0 1.21278e+06 47741.2 0 1.17352e+06 46492.4 0 1.13535e+06 45140.2 0 1.09835e+06 43710.7 0 1.06256e+06 42225.7 0 1.02804e+06 40703 0 1.3091e+06 7.15256e-07 0 1.37384e+06 -70449.9 0 1.45092e+06 -86552.5 0 1.52583e+06 -86074.2 0 1.5936e+06 -76737.3 0 1.65054e+06 -63784.3 0 1.69584e+06 -49464.8 0 1.72924e+06 -35035.9 0 1.75114e+06 -21165.6 0 1.76226e+06 -8261.97 0 1.76353e+06 3432.17 0 1.756e+06 13783.7 0 1.74081e+06 22745.2 0 1.71905e+06 30333.8 0 1.69183e+06 36615 0 1.66015e+06 41686.2 0 1.62493e+06 45663.8 0 1.58699e+06 48672.4 0 1.54705e+06 50836.6 0 1.50573e+06 52275.5 0 1.46355e+06 53099.4 0 1.42096e+06 53407.7 0 1.37833e+06 53288.4 0 1.33597e+06 52818.2 0 1.29412e+06 52063.1 0 1.25298e+06 51079.3 0 1.21271e+06 49914.4 0 1.17344e+06 48608.2 0 1.13527e+06 47193.8 0 1.09826e+06 45698.8 0 1.06248e+06 44145.9 0 1.02795e+06 42553.7 0 1.30243e+06 -5.96046e-07 0 1.37244e+06 -74868 0 1.45056e+06 -90670.7 0 1.52621e+06 -90056.6 0 1.59425e+06 -80156.1 0 1.65132e+06 -66593.7 0 1.69666e+06 -51617.8 0 1.73003e+06 -36545.8 0 1.75189e+06 -22062.3 0 1.76295e+06 -8591.73 0 1.76415e+06 3614.09 0 1.75654e+06 14416.9 0 1.74127e+06 23767.6 0 1.71944e+06 31684.6 0 1.69215e+06 38236.5 0 1.66041e+06 43525.3 0 1.62513e+06 47672.8 0 1.58714e+06 50809.2 0 1.54715e+06 53064.6 0 1.50579e+06 54563.4 0 1.46358e+06 55420.6 0 1.42096e+06 55740.2 0 1.37831e+06 55613.9 0 1.33593e+06 55121.6 0 1.29407e+06 54332.3 0 1.25292e+06 53304.6 0 1.21264e+06 52088.1 0 1.17337e+06 50724.2 0 1.13519e+06 49247.7 0 1.09818e+06 47687.1 0 1.06239e+06 46066.2 0 1.02786e+06 44404.5 0 1.29514e+06 8.34465e-07 0 1.37114e+06 -79502 0 1.45016e+06 -94814.1 0 1.52663e+06 -94073.3 0 1.59493e+06 -83582.7 0 1.65214e+06 -69407.9 0 1.6975e+06 -53770.8 0 1.73086e+06 -38054 0 1.75268e+06 -22956 0 1.76367e+06 -8917.67 0 1.76479e+06 3800.21 0 1.75711e+06 15054.4 0 1.74175e+06 24794.2 0 1.71984e+06 33039.4 0 1.69248e+06 39861.7 0 1.66067e+06 45367.8 0 1.62533e+06 49684.9 0 1.58729e+06 52948.6 0 1.54725e+06 55294.8 0 1.50585e+06 56853.1 0 1.46361e+06 57743.5 0 1.42097e+06 58074 0 1.3783e+06 57940.4 0 1.3359e+06 57425.9 0 1.29402e+06 56602.2 0 1.25285e+06 55530.4 0 1.21257e+06 54262.1 0 1.17329e+06 52840.6 0 1.1351e+06 51301.8 0 1.09809e+06 49675.7 0 1.0623e+06 47986.7 0 1.02777e+06 46255.4 0 1.28718e+06 -9.53674e-07 0 1.36996e+06 -84371.5 0 1.44972e+06 -98978.2 0 1.5271e+06 -98127.1 0 1.59564e+06 -87016.6 0 1.653e+06 -72227.1 0 1.69838e+06 -55923.7 0 1.73173e+06 -39560.3 0 1.75349e+06 -23846.5 0 1.76442e+06 -9239.62 0 1.76546e+06 3990.69 0 1.75769e+06 15696.5 0 1.74225e+06 25825.3 0 1.72026e+06 34398.5 0 1.69282e+06 41490.8 0 1.66094e+06 47213.9 0 1.62554e+06 51700 0 1.58744e+06 55090.7 0 1.54736e+06 57527.4 0 1.50592e+06 59144.9 0 1.46364e+06 60068 0 1.42097e+06 60409.2 0 1.37828e+06 60268.1 0 1.33586e+06 59731.1 0 1.29396e+06 58872.9 0 1.25279e+06 57756.8 0 1.21249e+06 56436.7 0 1.17321e+06 54957.3 0 1.13502e+06 53356.2 0 1.098e+06 51664.3 0 1.0622e+06 49907.3 0 1.02767e+06 48106.3 0 1.27847e+06 1.43051e-06 0 1.36895e+06 -89497.9 0 1.44922e+06 -103157 0 1.52762e+06 -102221 0 1.59637e+06 -90457.1 0 1.6539e+06 -75051.7 0 1.6993e+06 -58076.3 0 1.73263e+06 -41064.5 0 1.75434e+06 -24733.7 0 1.76519e+06 -9557.39 0 1.76615e+06 4185.71 0 1.7583e+06 16343.3 0 1.74277e+06 26861.1 0 1.7207e+06 35762 0 1.69318e+06 43124.1 0 1.66122e+06 49063.6 0 1.62576e+06 53718.4 0 1.5876e+06 57235.7 0 1.54747e+06 59762.4 0 1.50599e+06 61438.7 0 1.46368e+06 62394.2 0 1.42098e+06 62745.9 0 1.37826e+06 62596.9 0 1.33582e+06 62037.2 0 1.29391e+06 61144.3 0 1.25272e+06 59983.9 0 1.21242e+06 58611.7 0 1.17312e+06 57074.4 0 1.13492e+06 55410.8 0 1.0979e+06 53653.2 0 1.06211e+06 51828 0 1.02757e+06 49957.4 0 1.26892e+06 -1.19209e-06 0 1.36815e+06 -94904.4 0 1.44865e+06 -107344 0 1.5282e+06 -106359 0 1.59712e+06 -93903.4 0 1.65484e+06 -77882 0 1.70025e+06 -60228.6 0 1.73356e+06 -42566.7 0 1.75522e+06 -25617.6 0 1.766e+06 -9870.81 0 1.76688e+06 4385.45 0 1.75893e+06 16995 0 1.74331e+06 27901.7 0 1.72115e+06 37130 0 1.69355e+06 44761.6 0 1.66152e+06 50917.2 0 1.62598e+06 55740.3 0 1.58777e+06 59383.7 0 1.54759e+06 61999.9 0 1.50606e+06 63734.6 0 1.46371e+06 64722.3 0 1.42098e+06 65084 0 1.37824e+06 64927 0 1.33578e+06 64344.4 0 1.29385e+06 63416.5 0 1.25265e+06 62211.5 0 1.21233e+06 60787.2 0 1.17303e+06 59191.8 0 1.13483e+06 57465.7 0 1.0978e+06 55642.3 0 1.062e+06 53748.8 0 1.02747e+06 51808.5 0 1.25843e+06 7.15256e-07 0 1.36763e+06 -100617 0 1.44799e+06 -111531 0 1.52886e+06 -110544 0 1.59788e+06 -97354.5 0 1.65582e+06 -80718.5 0 1.70123e+06 -62380.6 0 1.73454e+06 -44066.6 0 1.75613e+06 -26497.8 0 1.76684e+06 -10179.7 0 1.76762e+06 4590.07 0 1.75959e+06 17651.8 0 1.74387e+06 28947.3 0 1.72162e+06 38502.9 0 1.69393e+06 46403.4 0 1.66182e+06 52774.8 0 1.62622e+06 57765.6 0 1.58794e+06 61534.6 0 1.54771e+06 64240.1 0 1.50614e+06 66032.8 0 1.46375e+06 67052.2 0 1.42099e+06 67423.7 0 1.37822e+06 67258.3 0 1.33573e+06 66652.5 0 1.29379e+06 65689.5 0 1.25257e+06 64439.8 0 1.21225e+06 62963.2 0 1.17294e+06 61309.7 0 1.13473e+06 59520.9 0 1.0977e+06 57631.6 0 1.0619e+06 55669.8 0 1.02736e+06 53659.8 0 1.2469e+06 -7.15256e-07 0 1.36746e+06 -106662 0 1.44721e+06 -115707 0 1.5296e+06 -114783 0 1.59866e+06 -100809 0 1.65685e+06 -83561.6 0 1.70225e+06 -64532 0 1.73554e+06 -45564.1 0 1.75707e+06 -27374.5 0 1.76771e+06 -10483.7 0 1.7684e+06 4799.72 0 1.76026e+06 18314 0 1.74445e+06 29998.1 0 1.7221e+06 39880.7 0 1.69433e+06 48049.9 0 1.66214e+06 54636.4 0 1.62646e+06 59794.6 0 1.58812e+06 63688.8 0 1.54783e+06 66483 0 1.50621e+06 68333.3 0 1.46379e+06 69384 0 1.42099e+06 69765 0 1.37819e+06 69590.9 0 1.33569e+06 68961.8 0 1.29373e+06 67963.3 0 1.2525e+06 66668.8 0 1.21216e+06 65139.7 0 1.17284e+06 63427.9 0 1.13463e+06 61576.5 0 1.09759e+06 59621.1 0 1.06178e+06 57590.9 0 1.02725e+06 55511.2 0 1.23418e+06 1.43051e-06 0 1.36772e+06 -113073 0 1.44628e+06 -119859 0 1.53044e+06 -119079 0 1.59944e+06 -104266 0 1.65793e+06 -86411.7 0 1.70329e+06 -66682.7 0 1.73659e+06 -47059.1 0 1.75805e+06 -28247.5 0 1.7686e+06 -10782.8 0 1.7692e+06 5014.58 0 1.76096e+06 18981.7 0 1.74505e+06 31054.2 0 1.7226e+06 41263.7 0 1.69473e+06 49701 0 1.66246e+06 56502.4 0 1.62671e+06 61827.3 0 1.5883e+06 65846.3 0 1.54796e+06 68728.7 0 1.50629e+06 70636.2 0 1.46383e+06 71717.8 0 1.421e+06 72107.9 0 1.37817e+06 71924.9 0 1.33564e+06 71272.1 0 1.29366e+06 70238.1 0 1.25242e+06 68898.4 0 1.21207e+06 67316.8 0 1.17274e+06 65546.6 0 1.13452e+06 63632.3 0 1.09748e+06 61610.8 0 1.06167e+06 59512.2 0 1.02713e+06 57362.7 0 </DataArray> 
</PointData> 
<Points> 
<DataArray type="Float32" NumberOfComponents="3"> 