<?xml version="1.0"?> 
<VTKFile type="StructuredGrid" version="0.1"> 
<StructuredGrid WholeExtent="0 31 0 31 0 0"> 
<Piece Extent="0 31 0 31 0 0"> 
<PointData>
<DataArray type="Float32" Name="|E|" format="ascii" NumberOfComponents="3"> 
7.18538e+06 8.13827e+06 0 3.91734e+06 4.35298e+06 0 3.49269e+06 3.20074e+06 0 2.97246e+06 2.77249e+06 0 2.64189e+06 2.45435e+06 0 2.37979e+06 2.24234e+06 0 2.16546e+06 2.0804e+06 0 1.9866e+06 1.95172e+06 0 1.8332e+06 1.84519e+06 0 1.69935e+06 1.75419e+06 0 1.58092e+06 1.67449e+06 0 1.47487e+06 1.60327e+06 0 1.379e+06 1.53858e+06 0 1.29164e+06 1.47903e+06 0 1.21149e+06 1.42361e+06 0 1.13756e+06 1.37155e+06 0 1.06906e+06 1.32231e+06 0 1.00533e+06 1.27542e+06 0 945857 1.23056e+06 0 890209 1.18744e+06 0 838026 1.14587e+06 0 789002 1.10566e+06 0 742880 1.06667e+06 0 699437 1.0288e+06 0 658476 991955 0 619827 956049 0 583338 921021 0 548872 886818 0 516306 853392 0 485527 820704 0 456430 788722 0 428924 757404 0 3.73e+06 4.58883e+06 0 3.20192e+06 3.59686e+06 0 2.94468e+06 3.01926e+06 0 2.5969e+06 2.67001e+06 0 2.37198e+06 2.40314e+06 0 2.16573e+06 2.21549e+06 0 1.99394e+06 2.06552e+06 0 1.84445e+06 1.944e+06 0 1.71297e+06 1.84154e+06 0 1.59602e+06 1.75296e+06 0 1.49087e+06 1.67471e+06 0 1.39553e+06 1.60436e+06 0 1.30845e+06 1.54017e+06 0 1.22843e+06 1.4809e+06 0 1.15451e+06 1.42562e+06 0 1.08594e+06 1.37364e+06 0 1.02208e+06 1.32441e+06 0 962427 1.27751e+06 0 906566 1.23263e+06 0 854139 1.1895e+06 0 804850 1.14791e+06 0 758442 1.1077e+06 0 714694 1.06872e+06 0 673416 1.03088e+06 0 634437 994064 0 597606 958210 0 562790 923248 0 529867 889124 0 498724 855791 0 469260 823208 0 441383 791339 0 414997 760152 0 2.92706e+06 3.93657e+06 0 2.75549e+06 3.31871e+06 0 2.53653e+06 2.8623e+06 0 2.3214e+06 2.56987e+06 0 2.14705e+06 2.34915e+06 0 1.98366e+06 2.1817e+06 0 1.84288e+06 2.0446e+06 0 1.7162e+06 1.93086e+06 0 1.60264e+06 1.83324e+06 0 1.49979e+06 1.74781e+06 0 1.40605e+06 1.67162e+06 0 1.3201e+06 1.60263e+06 0 1.24087e+06 1.53937e+06 0 1.16751e+06 1.48074e+06 0 1.09931e+06 1.42589e+06 0 1.03569e+06 1.37421e+06 0 976182 1.3252e+06 0 920381 1.27846e+06 0 867951 1.23371e+06 0 818604 1.19068e+06 0 772096 1.14918e+06 0 728212 1.10906e+06 0 686766 1.07017e+06 0 647592 1.03242e+06 0 610545 995703 0 575493 959954 0 542317 925106 0 510907 891104 0 481166 857902 0 452999 825458 0 426323 793735 0 401050 762703 0 2.54261e+06 3.49184e+06 0 2.41283e+06 3.02744e+06 0 2.25256e+06 2.71473e+06 0 2.09944e+06 2.48089e+06 0 1.95764e+06 2.29439e+06 0 1.82643e+06 2.14508e+06 0 1.70824e+06 2.02023e+06 0 1.59981e+06 1.91414e+06 0 1.50085e+06 1.82165e+06 0 1.40988e+06 1.73969e+06 0 1.32599e+06 1.66591e+06 0 1.24829e+06 1.59862e+06 0 1.17608e+06 1.53658e+06 0 1.10876e+06 1.47882e+06 0 1.0458e+06 1.42463e+06 0 986785 1.37344e+06 0 931348 1.3248e+06 0 879178 1.27837e+06 0 830008 1.23385e+06 0 783605 1.19103e+06 0 739767 1.14972e+06 0 698318 1.10977e+06 0 659100 1.07104e+06 0 621972 1.03344e+06 0 586808 996884 0 553493 961292 0 521922 926603 0 491999 892765 0 463635 859730 0 436745 827458 0 411254 795912 0 387082 765061 0 2.25406e+06 3.1643e+06 0 2.15223e+06 2.84851e+06 0 2.03195e+06 2.60085e+06 0 1.91189e+06 2.40218e+06 0 1.79635e+06 2.24145e+06 0 1.68793e+06 2.10792e+06 0 1.58714e+06 1.99397e+06 0 1.49342e+06 1.8951e+06 0 1.40649e+06 1.80768e+06 0 1.32559e+06 1.72931e+06 0 1.25022e+06 1.65811e+06 0 1.17981e+06 1.59271e+06 0 1.11389e+06 1.53207e+06 0 1.05205e+06 1.47537e+06 0 993912 1.422e+06 0 939171 1.37144e+06 0 887549 1.32331e+06 0 838806 1.2773e+06 0 792731 1.23313e+06 0 749140 1.19061e+06 0 707867 1.14957e+06 0 668765 1.10986e+06 0 631704 1.07136e+06 0 596562 1.03397e+06 0 563232 997622 0 531613 962234 0 501614 927748 0 473148 894111 0 446137 861279 0 420504 829212 0 396182 797872 0 373097 767229 0 2.03025e+06 2.95318e+06 0 1.94666e+06 2.70138e+06 0 1.85019e+06 2.49833e+06 0 1.75208e+06 2.33133e+06 0 1.65598e+06 2.19119e+06 0 1.56418e+06 2.07117e+06 0 1.4773e+06 1.96677e+06 0 1.39547e+06 1.87458e+06 0 1.31857e+06 1.79201e+06 0 1.24629e+06 1.71718e+06 0 1.17834e+06 1.64862e+06 0 1.11439e+06 1.58521e+06 0 1.05412e+06 1.52609e+06 0 997269 1.47058e+06 0 943572 1.41814e+06 0 892802 1.36834e+06 0 844755 1.32083e+06 0 799246 1.27533e+06 0 756113 1.2316e+06 0 715207 1.18946e+06 0 676395 1.14876e+06 0 639556 1.10935e+06 0 604581 1.07114e+06 0 571367 1.03402e+06 0 539822 997928 0 509859 962789 0 481396 928546 0 454359 895149 0 428677 862553 0 404281 830721 0 381110 799616 0 359097 769207 0 1.84679e+06 2.78233e+06 0 1.7754e+06 2.58107e+06 0 1.69519e+06 2.41217e+06 0 1.61289e+06 2.26807e+06 0 1.5314e+06 2.14384e+06 0 1.45246e+06 2.03529e+06 0 1.37678e+06 1.93922e+06 0 1.30471e+06 1.85312e+06 0 1.23629e+06 1.7751e+06 0 1.17142e+06 1.7037e+06 0 1.10998e+06 1.63775e+06 0 1.05176e+06 1.57638e+06 0 996601 1.51885e+06 0 944306 1.46461e+06 0 894702 1.4132e+06 0 847628 1.36424e+06 0 802934 1.31743e+06 0 760480 1.27252e+06 0 720142 1.2293e+06 0 681801 1.18762e+06 0 645352 1.14731e+06 0 610694 1.10827e+06 0 577736 1.0704e+06 0 546392 1.0336e+06 0 516584 997814 0 488234 962966 0 461274 929004 0 435637 895882 0 411258 863556 0 388079 831989 0 366041 801145 0 345087 770996 0 1.69043e+06 2.64849e+06 0 1.62844e+06 2.48113e+06 0 1.56002e+06 2.33645e+06 0 1.4896e+06 2.21029e+06 0 1.41933e+06 2.09926e+06 0 1.35058e+06 2.00048e+06 0 1.28406e+06 1.91168e+06 0 1.22012e+06 1.83109e+06 0 1.15893e+06 1.75729e+06 0 1.1005e+06 1.68915e+06 0 1.04479e+06 1.62576e+06 0 991713 1.56642e+06 0 941171 1.51052e+06 0 893048 1.4576e+06 0 847228 1.40727e+06 0 803600 1.35922e+06 0 762054 1.31317e+06 0 722489 1.26892e+06 0 684807 1.22629e+06 0 648918 1.18511e+06 0 614735 1.14527e+06 0 582178 1.10665e+06 0 551171 1.06917e+06 0 521641 1.03274e+06 0 493521 997291 0 466746 962774 0 441253 929131 0 416986 896317 0 393886 864292 0 371901 833019 0 350980 802464 0 331069 772597 0 1.55406e+06 2.53738e+06 0 1.49936e+06 2.39498e+06 0 1.43991e+06 2.26929e+06 0 1.3787e+06 2.15747e+06 0 1.31733e+06 2.05727e+06 0 1.25686e+06 1.96676e+06 0 1.19792e+06 1.88435e+06 0 1.14086e+06 1.80872e+06 0 1.08589e+06 1.73881e+06 0 1.03309e+06 1.67375e+06 0 982477 1.61284e+06 0 934024 1.55549e+06 0 887684 1.50122e+06 0 843393 1.44965e+06 0 801079 1.40045e+06 0 760668 1.35335e+06 0 722084 1.30813e+06 0 685251 1.2646e+06 0 650097 1.22259e+06 0 616551 1.18198e+06 0 584544 1.14265e+06 0 554011 1.1045e+06 0 524889 1.06745e+06 0 497117 1.03143e+06 0 470638 996372 0 445396 962222 0 421338 928932 0 398411 896459 0 376565 864764 0 355753 833813 0 335930 803572 0 317046 774013 0 1.43268e+06 2.44318e+06 0 1.38391e+06 2.31984e+06 0 1.33157e+06 2.20895e+06 0 1.27773e+06 2.10868e+06 0 1.22358e+06 2.01752e+06 0 1.16996e+06 1.93412e+06 0 1.1174e+06 1.85732e+06 0 1.06624e+06 1.78616e+06 0 1.01669e+06 1.71983e+06 0 968850 1.65767e+06 0 922786 1.59912e+06 0 878508 1.54372e+06 0 836004 1.49107e+06 0 795244 1.44086e+06 0 756188 1.39282e+06 0 718787 1.34672e+06 0 682992 1.30236e+06 0 648747 1.25959e+06 0 615998 1.21826e+06 0 584692 1.17826e+06 0 554774 1.13949e+06 0 526190 1.10185e+06 0 498890 1.06528e+06 0 472823 1.0297e+06 0 447939 995065 0 424191 961318 0 401531 928414 0 379915 896313 0 359298 864977 0 339638 834374 0 320895 804472 0 303022 775243 0 1.32301e+06 2.36159e+06 0 1.2792e+06 2.25305e+06 0 1.23266e+06 2.15403e+06 0 1.18485e+06 2.06327e+06 0 1.13668e+06 1.97975e+06 0 1.08883e+06 1.90247e+06 0 1.04172e+06 1.83063e+06 0 995671 1.7635e+06 0 950873 1.70047e+06 0 907452 1.64102e+06 0 865480 1.58472e+06 0 824995 1.53121e+06 0 786008 1.48016e+06 0 748512 1.43132e+06 0 712490 1.38445e+06 0 677912 1.33937e+06 0 644746 1.29591e+06 0 612955 1.25393e+06 0 582498 1.21332e+06 0 553335 1.17397e+06 0 525422 1.13579e+06 0 498717 1.09871e+06 0 473178 1.06265e+06 0 448762 1.02756e+06 0 425427 993383 0 403133 960071 0 381838 927584 0 361504 895883 0 342090 864934 0 323560 834705 0 305877 805166 0 289000 776290 0 1.2227e+06 2.2896e+06 0 1.18312e+06 2.19287e+06 0 1.14141e+06 2.10353e+06 0 1.09866e+06 2.0207e+06 0 1.05556e+06 1.94367e+06 0 1.01263e+06 1.87173e+06 0 970247 1.80428e+06 0 928672 1.74079e+06 0 888089 1.68079e+06 0 848623 1.62389e+06 0 810355 1.56974e+06 0 773333 1.51805e+06 0 737584 1.46856e+06 0 703116 1.42107e+06 0 669926 1.37539e+06 0 638001 1.33134e+06 0 607319 1.28881e+06 0 577857 1.24767e+06 0 549585 1.20781e+06 0 522472 1.16915e+06 0 496485 1.1316e+06 0 471590 1.0951e+06 0 447752 1.0596e+06 0 424936 1.02502e+06 0 403105 991334 0 382226 958489 0 362263 926448 0 343180 895176 0 324944 864639 0 307522 834809 0 290880 805656 0 274983 777155 0 1.13003e+06 2.22513e+06 0 1.09411e+06 2.13798e+06 0 1.05653e+06 2.05664e+06 0 1.0181e+06 1.9805e+06 0 979351 1.90905e+06 0 940698 1.84178e+06 0 902451 1.77825e+06 0 864838 1.71806e+06 0 828024 1.66086e+06 0 792128 1.60634e+06 0 757230 1.55423e+06 0 723386 1.5043e+06 0 690631 1.45634e+06 0 658981 1.41019e+06 0 628443 1.36569e+06 0 599014 1.3227e+06 0 570682 1.28111e+06 0 543433 1.24083e+06 0 517245 1.20175e+06 0 492095 1.1638e+06 0 467959 1.12692e+06 0 444808 1.09105e+06 0 422613 1.05612e+06 0 401346 1.02209e+06 0 380976 988927 0 361473 956579 0 342807 925012 0 324947 894195 0 307864 864096 0 291527 834688 0 275908 805944 0 260974 777839 0 1.04367e+06 2.16659e+06 0 1.01098e+06 2.08734e+06 0 977004 2.01271e+06 0 942327 1.94228e+06 0 907374 1.87567e+06 0 872480 1.81252e+06 0 837900 1.75251e+06 0 803829 1.69532e+06 0 770413 1.6407e+06 0 737760 1.58841e+06 0 705948 1.53824e+06 0 675035 1.49001e+06 0 645057 1.44355e+06 0 616038 1.39872e+06 0 587989 1.3554e+06 0 560914 1.31347e+06 0 534809 1.27285e+06 0 509665 1.23344e+06 0 485467 1.19516e+06 0 462198 1.15797e+06 0 439840 1.12178e+06 0 418369 1.08655e+06 0 397762 1.05224e+06 0 377995 1.01879e+06 0 359042 986173 0 340878 954348 0 323476 923282 0 306810 892945 0 290853 863309 0 275579 834346 0 260963 806032 0 246976 778343 0 962634 2.11282e+06 0 932838 2.04017e+06 0 902031 1.97124e+06 0 870667 1.90572e+06 0 839075 1.84334e+06 0 807527 1.78385e+06 0 776233 1.727e+06 0 745357 1.67256e+06 0 715027 1.62034e+06 0 685341 1.57014e+06 0 656371 1.52182e+06 0 628172 1.47522e+06 0 600781 1.43022e+06 0 574225 1.38669e+06 0 548518 1.34455e+06 0 523668 1.30369e+06 0 499676 1.26404e+06 0 476536 1.22553e+06 0 454239 1.18808e+06 0 432774 1.15166e+06 0 412124 1.11619e+06 0 392272 1.08164e+06 0 373199 1.04796e+06 0 354884 1.01512e+06 0 337306 983081 0 320443 951805 0 304272 921265 0 288771 891432 0 273915 862281 0 259682 833786 0 246049 805922 0 232991 778669 0 886119 2.06288e+06 0 858946 1.99582e+06 0 830984 1.93177e+06 0 802583 1.87052e+06 0 774005 1.81188e+06 0 745468 1.75566e+06 0 717146 1.70168e+06 0 689178 1.64976e+06 0 661672 1.59977e+06 0 634717 1.55155e+06 0 608377 1.50499e+06 0 582702 1.45997e+06 0 557730 1.41639e+06 0 533487 1.37415e+06 0 509988 1.33317e+06 0 487245 1.29339e+06 0 465259 1.25472e+06 0 444030 1.21712e+06 0 423551 1.18053e+06 0 403814 1.14489e+06 0 384807 1.11017e+06 0 366515 1.07632e+06 0 348923 1.04331e+06 0 332015 1.0111e+06 0 315770 979657 0 300172 948955 0 285199 918965 0 270833 889660 0 257052 861015 0 243838 833009 0 231169 805617 0 219024 778819 0 813504 2.01606e+06 0 788735 1.95378e+06 0 763356 1.89396e+06 0 737640 1.83646e+06 0 711795 1.78114e+06 0 685996 1.72786e+06 0 660387 1.6765e+06 0 635085 1.62691e+06 0 610182 1.579e+06 0 585753 1.53266e+06 0 561858 1.48778e+06 0 538542 1.44428e+06 0 515838 1.40208e+06 0 493773 1.36111e+06 0 472361 1.3213e+06 0 451615 1.28258e+06 0 431539 1.24491e+06 0 412133 1.20824e+06 0 393393 1.17251e+06 0 375314 1.13769e+06 0 357886 1.10373e+06 0 341098 1.07061e+06 0 324937 1.03829e+06 0 309388 1.00673e+06 0 294436 975912 0 280066 945807 0 266259 916388 0 252999 887633 0 240269 859517 0 228050 832018 0 216326 805117 0 205075 778793 0 744285 1.97177e+06 0 721745 1.91362e+06 0 698740 1.85751e+06 0 675483 1.80333e+06 0 652141 1.75098e+06 0 628855 1.70037e+06 0 605744 1.6514e+06 0 582903 1.60398e+06 0 560412 1.55803e+06 0 538335 1.51345e+06 0 516724 1.47019e+06 0 495618 1.42817e+06 0 475048 1.38733e+06 0 455038 1.3476e+06 0 435603 1.30895e+06 0 416753 1.27131e+06 0 398495 1.23464e+06 0 380830 1.1989e+06 0 363755 1.16405e+06 0 347267 1.13006e+06 0 331358 1.09689e+06 0 316018 1.06452e+06 0 301238 1.0329e+06 0 287005 1.00202e+06 0 273306 971852 0 260128 942366 0 247455 913541 0 235274 885355 0 223568 857788 0 212322 830818 0 201522 804426 0 191149 778593 0 678059 1.92954e+06 0 657603 1.87499e+06 0 636801 1.82215e+06 0 615820 1.77093e+06 0 594792 1.72127e+06 0 573831 1.6731e+06 0 553035 1.62635e+06 0 532482 1.58095e+06 0 512240 1.53684e+06 0 492362 1.49395e+06 0 472892 1.45224e+06 0 453865 1.41166e+06 0 435309 1.37214e+06 0 417242 1.33365e+06 0 399682 1.29614e+06 0 382636 1.25957e+06 0 366111 1.22391e+06 0 350109 1.18912e+06 0 334629 1.15517e+06 0 319668 1.12203e+06 0 305219 1.08967e+06 0 291275 1.05806e+06 0 277828 1.02717e+06 0 264868 996989 0 252383 967485 0 240361 938639 0 228791 910428 0 217659 882832 0 206952 855832 0 196657 829409 0 186761 803544 0 177248 778221 0 614496 1.88896e+06 0 596007 1.8376e+06 0 577268 1.78768e+06 0 558410 1.73913e+06 0 539539 1.69191e+06 0 520747 1.64598e+06 0 502111 1.60129e+06 0 483698 1.55778e+06 0 465561 1.51542e+06 0 447747 1.47415e+06 0 430293 1.43394e+06 0 413227 1.39475e+06 0 396574 1.35654e+06 0 380351 1.31926e+06 0 364571 1.2829e+06 0 349242 1.2474e+06 0 334371 1.21276e+06 0 319960 1.17893e+06 0 306007 1.14589e+06 0 292511 1.11361e+06 0 279466 1.08207e+06 0 266868 1.05124e+06 0 254707 1.0211e+06 0 242977 991636 0 231667 962819 0 220768 934632 0 210268 907054 0 200158 880067 0 190425 853654 0 181058 827795 0 172046 802475 0 163375 777677 0 553329 1.84971e+06 0 536710 1.80119e+06 0 519918 1.75389e+06 0 503057 1.70776e+06 0 486211 1.66279e+06 0 469453 1.61894e+06 0 452845 1.57617e+06 0 436441 1.53446e+06 0 420287 1.49376e+06 0 404418 1.45405e+06 0 388865 1.4153e+06 0 373655 1.37746e+06 0 358805 1.34053e+06 0 344332 1.30446e+06 0 330245 1.26923e+06 0 316554 1.23482e+06 0 303262 1.20119e+06 0 290371 1.16833e+06 0 277882 1.1362e+06 0 265792 1.1048e+06 0 254098 1.0741e+06 0 242794 1.04407e+06 0 231875 1.0147e+06 0 221334 985973 0 211161 957861 0 201350 930351 0 191890 903425 0 182773 877065 0 173989 851255 0 165527 825979 0 157378 801220 0 149532 776964 0 494345 1.81151e+06 0 479513 1.76555e+06 0 464571 1.72063e+06 0 449600 1.67673e+06 0 434665 1.63383e+06 0 419826 1.59192e+06 0 405131 1.55097e+06 0 390624 1.51095e+06 0 376340 1.47185e+06 0 362309 1.43364e+06 0 348558 1.3963e+06 0 335105 1.35981e+06 0 321968 1.32413e+06 0 309157 1.28926e+06 0 296684 1.25516e+06 0 284553 1.22182e+06 0 272769 1.18922e+06 0 261334 1.15733e+06 0 250248 1.12614e+06 0 239508 1.09563e+06 0 229112 1.06578e+06 0 219055 1.03657e+06 0 209333 1.00799e+06 0 199939 980007 0 190867 952618 0 182110 925803 0 173659 899546 0 165508 873830 0 157646 848641 0 150067 823963 0 142762 799781 0 135721 776083 0 437367 1.77412e+06 0 424253 1.73048e+06 0 411078 1.68774e+06 0 397905 1.6459e+06 0 384785 1.60495e+06 0 371764 1.56486e+06 0 358880 1.52563e+06 0 346168 1.48724e+06 0 333657 1.44968e+06 0 321369 1.41293e+06 0 309325 1.37697e+06 0 297542 1.34178e+06 0 286031 1.30735e+06 0 274804 1.27366e+06 0 263867 1.2407e+06 0 253226 1.20843e+06 0 242884 1.17686e+06 0 232841 1.14596e+06 0 223098 1.11571e+06 0 213654 1.08611e+06 0 204505 1.05712e+06 0 195649 1.02874e+06 0 187081 1.00096e+06 0 178795 973747 0 170787 947097 0 163050 920993 0 155578 895421 0 148364 870366 0 141401 845813 0 134682 821749 0 128200 798161 0 121947 775034 0 382259 1.73734e+06 0 370801 1.69583e+06 0 359321 1.65512e+06 0 347866 1.6152e+06 0 336475 1.57607e+06 0 325183 1.53772e+06 0 314020 1.50013e+06 0 303013 1.46331e+06 0 292184 1.42724e+06 0 281551 1.3919e+06 0 271130 1.3573e+06 0 260933 1.3234e+06 0 250971 1.2902e+06 0 241251 1.25769e+06 0 231780 1.22585e+06 0 222560 1.19467e+06 0 213595 1.16413e+06 0 204885 1.13422e+06 0 196429 1.10493e+06 0 188228 1.07624e+06 0 180278 1.04813e+06 0 172576 1.0206e+06 0 165119 993626 0 157903 967199 0 150923 941304 0 144173 915927 0 137649 891056 0 131345 866676 0 125255 842776 0 119374 819341 0 113695 796361 0 108211 773821 0 328910 1.70099e+06 0 319056 1.66147e+06 0 309206 1.62265e+06 0 299397 1.58455e+06 0 289657 1.54714e+06 0 280014 1.51045e+06 0 270490 1.47444e+06 0 261105 1.43914e+06 0 251876 1.40451e+06 0 242817 1.37057e+06 0 233939 1.33729e+06 0 225252 1.30466e+06 0 216765 1.27269e+06 0 208481 1.24135e+06 0 200407 1.21064e+06 0 192544 1.18054e+06 0 184895 1.15104e+06 0 177459 1.12213e+06 0 170237 1.0938e+06 0 163227 1.06603e+06 0 156428 1.03882e+06 0 149836 1.01215e+06 0 143449 986002 0 137264 960372 0 131276 935246 0 125481 910611 0 119875 886455 0 114454 862766 0 109212 839532 0 104145 816741 0 99248.1 794382 0 94515.4 772444 0 277237 1.66493e+06 0 268936 1.62727e+06 0 260658 1.59024e+06 0 252429 1.55386e+06 0 244271 1.51811e+06 0 236203 1.48301e+06 0 228242 1.44854e+06 0 220402 1.4147e+06 0 212697 1.3815e+06 0 205135 1.34891e+06 0 197727 1.31694e+06 0 190477 1.28558e+06 0 183393 1.25482e+06 0 176479 1.22465e+06 0 169736 1.19507e+06 0 163168 1.16605e+06 0 156776 1.1376e+06 0 150559 1.1097e+06 0 144517 1.08234e+06 0 138649 1.05551e+06 0 132954 1.0292e+06 0 127428 1.0034e+06 0 122071 978091 0 116879 953273 0 111848 928929 0 106976 905050 0 102258 881623 0 97692.4 858639 0 93273.8 836085 0 88998.8 813952 0 84863.5 792229 0 80863.3 770904 0 227178 1.62903e+06 0 220382 1.59313e+06 0 213620 1.55782e+06 0 206910 1.52309e+06 0 200267 1.48894e+06 0 193705 1.45538e+06 0 187236 1.4224e+06 0 180870 1.39e+06 0 174616 1.35819e+06 0 168480 1.32695e+06 0 162470 1.29627e+06 0 156589 1.26617e+06 0 150842 1.23661e+06 0 145231 1.20761e+06 0 139758 1.17915e+06 0 134425 1.15123e+06 0 129233 1.12382e+06 0 124180 1.09694e+06 0 119267 1.07056e+06 0 114493 1.04467e+06 0 109856 1.01928e+06 0 105354 994356 0 100986 969903 0 96749.4 945908 0 92641.5 922360 0 88659.8 899249 0 84801.5 876565 0 81063.6 854298 0 77443.4 832438 0 73937.6 810976 0 70543.4 789901 0 67257 769204 0 178687 1.59318e+06 0 173351 1.55898e+06 0 168051 1.52531e+06 0 162800 1.49218e+06 0 157610 1.45958e+06 0 152488 1.42752e+06 0 147443 1.39601e+06 0 142481 1.36502e+06 0 137609 1.33458e+06 0 132831 1.30467e+06 0 128151 1.27528e+06 0 123572 1.24642e+06 0 119097 1.21807e+06 0 114727 1.19024e+06 0 110464 1.1629e+06 0 106308 1.13607e+06 0 102260 1.10972e+06 0 98318.9 1.08386e+06 0 94484.7 1.05846e+06 0 90756.6 1.03353e+06 0 87133.2 1.00906e+06 0 83613.4 985034 0 80195.5 961445 0 76877.8 938285 0 73658.5 915544 0 70535.5 893214 0 67506.8 871285 0 64570.1 849748 0 61723.4 828595 0 58964.1 807816 0 56290.3 787402 0 53699 767344 0 131736 1.55731e+06 0 127811 1.52474e+06 0 123920 1.49267e+06 0 120071 1.46109e+06 0 116271 1.43001e+06 0 112525 1.39943e+06 0 108838 1.36935e+06 0 105214 1.33976e+06 0 101657 1.31067e+06 0 98170.3 1.28208e+06 0 94755.2 1.25397e+06 0 91414.1 1.22635e+06 0 88148.3 1.1992e+06 0 84958.8 1.17253e+06 0 81846.4 1.14633e+06 0 78811.2 1.12059e+06 0 75853.3 1.09531e+06 0 72972.4 1.07047e+06 0 70168.1 1.04607e+06 0 67439.6 1.0221e+06 0 64786.2 998564 0 62206.8 975440 0 59700.3 952725 0 57265.4 930411 0 54900.8 908488 0 52605.1 886950 0 50376.9 865788 0 48214.5 844993 0 46116.4 824558 0 44081.1 804474 0 42106.9 784732 0 40191.9 765326 0 86307.9 1.52134e+06 0 83744.5 1.49037e+06 0 81207.8 1.45986e+06 0 78702.2 1.42981e+06 0 76230.9 1.40022e+06 0 73797.3 1.37109e+06 0 71403.8 1.34242e+06 0 69052.6 1.31422e+06 0 66745.8 1.28648e+06 0 64484.7 1.25919e+06 0 62270.6 1.23235e+06 0 60104.5 1.20596e+06 0 57987 1.18002e+06 0 55918.6 1.15452e+06 0 53899.5 1.12945e+06 0 51929.8 1.10481e+06 0 50009.5 1.08059e+06 0 48138.2 1.05678e+06 0 46315.7 1.03339e+06 0 44541.4 1.01039e+06 0 42814.7 987794 0 41135.1 965582 0 39501.7 943751 0 37913.8 922292 0 36370.5 901198 0 34870.9 880463 0 33414.1 860078 0 31999.2 840037 0 30625.1 820331 0 29290.9 800953 0 27995.6 781896 0 26738 763152 0 42395.8 1.48522e+06 0 41141.7 1.45582e+06 0 39902.9 1.42684e+06 0 38680.7 1.3983e+06 0 37476.6 1.37018e+06 0 36291.9 1.34249e+06 0 35127.4 1.31523e+06 0 33984.2 1.2884e+06 0 32862.8 1.26199e+06 0 31763.9 1.236e+06 0 30688 1.21043e+06 0 29635.3 1.18528e+06 0 28606.1 1.16054e+06 0 27600.5 1.1362e+06 0 26618.6 1.11227e+06 0 25660.4 1.08873e+06 0 24725.8 1.06558e+06 0 23814.6 1.04281e+06 0 22926.5 1.02043e+06 0 22061.5 998411 0 21219.1 976761 0 20399.1 955469 0 19601.1 934529 0 18824.7 913935 0 18069.5 893680 0 17335.1 873758 0 16621 854161 0 15926.9 834882 0 15252.1 815916 0 14596.4 797255 0 13959.2 778893 0 13339.9 760823 0 0 1.44892e+06 0 0 1.42106e+06 0 0 1.39361e+06 0 0 1.36655e+06 0 0 1.33989e+06 0 0 1.31363e+06 0 0 1.28776e+06 0 0 1.26229e+06 0 0 1.23722e+06 0 0 1.21253e+06 0 0 1.18823e+06 0 0 1.16431e+06 0 0 1.14077e+06 0 0 1.1176e+06 0 0 1.0948e+06 0 0 1.07237e+06 0 0 1.05029e+06 0 0 1.02857e+06 0 0 1.0072e+06 0 0 986167 0 0 965472 0 0 945108 0 0 925069 0 0 905348 0 0 885941 0 0 866840 0 0 848040 0 0 829534 0 0 811318 0 0 793384 0 0 775727 0 0 758341 0 </DataArray> 
</PointData> 
<Points> 
<DataArray type="Float32" NumberOfComponents="3"> 