<?xml version="1.0"?> 
<VTKFile type="StructuredGrid" version="0.1"> 
<StructuredGrid WholeExtent="0 31 0 31 0 0"> 
<Piece Extent="0 31 0 31 0 0"> 
<PointData>
<DataArray type="Float32" Name="|E|" format="ascii" NumberOfComponents="3"> 
-2.07317e+06 169204 0 -2.08798e+06 190603 0 -2.10452e+06 212420 0 -2.12283e+06 234711 0 -2.14294e+06 257541 0 -2.16487e+06 280974 0 -2.18867e+06 305087 0 -2.21439e+06 329958 0 -2.24208e+06 355679 0 -2.27179e+06 382348 0 -2.3036e+06 410077 0 -2.33759e+06 438992 0 -2.37387e+06 469237 0 -2.41255e+06 500976 0 -2.45378e+06 534401 0 -2.49776e+06 569736 0 -2.54473e+06 607248 0 -2.59498e+06 647260 0 -2.64895e+06 690167 0 -2.70716e+06 736471 0 -2.77037e+06 786795 0 -2.83961e+06 841991 0 -2.91636e+06 903265 0 -3.00277e+06 971697 0 -3.10185e+06 1.05124e+06 0 -3.2202e+06 1.14202e+06 0 -3.36202e+06 1.24897e+06 0 -3.54854e+06 1.42625e+06 0 -3.83066e+06 1.41215e+06 0 -4.15063e+06 2.50926e+06 0 -5.15084e+06 -783132 0 -9.45929e+06 2.42328e+07 0 -2.07636e+06 184980 0 -2.09198e+06 206918 0 -2.10933e+06 229308 0 -2.12842e+06 252209 0 -2.14929e+06 275687 0 -2.17198e+06 299812 0 -2.19653e+06 324663 0 -2.22297e+06 350326 0 -2.25138e+06 376895 0 -2.2818e+06 404477 0 -2.3143e+06 433193 0 -2.34899e+06 463179 0 -2.38596e+06 494592 0 -2.42533e+06 527614 0 -2.46727e+06 562458 0 -2.51198e+06 599377 0 -2.55971e+06 638676 0 -2.61079e+06 680728 0 -2.66567e+06 726004 0 -2.72493e+06 775099 0 -2.78937e+06 828776 0 -2.86015e+06 888176 0 -2.93895e+06 954527 0 -3.02758e+06 1.03022e+06 0 -3.13149e+06 1.11858e+06 0 -3.25429e+06 1.22256e+06 0 -3.39751e+06 1.35928e+06 0 -3.64062e+06 1.50193e+06 0 -3.82143e+06 1.90779e+06 0 -4.41035e+06 1.66579e+06 0 -5.83219e+06 5.33929e+06 0 -2.06611e+06 8.45974e+06 0 -2.07991e+06 201338 0 -2.09633e+06 223830 0 -2.11446e+06 246808 0 -2.13432e+06 270336 0 -2.15594e+06 294483 0 -2.17937e+06 319323 0 -2.20464e+06 344937 0 -2.23179e+06 371418 0 -2.26089e+06 398867 0 -2.29199e+06 427398 0 -2.32518e+06 457142 0 -2.36053e+06 488247 0 -2.39816e+06 520886 0 -2.4382e+06 555259 0 -2.48082e+06 591605 0 -2.52622e+06 630212 0 -2.57468e+06 671428 0 -2.62655e+06 715692 0 -2.6823e+06 763558 0 -2.74255e+06 815724 0 -2.80816e+06 873216 0 -2.88049e+06 937261 0 -2.9608e+06 1.00966e+06 0 -3.05253e+06 1.09385e+06 0 -3.16044e+06 1.19262e+06 0 -3.27989e+06 1.31588e+06 0 -3.46221e+06 1.4638e+06 0 -3.64809e+06 1.74239e+06 0 -3.89597e+06 1.88401e+06 0 -4.79193e+06 3.09499e+06 0 -3.98495e+06 5.81208e+06 0 -567124 4.30695e+06 0 -2.08382e+06 218288 0 -2.10102e+06 241349 0 -2.11991e+06 264934 0 -2.14052e+06 289110 0 -2.16287e+06 313946 0 -2.18701e+06 339523 0 -2.21298e+06 365927 0 -2.24082e+06 393256 0 -2.27059e+06 421618 0 -2.30236e+06 451137 0 -2.33619e+06 481954 0 -2.37218e+06 514231 0 -2.41045e+06 548158 0 -2.45112e+06 583958 0 -2.49438e+06 621902 0 -2.54044e+06 662313 0 -2.58958e+06 705597 0 -2.64218e+06 752267 0 -2.69873e+06 802964 0 -2.75988e+06 858589 0 -2.82665e+06 920317 0 -2.90009e+06 989629 0 -2.98214e+06 1.06948e+06 0 -3.0772e+06 1.1628e+06 0 -3.18194e+06 1.27583e+06 0 -3.31996e+06 1.41607e+06 0 -3.49031e+06 1.6271e+06 0 -3.64423e+06 1.86846e+06 0 -4.10445e+06 2.3861e+06 0 -4.24054e+06 4.0382e+06 0 -2.50872e+06 5.03888e+06 0 -544842 3.55042e+06 0 -2.08806e+06 235841 0 -2.10603e+06 259488 0 -2.12566e+06 283699 0 -2.147e+06 308541 0 -2.17006e+06 334090 0 -2.1949e+06 360429 0 -2.22155e+06 387651 0 -2.25005e+06 415859 0 -2.28047e+06 445171 0 -2.31287e+06 475719 0 -2.34732e+06 507657 0 -2.38392e+06 541163 0 -2.42279e+06 576447 0 -2.46406e+06 613760 0 -2.50791e+06 653404 0 -2.55457e+06 695751 0 -2.60434e+06 741274 0 -2.6576e+06 790558 0 -2.71485e+06 844399 0 -2.77684e+06 903873 0 -2.84445e+06 970279 0 -2.9188e+06 1.046e+06 0 -3.0031e+06 1.13397e+06 0 -3.09656e+06 1.23836e+06 0 -3.20732e+06 1.36813e+06 0 -3.34904e+06 1.54094e+06 0 -3.48259e+06 1.77846e+06 0 -3.71437e+06 2.11451e+06 0 -3.9915e+06 3.01211e+06 0 -3.35712e+06 4.25802e+06 0 -1.70394e+06 4.32545e+06 0 -696542 3.37076e+06 0 -2.09264e+06 254007 0 -2.11134e+06 278260 0 -2.1317e+06 303115 0 -2.15375e+06 328646 0 -2.1775e+06 354931 0 -2.20301e+06 382058 0 -2.23031e+06 410127 0 -2.25946e+06 439248 0 -2.29049e+06 469548 0 -2.32349e+06 501169 0 -2.35853e+06 534281 0 -2.39571e+06 569079 0 -2.43513e+06 605796 0 -2.47695e+06 644714 0 -2.52135e+06 686174 0 -2.56855e+06 730608 0 -2.61887e+06 778551 0 -2.67268e+06 830707 0 -2.73053e+06 888038 0 -2.79312e+06 951716 0 -2.86122e+06 1.02365e+06 0 -2.93679e+06 1.10654e+06 0 -3.02056e+06 1.20355e+06 0 -3.11458e+06 1.32245e+06 0 -3.22972e+06 1.47248e+06 0 -3.35059e+06 1.67885e+06 0 -3.49123e+06 1.95497e+06 0 -3.69779e+06 2.47958e+06 0 -3.57297e+06 3.42858e+06 0 -2.56953e+06 4.10206e+06 0 -1.33012e+06 3.80643e+06 0 -780351 3.20035e+06 0 -2.09753e+06 272800 0 -2.11696e+06 297676 0 -2.13802e+06 323197 0 -2.16075e+06 349438 0 -2.18518e+06 376484 0 -2.21133e+06 404428 0 -2.23926e+06 433375 0 -2.26902e+06 463445 0 -2.30064e+06 494773 0 -2.33421e+06 527517 0 -2.3698e+06 561859 0 -2.40751e+06 598018 0 -2.44744e+06 636252 0 -2.48976e+06 676876 0 -2.53463e+06 720284 0 -2.58229e+06 766963 0 -2.63305e+06 817541 0 -2.68729e+06 872864 0 -2.74555e+06 933996 0 -2.80839e+06 1.00249e+06 0 -2.87697e+06 1.0807e+06 0 -2.95237e+06 1.17129e+06 0 -3.03502e+06 1.2802e+06 0 -3.13046e+06 1.4143e+06 0 -3.23606e+06 1.59094e+06 0 -3.34287e+06 1.82737e+06 0 -3.47709e+06 2.18805e+06 0 -3.51366e+06 2.82987e+06 0 -3.03191e+06 3.58497e+06 0 -2.01184e+06 3.81198e+06 0 -1.16301e+06 3.43035e+06 0 -802994 2.9833e+06 0 -2.10273e+06 292231 0 -2.12286e+06 317750 0 -2.14461e+06 343958 0 -2.168e+06 370933 0 -2.19306e+06 398766 0 -2.21984e+06 427556 0 -2.24837e+06 457415 0 -2.2787e+06 488472 0 -2.31089e+06 520874 0 -2.34499e+06 554792 0 -2.38109e+06 590427 0 -2.41927e+06 628020 0 -2.45966e+06 667862 0 -2.5024e+06 710308 0 -2.54767e+06 755803 0 -2.59569e+06 804909 0 -2.64675e+06 858369 0 -2.70125e+06 917138 0 -2.75961e+06 982523 0 -2.8225e+06 1.05649e+06 0 -2.89083e+06 1.1414e+06 0 -2.96483e+06 1.24166e+06 0 -3.04659e+06 1.36303e+06 0 -3.13715e+06 1.5167e+06 0 -3.22791e+06 1.7192e+06 0 -3.32167e+06 1.99966e+06 0 -3.38559e+06 2.44433e+06 0 -3.19258e+06 3.07167e+06 0 -2.52356e+06 3.54724e+06 0 -1.6585e+06 3.50799e+06 0 -1.07988e+06 3.13649e+06 0 -803160 2.76023e+06 0 -2.10822e+06 312313 0 -2.12903e+06 338496 0 -2.15143e+06 365412 0 -2.17546e+06 393147 0 -2.20114e+06 421795 0 -2.22852e+06 451462 0 -2.25762e+06 482269 0 -2.28849e+06 514354 0 -2.3212e+06 547876 0 -2.35579e+06 583025 0 -2.39234e+06 620020 0 -2.43095e+06 659129 0 -2.47173e+06 700679 0 -2.51481e+06 745070 0 -2.56037e+06 792808 0 -2.60861e+06 844549 0 -2.65981e+06 901138 0 -2.7143e+06 963700 0 -2.77247e+06 1.03387e+06 0 -2.83492e+06 1.11372e+06 0 -2.90191e+06 1.20659e+06 0 -2.97396e+06 1.31729e+06 0 -3.05206e+06 1.45349e+06 0 -3.13143e+06 1.62809e+06 0 -3.20576e+06 1.85956e+06 0 -3.26319e+06 2.19077e+06 0 -3.19947e+06 2.67027e+06 0 -2.81558e+06 3.17828e+06 0 -2.11791e+06 3.40171e+06 0 -1.44287e+06 3.23077e+06 0 -1.03015e+06 2.89166e+06 0 -801595 2.55634e+06 0 -2.11398e+06 333060 0 -2.13545e+06 359927 0 -2.15848e+06 387577 0 -2.18313e+06 416097 0 -2.2094e+06 445589 0 -2.23733e+06 476167 0 -2.26697e+06 507959 0 -2.29835e+06 541115 0 -2.33153e+06 575810 0 -2.36656e+06 612249 0 -2.40352e+06 650677 0 -2.44248e+06 691391 0 -2.48357e+06 734757 0 -2.52689e+06 781227 0 -2.57261e+06 831384 0 -2.62091e+06 885974 0 -2.67202e+06 945972 0 -2.72619e+06 1.01275e+06 0 -2.78376e+06 1.08809e+06 0 -2.84493e+06 1.17464e+06 0 -2.90967e+06 1.27629e+06 0 -2.97821e+06 1.39873e+06 0 -3.04809e+06 1.55133e+06 0 -3.11223e+06 1.74774e+06 0 -3.16108e+06 2.01111e+06 0 -3.14787e+06 2.37834e+06 0 -2.94321e+06 2.82599e+06 0 -2.45389e+06 3.1705e+06 0 -1.82194e+06 3.21159e+06 0 -1.30915e+06 2.98748e+06 0 -996748 2.68022e+06 0 -804674 2.3763e+06 0 -2.12e+06 354484 0 -2.1421e+06 382059 0 -2.16574e+06 410467 0 -2.19097e+06 439800 0 -2.2178e+06 470167 0 -2.24626e+06 501690 0 -2.2764e+06 534507 0 -2.30824e+06 568782 0 -2.34184e+06 604704 0 -2.37726e+06 642499 0 -2.41455e+06 682438 0 -2.4538e+06 724852 0 -2.49509e+06 770151 0 -2.53853e+06 818851 0 -2.58425e+06 871610 0 -2.6324e+06 929281 0 -2.68313e+06 993018 0 -2.73659e+06 1.06436e+06 0 -2.7929e+06 1.14545e+06 0 -2.85187e+06 1.23939e+06 0 -2.91316e+06 1.35064e+06 0 -2.97522e+06 1.48601e+06 0 -3.03258e+06 1.6557e+06 0 -3.07615e+06 1.87438e+06 0 -3.08187e+06 2.16516e+06 0 -2.97582e+06 2.53493e+06 0 -2.65913e+06 2.89868e+06 0 -2.14649e+06 3.08551e+06 0 -1.61489e+06 3.01286e+06 0 -1.22252e+06 2.77447e+06 0 -974531 2.49395e+06 0 -812691 2.21648e+06 0 -2.12626e+06 376601 0 -2.14896e+06 404907 0 -2.17319e+06 434098 0 -2.19897e+06 464273 0 -2.22632e+06 495548 0 -2.25527e+06 528053 0 -2.28586e+06 561939 0 -2.31812e+06 597381 0 -2.3521e+06 634589 0 -2.38783e+06 673810 0 -2.42538e+06 715344 0 -2.46481e+06 759561 0 -2.50619e+06 806922 0 -2.5496e+06 858007 0 -2.59513e+06 913564 0 -2.64285e+06 974579 0 -2.69283e+06 1.04236e+06 0 -2.74506e+06 1.11869e+06 0 -2.7993e+06 1.20606e+06 0 -2.85497e+06 1.30802e+06 0 -2.91078e+06 1.42966e+06 0 -2.96283e+06 1.57858e+06 0 -3.00332e+06 1.76513e+06 0 -3.01699e+06 2.00387e+06 0 -2.96234e+06 2.30652e+06 0 -2.76485e+06 2.64112e+06 0 -2.38492e+06 2.89702e+06 0 -1.90381e+06 2.9577e+06 0 -1.47144e+06 2.82208e+06 0 -1.16424e+06 2.58613e+06 0 -961457 2.32752e+06 0 -824575 2.07192e+06 0 -2.13274e+06 399425 0 -2.15602e+06 428486 0 -2.1808e+06 458487 0 -2.20709e+06 489535 0 -2.23493e+06 521752 0 -2.26433e+06 555278 0 -2.29533e+06 590278 0 -2.32795e+06 626941 0 -2.36224e+06 665497 0 -2.39821e+06 706218 0 -2.43593e+06 749437 0 -2.47542e+06 795567 0 -2.51675e+06 845123 0 -2.55994e+06 898761 0 -2.60503e+06 957329 0 -2.652e+06 1.02195e+06 0 -2.70077e+06 1.0941e+06 0 -2.75107e+06 1.17583e+06 0 -2.80225e+06 1.26997e+06 0 -2.85312e+06 1.38045e+06 0 -2.90078e+06 1.51297e+06 0 -2.93911e+06 1.67519e+06 0 -2.95696e+06 1.87695e+06 0 -2.92956e+06 2.12811e+06 0 -2.80725e+06 2.41971e+06 0 -2.5398e+06 2.69062e+06 0 -2.14358e+06 2.83992e+06 0 -1.71998e+06 2.81156e+06 0 -1.37129e+06 2.645e+06 0 -1.12467e+06 2.41752e+06 0 -956037 2.17682e+06 0 -839475 1.93876e+06 0 -2.13943e+06 422970 0 -2.16325e+06 452812 0 -2.18854e+06 483653 0 -2.21532e+06 515604 0 -2.2436e+06 548799 0 -2.2734e+06 583388 0 -2.30476e+06 619549 0 -2.33768e+06 657489 0 -2.37219e+06 697459 0 -2.40832e+06 739759 0 -2.4461e+06 784759 0 -2.48553e+06 832917 0 -2.52662e+06 884810 0 -2.56937e+06 941174 0 -2.61372e+06 1.00297e+06 0 -2.65952e+06 1.07144e+06 0 -2.70649e+06 1.14829e+06 0 -2.754e+06 1.23579e+06 0 -2.80092e+06 1.33706e+06 0 -2.84497e+06 1.45641e+06 0 -2.88146e+06 1.59964e+06 0 -2.90188e+06 1.77387e+06 0 -2.88999e+06 1.98645e+06 0 -2.81363e+06 2.2368e+06 0 -2.62962e+06 2.49441e+06 0 -2.32265e+06 2.68825e+06 0 -1.94376e+06 2.74733e+06 0 -1.58343e+06 2.66173e+06 0 -1.30071e+06 2.48229e+06 0 -1.09867e+06 2.26469e+06 0 -956965 2.03863e+06 0 -856941 1.81436e+06 0 -2.14628e+06 447252 0 -2.17062e+06 477902 0 -2.19639e+06 509611 0 -2.22361e+06 542500 0 -2.25229e+06 576710 0 -2.28244e+06 612406 0 -2.31409e+06 649778 0 -2.34724e+06 689054 0 -2.3819e+06 730507 0 -2.41808e+06 774469 0 -2.45578e+06 821349 0 -2.49498e+06 871655 0 -2.53565e+06 926030 0 -2.57768e+06 985297 0 -2.62091e+06 1.05052e+06 0 -2.66504e+06 1.12311e+06 0 -2.70947e+06 1.20493e+06 0 -2.75317e+06 1.29847e+06 0 -2.79425e+06 1.40708e+06 0 -2.82909e+06 1.53519e+06 0 -2.85114e+06 1.68816e+06 0 -2.84885e+06 1.8715e+06 0 -2.80091e+06 2.08706e+06 0 -2.67482e+06 2.32064e+06 0 -2.44525e+06 2.52764e+06 0 -2.12773e+06 2.64499e+06 0 -1.7846e+06 2.63541e+06 0 -1.48276e+06 2.51568e+06 0 -1.25105e+06 2.3327e+06 0 -1.08316e+06 2.12458e+06 0 -963174 1.91038e+06 0 -876763 1.6969e+06 0 -2.1533e+06 472286 0 -2.17811e+06 503770 0 -2.20432e+06 536379 0 -2.23193e+06 570240 0 -2.26096e+06 605506 0 -2.2914e+06 642353 0 -2.32327e+06 680989 0 -2.35657e+06 721662 0 -2.39128e+06 764671 0 -2.42739e+06 810381 0 -2.46487e+06 859242 0 -2.50365e+06 911818 0 -2.54362e+06 968820 0 -2.5846e+06 1.03116e+06 0 -2.62627e+06 1.10001e+06 0 -2.66808e+06 1.17693e+06 0 -2.70911e+06 1.26392e+06 0 -2.74773e+06 1.36363e+06 0 -2.78109e+06 1.4795e+06 0 -2.80411e+06 1.61563e+06 0 -2.80818e+06 1.77628e+06 0 -2.7785e+06 1.96374e+06 0 -2.69165e+06 2.1717e+06 0 -2.52279e+06 2.37391e+06 0 -2.26794e+06 2.52274e+06 0 -1.9615e+06 2.57323e+06 0 -1.66078e+06 2.51531e+06 0 -1.40889e+06 2.37652e+06 0 -1.21692e+06 2.19445e+06 0 -1.07607e+06 1.99475e+06 0 -973876 1.79009e+06 0 -898824 1.58495e+06 0 -2.16043e+06 498088 0 -2.18568e+06 530435 0 -2.21228e+06 563975 0 -2.24024e+06 598844 0 -2.26956e+06 635206 0 -2.30023e+06 673251 0 -2.33225e+06 713205 0 -2.36559e+06 755339 0 -2.40024e+06 799978 0 -2.43613e+06 847523 0 -2.47321e+06 898468 0 -2.51133e+06 953434 0 -2.55032e+06 1.0132e+06 0 -2.58984e+06 1.07877e+06 0 -2.62941e+06 1.15142e+06 0 -2.66816e+06 1.2328e+06 0 -2.70473e+06 1.32505e+06 0 -2.73678e+06 1.43084e+06 0 -2.76032e+06 1.5534e+06 0 -2.76877e+06 1.69605e+06 0 -2.75135e+06 1.86097e+06 0 -2.6912e+06 2.04549e+06 0 -2.56752e+06 2.2346e+06 0 -2.36821e+06 2.39541e+06 0 -2.10704e+06 2.48677e+06 0 -1.82469e+06 2.48385e+06 0 -1.56588e+06 2.39379e+06 0 -1.35527e+06 2.24508e+06 0 -1.19484e+06 2.0658e+06 0 -1.07594e+06 1.87327e+06 0 -988511 1.67614e+06 0 -923041 1.4773e+06 0 -2.16766e+06 524672 0 -2.1933e+06 557912 0 -2.22025e+06 592416 0 -2.2485e+06 628331 0 -2.27804e+06 665831 0 -2.30886e+06 705122 0 -2.34093e+06 746450 0 -2.37422e+06 790108 0 -2.40866e+06 836451 0 -2.44418e+06 885918 0 -2.48064e+06 939047 0 -2.51784e+06 996515 0 -2.55547e+06 1.05917e+06 0 -2.59307e+06 1.12809e+06 0 -2.62988e+06 1.20464e+06 0 -2.66469e+06 1.29055e+06 0 -2.69558e+06 1.38795e+06 0 -2.71936e+06 1.49939e+06 0 -2.73088e+06 1.6275e+06 0 -2.72204e+06 1.7742e+06 0 -2.68044e+06 1.93851e+06 0 -2.58968e+06 2.11186e+06 0 -2.43584e+06 2.27257e+06 0 -2.22024e+06 2.38773e+06 0 -1.96727e+06 2.42794e+06 0 -1.71487e+06 2.38505e+06 0 -1.49408e+06 2.27449e+06 0 -1.31733e+06 2.12111e+06 0 -1.18246e+06 1.94518e+06 0 -1.08169e+06 1.75855e+06 0 -1.00669e+06 1.56719e+06 0 -949347 1.37287e+06 0 -2.17495e+06 552054 0 -2.20094e+06 586217 0 -2.22818e+06 621719 0 -2.25665e+06 658716 0 -2.28635e+06 697398 0 -2.31723e+06 737985 0 -2.34925e+06 780742 0 -2.38235e+06 825988 0 -2.41644e+06 874109 0 -2.45138e+06 925579 0 -2.48697e+06 980984 0 -2.52293e+06 1.04105e+06 0 -2.5588e+06 1.10669e+06 0 -2.5939e+06 1.17904e+06 0 -2.6272e+06 1.25952e+06 0 -2.65705e+06 1.34985e+06 0 -2.68088e+06 1.45205e+06 0 -2.6946e+06 1.56825e+06 0 -2.69194e+06 1.70007e+06 0 -2.66354e+06 1.84732e+06 0 -2.59675e+06 2.00504e+06 0 -2.47858e+06 2.15922e+06 0 -2.30411e+06 2.28537e+06 0 -2.08523e+06 2.3558e+06 0 -1.84976e+06 2.35379e+06 0 -1.62839e+06 2.28235e+06 0 -1.44072e+06 2.15909e+06 0 -1.29189e+06 2.00391e+06 0 -1.17812e+06 1.83124e+06 0 -1.09257e+06 1.64926e+06 0 -1.02816e+06 1.46209e+06 0 -977696 1.27061e+06 0 -2.18226e+06 580248 0 -2.20854e+06 615365 0 -2.23601e+06 651899 0 -2.26465e+06 690017 0 -2.29441e+06 729923 0 -2.32525e+06 771854 0 -2.35711e+06 816095 0 -2.38988e+06 862991 0 -2.42343e+06 912958 0 -2.45756e+06 966507 0 -2.492e+06 1.02426e+06 0 -2.52633e+06 1.087e+06 0 -2.55994e+06 1.15568e+06 0 -2.59191e+06 1.23147e+06 0 -2.62084e+06 1.31577e+06 0 -2.64459e+06 1.41022e+06 0 -2.65989e+06 1.51652e+06 0 -2.66178e+06 1.63606e+06 0 -2.64305e+06 1.76899e+06 0 -2.59386e+06 1.91238e+06 0 -2.50313e+06 2.05718e+06 0 -2.36351e+06 2.18587e+06 0 -2.17869e+06 2.27516e+06 0 -1.96664e+06 2.30537e+06 0 -1.75344e+06 2.27038e+06 0 -1.56153e+06 2.17916e+06 0 -1.40225e+06 2.04819e+06 0 -1.2767e+06 1.89265e+06 0 -1.18065e+06 1.7228e+06 0 -1.10807e+06 1.54426e+06 0 -1.05275e+06 1.35978e+06 0 -1.00806e+06 1.16954e+06 0 -2.18956e+06 609269 0 -2.21607e+06 645370 0 -2.24371e+06 682970 0 -2.27242e+06 722247 0 -2.30215e+06 763419 0 -2.33285e+06 806741 0 -2.3644e+06 852519 0 -2.39667e+06 901122 0 -2.42947e+06 952995 0 -2.46254e+06 1.00868e+06 0 -2.49549e+06 1.06884e+06 0 -2.52776e+06 1.13429e+06 0 -2.55855e+06 1.206e+06 0 -2.58664e+06 1.28512e+06 0 -2.61025e+06 1.37298e+06 0 -2.62668e+06 1.47098e+06 0 -2.63198e+06 1.58026e+06 0 -2.62046e+06 1.70115e+06 0 -2.58442e+06 1.83187e+06 0 -2.5147e+06 1.96648e+06 0 -2.40356e+06 2.09268e+06 0 -2.24997e+06 2.19207e+06 0 -2.06405e+06 2.24559e+06 0 -1.86559e+06 2.24184e+06 0 -1.6762e+06 2.18206e+06 0 -1.51104e+06 2.0774e+06 0 -1.37601e+06 1.94178e+06 0 -1.27014e+06 1.78651e+06 0 -1.18921e+06 1.61882e+06 0 -1.12781e+06 1.44251e+06 0 -1.08037e+06 1.25926e+06 0 -1.04046e+06 1.06858e+06 0 -2.19679e+06 639128 0 -2.22348e+06 676244 0 -2.2512e+06 714944 0 -2.27989e+06 755417 0 -2.3095e+06 797895 0 -2.33991e+06 842652 0 -2.371e+06 890014 0 -2.40258e+06 940372 0 -2.4344e+06 994198 0 -2.4661e+06 1.05206e+06 0 -2.49717e+06 1.11465e+06 0 -2.52689e+06 1.18278e+06 0 -2.55422e+06 1.25742e+06 0 -2.57762e+06 1.33965e+06 0 -2.59488e+06 1.4306e+06 0 -2.60277e+06 1.53124e+06 0 -2.59675e+06 1.64195e+06 0 -2.57068e+06 1.76163e+06 0 -2.51709e+06 1.8863e+06 0 -2.42879e+06 2.00732e+06 0 -2.3024e+06 2.11071e+06 0 -2.14251e+06 2.1797e+06 0 -1.96275e+06 2.20086e+06 0 -1.78166e+06 2.16974e+06 0 -1.61565e+06 2.0918e+06 0 -1.47427e+06 1.97803e+06 0 -1.36007e+06 1.83955e+06 0 -1.27106e+06 1.68465e+06 0 -1.20321e+06 1.51837e+06 0 -1.1516e+06 1.34305e+06 0 -1.11101e+06 1.15953e+06 0 -1.07495e+06 966617 0 -2.20392e+06 669837 0 -2.2307e+06 707996 0 -2.25842e+06 747828 0 -2.287e+06 789532 0 -2.31635e+06 833354 0 -2.34634e+06 879584 0 -2.37679e+06 928568 0 -2.40746e+06 980717 0 -2.43801e+06 1.03652e+06 0 -2.46799e+06 1.09657e+06 0 -2.49675e+06 1.16156e+06 0 -2.52337e+06 1.23228e+06 0 -2.54654e+06 1.30964e+06 0 -2.56439e+06 1.39457e+06 0 -2.57427e+06 1.48787e+06 0 -2.57249e+06 1.58992e+06 0 -2.5541e+06 1.70003e+06 0 -2.51302e+06 1.81547e+06 0 -2.4429e+06 1.93014e+06 0 -2.33946e+06 2.03355e+06 0 -2.20376e+06 2.11183e+06 0 -2.04436e+06 2.15158e+06 0 -1.87578e+06 2.14498e+06 0 -1.71362e+06 2.09252e+06 0 -1.56953e+06 2.00142e+06 0 -1.44913e+06 1.88141e+06 0 -1.35297e+06 1.74108e+06 0 -1.27862e+06 1.58633e+06 0 -1.22229e+06 1.42056e+06 0 -1.17935e+06 1.24494e+06 0 -1.14475e+06 1.05955e+06 0 -1.11164e+06 862353 0 -2.21087e+06 701403 0 -2.23767e+06 740634 0 -2.26529e+06 781628 0 -2.29365e+06 824593 0 -2.32261e+06 869791 0 -2.35201e+06 917525 0 -2.38161e+06 968157 0 -2.41112e+06 1.02211e+06 0 -2.4401e+06 1.0799e+06 0 -2.46798e+06 1.1421e+06 0 -2.49394e+06 1.20939e+06 0 -2.51685e+06 1.28252e+06 0 -2.53512e+06 1.36225e+06 0 -2.54654e+06 1.44926e+06 0 -2.54807e+06 1.54389e+06 0 -2.53569e+06 1.64572e+06 0 -2.5044e+06 1.75282e+06 0 -2.44876e+06 1.86081e+06 0 -2.36434e+06 1.96187e+06 0 -2.25017e+06 2.04489e+06 0 -2.11102e+06 2.09768e+06 0 -1.95746e+06 2.1109e+06 0 -1.80303e+06 2.0814e+06 0 -1.6599e+06 2.01262e+06 0 -1.53591e+06 1.91201e+06 0 -1.43402e+06 1.78761e+06 0 -1.35367e+06 1.64583e+06 0 -1.29228e+06 1.4908e+06 0 -1.24624e+06 1.32457e+06 0 -1.21108e+06 1.14724e+06 0 -1.18179e+06 958192 0 -1.15075e+06 754236 0 -2.2176e+06 733832 0 -2.24432e+06 774160 0 -2.27174e+06 816341 0 -2.29974e+06 860593 0 -2.32815e+06 907190 0 -2.35677e+06 956446 0 -2.38531e+06 1.00874e+06 0 -2.41337e+06 1.06449e+06 0 -2.44043e+06 1.12421e+06 0 -2.46577e+06 1.18848e+06 0 -2.48841e+06 1.2579e+06 0 -2.50697e+06 1.33312e+06 0 -2.51959e+06 1.4147e+06 0 -2.52374e+06 1.50295e+06 0 -2.51611e+06 1.59759e+06 0 -2.49257e+06 1.69725e+06 0 -2.4485e+06 1.79871e+06 0 -2.37971e+06 1.89612e+06 0 -2.28419e+06 1.98073e+06 0 -2.16408e+06 2.04204e+06 0 -2.02658e+06 2.07052e+06 0 -1.88263e+06 2.06072e+06 0 -1.74376e+06 2.01285e+06 0 -1.61895e+06 1.93172e+06 0 -1.51317e+06 1.82413e+06 0 -1.42773e+06 1.69645e+06 0 -1.36144e+06 1.55329e+06 0 -1.31167e+06 1.39735e+06 0 -1.27502e+06 1.22954e+06 0 -1.24697e+06 1.04893e+06 0 -1.22246e+06 854165 0 -1.19267e+06 640320 0 -2.22404e+06 767125 0 -2.25057e+06 808571 0 -2.27767e+06 851960 0 -2.30516e+06 897517 0 -2.33286e+06 945524 0 -2.36049e+06 996305 0 -2.3877e+06 1.05024e+06 0 -2.41401e+06 1.10775e+06 0 -2.43877e+06 1.16932e+06 0 -2.46111e+06 1.23549e+06 0 -2.47985e+06 1.30677e+06 0 -2.49341e+06 1.38363e+06 0 -2.49966e+06 1.46635e+06 0 -2.49582e+06 1.55473e+06 0 -2.47849e+06 1.64778e+06 0 -2.44373e+06 1.7431e+06 0 -2.38775e+06 1.83626e+06 0 -2.3081e+06 1.92041e+06 0 -2.20523e+06 1.98679e+06 0 -2.08371e+06 2.02646e+06 0 -1.95189e+06 2.03284e+06 0 -1.8199e+06 2.00372e+06 0 -1.69695e+06 1.94136e+06 0 -1.58936e+06 1.85088e+06 0 -1.50007e+06 1.73802e+06 0 -1.42939e+06 1.60766e+06 0 -1.37576e+06 1.46289e+06 0 -1.33668e+06 1.3053e+06 0 -1.30874e+06 1.1346e+06 0 -1.28734e+06 948945 0 -1.26741e+06 745961 0 -1.23806e+06 517737 0 -2.2301e+06 801277 0 -2.25634e+06 843857 0 -2.28298e+06 888466 0 -2.30981e+06 935333 0 -2.3366e+06 984748 0 -2.36301e+06 1.03703e+06 0 -2.3886e+06 1.09256e+06 0 -2.41281e+06 1.15174e+06 0 -2.43485e+06 1.21502e+06 0 -2.4537e+06 1.28284e+06 0 -2.46799e+06 1.35558e+06 0 -2.47592e+06 1.43347e+06 0 -2.47515e+06 1.5164e+06 0 -2.46282e+06 1.6036e+06 0 -2.43561e+06 1.69326e+06 0 -2.39015e+06 1.78197e+06 0 -2.32388e+06 1.8644e+06 0 -2.23625e+06 1.93335e+06 0 -2.1299e+06 1.98083e+06 0 -2.01088e+06 2e+06 0 -1.88763e+06 1.98705e+06 0 -1.76885e+06 1.94209e+06 0 -1.66153e+06 1.86839e+06 0 -1.56992e+06 1.77073e+06 0 -1.49563e+06 1.65372e+06 0 -1.43838e+06 1.52092e+06 0 -1.39637e+06 1.37406e+06 0 -1.36736e+06 1.21396e+06 0 -1.34764e+06 1.03878e+06 0 -1.33282e+06 846122 0 -1.3177e+06 631440 0 -1.28783e+06 383385 0 -2.23571e+06 836276 0 -2.26153e+06 879998 0 -2.28756e+06 925830 0 -2.31355e+06 974000 0 -2.33921e+06 1.0248e+06 0 -2.36414e+06 1.07854e+06 0 -2.38782e+06 1.13558e+06 0 -2.40955e+06 1.19629e+06 0 -2.42844e+06 1.26105e+06 0 -2.4433e+06 1.33016e+06 0 -2.45258e+06 1.40384e+06 0 -2.45431e+06 1.48198e+06 0 -2.44606e+06 1.564e+06 0 -2.42501e+06 1.6485e+06 0 -2.38821e+06 1.73284e+06 0 -2.33318e+06 1.81281e+06 0 -2.25882e+06 1.88257e+06 0 -2.1664e+06 1.93521e+06 0 -2.06015e+06 1.96412e+06 0 -1.94674e+06 1.96466e+06 0 -1.83393e+06 1.93528e+06 0 -1.72881e+06 1.87752e+06 0 -1.63646e+06 1.79493e+06 0 -1.55967e+06 1.69163e+06 0 -1.49916e+06 1.57112e+06 0 -1.45433e+06 1.43583e+06 0 -1.42319e+06 1.28622e+06 0 -1.40399e+06 1.12267e+06 0 -1.39209e+06 940871 0 -1.38464e+06 739268 0 -1.37473e+06 508399 0 -1.34405e+06 230668 0 -2.24079e+06 872103 0 -2.26604e+06 916965 0 -2.29129e+06 964007 0 -2.31625e+06 1.01345e+06 0 -2.34055e+06 1.06559e+06 0 -2.36371e+06 1.1207e+06 0 -2.38514e+06 1.17912e+06 0 -2.40402e+06 1.24116e+06 0 -2.41931e+06 1.30707e+06 0 -2.42969e+06 1.37703e+06 0 -2.43347e+06 1.45095e+06 0 -2.42857e+06 1.52839e+06 0 -2.41258e+06 1.60822e+06 0 -2.38295e+06 1.68838e+06 0 -2.33735e+06 1.76553e+06 0 -2.27442e+06 1.83492e+06 0 -2.19454e+06 1.89069e+06 0 -2.10048e+06 1.92678e+06 0 -1.99738e+06 1.93824e+06 0 -1.89182e+06 1.92239e+06 0 -1.79053e+06 1.87931e+06 0 -1.69901e+06 1.81127e+06 0 -1.62088e+06 1.72164e+06 0 -1.55787e+06 1.61374e+06 0 -1.51019e+06 1.49005e+06 0 -1.47704e+06 1.35197e+06 0 -1.45635e+06 1.19882e+06 0 -1.44709e+06 1.03068e+06 0 -1.44263e+06 839564 0 -1.44496e+06 628109 0 -1.44085e+06 370448 0 -1.41288e+06 48343.6 0 -2.24523e+06 908730 0 -2.26976e+06 954715 0 -2.29405e+06 1.00294e+06 0 -2.31775e+06 1.05361e+06 0 -2.34043e+06 1.107e+06 0 -2.36154e+06 1.16336e+06 0 -2.38037e+06 1.22297e+06 0 -2.396e+06 1.28604e+06 0 -2.40727e+06 1.3527e+06 0 -2.41273e+06 1.4229e+06 0 -2.41059e+06 1.49626e+06 0 -2.39881e+06 1.57189e+06 0 -2.37514e+06 1.64813e+06 0 -2.33747e+06 1.72231e+06 0 -2.28434e+06 1.79058e+06 0 -2.21556e+06 1.848e+06 0 -2.13285e+06 1.88919e+06 0 -2.04001e+06 1.90923e+06 0 -1.94247e+06 1.90482e+06 0 -1.84629e+06 1.8749e+06 0 -1.75699e+06 1.82054e+06 0 -1.67875e+06 1.74425e+06 0 -1.61407e+06 1.64893e+06 0 -1.56401e+06 1.53708e+06 0 -1.52847e+06 1.41027e+06 0 -1.50651e+06 1.26889e+06 0 -1.4963e+06 1.11131e+06 0 -1.49724e+06 937061 0 -1.50009e+06 733764 0 -1.51878e+06 510130 0 -1.51632e+06 210948 0 -1.5097e+06 -153640 0 -2.24893e+06 946115 0 -2.27257e+06 993182 0 -2.2957e+06 1.04254e+06 0 -2.31792e+06 1.09436e+06 0 -2.33871e+06 1.14887e+06 0 -2.35745e+06 1.20631e+06 0 -2.37332e+06 1.26685e+06 0 -2.38532e+06 1.33059e+06 0 -2.39217e+06 1.39749e+06 0 -2.39234e+06 1.46723e+06 0 -2.38405e+06 1.53907e+06 0 -2.36536e+06 1.61169e+06 0 -2.33438e+06 1.68291e+06 0 -2.28963e+06 1.74958e+06 0 -2.2306e+06 1.80759e+06 0 -2.15825e+06 1.85221e+06 0 -2.0753e+06 1.87884e+06 0 -1.98609e+06 1.88387e+06 0 -1.8959e+06 1.86545e+06 0 -1.81e+06 1.82365e+06 0 -1.73279e+06 1.76007e+06 0 -1.66738e+06 1.67708e+06 0 -1.61549e+06 1.57703e+06 0 -1.57776e+06 1.46162e+06 0 -1.55392e+06 1.33153e+06 0 -1.54301e+06 1.18617e+06 0 -1.54378e+06 1.02322e+06 0 -1.55477e+06 840939 0 -1.56785e+06 622100 0 -1.61075e+06 387407 0 -1.59577e+06 29407 0 -1.79895e+06 -590109 0 -2.25177e+06 984161 0 -2.27435e+06 1.03231e+06 0 -2.29611e+06 1.08271e+06 0 -2.31658e+06 1.13556e+06 0 -2.33521e+06 1.19104e+06 0 -2.35126e+06 1.24931e+06 0 -2.36384e+06 1.31044e+06 0 -2.37184e+06 1.37438e+06 0 -2.37394e+06 1.44086e+06 0 -2.36859e+06 1.50929e+06 0 -2.35409e+06 1.57855e+06 0 -2.32876e+06 1.64688e+06 0 -2.29118e+06 1.71169e+06 0 -2.24066e+06 1.76954e+06 0 -2.17761e+06 1.81637e+06 0 -2.10395e+06 1.84796e+06 0 -2.02307e+06 1.86067e+06 0 -1.93941e+06 1.85213e+06 0 -1.85781e+06 1.82162e+06 0 -1.78267e+06 1.76991e+06 0 -1.71743e+06 1.69877e+06 0 -1.6644e+06 1.61026e+06 0 -1.62479e+06 1.50609e+06 0 -1.59899e+06 1.38722e+06 0 -1.58667e+06 1.25346e+06 0 -1.58711e+06 1.10333e+06 0 -1.59944e+06 933912 0 -1.62074e+06 740397 0 -1.65277e+06 506077 0 -1.71446e+06 257017 0 -1.73515e+06 -246864 0 -2.81003e+06 -1.40416e+06 0 </DataArray> 
</PointData> 
<Points> 
<DataArray type="Float32" NumberOfComponents="3"> 