<?xml version="1.0"?> 
<VTKFile type="StructuredGrid" version="0.1"> 
<StructuredGrid WholeExtent="0 31 0 31 0 0"> 
<Piece Extent="0 31 0 31 0 0"> 
<PointData>
<DataArray type="Float32" Name="|E|" format="ascii" NumberOfComponents="3"> 
49630.8 5.79052e+06 0 46877.2 5.71612e+06 0 43447.7 5.54486e+06 0 40077 5.36111e+06 0 36937.7 5.18761e+06 0 34058.3 5.03053e+06 0 31420.5 4.89008e+06 0 28996.6 4.76485e+06 0 26758.8 4.65305e+06 0 24682.7 4.55293e+06 0 22747.2 4.46298e+06 0 20934.8 4.38187e+06 0 19230.9 4.30847e+06 0 17622.9 4.24185e+06 0 16100.6 4.18121e+06 0 14655 4.12586e+06 0 13278.7 4.07524e+06 0 11965 4.02884e+06 0 10708.5 3.98625e+06 0 9504.32 3.94711e+06 0 8348.11 3.91109e+06 0 7236.19 3.87792e+06 0 6165.24 3.84738e+06 0 5132.32 3.81925e+06 0 4134.81 3.79335e+06 0 3170.35 3.76953e+06 0 2236.79 3.74766e+06 0 1332.18 3.72761e+06 0 454.761 3.7093e+06 0 -397.127 3.69263e+06 0 -1225.01 3.67755e+06 0 -2030.3 3.66397e+06 0 -459102 6.20429e+06 0 -452530 5.82737e+06 0 -413439 5.56387e+06 0 -367491 5.35169e+06 0 -322984 5.17152e+06 0 -283083 5.01469e+06 0 -248357 4.87658e+06 0 -218518 4.75405e+06 0 -192976 4.64475e+06 0 -171103 4.54678e+06 0 -152322 4.45859e+06 0 -136135 4.37892e+06 0 -122125 4.30669e+06 0 -109944 4.24101e+06 0 -99308 4.18111e+06 0 -89980.1 4.12637e+06 0 -81765.3 4.07622e+06 0 -74501.7 4.0302e+06 0 -68054.5 3.98791e+06 0 -62310.4 3.94899e+06 0 -57174.2 3.91314e+06 0 -52565 3.8801e+06 0 -48413.9 3.84964e+06 0 -44661.7 3.82156e+06 0 -41257.2 3.79568e+06 0 -38155.6 3.77186e+06 0 -35317.5 3.74995e+06 0 -32707.4 3.72984e+06 0 -30292.9 3.71144e+06 0 -28043.4 3.69467e+06 0 -25929.2 3.67945e+06 0 -23921.5 3.66578e+06 0 -1.29582e+06 5.87251e+06 0 -1.06492e+06 5.61056e+06 0 -901017 5.3892e+06 0 -773656 5.20469e+06 0 -671008 5.04729e+06 0 -586148 4.91024e+06 0 -515047 4.78903e+06 0 -454893 4.68071e+06 0 -403626 4.58323e+06 0 -359653 4.49505e+06 0 -321715 4.41496e+06 0 -288804 4.34198e+06 0 -260107 4.27532e+06 0 -234960 4.21427e+06 0 -212820 4.15826e+06 0 -193241 4.10677e+06 0 -175851 4.05937e+06 0 -160344 4.01568e+06 0 -146460 3.97536e+06 0 -133984 3.93813e+06 0 -122729 3.90372e+06 0 -112541 3.8719e+06 0 -103284 3.84249e+06 0 -94842.8 3.8153e+06 0 -87117.2 3.79019e+06 0 -80019.1 3.767e+06 0 -73471 3.74563e+06 0 -67403.5 3.72597e+06 0 -61753.6 3.70792e+06 0 -56462.6 3.69141e+06 0 -51474.2 3.67637e+06 0 -46724.3 3.66273e+06 0 -1.71903e+06 5.21439e+06 0 -1.46321e+06 5.1291e+06 0 -1.25663e+06 5.02826e+06 0 -1.08924e+06 4.92378e+06 0 -951779 4.82219e+06 0 -837318 4.72607e+06 0 -740832 4.63619e+06 0 -658674 4.55256e+06 0 -588129 4.47494e+06 0 -527128 4.40294e+06 0 -474056 4.33618e+06 0 -427631 4.27427e+06 0 -386819 4.21684e+06 0 -350777 4.16357e+06 0 -318810 4.11412e+06 0 -290342 4.0682e+06 0 -264891 4.02556e+06 0 -242054 3.98594e+06 0 -221488 3.94911e+06 0 -202904 3.91489e+06 0 -186052 3.88308e+06 0 -170722 3.85352e+06 0 -156728 3.82606e+06 0 -143911 3.80056e+06 0 -132133 3.77691e+06 0 -121270 3.755e+06 0 -111215 3.73472e+06 0 -101872 3.716e+06 0 -93152.5 3.69875e+06 0 -84977.8 3.68291e+06 0 -77275.3 3.66841e+06 0 -69976.2 3.6552e+06 0 -1.82026e+06 4.66642e+06 0 -1.61473e+06 4.66487e+06 0 -1.43219e+06 4.64024e+06 0 -1.27226e+06 4.60072e+06 0 -1.13303e+06 4.5522e+06 0 -1.01202e+06 4.49892e+06 0 -906685 4.44369e+06 0 -814723 4.38832e+06 0 -734146 4.33396e+06 0 -663277 4.28127e+06 0 -600709 4.23067e+06 0 -545267 4.18238e+06 0 -495964 4.1365e+06 0 -451970 4.09305e+06 0 -412583 4.05201e+06 0 -377208 4.01333e+06 0 -345336 3.97691e+06 0 -316533 3.94268e+06 0 -290425 3.91054e+06 0 -266691 3.88039e+06 0 -245052 3.85214e+06 0 -225266 3.82569e+06 0 -207120 3.80094e+06 0 -190430 3.77783e+06 0 -175032 3.75627e+06 0 -160782 3.73618e+06 0 -147550 3.71751e+06 0 -135222 3.70018e+06 0 -123693 3.68413e+06 0 -112869 3.66933e+06 0 -102665 3.65572e+06 0 -92997.7 3.64325e+06 0 -1.7883e+06 4.25392e+06 0 -1.6327e+06 4.28637e+06 0 -1.48581e+06 4.30024e+06 0 -1.34987e+06 4.2992e+06 0 -1.22559e+06 4.28684e+06 0 -1.11292e+06 4.26623e+06 0 -1.0113e+06 4.23984e+06 0 -919876 4.20961e+06 0 -837729 4.17702e+06 0 -763908 4.14316e+06 0 -697518 4.10884e+06 0 -637735 4.07463e+06 0 -583814 4.04097e+06 0 -535091 4.00815e+06 0 -490979 3.97636e+06 0 -450958 3.94575e+06 0 -414572 3.91641e+06 0 -381416 3.88838e+06 0 -351138 3.86168e+06 0 -323424 3.83632e+06 0 -297997 3.81229e+06 0 -274614 3.78957e+06 0 -253059 3.76813e+06 0 -233138 3.74793e+06 0 -214680 3.72895e+06 0 -197531 3.71114e+06 0 -181552 3.69448e+06 0 -166620 3.67892e+06 0 -152620 3.66444e+06 0 -139450 3.651e+06 0 -127016 3.63857e+06 0 -115227 3.62713e+06 0 -1.70698e+06 3.94315e+06 0 -1.58827e+06 3.98815e+06 0 -1.47233e+06 4.01962e+06 0 -1.36106e+06 4.03916e+06 0 -1.25569e+06 4.04855e+06 0 -1.15697e+06 4.04957e+06 0 -1.06518e+06 4.04389e+06 0 -980343 4.03299e+06 0 -902233 4.01812e+06 0 -830512 4.00032e+06 0 -764763 3.98045e+06 0 -704541 3.95919e+06 0 -649392 3.93708e+06 0 -598878 3.91455e+06 0 -552580 3.89193e+06 0 -510110 3.86949e+06 0 -471109 3.84741e+06 0 -435246 3.82585e+06 0 -402224 3.80492e+06 0 -371769 3.78471e+06 0 -343634 3.76527e+06 0 -317597 3.74664e+06 0 -293456 3.72886e+06 0 -271028 3.71193e+06 0 -250146 3.69586e+06 0 -230660 3.68065e+06 0 -212434 3.66631e+06 0 -195341 3.65282e+06 0 -179267 3.64017e+06 0 -164106 3.62835e+06 0 -149762 3.61735e+06 0 -136141 3.60716e+06 0 -1.60863e+06 3.70312e+06 0 -1.51634e+06 3.75198e+06 0 -1.42427e+06 3.79105e+06 0 -1.33383e+06 3.82099e+06 0 -1.24609e+06 3.84267e+06 0 -1.16185e+06 3.85706e+06 0 -1.08167e+06 3.86515e+06 0 -1.00588e+06 3.86793e+06 0 -934630 3.86631e+06 0 -867933 3.8611e+06 0 -805696 3.85302e+06 0 -747757 3.8427e+06 0 -693907 3.83066e+06 0 -643909 3.81736e+06 0 -597516 3.80316e+06 0 -554475 3.78837e+06 0 -514538 3.77324e+06 0 -477467 3.75798e+06 0 -443034 3.74275e+06 0 -411023 3.7277e+06 0 -381235 3.71292e+06 0 -353481 3.69851e+06 0 -327588 3.68453e+06 0 -303395 3.67103e+06 0 -280752 3.65806e+06 0 -259523 3.64564e+06 0 -239580 3.63381e+06 0 -220805 3.62257e+06 0 -203087 3.61194e+06 0 -186326 3.60193e+06 0 -170425 3.59254e+06 0 -155294 3.58377e+06 0 -1.50611e+06 3.51332e+06 0 -1.43297e+06 3.56232e+06 0 -1.35901e+06 3.60414e+06 0 -1.2852e+06 3.63901e+06 0 -1.21237e+06 3.66734e+06 0 -1.1412e+06 3.68964e+06 0 -1.07223e+06 3.70649e+06 0 -1.00588e+06 3.7185e+06 0 -942434 3.72627e+06 0 -882057 3.73038e+06 0 -824839 3.73139e+06 0 -770790 3.7298e+06 0 -719866 3.72606e+06 0 -671982 3.72057e+06 0 -627022 3.71367e+06 0 -584851 3.70567e+06 0 -545323 3.69683e+06 0 -508285 3.68738e+06 0 -473580 3.6775e+06 0 -441056 3.66735e+06 0 -410562 3.65708e+06 0 -381953 3.64679e+06 0 -355091 3.63657e+06 0 -329844 3.62651e+06 0 -306085 3.61667e+06 0 -283697 3.6071e+06 0 -262569 3.59785e+06 0 -242594 3.58896e+06 0 -223673 3.58045e+06 0 -205712 3.57235e+06 0 -188623 3.56468e+06 0 -172319 3.55745e+06 0 -1.4047e+06 3.36018e+06 0 -1.3458e+06 3.40777e+06 0 -1.28567e+06 3.44996e+06 0 -1.225e+06 3.48681e+06 0 -1.1644e+06 3.51851e+06 0 -1.10439e+06 3.5453e+06 0 -1.04544e+06 3.56752e+06 0 -987940 3.58554e+06 0 -932189 3.59973e+06 0 -878416 3.61051e+06 0 -826781 3.61826e+06 0 -777385 3.62336e+06 0 -730281 3.62617e+06 0 -685477 3.62701e+06 0 -642950 3.62618e+06 0 -602652 3.62396e+06 0 -564514 3.62058e+06 0 -528454 3.61626e+06 0 -494379 3.61118e+06 0 -462191 3.60552e+06 0 -431789 3.59941e+06 0 -403069 3.59298e+06 0 -375927 3.58634e+06 0 -350264 3.57959e+06 0 -325979 3.57279e+06 0 -302977 3.56602e+06 0 -281166 3.55934e+06 0 -260454 3.55279e+06 0 -240757 3.54643e+06 0 -221992 3.54028e+06 0 -204081 3.53437e+06 0 -186943 3.52873e+06 0 -1.30656e+06 3.23465e+06 0 -1.25852e+06 3.28021e+06 0 -1.20915e+06 3.32161e+06 0 -1.15891e+06 3.35884e+06 0 -1.10825e+06 3.39198e+06 0 -1.05759e+06 3.42114e+06 0 -1.00729e+06 3.44651e+06 0 -957692 3.46831e+06 0 -909060 3.48677e+06 0 -861628 3.50217e+06 0 -815577 3.51477e+06 0 -771045 3.52484e+06 0 -728130 3.53266e+06 0 -686894 3.53848e+06 0 -647372 3.54253e+06 0 -609570 3.54506e+06 0 -573476 3.54626e+06 0 -539059 3.54632e+06 0 -506276 3.54542e+06 0 -475073 3.54372e+06 0 -445391 3.54134e+06 0 -417162 3.53843e+06 0 -390316 3.53508e+06 0 -364781 3.53139e+06 0 -340484 3.52746e+06 0 -317351 3.52335e+06 0 -295309 3.51913e+06 0 -274286 3.51486e+06 0 -254211 3.51059e+06 0 -235014 3.50636e+06 0 -216628 3.50221e+06 0 -198984 3.49817e+06 0 -1.21252e+06 3.13053e+06 0 -1.17298e+06 3.17384e+06 0 -1.1321e+06 3.21388e+06 0 -1.09023e+06 3.25062e+06 0 -1.0477e+06 3.28407e+06 0 -1.00483e+06 3.31428e+06 0 -961897 3.34135e+06 0 -919183 3.36541e+06 0 -876922 3.38661e+06 0 -835321 3.40511e+06 0 -794556 3.4211e+06 0 -754770 3.43478e+06 0 -716081 3.44634e+06 0 -678574 3.45597e+06 0 -642314 3.46385e+06 0 -607341 3.47018e+06 0 -573677 3.47512e+06 0 -541329 3.47883e+06 0 -510287 3.48146e+06 0 -480532 3.48315e+06 0 -452036 3.48403e+06 0 -424761 3.48422e+06 0 -398664 3.48381e+06 0 -373700 3.4829e+06 0 -349817 3.48159e+06 0 -326962 3.47994e+06 0 -305083 3.47802e+06 0 -284121 3.47589e+06 0 -264023 3.47362e+06 0 -244732 3.47123e+06 0 -226191 3.46879e+06 0 -208344 3.46632e+06 0 -1.12282e+06 3.04338e+06 0 -1.09005e+06 3.08441e+06 0 -1.05601e+06 3.12284e+06 0 -1.02094e+06 3.1586e+06 0 -985093 3.1917e+06 0 -948716 3.22214e+06 0 -912035 3.24998e+06 0 -875269 3.27527e+06 0 -838615 3.29812e+06 0 -802253 3.31864e+06 0 -766340 3.33694e+06 0 -731014 3.35315e+06 0 -696390 3.36743e+06 0 -662564 3.37991e+06 0 -629613 3.39073e+06 0 -597593 3.40003e+06 0 -566549 3.40795e+06 0 -536507 3.41463e+06 0 -507483 3.42018e+06 0 -479479 3.42472e+06 0 -452491 3.42837e+06 0 -426504 3.43123e+06 0 -401497 3.43339e+06 0 -377445 3.43495e+06 0 -354315 3.43597e+06 0 -332073 3.43654e+06 0 -310681 3.43672e+06 0 -290098 3.43657e+06 0 -270284 3.43615e+06 0 -251193 3.4355e+06 0 -232783 3.43467e+06 0 -215005 3.43369e+06 0 -1.03744e+06 2.96996e+06 0 -1.01016e+06 3.00879e+06 0 -981689 3.0455e+06 0 -952208 3.08004e+06 0 -921909 3.11239e+06 0 -890981 3.14254e+06 0 -859605 3.17052e+06 0 -827957 3.19636e+06 0 -796199 3.22012e+06 0 -764485 3.24185e+06 0 -732950 3.26165e+06 0 -701719 3.2796e+06 0 -670900 3.2958e+06 0 -640586 3.31036e+06 0 -610857 3.32338e+06 0 -581778 3.33496e+06 0 -553401 3.34522e+06 0 -525765 3.35425e+06 0 -498901 3.36216e+06 0 -472826 3.36905e+06 0 -447550 3.37501e+06 0 -423077 3.38013e+06 0 -399401 3.3845e+06 0 -376511 3.38818e+06 0 -354391 3.39125e+06 0 -333021 3.39379e+06 0 -312378 3.39585e+06 0 -292432 3.39748e+06 0 -273156 3.39875e+06 0 -254517 3.39969e+06 0 -236481 3.40036e+06 0 -219012 3.40078e+06 0 -956232 2.90784e+06 0 -933476 2.94456e+06 0 -909601 2.97953e+06 0 -884758 3.01273e+06 0 -859095 3.04411e+06 0 -832761 3.07366e+06 0 -805902 3.10138e+06 0 -778658 3.1273e+06 0 -751163 3.15143e+06 0 -723545 3.17382e+06 0 -695922 3.19453e+06 0 -668402 3.21361e+06 0 -641082 3.23112e+06 0 -614049 3.24715e+06 0 -587380 3.26177e+06 0 -561140 3.27506e+06 0 -535385 3.28711e+06 0 -510159 3.29798e+06 0 -485500 3.30777e+06 0 -461436 3.31656e+06 0 -437986 3.32441e+06 0 -415163 3.33141e+06 0 -392974 3.33762e+06 0 -371420 3.34311e+06 0 -350495 3.34795e+06 0 -330192 3.3522e+06 0 -310496 3.3559e+06 0 -291392 3.35912e+06 0 -272860 3.3619e+06 0 -254877 3.36428e+06 0 -237420 3.36631e+06 0 -220462 3.36801e+06 0 -879022 2.85512e+06 0 -860014 2.88984e+06 0 -839971 2.92312e+06 0 -819011 2.95492e+06 0 -797253 2.98521e+06 0 -774815 3.01396e+06 0 -751814 3.04117e+06 0 -728365 3.06685e+06 0 -704580 3.091e+06 0 -680564 3.11365e+06 0 -656417 3.13483e+06 0 -632232 3.15458e+06 0 -608096 3.17294e+06 0 -584087 3.18998e+06 0 -560276 3.20573e+06 0 -536724 3.22027e+06 0 -513487 3.23365e+06 0 -490612 3.24593e+06 0 -468137 3.25719e+06 0 -446096 3.26747e+06 0 -424514 3.27685e+06 0 -403410 3.28538e+06 0 -382799 3.29312e+06 0 -362690 3.30013e+06 0 -343085 3.30646e+06 0 -323984 3.31217e+06 0 -305383 3.3173e+06 0 -287274 3.3219e+06 0 -269645 3.326e+06 0 -252482 3.32966e+06 0 -235770 3.33291e+06 0 -219488 3.33578e+06 0 -805600 2.81029e+06 0 -789726 2.84314e+06 0 -772897 2.87479e+06 0 -755210 2.9052e+06 0 -736758 2.93433e+06 0 -717640 2.96218e+06 0 -697948 2.98872e+06 0 -677779 3.01394e+06 0 -657224 3.03786e+06 0 -636371 3.06048e+06 0 -615304 3.08183e+06 0 -594105 3.10192e+06 0 -572848 3.12078e+06 0 -551601 3.13846e+06 0 -530430 3.15498e+06 0 -509390 3.1704e+06 0 -488535 3.18475e+06 0 -467910 3.19809e+06 0 -447554 3.21045e+06 0 -427501 3.22191e+06 0 -407780 3.23249e+06 0 -388413 3.24225e+06 0 -369420 3.25123e+06 0 -350814 3.25949e+06 0 -332604 3.26707e+06 0 -314795 3.27401e+06 0 -297390 3.28035e+06 0 -280386 3.28613e+06 0 -263779 3.2914e+06 0 -247561 3.29618e+06 0 -231722 3.3005e+06 0 -216250 3.30441e+06 0 -735749 2.77214e+06 0 -722508 2.80324e+06 0 -708390 2.83333e+06 0 -693474 2.86238e+06 0 -677837 2.89036e+06 0 -661558 2.91724e+06 0 -644716 2.94301e+06 0 -627387 2.96766e+06 0 -609648 2.99118e+06 0 -591574 3.01358e+06 0 -573235 3.03486e+06 0 -554701 3.05505e+06 0 -536035 3.07415e+06 0 -517300 3.09219e+06 0 -498550 3.1092e+06 0 -479838 3.1252e+06 0 -461212 3.14024e+06 0 -442715 3.15434e+06 0 -424384 3.16754e+06 0 -406253 3.17988e+06 0 -388351 3.1914e+06 0 -370703 3.20213e+06 0 -353329 3.21211e+06 0 -336247 3.22138e+06 0 -319468 3.22998e+06 0 -303003 3.23794e+06 0 -286857 3.2453e+06 0 -271033 3.25209e+06 0 -255531 3.25835e+06 0 -240349 3.26409e+06 0 -225482 3.26936e+06 0 -210922 3.27417e+06 0 -669248 2.73967e+06 0 -658226 2.76914e+06 0 -646402 2.79776e+06 0 -633842 2.82551e+06 0 -620609 2.85235e+06 0 -606768 2.87825e+06 0 -592384 2.90321e+06 0 -577521 2.9272e+06 0 -562243 2.95021e+06 0 -546612 2.97226e+06 0 -530689 2.99333e+06 0 -514532 3.01343e+06 0 -498196 3.03257e+06 0 -481734 3.05078e+06 0 -465197 3.06805e+06 0 -448629 3.08442e+06 0 -432075 3.09991e+06 0 -415573 3.11455e+06 0 -399158 3.12835e+06 0 -382864 3.14135e+06 0 -366718 3.15357e+06 0 -350744 3.16505e+06 0 -334965 3.17582e+06 0 -319398 3.1859e+06 0 -304058 3.19533e+06 0 -288957 3.20413e+06 0 -274104 3.21233e+06 0 -259505 3.21996e+06 0 -245163 3.22705e+06 0 -231079 3.23363e+06 0 -217253 3.2397e+06 0 -203681 3.24531e+06 0 -605869 2.71203e+06 0 -596719 2.73999e+06 0 -586842 2.76725e+06 0 -576290 2.79376e+06 0 -565116 2.8195e+06 0 -553374 2.84444e+06 0 -541118 2.86857e+06 0 -528401 2.89186e+06 0 -515277 2.91431e+06 0 -501799 2.93591e+06 0 -488016 2.95666e+06 0 -473979 2.97656e+06 0 -459735 2.99561e+06 0 -445330 3.01383e+06 0 -430808 3.03121e+06 0 -416209 3.04778e+06 0 -401570 3.06354e+06 0 -386929 3.07852e+06 0 -372316 3.09274e+06 0 -357763 3.10621e+06 0 -343294 3.11896e+06 0 -328936 3.13101e+06 0 -314707 3.14238e+06 0 -300628 3.1531e+06 0 -286713 3.16318e+06 0 -272975 3.17266e+06 0 -259425 3.18155e+06 0 -246071 3.18988e+06 0 -232920 3.19767e+06 0 -219974 3.20494e+06 0 -207236 3.21171e+06 0 -194704 3.218e+06 0 -545378 2.68851e+06 0 -537811 2.7151e+06 0 -529587 2.74109e+06 0 -520750 2.76644e+06 0 -511344 2.79114e+06 0 -501414 2.81515e+06 0 -491005 2.83846e+06 0 -480160 2.86105e+06 0 -468926 2.8829e+06 0 -457346 2.90402e+06 0 -445462 2.92438e+06 0 -433318 2.944e+06 0 -420954 2.96286e+06 0 -408409 2.98097e+06 0 -395721 2.99834e+06 0 -382925 3.01498e+06 0 -370055 3.03088e+06 0 -357142 3.04607e+06 0 -344215 3.06056e+06 0 -331303 3.07436e+06 0 -318428 3.08748e+06 0 -305615 3.09995e+06 0 -292882 3.11178e+06 0 -280248 3.12298e+06 0 -267728 3.13359e+06 0 -255336 3.1436e+06 0 -243083 3.15305e+06 0 -230978 3.16195e+06 0 -219029 3.17032e+06 0 -207241 3.17817e+06 0 -195618 3.18552e+06 0 -184161 3.19238e+06 0 -487537 2.66851e+06 0 -481307 2.69385e+06 0 -474489 2.71868e+06 0 -467120 2.74296e+06 0 -459236 2.76669e+06 0 -450874 2.78982e+06 0 -442070 2.81234e+06 0 -432864 2.83424e+06 0 -423292 2.8555e+06 0 -413390 2.8761e+06 0 -403196 2.89605e+06 0 -392745 2.91533e+06 0 -382071 2.93394e+06 0 -371209 2.95188e+06 0 -360190 2.96916e+06 0 -349045 2.98576e+06 0 -337804 3.0017e+06 0 -326494 3.01699e+06 0 -315142 3.03164e+06 0 -303771 3.04565e+06 0 -292405 3.05903e+06 0 -281063 3.07179e+06 0 -269764 3.08396e+06 0 -258525 3.09553e+06 0 -247361 3.10653e+06 0 -236285 3.11697e+06 0 -225309 3.12686e+06 0 -214443 3.13622e+06 0 -203694 3.14505e+06 0 -193069 3.15338e+06 0 -182574 3.16122e+06 0 -172210 3.16857e+06 0 -432099 2.65152e+06 0 -427001 2.67573e+06 0 -421381 2.69951e+06 0 -415271 2.72282e+06 0 -408699 2.74565e+06 0 -401697 2.76796e+06 0 -394296 2.78975e+06 0 -386527 2.81098e+06 0 -378420 2.83166e+06 0 -370008 2.85176e+06 0 -361320 2.87128e+06 0 -352386 2.8902e+06 0 -343236 2.90852e+06 0 -333899 2.92624e+06 0 -324401 2.94336e+06 0 -314770 2.95988e+06 0 -305031 2.97579e+06 0 -295207 2.9911e+06 0 -285323 3.00581e+06 0 -275399 3.01994e+06 0 -265454 3.03348e+06 0 -255509 3.04645e+06 0 -245579 3.05886e+06 0 -235681 3.0707e+06 0 -225827 3.082e+06 0 -216032 3.09277e+06 0 -206305 3.103e+06 0 -196657 3.11272e+06 0 -187096 3.12194e+06 0 -177628 3.13066e+06 0 -168260 3.13889e+06 0 -158996 3.14665e+06 0 -378817 2.63711e+06 0 -374677 2.66032e+06 0 -370080 2.68316e+06 0 -365051 2.70559e+06 0 -359616 2.7276e+06 0 -353799 2.74917e+06 0 -347625 2.77027e+06 0 -341122 2.79089e+06 0 -334313 2.81102e+06 0 -327226 2.83063e+06 0 -319886 2.84972e+06 0 -312317 2.86828e+06 0 -304544 2.8863e+06 0 -296593 2.90378e+06 0 -288485 2.92071e+06 0 -280243 2.93709e+06 0 -271890 2.95292e+06 0 -263446 2.96819e+06 0 -254931 2.98292e+06 0 -246363 2.9971e+06 0 -237760 3.01073e+06 0 -229139 3.02383e+06 0 -220514 3.0364e+06 0 -211899 3.04844e+06 0 -203308 3.05996e+06 0 -194752 3.07097e+06 0 -186241 3.08147e+06 0 -177784 3.09147e+06 0 -169390 3.10099e+06 0 -161066 3.11002e+06 0 -152817 3.11858e+06 0 -144649 3.12668e+06 0 -327439 2.62491e+06 0 -324111 2.64724e+06 0 -320390 2.66925e+06 0 -316295 2.69091e+06 0 -311847 2.71219e+06 0 -307066 2.73309e+06 0 -301974 2.75357e+06 0 -296590 2.77363e+06 0 -290936 2.79324e+06 0 -285034 2.8124e+06 0 -278905 2.83109e+06 0 -272569 2.84929e+06 0 -266047 2.86702e+06 0 -259359 2.88424e+06 0 -252525 2.90097e+06 0 -245563 2.91719e+06 0 -238493 2.9329e+06 0 -231331 2.94811e+06 0 -224095 2.9628e+06 0 -216801 2.97699e+06 0 -209463 2.99066e+06 0 -202097 3.00384e+06 0 -194714 3.0165e+06 0 -187328 3.02868e+06 0 -179950 3.04035e+06 0 -172591 3.05154e+06 0 -165259 3.06224e+06 0 -157964 3.07247e+06 0 -150713 3.08222e+06 0 -143512 3.0915e+06 0 -136367 3.10033e+06 0 -129284 3.1087e+06 0 -277712 2.61462e+06 0 -275077 2.63619e+06 0 -272109 2.65747e+06 0 -268825 2.67845e+06 0 -265239 2.69911e+06 0 -261370 2.71941e+06 0 -257233 2.73935e+06 0 -252846 2.7589e+06 0 -248226 2.77806e+06 0 -243390 2.7968e+06 0 -238355 2.81512e+06 0 -233139 2.833e+06 0 -227757 2.85043e+06 0 -222228 2.86741e+06 0 -216567 2.88393e+06 0 -210789 2.89999e+06 0 -204910 2.91557e+06 0 -198945 2.93068e+06 0 -192907 2.94532e+06 0 -186811 2.95948e+06 0 -180669 2.97316e+06 0 -174493 2.98636e+06 0 -168295 2.99909e+06 0 -162085 3.01135e+06 0 -155873 3.02313e+06 0 -149668 3.03445e+06 0 -143478 3.0453e+06 0 -137312 3.05569e+06 0 -131175 3.06562e+06 0 -125074 3.0751e+06 0 -119015 3.08413e+06 0 -113001 3.09272e+06 0 -229384 2.60596e+06 0 -227343 2.6269e+06 0 -225027 2.64758e+06 0 -222450 2.66798e+06 0 -219624 2.68809e+06 0 -216563 2.70789e+06 0 -213278 2.72735e+06 0 -209785 2.74647e+06 0 -206096 2.76523e+06 0 -202226 2.7836e+06 0 -198187 2.80159e+06 0 -193994 2.81917e+06 0 -189660 2.83635e+06 0 -185199 2.8531e+06 0 -180624 2.86943e+06 0 -175946 2.88532e+06 0 -171180 2.90078e+06 0 -166335 2.91578e+06 0 -161426 2.93035e+06 0 -156461 2.94446e+06 0 -151452 2.95812e+06 0 -146409 2.97133e+06 0 -141342 2.98409e+06 0 -136258 2.99639e+06 0 -131167 3.00825e+06 0 -126076 3.01965e+06 0 -120992 3.03061e+06 0 -115922 3.04112e+06 0 -110871 3.05119e+06 0 -105846 3.06082e+06 0 -100850 3.07002e+06 0 -95887.5 3.07878e+06 0 -182205 2.59875e+06 0 -180676 2.61916e+06 0 -178930 2.63934e+06 0 -176977 2.65927e+06 0 -174825 2.67893e+06 0 -172486 2.69831e+06 0 -169969 2.71738e+06 0 -167284 2.73613e+06 0 -164442 2.75455e+06 0 -161454 2.77261e+06 0 -158329 2.79032e+06 0 -155080 2.80765e+06 0 -151715 2.8246e+06 0 -148246 2.84115e+06 0 -144683 2.8573e+06 0 -141035 2.87305e+06 0 -137313 2.88838e+06 0 -133526 2.90329e+06 0 -129682 2.91777e+06 0 -125791 2.93183e+06 0 -121860 2.94546e+06 0 -117899 2.95865e+06 0 -113914 2.97142e+06 0 -109913 2.98375e+06 0 -105901 2.99564e+06 0 -101887 3.00711e+06 0 -97874.1 3.01814e+06 0 -93869 3.02874e+06 0 -89876.3 3.03891e+06 0 -85900.5 3.04865e+06 0 -81945.4 3.05797e+06 0 -78014.7 3.06687e+06 0 -135924 2.5928e+06 0 -134843 2.61279e+06 0 -133600 2.63258e+06 0 -132203 2.65214e+06 0 -130658 2.67145e+06 0 -128972 2.6905e+06 0 -127152 2.70926e+06 0 -125207 2.72772e+06 0 -123144 2.74586e+06 0 -120970 2.76368e+06 0 -118693 2.78115e+06 0 -116321 2.79827e+06 0 -113861 2.81503e+06 0 -111322 2.83142e+06 0 -108711 2.84743e+06 0 -106034 2.86304e+06 0 -103300 2.87826e+06 0 -100514 2.89308e+06 0 -97685.1 2.9075e+06 0 -94818.1 2.9215e+06 0 -91919.7 2.93509e+06 0 -88995.8 2.94827e+06 0 -86052.1 2.96102e+06 0 -83093.9 2.97336e+06 0 -80126.3 2.98528e+06 0 -77153.9 2.99678e+06 0 -74181.2 3.00786e+06 0 -71212.2 3.01852e+06 0 -68250.7 3.02876e+06 0 -65300.1 3.03859e+06 0 -62363.4 3.048e+06 0 -59443.6 3.057e+06 0 -90294.8 2.58797e+06 0 -89610 2.60767e+06 0 -88818 2.62717e+06 0 -87923.2 2.64646e+06 0 -86929.9 2.66552e+06 0 -85843 2.68432e+06 0 -84667 2.70284e+06 0 -83406.9 2.72109e+06 0 -82067.7 2.73903e+06 0 -80654.4 2.75666e+06 0 -79172.1 2.77397e+06 0 -77625.8 2.79093e+06 0 -76020.5 2.80755e+06 0 -74361.3 2.82381e+06 0 -72653.1 2.8397e+06 0 -70900.7 2.85521e+06 0 -69108.9 2.87035e+06 0 -67282.2 2.88509e+06 0 -65425.2 2.89945e+06 0 -63542.1 2.9134e+06 0 -61637 2.92696e+06 0 -59713.9 2.94011e+06 0 -57776.7 2.95285e+06 0 -55828.8 2.96519e+06 0 -53873.7 2.97712e+06 0 -51914.5 2.98864e+06 0 -49954.1 2.99975e+06 0 -47995.4 3.01044e+06 0 -46040.8 3.02074e+06 0 -44092.8 3.03062e+06 0 -42153.3 3.0401e+06 0 -40224.4 3.04917e+06 0 -45069.9 2.58416e+06 0 -44741.7 2.60367e+06 0 -44360.1 2.623e+06 0 -43927.2 2.64212e+06 0 -43445.1 2.66101e+06 0 -42916 2.67966e+06 0 -42342.3 2.69804e+06 0 -41726.5 2.71615e+06 0 -41070.9 2.73396e+06 0 -40378.1 2.75147e+06 0 -39650.6 2.76866e+06 0 -38890.8 2.78553e+06 0 -38101.3 2.80205e+06 0 -37284.6 2.81822e+06 0 -36443 2.83404e+06 0 -35579.1 2.84949e+06 0 -34695.2 2.86456e+06 0 -33793.5 2.87925e+06 0 -32876.4 2.89356e+06 0 -31945.8 2.90748e+06 0 -31004.1 2.92101e+06 0 -30053 2.93414e+06 0 -29094.5 2.94687e+06 0 -28130.4 2.9592e+06 0 -27162.4 2.97113e+06 0 -26192.1 2.98266e+06 0 -25221 2.99378e+06 0 -24250.5 3.0045e+06 0 -23281.9 3.01482e+06 0 -22316.3 3.02474e+06 0 -21354.8 3.03426e+06 0 -20398.5 3.04338e+06 0 0 2.58128e+06 0 0 2.60073e+06 0 0 2.61998e+06 0 0 2.63903e+06 0 0 2.65786e+06 0 0 2.67644e+06 0 0 2.69476e+06 0 0 2.71282e+06 0 0 2.73058e+06 0 0 2.74804e+06 0 0 2.76518e+06 0 0 2.782e+06 0 0 2.79848e+06 0 0 2.81462e+06 0 0 2.83039e+06 0 0 2.84581e+06 0 0 2.86085e+06 0 0 2.87552e+06 0 0 2.88981e+06 0 0 2.90371e+06 0 0 2.91722e+06 0 0 2.93033e+06 0 0 2.94306e+06 0 0 2.95538e+06 0 0 2.9673e+06 0 0 2.97883e+06 0 0 2.98996e+06 0 0 3.00068e+06 0 0 3.01102e+06 0 0 3.02095e+06 0 0 3.03049e+06 0 0 3.03963e+06 0 </DataArray> 
</PointData> 
<Points> 
<DataArray type="Float32" NumberOfComponents="3"> 