<?xml version="1.0"?> 
<VTKFile type="StructuredGrid" version="0.1"> 
<StructuredGrid WholeExtent="0 31 0 31 0 0"> 
<Piece Extent="0 31 0 31 0 0"> 
<PointData>
<DataArray type="Float32" Name="|E|" format="ascii" NumberOfComponents="3"> 
-2.06126e+06 0 0 -2.06127e+06 1553.23 0 -2.0613e+06 3106.53 0 -2.06134e+06 4659.95 0 -2.06141e+06 6213.53 0 -2.06149e+06 7767.31 0 -2.06159e+06 9321.34 0 -2.0617e+06 10875.7 0 -2.06184e+06 12430.3 0 -2.06199e+06 13985.2 0 -2.06216e+06 15540.4 0 -2.06235e+06 17096.2 0 -2.06255e+06 18652.6 0 -2.06278e+06 20209.7 0 -2.06302e+06 21767.8 0 -2.06328e+06 23326.8 0 -2.06355e+06 24886.5 0 -2.06384e+06 26446.9 0 -2.06415e+06 28007.7 0 -2.06448e+06 29568.7 0 -2.06483e+06 31129.6 0 -2.06519e+06 32690.5 0 -2.06557e+06 34251.2 0 -2.06597e+06 35811.7 0 -2.06638e+06 37372.1 0 -2.06682e+06 38932.5 0 -2.06727e+06 40493.2 0 -2.06774e+06 42054.5 0 -2.06823e+06 43616.8 0 -2.06874e+06 45178.9 0 -2.06927e+06 46732.1 0 -2.06982e+06 48245.3 0 -2.05996e+06 0 0 -2.05997e+06 1652.45 0 -2.06e+06 3304.99 0 -2.06005e+06 4957.66 0 -2.06012e+06 6610.51 0 -2.06021e+06 8263.6 0 -2.06032e+06 9916.95 0 -2.06045e+06 11570.6 0 -2.0606e+06 13224.6 0 -2.06077e+06 14879 0 -2.06095e+06 16533.9 0 -2.06116e+06 18189.4 0 -2.06139e+06 19845.6 0 -2.06164e+06 21502.6 0 -2.0619e+06 23160.5 0 -2.06219e+06 24819.1 0 -2.0625e+06 26478.4 0 -2.06282e+06 28138.1 0 -2.06316e+06 29798.2 0 -2.06353e+06 31458.4 0 -2.06391e+06 33118.7 0 -2.06431e+06 34779 0 -2.06473e+06 36439.2 0 -2.06518e+06 38099.6 0 -2.06564e+06 39760.2 0 -2.06612e+06 41421.1 0 -2.06663e+06 43082.5 0 -2.06715e+06 44744.2 0 -2.0677e+06 46405.9 0 -2.06827e+06 48067.6 0 -2.06886e+06 49733.1 0 -2.06948e+06 51420.9 0 -2.05865e+06 0 0 -2.05866e+06 1753.24 0 -2.05869e+06 3506.57 0 -2.05875e+06 5260.05 0 -2.05883e+06 7013.74 0 -2.05892e+06 8767.69 0 -2.05904e+06 10521.9 0 -2.05919e+06 12276.6 0 -2.05935e+06 14031.6 0 -2.05954e+06 15787.1 0 -2.05974e+06 17543.2 0 -2.05997e+06 19299.9 0 -2.06022e+06 21057.4 0 -2.0605e+06 22815.7 0 -2.06079e+06 24574.8 0 -2.0611e+06 26334.6 0 -2.06144e+06 28095 0 -2.0618e+06 29855.8 0 -2.06218e+06 31616.9 0 -2.06258e+06 33378.2 0 -2.063e+06 35139.6 0 -2.06345e+06 36901.3 0 -2.06391e+06 38663.2 0 -2.0644e+06 40425.6 0 -2.06492e+06 42188.4 0 -2.06545e+06 43951.9 0 -2.06601e+06 45716.1 0 -2.06659e+06 47481.5 0 -2.0672e+06 49249.1 0 -2.06782e+06 51021.5 0 -2.06847e+06 52800.6 0 -2.06914e+06 54577.2 0 -2.05732e+06 0 0 -2.05734e+06 1855.58 0 -2.05737e+06 3711.27 0 -2.05743e+06 5567.13 0 -2.05752e+06 7423.22 0 -2.05762e+06 9279.59 0 -2.05776e+06 11136.3 0 -2.05791e+06 12993.5 0 -2.05809e+06 14851.1 0 -2.0583e+06 16709.3 0 -2.05852e+06 18568.1 0 -2.05877e+06 20427.6 0 -2.05905e+06 22288 0 -2.05935e+06 24149.1 0 -2.05967e+06 26011 0 -2.06002e+06 27873.5 0 -2.06039e+06 29736.6 0 -2.06078e+06 31600.1 0 -2.0612e+06 33464 0 -2.06164e+06 35328.3 0 -2.0621e+06 37192.9 0 -2.06259e+06 39057.9 0 -2.0631e+06 40923.6 0 -2.06364e+06 42789.9 0 -2.06421e+06 44657.2 0 -2.0648e+06 46525.7 0 -2.06541e+06 48396 0 -2.06605e+06 50269.1 0 -2.06671e+06 52146.1 0 -2.0674e+06 54026.7 0 -2.06811e+06 55907.9 0 -2.06884e+06 57791.3 0 -2.05599e+06 0 0 -2.056e+06 1959.48 0 -2.05604e+06 3919.08 0 -2.0561e+06 5878.87 0 -2.0562e+06 7838.91 0 -2.05631e+06 9799.29 0 -2.05646e+06 11760.1 0 -2.05663e+06 13721.3 0 -2.05683e+06 15683.1 0 -2.05705e+06 17645.5 0 -2.0573e+06 19608.6 0 -2.05757e+06 21572.5 0 -2.05787e+06 23537.2 0 -2.0582e+06 25502.7 0 -2.05855e+06 27468.9 0 -2.05893e+06 29435.8 0 -2.05933e+06 31403.3 0 -2.05976e+06 33371.3 0 -2.06022e+06 35339.9 0 -2.0607e+06 37309 0 -2.06121e+06 39278.6 0 -2.06174e+06 41249.1 0 -2.06231e+06 43220.5 0 -2.0629e+06 45193.1 0 -2.06351e+06 47167.2 0 -2.06416e+06 49143.4 0 -2.06483e+06 51122.5 0 -2.06553e+06 53104.7 0 -2.06625e+06 55089.6 0 -2.067e+06 57076.2 0 -2.06777e+06 59064.6 0 -2.06857e+06 61054.8 0 -2.05464e+06 0 0 -2.05465e+06 2064.93 0 -2.05469e+06 4129.99 0 -2.05476e+06 6195.26 0 -2.05486e+06 8260.82 0 -2.05499e+06 10326.8 0 -2.05515e+06 12393.1 0 -2.05534e+06 14460 0 -2.05555e+06 16527.5 0 -2.05579e+06 18595.7 0 -2.05606e+06 20664.7 0 -2.05636e+06 22734.5 0 -2.05669e+06 24805.1 0 -2.05704e+06 26876.6 0 -2.05743e+06 28948.8 0 -2.05784e+06 31021.7 0 -2.05828e+06 33095.3 0 -2.05875e+06 35169.6 0 -2.05924e+06 37244.6 0 -2.05977e+06 39320.4 0 -2.06032e+06 41397.2 0 -2.06091e+06 43475 0 -2.06152e+06 45554.3 0 -2.06216e+06 47635.3 0 -2.06284e+06 49718.5 0 -2.06354e+06 51804.4 0 -2.06427e+06 53893.2 0 -2.06503e+06 55984.5 0 -2.06581e+06 58077.9 0 -2.06663e+06 60173.4 0 -2.06747e+06 62270.9 0 -2.06834e+06 64370.3 0 -2.05327e+06 0 0 -2.05329e+06 2171.92 0 -2.05334e+06 4343.99 0 -2.05341e+06 6516.3 0 -2.05352e+06 8688.93 0 -2.05366e+06 10862 0 -2.05383e+06 13035.5 0 -2.05403e+06 15209.6 0 -2.05426e+06 17384.4 0 -2.05453e+06 19560 0 -2.05482e+06 21736.3 0 -2.05514e+06 23913.6 0 -2.0555e+06 26091.7 0 -2.05588e+06 28270.7 0 -2.0563e+06 30450.6 0 -2.05675e+06 32631.2 0 -2.05722e+06 34812.7 0 -2.05773e+06 36995.1 0 -2.05827e+06 39178.4 0 -2.05884e+06 41362.8 0 -2.05945e+06 43548.5 0 -2.06008e+06 45735.8 0 -2.06075e+06 47924.9 0 -2.06144e+06 50116.3 0 -2.06217e+06 52310.4 0 -2.06293e+06 54507.2 0 -2.06372e+06 56706.6 0 -2.06455e+06 58908.4 0 -2.0654e+06 61112.4 0 -2.06628e+06 63318.7 0 -2.0672e+06 65527.2 0 -2.06814e+06 67738.1 0 -2.0519e+06 0 0 -2.05192e+06 2280.46 0 -2.05197e+06 4561.08 0 -2.05205e+06 6841.97 0 -2.05217e+06 9123.21 0 -2.05232e+06 11404.9 0 -2.0525e+06 13687.2 0 -2.05272e+06 15970 0 -2.05297e+06 18253.7 0 -2.05325e+06 20538.1 0 -2.05357e+06 22823.5 0 -2.05392e+06 25109.8 0 -2.0543e+06 27397 0 -2.05472e+06 29685.2 0 -2.05517e+06 31974.4 0 -2.05565e+06 34264.5 0 -2.05617e+06 36555.6 0 -2.05672e+06 38847.8 0 -2.0573e+06 41141.3 0 -2.05792e+06 43436.2 0 -2.05857e+06 45732.8 0 -2.05926e+06 48031.3 0 -2.05998e+06 50332.2 0 -2.06074e+06 52635.8 0 -2.06152e+06 54942 0 -2.06235e+06 57251 0 -2.0632e+06 59562.6 0 -2.06409e+06 61876.7 0 -2.06501e+06 64193.3 0 -2.06596e+06 66512.3 0 -2.06695e+06 68833.9 0 -2.06797e+06 71158.2 0 -2.05051e+06 0 0 -2.05053e+06 2390.54 0 -2.05058e+06 4781.25 0 -2.05067e+06 7172.25 0 -2.0508e+06 9563.65 0 -2.05096e+06 11955.5 0 -2.05116e+06 14348.1 0 -2.0514e+06 16741.3 0 -2.05166e+06 19135.3 0 -2.05197e+06 21530.3 0 -2.05231e+06 23926.2 0 -2.05269e+06 26323.1 0 -2.0531e+06 28721 0 -2.05355e+06 31120.1 0 -2.05404e+06 33520.2 0 -2.05456e+06 35921.4 0 -2.05512e+06 38324 0 -2.05571e+06 40727.8 0 -2.05634e+06 43133.3 0 -2.05701e+06 45540.5 0 -2.05771e+06 47949.8 0 -2.05845e+06 50361.5 0 -2.05923e+06 52775.9 0 -2.06004e+06 55193 0 -2.06089e+06 57613.1 0 -2.06177e+06 60035.9 0 -2.06269e+06 62461.4 0 -2.06365e+06 64889.7 0 -2.06464e+06 67320.7 0 -2.06567e+06 69754.6 0 -2.06674e+06 72191.3 0 -2.06784e+06 74631.1 0 -2.04911e+06 0 0 -2.04913e+06 2502.15 0 -2.04919e+06 5004.48 0 -2.04929e+06 7507.14 0 -2.04942e+06 10010.2 0 -2.0496e+06 12513.9 0 -2.04981e+06 15018.2 0 -2.05006e+06 17523.3 0 -2.05035e+06 20029.3 0 -2.05068e+06 22536.3 0 -2.05105e+06 25044.3 0 -2.05145e+06 27553.4 0 -2.0519e+06 30063.7 0 -2.05238e+06 32575.3 0 -2.0529e+06 35088 0 -2.05346e+06 37602.2 0 -2.05406e+06 40117.8 0 -2.0547e+06 42635.1 0 -2.05538e+06 45154.4 0 -2.05609e+06 47675.7 0 -2.05685e+06 50199.6 0 -2.05765e+06 52726.1 0 -2.05848e+06 55255.5 0 -2.05935e+06 57787.9 0 -2.06027e+06 60323.3 0 -2.06122e+06 62861.7 0 -2.06221e+06 65403.1 0 -2.06324e+06 67947.4 0 -2.0643e+06 70494.9 0 -2.06541e+06 73045.6 0 -2.06656e+06 75599.5 0 -2.06774e+06 78157 0 -2.0477e+06 0 0 -2.04772e+06 2615.28 0 -2.04778e+06 5230.78 0 -2.04789e+06 7846.62 0 -2.04803e+06 10462.9 0 -2.04822e+06 13079.9 0 -2.04845e+06 15697.6 0 -2.04872e+06 18316.1 0 -2.04903e+06 20935.6 0 -2.04938e+06 23556.2 0 -2.04977e+06 26177.9 0 -2.05021e+06 28800.9 0 -2.05069e+06 31425.2 0 -2.0512e+06 34050.8 0 -2.05176e+06 36677.9 0 -2.05236e+06 39306.7 0 -2.05301e+06 41937.2 0 -2.05369e+06 44569.7 0 -2.05442e+06 47204.5 0 -2.05519e+06 49841.7 0 -2.056e+06 52481.8 0 -2.05685e+06 55124.8 0 -2.05774e+06 57770.9 0 -2.05868e+06 60420.3 0 -2.05966e+06 63072.8 0 -2.06068e+06 65728.6 0 -2.06174e+06 68387.7 0 -2.06284e+06 71050.1 0 -2.06399e+06 73716 0 -2.06517e+06 76385.6 0 -2.0664e+06 79058.8 0 -2.06767e+06 81736 0 -2.04628e+06 0 0 -2.0463e+06 2729.95 0 -2.04637e+06 5460.13 0 -2.04648e+06 8190.68 0 -2.04663e+06 10921.8 0 -2.04683e+06 13653.5 0 -2.04708e+06 16386.1 0 -2.04737e+06 19119.6 0 -2.0477e+06 21854.2 0 -2.04807e+06 24589.9 0 -2.04849e+06 27327 0 -2.04896e+06 30065.4 0 -2.04947e+06 32805.3 0 -2.05002e+06 35546.7 0 -2.05062e+06 38289.9 0 -2.05126e+06 41034.9 0 -2.05195e+06 43782 0 -2.05268e+06 46531.5 0 -2.05346e+06 49283.5 0 -2.05428e+06 52038.4 0 -2.05515e+06 54796.3 0 -2.05606e+06 57557.5 0 -2.05702e+06 60322.1 0 -2.05802e+06 63090.1 0 -2.05906e+06 65861.6 0 -2.06015e+06 68636.7 0 -2.06129e+06 71415.4 0 -2.06247e+06 74197.9 0 -2.06369e+06 76984.3 0 -2.06496e+06 79774.7 0 -2.06628e+06 82569.3 0 -2.06764e+06 85368.4 0 -2.04484e+06 0 0 -2.04486e+06 2846.13 0 -2.04494e+06 5692.52 0 -2.04506e+06 8539.32 0 -2.04522e+06 11386.7 0 -2.04543e+06 14234.8 0 -2.04569e+06 17083.8 0 -2.046e+06 19933.8 0 -2.04636e+06 22785.1 0 -2.04676e+06 25637.6 0 -2.04721e+06 28491.5 0 -2.0477e+06 31346.9 0 -2.04825e+06 34204 0 -2.04884e+06 37063 0 -2.04948e+06 39923.8 0 -2.05016e+06 42786.8 0 -2.0509e+06 45652.3 0 -2.05168e+06 48520.3 0 -2.05251e+06 51391.3 0 -2.05338e+06 54265.5 0 -2.05431e+06 57143.1 0 -2.05528e+06 60024.2 0 -2.0563e+06 62908.9 0 -2.05737e+06 65797.4 0 -2.05849e+06 68689.7 0 -2.05965e+06 71586 0 -2.06086e+06 74486.3 0 -2.06212e+06 77390.8 0 -2.06342e+06 80299.7 0 -2.06478e+06 83213.1 0 -2.06618e+06 86131.1 0 -2.06763e+06 89054.3 0 -2.04339e+06 0 0 -2.04342e+06 2963.83 0 -2.04349e+06 5927.94 0 -2.04362e+06 8892.51 0 -2.0438e+06 11857.7 0 -2.04402e+06 14823.7 0 -2.0443e+06 17790.7 0 -2.04463e+06 20758.8 0 -2.04501e+06 23728.2 0 -2.04543e+06 26699 0 -2.04591e+06 29671.4 0 -2.04644e+06 32645.5 0 -2.04702e+06 35621.5 0 -2.04765e+06 38599.5 0 -2.04833e+06 41579.7 0 -2.04906e+06 44562.4 0 -2.04984e+06 47547.9 0 -2.05067e+06 50536.3 0 -2.05156e+06 53528 0 -2.05249e+06 56523.2 0 -2.05347e+06 59522 0 -2.05451e+06 62524.8 0 -2.0556e+06 65531.5 0 -2.05673e+06 68542.2 0 -2.05792e+06 71557.2 0 -2.05916e+06 74576.6 0 -2.06045e+06 77600.4 0 -2.06179e+06 80629 0 -2.06318e+06 83662.4 0 -2.06462e+06 86700.9 0 -2.06611e+06 89744.6 0 -2.06766e+06 92793.9 0 -2.04193e+06 0 0 -2.04196e+06 3083.05 0 -2.04204e+06 6166.4 0 -2.04218e+06 9250.24 0 -2.04236e+06 12334.8 0 -2.0426e+06 15420.2 0 -2.0429e+06 18506.7 0 -2.04325e+06 21594.4 0 -2.04365e+06 24683.5 0 -2.0441e+06 27774.2 0 -2.04461e+06 30866.7 0 -2.04517e+06 33961.1 0 -2.04579e+06 37057.5 0 -2.04645e+06 40156.3 0 -2.04718e+06 43257.5 0 -2.04795e+06 46361.6 0 -2.04878e+06 49468.7 0 -2.04967e+06 52579.2 0 -2.05061e+06 55693.3 0 -2.0516e+06 58811.2 0 -2.05264e+06 61933.1 0 -2.05374e+06 65059.2 0 -2.0549e+06 68189.6 0 -2.05611e+06 71324.6 0 -2.05737e+06 74464.1 0 -2.05868e+06 77608.5 0 -2.06005e+06 80757.9 0 -2.06148e+06 83912.5 0 -2.06296e+06 87072.5 0 -2.06449e+06 90238.2 0 -2.06608e+06 93409.7 0 -2.06772e+06 96587.4 0 -2.04046e+06 0 0 -2.04049e+06 3203.77 0 -2.04058e+06 6407.87 0 -2.04072e+06 9612.51 0 -2.04092e+06 12817.9 0 -2.04117e+06 16024.2 0 -2.04148e+06 19231.8 0 -2.04185e+06 22440.6 0 -2.04228e+06 25651.1 0 -2.04276e+06 28863.2 0 -2.0433e+06 32077.3 0 -2.04389e+06 35293.6 0 -2.04455e+06 38512.1 0 -2.04526e+06 41733.3 0 -2.04602e+06 44957.3 0 -2.04685e+06 48184.3 0 -2.04773e+06 51414.8 0 -2.04866e+06 54649 0 -2.04966e+06 57887.2 0 -2.05071e+06 61129.5 0 -2.05182e+06 64376.2 0 -2.05299e+06 67627.5 0 -2.05421e+06 70883.5 0 -2.05549e+06 74144.5 0 -2.05683e+06 77410.5 0 -2.05822e+06 80681.9 0 -2.05968e+06 83958.8 0 -2.06119e+06 87241.5 0 -2.06276e+06 90530.2 0 -2.06438e+06 93825.2 0 -2.06607e+06 97126.6 0 -2.06781e+06 100435 0 -2.03898e+06 0 0 -2.03901e+06 3326 0 -2.0391e+06 6652.36 0 -2.03925e+06 9979.29 0 -2.03946e+06 13307.1 0 -2.03973e+06 16635.9 0 -2.04006e+06 19965.9 0 -2.04045e+06 23297.5 0 -2.0409e+06 26630.8 0 -2.04141e+06 29966 0 -2.04198e+06 33303.3 0 -2.04261e+06 36643 0 -2.0433e+06 39985.3 0 -2.04405e+06 43330.5 0 -2.04486e+06 46678.8 0 -2.04574e+06 50030.6 0 -2.04667e+06 53386.1 0 -2.04766e+06 56745.7 0 -2.04871e+06 60109.6 0 -2.04983e+06 63478.1 0 -2.051e+06 66851.4 0 -2.05224e+06 70229.7 0 -2.05353e+06 73613.1 0 -2.05489e+06 77002 0 -2.0563e+06 80396.4 0 -2.05778e+06 83796.8 0 -2.05932e+06 87203.3 0 -2.06092e+06 90616.1 0 -2.06258e+06 94035.6 0 -2.0643e+06 97462 0 -2.06609e+06 100895 0 -2.06793e+06 104337 0 -2.03748e+06 0 0 -2.03751e+06 3449.73 0 -2.03761e+06 6899.84 0 -2.03777e+06 10350.6 0 -2.03799e+06 13802.2 0 -2.03828e+06 17255 0 -2.03862e+06 20709.2 0 -2.03904e+06 24165 0 -2.03951e+06 27622.7 0 -2.04005e+06 31082.4 0 -2.04066e+06 34544.6 0 -2.04132e+06 38009.3 0 -2.04205e+06 41477 0 -2.04284e+06 44947.8 0 -2.0437e+06 48422.1 0 -2.04462e+06 51900.2 0 -2.04561e+06 55382.5 0 -2.04666e+06 58869.2 0 -2.04777e+06 62360.6 0 -2.04895e+06 65857 0 -2.05019e+06 69358.6 0 -2.05149e+06 72865.7 0 -2.05286e+06 76378.4 0 -2.0543e+06 79897.1 0 -2.05579e+06 83421.9 0 -2.05735e+06 86953.2 0 -2.05898e+06 90491.2 0 -2.06067e+06 94036.3 0 -2.06243e+06 97588.7 0 -2.06425e+06 101149 0 -2.06613e+06 104716 0 -2.06808e+06 108293 0 -2.03597e+06 0 0 -2.03601e+06 3574.96 0 -2.03611e+06 7150.32 0 -2.03627e+06 10726.4 0 -2.03651e+06 14303.4 0 -2.03681e+06 17881.7 0 -2.03718e+06 21461.4 0 -2.03761e+06 25043 0 -2.03812e+06 28626.6 0 -2.03869e+06 32212.6 0 -2.03932e+06 35801.1 0 -2.04002e+06 39392.5 0 -2.04079e+06 42987.1 0 -2.04163e+06 46585.2 0 -2.04254e+06 50187.1 0 -2.04351e+06 53793.3 0 -2.04455e+06 57404 0 -2.04566e+06 61019.5 0 -2.04683e+06 64640.1 0 -2.04807e+06 68266.1 0 -2.04938e+06 71897.9 0 -2.05076e+06 75535.5 0 -2.0522e+06 79179.4 0 -2.05371e+06 82829.8 0 -2.05529e+06 86486.9 0 -2.05694e+06 90151.2 0 -2.05866e+06 93822.8 0 -2.06044e+06 97502.2 0 -2.0623e+06 101190 0 -2.06422e+06 104885 0 -2.06621e+06 108590 0 -2.06827e+06 112303 0 -2.03445e+06 0 0 -2.03449e+06 3701.67 0 -2.03459e+06 7403.79 0 -2.03477e+06 11106.6 0 -2.03502e+06 14810.6 0 -2.03534e+06 18515.8 0 -2.03572e+06 22222.7 0 -2.03618e+06 25931.6 0 -2.03671e+06 29642.7 0 -2.03731e+06 33356.3 0 -2.03798e+06 37072.8 0 -2.03872e+06 40792.5 0 -2.03953e+06 44515.6 0 -2.04041e+06 48242.6 0 -2.04137e+06 51973.9 0 -2.04239e+06 55709.7 0 -2.04349e+06 59450.4 0 -2.04465e+06 63196.4 0 -2.04589e+06 66948 0 -2.0472e+06 70705.5 0 -2.04858e+06 74469.1 0 -2.05003e+06 78239.3 0 -2.05155e+06 82016.2 0 -2.05314e+06 85800.2 0 -2.05481e+06 89591.6 0 -2.05655e+06 93390.8 0 -2.05835e+06 97198.1 0 -2.06023e+06 101014 0 -2.06219e+06 104838 0 -2.06421e+06 108672 0 -2.06631e+06 112515 0 -2.06848e+06 116369 0 -2.03292e+06 0 0 -2.03296e+06 3829.88 0 -2.03307e+06 7660.23 0 -2.03326e+06 11491.4 0 -2.03352e+06 15323.7 0 -2.03385e+06 19157.4 0 -2.03426e+06 22993 0 -2.03474e+06 26830.7 0 -2.0353e+06 30670.8 0 -2.03593e+06 34513.7 0 -2.03663e+06 38359.7 0 -2.03741e+06 42209.2 0 -2.03826e+06 46062.5 0 -2.03919e+06 49920.1 0 -2.0402e+06 53782.2 0 -2.04127e+06 57649.4 0 -2.04242e+06 61521.9 0 -2.04365e+06 65400.1 0 -2.04495e+06 69284.3 0 -2.04633e+06 73175 0 -2.04778e+06 77072.4 0 -2.04931e+06 80976.8 0 -2.05091e+06 84888.7 0 -2.05258e+06 88808.3 0 -2.05434e+06 92736 0 -2.05616e+06 96672.1 0 -2.05807e+06 100617 0 -2.06005e+06 104571 0 -2.0621e+06 108535 0 -2.06423e+06 112509 0 -2.06644e+06 116494 0 -2.06872e+06 120489 0 -2.03137e+06 0 0 -2.03141e+06 3959.56 0 -2.03153e+06 7919.63 0 -2.03173e+06 11880.6 0 -2.032e+06 15842.8 0 -2.03235e+06 19806.5 0 -2.03278e+06 23772.2 0 -2.03329e+06 27740.3 0 -2.03387e+06 31711 0 -2.03453e+06 35684.7 0 -2.03528e+06 39661.8 0 -2.03609e+06 43642.7 0 -2.03699e+06 47627.8 0 -2.03797e+06 51617.4 0 -2.03902e+06 55612.2 0 -2.04015e+06 59612.3 0 -2.04136e+06 63618.2 0 -2.04265e+06 67630.4 0 -2.04402e+06 71649.1 0 -2.04546e+06 75674.7 0 -2.04699e+06 79707.7 0 -2.04859e+06 83748.3 0 -2.05027e+06 87796.9 0 -2.05204e+06 91854 0 -2.05388e+06 95920 0 -2.0558e+06 99995.2 0 -2.0578e+06 104080 0 -2.05988e+06 108175 0 -2.06204e+06 112280 0 -2.06428e+06 116397 0 -2.0666e+06 120524 0 -2.069e+06 124664 0 -2.02982e+06 0 0 -2.02986e+06 4090.73 0 -2.02998e+06 8182 0 -2.03019e+06 12274.2 0 -2.03048e+06 16367.8 0 -2.03084e+06 20463 0 -2.03129e+06 24560.4 0 -2.03183e+06 28660.3 0 -2.03244e+06 32763.1 0 -2.03313e+06 36869.1 0 -2.03391e+06 40978.9 0 -2.03477e+06 45092.8 0 -2.03571e+06 49211.3 0 -2.03673e+06 53334.7 0 -2.03784e+06 57463.6 0 -2.03903e+06 61598.4 0 -2.0403e+06 65739.5 0 -2.04165e+06 69887.3 0 -2.04308e+06 74042.2 0 -2.0446e+06 78204.6 0 -2.0462e+06 82374.9 0 -2.04788e+06 86553.6 0 -2.04965e+06 90741 0 -2.0515e+06 94937.6 0 -2.05343e+06 99143.7 0 -2.05544e+06 103360 0 -2.05754e+06 107587 0 -2.05973e+06 111824 0 -2.06199e+06 116074 0 -2.06434e+06 120335 0 -2.06678e+06 124608 0 -2.0693e+06 128895 0 -2.02825e+06 0 0 -2.02829e+06 4223.36 0 -2.02842e+06 8447.31 0 -2.02864e+06 12672.3 0 -2.02894e+06 16898.7 0 -2.02933e+06 21126.9 0 -2.0298e+06 25357.5 0 -2.03035e+06 29590.8 0 -2.031e+06 33827.2 0 -2.03172e+06 38067.1 0 -2.03254e+06 42311.1 0 -2.03344e+06 46559.6 0 -2.03443e+06 50813 0 -2.0355e+06 55071.9 0 -2.03666e+06 59336.6 0 -2.0379e+06 63607.7 0 -2.03923e+06 67885.6 0 -2.04065e+06 72170.7 0 -2.04215e+06 76463.6 0 -2.04374e+06 80764.6 0 -2.04542e+06 85074.1 0 -2.04718e+06 89392.7 0 -2.04903e+06 93720.8 0 -2.05097e+06 98058.8 0 -2.05299e+06 102407 0 -2.05511e+06 106767 0 -2.05731e+06 111137 0 -2.0596e+06 115520 0 -2.06197e+06 119915 0 -2.06444e+06 124323 0 -2.06699e+06 128745 0 -2.06963e+06 133180 0 -2.02667e+06 0 0 -2.02672e+06 4357.47 0 -2.02685e+06 8715.57 0 -2.02708e+06 13074.8 0 -2.02739e+06 17435.5 0 -2.0278e+06 21798.2 0 -2.02829e+06 26163.5 0 -2.02887e+06 30531.6 0 -2.02954e+06 34903.2 0 -2.03031e+06 39278.6 0 -2.03116e+06 43658.3 0 -2.0321e+06 48043 0 -2.03313e+06 52433 0 -2.03426e+06 56828.8 0 -2.03547e+06 61231 0 -2.03677e+06 65640.1 0 -2.03816e+06 70056.5 0 -2.03965e+06 74480.8 0 -2.04122e+06 78913.3 0 -2.04288e+06 83354.7 0 -2.04464e+06 87805.3 0 -2.04649e+06 92265.7 0 -2.04842e+06 96736.4 0 -2.05045e+06 101218 0 -2.05257e+06 105711 0 -2.05478e+06 110215 0 -2.05709e+06 114732 0 -2.05948e+06 119262 0 -2.06197e+06 123805 0 -2.06455e+06 128363 0 -2.06722e+06 132934 0 -2.06999e+06 137522 0 -2.02508e+06 0 0 -2.02513e+06 4493.04 0 -2.02527e+06 8986.75 0 -2.0255e+06 13481.6 0 -2.02583e+06 17978.2 0 -2.02625e+06 22476.9 0 -2.02677e+06 26978.3 0 -2.02738e+06 31482.8 0 -2.02808e+06 35991 0 -2.02888e+06 40503.4 0 -2.02977e+06 45020.6 0 -2.03076e+06 49542.9 0 -2.03184e+06 54071 0 -2.03301e+06 58605.5 0 -2.03428e+06 63146.8 0 -2.03564e+06 67695.6 0 -2.03709e+06 72252.2 0 -2.03865e+06 76817.3 0 -2.04029e+06 81391.4 0 -2.04203e+06 85974.9 0 -2.04387e+06 90568.4 0 -2.0458e+06 95172.6 0 -2.04782e+06 99787.8 0 -2.04994e+06 104415 0 -2.05216e+06 109054 0 -2.05447e+06 113706 0 -2.05688e+06 118371 0 -2.05939e+06 123050 0 -2.06199e+06 127744 0 -2.06469e+06 132453 0 -2.06749e+06 137178 0 -2.07038e+06 141919 0 -2.02348e+06 0 0 -2.02353e+06 4630.07 0 -2.02367e+06 9260.85 0 -2.02392e+06 13892.9 0 -2.02426e+06 18526.7 0 -2.0247e+06 23162.9 0 -2.02524e+06 27801.9 0 -2.02588e+06 32444.4 0 -2.02661e+06 37090.8 0 -2.02745e+06 41741.7 0 -2.02838e+06 46397.7 0 -2.0294e+06 51059.3 0 -2.03053e+06 55727.2 0 -2.03176e+06 60401.9 0 -2.03308e+06 65084 0 -2.0345e+06 69774.1 0 -2.03602e+06 74472.6 0 -2.03764e+06 79180.3 0 -2.03936e+06 83897.6 0 -2.04118e+06 88625.2 0 -2.0431e+06 93363.5 0 -2.04511e+06 98113.2 0 -2.04723e+06 102875 0 -2.04945e+06 107649 0 -2.05176e+06 112437 0 -2.05418e+06 117238 0 -2.0567e+06 122054 0 -2.05931e+06 126885 0 -2.06203e+06 131731 0 -2.06485e+06 136594 0 -2.06777e+06 141474 0 -2.0708e+06 146372 0 -2.02186e+06 0 0 -2.02191e+06 4768.55 0 -2.02207e+06 9537.86 0 -2.02232e+06 14308.5 0 -2.02268e+06 19081.1 0 -2.02314e+06 23856.2 0 -2.0237e+06 28634.4 0 -2.02437e+06 33416.2 0 -2.02513e+06 38202.3 0 -2.026e+06 42993.3 0 -2.02697e+06 47789.7 0 -2.02805e+06 52592.3 0 -2.02922e+06 57401.5 0 -2.0305e+06 62218 0 -2.03188e+06 67042.5 0 -2.03337e+06 71875.6 0 -2.03495e+06 76717.8 0 -2.03664e+06 81569.8 0 -2.03844e+06 86432.2 0 -2.04033e+06 91305.5 0 -2.04233e+06 96190.5 0 -2.04444e+06 101088 0 -2.04665e+06 105998 0 -2.04896e+06 110922 0 -2.05138e+06 115860 0 -2.0539e+06 120812 0 -2.05652e+06 125781 0 -2.05926e+06 130766 0 -2.06209e+06 135767 0 -2.06504e+06 140786 0 -2.06808e+06 145824 0 -2.07124e+06 150881 0 -2.02023e+06 0 0 -2.02029e+06 4908.48 0 -2.02045e+06 9817.78 0 -2.02072e+06 14728.5 0 -2.02109e+06 19641.3 0 -2.02157e+06 24556.8 0 -2.02215e+06 29475.6 0 -2.02285e+06 34398.4 0 -2.02364e+06 39325.7 0 -2.02455e+06 44258.2 0 -2.02556e+06 49196.6 0 -2.02668e+06 54141.6 0 -2.02791e+06 59093.7 0 -2.02924e+06 64053.8 0 -2.03068e+06 69022.3 0 -2.03223e+06 74000 0 -2.03388e+06 78987.6 0 -2.03564e+06 83985.7 0 -2.03751e+06 88994.9 0 -2.03949e+06 94015.9 0 -2.04157e+06 99049.4 0 -2.04377e+06 104096 0 -2.04607e+06 109157 0 -2.04848e+06 114232 0 -2.051e+06 119322 0 -2.05363e+06 124429 0 -2.05637e+06 129552 0 -2.05922e+06 134693 0 -2.06217e+06 139852 0 -2.06524e+06 145030 0 -2.06842e+06 150228 0 -2.07171e+06 155447 0 -2.01859e+06 0 0 -2.01865e+06 5049.85 0 -2.01882e+06 10100.6 0 -2.0191e+06 15152.9 0 -2.01948e+06 20207.3 0 -2.01998e+06 25264.7 0 -2.02059e+06 30325.6 0 -2.02131e+06 35390.7 0 -2.02215e+06 40460.8 0 -2.02309e+06 45536.4 0 -2.02414e+06 50618.4 0 -2.02531e+06 55707.3 0 -2.02658e+06 60804 0 -2.02797e+06 65909.1 0 -2.02947e+06 71023.3 0 -2.03108e+06 76147.4 0 -2.0328e+06 81282.1 0 -2.03464e+06 86427.9 0 -2.03659e+06 91585.8 0 -2.03865e+06 96756.3 0 -2.04082e+06 101940 0 -2.0431e+06 107138 0 -2.0455e+06 112351 0 -2.04801e+06 117580 0 -2.05064e+06 122825 0 -2.05337e+06 128088 0 -2.05623e+06 133368 0 -2.05919e+06 138667 0 -2.06228e+06 143986 0 -2.06547e+06 149325 0 -2.06878e+06 154686 0 -2.07221e+06 160069 0 -2.01694e+06 0 0 -2.017e+06 5192.67 0 -2.01718e+06 10386.3 0 -2.01747e+06 15581.5 0 -2.01787e+06 20779.1 0 -2.01839e+06 25979.8 0 -2.01902e+06 31184.3 0 -2.01977e+06 36393.3 0 -2.02064e+06 41607.6 0 -2.02162e+06 46827.8 0 -2.02272e+06 52054.8 0 -2.02393e+06 57289.4 0 -2.02526e+06 62532.2 0 -2.0267e+06 67784 0 -2.02826e+06 73045.6 0 -2.02994e+06 78317.7 0 -2.03173e+06 83601.1 0 -2.03364e+06 88896.6 0 -2.03566e+06 94204.8 0 -2.03781e+06 99526.7 0 -2.04007e+06 104863 0 -2.04244e+06 110214 0 -2.04494e+06 115582 0 -2.04755e+06 120966 0 -2.05028e+06 126368 0 -2.05313e+06 131788 0 -2.0561e+06 137228 0 -2.05919e+06 142688 0 -2.0624e+06 148169 0 -2.06572e+06 153672 0 -2.06917e+06 159198 0 -2.07274e+06 164747 0 -2.01528e+06 0 0 -2.01534e+06 5336.92 0 -2.01552e+06 10674.8 0 -2.01582e+06 16014.5 0 -2.01624e+06 21356.7 0 -2.01678e+06 26702.1 0 -2.01744e+06 32051.7 0 -2.01822e+06 37406 0 -2.01912e+06 42766 0 -2.02014e+06 48132.4 0 -2.02128e+06 53506.1 0 -2.02254e+06 58887.7 0 -2.02392e+06 64278.2 0 -2.02542e+06 69678.4 0 -2.02704e+06 75088.9 0 -2.02879e+06 80510.8 0 -2.03065e+06 85944.7 0 -2.03263e+06 91391.5 0 -2.03474e+06 96852 0 -2.03697e+06 102327 0 -2.03932e+06 107818 0 -2.04179e+06 113324 0 -2.04438e+06 118848 0 -2.0471e+06 124390 0 -2.04994e+06 129951 0 -2.0529e+06 135531 0 -2.05599e+06 141133 0 -2.0592e+06 146756 0 -2.06254e+06 152401 0 -2.066e+06 158070 0 -2.06958e+06 163764 0 -2.07329e+06 169483 0 </DataArray> 
</PointData> 
<Points> 
<DataArray type="Float32" NumberOfComponents="3"> 