<?xml version="1.0"?> 
<VTKFile type="StructuredGrid" version="0.1"> 
<StructuredGrid WholeExtent="0 31 0 31 0 0"> 
<Piece Extent="0 31 0 31 0 0"> 
<PointData>
<DataArray type="Float32" Name="|E|" format="ascii" NumberOfComponents="3"> 
-847291 0 0 -846809 31162.3 0 -846460 62337.5 0 -846244 93533.6 0 -846160 124759 0 -846207 156021 0 -846384 187328 0 -846688 218689 0 -847118 250111 0 -847673 281602 0 -848350 313172 0 -849147 344829 0 -850060 376580 0 -851088 408436 0 -852227 440404 0 -853474 472495 0 -854826 504717 0 -856277 537081 0 -857825 569596 0 -859466 602273 0 -861194 635123 0 -863004 668158 0 -864892 701390 0 -866851 734832 0 -868877 768497 0 -870962 802402 0 -873099 836562 0 -875283 870995 0 -877504 905720 0 -879755 940758 0 -882027 976133 0 -884310 1.01187e+06 0 -820773 0 0 -820305 31777.8 0 -819968 63568.4 0 -819761 95380 0 -819684 127221 0 -819735 159099 0 -819912 191024 0 -820214 223002 0 -820640 255044 0 -821186 287156 0 -821851 319349 0 -822631 351629 0 -823525 384008 0 -824529 416492 0 -825639 449093 0 -826852 481818 0 -828163 514678 0 -829569 547684 0 -831064 580844 0 -832644 614172 0 -834304 647677 0 -836037 681372 0 -837837 715270 0 -839698 749385 0 -841612 783731 0 -843571 818324 0 -845568 853181 0 -847593 888321 0 -849637 923765 0 -851687 959535 0 -853734 995656 0 -855762 1.03216e+06 0 -794162 0 0 -793709 32391 0 -793384 64794.7 0 -793186 97219.5 0 -793115 129674 0 -793168 162166 0 -793346 194705 0 -793644 227300 0 -794063 259958 0 -794599 292688 0 -795250 325500 0 -796012 358403 0 -796883 391404 0 -797860 424514 0 -798937 457743 0 -800112 491099 0 -801379 524593 0 -802734 558236 0 -804172 592037 0 -805685 626009 0 -807269 660164 0 -808917 694513 0 -810621 729070 0 -812373 763850 0 -814164 798867 0 -815986 834139 0 -817828 869683 0 -819678 905519 0 -821523 941668 0 -823351 978155 0 -825147 1.01501e+06 0 -826891 1.05225e+06 0 -767464 0 0 -767026 33001.8 0 -766712 66016.1 0 -766523 99051.6 0 -766457 132117 0 -766513 165221 0 -766689 198372 0 -766984 231579 0 -767394 264851 0 -767918 298197 0 -768553 331626 0 -769295 365146 0 -770141 398767 0 -771087 432500 0 -772129 466352 0 -773262 500335 0 -774481 534458 0 -775781 568733 0 -777154 603170 0 -778596 637780 0 -780098 672577 0 -781653 707573 0 -783252 742782 0 -784886 778217 0 -786544 813896 0 -788215 849836 0 -789887 886054 0 -791546 922571 0 -793175 959411 0 -794759 996597 0 -796278 1.03416e+06 0 -797709 1.07212e+06 0 -740683 0 0 -740260 33610 0 -739958 67232.4 0 -739777 100876 0 -739716 134550 0 -739774 168263 0 -739948 202023 0 -740237 235840 0 -740638 269723 0 -741148 303681 0 -741765 337723 0 -742485 371858 0 -743303 406096 0 -744216 440446 0 -745220 474918 0 -746307 509523 0 -747474 544270 0 -748714 579171 0 -750020 614238 0 -751384 649480 0 -752798 684912 0 -754253 720547 0 -755740 756397 0 -757246 792479 0 -758761 828808 0 -760270 865402 0 -761758 902280 0 -763210 939462 0 -764606 976973 0 -765924 1.01484e+06 0 -767143 1.05308e+06 0 -768233 1.09174e+06 0 -713825 0 0 -713416 34215.5 0 -713126 68443.4 0 -712953 102692 0 -712897 136972 0 -712955 171291 0 -713127 205658 0 -713409 240082 0 -713799 274573 0 -714294 309139 0 -714892 343791 0 -715587 378537 0 -716376 413387 0 -717253 448351 0 -718215 483438 0 -719255 518660 0 -720366 554026 0 -721542 589548 0 -722775 625237 0 -724057 661105 0 -725377 697164 0 -726726 733427 0 -728093 769910 0 -729464 806626 0 -730825 843592 0 -732161 880827 0 -733454 918348 0 -734684 956177 0 -735829 994337 0 -736864 1.03285e+06 0 -737760 1.07176e+06 0 -738482 1.11107e+06 0 -686893 0 0 -686499 34818.3 0 -686220 69648.8 0 -686055 104501 0 -686003 139383 0 -686062 174305 0 -686230 209275 0 -686504 244303 0 -686883 279399 0 -687362 314571 0 -687938 349828 0 -688607 385182 0 -689364 420640 0 -690204 456213 0 -691122 491911 0 -692111 527745 0 -693163 563724 0 -694272 599860 0 -695428 636164 0 -696623 672649 0 -697845 709326 0 -699082 746210 0 -700322 783313 0 -701550 820651 0 -702750 858241 0 -703903 896099 0 -704989 934245 0 -705985 972699 0 -706865 1.01148e+06 0 -707598 1.05063e+06 0 -708151 1.09015e+06 0 -708482 1.13009e+06 0 -659891 0 0 -659512 35418.2 0 -659245 70848.5 0 -659088 106300 0 -659039 141782 0 -659098 177304 0 -659261 212875 0 -659527 248504 0 -659893 284201 0 -660355 319974 0 -660908 355835 0 -661549 391791 0 -662273 427853 0 -663074 464031 0 -663946 500335 0 -664881 536774 0 -665872 573360 0 -666911 610104 0 -667987 647017 0 -669090 684110 0 -670209 721396 0 -671330 758889 0 -672438 796601 0 -673517 834548 0 -674548 872745 0 -675510 911209 0 -676380 949959 0 -677131 989015 0 -677732 1.0284e+06 0 -678149 1.06813e+06 0 -678342 1.10825e+06 0 -678263 1.14877e+06 0 -632824 0 0 -632461 36015.2 0 -632205 72042.4 0 -632055 108091 0 -632010 144170 0 -632068 180288 0 -632227 216457 0 -632483 252683 0 -632835 288978 0 -633278 325350 0 -633808 361809 0 -634420 398364 0 -635109 435026 0 -635869 471804 0 -636692 508707 0 -637572 545748 0 -638500 582934 0 -639465 620279 0 -640459 657792 0 -641468 695485 0 -642480 733370 0 -643480 771460 0 -644452 809768 0 -645376 848309 0 -646233 887097 0 -646997 926148 0 -647643 965481 0 -648140 1.00511e+06 0 -648453 1.04507e+06 0 -648542 1.08536e+06 0 -648362 1.12602e+06 0 -647857 1.16707e+06 0 -605697 0 0 -605348 36609.3 0 -605104 73230.3 0 -604961 109872 0 -604919 146545 0 -604976 183258 0 -605129 220020 0 -605376 256841 0 -605713 293730 0 -606137 330696 0 -606642 367750 0 -607224 404900 0 -607877 442157 0 -608594 479530 0 -609368 517028 0 -610191 554663 0 -611053 592444 0 -611944 630382 0 -612852 668487 0 -613765 706771 0 -614668 745244 0 -615545 783921 0 -616376 822811 0 -617143 861930 0 -617820 901292 0 -618383 940910 0 -618799 980801 0 -619036 1.02098e+06 0 -619054 1.06147e+06 0 -618807 1.10229e+06 0 -618245 1.14345e+06 0 -617303 1.18498e+06 0 -578512 0 0 -578179 37200.3 0 -577945 74412.2 0 -577810 111645 0 -577770 148909 0 -577826 186212 0 -577974 223565 0 -578210 260976 0 -578532 298456 0 -578936 336013 0 -579415 373658 0 -579966 411399 0 -580582 449246 0 -581256 487209 0 -581979 525297 0 -582743 563520 0 -583538 601888 0 -584353 640412 0 -585175 679101 0 -585990 717966 0 -586782 757017 0 -587533 796267 0 -588224 835727 0 -588830 875408 0 -589326 915324 0 -589683 955487 0 -589868 995911 0 -589842 1.03661e+06 0 -589561 1.0776e+06 0 -588975 1.1189e+06 0 -588027 1.16052e+06 0 -586645 1.20248e+06 0 -551273 0 0 -550956 37788.3 0 -550733 75587.9 0 -550605 113409 0 -550568 151260 0 -550622 189150 0 -550764 227091 0 -550989 265090 0 -551296 303156 0 -551678 341301 0 -552132 379532 0 -552651 417860 0 -553229 456292 0 -553858 494840 0 -554530 533512 0 -555236 572318 0 -555963 611267 0 -556701 650369 0 -557436 689633 0 -558152 729069 0 -558833 768688 0 -559458 808498 0 -560006 848512 0 -560452 888739 0 -560767 929190 0 -560919 969875 0 -560871 1.01081e+06 0 -560582 1.052e+06 0 -560003 1.09346e+06 0 -559079 1.13519e+06 0 -557747 1.17722e+06 0 -555929 1.21955e+06 0 -523985 0 0 -523683 38373.2 0 -523472 76757.6 0 -523350 115163 0 -523316 153598 0 -523368 192073 0 -523503 230598 0 -523718 269180 0 -524008 307831 0 -524370 346559 0 -524797 385373 0 -525284 424282 0 -525824 463296 0 -526408 502424 0 -527028 541675 0 -527674 581057 0 -528334 620579 0 -528995 660252 0 -529643 700082 0 -530261 740080 0 -530831 780254 0 -531331 820613 0 -531737 861166 0 -532024 901921 0 -532159 942888 0 -532108 984073 0 -531831 1.02549e+06 0 -531283 1.06713e+06 0 -530411 1.10902e+06 0 -529155 1.15116e+06 0 -527448 1.19354e+06 0 -525205 1.23618e+06 0 -496651 0 0 -496365 38955 0 -496165 77921 0 -496050 116908 0 -496018 155924 0 -496068 194981 0 -496196 234086 0 -496399 273249 0 -496673 312480 0 -497013 351787 0 -497414 391180 0 -497869 430667 0 -498370 470258 0 -498910 509961 0 -499478 549784 0 -500065 589736 0 -500658 629826 0 -501243 670061 0 -501804 710450 0 -502325 751000 0 -502785 791718 0 -503162 832612 0 -503430 873689 0 -503561 914956 0 -503520 956417 0 -503272 998079 0 -502772 1.03995e+06 0 -501973 1.08202e+06 0 -500817 1.1243e+06 0 -499241 1.16679e+06 0 -497173 1.20948e+06 0 -494525 1.25236e+06 0 -469274 0 0 -469003 39533.7 0 -468814 79078.3 0 -468706 118643 0 -468677 158238 0 -468724 197872 0 -468846 237555 0 -469037 277295 0 -469295 317102 0 -469614 356986 0 -469987 396953 0 -470410 437014 0 -470873 477177 0 -471368 517450 0 -471885 557841 0 -472414 598358 0 -472940 639008 0 -473450 679798 0 -473928 720736 0 -474354 761828 0 -474707 803080 0 -474964 844497 0 -475098 886083 0 -475078 927843 0 -474869 969780 0 -474430 1.0119e+06 0 -473717 1.05419e+06 0 -472678 1.09666e+06 0 -471253 1.13929e+06 0 -469375 1.18209e+06 0 -466969 1.22504e+06 0 -463941 1.26812e+06 0 -441857 0 0 -441602 40109.3 0 -441425 80229.4 0 -441323 120370 0 -441296 160539 0 -441341 200748 0 -441456 241005 0 -441636 281319 0 -441877 321700 0 -442174 362155 0 -442521 402694 0 -442911 443324 0 -443337 484055 0 -443788 524893 0 -444255 565846 0 -444726 606921 0 -445188 648125 0 -445625 689464 0 -446021 730943 0 -446355 772568 0 -446606 814342 0 -446749 856268 0 -446755 898350 0 -446592 940587 0 -446222 982980 0 -445604 1.02552e+06 0 -444691 1.06822e+06 0 -443428 1.11105e+06 0 -441753 1.15401e+06 0 -439597 1.19708e+06 0 -436880 1.24023e+06 0 -433509 1.28344e+06 0 -414404 0 0 -414165 40681.9 0 -413998 81374.3 0 -413904 122087 0 -413879 162828 0 -413922 203609 0 -414029 244437 0 -414198 285321 0 -414422 326271 0 -414698 367295 0 -415019 408401 0 -415377 449598 0 -415766 490892 0 -416174 532291 0 -416592 573801 0 -417008 615429 0 -417407 657181 0 -417774 699061 0 -418092 741073 0 -418339 783221 0 -418493 825507 0 -418527 867931 0 -418413 910494 0 -418116 953192 0 -417597 996021 0 -416814 1.03897e+06 0 -415717 1.08204e+06 0 -414250 1.1252e+06 0 -412349 1.16845e+06 0 -409943 1.21175e+06 0 -406952 1.25506e+06 0 -403282 1.29835e+06 0 -386917 0 0 -386694 41251.4 0 -386539 82513.2 0 -386451 123795 0 -386428 165105 0 -386469 206454 0 -386569 247850 0 -386726 289302 0 -386935 330818 0 -387189 372407 0 -387484 414077 0 -387812 455835 0 -388164 497689 0 -388530 539644 0 -388901 581707 0 -389263 623883 0 -389603 666176 0 -389904 708591 0 -390147 751128 0 -390312 793791 0 -390375 836579 0 -390310 879489 0 -390085 922519 0 -389665 965663 0 -389012 1.00891e+06 0 -388080 1.05225e+06 0 -386819 1.09567e+06 0 -385172 1.13914e+06 0 -383074 1.18263e+06 0 -380453 1.22612e+06 0 -377230 1.26955e+06 0 -373312 1.31287e+06 0 -359400 0 0 -359192 41817.9 0 -359049 83646 0 -358968 125494 0 -358947 167370 0 -358985 209284 0 -359079 251245 0 -359224 293261 0 -359417 335340 0 -359651 377491 0 -359920 419722 0 -360217 462038 0 -360534 504447 0 -360861 546954 0 -361186 589565 0 -361498 632284 0 -361781 675114 0 -362019 718056 0 -362194 761113 0 -362283 804283 0 -362263 847563 0 -362107 890949 0 -361782 934434 0 -361254 978008 0 -360482 1.02166e+06 0 -359421 1.06536e+06 0 -358019 1.10911e+06 0 -356220 1.15285e+06 0 -353959 1.19657e+06 0 -351163 1.24022e+06 0 -347756 1.28373e+06 0 -343647 1.32703e+06 0 -331855 0 0 -331663 42381.4 0 -331531 84772.8 0 -331456 127183 0 -331438 169622 0 -331474 212099 0 -331561 254621 0 -331695 297198 0 -331872 339838 0 -332085 382548 0 -332330 425335 0 -332598 468206 0 -332881 511168 0 -333170 554223 0 -333452 597378 0 -333716 640635 0 -333946 683996 0 -334127 727462 0 -334238 771030 0 -334259 814700 0 -334165 858464 0 -333928 902316 0 -333517 946245 0 -332896 990236 0 -332024 1.03427e+06 0 -330856 1.07833e+06 0 -329340 1.12238e+06 0 -327420 1.16638e+06 0 -325032 1.21029e+06 0 -322107 1.25406e+06 0 -318569 1.29762e+06 0 -314334 1.34087e+06 0 -304284 0 0 -304109 42941.9 0 -303988 85893.6 0 -303920 128864 0 -303904 171863 0 -303938 214899 0 -304018 257980 0 -304141 301116 0 -304302 344312 0 -304496 387578 0 -304717 430919 0 -304957 474342 0 -305207 517852 0 -305459 561453 0 -305701 605148 0 -305921 648939 0 -306103 692827 0 -306231 736810 0 -306286 780886 0 -306247 825048 0 -306089 869289 0 -305784 913598 0 -305300 957961 0 -304603 1.00236e+06 0 -303652 1.04677e+06 0 -302401 1.09116e+06 0 -300801 1.13549e+06 0 -298795 1.17973e+06 0 -296323 1.22381e+06 0 -293317 1.26768e+06 0 -289706 1.31125e+06 0 -285412 1.35443e+06 0 -276691 0 0 -276532 43499.4 0 -276422 87008.5 0 -276361 130536 0 -276348 174092 0 -276379 217684 0 -276453 261322 0 -276565 305012 0 -276711 348763 0 -276885 392582 0 -277083 436475 0 -277296 480446 0 -277516 524502 0 -277734 568645 0 -277938 612877 0 -278117 657199 0 -278255 701610 0 -278336 746107 0 -278342 790684 0 -278252 835334 0 -278040 880046 0 -277680 924805 0 -277141 969593 0 -276387 1.01439e+06 0 -275379 1.05916e+06 0 -274073 1.10387e+06 0 -272421 1.14847e+06 0 -270368 1.19293e+06 0 -267855 1.23716e+06 0 -264821 1.28111e+06 0 -261199 1.32467e+06 0 -256920 1.36775e+06 0 -249078 0 0 -248934 44054 0 -248836 88117.5 0 -248782 132200 0 -248771 176309 0 -248800 220456 0 -248867 264646 0 -248968 308889 0 -249099 353192 0 -249255 397561 0 -249431 442002 0 -249618 486520 0 -249809 531119 0 -249995 575801 0 -250165 620567 0 -250306 665417 0 -250406 710348 0 -250447 755355 0 -250412 800431 0 -250280 845564 0 -250027 890741 0 -249626 935945 0 -249048 981151 0 -248258 1.02633e+06 0 -247218 1.07145e+06 0 -245887 1.11647e+06 0 -244216 1.16134e+06 0 -242157 1.206e+06 0 -239652 1.25037e+06 0 -236646 1.29438e+06 0 -233078 1.33792e+06 0 -228886 1.38088e+06 0 -221446 0 0 -221319 44605.6 0 -221232 89220.7 0 -221185 133854 0 -221176 178515 0 -221203 223212 0 -221263 267953 0 -221354 312746 0 -221470 357598 0 -221608 402515 0 -221762 447502 0 -221925 492565 0 -222089 537704 0 -222245 582924 0 -222383 628222 0 -222493 673598 0 -222559 719046 0 -222567 764561 0 -222499 810132 0 -222335 855745 0 -222053 901385 0 -221627 947028 0 -221029 992648 0 -220225 1.03821e+06 0 -219180 1.08368e+06 0 -217854 1.129e+06 0 -216203 1.17412e+06 0 -214179 1.21897e+06 0 -211733 1.26347e+06 0 -208813 1.30753e+06 0 -205365 1.35103e+06 0 -201339 1.39387e+06 0 -193799 0 0 -193687 45154.3 0 -193612 90318 0 -193571 135500 0 -193564 180710 0 -193589 225955 0 -193643 271244 0 -193723 316584 0 -193826 361983 0 -193946 407446 0 -194079 452977 0 -194218 498581 0 -194357 544260 0 -194486 590015 0 -194597 635844 0 -194677 681744 0 -194716 727708 0 -194697 773729 0 -194605 819794 0 -194421 865886 0 -194124 911985 0 -193689 958066 0 -193090 1.0041e+06 0 -192296 1.05004e+06 0 -191273 1.09585e+06 0 -189986 1.14147e+06 0 -188392 1.18683e+06 0 -186450 1.23187e+06 0 -184115 1.27649e+06 0 -181340 1.32059e+06 0 -178081 1.36406e+06 0 -174296 1.40677e+06 0 -166138 0 0 -166043 45700.1 0 -165978 91409.5 0 -165944 137137 0 -165939 182893 0 -165962 228683 0 -166009 274518 0 -166079 320404 0 -166167 366347 0 -166271 412353 0 -166384 458427 0 -166501 504571 0 -166615 550788 0 -166720 597077 0 -166806 643435 0 -166863 689859 0 -166879 736339 0 -166841 782865 0 -166734 829423 0 -166541 875993 0 -166243 922552 0 -165816 969070 0 -165236 1.01551e+06 0 -164476 1.06183e+06 0 -163506 1.10798e+06 0 -162291 1.15389e+06 0 -160795 1.1995e+06 0 -158982 1.24473e+06 0 -156811 1.28947e+06 0 -154243 1.33362e+06 0 -151242 1.37705e+06 0 -147775 1.41963e+06 0 -138466 0 0 -138386 46242.9 0 -138333 92495.3 0 -138306 138766 0 -138303 185064 0 -138322 231398 0 -138363 277776 0 -138422 324204 0 -138497 370690 0 -138583 417238 0 -138677 463853 0 -138773 510536 0 -138865 557290 0 -138948 604112 0 -139012 651000 0 -139049 697946 0 -139049 744942 0 -139000 791975 0 -138887 839027 0 -138697 886076 0 -138411 933096 0 -138010 980053 0 -137471 1.02691e+06 0 -136771 1.07361e+06 0 -135882 1.1201e+06 0 -134776 1.16631e+06 0 -133420 1.21217e+06 0 -131783 1.25758e+06 0 -129832 1.30244e+06 0 -127534 1.34664e+06 0 -124860 1.39004e+06 0 -121787 1.43251e+06 0 -110784 0 0 -110720 46782.8 0 -110678 93575.1 0 -110657 140386 0 -110655 187224 0 -110672 234099 0 -110706 281017 0 -110754 327986 0 -110815 375012 0 -110884 422101 0 -110959 469255 0 -111035 516477 0 -111107 563767 0 -111170 611123 0 -111216 658540 0 -111238 706010 0 -111227 753523 0 -111173 801064 0 -111065 848612 0 -110889 896144 0 -110630 943628 0 -110273 991026 0 -109797 1.03829e+06 0 -109183 1.08538e+06 0 -108407 1.13222e+06 0 -107446 1.17873e+06 0 -106273 1.22484e+06 0 -104862 1.27045e+06 0 -103186 1.31544e+06 0 -101220 1.35969e+06 0 -98942 1.40308e+06 0 -96337.9 1.44545e+06 0 -83094.4 0 0 -83047 47319.8 0 -83015.8 94649.1 0 -83000.4 141997 0 -83000 189373 0 -83013.6 236785 0 -83039.8 284242 0 -83077.1 331750 0 -83123.2 379315 0 -83175.9 426942 0 -83232.2 474635 0 -83288.8 522395 0 -83341.6 570221 0 -83386 618111 0 -83416.8 666058 0 -83427.8 714055 0 -83412 762087 0 -83361.2 810138 0 -83266.3 858187 0 -83116.8 906204 0 -82900.8 954157 0 -82604.9 1.002e+06 0 -82214.4 1.04969e+06 0 -81712.9 1.09717e+06 0 -81082.3 1.14436e+06 0 -80303.7 1.19119e+06 0 -79356.8 1.23756e+06 0 -78221.4 1.28337e+06 0 -76877.4 1.32851e+06 0 -75306.9 1.37283e+06 0 -73494.8 1.41621e+06 0 -71433.1 1.4585e+06 0 -55399.4 0 0 -55367.8 47853.7 0 -55347.3 95717 0 -55337.5 143600 0 -55337.8 191510 0 -55347.6 239458 0 -55365.9 287451 0 -55391.5 335495 0 -55423 383598 0 -55458.7 431763 0 -55496.5 479993 0 -55534.1 528291 0 -55568.7 576653 0 -55597 625078 0 -55615.3 673558 0 -55619.2 722082 0 -55603.7 770637 0 -55563.1 819203 0 -55490.9 867757 0 -55379.7 916267 0 -55221 964696 0 -55005.5 1.013e+06 0 -54722.6 1.06112e+06 0 -54360.9 1.109e+06 0 -53907.7 1.15656e+06 0 -53349.8 1.20371e+06 0 -52673.4 1.25036e+06 0 -51864.6 1.29639e+06 0 -50910.2 1.34168e+06 0 -49798.7 1.3861e+06 0 -48521.2 1.42949e+06 0 -47074.6 1.47171e+06 0 -27700.6 0 0 -27684.9 48384.5 0 -27674.8 96778.9 0 -27670.1 145193 0 -27670.6 193636 0 -27675.9 242116 0 -27685.5 290643 0 -27698.8 339222 0 -27715 387861 0 -27733.2 436562 0 -27752.4 485330 0 -27771.3 534165 0 -27788.4 583065 0 -27802 632027 0 -27810.1 681041 0 -27810.5 730097 0 -27800.4 779179 0 -27776.9 828265 0 -27736.5 877330 0 -27675.2 926340 0 -27588.7 975255 0 -27471.8 1.02402e+06 0 -27319.2 1.07259e+06 0 -27124.6 1.12088e+06 0 -26881.5 1.16882e+06 0 -26583 1.21631e+06 0 -26222 1.26326e+06 0 -25791.5 1.30953e+06 0 -25284.8 1.355e+06 0 -24696.5 1.39952e+06 0 -24022.7 1.44295e+06 0 -23263.4 1.48513e+06 0 0 0 0 0 48912.1 0 0 97834.4 0 0 146777 0 0 195749 0 0 244760 0 0 293818 0 0 342931 0 0 392104 0 0 441341 0 0 490646 0 0 540019 0 0 589458 0 0 638958 0 0 688510 0 0 738102 0 0 787716 0 0 837330 0 0 886915 0 0 936434 0 0 985845 0 0 1.03509e+06 0 0 1.08412e+06 0 0 1.13284e+06 0 0 1.18118e+06 0 0 1.22903e+06 0 0 1.27629e+06 0 0 1.32282e+06 0 0 1.36849e+06 0 0 1.41315e+06 0 0 1.45664e+06 0 0 1.4988e+06 0 </DataArray> 
</PointData> 
<Points> 
<DataArray type="Float32" NumberOfComponents="3"> 