<?xml version="1.0"?> 
<VTKFile type="StructuredGrid" version="0.1"> 
<StructuredGrid WholeExtent="0 31 0 31 0 0"> 
<Piece Extent="0 31 0 31 0 0"> 
<PointData>
<DataArray type="Float32" Name="|E|" format="ascii" NumberOfComponents="3"> 
2.15985e+06 -861513 0 2.28244e+06 -719703 0 2.37406e+06 -548537 0 2.421e+06 -363548 0 2.42318e+06 -184128 0 2.38969e+06 -23880.1 0 2.33192e+06 111455 0 2.25948e+06 221528 0 2.17938e+06 308648 0 2.0963e+06 376071 0 2.01319e+06 427123 0 1.93182e+06 464810 0 1.85318e+06 491700 0 1.77775e+06 509915 0 1.70572e+06 521185 0 1.63713e+06 526905 0 1.57187e+06 528194 0 1.50981e+06 525956 0 1.4508e+06 520913 0 1.39466e+06 513649 0 1.34124e+06 504636 0 1.29037e+06 494253 0 1.24192e+06 482810 0 1.19574e+06 470556 0 1.15172e+06 457696 0 1.10975e+06 444394 0 1.06972e+06 430785 0 1.03155e+06 416978 0 995136 403061 0 960415 389105 0 927312 375167 0 895756 361293 0 2.1785e+06 -868951 0 2.30407e+06 -723812 0 2.39686e+06 -547787 0 2.44259e+06 -357781 0 2.44186e+06 -174452 0 2.40485e+06 -11752.4 0 2.34364e+06 124829 0 2.26816e+06 235322 0 2.18551e+06 322351 0 2.10034e+06 389398 0 2.01556e+06 439932 0 1.93284e+06 477047 0 1.85312e+06 503360 0 1.77684e+06 521022 0 1.70414e+06 531775 0 1.635e+06 537017 0 1.56931e+06 537869 0 1.50692e+06 535231 0 1.44764e+06 529822 0 1.3913e+06 522223 0 1.33771e+06 512899 0 1.28673e+06 502228 0 1.23818e+06 490516 0 1.19195e+06 478009 0 1.14789e+06 464909 0 1.1059e+06 451379 0 1.06586e+06 437551 0 1.02769e+06 423533 0 991295 409411 0 956597 395256 0 923521 381123 0 892000 367059 0 2.19758e+06 -876561 0 2.32629e+06 -727887 0 2.42025e+06 -546716 0 2.46457e+06 -351483 0 2.46071e+06 -164185 0 2.42001e+06 925.543 0 2.35527e+06 138673 0 2.2767e+06 249499 0 2.19147e+06 336360 0 2.10421e+06 402966 0 2.01774e+06 452929 0 1.93369e+06 489430 0 1.85291e+06 515134 0 1.77578e+06 532217 0 1.70241e+06 542431 0 1.63275e+06 547179 0 1.56664e+06 547581 0 1.50392e+06 544532 0 1.44438e+06 538749 0 1.38784e+06 530806 0 1.3341e+06 521166 0 1.283e+06 510202 0 1.23438e+06 498217 0 1.18808e+06 485453 0 1.14399e+06 472111 0 1.10198e+06 458350 0 1.06194e+06 444301 0 1.02377e+06 430069 0 987393 415742 0 952718 401386 0 919673 387058 0 888186 372802 0 2.21712e+06 -884355 0 2.34913e+06 -731920 0 2.44424e+06 -545295 0 2.48695e+06 -344621 0 2.47973e+06 -153302 0 2.43517e+06 14167 0 2.36678e+06 152991 0 2.28506e+06 264059 0 2.19723e+06 350672 0 2.10788e+06 416770 0 2.01974e+06 466110 0 1.93437e+06 501955 0 1.85254e+06 527017 0 1.77458e+06 543495 0 1.70056e+06 553150 0 1.63037e+06 557388 0 1.56386e+06 557327 0 1.50082e+06 553856 0 1.44103e+06 547690 0 1.38429e+06 539396 0 1.33041e+06 529434 0 1.2792e+06 518173 0 1.23049e+06 505910 0 1.18415e+06 492887 0 1.14002e+06 479298 0 1.09799e+06 465304 0 1.05795e+06 451032 0 1.01979e+06 436586 0 983430 422051 0 948780 407494 0 915766 392970 0 884314 378521 0 2.23714e+06 -892342 0 2.37263e+06 -735901 0 2.46886e+06 -543491 0 2.50973e+06 -337157 0 2.4989e+06 -141778 0 2.4503e+06 27984.5 0 2.37816e+06 167788 0 2.29324e+06 279002 0 2.2028e+06 365284 0 2.11134e+06 430807 0 2.02154e+06 479470 0 1.93486e+06 514618 0 1.852e+06 539005 0 1.77323e+06 554853 0 1.69856e+06 563930 0 1.62787e+06 567642 0 1.56096e+06 567104 0 1.49761e+06 563202 0 1.43758e+06 556643 0 1.38066e+06 547993 0 1.32663e+06 537703 0 1.27532e+06 526139 0 1.22654e+06 513595 0 1.18014e+06 500308 0 1.13598e+06 486472 0 1.09394e+06 472242 0 1.05389e+06 457745 0 1.01575e+06 443083 0 979406 428339 0 944782 413580 0 911800 398858 0 880385 384217 0 2.25768e+06 -900534 0 2.39684e+06 -739820 0 2.49413e+06 -541270 0 2.5329e+06 -329055 0 2.5182e+06 -129590 0 2.46539e+06 42389.9 0 2.3894e+06 183068 0 2.30123e+06 294327 0 2.20815e+06 380192 0 2.1146e+06 445072 0 2.02315e+06 493004 0 1.93517e+06 527413 0 1.85129e+06 551095 0 1.77172e+06 566287 0 1.69643e+06 574765 0 1.62524e+06 577936 0 1.55795e+06 576909 0 1.49429e+06 572566 0 1.43403e+06 565608 0 1.37693e+06 556593 0 1.32277e+06 545970 0 1.27135e+06 534099 0 1.2225e+06 521270 0 1.17605e+06 507717 0 1.13187e+06 493630 0 1.08982e+06 479162 0 1.04977e+06 464438 0 1.01164e+06 449559 0 975320 434605 0 940725 419642 0 907775 404723 0 876397 389888 0 2.27876e+06 -908944 0 2.4218e+06 -743664 0 2.52008e+06 -538591 0 2.55647e+06 -320274 0 2.53761e+06 -116711 0 2.4804e+06 57394.5 0 2.40046e+06 198834 0 2.309e+06 310032 0 2.21327e+06 395393 0 2.11763e+06 459560 0 2.02454e+06 506708 0 1.93528e+06 540337 0 1.8504e+06 563280 0 1.77005e+06 577792 0 1.69415e+06 585654 0 1.62249e+06 588268 0 1.55482e+06 586741 0 1.49087e+06 581947 0 1.43038e+06 574581 0 1.3731e+06 565196 0 1.31881e+06 554234 0 1.2673e+06 542052 0 1.21839e+06 528934 0 1.1719e+06 515111 0 1.12769e+06 500771 0 1.08563e+06 486063 0 1.04559e+06 471111 0 1.00747e+06 456013 0 971174 440848 0 936607 425681 0 903692 410563 0 872352 395533 0 2.30042e+06 -917585 0 2.44755e+06 -747418 0 2.54673e+06 -535412 0 2.58041e+06 -310773 0 2.55711e+06 -103118 0 2.49531e+06 73008.4 0 2.41134e+06 215087 0 2.31654e+06 326115 0 2.21816e+06 410881 0 2.12043e+06 474265 0 2.02572e+06 520575 0 1.9352e+06 553384 0 1.84934e+06 575557 0 1.76822e+06 589366 0 1.69172e+06 596592 0 1.61959e+06 598635 0 1.55156e+06 596595 0 1.48733e+06 591341 0 1.42663e+06 583560 0 1.36919e+06 573799 0 1.31478e+06 562494 0 1.26318e+06 549996 0 1.2142e+06 536585 0 1.16767e+06 522490 0 1.12344e+06 507894 0 1.08137e+06 492945 0 1.04134e+06 477762 0 1.00324e+06 462444 0 966966 447067 0 932430 431695 0 899550 416377 0 868249 401153 0 2.32271e+06 -926472 0 2.47415e+06 -751064 0 2.5741e+06 -531683 0 2.60472e+06 -300508 0 2.57666e+06 -88786.3 0 2.51011e+06 89240.9 0 2.422e+06 231828 0 2.32384e+06 342571 0 2.22279e+06 426652 0 2.123e+06 489182 0 2.02668e+06 534601 0 1.93491e+06 566548 0 1.84809e+06 587922 0 1.76623e+06 601003 0 1.68915e+06 607575 0 1.61657e+06 609032 0 1.54819e+06 606470 0 1.48369e+06 600747 0 1.42278e+06 592543 0 1.36518e+06 582400 0 1.31065e+06 570747 0 1.25897e+06 557929 0 1.20993e+06 544223 0 1.16337e+06 529853 0 1.11912e+06 514999 0 1.07705e+06 499806 0 1.03703e+06 484392 0 998946 468851 0 962697 453262 0 928193 437683 0 895350 422165 0 864089 406747 0 2.34564e+06 -935622 0 2.50166e+06 -754581 0 2.60221e+06 -527353 0 2.62937e+06 -289433 0 2.59625e+06 -73693.6 0 2.52476e+06 106100 0 2.43244e+06 249057 0 2.33088e+06 359397 0 2.22717e+06 442699 0 2.12531e+06 504305 0 2.02741e+06 548779 0 1.93442e+06 579824 0 1.84666e+06 600368 0 1.76407e+06 612699 0 1.68643e+06 618599 0 1.61341e+06 619458 0 1.54469e+06 616361 0 1.47993e+06 610161 0 1.41882e+06 601528 0 1.36107e+06 590997 0 1.30644e+06 578991 0 1.25468e+06 565850 0 1.20559e+06 551846 0 1.159e+06 537198 0 1.11473e+06 522084 0 1.07266e+06 506645 0 1.03265e+06 490998 0 994588 475235 0 958367 459431 0 923896 443646 0 891091 427927 0 859871 412313 0 2.36929e+06 -945053 0 2.53013e+06 -757945 0 2.6311e+06 -522361 0 2.65435e+06 -277501 0 2.61584e+06 -57817.6 0 2.53924e+06 123592 0 2.44262e+06 266772 0 2.33764e+06 376587 0 2.23127e+06 459016 0 2.12737e+06 519626 0 2.02791e+06 563103 0 1.93372e+06 593207 0 1.84504e+06 612891 0 1.76174e+06 624449 0 1.68355e+06 629661 0 1.61011e+06 629908 0 1.54107e+06 626267 0 1.47606e+06 619581 0 1.41476e+06 610513 0 1.35687e+06 599588 0 1.30213e+06 587225 0 1.2503e+06 573757 0 1.20117e+06 559452 0 1.15455e+06 544524 0 1.11027e+06 529147 0 1.06821e+06 513462 0 1.02821e+06 497580 0 990167 481593 0 953976 465574 0 919540 449582 0 886773 433662 0 855596 417852 0 2.39369e+06 -954786 0 2.55963e+06 -761125 0 2.66076e+06 -516644 0 2.67963e+06 -264664 0 2.6354e+06 -41137.4 0 2.55352e+06 141723 0 2.45253e+06 284972 0 2.3441e+06 394136 0 2.23508e+06 475595 0 2.12917e+06 535139 0 2.02816e+06 577565 0 1.93281e+06 606690 0 1.84323e+06 625485 0 1.75924e+06 636250 0 1.68052e+06 640757 0 1.60668e+06 640380 0 1.53732e+06 636184 0 1.47208e+06 629005 0 1.4106e+06 619495 0 1.35258e+06 608172 0 1.29774e+06 595448 0 1.24584e+06 581649 0 1.19667e+06 567040 0 1.15002e+06 551830 0 1.10574e+06 536189 0 1.06368e+06 520255 0 1.0237e+06 504137 0 985684 487925 0 949524 471691 0 915124 455490 0 882397 439369 0 851264 423363 0 2.4189e+06 -964842 0 2.59023e+06 -764086 0 2.69122e+06 -510128 0 2.70518e+06 -250875 0 2.65489e+06 -23633.9 0 2.56757e+06 160497 0 2.46214e+06 303652 0 2.35026e+06 412037 0 2.2386e+06 492430 0 2.13069e+06 550835 0 2.02817e+06 592160 0 1.93167e+06 620267 0 1.84122e+06 638146 0 1.75657e+06 648095 0 1.67734e+06 651882 0 1.60311e+06 650868 0 1.53345e+06 646110 0 1.46798e+06 638429 0 1.40633e+06 628471 0 1.34819e+06 616746 0 1.29326e+06 603657 0 1.2413e+06 589525 0 1.19209e+06 574608 0 1.14543e+06 559114 0 1.10114e+06 543207 0 1.05909e+06 527023 0 1.01913e+06 510669 0 981137 494231 0 945010 477780 0 910648 461370 0 877963 445047 0 846874 428845 0 2.44499e+06 -975249 0 2.62202e+06 -766787 0 2.72248e+06 -502737 0 2.73096e+06 -236082 0 2.67427e+06 -5289.92 0 2.58136e+06 179915 0 2.47143e+06 322807 0 2.35609e+06 430281 0 2.24182e+06 509511 0 2.13193e+06 566708 0 2.02793e+06 606879 0 1.93031e+06 633931 0 1.83901e+06 650867 0 1.75372e+06 659982 0 1.674e+06 663033 0 1.59939e+06 661371 0 1.52945e+06 656040 0 1.46377e+06 647851 0 1.40196e+06 637441 0 1.3437e+06 625308 0 1.28869e+06 611850 0 1.23668e+06 597382 0 1.18743e+06 582156 0 1.14075e+06 566375 0 1.09647e+06 550201 0 1.05443e+06 533766 0 1.01449e+06 517173 0 976528 500509 0 940436 483840 0 906113 467222 0 873471 450696 0 842428 434297 0 2.47203e+06 -986035 0 2.65508e+06 -769178 0 2.75455e+06 -494384 0 2.75692e+06 -220240 0 2.69351e+06 13909.6 0 2.59486e+06 199978 0 2.48038e+06 342431 0 2.36158e+06 448860 0 2.24471e+06 526830 0 2.13288e+06 582748 0 2.02743e+06 621716 0 1.92872e+06 647677 0 1.83661e+06 663643 0 1.75069e+06 671904 0 1.6705e+06 674205 0 1.59554e+06 671884 0 1.52533e+06 665972 0 1.45944e+06 657269 0 1.39748e+06 646400 0 1.33911e+06 633856 0 1.28403e+06 620026 0 1.23197e+06 605219 0 1.18269e+06 589682 0 1.13601e+06 573613 0 1.09173e+06 557170 0 1.0497e+06 540481 0 1.00979e+06 523650 0 971856 506758 0 935800 489872 0 901519 473044 0 868921 456315 0 837924 439719 0 2.50011e+06 -997235 0 2.6895e+06 -771200 0 2.78741e+06 -484975 0 2.78302e+06 -203300 0 2.71256e+06 33977.1 0 2.60804e+06 220684 0 2.48897e+06 362516 0 2.36671e+06 467765 0 2.24727e+06 544377 0 2.13354e+06 598947 0 2.02667e+06 636662 0 1.92691e+06 661498 0 1.834e+06 676468 0 1.74749e+06 683856 0 1.66684e+06 685394 0 1.59154e+06 682404 0 1.52108e+06 675903 0 1.455e+06 666680 0 1.3929e+06 655347 0 1.33443e+06 642388 0 1.27928e+06 628183 0 1.22717e+06 613035 0 1.17788e+06 597184 0 1.13119e+06 580825 0 1.08692e+06 564112 0 1.04491e+06 547169 0 1.00502e+06 530098 0 967121 512978 0 931104 495873 0 896865 478835 0 864314 461904 0 833364 445111 0 2.52933e+06 -1.00889e+06 0 2.72537e+06 -772781 0 2.82105e+06 -474410 0 2.8092e+06 -185218 0 2.73138e+06 54922.4 0 2.62086e+06 242032 0 2.49717e+06 383053 0 2.37148e+06 486985 0 2.24949e+06 562142 0 2.13389e+06 615295 0 2.02565e+06 651710 0 1.92486e+06 675386 0 1.83118e+06 689337 0 1.7441e+06 695834 0 1.66303e+06 696595 0 1.5874e+06 692927 0 1.5167e+06 685830 0 1.45044e+06 676081 0 1.38821e+06 664280 0 1.32965e+06 650902 0 1.27444e+06 636319 0 1.2223e+06 620827 0 1.17299e+06 604661 0 1.12629e+06 588010 0 1.08203e+06 571026 0 1.04005e+06 553829 0 1.00019e+06 536517 0 962324 519168 0 926347 501844 0 892153 484596 0 859648 467461 0 828748 450471 0 2.5598e+06 -1.02104e+06 0 2.76281e+06 -773837 0 2.85545e+06 -462581 0 2.8354e+06 -165953 0 2.74992e+06 76752.6 0 2.63329e+06 264014 0 2.50496e+06 404031 0 2.37585e+06 506508 0 2.25137e+06 580113 0 2.13394e+06 631783 0 2.02435e+06 666851 0 1.92257e+06 689334 0 1.82816e+06 702243 0 1.74053e+06 707833 0 1.65905e+06 707805 0 1.58312e+06 703449 0 1.51219e+06 695749 0 1.44576e+06 685468 0 1.38342e+06 673196 0 1.32477e+06 659396 0 1.26951e+06 644433 0 1.21734e+06 628595 0 1.16801e+06 612112 0 1.12132e+06 595168 0 1.07708e+06 577911 0 1.03512e+06 560458 0 995288 542905 0 957464 525327 0 921530 507784 0 887382 490325 0 854926 472987 0 824076 455800 0 2.59166e+06 -1.03375e+06 0 2.80191e+06 -774266 0 2.89055e+06 -449370 0 2.86154e+06 -145468 0 2.76815e+06 99471.6 0 2.6453e+06 286624 0 2.51232e+06 425439 0 2.37983e+06 526323 0 2.25288e+06 598281 0 2.13367e+06 648401 0 2.02278e+06 682076 0 1.92005e+06 703336 0 1.82493e+06 715180 0 1.73678e+06 719848 0 1.65491e+06 719020 0 1.57869e+06 713966 0 1.50755e+06 705658 0 1.44097e+06 694841 0 1.37852e+06 682093 0 1.3198e+06 667868 0 1.26449e+06 652522 0 1.21229e+06 636336 0 1.16296e+06 619534 0 1.11628e+06 602297 0 1.07206e+06 584766 0 1.03012e+06 567057 0 990326 549262 0 952542 531453 0 916653 513691 0 882552 496021 0 850146 478480 0 819347 461096 0 2.62509e+06 -1.04709e+06 0 2.8428e+06 -773945 0 2.9263e+06 -434658 0 2.88756e+06 -123732 0 2.78601e+06 123081 0 2.65685e+06 309851 0 2.51923e+06 447263 0 2.38339e+06 546416 0 2.25403e+06 616632 0 2.13308e+06 665139 0 2.02093e+06 697378 0 1.91728e+06 717384 0 1.82149e+06 728143 0 1.73284e+06 731873 0 1.65061e+06 730234 0 1.57412e+06 724476 0 1.50278e+06 715553 0 1.43606e+06 704195 0 1.37351e+06 690969 0 1.31473e+06 676316 0 1.25938e+06 660585 0 1.20717e+06 644049 0 1.15784e+06 626928 0 1.11117e+06 609395 0 1.06696e+06 591590 0 1.02506e+06 573624 0 985300 555586 0 947559 537548 0 911715 519566 0 877664 501685 0 845309 483940 0 814563 466358 0 2.66028e+06 -1.06112e+06 0 2.88559e+06 -772728 0 2.96261e+06 -418318 0 2.91338e+06 -100722 0 2.80345e+06 147578 0 2.66792e+06 333685 0 2.52567e+06 469489 0 2.38652e+06 566773 0 2.2548e+06 635155 0 2.13216e+06 681986 0 2.0188e+06 712747 0 1.91427e+06 731470 0 1.81784e+06 741124 0 1.72872e+06 743903 0 1.64614e+06 741443 0 1.56941e+06 734974 0 1.49788e+06 725431 0 1.43104e+06 713528 0 1.3684e+06 699820 0 1.30956e+06 684737 0 1.25418e+06 668619 0 1.20196e+06 651733 0 1.15263e+06 634291 0 1.10598e+06 616462 0 1.0618e+06 598382 0 1.01993e+06 580158 0 980210 561877 0 942513 543608 0 906718 525406 0 872717 507314 0 840415 489366 0 809723 471587 0 2.69748e+06 -1.07596e+06 0 2.93039e+06 -770437 0 2.99936e+06 -400222 0 2.93892e+06 -76421.1 0 2.82044e+06 172958 0 2.67846e+06 358111 0 2.53161e+06 492100 0 2.38921e+06 587380 0 2.25519e+06 653836 0 2.13091e+06 698932 0 2.01639e+06 728175 0 1.91101e+06 745588 0 1.81398e+06 754118 0 1.72442e+06 755933 0 1.64152e+06 752644 0 1.56455e+06 745457 0 1.49286e+06 735289 0 1.4259e+06 722838 0 1.36318e+06 708645 0 1.3043e+06 693130 0 1.24889e+06 676624 0 1.19666e+06 659386 0 1.14735e+06 641621 0 1.10071e+06 623496 0 1.05656e+06 605140 0 1.01473e+06 586658 0 975056 568134 0 937406 549634 0 901661 531212 0 867713 512909 0 835465 494758 0 804828 476782 0 2.73701e+06 -1.09173e+06 0 2.97729e+06 -766859 0 3.03644e+06 -380244 0 2.96411e+06 -50822.9 0 2.83691e+06 199215 0 2.68845e+06 383111 0 2.53705e+06 515079 0 2.39145e+06 608221 0 2.25518e+06 672663 0 2.12933e+06 715966 0 2.01369e+06 743652 0 1.90751e+06 759730 0 1.8099e+06 767119 0 1.71993e+06 767958 0 1.63673e+06 763831 0 1.55954e+06 755921 0 1.48771e+06 745123 0 1.42064e+06 732121 0 1.35786e+06 717442 0 1.29894e+06 701493 0 1.24352e+06 684597 0 1.19129e+06 667005 0 1.14198e+06 648919 0 1.09537e+06 630496 0 1.05126e+06 611863 0 1.00947e+06 593123 0 969838 574356 0 932238 555625 0 896545 536983 0 862651 518469 0 830459 500114 0 799879 481942 0 2.77926e+06 -1.10858e+06 0 3.02638e+06 -761736 0 3.07367e+06 -358263 0 2.98886e+06 -23929.8 0 2.85283e+06 226339 0 2.69785e+06 408667 0 2.54195e+06 538408 0 2.39322e+06 629281 0 2.25478e+06 691621 0 2.12741e+06 733075 0 2.0107e+06 759169 0 1.90377e+06 773888 0 1.80561e+06 780121 0 1.71525e+06 779973 0 1.63178e+06 775001 0 1.5544e+06 766362 0 1.48242e+06 754931 0 1.41527e+06 741376 0 1.35243e+06 726207 0 1.29348e+06 709824 0 1.23805e+06 692537 0 1.18583e+06 674591 0 1.13654e+06 656181 0 1.08996e+06 637460 0 1.04589e+06 618551 0 1.00414e+06 599553 0 964557 580542 0 927009 561580 0 891370 542718 0 857532 523993 0 825397 505435 0 794874 487066 0 2.82471e+06 -1.12671e+06 0 3.0777e+06 -754757 0 3.11087e+06 -334174 0 3.01313e+06 4247.24 0 2.86813e+06 254318 0 2.70662e+06 434754 0 2.54631e+06 562068 0 2.39452e+06 650540 0 2.25398e+06 710697 0 2.12515e+06 750249 0 2.00741e+06 774716 0 1.89977e+06 788055 0 1.80111e+06 793116 0 1.71039e+06 791973 0 1.62666e+06 786148 0 1.54911e+06 776776 0 1.47701e+06 764710 0 1.40978e+06 750598 0 1.3469e+06 734940 0 1.28793e+06 718120 0 1.23249e+06 700441 0 1.18029e+06 682141 0 1.13103e+06 663407 0 1.08448e+06 644388 0 1.04045e+06 625203 0 998744 605945 0 959213 586691 0 921719 567499 0 886137 548416 0 852357 529480 0 820280 510719 0 789815 492154 0 2.874e+06 -1.14637e+06 0 3.13122e+06 -745545 0 3.14782e+06 -307891 0 3.03684e+06 33689.5 0 2.88276e+06 283137 0 2.71475e+06 461350 0 2.5501e+06 586039 0 2.39533e+06 671983 0 2.25276e+06 729877 0 2.12254e+06 767477 0 2.00384e+06 790285 0 1.89552e+06 802223 0 1.79639e+06 806100 0 1.70534e+06 803951 0 1.62139e+06 797270 0 1.54367e+06 787161 0 1.47148e+06 774456 0 1.40418e+06 759787 0 1.34126e+06 743636 0 1.28228e+06 726380 0 1.22685e+06 708309 0 1.17466e+06 689654 0 1.12543e+06 670596 0 1.07893e+06 651278 0 1.03494e+06 631816 0 993284 612300 0 953807 592802 0 916369 573379 0 880845 554077 0 847124 534930 0 815107 515966 0 784703 497206 0 2.92794e+06 -1.16789e+06 0 3.18687e+06 -733647 0 3.18429e+06 -279364 0 3.05995e+06 64374.2 0 2.89666e+06 312777 0 2.72221e+06 488425 0 2.55332e+06 610299 0 2.39564e+06 693591 0 2.25113e+06 749145 0 2.11959e+06 784745 0 1.99998e+06 805865 0 1.89103e+06 816384 0 1.79146e+06 819065 0 1.70011e+06 815904 0 1.61595e+06 808360 0 1.5381e+06 797512 0 1.46581e+06 784167 0 1.39846e+06 768938 0 1.33552e+06 752296 0 1.27653e+06 734601 0 1.22112e+06 716138 0 1.16896e+06 697128 0 1.11977e+06 677746 0 1.0733e+06 658130 0 1.02936e+06 638391 0 987759 618616 0 948339 598874 0 910959 579221 0 875495 559699 0 841835 540342 0 809880 521176 0 779537 502220 0 2.98756e+06 -1.19167e+06 0 3.24439e+06 -718513 0 3.22005e+06 -248594 0 3.08242e+06 96279.8 0 2.90976e+06 343215 0 2.72898e+06 515951 0 2.55594e+06 634828 0 2.39546e+06 715344 0 2.24909e+06 768487 0 2.11628e+06 802043 0 1.99582e+06 821448 0 1.88629e+06 830530 0 1.78632e+06 832005 0 1.6947e+06 827826 0 1.61035e+06 819416 0 1.53238e+06 807825 0 1.46002e+06 793839 0 1.39263e+06 778051 0 1.32968e+06 760915 0 1.2707e+06 742783 0 1.21531e+06 723927 0 1.16317e+06 704561 0 1.11402e+06 684855 0 1.0676e+06 664941 0 1.02372e+06 644925 0 982170 624892 0 942808 604907 0 905489 585024 0 870088 565283 0 836490 545716 0 804598 526347 0 774317 507196 0 3.05423e+06 -1.21826e+06 0 3.3034e+06 -699478 0 3.25491e+06 -215646 0 3.10419e+06 129394 0 2.922e+06 374417 0 2.73504e+06 543898 0 2.55794e+06 659600 0 2.39477e+06 737224 0 2.24663e+06 787889 0 2.11263e+06 819359 0 1.99137e+06 837024 0 1.8813e+06 844655 0 1.78097e+06 844915 0 1.6891e+06 839712 0 1.60459e+06 830433 0 1.52652e+06 818098 0 1.4541e+06 803469 0 1.38669e+06 787121 0 1.32373e+06 769492 0 1.26477e+06 750922 0 1.2094e+06 731674 0 1.15731e+06 711953 0 1.1082e+06 691923 0 1.06184e+06 671711 0 1.018e+06 651419 0 976517 631127 0 937217 610900 0 899961 590786 0 864623 570826 0 831090 551050 0 799262 531480 0 769045 512133 0 3.12969e+06 -1.24836e+06 0 3.3632e+06 -675739 0 3.28872e+06 -180685 0 3.12522e+06 163726 0 2.93332e+06 406339 0 2.74039e+06 572239 0 2.55932e+06 684592 0 2.39356e+06 759211 0 2.24374e+06 807333 0 2.10862e+06 836680 0 1.98663e+06 852584 0 1.87606e+06 858750 0 1.7754e+06 857788 0 1.68332e+06 851557 0 1.59867e+06 841407 0 1.52052e+06 828327 0 1.44806e+06 813055 0 1.38063e+06 796146 0 1.31768e+06 778025 0 1.25874e+06 759017 0 1.20341e+06 739377 0 1.15136e+06 719302 0 1.10231e+06 698948 0 1.056e+06 678439 0 1.01222e+06 657871 0 970800 637321 0 931564 616851 0 894374 596508 0 859102 576330 0 825635 556344 0 793872 536573 0 763720 517032 0 3.21627e+06 -1.2829e+06 0 3.42276e+06 -646328 0 3.32151e+06 -143990 0 3.1454e+06 199321 0 2.94366e+06 438914 0 2.745e+06 600949 0 2.56004e+06 709775 0 2.39184e+06 781286 0 2.24042e+06 826806 0 2.10427e+06 853995 0 1.98159e+06 868117 0 1.87058e+06 872808 0 1.76963e+06 870618 0 1.67736e+06 863357 0 1.5926e+06 852334 0 1.51438e+06 838508 0 1.4419e+06 822593 0 1.37447e+06 805125 0 1.31154e+06 786511 0 1.25263e+06 767066 0 1.19734e+06 747035 0 1.14534e+06 726606 0 1.09634e+06 705929 0 1.05009e+06 685123 0 1.00638e+06 664279 0 965020 643473 0 925851 622761 0 888728 602189 0 853524 581792 0 820125 561597 0 788430 541626 0 758343 521890 0 3.317e+06 -1.32307e+06 0 3.48049e+06 -610064 0 3.35352e+06 -106025 0 3.1645e+06 236290 0 2.95304e+06 472041 0 2.74885e+06 630013 0 2.56011e+06 735117 0 2.38961e+06 803430 0 2.23668e+06 846289 0 2.09957e+06 871292 0 1.97626e+06 883614 0 1.86485e+06 886822 0 1.76364e+06 883398 0 1.67122e+06 875105 0 1.58637e+06 863209 0 1.50811e+06 848639 0 1.43561e+06 832081 0 1.36819e+06 814054 0 1.30529e+06 794949 0 1.24642e+06 775068 0 1.19118e+06 754646 0 1.13924e+06 733863 0 1.0903e+06 712865 0 1.04411e+06 691762 0 1.00047e+06 670644 0 959178 649580 0 920078 628627 0 883025 607826 0 847890 587212 0 814560 566809 0 782934 546638 0 752913 526708 0 </DataArray> 
</PointData> 
<Points> 
<DataArray type="Float32" NumberOfComponents="3"> 