<?xml version="1.0"?> 
<VTKFile type="StructuredGrid" version="0.1"> 
<StructuredGrid WholeExtent="0 31 0 31 0 0"> 
<Piece Extent="0 31 0 31 0 0"> 
<PointData>
<DataArray type="Float32" Name="|E|" format="ascii" NumberOfComponents="3"> 
734.996 -2.14577e-06 0 45.5593 -346.268 0 9.34606 -173.682 0 -44.2443 -134.261 0 -47.1402 -87.9264 0 -49.6092 -63.2812 0 -44.658 -44.4534 0 -39.4149 -32.014 0 -33.5359 -23.2257 0 -28.1665 -17.0402 0 -23.3392 -12.6507 0 -19.1931 -9.47657 0 -15.6819 -7.1729 0 -12.7563 -5.47183 0 -10.3399 -4.20769 0 -8.35951 -3.25591 0 -6.745 -2.53394 0 -5.43457 -1.98098 0 -4.37461 -1.55454 0 -3.5198 -1.22329 0 -2.8323 -0.964437 0 -2.28089 -0.760975 0 -1.84 -0.600152 0 -1.4889 -0.472267 0 -1.21085 -0.369864 0 -0.992465 -0.287143 0 -0.823166 -0.219537 0 -0.694691 -0.163385 0 -0.60074 -0.1157 0 -0.536682 -0.0739814 0 -0.499348 -0.0360616 0 -0.486856 -1.43051e-06 0 557.802 9.23872e-07 0 100.39 -277.125 0 9.38238 -171.399 0 -31.2807 -127.42 0 -43.2307 -87.9729 0 -45.044 -63.3026 0 -42.2092 -45.3535 0 -37.429 -32.9932 0 -32.2377 -24.2046 0 -27.2009 -17.9499 0 -22.6582 -13.4417 0 -18.6912 -10.1595 0 -15.3142 -7.74431 0 -12.4818 -5.94819 0 -10.1339 -4.59919 0 -8.20306 -3.57654 0 -6.62533 -2.79471 0 -5.34231 -2.19244 0 -4.30301 -1.72535 0 -3.46389 -1.3609 0 -2.78841 -1.07499 0 -2.24625 -0.849533 0 -1.81251 -0.670841 0 -1.46695 -0.52843 0 -1.19319 -0.414185 0 -0.978122 -0.321758 0 -0.811355 -0.246124 0 -0.684781 -0.183241 0 -0.592209 -0.129797 0 -0.529085 -0.0830112 0 -0.492293 -0.0404697 0 -0.479986 6.85453e-07 0 435.892 -3.94881e-07 0 125.939 -224.596 0 15.4028 -163.829 0 -22.305 -121.629 0 -38.3657 -87.1134 0 -41.1485 -63.234 0 -39.6112 -46.0431 0 -35.5397 -33.855 0 -30.9001 -25.1071 0 -26.2318 -18.7972 0 -21.9527 -14.1962 0 -18.1716 -10.8122 0 -14.9278 -8.29653 0 -12.1916 -6.4094 0 -9.91392 -4.98027 0 -8.03498 -3.88916 0 -6.49593 -3.04966 0 -5.24201 -2.39945 0 -4.22481 -1.8928 0 -3.4026 -1.49594 0 -2.74013 -1.18356 0 -2.20804 -0.936555 0 -1.78213 -0.740339 0 -1.44264 -0.583668 0 -1.17361 -0.457788 0 -0.962192 -0.355821 0 -0.798224 -0.272293 0 -0.673754 -0.202787 0 -0.58271 -0.143675 0 -0.520624 -0.0919013 0 -0.484432 -0.0448086 0 -0.472329 -2.90573e-07 0 349.604 2.68221e-07 0 135.02 -184.113 0 22.8346 -153.639 0 -15.384 -116.228 0 -33.4037 -85.6796 0 -37.585 -63.0175 0 -37.0226 -46.5508 0 -33.6937 -34.6077 0 -29.5533 -25.9307 0 -25.2526 -19.5877 0 -21.2294 -14.9116 0 -17.6345 -11.4361 0 -14.5243 -8.82838 0 -11.8863 -6.85552 0 -9.68075 -5.35031 0 -7.85568 -4.1935 0 -6.3571 -3.2984 0 -5.1339 -2.60173 0 -4.14018 -2.05665 0 -3.33604 -1.62819 0 -2.68756 -1.28997 0 -2.16634 -1.0219 0 -1.7489 -0.808535 0 -1.41602 -0.63789 0 -1.15213 -0.500604 0 -0.944704 -0.389276 0 -0.783796 -0.297999 0 -0.66163 -0.221991 0 -0.57226 -0.157312 0 -0.511311 -0.100637 0 -0.475779 -0.0490724 0 -0.463899 8.9407e-08 0 286.841 -1.78814e-07 0 134.964 -152.631 0 29.6611 -142.343 0 -9.67808 -110.952 0 -28.6926 -83.8583 0 -34.2348 -62.6365 0 -34.5039 -46.8995 0 -31.8785 -35.2563 0 -28.2096 -26.6776 0 -24.2641 -20.3237 0 -20.4916 -15.5878 0 -17.0811 -12.0315 0 -14.1052 -9.33949 0 -11.5665 -7.28631 0 -9.43499 -5.70894 0 -7.66557 -4.48926 0 -6.20918 -3.54063 0 -5.01821 -2.79904 0 -4.0493 -2.21666 0 -3.26436 -1.75748 0 -2.6308 -1.39409 0 -2.12122 -1.10545 0 -1.71288 -0.875324 0 -1.38713 -0.691016 0 -1.1288 -0.542566 0 -0.925688 -0.422071 0 -0.768096 -0.323202 0 -0.648429 -0.240822 0 -0.560877 -0.170685 0 -0.501162 -0.109205 0 -0.466349 -0.0532544 0 -0.454709 -5.96046e-08 0 239.917 3.12924e-07 0 130.043 -127.884 0 35.1041 -130.894 0 -4.82441 -105.699 0 -24.3637 -81.7751 0 -31.0635 -62.0935 0 -32.0781 -47.1081 0 -30.0953 -35.8063 0 -26.8751 -27.3513 0 -23.2688 -21.007 0 -19.7417 -16.2254 0 -16.5131 -12.5987 0 -13.6715 -9.82966 0 -11.2333 -7.70152 0 -9.17724 -6.05584 0 -7.46511 -4.77613 0 -6.05249 -3.77607 0 -4.8952 -2.99111 0 -3.95235 -2.37263 0 -3.18768 -1.88362 0 -2.56995 -1.49574 0 -2.07277 -1.18708 0 -1.67416 -0.940606 0 -1.35602 -0.742962 0 -1.10365 -0.583607 0 -0.905177 -0.454154 0 -0.751151 -0.347863 0 -0.634173 -0.259249 0 -0.548579 -0.183772 0 -0.490195 -0.11759 0 -0.456156 -0.0573471 0 -0.444775 3.42727e-07 0 203.908 -4.17233e-07 0 122.709 -108.235 0 39.0049 -119.838 0 -0.6742 -100.466 0 -20.4501 -79.5142 0 -28.0689 -61.403 0 -29.7535 -47.1929 0 -28.3491 -36.2637 0 -25.5536 -27.9555 0 -22.27 -21.6393 0 -18.9819 -16.8251 0 -15.9321 -13.1379 0 -13.2244 -10.2988 0 -10.8873 -8.10091 0 -8.90809 -6.39073 0 -7.25473 -5.05383 0 -5.88736 -4.00444 0 -4.76511 -3.17772 0 -3.84953 -2.52434 0 -3.10616 -2.00643 0 -2.50514 -1.59479 0 -2.02108 -1.26666 0 -1.63278 -1.00428 0 -1.32276 -0.793647 0 -1.07674 -0.623664 0 -0.883206 -0.485474 0 -0.732989 -0.371941 0 -0.618887 -0.277244 0 -0.535388 -0.196555 0 -0.478428 -0.125781 0 -0.445217 -0.0613448 0 -0.434114 -6.10948e-07 0 175.594 5.66244e-07 0 114.36 -92.4797 0 41.4789 -109.47 0 2.84059 -95.2933 0 -16.9468 -77.1373 0 -25.2569 -60.5848 0 -27.5332 -47.1685 0 -26.6457 -36.6353 0 -24.2481 -28.4942 0 -21.2706 -22.2224 0 -18.2139 -17.3878 0 -15.3395 -13.6492 0 -12.765 -10.7469 0 -10.5294 -8.48432 0 -8.62815 -6.71336 0 -7.03489 -5.32208 0 -5.71413 -4.22549 0 -4.6282 -3.35863 0 -3.74102 -2.67159 0 -3.01996 -2.12576 0 -2.43647 -1.69109 0 -1.96623 -1.34408 0 -1.58883 -1.06626 0 -1.28738 -0.842995 0 -1.04809 -0.662675 0 -0.859812 -0.515984 0 -0.71364 -0.3954 0 -0.602596 -0.294778 0 -0.521325 -0.20901 0 -0.465881 -0.133762 0 -0.433552 -0.0652409 0 -0.422744 7.7486e-07 0 152.831 -6.25849e-07 0 105.776 -79.7273 0 42.7444 -99.9297 0 5.76352 -90.2323 0 -13.8337 -74.6926 0 -22.6333 -59.6608 0 -25.4184 -47.0482 0 -24.9898 -36.9281 0 -22.9615 -28.9714 0 -20.2731 -22.7583 0 -17.4397 -17.9145 0 -14.7368 -14.1332 0 -12.2942 -11.174 0 -10.1604 -8.85159 0 -8.33798 -7.02353 0 -6.80602 -5.58066 0 -5.53313 -4.439 0 -4.48472 -3.53364 0 -3.62704 -2.81421 0 -2.92921 -2.24142 0 -2.36408 -1.7845 0 -1.90833 -1.41922 0 -1.54238 -1.12643 0 -1.24997 -0.890931 0 -1.01777 -0.700579 0 -0.835034 -0.545634 0 -0.693139 -0.418202 0 -0.585326 -0.311823 0 -0.506413 -0.22112 0 -0.452573 -0.141522 0 -0.421179 -0.0690287 0 -0.410682 -4.47035e-07 0 134.165 4.17233e-07 0 97.3772 -69.3136 0 43.0377 -91.2598 0 8.13593 -85.3342 0 -11.0868 -72.2195 0 -20.2004 -58.6532 0 -23.41 -46.845 0 -23.3848 -37.1494 0 -21.6961 -29.3913 0 -19.2798 -23.2493 0 -16.6609 -18.4064 0 -14.1252 -14.5901 0 -11.8131 -11.5803 0 -9.78108 -9.20263 0 -8.03817 -7.32105 0 -6.56858 -5.82935 0 -5.34471 -4.64474 0 -4.33494 -3.70253 0 -3.50777 -2.952 0 -2.83409 -2.35328 0 -2.28808 -1.87491 0 -1.84748 -1.49198 0 -1.49351 -1.18473 0 -1.21057 -0.937381 0 -0.985831 -0.737319 0 -0.808915 -0.574379 0 -0.671517 -0.440312 0 -0.567108 -0.328352 0 -0.490678 -0.232864 0 -0.438528 -0.149049 0 -0.408118 -0.0727028 0 -0.39795 1.49012e-07 0 118.587 -3.8743e-07 0 89.3772 -60.7389 0 42.5762 -83.4475 0 10.0032 -80.6418 0 -8.68089 -69.7509 0 -17.9573 -57.5831 0 -21.5077 -46.5711 0 -21.8334 -37.3064 0 -20.454 -29.758 0 -18.2927 -23.6976 0 -15.8789 -18.8645 0 -13.5061 -15.0206 0 -11.3227 -11.9657 0 -9.3921 -9.53737 0 -7.72929 -7.60576 0 -6.32299 -6.06794 0 -5.14921 -4.84252 0 -4.17913 -3.86512 0 -3.38345 -3.08481 0 -2.73477 -2.46118 0 -2.2086 -1.96217 0 -1.78377 -1.56225 0 -1.44231 -1.24105 0 -1.16926 -0.982276 0 -0.952315 -0.772838 0 -0.781498 -0.602174 0 -0.648813 -0.461694 0 -0.547971 -0.34434 0 -0.474145 -0.244224 0 -0.423769 -0.156329 0 -0.394391 -0.0762567 0 -0.384569 -2.38419e-07 0 105.385 3.8743e-07 0 81.8692 -53.6242 0 41.5451 -76.4484 0 11.4147 -76.1875 0 -6.59103 -67.3148 0 -15.9003 -56.4701 0 -19.7112 -46.2383 0 -20.3373 -37.4063 0 -19.2372 -30.0755 0 -17.3135 -24.1054 0 -15.0953 -19.2901 0 -12.8805 -15.4251 0 -10.8237 -12.3306 0 -8.99418 -9.85579 0 -7.41189 -7.87752 0 -6.0697 -6.29626 0 -4.94697 -5.03214 0 -4.01755 -4.02123 0 -3.25427 -3.21246 0 -2.6314 -2.56498 0 -2.12579 -2.04618 0 -1.71732 -1.62993 0 -1.38885 -1.29532 0 -1.1261 -1.02555 0 -0.917284 -0.807081 0 -0.752828 -0.628976 0 -0.625062 -0.482315 0 -0.527946 -0.35976 0 -0.456842 -0.255182 0 -0.408319 -0.163353 0 -0.380021 -0.0796855 0 -0.37056 2.08616e-07 0 94.0409 -2.98023e-07 0 74.8793 -47.6791 0 40.0948 -70.2029 0 12.4214 -71.9932 0 -4.79276 -64.9345 0 -14.0231 -55.3322 0 -18.0189 -45.8578 0 -18.8973 -37.456 0 -18.0468 -30.3479 0 -16.3436 -24.4752 0 -14.3113 -19.6844 0 -12.2495 -15.8043 0 -10.3171 -12.6751 0 -8.58801 -10.1579 0 -7.0865 -8.13623 0 -5.80913 -6.51415 0 -4.73834 -5.21343 0 -3.85049 -4.1707 0 -3.12046 -3.3348 0 -2.52416 -2.66456 0 -2.03978 -2.12681 0 -1.64823 -1.69493 0 -1.33324 -1.34746 0 -1.08117 -1.06713 0 -0.880795 -0.839997 0 -0.722952 -0.654744 0 -0.600305 -0.502143 0 -0.507068 -0.374589 0 -0.438797 -0.26572 0 -0.392204 -0.170108 0 -0.365031 -0.0829833 0 -0.355946 -2.98023e-08 0 84.1763 -5.96046e-08 0 68.3971 -42.68 0 38.344 -64.6453 0 13.0738 -68.0717 0 -3.26214 -62.6295 0 -12.3183 -54.1855 0 -16.4287 -45.4402 0 -17.5136 -37.4623 0 -16.884 -30.5794 0 -15.3841 -24.8091 0 -13.528 -20.0486 0 -11.614 -16.1587 0 -9.80363 -12.9994 0 -8.17425 -10.4437 0 -6.75366 -8.38179 0 -5.5417 -6.72147 0 -4.52364 -5.38624 0 -3.67821 -4.31336 0 -2.98223 -3.4517 0 -2.41324 -2.75977 0 -1.95071 -2.20397 0 -1.57662 -1.75715 0 -1.27555 -1.39739 0 -1.03454 -1.10697 0 -0.842907 -0.871535 0 -0.69192 -0.679438 0 -0.574581 -0.521148 0 -0.485369 -0.388803 0 -0.420039 -0.275823 0 -0.375452 -0.176584 0 -0.349446 -0.0861447 0 -0.340752 5.96046e-08 0 75.5051 5.96046e-08 0 62.3931 -38.4526 0 36.3845 -59.7098 0 13.4196 -64.4282 0 -1.97588 -60.4157 0 -10.7768 -53.0444 0 -14.9377 -44.9956 0 -16.1859 -37.4317 0 -15.7494 -30.7739 0 -14.4359 -25.1097 0 -12.7462 -20.3841 0 -10.9749 -16.489 0 -9.28406 -13.3038 0 -7.7535 -10.7132 0 -6.41388 -8.61413 0 -5.26785 -6.9181 0 -4.30324 -5.55042 0 -3.50098 -4.44907 0 -2.83981 -3.56302 0 -2.2988 -2.8505 0 -1.85872 -2.27753 0 -1.50261 -1.81651 0 -1.21588 -1.44504 0 -0.986291 -1.14499 0 -0.803684 -0.901648 0 -0.659783 -0.70302 0 -0.547934 -0.539299 0 -0.462886 -0.402381 0 -0.400601 -0.285473 0 -0.358088 -0.18277 0 -0.333292 -0.0891652 0 -0.325001 0 0 67.8085 5.96046e-08 0 56.8293 -34.8603 0 34.286 -55.3338 0 13.5031 -61.0625 0 -0.911434 -58.3058 0 -9.38904 -51.9217 0 -13.5425 -44.533 0 -14.9133 -37.3703 0 -14.6433 -30.9352 0 -13.4999 -25.3791 0 -11.9669 -20.6922 0 -10.3329 -16.796 0 -8.75907 -13.5887 0 -7.32636 -10.9665 0 -6.06765 -8.83321 0 -4.98797 -7.10392 0 -4.07745 -5.70583 0 -3.31909 -4.5777 0 -2.69342 -3.66862 0 -2.18103 -2.93665 0 -1.76397 -2.34742 0 -1.42631 -1.87292 0 -1.15434 -1.49034 0 -0.936493 -1.18115 0 -0.763189 -0.93029 0 -0.626592 -0.725454 0 -0.520406 -0.556569 0 -0.439656 -0.4153 0 -0.380512 -0.294657 0 -0.340142 -0.188658 0 -0.316595 -0.0920395 0 -0.308722 -5.96046e-08 0 60.9161 -5.96046e-08 0 51.6646 -31.7951 0 32.1006 -51.4593 0 13.364 -57.9697 0 -0.0471847 -56.3095 0 -8.145 -50.8283 0 -12.2389 -44.0612 0 -13.6945 -37.284 0 -13.5655 -31.067 0 -12.5763 -25.6197 0 -11.1906 -20.9741 0 -9.68881 -17.0802 0 -8.22929 -13.8542 0 -6.8934 -11.2037 0 -5.71546 -9.03898 0 -4.70248 -7.27883 0 -3.84662 -5.85236 0 -3.13282 -4.69912 0 -2.54329 -3.7684 0 -2.06012 -3.0181 0 -1.6666 -2.41353 0 -1.34785 -1.92631 0 -1.09101 -1.53323 0 -0.885231 -1.2154 0 -0.721486 -0.957419 0 -0.592403 -0.746705 0 -0.492043 -0.572931 0 -0.415716 -0.427541 0 -0.359807 -0.303359 0 -0.321643 -0.194236 0 -0.299382 -0.0947631 0 -0.291939 5.96046e-08 0 54.6928 0 0 46.8581 -29.1711 0 29.8668 -48.0339 0 13.0375 -55.1422 0 0.637408 -54.4341 0 -7.03429 -49.7739 0 -11.0223 -43.5878 0 -12.5276 -37.1783 0 -12.5158 -31.173 0 -11.6655 -25.8335 0 -10.418 -21.2311 0 -9.0431 -17.3422 0 -7.69531 -14.1008 0 -6.45514 -11.4249 0 -5.35777 -9.23142 0 -4.41177 -7.44275 0 -3.61109 -5.98989 0 -2.94243 -4.81322 0 -2.38965 -3.86224 0 -1.93625 -3.09475 0 -1.56676 -2.47578 0 -1.26735 -1.9766 0 -1.026 -1.57364 0 -0.832586 -1.24767 0 -0.678645 -0.982993 0 -0.557269 -0.766742 0 -0.462891 -0.588359 0 -0.391105 -0.439085 0 -0.338519 -0.311565 0 -0.302621 -0.199498 0 -0.281682 -0.0973321 0 -0.27468 0 0 49.0304 5.96046e-08 0 42.3711 -26.9196 0 27.6123 -45.0107 0 12.5544 -52.5704 0 1.16169 -52.6849 0 -6.0465 -48.7668 0 -9.88765 -43.12 0 -11.4104 -37.0582 0 -11.4933 -31.2564 0 -10.7674 -26.0228 0 -9.64927 -21.4644 0 -8.39633 -17.5829 0 -7.15766 -14.3287 0 -6.01209 -11.6302 0 -4.99503 -9.41052 0 -4.11623 -7.59561 0 -3.37118 -6.11832 0 -2.74821 -4.91989 0 -2.23272 -3.95005 0 -1.80961 -3.16652 0 -1.46462 -2.5341 0 -1.18493 -2.02372 0 -0.959421 -1.61152 0 -0.778642 -1.27793 0 -0.634733 -1.00697 0 -0.521249 -0.785534 0 -0.432996 -0.602829 0 -0.365863 -0.449913 0 -0.316683 -0.319264 0 -0.283108 -0.204434 0 -0.263523 -0.0997421 0 -0.256974 1.78814e-07 0 43.8405 -5.96046e-08 0 38.167 -24.9849 0 25.3567 -42.3485 0 11.941 -50.2436 0 1.54375 -51.0654 0 -5.17126 -47.814 0 -8.82974 -42.6641 0 -10.3406 -36.9285 0 -10.4973 -31.3205 0 -9.8821 -26.1895 0 -8.88481 -21.6752 0 -7.74893 -17.8028 0 -6.61682 -14.5382 0 -5.56472 -11.8197 0 -4.62768 -9.57627 0 -3.81625 -7.73735 0 -3.12723 -6.23758 0 -2.55044 -5.01903 0 -2.07274 -4.03172 0 -1.68039 -3.23331 0 -1.36032 -2.58839 0 -1.10073 -2.06762 0 -0.891365 -1.64681 0 -0.723486 -1.30613 0 -0.58982 -1.02933 0 -0.484399 -0.803052 0 -0.402407 -0.61632 0 -0.340032 -0.460009 0 -0.294334 -0.326442 0 -0.263135 -0.209036 0 -0.244935 -0.101989 0 -0.238849 -1.78814e-07 0 39.05 0 0 34.2126 -23.3222 0 23.1133 -40.0111 0 11.22 -48.1507 0 1.80038 -49.5777 0 -4.39837 -46.9214 0 -7.84298 -42.2258 0 -9.3154 -36.7935 0 -9.52647 -31.3683 0 -9.00913 -26.3354 0 -8.12472 -21.8646 0 -7.10126 -18.0026 0 -6.07324 -14.7296 0 -5.11348 -11.9935 0 -4.25614 -9.72868 0 -3.5122 -7.86791 0 -2.87955 -6.34757 0 -2.34938 -5.11056 0 -1.90994 -4.10718 0 -1.54879 -3.29506 0 -1.25403 -2.63861 0 -1.01488 -2.10822 0 -0.821943 -1.67947 0 -0.667204 -1.33223 0 -0.54398 -1.05002 0 -0.44678 -0.819269 0 -0.371174 -0.628811 0 -0.313653 -0.469357 0 -0.271508 -0.333089 0 -0.242734 -0.213298 0 -0.225949 -0.10407 0 -0.220336 1.19209e-07 0 34.598 -1.78814e-07 0 30.4772 -21.895 0 20.8909 -37.9669 0 10.4105 -46.2808 0 1.94705 -48.2228 0 -3.71783 -46.0939 0 -6.92164 -41.8104 0 -8.33169 -36.6573 0 -8.57947 -31.4026 0 -8.14804 -26.4625 0 -7.36903 -22.0337 0 -6.4536 -18.1828 0 -5.5273 -14.9033 0 -4.6588 -12.1517 0 -3.88082 -9.86776 0 -3.20444 -7.98724 0 -2.62848 -6.44822 0 -2.14533 -5.19439 0 -1.74455 -4.17634 0 -1.415 -3.35168 0 -1.1459 -2.68467 0 -0.927507 -2.14549 0 -0.751264 -1.70944 0 -0.609886 -1.35619 0 -0.497283 -1.06902 0 -0.408451 -0.834161 0 -0.339347 -0.640283 0 -0.286769 -0.477943 0 -0.248244 -0.339194 0 -0.22194 -0.217213 0 -0.206595 -0.105982 0 -0.201464 -4.17233e-07 0 30.4327 -1.19209e-07 0 26.9329 -20.6735 0 18.6945 -36.1888 0 9.52875 -44.6231 0 1.99802 -47.0009 0 -3.11993 -45.3356 0 -6.05987 -41.4221 0 -7.38628 -36.5235 0 -7.65469 -31.4258 0 -7.29823 -26.5723 0 -6.61768 -22.1836 0 -5.80617 -18.344 0 -4.97937 -15.0595 0 -4.20107 -12.2944 0 -3.5021 -9.99352 0 -2.89335 -8.09532 0 -2.37433 -6.53948 0 -1.93854 -5.27047 0 -1.57681 -4.23913 0 -1.27921 -3.40311 0 -1.0361 -2.72653 0 -0.838744 -2.17936 0 -0.679437 -1.7367 0 -0.551621 -1.37798 0 -0.449805 -1.08629 0 -0.369474 -0.847706 0 -0.306977 -0.650717 0 -0.259423 -0.485752 0 -0.224577 -0.344747 0 -0.200785 -0.220774 0 -0.186905 -0.107721 0 -0.182264 2.98023e-07 0 26.5099 2.38419e-07 0 23.5543 -19.6333 0 16.5263 -34.6533 0 8.58825 -43.1677 0 1.96635 -45.9116 0 -2.59526 -44.65 0 -5.25175 -41.065 0 -6.47577 -36.3953 0 -6.75038 -31.4403 0 -6.45894 -26.6664 0 -5.8705 -22.315 0 -5.15913 -18.4867 0 -4.42975 -15.1985 0 -3.74066 -12.4219 0 -3.12036 -10.106 0 -2.57928 -8.1921 0 -2.11742 -6.62129 0 -1.72931 -5.33871 0 -1.40695 -4.29549 0 -1.14162 -3.4493 0 -0.924799 -2.76413 0 -0.748727 -2.20979 0 -0.606573 -1.76119 0 -0.492501 -1.39756 0 -0.401621 -1.10182 0 -0.329911 -0.859883 0 -0.274117 -0.660098 0 -0.23166 -0.492774 0 -0.200548 -0.349741 0 -0.179304 -0.223976 0 -0.166911 -0.109284 0 -0.162767 -2.98023e-07 0 22.7909 -5.96046e-08 0 20.3178 -18.7547 0 14.3868 -33.3407 0 7.6004 -41.9055 0 1.86404 -44.9539 0 -2.13471 -44.0398 0 -4.49129 -40.7423 0 -5.5966 -36.2755 0 -5.86462 -31.4482 0 -5.6293 -26.7461 0 -5.12725 -22.429 0 -4.51259 -18.6115 0 -3.87873 -15.3206 0 -3.27793 -12.534 0 -2.73598 -10.2052 0 -2.26257 -8.27757 0 -1.85806 -6.69359 0 -1.5179 -5.39906 0 -1.23521 -4.34537 0 -1.00243 -3.49018 0 -0.81215 -2.79742 0 -0.657593 -2.23675 0 -0.532786 -1.78288 0 -0.432618 -1.41491 0 -0.352806 -1.11559 0 -0.289824 -0.870674 0 -0.240818 -0.668411 0 -0.203524 -0.498998 0 -0.176194 -0.354166 0 -0.157533 -0.226814 0 -0.146645 -0.110671 0 -0.143005 4.76837e-07 0 19.242 2.98023e-07 0 17.202 -18.0215 0 12.2746 -32.2342 0 6.57472 -40.8282 0 1.70207 -44.127 0 -1.72947 -43.507 0 -3.7725 -40.4571 0 -4.74508 -36.1666 0 -4.99537 -31.4513 0 -4.80833 -26.8126 0 -4.3876 -22.5262 0 -3.86658 -18.7188 0 -3.32656 -15.4259 0 -2.81321 -12.6311 0 -2.34931 -10.2911 0 -1.94356 -8.3517 0 -1.59657 -6.75636 0 -1.30458 -5.45149 0 -1.06182 -4.3887 0 -0.861835 -3.52572 0 -0.698323 -2.82637 0 -0.565478 -2.26019 0 -0.458187 -1.80175 0 -0.372065 -1.43001 0 -0.303439 -1.12756 0 -0.249278 -0.880062 0 -0.207134 -0.675645 0 -0.175061 -0.504413 0 -0.151556 -0.358017 0 -0.135506 -0.229284 0 -0.126142 -0.111876 0 -0.12301 -4.17233e-07 0 15.833 -2.98023e-07 0 14.1869 -17.4207 0 10.1876 -31.3198 0 5.51922 -39.9286 0 1.49059 -43.4295 0 -1.37105 -43.0535 0 -3.08939 -40.2117 0 -3.91743 -36.0709 0 -4.14046 -31.4512 0 -3.99496 -26.8671 0 -3.65116 -22.6073 0 -3.22113 -18.8089 0 -2.77345 -15.5147 0 -2.34683 -12.7131 0 -1.96069 -10.3638 0 -1.6226 -8.41447 0 -1.33325 -6.80955 0 -1.08964 -5.49593 0 -0.887009 -4.42546 0 -0.720038 -3.55587 0 -0.583485 -2.85094 0 -0.472522 -2.28008 0 -0.382891 -1.81777 0 -0.310937 -1.44282 0 -0.253595 -1.13772 0 -0.208338 -0.888033 0 -0.173119 -0.681787 0 -0.146316 -0.50901 0 -0.126673 -0.361287 0 -0.113259 -0.231381 0 -0.105433 -0.112901 0 -0.102816 4.76837e-07 0 12.5366 -1.19209e-07 0 11.2538 -16.942 0 8.12245 -30.5861 0 4.44062 -39.2005 0 1.23899 -42.8604 0 -1.0512 -42.6806 0 -2.43596 -40.0082 0 -3.10978 -35.9901 0 -3.29766 -31.4492 0 -3.18805 -26.9105 0 -2.91749 -22.6729 0 -2.5762 -18.8822 0 -2.21959 -15.5871 0 -1.87907 -12.7801 0 -1.57046 -10.4233 0 -1.30002 -8.46588 0 -1.06842 -6.85313 0 -0.873339 -5.53237 0 -0.711022 -4.4556 0 -0.577237 -3.5806 0 -0.467802 -2.87109 0 -0.378863 -2.29641 0 -0.307013 -1.83092 0 -0.249328 -1.45333 0 -0.203354 -1.14606 0 -0.167067 -0.894575 0 -0.138828 -0.686828 0 -0.117336 -0.512785 0 -0.101584 -0.363972 0 -0.0908284 -0.233102 0 -0.0845528 -0.113741 0 -0.0824541 -5.96046e-07 0 9.32786 0 0 8.38507 -16.5772 0 6.07546 -30.024 0 3.34468 -38.639 0 0.956026 -42.4186 0 -0.76192 -42.3894 0 -1.80625 -39.8481 0 -2.31821 -35.9256 0 -2.46462 -31.4465 0 -2.38639 -26.9434 0 -2.18608 -22.7235 0 -1.93172 -18.939 0 -1.66517 -15.6434 0 -1.41023 -12.8322 0 -1.17895 -10.4696 0 -0.97614 -8.50591 0 -0.802374 -6.88708 0 -0.655953 -5.56077 0 -0.534092 -4.4791 0 -0.433632 -3.59988 0 -0.351444 -2.88681 0 -0.284641 -2.30914 0 -0.230668 -1.84117 0 -0.187334 -1.46153 0 -0.152795 -1.15257 0 -0.125533 -0.899679 0 -0.104316 -0.690761 0 -0.0881676 -0.515729 0 -0.0763323 -0.366066 0 -0.0682505 -0.234445 0 -0.0635351 -0.114397 0 -0.0619584 5.96046e-07 0 6.18345 -2.38419e-07 0 5.56392 -16.3204 0 4.04242 -29.6267 0 2.23638 -38.2401 0 0.649983 -42.1031 0 -0.495386 -42.1805 0 -1.1943 -39.7327 0 -1.53874 -35.8787 0 -1.63895 -31.444 0 -1.58869 -26.9665 0 -1.45641 -22.7594 0 -1.2876 -18.9795 0 -1.11034 -15.6835 0 -0.940597 -12.8694 0 -0.786497 -10.5027 0 -0.651296 -8.53456 0 -0.535419 -6.91139 0 -0.437754 -5.5811 0 -0.356455 -4.49593 0 -0.289423 -3.6137 0 -0.234578 -2.89807 0 -0.189996 -2.31826 0 -0.153974 -1.84851 0 -0.12505 -1.46741 0 -0.101996 -1.15723 0 -0.0837989 -0.903336 0 -0.0696363 -0.693579 0 -0.0588572 -0.517839 0 -0.0509568 -0.367566 0 -0.0455619 -0.235408 0 -0.0424142 -0.114867 0 -0.0413616 -5.96046e-07 0 3.08126 2.38419e-07 0 2.77416 -16.1674 0 2.01882 -29.3893 0 1.12013 -38.0009 0 0.328757 -41.9134 0 -0.243934 -42.0544 0 -0.594194 -39.6628 0 -0.767344 -35.8501 0 -0.818237 -31.4422 0 -0.793676 -26.9803 0 -0.727907 -22.781 0 -0.643735 -19.0038 0 -0.555234 -15.7077 0 -0.47043 -12.8918 0 -0.393406 -10.5227 0 -0.325809 -8.55182 0 -0.267861 -6.92604 0 -0.219012 -5.59336 0 -0.178345 -4.50607 0 -0.144812 -3.62202 0 -0.117374 -2.90485 0 -0.0950684 -2.32376 0 -0.0770453 -1.85294 0 -0.0625735 -1.47096 0 -0.0510382 -1.16005 0 -0.0419326 -0.905542 0 -0.0348459 -0.695279 0 -0.0294523 -0.519112 0 -0.025499 -0.368472 0 -0.0227995 -0.235988 0 -0.0212243 -0.11515 0 -0.0206977 4.76837e-07 0 1.49012e-07 -1.19209e-06 0 -7.31088e-08 -16.1157 0 5.96046e-08 -29.309 0 -6.89179e-08 -37.9198 0 4.65661e-08 -41.8489 0 -2.98023e-08 -42.0115 0 5.96046e-08 -39.639 0 -5.96046e-08 -35.8403 0 4.09782e-08 -31.4415 0 0 -26.985 0 -7.45058e-09 -22.7883 0 -1.49012e-08 -19.012 0 -7.45058e-09 -15.7159 0 2.98023e-08 -12.8994 0 -1.49012e-08 -10.5295 0 0 -8.55769 0 -2.23517e-08 -6.93102 0 4.47035e-08 -5.59752 0 -1.49012e-08 -4.50952 0 0 -3.62486 0 0 -2.90716 0 -1.49012e-08 -2.32563 0 -2.98023e-08 -1.85445 0 4.47035e-08 -1.47216 0 -4.47035e-08 -1.161 0 -1.49012e-08 -0.906292 0 1.49012e-08 -0.695857 0 -2.98023e-08 -0.519545 0 -2.98023e-08 -0.368779 0 1.49012e-07 -0.236185 0 -2.98023e-07 -0.115247 0 3.8743e-07 2.38419e-07 0 </DataArray> 
</PointData> 
<Points> 
<DataArray type="Float32" NumberOfComponents="3"> 