<?xml version="1.0"?> 
<VTKFile type="StructuredGrid" version="0.1"> 
<StructuredGrid WholeExtent="0 127 0 127 0 0"> 
<Piece Extent="0 127 0 127 0 0"> 
<PointData>
<DataArray type="Float32" Name="|E|" format="ascii" NumberOfComponents="3"> 
-2.07773e+06 47560.4 0 -2.07971e+06 51761.4 0 -2.08183e+06 55945 0 -2.08408e+06 60114.4 0 -2.08648e+06 64269.9 0 -2.08903e+06 68412.3 0 -2.09171e+06 72542.1 0 -2.09454e+06 76660.2 0 -2.09751e+06 80767.1 0 -2.10062e+06 84863.7 0 -2.10388e+06 88950.5 0 -2.10729e+06 93028.4 0 -2.11084e+06 97098 0 -2.11453e+06 101160 0 -2.11838e+06 105215 0 -2.12237e+06 109264 0 -2.12651e+06 113307 0 -2.1308e+06 117346 0 -2.13524e+06 121381 0 -2.13984e+06 125412 0 -2.14458e+06 129441 0 -2.14948e+06 133468 0 -2.15454e+06 137494 0 -2.15974e+06 141520 0 -2.16511e+06 145546 0 -2.17063e+06 149573 0 -2.17632e+06 153602 0 -2.18216e+06 157633 0 -2.18816e+06 161669 0 -2.19433e+06 165708 0 -2.20066e+06 169752 0 -2.20715e+06 173803 0 -2.21381e+06 177860 0 -2.22064e+06 181924 0 -2.22764e+06 185996 0 -2.23481e+06 190078 0 -2.24216e+06 194169 0 -2.24967e+06 198271 0 -2.25737e+06 202384 0 -2.26524e+06 206510 0 -2.27329e+06 210649 0 -2.28152e+06 214802 0 -2.28994e+06 218969 0 -2.29854e+06 223152 0 -2.30733e+06 227352 0 -2.31631e+06 231568 0 -2.32548e+06 235803 0 -2.33485e+06 240056 0 -2.34441e+06 244329 0 -2.35417e+06 248623 0 -2.36414e+06 252937 0 -2.37431e+06 257273 0 -2.38469e+06 261632 0 -2.39528e+06 266014 0 -2.40608e+06 270420 0 -2.4171e+06 274850 0 -2.42834e+06 279304 0 -2.4398e+06 283785 0 -2.45149e+06 288290 0 -2.46341e+06 292822 0 -2.47556e+06 297380 0 -2.48795e+06 301965 0 -2.50059e+06 306576 0 -2.51347e+06 311213 0 -2.5266e+06 315877 0 -2.53999e+06 320566 0 -2.55363e+06 325280 0 -2.56755e+06 330018 0 -2.58173e+06 334780 0 -2.59619e+06 339564 0 -2.61093e+06 344368 0 -2.62595e+06 349191 0 -2.64127e+06 354030 0 -2.65689e+06 358883 0 -2.67281e+06 363747 0 -2.68905e+06 368618 0 -2.7056e+06 373492 0 -2.72248e+06 378365 0 -2.7397e+06 383230 0 -2.75725e+06 388083 0 -2.77516e+06 392916 0 -2.79342e+06 397721 0 -2.81205e+06 402490 0 -2.83106e+06 407211 0 -2.85045e+06 411875 0 -2.87023e+06 416468 0 -2.89042e+06 420977 0 -2.91102e+06 425384 0 -2.93204e+06 429673 0 -2.95349e+06 433823 0 -2.97539e+06 437812 0 -2.99773e+06 441616 0 -3.02054e+06 445206 0 -3.04381e+06 448553 0 -3.06755e+06 451622 0 -3.09178e+06 454375 0 -3.1165e+06 456771 0 -3.1417e+06 458764 0 -3.16739e+06 460303 0 -3.19357e+06 461333 0 -3.22024e+06 461792 0 -3.24738e+06 461616 0 -3.27498e+06 460731 0 -3.30301e+06 459060 0 -3.33146e+06 456518 0 -3.36027e+06 453017 0 -3.38941e+06 448462 0 -3.41881e+06 442753 0 -3.4484e+06 435786 0 -3.47808e+06 427458 0 -3.50776e+06 417662 0 -3.53731e+06 406295 0 -3.56657e+06 393258 0 -3.59538e+06 378465 0 -3.62354e+06 361839 0 -3.65084e+06 343326 0 -3.67705e+06 322894 0 -3.70191e+06 300541 0 -3.72516e+06 276303 0 -3.74652e+06 250255 0 -3.76574e+06 222516 0 -3.78254e+06 193251 0 -3.7967e+06 162671 0 -3.808e+06 131034 0 -3.81627e+06 98628.9 0 -3.82139e+06 65760.7 0 -3.82331e+06 32664.1 0 -3.82235e+06 2.86102e-06 0 -2.07764e+06 48302.6 0 -2.07963e+06 52508.5 0 -2.08176e+06 56698.4 0 -2.08404e+06 60874.3 0 -2.08645e+06 65036.8 0 -2.08901e+06 69186.3 0 -2.09171e+06 73323.7 0 -2.09455e+06 77449.6 0 -2.09753e+06 81564.8 0 -2.10066e+06 85669.9 0 -2.10393e+06 89765.7 0 -2.10735e+06 93852.8 0 -2.11091e+06 97931.9 0 -2.11462e+06 102004 0 -2.11848e+06 106069 0 -2.12248e+06 110129 0 -2.12663e+06 114183 0 -2.13093e+06 118233 0 -2.13539e+06 122279 0 -2.13999e+06 126323 0 -2.14474e+06 130364 0 -2.14965e+06 134404 0 -2.15472e+06 138443 0 -2.15993e+06 142482 0 -2.16531e+06 146522 0 -2.17084e+06 150563 0 -2.17653e+06 154606 0 -2.18238e+06 158653 0 -2.18839e+06 162704 0 -2.19456e+06 166759 0 -2.2009e+06 170819 0 -2.2074e+06 174886 0 -2.21407e+06 178960 0 -2.2209e+06 183041 0 -2.2279e+06 187132 0 -2.23508e+06 191231 0 -2.24243e+06 195341 0 -2.24995e+06 199462 0 -2.25765e+06 203595 0 -2.26552e+06 207741 0 -2.27357e+06 211900 0 -2.28181e+06 216073 0 -2.29023e+06 220262 0 -2.29883e+06 224467 0 -2.30762e+06 228689 0 -2.3166e+06 232928 0 -2.32578e+06 237186 0 -2.33514e+06 241463 0 -2.34471e+06 245761 0 -2.35447e+06 250079 0 -2.36443e+06 254419 0 -2.3746e+06 258781 0 -2.38498e+06 263166 0 -2.39557e+06 267575 0 -2.40636e+06 272008 0 -2.41738e+06 276467 0 -2.42862e+06 280950 0 -2.44008e+06 285460 0 -2.45176e+06 289996 0 -2.46368e+06 294559 0 -2.47583e+06 299148 0 -2.48821e+06 303765 0 -2.50084e+06 308409 0 -2.51372e+06 313080 0 -2.52684e+06 317778 0 -2.54022e+06 322502 0 -2.55386e+06 327252 0 -2.56777e+06 332027 0 -2.58195e+06 336826 0 -2.5964e+06 341649 0 -2.61113e+06 346492 0 -2.62615e+06 351355 0 -2.64146e+06 356236 0 -2.65707e+06 361131 0 -2.67298e+06 366038 0 -2.68921e+06 370953 0 -2.70576e+06 375873 0 -2.72263e+06 380792 0 -2.73984e+06 385705 0 -2.75739e+06 390607 0 -2.77529e+06 395489 0 -2.79355e+06 400346 0 -2.81217e+06 405167 0 -2.83118e+06 409942 0 -2.85056e+06 414661 0 -2.87035e+06 419311 0 -2.89053e+06 423877 0 -2.91113e+06 428344 0 -2.93216e+06 432693 0 -2.95362e+06 436905 0 -2.97552e+06 440958 0 -2.99788e+06 444827 0 -3.0207e+06 448484 0 -3.04399e+06 451899 0 -3.06776e+06 455036 0 -3.09201e+06 457860 0 -3.11676e+06 460327 0 -3.14201e+06 462392 0 -3.16775e+06 464003 0 -3.19398e+06 465106 0 -3.22071e+06 465638 0 -3.24792e+06 465533 0 -3.2756e+06 464718 0 -3.30373e+06 463114 0 -3.33228e+06 460636 0 -3.36121e+06 457195 0 -3.39048e+06 452692 0 -3.42003e+06 447028 0 -3.44978e+06 440098 0 -3.47965e+06 431793 0 -3.50953e+06 422006 0 -3.53928e+06 410630 0 -3.56877e+06 397565 0 -3.59782e+06 382718 0 -3.62624e+06 366013 0 -3.65381e+06 347388 0 -3.6803e+06 326811 0 -3.70544e+06 304277 0 -3.72896e+06 279819 0 -3.7506e+06 253510 0 -3.77007e+06 225470 0 -3.78711e+06 195865 0 -3.80147e+06 164909 0 -3.81295e+06 132863 0 -3.82136e+06 100021 0 -3.82657e+06 66692 0 -3.82857e+06 33159.8 0 -3.82752e+06 -2.83122e-07 0 -2.07755e+06 49047.3 0 -2.07956e+06 53258.6 0 -2.08171e+06 57454.9 0 -2.084e+06 61637.4 0 -2.08642e+06 65806.7 0 -2.089e+06 69963.5 0 -2.09171e+06 74108.5 0 -2.09456e+06 78242.3 0 -2.09756e+06 82365.7 0 -2.1007e+06 86479.4 0 -2.10398e+06 90584 0 -2.10741e+06 94680.4 0 -2.11099e+06 98769.1 0 -2.11471e+06 102851 0 -2.11858e+06 106926 0 -2.12259e+06 110997 0 -2.12675e+06 115062 0 -2.13107e+06 119123 0 -2.13553e+06 123181 0 -2.14014e+06 127237 0 -2.14491e+06 131290 0 -2.14982e+06 135343 0 -2.1549e+06 139395 0 -2.16012e+06 143447 0 -2.16551e+06 147501 0 -2.17104e+06 151556 0 -2.17674e+06 155615 0 -2.1826e+06 159676 0 -2.18862e+06 163742 0 -2.1948e+06 167813 0 -2.20114e+06 171890 0 -2.20765e+06 175973 0 -2.21432e+06 180064 0 -2.22116e+06 184163 0 -2.22817e+06 188271 0 -2.23535e+06 192388 0 -2.2427e+06 196517 0 -2.25022e+06 200657 0 -2.25792e+06 204809 0 -2.2658e+06 208975 0 -2.27386e+06 213154 0 -2.2821e+06 217349 0 -2.29052e+06 221559 0 -2.29912e+06 225786 0 -2.30791e+06 230030 0 -2.3169e+06 234292 0 -2.32607e+06 238573 0 -2.33544e+06 242874 0 -2.345e+06 247196 0 -2.35476e+06 251539 0 -2.36472e+06 255904 0 -2.37489e+06 260292 0 -2.38527e+06 264704 0 -2.39585e+06 269140 0 -2.40665e+06 273601 0 -2.41766e+06 278087 0 -2.4289e+06 282600 0 -2.44035e+06 287139 0 -2.45203e+06 291705 0 -2.46394e+06 296298 0 -2.47609e+06 300920 0 -2.48847e+06 305569 0 -2.50109e+06 310245 0 -2.51396e+06 314950 0 -2.52708e+06 319682 0 -2.54046e+06 324441 0 -2.55409e+06 329227 0 -2.56799e+06 334039 0 -2.58216e+06 338876 0 -2.5966e+06 343737 0 -2.61133e+06 348620 0 -2.62634e+06 353523 0 -2.64164e+06 358445 0 -2.65724e+06 363383 0 -2.67315e+06 368333 0 -2.68937e+06 373293 0 -2.70591e+06 378257 0 -2.72278e+06 383223 0 -2.73998e+06 388184 0 -2.75752e+06 393134 0 -2.77541e+06 398067 0 -2.79367e+06 402975 0 -2.81229e+06 407848 0 -2.83129e+06 412678 0 -2.85067e+06 417452 0 -2.87045e+06 422158 0 -2.89064e+06 426782 0 -2.91124e+06 431309 0 -2.93227e+06 435719 0 -2.95374e+06 439994 0 -2.97565e+06 444112 0 -2.99802e+06 448046 0 -3.02085e+06 451770 0 -3.04416e+06 455253 0 -3.06796e+06 458460 0 -3.09224e+06 461355 0 -3.11702e+06 463894 0 -3.1423e+06 466032 0 -3.16809e+06 467717 0 -3.19438e+06 468893 0 -3.22117e+06 469499 0 -3.24846e+06 469466 0 -3.27622e+06 468722 0 -3.30444e+06 467188 0 -3.3331e+06 464776 0 -3.36215e+06 461395 0 -3.39156e+06 456948 0 -3.42125e+06 451332 0 -3.45117e+06 444439 0 -3.48122e+06 436161 0 -3.51129e+06 426385 0 -3.54127e+06 415003 0 -3.57099e+06 401911 0 -3.60029e+06 387013 0 -3.62897e+06 370229 0 -3.65681e+06 351495 0 -3.68357e+06 330774 0 -3.709e+06 308059 0 -3.73281e+06 283379 0 -3.75472e+06 256809 0 -3.77445e+06 228465 0 -3.79173e+06 198517 0 -3.80631e+06 167181 0 -3.81797e+06 134720 0 -3.82652e+06 101435 0 -3.83184e+06 67641.2 0 -3.8339e+06 33656.7 0 -3.8328e+06 -5.43892e-07 0 -2.07746e+06 49794.9 0 -2.07949e+06 54011.9 0 -2.08165e+06 58214.5 0 -2.08395e+06 62403.6 0 -2.0864e+06 66579.8 0 -2.08898e+06 70743.9 0 -2.09171e+06 74896.4 0 -2.09458e+06 79038.1 0 -2.09759e+06 83169.8 0 -2.10074e+06 87292 0 -2.10404e+06 91405.6 0 -2.10748e+06 95511.2 0 -2.11107e+06 99609.5 0 -2.1148e+06 103701 0 -2.11868e+06 107787 0 -2.1227e+06 111868 0 -2.12688e+06 115944 0 -2.1312e+06 120017 0 -2.13567e+06 124087 0 -2.1403e+06 128154 0 -2.14507e+06 132220 0 -2.15e+06 136285 0 -2.15508e+06 140350 0 -2.16031e+06 144416 0 -2.1657e+06 148484 0 -2.17125e+06 152553 0 -2.17696e+06 156626 0 -2.18282e+06 160703 0 -2.18884e+06 164784 0 -2.19503e+06 168871 0 -2.20138e+06 172964 0 -2.20789e+06 177063 0 -2.21457e+06 181171 0 -2.22142e+06 185287 0 -2.22843e+06 189413 0 -2.23561e+06 193549 0 -2.24297e+06 197696 0 -2.2505e+06 201855 0 -2.2582e+06 206027 0 -2.26608e+06 210212 0 -2.27414e+06 214412 0 -2.28238e+06 218628 0 -2.2908e+06 222859 0 -2.29941e+06 227107 0 -2.3082e+06 231374 0 -2.31719e+06 235659 0 -2.32636e+06 239963 0 -2.33573e+06 244288 0 -2.34529e+06 248634 0 -2.35505e+06 253002 0 -2.36501e+06 257392 0 -2.37518e+06 261806 0 -2.38555e+06 266245 0 -2.39614e+06 270708 0 -2.40693e+06 275196 0 -2.41794e+06 279711 0 -2.42917e+06 284252 0 -2.44062e+06 288821 0 -2.4523e+06 293417 0 -2.46421e+06 298042 0 -2.47635e+06 302694 0 -2.48872e+06 307376 0 -2.50134e+06 312085 0 -2.51421e+06 316823 0 -2.52732e+06 321590 0 -2.54069e+06 326385 0 -2.55431e+06 331207 0 -2.56821e+06 336055 0 -2.58237e+06 340930 0 -2.5968e+06 345829 0 -2.61152e+06 350752 0 -2.62652e+06 355695 0 -2.64182e+06 360658 0 -2.65741e+06 365638 0 -2.67331e+06 370632 0 -2.68952e+06 375636 0 -2.70606e+06 380646 0 -2.72292e+06 385658 0 -2.74011e+06 390667 0 -2.75765e+06 395666 0 -2.77553e+06 400649 0 -2.79378e+06 405608 0 -2.8124e+06 410534 0 -2.83139e+06 415418 0 -2.85077e+06 420248 0 -2.87055e+06 425011 0 -2.89074e+06 429694 0 -2.91135e+06 434280 0 -2.93238e+06 438752 0 -2.95385e+06 443090 0 -2.97577e+06 447272 0 -2.99815e+06 451272 0 -3.021e+06 455064 0 -3.04433e+06 458616 0 -3.06815e+06 461894 0 -3.09246e+06 464860 0 -3.11727e+06 467472 0 -3.1426e+06 469684 0 -3.16843e+06 471443 0 -3.19478e+06 472694 0 -3.22163e+06 473375 0 -3.24899e+06 473416 0 -3.27684e+06 472746 0 -3.30515e+06 471281 0 -3.33391e+06 468937 0 -3.36309e+06 465620 0 -3.39263e+06 461230 0 -3.42248e+06 455664 0 -3.45256e+06 448811 0 -3.48279e+06 440561 0 -3.51307e+06 430799 0 -3.54326e+06 419413 0 -3.57322e+06 406297 0 -3.60277e+06 391351 0 -3.63171e+06 374490 0 -3.65983e+06 355648 0 -3.68688e+06 334784 0 -3.7126e+06 311887 0 -3.7367e+06 286986 0 -3.75889e+06 260152 0 -3.77889e+06 231503 0 -3.79642e+06 201208 0 -3.81122e+06 169486 0 -3.82307e+06 136605 0 -3.83177e+06 102872 0 -3.83719e+06 68607.6 0 -3.8393e+06 34156.8 0 -3.83817e+06 1.55717e-06 0 -2.07738e+06 50545.5 0 -2.07941e+06 54768.3 0 -2.08159e+06 58977.2 0 -2.08391e+06 63172.9 0 -2.08637e+06 67356.1 0 -2.08897e+06 71527.4 0 -2.09171e+06 75687.5 0 -2.09459e+06 79837.2 0 -2.09762e+06 83977.1 0 -2.10078e+06 88107.9 0 -2.10409e+06 92230.4 0 -2.10755e+06 96345.3 0 -2.11115e+06 100453 0 -2.11489e+06 104555 0 -2.11878e+06 108651 0 -2.12282e+06 112742 0 -2.127e+06 116830 0 -2.13133e+06 120914 0 -2.13582e+06 124995 0 -2.14045e+06 129075 0 -2.14523e+06 133153 0 -2.15017e+06 137231 0 -2.15526e+06 141309 0 -2.1605e+06 145389 0 -2.1659e+06 149470 0 -2.17146e+06 153554 0 -2.17717e+06 157641 0 -2.18304e+06 161733 0 -2.18907e+06 165829 0 -2.19526e+06 169932 0 -2.20162e+06 174041 0 -2.20814e+06 178157 0 -2.21482e+06 182282 0 -2.22167e+06 186415 0 -2.22869e+06 190559 0 -2.23588e+06 194713 0 -2.24324e+06 198879 0 -2.25077e+06 203057 0 -2.25848e+06 207248 0 -2.26636e+06 211454 0 -2.27442e+06 215674 0 -2.28267e+06 219910 0 -2.29109e+06 224163 0 -2.2997e+06 228433 0 -2.30849e+06 232721 0 -2.31748e+06 237029 0 -2.32665e+06 241357 0 -2.33602e+06 245705 0 -2.34558e+06 250076 0 -2.35534e+06 254468 0 -2.3653e+06 258884 0 -2.37547e+06 263324 0 -2.38584e+06 267789 0 -2.39642e+06 272279 0 -2.40721e+06 276795 0 -2.41822e+06 281338 0 -2.42944e+06 285909 0 -2.44089e+06 290507 0 -2.45256e+06 295133 0 -2.46447e+06 299789 0 -2.4766e+06 304473 0 -2.48897e+06 309186 0 -2.50159e+06 313929 0 -2.51444e+06 318701 0 -2.52755e+06 323502 0 -2.54091e+06 328331 0 -2.55453e+06 333189 0 -2.56842e+06 338075 0 -2.58257e+06 342987 0 -2.597e+06 347925 0 -2.61171e+06 352887 0 -2.62671e+06 357871 0 -2.64199e+06 362875 0 -2.65758e+06 367898 0 -2.67347e+06 372934 0 -2.68968e+06 377983 0 -2.7062e+06 383039 0 -2.72305e+06 388097 0 -2.74024e+06 393154 0 -2.75777e+06 398202 0 -2.77565e+06 403236 0 -2.79389e+06 408246 0 -2.8125e+06 413225 0 -2.83149e+06 418163 0 -2.85087e+06 423049 0 -2.87065e+06 427869 0 -2.89084e+06 432611 0 -2.91144e+06 437257 0 -2.93248e+06 441791 0 -2.95396e+06 446192 0 -2.97589e+06 450439 0 -2.99828e+06 454506 0 -3.02114e+06 458366 0 -3.04449e+06 461987 0 -3.06833e+06 465336 0 -3.09267e+06 468375 0 -3.11752e+06 471061 0 -3.14288e+06 473347 0 -3.16876e+06 475183 0 -3.19517e+06 476510 0 -3.22208e+06 477266 0 -3.24951e+06 477384 0 -3.27744e+06 476787 0 -3.30586e+06 475395 0 -3.33473e+06 473121 0 -3.36402e+06 469869 0 -3.3937e+06 465538 0 -3.4237e+06 460024 0 -3.45395e+06 453214 0 -3.48437e+06 444994 0 -3.51485e+06 435248 0 -3.54526e+06 423862 0 -3.57546e+06 410723 0 -3.60526e+06 395730 0 -3.63448e+06 378795 0 -3.66288e+06 359847 0 -3.69022e+06 338840 0 -3.71623e+06 315763 0 -3.74063e+06 290641 0 -3.76311e+06 263542 0 -3.78339e+06 234584 0 -3.80118e+06 203939 0 -3.8162e+06 171827 0 -3.82824e+06 138521 0 -3.83709e+06 104331 0 -3.84262e+06 69590.9 0 -3.84479e+06 34661.6 0 -3.84363e+06 -1.78814e-07 0 -2.07729e+06 51299.1 0 -2.07935e+06 55527.8 0 -2.08154e+06 59743 0 -2.08387e+06 63945.3 0 -2.08635e+06 68135.4 0 -2.08896e+06 72314 0 -2.09172e+06 76481.8 0 -2.09461e+06 80639.4 0 -2.09765e+06 84787.6 0 -2.10083e+06 88927 0 -2.10415e+06 93058.5 0 -2.10762e+06 97182.6 0 -2.11123e+06 101300 0 -2.11498e+06 105412 0 -2.11888e+06 109518 0 -2.12293e+06 113620 0 -2.12713e+06 117719 0 -2.13147e+06 121814 0 -2.13596e+06 125907 0 -2.1406e+06 129999 0 -2.1454e+06 134089 0 -2.15034e+06 138180 0 -2.15544e+06 142271 0 -2.16069e+06 146364 0 -2.1661e+06 150459 0 -2.17166e+06 154558 0 -2.17738e+06 158660 0 -2.18326e+06 162766 0 -2.1893e+06 166878 0 -2.1955e+06 170996 0 -2.20186e+06 175121 0 -2.20838e+06 179254 0 -2.21507e+06 183396 0 -2.22193e+06 187547 0 -2.22895e+06 191708 0 -2.23614e+06 195880 0 -2.24351e+06 200065 0 -2.25104e+06 204262 0 -2.25875e+06 208473 0 -2.26664e+06 212698 0 -2.27471e+06 216939 0 -2.28295e+06 221196 0 -2.29138e+06 225470 0 -2.29999e+06 229762 0 -2.30878e+06 234073 0 -2.31777e+06 238403 0 -2.32694e+06 242754 0 -2.33631e+06 247126 0 -2.34587e+06 251521 0 -2.35563e+06 255938 0 -2.36559e+06 260380 0 -2.37575e+06 264846 0 -2.38612e+06 269337 0 -2.3967e+06 273854 0 -2.40749e+06 278398 0 -2.41849e+06 282969 0 -2.42971e+06 287568 0 -2.44116e+06 292196 0 -2.45283e+06 296853 0 -2.46473e+06 301539 0 -2.47686e+06 306254 0 -2.48922e+06 311000 0 -2.50183e+06 315776 0 -2.51468e+06 320581 0 -2.52778e+06 325417 0 -2.54114e+06 330282 0 -2.55475e+06 335176 0 -2.56863e+06 340098 0 -2.58277e+06 345048 0 -2.5972e+06 350024 0 -2.6119e+06 355026 0 -2.62688e+06 360050 0 -2.64216e+06 365096 0 -2.65774e+06 370161 0 -2.67362e+06 375241 0 -2.68982e+06 380334 0 -2.70634e+06 385435 0 -2.72318e+06 390541 0 -2.74036e+06 395645 0 -2.75788e+06 400743 0 -2.77576e+06 405827 0 -2.79399e+06 410889 0 -2.8126e+06 415921 0 -2.83159e+06 420914 0 -2.85096e+06 425855 0 -2.87074e+06 430733 0 -2.89092e+06 435533 0 -2.91153e+06 440240 0 -2.93257e+06 444836 0 -2.95406e+06 449301 0 -2.97599e+06 453613 0 -2.9984e+06 457747 0 -3.02128e+06 461676 0 -3.04464e+06 465368 0 -3.06851e+06 468789 0 -3.09287e+06 471901 0 -3.11776e+06 474661 0 -3.14316e+06 477023 0 -3.16909e+06 478935 0 -3.19555e+06 480340 0 -3.22253e+06 481174 0 -3.25003e+06 481368 0 -3.27804e+06 480847 0 -3.30655e+06 479530 0 -3.33553e+06 477326 0 -3.36495e+06 474141 0 -3.39476e+06 469873 0 -3.42492e+06 464413 0 -3.45534e+06 457648 0 -3.48595e+06 449461 0 -3.51663e+06 439734 0 -3.54727e+06 428349 0 -3.57771e+06 415191 0 -3.60777e+06 400154 0 -3.63726e+06 383146 0 -3.66595e+06 364093 0 -3.69359e+06 342946 0 -3.71991e+06 319688 0 -3.7446e+06 294343 0 -3.76739e+06 266978 0 -3.78795e+06 237710 0 -3.80599e+06 206711 0 -3.82125e+06 174204 0 -3.83348e+06 140466 0 -3.84249e+06 105814 0 -3.84813e+06 70591.2 0 -3.85036e+06 35172 0 -3.84918e+06 -2.04146e-06 0 -2.07721e+06 52055.7 0 -2.07928e+06 56290.4 0 -2.08149e+06 60511.9 0 -2.08384e+06 64720.9 0 -2.08633e+06 68917.9 0 -2.08895e+06 73103.8 0 -2.09172e+06 77279.2 0 -2.09463e+06 81444.8 0 -2.09768e+06 85601.3 0 -2.10087e+06 89749.4 0 -2.10421e+06 93889.8 0 -2.10769e+06 98023.2 0 -2.11131e+06 102150 0 -2.11507e+06 106272 0 -2.11899e+06 110389 0 -2.12305e+06 114502 0 -2.12725e+06 118611 0 -2.13161e+06 122718 0 -2.13611e+06 126822 0 -2.14076e+06 130926 0 -2.14556e+06 135029 0 -2.15052e+06 139132 0 -2.15562e+06 143237 0 -2.16088e+06 147343 0 -2.1663e+06 151452 0 -2.17187e+06 155565 0 -2.1776e+06 159681 0 -2.18348e+06 163803 0 -2.18953e+06 167930 0 -2.19573e+06 172064 0 -2.2021e+06 176206 0 -2.20863e+06 180355 0 -2.21532e+06 184513 0 -2.22218e+06 188682 0 -2.22921e+06 192861 0 -2.23641e+06 197051 0 -2.24378e+06 201254 0 -2.25132e+06 205471 0 -2.25903e+06 209701 0 -2.26692e+06 213946 0 -2.27499e+06 218207 0 -2.28323e+06 222485 0 -2.29166e+06 226780 0 -2.30027e+06 231094 0 -2.30907e+06 235427 0 -2.31805e+06 239780 0 -2.32723e+06 244155 0 -2.33659e+06 248551 0 -2.34616e+06 252970 0 -2.35591e+06 257412 0 -2.36587e+06 261879 0 -2.37604e+06 266371 0 -2.3864e+06 270888 0 -2.39698e+06 275432 0 -2.40776e+06 280004 0 -2.41876e+06 284604 0 -2.42998e+06 289232 0 -2.44142e+06 293889 0 -2.45309e+06 298576 0 -2.46498e+06 303293 0 -2.47711e+06 308040 0 -2.48947e+06 312818 0 -2.50207e+06 317626 0 -2.51491e+06 322465 0 -2.52801e+06 327335 0 -2.54136e+06 332235 0 -2.55496e+06 337165 0 -2.56883e+06 342125 0 -2.58297e+06 347112 0 -2.59739e+06 352127 0 -2.61208e+06 357168 0 -2.62706e+06 362233 0 -2.64233e+06 367321 0 -2.6579e+06 372427 0 -2.67377e+06 377551 0 -2.68996e+06 382689 0 -2.70647e+06 387836 0 -2.72331e+06 392988 0 -2.74048e+06 398141 0 -2.75799e+06 403287 0 -2.77586e+06 408422 0 -2.79409e+06 413536 0 -2.81269e+06 418622 0 -2.83167e+06 423669 0 -2.85105e+06 428666 0 -2.87082e+06 433602 0 -2.89101e+06 438461 0 -2.91162e+06 443229 0 -2.93266e+06 447888 0 -2.95415e+06 452417 0 -2.97609e+06 456795 0 -2.99851e+06 460997 0 -3.0214e+06 464994 0 -3.04479e+06 468757 0 -3.06867e+06 472251 0 -3.09307e+06 475437 0 -3.11799e+06 478273 0 -3.14343e+06 480712 0 -3.16941e+06 482701 0 -3.19592e+06 484184 0 -3.22297e+06 485097 0 -3.25054e+06 485369 0 -3.27864e+06 484926 0 -3.30724e+06 483685 0 -3.33633e+06 481554 0 -3.36587e+06 478439 0 -3.39582e+06 474234 0 -3.42613e+06 468831 0 -3.45673e+06 462113 0 -3.48752e+06 453963 0 -3.51842e+06 444257 0 -3.54928e+06 432876 0 -3.57997e+06 419700 0 -3.6103e+06 404622 0 -3.64007e+06 387544 0 -3.66905e+06 368387 0 -3.69699e+06 347100 0 -3.72362e+06 323663 0 -3.74862e+06 298095 0 -3.77171e+06 270463 0 -3.79256e+06 240882 0 -3.81087e+06 209524 0 -3.82637e+06 176618 0 -3.8388e+06 142443 0 -3.84797e+06 107322 0 -3.85372e+06 71608.4 0 -3.85601e+06 35689.1 0 -3.85483e+06 2.77162e-06 0 -2.07713e+06 52815.4 0 -2.07922e+06 57056.1 0 -2.08144e+06 61283.9 0 -2.0838e+06 65499.5 0 -2.08631e+06 69703.6 0 -2.08895e+06 73896.8 0 -2.09173e+06 78079.8 0 -2.09465e+06 82253.4 0 -2.09771e+06 86418.2 0 -2.10092e+06 90574.9 0 -2.10427e+06 94724.3 0 -2.10776e+06 98867 0 -2.11139e+06 103004 0 -2.11517e+06 107136 0 -2.11909e+06 111263 0 -2.12316e+06 115386 0 -2.12738e+06 119506 0 -2.13174e+06 123624 0 -2.13626e+06 127741 0 -2.14092e+06 131856 0 -2.14573e+06 135972 0 -2.15069e+06 140088 0 -2.15581e+06 144206 0 -2.16108e+06 148326 0 -2.1665e+06 152449 0 -2.17208e+06 156575 0 -2.17781e+06 160707 0 -2.1837e+06 164843 0 -2.18976e+06 168986 0 -2.19597e+06 173136 0 -2.20234e+06 177293 0 -2.20887e+06 181459 0 -2.21557e+06 185635 0 -2.22244e+06 189820 0 -2.22947e+06 194017 0 -2.23667e+06 198226 0 -2.24404e+06 202447 0 -2.25159e+06 206683 0 -2.2593e+06 210932 0 -2.2672e+06 215198 0 -2.27527e+06 219479 0 -2.28351e+06 223778 0 -2.29194e+06 228094 0 -2.30056e+06 232430 0 -2.30935e+06 236785 0 -2.31834e+06 241161 0 -2.32751e+06 245559 0 -2.33688e+06 249979 0 -2.34644e+06 254422 0 -2.3562e+06 258889 0 -2.36616e+06 263381 0 -2.37632e+06 267899 0 -2.38668e+06 272443 0 -2.39725e+06 277014 0 -2.40804e+06 281614 0 -2.41903e+06 286241 0 -2.43025e+06 290898 0 -2.44169e+06 295585 0 -2.45335e+06 300302 0 -2.46523e+06 305050 0 -2.47735e+06 309829 0 -2.48971e+06 314639 0 -2.5023e+06 319480 0 -2.51514e+06 324353 0 -2.52823e+06 329257 0 -2.54157e+06 334193 0 -2.55517e+06 339159 0 -2.56903e+06 344155 0 -2.58317e+06 349180 0 -2.59757e+06 354234 0 -2.61226e+06 359314 0 -2.62723e+06 364420 0 -2.64249e+06 369549 0 -2.65805e+06 374698 0 -2.67392e+06 379866 0 -2.6901e+06 385048 0 -2.7066e+06 390240 0 -2.72343e+06 395440 0 -2.74059e+06 400640 0 -2.7581e+06 405836 0 -2.77596e+06 411021 0 -2.79418e+06 416188 0 -2.81278e+06 421327 0 -2.83176e+06 426429 0 -2.85113e+06 431483 0 -2.8709e+06 436476 0 -2.89108e+06 441395 0 -2.91169e+06 446224 0 -2.93274e+06 450946 0 -2.95423e+06 455540 0 -2.97619e+06 459984 0 -2.99861e+06 464253 0 -3.02152e+06 468321 0 -3.04493e+06 472155 0 -3.06884e+06 475722 0 -3.09326e+06 478983 0 -3.11821e+06 481895 0 -3.1437e+06 484412 0 -3.16972e+06 486480 0 -3.19628e+06 488043 0 -3.2234e+06 489035 0 -3.25105e+06 489388 0 -3.27923e+06 489024 0 -3.30793e+06 487860 0 -3.33713e+06 485805 0 -3.36679e+06 482761 0 -3.39688e+06 478622 0 -3.42735e+06 473278 0 -3.45812e+06 466611 0 -3.48911e+06 458499 0 -3.52021e+06 448817 0 -3.55131e+06 437442 0 -3.58224e+06 424253 0 -3.61284e+06 409135 0 -3.64289e+06 391988 0 -3.67217e+06 372731 0 -3.70043e+06 351306 0 -3.72736e+06 327689 0 -3.75269e+06 301898 0 -3.77608e+06 273996 0 -3.79723e+06 244100 0 -3.81582e+06 212381 0 -3.83156e+06 179070 0 -3.84421e+06 144452 0 -3.85354e+06 108855 0 -3.8594e+06 72643 0 -3.86175e+06 36213.4 0 -3.86056e+06 -3.11434e-06 0 -2.07705e+06 53578.1 0 -2.07915e+06 57824.8 0 -2.08139e+06 62059 0 -2.08377e+06 66281.3 0 -2.08629e+06 70492.4 0 -2.08894e+06 74692.9 0 -2.09174e+06 78883.6 0 -2.09467e+06 83065.1 0 -2.09775e+06 87238.3 0 -2.10097e+06 91403.7 0 -2.10433e+06 95562 0 -2.10783e+06 99714.1 0 -2.11147e+06 103861 0 -2.11526e+06 108002 0 -2.1192e+06 112140 0 -2.12328e+06 116274 0 -2.12751e+06 120405 0 -2.13188e+06 124535 0 -2.1364e+06 128663 0 -2.14107e+06 132790 0 -2.1459e+06 136918 0 -2.15087e+06 141048 0 -2.15599e+06 145178 0 -2.16127e+06 149312 0 -2.1667e+06 153449 0 -2.17228e+06 157589 0 -2.17803e+06 161735 0 -2.18393e+06 165887 0 -2.18998e+06 170045 0 -2.1962e+06 174210 0 -2.20258e+06 178384 0 -2.20912e+06 182567 0 -2.21582e+06 186759 0 -2.22269e+06 190962 0 -2.22973e+06 195177 0 -2.23694e+06 199404 0 -2.24431e+06 203644 0 -2.25186e+06 207898 0 -2.25958e+06 212167 0 -2.26747e+06 216453 0 -2.27554e+06 220754 0 -2.28379e+06 225074 0 -2.29223e+06 229412 0 -2.30084e+06 233769 0 -2.30964e+06 238147 0 -2.31862e+06 242546 0 -2.3278e+06 246966 0 -2.33716e+06 251410 0 -2.34672e+06 255878 0 -2.35648e+06 260370 0 -2.36644e+06 264887 0 -2.3766e+06 269431 0 -2.38696e+06 274001 0 -2.39753e+06 278600 0 -2.40831e+06 283227 0 -2.4193e+06 287883 0 -2.43051e+06 292569 0 -2.44194e+06 297285 0 -2.4536e+06 302032 0 -2.46548e+06 306811 0 -2.4776e+06 311621 0 -2.48995e+06 316463 0 -2.50254e+06 321337 0 -2.51537e+06 326244 0 -2.52845e+06 331183 0 -2.54179e+06 336154 0 -2.55538e+06 341156 0 -2.56923e+06 346189 0 -2.58336e+06 351252 0 -2.59775e+06 356344 0 -2.61243e+06 361464 0 -2.62739e+06 366610 0 -2.64265e+06 371781 0 -2.6582e+06 376973 0 -2.67406e+06 382184 0 -2.69023e+06 387410 0 -2.70672e+06 392649 0 -2.72354e+06 397895 0 -2.7407e+06 403144 0 -2.7582e+06 408390 0 -2.77605e+06 413626 0 -2.79427e+06 418844 0 -2.81286e+06 424037 0 -2.83183e+06 429194 0 -2.8512e+06 434304 0 -2.87097e+06 439356 0 -2.89115e+06 444335 0 -2.91176e+06 449225 0 -2.93281e+06 454010 0 -2.95431e+06 458669 0 -2.97628e+06 463180 0 -2.99871e+06 467518 0 -3.02164e+06 471656 0 -3.04506e+06 475562 0 -3.06899e+06 479203 0 -3.09344e+06 482539 0 -3.11843e+06 485529 0 -3.14395e+06 488124 0 -3.17002e+06 490273 0 -3.19664e+06 491916 0 -3.22382e+06 492990 0 -3.25154e+06 493424 0 -3.27981e+06 493141 0 -3.30861e+06 492057 0 -3.33792e+06 490079 0 -3.36771e+06 487108 0 -3.39794e+06 483038 0 -3.42856e+06 477755 0 -3.45951e+06 471141 0 -3.49069e+06 463070 0 -3.52201e+06 453415 0 -3.55333e+06 442050 0 -3.58452e+06 428848 0 -3.61539e+06 413694 0 -3.64573e+06 396481 0 -3.67532e+06 377124 0 -3.70389e+06 355562 0 -3.73115e+06 331767 0 -3.7568e+06 305753 0 -3.78051e+06 277581 0 -3.80196e+06 247366 0 -3.82083e+06 215282 0 -3.83683e+06 181562 0 -3.84969e+06 146493 0 -3.85918e+06 110414 0 -3.86517e+06 73695.2 0 -3.86758e+06 36745.5 0 -3.86639e+06 1.78814e-06 0 -2.07698e+06 54343.9 0 -2.07909e+06 58596.7 0 -2.08135e+06 62837.3 0 -2.08374e+06 67066.3 0 -2.08627e+06 71284.3 0 -2.08894e+06 75492.2 0 -2.09175e+06 79690.6 0 -2.0947e+06 83880.1 0 -2.09778e+06 88061.6 0 -2.10102e+06 92235.7 0 -2.10439e+06 96403 0 -2.1079e+06 100564 0 -2.11156e+06 104721 0 -2.11536e+06 108872 0 -2.11931e+06 113020 0 -2.1234e+06 117165 0 -2.12763e+06 121307 0 -2.13202e+06 125448 0 -2.13655e+06 129588 0 -2.14123e+06 133728 0 -2.14606e+06 137868 0 -2.15104e+06 142010 0 -2.15618e+06 146154 0 -2.16146e+06 150301 0 -2.1669e+06 154452 0 -2.17249e+06 158607 0 -2.17824e+06 162767 0 -2.18415e+06 166934 0 -2.19021e+06 171107 0 -2.19643e+06 175289 0 -2.20282e+06 179478 0 -2.20936e+06 183678 0 -2.21607e+06 187887 0 -2.22295e+06 192107 0 -2.22999e+06 196340 0 -2.2372e+06 200585 0 -2.24458e+06 204844 0 -2.25213e+06 209117 0 -2.25985e+06 213406 0 -2.26775e+06 217711 0 -2.27582e+06 222033 0 -2.28407e+06 226374 0 -2.29251e+06 230733 0 -2.30112e+06 235112 0 -2.30992e+06 239512 0 -2.31891e+06 243934 0 -2.32808e+06 248378 0 -2.33745e+06 252845 0 -2.34701e+06 257337 0 -2.35676e+06 261854 0 -2.36672e+06 266396 0 -2.37687e+06 270966 0 -2.38723e+06 275563 0 -2.3978e+06 280189 0 -2.40858e+06 284843 0 -2.41957e+06 289528 0 -2.43077e+06 294242 0 -2.4422e+06 298988 0 -2.45385e+06 303765 0 -2.46573e+06 308575 0 -2.47784e+06 313417 0 -2.49018e+06 318291 0 -2.50277e+06 323198 0 -2.51559e+06 328139 0 -2.52867e+06 333112 0 -2.542e+06 338118 0 -2.55558e+06 343156 0 -2.56943e+06 348226 0 -2.58354e+06 353327 0 -2.59793e+06 358458 0 -2.6126e+06 363618 0 -2.62755e+06 368804 0 -2.6428e+06 374016 0 -2.65835e+06 379251 0 -2.6742e+06 384505 0 -2.69036e+06 389777 0 -2.70684e+06 395062 0 -2.72365e+06 400355 0 -2.7408e+06 405652 0 -2.75829e+06 410947 0 -2.77614e+06 416234 0 -2.79435e+06 421505 0 -2.81294e+06 426751 0 -2.8319e+06 431964 0 -2.85127e+06 437131 0 -2.87103e+06 442241 0 -2.89122e+06 447280 0 -2.91183e+06 452232 0 -2.93288e+06 457080 0 -2.95439e+06 461805 0 -2.97636e+06 466383 0 -2.9988e+06 470790 0 -3.02174e+06 474999 0 -3.04518e+06 478978 0 -3.06914e+06 482694 0 -3.09362e+06 486107 0 -3.11863e+06 489174 0 -3.1442e+06 491849 0 -3.17032e+06 494079 0 -3.19699e+06 495804 0 -3.22423e+06 496961 0 -3.25203e+06 497478 0 -3.28038e+06 497278 0 -3.30928e+06 496274 0 -3.3387e+06 494375 0 -3.36862e+06 491480 0 -3.39899e+06 487481 0 -3.42977e+06 482262 0 -3.46089e+06 475703 0 -3.49227e+06 467676 0 -3.52381e+06 458051 0 -3.55537e+06 446698 0 -3.58681e+06 433488 0 -3.61796e+06 418300 0 -3.6486e+06 401024 0 -3.67849e+06 381569 0 -3.70738e+06 359871 0 -3.73497e+06 335898 0 -3.76095e+06 309660 0 -3.78499e+06 281217 0 -3.80675e+06 250681 0 -3.82591e+06 218228 0 -3.84217e+06 184093 0 -3.85525e+06 148569 0 -3.86492e+06 111999 0 -3.87103e+06 74765.5 0 -3.8735e+06 37286 0 -3.87232e+06 -7.7486e-07 0 -2.0769e+06 55112.8 0 -2.07903e+06 59371.7 0 -2.0813e+06 63618.6 0 -2.08371e+06 67854.3 0 -2.08625e+06 72079.4 0 -2.08894e+06 76294.7 0 -2.09176e+06 80500.7 0 -2.09472e+06 84698.3 0 -2.09782e+06 88888.1 0 -2.10107e+06 93070.9 0 -2.10445e+06 97247.3 0 -2.10798e+06 101418 0 -2.11165e+06 105584 0 -2.11546e+06 109746 0 -2.11941e+06 113904 0 -2.12352e+06 118059 0 -2.12776e+06 122213 0 -2.13216e+06 126365 0 -2.1367e+06 130517 0 -2.14139e+06 134668 0 -2.14623e+06 138821 0 -2.15122e+06 142976 0 -2.15636e+06 147133 0 -2.16165e+06 151294 0 -2.1671e+06 155458 0 -2.1727e+06 159628 0 -2.17846e+06 163803 0 -2.18437e+06 167984 0 -2.19044e+06 172173 0 -2.19667e+06 176370 0 -2.20306e+06 180576 0 -2.20961e+06 184792 0 -2.21632e+06 189018 0 -2.2232e+06 193256 0 -2.23025e+06 197506 0 -2.23746e+06 201770 0 -2.24484e+06 206047 0 -2.2524e+06 210340 0 -2.26012e+06 214648 0 -2.26802e+06 218973 0 -2.2761e+06 223316 0 -2.28435e+06 227677 0 -2.29279e+06 232057 0 -2.3014e+06 236458 0 -2.3102e+06 240881 0 -2.31919e+06 245325 0 -2.32836e+06 249792 0 -2.33773e+06 254283 0 -2.34729e+06 258799 0 -2.35704e+06 263341 0 -2.36699e+06 267909 0 -2.37715e+06 272505 0 -2.3875e+06 277128 0 -2.39807e+06 281781 0 -2.40884e+06 286463 0 -2.41983e+06 291176 0 -2.43103e+06 295919 0 -2.44246e+06 300695 0 -2.4541e+06 305502 0 -2.46598e+06 310342 0 -2.47808e+06 315216 0 -2.49042e+06 320122 0 -2.50299e+06 325063 0 -2.51581e+06 330037 0 -2.52888e+06 335045 0 -2.5422e+06 340086 0 -2.55578e+06 345160 0 -2.56962e+06 350267 0 -2.58373e+06 355406 0 -2.59811e+06 360576 0 -2.61277e+06 365775 0 -2.62771e+06 37100