<?xml version="1.0"?> 
<VTKFile type="StructuredGrid" version="0.1"> 
<StructuredGrid WholeExtent="0 127 0 127 0 0"> 
<Piece Extent="0 127 0 127 0 0"> 
<PointData>
<DataArray type="Float32" Name="|E|" format="ascii" NumberOfComponents="3"> 
2.38419e-07 1.0109e+07 0 -2.60305e-07 8.21218e+06 0 7.72998e-08 6.74587e+06 0 1.73226e-07 5.84026e+06 0 -8.3819e-08 5.23932e+06 0 1.3411e-07 4.79769e+06 0 1.00583e-07 4.45302e+06 0 -3.8743e-07 4.17168e+06 0 2.49594e-07 3.93463e+06 0 3.72529e-08 3.73022e+06 0 -2.98023e-08 3.55072e+06 0 1.2666e-07 3.39075e+06 0 -1.49012e-08 3.24644e+06 0 1.49012e-08 3.11494e+06 0 -1.19209e-07 2.99407e+06 0 2.23517e-08 2.88214e+06 0 7.45058e-09 2.77781e+06 0 -1.19209e-07 2.68001e+06 0 1.49012e-08 2.58787e+06 0 -7.45058e-08 2.50067e+06 0 2.98023e-08 2.41781e+06 0 -1.78814e-07 2.3388e+06 0 7.45058e-08 2.2632e+06 0 -2.38419e-07 2.19066e+06 0 7.45058e-08 2.12086e+06 0 -4.47035e-08 2.05354e+06 0 7.45058e-08 1.98846e+06 0 -1.49012e-07 1.92543e+06 0 5.96046e-08 1.86426e+06 0 -7.45058e-08 1.8048e+06 0 1.63913e-07 1.74693e+06 0 -8.9407e-08 1.69051e+06 0 -5.96046e-08 1.63544e+06 0 1.49012e-07 1.58164e+06 0 0 1.52902e+06 0 -1.78814e-07 1.47752e+06 0 1.78814e-07 1.42708e+06 0 8.9407e-08 1.37764e+06 0 -1.49012e-07 1.32916e+06 0 8.9407e-08 1.2816e+06 0 5.96046e-08 1.23494e+06 0 -2.08616e-07 1.18915e+06 0 1.78814e-07 1.14421e+06 0 2.98023e-08 1.1001e+06 0 -2.38419e-07 1.05682e+06 0 1.49012e-07 1.01437e+06 0 2.98023e-08 972736 0 -2.08616e-07 931932 0 1.78814e-07 891961 0 0 852833 0 -1.49012e-07 814561 0 2.38419e-07 777159 0 0 740643 0 -1.19209e-07 705031 0 1.78814e-07 670342 0 0 636595 0 -1.49012e-07 603810 0 1.49012e-07 572004 0 -2.98023e-08 541196 0 -1.49012e-07 511402 0 2.08616e-07 482637 0 -5.96046e-08 454912 0 -1.19209e-07 428237 0 3.27826e-07 402620 0 -2.98023e-08 378062 0 0 354565 0 2.98023e-08 332125 0 -5.96046e-08 310734 0 0 290382 0 0 271055 0 0 252734 0 5.96046e-08 235400 0 0 219028 0 5.96046e-08 203591 0 -5.96046e-08 189061 0 0 175408 0 0 162598 0 0 150599 0 0 139374 0 1.78814e-07 128889 0 -1.78814e-07 119109 0 1.78814e-07 109997 0 -1.78814e-07 101518 0 1.19209e-07 93637.8 0 -1.19209e-07 86321.1 0 5.96046e-08 79534.7 0 0 73246.3 0 5.96046e-08 67424.5 0 -5.96046e-08 62039.3 0 0 57061.8 0 0 52464.5 0 0 48221.3 0 5.96046e-08 44307.4 0 5.96046e-08 40699.4 0 1.19209e-07 37375.2 0 -5.96046e-08 34314 0 1.19209e-07 31496.4 0 -5.96046e-08 28904.1 0 -5.96046e-08 26520.1 0 0 24328.4 0 -1.19209e-07 22314.3 0 1.19209e-07 20464 0 -1.19209e-07 18764.7 0 5.96046e-08 17204.4 0 -1.78814e-07 15772.3 0 5.96046e-08 14458.1 0 -5.96046e-08 13252.4 0 2.98023e-07 12146.4 0 -5.36442e-07 11132.3 0 3.57628e-07 10202.4 0 -2.38419e-07 9350.18 0 0 8569.18 0 2.38419e-07 7853.69 0 -3.57628e-07 7198.4 0 1.19209e-07 6598.49 0 0 6049.52 0 -1.19209e-07 5547.47 0 4.17233e-07 5088.77 0 -5.96046e-07 4670.01 0 4.76837e-07 4288.89 0 -3.57628e-07 3941.79 0 2.98023e-07 3630.59 0 -2.38419e-07 3345.29 0 2.98023e-07 3111.9 0 -3.57628e-07 2871.46 0 1.78814e-07 2811 0 5.96046e-08 2544.1 0 -7.15256e-07 5129.92 0 -535880 8.83988e+06 0 -375914 7.09373e+06 0 -229833 6.04168e+06 0 -157043 5.3908e+06 0 -117429 4.91794e+06 0 -92667.5 4.5517e+06 0 -76261.6 4.25553e+06 0 -64616.9 4.0075e+06 0 -55953.1 3.79474e+06 0 -49301.2 3.60872e+06 0 -44055.2 3.44354e+06 0 -39827.5 3.29501e+06 0 -36359.9 3.16001e+06 0 -33472.8 3.03622e+06 0 -31038.3 2.92183e+06 0 -28962.8 2.81539e+06 0 -27176.4 2.71578e+06 0 -25626 2.62208e+06 0 -24270.2 2.53351e+06 0 -23076.7 2.44946e+06 0 -22019.8 2.3694e+06 0 -21078.6 2.29287e+06 0 -20236.3 2.2195e+06 0 -19478.9 2.14897e+06 0 -18794.7 2.08099e+06 0 -18174.2 2.01533e+06 0 -17609 1.95177e+06 0 -17092.2 1.89013e+06 0 -16617.8 1.83024e+06 0 -16180.4 1.77198e+06 0 -15775.6 1.7152e+06 0 -15399.4 1.65981e+06 0 -15048.3 1.60572e+06 0 -14719 1.55283e+06 0 -14408.8 1.50107e+06 0 -14115.1 1.45039e+06 0 -13835.6 1.40072e+06 0 -13568.2 1.35203e+06 0 -13310.9 1.30426e+06 0 -13062 1.2574e+06 0 -12819.9 1.2114e+06 0 -12582.9 1.16626e+06 0 -12349.6 1.12195e+06 0 -12118.8 1.07846e+06 0 -11889.2 1.03579e+06 0 -11659.8 993942 0 -11429.4 952906 0 -11197.2 912692 0 -10962.3 873307 0 -10724 834763 0 -10481.7 797072 0 -10234.8 760251 0 -9983.09 724315 0 -9726.16 689284 0 -9463.92 655175 0 -9196.36 622008 0 -8923.61 589801 0 -8645.91 558573 0 -8363.66 528341 0 -8077.35 499119 0 -7787.6 470921 0 -7495.13 443759 0 -7200.75 417641 0 -6905.34 392571 0 -6609.82 368552 0 -6315.2 345582 0 -6022.44 323657 0 -5732.56 302768 0 -5446.52 282904 0 -5165.27 264048 0 -4889.69 246182 0 -4620.61 229285 0 -4358.76 213331 0 -4104.82 198295 0 -3859.33 184146 0 -3622.79 170855 0 -3395.55 158387 0 -3177.91 146711 0 -2970.05 135790 0 -2772.07 125591 0 -2584 116078 0 -2405.77 107216 0 -2237.27 98969.8 0 -2078.32 91305.4 0 -1928.69 84189.3 0 -1788.12 77588.6 0 -1656.31 71471.8 0 -1532.92 65808.3 0 -1417.59 60568.8 0 -1309.98 55725.2 0 -1209.71 51250.9 0 -1116.39 47120.3 0 -1029.66 43309.5 0 -949.136 39795.7 0 -874.461 36557.5 0 -805.275 33574.8 0 -741.234 30828.6 0 -682.004 28301.3 0 -627.267 25976.4 0 -576.719 23838.4 0 -530.068 21873.1 0 -487.041 20066.9 0 -447.378 18407.5 0 -410.834 16883.5 0 -377.18 15484.1 0 -346.198 14199.5 0 -317.688 13020.5 0 -291.459 11938.7 0 -267.336 10946.3 0 -245.154 10036.1 0 -224.759 9201.47 0 -206.007 8436.4 0 -188.764 7735.23 0 -172.905 7092.85 0 -158.311 6504.54 0 -144.871 5966 0 -132.47 5473.36 0 -121.013 5023.05 0 -110.36 4612.1 0 -100.428 4237.39 0 -91.0305 3897.87 0 -81.7917 3589.05 0 -73.3306 3317.88 0 -60.7212 3067.81 0 -56.8424 2888.24 0 -7.09539 2698.29 0 -32.0857 2835.91 0 850.752 2832.38 0 -848299 7.34291e+06 0 -526512 6.23923e+06 0 -343885 5.53544e+06 0 -253709 5.03714e+06 0 -197829 4.64876e+06 0 -161246 4.33791e+06 0 -135727 4.07914e+06 0 -116904 3.85815e+06 0 -102556 3.66573e+06 0 -91313.8 3.49544e+06 0 -82299.6 3.34275e+06 0 -74937.6 3.20433e+06 0 -68830.8 3.07768e+06 0 -63697.5 2.96086e+06 0 -59333.2 2.85236e+06 0 -55585.9 2.75097e+06 0 -52340.4 2.65573e+06 0 -49507.8 2.56582e+06 0 -47018.5 2.4806e+06 0 -44817.5 2.3995e+06 0 -42860.3 2.32206e+06 0 -41111 2.24788e+06 0 -39540 2.17663e+06 0 -38122.8 2.10801e+06 0 -36838.8 2.04177e+06 0 -35670.8 1.9777e+06 0 -34604 1.91559e+06 0 -33625.8 1.85529e+06 0 -32725.2 1.79664e+06 0 -31892.9 1.73952e+06 0 -31120.5 1.68382e+06 0 -30400.6 1.62943e+06 0 -29726.7 1.57627e+06 0 -29093 1.52427e+06 0 -28494.2 1.47336e+06 0 -27925.6 1.42347e+06 0 -27382.8 1.37457e+06 0 -26861.8 1.3266e+06 0 -26359.1 1.27954e+06 0 -25871.1 1.23335e+06 0 -25394.9 1.18802e+06 0 -24927.4 1.14352e+06 0 -24466 1.09984e+06 0 -24008.2 1.05697e+06 0 -23551.7 1.0149e+06 0 -23094.4 973648 0 -22634.3 933204 0 -22169.8 893576 0 -21699.2 854775 0 -21221.3 816812 0 -20734.9 779702 0 -20239.1 743460 0 -19733.3 708104 0 -19217.1 673651 0 -18690.4 640121 0 -18153.1 607531 0 -17605.8 575902 0 -17049 545249 0 -16483.5 515589 0 -15910.4 486937 0 -15331.2 459305 0 -14747.2 432702 0 -14160 407136 0 -13571.6 382611 0 -12983.8 359126 0 -12398.5 336680 0 -11817.7 315266 0 -11243.4 294875 0 -10677.4 275493 0 -10121.5 257104 0 -9577.56 239688 0 -9047.04 223223 0 -8531.36 207684 0 -8031.77 193043 0 -7549.31 179271 0 -7084.84 166337 0 -6639.05 154208 0 -6212.41 142851 0 -5805.24 132232 0 -5417.68 122315 0 -5049.72 113066 0 -4701.22 104450 0 -4371.9 96434.3 0 -4061.37 88983.8 0 -3769.16 82066.1 0 -3494.71 75649.2 0 -3237.41 69702.3 0 -2996.6 64195.6 0 -2771.58 59100.5 0 -2561.62 54389.7 0 -2365.98 50037.3 0 -2183.93 46018.6 0 -2014.71 42310.2 0 -1857.61 38890 0 -1711.9 35737.4 0 -1576.88 32832.7 0 -1451.89 30157.7 0 -1336.27 27695.1 0 -1229.4 25429.2 0 -1130.69 23344.7 0 -1039.56 21428 0 -955.497 19665.9 0 -877.983 18046.6 0 -806.545 16558.8 0 -740.735 15192.2 0 -680.133 13937.2 0 -624.348 12785 0 -573.01 11727.5 0 -525.776 10756.9 0 -482.326 9866.5 0 -442.361 9049.72 0 -405.602 8300.69 0 -371.787 7613.99 0 -340.671 6984.64 0 -312.024 6408.05 0 -285.624 5880.09 0 -261.255 5396.93 0 -238.715 4955.25 0 -217.733 4551.86 0 -198.206 4184.5 0 -179.379 3850.38 0 -161.957 3549.39 0 -142.208 3278.86 0 -125.423 3043.42 0 -92.7178 2848.43 0 -58.7619 2698.12 0 81.7986 2725.97 0 755.484 2244.61 0 -880251 6.41118e+06 0 -568991 5.66832e+06 0 -408797 5.14195e+06 0 -316706 4.73966e+06 0 -255464 4.41571e+06 0 -213649 4.14776e+06 0 -183078 3.91929e+06 0 -159919 3.72093e+06 0 -141886 3.54586e+06 0 -127498 3.38924e+06 0 -115795 3.24756e+06 0 -106122 3.11817e+06 0 -98015.5 2.99902e+06 0 -91141.6 2.88853e+06 0 -85253.2 2.78543e+06 0 -80163.6 2.6887e+06 0 -75729.7 2.5975e+06 0 -71839.7 2.51114e+06 0 -68405.3 2.42904e+06 0 -65355.6 2.35071e+06 0 -62633.2 2.27575e+06 0 -60191.3 2.2038e+06 0 -57990.9 2.13455e+06 0 -55999.7 2.06775e+06 0 -54190.3 2.00317e+06 0 -52539.5 1.94062e+06 0 -51027.6 1.8799e+06 0 -49637.4 1.82089e+06 0 -48354.2 1.76343e+06 0 -47164.9 1.70743e+06 0 -46058.2 1.65276e+06 0 -45023.8 1.59934e+06 0 -44052.7 1.5471e+06 0 -43136.9 1.49596e+06 0 -42268.9 1.44587e+06 0 -41442.1 1.39677e+06 0 -40650.4 1.34861e+06 0 -39888.2 1.30136e+06 0 -39150.2 1.25499e+06 0 -38431.8 1.20948e+06 0 -37728.4 1.16479e+06 0 -37035.9 1.12093e+06 0 -36350.6 1.07787e+06 0 -35668.8 1.03561e+06 0 -34987.3 994146 0 -34303.1 953485 0 -33613.5 913629 0 -32916 874586 0 -32208.6 836366 0 -31489.4 798983 0 -30756.9 762451 0 -30010 726786 0 -29247.9 692007 0 -28470.1 658131 0 -27676.6 625178 0 -26867.7 593165 0 -26044.1 562111 0 -25206.9 532031 0 -24357.6 502942 0 -23497.7 474857 0 -22629.5 447787 0 -21755.3 421741 0 -20877.5 396724 0 -19998.9 372739 0 -19122.3 349785 0 -18250.7 327859 0 -17386.9 306952 0 -16533.8 287053 0 -15694.2 268150 0 -14870.7 250223 0 -14065.8 233253 0 -13281.6 217216 0 -12520.3 202087 0 -11783.4 187837 0 -11072.5 174438 0 -10388.8 161857 0 -9733.1 150063 0 -9106.06 139022 0 -8508.07 128699 0 -7939.24 119061 0 -7399.51 110073 0 -6888.57 101702 0 -6405.97 93913.2 0 -5951.1 86674.2 0 -5523.2 79952.9 0 -5121.44 73717.9 0 -4744.86 67939.1 0 -4392.49 62587.6 0 -4063.25 57635.5 0 -3756.09 53056.3 0 -3469.89 48824.8 0 -3203.57 44917 0 -2956.02 41310.3 0 -2726.18 37983.1 0 -2512.99 34915.5 0 -2315.42 32088.4 0 -2132.5 29484.2 0 -1963.26 27086.2 0 -1806.8 24878.9 0 -1662.24 22847.8 0 -1528.78 20979.6 0 -1405.62 19261.6 0 -1292.03 17682.2 0 -1187.31 16230.7 0 -1090.82 14896.9 0 -1001.93 13671.7 0 -920.083 12546.4 0 -844.734 11513.1 0 -775.385 10564.6 0 -711.568 9693.99 0 -652.847 8895.13 0 -598.814 8162.27 0 -549.088 7490.15 0 -503.311 6873.93 0 -461.144 6309.19 0 -422.26 5791.89 0 -386.354 5318.36 0 -353.086 4885.29 0 -322.173 4489.78 0 -293.134 4129.3 0 -265.64 3801.73 0 -238.846 3506.12 0 -211.223 3240.67 0 -182.529 3010.66 0 -138.033 2812.19 0 -84.5518 2675.49 0 125.756 2575.46 0 555.504 2112.44 0 -833288 5.77467e+06 0 -585401 5.22922e+06 0 -448287 4.82137e+06 0 -359472 4.489e+06 0 -298436 4.21259e+06 0 -254596 3.97775e+06 0 -221475 3.77397e+06 0 -195835 3.59451e+06 0 -175472 3.43425e+06 0 -158971 3.28951e+06 0 -145376 3.15753e+06 0 -134016 3.03619e+06 0 -124407 2.92381e+06 0 -116194 2.81907e+06 0 -109109 2.72092e+06 0 -102947 2.62847e+06 0 -97549.8 2.54102e+06 0 -92791.2 2.45795e+06 0 -88571.2 2.37877e+06 0 -84808.8 2.30305e+06 0 -81437.8 2.23043e+06 0 -78403.5 2.16058e+06 0 -75660.6 2.09324e+06 0 -73170.7 2.02818e+06 0 -70901.6 1.96518e+06 0 -68825.6 1.90408e+06 0 -66918.9 1.8447e+06 0 -65160.9 1.78693e+06 0 -63533.7 1.73062e+06 0 -62021.5 1.67569e+06 0 -60610.3 1.62202e+06 0 -59287.6 1.56955e+06 0 -58042.2 1.5182e+06 0 -56864.2 1.46791e+06 0 -55744.4 1.41861e+06 0 -54674.3 1.37028e+06 0 -53646.4 1.32285e+06 0 -52653.7 1.27631e+06 0 -51689.5 1.23062e+06 0 -50747.9 1.18577e+06 0 -49823.3 1.14173e+06 0 -48910.4 1.09849e+06 0 -48004.4 1.05604e+06 0 -47100.8 1.01439e+06 0 -46195.5 973523 0 -45284.8 933452 0 -44365.3 894181 0 -43434 855719 0 -42488.2 818079 0 -41525.8 781273 0 -40545.1 745317 0 -39544.7 710229 0 -38523.9 676025 0 -37482.2 642725 0 -36419.8 610347 0 -35337.5 578909 0 -34236.3 548427 0 -33117.8 518919 0 -31984.1 490399 0 -30837.8 462879 0 -29681.6 436368 0 -28518.8 410876 0 -27352.8 386405 0 -26187.2 362957 0 -25025.9 340530 0 -23872.6 319119 0 -22731.2 298715 0 -21605.5 279305 0 -20498.9 260876 0 -19414.9 243407 0 -18356.6 226878 0 -17326.8 211264 0 -16328 196541 0 -15362.4 182678 0 -14431.7 169647 0 -13537.3 157416 0 -12680.3 145953 0 -11861.5 135223 0 -11081.1 125194 0 -10339.2 115832 0 -9635.67 107102 0 -8970.02 98971.9 0 -8341.57 91408 0 -7749.46 84378.2 0 -7192.65 77850.9 0 -6669.98 71795.8 0 -6180.21 66183.4 0 -5721.98 60985.5 0 -5293.9 56175.1 0 -4894.55 51726.3 0 -4522.49 47614.6 0 -4176.26 43816.7 0 -3854.43 40310.8 0 -3555.61 37075.9 0 -3278.4 34092.7 0 -3021.49 31342.7 0 -2783.57 28808.9 0 -2563.42 26475 0 -2359.85 24326.2 0 -2171.74 22348.3 0 -1998.02 20528.5 0 -1837.67 18854.4 0 -1689.74 17315 0 -1553.33 15899.6 0 -1427.59 14598.7 0 -1311.73 13403.2 0 -1205 12304.8 0 -1106.72 11295.9 0 -1016.24 10369.4 0 -932.936 9518.76 0 -856.259 8737.91 0 -785.676 8021.31 0 -720.691 7363.86 0 -660.839 6760.89 0 -605.678 6208.09 0 -554.788 5701.54 0 -507.755 5237.71 0 -464.163 4813.37 0 -423.58 4425.72 0 -385.454 4072.26 0 -349.268 3751.1 0 -313.744 3460.8 0 -277.839 3200.67 0 -237.573 2973 0 -184.018 2776.08 0 -103.939 2628.08 0 112.152 2451.04 0 384.82 2015.81 0 -786682 5.30774e+06 0 -591596 4.88931e+06 0 -472800 4.55535e+06 0 -390315 4.27241e+06 0 -331388 4.03238e+06 0 -287268 3.82422e+06 0 -253176 3.64091e+06 0 -226238 3.47742e+06 0 -204479 3.32991e+06 0 -186606 3.19557e+06 0 -171710 3.07218e+06 0 -159139 2.95804e+06 0 -148416 2.85177e+06 0 -139182 2.75228e+06 0 -131165 2.65866e+06 0 -124153 2.57016e+06 0 -117979 2.48618e+06 0 -112511 2.40619e+06 0 -107641 2.32975e+06 0 -103282 2.25648e+06 0 -99363 2.18605e+06 0 -95823.6 2.1182e+06 0 -92613.9 2.05267e+06 0 -89691.7 1.98925e+06 0 -87020.8 1.92777e+06 0 -84570.4 1.86806e+06 0 -82313.6 1.80997e+06 0 -80227.1 1.75339e+06 0 -78290.5 1.69819e+06 0 -76485.8 1.6443e+06 0 -74796.7 1.59161e+06 0 -73209.1 1.54005e+06 0 -71709.9 1.48957e+06 0 -70287.4 1.44009e+06 0 -68931 1.39158e+06 0 -67630.9 1.34399e+06 0 -66378 1.29729e+06 0 -65164.1 1.25144e+06 0 -63981.5 1.20643e+06 0 -62822.9 1.16222e+06 0 -61681.9 1.11881e+06 0 -60552.1 1.07619e+06 0 -59427.9 1.03436e+06 0 -58304 993305 0 -57175.6 953033 0 -56038.2 913548 0 -54888 874859 0 -53721.3 836977 0 -52535.4 799913 0 -51327.8 763682 0 -50096.5 728301 0 -48840.2 693787 0 -47558.3 660158 0 -46250.5 627432 0 -44917.3 595628 0 -43559.9 564762 0 -42179.9 534852 0 -40779.5 505914 0 -39361.5 477960 0 -37929.3 451002 0 -36486.5 425048 0 -35037.2 400106 0 -33585.8 376178 0 -32136.9 353264 0 -30695.1 331361 0 -29265.3 310461 0 -27852.1 290556 0 -26460 271631 0 -25093.4 253671 0 -23756.2 236656 0 -22452.4 220564 0 -21185.1 205370 0 -19957.2 191047 0 -18771.3 177568 0 -17629.4 164901 0 -16533.1 153015 0 -15483.4 141879 0 -14481.2 131457 0 -13526.7 121718 0 -12620 112628 0 -11760.5 104154 0 -10947.8 96261.9 0 -10180.8 88920.1 0 -9458.39 82097 0 -8779.3 75761.6 0 -8142.03 69884.3 0 -7544.98 64436.5 0 -6986.49 59390.6 0 -6464.82 54720.3 0 -5978.19 50400.5 0 -5524.83 46407.5 0 -5102.95 42718.6 0 -4710.8 39312.6 0 -4346.65 36169.3 0 -4008.82 33269.8 0 -3695.68 30596.4 0 -3405.65 28132.5 0 -3137.23 25862.4 0 -2888.99 23771.7 0 -2659.54 21846.8 0 -2447.59 20075.1 0 -2251.91 18444.8 0 -2071.34 16945.2 0 -1904.78 15565.9 0 -1751.2 14297.8 0 -1609.65 13132 0 -1479.22 12060.6 0 -1359.07 11076.2 0 -1248.4 10171.7 0 -1146.49 9341.06 0 -1052.65 8578.27 0 -966.224 7878 0 -886.622 7235.31 0 -813.274 6645.65 0 -745.642 6104.87 0 -683.211 5609.16 0 -625.473 5155.1 0 -571.923 4739.56 0 -522.007 4359.8 0 -475.093 4013.42 0 -430.408 3698.54 0 -386.589 3413.59 0 -342.113 3158.17 0 -291.755 2932.3 0 -228.513 2735.67 0 -128.623 2569.02 0 66.8726 2347.15 0 241.354 1961.48 0 -750628 4.95007e+06 0 -593542 4.60936e+06 0 -489225 4.32662e+06 0 -413356 4.08239e+06 0 -357182 3.87108e+06 0 -313887 3.68465e+06 0 -279767 3.5184e+06 0 -252304 3.3685e+06 0 -229800 3.23205e+06 0 -211089 3.10683e+06 0 -195331 2.99109e+06 0 -181915 2.88341e+06 0 -170381 2.78268e+06 0 -160382 2.68796e+06 0 -151649 2.5985e+06 0 -143968 2.51366e+06 0 -137173 2.43291e+06 0 -131129 2.35578e+06 0 -125724 2.2819e+06 0 -120869 2.21093e+06 0 -116488 2.14259e+06 0 -112520 2.07662e+06 0 -108909 2.01281e+06 0 -105613 1.95097e+06 0 -102592 1.89093e+06 0 -99811.6 1.83255e+06 0 -97244.4 1.7757e+06 0 -94864.3 1.72026e+06 0 -92649.1 1.66614e+06 0 -90578.8 1.61325e+06 0 -88635.8 1.5615e+06 0 -86804 1.51084e+06 0 -85069 1.46119e+06 0 -83417.8 1.41252e+06 0 -81838.4 1.36478e+06 0 -80319.6 1.31792e+06 0 -78851.5 1.27192e+06 0 -77424.5 1.22675e+06 0 -76029.9 1.1824e+06 0 -74659.5 1.13884e+06 0 -73306 1.09606e+06 0 -71962.1 1.05405e+06 0 -70621.4 1.01282e+06 0 -69278 972359 0 -67926.4 932675 0 -66561.7 893774 0 -65179.4 855664 0 -63775.8 818358 0 -62347.7 781868 0 -60892.4 746211 0 -59408.1 711403 0 -57893.6 677462 0 -56348.2 644405 0 -54772.2 612252 0 -53166.4 581020 0 -51532.5 550725 0 -49872.7 521386 0 -48190.1 493014 0 -46488.1 465625 0 -44771 439227 0 -43043.3 413828 0 -41310 389433 0 -39576.5 366045 0 -37848.3 343662 0 -36130.8 322278 0 -34429.9 301887 0 -32750.8 282477 0 -31099.1 264033 0 -29479.5 246538 0 -27896.9 229972 0 -26355.5 214313 0 -24858.9 199534 0 -23410.5 185608 0 -22012.9 172507 0 -20668.5 160201 0 -19378.8 148656 0 -18145 137842 0 -16967.9 127726 0 -15847.6 118274 0 -14784 109453 0 -13776.4 101230 0 -12824 93573.3 0 -11925.6 86451 0 -11079.8 79831.9 0 -10285 73686.2 0 -9539.24 67984.7 0 -8840.74 62699.5 0 -8187.44 57803.9 0 -7577.29 53272.2 0 -7008.18 49080.1 0 -6477.99 45204.5 0 -5984.62 41623.6 0 -5525.99 38316.5 0 -5100.09 35264 0 -4704.93 32447.6 0 -4338.6 29850.1 0 -3999.27 27455.6 0 -3685.16 25248.9 0 -3394.6 23215.9 0 -3125.99 21343.7 0 -2877.81 19619.9 0 -2648.62 18033.3 0 -2437.06 16573.3 0 -2241.87 15230.1 0 -2061.84 13994.7 0 -1895.85 12858.6 0 -1742.86 11814.1 0 -1601.87 10854 0 -1471.97 9971.75 0 -1352.3 9161.08 0 -1242.06 8416.41 0 -1140.5 7732.53 0 -1046.91 7104.65 0 -960.64 6528.37 0 -881.05 5999.67 0 -807.541 5514.87 0 -739.515 5070.62 0 -676.375 4663.93 0 -617.464 4292.1 0 -562.051 3952.8 0 -509.144 3644.13 0 -457.332 3364.49 0 -404.411 3113.17 0 -345.199 2888.9 0 -272.297 2690.47 0 -161.863 2505.17 0 5.60833 2262.25 0 122.922 1916.98 0 -724416 4.65742e+06 0 -593296 4.37147e+06 0 -500555 4.12767e+06 0 -430973 3.91368e+06 0 -377859 3.72526e+06 0 -335991 3.55683e+06 0 -302394 3.40498e+06 0 -274924 3.26676e+06 0 -252127 3.13996e+06 0 -232965 3.0228e+06 0 -216676 2.91386e+06 0 -202694 2.81201e+06 0 -190589 2.7163e+06 0 -180028 2.62596e+06 0 -170752 2.54033e+06 0 -162554 2.45886e+06 0 -155268 2.3811e+06 0 -148760 2.30666e+06 0 -142918 2.23518e+06 0 -137652 2.16638e+06 0 -132885 2.09999e+06 0 -128553 2.03581e+06 0 -124600 1.97364e+06 0 -120980 1.9133e+06 0 -117653 1.85464e+06 0 -114584 1.79754e+06 0 -111741 1.74187e+06 0 -109098 1.68754e+06 0 -106632 1.63445e+06 0 -104320 1.58253e+06 0 -102144 1.5317e+06 0 -100086 1.4819e+06 0 -98131.8 1.43307e+06 0 -96265.6 1.38519e+06 0 -94474.9 1.33819e+06 0 -92747.6 1.29205e+06 0 -91072.4 1.24674e+06 0 -89439.1 1.20225e+06 0 -87837.9 1.15854e+06 0 -86259.9 1.11561e+06 0 -84696.8 1.07345e+06 0 -83140.7 1.03205e+06 0 -81584.6 991419 0 -80021.9 951549 0 -78446.6 912449 0 -76853.3 874127 0 -75237.4 836594 0 -73594.8 799861 0 -71922.1 763944 0 -70216.8 728859 0 -68477 694622 0 -66701.7 661252 0 -64890.6 628767 0 -63044.3 597185 0 -61164.3 566523 0 -59252.7 536799 0 -57312.7 508027 0 -55347.8 480221 0 -53362.5 453394 0 -51361.9 427554 0 -49351.5 402707 0 -47337.1 378858 0 -45325.1 356006 0 -43321.9 334150 0 -41333.9 313283 0 -39367.5 293397 0 -37429.1 274477 0 -35524.6 256511 0 -33659.6 239477 0 -31839.3 223357 0 -30068.3 208125 0 -28350.9 193757 0 -26690.4 180225 0 -25089.9 167498 0 -23551.6 155547 0 -22077.2 144341 0 -20667.9 133846 0 -19324.2 124030 0 -18046.3 114861 0 -16833.7 106305 0 -15685.6 98331.6 0 -14601 90907.4 0 -13578.3 84001.8 0 -12615.7 77584.4 0 -11711.5 71626 0 -10863.3 66098.1 0 -10069 60973.6 0 -9326.25 56226.5 0 -8632.62 51831.9 0 -7985.68 47766.1 0 -7383.01 44006.7 0 -6822.2 40532.5 0 -6300.86 37323.5 0 -5816.68 34360.8 0 -5367.41 31626.7 0 -4950.87 29104.6 0 -4564.96 26778.9 0 -4207.68 24635 0 -3877.12 22659.5 0 -3571.47 20839.5 0 -3288.99 19163.4 0 -3028.06 17620.2 0 -2787.14 16199.7 0 -2564.8 14892.4 0 -2359.66 13689.6 0 -2170.47 12583.2 0 -1996.03 11565.6 0 -1835.23 10629.9 0 -1687.02 9769.69 0 -1550.43 8979.06 0 -1424.56 8252.53 0 -1308.54 7585.07 0 -1201.6 6972.04 0 -1102.96 6409.19 0 -1011.92 5892.62 0 -927.793 5418.77 0 -849.892 4984.4 0 -777.531 4586.58 0 -709.965 4222.69 0 -646.344 3890.47 0 -585.534 3587.94 0 -525.992 3313.48 0 -465.067 3065.83 0 -397.908 2842.92 0 -316.622 2641.16 0 -203.195 2441.14 0 -62.0217 2190.92 0 21.8176 1878.68 0 -704057 4.41062e+06 0 -591614 4.16547e+06 0 -508656 3.95198e+06 0 -444810 3.76206e+06 0 -394804 3.5924e+06 0 -354655 3.43906e+06 0 -321912 3.29947e+06 0 -294777 3.17136e+06 0 -272003 3.05301e+06 0 -252671 2.943e+06 0 -236098 2.84017e+06 0 -221767 2.74358e+06 0 -209278 2.65244e+06 0 -198319 2.5661e+06 0 -188643 2.48399e+06 0 -180051 2.40566e+06 0 -172382 2.33069e+06 0 -165505 2.25875e+06 0 -159310 2.18952e+06 0 -153707 2.12276e+06 0 -148618 2.05824e+06 0 -143979 1.99575e+06 0 -139734 1.93513e+06 0 -135835 1.87622e+06 0 -132242 1.81888e+06 0 -128918 1.763e+06 0 -125831 1.70848e+06 0 -122953 1.65521e+06 0 -120259 1.60312e+06 0 -117727 1.55213e+06 0 -115337 1.50219e+06 0 -113070 1.45323e+06 0 -110909 1.40521e+06 0 -108840 1.35808e+06 0 -106848 1.31182e+06 0 -104921 1.26638e+06 0 -103046 1.22176e+06 0 -101212 1.17792e+06 0 -99408.3 1.13485e+06 0 -97625.8 1.09254e+06 0 -95855.2 1.051e+06 0 -94088.1 1.0102e+06 0 -92316.9 970159 0 -90534.4 930874 0 -88734.3 892355 0 -86910.9 854609 0 -85059.4 817648 0 -83175.4 781487 0 -81255.8 746140 0 -79297.8 711625 0 -77300 677958 0 -75261.5 645158 0 -73182.5 613242 0 -71064.1 582230 0 -68908.5 552138 0 -66718.4 522982 0 -64497.6 494777 0 -62250.9 467535 0 -59983.3 441268 0 -57701 415984 0 -55410.4 391687 0 -53118.3 368380 0 -50831.9 346063 0 -48558.5 324731 0 -46305.4 304377 0 -44079.8 284991 0 -41888.6 266560 0 -39738.5 249066 0 -37635.7 232490 0 -35585.7 216811 0 -33593.6 202004 0 -31663.7 188042 0 -29799.9 174898 0 -28005 162542 0 -26281.5 150943 0 -24631 140069 0 -23054.6 129890 0 -21552.7 120371 0 -20125.2 111482 0 -18771.5 103189 0 -17490.5 95460.4 0 -16280.8 88265.6 0 -15140.7 81573.9 0 -14068 75355.7 0 -13060.6 69582.1 0 -12115.9 64225.7 0 -11231.3 59260 0 -10404.3 54659.6 0 -9632.08 50400.3 0 -8911.88 46459.3 0 -8240.98 42814.8 0 -7616.66 39446.2 0 -7036.27 36334.2 0 -6497.21 33460.5 0 -5996.96 30807.9 0 -5533.09 28360.4 0 -5103.27 26102.9 0 -4705.28 24021.5 0 -4336.97 22102.8 0 -3996.33 20334.9 0 -3681.45 18706.1 0 -3390.51 17206.1 0 -3121.82 15824.8 0 -2873.77 14553.3 0 -2644.86 13382.9 0 -2433.67 12306 0 -2238.88 11315.3 0 -2059.25 10403.9 0 -1893.64 9565.81 0 -1740.95 8795.2 0 -1600.19 8086.82 0 -1470.41 7435.79 0 -1350.71 6837.64 0 -1240.27 6288.26 0 -1138.29 5783.86 0 -1043.99 5320.99 0 -956.618 4896.52 0 -875.407 4507.59 0 -799.524 4151.67 0 -728.007 3826.48 0 -659.618 3530.03 0 -592.657 3260.58 0 -524.295 3016.33 0 -450.013 2794.48 0 -362.34 2588.99 0 -250.646 2379.02 0 -131.155 2129.38 0 -66.6064 1844.39 0 -687270 4.19801e+06 0 -589268 3.98427e+06 0 -514667 3.795e+06 0 -455947 3.62458e+06 0 -408979 3.47049e+06 0 -370663 3.32992e+06 0 -338968 3.20087e+06 0 -312390 3.08158e+06 0 -289856 2.97069e+06 0 -270559 2.86704e+06 0 -253888 2.7697e+06 0 -239374 2.67788e+06 0 -226650 2.59091e+06 0 -215424 2.50824e+06 0 -205464 2.42939e+06 0 -196580 2.35396e+06 0 -188620 2.28159e+06 0 -181454 2.21199e+06 0 -174976 2.14488e+06 0 -169098 2.08004e+06 0 -163743 2.01728e+06 0 -158847 1.9564e+06 0 -154354 1.89725e+06 0 -150216 1.83971e+06 0 -146391 1.78363e+06 0 -142843 1.72893e+06 0 -139538 1.6755e+06 0 -136449 1.62326e+06 0 -133550 1.57213e+06 0 -130816 1.52206e+06 0 -128227 1.47297e+06 0 -125765 1.42483e+06 0 -123411 1.37759e+06 0 -121149 1.3312e+06 0 -118965 1.28566e+06 0 -116845 1.24091e+06 0 -114776 1.19695e+06 0 -112745 1.15376e+06 0 -110743 1.11132e+06 0 -108758 1.06964e+06 0 -106782 1.02869e+06 0 -104804 988491 0 -102817 949036 0 -100814 910333 0 -98787.6 872390 0 -96732.1 835217 0 -94642.6 798827 0 -92514.8 763235 0 -90345.5 728456 0 -88132.2 694509 0 -85873.8 661410 0 -83569.7 629178 0 -81220.8 597832 0 -78828.7 567388 0 -76396.2 537864 0 -73927 509275 0 -71425.7 481635 0 -68897.7 454957 0 -66349.4 429248 0 -63787.6 404517 0 -61219.7 380768 0 -58653.6 358001 0 -56097.2 336215 0 -53558.8 315405 0 -51046.4 295561 0 -48568 276673 0 -46131.1 258725 0 -43743 241700 0 -41410.1 225578 0 -39138.6 210336 0 -36933.8 195949 0 -34800.2 182389 0 -32741.6 169630 0 -30761.2 157639 0 -28861.2 146388 0 -27043.2 135845 0 -25308.1 125976 0 -23656.1 116751 0 -22087.1 108138 0 -20599.9 100104 0 -19193.4 92617.6 0 -17865.8 85649.3 0 -16615 79168.7 0 -15438.7 73146.9 0 -14334.1 67555.8 0 -13298.6 62368.7 0 -12329.3 57559.6 0 -11423.1 53104.1 0 -10577 48978.6 0 -9787.94 45160.8 0 -9052.94 41629.8 0 -8368.97 38365.7 0 -7733.09 35349.5 0 -7142.44 32563.8 0 -6594.26 29991.9 0 -6085.89 27618.2 0 -5614.76 25428.4 0 -5178.42 23408.7 0 -4774.56 21546.6 0 -4400.96 19830.1 0 -4055.52 18248.4 0 -3736.27 16791.2 0 -3441.36 15449 0 -3169.02 14213 0 -2917.61 13075 0 -2685.59 12027.5 0 -2471.52 11063.5 0 -2274.05 10176.4 0 -2091.92 9360.32 0 -1923.95 8609.71 0 -1769.04 7919.46 0 -1626.14 7284.88 0 -1494.3 6701.62 0 -1372.6 6165.71 0 -1260.16 5673.49 0 -1156.14 5221.63 0 -1059.71 4807.08 0 -970.023 4427.06 0 -886.162 4079.09 0 -807.077 3760.91 0 -731.44 3470.48 0 -657.433 3205.88 0 -582.239 2964.85 0 -501.714 2743.86 0 -409.712 2535.17 0 -302.144 2319.55 0 -199.315 2074.89 0 -145.6 1811.92 0 -673135 4.01189e+06 0 -586747 3.82293e+06 0 -519291 3.65327e+06 0 -465142 3.4989e+06 0 -421064 3.35793e+06 0 -384597 3.22826e+06 0 -354054 3.10834e+06 0 -328174 2.9968e+06 0 -306031 2.89252e+06 0 -286917 2.79457e+06 0 -270288 2.70219e+06 0 -255720 2.61469e+06 0 -242876 2.53154e+06 0 -231489 2.45225e+06 0 -221339 2.37641e+06 0 -212249 2.30368e+06 0 -204072 2.23373e+06 0 -196685 2.16632e+06 0 -189985 2.10121e+06 0 -183885 2.03819e+06 0 -178312 1.97708e+06 0 -173202 1.91772e+06 0 -168499 1.85999e+06 0 -164155 1.80374e+06 0 -160129 1.74888e+06 0 -156384 1.69531e+06 0 -152886 1.64293e+06 0 -149607 1.59168e+06 0 -146520 1.54148e+06 0 -143601 1.49229e+06 0 -140829 1.44404e+06 0 -138183 1.39669e+06 0 -135646 1.3502e+06 0 -133201 1.30455e+06 0 -130832 1.2597e+06 0 -128524 1.21563e+06 0 -126265 1.17233e+06 0 -124042 1.12977e+06 0 -121844 1.08796e+06 0 -119658 1.04688e+06 0 -117476 1.00653e+06 0 -115287 966924 0 -113084 928051 0 -110859 889925 0 -108604 852554 0 -106314 815950 0 -103984 780128 0 -101610 745103 0 -99188.1 710891 0 -96716.8 677510 0 -94195.2 644979 0 -91623.3 613314 0 -89002.6 582536 0 -86335.3 552660 0 -83625.1 523703 0 -80876.4 495680 0 -78094.9 468604 0 -75286.9 442486 0 -72459.6 417334 0 -69620.9 393155 0 -66779.2 369951 0 -63943.1 347723 0 -61121.7 326465 0 -58323.8 306173 0 -55558.3 286837 0 -52833.9 268442 0 -50158.6 250975 0 -47540.1 234415 0 -44985.4 218743 0 -42500.7 203934 0 -40091.7 189962 0 -37763 176801 0 -35518.5 164421 0 -33361.2 152793 0 -31293.3 141886 0 -29316.3 131667 0 -27430.9 122107 0 -25637.1 113171 0 -23934.4 104830 0 -22321.4 97051.4 0 -20796.7 89804.7 0 -19358.1 83059.7 0 -18003.3 76787.4 0 -16729.5 70959.3 0 -15533.9 65548.3 0 -14413.2 60528.1 0 -13364.3 55873.6 0 -12383.9 51561 0 -11468.6 47567.5 0 -10615 43871.5 0 -9819.96 40452.6 0 -9080.07 37291.5 0 -8392.17 34370.1 0 -7753.15 31671.4 0 -7160.02 29179.3 0 -6609.88 26878.7 0 -6099.96 24755.8 0 -5627.62 22797.3 0 -5190.34 20991.1 0 -4785.73 19325.8 0 -4411.54 17790.7 0 -4065.63 16376 0 -3745.99 15072.6 0 -3450.73 13871.9 0 -3178.09 12766.1 0 -2926.4 11747.9 0 -2694.11 10810.4 0 -2479.75 9947.54 0 -2281.97 9153.44 0 -2099.5 8422.79 0 -1931.15 7750.65 0 -1775.81 7132.48 0 -1632.41 6564.11 0 -1499.99 6041.68 0 -1377.58 5561.66 0 -1264.29 5120.81 0 -1159.2 4716.19 0 -1061.4 4345.08 0 -969.907 4005.04 0 -883.589 3693.83 0 -801.052 3409.35 0 -720.419 3149.48 0 -639.007 2911.57 0 -553.173 2691.45 0 -458.58 2480.59 0 -355.94 2262.87 0 -265.333 2025.4 0 -217.37 1780.87 0 -661186 3.84675e+06 0 -584322 3.67769e+06 0 -522995 3.52416e+06 0 -472924 3.3832e+06 0 -431551 3.2534e+06 0 -396895 3.13314e+06 0 -367551 3.0212e+06 0 -342454 2.91648e+06 0 -320804 2.8181e+06 0 -301979 2.72528e+06 0 -285496 2.63737e+06 0 -270974 2.55383e+06 0 -258104 2.47417e+06 0 -246639 2.398e+06 0 -236377 2.32495e+06 0 -227150 2.25472e+06 0 -218819 2.18705e+06 0 -211268 2.12169e+06 0 -204397 2.05845e+06 0 -198122 1.99714e+06 0 -192372 1.93761e+06 0 -187084 1.87971e+06 0 -182204 1.82331e+06 0 -177685 1.76831e+06 0 -173484 1.71461e+06 0 -169565 1.66211e+06 0 -165895 1.61075e+06 0 -162444 1.56045e+06 0 -159186 1.51116e+06 0 -156096 1.46281e+06 0 -153152 1.41538e+06 0 -150333 1.3688e+06 0 -147622 1.32306e+06 0 -145000 1.27812e+06 0 -142452 1.23395e+06 0 -139963 1.19055e+06 0 -137518 1.14788e+06 0 -135105 1.10596e+06 0 -132711 1.06476e+06 0 -130325 1.02428e+06 0 -127937 984524 0 -125537 945496 0 -123116 907201 0 -120666 869647 0 -118181 832845 0 -115654 796809 0 -113081 761552 0 -110457 727092 0 -107780 693445 0 -105048 660629 0 -102261 628664 0 -99419.1 597566 0 -96524.8 567354 0 -93581.1 538044 0 -90592.6 509653 0 -87564.5 482195 0 -84503.5 455682 0 -81416.9 430124 0 -78313 405528 0 -75200.4 381899 0 -72088.6 359239 0 -68987.2 337545 0 -65906 316814 0 -62854.6 297038 0 -59842.7 278205 0 -56879.2 260301 0 -53973.1 243310 0 -51132.2 227213 0 -48363.9 211986 0 -45674.6 197605 0 -43070.1 184046 0 -40555.1 171278 0 -38133.4 159275 0 -35808 148004 0 -33580.9 137437 0 -31453.5 127540 0 -29426 118282 0 -27498.4 109633 0 -25669.7 101560 0 -23938.4 94033.7 0 -22302.7 87022.8 0 -20760 80498.1 0 -19307.7 74431 0 -17942.6 68794.1 0 -16661.7 63560.5 0 -15461.3 58704.9 0 -14338 54202.9 0 -13288.2 50031.3 0 -12308.2 46168 0 -11394.3 42592.1 0 -10543.1 39283.8 0 -9750.93 36224.6 0 -9014.39 33396.8 0 -8330.13 30784 0 -7694.92 