<?xml version="1.0"?> 
<VTKFile type="StructuredGrid" version="0.1"> 
<StructuredGrid WholeExtent="0 127 0 127 0 0"> 
<Piece Extent="0 127 0 127 0 0"> 
<PointData>
<DataArray type="Float32" Name="|E|" format="ascii" NumberOfComponents="3"> 
-2.0693e+06 0 0 -2.0693e+06 373.324 0 -2.0693e+06 746.648 0 -2.06931e+06 1119.97 0 -2.06931e+06 1493.3 0 -2.06931e+06 1866.63 0 -2.06932e+06 2239.96 0 -2.06933e+06 2613.29 0 -2.06933e+06 2986.63 0 -2.06934e+06 3359.98 0 -2.06935e+06 3733.32 0 -2.06936e+06 4106.67 0 -2.06938e+06 4480.03 0 -2.06939e+06 4853.39 0 -2.0694e+06 5226.76 0 -2.06942e+06 5600.14 0 -2.06943e+06 5973.53 0 -2.06945e+06 6346.92 0 -2.06947e+06 6720.32 0 -2.06949e+06 7093.73 0 -2.06951e+06 7467.15 0 -2.06953e+06 7840.58 0 -2.06955e+06 8214.02 0 -2.06958e+06 8587.47 0 -2.0696e+06 8960.93 0 -2.06963e+06 9334.4 0 -2.06965e+06 9707.89 0 -2.06968e+06 10081.4 0 -2.06971e+06 10454.9 0 -2.06974e+06 10828.4 0 -2.06977e+06 11202 0 -2.0698e+06 11575.5 0 -2.06984e+06 11949.1 0 -2.06987e+06 12322.7 0 -2.0699e+06 12696.3 0 -2.06994e+06 13069.9 0 -2.06998e+06 13443.5 0 -2.07002e+06 13817.2 0 -2.07006e+06 14190.9 0 -2.0701e+06 14564.6 0 -2.07014e+06 14938.3 0 -2.07018e+06 15312 0 -2.07022e+06 15685.7 0 -2.07027e+06 16059.5 0 -2.07031e+06 16433.3 0 -2.07036e+06 16807.1 0 -2.07041e+06 17181 0 -2.07046e+06 17554.8 0 -2.0705e+06 17928.7 0 -2.07056e+06 18302.6 0 -2.07061e+06 18676.5 0 -2.07066e+06 19050.5 0 -2.07071e+06 19424.5 0 -2.07077e+06 19798.5 0 -2.07082e+06 20172.5 0 -2.07088e+06 20546.6 0 -2.07094e+06 20920.7 0 -2.071e+06 21294.8 0 -2.07106e+06 21668.9 0 -2.07112e+06 22043.1 0 -2.07118e+06 22417.3 0 -2.07125e+06 22791.5 0 -2.07131e+06 23165.8 0 -2.07138e+06 23540.1 0 -2.07144e+06 23914.4 0 -2.07151e+06 24288.7 0 -2.07158e+06 24663.1 0 -2.07165e+06 25037.5 0 -2.07172e+06 25412 0 -2.07179e+06 25786.5 0 -2.07186e+06 26161 0 -2.07194e+06 26535.6 0 -2.07201e+06 26910.1 0 -2.07209e+06 27284.8 0 -2.07216e+06 27659.4 0 -2.07224e+06 28034.1 0 -2.07232e+06 28408.9 0 -2.0724e+06 28783.6 0 -2.07248e+06 29158.4 0 -2.07256e+06 29533.3 0 -2.07265e+06 29908.2 0 -2.07273e+06 30283.1 0 -2.07282e+06 30658.1 0 -2.0729e+06 31033.1 0 -2.07299e+06 31408.1 0 -2.07308e+06 31783.2 0 -2.07317e+06 32158.3 0 -2.07326e+06 32533.5 0 -2.07335e+06 32908.7 0 -2.07344e+06 33284 0 -2.07354e+06 33659.3 0 -2.07363e+06 34034.6 0 -2.07373e+06 34410 0 -2.07382e+06 34785.5 0 -2.07392e+06 35161 0 -2.07402e+06 35536.5 0 -2.07412e+06 35912.1 0 -2.07422e+06 36287.7 0 -2.07432e+06 36663.4 0 -2.07443e+06 37039.1 0 -2.07453e+06 37414.9 0 -2.07463e+06 37790.7 0 -2.07474e+06 38166.6 0 -2.07485e+06 38542.5 0 -2.07496e+06 38918.5 0 -2.07507e+06 39294.5 0 -2.07518e+06 39670.6 0 -2.07529e+06 40046.7 0 -2.0754e+06 40422.9 0 -2.07551e+06 40799.1 0 -2.07563e+06 41175.4 0 -2.07574e+06 41551.7 0 -2.07586e+06 41928 0 -2.07598e+06 42304.4 0 -2.0761e+06 42680.9 0 -2.07622e+06 43057.4 0 -2.07634e+06 43434 0 -2.07646e+06 43810.6 0 -2.07658e+06 44187.3 0 -2.07671e+06 44564 0 -2.07683e+06 44940.7 0 -2.07696e+06 45317.6 0 -2.07709e+06 45694.5 0 -2.07721e+06 46071.4 0 -2.07734e+06 46448.5 0 -2.07747e+06 46825.4 0 -2.07761e+06 47201.5 0 -2.07774e+06 47574.3 0 -2.06899e+06 0 0 -2.06899e+06 379.105 0 -2.06899e+06 758.21 0 -2.06899e+06 1137.32 0 -2.069e+06 1516.43 0 -2.069e+06 1895.54 0 -2.06901e+06 2274.65 0 -2.06902e+06 2653.77 0 -2.06902e+06 3032.89 0 -2.06903e+06 3412.01 0 -2.06904e+06 3791.14 0 -2.06905e+06 4170.27 0 -2.06907e+06 4549.41 0 -2.06908e+06 4928.56 0 -2.06909e+06 5307.71 0 -2.06911e+06 5686.87 0 -2.06913e+06 6066.04 0 -2.06914e+06 6445.22 0 -2.06916e+06 6824.4 0 -2.06918e+06 7203.6 0 -2.0692e+06 7582.8 0 -2.06923e+06 7962.02 0 -2.06925e+06 8341.24 0 -2.06927e+06 8720.48 0 -2.0693e+06 9099.73 0 -2.06932e+06 9478.99 0 -2.06935e+06 9858.26 0 -2.06938e+06 10237.5 0 -2.06941e+06 10616.9 0 -2.06944e+06 10996.2 0 -2.06947e+06 11375.5 0 -2.0695e+06 11754.8 0 -2.06954e+06 12134.2 0 -2.06957e+06 12513.6 0 -2.06961e+06 12893 0 -2.06965e+06 13272.4 0 -2.06968e+06 13651.8 0 -2.06972e+06 14031.3 0 -2.06976e+06 14410.7 0 -2.0698e+06 14790.2 0 -2.06985e+06 15169.7 0 -2.06989e+06 15549.3 0 -2.06994e+06 15928.8 0 -2.06998e+06 16308.4 0 -2.07003e+06 16688 0 -2.07008e+06 17067.6 0 -2.07012e+06 17447.2 0 -2.07017e+06 17826.9 0 -2.07022e+06 18206.6 0 -2.07028e+06 18586.3 0 -2.07033e+06 18966 0 -2.07038e+06 19345.8 0 -2.07044e+06 19725.6 0 -2.0705e+06 20105.4 0 -2.07055e+06 20485.3 0 -2.07061e+06 20865.1 0 -2.07067e+06 21245 0 -2.07073e+06 21624.9 0 -2.07079e+06 22004.9 0 -2.07086e+06 22384.9 0 -2.07092e+06 22764.9 0 -2.07098e+06 23145 0 -2.07105e+06 23525 0 -2.07112e+06 23905.2 0 -2.07119e+06 24285.3 0 -2.07125e+06 24665.5 0 -2.07133e+06 25045.7 0 -2.0714e+06 25425.9 0 -2.07147e+06 25806.2 0 -2.07154e+06 26186.5 0 -2.07162e+06 26566.9 0 -2.07169e+06 26947.3 0 -2.07177e+06 27327.7 0 -2.07185e+06 27708.1 0 -2.07193e+06 28088.6 0 -2.07201e+06 28469.2 0 -2.07209e+06 28849.7 0 -2.07217e+06 29230.4 0 -2.07225e+06 29611 0 -2.07234e+06 29991.7 0 -2.07242e+06 30372.4 0 -2.07251e+06 30753.2 0 -2.0726e+06 31134 0 -2.07268e+06 31514.9 0 -2.07277e+06 31895.8 0 -2.07286e+06 32276.7 0 -2.07296e+06 32657.7 0 -2.07305e+06 33038.7 0 -2.07314e+06 33419.8 0 -2.07324e+06 33800.9 0 -2.07333e+06 34182.1 0 -2.07343e+06 34563.3 0 -2.07353e+06 34944.6 0 -2.07363e+06 35325.9 0 -2.07373e+06 35707.3 0 -2.07383e+06 36088.7 0 -2.07393e+06 36470.1 0 -2.07404e+06 36851.7 0 -2.07414e+06 37233.2 0 -2.07425e+06 37614.8 0 -2.07435e+06 37996.5 0 -2.07446e+06 38378.2 0 -2.07457e+06 38759.9 0 -2.07468e+06 39141.8 0 -2.07479e+06 39523.6 0 -2.0749e+06 39905.5 0 -2.07502e+06 40287.5 0 -2.07513e+06 40669.5 0 -2.07525e+06 41051.5 0 -2.07536e+06 41433.6 0 -2.07548e+06 41815.8 0 -2.0756e+06 42198 0 -2.07572e+06 42580.3 0 -2.07584e+06 42962.6 0 -2.07596e+06 43345 0 -2.07609e+06 43727.4 0 -2.07621e+06 44109.9 0 -2.07634e+06 44492.4 0 -2.07646e+06 44875 0 -2.07659e+06 45257.6 0 -2.07672e+06 45640.3 0 -2.07685e+06 46023.1 0 -2.07698e+06 46405.9 0 -2.07711e+06 46788.7 0 -2.07724e+06 47171.4 0 -2.07738e+06 47554.1 0 -2.07751e+06 47937.2 0 -2.07765e+06 48322.3 0 -2.06868e+06 0 0 -2.06868e+06 384.909 0 -2.06868e+06 769.818 0 -2.06868e+06 1154.73 0 -2.06869e+06 1539.64 0 -2.06869e+06 1924.55 0 -2.0687e+06 2309.47 0 -2.0687e+06 2694.39 0 -2.06871e+06 3079.32 0 -2.06872e+06 3464.25 0 -2.06873e+06 3849.18 0 -2.06874e+06 4234.12 0 -2.06876e+06 4619.06 0 -2.06877e+06 5004.02 0 -2.06878e+06 5388.97 0 -2.0688e+06 5773.94 0 -2.06882e+06 6158.92 0 -2.06884e+06 6543.9 0 -2.06886e+06 6928.89 0 -2.06888e+06 7313.89 0 -2.0689e+06 7698.9 0 -2.06892e+06 8083.93 0 -2.06894e+06 8468.96 0 -2.06897e+06 8854.01 0 -2.06899e+06 9239.07 0 -2.06902e+06 9624.14 0 -2.06905e+06 10009.2 0 -2.06908e+06 10394.3 0 -2.06911e+06 10779.4 0 -2.06914e+06 11164.6 0 -2.06917e+06 11549.7 0 -2.06921e+06 11934.9 0 -2.06924e+06 12320 0 -2.06928e+06 12705.2 0 -2.06931e+06 13090.4 0 -2.06935e+06 13475.7 0 -2.06939e+06 13860.9 0 -2.06943e+06 14246.2 0 -2.06947e+06 14631.5 0 -2.06951e+06 15016.8 0 -2.06956e+06 15402.1 0 -2.0696e+06 15787.5 0 -2.06965e+06 16172.8 0 -2.06969e+06 16558.2 0 -2.06974e+06 16943.7 0 -2.06979e+06 17329.1 0 -2.06984e+06 17714.6 0 -2.06989e+06 18100 0 -2.06994e+06 18485.6 0 -2.07e+06 18871.1 0 -2.07005e+06 19256.7 0 -2.07011e+06 19642.3 0 -2.07016e+06 20027.9 0 -2.07022e+06 20413.5 0 -2.07028e+06 20799.2 0 -2.07034e+06 21184.9 0 -2.0704e+06 21570.7 0 -2.07046e+06 21956.4 0 -2.07053e+06 22342.2 0 -2.07059e+06 22728 0 -2.07066e+06 23113.9 0 -2.07072e+06 23499.8 0 -2.07079e+06 23885.7 0 -2.07086e+06 24271.7 0 -2.07093e+06 24657.7 0 -2.071e+06 25043.7 0 -2.07107e+06 25429.8 0 -2.07115e+06 25815.8 0 -2.07122e+06 26202 0 -2.0713e+06 26588.1 0 -2.07137e+06 26974.3 0 -2.07145e+06 27360.6 0 -2.07153e+06 27746.9 0 -2.07161e+06 28133.2 0 -2.07169e+06 28519.5 0 -2.07177e+06 28905.9 0 -2.07185e+06 29292.4 0 -2.07194e+06 29678.9 0 -2.07202e+06 30065.4 0 -2.07211e+06 30451.9 0 -2.0722e+06 30838.5 0 -2.07229e+06 31225.2 0 -2.07238e+06 31611.9 0 -2.07247e+06 31998.6 0 -2.07256e+06 32385.4 0 -2.07265e+06 32772.2 0 -2.07275e+06 33159.1 0 -2.07284e+06 33546 0 -2.07294e+06 33933 0 -2.07303e+06 34320 0 -2.07313e+06 34707 0 -2.07323e+06 35094.1 0 -2.07333e+06 35481.3 0 -2.07344e+06 35868.5 0 -2.07354e+06 36255.8 0 -2.07364e+06 36643.1 0 -2.07375e+06 37030.4 0 -2.07385e+06 37417.8 0 -2.07396e+06 37805.3 0 -2.07407e+06 38192.8 0 -2.07418e+06 38580.4 0 -2.07429e+06 38968 0 -2.0744e+06 39355.7 0 -2.07451e+06 39743.4 0 -2.07463e+06 40131.1 0 -2.07474e+06 40519 0 -2.07486e+06 40906.8 0 -2.07498e+06 41294.8 0 -2.0751e+06 41682.7 0 -2.07522e+06 42070.8 0 -2.07534e+06 42458.9 0 -2.07546e+06 42847 0 -2.07558e+06 43235.2 0 -2.0757e+06 43623.4 0 -2.07583e+06 44011.8 0 -2.07596e+06 44400.1 0 -2.07608e+06 44788.5 0 -2.07621e+06 45177 0 -2.07634e+06 45565.6 0 -2.07647e+06 45954.1 0 -2.0766e+06 46342.8 0 -2.07674e+06 46731.5 0 -2.07687e+06 47120.2 0 -2.07701e+06 47509 0 -2.07714e+06 47898 0 -2.07728e+06 48287.3 0 -2.07742e+06 48677.1 0 -2.07756e+06 49066.3 0 -2.06836e+06 0 0 -2.06836e+06 390.735 0 -2.06837e+06 781.47 0 -2.06837e+06 1172.21 0 -2.06837e+06 1562.95 0 -2.06838e+06 1953.69 0 -2.06838e+06 2344.43 0 -2.06839e+06 2735.18 0 -2.0684e+06 3125.93 0 -2.06841e+06 3516.68 0 -2.06842e+06 3907.45 0 -2.06843e+06 4298.21 0 -2.06845e+06 4688.99 0 -2.06846e+06 5079.77 0 -2.06847e+06 5470.55 0 -2.06849e+06 5861.35 0 -2.06851e+06 6252.15 0 -2.06853e+06 6642.96 0 -2.06855e+06 7033.78 0 -2.06857e+06 7424.62 0 -2.06859e+06 7815.46 0 -2.06861e+06 8206.31 0 -2.06864e+06 8597.18 0 -2.06866e+06 8988.06 0 -2.06869e+06 9378.95 0 -2.06872e+06 9769.85 0 -2.06875e+06 10160.8 0 -2.06878e+06 10551.7 0 -2.06881e+06 10942.6 0 -2.06884e+06 11333.6 0 -2.06887e+06 11724.6 0 -2.06891e+06 12115.6 0 -2.06894e+06 12506.6 0 -2.06898e+06 12897.6 0 -2.06902e+06 13288.7 0 -2.06905e+06 13679.8 0 -2.06909e+06 14070.8 0 -2.06914e+06 14461.9 0 -2.06918e+06 14853.1 0 -2.06922e+06 15244.2 0 -2.06927e+06 15635.4 0 -2.06931e+06 16026.6 0 -2.06936e+06 16417.8 0 -2.06941e+06 16809.1 0 -2.06946e+06 17200.3 0 -2.06951e+06 17591.6 0 -2.06956e+06 17982.9 0 -2.06961e+06 18374.3 0 -2.06966e+06 18765.6 0 -2.06972e+06 19157 0 -2.06977e+06 19548.4 0 -2.06983e+06 19939.9 0 -2.06989e+06 20331.4 0 -2.06995e+06 20722.9 0 -2.07001e+06 21114.4 0 -2.07007e+06 21506 0 -2.07013e+06 21897.6 0 -2.0702e+06 22289.2 0 -2.07026e+06 22680.8 0 -2.07033e+06 23072.5 0 -2.07039e+06 23464.3 0 -2.07046e+06 23856 0 -2.07053e+06 24247.8 0 -2.0706e+06 24639.6 0 -2.07067e+06 25031.5 0 -2.07075e+06 25423.4 0 -2.07082e+06 25815.3 0 -2.0709e+06 26207.3 0 -2.07097e+06 26599.3 0 -2.07105e+06 26991.4 0 -2.07113e+06 27383.4 0 -2.07121e+06 27775.6 0 -2.07129e+06 28167.7 0 -2.07137e+06 28559.9 0 -2.07145e+06 28952.2 0 -2.07154e+06 29344.4 0 -2.07162e+06 29736.8 0 -2.07171e+06 30129.1 0 -2.0718e+06 30521.6 0 -2.07188e+06 30914 0 -2.07197e+06 31306.5 0 -2.07206e+06 31699 0 -2.07216e+06 32091.6 0 -2.07225e+06 32484.3 0 -2.07234e+06 32877 0 -2.07244e+06 33269.7 0 -2.07254e+06 33662.5 0 -2.07263e+06 34055.3 0 -2.07273e+06 34448.2 0 -2.07283e+06 34841.1 0 -2.07293e+06 35234.1 0 -2.07304e+06 35627.1 0 -2.07314e+06 36020.2 0 -2.07324e+06 36413.3 0 -2.07335e+06 36806.5 0 -2.07346e+06 37199.7 0 -2.07356e+06 37593 0 -2.07367e+06 37986.3 0 -2.07378e+06 38379.7 0 -2.07389e+06 38773.1 0 -2.07401e+06 39166.6 0 -2.07412e+06 39560.2 0 -2.07423e+06 39953.8 0 -2.07435e+06 40347.4 0 -2.07447e+06 40741.1 0 -2.07459e+06 41134.9 0 -2.0747e+06 41528.7 0 -2.07482e+06 41922.6 0 -2.07495e+06 42316.5 0 -2.07507e+06 42710.5 0 -2.07519e+06 43104.5 0 -2.07532e+06 43498.6 0 -2.07544e+06 43892.8 0 -2.07557e+06 44287 0 -2.0757e+06 44681.3 0 -2.07583e+06 45075.6 0 -2.07596e+06 45470 0 -2.07609e+06 45864.4 0 -2.07622e+06 46259 0 -2.07636e+06 46653.5 0 -2.07649e+06 47048.2 0 -2.07663e+06 47442.9 0 -2.07677e+06 47837.7 0 -2.07691e+06 48232.8 0 -2.07704e+06 48628 0 -2.07719e+06 49023.5 0 -2.07733e+06 49418.7 0 -2.07747e+06 49814.1 0 -2.06805e+06 0 0 -2.06805e+06 396.584 0 -2.06805e+06 793.168 0 -2.06806e+06 1189.75 0 -2.06806e+06 1586.34 0 -2.06807e+06 1982.93 0 -2.06807e+06 2379.52 0 -2.06808e+06 2776.12 0 -2.06809e+06 3172.72 0 -2.0681e+06 3569.33 0 -2.06811e+06 3965.94 0 -2.06812e+06 4362.55 0 -2.06813e+06 4759.18 0 -2.06815e+06 5155.81 0 -2.06816e+06 5552.44 0 -2.06818e+06 5949.09 0 -2.0682e+06 6345.75 0 -2.06822e+06 6742.41 0 -2.06824e+06 7139.08 0 -2.06826e+06 7535.77 0 -2.06828e+06 7932.46 0 -2.06831e+06 8329.17 0 -2.06833e+06 8725.89 0 -2.06836e+06 9122.62 0 -2.06838e+06 9519.37 0 -2.06841e+06 9916.13 0 -2.06844e+06 10312.9 0 -2.06847e+06 10709.7 0 -2.0685e+06 11106.5 0 -2.06854e+06 11503.3 0 -2.06857e+06 11900.2 0 -2.06861e+06 12297 0 -2.06864e+06 12693.9 0 -2.06868e+06 13090.8 0 -2.06872e+06 13487.7 0 -2.06876e+06 13884.6 0 -2.0688e+06 14281.6 0 -2.06884e+06 14678.5 0 -2.06889e+06 15075.5 0 -2.06893e+06 15472.6 0 -2.06898e+06 15869.6 0 -2.06902e+06 16266.7 0 -2.06907e+06 16663.7 0 -2.06912e+06 17060.8 0 -2.06917e+06 17458 0 -2.06922e+06 17855.1 0 -2.06927e+06 18252.3 0 -2.06933e+06 18649.5 0 -2.06938e+06 19046.8 0 -2.06944e+06 19444 0 -2.0695e+06 19841.3 0 -2.06955e+06 20238.7 0 -2.06961e+06 20636 0 -2.06967e+06 21033.4 0 -2.06974e+06 21430.8 0 -2.0698e+06 21828.3 0 -2.06986e+06 22225.7 0 -2.06993e+06 22623.3 0 -2.06999e+06 23020.8 0 -2.07006e+06 23418.4 0 -2.07013e+06 23816 0 -2.0702e+06 24213.6 0 -2.07027e+06 24611.3 0 -2.07034e+06 25009 0 -2.07042e+06 25406.8 0 -2.07049e+06 25804.6 0 -2.07057e+06 26202.4 0 -2.07065e+06 26600.3 0 -2.07072e+06 26998.2 0 -2.0708e+06 27396.1 0 -2.07088e+06 27794.1 0 -2.07096e+06 28192.2 0 -2.07105e+06 28590.2 0 -2.07113e+06 28988.3 0 -2.07122e+06 29386.5 0 -2.0713e+06 29784.7 0 -2.07139e+06 30182.9 0 -2.07148e+06 30581.2 0 -2.07157e+06 30979.5 0 -2.07166e+06 31377.9 0 -2.07175e+06 31776.3 0 -2.07184e+06 32174.8 0 -2.07194e+06 32573.3 0 -2.07203e+06 32971.9 0 -2.07213e+06 33370.5 0 -2.07223e+06 33769.1 0 -2.07233e+06 34167.8 0 -2.07243e+06 34566.6 0 -2.07253e+06 34965.4 0 -2.07263e+06 35364.3 0 -2.07273e+06 35763.2 0 -2.07284e+06 36162.1 0 -2.07294e+06 36561.1 0 -2.07305e+06 36960.2 0 -2.07316e+06 37359.3 0 -2.07327e+06 37758.5 0 -2.07338e+06 38157.7 0 -2.07349e+06 38557 0 -2.0736e+06 38956.4 0 -2.07372e+06 39355.8 0 -2.07383e+06 39755.2 0 -2.07395e+06 40154.7 0 -2.07407e+06 40554.3 0 -2.07419e+06 40953.9 0 -2.07431e+06 41353.6 0 -2.07443e+06 41753.3 0 -2.07455e+06 42153.1 0 -2.07467e+06 42552.9 0 -2.0748e+06 42952.8 0 -2.07492e+06 43352.8 0 -2.07505e+06 43752.8 0 -2.07518e+06 44152.9 0 -2.07531e+06 44553 0 -2.07544e+06 44953.2 0 -2.07557e+06 45353.5 0 -2.0757e+06 45753.8 0 -2.07584e+06 46154.2 0 -2.07597e+06 46554.7 0 -2.07611e+06 46955.2 0 -2.07624e+06 47355.8 0 -2.07638e+06 47756.6 0 -2.07652e+06 48157.4 0 -2.07666e+06 48558.4 0 -2.07681e+06 48959.6 0 -2.07695e+06 49360.8 0 -2.07709e+06 49762 0 -2.07724e+06 50163.3 0 -2.07738e+06 50564.6 0 -2.06774e+06 0 0 -2.06774e+06 402.455 0 -2.06774e+06 804.91 0 -2.06774e+06 1207.37 0 -2.06775e+06 1609.83 0 -2.06775e+06 2012.29 0 -2.06776e+06 2414.75 0 -2.06777e+06 2817.22 0 -2.06777e+06 3219.69 0 -2.06778e+06 3622.17 0 -2.0678e+06 4024.65 0 -2.06781e+06 4427.14 0 -2.06782e+06 4829.64 0 -2.06784e+06 5232.14 0 -2.06785e+06 5634.65 0 -2.06787e+06 6037.17 0 -2.06789e+06 6439.7 0 -2.06791e+06 6842.24 0 -2.06793e+06 7244.79 0 -2.06795e+06 7647.35 0 -2.06797e+06 8049.92 0 -2.068e+06 8452.5 0 -2.06802e+06 8855.1 0 -2.06805e+06 9257.71 0 -2.06808e+06 9660.33 0 -2.06811e+06 10063 0 -2.06814e+06 10465.6 0 -2.06817e+06 10868.3 0 -2.0682e+06 11271 0 -2.06823e+06 11673.7 0 -2.06827e+06 12076.4 0 -2.06831e+06 12479.1 0 -2.06834e+06 12881.9 0 -2.06838e+06 13284.7 0 -2.06842e+06 13687.5 0 -2.06846e+06 14090.3 0 -2.0685e+06 14493.1 0 -2.06855e+06 14896 0 -2.06859e+06 15298.9 0 -2.06864e+06 15701.8 0 -2.06868e+06 16104.7 0 -2.06873e+06 16507.6 0 -2.06878e+06 16910.6 0 -2.06883e+06 17313.6 0 -2.06888e+06 17716.6 0 -2.06894e+06 18119.7 0 -2.06899e+06 18522.8 0 -2.06904e+06 18925.9 0 -2.0691e+06 19329 0 -2.06916e+06 19732.2 0 -2.06922e+06 20135.4 0 -2.06928e+06 20538.6 0 -2.06934e+06 20941.9 0 -2.0694e+06 21345.2 0 -2.06946e+06 21748.5 0 -2.06953e+06 22151.8 0 -2.06959e+06 22555.2 0 -2.06966e+06 22958.6 0 -2.06973e+06 23362.1 0 -2.0698e+06 23765.6 0 -2.06987e+06 24169.1 0 -2.06994e+06 24572.7 0 -2.07001e+06 24976.3 0 -2.07009e+06 25379.9 0 -2.07016e+06 25783.6 0 -2.07024e+06 26187.3 0 -2.07032e+06 26591 0 -2.0704e+06 26994.8 0 -2.07048e+06 27398.6 0 -2.07056e+06 27802.5 0 -2.07064e+06 28206.4 0 -2.07072e+06 28610.4 0 -2.07081e+06 29014.4 0 -2.07089e+06 29418.4 0 -2.07098e+06 29822.5 0 -2.07107e+06 30226.6 0 -2.07116e+06 30630.8 0 -2.07125e+06 31035 0 -2.07134e+06 31439.3 0 -2.07143e+06 31843.6 0 -2.07153e+06 32248 0 -2.07162e+06 32652.4 0 -2.07172e+06 33056.9 0 -2.07182e+06 33461.4 0 -2.07192e+06 33865.9 0 -2.07202e+06 34270.5 0 -2.07212e+06 34675.2 0 -2.07222e+06 35079.9 0 -2.07232e+06 35484.7 0 -2.07243e+06 35889.5 0 -2.07254e+06 36294.4 0 -2.07264e+06 36699.3 0 -2.07275e+06 37104.3 0 -2.07286e+06 37509.3 0 -2.07297e+06 37914.4 0 -2.07308e+06 38319.6 0 -2.0732e+06 38724.8 0 -2.07331e+06 39130 0 -2.07343e+06 39535.3 0 -2.07354e+06 39940.7 0 -2.07366e+06 40346.2 0 -2.07378e+06 40751.6 0 -2.0739e+06 41157.2 0 -2.07402e+06 41562.8 0 -2.07415e+06 41968.5 0 -2.07427e+06 42374.2 0 -2.0744e+06 42780 0 -2.07452e+06 43185.8 0 -2.07465e+06 43591.7 0 -2.07478e+06 43997.7 0 -2.07491e+06 44403.7 0 -2.07504e+06 44809.8 0 -2.07517e+06 45216 0 -2.07531e+06 45622.2 0 -2.07544e+06 46028.5 0 -2.07558e+06 46434.8 0 -2.07571e+06 46841.3 0 -2.07585e+06 47247.8 0 -2.07599e+06 47654.4 0 -2.07613e+06 48061.1 0 -2.07627e+06 48468 0 -2.07642e+06 48875 0 -2.07656e+06 49282 0 -2.07671e+06 49689.2 0 -2.07685e+06 50096.3 0 -2.077e+06 50503.5 0 -2.07715e+06 50910.8 0 -2.0773e+06 51318.1 0 -2.06742e+06 0 0 -2.06742e+06 408.348 0 -2.06742e+06 816.697 0 -2.06743e+06 1225.05 0 -2.06743e+06 1633.4 0 -2.06744e+06 2041.76 0 -2.06744e+06 2450.11 0 -2.06745e+06 2858.48 0 -2.06746e+06 3266.84 0 -2.06747e+06 3675.21 0 -2.06748e+06 4083.59 0 -2.06749e+06 4491.98 0 -2.06751e+06 4900.37 0 -2.06752e+06 5308.77 0 -2.06754e+06 5717.17 0 -2.06756e+06 6125.59 0 -2.06758e+06 6534.01 0 -2.0676e+06 6942.45 0 -2.06762e+06 7350.89 0 -2.06764e+06 7759.35 0 -2.06766e+06 8167.82 0 -2.06769e+06 8576.3 0 -2.06771e+06 8984.8 0 -2.06774e+06 9393.31 0 -2.06777e+06 9801.83 0 -2.0678e+06 10210.4 0 -2.06783e+06 10618.9 0 -2.06786e+06 11027.5 0 -2.0679e+06 11436.1 0 -2.06793e+06 11844.7 0 -2.06797e+06 12253.3 0 -2.068e+06 12662 0 -2.06804e+06 13070.6 0 -2.06808e+06 13479.3 0 -2.06812e+06 13888 0 -2.06816e+06 14296.7 0 -2.06821e+06 14705.5 0 -2.06825e+06 15114.2 0 -2.0683e+06 15523 0 -2.06834e+06 15931.8 0 -2.06839e+06 16340.7 0 -2.06844e+06 16749.5 0 -2.06849e+06 17158.4 0 -2.06854e+06 17567.4 0 -2.0686e+06 17976.3 0 -2.06865e+06 18385.3 0 -2.0687e+06 18794.3 0 -2.06876e+06 19203.3 0 -2.06882e+06 19612.4 0 -2.06888e+06 20021.4 0 -2.06894e+06 20430.6 0 -2.069e+06 20839.7 0 -2.06906e+06 21248.9 0 -2.06913e+06 21658.1 0 -2.06919e+06 22067.3 0 -2.06926e+06 22476.6 0 -2.06932e+06 22885.9 0 -2.06939e+06 23295.3 0 -2.06946e+06 23704.7 0 -2.06953e+06 24114.1 0 -2.06961e+06 24523.6 0 -2.06968e+06 24933.1 0 -2.06975e+06 25342.6 0 -2.06983e+06 25752.2 0 -2.06991e+06 26161.8 0 -2.06998e+06 26571.4 0 -2.07006e+06 26981.1 0 -2.07014e+06 27390.9 0 -2.07023e+06 27800.7 0 -2.07031e+06 28210.5 0 -2.07039e+06 28620.3 0 -2.07048e+06 29030.2 0 -2.07057e+06 29440.2 0 -2.07065e+06 29850.2 0 -2.07074e+06 30260.2 0 -2.07083e+06 30670.3 0 -2.07093e+06 31080.5 0 -2.07102e+06 31490.6 0 -2.07111e+06 31900.9 0 -2.07121e+06 32311.2 0 -2.07131e+06 32721.5 0 -2.0714e+06 33131.9 0 -2.0715e+06 33542.3 0 -2.0716e+06 33952.8 0 -2.0717e+06 34363.3 0 -2.07181e+06 34773.9 0 -2.07191e+06 35184.6 0 -2.07201e+06 35595.3 0 -2.07212e+06 36006 0 -2.07223e+06 36416.8 0 -2.07234e+06 36827.7 0 -2.07245e+06 37238.6 0 -2.07256e+06 37649.6 0 -2.07267e+06 38060.6 0 -2.07278e+06 38471.7 0 -2.0729e+06 38882.8 0 -2.07302e+06 39294 0 -2.07313e+06 39705.3 0 -2.07325e+06 40116.6 0 -2.07337e+06 40528 0 -2.07349e+06 40939.4 0 -2.07361e+06 41350.9 0 -2.07374e+06 41762.5 0 -2.07386e+06 42174.1 0 -2.07399e+06 42585.8 0 -2.07411e+06 42997.5 0 -2.07424e+06 43409.3 0 -2.07437e+06 43821.2 0 -2.0745e+06 44233.1 0 -2.07464e+06 44645.1 0 -2.07477e+06 45057.2 0 -2.0749e+06 45469.4 0 -2.07504e+06 45881.6 0 -2.07518e+06 46293.8 0 -2.07531e+06 46706.2 0 -2.07545e+06 47118.6 0 -2.07559e+06 47531.2 0 -2.07573e+06 47943.8 0 -2.07588e+06 48356.5 0 -2.07602e+06 48769.4 0 -2.07617e+06 49182.3 0 -2.07631e+06 49595.3 0 -2.07646e+06 50008.4 0 -2.07661e+06 50421.5 0 -2.07676e+06 50834.7 0 -2.07691e+06 51248 0 -2.07707e+06 51661.3 0 -2.07722e+06 52074.7 0 -2.06711e+06 0 0 -2.06711e+06 414.264 0 -2.06711e+06 828.529 0 -2.06711e+06 1242.8 0 -2.06712e+06 1657.06 0 -2.06712e+06 2071.34 0 -2.06713e+06 2485.61 0 -2.06714e+06 2899.89 0 -2.06715e+06 3314.17 0 -2.06716e+06 3728.46 0 -2.06717e+06 4142.76 0 -2.06718e+06 4557.06 0 -2.06719e+06 4971.37 0 -2.06721e+06 5385.68 0 -2.06723e+06 5800.01 0 -2.06725e+06 6214.34 0 -2.06726e+06 6628.69 0 -2.06728e+06 7043.04 0 -2.06731e+06 7457.41 0 -2.06733e+06 7871.78 0 -2.06735e+06 8286.17 0 -2.06738e+06 8700.58 0 -2.06741e+06 9114.99 0 -2.06743e+06 9529.43 0 -2.06746e+06 9943.87 0 -2.06749e+06 10358.3 0 -2.06753e+06 10772.8 0 -2.06756e+06 11187.3 0 -2.06759e+06 11601.8 0 -2.06763e+06 12016.4 0 -2.06766e+06 12430.9 0 -2.0677e+06 12845.5 0 -2.06774e+06 13260.1 0 -2.06778e+06 13674.7 0 -2.06782e+06 14089.3 0 -2.06787e+06 14504 0 -2.06791e+06 14918.6 0 -2.06796e+06 15333.3 0 -2.068e+06 15748.1 0 -2.06805e+06 16162.8 0 -2.0681e+06 16577.6 0 -2.06815e+06 16992.4 0 -2.0682e+06 17407.2 0 -2.06825e+06 17822.1 0 -2.06831e+06 18236.9 0 -2.06836e+06 18651.9 0 -2.06842e+06 19066.8 0 -2.06848e+06 19481.8 0 -2.06854e+06 19896.8 0 -2.0686e+06 20311.8 0 -2.06866e+06 20726.9 0 -2.06872e+06 21142 0 -2.06879e+06 21557.1 0 -2.06885e+06 21972.3 0 -2.06892e+06 22387.5 0 -2.06898e+06 22802.7 0 -2.06905e+06 23218 0 -2.06912e+06 23633.3 0 -2.0692e+06 24048.6 0 -2.06927e+06 24464 0 -2.06934e+06 24879.4 0 -2.06942e+06 25294.9 0 -2.06949e+06 25710.4 0 -2.06957e+06 26125.9 0 -2.06965e+06 26541.5 0 -2.06973e+06 26957.1 0 -2.06981e+06 27372.8 0 -2.06989e+06 27788.5 0 -2.06998e+06 28204.2 0 -2.07006e+06 28620 0 -2.07015e+06 29035.8 0 -2.07024e+06 29451.7 0 -2.07033e+06 29867.7 0 -2.07042e+06 30283.6 0 -2.07051e+06 30699.7 0 -2.0706e+06 31115.7 0 -2.07069e+06 31531.9 0 -2.07079e+06 31948 0 -2.07089e+06 32364.3 0 -2.07098e+06 32780.5 0 -2.07108e+06 33196.8 0 -2.07118e+06 33613.2 0 -2.07128e+06 34029.7 0 -2.07139e+06 34446.1 0 -2.07149e+06 34862.7 0 -2.0716e+06 35279.3 0 -2.0717e+06 35695.9 0 -2.07181e+06 36112.6 0 -2.07192e+06 36529.4 0 -2.07203e+06 36946.2 0 -2.07214e+06 37363.1 0 -2.07225e+06 37780 0 -2.07237e+06 38197 0 -2.07248e+06 38614 0 -2.0726e+06 39031.2 0 -2.07272e+06 39448.3 0 -2.07283e+06 39865.5 0 -2.07295e+06 40282.8 0 -2.07308e+06 40700.2 0 -2.0732e+06 41117.6 0 -2.07332e+06 41535.1 0 -2.07345e+06 41952.6 0 -2.07357e+06 42370.2 0 -2.0737e+06 42787.9 0 -2.07383e+06 43205.6 0 -2.07396e+06 43623.4 0 -2.07409e+06 44041.2 0 -2.07422e+06 44459.2 0 -2.07436e+06 44877.2 0 -2.07449e+06 45295.2 0 -2.07463e+06 45713.4 0 -2.07477e+06 46131.6 0 -2.07491e+06 46549.9 0 -2.07505e+06 46968.2 0 -2.07519e+06 47386.7 0 -2.07533e+06 47805.2 0 -2.07547e+06 48223.9 0 -2.07562e+06 48642.6 0 -2.07577e+06 49061.4 0 -2.07591e+06 49480.4 0 -2.07606e+06 49899.4 0 -2.07621e+06 50318.5 0 -2.07636e+06 50737.6 0 -2.07652e+06 51156.8 0 -2.07667e+06 51576.1 0 -2.07683e+06 51995.5 0 -2.07698e+06 52414.9 0 -2.07714e+06 52834.4 0 -2.06679e+06 0 0 -2.06679e+06 420.203 0 -2.06679e+06 840.406 0 -2.06679e+06 1260.61 0 -2.0668e+06 1680.82 0 -2.0668e+06 2101.03 0 -2.06681e+06 2521.24 0 -2.06682e+06 2941.46 0 -2.06683e+06 3361.68 0 -2.06684e+06 3781.91 0 -2.06685e+06 4202.15 0 -2.06687e+06 4622.39 0 -2.06688e+06 5042.63 0 -2.0669e+06 5462.89 0 -2.06691e+06 5883.16 0 -2.06693e+06 6303.43 0 -2.06695e+06 6723.72 0 -2.06697e+06 7144.02 0 -2.06699e+06 7564.32 0 -2.06702e+06 7984.64 0 -2.06704e+06 8404.98 0 -2.06707e+06 8825.32 0 -2.0671e+06 9245.68 0 -2.06713e+06 9666.06 0 -2.06716e+06 10086.5 0 -2.06719e+06 10506.9 0 -2.06722e+06 10927.3 0 -2.06725e+06 11347.7 0 -2.06729e+06 11768.2 0 -2.06732e+06 12188.7 0 -2.06736e+06 12609.2 0 -2.0674e+06 13029.7 0 -2.06744e+06 13450.2 0 -2.06748e+06 13870.8 0 -2.06752e+06 14291.4 0 -2.06757e+06 14712 0 -2.06761e+06 15132.6 0 -2.06766e+06 15553.3 0 -2.06771e+06 15973.9 0 -2.06776e+06 16394.7 0 -2.06781e+06 16815.4 0 -2.06786e+06 17236.1 0 -2.06791e+06 17656.9 0 -2.06796e+06 18077.7 0 -2.06802e+06 18498.6 0 -2.06808e+06 18919.5 0 -2.06813e+06 19340.4 0 -2.06819e+06 19761.3 0 -2.06825e+06 20182.3 0 -2.06832e+06 20603.3 0 -2.06838e+06 21024.3 0 -2.06844e+06 21445.4 0 -2.06851e+06 21866.5 0 -2.06858e+06 22287.6 0 -2.06864e+06 22708.8 0 -2.06871e+06 23130 0 -2.06878e+06 23551.2 0 -2.06886e+06 23972.5 0 -2.06893e+06 24393.8 0 -2.069e+06 24815.2 0 -2.06908e+06 25236.6 0 -2.06916e+06 25658.1 0 -2.06923e+06 26079.5 0 -2.06931e+06 26501.1 0 -2.06939e+06 26922.6 0 -2.06948e+06 27344.2 0 -2.06956e+06 27765.9 0 -2.06964e+06 28187.6 0 -2.06973e+06 28609.3 0 -2.06982e+06 29031.1 0 -2.06991e+06 29453 0 -2.07e+06 29874.9 0 -2.07009e+06 30296.8 0 -2.07018e+06 30718.8 0 -2.07027e+06 31140.8 0 -2.07037e+06 31562.9 0 -2.07046e+06 31985 0 -2.07056e+06 32407.2 0 -2.07066e+06 32829.4 0 -2.07076e+06 33251.7 0 -2.07086e+06 33674.1 0 -2.07096e+06 34096.5 0 -2.07107e+06 34518.9 0 -2.07117e+06 34941.4 0 -2.07128e+06 35364 0 -2.07139e+06 35786.6 0 -2.0715e+06 36209.3 0 -2.07161e+06 36632 0 -2.07172e+06 37054.8 0 -2.07183e+06 37477.6 0 -2.07194e+06 37900.6 0 -2.07206e+06 38323.5 0 -2.07218e+06 38746.6 0 -2.07229e+06 39169.7 0 -2.07241e+06 39592.8 0 -2.07253e+06 40016 0 -2.07265e+06 40439.3 0 -2.07278e+06 40862.6 0 -2.0729e+06 41286 0 -2.07303e+06 41709.5 0 -2.07315e+06 42133 0 -2.07328e+06 42556.6 0 -2.07341e+06 42980.3 0 -2.07354e+06 43404 0 -2.07367e+06 43827.8 0 -2.07381e+06 44251.7 0 -2.07394e+06 44675.6 0 -2.07408e+06 45099.7 0 -2.07421e+06 45523.7 0 -2.07435e+06 45947.9 0 -2.07449e+06 46372.1 0 -2.07463e+06 46796.4 0 -2.07478e+06 47220.8 0 -2.07492e+06 47645.3 0 -2.07506e+06 48069.9 0 -2.07521e+06 48494.6 0 -2.07536e+06 48919.4 0 -2.07551e+06 49344.2 0 -2.07566e+06 49769.2 0 -2.07581e+06 50194.2 0 -2.07596e+06 50619.3 0 -2.07611e+06 51044.5 0 -2.07627e+06 51469.7 0 -2.07642e+06 51895.1 0 -2.07658e+06 52320.4 0 -2.07674e+06 52745.9 0 -2.0769e+06 53171.5 0 -2.07706e+06 53597.1 0 -2.06647e+06 0 0 -2.06647e+06 426.164 0 -2.06647e+06 852.328 0 -2.06648e+06 1278.49 0 -2.06648e+06 1704.66 0 -2.06649e+06 2130.83 0 -2.06649e+06 2557.01 0 -2.0665e+06 2983.19 0 -2.06651e+06 3409.37 0 -2.06652e+06 3835.56 0 -2.06654e+06 4261.76 0 -2.06655e+06 4687.96 0 -2.06657e+06 5114.17 0 -2.06658e+06 5540.39 0 -2.0666e+06 5966.62 0 -2.06662e+06 6392.86 0 -2.06664e+06 6819.11 0 -2.06666e+06 7245.37 0 -2.06668e+06 7671.64 0 -2.06671e+06 8097.93 0 -2.06673e+06 8524.23 0 -2.06676e+06 8950.54 0 -2.06679e+06 9376.87 0 -2.06682e+06 9803.21 0 -2.06685e+06 10229.6 0 -2.06688e+06 10655.9 0 -2.06691e+06 11082.3 0 -2.06695e+06 11508.8 0 -2.06698e+06 11935.2 0 -2.06702e+06 12361.6 0 -2.06706e+06 12788.1 0 -2.0671e+06 13214.6 0 -2.06714e+06 13641.1 0 -2.06718e+06 14067.6 0 -2.06722e+06 14494.2 0 -2.06727e+06 14920.8 0 -2.06732e+06 15347.4 0 -2.06736e+06 15774 0 -2.06741e+06 16200.7 0 -2.06746e+06 16627.4 0 -2.06751e+06 17054.1 0 -2.06757e+06 17480.8 0 -2.06762e+06 17907.6 0 -2.06768e+06 18334.4 0 -2.06773e+06 18761.2 0 -2.06779e+06 19188.1 0 -2.06785e+06 19615 0 -2.06791e+06 20041.9 0 -2.06797e+06 20468.9 0 -2.06803e+06 20895.9 0 -2.0681e+06 21322.9 0 -2.06816e+06 21749.9 0 -2.06823e+06 22177 0 -2.0683e+06 22604.2 0 -2.06837e+06 23031.3 0 -2.06844e+06 23458.6 0 -2.06851e+06 23885.8 0 -2.06859e+06 24313.1 0 -2.06866e+06 24740.4 0 -2.06874e+06 25167.8 0 -2.06882e+06 25595.2 0 -2.06889e+06 26022.6 0 -2.06897e+06 26450.1 0 -2.06906e+06 26877.7 0 -2.06914e+06 27305.2 0 -2.06922e+06 27732.9 0 -2.06931e+06 28160.5 0 -2.06939e+06 28588.3 0 -2.06948e+06 29016 0 -2.06957e+06 29443.8 0 -2.06966e+06 29871.7 0 -2.06975e+06 30299.6 0 -2.06985e+06 30727.6 0 -2.06994e+06 31155.6 0 -2.07004e+06 31583.6 0 -2.07013e+06 32011.7 0 -2.07023e+06 32439.9 0 -2.07033e+06 32868.1 0 -2.07043e+06 33296.4 0 -2.07054e+06 33724.7 0 -2.07064e+06 34153.1 0 -2.07074e+06 34581.6 0 -2.07085e+06 35010 0 -2.07096e+06 35438.6 0 -2.07107e+06 35867.2 0 -2.07118e+06 36295.9 0 -2.07129e+06 36724.6 0 -2.0714e+06 37153.4 0 -2.07152e+06 37582.3 0 -2.07163e+06 38011.2 0 -2.07175e+06 38440.1 0 -2.07187e+06 38869.2 0 -2.07198e+06 39298.3 0 -2.07211e+06 39727.4 0 -2.07223e+06 40156.7 0 -2.07235e+06 40586 0 -2.07247e+06 41015.3 0 -2.0726e+06 41444.7 0 -2.07273e+06 41874.2 0 -2.07286e+06 42303.8 0 -2.07299e+06 42733.4 0 -2.07312e+06 43163.1 0 -2.07325e+06 43592.8 0 -2.07338e+06 44022.7 0 -2.07352e+06 44452.6 0 -2.07365e+06 44882.5 0 -2.07379e+06 45312.6 0 -2.07393e+06 45742.7 0 -2.07407e+06 46172.9 0 -2.07421e+06 46603.2 0 -2.07436e+06 47033.5 0 -2.0745e+06 47464 0 -2.07465e+06 47894.5 0 -2.07479e+06 48325.2 0 -2.07494e+06 48755.9 0 -2.07509e+06 49186.7 0 -2.07524e+06 49617.6 0 -2.07539e+06 50048.6 0 -2.07555e+06 50479.7 0 -2.0757e+06 50910.8 0 -2.07586e+06 51342.1 0 -2.07601e+06 51773.4 0 -2.07617e+06 52204.8 0 -2.07633e+06 52636.2 0 -2.07649e+06 53067.8 0 -2.07666e+06 53499.4 0 -2.07682e+06 53931.1 0 -2.07699e+06 54362.9 0 -2.06615e+06 0 0 -2.06615e+06 432.147 0 -2.06616e+06 864.294 0 -2.06616e+06 1296.44 0 -2.06616e+06 1728.6 0 -2.06617e+06 2160.75 0 -2.06618e+06 2592.91 0 -2.06619e+06 3025.07 0 -2.0662e+06 3457.24 0 -2.06621e+06 3889.41 0 -2.06622e+06 4321.59 0 -2.06623e+06 4753.78 0 -2.06625e+06 5185.98 0 -2.06627e+06 5618.18 0 -2.06628e+06 6050.4 0 -2.0663e+06 6482.62 0 -2.06632e+06 6914.86 0 -2.06635e+06 7347.11 0 -2.06637e+06 7779.37 0 -2.06639e+06 8211.64 0 -2.06642e+06 8643.93 0 -2.06645e+06 9076.23 0 -2.06648e+06 9508.55 0 -2.06651e+06 9940.88 0 -2.06654e+06 10373.2 0 -2.06657e+06 10805.6 0 -2.0666e+06 11238 0 -2.06664e+06 11670.4 0 -2.06668e+06 12102.8 0 -2.06671e+06 12535.3 0 -2.06675e+06 12967.7 0 -2.06679e+06 13400.2 0 -2.06684