<?xml version="1.0"?> 
<VTKFile type="StructuredGrid" version="0.1"> 
<StructuredGrid WholeExtent="0 127 0 127 0 0"> 
<Piece Extent="0 127 0 127 0 0"> 
<PointData>
<DataArray type="Float32" Name="|E|" format="ascii" NumberOfComponents="3"> 
276971 4.20084e+06 0 276819 4.19854e+06 0 276670 4.19628e+06 0 276526 4.19409e+06 0 276384 4.19195e+06 0 276247 4.18986e+06 0 276112 4.18782e+06 0 275982 4.18584e+06 0 275854 4.18391e+06 0 275731 4.18203e+06 0 275610 4.18021e+06 0 275493 4.17843e+06 0 275380 4.17671e+06 0 275270 4.17504e+06 0 275163 4.17342e+06 0 275060 4.17185e+06 0 274959 4.17034e+06 0 274863 4.16887e+06 0 274769 4.16745e+06 0 274679 4.16609e+06 0 274593 4.16477e+06 0 274509 4.16351e+06 0 274429 4.1623e+06 0 274353 4.16113e+06 0 274279 4.16002e+06 0 274209 4.15896e+06 0 274143 4.15795e+06 0 274080 4.15699e+06 0 274020 4.15608e+06 0 273963 4.15523e+06 0 273910 4.15442e+06 0 273861 4.15367e+06 0 273814 4.15297e+06 0 273772 4.15232e+06 0 273732 4.15173e+06 0 273697 4.15118e+06 0 273665 4.1507e+06 0 273636 4.15026e+06 0 273611 4.14988e+06 0 273589 4.14956e+06 0 273572 4.14929e+06 0 273558 4.14907e+06 0 273547 4.14892e+06 0 273541 4.14882e+06 0 273538 4.14877e+06 0 273539 4.14879e+06 0 273544 4.14886e+06 0 273553 4.149e+06 0 273565 4.14919e+06 0 273582 4.14945e+06 0 273603 4.14977e+06 0 273628 4.15015e+06 0 273658 4.15059e+06 0 273691 4.1511e+06 0 273729 4.15167e+06 0 273771 4.15231e+06 0 273818 4.15302e+06 0 273869 4.1538e+06 0 273925 4.15465e+06 0 273986 4.15556e+06 0 274051 4.15655e+06 0 274121 4.15762e+06 0 274196 4.15876e+06 0 274276 4.15997e+06 0 274361 4.16126e+06 0 274452 4.16263e+06 0 274547 4.16408e+06 0 274648 4.16562e+06 0 274755 4.16724e+06 0 274867 4.16894e+06 0 274985 4.17073e+06 0 275109 4.17261e+06 0 275239 4.17458e+06 0 275376 4.17665e+06 0 275518 4.17881e+06 0 275667 4.18106e+06 0 275822 4.18342e+06 0 275984 4.18588e+06 0 276153 4.18844e+06 0 276329 4.19112e+06 0 276513 4.1939e+06 0 276704 4.19679e+06 0 276902 4.1998e+06 0 277108 4.20293e+06 0 277323 4.20618e+06 0 277545 4.20955e+06 0 277776 4.21305e+06 0 278016 4.21669e+06 0 278264 4.22046e+06 0 278522 4.22437e+06 0 278789 4.22843e+06 0 279066 4.23263e+06 0 279354 4.23698e+06 0 279651 4.24149e+06 0 279959 4.24617e+06 0 280278 4.25101e+06 0 280609 4.25602e+06 0 280951 4.26121e+06 0 281305 4.26658e+06 0 281672 4.27215e+06 0 282052 4.27791e+06 0 282445 4.28388e+06 0 282853 4.29005e+06 0 283274 4.29644e+06 0 283711 4.30306e+06 0 284162 4.30992e+06 0 284630 4.31702e+06 0 285115 4.32437e+06 0 285617 4.33198e+06 0 286137 4.33987e+06 0 286676 4.34804e+06 0 287235 4.35652e+06 0 287814 4.3653e+06 0 288414 4.3744e+06 0 289036 4.38384e+06 0 289682 4.39363e+06 0 290352 4.4038e+06 0 291048 4.41435e+06 0 291770 4.42531e+06 0 292521 4.43669e+06 0 293301 4.44853e+06 0 294113 4.46083e+06 0 294957 4.47364e+06 0 295836 4.48697e+06 0 296752 4.50086e+06 0 297706 4.51534e+06 0 298702 4.53044e+06 0 299742 4.54621e+06 0 273708 4.20122e+06 0 273632 4.1989e+06 0 273559 4.19664e+06 0 273489 4.19444e+06 0 273421 4.19228e+06 0 273357 4.19019e+06 0 273296 4.18814e+06 0 273238 4.18615e+06 0 273184 4.18421e+06 0 273132 4.18232e+06 0 273083 4.18049e+06 0 273038 4.17871e+06 0 272995 4.17698e+06 0 272956 4.1753e+06 0 272920 4.17367e+06 0 272887 4.17209e+06 0 272857 4.17056e+06 0 272831 4.16909e+06 0 272808 4.16766e+06 0 272788 4.16629e+06 0 272772 4.16496e+06 0 272759 4.16369e+06 0 272750 4.16247e+06 0 272744 4.16129e+06 0 272741 4.16017e+06 0 272742 4.1591e+06 0 272747 4.15808e+06 0 272755 4.15711e+06 0 272767 4.1562e+06 0 272783 4.15533e+06 0 272803 4.15452e+06 0 272826 4.15375e+06 0 272853 4.15304e+06 0 272884 4.15238e+06 0 272919 4.15178e+06 0 272959 4.15123e+06 0 273002 4.15073e+06 0 273050 4.15028e+06 0 273102 4.14989e+06 0 273158 4.14956e+06 0 273218 4.14928e+06 0 273284 4.14905e+06 0 273353 4.14888e+06 0 273427 4.14877e+06 0 273507 4.14872e+06 0 273590 4.14872e+06 0 273679 4.14878e+06 0 273773 4.14891e+06 0 273872 4.14909e+06 0 273976 4.14933e+06 0 274085 4.14964e+06 0 274200 4.15001e+06 0 274321 4.15044e+06 0 274447 4.15093e+06 0 274578 4.15149e+06 0 274716 4.15212e+06 0 274860 4.15281e+06 0 275009 4.15358e+06 0 275166 4.15441e+06 0 275328 4.15531e+06 0 275497 4.15629e+06 0 275673 4.15733e+06 0 275856 4.15846e+06 0 276046 4.15965e+06 0 276243 4.16093e+06 0 276448 4.16228e+06 0 276660 4.16372e+06 0 276880 4.16524e+06 0 277109 4.16683e+06 0 277345 4.16852e+06 0 277590 4.17029e+06 0 277843 4.17215e+06 0 278106 4.1741e+06 0 278377 4.17615e+06 0 278658 4.17829e+06 0 278949 4.18052e+06 0 279250 4.18286e+06 0 279561 4.1853e+06 0 279882 4.18784e+06 0 280215 4.19048e+06 0 280559 4.19324e+06 0 280914 4.19611e+06 0 281281 4.19909e+06 0 281661 4.2022e+06 0 282053 4.20542e+06 0 282459 4.20876e+06 0 282878 4.21224e+06 0 283311 4.21584e+06 0 283759 4.21958e+06 0 284221 4.22346e+06 0 284699 4.22748e+06 0 285194 4.23165e+06 0 285705 4.23597e+06 0 286233 4.24045e+06 0 286780 4.24508e+06 0 287345 4.24989e+06 0 287929 4.25486e+06 0 288533 4.26001e+06 0 289159 4.26534e+06 0 289806 4.27086e+06 0 290476 4.27658e+06 0 291170 4.28249e+06 0 291888 4.28862e+06 0 292633 4.29496e+06 0 293404 4.30153e+06 0 294203 4.30833e+06 0 295032 4.31537e+06 0 295891 4.32266e+06 0 296783 4.33021e+06 0 297710 4.33803e+06 0 298671 4.34614e+06 0 299671 4.35453e+06 0 300709 4.36324e+06 0 301790 4.37226e+06 0 302915 4.38162e+06 0 304086 4.39133e+06 0 305306 4.4014e+06 0 306579 4.41185e+06 0 307907 4.42271e+06 0 309294 4.43398e+06 0 310744 4.4457e+06 0 312260 4.45789e+06 0 313849 4.47056e+06 0 315514 4.48376e+06 0 317262 4.4975e+06 0 319099 4.51182e+06 0 321031 4.52676e+06 0 323067 4.54235e+06 0 270425 4.20149e+06 0 270425 4.19916e+06 0 270427 4.19689e+06 0 270432 4.19468e+06 0 270439 4.19252e+06 0 270449 4.19041e+06 0 270461 4.18836e+06 0 270476 4.18636e+06 0 270493 4.18441e+06 0 270513 4.18252e+06 0 270536 4.18067e+06 0 270562 4.17888e+06 0 270591 4.17714e+06 0 270623 4.17545e+06 0 270657 4.17381e+06 0 270695 4.17223e+06 0 270736 4.17069e+06 0 270780 4.16921e+06 0 270827 4.16777e+06 0 270878 4.16639e+06 0 270932 4.16505e+06 0 270989 4.16377e+06 0 271050 4.16254e+06 0 271115 4.16136e+06 0 271183 4.16022e+06 0 271255 4.15914e+06 0 271331 4.15811e+06 0 271410 4.15714e+06 0 271494 4.15621e+06 0 271582 4.15533e+06 0 271674 4.15451e+06 0 271770 4.15373e+06 0 271870 4.15301e+06 0 271975 4.15234e+06 0 272084 4.15173e+06 0 272198 4.15116e+06 0 272317 4.15065e+06 0 272441 4.1502e+06 0 272569 4.1498e+06 0 272703 4.14945e+06 0 272841 4.14916e+06 0 272985 4.14892e+06 0 273135 4.14874e+06 0 273290 4.14861e+06 0 273450 4.14855e+06 0 273616 4.14854e+06 0 273789 4.14859e+06 0 273967 4.1487e+06 0 274151 4.14886e+06 0 274342 4.14909e+06 0 274540 4.14938e+06 0 274744 4.14974e+06 0 274955 4.15015e+06 0 275173 4.15063e+06 0 275398 4.15118e+06 0 275630 4.15179e+06 0 275870 4.15247e+06 0 276118 4.15321e+06 0 276374 4.15403e+06 0 276638 4.15491e+06 0 276911 4.15587e+06 0 277192 4.1569e+06 0 277482 4.158e+06 0 277781 4.15918e+06 0 278089 4.16044e+06 0 278407 4.16177e+06 0 278735 4.16319e+06 0 279073 4.16468e+06 0 279422 4.16626e+06 0 279782 4.16792e+06 0 280152 4.16967e+06 0 280534 4.17151e+06 0 280928 4.17344e+06 0 281334 4.17546e+06 0 281753 4.17757e+06 0 282184 4.17978e+06 0 282629 4.18209e+06 0 283087 4.1845e+06 0 283560 4.18701e+06 0 284048 4.18963e+06 0 284550 4.19236e+06 0 285069 4.1952e+06 0 285603 4.19815e+06 0 286154 4.20122e+06 0 286723 4.2044e+06 0 287310 4.20772e+06 0 287915 4.21115e+06 0 288539 4.21472e+06 0 289184 4.21842e+06 0 289849 4.22226e+06 0 290536 4.22624e+06 0 291245 4.23037e+06 0 291977 4.23464e+06 0 292734 4.23907e+06 0 293516 4.24366e+06 0 294323 4.24841e+06 0 295158 4.25334e+06 0 296022 4.25843e+06 0 296915 4.26371e+06 0 297839 4.26917e+06 0 298795 4.27483e+06 0 299785 4.28068e+06 0 300810 4.28674e+06 0 301872 4.29301e+06 0 302973 4.29951e+06 0 304115 4.30623e+06 0 305299 4.3132e+06 0 306527 4.32041e+06 0 307803 4.32787e+06 0 309128 4.3356e+06 0 310506 4.34362e+06 0 311938 4.35191e+06 0 313429 4.36051e+06 0 314981 4.36943e+06 0 316598 4.37867e+06 0 318284 4.38826e+06 0 320043 4.3982e+06 0 321881 4.40852e+06 0 323801 4.41923e+06 0 325810 4.43035e+06 0 327914 4.44191e+06 0 330119 4.45392e+06 0 332433 4.46641e+06 0 334864 4.4794e+06 0 337421 4.49293e+06 0 340115 4.50702e+06 0 342956 4.52171e+06 0 345958 4.53703e+06 0 267123 4.20165e+06 0 267199 4.19932e+06 0 267277 4.19704e+06 0 267356 4.19482e+06 0 267438 4.19265e+06 0 267521 4.19053e+06 0 267606 4.18847e+06 0 267694 4.18646e+06 0 267784 4.18451e+06 0 267876 4.1826e+06 0 267971 4.18075e+06 0 268068 4.17895e+06 0 268168 4.1772e+06 0 268270 4.17551e+06 0 268375 4.17386e+06 0 268484 4.17226e+06 0 268595 4.17072e+06 0 268709 4.16922e+06 0 268827 4.16778e+06 0 268947 4.16639e+06 0 269071 4.16504e+06 0 269199 4.16375e+06 0 269330 4.16251e+06 0 269465 4.16132e+06 0 269604 4.16018e+06 0 269747 4.15909e+06 0 269893 4.15805e+06 0 270044 4.15706e+06 0 270199 4.15612e+06 0 270359 4.15523e+06 0 270523 4.1544e+06 0 270691 4.15361e+06 0 270865 4.15288e+06 0 271043 4.1522e+06 0 271226 4.15157e+06 0 271415 4.151e+06 0 271608 4.15047e+06 0 271808 4.15e+06 0 272012 4.14959e+06 0 272223 4.14923e+06 0 272439 4.14892e+06 0 272662 4.14867e+06 0 272890 4.14848e+06 0 273125 4.14834e+06 0 273367 4.14826e+06 0 273615 4.14824e+06 0 273870 4.14827e+06 0 274133 4.14836e+06 0 274402 4.14852e+06 0 274679 4.14873e+06 0 274964 4.14901e+06 0 275257 4.14934e+06 0 275558 4.14974e+06 0 275867 4.1502e+06 0 276185 4.15073e+06 0 276512 4.15132e+06 0 276848 4.15198e+06 0 277193 4.15271e+06 0 277547 4.15351e+06 0 277912 4.15437e+06 0 278287 4.15531e+06 0 278672 4.15632e+06 0 279068 4.1574e+06 0 279476 4.15856e+06 0 279894 4.15979e+06 0 280325 4.1611e+06 0 280768 4.16249e+06 0 281223 4.16396e+06 0 281691 4.16552e+06 0 282172 4.16715e+06 0 282667 4.16888e+06 0 283177 4.17069e+06 0 283701 4.17259e+06 0 284240 4.17458e+06 0 284794 4.17666e+06 0 285365 4.17884e+06 0 285952 4.18112e+06 0 286557 4.18349e+06 0 287179 4.18597e+06 0 287820 4.18856e+06 0 288479 4.19125e+06 0 289159 4.19405e+06 0 289858 4.19696e+06 0 290579 4.19999e+06 0 291322 4.20314e+06 0 292087 4.20641e+06 0 292876 4.2098e+06 0 293690 4.21333e+06 0 294529 4.21698e+06 0 295394 4.22077e+06 0 296286 4.2247e+06 0 297207 4.22878e+06 0 298158 4.233e+06 0 299139 4.23737e+06 0 300152 4.2419e+06 0 301199 4.2466e+06 0 302281 4.25145e+06 0 303399 4.25648e+06 0 304556 4.26169e+06 0 305751 4.26709e+06 0 306989 4.27267e+06 0 308270 4.27844e+06 0 309596 4.28442e+06 0 310971 4.29061e+06 0 312395 4.29702e+06 0 313872 4.30365e+06 0 315404 4.31052e+06 0 316994 4.31763e+06 0 318645 4.32499e+06 0 320361 4.33261e+06 0 322144 4.3405e+06 0 324000 4.34868e+06 0 325931 4.35715e+06 0 327943 4.36592e+06 0 330040 4.37502e+06 0 332227 4.38445e+06 0 334511 4.39423e+06 0 336898 4.40437e+06 0 339393 4.4149e+06 0 342005 4.42582e+06 0 344742 4.43717e+06 0 347613 4.44896e+06 0 350628 4.46121e+06 0 353797 4.47394e+06 0 357133 4.48719e+06 0 360650 4.50099e+06 0 364363 4.51535e+06 0 368288 4.53032e+06 0 263804 4.2017e+06 0 263956 4.19936e+06 0 264109 4.19708e+06 0 264263 4.19485e+06 0 264419 4.19267e+06 0 264576 4.19055e+06 0 264735 4.18848e+06 0 264895 4.18647e+06 0 265057 4.1845e+06 0 265221 4.18259e+06 0 265387 4.18073e+06 0 265555 4.17892e+06 0 265726 4.17717e+06 0 265899 4.17546e+06 0 266075 4.17381e+06 0 266253 4.1722e+06 0 266435 4.17065e+06 0 266619 4.16914e+06 0 266807 4.16769e+06 0 266997 4.16629e+06 0 267191 4.16494e+06 0 267389 4.16363e+06 0 267590 4.16238e+06 0 267795 4.16118e+06 0 268004 4.16003e+06 0 268217 4.15893e+06 0 268435 4.15788e+06 0 268656 4.15688e+06 0 268883 4.15593e+06 0 269114 4.15503e+06 0 269349 4.15418e+06 0 269590 4.15339e+06 0 269836 4.15264e+06 0 270087 4.15195e+06 0 270344 4.15131e+06 0 270607 4.15072e+06 0 270875 4.15019e+06 0 271149 4.1497e+06 0 271430 4.14928e+06 0 271717 4.1489e+06 0 272010 4.14858e+06 0 272311 4.14832e+06 0 272618 4.14811e+06 0 272933 4.14796e+06 0 273255 4.14786e+06 0 273585 4.14782e+06 0 273922 4.14784e+06 0 274268 4.14791e+06 0 274622 4.14805e+06 0 274985 4.14825e+06 0 275356 4.1485e+06 0 275737 4.14882e+06 0 276127 4.1492e+06 0 276527 4.14965e+06 0 276937 4.15015e+06 0 277357 4.15073e+06 0 277788 4.15137e+06 0 278229 4.15207e+06 0 278682 4.15285e+06 0 279147 4.15369e+06 0 279623 4.1546e+06 0 280112 4.15559e+06 0 280613 4.15665e+06 0 281127 4.15778e+06 0 281655 4.15899e+06 0 282197 4.16027e+06 0 282753 4.16163e+06 0 283324 4.16308e+06 0 283910 4.1646e+06 0 284512 4.16621e+06 0 285130 4.1679e+06 0 285766 4.16968e+06 0 286418 4.17155e+06 0 287088 4.17351e+06 0 287777 4.17556e+06 0 288486 4.1777e+06 0 289214 4.17994e+06 0 289962 4.18228e+06 0 290732 4.18472e+06 0 291524 4.18727e+06 0 292338 4.18992e+06 0 293177 4.19268e+06 0 294039 4.19555e+06 0 294927 4.19853e+06 0 295841 4.20163e+06 0 296783 4.20485e+06 0 297753 4.2082e+06 0 298752 4.21167e+06 0 299782 4.21527e+06 0 300844 4.219e+06 0 301938 4.22287e+06 0 303068 4.22689e+06 0 304232 4.23105e+06 0 305435 4.23535e+06 0 306676 4.23982e+06 0 307957 4.24444e+06 0 309281 4.24922e+06 0 310649 4.25418e+06 0 312063 4.25931e+06 0 313526 4.26461e+06 0 315038 4.27011e+06 0 316604 4.27579e+06 0 318225 4.28168e+06 0 319904 4.28777e+06 0 321645 4.29407e+06 0 323449 4.30059e+06 0 325320 4.30735e+06 0 327263 4.31433e+06 0 329280 4.32157e+06 0 331375 4.32905e+06 0 333554 4.33681e+06 0 335820 4.34483e+06 0 338180 4.35315e+06 0 340637 4.36176e+06 0 343199 4.37068e+06 0 345872 4.37993e+06 0 348662 4.38951e+06 0 351578 4.39945e+06 0 354628 4.40975e+06 0 357820 4.42044e+06 0 361165 4.43153e+06 0 364674 4.44305e+06 0 368359 4.45501e+06 0 372233 4.46744e+06 0 376312 4.48035e+06 0 380611 4.49379e+06 0 385149 4.50776e+06 0 389947 4.52231e+06 0 260470 4.20165e+06 0 260698 4.1993e+06 0 260926 4.19701e+06 0 261155 4.19478e+06 0 261384 4.19259e+06 0 261614 4.19047e+06 0 261846 4.18839e+06 0 262079 4.18637e+06 0 262313 4.1844e+06 0 262549 4.18248e+06 0 262786 4.18061e+06 0 263025 4.1788e+06 0 263267 4.17703e+06 0 263510 4.17532e+06 0 263756 4.17365e+06 0 264005 4.17204e+06 0 264256 4.17048e+06 0 264510 4.16897e+06 0 264767 4.1675e+06 0 265028 4.16609e+06 0 265292 4.16473e+06 0 265559 4.16342e+06 0 265830 4.16216e+06 0 266105 4.16094e+06 0 266384 4.15978e+06 0 266667 4.15867e+06 0 266954 4.15761e+06 0 267247 4.1566e+06 0 267544 4.15564e+06 0 267846 4.15473e+06 0 268153 4.15387e+06 0 268465 4.15306e+06 0 268784 4.1523e+06 0 269107 4.1516e+06 0 269437 4.15094e+06 0 269773 4.15034e+06 0 270116 4.14979e+06 0 270465 4.1493e+06 0 270821 4.14886e+06 0 271184 4.14847e+06 0 271554 4.14813e+06 0 271932 4.14785e+06 0 272317 4.14763e+06 0 272711 4.14746e+06 0 273113 4.14734e+06 0 273523 4.14729e+06 0 273943 4.14729e+06 0 274371 4.14735e+06 0 274809 4.14747e+06 0 275257 4.14764e+06 0 275714 4.14788e+06 0 276182 4.14818e+06 0 276661 4.14854e+06 0 277150 4.14896e+06 0 277651 4.14945e+06 0 278164 4.15e+06 0 278688 4.15061e+06 0 279225 4.1513e+06 0 279775 4.15205e+06 0 280338 4.15287e+06 0 280915 4.15375e+06 0 281506 4.15471e+06 0 282111 4.15574e+06 0 282731 4.15685e+06 0 283367 4.15803e+06 0 284019 4.15928e+06 0 284687 4.16062e+06 0 285372 4.16203e+06 0 286075 4.16352e+06 0 286796 4.1651e+06 0 287536 4.16676e+06 0 288295 4.1685e+06 0 289075 4.17033e+06 0 289875 4.17225e+06 0 290696 4.17426e+06 0 291540 4.17637e+06 0 292407 4.17857e+06 0 293297 4.18087e+06 0 294212 4.18326e+06 0 295153 4.18576e+06 0 296120 4.18837e+06 0 297114 4.19108e+06 0 298137 4.1939e+06 0 299189 4.19683e+06 0 300272 4.19988e+06 0 301387 4.20304e+06 0 302535 4.20633e+06 0 303716 4.20974e+06 0 304934 4.21328e+06 0 306188 4.21695e+06 0 307481 4.22076e+06 0 308815 4.2247e+06 0 310189 4.22879e+06 0 311608 4.23302e+06 0 313072 4.23741e+06 0 314583 4.24195e+06 0 316143 4.24665e+06 0 317755 4.25152e+06 0 319421 4.25655e+06 0 321144 4.26177e+06 0 322925 4.26716e+06 0 324769 4.27274e+06 0 326677 4.27852e+06 0 328653 4.28449e+06 0 330700 4.29068e+06 0 332823 4.29708e+06 0 335024 4.30369e+06 0 337308 4.31054e+06 0 339679 4.31763e+06 0 342143 4.32497e+06 0 344704 4.33256e+06 0 347367 4.34041e+06 0 350139 4.34855e+06 0 353027 4.35697e+06 0 356036 4.36569e+06 0 359175 4.37472e+06 0 362451 4.38408e+06 0 365874 4.39378e+06 0 369454 4.40382e+06 0 373200 4.41424e+06 0 377124 4.42504e+06 0 381240 4.43625e+06 0 385560 4.44788e+06 0 390101 4.45994e+06 0 394879 4.47247e+06 0 399913 4.48549e+06 0 405224 4.49902e+06 0 410836 4.51308e+06 0 257121 4.20148e+06 0 257424 4.19913e+06 0 257728 4.19684e+06 0 258031 4.1946e+06 0 258334 4.19241e+06 0 258638 4.19028e+06 0 258942 4.1882e+06 0 259247 4.18617e+06 0 259553 4.18419e+06 0 259860 4.18226e+06 0 260168 4.18039e+06 0 260479 4.17857e+06 0 260790 4.17679e+06 0 261104 4.17507e+06 0 261420 4.1734e+06 0 261738 4.17178e+06 0 262059 4.17021e+06 0 262383 4.16869e+06 0 262709 4.16722e+06 0 263039 4.1658e+06 0 263372 4.16443e+06 0 263709 4.1631e+06 0 264049 4.16183e+06 0 264393 4.16061e+06 0 264742 4.15944e+06 0 265095 4.15832e+06 0 265452 4.15724e+06 0 265815 4.15622e+06 0 266182 4.15525e+06 0 266555 4.15433e+06 0 266933 4.15345e+06 0 267317 4.15263e+06 0 267706 4.15186e+06 0 268102 4.15114e+06 0 268505 4.15048e+06 0 268914 4.14986e+06 0 269330 4.1493e+06 0 269753 4.14879e+06 0 270184 4.14833e+06 0 270622 4.14793e+06 0 271068 4.14757e+06 0 271523 4.14728e+06 0 271986 4.14704e+06 0 272458 4.14685e+06 0 272939 4.14672e+06 0 273430 4.14664e+06 0 273930 4.14662e+06 0 274440 4.14666e+06 0 274961 4.14676e+06 0 275493 4.14692e+06 0 276035 4.14713e+06 0 276590 4.14741e+06 0 277156 4.14775e+06 0 277734 4.14815e+06 0 278325 4.14861e+06 0 278929 4.14914e+06 0 279546 4.14973e+06 0 280178 4.15039e+06 0 280823 4.15111e+06 0 281484 4.1519e+06 0 282160 4.15276e+06 0 282852 4.15369e+06 0 283560 4.1547e+06 0 284284 4.15577e+06 0 285027 4.15692e+06 0 285787 4.15814e+06 0 286566 4.15944e+06 0 287364 4.16082e+06 0 288182 4.16228e+06 0 289020 4.16382e+06 0 289880 4.16544e+06 0 290761 4.16715e+06 0 291665 4.16894e+06 0 292593 4.17082e+06 0 293545 4.17279e+06 0 294522 4.17485e+06 0 295525 4.177e+06 0 296555 4.17925e+06 0 297613 4.1816e+06 0 298700 4.18405e+06 0 299816 4.1866e+06 0 300964 4.18926e+06 0 302144 4.19203e+06 0 303358 4.1949e+06 0 304606 4.19789e+06 0 305890 4.20099e+06 0 307212 4.20422e+06 0 308573 4.20756e+06 0 309974 4.21103e+06 0 311417 4.21463e+06 0 312904 4.21836e+06 0 314437 4.22223e+06 0 316017 4.22624e+06 0 317646 4.23039e+06 0 319327 4.23469e+06 0 321062 4.23914e+06 0 322853 4.24374e+06 0 324703 4.24851e+06 0 326615 4.25345e+06 0 328590 4.25855e+06 0 330632 4.26384e+06 0 332745 4.2693e+06 0 334932 4.27496e+06 0 337196 4.2808e+06 0 339541 4.28685e+06 0 341971 4.29311e+06 0 344491 4.29958e+06 0 347105 4.30627e+06 0 349818 4.3132e+06 0 352636 4.32036e+06 0 355565 4.32777e+06 0 358610 4.33544e+06 0 361778 4.34337e+06 0 365077 4.35158e+06 0 368514 4.36008e+06 0 372098 4.36887e+06 0 375838 4.37797e+06 0 379744 4.3874e+06 0 383826 4.39716e+06 0 388097 4.40727e+06 0 392568 4.41775e+06 0 397255 4.42861e+06 0 402172 4.43986e+06 0 407337 4.45153e+06 0 412768 4.46363e+06 0 418486 4.47618e+06 0 424513 4.48921e+06 0 430875 4.50273e+06 0 253760 4.20121e+06 0 254138 4.19886e+06 0 254516 4.19656e+06 0 254893 4.19432e+06 0 255270 4.19212e+06 0 255647 4.18998e+06 0 256023 4.1879e+06 0 256400 4.18586e+06 0 256778 4.18388e+06 0 257156 4.18195e+06 0 257535 4.18007e+06 0 257916 4.17824e+06 0 258297 4.17646e+06 0 258681 4.17473e+06 0 259067 4.17305e+06 0 259454 4.17142e+06 0 259844 4.16984e+06 0 260237 4.16831e+06 0 260633 4.16683e+06 0 261031 4.1654e+06 0 261433 4.16402e+06 0 261839 4.16269e+06 0 262248 4.16141e+06 0 262661 4.16018e+06 0 263079 4.15899e+06 0 263501 4.15786e+06 0 263928 4.15678e+06 0 264360 4.15574e+06 0 264797 4.15476e+06 0 265240 4.15382e+06 0 265688 4.15294e+06 0 266143 4.15211e+06 0 266604 4.15132e+06 0 267071 4.15059e+06 0 267546 4.14991e+06 0 268027 4.14928e+06 0 268516 4.1487e+06 0 269013 4.14817e+06 0 269518 4.1477e+06 0 270031 4.14728e+06 0 270552 4.14691e+06 0 271083 4.1466e+06 0 271623 4.14634e+06 0 272172 4.14613e+06 0 272732 4.14598e+06 0 273301 4.14588e+06 0 273882 4.14585e+06 0 274473 4.14587e+06 0 275076 4.14594e+06 0 275691 4.14608e+06 0 276318 4.14627e+06 0 276957 4.14652e+06 0 277610 4.14684e+06 0 278276 4.14721e+06 0 278956 4.14765e+06 0 279650 4.14815e+06 0 280359 4.14872e+06 0 281084 4.14935e+06 0 281824 4.15004e+06 0 282581 4.1508e+06 0 283355 4.15164e+06 0 284146 4.15253e+06 0 284955 4.15351e+06 0 285783 4.15455e+06 0 286630 4.15566e+06 0 287497 4.15685e+06 0 288385 4.15811e+06 0 289294 4.15946e+06 0 290225 4.16088e+06 0 291179 4.16237e+06 0 292156 4.16396e+06 0 293158 4.16562e+06 0 294185 4.16737e+06 0 295238 4.1692e+06 0 296318 4.17113e+06 0 297426 4.17314e+06 0 298563 4.17524e+06 0 299730 4.17744e+06 0 300927 4.17974e+06 0 302158 4.18214e+06 0 303421 4.18463e+06 0 304719 4.18723e+06 0 306053 4.18993e+06 0 307425 4.19275e+06 0 308835 4.19567e+06 0 310285 4.19871e+06 0 311777 4.20186e+06 0 313312 4.20513e+06 0 314893 4.20853e+06 0 316520 4.21205e+06 0 318196 4.2157e+06 0 319923 4.21948e+06 0 321703 4.2234e+06 0 323538 4.22746e+06 0 325430 4.23166e+06 0 327383 4.23601e+06 0 329398 4.24052e+06 0 331479 4.24518e+06 0 333628 4.25e+06 0 335848 4.25499e+06 0 338144 4.26015e+06 0 340517 4.26548e+06 0 342973 4.271e+06 0 345515 4.27671e+06 0 348147 4.28261e+06 0 350874 4.28871e+06 0 353700 4.29502e+06 0 356631 4.30155e+06 0 359673 4.30829e+06 0 362831 4.31526e+06 0 366111 4.32248e+06 0 369521 4.32993e+06 0 373067 4.33764e+06 0 376758 4.34562e+06 0 380602 4.35387e+06 0 384609 4.3624e+06 0 388787 4.37122e+06 0 393148 4.38035e+06 0 397704 4.3898e+06 0 402468 4.39958e+06 0 407452 4.4097e+06 0 412673 4.42018e+06 0 418146 4.43103e+06 0 423890 4.44226e+06 0 429924 4.45389e+06 0 436271 4.46595e+06 0 442953 4.47844e+06 0 449999 4.49138e+06 0 250387 4.20084e+06 0 250841 4.19848e+06 0 251293 4.19618e+06 0 251744 4.19393e+06 0 252194 4.19173e+06 0 252643 4.18959e+06 0 253091 4.1875e+06 0 253540 4.18546e+06 0 253988 4.18347e+06 0 254437 4.18153e+06 0 254887 4.17965e+06 0 255337 4.17781e+06 0 255789 4.17602e+06 0 256242 4.17429e+06 0 256696 4.1726e+06 0 257153 4.17097e+06 0 257612 4.16938e+06 0 258073 4.16784e+06 0 258537 4.16635e+06 0 259004 4.16491e+06 0 259475 4.16352e+06 0 259949 4.16218e+06 0 260427 4.16089e+06 0 260908 4.15965e+06 0 261395 4.15845e+06 0 261886 4.15731e+06 0 262381 4.15621e+06 0 262882 4.15517e+06 0 263389 4.15417e+06 0 263901 4.15322e+06 0 264419 4.15233e+06 0 264944 4.15148e+06 0 265476 4.15068e+06 0 266014 4.14993e+06 0 266560 4.14924e+06 0 267113 4.14859e+06 0 267674 4.148e+06 0 268243 4.14745e+06 0 268821 4.14696e+06 0 269408 4.14653e+06 0 270005 4.14614e+06 0 270610 4.14581e+06 0 271226 4.14553e+06 0 271853 4.1453e+06 0 272490 4.14513e+06 0 273138 4.14502e+06 0 273797 4.14496e+06 0 274469 4.14495e+06 0 275153 4.14501e+06 0 275850 4.14512e+06 0 276560 4.14529e+06 0 277283 4.14552e+06 0 278021 4.14581e+06 0 278774 4.14615e+06 0 279542 4.14657e+06 0 280325 4.14704e+06 0 281124 4.14757e+06 0 281941 4.14817e+06 0 282774 4.14884e+06 0 283626 4.14957e+06 0 284496 4.15037e+06 0 285385 4.15124e+06 0 286294 4.15217e+06 0 287223 4.15318e+06 0 288174 4.15426e+06 0 289146 4.15541e+06 0 290141 4.15663e+06 0 291159 4.15793e+06 0 292201 4.15931e+06 0 293268 4.16077e+06 0 294361 4.16231e+06 0 295481 4.16392e+06 0 296628 4.16563e+06 0 297804 4.16741e+06 0 299010 4.16929e+06 0 300246 4.17125e+06 0 301514 4.1733e+06 0 302815 4.17544e+06 0 304150 4.17768e+06 0 305521 4.18002e+06 0 306928 4.18245e+06 0 308373 4.18499e+06 0 309857 4.18763e+06 0 311383 4.19037e+06 0 312950 4.19322e+06 0 314562 4.19619e+06 0 316220 4.19927e+06 0 317926 4.20246e+06 0 319681 4.20577e+06 0 321487 4.20921e+06 0 323347 4.21277e+06 0 325263 4.21646e+06 0 327237 4.22029e+06 0 329272 4.22424e+06 0 331369 4.22834e+06 0 333533 4.23259e+06 0 335765 4.23698e+06 0 338069 4.24152e+06 0 340448 4.24622e+06 0 342905 4.25108e+06 0 345444 4.25611e+06 0 348069 4.26131e+06 0 350784 4.26668e+06 0 353593 4.27223e+06 0 356500 4.27797e+06 0 359512 4.28391e+06 0 362632 4.29004e+06 0 365867 4.29638e+06 0 369222 4.30293e+06 0 372704 4.3097e+06 0 376319 4.3167e+06 0 380075 4.32392e+06 0 383980 4.3314e+06 0 388042 4.33912e+06 0 392271 4.3471e+06 0 396675 4.35535e+06 0 401266 4.36387e+06 0 406055 4.37269e+06 0 411055 4.3818e+06 0 416278 4.39122e+06 0 421739 4.40096e+06 0 427454 4.41103e+06 0 433440 4.42144e+06 0 439716 4.43221e+06 0 446303 4.44335e+06 0 453222 4.45487e+06 0 460498 4.46679e+06 0 468160 4.47912e+06 0 247005 4.20035e+06 0 247533 4.19799e+06 0 248059 4.19569e+06 0 248584 4.19344e+06 0 249106 4.19124e+06 0 249627 4.18909e+06 0 250147 4.187e+06 0 250667 4.18495e+06 0 251186 4.18296e+06 0 251705 4.18102e+06 0 252224 4.17913e+06 0 252744 4.17728e+06 0 253265 4.17549e+06 0 253787 4.17375e+06 0 254310 4.17206e+06 0 254835 4.17041e+06 0 255363 4.16882e+06 0 255892 4.16727e+06 0 256424 4.16578e+06 0 256959 4.16433e+06 0 257498 4.16293e+06 0 258039 4.16158e+06 0 258585 4.16028e+06 0 259135 4.15902e+06 0 259689 4.15782e+06 0 260248 4.15666e+06 0 260812 4.15555e+06 0 261382 4.1545e+06 0 261957 4.15349e+06 0 262538 4.15253e+06 0 263125 4.15162e+06 0 263719 4.15075e+06 0 264321 4.14994e+06 0 264929 4.14918e+06 0 265545 4.14847e+06 0 266170 4.14781e+06 0 266802 4.14719e+06 0 267444 4.14663e+06 0 268094 4.14613e+06 0 268754 4.14567e+06 0 269424 4.14526e+06 0 270105 4.14491e+06 0 270796 4.14461e+06 0 271498 4.14437e+06 0 272211 4.14418e+06 0 272937 4.14404e+06 0 273674 4.14396e+06 0 274425 4.14393e+06 0 275189 4.14396e+06 0 275967 4.14405e+06 0 276759 4.14419e+06 0 277566 4.14439e+06 0 278388 4.14465e+06 0 279225 4.14498e+06 0 280080 4.14536e+06 0 280951 4.1458e+06 0 281839 4.14631e+06 0 282746 4.14687e+06 0 283671 4.14751e+06 0 284616 4.14821e+06 0 285581 4.14897e+06 0 286566 4.1498e+06 0 287573 4.1507e+06 0 288602 4.15167e+06 0 289654 4.15271e+06 0 290729 4.15382e+06 0 291829 4.155e+06 0 292954 4.15626e+06 0 294106 4.1576e+06 0 295284 4.15901e+06 0 296490 4.1605e+06 0 297726 4.16207e+06 0 298991 4.16372e+06 0 300287 4.16545e+06 0 301616 4.16727e+06 0 302978 4.16918e+06 0 304374 4.17117e+06 0 305806 4.17326e+06 0 307275 4.17544e+06 0 308782 4.17771e+06 0 310329 4.18008e+06 0 311918 4.18254e+06 0 313549 4.18511e+06 0 315224 4.18778e+06 0 316946 4.19056e+06 0 318715 4.19344e+06 0 320535 4.19644e+06 0 322405 4.19955e+06 0 324330 4.20278e+06 0 326310 4.20612e+06 0 328349 4.20959e+06 0 330448 4.21318e+06 0 332610 4.2169e+06 0 334837 4.22075e+06 0 337133 4.22474e+06 0 339500 4.22887e+06 0 341942 4.23314e+06 0 344461 4.23756e+06 0 347061 4.24213e+06 0 349746 4.24685e+06 0 352520 4.25173e+06 0 355386 4.25678e+06 0 358349 4.262e+06 0 361414 4.26739e+06 0 364585 4.27296e+06 0 367868 4.27871e+06 0 371269 4.28466e+06 0 374792 4.2908e+06 0 378445 4.29714e+06 0 382235 4.30369e+06 0 386168 4.31046e+06 0 390251 4.31744e+06 0 394495 4.32466e+06 0 398906 4.33211e+06 0 403496 4.33981e+06 0 408273 4.34776e+06 0 413249 4.35597e+06 0 418437 4.36444e+06 0 423848 4.3732e+06 0 429496 4.38224e+06 0 435397 4.39158e+06 0 441566 4.40122e+06 0 448022 4.41118e+06 0 454783 4.42146e+06 0 461870 4.43208e+06 0 469305 4.44304e+06 0 477114 4.45437e+06 0 485323 4.46606e+06 0 243615 4.19976e+06 0 244218 4.1974e+06 0 244817 4.1951e+06 0 245414 4.19284e+06 0 246008 4.19064e+06 0 246601 4.18849e+06 0 247192 4.18639e+06 0 247782 4.18435e+06 0 248371 4.18235e+06 0 248960 4.1804e+06 0 249549 4.17851e+06 0 250138 4.17666e+06 0 250727 4.17486e+06 0 251317 4.17311e+06 0 251909 4.17141e+06 0 252502 4.16976e+06 0 253097 4.16816e+06 0 253694 4.16661e+06 0 254293 4.1651e+06 0 254896 4.16365e+06 0 255501 4.16224e+06 0 256110 4.16088e+06 0 256723 4.15957e+06 0 257340 4.1583e+06 0 257962 4.15709e+06 0 258589 4.15592e+06 0 259220 4.1548e+06 0 259857 4.15373e+06 0 260500 4.15271e+06 0 261150 4.15173e+06 0 261806 4.15081e+06 0 262469 4.14993e+06 0 263139 4.1491e+06 0 263817 4.14833e+06 0 264503 4.1476e+06 0 265197 4.14692e+06 0 265901 4.14629e+06 0 266613 4.14571e+06 0 267335 4.14519e+06 0 268068 4.14471e+06 0 268810 4.14429e+06 0 269564 4.14391e+06 0 270329 4.14359e+06 0 271106 4.14333e+06 0 271895 4.14311e+06 0 272697 4.14295e+06 0 273512 4.14285e+06 0 274340 4.14279e+06 0 275183 4.1428e+06 0 276041 4.14286e+06 0 276914 4.14298e+06 0 277802 4.14315e+06 0 278707 4.14339e+06 0 279629 4.14368e+06 0 280568 4.14403e+06 0 281526 4.14444e+06 0 282502 4.14491e+06 0 283497 4.14545e+06 0 284513 4.14605e+06 0 285549 4.14671e+06 0 286607 4.14744e+06 0 287687 4.14823e+06 0 288790 4.14909e+06 0 289917 4.15002e+06 0 291068 4.15102e+06 0 292244 4.15209e+06 0 293447 4.15323e+06 0 294677 4.15444e+06 0 295935 4.15573e+06 0 297223 4.15709e+06 0 298540 4.15853e+06 0 299888 4.16005e+06 0 301269 4.16164e+06 0 302683 4.16332e+06 0 304132 4.16509e+06 0 305616 4.16693e+06 0 307137 4.16887e+06 0 308697 4.17089e+06 0 310296 4.173e+06 0 311937 4.17521e+06 0 313621 4.17751e+06 0 315348 4.1799e+06 0 317122 4.18239e+06 0 318944 4.18499e+06 0 320815 4.18768e+06 0 322737 4.19048e+06 0 324713 4.19339e+06 0 326744 4.19641e+06 0 328832 4.19954e+06 0 330981 4.20279e+06 0 333192 4.20616e+06 0 335468 4.20965e+06 0 337811 4.21326e+06 0 340225 4.217e+06 0 342712 4.22087e+06 0 345275 4.22487e+06 0 347918 4.22901e+06 0 350644 4.2333e+06 0 353457 4.23773e+06 0 356360 4.24231e+06 0 359358 4.24704e+06 0 362455 4.25193e+06 0 365656 4.25698e+06 0 368965 4.26219e+06 0 372387 4.26758e+06 0 375929 4.27315e+06 0 379595 4.27889e+06 0 383392 4.28482e+06 0 387327 4.29094e+06 0 391407 4.29727e+06 0 395639 4.30379e+06 0 400031 4.31052e+06 0 404591 4.31747e+06 0 409330 4.32464e+06 0 414256 4.33204e+06 0 419381 4.33967e+06 0 424715 4.34754e+06 0 430270 4.35567e+06 0 436061 4.36405e+06 0 442100 4.3727e+06 0 448403 4.38161e+06 0 454986 4.39081e+06 0 461867 4.4003e+06 0 469066 4.41008e+06 0 476601 4.42016e+06 0 484497 4.43055e+06 0 492777 4.44127e+06 0 501468 4.4523e+06 0 240219 4.19907e+06 0 240895 4.19671e+06 0 241567 4.1944e+06 0 242236 4.19215e+06 0 242902 4.18994e+06 0 243565 4.18779e+06 0 244227 4.18569e+06 0 244887 4.18364e+06 0 245546 4.18164e+06 0 246204 4.17969e+06 0 246861 4.17779e+06 0 247518 4.17594e+06 0 248176 4.17413e+06 0 248834 4.17238e+06 0 249493 4.17067e+06 0 250153 4.16902e+06 0 250815 4.16741e+06