<?xml version="1.0"?> 
<VTKFile type="StructuredGrid" version="0.1"> 
<StructuredGrid WholeExtent="0 127 0 127 0 0"> 
<Piece Extent="0 127 0 127 0 0"> 
<PointData>
<DataArray type="Float32" Name="|E|" format="ascii" NumberOfComponents="3"> 
477049 7.23544e+06 0 443079 6.72021e+06 0 426387 6.46705e+06 0 414720 6.29009e+06 0 405650 6.15253e+06 0 398073 6.0376e+06 0 391549 5.93865e+06 0 385799 5.85145e+06 0 380656 5.77345e+06 0 376003 5.70287e+06 0 371754 5.63843e+06 0 367847 5.57918e+06 0 364234 5.52437e+06 0 360875 5.47342e+06 0 357738 5.42585e+06 0 354800 5.38128e+06 0 352037 5.33938e+06 0 349433 5.29988e+06 0 346971 5.26254e+06 0 344639 5.22717e+06 0 342425 5.19359e+06 0 340319 5.16165e+06 0 338312 5.13122e+06 0 336398 5.10218e+06 0 334568 5.07442e+06 0 332817 5.04786e+06 0 331139 5.02241e+06 0 329529 4.998e+06 0 327984 4.97456e+06 0 326498 4.95202e+06 0 325068 4.93034e+06 0 323691 4.90945e+06 0 322364 4.88932e+06 0 321083 4.8699e+06 0 319847 4.85115e+06 0 318653 4.83303e+06 0 317498 4.81552e+06 0 316381 4.79858e+06 0 315300 4.78218e+06 0 314252 4.7663e+06 0 313238 4.7509e+06 0 312254 4.73598e+06 0 311299 4.7215e+06 0 310373 4.70745e+06 0 309473 4.6938e+06 0 308599 4.68055e+06 0 307749 4.66766e+06 0 306924 4.65514e+06 0 306120 4.64296e+06 0 305339 4.6311e+06 0 304578 4.61956e+06 0 303837 4.60833e+06 0 303115 4.59738e+06 0 302412 4.58672e+06 0 301727 4.57632e+06 0 301059 4.56619e+06 0 300407 4.5563e+06 0 299772 4.54666e+06 0 299151 4.53726e+06 0 298546 4.52807e+06 0 297955 4.51911e+06 0 297377 4.51035e+06 0 296814 4.5018e+06 0 296263 4.49345e+06 0 295725 4.48528e+06 0 295198 4.4773e+06 0 294684 4.4695e+06 0 294181 4.46187e+06 0 293689 4.45441e+06 0 293208 4.44711e+06 0 292737 4.43998e+06 0 292277 4.43299e+06 0 291826 4.42615e+06 0 291385 4.41946e+06 0 290953 4.41291e+06 0 290530 4.40649e+06 0 290116 4.40021e+06 0 289710 4.39406e+06 0 289313 4.38803e+06 0 288923 4.38213e+06 0 288542 4.37635e+06 0 288168 4.37068e+06 0 287802 4.36512e+06 0 287443 4.35968e+06 0 287092 4.35435e+06 0 286747 4.34912e+06 0 286409 4.34399e+06 0 286077 4.33896e+06 0 285752 4.33403e+06 0 285434 4.3292e+06 0 285121 4.32446e+06 0 284815 4.31981e+06 0 284514 4.31526e+06 0 284220 4.31078e+06 0 283930 4.3064e+06 0 283647 4.3021e+06 0 283369 4.29788e+06 0 283096 4.29374e+06 0 282828 4.28968e+06 0 282566 4.2857e+06 0 282308 4.2818e+06 0 282056 4.27797e+06 0 281808 4.27421e+06 0 281565 4.27052e+06 0 281327 4.26691e+06 0 281093 4.26336e+06 0 280863 4.25988e+06 0 280639 4.25647e+06 0 280418 4.25312e+06 0 280202 4.24984e+06 0 279989 4.24663e+06 0 279781 4.24347e+06 0 279577 4.24038e+06 0 279378 4.23735e+06 0 279182 4.23437e+06 0 278989 4.23146e+06 0 278801 4.2286e+06 0 278617 4.22581e+06 0 278436 4.22307e+06 0 278259 4.22038e+06 0 278086 4.21775e+06 0 277916 4.21518e+06 0 277750 4.21266e+06 0 277587 4.21019e+06 0 277428 4.20777e+06 0 277272 4.20541e+06 0 277120 4.2031e+06 0 276971 4.20084e+06 0 -108173 6.75269e+06 0 84677 6.62045e+06 0 164779 6.43833e+06 0 208569 6.28425e+06 0 234220 6.15359e+06 0 251040 6.04189e+06 0 262591 5.94424e+06 0 270899 5.85763e+06 0 277039 5.77983e+06 0 281676 5.70926e+06 0 285229 5.64473e+06 0 287979 5.58532e+06 0 290120 5.53033e+06 0 291790 5.47918e+06 0 293090 5.43141e+06 0 294095 5.38664e+06 0 294864 5.34454e+06 0 295441 5.30485e+06 0 295861 5.26733e+06 0 296152 5.23178e+06 0 296335 5.19803e+06 0 296429 5.16594e+06 0 296448 5.13535e+06 0 296405 5.10617e+06 0 296310 5.07828e+06 0 296170 5.05159e+06 0 295993 5.02602e+06 0 295786 5.00149e+06 0 295551 4.97793e+06 0 295295 4.95529e+06 0 295021 4.9335e+06 0 294731 4.91252e+06 0 294428 4.89229e+06 0 294115 4.87278e+06 0 293794 4.85395e+06 0 293466 4.83575e+06 0 293133 4.81816e+06 0 292795 4.80115e+06 0 292455 4.78468e+06 0 292113 4.76873e+06 0 291769 4.75327e+06 0 291426 4.73828e+06 0 291082 4.72374e+06 0 290740 4.70963e+06 0 290398 4.69593e+06 0 290059 4.68262e+06 0 289721 4.66968e+06 0 289386 4.65711e+06 0 289053 4.64488e+06 0 288723 4.63298e+06 0 288396 4.62139e+06 0 288073 4.61011e+06 0 287752 4.59912e+06 0 287436 4.58842e+06 0 287122 4.57799e+06 0 286813 4.56781e+06 0 286507 4.55789e+06 0 286205 4.54822e+06 0 285907 4.53877e+06 0 285612 4.52956e+06 0 285322 4.52056e+06 0 285036 4.51177e+06 0 284753 4.50319e+06 0 284474 4.49481e+06 0 284200 4.48662e+06 0 283929 4.47861e+06 0 283662 4.47078e+06 0 283399 4.46312e+06 0 283140 4.45564e+06 0 282884 4.44832e+06 0 282633 4.44115e+06 0 282385 4.43414e+06 0 282141 4.42728e+06 0 281901 4.42057e+06 0 281664 4.41399e+06 0 281432 4.40756e+06 0 281202 4.40126e+06 0 280977 4.39508e+06 0 280755 4.38904e+06 0 280536 4.38311e+06 0 280322 4.37731e+06 0 280110 4.37163e+06 0 279902 4.36605e+06 0 279698 4.36059e+06 0 279497 4.35524e+06 0 279299 4.34999e+06 0 279104 4.34485e+06 0 278913 4.33981e+06 0 278725 4.33486e+06 0 278541 4.33001e+06 0 278359 4.32526e+06 0 278181 4.3206e+06 0 278006 4.31602e+06 0 277834 4.31154e+06 0 277665 4.30714e+06 0 277499 4.30283e+06 0 277336 4.29859e+06 0 277176 4.29444e+06 0 277020 4.29037e+06 0 276866 4.28638e+06 0 276715 4.28246e+06 0 276567 4.27862e+06 0 276422 4.27485e+06 0 276280 4.27115e+06 0 276141 4.26752e+06 0 276005 4.26396e+06 0 275871 4.26047e+06 0 275740 4.25705e+06 0 275613 4.25369e+06 0 275488 4.2504e+06 0 275365 4.24717e+06 0 275246 4.24401e+06 0 275129 4.2409e+06 0 275015 4.23786e+06 0 274904 4.23488e+06 0 274796 4.23195e+06 0 274690 4.22909e+06 0 274587 4.22628e+06 0 274487 4.22353e+06 0 274390 4.22083e+06 0 274295 4.21819e+06 0 274203 4.21561e+06 0 274113 4.21308e+06 0 274027 4.2106e+06 0 273943 4.20818e+06 0 273862 4.20581e+06 0 273784 4.20349e+06 0 273708 4.20122e+06 0 -255710 6.57676e+06 0 -140638 6.45891e+06 0 -42754.7 6.34383e+06 0 25444.3 6.22663e+06 0 74370.8 6.11756e+06 0 110039 6.01808e+06 0 136992 5.92808e+06 0 157885 5.8464e+06 0 174477 5.77196e+06 0 187906 5.70373e+06 0 198956 5.6409e+06 0 208170 5.58275e+06 0 215942 5.5287e+06 0 222563 5.47827e+06 0 228249 5.43105e+06 0 233168 5.38671e+06 0 237451 5.34495e+06 0 241201 5.30553e+06 0 244499 5.26822e+06 0 247412 5.23283e+06 0 249996 5.19922e+06 0 252295 5.16722e+06 0 254346 5.13672e+06 0 256182 5.1076e+06 0 257828 5.07976e+06 0 259307 5.0531e+06 0 260640 5.02755e+06 0 261841 5.00304e+06 0 262926 4.97949e+06 0 263907 4.95685e+06 0 264794 4.93507e+06 0 265598 4.91408e+06 0 266327 4.89384e+06 0 266988 4.87432e+06 0 267588 4.85548e+06 0 268132 4.83727e+06 0 268625 4.81966e+06 0 269073 4.80263e+06 0 269478 4.78614e+06 0 269846 4.77017e+06 0 270179 4.75469e+06 0 270480 4.73968e+06 0 270752 4.72512e+06 0 270997 4.71099e+06 0 271217 4.69727e+06 0 271416 4.68394e+06 0 271593 4.67098e+06 0 271752 4.65839e+06 0 271893 4.64613e+06 0 272017 4.63421e+06 0 272127 4.62261e+06 0 272224 4.61131e+06 0 272307 4.6003e+06 0 272380 4.58958e+06 0 272441 4.57912e+06 0 272492 4.56893e+06 0 272534 4.55899e+06 0 272568 4.5493e+06 0 272594 4.53984e+06 0 272613 4.5306e+06 0 272625 4.52159e+06 0 272631 4.51278e+06 0 272631 4.50418e+06 0 272627 4.49578e+06 0 272617 4.48757e+06 0 272603 4.47955e+06 0 272585 4.4717e+06 0 272563 4.46403e+06 0 272538 4.45653e+06 0 272510 4.44919e+06 0 272479 4.44202e+06 0 272445 4.43499e+06 0 272409 4.42812e+06 0 272371 4.42139e+06 0 272331 4.4148e+06 0 272290 4.40835e+06 0 272247 4.40203e+06 0 272202 4.39585e+06 0 272156 4.38979e+06 0 272110 4.38385e+06 0 272062 4.37804e+06 0 272014 4.37234e+06 0 271965 4.36675e+06 0 271916 4.36128e+06 0 271866 4.35592e+06 0 271816 4.35066e+06 0 271766 4.3455e+06 0 271716 4.34045e+06 0 271665 4.33549e+06 0 271615 4.33063e+06 0 271565 4.32587e+06 0 271516 4.32119e+06 0 271467 4.31661e+06 0 271418 4.31212e+06 0 271370 4.30771e+06 0 271322 4.30338e+06 0 271275 4.29914e+06 0 271229 4.29498e+06 0 271184 4.2909e+06 0 271139 4.28689e+06 0 271095 4.28296e+06 0 271052 4.27911e+06 0 271011 4.27533e+06 0 270970 4.27162e+06 0 270930 4.26799e+06 0 270892 4.26442e+06 0 270854 4.26092e+06 0 270818 4.25749e+06 0 270784 4.25412e+06 0 270750 4.25082e+06 0 270718 4.24758e+06 0 270688 4.24441e+06 0 270658 4.2413e+06 0 270631 4.23825e+06 0 270605 4.23525e+06 0 270580 4.23232e+06 0 270557 4.22945e+06 0 270536 4.22663e+06 0 270517 4.22387e+06 0 270499 4.22117e+06 0 270483 4.21852e+06 0 270469 4.21593e+06 0 270457 4.21339e+06 0 270446 4.2109e+06 0 270438 4.20847e+06 0 270431 4.20609e+06 0 270427 4.20376e+06 0 270425 4.20149e+06 0 -399066 6.40014e+06 0 -287231 6.32497e+06 0 -196943 6.23662e+06 0 -122828 6.14676e+06 0 -63916.6 6.05814e+06 0 -16976.1 5.97359e+06 0 20655 5.89413e+06 0 51223.4 5.82007e+06 0 76378.4 5.7512e+06 0 97348 5.68715e+06 0 115034 5.6275e+06 0 130109 5.57181e+06 0 143080 5.51971e+06 0 154334 5.47084e+06 0 164171 5.42488e+06 0 172826 5.38157e+06 0 180486 5.34066e+06 0 187303 5.30194e+06 0 193397 5.26522e+06 0 198869 5.23033e+06 0 203801 5.19714e+06 0 208264 5.16551e+06 0 212315 5.13531e+06 0 216003 5.10646e+06 0 219370 5.07884e+06 0 222451 5.05239e+06 0 225278 5.02701e+06 0 227877 5.00265e+06 0 230272 4.97923e+06 0 232483 4.95671e+06 0 234527 4.93502e+06 0 236420 4.91412e+06 0 238177 4.89396e+06 0 239809 4.87451e+06 0 241327 4.85572e+06 0 242741 4.83756e+06 0 244060 4.82e+06 0 245292 4.80301e+06 0 246443 4.78656e+06 0 247520 4.77062e+06 0 248529 4.75517e+06 0 249475 4.74018e+06 0 250363 4.72564e+06 0 251196 4.71153e+06 0 251979 4.69782e+06 0 252716 4.6845e+06 0 253409 4.67156e+06 0 254062 4.65897e+06 0 254678 4.64672e+06 0 255258 4.63481e+06 0 255806 4.62321e+06 0 256323 4.61191e+06 0 256812 4.60091e+06 0 257274 4.59018e+06 0 257711 4.57973e+06 0 258124 4.56954e+06 0 258515 4.5596e+06 0 258885 4.5499e+06 0 259236 4.54044e+06 0 259569 4.5312e+06 0 259885 4.52218e+06 0 260184 4.51338e+06 0 260468 4.50477e+06 0 260738 4.49637e+06 0 260994 4.48815e+06 0 261238 4.48012e+06 0 261470 4.47227e+06 0 261690 4.4646e+06 0 261900 4.45709e+06 0 262099 4.44975e+06 0 262289 4.44256e+06 0 262470 4.43553e+06 0 262643 4.42865e+06 0 262808 4.42192e+06 0 262965 4.41532e+06 0 263115 4.40887e+06 0 263259 4.40254e+06 0 263396 4.39635e+06 0 263527 4.39029e+06 0 263653 4.38434e+06 0 263773 4.37852e+06 0 263888 4.37282e+06 0 263999 4.36723e+06 0 264105 4.36175e+06 0 264207 4.35637e+06 0 264306 4.35111e+06 0 264400 4.34595e+06 0 264491 4.34089e+06 0 264579 4.33592e+06 0 264664 4.33106e+06 0 264746 4.32628e+06 0 264826 4.3216e+06 0 264903 4.31701e+06 0 264978 4.31251e+06 0 265051 4.3081e+06 0 265122 4.30377e+06 0 265191 4.29952e+06 0 265258 4.29535e+06 0 265324 4.29126e+06 0 265389 4.28725e+06 0 265453 4.28331e+06 0 265515 4.27945e+06 0 265577 4.27567e+06 0 265638 4.27195e+06 0 265698 4.26831e+06 0 265758 4.26474e+06 0 265817 4.26123e+06 0 265875 4.25779e+06 0 265934 4.25442e+06 0 265992 4.25111e+06 0 266051 4.24787e+06 0 266109 4.24468e+06 0 266168 4.24156e+06 0 266226 4.23851e+06 0 266285 4.23551e+06 0 266345 4.23257e+06 0 266405 4.22969e+06 0 266466 4.22686e+06 0 266527 4.2241e+06 0 266589 4.22139e+06 0 266652 4.21873e+06 0 266716 4.21613e+06 0 266781 4.21359e+06 0 266847 4.21109e+06 0 266914 4.20865e+06 0 266982 4.20627e+06 0 267052 4.20393e+06 0 267123 4.20165e+06 0 -495789 6.26025e+06 0 -401188 6.19751e+06 0 -315652 6.13049e+06 0 -242299 6.05936e+06 0 -179975 5.98738e+06 0 -127571 5.9164e+06 0 -83520.8 5.84777e+06 0 -46385.6 5.78219e+06 0 -14890.1 5.71997e+06 0 12010.3 5.66117e+06 0 35158.2 5.60569e+06 0 55223.4 5.55337e+06 0 72738.1 5.50399e+06 0 88126.4 5.45735e+06 0 101728 5.41324e+06 0 113818 5.37147e+06 0 124618 5.33186e+06 0 134311 5.29423e+06 0 143048 5.25845e+06 0 150954 5.22438e+06 0 158135 5.19188e+06 0 164678 5.16084e+06 0 170658 5.13118e+06 0 176140 5.10278e+06 0 181179 5.07557e+06 0 185821 5.04947e+06 0 190108 5.02441e+06 0 194076 5.00033e+06 0 197755 4.97716e+06 0 201174 4.95486e+06 0 204356 4.93337e+06 0 207323 4.91265e+06 0 210093 4.89265e+06 0 212684 4.87334e+06 0 215111 4.85469e+06 0 217386 4.83665e+06 0 219523 4.81919e+06 0 221532 4.8023e+06 0 223423 4.78593e+06 0 225205 4.77007e+06 0 226885 4.75469e+06 0 228472 4.73977e+06 0 229972 4.72529e+06 0 231390 4.71123e+06 0 232734 4.69758e+06 0 234007 4.6843e+06 0 235214 4.6714e+06 0 236360 4.65885e+06 0 237448 4.64664e+06 0 238483 4.63476e+06 0 239467 4.62319e+06 0 240405 4.61192e+06 0 241297 4.60094e+06 0 242148 4.59023e+06 0 242960 4.5798e+06 0 243734 4.56963e+06 0 244474 4.55971e+06 0 245181 4.55003e+06 0 245856 4.54058e+06 0 246503 4.53135e+06 0 247122 4.52234e+06 0 247714 4.51355e+06 0 248282 4.50495e+06 0 248826 4.49656e+06 0 249349 4.48835e+06 0 249850 4.48033e+06 0 250331 4.47249e+06 0 250794 4.46482e+06 0 251238 4.45731e+06 0 251666 4.44997e+06 0 252077 4.44279e+06 0 252473 4.43577e+06 0 252855 4.42889e+06 0 253222 4.42215e+06 0 253577 4.41556e+06 0 253919 4.40911e+06 0 254249 4.40279e+06 0 254568 4.39659e+06 0 254876 4.39053e+06 0 255174 4.38459e+06 0 255463 4.37876e+06 0 255742 4.37306e+06 0 256012 4.36747e+06 0 256274 4.36199e+06 0 256528 4.35661e+06 0 256775 4.35135e+06 0 257014 4.34618e+06 0 257247 4.34112e+06 0 257473 4.33615e+06 0 257693 4.33129e+06 0 257908 4.32651e+06 0 258117 4.32183e+06 0 258320 4.31724e+06 0 258519 4.31273e+06 0 258713 4.30831e+06 0 258902 4.30398e+06 0 259088 4.29972e+06 0 259269 4.29555e+06 0 259447 4.29146e+06 0 259622 4.28745e+06 0 259793 4.28351e+06 0 259961 4.27964e+06 0 260126 4.27585e+06 0 260288 4.27213e+06 0 260448 4.26849e+06 0 260606 4.26491e+06 0 260762 4.2614e+06 0 260915 4.25795e+06 0 261067 4.25458e+06 0 261217 4.25126e+06 0 261366 4.24801e+06 0 261513 4.24483e+06 0 261660 4.2417e+06 0 261805 4.23864e+06 0 261949 4.23564e+06 0 262093 4.23269e+06 0 262236 4.22981e+06 0 262378 4.22698e+06 0 262520 4.22421e+06 0 262662 4.22149e+06 0 262804 4.21883e+06 0 262946 4.21622e+06 0 263088 4.21367e+06 0 263230 4.21117e+06 0 263373 4.20873e+06 0 263516 4.20633e+06 0 263660 4.20399e+06 0 263804 4.2017e+06 0 -577758 6.12945e+06 0 -489689 6.08165e+06 0 -410432 6.02787e+06 0 -339494 5.97078e+06 0 -277053 5.91175e+06 0 -222512 5.85231e+06 0 -175107 5.79354e+06 0 -133937 5.73623e+06 0 -98132.5 5.68087e+06 0 -66895.1 5.62774e+06 0 -39530.7 5.57695e+06 0 -15448.9 5.52851e+06 0 5845.18 5.48237e+06 0 24763.8 5.43845e+06 0 41649.5 5.39664e+06 0 56787.1 5.35682e+06 0 70414.1 5.31887e+06 0 82729.4 5.28268e+06 0 93900 5.24813e+06 0 104067 5.21513e+06 0 113351 5.18356e+06 0 121853 5.15335e+06 0 129662 5.12441e+06 0 136852 5.09665e+06 0 143489 5.07001e+06 0 149629 5.04441e+06 0 155323 5.0198e+06 0 160612 4.99612e+06 0 165536 4.97331e+06 0 170128 4.95134e+06 0 174417 4.93014e+06 0 178431 4.90968e+06 0 182192 4.88993e+06 0 185721 4.87084e+06 0 189038 4.85238e+06 0 192159 4.83452e+06 0 195099 4.81724e+06 0 197872 4.80049e+06 0 200491 4.78427e+06 0 202968 4.76853e+06 0 205311 4.75327e+06 0 207530 4.73846e+06 0 209635 4.72408e+06 0 211633 4.71012e+06 0 213530 4.69654e+06 0 215334 4.68335e+06 0 217051 4.67052e+06 0 218685 4.65804e+06 0 220243 4.64589e+06 0 221728 4.63406e+06 0 223146 4.62254e+06 0 224500 4.61132e+06 0 225794 4.60039e+06 0 227032 4.58973e+06 0 228216 4.57934e+06 0 229350 4.56921e+06 0 230437 4.55932e+06 0 231478 4.54967e+06 0 232477 4.54025e+06 0 233436 4.53105e+06 0 234357 4.52207e+06 0 235242 4.5133e+06 0 236092 4.50473e+06 0 236910 4.49635e+06 0 237698 4.48817e+06 0 238456 4.48016e+06 0 239186 4.47234e+06 0 239890 4.46468e+06 0 240569 4.4572e+06 0 241224 4.44987e+06 0 241856 4.4427e+06 0 242467 4.43569e+06 0 243057 4.42882e+06 0 243627 4.4221e+06 0 244178 4.41552e+06 0 244712 4.40907e+06 0 245229 4.40276e+06 0 245729 4.39657e+06 0 246214 4.39052e+06 0 246685 4.38458e+06 0 247141 4.37876e+06 0 247583 4.37306e+06 0 248013 4.36748e+06 0 248431 4.362e+06 0 248837 4.35663e+06 0 249232 4.35137e+06 0 249616 4.34621e+06 0 249990 4.34115e+06 0 250355 4.33618e+06 0 250710 4.33132e+06 0 251056 4.32654e+06 0 251394 4.32186e+06 0 251724 4.31727e+06 0 252047 4.31277e+06 0 252362 4.30835e+06 0 252670 4.30401e+06 0 252972 4.29976e+06 0 253267 4.29559e+06 0 253556 4.2915e+06 0 253840 4.28748e+06 0 254119 4.28354e+06 0 254392 4.27968e+06 0 254661 4.27589e+06 0 254925 4.27217e+06 0 255185 4.26852e+06 0 255440 4.26494e+06 0 255692 4.26142e+06 0 255941 4.25798e+06 0 256186 4.2546e+06 0 256428 4.25128e+06 0 256667 4.24803e+06 0 256903 4.24484e+06 0 257137 4.24171e+06 0 257369 4.23865e+06 0 257598 4.23564e+06 0 257826 4.23269e+06 0 258052 4.2298e+06 0 258276 4.22697e+06 0 258499 4.22419e+06 0 258721 4.22147e+06 0 258941 4.21881e+06 0 259161 4.2162e+06 0 259380 4.21364e+06 0 259598 4.21114e+06 0 259816 4.20869e+06 0 260034 4.20629e+06 0 260252 4.20394e+06 0 260470 4.20165e+06 0 -641703 6.01221e+06 0 -561620 5.97327e+06 0 -487320 5.93016e+06 0 -419625 5.88361e+06 0 -358477 5.83487e+06 0 -303711 5.78496e+06 0 -254908 5.73479e+06 0 -211548 5.68504e+06 0 -173053 5.63624e+06 0 -138855 5.58873e+06 0 -108421 5.54276e+06 0 -81267.6 5.49843e+06 0 -56969.8 5.45582e+06 0 -35157.2 5.41491e+06 0 -15510.7 5.37569e+06 0 2243.63 5.33811e+06 0 18340.4 5.3021e+06 0 32980.4 5.2676e+06 0 46336 5.23453e+06 0 58555.3 5.20282e+06 0 69765.6 5.1724e+06 0 80077.3 5.14319e+06 0 89585.9 5.11514e+06 0 98374.4 5.08818e+06 0 106516 5.06224e+06 0 114073 5.03728e+06 0 121102 5.01325e+06 0 127652 4.99008e+06 0 133766 4.96774e+06 0 139484 4.94619e+06 0 144840 4.92537e+06 0 149863 4.90526e+06 0 154582 4.88583e+06 0 159021 4.86703e+06 0 163202 4.84883e+06 0 167146 4.83122e+06 0 170869 4.81415e+06 0 174389 4.79762e+06 0 177720 4.78158e+06 0 180876 4.76602e+06 0 183869 4.75092e+06 0 186709 4.73626e+06 0 189408 4.72202e+06 0 191975 4.70818e+06 0 194418 4.69473e+06 0 196745 4.68164e+06 0 198963 4.66892e+06 0 201079 4.65653e+06 0 203100 4.64447e+06 0 205031 4.63273e+06 0 206877 4.62129e+06 0 208644 4.61014e+06 0 210335 4.59928e+06 0 211955 4.58868e+06 0 213509 4.57835e+06 0 214999 4.56827e+06 0 216429 4.55843e+06 0 217802 4.54883e+06 0 219122 4.53946e+06 0 220391 4.53031e+06 0 221612 4.52137e+06 0 222787 4.51264e+06 0 223918 4.5041e+06 0 225008 4.49576e+06 0 226059 4.4876e+06 0 227072 4.47963e+06 0 228050 4.47183e+06 0 228995 4.46421e+06 0 229906 4.45674e+06 0 230788 4.44944e+06 0 231640 4.4423e+06 0 232464 4.4353e+06 0 233261 4.42846e+06 0 234033 4.42175e+06 0 234781 4.41519e+06 0 235505 4.40876e+06 0 236208 4.40246e+06 0 236889 4.39629e+06 0 237551 4.39025e+06 0 238192 4.38432e+06 0 238816 4.37852e+06 0 239422 4.37283e+06 0 240011 4.36725e+06 0 240584 4.36179e+06 0 241141 4.35643e+06 0 241684 4.35117e+06 0 242212 4.34602e+06 0 242728 4.34097e+06 0 243230 4.33601e+06 0 243720 4.33115e+06 0 244198 4.32639e+06 0 244665 4.32171e+06 0 245121 4.31712e+06 0 245567 4.31262e+06 0 246003 4.30821e+06 0 246429 4.30388e+06 0 246847 4.29963e+06 0 247256 4.29546e+06 0 247657 4.29137e+06 0 248050 4.28736e+06 0 248436 4.28342e+06 0 248814 4.27956e+06 0 249186 4.27577e+06 0 249552 4.27205e+06 0 249911 4.2684e+06 0 250265 4.26482e+06 0 250613 4.26131e+06 0 250956 4.25786e+06 0 251294 4.25448e+06 0 251628 4.25117e+06 0 251957 4.24792e+06 0 252282 4.24473e+06 0 252604 4.2416e+06 0 252921 4.23853e+06 0 253236 4.23552e+06 0 253547 4.23257e+06 0 253856 4.22968e+06 0 254162 4.22684e+06 0 254465 4.22406e+06 0 254766 4.22134e+06 0 255065 4.21867e+06 0 255363 4.21606e+06 0 255659 4.2135e+06 0 255953 4.21099e+06 0 256246 4.20854e+06 0 256539 4.20614e+06 0 256830 4.20378e+06 0 257121 4.20148e+06 0 -694476 5.90351e+06 0 -620104 5.8724e+06 0 -550638 5.83729e+06 0 -486250 5.7991e+06 0 -427113 5.7586e+06 0 -373156 5.7166e+06 0 -324185 5.67378e+06 0 -279893 5.63073e+06 0 -239914 5.58794e+06 0 -203854 5.54578e+06 0 -171320 5.5045e+06 0 -141936 5.46429e+06 0 -115355 5.42528e+06 0 -91261.8 5.38752e+06 0 -69374.4 5.35106e+06 0 -49444 5.3159e+06 0 -31251.2 5.28202e+06 0 -14603.8 5.24939e+06 0 666.395 5.21797e+06 0 14706.6 5.18772e+06 0 27645.8 5.1586e+06 0 39596.7 5.13056e+06 0 50658.4 5.10354e+06 0 60918.2 5.07751e+06 0 70452.9 5.05241e+06 0 79330.3 5.02821e+06 0 87610.6 5.00485e+06 0 95347.1 4.9823e+06 0 102587 4.96052e+06 0 109374 4.93947e+06 0 115744 4.91912e+06 0 121732 4.89944e+06 0 127369 4.88039e+06 0 132682 4.86194e+06 0 137696 4.84407e+06 0 142433 4.82676e+06 0 146914 4.80997e+06 0 151157 4.79369e+06 0 155179 4.77789e+06 0 158995 4.76255e+06 0 162620 4.74765e+06 0 166066 4.73318e+06 0 169345 4.71911e+06 0 172468 4.70544e+06 0 175444 4.69214e+06 0 178283 4.6792e+06 0 180994 4.6666e+06 0 183583 4.65434e+06 0 186059 4.64239e+06 0 188427 4.63076e+06 0 190695 4.61942e+06 0 192867 4.60837e+06 0 194950 4.59759e+06 0 196947 4.58708e+06 0 198865 4.57683e+06 0 200706 4.56683e+06 0 202476 4.55706e+06 0 204177 4.54753e+06 0 205814 4.53821e+06 0 207389 4.52912e+06 0 208907 4.52024e+06 0 210369 4.51155e+06 0 211778 4.50307e+06 0 213138 4.49477e+06 0 214450 4.48666e+06 0 215716 4.47873e+06 0 216940 4.47097e+06 0 218122 4.46338e+06 0 219265 4.45596e+06 0 220371 4.44869e+06 0 221441 4.44157e+06 0 222477 4.43461e+06 0 223481 4.42779e+06 0 224453 4.42111e+06 0 225396 4.41457e+06 0 226310 4.40817e+06 0 227197 4.40189e+06 0 228058 4.39575e+06 0 228895 4.38972e+06 0 229707 4.38382e+06 0 230497 4.37803e+06 0 231265 4.37236e+06 0 232013 4.3668e+06 0 232740 4.36135e+06 0 233448 4.356e+06 0 234138 4.35076e+06 0 234811 4.34562e+06 0 235466 4.34058e+06 0 236106 4.33564e+06 0 236730 4.33079e+06 0 237339 4.32604e+06 0 237934 4.32137e+06 0 238516 4.31679e+06 0 239085 4.3123e+06 0 239641 4.3079e+06 0 240186 4.30357e+06 0 240719 4.29933e+06 0 241241 4.29517e+06 0 241753 4.29108e+06 0 242255 4.28708e+06 0 242748 4.28315e+06 0 243231 4.27929e+06 0 243706 4.2755e+06 0 244173 4.27179e+06 0 244631 4.26814e+06 0 245083 4.26456e+06 0 245527 4.26105e+06 0 245964 4.25761e+06 0 246395 4.25423e+06 0 246820 4.25092e+06 0 247239 4.24767e+06 0 247653 4.24448e+06 0 248061 4.24135e+06 0 248465 4.23828e+06 0 248864 4.23527e+06 0 249259 4.23232e+06 0 249650 4.22943e+06 0 250037 4.2266e+06 0 250421 4.22382e+06 0 250801 4.22109e+06 0 251179 4.21842e+06 0 251554 4.21581e+06 0 251926 4.21324e+06 0 252296 4.21073e+06 0 252665 4.20828e+06 0 253031 4.20587e+06 0 253396 4.20352e+06 0 253760 4.20121e+06 0 -737304 5.80309e+06 0 -668314 5.77787e+06 0 -603108 5.74925e+06 0 -542032 5.71775e+06 0 -485197 5.68399e+06 0 -432631 5.64855e+06 0 -384244 5.612e+06 0 -339866 5.57482e+06 0 -299266 5.53744e+06 0 -262180 5.50018e+06 0 -228326 5.46334e+06 0 -197418 5.42711e+06 0 -169184 5.39164e+06 0 -143366 5.35705e+06 0 -119724 5.3234e+06 0 -98040.2 5.29074e+06 0 -78118.7 5.25909e+06 0 -59782.6 5.22844e+06 0 -42874.3 5.1988e+06 0 -27253.1 5.17014e+06 0 -12794 5.14244e+06 0 614.171 5.11568e+06 0 13070.3 5.08981e+06 0 24662.2 5.06482e+06 0 35468.4 5.04066e+06 0 45558.7 5.0173e+06 0 54995.5 4.99471e+06 0 63834.6 4.97287e+06 0 72126.1 4.95173e+06 0 79914.9 4.93126e+06 0 87241.4 4.91145e+06 0 94142.1 4.89226e+06 0 100650 4.87366e+06 0 106794 4.85563e+06 0 112603 4.83815e+06 0 118100 4.82119e+06 0 123307 4.80472e+06 0 128245 4.78874e+06 0 132933 4.77322e+06 0 137387 4.75815e+06 0 141623 4.74349e+06 0 145656 4.72924e+06 0 149497 4.71539e+06 0 153160 4.70191e+06 0 156656 4.68879e+06 0 159994 4.67602e+06 0 163184 4.66358e+06 0 166235 4.65147e+06 0 169155 4.63967e+06 0 171952 4.62817e+06 0 174632 4.61695e+06 0 177202 4.60602e+06 0 179669 4.59535e+06 0 182037 4.58495e+06 0 184312 4.57479e+06 0 186499 4.56488e+06 0 188602 4.5552e+06 0 190626 4.54575e+06 0 192575 4.53651e+06 0 194453 4.52749e+06 0 196263 4.51868e+06 0 198008 4.51006e+06 0 199692 4.50164e+06 0 201317 4.4934e+06 0 202887 4.48534e+06 0 204404 4.47747e+06 0 205870 4.46976e+06 0 207288 4.46221e+06 0 208660 4.45483e+06 0 209988 4.44761e+06 0 211274 4.44053e+06 0 212520 4.43361e+06 0 213728 4.42683e+06 0 214898 4.42018e+06 0 216034 4.41368e+06 0 217137 4.4073e+06 0 218207 4.40106e+06 0 219247 4.39494e+06 0 220257 4.38894e+06 0 221239 4.38306e+06 0 222194 4.3773e+06 0 223123 4.37165e+06 0 224028 4.36612e+06 0 224909 4.36069e+06 0 225767 4.35536e+06 0 226603 4.35014e+06 0 227418 4.34502e+06 0 228213 4.34e+06 0 228989 4.33507e+06 0 229746 4.33024e+06 0 230486 4.32549e+06 0 231209 4.32084e+06 0 231916 4.31628e+06 0 232607 4.3118e+06 0 233283 4.3074e+06 0 233945 4.30309e+06 0 234593 4.29886e+06 0 235228 4.29471e+06 0 235850 4.29063e+06 0 236461 4.28664e+06 0 237059 4.28271e+06 0 237647 4.27886e+06 0 238225 4.27508e+06 0 238792 4.27137e+06 0 239349 4.26773e+06 0 239898 4.26416e+06 0 240437 4.26066e+06 0 240969 4.25722e+06 0 241492 4.25385e+06 0 242008 4.25054e+06 0 242516 4.24729e+06 0 243018 4.2441e+06 0 243514 4.24098e+06 0 244003 4.23791e+06 0 244486 4.2349e+06 0 244964 4.23195e+06 0 245437 4.22906e+06 0 245905 4.22623e+06 0 246369 4.22345e+06 0 246828 4.22072e+06 0 247284 4.21805e+06 0 247736 4.21544e+06 0 248184 4.21288e+06 0 248630 4.21037e+06 0 249073 4.20791e+06 0 249513 4.2055e+06 0 249951 4.20314e+06 0 250387 4.20084e+06 0 -772496 5.70949e+06 0 -708095 5.6892e+06 0 -646833 5.66581e+06 0 -588922 5.63978e+06 0 -534507 5.61157e+06 0 -483638 5.58165e+06 0 -436294 5.55045e+06 0 -392385 5.51837e+06 0 -351773 5.48578e+06 0 -314280 5.45298e+06 0 -279710 5.42024e+06 0 -247852 5.38775e+06 0 -218495 5.35569e+06 0 -191434 5.32418e+06 0 -166472 5.29332e+06 0 -143424 5.26317e+06 0 -122119 5.23378e+06 0 -102400 5.20518e+06 0 -84123.8 5.17738e+06 0 -67160.1 5.15038e+06 0 -51391.5 5.12419e+06 0 -36711.9 5.09878e+06 0 -23025.7 5.07415e+06 0 -10246.9 5.05027e+06 0 1701.96 5.02713e+06 0 12890.7 5.00471e+06 0 23382.3 4.98297e+06 0 33233.3 4.9619e+06 0 42495.1 4.94147e+06 0 51213.9 4.92166e+06 0 59431.7 4.90244e+06 0 67186.4 4.8838e+06 0 74512.5 4.86571e+06 0 81441.4 4.84815e+06 0 88001.7 4.8311e+06 0 94219.3 4.81454e+06 0 100118 4.79845e+06 0 105720 4.78282e+06 0 111044 4.76762e+06 0 116110 4.75284e+06 0 120933 4.73846e+06 0 125530 4.72448e+06 0 129914 4.71086e+06 0 134099 4.69761e+06 0 138096 4.68471e+06 0 141918 4.67213e+06 0 145573 4.65989e+06 0 149073 4.64795e+06 0 152425 4.63631e+06 0 155639 4.62496e+06 0 158721 4.6139e+06 0 161680 4.6031e+06 0 164521 4.59256e+06 0 167251 4.58228e+06 0 169876 4.57224e+06 0 172401 4.56243e+06 0 174832 4.55286e+06 0 177173 4.5435e+06 0 179428 4.53436e+06 0 181602 4.52543e+06 0 183699 4.5167e+06 0 185723 4.50816e+06 0 187677 4.49981e+06 0 189564 4.49164e+06 0 191388 4.48365e+06 0 193151 4.47584e+06 0 194857 4.46819e+06 0 196507 4.46071e+06 0 198105 4.45338e+06 0 199652 4.44621e+06 0 201151 4.43918e+06 0 202605 4.4323e+06 0 204014 4.42557e+06 0 205381 4.41897e+06 0 206708 4.4125e+06 0 207997 4.40617e+06 0 209248 4.39996e+06 0 210465 4.39387e+06 0 211647 4.38791e+06 0 212797 4.38207e+06 0 213915 4.37633e+06 0 215004 4.37071e+06 0 216064 4.3652e+06 0 217097 4.3598e+06 0 218103 4.3545e+06 0 219085 4.3493e+06 0 220041 4.34421e+06 0 220975 4.3392e+06 0 221886 4.3343e+06 0 222776 4.32948e+06 0 223645 4.32476e+06 0 224495 4.32013e+06 0 225326 4.31558e+06 0 226138 4.31112e+06 0 226933 4.30674e+06 0 227711 4.30244e+06 0 228474 4.29822e+06 0 229221 4.29408e+06 0 229953 4.29002e+06 0 230671 4.28603e+06 0 231375 4.28212e+06 0 232067 4.27828e+06 0 232746 4.27451e+06 0 233413 4.27081e+06 0 234069 4.26718e+06 0 234714 4.26362e+06 0 235348 4.26012e+06 0 235973 4.25669e+06 0 236588 4.25332e+06 0 237194 4.25002e+06 0 237792 4.24678e+06 0 238381 4.24359e+06 0 238963 4.24047e+06 0 239537 4.23741e+06 0 240105 4.23441e+06 0 240665 4.23146e+06 0 241220 4.22857e+06 0 241768 4.22574e+06 0 242311 4.22296e+06 0 242849 4.22024e+06 0 243382 4.21757e+06 0 243911 4.21496e+06 0 244435 4.2124e+06 0 244956 4.20988e+06 0 245473 4.20743e+06 0 245986 4.20502e+06 0 246497 4.20266e+06 0 247005 4.20035e+06 0 -801258 5.62207e+06 0 -741016 5.60577e+06 0 -683338 5.58671e+06 0 -628439 5.56521e+06 0 -576444 5.54165e+06 0 -527426 5.51638e+06 0 -481397 5.48975e+06 0 -438320 5.46211e+06 0 -398114 5.43376e+06 0 -360666 5.40496e+06 0 -325840 5.37595e+06 0 -293483 5.34694e+06 0 -263438 5.31809e+06 0 -235541 5.28952e+06 0 -209636 5.26136e+06 0 -185569 5.23367e+06 0 -163194 5.20653e+06 0 -142375 5.17998e+06 0 -122985 5.15404e+06 0 -104907 5.12875e+06 0 -88034 5.1041e+06 0 -72266.2 5.08011e+06 0 -57513.9 5.05677e+06 0 -43695.1 5.03408e+06 0 -30734.9 5.01202e+06 0 -18565.4 4.99058e+06 0 -7124.72 4.96975e+06 0 3643.42 4.94951e+06 0 13790.2 4.92985e+06 0 23362.2 4.91074e+06 0 32401.9 4.89218e+06 0 40948 4.87414e+06 0 49035.9 4.85661e+06 0 56697.8 4.83956e+06 0 63963.3 4.82299e+06 0 70859.5 4.80688e+06 0 77411.1 4.7912e+06 0 83641 4.77595e+06 0 89570.1 4.76111e+06 0 95217.6 4.74667e+06 0 100601 4.7326e+06 0 105738 4.71891e+06 0 110642 4.70557e+06 0 115328 4.69257e+06 0 119808 4.67991e+06 0 124095 4.66756e+06 0 128200 4.65552e+06 0 132133 4.64379e+06 0 135904 4.63234e+06 0 139521 4.62116e+06 0 142994 4.61026e+06 0 146329 4.59962e+06 0 149535 4.58923e+06 0 152618 4.57909e+06 0 155583 4.56918e+06 0 158439 4.5595e+06 0 161189 4.55005e+06 0 163839 4.5408e+06 0 166394 4.53177e+06 0 168858 4.52294e+06 0 171237 4.5143e+06 0 173533 4.50585e+06 0 175752 4.49759e+06 0 177896 4.48951e+06 0 179969 4.4816e+06 0 181975 4.47386e+06 0 183915 4.46628e+06 0 185794 4.45886e+06 0 187614 4.4516e+06 0 189377 4.44449e+06 0 191086 4.43752e+06 0 192744 4.4307e+06 0 194352 4.42401e+06 0 195913 4.41747e+06 0 197428 4.41105e+06 0 198900 4.40476e+06 0 200331 4.39859e+06 0 201721 4.39255e+06 0 203074 4.38663e+06 0 204389 4.38082e+06 0 205670 4.37513e+06 0 206916 4.36954e+06 0 208130 4.36406e+06 0 209314 4.35869e+06 0 210467 4.35342e+06 0 211591 4.34826e+06 0 212688 4.34318e+06 0 213759 4.33821e+06 0 214804 4.33333e+06 0 215825 4.32854e+06 0 216823 4.32384e+06 0 217798 4.31923e+06 0 218752 4.3147e+06 0 219684 4.31026e+06 0 220597 4.3059e+06 0 221491 4.30162e+06 0 222367 4.29742e+06 0 223224 4.29329e+06 0 224065 4.28925e+06 0 224890 4.28527e+06 0 225700 4.28138e+06 0 226494 4.27755e+06 0 227274 4.27379e+06 0 228040 4.2701e+06 0 228794 4.26648e+06 0 229534 4.26293e+06 0 230263 4.25944e+06 0 230981 4.25602e+06 0 231687 4.25266e+06 0 232383 4.24937e+06 0 233069 4.24613e+06 0 233745 4.24296e+06 0 234412 4.23984e+06 0 235071 4.23679e+06 0 235722 4.23379e+06 0 236365 4.23085e+06 0 237000 4.22797e+06 0 237629 4.22514e+06 0 238251 4.22236e+06 0 238866 4.21964e+06 0 239477 4.21698e+06 0 240081 4.21436e+06 0 240681 4.2118e+06 0 241276 4.20929e+06 0 241866 4.20684e+06 0 242453 4.20443e+06 0 243036 4.20207e+06 0 243615 4.19976e+06 0 -824740 5.54011e+06 0 -768213 5.52716e+06 0 -713831 5.5117e+06 0 -661765 5.49399e+06 0 -612139 5.47434e+06 0