<?xml version="1.0"?> 
<VTKFile type="StructuredGrid" version="0.1"> 
<StructuredGrid WholeExtent="0 127 0 127 0 0"> 
<Piece Extent="0 127 0 127 0 0"> 
<PointData>
<DataArray type="Float32" Name="|E|" format="ascii" NumberOfComponents="3"> 
372852 5.4758e+06 0 416518 5.52994e+06 0 460329 5.57499e+06 0 504377 5.6141e+06 0 548699 5.64892e+06 0 593308 5.68041e+06 0 638204 5.70918e+06 0 683379 5.73561e+06 0 728823 5.75999e+06 0 774524 5.78251e+06 0 820467 5.80334e+06 0 866640 5.82259e+06 0 913027 5.84036e+06 0 959615 5.85673e+06 0 1.00639e+06 5.87176e+06 0 1.05334e+06 5.88552e+06 0 1.10044e+06 5.89806e+06 0 1.14769e+06 5.90941e+06 0 1.19507e+06 5.91961e+06 0 1.24257e+06 5.92871e+06 0 1.29017e+06 5.93672e+06 0 1.33786e+06 5.94367e+06 0 1.38563e+06 5.94959e+06 0 1.43347e+06 5.9545e+06 0 1.48136e+06 5.95842e+06 0 1.52929e+06 5.96138e+06 0 1.57724e+06 5.96337e+06 0 1.62521e+06 5.96444e+06 0 1.67318e+06 5.96458e+06 0 1.72114e+06 5.96381e+06 0 1.76908e+06 5.96215e+06 0 1.81699e+06 5.95961e+06 0 1.86485e+06 5.95621e+06 0 1.91266e+06 5.95195e+06 0 1.9604e+06 5.94684e+06 0 2.00806e+06 5.9409e+06 0 2.05562e+06 5.93414e+06 0 2.10309e+06 5.92658e+06 0 2.15044e+06 5.91821e+06 0 2.19767e+06 5.90905e+06 0 2.24477e+06 5.89911e+06 0 2.29172e+06 5.8884e+06 0 2.33852e+06 5.87692e+06 0 2.38515e+06 5.8647e+06 0 2.43161e+06 5.85174e+06 0 2.47788e+06 5.83804e+06 0 2.52395e+06 5.82362e+06 0 2.56982e+06 5.80849e+06 0 2.61548e+06 5.79265e+06 0 2.66091e+06 5.77612e+06 0 2.70611e+06 5.7589e+06 0 2.75106e+06 5.741e+06 0 2.79577e+06 5.72244e+06 0 2.84021e+06 5.70322e+06 0 2.88439e+06 5.68335e+06 0 2.92829e+06 5.66284e+06 0 2.9719e+06 5.64169e+06 0 3.01522e+06 5.61993e+06 0 3.05824e+06 5.59755e+06 0 3.10095e+06 5.57457e+06 0 3.14334e+06 5.55099e+06 0 3.1854e+06 5.52683e+06 0 3.22714e+06 5.50209e+06 0 3.26853e+06 5.47679e+06 0 3.30957e+06 5.45093e+06 0 3.35027e+06 5.42452e+06 0 3.3906e+06 5.39757e+06 0 3.43057e+06 5.3701e+06 0 3.47016e+06 5.3421e+06 0 3.50937e+06 5.3136e+06 0 3.5482e+06 5.28459e+06 0 3.58664e+06 5.25509e+06 0 3.62468e+06 5.22511e+06 0 3.66231e+06 5.19466e+06 0 3.69954e+06 5.16374e+06 0 3.73636e+06 5.13237e+06 0 3.77276e+06 5.10056e+06 0 3.80873e+06 5.06831e+06 0 3.84428e+06 5.03564e+06 0 3.8794e+06 5.00256e+06 0 3.91408e+06 4.96906e+06 0 3.94832e+06 4.93518e+06 0 3.98212e+06 4.9009e+06 0 4.01547e+06 4.86625e+06 0 4.04837e+06 4.83123e+06 0 4.08081e+06 4.79585e+06 0 4.11279e+06 4.76013e+06 0 4.14432e+06 4.72406e+06 0 4.17538e+06 4.68767e+06 0 4.20597e+06 4.65096e+06 0 4.23609e+06 4.61393e+06 0 4.26575e+06 4.57661e+06 0 4.29492e+06 4.53899e+06 0 4.32363e+06 4.50109e+06 0 4.35185e+06 4.46291e+06 0 4.37959e+06 4.42447e+06 0 4.40685e+06 4.38578e+06 0 4.43363e+06 4.34684e+06 0 4.45993e+06 4.30767e+06 0 4.48574e+06 4.26826e+06 0 4.51106e+06 4.22864e+06 0 4.5359e+06 4.18881e+06 0 4.56025e+06 4.14878e+06 0 4.58411e+06 4.10855e+06 0 4.60748e+06 4.06815e+06 0 4.63036e+06 4.02756e+06 0 4.65275e+06 3.98682e+06 0 4.67465e+06 3.94591e+06 0 4.69607e+06 3.90486e+06 0 4.71699e+06 3.86366e+06 0 4.73743e+06 3.82233e+06 0 4.75738e+06 3.78088e+06 0 4.77684e+06 3.73932e+06 0 4.79581e+06 3.69764e+06 0 4.8143e+06 3.65587e+06 0 4.83231e+06 3.614e+06 0 4.84983e+06 3.57205e+06 0 4.86686e+06 3.53003e+06 0 4.88342e+06 3.48794e+06 0 4.8995e+06 3.44578e+06 0 4.9151e+06 3.40358e+06 0 4.93022e+06 3.36133e+06 0 4.94487e+06 3.31904e+06 0 4.95904e+06 3.27672e+06 0 4.97275e+06 3.23437e+06 0 4.98598e+06 3.19201e+06 0 4.99875e+06 3.14964e+06 0 5.01106e+06 3.10727e+06 0 528477 5.37656e+06 0 555072 5.41269e+06 0 586359 5.44808e+06 0 620881 5.48152e+06 0 657777 5.51269e+06 0 696454 5.54158e+06 0 736518 5.56829e+06 0 777691 5.59296e+06 0 819772 5.6157e+06 0 862611 5.63665e+06 0 906092 5.65589e+06 0 950123 5.67352e+06 0 994628 5.68961e+06 0 1.03954e+06 5.70424e+06 0 1.08482e+06 5.71745e+06 0 1.1304e+06 5.72931e+06 0 1.17626e+06 5.73985e+06 0 1.22234e+06 5.74912e+06 0 1.26862e+06 5.75715e+06 0 1.31507e+06 5.76398e+06 0 1.36166e+06 5.76964e+06 0 1.40836e+06 5.77415e+06 0 1.45514e+06 5.77754e+06 0 1.50198e+06 5.77983e+06 0 1.54886e+06 5.78105e+06 0 1.59576e+06 5.78122e+06 0 1.64265e+06 5.78036e+06 0 1.68951e+06 5.77848e+06 0 1.73633e+06 5.77561e+06 0 1.78308e+06 5.77177e+06 0 1.82975e+06 5.76696e+06 0 1.87632e+06 5.76122e+06 0 1.92278e+06 5.75455e+06 0 1.9691e+06 5.74696e+06 0 2.01527e+06 5.73848e+06 0 2.06127e+06 5.72913e+06 0 2.10709e+06 5.71891e+06 0 2.15272e+06 5.70783e+06 0 2.19813e+06 5.69593e+06 0 2.24332e+06 5.6832e+06 0 2.28827e+06 5.66967e+06 0 2.33297e+06 5.65534e+06 0 2.37741e+06 5.64024e+06 0 2.42157e+06 5.62437e+06 0 2.46544e+06 5.60775e+06 0 2.50902e+06 5.5904e+06 0 2.55227e+06 5.57233e+06 0 2.59521e+06 5.55355e+06 0 2.63782e+06 5.53407e+06 0 2.68008e+06 5.51392e+06 0 2.72198e+06 5.49309e+06 0 2.76353e+06 5.47162e+06 0 2.8047e+06 5.44951e+06 0 2.84549e+06 5.42677e+06 0 2.88589e+06 5.40342e+06 0 2.9259e+06 5.37948e+06 0 2.9655e+06 5.35495e+06 0 3.00468e+06 5.32985e+06 0 3.04345e+06 5.30419e+06 0 3.08179e+06 5.278e+06 0 3.11969e+06 5.25127e+06 0 3.15716e+06 5.22402e+06 0 3.19418e+06 5.19628e+06 0 3.23075e+06 5.16804e+06 0 3.26686e+06 5.13933e+06 0 3.30251e+06 5.11016e+06 0 3.3377e+06 5.08054e+06 0 3.37242e+06 5.05048e+06 0 3.40666e+06 5.02e+06 0 3.44043e+06 4.98911e+06 0 3.47371e+06 4.95782e+06 0 3.50651e+06 4.92615e+06 0 3.53883e+06 4.89411e+06 0 3.57065e+06 4.86171e+06 0 3.60198e+06 4.82896e+06 0 3.63282e+06 4.79588e+06 0 3.66317e+06 4.76248e+06 0 3.69301e+06 4.72877e+06 0 3.72236e+06 4.69476e+06 0 3.75121e+06 4.66046e+06 0 3.77956e+06 4.62589e+06 0 3.80741e+06 4.59107e+06 0 3.83476e+06 4.55599e+06 0 3.86161e+06 4.52067e+06 0 3.88795e+06 4.48512e+06 0 3.9138e+06 4.44936e+06 0 3.93915e+06 4.4134e+06 0 3.964e+06 4.37723e+06 0 3.98835e+06 4.34089e+06 0 4.0122e+06 4.30437e+06 0 4.03556e+06 4.26769e+06 0 4.05843e+06 4.23086e+06 0 4.0808e+06 4.19389e+06 0 4.10268e+06 4.15678e+06 0 4.12408e+06 4.11955e+06 0 4.14499e+06 4.08221e+06 0 4.16541e+06 4.04476e+06 0 4.18536e+06 4.00722e+06 0 4.20482e+06 3.9696e+06 0 4.22381e+06 3.93189e+06 0 4.24233e+06 3.89413e+06 0 4.26038e+06 3.8563e+06 0 4.27796e+06 3.81842e+06 0 4.29508e+06 3.7805e+06 0 4.31173e+06 3.74254e+06 0 4.32793e+06 3.70456e+06 0 4.34368e+06 3.66656e+06 0 4.35898e+06 3.62855e+06 0 4.37383e+06 3.59054e+06 0 4.38824e+06 3.55253e+06 0 4.40221e+06 3.51453e+06 0 4.41574e+06 3.47655e+06 0 4.42885e+06 3.43859e+06 0 4.44153e+06 3.40066e+06 0 4.45379e+06 3.36277e+06 0 4.46563e+06 3.32493e+06 0 4.47705e+06 3.28713e+06 0 4.48807e+06 3.24939e+06 0 4.49868e+06 3.21171e+06 0 4.50889e+06 3.1741e+06 0 4.5187e+06 3.13656e+06 0 4.52812e+06 3.09909e+06 0 4.53715e+06 3.06171e+06 0 4.5458e+06 3.02442e+06 0 4.55407e+06 2.98722e+06 0 4.56196e+06 2.95012e+06 0 4.56948e+06 2.91312e+06 0 4.57664e+06 2.87622e+06 0 625478 5.29386e+06 0 652565 5.32259e+06 0 681882 5.35056e+06 0 713479 5.37761e+06 0 747157 5.40349e+06 0 782666 5.42801e+06 0 819752 5.45104e+06 0 858192 5.47251e+06 0 897789 5.49243e+06 0 938380 5.51079e+06 0 979824 5.52761e+06 0 1.022e+06 5.54293e+06 0 1.06482e+06 5.55678e+06 0 1.10818e+06 5.56919e+06 0 1.15201e+06 5.5802e+06 0 1.19624e+06 5.58984e+06 0 1.24082e+06 5.59814e+06 0 1.28569e+06 5.60514e+06 0 1.33079e+06 5.61086e+06 0 1.3761e+06 5.61534e+06 0 1.42155e+06 5.61859e+06 0 1.46713e+06 5.62065e+06 0 1.51278e+06 5.62153e+06 0 1.55848e+06 5.62127e+06 0 1.6042e+06 5.61989e+06 0 1.6499e+06 5.6174e+06 0 1.69556e+06 5.61383e+06 0 1.74115e+06 5.6092e+06 0 1.78664e+06 5.60353e+06 0 1.83201e+06 5.59684e+06 0 1.87724e+06 5.58916e+06 0 1.9223e+06 5.58049e+06 0 1.96718e+06 5.57087e+06 0 2.01185e+06 5.5603e+06 0 2.05629e+06 5.54881e+06 0 2.10048e+06 5.53642e+06 0 2.14441e+06 5.52315e+06 0 2.18805e+06 5.509e+06 0 2.23139e+06 5.49402e+06 0 2.27442e+06 5.4782e+06 0 2.31712e+06 5.46157e+06 0 2.35946e+06 5.44416e+06 0 2.40145e+06 5.42597e+06 0 2.44307e+06 5.40702e+06 0 2.48429e+06 5.38734e+06 0 2.52512e+06 5.36694e+06 0 2.56554e+06 5.34583e+06 0 2.60553e+06 5.32405e+06 0 2.64509e+06 5.3016e+06 0 2.68421e+06 5.27851e+06 0 2.72287e+06 5.25479e+06 0 2.76107e+06 5.23045e+06 0 2.7988e+06 5.20553e+06 0 2.83606e+06 5.18003e+06 0 2.87282e+06 5.15397e+06 0 2.9091e+06 5.12737e+06 0 2.94488e+06 5.10024e+06 0 2.98015e+06 5.07262e+06 0 3.01491e+06 5.0445e+06 0 3.04915e+06 5.01591e+06 0 3.08288e+06 4.98687e+06 0 3.11608e+06 4.95739e+06 0 3.14876e+06 4.92749e+06 0 3.1809e+06 4.89718e+06 0 3.21251e+06 4.86649e+06 0 3.24359e+06 4.83542e+06 0 3.27412e+06 4.804e+06 0 3.30412e+06 4.77223e+06 0 3.33358e+06 4.74014e+06 0 3.3625e+06 4.70774e+06 0 3.39087e+06 4.67505e+06 0 3.41871e+06 4.64207e+06 0 3.446e+06 4.60883e+06 0 3.47275e+06 4.57533e+06 0 3.49896e+06 4.5416e+06 0 3.52463e+06 4.50765e+06 0 3.54977e+06 4.47349e+06 0 3.57437e+06 4.43913e+06 0 3.59844e+06 4.40459e+06 0 3.62197e+06 4.36988e+06 0 3.64498e+06 4.33501e+06 0 3.66746e+06 4.3e+06 0 3.68942e+06 4.26485e+06 0 3.71086e+06 4.22959e+06 0 3.73178e+06 4.19422e+06 0 3.75219e+06 4.15875e+06 0 3.77209e+06 4.12319e+06 0 3.79149e+06 4.08756e+06 0 3.81039e+06 4.05187e+06 0 3.82879e+06 4.01612e+06 0 3.8467e+06 3.98033e+06 0 3.86413e+06 3.94451e+06 0 3.88107e+06 3.90866e+06 0 3.89754e+06 3.8728e+06 0 3.91353e+06 3.83693e+06 0 3.92906e+06 3.80106e+06 0 3.94413e+06 3.76521e+06 0 3.95874e+06 3.72938e+06 0 3.9729e+06 3.69358e+06 0 3.98662e+06 3.65781e+06 0 3.9999e+06 3.62209e+06 0 4.01274e+06 3.58642e+06 0 4.02516e+06 3.55081e+06 0 4.03716e+06 3.51526e+06 0 4.04873e+06 3.47979e+06 0 4.0599e+06 3.4444e+06 0 4.07067e+06 3.40909e+06 0 4.08103e+06 3.37387e+06 0 4.09101e+06 3.33875e+06 0 4.10059e+06 3.30373e+06 0 4.1098e+06 3.26882e+06 0 4.11863e+06 3.23402e+06 0 4.12709e+06 3.19934e+06 0 4.13519e+06 3.16479e+06 0 4.14294e+06 3.13036e+06 0 4.15033e+06 3.09606e+06 0 4.15738e+06 3.0619e+06 0 4.16408e+06 3.02788e+06 0 4.17046e+06 2.994e+06 0 4.17651e+06 2.96027e+06 0 4.18223e+06 2.92669e+06 0 4.18764e+06 2.89326e+06 0 4.19274e+06 2.85999e+06 0 4.19753e+06 2.82688e+06 0 4.20203e+06 2.79394e+06 0 4.20623e+06 2.76116e+06 0 4.21015e+06 2.72854e+06 0 4.21378e+06 2.6961e+06 0 698894 5.21603e+06 0 725859 5.24006e+06 0 754812 5.2636e+06 0 785604 5.28638e+06 0 818119 5.30822e+06 0 852226 5.32898e+06 0 887783 5.34854e+06 0 924644 5.36683e+06 0 962667 5.38379e+06 0 1.00172e+06 5.39938e+06 0 1.04168e+06 5.41358e+06 0 1.08243e+06 5.42639e+06 0 1.12388e+06 5.43781e+06 0 1.16592e+06 5.44785e+06 0 1.20849e+06 5.45653e+06 0 1.25149e+06 5.46385e+06 0 1.29488e+06 5.46985e+06 0 1.33857e+06 5.47453e+06 0 1.38252e+06 5.47793e+06 0 1.42667e+06 5.48007e+06 0 1.47097e+06 5.48096e+06 0 1.51537e+06 5.48063e+06 0 1.55984e+06 5.4791e+06 0 1.60433e+06 5.47639e+06 0 1.64881e+06 5.47254e+06 0 1.69323e+06 5.46755e+06 0 1.73757e+06 5.46145e+06 0 1.78179e+06 5.45427e+06 0 1.82586e+06 5.44602e+06 0 1.86976e+06 5.43673e+06 0 1.91345e+06 5.42642e+06 0 1.95691e+06 5.41512e+06 0 2.00012e+06 5.40284e+06 0 2.04304e+06 5.38961e+06 0 2.08567e+06 5.37545e+06 0 2.12797e+06 5.36038e+06 0 2.16993e+06 5.34442e+06 0 2.21153e+06 5.3276e+06 0 2.25274e+06 5.30994e+06 0 2.29356e+06 5.29147e+06 0 2.33396e+06 5.27219e+06 0 2.37393e+06 5.25214e+06 0 2.41346e+06 5.23133e+06 0 2.45253e+06 5.2098e+06 0 2.49113e+06 5.18756e+06 0 2.52924e+06 5.16462e+06 0 2.56685e+06 5.14103e+06 0 2.60396e+06 5.11679e+06 0 2.64056e+06 5.09193e+06 0 2.67663e+06 5.06647e+06 0 2.71216e+06 5.04042e+06 0 2.74716e+06 5.01382e+06 0 2.7816e+06 4.98669e+06 0 2.81549e+06 4.95903e+06 0 2.84882e+06 4.93088e+06 0 2.88158e+06 4.90226e+06 0 2.91378e+06 4.87318e+06 0 2.9454e+06 4.84366e+06 0 2.97644e+06 4.81373e+06 0 3.00691e+06 4.78341e+06 0 3.03679e+06 4.7527e+06 0 3.06609e+06 4.72164e+06 0 3.0948e+06 4.69024e+06 0 3.12293e+06 4.65852e+06 0 3.15047e+06 4.6265e+06 0 3.17743e+06 4.59419e+06 0 3.20381e+06 4.56161e+06 0 3.2296e+06 4.52879e+06 0 3.25481e+06 4.49573e+06 0 3.27945e+06 4.46245e+06 0 3.3035e+06 4.42898e+06 0 3.32699e+06 4.39532e+06 0 3.3499e+06 4.36149e+06 0 3.37225e+06 4.3275e+06 0 3.39403e+06 4.29338e+06 0 3.41526e+06 4.25913e+06 0 3.43593e+06 4.22478e+06 0 3.45605e+06 4.19032e+06 0 3.47563e+06 4.15578e+06 0 3.49467e+06 4.12118e+06 0 3.51317e+06 4.08651e+06 0 3.53115e+06 4.0518e+06 0 3.5486e+06 4.01706e+06 0 3.56554e+06 3.98229e+06 0 3.58197e+06 3.94752e+06 0 3.5979e+06 3.91274e+06 0 3.61332e+06 3.87798e+06 0 3.62826e+06 3.84324e+06 0 3.64272e+06 3.80853e+06 0 3.65669e+06 3.77386e+06 0 3.6702e+06 3.73924e+06 0 3.68325e+06 3.70468e+06 0 3.69583e+06 3.67019e+06 0 3.70798e+06 3.63578e+06 0 3.71968e+06 3.60145e+06 0 3.73094e+06 3.56721e+06 0 3.74178e+06 3.53307e+06 0 3.7522e+06 3.49903e+06 0 3.76221e+06 3.46511e+06 0 3.77182e+06 3.43131e+06 0 3.78102e+06 3.39764e+06 0 3.78984e+06 3.36409e+06 0 3.79828e+06 3.33068e+06 0 3.80634e+06 3.29742e+06 0 3.81404e+06 3.2643e+06 0 3.82137e+06 3.23134e+06 0 3.82835e+06 3.19853e+06 0 3.83499e+06 3.16588e+06 0 3.84129e+06 3.1334e+06 0 3.84726e+06 3.10109e+06 0 3.8529e+06 3.06895e+06 0 3.85823e+06 3.03699e+06 0 3.86324e+06 3.0052e+06 0 3.86796e+06 2.9736e+06 0 3.87237e+06 2.94219e+06 0 3.8765e+06 2.91096e+06 0 3.88035e+06 2.87992e+06 0 3.88392e+06 2.84908e+06 0 3.88722e+06 2.81843e+06 0 3.89025e+06 2.78798e+06 0 3.89303e+06 2.75772e+06 0 3.89556e+06 2.72766e+06 0 3.89785e+06 2.69781e+06 0 3.89989e+06 2.66816e+06 0 3.90171e+06 2.63871e+06 0 3.90329e+06 2.60947e+06 0 3.90466e+06 2.58043e+06 0 3.90581e+06 2.55159e+06 0 756608 5.14375e+06 0 783928 5.16427e+06 0 812821 5.18426e+06 0 843276 5.20359e+06 0 875229 5.22211e+06 0 908595 5.23969e+06 0 943274 5.25622e+06 0 979160 5.27162e+06 0 1.01615e+06 5.28582e+06 0 1.05412e+06 5.29876e+06 0 1.09298e+06 5.31042e+06 0 1.13263e+06 5.32077e+06 0 1.17297e+06 5.3298e+06 0 1.21392e+06 5.33749e+06 0 1.25538e+06 5.34386e+06 0 1.29729e+06 5.3489e+06 0 1.33957e+06 5.35263e+06 0 1.38216e+06 5.35506e+06 0 1.425e+06 5.3562e+06 0 1.46802e+06 5.35608e+06 0 1.51117e+06 5.3547e+06 0 1.5544e+06 5.35209e+06 0 1.59767e+06 5.34828e+06 0 1.64092e+06 5.34327e+06 0 1.68412e+06 5.3371e+06 0 1.72723e+06 5.32978e+06 0 1.7702e+06 5.32134e+06 0 1.813e+06 5.31181e+06 0 1.85561e+06 5.3012e+06 0 1.89798e+06 5.28955e+06 0 1.94008e+06 5.27687e+06 0 1.9819e+06 5.26319e+06 0 2.02339e+06 5.24853e+06 0 2.06454e+06 5.23293e+06 0 2.10531e+06 5.2164e+06 0 2.1457e+06 5.19898e+06 0 2.18567e+06 5.18068e+06 0 2.22521e+06 5.16153e+06 0 2.26429e+06 5.14156e+06 0 2.3029e+06 5.12079e+06 0 2.34103e+06 5.09925e+06 0 2.37865e+06 5.07696e+06 0 2.41575e+06 5.05395e+06 0 2.45232e+06 5.03025e+06 0 2.48835e+06 5.00587e+06 0 2.52382e+06 4.98085e+06 0 2.55873e+06 4.95521e+06 0 2.59306e+06 4.92897e+06 0 2.62681e+06 4.90216e+06 0 2.65997e+06 4.8748e+06 0 2.69252e+06 4.84691e+06 0 2.72448e+06 4.81853e+06 0 2.75582e+06 4.78968e+06 0 2.78655e+06 4.76036e+06 0 2.81667e+06 4.73062e+06 0 2.84616e+06 4.70047e+06 0 2.87503e+06 4.66994e+06 0 2.90328e+06 4.63904e+06 0 2.93091e+06 4.6078e+06 0 2.9579e+06 4.57624e+06 0 2.98428e+06 4.54438e+06 0 3.01003e+06 4.51224e+06 0 3.03516e+06 4.47985e+06 0 3.05967e+06 4.44721e+06 0 3.08356e+06 4.41435e+06 0 3.10684e+06 4.38129e+06 0 3.12951e+06 4.34804e+06 0 3.15158e+06 4.31463e+06 0 3.17304e+06 4.28108e+06 0 3.1939e+06 4.24739e+06 0 3.21417e+06 4.21358e+06 0 3.23386e+06 4.17968e+06 0 3.25297e+06 4.14569e+06 0 3.2715e+06 4.11164e+06 0 3.28947e+06 4.07753e+06 0 3.30687e+06 4.04338e+06 0 3.32372e+06 4.00921e+06 0 3.34003e+06 3.97503e+06 0 3.3558e+06 3.94085e+06 0 3.37103e+06 3.90668e+06 0 3.38574e+06 3.87254e+06 0 3.39994e+06 3.83843e+06 0 3.41363e+06 3.80438e+06 0 3.42682e+06 3.77038e+06 0 3.43952e+06 3.73645e+06 0 3.45173e+06 3.70261e+06 0 3.46348e+06 3.66885e+06 0 3.47475e+06 3.63519e+06 0 3.48558e+06 3.60163e+06 0 3.49595e+06 3.5682e+06 0 3.50589e+06 3.53488e+06 0 3.51539e+06 3.5017e+06 0 3.52447e+06 3.46865e+06 0 3.53315e+06 3.43575e+06 0 3.54141e+06 3.403e+06 0 3.54929e+06 3.37041e+06 0 3.55677e+06 3.33799e+06 0 3.56388e+06 3.30573e+06 0 3.57062e+06 3.27364e+06 0 3.577e+06 3.24174e+06 0 3.58302e+06 3.21002e+06 0 3.58871e+06 3.17849e+06 0 3.59405e+06 3.14715e+06 0 3.59907e+06 3.116e+06 0 3.60378e+06 3.08506e+06 0 3.60817e+06 3.05432e+06 0 3.61226e+06 3.02378e+06 0 3.61605e+06 2.99346e+06 0 3.61956e+06 2.96334e+06 0 3.62279e+06 2.93344e+06 0 3.62574e+06 2.90375e+06 0 3.62844e+06 2.87429e+06 0 3.63087e+06 2.84504e+06 0 3.63306e+06 2.81601e+06 0 3.63501e+06 2.7872e+06 0 3.63672e+06 2.75862e+06 0 3.6382e+06 2.73026e+06 0 3.63946e+06 2.70212e+06 0 3.6405e+06 2.67421e+06 0 3.64134e+06 2.64653e+06 0 3.64198e+06 2.61907e+06 0 3.64242e+06 2.59184e+06 0 3.64267e+06 2.56484e+06 0 3.64274e+06 2.53806e+06 0 3.64263e+06 2.5115e+06 0 3.64235e+06 2.48518e+06 0 3.6419e+06 2.45908e+06 0 3.64129e+06 2.4332e+06 0 803244 5.07557e+06 0 830765 5.09331e+06 0 859706 5.11051e+06 0 890024 5.12705e+06 0 921671 5.1428e+06 0 954585 5.15766e+06 0 988691 5.17154e+06 0 1.02391e+06 5.18437e+06 0 1.06014e+06 5.19606e+06 0 1.0973e+06 5.20657e+06 0 1.13531e+06 5.21586e+06 0 1.17406e+06 5.22389e+06 0 1.21347e+06 5.23065e+06 0 1.25346e+06 5.23611e+06 0 1.29395e+06 5.24027e+06 0 1.33486e+06 5.24313e+06 0 1.37612e+06 5.2447e+06 0 1.41767e+06 5.24497e+06 0 1.45943e+06 5.24397e+06 0 1.50136e+06 5.2417e+06 0 1.54338e+06 5.23818e+06 0 1.58545e+06 5.23343e+06 0 1.62751e+06 5.22747e+06 0 1.66952e+06 5.22032e+06 0 1.71144e+06 5.212e+06 0 1.75321e+06 5.20254e+06 0 1.79481e+06 5.19195e+06 0 1.83618e+06 5.18027e+06 0 1.8773e+06 5.16751e+06 0 1.91812e+06 5.15372e+06 0 1.95863e+06 5.1389e+06 0 1.99878e+06 5.12309e+06 0 2.03855e+06 5.10632e+06 0 2.07792e+06 5.08861e+06 0 2.11685e+06 5.07e+06 0 2.15533e+06 5.0505e+06 0 2.19332e+06 5.03016e+06 0 2.23082e+06 5.00899e+06 0 2.2678e+06 4.98702e+06 0 2.30425e+06 4.96429e+06 0 2.34014e+06 4.94082e+06 0 2.37547e+06 4.91664e+06 0 2.41022e+06 4.89177e+06 0 2.44437e+06 4.86626e+06 0 2.47793e+06 4.84011e+06 0 2.51086e+06 4.81337e+06 0 2.54318e+06 4.78606e+06 0 2.57486e+06 4.7582e+06 0 2.60591e+06 4.72983e+06 0 2.63631e+06 4.70096e+06 0 2.66606e+06 4.67164e+06 0 2.69516e+06 4.64187e+06 0 2.72361e+06 4.61169e+06 0 2.7514e+06 4.58112e+06 0 2.77853e+06 4.55018e+06 0 2.805e+06 4.51891e+06 0 2.83081e+06 4.48732e+06 0 2.85596e+06 4.45544e+06 0 2.88046e+06 4.42329e+06 0 2.9043e+06 4.39089e+06 0 2.92749e+06 4.35826e+06 0 2.95004e+06 4.32543e+06 0 2.97194e+06 4.29242e+06 0 2.9932e+06 4.25924e+06 0 3.01383e+06 4.22591e+06 0 3.03383e+06 4.19246e+06 0 3.05321e+06 4.15891e+06 0 3.07198e+06 4.12526e+06 0 3.09014e+06 4.09154e+06 0 3.10769e+06 4.05777e+06 0 3.12466e+06 4.02396e+06 0 3.14104e+06 3.99012e+06 0 3.15684e+06 3.95628e+06 0 3.17207e+06 3.92244e+06 0 3.18675e+06 3.88863e+06 0 3.20087e+06 3.85485e+06 0 3.21445e+06 3.82111e+06 0 3.2275e+06 3.78744e+06 0 3.24003e+06 3.75384e+06 0 3.25205e+06 3.72032e+06 0 3.26356e+06 3.6869e+06 0 3.27457e+06 3.65358e+06 0 3.28511e+06 3.62038e+06 0 3.29517e+06 3.5873e+06 0 3.30477e+06 3.55435e+06 0 3.31391e+06 3.52155e+06 0 3.32261e+06 3.4889e+06 0 3.33088e+06 3.45641e+06 0 3.33872e+06 3.42408e+06 0 3.34615e+06 3.39193e+06 0 3.35317e+06 3.35995e+06 0 3.3598e+06 3.32816e+06 0 3.36605e+06 3.29656e+06 0 3.37193e+06 3.26516e+06 0 3.37744e+06 3.23396e+06 0 3.38259e+06 3.20297e+06 0 3.3874e+06 3.17219e+06 0 3.39187e+06 3.14162e+06 0 3.39602e+06 3.11127e+06 0 3.39985e+06 3.08115e+06 0 3.40337e+06 3.05124e+06 0 3.4066e+06 3.02157e+06 0 3.40953e+06 2.99213e+06 0 3.41218e+06 2.96292e+06 0 3.41456e+06 2.93395e+06 0 3.41667e+06 2.90521e+06 0 3.41853e+06 2.87671e+06 0 3.42014e+06 2.84845e+06 0 3.4215e+06 2.82043e+06 0 3.42264e+06 2.79266e+06 0 3.42355e+06 2.76512e+06 0 3.42425e+06 2.73783e+06 0 3.42473e+06 2.71079e+06 0 3.42502e+06 2.68399e+06 0 3.4251e+06 2.65743e+06 0 3.425e+06 2.63111e+06 0 3.42472e+06 2.60504e+06 0 3.42427e+06 2.57921e+06 0 3.42364e+06 2.55363e+06 0 3.42286e+06 2.52829e+06 0 3.42191e+06 2.50318e+06 0 3.42082e+06 2.47832e+06 0 3.41959e+06 2.4537e+06 0 3.41821e+06 2.42932e+06 0 3.41671e+06 2.40517e+06 0 3.41508e+06 2.38126e+06 0 3.41332e+06 2.35758e+06 0 3.41145e+06 2.33413e+06 0 841372 5.01133e+06 0 869075 5.0267e+06 0 898050 5.0415e+06 0 928274 5.05563e+06 0 959704 5.06899e+06 0 992288 5.08148e+06 0 1.02596e+06 5.09303e+06 0 1.06065e+06 5.10355e+06 0 1.09629e+06 5.11298e+06 0 1.13279e+06 5.12126e+06 0 1.17007e+06 5.12836e+06 0 1.20805e+06 5.13424e+06 0 1.24665e+06 5.13887e+06 0 1.28578e+06 5.14224e+06 0 1.32538e+06 5.14433e+06 0 1.36537e+06 5.14515e+06 0 1.40567e+06 5.14467e+06 0 1.44622e+06 5.14293e+06 0 1.48695e+06 5.13991e+06 0 1.5278e+06 5.13563e+06 0 1.56872e+06 5.13012e+06 0 1.60964e+06 5.12337e+06 0 1.65051e+06 5.11542e+06 0 1.69129e+06 5.10629e+06 0 1.73192e+06 5.09599e+06 0 1.77237e+06 5.08455e+06 0 1.81258e+06 5.072e+06 0 1.85252e+06 5.05836e+06 0 1.89215e+06 5.04366e+06 0 1.93144e+06 5.02793e+06 0 1.97036e+06 5.01119e+06 0 2.00886e+06 4.99348e+06 0 2.04692e+06 4.97483e+06 0 2.08453e+06 4.95526e+06 0 2.12164e+06 4.93481e+06 0 2.15823e+06 4.9135e+06 0 2.1943e+06 4.89137e+06 0 2.2298e+06 4.86845e+06 0 2.26473e+06 4.84477e+06 0 2.29908e+06 4.82036e+06 0 2.33281e+06 4.79525e+06 0 2.36593e+06 4.76947e+06 0 2.39841e+06 4.74306e+06 0 2.43025e+06 4.71603e+06 0 2.46143e+06 4.68843e+06 0 2.49195e+06 4.66028e+06 0 2.52181e+06 4.63162e+06 0 2.55099e+06 4.60246e+06 0 2.57949e+06 4.57284e+06 0 2.6073e+06 4.54279e+06 0 2.63443e+06 4.51234e+06 0 2.66087e+06 4.48151e+06 0 2.68662e+06 4.45033e+06 0 2.71168e+06 4.41882e+06 0 2.73606e+06 4.38702e+06 0 2.75975e+06 4.35494e+06 0 2.78275e+06 4.32261e+06 0 2.80508e+06 4.29006e+06 0 2.82673e+06 4.2573e+06 0 2.84771e+06 4.22437e+06 0 2.86802e+06 4.19127e+06 0 2.88768e+06 4.15805e+06 0 2.90668e+06 4.1247e+06 0 2.92504e+06 4.09127e+06 0 2.94275e+06 4.05775e+06 0 2.95984e+06 4.02418e+06 0 2.97631e+06 3.99057e+06 0 2.99216e+06 3.95694e+06 0 3.00741e+06 3.92331e+06 0 3.02207e+06 3.88968e+06 0 3.03614e+06 3.85609e+06 0 3.04964e+06 3.82254e+06 0 3.06257e+06 3.78904e+06 0 3.07495e+06 3.75562e+06 0 3.08679e+06 3.72228e+06 0 3.09809e+06 3.68903e+06 0 3.10887e+06 3.6559e+06 0 3.11914e+06 3.62288e+06 0 3.12892e+06 3.59e+06 0 3.1382e+06 3.55725e+06 0 3.147e+06 3.52466e+06 0 3.15534e+06 3.49223e+06 0 3.16323e+06 3.45996e+06 0 3.17067e+06 3.42787e+06 0 3.17768e+06 3.39597e+06 0 3.18427e+06 3.36426e+06 0 3.19045e+06 3.33275e+06 0 3.19622e+06 3.30144e+06 0 3.20161e+06 3.27035e+06 0 3.20662e+06 3.23947e+06 0 3.21127e+06 3.20881e+06 0 3.21556e+06 3.17838e+06 0 3.2195e+06 3.14818e+06 0 3.22311e+06 3.11822e+06 0 3.22639e+06 3.0885e+06 0 3.22936e+06 3.05901e+06 0 3.23202e+06 3.02977e+06 0 3.23438e+06 3.00078e+06 0 3.23647e+06 2.97204e+06 0 3.23827e+06 2.94355e+06 0 3.23981e+06 2.91532e+06 0 3.24109e+06 2.88734e+06 0 3.24212e+06 2.85961e+06 0 3.24291e+06 2.83215e+06 0 3.24347e+06 2.80494e+06 0 3.24381e+06 2.77799e+06 0 3.24393e+06 2.75131e+06 0 3.24384e+06 2.72488e+06 0 3.24356e+06 2.69871e+06 0 3.24309e+06 2.6728e+06 0 3.24243e+06 2.64715e+06 0 3.2416e+06 2.62175e+06 0 3.24059e+06 2.59662e+06 0 3.23943e+06 2.57174e+06 0 3.23811e+06 2.54712e+06 0 3.23665e+06 2.52275e+06 0 3.23504e+06 2.49864e+06 0 3.23329e+06 2.47478e+06 0 3.23142e+06 2.45117e+06 0 3.22942e+06 2.42781e+06 0 3.22731e+06 2.4047e+06 0 3.22508e+06 2.38183e+06 0 3.22275e+06 2.35921e+06 0 3.22032e+06 2.33683e+06 0 3.21779e+06 2.31469e+06 0 3.21517e+06 2.29279e+06 0 3.21246e+06 2.27113e+06 0 3.20968e+06 2.2497e+06 0 872755 4.95054e+06 0 900574 4.96386e+06 0 929565 4.97657e+06 0 959701 4.9886e+06 0 990946 4.99985e+06 0 1.02325e+06 5.01024e+06 0 1.05656e+06 5.01969e+06 0 1.0908e+06 5.02814e+06 0 1.12592e+06 5.03551e+06 0 1.16184e+06 5.04176e+06 0 1.19848e+06 5.04685e+06 0 1.23576e+06 5.05074e+06 0 1.27361e+06 5.05341e+06 0 1.31195e+06 5.05483e+06 0 1.35072e+06 5.05499e+06 0 1.38982e+06 5.05389e+06 0 1.42921e+06 5.05152e+06 0 1.4688e+06 5.04788e+06 0 1.50853e+06 5.04299e+06 0 1.54833e+06 5.03685e+06 0 1.58816e+06 5.02947e+06 0 1.62795e+06 5.02088e+06 0 1.66765e+06 5.0111e+06 0 1.70721e+06 5.00013e+06 0 1.74657e+06 4.98802e+06 0 1.7857e+06 4.97478e+06 0 1.82454e+06 4.96043e+06 0 1.86307e+06 4.94502e+06 0 1.90123e+06 4.92856e+06 0 1.939e+06 4.91109e+06 0 1.97634e+06 4.89263e+06 0 2.01322e+06 4.87323e+06 0 2.04961e+06 4.8529e+06 0 2.08549e+06 4.83169e+06 0 2.12082e+06 4.80962e+06 0 2.15558e+06 4.78673e+06 0 2.18976e+06 4.76306e+06 0 2.22334e+06 4.73863e+06 0 2.25629e+06 4.71347e+06 0 2.2886e+06 4.68763e+06 0 2.32026e+06 4.66113e+06 0 2.35126e+06 4.63401e+06 0 2.38157e+06 4.60629e+06 0 2.41121e+06 4.57802e+06 0 2.44015e+06 4.54922e+06 0 2.46838e+06 4.51993e+06 0 2.49592e+06 4.49017e+06 0 2.52274e+06 4.45998e+06 0 2.54885e+06 4.42939e+06 0 2.57425e+06 4.39842e+06 0 2.59893e+06 4.3671e+06 0 2.6229e+06 4.33547e+06 0 2.64616e+06 4.30355e+06 0 2.66871e+06 4.27136e+06 0 2.69055e+06 4.23894e+06 0 2.71169e+06 4.20631e+06 0 2.73213e+06 4.17349e+06 0 2.75188e+06 4.14051e+06 0 2.77094e+06 4.10739e+06 0 2.78933e+06 4.07416e+06 0 2.80705e+06 4.04083e+06 0 2.82411e+06 4.00743e+06 0 2.84051e+06 3.97398e+06 0 2.85627e+06 3.94049e+06 0 2.87139e+06 3.90699e+06 0 2.88589e+06 3.8735e+06 0 2.89978e+06 3.84003e+06 0 2.91306e+06 3.80659e+06 0 2.92576e+06 3.77321e+06 0 2.93787e+06 3.7399e+06 0 2.94941e+06 3.70668e+06 0 2.9604e+06 3.67356e+06 0 2.97084e+06 3.64055e+06 0 2.98075e+06 3.60766e+06 0 2.99013e+06 3.57491e+06 0 2.99901e+06 3.54231e+06 0 3.00739e+06 3.50987e+06 0 3.01528e+06 3.47759e+06 0 3.0227e+06 3.4455e+06 0 3.02966e+06 3.41359e+06 0 3.03618e+06 3.38188e+06 0 3.04226e+06 3.35038e+06 0 3.04791e+06 3.31908e+06 0 3.05315e+06 3.28801e+06 0 3.058e+06 3.25716e+06 0 3.06245e+06 3.22654e+06 0 3.06653e+06 3.19616e+06 0 3.07024e+06 3.16601e+06 0 3.0736e+06 3.13612e+06 0 3.07662e+06 3.10647e+06 0 3.07931e+06 3.07708e+06 0 3.08168e+06 3.04794e+06 0 3.08374e+06 3.01907e+06 0 3.0855e+06 2.99045e+06 0 3.08698e+06 2.96211e+06 0 3.08817e+06 2.93403e+06 0 3.0891e+06 2.90622e+06 0 3.08977e+06 2.87867e+06 0 3.09019e+06 2.8514e+06 0 3.09038e+06 2.82441e+06 0 3.09033e+06 2.79768e+06 0 3.09007e+06 2.77123e+06 0 3.08959e+06 2.74505e+06 0 3.08892e+06 2.71915e+06 0 3.08804e+06 2.69352e+06 0 3.08699e+06 2.66816e+06 0 3.08575e+06 2.64307e+06 0 3.08434e+06 2.61826e+06 0 3.08278e+06 2.59371e+06 0 3.08105e+06 2.56944e+06 0 3.07918e+06 2.54543e+06 0 3.07717e+06 2.52169e+06 0 3.07503e+06 2.49821e+06 0 3.07275e+06 2.475e+06 0 3.07036e+06 2.45204e+06 0 3.06785e+06 2.42935e+06 0 3.06524e+06 2.40692e+06 0 3.06252e+06 2.38474e+06 0 3.05971e+06 2.36281e+06 0 3.0568e+06 2.34114e+06 0 3.05381e+06 2.31971e+06 0 3.05074e+06 2.29854e+06 0 3.04759e+06 2.2776e+06 0 3.04437e+06 2.25691e+06 0 3.04108e+06 2.23646e+06 0 3.03774e+06 2.21624e+06 0 3.03434e+06 2.19626e+06 0 3.03088e+06 2.17651e+06 0 898652 4.89295e+06 0 926535 4.90444e+06 0 955507 4.91529e+06 0 985541 4.92544e+06 0 1.0166e+06 4.9348e+06 0 1.04864e+06 4.9433e+06 0 1.08161e+06 4.95086e+06 0 1.11545e+06 4.95741e+06 0 1.15009e+06 4.96291e+06 0 1.18546e+06 4.9673e+06 0 1.2215e+06 4.97054e+06 0 1.25814e+06 4.97259e+06 0 1.29529e+06 4.97344e+06 0 1.33288e+06 4.97305e+06 0 1.37084e+06 4.97142e+06 0 1.40911e+06 4.96854e+06 0 1.4476e+06 4.9644e+06 0 1.48626e+06 4.95901e+06 0 1.52501e+06 4.95237e+06 0 1.5638e+06 4.9445e+06 0 1.60256e+06 4.93541e+06 0 1.64124e+06 4.92512e+06 0 1.67978e+06 4.91364e+06 0 1.71813e+06 4.901e+06 0 1.75624e+06 4.88722e+06 0 1.79407e+06 4.87233e+06 0 1.83157e+06 4.85636e+06 0 1.8687e+06 4.83934e+06 0 1.90543e+06 4.82129e+06 0 1.94171e+06 4.80226e+06 0 1.97751e+06 4.78227e+06 0 2.0128e+06 4.76135e+06 0 2.04756e+06 4.73954e+06 0 2.08175e+06 4.71688e+06 0 2.11535e+06 4.6934e+06 0 2.14834e+06 4.66913e+06 0 2.1807e+06 4.64411e+06 0 2.21242e+06 4.61837e+06 0 2.24346e+06 4.59196e+06 0 2.27383e+06 4.56489e+06 0 2.30351e+06 4.53722e+06 0 2.33248e+06 4.50897e+06 0 2.36074e+06 4.48018e+06 0 2.38828e+06 4.45088e+06 0 2.4151e+06 4.42111e+06 0 2.44119e+06 4.39089e+06 0 2.46654e+06 4.36026e+06 0 2.49116e+06 4.32926e+06 0 2.51504e+06 4.2979e+06 0 2.53819e+06 4.26623e+06 0 2.5606e+06 4.23427e+06 0 2.58228e+06 4.20205e+06 0 2.60324e+06 4.1696e+06 0 2.62347e+06 4.13694e+06 0 2.64298e+06 4.10411e+06 0 2.66179e+06 4.07112e+06 0 2.67989e+06 4.03801e+06 0 2.6973e+06 4.0048e+06 0 2.71402e+06 3.9715e+06 0 2.73007e+06 3.93815e+06 0 2.74545e+06 3.90476e+06 0 2.76017e+06 3.87135e+06 0 2.77424e+06 3.83795e+06 0 2.78768e+06 3.80457e+06 0 2.80049e+06 3.77124e+06 0 2.8127e+06 3.73796e+06 0 2.8243e+06 3.70476e+06 0 2.83532e+06 3.67165e+06 0 2.84576e+06 3.63864e+06 0 2.85564e+06 3.60576e+06 0 2.86497e+06 3.57301e+06 0 2.87376e+06 3.54041e+06 0 2.88204e+06 3.50797e+06 0 2.8898e+06 3.4757e+06 0 2.89707e+06 3.44361e+06 0 2.90385e+06 3.41171e+06 0 2.91016e+06 3.38001e+06 0 2.91602e+06 3.34852e+06 0 2.92143e+06 3.31725e+06 0 2.92642e+06 3.28621e+06 0 2.93098e+06 3.2554e+06 0 2.93514e+06 3.22483e+06 0 2.93891e+06 3.1945e+06 0 2.9423e+06 3.16443e+06 0 2.94533e+06 3.13461e+06 0 2.94799e+06 3.10505e+06 0 2.95032e+06 3.07576e+06 0 2.95232e+06 3.04673e+06 0 2.95399e+06 3.01798e+06 0 2.95536e+06 2.9895e+06 0 2.95644e+06 2.9613e+06 0 2.95722e+06 2.93337e+06 0 2.95774e+06 2.90573e+06 0 2.95799e+06 2.87838e+06 0 2.95799e+06 2.8513e+06 0 2.95774e+06 2.82451e+06 0 2.95727e+06 2.79801e+06 0 2.95657e+06 2.77179e+06 0 2.95565e+06 2.74585e+06 0 2.95453e+06 2.7202e+06 0 2.95322e+06 2.69484e+06 0 2.95172e+06 2.66976e+06 0 2.95005e+06 2.64497e+06 0 2.9482e+06 2.62046e+06 0 2.94619e+06 2.59623e+06 0 2.94403e+06 2.57228e+06 0 2.94173e+06 2.5486e+06 0 2.93928e+06 2.52521e+06 0 2.93671e+06 2.50209e+06 0 2.93401e+06 2.47924e+06 0 2.93119e+06 2.45667e+06 0 2.92827e+06 2.43437e+06 0 2.92524e+06 2.41233e+06 0 2.92211e+06 2.39056e+06 0 2.91889e+06 2.36905e+06 0 2.91559e+06 2.3478e+06 0 2.9122e+06 2.3268e+06 0 2.90874e+06 2.30607e+06 0 2.90521e+06 2.28558e+06 0 2.90162e+06 2.26535e+06 0 2.89797e+06 2.24536e+06 0 2.89426e+06 2.22561e+06 0 2.8905e+06 2.20611e+06 0 2.88669e+06 2.18684e+06 0 2.88285e+06 2.16781e+06 0 2.87896e+06 2.14902e+06 0 2.87504e+06 2.13045e+06 0 2.8711e+06 2.11211e+06 0 919997 4.83829e+06 0 947898 4.84812e+06 0 976817 4.8573e+06 0 1.00673e+06 4.86575e+06 0 1.03759e+06 4.8734e+06 0 1.06937e+06 4.88017e+06 0 1.10201e+06 4.886e+06 0 1.13545e+06 4.89083e+06 0 1.16963e+06 4.8946e+06 0 1.2045e+06 4.89727e+06 0 1.23997e+06 4.8988e+06 0 1.27597e+06 4.89916e+06 0 1.31245e+06 4.89832e+06 0 1.34932e+06 4.89626e+06 0 1.38651e+06 4.89297e+06 0 1.42395e+06 4.88843e+06 0 1.46158e+06 4.88265e+06 0 1.49932e+06 4.87564e+06 0 1.53712e+06 4.867