<?xml version="1.0"?> 
<VTKFile type="StructuredGrid" version="0.1"> 
<StructuredGrid WholeExtent="0 127 0 127 0 0"> 
<Piece Extent="0 127 0 127 0 0"> 
<PointData>
<DataArray type="Float32" Name="|E|" format="ascii" NumberOfComponents="3"> 
-3.75204e+06 1.01058e+06 0 -3.75745e+06 1.00545e+06 0 -3.76289e+06 1.00029e+06 0 -3.76835e+06 995100 0 -3.77385e+06 989877 0 -3.77936e+06 984621 0 -3.78491e+06 979332 0 -3.79048e+06 974009 0 -3.79608e+06 968651 0 -3.80171e+06 963259 0 -3.80737e+06 957833 0 -3.81306e+06 952372 0 -3.81877e+06 946876 0 -3.82452e+06 941345 0 -3.83029e+06 935778 0 -3.83609e+06 930176 0 -3.84192e+06 924537 0 -3.84779e+06 918862 0 -3.85368e+06 913151 0 -3.8596e+06 907403 0 -3.86556e+06 901619 0 -3.87154e+06 895797 0 -3.87756e+06 889937 0 -3.8836e+06 884040 0 -3.88968e+06 878105 0 -3.89579e+06 872131 0 -3.90194e+06 866119 0 -3.90811e+06 860068 0 -3.91432e+06 853978 0 -3.92056e+06 847849 0 -3.92683e+06 841680 0 -3.93314e+06 835471 0 -3.93948e+06 829222 0 -3.94585e+06 822933 0 -3.95226e+06 816603 0 -3.9587e+06 810232 0 -3.96518e+06 803819 0 -3.97169e+06 797365 0 -3.97824e+06 790869 0 -3.98482e+06 784331 0 -3.99144e+06 777751 0 -3.9981e+06 771127 0 -4.00479e+06 764461 0 -4.01152e+06 757751 0 -4.01828e+06 750997 0 -4.02508e+06 744199 0 -4.03192e+06 737357 0 -4.0388e+06 730471 0 -4.04571e+06 723539 0 -4.05267e+06 716562 0 -4.05966e+06 709539 0 -4.06669e+06 702471 0 -4.07376e+06 695356 0 -4.08087e+06 688194 0 -4.08802e+06 680986 0 -4.09521e+06 673730 0 -4.10244e+06 666426 0 -4.10971e+06 659075 0 -4.11702e+06 651675 0 -4.12438e+06 644226 0 -4.13177e+06 636728 0 -4.13921e+06 629181 0 -4.14669e+06 621584 0 -4.15421e+06 613937 0 -4.16178e+06 606239 0 -4.16939e+06 598490 0 -4.17704e+06 590690 0 -4.18474e+06 582838 0 -4.19249e+06 574934 0 -4.20027e+06 566977 0 -4.20811e+06 558968 0 -4.21599e+06 550905 0 -4.22391e+06 542789 0 -4.23188e+06 534619 0 -4.2399e+06 526394 0 -4.24797e+06 518114 0 -4.25608e+06 509779 0 -4.26424e+06 501388 0 -4.27245e+06 492940 0 -4.28071e+06 484436 0 -4.28902e+06 475876 0 -4.29737e+06 467257 0 -4.30578e+06 458581 0 -4.31424e+06 449846 0 -4.32275e+06 441052 0 -4.33131e+06 432199 0 -4.33992e+06 423287 0 -4.34859e+06 414314 0 -4.3573e+06 405280 0 -4.36607e+06 396185 0 -4.3749e+06 387029 0 -4.38377e+06 377810 0 -4.39271e+06 368528 0 -4.40169e+06 359184 0 -4.41073e+06 349776 0 -4.41983e+06 340303 0 -4.42899e+06 330766 0 -4.4382e+06 321164 0 -4.44747e+06 311496 0 -4.45679e+06 301762 0 -4.46618e+06 291961 0 -4.47562e+06 282093 0 -4.48512e+06 272157 0 -4.49468e+06 262153 0 -4.50431e+06 252080 0 -4.51399e+06 241937 0 -4.52373e+06 231724 0 -4.53354e+06 221440 0 -4.54341e+06 211085 0 -4.55334e+06 200659 0 -4.56334e+06 190160 0 -4.5734e+06 179588 0 -4.58352e+06 168942 0 -4.59371e+06 158223 0 -4.60397e+06 147428 0 -4.61429e+06 136558 0 -4.62468e+06 125612 0 -4.63514e+06 114589 0 -4.64566e+06 103489 0 -4.65626e+06 92311.2 0 -4.66692e+06 81054.6 0 -4.67765e+06 69718.6 0 -4.68846e+06 58302.7 0 -4.69933e+06 46806.2 0 -4.71028e+06 35228.3 0 -4.7213e+06 23568.5 0 -4.73239e+06 11825.9 0 -4.74356e+06 -1.90735e-06 0 -3.77509e+06 1.03555e+06 0 -3.78063e+06 1.03058e+06 0 -3.7862e+06 1.02558e+06 0 -3.79179e+06 1.02054e+06 0 -3.79741e+06 1.01548e+06 0 -3.80307e+06 1.01038e+06 0 -3.80875e+06 1.00524e+06 0 -3.81446e+06 1.00008e+06 0 -3.82019e+06 994879 0 -3.82596e+06 989647 0 -3.83176e+06 984382 0 -3.83759e+06 979083 0 -3.84345e+06 973750 0 -3.84933e+06 968382 0 -3.85525e+06 962980 0 -3.8612e+06 957544 0 -3.86718e+06 952072 0 -3.8732e+06 946565 0 -3.87924e+06 941023 0 -3.88532e+06 935445 0 -3.89143e+06 929830 0 -3.89757e+06 924180 0 -3.90374e+06 918493 0 -3.90995e+06 912770 0 -3.91618e+06 907010 0 -3.92246e+06 901212 0 -3.92876e+06 895377 0 -3.9351e+06 889504 0 -3.94148e+06 883593 0 -3.94789e+06 877643 0 -3.95433e+06 871656 0 -3.96081e+06 865629 0 -3.96732e+06 859563 0 -3.97387e+06 853458 0 -3.98045e+06 847313 0 -3.98708e+06 841129 0 -3.99373e+06 834904 0 -4.00043e+06 828638 0 -4.00716e+06 822332 0 -4.01393e+06 815984 0 -4.02073e+06 809596 0 -4.02757e+06 803165 0 -4.03446e+06 796693 0 -4.04138e+06 790178 0 -4.04834e+06 783621 0 -4.05533e+06 777021 0 -4.06237e+06 770377 0 -4.06945e+06 763690 0 -4.07657e+06 756959 0 -4.08372e+06 750185 0 -4.09092e+06 743365 0 -4.09816e+06 736501 0 -4.10544e+06 729592 0 -4.11276e+06 722637 0 -4.12013e+06 715636 0 -4.12753e+06 708590 0 -4.13498e+06 701496 0 -4.14247e+06 694356 0 -4.15001e+06 687169 0 -4.15759e+06 679934 0 -4.16521e+06 672652 0 -4.17288e+06 665321 0 -4.18059e+06 657942 0 -4.18835e+06 650513 0 -4.19615e+06 643036 0 -4.204e+06 635508 0 -4.2119e+06 627931 0 -4.21984e+06 620303 0 -4.22783e+06 612625 0 -4.23587e+06 604895 0 -4.24395e+06 597113 0 -4.25209e+06 589280 0 -4.26027e+06 581394 0 -4.2685e+06 573456 0 -4.27678e+06 565464 0 -4.28511e+06 557419 0 -4.29349e+06 549319 0 -4.30192e+06 541165 0 -4.31041e+06 532957 0 -4.31894e+06 524693 0 -4.32753e+06 516373 0 -4.33617e+06 507998 0 -4.34486e+06 499566 0 -4.3536e+06 491076 0 -4.3624e+06 482530 0 -4.37126e+06 473925 0 -4.38016e+06 465262 0 -4.38913e+06 456540 0 -4.39815e+06 447759 0 -4.40722e+06 438919 0 -4.41635e+06 430018 0 -4.42554e+06 421056 0 -4.43479e+06 412033 0 -4.4441e+06 402949 0 -4.45346e+06 393802 0 -4.46288e+06 384593 0 -4.47237e+06 375321 0 -4.48191e+06 365985 0 -4.49152e+06 356584 0 -4.50118e+06 347120 0 -4.51091e+06 337589 0 -4.5207e+06 327994 0 -4.53055e+06 318331 0 -4.54047e+06 308603 0 -4.55045e+06 298806 0 -4.56049e+06 288942 0 -4.5706e+06 279010 0 -4.58078e+06 269008 0 -4.59102e+06 258937 0 -4.60133e+06 248795 0 -4.61171e+06 238583 0 -4.62216e+06 228300 0 -4.63267e+06 217945 0 -4.64325e+06 207517 0 -4.65391e+06 197016 0 -4.66463e+06 186441 0 -4.67543e+06 175792 0 -4.6863e+06 165068 0 -4.69724e+06 154269 0 -4.70825e+06 143393 0 -4.71934e+06 132441 0 -4.73051e+06 121411 0 -4.74175e+06 110302 0 -4.75306e+06 99115.5 0 -4.76445e+06 87849 0 -4.77592e+06 76502.3 0 -4.78747e+06 65074.8 0 -4.7991e+06 53565.7 0 -3.79756e+06 1.06119e+06 0 -3.80323e+06 1.05637e+06 0 -3.80892e+06 1.05153e+06 0 -3.81465e+06 1.04665e+06 0 -3.8204e+06 1.04174e+06 0 -3.82618e+06 1.0368e+06 0 -3.83199e+06 1.03183e+06 0 -3.83784e+06 1.02682e+06 0 -3.84371e+06 1.02178e+06 0 -3.84962e+06 1.01671e+06 0 -3.85555e+06 1.01161e+06 0 -3.86152e+06 1.00648e+06 0 -3.86752e+06 1.00131e+06 0 -3.87355e+06 996109 0 -3.87961e+06 990874 0 -3.88571e+06 985606 0 -3.89183e+06 980303 0 -3.89799e+06 974967 0 -3.90419e+06 969596 0 -3.91041e+06 964190 0 -3.91667e+06 958750 0 -3.92297e+06 953274 0 -3.92929e+06 947763 0 -3.93566e+06 942216 0 -3.94205e+06 936634 0 -3.94849e+06 931015 0 -3.95495e+06 925359 0 -3.96146e+06 919667 0 -3.96799e+06 913938 0 -3.97457e+06 908172 0 -3.98118e+06 902369 0 -3.98783e+06 896527 0 -3.99451e+06 890648 0 -4.00123e+06 884731 0 -4.00799e+06 878774 0 -4.01479e+06 872779 0 -4.02162e+06 866745 0 -4.02849e+06 860672 0 -4.03541e+06 854559 0 -4.04236e+06 848406 0 -4.04935e+06 842213 0 -4.05638e+06 835979 0 -4.06345e+06 829705 0 -4.07056e+06 823389 0 -4.07771e+06 817032 0 -4.0849e+06 810634 0 -4.09213e+06 804193 0 -4.09941e+06 797710 0 -4.10672e+06 791184 0 -4.11408e+06 784616 0 -4.12148e+06 778004 0 -4.12893e+06 771348 0 -4.13642e+06 764649 0 -4.14395e+06 757906 0 -4.15153e+06 751118 0 -4.15915e+06 744285 0 -4.16681e+06 737407 0 -4.17452e+06 730483 0 -4.18228e+06 723514 0 -4.19008e+06 716498 0 -4.19793e+06 709436 0 -4.20582e+06 702327 0 -4.21377e+06 695171 0 -4.22176e+06 687967 0 -4.22979e+06 680715 0 -4.23788e+06 673415 0 -4.24602e+06 666066 0 -4.2542e+06 658668 0 -4.26243e+06 651220 0 -4.27072e+06 643723 0 -4.27905e+06 636175 0 -4.28744e+06 628577 0 -4.29587e+06 620928 0 -4.30436e+06 613228 0 -4.3129e+06 605476 0 -4.32149e+06 597672 0 -4.33014e+06 589815 0 -4.33884e+06 581905 0 -4.34759e+06 573942 0 -4.3564e+06 565925 0 -4.36526e+06 557854 0 -4.37418e+06 549728 0 -4.38315e+06 541547 0 -4.39218e+06 533311 0 -4.40127e+06 525019 0 -4.41042e+06 516670 0 -4.41962e+06 508265 0 -4.42888e+06 499802 0 -4.4382e+06 491282 0 -4.44758e+06 482704 0 -4.45702e+06 474067 0 -4.46652e+06 465371 0 -4.47608e+06 456615 0 -4.4857e+06 447799 0 -4.49538e+06 438923 0 -4.50513e+06 429986 0 -4.51494e+06 420987 0 -4.52482e+06 411927 0 -4.53475e+06 402803 0 -4.54476e+06 393617 0 -4.55483e+06 384368 0 -4.56496e+06 375054 0 -4.57516e+06 365676 0 -4.58543e+06 356233 0 -4.59577e+06 346724 0 -4.60617e+06 337149 0 -4.61665e+06 327508 0 -4.62719e+06 317799 0 -4.63781e+06 308022 0 -4.64849e+06 298177 0 -4.65925e+06 288264 0 -4.67008e+06 278280 0 -4.68098e+06 268227 0 -4.69196e+06 258103 0 -4.70301e+06 247908 0 -4.71414e+06 237641 0 -4.72534e+06 227302 0 -4.73662e+06 216890 0 -4.74797e+06 206404 0 -4.75941e+06 195844 0 -4.77092e+06 185209 0 -4.78251e+06 174498 0 -4.79419e+06 163712 0 -4.80594e+06 152848 0 -4.81778e+06 141907 0 -4.82969e+06 130888 0 -4.8417e+06 119791 0 -4.85378e+06 108613 0 -3.81944e+06 1.08747e+06 0 -3.82523e+06 1.08281e+06 0 -3.83105e+06 1.07812e+06 0 -3.8369e+06 1.0734e+06 0 -3.84278e+06 1.06865e+06 0 -3.84869e+06 1.06387e+06 0 -3.85463e+06 1.05906e+06 0 -3.86061e+06 1.05422e+06 0 -3.86662e+06 1.04934e+06 0 -3.87266e+06 1.04444e+06 0 -3.87873e+06 1.0395e+06 0 -3.88483e+06 1.03454e+06 0 -3.89097e+06 1.02954e+06 0 -3.89714e+06 1.0245e+06 0 -3.90334e+06 1.01944e+06 0 -3.90958e+06 1.01434e+06 0 -3.91585e+06 1.00921e+06 0 -3.92215e+06 1.00405e+06 0 -3.92849e+06 998850 0 -3.93487e+06 993620 0 -3.94128e+06 988356 0 -3.94772e+06 983057 0 -3.9542e+06 977725 0 -3.96072e+06 972357 0 -3.96727e+06 966955 0 -3.97386e+06 961518 0 -3.98049e+06 956046 0 -3.98715e+06 950538 0 -3.99385e+06 944994 0 -4.00058e+06 939414 0 -4.00736e+06 933798 0 -4.01417e+06 928145 0 -4.02103e+06 922456 0 -4.02792e+06 916729 0 -4.03485e+06 910965 0 -4.04182e+06 905163 0 -4.04883e+06 899324 0 -4.05588e+06 893446 0 -4.06297e+06 887530 0 -4.0701e+06 881575 0 -4.07727e+06 875581 0 -4.08448e+06 869548 0 -4.09174e+06 863476 0 -4.09903e+06 857363 0 -4.10637e+06 851210 0 -4.11376e+06 845017 0 -4.12118e+06 838783 0 -4.12865e+06 832508 0 -4.13617e+06 826192 0 -4.14373e+06 819834 0 -4.15133e+06 813435 0 -4.15898e+06 806993 0 -4.16667e+06 800508 0 -4.17441e+06 793980 0 -4.18219e+06 787410 0 -4.19003e+06 780796 0 -4.1979e+06 774138 0 -4.20583e+06 767435 0 -4.21381e+06 760689 0 -4.22183e+06 753897 0 -4.2299e+06 747061 0 -4.23802e+06 740178 0 -4.24619e+06 733250 0 -4.25441e+06 726276 0 -4.26268e+06 719256 0 -4.271e+06 712188 0 -4.27937e+06 705073 0 -4.28779e+06 697911 0 -4.29627e+06 690700 0 -4.3048e+06 683441 0 -4.31338e+06 676134 0 -4.32201e+06 668778 0 -4.3307e+06 661372 0 -4.33944e+06 653916 0 -4.34824e+06 646410 0 -4.35709e+06 638853 0 -4.366e+06 631246 0 -4.37496e+06 623587 0 -4.38398e+06 615876 0 -4.39306e+06 608113 0 -4.4022e+06 600297 0 -4.41139e+06 592429 0 -4.42065e+06 584507 0 -4.42996e+06 576531 0 -4.43933e+06 568501 0 -4.44877e+06 560416 0 -4.45826e+06 552277 0 -4.46782e+06 544081 0 -4.47743e+06 535830 0 -4.48712e+06 527522 0 -4.49686e+06 519157 0 -4.50667e+06 510735 0 -4.51654e+06 502255 0 -4.52647e+06 493717 0 -4.53648e+06 485121 0 -4.54654e+06 476465 0 -4.55668e+06 467749 0 -4.56688e+06 458973 0 -4.57715e+06 450137 0 -4.58749e+06 441239 0 -4.5979e+06 432280 0 -4.60838e+06 423259 0 -4.61892e+06 414175 0 -4.62954e+06 405028 0 -4.64023e+06 395817 0 -4.651e+06 386542 0 -4.66183e+06 377203 0 -4.67274e+06 367798 0 -4.68373e+06 358327 0 -4.69479e+06 348790 0 -4.70592e+06 339187 0 -4.71714e+06 329515 0 -4.72843e+06 319776 0 -4.7398e+06 309969 0 -4.75124e+06 300092 0 -4.76277e+06 290145 0 -4.77438e+06 280129 0 -4.78606e+06 270041 0 -4.79783e+06 259882 0 -4.80969e+06 249651 0 -4.82162e+06 239347 0 -4.83364e+06 228970 0 -4.84575e+06 218519 0 -4.85794e+06 207994 0 -4.87022e+06 197394 0 -4.88258e+06 186717 0 -4.89504e+06 175964 0 -4.90758e+06 165135 0 -3.8407e+06 1.11436e+06 0 -3.84661e+06 1.10986e+06 0 -3.85256e+06 1.10533e+06 0 -3.85853e+06 1.10078e+06 0 -3.86454e+06 1.09619e+06 0 -3.87058e+06 1.09157e+06 0 -3.87665e+06 1.08692e+06 0 -3.88275e+06 1.08225e+06 0 -3.88889e+06 1.07754e+06 0 -3.89506e+06 1.0728e+06 0 -3.90127e+06 1.06803e+06 0 -3.9075e+06 1.06324e+06 0 -3.91378e+06 1.05841e+06 0 -3.92008e+06 1.05354e+06 0 -3.92643e+06 1.04865e+06 0 -3.9328e+06 1.04373e+06 0 -3.93921e+06 1.03877e+06 0 -3.94566e+06 1.03378e+06 0 -3.95215e+06 1.02876e+06 0 -3.95867e+06 1.02371e+06 0 -3.96522e+06 1.01863e+06 0 -3.97181e+06 1.01351e+06 0 -3.97844e+06 1.00836e+06 0 -3.98511e+06 1.00317e+06 0 -3.99182e+06 997954 0 -3.99856e+06 992701 0 -4.00534e+06 987415 0 -4.01216e+06 982094 0 -4.01902e+06 976738 0 -4.02592e+06 971348 0 -4.03285e+06 965922 0 -4.03983e+06 960462 0 -4.04685e+06 954965 0 -4.05391e+06 949433 0 -4.06101e+06 943864 0 -4.06815e+06 938259 0 -4.07533e+06 932618 0 -4.08255e+06 926939 0 -4.08982e+06 921224 0 -4.09712e+06 915471 0 -4.10448e+06 909680 0 -4.11187e+06 903851 0 -4.11931e+06 897984 0 -4.12679e+06 892078 0 -4.13432e+06 886134 0 -4.14189e+06 880150 0 -4.1495e+06 874128 0 -4.15717e+06 868065 0 -4.16488e+06 861962 0 -4.17263e+06 855820 0 -4.18043e+06 849636 0 -4.18828e+06 843412 0 -4.19617e+06 837147 0 -4.20412e+06 830840 0 -4.21211e+06 824491 0 -4.22015e+06 818100 0 -4.22824e+06 811667 0 -4.23638e+06 805191 0 -4.24457e+06 798672 0 -4.25281e+06 792110 0 -4.2611e+06 785504 0 -4.26944e+06 778854 0 -4.27784e+06 772160 0 -4.28628e+06 765421 0 -4.29478e+06 758637 0 -4.30333e+06 751808 0 -4.31194e+06 744933 0 -4.3206e+06 738012 0 -4.32931e+06 731044 0 -4.33808e+06 724030 0 -4.34691e+06 716969 0 -4.35579e+06 709860 0 -4.36472e+06 702704 0 -4.37372e+06 695499 0 -4.38277e+06 688246 0 -4.39188e+06 680943 0 -4.40105e+06 673592 0 -4.41027e+06 666190 0 -4.41956e+06 658739 0 -4.42891e+06 651237 0 -4.43831e+06 643685 0 -4.44778e+06 636081 0 -4.45731e+06 628425 0 -4.46691e+06 620717 0 -4.47656e+06 612957 0 -4.48628e+06 605144 0 -4.49607e+06 597278 0 -4.50591e+06 589358 0 -4.51583e+06 581383 0 -4.52581e+06 573355 0 -4.53585e+06 565271 0 -4.54596e+06 557132 0 -4.55614e+06 548937 0 -4.56639e+06 540685 0 -4.57671e+06 532377 0 -4.5871e+06 524011 0 -4.59755e+06 515588 0 -4.60808e+06 507107 0 -4.61868e+06 498567 0 -4.62935e+06 489968 0 -4.6401e+06 481309 0 -4.65092e+06 472590 0 -4.66181e+06 463811 0 -4.67278e+06 454971 0 -4.68382e+06 446069 0 -4.69494e+06 437105 0 -4.70613e+06 428079 0 -4.71741e+06 418989 0 -4.72876e+06 409836 0 -4.74019e+06 400619 0 -4.75171e+06 391337 0 -4.7633e+06 381990 0 -4.77497e+06 372577 0 -4.78673e+06 363099 0 -4.79857e+06 353553 0 -4.8105e+06 343940 0 -4.82251e+06 334259 0 -4.8346e+06 324509 0 -4.84678e+06 314691 0 -4.85905e+06 304803 0 -4.87141e+06 294844 0 -4.88386e+06 284815 0 -4.89639e+06 274715 0 -4.90902e+06 264542 0 -4.92174e+06 254297 0 -4.93455e+06 243978 0 -4.94746e+06 233586 0 -4.96046e+06 223119 0 -3.86134e+06 1.14186e+06 0 -3.86737e+06 1.13752e+06 0 -3.87343e+06 1.13315e+06 0 -3.87953e+06 1.12876e+06 0 -3.88566e+06 1.12433e+06 0 -3.89182e+06 1.11988e+06 0 -3.89802e+06 1.1154e+06 0 -3.90425e+06 1.11089e+06 0 -3.91051e+06 1.10635e+06 0 -3.91681e+06 1.10178e+06 0 -3.92315e+06 1.09718e+06 0 -3.92952e+06 1.09256e+06 0 -3.93593e+06 1.0879e+06 0 -3.94237e+06 1.08321e+06 0 -3.94884e+06 1.07849e+06 0 -3.95536e+06 1.07375e+06 0 -3.96191e+06 1.06897e+06 0 -3.9685e+06 1.06416e+06 0 -3.97512e+06 1.05932e+06 0 -3.98178e+06 1.05445e+06 0 -3.98848e+06 1.04954e+06 0 -3.99522e+06 1.04461e+06 0 -4.002e+06 1.03964e+06 0 -4.00882e+06 1.03464e+06 0 -4.01567e+06 1.02961e+06 0 -4.02257e+06 1.02454e+06 0 -4.0295e+06 1.01944e+06 0 -4.03647e+06 1.01431e+06 0 -4.04349e+06 1.00915e+06 0 -4.05055e+06 1.00395e+06 0 -4.05764e+06 998720 0 -4.06478e+06 993454 0 -4.07196e+06 988154 0 -4.07918e+06 982819 0 -4.08645e+06 977450 0 -4.09376e+06 972045 0 -4.10111e+06 966605 0 -4.1085e+06 961129 0 -4.11594e+06 955618 0 -4.12342e+06 950070 0 -4.13095e+06 944486 0 -4.13852e+06 938865 0 -4.14614e+06 933208 0 -4.1538e+06 927513 0 -4.16152e+06 921781 0 -4.16927e+06 916011 0 -4.17708e+06 910203 0 -4.18493e+06 904357 0 -4.19283e+06 898473 0 -4.20078e+06 892549 0 -4.20877e+06 886587 0 -4.21682e+06 880585 0 -4.22491e+06 874543 0 -4.23306e+06 868461 0 -4.24125e+06 862340 0 -4.2495e+06 856177 0 -4.2578e+06 849974 0 -4.26615e+06 843729 0 -4.27455e+06 837443 0 -4.283e+06 831115 0 -4.29151e+06 824745 0 -4.30007e+06 818333 0 -4.30869e+06 811878 0 -4.31736e+06 805380 0 -4.32608e+06 798838 0 -4.33486e+06 792253 0 -4.3437e+06 785623 0 -4.35259e+06 778950 0 -4.36154e+06 772231 0 -4.37055e+06 765468 0 -4.37962e+06 758659 0 -4.38874e+06 751804 0 -4.39792e+06 744903 0 -4.40717e+06 737956 0 -4.41647e+06 730962 0 -4.42583e+06 723921 0 -4.43526e+06 716832 0 -4.44475e+06 709695 0 -4.4543e+06 702511 0 -4.46391e+06 695277 0 -4.47358e+06 687994 0 -4.48332e+06 680663 0 -4.49313e+06 673281 0 -4.503e+06 665849 0 -4.51294e+06 658367 0 -4.52294e+06 650833 0 -4.53301e+06 643248 0 -4.54315e+06 635612 0 -4.55335e+06 627923 0 -4.56363e+06 620182 0 -4.57397e+06 612388 0 -4.58439e+06 604540 0 -4.59487e+06 596639 0 -4.60543e+06 588683 0 -4.61606e+06 580673 0 -4.62676e+06 572607 0 -4.63754e+06 564486 0 -4.64839e+06 556309 0 -4.65932e+06 548075 0 -4.67032e+06 539785 0 -4.6814e+06 531437 0 -4.69255e+06 523031 0 -4.70379e+06 514567 0 -4.7151e+06 506044 0 -4.72649e+06 497462 0 -4.73797e+06 488821 0 -4.74952e+06 480119 0 -4.76116e+06 471356 0 -4.77288e+06 462532 0 -4.78468e+06 453647 0 -4.79656e+06 444699 0 -4.80854e+06 435689 0 -4.82059e+06 426615 0 -4.83274e+06 417478 0 -4.84497e+06 408276 0 -4.85729e+06 399010 0 -4.8697e+06 389678 0 -4.8822e+06 380280 0 -4.89479e+06 370816 0 -4.90748e+06 361285 0 -4.92025e+06 351686 0 -4.93312e+06 342020 0 -4.94609e+06 332284 0 -4.95915e+06 322480 0 -4.97231e+06 312605 0 -4.98557e+06 302661 0 -4.99892e+06 292645 0 -5.01238e+06 282557 0 -3.88132e+06 1.16993e+06 0 -3.88747e+06 1.16575e+06 0 -3.89365e+06 1.16155e+06 0 -3.89987e+06 1.15732e+06 0 -3.90612e+06 1.15306e+06 0 -3.9124e+06 1.14877e+06 0 -3.91872e+06 1.14446e+06 0 -3.92508e+06 1.14012e+06 0 -3.93147e+06 1.13575e+06 0 -3.9379e+06 1.13135e+06 0 -3.94436e+06 1.12693e+06 0 -3.95086e+06 1.12248e+06 0 -3.9574e+06 1.11799e+06 0 -3.96397e+06 1.11348e+06 0 -3.97058e+06 1.10894e+06 0 -3.97723e+06 1.10437e+06 0 -3.98392e+06 1.09977e+06 0 -3.99064e+06 1.09514e+06 0 -3.99741e+06 1.09049e+06 0 -4.00421e+06 1.0858e+06 0 -4.01105e+06 1.08108e+06 0 -4.01793e+06 1.07633e+06 0 -4.02485e+06 1.07155e+06 0 -4.03182e+06 1.06674e+06 0 -4.03882e+06 1.06189e+06 0 -4.04586e+06 1.05702e+06 0 -4.05295e+06 1.05211e+06 0 -4.06007e+06 1.04717e+06 0 -4.06724e+06 1.0422e+06 0 -4.07445e+06 1.0372e+06 0 -4.08171e+06 1.03217e+06 0 -4.089e+06 1.0271e+06 0 -4.09634e+06 1.022e+06 0 -4.10373e+06 1.01687e+06 0 -4.11115e+06 1.0117e+06 0 -4.11863e+06 1.0065e+06 0 -4.12614e+06 1.00126e+06 0 -4.13371e+06 995993 0 -4.14132e+06 990689 0 -4.14897e+06 985351 0 -4.15667e+06 979977 0 -4.16442e+06 974569 0 -4.17222e+06 969125 0 -4.18006e+06 963645 0 -4.18795e+06 958129 0 -4.19589e+06 952577 0 -4.20388e+06 946988 0 -4.21192e+06 941363 0 -4.22001e+06 935700 0 -4.22814e+06 930001 0 -4.23633e+06 924263 0 -4.24457e+06 918488 0 -4.25287e+06 912675 0 -4.26121e+06 906823 0 -4.26961e+06 900933 0 -4.27806e+06 895003 0 -4.28656e+06 889035 0 -4.29512e+06 883026 0 -4.30373e+06 876978 0 -4.31239e+06 870890 0 -4.32111e+06 864761 0 -4.32989e+06 858592 0 -4.33873e+06 852381 0 -4.34762e+06 846129 0 -4.35657e+06 839836 0 -4.36557e+06 833500 0 -4.37464e+06 827122 0 -4.38376e+06 820701 0 -4.39294e+06 814238 0 -4.40219e+06 807731 0 -4.41149e+06 801181 0 -4.42085e+06 794587 0 -4.43028e+06 787948 0 -4.43977e+06 781265 0 -4.44932e+06 774537 0 -4.45894e+06 767764 0 -4.46862e+06 760945 0 -4.47836e+06 754080 0 -4.48817e+06 747169 0 -4.49804e+06 740211 0 -4.50799e+06 733206 0 -4.51799e+06 726153 0 -4.52807e+06 719053 0 -4.53821e+06 711905 0 -4.54843e+06 704708 0 -4.55871e+06 697462 0 -4.56906e+06 690167 0 -4.57949e+06 682823 0 -4.58998e+06 675428 0 -4.60055e+06 667983 0 -4.61119e+06 660487 0 -4.62191e+06 652940 0 -4.6327e+06 645342 0 -4.64356e+06 637691 0 -4.6545e+06 629988 0 -4.66552e+06 622232 0 -4.67661e+06 614422 0 -4.68778e+06 606559 0 -4.69903e+06 598642 0 -4.71036e+06 590671 0 -4.72177e+06 582644 0 -4.73326e+06 574562 0 -4.74484e+06 566424 0 -4.75649e+06 558230 0 -4.76823e+06 549979 0 -4.78006e+06 541671 0 -4.79197e+06 533305 0 -4.80396e+06 524881 0 -4.81604e+06 516398 0 -4.82821e+06 507857 0 -4.84047e+06 499255 0 -4.85282e+06 490594 0 -4.86525e+06 481872 0 -4.87778e+06 473090 0 -4.8904e+06 464245 0 -4.90312e+06 455339 0 -4.91593e+06 446370 0 -4.92883e+06 437338 0 -4.94183e+06 428243 0 -4.95492e+06 419083 0 -4.96812e+06 409859 0 -4.98141e+06 400570 0 -4.9948e+06 391215 0 -5.0083e+06 381794 0 -5.02189e+06 372306 0 -5.03559e+06 362751 0 -5.0494e+06 353128 0 -5.0633e+06 343437 0 -3.90065e+06 1.19855e+06 0 -3.90691e+06 1.19454e+06 0 -3.91321e+06 1.1905e+06 0 -3.91954e+06 1.18644e+06 0 -3.92591e+06 1.18235e+06 0 -3.93231e+06 1.17823e+06 0 -3.93875e+06 1.17409e+06 0 -3.94523e+06 1.16992e+06 0 -3.95175e+06 1.16572e+06 0 -3.9583e+06 1.1615e+06 0 -3.96489e+06 1.15725e+06 0 -3.97151e+06 1.15297e+06 0 -3.97818e+06 1.14867e+06 0 -3.98488e+06 1.14433e+06 0 -3.99162e+06 1.13997e+06 0 -3.9984e+06 1.13558e+06 0 -4.00522e+06 1.13117e+06 0 -4.01208e+06 1.12672e+06 0 -4.01898e+06 1.12225e+06 0 -4.02592e+06 1.11774e+06 0 -4.0329e+06 1.11321e+06 0 -4.03993e+06 1.10865e+06 0 -4.04699e+06 1.10406e+06 0 -4.05409e+06 1.09944e+06 0 -4.06124e+06 1.09479e+06 0 -4.06843e+06 1.09011e+06 0 -4.07566e+06 1.0854e+06 0 -4.08294e+06 1.08065e+06 0 -4.09026e+06 1.07588e+06 0 -4.09762e+06 1.07108e+06 0 -4.10503e+06 1.06624e+06 0 -4.11248e+06 1.06138e+06 0 -4.11998e+06 1.05648e+06 0 -4.12752e+06 1.05155e+06 0 -4.13511e+06 1.04659e+06 0 -4.14274e+06 1.04159e+06 0 -4.15043e+06 1.03657e+06 0 -4.15815e+06 1.03151e+06 0 -4.16593e+06 1.02641e+06 0 -4.17375e+06 1.02129e+06 0 -4.18163e+06 1.01613e+06 0 -4.18955e+06 1.01094e+06 0 -4.19752e+06 1.00571e+06 0 -4.20554e+06 1.00045e+06 0 -4.21361e+06 995154 0 -4.22173e+06 989823 0 -4.2299e+06 984458 0 -4.23812e+06 979058 0 -4.24639e+06 973622 0 -4.25472e+06 968150 0 -4.2631e+06 962643 0 -4.27153e+06 957099 0 -4.28001e+06 951518 0 -4.28855e+06 945901 0 -4.29715e+06 940247 0 -4.3058e+06 934555 0 -4.3145e+06 928826 0 -4.32326e+06 923059 0 -4.33208e+06 917254 0 -4.34096e+06 911411 0 -4.34989e+06 905528 0 -4.35888e+06 899607 0 -4.36793e+06 893647 0 -4.37704e+06 887647 0 -4.38621e+06 881607 0 -4.39544e+06 875526 0 -4.40473e+06 869406 0 -4.41408e+06 863244 0 -4.42349e+06 857042 0 -4.43297e+06 850798 0 -4.4425e+06 844513 0 -4.45211e+06 838185 0 -4.46177e+06 831816 0 -4.4715e+06 825403 0 -4.4813e+06 818948 0 -4.49117e+06 812449 0 -4.5011e+06 805907 0 -4.51109e+06 799321 0 -4.52116e+06 792691 0 -4.53129e+06 786016 0 -4.5415e+06 779296 0 -4.55177e+06 772530 0 -4.56211e+06 765720 0 -4.57253e+06 758863 0 -4.58302e+06 751960 0 -4.59358e+06 745010 0 -4.60421e+06 738013 0 -4.61492e+06 730969 0 -4.6257e+06 723877 0 -4.63656e+06 716737 0 -4.64749e+06 709548 0 -4.6585e+06 702311 0 -4.66959e+06 695024 0 -4.68076e+06 687687 0 -4.69201e+06 680301 0 -4.70333e+06 672864 0 -4.71474e+06 665377 0 -4.72623e+06 657838 0 -4.7378e+06 650248 0 -4.74946e+06 642605 0 -4.76119e+06 634910 0 -4.77302e+06 627163 0 -4.78493e+06 619362 0 -4.79692e+06 611507 0 -4.80901e+06 603599 0 -4.82118e+06 595636 0 -4.83344e+06 587618 0 -4.84579e+06 579544 0 -4.85823e+06 571415 0 -4.87076e+06 563230 0 -4.88339e+06 554988 0 -4.89611e+06 546689 0 -4.90893e+06 538332 0 -4.92184e+06 529917 0 -4.93484e+06 521443 0 -4.94795e+06 512911 0 -4.96115e+06 504319 0 -4.97445e+06 495667 0 -4.98786e+06 486955 0 -5.00136e+06 478182 0 -5.01497e+06 469347 0 -5.02868e+06 460451 0 -5.0425e+06 451492 0 -5.05642e+06 442470 0 -5.07046e+06 433385 0 -5.08459e+06 424236 0 -5.09884e+06 415023 0 -5.1132e+06 405744 0 -3.91929e+06 1.2277e+06 0 -3.92567e+06 1.22385e+06 0 -3.93208e+06 1.21998e+06 0 -3.93853e+06 1.21609e+06 0 -3.94501e+06 1.21217e+06 0 -3.95153e+06 1.20822e+06 0 -3.95809e+06 1.20425e+06 0 -3.96469e+06 1.20026e+06 0 -3.97132e+06 1.19624e+06 0 -3.97799e+06 1.19219e+06 0 -3.98471e+06 1.18812e+06 0 -3.99146e+06 1.18402e+06 0 -3.99825e+06 1.17989e+06 0 -4.00508e+06 1.17574e+06 0 -4.01195e+06 1.17156e+06 0 -4.01886e+06 1.16736e+06 0 -4.02581e+06 1.16312e+06 0 -4.0328e+06 1.15886e+06 0 -4.03983e+06 1.15458e+06 0 -4.04691e+06 1.15026e+06 0 -4.05403e+06 1.14592e+06 0 -4.06119e+06 1.14155e+06 0 -4.06839e+06 1.13715e+06 0 -4.07563e+06 1.13272e+06 0 -4.08292e+06 1.12827e+06 0 -4.09026e+06 1.12378e+06 0 -4.09763e+06 1.11927e+06 0 -4.10506e+06 1.11473e+06 0 -4.11252e+06 1.11015e+06 0 -4.12004e+06 1.10555e+06 0 -4.1276e+06 1.10092e+06 0 -4.1352e+06 1.09626e+06 0 -4.14285e+06 1.09157e+06 0 -4.15055e+06 1.08685e+06 0 -4.1583e+06 1.08209e+06 0 -4.16609e+06 1.07731e+06 0 -4.17393e+06 1.07249e+06 0 -4.18182e+06 1.06765e+06 0 -4.18976e+06 1.06277e+06 0 -4.19775e+06 1.05786e+06 0 -4.20579e+06 1.05292e+06 0 -4.21388e+06 1.04795e+06 0 -4.22203e+06 1.04294e+06 0 -4.23022e+06 1.0379e+06 0 -4.23846e+06 1.03283e+06 0 -4.24676e+06 1.02773e+06 0 -4.25511e+06 1.02259e+06 0 -4.26351e+06 1.01742e+06 0 -4.27197e+06 1.01221e+06 0 -4.28048e+06 1.00697e+06 0 -4.28904e+06 1.0017e+06 0 -4.29766e+06 996392 0 -4.30634e+06 991049 0 -4.31507e+06 985671 0 -4.32386e+06 980258 0 -4.33271e+06 974809 0 -4.34161e+06 969325 0 -4.35058e+06 963804 0 -4.3596e+06 958247 0 -4.36868e+06 952654 0 -4.37782e+06 947023 0 -4.38702e+06 941355 0 -4.39628e+06 935650 0 -4.4056e+06 929908 0 -4.41499e+06 924127 0 -4.42444e+06 918308 0 -4.43395e+06 912451 0 -4.44352e+06 906555 0 -4.45316e+06 900619 0 -4.46287e+06 894645 0 -4.47264e+06 888630 0 -4.48248e+06 882576 0 -4.49238e+06 876482 0 -4.50235e+06 870347 0 -4.51239e+06 864171 0 -4.5225e+06 857954 0 -4.53268e+06 851695 0 -4.54292e+06 845395 0 -4.55324e+06 839053 0 -4.56363e+06 832668 0 -4.5741e+06 826241 0 -4.58463e+06 819771 0 -4.59524e+06 813257 0 -4.60592e+06 806700 0 -4.61668e+06 800098 0 -4.62752e+06 793453 0 -4.63843e+06 786762 0 -4.64941e+06 780027 0 -4.66048e+06 773246 0 -4.67162e+06 766420 0 -4.68285e+06 759548 0 -4.69415e+06 752629 0 -4.70554e+06 745663 0 -4.71701e+06 738651 0 -4.72855e+06 731591 0 -4.74019e+06 724483 0 -4.75191e+06 717327 0 -4.76371e+06 710123 0 -4.7756e+06 702870 0 -4.78757e+06 695567 0 -4.79964e+06 688215 0 -4.81179e+06 680813 0 -4.82403e+06 673360 0 -4.83636e+06 665857 0 -4.84879e+06 658302 0 -4.8613e+06 650696 0 -4.87391e+06 643038 0 -4.88662e+06 635327 0 -4.89941e+06 627564 0 -4.91231e+06 619747 0 -4.9253e+06 611877 0 -4.93839e+06 603953 0 -4.95158e+06 595974 0 -4.96487e+06 587941 0 -4.97826e+06 579852 0 -4.99175e+06 571708 0 -5.00534e+06 563507 0 -5.01904e+06 555250 0 -5.03285e+06 546936 0 -5.04676e+06 538564 0 -5.06078e+06 530135 0 -5.07491e+06 521647 0 -5.08915e+06 513100 0 -5.1035e+06 504494 0 -5.11796e+06 495828 0 -5.13253e+06 487101 0 -5.14722e+06 478315 0 -5.16203e+06 469467 0 -3.93724e+06 1.25736e+06 0 -3.94373e+06 1.25368e+06 0 -3.95025e+06 1.24998e+06 0 -3.95681e+06 1.24626e+06 0 -3.96341e+06 1.24251e+06 0 -3.97004e+06 1.23874e+06 0 -3.97672e+06 1.23494e+06 0 -3.98343e+06 1.23112e+06 0 -3.99019e+06 1.22728e+06 0 -3.99698e+06 1.22341e+06 0 -4.00381e+06 1.21951e+06 0 -4.01068e+06 1.21559e+06 0 -4.0176e+06 1.21165e+06 0 -4.02455e+06 1.20768e+06 0 -4.03155e+06 1.20369e+06 0 -4.03858e+06 1.19967e+06 0 -4.04566e+06 1.19562e+06 0 -4.05278e+06 1.19155e+06 0 -4.05995e+06 1.18745e+06 0 -4.06715e+06 1.18333e+06 0 -4.07441e+06 1.17918e+06 0 -4.0817e+06 1.175e+06 0 -4.08904e+06 1.1708e+06 0 -4.09642e+06 1.16657e+06 0 -4.10385e+06 1.16231e+06 0 -4.11133e+06 1.15802e+06 0 -4.11884e+06 1.15371e+06 0 -4.12641e+06 1.14937e+06 0 -4.13402e+06 1.145e+06 0 -4.14168e+06 1.1406e+06 0 -4.14939e+06 1.13618e+06 0 -4.15714e+06 1.13172e+06 0 -4.16495e+06 1.12724e+06 0 -4.1728e+06 1.12273e+06 0 -4.1807e+06 1.11819e+06 0 -4.18865e+06 1.11362e+06 0 -4.19665e+06 1.10902e+06 0 -4.2047e+06 1.10439e+06 0 -4.2128e+06 1.09973e+06 0 -4.22096e+06 1.09504e+06 0 -4.22916e+06 1.09032e+06 0 -4.23742e+06 1.08557e+06 0 -4.24573e+06 1.08079e+06 0 -4.25409e+06 1.07598e+06 0 -4.26251e+06 1.07114e+06 0 -4.27098e+06 1.06626e+06 0 -4.2795e+06 1.06136e+06 0 -4.28808e+06 1.05642e+06 0 -4.29672e+06 1.05145e+06 0 -4.30541e+06 1.04645e+06 0 -4.31416e+06 1.04141e+06 0 -4.32297e+06 1.03634e+06 0 -4.33183e+06 1.03124e+06 0 -4.34075e+06 1.02611e+06 0 -4.34973e+06 1.02094e+06 0 -4.35877e+06 1.01574e+06 0 -4.36787e+06 1.01051e+06 0 -4.37703e+06 1.00524e+06 0 -4.38625e+06 999932 0 -4.39554e+06 994594 0 -4.40488e+06 989220 0 -4.41429e+06 983812 0 -4.42376e+06 978368 0 -4.43329e+06 972888 0 -4.44289e+06 967372 0 -4.45256e+06 961821 0 -4.46229e+06 956232 0 -4.47208e+06 950607 0 -4.48195e+06 944945 0 -4.49188e+06 939246 0 -4.50188e+06 933509 0 -4.51194e+06 927735 0 -4.52208e+06 921922 0 -4.53229e+06 916071 0 -4.54257e+06 910182 0 -4.55292e+06 904253 0 -4.56334e+06 898286 0 -4.57383e+06 892279 0 -4.5844e+06 886232 0 -4.59504e+06 880145 0 -4.60576e+06 874018 0 -4.61656e+06 867850 0 -4.62743e+06 861641 0 -4.63837e+06 855392 0 -4.6494e+06 849100 0 -4.6605e+06 842767 0 -4.67169e+06 836391 0 -4.68295e+06 829974 0 -4.6943e+06 823513 0 -4.70573e+06 817010 0 -4.71724e+06 810463 0 -4.72883e+06 803872 0 -4.74051e+06 797237 0 -4.75227e+06 790558 0 -4.76412e+06 783835 0 -4.77606e+06 777066 0 -4.78808e+06 770252 0 -4.80019e+06 763392 0 -4.8124e+06 756486 0 -4.82469e+06 749534 0 -4.83708e+06 742536 0 -4.84955e+06 735490 0 -4.86212e+06 728397 0 -4.87479e+06 721256 0 -4.88755e+06 714067 0 -4.90041e+06 706830 0 -4.91336e+06 699544 0 -4.92641e+06 692208 0 -4.93956e+06 684823 0 -4.95282e+06 677388 0 -4.96617e+06 669903 0 -4.97962e+06 662368 0 -4.99318e+06 654781 0 -5.00685e+06 647143 0 -5.02062e+06 639453 0 -5.03449e+06 631711 0 -5.04848e+06 623916 0 -5.06257e+06 616068 0 -5.07677e+06 608167 0 -5.09109e+06 600212 0 -5.10551e+06 592203 0 -5.12005e+06 584139 0 -5.13471e+06 576021 0 -5.14948e+06 567847 0 -5.16437e+06 559617 0 -5.17938e+06 551331 0 -5.19451e+06 542988 0 -5.20976e+06 534588 0 -3.95449e+06 1.2875e+06 0 -3.96108e+06 1.28399e+06 0 -3.96771e+06 1.28046e+06 0 -3.97438e+06 1.27691e+06 0 -3.98109e+06 1.27333e+06 0 -3.98784e+06 1.26974e+06 0 -3.99463e+06 1.26612e+06 0 -4.00145e+06 1.26248e+06 0 -4.00832e+06 1.25881e+06 0 -4.01523e+06 1.25512e+06 0 -4.02218e+06 1.25141e+06 0 -4.02917e+06 1.