<?xml version="1.0"?> 
<VTKFile type="StructuredGrid" version="0.1"> 
<StructuredGrid WholeExtent="0 127 0 127 0 0"> 
<Piece Extent="0 127 0 127 0 0"> 
<PointData>
<DataArray type="Float32" Name="|E|" format="ascii" NumberOfComponents="3"> 
1.67861e+06 -669556 0 1.7024e+06 -628857 0 1.74028e+06 -581650 0 1.7762e+06 -536132 0 1.81082e+06 -490492 0 1.84249e+06 -444905 0 1.87089e+06 -399303 0 1.89553e+06 -353863 0 1.91622e+06 -308802 0 1.93284e+06 -264398 0 1.9454e+06 -220946 0 1.95398e+06 -178732 0 1.95876e+06 -138021 0 1.95997e+06 -99037.8 0 1.95785e+06 -61963.3 0 1.95269e+06 -26931.2 0 1.94477e+06 5970.22 0 1.9344e+06 36694.5 0 1.92183e+06 65231.8 0 1.90734e+06 91602.7 0 1.89118e+06 115853 0 1.87356e+06 138047 0 1.8547e+06 158265 0 1.83478e+06 176597 0 1.81397e+06 193138 0 1.79242e+06 207990 0 1.77025e+06 221254 0 1.7476e+06 233031 0 1.72456e+06 243422 0 1.70122e+06 252521 0 1.67767e+06 260424 0 1.65397e+06 267218 0 1.63019e+06 272988 0 1.60638e+06 277815 0 1.5826e+06 281773 0 1.55888e+06 284934 0 1.53526e+06 287362 0 1.51177e+06 289120 0 1.48844e+06 290264 0 1.4653e+06 290849 0 1.44237e+06 290923 0 1.41966e+06 290532 0 1.3972e+06 289719 0 1.37499e+06 288522 0 1.35305e+06 286977 0 1.33139e+06 285118 0 1.31002e+06 282975 0 1.28895e+06 280577 0 1.26817e+06 277948 0 1.24771e+06 275114 0 1.22756e+06 272095 0 1.20773e+06 268912 0 1.18822e+06 265583 0 1.16902e+06 262125 0 1.15016e+06 258553 0 1.13161e+06 254883 0 1.11339e+06 251125 0 1.0955e+06 247293 0 1.07794e+06 243398 0 1.06069e+06 239448 0 1.04378e+06 235453 0 1.02718e+06 231421 0 1.01091e+06 227360 0 994956 223276 0 979321 219176 0 964003 215065 0 949000 210948 0 934309 206830 0 919928 202715 0 905854 198606 0 892086 194507 0 878620 190421 0 865454 186351 0 852585 182298 0 840011 178265 0 827729 174254 0 815736 170267 0 804029 166304 0 792606 162367 0 781464 158457 0 770600 154575 0 760011 150721 0 749695 146897 0 739649 143102 0 729870 139336 0 720356 135601 0 711104 131896 0 702111 128222 0 693375 124577 0 684893 120962 0 676664 117377 0 668683 113822 0 660950 110295 0 653462 106797 0 646216 103328 0 639211 99886 0 632444 96471.4 0 625913 93083.5 0 619616 89721.5 0 613551 86385 0 607717 83073.1 0 602111 79785.3 0 596731 76520.6 0 591577 73278.5 0 586645 70058.1 0 581936 66858.6 0 577446 63679.3 0 573175 60519.2 0 569121 57377.6 0 565283 54253.5 0 561660 51146.2 0 558250 48054.7 0 555053 44978.2 0 552066 41915.8 0 549290 38866.5 0 546724 35829.4 0 544365 32803.6 0 542215 29788.3 0 540271 26782.4 0 538534 23785 0 537002 20795.3 0 535675 17812.2 0 534553 14834.7 0 533636 11862.1 0 532922 8893.24 0 532413 5927.24 0 532107 2963.15 0 532004 0 0 1.6823e+06 -671029 0 1.70882e+06 -630241 0 1.74621e+06 -583551 0 1.78217e+06 -537886 0 1.81666e+06 -492040 0 1.84822e+06 -446152 0 1.87646e+06 -400212 0 1.90093e+06 -354409 0 1.9214e+06 -308978 0 1.93779e+06 -264210 0 1.95008e+06 -220408 0 1.95838e+06 -177869 0 1.96286e+06 -136860 0 1.96375e+06 -97609.2 0 1.96132e+06 -60299.3 0 1.95585e+06 -25063.3 0 1.94763e+06 8011.91 0 1.93696e+06 38882 0 1.92411e+06 67539.5 0 1.90935e+06 94007.6 0 1.89293e+06 118335 0 1.87507e+06 140588 0 1.85598e+06 160850 0 1.83585e+06 179211 0 1.81485e+06 195772 0 1.79312e+06 210632 0 1.77079e+06 223897 0 1.74798e+06 235668 0 1.7248e+06 246047 0 1.70134e+06 255130 0 1.67768e+06 263012 0 1.65388e+06 269782 0 1.63001e+06 275526 0 1.60612e+06 280324 0 1.58226e+06 284252 0 1.55847e+06 287381 0 1.53479e+06 289776 0 1.51125e+06 291500 0 1.48788e+06 292610 0 1.4647e+06 293160 0 1.44173e+06 293199 0 1.41899e+06 292772 0 1.3965e+06 291923 0 1.37427e+06 290691 0 1.35231e+06 289110 0 1.33064e+06 287215 0 1.30925e+06 285037 0 1.28817e+06 282603 0 1.26739e+06 279939 0 1.24692e+06 277069 0 1.22677e+06 274016 0 1.20693e+06 270798 0 1.18742e+06 267435 0 1.16823e+06 263943 0 1.14936e+06 260338 0 1.13083e+06 256633 0 1.11261e+06 252843 0 1.09473e+06 248978 0 1.07717e+06 245050 0 1.05993e+06 241068 0 1.04302e+06 237041 0 1.02644e+06 232978 0 1.01017e+06 228885 0 994229 224770 0 978604 220640 0 963296 216498 0 948303 212351 0 933623 208203 0 919252 204059 0 905190 199921 0 891432 195793 0 877977 191678 0 864822 187580 0 851965 183499 0 839402 179438 0 827130 175400 0 815148 171385 0 803452 167396 0 792040 163432 0 780908 159496 0 770055 155588 0 759476 151709 0 749170 147859 0 739134 144038 0 729365 140248 0 719860 136488 0 710617 132759 0 701633 129060 0 692906 125391 0 684433 121753 0 676212 118144 0 668240 114565 0 660515 111016 0 653034 107495 0 645796 104003 0 638798 100539 0 632039 97101.7 0 625515 93691.6 0 619224 90307.7 0 613166 86949.4 0 607338 83615.9 0 601738 80306.5 0 596364 77020.6 0 591215 73757.3 0 586289 70515.8 0 581584 67295.5 0 577100 64095.4 0 572833 60914.7 0 568784 57752.5 0 564950 54608.1 0 561331 51480.5 0 557925 48368.8 0 554731 45272.2 0 551748 42189.7 0 548975 39120.5 0 546411 36063.6 0 544055 33018.1 0 541907 29983 0 539965 26957.5 0 538230 23940.6 0 536700 20931.2 0 535374 17928.6 0 534254 14931.7 0 533337 11939.7 0 532625 8951.39 0 532116 5966 0 531810 2982.52 0 531707 0 0 1.68636e+06 -672651 0 1.71509e+06 -631735 0 1.75217e+06 -585434 0 1.78816e+06 -539629 0 1.82252e+06 -493566 0 1.85397e+06 -447375 0 1.88206e+06 -401092 0 1.90635e+06 -354921 0 1.92662e+06 -309117 0 1.94276e+06 -263982 0 1.95478e+06 -219830 0 1.9628e+06 -176964 0 1.96698e+06 -135657 0 1.96756e+06 -96139.9 0 1.96481e+06 -58595.7 0 1.95902e+06 -23157.3 0 1.9505e+06 10090 0 1.93952e+06 41104 0 1.92639e+06 69879.5 0 1.91135e+06 96442.7 0 1.89467e+06 120844 0 1.87657e+06 143155 0 1.85726e+06 163458 0 1.83692e+06 181847 0 1.81572e+06 198425 0 1.79381e+06 213293 0 1.77132e+06 226557 0 1.74836e+06 238320 0 1.72505e+06 248685 0 1.70146e+06 257751 0 1.67768e+06 265611 0 1.65378e+06 272356 0 1.62982e+06 278073 0 1.60584e+06 282841 0 1.58191e+06 286738 0 1.55806e+06 289834 0 1.53432e+06 292195 0 1.51073e+06 293885 0 1.48731e+06 294960 0 1.46409e+06 295474 0 1.44108e+06 295477 0 1.41831e+06 295015 0 1.3958e+06 294130 0 1.37354e+06 292861 0 1.35157e+06 291244 0 1.32988e+06 289314 0 1.30848e+06 287099 0 1.28739e+06 284629 0 1.2666e+06 281930 0 1.24613e+06 279025 0 1.22597e+06 275936 0 1.20613e+06 272684 0 1.18662e+06 269286 0 1.16743e+06 265760 0 1.14857e+06 262121 0 1.13003e+06 258383 0 1.11183e+06 254560 0 1.09395e+06 250662 0 1.07639e+06 246701 0 1.05917e+06 242687 0 1.04226e+06 238628 0 1.02569e+06 234533 0 1.00943e+06 230409 0 993498 226263 0 977884 222102 0 962586 217930 0 947604 213753 0 932934 209575 0 918574 205401 0 904522 201234 0 890776 197077 0 877332 192934 0 864188 188807 0 851342 184699 0 838789 180611 0 826529 176545 0 814558 172503 0 802873 168486 0 791471 164496 0 780350 160534 0 769507 156600 0 758938 152695 0 748642 148820 0 738616 144974 0 728857 141159 0 719361 137375 0 710128 133621 0 701153 129898 0 692435 126205 0 683971 122543 0 675758 118911 0 667794 115308 0 660077 111736 0 652605 108192 0 645374 104677 0 638384 101190 0 631631 97731.2 0 625114 94299 0 618830 90893.2 0 612779 87513.1 0 606957 84158 0 601363 80827.2 0 595995 77519.9 0 590851 74235.5 0 585931 70973.1 0 581231 67731.8 0 576751 64511 0 572489 61309.7 0 568444 58127 0 564615 54962.2 0 561000 51814.4 0 557597 48682.5 0 554407 45565.9 0 551427 42463.4 0 548657 39374.3 0 546096 36297.6 0 543743 33232.3 0 541597 30177.6 0 539657 27132.4 0 537924 24095.9 0 536395 21067.1 0 535072 18045 0 533952 15028.6 0 533037 12017.1 0 532325 9009.47 0 531816 6004.71 0 531511 3001.87 0 531409 0 0 1.69073e+06 -674393 0 1.72125e+06 -633320 0 1.75815e+06 -587307 0 1.79415e+06 -541360 0 1.82841e+06 -495071 0 1.85976e+06 -448572 0 1.8877e+06 -401942 0 1.91181e+06 -355400 0 1.93186e+06 -309220 0 1.94776e+06 -263716 0 1.95951e+06 -219212 0 1.96724e+06 -176018 0 1.97111e+06 -134413 0 1.97138e+06 -94629.6 0 1.96831e+06 -56852.2 0 1.96221e+06 -21212.8 0 1.95337e+06 12204.8 0 1.94209e+06 43360.5 0 1.92867e+06 72252 0 1.91336e+06 98908 0 1.89642e+06 123382 0 1.87808e+06 145747 0 1.85854e+06 166089 0 1.83799e+06 184505 0 1.81659e+06 201097 0 1.7945e+06 215971 0 1.77184e+06 229232 0 1.74874e+06 240987 0 1.72528e+06 251337 0 1.70157e+06 260384 0 1.67768e+06 268221 0 1.65368e+06 274940 0 1.62962e+06 280628 0 1.60557e+06 285366 0 1.58156e+06 289231 0 1.55764e+06 292293 0 1.53384e+06 294620 0 1.5102e+06 296275 0 1.48673e+06 297314 0 1.46347e+06 297792 0 1.44043e+06 297759 0 1.41763e+06 297260 0 1.39509e+06 296338 0 1.37281e+06 295033 0 1.35082e+06 293380 0 1.32911e+06 291413 0 1.3077e+06 289162 0 1.2866e+06 286657 0 1.26581e+06 283922 0 1.24533e+06 280981 0 1.22517e+06 277857 0 1.20533e+06 274570 0 1.18582e+06 271138 0 1.16663e+06 267577 0 1.14777e+06 263904 0 1.12924e+06 260133 0 1.11104e+06 256276 0 1.09316e+06 252345 0 1.07562e+06 248351 0 1.0584e+06 244304 0 1.0415e+06 240214 0 1.02493e+06 236087 0 1.00869e+06 231932 0 992765 227755 0 977160 223563 0 961873 219360 0 946901 215153 0 932242 210946 0 917893 206742 0 903852 202546 0 890117 198361 0 876684 194189 0 863551 190034 0 850716 185897 0 838175 181781 0 825925 177688 0 813965 173619 0 802290 169576 0 790899 165560 0 779789 161571 0 768956 157611 0 758398 153680 0 748112 149779 0 738096 145909 0 728346 142069 0 718860 138260 0 709636 134482 0 700670 130734 0 691961 127018 0 683506 123332 0 675301 119676 0 667346 116051 0 659637 112455 0 652173 108888 0 644950 105351 0 637967 101842 0 631221 98360.1 0 624711 94905.8 0 618434 91478 0 612389 88076.1 0 606573 84699.4 0 600985 81347.2 0 595623 78018.7 0 590485 74713.2 0 585570 71429.8 0 580876 68167.7 0 576401 64926.1 0 572143 61704.2 0 568103 58501.1 0 564278 55316 0 560666 52147.9 0 557268 48995.9 0 554080 45859.2 0 551104 42736.8 0 548337 39627.8 0 545779 36531.2 0 543428 33446.2 0 541285 30371.9 0 539347 27307.1 0 537616 24251 0 536089 21202.7 0 534767 18161.1 0 533649 15125.4 0 532734 12094.5 0 532023 9067.49 0 531515 6043.38 0 531210 3021.21 0 531108 0 0 1.69535e+06 -676234 0 1.72733e+06 -634982 0 1.76415e+06 -589172 0 1.80016e+06 -543081 0 1.83433e+06 -496555 0 1.86557e+06 -449744 0 1.89336e+06 -402762 0 1.91729e+06 -355846 0 1.93714e+06 -309286 0 1.95279e+06 -263410 0 1.96427e+06 -218552 0 1.9717e+06 -175030 0 1.97526e+06 -133127 0 1.97521e+06 -93078 0 1.97182e+06 -55068.4 0 1.9654e+06 -19229.6 0 1.95625e+06 14356.4 0 1.94467e+06 45651.8 0 1.93095e+06 74657.1 0 1.91537e+06 101404 0 1.89816e+06 125948 0 1.87958e+06 148365 0 1.85981e+06 168745 0 1.83905e+06 187185 0 1.81746e+06 203790 0 1.79518e+06 218667 0 1.77236e+06 231925 0 1.74911e+06 243668 0 1.72552e+06 254003 0 1.70168e+06 263028 0 1.67767e+06 270841 0 1.65357e+06 277534 0 1.62942e+06 283192 0 1.60528e+06 287899 0 1.5812e+06 291730 0 1.55722e+06 294758 0 1.53336e+06 297050 0 1.50966e+06 298669 0 1.48615e+06 299672 0 1.46285e+06 300114 0 1.43978e+06 300043 0 1.41695e+06 299508 0 1.39438e+06 298549 0 1.37208e+06 297207 0 1.35007e+06 295517 0 1.32834e+06 293513 0 1.30692e+06 291226 0 1.28581e+06 288684 0 1.26501e+06 285914 0 1.24452e+06 282938 0 1.22436e+06 279778 0 1.20452e+06 276456 0 1.18501e+06 272989 0 1.16582e+06 269394 0 1.14697e+06 265687 0 1.12844e+06 261882 0 1.11024e+06 257991 0 1.09238e+06 254027 0 1.07484e+06 250001 0 1.05762e+06 245921 0 1.04074e+06 241799 0 1.02418e+06 237640 0 1.00794e+06 233453 0 992029 229246 0 976434 225023 0 961157 220790 0 946196 216553 0 931547 212315 0 917209 208082 0 903179 203857 0 889455 199643 0 876033 195442 0 862911 191259 0 850087 187094 0 837557 182951 0 825318 178831 0 813369 174735 0 801705 170665 0 790325 166622 0 779225 162607 0 768402 158621 0 757855 154665 0 747579 150738 0 737573 146843 0 727833 142978 0 718357 139144 0 709142 135341 0 700185 131570 0 691485 127829 0 683038 124120 0 674843 120441 0 666896 116792 0 659195 113173 0 651738 109584 0 644523 106024 0 637547 102492 0 630809 98988.2 0 624306 95511.8 0 618036 92062.1 0 611997 88638.5 0 606188 85240.3 0 600606 81866.7 0 595250 78516.9 0 590117 75190.3 0 585207 71885.9 0 580518 68603 0 576048 65340.8 0 571795 62098.3 0 567759 58874.8 0 563938 55669.3 0 560331 52481 0 556936 49308.9 0 553752 46152.1 0 550779 43009.8 0 548015 39880.9 0 545460 36764.6 0 543112 33660 0 540970 30565.9 0 539035 27481.6 0 537306 24406 0 535781 21338.2 0 534460 18277.2 0 533343 15222.1 0 532429 12171.8 0 531719 9125.44 0 531212 6082 0 530907 3040.51 0 530805 0 0 1.70016e+06 -678155 0 1.73336e+06 -636710 0 1.77017e+06 -591032 0 1.80619e+06 -544790 0 1.84027e+06 -498020 0 1.87141e+06 -450891 0 1.89906e+06 -403552 0 1.92282e+06 -356258 0 1.94244e+06 -309315 0 1.95785e+06 -263065 0 1.96905e+06 -217851 0 1.97618e+06 -174000 0 1.97943e+06 -131798 0 1.97906e+06 -91484.6 0 1.97534e+06 -53244.1 0 1.9686e+06 -17207.5 0 1.95913e+06 16545 0 1.94724e+06 47978.1 0 1.93323e+06 77094.9 0 1.91737e+06 103930 0 1.89991e+06 128542 0 1.88107e+06 151010 0 1.86107e+06 171424 0 1.8401e+06 189886 0 1.81831e+06 206503 0 1.79586e+06 221382 0 1.77288e+06 234633 0 1.74947e+06 246365 0 1.72574e+06 256682 0 1.70178e+06 265685 0 1.67766e+06 273473 0 1.65345e+06 280137 0 1.62921e+06 285765 0 1.60499e+06 290439 0 1.58084e+06 294236 0 1.55679e+06 297229 0 1.53287e+06 299486 0 1.50912e+06 301068 0 1.48557e+06 302034 0 1.46223e+06 302438 0 1.43912e+06 302331 0 1.41626e+06 301758 0 1.39366e+06 300762 0 1.37134e+06 299382 0 1.34931e+06 297655 0 1.32757e+06 295615 0 1.30614e+06 293291 0 1.28502e+06 290713 0 1.26421e+06 287906 0 1.24372e+06 284894 0 1.22355e+06 281699 0 1.20371e+06 278342 0 1.1842e+06 274840 0 1.16502e+06 271210 0 1.14616e+06 267469 0 1.12764e+06 263630 0 1.10945e+06 259706 0 1.09159e+06 255709 0 1.07405e+06 251649 0 1.05685e+06 247537 0 1.03997e+06 243382 0 1.02342e+06 239192 0 1.00719e+06 234974 0 991289 230735 0 975705 226481 0 960438 222218 0 945487 217951 0 930849 213684 0 916522 209421 0 902503 205166 0 888790 200923 0 875379 196695 0 862269 192483 0 849455 188290 0 836936 184119 0 824709 179972 0 812770 175849 0 801118 171752 0 789748 167683 0 778659 163642 0 767847 159630 0 757309 155648 0 747044 151696 0 737047 147775 0 727317 143886 0 717850 140027 0 708645 136200 0 699698 132405 0 691007 128640 0 682569 124907 0 674382 121204 0 666443 117532 0 658750 113891 0 651301 110278 0 644094 106696 0 637126 103141 0 630395 99615.5 0 623898 96117.1 0 617635 92645.6 0 611603 89200.3 0 605800 85780.5 0 600224 82385.5 0 594874 79014.6 0 589747 75666.8 0 584842 72341.6 0 580158 69037.9 0 575693 65755 0 571445 62492 0 567413 59248 0 563597 56022.2 0 559993 52813.7 0 556602 49621.5 0 553422 46444.8 0 550452 43282.5 0 547691 40133.8 0 545138 36997.8 0 542793 33873.4 0 540654 30759.8 0 538721 27655.9 0 536993 24560.8 0 535470 21473.5 0 534151 18393.1 0 533035 15318.6 0 532123 12249 0 531413 9183.32 0 530906 6120.58 0 530602 3059.8 0 530500 0 0 1.70515e+06 -680143 0 1.73935e+06 -638495 0 1.7762e+06 -592890 0 1.81224e+06 -546488 0 1.84625e+06 -499466 0 1.87729e+06 -452013 0 1.9048e+06 -404312 0 1.92837e+06 -356636 0 1.94778e+06 -309307 0 1.96293e+06 -262679 0 1.97386e+06 -217109 0 1.98069e+06 -172927 0 1.98362e+06 -130427 0 1.98292e+06 -89849.3 0 1.97888e+06 -51379 0 1.9718e+06 -15146.2 0 1.96202e+06 18770.8 0 1.94982e+06 50339.5 0 1.93552e+06 79565.5 0 1.91937e+06 106486 0 1.90165e+06 131164 0 1.88256e+06 153680 0 1.86234e+06 174127 0 1.84115e+06 192610 0 1.81917e+06 209235 0 1.79654e+06 224114 0 1.77339e+06 237358 0 1.74983e+06 249076 0 1.72596e+06 259374 0 1.70187e+06 268354 0 1.67764e+06 276115 0 1.65333e+06 282750 0 1.629e+06 288346 0 1.6047e+06 292986 0 1.58047e+06 296749 0 1.55635e+06 299706 0 1.53238e+06 301926 0 1.50858e+06 303471 0 1.48498e+06 304400 0 1.46159e+06 304767 0 1.43845e+06 304621 0 1.41556e+06 304011 0 1.39294e+06 302977 0 1.3706e+06 301560 0 1.34855e+06 299795 0 1.32679e+06 297717 0 1.30535e+06 295357 0 1.28422e+06 292742 0 1.2634e+06 289898 0 1.24291e+06 286850 0 1.22274e+06 283620 0 1.2029e+06 280227 0 1.18338e+06 276690 0 1.1642e+06 273026 0 1.14535e+06 269250 0 1.12683e+06 265377 0 1.10865e+06 261419 0 1.09079e+06 257389 0 1.07327e+06 253297 0 1.05607e+06 249153 0 1.0392e+06 244965 0 1.02266e+06 240743 0 1.00644e+06 236493 0 990546 232223 0 974972 227939 0 959716 223645 0 944775 219347 0 930148 215051 0 915832 210758 0 901824 206475 0 888122 202203 0 874723 197946 0 861623 193706 0 848821 189485 0 836313 185287 0 824097 181112 0 812169 176962 0 800527 172838 0 789168 168742 0 778090 164675 0 767288 160637 0 756761 156630 0 746506 152653 0 736519 148707 0 726799 144792 0 717342 140909 0 708146 137058 0 699208 133238 0 690526 129450 0 682096 125693 0 673918 121967 0 665988 118272 0 658303 114607 0 650862 110972 0 643662 107367 0 636702 103790 0 629978 100242 0 623489 96721.7 0 617232 93228.4 0 611207 89761.4 0 605410 86320.1 0 599840 82903.8 0 594496 79511.6 0 589375 76142.8 0 584475 72796.6 0 579796 69472.2 0 575336 66168.7 0 571093 62885.2 0 567066 59620.8 0 563253 56374.7 0 559653 53146 0 556266 49933.8 0 553089 46737 0 550123 43554.9 0 547365 40386.4 0 544815 37230.6 0 542472 34086.6 0 540336 30953.4 0 538405 27830 0 536679 24715.4 0 535158 21608.7 0 533840 18508.9 0 532725 15415.1 0 531814 12326.1 0 531105 9241.13 0 530599 6159.11 0 530295 3079.06 0 530193 0 0 1.71027e+06 -682187 0 1.74533e+06 -640328 0 1.78225e+06 -594748 0 1.8183e+06 -548175 0 1.85225e+06 -500892 0 1.8832e+06 -453111 0 1.91056e+06 -405042 0 1.93396e+06 -356979 0 1.95315e+06 -309260 0 1.96805e+06 -262254 0 1.97869e+06 -216324 0 1.98522e+06 -171812 0 1.98783e+06 -129013 0 1.9868e+06 -88171.6 0 1.98242e+06 -49472.8 0 1.97502e+06 -13045.5 0 1.96491e+06 21034.2 0 1.9524e+06 52736.1 0 1.9378e+06 82069.1 0 1.92138e+06 109074 0 1.90338e+06 133815 0 1.88405e+06 156376 0 1.8636e+06 176854 0 1.8422e+06 195355 0 1.82002e+06 211987 0 1.7972e+06 226865 0 1.77389e+06 240099 0 1.75018e+06 251802 0 1.72617e+06 262079 0 1.70196e+06 271035 0 1.67762e+06 278768 0 1.65321e+06 285372 0 1.62878e+06 290935 0 1.6044e+06 295542 0 1.5801e+06 299269 0 1.55591e+06 302189 0 1.53188e+06 304372 0 1.50803e+06 305879 0 1.48438e+06 306770 0 1.46096e+06 307098 0 1.43778e+06 306915 0 1.41486e+06 306266 0 1.39221e+06 305194 0 1.36985e+06 303739 0 1.34778e+06 301936 0 1.32601e+06 299821 0 1.30456e+06 297423 0 1.28341e+06 294771 0 1.26259e+06 291891 0 1.24209e+06 288807 0 1.22192e+06 285541 0 1.20208e+06 282112 0 1.18257e+06 278540 0 1.16339e+06 274841 0 1.14454e+06 271031 0 1.12603e+06 267124 0 1.10784e+06 263132 0 1.08999e+06 259069 0 1.07248e+06 254943 0 1.05529e+06 250767 0 1.03843e+06 246547 0 1.02189e+06 242293 0 1.00569e+06 238012 0 989801 233710 0 974236 229395 0 958990 225071 0 944061 220743 0 929444 216416 0 915139 212095 0 901143 207782 0 887451 203481 0 874063 199195 0 860975 194927 0 848184 190679 0 835687 186453 0 823482 182250 0 811565 178073 0 799934 173923 0 788586 169801 0 777518 165708 0 766727 161644 0 756210 157611 0 745965 153609 0 735988 149638 0 726278 145698 0 716831 141791 0 707644 137915 0 698715 134071 0 690042 130259 0 681622 126478 0 673452 122729 0 665530 119011 0 657854 115323 0 650421 111665 0 643229 108037 0 636275 104438 0 629559 100868 0 623077 97325.6 0 616827 93810.5 0 610808 90321.8 0 605018 86859.1 0 599454 83421.4 0 594115 80008.1 0 589000 76618.3 0 584106 73251.2 0 579432 69906 0 574977 66581.9 0 570738 63277.9 0 566716 59993.2 0 562907 56726.8 0 559312 53478 0 555928 50245.7 0 552755 47029 0 549792 43827 0 547037 40638.7 0 544490 37463.2 0 542150 34299.6 0 540016 31146.8 0 538087 28003.8 0 536363 24869.8 0 534843 21743.7 0 533527 18624.6 0 532414 15511.4 0 531503 12403.1 0 530795 9298.88 0 530290 6197.6 0 529986 3098.3 0 529884 0 0 1.71551e+06 -684278 0 1.7513e+06 -642203 0 1.78832e+06 -596606 0 1.82439e+06 -549853 0 1.85829e+06 -502299 0 1.88913e+06 -454183 0 1.91636e+06 -405742 0 1.93958e+06 -357288 0 1.95855e+06 -309175 0 1.97319e+06 -261787 0 1.98355e+06 -215497 0 1.98977e+06 -170652 0 1.99205e+06 -127555 0 1.99069e+06 -86451.1 0 1.98597e+06 -47525.1 0 1.97824e+06 -10905 0 1.9678e+06 23335.2 0 1.95499e+06 55168.1 0 1.94008e+06 84605.8 0 1.92338e+06 111692 0 1.90512e+06 136494 0 1.88554e+06 159099 0 1.86485e+06 179605 0 1.84324e+06 198121 0 1.82086e+06 214759 0 1.79787e+06 229633 0 1.77438e+06 242857 0 1.75052e+06 254542 0 1.72638e+06 264798 0 1.70205e+06 273727 0 1.67759e+06 281431 0 1.65307e+06 288004 0 1.62856e+06 293533 0 1.60409e+06 298104 0 1.57972e+06 301795 0 1.55547e+06 304678 0 1.53138e+06 306823 0 1.50747e+06 308292 0 1.48378e+06 309144 0 1.46032e+06 309434 0 1.43711e+06 309211 0 1.41416e+06 308523 0 1.39148e+06 307413 0 1.3691e+06 305919 0 1.34701e+06 304079 0 1.32523e+06 301926 0 1.30376e+06 299491 0 1.28261e+06 296801 0 1.26178e+06 293885 0 1.24127e+06 290764 0 1.2211e+06 287461 0 1.20126e+06 283997 0 1.18175e+06 280390 0 1.16257e+06 276656 0 1.14372e+06 272811 0 1.12521e+06 268870 0 1.10704e+06 264845 0 1.08919e+06 260747 0 1.07168e+06 256589 0 1.0545e+06 252380 0 1.03765e+06 248128 0 1.02113e+06 243842 0 1.00493e+06 239529 0 989052 235196 0 973497 230850 0 958262 226495 0 943343 222138 0 928738 217781 0 914443 213430 0 900458 209088 0 886778 204758 0 873401 200444 0 860324 196148 0 847544 191871 0 835058 187618 0 822864 183388 0 810959 179184 0 799339 175007 0 788001 170858 0 776944 166739 0 766163 162650 0 755657 158591 0 745422 154563 0 735455 150567 0 725755 146603 0 716317 142671 0 707140 138771 0 698221 134903 0 689556 131067 0 681145 127263 0 672984 123490 0 665070 119749 0 657402 116038 0 649977 112358 0 642793 108707 0 635847 105086 0 629138 101493 0 622663 97928.8 0 616420 94391.9 0 610407 90881.6 0 604623 87397.4 0 599066 83938.4 0 593733 80504 0 588623 77093.2 0 583735 73705.2 0 579066 70339.3 0 574615 66994.6 0 570382 63670.1 0 566363 60365.1 0 562559 57078.5 0 558968 53809.5 0 555588 50557.2 0 552418 47320.6 0 549458 44098.7 0 546707 40890.7 0 544163 37695.5 0 541825 34512.3 0 539693 31339.9 0 537767 28177.5 0 536045 25024.1 0 534527 21878.6 0 533212 18740.1 0 532100 15607.6 0 531190 12480.1 0 530483 9356.56 0 529978 6236.04 0 529675 3117.52 0 529573 0 0 1.72086e+06 -686409 0 1.75727e+06 -644115 0 1.79441e+06 -598465 0 1.8305e+06 -551519 0 1.86435e+06 -503687 0 1.89511e+06 -455230 0 1.9222e+06 -406412 0 1.94523e+06 -357561 0 1.96398e+06 -309052 0 1.97837e+06 -261278 0 1.98844e+06 -214626 0 1.99434e+06 -169449 0 1.99629e+06 -126054 0 1.99459e+06 -84687.6 0 1.98954e+06 -45535.7 0 1.98147e+06 -8724.64 0 1.97071e+06 25674 0 1.95757e+06 57635.7 0 1.94237e+06 87175.6 0 1.92538e+06 114340 0 1.90685e+06 139201 0 1.88702e+06 161847 0 1.8661e+06 182380 0 1.84427e+06 200910 0 1.8217e+06 217551 0 1.79852e+06 232419 0 1.77487e+06 245630 0 1.75086e+06 257297 0 1.72658e+06 267529 0 1.70212e+06 276432 0 1.67755e+06 284105 0 1.65293e+06 290645 0 1.62833e+06 296140 0 1.60378e+06 300675 0 1.57933e+06 304328 0 1.55502e+06 307173 0 1.53087e+06 309279 0 1.50691e+06 310709 0 1.48318e+06 311522 0 1.45967e+06 311772 0 1.43643e+06 311510 0 1.41345e+06 310783 0 1.39075e+06 309634 0 1.36834e+06 308101 0 1.34624e+06 306223 0 1.32444e+06 304032 0 1.30296e+06 301559 0 1.2818e+06 298832 0 1.26096e+06 295878 0 1.24045e+06 292721 0 1.22027e+06 289382 0 1.20043e+06 285882 0 1.18092e+06 282239 0 1.16174e+06 278470 0 1.1429e+06 274591 0 1.1244e+06 270615 0 1.10623e+06 266556 0 1.08839e+06 262425 0 1.07089e+06 258234 0 1.05371e+06 253992 0 1.03687e+06 249707 0 1.02035e+06 245389 0 1.00417e+06 241045 0 988300 236681 0 972755 232304 0 957531 227919 0 942622 223531 0 928028 219144 0 913745 214764 0 899770 210393 0 886101 206034 0 872736 201691 0 859670 197367 0 846901 193063 0 834427 188781 0 822244 184524 0 810349 180293 0 798740 176090 0 787414 171915 0 776367 167769 0 765597 163654 0 755101 159570 0 744876 155517 0 734920 151496 0 725229 147507 0 715801 143550 0 706633 139626 0 697723 135734 0 689068 131874 0 680666 128046 0 672513 124250 0 664608 120486 0 656948 116752 0 649531 113049 0 642354 109376 0 635416 105732 0 628714 102118 0 622246 98531.3 0 616010 94972.6 0 610004 91440.7 0 604227 87935.1 0 598675 84454.8 0 593348 80999.3 0 588244 77567.5 0 583361 74158.7 0 578697 70772.1 0 574252 67406.8 0 570023 64061.9 0 566009 60736.5 0 562209 57429.8 0 558622 54140.7 0 555246 50868.3 0 552080 47611.8 0 549123 44370.2 0 546375 41142.4 0 543833 37927.6 0 541498 34724.7 0 539369 31532.9 0 537445 28351 0 535725 25178.1 0 534208 22013.3 0 532895 18855.5 0 531784 15703.7 0 530876 12556.9 0 530169 9414.17 0 529665 6274.44 0 529362 3136.72 0 529260 0 0 1.72629e+06 -688576 0 1.76324e+06 -646059 0 1.80052e+06 -600325 0 1.83664e+06 -553176 0 1.87045e+06 -505057 0 1.90112e+06 -456253 0 1.92807e+06 -407051 0 1.95092e+06 -357800 0 1.96944e+06 -308890 0 1.98357e+06 -260728 0 1.99334e+06 -213712 0 1.99893e+06 -168202 0 2.00055e+06 -124508 0 1.99851e+06 -82880.6 0 1.99311e+06 -43504.3 0 1.9847e+06 -6504.05 0 1.97361e+06 28050.9 0 1.96016e+06 60139.1 0 1.94465e+06 89778.8 0 1.92737e+06 117020 0 1.90858e+06 141937 0 1.8885e+06 164622 0 1.86734e+06 185179 0 1.8453e+06 203720 0 1.82253e+06 220363 0 1.79917e+06 235224 0 1.77535e+06 248420 0 1.75119e+06 260067 0 1.72678e+06 270274 0 1.70219e+06 279148 0 1.67751e+06 286790 0 1.65279e+06 293296 0 1.62809e+06 298755 0 1.60346e+06 303252 0 1.57894e+06 306867 0 1.55456e+06 309674 0 1.53035e+06 311740 0 1.50635e+06 313130 0 1.48256e+06 313903 0 1.45902e+06 314114 0 1.43574e+06 313812 0 1.41273e+06 313046 0 1.39001e+06 311857 0 1.36758e+06 310285 0 1.34546e+06 308368 0 1.32365e+06 306138 0 1.30215e+06 303627 0 1.28098e+06 300863 0 1.26014e+06 297872 0 1.23963e+06 294678 0 1.21945e+06 291303 0 1.1996e+06 287766 0 1.18009e+06 284088 0 1.16092e+06 280284 0 1.14208e+06 276370 0 1.12358e+06 272360 0 1.10541e+06 268266 0 1.08758e+06 264102 0 1.07009e+06 259878 0 1.05292e+06 255603 0 1.03609e+06 251286 0 1.01958e+06 246936 0 1.0034e+06 242560 0 987544 238165 0 972010 233757 0 956796 229341 0 941898 224923 0 927315 220506 0 913043 216096 0 899080 211696 0 885422 207309 0 872068 202937 0 859013 198584 0 846256 194253 0 833793 189944 0 821621 185660 0 809737 181402 0 798139 177171 0 786823 172970 0 775787 168798 0 765028 164657 0 754543 160547 0 744328 156469 0 734382 152423 0 724701 148409 0 715283 144428 0 706124 140480 0 697224 136564 0 688578 132680 0 680184 128829 0 672040 125010 0 664143 121222 0 656492 117465 0 649083 113740 0 641914 110044 0 634983 106378 0 628288 102741 0 621827 99133.1 0 615598 95552.6 0 609599 91999.2 0 603828 88472.1 0 598282 84970.6 0 592961 81494 0 587863 78041.2 0 582985 74611.7 0 578327 71204.4 0 573886 67818.6 0 569662 64453.2 0 565653 61107.6 0 561857 57780.6 0 558274 54471.4 0 554901 51179.1 0 551739 47902.7 0 548786 44641.3 0 546040 41393.8 0 543502 38159.4 0 541170 34936.9 0 539043 31725.6 0 537120 28524.2 0 535402 25332 0 533887 22147.8 0 532576 18970.7 0 531466 15799.7 0 530559 12633.7 0 529853 9471.71 0 529349 6312.79 0 529047 3155.89 0 528945 0 0 1.7318e+06 -690773 0 1.76923e+06 -648032 0 1.80665e+06 -602187 0 1.84281e+06 -554823 0 1.87658e+06 -506408 0 1.90716e+06 -457250 0 1.93398e+06 -407659 0 1.95664e+06 -358002 0 1.97494e+06 -308688 0 1.9888e+06 -260136 0 1.99828e+06 -212754 0 2.00354e+06 -166910 0 2.00483e+06 -122918 0 2.00244e+06 -81029.9 0 1.9967e+06 -41430.5 0 1.98794e+06 -4243 0 1.97652e+06 30466 0 1.96275e+06 62678.3 0 1.94694e+06 92415.4 0 1.92937e+06 119731 0 1.9103e+06 144701 0 1.88997e+06 167423 0 1.86858e+06 188001 0 1.84632e+06 206552 0 1.82335e+06 223194 0 1.79981e+06 238046 0 1.77583e+06 251227 0 1.75152e+06 262851 0 1.72696e+06 273032 0 1.70225e+06 281876 0 1.67746e+06 289485 0 1.65264e+06 295956 0 1.62785e+06 301378 0 1.60314e+06 305838 0 1.57854e+06 309414 0 1.5541e+06 312180 0 1.52983e+06 314206 0 1.50578e+06 315556 0 1.48195e+06 316289 0 1.45837e+06 316459 0 1.43505e+06 316117 0 1.41201e+06 315310 0 1.38926e+06 314082 0 1.36681e+06 312471 0 1.34467e+06 310514 0 1.32285e+06 308246 0 1.30134e+06 305697 0 1.28016e+06 302895 0 1.25931e+06 299866 0 1.2388e+06 296635 0 1.21861e+06 293223 0 1.19877e+06 289651 0 1.17926e+06 285936 0 1.16009e+06 282097 0 1.14125e+06 278148 0 1.12276e+06 274103 0 1.1046e+06 269976 0 1.08677e+06 265778 0 1.06928e+06 261521 0 1.05212e+06 257213 0 1.0353e+06 252864 0 1.0188e+06 248481 0 1.00263e+06 244074 0 986786 239647 0 971262 235208 0 956059 230762 0 941172 226313 0 926599 221867 0 912338 217428 0 898386 212998 0 884740 208582 0 871397 204182 0 858353 199801 0 845607 195441 0 833156 191105 0 820995 186793 0 809122 182509 0 797535 178252 0 786231 174024 0 775205 169826 0 764457 165659 0 753981 161524 0 743777 157421 0 733841 153350 0 724170 149311 0 714762 145306 0 705613 141333 0 696721 137393 0 688085 133486 0 679700 129611 0 671565 125768 0 663676 121957 0 656033 118178 0 648632 114429 0 641471 110711 0 634548 107023 0 627860 103364 0 621407 99734.2 0 615184 96132 0 609192 92557 0 603427 89008.5 0 597887 85485.8 0 592572 81988.1 0 587480 78514.4 0 582607 75064.1 0 577954 71636.2 0 573519 68229.8 0 569299 64844.1 0 565294 61478.2 0 561503 58131 0 557923 54801.8 0 554555 51489.5 0 551396 48193.3 0 548446 44912.1 0 545704 41644.9 0 543168 38390.8 0 540839 35148.9 0 538714 31918 0 536794 28697.3 0 535078 25485.7 0 533565 22282.2 0 532254 19085.8 0 531146 15895.5 0 530240 12710.3 0 529535 9529.18 0 529032 6351.09 0 528730 3175.04 0 528628 0 0 1.73737e+06 -692998 0 1.77524e+06 -650030 0 1.81281e+06 -604051 0 1.849e+06 -556460 0 1.88274e+06 -507741 0 1.91324e+06 -458222 0 1.93992e+06 -408235 0 1.9624e+06 -358169 0 1.98047e+06 -308446 0 1.99406e+06 -259501 0 2.00324e+06 -211751 0 2.00817e+06 -165572 0 2.00912e+06 -121283 0 2.00638e+06 -79134.9 0 2.00029e+06 -39314.1 0 1.99119e+06 -1941.25 0 1.97943e+06 32919.7 0 1.96534e+06 65253.6 0 1.94922e+06 95085.5 0 1.93136e+06 122472 0 1.91202e+06 147494 0 1.89144e+06 170249 0 1.86981e+06 190848 0 1.84734e+06 209406 0 1.82417e+06 226045 0 1.80045e+06 240886 0 1.7763e+06 254049 0 1.75183e+06 265650 0 1.72714e+06 275803 0 1.70231e+06 284616 0 1.6774e+06 292191 0 1.65248e+06 298625 0 1.6276e+06 304010 0 1.60281e+06 308430 0 1.57814e+06 311966 0 1.55363e+06 314692 0 1.52931e+06 316678 0 1.5052e+06 317987 0 1.48133e+06 318678 0 1.45771e+06 318807 0 1.43435e+06 318425 0 1.41129e+06 317577 0 1.38851e+06 316309 0 1.36604e+06 314658 0 1.34388e+06 312662 0 1.32204e+06 310355 0 1.30053e+06 307767 0 1.27934e+