<?xml version="1.0"?> 
<VTKFile type="StructuredGrid" version="0.1"> 
<StructuredGrid WholeExtent="0 127 0 127 0 0"> 
<Piece Extent="0 127 0 127 0 0"> 
<PointData>
<DataArray type="Float32" Name="|E|" format="ascii" NumberOfComponents="3"> 
299742 4.54621e+06 0 299940 4.54922e+06 0 300140 4.55225e+06 0 300341 4.5553e+06 0 300544 4.55838e+06 0 300749 4.56149e+06 0 300955 4.56462e+06 0 301164 4.56778e+06 0 301374 4.57096e+06 0 301586 4.57418e+06 0 301799 4.57741e+06 0 302014 4.58068e+06 0 302232 4.58398e+06 0 302451 4.5873e+06 0 302672 4.59065e+06 0 302895 4.59403e+06 0 303120 4.59744e+06 0 303347 4.60088e+06 0 303575 4.60436e+06 0 303806 4.60786e+06 0 304039 4.61139e+06 0 304274 4.61496e+06 0 304511 4.61855e+06 0 304751 4.62218e+06 0 304992 4.62584e+06 0 305236 4.62954e+06 0 305482 4.63327e+06 0 305730 4.63703e+06 0 305980 4.64083e+06 0 306233 4.64466e+06 0 306488 4.64853e+06 0 306746 4.65244e+06 0 307006 4.65638e+06 0 307268 4.66036e+06 0 307533 4.66438e+06 0 307801 4.66844e+06 0 308071 4.67254e+06 0 308343 4.67667e+06 0 308619 4.68085e+06 0 308897 4.68507e+06 0 309178 4.68933e+06 0 309462 4.69363e+06 0 309748 4.69798e+06 0 310038 4.70237e+06 0 310330 4.70681e+06 0 310626 4.71129e+06 0 310924 4.71581e+06 0 311226 4.72039e+06 0 311530 4.72501e+06 0 311838 4.72968e+06 0 312150 4.7344e+06 0 312464 4.73917e+06 0 312782 4.74399e+06 0 313103 4.74887e+06 0 313428 4.7538e+06 0 313757 4.75878e+06 0 314089 4.76382e+06 0 314425 4.76891e+06 0 314765 4.77407e+06 0 315108 4.77928e+06 0 315456 4.78455e+06 0 315807 4.78988e+06 0 316163 4.79527e+06 0 316523 4.80073e+06 0 316887 4.80626e+06 0 317256 4.81185e+06 0 317629 4.8175e+06 0 318006 4.82323e+06 0 318388 4.82903e+06 0 318776 4.8349e+06 0 319167 4.84084e+06 0 319564 4.84686e+06 0 319966 4.85296e+06 0 320374 4.85914e+06 0 320786 4.8654e+06 0 321205 4.87174e+06 0 321628 4.87817e+06 0 322058 4.88469e+06 0 322494 4.89129e+06 0 322935 4.89799e+06 0 323383 4.90478e+06 0 323838 4.91168e+06 0 324299 4.91867e+06 0 324766 4.92576e+06 0 325241 4.93296e+06 0 325723 4.94027e+06 0 326212 4.9477e+06 0 326710 4.95523e+06 0 327214 4.96289e+06 0 327728 4.97067e+06 0 328249 4.97858e+06 0 328779 4.98663e+06 0 329318 4.9948e+06 0 329867 5.00312e+06 0 330425 5.01159e+06 0 330993 5.02021e+06 0 331572 5.02899e+06 0 332162 5.03793e+06 0 332762 5.04704e+06 0 333375 5.05633e+06 0 334000 5.0658e+06 0 334637 5.07547e+06 0 335288 5.08535e+06 0 335953 5.09544e+06 0 336633 5.10575e+06 0 337329 5.11629e+06 0 338040 5.12709e+06 0 338769 5.13815e+06 0 339517 5.14948e+06 0 340284 5.16112e+06 0 341072 5.17307e+06 0 341882 5.18536e+06 0 342716 5.19801e+06 0 343576 5.21105e+06 0 344464 5.22452e+06 0 345383 5.23846e+06 0 346336 5.25291e+06 0 347326 5.26792e+06 0 348357 5.28357e+06 0 349435 5.29992e+06 0 350567 5.31708e+06 0 351760 5.33518e+06 0 353025 5.35436e+06 0 354373 5.37481e+06 0 355823 5.3968e+06 0 357395 5.42065e+06 0 359119 5.44679e+06 0 361032 5.4758e+06 0 323073 4.54235e+06 0 323463 4.54532e+06 0 323857 4.54831e+06 0 324256 4.55133e+06 0 324658 4.55437e+06 0 325065 4.55744e+06 0 325476 4.56054e+06 0 325891 4.56366e+06 0 326310 4.56681e+06 0 326734 4.56998e+06 0 327162 4.57318e+06 0 327595 4.5764e+06 0 328033 4.57966e+06 0 328475 4.58294e+06 0 328922 4.58625e+06 0 329374 4.58959e+06 0 329831 4.59296e+06 0 330293 4.59635e+06 0 330760 4.59978e+06 0 331233 4.60324e+06 0 331711 4.60672e+06 0 332194 4.61024e+06 0 332683 4.61379e+06 0 333177 4.61737e+06 0 333677 4.62098e+06 0 334183 4.62463e+06 0 334695 4.62831e+06 0 335213 4.63202e+06 0 335738 4.63576e+06 0 336268 4.63954e+06 0 336805 4.64336e+06 0 337349 4.64721e+06 0 337900 4.6511e+06 0 338457 4.65502e+06 0 339021 4.65898e+06 0 339593 4.66298e+06 0 340171 4.66702e+06 0 340758 4.67109e+06 0 341351 4.6752e+06 0 341953 4.67936e+06 0 342562 4.68355e+06 0 343180 4.68779e+06 0 343806 4.69207e+06 0 344441 4.69639e+06 0 345084 4.70076e+06 0 345736 4.70516e+06 0 346397 4.70962e+06 0 347068 4.71412e+06 0 347748 4.71866e+06 0 348437 4.72325e+06 0 349137 4.72789e+06 0 349847 4.73258e+06 0 350568 4.73732e+06 0 351300 4.74211e+06 0 352042 4.74695e+06 0 352796 4.75185e+06 0 353562 4.75679e+06 0 354339 4.76179e+06 0 355129 4.76685e+06 0 355932 4.77196e+06 0 356747 4.77713e+06 0 357576 4.78236e+06 0 358419 4.78765e+06 0 359276 4.793e+06 0 360147 4.79841e+06 0 361034 4.80389e+06 0 361936 4.80943e+06 0 362853 4.81503e+06 0 363788 4.82071e+06 0 364739 4.82645e+06 0 365708 4.83226e+06 0 366695 4.83815e+06 0 367701 4.84411e+06 0 368726 4.85014e+06 0 369772 4.85626e+06 0 370838 4.86245e+06 0 371925 4.86872e+06 0 373035 4.87507e+06 0 374168 4.88151e+06 0 375325 4.88804e+06 0 376507 4.89465e+06 0 377715 4.90136e+06 0 378949 4.90815e+06 0 380212 4.91505e+06 0 381505 4.92204e+06 0 382827 4.92914e+06 0 384182 4.93634e+06 0 385570 4.94364e+06 0 386993 4.95106e+06 0 388452 4.95859e+06 0 389949 4.96623e+06 0 391487 4.974e+06 0 393067 4.98189e+06 0 394691 4.98991e+06 0 396362 4.99806e+06 0 398082 5.00634e+06 0 399854 5.01477e+06 0 401681 5.02334e+06 0 403566 5.03206e+06 0 405513 5.04093e+06 0 407526 5.04997e+06 0 409609 5.05918e+06 0 411766 5.06855e+06 0 414004 5.07811e+06 0 416327 5.08785e+06 0 418742 5.09779e+06 0 421256 5.10793e+06 0 423877 5.11828e+06 0 426614 5.12884e+06 0 429476 5.13964e+06 0 432476 5.15067e+06 0 435625 5.16194e+06 0 438938 5.17347e+06 0 442432 5.18527e+06 0 446125 5.19734e+06 0 450040 5.20969e+06 0 454203 5.22234e+06 0 458641 5.23529e+06 0 463392 5.24854e+06 0 468495 5.26209e+06 0 474000 5.27593e+06 0 479964 5.29005e+06 0 486457 5.30441e+06 0 493564 5.31896e+06 0 501386 5.33362e+06 0 510050 5.34825e+06 0 519705 5.36266e+06 0 530554 5.37656e+06 0 345968 4.53703e+06 0 346545 4.53995e+06 0 347127 4.54289e+06 0 347716 4.54585e+06 0 348311 4.54884e+06 0 348913 4.55186e+06 0 349521 4.55489e+06 0 350136 4.55796e+06 0 350758 4.56105e+06 0 351387 4.56416e+06 0 352022 4.5673e+06 0 352665 4.57046e+06 0 353315 4.57366e+06 0 353973 4.57687e+06 0 354638 4.58012e+06 0 355310 4.58339e+06 0 355991 4.58669e+06 0 356679 4.59002e+06 0 357376 4.59338e+06 0 358080 4.59677e+06 0 358794 4.60018e+06 0 359515 4.60363e+06 0 360246 4.6071e+06 0 360985 4.61061e+06 0 361734 4.61415e+06 0 362491 4.61771e+06 0 363258 4.62131e+06 0 364035 4.62494e+06 0 364822 4.62861e+06 0 365618 4.6323e+06 0 366425 4.63603e+06 0 367242 4.6398e+06 0 368070 4.64359e+06 0 368909 4.64743e+06 0 369759 4.65129e+06 0 370620 4.6552e+06 0 371493 4.65914e+06 0 372378 4.66312e+06 0 373275 4.66713e+06 0 374184 4.67118e+06 0 375106 4.67527e+06 0 376041 4.6794e+06 0 376989 4.68357e+06 0 377950 4.68778e+06 0 378926 4.69203e+06 0 379916 4.69633e+06 0 380920 4.70066e+06 0 381939 4.70504e+06 0 382973 4.70946e+06 0 384024 4.71392e+06 0 385090 4.71843e+06 0 386172 4.72299e+06 0 387272 4.72759e+06 0 388388 4.73224e+06 0 389523 4.73694e+06 0 390676 4.74168e+06 0 391847 4.74648e+06 0 393038 4.75132e+06 0 394248 4.75622e+06 0 395479 4.76117e+06 0 396730 4.76617e+06 0 398003 4.77123e+06 0 399299 4.77634e+06 0 400616 4.78151e+06 0 401958 4.78673e+06 0 403323 4.79201e+06 0 404713 4.79736e+06 0 406129 4.80276e+06 0 407571 4.80822e+06 0 409041 4.81375e+06 0 410538 4.81934e+06 0 412065 4.82499e+06 0 413621 4.83071e+06 0 415209 4.8365e+06 0 416829 4.84236e+06 0 418481 4.84829e+06 0 420169 4.85429e+06 0 421891 4.86036e+06 0 423651 4.86651e+06 0 425448 4.87273e+06 0 427285 4.87904e+06 0 429164 4.88542e+06 0 431085 4.89188e+06 0 433050 4.89842e+06 0 435061 4.90506e+06 0 437121 4.91177e+06 0 439230 4.91858e+06 0 441391 4.92547e+06 0 443607 4.93246e+06 0 445879 4.93954e+06 0 448211 4.94672e+06 0 450604 4.954e+06 0 453062 4.96138e+06 0 455587 4.96886e+06 0 458183 4.97644e+06 0 460853 4.98414e+06 0 463602 4.99194e+06 0 466432 4.99986e+06 0 469348 5.00789e+06 0 472354 5.01604e+06 0 475456 5.02431e+06 0 478658 5.0327e+06 0 481966 5.04121e+06 0 485386 5.04985e+06 0 488925 5.05862e+06 0 492588 5.06752e+06 0 496384 5.07655e+06 0 500320 5.08571e+06 0 504405 5.09501e+06 0 508648 5.10444e+06 0 513059 5.11402e+06 0 517648 5.12372e+06 0 522426 5.13356e+06 0 527406 5.14354e+06 0 532600 5.15364e+06 0 538021 5.16387e+06 0 543683 5.17422e+06 0 549601 5.18468e+06 0 555787 5.19525e+06 0 562257 5.20591e+06 0 569024 5.21666e+06 0 576098 5.22749e+06 0 583490 5.23838e+06 0 591202 5.24932e+06 0 599232 5.26032e+06 0 607568 5.27139e+06 0 616181 5.28255e+06 0 625020 5.29386e+06 0 368303 4.53032e+06 0 369057 4.53317e+06 0 369820 4.53604e+06 0 370591 4.53894e+06 0 371370 4.54186e+06 0 372157 4.5448e+06 0 372954 4.54776e+06 0 373759 4.55075e+06 0 374573 4.55376e+06 0 375397 4.5568e+06 0 376229 4.55986e+06 0 377071 4.56294e+06 0 377923 4.56606e+06 0 378785 4.56919e+06 0 379656 4.57235e+06 0 380538 4.57554e+06 0 381430 4.57875e+06 0 382333 4.58199e+06 0 383246 4.58526e+06 0 384171 4.58856e+06 0 385106 4.59188e+06 0 386053 4.59523e+06 0 387012 4.59861e+06 0 387982 4.60201e+06 0 388964 4.60545e+06 0 389959 4.60891e+06 0 390966 4.61241e+06 0 391985 4.61593e+06 0 393018 4.61949e+06 0 394064 4.62307e+06 0 395124 4.62669e+06 0 396197 4.63034e+06 0 397284 4.63402e+06 0 398386 4.63773e+06 0 399503 4.64148e+06 0 400634 4.64526e+06 0 401781 4.64907e+06 0 402944 4.65292e+06 0 404122 4.6568e+06 0 405317 4.66071e+06 0 406529 4.66467e+06 0 407757 4.66866e+06 0 409003 4.67268e+06 0 410267 4.67674e+06 0 411549 4.68084e+06 0 412850 4.68498e+06 0 414170 4.68916e+06 0 415510 4.69337e+06 0 416870 4.69763e+06 0 418250 4.70192e+06 0 419651 4.70626e+06 0 421074 4.71064e+06 0 422519 4.71506e+06 0 423986 4.71952e+06 0 425477 4.72403e+06 0 426991 4.72858e+06 0 428530 4.73318e+06 0 430094 4.73782e+06 0 431683 4.7425e+06 0 433299 4.74724e+06 0 434942 4.75202e+06 0 436613 4.75685e+06 0 438313 4.76172e+06 0 440041 4.76665e+06 0 441800 4.77163e+06 0 443590 4.77666e+06 0 445412 4.78174e+06 0 447267 4.78687e+06 0 449156 4.79206e+06 0 451080 4.7973e+06 0 453039 4.8026e+06 0 455036 4.80795e+06 0 457070 4.81336e+06 0 459144 4.81883e+06 0 461258 4.82435e+06 0 463414 4.82994e+06 0 465614 4.83558e+06 0 467857 4.84129e+06 0 470147 4.84706e+06 0 472485 4.8529e+06 0 474871 4.8588e+06 0 477309 4.86476e+06 0 479799 4.87079e+06 0 482343 4.87689e+06 0 484943 4.88306e+06 0 487602 4.88929e+06 0 490322 4.8956e+06 0 493104 4.90198e+06 0 495951 4.90843e+06 0 498865 4.91495e+06 0 501849 4.92155e+06 0 504906 4.92822e+06 0 508038 4.93497e+06 0 511249 4.9418e+06 0 514541 4.9487e+06 0 517917 4.95569e+06 0 521382 4.96275e+06 0 524938 4.96989e+06 0 528589 4.97712e+06 0 532340 4.98442e+06 0 536194 4.99181e+06 0 540155 4.99927e+06 0 544229 5.00682e+06 0 548420 5.01445e+06 0 552732 5.02216e+06 0 557170 5.02995e+06 0 561741 5.03783e+06 0 566450 5.04578e+06 0 571301 5.0538e+06 0 576302 5.06191e+06 0 581458 5.07009e+06 0 586776 5.07834e+06 0 592261 5.08666e+06 0 597921 5.09504e+06 0 603761 5.10349e+06 0 609788 5.11199e+06 0 616009 5.12055e+06 0 622430 5.12915e+06 0 629058 5.1378e+06 0 635900 5.14649e+06 0 642960 5.1552e+06 0 650247 5.16394e+06 0 657768 5.17269e+06 0 665529 5.18144e+06 0 673541 5.19018e+06 0 681816 5.19888e+06 0 690371 5.20751e+06 0 699231 5.21603e+06 0 389966 4.52231e+06 0 390887 4.52508e+06 0 391819 4.52786e+06 0 392761 4.53067e+06 0 393713 4.53351e+06 0 394676 4.53636e+06 0 395649 4.53923e+06 0 396633 4.54213e+06 0 397627 4.54505e+06 0 398633 4.54799e+06 0 399651 4.55096e+06 0 400679 4.55395e+06 0 401720 4.55696e+06 0 402772 4.56e+06 0 403837 4.56306e+06 0 404914 4.56614e+06 0 406003 4.56925e+06 0 407105 4.57238e+06 0 408221 4.57554e+06 0 409349 4.57872e+06 0 410491 4.58193e+06 0 411647 4.58517e+06 0 412816 4.58843e+06 0 414000 4.59171e+06 0 415199 4.59503e+06 0 416412 4.59837e+06 0 417641 4.60174e+06 0 418884 4.60513e+06 0 420144 4.60856e+06 0 421419 4.61201e+06 0 422711 4.61549e+06 0 424020 4.619e+06 0 425345 4.62254e+06 0 426687 4.62611e+06 0 428048 4.62971e+06 0 429426 4.63334e+06 0 430823 4.637e+06 0 432238 4.64069e+06 0 433673 4.64441e+06 0 435127 4.64817e+06 0 436601 4.65195e+06 0 438095 4.65577e+06 0 439610 4.65962e+06 0 441147 4.66351e+06 0 442705 4.66743e+06 0 444286 4.67138e+06 0 445889 4.67537e+06 0 447515 4.67939e+06 0 449166 4.68345e+06 0 450840 4.68755e+06 0 452539 4.69168e+06 0 454264 4.69585e+06 0 456015 4.70005e+06 0 457792 4.70429e+06 0 459597 4.70857e+06 0 461430 4.71289e+06 0 463291 4.71725e+06 0 465182 4.72165e+06 0 467102 4.72609e+06 0 469053 4.73056e+06 0 471036 4.73508e+06 0 473051 4.73965e+06 0 475100 4.74425e+06 0 477182 4.74889e+06 0 479299 4.75358e+06 0 481452 4.75831e+06 0 483642 4.76309e+06 0 485869 4.76791e+06 0 488135 4.77278e+06 0 490441 4.77769e+06 0 492788 4.78265e+06 0 495176 4.78765e+06 0 497608 4.7927e+06 0 500084 4.7978e+06 0 502605 4.80295e+06 0 505174 4.80814e+06 0 507790 4.81339e+06 0 510456 4.81868e+06 0 513173 4.82403e+06 0 515943 4.82942e+06 0 518767 4.83487e+06 0 521646 4.84037e+06 0 524583 4.84592e+06 0 527578 4.85152e+06 0 530635 4.85718e+06 0 533754 4.86288e+06 0 536938 4.86865e+06 0 540188 4.87446e+06 0 543507 4.88033e+06 0 546897 4.88626e+06 0 550360 4.89223e+06 0 553898 4.89827e+06 0 557514 4.90435e+06 0 561210 4.9105e+06 0 564989 4.91669e+06 0 568853 4.92295e+06 0 572805 4.92925e+06 0 576849 4.93561e+06 0 580986 4.94202e+06 0 585219 4.94849e+06 0 589553 4.95501e+06 0 593989 4.96158e+06 0 598532 4.9682e+06 0 603184 4.97487e+06 0 607949 4.98159e+06 0 612830 4.98836e+06 0 617832 4.99517e+06 0 622956 5.00203e+06 0 628208 5.00893e+06 0 633591 5.01586e+06 0 639107 5.02284e+06 0 644762 5.02985e+06 0 650559 5.03689e+06 0 656500 5.04397e+06 0 662591 5.05106e+06 0 668835 5.05818e+06 0 675234 5.06532e+06 0 681792 5.07247e+06 0 688513 5.07963e+06 0 695399 5.0868e+06 0 702453 5.09396e+06 0 709678 5.10112e+06 0 717073 5.10827e+06 0 724642 5.1154e+06 0 732382 5.12251e+06 0 740291 5.12961e+06 0 748365 5.13668e+06 0 756593 5.14375e+06 0 410858 4.51308e+06 0 411936 4.51575e+06 0 413025 4.51844e+06 0 414126 4.52116e+06 0 415239 4.52389e+06 0 416364 4.52664e+06 0 417501 4.52941e+06 0 418650 4.53221e+06 0 419812 4.53502e+06 0 420986 4.53786e+06 0 422174 4.54071e+06 0 423375 4.54359e+06 0 424589 4.54649e+06 0 425817 4.54941e+06 0 427059 4.55235e+06 0 428315 4.55532e+06 0 429586 4.55831e+06 0 430871 4.56132e+06 0 432171 4.56435e+06 0 433486 4.56741e+06 0 434817 4.57049e+06 0 436163 4.57359e+06 0 437526 4.57672e+06 0 438904 4.57987e+06 0 440299 4.58305e+06 0 441711 4.58625e+06 0 443140 4.58947e+06 0 444587 4.59272e+06 0 446052 4.596e+06 0 447534 4.5993e+06 0 449035 4.60262e+06 0 450555 4.60598e+06 0 452095 4.60936e+06 0 453653 4.61276e+06 0 455232 4.6162e+06 0 456831 4.61966e+06 0 458451 4.62314e+06 0 460091 4.62666e+06 0 461754 4.6302e+06 0 463438 4.63377e+06 0 465145 4.63737e+06 0 466875 4.641e+06 0 468628 4.64466e+06 0 470404 4.64835e+06 0 472205 4.65206e+06 0 474031 4.65581e+06 0 475883 4.65959e+06 0 477760 4.66339e+06 0 479663 4.66723e+06 0 481594 4.6711e+06 0 483552 4.675e+06 0 485538 4.67894e+06 0 487553 4.6829e+06 0 489597 4.6869e+06 0 491671 4.69093e+06 0 493776 4.695e+06 0 495912 4.69909e+06 0 498081 4.70322e+06 0 500282 4.70739e+06 0 502516 4.71159e+06 0 504785 4.71582e+06 0 507090 4.72009e+06 0 509430 4.72439e+06 0 511806 4.72873e+06 0 514221 4.7331e+06 0 516673 4.73751e+06 0 519166 4.74196e+06 0 521698 4.74644e+06 0 524272 4.75096e+06 0 526888 4.75552e+06 0 529548 4.76011e+06 0 532252 4.76475e+06 0 535001 4.76941e+06 0 537797 4.77412e+06 0 540641 4.77887e+06 0 543534 4.78365e+06 0 546476 4.78847e+06 0 549471 4.79334e+06 0 552518 4.79824e+06 0 555619 4.80318e+06 0 558775 4.80815e+06 0 561989 4.81317e+06 0 565260 4.81823e+06 0 568592 4.82332e+06 0 571985 4.82846e+06 0 575440 4.83363e+06 0 578961 4.83885e+06 0 582547 4.8441e+06 0 586201 4.84939e+06 0 589925 4.85472e+06 0 593721 4.86008e+06 0 597590 4.86549e+06 0 601534 4.87093e+06 0 605555 4.87641e+06 0 609655 4.88193e+06 0 613836 4.88748e+06 0 618100 4.89307e+06 0 622450 4.89869e+06 0 626887 4.90435e+06 0 631413 4.91004e+06 0 636032 4.91576e+06 0 640744 4.92151e+06 0 645552 4.92729e+06 0 650458 4.9331e+06 0 655466 4.93894e+06 0 660576 4.9448e+06 0 665792 4.95069e+06 0 671115 4.9566e+06 0 676548 4.96253e+06 0 682093 4.96847e+06 0 687753 4.97444e+06 0 693529 4.98042e+06 0 699424 4.9864e+06 0 705439 4.9924e+06 0 711578 4.99841e+06 0 717841 5.00442e+06 0 724231 5.01042e+06 0 730750 5.01643e+06 0 737398 5.02243e+06 0 744179 5.02842e+06 0 751093 5.0344e+06 0 758141 5.04037e+06 0 765326 5.04631e+06 0 772648 5.05224e+06 0 780109 5.05813e+06 0 787712 5.06399e+06 0 795460 5.06981e+06 0 803357 5.07557e+06 0 430900 4.50273e+06 0 432122 4.5053e+06 0 433355 4.50789e+06 0 434602 4.51049e+06 0 435862 4.51311e+06 0 437135 4.51576e+06 0 438422 4.51841e+06 0 439722 4.52109e+06 0 441037 4.52379e+06 0 442365 4.52651e+06 0 443708 4.52924e+06 0 445065 4.532e+06 0 446438 4.53477e+06 0 447825 4.53757e+06 0 449228 4.54038e+06 0 450646 4.54322e+06 0 452081 4.54607e+06 0 453531 4.54895e+06 0 454998 4.55185e+06 0 456481 4.55476e+06 0 457981 4.5577e+06 0 459499 4.56066e+06 0 461034 4.56364e+06 0 462587 4.56665e+06 0 464158 4.56967e+06 0 465747 4.57272e+06 0 467356 4.57578e+06 0 468983 4.57888e+06 0 470630 4.58199e+06 0 472296 4.58512e+06 0 473983 4.58828e+06 0 475690 4.59147e+06 0 477418 4.59467e+06 0 479167 4.5979e+06 0 480937 4.60115e+06 0 482730 4.60443e+06 0 484545 4.60773e+06 0 486383 4.61105e+06 0 488244 4.6144e+06 0 490129 4.61778e+06 0 492038 4.62118e+06 0 493971 4.6246e+06 0 495930 4.62805e+06 0 497914 4.63152e+06 0 499924 4.63502e+06 0 501961 4.63855e+06 0 504024 4.6421e+06 0 506115 4.64568e+06 0 508234 4.64928e+06 0 510382 4.65291e+06 0 512559 4.65657e+06 0 514766 4.66025e+06 0 517003 4.66397e+06 0 519271 4.66771e+06 0 521571 4.67147e+06 0 523903 4.67527e+06 0 526268 4.67909e+06 0 528666 4.68294e+06 0 531099 4.68681e+06 0 533566 4.69072e+06 0 536070 4.69465e+06 0 538609 4.69862e+06 0 541186 4.70261e+06 0 543801 4.70663e+06 0 546455 4.71068e+06 0 549148 4.71475e+06 0 551881 4.71886e+06 0 554656 4.723e+06 0 557473 4.72716e+06 0 560333 4.73136e+06 0 563237 4.73558e+06 0 566186 4.73984e+06 0 569181 4.74412e+06 0 572223 4.74843e+06 0 575313 4.75277e+06 0 578451 4.75714e+06 0 581640 4.76154e+06 0 584880 4.76597e+06 0 588172 4.77043e+06 0 591517 4.77492e+06 0 594917 4.77943e+06 0 598372 4.78398e+06 0 601884 4.78855e+06 0 605455 4.79315e+06 0 609084 4.79778e+06 0 612775 4.80244e+06 0 616527 4.80712e+06 0 620343 4.81183e+06 0 624224 4.81657e+06 0 628170 4.82134e+06 0 632184 4.82613e+06 0 636267 4.83094e+06 0 640420 4.83578e+06 0 644644 4.84064e+06 0 648943 4.84553e+06 0 653315 4.85044e+06 0 657764 4.85537e+06 0 662291 4.86032e+06 0 666897 4.86529e+06 0 671584 4.87028e+06 0 676354 4.87529e+06 0 681207 4.88031e+06 0 686146 4.88535e+06 0 691171 4.8904e+06 0 696286 4.89547e+06 0 701490 4.90055e+06 0 706786 4.90564e+06 0 712175 4.91073e+06 0 717659 4.91584e+06 0 723239 4.92094e+06 0 728916 4.92606e+06 0 734692 4.93117e+06 0 740568 4.93628e+06 0 746546 4.94139e+06 0 752626 4.94649e+06 0 758810 4.95159e+06 0 765099 4.95668e+06 0 771494 4.96176e+06 0 777996 4.96682e+06 0 784606 4.97187e+06 0 791325 4.97689e+06 0 798152 4.9819e+06 0 805090 4.98688e+06 0 812138 4.99183e+06 0 819296 4.99675e+06 0 826563 5.00165e+06 0 833940 5.00651e+06 0 841424 5.01133e+06 0 450027 4.49138e+06 0 451378 4.49383e+06 0 452743 4.4963e+06 0 454122 4.49879e+06 0 455515 4.5013e+06 0 456923 4.50382e+06 0 458345 4.50635e+06 0 459781 4.50891e+06 0 461233 4.51148e+06 0 462700 4.51407e+06 0 464182 4.51668e+06 0 465680 4.5193e+06 0 467194 4.52194e+06 0 468724 4.5246e+06 0 470271 4.52728e+06 0 471834 4.52998e+06 0 473414 4.53269e+06 0 475012 4.53542e+06 0 476627 4.53817e+06 0 478259 4.54094e+06 0 479910 4.54373e+06 0 481579 4.54654e+06 0 483266 4.54936e+06 0 484973 4.55221e+06 0 486699 4.55507e+06 0 488444 4.55796e+06 0 490209 4.56086e+06 0 491995 4.56378e+06 0 493801 4.56672e+06 0 495627 4.56968e+06 0 497475 4.57267e+06 0 499345 4.57567e+06 0 501236 4.57869e+06 0 503150 4.58173e+06 0 505087 4.5848e+06 0 507046 4.58788e+06 0 509029 4.59098e+06 0 511036 4.59411e+06 0 513068 4.59726e+06 0 515123 4.60042e+06 0 517204 4.60361e+06 0 519311 4.60682e+06 0 521444 4.61005e+06 0 523603 4.61331e+06 0 525789 4.61658e+06 0 528002 4.61988e+06 0 530244 4.6232e+06 0 532514 4.62654e+06 0 534812 4.6299e+06 0 537141 4.63328e+06 0 539499 4.63669e+06 0 541888 4.64012e+06 0 544307 4.64357e+06 0 546759 4.64704e+06 0 549242 4.65054e+06 0 551759 4.65406e+06 0 554309 4.6576e+06 0 556893 4.66116e+06 0 559511 4.66475e+06 0 562165 4.66836e+06 0 564855 4.67199e+06 0 567582 4.67565e+06 0 570345 4.67933e+06 0 573147 4.68303e+06 0 575988 4.68675e+06 0 578868 4.6905e+06 0 581788 4.69426e+06 0 584749 4.69806e+06 0 587752 4.70187e+06 0 590798 4.70571e+06 0 593886 4.70956e+06 0 597019 4.71344e+06 0 600197 4.71735e+06 0 603421 4.72127e+06 0 606691 4.72522e+06 0 610009 4.72919e+06 0 613375 4.73318e+06 0 616791 4.73719e+06 0 620257 4.74122e+06 0 623774 4.74527e+06 0 627343 4.74935e+06 0 630966 4.75344e+06 0 634642 4.75755e+06 0 638374 4.76169e+06 0 642161 4.76584e+06 0 646006 4.77001e+06 0 649909 4.7742e+06 0 653871 4.77841e+06 0 657894 4.78263e+06 0 661978 4.78687e+06 0 666124 4.79112e+06 0 670333 4.7954e+06 0 674607 4.79968e+06 0 678947 4.80398e+06 0 683354 4.8083e+06 0 687828 4.81262e+06 0 692371 4.81696e+06 0 696985 4.82131e+06 0 701669 4.82567e+06 0 706426 4.83004e+06 0 711256 4.83441e+06 0 716161 4.83879e+06 0 721141 4.84318e+06 0 726197 4.84758e+06 0 731332 4.85197e+06 0 736544 4.85637e+06 0 741837 4.86077e+06 0 747210 4.86517e+06 0 752665 4.86957e+06 0 758202 4.87396e+06 0 763823 4.87835e+06 0 769528 4.88273e+06 0 775318 4.88711e+06 0 781194 4.89147e+06 0 787157 4.89583e+06 0 793208 4.90017e+06 0 799346 4.90449e+06 0 805574 4.9088e+06 0 811890 4.91309e+06 0 818296 4.91736e+06 0 824793 4.92161e+06 0 831380 4.92583e+06 0 838058 4.93003e+06 0 844828 4.9342e+06 0 851689 4.93834e+06 0 858642 4.94244e+06 0 865687 4.94651e+06 0 872826 4.95054e+06 0 468190 4.47912e+06 0 469658 4.48145e+06 0 471140 4.4838e+06 0 472637 4.48617e+06 0 474150 4.48855e+06 0 475677 4.49094e+06 0 477219 4.49335e+06 0 478777 4.49578e+06 0 480351 4.49822e+06 0 481941 4.50068e+06 0 483547 4.50315e+06 0 485169 4.50563e+06 0 486808 4.50814e+06 0 488464 4.51066e+06 0 490138 4.51319e+06 0 491828 4.51574e+06 0 493537 4.51831e+06 0 495263 4.52089e+06 0 497008 4.52349e+06 0 498771 4.5261e+06 0 500553 4.52873e+06 0 502353 4.53138e+06 0 504174 4.53404e+06 0 506014 4.53673e+06 0 507873 4.53942e+06 0 509754 4.54214e+06 0 511654 4.54487e+06 0 513576 4.54762e+06 0 515518 4.55038e+06 0 517483 4.55316e+06 0 519469 4.55596e+06 0 521477 4.55878e+06 0 523508 4.56161e+06 0 525562 4.56447e+06 0 527639 4.56733e+06 0 529740 4.57022e+06 0 531864 4.57312e+06 0 534013 4.57605e+06 0 536187 4.57899e+06 0 538386 4.58194e+06 0 540611 4.58492e+06 0 542862 4.58791e+06 0 545139 4.59092e+06 0 547443 4.59395e+06 0 549774 4.597e+06 0 552133 4.60006e+06 0 554520 4.60314e+06 0 556936 4.60624e+06 0 559381 4.60936e+06 0 561855 4.6125e+06 0 564360 4.61565e+06 0 566895 4.61883e+06 0 569461 4.62202e+06 0 572059 4.62523e+06 0 574689 4.62845e+06 0 577352 4.6317e+06 0 580047 4.63496e+06 0 582777 4.63824e+06 0 585541 4.64154e+06 0 588339 4.64486e+06 0 591173 4.64819e+06 0 594044 4.65154e+06 0 596950 4.65491e+06 0 599894 4.6583e+06 0 602876 4.66171e+06 0 605897 4.66513e+06 0 608956 4.66857e+06 0 612056 4.67202e+06 0 615195 4.6755e+06 0 618376 4.67899e+06 0 621599 4.68249e+06 0 624864 4.68602e+06 0 628172 4.68955e+06 0 631525 4.69311e+06 0 634921 4.69668e+06 0 638364 4.70026e+06 0 641852 4.70386e+06 0 645387 4.70748e+06 0 648969 4.71111e+06 0 652600 4.71475e+06 0 656280 4.71841e+06 0 660010 4.72208e+06 0 663791 4.72576e+06 0 667623 4.72946e+06 0 671507 4.73317e+06 0 675444 4.73689e+06 0 679435 4.74062e+06 0 683480 4.74436e+06 0 687581 4.74811e+06 0 691739 4.75187e+06 0 695953 4.75564e+06 0 700225 4.75942e+06 0 704556 4.76321e+06 0 708947 4.767e+06 0 713398 4.7708e+06 0 717909 4.7746e+06 0 722483 4.77841e+06 0 727120 4.78223e+06 0 731820 4.78604e+06 0 736584 4.78986e+06 0 741414 4.79368e+06 0 746309 4.7975e+06 0 751271 4.80131e+06 0 756301 4.80513e+06 0 761398 4.80894e+06 0 766564 4.81275e+06 0 771800 4.81656e+06 0 777105 4.82035e+06 0 782482 4.82415e+06 0 787930 4.82793e+06 0 793450 4.8317e+06 0 799042 4.83546e+06 0 804707 4.83921e+06 0 810446 4.84294e+06 0 816259 4.84666e+06 0 822147 4.85037e+06 0 828109 4.85405e+06 0 834147 4.85771e+06 0 840261 4.86136e+06 0 846450 4.86498e+06 0 852715 4.86858e+06 0 859057 4.87215e+06 0 865475 4.87569e+06 0 871969 4.87921e+06 0 878540 4.88269e+06 0 885188 4.88615e+06 0 891912 4.88957e+06 0 898711 4.89295e+06 0 485354 4.46606e+06 0 486926 4.46827e+06 0 488512 4.47049e+06 0 490114 4.47273e+06 0 491731 4.47498e+06 0 493364 4.47725e+06 0 495013 4.47953e+06 0 496677 4.48182e+06 0 498358 4.48412e+06 0 500056 4.48644e+06 0 501770 4.48878e+06 0 503501 4.49112e+06 0 505249 4.49348e+06 0 507015 4.49585e+06 0 508798 4.49824e+06 0 510600 4.50064e+06 0 512419 4.50306e+06 0 514257 4.50549e+06 0 516113 4.50793e+06 0 517989 4.51039e+06 0 519883 4.51286e+06 0 521797 4.51534e+06 0 523731 4.51784e+06 0 525685 4.52036e+06 0 527659 4.52289e+06 0 529653 4.52543e+06 0 531669 4.52798e+06 0 533706 4.53056e+06 0 535764 4.53314e+06 0 537844 4.53574e+06 0 539946 4.53836e+06 0 542071 4.54099e+06 0 544218 4.54363e+06 0 546389 4.54629e+06 0 548583 4.54896e+06 0 550801 4.55165e+06 0 553043 4.55435e+06 0 555309 4.55707e+06 0 557600 4.5598e+06 0 559917 4.56255e+06 0 562259 4.56531e+06 0 564627 4.56808e+06 0 567021 4.57088e+06 0 569442 4.57368e+06 0 571890 4.5765e+06 0 574366 4.57933e+06 0 576870 4.58218e+06 0 579402 4.58505e+06 0 581962 4.58792e+06 0 584553 4.59082e+06 0 587172 4.59372e+06 0 589822 4.59664e+06 0 592502 4.59958e+06 0 595214 4.60253e+06 0 597957 4.60549e+06 0 600731 4.60847e+06 0 603538 4.61146e+06 0 606378 4.61447e+06 0 609252 4.61748e+06 0 612159 4.62052e+06 0 615101 4.62356e+06 0 618077 4.62662e+06 0 621089 4.62969e+06 0 624137 4.63278e+06 0 627222 4.63588e+06 0 630343 4.63899e+06 0 633502 4.64211e+06 0 636699 4.64525e+06 0 639934 4.6484e+06 0 643209 4.65156e+06 0 646524 4.65473e+06 0 649879 4.65791e+06 0 653274 4.6611e+06 0 656712 4.66431e+06 0 660191 4.66752e+06 0 663713 4.67075e+06 0 667278 4.67398e+06 0 670888 4.67723e+06 0 674541 4.68048e+06 0 678240 4.68375e+06 0 681984 4.68702e+06 0 685775 4.6903e+06 0 689613 4.69358e+06 0 693498 4.69688e+06 0 697431 4.70018e+06 0 701414 4.70348e+06 0 705445 4.7068e+06 0 709527 4.71011e+06 0 713659 4.71344e+06 0 717843 4.71676e+06 0 722078 4.72009e+06 0 726366 4.72342e+06 0 730707 4.72676e+06 0 735102 4.7301e+06 0 739551 4.73343e+06 0 744055 4.73677e+06 0 748614 4.74011e+06 0 753230 4.74344e+06 0 757902 4.74678e+06 0 762632 4.75011e+06 0 767419 4.75344e+06 0 772265 4.75676e+06 0 777169 4.76008e+06 0 782133 4.76339e+06 0 787156 4.76669e+06 0 792240 4.76999e+06 0 797385 4.77327e+06 0 802591 4.77655e+06 0 807858 4.77982e+06 0 813188 4.78307e+06 0 818580 4.78631e+06 0 824035 4.78954e+06 0 829553 4.79275e+06 0 835135 4.79594e+06 0 840781 4.79912e+06 0 846490 4.80228e+06 0 852264 4.80542e+06 0 858103 4.80854e+06 0 864006 4.81163e+06 0 869973 4.81471e+06 0 876006 4.81775e+06 0 882104 4.82077e+06 0 888267 4.82377e+06 0 894495 4.82674e+06 0 900788 4.82967e+06 0 907147 4.83258e+06 0 913570 4.83545e+06 0 920059 4.83829e+06 0 501501 4.4523e+06 0 503163 4.45439e+06 0 504840 4.45649e+06 0 506533 4.4586e+06 0 508242 4.46072e+06 0 509967 4.46285e+06 0 511708 4.46499e+06 0 513465 4.46715e+06 0 515238 4.46932e+06 0 517029 4.47149e+06 0 518836 4.47369e+06 0 520661 4.47589e+06 0 522503 4.4781e+06 0 524363 4.48033e+06 0 526240 4.48257e+06 0 528136 4.48482e+06 0 530050 4.48708e+06 0 531983 4.48935e+06 0 533934 4.49164e+06 0 535904 4.49394e+06 0 537894 4.49625e+06 0 539904 4.49857e+06 0 541933 4.50091e+06 0 543982 4.50325e+06 0 546052 4.50561e+06 0 548143 4.50798e+06 0 550254 4.51036e+06 0 552387 4.51276e+06 0 554541 4.51517e+06 0 556716 4.51758e+06 0 558914 4.52002e+06 0 561135 4.52246e+06 0 563377 4.52491e+06 0 565643 4.52738e+06 0 567932 4.52986e+06 0 570245 4.53235e+06 0 572582 4.53485e+06 0 574943 4.53737e+06 0 577328 4.5399e+06 0 579738 4.54243e+06 0 582174 4.54498e+06 0 584635 4.54755e+06 0 587122 4.55012e+06 0 589635 4.55271e+06 0 592175 4.5553e+06 0 594742 4.55791e+06 0 597336 4.56053e+06 0 599958 4.56316e+06 0 602608 4.56581e+06 0 605287 4.56846e+06 0 607994 4.57113e+06 0 610731 4.5738e+06 0 613497 4.57649e+06 0 616294 4.57919e+06 0 619120 4.5819e+06 0 621978 4.58462e+06 0 624867 4.58735e+06 0 627787 4.59009e+06 0 630740 4.59284e+06 0 633725 4.5956e+06 0 636743 4.59837e+06 0 639794 4.60115e+06 0 642879 4.60393e+06 0 645999 4.60673e+06 0 649153 4.60954e+06 0 652343 4.61236e+06 0 655568 4.61518e+06 0 658829 4.61801e+06 0 662126 4.62085e+06 0 665461 4.6237e+06 0 668833 4.62656e+06 0 672243 4.62942e+06 0 675691 4.63229e+06 0 679179 4.63517e+06 0 682705 4.63805e+06 0 686272 4.64094e+06 0 689878 4.64384e+06 0 693526 4.64674e+06 0 697215 4.64965e+06 0 700946 4.65256e+06 0 704719 4.65547e+06 0 708534 4.65839e+06 0 712393 4.66131e+06 0 716296 4.66424e+06 0 720242 4.66717e+06 0 724234 4.6701e+06 0 728270 4.67303e+06 0 732353 4.67596e+06 0 736481 4.67889e+06 0 740656 4.68183e+06 0 744878 4.68476e+06 0 749147 4.68769e+06 0 753465 4.69062e+06 0 757830 4.69355e+06 0 762245 4.69647e+06 0 766709 4.69939e+06 0 771222 4.70231e+06 0 775786 4.70522e+06 0 780401 4.70813e+06 0 785066 4.71103e+06 0 789782 4.71392e+06 0 794551 4.71681e+06 0 799371 4.71968e+06 0 804244 4.72255e+06 0 809170 4.72541e+06 0 814149 4.72826e+06 0 819181 4.73109e+06 0 824267 4.73391e+06 0 829407 4.73672e+06 0 834602 4.73952e+06 0 839851 4.7423e+06 0 845155 4.74506e+06 0 850513 4.74781e+06 0 855927 4.75054e+06 0 861397 4.75325e+06 0 866922 4.75594e+06 0 872502 4.75861e+06 0 878139 4.76126e+06 0 883831 4.76388e+06 0 889579 4.76649e+06 0 895383 4.76906e+06 0 901243 4.77162e+06 0 907159 4.77414e+06 0 913131 4.77664e+06 0 919159 4.77911e+06 0 925242 4.78155e+06 0 931382 4.78395e+06 0 937576 4.78633e+06 0 516620 4.43795e+06 0 518361 4.43991e+06 0 520117 4.44188e+06 0 521888 4.44386e+06 0 523676 4.44585e+06 0 525479 4.44785e+06 0 527299 4.44986e+06 0 529135 4.45187e+06 0 530988 4.4539e+06 0 532857 4.45594e+06 0 534744 4.45799e+06 0 536648 4.46005e+06 0 538569 4.46212e+06 0 540509 4.4642e+06 0 542465 4.46629e+06 0 544441 4.46839