<?xml version="1.0"?> 
<VTKFile type="StructuredGrid" version="0.1"> 
<StructuredGrid WholeExtent="0 127 0 127 0 0"> 
<Piece Extent="0 127 0 127 0 0"> 
<PointData>
<DataArray type="Float32" Name="u" format="ascii" NumberOfComponents="3"> 
-1.03351e+06 0 0 -1.03351e+06 0 0 -1.03351e+06 0 0 -1.03351e+06 0 0 -1.03351e+06 0 0 -1.03351e+06 0 0 -1.0335e+06 0 0 -1.0335e+06 0 0 -1.0335e+06 0 0 -1.0335e+06 0 0 -1.03349e+06 0 0 -1.03349e+06 0 0 -1.03348e+06 0 0 -1.03348e+06 0 0 -1.03347e+06 0 0 -1.03347e+06 0 0 -1.03346e+06 0 0 -1.03346e+06 0 0 -1.03345e+06 0 0 -1.03344e+06 0 0 -1.03343e+06 0 0 -1.03343e+06 0 0 -1.03342e+06 0 0 -1.03341e+06 0 0 -1.0334e+06 0 0 -1.03339e+06 0 0 -1.03338e+06 0 0 -1.03337e+06 0 0 -1.03336e+06 0 0 -1.03335e+06 0 0 -1.03334e+06 0 0 -1.03332e+06 0 0 -1.03331e+06 0 0 -1.0333e+06 0 0 -1.03329e+06 0 0 -1.03327e+06 0 0 -1.03326e+06 0 0 -1.03324e+06 0 0 -1.03323e+06 0 0 -1.03321e+06 0 0 -1.0332e+06 0 0 -1.03318e+06 0 0 -1.03317e+06 0 0 -1.03315e+06 0 0 -1.03313e+06 0 0 -1.03311e+06 0 0 -1.0331e+06 0 0 -1.03308e+06 0 0 -1.03306e+06 0 0 -1.03304e+06 0 0 -1.03302e+06 0 0 -1.033e+06 0 0 -1.03298e+06 0 0 -1.03296e+06 0 0 -1.03293e+06 0 0 -1.03291e+06 0 0 -1.03289e+06 0 0 -1.03287e+06 0 0 -1.03284e+06 0 0 -1.03282e+06 0 0 -1.0328e+06 0 0 -1.03277e+06 0 0 -1.03275e+06 0 0 -1.03272e+06 0 0 -1.03269e+06 0 0 -1.03267e+06 0 0 -1.03264e+06 0 0 -1.03261e+06 0 0 -1.03259e+06 0 0 -1.03256e+06 0 0 -1.03253e+06 0 0 -1.0325e+06 0 0 -1.03247e+06 0 0 -1.03244e+06 0 0 -1.03241e+06 0 0 -1.03238e+06 0 0 -1.03235e+06 0 0 -1.03231e+06 0 0 -1.03228e+06 0 0 -1.03225e+06 0 0 -1.03221e+06 0 0 -1.03218e+06 0 0 -1.03214e+06 0 0 -1.03211e+06 0 0 -1.03207e+06 0 0 -1.03204e+06 0 0 -1.032e+06 0 0 -1.03196e+06 0 0 -1.03193e+06 0 0 -1.03189e+06 0 0 -1.03185e+06 0 0 -1.03181e+06 0 0 -1.03177e+06 0 0 -1.03173e+06 0 0 -1.03169e+06 0 0 -1.03165e+06 0 0 -1.0316e+06 0 0 -1.03156e+06 0 0 -1.03152e+06 0 0 -1.03147e+06 0 0 -1.03143e+06 0 0 -1.03139e+06 0 0 -1.03134e+06 0 0 -1.03129e+06 0 0 -1.03125e+06 0 0 -1.0312e+06 0 0 -1.03115e+06 0 0 -1.0311e+06 0 0 -1.03105e+06 0 0 -1.03101e+06 0 0 -1.03095e+06 0 0 -1.0309e+06 0 0 -1.03085e+06 0 0 -1.0308e+06 0 0 -1.03075e+06 0 0 -1.0307e+06 0 0 -1.03064e+06 0 0 -1.03059e+06 0 0 -1.03053e+06 0 0 -1.03048e+06 0 0 -1.03042e+06 0 0 -1.03036e+06 0 0 -1.0303e+06 0 0 -1.03025e+06 0 0 -1.03019e+06 0 0 -1.03013e+06 0 0 -1.03007e+06 0 0 -1.03001e+06 0 0 -1.03352e+06 -1.16415e-09 0 -1.03352e+06 1.77847 0 -1.03351e+06 3.5571 0 -1.03351e+06 5.33606 0 -1.03351e+06 7.1155 0 -1.03351e+06 8.89559 0 -1.03351e+06 10.6765 0 -1.03351e+06 12.4584 0 -1.0335e+06 14.2414 0 -1.0335e+06 16.0256 0 -1.0335e+06 17.8114 0 -1.03349e+06 19.5988 0 -1.03349e+06 21.3879 0 -1.03348e+06 23.179 0 -1.03348e+06 24.9722 0 -1.03347e+06 26.7676 0 -1.03347e+06 28.5655 0 -1.03346e+06 30.366 0 -1.03345e+06 32.1692 0 -1.03345e+06 33.9754 0 -1.03344e+06 35.7846 0 -1.03343e+06 37.597 0 -1.03342e+06 39.4129 0 -1.03341e+06 41.2323 0 -1.0334e+06 43.0555 0 -1.03339e+06 44.8825 0 -1.03338e+06 46.7136 0 -1.03337e+06 48.5489 0 -1.03336e+06 50.3886 0 -1.03335e+06 52.2328 0 -1.03334e+06 54.0818 0 -1.03333e+06 55.9356 0 -1.03332e+06 57.7944 0 -1.0333e+06 59.6585 0 -1.03329e+06 61.5279 0 -1.03328e+06 63.4028 0 -1.03326e+06 65.2834 0 -1.03325e+06 67.1699 0 -1.03323e+06 69.0624 0 -1.03322e+06 70.961 0 -1.0332e+06 72.8661 0 -1.03319e+06 74.7776 0 -1.03317e+06 76.6958 0 -1.03315e+06 78.6209 0 -1.03314e+06 80.5529 0 -1.03312e+06 82.4922 0 -1.0331e+06 84.4387 0 -1.03308e+06 86.3928 0 -1.03306e+06 88.3546 0 -1.03304e+06 90.3242 0 -1.03302e+06 92.3018 0 -1.033e+06 94.2876 0 -1.03298e+06 96.2817 0 -1.03296e+06 98.2843 0 -1.03294e+06 100.296 0 -1.03292e+06 102.316 0 -1.0329e+06 104.345 0 -1.03287e+06 106.383 0 -1.03285e+06 108.431 0 -1.03283e+06 110.488 0 -1.0328e+06 112.555 0 -1.03278e+06 114.632 0 -1.03275e+06 116.718 0 -1.03273e+06 118.815 0 -1.0327e+06 120.922 0 -1.03267e+06 123.04 0 -1.03265e+06 125.169 0 -1.03262e+06 127.308 0 -1.03259e+06 129.458 0 -1.03256e+06 131.62 0 -1.03253e+06 133.793 0 -1.0325e+06 135.977 0 -1.03247e+06 138.174 0 -1.03244e+06 140.382 0 -1.03241e+06 142.602 0 -1.03238e+06 144.834 0 -1.03235e+06 147.079 0 -1.03232e+06 149.336 0 -1.03229e+06 151.607 0 -1.03225e+06 153.89 0 -1.03222e+06 156.186 0 -1.03218e+06 158.495 0 -1.03215e+06 160.818 0 -1.03211e+06 163.154 0 -1.03208e+06 165.504 0 -1.03204e+06 167.869 0 -1.03201e+06 170.247 0 -1.03197e+06 172.639 0 -1.03193e+06 175.046 0 -1.03189e+06 177.468 0 -1.03185e+06 179.905 0 -1.03181e+06 182.356 0 -1.03177e+06 184.823 0 -1.03173e+06 187.305 0 -1.03169e+06 189.802 0 -1.03165e+06 192.316 0 -1.03161e+06 194.845 0 -1.03157e+06 197.39 0 -1.03152e+06 199.951 0 -1.03148e+06 202.529 0 -1.03144e+06 205.123 0 -1.03139e+06 207.734 0 -1.03135e+06 210.362 0 -1.0313e+06 213.007 0 -1.03125e+06 215.67 0 -1.03121e+06 218.35 0 -1.03116e+06 221.047 0 -1.03111e+06 223.762 0 -1.03106e+06 226.495 0 -1.03101e+06 229.247 0 -1.03096e+06 232.017 0 -1.03091e+06 234.805 0 -1.03086e+06 237.612 0 -1.03081e+06 240.437 0 -1.03075e+06 243.282 0 -1.0307e+06 246.146 0 -1.03065e+06 249.03 0 -1.03059e+06 251.933 0 -1.03054e+06 254.855 0 -1.03048e+06 257.798 0 -1.03043e+06 260.761 0 -1.03037e+06 263.744 0 -1.03031e+06 266.747 0 -1.03025e+06 269.771 0 -1.03019e+06 272.816 0 -1.03013e+06 275.882 0 -1.03007e+06 278.969 0 -1.03001e+06 282.077 0 -1.03353e+06 -4.65661e-10 0 -1.03353e+06 3.55352 0 -1.03353e+06 7.10737 0 -1.03353e+06 10.6619 0 -1.03352e+06 14.2173 0 -1.03352e+06 17.7741 0 -1.03352e+06 21.3324 0 -1.03352e+06 24.8928 0 -1.03352e+06 28.4553 0 -1.03351e+06 32.0205 0 -1.03351e+06 35.5886 0 -1.0335e+06 39.1599 0 -1.0335e+06 42.7347 0 -1.0335e+06 46.3135 0 -1.03349e+06 49.8964 0 -1.03348e+06 53.4839 0 -1.03348e+06 57.0762 0 -1.03347e+06 60.6738 0 -1.03347e+06 64.2768 0 -1.03346e+06 67.8856 0 -1.03345e+06 71.5006 0 -1.03344e+06 75.1221 0 -1.03343e+06 78.7503 0 -1.03343e+06 82.3857 0 -1.03342e+06 86.0286 0 -1.03341e+06 89.6792 0 -1.0334e+06 93.338 0 -1.03339e+06 97.0051 0 -1.03338e+06 100.681 0 -1.03336e+06 104.366 0 -1.03335e+06 108.06 0 -1.03334e+06 111.765 0 -1.03333e+06 115.479 0 -1.03332e+06 119.203 0 -1.0333e+06 122.939 0 -1.03329e+06 126.685 0 -1.03328e+06 130.443 0 -1.03326e+06 134.212 0 -1.03325e+06 137.994 0 -1.03323e+06 141.788 0 -1.03322e+06 145.594 0 -1.0332e+06 149.414 0 -1.03318e+06 153.247 0 -1.03317e+06 157.093 0 -1.03315e+06 160.954 0 -1.03313e+06 164.829 0 -1.03311e+06 168.719 0 -1.0331e+06 172.623 0 -1.03308e+06 176.543 0 -1.03306e+06 180.479 0 -1.03304e+06 184.431 0 -1.03302e+06 188.399 0 -1.033e+06 192.383 0 -1.03298e+06 196.385 0 -1.03295e+06 200.404 0 -1.03293e+06 204.441 0 -1.03291e+06 208.496 0 -1.03289e+06 212.569 0 -1.03286e+06 216.66 0 -1.03284e+06 220.771 0 -1.03282e+06 224.901 0 -1.03279e+06 229.051 0 -1.03277e+06 233.221 0 -1.03274e+06 237.411 0 -1.03271e+06 241.622 0 -1.03269e+06 245.854 0 -1.03266e+06 250.107 0 -1.03263e+06 254.383 0 -1.03261e+06 258.68 0 -1.03258e+06 262.999 0 -1.03255e+06 267.342 0 -1.03252e+06 271.707 0 -1.03249e+06 276.096 0 -1.03246e+06 280.508 0 -1.03243e+06 284.945 0 -1.0324e+06 289.406 0 -1.03237e+06 293.892 0 -1.03233e+06 298.403 0 -1.0323e+06 302.94 0 -1.03227e+06 307.502 0 -1.03223e+06 312.091 0 -1.0322e+06 316.706 0 -1.03217e+06 321.348 0 -1.03213e+06 326.017 0 -1.0321e+06 330.714 0 -1.03206e+06 335.438 0 -1.03202e+06 340.191 0 -1.03199e+06 344.973 0 -1.03195e+06 349.783 0 -1.03191e+06 354.623 0 -1.03187e+06 359.492 0 -1.03183e+06 364.391 0 -1.03179e+06 369.321 0 -1.03175e+06 374.281 0 -1.03171e+06 379.273 0 -1.03167e+06 384.295 0 -1.03163e+06 389.35 0 -1.03158e+06 394.436 0 -1.03154e+06 399.555 0 -1.0315e+06 404.707 0 -1.03145e+06 409.892 0 -1.03141e+06 415.111 0 -1.03136e+06 420.363 0 -1.03132e+06 425.649 0 -1.03127e+06 430.97 0 -1.03122e+06 436.326 0 -1.03118e+06 441.717 0 -1.03113e+06 447.144 0 -1.03108e+06 452.607 0 -1.03103e+06 458.106 0 -1.03098e+06 463.641 0 -1.03093e+06 469.214 0 -1.03088e+06 474.824 0 -1.03083e+06 480.472 0 -1.03077e+06 486.158 0 -1.03072e+06 491.882 0 -1.03067e+06 497.645 0 -1.03061e+06 503.447 0 -1.03056e+06 509.289 0 -1.0305e+06 515.17 0 -1.03045e+06 521.092 0 -1.03039e+06 527.054 0 -1.03033e+06 533.058 0 -1.03027e+06 539.102 0 -1.03022e+06 545.188 0 -1.03016e+06 551.316 0 -1.0301e+06 557.486 0 -1.03004e+06 563.699 0 -1.03355e+06 -1.39698e-09 0 -1.03355e+06 5.32173 0 -1.03355e+06 10.644 0 -1.03355e+06 15.9671 0 -1.03355e+06 21.2918 0 -1.03354e+06 26.6184 0 -1.03354e+06 31.9474 0 -1.03354e+06 37.2793 0 -1.03354e+06 42.6146 0 -1.03353e+06 47.9538 0 -1.03353e+06 53.2973 0 -1.03352e+06 58.6457 0 -1.03352e+06 63.9994 0 -1.03352e+06 69.359 0 -1.03351e+06 74.7248 0 -1.0335e+06 80.0975 0 -1.0335e+06 85.4774 0 -1.03349e+06 90.8651 0 -1.03349e+06 96.261 0 -1.03348e+06 101.666 0 -1.03347e+06 107.08 0 -1.03346e+06 112.503 0 -1.03345e+06 117.937 0 -1.03345e+06 123.381 0 -1.03344e+06 128.837 0 -1.03343e+06 134.304 0 -1.03342e+06 139.784 0 -1.03341e+06 145.276 0 -1.0334e+06 150.781 0 -1.03339e+06 156.3 0 -1.03337e+06 161.833 0 -1.03336e+06 167.381 0 -1.03335e+06 172.943 0 -1.03334e+06 178.522 0 -1.03332e+06 184.116 0 -1.03331e+06 189.727 0 -1.0333e+06 195.355 0 -1.03328e+06 201 0 -1.03327e+06 206.664 0 -1.03325e+06 212.346 0 -1.03324e+06 218.047 0 -1.03322e+06 223.768 0 -1.03321e+06 229.508 0 -1.03319e+06 235.269 0 -1.03317e+06 241.052 0 -1.03315e+06 246.855 0 -1.03314e+06 252.681 0 -1.03312e+06 258.529 0 -1.0331e+06 264.4 0 -1.03308e+06 270.295 0 -1.03306e+06 276.214 0 -1.03304e+06 282.157 0 -1.03302e+06 288.125 0 -1.033e+06 294.119 0 -1.03298e+06 300.139 0 -1.03295e+06 306.185 0 -1.03293e+06 312.258 0 -1.03291e+06 318.359 0 -1.03289e+06 324.487 0 -1.03286e+06 330.645 0 -1.03284e+06 336.831 0 -1.03281e+06 343.047 0 -1.03279e+06 349.293 0 -1.03276e+06 355.569 0 -1.03274e+06 361.877 0 -1.03271e+06 368.216 0 -1.03269e+06 374.587 0 -1.03266e+06 380.99 0 -1.03263e+06 387.427 0 -1.0326e+06 393.897 0 -1.03257e+06 400.402 0 -1.03254e+06 406.941 0 -1.03251e+06 413.515 0 -1.03248e+06 420.125 0 -1.03245e+06 426.771 0 -1.03242e+06 433.453 0 -1.03239e+06 440.173 0 -1.03236e+06 446.931 0 -1.03233e+06 453.726 0 -1.03229e+06 460.561 0 -1.03226e+06 467.435 0 -1.03223e+06 474.348 0 -1.03219e+06 481.302 0 -1.03216e+06 488.297 0 -1.03212e+06 495.332 0 -1.03209e+06 502.41 0 -1.03205e+06 509.53 0 -1.03201e+06 516.693 0 -1.03198e+06 523.9 0 -1.03194e+06 531.15 0 -1.0319e+06 538.445 0 -1.03186e+06 545.785 0 -1.03182e+06 553.17 0 -1.03178e+06 560.601 0 -1.03174e+06 568.079 0 -1.0317e+06 575.604 0 -1.03166e+06 583.176 0 -1.03161e+06 590.797 0 -1.03157e+06 598.466 0 -1.03153e+06 606.184 0 -1.03148e+06 613.952 0 -1.03144e+06 621.771 0 -1.03139e+06 629.64 0 -1.03135e+06 637.56 0 -1.0313e+06 645.532 0 -1.03126e+06 653.557 0 -1.03121e+06 661.634 0 -1.03116e+06 669.765 0 -1.03111e+06 677.95 0 -1.03106e+06 686.189 0 -1.03101e+06 694.483 0 -1.03096e+06 702.833 0 -1.03091e+06 711.239 0 -1.03086e+06 719.701 0 -1.03081e+06 728.22 0 -1.03075e+06 736.797 0 -1.0307e+06 745.432 0 -1.03065e+06 754.126 0 -1.03059e+06 762.88 0 -1.03054e+06 771.692 0 -1.03048e+06 780.566 0 -1.03042e+06 789.5 0 -1.03037e+06 798.495 0 -1.03031e+06 807.552 0 -1.03025e+06 816.672 0 -1.03019e+06 825.855 0 -1.03013e+06 835.101 0 -1.03007e+06 844.411 0 -1.03358e+06 -1.86265e-08 0 -1.03358e+06 7.07969 0 -1.03358e+06 14.16 0 -1.03357e+06 21.2417 0 -1.03357e+06 28.3252 0 -1.03357e+06 35.4114 0 -1.03357e+06 42.5007 0 -1.03357e+06 49.594 0 -1.03356e+06 56.6918 0 -1.03356e+06 63.7947 0 -1.03356e+06 70.9035 0 -1.03355e+06 78.0187 0 -1.03355e+06 85.141 0 -1.03354e+06 92.2711 0 -1.03354e+06 99.4096 0 -1.03353e+06 106.557 0 -1.03353e+06 113.714 0 -1.03352e+06 120.882 0 -1.03351e+06 128.06 0 -1.03351e+06 135.251 0 -1.0335e+06 142.453 0 -1.03349e+06 149.669 0 -1.03348e+06 156.898 0 -1.03348e+06 164.141 0 -1.03347e+06 171.399 0 -1.03346e+06 178.673 0 -1.03345e+06 185.963 0 -1.03344e+06 193.269 0 -1.03343e+06 200.593 0 -1.03342e+06 207.936 0 -1.0334e+06 215.297 0 -1.03339e+06 222.678 0 -1.03338e+06 230.078 0 -1.03337e+06 237.5 0 -1.03335e+06 244.943 0 -1.03334e+06 252.408 0 -1.03333e+06 259.895 0 -1.03331e+06 267.406 0 -1.0333e+06 274.942 0 -1.03328e+06 282.501 0 -1.03327e+06 290.087 0 -1.03325e+06 297.698 0 -1.03324e+06 305.336 0 -1.03322e+06 313.001 0 -1.0332e+06 320.694 0 -1.03319e+06 328.416 0 -1.03317e+06 336.167 0 -1.03315e+06 343.948 0 -1.03313e+06 351.76 0 -1.03311e+06 359.603 0 -1.03309e+06 367.479 0 -1.03307e+06 375.386 0 -1.03305e+06 383.327 0 -1.03303e+06 391.303 0 -1.03301e+06 399.312 0 -1.03299e+06 407.357 0 -1.03297e+06 415.438 0 -1.03294e+06 423.556 0 -1.03292e+06 431.711 0 -1.0329e+06 439.904 0 -1.03287e+06 448.136 0 -1.03285e+06 456.407 0 -1.03282e+06 464.718 0 -1.0328e+06 473.07 0 -1.03277e+06 481.463 0 -1.03275e+06 489.898 0 -1.03272e+06 498.376 0 -1.03269e+06 506.898 0 -1.03266e+06 515.463 0 -1.03264e+06 524.074 0 -1.03261e+06 532.729 0 -1.03258e+06 541.431 0 -1.03255e+06 550.18 0 -1.03252e+06 558.976 0 -1.03249e+06 567.82 0 -1.03246e+06 576.714 0 -1.03243e+06 585.657 0 -1.0324e+06 594.65 0 -1.03236e+06 603.694 0 -1.03233e+06 612.789 0 -1.0323e+06 621.937 0 -1.03226e+06 631.138 0 -1.03223e+06 640.393 0 -1.0322e+06 649.702 0 -1.03216e+06 659.066 0 -1.03212e+06 668.486 0 -1.03209e+06 677.962 0 -1.03205e+06 687.496 0 -1.03201e+06 697.087 0 -1.03198e+06 706.737 0 -1.03194e+06 716.446 0 -1.0319e+06 726.215 0 -1.03186e+06 736.045 0 -1.03182e+06 745.936 0 -1.03178e+06 755.889 0 -1.03174e+06 765.905 0 -1.0317e+06 775.984 0 -1.03165e+06 786.128 0 -1.03161e+06 796.336 0 -1.03157e+06 806.61 0 -1.03153e+06 816.95 0 -1.03148e+06 827.357 0 -1.03144e+06 837.832 0 -1.03139e+06 848.375 0 -1.03135e+06 858.987 0 -1.0313e+06 869.669 0 -1.03125e+06 880.421 0 -1.0312e+06 891.245 0 -1.03116e+06 902.141 0 -1.03111e+06 913.109 0 -1.03106e+06 924.15 0 -1.03101e+06 935.266 0 -1.03096e+06 946.456 0 -1.03091e+06 957.721 0 -1.03085e+06 969.063 0 -1.0308e+06 980.482 0 -1.03075e+06 991.978 0 -1.03069e+06 1003.55 0 -1.03064e+06 1015.21 0 -1.03058e+06 1026.94 0 -1.03053e+06 1038.75 0 -1.03047e+06 1050.65 0 -1.03042e+06 1062.62 0 -1.03036e+06 1074.68 0 -1.0303e+06 1086.82 0 -1.03024e+06 1099.05 0 -1.03018e+06 1111.36 0 -1.03012e+06 1123.76 0 -1.03361e+06 2.79397e-09 0 -1.03361e+06 8.82398 0 -1.03361e+06 17.6488 0 -1.03361e+06 26.4752 0 -1.03361e+06 35.304 0 -1.03361e+06 44.136 0 -1.03361e+06 52.9721 0 -1.0336e+06 61.813 0 -1.0336e+06 70.6596 0 -1.0336e+06 79.5126 0 -1.03359e+06 88.3729 0 -1.03359e+06 97.2413 0 -1.03359e+06 106.118 0 -1.03358e+06 115.005 0 -1.03358e+06 123.903 0 -1.03357e+06 132.812 0 -1.03356e+06 141.732 0 -1.03356e+06 150.666 0 -1.03355e+06 159.614 0 -1.03354e+06 168.576 0 -1.03354e+06 177.553 0 -1.03353e+06 186.546 0 -1.03352e+06 195.557 0 -1.03351e+06 204.585 0 -1.0335e+06 213.632 0 -1.03349e+06 222.698 0 -1.03348e+06 231.785 0 -1.03347e+06 240.892 0 -1.03346e+06 250.022 0 -1.03345e+06 259.174 0 -1.03344e+06 268.349 0 -1.03343e+06 277.549 0 -1.03342e+06 286.774 0 -1.03341e+06 296.025 0 -1.03339e+06 305.302 0 -1.03338e+06 314.607 0 -1.03337e+06 323.941 0 -1.03335e+06 333.304 0 -1.03334e+06 342.697 0 -1.03332e+06 352.12 0 -1.03331e+06 361.576 0 -1.03329e+06 371.063 0 -1.03328e+06 380.585 0 -1.03326e+06 390.14 0 -1.03324e+06 399.73 0 -1.03323e+06 409.356 0 -1.03321e+06 419.019 0 -1.03319e+06 428.719 0 -1.03317e+06 438.457 0 -1.03315e+06 448.235 0 -1.03313e+06 458.052 0 -1.03311e+06 467.911 0 -1.03309e+06 477.811 0 -1.03307e+06 487.753 0 -1.03305e+06 497.739 0 -1.03303e+06 507.768 0 -1.03301e+06 517.843 0 -1.03298e+06 527.964 0 -1.03296e+06 538.131 0 -1.03294e+06 548.345 0 -1.03291e+06 558.608 0 -1.03289e+06 568.92 0 -1.03287e+06 579.282 0 -1.03284e+06 589.695 0 -1.03282e+06 600.16 0 -1.03279e+06 610.677 0 -1.03276e+06 621.248 0 -1.03274e+06 631.872 0 -1.03271e+06 642.552 0 -1.03268e+06 653.288 0 -1.03265e+06 664.081 0 -1.03262e+06 674.931 0 -1.0326e+06 685.84 0 -1.03257e+06 696.808 0 -1.03254e+06 707.836 0 -1.03251e+06 718.925 0 -1.03247e+06 730.077 0 -1.03244e+06 741.291 0 -1.03241e+06 752.568 0 -1.03238e+06 763.911 0 -1.03235e+06 775.318 0 -1.03231e+06 786.792 0 -1.03228e+06 798.333 0 -1.03224e+06 809.942 0 -1.03221e+06 821.619 0 -1.03217e+06 833.367 0 -1.03214e+06 845.184 0 -1.0321e+06 857.074 0 -1.03206e+06 869.035 0 -1.03203e+06 881.07 0 -1.03199e+06 893.179 0 -1.03195e+06 905.362 0 -1.03191e+06 917.622 0 -1.03187e+06 929.958 0 -1.03183e+06 942.372 0 -1.03179e+06 954.864 0 -1.03175e+06 967.435 0 -1.03171e+06 980.087 0 -1.03167e+06 992.819 0 -1.03162e+06 1005.63 0 -1.03158e+06 1018.53 0 -1.03154e+06 1031.51 0 -1.03149e+06 1044.58 0 -1.03145e+06 1057.73 0 -1.0314e+06 1070.97 0 -1.03135e+06 1084.29 0 -1.03131e+06 1097.7 0 -1.03126e+06 1111.2 0 -1.03121e+06 1124.8 0 -1.03116e+06 1138.48 0 -1.03111e+06 1152.25 0 -1.03106e+06 1166.12 0 -1.03101e+06 1180.08 0 -1.03096e+06 1194.13 0 -1.03091e+06 1208.28 0 -1.03086e+06 1222.52 0 -1.03081e+06 1236.87 0 -1.03075e+06 1251.31 0 -1.0307e+06 1265.85 0 -1.03065e+06 1280.48 0 -1.03059e+06 1295.22 0 -1.03053e+06 1310.06 0 -1.03048e+06 1325 0 -1.03042e+06 1340.05 0 -1.03036e+06 1355.2 0 -1.0303e+06 1370.45 0 -1.03025e+06 1385.81 0 -1.03019e+06 1401.28 0 -1.03366e+06 -1.58325e-08 0 -1.03366e+06 10.5512 0 -1.03366e+06 21.1034 0 -1.03366e+06 31.6575 0 -1.03365e+06 42.2145 0 -1.03365e+06 52.7754 0 -1.03365e+06 63.3411 0 -1.03365e+06 73.9126 0 -1.03365e+06 84.4909 0 -1.03364e+06 95.0769 0 -1.03364e+06 105.672 0 -1.03364e+06 116.276 0 -1.03363e+06 126.891 0 -1.03363e+06 137.518 0 -1.03362e+06 148.157 0 -1.03362e+06 158.81 0 -1.03361e+06 169.477 0 -1.0336e+06 180.16 0 -1.0336e+06 190.859 0 -1.03359e+06 201.576 0 -1.03358e+06 212.311 0 -1.03358e+06 223.065 0 -1.03357e+06 233.84 0 -1.03356e+06 244.636 0 -1.03355e+06 255.454 0 -1.03354e+06 266.296 0 -1.03353e+06 277.162 0 -1.03352e+06 288.053 0 -1.03351e+06 298.97 0 -1.0335e+06 309.915 0 -1.03349e+06 320.887 0 -1.03348e+06 331.889 0 -1.03347e+06 342.921 0 -1.03345e+06 353.984 0 -1.03344e+06 365.079 0 -1.03343e+06 376.207 0 -1.03341e+06 387.369 0 -1.0334e+06 398.566 0 -1.03339e+06 409.799 0 -1.03337e+06 421.069 0 -1.03336e+06 432.377 0 -1.03334e+06 443.724 0 -1.03332e+06 455.111 0 -1.03331e+06 466.539 0 -1.03329e+06 478.009 0 -1.03327e+06 489.521 0 -1.03326e+06 501.078 0 -1.03324e+06 512.679 0 -1.03322e+06 524.327 0 -1.0332e+06 536.021 0 -1.03318e+06 547.763 0 -1.03316e+06 559.555 0 -1.03314e+06 571.396 0 -1.03312e+06 583.288 0 -1.0331e+06 595.231 0 -1.03308e+06 607.228 0 -1.03306e+06 619.279 0 -1.03304e+06 631.384 0 -1.03301e+06 643.546 0 -1.03299e+06 655.764 0 -1.03297e+06 668.04 0 -1.03294e+06 680.376 0 -1.03292e+06 692.771 0 -1.03289e+06 705.227 0 -1.03287e+06 717.745 0 -1.03284e+06 730.326 0 -1.03282e+06 742.971 0 -1.03279e+06 755.682 0 -1.03276e+06 768.458 0 -1.03274e+06 781.301 0 -1.03271e+06 794.213 0 -1.03268e+06 807.193 0 -1.03265e+06 820.244 0 -1.03262e+06 833.366 0 -1.03259e+06 846.56 0 -1.03256e+06 859.827 0 -1.03253e+06 873.169 0 -1.0325e+06 886.585 0 -1.03247e+06 900.079 0 -1.03244e+06 913.649 0 -1.0324e+06 927.298 0 -1.03237e+06 941.026 0 -1.03234e+06 954.835 0 -1.0323e+06 968.725 0 -1.03227e+06 982.698 0 -1.03223e+06 996.754 0 -1.0322e+06 1010.9 0 -1.03216e+06 1025.12 0 -1.03212e+06 1039.44 0 -1.03209e+06 1053.84 0 -1.03205e+06 1068.33 0 -1.03201e+06 1082.91 0 -1.03197e+06 1097.58 0 -1.03193e+06 1112.34 0 -1.03189e+06 1127.2 0 -1.03185e+06 1142.14 0 -1.03181e+06 1157.19 0 -1.03177e+06 1172.33 0 -1.03173e+06 1187.57 0 -1.03169e+06 1202.91 0 -1.03164e+06 1218.34 0 -1.0316e+06 1233.88 0 -1.03156e+06 1249.51 0 -1.03151e+06 1265.25 0 -1.03147e+06 1281.1 0 -1.03142e+06 1297.05 0 -1.03138e+06 1313.1 0 -1.03133e+06 1329.26 0 -1.03128e+06 1345.53 0 -1.03123e+06 1361.91 0 -1.03118e+06 1378.39 0 -1.03113e+06 1394.99 0 -1.03109e+06 1411.7 0 -1.03103e+06 1428.53 0 -1.03098e+06 1445.46 0 -1.03093e+06 1462.52 0 -1.03088e+06 1479.69 0 -1.03083e+06 1496.97 0 -1.03077e+06 1514.38 0 -1.03072e+06 1531.9 0 -1.03066e+06 1549.55 0 -1.03061e+06 1567.31 0 -1.03055e+06 1585.2 0 -1.0305e+06 1603.22 0 -1.03044e+06 1621.36 0 -1.03038e+06 1639.62 0 -1.03032e+06 1658.01 0 -1.03026e+06 1676.53 0 -1.03371e+06 -4.37722e-08 0 -1.03371e+06 12.258 0 -1.03371e+06 24.5171 0 -1.03371e+06 36.7785 0 -1.03371e+06 49.0432 0 -1.03371e+06 61.3125 0 -1.0337e+06 73.5874 0 -1.0337e+06 85.869 0 -1.0337e+06 98.1585 0 -1.0337e+06 110.457 0 -1.03369e+06 122.766 0 -1.03369e+06 135.086 0 -1.03368e+06 147.418 0 -1.03368e+06 159.764 0 -1.03367e+06 172.124 0 -1.03367e+06 184.501 0 -1.03366e+06 196.894 0 -1.03366e+06 209.305 0 -1.03365e+06 221.736 0 -1.03364e+06 234.186 0 -1.03364e+06 246.659 0 -1.03363e+06 259.153 0 -1.03362e+06 271.672 0 -1.03361e+06 284.215 0 -1.0336e+06 296.784 0 -1.03359e+06 309.381 0 -1.03359e+06 322.005 0 -1.03358e+06 334.659 0 -1.03356e+06 347.344 0 -1.03355e+06 360.06 0 -1.03354e+06 372.809 0 -1.03353e+06 385.592 0 -1.03352e+06 398.41 0 -1.03351e+06 411.264 0 -1.0335e+06 424.156 0 -1.03348e+06 437.086 0 -1.03347e+06 450.056 0 -1.03346e+06 463.066 0 -1.03344e+06 476.119 0 -1.03343e+06 489.214 0 -1.03341e+06 502.354 0 -1.0334e+06 515.539 0 -1.03338e+06 528.771 0 -1.03336e+06 542.051 0 -1.03335e+06 555.379 0 -1.03333e+06 568.757 0 -1.03331e+06 582.187 0 -1.0333e+06 595.669 0 -1.03328e+06 609.204 0 -1.03326e+06 622.794 0 -1.03324e+06 636.44 0 -1.03322e+06 650.143 0 -1.0332e+06 663.904 0 -1.03318e+06 677.724 0 -1.03316e+06 691.605 0 -1.03314e+06 705.547 0 -1.03312e+06 719.552 0 -1.0331e+06 733.622 0 -1.03307e+06 747.756 0 -1.03305e+06 761.957 0 -1.03303e+06 776.225 0 -1.033e+06 790.562 0 -1.03298e+06 804.969 0 -1.03296e+06 819.447 0 -1.03293e+06 833.997 0 -1.03291e+06 848.621 0 -1.03288e+06 863.319 0 -1.03285e+06 878.093 0 -1.03283e+06 892.944 0 -1.0328e+06 907.873 0 -1.03277e+06 922.882 0 -1.03274e+06 937.971 0 -1.03272e+06 953.142 0 -1.03269e+06 968.396 0 -1.03266e+06 983.734 0 -1.03263e+06 999.157 0 -1.0326e+06 1014.67 0 -1.03257e+06 1030.27 0 -1.03254e+06 1045.95 0 -1.0325e+06 1061.73 0 -1.03247e+06 1077.6 0 -1.03244e+06 1093.56 0 -1.03241e+06 1109.61 0 -1.03237e+06 1125.76 0 -1.03234e+06 1142.01 0 -1.0323e+06 1158.35 0 -1.03227e+06 1174.79 0 -1.03223e+06 1191.34 0 -1.0322e+06 1207.98 0 -1.03216e+06 1224.72 0 -1.03212e+06 1241.57 0 -1.03208e+06 1258.53 0 -1.03205e+06 1275.59 0 -1.03201e+06 1292.75 0 -1.03197e+06 1310.03 0 -1.03193e+06 1327.41 0 -1.03189e+06 1344.91 0 -1.03185e+06 1362.52 0 -1.03181e+06 1380.24 0 -1.03176e+06 1398.08 0 -1.03172e+06 1416.03 0 -1.03168e+06 1434.1 0 -1.03164e+06 1452.28 0 -1.03159e+06 1470.59 0 -1.03155e+06 1489.02 0 -1.0315e+06 1507.57 0 -1.03146e+06 1526.24 0 -1.03141e+06 1545.04 0 -1.03136e+06 1563.96 0 -1.03131e+06 1583.01 0 -1.03127e+06 1602.19 0 -1.03122e+06 1621.5 0 -1.03117e+06 1640.93 0 -1.03112e+06 1660.51 0 -1.03107e+06 1680.21 0 -1.03102e+06 1700.05 0 -1.03097e+06 1720.02 0 -1.03091e+06 1740.13 0 -1.03086e+06 1760.38 0 -1.03081e+06 1780.77 0 -1.03075e+06 1801.3 0 -1.0307e+06 1821.97 0 -1.03064e+06 1842.78 0 -1.03059e+06 1863.74 0 -1.03053e+06 1884.85 0 -1.03047e+06 1906.1 0 -1.03041e+06 1927.5 0 -1.03036e+06 1949.05 0 -1.03377e+06 -9.31311e-09 0 -1.03377e+06 13.9409 0 -1.03377e+06 27.8832 0 -1.03377e+06 41.828 0 -1.03377e+06 55.7766 0 -1.03377e+06 69.7304 0 -1.03376e+06 83.6906 0 -1.03376e+06 97.6585 0 -1.03376e+06 111.635 0 -1.03376e+06 125.623 0 -1.03375e+06 139.621 0 -1.03375e+06 153.633 0 -1.03374e+06 167.659 0 -1.03374e+06 181.7 0 -1.03373e+06 195.758 0 -1.03373e+06 209.834 0 -1.03372e+06 223.929 0 -1.03372e+06 238.045 0 -1.03371e+06 252.183 0 -1.0337e+06 266.344 0 -1.0337e+06 280.529 0 -1.03369e+06 294.74 0 -1.03368e+06 308.978 0 -1.03367e+06 323.245 0 -1.03367e+06 337.541 0 -1.03366e+06 351.868 0 -1.03365e+06 366.227 0 -1.03364e+06 380.62 0 -1.03363e+06 395.048 0 -1.03362e+06 409.512 0 -1.03361e+06 424.013 0 -1.03359e+06 438.553 0 -1.03358e+06 453.133 0 -1.03357e+06 467.754 0 -1.03356e+06 482.418 0 -1.03355e+06 497.126 0 -1.03353e+06 511.879 0 -1.03352e+06 526.679 0 -1.03351e+06 541.526 0 -1.03349e+06 556.423 0 -1.03348e+06 571.37 0 -1.03346e+06 586.37 0 -1.03345e+06 601.422 0 -1.03343e+06 616.528 0 -1.03341e+06 631.691 0 -1.0334e+06 646.91 0 -1.03338e+06 662.188 0 -1.03336e+06 677.526 0 -1.03334e+06 692.925 0 -1.03333e+06 708.386 0 -1.03331e+06 723.911 0 -1.03329e+06 739.501 0 -1.03327e+06 755.157 0 -1.03325e+06 770.881 0 -1.03323e+06 786.674 0 -1.03321e+06 802.537 0 -1.03319e+06 818.472 0 -1.03317e+06 834.48 0 -1.03314e+06 850.563 0 -1.03312e+06 866.721 0 -1.0331e+06 882.956 0 -1.03308e+06 899.27 0 -1.03305e+06 915.664 0 -1.03303e+06 932.138 0 -1.033e+06 948.696 0 -1.03298e+06 965.336 0 -1.03295e+06 982.063 0 -1.03293e+06 998.875 0 -1.0329e+06 1015.78 0 -1.03287e+06 1032.77 0 -1.03285e+06 1049.85 0 -1.03282e+06 1067.02 0 -1.03279e+06 1084.28 0 -1.03276e+06 1101.65 0 -1.03273e+06 1119.1 0 -1.0327e+06 1136.66 0 -1.03267e+06 1154.31 0 -1.03264e+06 1172.06 0 -1.03261e+06 1189.92 0 -1.03258e+06 1207.87 0 -1.03255e+06 1225.94 0 -1.03252e+06 1244.1 0 -1.03248e+06 1262.38 0 -1.03245e+06 1280.76 0 -1.03242e+06 1299.26 0 -1.03238e+06 1317.86 0 -1.03235e+06 1336.58 0 -1.03231e+06 1355.41 0 -1.03228e+06 1374.36 0 -1.03224e+06 1393.42 0 -1.03221e+06 1412.6 0 -1.03217e+06 1431.9 0 -1.03213e+06 1451.33 0 -1.03209e+06 1470.87 0 -1.03205e+06 1490.54 0 -1.03201e+06 1510.34 0 -1.03197e+06 1530.26 0 -1.03193e+06 1550.31 0 -1.03189e+06 1570.48 0 -1.03185e+06 1590.79 0 -1.03181e+06 1611.24 0 -1.03177e+06 1631.81 0 -1.03172e+06 1652.52 0 -1.03168e+06 1673.37 0 -1.03164e+06 1694.35 0 -1.03159e+06 1715.48 0 -1.03155e+06 1736.75 0 -1.0315e+06 1758.15 0 -1.03146e+06 1779.7 0 -1.03141e+06 1801.4 0 -1.03136e+06 1823.24 0 -1.03131e+06 1845.23 0 -1.03126e+06 1867.37 0 -1.03122e+06 1889.67 0 -1.03117e+06 1912.11 0 -1.03112e+06 1934.71 0 -1.03106e+06 1957.46 0 -1.03101e+06 1980.37 0 -1.03096e+06 2003.43 0 -1.03091e+06 2026.66 0 -1.03085e+06 2050.05 0 -1.0308e+06 2073.59 0 -1.03075e+06 2097.31 0 -1.03069e+06 2121.18 0 -1.03063e+06 2145.23 0 -1.03058e+06 2169.44 0 -1.03052e+06 2193.82 0 -1.03046e+06 2218.37 0 -1.03384e+06 -6.70556e-08 0 -1.03384e+06 15.5967 0 -1.03384e+06 31.1948 0 -1.03384e+06 46.7958 0 -1.03384e+06 62.4012 0 -1.03383e+06 78.0123 0 -1.03383e+06 93.6307 0 -1.03383e+06 109.258 0 -1.03383e+06 124.895 0 -1.03382e+06 140.543 0 -1.03382e+06 156.205 0 -1.03382e+06 171.881 0 -1.03381e+06 187.573 0 -1.03381e+06 203.282 0 -1.0338e+06 219.011 0 -1.0338e+06 234.759 0 -1.03379e+06 250.529 0 -1.03379e+06 266.322 0 -1.03378e+06 282.14 0 -1.03377e+06 297.983 0 -1.03377e+06 313.854 0 -1.03376e+06 329.755 0 -1.03375e+06 345.685 0 -1.03374e+06 361.647 0 -1.03374e+06 377.643 0 -1.03373e+06 393.673 0 -1.03372e+06 409.74 0 -1.03371e+06 425.844 0 -1.0337e+06 441.987 0 -1.03369e+06 458.171 0 -1.03368e+06 474.397 0 -1.03367e+06 490.666 0 -1.03365e+06 506.981 0 -1.03364e+06 523.342 0 -1.03363e+06 539.75 0 -1.03362e+06 556.208 0 -1.0336e+06 572.717 0 -1.03359e+06 589.278 0 -1.03358e+06 605.893 0 -1.03356e+06 622.564 0 -1.03355e+06 639.291 0 -1.03353e+06 656.076 0 -1.03352e+06 672.92 0 -1.0335e+06 689.826 0 -1.03349e+06 706.795 0 -1.03347e+06 723.828 0 -1.03345e+06 740.926 0 -1.03344e+06 758.092 0 -1.03342e+06 775.326 0 -1.0334e+06 792.63 0 -1.03338e+06 810.005 0 -1.03336e+06 827.454 0 -1.03335e+06 844.977 0 -1.03333e+06 862.577 0 -1.03331e+06 880.254 0 -1.03329e+06 898.01 0 -1.03326e+06 915.846 0 -1.03324e+06 933.765 0 -1.03322e+06 951.767 0 -1.0332e+06 969.854 0 -1.03318e+06 988.028 0 -1.03315e+06 1006.29 0 -1.03313e+06 1024.64 0 -1.03311e+06 1043.08 0 -1.03308e+06 1061.62 0 -1.03306e+06 1080.25 0 -1.03303e+06 1098.98 0 -1.03301e+06 1117.8 0 -1.03298e+06 1136.72 0 -1.03296e+06 1155.74 0 -1.03293e+06 1174.86 0 -1.0329e+06 1194.09 0 -1.03288e+06 1213.42 0 -1.03285e+06 1232.86 0 -1.03282e+06 1252.41 0 -1.03279e+06 1272.06 0 -1.03276e+06 1291.83 0 -1.03273e+06 1311.71 0 -1.0327e+06 1331.7 0 -1.03267e+06 1351.81 0 -1.03264e+06 1372.04 0 -1.03261e+06 1392.39 0 -1.03257e+06 1412.85 0 -1.03254e+06 1433.44 0 -1.03251e+06 1454.15 0 -1.03247e+06 1474.99 0 -1.03244e+06 1495.95 0 -1.03241e+06 1517.04 0 -1.03237e+06 1538.26 0 -1.03234e+06 1559.62 0 -1.0323e+06 1581.1 0 -1.03226e+06 1602.72 0 -1.03223e+06 1624.48 0 -1.03219e+06 1646.37 0 -1.03215e+06 1668.4 0 -1.03211e+06 1690.58 0 -1.03207e+06 1712.89 0 -1.03203e+06 1735.35 0 -1.03199e+06 1757.96 0 -1.03195e+06 1780.71 0 -1.03191e+06 1803.62 0 -1.03187e+06 1826.67 0 -1.03183e+06 1849.87 0 -1.03178e+06 1873.23 0 -1.03174e+06 1896.74 0 -1.0317e+06 1920.41 0 -1.03165e+06 1944.24 0 -1.03161e+06 1968.23 0 -1.03156e+06 1992.38 0 -1.03151e+06 2016.69 0 -1.03147e+06 2041.17 0 -1.03142e+06 2065.81 0 -1.03137e+06 2090.62 0 -1.03132e+06 2115.61 0 -1.03128e+06 2140.76 0 -1.03123e+06 2166.08 0 -1.03118e+06 2191.58 0 -1.03112e+06 2217.26 0 -1.03107e+06 2243.11 0 -1.03102e+06 2269.15 0 -1.03097e+06 2295.36 0 -1.03092e+06 2321.76 0 -1.03086e+06 2348.34 0 -1.03081e+06 2375.1 0 -1.03075e+06 2402.06 0 -1.0307e+06 2429.2 0 -1.03064e+06 2456.53 0 -1.03058e+06 2484.06 0 -1.03391e+06 -3.72449e-09 0 -1.03391e+06 17.2219 0 -1.03391e+06 34.4454 0 -1.03391e+06 51.6721 0 -1.03391e+06 68.9036 0 -1.03391e+06 86.1416 0 -1.03391e+06 103.387 0 -1.03391e+06 120.643 0 -1.0339e+06 137.91 0 -1.0339e+06 155.189 0 -1.0339e+06 172.483 0 -1.03389e+06 189.793 0 -1.03389e+06 207.121 0 -1.03388e+06 224.467 0 -1.03388e+06 241.835 0 -1.03387e+06 259.225 0 -1.03387e+06 276.639 0 -1.03386e+06 294.079 0 -1.03386e+06 311.546 0 -1.03385e+06 329.042 0 -1.03384e+06 346.568 0 -1.03384e+06 364.126 0 -1.03383e+06 381.718 0 -1.03382e+06 399.346 0 -1.03381e+06 417.01 0 -1.0338e+06 434.713 0 -1.0338e+06 452.456 0 -1.03379e+06 470.24 0 -1.03378e+06 488.068 0 -1.03377e+06 505.941 0 -1.03376e+06 523.861 0 -1.03374e+06 541.829 0 -1.03373e+06 559.847 0 -1.03372e+06 577.916 0 -1.03371e+06 596.038 0 -1.0337e+06 614.215 0 -1.03368e+06 632.449 0 -1.03367e+06 650.74 0 -1.03366e+06 669.091 0 -1.03364e+06 687.504 0 -1.03363e+06 705.979 0 -1.03362e+06 724.519 0 -1.0336e+06 743.125 0 -1.03359e+06 761.799 0 -1.03357e+06 780.542 0 -1.03355e+06 799.357 0 -1.03354e+06 818.244 0 -1.03352e+06 837.206 0 -1.0335e+06 856.244 0 -1.03349e+06 875.359 0 -1.03347e+06 894.554 0 -1.03345e+06 913.83 0 -1.03343e+06 933.189 0 -1.03341e+06 952.632 0 -1.03339e+06 972.161 0 -1.03337e+06 991.777 0 -1.03335e+06 1011.48 0 -1.03333e+06 1