<?xml version="1.0"?> 
<VTKFile type="StructuredGrid" version="0.1"> 
<StructuredGrid WholeExtent="0 3 0 3 0 0"> 
<Piece Extent="0 3 0 3 0 0"> 
<PointData>
<DataArray type="Float32" Name="|E|" format="ascii" NumberOfComponents="3"> 
-2.98023e-07 4.20949e+06 0 -3.19269e-08 1.05609e+06 0 6.0536e-09 73315.6 0 0 2282.62 0 -649306 1.60176e+06 0 -263888 293052 0 -22002.4 15816.9 0 -403.208 95.5647 0 -635243 157702 0 -82894.6 -42483.2 0 -8073.81 -6108.24 0 -3847.97 787.649 0 -1.16229e-06 35511.5 0 -2.3155e-07 -29030.4 0 -1.33179e-07 -3570 0 -3.57628e-07 -710.589 0 </DataArray> 
</PointData> 
<Points> 
<DataArray type="Float32" NumberOfComponents="3"> 
0.075 0.021 0 0.0916667 0.021 0 0.108333 0.021 0 0.125 0.021 0 0.0866667 0.0256667 0 0.1 0.0256667 0 0.113333 0.0256667 0 0.126667 0.0256667 0 0.0983333 0.0303333 0 0.108333 0.0303333 0 0.118333 0.0303333 0 0.128333 0.0303333 0 0.11 0.035 0 0.116667 0.035 0 0.123333 0.035 0 0.13 0.035 0 
</DataArray>
</Points> 
</Piece> 
</StructuredGrid> 
</VTKFile> 
