<?xml version="1.0"?> 
<VTKFile type="StructuredGrid" version="0.1"> 
<StructuredGrid WholeExtent="0 3 0 3 0 0"> 
<Piece Extent="0 3 0 3 0 0"> 
<PointData>
<DataArray type="Float32" Name="|E|" format="ascii" NumberOfComponents="3"> 
-2.07579e+06 0 0 -2.07731e+06 16440.1 0 -2.07763e+06 32448.7 0 -2.08099e+06 15480 0 -2.06212e+06 0 0 -2.06417e+06 26964.9 0 -2.07183e+06 52752.6 0 -2.07771e+06 82248.2 0 -2.0469e+06 0 0 -2.05179e+06 39532.3 0 -2.06072e+06 77173.5 0 -2.07079e+06 123781 0 -2.03186e+06 0 0 -2.04006e+06 53821.9 0 -2.0443e+06 101322 0 -2.07968e+06 190184 0 </DataArray> 
</PointData> 
<Points> 
<DataArray type="Float32" NumberOfComponents="3"> 
0 0.016 0 0.002 0.016 0 0.004 0.016 0 0.006 0.016 0 0 0.0176667 0 0.00311111 0.0176667 0 0.00622222 0.0176667 0 0.00933333 0.0176667 0 0 0.0193333 0 0.00422222 0.0193333 0 0.00844444 0.0193333 0 0.0126667 0.0193333 0 0 0.021 0 0.00533333 0.021 0 0.0106667 0.021 0 0.016 0.021 0 
</DataArray>
</Points> 
</Piece> 
</StructuredGrid> 
</VTKFile> 
